/*--------------------------------*- C++ -*----------------------------------*\
| =========                 |                                                 |
| \\      /  F ield         | OpenFOAM: The Open Source CFD Toolbox           |
|  \\    /   O peration     | Version:  v2012                                 |
|   \\  /    A nd           | Website:  www.openfoam.com                      |
|    \\/     M anipulation  |                                                 |
\*---------------------------------------------------------------------------*/
FoamFile
{
    version     2.0;
    format      ascii;
    class       pointVectorField;
    location    "13";
    object      pointD;
}
// * * * * * * * * * * * * * * * * * * * * * * * * * * * * * * * * * * * * * //

dimensions      [0 1 0 0 0 0 0];


internalField   nonuniform List<vector> 
2014
(
(0.00301411 0 5.38941e-21)
(0.00397339 0 -5.4107e-22)
(0.00365436 -0.000286524 5.95828e-21)
(0 -0.00234107 1.40189e-21)
(0 -0.00112023 0)
(0.00301411 0 5.38941e-21)
(0.00397339 0 -5.4107e-22)
(0.00365436 -0.000286524 5.95828e-21)
(0 -0.00234107 1.40189e-21)
(0 -0.00112023 0)
(0.00304289 0 0)
(0.00306233 0 0)
(0.00307451 0 0)
(0.003085 0 0)
(0.00309361 0 0)
(0.0031037 0 0)
(0.00311509 0 0)
(0.00312703 0 0)
(0.0031436 0 0)
(0.00316498 0 0)
(0.00318663 0 0)
(0.0032099 0 0)
(0.00323653 0 0)
(0.00326608 0 0)
(0.0032976 0 0)
(0.00333103 0 0)
(0.00337064 0 0)
(0.00341128 0 0)
(0.0034497 0 0)
(0.00349206 0 0)
(0.00353574 0 0)
(0.00358328 0 0)
(0.00363562 0 0)
(0.00368429 0 0)
(0.00373037 0 0)
(0.00377946 0 0)
(0.00383563 0 0)
(0.00388915 0 0)
(0.00393566 0 0)
(0.00398582 -7.25476e-07 1.88409e-21)
(0.00398121 -2.00298e-06 2.42516e-21)
(0.00397359 -3.93479e-06 -1.09928e-21)
(0.00396316 -6.78077e-06 -6.57183e-23)
(0.00394944 -1.05975e-05 -5.99119e-24)
(0.00393362 -1.63472e-05 -1.4905e-21)
(0.00391714 -2.32516e-05 -2.68609e-21)
(0.0038987 -3.20911e-05 -2.44909e-23)
(0.00387664 -4.47039e-05 -4.96987e-22)
(0.00385396 -5.93193e-05 -4.60046e-21)
(0.00383355 -7.40083e-05 3.02349e-22)
(0.00381069 -9.26808e-05 4.88285e-21)
(0.00378806 -0.000113855 1.51722e-21)
(0.00376858 -0.00013435 8.92457e-22)
(0.00374824 -0.000158583 8.79337e-21)
(0.00372904 -0.000184944 7.36886e-21)
(0.00371266 -0.000210163 5.9443e-21)
(0.00369763 -0.000235617 7.49482e-21)
(0.00368326 -0.0002618 6.42479e-21)
(0.0036047 -0.000304569 1.7224e-21)
(0.00354816 -0.000317553 7.26555e-22)
(0.0034875 -0.000330554 -4.98545e-22)
(0.00342864 -0.000341885 -1.2251e-21)
(0.00336729 -0.000351667 -7.09716e-22)
(0.00330121 -0.000360194 -1.78629e-22)
(0.00323928 -0.000366858 1.14701e-21)
(0.00316777 -0.000373088 8.59666e-22)
(0.00309422 -0.000378396 -1.48763e-22)
(0.00302628 -0.000382589 -1.49596e-21)
(0.00295343 -0.000386552 -1.37108e-21)
(0.00287977 -0.000390693 1.98464e-21)
(0.00279441 -0.000396356 1.70789e-21)
(0.00270701 -0.000402748 -1.30241e-21)
(0.00261676 -0.000410709 -2.11654e-21)
(0.00252369 -0.000421636 -1.35851e-21)
(0.00243202 -0.000434465 8.98396e-22)
(0.00233452 -0.000450009 2.54954e-21)
(0.00223579 -0.000469719 -1.20431e-21)
(0.00211341 -0.000498964 -8.58935e-21)
(0.00198809 -0.000533807 -3.73976e-21)
(0.00187306 -0.000571601 2.71793e-21)
(0.00175051 -0.000616979 7.23785e-22)
(0.00162564 -0.000670178 -1.7541e-21)
(0.00149833 -0.000732599 -4.16567e-21)
(0.00136951 -0.00080288 -1.21855e-21)
(0.00123395 -0.000885718 -2.78493e-21)
(0.00109175 -0.000981719 -1.95365e-21)
(0.000951571 -0.00108768 2.02431e-21)
(0.00081614 -0.00120368 -5.30064e-22)
(0.000686381 -0.00132691 5.54306e-21)
(0.000556248 -0.00146625 1.16425e-20)
(0.000432965 -0.00161394 3.0674e-21)
(0.000325675 -0.00176021 -5.37699e-21)
(0.000227991 -0.00191736 -7.60394e-21)
(0.000152214 -0.00206036 3.07491e-21)
(9.85255e-05 -0.00217395 -1.65475e-21)
(5.81216e-05 -0.00226211 -1.031e-20)
(2.37387e-05 -0.00231864 5.50502e-22)
(0 -0.00232658 0)
(0 -0.0022963 0)
(0 -0.00226977 0)
(0 -0.00224236 0)
(0 -0.00220923 0)
(0 -0.00216095 0)
(0 -0.00204952 0)
(0 -0.00180211 0)
(0 -0.00146552 0)
(0.000558985 -0.00104283 -1.81405e-20)
(0.00103509 -0.00122039 -1.68752e-21)
(0.00140859 -0.00139352 2.05649e-20)
(0.00168668 -0.00144526 4.2113e-21)
(0.00188568 -0.00134472 -4.05697e-21)
(0.00205654 -0.00122172 1.04017e-21)
(0.00223183 -0.00108301 5.49326e-21)
(0.00239765 -0.000949454 -1.08943e-21)
(0.00252993 -0.000832276 -1.38614e-21)
(0.0026454 -0.000715244 -7.90916e-21)
(0.00274717 -0.00060074 -4.06099e-21)
(0.00283749 -0.000473058 1.80436e-21)
(0.00291265 -0.000347538 -3.69399e-21)
(0.00296222 -0.000235597 -1.69584e-21)
(0.00298931 -0.000125183 5.33377e-21)
(0.00304289 0 0)
(0.00306233 0 0)
(0.00307451 0 0)
(0.003085 0 0)
(0.00309361 0 0)
(0.0031037 0 0)
(0.00311509 0 0)
(0.00312703 0 0)
(0.0031436 0 0)
(0.00316498 0 0)
(0.00318663 0 0)
(0.0032099 0 0)
(0.00323653 0 0)
(0.00326608 0 0)
(0.0032976 0 0)
(0.00333103 0 0)
(0.00337064 0 0)
(0.00341128 0 0)
(0.0034497 0 0)
(0.00349206 0 0)
(0.00353574 0 0)
(0.00358328 0 0)
(0.00363562 0 0)
(0.00368429 0 0)
(0.00373037 0 0)
(0.00377946 0 0)
(0.00383563 0 0)
(0.00388915 0 0)
(0.00393566 0 0)
(0.00398582 -7.25476e-07 1.88409e-21)
(0.00398121 -2.00298e-06 2.42516e-21)
(0.00397359 -3.93479e-06 -1.09928e-21)
(0.00396316 -6.78077e-06 -6.57183e-23)
(0.00394944 -1.05975e-05 -5.99119e-24)
(0.00393362 -1.63472e-05 -1.4905e-21)
(0.00391714 -2.32516e-05 -2.68609e-21)
(0.0038987 -3.20911e-05 -2.44909e-23)
(0.00387664 -4.47039e-05 -4.96987e-22)
(0.00385396 -5.93193e-05 -4.60046e-21)
(0.00383355 -7.40083e-05 3.02349e-22)
(0.00381069 -9.26808e-05 4.88285e-21)
(0.00378806 -0.000113855 1.51722e-21)
(0.00376858 -0.00013435 8.92457e-22)
(0.00374824 -0.000158583 8.79337e-21)
(0.00372904 -0.000184944 7.36886e-21)
(0.00371266 -0.000210163 5.9443e-21)
(0.00369763 -0.000235617 7.49482e-21)
(0.00368326 -0.0002618 6.42479e-21)
(0.0036047 -0.000304569 1.7224e-21)
(0.00354816 -0.000317553 7.26555e-22)
(0.0034875 -0.000330554 -4.98545e-22)
(0.00342864 -0.000341885 -1.2251e-21)
(0.00336729 -0.000351667 -7.09716e-22)
(0.00330121 -0.000360194 -1.78629e-22)
(0.00323928 -0.000366858 1.14701e-21)
(0.00316777 -0.000373088 8.59666e-22)
(0.00309422 -0.000378396 -1.48763e-22)
(0.00302628 -0.000382589 -1.49596e-21)
(0.00295343 -0.000386552 -1.37108e-21)
(0.00287977 -0.000390693 1.98464e-21)
(0.00279441 -0.000396356 1.70789e-21)
(0.00270701 -0.000402748 -1.30241e-21)
(0.00261676 -0.000410709 -2.11654e-21)
(0.00252369 -0.000421636 -1.35851e-21)
(0.00243202 -0.000434465 8.98396e-22)
(0.00233452 -0.000450009 2.54954e-21)
(0.00223579 -0.000469719 -1.20431e-21)
(0.00211341 -0.000498964 -8.58935e-21)
(0.00198809 -0.000533807 -3.73976e-21)
(0.00187306 -0.000571601 2.71793e-21)
(0.00175051 -0.000616979 7.23785e-22)
(0.00162564 -0.000670178 -1.7541e-21)
(0.00149833 -0.000732599 -4.16567e-21)
(0.00136951 -0.00080288 -1.21855e-21)
(0.00123395 -0.000885718 -2.78493e-21)
(0.00109175 -0.000981719 -1.95365e-21)
(0.000951571 -0.00108768 2.02431e-21)
(0.00081614 -0.00120368 -5.30064e-22)
(0.000686381 -0.00132691 5.54306e-21)
(0.000556248 -0.00146625 1.16425e-20)
(0.000432965 -0.00161394 3.0674e-21)
(0.000325675 -0.00176021 -5.37699e-21)
(0.000227991 -0.00191736 -7.60394e-21)
(0.000152214 -0.00206036 3.07491e-21)
(9.85255e-05 -0.00217395 -1.65475e-21)
(5.81216e-05 -0.00226211 -1.031e-20)
(2.37387e-05 -0.00231864 5.50502e-22)
(0 -0.00232658 0)
(0 -0.0022963 0)
(0 -0.00226977 0)
(0 -0.00224236 0)
(0 -0.00220923 0)
(0 -0.00216095 0)
(0 -0.00204952 0)
(0 -0.00180211 0)
(0 -0.00146552 0)
(0.000558985 -0.00104283 -1.81405e-20)
(0.00103509 -0.00122039 -1.68752e-21)
(0.00140859 -0.00139352 2.05649e-20)
(0.00168668 -0.00144526 4.2113e-21)
(0.00188568 -0.00134472 -4.05697e-21)
(0.00205654 -0.00122172 1.04017e-21)
(0.00223183 -0.00108301 5.49326e-21)
(0.00239765 -0.000949454 -1.08943e-21)
(0.00252993 -0.000832276 -1.38614e-21)
(0.0026454 -0.000715244 -7.90916e-21)
(0.00274717 -0.00060074 -4.06099e-21)
(0.00283749 -0.000473058 1.80436e-21)
(0.00291265 -0.000347538 -3.69399e-21)
(0.00296222 -0.000235597 -1.69584e-21)
(0.00298931 -0.000125183 5.33377e-21)
(0.00254537 -0.000180678 0)
(0.00325165 -0.000117446 0)
(0.00170919 -0.000709387 0)
(0.00274793 -0.000183903 0)
(0.00309594 -4.62614e-05 0)
(0.00340372 -0.000206378 0)
(0.00361309 -6.18823e-05 0)
(0.000946926 -0.00148708 0)
(0.00283842 -0.000125708 0)
(0.00198424 -0.000433992 0)
(0.00299451 -0.000231939 0)
(0.00335346 -4.24911e-05 0)
(0.00301781 -3.53046e-05 0)
(0.00232815 -0.000433002 0)
(0.003603 -0.000114857 0)
(0.00231438 -0.000311294 0)
(0.00278122 -0.000114235 0)
(0.00304624 -0.000103265 0)
(0.00112379 -0.00113608 0)
(0.00158925 -0.00102687 0)
(0.00269562 -0.000280379 0)
(0.00317882 -0.000271398 0)
(0.00150337 -0.00073957 0)
(0.00221373 -0.000365869 0)
(0.00378996 -2.82123e-05 0)
(0.00351292 -0.000243389 0)
(0.00353542 -3.13769e-05 0)
(0.00326394 -1.91952e-05 0)
(0.00323361 -0.000188822 0)
(0.00037428 -0.00202578 0)
(0.00347395 -0.000102481 0)
(0.00249528 -0.000205319 0)
(0.0031624 -1.47413e-05 0)
(0.000796023 -0.00176242 0)
(0.00303248 -3.67242e-05 0)
(0.0037495 -6.36801e-05 0)
(0.00360808 -0.000159793 0)
(0.00279372 -0.000100265 0)
(0.00297267 -0.000120347 0)
(0.00345179 -6.54882e-05 0)
(0.00271246 -0.000281013 0)
(0.00294692 -0.000169448 0)
(0.00253815 -0.000220621 0)
(0.0032384 -7.43738e-05 0)
(0.00199254 -0.000446128 0)
(0.000698921 -0.00157135 0)
(0.00294283 -5.90324e-05 0)
(0.00244352 -0.000332277 0)
(0.00332202 -0.00028897 0)
(0.00209355 -0.000738225 0)
(0.00366738 -2.50451e-05 0)
(0.00341905 -0.000151808 0)
(0.00286721 -0.000302014 0)
(0.00337131 -1.8552e-05 0)
(0.0018868 -0.000520007 0)
(0.00226282 -0.000299113 0)
(0.00168129 -0.000602976 0)
(0.00131085 -0.00111073 0)
(0.00322222 -4.45004e-05 0)
(0.00134729 -0.00136533 0)
(0.00312218 -1.27454e-05 0)
(0.00312979 -0.000155703 0)
(0.0028624 -0.000122024 0)
(0.00195103 -0.00063002 0)
(0.00223536 -0.000314744 0)
(0.00116211 -0.000993856 0)
(0.00276625 -0.000103566 0)
(0.0025333 -0.000223338 0)
(0.00303 -0.000314484 0)
(0.000370724 -0.00203718 0)
(0.00373444 -8.70257e-05 0)
(0.00243791 -0.000523571 0)
(0.00215009 -0.000413952 0)
(0.00347051 -1.92728e-05 0)
(0.00358359 -9.03162e-05 0)
(0.00385189 -3.28278e-05 0)
(0.00361494 -0.000190647 0)
(0.00148627 -0.000821558 0)
(0.00296434 -7.96569e-05 0)
(0.00304741 -4.4767e-05 0)
(0.00260566 -0.00025149 0)
(0.00309474 -6.7169e-05 0)
(0.00323843 -9.52666e-06 0)
(0.00308712 -3.12675e-05 0)
(0.00388571 -1.03068e-05 0)
(0.0035779 -0.000268058 0)
(0.00286612 -0.000224884 0)
(0.00351123 -0.000153751 0)
(0.00332923 -8.29689e-05 0)
(0.0026953 -0.000156697 0)
(0.00312392 -0.000120693 0)
(0.00371239 -0.000114759 0)
(0.00291528 -7.13507e-05 0)
(0.00313532 -0.000231391 0)
(0.000813334 -0.00134973 0)
(0.00256397 -0.000276814 0)
(0.0037331 -4.88765e-05 0)
(0.00350602 -0.000207248 0)
(0.00327059 -0.00022422 0)
(0.00331519 -0.000143421 0)
(0.00188388 -0.00101183 0)
(0.000438676 -0.00186303 0)
(0.00316151 -2.86515e-05 0)
(0.000132586 -0.00224202 0)
(0.00258133 -0.000350859 0)
(0.000990014 -0.0013405 0)
(0.00127939 -0.00125674 0)
(0.00244026 -0.000238611 0)
(0.00215841 -0.000450794 0)
(0.00289029 -6.76719e-05 0)
(0.00320342 -0.000314682 0)
(0.00166298 -0.000845612 0)
(0.00341412 -0.000297683 0)
(0.00265934 -0.000142444 0)
(0.00310053 -1.3861e-05 0)
(0.00361318 -3.95258e-05 0)
(0.00286698 -0.000255258 0)
(0.00375395 -1.54528e-05 0)
(0.00359674 -1.65343e-05 0)
(0.00343768 -4.54635e-05 0)
(0.00143265 -0.000758802 0)
(0.00332462 -1.03508e-05 0)
(0.00176053 -0.000569207 0)
(0.00066353 -0.00171161 0)
(0.000718031 -0.00171047 0)
(0.00351644 -7.36263e-05 0)
(0.002717 -0.000345958 0)
(0.00197847 -0.000512951 0)
(0.000693232 -0.00176103 0)
(0.00331154 -2.98984e-05 0)
(0.00244837 -0.000216308 0)
(0.00288305 -0.000152025 0)
(0.00339615 -0.000242735 0)
(0.00301967 -0.000103833 0)
(0.00351097 -0.000121513 0)
(0.00286343 -0.000163192 0)
(0.00297245 -7.03631e-05 0)
(0.00317724 -6.08341e-06 0)
(0.0027376 -0.000136505 0)
(0.00263068 -0.000158752 0)
(0.00336263 -0.000106575 0)
(0.000199189 -0.00217532 0)
(0.00124822 -0.00155927 0)
(0.00175894 -0.000574432 0)
(0.00369359 -3.85157e-05 0)
(0.00276013 -0.000215821 0)
(0.00388572 -1.92034e-05 0)
(0.00362397 -0.000221532 0)
(0.00336259 -6.23374e-05 0)
(0.00304537 -2.88943e-05 0)
(0.0030346 -0.000265927 0)
(0.00308876 -2.29915e-05 0)
(0.00148374 -0.000899619 0)
(0.00105603 -0.00149811 0)
(0.00237932 -0.000263927 0)
(0.00228323 -0.000399451 0)
(0.00381865 -5.61988e-05 0)
(0.00341208 -2.85705e-05 0)
(0.000392652 -0.00201521 0)
(0.00246031 -0.000282553 0)
(0.00333935 -0.000181136 0)
(0.00209292 -0.000398575 0)
(0.00165195 -0.000667787 0)
(0.00369886 -0.000143813 0)
(0.00239527 -0.000328272 0)
(0.00328641 -0.000257875 0)
(0.00352152 -5.0519e-05 0)
(0.00311204 -0.00019572 0)
(0.0030865 -1.81913e-05 0)
(0.00188447 -0.000487597 0)
(0.00367539 -8.74392e-05 0)
(0.0021569 -0.000362454 0)
(0.0030464 -5.73994e-05 0)
(0.00361124 -0.000136672 0)
(0.00301251 -0.000188723 0)
(0.00327835 -5.32162e-05 0)
(0.00187025 -0.000789438 0)
(0.00289511 -7.97432e-05 0)
(0.00267664 -0.000426621 0)
(0.00367249 -7.05457e-05 0)
(0.00293137 -5.76604e-05 0)
(0.00196957 -0.000488691 0)
(0.00282243 -0.000270398 0)
(0.00321959 -9.96165e-05 0)
(0.00273343 -0.000114452 0)
(0.00300018 -4.15923e-05 0)
(0.00292018 -0.000344687 0)
(0.0030006 -0.000134299 0)
(0.00230582 -0.000731398 0)
(0.00251132 -0.000381165 0)
(0.00215716 -0.000345631 0)
(0.00342695 -1.02133e-05 0)
(0.00164258 -0.00127185 0)
(0.00310707 -0.000333331 0)
(0.00314256 -8.51129e-05 0)
(0.000913759 -0.00119129 0)
(0.00231935 -0.000345066 0)
(0.000567662 -0.00162074 0)
(0.000248204 -0.00209749 0)
(0.00123677 -0.000902293 0)
(0.00241624 -0.000386125 0)
(0.00297804 -9.56272e-05 0)
(0.00213922 -0.000586618 0)
(0.00300647 -5.52884e-05 0)
(0.00353518 -1.19319e-05 0)
(0.00321673 -0.000156756 0)
(0.00350554 -0.000179295 0)
(0.00328536 -0.000326593 0)
(0.00257656 -0.000293748 0)
(0.00341214 -0.000127959 0)
(0.00385102 -4.04629e-05 0)
(0.0020652 -0.000393823 0)
(0.00317292 -3.85756e-05 0)
(0.00343561 -8.5138e-05 0)
(0.00228557 -0.00030132 0)
(0.0036994 -1.17741e-05 0)
(0.0012635 -0.000966263 0)
(0.00235456 -0.000257968 0)
(0.00319456 -6.28849e-05 0)
(0.00344875 -0.000170537 0)
(0.00155053 -0.000683923 0)
(0.00321724 -5.37226e-06 0)
(0.00232642 -0.000318602 0)
(0.00200257 -0.000431274 0)
(0.000953143 -0.00130914 0)
(0.00342345 -0.000265546 0)
(0.00320586 -1.56486e-05 0)
(0.00272772 -0.00020434 0)
(0.00336566 -8.13224e-06 0)
(0.00349559 -0.000296146 0)
(0.00174748 -0.000645482 0)
(0.00191401 -0.00060041 0)
(0.00294349 -0.000260611 0)
(0.00359266 -2.89718e-05 0)
(0.00161363 -0.000648751 0)
(0.00155464 -0.00115022 0)
(0.000427374 -0.00198804 0)
(0.0027995 -0.000352877 0)
(0.00327752 -6.68831e-06 0)
(0.00383448 -9.20925e-06 0)
(0.00304965 -0.000151793 0)
(0.0026055 -0.000228196 0)
(0.00123699 -0.00108039 0)
(0.00348503 -2.8719e-05 0)
(0.00240655 -0.000237122 0)
(0.00283229 -0.000188392 0)
(0.00377306 -8.83762e-05 0)
(0.00208719 -0.000938398 0)
(0.0014241 -0.00110606 0)
(0.0011531 -0.00128811 0)
(0.00263962 -0.000159738 0)
(0.00295221 -0.000210823 0)
(0.00267203 -0.000190098 0)
(0.00313844 -5.49572e-06 0)
(0.00288183 -0.000104081 0)
(0.00279487 -0.000146603 0)
(0.00323735 -3.05827e-05 0)
(0.00294566 -0.000105624 0)
(0.00353571 -6.11122e-05 0)
(0.00368131 -0.00010553 0)
(0.00263571 -0.000146584 0)
(0.00105282 -0.0011268 0)
(0.00317606 -0.00013363 0)
(0.00305092 -6.19845e-05 0)
(0.00294679 -0.000120932 0)
(0.0014803 -0.00141097 0)
(0.00331829 -1.92226e-05 0)
(0.00287188 -7.86658e-05 0)
(0.00373712 -0.000118583 0)
(0.0030681 -2.46307e-05 0)
(0.00313448 -1.43749e-05 0)
(0.0026684 -0.000184456 0)
(0.00391379 -5.18622e-06 0)
(0.00359806 -0.000279788 0)
(0.00373657 -2.71155e-05 0)
(0.00180197 -0.000534485 0)
(0.00254372 -0.000204897 0)
(0.00308713 -0.00028352 0)
(0.00332116 -0.000163397 0)
(0.000841575 -0.00151532 0)
(0.00230847 -0.000515923 0)
(0.00313874 -2.38555e-05 0)
(0.00353333 -9.05621e-05 0)
(0.00293439 -0.000300709 0)
(0.00212831 -0.000400434 0)
(0.00377154 -5.20497e-05 0)
(0.00359914 -0.000178004 0)
(0.00132671 -0.000858684 0)
(0.00330577 -7.06083e-05 0)
(0.000206938 -0.00213409 0)
(0.00377892 -3.78642e-05 0)
(0.00354314 -0.00021508 0)
(0.0027464 -0.000116953 0)
(0.002998 -4.38794e-05 0)
(0.0034925 -0.000140304 0)
(0.00316174 -4.66553e-06 0)
(0.0033427 -0.000326451 0)
(0.00299068 -0.000350139 0)
(0.00381915 -6.23998e-05 0)
(0.0024319 -0.000268365 0)
(0.00357992 -0.000105914 0)
(0.00321287 -0.000214284 0)
(0.00364426 -1.09492e-05 0)
(0.000999788 -0.0010912 0)
(0.00333817 -0.000223745 0)
(0.00390224 -2.04253e-05 0)
(0.00366878 -0.000192169 0)
(0.00143128 -0.000818423 0)
(0.00346871 -0.000233563 0)
(0.00328059 -4.18312e-05 0)
(0.00211246 -0.000535618 0)
(0.00326944 -1.20008e-05 0)
(0.00312146 -5.28027e-05 0)
(0.002523 -0.000659042 0)
(0.000591002 -0.00187476 0)
(0.00326619 -0.000284448 0)
(0.00311616 -3.56385e-05 0)
(0.00284643 -8.07793e-05 0)
(0.00268026 -0.000251517 0)
(0.00262998 -0.000368128 0)
(0.00289764 -0.000245223 0)
(0.00319374 -0.00024149 0)
(0.000411956 -0.0017884 0)
(0.00392553 -1.0329e-05 0)
(0.0036461 -0.00023499 0)
(0.00217242 -0.000436615 0)
(0.00382888 -1.78115e-05 0)
(0.000101329 -0.00225051 0)
(0.00346584 -6.80429e-06 0)
(0.00352092 -0.000266062 0)
(0.00373094 -7.72202e-05 0)
(0.00358892 -7.62051e-05 0)
(0.00179537 -0.000719454 0)
(6.29417e-05 -0.0022974 0)
(0.00311417 -0.000101148 0)
(0.00310645 -9.64384e-06 0)
(0.00352061 -2.05445e-05 0)
(0.00367084 -5.15434e-05 0)
(0.00107082 -0.00157451 0)
(0.000618258 -0.00150124 0)
(0.00190816 -0.000856853 0)
(0.00283392 -0.00010681 0)
(0.000730029 -0.00169391 0)
(0.00279996 -0.000370225 0)
(0.00113435 -0.00157012 0)
(0.00131171 -0.000970184 0)
(0.00278171 -0.000134024 0)
(0.00307856 -2.0887e-05 0)
(0.000583695 -0.00173484 0)
(0.00161125 -0.000751049 0)
(0.00263688 -0.000169117 0)
(0.00274127 -0.000302396 0)
(0.00201604 -0.000456332 0)
(0.00314743 -0.000304638 0)
(0.00303096 -4.66826e-05 0)
(0.00336235 -3.15931e-05 0)
(0.00214085 -0.000357532 0)
(0.00330254 -0.000125663 0)
(0.00342089 -1.86041e-05 0)
(0.00305247 -8.64265e-05 0)
(0.00227108 -0.000310793 0)
(0.00292995 -0.000194715 0)
(0.00319819 -1.08733e-05 0)
(0.00297454 -5.80155e-05 0)
(0.00251798 -0.00019165 0)
(0.00301632 -7.22875e-05 0)
(0.000345621 -0.00193385 0)
(0.00289903 -0.000177495 0)
(0.00248855 -0.000390529 0)
(0.00184504 -0.000551419 0)
(0.00272009 -0.000139414 0)
(0.00324938 -3.45476e-06 0)
(0.00369841 -0.000161208 0)
(0.0016172 -0.000655154 0)
(0.00277354 -0.000242603 0)
(0.00308946 -1.8194e-05 0)
(0.0022449 -0.000357794 0)
(0.00211691 -0.000438184 0)
(0.00251859 -0.000290083 0)
(0.00327956 -9.87427e-05 0)
(0.00344025 -0.000218913 0)
(0.00367104 -0.00014012 0)
(0.00301459 -4.57066e-05 0)
(0.000117669 -0.00220331 0)
(0.00338838 -7.16948e-05 0)
(0.00356112 -0.000132573 0)
(0.000234514 -0.00215645 0)
(0.00282663 -9.57878e-05 0)
(0.000455635 -0.00191026 0)
(0.00299638 -4.08289e-05 0)
(0.00243364 -0.000345208 0)
(0.00227312 -0.000644192 0)
(0.00356028 -0.000158144 0)
(0.00254428 -0.000250581 0)
(0.000148905 -0.00219822 0)
(0.00307764 -2.16476e-05 0)
(0.00108728 -0.00141111 0)
(0.00319149 -0.00017847 0)
(0.0030588 -0.000237955 0)
(0.00170787 -0.00088032 0)
(0.00256388 -0.000418446 0)
(0.000721026 -0.00148466 0)
(0.00352526 -0.000105195 0)
(0.00281982 -8.81815e-05 0)
(0.00265422 -0.000315502 0)
(0.00305636 -4.31998e-05 0)
(0.000966898 -0.00169779 0)
(0.00252146 -0.000196612 0)
(0.00253356 -0.000204231 0)
(0.00373999 -3.79935e-05 0)
(0.00233598 -0.0002636 0)
(0.00180042 -0.000538831 0)
(0.00321174 -2.17469e-05 0)
(0.000763856 -0.00132463 0)
(0.00316035 -0.000341098 0)
(0.0029106 -8.55605e-05 0)
(0.0019992 -0.00108169 0)
(0.00353656 -0.000301796 0)
(0.0034179 -5.72343e-05 0)
(0.00268946 -0.000216222 0)
(0.000288963 -0.00198547 0)
(0.00205637 -0.0004749 0)
(0.00148375 -0.000956579 0)
(0.00164522 -0.000798747 0)
(0.00333686 -0.000203742 0)
(0.0034015 -3.85981e-05 0)
(0.00265218 -0.000261561 0)
(0.00365766 -3.44372e-05 0)
(0.00300582 -6.3357e-05 0)
(0.00377875 -9.51925e-05 0)
(0.00384259 -2.25443e-05 0)
(0.00122519 -0.00136856 0)
(0.00252783 -0.000244106 0)
(0.00387763 -4.86894e-06 0)
(0.00356592 -0.000239124 0)
(0.00126019 -0.000872872 0)
(0.0033253 -5.4963e-05 0)
(0.00296925 -4.70387e-05 0)
(0.00323456 -0.000137868 0)
(0.00293564 -5.71926e-05 0)
(0.0025444 -0.000179313 0)
(0.00374575 -6.48144e-06 0)
(0.0022761 -0.000418705 0)
(0.00263842 -0.000148146 0)
(0.00144275 -0.0011598 0)
(0.00275831 -0.000315782 0)
(0.00316458 -0.000203555 0)
(0.00109638 -0.00120715 0)
(0.000851758 -0.00166819 0)
(0.000436617 -0.00143914 0)
(0.00349366 -4.06818e-05 0)
(0.00357352 -9.28464e-06 0)
(0.00341641 -0.000113394 0)
(0.00318692 -8.89714e-05 0)
(0.00380116 -5.19921e-05 0)
(0.000304121 -0.00209287 0)
(0.00355636 -4.04484e-05 0)
(0.000553867 -0.00170127 0)
(0.00176966 -0.000580997 0)
(0.00164078 -0.000654976 0)
(0.00248907 -0.000349042 0)
(0.0022241 -0.000383998 0)
(0.00172395 -0.00101749 0)
(0.000893677 -0.00157987 0)
(0.00326193 -8.55905e-05 0)
(0.00313492 -0.000256038 0)
(0.00368523 -9.43794e-05 0)
(0.00330847 -4.70569e-06 0)
(0.00116423 -0.00119934 0)
(0.00295585 -0.00021425 0)
(0.00281138 -0.000230844 0)
(0.00287641 -0.000129047 0)
(0.00361781 -5.07029e-05 0)
(0.0033757 -0.000144488 0)
(0.00298573 -0.000138685 0)
(0.00333207 -0.000263785 0)
(0.00349367 -6.72029e-05 0)
(0.00302441 -7.20666e-05 0)
(0.00336554 -0.00029632 0)
(0.0031247 -6.0712e-06 0)
(0.00342538 -0.000318642 0)
(0.00233815 -0.000271314 0)
(0.000656079 -0.00185753 0)
(0.00322733 -0.000340489 0)
(0.00294529 -0.00015058 0)
(0.00283962 -0.000207568 0)
(0.000838294 -0.00146231 0)
(0.00205075 -0.000408553 0)
(0.00053584 -0.00187185 0)
(0.00383596 -2.95964e-05 0)
(0.00358924 -0.00021675 0)
(0.00309198 -1.20517e-05 0)
(0.00369616 -7.49083e-05 0)
(0.00348501 -8.68523e-05 0)
(0.00188853 -0.000489568 0)
(0.00232787 -0.000294181 0)
(0.00287937 -0.000320535 0)
(0.00280967 -0.000159229 0)
(0.00363554 -2.08436e-05 0)
(0.00148631 -0.000734337 0)
(0.00157461 -0.000668644 0)
(0.000304794 -0.00207501 0)
(0.00232334 -0.000417224 0)
(0.00203547 -0.000540733 0)
(0.00354353 -0.000183164 0)
(0.00312237 -2.16822e-05 0)
(0.00301761 -7.94408e-05 0)
(0.00338483 -8.75891e-05 0)
(0.00317036 -5.59805e-05 0)
(0.00345765 -0.000271428 0)
(0.00202784 -0.000703852 0)
(0.00370562 -2.08334e-05 0)
(0.000991128 -0.00139746 0)
(0.00356137 -2.34075e-05 0)
(0.00273784 -0.000374247 0)
(0.00319776 -3.24063e-06 0)
(0.00388797 -2.79952e-05 0)
(0.000980541 -0.00122348 0)
(0.00138714 -0.000786244 0)
(0.00344669 -0.000134547 0)
(0.0027264 -0.000128178 0)
(0.00282766 -9.59621e-05 0)
(0.00338492 -4.98964e-05 0)
(0.00324115 -0.000251284 0)
(0.00319363 -0.000114358 0)
(0.00189885 -0.000500901 0)
(0.00143086 -0.00152371 0)
(0.00335255 -1.37797e-05 0)
(0.00346501 -0.000117946 0)
(0.00287445 -9.29434e-05 0)
(0.0026984 -0.000125135 0)
(0.00386445 -4.06726e-05 0)
(0.00183152 -0.000750014 0)
(0.00308526 -0.000179521 0)
(0.00183632 -0.000613374 0)
(0.00300577 -6.62059e-05 0)
(0.00372536 -9.93868e-05 0)
(0.00272294 -0.000121582 0)
(0.00328022 -0.00019939 0)
(0.0028005 -0.00032015 0)
(0.00277067 -0.000193849 0)
(0.00305069 -3.29641e-05 0)
(0.0030605 -2.57527e-05 0)
(0.0032732 -2.60553e-05 0)
(0.00364631 -6.60785e-05 0)
(0.00234771 -0.000356607 0)
(0.00319757 -3.06736e-05 0)
(8.24947e-05 -0.00223862 0)
(0.00303557 -0.000204464 0)
(0.000722289 -0.00160586 0)
(0.0035647 -6.85952e-05 0)
(0.00168192 -0.000607533 0)
(0.00275157 -0.000147725 0)
(0.00303663 -3.24325e-05 0)
(0.00264354 -0.000558203 0)
(0.00347036 -5.27422e-05 0)
(0.00299797 -0.000147444 0)
(0.00372019 -6.16964e-05 0)
(0.00306761 -4.14936e-05 0)
(0.00393081 -1.23889e-05 0)
(0.00367596 -0.000208995 0)
(0.000182895 -0.00209904 0)
(0.00302394 -8.89904e-05 0)
(0.00334982 -2.41569e-05 0)
(0.00240674 -0.000319072 0)
(0.00307229 -2.57095e-05 0)
(0.00308392 -0.000313383 0)
(0.00364427 -0.000158671 0)
(0.00334155 -4.77964e-06 0)
(0.00224868 -0.00038461 0)
(0.002069 -0.000388901 0)
(0.00236114 -0.000312402 0)
(0.00357248 -5.00959e-05 0)
(0.0018755 -0.000552741 0)
(0.00288052 -0.000134677 0)
(0.00130415 -0.000906598 0)
(0.00264802 -0.00018171 0)
(0.00330771 -0.000108026 0)
(0.00355292 -0.000122425 0)
(0.00269125 -0.000138574 0)
(0.00317287 -1.01392e-05 0)
(0.00242582 -0.000284549 0)
(0.00286523 -7.71434e-05 0)
(0.00326203 -0.000164224 0)
(0.00286317 -0.000363127 0)
(0.00172035 -0.000609918 0)
(0.00323841 -1.52061e-05 0)
(0.00245259 -0.000242958 0)
(0.00342549 -9.72609e-05 0)
(0.00276255 -0.000215837 0)
(0.00225697 -0.000300006 0)
(0.00351293 -6.2241e-06 0)
(0.00310477 -0.000141713 0)
(0.00239597 -0.000248897 0)
(0.002038 -0.000506402 0)
(0.00315267 -8.8058e-06 0)
(0.00217752 -0.000364443 0)
(0.00340095 -0.000168152 0)
(0.00219289 -0.000340556 0)
(0.00305545 -2.61308e-05 0)
(0.00299585 -0.000119416 0)
(0.00300376 -0.000170329 0)
(0.00326889 -0.0003104 0)
(0.00292012 -0.000104505 0)
(0.00374136 -0.000135405 0)
(0.00152536 -0.000765225 0)
(0.00243287 -0.000225064 0)
(0.00215687 -0.000353837 0)
(0.000524242 -0.00190727 0)
(0.00294832 -5.56949e-05 0)
(0.00202782 -0.000856859 0)
(0.00306238 -0.000356101 0)
(0.00175809 -0.000911666 0)
(0.00381965 -6.87294e-05 0)
(0.00340059 -5.70758e-06 0)
(0.00182271 -0.00120218 0)
(0.00316541 -0.000104734 0)
(0.00294721 -6.40173e-05 0)
(0.00262743 -0.000185826 0)
(0.00127169 -0.00146721 0)
(0.00134724 -0.000823951 0)
(0.00168602 -0.0011527 0)
(0.00197895 -0.000435838 0)
(0.00199323 -0.000449356 0)
(0.00327537 -6.32896e-05 0)
(0.00329463 -1.40252e-05 0)
(0.00345357 -0.000185329 0)
(0.00111275 -0.000983046 0)
(0.00310273 -7.95433e-06 0)
(0.00336317 -0.000126582 0)
(0.00366442 -0.000120441 0)
(0.00147485 -0.000865789 0)
(0.00338448 -2.39713e-05 0)
(0.00222412 -0.000442135 0)
(0.00363743 -9.9852e-05 0)
(0.00323286 -5.30731e-05 0)
(0.00363511 -0.000139747 0)
(0.00237048 -0.000277992 0)
(0.00278517 -9.75551e-05 0)
(0.00318333 -0.000150033 0)
(0.00320703 -0.000288773 0)
(6.21122e-05 -0.00228918 0)
(0.00300076 -0.000253764 0)
(0.00344777 -2.54841e-05 0)
(0.00287645 -0.000276031 0)
(0.00332601 -3.75506e-05 0)
(0.00245368 -0.000229435 0)
(0.00385332 -4.83929e-05 0)
(0.00314663 -3.68587e-05 0)
(0.00193073 -0.000469352 0)
(0.00154343 -0.000975678 0)
(0.0032578 -3.4695e-05 0)
(0.000413665 -0.00201154 0)
(0.00169358 -0.00134423 0)
(0.00207211 -0.000388937 0)
(0.00318805 -7.41171e-05 0)
(0.00202023 -0.000446602 0)
(0.00305765 -0.000135198 0)
(0.00292044 -0.000366529 0)
(0.00220534 -0.000352885 0)
(0.00313531 -7.35651e-05 0)
(0.00300707 -0.000292664 0)
(0.000344808 -0.00199761 0)
(0.000825975 -0.00145102 0)
(0.00130603 -0.00117112 0)
(0.00378078 -2.07785e-05 0)
(0.00363923 -8.65505e-05 0)
(0.00377827 -7.06977e-05 0)
(0.00378324 -6.1897e-05 0)
(0.00306998 -2.7771e-05 0)
(0.00225878 -0.000870108 0)
(0.00092762 -0.00122002 0)
(0.00253944 -0.000259585 0)
(0.0031046 -0.000217115 0)
(0.00338433 -0.000226623 0)
(0.0020982 -0.000425156 0)
(0.00305732 -4.2205e-05 0)
(0.00369246 -2.93298e-05 0)
(0.00176727 -0.000604239 0)
(0.00328705 -0.000180491 0)
(0.00305506 -0.000118609 0)
(0.00134168 -0.00103045 0)
(0.00259398 -0.000310782 0)
(0.00158907 -0.000799395 0)
(0.00305571 -3.18756e-05 0)
(0.00188387 -0.00050408 0)
(0.0035902 -0.000244793 0)
(0.00379377 -7.12592e-06 0)
(0.00254676 -0.000526502 0)
(0.00365026 -0.000167697 0)
(0.00293803 -0.000178843 0)
(0.00339098 -1.22779e-05 0)
(0.00177596 -0.000547475 0)
(0.00349441 -5.92287e-05 0)
(0.00387591 -1.63703e-05 0)
(0.00394141 -5.21256e-06 0)
(0.0036409 -0.000259048 0)
(0.00339595 -0.000186106 0)
(0.000190862 -0.0021082 0)
(0.00287689 -0.000328838 0)
(0.00289071 -0.000185235 0)
(0.0036218 -0.000122714 0)
(0.000571548 -0.0019093 0)
(0.00360817 -6.91793e-06 0)
(0.00295074 -7.15701e-05 0)
(0.00296677 -4.7286e-05 0)
(0.00331382 -4.56362e-05 0)
(0.00362738 -7.77092e-05 0)
(0.00315191 -3.49502e-06 0)
(0.00252747 -0.000329236 0)
(0.00271512 -0.000121405 0)
(0.00300237 -0.000151182 0)
(0.00238546 -0.000370311 0)
(0.00194961 -0.000520854 0)
(0.00151815 -0.00126558 0)
(0.00292369 -0.000138847 0)
(0.00139297 -0.00125879 0)
(0.00306552 -0.000164829 0)
(0.000234198 -0.0021385 0)
(0.00282453 -0.000172604 0)
(0.0035734 -0.000141029 0)
(0.00346917 -0.000319696 0)
(0.00119765 -0.00144714 0)
(0.00245062 -0.000446145 0)
(0.00274662 -0.000478093 0)
(0.00296127 -0.000320894 0)
(0.00216794 -0.000632154 0)
(0.00242409 -0.000404855 0)
(0.00333906 -0.000241999 0)
(0.000324303 -0.0016869 0)
(0.00247065 -0.000211885 0)
(0.00345097 -0.000157511 0)
(0.000834228 -0.00122626 0)
(0.00277073 -0.000267488 0)
(0.00381099 -7.79344e-05 0)
(0.00258671 -0.000165701 0)
(0.00237472 -0.000247992 0)
(0.00305262 -0.000333417 0)
(0.0016358 -0.000703039 0)
(0.0034467 -3.4735e-05 0)
(0.00280916 -0.000115153 0)
(0.00349431 -1.27559e-05 0)
(0.00267797 -0.000379355 0)
(0.00103774 -0.0011055 0)
(0.00217375 -0.000785534 0)
(0.00355777 -1.65592e-05 0)
(0.000470201 -0.00165605 0)
(0.00206384 -0.000443129 0)
(0.0019063 -0.00047469 0)
(0.0023181 -0.000277809 0)
(0.00309575 -8.95304e-05 0)
(0.00223087 -0.000311135 0)
(0.00243387 -0.000256162 0)
(0.00239661 -0.000415146 0)
(0.00304713 -4.20026e-05 0)
(0.00329337 -0.000239376 0)
(0.00282524 -0.000248993 0)
(0.00266909 -0.000351111 0)
(0.00289779 -7.01727e-05 0)
(0.00153026 -0.000739597 0)
(0.00299085 -0.000105527 0)
(0.00327706 -0.000345216 0)
(0.00321056 -3.72424e-05 0)
(0.00328082 -2.77281e-06 0)
(0.00375507 -0.000121287 0)
(0.0028957 -6.8667e-05 0)
(0.00136964 -0.000967405 0)
(0.0034252 -7.69346e-05 0)
(0.00365057 -4.30028e-05 0)
(0.0032346 -6.30705e-05 0)
(0.0011514 -0.00106965 0)
(0.00299106 -4.60621e-05 0)
(0.00116182 -0.00102632 0)
(0.0011615 -0.000968392 0)
(0.00334663 -7.18431e-05 0)
(0.00370616 -4.91519e-06 0)
(0.00178248 -0.000686039 0)
(0.00240012 -0.000770492 0)
(0.000813695 -0.00143563 0)
(0.00260703 -0.000331974 0)
(0.00343052 -4.54068e-06 0)
(0.00199396 -0.000658873 0)
(0.00265987 -0.000336991 0)
(0.00222536 -0.000497717 0)
(0.00291144 -6.17822e-05 0)
(0.00336823 -0.000162061 0)
(0.00347686 -0.0001971 0)
(0.00265455 -0.000221358 0)
(0.00215726 -0.000347182 0)
(0.00241734 -0.000634187 0)
(0.00274665 -0.000171701 0)
(0.00141139 -0.00106183 0)