/*--------------------------------*- C++ -*----------------------------------*\
| =========                 |                                                 |
| \\      /  F ield         | OpenFOAM: The Open Source CFD Toolbox           |
|  \\    /   O peration     | Version:  v2012                                 |
|   \\  /    A nd           | Website:  www.openfoam.com                      |
|    \\/     M anipulation  |                                                 |
\*---------------------------------------------------------------------------*/
FoamFile
{
    version     2.0;
    format      ascii;
    class       volSymmTensorField;
    location    "13";
    object      sigma;
}
// * * * * * * * * * * * * * * * * * * * * * * * * * * * * * * * * * * * * * //

dimensions      [1 -1 -2 0 0 0 0];


internalField   nonuniform List<symmTensor> 
1896
(
(9.13033e+07 -4.88731e+06 5.57375e-09 2.56786e+07 1.38298e-09 3.54855e+07)
(9.61691e+07 -4.45288e+06 5.61606e-09 3.53843e+06 2.81226e-09 2.94453e+07)
(8.93194e+07 -2.52138e+06 0 2.39931e+07 0 3.36205e+07)
(1.69025e+08 2.33461e+06 5.55216e-09 -2.56293e+07 -3.76034e-10 4.53308e+07)
(9.0125e+07 -5.27145e+06 5.34286e-09 2.42868e+07 2.47249e-09 3.45948e+07)
(9.00704e+07 -6.38433e+06 -1.96841e-09 2.28818e+07 -1.29718e-09 3.3859e+07)
(1.75884e+08 6.08959e+06 -3.34711e-08 -2.23411e+07 -2.89753e-08 4.47718e+07)
(8.1347e+07 -9.31135e+06 -4.92461e-09 1.9217e+07 -8.78851e-10 3.02623e+07)
(6.08276e+07 -3.13991e+07 1.84966e-09 -2.6517e+07 3.91851e-09 1.17512e+07)
(7.89077e+07 -6.94431e+06 9.29658e-09 1.97491e+07 2.4499e-10 2.94804e+07)
(9.14009e+07 -927360 2.38188e-09 2.95438e+07 -5.05986e-10 3.6285e+07)
(4.77851e+07 -1.89787e+07 -7.17412e-09 9.6023e+06 -7.14111e-10 1.84184e+07)
(5.54494e+07 -1.16029e+07 5.52406e-09 1.46721e+07 1.11303e-09 1.96194e+07)
(5.03352e+07 -1.55397e+07 -1.04877e-09 1.04191e+07 -1.12205e-09 1.7639e+07)
(1.65289e+08 4.63683e+06 -1.21335e-09 -2.84189e+07 2.60808e-09 4.2835e+07)
(1.36271e+08 1.86473e+07 9.44912e-09 1.1771e+06 -9.82171e-09 4.23203e+07)
(1.06801e+08 -9.97913e+06 -1.67872e-08 1.47381e+06 -1.69429e-10 3.32135e+07)
(1.86804e+08 -3.50442e+07 2.91565e-08 1.27622e+07 1.32791e-08 8.16393e+07)
(1.12265e+08 -1.78392e+07 1.00531e-08 2.6359e+06 2.91284e-09 3.4832e+07)
(5.79428e+07 -2.84581e+07 -3.07315e-08 7.11381e+06 4.02402e-09 9.90388e+06)
(-1.12303e+07 2.49886e+07 1.14897e-09 -1.15205e+08 -1.16015e-08 -4.18041e+07)
(9.60093e+07 -1.24908e+07 -1.40207e-09 9.64143e+06 2.98596e-09 3.14088e+07)
(1.7837e+08 -7.25353e+06 1.83741e-08 -3.33896e+06 1.12511e-08 5.26539e+07)
(1.80584e+08 -5.89386e+06 -4.76152e-09 -1.36433e+06 -3.5528e-09 5.5442e+07)
(9.807e+07 -7.7697e+06 6.44746e-09 3.67259e+06 -6.09597e-10 3.11955e+07)
(9.70803e+07 -7.85885e+06 -7.30288e-10 4.98712e+06 -2.73167e-09 3.05636e+07)
(5.02611e+07 -8.68219e+06 2.1131e-09 1.4654e+07 -9.31362e-10 2.11612e+07)
(5.88432e+07 -8.39003e+06 -4.19178e-09 1.64736e+07 -5.51536e-10 2.16151e+07)
(9.26254e+07 -3.69623e+06 4.03427e-10 2.65721e+07 -7.2356e-10 3.52085e+07)
(1.19801e+08 -2.19332e+07 -6.37058e-09 1.5947e+06 -4.62856e-09 3.79343e+07)
(1.19092e+08 -2.32575e+07 -4.35737e-09 2.26684e+06 1.32137e-09 3.48587e+07)
(9.52443e+07 -1.53364e+06 8.12741e-09 800580 2.2975e-09 2.85905e+07)
(2.69345e+07 -1.64835e+07 -2.01688e-09 -2.14664e+06 -1.19691e-10 9.2156e+06)
(9.5072e+07 -3.237e+06 0 2.88677e+06 0 2.98595e+07)
(1.68633e+08 -4.76022e+06 1.32833e-08 20624.6 4.97224e-09 5.05537e+07)
(9.3669e+07 -2.60345e+06 1.51201e-08 2.77355e+07 3.27068e-09 3.70202e+07)
(1.14868e+08 -2.26246e+07 1.60639e-08 2.71319e+06 2.3531e-09 3.56642e+07)
(9.39957e+07 -3.96023e+06 -8.99807e-10 9.74583e+06 -7.06592e-11 3.06006e+07)
(2.0528e+08 -2.88932e+07 -4.79945e-09 2.61576e+07 2.14011e-09 7.15929e+07)
(1.22933e+08 -2.23833e+07 1.67555e-08 2.81021e+06 -1.77423e-09 3.68077e+07)
(9.39777e+07 -292067 1.47843e-08 287588 5.46214e-09 2.83409e+07)
(1.23575e+08 -2.77403e+07 -3.19621e-08 -2.88709e+06 -7.76326e-09 3.17279e+07)
(9.83713e+07 -2.98368e+07 6.34443e-09 4.05344e+06 -2.57128e-09 3.06215e+07)
(1.25469e+08 -1.22969e+07 1.50254e-08 -2.84376e+07 5.78075e-09 2.85257e+07)
(5.41901e+07 -6.07576e+06 1.16891e-09 1.64643e+07 -6.19193e-10 2.25624e+07)
(5.38676e+07 -7.04309e+06 -4.52176e-09 1.48763e+07 -3.41015e-11 1.9081e+07)
(1.67487e+08 9.94141e+06 1.89556e-08 -2.38505e+07 1.74745e-08 4.3579e+07)
(9.19203e+07 -1.91596e+06 1.4214e-08 2.91853e+07 1.96179e-09 3.60954e+07)
(1.45428e+08 -6.94021e+06 7.92157e-09 -2.04969e+07 1.44166e-08 3.66619e+07)
(1.7571e+08 1.76653e+07 -4.80044e-09 -1.7554e+07 -1.27422e-08 4.74486e+07)
(8.79952e+07 -3.03499e+06 -2.25113e-09 2.40033e+07 8.54952e-10 3.3968e+07)
(8.47537e+07 -8.46751e+06 -3.77353e-09 2.00813e+07 1.72081e-09 3.22845e+07)
(8.43504e+07 -8.0779e+06 4.44769e-09 2.04518e+07 -9.24082e-10 3.03426e+07)
(9.58974e+07 -1.19948e+07 6.03553e-09 8.99453e+06 -3.92574e-09 3.17202e+07)
(7.14066e+07 -3.38216e+07 -1.76718e-08 -2.66296e+07 -8.06659e-09 1.32249e+07)
(9.86503e+07 -1.56032e+06 -8.75575e-09 428019 1.08963e-09 3.00544e+07)
(1.04145e+08 -2.86925e+07 -3.40465e-08 -2.57462e+07 -1.84605e-08 2.48152e+07)
(9.29091e+07 -3.98649e+06 -1.18248e-08 2.66385e+07 -8.6385e-10 3.62993e+07)
(9.38974e+07 -1.90972e+06 -5.91083e-09 1.05623e+07 -1.16637e-09 3.20822e+07)
(1.26222e+08 -3.17794e+06 -8.4553e-09 1.10495e+06 5.4121e-09 3.89425e+07)
(8.07114e+07 -8.43549e+06 6.01103e-10 1.96558e+07 -1.04834e-09 3.01614e+07)
(1.7607e+08 1.41165e+07 -3.10845e-08 -2.06156e+07 -3.56414e-08 4.57632e+07)
(1.72336e+08 1.39793e+07 -1.83412e-08 -1.58562e+07 -1.35385e-09 4.66075e+07)
(9.0946e+07 -1.10755e+07 5.77783e-09 1.80851e+07 3.01498e-10 3.24143e+07)
(2.74604e+07 -2.16811e+07 -2.43472e-08 9.21528e+06 2.27691e-08 2.09543e+07)
(9.46884e+07 -800470 1.15507e-09 23466.6 -1.71745e-09 2.85128e+07)
(1.64244e+08 -1.22529e+07 1.3794e-08 -1.68652e+06 8.2705e-09 4.99394e+07)
(5.9907e+07 -2.63875e+07 8.18011e-09 6.92653e+06 2.47297e-09 2.15285e+07)
(9.42699e+07 -7.26815e+06 -5.50109e-09 1.20752e+07 -2.38082e-09 3.16267e+07)
(1.73474e+08 -8.78042e+06 -1.84565e-08 -1.66782e+06 -7.01201e-09 5.01616e+07)
(2.95473e+07 -4.27693e+06 -9.12483e-10 3.64042e+06 -3.31072e-10 7.35942e+06)
(1.68653e+08 8.08885e+06 2.75054e-08 -1.62318e+07 2.97423e-08 4.42616e+07)
(9.38258e+07 -6.12488e+06 6.14543e-09 1.12071e+07 2.63859e-09 3.14938e+07)
(9.80782e+07 -264802 6.47289e-09 -276242 5.73875e-10 2.95089e+07)
(1.72426e+08 -2.0613e+06 3.96348e-08 677767 6.96253e-09 5.1169e+07)
(9.66916e+07 -6.57705e+06 0 4.73345e+06 0 3.01343e+07)
(9.62802e+07 -5.27464e+06 -8.28905e-09 3.72706e+06 -3.72233e-09 3.0307e+07)
(9.27777e+07 -7.82565e+06 -6.62886e-09 1.9286e+07 -2.19616e-09 3.36069e+07)
(9.22904e+07 -8.81299e+06 5.84414e-10 1.85095e+07 -1.73064e-12 3.33542e+07)
(9.40624e+07 -2.14526e+07 3.74382e-10 9.38558e+06 4.40648e-09 3.21179e+07)
(1.00639e+08 -2.79024e+07 6.00031e-09 1.80881e+06 3.06295e-08 3.46061e+07)
(1.76538e+08 -6.39859e+06 -1.70034e-08 -926255 -1.00197e-08 5.38617e+07)
(6.45168e+07 -5.55043e+06 -2.038e-09 1.84675e+07 -1.71217e-09 2.60448e+07)
(7.59169e+07 -1.35328e+07 -5.49769e-09 1.75523e+07 -6.80523e-10 2.85069e+07)
(7.65975e+07 -1.25041e+07 8.92406e-09 1.77677e+07 2.0646e-09 2.77482e+07)
(1.01855e+08 -2.03462e+07 -1.83531e-10 6.26993e+06 5.25342e-09 3.24783e+07)
(7.71656e+07 -2.57455e+07 2.04423e-08 1.08874e+07 5.055e-09 2.61608e+07)
(7.34867e+07 -2.42822e+07 4.46929e-09 1.09574e+07 -8.72481e-10 2.56854e+07)
(9.25084e+07 -3.01762e+07 2.70842e-08 -2.78358e+07 1.53432e-08 2.08524e+07)
(8.57069e+07 -2.97934e+07 2.10631e-08 5.68107e+06 4.53552e-09 2.71994e+07)
(8.55161e+07 -2.16013e+07 -5.40481e-09 1.24362e+07 9.26968e-10 2.99372e+07)
(1.37829e+08 -1.26722e+07 0 2.51697e+06 0 9.86718e+07)
(5.15094e+07 -2.99809e+07 2.26872e-09 -1.75219e+07 -1.89669e-09 1.01181e+07)
(1.51513e+08 -3.30905e+07 -2.74549e-08 4.17589e+06 -1.77123e-08 4.02874e+07)
(1.9084e+08 -2.40426e+06 -1.46934e-08 -1.52226e+06 -9.37286e-09 5.60986e+07)
(9.73134e+07 -1.05591e+07 -9.1741e-09 6.434e+06 -2.41037e-09 3.14487e+07)
(9.38117e+07 -1.60473e+06 -1.34287e-08 3.2798e+06 -3.61548e-09 2.94936e+07)
(9.31663e+07 -1.48039e+06 -6.37828e-09 3.27022e+07 -1.02238e-09 3.75602e+07)
(9.3893e+07 -1.18689e+06 -1.12597e-08 1.77649e+06 -7.70456e-09 2.86062e+07)
(7.14986e+07 -2.93105e+07 3.57391e-09 3.88402e+06 6.36384e-10 2.408e+07)
(7.68323e+07 -3.09149e+07 1.07177e-08 3.89321e+06 2.61497e-09 2.35131e+07)
(5.96194e+07 -2.56753e+07 8.97752e-09 4.94843e+06 2.45401e-09 1.90536e+07)
(8.97432e+07 -1.11559e+07 -2.19197e-09 1.86547e+07 -3.67753e-10 3.27258e+07)
(5.89718e+07 -3.40503e+07 9.05683e-10 -1.71632e+07 4.91707e-10 1.28501e+07)
(8.3137e+07 -3.46815e+07 1.4311e-08 -1.63269e+07 3.90468e-09 2.10187e+07)
(9.31619e+07 -2.93292e+07 -9.7227e-09 4.81701e+06 -1.06242e-09 3.02883e+07)
(1.01327e+08 -1.91215e+07 -9.67919e-09 6.58595e+06 -1.40962e-10 3.19852e+07)
(1.35704e+08 -1.09488e+07 -1.82293e-08 -3.16208e+07 -1.19273e-08 3.18912e+07)
(1.528e+08 -1.51865e+07 -3.22909e-08 -8.93677e+06 -1.67821e-08 4.46764e+07)
(1.45294e+08 -4.02413e+06 -2.99129e-09 1.08463e+07 1.05487e-08 1.01762e+08)
(9.36823e+07 -319838 -1.00013e-09 3.16023e+07 -1.19822e-09 3.76047e+07)
(9.34957e+07 -304434 -6.10859e-09 2.36725e+06 -1.13677e-08 2.90636e+07)
(1.39722e+08 -2.07509e+07 -5.67263e-09 -1.05114e+07 -3.63233e-09 3.88977e+07)
(1.03284e+08 -2.69717e+07 -1.24624e-09 -2.12057e+07 -1.46053e-09 2.3606e+07)
(1.4906e+08 -5.25529e+07 -3.41542e-09 3.68669e+07 8.66958e-09 6.90274e+07)
(8.00493e+07 -2.57075e+07 7.09215e-09 9.98544e+06 1.66137e-09 2.65522e+07)
(6.71663e+07 -2.34438e+06 8.90967e-09 1.91809e+07 8.01805e-10 2.67418e+07)
(8.50514e+07 -2.55248e+07 8.88318e-09 1.04838e+07 1.14442e-10 2.86554e+07)
(1.03566e+08 -1.5208e+07 2.0175e-08 -3.07017e+07 1.74124e-08 2.16328e+07)
(1.17899e+08 -2.10485e+07 1.25345e-08 2.43388e+06 4.29381e-09 3.65935e+07)
(1.14574e+08 -1.74698e+07 0 -3.20298e+07 0 2.39559e+07)
(6.14403e+07 -3.01453e+07 2.66615e-09 -3.25328e+07 -7.6845e-09 8.34026e+06)
(9.41461e+07 -5.28808e+06 7.67121e-09 8.32267e+06 3.31778e-09 3.1001e+07)
(7.02865e+07 -1.03131e+07 5.23412e-09 1.84343e+07 1.86234e-09 2.53091e+07)
(6.75533e+07 -9.79381e+06 -8.21472e-09 1.79895e+07 3.19667e-09 2.68064e+07)
(8.95661e+07 -2.66437e+07 -1.22398e-08 -3.03199e+07 3.50774e-09 1.78523e+07)
(1.3363e+08 -7.99165e+06 3.52153e-08 -2.87495e+07 4.18741e-08 3.02971e+07)
(8.03904e+07 -1.07657e+07 5.30801e-09 1.88314e+07 -1.95989e-09 2.95855e+07)
(1.17834e+08 -9.00124e+06 -7.41402e-09 441441 7.35308e-09 3.55032e+07)
(7.62639e+07 -3.03915e+07 -1.22393e-08 2.11193e+06 -3.0654e-09 2.22441e+07)
(7.58751e+07 -3.20339e+07 -1.16739e-08 -511525 -3.33e-09 2.3986e+07)
(8.78876e+07 -2.20355e+07 5.83206e-09 1.22501e+07 -4.42465e-10 2.95087e+07)
(1.42161e+08 -1.7573e+07 0 -8.3453e+06 0 3.95334e+07)
(1.38832e+08 -3.18796e+07 -3.39466e-08 6.64597e+06 -1.02932e-08 4.61839e+07)
(1.11262e+08 -1.63341e+07 2.01125e-09 2.94457e+06 4.79832e-09 3.44383e+07)
(1.75273e+08 1.26412e+07 -4.38926e-08 -1.52421e+07 -2.23046e-08 4.92917e+07)
(1.49803e+08 -6.31836e+06 -2.28125e-08 -2.22962e+07 -1.73649e-08 3.84923e+07)
(1.59888e+08 -3.39269e+06 -1.97385e-08 -2.34086e+07 -5.99245e-09 3.89264e+07)
(9.42922e+07 -745974 -7.47607e-09 662213 -5.88397e-10 2.83753e+07)
(1.25724e+08 -2.44848e+07 1.428e-08 33169.4 4.9472e-09 3.81385e+07)
(9.47846e+07 -8.90128e+06 -3.65751e-10 1.02019e+07 -2.51701e-09 3.17769e+07)
(1.30113e+08 -1.5057e+07 -1.15947e-08 -2.46308e+07 -4.24982e-09 3.03245e+07)
(1.24403e+08 -2.45686e+07 9.01368e-09 959547 -2.64048e-09 3.69167e+07)
(2.06599e+08 3.66877e+07 -2.07586e-08 1.4641e+07 -1.99318e-08 6.3988e+07)
(8.26299e+07 -1.78884e+07 6.70373e-09 1.52061e+07 -1.04258e-09 2.87931e+07)
(1.03747e+08 -1.5023e+07 6.93082e-10 3.94596e+06 3.1209e-10 3.31662e+07)
(1.03206e+08 -1.42828e+07 -7.89703e-09 4.87596e+06 -4.09972e-10 3.16409e+07)
(1.1891e+08 -1.11338e+07 1.76697e-08 1.1074e+06 3.27315e-10 3.59643e+07)
(1.72083e+08 -3.70876e+06 -9.84991e-09 -4.34406e+06 -3.66576e-09 5.02678e+07)
(8.29204e+07 -2.48933e+07 0 1.07663e+07 0 2.77123e+07)
(5.65433e+07 -1.22467e+07 8.02006e-10 1.56521e+07 3.60146e-11 2.17637e+07)
(9.37036e+07 -2.92894e+06 4.1216e-09 4.88268e+06 -3.00465e-09 2.94448e+07)
(9.50576e+07 -9.77619e+06 0 1.076e+07 0 3.13821e+07)
(9.2268e+07 -1.14395e+07 3.24786e-09 1.62993e+07 2.0004e-09 3.19586e+07)
(9.14743e+07 -1.3145e+07 -3.66734e-09 1.5605e+07 8.81602e-10 3.18131e+07)
(1.2221e+08 -2.36208e+07 1.16247e-08 -1.69329e+07 1.03191e-08 3.14371e+07)
(6.72529e+07 -2.65069e+06 2.58038e-10 1.80737e+07 -8.67808e-12 2.50469e+07)
(1.22047e+08 -2.15334e+07 -2.0844e-08 -2.09723e+07 -1.90787e-08 3.04913e+07)
(1.43217e+08 -3.28511e+07 -1.03014e-08 7.10671e+06 5.50979e-09 1.03958e+08)
(8.40437e+07 -5.5002e+06 7.32452e-09 2.14559e+07 2.35052e-10 3.18045e+07)
(8.62623e+07 -7.01203e+06 6.46104e-09 2.08759e+07 -6.9854e-10 3.16072e+07)
(1.8369e+08 -588190 -1.20257e-08 905302 -6.61739e-10 5.48743e+07)
(6.09956e+07 -3.13526e+07 -1.75164e-08 -3.39133e+07 -1.27726e-08 9.13836e+06)
(9.33471e+07 -4.05156e+06 -2.39754e-09 1.30745e+07 -1.42313e-09 3.28245e+07)
(2.48711e+08 -1.05408e+06 -3.13607e-09 4.7272e+07 -4.55411e-09 1.1342e+08)
(7.7702e+07 -8.49629e+06 4.15849e-09 1.94144e+07 9.69773e-10 2.92118e+07)
(1.53728e+08 -749762 -1.37731e-08 1.967e+07 -7.73947e-10 5.5526e+07)
(9.24019e+07 -3.13279e+06 -4.2664e-12 2.86882e+07 8.11172e-11 3.63646e+07)
(9.2892e+07 -3.15961e+06 5.77315e-09 2.86112e+07 2.49711e-09 3.72565e+07)
(9.4792e+07 -3.2467e+06 -1.6612e-09 3.64177e+06 6.3658e-09 2.94451e+07)
(9.43625e+07 -2.42152e+06 2.89051e-09 3.32924e+06 -6.03577e-10 2.87426e+07)
(9.61154e+07 -1.48077e+06 -5.78084e-09 457121 -3.23924e-09 2.86212e+07)
(3.55981e+07 -2.02616e+07 -5.30887e-09 -150349 -1.45786e-09 1.09677e+07)
(3.64473e+07 -1.76229e+07 4.23409e-09 3.51426e+06 5.04622e-10 1.12651e+07)
(1.6156e+08 -3.78745e+06 2.44838e-09 -2.55527e+07 -1.77139e-08 4.03915e+07)
(1.64034e+08 -396108 4.32515e-08 -2.46635e+07 3.7102e-08 4.21238e+07)
(1.54058e+08 -2.63013e+06 4.24728e-08 -1.6495e+07 2.8597e-08 4.03846e+07)
(9.76624e+07 -1.0192e+07 -6.29138e-09 6.02921e+06 -3.93618e-11 3.08985e+07)
(9.26774e+07 -1.39556e+06 5.62399e-09 2.9388e+07 4.46129e-10 3.68206e+07)
(7.14345e+07 -3.52014e+07 -1.885e-08 -1.70878e+07 -5.28616e-09 1.62361e+07)
(3.27895e+07 -1.6687e+07 -5.08844e-09 -2.38107e+06 -1.50222e-09 7.96553e+06)
(1.25532e+08 -8.15165e+06 1.78224e-09 176017 -1.10676e-08 3.91867e+07)
(9.23433e+07 -1.1205e+07 1.39399e-08 1.54258e+07 4.29427e-09 3.30641e+07)
(1.56965e+08 -5.80019e+06 -3.12546e-08 -1.52651e+07 -2.55934e-08 4.29722e+07)
(1.63799e+08 5.51116e+06 -9.68776e-09 -2.51761e+07 -6.16265e-10 3.91687e+07)
(2.61265e+08 -8.22598e+06 1.12867e-08 6.38473e+07 5.96078e-09 1.12152e+08)
(7.51615e+07 -2.93276e+07 3.76985e-09 5.65502e+06 -3.43579e-10 2.41477e+07)
(1.88809e+08 3.97216e+07 -1.69466e-08 -3.79421e+06 -1.2036e-08 5.10569e+07)
(-2.29019e+06 5.41274e+06 7.07142e-09 -1.42306e+08 7.36622e-09 -4.68525e+07)
(7.68126e+06 -1.59135e+07 -1.733e-09 -4.77137e+07 -2.96832e-09 -1.08806e+07)
(1.48462e+08 -3.4429e+06 6.2905e-08 -2.5808e+07 4.02507e-08 3.74171e+07)
(9.2875e+07 -2.48665e+06 7.4082e-09 2.91522e+07 1.89531e-09 3.67298e+07)
(1.23026e+08 -1.84642e+07 -3.75278e-08 -2.66903e+07 -2.42059e-08 3.03739e+07)
(1.99543e+08 584784 0 1.2022e+06 0 6.00435e+07)
(6.61509e+07 -2.53122e+07 -1.8074e-08 8.92607e+06 2.36757e-08 2.58237e+07)
(4.74515e+07 -2.42052e+07 -5.97231e-09 3.33713e+06 -1.09283e-09 1.57862e+07)
(9.81317e+07 -2.79943e+07 -1.08672e-08 5.03507e+06 -2.72683e-09 3.10684e+07)
(1.22564e+08 -1.87195e+07 -9.70022e-09 -3.3157e+07 4.03211e-09 2.81828e+07)
(4.85074e+07 -2.08904e+07 6.03906e-09 6.08424e+06 1.3241e-09 1.59991e+07)
(6.74261e+07 -6.66854e+06 -4.63272e-09 1.8645e+07 -7.15876e-10 2.42727e+07)
(7.36915e+07 -2.60299e+07 1.27752e-08 9.69159e+06 -1.13225e-09 2.45224e+07)
(9.62086e+07 -2.76723e+07 1.58175e-08 -1.07568e+07 2.1942e-08 2.65745e+07)
(9.18907e+07 -2.61734e+06 -2.50893e-10 2.90379e+07 -7.87708e-10 3.62641e+07)
(9.22472e+07 -1.28514e+07 1.17698e-08 1.48011e+07 3.14725e-09 3.23925e+07)
(1.92718e+08 3.00784e+07 1.20144e-08 -4.83512e+06 9.82812e-09 6.1524e+07)
(9.04176e+07 -1.27447e+07 -4.673e-09 1.62368e+07 4.81608e-10 3.26452e+07)
(1.39795e+08 -1.19101e+07 8.8043e-09 -2.21568e+07 6.53714e-10 3.55231e+07)
(1.50912e+08 -1.36404e+07 -1.18222e-08 806190 -2.33343e-09 4.58156e+07)
(-7.7548e+06 4.31122e+06 1.52732e-08 -1.42974e+08 3.46316e-08 -3.7423e+07)
(9.99731e+07 -2.61241e+06 6.71681e-09 576946 4.82292e-09 2.98842e+07)
(1.8209e+08 -4.6437e+06 0 -1.55484e+06 0 5.35325e+07)
(1.14465e+08 -2.05131e+07 -1.74535e-08 3.44084e+06 -8.89032e-09 3.47277e+07)
(1.02272e+08 -8.78915e+06 8.9456e-09 2.52317e+06 8.16006e-10 3.08521e+07)
(1.00934e+08 -7.38585e+06 -1.04692e-09 1.71675e+06 -3.39726e-10 3.16448e+07)
(5.75798e+07 -1.9468e+07 9.04505e-12 1.09978e+07 6.18911e-10 1.98523e+07)
(7.0185e+07 -3.20439e+07 1.1643e-08 -1.26297e+07 4.8402e-09 1.67725e+07)
(9.14103e+07 -1.57132e+07 -1.93929e-08 -1.7152e+07 -1.30064e-08 2.67075e+07)
(1.4294e+08 -8.64253e+06 -9.66509e-09 775739 -8.68384e-09 4.40653e+07)
(1.41683e+08 -9.32322e+06 -1.47534e-08 330440 -3.03785e-09 4.09358e+07)
(1.20711e+08 -2.41931e+07 -1.74542e-08 1.3105e+06 -7.60647e-09 3.64533e+07)
(7.72958e+06 -1.66513e+07 2.13796e-08 -4.7128e+07 1.17932e-08 -1.11604e+07)
(9.14216e+07 -1.44168e+07 -1.56249e-08 1.44506e+07 -1.69417e-09 3.21133e+07)
(2.01571e+08 -143914 -1.98421e-08 -225128 -1.34886e-08 5.96258e+07)
(1.58432e+08 -1.09795e+07 1.8479e-08 -6.37483e+06 1.18758e-08 4.39083e+07)
(9.3525e+07 -429230 -2.05678e-09 4.98888e+06 -3.20376e-09 2.92482e+07)
(1.24059e+08 -2.55667e+07 2.08896e-08 -1.00506e+06 8.68609e-09 3.67053e+07)
(1.47534e+08 -1.18548e+07 0 -1.91829e+07 0 3.74754e+07)
(1.01335e+08 -1.61806e+07 -1.42101e-08 6.3798e+06 -5.50609e-09 3.16373e+07)
(1.8277e+08 2.20481e+07 1.44815e-08 1.73569e+07 1.13023e-08 6.15686e+07)
(9.45788e+07 -1.55073e+06 -1.42615e-08 1.21946e+06 -2.17575e-09 2.89269e+07)
(1.48086e+08 1.99614e+07 -1.20686e-08 2.003e+07 -9.19176e-09 5.06969e+07)
(8.25328e+07 -7.71572e+06 -5.18297e-09 2.0309e+07 -2.24447e-09 3.16354e+07)
(8.39157e+07 -5.90202e+06 4.17891e-09 2.04418e+07 1.51927e-09 3.11664e+07)
(9.41057e+07 -353912 0 3.44884e+07 0 3.83608e+07)
(9.34742e+07 -159540 -5.47684e-09 338601 -4.13042e-09 2.82709e+07)
(8.55342e+07 -1.26222e+07 -6.88291e-09 1.80059e+07 -4.1051e-09 3.14643e+07)
(6.23491e+07 -2.4831e+07 9.71679e-09 7.88716e+06 2.21493e-09 1.93486e+07)
(1.21111e+08 -1.71289e+07 -5.88843e-09 -3.40118e+07 -3.28416e-09 2.67133e+07)
(2.23644e+08 2.63139e+07 3.88792e-08 2.14503e+07 2.69481e-08 7.59615e+07)
(1.26091e+08 -3.72051e+06 2.51989e-08 251594 5.11079e-09 3.68297e+07)
(1.37143e+08 -1.20615e+07 6.34897e-09 -1.75801e+07 -7.95394e-09 3.74397e+07)
(1.39801e+08 -9.05859e+06 -3.17617e-08 -2.96681e+07 -3.04185e-08 3.45873e+07)
(5.92745e+07 -2.2025e+07 4.12653e-10 1.16492e+07 1.1889e-09 2.11572e+07)
(2.19591e+08 2.37859e+07 -1.59064e-08 1.56606e+07 -1.58616e-08 8.16445e+07)
(9.50746e+07 -1.29143e+07 -4.14391e-09 1.0186e+07 4.86551e-09 3.21506e+07)
(4.52828e+07 -2.09566e+07 1.88602e-08 6.71167e+06 3.06306e-09 1.57032e+07)
(9.35033e+07 -817150 -3.22774e-09 1.30599e+07 -1.24364e-09 3.13917e+07)
(4.70094e+07 -1.72538e+07 1.44067e-09 6.70056e+06 -1.42292e-10 1.57576e+07)
(4.00765e+07 -1.45256e+07 2.66013e-09 8.08675e+06 -1.61897e-12 1.55442e+07)
(1.4883e+08 -1.57981e+07 1.87706e-09 -766525 5.48301e-09 4.40651e+07)
(6.123e+07 -1.98081e+07 3.71442e-08 -3.91736e+07 2.64605e-08 9.14142e+06)
(1.01383e+08 -2.87276e+07 -6.15668e-09 3.62555e+06 -3.38673e-09 3.12994e+07)
(9.54339e+07 -2.18328e+06 -9.29428e-09 1.49525e+06 -3.39724e-09 2.89584e+07)
(9.27295e+07 -1.27164e+06 -2.01208e-09 3.31456e+07 1.2353e-09 3.8057e+07)
(9.39397e+07 -399880 8.5625e-09 355673 3.05064e-09 2.81076e+07)
(9.28208e+07 -1.59398e+07 -1.45512e-08 1.27706e+07 -3.1841e-09 3.15458e+07)
(3.88045e+07 -2.73849e+07 -5.84482e-09 -1.75989e+07 -6.48208e-10 6.07646e+06)
(2.07057e+08 3.25049e+07 1.56811e-08 6.71169e+06 8.06434e-09 6.46184e+07)
(1.69069e+08 7.30198e+06 2.70394e-08 -1.81949e+07 7.27064e-09 4.61666e+07)
(1.62019e+08 -8.31784e+06 -3.60572e-08 -61091.7 -1.38626e-08 5.00889e+07)
(1.15679e+08 -6.57625e+06 4.30154e-08 -58600 1.20682e-08 3.58636e+07)
(-5.4952e+06 2.12311e+07 5.83089e-09 -1.16354e+08 1.23081e-08 -3.05057e+07)
(-2.88892e+06 3.04748e+06 -8.85443e-09 -9.56305e+07 -1.01659e-08 -3.05393e+07)
(6.68059e+07 -2.4857e+07 1.0497e-08 9.99575e+06 3.56793e-09 2.43191e+07)
(1.09554e+08 -9.63934e+06 -6.66021e-09 882178 -6.49162e-09 3.25393e+07)
(8.8686e+07 -3.14741e+07 -1.06487e-08 -1.55832e+07 -3.17536e-09 2.12175e+07)
(1.43579e+08 1.24189e+07 -4.79321e-09 1.44241e+07 -6.82674e-09 4.62653e+07)
(6.76172e+07 -2.98598e+07 -7.35543e-09 487343 -1.83332e-09 1.81774e+07)
(1.29542e+08 -7.54814e+06 -1.84208e-09 24344.1 3.06833e-09 3.78369e+07)
(9.21936e+07 -1.58211e+07 6.41244e-09 1.30755e+07 2.1654e-11 3.18626e+07)
(7.23485e+07 -3.06906e+07 2.063e-08 2.42915e+06 5.5045e-09 2.24999e+07)
(-7.87951e+06 -4.9648e+06 -5.8235e-10 -5.90614e+07 -6.45739e-09 -2.07824e+07)
(2.00223e+08 1.60497e+06 -3.20854e-08 -2.08966e+06 -1.78298e-08 5.79517e+07)
(4.32222e+07 -1.20509e+07 -4.88278e-09 1.08966e+07 -3.29154e-10 1.6782e+07)
(1.07259e+08 -1.20928e+07 2.024e-08 2.06356e+06 3.09761e-09 3.27011e+07)
(3.27892e+07 -2.86382e+07 1.26408e-08 -1.67263e+07 3.24759e-09 6.12989e+06)
(1.51963e+08 -1.43543e+07 -1.73684e-10 -7.15919e+06 -5.75155e-10 4.32745e+07)
(9.38163e+07 -1.86497e+06 -2.9597e-09 2.01224e+07 -1.02504e-09 3.47599e+07)
(9.20808e+07 -1.85222e+07 8.39015e-09 1.15592e+07 4.9216e-09 3.19491e+07)
(9.162e+07 -917610 -3.9819e-09 2.75098e+07 7.26527e-10 3.54375e+07)
(9.50083e+07 -859890 7.23567e-09 117222 1.13995e-09 2.90561e+07)
(1.52539e+08 -1.5089e+07 1.06495e-08 -1.04457e+06 2.57462e-09 4.60282e+07)
(2.75297e+07 -2.36573e+07 -4.85963e-09 -1.15424e+07 -2.52598e-09 6.34761e+06)
(9.37097e+07 -88296.6 -8.71443e-09 -166174 -5.95929e-10 2.83587e+07)
(9.97768e+07 -1.63135e+07 1.01029e-08 6.77087e+06 1.17907e-10 3.21662e+07)
(1.52659e+08 2.334e+07 -1.70895e-08 -2.42025e+06 -7.5255e-09 4.24075e+07)
(9.72058e+07 -2.22257e+07 1.88499e-10 8.84775e+06 1.01817e-09 3.13346e+07)
(8.25167e+07 -2.64101e+07 -7.47302e-09 9.83459e+06 -3.36638e-09 2.80651e+07)
(9.37925e+07 -2.14808e+07 6.61759e-09 1.08945e+07 3.64885e-09 3.01408e+07)
(9.22544e+07 -202437 0 2.99419e+07 0 3.68335e+07)
(1.24369e+08 3.47281e+06 1.70127e-09 -1.51325e+06 4.6719e-09 4.02613e+07)
(1.12077e+08 -2.02634e+07 1.82053e-08 2.96637e+06 2.53509e-09 3.483e+07)
(1.11226e+08 -2.33066e+07 -3.90512e-09 3.93657e+06 -3.17899e-09 3.46586e+07)
(9.92003e+07 -2.24636e+07 6.12334e-09 7.65662e+06 -5.3203e-10 3.19017e+07)
(2.66909e+08 -1.88826e+06 -6.55257e-09 6.74111e+07 2.79337e-09 1.06459e+08)
(2.86633e+07 -3.58216e+06 -3.33793e-10 6.40088e+06 -7.23598e-10 1.1232e+07)
(1.50687e+08 3.06419e+06 1.93246e-08 -2.07863e+06 2.59788e-09 4.27017e+07)
(7.44328e+07 -2.61996e+07 -7.88845e-09 8.94905e+06 9.2115e-10 2.56596e+07)
(1.99148e+08 2.41238e+07 -8.99311e-09 -5.71436e+06 -1.33421e-08 7.04533e+07)
(1.26713e+07 -1.14884e+07 3.43948e-08 -6.7957e+07 2.68555e-08 -1.37055e+07)
(1.94957e+08 3.09804e+07 1.57948e-08 -3.26132e+06 1.85825e-08 5.82085e+07)
(1.12377e+08 -2.41788e+07 0 2.54942e+06 0 3.45529e+07)
(1.72024e+08 -2.36417e+06 2.66454e-08 -7.57651e+06 2.49908e-08 4.96715e+07)
(1.76412e+08 1.0434e+07 -2.08152e-08 -2.74228e+07 -1.8499e-08 4.77057e+07)
(9.4246e+07 -1.29788e+07 -5.03431e-09 1.26963e+07 1.00707e-09 3.1515e+07)
(8.38292e+07 -1.53875e+07 6.68594e-09 1.6452e+07 1.65037e-09 3.08088e+07)
(8.41875e+07 -1.65741e+07 1.34428e-08 1.573e+07 1.15785e-09 2.95753e+07)
(2.98938e+07 -2.00261e+07 5.17411e-09 -9.19188e+06 1.49083e-09 5.58348e+06)
(2.96536e+07 -2.11498e+07 0 -2.90454e+06 0 7.92148e+06)
(9.25094e+07 -1.7365e+07 1.20674e-08 1.26438e+07 -5.26016e-10 3.09671e+07)
(9.3819e+07 -5.16696e+06 1.78152e-08 1.46437e+07 3.15477e-09 3.18267e+07)
(8.53885e+07 -2.86056e+07 -1.19544e-08 6.87883e+06 -3.61991e-09 2.81378e+07)
(3.9691e+07 -1.68142e+07 -1.27715e-09 5.90734e+06 -1.32032e-10 1.32717e+07)
(9.36275e+07 -1.34705e+06 -8.34639e-09 3.14231e+07 -1.50661e-09 3.67616e+07)
(9.35585e+07 -1.14619e+06 2.99698e-08 1.90838e+06 1.04162e-08 2.937e+07)
(1.17199e+08 -1.22713e+07 -9.0535e-10 1.93061e+06 1.02235e-09 3.55679e+07)
(7.51434e+07 -461791 -5.10114e-10 1.99516e+07 -9.27189e-10 2.83977e+07)
(9.39731e+07 -5.0251e+06 -8.14608e-10 1.05424e+07 -1.76491e-09 3.16346e+07)
(1.01652e+08 -3.00939e+07 -1.00825e-08 3.09971e+06 -1.18538e-09 3.13189e+07)
(9.36746e+07 -6.8091e+06 -2.1917e-10 1.53627e+07 -4.29342e-10 3.30825e+07)
(8.13697e+07 -1.90429e+07 -1.24388e-08 1.45122e+07 2.73752e-09 2.94985e+07)
(1.76898e+08 1.6373e+07 0 -5.78418e+06 0 5.46216e+07)
(1.77555e+08 1.89982e+07 -4.10195e-08 -3.07747e+06 -3.86431e-08 4.81096e+07)
(9.93041e+07 -3.23097e+07 -5.02209e-09 -150406 -4.41107e-09 2.99154e+07)
(3.51916e+07 -2.3699e+07 7.20494e-09 -1.25339e+07 2.00419e-09 5.8404e+06)
(9.27139e+07 -2.94339e+07 3.14522e-08 5.60714e+06 8.64341e-09 2.83714e+07)
(1.00553e+08 -3.00336e+07 0 2.67038e+06 0 2.94459e+07)
(3.80708e+07 -2.38933e+07 -7.89168e-09 -4.4615e+06 -1.9872e-09 9.03562e+06)
(9.22416e+07 -6.40724e+06 7.93843e-10 2.31429e+07 1.16032e-09 3.42524e+07)
(9.50522e+07 -5.07415e+06 -5.03877e-09 6.08058e+06 -3.31878e-09 3.03049e+07)
(-7.25266e+06 -849300 -6.68627e-09 -8.80776e+07 -6.13842e-09 -3.72193e+07)
(1.14965e+08 -481575 -1.86489e-08 -466939 9.90531e-10 3.44659e+07)
(9.37829e+07 -882881 -6.40875e-10 3.27597e+07 3.6206e-11 3.77753e+07)
(9.3641e+07 -406872 1.31964e-08 472913 1.65201e-09 2.85425e+07)
(7.79914e+07 -5.99369e+06 9.59203e-10 2.00891e+07 3.86025e-11 2.96483e+07)
(-6.42153e+06 1.68315e+07 -9.82302e-09 -1.30412e+08 -2.61205e-08 -3.28389e+07)
(5.54642e+07 -2.29694e+07 1.59021e-09 9.65995e+06 -3.13661e-10 2.06223e+07)
(1.79656e+08 -2.50417e+06 2.79336e-08 -5.19267e+06 1.48146e-08 5.28278e+07)
(9.16363e+07 -6.70207e+06 3.95727e-09 2.35747e+07 -3.60492e-10 3.47362e+07)
(9.58025e+07 -5.46161e+06 3.19644e-09 5.26313e+06 -1.53754e-09 2.97083e+07)
(1.02049e+08 -3.1023e+07 1.84495e-08 -5.28074e+06 6.84526e-09 2.93542e+07)
(-3.67329e+06 1.12174e+06 -1.39206e-08 -8.51523e+07 -7.18943e-09 -2.68173e+07)
(1.15291e+08 -2.80013e+07 -1.17908e-08 24380.1 -5.57499e-11 3.38873e+07)
(7.62641e+07 -3.19839e+07 -1.23281e-08 -1.64518e+07 -4.09902e-09 1.74565e+07)
(6.17834e+07 -1.24172e+07 9.19961e-09 1.5733e+07 1.60929e-09 2.29742e+07)
(1.15816e+08 -1.61935e+07 1.17292e-08 2.18335e+06 7.21141e-10 3.45031e+07)
(1.10362e+08 -2.06666e+07 7.92084e-09 3.84674e+06 -5.51782e-10 3.39178e+07)
(1.49041e+08 -3.57834e+07 2.50837e-08 444568 4.10023e-09 5.78148e+07)
(7.39148e+07 -2.75814e+07 -3.19504e-09 8.48561e+06 1.67173e-09 2.49588e+07)
(-1.64616e+07 1.164e+07 -9.05135e-09 -1.07878e+08 -1.69803e-08 -3.02091e+07)
(1.38963e+07 -2.17942e+07 5.51022e-09 -3.01116e+07 3.59944e-09 -4.09644e+06)
(9.15561e+07 -7.53217e+06 -2.14012e-09 2.20585e+07 1.64829e-09 3.41718e+07)
(8.417e+07 -2.75424e+07 2.73661e-08 -3.73529e+07 3.47618e-09 1.62243e+07)
(9.919e+07 -2.32261e+07 -5.96201e-10 7.4722e+06 2.69608e-09 3.20639e+07)
(1.08482e+08 -1.33046e+07 -2.59697e-08 2.56988e+06 -2.57872e-09 3.40674e+07)
(1.15705e+08 -1.67238e+07 9.80332e-10 2.01829e+06 7.31115e-09 3.64615e+07)
(-1.04094e+07 1.10644e+07 0 -1.58186e+07 0 -7.61014e+06)
(1.92508e+08 -1.00297e+07 -1.3158e-09 -2.4589e+06 -1.44166e-08 6.04755e+07)
(8.00193e+07 -2.80807e+07 -7.32601e-09 8.07435e+06 -7.62195e-10 2.76469e+07)
(1.12112e+08 -1.43004e+07 -6.10285e-08 -3.31025e+07 -3.71257e-08 2.43384e+07)
(8.45496e+07 -2.6877e+07 -2.57335e-08 -3.23497e+07 -1.02488e-08 1.41089e+07)
(2.48198e+08 1.20251e+07 -4.07947e-08 6.19385e+07 -1.55378e-08 9.4062e+07)
(1.99101e+08 -2.07977e+07 1.45097e-09 5.41112e+06 9.92798e-10 7.94622e+07)
(1.11459e+07 -9.45685e+06 -1.30103e-08 -6.0126e+07 -2.15437e-08 -1.86767e+07)
(9.57033e+07 -7.30304e+06 -1.04989e-08 5.8596e+06 -3.02625e-09 3.09846e+07)
(1.04833e+08 -1.2436e+07 -2.01328e-10 3.2197e+06 2.35321e-10 3.28894e+07)
(1.29031e+08 -2.49523e+07 -2.76675e-08 -2.86108e+06 -1.14309e-08 3.88532e+07)
(1.29457e+08 -2.44632e+07 -1.12609e-08 -3.24658e+06 -5.34193e-09 3.68891e+07)
(9.15893e+07 -2.41071e+07 -5.40841e-09 9.34107e+06 -2.30138e-09 3.11417e+07)
(1.03194e+08 1.58947e+07 1.16044e-08 5.921e+06 1.08626e-08 3.05986e+07)
(1.72387e+08 1.31999e+07 -7.34498e-09 -2.47582e+07 -1.36901e-08 4.49017e+07)
(4.82258e+07 -1.55695e+07 3.48787e-09 1.17899e+07 5.01646e-10 1.66449e+07)
(9.31233e+07 -780156 2.30014e-09 3.55257e+07 2.54391e-12 3.82469e+07)
(9.37076e+07 -266472 -1.55916e-08 56350.4 -7.14639e-09 2.82164e+07)
(9.55171e+07 -6.49227e+06 0 5.42208e+06 0 3.06354e+07)
(5.78307e+07 -3.19105e+07 -1.15079e-08 -9.9257e+06 -3.0678e-09 1.25631e+07)
(1.64473e+08 -4.87743e+07 -1.17655e-08 2.43563e+07 -1.08214e-08 7.91732e+07)
(1.01022e+08 -2.58527e+07 5.28303e-08 -2.73575e+07 3.07086e-08 2.07659e+07)
(7.90897e+07 -2.42643e+07 6.70317e-09 1.16583e+07 3.2978e-09 2.81404e+07)
(7.8883e+07 -2.67143e+07 -9.02199e-09 7.97846e+06 -9.04165e-10 2.55803e+07)
(6.96856e+07 -2.50387e+07 -1.99731e-08 1.03483e+07 -1.2253e-09 2.3322e+07)
(9.40581e+07 -330928 0 285127 0 2.82487e+07)
(2.08746e+07 -2.44446e+07 1.14273e-08 -3.84117e+07 4.56811e-09 -7.4817e+06)
(9.35113e+07 -7.88961e+06 6.76969e-09 1.6729e+07 1.37718e-09 3.23814e+07)
(5.06706e+07 -3.21594e+07 2.73931e-08 -1.00271e+07 8.66366e-09 1.44395e+07)
(9.37809e+07 -626337 -4.28831e-09 2.18545e+07 -3.35498e-09 3.43051e+07)
(2.13073e+08 -8.15885e+06 -2.75252e-09 1.61897e+07 -6.86255e-09 7.89407e+07)
(9.51076e+07 -7.28046e+06 -2.29629e-09 6.81497e+06 -6.66819e-10 3.0635e+07)
(9.28303e+07 -627712 -1.18326e-08 3.17119e+07 -1.65822e-09 3.72766e+07)
(2.05721e+08 1.60701e+06 -2.94661e-08 3.41793e+06 -1.81031e-08 8.19555e+07)
(8.06396e+07 -1.15394e+07 -7.49914e-09 1.8343e+07 1.1114e-09 2.98828e+07)
(9.09451e+07 -6.4315e+06 3.2702e-09 2.3628e+07 -4.7408e-10 3.41613e+07)
(1.79632e+08 2.03563e+06 -1.9814e-08 -446857 -5.21058e-09 5.42711e+07)
(1.42224e+08 -5.22756e+07 0 2.03671e+07 0 4.09284e+07)
(8.77663e+07 -1.33195e+07 -3.14458e-09 1.69543e+07 3.43145e-09 3.12779e+07)