/*--------------------------------*- C++ -*----------------------------------*\
| =========                 |                                                 |
| \\      /  F ield         | OpenFOAM: The Open Source CFD Toolbox           |
|  \\    /   O peration     | Version:  v2012                                 |
|   \\  /    A nd           | Website:  www.openfoam.com                      |
|    \\/     M anipulation  |                                                 |
\*---------------------------------------------------------------------------*/
FoamFile
{
    version     2.0;
    format      ascii;
    class       volScalarField;
    location    "13";
    object      sigmaHyd;
}
// * * * * * * * * * * * * * * * * * * * * * * * * * * * * * * * * * * * * * //

dimensions      [1 -1 -2 0 0 0 0];


internalField   nonuniform List<scalar> 
1896
(
5.08224e+07
4.30509e+07
4.89777e+07
6.29087e+07
4.96689e+07
4.89371e+07
6.61049e+07
4.36088e+07
1.53539e+07
4.27124e+07
5.24099e+07
2.52686e+07
2.99136e+07
2.61311e+07
5.99017e+07
5.99228e+07
4.71628e+07
9.37353e+07
4.99108e+07
2.49868e+07
-5.60798e+07
4.56865e+07
7.58951e+07
7.82207e+07
4.43127e+07
4.42103e+07
2.86921e+07
3.23106e+07
5.14687e+07
5.31099e+07
5.20725e+07
4.15452e+07
1.13345e+07
4.26061e+07
7.3069e+07
5.28082e+07
5.10817e+07
4.47807e+07
1.0101e+08
5.41837e+07
4.08687e+07
5.08054e+07
4.43487e+07
4.18524e+07
3.10723e+07
2.9275e+07
6.24051e+07
5.24003e+07
5.38644e+07
6.85348e+07
4.86555e+07
4.57065e+07
4.50483e+07
4.55374e+07
1.9334e+07
4.30443e+07
3.44048e+07
5.1949e+07
4.5514e+07
5.54231e+07
4.35095e+07
6.70724e+07
6.76958e+07
4.71485e+07
1.921e+07
4.10749e+07
7.08324e+07
2.9454e+07
4.59906e+07
7.39892e+07
1.35157e+07
6.55611e+07
4.55089e+07
4.24369e+07
7.47575e+07
4.38531e+07
4.34381e+07
4.85569e+07
4.80514e+07
4.51886e+07
4.56845e+07
7.64911e+07
3.6343e+07
4.06587e+07
4.07044e+07
4.68678e+07
3.80713e+07
3.67098e+07
2.85083e+07
3.95291e+07
4.26299e+07
7.96725e+07
1.47018e+07
6.53256e+07
8.18053e+07
4.50654e+07
4.2195e+07
5.44762e+07
4.14252e+07
3.31542e+07
3.47462e+07
2.78738e+07
4.70412e+07
1.82196e+07
2.92763e+07
4.27557e+07
4.66328e+07
4.53249e+07
6.28465e+07
8.59674e+07
5.42964e+07
4.16422e+07
5.60361e+07
3.52282e+07
8.49848e+07
3.88623e+07
3.76963e+07
4.13969e+07
3.14992e+07
5.23087e+07
3.54999e+07
1.24159e+07
4.44899e+07
3.801e+07
3.74497e+07
2.56995e+07
4.50593e+07
4.29358e+07
5.12595e+07
3.354e+07
3.31165e+07
4.32155e+07
5.7783e+07
6.38871e+07
4.95483e+07
6.97742e+07
5.53329e+07
5.84687e+07
4.11099e+07
5.46318e+07
4.55878e+07
4.5269e+07
5.40932e+07
9.50761e+07
4.22097e+07
4.6953e+07
4.65743e+07
5.19939e+07
7.26688e+07
4.04663e+07
3.13197e+07
4.2677e+07
4.57332e+07
4.68419e+07
4.62975e+07
4.55713e+07
3.67912e+07
4.38552e+07
8.47606e+07
4.5768e+07
4.62485e+07
7.98232e+07
1.20736e+07
4.64153e+07
1.36467e+08
4.21094e+07
7.63081e+07
5.24849e+07
5.29199e+07
4.26263e+07
4.21448e+07
4.17312e+07
1.54718e+07
1.70755e+07
5.87995e+07
6.04982e+07
5.93157e+07
4.48634e+07
5.2962e+07
2.35276e+07
1.27913e+07
5.49648e+07
4.69444e+07
6.15574e+07
5.92638e+07
1.45755e+08
3.49881e+07
7.86904e+07
-6.38163e+07
-1.6971e+07
5.33572e+07
5.2919e+07
4.22367e+07
8.69295e+07
3.36335e+07
2.21916e+07
4.47451e+07
3.91966e+07
2.35302e+07
3.67813e+07
3.59685e+07
3.73421e+07
5.23976e+07
4.64803e+07
8.31355e+07
4.64332e+07
5.10537e+07
6.58447e+07
-6.27171e+07
4.34781e+07
7.80225e+07
5.08777e+07
4.52159e+07
4.47653e+07
2.94766e+07
2.47759e+07
3.36553e+07
6.25938e+07
6.09829e+07
5.28251e+07
-1.68529e+07
4.59952e+07
8.69906e+07
6.53219e+07
4.25874e+07
5.32531e+07
5.52754e+07
4.64507e+07
8.72319e+07
4.15751e+07
7.29378e+07
4.48257e+07
4.51746e+07
5.56516e+07
4.06946e+07
4.50015e+07
2.98616e+07
3.79374e+07
1.07019e+08
5.43909e+07
5.23342e+07
4.82399e+07
3.06937e+07
1.05632e+08
4.58037e+07
2.25659e+07
4.5985e+07
2.31559e+07
2.12358e+07
6.4043e+07
1.03993e+07
4.54361e+07
4.19625e+07
5.4644e+07
4.0801e+07
4.57124e+07
9.09399e+06
9.27956e+07
6.56801e+07
7.06823e+07
5.04947e+07
-5.0785e+07
-4.30196e+07
3.37069e+07
4.76586e+07
3.14401e+07
6.80895e+07
2.87606e+07
5.5801e+07
4.57106e+07
3.24258e+07
-2.92411e+07
8.53615e+07
2.36336e+07
4.73413e+07
7.3976e+06
6.26927e+07
4.95662e+07
4.51964e+07
5.15224e+07
4.13939e+07
6.58409e+07
7.44498e+06
4.06341e+07
4.6238e+07
6.42154e+07
4.5796e+07
4.01388e+07
4.49426e+07
5.301e+07
5.43725e+07
4.99579e+07
4.99405e+07
4.62529e+07
1.46926e+08
1.54321e+07
6.377e+07
3.63471e+07
8.79625e+07
-2.29971e+07
8.33013e+07
4.98265e+07
7.13729e+07
6.55651e+07
4.61524e+07
4.36967e+07
4.31643e+07
8.7618e+06
1.15568e+07
4.53734e+07
4.67631e+07
4.01351e+07
1.96234e+07
5.39374e+07
4.16123e+07
5.1566e+07
4.11642e+07
4.53834e+07
4.53569e+07
4.73733e+07
4.17935e+07
7.52451e+07
7.41958e+07
4.3023e+07
9.49937e+06
4.22308e+07
4.42232e+07
1.4215e+07
4.9879e+07
4.38126e+07
-4.41832e+07
4.96548e+07
5.47726e+07
4.08855e+07
4.25762e+07
-5.65573e+07
2.85821e+07
7.57638e+07
4.99824e+07
4.35913e+07
4.20409e+07
-3.85476e+07
4.97343e+07
2.57563e+07
3.34969e+07
5.08343e+07
4.93754e+07
6.91001e+07
3.57864e+07
-5.15162e+07
-6.77059e+06
4.92621e+07
2.10138e+07
4.6242e+07
4.83731e+07
5.1395e+07
-1.12794e+07
8.35083e+07
3.85802e+07
3.44492e+07
2.2103e+07
1.34733e+08
9.46582e+07
-2.25523e+07
4.41825e+07
4.69808e+07
5.50079e+07
5.43666e+07
4.4024e+07
4.65713e+07
6.4177e+07
2.55535e+07
5.5632e+07
4.06601e+07
4.38582e+07
2.01561e+07
8.93343e+07
3.14767e+07
3.96295e+07
3.74806e+07
3.4452e+07
4.0864e+07
-8.33958e+06
4.75405e+07
1.8361e+07
4.99802e+07
1.02734e+08
4.41859e+07
5.39396e+07
9.70316e+07
4.29551e+07
4.95781e+07
7.78187e+07
6.78397e+07
4.53328e+07
-4.14712e+06
5.63772e+07
5.92723e+07
4.58337e+07
4.58036e+07
4.47832e+07
4.626e+07
5.09297e+07
1.16987e+07
5.60144e+07
1.33404e+07
4.55877e+07
8.41997e+07
2.35639e+07
6.79355e+07
3.7758e+07
3.71378e+07
3.59938e+07
7.97675e+07
6.0608e+07
6.1771e+07
4.58019e+07
1.49494e+08
3.91301e+07
4.27438e+07
2.62787e+07
5.59591e+07
4.05523e+07
5.74608e+07
5.36809e+07
3.79734e+07
-1.28383e+07
5.62417e+07
6.46076e+07
6.8984e+07
-2.51024e+07
1.67827e+07
4.29004e+07
4.57694e+07
4.76847e+07
4.5592e+07
4.21237e+07
1.44637e+08
2.23085e+07
4.57656e+07
2.01567e+07
5.62552e+07
4.59199e+07
1.01331e+08
5.52993e+07
4.06429e+07
4.37876e+07
4.53963e+07
5.11644e+07
4.96458e+07
8.28864e+07
4.61924e+07
4.60663e+07
4.5731e+07
4.58343e+07
3.78272e+07
4.5726e+07
4.11459e+07
-3.72184e+07
3.76094e+07
4.78476e+07
4.6138e+07
5.39576e+07
5.35534e+07
4.97018e+07
7.80295e+07
5.79304e+07
5.74852e+07
5.03921e+07
7.14783e+07
4.84448e+07
3.19232e+07
4.66394e+07
4.59414e+07
4.47359e+07
4.2533e+07
5.02482e+07
-3.5907e+07
4.50222e+07
4.903e+07
4.26385e+07
4.31707e+07
4.30252e+07
4.79254e+07
3.85289e+07
8.76454e+07
3.09633e+07
5.63862e+07
4.48913e+07
5.37898e+07
5.72847e+07
4.52771e+07
5.14566e+07
5.05762e+07
8.09287e+07
7.52616e+07
4.54943e+07
4.63769e+07
3.34627e+07
4.78475e+07
4.37298e+07
4.57694e+07
3.83328e+07
6.51245e+07
5.00259e+07
-2.77552e+07
3.64787e+07
5.71263e+07
2.45736e+07
5.99993e+07
2.69867e+07
2.71835e+07
2.95866e+07
4.87514e+07
4.35275e+07
6.84671e+07
2.94163e+07
4.54226e+07
4.77792e+07
4.74789e+07
4.98663e+07
4.32692e+07
7.98658e+07
4.67696e+07
7.7623e+07
3.23811e+07
3.33268e+07
7.92293e+07
4.58724e+07
4.59838e+07
4.90569e+07
4.63092e+07
3.57843e+07
5.0024e+07
4.75654e+07
3.54406e+07
4.20144e+07
3.79825e+07
-3.48812e+07
7.17492e+07
7.70439e+07
-1.38715e+07
5.03274e+07
3.9738e+07
3.90295e+07
3.58313e+07
3.00361e+07
3.25954e+07
3.99829e+07
4.41424e+07
4.56863e+07
6.22385e+07
4.95667e+07
1.50525e+07
3.53188e+07
7.34211e+07
1.92103e+07
6.41626e+07
4.57979e+07
7.03079e+07
7.48844e+07
4.57157e+07
4.50085e+07
7.20184e+07
4.45819e+07
1.26967e+08
2.82719e+07
4.70233e+07
3.59508e+07
4.167e+07
2.02534e+07
2.04247e+07
-3.20103e+06
1.00309e+08
4.25544e+07
6.84647e+07
4.97397e+07
4.16096e+07
6.09489e+07
4.50345e+07
3.0428e+07
7.03315e+07
4.5501e+07
1.33226e+07
4.77751e+07
4.95546e+07
8.73182e+06
3.3291e+06
-1.96995e+07
4.60723e+07
6.79352e+07
7.69146e+07
3.67877e+07
6.89921e+06
8.39301e+07
3.31125e+07
4.5652e+07
5.56168e+07
6.25275e+07
3.55848e+07
5.79407e+07
7.42888e+07
5.55383e+07
1.5039e+08
4.98276e+07
6.8678e+07
6.84231e+07
6.80735e+07
4.04068e+07
4.99902e+07
4.48136e+07
3.82377e+07
4.21212e+07
1.46722e+08
-7.02053e+06
4.49657e+07
3.43545e+07
8.66781e+07
4.91931e+07
2.82145e+07
8.34509e+06
6.5905e+07
3.84468e+07
7.93531e+07
-2.17971e+07
4.59332e+07
8.05135e+07
6.13453e+07
1.99404e+07
4.59115e+07
2.13791e+07
1.10258e+08
4.83583e+07
6.4636e+07
2.15877e+07
4.79897e+07
4.78462e+07
4.59013e+07
6.70207e+07
6.24558e+06
4.46412e+07
4.44148e+07
5.96888e+07
6.73355e+07
4.44378e+07
7.82112e+06
5.54538e+07
5.14361e+07
7.03304e+07
4.58046e+07
5.30437e+07
3.69483e+07
6.34938e+07
2.45145e+07
7.76621e+07
4.48748e+07
3.53994e+07
3.81418e+07
1.56947e+07
3.03916e+07
4.35613e+07
4.31376e+07
4.60274e+07
2.70891e+07
3.42165e+07
5.35317e+07
4.45224e+07
4.96873e+07
5.14705e+07
4.94922e+07
3.98648e+07
4.3052e+07
5.22286e+07
3.44731e+07
4.53578e+07
1.23613e+08
7.36328e+07
7.43379e+07
2.1531e+07
4.38574e+07
4.24293e+07
4.61934e+07
1.23357e+08
3.05238e+06
1.33077e+07
1.46506e+07
4.53486e+07
4.85075e+07
8.40984e+07
4.78789e+07
4.77996e+07
7.46383e+07
4.66303e+07
7.37439e+07
4.41043e+07
4.34392e+07
4.29902e+07
4.65205e+07
6.995e+07
4.23188e+07
5.36363e+07
2.80688e+07
4.88533e+07
4.88395e+07
2.87438e+07
5.11658e+07
4.60019e+07
7.58971e+07
2.8005e+07
5.18453e+07
5.33833e+07
4.15784e+07
5.12859e+07
5.05985e+07
7.24211e+07
4.84776e+07
6.99975e+07
7.00308e+07
7.12024e+07
4.46206e+07
4.36161e+07
4.48216e+07
8.23278e+07
2.15394e+07
6.60759e+07
1.7024e+07
5.60102e+07
4.0549e+07
4.36302e+07
6.51366e+07
4.72394e+07
3.16169e+07
-4.1898e+07
3.30495e+07
5.06451e+07
7.2385e+07
4.44866e+07
6.60929e+07
4.90735e+07
1.59689e+07
2.83147e+07
2.34157e+07
4.6016e+07
2.63061e+07
-2.92568e+07
4.92649e+07
2.84348e+07
1.31633e+08
3.57165e+07
4.74185e+07
6.80933e+07
4.47521e+07
6.37131e+07
4.62297e+07
3.41552e+07
5.45926e+07
5.16598e+07
4.44795e+07
7.95996e+07
1.37612e+08
4.46404e+07
5.4337e+07
4.73844e+07
2.58463e+07
-6.01337e+07
5.99892e+07
-5.96249e+07
5.69957e+07
6.1673e+07
-3.86326e+06
3.04037e+07
7.44746e+07
5.42436e+07
3.33459e+07
4.51609e+07
4.44516e+07
4.49403e+07
2.32312e+07
6.86103e+07
2.512e+07
5.72228e+07
5.91946e+07
7.03433e+07
4.45502e+07
3.6299e+07
3.9164e+07
3.96408e+07
4.61862e+07
7.35532e+07
2.47241e+07
7.84222e+07
3.40229e+07
4.71416e+07
3.11156e+06
4.51089e+07
4.47813e+07
5.39742e+07
3.98356e+07
1.9911e+07
4.26964e+07
4.52628e+07
4.19636e+07
-1.20446e+07
4.72348e+07
-2.60012e+07
5.17316e+07
5.25568e+07
3.56374e+07
3.82088e+07
-1.82732e+07
4.56094e+07
3.34319e+07
5.08629e+07
4.63603e+07
4.5844e+07
1.13743e+08
4.72679e+07
4.27134e+07
4.62906e+07
8.65986e+07
3.88194e+07
1.271e+07
3.97905e+07
8.56989e+07
4.11904e+07
4.43315e+07
4.65865e+07
4.26068e+07
6.03415e+07
-1.7566e+07
1.02099e+07
3.21952e+07
8.04776e+07
3.43067e+07
4.52324e+07
6.74798e+07
4.02128e+07
4.59467e+07
6.50039e+07
4.2794e+07
4.24567e+07
4.15524e+07
4.65977e+07
4.38721e+07
5.70108e+07
4.64239e+07
2.80136e+07
5.05696e+07
7.93528e+07
-9.44568e+06
4.61103e+07
4.59628e+07
4.93054e+07
2.30515e+07
4.89772e+07
2.89726e+06
6.53669e+07
-3.77597e+07
4.85038e+07
1.83746e+07
4.58172e+07
6.7087e+07
8.17166e+07
8.12846e+07
4.54494e+07
4.65388e+07
4.77679e+07
4.63468e+07
3.73751e+07
4.45808e+07
4.60551e+07
6.66539e+07
4.8818e+07
5.87446e+07
8.21071e+06
1.23505e+07
3.89742e+07
6.26798e+07
4.40897e+07
4.09214e+07
5.06493e+07
4.88602e+07
4.89884e+07
4.582e+07
4.41188e+07
4.26759e+07
8.67642e+07
-1.51414e+07
8.65535e+07
5.14384e+07
5.08491e+07
6.01148e+07
4.21955e+07
5.51189e+07
4.12947e+07
4.0969e+07
5.43191e+07
-1.65545e+07
4.11633e+07
4.97172e+07
-7.75557e+06
-4.65315e+06
6.59064e+06
3.54639e+07
6.46576e+07
-1.59777e+07
2.2396e+07
4.65318e+07
5.55755e+07
7.1657e+07
2.73394e+07
4.6785e+07
5.66769e+07
6.15295e+07
1.09364e+08
5.82685e+07
5.93397e+07
4.72453e+07
6.21232e+07
2.67987e+07
4.59961e+07
8.85971e+07
4.20303e+07
4.36172e+07
4.86457e+07
3.77354e+07
1.45924e+07
4.30818e+06
4.36322e+07
4.77976e+07
-2.41426e+07
7.82255e+07
4.67801e+07
5.44183e+07
4.23948e+07
4.19051e+07
5.14413e+07
4.13323e+07
7.18506e+07
9.37137e+07
4.93926e+07
6.53667e+07
5.77274e+07
4.14206e+07
3.23403e+07
4.09203e+07
1.9853e+07
5.46914e+07
5.06697e+07
4.32023e+07
1.04315e+08
3.69686e+07
4.86137e+07
3.6539e+07
4.46196e+07
6.45813e+07
2.80434e+07
5.38348e+07
2.91603e+07
4.52896e+07
4.80331e+07
5.53628e+07
4.6233e+07
1.00875e+08
7.35035e+07
4.89292e+07
8.35442e+07
4.66199e+07
4.74185e+07
6.93909e+07
5.24032e+07
4.85232e+07
4.98696e+07
3.8305e+07
-1.03322e+07
6.41749e+07
4.54814e+07
2.67083e+07
3.92277e+07
4.00005e+07
-4.75857e+07
5.36879e+07
1.12306e+08
4.94186e+07
5.92504e+07
5.53474e+07
-3.081e+07
4.62557e+07
7.57318e+07
7.19982e+07
3.49861e+06
2.65076e+07
5.32683e+07
5.41356e+07
4.56073e+07
5.6513e+07
5.0221e+07
4.62386e+07
3.13909e+07
3.42614e+07
8.42957e+07
3.16105e+07
3.55696e+07
3.37028e+07
4.79575e+07
5.35691e+06
9.39523e+07
-3.0846e+07
1.16675e+08
4.55051e+07
5.14866e+07
5.08628e+07
8.23516e+07
4.82498e+07
4.22211e+07
6.50934e+07
6.12114e+07
5.50441e+07
-5.01929e+06
6.06699e+07
4.06389e+07
-5.67981e+06
4.19459e+07
3.24744e+07
1.26039e+08
3.96723e+07
3.89749e+07
3.38038e+07
3.10828e+07
-6.49557e+06
6.85175e+07
3.53486e+07
6.92938e+07
4.18686e+07
4.8969e+07
5.128e+07
8.04607e+07
6.36459e+07
5.38746e+07
4.14152e+07
7.25949e+06
4.72596e+07
4.09486e+06
5.04235e+07
4.49656e+07
4.49714e+07
4.29207e+07
1.29643e+08
5.40062e+07
4.12252e+07
3.25714e+07
3.91985e+07
4.68501e+07
6.91332e+07
4.48948e+07
4.49401e+07
2.10088e+07
7.55273e+06
1.85362e+07
1.20068e+08
4.56434e+07
-2.02263e+06
5.11085e+07
7.4864e+07
4.59519e+07
4.38839e+07
4.5595e+07
5.32994e+07
4.60542e+07
4.1878e+07
8.0685e+07
7.59167e+07
5.92286e+07
2.19857e+07
4.49422e+07
1.7391e+07
2.21725e+07
4.19559e+07
4.02592e+07
3.94799e+07
4.84763e+07
4.90273e+07
4.08435e+07
5.3191e+07
3.14592e+07
8.23584e+07
4.82405e+07
-1.20389e+07
4.35315e+07
4.00552e+07
3.87702e+07
4.13112e+07
4.74293e+07
1.54023e+06
-7.74772e+06
4.74313e+07
4.79988e+07
7.65491e+07
6.93229e+07
4.85268e+07
6.44538e+07
5.58259e+07
4.37908e+07
4.39007e+07
1.06031e+08
3.68495e+07
4.68456e+07
5.9155e+07
1.10206e+08
7.51694e+07
-1.11561e+06
4.44309e+07
4.39857e+07
4.20862e+07
4.14219e+07
4.094e+07
-1.50325e+07
8.8734e+07
4.57519e+07
3.15081e+07
2.31619e+07
4.43139e+07
4.06937e+07
5.13008e+07
5.16534e+07
8.97838e+07
4.86643e+07
4.83011e+07
2.12794e+06
6.29814e+07
1.66053e+07
5.94673e+07
4.32502e+07
6.73295e+07
4.15314e+07
-3.82641e+07
2.70287e+07
-2.90488e+07
4.56892e+07
-1.40803e+07
4.13721e+07
6.11237e+07
6.13891e+07
3.16636e+07
3.2467e+07
4.54952e+07
3.09077e+07
-3.11849e+07
7.86984e+07
4.20168e+07
4.49629e+07
2.30804e+07
4.90536e+07
-5.13008e+06
585383
5.32957e+07
4.73352e+07
4.34534e+07
5.434e+07
4.10478e+07
4.75032e+07
4.31379e+07
7.30031e+07
7.62112e+07
8.01361e+07
8.24795e+07
-1.62888e+07
5.63325e+07
4.00534e+07
4.65795e+07
2.70695e+07
6.14126e+07
4.40759e+07
5.20436e+07
4.43914e+07
3.31618e+07
-1.55381e+06
1.71547e+07
4.88232e+07
4.41831e+07
4.69068e+07
4.63603e+07
4.87875e+07
4.81992e+07
4.03723e+07
4.54483e+07
4.00451e+07
5.30996e+07
3.80643e+07
3.77044e+07
5.78927e+07
3.73056e+07
3.85378e+07
5.88962e+07
5.43006e+07
5.78345e+07
1.124e+08
4.5465e+07
4.52194e+07
7.88989e+07
4.04072e+07
3.99217e+07
6.67853e+07
5.09924e+07
4.14408e+07
8.18315e+07
2.40838e+07
-1.78165e+07
4.09286e+07
5.31515e+07
2.46673e+06
-4.10319e+06
-4.35882e+07
3.29858e+07
1.91931e+07
5.5625e+07
4.68429e+07
4.44905e+07
7.79041e+06
6.87165e+06
4.20652e+07
4.20769e+07
3.2708e+07
-744137
6.08114e+07
4.45254e+07
4.56816e+07
5.20818e+07
4.54766e+07
4.87246e+07
4.35757e+07
1.91559e+07
1.98462e+07
4.83903e+07
4.69783e+07
2.08615e+07
-2.67881e+07
4.27277e+07
4.35667e+07
1.16333e+08
4.54757e+07
1.15618e+06
7.40118e+07
4.82404e+07
7.53721e+07
8.36409e+07
2.56599e+06
4.5046e+07
-2.81513e+07
4.79464e+07
4.6124e+07
1.16786e+07
1.33823e+07
4.22151e+07
1.97591e+07
1.85073e+07
2.1063e+06
1.61659e+07
4.63839e+07
4.47741e+07
1.18143e+08
4.58615e+07
1.0586e+08
6.27542e+07
9.88973e+07
5.95287e+07
4.72807e+07
4.52789e+07
4.57698e+07
4.39146e+07
4.5506e+07
-2.14533e+07
3.89277e+07
7.55094e+07
5.63968e+07
8.18974e+07
7.20836e+07
9.10317e+06
6.40618e+07
6.55734e+07
8.31999e+07
-9.99633e+06
3.07895e+07
5.9034e+07
4.33747e+07
-1.09657e+07
7.16387e+07
-3.9824e+06
4.45836e+07
4.40504e+07
2.43988e+07
2.56546e+07
2.62432e+07
-2.90163e+07
1.63759e+07
3.97561e+07
8.10275e+07
6.17621e+07
6.29155e+07
7.70384e+07
2.16398e+07
3.37788e+07
3.47148e+07
4.43004e+07
9.26112e+07
-3.95334e+07
2.89887e+07
-203415
2.29405e+07
4.95764e+07
5.02048e+07
1.33726e+08
4.51345e+07
6.12787e+07
4.67926e+07
4.58123e+07
4.67157e+07
1.56442e+07
-2.08583e+07
-5.12378e+07
4.14333e+07
6.45105e+07
6.21657e+07
3.60616e+07
8.79863e+07
-1.05353e+07
5.99485e+07
3.60417e+07
3.61988e+07
1.01633e+07
-5.42322e+07
4.49299e+07
5.66466e+07
5.14397e+07
5.49613e+07
4.1122e+07
1.54291e+07
7.20725e+07
1.53227e+08
4.5495e+07
1.75604e+07
4.78052e+07
5.07691e+07
3.96095e+07
4.35403e+07
4.2521e+07
4.12744e+07
3.21261e+07
4.45669e+07
4.80687e+07
4.68616e+07
6.97406e+07
4.79829e+07
-2.35351e+07
4.4737e+07
4.47077e+07
4.41605e+07
1.08293e+08
1.16399e+08
3.43929e+07
3.5342e+07
4.30934e+07
-8.27346e+06
4.42079e+07
4.35472e+07
5.33389e+07
4.96236e+07
4.46764e+07
-673107
4.78952e+07
6.41731e+07
6.59971e+07
4.71593e+06
1.2997e+07
-2.42583e+06
4.89446e+07
2.56556e+07
5.93053e+07
5.99821e+07
6.46805e+07
4.56052e+07
-650593
4.87558e+07
4.70132e+07
7.74453e+07
4.73525e+07
4.51932e+07
3.71082e+07
3.69494e+07
1.06318e+08
1.96487e+06
4.59443e+07
3.51206e+07
4.88752e+07
4.39725e+07
7.13266e+07
4.79641e+07
4.81167e+07
4.44056e+07
5.34533e+07
5.24893e+07
4.40476e+07
4.03043e+06
4.44965e+07
2.44959e+07
4.66337e+07
4.62958e+07
6.80665e+07
6.33337e+07
-3.82279e+07
5.47316e+07
4.89322e+07
6.03495e+07
8.27953e+07
4.76033e+07
4.74061e+07
5.60837e+07
5.62882e+07
4.05102e+07
4.05086e+07
4.54211e+07
5.71186e+07
4.88794e+07
3.28148e+07
3.07549e+07
5.33184e+07
4.58967e+07
5.45625e+07
4.84869e+07
4.5261e+07
7.17547e+07
4.74092e+07
4.77927e+07
7.26895e+07
4.19836e+07
3.31205e+07
1.27127e+07
6.86934e+07
5.0761e+07
1.66751e+07
3.89212e+07
7.05085e+07
4.36903e+07
4.33577e+07
4.41018e+07
4.33707e+07
2.71607e+07
1.01358e+08
4.34394e+07
6.20407e+07
2.18899e+07
4.83111e+07
4.49033e+07
4.43249e+07
4.40548e+07
5.79488e+07
5.5195e+07
5.56763e+07
4.54272e+07
8.77377e+07
5.06394e+07
4.68111e+07
6.08099e+07
-352525
2.73471e+06
4.70179e+07
4.6623e+07
7.13905e+07
6.9039e+07
8.8584e+07
-4.94889e+07
5.14185e+07
5.9794e+07
5.15655e+07
3.4561e+07
4.61637e+07
-2.18268e+07
5.29172e+07
6.10838e+07
4.62282e+07
4.18579e+07
3.96672e+07
5.83641e+07
5.75896e+07
-1.80715e+06
-1.20624e+07
3.6018e+07
3.54694e+07
5.25914e+07
4.71977e+07
4.13356e+07
5.86121e+07
4.75777e+07
5.45273e+07
4.64309e+07
4.57765e+07
-5.89147e+06
7.19118e+07
5.55562e+07
3.76109e+07
5.68042e+07
3.44174e+07
3.52505e+07
4.72557e+07
4.84674e+07
4.84967e+07
7.2197e+07
4.45189e+07
4.07591e+07
4.08538e+07
3.41352e+07
6.86204e+07
7.36175e+07
2.93682e+07
4.06732e+07
4.05945e+07
7.28075e+07
7.43476e+07
3.04649e+07
-4.24388e+07
2.66415e+07
3.97359e+07
4.77103e+07
6.39765e+07
6.14297e+07
3.72408e+07
2.70269e+07
7.42574e+07
7.49103e+07
2.68253e+07
4.76648e+07
4.65999e+07
4.60556e+07
7.21821e+07
4.65782e+07
4.511e+07
4.53749e+07
2.26986e+07
4.67446e+07
4.60494e+07
4.52188e+07
2.8993e+07
3.07448e+07
4.28377e+07
7.15284e+07
4.94261e+07
4.8948e+07
3.21498e+07
4.67689e+07
3.55666e+07
4.17224e+07
4.14714e+07
4.21918e+07
6.79983e+07
4.70971e+07
5.22612e+07
5.00742e+07
4.48717e+07
7.0304e+07
7.06478e+07
606744
2.2207e+07
3.06377e+07
3.20774e+07
4.10942e+07
5.79642e+07
-5.48648e+07
5.60187e+07
4.77278e+07
4.75197e+07
5.95496e+07
5.02974e+07
4.72668e+07
4.02988e+07
5.79056e+07
4.02061e+07
8.48246e+07
2.828e+07
5.64068e+07
4.49244e+07
-2.72522e+06
5.844e+07
5.42374e+07
5.39002e+07
4.76109e+07
4.09524e+07
4.68035e+07
4.64779e+07
7.14943e+07
2.99608e+07
6.80344e+07
8.73252e+06
4.62757e+07
4.40704e+07
4.40337e+07
6.84773e+07
4.59753e+07
6.60561e+07
3.82551e+07
3.90712e+07
4.91513e+07
4.35267e+07
3.20006e+07
4.08271e+07
4.64509e+07
4.81654e+07
1.13291e+08
4.70424e+07
1.94586e+07
-1.38282e+07
4.14732e+07
3.40306e+07
4.70729e+07
3.53554e+07
4.41633e+07
2.65522e+07
2.6882e+07
1.65098e+07
1.8165e+07
4.76641e+07
-4.04112e+06
4.46695e+07
5.31044e+07
-1.80091e+06
4.25231e+07
4.2353e+07
8.5419e+07
6.55922e+07
6.69702e+07
7.59676e+07
6.56482e+07
6.85792e+07
5.45527e+07
4.05538e+07
7.81526e+07
7.24393e+06
6.62941e+07
4.47023e+07
3.81882e+07
4.60351e+07
4.5749e+07
5.26347e+07
5.20308e+07
3.81861e+07
1.90203e+07
5.0077e+07
4.31098e+07
5.72345e+07
4.75209e+07
8.32624e+07
8.55513e+07
2.57422e+07
9.45951e+06
1.28765e+08
4.76882e+07
4.79013e+07
5.72116e+07
-1.2665e+07
5.9093e+07
4.56663e+07
6.67242e+07
4.5181e+07
4.77991e+07
4.58269e+07
6.96946e+07
3.74456e+07
4.33259e+07
-986998
5.68377e+06
4.6774e+07
4.78763e+07
5.85357e+07
5.09325e+07
5.06842e+07
3.92641e+07
3.4917e+07
3.65737e+07
1.8482e+06
4.39802e+07
6.59232e+07
4.60745e+07
3.89184e+07
3.6839e+07
4.71844e+07
6.6063e+07
7.15159e+07
7.13282e+07
1.48962e+07
5.90781e+07
7.3538e+07
6.01555e+07
4.58338e+07
4.58467e+07
4.58461e+07
4.57443e+07
4.73873e+07
6.73271e+07
4.068e+07
-5.21913e+06
4.62933e+07
4.58013e+07
9.31436e+06
5.69482e+07
5.53296e+07
4.88947e+07
4.51692e+07
5.23549e+07
4.43371e+07
4.33156e+07
5.24794e+07
4.72182e+07
4.38643e+07
4.60501e+07
5.03024e+07
5.61345e+07
4.38413e+07
4.57991e+07
4.52249e+07
6.28084e+07
9.60434e+07
5.22218e+07
5.71487e+07
9.90511e+07
6.1084e+07
4.66071e+07
6.36236e+07
4.69424e+07
4.4735e+07
5.20914e+07
3.69398e+07
3.78654e+07
5.16821e+07
4.42017e+07
4.66661e+07
7.14638e+07
4.76582e+07
6.33484e+07
4.31001e+07
5.01181e+07
4.94582e+07
7.3935e+07
-1.66356e+07
6.26053e+07
3.91079e+07
4.45186e+07
4.71466e+07
7.20181e+07
-2.45838e+07
3.0391e+07
4.40439e+07
4.70366e+07
5.09316e+07
5.04199e+07
3.97028e+07
6.46526e+07
5.12656e+06
4.29321e+07
4.67309e+07
4.48886e+07
4.4939e+07
1.18045e+08
7.0444e+07
4.83529e+07
3.64976e+07
4.4637e+07
7.65318e+07
4.78412e+07
1.28408e+08
4.40685e+07
4.84432e+07
4.57661e+07
1.03378e+07
-2.70094e+07
3.56619e+07
4.07642e+07
4.448e+07
4.56761e+07
4.32721e+07
4.29184e+07
4.14371e+07
4.42379e+07
4.25185e+07
4.86132e+07
4.78792e+07
5.37678e+07
2.2762e+07
5.15179e+07
5.70166e+07
4.79121e+07
4.79539e+07
4.2915e+07
4.20974e+07
4.85787e+07
4.79383e+07
4.58011e+07
4.58784e+07
5.48414e+07
3.82586e+07
3.4959e+07
4.83782e+07
4.33646e+07
4.99396e+07
7.4992e+07
7.59253e+07
3.41865e+07
3.49698e+07
4.02543e+07
6.48605e+06
3.74986e+07
4.58549e+07
4.63117e+07
4.5933e+07
4.57099e+07
4.88191e+07
3.55918e+07
5.81698e+07
2.96291e+07
4.21858e+07
2.09171e+07
2.67357e+07
4.52371e+07
5.86753e+07
5.6999e+07
6.08686e+07
4.83764e+07
5.24352e+07
6.83817e+07
7.08103e+07
4.09742e+07
1.71855e+07
4.40291e+07
4.58654e+07
4.60554e+07
4.03679e+07
4.78411e+07
4.34004e+07
4.43461e+07
3.94455e+07
4.28622e+07
7.07979e+07
4.38185e+07
4.98859e+07
4.94253e+07
1.08424e+07
7.89967e+06
4.02799e+07
4.74006e+07
4.67412e+07
4.68443e+07
4.52207e+07
6.20459e+07
5.17898e+07
5.10337e+07
2.49034e+07
6.38969e+07
4.96886e+07
5.21615e+07
3.88593e+07
4.13325e+07
5.50127e+07
4.0606e+07
4.05503e+07
5.52714e+07
3.73487e+07
4.61549e+07
5.09301e+07
5.02477e+07
2.1027e+07
5.23799e+07
4.66127e+07
7.11439e+07
7.27361e+07
5.22198e+07
5.12666e+07
4.99814e+07
4.83604e+07
4.78528e+07
5.48342e+07
6.92222e+07
6.76889e+07
4.3602e+07
4.37037e+07
4.8023e+07
5.0748e+07
5.05153e+07
5.59505e+07
3.67287e+07
3.02665e+07
3.04234e+07
7.10537e+07
7.21862e+07
4.77694e+07
4.67467e+07
4.89743e+07
4.90433e+07
4.76649e+07
)
;

boundaryField
{
    back
    {
        type            empty;
    }
    front
    {
        type            empty;
    }
    down
    {
        type            symmetry;
    }
    right
    {
        type            zeroGradient;
    }
    up
    {
        type            zeroGradient;
    }
    left
    {
        type            symmetry;
    }
    hole
    {
        type            zeroGradient;
    }
}


// ************************************************************************* //
