/*--------------------------------*- C++ -*----------------------------------*\
| =========                 |                                                 |
| \\      /  F ield         | OpenFOAM: The Open Source CFD Toolbox           |
|  \\    /   O peration     | Version:  v2012                                 |
|   \\  /    A nd           | Website:  www.openfoam.com                      |
|    \\/     M anipulation  |                                                 |
\*---------------------------------------------------------------------------*/
FoamFile
{
    version     2.0;
    format      ascii;
    class       volVectorField;
    location    "7";
    object      D_0;
}
// * * * * * * * * * * * * * * * * * * * * * * * * * * * * * * * * * * * * * //

dimensions      [0 1 0 0 0 0 0];


internalField   nonuniform List<vector> 
8000
(
(4.69821e-05 -0.00134086 0)
(8.59142e-05 -0.0013533 0)
(4.3546e-05 -0.00138565 0)
(7.87932e-05 -0.00139678 0)
(4.00992e-05 -0.00142335 0)
(7.34366e-05 -0.00143315 0)
(3.69365e-05 -0.00145553 0)
(6.86614e-05 -0.00146355 0)
(3.38658e-05 -0.00148239 0)
(6.4023e-05 -0.00148853 0)
(3.08584e-05 -0.00150424 0)
(5.92626e-05 -0.00150841 0)
(2.77914e-05 -0.00152075 0)
(5.47412e-05 -0.00152337 0)
(2.56544e-05 -0.00153384 0)
(5.17114e-05 -0.00153656 0)
(2.44442e-05 -0.00154567 0)
(4.95658e-05 -0.00154803 0)
(2.35472e-05 -0.00155628 0)
(4.78718e-05 -0.00155825 0)
(2.27915e-05 -0.00156598 0)
(4.64424e-05 -0.00156762 0)
(2.21405e-05 -0.00157499 0)
(4.52159e-05 -0.00157637 0)
(2.15834e-05 -0.00158347 0)
(4.41608e-05 -0.00158465 0)
(2.1107e-05 -0.00159154 0)
(4.32461e-05 -0.00159257 0)
(2.06948e-05 -0.0015993 0)
(4.24399e-05 -0.00160019 0)
(2.03289e-05 -0.00160682 0)
(4.17111e-05 -0.0016076 0)
(1.99929e-05 -0.00161416 0)
(4.10305e-05 -0.00161485 0)
(1.96779e-05 -0.00162135 0)
(4.03748e-05 -0.00162197 0)
(1.94025e-05 -0.0016284 0)
(3.97332e-05 -0.001629 0)
(1.92478e-05 -0.00163528 0)
(3.91079e-05 -0.00163598 0)
(0.000160023 -0.00134358 0)
(0.000194317 -0.00135736 0)
(0.000153789 -0.00138412 0)
(0.000186765 -0.00139531 0)
(0.000146912 -0.00141965 0)
(0.000178237 -0.00142862 0)
(0.000139618 -0.00145032 0)
(0.000169097 -0.00145688 0)
(0.000131938 -0.001476 0)
(0.000159568 -0.00148026 0)
(0.000123781 -0.00149667 0)
(0.000149548 -0.00149843 0)
(0.000115338 -0.00151226 0)
(0.000139915 -0.00151259 0)
(0.000108269 -0.00152536 0)
(0.000132375 -0.00152529 0)
(0.000102918 -0.00153709 0)
(0.000126554 -0.0015366 0)
(9.87231e-05 -0.00154767 0)
(0.000121905 -0.00154682 0)
(9.53282e-05 -0.00155738 0)
(0.000118071 -0.00155622 0)
(9.25106e-05 -0.00156642 0)
(0.000114846 -0.001565 0)
(9.01287e-05 -0.00157493 0)
(0.000112091 -0.00157328 0)
(8.80871e-05 -0.00158302 0)
(0.000109709 -0.00158118 0)
(8.63175e-05 -0.00159078 0)
(0.000107624 -0.00158878 0)
(8.4769e-05 -0.00159827 0)
(0.000105777 -0.00159613 0)
(8.34052e-05 -0.00160554 0)
(0.00010412 -0.00160329 0)
(8.2203e-05 -0.00161266 0)
(0.000102611 -0.00161028 0)
(8.11547e-05 -0.00161964 0)
(0.000101209 -0.00161714 0)
(8.02686e-05 -0.00162651 0)
(9.98656e-05 -0.00162384 0)
(0.000279097 -0.00134022 0)
(0.000312399 -0.00135205 0)
(0.000267141 -0.0013796 0)
(0.000298099 -0.00138902 0)
(0.000254993 -0.00141316 0)
(0.000283895 -0.00142005 0)
(0.000242344 -0.00144147 0)
(0.000269225 -0.00144558 0)
(0.000229014 -0.00146456 0)
(0.000253843 -0.00146581 0)
(0.000214961 -0.00148223 0)
(0.000237744 -0.00148034 0)
(0.000201298 -0.0014958 0)
(0.000224083 -0.00149345 0)
(0.000190414 -0.00150829 0)
(0.000213121 -0.00150543 0)
(0.000181682 -0.00151961 0)
(0.000204252 -0.00151633 0)
(0.000174566 -0.00152997 0)
(0.000196936 -0.00152634 0)
(0.000168675 -0.00153956 0)
(0.000190807 -0.00153562 0)
(0.000163729 -0.00154852 0)
(0.000185609 -0.0015443 0)
(0.000159521 -0.00155696 0)
(0.000181151 -0.0015525 0)
(0.000155902 -0.00156499 0)
(0.000177287 -0.0015603 0)
(0.00015276 -0.00157268 0)
(0.000173904 -0.00156779 0)
(0.000150008 -0.00158009 0)
(0.000170912 -0.00157503 0)
(0.00014758 -0.00158729 0)
(0.000168238 -0.00158205 0)
(0.000145428 -0.00159433 0)
(0.000165818 -0.00158891 0)
(0.000143518 -0.00160122 0)
(0.000163592 -0.0015956 0)
(0.000141824 -0.00160799 0)
(0.000161501 -0.00160213 0)
(0.000393928 -0.00133735 0)
(0.000424247 -0.00134752 0)
(0.000377167 -0.00137332 0)
(0.000405126 -0.00138037 0)
(0.00035979 -0.00140319 0)
(0.000385561 -0.00140711 0)
(0.000341612 -0.00142759 0)
(0.00036518 -0.00142811 0)
(0.000322411 -0.00144632 0)
(0.000343535 -0.00144286 0)
(0.000302678 -0.00145981 0)
(0.000323912 -0.00145545 0)
(0.000286037 -0.00147234 0)
(0.000307553 -0.00146742 0)
(0.000272275 -0.00148391 0)
(0.000293985 -0.00147851 0)
(0.000260829 -0.00149459 0)
(0.000282617 -0.00148878 0)
(0.000251228 -0.00150451 0)
(0.000273001 -0.00149833 0)
(0.00024311 -0.00151378 0)
(0.000264807 -0.00150725 0)
(0.000236188 -0.00152248 0)
(0.000257773 -0.00151565 0)
(0.000230239 -0.0015307 0)
(0.00025169 -0.00152359 0)
(0.000225088 -0.00153852 0)
(0.00024639 -0.00153115 0)
(0.000220594 -0.00154601 0)
(0.000241737 -0.0015384 0)
(0.000216646 -0.00155323 0)
(0.000237618 -0.00154539 0)
(0.000213154 -0.00156023 0)
(0.000233937 -0.00155217 0)
(0.000210044 -0.00156704 0)
(0.00023061 -0.00155875 0)
(0.000207258 -0.0015737 0)
(0.000227557 -0.00156515 0)
(0.000204742 -0.00158023 0)
(0.000224698 -0.00157135 0)
(0.0005049 -0.0013321 0)
(0.000532045 -0.0013393 0)
(0.000482745 -0.0013632 0)
(0.000507331 -0.00136669 0)
(0.000459767 -0.00138793 0)
(0.000482021 -0.00138772 0)
(0.000435729 -0.0014067 0)
(0.000455432 -0.00140206 0)
(0.000410796 -0.00141976 0)
(0.000430432 -0.00141369 0)
(0.000388762 -0.00143164 0)
(0.000408947 -0.00142502 0)
(0.000370011 -0.00144287 0)
(0.000390661 -0.0014357 0)
(0.000354044 -0.00145338 0)
(0.000375033 -0.00144573 0)
(0.000340406 -0.00146323 0)
(0.000361613 -0.00145514 0)
(0.000328717 -0.00147248 0)
(0.000350051 -0.00146399 0)
(0.00031866 -0.00148119 0)
(0.000340052 -0.00147231 0)
(0.000309969 -0.0014894 0)
(0.00033137 -0.00148018 0)
(0.000302422 -0.00149719 0)
(0.000323796 -0.00148765 0)
(0.000295835 -0.00150461 0)
(0.000317153 -0.00149477 0)
(0.000290055 -0.00151172 0)
(0.000311295 -0.0015016 0)
(0.000284955 -0.00151856 0)
(0.000306094 -0.00150817 0)
(0.000280428 -0.00152519 0)
(0.000301439 -0.00151452 0)
(0.000276383 -0.00153162 0)
(0.000297231 -0.00152067 0)
(0.000272741 -0.00153789 0)
(0.000293376 -0.00152662 0)
(0.000269429 -0.00154401 0)
(0.000289781 -0.00153237 0)
(0.000610646 -0.00132257 0)
(0.000634086 -0.00132556 0)
(0.000582834 -0.00134727 0)
(0.000603759 -0.0013462 0)
(0.000554129 -0.00136538 0)
(0.000572546 -0.00135978 0)
(0.000524518 -0.00137748 0)
(0.000542658 -0.00137004 0)
(0.000497527 -0.00138827 0)
(0.000516351 -0.00138022 0)
(0.000474029 -0.00139862 0)
(0.000493503 -0.00138999 0)
(0.000453613 -0.00140844 0)
(0.000473636 -0.00139927 0)
(0.000435868 -0.00141775 0)
(0.000456321 -0.00140808 0)
(0.000420433 -0.00142656 0)
(0.000441212 -0.00141642 0)
(0.000406996 -0.0014349 0)
(0.000428015 -0.00142432 0)
(0.000395279 -0.0014428 0)
(0.000416468 -0.0014318 0)
(0.000385039 -0.00145029 0)
(0.000406342 -0.0014389 0)
(0.000376065 -0.00145741 0)
(0.000397437 -0.00144567 0)
(0.000368175 -0.00146422 0)
(0.000389579 -0.00145213 0)
(0.000361213 -0.00147074 0)
(0.000382617 -0.00145833 0)
(0.000355042 -0.00147702 0)
(0.000376415 -0.00146429 0)
(0.000349546 -0.00148309 0)
(0.000370854 -0.00147005 0)
(0.000344619 -0.00148898 0)
(0.000365824 -0.00147561 0)
(0.000340171 -0.0014947 0)
(0.000361223 -0.00148097 0)
(0.000336114 -0.00150027 0)
(0.000356948 -0.00148612 0)
(0.000710033 -0.00130664 0)
(0.000729746 -0.00130472 0)
(0.000676814 -0.00132389 0)
(0.000694145 -0.00131751 0)
(0.000642879 -0.00133459 0)
(0.000659744 -0.00132612 0)
(0.000611405 -0.00134393 0)
(0.000628938 -0.00133479 0)
(0.00058349 -0.00135301 0)
(0.000601746 -0.0013432 0)
(0.000558815 -0.00136169 0)
(0.000577758 -0.00135127 0)
(0.00053703 -0.00136999 0)
(0.000556576 -0.00135901 0)
(0.000517823 -0.00137791 0)
(0.000537874 -0.00136639 0)
(0.000500905 -0.00138546 0)
(0.000521373 -0.00137344 0)
(0.00048601 -0.00139265 0)
(0.000506812 -0.00138016 0)
(0.000472889 -0.0013995 0)
(0.000493958 -0.00138657 0)
(0.000461323 -0.00140603 0)
(0.000482598 -0.00139269 0)
(0.00045111 -0.00141228 0)
(0.000472542 -0.00139854 0)
(0.000442076 -0.00141826 0)
(0.000463621 -0.00140415 0)
(0.000434063 -0.00142401 0)
(0.000455682 -0.00140953 0)
(0.000426932 -0.00142954 0)
(0.000448589 -0.00141472 0)
(0.000420559 -0.00143489 0)
(0.000442217 -0.00141972 0)
(0.000414835 -0.00144007 0)
(0.000436452 -0.00142454 0)
(0.000409658 -0.00144509 0)
(0.000431186 -0.00142917 0)
(0.000404931 -0.00144997 0)
(0.000426312 -0.0014336 0)
(0.000803082 -0.00128322 0)
(0.000819681 -0.0012764 0)
(0.000765321 -0.00129255 0)
(0.000781128 -0.00128333 0)
(0.000729719 -0.00130017 0)
(0.000746091 -0.00129028 0)
(0.000697658 -0.00130765 0)
(0.000714723 -0.00129696 0)
(0.000668922 -0.0013148 0)
(0.000686732 -0.00130338 0)
(0.000643228 -0.00132164 0)
(0.000661755 -0.00130957 0)
(0.000620306 -0.00132822 0)
(0.000639487 -0.00131556 0)
(0.000599905 -0.00133455 0)
(0.00061966 -0.00132133 0)
(0.000581777 -0.00134063 0)
(0.000602027 -0.00132689 0)
(0.000565685 -0.00134646 0)
(0.000586353 -0.00133223 0)
(0.000551405 -0.00135206 0)
(0.000572424 -0.00133737 0)
(0.000538732 -0.00135744 0)
(0.000560039 -0.00134232 0)
(0.000527476 -0.00136261 0)
(0.00054902 -0.00134708 0)
(0.000517469 -0.00136759 0)
(0.0005392 -0.00135166 0)
(0.000508555 -0.00137238 0)
(0.000530431 -0.00135607 0)
(0.000500595 -0.00137701 0)
(0.000522577 -0.00136033 0)
(0.000493464 -0.00138149 0)
(0.000515511 -0.00136444 0)
(0.000487047 -0.00138582 0)
(0.000509117 -0.00136839 0)
(0.000481238 -0.00139002 0)
(0.000503284 -0.00137218 0)
(0.000475934 -0.00139409 0)
(0.000497904 -0.00137578 0)
(0.000891525 -0.0012529 0)
(0.000906522 -0.00124332 0)
(0.000852206 -0.00125842 0)
(0.000867556 -0.00124813 0)
(0.000816109 -0.00126395 0)
(0.000832054 -0.00125265 0)
(0.000783386 -0.0012692 0)
(0.000800055 -0.00125697 0)
(0.000753857 -0.00127418 0)
(0.000771301 -0.00126117 0)
(0.000727286 -0.00127898 0)
(0.00074549 -0.00126531 0)
(0.000703439 -0.00128365 0)
(0.000722351 -0.00126938 0)
(0.000682085 -0.0012882 0)
(0.000701636 -0.00127337 0)
(0.000662996 -0.00129263 0)
(0.000683112 -0.00127729 0)
(0.000645952 -0.00129694 0)
(0.00066656 -0.00128111 0)
(0.000630745 -0.00130113 0)
(0.000651777 -0.00128484 0)
(0.00061718 -0.00130519 0)
(0.000638575 -0.00128847 0)
(0.000605078 -0.00130914 0)
(0.00062678 -0.001292 0)
(0.000594275 -0.00131297 0)
(0.000616233 -0.00129543 0)
(0.000584619 -0.00131668 0)
(0.000606789 -0.00129875 0)
(0.000575974 -0.00132028 0)
(0.000598313 -0.00130197 0)
(0.000568213 -0.00132376 0)
(0.000590679 -0.00130508 0)
(0.000561221 -0.00132715 0)
(0.000583772 -0.00130807 0)
(0.000554889 -0.00133043 0)
(0.00057748 -0.00131093 0)
(0.000549111 -0.00133359 0)
(0.000571696 -0.00131363 0)
(0.000979199 -0.00122002 0)
(0.000993782 -0.00120895 0)
(0.000938738 -0.00122302 0)
(0.000953686 -0.00121113 0)
(0.000901883 -0.001226 0)
(0.000917456 -0.00121308 0)
(0.000868484 -0.00122875 0)
(0.000884825 -0.00121492 0)
(0.000838278 -0.00123138 0)
(0.000855438 -0.0012168 0)
(0.00081101 -0.00123398 0)
(0.00082898 -0.00121876 0)
(0.000786447 -0.0012366 0)
(0.00080518 -0.0012208 0)
(0.000764364 -0.00123925 0)
(0.000783796 -0.00122292 0)
(0.000744543 -0.00124192 0)
(0.000764602 -0.00122509 0)
(0.000726773 -0.00124459 0)
(0.000747389 -0.00122729 0)
(0.000710854 -0.00124725 0)
(0.00073196 -0.00122952 0)
(0.000696602 -0.0012499 0)
(0.000718134 -0.00123174 0)
(0.000683843 -0.00125252 0)
(0.000705746 -0.00123395 0)
(0.000672419 -0.0012551 0)
(0.00069464 -0.00123614 0)
(0.000662181 -0.00125763 0)
(0.000684674 -0.0012383 0)
(0.000652996 -0.00126012 0)
(0.000675717 -0.00124041 0)
(0.000644738 -0.00126254 0)
(0.000667644 -0.00124246 0)
(0.000637293 -0.0012649 0)
(0.000660342 -0.00124443 0)
(0.000630551 -0.00126719 0)
(0.000653702 -0.00124631 0)
(0.000624405 -0.0012694 0)
(0.000647618 -0.00124807 0)
(0.00106676 -0.00118605 0)
(0.00108084 -0.00117335 0)
(0.00102499 -0.00118607 0)
(0.00103952 -0.00117245 0)
(0.000987229 -0.00118624 0)
(0.00100247 -0.00117161 0)
(0.000953128 -0.00118636 0)
(0.000969203 -0.00117089 0)
(0.00092232 -0.00118653 0)
(0.000939275 -0.00117038 0)
(0.000894496 -0.00118686 0)
(0.000912316 -0.00117012 0)
(0.000869396 -0.00118737 0)
(0.000888032 -0.00117011 0)
(0.000846781 -0.00118805 0)
(0.00086617 -0.00117031 0)
(0.00082643 -0.00118889 0)
(0.000846503 -0.0011707 0)
(0.000808136 -0.00118987 0)
(0.000828822 -0.00117124 0)
(0.000791704 -0.00119095 0)
(0.000812936 -0.00117192 0)
(0.000776953 -0.00119212 0)
(0.000798667 -0.00117269 0)
(0.000763714 -0.00119336 0)
(0.000785855 -0.00117355 0)
(0.000751833 -0.00119464 0)
(0.000774347 -0.00117446 0)
(0.000741166 -0.00119595 0)
(0.000764006 -0.00117541 0)
(0.000731582 -0.00119727 0)
(0.000754703 -0.00117638 0)
(0.000722958 -0.00119859 0)
(0.000746317 -0.00117734 0)
(0.000715179 -0.00119989 0)
(0.000738736 -0.00117828 0)
(0.000708138 -0.00120116 0)
(0.000731853 -0.00117916 0)
(0.000701728 -0.00120239 0)
(0.000725567 -0.00117996 0)
(0.00115347 -0.00115067 0)
(0.001167 -0.00113632 0)
(0.00111062 -0.00114749 0)
(0.00112474 -0.00113217 0)
(0.00107208 -0.00114471 0)
(0.00108702 -0.00112844 0)
(0.00103738 -0.00114213 0)
(0.00105325 -0.00112509 0)
(0.00100609 -0.00113982 0)
(0.0010229 -0.00112218 0)
(0.000977845 -0.00113786 0)
(0.000995586 -0.0011197 0)
(0.000952364 -0.00113624 0)
(0.000970974 -0.00111763 0)
(0.000929387 -0.00113495 0)
(0.000948801 -0.00111592 0)
(0.000908685 -0.00113395 0)
(0.000928831 -0.00111453 0)
(0.000890046 -0.00113322 0)
(0.000910853 -0.00111342 0)
(0.000873275 -0.00113271 0)
(0.000894677 -0.00111254 0)
(0.000858193 -0.00113239 0)
(0.000880127 -0.00111187 0)
(0.000844636 -0.00113223 0)
(0.000867044 -0.00111137 0)
(0.000832451 -0.0011322 0)
(0.00085528 -0.001111 0)
(0.000821498 -0.00113227 0)
(0.000844699 -0.00111075 0)
(0.000811648 -0.00113242 0)
(0.000835176 -0.00111057 0)
(0.000802779 -0.00113263 0)
(0.000826594 -0.00111044 0)
(0.000794781 -0.00113287 0)
(0.000818842 -0.00111035 0)
(0.000787544 -0.00113312 0)
(0.000811817 -0.00111025 0)
(0.000780965 -0.00113337 0)
(0.00080542 -0.0011101 0)
(0.00123885 -0.00111393 0)
(0.00125186 -0.001098 0)
(0.00119531 -0.00110743 0)
(0.00120906 -0.00109052 0)
(0.00115625 -0.00110165 0)
(0.00117095 -0.00108384 0)
(0.00112116 -0.00109635 0)
(0.00113688 -0.00107785 0)
(0.00108956 -0.00109156 0)
(0.0011063 -0.00107255 0)
(0.00106107 -0.00108731 0)
(0.00107879 -0.00106787 0)
(0.00103537 -0.00108359 0)
(0.00105401 -0.00106377 0)
(0.0010122 -0.00108035 0)
(0.00103168 -0.00106018 0)
(0.000991305 -0.00107754 0)
(0.00101157 -0.00105705 0)
(0.000972482 -0.00107512 0)
(0.000993449 -0.00105431 0)
(0.000955531 -0.00107303 0)
(0.000977134 -0.00105191 0)
(0.000940273 -0.00107124 0)
(0.000962449 -0.00104982 0)
(0.000926544 -0.0010697 0)
(0.000949235 -0.00104798 0)
(0.000914195 -0.00106838 0)
(0.000937348 -0.00104636 0)
(0.000903087 -0.00106723 0)
(0.000926652 -0.00104492 0)
(0.000893092 -0.00106623 0)
(0.000917026 -0.00104363 0)
(0.000884093 -0.00106534 0)
(0.000908355 -0.00104245 0)
(0.000875979 -0.00106454 0)
(0.000900532 -0.00104135 0)
(0.000868644 -0.00106381 0)
(0.000893456 -0.00104029 0)
(0.000861983 -0.0010631 0)
(0.000887032 -0.00103924 0)
(0.00132255 -0.00107597 0)
(0.0013351 -0.00105854 0)
(0.00127876 -0.00106613 0)
(0.0012922 -0.00104775 0)
(0.00123952 -0.00105735 0)
(0.00125403 -0.00103815 0)
(0.00120431 -0.00104935 0)
(0.00121992 -0.00102955 0)
(0.00117264 -0.00104211 0)
(0.00118933 -0.00102189 0)
(0.00114409 -0.00103562 0)
(0.00116183 -0.00101506 0)
(0.00111836 -0.00102983 0)
(0.00113706 -0.00100898 0)
(0.00109515 -0.00102468 0)
(0.00111474 -0.00100356 0)
(0.00107423 -0.00102011 0)
(0.00109464 -0.000998722 0)
(0.00105538 -0.00101604 0)
(0.00107652 -0.000994405 0)
(0.00103839 -0.00101243 0)
(0.00106021 -0.000990541 0)
(0.0010231 -0.00100921 0)
(0.00104553 -0.000987073 0)
(0.00100934 -0.00100633 0)
(0.00103231 -0.00098395 0)
(0.000996955 -0.00100375 0)
(0.00102043 -0.000981121 0)
(0.000985813 -0.00100143 0)
(0.00100973 -0.000978544 0)
(0.000975789 -0.00099931 0)
(0.00100011 -0.000976177 0)
(0.000966766 -0.000997372 0)
(0.000991455 -0.000973983 0)
(0.000958633 -0.000995576 0)
(0.000983653 -0.000971925 0)
(0.000951287 -0.000993891 0)
(0.000976609 -0.000969965 0)
(0.000944623 -0.000992278 0)
(0.000970232 -0.000968057 0)
(0.00140429 -0.00103695 0)
(0.00141643 -0.00101814 0)
(0.00136071 -0.00102384 0)
(0.0013739 -0.00100414 0)
(0.00132167 -0.00101213 0)
(0.00133602 -0.000991695 0)
(0.00128665 -0.00100149 0)
(0.00130219 -0.000980561 0)
(0.00125514 -0.000991861 0)
(0.00127183 -0.0009706 0)
(0.00122676 -0.000983191 0)
(0.00124454 -0.000961683 0)
(0.00120118 -0.000975404 0)
(0.00121996 -0.000953687 0)
(0.00117812 -0.000968412 0)
(0.00119783 -0.000946506 0)
(0.00115734 -0.000962131 0)
(0.00117789 -0.000940042 0)
(0.00113861 -0.000956485 0)
(0.00115993 -0.000934212 0)
(0.00112173 -0.0009514 0)
(0.00114376 -0.000928941 0)
(0.00110654 -0.00094681 0)
(0.00112921 -0.000924162 0)
(0.00109287 -0.000942654 0)
(0.00111612 -0.000919811 0)
(0.00108058 -0.000938876 0)
(0.00110435 -0.000915833 0)
(0.00106952 -0.000935425 0)
(0.00109377 -0.000912177 0)
(0.00105958 -0.000932253 0)
(0.00108426 -0.000908796 0)
(0.00105063 -0.000929319 0)
(0.00107571 -0.000905645 0)
(0.00104257 -0.000926583 0)
(0.00106802 -0.000902685 0)
(0.0010353 -0.000924004 0)
(0.00106109 -0.000899874 0)
(0.0010287 -0.00092154 0)
(0.00105483 -0.000897164 0)
(0.00148383 -0.000997058 0)
(0.00149565 -0.000977005 0)
(0.00144092 -0.000980815 0)
(0.0014539 -0.000959947 0)
(0.00140246 -0.000966277 0)
(0.0014167 -0.000944785 0)
(0.00136793 -0.000953106 0)
(0.00138343 -0.000931224 0)
(0.00133687 -0.000941188 0)
(0.00135357 -0.000919072 0)
(0.00130889 -0.000930432 0)
(0.00132671 -0.000908161 0)
(0.00128367 -0.000920731 0)
(0.00130253 -0.000898341 0)
(0.00126093 -0.000911979 0)
(0.00128075 -0.000889483 0)
(0.00124044 -0.000904074 0)
(0.00126113 -0.000881471 0)
(0.00122198 -0.000896923 0)
(0.00124347 -0.000874209 0)
(0.00120536 -0.000890442 0)
(0.00122757 -0.000867608 0)
(0.0011904 -0.000884552 0)
(0.00121327 -0.000861589 0)
(0.00117695 -0.000879185 0)
(0.00120042 -0.000856083 0)
(0.00116486 -0.000874275 0)
(0.00118888 -0.000851026 0)
(0.001154 -0.000869766 0)
(0.00117852 -0.00084636 0)
(0.00114424 -0.000865603 0)
(0.00116923 -0.000842031 0)
(0.00113548 -0.000861737 0)
(0.0011609 -0.00083799 0)
(0.00112759 -0.000858124 0)
(0.00115342 -0.000834191 0)
(0.00112048 -0.000854719 0)
(0.00114668 -0.000830588 0)
(0.00111403 -0.000851472 0)
(0.00114062 -0.000827129 0)
(0.001561 -0.000956461 0)
(0.00157255 -0.000935312 0)
(0.00151918 -0.000937281 0)
(0.00153201 -0.000915408 0)
(0.00148165 -0.000920087 0)
(0.00149582 -0.000897705 0)
(0.00144794 -0.000904528 0)
(0.00146341 -0.000881868 0)
(0.00141759 -0.00089045 0)
(0.0014343 -0.000867658 0)
(0.00139023 -0.000877725 0)
(0.0014081 -0.000854874 0)
(0.00136557 -0.000866222 0)
(0.0013845 -0.000843341 0)
(0.00134333 -0.000855812 0)
(0.00136324 -0.000832908 0)
(0.0013233 -0.000846377 0)
(0.0013441 -0.000823448 0)
(0.00130525 -0.00083781 0)
(0.00132686 -0.000814845 0)
(0.00128901 -0.000830016 0)
(0.00131137 -0.000807001 0)
(0.00127441 -0.000822906 0)
(0.00129744 -0.000799827 0)
(0.00126129 -0.000816403 0)
(0.00128495 -0.000793243 0)
(0.00124952 -0.000810434 0)
(0.00127374 -0.00078718 0)
(0.00123896 -0.000804934 0)
(0.00126371 -0.000781574 0)
(0.0012295 -0.000799845 0)
(0.00125472 -0.000776368 0)
(0.00122102 -0.000795114 0)
(0.0012467 -0.000771509 0)
(0.00121341 -0.000790691 0)
(0.00123952 -0.000766944 0)
(0.00120656 -0.000786527 0)
(0.00123309 -0.00076262 0)
(0.00120037 -0.000782565 0)
(0.00122732 -0.000758473 0)
(0.00163562 -0.000915332 0)
(0.00164698 -0.000893243 0)
(0.00159529 -0.000893456 0)
(0.00160802 -0.000870742 0)
(0.00155904 -0.000873814 0)
(0.00157317 -0.000850713 0)
(0.00152644 -0.000856048 0)
(0.00154191 -0.000832784 0)
(0.00149706 -0.000839972 0)
(0.00151379 -0.000816679 0)
(0.00147055 -0.000825426 0)
(0.00148846 -0.000802168 0)
(0.00144664 -0.000812254 0)
(0.00146563 -0.000789055 0)
(0.00142507 -0.000800308 0)
(0.00144505 -0.000777171 0)
(0.00140563 -0.000789456 0)
(0.00142651 -0.000766373 0)
(0.00138813 -0.000779576 0)
(0.00140982 -0.000756534 0)
(0.00137238 -0.000770562 0)
(0.00139483 -0.000747546 0)
(0.00135825 -0.000762318 0)
(0.00138138 -0.000739309 0)
(0.00134557 -0.000754758 0)
(0.00136933 -0.000731735 0)
(0.00133422 -0.000747804 0)
(0.00135856 -0.000724743 0)
(0.00132406 -0.000741383 0)
(0.00134895 -0.000718258 0)
(0.00131497 -0.000735426 0)
(0.00134036 -0.000712218 0)
(0.00130685 -0.00072987 0)
(0.0013327 -0.000706571 0)
(0.0012996 -0.000724662 0)
(0.00132588 -0.00070128 0)
(0.00129312 -0.000719769 0)
(0.00131982 -0.000696306 0)
(0.0012873 -0.000715158 0)
(0.00131444 -0.000691582 0)
(0.00170756 -0.00087383 0)
(0.00171879 -0.000850957 0)
(0.00166908 -0.000849536 0)
(0.00168174 -0.000826146 0)
(0.00163443 -0.000827687 0)
(0.00164852 -0.000804037 0)
(0.00160321 -0.00080793 0)
(0.00161867 -0.000784231 0)
(0.00157503 -0.000790047 0)
(0.00159177 -0.000766422 0)
(0.00154958 -0.000773852 0)
(0.00156751 -0.000750357 0)
(0.00152661 -0.00075917 0)
(0.00154561 -0.000735821 0)
(0.00150587 -0.000745837 0)
(0.00152587 -0.000722631 0)
(0.00148716 -0.000733706 0)
(0.00150806 -0.000710628 0)
(0.00147031 -0.000722643 0)
(0.00149203 -0.000699676 0)
(0.00145514 -0.000712529 0)
(0.00147762 -0.000689655 0)
(0.00144153 -0.000703256 0)
(0.0014647 -0.000680461 0)
(0.00142935 -0.000694732 0)
(0.00145314 -0.000672002 0)
(0.00141847 -0.000686877 0)
(0.00144285 -0.000664193 0)
(0.00140879 -0.000679625 0)
(0.00143372 -0.00065695 0)
(0.00140017 -0.000672912 0)
(0.00142564 -0.000650184 0)
(0.00139248 -0.000666664 0)
(0.00141848 -0.000643803 0)
(0.00138555 -0.000660785 0)
(0.00141209 -0.000637723 0)
(0.00137924 -0.000655145 0)
(0.0014063 -0.000631908 0)
(0.00137351 -0.000649585 0)
(0.0014011 -0.000626413 0)
(0.00177672 -0.000832095 0)
(0.00178786 -0.000808594 0)
(0.00174039 -0.000805688 0)
(0.00175301 -0.000781785 0)
(0.00170762 -0.000781905 0)
(0.00172169 -0.000757868 0)
(0.00167802 -0.000760397 0)
(0.00169347 -0.000736426 0)
(0.00165127 -0.000740925 0)
(0.001668 -0.000717131 0)
(0.00162708 -0.00072328 0)
(0.00164499 -0.00069971 0)
(0.00160521 -0.000707271 0)
(0.0016242 -0.000683934 0)
(0.00158545 -0.000692723 0)
(0.00160542 -0.000669608 0)
(0.00156761 -0.000679478 0)
(0.00158848 -0.000656564 0)
(0.00155151 -0.000667393 0)
(0.00157321 -0.000644654 0)
(0.00153702 -0.00065634 0)
(0.00155946 -0.000633751 0)
(0.00152399 -0.000646203 0)
(0.00154711 -0.00062374 0)
(0.0015123 -0.000636877 0)
(0.00153605 -0.000614525 0)
(0.00150185 -0.000628269 0)
(0.00152616 -0.000606022 0)
(0.00149256 -0.000620302 0)
(0.00151739 -0.000598167 0)
(0.00148438 -0.000612925 0)
(0.00150968 -0.000590905 0)
(0.00147723 -0.000606126 0)
(0.001503 -0.000584187 0)
(0.00147104 -0.000599937 0)
(0.00149733 -0.000577932 0)
(0.00146561 -0.000594426 0)
(0.00149258 -0.000571998 0)
(0.00146058 -0.000589657 0)
(0.00148847 -0.000566125 0)
(0.00184301 -0.000790244 0)
(0.0018541 -0.000766267 0)
(0.0018091 -0.00076205 0)
(0.0018217 -0.000737791 0)
(0.00177844 -0.000736626 0)
(0.0017925 -0.000712359 0)
(0.00175069 -0.000713629 0)
(0.00176612 -0.000689544 0)
(0.00172557 -0.000692804 0)
(0.00174226 -0.000668999 0)
(0.00170281 -0.000673926 0)
(0.00172067 -0.000650437 0)
(0.00168221 -0.000656791 0)
(0.00170113 -0.000633621 0)
(0.00166357 -0.000641215 0)
(0.00168346 -0.000618346 0)
(0.00164672 -0.000627031 0)
(0.0016675 -0.000604438 0)
(0.00163151 -0.000614092 0)
(0.00165309 -0.000591743 0)
(0.0016178 -0.000602264 0)
(0.00164012 -0.000580131 0)
(0.00160547 -0.000591431 0)
(0.00162845 -0.000569484 0)
(0.00159439 -0.00058149 0)
(0.00161798 -0.0005597 0)
(0.00158446 -0.000572354 0)
(0.00160861 -0.000550691 0)
(0.00157558 -0.000563942 0)
(0.00160024 -0.00054238 0)
(0.00156767 -0.000556186 0)
(0.00159278 -0.000534707 0)
(0.00156068 -0.000549032 0)
(0.00158617 -0.000527641 0)
(0.00155465 -0.000542467 0)
(0.00158041 -0.000521186 0)
(0.0015497 -0.000536577 0)
(0.00157559 -0.000515428 0)
(0.00154591 -0.000531599 0)
(0.00157177 -0.000510604 0)
(0.00190636 -0.000748368 0)
(0.00191743 -0.000724062 0)
(0.00187508 -0.000718728 0)
(0.00188767 -0.000694263 0)
(0.00184673 -0.000691969 0)
(0.00186078 -0.000667624 0)
(0.00182103 -0.000667759 0)
(0.00183642 -0.000643709 0)
(0.00179771 -0.00064583 0)
(0.00181433 -0.00062216 0)
(0.00177654 -0.000625944 0)
(0.00179431 -0.000602682 0)
(0.00175736 -0.000607888 0)
(0.00177616 -0.000585028 0)
(0.00173998 -0.00059147 0)
(0.00175973 -0.00056899 0)
(0.00172427 -0.000576519 0)
(0.00174488 -0.000554387 0)
(0.00171007 -0.00056288 0)
(0.00173147 -0.000541063 0)
(0.00169726 -0.000550416 0)
(0.00171938 -0.000528879 0)
(0.00168574 -0.000539003 0)
(0.00170851 -0.000517716 0)
(0.00167541 -0.000528532 0)
(0.00169877 -0.000507468 0)
(0.00166616 -0.000518907 0)
(0.00169007 -0.00049804 0)
(0.00165792 -0.000510043 0)
(0.00168234 -0.000489346 0)
(0.00165064 -0.00050187 0)
(0.00167551 -0.000481301 0)
(0.00164425 -0.000494329 0)
(0.00166953 -0.000473816 0)
(0.00163876 -0.000487374 0)
(0.00166436 -0.000466798 0)
(0.00163421 -0.000480989 0)
(0.00165993 -0.000460251 0)
(0.00163058 -0.000475248 0)
(0.00165598 -0.000454506 0)
(0.00196671 -0.000706537 0)
(0.00197776 -0.000682044 0)
(0.00193822 -0.000675803 0)
(0.00195081 -0.000651275 0)
(0.00191236 -0.000648025 0)
(0.00192637 -0.000623743 0)
(0.00188885 -0.000622888 0)
(0.00190416 -0.00059901 0)
(0.00186746 -0.000600111 0)
(0.00188399 -0.000576709 0)
(0.00184803 -0.000579447 0)
(0.00186566 -0.000556539 0)
(0.00183039 -0.000560676 0)
(0.00184902 -0.00053825 0)
(0.0018144 -0.000543602 0)
(0.00183395 -0.000521628 0)
(0.00179993 -0.000528046 0)
(0.00182031 -0.000506488 0)
(0.00178685 -0.000513852 0)
(0.001808 -0.00049267 0)
(0.00177505 -0.000500875 0)
(0.00179691 -0.00048003 0)
(0.00176445 -0.000488989 0)
(0.00178695 -0.000468443 0)
(0.00175495 -0.000478078 0)
(0.00177803 -0.000457795 0)
(0.00174646 -0.00046804 0)
(0.00177008 -0.000447985 0)
(0.00173892 -0.000458786 0)
(0.00176304 -0.000438922 0)
(0.00173229 -0.000450241 0)
(0.00175683 -0.000430518 0)
(0.00172653 -0.00044235 0)
(0.00175143 -0.000422685 0)
(0.00172166 -0.000435073 0)
(0.00174683 -0.000415342 0)
(0.0017177 -0.000428403 0)
(0.00174294 -0.000408508 0)
(0.00171453 -0.000422458 0)
(0.00173945 -0.000402459 0)
(0.00202397 -0.000664805 0)
(0.00203503 -0.000640267 0)
(0.00199841 -0.00063334 0)
(0.00201099 -0.000608887 0)
(0.00197515 -0.000604871 0)
(0.00198911 -0.000580782 0)
(0.00195395 -0.000579098 0)
(0.00196916 -0.000555518 0)
(0.00193462 -0.000555736 0)
(0.00195099 -0.000532721 0)
(0.00191702 -0.000534531 0)
(0.00193445 -0.000512088 0)
(0.00190102 -0.000515257 0)
(0.00191941 -0.000493367 0)
(0.0018865 -0.000497717 0)
(0.00190577 -0.000476344 0)
(0.00187335 -0.00048173 0)
(0.00189342 -0.000460831 0)
(0.00186146 -0.000467134 0)
(0.00188228 -0.000446665 0)
(0.00185074 -0.000453784 0)
(0.00187224 -0.000433701 0)
(0.00184112 -0.000441551 0)
(0.00186323 -0.000421811 0)
(0.0018325 -0.000430317 0)
(0.00185518 -0.00041088 0)
(0.00182483 -0.00041998 0)
(0.00184803 -0.000400807 0)
(0.00181804 -0.000410454 0)
(0.0018417 -0.0003915 0)
(0.0018121 -0.000401669 0)
(0.00183617 -0.000382873 0)
(0.00180699 -0.000393567 0)
(0.00183139 -0.000374837 0)
(0.00180272 -0.000386105 0)
(0.00182736 -0.00036731 0)
(0.00179931 -0.000379274 0)
(0.00182401 -0.000360314 0)
(0.00179663 -0.000373223 0)
(0.00182101 -0.00035413 0)
(0.00207809 -0.000623223 0)
(0.00208913 -0.00059878 0)
(0.00205554 -0.000591395 0)
(0.00206808 -0.000567152 0)
(0.00203497 -0.000562567 0)
(0.00204883 -0.000538799 0)
(0.00201615 -0.000536456 0)
(0.00203121 -0.000513291 0)
(0.00199895 -0.000512777 0)
(0.00201511 -0.000490257 0)
(0.00198325 -0.000491271 0)
(0.00200041 -0.000469396 0)
(0.00196895 -0.000471715 0)
(0.00198703 -0.000450456 0)
(0.00195596 -0.000453907 0)
(0.00197488 -0.000433224 0)
(0.00194419 -0.000437669 0)
(0.00196387 -0.000417514 0)
(0.00193354 -0.000422839 0)
(0.00195392 -0.000403163 0)
(0.00192395 -0.00040927 0)
(0.00194497 -0.000390026 0)
(0.00191534 -0.000396833 0)
(0.00193695 -0.000377976 0)
(0.00190765 -0.000385413 0)
(0.0019298 -0.000366899 0)
(0.00190083 -0.000374909 0)
(0.00192347 -0.000356695 0)
(0.00189482 -0.000365237 0)
(0.0019179 -0.000347273 0)
(0.00188959 -0.000356327 0)
(0.00191305 -0.000338546 0)
(0.00188514 -0.000348125 0)
(0.00190892 -0.000330423 0)
(0.00188148 -0.000340585 0)
(0.0019055 -0.00032282 0)
(0.00187863 -0.000333705 0)
(0.0019027 -0.000315749 0)
(0.00187645 -0.00032764 0)
(0.00190018 -0.000309492 0)
(0.00212899 -0.000581837 0)
(0.00214 -0.000557623 0)
(0.0021095 -0.000550014 0)
(0.00212196 -0.000526109 0)
(0.00209166 -0.000521159 0)
(0.00210537 -0.00049783 0)
(0.00207527 -0.00049501 0)
(0.00209012 -0.00047237 0)
(0.00206023 -0.000471283 0)
(0.00207611 -0.000449361 0)
(0.00204648 -0.000449722 0)
(0.0020633 -0.000428508 0)
(0.00203392 -0.000430106 0)
(0.0020516 -0.000409566 0)
(0.0020225 -0.000412235 0)
(0.00204096 -0.000392324 0)
(0.00201214 -0.000395932 0)
(0.00203131 -0.000376599 0)
(0.00200276 -0.000381039 0)
(0.0020226 -0.000362231 0)
(0.00199432 -0.00036741 0)
(0.00201476 -0.000349078 0)
(0.00198676 -0.000354919 0)
(0.00200775 -0.000337014 0)
(0.00198002 -0.000343453 0)
(0.00200152 -0.000325928 0)
(0.00197406 -0.000332912 0)
(0.00199602 -0.000315722 0)
(0.00196884 -0.000323216 0)
(0.00199122 -0.000306304 0)
(0.00196434 -0.000314296 0)
(0.00198708 -0.00029759 0)
(0.00196056 -0.000306099 0)
(0.0019836 -0.000289486 0)
(0.00195752 -0.000298585 0)
(0.00198078 -0.000281905 0)
(0.00195522 -0.000291753 0)
(0.00197854 -0.000274856 0)
(0.00195354 -0.000285761 0)
(0.00197651 -0.000268611 0)
(0.00217661 -0.000540683 0)
(0.00218756 -0.000516827 0)
(0.00216019 -0.000509228 0)
(0.00217253 -0.000485783 0)
(0.00214509 -0.000480674 0)
(0.0021586 -0.000457898 0)
(0.00213114 -0.000454783 0)
(0.0021457 -0.000432771 0)
(0.00211828 -0.000431278 0)
(0.0021338 -0.000410048 0)