/*--------------------------------*- C++ -*----------------------------------*\
| =========                 |                                                 |
| \\      /  F ield         | OpenFOAM: The Open Source CFD Toolbox           |
|  \\    /   O peration     | Version:  v2012                                 |
|   \\  /    A nd           | Website:  www.openfoam.com                      |
|    \\/     M anipulation  |                                                 |
\*---------------------------------------------------------------------------*/
FoamFile
{
    version     2.0;
    format      ascii;
    class       pointVectorField;
    location    "5";
    object      pointD;
}
// * * * * * * * * * * * * * * * * * * * * * * * * * * * * * * * * * * * * * //

dimensions      [0 1 0 0 0 0 0];


internalField   nonuniform List<vector> 
7900
(
(0.0017702 0 0)
(0.00252836 0 0)
(0.00233343 -0.000233652 0)
(0 -0.00124661 0)
(0 -0.000962141 0)
(0.0017702 0 0)
(0.00252836 0 0)
(0.00233343 -0.000233652 0)
(0 -0.00124661 0)
(0 -0.000962141 0)
(0.00178331 0 0)
(0.00179281 0 0)
(0.00180042 0 0)
(0.0018062 0 0)
(0.00181062 0 0)
(0.00181462 0 0)
(0.00181834 0 0)
(0.00182212 0 0)
(0.00182602 0 0)
(0.00183029 0 0)
(0.0018345 0 0)
(0.00183932 0 0)
(0.00184478 0 0)
(0.00185032 0 0)
(0.00185677 0 0)
(0.00186345 0 0)
(0.00187067 0 0)
(0.00187851 0 0)
(0.00188677 0 0)
(0.00189557 0 0)
(0.0019049 0 0)
(0.00191468 0 0)
(0.00192493 0 0)
(0.00193564 0 0)
(0.00194681 0 0)
(0.00195842 0 0)
(0.00197045 0 0)
(0.00198292 0 0)
(0.00199579 0 0)
(0.00200907 0 0)
(0.00202272 0 0)
(0.00203673 0 0)
(0.00205111 0 0)
(0.00206587 0 0)
(0.00208096 0 0)
(0.00209637 0 0)
(0.0021121 0 0)
(0.00212813 0 0)
(0.00214446 0 0)
(0.00216108 0 0)
(0.00217796 0 0)
(0.00219511 0 0)
(0.00221249 0 0)
(0.0022301 0 0)
(0.00224793 0 0)
(0.00226596 0 0)
(0.00228417 0 0)
(0.00230255 0 0)
(0.0023211 0 0)
(0.00233974 0 0)
(0.00235851 0 0)
(0.00237736 0 0)
(0.00239629 0 0)
(0.00241525 0 0)
(0.00243423 0 0)
(0.00245321 0 0)
(0.0024722 0 0)
(0.00249099 0 0)
(0.0025097 0 0)
(0.00252805 -1.75526e-06 0)
(0.00252725 -3.51852e-06 0)
(0.00252619 -5.35989e-06 0)
(0.00252448 -7.21859e-06 0)
(0.00252234 -9.21037e-06 0)
(0.00251977 -1.14139e-05 0)
(0.00251673 -1.36471e-05 0)
(0.00251332 -1.61295e-05 0)
(0.0025095 -1.87832e-05 0)
(0.00250525 -2.15675e-05 0)
(0.00250064 -2.46608e-05 0)
(0.00249574 -2.80441e-05 0)
(0.00249047 -3.1625e-05 0)
(0.00248495 -3.55304e-05 0)
(0.00247917 -3.97635e-05 0)
(0.0024731 -4.4256e-05 0)
(0.00246689 -4.90751e-05 0)
(0.00246056 -5.42537e-05 0)
(0.00245398 -5.97027e-05 0)
(0.00244742 -6.55108e-05 0)
(0.0024407 -7.16391e-05 0)
(0.00243392 -7.81241e-05 0)
(0.00242724 -8.49276e-05 0)
(0.00242055 -9.2061e-05 0)
(0.00241386 -9.94794e-05 0)
(0.00240734 -0.000107188 0)
(0.00240086 -0.000115193 0)
(0.00239451 -0.000123487 0)
(0.0023884 -0.000131991 0)
(0.00238244 -0.000140741 0)
(0.0023767 -0.000149664 0)
(0.00237115 -0.000158772 0)
(0.00236585 -0.000167992 0)
(0.00236073 -0.000177347 0)
(0.00235585 -0.000186719 0)
(0.00235115 -0.000196152 0)
(0.0023466 -0.000205588 0)
(0.0023422 -0.000214976 0)
(0.00233781 -0.000224334 0)
(0.00231173 -0.000238047 0)
(0.00229006 -0.000242444 0)
(0.00226843 -0.000246784 0)
(0.00224683 -0.000250997 0)
(0.00222523 -0.000255073 0)
(0.00220362 -0.000258935 0)
(0.00218193 -0.000262617 0)
(0.00216015 -0.00026603 0)
(0.00213822 -0.000269267 0)
(0.00211614 -0.000272255 0)
(0.00209387 -0.000275029 0)
(0.00207137 -0.000277549 0)
(0.00204862 -0.000279956 0)
(0.00202562 -0.000282057 0)
(0.00200229 -0.000284024 0)
(0.00197863 -0.000285947 0)
(0.0019546 -0.000287711 0)
(0.00193024 -0.0002893 0)
(0.00190548 -0.000290902 0)
(0.0018803 -0.000292422 0)
(0.0018547 -0.000293989 0)
(0.00182863 -0.000295528 0)
(0.00180202 -0.000297111 0)
(0.00177507 -0.000298788 0)
(0.00174761 -0.00030069 0)
(0.00171954 -0.000302567 0)
(0.00169102 -0.000304796 0)
(0.00166188 -0.000307084 0)
(0.00163227 -0.000309889 0)
(0.00160203 -0.000312813 0)
(0.00157127 -0.000316218 0)
(0.0015399 -0.000319899 0)
(0.00150799 -0.000324259 0)
(0.00147534 -0.000328877 0)
(0.00144224 -0.000334201 0)
(0.00140842 -0.000340016 0)
(0.00137409 -0.000346612 0)
(0.00133914 -0.000353817 0)
(0.0013037 -0.000361892 0)
(0.00126751 -0.000370692 0)
(0.00123082 -0.000380336 0)
(0.00119363 -0.000391021 0)
(0.00115582 -0.000402627 0)
(0.00111768 -0.000415212 0)
(0.00107912 -0.000428942 0)
(0.00103989 -0.000443718 0)
(0.00100059 -0.000459663 0)
(0.000960931 -0.000476887 0)
(0.000920811 -0.000495234 0)
(0.000880784 -0.000514898 0)
(0.000840473 -0.0005358 0)
(0.000800199 -0.00055799 0)
(0.000759767 -0.000581458 0)
(0.000719678 -0.000606224 0)
(0.000679978 -0.000632073 0)
(0.000640499 -0.000659101 0)
(0.000601477 -0.000687436 0)
(0.000562982 -0.000716791 0)
(0.000525097 -0.000746775 0)
(0.000488089 -0.000777731 0)
(0.000451929 -0.000809535 0)
(0.000416804 -0.000841719 0)
(0.000382802 -0.000874337 0)
(0.00035 -0.000906897 0)
(0.000318592 -0.000939613 0)
(0.00028825 -0.000971868 0)
(0.000259442 -0.00100351 0)
(0.000232262 -0.00103472 0)
(0.000206153 -0.00106442 0)
(0.000181759 -0.00109281 0)
(0.000159036 -0.00111961 0)
(0.000137268 -0.00114453 0)
(0.000116697 -0.00116708 0)
(9.79414e-05 -0.00118744 0)
(7.96058e-05 -0.00120496 0)
(6.2263e-05 -0.00121947 0)
(4.63812e-05 -0.00123118 0)
(3.01781e-05 -0.00123945 0)
(1.53784e-05 -0.00124449 0)
(0 -0.00123912 0)
(0 -0.00123038 0)
(0 -0.00122202 0)
(0 -0.0012122 0)
(0 -0.00120245 0)
(0 -0.0011917 0)
(0 -0.001181 0)
(0 -0.00117032 0)
(0 -0.00115965 0)
(0 -0.00114814 0)
(0 -0.00113674 0)
(0 -0.00112516 0)
(0 -0.0011127 0)
(0 -0.00109945 0)
(0 -0.00108509 0)
(0 -0.00106817 0)
(0 -0.00104882 0)
(0 -0.0010261 0)
(0 -0.000997763 0)
(9.39674e-05 -0.000959238 0)
(0.000189063 -0.000952737 0)
(0.000278448 -0.00094374 0)
(0.000369181 -0.000930125 0)
(0.000456633 -0.000912155 0)
(0.000546538 -0.000892804 0)
(0.000631747 -0.000870352 0)
(0.000714368 -0.000844769 0)
(0.000797844 -0.000816437 0)
(0.000876414 -0.000786555 0)
(0.00095225 -0.000754756 0)
(0.00102582 -0.000722166 0)
(0.00109589 -0.000687493 0)
(0.00116339 -0.000652628 0)
(0.00122675 -0.000616659 0)
(0.00128736 -0.00058083 0)
(0.00134444 -0.000544055 0)
(0.00139878 -0.000508176 0)
(0.00144924 -0.000471769 0)
(0.00149623 -0.000434115 0)
(0.00153948 -0.000397674 0)
(0.0015791 -0.000361175 0)
(0.00161511 -0.00032385 0)
(0.00164729 -0.000288131 0)
(0.00167603 -0.000251961 0)
(0.00170052 -0.000216079 0)
(0.00172163 -0.000178771 0)
(0.0017389 -0.000143548 0)
(0.00175204 -0.000107025 0)
(0.00176149 -7.2225e-05 0)
(0.00176827 -3.65017e-05 0)
(0.00178331 0 0)
(0.00179281 0 0)
(0.00180042 0 0)
(0.0018062 0 0)
(0.00181062 0 0)
(0.00181462 0 0)
(0.00181834 0 0)
(0.00182212 0 0)
(0.00182602 0 0)
(0.00183029 0 0)
(0.0018345 0 0)
(0.00183932 0 0)
(0.00184478 0 0)
(0.00185032 0 0)
(0.00185677 0 0)
(0.00186345 0 0)
(0.00187067 0 0)
(0.00187851 0 0)
(0.00188677 0 0)
(0.00189557 0 0)
(0.0019049 0 0)
(0.00191468 0 0)
(0.00192493 0 0)
(0.00193564 0 0)
(0.00194681 0 0)
(0.00195842 0 0)
(0.00197045 0 0)
(0.00198292 0 0)
(0.00199579 0 0)
(0.00200907 0 0)
(0.00202272 0 0)
(0.00203673 0 0)
(0.00205111 0 0)
(0.00206587 0 0)
(0.00208096 0 0)
(0.00209637 0 0)
(0.0021121 0 0)
(0.00212813 0 0)
(0.00214446 0 0)
(0.00216108 0 0)
(0.00217796 0 0)
(0.00219511 0 0)
(0.00221249 0 0)
(0.0022301 0 0)
(0.00224793 0 0)
(0.00226596 0 0)
(0.00228417 0 0)
(0.00230255 0 0)
(0.0023211 0 0)
(0.00233974 0 0)
(0.00235851 0 0)
(0.00237736 0 0)
(0.00239629 0 0)
(0.00241525 0 0)
(0.00243423 0 0)
(0.00245321 0 0)
(0.0024722 0 0)
(0.00249099 0 0)
(0.0025097 0 0)
(0.00252805 -1.75526e-06 0)
(0.00252725 -3.51852e-06 0)
(0.00252619 -5.35989e-06 0)
(0.00252448 -7.21859e-06 0)
(0.00252234 -9.21037e-06 0)
(0.00251977 -1.14139e-05 0)
(0.00251673 -1.36471e-05 0)
(0.00251332 -1.61295e-05 0)
(0.0025095 -1.87832e-05 0)
(0.00250525 -2.15675e-05 0)
(0.00250064 -2.46608e-05 0)
(0.00249574 -2.80441e-05 0)
(0.00249047 -3.1625e-05 0)
(0.00248495 -3.55304e-05 0)
(0.00247917 -3.97635e-05 0)
(0.0024731 -4.4256e-05 0)
(0.00246689 -4.90751e-05 0)
(0.00246056 -5.42537e-05 0)
(0.00245398 -5.97027e-05 0)
(0.00244742 -6.55108e-05 0)
(0.0024407 -7.16391e-05 0)
(0.00243392 -7.81241e-05 0)
(0.00242724 -8.49276e-05 0)
(0.00242055 -9.2061e-05 0)
(0.00241386 -9.94794e-05 0)
(0.00240734 -0.000107188 0)
(0.00240086 -0.000115193 0)
(0.00239451 -0.000123487 0)
(0.0023884 -0.000131991 0)
(0.00238244 -0.000140741 0)
(0.0023767 -0.000149664 0)
(0.00237115 -0.000158772 0)
(0.00236585 -0.000167992 0)
(0.00236073 -0.000177347 0)
(0.00235585 -0.000186719 0)
(0.00235115 -0.000196152 0)
(0.0023466 -0.000205588 0)
(0.0023422 -0.000214976 0)
(0.00233781 -0.000224334 0)
(0.00231173 -0.000238047 0)
(0.00229006 -0.000242444 0)
(0.00226843 -0.000246784 0)
(0.00224683 -0.000250997 0)
(0.00222523 -0.000255073 0)
(0.00220362 -0.000258935 0)
(0.00218193 -0.000262617 0)
(0.00216015 -0.00026603 0)
(0.00213822 -0.000269267 0)
(0.00211614 -0.000272255 0)
(0.00209387 -0.000275029 0)
(0.00207137 -0.000277549 0)
(0.00204862 -0.000279956 0)
(0.00202562 -0.000282057 0)
(0.00200229 -0.000284024 0)
(0.00197863 -0.000285947 0)
(0.0019546 -0.000287711 0)
(0.00193024 -0.0002893 0)
(0.00190548 -0.000290902 0)
(0.0018803 -0.000292422 0)
(0.0018547 -0.000293989 0)
(0.00182863 -0.000295528 0)
(0.00180202 -0.000297111 0)
(0.00177507 -0.000298788 0)
(0.00174761 -0.00030069 0)
(0.00171954 -0.000302567 0)
(0.00169102 -0.000304796 0)
(0.00166188 -0.000307084 0)
(0.00163227 -0.000309889 0)
(0.00160203 -0.000312813 0)
(0.00157127 -0.000316218 0)
(0.0015399 -0.000319899 0)
(0.00150799 -0.000324259 0)
(0.00147534 -0.000328877 0)
(0.00144224 -0.000334201 0)
(0.00140842 -0.000340016 0)
(0.00137409 -0.000346612 0)
(0.00133914 -0.000353817 0)
(0.0013037 -0.000361892 0)
(0.00126751 -0.000370692 0)
(0.00123082 -0.000380336 0)
(0.00119363 -0.000391021 0)
(0.00115582 -0.000402627 0)
(0.00111768 -0.000415212 0)
(0.00107912 -0.000428942 0)
(0.00103989 -0.000443718 0)
(0.00100059 -0.000459663 0)
(0.000960931 -0.000476887 0)
(0.000920811 -0.000495234 0)
(0.000880784 -0.000514898 0)
(0.000840473 -0.0005358 0)
(0.000800199 -0.00055799 0)
(0.000759767 -0.000581458 0)
(0.000719678 -0.000606224 0)
(0.000679978 -0.000632073 0)
(0.000640499 -0.000659101 0)
(0.000601477 -0.000687436 0)
(0.000562982 -0.000716791 0)
(0.000525097 -0.000746775 0)
(0.000488089 -0.000777731 0)
(0.000451929 -0.000809535 0)
(0.000416804 -0.000841719 0)
(0.000382802 -0.000874337 0)
(0.00035 -0.000906897 0)
(0.000318592 -0.000939613 0)
(0.00028825 -0.000971868 0)
(0.000259442 -0.00100351 0)
(0.000232262 -0.00103472 0)
(0.000206153 -0.00106442 0)
(0.000181759 -0.00109281 0)
(0.000159036 -0.00111961 0)
(0.000137268 -0.00114453 0)
(0.000116697 -0.00116708 0)
(9.79414e-05 -0.00118744 0)
(7.96058e-05 -0.00120496 0)
(6.2263e-05 -0.00121947 0)
(4.63812e-05 -0.00123118 0)
(3.01781e-05 -0.00123945 0)
(1.53784e-05 -0.00124449 0)
(0 -0.00123912 0)
(0 -0.00123038 0)
(0 -0.00122202 0)
(0 -0.0012122 0)
(0 -0.00120245 0)
(0 -0.0011917 0)
(0 -0.001181 0)
(0 -0.00117032 0)
(0 -0.00115965 0)
(0 -0.00114814 0)
(0 -0.00113674 0)
(0 -0.00112516 0)
(0 -0.0011127 0)
(0 -0.00109945 0)
(0 -0.00108509 0)
(0 -0.00106817 0)
(0 -0.00104882 0)
(0 -0.0010261 0)
(0 -0.000997763 0)
(9.39674e-05 -0.000959238 0)
(0.000189063 -0.000952737 0)
(0.000278448 -0.00094374 0)
(0.000369181 -0.000930125 0)
(0.000456633 -0.000912155 0)
(0.000546538 -0.000892804 0)
(0.000631747 -0.000870352 0)
(0.000714368 -0.000844769 0)
(0.000797844 -0.000816437 0)
(0.000876414 -0.000786555 0)
(0.00095225 -0.000754756 0)
(0.00102582 -0.000722166 0)
(0.00109589 -0.000687493 0)
(0.00116339 -0.000652628 0)
(0.00122675 -0.000616659 0)
(0.00128736 -0.00058083 0)
(0.00134444 -0.000544055 0)
(0.00139878 -0.000508176 0)
(0.00144924 -0.000471769 0)
(0.00149623 -0.000434115 0)
(0.00153948 -0.000397674 0)
(0.0015791 -0.000361175 0)
(0.00161511 -0.00032385 0)
(0.00164729 -0.000288131 0)
(0.00167603 -0.000251961 0)
(0.00170052 -0.000216079 0)
(0.00172163 -0.000178771 0)
(0.0017389 -0.000143548 0)
(0.00175204 -0.000107025 0)
(0.00176149 -7.2225e-05 0)
(0.00176827 -3.65017e-05 0)
(0.00149346 -0.000142288 0)
(0.00194732 -0.000100942 0)
(0.000929339 -0.000475449 0)
(0.00211924 -0.000156562 0)
(0.00223124 -6.25408e-05 0)
(0.00159809 -0.000170242 0)
(0.00184565 -4.72082e-05 0)
(0.000442542 -0.000902508 0)
(0.00164652 -8.42764e-05 0)
(0.00114844 -0.000326319 0)
(0.00187214 -0.000186935 0)
(0.00207702 -4.29726e-05 0)
(0.00129422 -0.000272013 0)
(0.0017978 -3.12074e-05 0)
(0.00227615 -9.85662e-05 0)
(0.00133986 -0.000266888 0)
(0.00167052 -0.000102872 0)
(0.00236642 -3.18028e-05 0)
(0.00220178 -0.00019338 0)
(0.00210255 -0.000105203 0)
(0.000612356 -0.000726646 0)
(0.000789197 -0.000638537 0)
(0.00166709 -0.000221571 0)
(0.00198252 -2.50198e-05 0)
(0.000858662 -0.000512829 0)
(0.00124977 -0.000259769 0)
(0.00199549 -0.000215477 0)
(0.00220584 -3.07818e-05 0)
(0.00178884 -0.000146787 0)
(0.00194162 -5.98688e-05 0)
(0.00146024 -0.000181737 0)
(0.000193461 -0.00111409 0)
(0.00189653 -1.82701e-05 0)
(0.00180626 -9.64945e-05 0)
(0.0023605 -5.92702e-05 0)
(0.00227403 -0.0001372 0)
(0.00169471 -7.02899e-05 0)
(0.000303249 -0.00100554 0)
(0.00173886 -7.32066e-05 0)
(0.00148346 -0.000255868 0)
(0.00179212 -2.70616e-05 0)
(0.00147864 -0.000145386 0)
(0.00197601 -0.000138195 0)
(0.00206971 -7.34101e-05 0)
(0.00154034 -0.000180653 0)
(0.000382921 -0.00094379 0)
(0.00113593 -0.000356467 0)
(0.00110309 -0.000455125 0)
(0.00167013 -6.794e-05 0)
(0.00177918 -0.000237916 0)
(0.00207009 -1.94043e-05 0)
(0.00106618 -0.000370399 0)
(0.00131247 -0.000229373 0)
(0.000658129 -0.000706892 0)
(0.000578998 -0.000829146 0)
(0.00209203 -0.000227504 0)
(0.00229664 -2.21206e-05 0)
(0.00200107 -0.000171602 0)
(0.00215505 -5.34983e-05 0)
(0.000957233 -0.000449449 0)
(0.00217184 -0.000119393 0)
(0.00105117 -0.000414248 0)
(0.00188722 -0.000243104 0)
(0.00214523 -1.8909e-05 0)
(0.00186811 -1.28576e-05 0)
(0.000661129 -0.000664274 0)
(0.00243773 -1.53703e-05 0)
(0.00225531 -0.000211273 0)
(0.00221689 -8.81237e-05 0)
(0.000172497 -0.00109949 0)
(0.00237511 -7.41757e-05 0)
(0.00130659 -0.00025305 0)
(0.001804 -4.01804e-05 0)
(0.00135901 -0.000320243 0)
(0.00168836 -0.000126545 0)
(0.00179174 -7.42082e-05 0)
(0.00195972 -1.28579e-05 0)
(0.00234285 -0.000102736 0)
(0.00080074 -0.000565904 0)
(0.00147799 -0.000164828 0)
(0.00242208 -3.67946e-05 0)
(0.00228795 -0.000161003 0)
(0.00212111 -0.000187478 0)
(0.00228445 -4.21944e-05 0)
(0.00207259 -0.000136741 0)
(0.00214338 -7.81891e-05 0)
(0.00146947 -0.000204361 0)
(0.00134282 -0.000302484 0)
(0.00155149 -0.000132606 0)
(0.00167189 -0.000181418 0)
(0.00192704 -4.07186e-05 0)
(0.00177288 -0.000185872 0)
(0.00200555 -3.93917e-05 0)
(0.00156661 -0.000265975 0)
(0.00187499 -0.000151937 0)
(0.00199174 -7.19968e-05 0)
(0.000470777 -0.000840443 0)
(0.00179845 -2.69628e-05 0)
(0.00201561 -0.000108099 0)
(0.00184226 -1.22044e-05 0)
(0.00133021 -0.000224889 0)
(0.000243643 -0.00107299 0)
(0.00184816 -0.000113617 0)
(0.000923633 -0.000618095 0)
(0.00202228 -1.19515e-05 0)
(0.00189949 -8.43007e-05 0)
(0.00236824 -1.55084e-05 0)
(0.0021692 -0.000230994 0)
(9.85203e-05 -0.00118651 0)
(0.00157452 -0.000152261 0)
(0.000588429 -0.000788768 0)
(0.00160112 -9.56891e-05 0)
(0.00220682 -0.000136619 0)
(0.00175425 -6.5337e-05 0)
(0.000836602 -0.000564699 0)
(0.00110766 -0.000352754 0)
(0.000510411 -0.000832393 0)
(0.00192364 -2.65474e-05 0)
(0.0013983 -0.000180927 0)
(0.00167296 -0.000262823 0)
(0.00230469 -5.6084e-05 0)
(0.00166732 -0.000147357 0)
(0.00121572 -0.000342522 0)
(0.0010111 -0.000407356 0)
(0.000803121 -0.000549825 0)
(0.00200841 -0.00024807 0)
(0.00223953 -1.56264e-05 0)
(0.00157039 -0.000209813 0)
(0.00219935 -0.000166869 0)
(0.00172416 -4.97668e-05 0)
(0.000329673 -0.00100063 0)
(0.00192244 -0.000208493 0)
(0.00214028 -3.37207e-05 0)
(0.00229343 -7.8039e-05 0)
(0.00171338 -0.000143553 0)
(0.0018729 -5.99588e-05 0)
(0.000208963 -0.00102689 0)
(0.000309837 -0.00101066 0)
(0.0017338 -5.65506e-05 0)
(0.00143491 -0.000176207 0)
(0.00177609 -6.36204e-05 0)
(0.00164864 -0.000106794 0)
(0.00164677 -9.50951e-05 0)
(0.000434337 -0.000932838 0)
(0.00191176 -7.8703e-06 0)
(0.000107169 -0.00115604 0)
(0.00205759 -0.000186505 0)
(0.00221947 -4.57153e-05 0)
(0.00173352 -5.1412e-05 0)
(0.000778534 -0.000595963 0)
(0.00144878 -0.000237067 0)
(0.00184497 -2.52009e-05 0)
(0.00159437 -9.70731e-05 0)
(0.00241561 -5.48655e-05 0)
(0.00202002 -5.37729e-05 0)
(0.000444351 -0.000909329 0)
(0.00234675 -0.000117782 0)
(0.00186723 -3.14944e-05 0)
(0.00119096 -0.000292734 0)
(0.00193062 -0.000125494 0)
(0.000143504 -0.00108502 0)
(0.000928487 -0.000465062 0)
(0.00227044 -0.000118842 0)
(0.00101983 -0.000424265 0)
(0.0010805 -0.000373232 0)
(0.00245848 -2.26263e-05 0)
(0.00230007 -0.000180147 0)
(0.00194052 -0.000164711 0)
(0.00209582 -5.52045e-05 0)
(0.000954379 -0.000510587 0)
(0.00124555 -0.000295911 0)
(0.00151242 -0.000268032 0)
(0.0014226 -0.00030092 0)
(0.00180181 -2.54153e-05 0)
(0.00182381 -1.33105e-05 0)
(0.00181363 -0.000262865 0)
(0.00210809 -1.16187e-05 0)
(0.00120176 -0.000305364 0)
(0.000761945 -0.00074986 0)
(0.0020112 -8.86875e-05 0)
(0.00207428 -9.07042e-05 0)
(0.00141012 -0.000234613 0)
(0.00173015 -9.9649e-05 0)
(0.00236539 -4.38721e-05 0)
(0.00184819 -0.000217712 0)
(0.00209765 -2.84715e-05 0)
(0.00125058 -0.000440007 0)
(0.00126672 -0.000260496 0)
(0.000355473 -0.000947923 0)
(0.00173999 -0.000218543 0)
(0.00202792 -2.70894e-05 0)
(0.00179825 -3.05554e-05 0)
(0.000155967 -0.0011497 0)
(0.000533712 -0.000767306 0)
(0.00150887 -0.000130777 0)
(0.00193683 -0.000259364 0)
(0.00219105 -1.20128e-05 0)
(0.00115745 -0.000371157 0)
(0.00157276 -0.000235835 0)
(0.0020671 -0.000209948 0)
(0.00225635 -3.205e-05 0)
(0.00185924 -7.58074e-05 0)
(0.00177735 -0.000120124 0)
(0.00137011 -0.000213504 0)
(0.00216301 -0.00010305 0)
(0.00174459 -4.36288e-05 0)
(0.0020413 -0.000123191 0)
(0.00158536 -0.000108391 0)
(0.00103336 -0.0003957 0)
(0.000705721 -0.000638288 0)
(0.0022566 -7.22389e-05 0)
(0.0011094 -0.000389199 0)
(0.00137975 -0.00023236 0)
(0.00193996 -7.39296e-06 0)
(0.00185903 -0.000132543 0)
(0.00206175 -1.01518e-05 0)
(0.00239175 -8.11494e-05 0)
(0.000685709 -0.000634723 0)
(0.000499554 -0.00083104 0)
(0.00173899 -0.000268557 0)
(0.00113413 -0.000328856 0)
(0.00130781 -0.000227459 0)
(0.00158279 -0.000134434 0)
(0.00222706 -0.000116862 0)
(0.00211045 -0.000248707 0)
(0.00232539 -1.12299e-05 0)
(0.00247415 -7.72663e-06 0)
(0.00228436 -0.000221029 0)
(0.0024438 -4.05114e-05 0)
(0.00157833 -0.000124534 0)
(0.000235077 -0.00107286 0)
(0.00199405 -7.98773e-06 0)
(0.00152001 -0.000203196 0)
(0.00139829 -0.000184714 0)
(0.00213945 -0.000207899 0)
(0.00232104 -3.01989e-05 0)
(0.000721153 -0.000721031 0)
(0.000654487 -0.000699402 0)
(0.00200894 -0.000150502 0)
(0.00206277 -0.000157199 0)
(0.00217992 -6.32034e-05 0)
(0.00212263 -6.65945e-05 0)
(0.00233958 -0.000135578 0)
(0.00110669 -0.000546805 0)
(0.00232741 -9.37073e-05 0)
(0.00186754 -7.22488e-06 0)
(0.00219916 -7.67089e-05 0)
(0.00212564 -0.000136966 0)
(0.000703657 -0.000683161 0)
(0.000553102 -0.000804588 0)
(0.000934355 -0.000459991 0)
(0.00222483 -0.000101532 0)
(0.0015809 -0.000100831 0)
(0.0021184 -0.000119976 0)
(0.00086519 -0.000510828 0)
(0.00217019 -0.000157195 0)
(0.00118237 -0.000316766 0)
(0.00241192 -9.38702e-06 0)
(0.00221186 -0.000235656 0)
(0.00173253 -0.00011799 0)
(0.00114497 -0.000321545 0)
(0.00149552 -0.000293758 0)
(0.00173015 -8.2088e-05 0)
(0.000616943 -0.000844949 0)
(0.00183535 -1.91093e-05 0)
(0.000595175 -0.000729107 0)
(0.0019905 -0.000194316 0)
(0.00217484 -4.12033e-05 0)
(0.0009617 -0.000465811 0)
(0.00234191 -7.33957e-05 0)
(0.00203623 -6.53534e-05 0)
(0.000757829 -0.000586178 0)
(0.00189344 -3.71521e-05 0)
(0.00205396 -0.000256072 0)
(0.00228065 -1.06005e-05 0)
(0.00241354 -2.54502e-05 0)
(0.00224539 -0.000194689 0)
(0.00198749 -1.60497e-05 0)
(0.00180989 -0.000203997 0)
(0.00205594 -3.31486e-05 0)
(0.00027244 -0.00103147 0)
(0.000903165 -0.000488233 0)
(0.00225036 -0.000158453 0)
(0.00152261 -0.000131992 0)
(0.00174372 -0.000171031 0)
(0.00195667 -4.66686e-05 0)
(0.00175555 -5.6237e-05 0)
(0.00125656 -0.000307657 0)
(0.00134143 -0.000211203 0)
(0.0013743 -0.000213502 0)
(0.00232773 -4.1564e-05 0)
(0.00181198 -0.000161504 0)
(0.00127539 -0.000318916 0)
(0.001665 -7.26169e-05 0)
(0.00126309 -0.00034274 0)
(0.00194987 -0.000233992 0)
(0.00218481 -2.26414e-05 0)
(0.00189117 -6.52749e-06 0)
(0.000419647 -0.000918719 0)
(0.00160705 -0.00028278 0)
(0.00165252 -0.00012244 0)
(0.00163449 -0.000206078 0)
(8.25133e-05 -0.00114311 0)
(0.0018113 -4.75629e-05 0)
(0.00193019 -1.79677e-05 0)
(0.0021488 -9.19272e-05 0)
(0.00162894 -0.000147519 0)
(0.00149319 -0.000180772 0)
(0.00123569 -0.000272924 0)
(0.00180233 -6.13371e-05 0)
(0.00187432 -0.000269142 0)
(0.00215152 -8.78949e-06 0)
(0.00194867 -0.000182194 0)
(0.0021261 -4.68335e-05 0)
(0.00242075 -6.1716e-05 0)
(0.00187799 -1.63004e-05 0)
(0.00184209 -8.1095e-06 0)
(0.00247887 -1.44512e-05 0)
(0.00230706 -0.000195639 0)
(0.000800759 -0.000559658 0)
(0.00137719 -0.000270725 0)
(0.00196848 -3.48419e-05 0)
(0.00170549 -0.000195233 0)
(0.00178767 -3.79786e-05 0)
(0.00174349 -4.50518e-05 0)
(0.000238513 -0.00105271 0)
(0.00237873 -9.99044e-05 0)
(0.00154643 -0.000176783 0)
(0.00161114 -0.000228963 0)
(0.00142905 -0.000174896 0)
(0.00163698 -0.000247582 0)
(0.000419378 -0.000934071 0)
(0.00194927 -7.0303e-05 0)
(0.00184006 -0.000176817 0)
(0.00227102 -5.27462e-05 0)
(0.000600114 -0.00070285 0)
(5.96475e-05 -0.00119073 0)
(0.00194655 -8.516e-05 0)
(0.00231389 -6.49573e-05 0)
(0.00142579 -0.000354429 0)
(4.96366e-05 -0.00121949 0)
(0.0024659 -2.77068e-05 0)
(0.00233221 -0.000157748 0)
(0.00222823 -0.000144935 0)
(0.000339993 -0.000990422 0)
(0.00217132 -0.000183988 0)
(0.000716324 -0.000638144 0)
(0.00180161 -8.48242e-05 0)
(0.000342771 -0.000966581 0)
(0.00174851 -0.00011273 0)
(0.000969951 -0.000541406 0)
(0.00184883 -9.82401e-05 0)
(0.00189709 -9.90221e-05 0)
(0.00166436 -7.12979e-05 0)
(0.0016504 -0.000169126 0)
(0.00239894 -4.76978e-05 0)
(0.00210826 -0.000176813 0)
(0.000314726 -0.00101141 0)
(0.00189679 -0.000114475 0)
(0.00123421 -0.000271946 0)
(0.00139311 -0.000214189 0)
(0.00187748 -4.74539e-05 0)
(0.00224854 -0.000172606 0)
(0.00231225 -0.000119742 0)
(0.00149892 -0.00014618 0)
(0.0013482 -0.000324573 0)
(0.00149589 -0.000176054 0)
(0.00178088 -3.26866e-05 0)
(0.00196876 -5.8802e-06 0)
(0.00195169 -2.03895e-05 0)
(0.00152258 -0.000152594 0)
(0.00170303 -7.56267e-05 0)
(0.00239672 -3.42832e-05 0)
(0.00198339 -5.16632e-05 0)
(0.00161877 -0.000112232 0)
(0.001978 -0.000121618 0)
(7.79301e-05 -0.00112192 0)
(0.00176216 -4.92976e-05 0)
(0.00141221 -0.000234538 0)
(0.00188855 -0.000167107 0)
(0.00201645 -2.01151e-05 0)
(0.000109356 -0.00107189 0)
(0.0022961 -0.000142127 0)
(0.00181991 -1.30908e-05 0)
(0.00238205 -2.25939e-05 0)
(0.0021994 -0.000211301 0)
(0.00183848 -0.000239911 0)
(0.00211466 -2.0073e-05 0)
(0.00107607 -0.000369223 0)
(0.00171985 -0.000240262 0)
(0.00141334 -0.000274257 0)
(0.00203734 -4.30657e-05 0)
(0.00231675 -8.60204e-05 0)
(0.00162525 -0.000141341 0)
(0.000392444 -0.000895555 0)
(0.0019422 -3.11065e-05 0)
(0.00150513 -0.000230341 0)
(0.00192133 -0.000150315 0)
(0.000132858 -0.00115716 0)
(0.000864689 -0.000562393 0)
(0.00171732 -0.000160207 0)
(0.00191919 -5.03519e-05 0)
(0.00145207 -0.000250192 0)
(0.000248579 -0.00107244 0)
(0.000929599 -0.000476986 0)
(0.00122176 -0.000392544 0)
(0.00151439 -0.000266781 0)
(0.00217095 -0.000133159 0)
(0.00182186 -1.68682e-05 0)
(0.00179881 -0.000130073 0)
(0.000487897 -0.000868783 0)
(0.00177071 -3.42016e-05 0)
(0.00192069 -1.21493e-05 0)
(0.00202588 -0.0002267 0)
(0.00223759 -2.55252e-05 0)
(0.0010332 -0.000407134 0)
(0.000924837 -0.000681177 0)
(0.000187637 -0.00111602 0)
(0.000318789 -0.000988815 0)
(0.0021364 -0.000222686 0)
(0.00233359 -2.23446e-05 0)
(0.00197144 -0.000108937 0)
(0.00163336 -8.86959e-05 0)
(0.000102885 -0.00119148 0)
(0.000854872 -0.000538751 0)
(0.00128269 -0.000311209 0)
(0.00076097 -0.000619573 0)
(0.00124084 -0.000280731 0)
(0.000576182 -0.000767149 0)
(0.000138377 -0.00101357 0)
(0.00206023 -5.18086e-05 0)
(0.000423997 -0.000894638 0)
(0.000543146 -0.000838257 0)
(0.00167891 -7.90817e-05 0)
(0.00226568 -9.05365e-05 0)
(0.000947071 -0.000491148 0)
(0.00210259 -7.98204e-05 0)
(0.0010403 -0.000405881 0)
(0.00190509 -7.01776e-05 0)
(0.000988944 -0.000423752 0)
(0.0010062 -0.000410024 0)
(0.000941924 -0.000454097 0)
(0.00190268 -2.37388e-05 0)
(0.00169332 -0.000105946 0)
(0.00170881 -7.6022e-05 0)
(0.000686433 -0.000720874 0)
(0.00198282 -6.21512e-05 0)
(0.00203835 -6.23806e-06 0)
(0.0019758 -0.000267281 0)
(0.00222331 -8.03587e-06 0)
(0.000355758 -0.000974625 0)
(0.00175263 -5.05731e-05 0)
(0.00206098 -0.000104253 0)
(0.0015807 -0.000111249 0)
(0.00178262 -4.84804e-05 0)
(0.00233874 -5.56574e-05 0)
(0.00184611 -3.00101e-05 0)
(0.000402198 -0.000938718 0)
(0.0018566 -6.10295e-06 0)
(0.000163839 -0.00111855 0)
(0.000223812 -0.00103926 0)
(0.00181526 -1.41185e-05 0)
(0.00115321 -0.000348747 0)
(0.00214238 -0.000252027 0)
(0.00235718 -7.51815e-06 0)
(0.00160426 -0.000185506 0)
(0.00153218 -0.000123128 0)
(0.00185218 -1.92369e-05 0)
(0.00168365 -0.000284372 0)
(0.00100985 -0.000413093 0)
(0.000843002 -0.0006308 0)
(0.00136827 -0.000206463 0)
(0.00215886 -0.000172733 0)
(0.00180062 -2.72086e-05 0)
(0.00115755 -0.000380333 0)
(0.00221394 -5.52782e-05 0)
(0.000591157 -0.000760321 0)
(0.00204426 -1.6316e-05 0)
(0.001681 -0.000140478 0)
(0.00155225 -0.000293818 0)
(0.00188597 -0.000223762 0)
(0.00212985 -2.65821e-05 0)
(0.00158521 -0.000195693 0)
(0.000855986 -0.000513548 0)
(0.00141987 -0.000171213 0)
(0.00183242 -6.3616e-05 0)
(0.00145744 -0.000154426 0)
(0.00169947 -6.11043e-05 0)
(0.000728126 -0.000601078 0)
(0.00131353 -0.000260354 0)
(0.000437527 -0.000897519 0)
(0.000541927 -0.000783445 0)
(0.0010179 -0.000412322 0)
(0.000268285 -0.0010531 0)
(0.00168403 -9.14069e-05 0)
(0.000450923 -0.000835889 0)
(0.00106301 -0.000445491 0)
(0.00168186 -0.000184012 0)
(0.00158859 -0.000113739 0)
(0.00225081 -0.000132148 0)
(0.00117718 -0.000304462 0)
(0.00202053 -7.59872e-05 0)
(0.00244679 -5.70154e-06 0)
(0.00224754 -0.00023622 0)
(0.00119452 -0.000337832 0)
(0.00185253 -1.27663e-05 0)
(0.00174966 -8.18085e-05 0)
(0.0001742 -0.00113386 0)
(0.00207849 -0.000169272 0)
(0.00141861 -0.000205603 0)
(0.00143916 -0.00020386 0)
(0.00227529 -0.000175618 0)
(0.00129423 -0.000256136 0)
(0.0008463 -0.000537493 0)
(0.00192702 -4.40685e-06 0)
(0.00158525 -0.000138801 0)
(0.00208872 -6.58081e-06 0)
(0.001886 -0.000201725 0)
(0.0021059 -3.60041e-05 0)
(0.002082 -0.00011844 0)
(0.00195618 -0.000215642 0)
(0.00217326 -3.07681e-05 0)
(0.00226943 -6.19916e-05 0)
(0.000484789 -0.000861643 0)
(0.00224999 -4.73464e-05 0)
(0.000881832 -0.000496714 0)
(0.000315123 -0.00100367 0)
(0.00146553 -0.000170653 0)
(0.00170425 -5.58964e-05 0)
(0.00238251 -6.52987e-05 0)
(0.00176011 -9.46632e-05 0)
(0.00204615 -0.000239141 0)
(0.0022669 -1.93154e-05 0)
(0.000728545 -0.000613872 0)
(0.00225401 -8.1858e-05 0)
(0.00172793 -0.000127572 0)
(0.00103795 -0.000426436 0)
(0.00183574 -7.1786e-05 0)
(0.00211533 -8.79103e-05 0)
(0.00240221 -8.54793e-05 0)
(0.00108804 -0.000358646 0)
(0.00245077 -4.40308e-05 0)
(0.00153092 -0.000159202 0)
(0.00203603 -0.00020358 0)
(0.00208132 -0.000193889 0)
(0.00222435 -3.66355e-05 0)
(0.00200041 -3.27173e-05 0)
(0.00216071 -0.000146624 0)
(0.00037017 -0.000961939 0)
(0.00177345 -0.000278902 0)
(0.00154518 -0.000115884 0)
(0.00175524 -0.000142189 0)
(0.00203548 -9.46904e-05 0)
(0.00184348 -4.06787e-05 0)
(0.00187037 -2.34648e-05 0)
(0.00229092 -0.000105422 0)
(0.00236678 -0.000121409 0)
(0.00131608 -0.0002226 0)
(0.00171472 -5.4067e-05 0)
(0.00176027 -4.13262e-05 0)
(0.000526009 -0.000897378 0)
(0.00176952 -9.74011e-05 0)
(0.00218624 -8.78352e-05 0)
(0.00178064 -3.28396e-05 0)
(0.00240557 -1.58976e-05 0)
(0.00221626 -0.000219746 0)
(0.00210145 -0.000212377 0)
(0.00228387 -3.36912e-05 0)
(0.00242308 -6.7295e-05 0)
(0.00138925 -0.000189407 0)
(0.00135942 -0.000433735 0)
(0.00113551 -0.000347551 0)
(0.00166065 -8.44627e-05 0)
(0.00153598 -0.000232534 0)
(0.00197992 -8.43759e-05 0)
(0.000238519 -0.00106167 0)
(0.00168507 -0.000233143 0)
(0.00201445 -0.000136919 0)
(0.00218676 -5.13261e-05 0)
(0.000850233 -0.000523669 0)
(0.0020131 -0.000265368 0)
(0.00225154 -7.8349e-06 0)
(0.00198755 -0.000238778 0)
(0.00221492 -2.02973e-05 0)
(0.000882751 -0.000576486 0)
(0.000806892 -0.000692324 0)
(0.00188824 -0.000136738 0)
(0.00170683 -6.23467e-05 0)
(0.00190873 -4.09416e-06 0)
(0.0018189 -2.8699e-05 0)
(0.00202181 -0.000182516 0)
(0.00177447 -5.26661e-05 0)
(0.00164338 -7.7414e-05 0)
(5.56172e-05 -0.00116582 0)
(0.00201533 -5.10578e-06 0)
(0.00171557 -9.40792e-05 0)
(0.00180245 -0.000221309 0)
(0.00207169 -2.61935e-05 0)
(0.00218801 -0.000107407 0)
(0.0014707 -0.000217027 0)
(0.00144161 -0.00031322 0)
(0.000523252 -0.000879427 0)
(0.0018908 -3.13512e-05 0)
(0.000788142 -0.000560549 0)
(0.00190197 -6.07714e-05 0)
(0.00125247 -0.000283459 0)
(0.00208049 -1.31785e-05 0)
(0.00163304 -8.17462e-05 0)
(0.00106345 -0.000624964 0)
(0.00113341 -0.000327742 0)
(0.00124391 -0.000262002 0)
(0.00126635 -0.000250962 0)
(0.00188888 -1.09744e-05 0)
(0.00144605 -0.000166089 0)
(0.000773629 -0.000592972 0)
(0.00108254 -0.000391423 0)
(0.00242992 -2.99568e-05 0)
(0.00239166 -5.57073e-05 0)
(0.00221015 -0.000176518 0)
(4.08245e-05 -0.00120941 0)
(0.0024694 -3.14779e-05 0)
(0.00122299 -0.000517022 0)
(0.00193875 -0.000135585 0)
(0.0018303 -1.78872e-05 0)
(0.00184368 -0.000147249 0)
(0.00197952 -0.00016347 0)
(0.00197175 -0.000151554 0)
(0.00209278 -6.47278e-05 0)
(0.00212139 -5.82333e-05 0)
(0.00191214 -0.00017989 0)
(0.00209562 -4.70434e-05 0)
(0.000752807 -0.000790842 0)
(0.00223751 -0.000124573 0)
(0.000614869 -0.000755491 0)
(0.00104433 -0.000525184 0)
(0.00244234 -5.15658e-05 0)
(0.00120593 -0.000291163 0)
(0.000778978 -0.000620193 0)
(0.0024886 -1.69194e-05 0)
(0.00232957 -0.000179829 0)
(0.00182961 -0.000278137 0)
(0.00212581 -6.21869e-06 0)