/*--------------------------------*- C++ -*----------------------------------*\
| =========                 |                                                 |
| \\      /  F ield         | OpenFOAM: The Open Source CFD Toolbox           |
|  \\    /   O peration     | Version:  v2012                                 |
|   \\  /    A nd           | Website:  www.openfoam.com                      |
|    \\/     M anipulation  |                                                 |
\*---------------------------------------------------------------------------*/
FoamFile
{
    version     2.0;
    format      ascii;
    class       volScalarField;
    location    "1";
    object      epsilonEq;
}
// * * * * * * * * * * * * * * * * * * * * * * * * * * * * * * * * * * * * * //

dimensions      [0 0 0 0 0 0 0];


internalField   nonuniform List<scalar> 5(2.40212e-06 2.35275e-06 2.38955e-06 2.40307e-06 2.40201e-06);

boundaryField
{
    boundary
    {
        type            calculated;
        value           nonuniform List<scalar> 4(2.39938e-06 2.36596e-06 2.38917e-06 2.39809e-06);
    }
    defaultFaces
    {
        type            empty;
    }
}


// ************************************************************************* //
