/*--------------------------------*- C++ -*----------------------------------*\
| =========                 |                                                 |
| \\      /  F ield         | OpenFOAM: The Open Source CFD Toolbox           |
|  \\    /   O peration     | Version:  v2012                                 |
|   \\  /    A nd           | Website:  www.openfoam.com                      |
|    \\/     M anipulation  |                                                 |
\*---------------------------------------------------------------------------*/
FoamFile
{
    version     2.0;
    format      ascii;
    class       pointVectorField;
    location    "1";
    object      pointD;
}
// * * * * * * * * * * * * * * * * * * * * * * * * * * * * * * * * * * * * * //

dimensions      [0 1 0 0 0 0 0];


internalField   nonuniform List<vector> 
16
(
(3.42327e-06 5.23055e-06 0)
(8.08825e-06 5.4314e-06 0)
(4.51923e-06 6.97776e-06 0)
(6.70786e-06 6.64743e-06 0)
(3.42327e-06 5.23055e-06 0)
(8.08825e-06 5.4314e-06 0)
(4.51923e-06 6.97776e-06 0)
(6.70786e-06 6.64743e-06 0)
(6.60086e-06 9.25835e-06 0)
(6.913e-06 1.2528e-05 0)
(6.60086e-06 9.25835e-06 0)
(6.913e-06 1.2528e-05 0)
(4.27968e-06 9.49143e-06 0)
(3.02701e-06 1.17837e-05 0)
(4.27968e-06 9.49143e-06 0)
(3.02701e-06 1.17837e-05 0)
)
;

boundaryField
{
    boundary
    {
        type            calculated;
    }
    defaultFaces
    {
        type            empty;
    }
}


// ************************************************************************* //
