/*--------------------------------*- C++ -*----------------------------------*\
| =========                 |                                                 |
| \\      /  F ield         | OpenFOAM: The Open Source CFD Toolbox           |
|  \\    /   O peration     | Version:  v2012                                 |
|   \\  /    A nd           | Website:  www.openfoam.com                      |
|    \\/     M anipulation  |                                                 |
\*---------------------------------------------------------------------------*/
FoamFile
{
    version     2.0;
    format      ascii;
    class       volSymmTensorField;
    location    "11";
    object      epsilon;
}
// * * * * * * * * * * * * * * * * * * * * * * * * * * * * * * * * * * * * * //

dimensions      [0 0 0 0 0 0 0];


internalField   nonuniform List<symmTensor> 
8000
(
(0.0122495 -0.000561921 1.55298e-14 -0.0102199 -5.10204e-14 0)
(0.0120035 -0.000691775 2.62781e-14 -0.0100446 -4.12708e-14 0)
(0.0120109 -0.000502156 9.75814e-15 -0.00981695 -2.03843e-14 0)
(0.0116979 -0.000683138 1.53772e-14 -0.00961972 -2.49757e-15 0)
(0.0117075 -0.00043635 5.0179e-15 -0.00935427 1.14422e-14 0)
(0.011351 -0.000662478 3.36368e-15 -0.00916727 1.79171e-14 0)
(0.0113622 -0.000374772 -1.73532e-15 -0.00885785 1.80576e-14 0)
(0.0109694 -0.000642838 2.15659e-15 -0.00868499 3.08217e-14 0)
(0.010982 -0.000318443 3.73481e-15 -0.00833531 2.2816e-14 0)
(0.0105557 -0.000625988 -1.19028e-14 -0.00817315 2.08219e-14 0)
(0.0105697 -0.000266146 -1.48591e-14 -0.00778952 1.05627e-14 0)
(0.0101117 -0.00061124 -2.59215e-14 -0.00763271 3.63988e-15 0)
(0.010127 -0.000216195 -9.76828e-15 -0.00722198 8.15233e-15 0)
(0.00963844 -0.00059719 -9.64804e-15 -0.00706467 6.01906e-15 0)
(0.00965517 -0.000166868 5.40475e-16 -0.00663409 1.47382e-14 0)
(0.00913769 -0.00058194 -3.78598e-15 -0.00647147 1.38891e-14 0)
(0.00915579 -0.000116858 -4.06392e-15 -0.00602847 1.20451e-14 0)
(0.00861224 -0.000563563 -1.46029e-14 -0.00585704 1.07483e-14 0)
(0.00863164 -6.52942e-05 -9.61275e-15 -0.00540921 8.36961e-15 0)
(0.00806539 -0.000541078 -1.74501e-14 -0.00522739 9.23914e-15 0)
(0.00808601 -1.18814e-05 -6.78098e-15 -0.00478238 8.74127e-15 0)
(0.0075042 -0.000511607 -9.9011e-15 -0.00459292 7.95891e-15 0)
(0.0075258 4.25031e-05 -2.52158e-15 -0.00415826 8.90824e-15 0)
(0.00693768 -0.000474406 -4.63713e-15 -0.00396718 8.90781e-15 0)
(0.00695993 9.61985e-05 -1.8097e-15 -0.00354935 2.24386e-15 0)
(0.00637742 -0.000428997 4.62157e-15 -0.00336685 1.08767e-15 0)
(0.00639987 0.00014657 6.02724e-15 -0.00297136 -1.1156e-14 0)
(0.00583683 -0.000375758 6.04432e-15 -0.0028096 -5.95617e-15 0)
(0.00585893 0.000190654 -3.59413e-16 -0.00244058 -1.13269e-14 0)
(0.00532933 -0.000316325 4.73563e-15 -0.00231047 -4.83554e-15 0)
(0.0053505 0.000225947 4.68514e-15 -0.00197122 -1.00805e-14 0)
(0.00486668 -0.00025308 2.12447e-15 -0.00187974 -6.56072e-15 0)
(0.00488636 0.000251039 -2.65337e-15 -0.00157331 -8.01356e-15 0)
(0.0044575 -0.000188703 -1.44719e-15 -0.00152198 -5.79051e-15 0)
(0.00447525 0.000265871 1.28426e-15 -0.0012516 -8.29545e-15 0)
(0.00410692 -0.000125399 1.26399e-15 -0.00123658 -6.56333e-15 0)
(0.00412243 0.00027164 -1.12676e-16 -0.0010058 -7.63539e-15 0)
(0.00381631 -6.50111e-05 2.35857e-15 -0.00101906 -8.43856e-15 0)
(0.00382941 0.000270433 2.24202e-15 -0.000832086 -8.43856e-15 0)
(0.00358947 -5.37544e-06 7.1765e-15 -0.000876395 -4.47559e-15 0)
(0.0120751 -0.00127828 3.41462e-14 -0.00999864 -2.47723e-14 0)
(0.011751 -0.00142824 2.26062e-14 -0.00978316 -6.58631e-15 0)
(0.011771 -0.00125204 2.00721e-14 -0.00957513 -6.30919e-15 0)
(0.0114249 -0.00140844 1.40561e-14 -0.00931247 6.63792e-15 0)
(0.0114493 -0.00119587 7.56058e-15 -0.00912551 1.66924e-14 0)
(0.0110704 -0.00137309 -5.73066e-15 -0.00883078 2.22023e-14 0)
(0.0110988 -0.00112684 -5.71028e-15 -0.00864715 3.56668e-14 0)
(0.0106838 -0.00133089 -1.25182e-14 -0.00832687 3.26236e-14 0)
(0.0107163 -0.00105018 -1.92471e-14 -0.00814006 2.55039e-14 0)
(0.0102641 -0.00128403 -3.64542e-14 -0.00779626 8.66061e-15 0)
(0.0103008 -0.000967757 -3.87403e-14 -0.00760499 -2.39652e-15 0)
(0.00981029 -0.0012332 -3.18278e-14 -0.00723628 -9.1034e-15 0)
(0.00985131 -0.000879672 -1.80912e-14 -0.0070428 -4.29127e-15 0)
(0.00932324 -0.00117705 -1.12074e-14 -0.00664749 -3.04227e-15 0)
(0.00936879 -0.000785133 -6.62014e-15 -0.00645586 7.20387e-15 0)
(0.00880486 -0.00111399 -1.59352e-14 -0.00603254 2.01054e-15 0)
(0.00885505 -0.000683011 -2.26831e-14 -0.00584803 7.99144e-15 0)
(0.00825985 -0.00104162 -3.18677e-14 -0.00539918 5.02202e-16 0)
(0.00831443 -0.000573718 -3.01731e-14 -0.00522521 4.64125e-15 0)
(0.00769648 -0.000958568 -3.05447e-14 -0.00475944 2.17881e-15 0)
(0.00775516 -0.0004563 -1.96269e-14 -0.00459766 6.39896e-15 0)
(0.00712642 -0.000862639 -1.45574e-14 -0.0041315 7.05165e-16 0)
(0.00718834 -0.000333164 -6.34443e-15 -0.00397867 2.81979e-15 0)
(0.00656465 -0.000754289 -5.49148e-16 -0.0035366 -4.60135e-15 0)
(0.00662856 -0.000207888 7.2776e-15 -0.00338461 8.74734e-16 0)
(0.00602697 -0.000635851 8.88493e-15 -0.00299457 -7.72906e-15 0)
(0.00609136 -8.50839e-05 6.03369e-15 -0.00283283 -2.47328e-15 0)
(0.00552709 -0.000511433 -8.99888e-18 -0.00251915 -1.13052e-14 0)
(0.00559036 3.02882e-05 5.08838e-15 -0.00233811 -8.26422e-15 0)
(0.00507497 -0.000385989 7.28942e-15 -0.00211634 -1.31822e-14 0)
(0.00513559 0.000134028 4.20567e-15 -0.00191057 -6.01515e-15 0)
(0.00467612 -0.000264328 2.97234e-16 -0.00178519 -5.06626e-15 0)
(0.00473283 0.000223248 -7.22946e-16 -0.00155478 -3.66027e-15 0)
(0.00433222 -0.000150181 1.09819e-15 -0.00151976 8.30065e-16 0)
(0.00438409 0.000296884 3.30953e-16 -0.00127019 -3.39138e-16 0)
(0.00404224 -4.55351e-05 -3.63061e-15 -0.00131167 7.55559e-15 0)
(0.0040886 0.000355101 6.04443e-17 -0.0010525 -7.30319e-16 0)
(0.00380427 4.93949e-05 -1.85399e-15 -0.00115279 6.07847e-15 0)
(0.00384536 0.000404974 5.62636e-15 -0.000909035 1.00701e-15 0)
(0.00360306 0.000132999 1.28218e-15 -0.00102687 6.38378e-15 0)
(0.0117685 -0.0020298 1.29706e-14 -0.00968858 1.26626e-14 0)
(0.0113697 -0.00216293 9.78211e-15 -0.00936839 1.92784e-14 0)
(0.0114053 -0.00197506 1.38923e-14 -0.00922315 1.18204e-14 0)
(0.0110011 -0.00209818 9.76584e-15 -0.00884421 1.93578e-14 0)
(0.0110398 -0.001897 -3.08672e-15 -0.00874813 1.93513e-14 0)
(0.0106112 -0.00202454 -1.5505e-14 -0.00831229 1.95321e-14 0)
(0.0106543 -0.00180263 -2.42206e-14 -0.00825243 1.99615e-14 0)
(0.0101923 -0.00194284 -1.69144e-14 -0.00776153 1.33084e-14 0)
(0.010241 -0.00169422 -2.23057e-14 -0.00773155 1.00453e-14 0)
(0.00973967 -0.00185278 -1.45409e-14 -0.00718527 4.01155e-16 0)
(0.00979476 -0.00157302 -2.30159e-14 -0.00718269 -7.47189e-15 0)
(0.00925157 -0.00175349 -1.04519e-14 -0.00658115 -7.28324e-15 0)
(0.00931387 -0.00143846 -1.30718e-14 -0.00660629 -7.56166e-15 0)
(0.00872858 -0.00164332 -1.70846e-14 -0.00595113 -9.56266e-16 0)
(0.00879866 -0.00129017 -2.38011e-14 -0.00600477 -1.28803e-15 0)
(0.00817718 -0.00151961 -2.89341e-14 -0.00530486 5.1543e-15 0)
(0.00825508 -0.00112808 -2.96779e-14 -0.00538554 1.13277e-15 0)
(0.00760775 -0.00138124 -2.48766e-14 -0.00465809 8.65974e-15 0)
(0.00769294 -0.000953796 -2.77766e-14 -0.00476017 5.27573e-15 0)
(0.00703814 -0.00122722 -1.26095e-14 -0.0040361 7.53737e-15 0)
(0.0071293 -0.000769872 -1.10592e-14 -0.00414612 -1.2425e-15 0)
(0.00648877 -0.00105941 2.75192e-15 -0.00346658 -3.62904e-15 0)
(0.00658376 -0.000581973 4.16876e-15 -0.00356384 -8.54958e-15 0)
(0.00597855 -0.000882709 5.90955e-15 -0.0029708 -4.7436e-15 0)
(0.0060749 -0.000396592 2.81535e-15 -0.00303253 -8.97112e-15 0)
(0.00552036 -0.00070376 -5.96485e-15 -0.00255814 -2.59428e-15 0)
(0.00561575 -0.000219888 -4.92304e-15 -0.00256559 -1.01191e-14 0)
(0.0051198 -0.000529147 -3.58383e-15 -0.00222639 -7.04645e-15 0)
(0.00521231 -5.66579e-05 4.0071e-15 -0.00216903 -1.31791e-14 0)
(0.00477628 -0.000363986 3.74071e-15 -0.00196549 -7.99187e-15 0)
(0.00486451 8.99866e-05 3.22431e-15 -0.00184212 -7.0252e-15 0)
(0.0044847 -0.000211909 -5.32777e-15 -0.00176163 -1.92901e-15 0)
(0.00456777 0.000218785 -5.99119e-15 -0.0015793 4.21711e-15 0)
(0.0042374 -7.47738e-05 -9.16682e-15 -0.00160052 8.18876e-15 0)
(0.004315 0.000330423 -5.22358e-15 -0.00137253 1.1846e-14 0)
(0.00402567 4.74326e-05 -8.03188e-15 -0.00146932 8.37524e-15 0)
(0.00409806 0.000427496 -7.65555e-15 -0.00121412 1.01386e-14 0)
(0.00383711 0.000154083 -1.85084e-15 -0.00135554 9.61644e-15 0)
(0.00390399 0.000506827 1.6404e-16 -0.00108757 1.0162e-14 0)
(0.0036683 0.00024646 4.07356e-15 -0.00125475 7.84008e-15 0)
(0.0112867 -0.00275165 7.16094e-15 -0.00922787 2.24768e-14 0)
(0.0108142 -0.00284089 1.27862e-14 -0.0087708 1.54148e-14 0)
(0.010869 -0.00263885 1.12855e-14 -0.00871437 1.96184e-14 0)
(0.01039 -0.00271203 1.03303e-14 -0.00818272 6.44146e-15 0)
(0.0104455 -0.00251193 -3.77519e-15 -0.0081946 7.02867e-15 0)
(0.0099436 -0.00257766 -1.10287e-14 -0.00758167 -7.74467e-15 0)
(0.0100028 -0.00236876 -1.59107e-14 -0.00765805 -5.03503e-16 0)
(0.00946718 -0.00243408 -1.68027e-14 -0.00695997 -1.42377e-15 0)
(0.00953238 -0.00220797 -1.03988e-14 -0.00709829 3.37187e-15 0)
(0.00895654 -0.00227883 -1.00046e-14 -0.00631465 -4.88325e-16 0)
(0.0090295 -0.00202882 -2.37093e-15 -0.00651286 -3.48116e-15 0)
(0.008412 -0.00211016 -4.54714e-16 -0.00564882 3.03577e-15 0)
(0.00849405 -0.00183116 -1.30347e-14 -0.00590338 5.12654e-15 0)
(0.00784199 -0.00192631 -4.47971e-15 -0.0049757 9.2387e-15 0)
(0.00793378 -0.00161547 -1.45725e-14 -0.00527876 8.91561e-15 0)
(0.00726139 -0.00172687 -1.15402e-15 -0.00431716 1.50943e-14 0)
(0.00736233 -0.00138523 -1.24102e-14 -0.0046537 1.79262e-14 0)
(0.00669562 -0.00151318 6.66481e-15 -0.00370821 1.53514e-14 0)
(0.00680372 -0.00114621 6.97554e-15 -0.004052 7.84919e-15 0)
(0.00617222 -0.00129029 8.62591e-15 -0.00318314 6.21551e-15 0)
(0.00628435 -0.000906863 1.51571e-15 -0.00349983 3.20794e-15 0)
(0.00571179 -0.00106609 3.59977e-15 -0.00276063 -2.11203e-15 0)
(0.00582471 -0.000675667 6.52841e-15 -0.00301766 -5.47002e-15 0)
(0.0053231 -0.000848744 9.31395e-15 -0.00243986 -7.37257e-15 0)
(0.00543429 -0.000458925 -3.32416e-16 -0.00261489 -4.67942e-16 0)
(0.0050039 -0.00064441 1.24813e-15 -0.00220596 -5.6552e-16 0)
(0.00511185 -0.000259986 -3.45904e-15 -0.00228999 -2.73219e-16 0)
(0.00474465 -0.00045638 2.87422e-15 -0.00203801 1.19436e-15 0)
(0.00484879 -7.96254e-05 2.43772e-15 -0.00203382 -1.42551e-15 0)
(0.0045325 -0.000285518 -5.97558e-15 -0.00191514 -2.94036e-16 0)
(0.00463274 8.24837e-05 -1.22862e-14 -0.00183339 -2.31716e-15 0)
(0.00435343 -0.000131981 -1.76978e-14 -0.001819 -1.04257e-15 0)
(0.00445011 0.000227453 -1.29401e-14 -0.00167504 3.57787e-15 0)
(0.00419478 5.18861e-06 -1.07074e-14 -0.00173558 3.48506e-15 0)
(0.00428846 0.000356937 -9.33943e-15 -0.00154627 5.29481e-15 0)
(0.00404609 0.000127221 -4.3959e-15 -0.00165596 2.80852e-15 0)
(0.00413658 0.000469647 2.26555e-15 -0.00143443 5.97395e-15 0)
(0.00390168 0.000234236 1.07673e-14 -0.00157522 2.91434e-15 0)
(0.00398918 0.00056714 9.49718e-15 -0.00133515 4.89669e-15 0)
(0.00375639 0.000327219 1.05523e-14 -0.00148978 2.02095e-16 0)
(0.0106233 -0.00338124 1.88133e-14 -0.00859485 -1.17961e-15 0)
(0.0100621 -0.00340844 2.36258e-14 -0.007976 -1.2807e-14 0)
(0.0101406 -0.00319296 1.61978e-14 -0.00802412 -7.92118e-15 0)
(0.00956366 -0.00319716 1.51851e-14 -0.00730444 -1.22667e-14 0)
(0.00964126 -0.00299223 1.60961e-15 -0.00744276 -1.16651e-14 0)
(0.00903756 -0.00297734 1.54824e-16 -0.0066125 -1.10393e-14 0)
(0.0091177 -0.0027736 -1.38752e-14 -0.00684365 -7.6562e-15 0)
(0.00848057 -0.00274489 -1.75944e-15 -0.00590085 -3.89576e-15 0)
(0.008566 -0.00253454 -4.84248e-15 -0.00622385 -1.25594e-15 0)
(0.00789494 -0.00249829 8.47846e-16 -0.00517739 -3.3658e-15 0)
(0.00798763 -0.00227524 -2.67278e-15 -0.00558588 3.82376e-15 0)
(0.00729307 -0.002238 -7.24486e-15 -0.00446243 9.76649e-16 0)
(0.00739399 -0.00199822 3.18647e-15 -0.00494168 4.44306e-15 0)
(0.00669624 -0.00196704 5.21718e-15 -0.003787 -8.46849e-15 0)
(0.00680494 -0.00170949 9.75695e-15 -0.00431122 3.40093e-15 0)
(0.00613999 -0.00169095 1.35959e-14 -0.00319955 -5.72806e-15 0)
(0.00625371 -0.00141963 2.00729e-14 -0.00372676 4.71715e-15 0)
(0.0056587 -0.00141945 2.38609e-14 -0.00273905 -5.89546e-15 0)
(0.00577342 -0.00114122 1.11493e-14 -0.00322035 4.01805e-15 0)
(0.00527031 -0.00116298 1.00276e-14 -0.00241329 -1.59681e-15 0)
(0.00538281 -0.000883443 9.13375e-15 -0.00281023 -4.26005e-15 0)
(0.00497357 -0.000928453 2.14583e-14 -0.00220329 -9.65937e-15 0)
(0.00508237 -0.000650029 1.75964e-14 -0.00249677 -9.03834e-15 0)
(0.00475408 -0.000717791 1.52294e-14 -0.00207786 -6.26235e-15 0)
(0.0048593 -0.000440092 7.63625e-15 -0.00226706 -4.40837e-15 0)
(0.00459199 -0.00052945 -2.30588e-15 -0.00200658 1.64322e-15 0)
(0.00469467 -0.000250488 -2.36595e-15 -0.00210197 6.68996e-15 0)
(0.00446777 -0.000360063 -3.22203e-15 -0.00196487 9.8194e-15 0)
(0.00456917 -7.7674e-05 -5.85751e-15 -0.0019819 4.66857e-15 0)
(0.00436343 -0.000206824 -8.97156e-15 -0.00193405 -1.43982e-15 0)
(0.00446465 8.05858e-05 -1.45452e-14 -0.00188912 -5.08274e-15 0)
(0.00426563 -6.72192e-05 -1.3353e-14 -0.00190199 -3.35149e-15 0)
(0.00436732 0.000225725 -1.43071e-14 -0.00180977 1.0404e-15 0)
(0.00416705 6.07169e-05 -1.33394e-14 -0.00186436 3.89359e-15 0)
(0.00426893 0.000357549 -4.62737e-15 -0.00173451 3.94389e-15 0)
(0.00406237 0.000176661 -7.71128e-15 -0.00181698 6.88598e-15 0)
(0.00416401 0.000475434 1.64539e-15 -0.00165821 2.63418e-15 0)
(0.00395084 0.000281472 -7.36195e-15 -0.00175983 7.4515e-15 0)
(0.00405102 0.000578323 4.25452e-15 -0.00157671 2.84972e-15 0)
(0.0038329 0.000373764 -4.05578e-15 -0.00169391 9.47072e-15 0)
(0.00978045 -0.00386055 9.18384e-15 -0.00778499 -1.99133e-14 0)
(0.00909953 -0.00380704 -8.91561e-15 -0.00697266 -1.62067e-14 0)
(0.00920872 -0.00357652 5.63221e-15 -0.00713948 -1.31796e-14 0)
(0.00850284 -0.00348894 -4.76095e-15 -0.00619554 -4.52719e-15 0)
(0.00861015 -0.00327527 3.76175e-15 -0.00647706 -3.41003e-15 0)
(0.00787743 -0.00315666 5.05672e-16 -0.00540027 -2.05998e-16 0)
(0.00798557 -0.00295387 8.318e-15 -0.00579813 -4.46648e-15 0)
(0.00723107 -0.00281058 2.07083e-15 -0.00460269 -7.83618e-15 0)
(0.00734178 -0.00261388 -2.57476e-15 -0.00510951 -9.01709e-15 0)
(0.00658377 -0.00245516 -5.48129e-15 -0.00383377 -1.5583e-14 0)
(0.00669742 -0.00226152 -6.3686e-15 -0.0044295 -1.1823e-14 0)
(0.00596592 -0.0020998 -4.49293e-15 -0.00313769 -1.58636e-14 0)
(0.00608127 -0.00190806 -3.07827e-15 -0.00378613 -1.47816e-14 0)
(0.00542701 -0.0017584 4.53153e-15 -0.0025817 -1.34922e-14 0)
(0.00553998 -0.00157136 1.66685e-14 -0.00322338 -1.53827e-14 0)
(0.00500612 -0.00144711 1.93758e-14 -0.00220477 -1.06967e-14 0)
(0.00511216 -0.0012683 1.99888e-14 -0.00277756 -1.07908e-14 0)
(0.00470986 -0.00117648 2.14954e-14 -0.00199085 -9.32414e-15 0)
(0.00480741 -0.00100538 2.37204e-14 -0.00245767 -9.28684e-15 0)
(0.00451943 -0.000946935 2.46164e-14 -0.00189542 -6.81616e-15 0)
(0.00461004 -0.000779175 2.21676e-14 -0.0022483 -4.3277e-15 0)
(0.00440478 -0.000751959 1.26375e-14 -0.00187132 2.33884e-15 0)
(0.00449181 -0.000581119 1.00584e-14 -0.00212185 -1.02566e-15 0)
(0.00433748 -0.000582366 -1.51723e-15 -0.00188422 8.67275e-15 0)
(0.00442419 -0.000402981 -5.3397e-15 -0.00205025 8.43206e-15 0)
(0.00429451 -0.00043023 -2.33299e-15 -0.00191068 1.2869e-14 0)
(0.00438351 -0.000238302 -1.93205e-16 -0.00200997 8.69357e-15 0)
(0.00425804 -0.000290076 4.84899e-15 -0.00193519 7.26632e-15 0)
(0.00435088 -8.36964e-05 -2.00621e-15 -0.00198253 2.26295e-15 0)
(0.00421647 -0.000158667 7.6176e-16 -0.00194886 -1.31362e-15 0)
(0.00431383 6.24755e-05 -6.09604e-15 -0.0019555 -3.49156e-15 0)
(0.00416755 -3.35735e-05 -3.88752e-15 -0.00195299 6.42715e-16 0)
(0.00426851 0.000199719 -1.09437e-14 -0.00192368 3.52149e-15 0)
(0.00410647 8.37078e-05 -1.15754e-14 -0.00194265 4.85853e-15 0)
(0.00421025 0.000326811 -1.64755e-14 -0.00188256 8.01616e-15 0)
(0.00403466 0.000193305 -1.21504e-14 -0.00192021 6.0672e-15 0)
(0.00413999 0.000443071 -1.12607e-14 -0.0018316 9.43256e-15 0)
(0.0039525 0.000294042 -6.01017e-15 -0.00188548 9.18406e-15 0)
(0.00405798 0.000546905 -9.54987e-15 -0.0017717 1.31965e-14 0)
(0.00386051 0.000384734 -5.9011e-15 -0.00183879 1.31579e-14 0)
(0.00875641 -0.00413127 -1.79553e-14 -0.00679721 -1.16699e-14 0)
(0.00792201 -0.00397005 -1.0492e-14 -0.00575748 -5.40323e-15 0)
(0.00807067 -0.00372435 -1.12848e-14 -0.0060576 -1.81972e-15 0)
(0.00721395 -0.0035187 -7.31229e-15 -0.00487223 -4.31946e-16 0)
(0.00735882 -0.0032973 -3.69409e-15 -0.00530285 -1.29237e-16 0)
(0.00649256 -0.00305594 -1.21431e-16 -0.00399573 -1.07336e-14 0)
(0.00663456 -0.00285572 -1.82016e-15 -0.00454663 -1.36917e-14 0)
(0.00578727 -0.00259257 -7.33788e-15 -0.00317042 -2.09897e-14 0)
(0.00592564 -0.00241175 -6.00735e-15 -0.00381668 -2.09797e-14 0)
(0.00514246 -0.00214483 3.43475e-16 -0.00245499 -1.86543e-14 0)
(0.00527351 -0.0019848 2.30762e-15 -0.003153 -1.69816e-14 0)
(0.00462782 -0.00173972 -1.51268e-15 -0.0019435 -1.10042e-14 0)
(0.00474393 -0.00160499 -8.39172e-16 -0.00261599 -8.9026e-15 0)
(0.00428306 -0.00140087 3.52713e-15 -0.00166526 -4.34939e-15 0)
(0.0043787 -0.00129295 1.20542e-14 -0.00224263 -4.93312e-15 0)
(0.00409074 -0.0011336 1.09821e-14 -0.00156329 -2.96204e-15 0)
(0.00416782 -0.00104581 2.02178e-14 -0.00202235 -7.68786e-15 0)
(0.00400731 -0.000925856 1.31084e-14 -0.00156537 -4.34071e-15 0)
(0.00407251 -0.000846892 1.5918e-14 -0.0019177 -3.86019e-15 0)
(0.00398752 -0.000759489 -1.1254e-15 -0.00161652 -4.61436e-16 0)
(0.00404853 -0.000677799 -2.14889e-16 -0.00188639 2.84104e-15 0)
(0.00400004 -0.000617996 -6.08021e-15 -0.00168817 -2.56826e-15 0)
(0.00406252 -0.000525367 -3.56963e-15 -0.00189574 6.61103e-15 0)
(0.00402274 -0.000490377 -6.80012e-15 -0.00176216 2.29721e-15 0)
(0.00409046 -0.000381511 -1.65536e-15 -0.00192231 9.13115e-15 0)
(0.00404086 -0.000369929 -3.21488e-15 -0.00182718 1.41597e-15 0)
(0.00411582 -0.000242311 1.2503e-15 -0.00194993 4.34158e-15 0)
(0.00404579 -0.000253273 -2.13588e-15 -0.00187705 1.80802e-15 0)
(0.00412867 -0.000106442 4.24075e-15 -0.00196887 1.30148e-15 0)
(0.00404156 -0.000138256 -1.36588e-15 -0.00191892 -8.23994e-17 0)
(0.00413094 2.51513e-05 -2.89395e-15 -0.00197908 1.15706e-15 0)
(0.00402149 -2.7312e-05 -1.01809e-14 -0.00194368 3.3259e-15 0)
(0.0041167 0.000150961 -1.17107e-14 -0.00197553 4.09004e-15 0)
(0.00398975 7.98114e-05 -9.52276e-15 -0.00195677 5.4466e-15 0)
(0.00408903 0.00026962 -5.68556e-15 -0.00195999 4.46214e-15 0)
(0.0039453 0.000181029 3.577e-15 -0.00195565 8.45244e-16 0)
(0.00404756 0.000380028 9.75565e-16 -0.00193225 2.91954e-15 0)
(0.00388888 0.00027553 3.16067e-15 -0.0019411 2.22912e-16 0)
(0.00399261 0.000480628 -1.26852e-15 -0.00189245 7.49661e-15 0)
(0.00382174 0.000362002 -3.69496e-16 -0.00191426 5.26489e-16 0)
(0.00754992 -0.00413482 -5.95184e-15 -0.00563494 -2.20093e-15 0)
(0.00655406 -0.00383333 -3.88101e-15 -0.00436052 -3.99767e-15 0)
(0.00674764 -0.00358092 -4.79174e-15 -0.00480004 -5.73977e-15 0)
(0.0057573 -0.00323873 -2.94946e-15 -0.0034122 -1.35087e-14 0)
(0.00594183 -0.00301956 -2.02789e-15 -0.00397245 -1.80004e-14 0)
(0.0049937 -0.00266056 -5.76752e-15 -0.00254192 -1.99129e-14 0)
(0.0051681 -0.00247134 -9.06089e-15 -0.00318955 -1.95386e-14 0)
(0.00431726 -0.00212536 -1.31514e-14 -0.0018204 -1.35183e-14 0)
(0.00447825 -0.00196373 -4.85939e-15 -0.00250431 -1.30876e-14 0)
(0.003833 -0.00167182 -3.51845e-15 -0.00137828 -8.94597e-15 0)
(0.00396605 -0.00154677 -1.86092e-15 -0.00199969 -9.05482e-15 0)
(0.00357361 -0.00132781 -8.24471e-15 -0.0012151 -8.05475e-15 0)
(0.00367069 -0.00124227 -3.17845e-15 -0.00170602 -5.59839e-15 0)
(0.00348013 -0.00108243 -3.54231e-15 -0.00120972 -3.23743e-15 0)
(0.00354775 -0.00102716 2.81285e-15 -0.00158014 -1.83447e-16 0)
(0.00348318 -0.000904585 -4.2787e-15 -0.00127131 2.30631e-15 0)
(0.00353299 -0.000866457 -1.77853e-15 -0.00156115 2.28463e-15 0)
(0.0035305 -0.000766252 -6.64703e-15 -0.00135517 5.33731e-15 0)
(0.00357314 -0.00073288 -7.239e-15 -0.00159856 1.52569e-15 0)
(0.00359744 -0.000648208 -9.6108e-15 -0.00144967 4.01935e-15 0)
(0.00363946 -0.000611345 -8.69617e-15 -0.00166324 -3.37447e-15 0)
(0.00366589 -0.000540549 -4.33681e-16 -0.00154381 -1.74643e-15 0)
(0.00371194 -0.000493738 -1.31514e-15 -0.00173554 -4.72756e-15 0)
(0.0037238 -0.000437837 2.38178e-15 -0.00162987 1.285e-15 0)
(0.00377705 -0.000376261 -4.92618e-15 -0.00180263 1.09114e-15 0)
(0.00376465 -0.000336621 -1.03216e-15 -0.00170235 2.79204e-15 0)
(0.00382678 -0.000257698 -2.56761e-15 -0.00185713 6.9866e-16 0)
(0.00379933 -0.000235285 -1.79674e-15 -0.00177482 2.62854e-15 0)
(0.00386898 -0.000140091 -6.49177e-15 -0.00190416 2.26338e-15 0)
(0.00381506 -0.000136181 -7.04515e-15 -0.00182854 4.37714e-15 0)
(0.00389281 -2.41916e-05 -8.77055e-15 -0.00193521 3.904e-15 0)
(0.00382069 -3.79797e-05 -3.68954e-15 -0.00187434 2.22782e-15 0)
(0.0039046 8.8142e-05 -3.6028e-15 -0.00195469 3.13725e-15 0)
(0.00381203 5.67658e-05 2.23216e-15 -0.00190519 -1.56689e-15 0)
(0.00390128 0.000195511 4.70977e-15 -0.00196032 -2.2842e-15 0)
(0.00379068 0.000147528 5.9115e-15 -0.00192278 -9.63812e-15 0)
(0.00388386 0.000296593 6.52646e-15 -0.00195259 -8.06993e-15 0)
(0.0037585 0.000233181 2.02681e-15 -0.00192849 -1.265e-14 0)
(0.00385376 0.000389612 -6.30138e-16 -0.00193238 -9.54228e-15 0)
(0.00371046 0.000311233 -1.05335e-14 -0.001916 -1.10979e-14 0)
(0.00618193 -0.00382601 -1.58424e-15 -0.004326 -9.61817e-15 0)
(0.00507278 -0.00336535 -1.71477e-15 -0.00287458 -1.34419e-14 0)
(0.00530645 -0.0031261 -2.29764e-15 -0.0034378 -1.51255e-14 0)
(0.00426822 -0.00266188 -1.15923e-15 -0.00197894 -1.47035e-14 0)
(0.00448294 -0.00246282 -5.52856e-15 -0.00261649 -1.50747e-14 0)
(0.00357966 -0.00203979 -8.0335e-15 -0.00127411 -1.32069e-14 0)
(0.00377218 -0.00187513 -1.22606e-14 -0.00192547 -1.24067e-14 0)
(0.00314569 -0.00157314 -1.35452e-14 -0.000950937 -1.15945e-14 0)
(0.00330263 -0.00143763 -1.27663e-14 -0.00147447 -8.72392e-15 0)
(0.00298311 -0.00126698 -1.37004e-14 -0.000933629 -9.42996e-15 0)
(0.00309508 -0.00116403 -1.02214e-14 -0.00127101 -8.64543e-15 0)
(0.00296588 -0.00107161 -9.91438e-15 -0.00100449 -6.68432e-15 0)
(0.00304683 -0.000992652 -8.01225e-15 -0.00122231 -3.76912e-15 0)
(0.00300929 -0.000931317 -9.02663e-15 -0.00108039 9.1073e-17 0)
(0.0030734 -0.000868548 -1.09522e-14 -0.00125147 2.97505e-15 0)
(0.00307666 -0.000814124 -1.19332e-14 -0.00115387 5.56933e-15 0)
(0.00313057 -0.000764216 -9.52754e-15 -0.00131427 7.68092e-15 0)
(0.00315913 -0.000707282 -1.04305e-14 -0.00123258 7.57901e-15 0)
(0.00320629 -0.000667581 -9.70014e-15 -0.00139578 7.37518e-15 0)
(0.00324441 -0.00060548 -3.83764e-15 -0.00131198 4.3251e-15 0)
(0.00328796 -0.000572378 3.98032e-15 -0.00148323 2.21394e-15 0)
(0.0033237 -0.0005066 6.71772e-15 -0.00138927 2.66454e-15 0)
(0.00336639 -0.000475939 5.42795e-15 -0.00156738 4.17678e-15 0)
(0.00338726 -0.000411207 1.15706e-15 -0.00146011 3.14722e-15 0)
(0.00343341 -0.00037615 1.65102e-15 -0.00164169 1.8245e-15 0)
(0.00345576 -0.000317895 -1.59595e-15 -0.00154752 3.73356e-15 0)
(0.00350448 -0.00027697 -3.52105e-15 -0.0017166 6.37121e-15 0)
(0.00350077 -0.000229682 -3.26475e-15 -0.00161679 8.12284e-15 0)
(0.00355675 -0.000176413 -2.29157e-15 -0.00177512 6.04985e-15 0)
(0.00354039 -0.000142261 5.6578e-15 -0.00168746 3.88231e-15 0)
(0.00360236 -7.69178e-05 4.77591e-15 -0.00182598 6.11924e-16 0)
(0.00356446 -5.75221e-05 6.88035e-15 -0.00174419 -5.43836e-16 0)
(0.00363293 2.06372e-05 3.37686e-15 -0.00186281 -3.25868e-15 0)
(0.00357639 2.49256e-05 2.87877e-15 -0.00179043 -3.61603e-15 0)
(0.0036503 0.000114805 3.05116e-15 -0.0018867 -9.02447e-15 0)
(0.00357855 0.000103917 1.11022e-15 -0.00182758 -6.17995e-15 0)
(0.00365634 0.000203777 -2.1684e-18 -0.0018986 -1.14717e-14 0)
(0.00356263 0.00017738 -1.15294e-15 -0.00184544 -4.5697e-15 0)
(0.00364369 0.000286087 -8.76339e-15 -0.00189261 -7.78067e-15 0)
(0.00353267 0.000245312 -3.25803e-15 -0.0018481 -1.32359e-15 0)
(0.0047208 -0.0031999 -7.59592e-15 -0.00294875 -1.31197e-14 0)
(0.00362011 -0.00261101 -1.68624e-14 -0.00147697 -1.02041e-14 0)
(0.00387507 -0.00240951 -9.25085e-15 -0.00211164 -1.03177e-14 0)
(0.0029443 -0.00190739 -9.50195e-15 -0.000820121 -9.38962e-15 0)
(0.00316858 -0.0017418 -3.7431e-15 -0.00143803 -1.21504e-14 0)
(0.0026615 -0.00146539 -9.5271e-15 -0.00070787 -9.21615e-15 0)
(0.00281142 -0.00134541 -1.50552e-14 -0.00107348 -9.64723e-15 0)
(0.00265045 -0.00124327 -1.70836e-14 -0.000811956 -4.15726e-15 0)
(0.00275316 -0.00114706 -1.62834e-14 -0.000990818 -7.07247e-15 0)
(0.00269852 -0.00110668 -1.5508e-14 -0.000890338 -2.14108e-15 0)
(0.00278943 -0.00101618 -1.2431e-14 -0.00102138 -2.92518e-15 0)
(0.00275432 -0.000993497 -1.18616e-14 -0.000960429 7.58508e-16 0)
(0.0028423 -0.000904062 -1.01906e-14 -0.00107777 5.20417e-16 0)
(0.00281201 -0.000888228 -1.03836e-14 -0.00103006 1.36609e-15 0)
(0.00289725 -0.000800712 -1.01993e-14 -0.00113934 3.53407e-15 0)
(0.00287045 -0.00078846 -5.2046e-15 -0.00109901 2.79247e-15 0)
(0.00295438 -0.000702608 -8.12154e-15 -0.00120816 4.97432e-15 0)
(0.00292681 -0.00069062 -2.00317e-15 -0.00116665 1.66273e-15 0)
(0.00300817 -0.000608404 9.37184e-16 -0.00127767 1.62717e-15 0)
(0.00298044 -0.000594429 4.47472e-15 -0.00123146 3.27863e-16 0)
(0.00305711 -0.000518536 2.28593e-15 -0.00134418 3.59044e-15 0)
(0.00303314 -0.000500659 7.64146e-16 -0.00129288 6.19296e-15 0)
(0.00310066 -0.000435926 1.29974e-15 -0.00140287 4.09308e-15 0)
(0.00309237 -0.000412084 -5.12177e-16 -0.00135258 4.20584e-15 0)
(0.0031578 -0.000353561 -3.67328e-15 -0.00148065 4.99297e-15 0)
(0.00314121 -0.00032193 -4.93269e-15 -0.00140799 7.17915e-15 0)
(0.00320098 -0.000272292 -2.49887e-15 -0.00154455 7.54388e-15 0)
(0.00319886 -0.000235717 4.68636e-15 -0.00147406 1.56602e-15 0)
(0.00325426 -0.000191915 1.11287e-14 -0.00161188 4.14165e-16 0)
(0.00324307 -0.000154975 1.58992e-14 -0.00153143 -4.0818e-15 0)
(0.00329876 -0.000110714 1.16634e-14 -0.00166878 -1.35872e-15 0)
(0.00327923 -7.80622e-05 8.74257e-15 -0.00158756 -2.5431e-15 0)
(0.00333671 -3.00098e-05 3.16327e-15 -0.00171728 -2.11029e-15 0)
(0.00331117 -4.60445e-06 3.1238e-15 -0.00164314 -4.38018e-15 0)
(0.0033698 4.78505e-05 9.37618e-16 -0.0017578 -3.39182e-15 0)
(0.00332439 6.34862e-05 -1.43375e-15 -0.00168222 -4.26135e-15 0)
(0.00338543 0.000122208 -2.23606e-15 -0.00178062 -8.14019e-16 0)
(0.00332429 0.000126555 -1.60679e-15 -0.00171031 -2.73653e-15 0)
(0.00338743 0.000191831 4.29734e-15 -0.00178888 -5.24754e-16 0)
(0.00331822 0.000184529 5.79398e-16 -0.00173227 -1.64452e-15 0)
(0.00330504 -0.002355 -2.33286e-14 -0.00163499 -5.66561e-15 0)
(0.00244027 -0.00180771 -2.12027e-14 -0.000490654 -2.01922e-15 0)
(0.00266764 -0.00165518 -1.46588e-14 -0.000981591 -5.96962e-15 0)
(0.00237052 -0.00147806 -7.54041e-15 -0.000590982 -3.95343e-15 0)
(0.00251638 -0.00135199 -8.06863e-15 -0.000776913 -4.80518e-15 0)
(0.00242743 -0.00131647 -8.48887e-15 -0.000681251 -2.53486e-15 0)
(0.00255763 -0.00120049 -1.21535e-14 -0.000831466 -1.86179e-15 0)
(0.00248749 -0.00117876 -1.07661e-14 -0.000762736 -1.19436e-15 0)
(0.0026054 -0.00107427 -1.51671e-14 -0.000901216 1.10762e-15 0)
(0.0025495 -0.00105559 -1.25841e-14 -0.000842646 3.93349e-16 0)
(0.00265734 -0.000960424 -1.24033e-14 -0.00097119 6.33174e-16 0)
(0.00261299 -0.000944238 -8.98283e-15 -0.000921216 -1.63368e-15 0)
(0.00271494 -0.00085405 -8.74778e-15 -0.00104172 -5.45137e-16 0)
(0.00267585 -0.000840944 -1.21873e-14 -0.000998181 -6.50088e-16 0)
(0.00277419 -0.000753337 -8.77597e-15 -0.00111159 7.25548e-16 0)
(0.00273604 -0.000743424 -3.51412e-15 -0.0010724 -3.7496e-15 0)
(0.0028322 -0.00065671 5.72242e-15 -0.00117851 -4.42485e-15 0)
(0.00279193 -0.000650445 6.48223e-15 -0.00114268 -4.64776e-15 0)
(0.0028862 -0.000564071 1.93292e-15 -0.00124044 4.84422e-16 0)
(0.00284292 -0.000561822 -1.00484e-15 -0.00120808 1.34051e-15 0)
(0.00293528 -0.000475647 2.77989e-16 -0.00129681 3.83634e-15 0)
(0.00288918 -0.000477546 -3.41741e-16 -0.00126836 2.91694e-15 0)
(0.00298055 -0.000391116 -1.53133e-15 -0.00135077 5.46221e-15 0)
(0.00292972 -0.000396286 -4.89322e-15 -0.0013235 3.36883e-15 0)
(0.00301707 -0.000312048 -4.97172e-15 -0.00139488 4.39102e-15 0)
(0.00296821 -0.000320592 -1.51094e-15 -0.00137383 4.85289e-16 0)
(0.00305582 -0.000236798 5.44573e-15 -0.00144862 -2.07993e-15 0)
(0.00300073 -0.000244463 9.33628e-15 -0.0014205 -6.81183e-15 0)
(0.00308212 -0.000167394 1.32841e-14 -0.00149353 -7.0239e-15 0)
(0.00303154 -0.000172054 1.16469e-14 -0.00146259 -8.66408e-15 0)
(0.00310703 -0.000102252 1.14258e-14 -0.00153798 -6.37164e-15 0)
(0.00305928 -0.000102771 1.46805e-14 -0.00150092 -9.26039e-15 0)
(0.00313241 -3.75927e-05 1.11057e-14 -0.00158515 -7.11584e-15 0)
(0.00307763 -3.43278e-05 1.12093e-14 -0.00153446 -6.89249e-15 0)
(0.0031452 2.44084e-05 1.73039e-16 -0.0016191 -4.76659e-15 0)
(0.00309103 2.9963e-05 -5.9449e-15 -0.00156347 -2.44119e-15 0)
(0.00315273 8.27519e-05 -6.53123e-15 -0.00164458 -3.7431e-15 0)
(0.00310631 8.89465e-05 -4.24574e-15 -0.00159313 -8.04044e-16 0)
(0.00316214 0.000136837 -2.35229e-15 -0.00166598 -9.25909e-16 0)
(0.0031141 0.000141464 -6.02296e-15 -0.0016149 1.85962e-15 0)
(0.00225825 -0.00166002 -1.42104e-14 -0.000588144 -1.57166e-15 0)
(0.00210987 -0.00158668 -8.50448e-15 -0.000438807 -2.51795e-15 0)
(0.002285 -0.00144584 -8.81326e-15 -0.000602513 -1.08117e-15 0)
(0.00217899 -0.00141689 -2.48846e-15 -0.000522144 -2.35619e-15 0)
(0.00234272 -0.00128857 -1.92901e-15 -0.000688974 -3.06179e-15 0)
(0.00225291 -0.00126241 -3.7483e-15 -0.000616287 -1.04691e-15 0)
(0.00240136 -0.00114746 -9.20054e-15 -0.000773295 6.72205e-17 0)
(0.00232774 -0.00112518 -5.89979e-15 -0.000710535 -2.2031e-16 0)
(0.00246245 -0.00102149 -5.34598e-15 -0.000855582 -2.1194e-15 0)
(0.00240196 -0.00100307 -2.28897e-15 -0.00080215 -1.96501e-15 0)
(0.00252542 -0.000908218 -6.63662e-15 -0.000935816 -1.57079e-15 0)
(0.00247454 -0.00089325 -6.97229e-15 -0.000890189 -1.63541e-15 0)
(0.00258982 -0.00080435 -1.27559e-14 -0.00101364 -1.75034e-15 0)
(0.00254423 -0.000792789 -1.10628e-14 -0.000974127 -8.23994e-17 0)
(0.00265364 -0.000707601 -5.26445e-15 -0.00108792 -3.3632e-15 0)