/*--------------------------------*- C++ -*----------------------------------*\
| =========                 |                                                 |
| \\      /  F ield         | OpenFOAM: The Open Source CFD Toolbox           |
|  \\    /   O peration     | Version:  v2012                                 |
|   \\  /    A nd           | Website:  www.openfoam.com                      |
|    \\/     M anipulation  |                                                 |
\*---------------------------------------------------------------------------*/
FoamFile
{
    version     2.0;
    format      ascii;
    class       volScalarField;
    location    "11";
    object      sigmaHyd;
}
// * * * * * * * * * * * * * * * * * * * * * * * * * * * * * * * * * * * * * //

dimensions      [1 -1 -2 0 0 0 0];


internalField   nonuniform List<scalar> 
8000
(
1.18395e+08
1.1427e+08
1.27979e+08
1.21227e+08
1.37271e+08
1.27386e+08
1.46087e+08
1.33255e+08
1.54387e+08
1.38983e+08
1.62177e+08
1.44607e+08
1.69462e+08
1.50136e+08
1.7623e+08
1.5553e+08
1.82427e+08
1.6072e+08
1.87975e+08
1.6555e+08
1.92712e+08
1.69825e+08
1.96439e+08
1.73279e+08
1.98951e+08
1.75617e+08
1.99996e+08
1.76588e+08
1.99404e+08
1.761e+08
1.97124e+08
1.74238e+08
1.93261e+08
1.71239e+08
1.88047e+08
1.67437e+08
1.81803e+08
1.63173e+08
1.74844e+08
1.58262e+08
1.21124e+08
1.1479e+08
1.28095e+08
1.23226e+08
1.35557e+08
1.30644e+08
1.43013e+08
1.37489e+08
1.5028e+08
1.43959e+08
1.57253e+08
1.50151e+08
1.6383e+08
1.56085e+08
1.69921e+08
1.61719e+08
1.7541e+08
1.66873e+08
1.80205e+08
1.71327e+08
1.84188e+08
1.74704e+08
1.87231e+08
1.76636e+08
1.89231e+08
1.7689e+08
1.90081e+08
1.75463e+08
1.89714e+08
1.72587e+08
1.88126e+08
1.68638e+08
1.85386e+08
1.6406e+08
1.81644e+08
1.59284e+08
1.77106e+08
1.5467e+08
1.71286e+08
1.50278e+08
1.21327e+08
1.16743e+08
1.27291e+08
1.25817e+08
1.33679e+08
1.341e+08
1.40108e+08
1.41795e+08
1.46384e+08
1.49007e+08
1.5237e+08
1.55775e+08
1.57943e+08
1.62018e+08
1.62977e+08
1.67552e+08
1.6739e+08
1.72064e+08
1.71078e+08
1.75119e+08
1.74019e+08
1.76294e+08
1.76162e+08
1.75452e+08
1.77472e+08
1.72796e+08
1.77926e+08
1.68782e+08
1.77525e+08
1.63963e+08
1.76306e+08
1.58846e+08
1.74328e+08
1.53818e+08
1.71644e+08
1.4912e+08
1.6823e+08
1.44758e+08
1.64291e+08
1.40791e+08
1.201e+08
1.192e+08
1.2569e+08
1.28755e+08
1.31305e+08
1.37779e+08
1.3678e+08
1.46254e+08
1.41989e+08
1.54111e+08
1.46804e+08
1.61186e+08
1.51123e+08
1.672e+08
1.54876e+08
1.71746e+08
1.58003e+08
1.74266e+08
1.60517e+08
1.74363e+08
1.6243e+08
1.72151e+08
1.63745e+08
1.68189e+08
1.64465e+08
1.63213e+08
1.64609e+08
1.57887e+08
1.64207e+08
1.52679e+08
1.63295e+08
1.47842e+08
1.61879e+08
1.43453e+08
1.59961e+08
1.39424e+08
1.57625e+08
1.3571e+08
1.54818e+08
1.32219e+08
1.18329e+08
1.21692e+08
1.23463e+08
1.31788e+08
1.28246e+08
1.41462e+08
1.32653e+08
1.50484e+08
1.36626e+08
1.58524e+08
1.40102e+08
1.65121e+08
1.43052e+08
1.69705e+08
1.45467e+08
1.71526e+08
1.47406e+08
1.70313e+08
1.48929e+08
1.6666e+08
1.50067e+08
1.61599e+08
1.50827e+08
1.56113e+08
1.51214e+08
1.50816e+08
1.51241e+08
1.46003e+08
1.50924e+08
1.41714e+08
1.50239e+08
1.37879e+08
1.4919e+08
1.34324e+08
1.47841e+08
1.30981e+08
1.46172e+08
1.27809e+08
1.44335e+08
1.24774e+08
1.16402e+08
1.24067e+08
1.20706e+08
1.34592e+08
1.2443e+08
1.44501e+08
1.276e+08
1.53322e+08
1.30216e+08
1.60417e+08
1.32295e+08
1.6498e+08
1.33883e+08
1.65977e+08
1.35135e+08
1.63412e+08
1.36185e+08
1.58609e+08
1.37068e+08
1.53067e+08
1.37768e+08
1.47785e+08
1.38248e+08
1.43107e+08
1.3848e+08
1.39057e+08
1.38456e+08
1.35499e+08
1.38154e+08
1.32277e+08
1.37569e+08
1.29182e+08
1.36782e+08
1.26223e+08
1.35782e+08
1.23343e+08
1.34656e+08
1.20576e+08
1.33366e+08
1.17934e+08
1.14287e+08
1.26264e+08
1.1743e+08
1.366e+08
1.19932e+08
1.45648e+08
1.21796e+08
1.52649e+08
1.23023e+08
1.56769e+08
1.23696e+08
1.56586e+08
1.2413e+08
1.52705e+08
1.24604e+08
1.47435e+08
1.25152e+08
1.42446e+08
1.25698e+08
1.38309e+08
1.26125e+08
1.34859e+08
1.26395e+08
1.31867e+08
1.26475e+08
1.29131e+08
1.26344e+08
1.2651e+08
1.25988e+08
1.2382e+08
1.25525e+08
1.21205e+08
1.24902e+08
1.1859e+08
1.24194e+08
1.16063e+08
1.23393e+08
1.1362e+08
1.22509e+08
1.1127e+08
1.11707e+08
1.27956e+08
1.1361e+08
1.36798e+08
1.14881e+08
1.43021e+08
1.15415e+08
1.4565e+08
1.15146e+08
1.43192e+08
1.14704e+08
1.3758e+08
1.14606e+08
1.32441e+08
1.14777e+08
1.29026e+08
1.15024e+08
1.26894e+08
1.15184e+08
1.25287e+08
1.15279e+08
1.23788e+08
1.1529e+08
1.22146e+08
1.15175e+08
1.20301e+08
1.14896e+08
1.18096e+08
1.14615e+08
1.1588e+08
1.14194e+08
1.13537e+08
1.13745e+08
1.11232e+08
1.13223e+08
1.08961e+08
1.12658e+08
1.0675e+08
1.1208e+08
1.04677e+08
1.08263e+08
1.28228e+08
1.09004e+08
1.33541e+08
1.08876e+08
1.3449e+08
1.07725e+08
1.28027e+08
1.06643e+08
1.19553e+08
1.06404e+08
1.14414e+08
1.0643e+08
1.12519e+08
1.06279e+08
1.12163e+08
1.0595e+08
1.12382e+08
1.05613e+08
1.12725e+08
1.05276e+08
1.12842e+08
1.04942e+08
1.12417e+08
1.04517e+08
1.11314e+08
1.04293e+08
1.09898e+08
1.03928e+08
1.08087e+08
1.03622e+08
1.06183e+08
1.03257e+08
1.04181e+08
1.02877e+08
1.0214e+08
1.02535e+08
1.00169e+08
1.02146e+08
9.82666e+07
1.03369e+08
1.25017e+08
1.02866e+08
1.23911e+08
1.00949e+08
1.13962e+08
1.0138e+08
1.07245e+08
1.02803e+08
1.05477e+08
1.03137e+08
1.04643e+08
1.02931e+08
1.03947e+08
1.02545e+08
1.03334e+08
1.01863e+08
1.02676e+08
1.00946e+08
1.02024e+08
9.99211e+07
1.01515e+08
9.90379e+07
1.01488e+08
9.78335e+07
1.01104e+08
9.66251e+07
1.00614e+08
9.58056e+07
9.98458e+07
9.50823e+07
9.86803e+07
9.4467e+07
9.73017e+07
9.40333e+07
9.57935e+07
9.36141e+07
9.41492e+07
9.32488e+07
9.25142e+07
9.74196e+07
1.13728e+08
9.83526e+07
1.03806e+08
1.01469e+08
1.01861e+08
1.00693e+08
1.00611e+08
9.94108e+07
9.95664e+07
9.8359e+07
9.86867e+07
9.76045e+07
9.78641e+07
9.69849e+07
9.70452e+07
9.64652e+07
9.62064e+07
9.60024e+07
9.53654e+07
9.55775e+07
9.45477e+07
9.5071e+07
9.36961e+07
9.46278e+07
9.30056e+07
9.37536e+07
9.21802e+07
9.2668e+07
9.15219e+07
9.15277e+07
9.09042e+07
9.02573e+07
9.0018e+07
8.90228e+07
8.9108e+07
8.79754e+07
8.82689e+07
8.72764e+07
8.74536e+07
9.74229e+07
9.74785e+07
9.81451e+07
9.66496e+07
9.64685e+07
9.54698e+07
9.49705e+07
9.4337e+07
9.3734e+07
9.33222e+07
9.27268e+07
9.24206e+07
9.19442e+07
9.15893e+07
9.13335e+07
9.08002e+07
9.08484e+07
9.00385e+07
9.04381e+07
8.92991e+07
9.00601e+07
8.85715e+07
8.97154e+07
8.78566e+07
8.92946e+07
8.71258e+07
8.89104e+07
8.63669e+07
8.84287e+07
8.55957e+07
8.78374e+07
8.48228e+07
8.72359e+07
8.41274e+07
8.66429e+07
8.35588e+07
8.5936e+07
8.30066e+07
8.51989e+07
8.26269e+07
9.42677e+07
9.14229e+07
9.15624e+07
9.00748e+07
8.98017e+07
8.88148e+07
8.84693e+07
8.76921e+07
8.74246e+07
8.67117e+07
8.66012e+07
8.58555e+07
8.59662e+07
8.50946e+07
8.54808e+07
8.44047e+07
8.5107e+07
8.37677e+07
8.48085e+07
8.31703e+07
8.45592e+07
8.26026e+07
8.43348e+07
8.20515e+07
8.41244e+07
8.15131e+07
8.3929e+07
8.09799e+07
8.37275e+07
8.04589e+07
8.35201e+07
7.99698e+07
8.32901e+07
7.95299e+07
8.30324e+07
7.91347e+07
8.28113e+07
7.87792e+07
8.25623e+07
7.84522e+07
8.60543e+07
8.42396e+07
8.39359e+07
8.27627e+07
8.24742e+07
8.15488e+07
8.14204e+07
8.05326e+07
8.06448e+07
7.96782e+07
8.00748e+07
7.89562e+07
7.96669e+07
7.83395e+07
7.93859e+07
7.78051e+07
7.9202e+07
7.73346e+07
7.90899e+07
7.69139e+07
7.9029e+07
7.6532e+07
7.90065e+07
7.61809e+07
7.90107e+07
7.58566e+07
7.90377e+07
7.55571e+07
7.9079e+07
7.52864e+07
7.91256e+07
7.50506e+07
7.91721e+07
7.48552e+07
7.92283e+07
7.4706e+07
7.93098e+07
7.46055e+07
7.94327e+07
7.4568e+07
7.63318e+07
7.61571e+07
7.51501e+07
7.48094e+07
7.4304e+07
7.37661e+07
7.37226e+07
7.29426e+07
7.33421e+07
7.22878e+07
7.31163e+07
7.17664e+07
7.30126e+07
7.13507e+07
7.30055e+07
7.10189e+07
7.30739e+07
7.07536e+07
7.32008e+07
7.05416e+07
7.33726e+07
7.0373e+07
7.35791e+07
7.02411e+07
7.38121e+07
7.01418e+07
7.40664e+07
7.00734e+07
7.4336e+07
7.00368e+07
7.46168e+07
7.00348e+07
7.49078e+07
7.00723e+07
7.52115e+07
7.01556e+07
7.55352e+07
7.02925e+07
7.58809e+07
7.04918e+07
6.57594e+07
6.74058e+07
6.55472e+07
6.6351e+07
6.54393e+07
6.5581e+07
6.54452e+07
6.5022e+07
6.55526e+07
6.46242e+07
6.57452e+07
6.43523e+07
6.6008e+07
6.418e+07
6.63281e+07
6.40868e+07
6.66942e+07
6.40572e+07
6.70968e+07
6.40791e+07
6.7528e+07
6.41435e+07
6.79815e+07
6.42438e+07
6.84523e+07
6.43755e+07
6.89362e+07
6.45361e+07
6.94301e+07
6.47245e+07
6.99312e+07
6.49418e+07
7.04377e+07
6.51912e+07
7.09489e+07
6.54781e+07
7.14653e+07
6.58096e+07
7.19877e+07
6.61934e+07
5.47459e+07
5.8204e+07
5.54482e+07
5.75359e+07
5.60961e+07
5.711e+07
5.67319e+07
5.68687e+07
5.73738e+07
5.677e+07
5.80286e+07
5.67828e+07
5.86975e+07
5.68837e+07
5.93795e+07
5.70549e+07
6.00725e+07
5.72828e+07
6.07741e+07
5.75566e+07
6.14819e+07
5.78683e+07
6.21937e+07
5.82113e+07
6.29079e+07
5.85805e+07
6.36228e+07
5.89717e+07
6.4337e+07
5.93817e+07
6.50486e+07
5.98082e+07
6.57554e+07
6.02503e+07
6.64543e+07
6.07101e+07
6.71426e+07
6.11945e+07
6.78188e+07
6.17162e+07
4.35605e+07
4.87407e+07
4.51014e+07
4.85066e+07
4.64753e+07
4.84658e+07
4.77385e+07
4.85754e+07
4.89259e+07
4.88025e+07
5.00594e+07
4.91219e+07
5.11526e+07
4.95147e+07
5.22143e+07
4.99662e+07
5.325e+07
5.04653e+07
5.42636e+07
5.10034e+07
5.52575e+07
5.15734e+07
5.62335e+07
5.21697e+07
5.71931e+07
5.27868e+07
5.81375e+07
5.34194e+07
5.90672e+07
5.40612e+07
5.99822e+07
5.47044e+07
6.08809e+07
5.53399e+07
6.17588e+07
5.59588e+07
6.26078e+07
5.65592e+07
6.34174e+07
5.71601e+07
3.23959e+07
3.91738e+07
3.46949e+07
3.93903e+07
3.67448e+07
3.97516e+07
3.86079e+07
4.02267e+07
4.03285e+07
4.07913e+07
4.19376e+07
4.14265e+07
4.34576e+07
4.21181e+07
4.49043e+07
4.28552e+07
4.62895e+07
4.363e+07
4.76217e+07
4.44367e+07
4.89073e+07
4.52712e+07
5.01511e+07
4.61303e+07
5.1357e+07
4.70111e+07
5.25281e+07
4.791e+07
5.36666e+07
4.8821e+07
5.47745e+07
4.97335e+07
5.58522e+07
5.0628e+07
5.68958e+07
5.1471e+07
5.78908e+07
5.22136e+07
5.87997e+07
5.28305e+07
2.13958e+07
2.96327e+07
2.43714e+07
3.02964e+07
2.70381e+07
3.10588e+07
2.94608e+07
3.18987e+07
3.16882e+07
3.2799e+07
3.37573e+07
3.37463e+07
3.56959e+07
3.47306e+07
3.75254e+07
3.57448e+07
3.92623e+07
3.67844e+07
4.09193e+07
3.78473e+07
4.25062e+07
3.89339e+07
4.403e+07
4.00469e+07
4.54958e+07
4.1192e+07
4.69064e+07
4.23781e+07
4.82622e+07
4.3618e+07
4.95613e+07
4.49277e+07
5.07984e+07
4.63237e+07
5.19627e+07
4.78067e+07
5.30244e+07
4.92989e+07
5.38698e+07
5.03964e+07
1.06655e+07
2.02225e+07
1.42368e+07
2.13169e+07
1.74577e+07
2.24682e+07
2.03921e+07
2.36625e+07
2.30908e+07
2.48877e+07
2.55938e+07
2.61343e+07
2.79332e+07
2.73945e+07
3.01353e+07
2.86624e+07
3.22215e+07
2.99333e+07
3.42106e+07
3.12037e+07
3.61192e+07
3.2471e+07
3.7963e+07
3.37328e+07
3.97579e+07
3.49874e+07
4.15217e+07
3.62331e+07
4.3276e+07
3.74689e+07
4.505e+07
3.86963e+07
4.68891e+07
3.99269e+07
4.88761e+07
4.12093e+07
5.11987e+07
4.27314e+07
5.43823e+07
4.52164e+07
276109
1.10246e+07
4.36748e+06
1.25282e+07
8.0796e+06
1.40531e+07
1.14734e+07
1.55907e+07
1.45989e+07
1.71333e+07
1.74967e+07
1.86745e+07
2.02004e+07
2.02091e+07
2.2738e+07
2.17334e+07
2.51327e+07
2.32443e+07
2.74045e+07
2.474e+07
2.95707e+07
2.62196e+07
3.16466e+07
2.76828e+07
3.36463e+07
2.91308e+07
3.55828e+07
3.05664e+07
3.74685e+07
3.19953e+07
3.93144e+07
3.34289e+07
4.1126e+07
3.48865e+07
4.28873e+07
3.63943e+07
4.44916e+07
3.79411e+07
4.54623e+07
3.92024e+07
-9.72727e+06
2.09683e+06
-5.17993e+06
3.98532e+06
-1.03236e+06
5.86543e+06
2.77256e+06
7.7321e+06
6.28282e+06
9.5807e+06
9.53867e+06
1.14074e+07
1.25739e+07
1.32094e+07
1.54168e+07
1.49844e+07
1.80914e+07
1.67313e+07
2.06179e+07
1.84495e+07
2.30134e+07
2.01394e+07
2.52922e+07
2.18021e+07
2.7466e+07
2.34393e+07
2.95436e+07
2.50538e+07
3.15298e+07
2.66487e+07
3.34233e+07
2.82257e+07
3.52122e+07
2.97803e+07
3.68689e+07
3.12898e+07
3.83646e+07
3.27001e+07
3.98175e+07
3.40032e+07
-1.93156e+07
-6.51931e+06
-1.43643e+07
-4.27048e+06
-9.82865e+06
-2.05484e+06
-5.65506e+06
124751
-1.79756e+06
2.26577e+06
1.78314e+06
4.36625e+06
5.1205e+06
6.42484e+06
8.24295e+06
8.44083e+06
1.11746e+07
1.04141e+07
1.39359e+07
1.2345e+07
1.65438e+07
1.42342e+07
1.90124e+07
1.60828e+07
2.13528e+07
1.78918e+07
2.35731e+07
1.96615e+07
2.56783e+07
2.13906e+07
2.76702e+07
2.3075e+07
2.955e+07
2.47056e+07
3.13246e+07
2.62705e+07
3.30191e+07
2.77649e+07
3.46477e+07
2.91876e+07
-2.84686e+07
-1.4793e+07
-2.31547e+07
-1.22072e+07
-1.82702e+07
-9.67563e+06
-1.3764e+07
-7.19997e+06
-9.59197e+06
-4.78142e+06
-5.7155e+06
-2.42069e+06
-2.10154e+06
-117998
1.27837e+06
2.12689e+06
4.44857e+06
4.31456e+06
7.42985e+06
6.44584e+06
1.02398e+07
8.52164e+06
1.28932e+07
1.05427e+07
1.54024e+07
1.25095e+07
1.77777e+07
1.44214e+07
2.00277e+07
1.6277e+07
2.2161e+07
1.80737e+07
2.41873e+07
1.98087e+07
2.61186e+07
2.14807e+07
2.79651e+07
2.30901e+07
2.9735e+07
2.46388e+07
-3.71692e+07
-2.26999e+07
-3.1526e+07
-1.97984e+07
-2.63251e+07
-1.69696e+07
-2.15171e+07
-1.42146e+07
-1.70587e+07
-1.15337e+07
-1.29118e+07
-8.92675e+06
-9.04365e+06
-6.39312e+06
-5.42553e+06
-3.93186e+06
-2.0327e+06
-1.5418e+06
1.15627e+06
778370
4.15989e+06
3.02988e+06
6.99419e+06
5.21381e+06
9.67321e+06
7.33092e+06
1.22094e+07
9.38163e+06
1.46143e+07
1.13661e+07
1.68987e+07
1.32847e+07
1.90734e+07
1.5138e+07
2.11476e+07
1.69275e+07
2.313e+07
1.86552e+07
2.50274e+07
2.03238e+07
-4.54009e+07
-3.02182e+07
-3.9456e+07
-2.70204e+07
-3.39663e+07
-2.39121e+07
-2.88829e+07
-2.08939e+07
-2.41628e+07
-1.79655e+07
-1.97682e+07
-1.51261e+07
-1.5666e+07
-1.23744e+07
-1.18273e+07
-9.70886e+06
-8.22672e+06
-7.12754e+06
-4.84218e+06
-4.62859e+06
-1.65423e+06
-2.2101e+06
1.35429e+06
129721
4.19865e+06
2.39261e+06
6.89259e+06
4.58023e+06
9.4486e+06
6.69433e+06
1.18781e+07
8.73682e+06
1.41913e+07
1.07099e+07
1.63973e+07
1.26159e+07
1.85044e+07
1.44578e+07
2.05194e+07
1.62385e+07
-5.31457e+07
-3.73278e+07
-4.69235e+07
-3.38513e+07
-4.11695e+07
-3.04798e+07
-3.58344e+07
-2.72136e+07
-3.0875e+07
-2.40521e+07
-2.62534e+07
-2.09937e+07
-2.19361e+07
-1.80364e+07
-1.78936e+07
-1.5178e+07
-1.41002e+07
-1.24158e+07
-1.05331e+07
-9.74727e+06
-7.17203e+06
-7.16969e+06
-3.99915e+06
-4.68038e+06
-998437
-2.27666e+06
1.84444e+06
44184.1
4.54238e+06
2.28492e+06
7.10693e+06
4.44839e+06
9.54845e+06
6.53756e+06
1.18762e+07
8.55546e+06
1.40984e+07
1.05052e+07
1.62224e+07
1.23901e+07
-6.03841e+07
-4.40084e+07
-5.39076e+07
-4.02693e+07
-4.7912e+07
-3.66502e+07
-4.23473e+07
-3.31508e+07
-3.71698e+07
-2.977e+07
-3.23409e+07
-2.65056e+07
-2.78267e+07
-2.33549e+07
-2.35973e+07
-2.03147e+07
-1.96264e+07
-1.73818e+07
-1.58906e+07
-1.45528e+07
-1.23692e+07
-1.18242e+07
-9.04389e+06
-9.19249e+06
-5.89816e+06
-6.65417e+06
-2.91732e+06
-4.20577e+06
-88218.9
-1.8438e+06
2.60094e+06
435196
5.16072e+06
2.63468e+06
7.60059e+06
4.75809e+06
9.92903e+06
6.80883e+06
1.21537e+07
8.79024e+06
-6.70951e+07
-5.02397e+07
-6.03871e+07
-4.62536e+07
-5.41723e+07
-4.24017e+07
-4.83996e+07
-3.86836e+07
-4.30245e+07
-3.50972e+07
-3.80077e+07
-3.16397e+07
-3.33147e+07
-2.83075e+07
-2.89152e+07
-2.50969e+07
-2.47825e+07
-2.20036e+07
-2.08926e+07
-1.90236e+07
-1.72247e+07
-1.61527e+07
-1.37598e+07
-1.33865e+07
-1.04813e+07
-1.0721e+07
-7.37421e+06
-8.15201e+06
-4.42504e+06
-5.67561e+06
-1.62181e+06
-3.28783e+06
1.04629e+06
-984837
3.58898e+06
1.23713e+06
6.01498e+06
3.38171e+06
8.33221e+06
5.45243e+06
-7.32566e+07
-5.60014e+07
-6.63408e+07
-5.17835e+07
-5.99296e+07
-4.77139e+07
-5.39708e+07
-4.37913e+07
-4.84186e+07
-4.00131e+07
-4.32333e+07
-3.63755e+07
-3.83798e+07
-3.28743e+07
-3.38273e+07
-2.95047e+07
-2.95486e+07
-2.62619e+07
-2.55197e+07
-2.3141e+07
-2.17192e+07
-2.01369e+07
-1.81282e+07
-1.7245e+07
-1.47295e+07
-1.44605e+07
-1.15079e+07
-1.17789e+07
-8.44987e+06
-9.1956e+06
-5.54308e+06
-6.70644e+06
-2.7765e+06
-4.30721e+06
-140195
-1.99391e+06
2.3748e+06
237348
4.77662e+06
2.3903e+06
-7.88462e+07
-6.12737e+07
-7.17478e+07
-5.68394e+07
-6.51641e+07
-5.25671e+07
-5.90416e+07
-4.84549e+07
-5.33335e+07
-4.44991e+07
-4.79994e+07
-4.06951e+07
-4.30037e+07
-3.70376e+07
-3.83153e+07
-3.35212e+07
-3.39068e+07
-3.014e+07
-2.97539e+07
-2.68886e+07
-2.58352e+07
-2.37614e+07
-2.21313e+07
-2.0753e+07
-1.8625e+07
-1.78582e+07
-1.5301e+07
-1.50722e+07
-1.21454e+07
-1.239e+07
-9.14556e+06
-9.80718e+06
-6.29036e+06
-7.31921e+06
-3.56962e+06
-4.92187e+06
-974179
-2.61109e+06
1.50427e+06
-382916
-8.38416e+07
-6.60378e+07
-7.6588e+07
-6.1403e+07
-6.98575e+07
-5.69438e+07
-6.35949e+07
-5.26573e+07
-5.77527e+07
-4.85389e+07
-5.22897e+07
-4.45827e+07
-4.71702e+07
-4.07825e+07
-4.2363e+07
-3.71317e+07
-3.78407e+07
-3.3624e+07
-3.3579e+07
-3.02529e+07
-2.95561e+07
-2.70126e+07
-2.57529e+07
-2.38972e+07
-2.21519e+07
-2.09012e+07
-1.87375e+07
-1.80193e+07
-1.54956e+07
-1.52464e+07
-1.24134e+07
-1.25777e+07
-9.47958e+06
-1.00084e+07
-6.68367e+06
-7.53434e+06
-4.01636e+06
-5.1511e+06
-1.46924e+06
-2.85462e+06
-8.82208e+07
-7.02767e+07
-8.08429e+07
-6.5458e+07
-7.39936e+07
-6.08285e+07
-6.7616e+07
-5.63844e+07
-6.1662e+07
-5.21194e+07
-5.60902e+07
-4.80264e+07
-5.08652e+07
-4.40975e+07
-4.5956e+07
-4.03251e+07
-4.13355e+07
-3.67023e+07
-3.69797e+07
-3.32223e+07
-3.28671e+07
-2.98789e+07
-2.89781e+07
-2.66661e+07
-2.52952e+07
-2.3578e+07
-2.18027e+07
-2.06089e+07
-1.84861e+07
-1.77535e+07
-1.53326e+07
-1.50067e+07
-1.23303e+07
-1.23637e+07
-9.46864e+06
-9.81987e+06
-6.73816e+06
-7.37102e+06
-4.13032e+06
-5.01299e+06
-9.19619e+07
-7.39767e+07
-8.44963e+07
-6.89909e+07
-7.75598e+07
-6.42094e+07
-7.1094e+07
-5.96265e+07
-6.50507e+07
-5.52332e+07
-5.93893e+07
-5.10195e+07
-5.40758e+07
-4.69754e+07
-4.90805e+07
-4.30932e+07
-4.43773e+07
-3.93658e+07
-3.99424e+07
-3.57869e+07
-3.57542e+07
-3.23502e+07
-3.17932e+07
-2.90495e+07
-2.80417e+07
-2.58785e+07
-2.44836e+07
-2.28313e+07
-2.11043e+07
-1.99019e+07
-1.78907e+07
-1.7085e+07
-1.48305e+07
-1.43753e+07
-1.1913e+07
-1.17684e+07
-9.12833e+06
-9.2602e+06
-6.4677e+06
-6.84685e+06
-9.50428e+07
-7.71303e+07
-8.75372e+07
-7.19939e+07
-8.05506e+07
-6.70825e+07
-7.40242e+07
-6.23846e+07
-6.79116e+07
-5.78837e+07
-6.21764e+07
-5.35629e+07
-5.67893e+07
-4.94134e+07
-5.17234e+07
-4.54295e+07
-4.69529e+07
-4.1606e+07
-4.24541e+07
-3.79371e+07
-3.82052e+07
-3.44165e+07
-3.41863e+07
-3.10376e+07
-3.03795e+07
-2.77937e+07
-2.67686e+07
-2.4678e+07
-2.3339e+07
-2.1684e+07
-2.0077e+07
-1.88054e+07
-1.69704e+07
-1.60366e+07
-1.40076e+07
-1.33727e+07
-1.11782e+07
-1.08097e+07
-8.47286e+06
-8.34547e+06
-9.74422e+07
-7.97421e+07
-8.99674e+07
-7.44723e+07
-8.29748e+07
-6.94672e+07
-7.64093e+07
-6.46906e+07
-7.02354e+07
-6.00908e+07
-6.44371e+07
-5.56624e+07
-5.89914e+07
-5.14073e+07
-5.38715e+07
-4.73249e+07
-4.90508e+07
-4.34113e+07
-4.45045e+07
-3.96607e+07
-4.02102e+07
-3.6066e+07
-3.61477e+07
-3.26198e+07
-3.22991e+07
-2.93143e+07
-2.86482e+07
-2.61419e+07
-2.51804e+07
-2.30947e+07
-2.18821e+07
-2.01653e+07
-1.8741e+07
-1.73464e+07
-1.57449e+07
-1.46314e+07
-1.2882e+07
-1.20157e+07
-1.0141e+07
-9.49888e+06
-9.91515e+07
-8.18398e+07
-9.18289e+07
-7.64827e+07
-8.48688e+07
-7.15009e+07
-7.82327e+07
-6.6614e+07
-7.19952e+07
-6.18726e+07
-6.61502e+07
-5.73113e+07
-6.06677e+07
-5.29409e+07
-5.55155e+07
-4.87602e+07
-5.0664e+07
-4.47627e+07
-4.60876e+07
-4.09401e+07
-4.17634e+07
-3.72832e+07
-3.76715e+07
-3.3783e+07
-3.3794e+07
-3.04303e+07
-3.0115e+07
-2.72162e+07
-2.66202e+07
-2.41318e+07
-2.32968e+07
-2.11678e+07
-2.01328e+07
-1.83141e+07
-1.71164e+07
-1.55596e+07
-1.4235e+07
-1.28924e+07
-1.14723e+07
-1.03049e+07
-1.00272e+08
-8.3475e+07
-9.33264e+07
-7.86953e+07
-8.61342e+07
-7.33707e+07
-7.94118e+07
-6.81626e+07
-7.31539e+07
-6.319e+07
-6.73043e+07
-5.8464e+07
-6.18172e+07
-5.39725e+07
-5.66571e+07
-4.96996e+07
-5.17946e+07
-4.56299e+07
-4.72048e+07
-4.17495e+07
-4.28657e+07
-3.8046e+07
-3.87576e+07
-3.45084e+07
-3.48631e+07
-3.11265e+07
-3.11665e+07
-2.7891e+07
-2.76538e+07
-2.47926e+07
-2.43129e+07
-2.18217e+07
-2.11334e+07
-1.89667e+07
-1.81063e+07
-1.62111e+07
-1.52232e+07
-1.3525e+07
-1.24683e+07
-1.0841e+07
-1.02148e+08
-8.87902e+07
-9.36529e+07
-8.12679e+07
-8.64999e+07
-7.4866e+07
-7.99156e+07
-6.91487e+07
-7.37438e+07
-6.39048e+07
-6.79378e+07
-5.90203e+07
-6.24704e+07
-5.44286e+07
-5.73178e+07
-5.00876e+07
-5.2457e+07
-4.59688e+07
-4.78663e+07
-4.20517e+07
-4.3525e+07
-3.83208e+07
-3.9414e+07
-3.47639e+07
-3.55157e+07
-3.13717e+07
-3.18136e+07
-2.81367e+07
-2.82925e+07
-2.50541e+07
-2.49387e+07
-2.21216e+07
-2.17398e+07
-1.93403e+07
-1.86874e+07
-1.67162e+07
-1.57822e+07
-1.42633e+07
-1.30522e+07
-1.20105e+07
-9.20226e+06
-4.59283e+06
-1.0068e+07
-3.71546e+06
-1.0121e+07
-2.43563e+06
-9.7983e+06
-795530
-9.16586e+06
1.19542e+06
-8.23991e+06
3.52686e+06
-7.02751e+06
6.18649e+06
-5.53407e+06
9.16011e+06
-3.76502e+06
1.24314e+07
-1.72613e+06
1.59813e+07
576569
1.97881e+07
3.13718e+06
2.38263e+07
5.95059e+06
2.8066e+07
9.01355e+06
3.24724e+07
1.23267e+07
3.70035e+07
1.58985e+07
4.16084e+07
1.97531e+07
4.62239e+07
2.39487e+07
5.07691e+07
2.86298e+07
5.5141e+07
3.42224e+07
5.92098e+07
-3.34504e+06
741392
-3.74496e+06
1.47617e+06
-3.82743e+06
2.59104e+06
-3.61784e+06
4.0358e+06
-3.14326e+06
5.79454e+06
-2.41699e+06
7.85684e+06
-1.44663e+06
1.02124e+07
-237782
1.28501e+07
1.20447e+06
1.57571e+07
2.87502e+06
1.89189e+07
4.76859e+06
2.23188e+07
6.87978e+06
2.59377e+07
9.20337e+06
2.97535e+07
1.17349e+07
3.37406e+07
1.44717e+07
3.78689e+07
1.74149e+07
4.21029e+07
2.05735e+07
4.63989e+07
2.39732e+07
5.07003e+07
2.76785e+07
5.49263e+07
3.18731e+07
5.89375e+07
2.13344e+06
5.52955e+06
1.87731e+06
6.193e+06
1.80552e+06
7.17735e+06
1.95403e+06
8.45489e+06
2.32126e+06
1.00121e+07
2.90186e+06
1.18398e+07
3.69086e+06
1.39298e+07
4.68378e+06
1.62732e+07
5.87628e+06
1.88603e+07
7.26391e+06
2.16799e+07
8.84198e+06
2.47195e+07
1.06056e+07
2.79644e+07
1.25499e+07
3.13977e+07
1.467e+07
3.50002e+07
1.69621e+07
3.87492e+07
1.94243e+07
4.26182e+07
2.20588e+07
4.6575e+07
2.48775e+07
5.05793e+07
2.79145e+07
5.45755e+07
3.12701e+07
5.84735e+07
7.15482e+06
9.88876e+06
6.94232e+06
1.04974e+07
6.87854e+06
1.13743e+07
6.99069e+06
1.25082e+07
7.28448e+06
1.38902e+07
7.75927e+06
1.55135e+07
8.41259e+06
1.73715e+07
9.2414e+06
1.94575e+07
1.02423e+07
2.17641e+07
1.14114e+07
2.4283e+07
1.27449e+07
2.70044e+07
1.42382e+07
2.99174e+07
1.58868e+07
3.30093e+07
1.7686e+07
3.62651e+07
1.96314e+07
3.96676e+07
2.17194e+07
4.31967e+07
2.39491e+07
4.68282e+07
2.63246e+07
5.05323e+07
2.88633e+07
5.427e+07
3.16191e+07
5.79825e+07
1.17278e+07
1.38828e+07
1.15316e+07
1.44395e+07
1.14709e+07
1.52245e+07
1.15588e+07
1.62343e+07
1.18008e+07
1.74641e+07
1.21979e+07
1.8909e+07
1.27491e+07
2.05644e+07
1.34524e+07
2.24251e+07
1.43054e+07
2.44857e+07
1.5305e+07
2.674e+07
1.64477e+07
2.91808e+07
1.77297e+07
3.17997e+07
1.91468e+07
3.45872e+07
2.06945e+07
3.7532e+07
2.23683e+07
4.06209e+07
2.4164e+07
4.38386e+07
2.60786e+07
4.71665e+07
2.81121e+07
5.05825e+07
3.02716e+07
5.40579e+07
3.25846e+07
5.75526e+07
1.58886e+07
1.75537e+07
1.57037e+07
1.806e+07
1.56442e+07
1.87644e+07
1.57149e+07
1.96664e+07
1.59191e+07
2.07635e+07
1.6258e+07
2.20527e+07
1.67313e+07
2.35307e+07
1.73378e+07
2.5194e+07
1.80757e+07
2.70386e+07
1.89425e+07
2.90599e+07
1.99355e+07
3.12527e+07
2.10512e+07
3.36108e+07
2.22859e+07
3.61271e+07
2.36356e+07
3.87933e+07
2.50958e+07
4.15992e+07
2.66621e+07
4.45332e+07
2.83305e+07
4.75812e+07
3.00987e+07
5.07263e+07
3.1968e+07
5.39472e+07
3.39508e+07
5.72152e+07
1.96794e+07
2.09345e+07
1.95063e+07
2.13929e+07
1.94482e+07
2.20256e+07
1.95063e+07
2.28331e+07
1.96822e+07
2.38142e+07
1.99766e+07
2.49671e+07
2.03895e+07
2.62897e+07
2.09202e+07
2.77795e+07
2.15673e+07
2.94339e+07
2.23291e+07
3.12496e+07
2.32031e+07
3.32228e+07
2.41868e+07
3.53493e+07
2.52767e+07
3.76238e+07
2.64692e+07
4.00401e+07
2.77603e+07
4.25909e+07
2.91455e+07
4.52671e+07
3.06208e+07
4.80582e+07
3.21823e+07
5.09513e+07
3.38284e+07
5.39304e+07
3.5563e+07
5.69745e+07
2.31402e+07
2.40528e+07
2.298e+07
2.44667e+07
2.29244e+07
2.50356e+07
2.29732e+07
2.57598e+07
2.31272e+07
2.66389e+07
2.33868e+07
2.76721e+07
2.37519e+07
2.88579e+07
2.42221e+07
3.0195e+07
2.47966e+07
3.16814e+07
2.54739e+07
3.33151e+07
2.62524e+07
3.50936e+07
2.71297e+07
3.70138e+07
2.81032e+07
3.90722e+07
2.91696e+07
4.12642e+07
3.03254e+07
4.35845e+07
3.15666e+07
4.60266e+07
3.28889e+07
4.85825e+07
3.42882e+07
5.12424e+07
3.57613e+07
5.39944e+07
3.73078e+07
5.68228e+07
2.63072e+07
2.69334e+07
2.61602e+07
2.73066e+07
2.6108e+07
2.78184e+07
2.61501e+07
2.84689e+07
2.62868e+07
2.92581e+07
2.65183e+07
3.01856e+07
2.68446e+07
3.12506e+07
2.72656e+07
3.24525e+07
2.77807e+07
3.37901e+07
2.8389e+07
3.52622e+07
2.90892e+07
3.68672e+07
2.98796e+07
3.86032e+07
3.07579e+07
4.04678e+07
3.17217e+07
4.24581e+07
3.27677e+07
4.45701e+07
3.38925e+07
4.67992e+07
3.50922e+07
4.91397e+07
3.63627e+07
5.15842e+07
3.77001e+07
5.41239e+07
3.9102e+07
5.67473e+07
2.9212e+07
2.95983e+07
2.9078e+07
2.99348e+07
2.90298e+07
3.03955e+07
2.90669e+07
3.09805e+07
2.91894e+07
3.16899e+07
2.93976e+07
3.25237e+07
2.96917e+07
3.34816e+07
3.00716e+07
3.45633e+07
3.05371e+07
3.57684e+07
3.10877e+07
3.70963e+07
3.17225e+07
3.85463e+07
3.24403e+07
4.01171e+07
3.32394e+07
4.18075e+07
3.41179e+07
4.36156e+07
3.50731e+07
4.55387e+07
3.61022e+07
4.75738e+07
3.72016e+07
4.97168e+07
3.83678e+07
5.19625e+07
3.95968e+07
5.43043e+07
4.08853e+07
5.67338e+07
3.18823e+07
3.20677e+07
3.17607e+07
3.23712e+07
3.17165e+07
3.27861e+07
3.17496e+07
3.33126e+07
3.18603e+07
3.39509e+07
3.20487e+07
3.47011e+07
3.23151e+07
3.55634e+07
3.26598e+07
3.65378e+07
3.30828e+07
3.76245e+07
3.3584e+07
3.88232e+07
3.41628e+07
4.01339e+07
3.48186e+07
4.15561e+07
3.55502e+07
4.30891e+07
3.63561e+07
4.47321e+07
3.72345e+07
4.64834e+07
3.81828e+07
4.83412e+07
3.91983e+07
5.03028e+07
4.02779e+07
5.23645e+07
4.1418e+07
5.45218e+07
4.26151e+07
5.67686e+07
3.43425e+07
3.43598e+07
3.42322e+07
3.46337e+07
3.41919e+07
3.50076e+07
3.42217e+07
3.54816e+07
3.43219e+07
3.60562e+07
3.44928e+07
3.67315e+07
3.4735e+07
3.75081e+07
3.50487e+07
3.83862e+07
3.54343e+07
3.93663e+07
3.5892e+07
4.04486e+07
3.64217e+07
4.16336e+07
3.70232e+07
4.29212e+07
3.76957e+07
4.43115e+07
3.84383e+07
4.58043e+07
3.92497e+07
4.73988e+07
4.01281e+07
4.9094e+07
4.10713e+07
5.08883e+07
4.20767e+07
5.27796e+07
4.31414e+07
5.47646e+07
4.42621e+07
5.68393e+07
3.66138e+07
3.64915e+07
3.65138e+07
3.67387e+07
3.6477e+07
3.70756e+07
3.65037e+07
3.75025e+07
3.65944e+07
3.80196e+07
3.67494e+07
3.86275e+07
3.69695e+07
3.93267e+07
3.72552e+07
4.01178e+07
3.76071e+07
4.10015e+07
3.80257e+07
4.19785e+07
3.85113e+07
4.30493e+07
3.90638e+07
4.42146e+07
3.96833e+07
4.54749e+07
4.03692e+07
4.68302e+07
4.11207e+07
4.82809e+07
4.19367e+07
4.98264e+07
4.28155e+07
5.14661e+07
4.37551e+07
5.31988e+07
4.47533e+07
5.50227e+07
4.58074e+07
5.69351e+07
3.87154e+07
3.84779e+07
3.86245e+07
3.87012e+07
3.85907e+07
3.90047e+07
3.86143e+07
3.93889e+07
3.86958e+07
3.98541e+07
3.88361e+07
4.04008e+07
3.90357e+07
4.10298e+07
3.92954e+07
4.17419e+07
3.96162e+07
4.25379e+07
3.99986e+07
4.34189e+07
4.04434e+07
4.43856e+07
4.09511e+07
4.5439e+07
4.15217e+07
4.658e+07
4.21554e+07
4.78093e+07
4.28518e+07
4.91273e+07
4.36103e+07
5.05344e+07
4.44299e+07
5.20306e+07
4.53093e+07
5.36154e+07
4.62467e+07
5.52881e+07
4.72401e+07
5.70472e+07
4.06643e+07
4.03333e+07
4.05814e+07
4.05349e+07
4.05498e+07
4.08083e+07
4.05701e+07
4.11536e+07
4.06428e+07
4.15714e+07
4.07688e+07
4.20624e+07
4.09489e+07
4.26273e+07
4.11841e+07
4.32672e+07
4.14754e+07
4.3983e+07
4.18238e+07
4.4776e+07
4.22303e+07
4.56471e+07
4.26956e+07
4.65977e+07
4.32202e+07
4.76289e+07
4.38047e+07
4.87416e+07
4.44492e+07
4.99369e+07
4.51535e+07
5.12154e+07
4.59172e+07
5.25778e+07
4.67395e+07
5.40242e+07
4.76193e+07
5.55547e+07
4.85551e+07
5.71685e+07
4.24758e+07
4.20707e+07
4.23999e+07
4.22527e+07
4.23699e+07
4.24985e+07
4.23865e+07
4.28084e+07
4.24503e+07
4.31829e+07
4.25623e+07
4.36227e+07
4.27235e+07
4.41288e+07
4.2935e+07
4.47022e+07
4.3198e+07
4.53442e+07
4.35138e+07
4.6056e+07
4.38835e+07
4.6839e+07
4.43082e+07
4.76945e+07
4.47887e+07
4.86239e+07
4.5326e+07
4.96285e+07
4.59205e+07
5.07095e+07
4.65725e+07
5.18681e+07
4.72821e+07
5.31052e+07
4.8049e+07
5.44216e+07
4.88726e+07
5.58177e+07
4.97521e+07
5.72937e+07
4.41639e+07
4.37022e+07
4.40939e+07
4.38664e+07
4.40648e+07
4.4087e+07
4.40772e+07
4.43642e+07
4.4132e+07
4.46988e+07
4.42301e+07
4.50914e+07
4.43727e+07
4.55432e+07
4.4561e+07
4.60552e+07
4.47965e+07
4.66288e+07
4.50805e+07
4.72654e+07
4.54144e+07
4.79664e+07
4.57996e+07
4.87335e+07
4.62372e+07
4.95682e+07
4.67283e+07
5.04719e+07
4.72739e+07
5.14461e+07
4.78746e+07
5.24923e+07
4.85309e+07
5.36117e+07
4.9243e+07
5.48054e+07
5.00107e+07
5.60743e+07
5.08338e+07
5.74191e+07
4.57412e+07
4.5239e+07
4.56763e+07
4.5387e+07
4.56474e+07
4.55844e+07
4.56552e+07
4.58315e+07
4.57006e+07
4.61291e+07
4.57848e+07
4.64779e+07
4.59088e+07
4.68791e+07
4.60743e+07
4.7334e+07
4.62825e+07
4.78438e+07
4.65353e+07
4.84103e+07
4.6834e+07
4.90349e+07
4.71802e+07
4.97193e+07
4.75755e+07
5.04652e+07
4.80211e+07
5.12744e+07
4.85183e+07
5.21483e+07
4.90681e+07
5.30887e+07
4.96712e+07
5.40969e+07
5.03283e+07
5.51745e+07
5.10396e+07
5.63225e+07
5.18054e+07
5.75422e+07
4.72196e+07
4.66919e+07
4.71588e+07
4.6825e+07
4.71295e+07
4.70009e+07
4.71322e+07
4.72201e+07
4.7168e+07
4.74831e+07
4.72379e+07
4.77911e+07
4.73434e+07
4.8145e+07
4.7486e+07
4.85463e+07
4.76672e+07
4.89964e+07
4.78889e+07
4.9497e+07
4.81527e+07
5.00498e+07
4.84603e+07
5.06566e+07
4.88135e+07
5.1319e+07
4.92139e+07
5.2039e+07
4.96627e+07
5.28183e+07
5.01615e+07
5.36587e+07
5.07111e+07
5.45617e+07
5.13127e+07
5.55289e+07
5.19667e+07
5.65619e+07
5.26737e+07
5.76619e+07
4.86098e+07
4.80707e+07
4.85525e+07
4.81901e+07
4.8522e+07
4.83461e+07
4.85192e+07
4.85391e+07
4.85449e+07
4.87698e+07
4.86004e+07
4.90393e+07
4.86872e+07
4.93488e+07
4.88068e+07
4.96996e+07
4.8961e+07
5.00935e+07
4.91516e+07
5.05319e+07
4.93806e+07
5.10169e+07
4.96497e+07
5.15502e+07
4.99609e+07
5.21337e+07
5.03158e+07
5.27694e+07
5.07163e+07
5.3459e+07
5.11636e+07
5.42044e+07
5.16593e+07
5.50073e+07
5.22044e+07
5.58694e+07
5.28e+07
5.67924e+07
5.34467e+07
5.77778e+07
4.9922e+07
4.9385e+07
4.98674e+07
4.94917e+07
4.98353e+07
4.9629e+07
4.98264e+07
4.97974e+07
4.98417e+07
4.99976e+07
4.98825e+07