# PointID PointCoord Dx Dy Dz magD
4 (0 0.5 0) 0 -4.22117e-05 1.12403e-23 4.22117e-05
81 (0 0.55 0) 0 -4.34918e-05 0 4.34918e-05
80 (0 0.6 0) 0 -4.50548e-05 0 4.50548e-05
79 (0 0.65 0) 0 -4.62696e-05 0 4.62696e-05
78 (0 0.7 0) 0 -4.71985e-05 0 4.71985e-05
6 (0 0.75 0) 0 -4.78818e-05 0 4.78818e-05
77 (0 0.775 0) 0 -4.82892e-05 0 4.82892e-05
76 (0 0.8 0) 0 -4.85983e-05 0 4.85983e-05
75 (0 0.825 0) 0 -4.89073e-05 0 4.89073e-05
74 (0 0.85 0) 0 -4.9222e-05 0 4.9222e-05
73 (0 0.875 0) 0 -4.95415e-05 0 4.95415e-05
72 (0 0.9 0) 0 -4.98622e-05 0 4.98622e-05
71 (0 0.925 0) 0 -5.01794e-05 0 5.01794e-05
70 (0 0.95 0) 0 -5.04878e-05 0 5.04878e-05
69 (0 0.975 0) 0 -5.07872e-05 0 5.07872e-05
3 (0 1 0) 0 -5.08057e-05 3.09793e-24 5.08057e-05
4 (0 0.5 0) 0 -4.22117e-05 1.12403e-23 4.22117e-05
81 (0 0.55 0) 0 -4.34918e-05 0 4.34918e-05
80 (0 0.6 0) 0 -4.50548e-05 0 4.50548e-05
79 (0 0.65 0) 0 -4.62696e-05 0 4.62696e-05
78 (0 0.7 0) 0 -4.71985e-05 0 4.71985e-05
6 (0 0.75 0) 0 -4.78818e-05 0 4.78818e-05
77 (0 0.775 0) 0 -4.82892e-05 0 4.82892e-05
76 (0 0.8 0) 0 -4.85983e-05 0 4.85983e-05
75 (0 0.825 0) 0 -4.89073e-05 0 4.89073e-05
74 (0 0.85 0) 0 -4.9222e-05 0 4.9222e-05
73 (0 0.875 0) 0 -4.95415e-05 0 4.95415e-05
72 (0 0.9 0) 0 -4.98622e-05 0 4.98622e-05
71 (0 0.925 0) 0 -5.01794e-05 0 5.01794e-05
70 (0 0.95 0) 0 -5.04878e-05 0 5.04878e-05
69 (0 0.975 0) 0 -5.07872e-05 0 5.07872e-05
3 (0 1 0) 0 -5.08057e-05 3.09793e-24 5.08057e-05
4 (0 0.5 0) 0 -8.58472e-05 1.98109e-23 8.58472e-05
81 (0 0.55 0) 0 -8.8364e-05 0 8.8364e-05
80 (0 0.6 0) 0 -9.13948e-05 0 9.13948e-05
79 (0 0.65 0) 0 -9.37399e-05 0 9.37399e-05
78 (0 0.7 0) 0 -9.55376e-05 0 9.55376e-05
6 (0 0.75 0) 0 -9.68626e-05 0 9.68626e-05
77 (0 0.775 0) 0 -9.76398e-05 0 9.76398e-05
76 (0 0.8 0) 0 -9.82227e-05 0 9.82227e-05
75 (0 0.825 0) 0 -9.88171e-05 0 9.88171e-05
74 (0 0.85 0) 0 -9.94266e-05 0 9.94266e-05
73 (0 0.875 0) 0 -0.000100047 0 0.000100047
72 (0 0.9 0) 0 -0.00010067 0 0.00010067
71 (0 0.925 0) 0 -0.000101288 0 0.000101288
70 (0 0.95 0) 0 -0.000101893 0 0.000101893
69 (0 0.975 0) 0 -0.000102484 0 0.000102484
3 (0 1 0) 0 -0.000102493 6.40963e-24 0.000102493
4 (0 0.5 0) 0 -8.58472e-05 1.98109e-23 8.58472e-05
81 (0 0.55 0) 0 -8.8364e-05 0 8.8364e-05
80 (0 0.6 0) 0 -9.13948e-05 0 9.13948e-05
79 (0 0.65 0) 0 -9.37399e-05 0 9.37399e-05
78 (0 0.7 0) 0 -9.55376e-05 0 9.55376e-05
6 (0 0.75 0) 0 -9.68626e-05 0 9.68626e-05
77 (0 0.775 0) 0 -9.76398e-05 0 9.76398e-05
76 (0 0.8 0) 0 -9.82227e-05 0 9.82227e-05
75 (0 0.825 0) 0 -9.88171e-05 0 9.88171e-05
74 (0 0.85 0) 0 -9.94266e-05 0 9.94266e-05
73 (0 0.875 0) 0 -0.000100047 0 0.000100047
72 (0 0.9 0) 0 -0.00010067 0 0.00010067
71 (0 0.925 0) 0 -0.000101288 0 0.000101288
70 (0 0.95 0) 0 -0.000101893 0 0.000101893
69 (0 0.975 0) 0 -0.000102484 0 0.000102484
3 (0 1 0) 0 -0.000102493 6.40963e-24 0.000102493
4 (0 0.5 0) 0 -0.000130255 2.72104e-23 0.000130255
81 (0 0.55 0) 0 -0.00013399 0 0.00013399
80 (0 0.6 0) 0 -0.000138442 0 0.000138442
79 (0 0.65 0) 0 -0.000141868 0 0.000141868
78 (0 0.7 0) 0 -0.000144501 0 0.000144501
6 (0 0.75 0) 0 -0.000146449 0 0.000146449
77 (0 0.775 0) 0 -0.000147583 0 0.000147583
76 (0 0.8 0) 0 -0.000148429 0 0.000148429
75 (0 0.825 0) 0 -0.000149302 0 0.000149302
74 (0 0.85 0) 0 -0.000150202 0 0.000150202
73 (0 0.875 0) 0 -0.000151119 0 0.000151119
72 (0 0.9 0) 0 -0.000152042 0 0.000152042
71 (0 0.925 0) 0 -0.000152959 0 0.000152959
70 (0 0.95 0) 0 -0.000153861 0 0.000153861
69 (0 0.975 0) 0 -0.000154748 0 0.000154748
3 (0 1 0) 0 -0.000154727 9.92671e-24 0.000154727
4 (0 0.5 0) 0 -0.000130255 2.72104e-23 0.000130255
81 (0 0.55 0) 0 -0.00013399 0 0.00013399
80 (0 0.6 0) 0 -0.000138442 0 0.000138442
79 (0 0.65 0) 0 -0.000141868 0 0.000141868
78 (0 0.7 0) 0 -0.000144501 0 0.000144501
6 (0 0.75 0) 0 -0.000146449 0 0.000146449
77 (0 0.775 0) 0 -0.000147583 0 0.000147583
76 (0 0.8 0) 0 -0.000148429 0 0.000148429
75 (0 0.825 0) 0 -0.000149302 0 0.000149302
74 (0 0.85 0) 0 -0.000150202 0 0.000150202
73 (0 0.875 0) 0 -0.000151119 0 0.000151119
72 (0 0.9 0) 0 -0.000152042 0 0.000152042
71 (0 0.925 0) 0 -0.000152959 0 0.000152959
70 (0 0.95 0) 0 -0.000153861 0 0.000153861
69 (0 0.975 0) 0 -0.000154748 0 0.000154748
3 (0 1 0) 0 -0.000154727 9.92671e-24 0.000154727
4 (0 0.5 0) 0 -0.000175303 3.39787e-23 0.000175303
81 (0 0.55 0) 0 -0.000180244 0 0.000180244
80 (0 0.6 0) 0 -0.000186087 0 0.000186087
79 (0 0.65 0) 0 -0.000190559 0 0.000190559
78 (0 0.7 0) 0 -0.000194 0 0.000194
6 (0 0.75 0) 0 -0.000196554 0 0.000196554
77 (0 0.775 0) 0 -0.000198035 0 0.000198035
76 (0 0.8 0) 0 -0.000199134 0 0.000199134
75 (0 0.825 0) 0 -0.00020028 0 0.00020028
74 (0 0.85 0) 0 -0.000201468 0 0.000201468
73 (0 0.875 0) 0 -0.000202681 0 0.000202681
72 (0 0.9 0) 0 -0.000203903 0 0.000203903
71 (0 0.925 0) 0 -0.000205119 0 0.000205119
70 (0 0.95 0) 0 -0.00020632 0 0.00020632
69 (0 0.975 0) 0 -0.000207504 0 0.000207504
3 (0 1 0) 0 -0.000207437 1.36313e-23 0.000207437
4 (0 0.5 0) 0 -0.000175303 3.39787e-23 0.000175303
81 (0 0.55 0) 0 -0.000180244 0 0.000180244
80 (0 0.6 0) 0 -0.000186087 0 0.000186087
79 (0 0.65 0) 0 -0.000190559 0 0.000190559
78 (0 0.7 0) 0 -0.000194 0 0.000194
6 (0 0.75 0) 0 -0.000196554 0 0.000196554
77 (0 0.775 0) 0 -0.000198035 0 0.000198035
76 (0 0.8 0) 0 -0.000199134 0 0.000199134
75 (0 0.825 0) 0 -0.00020028 0 0.00020028
74 (0 0.85 0) 0 -0.000201468 0 0.000201468
73 (0 0.875 0) 0 -0.000202681 0 0.000202681
72 (0 0.9 0) 0 -0.000203903 0 0.000203903
71 (0 0.925 0) 0 -0.000205119 0 0.000205119
70 (0 0.95 0) 0 -0.00020632 0 0.00020632
69 (0 0.975 0) 0 -0.000207504 0 0.000207504
3 (0 1 0) 0 -0.000207437 1.36313e-23 0.000207437
4 (0 0.5 0) 0 -0.000220905 4.03673e-23 0.000220905
81 (0 0.55 0) 0 -0.000227047 0 0.000227047
80 (0 0.6 0) 0 -0.000234259 0 0.000234259
79 (0 0.65 0) 0 -0.000239749 0 0.000239749
78 (0 0.7 0) 0 -0.000243975 0 0.000243975
6 (0 0.75 0) 0 -0.000247119 0 0.000247119
77 (0 0.775 0) 0 -0.000248937 0 0.000248937
76 (0 0.8 0) 0 -0.000250283 0 0.000250283
75 (0 0.825 0) 0 -0.000251697 0 0.000251697
74 (0 0.85 0) 0 -0.000253169 0 0.000253169
73 (0 0.875 0) 0 -0.000254676 0 0.000254676
72 (0 0.9 0) 0 -0.000256196 0 0.000256196
71 (0 0.925 0) 0 -0.000257713 0 0.000257713
70 (0 0.95 0) 0 -0.000259216 0 0.000259216
69 (0 0.975 0) 0 -0.0002607 0 0.0002607
3 (0 1 0) 0 -0.000260571 1.75061e-23 0.000260571
4 (0 0.5 0) 0 -0.000220905 4.03673e-23 0.000220905
81 (0 0.55 0) 0 -0.000227047 0 0.000227047
80 (0 0.6 0) 0 -0.000234259 0 0.000234259
79 (0 0.65 0) 0 -0.000239749 0 0.000239749
78 (0 0.7 0) 0 -0.000243975 0 0.000243975
6 (0 0.75 0) 0 -0.000247119 0 0.000247119
77 (0 0.775 0) 0 -0.000248937 0 0.000248937
76 (0 0.8 0) 0 -0.000250283 0 0.000250283
75 (0 0.825 0) 0 -0.000251697 0 0.000251697
74 (0 0.85 0) 0 -0.000253169 0 0.000253169
73 (0 0.875 0) 0 -0.000254676 0 0.000254676
72 (0 0.9 0) 0 -0.000256196 0 0.000256196
71 (0 0.925 0) 0 -0.000257713 0 0.000257713
70 (0 0.95 0) 0 -0.000259216 0 0.000259216
69 (0 0.975 0) 0 -0.0002607 0 0.0002607
3 (0 1 0) 0 -0.000260571 1.75061e-23 0.000260571
4 (0 0.5 0) 0 -0.000267001 4.65059e-23 0.000267001
81 (0 0.55 0) 0 -0.000274338 0 0.000274338
80 (0 0.6 0) 0 -0.000282903 0 0.000282903
79 (0 0.65 0) 0 -0.00028939 0 0.00028939
78 (0 0.7 0) 0 -0.000294379 0 0.000294379
6 (0 0.75 0) 0 -0.000298101 0 0.000298101
77 (0 0.775 0) 0 -0.000300247 0 0.000300247
76 (0 0.8 0) 0 -0.000301832 0 0.000301832
75 (0 0.825 0) 0 -0.000303508 0 0.000303508
74 (0 0.85 0) 0 -0.000305261 0 0.000305261
73 (0 0.875 0) 0 -0.000307061 0 0.000307061
72 (0 0.9 0) 0 -0.000308881 0 0.000308881
71 (0 0.925 0) 0 -0.0003107 0 0.0003107
70 (0 0.95 0) 0 -0.000312507 0 0.000312507
69 (0 0.975 0) 0 -0.000314293 0 0.000314293
3 (0 1 0) 0 -0.000314089 2.15375e-23 0.000314089
4 (0 0.5 0) 0 -0.000267001 4.65059e-23 0.000267001
81 (0 0.55 0) 0 -0.000274338 0 0.000274338
80 (0 0.6 0) 0 -0.000282903 0 0.000282903
79 (0 0.65 0) 0 -0.00028939 0 0.00028939
78 (0 0.7 0) 0 -0.000294379 0 0.000294379
6 (0 0.75 0) 0 -0.000298101 0 0.000298101
77 (0 0.775 0) 0 -0.000300247 0 0.000300247
76 (0 0.8 0) 0 -0.000301832 0 0.000301832
75 (0 0.825 0) 0 -0.000303508 0 0.000303508
74 (0 0.85 0) 0 -0.000305261 0 0.000305261
73 (0 0.875 0) 0 -0.000307061 0 0.000307061
72 (0 0.9 0) 0 -0.000308881 0 0.000308881
71 (0 0.925 0) 0 -0.0003107 0 0.0003107
70 (0 0.95 0) 0 -0.000312507 0 0.000312507
69 (0 0.975 0) 0 -0.000314293 0 0.000314293
3 (0 1 0) 0 -0.000314089 2.15375e-23 0.000314089
4 (0 0.5 0) 0 -0.000313544 5.24668e-23 0.000313544
81 (0 0.55 0) 0 -0.000322072 0 0.000322072
80 (0 0.6 0) 0 -0.000331978 0 0.000331978
79 (0 0.65 0) 0 -0.000339443 0 0.000339443
78 (0 0.7 0) 0 -0.000345179 0 0.000345179
6 (0 0.75 0) 0 -0.000349465 0 0.000349465
77 (0 0.775 0) 0 -0.00035193 0 0.00035193
76 (0 0.8 0) 0 -0.000353748 0 0.000353748
75 (0 0.825 0) 0 -0.00035568 0 0.00035568
74 (0 0.85 0) 0 -0.000357711 0 0.000357711
73 (0 0.875 0) 0 -0.000359803 0 0.000359803
72 (0 0.9 0) 0 -0.000361923 0 0.000361923
71 (0 0.925 0) 0 -0.000364046 0 0.000364046
70 (0 0.95 0) 0 -0.000366161 0 0.000366161
69 (0 0.975 0) 0 -0.000368252 0 0.000368252
3 (0 1 0) 0 -0.000367958 2.5714e-23 0.000367958
4 (0 0.5 0) 0 -0.000313544 5.24668e-23 0.000313544
81 (0 0.55 0) 0 -0.000322072 0 0.000322072
80 (0 0.6 0) 0 -0.000331978 0 0.000331978
79 (0 0.65 0) 0 -0.000339443 0 0.000339443
78 (0 0.7 0) 0 -0.000345179 0 0.000345179
6 (0 0.75 0) 0 -0.000349465 0 0.000349465
77 (0 0.775 0) 0 -0.00035193 0 0.00035193
76 (0 0.8 0) 0 -0.000353748 0 0.000353748
75 (0 0.825 0) 0 -0.00035568 0 0.00035568
74 (0 0.85 0) 0 -0.000357711 0 0.000357711
73 (0 0.875 0) 0 -0.000359803 0 0.000359803
72 (0 0.9 0) 0 -0.000361923 0 0.000361923
71 (0 0.925 0) 0 -0.000364046 0 0.000364046
70 (0 0.95 0) 0 -0.000366161 0 0.000366161
69 (0 0.975 0) 0 -0.000368252 0 0.000368252
3 (0 1 0) 0 -0.000367958 2.5714e-23 0.000367958
4 (0 0.5 0) 0 -0.000360495 5.82933e-23 0.000360495
81 (0 0.55 0) 0 -0.000370212 0 0.000370212
80 (0 0.6 0) 0 -0.000381449 0 0.000381449
79 (0 0.65 0) 0 -0.000389878 0 0.000389878
78 (0 0.7 0) 0 -0.000396344 0 0.000396344
6 (0 0.75 0) 0 -0.000401182 0 0.000401182
77 (0 0.775 0) 0 -0.000403958 0 0.000403958
76 (0 0.8 0) 0 -0.000406001 0 0.000406001
75 (0 0.825 0) 0 -0.000408186 0 0.000408186
74 (0 0.85 0) 0 -0.000410492 0 0.000410492
73 (0 0.875 0) 0 -0.000412875 0 0.000412875
72 (0 0.9 0) 0 -0.000415295 0 0.000415295
71 (0 0.925 0) 0 -0.000417725 0 0.000417725
70 (0 0.95 0) 0 -0.00042015 0 0.00042015
69 (0 0.975 0) 0 -0.000422548 0 0.000422548
3 (0 1 0) 0 -0.000422154 3.00256e-23 0.000422154
4 (0 0.5 0) 0 -0.000360495 5.82933e-23 0.000360495
81 (0 0.55 0) 0 -0.000370212 0 0.000370212
80 (0 0.6 0) 0 -0.000381449 0 0.000381449
79 (0 0.65 0) 0 -0.000389878 0 0.000389878
78 (0 0.7 0) 0 -0.000396344 0 0.000396344
6 (0 0.75 0) 0 -0.000401182 0 0.000401182
77 (0 0.775 0) 0 -0.000403958 0 0.000403958
76 (0 0.8 0) 0 -0.000406001 0 0.000406001
75 (0 0.825 0) 0 -0.000408186 0 0.000408186
74 (0 0.85 0) 0 -0.000410492 0 0.000410492
73 (0 0.875 0) 0 -0.000412875 0 0.000412875
72 (0 0.9 0) 0 -0.000415295 0 0.000415295
71 (0 0.925 0) 0 -0.000417725 0 0.000417725
70 (0 0.95 0) 0 -0.00042015 0 0.00042015
69 (0 0.975 0) 0 -0.000422548 0 0.000422548
3 (0 1 0) 0 -0.000422154 3.00256e-23 0.000422154
4 (0 0.5 0) 0 -0.000407825 6.40134e-23 0.000407825
81 (0 0.55 0) 0 -0.000418728 0 0.000418728
80 (0 0.6 0) 0 -0.000431288 0 0.000431288
79 (0 0.65 0) 0 -0.000440666 0 0.000440666
78 (0 0.7 0) 0 -0.000447849 0 0.000447849
6 (0 0.75 0) 0 -0.000453228 0 0.000453228
77 (0 0.775 0) 0 -0.000456307 0 0.000456307
76 (0 0.8 0) 0 -0.00045857 0 0.00045857
75 (0 0.825 0) 0 -0.000461002 0 0.000461002
74 (0 0.85 0) 0 -0.000463581 0 0.000463581
73 (0 0.875 0) 0 -0.000466253 0 0.000466253
72 (0 0.9 0) 0 -0.000468974 0 0.000468974
71 (0 0.925 0) 0 -0.000471713 0 0.000471713
70 (0 0.95 0) 0 -0.000474451 0 0.000474451
69 (0 0.975 0) 0 -0.00047716 0 0.00047716
3 (0 1 0) 0 -0.000476653 3.44633e-23 0.000476653
4 (0 0.5 0) 0 -0.000407825 6.40134e-23 0.000407825
81 (0 0.55 0) 0 -0.000418728 0 0.000418728
80 (0 0.6 0) 0 -0.000431288 0 0.000431288
79 (0 0.65 0) 0 -0.000440666 0 0.000440666
78 (0 0.7 0) 0 -0.000447849 0 0.000447849
6 (0 0.75 0) 0 -0.000453228 0 0.000453228
77 (0 0.775 0) 0 -0.000456307 0 0.000456307
76 (0 0.8 0) 0 -0.00045857 0 0.00045857
75 (0 0.825 0) 0 -0.000461002 0 0.000461002
74 (0 0.85 0) 0 -0.000463581 0 0.000463581
73 (0 0.875 0) 0 -0.000466253 0 0.000466253
72 (0 0.9 0) 0 -0.000468974 0 0.000468974
71 (0 0.925 0) 0 -0.000471713 0 0.000471713
70 (0 0.95 0) 0 -0.000474451 0 0.000474451
69 (0 0.975 0) 0 -0.00047716 0 0.00047716
3 (0 1 0) 0 -0.000476653 3.44633e-23 0.000476653
4 (0 0.5 0) 0 -0.000455505 6.96463e-23 0.000455505
81 (0 0.55 0) 0 -0.000467595 0 0.000467595
80 (0 0.6 0) 0 -0.00048147 0 0.00048147
79 (0 0.65 0) 0 -0.000491787 0 0.000491787
78 (0 0.7 0) 0 -0.000499674 0 0.000499674
6 (0 0.75 0) 0 -0.000505582 0 0.000505582
77 (0 0.775 0) 0 -0.000508957 0 0.000508957
76 (0 0.8 0) 0 -0.000511434 0 0.000511434
75 (0 0.825 0) 0 -0.00051411 0 0.00051411
74 (0 0.85 0) 0 -0.000516957 0 0.000516957
73 (0 0.875 0) 0 -0.000519918 0 0.000519918
72 (0 0.9 0) 0 -0.00052294 0 0.00052294
71 (0 0.925 0) 0 -0.00052599 0 0.00052599
70 (0 0.95 0) 0 -0.000529046 0 0.000529046
69 (0 0.975 0) 0 -0.000532066 0 0.000532066
3 (0 1 0) 0 -0.000531437 3.90183e-23 0.000531437
4 (0 0.5 0) 0 -0.000455505 6.96463e-23 0.000455505
81 (0 0.55 0) 0 -0.000467595 0 0.000467595
80 (0 0.6 0) 0 -0.00048147 0 0.00048147
79 (0 0.65 0) 0 -0.000491787 0 0.000491787
78 (0 0.7 0) 0 -0.000499674 0 0.000499674
6 (0 0.75 0) 0 -0.000505582 0 0.000505582
77 (0 0.775 0) 0 -0.000508957 0 0.000508957
76 (0 0.8 0) 0 -0.000511434 0 0.000511434
75 (0 0.825 0) 0 -0.00051411 0 0.00051411
74 (0 0.85 0) 0 -0.000516957 0 0.000516957
73 (0 0.875 0) 0 -0.000519918 0 0.000519918
72 (0 0.9 0) 0 -0.00052294 0 0.00052294
71 (0 0.925 0) 0 -0.00052599 0 0.00052599
70 (0 0.95 0) 0 -0.000529046 0 0.000529046
69 (0 0.975 0) 0 -0.000532066 0 0.000532066
3 (0 1 0) 0 -0.000531437 3.90183e-23 0.000531437
4 (0 0.5 0) 0 -0.000503513 7.5206e-23 0.000503513
81 (0 0.55 0) 0 -0.000516789 0 0.000516789
80 (0 0.6 0) 0 -0.000531975 0 0.000531975
79 (0 0.65 0) 0 -0.000543219 0 0.000543219
78 (0 0.7 0) 0 -0.000551799 0 0.000551799
6 (0 0.75 0) 0 -0.000558227 0 0.000558227
77 (0 0.775 0) 0 -0.00056189 0 0.00056189
76 (0 0.8 0) 0 -0.000564576 0 0.000564576
75 (0 0.825 0) 0 -0.000567491 0 0.000567491
74 (0 0.85 0) 0 -0.000570604 0 0.000570604
73 (0 0.875 0) 0 -0.000573852 0 0.000573852
72 (0 0.9 0) 0 -0.000577177 0 0.000577177
71 (0 0.925 0) 0 -0.000580539 0 0.000580539
70 (0 0.95 0) 0 -0.000583915 0 0.000583915
69 (0 0.975 0) 0 -0.000587251 0 0.000587251
3 (0 1 0) 0 -0.000586489 4.36827e-23 0.000586489
4 (0 0.5 0) 0 -0.000503513 7.5206e-23 0.000503513
81 (0 0.55 0) 0 -0.000516789 0 0.000516789
80 (0 0.6 0) 0 -0.000531975 0 0.000531975
79 (0 0.65 0) 0 -0.000543219 0 0.000543219
78 (0 0.7 0) 0 -0.000551799 0 0.000551799
6 (0 0.75 0) 0 -0.000558227 0 0.000558227
77 (0 0.775 0) 0 -0.00056189 0 0.00056189
76 (0 0.8 0) 0 -0.000564576 0 0.000564576
75 (0 0.825 0) 0 -0.000567491 0 0.000567491
74 (0 0.85 0) 0 -0.000570604 0 0.000570604
73 (0 0.875 0) 0 -0.000573852 0 0.000573852
72 (0 0.9 0) 0 -0.000577177 0 0.000577177
71 (0 0.925 0) 0 -0.000580539 0 0.000580539
70 (0 0.95 0) 0 -0.000583915 0 0.000583915
69 (0 0.975 0) 0 -0.000587251 0 0.000587251
3 (0 1 0) 0 -0.000586489 4.36827e-23 0.000586489
4 (0 0.5 0) 0 -0.00055183 8.07034e-23 0.00055183
81 (0 0.55 0) 0 -0.000566291 0 0.000566291
80 (0 0.6 0) 0 -0.000582782 0 0.000582782
79 (0 0.65 0) 0 -0.000594946 0 0.000594946
78 (0 0.7 0) 0 -0.000604208 0 0.000604208
6 (0 0.75 0) 0 -0.000611147 0 0.000611147
77 (0 0.775 0) 0 -0.000615091 0 0.000615091
76 (0 0.8 0) 0 -0.000617981 0 0.000617981
75 (0 0.825 0) 0 -0.00062113 0 0.00062113
74 (0 0.85 0) 0 -0.000624506 0 0.000624506
73 (0 0.875 0) 0 -0.00062804 0 0.00062804
72 (0 0.9 0) 0 -0.000631668 0 0.000631668
71 (0 0.925 0) 0 -0.000635345 0 0.000635345
70 (0 0.95 0) 0 -0.000639044 0 0.000639044
69 (0 0.975 0) 0 -0.000642698 0 0.000642698
3 (0 1 0) 0 -0.000641795 4.84488e-23 0.000641795
4 (0 0.5 0) 0 -0.00055183 8.07034e-23 0.00055183
81 (0 0.55 0) 0 -0.000566291 0 0.000566291
80 (0 0.6 0) 0 -0.000582782 0 0.000582782
79 (0 0.65 0) 0 -0.000594946 0 0.000594946
78 (0 0.7 0) 0 -0.000604208 0 0.000604208
6 (0 0.75 0) 0 -0.000611147 0 0.000611147
77 (0 0.775 0) 0 -0.000615091 0 0.000615091
76 (0 0.8 0) 0 -0.000617981 0 0.000617981
75 (0 0.825 0) 0 -0.00062113 0 0.00062113
74 (0 0.85 0) 0 -0.000624506 0 0.000624506
73 (0 0.875 0) 0 -0.00062804 0 0.00062804
72 (0 0.9 0) 0 -0.000631668 0 0.000631668
71 (0 0.925 0) 0 -0.000635345 0 0.000635345
70 (0 0.95 0) 0 -0.000639044 0 0.000639044
69 (0 0.975 0) 0 -0.000642698 0 0.000642698
3 (0 1 0) 0 -0.000641795 4.84488e-23 0.000641795
4 (0 0.5 0) 0 -0.000600438 8.61472e-23 0.000600438
81 (0 0.55 0) 0 -0.000616084 0 0.000616084
80 (0 0.6 0) 0 -0.000633876 0 0.000633876
79 (0 0.65 0) 0 -0.000646951 0 0.000646951
78 (0 0.7 0) 0 -0.000656887 0 0.000656887
6 (0 0.75 0) 0 -0.000664328 0 0.000664328
77 (0 0.775 0) 0 -0.000668547 0 0.000668547
76 (0 0.8 0) 0 -0.000671635 0 0.000671635
75 (0 0.825 0) 0 -0.000675014 0 0.000675014
74 (0 0.85 0) 0 -0.000678651 0 0.000678651
73 (0 0.875 0) 0 -0.000682469 0 0.000682469
72 (0 0.9 0) 0 -0.0006864 0 0.0006864
71 (0 0.925 0) 0 -0.000690394 0 0.000690394
70 (0 0.95 0) 0 -0.000694418 0 0.000694418
69 (0 0.975 0) 0 -0.000698393 0 0.000698393
3 (0 1 0) 0 -0.000697342 5.33093e-23 0.000697342
4 (0 0.5 0) 0 -0.000600438 8.61472e-23 0.000600438
81 (0 0.55 0) 0 -0.000616084 0 0.000616084
80 (0 0.6 0) 0 -0.000633876 0 0.000633876
79 (0 0.65 0) 0 -0.000646951 0 0.000646951
78 (0 0.7 0) 0 -0.000656887 0 0.000656887
6 (0 0.75 0) 0 -0.000664328 0 0.000664328
77 (0 0.775 0) 0 -0.000668547 0 0.000668547
76 (0 0.8 0) 0 -0.000671635 0 0.000671635
75 (0 0.825 0) 0 -0.000675014 0 0.000675014
74 (0 0.85 0) 0 -0.000678651 0 0.000678651
73 (0 0.875 0) 0 -0.000682469 0 0.000682469
72 (0 0.9 0) 0 -0.0006864 0 0.0006864
71 (0 0.925 0) 0 -0.000690394 0 0.000690394
70 (0 0.95 0) 0 -0.000694418 0 0.000694418
69 (0 0.975 0) 0 -0.000698393 0 0.000698393
3 (0 1 0) 0 -0.000697342 5.33093e-23 0.000697342
4 (0 0.5 0) 0 -0.000649321 9.15445e-23 0.000649321
81 (0 0.55 0) 0 -0.000666153 0 0.000666153
80 (0 0.6 0) 0 -0.000685242 0 0.000685242
79 (0 0.65 0) 0 -0.00069922 0 0.00069922
78 (0 0.7 0) 0 -0.00070982 0 0.00070982
6 (0 0.75 0) 0 -0.000717756 0 0.000717756
77 (0 0.775 0) 0 -0.000722243 0 0.000722243
76 (0 0.8 0) 0 -0.000725525 0 0.000725525
75 (0 0.825 0) 0 -0.00072913 0 0.00072913
74 (0 0.85 0) 0 -0.000733025 0 0.000733025
73 (0 0.875 0) 0 -0.000737126 0 0.000737126
72 (0 0.9 0) 0 -0.00074136 0 0.00074136
71 (0 0.925 0) 0 -0.000745674 0 0.000745674
70 (0 0.95 0) 0 -0.000750026 0 0.000750026
69 (0 0.975 0) 0 -0.000754323 0 0.000754323
3 (0 1 0) 0 -0.000753116 5.82573e-23 0.000753116
4 (0 0.5 0) 0 -0.000649321 9.15445e-23 0.000649321
81 (0 0.55 0) 0 -0.000666153 0 0.000666153
80 (0 0.6 0) 0 -0.000685242 0 0.000685242
79 (0 0.65 0) 0 -0.00069922 0 0.00069922
78 (0 0.7 0) 0 -0.00070982 0 0.00070982
6 (0 0.75 0) 0 -0.000717756 0 0.000717756
77 (0 0.775 0) 0 -0.000722243 0 0.000722243
76 (0 0.8 0) 0 -0.000725525 0 0.000725525
75 (0 0.825 0) 0 -0.00072913 0 0.00072913
74 (0 0.85 0) 0 -0.000733025 0 0.000733025
73 (0 0.875 0) 0 -0.000737126 0 0.000737126
72 (0 0.9 0) 0 -0.00074136 0 0.00074136
71 (0 0.925 0) 0 -0.000745674 0 0.000745674
70 (0 0.95 0) 0 -0.000750026 0 0.000750026
69 (0 0.975 0) 0 -0.000754323 0 0.000754323
3 (0 1 0) 0 -0.000753116 5.82573e-23 0.000753116
4 (0 0.5 0) 0 -0.000698465 9.69016e-23 0.000698465
81 (0 0.55 0) 0 -0.000716482 0 0.000716482
80 (0 0.6 0) 0 -0.000736866 0 0.000736866
79 (0 0.65 0) 0 -0.000751741 0 0.000751741
78 (0 0.7 0) 0 -0.000762998 0 0.000762998
6 (0 0.75 0) 0 -0.000771419 0 0.000771419
77 (0 0.775 0) 0 -0.00077617 0 0.00077617
76 (0 0.8 0) 0 -0.00077964 0 0.00077964
75 (0 0.825 0) 0 -0.000783469 0 0.000783469
74 (0 0.85 0) 0 -0.000787617 0 0.000787617
73 (0 0.875 0) 0 -0.000792001 0 0.000792001
72 (0 0.9 0) 0 -0.000796538 0 0.000796538
71 (0 0.925 0) 0 -0.000801172 0 0.000801172
70 (0 0.95 0) 0 -0.000805855 0 0.000805855
69 (0 0.975 0) 0 -0.000810477 0 0.000810477
3 (0 1 0) 0 -0.000809108 6.32864e-23 0.000809108
4 (0 0.5 0) 0 -0.000698465 9.69016e-23 0.000698465
81 (0 0.55 0) 0 -0.000716482 0 0.000716482
80 (0 0.6 0) 0 -0.000736866 0 0.000736866
79 (0 0.65 0) 0 -0.000751741 0 0.000751741
78 (0 0.7 0) 0 -0.000762998 0 0.000762998
6 (0 0.75 0) 0 -0.000771419 0 0.000771419
77 (0 0.775 0) 0 -0.00077617 0 0.00077617
76 (0 0.8 0) 0 -0.00077964 0 0.00077964
75 (0 0.825 0) 0 -0.000783469 0 0.000783469
74 (0 0.85 0) 0 -0.000787617 0 0.000787617
73 (0 0.875 0) 0 -0.000792001 0 0.000792001
72 (0 0.9 0) 0 -0.000796538 0 0.000796538
71 (0 0.925 0) 0 -0.000801172 0 0.000801172
70 (0 0.95 0) 0 -0.000805855 0 0.000805855
69 (0 0.975 0) 0 -0.000810477 0 0.000810477
3 (0 1 0) 0 -0.000809108 6.32864e-23 0.000809108
4 (0 0.5 0) 0 -0.000747856 1.02224e-22 0.000747856
81 (0 0.55 0) 0 -0.00076706 0 0.00076706
80 (0 0.6 0) 0 -0.000788735 0 0.000788735
79 (0 0.65 0) 0 -0.000804502 0 0.000804502
78 (0 0.7 0) 0 -0.000816407 0 0.000816407
6 (0 0.75 0) 0 -0.000825308 0 0.000825308
77 (0 0.775 0) 0 -0.000830316 0 0.000830316
76 (0 0.8 0) 0 -0.000833971 0 0.000833971
75 (0 0.825 0) 0 -0.000838018 0 0.000838018
74 (0 0.85 0) 0 -0.000842419 0 0.000842419
73 (0 0.875 0) 0 -0.000847083 0 0.000847083
72 (0 0.9 0) 0 -0.000851924 0 0.000851924
71 (0 0.925 0) 0 -0.000856879 0 0.000856879
70 (0 0.95 0) 0 -0.000861895 0 0.000861895
69 (0 0.975 0) 0 -0.000866845 0 0.000866845
3 (0 1 0) 0 -0.000865308 6.83902e-23 0.000865308
4 (0 0.5 0) 0 -0.000747856 1.02224e-22 0.000747856
81 (0 0.55 0) 0 -0.00076706 0 0.00076706
80 (0 0.6 0) 0 -0.000788735 0 0.000788735
79 (0 0.65 0) 0 -0.000804502 0 0.000804502
78 (0 0.7 0) 0 -0.000816407 0 0.000816407
6 (0 0.75 0) 0 -0.000825308 0 0.000825308
77 (0 0.775 0) 0 -0.000830316 0 0.000830316
76 (0 0.8 0) 0 -0.000833971 0 0.000833971
75 (0 0.825 0) 0 -0.000838018 0 0.000838018
74 (0 0.85 0) 0 -0.000842419 0 0.000842419
73 (0 0.875 0) 0 -0.000847083 0 0.000847083
72 (0 0.9 0) 0 -0.000851924 0 0.000851924
71 (0 0.925 0) 0 -0.000856879 0 0.000856879
70 (0 0.95 0) 0 -0.000861895 0 0.000861895
69 (0 0.975 0) 0 -0.000866845 0 0.000866845
3 (0 1 0) 0 -0.000865308 6.83902e-23 0.000865308
4 (0 0.5 0) 0 -0.000797484 1.07516e-22 0.000797484
81 (0 0.55 0) 0 -0.000817874 0 0.000817874
80 (0 0.6 0) 0 -0.000840839 0 0.000840839
79 (0 0.65 0) 0 -0.000857492 0 0.000857492
78 (0 0.7 0) 0 -0.000870039 0 0.000870039
6 (0 0.75 0) 0 -0.000879413 0 0.000879413
77 (0 0.775 0) 0 -0.000884673 0 0.000884673
76 (0 0.8 0) 0 -0.000888507 0 0.000888507
75 (0 0.825 0) 0 -0.00089277 0 0.00089277
74 (0 0.85 0) 0 -0.00089742 0 0.00089742
73 (0 0.875 0) 0 -0.000902362 0 0.000902362
72 (0 0.9 0) 0 -0.000907506 0 0.000907506
71 (0 0.925 0) 0 -0.000912784 0 0.000912784
70 (0 0.95 0) 0 -0.000918136 0 0.000918136
69 (0 0.975 0) 0 -0.000923416 0 0.000923416
3 (0 1 0) 0 -0.000921705 7.35631e-23 0.000921705
4 (0 0.5 0) 0 -0.000797484 1.07516e-22 0.000797484
81 (0 0.55 0) 0 -0.000817874 0 0.000817874
80 (0 0.6 0) 0 -0.000840839 0 0.000840839
79 (0 0.65 0) 0 -0.000857492 0 0.000857492
78 (0 0.7 0) 0 -0.000870039 0 0.000870039
6 (0 0.75 0) 0 -0.000879413 0 0.000879413
77 (0 0.775 0) 0 -0.000884673 0 0.000884673
76 (0 0.8 0) 0 -0.000888507 0 0.000888507
75 (0 0.825 0) 0 -0.00089277 0 0.00089277
74 (0 0.85 0) 0 -0.00089742 0 0.00089742
73 (0 0.875 0) 0 -0.000902362 0 0.000902362
72 (0 0.9 0) 0 -0.000907506 0 0.000907506
71 (0 0.925 0) 0 -0.000912784 0 0.000912784
70 (0 0.95 0) 0 -0.000918136 0 0.000918136
69 (0 0.975 0) 0 -0.000923416 0 0.000923416
3 (0 1 0) 0 -0.000921705 7.35631e-23 0.000921705
4 (0 0.5 0) 0 -0.000847337 1.12781e-22 0.000847337
81 (0 0.55 0) 0 -0.000868915 0 0.000868915
80 (0 0.6 0) 0 -0.000893167 0 0.000893167
79 (0 0.65 0) 0 -0.000910701 0 0.000910701
78 (0 0.7 0) 0 -0.000923884 0 0.000923884
6 (0 0.75 0) 0 -0.000933723 0 0.000933723
77 (0 0.775 0) 0 -0.00093923 0 0.00093923
76 (0 0.8 0) 0 -0.000943241 0 0.000943241
75 (0 0.825 0) 0 -0.000947715 0 0.000947715
74 (0 0.85 0) 0 -0.000952611 0 0.000952611
73 (0 0.875 0) 0 -0.000957831 0 0.000957831
72 (0 0.9 0) 0 -0.000963278 0 0.000963278
71 (0 0.925 0) 0 -0.00096888 0 0.00096888
70 (0 0.95 0) 0 -0.000974569 0 0.000974569
69 (0 0.975 0) 0 -0.000980181 0 0.000980181
3 (0 1 0) 0 -0.000978292 7.87996e-23 0.000978292
4 (0 0.5 0) 0 -0.000847337 1.12781e-22 0.000847337
81 (0 0.55 0) 0 -0.000868915 0 0.000868915
80 (0 0.6 0) 0 -0.000893167 0 0.000893167
79 (0 0.65 0) 0 -0.000910701 0 0.000910701
78 (0 0.7 0) 0 -0.000923884 0 0.000923884
6 (0 0.75 0) 0 -0.000933723 0 0.000933723
77 (0 0.775 0) 0 -0.00093923 0 0.00093923
76 (0 0.8 0) 0 -0.000943241 0 0.000943241
75 (0 0.825 0) 0 -0.000947715 0 0.000947715
74 (0 0.85 0) 0 -0.000952611 0 0.000952611
73 (0 0.875 0) 0 -0.000957831 0 0.000957831
72 (0 0.9 0) 0 -0.000963278 0 0.000963278
71 (0 0.925 0) 0 -0.00096888 0 0.00096888
70 (0 0.95 0) 0 -0.000974569 0 0.000974569
69 (0 0.975 0) 0 -0.000980181 0 0.000980181
3 (0 1 0) 0 -0.000978292 7.87996e-23 0.000978292
4 (0 0.5 0) 0 -0.000897405 1.18025e-22 0.000897405
81 (0 0.55 0) 0 -0.000920171 0 0.000920171
80 (0 0.6 0) 0 -0.000945709 0 0.000945709
79 (0 0.65 0) 0 -0.000964119 0 0.000964119
78 (0 0.7 0) 0 -0.000977932 0 0.000977932
6 (0 0.75 0) 0 -0.000988232 0 0.000988232
77 (0 0.775 0) 0 -0.000993981 0 0.000993981
76 (0 0.8 0) 0 -0.000998164 0 0.000998164
75 (0 0.825 0) 0 -0.00100285 0 0.00100285
74 (0 0.85 0) 0 -0.00100799 0 0.00100799
73 (0 0.875 0) 0 -0.00101348 0 0.00101348
72 (0 0.9 0) 0 -0.00101923 0 0.00101923
71 (0 0.925 0) 0 -0.00102516 0 0.00102516
70 (0 0.95 0) 0 -0.00103119 0 0.00103119
69 (0 0.975 0) 0 -0.00103713 0 0.00103713
3 (0 1 0) 0 -0.00103506 8.40946e-23 0.00103506
4 (0 0.5 0) 0 -0.000897405 1.18025e-22 0.000897405
81 (0 0.55 0) 0 -0.000920171 0 0.000920171
80 (0 0.6 0) 0 -0.000945709 0 0.000945709
79 (0 0.65 0) 0 -0.000964119 0 0.000964119
78 (0 0.7 0) 0 -0.000977932 0 0.000977932
6 (0 0.75 0) 0 -0.000988232 0 0.000988232
77 (0 0.775 0) 0 -0.000993981 0 0.000993981
76 (0 0.8 0) 0 -0.000998164 0 0.000998164
75 (0 0.825 0) 0 -0.00100285 0 0.00100285
74 (0 0.85 0) 0 -0.00100799 0 0.00100799
73 (0 0.875 0) 0 -0.00101348 0 0.00101348
72 (0 0.9 0) 0 -0.00101923 0 0.00101923
71 (0 0.925 0) 0 -0.00102516 0 0.00102516
70 (0 0.95 0) 0 -0.00103119 0 0.00103119
69 (0 0.975 0) 0 -0.00103713 0 0.00103713
3 (0 1 0) 0 -0.00103506 8.40946e-23 0.00103506
4 (0 0.5 0) 0 -0.00094768 1.23249e-22 0.00094768
81 (0 0.55 0) 0 -0.000971635 0 0.000971635
80 (0 0.6 0) 0 -0.000998457 0 0.000998457
79 (0 0.65 0) 0 -0.00101774 0 0.00101774
78 (0 0.7 0) 0 -0.00103218 0 0.00103218
6 (0 0.75 0) 0 -0.00104293 0 0.00104293
77 (0 0.775 0) 0 -0.00104892 0 0.00104892
76 (0 0.8 0) 0 -0.00105327 0 0.00105327
75 (0 0.825 0) 0 -0.00105815 0 0.00105815
74 (0 0.85 0) 0 -0.00106354 0 0.00106354
73 (0 0.875 0) 0 -0.0010693 0 0.0010693
72 (0 0.9 0) 0 -0.00107536 0 0.00107536
71 (0 0.925 0) 0 -0.00108161 0 0.00108161
70 (0 0.95 0) 0 -0.00108798 0 0.00108798
69 (0 0.975 0) 0 -0.00109426 0 0.00109426
3 (0 1 0) 0 -0.001092 8.94433e-23 0.001092
4 (0 0.5 0) 0 -0.00094768 1.23249e-22 0.00094768
81 (0 0.55 0) 0 -0.000971635 0 0.000971635
80 (0 0.6 0) 0 -0.000998457 0 0.000998457
79 (0 0.65 0) 0 -0.00101774 0 0.00101774
78 (0 0.7 0) 0 -0.00103218 0 0.00103218
6 (0 0.75 0) 0 -0.00104293 0 0.00104293
77 (0 0.775 0) 0 -0.00104892 0 0.00104892
76 (0 0.8 0) 0 -0.00105327 0 0.00105327
75 (0 0.825 0) 0 -0.00105815 0 0.00105815
74 (0 0.85 0) 0 -0.00106354 0 0.00106354
73 (0 0.875 0) 0 -0.0010693 0 0.0010693
72 (0 0.9 0) 0 -0.00107536 0 0.00107536
71 (0 0.925 0) 0 -0.00108161 0 0.00108161
70 (0 0.95 0) 0 -0.00108798 0 0.00108798
69 (0 0.975 0) 0 -0.00109426 0 0.00109426
3 (0 1 0) 0 -0.001092 8.94433e-23 0.001092
4 (0 0.5 0) 0 -0.000998152 1.28457e-22 0.000998152
81 (0 0.55 0) 0 -0.0010233 0 0.0010233
80 (0 0.6 0) 0 -0.0010514 0 0.0010514
79 (0 0.65 0) 0 -0.00107155 0 0.00107155
78 (0 0.7 0) 0 -0.00108661 0 0.00108661
6 (0 0.75 0) 0 -0.00109781 0 0.00109781
77 (0 0.775 0) 0 -0.00110403 0 0.00110403
76 (0 0.8 0) 0 -0.00110855 0 0.00110855
75 (0 0.825 0) 0 -0.00111364 0 0.00111364
74 (0 0.85 0) 0 -0.00111925 0 0.00111925
73 (0 0.875 0) 0 -0.0011253 0 0.0011253
72 (0 0.9 0) 0 -0.00113165 0 0.00113165
71 (0 0.925 0) 0 -0.00113823 0 0.00113823
70 (0 0.95 0) 0 -0.00114494 0 0.00114494
69 (0 0.975 0) 0 -0.00115156 0 0.00115156
3 (0 1 0) 0 -0.00114911 9.48413e-23 0.00114911
4 (0 0.5 0) 0 -0.000998152 1.28457e-22 0.000998152
81 (0 0.55 0) 0 -0.0010233 0 0.0010233
80 (0 0.6 0) 0 -0.0010514 0 0.0010514
79 (0 0.65 0) 0 -0.00107155 0 0.00107155
78 (0 0.7 0) 0 -0.00108661 0 0.00108661
6 (0 0.75 0) 0 -0.00109781 0 0.00109781
77 (0 0.775 0) 0 -0.00110403 0 0.00110403
76 (0 0.8 0) 0 -0.00110855 0 0.00110855
75 (0 0.825 0) 0 -0.00111364 0 0.00111364
74 (0 0.85 0) 0 -0.00111925 0 0.00111925
73 (0 0.875 0) 0 -0.0011253 0 0.0011253
72 (0 0.9 0) 0 -0.00113165 0 0.00113165
71 (0 0.925 0) 0 -0.00113823 0 0.00113823
70 (0 0.95 0) 0 -0.00114494 0 0.00114494
69 (0 0.975 0) 0 -0.00115156 0 0.00115156
3 (0 1 0) 0 -0.00114911 9.48413e-23 0.00114911
4 (0 0.5 0) 0 -0.00104881 1.33652e-22 0.00104881
81 (0 0.55 0) 0 -0.00107515 0 0.00107515
80 (0 0.6 0) 0 -0.00110454 0 0.00110454
79 (0 0.65 0) 0 -0.00112555 0 0.00112555
78 (0 0.7 0) 0 -0.00114122 0 0.00114122
6 (0 0.75 0) 0 -0.00115287 0 0.00115287
77 (0 0.775 0) 0 -0.00115932 0 0.00115932
76 (0 0.8 0) 0 -0.001164 0 0.001164
75 (0 0.825 0) 0 -0.00116928 0 0.00116928
74 (0 0.85 0) 0 -0.00117514 0 0.00117514
73 (0 0.875 0) 0 -0.00118145 0 0.00118145
72 (0 0.9 0) 0 -0.0011881 0 0.0011881
71 (0 0.925 0) 0 -0.00119501 0 0.00119501
70 (0 0.95 0) 0 -0.00120206 0 0.00120206
69 (0 0.975 0) 0 -0.00120902 0 0.00120902
3 (0 1 0) 0 -0.00120639 1.00285e-22 0.00120639
4 (0 0.5 0) 0 -0.00104881 1.33652e-22 0.00104881
81 (0 0.55 0) 0 -0.00107515 0 0.00107515
80 (0 0.6 0) 0 -0.00110454 0 0.00110454