/*--------------------------------*- C++ -*----------------------------------*\
| =========                 |                                                 |
| \\      /  F ield         | OpenFOAM: The Open Source CFD Toolbox           |
|  \\    /   O peration     | Version:  v2012                                 |
|   \\  /    A nd           | Website:  www.openfoam.com                      |
|    \\/     M anipulation  |                                                 |
\*---------------------------------------------------------------------------*/
FoamFile
{
    version     2.0;
    format      ascii;
    class       volSymmTensorField;
    location    "1";
    object      epsilon;
}
// * * * * * * * * * * * * * * * * * * * * * * * * * * * * * * * * * * * * * //

dimensions      [0 0 0 0 0 0 0];


internalField   nonuniform List<symmTensor> 
534
(
(-3.71195e-07 -8.70037e-07 4.14731e-07 1.41207e-06 4.06182e-06 -2.82195e-06)
(-1.0341e-07 -1.86336e-08 -3.32089e-06 1.44287e-06 3.99405e-06 -2.82195e-06)
(-7.78608e-07 -2.09997e-06 1.70015e-06 -2.1806e-06 6.74249e-06 5.08247e-06)
(-2.39574e-08 2.56694e-07 1.47183e-06 5.03311e-06 6.88216e-06 -1.02184e-05)
(-5.10488e-06 1.16585e-06 6.05644e-07 -2.2373e-07 2.97974e-06 -1.15634e-06)
(4.78861e-06 -2.94477e-06 2.60226e-06 1.46808e-06 2.33267e-06 -2.82195e-06)
(1.93924e-06 1.57264e-06 1.9555e-07 -4.67097e-06 1.07155e-05 1.07528e-06)
(-1.64754e-06 -1.23388e-06 -6.30453e-07 6.09218e-06 9.07299e-06 -5.94505e-06)
(8.39361e-08 2.98635e-07 4.77647e-06 5.35749e-07 3.40599e-07 -1.15634e-06)
(1.33105e-07 3.75265e-07 4.75442e-06 1.55974e-07 2.35986e-07 -1.15634e-06)
(2.57579e-07 3.66803e-07 3.15187e-06 -1.14828e-07 2.71117e-06 -1.15634e-06)
(4.72683e-06 -2.33934e-06 1.76287e-06 -2.54585e-06 5.3475e-06 -7.68258e-08)
(-5.26111e-06 2.21875e-06 2.87658e-06 4.32367e-06 6.80462e-06 -2.73673e-06)
(1.04635e-06 2.7808e-06 3.41393e-06 5.98085e-06 6.75959e-06 -9.22517e-06)
(-3.917e-07 -1.81024e-06 3.39708e-06 -5.80893e-06 6.77009e-06 5.27624e-06)
(-4.73198e-07 -9.60016e-08 -2.44205e-06 1.54346e-06 4.67179e-06 -2.82195e-06)
(1.82964e-07 -2.15054e-07 3.29895e-06 1.30032e-06 1.57921e-06 -2.82195e-06)
(-3.7851e-07 1.52571e-07 5.36289e-06 9.01316e-07 1.07914e-06 -1.15634e-06)
(-3.99654e-06 1.93566e-06 -2.96287e-07 1.9408e-06 8.20717e-06 -4.6188e-06)
(3.63537e-06 -1.91382e-06 2.98203e-07 1.00578e-06 9.15892e-06 -1.33857e-07)
(-6.33277e-06 2.38316e-06 -6.71957e-07 4.37243e-07 4.0413e-06 -7.41958e-07)
(6.93402e-06 -1.64226e-06 -4.31637e-07 -1.27872e-07 4.10963e-06 -3.38177e-06)
(-5.45368e-07 4.23351e-07 9.9937e-07 9.78647e-07 8.47914e-07 -1.95486e-06)
(7.36279e-06 -3.99343e-06 3.12001e-06 -1.78259e-06 3.69882e-06 -3.05732e-06)
(-8.11234e-06 3.69787e-06 2.89475e-06 3.68701e-06 3.36271e-06 -1.14204e-06)
(-5.12554e-06 1.2961e-06 6.31597e-07 6.53623e-07 2.5808e-06 -1.15634e-06)
(4.37009e-06 3.18092e-07 2.67903e-06 5.10513e-08 1.15259e-06 -2.82195e-06)
(1.08657e-06 -2.35404e-06 2.29178e-06 1.09544e-06 8.71941e-07 -2.00384e-06)
(-1.93379e-06 2.80558e-06 1.96197e-06 7.48999e-07 1.3008e-06 -1.47417e-06)
(-2.4591e-07 -1.81417e-07 3.89259e-06 1.11014e-06 -8.16043e-07 -2.07735e-06)
(4.71962e-06 -3.52515e-06 3.56498e-07 3.54763e-06 3.051e-06 -3.09587e-06)
(-4.38982e-06 4.08297e-06 1.64611e-07 -2.55917e-06 3.50079e-06 -7.42855e-07)
(-4.60728e-06 -1.18305e-08 1.98882e-06 7.59217e-06 4.14894e-06 -2.31785e-06)
(4.1483e-06 -4.1192e-07 2.21444e-06 -5.77148e-06 4.66488e-06 -2.11242e-06)
(7.73505e-07 7.18969e-07 2.8045e-07 1.97066e-07 7.64216e-06 -2.18166e-06)
(-1.09719e-07 -1.55947e-06 1.87701e-06 -4.94179e-07 1.19258e-06 -1.11102e-06)
(5.68178e-07 1.50004e-06 1.36128e-06 2.74207e-06 1.06939e-06 -3.71237e-06)
(9.54037e-06 -1.17588e-06 2.32222e-06 1.54346e-06 3.46022e-06 -4.73622e-06)
(-1.04868e-05 1.06785e-06 1.83445e-06 1.54346e-06 3.36601e-06 1.86828e-07)
(2.29047e-06 4.74355e-06 -7.89778e-07 7.02388e-07 4.52321e-06 -1.43429e-06)
(-1.53665e-06 -3.46963e-06 -8.47211e-07 -3.25897e-07 4.43131e-06 -2.53976e-06)
(-4.15426e-06 5.79666e-06 3.40852e-06 4.2958e-06 6.23829e-06 -4.91885e-06)
(4.71643e-06 -5.05577e-06 3.78663e-06 -3.76249e-06 6.24339e-06 3.27032e-07)
(3.02637e-06 -4.50529e-06 2.67198e-06 -3.71662e-06 6.9031e-06 -4.63317e-07)
(-2.46183e-06 4.40888e-06 3.04573e-06 5.4055e-06 7.8893e-06 -4.16224e-06)
(3.50327e-06 -4.43833e-06 3.98127e-06 -3.42843e-06 5.80992e-06 4.68302e-07)
(-2.6998e-06 5.53578e-06 4.06388e-06 4.10821e-06 6.06998e-06 -4.63454e-06)
(1.51586e-07 3.2943e-07 3.19321e-06 3.45455e-07 7.85753e-06 -2.13575e-06)
(-4.51245e-07 -1.79891e-07 -2.14364e-06 1.29877e-06 2.0172e-06 -2.82195e-06)
(7.54082e-06 -3.26306e-06 3.3056e-06 -1.01648e-07 -1.41036e-06 -5.29904e-06)
(-7.53898e-06 3.29103e-06 3.15762e-06 1.59876e-06 -3.12702e-07 8.2732e-07)
(4.62514e-06 -1.60931e-06 -8.90287e-08 -9.60993e-07 1.3524e-06 -3.36082e-07)
(-5.14184e-06 1.33955e-06 4.10221e-07 3.17106e-06 1.58104e-06 -3.20215e-06)
(4.67935e-06 7.66319e-07 1.39473e-06 -1.54215e-06 4.97631e-07 -1.94635e-06)
(-5.39995e-06 -1.12745e-06 9.47777e-07 3.97259e-06 2.89063e-07 -2.86793e-06)
(-4.65985e-06 4.76133e-06 7.0128e-07 2.23627e-06 3.38479e-06 -1.57584e-06)
(4.83104e-06 -4.22416e-06 7.98688e-07 -4.37656e-07 3.08847e-06 -2.28535e-06)
(9.37697e-06 -1.5804e-06 1.91611e-07 -1.38155e-06 -6.60977e-07 -4.69868e-06)
(-1.02159e-05 1.35973e-06 -2.32085e-07 3.65114e-06 -8.63838e-07 6.76283e-08)
(9.54037e-06 -1.90609e-06 1.99275e-06 -9.0559e-07 1.93402e-06 -5.61488e-06)
(-1.04868e-05 1.62108e-06 1.4408e-06 3.39898e-06 1.96815e-06 1.23667e-06)
(5.33428e-07 1.13426e-06 8.83738e-06 -6.17956e-07 9.70878e-07 -4.45127e-06)
(-3.6572e-08 4.29689e-08 3.06511e-06 1.2971e-06 5.74513e-07 -3.99015e-06)
(-7.76154e-08 6.57972e-08 3.09794e-06 1.28894e-06 6.86777e-07 -2.60834e-07)
(1.94558e-06 2.89361e-06 4.83809e-06 1.48156e-06 -3.2126e-06 -3.64816e-08)
(-3.31781e-07 4.49269e-07 4.94739e-06 1.14877e-06 -1.68718e-07 -2.07281e-06)
(-8.74849e-07 3.35909e-06 3.67033e-06 -5.98789e-06 3.28694e-06 4.34411e-08)
(-4.49733e-07 3.06523e-07 5.11396e-06 1.15496e-06 -1.72295e-07 -2.07281e-06)
(-1.58171e-06 2.03616e-06 4.38681e-06 1.95514e-07 2.25162e-06 -1.1244e-06)
(-8.05784e-09 4.89611e-07 2.18514e-06 5.26395e-07 3.33253e-06 -2.07281e-06)
(1.09606e-06 -2.51191e-06 2.58261e-06 6.85607e-06 2.44264e-06 -4.16838e-06)
(5.39965e-06 -7.0819e-07 4.33852e-06 -9.03647e-06 6.44502e-07 -7.43969e-07)
(-1.18054e-07 3.40239e-09 7.4526e-06 6.25554e-07 2.3996e-06 -2.8141e-06)
(3.50098e-07 -1.58721e-06 4.28336e-06 5.72459e-06 6.40732e-07 -3.2443e-06)
(1.22829e-06 5.85325e-06 3.77381e-06 -4.04279e-06 -2.8054e-07 -1.29717e-06)
(2.17879e-07 7.58346e-07 5.72409e-06 -1.0354e-06 -1.73735e-06 -2.21905e-06)
(-4.56431e-08 4.14232e-07 2.06805e-06 4.14674e-07 3.21766e-06 -2.07281e-06)
(1.57754e-07 -2.44397e-07 4.09021e-06 -1.0608e-07 -7.22148e-07 -1.36391e-06)
(-1.18069e-07 5.12605e-07 5.71562e-06 -2.16633e-06 -2.52684e-06 -2.83809e-06)
(-1.17316e-06 9.6042e-07 5.22715e-06 3.0101e-06 -2.66319e-06 -1.90378e-06)
(1.58526e-06 7.94147e-08 2.10538e-06 -9.4258e-07 4.05324e-07 -2.38597e-06)
(5.65715e-07 6.36546e-08 2.76973e-06 -9.4258e-07 4.01867e-07 -1.7096e-06)
(6.85923e-08 3.84693e-08 1.50142e-06 -1.73554e-06 3.8868e-07 -1.26002e-06)
(2.63429e-06 2.04541e-07 1.04752e-06 -1.73554e-06 3.7159e-07 -2.80862e-06)
(-6.13877e-08 3.54258e-07 1.88263e-06 5.69828e-07 3.50232e-06 -1.51712e-06)
(-6.31214e-08 3.5059e-07 1.82521e-06 5.78898e-07 3.26783e-06 -2.65999e-06)
(-1.18743e-06 -1.49175e-06 6.10234e-06 -6.0351e-07 -3.73632e-06 -1.67947e-06)
(2.81044e-06 3.18204e-06 3.09431e-06 -2.30392e-06 -3.51675e-07 -2.68929e-06)
(-9.84145e-07 -2.33704e-06 3.08268e-06 1.6645e-06 -6.93925e-07 -1.37e-06)
(2.26698e-06 1.27787e-06 6.64555e-06 -1.29899e-06 -1.15091e-06 -3.17906e-06)
(5.4452e-07 -7.35733e-07 2.99285e-06 1.8474e-06 -8.55138e-07 -2.77369e-06)
(2.00638e-06 1.33498e-06 2.77598e-06 -3.23069e-06 -5.95175e-07 -1.71551e-06)
(-2.82471e-06 -4.1976e-06 1.43126e-06 4.00133e-06 2.31482e-08 1.24727e-06)
(-1.22066e-06 -4.27376e-06 5.51268e-06 3.59642e-06 8.69562e-08 -1.34595e-06)
(5.83104e-07 6.31207e-06 5.14615e-06 -3.48841e-06 -8.04137e-08 -2.64567e-06)
(1.16465e-06 5.93199e-06 1.84734e-06 -2.81516e-06 1.64892e-06 -4.3181e-06)
(1.40675e-06 2.10719e-06 1.65679e-06 -3.84577e-06 -5.26532e-07 -1.70851e-06)
(2.24353e-06 1.63273e-06 3.27623e-06 -4.18303e-06 -5.74842e-07 -4.11194e-06)
(-2.56232e-06 -7.25583e-08 3.76186e-06 4.61981e-06 -1.40874e-06 -1.13865e-06)
(2.78288e-06 3.53116e-06 2.02984e-06 -5.53144e-06 -1.80696e-06 -1.82984e-06)
(-9.66581e-07 -2.5988e-06 2.417e-06 4.11416e-06 -1.86673e-06 -2.06954e-06)
(9.42759e-09 -1.86033e-06 2.10406e-06 2.20933e-06 -6.62641e-07 -2.34992e-06)
(1.12811e-06 1.63368e-06 3.3146e-06 -1.89965e-06 1.07045e-06 -1.90534e-06)
(1.50934e-06 -2.55209e-07 3.4084e-06 1.11747e-06 1.23797e-06 -2.53325e-06)
(-6.8042e-07 7.41534e-07 5.34192e-06 9.39727e-07 -2.97203e-07 -1.32128e-06)
(2.01287e-06 2.00582e-06 5.62693e-06 -1.33649e-06 -5.33003e-07 -2.5756e-06)
(3.26976e-06 1.6522e-06 8.55812e-07 -6.70854e-06 -2.30381e-07 -2.63073e-06)
(-1.04679e-06 -8.89001e-07 1.01615e-06 4.56224e-06 1.93302e-07 -1.13529e-06)
(-9.21392e-07 -1.58235e-06 1.02519e-06 5.5867e-06 -2.30541e-07 -1.83332e-06)
(3.21917e-06 1.92515e-06 7.57314e-07 -7.12789e-06 3.47525e-08 -1.80409e-06)
(-2.17801e-06 -3.75996e-07 4.72727e-06 2.24816e-06 6.12326e-07 -1.68021e-06)
(2.22596e-06 3.92381e-06 1.32819e-06 4.19228e-07 2.80466e-06 -4.68104e-06)
(-5.63739e-07 7.10636e-07 6.43591e-06 1.29728e-09 -5.58146e-07 -1.67985e-06)
(1.22817e-06 4.50835e-06 2.21871e-06 5.51861e-06 3.96716e-06 -6.95077e-06)
(-2.34442e-06 -3.08109e-06 2.13421e-06 5.54196e-06 -8.15948e-07 -1.2996e-06)
(3.50679e-06 3.98247e-06 1.64056e-06 -6.56915e-06 -9.67235e-07 -2.50873e-06)
(1.46931e-06 2.25475e-06 5.221e-06 5.04294e-07 3.35618e-06 -3.17906e-06)
(-4.50513e-07 3.58725e-07 5.47258e-06 1.01304e-06 -3.62529e-06 -1.95486e-06)
(1.33108e-06 6.15484e-07 4.62583e-06 -6.72255e-08 1.42161e-07 -3.17906e-06)
(1.42583e-06 6.03135e-07 1.65393e-06 -2.90758e-06 -6.34504e-07 -1.70903e-06)
(1.42718e-06 4.96033e-07 2.13332e-06 5.98119e-07 -8.75216e-07 -2.36166e-06)
(3.95575e-06 8.93896e-07 2.63149e-08 -8.29119e-06 -1.25929e-08 -1.82962e-06)
(-1.36903e-06 -6.49367e-07 2.78518e-07 5.12542e-06 -5.11551e-08 -1.97558e-06)
(6.7004e-07 1.76864e-06 4.1312e-06 2.30727e-06 9.29809e-08 -4.49294e-06)
(-4.86943e-07 2.70777e-06 1.73358e-06 3.5519e-06 -1.51594e-06 -1.32267e-06)
(3.32871e-06 -2.16505e-06 1.41556e-06 -6.59419e-06 -1.29404e-06 -2.62653e-06)
(3.27667e-06 1.59342e-06 1.02518e-06 -5.88786e-06 -4.28448e-07 -2.29434e-06)
(-1.03718e-06 -9.61763e-07 1.5917e-06 3.96094e-06 -9.31345e-07 -1.39723e-06)
(4.66031e-07 1.38669e-07 2.23752e-06 -5.83005e-07 -4.71863e-07 -1.21942e-06)
(2.09311e-06 3.92244e-07 1.92399e-06 -1.51866e-06 -2.83224e-07 -2.72873e-06)
(4.71206e-07 2.45709e-08 2.37292e-06 5.66494e-07 -1.23036e-06 -1.30653e-06)
(1.88376e-06 1.11608e-06 2.02635e-06 -2.87247e-06 -1.0338e-06 -2.64187e-06)
(-1.45388e-06 -1.18457e-06 3.74422e-06 -2.83708e-07 -2.53187e-09 5.241e-07)
(-1.66643e-06 -2.21754e-06 3.5907e-07 7.887e-06 -1.23036e-06 -2.52394e-06)
(4.11008e-06 2.93895e-06 1.37134e-07 -1.04761e-05 -9.38988e-07 -1.27696e-06)
(1.89698e-07 8.01647e-07 5.49965e-06 6.15517e-07 2.42297e-06 -2.18166e-06)
(1.35067e-06 6.06305e-07 2.98368e-06 -1.49952e-06 -9.80616e-07 -1.29104e-06)
(1.35067e-06 6.06305e-07 2.74716e-06 -1.49952e-06 -8.03652e-07 -2.65022e-06)
(-2.22416e-06 -2.09479e-06 1.01841e-06 5.21676e-06 -1.30673e-06 1.39405e-07)
(3.95061e-06 3.08389e-06 9.62051e-07 -6.28761e-06 -1.40911e-06 -3.6151e-06)
(2.25989e-07 -5.01994e-06 3.65285e-06 2.47802e-06 1.48101e-06 2.57933e-07)
(3.13455e-07 6.24509e-06 4.4368e-06 -1.16514e-06 1.95037e-06 -4.13995e-06)
(3.26816e-06 1.65274e-06 7.91465e-07 -6.70862e-06 -2.27153e-07 -1.78502e-06)
(-1.04778e-06 -8.82004e-07 1.06332e-06 4.55437e-06 -3.91161e-07 -1.84392e-06)
(-2.22513e-06 -5.33267e-06 2.54286e-06 -3.0783e-06 1.68816e-06 1.7685e-06)
(2.22897e-06 2.82599e-06 2.65749e-06 -6.15754e-06 -1.20667e-06 -2.39562e-06)
(8.76256e-08 -1.54493e-06 3.26103e-06 4.97565e-06 -1.10388e-06 -1.42788e-06)
(2.74847e-06 3.74506e-06 1.8825e-06 -6.79038e-06 -1.1094e-06 -1.787e-06)
(-8.39061e-07 -3.0481e-06 2.22147e-06 5.49504e-06 -9.08664e-07 -2.12806e-06)
(1.55418e-06 7.89343e-08 2.04983e-06 -9.4258e-07 3.89797e-07 -1.18906e-06)
(1.55418e-06 7.89343e-08 1.59279e-06 -9.4258e-07 3.89797e-07 -3.0556e-06)
(-7.73071e-07 -2.51423e-06 5.26762e-06 1.80348e-06 -2.05936e-06 -1.25987e-06)
(1.187e-06 2.90177e-06 4.66705e-06 -1.32098e-06 -1.30105e-06 -2.76764e-06)
(7.84428e-06 5.22647e-06 6.57829e-06 -2.91697e-06 6.80777e-07 -2.21177e-06)
(-1.72699e-06 -5.50427e-06 1.79559e-06 3.68466e-06 1.56184e-06 7.32057e-07)
(3.29631e-06 1.46786e-06 9.60826e-07 -5.57988e-06 -6.43406e-07 -2.87645e-06)
(-1.10712e-06 -5.05638e-07 1.27691e-06 2.66014e-06 -6.33964e-07 -9.72807e-07)
(4.70187e-07 5.47464e-06 4.89797e-06 2.56969e-06 -5.58073e-06 -2.09949e-06)
(-9.45291e-07 -1.91469e-06 5.39867e-06 1.29528e-07 -4.27413e-06 -1.78249e-06)
(4.47304e-07 3.02727e-06 3.79949e-06 5.66257e-07 2.79242e-06 -2.72308e-06)
(-1.82338e-06 -3.41758e-06 2.63685e-06 -2.81643e-06 3.06471e-06 3.44029e-06)
(2.87762e-06 5.4688e-06 1.75454e-06 -7.03763e-06 -2.58503e-06 -1.59306e-06)
(-2.59749e-06 -5.09008e-06 1.94859e-06 6.20458e-06 -3.10098e-06 -2.05756e-06)
(-2.97333e-07 -1.6998e-06 3.54135e-06 4.78086e-07 2.79187e-06 -1.50196e-06)
(3.13228e-06 6.39967e-06 2.2031e-06 -3.94112e-06 -1.38406e-06 -7.72721e-06)
(-2.70988e-06 -2.28187e-06 2.07193e-06 5.26505e-06 -5.82723e-07 -1.30429e-06)
(3.96126e-06 3.03701e-06 1.59114e-06 -6.37871e-06 -9.01667e-07 -2.54983e-06)
(2.66537e-06 1.27904e-07 1.5601e-06 -3.73634e-06 7.72284e-07 -2.13899e-06)
(2.97167e-06 2.78064e-06 1.93715e-06 -2.64497e-06 -1.11184e-06 -4.27494e-06)
(-1.09557e-06 -2.01812e-06 2.3095e-06 1.45715e-06 -7.47727e-07 5.48627e-07)
(8.72949e-07 -1.27907e-06 1.90149e-06 2.74073e-06 8.436e-07 -1.2011e-06)
(1.55577e-06 1.92472e-06 1.40081e-06 -3.90055e-06 6.10422e-07 -2.44955e-06)
(1.12545e-06 6.70775e-06 3.43566e-06 6.00525e-07 5.32574e-06 -3.54697e-06)
(1.66518e-06 1.91625e-06 1.55364e-06 -5.37902e-06 1.60716e-06 -1.70308e-06)
(6.16147e-07 -5.82793e-07 2.09491e-06 2.57714e-06 8.36367e-07 -2.2947e-06)
(3.38248e-07 6.35906e-06 5.41244e-06 -3.49625e-06 -3.61885e-06 -1.15336e-06)
(1.10667e-07 -4.77118e-06 4.72737e-06 3.76543e-06 -4.394e-06 -2.81672e-06)
(1.43149e-06 2.01779e-07 1.72161e-06 -1.03017e-06 2.6209e-07 -2.12012e-06)
(1.43149e-06 2.01779e-07 2.06791e-06 -1.03017e-06 9.5594e-08 -1.9313e-06)
(-9.19872e-07 2.82429e-07 2.22131e-06 2.09052e-06 7.45312e-07 -1.78056e-06)
(-6.30347e-06 4.49783e-06 5.27563e-06 4.16686e-06 -3.12421e-06 -3.47128e-07)
(1.42606e-06 5.8237e-07 2.00048e-06 -1.61747e-06 6.98733e-07 -1.19791e-06)
(1.42606e-06 5.8237e-07 1.62886e-06 -1.61747e-06 9.06869e-08 -3.04675e-06)
(1.59409e-06 2.44058e-06 2.74615e-06 -3.21233e-06 -3.67999e-06 -2.29958e-06)
(-1.18547e-06 -1.97955e-06 3.32509e-06 3.25035e-06 -3.88371e-06 -1.59684e-06)
(-1.74461e-06 -5.09813e-06 3.61804e-06 4.46462e-07 5.30797e-06 -8.19437e-07)
(-2.21894e-06 -2.08144e-06 1.00504e-06 4.22474e-06 -2.1819e-07 -1.05474e-06)
(3.9699e-06 2.93592e-06 8.02927e-07 -5.42882e-06 -5.18634e-07 -2.69699e-06)
(5.6667e-06 -3.68413e-06 5.14913e-06 -2.17588e-06 -2.86452e-06 -3.30108e-06)
(3.22558e-06 1.7494e-06 4.80604e-07 -6.91861e-06 7.65968e-08 -2.20907e-06)
(-1.83006e-06 -1.30781e-06 1.0238e-06 5.58545e-06 -3.19872e-08 -1.35281e-06)
(4.94287e-07 -2.87529e-07 2.27811e-06 3.95705e-06 -9.39203e-07 -1.40924e-06)
(1.85241e-06 1.20112e-06 1.67354e-06 -5.46952e-06 -6.39361e-07 -2.30129e-06)
(5.84082e-06 4.26474e-06 4.87549e-06 -2.25906e-06 5.75303e-07 -3.62533e-06)
(3.08907e-06 5.18612e-06 1.84848e-06 -8.71237e-06 -1.93809e-06 -1.84208e-06)
(-2.83066e-06 -4.7029e-06 2.06958e-06 8.31984e-06 -2.30159e-06 -1.75757e-06)
(-3.20931e-06 6.35601e-06 1.0572e-06 -7.05587e-07 -7.48307e-07 1.37948e-06)
(-6.84315e-06 -2.37369e-06 4.0759e-06 3.57911e-06 -1.80987e-06 4.93501e-07)
(3.36603e-06 4.15473e-06 1.85113e-06 -4.89672e-06 -1.70132e-06 -4.2681e-06)
(-3.20707e-06 -3.5116e-06 2.19994e-06 4.82781e-06 -1.86519e-06 7.87249e-07)
(2.66537e-06 1.25007e-07 1.53036e-06 -3.90775e-06 -1.28106e-07 -2.56615e-06)
(2.85938e-06 -5.34906e-06 1.06932e-06 2.32852e-06 -6.82718e-07 -5.3748e-06)
(2.88677e-06 6.34302e-06 3.21611e-06 -3.15933e-06 1.36684e-06 -3.93604e-06)
(-3.49802e-06 4.94599e-06 4.18055e-06 -5.17701e-06 -5.15147e-07 -7.42855e-07)
(3.2074e-06 -4.05219e-06 4.11315e-06 6.11393e-06 -7.05646e-07 -3.09587e-06)
(1.79501e-06 1.62842e-06 2.04307e-06 -5.51855e-06 -1.00793e-06 -2.86814e-06)
(5.18342e-07 -4.22051e-07 2.43977e-06 2.6564e-06 -6.57605e-07 -1.00753e-06)
(-9.19872e-07 3.32248e-07 1.71002e-06 2.28836e-06 -2.89894e-07 -1.36962e-06)
(2.66537e-06 8.05993e-07 7.81586e-07 -5.50764e-06 6.13685e-07 -2.26314e-06)
(-2.13345e-06 -2.70897e-06 6.08619e-07 7.38236e-06 -1.06456e-06 -1.90626e-06)
(3.8984e-06 3.5139e-06 6.33249e-07 -9.28685e-06 -1.05797e-06 -1.89106e-06)
(3.82779e-06 8.91145e-07 3.1469e-07 -8.22289e-06 2.66744e-07 -1.38824e-06)
(-1.41869e-06 -2.6007e-07 5.77524e-07 5.73938e-06 -1.10618e-07 -2.35218e-06)
(-4.49727e-06 6.13961e-06 3.54255e-06 -6.82862e-07 6.78034e-08 -7.28292e-07)
(3.94128e-06 3.20776e-06 8.92367e-07 -7.9015e-06 -1.62084e-06 -2.39528e-06)
(-2.22042e-06 -2.13486e-06 1.15667e-06 5.64326e-06 -1.8583e-06 -1.47083e-06)
(3.88624e-06 -5.13982e-06 3.36472e-06 2.33846e-06 1.01412e-07 -3.30596e-06)
(-9.19872e-07 -5.62025e-07 7.26726e-07 4.13491e-06 6.30718e-07 -1.57759e-06)
(-6.58649e-07 2.68195e-06 5.59989e-06 2.39384e-06 -1.51382e-06 -1.57584e-06)
(8.77328e-07 4.03156e-06 2.58002e-06 -6.0316e-06 -2.27914e-06 -8.42403e-07)
(-1.05698e-06 -2.7495e-06 2.67394e-06 6.87401e-06 -2.22189e-06 -3.36511e-06)
(2.13685e-06 9.61026e-07 4.13031e-07 -5.50764e-06 7.26549e-07 -2.51965e-06)
(-3.74783e-06 -5.21503e-06 4.63752e-06 3.67482e-06 8.90897e-07 -1.05325e-06)
(-8.3435e-07 -5.87112e-07 4.95403e-07 4.13491e-06 7.49703e-07 -1.30717e-06)
(3.16831e-07 -1.89199e-06 5.31155e-06 -5.87785e-07 -1.42439e-06 -2.28535e-06)
(-2.8813e-06 -4.40442e-06 2.09919e-06 6.73754e-06 -7.2662e-07 -5.66303e-07)
(2.59639e-06 5.82607e-06 2.20759e-06 -5.88315e-06 -6.36619e-07 -3.15392e-06)
(-3.62735e-06 -5.18123e-06 2.55432e-06 5.99713e-06 -2.21429e-07 -8.29642e-07)
(3.04406e-06 6.69777e-06 3.8584e-06 -4.34863e-06 1.70948e-06 -1.69665e-06)
(6.13829e-07 6.52076e-06 3.88615e-06 -5.82097e-06 -2.7897e-06 -1.41994e-06)
(-1.16678e-06 -3.70361e-06 3.8378e-06 6.79365e-06 -2.38757e-06 -2.83287e-06)
(-2.63667e-06 7.25546e-06 4.05251e-06 6.05709e-07 -3.19075e-07 -1.43429e-06)
(2.70823e-06 -5.97412e-06 3.93664e-06 4.38206e-07 -3.52542e-07 -2.53976e-06)
(2.86238e-06 1.76736e-06 1.54052e-07 -6.70346e-06 5.71604e-08 -2.4968e-06)
(-9.03564e-07 -1.34541e-06 5.60475e-07 5.04847e-06 1.78924e-07 -1.18965e-06)
(3.42723e-06 9.52053e-07 -3.4224e-07 -8.1747e-06 5.14282e-07 -2.08612e-06)
(-1.2835e-06 -7.03928e-07 4.71953e-08 6.17245e-06 4.18923e-07 -1.70516e-06)
(1.14253e-06 1.64511e-06 3.56253e-06 -3.2829e-06 -1.09335e-06 -1.64396e-06)
(2.96863e-06 3.08292e-06 3.60584e-06 -4.97206e-06 -2.87243e-06 -2.80824e-06)
(1.5391e-06 -3.8471e-07 3.6841e-06 1.02864e-06 -1.32713e-06 -2.83704e-06)
(-1.1172e-06 -2.18134e-06 3.69186e-06 3.21706e-06 -3.66131e-06 -1.22909e-06)
(3.06718e-06 5.43974e-07 5.42776e-06 -2.96042e-07 3.93962e-07 -3.17906e-06)
(3.45104e-07 2.55607e-06 6.00085e-06 -3.96066e-06 3.96024e-06 -2.61379e-06)
(1.9501e-06 -1.01509e-06 7.60864e-06 3.49046e-06 1e-06 -1.77287e-06)
(2.73682e-06 9.6607e-07 4.365e-06 -2.83754e-07 3.12512e-06 -3.17906e-06)
(1.74531e-06 8.73335e-07 4.0014e-06 -2.19766e-06 1.19792e-06 -1.90875e-06)
(2.26971e-06 -1.89013e-07 3.62362e-06 5.93699e-07 9.62037e-07 -3.67243e-06)
(1.87881e-06 1.11538e-06 3.63496e-06 -1.98823e-06 1.16461e-06 -2.63896e-06)
(-1.13848e-06 -9.6008e-07 6.6486e-06 5.57006e-07 -3.00447e-07 -2.61379e-06)
(1.61758e-06 -8.94919e-07 5.30396e-06 5.43325e-07 -4.3217e-07 -2.61379e-06)
(1.9304e-06 -1.38151e-07 5.31773e-06 -3.59253e-07 2.67225e-07 -3.17906e-06)
(3.90717e-06 -9.16859e-08 3.06443e-06 5.93699e-07 9.15745e-07 -3.51093e-06)
(-1.67259e-06 -2.54012e-07 5.56778e-06 4.55422e-07 2.47714e-06 -2.61379e-06)
(1.82405e-06 5.90682e-07 3.65732e-06 -3.58972e-06 -1.51686e-07 -1.96435e-06)
(-2.71328e-06 -3.46621e-06 7.25283e-06 2.89427e-06 3.79304e-06 -1.25404e-07)
(5.44924e-06 5.05072e-06 5.77654e-06 -2.58162e-06 2.73793e-06 -4.41018e-06)
(2.18582e-06 5.58354e-07 3.54574e-06 -3.07842e-06 -3.89797e-07 -2.34341e-06)
(4.75533e-06 4.76052e-06 5.60546e-06 -5.64353e-07 6.83451e-07 -2.61379e-06)
(3.78368e-06 8.53243e-07 5.83543e-06 -5.91565e-07 2.39702e-06 -1.77287e-06)
(6.38745e-06 4.68928e-06 3.57934e-06 -3.29287e-06 3.39309e-06 -2.61379e-06)
(-6.75988e-06 -1.14e-06 6.2409e-06 3.90974e-06 6.7966e-07 -1.77287e-06)
(1.55882e-06 3.19204e-07 3.63297e-06 -3.4443e-06 -5.04705e-07 -1.71227e-06)
(4.73195e-06 1.76078e-07 4.38116e-06 -4.26913e-06 -1.84638e-07 -1.88044e-06)
(3.93842e-06 1.53114e-06 4.01885e-06 -3.82231e-06 1.65223e-06 -2.6551e-06)
(1.11927e-07 -1.2174e-06 4.31823e-06 6.50985e-07 1.31978e-06 -9.01921e-07)
(2.23698e-06 4.00818e-06 5.65339e-06 6.74133e-06 3.31146e-06 -1.77287e-06)
(2.06946e-06 3.84896e-07 3.70633e-06 -3.02276e-06 -4.34819e-07 -2.30763e-06)
(1.68962e-06 1.22867e-06 3.27511e-06 -6.09135e-07 1.14003e-06 -2.7084e-06)
(3.5328e-06 5.04487e-07 2.5032e-06 -6.08635e-06 6.20129e-07 -7.43361e-07)
(-1.38447e-06 -1.44557e-06 3.61131e-06 -3.27284e-07 9.0494e-07 -2.53358e-06)
(3.40948e-07 1.42411e-06 3.97574e-06 -3.22996e-06 1.05914e-06 -2.06292e-06)
(3.57414e-06 -3.63875e-06 5.39875e-06 2.67661e-06 1.61167e-06 -5.08406e-07)
(6.50262e-06 1.8905e-06 4.0998e-06 -4.17588e-06 1.95922e-06 -2.86892e-06)
(-7.47474e-06 -2.99229e-06 6.9751e-06 5.03783e-07 3.60714e-06 -1.77287e-06)
(-2.97758e-07 7.04491e-07 5.01755e-06 -5.20212e-07 6.96682e-06 1.157e-06)
(-5.18339e-06 -5.43519e-06 7.78506e-06 -4.59256e-07 4.88075e-06 1.157e-06)
(-1.23132e-06 1.38475e-07 7.11606e-06 2.21073e-06 1.4828e-06 -5.26542e-07)
(9.48938e-07 -6.88115e-07 4.2573e-06 9.78152e-07 1.39204e-06 -2.52904e-06)
(2.21185e-06 4.26754e-06 5.24065e-06 7.84873e-06 6.21607e-06 -2.90693e-06)
(-1.21394e-06 -5.20273e-06 5.09477e-06 -6.06809e-06 7.92501e-06 1.157e-06)
(4.32074e-07 -3.19918e-06 5.74073e-06 -4.12371e-08 3.96513e-06 -1.77287e-06)
(5.7927e-06 4.6152e-06 2.45842e-06 2.4768e-06 9.36437e-06 -2.90693e-06)
(2.52992e-06 2.52351e-07 1.55324e-06 -5.50764e-06 3.33379e-07 -1.63962e-06)
(-3.50928e-07 5.44207e-07 4.99108e-06 2.11824e-07 1.28534e-06 -3.56948e-06)
(-6.29105e-07 3.17086e-07 5.02591e-06 3.72686e-06 5.76829e-06 -2.90693e-06)
(-1.90284e-06 -1.50456e-06 4.99297e-06 2.4248e-06 1.62828e-06 -5.03934e-07)
(1.88355e-06 1.00217e-06 3.5672e-06 -4.87906e-06 2.74805e-07 -2.09434e-06)
(-5.81735e-07 -6.24198e-07 9.58882e-06 1.13684e-06 -3.85622e-08 9.40046e-07)
(-2.59219e-06 -8.79247e-07 3.13844e-06 3.88867e-06 -8.70586e-07 -1.43398e-06)
(6.33621e-06 7.2653e-07 4.5755e-06 -4.20578e-06 -2.89355e-07 -2.09096e-06)
(9.09976e-07 5.0281e-08 3.17569e-06 -5.06967e-07 -2.48325e-07 -1.90714e-06)
(7.54309e-06 9.42556e-06 8.0695e-06 6.38594e-06 1.1708e-05 -5.53998e-06)
(-6.08953e-06 -2.70142e-07 1.12083e-05 3.84184e-07 8.07524e-07 -3.64216e-06)
(-8.97703e-07 -9.18789e-07 5.27019e-06 4.367e-07 1.95413e-06 -3.64216e-06)
(6.1113e-06 4.11774e-06 3.65502e-06 -3.58778e-06 -7.57527e-07 -2.30034e-06)
(4.29173e-06 2.08994e-06 5.55886e-06 -3.48822e-06 3.58862e-07 -3.95303e-06)
(1.47654e-06 9.63672e-07 5.587e-06 5.93699e-07 1.48129e-06 -1.09355e-07)
(1.8772e-06 -3.10492e-07 3.80354e-06 5.93699e-07 1.19617e-06 -2.90798e-06)
(1.59837e-06 -4.65192e-06 8.87397e-06 -1.64577e-06 3.92939e-06 -3.64216e-06)
(-2.75674e-06 -3.32415e-06 2.65672e-06 -2.2073e-06 2.56152e-06 -3.1284e-06)
(3.52279e-07 -2.80553e-07 4.50401e-06 2.84328e-08 -7.57197e-07 -3.64216e-06)
(2.27167e-06 1.60914e-07 2.70061e-06 -2.72191e-06 3.4267e-07 -1.71251e-06)
(1.04751e-06 4.02855e-07 5.08075e-06 -1.81948e-06 -8.53838e-07 -1.85414e-06)
(-4.1423e-07 -1.4888e-09 6.86329e-06 1.4975e-07 2.18172e-06 -9.21713e-07)
(-2.56553e-06 -1.00872e-06 6.27959e-06 3.42957e-06 1.64476e-06 -3.65171e-06)
(-6.54057e-06 -3.15109e-06 4.60983e-06 2.31142e-07 -2.58688e-06 -2.06917e-06)
(3.54374e-06 3.56992e-07 2.59991e-06 -4.51864e-06 1.95015e-07 -1.72505e-06)
(-3.15171e-06 -2.04127e-06 4.82857e-06 3.12729e-06 1.98848e-06 -8.73142e-07)
(5.84609e-06 4.62266e-06 8.97989e-06 4.78269e-06 4.35174e-06 -3.64216e-06)
(-8.28563e-07 -7.51055e-07 5.02873e-06 -4.41364e-07 7.30969e-06 -1.71251e-06)
(1.67673e-06 6.00759e-06 5.52696e-06 4.59594e-06 7.08546e-06 -1.71251e-06)
(4.55551e-06 1.14918e-06 7.72728e-06 -2.39845e-06 3.59145e-06 -1.71251e-06)
(-4.96465e-07 -5.68823e-07 2.24292e-06 2.22407e-06 -2.86893e-07 -1.3513e-06)
(7.8686e-06 1.397e-06 7.44676e-06 -1.9699e-06 3.24201e-07 -3.38426e-06)
(7.94106e-06 5.24091e-07 7.50283e-06 -7.72095e-06 4.77152e-06 -4.95418e-06)
(-9.18634e-07 1.65357e-06 5.05166e-06 -2.27703e-06 6.09431e-06 -1.71251e-06)
(-1.94508e-06 3.1391e-08 3.23301e-06 3.84792e-06 9.5052e-08 -1.94438e-06)
(9.31185e-07 1.63617e-07 2.88679e-06 -1.03281e-06 3.78001e-07 -2.13411e-06)
(6.95564e-08 3.88485e-07 3.42542e-06 2.83312e-08 -1.50745e-06 -4.37075e-06)
(1.18475e-07 2.57081e-07 6.33298e-06 5.46131e-08 -1.83782e-06 -2.81111e-06)
(-2.85718e-06 1.10985e-06 7.77415e-06 -1.75217e-06 3.57785e-06 -1.71251e-06)
(-2.18799e-06 4.6716e-07 8.85045e-06 4.02399e-07 4.43274e-07 6.56269e-07)
(-3.73454e-06 1.79761e-06 6.8326e-06 5.09972e-06 2.98169e-08 -7.48639e-07)
(-1.58984e-06 -5.7077e-06 8.42139e-06 -3.27561e-06 -7.4954e-08 -6.44907e-07)
(3.74158e-06 1.58708e-07 1.2122e-06 -7.04444e-06 7.05282e-08 -2.17768e-06)
(-4.4267e-07 -5.68382e-08 3.58454e-06 -2.07131e-06 5.32887e-06 1.157e-06)
(3.00233e-07 -3.34919e-07 4.35469e-06 2.22888e-06 -1.17769e-07 -1.90631e-06)
(1.61515e-06 -1.35212e-06 6.11084e-06 1.98197e-07 9.50758e-07 -3.23329e-06)
(6.39088e-06 1.17997e-06 4.08888e-06 -5.23394e-06 2.09704e-07 -2.05424e-06)
(-7.61136e-06 -5.17719e-06 3.28802e-06 -2.84042e-06 3.50729e-06 3.48414e-06)
(2.54215e-06 8.51397e-08 1.67582e-06 -3.91042e-06 -1.22345e-07 -2.57115e-06)
(4.11326e-07 4.05983e-07 3.58959e-06 1.62262e-06 5.9614e-08 -2.08014e-06)
(-2.89644e-06 -1.89872e-07 1.62433e-06 5.67496e-06 -3.34557e-08 -1.37828e-06)
(-7.79032e-06 -1.91077e-06 4.49497e-06 3.36606e-06 2.56398e-06 4.24768e-07)
(1.26302e-06 1.32369e-06 1.79778e-06 1.16071e-07 8.8296e-06 -2.90693e-06)
(5.64512e-06 2.26239e-06 4.95873e-06 1.12758e-07 7.14202e-08 -6.02304e-06)
(9.32255e-06 3.02604e-06 2.09975e-06 -4.93903e-06 1.00998e-06 -4.56582e-06)
(-1.269e-06 5.0233e-07 6.64821e-06 -1.18075e-07 2.18771e-06 -4.75078e-07)
(-9.71458e-06 -5.84041e-06 1.19078e-05 -2.24213e-06 4.7203e-06 4.24338e-06)
(1.17091e-05 5.94532e-06 1.18762e-05 8.12954e-07 5.65484e-06 -2.02893e-06)
(5.1098e-06 2.79427e-06 4.22349e-06 -3.27561e-06 2.37049e-06 -4.71369e-06)
(1.38446e-06 6.67951e-07 4.83974e-06 2.78647e-07 1.60138e-06 -1.50103e-06)
(1.0766e-06 -3.1427e-07 3.71959e-06 1.93202e-06 -7.77557e-07 -2.77644e-06)
(4.03479e-08 3.20013e-07 2.31623e-06 2.09052e-06 7.61011e-07 -1.87605e-06)
(2.61803e-06 2.10448e-07 2.5626e-06 -3.73634e-06 7.61154e-07 -2.47881e-06)
(2.07173e-06 3.62395e-07 5.07218e-06 -1.64167e-06 3.66774e-08 -4.4837e-06)
(-2.21263e-06 5.61057e-07 3.88405e-06 1.67455e-06 -2.82181e-07 -4.81752e-07)
(-9.09787e-08 4.50993e-07 2.86024e-06 2.38344e-06 -6.47634e-07 -2.35871e-06)
(-4.25316e-06 -5.07751e-06 5.45267e-07 -3.01263e-06 3.79988e-06 4.92573e-06)
(1.46383e-06 7.75376e-08 2.87092e-06 -9.4258e-07 4.04995e-07 -1.7096e-06)
(4.52139e-06 1.46571e-06 1.03158e-06 -5.15795e-06 -6.50054e-07 -2.71006e-06)
(-1.43599e-05 -4.01531e-06 9.88961e-06 3.55375e-06 4.6251e-06 8.49614e-09)
(1.2289e-05 5.74736e-06 5.73438e-06 -3.11517e-06 3.78666e-06 -6.24424e-06)
(1.20829e-05 -4.97951e-06 8.02376e-06 0 -9.69674e-07 -3.88096e-06)
(-1.52653e-05 -5.49577e-07 9.02643e-06 3.26674e-07 4.97371e-07 1.14517e-06)
(6.70152e-06 -2.19527e-06 8.92846e-06 -3.27561e-06 1.57798e-06 -2.00384e-06)
(-7.32912e-06 -3.46225e-06 2.95394e-06 5.20264e-06 1.28561e-06 -1.52546e-06)
(5.37349e-06 3.21558e-06 4.27552e-06 -3.66581e-06 1.7328e-07 -2.79327e-06)
(-3.02008e-07 1.25369e-07 4.69494e-06 1.75781e-06 -3.65068e-07 -7.84717e-07)
(-7.54921e-06 3.34746e-07 5.50785e-06 3.50088e-06 -3.00124e-07 -9.71731e-07)
(-3.31301e-07 -8.21919e-07 3.77373e-06 -9.4258e-07 5.54244e-07 -1.95979e-06)
(-3.69263e-06 -1.49371e-06 1.20266e-06 3.81325e-06 -9.85306e-07 -1.35181e-06)
(-2.1621e-06 -2.51207e-07 1.00827e-05 2.94522e-07 7.57928e-07 -2.05854e-07)
(-1.8956e-06 -9.09123e-07 2.72197e-06 5.21526e-06 7.13145e-07 -2.1129e-06)
(1.56115e-06 7.90421e-08 2.11596e-06 -9.4258e-07 4.05651e-07 -2.38597e-06)
(8.13694e-06 1.37239e-06 7.96477e-06 -4.42802e-06 -1.2102e-07 -2.44856e-06)
(-5.675e-06 -1.24225e-06 9.28388e-06 3.97827e-06 1.23296e-06 -1.93527e-06)
(7.21935e-06 4.43428e-06 2.40606e-06 9.10011e-08 3.22247e-06 -4.69714e-06)
(1.08325e-05 5.20128e-07 1.10276e-05 -1.63976e-06 1.63884e-07 -8.65146e-07)
(6.66305e-06 6.06593e-06 4.06194e-06 -2.66313e-06 1.74179e-06 -4.01557e-06)
(1.2695e-06 1.15277e-07 4.8122e-06 5.93699e-07 1.44717e-06 -1.50746e-06)
(-7.35056e-06 -3.56752e-06 5.12337e-06 2.80503e-06 9.20414e-08 9.54999e-07)
(1.68967e-06 -1.26322e-06 2.54258e-06 -4.09986e-06 -5.12841e-07 -1.69823e-06)
(1.09261e-06 1.32469e-07 3.25607e-06 -1.04061e-06 2.13647e-07 -1.91701e-06)
(4.22825e-06 3.20883e-06 3.79227e-06 -2.71833e-06 2.72215e-07 -3.64218e-06)
(-6.50216e-06 -2.42166e-06 4.4619e-06 3.52684e-06 -1.70247e-06 4.87423e-07)
(-1.20517e-07 -5.99149e-07 4.29823e-06 4.62618e-06 1.03245e-06 -1.36543e-06)
(-6.16061e-06 -1.69709e-06 4.18751e-06 6.25408e-06 2.13362e-06 -8.6164e-07)
(-5.90179e-06 -2.74648e-06 2.9188e-06 -3.86565e-07 1.88576e-06 1.77738e-06)
(-2.37407e-06 1.42109e-07 4.50699e-06 5.93699e-07 1.46596e-06 -1.4831e-07)
(-1.00772e-05 -3.97947e-06 5.86243e-06 1.9729e-06 1.55958e-06 1.36878e-06)
(-4.30325e-06 -6.01869e-06 2.88115e-06 1.99243e-06 -5.76195e-07 -1.32919e-06)
(-4.19717e-06 -2.31437e-06 2.44734e-06 1.45064e-06 -7.20163e-07 5.52016e-07)