/*--------------------------------*- C++ -*----------------------------------*\
| =========                 |                                                 |
| \\      /  F ield         | OpenFOAM: The Open Source CFD Toolbox           |
|  \\    /   O peration     | Version:  v2012                                 |
|   \\  /    A nd           | Website:  www.openfoam.com                      |
|    \\/     M anipulation  |                                                 |
\*---------------------------------------------------------------------------*/
FoamFile
{
    version     2.0;
    format      ascii;
    class       volSymmTensorField;
    location    "11";
    object      epsilon;
}
// * * * * * * * * * * * * * * * * * * * * * * * * * * * * * * * * * * * * * //

dimensions      [0 0 0 0 0 0 0];


internalField   nonuniform List<symmTensor> 
7666
(
(0.000418346 -0.000132293 1.12757e-16 -0.000215276 -6.97074e-17 0)
(0.00118654 -0.000487081 1.45717e-16 -0.000327511 -4.08826e-16 0)
(0.00496833 -0.00198594 1.54095e-14 -0.00280022 -8.96982e-15 0)
(0.00143027 -0.000630057 -5.29958e-16 -0.000517987 -3.1927e-16 0)
(0.0022437 -0.000494254 2.24386e-15 -0.00120967 6.31439e-16 0)
(0.00275379 -0.000116509 -5.32126e-15 -0.00130722 1.88998e-15 0)
(0.00146816 -9.72154e-05 -1.76335e-15 -0.000441788 -1.34116e-16 0)
(0.00151963 -0.000583762 -4.09915e-15 -0.000551721 -5.10117e-16 0)
(0.00326192 2.34578e-05 -5.68946e-15 -0.00141792 -1.3667e-14 0)
(0.0014251 -0.000178049 -1.73125e-15 -0.00037315 -1.30999e-16 0)
(0.000968679 -0.000573912 -6.08021e-16 -0.000317539 1.47953e-16 0)
(0.00161835 -0.000244141 -4.11997e-16 -0.000637678 -2.48174e-16 0)
(0.00147848 -0.000596879 -1.08854e-15 -0.000532755 -5.49691e-16 0)
(0.00136447 -0.000494934 -7.51135e-16 -0.000415325 -1.54499e-17 0)
(0.00142772 -6.81578e-05 8.79505e-16 -0.000363565 9.86895e-16 0)
(0.00217977 -0.000458897 -1.81105e-15 -0.00120349 -1.42941e-15 0)
(0.00151899 -0.000578948 -2.24647e-15 -0.000543231 -3.39193e-16 0)
(0.00290732 -9.0141e-05 3.77432e-15 -0.00124644 -7.70846e-15 0)
(0.00169716 -0.000375535 -2.25254e-15 -0.000669343 -1.6984e-16 0)
(0.00128181 -0.000326122 -1.21431e-16 -0.00032233 -7.92037e-16 0)
(0.000994028 -0.000145462 -1.15359e-15 -0.000189017 1.3375e-16 0)
(0.00212602 -0.000478742 5.0706e-15 -0.000907539 4.37259e-16 0)
(0.00142216 -0.000505087 -2.6628e-16 -0.000456151 7.80517e-16 0)
(0.00132547 -0.000706497 6.49654e-16 -0.000515518 -9.87979e-17 0)
(0.00270745 -2.64174e-05 -1.08659e-14 -0.00138689 -1.94072e-16 0)
(0.00142702 -6.63663e-05 1.08073e-15 -0.000350807 6.34285e-16 0)
(0.00273377 3.15376e-05 -9.89746e-15 -0.0013754 -1.69894e-15 0)
(0.000775064 -0.000572758 6.67869e-16 -0.000356873 2.23928e-16 0)
(0.00150234 -0.000589396 -1.22298e-15 -0.000531024 -5.31639e-16 0)
(0.00158247 -3.29775e-05 -4.64039e-16 -0.000665081 3.4586e-17 0)
(0.00161453 -3.36986e-05 6.69603e-16 -0.000692055 -4.16767e-16 0)
(0.00291151 -0.000133525 5.53984e-15 -0.00125368 -4.8646e-15 0)
(0.000433431 -0.00046419 -1.73472e-18 -0.000450463 2.10945e-16 0)
(0.00154788 -0.000100766 -1.1215e-15 -0.000604495 2.25406e-16 0)
(0.000448399 -0.000355489 1.7087e-16 -0.000828997 -7.18447e-16 0)
(0.00115415 -0.000364146 6.67001e-16 -0.000284203 3.9797e-16 0)
(0.00114801 -0.000331754 6.72205e-16 -0.000269527 2.14225e-16 0)
(0.00160143 -8.0474e-05 -3.24914e-15 -0.000666667 4.10479e-16 0)
(0.00264767 -0.000297099 7.90167e-15 -0.00118103 2.59298e-15 0)
(0.00143218 -0.000231019 6.85216e-16 -0.000395216 9.35124e-17 0)
(0.00131634 -0.000622991 1.34441e-16 -0.00110606 3.67328e-16 0)
(0.00430105 4.4943e-05 -2.57056e-14 -0.00204045 -8.8562e-15 0)
(0.00430527 8.93409e-05 2.99844e-15 -0.00122277 2.15106e-16 0)
(0.000983362 -0.000712259 7.51135e-16 -0.000480269 -2.27818e-16 0)
(0.00325313 0.000677177 -3.78896e-15 -0.00100433 1.12063e-15 0)
(0.00145653 -7.56336e-05 -2.04697e-16 -0.000432451 1.08838e-15 0)
(0.00292047 -5.16811e-05 6.11273e-15 -0.00127515 3.41242e-15 0)
(0.00142244 -0.000663081 9.88792e-17 -0.00116258 -1.09179e-16 0)
(0.00174096 -0.000669804 1.61329e-15 -0.00114762 -1.21431e-16 0)
(0.000738817 -0.000152619 2.81025e-16 -0.000132214 -1.66764e-17 0)
(0.00070456 -0.000590035 4.82253e-16 -0.000353874 2.77813e-16 0)
(0.00211682 -0.000286043 1.90386e-15 -0.000909793 -1.06414e-15 0)
(0.00148325 -5.74219e-05 1.96024e-16 -0.000475457 -1.33032e-15 0)
(0.00326104 -1.20154e-05 -2.06085e-15 -0.00141253 -6.49567e-15 0)
(0.000910261 -8.49496e-05 -8.76035e-17 -0.000152342 3.15869e-16 0)
(0.00202526 -0.000474729 -9.49761e-16 -0.00112438 -1.50184e-15 0)
(0.000756599 -0.000225946 9.1073e-17 -0.000143044 -1.03291e-16 0)
(0.000709232 -0.000187085 5.24754e-16 -0.000132954 -5.17334e-17 0)
(0.0026302 -7.99157e-05 -8.79938e-16 -0.00147151 -5.372e-15 0)
(0.00276553 -8.29097e-05 -9.77083e-16 -0.00126776 1.94332e-15 0)
(0.000897936 -0.000343438 1.89085e-16 -0.000193792 -2.62214e-16 0)
(0.00160518 -7.6966e-05 -3.66807e-15 -0.000663414 9.66566e-16 0)
(0.00140954 -0.000567434 2.29851e-15 -0.00047265 3.93484e-16 0)
(0.00141352 -0.000579945 1.83187e-15 -0.000484572 1.33926e-16 0)
(0.000707928 -0.000270323 -3.77302e-16 -0.000154151 -3.16624e-16 0)
(0.0018038 -0.000690462 3.40613e-15 -0.00114405 -6.60171e-16 0)
(0.00135334 -0.000186034 1.13711e-15 -0.000301725 3.72871e-16 0)
(0.00075434 -0.000274262 -3.5822e-16 -0.000155534 -3.5675e-16 0)
(0.00249548 -0.000247862 -1.02978e-14 -0.00140094 2.36139e-15 0)
(0.00267083 -8.35064e-05 -5.0706e-15 -0.00149798 -5.4711e-15 0)
(0.00253066 -0.000274369 -9.00712e-15 -0.0013914 9.95298e-16 0)
(0.00133639 -3.07813e-05 1.04083e-15 -0.000147652 4.09778e-16 0)
(0.00134161 -3.41338e-05 6.17562e-16 -0.000164196 8.27988e-16 0)
(0.00156552 -1.61769e-05 1.72085e-15 -0.000659356 -5.73001e-16 0)
(0.00156436 -1.57939e-05 1.91427e-15 -0.000658482 4.03432e-16 0)
(0.00147582 -1.83934e-05 1.38518e-15 -0.000464638 -2.29604e-15 0)
(0.00261204 0.000570988 2.33103e-16 -0.000926174 3.57353e-16 0)
(0.00134354 -0.00052846 -1.34441e-16 -0.000415059 5.41803e-16 0)
(0.0013408 -0.000539368 -1.44329e-15 -0.000429406 8.00141e-16 0)
(0.000898547 -0.000345281 2.07299e-16 -0.000201011 3.47792e-16 0)
(0.00149685 -0.000189192 1.05471e-15 -0.000488228 1.58131e-16 0)
(0.00135479 -8.86037e-05 -9.67976e-16 -0.000220589 7.5741e-16 0)
(0.00124192 -0.000765933 6.58328e-16 -0.000654966 1.12269e-16 0)
(0.00375245 9.65844e-05 -3.82073e-16 -0.00101791 4.1616e-15 0)
(0.00169426 -0.000195298 3.37837e-15 -0.000707898 -2.2302e-15 0)
(0.00204792 -6.76433e-05 6.32307e-16 -0.000872592 8.61399e-16 0)
(0.00202139 -0.00010619 2.62811e-16 -0.000871989 7.71952e-16 0)
(0.00219443 -0.00035506 2.08167e-17 -0.000921317 -7.62194e-16 0)
(0.00157763 -0.000716708 2.14932e-15 -0.00111453 -1.67433e-15 0)
(0.00160186 -4.9755e-05 -4.21191e-15 -0.000678804 -2.71159e-16 0)
(0.00147239 -0.000389997 1.50227e-15 -0.000478885 6.84023e-16 0)
(0.00148538 -0.000379189 9.82721e-16 -0.000475593 6.59954e-16 0)
(0.00222207 -2.65359e-05 5.93449e-15 -0.000947683 3.81932e-15 0)
(0.00286518 1.00415e-05 -6.24023e-15 -0.00152522 -6.89119e-16 0)
(0.00317283 3.8895e-05 1.30707e-14 -0.00136807 -4.85115e-15 0)
(0.00206927 -0.000490115 -5.02983e-15 -0.00137123 2.26316e-15 0)
(0.000379857 -0.000107212 1.66533e-16 -0.00109633 6.49871e-16 0)
(0.00507521 -0.00275604 1.63493e-14 -0.00279559 -9.79468e-15 0)
(0.0017156 -0.00035523 -3.10169e-15 -0.000677491 -7.83553e-16 0)
(0.00125658 -0.000310293 6.20164e-16 -0.000314214 -5.60912e-16 0)
(0.00222671 -3.44818e-05 4.29604e-15 -0.000961913 3.14527e-15 0)
(0.00157109 -2.32124e-05 7.43329e-16 -0.000661607 1.0571e-16 0)
(0.000631237 -0.000554425 -1.88217e-16 -0.000449855 -1.257e-16 0)
(0.00373625 -0.000377636 -1.38973e-15 -0.00168616 3.27299e-15 0)
(0.000883421 -0.00072821 -7.27716e-16 -0.000793619 1.58294e-16 0)
(0.00256126 -0.000313716 2.40866e-15 -0.00112139 -1.22146e-15 0)
(0.0040379 0.000459924 -1.21062e-15 -0.00157942 2.09728e-15 0)
(0.00224761 -0.00049352 6.48613e-15 -0.00108355 1.21517e-15 0)
(0.00146418 -6.64203e-05 -1.50661e-15 -0.000445051 -7.98488e-16 0)
(0.00211994 -0.00020038 3.51282e-16 -0.000911202 2.66822e-16 0)
(0.00131059 -0.000595081 -1.96718e-15 -0.000434266 2.28225e-17 0)
(0.00207828 -0.000612318 -2.10422e-15 -0.00099433 -1.55149e-16 0)
(0.00111599 -0.000562597 2.48933e-16 -0.000337363 -7.74581e-16 0)
(0.000872307 -0.000306427 -5.06539e-16 -0.000184091 -9.94078e-17 0)
(0.00090721 -0.000574346 -7.00828e-16 -0.00030459 2.37576e-17 0)
(0.00234718 -0.000404485 -2.158e-15 -0.00122068 1.46172e-15 0)
(0.000805307 -0.000590144 2.68882e-17 -0.000331004 -3.07222e-16 0)
(0.000436609 -0.000220835 -8.1532e-16 -0.00102731 1.7846e-16 0)
(0.00163356 -0.000121845 -5.89806e-16 -0.000675507 5.86553e-17 0)
(0.00162876 -0.000136737 7.53737e-16 -0.000664325 -4.07877e-16 0)
(0.0030537 -5.67839e-05 4.19413e-15 -0.00132619 6.26669e-15 0)
(0.00155274 -7.62658e-06 1.20303e-15 -0.00064444 9.75186e-16 0)
(0.00156956 -0.000272238 8.83842e-16 -0.000566298 -7.65609e-16 0)
(0.0014268 -9.36631e-05 5.20417e-16 -0.000348516 2.1825e-16 0)
(0.00130297 -0.000674993 -5.6552e-16 -0.000489065 -3.0954e-16 0)
(0.000708531 -3.28288e-05 3.38271e-16 -0.000119035 -9.60883e-17 0)
(0.0022222 -0.000531423 4.04277e-15 -0.00108136 2.47621e-15 0)
(0.00195821 -0.000637798 1.48926e-15 -0.000866308 1.06788e-15 0)
(0.00148489 -0.000729741 5.94143e-16 -0.000648596 -1.6469e-16 0)
(0.00150962 -0.000468564 5.15213e-16 -0.000515178 -4.04407e-16 0)
(0.00209413 -0.000448951 4.43222e-16 -0.00112363 -3.01777e-15 0)
(0.00185494 -0.000259809 -2.57259e-15 -0.000773066 -9.17886e-16 0)
(0.00115253 -0.00020056 -2.98372e-16 -0.000248069 3.72444e-16 0)
(0.00242581 0.000289464 4.46319e-15 -0.000791117 1.39732e-15 0)
(0.00157325 -0.000263635 -1.18829e-16 -0.000581837 1.93476e-16 0)
(0.00258522 -0.000333742 5.12611e-15 -0.00114188 -1.23577e-15 0)
(0.00148915 -0.000187837 1.249e-16 -0.000484519 5.31422e-16 0)
(0.0014342 -0.000230148 1.83187e-15 -0.000400252 1.47126e-16 0)
(0.0013941 -0.000436833 -1.419e-15 -0.000432121 -1.21105e-16 0)
(0.00126437 -0.000647106 -1.40946e-15 -0.00045133 -1.07878e-17 0)
(0.00154881 -0.000745227 1.62023e-15 -0.000689128 -1.0353e-15 0)
(0.0013548 -7.69436e-05 -4.90927e-16 -0.000209197 1.00181e-15 0)
(0.00131762 -4.23847e-05 -1.13798e-15 -0.000250074 -6.04656e-16 0)
(0.00132607 -4.45056e-05 3.62557e-16 -0.000249635 -2.13263e-16 0)
(0.00136695 -0.000191182 1.04257e-15 -0.000310601 -2.35692e-16 0)
(0.00138027 -0.000320228 5.36897e-16 -0.000378951 8.99671e-16 0)
(0.00146146 -0.000102141 -2.65239e-15 -0.000443618 2.20662e-16 0)
(0.00136189 -6.96665e-05 2.44596e-16 -0.000212968 1.71838e-15 0)
(0.000409098 -0.000242894 2.32453e-16 -0.00021653 -4.36967e-17 0)
(0.00160926 -0.000494784 -2.583e-15 -0.000603805 -1.26862e-15 0)
(0.00143141 -0.000159053 -1.78243e-15 -0.00036284 -6.41278e-16 0)
(0.00170495 -0.000623283 9.54965e-16 -0.00121511 5.01335e-16 0)
(0.000933464 -0.000388941 -1.8735e-16 -0.000214405 7.28428e-16 0)
(0.00127335 -0.000657129 -1.61329e-16 -0.00109998 1.53957e-16 0)
(0.00129918 -0.00019435 1.88217e-15 -0.000289151 -1.22331e-15 0)
(0.0012942 -0.000190742 1.18655e-15 -0.000291688 -1.66411e-15 0)
(0.00127511 -0.000697395 3.4521e-16 -0.0010571 -3.02167e-16 0)
(0.0016676 -0.000746548 1.23252e-15 -0.000780324 8.71319e-16 0)
(0.00139378 -0.000674024 2.51622e-15 -0.000530036 7.55418e-17 0)
(0.00152541 -9.0325e-05 -6.70471e-16 -0.000551695 1.94669e-16 0)
(0.00357609 -1.66419e-05 1.26375e-15 -0.00177229 2.31325e-15 0)
(0.00235362 0.000123871 1.16096e-15 -0.00101463 7.58942e-16 0)
(0.00209681 -0.000476919 5.71158e-15 -0.000883914 5.82976e-16 0)
(0.00398787 0.0002216 -1.37759e-14 -0.0015945 -1.90299e-15 0)
(0.00343044 -0.000708913 5.1428e-15 -0.00154775 -5.94576e-16 0)
(0.0035481 -0.000540939 1.27025e-15 -0.00139373 2.16537e-15 0)
(0.00143225 -0.000701599 2.27075e-15 -0.000558083 2.10877e-17 0)
(0.000700111 -0.000220947 3.31332e-16 -0.000140299 2.4381e-16 0)
(0.000699107 -0.000222714 2.60209e-18 -0.000142736 -8.78373e-17 0)
(0.00357072 0.000153746 6.00214e-16 -0.00186402 8.75949e-15 0)
(0.0011427 -0.000508654 -7.97973e-16 -0.000323629 5.14725e-17 0)
(0.000909055 -0.00052723 -8.79505e-16 -0.000288871 7.91468e-17 0)
(0.00197887 -0.000483769 3.01148e-15 -0.000826176 1.5374e-16 0)
(0.00188451 -0.000217722 -1.69829e-15 -0.00080631 6.85649e-16 0)
(0.00160541 -0.000669296 1.13017e-15 -0.00120899 3.01408e-16 0)
(0.000865644 -8.34663e-05 -5.00468e-16 -0.000149476 4.24299e-16 0)
(0.00210238 -0.00060257 -2.60209e-16 -0.000971062 -1.27426e-15 0)
(0.00302293 6.50862e-05 1.06035e-16 -0.0013012 2.63635e-15 0)
(0.00167414 -8.21522e-05 2.64198e-15 -0.000713441 1.90039e-15 0)
(0.00146584 -0.000643904 -2.2855e-15 -0.000540543 -3.14473e-16 0)
(0.00203458 -0.000541851 1.92988e-15 -0.000867901 2.7671e-15 0)
(0.000453375 -5.2921e-05 2.05912e-15 -0.00137759 4.7152e-16 0)
(0.00193668 -0.000424077 3.09822e-15 -0.000800551 -1.40101e-15 0)
(0.000415991 -0.000237154 5.37764e-17 -0.00104324 8.22096e-17 0)
(0.0016953 -0.000715816 2.31239e-15 -0.00108129 -5.6205e-16 0)
(0.00206248 -0.000465988 -4.49033e-15 -0.001338 1.52222e-16 0)
(0.00134032 -7.70424e-06 5.70724e-16 -0.000165925 -1.86756e-15 0)
(0.00156467 4.00732e-07 5.25621e-16 -0.000670462 -1.53241e-15 0)
(0.00260043 -0.000111086 -6.63272e-15 -0.00144945 -5.45484e-15 0)
(0.00153074 -0.000136867 1.03823e-15 -0.000564528 -1.45858e-15 0)
(0.00116037 -0.000540755 -1.67401e-16 -0.000341587 5.26326e-16 0)
(0.00142397 -0.000306485 -5.6552e-16 -0.000416072 5.51425e-16 0)
(0.00142537 -0.000300231 -7.97973e-16 -0.000401207 1.10469e-15 0)
(0.00138884 -0.000416509 -6.98226e-16 -0.000423543 2.73598e-16 0)
(0.00214263 -0.000572233 -4.2067e-16 -0.00109817 1.6816e-15 0)
(0.00291251 0.000379875 -9.67325e-16 -0.00134914 2.64198e-15 0)
(0.00125956 -0.000526116 -7.32053e-16 -0.00037801 2.42021e-16 0)
(0.00148131 -2.24573e-05 1.04604e-15 -0.000481063 -1.24916e-15 0)
(0.00145731 -0.000102177 -8.92515e-16 -0.000411699 1.16633e-15 0)
(0.000572008 0.000507808 -1.31492e-15 -0.00162501 3.39084e-15 0)
(0.00211711 -0.000561744 3.747e-16 -0.00095529 -6.39788e-16 0)
(0.000747154 -0.000539673 -1.39645e-16 -0.0003031 -2.45247e-16 0)
(0.00167577 -8.53172e-05 2.63851e-15 -0.000709644 1.57209e-15 0)
(0.00265658 -0.000300944 7.19477e-15 -0.00117264 3.07805e-16 0)
(0.00114512 -0.000140323 1.9082e-17 -0.000240048 1.45297e-16 0)
(0.00377294 0.000531253 3.541e-16 -0.00196471 8.59122e-16 0)
(0.00132898 -0.000214017 1.04083e-15 -0.000305228 -8.85983e-16 0)
(0.00100943 -0.000608287 -1.15359e-16 -0.00103394 7.9884e-16 0)
(0.000776731 -0.000501196 5.17815e-16 -0.000267207 -2.7948e-16 0)
(0.000406664 -0.000421764 3.43475e-16 -0.00074919 -7.18284e-16 0)
(0.00287968 0.000268144 1.60765e-15 -0.00141889 -8.30065e-16 0)
(0.000777764 -0.000507679 1.83881e-16 -0.000261799 1.81184e-16 0)
(0.00130776 -4.64119e-05 -7.35523e-16 -0.000251645 -1.25078e-15 0)
(0.00135469 -9.53034e-05 1.04777e-15 -0.000231313 1.12228e-15 0)
(0.00136575 -6.83114e-05 -1.56992e-15 -0.000214516 1.34814e-15 0)
(0.000906765 -0.000479194 -2.06432e-16 -0.000250511 3.52515e-16 0)
(0.00127434 -0.000582454 6.85216e-17 -0.000410075 7.29424e-16 0)
(0.00292133 -5.11684e-05 8.32667e-15 -0.00130929 1.27394e-15 0)
(0.000854594 -0.000439808 -6.32307e-16 -0.000227056 4.87227e-16 0)
(0.00230581 -9.61048e-05 -7.89299e-16 -0.000997803 -8.50448e-16 0)
(0.00349213 0.000812662 -3.57722e-15 -0.00156259 4.75011e-15 0)
(0.00417517 0.000261819 -1.92641e-15 -0.00209324 -4.94873e-15 0)
(0.00161842 -2.91047e-05 8.12718e-16 -0.000689934 1.92229e-16 0)
(0.00131569 -2.45826e-05 1.68789e-15 -0.000242644 4.55873e-17 0)
(0.00194257 -0.000256552 -3.29511e-15 -0.000817145 2.59829e-15 0)
(0.0016943 -0.000708063 3.6542e-15 -0.000747634 1.53057e-15 0)
(0.003751 0.000647131 1.36696e-15 -0.00166122 1.03433e-15 0)
(0.00263817 0.000373592 1.87041e-15 -0.000901375 4.4062e-16 0)
(0.000999084 -1.75672e-05 -2.3679e-16 -0.000184545 -3.59396e-16 0)
(0.00145166 -0.000687273 2.27249e-15 -0.000560713 -2.48255e-16 0)
(0.00142194 -0.000662604 7.53737e-16 -0.000534054 9.96653e-17 0)
(0.00156267 -0.000148373 -3.71231e-16 -0.00058811 1.79435e-17 0)
(0.00157697 -0.000726647 1.31926e-15 -0.00113378 -1.85334e-15 0)
(0.0019452 -0.000496457 -2.91607e-15 -0.00131837 4.37367e-15 0)
(0.00133676 -2.71697e-06 5.3603e-16 -0.000144544 -1.12767e-15 0)
(0.00156069 2.67943e-06 4.74447e-16 -0.000668173 -9.04984e-16 0)
(0.00343198 0.000537044 -2.64394e-15 -0.00119899 -1.68268e-15 0)
(0.00213632 -0.000246607 2.89005e-15 -0.000906219 -7.18284e-16 0)
(0.000494289 -0.000232482 -1.09981e-15 -0.00117135 -5.1646e-16 0)
(0.00156002 -0.000112604 -3.99854e-16 -0.000598193 3.74267e-16 0)
(0.00131232 -0.000123601 9.28077e-17 -0.000271134 -2.69682e-16 0)
(0.00179646 -0.000571249 7.45931e-17 -0.000733532 1.6919e-16 0)
(0.00137991 -0.000581576 4.96998e-16 -0.000465705 3.21737e-17 0)
(0.000743115 -0.00038634 -4.44957e-16 -0.000199372 -8.4622e-17 0)
(0.00111396 -0.000567798 1.94289e-16 -0.000348162 -1.25597e-15 0)
(0.00106205 -0.000492615 6.93889e-17 -0.000294203 -8.67944e-16 0)
(0.000726487 0.000165832 3.10516e-16 -0.00191419 -1.47983e-15 0)
(0.00108008 -0.00053974 2.65413e-16 -0.000323899 -7.83594e-16 0)
(0.00319703 -0.00022046 2.35489e-15 -0.00151734 -4.84899e-15 0)
(0.00211922 -0.000588231 -2.85969e-15 -0.00100545 1.05103e-15 0)
(0.00209291 -0.000576706 -5.26142e-15 -0.000974288 9.19512e-16 0)
(0.000964991 -0.000428997 -4.571e-16 -0.000239559 -8.21419e-17 0)
(0.00242415 -0.00036322 -2.81285e-15 -0.00126576 1.71347e-15 0)
(0.00188554 -0.0002239 -2.4078e-15 -0.000789923 -1.13408e-16 0)
(0.0013346 -1.1829e-05 -9.78384e-16 -0.000179483 -6.93485e-16 0)
(0.00157137 -7.22141e-06 -1.1692e-15 -0.000671885 -1.75944e-15 0)
(0.00250963 0.000182775 7.07924e-15 -0.000765238 9.15067e-16 0)
(0.00213566 -0.000438529 8.12718e-16 -0.000899553 4.91144e-16 0)
(0.00220015 -0.000530341 1.95503e-15 -0.00108175 1.80433e-15 0)
(0.000826944 -0.000275325 2.7929e-16 -0.00119979 4.47775e-17 0)
(0.00159933 -0.00076624 -1.62544e-15 -0.000909808 -3.80121e-16 0)
(0.00260723 -0.000132775 -2.76602e-15 -0.00134137 1.30863e-15 0)
(0.00263469 -0.000288167 1.22424e-14 -0.00117082 2.73436e-15 0)
(0.00215539 -0.000378144 3.82853e-15 -0.000925036 -1.64625e-15 0)
(0.00144011 -0.000115356 -1.12844e-15 -0.000370893 -1.18015e-16 0)
(0.000694179 0.000230531 -4.7358e-16 -0.00192056 -1.27312e-15 0)
(0.00131009 -0.000594261 -1.27242e-15 -0.000434326 4.12918e-16 0)
(0.00256001 -0.000299083 1.43809e-15 -0.00120511 -1.61373e-15 0)
(0.00501771 9.89164e-05 -7.9762e-16 -0.00191322 1.09548e-14 0)
(0.000277968 -0.000200452 1.17094e-16 -0.00036265 -1.00709e-16 0)
(0.00146768 -2.15848e-05 6.10623e-16 -0.000442049 -2.59859e-15 0)
(0.0014549 -7.22497e-05 -7.11237e-17 -0.000394261 1.36352e-15 0)
(0.00157368 -0.000150023 1.55258e-16 -0.000600946 1.43006e-16 0)
(0.00214259 -0.000246433 -7.97973e-16 -0.000908305 -1.36761e-15 0)
(0.000327742 -0.000203434 1.23165e-16 -0.000419627 -1.26628e-16 0)
(0.00110727 -0.000541665 3.46945e-17 -0.000324003 -7.32785e-16 0)
(0.00279398 0.000797194 7.95154e-16 -0.0011128 -7.51135e-16 0)
(0.00271441 0.000673779 -4.27392e-15 -0.00118091 1.32793e-15 0)
(0.00170623 -0.000740127 1.39212e-15 -0.000830992 1.25009e-16 0)
(0.0017611 -0.000708928 2.63851e-15 -0.00082543 1.3353e-15 0)
(0.00148892 -6.07601e-05 1.34441e-15 -0.000495749 -1.38756e-15 0)
(0.0026358 -0.000198186 2.75561e-15 -0.00114168 -1.41e-15 0)
(0.00120417 -0.000636266 -1.66013e-15 -0.00041802 -3.95571e-16 0)
(0.00158577 -7.01396e-05 2.13371e-16 -0.000649339 7.00937e-16 0)
(0.000848043 -0.000679517 4.33681e-17 -0.000496161 -1.21946e-16 0)
(0.000983909 -0.000758944 -1.56992e-15 -0.000819299 -5.86065e-16 0)
(0.00210825 -0.000447305 3.48766e-15 -0.00089984 2.23346e-17 0)
(0.00252343 -0.000198228 -1.80455e-15 -0.00147251 -1.99515e-15 0)
(0.000921799 -0.000693308 -1.08247e-15 -0.000765476 -1.21431e-17 0)
(0.00136188 -0.000111705 1.58207e-15 -0.000251822 2.31984e-15 0)
(0.00135769 -0.000124918 2.72352e-15 -0.000263743 9.48406e-16 0)
(0.00316185 0.000217602 7.43025e-15 -0.00169593 7.29148e-15 0)
(0.00286988 -9.54594e-06 4.13862e-15 -0.00129187 7.26632e-16 0)
(0.000983348 -0.00069613 -7.06032e-16 -0.000481448 -5.37764e-16 0)
(0.00128868 -0.000571406 -1.1293e-15 -0.000416327 2.87124e-16 0)
(0.00310939 -0.000194702 3.69193e-15 -0.00148113 6.99961e-16 0)
(0.00135972 -9.79633e-05 5.34295e-16 -0.00024593 -9.85201e-17 0)
(0.000534597 -0.000315015 9.97466e-17 -0.00019117 1.7042e-16 0)
(0.000608557 -0.00031523 -3.1225e-17 -0.000192097 2.34784e-16 0)
(0.00172447 -0.000303558 1.2091e-15 -0.000698413 8.58038e-16 0)
(0.00126011 -0.000255476 9.09862e-16 -0.000295983 5.28006e-17 0)
(0.00108908 -0.00049243 8.63025e-16 -0.000295456 -6.24853e-16 0)
(0.00137766 -0.00031992 2.40259e-16 -0.000373182 9.73315e-16 0)
(0.00132209 -1.88389e-05 2.47719e-15 -0.000112629 8.23604e-17 0)
(0.00156467 -3.97933e-07 -9.71445e-17 -0.000668902 -6.92914e-16 0)
(0.000812776 -0.00042608 -3.95517e-16 -0.000215636 2.77678e-16 0)
(0.00101728 -2.03107e-05 3.40873e-16 -0.000187565 -9.47347e-17 0)
(0.00163601 -0.000590912 2.02095e-15 -0.00120599 3.49113e-16 0)
(0.00135638 -0.000750432 -1.55691e-15 -0.000592425 4.28802e-16 0)
(0.00092056 -0.000255346 -7.30319e-16 -0.000177816 2.06913e-17 0)
(0.000457137 -0.000432836 5.37764e-17 -0.000359007 1.92717e-16 0)
(0.000683026 -0.00015746 3.35669e-16 -0.000129858 4.20311e-16 0)
(0.000597376 -0.000234137 -4.02456e-16 -0.000145665 -1.5127e-16 0)
(0.000623659 -0.000197836 -2.73219e-16 -0.00014846 -9.75003e-17 0)
(0.00105871 -0.000461492 1.13017e-15 -0.000276556 4.24059e-17 0)
(0.00173769 -0.000276252 -4.67074e-15 -0.000717176 -9.69168e-16 0)
(0.001251 -0.000227061 8.29198e-16 -0.000282545 1.13015e-16 0)
(0.00122324 -0.000789216 1.7061e-15 -0.000660118 -1.1395e-16 0)
(0.00173609 -0.000311801 -8.95985e-16 -0.000702212 8.25078e-17 0)
(0.00124623 -0.000261446 7.75421e-16 -0.000293671 1.58334e-16 0)
(0.00167245 -0.000689821 1.5864e-15 -0.000691052 4.03052e-16 0)
(0.00167442 -0.000677218 1.09981e-15 -0.000696194 -1.90061e-16 0)
(0.00301549 5.86224e-05 -1.31188e-16 -0.00129384 4.68982e-15 0)
(0.00176906 -0.000449619 6.36644e-16 -0.000699102 -1.90706e-15 0)
(0.00151565 -7.78121e-05 -8.29198e-16 -0.000563839 6.18917e-16 0)
(0.00104313 -0.000463316 7.31186e-16 -0.000275147 -1.16403e-16 0)
(0.000572471 -3.82977e-05 -1.67401e-16 -0.000124741 6.89553e-17 0)
(0.00163255 -0.000233392 4.34548e-16 -0.000632084 1.26852e-17 0)
(0.000753424 -0.000280704 -6.79144e-16 -0.000163361 -3.76171e-16 0)
(0.000934201 -0.000726083 8.33535e-16 -0.000548479 -6.36508e-16 0)
(0.000941834 -0.000718049 6.20164e-16 -0.000557353 -2.3023e-16 0)
(0.00206317 -0.000491927 3.96558e-15 -0.000884555 3.29055e-16 0)
(0.00629845 -0.00316993 1.50604e-14 -0.00361626 -3.92568e-15 0)
(0.00154056 -0.000130757 7.16441e-16 -0.000568136 -5.14129e-16 0)
(0.00316778 -9.83604e-06 7.38862e-15 -0.0013692 4.74404e-15 0)
(0.00321533 2.34001e-05 6.47529e-15 -0.00138881 5.59188e-15 0)
(0.00227281 -0.000442095 1.1529e-14 -0.00134783 4.91794e-16 0)
(0.000606464 -0.000510528 -7.97973e-17 -0.000371841 -2.77962e-17 0)
(0.00133251 -1.91425e-05 4.31946e-16 -0.000156752 -1.35551e-15 0)
(0.00156733 -4.58088e-06 1.05905e-15 -0.000666428 -3.25044e-16 0)
(0.00107074 -0.000683244 -8.26596e-16 -0.000449323 -4.27962e-16 0)
(0.00210645 -0.000514321 5.7454e-15 -0.00136269 4.22058e-15 0)
(0.000582812 -0.000531444 3.52149e-16 -0.000345324 -1.92256e-16 0)
(0.00130735 -0.000518571 1.13104e-15 -0.000766958 -6.4033e-16 0)
(0.00199473 -0.00047965 2.48239e-15 -0.000825355 1.3147e-15 0)
(0.0017941 -0.000275865 -1.82493e-15 -0.000734145 -4.11238e-16 0)
(0.00120169 -0.00022192 4.33681e-17 -0.000272573 3.62815e-16 0)
(0.00232943 -0.00039728 1.08984e-14 -0.00132488 -2.21503e-15 0)
(0.000558287 -0.000483721 -7.54605e-17 -0.000795615 -5.08491e-17 0)
(0.00132455 -1.00578e-05 -1.92554e-16 -0.000119297 -7.44281e-16 0)
(0.00156688 -8.8426e-07 5.52509e-16 -0.000669542 -5.62267e-16 0)
(0.00291278 0.000729548 6.22852e-15 -0.00133699 -2.90002e-15 0)
(0.00246883 -0.000249546 6.50521e-18 -0.00147011 -4.63843e-15 0)
(0.00101012 -0.000121615 -1.23252e-15 -0.000180573 -1.12632e-16 0)
(0.00271466 -4.86615e-05 3.97165e-15 -0.00150959 -4.19846e-15 0)
(0.00284415 0.000697606 1.06599e-15 -0.00102778 -1.51788e-16 0)
(0.001345 -0.000692965 2.75561e-15 -0.000521409 -3.75134e-17 0)
(0.00131132 -0.000123727 -2.87097e-16 -0.000270743 2.01363e-16 0)
(0.00260762 -0.000253009 -1.77375e-15 -0.0012217 -2.16428e-15 0)
(0.000391067 1.70244e-05 1.92641e-15 -0.00126508 -3.32037e-19 0)
(0.00168766 -0.000460759 2.93775e-15 -0.000641121 -7.9922e-16 0)
(0.00284372 0.000691761 1.42204e-15 -0.0011071 -2.21177e-16 0)
(0.00208048 -0.000243529 -3.9968e-15 -0.000888018 -1.7486e-15 0)
(0.00286189 0.000754363 5.55654e-15 -0.00123377 -1.53696e-15 0)
(0.00134355 -9.24598e-05 -2.06259e-15 -0.000238469 -4.98936e-16 0)
(0.00308616 -1.26632e-05 -7.92335e-16 -0.00132524 7.57836e-15 0)
(0.00247883 -0.000351876 4.85636e-15 -0.00119374 1.76812e-15 0)
(0.00244847 -0.000397242 7.80712e-15 -0.00111102 2.17122e-15 0)
(0.00145612 -0.000177093 8.50882e-16 -0.000432206 -1.45259e-15 0)
(0.00290592 0.000396917 -2.50537e-15 -0.00136843 2.93862e-15 0)
(0.00164235 -0.000254872 -5.87204e-16 -0.000635803 -6.1832e-16 0)
(0.00176711 -0.000437527 2.97158e-15 -0.000710532 -5.08599e-16 0)
(0.000584405 0.000143761 3.83374e-16 -0.00175223 -5.33617e-16 0)
(0.0016682 -0.000457801 4.19803e-16 -0.000641083 -5.73651e-16 0)
(0.00141817 -1.93739e-05 3.19623e-15 -0.000330482 4.48589e-16 0)
(0.000562841 -2.81301e-05 2.04264e-15 -0.00166184 -7.98379e-16 0)
(0.00179789 -0.000576553 9.08995e-16 -0.000717138 -1.41651e-16 0)
(0.00373578 -0.00145586 3.55532e-15 -0.00140822 3.59998e-15 0)
(0.000481349 -0.000477762 -4.0766e-17 -0.000422493 1.84382e-16 0)
(0.00350508 0.00063991 5.76557e-15 -0.00178832 5.60359e-15 0)
(0.00286737 0.00022869 2.86099e-15 -0.00143246 2.93515e-15 0)
(0.000618306 -0.000458793 2.6628e-16 -0.000983649 -1.56776e-16 0)
(0.000420297 -4.83659e-05 1.47451e-16 -0.000205322 7.3647e-17 0)
(0.00161952 -0.000630653 5.97612e-16 -0.00124884 5.99672e-16 0)
(0.00249365 -0.000371434 5.70464e-15 -0.0010994 4.1603e-15 0)
(0.00175448 -0.000415332 2.43208e-15 -0.000703313 -1.27491e-15 0)
(0.00183176 -0.000484964 -2.64806e-15 -0.00126176 3.50349e-15 0)
(0.00292222 0.000452312 -6.69473e-15 -0.00140918 3.17151e-15 0)
(0.0030431 -0.000623414 1.59421e-15 -0.0013476 3.52886e-15 0)
(0.00158611 -4.99266e-05 -1.93942e-15 -0.000657443 2.18033e-16 0)
(0.0015764 -4.04984e-05 -3.47812e-16 -0.000659753 6.50521e-17 0)
(0.00057489 -0.000397747 8.67362e-19 -0.000218766 1.93652e-16 0)
(0.000585556 -0.000331919 7.28584e-17 -0.000214968 1.89044e-16 0)
(0.0026373 0.000414742 1.30955e-15 -0.000765906 5.53377e-16 0)
(0.00290383 0.000435188 -6.65592e-15 -0.00134118 4.19109e-15 0)
(0.00500276 -0.00073014 -2.53517e-14 -0.00250599 -2.65413e-16 0)
(0.00124501 -0.000501642 -8.51749e-16 -0.000361281 5.62755e-16 0)
(0.00155566 -2.06745e-05 3.13378e-15 -0.000647734 7.8236e-16 0)
(0.00101689 -0.000564606 -1.18829e-16 -0.000319113 9.21165e-17 0)
(0.000504304 -0.00028477 -3.79904e-16 -0.00104478 -4.07281e-16 0)
(0.00270956 -0.000257705 5.37764e-15 -0.00119033 -2.57606e-15 0)
(0.0015882 -0.000756151 -1.14839e-15 -0.000755365 1.01259e-15 0)
(0.00096673 -0.000527612 2.00361e-16 -0.000292537 -4.35036e-18 0)
(0.000480082 -0.000450503 6.93889e-17 -0.000447452 1.74136e-16 0)
(0.0088362 -0.00169297 -2.15416e-14 -0.00611339 -1.05757e-14 0)
(0.00172239 -0.000552964 9.37618e-16 -0.000675744 -7.22133e-16 0)
(0.00173605 -0.000533971 2.26642e-15 -0.000684528 -7.07876e-16 0)
(0.0024291 -0.000389566 6.2424e-15 -0.00116221 2.82196e-15 0)
(0.00255397 -0.000266052 -9.17452e-15 -0.001262 -1.86851e-15 0)
(0.00291465 0.000133781 3.1637e-15 -0.00133018 -1.20607e-15 0)
(0.00289705 0.000269781 8.11981e-15 -0.00148105 -2.81676e-15 0)
(0.001572 -5.75199e-05 1.55258e-15 -0.00064881 1.38778e-16 0)
(0.000476505 -0.000493216 2.60209e-18 -0.000726796 -9.27806e-17 0)
(0.0025959 -0.000233048 -9.83111e-15 -0.0012559 -2.77599e-15 0)
(0.00286601 0.000228004 1.01039e-14 -0.00150365 -2.55828e-15 0)
(0.00219505 -0.000504992 -5.48867e-15 -0.000948071 8.71265e-16 0)
(0.00212805 -0.000521215 -4.25267e-15 -0.000927102 -9.47267e-16 0)
(0.00136021 -0.000308615 -7.14706e-16 -0.000364171 5.22098e-16 0)
(0.00134892 -0.000135921 -2.90566e-16 -0.000269423 -1.27922e-16 0)
(0.00371169 0.000589421 -6.31006e-17 -0.00162811 -2.67061e-15 0)
(0.000613067 -0.000573597 -2.18575e-16 -0.000787901 5.93736e-16 0)
(0.00144722 -0.00042207 -1.29671e-15 -0.000460478 2.89536e-16 0)
(0.00151454 -3.72434e-05 8.7777e-16 -0.00056591 3.93186e-16 0)
(0.00148317 -0.000467014 -6.59195e-17 -0.000490112 -1.41103e-15 0)
(0.000957113 -0.000430742 -9.67108e-16 -0.000236822 -4.1403e-17 0)
(0.00146369 -0.000394896 8.96852e-16 -0.0004748 -1.02728e-16 0)
(0.000842438 -0.000670706 3.01842e-16 -0.000533702 -5.49745e-16 0)
(0.00250735 -0.000250252 1.32706e-16 -0.00107401 -1.41814e-15 0)
(0.00172532 -0.000205086 3.61516e-15 -0.000705742 -2.30144e-15 0)
(0.00264127 -0.000281018 -5.51122e-15 -0.00139539 9.98333e-16 0)
(0.000965087 -0.000411343 4.56232e-16 -0.000652557 -3.96167e-16 0)
(0.00665034 -0.00278987 1.17541e-14 -0.00465718 6.68129e-15 0)
(0.00137415 -0.000693416 3.19016e-15 -0.000522504 -1.22786e-16 0)
(0.00156633 3.64443e-06 -3.20837e-15 -0.000673454 4.33898e-16 0)
(0.00130718 3.63554e-06 4.7861e-15 -7.88815e-05 3.10938e-16 0)
(0.001359 -0.000108885 1.43115e-15 -0.000254301 3.41876e-16 0)
(0.000874918 -0.000694605 -2.3332e-16 -0.00049337 -4.2723e-16 0)
(0.00132957 -0.000502421 -5.23886e-16 -0.000415741 5.39635e-16 0)
(0.00152243 -0.000479546 5.96745e-16 -0.000532335 -2.38524e-18 0)
(0.00156568 -0.000499177 -3.03143e-15 -0.00055364 -2.73327e-16 0)
(0.00210825 -0.000450353 -2.77642e-15 -0.00131672 -5.42318e-16 0)
(0.000434269 -0.000341342 4.16334e-17 -0.000250752 -2.35712e-16 0)
(0.00132755 -0.000482093 -1.27762e-15 -0.000405769 3.44993e-16 0)
(0.00135702 -0.000473842 -2.62637e-15 -0.000403521 3.51688e-16 0)
(0.00138468 -0.000123459 1.91687e-15 -0.000287575 7.02604e-16 0)
(0.00140777 -0.000604023 1.63151e-15 -0.000482309 -7.29939e-17 0)
(0.00050972 0.000373859 -1.34441e-16 -0.00144039 2.18022e-15 0)