/*--------------------------------*- C++ -*----------------------------------*\
| =========                 |                                                 |
| \\      /  F ield         | OpenFOAM: The Open Source CFD Toolbox           |
|  \\    /   O peration     | Version:  v2012                                 |
|   \\  /    A nd           | Website:  www.openfoam.com                      |
|    \\/     M anipulation  |                                                 |
\*---------------------------------------------------------------------------*/
FoamFile
{
    version     2.0;
    format      ascii;
    class       pointVectorField;
    location    "11";
    object      pointD;
}
// * * * * * * * * * * * * * * * * * * * * * * * * * * * * * * * * * * * * * //

dimensions      [0 1 0 0 0 0 0];


internalField   nonuniform List<vector> 
7900
(
(0.00369954 0 0)
(0.00498805 0 0)
(0.00459298 -0.00038509 0)
(0 -0.00281533 0)
(0 -0.00138412 0)
(0.00369954 0 0)
(0.00498805 0 0)
(0.00459298 -0.00038509 0)
(0 -0.00281533 0)
(0 -0.00138412 0)
(0.00372551 0 0)
(0.00374448 0 0)
(0.00375962 0 0)
(0.00377094 0 0)
(0.00377935 0 0)
(0.00378658 0 0)
(0.00379293 0 0)
(0.00379903 0 0)
(0.00380503 0 0)
(0.00381143 0 0)
(0.00381745 0 0)
(0.00382437 0 0)
(0.00383228 0 0)
(0.00384015 0 0)
(0.00384962 0 0)
(0.00385933 0 0)
(0.00386996 0 0)
(0.00388168 0 0)
(0.00389407 0 0)
(0.00390745 0 0)
(0.00392176 0 0)
(0.0039369 0 0)
(0.0039529 0 0)
(0.00396976 0 0)
(0.00398748 0 0)
(0.00400604 0 0)
(0.00402541 0 0)
(0.00404564 0 0)
(0.00406663 0 0)
(0.00408843 0 0)
(0.00411097 0 0)
(0.00413422 0 0)
(0.00415823 0 0)
(0.00418297 0 0)
(0.0042084 0 0)
(0.00423448 0 0)
(0.0042612 0 0)
(0.00428853 0 0)
(0.00431647 0 0)
(0.004345 0 0)
(0.00437409 0 0)
(0.00440371 0 0)
(0.00443381 0 0)
(0.00446438 0 0)
(0.00449543 0 0)
(0.00452688 0 0)
(0.00455871 0 0)
(0.00459087 0 0)
(0.0046234 0 0)
(0.00465612 0 0)
(0.00468911 0 0)
(0.00472227 0 0)
(0.00475558 0 0)
(0.00478898 0 0)
(0.00482242 0 0)
(0.00485586 0 0)
(0.00488931 0 0)
(0.00492236 0 0)
(0.00495527 0 0)
(0.00498744 -1.20653e-06 0)
(0.0049858 -2.42993e-06 0)
(0.00498362 -3.81355e-06 0)
(0.00498015 -5.23396e-06 0)
(0.00497578 -6.92785e-06 0)
(0.00497052 -9.05604e-06 0)
(0.00496432 -1.12477e-05 0)
(0.00495736 -1.39511e-05 0)
(0.00494957 -1.7008e-05 0)
(0.0049409 -2.03347e-05 0)
(0.0049315 -2.42975e-05 0)
(0.0049215 -2.88575e-05 0)
(0.00491075 -3.38268e-05 0)
(0.0048995 -3.94639e-05 0)
(0.00488771 -4.5776e-05 0)
(0.00487534 -5.26252e-05 0)
(0.00486268 -6.01475e-05 0)
(0.00484979 -6.84095e-05 0)
(0.00483639 -7.72323e-05 0)
(0.00482303 -8.67949e-05 0)
(0.00480937 -9.70197e-05 0)
(0.00479558 -0.00010798 0)
(0.004782 -0.000119596 0)
(0.00476842 -0.000131893 0)
(0.00475485 -0.00014478 0)
(0.00474163 -0.000158264 0)
(0.00472851 -0.000172358 0)
(0.00471566 -0.00018705 0)
(0.00470331 -0.000202172 0)
(0.00469127 -0.000217799 0)
(0.0046797 -0.000233782 0)
(0.00466854 -0.000250142 0)
(0.00465787 -0.000266732 0)
(0.00464759 -0.000283597 0)
(0.00463781 -0.000300494 0)
(0.00462839 -0.000317513 0)
(0.0046193 -0.000334536 0)
(0.00461049 -0.000351456 0)
(0.00460173 -0.000368315 0)
(0.00455391 -0.000393876 0)
(0.00451493 -0.000402667 0)
(0.00447602 -0.000411342 0)
(0.00443717 -0.000419758 0)
(0.00439834 -0.000427888 0)
(0.00435948 -0.000435579 0)
(0.00432045 -0.000442894 0)
(0.00428126 -0.000449651 0)
(0.00424174 -0.000456038 0)
(0.00420192 -0.000461907 0)
(0.00416171 -0.000467326 0)
(0.00412106 -0.000472209 0)
(0.00407985 -0.000476847 0)
(0.00403816 -0.000480842 0)
(0.00399577 -0.000484547 0)
(0.0039527 -0.000488147 0)
(0.00390888 -0.000491399 0)
(0.00386436 -0.000494272 0)
(0.00381902 -0.000497151 0)
(0.0037728 -0.000499838 0)
(0.00372569 -0.000502601 0)
(0.00367761 -0.000505278 0)
(0.00362842 -0.000508022 0)
(0.0035785 -0.000510925 0)
(0.0035275 -0.000514272 0)
(0.00347523 -0.000517527 0)
(0.00342198 -0.000521481 0)
(0.00336745 -0.00052551 0)
(0.0033119 -0.000530589 0)
(0.003255 -0.000535871 0)
(0.00319697 -0.000542107 0)
(0.00313765 -0.000548865 0)
(0.00307712 -0.000557009 0)
(0.003015 -0.00056562 0)
(0.00295186 -0.000575673 0)
(0.00288714 -0.000586697 0)
(0.00282125 -0.000599304 0)
(0.00275397 -0.000613132 0)
(0.00268552 -0.00062875 0)
(0.00261538 -0.000645836 0)
(0.00254399 -0.000664658 0)
(0.00247141 -0.000685649 0)
(0.00239727 -0.000708565 0)
(0.0023223 -0.000733474 0)
(0.00224614 -0.000760874 0)
(0.00216828 -0.000790445 0)
(0.00209001 -0.000822568 0)
(0.00201066 -0.000857494 0)
(0.00193007 -0.00089477 0)
(0.00184943 -0.000935095 0)
(0.00176718 -0.000978077 0)
(0.00168408 -0.00102458 0)
(0.00159921 -0.0010741 0)
(0.00151444 -0.00112663 0)
(0.00142998 -0.00118191 0)
(0.00134534 -0.00123968 0)
(0.0012613 -0.00130226 0)
(0.00117688 -0.00136783 0)
(0.00109292 -0.00143439 0)
(0.00101159 -0.00150583 0)
(0.000930716 -0.00158024 0)
(0.000851396 -0.00165715 0)
(0.00077366 -0.00173682 0)
(0.000698087 -0.00181861 0)
(0.000624953 -0.00190271 0)
(0.000554196 -0.00198847 0)
(0.000487407 -0.00207476 0)
(0.000424773 -0.00216233 0)
(0.000365933 -0.00224786 0)
(0.000312184 -0.00233162 0)
(0.000263977 -0.00241226 0)
(0.000219301 -0.00248886 0)
(0.00017916 -0.00255908 0)
(0.000145154 -0.00262351 0)
(0.000113299 -0.00267947 0)
(8.52309e-05 -0.00272639 0)
(6.22995e-05 -0.0027646 0)
(3.88851e-05 -0.00279171 0)
(2.02691e-05 -0.00280834 0)
(0 -0.00280373 0)
(0 -0.00278836 0)
(0 -0.00277442 0)
(0 -0.0027563 0)
(0 -0.00273888 0)
(0 -0.00271891 0)
(0 -0.00269965 0)
(0 -0.00268111 0)
(0 -0.00266322 0)
(0 -0.00264204 0)
(0 -0.00261919 0)
(0 -0.00258989 0)
(0 -0.00254206 0)
(0 -0.00246912 0)
(0 -0.00236677 0)
(0 -0.00222366 0)
(0 -0.00204476 0)
(0 -0.00183828 0)
(0 -0.00160813 0)
(0.000315334 -0.00136758 0)
(0.000627438 -0.00139895 0)
(0.000905731 -0.00148887 0)
(0.00116216 -0.00156968 0)
(0.00138342 -0.00163941 0)
(0.00162061 -0.0017163 0)
(0.0017988 -0.00176294 0)
(0.00194754 -0.00176767 0)
(0.00208654 -0.00172312 0)
(0.00220585 -0.00164821 0)
(0.00232452 -0.00157198 0)
(0.00244217 -0.00149507 0)
(0.00255612 -0.00141654 0)
(0.00266717 -0.00133793 0)
(0.00277262 -0.00125852 0)
(0.00287409 -0.0011804 0)
(0.00297031 -0.00110136 0)
(0.00306234 -0.00102467 0)
(0.0031481 -0.00094796 0)
(0.00322809 -0.000869726 0)
(0.00330197 -0.0007944 0)
(0.00336998 -0.000719649 0)
(0.00343193 -0.00064393 0)
(0.00348726 -0.000571585 0)
(0.00353681 -0.000498873 0)
(0.00357902 -0.000427123 0)
(0.00361538 -0.000353039 0)
(0.00364535 -0.000283131 0)
(0.003668 -0.000210972 0)
(0.00368435 -0.0001422 0)
(0.00369621 -7.18102e-05 0)
(0.00372551 0 0)
(0.00374448 0 0)
(0.00375962 0 0)
(0.00377094 0 0)
(0.00377935 0 0)
(0.00378658 0 0)
(0.00379293 0 0)
(0.00379903 0 0)
(0.00380503 0 0)
(0.00381143 0 0)
(0.00381745 0 0)
(0.00382437 0 0)
(0.00383228 0 0)
(0.00384015 0 0)
(0.00384962 0 0)
(0.00385933 0 0)
(0.00386996 0 0)
(0.00388168 0 0)
(0.00389407 0 0)
(0.00390745 0 0)
(0.00392176 0 0)
(0.0039369 0 0)
(0.0039529 0 0)
(0.00396976 0 0)
(0.00398748 0 0)
(0.00400604 0 0)
(0.00402541 0 0)
(0.00404564 0 0)
(0.00406663 0 0)
(0.00408843 0 0)
(0.00411097 0 0)
(0.00413422 0 0)
(0.00415823 0 0)
(0.00418297 0 0)
(0.0042084 0 0)
(0.00423448 0 0)
(0.0042612 0 0)
(0.00428853 0 0)
(0.00431647 0 0)
(0.004345 0 0)
(0.00437409 0 0)
(0.00440371 0 0)
(0.00443381 0 0)
(0.00446438 0 0)
(0.00449543 0 0)
(0.00452688 0 0)
(0.00455871 0 0)
(0.00459087 0 0)
(0.0046234 0 0)
(0.00465612 0 0)
(0.00468911 0 0)
(0.00472227 0 0)
(0.00475558 0 0)
(0.00478898 0 0)
(0.00482242 0 0)
(0.00485586 0 0)
(0.00488931 0 0)
(0.00492236 0 0)
(0.00495527 0 0)
(0.00498744 -1.20653e-06 0)
(0.0049858 -2.42993e-06 0)
(0.00498362 -3.81355e-06 0)
(0.00498015 -5.23396e-06 0)
(0.00497578 -6.92785e-06 0)
(0.00497052 -9.05604e-06 0)
(0.00496432 -1.12477e-05 0)
(0.00495736 -1.39511e-05 0)
(0.00494957 -1.7008e-05 0)
(0.0049409 -2.03347e-05 0)
(0.0049315 -2.42975e-05 0)
(0.0049215 -2.88575e-05 0)
(0.00491075 -3.38268e-05 0)
(0.0048995 -3.94639e-05 0)
(0.00488771 -4.5776e-05 0)
(0.00487534 -5.26252e-05 0)
(0.00486268 -6.01475e-05 0)
(0.00484979 -6.84095e-05 0)
(0.00483639 -7.72323e-05 0)
(0.00482303 -8.67949e-05 0)
(0.00480937 -9.70197e-05 0)
(0.00479558 -0.00010798 0)
(0.004782 -0.000119596 0)
(0.00476842 -0.000131893 0)
(0.00475485 -0.00014478 0)
(0.00474163 -0.000158264 0)
(0.00472851 -0.000172358 0)
(0.00471566 -0.00018705 0)
(0.00470331 -0.000202172 0)
(0.00469127 -0.000217799 0)
(0.0046797 -0.000233782 0)
(0.00466854 -0.000250142 0)
(0.00465787 -0.000266732 0)
(0.00464759 -0.000283597 0)
(0.00463781 -0.000300494 0)
(0.00462839 -0.000317513 0)
(0.0046193 -0.000334536 0)
(0.00461049 -0.000351456 0)
(0.00460173 -0.000368315 0)
(0.00455391 -0.000393876 0)
(0.00451493 -0.000402667 0)
(0.00447602 -0.000411342 0)
(0.00443717 -0.000419758 0)
(0.00439834 -0.000427888 0)
(0.00435948 -0.000435579 0)
(0.00432045 -0.000442894 0)
(0.00428126 -0.000449651 0)
(0.00424174 -0.000456038 0)
(0.00420192 -0.000461907 0)
(0.00416171 -0.000467326 0)
(0.00412106 -0.000472209 0)
(0.00407985 -0.000476847 0)
(0.00403816 -0.000480842 0)
(0.00399577 -0.000484547 0)
(0.0039527 -0.000488147 0)
(0.00390888 -0.000491399 0)
(0.00386436 -0.000494272 0)
(0.00381902 -0.000497151 0)
(0.0037728 -0.000499838 0)
(0.00372569 -0.000502601 0)
(0.00367761 -0.000505278 0)
(0.00362842 -0.000508022 0)
(0.0035785 -0.000510925 0)
(0.0035275 -0.000514272 0)
(0.00347523 -0.000517527 0)
(0.00342198 -0.000521481 0)
(0.00336745 -0.00052551 0)
(0.0033119 -0.000530589 0)
(0.003255 -0.000535871 0)
(0.00319697 -0.000542107 0)
(0.00313765 -0.000548865 0)
(0.00307712 -0.000557009 0)
(0.003015 -0.00056562 0)
(0.00295186 -0.000575673 0)
(0.00288714 -0.000586697 0)
(0.00282125 -0.000599304 0)
(0.00275397 -0.000613132 0)
(0.00268552 -0.00062875 0)
(0.00261538 -0.000645836 0)
(0.00254399 -0.000664658 0)
(0.00247141 -0.000685649 0)
(0.00239727 -0.000708565 0)
(0.0023223 -0.000733474 0)
(0.00224614 -0.000760874 0)
(0.00216828 -0.000790445 0)
(0.00209001 -0.000822568 0)
(0.00201066 -0.000857494 0)
(0.00193007 -0.00089477 0)
(0.00184943 -0.000935095 0)
(0.00176718 -0.000978077 0)
(0.00168408 -0.00102458 0)
(0.00159921 -0.0010741 0)
(0.00151444 -0.00112663 0)
(0.00142998 -0.00118191 0)
(0.00134534 -0.00123968 0)
(0.0012613 -0.00130226 0)
(0.00117688 -0.00136783 0)
(0.00109292 -0.00143439 0)
(0.00101159 -0.00150583 0)
(0.000930716 -0.00158024 0)
(0.000851396 -0.00165715 0)
(0.00077366 -0.00173682 0)
(0.000698087 -0.00181861 0)
(0.000624953 -0.00190271 0)
(0.000554196 -0.00198847 0)
(0.000487407 -0.00207476 0)
(0.000424773 -0.00216233 0)
(0.000365933 -0.00224786 0)
(0.000312184 -0.00233162 0)
(0.000263977 -0.00241226 0)
(0.000219301 -0.00248886 0)
(0.00017916 -0.00255908 0)
(0.000145154 -0.00262351 0)
(0.000113299 -0.00267947 0)
(8.52309e-05 -0.00272639 0)
(6.22995e-05 -0.0027646 0)
(3.88851e-05 -0.00279171 0)
(2.02691e-05 -0.00280834 0)
(0 -0.00280373 0)
(0 -0.00278836 0)
(0 -0.00277442 0)
(0 -0.0027563 0)
(0 -0.00273888 0)
(0 -0.00271891 0)
(0 -0.00269965 0)
(0 -0.00268111 0)
(0 -0.00266322 0)
(0 -0.00264204 0)
(0 -0.00261919 0)
(0 -0.00258989 0)
(0 -0.00254206 0)
(0 -0.00246912 0)
(0 -0.00236677 0)
(0 -0.00222366 0)
(0 -0.00204476 0)
(0 -0.00183828 0)
(0 -0.00160813 0)
(0.000315334 -0.00136758 0)
(0.000627438 -0.00139895 0)
(0.000905731 -0.00148887 0)
(0.00116216 -0.00156968 0)
(0.00138342 -0.00163941 0)
(0.00162061 -0.0017163 0)
(0.0017988 -0.00176294 0)
(0.00194754 -0.00176767 0)
(0.00208654 -0.00172312 0)
(0.00220585 -0.00164821 0)
(0.00232452 -0.00157198 0)
(0.00244217 -0.00149507 0)
(0.00255612 -0.00141654 0)
(0.00266717 -0.00133793 0)
(0.00277262 -0.00125852 0)
(0.00287409 -0.0011804 0)
(0.00297031 -0.00110136 0)
(0.00306234 -0.00102467 0)
(0.0031481 -0.00094796 0)
(0.00322809 -0.000869726 0)
(0.00330197 -0.0007944 0)
(0.00336998 -0.000719649 0)
(0.00343193 -0.00064393 0)
(0.00348726 -0.000571585 0)
(0.00353681 -0.000498873 0)
(0.00357902 -0.000427123 0)
(0.00361538 -0.000353039 0)
(0.00364535 -0.000283131 0)
(0.003668 -0.000210972 0)
(0.00368435 -0.0001422 0)
(0.00369621 -7.18102e-05 0)
(0.0031366 -0.000234275 0)
(0.00393152 -0.000154026 0)
(0.00207967 -0.000891772 0)
(0.00422286 -0.000254768 0)
(0.00445149 -9.54364e-05 0)
(0.00327566 -0.000270072 0)
(0.00378496 -6.38276e-05 0)
(0.00111582 -0.00183387 0)
(0.00347344 -0.00016035 0)
(0.00242793 -0.000566667 0)
(0.00376833 -0.000305826 0)
(0.00418783 -6.16595e-05 0)
(0.00283505 -0.000526906 0)
(0.00372778 -4.63941e-05 0)
(0.00451783 -0.0001536 0)
(0.00277271 -0.000447248 0)
(0.00344478 -0.000154507 0)
(0.00469844 -4.63573e-05 0)
(0.00436329 -0.000318798 0)
(0.00420792 -0.000165103 0)
(0.00136997 -0.00140776 0)
(0.00190913 -0.00126308 0)
(0.00338447 -0.000365446 0)
(0.00403394 -3.22987e-05 0)
(0.00184648 -0.000938843 0)
(0.00269398 -0.000465757 0)
(0.00398842 -0.000359786 0)
(0.00441736 -4.55081e-05 0)
(0.00362809 -0.000230948 0)
(0.00394169 -8.4767e-05 0)
(0.00303453 -0.000293481 0)
(0.000431307 -0.00246454 0)
(0.003896 -2.2619e-05 0)
(0.0036825 -0.000143029 0)
(0.00467891 -8.76394e-05 0)
(0.00450253 -0.000218527 0)
(0.00351861 -0.000106077 0)
(0.000942073 -0.00212732 0)
(0.00365146 -0.00014961 0)
(0.00303743 -0.000426923 0)
(0.003736 -4.93416e-05 0)
(0.00314493 -0.000260698 0)
(0.00396977 -0.000220221 0)
(0.00416152 -0.000110602 0)
(0.00329675 -0.000363186 0)
(0.000850201 -0.00194272 0)
(0.00237207 -0.000619249 0)
(0.00251623 -0.000908462 0)
(0.00349637 -0.00011402 0)
(0.00358911 -0.000397929 0)
(0.00418593 -2.63235e-05 0)
(0.00230546 -0.000665553 0)
(0.00277639 -0.000390535 0)
(0.00155807 -0.00138276 0)
(0.00156836 -0.00167808 0)
(0.00416188 -0.000381598 0)
(0.00457829 -3.28056e-05 0)
(0.00400634 -0.000280482 0)
(0.00432051 -8.00903e-05 0)
(0.00201891 -0.000803986 0)
(0.00432689 -0.000190051 0)
(0.00237036 -0.000796018 0)
(0.00378752 -0.000409156 0)
(0.00431519 -2.69733e-05 0)
(0.00385723 -1.72699e-05 0)
(0.00142101 -0.00125745 0)
(0.0048271 -2.06397e-05 0)
(0.00445632 -0.000348723 0)
(0.00441706 -0.000137185 0)
(0.000428975 -0.00246105 0)
(0.00469819 -0.000109368 0)
(0.00272875 -0.000424267 0)
(0.00372408 -5.56831e-05 0)
(0.00297926 -0.000644378 0)
(0.00345817 -0.000193519 0)
(0.00367187 -0.000106085 0)
(0.00400342 -1.55341e-05 0)
(0.00463241 -0.000157129 0)
(0.00177357 -0.00106137 0)
(0.00316775 -0.000316696 0)
(0.00479369 -5.0761e-05 0)
(0.00452171 -0.000258869 0)
(0.00421986 -0.000309603 0)
(0.00455183 -6.33393e-05 0)
(0.00414428 -0.000219487 0)
(0.00429042 -0.000120121 0)
(0.00303211 -0.000331711 0)
(0.00276582 -0.000514394 0)
(0.0032267 -0.000208982 0)
(0.00340387 -0.000291318 0)
(0.00392856 -5.43415e-05 0)
(0.00358699 -0.000301649 0)
(0.00406505 -5.41306e-05 0)
(0.00319072 -0.000447059 0)
(0.00378257 -0.000242365 0)
(0.00402374 -0.000106066 0)
(0.00101362 -0.00166624 0)
(0.00375521 -5.41138e-05 0)
(0.00405119 -0.000168254 0)
(0.00382087 -1.94802e-05 0)
(0.0028765 -0.000417394 0)
(0.000512176 -0.00230775 0)
(0.00374834 -0.000173465 0)
(0.00221568 -0.00124885 0)
(0.00410773 -1.51981e-05 0)
(0.00385397 -0.000124233 0)
(0.00470508 -2.24847e-05 0)
(0.00430034 -0.000386642 0)
(0.000202108 -0.00266886 0)
(0.00324548 -0.000238781 0)
(0.00149271 -0.0015737 0)
(0.00335327 -0.000155956 0)
(0.00438408 -0.000219407 0)
(0.00361682 -9.34838e-05 0)
(0.00194094 -0.00109001 0)
(0.00243963 -0.000654692 0)
(0.00119662 -0.00166135 0)
(0.00393345 -3.35925e-05 0)
(0.00297294 -0.000314416 0)
(0.00338961 -0.000442654 0)
(0.00458281 -8.46706e-05 0)
(0.00352564 -0.000299464 0)
(0.00251976 -0.00059128 0)
(0.00216241 -0.000727618 0)
(0.00170182 -0.00100879 0)
(0.00400848 -0.000419134 0)
(0.00447954 -2.30191e-05 0)
(0.00320977 -0.000341943 0)
(0.00436368 -0.000272144 0)
(0.0036077 -8.87346e-05 0)
(0.000767507 -0.0021196 0)
(0.0038563 -0.00034618 0)
(0.00430201 -4.89536e-05 0)
(0.00455527 -0.000119698 0)
(0.00349355 -0.0002236 0)
(0.00382178 -8.35782e-05 0)
(0.000801767 -0.00212652 0)
(0.000809226 -0.00214816 0)
(0.00363783 -0.000112155 0)
(0.00300567 -0.000289 0)
(0.00371718 -0.000129683 0)
(0.00348756 -0.000214229 0)
(0.00341479 -0.000144621 0)
(0.00138587 -0.00193873 0)
(0.00392934 -9.42018e-06 0)
(0.0002406 -0.00261641 0)
(0.00410559 -0.00030786 0)
(0.00443661 -6.86835e-05 0)
(0.00360363 -7.86961e-05 0)
(0.00177777 -0.00113886 0)
(0.00297961 -0.000391412 0)
(0.00380647 -3.37268e-05 0)
(0.00336522 -0.000174201 0)
(0.00477515 -7.67053e-05 0)
(0.0040827 -7.7094e-05 0)
(0.00121726 -0.00184559 0)
(0.00463452 -0.000181587 0)
(0.00383534 -4.09113e-05 0)
(0.00255461 -0.000516705 0)
(0.00389199 -0.000196566 0)
(0.000451252 -0.00242688 0)
(0.00202104 -0.000850572 0)
(0.00450132 -0.000187549 0)
(0.00213468 -0.000752447 0)
(0.00227475 -0.000654013 0)
(0.00486142 -2.88569e-05 0)
(0.00453985 -0.000291735 0)
(0.00389809 -0.000266945 0)
(0.00421549 -8.15148e-05 0)
(0.00221641 -0.00100241 0)
(0.00259491 -0.000503075 0)
(0.00325368 -0.000541907 0)
(0.00291609 -0.000511903 0)
(0.00374552 -4.15287e-05 0)
(0.00379716 -2.53291e-05 0)
(0.0036506 -0.000444694 0)
(0.00425311 -1.60327e-05 0)
(0.00264257 -0.000576596 0)
(0.0019543 -0.00153228 0)
(0.00405092 -0.00013476 0)
(0.00416271 -0.000139776 0)
(0.00305878 -0.000465208 0)
(0.00354789 -0.000147923 0)
(0.00469297 -6.42501e-05 0)
(0.00371889 -0.000361812 0)
(0.00422988 -4.01155e-05 0)
(0.00279589 -0.000889763 0)
(0.00266773 -0.000442619 0)
(0.000744696 -0.00193935 0)
(0.00351958 -0.000361242 0)
(0.00411032 -3.63647e-05 0)
(0.00375739 -6.29032e-05 0)
(0.000310314 -0.0025358 0)
(0.00113393 -0.00148742 0)
(0.00318468 -0.000222786 0)
(0.00387722 -0.000439481 0)
(0.0043958 -1.74204e-05 0)
(0.00259242 -0.000726559 0)
(0.00320714 -0.000390447 0)
(0.00411899 -0.000350061 0)
(0.00450541 -4.7798e-05 0)
(0.00378776 -0.00010915 0)
(0.00361879 -0.000183339 0)
(0.00286628 -0.000353611 0)
(0.00431644 -0.00016213 0)
(0.00363574 -7.11955e-05 0)
(0.00409215 -0.000195164 0)
(0.00330859 -0.000171824 0)
(0.00226752 -0.0007259 0)
(0.0015479 -0.00120811 0)
(0.00449271 -0.000110975 0)
(0.0023099 -0.000682592 0)
(0.00286201 -0.000383841 0)
(0.00397446 -8.6678e-06 0)
(0.00376022 -0.0002072 0)
(0.00417471 -1.34432e-05 0)
(0.00472372 -0.000118428 0)
(0.00145332 -0.00118879 0)
(0.00111914 -0.00165144 0)
(0.00351206 -0.000454312 0)
(0.00242101 -0.000577977 0)
(0.00278773 -0.000395584 0)
(0.00327351 -0.000209013 0)
(0.00442557 -0.000185303 0)
(0.00419314 -0.000419609 0)
(0.00463034 -1.65237e-05 0)
(0.00489222 -9.39435e-06 0)
(0.00450697 -0.000364827 0)
(0.00482918 -5.3496e-05 0)
(0.00335531 -0.000243501 0)
(0.000559337 -0.00235628 0)
(0.00406226 -9.75611e-06 0)
(0.00312142 -0.000329329 0)
(0.0029525 -0.000311476 0)
(0.00424963 -0.000345886 0)
(0.00461933 -4.47911e-05 0)
(0.00182167 -0.00144734 0)
(0.00150421 -0.00135616 0)
(0.00402576 -0.000242823 0)
(0.00412119 -0.000255543 0)
(0.00436073 -9.60848e-05 0)
(0.00425815 -0.000100621 0)
(0.00461753 -0.000212098 0)
(0.00254898 -0.00111021 0)
(0.00460881 -0.000143506 0)
(0.00386219 -1.03427e-05 0)
(0.00438978 -0.000118317 0)
(0.00423934 -0.000220375 0)
(0.00169859 -0.00134272 0)
(0.00135874 -0.00160279 0)
(0.00198744 -0.000828026 0)
(0.00442654 -0.000159498 0)
(0.00332796 -0.000172628 0)
(0.00423139 -0.00019077 0)
(0.00182226 -0.000927161 0)
(0.00431383 -0.00025564 0)
(0.00248002 -0.000544791 0)
(0.00478264 -1.31045e-05 0)
(0.00437624 -0.000393734 0)
(0.00363988 -0.00023888 0)
(0.00248307 -0.000580083 0)
(0.00305446 -0.000498884 0)
(0.00356157 -0.000119721 0)
(0.00172683 -0.00174488 0)
(0.00380068 -2.79768e-05 0)
(0.0012959 -0.0014059 0)
(0.00398263 -0.000321337 0)
(0.00435979 -6.10758e-05 0)
(0.00217989 -0.000888285 0)
(0.00464137 -0.00011044 0)
(0.00410572 -9.63738e-05 0)
(0.0016236 -0.00108867 0)
(0.00387398 -4.87122e-05 0)
(0.00409058 -0.000433538 0)
(0.00455199 -1.56747e-05 0)
(0.00478251 -3.55129e-05 0)
(0.00444076 -0.000319722 0)
(0.00404766 -2.00628e-05 0)
(0.00365088 -0.000335799 0)
(0.00415564 -4.60433e-05 0)
(0.000553998 -0.00217088 0)
(0.00199706 -0.000906439 0)
(0.00445587 -0.000256025 0)
(0.00323959 -0.000245363 0)
(0.00353795 -0.000273833 0)
(0.00397586 -6.41192e-05 0)
(0.00362888 -8.07764e-05 0)
(0.00260646 -0.000524462 0)
(0.0028792 -0.000379543 0)
(0.00297309 -0.000406568 0)
(0.00462791 -6.18698e-05 0)
(0.00366512 -0.0002581 0)
(0.00281727 -0.000631736 0)
(0.00347594 -0.000116128 0)
(0.00260871 -0.000591648 0)
(0.00390307 -0.000393147 0)
(0.00438288 -3.30211e-05 0)
(0.00389832 -8.31904e-06 0)
(0.000999026 -0.0018827 0)
(0.00326506 -0.000479311 0)
(0.00339905 -0.00018682 0)
(0.00332807 -0.000336041 0)
(0.000194795 -0.00261017 0)
(0.00372761 -6.52335e-05 0)
(0.00395119 -2.19227e-05 0)
(0.00429501 -0.000143181 0)
(0.00334211 -0.000229916 0)
(0.00308825 -0.000289899 0)
(0.00268603 -0.000501453 0)
(0.00370007 -8.58288e-05 0)
(0.00376214 -0.00045695 0)
(0.004328 -1.24564e-05 0)
(0.00390892 -0.000298737 0)
(0.00427219 -6.89252e-05 0)
(0.00478069 -8.58221e-05 0)
(0.00386851 -2.07791e-05 0)
(0.00382545 -1.40792e-05 0)
(0.00489915 -1.71554e-05 0)
(0.00455017 -0.000318727 0)
(0.0017433 -0.0010401 0)
(0.00283783 -0.000454191 0)
(0.00400374 -4.63275e-05 0)
(0.00346114 -0.00031739 0)
(0.00370214 -5.48717e-05 0)
(0.00364887 -8.43292e-05 0)
(0.000656909 -0.00229424 0)
(0.00469488 -0.000149435 0)
(0.00318148 -0.000281798 0)
(0.003427 -0.00046197 0)
(0.00306399 -0.000324716 0)
(0.0033243 -0.000413538 0)
(0.0012425 -0.00191395 0)
(0.00394942 -0.000102075 0)
(0.00371209 -0.000286644 0)
(0.00452485 -7.98251e-05 0)
(0.00127032 -0.00133873 0)
(0.000127151 -0.00270362 0)
(0.00393718 -0.000126935 0)
(0.00459577 -9.83381e-05 0)
(0.00310358 -0.000716163 0)
(9.26517e-05 -0.0027554 0)
(0.00487224 -3.4343e-05 0)
(0.00460018 -0.000250783 0)
(0.00441985 -0.000233312 0)
(0.000839956 -0.00209048 0)
(0.00431046 -0.000302837 0)
(0.00160502 -0.00121617 0)
(0.00368145 -0.000123389 0)
(0.00120513 -0.00191987 0)
(0.00357165 -0.000170097 0)
(0.00227447 -0.00108018 0)
(0.00375687 -0.000146816 0)
(0.0038425 -0.000149339 0)
(0.00349805 -0.000128958 0)
(0.00336955 -0.000268565 0)
(0.00474969 -6.79869e-05 0)
(0.00419875 -0.000290647 0)
(0.000697287 -0.00213835 0)
(0.00383525 -0.00017624 0)
(0.002618 -0.000468824 0)
(0.00289882 -0.000351951 0)
(0.00383875 -6.41049e-05 0)
(0.0044499 -0.00028077 0)
(0.00457411 -0.00018716 0)
(0.00313505 -0.000236471 0)
(0.00277266 -0.00055682 0)
(0.00321005 -0.000347517 0)
(0.00372005 -6.31038e-05 0)
(0.00402162 -6.96433e-06 0)
(0.00398508 -2.53462e-05 0)
(0.00316051 -0.000241973 0)
(0.00352428 -0.000111878 0)
(0.00475063 -4.88231e-05 0)
(0.00401957 -7.26946e-05 0)
(0.00335237 -0.000172083 0)
(0.00397875 -0.000190947 0)
(0.000209214 -0.00257165 0)
(0.00369137 -9.99848e-05 0)
(0.0029159 -0.000386917 0)
(0.00380296 -0.000270116 0)
(0.00409427 -2.61402e-05 0)
(0.00041628 -0.00232783 0)
(0.00454005 -0.000225914 0)
(0.00379334 -2.61505e-05 0)
(0.00472806 -3.25094e-05 0)
(0.00435659 -0.000350688 0)
(0.00369825 -0.000402584 0)
(0.00426216 -2.81641e-05 0)
(0.00228045 -0.000649261 0)
(0.00347911 -0.000401259 0)
(0.00290326 -0.000461039 0)
(0.00411845 -6.06865e-05 0)
(0.00459307 -0.00013169 0)
(0.00344925 -0.000286298 0)
(0.000813588 -0.00179666 0)
(0.0039613 -4.02957e-05 0)
(0.00308418 -0.000379289 0)
(0.00386716 -0.00024059 0)
(0.000288211 -0.00259513 0)
(0.0020295 -0.00109856 0)
(0.00349374 -0.000253583 0)
(0.00390844 -6.90759e-05 0)
(0.00314224 -0.000503423 0)
(0.000548677 -0.00232526 0)
(0.00195054 -0.000858259 0)
(0.00273284 -0.000786622 0)
(0.00309296 -0.000447919 0)
(0.00432128 -0.000213777 0)
(0.0037882 -2.94989e-05 0)
(0.00365266 -0.000201317 0)
(0.00126689 -0.00175054 0)
(0.00369246 -5.96216e-05 0)
(0.00394032 -1.45225e-05 0)
(0.00404221 -0.000380322 0)
(0.00447422 -3.78154e-05 0)
(0.00216958 -0.000719319 0)
(0.00224676 -0.00139514 0)
(0.000363607 -0.00242065 0)
(0.00110576 -0.00207552 0)
(0.00424233 -0.000372412 0)
(0.00464306 -3.29285e-05 0)
(0.00397157 -0.000168566 0)
(0.00340471 -0.000139011 0)
(0.000191889 -0.00265996 0)
(0.00194835 -0.00102632 0)
(0.00265223 -0.000531015 0)
(0.00177203 -0.00119728 0)
(0.00260438 -0.000477726 0)
(0.00132121 -0.00150538 0)
(0.000527229 -0.00185551 0)
(0.00415434 -7.51148e-05 0)
(0.000923266 -0.00180635 0)
(0.0014462 -0.00168719 0)
(0.00353784 -0.000155522 0)
(0.0045022 -0.000140645 0)
(0.00217516 -0.000949789 0)
(0.00421735 -0.000122068 0)
(0.00232557 -0.000766647 0)
(0.00387159 -0.000100755 0)
(0.00216038 -0.000773893 0)
(0.00217033 -0.000738188 0)
(0.00202851 -0.000822553 0)
(0.00390093 -2.97217e-05 0)
(0.00357078 -0.000215891 0)
(0.00359547 -0.000153206 0)
(0.00171457 -0.00143432 0)
(0.00401292 -8.95883e-05 0)
(0.00413628 -7.96494e-06 0)
(0.00394798 -0.000454117 0)
(0.00445224 -1.17728e-05 0)
(0.000999102 -0.0020261 0)
(0.00363186 -7.40914e-05 0)
(0.00413391 -0.000162673 0)
(0.00335202 -0.000210772 0)
(0.00372625 -9.74991e-05 0)
(0.00464246 -8.31049e-05 0)
(0.00380257 -3.97e-05 0)
(0.00105713 -0.00192624 0)
(0.00384724 -9.61321e-06 0)
(0.000381117 -0.00250696 0)
(0.000776126 -0.00224128 0)
(0.00378692 -2.88927e-05 0)
(0.0025657 -0.000669964 0)
(0.00425034 -0.000424987 0)
(0.00468649 -1.09466e-05 0)
(0.00327988 -0.000297714 0)
(0.00321979 -0.000203941 0)
(0.0038252 -2.60568e-05 0)
(0.00340834 -0.000483162 0)
(0.00213568 -0.000733189 0)
(0.00204361 -0.00126102 0)
(0.00287559 -0.00034446 0)
(0.00429028 -0.000283106 0)
(0.0037614 -5.59452e-05 0)
(0.00240242 -0.000664901 0)
(0.00442358 -8.37333e-05 0)
(0.00138763 -0.00149554 0)
(0.00414311 -2.14972e-05 0)
(0.00343746 -0.000217743 0)
(0.00316143 -0.000499553 0)
(0.00378734 -0.000373576 0)
(0.00428634 -3.79943e-05 0)
(0.00338054 -0.000396558 0)
(0.00182387 -0.000936291 0)
(0.00302653 -0.000303689 0)
(0.00374941 -8.91304e-05 0)
(0.00307884 -0.000261763 0)
(0.00356785 -0.000114218 0)
(0.00153729 -0.0011152 0)
(0.00273245 -0.000436202 0)
(0.00100673 -0.00182311 0)
(0.00119233 -0.00153384 0)
(0.00225969 -0.000768575 0)
(0.000620385 -0.00228319 0)
(0.00347741 -0.000136138 0)
(0.000942845 -0.00164787 0)
(0.00242592 -0.000877788 0)
(0.00355037 -0.000370302 0)
(0.00330491 -0.000177683 0)
(0.00446303 -0.000210748 0)
(0.00256212 -0.000555267 0)
(0.00407304 -0.000113566 0)
(0.00484432 -7.52199e-06 0)
(0.00443985 -0.000393418 0)
(0.0024831 -0.000582573 0)
(0.00383439 -1.86763e-05 0)
(0.00367107 -0.000167281 0)
(0.000372532 -0.00250928 0)
(0.00414674 -0.000277157 0)
(0.003065 -0.0004004 0)
(0.00298131 -0.000331697 0)
(0.00449673 -0.000284949 0)
(0.00282267 -0.000486774 0)
(0.00190351 -0.00101407 0)
(0.00395525 -5.15847e-06 0)
(0.00337374 -0.000277269 0)
(0.00422102 -8.89304e-06 0)
(0.00379079 -0.000333163 0)
(0.00424124 -5.16671e-05 0)
(0.00416673 -0.00018762 0)
(0.00391681 -0.000359686 0)
(0.0043605 -4.50387e-05 0)
(0.0045189 -9.44497e-05 0)
(0.00118053 -0.00173507 0)
(0.0044897 -7.13986e-05 0)
(0.00186599 -0.000899754 0)
(0.000675545 -0.00210437 0)
(0.00305473 -0.000275753 0)
(0.0035649 -9.56375e-05 0)
(0.00471444 -9.52639e-05 0)
(0.00368677 -0.000190158 0)
(0.00407772 -0.000402888 0)
(0.00452674 -2.86184e-05 0)
(0.00157761 -0.00115116 0)
(0.00448475 -0.000126624 0)
(0.00352722 -0.000195579 0)
(0.00216676 -0.000756387 0)
(0.00374933 -0.000102246 0)
(0.00423693 -0.0001359 0)
(0.00473971 -0.000123866 0)
(0.00231816 -0.000632321 0)
(0.00483913 -5.70248e-05 0)
(0.00316759 -0.000252017 0)
(0.00406369 -0.000338499 0)
(0.00414713 -0.000321174 0)
(0.00444805 -5.46288e-05 0)
(0.00405995 -4.39165e-05 0)
(0.00429946 -0.000237231 0)
(0.000849124 -0.00200161 0)
(0.00357559 -0.000473987 0)
(0.00326855 -0.000205287 0)
(0.00356925 -0.00022195 0)
(0.00409185 -0.00014563 0)
(0.00378729 -5.43826e-05 0)
(0.00384856 -3.00772e-05 0)
(0.00454136 -0.000164397 0)
(0.00466816 -0.000186018 0)
(0.00281637 -0.000392767 0)
(0.00357615 -8.72472e-05 0)
(0.00365845 -6.3716e-05 0)
(0.00161022 -0.00188115 0)
(0.00361754 -0.000144155 0)
(0.00436293 -0.000136662 0)
(0.00370283 -5.24853e-05 0)
(0.0047706 -2.23712e-05 0)
(0.00438573 -0.000365213 0)
(0.00418066 -0.000354303 0)
(0.00455323 -5.03107e-05 0)
(0.00478205 -9.35253e-05 0)
(0.00297931 -0.000344681 0)
(0.00299055 -0.000877256 0)
(0.00237921 -0.000602959 0)
(0.0034491 -0.000128729 0)
(0.00314007 -0.000383741 0)
(0.00399698 -0.000126533 0)
(0.000602189 -0.00232438 0)
(0.00341567 -0.000387352 0)
(0.00403955 -0.000218794 0)
(0.00437715 -7.71562e-05 0)
(0.00185979 -0.000969449 0)
(0.00401595 -0.0004506 0)
(0.0045014 -1.1544e-05 0)
(0.00397131 -0.000402151 0)
(0.00443581 -2.9827e-05 0)
(0.00209487 -0.00114079 0)
(0.00200831 -0.00140083 0)
(0.00381149 -0.000215437 0)
(0.00354841 -9.52119e-05 0)
(0.00392675 -4.93904e-06 0)
(0.00376205 -4.03913e-05 0)
(0.00404164 -0.000300404 0)
(0.00371515 -0.000108244 0)
(0.00345295 -0.000135497 0)
(0.00012569 -0.00266212 0)
(0.00409821 -6.35836e-06 0)
(0.00352723 -0.000139062 0)
(0.00363428 -0.000367601 0)
(0.00418597 -3.61443e-05 0)
(0.0043594 -0.000169591 0)
(0.00302747 -0.000354552 0)
(0.00295113 -0.000535542 0)
(0.00151136 -0.00180143 0)
(0.00387443 -4.03265e-05 0)
(0.0016612 -0.0010295 0)
(0.00387178 -8.53423e-05 0)
(0.00261685 -0.000480695 0)
(0.00420567 -1.78327e-05 0)
(0.003422 -0.00013576 0)
(0.00248636 -0.00127814 0)
(0.00243436 -0.00058109 0)
(0.00266863 -0.000462923 0)
(0.00269657 -0.000435107 0)
(0.00389103 -1.38369e-05 0)
(0.00303709 -0.000274127 0)
(0.00173866 -0.0011241 0)
(0.00226053 -0.000687312 0)
(0.00480964 -4.07837e-05 0)
(0.00473401 -8.02396e-05 0)
(0.00438104 -0.000288832 0)
(8.27565e-05 -0.00274408 0)
(0.00487642 -3.83284e-05 0)
(0.0027555 -0.00105003 0)
(0.00390324 -0.000214673 0)
(0.00379605 -2.78118e-05 0)
(0.00372723 -0.000233132 0)
(0.00396919 -0.000265498 0)
(0.00395821 -0.000243967 0)
(0.00420606 -9.68708e-05 0)
(0.0042593 -8.69958e-05 0)
(0.00384286 -0.000293839 0)
(0.00421862 -6.85205e-05 0)
(0.00197285 -0.00163743 0)
(0.00444171 -0.000198193 0)
(0.00150936 -0.00149626 0)
(0.00242297 -0.00105651 0)
(0.0048214 -6.83835e-05 0)
(0.00255072 -0.000501765 0)
(0.00184624 -0.00121061 0)
(0.00491519 -1.89454e-05 0)
(0.0045921 -0.000289647 0)
(0.00367951 -0.000473135 0)
(0.00428422 -8.65353e-06 0)
(0.00358939 -0.00043161 0)
(0.00376822 -4.16898e-05 0)
(0.00274941 -0.00040689 0)
(0.000431408 -0.00242173 0)
(0.00113257 -0.00153634 0)
(0.00467351 -3.96563e-05 0)
(0.00430538 -0.000347019 0)
(0.00298214 -0.000415883 0)
(0.00411738 -0.000127267 0)
(0.00248427 -0.00066035 0)