/*--------------------------------*- C++ -*----------------------------------*\
| =========                 |                                                 |
| \\      /  F ield         | OpenFOAM: The Open Source CFD Toolbox           |
|  \\    /   O peration     | Version:  v2012                                 |
|   \\  /    A nd           | Website:  www.openfoam.com                      |
|    \\/     M anipulation  |                                                 |
\*---------------------------------------------------------------------------*/
FoamFile
{
    version     2.0;
    format      ascii;
    class       volSymmTensorField;
    location    "11";
    object      sigma;
}
// * * * * * * * * * * * * * * * * * * * * * * * * * * * * * * * * * * * * * //

dimensions      [1 -1 -2 0 0 0 0];


internalField   nonuniform List<symmTensor> 
7666
(
(3.07272e+07 -7.12346e+06 6.07153e-06 -3.39088e+06 -3.75348e-06 8.20089e+06)
(9.85825e+07 -2.62275e+07 7.84629e-06 1.70565e+07 -2.20137e-05 3.46917e+07)
(2.40811e+08 -5.70236e+07 0.000829739 2.77543e+07 -0.000482971 1.10855e+08)
(1.13857e+08 -3.39262e+07 -2.85362e-05 8.95069e+06 -1.71915e-05 3.68423e+07)
(1.62573e+08 -2.66137e+07 0.000120823 -2.33777e+07 3.40006e-05 4.17586e+07)
(2.067e+08 -6.27359e+06 -0.00028653 -1.19696e+07 0.000101768 5.84192e+07)
(1.20504e+08 -5.23467e+06 -9.49494e-05 1.76611e+07 -7.22162e-06 4.14496e+07)
(1.20915e+08 -3.14333e+07 -0.000220724 9.38054e+06 -2.74678e-05 3.90886e+07)
(2.49031e+08 1.25236e+06 -0.000306356 -1.05157e+06 -0.000735916 7.47198e+07)
(1.19219e+08 -9.58724e+06 -9.32214e-05 2.239e+07 -7.05378e-06 4.24827e+07)
(7.84557e+07 -3.0903e+07 -3.27396e-05 9.19775e+06 7.9667e-06 2.6296e+07)
(1.26746e+08 -1.31461e+07 -2.21844e-05 5.26757e+06 -1.33632e-05 3.96041e+07)
(1.17803e+08 -3.21396e+07 -5.86136e-05 9.50599e+06 -2.95987e-05 3.81928e+07)
(1.11802e+08 -2.66503e+07 -4.04457e-05 1.59672e+07 -8.31917e-07 3.83309e+07)
(1.19853e+08 -3.67003e+06 4.7358e-05 2.3399e+07 5.31405e-05 4.29755e+07)
(1.56799e+08 -2.47098e+07 -9.75181e-05 -2.53762e+07 -7.69683e-05 3.9427e+07)
(1.21198e+08 -3.11741e+07 -0.000120964 1.0155e+07 -1.82642e-05 3.94058e+07)
(2.23622e+08 -4.85375e+06 0.000203233 -41555.8 -0.000415071 6.70743e+07)
(1.32893e+08 -2.02211e+07 -0.000121291 5.46638e+06 -9.14525e-06 4.15079e+07)
(1.07769e+08 -1.75604e+07 -6.53857e-06 2.1392e+07 -4.26481e-05 3.87483e+07)
(8.60346e+07 -7.83255e+06 -6.21164e-05 2.23322e+07 7.20192e-06 3.251e+07)
(1.63686e+08 -2.57784e+07 0.000273032 340287 2.35447e-05 4.92078e+07)
(1.1559e+08 -2.7197e+07 -1.43382e-05 1.44499e+07 4.20278e-05 3.90119e+07)
(1.04082e+08 -3.80421e+07 3.49814e-05 4.95116e+06 -5.31989e-06 3.27098e+07)
(1.99116e+08 -1.42248e+06 -0.000585086 -2.13479e+07 -1.045e-05 5.33305e+07)
(1.20302e+08 -3.57357e+06 5.81933e-05 2.45727e+07 3.41538e-05 4.34624e+07)
(2.0206e+08 1.69818e+06 -0.00053294 -1.9203e+07 -9.14816e-05 5.48572e+07)
(5.86227e+07 -3.08408e+07 3.59622e-05 -2.32772e+06 1.20577e-05 1.68885e+07)
(1.20121e+08 -3.17367e+07 -6.58528e-05 1.06324e+07 -2.86267e-05 3.9226e+07)
(1.22259e+08 -1.77571e+06 -2.49867e-05 1.23653e+06 1.86233e-06 3.70486e+07)
(1.2419e+08 -1.81454e+06 3.60556e-05 -10766.4 -2.24413e-05 3.72538e+07)
(2.23724e+08 -7.18979e+06 0.000298299 -555064 -0.00026194 6.69507e+07)
(2.26507e+07 -2.49949e+07 -9.34082e-08 -2.49435e+07 1.13586e-05 -687832)
(1.21446e+08 -5.42586e+06 -6.03884e-05 5.54847e+06 1.21372e-05 3.80982e+07)
(8.77428e+06 -1.91417e+07 9.20071e-06 -6.00086e+07 -3.86856e-05 -1.53703e+07)
(9.72789e+07 -1.96079e+07 3.59154e-05 1.98292e+07 2.14292e-05 3.51324e+07)
(9.72931e+07 -1.78637e+07 3.61957e-05 2.09642e+07 1.15352e-05 3.54772e+07)
(1.23981e+08 -4.33322e+06 -0.000174954 1.85257e+06 2.21027e-05 3.775e+07)
(2.01797e+08 -1.59976e+07 0.000425474 -4.36395e+06 0.000139622 5.92298e+07)
(1.18994e+08 -1.24395e+07 3.68962e-05 2.05964e+07 5.03529e-06 4.18772e+07)
(7.93716e+07 -3.35457e+07 7.23913e-06 -5.10652e+07 1.97792e-05 8.49193e+06)
(2.716e+08 975380 -0.00138416 2.08951e+07 -0.000476857 1.0311e+08)
(3.24707e+08 3.73547e+06 0.000161479 8.01234e+07 1.15832e-05 1.34607e+08)
(7.32675e+07 -3.83524e+07 4.04457e-05 -5.54341e+06 -1.22671e-05 2.03172e+07)
(2.65986e+08 3.64634e+07 -0.000204021 3.67377e+07 6.03417e-05 9.0817e+07)
(1.19785e+08 -4.07258e+06 -1.10222e-05 1.80711e+07 5.86049e-05 4.13569e+07)
(2.23702e+08 -2.78283e+06 0.000329147 -2.2166e+06 0.000183746 6.64456e+07)
(8.70871e+07 -3.57043e+07 5.32427e-06 -5.21063e+07 -5.87888e-06 1.04942e+07)
(1.17706e+08 -3.60664e+07 8.68696e-05 -3.78332e+07 -6.53857e-06 2.39618e+07)
(6.42799e+07 -8.21797e+06 1.51321e-05 1.73782e+07 -8.97959e-07 2.44974e+07)
(5.21001e+07 -3.17711e+07 2.59675e-05 -4.89249e+06 1.49592e-05 1.41623e+07)
(1.62728e+08 -1.54023e+07 0.000102515 -243555 -5.73001e-05 4.87453e+07)
(1.20567e+08 -3.09195e+06 1.05551e-05 1.5098e+07 -7.16324e-05 4.06995e+07)
(2.49206e+08 -643445 -0.000110969 -610596 -0.000349766 7.4894e+07)
(7.96223e+07 -4.57421e+06 -4.71711e-06 2.24052e+07 1.70083e-05 3.06083e+07)
(1.45434e+08 -2.55623e+07 -5.1141e-05 -2.41614e+07 -8.08681e-05 3.63819e+07)
(6.55181e+07 -1.21663e+07 4.90393e-06 1.70758e+07 -5.5618e-06 2.47782e+07)
(6.14622e+07 -1.00738e+07 2.8256e-05 1.61137e+07 -2.78564e-06 2.32728e+07)
(1.88419e+08 -4.30315e+06 -4.73813e-05 -3.24421e+07 -0.000289262 4.67931e+07)
(2.094e+08 -4.46437e+06 -5.26122e-05 -7.77709e+06 0.000104641 6.04869e+07)
(7.6787e+07 -1.84928e+07 1.01815e-05 1.80016e+07 -1.41192e-05 2.84366e+07)
(1.24465e+08 -4.14432e+06 -0.000197512 2.31047e+06 5.20459e-05 3.80328e+07)
(1.13734e+08 -3.05541e+07 0.000123766 1.23856e+07 2.11876e-05 3.7836e+07)
(1.13627e+08 -3.12278e+07 9.8639e-05 1.14227e+07 7.2114e-06 3.7515e+07)
(6.04833e+07 -1.45558e+07 -2.03163e-05 1.40636e+07 -1.7049e-05 2.23641e+07)
(1.23771e+08 -3.71787e+07 0.000183407 -3.49591e+07 -3.55477e-05 2.66436e+07)
(1.15341e+08 -1.00172e+07 6.12291e-05 2.62223e+07 2.00777e-05 4.24691e+07)
(6.48008e+07 -1.4768e+07 -1.92888e-05 1.58076e+07 -1.92096e-05 2.41825e+07)
(1.78574e+08 -1.33464e+07 -0.000554494 -3.12331e+07 0.000127152 4.42023e+07)
(1.91179e+08 -4.4965e+06 -0.000273032 -3.32951e+07 -0.000294598 4.73653e+07)
(1.82275e+08 -1.47737e+07 -0.000484999 -2.89125e+07 5.35929e-05 4.60088e+07)
(1.19966e+08 -1.65746e+06 5.60449e-05 4.00562e+07 2.20649e-05 4.80067e+07)
(1.1979e+08 -1.83797e+06 3.32533e-05 3.87081e+07 4.4584e-05 4.75494e+07)
(1.20892e+08 -871064 9.26609e-05 1.09138e+06 -3.08539e-05 3.65952e+07)
(1.20819e+08 -850439 0.000103076 1.12692e+06 2.17232e-05 3.65836e+07)
(1.20303e+08 -990415 7.45864e-05 1.58173e+07 -0.000123633 4.08362e+07)
(2.08731e+08 3.07455e+07 1.25517e-05 1.8212e+07 1.92421e-05 6.80829e+07)
(1.09841e+08 -2.84556e+07 -7.23913e-06 1.51471e+07 2.9174e-05 3.74965e+07)
(1.09003e+08 -2.90429e+07 -7.77156e-05 1.36846e+07 4.30845e-05 3.68064e+07)
(7.6553e+07 -1.8592e+07 1.11623e-05 1.73461e+07 1.87272e-05 2.81697e+07)
(1.21333e+08 -1.01872e+07 5.67922e-05 1.44437e+07 8.51474e-06 4.07329e+07)
(1.18754e+08 -4.77097e+06 -5.21218e-05 3.39263e+07 4.07836e-05 4.58042e+07)
(9.05761e+07 -4.12426e+07 3.54484e-05 -1.15637e+07 6.04526e-06 2.37037e+07)
(3.05435e+08 4.9517e+06 -2.05584e-05 6.04198e+07 0.000224082 1.12689e+08)
(1.31064e+08 -1.0516e+07 0.000181912 1.71641e+06 -0.000120088 3.9834e+07)
(1.57738e+08 -3.64233e+06 3.40473e-05 479344 4.6383e-05 4.74651e+07)
(1.55263e+08 -5.71794e+06 1.41513e-05 -535006 4.15666e-05 4.64183e+07)
(1.69576e+08 -1.91186e+07 1.1209e-06 1.8049e+06 -4.10412e-05 5.14143e+07)
(1.03652e+08 -3.8592e+07 0.000115733 -4.13107e+07 -9.01564e-05 1.87023e+07)
(1.23531e+08 -2.67911e+06 -0.000226795 726087 -1.46009e-05 3.72771e+07)
(1.19405e+08 -2.09998e+07 8.08915e-05 1.43362e+07 3.6832e-05 4.01223e+07)
(1.20762e+08 -2.04179e+07 5.29157e-05 1.5171e+07 3.5536e-05 4.07798e+07)
(1.71116e+08 -1.42886e+06 0.000319549 436621 0.000205656 5.14657e+07)
(2.08393e+08 540698 -0.000336013 -2.80134e+07 -3.71064e-05 5.41139e+07)
(2.43729e+08 2.09435e+06 0.000703807 -780644 -0.000261216 7.28846e+07)
(1.39612e+08 -2.63908e+07 -0.000270837 -4.5645e+07 0.000121863 2.81902e+07)
(-8.48047e+06 -5.77297e+06 8.96719e-06 -8.79673e+07 3.4993e-05 -2.89343e+07)
(2.36517e+08 -7.03332e+07 0.000880496 4.24282e+07 -0.000527364 1.19988e+08)
(1.34302e+08 -1.91277e+07 -0.000167014 5.44332e+06 -4.21913e-05 4.19236e+07)
(1.05719e+08 -1.67081e+07 3.33934e-05 2.11379e+07 -3.0203e-05 3.80571e+07)
(1.70978e+08 -1.85671e+06 0.000231325 -717183 0.000169361 5.10781e+07)
(1.21326e+08 -1.2499e+06 4.00254e-05 1.10419e+06 5.69206e-06 3.67292e+07)
(4.13147e+07 -2.98536e+07 -1.01348e-05 -1.68979e+07 -6.76844e-06 7.32505e+06)
(2.57283e+08 -1.74329e+07 -7.48265e-05 1.24518e+07 0.000176254 8.90304e+07)
(5.11954e+07 -3.92113e+07 -3.91847e-05 -3.91067e+07 8.5235e-06 3.6266e+06)
(1.96063e+08 -1.68924e+07 0.000129697 -2.23359e+06 -6.5771e-05 5.81488e+07)
(2.84222e+08 1.99268e+07 -6.51569e-05 3.80792e+07 0.000112935 1.07932e+08)
(1.68036e+08 -2.65742e+07 0.000349253 -1.13343e+07 6.54324e-05 4.70105e+07)
(1.19998e+08 -3.57648e+06 -8.1125e-05 1.71929e+07 -4.29955e-05 4.11572e+07)
(1.62965e+08 -1.07897e+07 1.89152e-05 -250237 1.43673e-05 4.88145e+07)
(1.0596e+08 -3.20428e+07 -0.000105925 1.20065e+07 1.2289e-06 3.539e+07)
(1.55683e+08 -3.2971e+07 -0.000113304 -9.76573e+06 -8.35419e-06 4.37751e+07)
(9.15365e+07 -3.02937e+07 1.34041e-05 1.3279e+07 -4.17082e-05 3.14446e+07)
(7.47637e+07 -1.64999e+07 -2.72752e-05 1.78807e+07 -5.35273e-06 2.77933e+07)
(7.31864e+07 -3.09263e+07 -3.77369e-05 7.9356e+06 1.27925e-06 2.43366e+07)
(1.7188e+08 -2.178e+07 -0.0001162 -2.02354e+07 7.87081e-05 4.54934e+07)
(6.25173e+07 -3.1777e+07 1.44783e-06 1.33129e+06 -1.65427e-05 1.91546e+07)
(-345527 -1.18911e+07 -4.39018e-05 -7.91719e+07 9.60937e-06 -2.38552e+07)
(1.26652e+08 -6.5609e+06 -3.17588e-05 2.31721e+06 3.15836e-06 3.86907e+07)
(1.26651e+08 -7.36278e+06 4.05859e-05 3.17692e+06 -2.19626e-05 3.89483e+07)
(2.34195e+08 -3.05759e+06 0.000225838 -1.6452e+06 0.000337437 6.97648e+07)
(1.20291e+08 -410662 6.47786e-05 1.98081e+06 5.251e-05 3.66814e+07)
(1.25031e+08 -1.4659e+07 4.75915e-05 1.00232e+07 -4.12251e-05 4.05161e+07)
(1.20374e+08 -5.0434e+06 2.80225e-05 2.478e+07 1.17519e-05 4.35463e+07)
(1.0303e+08 -3.63458e+07 -3.04511e-05 6.53518e+06 -1.66675e-05 3.28694e+07)
(6.19583e+07 -1.76771e+06 1.82146e-05 1.7397e+07 -5.17398e-06 2.38066e+07)
(1.65729e+08 -2.86151e+07 0.000217688 -1.21549e+07 0.000133334 4.60723e+07)
(1.49538e+08 -3.43429e+07 8.01909e-05 -2.55115e+06 5.75015e-05 4.40962e+07)
(1.13729e+08 -3.92938e+07 3.19923e-05 -1.15105e+06 -8.86794e-06 3.37734e+07)
(1.21447e+08 -2.52304e+07 2.77422e-05 1.24198e+07 -2.17758e-05 4.01601e+07)
(1.51954e+08 -2.41743e+07 2.38658e-05 -2.13099e+07 -0.000162495 3.91933e+07)
(1.43572e+08 -1.39897e+07 -0.000138524 2.06436e+06 -4.94246e-05 4.3691e+07)
(9.85857e+07 -1.07994e+07 -1.60662e-05 2.31688e+07 2.00547e-05 3.65263e+07)
(1.96637e+08 1.55865e+07 0.000240325 2.3418e+07 7.52403e-05 6.60166e+07)
(1.24751e+08 -1.41958e+07 -6.39846e-06 8.70819e+06 1.04179e-05 4.00379e+07)
(1.97493e+08 -1.79707e+07 0.000276021 -3.19684e+06 -6.65417e-05 5.82889e+07)
(1.20756e+08 -1.01143e+07 6.72539e-06 1.44821e+07 2.8615e-05 4.05716e+07)
(1.18982e+08 -1.23926e+07 9.8639e-05 2.02037e+07 7.92218e-06 4.17557e+07)
(1.13916e+08 -2.35218e+07 -7.64079e-05 1.55811e+07 -6.52106e-06 3.88492e+07)
(1.00916e+08 -3.48442e+07 -7.58942e-05 8.53185e+06 -5.80882e-07 3.28343e+07)
(1.18116e+08 -4.01276e+07 8.72432e-05 -2.38882e+06 -5.57472e-05 3.47181e+07)
(1.19216e+08 -4.14312e+06 -2.64345e-05 3.50005e+07 5.39436e-05 4.62649e+07)
(1.14061e+08 -2.28225e+06 -6.12758e-05 2.96469e+07 -3.25584e-05 4.31124e+07)
(1.14875e+08 -2.39645e+06 1.95223e-05 3.00295e+07 -1.14834e-05 4.34714e+07)
(1.16265e+08 -1.02944e+07 5.61383e-05 2.59356e+07 -1.26911e-05 4.26603e+07)
(1.14761e+08 -1.7243e+07 2.89098e-05 2.0033e+07 4.84438e-05 4.04381e+07)
(1.19799e+08 -5.49988e+06 -0.000142821 1.7218e+07 1.18818e-05 4.11051e+07)
(1.19731e+08 -3.75127e+06 1.31706e-05 3.49313e+07 9.25281e-05 4.63988e+07)
(2.98052e+07 -1.30789e+07 1.25167e-05 -3.88248e+06 -2.3529e-06 7.77681e+06)
(1.27257e+08 -2.66422e+07 -0.000139085 8.09232e+06 -6.83106e-05 4.06049e+07)
(1.20229e+08 -8.5644e+06 -9.59769e-05 2.36162e+07 -3.45304e-05 4.31537e+07)
(1.11587e+08 -3.35614e+07 5.14212e-05 -4.56473e+07 2.6995e-05 1.97818e+07)
(7.93024e+07 -2.0943e+07 -1.00881e-05 1.74941e+07 3.9223e-05 2.90389e+07)
(7.55664e+07 -3.53838e+07 -8.68696e-06 -5.22281e+07 8.28998e-06 7.00151e+06)
(1.10746e+08 -1.0465e+07 0.000101348 2.52202e+07 -6.58703e-05 4.07898e+07)
(1.10174e+08 -1.02707e+07 6.38912e-05 2.47798e+07 -8.96062e-05 4.0486e+07)
(7.74643e+07 -3.7552e+07 1.85882e-05 -4.81166e+07 -1.62705e-05 8.8043e+06)
(1.25626e+08 -4.01987e+07 6.63665e-05 -6.18499e+06 4.69172e-05 3.58324e+07)
(1.09932e+08 -3.62936e+07 0.000135489 6.34172e+06 4.06763e-06 3.48821e+07)
(1.21461e+08 -4.86365e+06 -3.61023e-05 9.61656e+06 1.04822e-05 3.93232e+07)
(2.4416e+08 -1.05716e+06 6.80529e-05 -5.79683e+06 0.000124549 7.73013e+07)
(1.80807e+08 6.66999e+06 6.25134e-05 -559898 4.08661e-05 5.40743e+07)
(1.61887e+08 -2.56802e+07 0.000307546 1.38679e+06 3.1391e-05 4.89822e+07)
(2.81833e+08 9.59678e+06 -0.000741751 3.26115e+07 -0.000102482 1.04396e+08)
(2.4266e+08 -3.41581e+07 0.000276923 6.52828e+06 -3.20099e-05 8.02829e+07)
(2.62564e+08 -2.63462e+07 6.84002e-05 2.34863e+07 0.000116599 9.09647e+07)
(1.12424e+08 -3.77784e+07 0.000122271 5.25225e+06 1.13549e-06 3.53029e+07)
(6.03061e+07 -1.18972e+07 1.7841e-05 1.50532e+07 1.31282e-05 2.26078e+07)
(6.01131e+07 -1.19923e+07 1.40112e-07 1.4783e+07 -4.7297e-06 2.24688e+07)
(2.37489e+08 6.76232e+06 3.23128e-05 -1.2468e+07 0.000471679 7.36518e+07)
(9.46082e+07 -2.73891e+07 -4.29678e-05 1.56519e+07 2.7716e-06 3.3078e+07)
(7.3995e+07 -2.83893e+07 -4.7358e-05 9.49126e+06 4.26175e-06 2.50459e+07)
(1.53106e+08 -2.60491e+07 0.000162157 2.06466e+06 8.2783e-06 4.6551e+07)
(1.45017e+08 -1.17235e+07 -9.14466e-05 126070 3.69196e-05 4.35428e+07)
(1.02455e+08 -3.6039e+07 6.08554e-05 -4.909e+07 1.62297e-05 1.60094e+07)
(7.55338e+07 -4.49434e+06 -2.69483e-05 2.08734e+07 2.28469e-05 2.89222e+07)
(1.58893e+08 -3.24461e+07 -1.40112e-05 -6.60019e+06 -6.86142e-05 4.56878e+07)
(2.32305e+08 3.50464e+06 5.70958e-06 -533606 0.000141957 6.95313e+07)
(1.28944e+08 -4.42358e+06 0.000142261 381444 0.000102329 3.87975e+07)
(1.16297e+08 -3.46718e+07 -0.000123065 8.26146e+06 -1.69332e-05 3.73676e+07)
(1.5667e+08 -2.91766e+07 0.000103917 382803 0.000148998 4.71159e+07)
(-1.29116e+07 -2.84959e+06 0.000110876 -1.11502e+08 2.53895e-05 -3.73241e+07)
(1.50165e+08 -2.28349e+07 0.000166827 2.77567e+06 -7.54388e-05 4.58823e+07)
(-2.93189e+06 -1.27698e+07 2.89565e-06 -8.1506e+07 4.42667e-06 -2.53314e+07)
(1.16082e+08 -3.85439e+07 0.000124513 -3.34265e+07 -3.02643e-05 2.47967e+07)
(1.40315e+08 -2.50916e+07 -0.000241787 -4.27882e+07 8.19657e-06 2.92579e+07)
(1.19598e+08 -414844 3.07313e-05 3.84929e+07 -0.000100561 4.74274e+07)
(1.20364e+08 21577.9 2.83027e-05 10403.1 -8.25145e-05 3.61122e+07)
(1.86505e+08 -5.98158e+06 -0.000357146 -3.15658e+07 -0.000293722 4.64817e+07)
(1.21445e+08 -7.36977e+06 5.59048e-05 8.6225e+06 -7.85388e-05 3.90202e+07)
(9.55479e+07 -2.91176e+07 -9.01389e-06 1.46731e+07 2.83406e-05 3.30663e+07)
(1.17379e+08 -1.6503e+07 -3.04511e-05 1.82997e+07 2.96921e-05 4.07036e+07)
(1.18111e+08 -1.61663e+07 -4.29678e-05 1.97568e+07 5.94835e-05 4.13603e+07)
(1.13767e+08 -2.24274e+07 -3.75968e-05 1.61769e+07 1.47322e-05 3.8983e+07)
(1.57553e+08 -3.08125e+07 -2.26515e-05 -1.69521e+07 9.05476e-05 4.21802e+07)
(2.19963e+08 2.04548e+07 -5.20867e-05 -9.50965e+06 0.000142261 6.31361e+07)
(1.03423e+08 -2.83293e+07 -3.94183e-05 1.52466e+07 1.30319e-05 3.5601e+07)
(1.20157e+08 -1.20924e+06 5.63251e-05 1.4491e+07 -6.72627e-05 4.03944e+07)
(1.20697e+08 -5.50186e+06 -4.80585e-05 2.0058e+07 6.28024e-05 4.22264e+07)
(-1.17247e+07 2.73435e+07 -7.08034e-05 -1.30026e+08 0.000182584 -4.25251e+07)
(1.60918e+08 -3.02478e+07 2.01762e-05 -4.51898e+06 -3.44501e-05 4.69197e+07)
(5.81644e+07 -2.90593e+07 -7.51936e-06 1.61218e+06 -1.32056e-05 1.7933e+07)
(1.2925e+08 -4.594e+06 0.000142074 804929 8.46512e-05 3.90165e+07)
(2.02974e+08 -1.62047e+07 0.00038741 -3.21415e+06 1.65741e-05 5.99281e+07)
(9.82109e+07 -7.55584e+06 1.02749e-06 2.36251e+07 7.82367e-06 3.65508e+07)
(2.42391e+08 2.2687e+07 1.90474e-05 -5.77854e+06 4.6255e-05 7.98263e+07)
(1.12905e+08 -1.1524e+07 5.60449e-05 2.49086e+07 -4.77068e-05 4.13439e+07)
(5.33643e+07 -3.27539e+07 -6.21164e-06 -5.66632e+07 4.30145e-05 -989649)
(6.24009e+07 -2.69875e+07 2.78823e-05 6.18887e+06 -1.50489e-05 2.05769e+07)
(8.0645e+06 -2.27104e+07 1.84948e-05 -5.41738e+07 -3.86768e-05 -1.38328e+07)
(2.14053e+08 1.44385e+07 8.6566e-05 -1.74082e+07 -4.46958e-05 5.89934e+07)
(6.27166e+07 -2.73365e+07 9.90127e-06 6.74012e+06 9.75605e-06 2.0837e+07)
(1.13069e+08 -2.4991e+06 -3.96051e-05 2.91006e+07 -6.73497e-05 4.26508e+07)
(1.18312e+08 -5.13172e+06 5.64185e-05 3.29117e+07 6.04307e-05 4.5367e+07)
(1.20033e+08 -3.67831e+06 -8.45344e-05 3.49413e+07 7.2592e-05 4.64922e+07)
(7.53284e+07 -2.58027e+07 -1.11156e-05 1.30135e+07 1.89816e-05 2.65026e+07)
(1.03521e+08 -3.13629e+07 3.68962e-06 1.28219e+07 3.92767e-05 3.49029e+07)
(2.22404e+08 -2.75522e+06 0.000448359 -5.39828e+06 6.85966e-05 6.51018e+07)
(7.13594e+07 -2.3682e+07 -3.40473e-05 1.31168e+07 2.62353e-05 2.53429e+07)
(1.76982e+08 -5.17487e+06 -4.25007e-05 -904583 -4.57934e-05 5.28233e+07)
(2.47927e+08 3.86496e+07 -0.000192617 7.67966e+06 0.000255778 8.20637e+07)
(2.59975e+08 9.81657e+06 -0.000102815 9.71157e+06 -0.000266271 9.46518e+07)
(1.24642e+08 -1.56718e+06 4.37617e-05 346103 1.03508e-05 3.74964e+07)
(1.1418e+08 -1.32368e+06 9.08862e-05 3.02692e+07 2.4547e-06 4.33346e+07)
(1.5005e+08 -1.38143e+07 -0.000177429 1.44981e+06 0.000139908 4.54499e+07)
(1.29462e+08 -3.81265e+07 0.000196764 -2.02653e+06 8.24152e-05 3.82307e+07)
(2.60074e+08 2.92465e+07 7.36116e-05 1.50135e+07 5.57074e-05 9.06246e+07)
(2.12195e+08 2.01165e+07 0.000100714 2.16042e+07 2.37257e-05 7.01399e+07)
(8.66917e+07 -945925 -1.27502e-05 2.29579e+07 -1.93521e-05 3.28949e+07)
(1.14146e+08 -3.7007e+07 0.000122365 5.78815e+06 -1.33676e-05 3.59804e+07)
(1.12423e+08 -3.56787e+07 4.05859e-05 7.10015e+06 5.36659e-06 3.58569e+07)
(1.23501e+08 -7.9893e+06 -1.99894e-05 7.68957e+06 9.66191e-07 3.9357e+07)
(1.02812e+08 -3.91272e+07 7.10369e-05 -4.31515e+07 -9.9795e-05 1.78982e+07)
(1.30056e+08 -2.67323e+07 -0.000157019 -4.56751e+07 0.000235505 2.53142e+07)
(1.20126e+08 -146298 2.88631e-05 4.0364e+07 -6.07207e-05 4.81471e+07)
(1.20081e+08 144277 2.55471e-05 65465.4 -4.87299e-05 3.6044e+07)
(2.71644e+08 2.82665e+07 -0.000142363 2.80269e+07 -9.06069e-05 9.1103e+07)
(1.64709e+08 -1.32789e+07 0.000155618 880593 -3.86768e-05 4.9677e+07)
(-727439 -1.25183e+07 -5.92208e-05 -9.04158e+07 -2.78094e-05 -2.7343e+07)
(1.22844e+08 -6.06329e+06 -2.15306e-05 6.63252e+06 2.01528e-05 3.88429e+07)
(1.12712e+08 -6.65545e+06 4.99734e-06 2.74485e+07 -1.45213e-05 4.20481e+07)
(1.39658e+08 -3.07596e+07 4.01655e-06 3.42802e+06 9.11022e-06 4.29259e+07)
(1.11223e+08 -3.13156e+07 2.67614e-05 1.18434e+07 1.73243e-06 3.69198e+07)
(6.19727e+07 -2.08029e+07 -2.39592e-05 1.12234e+07 -4.55657e-06 2.19588e+07)
(9.09093e+07 -3.05737e+07 1.04617e-05 1.21794e+07 -6.7629e-05 3.09266e+07)
(8.81963e+07 -2.65254e+07 3.73633e-06 1.51674e+07 -4.67355e-05 3.10091e+07)
(-8.84636e+06 8.9294e+06 1.67201e-05 -1.51037e+08 -7.9683e-05 -4.79649e+07)
(8.86965e+07 -2.90629e+07 1.42915e-05 1.30975e+07 -4.21935e-05 3.05382e+07)
(2.36147e+08 -1.16145e+07 0.000126802 -1.08652e+07 -0.000261098 6.8664e+07)
(1.59091e+08 -3.1674e+07 -0.000153983 -9.16e+06 5.65937e-05 4.49795e+07)
(1.5787e+08 -3.10534e+07 -0.000283307 -7.28648e+06 4.95122e-05 4.51752e+07)
(8.12573e+07 -2.30998e+07 -2.46131e-05 1.63969e+07 -4.42302e-06 2.92963e+07)
(1.77313e+08 -1.9558e+07 -0.000151461 -2.13748e+07 9.22639e-05 4.67813e+07)
(1.45775e+08 -1.20561e+07 -0.000129651 1.71186e+06 -6.10656e-06 4.42462e+07)
(1.18512e+08 -636946 -5.26822e-05 3.69845e+07 -3.73415e-05 4.66489e+07)
(1.20937e+08 -388845 -6.29571e-05 146884 -9.47393e-05 3.63253e+07)
(2.0558e+08 9.84171e+06 0.00038119 2.92415e+07 4.92728e-05 7.04466e+07)
(1.64917e+08 -2.36131e+07 4.37617e-05 1.48246e+06 2.64462e-05 4.99199e+07)
(1.63636e+08 -2.85568e+07 0.000105271 -1.3082e+07 9.71562e-05 4.51661e+07)
(2.94705e+07 -1.48252e+07 1.50387e-05 -7.96613e+07 2.4111e-06 -1.50572e+07)
(1.13964e+08 -4.12591e+07 -8.75235e-05 -2.11434e+07 -2.04681e-05 2.78463e+07)
(1.9151e+08 -7.14945e+06 -0.000148939 -2.11065e+07 7.04648e-05 5.11211e+07)
(2.00986e+08 -1.55167e+07 0.000659205 -3.92615e+06 0.000147235 5.9118e+07)
(1.65747e+08 -2.03616e+07 0.000206152 -122271 -8.86444e-05 4.96874e+07)
(1.20724e+08 -6.21148e+06 -6.0762e-05 2.32087e+07 -6.35468e-06 4.31798e+07)
(-1.21482e+07 1.24132e+07 -2.55004e-05 -1.52942e+08 -6.85529e-05 -4.95271e+07)
(1.0591e+08 -3.19987e+07 -6.85149e-05 1.19805e+07 2.22341e-05 3.53673e+07)
(1.92564e+08 -1.61045e+07 7.74354e-05 -1.01732e+07 -8.6893e-05 5.47173e+07)
(3.2269e+08 3.24124e+06 -4.29258e-05 7.43951e+07 0.000589931 1.46201e+08)
(1.15477e+07 -1.07935e+07 6.30505e-06 -2.29472e+07 -5.42278e-06 -3.41985e+06)
(1.20449e+08 -1.16226e+06 3.28797e-05 1.76172e+07 -0.000139924 4.14198e+07)
(1.21174e+08 -3.89037e+06 -3.82974e-06 2.1604e+07 7.34203e-05 4.28334e+07)
(1.2402e+08 -8.07817e+06 8.36003e-06 6.92496e+06 7.70034e-06 3.92836e+07)
(1.65216e+08 -1.32695e+07 -4.29678e-05 937310 -7.36407e-05 4.98461e+07)
(1.39369e+07 -1.09541e+07 6.63198e-06 -2.63061e+07 -6.81843e-06 -3.71075e+06)
(9.1254e+07 -2.91666e+07 1.86816e-06 1.41856e+07 -3.94577e-05 3.16319e+07)
(2.18339e+08 4.29258e+07 4.2816e-05 7.97364e+06 -4.04457e-05 6.78938e+07)
(2.0809e+08 3.62804e+07 -0.000230134 -1.65802e+06 7.1504e-05 6.19296e+07)
(1.2722e+08 -3.9853e+07 7.49601e-05 -9.39969e+06 6.73123e-06 3.53461e+07)
(1.32615e+08 -3.8173e+07 0.000142074 -6.65975e+06 7.1901e-05 3.77865e+07)
(1.20281e+08 -3.2717e+06 7.23913e-05 1.34146e+07 -7.47149e-05 4.01088e+07)
(2.02267e+08 -1.06716e+07 0.000148379 -1.13584e+06 -7.59233e-05 6.03394e+07)
(9.65879e+07 -3.42605e+07 -8.93916e-05 9.23948e+06 -2.13e-05 3.17482e+07)
(1.23205e+08 -3.77675e+06 1.14892e-05 2.85293e+06 3.77427e-05 3.78173e+07)
(5.98745e+07 -3.65894e+07 2.3352e-06 -1.25058e+07 -6.5663e-06 1.42106e+07)
(5.96274e+07 -4.08662e+07 -8.45344e-05 -3.74684e+07 -3.15574e-05 6.64771e+06)
(1.62322e+08 -2.40857e+07 0.000187797 348314 1.20263e-06 4.88012e+07)
(1.78318e+08 -1.06738e+07 -9.71679e-05 -3.68484e+07 -0.000107431 4.24408e+07)
(5.59484e+07 -3.7332e+07 -5.82867e-05 -3.49049e+07 -6.53857e-07 6.31305e+06)
(1.18161e+08 -6.0149e+06 8.51883e-05 3.12696e+07 0.000124914 4.48293e+07)
(1.17285e+08 -6.72637e+06 0.000146651 2.99772e+07 5.1068e-05 4.41787e+07)
(2.23375e+08 1.11547e+07 0.00040009 -2.71778e+07 0.000392623 6.03389e+07)
(2.1826e+08 -514012 0.000222849 -5.83488e+06 3.91264e-05 6.37274e+07)
(7.32186e+07 -3.74839e+07 -3.80171e-05 -5.65506e+06 -2.89565e-05 2.02691e+07)
(1.0462e+08 -3.0768e+07 -6.08087e-05 1.28119e+07 1.54605e-05 3.52295e+07)
(2.33185e+08 -1.0484e+07 0.000198796 -1.39967e+07 3.76902e-05 6.57565e+07)
(1.18196e+08 -5.27495e+06 2.87697e-05 3.17377e+07 -5.30493e-06 4.49801e+07)
(4.26552e+07 -1.69624e+07 5.37097e-06 3.57539e+06 9.17644e-06 1.38692e+07)
(4.9587e+07 -1.69739e+07 -1.68135e-06 6.47493e+06 1.26422e-05 1.68186e+07)
(1.34293e+08 -1.63454e+07 6.51055e-05 3.83006e+06 4.6202e-05 4.14369e+07)
(1.06788e+08 -1.37564e+07 4.89926e-05 2.29982e+07 2.84311e-06 3.89357e+07)
(9.0693e+07 -2.65155e+07 4.64706e-05 1.61411e+07 -3.36459e-05 3.20502e+07)
(1.14747e+08 -1.72265e+07 1.2937e-05 2.04712e+07 5.24093e-05 4.05656e+07)
(1.20033e+08 -1.0144e+06 0.000133387 4.27789e+07 4.43479e-06 4.88435e+07)
(1.20427e+08 -21427.2 -5.23086e-06 157447 -3.73107e-05 3.61753e+07)
(6.78801e+07 -2.29428e+07 -2.12971e-05 1.25041e+07 1.49519e-05 2.41153e+07)
(8.82842e+07 -1.09365e+06 1.83547e-05 2.3408e+07 -5.1011e-06 3.35077e+07)
(1.05459e+08 -3.18183e+07 0.000108821 -4.75719e+07 1.87984e-05 1.73662e+07)
(1.03888e+08 -4.04079e+07 -8.38338e-05 -1.04766e+06 2.30893e-05 3.08521e+07)
(7.95641e+07 -1.37494e+07 -3.93248e-05 2.04207e+07 1.11415e-06 2.99954e+07)
(2.85781e+07 -2.33066e+07 2.89565e-06 -1.53682e+07 1.03771e-05 3.96297e+06)
(5.91178e+07 -8.47863e+06 1.80745e-05 1.53471e+07 2.26321e-05 2.23395e+07)
(5.04085e+07 -1.26074e+07 -2.16707e-05 1.03986e+07 -8.1453e-06 1.82421e+07)
(5.27724e+07 -1.06527e+07 -1.47118e-05 1.11967e+07 -5.25001e-06 1.91907e+07)
(8.85948e+07 -2.48496e+07 6.08554e-05 1.66957e+07 2.28339e-06 3.15871e+07)
(1.34781e+08 -1.48751e+07 -0.000251502 2.59603e+06 -5.2186e-05 4.12132e+07)
(1.06472e+08 -1.22264e+07 4.46491e-05 2.38967e+07 6.0854e-06 3.91107e+07)
(8.86081e+07 -4.24962e+07 9.1867e-05 -1.28034e+07 -6.13575e-06 2.27414e+07)
(1.35234e+08 -1.67893e+07 -4.82453e-05 3.94126e+06 4.44273e-06 4.17526e+07)
(1.05573e+08 -1.40778e+07 4.17535e-05 2.26555e+07 8.52569e-06 3.84686e+07)
(1.29688e+08 -3.71442e+07 8.54218e-05 2.42292e+06 2.17028e-05 3.96334e+07)
(1.29666e+08 -3.64656e+07 5.92208e-05 2.01768e+06 -1.0234e-05 3.95051e+07)
(2.31901e+08 3.15659e+06 -7.06399e-06 -140273 0.000252529 6.95282e+07)
(1.38467e+08 -2.42102e+07 3.42808e-05 5.5658e+06 -0.000102688 4.32098e+07)
(1.2005e+08 -4.18988e+06 -4.46491e-05 8.07791e+06 3.33263e-05 3.84385e+07)
(8.71833e+07 -2.49478e+07 3.93716e-05 1.61992e+07 -6.26784e-06 3.10147e+07)
(4.89067e+07 -2.06218e+06 -9.01389e-06 1.13645e+07 3.71298e-06 1.80814e+07)
(1.2831e+08 -1.25673e+07 2.33988e-05 6.36803e+06 6.83047e-07 4.04033e+07)
(6.43984e+07 -1.51148e+07 -3.65693e-05 1.50331e+07 -2.02553e-05 2.38294e+07)
(6.58804e+07 -3.90968e+07 4.48826e-05 -1.39563e+07 -3.42735e-05 1.55772e+07)
(6.62413e+07 -3.86642e+07 3.33934e-05 -1.44842e+07 -1.2397e-05 1.55271e+07)
(1.58692e+08 -2.64884e+07 0.000213531 -31883.6 1.77184e-05 4.7598e+07)
(2.59857e+08 -6.83344e+07 0.000810872 6.25973e+07 -0.00021132 1.46929e+08)
(1.22224e+08 -7.04077e+06 3.85776e-05 8.67908e+06 -2.76839e-05 3.9271e+07)
(2.43208e+08 -529633 0.000397849 -1.0909e+06 0.000255448 7.2635e+07)
(2.46896e+08 1.26001e+06 0.000348669 -1.0188e+06 0.000301101 7.37633e+07)
(1.59737e+08 -2.38051e+07 0.000620791 -3.52208e+07 2.64812e-05 3.73548e+07)
(4.21309e+07 -2.749e+07 -4.29678e-06 -1.05471e+07 -1.49672e-06 9.47515e+06)
(1.19233e+08 -1.03075e+06 2.32586e-05 3.90419e+07 -7.29888e-05 4.74824e+07)
(1.20777e+08 -246663 5.70257e-05 497918 -1.75024e-05 3.63825e+07)
(8.27509e+07 -3.67901e+07 -4.4509e-05 901353 -2.30441e-05 2.50957e+07)
(1.4346e+08 -2.76942e+07 0.000309368 -4.33395e+07 0.000227262 3.00363e+07)
(4.09731e+07 -2.86162e+07 1.89619e-05 -9.00348e+06 -1.03523e-05 9.59088e+06)
(9.22192e+07 -2.7923e+07 6.09021e-05 -1.94742e+07 -3.44793e-05 2.18235e+07)
(1.54633e+08 -2.58273e+07 0.000133667 2.78265e+06 7.07917e-05 4.72248e+07)
(1.39411e+08 -1.48543e+07 -9.82654e-05 3.27502e+06 -2.21436e-05 4.28059e+07)
(1.02228e+08 -1.19495e+07 2.3352e-06 2.28449e+07 1.95362e-05 3.75219e+07)
(1.65999e+08 -2.1392e+07 0.000586837 -3.0771e+07 -0.000119271 4.05685e+07)
(2.04772e+07 -2.60465e+07 -4.06326e-06 -5.24252e+07 -2.73803e-06 -9.58438e+06)
(1.19995e+08 -541575 -1.03683e-05 4.22498e+07 -4.00767e-05 4.86735e+07)
(1.20609e+08 -47614 2.97505e-05 186254 -3.02759e-05 3.62385e+07)
(2.2048e+08 3.92834e+07 0.000335382 -8.35417e+06 -0.000156155 6.36376e+07)
(1.7327e+08 -1.34371e+07 3.50281e-07 -3.88267e+07 -0.000249762 4.03329e+07)
(8.78922e+07 -6.54848e+06 -6.63665e-05 2.37778e+07 -6.06478e-06 3.3501e+07)
(1.9484e+08 -2.62023e+06 0.000213858 -3.262e+07 -0.000226071 4.86659e+07)
(2.265e+08 3.75634e+07 5.73993e-05 1.80113e+07 -8.17322e-06 7.33533e+07)
(1.05684e+08 -3.73135e+07 0.000148379 5.18472e+06 -2.01995e-06 3.32606e+07)
(1.12633e+08 -6.66224e+06 -1.54591e-05 2.74448e+07 1.08426e-05 4.20233e+07)
(1.9638e+08 -1.36236e+07 -9.55099e-05 -9.81402e+06 -0.000116538 5.59697e+07)
(-1.42391e+07 916698 0.00010373 -1.03416e+08 -1.78789e-08 -3.52966e+07)
(1.33138e+08 -2.48101e+07 0.000158187 7.74216e+06 -4.30349e-05 4.22641e+07)
(2.23256e+08 3.72487e+07 7.65714e-05 1.05193e+07 -1.19095e-05 7.01326e+07)
(1.60183e+08 -1.31131e+07 -0.000215212 340583 -9.41555e-05 4.8157e+07)
(2.19853e+08 4.06196e+07 0.000299198 -682944 -8.27597e-05 6.5751e+07)
(1.16974e+08 -4.9786e+06 -0.000111062 3.17878e+07 -2.68658e-05 4.46285e+07)
(2.37292e+08 -681863 -4.26642e-05 -244619 0.000408065 7.11143e+07)
(1.85373e+08 -1.89471e+07 0.000261496 -1.23801e+07 9.52063e-05 5.18979e+07)
(1.85853e+08 -2.139e+07 0.000420384 -5.81198e+06 0.000116912 5.40123e+07)
(1.19757e+08 -9.53575e+06 4.58167e-05 1.80777e+07 -7.82162e-05 4.13503e+07)
(2.18563e+08 2.13725e+07 -0.000134905 -1.15935e+07 0.000158233 6.20909e+07)
(1.29083e+08 -1.37239e+07 -3.16187e-05 6.41354e+06 -3.32942e-05 4.06491e+07)
(1.37822e+08 -2.35592e+07 0.000160008 4.4101e+06 -2.73861e-05 4.26695e+07)
(-1.5694e+07 7.74095e+06 2.06432e-05 -1.41513e+08 -2.87332e-05 -4.7162e+07)
(1.31306e+08 -2.46508e+07 2.26048e-05 6.95991e+06 -3.08889e-05 4.14797e+07)
(1.20289e+08 -1.04321e+06 0.000172105 2.61307e+07 2.41548e-05 4.39259e+07)
(-1.40758e+07 -1.5147e+06 0.000109988 -1.33866e+08 -4.29897e-05 -4.43826e+07)
(1.40455e+08 -3.10452e+07 4.89459e-05 5.03058e+06 -7.62736e-06 4.36457e+07)
(2.55755e+08 -6.08694e+07 0.000191434 4.68242e+07 0.000193868 1.04744e+08)
(2.82956e+07 -2.57256e+07 -2.19509e-06 -2.03728e+07 9.92827e-06 2.37687e+06)
(2.36512e+08 2.96868e+07 0.000310459 -9.77389e+06 0.000301728 7.36949e+07)
(2.12345e+08 1.23141e+07 0.000154053 -1.91843e+07 0.000158047 5.79483e+07)
(1.85392e+07 -2.47042e+07 1.43382e-05 -6.77199e+07 -8.44176e-06 -1.47542e+07)
(3.1313e+07 -2.60432e+06 7.9397e-06 -2.37416e+06 3.96561e-06 8.68166e+06)
(1.02175e+08 -3.39582e+07 3.21791e-05 -5.22752e+07 3.229e-05 1.49698e+07)
(1.9058e+08 -2.00003e+07 0.000307173 -2.89197e+06 0.000224016 5.63065e+07)
(1.36923e+08 -2.2364e+07 0.000130958 4.58038e+06 -6.86492e-05 4.24511e+07)
(1.21653e+08 -2.61134e+07 -0.000142588 -4.49214e+07 0.00018865 2.30194e+07)
(2.18454e+08 2.43553e+07 -0.000360486 -1.47754e+07 0.000170774 6.11036e+07)
(2.32332e+08 -3.35684e+07 8.58421e-05 -4.09098e+06 0.000190016 6.84722e+07)