/*--------------------------------*- C++ -*----------------------------------*\
| =========                 |                                                 |
| \\      /  F ield         | OpenFOAM: The Open Source CFD Toolbox           |
|  \\    /   O peration     | Version:  v2012                                 |
|   \\  /    A nd           | Website:  www.openfoam.com                      |
|    \\/     M anipulation  |                                                 |
\*---------------------------------------------------------------------------*/
FoamFile
{
    version     2.0;
    format      ascii;
    class       volVectorField;
    location    "20";
    object      D;
}
// * * * * * * * * * * * * * * * * * * * * * * * * * * * * * * * * * * * * * //

dimensions      [0 1 0 0 0 0 0];


internalField   nonuniform List<vector> 
1896
(
(0.00043879 1.18972e-05 0)
(0.000402402 3.00741e-05 0)
(0.000445356 3.64766e-06 0)
(0.000409056 -0.000162462 0)
(0.000441232 1.00659e-05 0)
(0.000441591 1.04961e-05 0)
(0.000359092 -0.000179403 0)
(0.000449529 1.08656e-05 0)
(0.000499501 -8.7809e-06 0)
(0.000453177 7.91569e-06 0)
(0.000442453 2.28864e-06 0)
(0.000484627 1.13641e-05 0)
(0.000477875 8.69847e-06 0)
(0.000483677 1.08661e-05 0)
(0.000360727 -0.000129372 0)
(1.94911e-05 -0.000365732 0)
(0.000395791 2.81009e-05 0)
(0.0005593 -0.000265944 0)
(0.000396129 3.13869e-05 0)
(0.00056434 -0.000136982 0)
(0.00051887 -3.04044e-05 0)
(0.000414652 2.58767e-05 0)
(0.000290239 3.50022e-06 0)
(0.000277746 -5.02862e-06 0)
(0.000403471 2.80032e-05 0)
(0.000404411 2.81718e-05 0)
(0.000480328 6.54666e-06 0)
(0.000474205 6.64894e-06 0)
(0.000439167 1.08277e-05 0)
(0.00038967 3.572e-05 0)
(0.000393054 3.56689e-05 0)
(0.000397644 3.07349e-05 0)
(0.000503432 3.72837e-06 0)
(0.000401465 3.04057e-05 0)
(0.000336044 2.36008e-05 0)
(0.000434279 1.62793e-05 0)
(0.000395767 3.46372e-05 0)
(0.000412048 3.0174e-05 0)
(0.000472791 -0.000281559 0)
(0.000387428 3.6204e-05 0)
(0.000395201 3.03933e-05 0)
(0.000568321 -0.000157514 0)
(0.000423743 3.35768e-05 0)
(0.000460292 -4.34494e-05 0)
(0.000476856 4.89058e-06 0)
(0.000479995 4.9824e-06 0)
(0.000333131 -0.000153413 0)
(0.000441393 5.83307e-06 0)
(0.000392996 -2.85654e-05 0)
(0.000239927 -0.000167364 0)
(0.000445206 4.90302e-06 0)
(0.000446013 1.0408e-05 0)
(0.000447407 1.00026e-05 0)
(0.000413626 2.61318e-05 0)
(0.000492867 -5.24716e-06 0)
(0.000394646 2.73949e-05 0)
(0.000462048 -3.99999e-06 0)
(0.000433821 1.7181e-05 0)
(0.000413963 3.14739e-05 0)
(0.000381073 2.8068e-05 0)
(0.000451136 8.86745e-06 0)
(0.000265816 -0.000144247 0)
(0.000262806 -0.000122726 0)
(0.000434105 1.77021e-05 0)
(0.000561407 -0.000138172 0)
(0.000395831 3.03012e-05 0)
(0.000323571 2.01318e-05 0)
(0.000473404 1.86931e-05 0)
(0.000416179 2.71764e-05 0)
(0.000312395 1.66369e-05 0)
(0.000502652 1.18671e-06 0)
(0.00030193 -8.45204e-05 0)
(0.000414458 2.81956e-05 0)
(0.000394672 2.7562e-05 0)
(0.000329892 2.12095e-05 0)
(0.000404234 2.87464e-05 0)
(0.000402561 2.91686e-05 0)
(0.000429515 2.00982e-05 0)
(0.000428259 2.09532e-05 0)
(0.000423106 2.69279e-05 0)
(0.000571537 -0.000159286 0)
(0.000292961 5.62329e-06 0)
(0.000466892 4.32e-06 0)
(0.000453194 1.41327e-05 0)
(0.000454328 1.23954e-05 0)
(0.000410082 2.94724e-05 0)
(0.000451244 2.43672e-05 0)
(0.000455234 2.28652e-05 0)
(0.000477885 -8.42053e-06 0)
(0.000442363 2.95017e-05 0)
(0.000437921 2.42564e-05 0)
(0.000154169 0.000201726 0)
(0.000498252 1.55023e-06 0)
(0.000565306 -0.000190881 0)
(0.000263411 -9.85815e-06 0)
(0.000408499 2.71699e-05 0)
(0.0004046 3.37409e-05 0)
(0.000435812 1.39899e-05 0)
(0.000402036 3.41174e-05 0)
(0.000461394 2.36774e-05 0)
(0.000457186 2.50637e-05 0)
(0.000476804 1.72653e-05 0)
(0.000435891 1.68812e-05 0)
(0.000492214 4.95446e-06 0)
(0.000469471 1.14739e-05 0)
(0.000429985 3.25674e-05 0)
(0.000410685 2.93071e-05 0)
(0.000469169 -7.56468e-05 0)
(0.000344785 1.23929e-05 0)
(3.22461e-05 0.000134758 0)
(0.000434484 1.59916e-05 0)
(0.000403145 3.45585e-05 0)
(0.000376553 2.00539e-05 0)
(0.00045817 1.57179e-06 0)
(0.000722395 -0.000277117 0)
(0.000447357 2.59951e-05 0)
(0.000464478 2.38201e-06 0)
(0.000439581 2.69294e-05 0)
(0.00052539 -8.97067e-05 0)
(0.000391942 3.48285e-05 0)
(0.000514509 -8.76846e-05 0)
(0.000504746 -1.38855e-05 0)
(0.000410413 2.98732e-05 0)
(0.000461594 9.76221e-06 0)
(0.000463364 8.34485e-06 0)
(0.000486274 -1.35672e-05 0)
(0.000461617 -6.31035e-05 0)
(0.00045032 1.11716e-05 0)
(0.000388429 2.9236e-05 0)
(0.000460444 2.46695e-05 0)
(0.000460514 2.34722e-05 0)
(0.000434794 2.48716e-05 0)
(0.00036856 1.75103e-05 0)
(0.000577636 -0.000189426 0)
(0.00039634 3.1016e-05 0)
(0.000240141 -0.000121829 0)
(0.00047036 -0.000125847 0)
(0.000457873 -0.000138169 0)
(0.000396618 3.11416e-05 0)
(0.000385131 3.59273e-05 0)
(0.000414615 2.67133e-05 0)
(0.000432904 -2.25097e-05 0)
(0.00038762 3.61221e-05 0)
(9.60843e-05 -0.000470545 0)
(0.000444054 1.97014e-05 0)
(0.000402891 2.85322e-05 0)
(0.000403735 2.82414e-05 0)
(0.000387597 3.01949e-05 0)
(0.000282952 -1.91407e-05 0)
(0.000443011 2.61501e-05 0)
(0.000475074 9.4536e-06 0)
(0.000405147 3.184e-05 0)
(0.000415378 2.64614e-05 0)
(0.000428447 2.10468e-05 0)
(0.000429586 2.07719e-05 0)
(0.000421558 6.7828e-06 0)
(0.000466182 2.33056e-06 0)
(0.000428464 2.33055e-06 0)
(0.000611474 -0.000119254 0)
(0.000448494 6.45429e-06 0)
(0.000445777 9.46059e-06 0)
(0.000306506 1.31361e-05 0)
(0.000506952 -1.79744e-05 0)
(0.00041727 2.87884e-05 0)
(0.000129648 -0.000499914 0)
(0.000453957 8.67286e-06 0)
(6.51945e-06 -0.000580697 0)
(0.000436065 1.44507e-05 0)
(0.0004369 1.29807e-05 0)
(0.000403595 3.15478e-05 0)
(0.000402538 3.19026e-05 0)
(0.000396619 2.93664e-05 0)
(0.000498519 6.60424e-06 0)
(0.0004969 7.19728e-06 0)
(0.000434373 -0.00013425 0)
(0.000400557 -0.000146103 0)
(0.000359617 -3.1067e-05 0)
(0.000406526 2.75495e-05 0)
(0.00044157 4.18686e-06 0)
(0.000482467 7.82045e-06 0)
(0.000502311 4.92829e-06 0)
(0.000381856 2.98384e-05 0)
(0.0004268 2.16086e-05 0)
(0.000344804 -2.81846e-05 0)
(0.000391791 -0.000130697 0)
(0.000112888 -0.000535598 0)
(0.000457711 2.46505e-05 0)
(0.000136105 -0.000341862 0)
(0.000515573 -7.6311e-06 0)
(0.000520275 -1.37695e-05 0)
(0.000460788 -0.000109365 0)
(0.000440401 7.44508e-06 0)
(0.000444707 -2.17063e-05 0)
(0.000161764 -8.55438e-05 0)
(0.000571398 -0.000152337 0)
(0.000488137 1.19187e-05 0)
(0.000422526 3.3653e-05 0)
(0.000464611 -3.72637e-05 0)
(0.000486201 1.23359e-05 0)
(0.000465517 5.72957e-06 0)
(0.00045704 2.36475e-05 0)
(0.000565473 -0.000143134 0)
(0.000440123 8.75695e-06 0)
(0.0004277 2.12529e-05 0)
(0.000184134 -0.000337291 0)
(0.000431915 1.93694e-05 0)
(0.000406794 -2.48374e-05 0)
(0.000351092 3.12666e-05 0)
(0.000516867 -3.70254e-06 0)
(0.000395037 2.736e-05 0)
(0.00031365 1.60183e-05 0)
(0.00039608 3.39717e-05 0)
(0.000399346 2.7622e-05 0)
(0.000398632 2.77523e-05 0)
(0.000476317 1.48453e-05 0)
(0.00047992 1.0596e-05 0)
(0.000553655 -0.000126941 0)
(0.000364777 3.12012e-05 0)
(0.00036856 3.04416e-05 0)
(0.000391619 3.59746e-05 0)
(0.000522783 -1.69229e-05 0)
(0.000429217 2.10911e-05 0)
(0.000209389 -4.49966e-05 0)
(0.00033269 8.36062e-06 0)
(0.00040605 3.43886e-05 0)
(0.000390165 3.62707e-05 0)
(0.000498112 -0.00012961 0)
(0.000407821 2.80632e-05 0)
(3.74143e-05 -0.00054682 0)
(0.000398583 3.13968e-05 0)
(2.75796e-05 -0.00054715 0)
(0.000448813 8.37369e-06 0)
(0.000449096 7.09284e-06 0)
(0.000437519 9.41869e-06 0)
(0.000398915 3.4796e-05 0)
(0.000442195 1.5352e-05 0)
(0.000473475 1.79141e-05 0)
(0.000492322 -7.05677e-05 0)
(0.000100774 -0.000483162 0)
(0.000382545 2.80677e-05 0)
(0.000514462 -0.00013077 0)
(0.00044016 -6.06596e-05 0)
(0.00047371 1.58395e-05 0)
(0.00013417 -0.00045411 0)
(0.000416459 2.5391e-05 0)
(0.0004887 1.07892e-05 0)
(0.000415019 3.20768e-05 0)
(0.000488008 1.01051e-05 0)
(0.000491583 8.15833e-06 0)
(0.000356181 3.20569e-05 0)
(0.000531085 -7.05915e-05 0)
(0.000419698 3.46136e-05 0)
(0.000399513 3.10594e-05 0)
(0.000440064 5.19335e-06 0)
(0.000397109 3.29112e-05 0)
(0.000424934 2.34729e-05 0)
(0.000505438 -8.52897e-07 0)
(0.000123109 -0.00043498 0)
(0.000292294 -0.000103916 0)
(0.000338747 2.68025e-05 0)
(0.000388292 2.82202e-05 0)
(0.000521664 -3.57116e-05 0)
(0.00052365 -3.56266e-05 0)
(0.000464306 2.03871e-05 0)
(0.000394368 2.79224e-05 0)
(0.000465076 1.09957e-05 0)
(7.79881e-06 -0.000579204 0)
(0.000473039 1.81839e-05 0)
(0.000379907 2.89635e-05 0)
(0.000426969 2.25192e-05 0)
(0.000463911 2.30607e-05 0)
(0.000520977 -3.3845e-06 0)
(0.000154908 -9.73947e-05 0)
(0.0004886 7.46167e-06 0)
(0.000397203 2.84171e-05 0)
(0.000506583 3.15259e-07 0)
(0.000346012 1.64812e-05 0)
(0.000423751 2.65737e-05 0)
(0.000425891 2.43521e-05 0)
(0.000443177 2.03657e-06 0)
(0.000395944 2.95738e-05 0)
(0.000349063 3.07901e-05 0)
(0.000506473 1.7346e-06 0)
(0.000394827 3.11317e-05 0)
(0.000409802 2.74246e-05 0)
(5.12579e-05 -0.000366952 0)
(0.000419217 2.87627e-05 0)
(0.000443267 2.69894e-05 0)
(0.000425228 2.72954e-05 0)
(0.000442034 8.50349e-07 0)
(-6.68255e-06 -0.000404703 0)
(0.000397675 3.25152e-05 0)
(0.000400542 3.47659e-05 0)
(0.000416153 2.99791e-05 0)
(2.79601e-05 -0.000581835 0)
(0.00050042 1.27634e-06 0)
(1.35805e-05 -0.000327869 0)
(0.000454893 2.44466e-05 0)
(0.000196585 -0.000358822 0)
(0.000525714 -3.08332e-05 0)
(0.000147731 -0.000370414 0)
(0.000401215 3.51239e-05 0)
(0.000285495 -2.38565e-05 0)
(0.000343687 -0.000176207 0)
(0.000421292 2.40955e-05 0)
(0.000441751 1.83199e-05 0)
(0.000443019 1.79984e-05 0)
(0.000506097 2.79813e-06 0)
(0.000502603 4.39098e-06 0)
(0.00042662 2.37247e-05 0)
(0.00041856 2.75874e-05 0)
(0.000440674 2.95326e-05 0)
(0.000493797 7.62113e-06 0)
(0.00043664 1.29694e-05 0)
(0.000401742 3.31888e-05 0)
(0.000389219 3.03624e-05 0)
(0.000457859 8.8225e-07 0)
(0.0004139 2.92624e-05 0)
(0.000419934 3.46329e-05 0)
(0.000421278 2.53381e-05 0)
(0.000444572 2.03637e-05 0)
(0.000138225 -0.000186356 0)
(0.000117413 -0.000213347 0)
(0.000428167 3.21351e-05 0)
(0.000504645 1.9024e-06 0)
(0.000432379 3.16788e-05 0)
(0.000424278 3.37356e-05 0)
(0.000499937 6.46714e-06 0)
(0.00043554 1.55394e-05 0)
(0.00040644 2.95654e-05 0)
(0.000521258 -2.07852e-05 0)
(0.000388853 2.67783e-05 0)
(0.000439298 7.12089e-06 0)
(0.000398084 3.31786e-05 0)
(0.000454262 6.14515e-06 0)
(0.000519062 -2.52047e-05 0)
(0.000477692 1.53658e-05 0)
(0.000268461 -2.25529e-05 0)
(0.000437247 1.40253e-05 0)
(0.000405024 2.97796e-05 0)
(0.000430301 2.81885e-05 0)
(0.000523474 -3.13277e-05 0)
(0.000402966 3.62454e-05 0)
(0.000478399 7.53762e-06 0)
(0.000470536 9.95338e-06 0)
(0.000392746 3.17429e-05 0)
(0.00040063 3.30295e-05 0)
(0.000572253 -0.000191797 0)
(0.000455612 2.5124e-05 0)
(0.000519528 -1.90589e-05 0)
(0.000517356 -8.12981e-06 0)
(0.000434813 1.6299e-05 0)
(0.000502653 -3.25473e-05 0)
(0.000416228 3.04032e-05 0)
(0.000396163 2.89751e-05 0)
(0.000391364 3.20765e-05 0)
(0.000540754 -9.5098e-05 0)
(0.000420151 -0.000235761 0)
(0.000447334 2.68194e-05 0)
(0.000506575 -7.33759e-05 0)
(0.000498128 -2.5185e-05 0)
(3.57814e-05 -0.000571194 0)
(0.000429043 -0.000274526 0)
(0.000526032 -3.7094e-05 0)
(0.000407018 2.85623e-05 0)
(0.000399271 2.83699e-05 0)
(0.000382726 3.34056e-05 0)
(0.000385318 3.45567e-05 0)
(0.000427829 2.91041e-05 0)
(5.73672e-06 -0.000560187 0)
(0.000310153 -0.000155903 0)
(0.000485234 8.8899e-06 0)
(0.000438416 7.58496e-06 0)
(0.000398091 3.42933e-05 0)
(0.000405216 2.88025e-05 0)
(0.000489206 9.35466e-06 0)
(0.000671702 -0.000263018 0)
(0.000472637 -9.40725e-06 0)
(0.000447125 2.42263e-05 0)
(0.000450508 2.62525e-05 0)
(0.000461223 2.14894e-05 0)
(0.000396599 3.21381e-05 0)
(0.000520027 -1.62404e-05 0)
(0.000423075 2.41133e-05 0)
(0.000492361 8.35874e-06 0)
(0.000424281 2.70024e-05 0)
(0.0003298 -0.000325892 0)
(0.000407355 2.86194e-05 0)
(0.000440748 4.38135e-06 0)
(0.000286733 -0.00033 0)
(0.000449026 1.30936e-05 0)
(0.000438351 1.31116e-05 0)
(6.85861e-05 -0.000206993 0)
(0.000636082 -0.000227759 0)
(0.000438764 1.71593e-05 0)
(0.00051715 -8.70973e-06 0)
(0.000379363 3.31398e-05 0)
(0.000368756 3.38041e-05 0)
(0.000419366 2.49862e-05 0)
(0.000421148 2.45586e-05 0)
(0.000424157 2.95626e-05 0)
(5.17591e-06 -0.000541153 0)
(0.0003877 2.76116e-05 0)
(0.000504347 2.18771e-07 0)
(0.000380996 3.36559e-05 0)
(0.000512744 -3.42129e-05 0)
(0.000420234 2.7742e-05 0)
(0.00022123 -4.09893e-05 0)
(0.000489014 6.09987e-06 0)
(3.82662e-05 -0.000290603 0)
(0.000445081 2.74458e-05 0)
(0.000462007 1.23601e-05 0)
(0.000465125 1.15964e-05 0)
(8.31541e-05 -0.000445762 0)
(0.000365751 3.4216e-05 0)
(0.000362705 3.37788e-05 0)
(0.000431237 2.06689e-05 0)
(7.99419e-05 -0.000490416 0)
(0.000440322 2.83385e-05 0)
(0.000446988 1.53984e-05 0)
(0.000480078 -1.58811e-06 0)
(0.000438977 4.10914e-06 0)
(0.000396339 3.44399e-05 0)
(0.00040512 -0.00011785 0)
(0.000389011 3.69011e-05 0)
(0.000447378 2.79041e-05 0)
(0.000519358 -1.72959e-05 0)
(0.000379467 2.75183e-05 0)
(0.000422889 -0.000166607 0)
(0.000435956 -0.000186847 0)
(0.000528867 -5.026e-05 0)
(0.000510732 -3.68005e-05 0)
(0.000428762 3.28096e-05 0)
(0.000405707 2.74538e-05 0)
(0.000410041 3.03185e-05 0)
(0.000417831 2.91469e-05 0)
(0.000396732 2.8922e-05 0)
(8.94727e-05 -0.00043221 0)
(0.000513456 -5.42963e-05 0)
(0.00041533 2.95784e-05 0)
(0.000512797 -4.76192e-05 0)
(0.000379427 3.12368e-05 0)
(0.000433039 1.95341e-05 0)
(9.78762e-05 -0.000485375 0)
(0.000439534 4.17499e-06 0)
(0.000396483 3.36751e-05 0)
(0.000436994 2.10937e-05 0)
(0.000442285 1.43325e-05 0)
(0.000427199 2.46698e-05 0)
(0.00039002 2.81787e-05 0)
(0.00016761 -9.85492e-05 0)
(0.000412135 2.78454e-05 0)
(0.00041438 2.80062e-05 0)
(0.000438088 1.68404e-05 0)
(0.000418614 2.86745e-05 0)
(0.000461365 1.15736e-05 0)
(0.000434889 1.88121e-05 0)
(0.00043307 2.89003e-05 0)
(0.00052747 -5.50052e-05 0)
(0.000457825 1.79389e-05 0)
(0.000436395 -4.84339e-05 0)
(0.000420056 2.43573e-05 0)
(0.000387332 3.57826e-05 0)
(0.000387471 3.41539e-05 0)
(0.000400285 3.34277e-05 0)
(0.000132149 -0.000165845 0)
(0.000373715 3.54115e-05 0)
(0.000376051 3.61462e-05 0)
(0.000443707 4.19873e-06 0)
(0.000655088 -0.000258671 0)
(0.000437233 1.49169e-05 0)
(0.000471229 1.55231e-05 0)
(0.000407265 2.83465e-05 0)
(0.000417718 2.52184e-05 0)
(0.00041133 2.89663e-05 0)
(0.000439484 2.27353e-05 0)
(0.00040079 3.58625e-05 0)
(0.000520993 -1.81755e-06 0)
(0.000409294 2.7199e-05 0)
(4.59529e-06 -0.00057794 0)
(0.000435288 2.6517e-05 0)
(0.000453564 5.28565e-06 0)
(0.000438741 2.22841e-05 0)
(0.000436687 1.56482e-05 0)
(0.000450914 2.33932e-05 0)
(0.000215265 -3.94511e-05 0)
(0.000473288 1.48821e-05 0)
(0.000378992 3.18523e-05 0)
(0.00042442 2.77514e-05 0)
(0.000383807 2.97662e-05 0)
(0.000374964 3.46743e-05 0)
(0.000422379 2.87522e-05 0)
(0.000387905 2.8886e-05 0)
(0.000426362 2.48729e-05 0)
(0.000380291 -0.000235207 0)
(0.000605683 -0.00023939 0)
(0.000421252 2.60174e-05 0)
(0.00040225 2.79761e-05 0)
(0.000469951 1.1891e-05 0)
(0.000397268 2.89381e-05 0)
(0.000406885 3.01584e-05 0)
(0.000416647 2.67622e-05 0)
(0.000456113 1.75475e-05 0)
(0.000607383 -0.000216038 0)
(0.000439575 1.14983e-05 0)
(0.000522157 -6.21156e-06 0)
(0.000465543 8.03084e-06 0)
(0.000577543 -0.000177202 0)
(0.000480233 1.30581e-05 0)
(0.00037147 2.98422e-05 0)
(0.00047464 1.60024e-05 0)
(0.000477032 2.91296e-06 0)
(0.000479683 9.18578e-07 0)
(0.000435357 1.60774e-05 0)
(-8.70583e-06 -0.000493498 0)
(8.19736e-05 -0.000324016 0)
(0.00047812 1.04845e-05 0)
(0.000421538 2.64132e-05 0)
(0.000430959 1.93706e-05 0)
(0.00043161 1.9019e-05 0)
(0.000444587 3.12134e-06 0)
(0.000406544 3.12943e-05 0)
(0.000100074 -0.000175181 0)
(0.000444849 9.71062e-06 0)
(0.000239266 -4.86042e-05 0)
(0.00046511 2.23614e-05 0)
(0.000463137 2.27846e-05 0)
(0.000238702 -4.03435e-05 0)
(0.000418912 2.48813e-05 0)
(0.000420922 2.4051e-05 0)
(0.000444061 6.53922e-06 0)
(0.000425361 2.25577e-05 0)
(0.000466889 8.49415e-06 0)
(0.000401229 3.61229e-05 0)
(0.000433748 1.78393e-05 0)
(0.000466267 1.00736e-05 0)
(0.000395146 2.80569e-05 0)
(-1.85886e-05 -0.000519065 0)
(0.000527078 -6.17717e-05 0)
(0.000340588 2.58892e-05 0)
(0.000639215 -0.000236907 0)
(0.000519251 -1.25919e-06 0)
(0.000401234 3.66269e-05 0)
(0.0004514 1.90851e-05 0)
(0.000453436 1.88444e-05 0)
(0.000453372 2.6883e-05 0)
(0.000485777 -3.04762e-05 0)
(0.000468859 1.72293e-05 0)
(0.000446886 2.36633e-05 0)
(0.000437512 2.05014e-05 0)
(0.000449679 3.37688e-06 0)
(0.000336407 -5.2007e-05 0)
(0.000402601 2.84158e-05 0)
(0.000504964 -2.13343e-05 0)
(0.000469088 3.96106e-06 0)
(7.30009e-05 -0.000434834 0)
(0.000499047 -1.93775e-05 0)
(0.000351584 3.0857e-05 0)
(0.000417939 2.60779e-05 0)
(6.75161e-05 -0.000275041 0)
(6.37725e-05 -0.000229806 0)
(0.000421886 2.48542e-05 0)
(0.000394895 2.71971e-05 0)
(0.000104357 -0.00032333 0)
(0.000411325 3.15634e-05 0)
(0.00012249 -0.000517087 0)
(0.00048199 1.68925e-06 0)
(0.000404659 2.8876e-05 0)
(0.000541701 -0.000117354 0)
(0.000439069 2.64639e-05 0)
(0.000488741 7.9294e-06 0)
(0.000491939 9.13047e-06 0)
(0.000514666 -2.49517e-06 0)
(0.000615916 -0.000284432 0)
(0.000539303 -0.000119905 0)
(0.000283017 -6.70587e-05 0)
(0.00043215 1.84834e-05 0)
(0.000432963 3.10738e-05 0)
(0.000369261 3.0177e-05 0)
(0.000440536 1.62406e-05 0)
(0.000469162 2.11839e-05 0)
(0.000337053 2.70649e-05 0)
(0.000406466 2.72336e-05 0)
(0.000499633 3.19118e-06 0)
(0.000410994 2.05852e-05 0)
(0.000402751 3.0365e-05 0)
(0.000507233 2.12658e-06 0)
(0.000511343 5.02469e-07 0)
(0.000521143 -8.06871e-06 0)
(0.000434673 -3.10053e-05 0)
(0.00028199 -8.14407e-05 0)
(0.000296835 -0.000244795 0)
(0.000456734 -7.28825e-06 0)
(0.000507827 1.21391e-06 0)
(0.000282078 -0.000288142 0)
(0.000473393 1.76286e-06 0)
(0.000421028 2.52002e-05 0)
(0.000381941 3.57552e-05 0)
(0.000356655 3.12758e-05 0)
(0.000454948 2.58514e-05 0)
(0.000376047 2.96028e-05 0)
(0.000108006 -0.000358373 0)
(-3.51262e-07 -0.000582845 0)
(5.30431e-05 -0.000562743 0)
(0.000473078 -0.000100045 0)
(0.000252435 -0.000193396 0)
(0.000345336 2.87188e-05 0)
(0.000348264 2.96671e-05 0)
(0.000459153 1.58904e-06 0)
(0.000441895 8.54882e-06 0)
(0.000433559 2.11554e-05 0)
(0.000463498 9.95712e-07 0)
(0.00044923 1.49055e-05 0)
(0.000166133 -0.000506808 0)
(0.000516978 -4.00106e-06 0)
(0.000412637 3.20367e-05 0)
(0.000463173 1.9931e-05 0)
(0.000310781 -0.000279151 0)
(0.000405839 1.7639e-05 0)
(0.00048022 1.00043e-05 0)
(0.000507006 2.73983e-06 0)
(0.000355615 2.95875e-05 0)
(0.000444743 2.86362e-05 0)
(0.000208362 -7.34608e-05 0)
(0.00052088 -1.08155e-05 0)
(0.000427141 2.22392e-05 0)
(0.000187571 -8.87304e-05 0)
(0.000338012 -0.000102459 0)
(0.000491772 1.01129e-05 0)
(0.000414006 2.64611e-05 0)
(0.000491821 7.10349e-06 0)
(0.000544812 -0.000286567 0)
(0.000393155 2.86757e-05 0)
(0.00033961 1.7762e-05 0)
(0.000519392 -6.50222e-05 0)
(0.000424925 2.31051e-05 0)
(0.000426457 2.2041e-05 0)
(0.000417808 3.39664e-05 0)
(0.000329738 1.6204e-05 0)
(0.000507721 -3.8283e-06 0)
(0.000445955 1.25225e-05 0)
(0.000447403 1.12324e-05 0)
(0.000358178 -0.00010374 0)
(0.00027634 -0.000186464 0)
(0.000395069 2.72598e-05 0)
(0.000529488 -6.04032e-05 0)
(0.00038181 3.28234e-05 0)
(0.000440539 9.01232e-06 0)
(0.000248366 -9.93647e-05 0)
(0.0003964 2.75222e-05 0)
(0.000385788 2.98334e-05 0)
(0.000460086 1.66138e-05 0)
(0.00036469 2.73605e-05 0)
(0.000481475 3.56417e-06 0)
(0.000161784 -0.000137285 0)
(0.000431792 2.20847e-05 0)
(0.000479294 -3.98803e-05 0)
(0.000444577 2.8409e-05 0)
(0.000515657 -4.63516e-05 0)
(0.000500431 -5.31131e-05 0)
(0.00039832 2.8036e-05 0)
(0.000404034 3.02487e-05 0)
(0.000406819 2.76305e-05 0)
(0.000497267 -3.94626e-05 0)
(0.000487336 -5.06366e-05 0)
(0.00038745 2.00236e-05 0)
(0.000409409 2.85921e-05 0)
(0.000443285 6.85816e-06 0)
(0.000396542 3.64674e-05 0)
(0.000398187 3.21213e-05 0)
(0.000439632 3.04819e-05 0)
(0.000439316 2.13635e-05 0)
(0.00039408 3.64723e-05 0)
(0.000455896 1.36066e-05 0)
(0.000409086 2.7017e-05 0)
(8.70801e-05 -0.000521333 0)
(8.4498e-05 -0.000237842 0)
(0.000233062 -0.000256075 0)
(0.000492158 4.54741e-06 0)
(0.000443459 1.61671e-05 0)
(0.000399893 3.02427e-05 0)
(0.000392647 2.64445e-05 0)
(9.9159e-06 -0.000582798 0)
(0.000511061 -3.0365e-06 0)
(0.000501234 -6.3079e-06 0)
(0.000499122 -3.24641e-06 0)
(0.000393377 2.69756e-05 0)
(0.00044295 9.23002e-06 0)
(0.000276247 -1.06897e-06 0)
(0.000407137 3.22285e-05 0)
(0.000408512 3.24658e-05 0)
(0.000317751 1.93694e-05 0)
(0.000392222 2.64767e-05 0)
(0.000211309 -0.000263935 0)
(0.000402205 2.80524e-05 0)
(0.00040142 2.87571e-05 0)
(0.000396602 2.80432e-05 0)
(0.000409444 2.86551e-05 0)
(0.000297383 -0.000211313 0)
(0.000396242 2.83311e-05 0)
(0.000433846 1.71362e-05 0)
(0.000471754 1.47673e-05 0)
(0.000393225 2.85808e-05 0)
(0.000394551 2.92796e-05 0)
(0.000470296 1.67035e-05 0)
(0.00039811 3.63644e-05 0)
(0.000412684 2.68247e-05 0)
(0.000318739 1.94779e-05 0)
(0.000482298 2.90842e-06 0)
(0.000435403 -8.35841e-05 0)
(0.000388654 3.18859e-05 0)
(0.000453638 1.06894e-05 0)
(0.000396357 3.14893e-05 0)
(0.000387698 2.74653e-05 0)
(0.000138208 -0.000279093 0)
(0.000446238 2.33204e-06 0)
(8.2332e-05 -0.00028813 0)
(0.000277961 -0.000215872 0)
(0.000342551 2.42674e-05 0)
(0.000393494 2.66617e-05 0)
(0.000434909 2.31155e-05 0)
(0.000397124 2.73414e-05 0)
(0.000101616 -0.000155679 0)
(0.00049242 3.34499e-06 0)
(0.000327648 3.96187e-06 0)
(0.000497898 4.57243e-06 0)
(0.000438274 5.84162e-06 0)
(0.000397116 3.49036e-05 0)
(0.000395726 2.75471e-05 0)
(0.000329804 -5.32285e-07 0)
(0.000400602 2.86299e-05 0)
(0.000476083 3.25024e-06 0)
(0.000525822 -4.77753e-05 0)
(0.00047363 3.20161e-06 0)
(1.2107e-05 -0.000486755 0)
(0.000233605 -9.73452e-05 0)
(0.000407285 2.80348e-05 0)
(1.77698e-05 -0.000563878 0)
(0.000403403 3.35727e-05 0)
(0.000498658 5.04531e-06 0)
(0.000472243 1.77479e-05 0)
(0.000502791 -3.82808e-05 0)
(0.000448603 4.6885e-06 0)
(0.00048537 2.95401e-06 0)
(0.000527341 -4.30484e-05 0)
(0.000432755 1.79481e-05 0)
(0.000472757 1.91544e-05 0)
(0.000366427 -0.000380029 0)
(0.000452133 1.67707e-05 0)
(0.000425678 2.22647e-05 0)
(0.000342451 2.85464e-05 0)
(0.000422712 3.24935e-05 0)
(0.000355158 3.19328e-05 0)
(0.000395462 2.77033e-05 0)
(0.000471477 9.35421e-07 0)
(7.95954e-06 -0.000564917 0)
(0.000426924 -6.83799e-05 0)
(0.000409542 2.89334e-05 0)
(0.000286127 3.48455e-06 0)
(0.00026879 -0.000432188 0)
(0.000421822 3.21543e-05 0)
(0.000403569 -6.76165e-05 0)
(0.000411607 3.42486e-05 0)
(0.000485775 4.03964e-06 0)
(0.000517184 -1.40103e-05 0)
(0.000365241 3.32522e-05 0)
(0.000516554 -1.88881e-05 0)
(0.000426398 -0.000116921 0)
(0.000338906 -6.24314e-05 0)
(0.000544616 -9.9823e-05 0)
(0.000466325 1.48479e-05 0)
(0.000256432 -4.54287e-05 0)
(0.000427559 -9.40947e-05 0)
(0.000458066 1.8501e-05 0)
(0.000423799 2.62143e-05 0)
(0.000422861 3.382e-05 0)
(0.000421368 3.43249e-05 0)
(0.000485794 1.32171e-05 0)
(0.00035083 2.59676e-05 0)
(0.000482138 1.50559e-05 0)
(0.000374322 3.23288e-05 0)
(0.00036764 3.20303e-05 0)
(0.000214738 -0.000179862 0)
(0.000438563 1.86401e-05 0)
(0.000457368 2.1786e-05 0)
(0.000460335 7.31567e-06 0)
(0.000459799 6.0563e-06 0)
(0.000418324 2.52096e-05 0)
(0.000379065 -0.000205059 0)
(0.000480429 1.58113e-05 0)
(0.000250184 -3.18443e-05 0)
(0.000477864 -3.1649e-05 0)
(0.000439296 1.43275e-05 0)
(0.00054946 -0.000115805 0)
(0.000450615 3.25959e-06 0)
(0.000439242 1.79213e-05 0)
(0.000385713 2.886e-05 0)
(0.000439106 2.97334e-05 0)
(0.00049465 1.70145e-06 0)
(0.000442158 2.00311e-05 0)
(0.000413086 2.75371e-05 0)
(0.000442372 2.17909e-05 0)
(0.000519329 -1.01988e-05 0)
(0.000424214 2.30959e-05 0)
(0.000524171 -2.29187e-05 0)
(0.000432387 1.84961e-05 0)
(0.000393315 3.67706e-05 0)
(0.000453519 1.11106e-05 0)
(0.000445856 1.22933e-05 0)
(0.000519793 -2.11479e-06 0)
(0.00041925 3.30413e-05 0)
(0.000472372 6.44335e-06 0)
(0.000441524 8.14048e-06 0)
(0.000406013 2.76897e-05 0)
(0.000417369 2.51719e-05 0)
(0.000421371 -0.000333953 0)
(0.000447226 4.04575e-06 0)
(0.000429649 3.27339e-05 0)
(0.00044268 1.27002e-05 0)
(0.000183613 -6.90717e-05 0)
(0.000445798 5.52925e-06 0)
(0.000500967 4.44783e-06 0)
(0.000441714 9.80703e-06 0)
(0.000111 -0.000411677 0)
(0.000436763 3.04318e-05 0)
(0.000442631 1.64403e-05 0)
(0.000448808 1.67486e-06 0)
(0.000399425 2.95097e-05 0)
(0.000372114 2.86916e-05 0)
(0.000528892 -4.9411e-05 0)
(0.000553191 -0.000119492 0)
(0.00047392 8.65624e-06 0)
(0.000211837 -6.26722e-05 0)
(0.000469389 9.66633e-06 0)
(0.000405421 2.75544e-05 0)
(3.41056e-05 -0.000530813 0)
(0.000459427 2.95924e-06 0)
(0.000409111 2.71472e-05 0)
(0.00035825 3.02435e-05 0)
(0.000433413 2.83505e-05 0)
(0.000435376 2.73495e-05 0)
(0.000394896 2.85225e-05 0)
(0.000399739 2.8165e-05 0)
(0.000398192 2.79979e-05 0)
(0.000377884 2.93339e-05 0)
(0.000420313 2.44615e-05 0)
(0.000472948 1.84106e-05 0)
(0.00043442 1.65042e-05 0)
(0.000163263 -0.000121375 0)
(0.000517494 -9.41625e-07 0)
(0.000412278 2.76447e-05 0)
(0.000413674 2.70066e-05 0)
(0.000425529 2.3959e-05 0)
(0.000483904 1.3147e-05 0)
(0.000390429 2.80404e-05 0)
(0.000511416 3.32125e-08 0)
(0.00063129 -0.00024182 0)
(0.000525912 -4.20985e-05 0)
(0.000403944 3.19458e-05 0)
(0.000496792 1.56061e-06 0)
(0.000404061 2.75005e-05 0)
(0.000299368 -5.65948e-05 0)
(0.000239528 -3.11071e-05 0)
(0.000249533 -2.20008e-05 0)
(0.00039417 2.6811e-05 0)
(0.000423366 2.3156e-05 0)
(0.000421867 2.57273e-05 0)
(0.00042377 2.29416e-05 0)
(0.000461032 -1.75566e-05 0)
(0.000427558 2.61078e-05 0)
(0.000402465 2.78851e-05 0)
(0.000339148 2.55189e-05 0)
(0.000389765 2.68774e-05 0)
(0.000374031 3.04186e-05 0)
(0.000506941 -5.60032e-06 0)
(0.000501159 -1.84337e-06 0)
(0.000456447 1.54366e-05 0)
(0.000473393 -0.00016184 0)
(0.000408493 2.985e-05 0)
(0.000582334 -0.000173462 0)
(0.000398368 3.51934e-05 0)
(0.000421025 -3.26084e-05 0)
(0.000422422 2.75829e-05 0)
(0.000418103 3.33084e-05 0)
(0.000450466 8.1545e-06 0)
(0.000445434 1.74844e-05 0)
(0.000238936 -2.33906e-05 0)
(0.000519366 -7.0788e-06 0)
(0.000233797 -2.73208e-05 0)
(0.000392195 3.26083e-05 0)
(0.000394545 3.29907e-05 0)
(0.000470688 -0.000143025 0)
(0.000452532 1.0446e-05 0)
(0.000437121 1.0937e-05 0)
(0.000400425 3.31955e-05 0)
(0.000399927 3.43402e-05 0)
(0.000437669 1.09467e-05 0)
(0.000537805 -8.35013e-05 0)
(0.000447111 1.97643e-05 0)
(0.000425646 2.45247e-05 0)
(0.000517148 -5.46796e-06 0)
(0.000515852 -5.88929e-06 0)
(0.000537538 -7.85023e-05 0)
(0.000464508 -1.36895e-05 0)
(0.000318636 -4.91348e-05 0)
(0.000521582 -2.59811e-05 0)
(0.000553483 -0.000118988 0)
(0.000413047 2.96977e-05 0)
(0.000381678 3.55097e-05 0)
(0.000326787 2.32548e-05 0)
(0.000501603 -4.86247e-05 0)
(0.00042446 2.27456e-05 0)
(0.000378448 3.57016e-05 0)
(0.00034737 -5.117e-06 0)
(0.000168205 -0.000429816 0)
(0.000373964 3.54948e-05 0)
(0.000370796 3.3581e-05 0)
(0.000447633 2.84978e-06 0)
(0.000346497 7.3745e-07 0)
(0.000480892 1.3987e-05 0)
(0.00044955 1.77797e-06 0)
(9.9641e-06 -0.000576311 0)
(0.000488659 -7.79956e-05 0)
(0.000399103 2.81945e-05 0)
(0.000401536 3.1154e-05 0)
(0.000485543 -5.77356e-05 0)
(0.000498904 6.5567e-06 0)
(0.000509715 -5.20815e-07 0)
(0.00043384 2.47858e-05 0)
(0.00044086 1.22853e-05 0)
(0.000533231 -7.73578e-05 0)
(0.00023031 -0.000286756 0)
(0.000408319 2.90175e-05 0)
(0.000385323 3.50427e-05 0)
(0.00043413 2.95085e-05 0)
(0.000435766 2.93406e-05 0)
(0.000442207 5.46511e-06 0)
(0.000469424 -5.64641e-05 0)
(4.58733e-05 -0.00050221 0)
(3.12787e-05 -0.000563798 0)
(0.000404273 3.62291e-05 0)
(0.000342798 2.57111e-05 0)
(0.000376374 3.05336e-05 0)
(0.000433972 3.16529e-05 0)
(0.000463503 2.23347e-05 0)
(0.000439736 2.8529e-05 0)
(0.000489975 3.66259e-06 0)
(0.000384081 3.42494e-05 0)
(0.000400969 4.53035e-06 0)
(0.000432799 2.70149e-05 0)
(0.000536845 -0.000191135 0)
(0.000446471 2.50605e-05 0)
(0.000408204 7.53056e-06 0)
(0.000448049 2.37247e-05 0)
(0.000427912 -3.74765e-06 0)
(0.000361622 2.85324e-05 0)
(0.00048003 1.16021e-05 0)
(0.000385302 7.1963e-06 0)
(0.000477685 1.29135e-05 0)
(0.000396332 2.75634e-05 0)
(0.00040932 3.52777e-05 0)
(0.000382118 3.47924e-05 0)
(0.000441159 1.40066e-05 0)
(0.000228833 -0.00037555 0)
(0.00015968 -0.000266486 0)
(0.000405583 3.50606e-05 0)
(0.0002491 -1.92394e-05 0)
(0.000436466 1.6884e-05 0)
(0.000437462 1.53972e-05 0)
(0.000329519 2.37855e-05 0)
(0.00043841 1.14831e-05 0)
(0.000438369 1.37284e-05 0)
(0.000420788 -4.33335e-05 0)
(0.000457674 1.56503e-05 0)
(0.000517866 -3.45201e-06 0)
(0.000361632 2.88811e-05 0)
(0.000411311 2.65514e-05 0)
(0.000478409 1.67317e-05 0)
(-3.30648e-06 -0.000578855 0)
(0.00045176 1.80931e-05 0)
(0.00052191 -4.37089e-05 0)
(0.000383774 2.73e-05 0)
(0.000296678 -0.000378189 0)
(0.000445293 6.70582e-07 0)
(0.000373753 2.89694e-05 0)
(0.000604643 -0.000202145 0)
(0.000522485 -2.12169e-05 0)
(0.000433467 1.89719e-05 0)
(0.000169383 -0.000295439 0)
(0.000361985 -0.000207638 0)
(0.000519127 -3.35378e-05 0)
(0.000478152 1.75392e-05 0)
(0.000386596 3.28041e-05 0)
(0.000384634 3.26538e-05 0)
(0.00039904 2.77349e-05 0)
(0.000379069 3.47919e-05 0)
(0.000402865 -8.12257e-07 0)
(0.000447067 7.55515e-06 0)
(0.000465236 2.1984e-05 0)
(0.000455771 2.44429e-05 0)
(0.000270627 -3.71152e-06 0)
(0.000470354 1.83125e-05 0)
(0.000451594 2.52127e-05 0)
(0.000466299 1.79238e-05 0)
(0.000411022 1.43476e-05 0)
(0.000509648 9.23551e-07 0)
(0.000156895 -0.000406274 0)
(0.000522468 -1.70085e-05 0)
(0.000169001 -0.000458044 0)
(0.000408565 2.70072e-05 0)
(0.000436189 1.4441e-05 0)
(0.000437239 1.34814e-05 0)
(0.000274193 -2.62012e-06 0)
(0.000403925 3.17691e-05 0)
(0.000401332 3.14106e-05 0)
(5.69216e-05 -0.000403944 0)
(3.84383e-05 -0.000437195 0)
(0.000381438 3.07751e-05 0)
(0.000516564 -1.23458e-05 0)
(0.000613242 -0.00021132 0)
(0.000458388 4.09506e-06 0)
(0.000516416 -4.21462e-07 0)
(0.000456485 1.60823e-06 0)
(0.000468352 1.84618e-05 0)
(5.38403e-05 -0.0005612 0)
(0.000449415 2.15945e-05 0)
(0.000452018 2.06498e-05 0)
(0.000467686 1.51707e-05 0)
(0.000463859 1.955e-05 0)
(0.000527163 -4.73538e-05 0)
(0.000294057 -3.956e-05 0)
(0.000460796 2.01935e-05 0)
(0.000346884 2.75568e-05 0)
(0.000397472 2.99207e-05 0)
(0.000405829 2.32888e-05 0)
(0.000396499 2.46679e-05 0)
(0.000300818 1.25165e-05 0)
(0.000313692 -0.000112938 0)
(0.000438483 1.0014e-05 0)