/*--------------------------------*- C++ -*----------------------------------*\
| =========                 |                                                 |
| \\      /  F ield         | OpenFOAM: The Open Source CFD Toolbox           |
|  \\    /   O peration     | Version:  v2012                                 |
|   \\  /    A nd           | Website:  www.openfoam.com                      |
|    \\/     M anipulation  |                                                 |
\*---------------------------------------------------------------------------*/
FoamFile
{
    version     2.0;
    format      ascii;
    class       volSymmTensorField;
    location    "20";
    object      epsilon;
}
// * * * * * * * * * * * * * * * * * * * * * * * * * * * * * * * * * * * * * //

dimensions      [0 0 0 0 0 0 0];


internalField   nonuniform List<symmTensor> 
1896
(
(-2.90638e-05 -1.40824e-05 2.05836e-21 5.35659e-05 -4.79364e-21 0)
(4.27088e-06 -1.28859e-05 4.2853e-21 6.14339e-06 8.52311e-22 0)
(-2.92164e-05 -7.12594e-06 0 5.57495e-05 0 0)
(4.38978e-05 -0.000296886 8.05992e-20 -0.000332118 1.76638e-21 0)
(-2.98468e-05 -1.54651e-05 6.57411e-21 5.29204e-05 -1.20065e-20 0)
(-2.75665e-05 -1.85496e-05 -5.17404e-21 5.21897e-05 6.1274e-21 0)
(0.00028069 -0.000214113 -1.68684e-19 -0.000286765 -1.50361e-19 0)
(-4.51235e-05 -2.57962e-05 -1.24282e-21 5.42398e-05 4.95133e-21 0)
(-0.000145052 6.4291e-06 -2.08818e-20 5.37989e-05 2.25346e-20 0)
(-4.85483e-05 -1.89126e-05 -6.55509e-21 5.8011e-05 -4.55748e-21 0)
(-3.01345e-05 -2.48692e-06 -2.05747e-21 6.28787e-05 5.30258e-21 0)
(-9.73842e-05 -3.12291e-05 1.7793e-20 6.40982e-05 -2.64933e-21 0)
(-8.48784e-05 -2.34785e-05 9.23949e-21 6.91989e-05 -1.60637e-20 0)
(-9.6117e-05 -2.45104e-05 -1.89371e-20 6.11281e-05 1.01938e-20 0)
(0.000150342 -0.000248746 -4.30142e-20 -0.000240099 1.77171e-20 0)
(0.000365404 0.000183455 1.19881e-19 -0.000161275 -1.14813e-19 0)
(2.39158e-05 -3.0582e-05 -4.75077e-21 -1.04959e-05 1.93314e-21 0)
(-0.000583735 -0.000607448 2.95931e-19 -0.000393813 9.88801e-20 0)
(3.55275e-05 -6.0148e-05 1.20741e-20 -1.00193e-05 -9.32011e-22 0)
(-0.000313785 0.000375796 1.02045e-20 -0.000106513 1.22573e-21 0)
(0.000106009 8.15171e-05 -4.9309e-21 -0.000208951 -1.99615e-21 -4.80396e-36)
(-3.50941e-06 -3.71619e-05 1.16767e-20 1.97981e-05 -3.05276e-21 0)
(0.000279782 -0.000111191 5.36752e-20 -0.00011216 2.74899e-20 0)
(0.000275706 -0.000104547 7.17799e-21 -0.000147253 -1.08187e-20 0)
(4.05094e-06 -2.26405e-05 -2.07866e-21 9.4503e-07 9.24448e-22 0)
(2.84357e-06 -2.3209e-05 -7.08021e-21 7.13921e-06 1.30135e-21 0)
(-9.77166e-05 -1.60693e-05 -2.26506e-20 6.42681e-05 1.13378e-20 0)
(-8.01251e-05 -1.78572e-05 1.13671e-21 7.03361e-05 7.41412e-21 0)
(-2.35157e-05 -1.04973e-05 -4.59032e-21 5.76999e-05 6.60933e-21 0)
(4.2909e-05 -8.42426e-05 -2.07602e-20 -1.77266e-05 -2.27068e-21 0)
(5.54734e-05 -8.76981e-05 3.92393e-21 1.97186e-06 1.19149e-21 0)
(3.35768e-06 -4.0657e-06 1.49138e-21 8.93461e-07 3.25187e-21 0)
(-9.71329e-05 -8.31531e-06 2.48119e-20 3.61966e-05 -8.63472e-21 0)
(-9.94336e-07 -8.73963e-06 0 2.72366e-06 0 0)
(0.000193547 -2.49866e-05 2.32146e-20 -8.50491e-05 1.00958e-20 0)
(-2.54847e-05 -7.27003e-06 -5.12833e-21 5.43901e-05 5.72428e-21 0)
(3.69884e-05 -8.18199e-05 1.46405e-20 -4.8063e-06 -2.9855e-21 0)
(-5.52923e-06 -1.11443e-05 1.01832e-21 2.08144e-05 -1.18357e-21 0)
(0.0012067 -0.000684077 -1.54296e-19 -0.00040852 4.86921e-20 0)
(6.05151e-05 -8.92788e-05 -7.2296e-21 2.05655e-06 -3.6905e-22 0)
(2.49001e-07 -4.63706e-07 3.0686e-21 3.29916e-07 6.06527e-21 0)
(-0.000524799 0.000188728 -3.09197e-20 6.82104e-05 -2.27554e-21 0)
(-1.55056e-05 -9.92326e-05 -2.89462e-20 3.6716e-05 3.64734e-21 0)
(-0.000173784 -8.57109e-05 6.62259e-20 4.0635e-05 -7.60867e-21 0)
(-9.32253e-05 -1.30713e-05 -8.24271e-21 6.64373e-05 5.58321e-21 0)
(-8.29447e-05 -1.40174e-05 9.79363e-21 6.9636e-05 6.70508e-22 0)
(8.36588e-05 -0.000183749 7.16681e-20 -0.000284106 7.93256e-20 0)
(-2.77197e-05 -5.62806e-06 -2.89107e-21 6.24004e-05 -9.79731e-21 0)
(-3.01002e-05 -0.000142616 -6.8691e-20 3.32138e-06 6.61666e-20 0)
(0.000322509 -8.25236e-05 4.84337e-20 -0.000323345 -8.05641e-20 0)
(-3.4613e-05 -8.90768e-06 3.6713e-21 5.38621e-05 -5.04117e-21 0)
(-3.98109e-05 -2.37598e-05 1.09987e-20 4.94098e-05 -6.65706e-21 0)
(-3.34702e-05 -2.33854e-05 -7.7051e-21 5.91146e-05 5.13071e-21 0)
(-3.13911e-06 -3.60494e-05 -1.76747e-20 1.79056e-05 5.1399e-21 0)
(-0.000124728 -1.31481e-05 -1.47652e-20 5.40033e-05 -5.72643e-21 0)
(8.34172e-06 -4.37606e-06 2.66583e-22 -4.08144e-06 -1.20456e-21 0)
(-0.00011796 -7.83005e-05 -5.57352e-20 5.31608e-05 -1.90318e-20 0)
(-2.549e-05 -1.18901e-05 1.48752e-20 5.3422e-05 -1.54344e-20 0)
(-1.13067e-05 -4.98766e-06 4.08113e-21 1.76534e-05 -6.33832e-21 0)
(6.72592e-05 -9.33431e-06 -5.53656e-21 -2.91608e-05 5.12405e-21 0)
(-4.5083e-05 -2.35085e-05 -6.03984e-21 5.73244e-05 5.34191e-21 0)
(0.000418692 -0.000120772 -1.11335e-19 -0.000284002 -1.91862e-19 0)
(0.000299906 -9.99857e-05 -2.10183e-19 -0.000205374 2.21185e-20 0)
(-2.07653e-05 -3.22938e-05 -2.03552e-21 4.34933e-05 3.89128e-22 0)
(-0.000175161 0.00038195 -2.14586e-20 -6.86086e-05 4.75683e-20 -1.63049e-35)
(1.42066e-06 -2.06308e-06 -2.24807e-21 -1.29385e-06 7.87203e-22 0)
(0.000184661 -0.000102739 4.69334e-20 -8.88297e-05 1.55374e-20 0)
(-9.48298e-05 -5.23876e-05 2.96477e-20 6.14183e-05 -1.28467e-20 0)
(-7.60562e-06 -2.08984e-05 -5.67246e-21 2.53082e-05 1.29402e-21 0)
(0.000251566 -8.51141e-05 -2.61491e-20 -8.28616e-05 -1.77889e-20 0)
(-9.23293e-05 -1.70396e-06 -2.90582e-21 4.43316e-05 4.73204e-21 0)
(0.000237786 -0.000148117 6.2994e-20 -0.000117858 1.27683e-19 0)
(-9.34283e-06 -1.79695e-05 5.54814e-21 2.30922e-05 1.32231e-22 0)
(7.65651e-06 -5.49622e-07 1.23974e-21 -5.39579e-06 3.41502e-22 1.63758e-37)
(0.000214819 -1.41062e-05 7.26066e-20 -8.35299e-05 1.13186e-20 7.97517e-36)
(4.90473e-06 -1.90921e-05 0 9.4729e-06 0 0)
(1.04144e-06 -1.49876e-05 -5.76581e-21 3.52016e-06 -2.13216e-21 0)
(-1.82393e-05 -2.27048e-05 -6.37978e-21 4.1561e-05 3.30364e-21 0)
(-1.94946e-05 -2.53319e-05 -5.75024e-22 4.01297e-05 3.65983e-22 0)
(-1.75752e-05 -6.64971e-05 2.14609e-20 2.10116e-05 -1.268e-21 0)
(-0.000440273 0.000240652 -9.25354e-20 0.000181574 1.47497e-19 0)
(0.000254434 -8.83995e-05 -4.50499e-20 -0.000121246 -2.16842e-20 0)
(-7.74141e-05 -1.37447e-05 -5.7731e-21 6.38969e-05 1.44108e-20 0)
(-5.69011e-05 -3.74477e-05 -1.1755e-21 5.62901e-05 5.64779e-21 0)
(-5.19068e-05 -3.38011e-05 9.50763e-21 6.01244e-05 -1.38481e-20 0)
(9.69489e-06 -6.53243e-05 2.06569e-20 1.255e-05 -3.61326e-22 0)
(-5.44894e-05 -6.90622e-05 4.23305e-20 6.17677e-05 -2.08095e-20 0)
(-7.02805e-05 -6.26007e-05 -1.29566e-20 5.59253e-05 7.64695e-22 0)
(-0.000133655 -4.69922e-05 2.58091e-20 6.94135e-05 1.88362e-20 0)
(-4.40488e-05 -8.54713e-05 2.44404e-20 5.45638e-05 -1.0279e-20 0)
(-3.88411e-05 -6.3635e-05 6.94868e-21 4.04246e-05 1.19304e-21 0)
(0.00848864 -0.00124236 0 -0.010709 0 0)
(-0.000118732 -5.99422e-06 3.45622e-20 4.36272e-05 -2.6347e-20 0)
(-0.000634962 -0.000167735 1.86377e-20 0.000217014 -2.255e-20 0)
(0.000378477 -7.22433e-05 -5.85034e-20 -0.000126293 -2.2264e-20 0)
(8.05323e-07 -3.13103e-05 -5.10493e-21 9.99871e-06 2.38781e-22 0)
(-3.78268e-06 -4.21673e-06 1.24788e-21 4.40568e-06 -9.74179e-21 0)
(-2.85212e-05 -4.36996e-06 4.77314e-21 6.63887e-05 -5.53792e-21 0)
(4.75574e-07 -3.37426e-06 -9.89685e-21 3.63382e-06 -3.32871e-21 0)
(-9.04044e-05 -6.68751e-05 -3.51425e-23 5.27621e-05 -3.43376e-22 0)
(-6.41217e-05 -7.65997e-05 1.7252e-20 6.81828e-05 -7.45288e-21 0)
(-9.02768e-05 -4.52449e-05 3.01564e-20 6.11766e-05 -1.4219e-20 0)
(-2.60264e-05 -3.29091e-05 -7.88586e-22 4.30202e-05 1.10566e-21 0)
(-0.000115714 -2.08526e-05 -1.40897e-21 4.79299e-05 1.70716e-21 0)
(-0.000105736 -6.66e-05 5.98895e-20 6.67979e-05 -2.4801e-20 0)
(-3.56904e-05 -9.3732e-05 -6.6448e-22 3.69793e-05 1.66101e-21 0)
(7.73621e-06 -5.99935e-05 -2.52604e-21 1.29638e-05 2.41015e-21 0)
(-0.000153924 -8.0117e-05 -4.54621e-20 2.68076e-05 -2.06094e-20 0)
(0.00012157 -0.000164182 -1.71308e-19 -4.67184e-05 -1.30098e-20 0)
(0.00425963 -0.000331752 -2.09742e-19 -0.00565157 6.427e-19 0)
(-2.74783e-05 -8.12357e-07 -2.56079e-21 6.32307e-05 1.31451e-20 9.9256e-38)
(-3.90534e-06 -9.18241e-07 -3.49223e-21 2.49506e-06 -9.56961e-21 -6.74903e-36)
(6.11015e-05 -0.000151054 1.71963e-20 1.72868e-06 -1.40191e-20 0)
(-0.000124326 -7.61261e-05 7.76257e-21 6.62427e-05 -7.0505e-21 0)
(0.0016633 -0.00161431 -8.11027e-20 -0.000806377 2.55046e-19 0)
(-5.49184e-05 -7.1023e-05 1.20242e-20 5.19266e-05 -5.4965e-21 0)
(-7.25195e-05 -5.9882e-06 -1.37562e-20 6.45649e-05 -6.87692e-21 0)
(-3.87848e-05 -7.48052e-05 -2.47342e-21 4.80387e-05 -2.73438e-21 0)
(-0.000305421 5.83552e-05 -3.21976e-21 5.43032e-05 4.50702e-20 0)
(4.23824e-05 -7.85943e-05 1.96474e-20 -1.38996e-05 -3.00339e-22 0)
(-0.000262046 4.45279e-05 0 6.31367e-05 0 0)
(-0.000144273 2.58018e-05 5.73806e-20 2.90851e-05 -5.41453e-20 0)
(-6.92655e-06 -1.59397e-05 5.38706e-21 1.54422e-05 1.21921e-21 0)
(-6.25706e-05 -2.62976e-05 1.33409e-20 6.84623e-05 -1.8551e-20 0)
(-7.42469e-05 -2.51957e-05 3.43451e-20 6.19964e-05 -1.40348e-20 0)
(-0.000157928 -1.99522e-05 -8.78182e-20 6.13957e-05 5.81505e-20 0)
(-0.000185982 -9.69106e-05 -5.7479e-20 3.8893e-05 1.42323e-19 0)
(-4.41142e-05 -3.04066e-05 -1.63956e-20 5.87745e-05 8.58963e-21 0)
(5.39781e-05 -2.96176e-05 -6.65497e-23 -2.12832e-05 7.80781e-21 0)
(-8.18327e-05 -6.73501e-05 -1.52869e-20 6.58565e-05 5.73361e-21 0)
(-8.49099e-05 -7.48606e-05 1.22619e-21 5.73009e-05 -5.23086e-21 0)
(-2.71826e-05 -6.5967e-05 -3.99468e-21 4.48335e-05 -1.23749e-21 0)
(5.59067e-05 -0.000147999 0 -8.09796e-06 0 0)
(-0.000565664 1.55012e-06 -1.06967e-19 0.000411787 3.24343e-20 0)
(3.34094e-05 -5.41112e-05 1.21558e-20 -8.13442e-06 1.96245e-21 0)
(0.000336741 -0.000109351 -3.68329e-19 -0.000279171 -9.5284e-20 0)
(-0.000206481 -0.000149178 -5.62491e-20 -0.000129546 -5.76782e-20 0)
(-0.000146828 -0.000248884 -1.30734e-19 -7.57346e-05 -3.03214e-21 0)
(9.4772e-07 -1.88396e-06 1.40887e-21 9.8248e-07 -4.0873e-21 0)
(4.74036e-05 -0.000111392 2.3451e-20 -6.0386e-06 1.59794e-21 0)
(-7.47745e-06 -2.60171e-05 -9.45305e-21 1.94544e-05 3.38701e-21 0)
(-0.000110614 -0.000111709 -5.61336e-20 4.62363e-05 9.26138e-21 0)
(6.32003e-05 -0.000102508 -1.38918e-20 -4.59111e-06 -2.11199e-21 0)
(0.000759824 0.000324499 -1.07175e-19 -0.000221046 -1.90977e-19 0)
(-3.80429e-05 -5.1899e-05 -7.68514e-21 5.19607e-05 -1.34176e-21 0)
(1.38751e-05 -4.73824e-05 9.50881e-22 -2.78137e-06 -3.10705e-23 0)
(1.81505e-05 -4.4409e-05 -3.02356e-21 6.77899e-06 1.61829e-21 0)
(5.34133e-05 -3.76072e-05 1.09708e-20 -1.99518e-05 -2.76701e-21 0)
(0.000227364 -0.000145575 -7.32327e-20 -0.000114714 -3.91997e-21 0)
(-4.51149e-05 -7.19375e-05 0 5.05324e-05 0 0)
(-8.57809e-05 -2.59242e-05 -1.23937e-21 7.06189e-05 -3.39339e-22 0)
(-3.26215e-06 -8.88148e-06 -1.29452e-20 9.78403e-06 7.6908e-21 0)
(-5.94302e-06 -2.94714e-05 0 2.17283e-05 0 0)
(-1.65888e-05 -3.3389e-05 9.43437e-21 3.80642e-05 -4.91501e-21 0)
(-1.86892e-05 -3.89369e-05 6.4542e-21 3.72651e-05 -2.14167e-21 0)
(-5.63083e-05 -0.000135681 -5.02956e-20 5.52074e-05 4.83205e-20 0)
(-6.7115e-05 -6.47878e-06 -4.43831e-22 6.64969e-05 1.03622e-22 0)
(-6.59802e-05 -0.000113724 4.13784e-20 4.75437e-05 -6.26151e-20 0)
(0.00354843 -0.00233987 -2.7143e-19 -0.00568751 2.48399e-19 2.50201e-34)
(-4.01422e-05 -1.60192e-05 -4.29793e-21 5.47332e-05 -3.2896e-21 0)
(-3.24474e-05 -2.00306e-05 -6.08695e-21 5.38893e-05 2.09476e-21 0)
(0.000262063 -5.65898e-06 -2.51121e-20 -0.000115123 -6.36701e-22 -3.45235e-37)
(-0.000130843 2.79483e-05 7.64739e-21 3.45832e-05 -2.97383e-20 0)
(-1.5043e-05 -1.15932e-05 -3.53578e-21 2.34663e-05 7.53378e-22 0)
(0.00185446 -9.48426e-05 -1.32371e-19 -0.00108152 -5.78306e-20 0)
(-5.11902e-05 -2.29661e-05 1.88188e-21 6.01383e-05 -6.39592e-21 0)
(0.000303504 3.44777e-06 -4.21881e-20 -6.40887e-05 -9.37412e-21 0)
(-2.84245e-05 -9.22218e-06 8.35337e-22 5.93427e-05 -1.08913e-21 0)
(-2.86438e-05 -8.88612e-06 8.63965e-21 5.67638e-05 -1.35608e-20 0)
(4.15296e-07 -9.28647e-06 1.53805e-20 6.64107e-06 -5.87139e-21 0)
(7.34143e-07 -6.78878e-06 -2.99163e-21 7.28943e-06 2.69323e-21 0)
(6.13157e-06 -4.00738e-06 -3.17521e-21 6.32186e-07 -1.51103e-21 0)
(-0.000104731 -1.81522e-05 1.10737e-20 3.8337e-05 -4.29232e-21 0)
(-9.82999e-05 -1.43823e-05 -1.37993e-20 5.43137e-05 4.66295e-21 0)
(3.64442e-05 -0.000277344 1.90728e-19 -8.22838e-05 -1.16286e-19 0)
(-2.84791e-05 -0.000243005 1.45219e-19 -0.000164805 1.43335e-19 0)
(5.41647e-05 -0.000153859 1.61742e-19 -3.06661e-05 5.98656e-20 0)
(4.19812e-06 -3.09496e-05 1.51964e-21 1.0305e-05 -1.39961e-21 0)
(-2.82924e-05 -4.14665e-06 -2.393e-21 6.07183e-05 -7.36652e-22 0)
(-0.000106164 -4.25893e-05 -5.08973e-20 6.27447e-05 2.07879e-20 0)
(-9.66034e-05 -4.08914e-06 5.28834e-21 3.67331e-05 -2.46785e-21 0)
(6.51552e-05 -2.77541e-05 -8.83589e-21 -3.50441e-05 -1.08677e-20 0)
(-1.94333e-05 -3.28947e-05 1.22017e-20 3.14924e-05 -5.54263e-21 0)
(0.000100955 -0.000182587 -7.13445e-20 -5.50422e-05 -7.74735e-20 0)
(6.83406e-05 -0.000207194 -1.09284e-19 -0.000129692 1.14663e-20 0)
(0.00146181 -0.00026669 2.18557e-19 -0.000655133 8.26377e-20 0)
(-6.658e-05 -7.31284e-05 -1.38582e-20 5.93532e-05 3.64411e-21 0)
(0.000667904 0.000326735 -1.43614e-19 -0.000288096 -8.17564e-20 0)
(0.000105614 1.76966e-05 1.76387e-20 -0.000222803 -1.90858e-21 -4.89425e-35)
(-7.87787e-05 6.17855e-05 7.00954e-21 -0.000100504 -9.67338e-21 0)
(-0.000171297 -0.000132784 2.33867e-19 -2.73374e-05 8.92711e-20 0)
(-2.76236e-05 -7.47393e-06 1.68889e-21 6.01518e-05 -1.13457e-20 0)
(-0.000120715 -0.000111849 -7.97937e-20 5.22815e-05 -3.63525e-20 0)
(0.000540303 -7.6635e-06 0 -0.000220936 0 0)
(-0.000378161 0.000348653 -6.36222e-20 2.58984e-06 1.1529e-19 0)
(-0.000101153 -3.19043e-05 8.07269e-21 5.71376e-05 -2.13798e-21 0)
(-1.78975e-05 -9.3024e-05 -1.56785e-20 2.76003e-05 3.58337e-21 0)
(-0.000141923 -7.24503e-05 -9.44883e-20 4.99021e-05 5.21415e-20 0)
(-0.00010037 -2.89245e-05 1.6784e-20 6.07975e-05 -1.00551e-20 0)
(-6.39691e-05 -1.73403e-05 -1.40609e-22 7.11459e-05 9.96765e-21 0)
(-6.29547e-05 -6.64911e-05 -2.92387e-20 6.17067e-05 3.25909e-21 0)
(-0.000365795 0.000265131 -3.97248e-20 5.37925e-05 7.38992e-20 0)
(-2.88909e-05 -7.79464e-06 -3.93365e-21 6.06714e-05 7.62497e-21 0)
(-1.73136e-05 -3.80746e-05 1.03993e-20 3.32225e-05 -5.04377e-21 0)
(0.000868516 0.000222675 1.38369e-19 -0.000646677 9.99771e-20 0)
(-2.47756e-05 -3.71465e-05 5.72189e-21 3.67428e-05 -1.7023e-21 0)
(-3.58321e-05 -0.000154407 8.18282e-20 1.88926e-05 -2.36235e-20 0)
(0.000138644 -7.41384e-05 -1.38902e-20 -5.65578e-05 -1.63075e-21 0)
(6.44982e-05 1.02581e-05 2.87097e-20 -0.000233564 6.94305e-20 0)
(1.23005e-05 -7.53176e-06 4.56152e-21 -3.64231e-06 1.23761e-21 0)
(0.000258069 -3.55419e-05 0 -0.000112447 0 0)
(4.06172e-05 -7.30162e-05 -3.71101e-20 -1.59016e-06 1.33516e-21 0)
(1.81958e-05 -2.61975e-05 2.84914e-21 -2.78634e-07 -1.65757e-23 0)
(1.06839e-05 -2.20481e-05 -5.62804e-22 -5.73377e-06 -8.35582e-23 0)
(-8.92794e-05 -3.74429e-05 1.0293e-20 6.37402e-05 -4.26371e-21 0)
(-0.000116517 -4.12616e-05 3.01876e-21 6.05301e-05 7.03057e-21 0)
(-0.000415623 0.000176859 4.08744e-21 3.846e-05 -3.34886e-20 0)
(0.000112669 -3.62849e-05 -2.03468e-20 -4.75918e-05 -9.44495e-21 0)
(0.000119143 -3.97688e-05 -1.88218e-20 -3.70066e-05 -2.44281e-23 0)
(4.91377e-05 -9.49982e-05 -3.94486e-20 -7.85376e-06 -7.3792e-22 0)
(-4.41608e-05 5.83889e-05 7.56656e-21 -4.72077e-05 2.09337e-20 0)
(-1.95833e-05 -4.22791e-05 -2.6243e-21 3.46667e-05 3.85576e-21 0)
(0.000529628 -5.34714e-05 -8.13719e-20 -0.000227171 -5.20804e-20 0)
(0.000148292 -0.000145343 3.71924e-20 -4.34948e-05 2.61843e-20 0)
(-1.47646e-06 -1.25847e-06 -1.61102e-21 1.16137e-05 -2.26374e-21 -7.59877e-37)
(5.56112e-05 -0.00011054 5.01188e-20 -3.32847e-07 2.03845e-21 0)
(-0.00037363 -0.000115168 0 1.5586e-05 0 0)
(1.20696e-05 -5.04642e-05 -1.9777e-20 1.18733e-05 4.5187e-21 0)
(0.00054712 0.00023941 7.80281e-20 -0.000159067 9.49832e-20 0)
(5.7613e-07 -4.15808e-06 1.343e-21 5.9394e-07 -7.10698e-21 0)
(0.000324741 0.000210543 -4.92135e-20 -2.51031e-05 -7.12959e-20 0)
(-4.5482e-05 -2.18623e-05 -5.61464e-21 5.18983e-05 1.09074e-20 0)
(-3.8229e-05 -1.66059e-05 2.81102e-21 5.48287e-05 -7.77192e-21 0)
(-2.75799e-05 -1.11375e-06 0 7.00846e-05 0 0)
(-7.39018e-07 -3.92413e-07 -5.33009e-23 6.6456e-08 -1.00232e-20 -1.14729e-37)
(-3.60785e-05 -3.61289e-05 -2.07825e-20 4.75709e-05 1.44294e-20 0)
(-8.04256e-05 -5.00414e-05 2.214e-20 6.70584e-05 -1.30138e-20 0)
(-0.000195664 -2.71911e-05 -1.23598e-20 6.34206e-05 -3.17817e-21 0)
(0.00116942 0.000305423 3.0123e-19 -0.000453886 3.11164e-19 0)
(7.26968e-05 -1.37564e-05 2.17052e-20 -2.56518e-05 1.2063e-21 0)
(-0.000302317 -0.000115795 8.52583e-20 8.63337e-05 -5.0184e-20 0)
(-0.000100008 -0.000123326 -2.66752e-20 1.21118e-05 -9.18758e-20 0)
(-8.53525e-05 -4.58803e-05 1.98136e-20 7.02787e-05 -8.14441e-21 0)
(0.00108782 0.000222298 -1.10456e-19 -0.000763873 -1.97217e-19 0)
(-9.05357e-06 -3.85355e-05 2.22053e-20 1.99231e-05 -5.82811e-21 0)
(-9.86975e-05 -2.9216e-05 4.34671e-21 6.32054e-05 -1.33976e-20 0)
(-8.60816e-06 -2.89241e-06 4.83331e-21 2.81586e-05 -1.67991e-20 5.83922e-36)
(-9.86458e-05 -2.33939e-05 -1.1135e-20 5.7128e-05 3.72706e-21 0)
(-0.000103863 -1.72816e-05 -1.85312e-20 5.68909e-05 6.17435e-21 0)
(0.00014014 -8.08648e-05 2.02601e-20 -4.32685e-05 5.1695e-21 0)
(-0.000153516 0.000129052 3.17222e-21 3.10695e-05 4.90511e-20 0)
(-1.48202e-05 -9.88808e-05 -2.43641e-20 2.88944e-05 3.45786e-21 0)
(3.55028e-06 -6.31327e-06 -3.11398e-21 2.17878e-06 -3.43138e-21 0)
(-3.16941e-05 -3.53574e-06 6.00106e-21 6.6892e-05 -1.96916e-20 0)
(1.14089e-06 -8.76031e-07 1.77399e-21 8.77713e-07 4.07137e-21 0)
(-1.52348e-05 -4.77341e-05 -1.26277e-20 3.13859e-05 6.92642e-21 0)
(-0.000108653 8.21212e-06 -1.82638e-20 2.73549e-05 1.12554e-20 0)
(0.000805106 0.000271011 1.85001e-19 -0.000330489 3.00721e-20 0)
(0.000230369 -0.000195906 2.87175e-19 -0.000210233 6.77676e-21 0)
(0.000175821 -4.94274e-05 -6.32671e-20 -8.23038e-05 -1.74687e-20 0)
(4.19242e-05 -2.25656e-05 2.96971e-20 -2.62739e-05 1.30979e-21 0)
(3.74527e-05 0.000118353 -2.14349e-21 -0.000226942 2.24971e-20 0)
(1.40443e-05 0.00011196 7.34458e-21 -0.000181016 -2.33487e-20 0)
(-8.10803e-05 -5.95014e-05 3.57248e-20 5.97444e-05 -1.53404e-20 0)
(3.52839e-05 -3.10393e-05 -9.78484e-21 -1.19901e-05 -1.71475e-21 0)
(-0.000112471 -6.6281e-05 -3.65668e-20 6.47064e-05 1.18917e-20 0)
(0.000328047 0.000131459 -3.04148e-20 -2.13275e-05 -1.23248e-20 0)
(-8.75635e-05 -5.56011e-05 -1.71331e-20 6.99919e-05 7.6055e-21 0)
(8.33007e-05 -2.81512e-05 9.36996e-23 -2.97255e-05 3.1975e-21 0)
(-1.75978e-05 -4.68717e-05 -1.68789e-21 3.12285e-05 -8.36168e-22 0)
(-8.17748e-05 -6.88233e-05 3.62954e-20 5.83421e-05 -1.08073e-20 0)
(8.59986e-07 1.45749e-05 5.045e-21 -0.00010673 -1.85656e-20 0)
(0.000583404 -5.11516e-05 -1.76587e-19 -0.000244638 -7.75265e-20 0)
(-0.000102395 -1.7112e-05 1.01344e-20 6.06115e-05 2.19046e-21 0)
(2.77646e-05 -3.91438e-05 1.28729e-20 -6.6451e-06 -2.84599e-21 0)
(-0.000104343 4.59483e-06 2.17493e-20 1.81096e-05 -8.84133e-21 0)
(0.00012336 -0.000142665 2.69912e-20 -3.07081e-05 -7.747e-21 0)
(-1.85457e-05 -5.02041e-06 6.39143e-23 3.82668e-05 -1.67048e-21 0)
(-2.01562e-05 -5.55674e-05 2.28925e-20 2.74166e-05 -6.63716e-21 0)
(-2.74411e-05 -2.47517e-06 2.87701e-21 5.9853e-05 -6.29803e-21 0)
(6.40418e-07 -2.11679e-06 -2.82175e-22 -2.88089e-06 3.25858e-21 0)
(0.00014721 -8.45872e-05 1.23408e-20 -5.76092e-05 4.36549e-21 0)
(-9.47859e-05 1.83954e-06 9.40243e-21 2.40424e-05 -9.486e-21 0)
(-7.30721e-07 -3.44715e-07 -1.38928e-21 -1.56327e-06 -8.02787e-22 5.86074e-37)
(4.54357e-06 -5.06326e-05 8.66499e-22 1.15083e-05 -1.53206e-21 0)
(0.000457324 0.000216588 -1.40579e-19 -0.000176348 -3.85444e-20 0)
(-3.31168e-06 -6.98981e-05 5.23264e-21 2.75578e-05 -6.96279e-22 0)
(-4.65243e-05 -7.51424e-05 -2.70212e-20 5.20576e-05 9.11194e-21 0)
(-9.36934e-06 -6.63288e-05 2.09988e-20 3.69834e-05 -6.64832e-21 0)
(-2.98086e-05 -7.42981e-07 0 6.19217e-05 0 0)
(0.000250347 3.56884e-05 -4.07829e-20 -0.00015532 4.52716e-20 -2.19726e-35)
(3.32712e-05 -6.94731e-05 1.56316e-20 -6.26047e-06 -3.19942e-21 0)
(2.6148e-05 -8.36491e-05 -1.46401e-20 3.5243e-06 5.28352e-23 0)
(-6.93555e-07 -7.25127e-05 -7.92924e-22 2.00481e-05 -2.57441e-21 0)
(0.0013866 -3.28368e-05 -3.71268e-20 -0.000204311 1.82134e-21 0)
(-0.000100053 -3.77611e-06 -1.18519e-20 4.8458e-05 1.01383e-20 0)
(0.00047797 2.38144e-05 1.48644e-19 -0.000184032 1.64876e-20 1.72075e-35)
(-6.92888e-05 -6.76486e-05 2.89718e-20 5.45695e-05 -7.10042e-21 0)
(0.00087376 0.000164987 -8.83662e-21 -0.000934397 -1.42698e-19 0)
(-7.88579e-05 0.000109757 -1.89258e-20 -0.000139516 7.10375e-20 0)
(0.000709773 0.000214239 8.77756e-20 -0.000385786 1.62399e-19 0)
(3.04317e-05 -8.66614e-05 0 -4.07446e-07 0 0)
(0.00025904 -0.00014404 3.65222e-20 -0.000110945 9.03094e-20 0)
(0.000386115 -0.000191318 -1.29149e-19 -0.000530658 -1.14852e-19 0)
(-9.04172e-06 -3.84171e-05 6.79425e-21 2.94582e-05 -2.37241e-21 0)
(-4.26159e-05 -4.37538e-05 7.24911e-21 4.6586e-05 -6.51581e-21 0)
(-3.58254e-05 -4.73566e-05 3.05274e-21 4.87815e-05 -6.77913e-21 0)
(-0.000100694 7.64302e-07 7.17142e-21 2.25807e-05 -2.92526e-21 0)
(-0.000100432 -7.43085e-06 0 4.58876e-05 0 0)
(-1.45548e-05 -5.18677e-05 -3.55111e-21 3.37507e-05 -2.54623e-21 0)
(-1.02636e-05 -1.49381e-05 -1.01833e-20 3.12806e-05 1.51954e-20 0)
(-5.16858e-05 -8.42717e-05 -2.58794e-20 4.5724e-05 7.96449e-21 0)
(-9.82505e-05 -1.94794e-05 1.57636e-20 5.5899e-05 -6.57194e-21 0)
(-2.4273e-05 -3.95707e-06 3.03647e-21 6.65456e-05 -2.94087e-21 0)
(-4.05568e-06 -2.88597e-06 3.62367e-21 1.01392e-06 1.74015e-20 0)
(5.13945e-05 -4.20133e-05 8.95112e-22 -1.43658e-05 8.68666e-22 0)
(-5.51542e-05 -1.46686e-06 5.11547e-22 6.18097e-05 6.85998e-21 0)
(-8.59812e-06 -1.43464e-05 -6.62837e-21 1.98071e-05 2.94041e-21 0)
(-1.23819e-05 -0.000103366 1.31749e-21 3.32068e-05 -7.19502e-22 0)
(-1.48293e-05 -1.97763e-05 -2.35431e-21 3.0212e-05 1.25363e-21 0)
(-4.82124e-05 -5.33805e-05 2.77651e-20 4.68786e-05 -2.47092e-21 0)
(0.000481421 3.5826e-05 0 -0.000305017 0 0)
(0.00055494 8.31574e-05 -2.27507e-19 -0.000248257 -2.5153e-19 0)
(-3.33977e-05 -0.000110422 -6.55207e-20 4.5894e-05 1.64705e-20 0)
(-0.00010403 2.15878e-06 1.04833e-20 2.63458e-05 -4.2421e-21 0)
(-2.60437e-05 -9.12482e-05 6.01183e-20 4.61519e-05 -1.78956e-20 0)
(-1.72125e-05 -0.000102437 0 4.09135e-05 0 0)
(-9.57303e-05 -1.15365e-05 -2.22093e-21 4.31587e-05 1.93298e-21 0)
(-2.2626e-05 -1.87322e-05 7.5107e-21 5.07961e-05 -6.82845e-21 0)
(-1.12604e-06 -1.38452e-05 -6.67701e-21 1.31094e-05 4.8705e-22 0)
(3.68794e-05 7.5254e-05 1.43325e-20 -0.000154404 -2.048e-20 0)
(4.4616e-05 -1.25249e-06 -1.17525e-20 -2.17114e-05 1.63627e-21 1.75274e-36)
(-2.74535e-05 -2.64584e-06 1.00621e-21 6.732e-05 -2.0052e-21 0)
(-1.06516e-06 -9.61796e-07 -2.75032e-21 6.32818e-10 8.19401e-21 0)
(-5.16578e-05 -1.61803e-05 -8.0221e-22 5.92639e-05 -3.5742e-22 0)
(4.23409e-05 8.72276e-05 -2.5634e-21 -0.000236272 -5.26863e-20 0)
(-9.30421e-05 -4.26327e-05 -1.19562e-20 6.56571e-05 3.66441e-21 0)
(0.000323172 -0.000128189 1.66201e-19 -0.000128366 3.02026e-20 0)
(-2.52165e-05 -1.95234e-05 -5.87029e-21 5.05901e-05 4.58726e-21 0)
(2.97257e-06 -1.58453e-05 -5.58358e-21 1.02118e-05 3.15671e-21 0)
(-5.47156e-05 -0.000110348 2.36446e-20 4.42521e-05 3.2017e-21 0)
(6.96822e-06 9.69381e-05 -2.60815e-21 -0.000149959 -1.88949e-20 0)
(2.54683e-05 -0.000110459 1.52793e-20 1.89511e-05 -3.87622e-21 0)
(-0.00012475 -4.30141e-05 -2.77591e-20 6.1699e-05 7.43866e-21 0)
(-7.67587e-05 -2.9524e-05 6.80042e-21 6.82443e-05 -1.56955e-20 0)
(4.9602e-05 -5.58088e-05 8.65753e-21 -9.216e-06 -2.79734e-21 0)
(3.06579e-05 -7.15378e-05 1.58949e-21 1.07785e-06 -2.96225e-21 0)
(-0.00098883 -0.000347828 2.24831e-19 8.14585e-06 -2.0971e-20 0)
(-7.28455e-05 -7.01585e-05 3.16676e-20 6.15763e-05 -8.74279e-21 0)
(4.31982e-05 7.29579e-05 5.13365e-21 -0.00018758 -4.10707e-20 0)
(-6.90504e-05 3.75515e-05 -5.89464e-21 -1.46356e-05 9.13867e-21 0)
(-2.44137e-05 -2.15951e-05 1.24617e-20 4.7269e-05 -9.78623e-21 0)
(-0.000169137 2.31904e-05 7.76875e-20 4.5157e-05 -4.23476e-20 0)
(5.91389e-08 -7.41221e-05 1.33372e-20 2.2258e-05 -7.4989e-22 0)
(2.57453e-05 -4.32206e-05 -1.37558e-20 -8.84115e-06 4.67642e-21 0)
(4.04495e-05 -5.75346e-05 1.81722e-20 -1.75976e-05 5.08431e-21 0)
(-2.16048e-05 0.000283624 0 -0.000172489 0 0)
(0.000249531 -0.000300881 1.92563e-19 -0.000470349 -1.45592e-19 0)
(-5.71158e-05 -7.81852e-05 -1.15317e-21 5.10915e-05 2.89903e-21 0)
(-0.000257334 -5.53901e-06 -9.72052e-20 5.85413e-05 -4.99502e-20 0)
(-0.000173567 2.70524e-06 -4.82275e-20 6.87859e-05 7.13085e-21 0)
(0.000808685 9.28665e-05 -2.42638e-19 1.51216e-05 -1.11825e-19 0)
(0.000418195 -0.000617324 1.56489e-20 -0.000819613 1.0725e-20 0)
(-3.2268e-05 0.000115057 6.66893e-21 -7.52692e-05 -5.24692e-20 0)
(-2.72825e-06 -2.11913e-05 -3.72321e-21 8.60144e-06 -1.03543e-21 0)
(1.8855e-05 -3.8678e-05 4.6202e-22 -3.71101e-06 7.86747e-23 0)
(4.79509e-05 -0.000129072 -4.89509e-20 -2.84686e-06 -1.11239e-20 0)
(5.98809e-05 -0.000120857 -3.27906e-20 -2.12756e-06 -1.0899e-21 0)
(-2.62202e-05 -7.40369e-05 -1.31026e-20 3.10819e-05 3.57034e-21 0)
(0.000109781 0.000169817 -1.38016e-20 2.37105e-05 1.39612e-19 0)
(0.00029232 -0.000140521 2.45807e-20 -0.000309743 -8.17007e-20 0)
(-9.06197e-05 -2.60302e-05 5.57497e-21 6.83671e-05 -7.02301e-21 0)
(-3.04681e-05 -2.39151e-06 -3.3131e-21 7.2359e-05 7.70612e-21 0)
(1.42811e-08 -6.27368e-07 -5.22894e-21 -3.31126e-07 -7.28677e-21 0)
(-3.67546e-06 -1.92535e-05 0 7.51574e-06 0 0)
(-0.000111769 -2.48539e-05 -2.10728e-20 5.03547e-05 6.71531e-21 0)
(-0.000923501 -0.000539093 6.23601e-20 -7.52778e-05 -1.00329e-19 0)
(-0.000141396 -4.50064e-05 5.42077e-20 6.78289e-05 4.30599e-20 0)
(-5.48554e-05 -6.75607e-05 2.8114e-20 5.11855e-05 -9.75153e-21 0)
(-5.83485e-05 -7.21824e-05 5.00102e-22 5.51206e-05 2.86243e-21 0)
(-7.36726e-05 -5.98988e-05 9.00784e-21 6.42513e-05 5.46848e-21 0)
(7.42377e-07 -6.80297e-07 0 3.34672e-07 0 0)
(-6.37195e-05 6.0801e-05 -8.4684e-22 -2.46451e-05 5.31858e-21 0)
(-1.27279e-05 -2.34699e-05 3.64787e-22 3.73044e-05 1.36146e-21 0)
(-0.00011137 -2.74889e-05 3.60652e-20 5.57776e-05 -1.13277e-20 0)
(-1.65573e-05 -1.99799e-06 -1.48036e-21 4.47055e-05 -3.20242e-21 -8.0626e-37)
(0.00145111 -0.0003466 6.09429e-20 -0.000914055 -1.14295e-19 0)
(-4.27932e-06 -2.14839e-05 -8.35652e-22 1.17352e-05 -3.70283e-22 0)
(-2.86785e-05 -1.64045e-06 3.88916e-21 6.52534e-05 1.2741e-20 0)
(0.000857185 -0.000237243 -4.83135e-19 -0.00112564 -2.58529e-19 0)
(-4.59493e-05 -3.19278e-05 1.10502e-20 5.32341e-05 -1.43529e-21 0)
(-2.62292e-05 -1.8489e-05 -4.89695e-21 5.25267e-05 3.98817e-21 0)
(0.000591028 9.50469e-06 -1.08093e-19 -0.000251262 -3.20548e-20 1.61189e-35)
(-0.000973451 0.000435493 0 0.000196574 0 0)
(-2.82335e-05 -3.84398e-05 2.1439e-20 4.46785e-05 -9.60114e-21 0)
(-8.07337e-05 4.49392e-05 0 -3.23013e-05 0 0)
(7.33236e-05 -6.22372e-05 -9.67433e-21 -2.83868e-05 -4.36459e-21 0)
(9.53934e-05 -0.000111466 -5.37548e-20 -2.21133e-05 -5.18565e-21 0)
(-8.46879e-06 -4.72254e-05 1.3507e-20 2.37749e-05 -2.92455e-21 0)
(-8.30774e-06 -4.82945e-05 8.10692e-21 2.6953e-05 -2.93591e-21 0)
(-1.34881e-05 -7.78926e-05 1.31857e-20 3.06339e-05 -8.63699e-21 0)
(8.58737e-05 0.000117239 -7.71161e-20 -0.000102901 -5.48271e-20 0)
(5.40358e-05 -1.48806e-05 -6.66964e-21 -1.52741e-05 -5.88619e-21 0)
(-9.72733e-05 -1.50156e-06 9.88032e-21 3.21e-05 -3.05732e-21 0)
(8.2707e-05 -6.53091e-05 7.28168e-21 -2.16006e-05 -1.70795e-21 0)
(-0.000146206 5.9221e-05 -9.04648e-21 3.00784e-05 -3.83908e-20 0)
(-6.22261e-06 -6.66704e-05 0 2.67553e-05 0 0)
(0.000428598 -6.03299e-05 0 -0.000179532 0 0)
(-9.40863e-05 -1.68257e-05 8.56875e-21 6.19091e-05 2.98892e-21 0)
(0.000484042 0.000109617 -7.84392e-20 -0.000262696 1.87159e-19 0)
(-5.8191e-05 -9.64843e-05 4.97247e-20 5.91066e-05 -1.28759e-20 0)
(-6.95886e-05 -3.51687e-05 1.52544e-20 6.28383e-05 1.03277e-21 0)
(-7.11716e-05 -2.95849e-05 2.10926e-20 6.94333e-05 -5.82687e-21 0)
(0.000462261 0.000334922 -1.46726e-19 -0.000280618 -4.96156e-20 0)
(0.000114304 -9.27473e-05 -2.96046e-20 -3.06761e-05 -4.61565e-21 0)
(0.000105536 -9.30853e-05 1.02529e-20 -4.81559e-05 2.11206e-21 0)
(-2.213e-05 -4.28824e-05 7.73402e-21 3.69144e-05 -6.18095e-21 0)
(0.00263224 -0.000370471 3.92536e-19 -0.00234439 -3.43308e-19 0)
(-6.41567e-05 -9.43611e-05 -2.62201e-20 5.18103e-05 2.53203e-21 0)
(-4.04686e-05 -4.12746e-05 -4.4139e-21 5.39895e-05 -1.46185e-21 0)
(-0.000124249 -4.42067e-05 1.49898e-20 6.3545e-05 -2.21093e-20 0)
(-2.99039e-05 -1.25399e-06 7.01289e-21 7.43116e-05 -1.22351e-20 0)
(-1.28512e-07 -1.97394e-07 -7.8246e-22 -4.33736e-07 -4.09543e-21 0)
(-5.94258e-05 -0.000192784 -1.31685e-19 -0.000223306 1.84191e-21 0)
(4.02923e-05 -0.000106509 -2.16014e-20 -8.34569e-06 -7.83123e-22 0)
(-5.95121e-05 -8.0438e-05 -2.92133e-21 5.4083e-05 5.20945e-22 0)
(-8.51492e-05 6.33678e-05 -4.9639e-21 -6.29422e-05 2.71225e-20 0)
(8.40156e-05 -3.5978e-06 -1.89123e-20 -2.96805e-05 1.55179e-21 9.32613e-37)
(-6.62946e-05 -0.000295716 1.95736e-19 -0.00015435 2.93774e-20 0)
(-8.99399e-05 -0.000408109 -7.79038e-22 -0.000354587 9.75854e-20 0)
(-3.51101e-05 0.000153732 0 -0.000107516 0 0)
(-0.00018368 4.74095e-05 5.17467e-20 2.72147e-05 -5.83045e-21 0)
(-3.6132e-05 -0.000101069 3.43069e-21 4.30912e-05 -4.98921e-21 0)
(5.29926e-06 -3.89354e-05 -8.12209e-21 6.3031e-07 1.67702e-21 0)
(5.852e-06 -0.00012997 -1.06256e-20 3.96454e-05 7.20748e-21 0)
(-3.3258e-05 -0.000122481 -7.51607e-21 3.08373e-05 9.32554e-22 0)
(5.17395e-06 -6.70637e-06 5.93817e-21 -1.13986e-06 2.30939e-21 0)
(0.00462518 -0.000249246 1.01174e-18 -0.00390477 6.68249e-19 0)
(-0.000198336 5.22735e-05 5.84612e-21 6.12188e-05 -1.04433e-19 0)
(-1.10295e-05 -1.16541e-05 1.54088e-20 2.67169e-05 -6.41446e-21 0)
(-0.000201144 6.18838e-05 4.29184e-20 2.92292e-05 -7.31046e-20 0)
(7.12338e-05 -3.93966e-05 -1.20017e-20 -2.73215e-05 4.52836e-21 0)
(-2.20076e-05 -4.11654e-05 -1.28847e-20 4.12295e-05 7.05973e-21 0)
(0.00080576 0.000300568 2.13639e-19 -0.000212504 1.88969e-19 0)