/*--------------------------------*- C++ -*----------------------------------*\
| =========                 |                                                 |
| \\      /  F ield         | OpenFOAM: The Open Source CFD Toolbox           |
|  \\    /   O peration     | Version:  v2012                                 |
|   \\  /    A nd           | Website:  www.openfoam.com                      |
|    \\/     M anipulation  |                                                 |
\*---------------------------------------------------------------------------*/
FoamFile
{
    version     2.0;
    format      ascii;
    class       pointVectorField;
    location    "20";
    object      pointD;
}
// * * * * * * * * * * * * * * * * * * * * * * * * * * * * * * * * * * * * * //

dimensions      [0 1 0 0 0 0 0];


internalField   nonuniform List<vector> 
2014
(
(0.000515368 0 6.84986e-22)
(0.000438844 0 3.62047e-23)
(0.000394859 3.48477e-05 3.25109e-23)
(0 -0.000580832 8.71551e-22)
(0 0.000274695 0)
(0.000515368 0 6.84986e-22)
(0.000438844 0 3.62047e-23)
(0.000394859 3.48477e-05 3.25109e-23)
(0 -0.000580832 8.71551e-22)
(0 0.000274695 0)
(0.000518505 0 0)
(0.000520569 0 0)
(0.000520987 0 0)
(0.000520116 0 0)
(0.000517833 0 0)
(0.000514789 0 0)
(0.000510832 0 0)
(0.000506425 0 0)
(0.000501662 0 0)
(0.000496329 0 0)
(0.000491316 0 0)
(0.000486751 0 0)
(0.000482117 0 0)
(0.000477617 0 0)
(0.000473514 0 0)
(0.000469636 0 0)
(0.000465647 0 0)
(0.000462102 0 0)
(0.000459282 0 0)
(0.000456488 0 0)
(0.000453987 0 0)
(0.000451682 0 0)
(0.000449423 0 0)
(0.000447581 0 0)
(0.000446058 0 0)
(0.000444548 0 0)
(0.000442919 0 0)
(0.000441406 0 0)
(0.000440068 0 0)
(0.000438091 4.15086e-06 -7.56021e-23)
(0.000437432 7.95302e-06 -1.11807e-22)
(0.000436323 1.15367e-05 -8.69938e-24)
(0.000434818 1.49474e-05 1.33797e-22)
(0.000432837 1.84877e-05 -3.81509e-23)
(0.000430547 2.16153e-05 -1.11297e-22)
(0.000428158 2.42592e-05 -1.82628e-23)
(0.00042547 2.66864e-05 -4.65211e-23)
(0.000422307 2.89973e-05 1.37271e-22)
(0.000419114 3.09776e-05 2.00777e-22)
(0.000416271 3.24196e-05 -7.24002e-23)
(0.000413104 3.37319e-05 -6.46893e-24)
(0.000409955 3.46424e-05 3.20383e-23)
(0.000407292 3.51519e-05 -5.14856e-23)
(0.000404544 3.54281e-05 2.94192e-22)
(0.000402003 3.54994e-05 1.58379e-22)
(0.000399913 3.55046e-05 -4.60261e-23)
(0.000398012 3.5426e-05 1.79709e-23)
(0.00039624 3.53705e-05 6.34885e-23)
(0.00039436 3.35504e-05 -1.57875e-23)
(0.000394386 3.19426e-05 5.2702e-23)
(0.000394402 3.03417e-05 2.20918e-23)
(0.000394512 2.90207e-05 -3.06102e-23)
(0.000394549 2.79892e-05 -2.27412e-23)
(0.000394228 2.72211e-05 -7.58365e-24)
(0.000393743 2.67282e-05 2.38817e-23)
(0.00039289 2.64279e-05 1.8331e-23)
(0.000391555 2.63402e-05 -6.26434e-24)
(0.000389964 2.63958e-05 -1.14022e-22)
(0.00038774 2.65825e-05 -1.03458e-22)
(0.000385164 2.68061e-05 9.24474e-23)
(0.00038172 2.70048e-05 5.29425e-23)
(0.000377786 2.72019e-05 -5.10266e-23)
(0.000372705 2.72662e-05 -8.68471e-23)
(0.000367218 2.6883e-05 -8.06326e-23)
(0.000361269 2.63442e-05 7.04868e-23)
(0.000353976 2.55387e-05 1.93469e-22)
(0.000346429 2.40788e-05 -1.699e-22)
(0.000335627 2.14192e-05 -7.94797e-22)
(0.000323418 1.79194e-05 -2.96334e-22)
(0.000311654 1.37481e-05 2.4308e-22)
(0.000297465 8.37216e-06 3.74983e-23)
(0.000281674 1.13779e-06 -2.35936e-22)
(0.000264615 -8.16644e-06 -6.04535e-22)
(0.000245313 -1.94491e-05 -1.55662e-22)
(0.000222489 -3.43059e-05 -5.10132e-22)
(0.00019515 -5.31079e-05 -3.40644e-22)
(0.000166166 -7.65704e-05 3.82425e-22)
(0.000135803 -0.000105698 -3.19016e-22)
(0.000103736 -0.00014068 1.49841e-21)
(6.96144e-05 -0.000185424 3.66231e-21)
(3.46281e-05 -0.000238671 7.02778e-22)
(4.15896e-06 -0.000298358 -2.12461e-21)
(-1.97688e-05 -0.000368803 -3.44996e-21)
(-3.23573e-05 -0.000436661 1.45996e-21)
(-3.42848e-05 -0.000492578 1.24487e-23)
(-2.8591e-05 -0.000536815 -4.84733e-21)
(-1.82253e-05 -0.000565832 -6.08012e-23)
(0 -0.000583765 0)
(0 -0.000581771 0)
(0 -0.000582027 0)
(0 -0.000583078 0)
(0 -0.000582316 0)
(0 -0.000565574 0)
(0 -0.000490762 0)
(0 -0.000285773 0)
(0 -2.28867e-06 0)
(0.000270956 0.000305969 -1.40745e-20)
(0.00051115 0.000102168 -1.46879e-21)
(0.000640274 -0.000123185 1.31525e-20)
(0.000658939 -0.000251661 4.74274e-22)
(0.000618003 -0.000230238 -1.35596e-21)
(0.000593931 -0.000194665 -7.1437e-22)
(0.000571662 -0.000160984 1.20898e-21)
(0.000554692 -0.000130938 1.06852e-21)
(0.000543958 -0.00010856 4.28591e-22)
(0.000535378 -8.85058e-05 -5.41172e-22)
(0.000528651 -7.10084e-05 -2.85687e-22)
(0.000522962 -5.36654e-05 3.98886e-22)
(0.000518305 -3.77157e-05 -1.2985e-22)
(0.000515766 -2.50765e-05 -2.7912e-22)
(0.000514476 -1.33746e-05 6.7785e-22)
(0.000518505 0 0)
(0.000520569 0 0)
(0.000520987 0 0)
(0.000520116 0 0)
(0.000517833 0 0)
(0.000514789 0 0)
(0.000510832 0 0)
(0.000506425 0 0)
(0.000501662 0 0)
(0.000496329 0 0)
(0.000491316 0 0)
(0.000486751 0 0)
(0.000482117 0 0)
(0.000477617 0 0)
(0.000473514 0 0)
(0.000469636 0 0)
(0.000465647 0 0)
(0.000462102 0 0)
(0.000459282 0 0)
(0.000456488 0 0)
(0.000453987 0 0)
(0.000451682 0 0)
(0.000449423 0 0)
(0.000447581 0 0)
(0.000446058 0 0)
(0.000444548 0 0)
(0.000442919 0 0)
(0.000441406 0 0)
(0.000440068 0 0)
(0.000438091 4.15086e-06 -7.56021e-23)
(0.000437432 7.95302e-06 -1.11807e-22)
(0.000436323 1.15367e-05 -8.69938e-24)
(0.000434818 1.49474e-05 1.33797e-22)
(0.000432837 1.84877e-05 -3.81509e-23)
(0.000430547 2.16153e-05 -1.11297e-22)
(0.000428158 2.42592e-05 -1.82628e-23)
(0.00042547 2.66864e-05 -4.65211e-23)
(0.000422307 2.89973e-05 1.37271e-22)
(0.000419114 3.09776e-05 2.00777e-22)
(0.000416271 3.24196e-05 -7.24002e-23)
(0.000413104 3.37319e-05 -6.46893e-24)
(0.000409955 3.46424e-05 3.20383e-23)
(0.000407292 3.51519e-05 -5.14856e-23)
(0.000404544 3.54281e-05 2.94192e-22)
(0.000402003 3.54994e-05 1.58379e-22)
(0.000399913 3.55046e-05 -4.60261e-23)
(0.000398012 3.5426e-05 1.79709e-23)
(0.00039624 3.53705e-05 6.34885e-23)
(0.00039436 3.35504e-05 -1.57875e-23)
(0.000394386 3.19426e-05 5.2702e-23)
(0.000394402 3.03417e-05 2.20918e-23)
(0.000394512 2.90207e-05 -3.06102e-23)
(0.000394549 2.79892e-05 -2.27412e-23)
(0.000394228 2.72211e-05 -7.58365e-24)
(0.000393743 2.67282e-05 2.38817e-23)
(0.00039289 2.64279e-05 1.8331e-23)
(0.000391555 2.63402e-05 -6.26434e-24)
(0.000389964 2.63958e-05 -1.14022e-22)
(0.00038774 2.65825e-05 -1.03458e-22)
(0.000385164 2.68061e-05 9.24474e-23)
(0.00038172 2.70048e-05 5.29425e-23)
(0.000377786 2.72019e-05 -5.10266e-23)
(0.000372705 2.72662e-05 -8.68471e-23)
(0.000367218 2.6883e-05 -8.06326e-23)
(0.000361269 2.63442e-05 7.04868e-23)
(0.000353976 2.55387e-05 1.93469e-22)
(0.000346429 2.40788e-05 -1.699e-22)
(0.000335627 2.14192e-05 -7.94797e-22)
(0.000323418 1.79194e-05 -2.96334e-22)
(0.000311654 1.37481e-05 2.4308e-22)
(0.000297465 8.37216e-06 3.74983e-23)
(0.000281674 1.13779e-06 -2.35936e-22)
(0.000264615 -8.16644e-06 -6.04535e-22)
(0.000245313 -1.94491e-05 -1.55662e-22)
(0.000222489 -3.43059e-05 -5.10132e-22)
(0.00019515 -5.31079e-05 -3.40644e-22)
(0.000166166 -7.65704e-05 3.82425e-22)
(0.000135803 -0.000105698 -3.19016e-22)
(0.000103736 -0.00014068 1.49841e-21)
(6.96144e-05 -0.000185424 3.66231e-21)
(3.46281e-05 -0.000238671 7.02778e-22)
(4.15896e-06 -0.000298358 -2.12461e-21)
(-1.97688e-05 -0.000368803 -3.44996e-21)
(-3.23573e-05 -0.000436661 1.45996e-21)
(-3.42848e-05 -0.000492578 1.24487e-23)
(-2.8591e-05 -0.000536815 -4.84733e-21)
(-1.82253e-05 -0.000565832 -6.08012e-23)
(0 -0.000583765 0)
(0 -0.000581771 0)
(0 -0.000582027 0)
(0 -0.000583078 0)
(0 -0.000582316 0)
(0 -0.000565574 0)
(0 -0.000490762 0)
(0 -0.000285773 0)
(0 -2.28867e-06 0)
(0.000270956 0.000305969 -1.40745e-20)
(0.00051115 0.000102168 -1.46879e-21)
(0.000640274 -0.000123185 1.31525e-20)
(0.000658939 -0.000251661 4.74274e-22)
(0.000618003 -0.000230238 -1.35596e-21)
(0.000593931 -0.000194665 -7.1437e-22)
(0.000571662 -0.000160984 1.20898e-21)
(0.000554692 -0.000130938 1.06852e-21)
(0.000543958 -0.00010856 4.28591e-22)
(0.000535378 -8.85058e-05 -5.41172e-22)
(0.000528651 -7.10084e-05 -2.85687e-22)
(0.000522962 -5.36654e-05 3.98886e-22)
(0.000518305 -3.77157e-05 -1.2985e-22)
(0.000515766 -2.50765e-05 -2.7912e-22)
(0.000514476 -1.33746e-05 6.7785e-22)
(0.000450674 2.10745e-05 0)
(0.000426473 2.60237e-05 0)
(0.000406932 -3.54745e-05 0)
(0.000405383 3.56062e-05 0)
(0.000459844 2.14856e-05 0)
(0.000407129 2.72882e-05 0)
(0.000437843 1.56755e-05 0)
(0.000323236 -0.000211612 0)
(0.00051113 -8.86607e-06 0)
(0.000365551 2.05647e-05 0)
(0.000399008 3.10896e-05 0)
(0.000451706 1.56379e-05 0)
(0.000489621 1.13385e-05 0)
(0.000508828 -4.02323e-05 0)
(0.000422335 2.36627e-05 0)
(0.000370665 3.45648e-05 0)
(0.000439547 3.03812e-05 0)
(0.000431643 2.93614e-05 0)
(0.000271278 -0.000102064 0)
(0.000488721 -0.000115916 0)
(0.000383764 3.35343e-05 0)
(0.00039792 2.80637e-05 0)
(0.000301018 -1.52203e-05 0)
(0.000451627 -1.0859e-06 0)
(0.0004404 9.99538e-06 0)
(0.000401053 2.96203e-05 0)
(0.000449088 9.61546e-06 0)
(0.000467757 1.1355e-05 0)
(0.000409842 2.79942e-05 0)
(9.18719e-05 -0.000456954 0)
(0.000429135 2.16449e-05 0)
(0.000414195 3.30558e-05 0)
(0.000482418 1.00003e-05 0)
(0.000383142 -0.000327584 0)
(0.000508524 9.95239e-07 0)
(0.000430961 1.93217e-05 0)
(0.000411174 2.82632e-05 0)
(0.00048501 1.0814e-05 0)
(0.000522167 -1.75115e-05 0)
(0.000440842 1.75454e-05 0)
(0.000524375 -3.63558e-05 0)
(0.000410486 3.27811e-05 0)
(0.000485076 -1.29734e-06 0)
(0.000440956 2.31072e-05 0)
(0.000336652 2.56217e-05 0)
(0.000161113 -0.000239146 0)
(0.000466662 2.17266e-05 0)
(0.000367572 3.31218e-05 0)
(0.000397805 2.76653e-05 0)
(0.00053268 -9.14404e-05 0)
(0.000445624 7.34512e-06 0)
(0.000417347 2.5378e-05 0)
(0.000387506 3.05656e-05 0)
(0.000461027 8.51105e-06 0)
(0.000388281 1.44805e-06 0)
(0.000415158 2.2616e-05 0)
(0.00030293 8.19223e-06 0)
(0.000383815 -0.000111916 0)
(0.000455057 1.91591e-05 0)
(0.000532206 -0.000184803 0)
(0.000495027 6.31052e-06 0)
(0.000415913 2.92958e-05 0)
(0.000427536 3.26447e-05 0)
(0.000474614 -4.76311e-05 0)
(0.000380822 3.17755e-05 0)
(0.000232341 -5.99597e-05 0)
(0.000459567 2.35254e-05 0)
(0.000395957 3.64794e-05 0)
(0.000391648 2.83756e-05 0)
(0.000122971 -0.000481664 0)
(0.000423371 2.44011e-05 0)
(0.000532891 -6.79398e-05 0)
(0.000344 2.88817e-05 0)
(0.000455067 7.08e-06 0)
(0.000430111 2.01888e-05 0)
(0.000434988 1.57039e-05 0)
(0.000405391 3.06245e-05 0)
(0.000340339 -3.96123e-05 0)
(0.000445976 2.78677e-05 0)
(0.00051827 -5.39505e-06 0)
(0.000386227 3.57606e-05 0)
(0.000447149 2.51803e-05 0)
(0.000476862 7.15826e-06 0)
(0.000473558 1.69235e-05 0)
(0.0004404 6.014e-06 0)
(0.000397641 3.20105e-05 0)
(0.000397131 3.32712e-05 0)
(0.000415423 2.58058e-05 0)
(0.000436873 2.19468e-05 0)
(0.000418884 3.46746e-05 0)
(0.000425348 2.86524e-05 0)
(0.00041625 2.82127e-05 0)
(0.00050174 2.91183e-06 0)
(0.000401867 2.90635e-05 0)
(0.000163173 -0.000155366 0)
(0.000510053 -2.39532e-05 0)
(0.000437005 1.45924e-05 0)
(0.000405761 2.83693e-05 0)
(0.000404458 2.77651e-05 0)
(0.000419683 2.60197e-05 0)
(0.000555218 -0.000138205 0)
(8.0475e-05 -0.00036251 0)
(0.000468353 1.6292e-05 0)
(1.66143e-05 -0.000547815 0)
(0.000372289 3.10048e-05 0)
(0.00027404 -0.00016337 0)
(0.000438394 -0.000150468 0)
(0.00046084 9.91057e-06 0)
(0.000473204 -2.23373e-05 0)
(0.000477111 1.70225e-05 0)
(0.000395088 2.73255e-05 0)
(0.000448942 -7.2589e-05 0)
(0.000397205 2.85442e-05 0)
(0.000439181 2.92215e-05 0)
(0.000505267 2.6895e-06 0)
(0.000444184 1.10458e-05 0)
(0.000525122 -3.54569e-05 0)
(0.000444176 5.04506e-06 0)
(0.000449722 5.0313e-06 0)
(0.000448086 1.42782e-05 0)
(0.000264453 -1.31944e-05 0)
(0.000467626 6.13551e-06 0)
(0.000342636 5.8854e-06 0)
(0.000187585 -0.000307188 0)
(0.000424965 -0.000262876 0)
(0.000436863 1.79356e-05 0)
(0.000378976 3.00482e-05 0)
(0.000432472 -1.30657e-05 0)
(0.000256896 -0.000329185 0)
(0.000459056 1.36372e-05 0)
(0.000426085 2.78534e-05 0)
(0.000415257 3.36644e-05 0)
(0.000402274 2.79082e-05 0)
(0.000520564 -1.4355e-05 0)
(0.000423248 2.33221e-05 0)
(0.000520655 -2.08799e-05 0)
(0.000514015 -5.17961e-06 0)
(0.000489773 4.513e-06 0)
(0.00049558 8.45211e-07 0)
(0.000474737 1.11729e-05 0)
(0.000429223 2.33141e-05 0)
(4.9077e-05 -0.000539863 0)
(0.000606512 -0.000251408 0)
(0.000303232 1.28192e-05 0)
(0.000441671 1.10581e-05 0)
(0.000396835 3.50442e-05 0)
(0.000437825 1.14437e-05 0)
(0.000401076 3.23358e-05 0)
(0.000443724 1.87641e-05 0)
(0.000500091 5.94235e-06 0)
(0.000395673 2.96768e-05 0)
(0.000485089 1.21748e-05 0)
(0.000381137 -6.46716e-05 0)
(0.000425333 -0.000209892 0)
(0.000388657 3.50395e-05 0)
(0.000352374 2.9582e-05 0)
(0.000427212 2.29869e-05 0)
(0.000454992 1.0966e-05 0)
(0.000193728 -0.000475029 0)
(0.000377283 3.55628e-05 0)
(0.000411709 2.68208e-05 0)
(0.000413201 1.04688e-05 0)
(0.000348597 -1.20021e-05 0)
(0.000409927 3.11129e-05 0)
(0.000492905 -1.82771e-05 0)
(0.000400427 2.77069e-05 0)
(0.000443947 1.4032e-05 0)
(0.000407218 2.97307e-05 0)
(0.000513205 -5.12247e-07 0)
(0.000335529 1.98668e-05 0)
(0.000427324 2.1431e-05 0)
(0.000360179 3.12996e-05 0)
(0.000521262 -8.75224e-06 0)
(0.000416272 2.63009e-05 0)
(0.000406978 3.14858e-05 0)
(0.000449074 1.94671e-05 0)
(0.000502338 -8.25972e-05 0)
(0.000452774 2.66237e-05 0)
(0.000530974 -5.75428e-05 0)
(0.00043293 1.81027e-05 0)
(0.000491624 9.95627e-06 0)
(0.000325212 2.21868e-05 0)
(0.00038915 3.23738e-05 0)
(0.000432003 2.56939e-05 0)
(0.000469309 1.81017e-05 0)
(0.000478626 1.65596e-05 0)
(0.000387088 2.82551e-05 0)
(0.000420885 3.1454e-05 0)
(0.000545457 -9.93779e-05 0)
(0.000522507 -4.44972e-05 0)
(0.000387384 2.61933e-05 0)
(0.000459782 4.38508e-06 0)
(0.000585697 -0.000189748 0)
(0.000392603 2.73049e-05 0)
(0.000437816 2.62294e-05 0)
(0.00017171 -0.00010611 0)
(0.000361203 3.31481e-05 0)
(9.80656e-05 -0.000250931 0)
(3.03232e-05 -0.000471164 0)
(0.000233367 -3.85628e-05 0)
(0.00036123 2.98888e-05 0)
(0.000436349 2.97788e-05 0)
(0.000510065 -5.95558e-05 0)
(0.000460135 2.33393e-05 0)
(0.000453195 4.02609e-06 0)
(0.00041633 2.78236e-05 0)
(0.000410401 2.71669e-05 0)
(0.000395274 2.73081e-05 0)
(0.000377805 3.42366e-05 0)
(0.000423093 2.411e-05 0)
(0.00043106 1.99469e-05 0)
(0.000360312 2.72618e-05 0)
(0.000460477 1.89898e-05 0)
(0.00043483 2.03187e-05 0)
(0.000437026 1.36985e-05 0)
(0.000446419 3.59259e-06 0)
(0.000279057 -5.97421e-05 0)
(0.000403377 3.14486e-05 0)
(0.000446576 2.27822e-05 0)
(0.000413012 2.62584e-05 0)
(0.000278494 -1.77257e-06 0)
(0.000482967 4.5032e-06 0)
(0.000468444 -3.26246e-06 0)
(0.000381999 1.6251e-05 0)
(0.000233535 -0.000149587 0)
(0.000399763 2.84087e-05 0)
(0.000475305 1.09268e-05 0)
(0.000515501 -2.06936e-05 0)
(0.000464906 4.16552e-06 0)
(0.000396668 3.01583e-05 0)
(0.00039194 -1.98635e-05 0)
(0.000448592 -3.23796e-05 0)
(0.000393919 3.10752e-05 0)
(0.000447517 8.47377e-06 0)
(0.000305359 4.37664e-07 0)
(0.000522025 -0.000144869 0)
(0.000124209 -0.000448752 0)
(0.000382322 2.89029e-05 0)
(0.000474132 4.82609e-06 0)
(0.000442354 3.96572e-06 0)
(0.000416042 3.08913e-05 0)
(0.000392374 3.63191e-05 0)
(0.000319326 -9.39926e-05 0)
(0.000451778 9.67139e-06 0)
(0.000437677 2.09426e-05 0)
(0.00040437 3.45281e-05 0)
(0.000419108 2.81157e-05 0)
(0.000559589 -0.000132084 0)
(0.000447457 -0.000121783 0)
(0.000371092 -0.000153797 0)
(0.0004239 3.32775e-05 0)
(0.000521493 -2.77725e-05 0)
(0.000504139 -1.0506e-05 0)
(0.000500804 2.1457e-06 0)
(0.000436173 3.09629e-05 0)
(0.000418681 3.43547e-05 0)
(0.00046217 1.57827e-05 0)
(0.00051912 -1.30143e-05 0)
(0.00044027 1.5801e-05 0)
(0.000421175 2.48846e-05 0)
(0.000446216 2.61281e-05 0)
(0.000223624 -9.33687e-05 0)
(0.000421859 2.79899e-05 0)
(0.000451977 2.49037e-05 0)
(0.000425881 3.18366e-05 0)
(0.000607346 -0.000218848 0)
(0.000464027 1.00193e-05 0)
(0.000459091 2.44664e-05 0)
(0.000413203 3.06787e-05 0)
(0.000490043 1.05418e-05 0)
(0.00048774 9.08867e-06 0)
(0.000406663 3.60706e-05 0)
(0.000440267 3.8739e-06 0)
(0.000396358 3.28796e-05 0)
(0.000442739 8.47399e-06 0)
(0.000333969 1.32328e-05 0)
(0.000405002 3.56678e-05 0)
(0.000395211 2.86188e-05 0)
(0.00041524 2.65452e-05 0)
(0.000244782 -0.000223631 0)
(0.000521539 -5.82643e-05 0)
(0.000475281 1.43621e-05 0)
(0.000431405 2.00711e-05 0)
(0.00038981 2.98423e-05 0)
(0.000346644 2.96914e-05 0)
(0.000433743 1.71165e-05 0)
(0.000408004 2.92815e-05 0)
(0.000262242 -3.33782e-05 0)
(0.000441521 2.1179e-05 0)
(7.83576e-05 -0.000543508 0)
(0.000438242 1.2803e-05 0)
(0.000403917 2.94767e-05 0)
(0.000444575 2.86231e-05 0)
(0.000502797 4.04369e-06 0)
(0.000418915 2.47508e-05 0)
(0.000494606 3.06392e-06 0)
(0.000395559 2.77483e-05 0)
(0.000389178 2.75623e-05 0)
(0.000423897 2.57529e-05 0)
(0.00038213 3.60168e-05 0)
(0.000425678 2.21964e-05 0)
(0.0004054 2.82915e-05 0)
(0.000448477 3.30114e-06 0)
(0.000185008 -7.95995e-05 0)
(0.000404773 2.74983e-05 0)
(0.000435437 1.48185e-05 0)
(0.00040324 3.29894e-05 0)
(0.000304214 -3.1435e-05 0)
(0.000402819 2.85001e-05 0)
(0.000454352 1.72959e-05 0)
(0.000489957 -4.19902e-05 0)
(0.000471783 8.18369e-06 0)
(0.000454223 2.25686e-05 0)
(0.000540246 -8.81323e-05 0)
(0.000242801 -0.000389933 0)
(0.000397821 2.76014e-05 0)
(0.000466249 1.87721e-05 0)
(0.000466915 2.12402e-05 0)
(0.000387821 3.49353e-05 0)
(0.000373947 2.96814e-05 0)
(0.000394675 3.22079e-05 0)
(0.000401405 2.83197e-05 0)
(5.08009e-05 -0.000319131 0)
(0.000438264 9.14947e-06 0)
(0.000399174 3.35499e-05 0)
(0.00034254 2.69854e-05 0)
(0.000441203 7.32345e-06 0)
(1.96359e-05 -0.000565559 0)
(0.00045774 2.65193e-06 0)
(0.0003987 3.03204e-05 0)
(0.000427259 2.17971e-05 0)
(0.000434217 1.80941e-05 0)
(0.000452153 -5.25095e-05 0)
(2.3905e-06 -0.00056965 0)
(0.000431956 2.78974e-05 0)
(0.000509624 7.87936e-07 0)
(0.00045231 6.88498e-06 0)
(0.000438856 1.39791e-05 0)
(0.000489724 -0.000241856 0)
(0.000100368 -0.000202594 0)
(0.000527442 -0.000103376 0)
(0.000503205 -1.24156e-06 0)
(0.000242202 -0.000299746 0)
(0.000527483 -4.91666e-05 0)
(0.000608059 -0.000214574 0)
(0.000311052 -6.63312e-05 0)
(0.00042561 3.34509e-05 0)
(0.000518803 -2.71027e-06 0)
(0.000136013 -0.000310587 0)
(0.000375876 -3.42012e-05 0)
(0.000485687 3.76269e-06 0)
(0.000382981 3.19307e-05 0)
(0.000415335 1.50466e-06 0)
(0.000394823 2.76793e-05 0)
(0.00051523 -3.8701e-06 0)
(0.000456016 1.28487e-05 0)
(0.000398558 2.10603e-05 0)
(0.000424203 2.5442e-05 0)
(0.000457945 7.64627e-06 0)
(0.000438718 2.79831e-05 0)
(0.000375119 3.36062e-05 0)
(0.00040434 3.28342e-05 0)
(0.000481051 8.11783e-06 0)
(0.000508314 -3.02273e-07 0)
(0.000425743 3.0305e-05 0)
(0.00052033 -1.00383e-05 0)
(0.000205907 -0.000411218 0)
(0.000523354 -2.50404e-05 0)
(0.000365425 2.91461e-05 0)
(0.00031022 1.57592e-05 0)
(0.000427881 3.30152e-05 0)
(0.000479208 2.85606e-06 0)
(0.000406629 3.26361e-05 0)
(0.000283051 2.56165e-06 0)
(0.00039179 3.40938e-05 0)
(0.000499833 5.40551e-06 0)
(0.000357494 3.25186e-05 0)
(0.000452648 -1.09197e-05 0)
(0.000376622 3.48896e-05 0)
(0.00043199 2.44051e-05 0)
(0.000404985 2.78174e-05 0)
(0.000412429 2.91008e-05 0)
(0.000468481 2.03471e-05 0)
(3.23232e-05 -0.00056697 0)
(0.000439923 1.95208e-05 0)
(0.000419121 2.47924e-05 0)
(4.96013e-05 -0.000517112 0)
(0.000493895 5.86491e-06 0)
(0.000105136 -0.000394647 0)
(0.000495356 8.45018e-06 0)
(0.000505603 -2.83803e-05 0)
(0.000535753 -8.26867e-05 0)
(0.000413181 2.6858e-05 0)
(0.000498836 -1.33102e-05 0)
(3.11972e-06 -0.000515452 0)
(0.000509284 1.12091e-06 0)
(0.000394399 -0.000184864 0)
(0.000411448 2.85225e-05 0)
(0.000399553 2.9985e-05 0)
(0.000480593 -8.88328e-05 0)
(0.000529299 -5.44132e-05 0)
(0.00014916 -0.000202617 0)
(0.000427359 2.17587e-05 0)
(0.000477948 1.55109e-05 0)
(0.000378198 3.23261e-05 0)
(0.000521113 -6.54145e-06 0)
(0.000512312 -0.000296134 0)
(0.000459935 1.49582e-05 0)
(0.000473237 7.22667e-06 0)
(0.000439946 1.17382e-05 0)
(0.000411801 2.79896e-05 0)
(0.000315705 1.59433e-05 0)
(0.000469745 1.34286e-05 0)
(0.000133741 -0.000143666 0)
(0.000393319 2.69506e-05 0)
(0.000509194 -3.32086e-06 0)
(0.000575916 -0.000161779 0)
(0.000395712 3.13524e-05 0)
(0.000444438 1.6818e-05 0)
(0.000395947 3.58591e-05 0)
(2.52885e-05 -0.000411168 0)
(0.000331884 2.35504e-05 0)
(0.00040944 -8.33536e-05 0)
(0.000418797 -5.52909e-05 0)
(0.000407756 2.72477e-05 0)
(0.000451684 1.36485e-05 0)
(0.000517592 -2.83213e-05 0)
(0.00044397 9.75846e-06 0)
(0.000453911 2.52599e-05 0)
(0.000416051 3.0353e-05 0)
(0.000439444 1.00265e-05 0)
(0.00046546 -0.000176414 0)
(0.000388087 3.64252e-05 0)
(0.000441462 2.6751e-06 0)
(0.000400511 3.09591e-05 0)
(0.000231085 -3.22053e-05 0)
(0.000447273 1.85804e-05 0)
(0.000482825 1.47882e-05 0)
(0.000420967 2.70497e-05 0)
(0.000473364 1.90181e-05 0)
(0.000439336 2.61428e-05 0)
(0.000445347 2.06687e-06 0)
(0.000494355 -2.98945e-05 0)
(0.000463428 1.80851e-05 0)
(0.000480472 -0.000137323 0)
(0.000527417 -4.3252e-05 0)
(0.000406547 2.89332e-05 0)
(0.000286114 -0.000123634 0)
(0.000359353 -0.000280188 0)
(0.000249016 -8.37781e-06 0)
(0.000447833 1.23659e-05 0)
(0.000451652 2.95269e-06 0)
(0.000426882 2.30673e-05 0)
(0.000435924 2.55867e-05 0)
(0.000431401 1.92058e-05 0)
(8.28084e-05 -0.000503269 0)
(0.000445855 1.15343e-05 0)
(0.000108069 -0.000288799 0)
(0.000360847 -3.45603e-07 0)
(0.000331887 -5.96029e-06 0)
(0.000367849 3.17996e-05 0)
(0.000465824 -1.0081e-05 0)
(0.000528288 -0.000126381 0)
(0.000334934 -0.000243288 0)
(0.000436613 2.36603e-05 0)
(0.000398797 2.86841e-05 0)
(0.000424486 2.31004e-05 0)
(0.00047136 3.11481e-06 0)
(0.000329772 -0.000127119 0)
(0.000401001 3.20846e-05 0)
(0.000524137 -3.12806e-05 0)
(0.000516882 -1.37033e-05 0)
(0.000440974 1.34857e-05 0)
(0.000419318 2.53392e-05 0)
(0.000522352 -1.99791e-05 0)
(0.000400036 2.7755e-05 0)
(0.000439405 1.72097e-05 0)
(0.000517932 -9.16676e-06 0)
(0.000397378 2.79579e-05 0)
(0.000505003 1.421e-06 0)
(0.000395825 2.88221e-05 0)
(0.000392402 3.32456e-05 0)
(0.000356394 -0.000376859 0)
(0.000394246 2.69769e-05 0)
(0.000415726 3.27053e-05 0)
(0.000399962 3.40782e-05 0)
(0.000217252 -0.000201214 0)
(0.000349725 2.78203e-05 0)
(0.000153552 -0.000386493 0)
(0.000437531 1.28003e-05 0)
(0.000402565 3.09343e-05 0)
(0.000515948 -9.73461e-07 0)
(0.000430319 1.96534e-05 0)
(0.000433486 1.99163e-05 0)
(0.000357403 1.47153e-05 0)
(0.000453021 7.23608e-06 0)
(0.000523798 -4.09754e-05 0)
(0.000413324 3.46637e-05 0)
(0.000447532 6.13177e-06 0)
(0.000284843 -1.16325e-05 0)
(0.00029103 -6.94181e-07 0)
(5.93541e-05 -0.000470405 0)
(0.000353852 2.80079e-05 0)
(0.000469308 -3.25183e-05 0)
(0.000408806 2.80375e-05 0)
(0.000480116 1.29808e-05 0)
(0.000443379 2.76507e-05 0)
(0.000434676 2.13971e-05 0)
(0.000450654 2.22614e-05 0)
(0.00039898 2.90193e-05 0)
(0.000515898 -7.76862e-05 0)
(0.000445022 6.29703e-06 0)
(0.000306236 -0.000183454 0)
(0.000450003 7.19815e-06 0)
(0.000379153 2.83553e-05 0)
(0.000487943 2.57692e-06 0)
(0.000432696 1.8423e-05 0)
(0.000217433 -0.000120916 0)
(0.000250487 -1.69787e-05 0)
(0.000421081 2.43002e-05 0)
(0.000486082 7.63138e-06 0)
(0.000449135 2.76447e-05 0)
(0.000447952 1.62245e-05 0)
(0.000400786 2.79043e-05 0)
(0.000427364 2.70071e-05 0)
(0.000321935 2.06687e-05 0)
(0.000674914 -0.000257552 0)
(0.000464113 7.01551e-06 0)
(0.00042504 2.30387e-05 0)
(0.000444441 2.90215e-05 0)
(0.000458585 2.23997e-05 0)
(0.000428326 2.28887e-05 0)
(0.000477835 -6.6898e-05 0)
(0.000410021 3.02344e-05 0)
(0.000420125 -2.3696e-05 0)
(0.000517802 -7.47927e-06 0)
(0.00041991 2.63907e-05 0)
(0.000476708 1.36189e-05 0)
(0.000408319 2.75568e-05 0)
(0.000383837 3.03985e-05 0)
(0.000402425 3.52998e-05 0)
(0.000477889 1.61597e-05 0)
(0.000504876 3.3796e-06 0)
(0.000462969 1.35839e-05 0)
(0.000435413 1.67485e-05 0)
(0.000360321 3.22653e-05 0)
(0.000464251 1.65902e-05 0)
(1.88251e-05 -0.000572854 0)
(0.000404321 3.09238e-05 0)
(0.000189874 -0.000257589 0)
(0.00043722 1.68508e-05 0)
(0.000296523 8.41994e-06 0)
(0.000504048 -6.00802e-06 0)
(0.000484221 1.37126e-05 0)
(0.000534268 -7.3258e-05 0)
(0.000444671 1.51308e-05 0)
(0.000518382 -1.84249e-05 0)
(0.000433511 1.74474e-05 0)
(0.000465807 2.02177e-05 0)
(0.000436651 1.23298e-05 0)
(0.000401002 3.39702e-05 0)
(9.11212e-05 -0.000529181 0)
(0.000521702 -1.34524e-05 0)
(0.000459883 1.10103e-05 0)
(0.000368384 3.41497e-05 0)
(0.000520819 -3.93507e-06 0)
(0.000393024 2.79334e-05 0)
(0.000409797 2.96086e-05 0)
(0.000467922 2.68193e-06 0)
(0.000352252 3.07977e-05 0)
(0.000370638 2.53317e-05 0)
(0.000369233 3.47641e-05 0)
(0.000442585 1.34677e-05 0)
(0.000404621 -8.93673e-06 0)
(0.000421578 3.31759e-05 0)
(0.000273808 -4.55016e-05 0)
(0.000495621 -3.82019e-06 0)
(0.00042907 2.44173e-05 0)
(0.00042197 2.37029e-05 0)
(0.000433745 3.13184e-05 0)
(0.000486113 7.2969e-06 0)
(0.000483598 -7.62756e-06 0)
(0.000488121 1.08422e-05 0)
(0.000414887 2.73199e-05 0)
(0.00038463 2.79651e-05 0)
(0.000295022 8.96883e-06 0)
(0.000472431 1.03425e-05 0)
(0.000392359 3.59271e-05 0)
(0.00043134 2.16373e-05 0)
(0.00052036 -2.61505e-05 0)
(0.00039335 2.98706e-05 0)
(0.000454981 2.23112e-06 0)
(0.000419206 2.96301e-05 0)
(0.000446804 1.54632e-05 0)
(0.000455458 -2.14934e-05 0)
(0.000491833 5.83299e-06 0)
(0.000432842 7.29914e-06 0)
(0.000413994 2.615e-05 0)
(0.000418571 1.61941e-05 0)
(0.000495284 8.24603e-06 0)
(0.000425979 3.10176e-05 0)
(0.000410925 3.17812e-05 0)
(0.000396022 2.73767e-05 0)
(0.000433965 3.09823e-05 0)
(0.000408931 3.31482e-05 0)
(0.000331528 -2.63393e-05 0)
(0.000414546 3.10968e-05 0)
(0.000367118 3.06643e-05 0)
(0.000179834 -0.000407634 0)
(0.000497494 6.66515e-06 0)
(0.00054445 -0.000112539 0)
(0.000390968 2.69321e-05 0)
(0.000507511 -0.000102887 0)
(0.000420865 2.82503e-05 0)
(0.000462491 2.7771e-06 0)
(0.000588667 -0.000183316 0)
(0.000430433 2.71232e-05 0)
(0.000459872 2.40791e-05 0)
(0.000408207 3.58793e-05 0)
(0.000554245 -0.000212838 0)
(0.000255213 -2.47693e-05 0)
(0.000557841 -0.000158483 0)
(0.000353696 2.32623e-05 0)
(0.000395856 9.41031e-06 0)
(0.000444847 2.09827e-05 0)
(0.000468369 8.61362e-06 0)
(0.000410162 2.68932e-05 0)
(0.000203755 -5.42964e-05 0)
(0.000513141 -1.30231e-07 0)
(0.000423767 2.45661e-05 0)
(0.000417855 2.63332e-05 0)
(0.000357992 -5.23502e-05 0)
(0.000458083 1.02054e-05 0)
(0.00034582 2.64663e-05 0)
(0.000425288 2.24086e-05 0)
(0.000450387 2.04173e-05 0)
(0.00041447 2.74206e-05 0)
(0.00038158 3.53768e-05 0)
(0.000467975 1.99941e-05 0)
(0.00041772 2.82428e-05 0)
(0.000396796 2.76861e-05 0)
(7.71534e-06 -0.000573635 0)
(0.00039622 3.04743e-05 0)
(0.000454398 9.39955e-06 0)
(0.000390185 3.1454e-05 0)
(0.000454798 1.52612e-05 0)
(0.000401399 3.47264e-05 0)
(0.000425477 2.52697e-05 0)
(0.000463198 1.88577e-05 0)
(0.000333363 2.2954e-05 0)
(0.000449037 -9.65154e-05 0)
(0.000458935 1.62497e-05 0)
(0.000171578 -0.000471268 0)
(0.000616718 -0.000218074 0)
(0.000381197 2.23684e-05 0)
(0.000441755 2.42234e-05 0)
(0.000335101 2.59362e-05 0)
(0.000420745 3.04544e-05 0)
(0.000386629 2.74692e-05 0)
(0.000360081 3.24727e-05 0)
(0.000442904 2.52598e-05 0)
(0.000392541 2.9226e-05 0)
(5.93669e-05 -0.00042708 0)
(0.000468652 -5.78118e-05 0)
(0.000411794 -0.000129396 0)
(0.000442417 7.21173e-06 0)
(0.000429262 2.03535e-05 0)
(0.000425504 2.36309e-05 0)
(0.000428813 2.11868e-05 0)
(0.000516163 -2.50173e-06 0)
(0.000554985 -0.000121375 0)
(0.000186608 -0.000116124 0)
(0.000383501 3.59592e-05 0)
(0.000403421 2.96767e-05 0)
(0.000404296 2.76282e-05 0)
(0.000436817 -2.47042e-06 0)
(0.000520095 -6.01118e-06 0)
(0.00044389 8.59295e-06 0)
(0.000376927 -8.536e-06 0)
(0.000411742 2.72566e-05 0)
(0.000426036 2.99459e-05 0)
(0.000361957 -8.8989e-05 0)
(0.000376263 3.32066e-05 0)
(0.00038958 -4.6807e-05 0)
(0.000512584 -9.84942e-07 0)
(0.000371701 8.68942e-06 0)
(0.000399456 3.18685e-05 0)
(0.000443838 2.57233e-06 0)
(0.000535224 -7.0744e-05 0)
(0.000407821 3.05912e-05 0)
(0.000523634 -2.55448e-05 0)
(0.000461739 5.81381e-06 0)
(0.000320427 1.38812e-05 0)
(0.000441943 1.593e-05 0)
(0.000439434 8.87882e-06 0)
(0.000439092 5.67786e-06 0)
(0.000397213 3.39002e-05 0)
(0.00041058 2.67434e-05 0)
(3.68261e-08 -0.00046758 0)
(0.000386244 2.92947e-05 0)
(0.000405866 3.36238e-05 0)
(0.000419404 2.50685e-05 0)
(0.000271266 -0.000410091 0)
(0.000450308 2.11786e-06 0)
(0.000452676 2.6301e-05 0)
(0.000488878 1.18065e-05 0)
(0.000451514 1.72773e-05 0)
(0.000432493 1.86523e-05 0)
(0.00049838 1.72679e-06 0)
(0.000515929 -3.40054e-05 0)
(0.000450186 2.63386e-05 0)
(0.000415848 3.17505e-05 0)
(0.00036066 3.11069e-05 0)
(0.000320511 1.90343e-05 0)
(0.000553308 -0.000173263 0)
(0.000521776 -1.92488e-05 0)
(0.000501421 -0.000158807 0)
(0.000413003 3.06265e-05 0)
(6.70715e-05 -0.000532366 0)
(0.000408794 3.46707e-05 0)
(0.000416634 2.5789e-05 0)
(0.000395367 2.97312e-05 0)
(0.000495944 -0.000199035 0)
(0.000525849 -5.40599e-05 0)
(0.000529474 -6.14681e-05 0)
(0.000389409 2.87714e-05 0)
(0.000524149 -7.34178e-05 0)
(0.000516823 -4.27242e-05 0)
(0.000402407 2.76846e-05 0)
(0.000199863 -0.000202819 0)
(0.0004474 1.93605e-05 0)
(0.000415698 2.56354e-05 0)
(0.000145134 -0.000113504 0)
(0.000387857 3.31944e-05 0)
(0.000418244 2.99614e-05 0)
(0.000435359 2.89475e-05 0)
(0.000426476 2.4296e-05 0)
(0.000391334 2.76332e-05 0)
(0.000361822 -2.16945e-05 0)
(0.000451406 1.18197e-05 0)
(0.000434949 3.16012e-05 0)
(0.000455177 4.66898e-06 0)
(0.000376186 2.86966e-05 0)
(0.000207679 -8.57081e-05 0)
(0.000545842 -0.00010517 0)
(0.000451441 5.27733e-06 0)
(5.69116e-05 -0.00025942 0)
(0.000336179 2.65057e-05 0)
(0.000348706 1.90274e-05 0)
(0.000430275 1.93222e-05 0)
(0.000436587 2.75121e-05 0)
(0.000401897 2.58691e-05 0)
(0.000471076 2.65577e-06 0)
(0.00035882 2.79532e-05 0)
(0.00051984 -5.93064e-06 0)
(0.000402594 2.76868e-05 0)
(0.000392138 3.31268e-05 0)
(0.000528083 -4.68724e-05 0)
(0.000494746 7.43029e-06 0)
(0.000318576 -1.85444e-05 0)
(0.000431475 3.03933e-05 0)
(0.000394496 2.71366e-05 0)
(0.000459476 1.79973e-05 0)
(0.000475243 2.07705e-06 0)
(0.000411076 3.2543e-05 0)
(0.00046632 2.19166e-05 0)
(0.000346952 -7.18576e-05 0)
(0.000437575 1.95499e-05 0)
(0.000442023 1.18477e-05 0)
(0.000445661 2.18952e-05 0)
(0.000258596 -8.25317e-05 0)
(0.000473222 1.88811e-05 0)
(0.000245762 -6.9749e-05 0)
(0.000222038 -5.25127e-05 0)
(0.000440536 2.0376e-05 0)
(0.000446719 1.51373e-06 0)