/*--------------------------------*- C++ -*----------------------------------*\
| =========                 |                                                 |
| \\      /  F ield         | OpenFOAM: The Open Source CFD Toolbox           |
|  \\    /   O peration     | Version:  v2012                                 |
|   \\  /    A nd           | Website:  www.openfoam.com                      |
|    \\/     M anipulation  |                                                 |
\*---------------------------------------------------------------------------*/
FoamFile
{
    version     2.0;
    format      ascii;
    class       pointVectorField;
    location    "8";
    object      pointD;
}
// * * * * * * * * * * * * * * * * * * * * * * * * * * * * * * * * * * * * * //

dimensions      [0 1 0 0 0 0 0];


internalField   nonuniform List<vector> 
572
(
(0.00300124 0 5.21329e-22)
(0.00413732 0 4.16535e-21)
(0.00378909 -0.000359875 0)
(0 -0.00218364 -1.03407e-21)
(0 -0.00162475 2.30702e-21)
(0.0030782 0 0)
(0 -0.00203349 0)
(0.00186141 -0.000648093 0)
(0.000894103 -0.00119965 1.60613e-21)
(0.00401797 -9.23545e-05 -9.06805e-21)
(0.00222276 -0.000984868 5.02392e-21)
(0.00222276 -0.000984868 5.02392e-21)
(0.00186141 -0.000648093 0)
(0 -0.00203349 0)
(0 -0.00162475 2.30702e-21)
(0.00300124 0 5.21329e-22)
(0.0030782 0 0)
(0.00413732 0 4.16535e-21)
(0.00401797 -9.23545e-05 -9.06805e-21)
(0.00378909 -0.000359875 0)
(0.000894103 -0.00119965 1.60613e-21)
(0 -0.00218364 -1.03407e-21)
(0.000304782 -0.00191935 0)
(0.00064713 -0.00164455 0)
(0.00102399 -0.0013149 0)
(0.00142672 -0.000977069 0)
(0.00227017 -0.00039115 0)
(0.00260231 -0.00021811 0)
(0.0028596 -0.000107611 0)
(0.00302371 -4.17206e-05 0)
(0.003025 0 0)
(0.00304316 0 0)
(0.00305498 0 0)
(0.00306443 0 0)
(0.00311388 0 0)
(0.00317371 0 0)
(0.00325268 0 0)
(0.00334844 0 0)
(0.00346228 0 0)
(0.00358747 0 0)
(0.00372641 0 0)
(0.00387157 0 0)
(0.00402301 0 0)
(0.00416523 -7.23856e-06 1.03126e-20)
(0.00414306 -1.80678e-05 8.45145e-21)
(0.00410769 -3.48871e-05 5.4009e-21)
(0.00406336 -6.0825e-05 1.82816e-21)
(0.00399036 -0.000115519 -1.82004e-21)
(0.00396759 -0.000136871 7.77378e-21)
(0.00394491 -0.000160771 2.51639e-21)
(0.00392361 -0.000186537 -2.09575e-22)
(0.00390322 -0.000213862 4.75517e-21)
(0.00388467 -0.000242388 6.81818e-21)
(0.00386731 -0.000271547 -3.2798e-21)
(0.00385145 -0.000301813 -7.74661e-21)
(0.00383738 -0.000331899 -2.40381e-21)
(0.00362151 -0.000401069 1.06032e-21)
(0.00341359 -0.000433148 3.07001e-21)
(0.00319254 -0.000455331 6.67974e-22)
(0.00294993 -0.000472434 -2.53356e-21)
(0.00267856 -0.000496567 -2.84336e-21)
(0.00237648 -0.000538426 -3.32498e-21)
(0.00203739 -0.000615009 -3.00158e-21)
(0.00166932 -0.000742907 -3.25673e-21)
(0.00127475 -0.000938509 -2.05812e-22)
(0.000619346 -0.00145168 1.85817e-21)
(0.000395197 -0.00170776 2.21257e-21)
(0.000214886 -0.00193927 -3.47265e-22)
(8.48736e-05 -0.00211859 -1.99873e-21)
(0 -0.00217644 0)
(0 -0.0021638 0)
(0 -0.00214988 0)
(0 -0.00213476 0)
(0 -0.00211931 0)
(0 -0.00210313 0)
(0 -0.00208717 0)
(0 -0.0020705 0)
(0 -0.00205422 0)
(0 -0.00200834 0)
(0 -0.00196997 0)
(0 -0.00191972 0)
(0 -0.00179118 0)
(0.00217035 -0.000401756 0)
(0.00241373 -0.000262741 0)
(0.00264005 -0.000194194 0)
(0.00284727 -0.000163937 0)
(0.00304893 -0.000159928 0)
(0.00324547 -0.000163229 0)
(0.00344166 -0.000168303 0)
(0.00363605 -0.000162734 0)
(0.00382961 -0.000142741 0)
(0.00169854 -0.000730047 0)
(0.00159485 -0.000785072 0)
(0.00149617 -0.000842042 0)
(0.00140536 -0.000896382 0)
(0.00131855 -0.000950816 0)
(0.00123551 -0.00100246 0)
(0.00115345 -0.00105342 0)
(0.00107062 -0.00110231 0)
(0.000984627 -0.0011514 0)
(0.000661187 -0.0015762 3.85575e-21)
(0.00115098 -0.00153155 -6.94145e-21)
(0.00154264 -0.00138183 -6.76219e-22)
(0.00190669 -0.00118736 7.93823e-21)
(0.00248938 -0.000787985 7.94065e-21)
(0.00270921 -0.000585282 7.04785e-22)
(0.00286373 -0.000387302 -9.49455e-21)
(0.00295971 -0.000192691 -6.44346e-21)
(0.00208046 -0.00086852 0)
(0.00198266 -0.000791291 0)
(0.00191482 -0.000736279 0)
(0.00186914 -0.00069838 0)
(0.00208046 -0.00086852 0)
(0.00198266 -0.000791291 0)
(0.00191482 -0.000736279 0)
(0.00186914 -0.00069838 0)
(0.00142672 -0.000977069 0)
(0.00102399 -0.0013149 0)
(0.00064713 -0.00164455 0)
(0.000304782 -0.00191935 0)
(0 -0.00200834 0)
(0 -0.00196997 0)
(0 -0.00191972 0)
(0 -0.00179118 0)
(0.000661187 -0.0015762 3.85575e-21)
(0.00115098 -0.00153155 -6.94145e-21)
(0.00154264 -0.00138183 -6.76219e-22)
(0.00190669 -0.00118736 7.93823e-21)
(0.00248938 -0.000787985 7.94065e-21)
(0.00270921 -0.000585282 7.04785e-22)
(0.00286373 -0.000387302 -9.49455e-21)
(0.00295971 -0.000192691 -6.44346e-21)
(0.003025 0 0)
(0.00304316 0 0)
(0.00305498 0 0)
(0.00306443 0 0)
(0.00302371 -4.17206e-05 0)
(0.0028596 -0.000107611 0)
(0.00260231 -0.00021811 0)
(0.00227017 -0.00039115 0)
(0.00311388 0 0)
(0.00317371 0 0)
(0.00325268 0 0)
(0.00334844 0 0)
(0.00346228 0 0)
(0.00358747 0 0)
(0.00372641 0 0)
(0.00387157 0 0)
(0.00402301 0 0)
(0.00416523 -7.23856e-06 1.03126e-20)
(0.00414306 -1.80678e-05 8.45145e-21)
(0.00410769 -3.48871e-05 5.4009e-21)
(0.00406336 -6.0825e-05 1.82816e-21)
(0.00382961 -0.000142741 0)
(0.00363605 -0.000162734 0)
(0.00344166 -0.000168303 0)
(0.00324547 -0.000163229 0)
(0.00304893 -0.000159928 0)
(0.00284727 -0.000163937 0)
(0.00264005 -0.000194194 0)
(0.00241373 -0.000262741 0)
(0.00217035 -0.000401756 0)
(0.00399036 -0.000115519 -1.82004e-21)
(0.00396759 -0.000136871 7.77378e-21)
(0.00394491 -0.000160771 2.51639e-21)
(0.00392361 -0.000186537 -2.09575e-22)
(0.00390322 -0.000213862 4.75517e-21)
(0.00388467 -0.000242388 6.81818e-21)
(0.00386731 -0.000271547 -3.2798e-21)
(0.00385145 -0.000301813 -7.74661e-21)
(0.00383738 -0.000331899 -2.40381e-21)
(0.00362151 -0.000401069 1.06032e-21)
(0.00341359 -0.000433148 3.07001e-21)
(0.00319254 -0.000455331 6.67974e-22)
(0.00294993 -0.000472434 -2.53356e-21)
(0.00267856 -0.000496567 -2.84336e-21)
(0.00237648 -0.000538426 -3.32498e-21)
(0.00203739 -0.000615009 -3.00158e-21)
(0.00166932 -0.000742907 -3.25673e-21)
(0.00127475 -0.000938509 -2.05812e-22)
(0.000984627 -0.0011514 0)
(0.00107062 -0.00110231 0)
(0.00115345 -0.00105342 0)
(0.00123551 -0.00100246 0)
(0.00131855 -0.000950816 0)
(0.00140536 -0.000896382 0)
(0.00149617 -0.000842042 0)
(0.00159485 -0.000785072 0)
(0.00169854 -0.000730047 0)
(0.000619346 -0.00145168 1.85817e-21)
(0.000395197 -0.00170776 2.21257e-21)
(0.000214886 -0.00193927 -3.47265e-22)
(8.48736e-05 -0.00211859 -1.99873e-21)
(0 -0.00217644 0)
(0 -0.0021638 0)
(0 -0.00214988 0)
(0 -0.00213476 0)
(0 -0.00211931 0)
(0 -0.00210313 0)
(0 -0.00208717 0)
(0 -0.0020705 0)
(0 -0.00205422 0)
(0.00055205 -0.00173955 0)
(0.000445658 -0.00182453 0)
(0.000371159 -0.00186319 0)
(0.000331276 -0.00189698 0)
(0.000980515 -0.00157578 0)
(0.000841093 -0.00159513 0)
(0.000746314 -0.00161172 0)
(0.000688197 -0.00163021 0)
(0.00135731 -0.00134996 0)
(0.00122439 -0.00132926 0)
(0.00113212 -0.00131946 0)
(0.00107113 -0.00131423 0)
(0.00173182 -0.00110613 0)
(0.00161193 -0.00105231 0)
(0.00152702 -0.00101538 0)
(0.00147133 -0.000989449 0)
(0.00239217 -0.000655195 0)
(0.00232282 -0.000566382 0)
(0.00227569 -0.000503143 0)
(0.00224212 -0.000458216 0)
(0.00266021 -0.0004591 0)
(0.00262262 -0.000373697 0)
(0.00259732 -0.000313634 0)
(0.00257865 -0.000268677 0)
(0.00285845 -0.000289939 0)
(0.00284989 -0.000223276 0)
(0.00284422 -0.000176682 0)
(0.00284008 -0.000141206 0)
(0.00298332 -0.000139609 0)
(0.00299432 -0.00010298 0)
(0.00300152 -7.76057e-05 0)
(0.00300733 -5.81191e-05 0)
(0.00306948 -2.73579e-05 0)
(0.00293673 -6.92449e-05 0)
(0.00272723 -0.000142719 0)
(0.00245613 -0.000253277 0)
(0.00313883 -1.93263e-05 0)
(0.00303274 -4.78646e-05 0)
(0.00286293 -9.84796e-05 0)
(0.00264348 -0.000171369 0)
(0.00322457 -1.81121e-05 0)
(0.00314044 -4.13862e-05 0)
(0.00300436 -7.8833e-05 0)
(0.00282733 -0.000130929 0)
(0.00332534 -2.06213e-05 0)
(0.00325596 -4.4551e-05 0)
(0.00314377 -7.68336e-05 0)
(0.00299911 -0.000118566 0)
(0.00344305 -2.35493e-05 0)
(0.00338604 -4.97072e-05 0)
(0.0032935 -8.14162e-05 0)
(0.00317375 -0.000120237 0)
(0.00357145 -2.6462e-05 0)
(0.00352373 -5.50654e-05 0)
(0.0034468 -8.75354e-05 0)
(0.0033479 -0.000125723 0)
(0.00371288 -2.78544e-05 0)
(0.00367288 -5.78774e-05 0)
(0.00360855 -9.14564e-05 0)
(0.00352602 -0.000130298 0)
(0.00386021 -2.60671e-05 0)
(0.00382679 -5.44732e-05 0)
(0.00377331 -8.68053e-05 0)
(0.00370503 -0.000124785 0)
(0.00401344 -2.05564e-05 0)
(0.00398585 -4.39209e-05 0)
(0.0039417 -7.19017e-05 0)
(0.00388566 -0.00010667 0)
(0.00201955 -0.00048099 0)
(0.00192145 -0.000531736 0)
(0.00182872 -0.000583768 0)
(0.00174092 -0.000634808 0)
(0.00165735 -0.000685975 0)
(0.00157726 -0.000735981 0)
(0.00149977 -0.000786074 0)
(0.00142406 -0.000835634 0)
(0.00134926 -0.000886468 0)
(0.0022943 -0.000324498 0)
(0.0022105 -0.000367742 0)
(0.00213022 -0.000412528 0)
(0.00205321 -0.000457417 0)
(0.00197987 -0.000503316 0)
(0.00191017 -0.00054914 0)
(0.00184411 -0.000596042 0)
(0.00178184 -0.000643284 0)
(0.00172336 -0.000692377 0)
(0.0025393 -0.0002413 0)
(0.00246935 -0.000277215 0)
(0.00240168 -0.000315202 0)
(0.00233697 -0.000353989 0)
(0.00227557 -0.000394514 0)
(0.00221808 -0.000435682 0)
(0.00216484 -0.000478538 0)
(0.00211655 -0.000522225 0)
(0.00207371 -0.000567934 0)
(0.00276695 -0.000202546 0)
(0.00271051 -0.000233457 0)
(0.00265544 -0.000266526 0)
(0.00260288 -0.000300876 0)
(0.00255322 -0.000337104 0)
(0.00250738 -0.000374423 0)
(0.00246588 -0.000413479 0)
(0.00242968 -0.000453586 0)
(0.00239949 -0.000495443 0)
(0.00298325 -0.000192691 0)
(0.00293744 -0.000220353 0)
(0.00289258 -0.000249949 0)
(0.00285004 -0.000280977 0)
(0.00281006 -0.000313748 0)
(0.0027737 -0.000347751 0)
(0.00274146 -0.000383307 0)
(0.00271434 -0.000419893 0)
(0.002693 -0.000457832 0)
(0.00319238 -0.00019354 0)
(0.00315512 -0.000219121 0)
(0.00311856 -0.000246431 0)
(0.00308403 -0.00027511 0)
(0.00305166 -0.000305319 0)
(0.00302251 -0.000336711 0)
(0.0029969 -0.000369371 0)
(0.00297587 -0.00040294 0)
(0.00295989 -0.000437448 0)
(0.00339715 -0.000196922 0)
(0.00336578 -0.000221033 0)
(0.00333507 -0.000246624 0)
(0.00330602 -0.000273445 0)
(0.00327883 -0.000301583 0)
(0.00325429 -0.000330779 0)
(0.00323276 -0.000361002 0)
(0.00321508 -0.000391959 0)
(0.00320141 -0.000423534 0)
(0.00359823 -0.000190193 0)
(0.00357066 -0.00021286 0)
(0.00354397 -0.000237065 0)
(0.00351874 -0.000262483 0)
(0.003495 -0.000289036 0)
(0.00347336 -0.00031659 0)
(0.00345382 -0.000345077 0)
(0.0034374 -0.000374122 0)
(0.00342392 -0.000403579 0)
(0.00379645 -0.000168675 0)
(0.00377141 -0.000190178 0)
(0.00374699 -0.000213282 0)
(0.0037241 -0.000237614 0)
(0.00370231 -0.000263055 0)
(0.00368248 -0.000289474 0)
(0.00366401 -0.000316775 0)
(0.0036478 -0.00034462 0)
(0.00363383 -0.000372788 0)
(0.000281443 -0.00194602 0)
(0.000259856 -0.00196841 0)
(0.000240238 -0.00199069 0)
(0.000221146 -0.00201186 0)
(0.000202309 -0.00203274 0)
(0.000182752 -0.00205255 0)
(0.00016196 -0.00207168 0)
(0.000139098 -0.00208938 0)
(0.000113406 -0.00210573 0)
(0.00060085 -0.0016803 0)
(0.000556879 -0.00171501 0)
(0.000516561 -0.00174876 0)
(0.000477801 -0.00178071 0)
(0.000439669 -0.00181159 0)
(0.000400859 -0.00184071 0)
(0.000360019 -0.00186875 0)
(0.000316023 -0.00189492 0)
(0.000267234 -0.00191983 0)
(0.000956359 -0.0013566 0)
(0.000889055 -0.00140301 0)
(0.000826927 -0.00144807 0)
(0.000768676 -0.00149101 0)
(0.000711877 -0.00153252 0)
(0.000655604 -0.00157159 0)
(0.000597177 -0.00160945 0)
(0.000535322 -0.00164498 0)
(0.000467461 -0.00167959 0)
(0.00133853 -0.00102215 0)
(0.00124919 -0.00107573 0)
(0.00116509 -0.00112917 0)
(0.0010875 -0.00118053 0)
(0.00101253 -0.00123108 0)
(0.000939882 -0.00127884 0)
(0.000866076 -0.00132555 0)
(0.000789341 -0.00136975 0)
(0.000706646 -0.00141352 0)
(0.00055205 -0.00173955 0)
(0.000445658 -0.00182453 0)
(0.000371159 -0.00186319 0)
(0.000331276 -0.00189698 0)
(0.000980515 -0.00157578 0)
(0.000841093 -0.00159513 0)
(0.000746314 -0.00161172 0)
(0.000688197 -0.00163021 0)
(0.00135731 -0.00134996 0)
(0.00122439 -0.00132926 0)
(0.00113212 -0.00131946 0)
(0.00107113 -0.00131423 0)
(0.00173182 -0.00110613 0)
(0.00161193 -0.00105231 0)
(0.00152702 -0.00101538 0)
(0.00147133 -0.000989449 0)
(0.00239217 -0.000655195 0)
(0.00232282 -0.000566382 0)
(0.00227569 -0.000503143 0)
(0.00224212 -0.000458216 0)
(0.00266021 -0.0004591 0)
(0.00262262 -0.000373697 0)
(0.00259732 -0.000313634 0)
(0.00257865 -0.000268677 0)
(0.00285845 -0.000289939 0)
(0.00284989 -0.000223276 0)
(0.00284422 -0.000176682 0)
(0.00284008 -0.000141206 0)
(0.00298332 -0.000139609 0)
(0.00299432 -0.00010298 0)
(0.00300152 -7.76057e-05 0)
(0.00300733 -5.81191e-05 0)
(0.00306948 -2.73579e-05 0)
(0.00293673 -6.92449e-05 0)
(0.00272723 -0.000142719 0)
(0.00245613 -0.000253277 0)
(0.00313883 -1.93263e-05 0)
(0.00303274 -4.78646e-05 0)
(0.00286293 -9.84796e-05 0)
(0.00264348 -0.000171369 0)
(0.00322457 -1.81121e-05 0)
(0.00314044 -4.13862e-05 0)
(0.00300436 -7.8833e-05 0)
(0.00282733 -0.000130929 0)
(0.00332534 -2.06213e-05 0)
(0.00325596 -4.4551e-05 0)
(0.00314377 -7.68336e-05 0)
(0.00299911 -0.000118566 0)
(0.00344305 -2.35493e-05 0)
(0.00338604 -4.97072e-05 0)
(0.0032935 -8.14162e-05 0)
(0.00317375 -0.000120237 0)
(0.00357145 -2.6462e-05 0)
(0.00352373 -5.50654e-05 0)
(0.0034468 -8.75354e-05 0)
(0.0033479 -0.000125723 0)
(0.00371288 -2.78544e-05 0)
(0.00367288 -5.78774e-05 0)
(0.00360855 -9.14564e-05 0)
(0.00352602 -0.000130298 0)
(0.00386021 -2.60671e-05 0)
(0.00382679 -5.44732e-05 0)
(0.00377331 -8.68053e-05 0)
(0.00370503 -0.000124785 0)
(0.00401344 -2.05564e-05 0)
(0.00398585 -4.39209e-05 0)
(0.0039417 -7.19017e-05 0)
(0.00388566 -0.00010667 0)
(0.00201955 -0.00048099 0)
(0.00192145 -0.000531736 0)
(0.00182872 -0.000583768 0)
(0.00174092 -0.000634808 0)
(0.00165735 -0.000685975 0)
(0.00157726 -0.000735981 0)
(0.00149977 -0.000786074 0)
(0.00142406 -0.000835634 0)
(0.00134926 -0.000886468 0)
(0.0022943 -0.000324498 0)
(0.0022105 -0.000367742 0)
(0.00213022 -0.000412528 0)
(0.00205321 -0.000457417 0)
(0.00197987 -0.000503316 0)
(0.00191017 -0.00054914 0)
(0.00184411 -0.000596042 0)
(0.00178184 -0.000643284 0)
(0.00172336 -0.000692377 0)
(0.0025393 -0.0002413 0)
(0.00246935 -0.000277215 0)
(0.00240168 -0.000315202 0)
(0.00233697 -0.000353989 0)
(0.00227557 -0.000394514 0)
(0.00221808 -0.000435682 0)
(0.00216484 -0.000478538 0)
(0.00211655 -0.000522225 0)
(0.00207371 -0.000567934 0)
(0.00276695 -0.000202546 0)
(0.00271051 -0.000233457 0)
(0.00265544 -0.000266526 0)
(0.00260288 -0.000300876 0)
(0.00255322 -0.000337104 0)
(0.00250738 -0.000374423 0)
(0.00246588 -0.000413479 0)
(0.00242968 -0.000453586 0)
(0.00239949 -0.000495443 0)
(0.00298325 -0.000192691 0)
(0.00293744 -0.000220353 0)
(0.00289258 -0.000249949 0)
(0.00285004 -0.000280977 0)
(0.00281006 -0.000313748 0)
(0.0027737 -0.000347751 0)
(0.00274146 -0.000383307 0)
(0.00271434 -0.000419893 0)
(0.002693 -0.000457832 0)
(0.00319238 -0.00019354 0)
(0.00315512 -0.000219121 0)
(0.00311856 -0.000246431 0)
(0.00308403 -0.00027511 0)
(0.00305166 -0.000305319 0)
(0.00302251 -0.000336711 0)
(0.0029969 -0.000369371 0)
(0.00297587 -0.00040294 0)
(0.00295989 -0.000437448 0)
(0.00339715 -0.000196922 0)
(0.00336578 -0.000221033 0)
(0.00333507 -0.000246624 0)
(0.00330602 -0.000273445 0)
(0.00327883 -0.000301583 0)
(0.00325429 -0.000330779 0)
(0.00323276 -0.000361002 0)
(0.00321508 -0.000391959 0)
(0.00320141 -0.000423534 0)
(0.00359823 -0.000190193 0)
(0.00357066 -0.00021286 0)
(0.00354397 -0.000237065 0)
(0.00351874 -0.000262483 0)
(0.003495 -0.000289036 0)
(0.00347336 -0.00031659 0)
(0.00345382 -0.000345077 0)
(0.0034374 -0.000374122 0)
(0.00342392 -0.000403579 0)
(0.00379645 -0.000168675 0)
(0.00377141 -0.000190178 0)
(0.00374699 -0.000213282 0)
(0.0037241 -0.000237614 0)
(0.00370231 -0.000263055 0)
(0.00368248 -0.000289474 0)
(0.00366401 -0.000316775 0)
(0.0036478 -0.00034462 0)
(0.00363383 -0.000372788 0)
(0.000281443 -0.00194602 0)
(0.000259856 -0.00196841 0)
(0.000240238 -0.00199069 0)
(0.000221146 -0.00201186 0)
(0.000202309 -0.00203274 0)
(0.000182752 -0.00205255 0)
(0.00016196 -0.00207168 0)
(0.000139098 -0.00208938 0)
(0.000113406 -0.00210573 0)
(0.00060085 -0.0016803 0)
(0.000556879 -0.00171501 0)
(0.000516561 -0.00174876 0)
(0.000477801 -0.00178071 0)
(0.000439669 -0.00181159 0)
(0.000400859 -0.00184071 0)
(0.000360019 -0.00186875 0)
(0.000316023 -0.00189492 0)
(0.000267234 -0.00191983 0)
(0.000956359 -0.0013566 0)
(0.000889055 -0.00140301 0)
(0.000826927 -0.00144807 0)
(0.000768676 -0.00149101 0)
(0.000711877 -0.00153252 0)
(0.000655604 -0.00157159 0)
(0.000597177 -0.00160945 0)
(0.000535322 -0.00164498 0)
(0.000467461 -0.00167959 0)
(0.00133853 -0.00102215 0)
(0.00124919 -0.00107573 0)
(0.00116509 -0.00112917 0)
(0.0010875 -0.00118053 0)
(0.00101253 -0.00123108 0)
(0.000939882 -0.00127884 0)
(0.000866076 -0.00132555 0)
(0.000789341 -0.00136975 0)
(0.000706646 -0.00141352 0)
)
;

boundaryField
{
    back
    {
        type            empty;
    }
    left
    {
        type            symmetry;
    }
    hole
    {
        type            calculated;
    }
    front
    {
        type            empty;
    }
    down
    {
        type            symmetry;
    }
    right
    {
        type            calculated;
    }
    up
    {
        type            calculated;
    }
}


// ************************************************************************* //
