/*--------------------------------*- C++ -*----------------------------------*\
| =========                 |                                                 |
| \\      /  F ield         | OpenFOAM: The Open Source CFD Toolbox           |
|  \\    /   O peration     | Version:  v2012                                 |
|   \\  /    A nd           | Website:  www.openfoam.com                      |
|    \\/     M anipulation  |                                                 |
\*---------------------------------------------------------------------------*/
FoamFile
{
    version     2.0;
    format      ascii;
    class       volScalarField;
    location    "8";
    object      sigmaHyd;
}
// * * * * * * * * * * * * * * * * * * * * * * * * * * * * * * * * * * * * * //

dimensions      [1 -1 -2 0 0 0 0];


internalField   nonuniform List<scalar> 
250
(
1.54227e+08
1.5871e+08
1.61663e+08
1.36592e+08
1.16695e+08
1.4413e+08
1.36312e+08
1.31879e+08
1.12887e+08
1.04221e+08
1.15848e+08
1.06279e+08
1.02968e+08
9.53842e+07
8.95683e+07
8.42222e+07
8.20511e+07
7.84084e+07
7.64954e+07
7.26862e+07
4.84794e+07
5.09744e+07
5.35571e+07
5.56837e+07
5.57935e+07
1.53429e+07
2.08797e+07
2.778e+07
3.08647e+07
3.88147e+07
-1.62408e+07
-5.81229e+06
5.16866e+06
1.13596e+07
2.21612e+07
-4.12304e+07
-2.72733e+07
-1.20448e+07
-3.89156e+06
9.07906e+06
-5.85246e+07
-4.24042e+07
-2.5296e+07
-1.56357e+07
-2.42287e+06
-6.74546e+07
-5.00285e+07
-3.17358e+07
-2.13245e+07
-8.19282e+06
3.73784e+06
7.99733e+06
1.6803e+07
2.79153e+07
4.06418e+07
1.83078e+07
2.00622e+07
2.35768e+07
3.01916e+07
3.76631e+07
2.86728e+07
3.04112e+07
3.33777e+07
3.78972e+07
4.17417e+07
3.53527e+07
3.62923e+07
3.78773e+07
4.13581e+07
4.4475e+07
4.16347e+07
4.22943e+07
4.32708e+07
4.52281e+07
4.70304e+07
4.54129e+07
4.57372e+07
4.62613e+07
4.7491e+07
4.87503e+07
4.97941e+07
4.9796e+07
4.97343e+07
4.99638e+07
5.02146e+07
5.27707e+07
5.25399e+07
5.21223e+07
5.17357e+07
5.13102e+07
5.71428e+07
5.65614e+07
5.55294e+07
5.41779e+07
5.275e+07
6.07398e+07
5.98479e+07
5.83942e+07
5.61185e+07
5.39768e+07
4.79665e+07
5.19819e+07
5.65066e+07
6.14177e+07
6.5154e+07
6.9601e+07
7.30833e+07
7.76208e+07
8.14861e+07
8.67926e+07
4.77108e+07
5.28851e+07
5.6898e+07
6.15137e+07
6.51546e+07
6.96141e+07
7.32659e+07
7.79092e+07
8.19177e+07
8.71197e+07
4.73485e+07
5.18377e+07
5.46461e+07
5.90153e+07
6.19556e+07
6.61918e+07
6.92967e+07
7.3618e+07
7.69794e+07
8.16148e+07
4.87738e+07
5.23152e+07
5.45565e+07
5.8004e+07
6.03556e+07
6.37129e+07
6.61607e+07
6.95335e+07
7.20863e+07
7.55741e+07
4.98471e+07
5.21532e+07
5.3633e+07
5.60282e+07
5.75862e+07
5.99434e+07
6.15389e+07
6.3863e+07
6.54558e+07
6.77447e+07
5.05691e+07
5.20033e+07
5.29235e+07
5.44645e+07
5.53957e+07
5.68791e+07
5.77774e+07
5.91619e+07
5.99745e+07
6.12243e+07
5.10826e+07
5.1667e+07
5.20533e+07
5.27449e+07
5.30881e+07
5.37433e+07
5.39957e+07
5.45654e+07
5.46992e+07
5.50704e+07
5.14206e+07
5.14558e+07
5.12284e+07
5.14793e+07
5.12535e+07
5.14337e+07
5.11342e+07
5.10472e+07
5.07302e+07
5.04473e+07
5.18394e+07
5.07865e+07
5.07421e+07
5.02809e+07
4.9772e+07
4.93137e+07
4.85895e+07
4.8417e+07
4.79895e+07
4.74811e+07
5.19919e+07
5.12271e+07
5.01772e+07
4.92467e+07
4.84622e+07
4.76886e+07
4.72409e+07
4.6772e+07
4.63708e+07
4.61539e+07
1.02468e+08
9.56872e+07
8.62701e+07
8.00481e+07
7.1051e+07
6.47009e+07
5.57952e+07
4.88324e+07
3.95294e+07
3.14723e+07
9.3388e+07
9.08028e+07
8.33035e+07
7.99403e+07
7.28305e+07
6.87306e+07
6.17374e+07
5.69408e+07
4.97886e+07
4.41233e+07
8.48022e+07
8.54672e+07
8.07041e+07
7.97844e+07
7.49248e+07
7.32118e+07
6.8413e+07
6.61766e+07
6.14141e+07
5.86436e+07
7.24603e+07
7.72064e+07
7.56045e+07
7.76291e+07
7.55872e+07
7.61628e+07
7.39306e+07
7.38001e+07
7.16459e+07
7.13311e+07
5.75819e+07
6.3468e+07
6.48793e+07
6.86168e+07
7.00229e+07
7.30341e+07
7.45084e+07
7.73818e+07
7.92676e+07
8.26432e+07
)
;

boundaryField
{
    back
    {
        type            empty;
    }
    left
    {
        type            symmetry;
    }
    hole
    {
        type            zeroGradient;
    }
    front
    {
        type            empty;
    }
    down
    {
        type            symmetry;
    }
    right
    {
        type            zeroGradient;
    }
    up
    {
        type            zeroGradient;
    }
}


// ************************************************************************* //
