/*--------------------------------*- C++ -*----------------------------------*\
| =========                 |                                                 |
| \\      /  F ield         | OpenFOAM: The Open Source CFD Toolbox           |
|  \\    /   O peration     | Version:  v2012                                 |
|   \\  /    A nd           | Website:  www.openfoam.com                      |
|    \\/     M anipulation  |                                                 |
\*---------------------------------------------------------------------------*/
FoamFile
{
    version     2.0;
    format      ascii;
    class       volSymmTensorField;
    location    "1";
    object      epsilon;
}
// * * * * * * * * * * * * * * * * * * * * * * * * * * * * * * * * * * * * * //

dimensions      [0 0 0 0 0 0 0];


internalField   nonuniform List<symmTensor> 
2000
(
(0.000548851 -3.72215e-05 4.91523e-23 -0.000225843 -5.96662e-23 9.21589e-41)
(0.000543867 -2.30437e-05 5.14889e-20 -0.000195108 1.34521e-20 0)
(0.000437018 -1.75734e-05 -4.17041e-20 -0.000153498 1.53682e-20 0)
(0.000435731 -7.07455e-06 -4.2726e-20 -0.000131078 -3.49044e-21 0)
(0.000366092 -1.17646e-05 -1.05044e-19 -0.0001078 -9.07881e-22 0)
(0.00036564 1.6113e-06 -5.92262e-20 -9.49193e-05 1.06696e-20 0)
(0.000317835 -7.40555e-06 -1.47182e-20 -8.05807e-05 -7.29414e-21 0)
(0.000318546 6.25083e-06 -2.54462e-20 -7.44264e-05 -5.72492e-21 0)
(0.000284583 -4.5851e-06 0 -6.4899e-05 0 0)
(0.000285907 8.6398e-06 2.1666e-20 -6.29027e-05 4.77923e-21 0)
(0.000261018 -2.67115e-06 2.62076e-20 -5.62389e-05 -3.33507e-21 0)
(0.000262628 9.76225e-06 2.02626e-20 -5.6679e-05 1.17883e-22 0)
(0.000243864 -1.35694e-06 1.17069e-20 -5.18332e-05 4.40955e-21 0)
(0.000245566 1.01658e-05 0 -5.36317e-05 0 0)
(0.000231047 -4.48357e-07 0 -5.00026e-05 0 0)
(0.000232729 1.01644e-05 2.24185e-20 -5.24988e-05 9.9227e-21 0)
(0.000221238 1.85059e-07 6.48189e-20 -4.97242e-05 3.44799e-21 0)
(0.000222835 9.94749e-06 6.10205e-20 -5.25228e-05 -5.86373e-22 0)
(0.000213586 6.41643e-07 -3.10417e-20 -5.03823e-05 -1.75373e-21 0)
(0.000215041 9.66925e-06 -1.02185e-20 -5.32639e-05 5.49994e-21 0)
(0.000518249 -8.23222e-05 -2.12107e-20 -0.000214274 2.71526e-20 3.48627e-35)
(0.000531258 -6.82286e-05 -1.17474e-19 -0.000187317 1.92065e-20 0)
(0.000421948 -4.33021e-05 5.49578e-20 -0.000147813 -1.24939e-20 0)
(0.000430918 -3.01841e-05 2.0547e-20 -0.000130437 -6.41903e-21 0)
(0.000357335 -2.25776e-05 8.53163e-20 -0.000105279 1.63277e-20 0)
(0.000364794 -8.37661e-06 3.98297e-20 -9.80131e-05 8.95009e-21 0)
(0.000313406 -9.2038e-06 9.50513e-20 -8.03622e-05 7.19591e-21 0)
(0.000320101 4.30712e-06 5.83275e-20 -7.93627e-05 -5.9819e-21 0)
(0.000282794 -8.24005e-07 9.26382e-21 -6.60391e-05 1.30811e-20 0)
(0.000288852 1.16163e-05 -2.92668e-20 -6.86803e-05 -2.27899e-21 0)
(0.000260848 4.42515e-06 -4.60318e-20 -5.81226e-05 -6.93712e-21 0)
(0.000266351 1.57136e-05 -2.0581e-20 -6.27593e-05 -3.2924e-21 0)
(0.000244679 7.67222e-06 -3.64285e-20 -5.40867e-05 -7.71875e-21 0)
(0.000249693 1.78679e-05 -3.73996e-20 -5.97262e-05 -1.00484e-20 0)
(0.000232449 9.62458e-06 -1.11119e-20 -5.24041e-05 -5.80695e-21 0)
(0.000237028 1.88461e-05 -2.25441e-20 -5.84549e-05 -1.35877e-20 0)
(0.000222963 1.0736e-05 -1.45017e-20 -5.2149e-05 -4.70724e-21 0)
(0.000227152 1.91249e-05 -1.19287e-20 -5.82498e-05 3.87107e-21 0)
(0.000215465 1.13087e-05 -1.08458e-20 -5.27898e-05 4.07309e-21 0)
(0.000219166 1.91438e-05 -6.05178e-21 -5.86659e-05 8.47318e-22 0)
(0.000483166 -0.000128872 3.04987e-20 -0.000189952 -9.84637e-21 2.12177e-36)
(0.000501232 -0.000108468 3.68134e-20 -0.000170915 -1.30332e-20 0)
(0.000404944 -6.9899e-05 -4.52445e-20 -0.00013811 -1.41074e-20 0)
(0.000415481 -5.16632e-05 -4.31496e-20 -0.000126171 -1.42204e-20 0)
(0.000349422 -3.52151e-05 -6.53944e-20 -0.000104467 -1.34175e-20 0)
(0.000358703 -1.85078e-05 -8.76995e-20 -0.000100783 -2.73587e-20 0)
(0.000311189 -1.34811e-05 -7.50491e-20 -8.47006e-05 -3.08883e-20 0)
(0.000319681 1.14568e-06 -2.76282e-20 -8.60019e-05 -1.17375e-20 0)
(0.00028405 9.72709e-08 5.57728e-20 -7.32891e-05 1.04253e-20 0)
(0.000291863 1.27909e-05 1.92286e-20 -7.73572e-05 4.901e-22 0)
(0.000264209 8.55807e-06 4.7582e-20 -6.69272e-05 2.47351e-20 0)
(0.000271402 1.95774e-05 1.34242e-20 -7.2399e-05 9.06191e-21 0)
(0.000249288 1.37583e-05 3.76248e-20 -6.36209e-05 1.33554e-20 0)
(0.000255912 2.33733e-05 4.43107e-20 -6.96923e-05 1.56363e-20 0)
(0.000237755 1.68605e-05 -2.42402e-20 -6.21639e-05 -5.34673e-21 0)
(0.000243856 2.53214e-05 -4.8102e-20 -6.83627e-05 -2.33492e-20 0)
(0.000228599 1.8608e-05 -6.76282e-20 -6.18274e-05 -2.46933e-20 0)
(0.00023422 2.614e-05 -8.41358e-20 -6.78474e-05 -3.58738e-20 0)
(0.000221154 1.94839e-05 6.82712e-21 -6.22049e-05 -2.71889e-21 0)
(0.000226102 2.65157e-05 -2.63224e-21 -6.77027e-05 1.05437e-21 0)
(0.000439005 -0.000167795 -2.1562e-20 -0.000158959 6.17847e-21 5.36413e-38)
(0.000457953 -0.000140169 3.03471e-20 -0.000147506 2.20686e-20 0)
(0.000382247 -9.1849e-05 6.26187e-21 -0.000126099 -1.11685e-20 0)
(0.0003931 -6.98207e-05 1.03938e-19 -0.000119684 2.94937e-20 0)
(0.000338678 -4.67073e-05 1.2168e-19 -0.000103723 4.02356e-20 0)
(0.000349132 -2.83813e-05 1.40749e-19 -0.000103814 4.79783e-20 0)
(0.00030791 -1.86184e-05 6.6938e-20 -9.06547e-05 2.53298e-20 0)
(0.000317875 -3.53513e-06 7.09609e-20 -9.43197e-05 2.83841e-20 0)
(0.00028541 -1.02935e-06 1.43817e-20 -8.30992e-05 2.71317e-21 0)
(0.000294795 1.14291e-05 2.76569e-20 -8.85251e-05 6.23584e-21 0)
(0.000268432 9.97182e-06 4.18103e-20 -7.8829e-05 1.90199e-20 0)
(0.000277198 2.03506e-05 7.91704e-21 -8.49696e-05 -1.19617e-21 0)
(0.000255239 1.67723e-05 -7.57218e-21 -7.65201e-05 7.55184e-22 0)
(0.00026339 2.55139e-05 -1.49693e-20 -8.27905e-05 -2.96128e-22 0)
(0.000244692 2.0864e-05 1.16612e-20 -7.53786e-05 8.98735e-21 0)
(0.000252256 2.83234e-05 2.85878e-20 -8.14498e-05 1.98355e-20 0)
(0.000236027 2.31974e-05 -4.51681e-21 -7.49314e-05 4.38701e-22 0)
(0.000243043 2.96678e-05 -7.0939e-21 -8.05788e-05 -9.88577e-21 0)
(0.000228743 2.43775e-05 -3.4766e-20 -7.49428e-05 -2.49557e-20 0)
(0.000234922 3.04582e-05 1.38842e-20 -7.98377e-05 8.4201e-21 0)
(0.000385623 -0.000196146 4.66833e-20 -0.000122272 -1.85161e-21 1.09458e-35)
(0.000405681 -0.00016187 -2.83799e-21 -0.000120461 1.94185e-21 0)
(0.000354153 -0.000108885 -8.43515e-20 -0.000112405 -2.83274e-20 0)
(0.00036555 -8.41289e-05 -7.75969e-20 -0.000112122 -2.86441e-20 0)
(0.000324938 -5.71109e-05 -5.40854e-20 -0.000103176 -2.31533e-20 0)
(0.000336547 -3.79804e-05 -3.09655e-20 -0.000107135 -1.32321e-20 0)
(0.00030308 -2.49488e-05 -2.47271e-21 -9.78435e-05 -1.81777e-21 0)
(0.00031439 -1.00214e-05 1.10368e-20 -0.000103708 5.28959e-21 0)
(0.000286158 -4.71494e-06 4.08848e-20 -9.47242e-05 1.97647e-20 0)
(0.000296904 7.06148e-06 1.05099e-19 -0.000101206 5.55504e-20 0)
(0.000272666 8.04028e-06 2.11832e-20 -9.28574e-05 1.04864e-20 0)
(0.000282738 1.74529e-05 2.31161e-20 -9.92936e-05 1.15519e-20 0)
(0.000261618 1.60176e-05 1.3335e-20 -9.16923e-05 1.03028e-20 0)
(0.000270994 2.36458e-05 0 -9.77552e-05 0 0)
(0.000252339 2.08993e-05 1.78194e-20 -9.09089e-05 1.10012e-20 0)
(0.000261045 2.71758e-05 4.73949e-20 -9.64384e-05 3.42336e-20 0)
(0.000244356 2.37554e-05 1.4483e-21 -9.03265e-05 9.20914e-21 0)
(0.000252441 2.90216e-05 -1.35868e-20 -9.52074e-05 -1.14539e-20 0)
(0.000237356 2.52696e-05 -4.16896e-20 -8.98943e-05 -3.04371e-20 0)
(0.000244467 3.02656e-05 -2.27158e-20 -9.38711e-05 -1.12225e-20 0)
(0.000325828 -0.00021178 5.44759e-20 -8.30032e-05 -1.13506e-20 1.06528e-35)
(0.00034815 -0.000172496 4.42483e-20 -9.25812e-05 4.61066e-21 0)
(0.000321886 -0.000120512 -5.14368e-20 -9.80483e-05 -1.74266e-20 0)
(0.000334216 -9.41725e-05 1.10513e-19 -0.000104303 4.28051e-20 0)
(0.000308353 -6.63649e-05 2.60616e-20 -0.000102764 2.51731e-20 0)
(0.000321094 -4.72145e-05 6.2312e-20 -0.000110493 3.25516e-20 0)
(0.000296225 -3.26424e-05 6.09603e-20 -0.00010556 3.27832e-20 0)
(0.000308667 -1.83923e-05 -5.11896e-20 -0.000113301 -2.70398e-20 0)
(0.000285435 -1.12481e-05 -5.17431e-20 -0.000107071 -2.91038e-20 0)
(0.000297228 -4.80746e-07 -6.50417e-20 -0.000114191 -3.55757e-20 0)
(0.000275826 2.41161e-06 -5.41353e-20 -0.000107697 -3.08773e-20 0)
(0.000286835 1.0668e-05 -2.42899e-20 -0.00011398 -1.35126e-20 0)
(0.000267222 1.11109e-05 1.56598e-20 -0.000107711 4.07485e-21 0)
(0.000277426 1.75296e-05 1.71015e-20 -0.000113122 4.12438e-21 0)
(0.00025945 1.65731e-05 -3.23788e-20 -0.00010729 -1.44019e-20 0)
(0.000268888 2.16308e-05 -9.08687e-20 -0.000111858 -5.41998e-20 0)
(0.000252343 1.98943e-05 -1.5795e-20 -0.000106558 -2.88046e-21 0)
(0.000261083 2.39469e-05 -6.41969e-20 -0.000110294 -3.85633e-20 0)
(0.000245783 2.17814e-05 -3.25921e-20 -0.000105641 -2.32713e-20 0)
(0.000253441 2.56534e-05 -1.20665e-20 -0.000108413 -1.93064e-21 0)
(0.000263464 -0.000213968 5.77115e-20 -4.46875e-05 -8.09139e-21 5.27976e-36)
(0.000289053 -0.000171917 -8.92419e-20 -6.67052e-05 -9.65337e-21 0)
(0.000287018 -0.000126494 1.89744e-20 -8.41843e-05 -2.77501e-20 0)
(0.000300493 -9.97693e-05 -6.09519e-20 -9.70188e-05 -5.56512e-20 0)
(0.000289205 -7.4335e-05 -5.79989e-20 -0.000102395 -3.84466e-22 0)
(0.000302904 -5.5884e-05 8.99884e-20 -0.000113564 4.66887e-20 0)
(0.000286873 -4.16145e-05 5.25083e-20 -0.000112993 2.82693e-20 0)
(0.00030012 -2.84408e-05 9.90372e-20 -0.000122151 6.09619e-20 0)
(0.000282326 -2.05615e-05 6.36064e-20 -0.000118916 3.98313e-20 0)
(0.000294771 -1.09853e-05 7.69705e-20 -0.000126184 4.676e-20 0)
(0.000276742 -6.84988e-06 8.991e-20 -0.000121902 5.68932e-20 0)
(0.000288266 2.13669e-07 3.35914e-20 -0.000127553 1.90185e-20 0)
(0.000270752 2.12225e-06 -3.12787e-20 -0.000123021 -1.72323e-20 0)
(0.000281351 7.39092e-06 -1.83201e-20 -0.000127339 -5.63496e-21 0)
(0.000264677 7.96703e-06 2.37034e-20 -0.000122935 1.40921e-20 0)
(0.000274408 1.19231e-05 1.23257e-20 -0.000126154 2.76094e-21 0)
(0.000258658 1.17093e-05 -4.05775e-20 -0.000122056 -1.72737e-20 0)
(0.000267604 1.46814e-05 -6.22566e-20 -0.000124325 -4.08792e-20 0)
(0.000252752 1.40186e-05 -4.52649e-20 -0.000120666 -3.65711e-20 0)
(0.000260516 1.68267e-05 -2.88243e-20 -0.000122004 -1.4225e-20 0)
(0.000202568 -0.000203257 -5.25847e-21 -1.08303e-05 1.88166e-20 -7.28241e-36)
(0.000231893 -0.000160942 -6.59635e-20 -4.54742e-05 3.38552e-21 0)
(0.000251223 -0.000126961 1.1225e-19 -7.19742e-05 4.81341e-20 0)
(0.000265789 -0.000101015 -3.83197e-20 -9.10224e-05 -1.36484e-21 0)
(0.000267862 -8.08631e-05 -2.6922e-20 -0.000101984 -3.5039e-21 0)
(0.00028219 -6.37078e-05 -8.57287e-21 -0.000116048 7.18229e-21 0)
(0.000274626 -5.15369e-05 3.4685e-21 -0.000119343 -5.82397e-21 0)
(0.000288268 -3.96866e-05 -5.65197e-20 -0.00012936 -3.40953e-20 0)
(0.00027598 -3.22274e-05 -8.30869e-20 -0.000129061 -4.97676e-20 0)
(0.000288651 -2.38663e-05 -5.41666e-20 -0.00013595 -3.33403e-20 0)
(0.0002743 -1.92583e-05 -5.04337e-20 -0.000134052 -3.1382e-20 0)
(0.000285918 -1.32679e-05 -3.50794e-20 -0.000138595 -2.03895e-20 0)
(0.000270944 -1.04256e-05 0 -0.000136092 0 0)
(0.000281528 -6.09315e-06 3.69184e-20 -0.000138898 2.72154e-20 0)
(0.000266696 -4.36665e-06 2.48284e-20 -0.000136276 1.49255e-20 0)
(0.000276309 -1.23921e-06 1.31944e-20 -0.000137794 3.40187e-21 0)
(0.000261989 -2.19934e-07 -2.44335e-20 -0.000135271 -5.91756e-21 0)
(0.000270705 1.96363e-06 -3.42368e-20 -0.000135801 -1.73731e-20 0)
(0.000257046 2.58289e-06 -2.28796e-20 -0.000133482 -2.3377e-20 0)
(0.000264428 4.51278e-06 3.24384e-21 -0.000133186 4.06349e-22 0)
(0.000146868 -0.000181316 -9.6351e-20 1.54891e-05 -9.17685e-23 -7.42176e-37)
(0.000179757 -0.000141222 6.42315e-20 -3.10824e-05 -1.05343e-20 0)
(0.00021611 -0.000122419 -1.02484e-19 -6.24471e-05 3.54928e-20 0)
(0.000231449 -9.82789e-05 3.45855e-20 -8.69621e-05 5.03432e-20 0)
(0.000244767 -8.57958e-05 -1.28384e-20 -0.000101467 -1.27822e-20 0)
(0.000259278 -7.03609e-05 3.97419e-20 -0.000117717 1.77775e-20 0)
(0.000259241 -6.18773e-05 0 -0.000123923 0 0)
(0.000272834 -5.14312e-05 0 -0.000134204 0 0)
(0.000265734 -4.55053e-05 0 -0.00013646 0 0)
(0.000278228 -3.82322e-05 -2.916e-20 -0.000142476 -1.7153e-20 0)
(0.00026757 -3.39668e-05 0 -0.000142904 0 0)
(0.000278928 -2.8792e-05 -1.66236e-20 -0.000145909 -1.12797e-20 0)
(0.000266693 -2.56336e-05 -2.57982e-20 -0.000145573 -1.53533e-20 0)
(0.000276948 -2.18905e-05 -2.06739e-20 -0.000146478 -7.6151e-21 0)
(0.000264285 -1.94919e-05 -7.47822e-21 -0.000145899 -2.51493e-21 0)
(0.000273489 -1.67773e-05 -6.60668e-21 -0.000145382 -9.5594e-21 0)
(0.000261085 -1.49028e-05 3.02106e-22 -0.000144769 -5.65484e-22 0)
(0.000269258 -1.30425e-05 -4.53732e-20 -0.000143361 -2.81177e-20 0)
(0.000257547 -1.14434e-05 -2.48433e-20 -0.000142697 -1.48341e-20 0)
(0.00026412 -1.0044e-05 -1.11761e-21 -0.000140777 7.90768e-21 0)
(9.94288e-05 -0.000150729 8.47364e-20 3.19215e-05 5.96437e-21 -1.78699e-36)
(0.000135091 -0.000115064 1.07632e-19 -2.50628e-05 4.58499e-20 0)
(0.000183099 -0.0001137 7.23572e-21 -5.6396e-05 2.04543e-20 0)
(0.000198675 -9.21654e-05 -1.14318e-19 -8.53154e-05 -9.4738e-21 0)
(0.000220445 -8.89959e-05 -1.74083e-20 -0.000100813 -4.59671e-20 0)
(0.000234625 -7.55044e-05 -5.15207e-20 -0.000118457 -4.86056e-20 0)
(0.000240708 -7.19457e-05 -5.77163e-20 -0.000126236 -3.34904e-20 0)
(0.00025383 -6.283e-05 -2.24667e-21 -0.000136245 -9.21906e-21 0)
(0.000251244 -5.94148e-05 4.63511e-21 -0.000140358 6.97629e-21 0)
(0.000263237 -5.29919e-05 9.55194e-20 -0.000145143 5.59521e-20 0)
(0.000255967 -4.98797e-05 0 -0.00014755 0 0)
(0.000266825 -4.51771e-05 2.56635e-20 -0.000148728 1.5429e-20 0)
(0.000257175 -4.24156e-05 -7.023e-20 -0.000150451 -3.83889e-20 0)
(0.000266919 -3.8807e-05 -5.62445e-20 -0.000149044 -3.09263e-20 0)
(0.000256308 -3.642e-05 2.8265e-20 -0.00015068 8.97632e-21 0)
(0.000264904 -3.34672e-05 4.82179e-20 -0.000147278 2.83347e-20 0)
(0.000254379 -3.14907e-05 4.51148e-20 -0.000149253 2.74721e-20 0)
(0.000261609 -2.88956e-05 -3.18279e-21 -0.00014418 -8.52785e-21 0)
(0.000252311 -2.73035e-05 -4.5323e-20 -0.000146797 -1.83413e-20 0)
(0.000256962 -2.48187e-05 -9.02768e-20 -0.000139929 -5.07054e-20 0)
(6.24001e-05 -0.000114713 5.26856e-20 3.70672e-05 -5.17288e-20 2.60169e-36)
(9.95266e-05 -8.51913e-05 -3.63616e-21 -2.81218e-05 -9.23236e-20 0)
(0.000153323 -0.000101873 -2.1128e-20 -5.42944e-05 -1.34904e-20 0)
(0.000168447 -8.34308e-05 3.94395e-20 -8.63085e-05 5.23064e-20 0)
(0.000195495 -9.03354e-05 -1.71615e-20 -0.000100025 -1.82414e-20 0)
(0.000208812 -7.87856e-05 -5.74437e-20 -0.00011825 -3.46033e-20 0)
(0.000219344 -8.09186e-05 -2.21858e-20 -0.000126044 -1.62907e-20 0)
(0.000231611 -7.29368e-05 -6.62902e-20 -0.000135403 -3.05389e-20 0)
(0.000232704 -7.27474e-05 -6.92191e-20 -0.000140412 -3.82627e-20 0)
(0.00024395 -6.69587e-05 -9.29885e-20 -0.000144018 -5.38069e-20 0)
(0.000239661 -6.56156e-05 -2.61685e-20 -0.000147642 -1.47806e-20 0)
(0.00024994 -6.13214e-05 -8.81428e-20 -0.000147579 -4.88248e-20 0)
(0.000242592 -5.93945e-05 4.77214e-20 -0.00015043 2.80271e-20 0)
(0.000252002 -5.62562e-05 -1.43502e-20 -0.000148149 -1.00812e-20 0)
(0.000242962 -5.39642e-05 -4.77233e-20 -0.000150417 -2.71467e-20 0)
(0.000251587 -5.19474e-05 -2.21738e-20 -0.000147093 -5.99368e-21 0)
(0.00024183 -4.91473e-05 6.68123e-21 -0.000148641 1.87135e-21 0)
(0.000249622 -4.87034e-05 2.74855e-20 -0.000145819 1.38511e-20 0)
(0.000240252 -4.41868e-05 4.27e-20 -0.000145848 2.47929e-20 0)
(0.000245887 -4.9111e-05 1.45503e-20 -0.000144831 9.74152e-21 0)
(3.68594e-05 -7.67991e-05 -9.43061e-20 3.06083e-05 1.14497e-19 5.41364e-36)
(7.37905e-05 -5.44719e-05 -3.47031e-20 -4.00445e-05 7.84556e-20 0)
(0.000127526 -8.81254e-05 5.35004e-20 -5.6221e-05 -3.80302e-20 0)
(0.000141458 -7.28763e-05 1.52454e-20 -8.98391e-05 -2.69864e-20 0)
(0.000170516 -8.96952e-05 3.1465e-20 -9.91032e-05 3.24901e-20 0)
(0.000182481 -7.97806e-05 -3.20185e-21 -0.000117021 1.6935e-20 0)
(0.000195709 -8.78931e-05 -7.14658e-22 -0.000123347 -1.19698e-20 0)
(0.000206775 -8.05378e-05 -2.40992e-20 -0.000131544 -1.65403e-20 0)
(0.000210753 -8.41066e-05 -5.46546e-20 -0.000136695 -2.89021e-20 0)
(0.00022094 -7.82773e-05 -2.00308e-20 -0.000138773 -1.42212e-20 0)
(0.000219577 -7.94158e-05 -3.63466e-22 -0.000143424 1.01224e-22 0)
(0.000228867 -7.4614e-05 4.64528e-20 -0.000141706 2.33815e-20 0)
(0.000224504 -7.44512e-05 2.1207e-20 -0.000146109 8.20467e-21 0)
(0.000232889 -7.04146e-05 5.89661e-21 -0.000142116 1.2698e-21 0)
(0.000226997 -6.95148e-05 -2.15241e-20 -0.000146352 -6.02241e-21 0)
(0.000234421 -6.61491e-05 -3.49752e-20 -0.000141136 -1.51101e-20 0)
(0.000228038 -6.45253e-05 1.40785e-20 -0.000145203 3.19804e-21 0)
(0.000234208 -6.20037e-05 3.35615e-20 -0.000139523 1.39521e-20 0)
(0.000228165 -5.84931e-05 0 -0.000143255 0 0)
(0.000232957 -6.09899e-05 8.3429e-22 -0.000138074 -6.97396e-21 0)
(2.2773e-05 -4.04832e-05 -7.88762e-20 1.33439e-05 1.18576e-19 -5.01679e-37)
(5.77066e-05 -2.5676e-05 1.71779e-20 -5.97368e-05 8.97014e-20 0)
(0.000106016 -7.36413e-05 4.46137e-20 -6.18294e-05 -4.10236e-20 0)
(0.000118108 -6.13454e-05 1.11256e-20 -9.55625e-05 -2.8514e-20 0)
(0.000145989 -8.69877e-05 -5.30201e-21 -9.79891e-05 1.95031e-20 0)
(0.000156312 -7.82496e-05 3.22184e-20 -0.000114847 2.98664e-20 0)
(0.000170296 -9.20275e-05 6.68209e-20 -0.000118228 3.80224e-20 0)
(0.000180094 -8.48092e-05 7.04873e-20 -0.000124967 3.21051e-20 0)
(0.000185701 -9.21877e-05 1.05162e-19 -0.000129281 5.232e-20 0)
(0.000194933 -8.58706e-05 8.76294e-20 -0.00012981 4.56515e-20 0)
(0.000195566 -8.96694e-05 4.01652e-20 -0.000134785 1.92402e-20 0)
(0.000204133 -8.40083e-05 1.37898e-20 -0.000131538 7.18445e-21 0)
(0.000201868 -8.57484e-05 3.15138e-21 -0.000136917 6.01431e-22 0)
(0.000209698 -8.06339e-05 6.81296e-20 -0.000131411 3.36506e-20 0)
(0.000205843 -8.11031e-05 4.56254e-20 -0.000137 2.27389e-20 0)
(0.000212812 -7.65335e-05 3.39149e-20 -0.000130165 1.35599e-20 0)
(0.000208295 -7.59913e-05 -3.2348e-20 -0.000135765 -1.31095e-20 0)
(0.000214052 -7.22446e-05 1.23906e-21 -0.000128359 6.32591e-21 0)
(0.000209686 -7.0078e-05 7.63857e-20 -0.000133281 2.80087e-20 0)
(0.000214704 -7.14566e-05 4.52627e-20 -0.000127377 2.04528e-20 0)
(1.90731e-05 -8.92055e-06 -2.57663e-20 -1.28953e-05 9.89651e-21 4.9399e-36)
(5.02875e-05 -1.18378e-06 0 -8.5324e-05 0 0)
(8.87783e-05 -5.95074e-05 3.79651e-20 -7.04418e-05 8.25784e-21 0)
(9.85529e-05 -4.95962e-05 -3.29575e-20 -0.000102915 -9.6061e-21 0)
(0.0001225 -8.22058e-05 3.10877e-20 -9.66866e-05 2.98405e-20 0)
(0.000131073 -7.40345e-05 -2.8408e-20 -0.000111905 6.98622e-21 0)
(0.000144037 -9.27083e-05 0 -0.0001111 0 0)
(0.000152651 -8.50858e-05 -2.65544e-20 -0.000116266 -1.0678e-20 0)
(0.000158689 -9.60764e-05 -3.40854e-20 -0.000118825 -1.87944e-20 0)
(0.000167157 -8.88146e-05 -3.41601e-20 -0.000117959 -1.77457e-20 0)
(0.000168933 -9.53866e-05 -3.38882e-20 -0.000122526 -1.58806e-20 0)
(0.000177027 -8.84883e-05 -1.59525e-20 -0.00011806 -7.27279e-21 0)
(0.000176216 -9.24359e-05 -3.61833e-20 -0.000123771 -1.74647e-20 0)
(0.000183769 -8.59352e-05 -1.43059e-20 -0.000117185 -3.86615e-21 0)
(0.000181451 -8.8259e-05 0 -0.000123474 0 0)
(0.000188278 -8.22381e-05 7.22106e-21 -0.000115698 1.67698e-21 0)
(0.000185266 -8.34132e-05 -6.64244e-21 -0.000122104 -1.49834e-21 0)
(0.000191043 -7.8177e-05 -5.51545e-20 -0.000114035 -2.6057e-20 0)
(0.000188095 -7.76004e-05 -5.39608e-20 -0.000119905 -2.6753e-20 0)
(0.000193542 -7.75712e-05 -5.87383e-20 -0.000113533 -1.78198e-20 0)
(2.38056e-05 1.53892e-05 0 -4.54153e-05 0 0)
(4.98842e-05 1.72359e-05 4.60043e-20 -0.000114324 -4.90983e-21 0)
(7.55044e-05 -4.65956e-05 1.19307e-20 -8.1106e-05 2.16861e-20 0)
(8.2737e-05 -3.82372e-05 6.91621e-20 -0.000111172 4.02899e-20 0)
(0.000100644 -7.53822e-05 1.68424e-20 -9.52349e-05 3.37207e-20 0)
(0.000107581 -6.70927e-05 -4.4587e-21 -0.000108467 2.38285e-20 0)
(0.000118041 -8.95044e-05 -1.17874e-20 -0.000102586 -8.53278e-21 0)
(0.000125724 -8.09634e-05 -2.31205e-20 -0.000106271 -9.00108e-21 0)
(0.000131106 -9.50935e-05 0 -0.000106284 0 0)
(0.000139125 -8.65154e-05 -3.19784e-20 -0.000104364 -1.23916e-20 0)
(0.000141218 -9.57702e-05 3.0452e-20 -0.000107794 1.3096e-20 0)
(0.000149176 -8.73759e-05 -1.84758e-20 -0.000102607 -8.14271e-21 0)
(0.000149177 -9.36616e-05 1.87679e-20 -0.000107957 8.43432e-21 0)
(0.000156795 -8.56068e-05 -1.65433e-20 -0.000100915 -7.65498e-21 0)
(0.000155521 -9.00236e-05 -1.28826e-20 -0.000107249 -2.66666e-21 0)
(0.000162564 -8.24455e-05 -2.14973e-20 -9.92543e-05 -4.14503e-21 0)
(0.000160667 -8.55505e-05 2.15894e-20 -0.000105933 8.70982e-21 0)
(0.000166869 -7.8743e-05 3.55227e-20 -9.78571e-05 1.50102e-20 0)
(0.000164919 -7.99597e-05 -6.42574e-21 -0.00010425 -5.61421e-22 0)
(0.000171122 -7.84188e-05 1.41461e-20 -9.78302e-05 1.03301e-22 0)
(3.43696e-05 3.08398e-05 1.52035e-20 -8.09206e-05 4.5205e-20 -9.32891e-36)
(5.44015e-05 2.85933e-05 8.945e-21 -0.000143871 3.23707e-20 0)
(6.56756e-05 -3.54862e-05 1.53588e-20 -9.26988e-05 -3.59307e-20 0)
(7.04574e-05 -2.76795e-05 -2.34191e-20 -0.000119521 -5.00266e-20 0)
(8.10277e-05 -6.66051e-05 3.33206e-20 -9.37189e-05 4.37763e-20 0)
(8.66678e-05 -5.75154e-05 1.42538e-19 -0.000104869 8.41301e-20 0)
(9.35402e-05 -8.22402e-05 2.92674e-20 -9.34714e-05 1.09843e-20 0)
(0.000100701 -7.23482e-05 5.63715e-20 -9.59541e-05 2.60094e-20 0)
(0.000104527 -8.89164e-05 4.74147e-20 -9.28469e-05 2.27404e-20 0)
(0.000112513 -7.87674e-05 2.9979e-20 -9.03514e-05 1.49961e-20 0)
(0.000114179 -9.04108e-05 -8.71547e-21 -9.2018e-05 -3.5384e-21 0)
(0.0001224 -8.03956e-05 0 -8.67026e-05 0 0)
(0.000122596 -8.89492e-05 1.14171e-20 -9.10541e-05 2.92174e-21 0)
(0.000130657 -7.93052e-05 1.98882e-20 -8.42019e-05 7.20675e-21 0)
(0.000129901 -8.58469e-05 7.21857e-21 -8.99778e-05 4.9936e-21 0)
(0.000137529 -7.6731e-05 0 -8.23967e-05 0 0)
(0.000136264 -8.18316e-05 -2.56949e-20 -8.88028e-05 -8.03987e-21 0)
(0.000143278 -7.35172e-05 -2.89504e-21 -8.12966e-05 3.56023e-21 0)
(0.000141844 -7.66231e-05 2.46897e-20 -8.77367e-05 7.73466e-21 0)
(0.000149162 -7.35909e-05 3.40536e-20 -8.17185e-05 1.14657e-20 0)
(4.7816e-05 3.68823e-05 -1.69555e-20 -0.000115839 -8.90183e-20 -3.50056e-35)
(6.15487e-05 3.27707e-05 -4.05098e-20 -0.000170955 -9.22903e-20 0)
(5.86902e-05 -2.64197e-05 2.47335e-21 -0.000104062 2.34855e-20 0)
(6.14424e-05 -1.81297e-05 -1.69913e-20 -0.000127156 3.02365e-20 0)
(6.42455e-05 -5.60402e-05 -8.45567e-20 -9.22738e-05 -6.30375e-20 0)
(6.91347e-05 -4.55613e-05 -8.88156e-20 -0.000101482 -7.25804e-20 0)
(7.17741e-05 -7.1041e-05 -4.81493e-20 -8.46191e-05 -2.42647e-20 0)
(7.89505e-05 -5.94778e-05 -3.18002e-20 -8.62971e-05 -2.23098e-20 0)
(8.05697e-05 -7.76203e-05 -8.05979e-21 -7.98006e-05 -1.03414e-21 0)
(8.90129e-05 -6.57817e-05 3.65112e-20 -7.72897e-05 1.65479e-20 0)
(8.96425e-05 -7.93486e-05 -2.41541e-20 -7.67312e-05 -9.29897e-21 0)
(9.85502e-05 -6.7741e-05 -1.6424e-20 -7.19254e-05 -6.34224e-21 0)
(9.83755e-05 -7.83209e-05 -1.88825e-20 -7.47156e-05 -9.09055e-21 0)
(0.000107245 -6.72048e-05 0 -6.86907e-05 0 0)
(0.00010648 -7.57409e-05 0 -7.33217e-05 0 0)
(0.000115016 -6.52576e-05 -1.28458e-20 -6.67407e-05 -8.21643e-21 0)
(0.000113874 -7.22622e-05 -2.7571e-20 -7.23148e-05 -7.42367e-21 0)
(0.000122011 -6.26576e-05 -4.84352e-20 -6.58853e-05 -1.95633e-20 0)
(0.000120595 -6.75869e-05 -1.89845e-20 -7.18732e-05 -1.00716e-20 0)
(0.000129332 -6.32345e-05 -2.79372e-20 -6.66942e-05 -9.22667e-21 0)
(6.11836e-05 3.41367e-05 1.61348e-20 -0.000146713 1.16755e-19 -6.62812e-35)
(6.90832e-05 3.05017e-05 5.10253e-20 -0.000192578 9.77775e-20 0)
(5.40542e-05 -1.93189e-05 1.97477e-20 -0.000114206 6.8959e-21 0)
(5.54091e-05 -9.73084e-06 7.17414e-21 -0.000133356 1.68916e-20 0)
(5.07632e-05 -4.40132e-05 1.42296e-20 -9.10489e-05 6.64624e-21 0)
(5.56196e-05 -3.16246e-05 0 -9.84588e-05 0 0)
(5.38337e-05 -5.63377e-05 -6.55432e-21 -7.68378e-05 -6.40445e-21 0)
(6.17175e-05 -4.28642e-05 -1.52493e-20 -7.81832e-05 -9.05897e-21 0)
(6.07865e-05 -6.16593e-05 -3.70932e-20 -6.83921e-05 -1.68215e-20 0)
(7.02224e-05 -4.81772e-05 -2.17771e-20 -6.65335e-05 -1.00864e-20 0)
(6.93652e-05 -6.31054e-05 6.51811e-21 -6.34256e-05 2.30062e-21 0)
(7.93687e-05 -5.01003e-05 0 -5.98265e-05 0 0)
(7.8341e-05 -6.23402e-05 -3.80837e-20 -6.05268e-05 -1.26522e-20 0)
(8.83269e-05 -5.00258e-05 -2.35162e-20 -5.59934e-05 -6.63709e-21 0)
(8.70696e-05 -6.02967e-05 2.61256e-20 -5.88624e-05 4.15725e-21 0)
(9.67448e-05 -4.87525e-05 3.07232e-20 -5.38647e-05 1.24959e-20 0)
(9.52472e-05 -5.74379e-05 2.18138e-20 -5.79914e-05 1.17334e-20 0)
(0.000104681 -4.68525e-05 1.74104e-20 -5.30718e-05 7.83599e-21 0)
(0.000102805 -5.33916e-05 -5.49442e-21 -5.80944e-05 -4.75713e-22 0)
(0.000113157 -4.79082e-05 -1.74157e-21 -5.40785e-05 7.91404e-21 0)
(7.1944e-05 2.45753e-05 -1.51014e-20 -0.000170821 -7.57731e-20 -2.06693e-35)
(7.48168e-05 2.2838e-05 -2.94563e-20 -0.000205713 -5.358e-20 0)
(5.13934e-05 -1.40961e-05 -8.33179e-21 -0.000122566 -8.94556e-21 0)
(5.17895e-05 -2.33875e-06 3.07749e-22 -0.000136503 -1.0558e-21 0)
(4.03915e-05 -3.11357e-05 -2.17383e-21 -8.99804e-05 -8.21138e-22 0)
(4.65448e-05 -1.59724e-05 0 -9.54964e-05 0 0)
(4.07505e-05 -3.8657e-05 -6.14947e-21 -7.07889e-05 -4.29948e-21 0)
(5.01998e-05 -2.32132e-05 -8.11782e-21 -7.25977e-05 -8.12238e-21 0)
(4.65564e-05 -4.189e-05 1.06246e-20 -5.9706e-05 5.23057e-21 0)
(5.75894e-05 -2.69448e-05 -2.46115e-22 -5.94697e-05 1.99719e-21 0)
(5.48723e-05 -4.26778e-05 -1.27368e-20 -5.33645e-05 -3.80895e-21 0)
(6.63958e-05 -2.85895e-05 -8.23848e-21 -5.19771e-05 -4.26601e-21 0)
(6.40775e-05 -4.20747e-05 2.46284e-20 -4.98231e-05 9.91164e-21 0)
(7.5454e-05 -2.89611e-05 1.12476e-20 -4.77655e-05 7.18291e-21 0)
(7.32861e-05 -4.06375e-05 -5.00517e-21 -4.79358e-05 -8.67298e-22 0)
(8.41985e-05 -2.85149e-05 0 -4.54485e-05 0 0)
(8.20156e-05 -3.85434e-05 2.69881e-20 -4.7115e-05 8.82841e-21 0)
(9.25748e-05 -2.75463e-05 2.0251e-20 -4.44231e-05 7.87989e-21 0)
(9.00916e-05 -3.51971e-05 -1.96572e-20 -4.76175e-05 -5.36855e-22 0)
(0.000101638 -2.91953e-05 -2.40712e-20 -4.52531e-05 -7.09609e-21 0)
(8.19566e-05 1.18023e-05 -6.30168e-21 -0.000189116 -1.28678e-20 -5.76008e-36)
(7.07684e-05 1.47735e-05 -1.15791e-20 -0.000200542 -2.66197e-20 0)
(4.47119e-05 -1.29905e-05 0 -0.000127319 0 0)
(4.40845e-05 7.18871e-06 3.00524e-21 -0.000129759 -3.13703e-21 0)
(3.37735e-05 -1.69948e-05 7.57623e-22 -8.89988e-05 -2.74356e-21 0)
(3.82426e-05 2.38417e-06 0 -9.10814e-05 0 0)
(3.34705e-05 -1.91101e-05 2.77175e-21 -6.69957e-05 5.32845e-21 0)
(4.11878e-05 -7.76148e-07 2.63109e-21 -6.88317e-05 -2.38513e-21 0)
(3.89969e-05 -1.97752e-05 9.79466e-22 -5.43358e-05 -2.21561e-21 0)
(4.82018e-05 -2.77344e-06 -3.04974e-21 -5.59309e-05 2.22158e-21 0)
(4.73182e-05 -1.96425e-05 4.47898e-22 -4.71752e-05 5.61262e-21 0)
(5.69687e-05 -3.9908e-06 3.5572e-21 -4.85309e-05 -2.1407e-21 0)
(5.67204e-05 -1.90783e-05 -6.29907e-21 -4.32452e-05 -6.38667e-21 0)
(6.62956e-05 -4.65247e-06 -6.52849e-21 -4.43724e-05 -4.5076e-21 0)
(6.6199e-05 -1.82443e-05 -8.58616e-21 -4.11578e-05 -4.00012e-21 0)
(7.56284e-05 -4.82238e-06 2.27949e-21 -4.20451e-05 -8.32374e-21 0)
(7.50776e-05 -1.70029e-05 -3.04957e-21 -4.0137e-05 -1.05372e-20 0)
(8.49687e-05 -4.22911e-06 -1.1929e-20 -4.05231e-05 -1.88187e-21 0)
(8.28499e-05 -1.41091e-05 -1.21122e-20 -4.05974e-05 -2.08515e-21 0)
(9.59079e-05 -4.46041e-06 1.31638e-20 -4.01204e-05 -4.2598e-21 0)
(8.94323e-05 -4.73146e-06 1.86168e-20 -4.15863e-05 -9.9848e-22 0)
(0.000103057 -1.21473e-05 -3.99379e-21 -4.26892e-05 2.5769e-22 0)
(9.51713e-05 -2.8384e-05 4.90772e-21 -4.39921e-05 2.31548e-21 0)
(0.000108277 -3.12871e-05 2.58141e-20 -4.67483e-05 7.14748e-21 0)
(0.000106416 -4.67572e-05 -1.03805e-20 -5.16508e-05 -8.66583e-21 0)
(0.000118661 -4.7918e-05 -2.0902e-20 -5.54719e-05 -1.4565e-20 0)
(0.0001227 -6.16183e-05 7.57744e-21 -6.29638e-05 7.91679e-21 0)
(0.000132998 -6.12784e-05 1.1102e-20 -6.76651e-05 7.24284e-21 0)
(0.000142583 -7.17014e-05 -1.13361e-20 -7.68874e-05 -3.62444e-21 0)
(0.000150431 -7.02462e-05 0 -8.21168e-05 0 0)
(0.000164586 -7.64667e-05 2.8252e-20 -9.20442e-05 1.1226e-20 0)
(0.000169661 -7.42787e-05 3.04153e-20 -9.75058e-05 1.64363e-20 0)
(0.000187083 -7.57968e-05 -3.22073e-20 -0.000107017 -1.43614e-20 0)
(0.000189292 -7.32885e-05 -2.42084e-21 -0.000112474 -9.91909e-21 0)
(0.000208442 -7.00727e-05 -3.22383e-20 -0.000120467 -1.60584e-21 0)
(0.000207885 -6.7636e-05 -1.4604e-20 -0.000125721 -6.21188e-21 0)
(0.000227062 -6.03208e-05 1.85788e-21 -0.000131237 -4.90454e-21 0)
(0.000224574 -5.84541e-05 1.38523e-20 -0.000136206 7.42102e-21 0)
(0.000241337 -4.72658e-05 1.28138e-20 -0.000138288 1.18209e-20 0)
(0.000235065 -4.73533e-05 -1.76023e-20 -0.000142443 -9.61154e-21 0)
(0.000100252 -3.58183e-06 -6.76407e-21 -4.26102e-05 -2.08136e-21 0)
(0.000109092 -1.27927e-05 8.54797e-21 -4.45344e-05 -8.26885e-22 0)
(0.000104033 -2.28809e-05 7.12548e-21 -4.55439e-05 -1.23088e-21 0)
(0.000113823 -2.9429e-05 -7.23272e-21 -4.8148e-05 8.67291e-22 0)
(0.000113549 -3.91404e-05 6.7348e-21 -5.21417e-05 9.41162e-21 0)
(0.000122565 -4.43587e-05 2.0974e-20 -5.56836e-05 7.5281e-21 0)
(0.000127094 -5.27213e-05 -1.28587e-20 -6.16698e-05 -1.12958e-20 0)
(0.00013467 -5.6648e-05 3.00356e-21 -6.61601e-05 -4.19943e-21 0)
(0.000143779 -6.25623e-05 1.09619e-20 -7.35845e-05 3.78222e-21 0)
(0.000149507 -6.53799e-05 0 -7.86998e-05 0 0)
(0.000162456 -6.80658e-05 1.3995e-20 -8.68523e-05 3.45182e-21 0)
(0.000166108 -7.0012e-05 -2.72877e-20 -9.22677e-05 -8.40812e-21 0)
(0.000181853 -6.90253e-05 1.22901e-21 -0.000100343 -1.0288e-21 0)
(0.000183398 -7.03719e-05 1.35886e-20 -0.000105776 5.17159e-21 0)
(0.000200712 -6.56273e-05 -2.54754e-21 -0.000112963 -9.47499e-21 0)
(0.000200193 -6.66165e-05 -1.86843e-20 -0.00011815 -1.53294e-20 0)
(0.000217686 -5.86367e-05 -5.27126e-22 -0.000123702 1.11026e-21 0)
(0.000216132 -5.95415e-05 1.45485e-20 -0.00012874 6.38963e-21 0)
(0.000232759 -4.81213e-05 -2.18287e-20 -0.000131899 -3.18358e-20 0)
(0.00022587 -4.99487e-05 -5.22659e-20 -0.000135274 -4.63322e-20 0)
(0.000107999 -3.73733e-06 3.09953e-21 -4.26736e-05 1.25093e-20 0)
(0.000114623 -1.19734e-05 7.8501e-21 -4.45465e-05 1.30548e-20 0)
(0.0001107 -2.07168e-05 -1.54985e-20 -4.56079e-05 -8.83521e-21 0)
(0.000118825 -2.70633e-05 -4.9318e-21 -4.80033e-05 -7.64964e-21 0)
(0.000119036 -3.54497e-05 2.3906e-20 -5.16228e-05 3.62429e-21 0)