/*--------------------------------*- C++ -*----------------------------------*\
| =========                 |                                                 |
| \\      /  F ield         | OpenFOAM: The Open Source CFD Toolbox           |
|  \\    /   O peration     | Version:  v2012                                 |
|   \\  /    A nd           | Website:  www.openfoam.com                      |
|    \\/     M anipulation  |                                                 |
\*---------------------------------------------------------------------------*/
FoamFile
{
    version     2.0;
    format      ascii;
    class       volScalarField;
    location    "1";
    object      sigmaHyd;
}
// * * * * * * * * * * * * * * * * * * * * * * * * * * * * * * * * * * * * * //

dimensions      [1 -1 -2 0 0 0 0];


internalField   nonuniform List<scalar> 
2000
(
-1.88422e+07
-2.03442e+07
-1.65387e+07
-1.77714e+07
-1.5067e+07
-1.5792e+07
-1.38398e+07
-1.42403e+07
-1.28149e+07
-1.30086e+07
-1.19454e+07
-1.20137e+07
-1.12018e+07
-1.11961e+07
-1.05609e+07
-1.05134e+07
-1.00049e+07
-9.93488e+06
-9.52024e+06
-9.43697e+06
-1.77319e+07
-2.00632e+07
-1.59912e+07
-1.75281e+07
-1.47033e+07
-1.55622e+07
-1.35942e+07
-1.40431e+07
-1.2644e+07
-1.28433e+07
-1.18256e+07
-1.18762e+07
-1.11179e+07
-1.10814e+07
-1.05026e+07
-1.04168e+07
-9.96415e+06
-9.85263e+06
-9.4894e+06
-9.3625e+06
-1.71042e+07
-1.92685e+07
-1.55653e+07
-1.68764e+07
-1.42891e+07
-1.50453e+07
-1.32118e+07
-1.36313e+07
-1.22944e+07
-1.25128e+07
-1.15081e+07
-1.16085e+07
-1.08306e+07
-1.08628e+07
-1.02428e+07
-1.02371e+07
-9.72834e+06
-9.70507e+06
-9.27205e+06
-9.23996e+06
-1.6336e+07
-1.81094e+07
-1.4942e+07
-1.59493e+07
-1.37058e+07
-1.43102e+07
-1.26732e+07
-1.30407e+07
-1.18014e+07
-1.20324e+07
-1.10602e+07
-1.12134e+07
-1.04253e+07
-1.0535e+07
-9.87664e+06
-9.96369e+06
-9.39725e+06
-9.47708e+06
-8.9717e+06
-9.04656e+06
-1.53621e+07
-1.66378e+07
-1.4102e+07
-1.47833e+07
-1.29361e+07
-1.33824e+07
-1.19722e+07
-1.22898e+07
-1.1167e+07
-1.14157e+07
-1.04889e+07
-1.07009e+07
-9.91233e+06
-1.01056e+07
-9.41676e+06
-9.60204e+06
-8.98504e+06
-9.17193e+06
-8.60194e+06
-8.78474e+06
-1.41648e+07
-1.49082e+07
-1.30572e+07
-1.34116e+07
-1.19927e+07
-1.22851e+07
-1.11221e+07
-1.13964e+07
-1.04046e+07
-1.06772e+07
-9.8075e+06
-1.00832e+07
-9.30484e+06
-9.58445e+06
-8.87598e+06
-9.16004e+06
-8.50417e+06
-8.79604e+06
-8.17498e+06
-8.45995e+06
-1.2762e+07
-1.29703e+07
-1.18319e+07
-1.18693e+07
-1.08972e+07
-1.10448e+07
-1.0143e+07
-1.03815e+07
-9.53221e+06
-9.83429e+06
-9.03234e+06
-9.3749e+06
-8.61767e+06
-8.98404e+06
-8.26831e+06
-8.6481e+06
-7.96843e+06
-8.35793e+06
-7.70499e+06
-8.07984e+06
-1.11847e+07
-1.08745e+07
-1.04562e+07
-1.01947e+07
-9.6762e+06
-9.69161e+06
-9.05819e+06
-9.2696e+06
-8.5703e+06
-8.90755e+06
-8.18115e+06
-8.59384e+06
-7.86635e+06
-8.32011e+06
-7.60783e+06
-8.08006e+06
-7.3919e+06
-7.86937e+06
-7.20793e+06
-7.65575e+06
-9.47081e+06
-8.6727e+06
-8.96364e+06
-8.42842e+06
-8.35917e+06
-8.2577e+06
-7.89354e+06
-8.08677e+06
-7.54095e+06
-7.91891e+06
-7.2722e+06
-7.75941e+06
-7.06533e+06
-7.61074e+06
-6.90582e+06
-7.47292e+06
-6.7851e+06
-7.34401e+06
-6.69956e+06
-7.19503e+06
-7.6621e+06
-6.41829e+06
-7.39099e+06
-6.61265e+06
-6.9785e+06
-6.77644e+06
-6.6775e+06
-6.85912e+06
-6.4684e+06
-6.88879e+06
-6.32429e+06
-6.88897e+06
-6.22559e+06
-6.87607e+06
-6.16164e+06
-6.86152e+06
-6.13236e+06
-6.85001e+06
-6.155e+06
-6.82696e+06
-5.80226e+06
-4.16528e+06
-5.77667e+06
-4.79138e+06
-5.56907e+06
-5.28279e+06
-5.44251e+06
-5.61217e+06
-5.38368e+06
-5.82939e+06
-5.36777e+06
-5.97103e+06
-5.37612e+06
-6.05812e+06
-5.39846e+06
-6.09548e+06
-5.43605e+06
-6.05515e+06
-5.50689e+06
-5.89495e+06
-3.93562e+06
-1.96852e+06
-4.15946e+06
-3.01108e+06
-4.16572e+06
-3.81849e+06
-4.22111e+06
-4.38846e+06
-4.32006e+06
-4.79306e+06
-4.44228e+06
-5.08441e+06
-4.57304e+06
-5.2951e+06
-4.70429e+06
-5.44162e+06
-4.83203e+06
-5.52329e+06
-4.95306e+06
-5.53487e+06
-2.10682e+06
118427
-2.57753e+06
-1.31516e+06
-2.8e+06
-2.41882e+06
-3.0373e+06
-3.21576e+06
-3.29116e+06
-3.79884e+06
-3.54552e+06
-4.23471e+06
-3.78879e+06
-4.56676e+06
-4.01585e+06
-4.82109e+06
-4.23093e+06
-4.99881e+06
-4.45693e+06
-5.09407e+06
-360370
2.0438e+06
-1.06963e+06
254472
-1.50578e+06
-1.11812e+06
-1.92131e+06
-2.12244e+06
-2.32541e+06
-2.8699e+06
-2.70709e+06
-3.43975e+06
-3.05928e+06
-3.88404e+06
-3.38204e+06
-4.23385e+06
-3.68443e+06
-4.49214e+06
-3.97774e+06
-4.66722e+06
1.26057e+06
3.75897e+06
326764
1.65872e+06
-315555
51692.9
-901541
-1.13479e+06
-1.44797e+06
-2.02773e+06
-1.94968e+06
-2.71649e+06
-2.40446e+06
-3.25967e+06
-2.81586e+06
-3.69308e+06
-3.1928e+06
-4.02569e+06
-3.53903e+06
-4.27536e+06
2.71547e+06
5.21907e+06
1.57635e+06
2.86203e+06
740315
1.06176e+06
-4010.31
-276926
-681366
-1.29278e+06
-1.29272e+06
-2.08233e+06
-1.83992e+06
-2.70987e+06
-2.32887e+06
-3.21606e+06
-2.76856e+06
-3.61556e+06
-3.15627e+06
-3.9342e+06
3.968e+06
6.38204e+06
2.64667e+06
3.83327e+06
1.63499e+06
1.88691e+06
749290
428551
-44868.4
-683852
-753157
-1.55312e+06
-1.38016e+06
-2.24898e+06
-1.93422e+06
-2.81606e+06
-2.42431e+06
-3.27398e+06
-2.8421e+06
-3.65386e+06
4.9892e+06
7.20386e+06
3.50886e+06
4.54692e+06
2.35e+06
2.49895e+06
1.3419e+06
960501
443665
-215186
-346480
-1.13996e+06
-1.03916e+06
-1.88613e+06
-1.64542e+06
-2.50134e+06
-2.17325e+06
-3.01054e+06
-2.60811e+06
-3.44627e+06
5.76782e+06
7.63561e+06
4.15171e+06
4.94162e+06
2.89269e+06
2.85551e+06
1.75224e+06
1.30654e+06
767061
109685
-87950.8
-841095
-831507
-1.61516e+06
-1.47877e+06
-2.26042e+06
-2.03587e+06
-2.80885e+06
-2.47765e+06
-3.2891e+06
6.25096e+06
7.57014e+06
4.81876e+06
4.99767e+06
3.22148e+06
3.08226e+06
1.95564e+06
1.61256e+06
894768
450865
-8340.56
-492202
-786050
-1.27886e+06
-1.46073e+06
-1.95903e+06
-2.0382e+06
-2.59266e+06
-2.46473e+06
-3.25427e+06
-2.79102e+06
-3.52144e+06
-2.98545e+06
-3.58917e+06
-3.19461e+06
-3.68605e+06
-3.48461e+06
-3.81107e+06
-3.83223e+06
-3.98501e+06
-4.23163e+06
-4.20903e+06
-4.67051e+06
-4.48109e+06
-5.13192e+06
-4.7929e+06
-5.58979e+06
-5.15479e+06
-6.01119e+06
-5.40294e+06
-3.36247e+06
-3.76587e+06
-3.41187e+06
-3.83104e+06
-3.5821e+06
-3.90141e+06
-3.81644e+06
-3.99639e+06
-4.09469e+06
-4.13039e+06
-4.41024e+06
-4.30736e+06
-4.75477e+06
-4.52792e+06
-5.11868e+06
-4.78588e+06
-5.48238e+06
-5.09783e+06
-5.88351e+06
-5.28478e+06
-3.81066e+06
-4.08779e+06
-3.79707e+06
-4.13128e+06
-3.93242e+06
-4.17646e+06
-4.11829e+06
-4.24407e+06
-4.3396e+06
-4.34233e+06
-4.59034e+06
-4.47505e+06
-4.86478e+06
-4.64387e+06
-5.15736e+06
-4.8455e+06
-5.45367e+06
-5.09255e+06
-5.80939e+06
-5.23534e+06
-4.17939e+06
-4.403e+06
-4.13745e+06
-4.42932e+06
-4.24529e+06
-4.45303e+06
-4.39157e+06
-4.49644e+06
-4.56573e+06
-4.56415e+06
-4.76325e+06
-4.65917e+06
-4.98023e+06
-4.7834e+06
-5.21311e+06
-4.9357e+06
-5.45173e+06
-5.12356e+06
-5.75135e+06
-5.23109e+06
-4.5035e+06
-4.69803e+06
-4.44742e+06
-4.71257e+06
-4.53236e+06
-4.71972e+06
-4.64666e+06
-4.74274e+06
-4.78235e+06
-4.78477e+06
-4.93635e+06
-4.84822e+06
-5.10617e+06
-4.9349e+06
-5.28951e+06
-5.04463e+06
-5.47917e+06
-5.18022e+06
-5.72034e+06
-5.25478e+06
-4.79902e+06
-4.97339e+06
-4.73617e+06
-4.97979e+06
-4.80178e+06
-4.9745e+06
-4.88988e+06
-4.98073e+06
-4.99395e+06
-5.0013e+06
-5.112e+06
-5.03846e+06
-5.24273e+06
-5.09413e+06
-5.38486e+06
-5.1689e+06
-5.53398e+06
-5.26279e+06
-5.72554e+06
-5.31072e+06
-5.07468e+06
-5.23234e+06
-5.00903e+06
-5.2328e+06
-5.05831e+06
-5.21805e+06
-5.12454e+06
-5.21047e+06
-5.20215e+06
-5.21299e+06
-5.29e+06
-5.22797e+06
-5.38762e+06
-5.25746e+06
-5.49451e+06
-5.30254e+06
-5.60823e+06
-5.36211e+06
-5.75481e+06
-5.38591e+06
-5.33591e+06
-5.47837e+06
-5.26966e+06
-5.47418e+06
-5.30514e+06
-5.45201e+06
-5.35282e+06
-5.4329e+06
-5.40796e+06
-5.4201e+06
-5.47006e+06
-5.41615e+06
-5.53935e+06
-5.4233e+06
-5.61597e+06
-5.44295e+06
-5.69899e+06
-5.47349e+06
-5.80776e+06
-5.47598e+06
-5.58663e+06
-5.71462e+06
-5.52102e+06
-5.70654e+06
-5.54481e+06
-5.67823e+06
-5.5765e+06
-5.64929e+06
-5.6122e+06
-5.62325e+06
-5.65198e+06
-5.6029e+06
-5.69663e+06
-5.59072e+06
-5.74687e+06
-5.58841e+06
-5.8028e+06
-5.59442e+06
-5.87837e+06
-5.57864e+06
-5.82995e+06
-5.94386e+06
-5.76571e+06
-5.93225e+06
-5.7795e+06
-5.89861e+06
-5.79722e+06
-5.86102e+06
-5.8158e+06
-5.82325e+06
-5.83585e+06
-5.78839e+06
-5.85867e+06
-5.75918e+06
-5.88549e+06
-5.7376e+06
-5.91719e+06
-5.72251e+06
-5.96417e+06
-5.69053e+06
-6.06857e+06
-6.16852e+06
-6.00615e+06
-6.15351e+06
-6.0113e+06
-6.11496e+06
-6.0166e+06
-6.06946e+06
-6.01982e+06
-6.02102e+06
-6.02205e+06
-5.97297e+06
-6.02511e+06
-5.9284e+06
-6.0307e+06
-5.88958e+06
-6.04035e+06
-5.85591e+06
-6.06226e+06
-5.80924e+06
-6.30489e+06
-6.39075e+06
-6.24462e+06
-6.37231e+06
-6.24221e+06
-6.329e+06
-6.23627e+06
-6.27601e+06
-6.22541e+06
-6.2175e+06
-6.21124e+06
-6.15712e+06
-6.19599e+06
-6.09826e+06
-6.18184e+06
-6.0436e+06
-6.17089e+06
-5.99323e+06
-6.17011e+06
-5.93322e+06
-6.54119e+06
-6.61255e+06
-6.48335e+06
-6.59051e+06
-6.4742e+06
-6.54238e+06
-6.45791e+06
-6.482e+06
-6.43391e+06
-6.4137e+06
-6.40427e+06
-6.34137e+06
-6.37168e+06
-6.26874e+06
-6.33873e+06
-6.19887e+06
-6.30791e+06
-6.13257e+06
-6.28529e+06
-6.05942e+06
-6.77966e+06
-6.83581e+06
-6.72454e+06
-6.80989e+06
-6.70931e+06
-6.75669e+06
-6.68328e+06
-6.68879e+06
-6.64674e+06
-6.61063e+06
-6.60222e+06
-6.52642e+06
-6.55287e+06
-6.44013e+06
-6.50171e+06
-6.35511e+06
-6.45141e+06
-6.27283e+06
-6.4065e+06
-6.18705e+06
-7.02248e+06
-7.06239e+06
-6.97043e+06
-7.03218e+06
-6.94962e+06
-6.97349e+06
-6.91424e+06
-6.89768e+06
-6.86543e+06
-6.80936e+06
-6.80623e+06
-6.71302e+06
-6.74027e+06
-6.61309e+06
-6.67116e+06
-6.51342e+06
-6.60246e+06
-6.41609e+06
-6.53989e+06
-6.3166e+06
-7.27183e+06
-7.29421e+06
-7.22327e+06
-7.25923e+06
-7.19728e+06
-7.19447e+06
-7.15273e+06
-7.11012e+06
-7.09167e+06
-7.01091e+06
-7.01759e+06
-6.90167e+06
-6.93453e+06
-6.78722e+06
-6.84661e+06
-6.67182e+06
-6.75783e+06
-6.55806e+06
-6.67377e+06
-6.44248e+06
-7.52984e+06
-7.53359e+06
-7.48539e+06
-7.49328e+06
-7.45445e+06
-7.42174e+06
-7.4007e+06
-7.32799e+06
-7.3272e+06
-7.21688e+06
-7.23781e+06
-7.09359e+06
-7.137e+06
-6.9634e+06
-7.02939e+06
-6.83117e+06
-6.91959e+06
-6.70023e+06
-6.81415e+06
-6.56835e+06
-7.79813e+06
-7.78421e+06
-7.75883e+06
-7.73773e+06
-7.72264e+06
-7.65873e+06
-7.65945e+06
-7.55471e+06
-7.57317e+06
-7.43025e+06
-7.46775e+06
-7.29126e+06
-7.34816e+06
-7.14337e+06
-7.21939e+06
-6.99186e+06
-7.0862e+06
-6.84066e+06
-6.95354e+06
-6.68981e+06
-8.07649e+06
-8.0526e+06
-8.04332e+06
-7.99632e+06
-7.99937e+06
-7.91201e+06
-7.92723e+06
-7.79581e+06
-7.82737e+06
-7.65658e+06
-7.70504e+06
-7.50008e+06
-7.56558e+06
-7.33251e+06
-7.41451e+06
-7.15988e+06
-7.2573e+06
-6.98706e+06
-7.09899e+06
-6.81759e+06
-8.35698e+06
-8.30627e+06
-8.30903e+06
-8.27599e+06
-8.26427e+06
-8.18191e+06
-8.17987e+06
-8.05666e+06
-8.0653e+06
-7.90503e+06
-7.92529e+06
-7.73324e+06
-7.76528e+06
-7.54791e+06
-7.59109e+06
-7.3556e+06
-7.40877e+06
-7.16141e+06
-7.22224e+06
-6.96725e+06
-6.2679e+06
-6.05751e+06
-6.38482e+06
-6.33891e+06
-6.4767e+06
-6.49237e+06
-6.5228e+06
-6.58181e+06
-6.52892e+06
-6.62164e+06
-6.51195e+06
-6.62835e+06
-6.47133e+06
-6.60586e+06
-6.41305e+06
-6.5626e+06
-6.34357e+06
-6.4935e+06
-6.26334e+06
-6.41611e+06
-6.17517e+06
-6.32694e+06
-6.08189e+06
-6.23091e+06
-5.97741e+06
-6.12757e+06
-5.8731e+06
-6.0236e+06
-5.76518e+06
-5.91916e+06
-5.65564e+06
-5.81411e+06
-5.54598e+06
-5.71035e+06
-5.43916e+06
-5.61067e+06
-5.33529e+06
-5.51313e+06
-5.2475e+06
-5.40072e+06
-6.10015e+06
-5.76891e+06
-6.22651e+06
-6.0506e+06
-6.3098e+06
-6.23503e+06
-6.36434e+06
-6.35197e+06
-6.37952e+06
-6.41888e+06
-6.3755e+06
-6.45607e+06
-6.35162e+06
-6.45869e+06
-6.30937e+06
-6.43424e+06
-6.25747e+06
-6.39296e+06
-6.19261e+06
-6.33207e+06
-6.1201e+06
-6.26259e+06
-6.04787e+06
-6.17897e+06
-5.95387e+06
-6.09529e+06
-5.86033e+06
-6.01053e+06
-5.7705e+06
-5.92275e+06
-5.67678e+06
-5.83366e+06
-5.58376e+06
-5.74701e+06
-5.5e+06
-5.66323e+06
-5.41128e+06
-5.5813e+06
-5.34712e+06
-5.48553e+06
-5.96888e+06
-5.61663e+06
-6.1197e+06
-5.86557e+06
-6.20659e+06
-6.05052e+06
-6.2803e+06
-6.18043e+06
-6.28144e+06
-6.26742e+06
-6.27732e+06
-6.31401e+06
-6.27146e+06
-6.32718e+06
-6.23957e+06
-6.32161e+06
-6.19824e+06
-6.29569e+06
-6.14182e+06
-6.25206e+06
-6.07877e+06
-6.19885e+06
-6.03504e+06
-6.13046e+06
-5.93778e+06
-6.06905e+06
-5.8607e+06
-5.99639e+06
-5.78271e+06
-5.92206e+06
-5.70287e+06
-5.84823e+06
-5.62421e+06
-5.77657e+06
-5.55132e+06
-5.70697e+06
-5.48527e+06
-5.63942e+06
-5.43752e+06
-5.56025e+06
-5.88471e+06
-5.5395e+06
-6.03631e+06
-5.75245e+06
-6.11183e+06
-5.92251e+06
-6.18398e+06
-6.05168e+06
-6.15311e+06
-6.1432e+06
-6.21806e+06
-6.19433e+06
-6.20613e+06
-6.22219e+06
-6.18215e+06
-6.22709e+06
-6.14798e+06
-6.21407e+06
-6.10159e+06
-6.18602e+06
-6.04745e+06
-6.14513e+06
-5.99864e+06
-6.09694e+06
-5.92433e+06
-6.04357e+06
-5.8591e+06
-5.98356e+06
-5.80154e+06
-5.9211e+06
-5.7254e+06
-5.86105e+06
-5.66206e+06
-5.80088e+06
-5.60267e+06
-5.74357e+06
-5.5518e+06
-5.68856e+06
-5.51795e+06
-5.62418e+06
-5.83213e+06
-5.50332e+06
-5.92888e+06
-5.68861e+06
-6.06068e+06
-5.83972e+06
-6.11598e+06
-5.96073e+06
-6.14656e+06
-6.04704e+06
-6.16508e+06
-6.10369e+06
-6.15894e+06
-6.13753e+06
-6.14032e+06
-6.15033e+06
-6.11106e+06
-6.14641e+06
-6.07187e+06
-6.1284e+06
-6.02625e+06
-6.09864e+06
-5.97857e+06
-6.06143e+06
-5.92027e+06
-6.01865e+06
-5.86356e+06
-5.96998e+06
-5.80818e+06
-5.91998e+06
-5.7493e+06
-5.86984e+06
-5.69644e+06
-5.82007e+06
-5.64892e+06
-5.77326e+06
-5.61033e+06
-5.72879e+06
-5.58764e+06
-5.67707e+06
-5.81765e+06
-5.5055e+06
-5.96308e+06
-5.65865e+06
-6.03791e+06
-5.79263e+06
-6.08881e+06
-5.90032e+06
-6.11657e+06
-5.98103e+06
-6.12985e+06
-6.03722e+06
-6.12645e+06
-6.07263e+06
-6.11087e+06
-6.08962e+06
-6.08535e+06
-6.09137e+06
-6.05145e+06
-6.08036e+06
-6.01146e+06
-6.05886e+06
-5.96765e+06
-6.03006e+06
-5.91893e+06
-5.99617e+06
-5.86898e+06
-5.9572e+06
-5.82075e+06
-5.91706e+06
-5.77314e+06
-5.87497e+06
-5.72698e+06
-5.83456e+06
-5.68942e+06
-5.79628e+06
-5.66051e+06
-5.76035e+06
-5.6462e+06
-5.71909e+06
-5.84514e+06
-5.53326e+06
-5.95938e+06
-5.66264e+06
-6.02879e+06
-5.77601e+06
-6.07431e+06
-5.86889e+06
-6.09985e+06
-5.94038e+06
-6.11027e+06
-5.99185e+06
-6.10695e+06
-6.02555e+06
-6.09259e+06
-6.04349e+06
-6.06926e+06
-6.04809e+06
-6.03862e+06
-6.04149e+06
-6.00249e+06
-6.02568e+06
-5.96276e+06
-6.00279e+06
-5.92058e+06
-5.97563e+06
-5.87531e+06
-5.94322e+06
-5.83169e+06
-5.91174e+06
-5.78356e+06
-5.878e+06
-5.7537e+06
-5.84426e+06
-5.72408e+06
-5.81285e+06
-5.70225e+06
-5.7837e+06
-5.69365e+06
-5.75078e+06
-5.88321e+06
-5.58648e+06
-5.97972e+06
-5.69023e+06
-6.03824e+06
-5.78293e+06
-6.07621e+06
-5.86008e+06
-6.09681e+06
-5.9204e+06
-6.10359e+06
-5.96458e+06
-6.09858e+06
-5.99401e+06
-6.08382e+06
-6.01034e+06
-6.06119e+06
-6.01542e+06
-6.03227e+06
-6.011e+06
-5.9986e+06
-5.99867e+06
-5.96179e+06
-5.97984e+06
-5.92578e+06
-5.95641e+06
-5.88591e+06
-5.9312e+06
-5.84385e+06
-5.90574e+06
-5.8113e+06
-5.87713e+06
-5.77918e+06
-5.84963e+06
-5.75337e+06
-5.82375e+06
-5.73594e+06
-5.79967e+06
-5.73046e+06
-5.7731e+06
-5.93865e+06
-5.65719e+06
-6.01665e+06
-5.73651e+06
-6.06301e+06
-5.8086e+06
-6.09198e+06
-5.86957e+06
-6.10579e+06
-5.91753e+06
-6.10774e+06
-5.95246e+06
-6.09956e+06
-5.97568e+06
-6.08295e+06
-5.98843e+06
-6.05969e+06
-5.99204e+06
-6.03124e+06
-5.98795e+06
-5.9989e+06
-5.97708e+06
-5.96358e+06
-5.96132e+06
-5.93905e+06
-5.94094e+06
-5.89173e+06
-5.9214e+06
-5.85869e+06
-5.89834e+06
-5.82639e+06
-5.87485e+06
-5.79857e+06
-5.85175e+06
-5.77639e+06
-5.82982e+06
-5.76174e+06
-5.80931e+06
-5.75739e+06
-5.78731e+06
-6.00815e+06
-5.74109e+06
-6.06747e+06
-5.79716e+06
-6.10032e+06
-5.8489e+06
-6.11911e+06
-5.89441e+06
-6.12487e+06
-5.92832e+06
-6.12104e+06
-5.95257e+06
-6.1081e+06
-5.96825e+06
-6.08834e+06
-5.97592e+06
-6.06327e+06
-5.97651e+06
-6.03421e+06
-5.97133e+06
-6.00218e+06
-5.96047e+06
-5.96819e+06
-5.94596e+06
-5.93639e+06
-5.9294e+06
-5.89978e+06
-5.91117e+06
-5.86852e+06
-5.89094e+06
-5.83941e+06
-5.87068e+06
-5.81412e+06
-5.85073e+06
-5.79396e+06
-5.83177e+06
-5.78049e+06
-5.81371e+06
-5.77563e+06
-5.79482e+06
-6.08933e+06
-5.83491e+06
-6.12993e+06
-5.86917e+06
-6.14776e+06
-5.904e+06
-6.15364e+06
-5.93046e+06
-6.15388e+06
-5.94904e+06
-6.14129e+06
-5.96238e+06
-6.12242e+06
-5.96952e+06
-6.09831e+06
-5.97103e+06
-6.07036e+06
-5.96764e+06
-6.04011e+06
-5.96099e+06
-6.00928e+06
-5.94728e+06
-5.97147e+06
-5.93317e+06
-5.9398e+06
-5.91772e+06
-5.90711e+06
-5.90097e+06
-5.8771e+06
-5.88267e+06
-5.84985e+06
-5.86428e+06
-5.82581e+06
-5.84746e+06
-5.80661e+06
-5.83048e+06
-5.79316e+06
-5.81404e+06
-5.78658e+06
-5.79719e+06
-6.18023e+06
-5.93639e+06
-6.20329e+06
-5.94868e+06
-6.20902e+06
-5.96246e+06
-6.20807e+06
-5.97141e+06
-6.18806e+06
-5.97781e+06
-6.16667e+06
-5.97944e+06
-6.14081e+06
-5.97708e+06
-6.11125e+06
-5.97111e+06
-6.07907e+06
-5.96172e+06
-6.04594e+06
-5.9507e+06
-6.01202e+06
-5.9356e+06
-5.97943e+06
-5.92268e+06
-5.94542e+06
-5.90707e+06
-5.91309e+06
-5.89108e+06
-5.8839e+06
-5.86914e+06
-5.85731e+06
-5.85857e+06
-5.83399e+06
-5.84225e+06
-5.8151e+06
-5.82677e+06
-5.80081e+06
-5.81151e+06
-5.79179e+06
-5.79599e+06
-6.27647e+06
-6.03829e+06
-6.28151e+06
-6.03445e+06
-6.26366e+06
-6.03131e+06
-6.25136e+06
-6.02197e+06
-6.22506e+06
-6.01264e+06
-6.19504e+06
-6.00171e+06
-6.16164e+06
-5.98939e+06
-6.12603e+06
-5.97565e+06
-6.08921e+06
-5.96092e+06
-6.05121e+06
-5.94538e+06
-6.0178e+06
-5.9299e+06
-5.98047e+06
-5.91392e+06
-5.94746e+06
-5.89745e+06
-5.91641e+06
-5.88034e+06
-5.88764e+06
-5.8653e+06
-5.86227e+06
-5.85104e+06
-5.83914e+06
-5.83614e+06
-5.82001e+06
-5.82172e+06
-5.80454e+06
-5.80737e+06
-5.79286e+06
-5.79283e+06
-6.37023e+06
-6.15377e+06
-6.32496e+06
-6.13206e+06
-6.32456e+06
-6.09905e+06
-6.29966e+06
-6.07303e+06
-6.26462e+06
-6.04937e+06
-6.22481e+06
-6.02638e+06
-6.18294e+06
-6.00419e+06
-6.14043e+06
-5.98261e+06
-6.09822e+06
-5.96159e+06
-6.05745e+06
-5.94125e+06
-6.01951e+06
-5.92293e+06
-5.98173e+06
-5.90482e+06
-5.94763e+06
-5.88738e+06
-5.91622e+06
-5.8714e+06
-5.88758e+06
-5.85613e+06
-5.8629e+06
-5.84246e+06
-5.84068e+06
-5.82902e+06
-5.82163e+06
-5.81588e+06
-5.80528e+06
-5.80265e+06
-5.79136e+06
-5.78917e+06
-6.4898e+06
-6.26247e+06
-6.44771e+06
-6.20859e+06
-6.40918e+06
-6.1668e+06
-6.36022e+06
-6.12641e+06
-6.30794e+06
-6.08769e+06
-6.25492e+06
-6.05225e+06
-6.20332e+06
-6.01999e+06
-6.15301e+06
-5.99045e+06
-6.1051e+06
-5.96246e+06
-6.06012e+06
-5.93686e+06
-6.01802e+06
-5.91715e+06
-5.97908e+06
-5.89593e+06
-5.94427e+06
-5.87712e+06
-5.91265e+06
-5.86119e+06
-5.88477e+06
-5.84668e+06
-5.86067e+06
-5.83374e+06
-5.83935e+06
-5.82164e+06
-5.82074e+06
-5.80998e+06
-5.80411e+06
-5.79825e+06
-5.78885e+06
-5.78624e+06
-6.60574e+06
-6.36713e+06
-6.53213e+06
-6.30391e+06
-6.44645e+06
-6.24442e+06
-6.4037e+06
-6.17729e+06
-6.34321e+06
-6.12459e+06
-6.28115e+06
-6.07663e+06
-6.21992e+06
-6.03579e+06
-6.16174e+06
-5.99774e+06
-6.10762e+06
-5.96193e+06
-6.0575e+06
-5.93114e+06
-6.0112e+06
-5.91777e+06
-5.97156e+06
-5.88321e+06
-5.93572e+06
-5.86588e+06
-5.90464e+06
-5.85018e+06
-5.87778e+06
-5.83657e+06
-5.85485e+06
-5.82482e+06
-5.83499e+06
-5.81431e+06
-5.81761e+06
-5.8045e+06
-5.80176e+06
-5.79479e+06
-5.78659e+06
-5.7849e+06
-6.72472e+06
-6.47477e+06
-6.63699e+06
-6.3877e+06
-6.54862e+06
-6.30217e+06
-6.46891e+06
-6.22518e+06
-6.3841e+06
-6.15836e+06
-6.30524e+06
-6.09646e+06
-6.23188e+06
-6.06015e+06
-6.16463e+06
-5.99522e+06
-6.10297e+06
-5.95798e+06
-6.04705e+06
-5.92704e+06
-5.99885e+06
-5.89876e+06
-5.95686e+06
-5.87222e+06
-5.92187e+06
-5.85338e+06
-5.89153e+06
-5.83812e+06
-5.86612e+06
-5.82572e+06
-5.84507e+06
-5.81562e+06
-5.82745e+06
-5.80717e+06
-5.81237e+06
-5.79971e+06
-5.79869e+06
-5.79262e+06
-5.78551e+06
-5.7855e+06
-6.83339e+06
-6.57953e+06
-6.69624e+06
-6.47117e+06
-6.60559e+06
-6.36551e+06
-6.51176e+06
-6.27199e+06
-6.4136e+06
-6.18967e+06
-6.31957e+06
-6.121e+06
-6.2345e+06
-6.05658e+06
-6.15635e+06
-5.99746e+06
-6.09011e+06
-5.95248e+06
-6.03083e+06
-5.91427e+06
-5.98089e+06
-5.88434e+06
-5.9366e+06
-5.85855e+06
-5.90125e+06
-5.83923e+06
-5.87223e+06
-5.82471e+06
-5.84904e+06
-5.81391e+06
-5.83081e+06
-5.80599e+06
-5.81648e+06
-5.80016e+06
-5.80493e+06
-5.79563e+06
-5.79494e+06
-5.79186e+06
-5.78608e+06
-5.78773e+06
-6.94783e+06
-6.67858e+06
-6.82121e+06
-6.54374e+06
-6.68217e+06
-6.42355e+06
-6.55381e+06
-6.31462e+06
-6.43452e+06
-6.21785e+06
-6.32578e+06
-6.1316e+06
-6.22972e+06
-6.05851e+06
-6.14102e+06
-5.99456e+06
-6.06687e+06
-5.94231e+06
-6.00339e+06
-5.89981e+06
-5.95045e+06
-5.86677e+06
-5.90636e+06
-5.8411e+06
-5.87204e+06
-5.8223e+06
-5.84552e+06
-5.80915e+06
-5.82575e+06
-5.80055e+06
-5.81158e+06
-5.79545e+06
-5.80178e+06
-5.79288e+06
-5.79513e+06
-5.79176e+06
-5.79037e+06
-5.79161e+06
-5.7887e+06
-5.78824e+06
-7.04918e+06
-6.80248e+06
-6.8781e+06
-6.6501e+06
-6.7196e+06
-6.50764e+06
-6.57098e+06
-6.37772e+06
-6.43411e+06
-6.2613e+06
-6.31073e+06
-6.159e+06
-6.20177e+06
-6.07182e+06
-6.10664e+06
-5.99852e+06
-6.02735e+06
-5.93778e+06
-5.96103e+06
-5.88924e+06
-5.9074e+06
-5.85196e+06
-5.86523e+06
-5.8245e+06
-5.8339e+06
-5.80522e+06
-5.81149e+06
-5.79289e+06
-5.79661e+06
-5.78619e+06
-5.7879e+06
-5.78386e+06
-5.78389e+06
-5.78474e+06
-5.78309e+06
-5.78771e+06
-5.78331e+06
-5.79352e+06
-5.78805e+06
-5.79177e+06
-9.0996e+06
-9.01572e+06
-8.71366e+06
-8.63527e+06
-8.36595e+06
-8.29009e+06
-8.04991e+06
-7.97632e+06
-7.75953e+06
-7.68866e+06
-7.48984e+06
-7.42233e+06
-7.23688e+06
-7.17333e+06
-6.99739e+06
-6.93828e+06
-6.7686e+06
-6.71434e+06
-6.54807e+06
-6.49909e+06
-6.33363e+06
-6.29037e+06
-6.1233e+06
-6.0863e+06
-5.91517e+06
-5.88513e+06
-5.70746e+06
-5.68522e+06
-5.49835e+06
-5.48498e+06
-5.28606e+06
-5.28277e+06
-5.06886e+06
-5.07665e+06
-4.84541e+06
-4.86358e+06
-4.61583e+06
-4.63817e+06
-4.38631e+06
-4.42782e+06
-9.06759e+06
-8.96452e+06
-8.70842e+06
-8.60034e+06
-8.37566e+06
-8.26668e+06
-8.06961e+06
-7.96111e+06
-7.78585e+06
-7.67939e+06
-7.52053e+06
-7.41755e+06
-7.27045e+06
-7.17207e+06
-7.03281e+06
-6.93994e+06
-6.80513e+06
-6.71856e+06
-6.58519e+06
-6.50566e+06
-6.37093e+06
-6.29923e+06
-6.16041e+06
-6.09749e+06
-5.9518e+06
-5.89878e+06
-5.74327e+06
-5.70157e+06
-5.533e+06
-5.50436e+06
-5.31915e+06
-5.30558e+06
-5.09984e+06
-5.10341e+06
-4.87338e+06
-4.89511e+06
-4.63992e+06
-4.6778e+06
-4.42344e+06
-4.4461e+06
-8.86112e+06
-8.87669e+06
-8.5471e+06
-8.53964e+06
-8.24658e+06
-8.22681e+06
-7.96647e+06
-7.93681e+06
-7.70382e+06
-7.66679e+06
-7.45583e+06
-7.41387e+06
-7.22005e+06
-7.17539e+06
-6.99432e+06
-6.94892e+06
-6.77668e+06
-6.73231e+06
-6.56529e+06
-6.5236e+06
-6.35842e+06
-6.32102e+06
-6.1544e+06
-6.12297e+06
-5.95157e+06
-5.92798e+06
-5.74828e+06
-5.73465e+06
-5.54282e+06
-5.54163e+06
-5.33346e+06
-5.34752e+06
-5.11845e+06
-5.15061e+06
-4.89658e+06
-4.94816e+06
-4.66981e+06
-4.73493e+06
-4.45409e+06
-4.51148e+06
-8.58143e+06
-8.72992e+06
-8.32821e+06
-8.43092e+06
-8.0719e+06
-8.14903e+06
-7.82697e+06
-7.8832e+06
-7.5928e+06
-7.63201e+06
-7.36815e+06
-7.39395e+06
-7.15173e+06
-7.16738e+06
-6.94227e+06
-6.95069e+06
-6.73847e+06
-6.7423e+06
-6.53905e+06
-6.54072e+06
-6.3427e+06
-6.34456e+06
-6.1481e+06
-6.1525e+06
-5.9539e+06
-5.9633e+06
-5.75868e+06
-5.77582e+06
-5.56095e+06
-5.58891e+06
-5.35913e+06
-5.40138e+06
-5.15171e+06
-5.2117e+06
-4.93765e+06
-5.0172e+06
-4.71828e+06
-4.81354e+06
-4.51228e+06
-4.59769e+06
-8.24296e+06
-8.52409e+06
-8.06286e+06
-8.27327e+06
-7.86029e+06
-8.03202e+06
-7.65807e+06
-7.79856e+06
-7.45845e+06
-7.57307e+06
-7.26215e+06
-7.35557e+06
-7.06929e+06
-7.14567e+06
-6.87967e+06
-6.94271e+06
-6.69283e+06
-6.74588e+06
-6.50815e+06
-6.5543e+06
-6.32484e+06
-6.36703e+06
-6.14202e+06
-6.18313e+06
-5.95871e+06
-6.0017e+06
-5.77381e+06
-5.82191e+06
-5.58609e+06
-5.64287e+06
-5.39423e+06
-5.46368e+06
-5.19693e+06
-5.28311e+06
-4.99326e+06
-5.09886e+06
-4.78491e+06
-4.90668e+06
-4.59055e+06
-4.70101e+06
-7.85859e+06
-8.26204e+06
-7.76002e+06
-8.06802e+06
-7.61837e+06
-7.87602e+06
-7.46466e+06
-7.68241e+06
-7.30438e+06
-7.48897e+06
-7.14045e+06
-7.29739e+06
-6.97456e+06
-7.10864e+06
-6.8077e+06
-6.92315e+06
-6.64037e+06
-6.74103e+06
-6.47268e+06
-6.56212e+06
-6.30445e+06
-6.38602e+06
-6.13531e+06
-6.21228e+06
-5.96471e+06
-6.04036e+06
-5.79196e+06
-5.86985e+06
-5.61612e+06
-5.70021e+06
-5.43621e+06
-5.53086e+06
-5.25117e+06
-5.36096e+06
-5.06037e+06
-5.18862e+06
-4.86562e+06
-5.00989e+06
-4.68522e+06
-4.81655e+06
-7.44365e+06
-7.94908e+06
-7.42961e+06
-7.81795e+06
-7.35298e+06
-7.68237e+06
-7.25152e+06
-7.53518e+06
-7.1339e+06
-7.37946e+06
-7.00533e+06
-7.21871e+06
-6.869e+06
-7.05524e+06
-6.72716e+06
-6.89069e+06
-6.58134e+06
-6.72614e+06
-6.43242e+06
-6.56231e+06
-6.28086e+06
-6.39945e+06
-6.12684e+06
-6.23763e+06
-5.97034e+06
-6.07669e+06
-5.81113e+06
-5.91679e+06
-5.64863e+06
-5.75777e+06
-5.48221e+06
-5.59943e+06
-5.31121e+06
-5.44136e+06
-5.13527e+06
-5.28223e+06
-4.95634e+06
-5.11844e+06
-4.79205e+06
-4.93916e+06
-7.01758e+06
-7.59608e+06
-7.08277e+06
-7.53221e+06
-7.071e+06
-7.45691e+06
-7.02321e+06
-7.36005e+06
-6.95016e+06
-7.24591e+06
-6.85896e+06
-7.11977e+06
-6.75406e+06
-6.98511e+06
-6.63889e+06
-6.84459e+06
-6.51605e+06
-6.70017e+06
-6.38724e+06
-6.55359e+06
-6.25354e+06
-6.40579e+06
-6.11569e+06
-6.25747e+06
-5.97418e+06
-6.10865e+06
-5.82949e+06
-5.96038e+06
-5.68132e+06
-5.81288e+06
-5.52949e+06
-5.66633e+06
-5.37379e+06
-5.52084e+06
-5.21424e+06
-5.37575e+06
-5.05288e+06
-5.22777e+06
-4.90649e+06
-5.06378e+06
-6.6112e+06
-7.19481e+06
-6.74373e+06
-7.18739e+06
-6.79095e+06
-7.17859e+06
-6.79334e+06
-7.14261e+06
-6.76248e+06
-7.07985e+06
-6.70749e+06
-6.99639e+06
-6.63352e+06
-6.89668e+06
-6.54498e+06
-6.78484e+06
-6.44551e+06
-6.66341e+06
-6.33739e+06
-6.53629e+06
-6.2222e+06
-6.40511e+06
-6.10116e+06
-6.27162e+06
-5.97505e+06
-6.13561e+06
-5.84543e+06
-5.99953e+06
-5.71213e+06
-5.86407e+06
-5.57547e+06
-5.72968e+06
-5.43587e+06
-5.59697e+06
-5.29377e+06
-5.46626e+06
-5.15112e+06
-5.3343e+06
-5.02378e+06
-5.18653e+06
-6.26665e+06
-6.89537e+06
-6.37965e+06
-6.93162e+06
-6.45277e+06
-6.97026e+06
-6.49973e+06
-6.9778e+06
-6.51672e+06
-6.95246e+06
-6.50883e+06
-6.9009e+06
-6.47669e+06
-6.82843e+06
-6.42387e+06
-6.74052e+06
-6.35517e+06
-6.63752e+06
-6.27302e+06
-6.52666e+06
-6.18017e+06
-6.40953e+06
-6.07878e+06
-6.28888e+06
-5.96911e+06
-6.16407e+06
-5.8557e+06
-6.0387e+06
-5.73786e+06
-5.91444e+06
-5.61672e+06
-5.79149e+06
-5.49376e+06
-5.67075e+06
-5.37021e+06
-5.55369e+06
-5.24739e+06
-5.43595e+06
-5.14052e+06
-5.30536e+06
)
;

boundaryField
{
    back
    {
        type            empty;
    }
    front
    {
        type            empty;
    }
    left
    {
        type            symmetry;
    }
    hole
    {
        type            zeroGradient;
    }
    down
    {
        type            symmetry;
    }
    right
    {
        type            zeroGradient;
    }
    up
    {
        type            zeroGradient;
    }
}


// ************************************************************************* //
