/*--------------------------------*- C++ -*----------------------------------*\
| =========                 |                                                 |
| \\      /  F ield         | OpenFOAM: The Open Source CFD Toolbox           |
|  \\    /   O peration     | Version:  v2012                                 |
|   \\  /    A nd           | Website:  www.openfoam.com                      |
|    \\/     M anipulation  |                                                 |
\*---------------------------------------------------------------------------*/
FoamFile
{
    version     2.0;
    format      ascii;
    class       volSymmTensorField;
    location    "1";
    object      epsilon;
}
// * * * * * * * * * * * * * * * * * * * * * * * * * * * * * * * * * * * * * //

dimensions      [0 0 0 0 0 0 0];


internalField   nonuniform List<symmTensor> 
6720
(
(7.5636e-06 -4.29219e-06 -8.29867e-07 -5.98672e-07 -1.24006e-06 8.93176e-07)
(4.17941e-06 -1.052e-06 -3.55052e-07 4.85698e-06 -3.62624e-06 -4.48226e-07)
(6.70993e-06 -3.99525e-06 1.13588e-06 1.21468e-06 -2.26495e-06 -9.02319e-07)
(1.66304e-06 3.72425e-07 1.22661e-06 3.74153e-06 -2.26441e-06 -2.33185e-06)
(-1.18293e-06 2.11541e-06 1.55727e-06 5.88513e-06 -2.27901e-06 -1.52466e-06)
(-3.59933e-08 1.35865e-06 1.34173e-06 7.06839e-06 -3.13567e-06 -1.83707e-06)
(-3.27462e-06 3.17127e-06 1.87023e-06 3.78293e-06 -1.88377e-06 -1.4912e-06)
(-6.62263e-06 5.12223e-06 1.11937e-06 5.76404e-06 -1.58618e-06 4.09284e-07)
(-5.59907e-06 4.07333e-06 1.80825e-06 6.89952e-06 -2.5246e-06 -2.11131e-07)
(-8.25385e-06 5.89448e-06 9.29035e-07 3.9874e-06 -9.20351e-08 -2.72609e-07)
(-9.61072e-06 6.59663e-06 2.32583e-07 4.66122e-06 3.2109e-06 -5.31298e-06)
(-9.85424e-06 6.69164e-06 2.72204e-07 6.56868e-06 1.9669e-07 7.16951e-07)
(8.34403e-06 -5.47475e-06 1.18931e-06 1.35107e-06 -1.84544e-06 -3.6786e-06)
(5.8032e-06 -3.73296e-06 1.51698e-06 1.32441e-06 -1.94088e-06 -2.14824e-06)
(7.34631e-06 -4.28153e-06 8.27489e-07 2.04423e-06 -1.81955e-06 -3.06955e-06)
(2.70102e-06 -1.27492e-06 1.55084e-06 1.58965e-07 -1.39641e-06 -2.75425e-06)
(1.35739e-07 5.30914e-08 2.28956e-06 1.00371e-06 -1.45164e-06 -2.03095e-06)
(1.0693e-06 -3.46709e-07 1.92152e-06 1.59265e-06 -2.04415e-06 -2.77323e-06)
(-2.82589e-06 2.13477e-06 1.98199e-06 3.79683e-07 -1.10442e-06 -1.32919e-06)
(-5.6182e-06 3.68589e-06 2.13544e-06 6.96291e-07 -1.25376e-06 1.40497e-07)
(-4.96392e-06 3.18727e-06 2.26707e-06 1.7652e-06 -1.8909e-06 -5.97108e-07)
(-8.03594e-06 5.30452e-06 1.33725e-06 8.25267e-08 1.97751e-07 1.10979e-07)
(-9.56873e-06 5.81794e-06 6.75273e-07 6.9648e-07 1.72361e-06 4.65691e-06)
(-9.70114e-06 6.23273e-06 9.70265e-07 1.1328e-06 4.01116e-08 1.19019e-06)
(7.94658e-06 -6.28104e-06 1.76727e-06 1.88938e-06 -1.46547e-06 -7.53764e-07)
(5.06337e-06 -3.94514e-06 1.57403e-06 9.24897e-07 -1.07468e-06 -1.26925e-06)
(6.14394e-06 -5.55895e-06 1.5506e-06 1.92801e-06 -5.68245e-07 -1.07941e-06)
(2.60065e-06 -2.0665e-06 1.62604e-06 3.61725e-07 1.60651e-07 -1.4976e-06)
(-1.29296e-07 7.06539e-08 2.34133e-06 1.23362e-07 -3.55596e-07 -1.589e-06)
(1.73254e-06 -1.17799e-06 1.72967e-06 4.03701e-07 -2.39319e-09 -1.96409e-06)
(-2.31944e-06 1.62098e-06 2.07986e-06 6.21009e-08 1.54642e-07 -1.11509e-06)
(-5.49333e-06 3.75147e-06 1.94706e-06 -1.80278e-07 -1.48879e-07 5.92977e-08)
(-3.14394e-06 2.25537e-06 1.69547e-06 3.448e-07 7.6746e-07 -9.38259e-07)
(-7.34173e-06 5.0358e-06 1.2026e-06 -3.07101e-07 6.87701e-07 1.94429e-06)
(-8.14667e-06 5.99678e-06 -5.53744e-07 -1.07882e-06 3.22327e-07 5.6601e-06)
(-7.99565e-06 5.31462e-06 4.72934e-07 -3.8743e-07 1.80104e-06 6.6771e-06)
(7.61667e-06 -6.7523e-06 1.37282e-06 2.34127e-06 2.75815e-07 -3.43711e-06)
(5.01622e-06 -4.72511e-06 1.42837e-06 1.65475e-06 4.39346e-07 -1.36668e-06)
(7.11302e-06 -5.84399e-06 1.75546e-06 2.21105e-06 -5.18329e-08 -2.01817e-06)
(2.65259e-06 -2.42211e-06 1.52508e-06 4.01286e-07 1.00053e-06 -1.65427e-06)
(-1.12526e-07 -7.72677e-08 2.18316e-06 2.73399e-07 3.2748e-07 -1.16839e-06)
(9.98544e-07 -9.4464e-07 1.82912e-06 -3.02985e-07 1.1601e-06 -1.25501e-06)
(-2.00993e-06 1.29129e-06 2.31733e-06 6.5249e-07 8.43239e-07 -5.63564e-07)
(-5.60859e-06 4.11923e-06 1.92728e-06 -3.09779e-07 2.09241e-07 4.05021e-07)
(-3.65391e-06 2.90946e-06 1.84069e-06 -7.41228e-08 7.76752e-07 -1.33512e-07)
(-7.0482e-06 5.11422e-06 1.15388e-06 -5.6224e-07 2.60619e-07 4.42081e-06)
(-7.84988e-06 6.25548e-06 6.55588e-08 -1.26135e-06 -2.15636e-06 2.60938e-06)
(-7.03031e-06 5.69393e-06 3.0626e-07 -9.11275e-07 -7.63847e-07 2.81555e-06)
(6.38726e-06 -7.1183e-06 1.64877e-06 2.55354e-06 9.23716e-07 5.35103e-07)
(3.77695e-06 -4.91963e-06 1.38858e-06 1.2868e-06 1.59751e-06 -3.3651e-08)
(4.40035e-06 -6.21706e-06 1.45064e-06 2.04289e-06 1.99121e-06 -1.97441e-09)
(2.08296e-06 -2.97462e-06 1.85737e-06 6.95058e-07 1.89787e-06 -1.57841e-06)
(-1.05295e-07 -6.7148e-07 2.27935e-06 5.34037e-07 2.60446e-06 -1.14906e-06)
(1.01617e-06 -1.65387e-06 2.18799e-06 3.49189e-07 1.98642e-06 -1.34522e-06)
(-1.49735e-06 1.33801e-06 2.11084e-06 -8.39469e-08 2.71044e-06 -8.89838e-07)
(-3.94002e-06 4.00686e-06 1.71949e-06 -1.8892e-07 1.56693e-06 -3.19969e-07)
(-2.7229e-06 2.54615e-06 2.09501e-06 1.25778e-07 1.62276e-06 -6.02844e-07)
(-4.8266e-06 5.57811e-06 1.91283e-06 -5.1428e-07 1.44474e-06 -2.18674e-06)
(-6.2652e-06 6.73149e-06 9.78882e-07 -1.17422e-06 -1.4678e-06 -3.0011e-06)
(-5.80849e-06 6.17013e-06 1.32861e-06 -7.72223e-07 -1.1872e-07 -1.62261e-06)
(5.64429e-06 -7.17687e-06 1.68622e-06 2.11225e-06 5.94902e-07 -2.93758e-06)
(3.26052e-06 -5.25476e-06 1.61203e-06 9.85615e-07 2.3865e-06 -9.17695e-07)
(5.50282e-06 -6.46055e-06 2.26943e-06 1.75614e-06 1.47311e-06 -1.59159e-06)
(1.70796e-06 -3.23326e-06 2.76619e-06 2.92541e-07 2.74309e-06 -1.35886e-06)
(-1.96985e-07 -8.39963e-07 2.40527e-06 3.26064e-07 3.21126e-06 -9.06105e-07)
(1.28488e-06 -2.19551e-06 2.67126e-06 6.99284e-07 2.29404e-06 -1.21753e-06)
(-1.34605e-06 1.10631e-06 3.04078e-06 -7.17529e-08 3.02706e-06 -8.51461e-07)
(-3.60369e-06 3.90069e-06 2.11783e-06 -3.29577e-07 2.11855e-06 -3.86602e-07)
(-2.38505e-06 2.66259e-06 2.28656e-06 -5.19267e-07 2.89229e-06 -5.15059e-07)
(-4.44629e-06 5.19475e-06 1.75534e-06 9.994e-08 2.89751e-06 -1.42758e-06)
(-5.83173e-06 6.58858e-06 2.08599e-07 -2.23413e-07 1.88313e-06 -4.91175e-06)
(-4.98201e-06 6.20609e-06 1.83017e-06 -3.71771e-08 2.63156e-06 -3.16219e-06)
(3.38788e-06 -8.00411e-06 1.63117e-06 1.42745e-06 5.52853e-07 2.358e-06)
(1.9288e-06 -5.79286e-06 2.74234e-06 6.27529e-07 3.7341e-06 6.88072e-07)
(2.44634e-06 -7.15407e-06 1.73281e-06 8.40743e-07 2.10314e-06 1.39177e-06)
(8.55858e-07 -3.36408e-06 3.23507e-06 3.2424e-07 3.28542e-06 -9.98795e-07)
(-9.81605e-08 -6.22026e-07 3.70543e-06 6.18167e-07 5.33797e-06 -1.22426e-06)
(-7.18345e-08 -2.17426e-06 2.93403e-06 3.0796e-09 3.95561e-06 -7.29834e-07)
(-1.09095e-06 1.54824e-06 3.49941e-06 3.95062e-07 3.79376e-06 -9.93823e-07)
(-2.0649e-06 4.06245e-06 2.79947e-06 6.49513e-07 4.4071e-06 -2.17197e-06)
(-1.93888e-06 2.8249e-06 2.74428e-06 2.53281e-07 3.96032e-06 -9.39025e-07)
(-3.24358e-06 5.7808e-06 1.94735e-06 1.70375e-07 3.32438e-06 9.97002e-08)
(-3.3158e-06 7.12788e-06 9.50711e-07 4.64618e-07 2.10519e-06 1.54592e-06)
(-3.62042e-06 6.62142e-06 1.91227e-06 6.54696e-08 3.04109e-06 2.45127e-06)
(3.09706e-06 -8.00994e-06 1.67117e-06 -4.14068e-07 9.92959e-07 3.45068e-06)
(1.30579e-06 -5.70614e-06 3.49072e-06 -6.64826e-07 4.44724e-06 1.23976e-06)
(2.32907e-06 -7.45639e-06 4.19832e-06 -4.1989e-07 3.22782e-06 2.44362e-06)
(7.6643e-07 -3.30829e-06 3.52597e-06 -3.653e-07 4.15624e-06 -8.46061e-07)
(-3.81345e-07 -4.32862e-07 4.04272e-06 2.092e-07 5.92678e-06 -7.41751e-07)
(6.21742e-07 -2.08978e-06 4.61248e-06 3.56025e-07 5.42662e-06 -9.02859e-07)
(-1.04361e-06 1.66199e-06 3.66773e-06 7.05079e-07 4.70584e-06 -1.15242e-06)
(-2.13022e-06 4.49445e-06 3.07047e-06 1.12865e-06 4.7568e-06 -2.09263e-06)
(-9.46367e-07 2.87868e-06 4.10899e-06 1.4141e-06 4.9651e-06 -2.29994e-06)
(-3.14447e-06 6.15465e-06 2.1883e-06 1.14534e-06 3.52363e-06 2.31705e-08)
(-3.1711e-06 7.56448e-06 2.21322e-07 1.04936e-06 1.45509e-06 -9.87612e-07)
(-2.90393e-06 7.0489e-06 1.58324e-06 1.72535e-06 2.92889e-06 -1.94609e-06)
(9.12067e-06 -4.32613e-06 -1.85574e-06 1.24721e-07 4.8759e-07 -5.86202e-06)
(5.06967e-06 -2.78122e-06 8.18308e-07 3.04049e-06 -1.42749e-06 -4.0232e-06)
(8.64857e-06 -3.68859e-06 1.59928e-08 1.42044e-06 1.20204e-06 -7.17386e-06)
(2.60018e-06 -2.34323e-06 2.38313e-06 2.11076e-06 -2.41022e-06 -2.86952e-06)
(-4.69145e-07 -4.74298e-07 1.93325e-06 2.25915e-06 -2.25189e-06 -2.10347e-06)
(-2.20069e-07 -1.49397e-06 2.12232e-06 3.0692e-06 -3.06381e-06 -2.5144e-06)
(-3.71242e-06 7.60624e-07 2.81298e-06 1.98792e-06 -4.02023e-06 -1.06806e-06)
(-6.68911e-06 3.85202e-06 2.03828e-06 1.6773e-06 -2.47584e-06 5.08514e-07)
(-6.94445e-06 2.63545e-06 2.74489e-06 3.14304e-06 -3.75944e-06 2.51347e-07)
(-1.00271e-05 5.21508e-06 2.36644e-06 7.00721e-07 -3.199e-06 2.4203e-06)
(-1.06596e-05 5.69196e-06 8.13985e-07 1.32261e-06 5.04176e-07 5.79129e-06)
(-1.26596e-05 5.53462e-06 2.00108e-06 2.45768e-06 -1.77353e-06 2.96581e-06)
(9.62394e-06 -5.24423e-06 1.4064e-06 2.60523e-06 -2.87114e-06 -6.08289e-06)
(6.21571e-06 -3.50477e-06 1.57389e-06 1.9276e-06 -4.45717e-07 -5.79854e-06)
(7.15297e-06 -3.81371e-06 9.81631e-07 1.63541e-06 -1.52512e-06 -4.53188e-06)
(4.39635e-06 -2.77803e-06 2.06435e-06 -7.11624e-08 -9.11538e-07 -3.2477e-06)
(7.66372e-07 -9.65983e-07 1.58815e-06 -6.85732e-08 -8.10532e-07 -1.90177e-06)
(3.5265e-06 -2.47403e-06 2.01927e-06 1.03386e-08 -9.96389e-07 -2.87096e-06)
(-1.96228e-06 7.68077e-07 2.27744e-06 2.14856e-07 -1.56766e-06 -1.32272e-06)
(-4.94339e-06 2.78938e-06 1.78032e-06 -1.11149e-07 -1.06223e-06 3.01678e-07)
(-2.6305e-06 1.52988e-06 2.38202e-06 -1.1194e-06 -2.63088e-06 -8.11756e-07)
(-7.5395e-06 4.41904e-06 2.55114e-06 -4.01388e-07 -1.70378e-06 -2.40385e-08)
(-9.6398e-06 5.30045e-06 2.7177e-06 -1.31981e-06 -2.60267e-06 5.97203e-06)
(-9.00982e-06 5.60846e-06 3.35103e-06 -2.93644e-06 -3.69981e-06 2.75298e-06)
(8.88041e-06 -6.03518e-06 1.84744e-06 1.62801e-06 -1.28185e-06 -1.53993e-06)
(5.50692e-06 -3.78875e-06 1.24108e-06 6.53001e-07 -5.97105e-08 -2.56155e-06)
(6.75541e-06 -5.25497e-06 1.42446e-06 1.45295e-06 5.39416e-07 -2.61466e-06)
(3.63191e-06 -2.61216e-06 1.45367e-06 5.23551e-07 9.80779e-07 -2.33982e-06)
(5.34942e-07 -5.65635e-07 1.65978e-06 6.7496e-07 4.91984e-07 -1.66211e-06)
(2.65824e-06 -1.85447e-06 1.7763e-06 6.80373e-07 4.56092e-07 -2.50117e-06)
(-1.94534e-06 1.06241e-06 2.41548e-06 6.00081e-07 2.66551e-07 -6.33457e-07)
(-5.18257e-06 3.18501e-06 1.66647e-06 4.98115e-07 3.37236e-07 4.48412e-08)
(-3.74845e-06 2.37063e-06 1.78491e-06 2.39614e-07 9.75762e-07 -4.51862e-07)
(-7.09342e-06 4.40863e-06 1.90937e-06 3.63504e-10 7.48544e-08 1.68267e-06)
(-8.58879e-06 5.75196e-06 8.0462e-07 -7.42694e-07 -1.16455e-06 5.10682e-06)
(-8.67351e-06 5.46575e-06 1.94083e-06 -5.42875e-07 -7.20728e-08 6.80459e-06)
(8.1862e-06 -6.02701e-06 2.13002e-06 1.74704e-06 1.61882e-07 -4.78392e-06)
(5.22087e-06 -4.02318e-06 1.66021e-06 7.90204e-07 1.07391e-06 -2.5617e-06)
(7.43569e-06 -4.97715e-06 2.03216e-06 1.29182e-06 3.6117e-07 -2.6139e-06)
(3.78048e-06 -2.85499e-06 2.14716e-06 5.78173e-07 1.35567e-06 -2.30356e-06)
(4.58842e-07 -2.11945e-07 1.91778e-06 -7.25762e-08 1.20202e-06 -1.87065e-06)
(1.77114e-06 -1.15044e-06 1.67796e-06 -1.62821e-07 1.65673e-06 -1.70258e-06)
(-1.57679e-06 1.05844e-06 2.15867e-06 2.38068e-07 1.94421e-06 -1.03788e-06)
(-4.90728e-06 3.44519e-06 1.37923e-06 2.78706e-07 1.77303e-06 -4.19961e-07)
(-2.62292e-06 1.61352e-06 2.1034e-06 1.03398e-06 1.05575e-06 -8.71201e-07)
(-6.70269e-06 4.72679e-06 9.60254e-07 1.1674e-07 1.33047e-06 -3.02422e-08)
(-8.29176e-06 5.8387e-06 -3.16386e-07 -4.28055e-07 5.93931e-08 2.58601e-06)
(-7.89102e-06 5.33889e-06 1.56995e-06 -3.0261e-07 -1.10454e-07 2.91683e-06)
(7.30121e-06 -6.50729e-06 2.36486e-06 1.72004e-06 4.07557e-07 -4.19425e-07)
(4.31124e-06 -4.52614e-06 1.73228e-06 4.41765e-07 1.82016e-06 -1.73506e-06)
(5.21179e-06 -5.89974e-06 1.86959e-06 1.31405e-06 1.77059e-06 -2.00471e-06)
(2.97762e-06 -3.32055e-06 2.19132e-06 3.79422e-07 2.18458e-06 -2.10945e-06)
(1.51346e-07 -6.55303e-07 1.65259e-06 3.2206e-08 2.94689e-06 -1.41627e-06)
(1.16598e-06 -2.02374e-06 2.04263e-06 -1.25467e-07 3.19001e-06 -1.59134e-06)
(-1.53671e-06 9.17768e-07 2.25757e-06 4.43414e-08 2.64537e-06 -1.00395e-06)
(-4.22176e-06 3.59676e-06 1.36483e-06 2.94949e-07 2.40987e-06 -5.55987e-07)
(-2.60062e-06 2.14483e-06 2.05714e-06 -3.40672e-07 3.30837e-06 -9.43935e-07)
(-5.67777e-06 4.69665e-06 8.63645e-07 3.68807e-07 2.16146e-06 -1.07562e-06)
(-6.69045e-06 6.15972e-06 -7.51398e-07 1.87821e-07 1.80056e-06 -3.54698e-06)
(-5.92321e-06 5.60451e-06 2.14576e-07 2.36571e-07 3.43486e-06 -2.08885e-06)
(6.36157e-06 -6.37085e-06 1.89212e-06 7.53016e-07 7.28492e-07 -4.09541e-06)
(3.96681e-06 -4.86995e-06 1.79299e-06 2.17618e-07 2.38639e-06 -2.35168e-06)
(6.05726e-06 -5.65461e-06 2.3842e-06 7.81781e-07 1.62621e-06 -2.3243e-06)
(2.76628e-06 -3.44858e-06 2.45375e-06 1.15918e-07 3.48228e-06 -2.15843e-06)
(1.98239e-07 -9.55951e-07 1.96911e-06 6.41695e-10 4.28971e-06 -1.5943e-06)
(1.88239e-06 -2.29781e-06 2.10261e-06 5.47992e-07 3.20747e-06 -2.07002e-06)
(-1.00789e-06 6.09463e-07 2.53084e-06 2.06169e-07 4.10512e-06 -1.44401e-06)
(-3.37032e-06 3.0488e-06 1.68315e-06 4.46538e-07 4.16842e-06 -1.2304e-06)
(-2.21211e-06 1.65526e-06 2.00264e-06 8.96755e-07 3.30113e-06 -1.28509e-06)
(-4.59049e-06 4.41011e-06 1.51694e-06 6.49179e-07 3.7351e-06 6.32916e-07)
(-6.09444e-06 6.27686e-06 -6.05776e-07 7.75973e-07 5.32456e-06 -1.13544e-07)
(-6.0115e-06 5.3636e-06 2.60173e-07 8.45178e-07 3.82336e-06 -7.49528e-07)
(4.82426e-06 -7.34753e-06 1.82931e-06 -4.61857e-07 1.14486e-07 1.60004e-06)
(2.74162e-06 -5.58262e-06 2.59567e-06 -6.85455e-07 3.51486e-06 8.68826e-07)
(3.4315e-06 -6.39355e-06 1.86372e-06 -8.81952e-07 1.52083e-06 7.69322e-07)
(1.91002e-06 -3.81076e-06 2.56814e-06 -1.15308e-07 3.95564e-06 -1.92968e-06)
(1.05989e-07 -7.36635e-07 3.22117e-06 9.20312e-08 5.90687e-06 -1.33049e-06)
(3.20703e-07 -2.11633e-06 2.31813e-06 -6.76628e-07 4.61121e-06 -1.24292e-06)
(-9.04505e-07 8.55722e-07 2.77939e-06 7.1723e-07 4.72176e-06 -1.64652e-06)
(-2.46765e-06 3.72858e-06 2.46387e-06 1.18804e-06 5.03362e-06 -2.61836e-06)
(-2.38123e-06 2.46543e-06 2.18348e-06 4.44937e-07 4.74086e-06 -1.31424e-06)
(-3.60482e-06 4.99777e-06 1.35538e-06 1.40106e-06 3.80486e-06 6.67995e-07)
(-4.94255e-06 7.16789e-06 9.09045e-09 1.5014e-06 2.88664e-06 1.15932e-06)
(-4.81552e-06 6.39815e-06 9.67323e-07 1.09427e-06 4.22038e-06 2.07896e-06)
(4.32378e-06 -7.17983e-06 1.49163e-06 -2.33793e-06 1.08567e-06 3.37715e-06)
(1.8773e-06 -5.08056e-06 2.95793e-06 -1.97141e-06 4.87439e-06 1.29376e-06)
(3.22817e-06 -6.64923e-06 3.63188e-06 -2.23687e-06 3.94067e-06 2.56265e-06)
(1.43697e-06 -3.26999e-06 2.74906e-06 -9.46729e-07 4.85347e-06 -1.36945e-06)
(-3.64043e-07 -3.47568e-07 3.30183e-06 -1.44109e-08 6.83251e-06 -1.1022e-06)
(9.86361e-07 -1.92295e-06 3.72586e-06 -1.16617e-07 6.40141e-06 -1.25994e-06)
(-1.13727e-06 1.30355e-06 2.90131e-06 1.10558e-06 5.5898e-06 -1.58278e-06)
(-2.72976e-06 4.21295e-06 2.53287e-06 2.0124e-06 5.72293e-06 -2.88137e-06)
(-1.27601e-06 2.68082e-06 3.34787e-06 1.98861e-06 6.02816e-06 -2.83438e-06)
(-3.79769e-06 5.50601e-06 1.54156e-06 2.4576e-06 3.93237e-06 4.08129e-07)
(-4.6481e-06 7.41287e-06 -7.18203e-07 2.64813e-06 2.15946e-06 -1.80276e-06)
(-3.59243e-06 6.48039e-06 8.35401e-07 3.30696e-06 3.3505e-06 -2.23015e-06)
(1.00109e-05 -4.50688e-06 2.20532e-07 4.22315e-06 -1.99483e-06 -8.74643e-06)
(7.51995e-06 -2.56425e-06 2.55006e-06 2.06355e-06 5.94708e-08 -6.33825e-06)
(8.93406e-06 -3.32267e-06 1.21452e-06 5.5853e-06 2.56636e-07 -9.44774e-06)
(6.25572e-06 -1.29043e-06 2.96801e-06 -2.63611e-06 -1.33481e-06 -3.3705e-06)
(2.22223e-06 -3.84215e-07 1.90771e-06 -2.59023e-06 -2.44746e-06 -2.68109e-06)
(3.49631e-06 -6.47654e-07 2.68285e-06 -4.63595e-06 -2.45483e-06 -2.88291e-06)
(-5.55631e-07 1.40344e-06 1.74661e-06 -5.98184e-07 -2.57274e-06 -2.23115e-06)
(-2.65105e-06 4.94936e-06 2.2324e-06 -2.82174e-06 -3.31486e-06 -1.97318e-07)
(-1.03997e-06 3.18378e-06 1.95452e-06 1.21974e-06 -3.72256e-06 -1.58508e-06)
(-6.36283e-06 5.2185e-06 2.32495e-06 -4.87557e-07 -2.60633e-06 -1.17574e-06)
(-8.87855e-06 7.64577e-06 3.69894e-06 -3.34472e-06 -4.84944e-06 -2.38025e-06)
(-6.75739e-06 6.36471e-06 2.17096e-06 1.75918e-06 -3.99322e-06 -2.49688e-06)
(1.0417e-05 -4.77161e-06 1.27076e-06 2.75738e-06 -2.64914e-06 -7.49247e-06)
(7.35032e-06 -2.5699e-06 1.2571e-06 1.87707e-06 -3.57999e-07 -6.8722e-06)
(8.02423e-06 -3.43399e-06 7.96822e-07 1.45433e-06 -9.67853e-07 -5.42109e-06)
(5.17489e-06 -1.90887e-06 1.64578e-06 9.17796e-07 -1.71551e-08 -3.55009e-06)
(1.83222e-06 -5.32036e-07 1.2361e-06 4.67487e-07 -5.21319e-07 -2.7788e-06)
(4.3575e-06 -8.37866e-07 1.81143e-06 4.29197e-08 -9.59259e-07 -3.23056e-06)
(-7.54511e-07 1.14204e-06 1.88563e-06 1.268e-06 -9.15594e-07 -2.51567e-06)
(-4.02268e-06 3.47074e-06 1.90796e-06 3.42285e-06 -2.29816e-06 -1.06969e-06)
(-3.0585e-06 2.35089e-06 1.74443e-06 1.25807e-06 -7.77338e-07 -1.79084e-06)
(-6.37475e-06 4.00238e-06 1.98978e-06 2.89656e-06 -5.22684e-07 -4.92789e-06)
(-1.04493e-05 6.77048e-06 3.38668e-06 2.023e-06 -1.59658e-06 -8.05432e-06)
(-9.01232e-06 5.85213e-06 3.11147e-06 1.23276e-06 -1.01683e-06 -3.88353e-06)
(9.50675e-06 -5.41591e-06 2.04936e-06 1.42656e-06 -1.23477e-06 -9.90159e-07)
(6.33169e-06 -3.58214e-06 1.28764e-06 4.97809e-07 2.61665e-07 -2.79948e-06)
(7.5215e-06 -4.84558e-06 1.47929e-06 1.27119e-06 8.31542e-07 -3.13328e-06)
(4.50892e-06 -2.41182e-06 1.74849e-06 2.46797e-07 5.27328e-07 -3.04079e-06)
(1.25498e-06 -5.39699e-07 1.31924e-06 1.5324e-07 9.29503e-07 -2.39829e-06)
(2.40329e-06 -1.45616e-06 1.59501e-06 7.11586e-08 1.23514e-06 -2.29083e-06)
(-9.19513e-07 7.03468e-07 2.04728e-06 5.88493e-07 6.54752e-07 -1.97546e-06)
(-4.53261e-06 2.68537e-06 1.64222e-06 9.25296e-07 6.97969e-07 -9.4514e-07)
(-3.26722e-06 2.06496e-06 1.62241e-06 2.95719e-07 1.57235e-06 -1.08366e-06)
(-6.35748e-06 3.53813e-06 1.50239e-06 1.11537e-06 1.21921e-06 -3.40381e-06)
(-9.72426e-06 5.69148e-06 2.63401e-06 -1.55781e-07 -5.38538e-07 -1.83958e-06)
(-8.37025e-06 4.90763e-06 9.83579e-07 4.73519e-07 1.68064e-06 -1.31993e-06)
(8.60553e-06 -5.22049e-06 2.15452e-06 1.20027e-06 3.81974e-07 -5.00398e-06)
(5.8329e-06 -3.61923e-06 1.64623e-06 4.70679e-07 1.46189e-06 -3.07285e-06)
(8.03351e-06 -4.37089e-06 2.19622e-06 8.52833e-07 6.37736e-07 -2.80644e-06)
(4.22859e-06 -2.49354e-06 1.94084e-06 2.70551e-07 1.94703e-06 -2.72951e-06)
(8.08441e-07 -4.01169e-07 1.41503e-06 2.088e-07 2.38957e-06 -1.88687e-06)
(3.05464e-06 -1.51733e-06 1.63114e-06 4.74168e-07 1.49605e-06 -2.7313e-06)
(-1.00556e-06 7.50525e-07 1.95913e-06 4.10364e-07 2.18853e-06 -1.62634e-06)
(-4.4402e-06 2.80806e-06 1.2888e-06 8.31961e-07 2.34436e-06 -9.49388e-07)
(-2.22458e-06 1.42157e-06 1.77175e-06 1.18344e-06 1.44183e-06 -1.70654e-06)
(-6.15244e-06 3.7885e-06 1.05057e-06 1.01846e-06 1.76852e-06 -4.671e-07)
(-9.06429e-06 5.5541e-06 -2.02057e-07 5.75245e-07 2.34451e-06 1.27086e-06)
(-7.65452e-06 4.44927e-06 2.26804e-07 1.13346e-06 2.76497e-06 -2.764e-06)
(7.77304e-06 -5.66693e-06 2.40189e-06 9.38139e-07 6.33253e-07 -3.06466e-07)
(4.98126e-06 -4.17637e-06 1.87545e-06 2.15564e-07 1.91867e-06 -1.91337e-06)
(5.76461e-06 -5.25134e-06 1.90716e-06 5.35661e-07 1.94721e-06 -2.06981e-06)
(3.55029e-06 -3.06826e-06 2.07608e-06 1.65596e-07 2.60045e-06 -2.42635e-06)
(4.13765e-07 -6.77155e-07 1.531e-06 1.03622e-07 3.19154e-06 -1.73431e-06)
(1.52292e-06 -1.83583e-06 1.88279e-06 -3.24486e-07 3.5624e-06 -1.83231e-06)
(-1.12293e-06 5.07619e-07 2.05084e-06 4.23356e-07 3.08958e-06 -1.44352e-06)
(-4.1637e-06 2.98405e-06 1.25893e-06 6.61524e-07 3.04759e-06 -9.75637e-07)
(-2.70814e-06 1.91006e-06 1.76472e-06 -1.73723e-08 3.89886e-06 -1.16203e-06)
(-5.63697e-06 3.97253e-06 7.15376e-07 8.29064e-07 2.79174e-06 -1.81705e-06)
(-7.83558e-06 6.05157e-06 -1.5664e-07 5.58844e-07 2.59445e-06 -3.57183e-06)
(-6.57372e-06 5.29411e-06 9.4531e-07 4.36741e-07 3.59756e-06 -1.37019e-07)
(6.8706e-06 -5.57684e-06 1.9007e-06 -1.77209e-07 9.3682e-07 -4.20023e-06)
(4.47427e-06 -4.3494e-06 1.76608e-06 -4.35284e-07 2.56852e-06 -2.43317e-06)
(6.51298e-06 -4.93559e-06 2.38062e-06 5.36451e-08 1.88498e-06 -2.32316e-06)
(3.18013e-06 -3.10603e-06 2.35967e-06 -2.99069e-07 3.78503e-06 -2.20825e-06)
(4.14222e-07 -9.37419e-07 1.80864e-06 -2.91957e-08 4.56561e-06 -1.71256e-06)
(2.18215e-06 -2.07736e-06 1.98405e-06 2.99304e-07 3.52986e-06 -2.20021e-06)
(-9.3639e-07 4.81592e-07 2.35943e-06 3.87896e-07 4.52585e-06 -1.57205e-06)
(-3.60687e-06 2.70531e-06 1.52145e-06 8.19121e-07 4.58244e-06 -1.29017e-06)
(-2.22269e-06 1.40365e-06 1.84143e-06 1.07939e-06 3.76195e-06 -1.45642e-06)
(-4.91342e-06 3.96294e-06 1.40696e-06 1.17186e-06 4.17725e-06 6.65221e-07)
(-6.85864e-06 5.926e-06 2.98175e-07 1.16486e-06 4.60972e-06 2.10066e-06)
(-6.4958e-06 4.90349e-06 3.47412e-08 1.27004e-06 4.32975e-06 -9.24905e-07)
(5.48594e-06 -6.58257e-06 1.80801e-06 -1.82915e-06 2.87592e-07 1.77097e-06)
(3.37935e-06 -5.11826e-06 2.49651e-06 -1.77314e-06 3.73675e-06 1.1725e-06)
(4.11479e-06 -5.7898e-06 1.86423e-06 -2.03486e-06 1.64404e-06 9.28802e-07)
(2.404e-06 -3.53557e-06 2.4307e-06 -7.46171e-07 4.25779e-06 -1.93967e-06)
(2.50754e-07 -7.41217e-07 2.96041e-06 2.28367e-08 6.37646e-06 -1.30626e-06)
(6.59091e-07 -2.02654e-06 2.11544e-06 -9.83283e-07 4.89752e-06 -1.29519e-06)
(-8.95704e-07 6.87719e-07 2.58432e-06 9.19867e-07 5.1673e-06 -1.70092e-06)
(-2.84133e-06 3.39871e-06 2.31798e-06 1.88143e-06 5.52561e-06 -2.76225e-06)
(-2.63535e-06 2.16773e-06 1.96348e-06 8.58568e-07 5.15785e-06 -1.31836e-06)
(-4.06095e-06 4.55129e-06 1.26867e-06 2.19108e-06 4.16815e-06 7.99957e-07)
(-5.54501e-06 6.59625e-06 9.36272e-08 2.59554e-06 2.66483e-06 1.40876e-06)
(-5.49664e-06 5.90715e-06 1.08056e-06 1.95676e-06 4.00802e-06 3.53036e-06)
(4.98366e-06 -6.4095e-06 1.43207e-06 -3.76627e-06 1.12782e-06 3.6565e-06)
(2.42945e-06 -4.66256e-06 2.77574e-06 -3.03015e-06 5.24026e-06 1.54197e-06)
(3.8452e-06 -6.02977e-06 3.50155e-06 -3.62177e-06 4.35942e-06 3.00803e-06)
(1.84901e-06 -2.99237e-06 2.56363e-06 -1.52856e-06 5.19338e-06 -1.38697e-06)
(-2.77287e-07 -3.73705e-07 3.02512e-06 -4.5486e-08 7.29726e-06 -1.13692e-06)
(1.27963e-06 -1.77814e-06 3.48173e-06 -4.56841e-07 6.89978e-06 -1.30994e-06)
(-1.18864e-06 1.12246e-06 2.69947e-06 1.38709e-06 6.01685e-06 -1.69908e-06)
(-3.08743e-06 3.81504e-06 2.38749e-06 2.81137e-06 6.17758e-06 -3.13484e-06)
(-1.43405e-06 2.4269e-06 3.16467e-06 2.53459e-06 6.50611e-06 -3.06798e-06)
(-4.2215e-06 4.96976e-06 1.48509e-06 3.38148e-06 4.23735e-06 3.3205e-07)
(-5.18014e-06 6.72646e-06 -6.3343e-07 3.98766e-06 2.37131e-06 -2.13734e-06)
(-4.05947e-06 5.92597e-06 8.43957e-07 4.46525e-06 3.64241e-06 -2.43421e-06)
(1.09211e-05 -4.04607e-06 5.71325e-08 4.34432e-06 -1.94901e-06 -1.12875e-05)
(8.39691e-06 -1.16881e-06 2.01716e-06 3.21619e-06 -5.96275e-07 -7.38313e-06)
(9.64795e-06 -2.54587e-06 7.17337e-07 6.33689e-06 -2.74007e-07 -1.15139e-05)
(5.57473e-06 -5.04469e-07 1.38027e-06 1.20838e-06 -2.73108e-07 -3.92185e-06)
(2.8962e-06 2.20279e-06 2.03077e-06 2.84446e-07 -2.53529e-06 -3.10309e-06)
(4.95716e-06 9.33482e-07 2.18907e-06 2.89136e-06 -1.62326e-06 -4.15027e-06)
(-6.97773e-07 2.42119e-06 1.58726e-06 2.47863e-06 -1.74456e-06 -2.80934e-06)
(-4.71201e-06 4.62623e-06 1.60237e-06 6.0056e-06 -3.27109e-06 2.50526e-07)
(-2.28413e-06 3.56091e-06 1.73482e-06 6.75815e-06 -2.7635e-06 -1.53067e-06)
(-7.61519e-06 5.37144e-06 1.17725e-06 4.87337e-06 -1.70966e-06 -3.77993e-06)
(-1.02462e-05 7.27507e-06 2.98921e-07 4.74063e-06 -1.65584e-06 -7.44706e-06)
(-9.00253e-06 6.29852e-06 9.92257e-07 8.38498e-06 -3.32284e-06 -3.2337e-06)
(1.09118e-05 -4.13652e-06 1.36167e-06 2.63911e-06 -2.61864e-06 -7.77569e-06)
(7.94569e-06 -1.87255e-06 8.0249e-07 3.17913e-06 -6.15987e-07 -7.95827e-06)
(8.67026e-06 -2.86422e-06 6.90031e-07 1.4746e-06 -7.90048e-07 -6.31016e-06)
(5.62163e-06 -1.16287e-06 1.37072e-06 1.95209e-06 2.17861e-07 -3.9642e-06)
(1.49516e-06 1.19715e-06 1.73966e-06 3.56785e-06 -7.9986e-07 -3.55624e-06)
(2.81699e-06 3.64172e-07 1.05122e-06 1.09653e-06 4.83518e-07 -3.35214e-06)
(-8.56737e-07 1.63402e-06 1.77878e-06 2.76425e-06 -3.11573e-08 -2.95478e-06)
(-5.0057e-06 3.97792e-06 1.77909e-06 4.88879e-06 -1.31414e-06 -9.12424e-07)
(-3.43943e-06 3.05368e-06 1.4594e-06 2.33565e-06 2.06582e-07 -2.37872e-06)
(-7.03496e-06 4.1168e-06 1.61766e-06 3.78523e-06 -1.48535e-07 -5.39263e-06)
(-1.1359e-05 6.80996e-06 1.67562e-06 3.21482e-06 -7.00334e-07 -9.02758e-06)
(-9.44316e-06 5.73723e-06 9.16879e-07 2.41858e-06 9.53299e-07 -8.23381e-06)
(1.00363e-05 -4.70527e-06 2.07131e-06 1.1578e-06 -1.06504e-06 -9.63123e-07)
(6.91881e-06 -3.06833e-06 1.27623e-06 2.89914e-07 4.64675e-07 -2.97459e-06)
(7.99659e-06 -4.21285e-06 1.41421e-06 1.0123e-06 1.02869e-06 -3.26103e-06)
(5.06079e-06 -2.01663e-06 1.56888e-06 2.43488e-07 8.80524e-07 -3.49058e-06)
(1.14255e-06 4.03571e-08 1.11931e-06 8.09774e-08 1.20818e-06 -2.65476e-06)
(2.56202e-06 -1.02438e-06 1.4036e-06 -4.63213e-09 1.66367e-06 -2.61191e-06)
(-9.28249e-07 9.63625e-07 1.77801e-06 6.96014e-07 9.84822e-07 -2.44188e-06)
(-4.61802e-06 2.82393e-06 1.25315e-06 1.07001e-06 1.15169e-06 -1.8015e-06)
(-3.16561e-06 2.04836e-06 1.45004e-06 4.12158e-07 1.79589e-06 -1.61873e-06)
(-6.70656e-06 3.57534e-06 1.12394e-06 1.58438e-06 1.72991e-06 -4.10971e-06)
(-9.96369e-06 5.21762e-06 2.42335e-07 1.00994e-06 2.54665e-06 -7.02285e-06)
(-8.63386e-06 4.63591e-06 8.99203e-07 1.06297e-06 2.12467e-06 -1.84635e-06)
(9.07483e-06 -4.46124e-06 2.10515e-06 7.56235e-07 6.03594e-07 -5.24519e-06)
(6.16754e-06 -3.04902e-06 1.56141e-06 2.99739e-07 1.66436e-06 -3.23773e-06)
(8.41652e-06 -3.67312e-06 2.14081e-06 6.2033e-07 8.5106e-07 -2.9317e-06)
(4.49018e-06 -2.04935e-06 1.80624e-06 2.26424e-07 2.22906e-06 -2.8934e-06)
(8.91503e-07 -1.82165e-07 1.24302e-06 3.42948e-07 2.71078e-06 -2.11663e-06)
(3.22324e-06 -1.15195e-06 1.45808e-06 5.64163e-07 1.79025e-06 -2.97045e-06)
(-9.81081e-07 8.20888e-07 1.73908e-06 6.47351e-07 2.61473e-06 -1.88549e-06)
(-4.54964e-06 2.67748e-06 1.03391e-06 1.09163e-06 2.81316e-06 -1.2249e-06)
(-2.37116e-06 1.52227e-06 1.44617e-06 1.39953e-06 1.93351e-06 -2.01607e-06)
(-6.38108e-06 3.59386e-06 7.59944e-07 1.2929e-06 2.29104e-06 -7.29175e-07)
(-9.33399e-06 5.05861e-06 -3.46361e-07 1.20095e-06 2.67488e-06 1.12835e-06)
(-7.93313e-06 4.17504e-06 -2.89684e-07 1.63644e-06 3.28475e-06 -3.3526e-06)
(8.27637e-06 -4.88737e-06 2.35563e-06 3.29885e-07 8.76027e-07 -2.02486e-07)
(5.38804e-06 -3.61725e-06 1.83143e-06 -1.80239e-07 2.14964e-06 -1.90949e-06)
(6.25583e-06 -4.58699e-06 1.82916e-06 -1.12601e-07 2.20022e-06 -2.08135e-06)
(3.88722e-06 -2.64303e-06 1.96151e-06 -9.85026e-08 2.91147e-06 -2.53219e-06)
(5.70141e-07 -5.37175e-07 1.3874e-06 8.98052e-08 3.51015e-06 -1.91004e-06)
(1.80843e-06 -1.58915e-06 1.7685e-06 -4.60537e-07 3.84971e-06 -1.93456e-06)
(-1.04057e-06 4.99793e-07 1.86808e-06 5.1886e-07 3.49652e-06 -1.63816e-06)
(-4.24467e-06 2.69944e-06 1.07572e-06 9.25076e-07 3.47987e-06 -1.20262e-06)
(-2.69633e-06 1.71222e-06 1.59833e-06 2.92579e-07 4.26329e-06 -1.33095e-06)
(-5.81831e-06 3.61133e-06 5.31202e-07 1.13488e-06 3.19284e-06 -2.08697e-06)
(-8.245e-06 5.53894e-06 -3.07688e-07 1.04763e-06 2.89853e-06 -3.91573e-06)
(-6.85993e-06 4.78748e-06 8.36199e-07 9.83457e-07 3.97384e-06 -2.3222e-07)
(7.36019e-06 -4.79311e-06 1.85432e-06 -9.32614e-07 1.14626e-06 -4.28668e-06)
(4.87995e-06 -3.75894e-06 1.65939e-06 -1.01065e-06 2.79143e-06 -2.47935e-06)
(6.94817e-06 -4.21838e-06 2.29504e-06 -5.30661e-07 2.14985e-06 -2.32584e-06)
(3.49355e-06 -2.67794e-06 2.19666e-06 -6.81705e-07 4.10017e-06 -2.23609e-06)
(5.8729e-07 -8.07758e-07 1.62849e-06 -1.16598e-07 4.85953e-06 -1.80193e-06)
(2.39443e-06 -1.77664e-06 1.80083e-06 8.5443e-08 3.85019e-06 -2.30526e-06)
(-8.77376e-07 4.46658e-07 2.14452e-06 5.07478e-07 4.90881e-06 -1.69661e-06)
(-3.71399e-06 2.38847e-06 1.32746e-06 1.19509e-06 4.92037e-06 -1.42185e-06)
(-2.26863e-06 1.2581e-06 1.61265e-06 1.2652e-06 4.15777e-06 -1.63026e-06)
(-5.12781e-06 3.5102e-06 1.21802e-06 1.72168e-06 4.5003e-06 6.40156e-07)
(-7.26618e-06 5.32329e-06 1.46177e-07 1.87275e-06 4.83798e-06 2.20561e-06)
(-6.82742e-06 4.37438e-06 -2.24019e-07 1.83046e-06 4.63166e-06 -1.09942e-06)
(6.09744e-06 -5.80568e-06 1.7793e-06 -2.97495e-06 4.38241e-07 1.99359e-06)
(3.89402e-06 -4.53705e-06 2.41284e-06 -2.75236e-06 4.02213e-06 1.50928e-06)
(4.66847e-06 -5.10343e-06 1.83663e-06 -3.05919e-06 1.8151e-06 1.15306e-06)
(2.79931e-06 -3.13707e-06 2.28864e-06 -1.35699e-06 4.58547e-06 -1.92155e-06)
(4.26013e-07 -6.41049e-07 2.77094e-06 -1.04585e-07 6.8208e-06 -1.36972e-06)
(9.50335e-07 -1.80337e-06 1.97274e-06 -1.33598e-06 5.2083e-06 -1.3168e-06)
(-8.35632e-07 6.13124e-07 2.38019e-06 1.03007e-06 5.55911e-06 -1.81003e-06)
(-3.00951e-06 3.04744e-06 2.15393e-06 2.45752e-06 5.89246e-06 -3.0322e-06)
(-2.70876e-06 1.9078e-06 1.78598e-06 1.20117e-06 5.49755e-06 -1.44147e-06)
(-4.33574e-06 4.05321e-06 1.11408e-06 2.88374e-06 4.44164e-06 8.13874e-07)
(-5.98338e-06 5.9248e-06 7.5342e-08 3.63308e-06 2.79617e-06 1.32212e-06)
(-5.89501e-06 5.2824e-06 9.99112e-07 2.81942e-06 4.26721e-06 3.70587e-06)
(5.5673e-06 -5.59364e-06 1.35171e-06 -4.97915e-06 1.19791e-06 3.96467e-06)
(2.86716e-06 -4.13844e-06 2.59027e-06 -3.98823e-06 5.62813e-06 1.90087e-06)
(4.37314e-06 -5.35142e-06 3.30708e-06 -4.82033e-06 4.76954e-06 3.4748e-06)
(2.16307e-06 -2.61435e-06 2.36155e-06 -2.09282e-06 5.55301e-06 -1.34869e-06)
(-1.48916e-07 -3.20635e-07 2.78921e-06 -1.06071e-07 7.77695e-06 -1.20945e-06)
(1.47938e-06 -1.53119e-06 3.23211e-06 -8.12671e-07 7.42903e-06 -1.28915e-06)
(-1.18009e-06 9.88248e-07 2.45286e-06 1.59178e-06 6.41869e-06 -1.83419e-06)
(-3.27431e-06 3.36876e-06 2.1677e-06 3.5387e-06 6.54121e-06 -3.48296e-06)
(-1.5362e-06 2.17763e-06 2.88539e-06 2.99923e-06 6.97433e-06 -3.35776e-06)
(-4.52824e-06 4.35176e-06 1.32112e-06 4.25591e-06 4.46276e-06 2.22591e-07)
(-5.61411e-06 5.97297e-06 -6.49938e-07 5.21118e-06 2.40032e-06 -2.29505e-06)
(-4.44502e-06 5.23688e-06 7.02731e-07 5.58179e-06 3.81342e-06 -2.67994e-06)