/*--------------------------------*- C++ -*----------------------------------*\
| =========                 |                                                 |
| \\      /  F ield         | OpenFOAM: The Open Source CFD Toolbox           |
|  \\    /   O peration     | Version:  v2012                                 |
|   \\  /    A nd           | Website:  www.openfoam.com                      |
|    \\/     M anipulation  |                                                 |
\*---------------------------------------------------------------------------*/
FoamFile
{
    version     2.0;
    format      ascii;
    class       pointVectorField;
    location    "1";
    object      pointD;
}
// * * * * * * * * * * * * * * * * * * * * * * * * * * * * * * * * * * * * * //

dimensions      [0 1 0 0 0 0 0];


internalField   nonuniform List<vector> 
1575
(
(1.55408e-05 0 -7.44775e-05)
(2.44313e-06 0 -2.37003e-06)
(0 1.92254e-05 -0.000136563)
(0 1.96942e-06 -1.62852e-06)
(1.52673e-05 0 -6.72908e-05)
(0 1.77751e-05 -4.48316e-05)
(1.17952e-05 1.93213e-05 -0.000128116)
(1.3857e-05 1.83996e-05 -5.79097e-05)
(6.46817e-07 8.79915e-07 -7.64681e-07)
(-1.30969e-05 -2.20487e-05 -0.000128627)
(0 -2.72166e-05 -0.000138258)
(0 -2.06918e-05 -4.60294e-05)
(-1.44916e-05 -1.89142e-05 -5.85191e-05)
(-1.91686e-05 0 -6.79159e-05)
(-1.94268e-05 0 -7.496e-05)
(-2.14539e-06 0 -2.52509e-06)
(-7.95712e-07 -1.0667e-06 -1.04399e-06)
(0 -1.68656e-06 -1.84042e-06)
(1.46623e-05 2.15259e-05 -0.00011461)
(1.50038e-05 2.05875e-05 -9.71526e-05)
(1.48099e-05 1.97705e-05 -7.85866e-05)
(1.29645e-05 1.72797e-05 -4.65138e-05)
(1.21638e-05 1.62341e-05 -3.89787e-05)
(1.12341e-05 1.5013e-05 -3.19389e-05)
(1.01273e-05 1.35568e-05 -2.54639e-05)
(8.86318e-06 1.18627e-05 -1.96294e-05)
(7.43293e-06 9.9396e-06 -1.44861e-05)
(5.83047e-06 7.79311e-06 -1.00883e-05)
(4.11605e-06 5.51026e-06 -6.41007e-06)
(2.38474e-06 3.21122e-06 -3.28138e-06)
(1.12886e-05 2.00844e-05 -0.000128545)
(9.89293e-06 1.95895e-05 -0.000130086)
(8.72563e-06 1.9902e-05 -0.000132215)
(7.54111e-06 2.01615e-05 -0.000134136)
(6.36561e-06 2.0375e-05 -0.000135779)
(5.17742e-06 2.05458e-05 -0.000137136)
(3.97693e-06 2.06415e-05 -0.000138173)
(2.76256e-06 2.06262e-05 -0.00013886)
(1.56888e-06 2.13216e-05 -0.000138713)
(1.3495e-05 1.85352e-05 -0.000121234)
(1.42569e-05 1.64732e-05 -0.000115266)
(1.54603e-05 1.49591e-05 -0.000109403)
(1.64707e-05 1.32323e-05 -0.00010319)
(1.72482e-05 1.13183e-05 -9.67718e-05)
(1.77422e-05 9.25671e-06 -9.0405e-05)
(1.79326e-05 7.10656e-06 -8.4436e-05)
(1.78661e-05 4.98248e-06 -7.93873e-05)
(1.80359e-05 3.14955e-06 -7.59327e-05)
(1.62865e-05 0 -7.30262e-05)
(1.62081e-05 0 -7.11855e-05)
(1.66672e-05 0 -6.94198e-05)
(1.58219e-05 0 -6.12642e-05)
(1.54935e-05 0 -5.37663e-05)
(1.49548e-05 0 -4.61319e-05)
(1.41831e-05 0 -3.84778e-05)
(1.31261e-05 0 -3.0929e-05)
(1.17191e-05 0 -2.36659e-05)
(9.91028e-06 0 -1.68877e-05)
(7.63858e-06 0 -1.08258e-05)
(5.30264e-06 0 -5.97365e-06)
(0 2.16104e-05 -0.00011404)
(0 2.15006e-05 -8.8611e-05)
(0 2.12787e-05 -6.5213e-05)
(0 1.76446e-05 -3.82015e-05)
(0 1.65655e-05 -3.25732e-05)
(0 1.52647e-05 -2.70419e-05)
(0 1.37389e-05 -2.1891e-05)
(0 1.20294e-05 -1.72012e-05)
(0 1.0149e-05 -1.29985e-05)
(0 8.09823e-06 -9.30243e-06)
(0 5.91321e-06 -6.11772e-06)
(0 4.06329e-06 -3.67807e-06)
(1.93883e-05 2.31761e-06 -6.63717e-05)
(1.97568e-05 3.96172e-06 -6.60101e-05)
(1.98226e-05 5.86107e-06 -6.58715e-05)
(1.96449e-05 7.84607e-06 -6.55172e-05)
(1.92178e-05 9.84093e-06 -6.48531e-05)
(1.85457e-05 1.17686e-05 -6.38807e-05)
(1.76615e-05 1.35867e-05 -6.26435e-05)
(1.6608e-05 1.52674e-05 -6.11989e-05)
(1.54315e-05 1.68214e-05 -5.9655e-05)
(1.03366e-06 1.58013e-06 -1.37972e-06)
(1.04824e-06 1.85389e-06 -1.48769e-06)
(9.3523e-07 1.94731e-06 -1.4885e-06)
(7.98012e-07 1.98493e-06 -1.49917e-06)
(6.70099e-07 2.03812e-06 -1.49405e-06)
(5.39363e-07 2.06078e-06 -1.47759e-06)
(4.097e-07 2.08064e-06 -1.46467e-06)
(2.88792e-07 2.10522e-06 -1.46739e-06)
(1.68856e-07 2.3248e-06 -1.60798e-06)
(2.30016e-06 3.28099e-07 -1.79002e-06)
(2.20955e-06 5.25289e-07 -1.76132e-06)
(2.12098e-06 7.23065e-07 -1.73764e-06)
(2.02216e-06 9.1065e-07 -1.71747e-06)
(1.91101e-06 1.08445e-06 -1.6989e-06)
(1.78774e-06 1.24232e-06 -1.68036e-06)
(1.6537e-06 1.38186e-06 -1.66007e-06)
(1.50794e-06 1.49354e-06 -1.62966e-06)
(1.31972e-06 1.53863e-06 -1.5434e-06)
(1.20553e-05 1.98484e-05 -5.56942e-05)
(1.05672e-05 2.07164e-05 -5.38636e-05)
(9.10982e-06 2.13688e-05 -5.21192e-05)
(7.67025e-06 2.18629e-05 -5.05243e-05)
(6.25905e-06 2.22187e-05 -4.91218e-05)
(4.88466e-06 2.2471e-05 -4.79502e-05)
(3.555e-06 2.26366e-05 -4.70328e-05)
(2.27143e-06 2.26904e-05 -4.63966e-05)
(1.19051e-06 2.24589e-05 -4.56274e-05)
(-1.1673e-05 -2.13028e-05 -0.000128878)
(-1.02918e-05 -2.17188e-05 -0.000131749)
(-9.53567e-06 -2.35386e-05 -0.000135055)
(-8.43531e-06 -2.43332e-05 -0.000136982)
(-7.14385e-06 -2.50417e-05 -0.000138698)
(-5.77207e-06 -2.56947e-05 -0.000140174)
(-4.34898e-06 -2.62961e-05 -0.000141381)
(-2.87149e-06 -2.68616e-05 -0.000142312)
(-1.04798e-06 -2.70178e-05 -0.000143193)
(0 -2.72134e-05 -0.000118595)
(0 -2.51843e-05 -9.56996e-05)
(0 -2.22873e-05 -6.78034e-05)
(-1.24658e-06 -2.2577e-05 -4.6904e-05)
(-2.69398e-06 -2.27217e-05 -4.68066e-05)
(-4.09079e-06 -2.27574e-05 -4.75521e-05)
(-5.51658e-06 -2.26306e-05 -4.85464e-05)
(-6.95647e-06 -2.23641e-05 -4.97903e-05)
(-8.41399e-06 -2.19683e-05 -5.12494e-05)
(-9.90469e-06 -2.14461e-05 -5.2888e-05)
(-1.14136e-05 -2.0784e-05 -5.4698e-05)
(-1.29976e-05 -1.9935e-05 -5.66123e-05)
(-1.51541e-05 -2.03973e-05 -7.79327e-05)
(-1.52638e-05 -2.1476e-05 -9.66362e-05)
(-1.48186e-05 -2.25249e-05 -0.000114663)
(4.92273e-06 8.33598e-06 -0.000129977)
(-1.88447e-06 -3.30912e-06 -0.000130273)
(-8.75512e-06 -1.49232e-05 -0.000130281)
(0 8.67005e-06 -0.000141181)
(0 -4.44505e-06 -0.000140865)
(0 -1.84372e-05 -0.000141035)
(0 8.41833e-06 -4.4771e-05)
(0 -2.14398e-06 -4.49865e-05)
(0 -1.2888e-05 -4.55656e-05)
(4.78523e-06 6.47171e-06 -5.7963e-05)
(-1.98031e-06 -2.43922e-06 -5.82146e-05)
(-8.94881e-06 -1.15915e-05 -5.86572e-05)
(-2.0461e-05 -1.8915e-06 -6.74184e-05)
(-2.07453e-05 -4.08677e-06 -6.76474e-05)
(-2.11373e-05 -6.3491e-06 -6.80186e-05)
(-2.10424e-05 -8.42394e-06 -6.74785e-05)
(-2.05103e-05 -1.05734e-05 -6.63122e-05)
(-1.9738e-05 -1.25191e-05 -6.5221e-05)
(-1.87322e-05 -1.43015e-05 -6.38848e-05)
(-1.75232e-05 -1.59177e-05 -6.23487e-05)
(-1.597e-05 -1.75637e-05 -6.03872e-05)
(-1.42831e-05 -2.07891e-05 -0.00012448)
(-1.60729e-05 -1.93497e-05 -0.000119034)
(-1.75724e-05 -1.75905e-05 -0.000112885)
(-1.87765e-05 -1.56092e-05 -0.000106268)
(-1.96597e-05 -1.34239e-05 -9.94552e-05)
(-2.02078e-05 -1.10546e-05 -9.27175e-05)
(-2.04199e-05 -8.54816e-06 -8.64119e-05)
(-1.98901e-05 -5.75495e-06 -8.05761e-05)
(-1.89503e-05 -2.81826e-06 -7.67499e-05)
(-1.89171e-05 0 -7.36036e-05)
(-1.95049e-05 0 -7.1921e-05)
(-1.84863e-05 0 -7.00541e-05)
(6.40892e-06 0 -6.76481e-05)
(-2.77037e-06 0 -6.78166e-05)
(-1.25074e-05 0 -6.78552e-05)
(6.62715e-06 0 -7.49733e-05)
(-3.33913e-06 0 -7.5113e-05)
(-1.33011e-05 0 -7.50949e-05)
(-1.85179e-05 0 -6.28762e-05)
(-1.76104e-05 0 -5.46766e-05)
(-1.77154e-05 0 -4.72639e-05)
(-1.59746e-05 0 -3.96088e-05)
(-1.54586e-05 0 -3.23168e-05)
(-1.36258e-05 0 -2.58116e-05)
(-1.15622e-05 0 -1.89433e-05)
(-8.96473e-06 0 -1.26564e-05)
(-5.07162e-06 0 -6.51127e-06)
(-1.48075e-06 -2.22212e-07 -1.39042e-06)
(-1.40394e-06 -3.04245e-07 -1.3255e-06)
(-1.35516e-06 -4.2637e-07 -1.30265e-06)
(-1.30053e-06 -5.46486e-07 -1.28435e-06)
(-1.23879e-06 -6.61678e-07 -1.26756e-06)
(-1.16953e-06 -7.69888e-07 -1.25105e-06)
(-1.09233e-06 -8.69718e-07 -1.23396e-06)
(-1.00652e-06 -9.62562e-07 -1.21225e-06)
(-8.75747e-07 -9.69377e-07 -1.10262e-06)
(-2.68291e-06 -3.52853e-06 -3.94433e-06)
(-4.86137e-06 -6.30545e-06 -7.89016e-06)
(-6.63396e-06 -8.57634e-06 -1.19738e-05)
(-8.20355e-06 -1.06224e-05 -1.66681e-05)
(-9.47727e-06 -1.22934e-05 -2.14189e-05)
(-1.07725e-05 -1.39934e-05 -2.75212e-05)
(-1.18957e-05 -1.54734e-05 -3.38932e-05)
(-1.2921e-05 -1.67977e-05 -4.12117e-05)
(-1.38116e-05 -1.799e-05 -4.94724e-05)
(6.20553e-07 0 -1.28238e-06)
(-6.33696e-08 0 -1.20761e-06)
(-9.74347e-07 0 -1.737e-06)
(0 0 0)
(0 0 0)
(0 0 0)
(-8.80578e-07 -1.34764e-06 -1.35033e-06)
(-7.81624e-07 -1.34904e-06 -1.33805e-06)
(-6.41113e-07 -1.33716e-06 -1.19761e-06)
(-5.66922e-07 -1.40017e-06 -1.21143e-06)
(-4.32759e-07 -1.34832e-06 -1.14224e-06)
(-4.10014e-07 -1.53169e-06 -1.31272e-06)
(-2.81146e-07 -1.48365e-06 -1.17628e-06)
(-1.95062e-07 -1.48442e-06 -1.15559e-06)
(-1.33958e-07 -1.44124e-06 -1.11834e-06)
(0 -3.60518e-06 -4.1631e-06)
(0 -6.72175e-06 -7.69799e-06)
(0 -9.14447e-06 -1.11007e-05)
(0 -1.13693e-05 -1.49122e-05)
(0 -1.33874e-05 -1.91742e-05)
(0 -1.53318e-05 -2.33435e-05)
(0 -1.6327e-05 -2.76467e-05)
(0 -1.75709e-05 -3.35538e-05)
(0 -1.90984e-05 -4.02873e-05)
(0 4.11417e-07 -6.42094e-07)
(0 -5.67681e-09 -5.88309e-07)
(0 -5.56609e-07 -1.06795e-06)
(1.31674e-05 2.24457e-05 -0.000113594)
(1.33111e-05 2.18195e-05 -9.45723e-05)
(1.30531e-05 2.10714e-05 -7.50345e-05)
(1.18063e-05 2.31474e-05 -0.00011488)
(1.18379e-05 2.27822e-05 -9.48254e-05)
(1.1559e-05 2.20885e-05 -7.4158e-05)
(1.03962e-05 2.38093e-05 -0.000116052)
(1.03628e-05 2.35806e-05 -9.50091e-05)
(1.00785e-05 2.29207e-05 -7.32925e-05)
(8.93872e-06 2.43734e-05 -0.000117063)
(8.86216e-06 2.42366e-05 -9.51247e-05)
(8.59004e-06 2.35938e-05 -7.24747e-05)
(7.44894e-06 2.48293e-05 -0.000117898)
(7.34046e-06 2.47588e-05 -9.51773e-05)
(7.09797e-06 2.41234e-05 -7.17226e-05)
(5.92448e-06 2.51776e-05 -0.000118551)
(5.80654e-06 2.51518e-05 -9.5169e-05)
(5.61246e-06 2.45186e-05 -7.1057e-05)
(4.36908e-06 2.54022e-05 -0.000119001)
(4.27518e-06 2.54183e-05 -9.50941e-05)
(4.14428e-06 2.47856e-05 -7.04924e-05)
(2.74318e-06 2.55185e-05 -0.000119224)
(2.65672e-06 2.55925e-05 -9.49518e-05)
(2.62709e-06 2.49134e-05 -7.00559e-05)
(1.17335e-06 2.55506e-05 -0.00011792)
(1.16583e-06 2.55884e-05 -9.27012e-05)
(1.21507e-06 2.48222e-05 -6.89492e-05)
(1.96175e-05 2.67544e-06 -6.97819e-05)
(1.96546e-05 2.87793e-06 -7.20197e-05)
(1.97552e-05 3.06583e-06 -7.41411e-05)
(1.99876e-05 4.54362e-06 -7.04576e-05)
(2.00782e-05 4.83256e-06 -7.36682e-05)
(2.02012e-05 5.11698e-06 -7.6796e-05)
(2.01116e-05 6.55336e-06 -7.15035e-05)
(2.03112e-05 6.94425e-06 -7.61341e-05)
(2.04625e-05 7.36939e-06 -8.07009e-05)
(2.00247e-05 8.64128e-06 -7.25859e-05)
(2.03167e-05 9.1427e-06 -7.89751e-05)
(2.04901e-05 9.71285e-06 -8.53082e-05)
(1.96661e-05 1.07477e-05 -7.35493e-05)
(2.00267e-05 1.1352e-05 -8.18986e-05)
(2.01911e-05 1.20447e-05 -9.0192e-05)
(1.90429e-05 1.27996e-05 -7.4327e-05)
(1.94349e-05 1.35038e-05 -8.47365e-05)
(1.95509e-05 1.42866e-05 -9.50678e-05)
(1.81858e-05 1.47613e-05 -7.49008e-05)
(1.85696e-05 1.55544e-05 -8.73865e-05)
(1.86087e-05 1.6387e-05 -9.9744e-05)
(1.71533e-05 1.65965e-05 -7.52834e-05)
(1.75101e-05 1.74457e-05 -8.97868e-05)
(1.74363e-05 1.82714e-05 -0.000104095)
(1.61369e-05 1.81682e-05 -7.63528e-05)
(1.64591e-05 1.8986e-05 -9.31064e-05)
(1.62913e-05 1.97946e-05 -0.000108326)
(1.91034e-05 2.52057e-06 -5.91018e-05)
(1.92561e-05 4.12576e-06 -5.81668e-05)
(1.91691e-05 5.9629e-06 -5.74837e-05)
(1.88366e-05 7.86751e-06 -5.65886e-05)
(1.8283e-05 9.74842e-06 -5.54366e-05)
(1.75222e-05 1.15445e-05 -5.40529e-05)
(1.6583e-05 1.3217e-05 -5.24821e-05)
(1.55142e-05 1.47423e-05 -5.0787e-05)
(1.43877e-05 1.61066e-05 -4.91286e-05)
(1.862e-05 2.53325e-06 -5.14528e-05)
(1.86186e-05 4.07701e-06 -5.03393e-05)
(1.84153e-05 5.82902e-06 -4.95267e-05)
(1.79988e-05 7.62291e-06 -4.85604e-05)
(1.73878e-05 9.37573e-06 -4.7396e-05)
(1.65977e-05 1.10378e-05 -4.60458e-05)
(1.5654e-05 1.25748e-05 -4.45433e-05)
(1.46027e-05 1.39676e-05 -4.29434e-05)
(1.35122e-05 1.52145e-05 -4.13908e-05)
(1.79295e-05 2.49041e-06 -4.37789e-05)
(1.77985e-05 3.96503e-06 -4.25801e-05)
(1.75016e-05 5.6101e-06 -4.17198e-05)
(1.70196e-05 7.27842e-06 -4.0755e-05)
(1.63678e-05 8.8937e-06 -3.96367e-05)
(1.55611e-05 1.0411e-05 -3.83728e-05)
(1.46211e-05 1.18013e-05 -3.69886e-05)
(1.35873e-05 1.30498e-05 -3.55276e-05)
(1.25234e-05 1.41609e-05 -3.41204e-05)
(1.69448e-05 2.38076e-06 -3.61725e-05)
(1.66964e-05 3.76135e-06 -3.4971e-05)
(1.63248e-05 5.27878e-06 -3.41344e-05)
(1.57953e-05 6.80099e-06 -3.32326e-05)
(1.512e-05 8.25879e-06 -3.22165e-05)
(1.43118e-05 9.61273e-06 -3.10901e-05)
(1.33891e-05 1.08383e-05 -2.98719e-05)
(1.23855e-05 1.19239e-05 -2.85959e-05)
(1.1362e-05 1.28849e-05 -2.73791e-05)
(1.5592e-05 2.19196e-06 -2.87769e-05)
(1.5246e-05 3.45262e-06 -2.76485e-05)
(1.48236e-05 4.8162e-06 -2.68982e-05)
(1.42709e-05 6.16827e-06 -2.61144e-05)
(1.35958e-05 7.44721e-06 -2.52496e-05)
(1.28092e-05 8.61935e-06 -2.43057e-05)
(1.19265e-05 9.66442e-06 -2.3295e-05)
(1.09766e-05 1.05741e-05 -2.22421e-05)
(1.00164e-05 1.13768e-05 -2.12448e-05)
(1.38093e-05 1.92405e-06 -2.17676e-05)
(1.33844e-05 3.0292e-06 -2.07846e-05)
(1.29417e-05 4.20913e-06 -2.01743e-05)
(1.23981e-05 5.36473e-06 -1.95515e-05)
(1.17554e-05 6.4427e-06 -1.88756e-05)
(1.10222e-05 7.41625e-06 -1.8147e-05)
(1.02119e-05 8.26928e-06 -1.73728e-05)
(9.34772e-06 8.99478e-06 -1.65673e-05)
(8.47634e-06 9.63157e-06 -1.5804e-05)
(1.15376e-05 1.57476e-06 -1.53554e-05)
(1.1062e-05 2.48692e-06 -1.45896e-05)
(1.06404e-05 3.45256e-06 -1.41556e-05)
(1.01475e-05 4.38455e-06 -1.37181e-05)
(9.57804e-06 5.24106e-06 -1.32496e-05)
(8.93937e-06 6.00344e-06 -1.27501e-05)
(8.24254e-06 6.65965e-06 -1.22213e-05)
(7.50549e-06 7.20088e-06 -1.16675e-05)
(6.75399e-06 7.67171e-06 -1.11319e-05)
(8.77626e-06 1.15241e-06 -9.75663e-06)
(8.31621e-06 1.84002e-06 -9.26303e-06)
(7.96835e-06 2.56526e-06 -9.00935e-06)
(7.57262e-06 3.25307e-06 -8.75393e-06)
(7.12267e-06 3.87754e-06 -8.48456e-06)
(6.62441e-06 4.42782e-06 -8.19965e-06)
(6.08644e-06 4.8958e-06 -7.89738e-06)
(5.52235e-06 5.26739e-06 -7.57382e-06)
(4.91483e-06 5.57639e-06 -7.23329e-06)
(5.93339e-06 7.71152e-07 -5.38028e-06)
(5.66894e-06 1.26994e-06 -5.23765e-06)
(5.42384e-06 1.76996e-06 -5.12309e-06)
(5.14635e-06 2.2372e-06 -5.00973e-06)
(4.83391e-06 2.66013e-06 -4.89255e-06)
(4.49034e-06 3.0329e-06 -4.76934e-06)
(4.12144e-06 3.35019e-06 -4.63706e-06)
(3.73661e-06 3.5984e-06 -4.48682e-06)
(3.27398e-06 3.74217e-06 -4.26384e-06)
(2.68864e-06 4.18474e-06 -4.04125e-06)
(4.15663e-06 6.48898e-06 -7.06823e-06)
(5.64225e-06 8.85195e-06 -1.07641e-05)
(6.99258e-06 1.10361e-05 -1.51441e-05)
(8.20668e-06 1.30102e-05 -2.02069e-05)
(9.27446e-06 1.47551e-05 -2.59265e-05)
(1.01882e-05 1.62678e-05 -3.22502e-05)
(1.09494e-05 1.75668e-05 -3.91049e-05)
(1.15665e-05 1.86598e-05 -4.61143e-05)
(2.48924e-06 4.5298e-06 -4.02777e-06)
(3.77092e-06 6.88735e-06 -6.97404e-06)
(5.05776e-06 9.27872e-06 -1.05468e-05)
(6.21878e-06 1.1484e-05 -1.47472e-05)
(7.26783e-06 1.35154e-05 -1.96037e-05)
(8.18603e-06 1.53391e-05 -2.50939e-05)
(8.97939e-06 1.69426e-05 -3.11536e-05)
(9.62387e-06 1.83014e-05 -3.77305e-05)
(1.01426e-05 1.94606e-05 -4.44496e-05)
(2.17976e-06 4.67025e-06 -4.00242e-06)
(3.27125e-06 7.04231e-06 -6.86606e-06)
(4.3712e-06 9.47947e-06 -1.03128e-05)
(5.3746e-06 1.17749e-05 -1.43494e-05)
(6.27957e-06 1.38966e-05 -1.90116e-05)
(7.06248e-06 1.57785e-05 -2.42766e-05)
(7.73087e-06 1.7425e-05 -3.00885e-05)
(8.28382e-06 1.88382e-05 -3.63896e-05)
(8.73584e-06 2.00496e-05 -4.28339e-05)
(1.84413e-06 4.74569e-06 -3.97567e-06)
(2.76141e-06 7.16322e-06 -6.75286e-06)
(3.68561e-06 9.65787e-06 -1.00762e-05)
(4.53153e-06 1.20041e-05 -1.39637e-05)
(5.28494e-06 1.41478e-05 -1.84472e-05)
(5.9433e-06 1.607e-05 -2.35029e-05)
(6.5104e-06 1.77677e-05 -2.90865e-05)
(6.97785e-06 1.92162e-05 -3.51496e-05)
(7.35705e-06 2.04756e-05 -4.13532e-05)
(1.53013e-06 4.83738e-06 -3.93749e-06)
(2.27135e-06 7.26001e-06 -6.64185e-06)
(3.02249e-06 9.76638e-06 -9.85695e-06)
(3.71154e-06 1.21295e-05 -1.36074e-05)
(4.32766e-06 1.43015e-05 -1.79298e-05)
(4.86656e-06 1.62561e-05 -2.28047e-05)
(5.33009e-06 1.79859e-05 -2.81972e-05)
(5.70622e-06 1.94747e-05 -3.40541e-05)
(6.01416e-06 2.07798e-05 -4.00458e-05)
(1.2153e-06 4.87775e-06 -3.87978e-06)
(1.79788e-06 7.31603e-06 -6.52883e-06)
(2.38769e-06 9.83732e-06 -9.66222e-06)
(2.92819e-06 1.22183e-05 -1.33045e-05)
(3.4113e-06 1.4413e-05 -1.74961e-05)
(3.83308e-06 1.63963e-05 -2.22234e-05)
(4.19063e-06 1.81573e-05 -2.74548e-05)
(4.47997e-06 1.9672e-05 -3.31392e-05)
(4.7151e-06 2.09924e-05 -3.89583e-05)
(9.11979e-07 4.9194e-06 -3.84839e-06)
(1.34298e-06 7.36981e-06 -6.45505e-06)
(1.77794e-06 9.90756e-06 -9.52521e-06)
(2.17692e-06 1.23063e-05 -1.30841e-05)
(2.53385e-06 1.45188e-05 -1.71741e-05)
(2.84452e-06 1.6518e-05 -2.17838e-05)
(3.10621e-06 1.82914e-05 -2.6883e-05)
(3.31429e-06 1.98161e-05 -3.24277e-05)
(3.47465e-06 2.11445e-05 -3.81061e-05)
(6.22657e-07 4.98173e-06 -3.84895e-06)
(9.01611e-07 7.46362e-06 -6.4368e-06)
(1.1904e-06 1.00245e-05 -9.47549e-06)
(1.46249e-06 1.24323e-05 -1.29852e-05)
(1.70974e-06 1.46488e-05 -1.7009e-05)
(1.92589e-06 1.66489e-05 -2.15388e-05)
(2.10608e-06 1.84193e-05 -2.65454e-05)
(2.24391e-06 1.9934e-05 -3.19845e-05)
(2.33154e-06 2.12412e-05 -3.75454e-05)
(3.17796e-07 5.27946e-06 -4.04732e-06)
(4.7922e-07 7.88864e-06 -6.73966e-06)
(6.64413e-07 1.04123e-05 -9.81007e-06)
(8.5062e-07 1.27905e-05 -1.33625e-05)
(1.02709e-06 1.4971e-05 -1.74242e-05)
(1.18554e-06 1.69325e-05 -2.1981e-05)
(1.31762e-06 1.86586e-05 -2.69991e-05)
(1.39882e-06 2.00915e-05 -3.24194e-05)
(1.4178e-06 2.12354e-05 -3.76226e-05)
(6.06283e-06 1.10433e-05 -0.00013229)
(-2.23086e-07 -6.36095e-07 -0.000132702)
(-6.492e-06 -1.26082e-05 -0.00013277)
(5.8413e-06 1.1597e-05 -0.000134718)
(4.50027e-07 -3.03321e-08 -0.000135331)
(-5.45201e-06 -1.31663e-05 -0.00013543)
(4.94825e-06 1.08491e-05 -0.000137136)
(1.34097e-08 -1.58358e-06 -0.000137817)
(-5.51427e-06 -1.53021e-05 -0.000137817)
(4.00074e-06 1.01226e-05 -0.00013934)
(-3.90623e-07 -2.819e-06 -0.000140016)
(-4.95041e-06 -1.59195e-05 -0.000139912)
(3.35375e-06 1.0077e-05 -0.000141195)
(-3.74725e-07 -3.13656e-06 -0.000141869)
(-4.15845e-06 -1.64633e-05 -0.000141745)
(2.77799e-06 1.00545e-05 -0.00014272)
(-2.35923e-07 -3.3978e-06 -0.00014342)
(-3.28598e-06 -1.69526e-05 -0.000143305)
(2.21248e-06 1.00067e-05 -0.000143899)
(-7.82827e-08 -3.63585e-06 -0.000144634)
(-2.37663e-06 -1.73985e-05 -0.000144561)
(1.65481e-06 9.89962e-06 -0.000144691)
(8.76341e-08 -3.87985e-06 -0.000145454)
(-1.44653e-06 -1.78205e-05 -0.000145488)
(1.10212e-06 1.12534e-05 -0.00014501)
(3.01578e-07 -2.62493e-06 -0.000145743)
(-4.83948e-07 -1.66764e-05 -0.00014599)
(0 9.2303e-06 -0.000118665)
(0 -5.11238e-06 -0.000118023)
(0 -1.86076e-05 -0.000118217)
(0 1.03789e-05 -9.17455e-05)
(0 -2.53897e-06 -9.22655e-05)
(0 -1.54937e-05 -9.26205e-05)
(0 1.16822e-05 -6.5711e-05)
(0 -3.22277e-07 -6.60441e-05)
(0 -1.22805e-05 -6.65434e-05)
(4.84698e-06 7.85712e-06 -5.57149e-05)
(-1.13107e-06 -1.65457e-06 -5.59042e-05)
(-7.22527e-06 -1.13088e-05 -5.63183e-05)
(4.28708e-06 8.20537e-06 -5.37616e-05)
(-9.68623e-07 -1.70565e-06 -5.39306e-05)
(-6.33166e-06 -1.17473e-05 -5.43975e-05)
(3.70305e-06 8.46903e-06 -5.1974e-05)
(-8.1809e-07 -1.74645e-06 -5.21461e-05)
(-5.45185e-06 -1.21143e-05 -5.26544e-05)
(3.13253e-06 8.66138e-06 -5.03024e-05)
(-6.74142e-07 -1.7752e-06 -5.04732e-05)
(-4.60089e-06 -1.23828e-05 -5.10317e-05)
(2.57293e-06 8.80156e-06 -4.88251e-05)
(-5.40414e-07 -1.79124e-06 -4.89945e-05)
(-3.77066e-06 -1.25703e-05 -4.9589e-05)
(2.02749e-06 8.89988e-06 -4.75824e-05)
(-4.10629e-07 -1.7923e-06 -4.7745e-05)
(-2.95221e-06 -1.26821e-05 -4.83674e-05)
(1.50552e-06 8.97763e-06 -4.6608e-05)
(-2.74781e-07 -1.75994e-06 -4.67644e-05)
(-2.13783e-06 -1.27014e-05 -4.7401e-05)
(1.01099e-06 9.03347e-06 -4.59417e-05)
(-1.29937e-07 -1.69234e-06 -4.61022e-05)
(-1.32112e-06 -1.26014e-05 -4.67202e-05)
(5.27823e-07 1.09238e-05 -4.52614e-05)
(3.2294e-09 -1.88588e-07 -4.57098e-05)
(-5.25726e-07 -1.09316e-05 -4.62668e-05)
(6.66205e-06 9.99717e-06 -0.000114231)
(6.20926e-07 8.65173e-07 -0.000116153)
(-6.32083e-06 -9.82848e-06 -0.000115604)
(6.89652e-06 9.45551e-06 -9.74265e-05)
(-5.15283e-07 -7.64627e-07 -9.69565e-05)
(-8.92874e-06 -1.25437e-05 -9.80831e-05)
(6.22694e-06 8.33193e-06 -7.87302e-05)
(-9.23807e-07 -1.19709e-06 -7.71441e-05)
(-7.69719e-06 -1.02607e-05 -7.86094e-05)
(-1.36903e-05 -2.31249e-05 -0.000112561)
(-1.4023e-05 -2.23362e-05 -9.55225e-05)
(-1.385e-05 -2.12546e-05 -7.4956e-05)
(-1.24874e-05 -2.39533e-05 -0.000116446)
(-1.279e-05 -2.31768e-05 -9.58165e-05)
(-1.24075e-05 -2.20754e-05 -7.29248e-05)
(-1.08923e-05 -2.50019e-05 -0.000119926)
(-1.12957e-05 -2.40314e-05 -9.60971e-05)
(-1.0888e-05 -2.28742e-05 -7.19689e-05)
(-9.38206e-06 -2.5832e-05 -0.00012117)
(-9.78111e-06 -2.47882e-05 -9.63194e-05)
(-9.35942e-06 -2.35863e-05 -7.10734e-05)
(-7.88077e-06 -2.65559e-05 -0.000122198)
(-8.23518e-06 -2.54798e-05 -9.64586e-05)
(-7.82907e-06 -2.41781e-05 -7.02551e-05)
(-6.32894e-06 -2.72205e-05 -0.000123034)
(-6.65409e-06 -2.60822e-05 -9.6538e-05)
(-6.28942e-06 -2.46437e-05 -6.95358e-05)
(-4.7251e-06 -2.78171e-05 -0.000123685)
(-5.02861e-06 -2.65819e-05 -9.65743e-05)
(-4.73061e-06 -2.49702e-05 -6.89425e-05)
(-2.99107e-06 -2.83694e-05 -0.000124135)
(-3.31485e-06 -2.69706e-05 -9.65713e-05)
(-3.16124e-06 -2.51231e-05 -6.8501e-05)
(-8.52772e-07 -2.88319e-05 -0.000123045)
(-1.07068e-06 -2.7359e-05 -9.73081e-05)
(-1.16797e-06 -2.53926e-05 -7.0488e-05)
(8.88582e-06 8.38284e-07 -6.69695e-05)
(-1.21623e-06 -1.95932e-07 -6.7359e-05)
(-1.13848e-05 -1.19596e-06 -6.73745e-05)
(7.81338e-06 1.51778e-06 -6.6679e-05)
(-2.02403e-06 -5.61408e-07 -6.70273e-05)
(-1.20522e-05 -2.60473e-06 -6.72547e-05)
(8.18035e-06 2.38753e-06 -6.61097e-05)
(-1.19355e-06 -5.11377e-07 -6.68069e-05)
(-1.12811e-05 -3.60642e-06 -6.71091e-05)
(7.95493e-06 3.13383e-06 -6.57861e-05)
(-1.46569e-06 -8.08985e-07 -6.63537e-05)
(-1.14996e-05 -4.90831e-06 -6.67151e-05)
(7.51795e-06 3.77168e-06 -6.52146e-05)
(-2.08178e-06 -1.27923e-06 -6.56038e-05)
(-1.19176e-05 -6.35544e-06 -6.59922e-05)
(7.26387e-06 4.53274e-06 -6.41458e-05)
(-1.97049e-06 -1.42237e-06 -6.45362e-05)
(-1.14437e-05 -7.43968e-06 -6.49513e-05)
(6.9237e-06 5.27353e-06 -6.28269e-05)
(-1.8355e-06 -1.52003e-06 -6.32159e-05)
(-1.08297e-05 -8.41482e-06 -6.36594e-05)
(6.50298e-06 5.97971e-06 -6.13149e-05)
(-1.6958e-06 -1.57505e-06 -6.16944e-05)
(-1.01083e-05 -9.26979e-06 -6.21653e-05)
(6.63708e-06 7.35806e-06 -5.9671e-05)
(-9.3831e-07 -8.95033e-07 -5.99918e-05)
(-8.65353e-06 -9.26586e-06 -6.04418e-05)
(6.34497e-06 9.5966e-06 -0.00012559)
(-1.44096e-06 -1.86473e-06 -0.000126044)
(-8.97386e-06 -1.29909e-05 -0.000126188)
(6.62158e-06 8.3954e-06 -0.000119706)
(-1.66584e-06 -1.81554e-06 -0.000120239)
(-1.00024e-05 -1.21218e-05 -0.000120456)
(7.20008e-06 7.55797e-06 -0.000113391)
(-1.77703e-06 -1.72677e-06 -0.000113835)
(-1.08143e-05 -1.10539e-05 -0.000114046)
(7.6301e-06 6.641e-06 -0.000106664)
(-1.88175e-06 -1.61119e-06 -0.000107007)
(-1.14628e-05 -9.83e-06 -0.000107194)
(7.95109e-06 5.64217e-06 -9.96995e-05)
(-1.95222e-06 -1.45848e-06 -9.99847e-05)
(-1.19175e-05 -8.47163e-06 -0.000100172)
(8.17754e-06 4.58437e-06 -9.2774e-05)
(-1.98761e-06 -1.28123e-06 -9.30453e-05)
(-1.21992e-05 -7.01522e-06 -9.32528e-05)
(8.9695e-06 3.73785e-06 -8.62585e-05)
(-7.9411e-07 -6.37285e-07 -8.65613e-05)
(-1.17558e-05 -5.29414e-06 -8.68063e-05)
(9.56805e-06 2.81088e-06 -8.07496e-05)
(4.65812e-07 -2.4442e-08 -8.10256e-05)
(-1.03071e-05 -3.30318e-06 -8.1267e-05)
(9.96156e-06 1.79983e-06 -7.70314e-05)
(4.76046e-07 1.72646e-07 -7.72491e-05)
(-9.63976e-06 -1.5306e-06 -7.73709e-05)
(7.63659e-06 0 -7.34965e-05)
(-1.59869e-06 0 -7.38016e-05)
(-1.09624e-05 0 -7.36753e-05)
(8.25473e-06 0 -7.18652e-05)
(-2.25039e-06 0 -7.18802e-05)
(-1.3267e-05 0 -7.19286e-05)
(8.11094e-06 0 -7.0012e-05)
(-1.04365e-06 0 -6.98964e-05)
(-1.00781e-05 0 -7.01277e-05)
(-2.06926e-05 -2.22005e-06 -7.0447e-05)
(-2.07869e-05 -2.11922e-06 -7.26765e-05)
(-2.09177e-05 -2.38352e-06 -7.48163e-05)
(-2.11156e-05 -4.63388e-06 -7.11766e-05)
(-2.13666e-05 -4.88228e-06 -7.44431e-05)
(-2.16509e-05 -5.23791e-06 -7.74828e-05)
(-2.1544e-05 -6.95259e-06 -7.23971e-05)
(-2.18793e-05 -7.13362e-06 -7.65802e-05)
(-2.20759e-05 -7.74379e-06 -8.14869e-05)
(-2.14956e-05 -8.95365e-06 -7.30945e-05)
(-2.1988e-05 -9.4253e-06 -7.94583e-05)
(-2.20875e-05 -1.03652e-05 -8.63895e-05)
(-2.10648e-05 -1.12341e-05 -7.355e-05)
(-2.16741e-05 -1.17424e-05 -8.23944e-05)
(-2.17336e-05 -1.28377e-05 -9.15361e-05)
(-2.03397e-05 -1.32816e-05 -7.41051e-05)
(-2.1026e-05 -1.39254e-05 -8.52744e-05)
(-2.10367e-05 -1.51535e-05 -9.67513e-05)
(-1.93577e-05 -1.51815e-05 -7.44723e-05)
(-2.00717e-05 -1.59576e-05 -8.8017e-05)
(-1.99883e-05 -1.72883e-05 -0.000101841)
(-1.81338e-05 -1.69384e-05 -7.46489e-05)
(-1.88127e-05 -1.78491e-05 -9.05525e-05)
(-1.85853e-05 -1.92528e-05 -0.000106637)
(-1.65753e-05 -1.87069e-05 -7.45952e-05)
(-1.7061e-05 -1.97963e-05 -9.29591e-05)
(-1.67191e-05 -2.10689e-05 -0.000110354)
(7.54973e-06 0 -6.19093e-05)
(-1.98683e-06 0 -6.20833e-05)
(-1.15638e-05 0 -6.21793e-05)
(7.43556e-06 0 -5.43858e-05)
(-1.32099e-06 0 -5.50286e-05)
(-1.01494e-05 0 -5.46914e-05)
(7.74654e-06 0 -4.71921e-05)
(-1.71487e-06 0 -4.68332e-05)
(-1.1697e-05 0 -4.71195e-05)
(6.44488e-06 0 -3.94041e-05)
(-2.00072e-06 0 -3.85744e-05)
(-9.56346e-06 0 -3.98786e-05)
(6.88016e-06 0 -3.17691e-05)
(-4.74089e-07 0 -3.13673e-05)
(-9.18328e-06 0 -3.18885e-05)
(5.41731e-06 0 -2.42699e-05)
(-1.79622e-06 0 -2.39556e-05)
(-8.36661e-06 0 -2.40923e-05)
(4.88042e-06 0 -1.68457e-05)
(-7.16737e-07 0 -1.6815e-05)
(-6.57418e-06 0 -1.75277e-05)
(3.71789e-06 0 -1.05042e-05)
(-4.23921e-07 0 -1.03326e-05)
(-4.81471e-06 0 -1.11197e-05)
(2.47098e-06 0 -5.08451e-06)
(6.8459e-08 0 -4.72843e-06)
(-2.39713e-06 0 -5.38358e-06)
(0 0 0)
(0 0 0)
(0 0 0)
(0 0 0)
(0 0 0)
(0 0 0)
(0 0 0)
(0 0 0)
(0 0 0)
(0 0 0)
(0 0 0)
(0 0 0)
(0 0 0)
(0 0 0)
(0 0 0)
(0 0 0)
(0 0 0)
(0 0 0)
(0 0 0)
(0 0 0)
(0 0 0)
(0 0 0)
(0 0 0)
(0 0 0)
(0 0 0)
(0 0 0)
(0 0 0)
(5.19068e-06 7.04572e-06 -4.70022e-05)
(-1.13863e-06 -1.25607e-06 -4.72354e-05)
(-7.60911e-06 -9.73962e-06 -4.77516e-05)
(4.86791e-06 6.62641e-06 -3.92217e-05)
(-8.16032e-07 -8.09544e-07 -3.9712e-05)
(-6.55965e-06 -8.32078e-06 -3.98813e-05)
(4.72729e-06 6.43772e-06 -3.22336e-05)
(-9.03017e-07 -9.04619e-07 -3.2087e-05)
(-7.06812e-06 -8.96137e-06 -3.27674e-05)
(3.86104e-06 5.27935e-06 -2.54862e-05)
(-8.93544e-07 -8.99135e-07 -2.51036e-05)
(-5.34601e-06 -6.68941e-06 -2.59212e-05)
(3.71198e-06 5.03796e-06 -1.93242e-05)
(-6.35349e-07 -5.90204e-07 -1.90917e-05)
(-5.48079e-06 -6.8913e-06 -2.00304e-05)
(2.80305e-06 3.80043e-06 -1.38353e-05)
(-6.89027e-07 -6.89868e-07 -1.31742e-05)
(-4.10262e-06 -5.10339e-06 -1.45123e-05)
(2.23324e-06 2.99764e-06 -8.89319e-06)
(-3.29813e-07 -2.75127e-07 -8.70579e-06)
(-3.09591e-06 -3.82292e-06 -9.7146e-06)
(1.46886e-06 1.95508e-06 -4.99527e-06)
(-1.75169e-07 -1.27986e-07 -4.72039e-06)
(-1.99557e-06 -2.45359e-06 -5.60452e-06)
(7.73503e-07 1.01035e-06 -2.01555e-06)
(4.05236e-08 7.64412e-08 -1.69207e-06)
(-7.0737e-07 -8.77157e-07 -2.11678e-06)
(-2.00878e-05 -2.11384e-06 -6.12024e-05)
(-2.038e-05 -4.32074e-06 -6.15209e-05)
(-2.05539e-05 -6.44972e-06 -6.0999e-05)
(-2.03265e-05 -8.54511e-06 -6.01845e-05)
(-1.97647e-05 -1.05428e-05 -5.9084e-05)
(-1.89372e-05 -1.24031e-05 -5.77384e-05)
(-1.78945e-05 -1.40885e-05 -5.61941e-05)
(-1.66677e-05 -1.56009e-05 -5.44893e-05)
(-1.5142e-05 -1.70924e-05 -5.23681e-05)
(-1.95178e-05 -2.15621e-06 -5.34517e-05)
(-1.96874e-05 -4.24697e-06 -5.37671e-05)
(-1.96855e-05 -6.23383e-06 -5.30688e-05)
(-1.93997e-05 -8.20599e-06 -5.21517e-05)
(-1.88194e-05 -1.00959e-05 -5.1019e-05)
(-1.79907e-05 -1.18461e-05 -4.96885e-05)
(-1.69659e-05 -1.3425e-05 -4.81963e-05)
(-1.57756e-05 -1.48274e-05 -4.65702e-05)
(-1.43064e-05 -1.61777e-05 -4.45412e-05)
(-1.8748e-05 -2.14786e-06 -4.60554e-05)
(-1.87554e-05 -4.13129e-06 -4.60184e-05)
(-1.86252e-05 -5.96748e-06 -4.52363e-05)
(-1.82637e-05 -7.78343e-06 -4.42877e-05)
(-1.76555e-05 -9.52462e-06 -4.31763e-05)
(-1.68318e-05 -1.11362e-05 -4.19112e-05)
(-1.58352e-05 -1.25837e-05 -4.05179e-05)
(-1.46909e-05 -1.38558e-05 -3.90121e-05)
(-1.32531e-05 -1.49983e-05 -3.69355e-05)
(-1.76132e-05 -2.09694e-06 -3.8275e-05)
(-1.75806e-05 -3.93968e-06 -3.83778e-05)
(-1.73545e-05 -5.61323e-06 -3.759e-05)
(-1.69321e-05 -7.25666e-06 -3.66791e-05)
(-1.63039e-05 -8.82919e-06 -3.56468e-05)
(-1.54924e-05 -1.02812e-05 -3.44976e-05)
(-1.45317e-05 -1.15786e-05 -3.32493e-05)
(-1.34438e-05 -1.27039e-05 -3.19077e-05)
(-1.21189e-05 -1.37145e-05 -3.02576e-05)
(-1.6241e-05 -1.99359e-06 -3.1105e-05)
(-1.61171e-05 -3.66085e-06 -3.09564e-05)
(-1.58186e-05 -5.14782e-06 -3.02282e-05)
(-1.53578e-05 -6.60224e-06 -2.94136e-05)
(-1.47264e-05 -7.98826e-06 -2.8511e-05)
(-1.39415e-05 -9.26248e-06 -2.75224e-05)
(-1.30308e-05 -1.03937e-05 -2.64589e-05)
(-1.20132e-05 -1.13629e-05 -2.53219e-05)
(-1.07503e-05 -1.21597e-05 -2.37805e-05)
(-1.44311e-05 -1.82541e-06 -2.39862e-05)
(-1.42936e-05 -3.27325e-06 -2.38789e-05)
(-1.39596e-05 -4.55426e-06 -2.32644e-05)
(-1.34887e-05 -5.80019e-06 -2.25917e-05)
(-1.28787e-05 -6.98147e-06 -2.18583e-05)
(-1.21436e-05 -8.06096e-06 -2.10647e-05)
(-1.13054e-05 -9.0121e-06 -2.02172e-05)
(-1.03786e-05 -9.81578e-06 -1.93128e-05)
(-9.2774e-06 -1.04778e-05 -1.82402e-05)
(-1.2119e-05 -1.58343e-06 -1.73313e-05)
(-1.20433e-05 -2.77235e-06 -1.72872e-05)
(-1.17129e-05 -3.81801e-06 -1.68214e-05)
(-1.1267e-05 -4.83307e-06 -1.63194e-05)
(-1.0712e-05 -5.79027e-06 -1.57792e-05)
(-1.00594e-05 -6.65887e-06 -1.52002e-05)
(-9.32603e-06 -7.41795e-06 -1.45843e-05)
(-8.52328e-06 -8.04967e-06 -1.39249e-05)
(-7.5884e-06 -8.53739e-06 -1.31773e-05)
(-9.22902e-06 -1.26942e-06 -1.1296e-05)
(-9.27098e-06 -2.13875e-06 -1.13243e-05)
(-8.9843e-06 -2.91699e-06 -1.10174e-05)
(-8.60593e-06 -3.67517e-06 -1.06931e-05)
(-8.14977e-06 -4.38619e-06 -1.0349e-05)
(-7.62422e-06 -5.0271e-06 -9.98335e-06)
(-7.04051e-06 -5.58335e-06 -9.59501e-06)
(-6.40468e-06 -6.03973e-06 -9.17347e-06)
(-5.67462e-06 -6.35517e-06 -8.72735e-06)
(-5.33102e-06 -7.97137e-07 -5.65332e-06)
(-5.32199e-06 -1.21459e-06 -5.61335e-06)
(-5.13455e-06 -1.6553e-06 -5.47151e-06)
(-4.90305e-06 -2.08558e-06 -5.32921e-06)
(-4.63306e-06 -2.48781e-06 -5.18129e-06)
(-4.32793e-06 -2.85071e-06 -5.02561e-06)
(-3.99211e-06 -3.1675e-06 -4.8603e-06)
(-3.62783e-06 -3.43228e-06 -4.67546e-06)