/*--------------------------------*- C++ -*----------------------------------*\
| =========                 |                                                 |
| \\      /  F ield         | OpenFOAM: The Open Source CFD Toolbox           |
|  \\    /   O peration     | Version:  v2012                                 |
|   \\  /    A nd           | Website:  www.openfoam.com                      |
|    \\/     M anipulation  |                                                 |
\*---------------------------------------------------------------------------*/
FoamFile
{
    version     2.0;
    format      ascii;
    class       pointVectorField;
    location    "1";
    object      pointD;
}
// * * * * * * * * * * * * * * * * * * * * * * * * * * * * * * * * * * * * * //

dimensions      [0 1 0 0 0 0 0];


internalField   nonuniform List<vector> 
72837
(
(7.85147e-08 -6.21905e-06 0)
(0 -6.20299e-06 0)
(0 -5.89019e-06 0)
(3.47677e-08 -3.05872e-08 0)
(-2.32321e-08 -2.11047e-08 0)
(-1.14215e-06 -4.78882e-06 0)
(-1.91519e-07 -5.85746e-06 0)
(-1.14552e-06 -4.63087e-06 0)
(-1.53586e-07 -5.85828e-06 0)
(-7.7091e-07 -4.79496e-06 0)
(-8.67309e-07 -4.90157e-06 0)
(-4.22806e-07 -5.46905e-06 0)
(-4.37781e-07 -5.42997e-06 0)
(-2.16545e-07 -5.77661e-06 0)
(-1.89801e-07 -5.74958e-06 0)
(-1.1202e-06 -2.04783e-06 0)
(1.19189e-06 -2.13282e-06 0)
(5.1275e-08 -6.00109e-06 0)
(0 -5.96312e-06 0)
(-3.03227e-07 -5.63638e-06 0)
(-3.14116e-07 -5.61652e-06 0)
(0 -5.87287e-06 0)
(-6.15297e-07 -5.16106e-06 0)
(-5.02052e-07 -5.16684e-06 0)
(9.90012e-07 -4.93051e-06 0)
(-2.34261e-08 -1.42167e-08 1.41459e-08)
(-1.12586e-06 -2.03915e-06 4.66081e-08)
(1.19505e-06 -2.09042e-06 -4.46085e-08)
(3.90901e-08 -2.21758e-08 -2.53114e-08)
(-1.13179e-06 -4.62992e-06 -3.45755e-08)
(-7.37925e-07 -4.79423e-06 -7.48461e-08)
(9.82981e-07 -4.9638e-06 7.79792e-08)
(-4.85445e-07 -5.19747e-06 -1.36078e-07)
(-4.42931e-07 -5.49303e-06 -1.64857e-07)
(0 -5.91049e-06 8.24535e-08)
(0 -5.87848e-06 -2.56727e-08)
(-3.34432e-07 -5.59864e-06 -1.25653e-07)
(0 -5.96184e-06 -2.52162e-08)
(-1.82835e-07 -5.72482e-06 -6.41371e-08)
(5.35661e-08 -6.00132e-06 -1.70679e-08)
(-1.39248e-07 -5.84308e-06 -2.81963e-08)
(0 -6.20265e-06 -1.91299e-08)
(7.85119e-08 -6.22125e-06 -2.18456e-08)
(-8.44375e-07 -4.90911e-06 -8.3475e-08)
(-1.13234e-06 -4.79626e-06 -4.40994e-08)
(-6.07881e-07 -5.19312e-06 -1.58766e-07)
(-4.66021e-07 -5.45534e-06 -1.8969e-07)
(-3.27001e-07 -5.62065e-06 -1.39145e-07)
(-2.11355e-07 -5.75501e-06 -6.66064e-08)
(-1.79935e-07 -5.84446e-06 -3.41875e-08)
(7.59528e-08 -6.2196e-06 0)
(7.24371e-08 -6.21881e-06 0)
(6.8999e-08 -6.21755e-06 0)
(6.55605e-08 -6.21664e-06 0)
(6.1824e-08 -6.21522e-06 0)
(5.81849e-08 -6.21391e-06 0)
(5.44618e-08 -6.21259e-06 0)
(5.06447e-08 -6.21127e-06 0)
(4.67329e-08 -6.20997e-06 0)
(4.2737e-08 -6.2087e-06 0)
(3.86475e-08 -6.20751e-06 0)
(3.44657e-08 -6.20638e-06 0)
(3.0211e-08 -6.20536e-06 0)
(2.58774e-08 -6.20445e-06 0)
(2.14722e-08 -6.20367e-06 0)
(1.70157e-08 -6.20305e-06 0)
(1.25046e-08 -6.2026e-06 0)
(7.94179e-09 -6.20238e-06 0)
(3.61436e-09 -6.20242e-06 0)
(0 -6.19896e-06 0)
(0 -6.19305e-06 0)
(0 -6.18698e-06 0)
(0 -6.18091e-06 0)
(0 -6.17484e-06 0)
(0 -6.16878e-06 0)
(0 -6.16271e-06 0)
(0 -6.15664e-06 0)
(0 -6.15056e-06 0)
(0 -6.1445e-06 0)
(0 -6.13844e-06 0)
(0 -6.13239e-06 0)
(0 -6.12632e-06 0)
(0 -6.12023e-06 0)
(0 -6.11427e-06 0)
(0 -6.10805e-06 0)
(0 -6.10199e-06 0)
(0 -6.09593e-06 0)
(0 -6.08985e-06 0)
(0 -6.08376e-06 0)
(0 -6.07767e-06 0)
(0 -6.07159e-06 0)
(0 -6.06551e-06 0)
(0 -6.05944e-06 0)
(0 -6.05336e-06 0)
(0 -6.04728e-06 0)
(0 -6.0412e-06 0)
(0 -6.03526e-06 0)
(0 -6.02907e-06 0)
(0 -6.02305e-06 0)
(0 -6.01703e-06 0)
(0 -6.01103e-06 0)
(0 -6.00506e-06 0)
(0 -5.99912e-06 0)
(0 -5.9932e-06 0)
(0 -5.9873e-06 0)
(0 -5.98145e-06 0)
(0 -5.97561e-06 0)
(0 -5.97021e-06 0)
(0 -5.95184e-06 0)
(0 -5.94178e-06 0)
(0 -5.93127e-06 0)
(0 -5.9211e-06 0)
(0 -5.91138e-06 0)
(0 -5.90217e-06 0)
(0 -5.89355e-06 0)
(0 -5.88564e-06 0)
(0 -5.87851e-06 0)
(0 -5.87227e-06 0)
(0 -5.86702e-06 0)
(0 -5.86282e-06 0)
(0 -5.85977e-06 0)
(0 -5.85794e-06 0)
(0 -5.85736e-06 0)
(0 -5.85806e-06 0)
(0 -5.86002e-06 0)
(0 -5.86318e-06 0)
(0 -5.86718e-06 0)
(6.29645e-08 -5.87957e-06 0)
(1.06352e-07 -5.8698e-06 0)
(1.49954e-07 -5.85783e-06 0)
(1.94173e-07 -5.84301e-06 0)
(2.39101e-07 -5.82481e-06 0)
(2.84908e-07 -5.80285e-06 0)
(3.31681e-07 -5.77664e-06 0)
(3.79379e-07 -5.74594e-06 0)
(4.28149e-07 -5.71056e-06 0)
(4.77943e-07 -5.67008e-06 0)
(5.28748e-07 -5.62418e-06 0)
(5.80358e-07 -5.57233e-06 0)
(6.32601e-07 -5.51401e-06 0)
(6.85209e-07 -5.4493e-06 0)
(7.37824e-07 -5.37806e-06 0)
(7.90139e-07 -5.29999e-06 0)
(8.41828e-07 -5.21483e-06 0)
(8.92656e-07 -5.12267e-06 0)
(9.39499e-07 -5.02946e-06 0)
(1.17727e-06 -2.02652e-06 0)
(1.16378e-06 -1.95584e-06 0)
(1.15008e-06 -1.88405e-06 0)
(1.13522e-06 -1.81303e-06 0)
(1.11939e-06 -1.74295e-06 0)
(1.10267e-06 -1.67373e-06 0)
(1.08504e-06 -1.60541e-06 0)
(1.06651e-06 -1.53801e-06 0)
(1.04711e-06 -1.47155e-06 0)
(1.02675e-06 -1.40619e-06 0)
(1.00568e-06 -1.34181e-06 0)
(9.83874e-07 -1.27808e-06 0)
(9.60149e-07 -1.21384e-06 0)
(9.36819e-07 -1.15467e-06 0)
(9.1245e-07 -1.09507e-06 0)
(8.87123e-07 -1.03661e-06 0)
(8.60899e-07 -9.79398e-07 0)
(8.33794e-07 -9.23482e-07 0)
(8.05812e-07 -8.68906e-07 0)
(7.76952e-07 -8.15709e-07 0)
(7.4721e-07 -7.63927e-07 0)
(7.16581e-07 -7.13596e-07 0)
(6.85054e-07 -6.64742e-07 0)
(6.5264e-07 -6.17394e-07 0)
(6.1933e-07 -5.71599e-07 0)
(5.85313e-07 -5.27138e-07 0)
(5.49448e-07 -4.82901e-07 0)
(5.14365e-07 -4.42905e-07 0)
(4.77848e-07 -4.03457e-07 0)
(4.405e-07 -3.65474e-07 0)
(4.02349e-07 -3.28936e-07 0)
(3.63447e-07 -2.93775e-07 0)
(3.23857e-07 -2.59883e-07 0)
(2.83657e-07 -2.27024e-07 0)
(2.4279e-07 -1.949e-07 0)
(2.01175e-07 -1.63182e-07 0)
(1.58741e-07 -1.31186e-07 0)
(1.15212e-07 -9.776e-08 0)
(7.24265e-08 -6.36018e-08 0)
(1.12384e-08 -1.08667e-08 0)
(8.29517e-09 -7.2344e-09 0)
(6.74274e-09 -5.86171e-09 0)
(5.54033e-09 -5.11367e-09 0)
(4.50692e-09 -4.65615e-09 0)
(3.57277e-09 -4.3713e-09 0)
(2.70103e-09 -4.1862e-09 0)
(1.87108e-09 -4.07332e-09 0)
(1.06566e-09 -3.99937e-09 0)
(2.77049e-10 -3.96433e-09 0)
(-5.11747e-10 -3.964e-09 0)
(-1.30756e-09 -3.98672e-09 0)
(-2.12202e-09 -4.05396e-09 0)
(-2.97292e-09 -4.18763e-09 0)
(-3.87452e-09 -4.4147e-09 0)
(-4.86264e-09 -4.80633e-09 0)
(-6.02341e-09 -5.55661e-09 0)
(-7.6e-09 -7.25945e-09 0)
(-1.16878e-08 -1.28987e-08 0)
(-5.15523e-08 -4.78577e-08 0)
(-9.07626e-08 -8.0723e-08 0)
(-1.31996e-07 -1.13002e-07 0)
(-1.72794e-07 -1.44204e-07 0)
(-2.13114e-07 -1.75303e-07 0)
(-2.52863e-07 -2.06838e-07 0)
(-2.91964e-07 -2.39104e-07 0)
(-3.30355e-07 -2.72428e-07 0)
(-3.68112e-07 -3.07055e-07 0)
(-4.05122e-07 -3.43022e-07 0)
(-4.4132e-07 -3.80325e-07 0)
(-4.76706e-07 -4.19081e-07 0)
(-5.11268e-07 -4.59282e-07 0)
(-5.45317e-07 -5.01132e-07 0)
(-5.77952e-07 -5.44211e-07 0)
(-6.10572e-07 -5.91507e-07 0)
(-6.41468e-07 -6.38503e-07 0)
(-6.71692e-07 -6.86767e-07 0)
(-7.0101e-07 -7.36418e-07 0)
(-7.29481e-07 -7.87543e-07 0)
(-7.5704e-07 -8.40088e-07 0)
(-7.8369e-07 -8.94003e-07 0)
(-8.09434e-07 -9.49234e-07 0)
(-8.34275e-07 -1.00571e-06 0)
(-8.58217e-07 -1.06336e-06 0)
(-8.81331e-07 -1.12212e-06 0)
(-9.03987e-07 -1.18212e-06 0)
(-9.25559e-07 -1.24262e-06 0)
(-9.46529e-07 -1.30797e-06 0)
(-9.65893e-07 -1.37184e-06 0)
(-9.84633e-07 -1.43637e-06 0)
(-1.00274e-06 -1.50192e-06 0)
(-1.01992e-06 -1.56842e-06 0)
(-1.03621e-06 -1.63567e-06 0)
(-1.05174e-06 -1.70374e-06 0)
(-1.06644e-06 -1.77257e-06 0)
(-1.08027e-06 -1.84211e-06 0)
(-1.09328e-06 -1.91218e-06 0)
(-1.10215e-06 -1.97773e-06 0)
(-1.12651e-06 -2.11036e-06 0)
(-1.13377e-06 -2.16227e-06 0)
(-1.14098e-06 -2.21429e-06 0)
(-1.14776e-06 -2.26647e-06 0)
(-1.15425e-06 -2.3189e-06 0)
(-1.16021e-06 -2.3715e-06 0)
(-1.16592e-06 -2.42434e-06 0)
(-1.17128e-06 -2.4775e-06 0)
(-1.17618e-06 -2.53081e-06 0)
(-1.18057e-06 -2.58407e-06 0)
(-1.18459e-06 -2.63738e-06 0)
(-1.18827e-06 -2.69075e-06 0)
(-1.19163e-06 -2.7441e-06 0)
(-1.195e-06 -2.79762e-06 0)
(-1.19811e-06 -2.85051e-06 0)
(-1.20043e-06 -2.90713e-06 0)
(-1.20219e-06 -2.96157e-06 0)
(-1.20367e-06 -3.01573e-06 0)
(-1.20482e-06 -3.06989e-06 0)
(-1.20567e-06 -3.12406e-06 0)
(-1.20618e-06 -3.17819e-06 0)
(-1.20638e-06 -3.23233e-06 0)
(-1.20624e-06 -3.28645e-06 0)
(-1.20579e-06 -3.3405e-06 0)
(-1.20502e-06 -3.39443e-06 0)
(-1.204e-06 -3.4482e-06 0)
(-1.20305e-06 -3.50194e-06 0)
(-1.20207e-06 -3.5547e-06 0)
(-1.20032e-06 -3.61198e-06 0)
(-1.19796e-06 -3.66637e-06 0)
(-1.19548e-06 -3.72029e-06 0)
(-1.19294e-06 -3.77405e-06 0)
(-1.19015e-06 -3.82788e-06 0)
(-1.18716e-06 -3.88159e-06 0)
(-1.18403e-06 -3.93519e-06 0)
(-1.18078e-06 -3.98873e-06 0)
(-1.17742e-06 -4.04228e-06 0)
(-1.17395e-06 -4.09579e-06 0)
(-1.17044e-06 -4.14923e-06 0)
(-1.1669e-06 -4.20273e-06 0)
(-1.16338e-06 -4.25632e-06 0)
(-1.15991e-06 -4.30992e-06 0)
(-1.15656e-06 -4.36358e-06 0)
(-1.1534e-06 -4.41741e-06 0)
(-1.15047e-06 -4.4715e-06 0)
(-1.14783e-06 -4.5257e-06 0)
(-1.14551e-06 -4.57744e-06 0)
(-1.14344e-06 -4.75899e-06 0)
(-1.1438e-06 -4.71751e-06 0)
(-1.14395e-06 -4.67758e-06 0)
(-1.65939e-07 -5.85806e-06 0)
(-1.76039e-07 -5.85776e-06 0)
(-1.85203e-07 -5.85737e-06 0)
(-1.38354e-07 -5.85925e-06 0)
(-1.27309e-07 -5.86016e-06 0)
(-1.17272e-07 -5.86144e-06 0)
(-1.07998e-07 -5.86303e-06 0)
(-9.93621e-08 -5.86488e-06 0)
(-9.1299e-08 -5.86694e-06 0)
(-8.37245e-08 -5.86919e-06 0)
(-7.65992e-08 -5.8716e-06 0)
(-6.98845e-08 -5.87414e-06 0)
(-6.35101e-08 -5.87678e-06 0)
(-5.7465e-08 -5.87951e-06 0)
(-5.17386e-08 -5.88233e-06 0)
(-4.65268e-08 -5.88514e-06 0)
(-4.10027e-08 -5.88828e-06 0)
(-3.59063e-08 -5.89129e-06 0)
(-3.10732e-08 -5.89434e-06 0)
(-2.64687e-08 -5.89744e-06 0)
(-2.20783e-08 -5.90056e-06 0)
(-1.78765e-08 -5.90372e-06 0)
(-1.38511e-08 -5.90691e-06 0)
(-9.98662e-09 -5.91014e-06 0)
(-6.28065e-09 -5.91338e-06 0)
(-2.73173e-09 -5.91664e-06 0)
(6.68173e-10 -5.91991e-06 0)
(3.93493e-09 -5.9232e-06 0)
(7.06224e-09 -5.92651e-06 0)
(9.97235e-09 -5.92975e-06 0)
(1.29877e-08 -5.9332e-06 0)
(1.57899e-08 -5.93655e-06 0)
(1.84598e-08 -5.9399e-06 0)
(2.10171e-08 -5.94327e-06 0)
(2.34716e-08 -5.94664e-06 0)
(2.58262e-08 -5.95003e-06 0)
(2.80864e-08 -5.95342e-06 0)
(3.02549e-08 -5.95682e-06 0)
(3.23346e-08 -5.96023e-06 0)
(3.4329e-08 -5.96365e-06 0)
(3.62428e-08 -5.96708e-06 0)
(3.80777e-08 -5.97052e-06 0)
(3.98367e-08 -5.97396e-06 0)
(4.1523e-08 -5.97741e-06 0)
(4.31378e-08 -5.98086e-06 0)
(4.4684e-08 -5.98432e-06 0)
(4.6163e-08 -5.98778e-06 0)
(4.75751e-08 -5.99125e-06 0)
(4.89169e-08 -5.99473e-06 0)
(4.99894e-08 -5.99776e-06 0)
(5.24738e-08 -6.00522e-06 0)
(5.39502e-08 -6.01007e-06 0)
(5.5424e-08 -6.01511e-06 0)
(5.68021e-08 -6.02016e-06 0)
(5.8092e-08 -6.02524e-06 0)
(5.92991e-08 -6.03037e-06 0)
(6.04307e-08 -6.03553e-06 0)
(6.14987e-08 -6.04072e-06 0)
(6.25002e-08 -6.04595e-06 0)
(6.34315e-08 -6.05121e-06 0)
(6.43114e-08 -6.05652e-06 0)
(6.51458e-08 -6.06185e-06 0)
(6.59151e-08 -6.06734e-06 0)
(6.66076e-08 -6.07263e-06 0)
(6.73148e-08 -6.07807e-06 0)
(6.79695e-08 -6.08352e-06 0)
(6.85716e-08 -6.08899e-06 0)
(6.91532e-08 -6.09453e-06 0)
(6.97183e-08 -6.10009e-06 0)
(7.02604e-08 -6.10568e-06 0)
(7.07928e-08 -6.11131e-06 0)
(7.12995e-08 -6.11694e-06 0)
(7.17854e-08 -6.1226e-06 0)
(7.22657e-08 -6.12829e-06 0)
(7.27496e-08 -6.134e-06 0)
(7.32093e-08 -6.13971e-06 0)
(7.36283e-08 -6.14556e-06 0)
(7.40321e-08 -6.1512e-06 0)
(7.44785e-08 -6.157e-06 0)
(7.49282e-08 -6.1628e-06 0)
(7.53771e-08 -6.16861e-06 0)
(7.58151e-08 -6.17442e-06 0)
(7.62432e-08 -6.18023e-06 0)
(7.66617e-08 -6.18606e-06 0)
(7.70793e-08 -6.19192e-06 0)
(7.74999e-08 -6.19779e-06 0)
(7.7904e-08 -6.20365e-06 0)
(7.8266e-08 -6.20951e-06 0)
(7.84978e-08 -6.21493e-06 0)
(4.91215e-08 -5.99878e-06 0)
(4.64142e-08 -5.99582e-06 0)
(4.31668e-08 -5.99226e-06 0)
(3.98458e-08 -5.98871e-06 0)
(3.65035e-08 -5.9853e-06 0)
(3.31796e-08 -5.98208e-06 0)
(2.99077e-08 -5.97911e-06 0)
(2.67178e-08 -5.9764e-06 0)
(2.36442e-08 -5.97398e-06 0)
(2.07125e-08 -5.97187e-06 0)
(1.79444e-08 -5.97005e-06 0)
(1.53533e-08 -5.96852e-06 0)
(1.29466e-08 -5.96726e-06 0)
(1.07271e-08 -5.96624e-06 0)
(8.68618e-09 -5.96543e-06 0)
(6.81133e-09 -5.96481e-06 0)
(5.08508e-09 -5.96434e-06 0)
(3.48379e-09 -5.964e-06 0)
(1.96241e-09 -5.96377e-06 0)
(-1.00714e-06 -2.05268e-06 0)
(-8.80422e-07 -2.04965e-06 0)
(-7.53284e-07 -2.04566e-06 0)
(-6.30836e-07 -2.04218e-06 0)
(-5.1287e-07 -2.03926e-06 0)
(-3.9869e-07 -2.03706e-06 0)
(-2.87477e-07 -2.03554e-06 0)
(-1.78627e-07 -2.03476e-06 0)
(-7.14172e-08 -2.03482e-06 0)
(3.49751e-08 -2.03576e-06 0)
(1.41352e-07 -2.0375e-06 0)
(2.48473e-07 -2.04003e-06 0)
(3.57083e-07 -2.04336e-06 0)
(4.6796e-07 -2.04762e-06 0)
(5.81992e-07 -2.05282e-06 0)
(6.99925e-07 -2.05894e-06 0)
(8.22406e-07 -2.066e-06 0)
(9.49704e-07 -2.07411e-06 0)
(1.07184e-06 -2.08434e-06 0)
(-7.24468e-07 -4.74375e-06 0)
(-6.83461e-07 -4.69195e-06 0)
(-6.42847e-07 -4.63786e-06 0)
(-6.04092e-07 -4.58373e-06 0)
(-5.66322e-07 -4.52948e-06 0)
(-5.291e-07 -4.4752e-06 0)
(-4.92132e-07 -4.42073e-06 0)
(-4.55202e-07 -4.36611e-06 0)
(-4.18289e-07 -4.31142e-06 0)
(-3.81315e-07 -4.25652e-06 0)
(-3.44152e-07 -4.20138e-06 0)
(-3.06875e-07 -4.14622e-06 0)
(-2.69568e-07 -4.09098e-06 0)
(-2.32052e-07 -4.03498e-06 0)
(-1.94804e-07 -3.9796e-06 0)
(-1.54663e-07 -3.92124e-06 0)
(-1.15765e-07 -3.8647e-06 0)
(-7.691e-08 -3.80825e-06 0)
(-3.76545e-08 -3.75138e-06 0)
(1.67645e-09 -3.694e-06 0)
(4.17231e-08 -3.63548e-06 0)
(8.04929e-08 -3.58019e-06 0)
(1.20758e-07 -3.52317e-06 0)
(1.61291e-07 -3.46577e-06 0)
(2.02006e-07 -3.40845e-06 0)
(2.42797e-07 -3.35122e-06 0)
(2.83867e-07 -3.29329e-06 0)
(3.24747e-07 -3.23618e-06 0)
(3.68187e-07 -3.17695e-06 0)
(4.10335e-07 -3.11956e-06 0)
(4.52508e-07 -3.06229e-06 0)
(4.95042e-07 -3.00493e-06 0)
(5.37692e-07 -2.94789e-06 0)
(5.80271e-07 -2.89099e-06 0)
(6.23793e-07 -2.83316e-06 0)
(6.66009e-07 -2.77863e-06 0)
(7.0954e-07 -2.72286e-06 0)
(7.53105e-07 -2.66739e-06 0)
(7.96792e-07 -2.61234e-06 0)
(8.40382e-07 -2.55794e-06 0)
(8.84074e-07 -2.50409e-06 0)
(9.2773e-07 -2.45085e-06 0)
(9.71385e-07 -2.39824e-06 0)
(1.01506e-06 -2.34621e-06 0)
(1.05866e-06 -2.29479e-06 0)
(1.10182e-06 -2.24419e-06 0)
(1.1448e-06 -2.19364e-06 0)
(-8.47118e-07 -4.87864e-06 0)
(-8.18762e-07 -4.85057e-06 0)
(-7.91555e-07 -4.82181e-06 0)
(-4.3959e-07 -5.43818e-06 0)
(-4.36768e-07 -5.45044e-06 0)
(-4.3032e-07 -5.46132e-06 0)
(-4.01605e-07 -5.48712e-06 0)
(-3.78608e-07 -5.50208e-06 0)
(-3.53221e-07 -5.51687e-06 0)
(-3.27297e-07 -5.53113e-06 0)
(-3.01414e-07 -5.54519e-06 0)
(-2.75846e-07 -5.55924e-06 0)
(-2.50806e-07 -5.57332e-06 0)
(-2.26362e-07 -5.58748e-06 0)
(-2.02551e-07 -5.60174e-06 0)
(-1.79493e-07 -5.61603e-06 0)
(-1.57207e-07 -5.63029e-06 0)
(-1.35654e-07 -5.6445e-06 0)
(-1.149e-07 -5.6586e-06 0)
(-9.47413e-08 -5.67254e-06 0)
(-7.56073e-08 -5.68613e-06 0)
(-5.63363e-08 -5.70047e-06 0)
(-3.86547e-08 -5.71399e-06 0)
(-2.17877e-08 -5.72715e-06 0)
(-5.6932e-09 -5.74004e-06 0)
(9.6082e-09 -5.7525e-06 0)
(2.43384e-08 -5.76478e-06 0)
(3.73148e-08 -5.77618e-06 0)
(4.98129e-08 -5.78749e-06 0)
(6.13638e-08 -5.79829e-06 0)
(7.19805e-08 -5.80859e-06 0)
(8.1577e-08 -5.81834e-06 0)
(9.02476e-08 -5.82753e-06 0)
(9.78144e-08 -5.83608e-06 0)
(1.04581e-07 -5.84453e-06 0)
(1.10013e-07 -5.8521e-06 0)
(1.14373e-07 -5.85906e-06 0)
(1.17661e-07 -5.8654e-06 0)
(1.19774e-07 -5.87112e-06 0)
(1.2072e-07 -5.87621e-06 0)
(1.20564e-07 -5.88081e-06 0)
(1.19296e-07 -5.88463e-06 0)
(1.16846e-07 -5.88792e-06 0)
(1.13202e-07 -5.89058e-06 0)
(1.08373e-07 -5.89265e-06 0)
(1.02421e-07 -5.89412e-06 0)
(9.53058e-08 -5.89506e-06 0)
(8.71194e-08 -5.89546e-06 0)
(7.7824e-08 -5.89538e-06 0)
(6.74995e-08 -5.89483e-06 0)
(5.62548e-08 -5.8939e-06 0)
(4.41082e-08 -5.89268e-06 0)
(3.13057e-08 -5.89133e-06 0)
(-1.95794e-07 -5.75501e-06 0)
(-2.02875e-07 -5.76111e-06 0)
(-2.10575e-07 -5.76885e-06 0)
(-1.77154e-07 -5.7465e-06 0)
(-1.66804e-07 -5.74624e-06 0)
(-1.5723e-07 -5.74835e-06 0)
(-1.48251e-07 -5.75199e-06 0)
(-1.39746e-07 -5.75661e-06 0)
(-1.31653e-07 -5.76188e-06 0)
(-1.23943e-07 -5.76754e-06 0)
(-1.16566e-07 -5.77347e-06 0)
(-1.09499e-07 -5.77954e-06 0)
(-1.02726e-07 -5.78567e-06 0)
(-9.62438e-08 -5.7918e-06 0)
(-9.00187e-08 -5.79789e-06 0)
(-8.43342e-08 -5.80359e-06 0)
(-7.82704e-08 -5.80986e-06 0)
(-7.28732e-08 -5.81562e-06 0)
(-6.73623e-08 -5.82154e-06 0)
(-6.22535e-08 -5.82716e-06 0)
(-5.73828e-08 -5.83264e-06 0)
(-5.27231e-08 -5.838e-06 0)
(-4.82665e-08 -5.84322e-06 0)
(-4.40141e-08 -5.84832e-06 0)
(-3.99657e-08 -5.85328e-06 0)
(-3.61234e-08 -5.85812e-06 0)
(-3.24795e-08 -5.86285e-06 0)
(-2.90389e-08 -5.86746e-06 0)
(-2.57995e-08 -5.87198e-06 0)
(-2.28728e-08 -5.87625e-06 0)
(-1.99732e-08 -5.88068e-06 0)
(-1.72195e-08 -5.88506e-06 0)
(-1.47362e-08 -5.88925e-06 0)
(-1.24583e-08 -5.89338e-06 0)
(-1.0372e-08 -5.89745e-06 0)
(-8.46978e-09 -5.90147e-06 0)
(-6.75103e-09 -5.90544e-06 0)
(-5.21396e-09 -5.90939e-06 0)
(-3.85523e-09 -5.91331e-06 0)
(-2.67027e-09 -5.91721e-06 0)
(-1.65592e-09 -5.9211e-06 0)
(-8.07304e-10 -5.92499e-06 0)
(-1.19788e-10 -5.92888e-06 0)
(4.11797e-10 -5.93278e-06 0)
(7.93505e-10 -5.93669e-06 0)
(1.03198e-09 -5.94062e-06 0)
(1.13479e-09 -5.94457e-06 0)
(1.11096e-09 -5.94856e-06 0)
(9.72153e-10 -5.95258e-06 0)
(7.67155e-10 -5.957e-06 0)
(-1.13146e-06 -4.79154e-06 0)
(-1.1176e-06 -4.79237e-06 0)
(-1.10363e-06 -4.79385e-06 0)
(-1.08954e-06 -4.79583e-06 0)
(-1.07546e-06 -4.79846e-06 0)
(-1.06134e-06 -4.80167e-06 0)
(-1.04711e-06 -4.80539e-06 0)
(-1.0328e-06 -4.80962e-06 0)
(-1.01852e-06 -4.81444e-06 0)
(-1.00421e-06 -4.8198e-06 0)
(-9.89826e-07 -4.82565e-06 0)
(-9.75407e-07 -4.83199e-06 0)
(-9.61045e-07 -4.83887e-06 0)
(-9.46685e-07 -4.84625e-06 0)
(-9.32365e-07 -4.8541e-06 0)
(-9.18127e-07 -4.86245e-06 0)
(-9.03987e-07 -4.87127e-06 0)
(-8.90035e-07 -4.88045e-06 0)
(-8.79825e-07 -4.88971e-06 0)
(-7.49377e-07 -4.80453e-06 0)
(-7.33385e-07 -4.8184e-06 0)
(-7.1638e-07 -4.8345e-06 0)
(-6.99759e-07 -4.85128e-06 0)
(-6.83572e-07 -4.8686e-06 0)
(-6.67885e-07 -4.88647e-06 0)
(-6.52682e-07 -4.90481e-06 0)
(-6.37974e-07 -4.92356e-06 0)
(-6.23819e-07 -4.94271e-06 0)
(-6.10217e-07 -4.96219e-06 0)
(-5.97192e-07 -4.98195e-06 0)
(-5.84744e-07 -5.00195e-06 0)
(-5.72924e-07 -5.02215e-06 0)
(-5.61682e-07 -5.04247e-06 0)
(-5.51058e-07 -5.06287e-06 0)
(-5.41039e-07 -5.08331e-06 0)
(-5.31596e-07 -5.1037e-06 0)
(-5.2274e-07 -5.12401e-06 0)
(-5.14405e-07 -5.14414e-06 0)
(-4.17484e-07 -5.48032e-06 0)
(-4.13956e-07 -5.48898e-06 0)
(-4.10218e-07 -5.49808e-06 0)
(-4.0635e-07 -5.50681e-06 0)
(-4.0226e-07 -5.51518e-06 0)
(-3.97942e-07 -5.52323e-06 0)
(-3.93384e-07 -5.53097e-06 0)
(-3.88593e-07 -5.53842e-06 0)
(-3.83577e-07 -5.54563e-06 0)
(-3.78312e-07 -5.55262e-06 0)
(-3.72809e-07 -5.55942e-06 0)
(-3.67067e-07 -5.56606e-06 0)
(-3.61063e-07 -5.57258e-06 0)
(-3.54851e-07 -5.57899e-06 0)
(-3.48468e-07 -5.5853e-06 0)
(-3.4192e-07 -5.59154e-06 0)
(-3.3521e-07 -5.59774e-06 0)
(-3.28371e-07 -5.60392e-06 0)
(-3.21435e-07 -5.61013e-06 0)
(-2.12525e-07 -5.78169e-06 0)
(-2.09879e-07 -5.78695e-06 0)
(-2.07413e-07 -5.79204e-06 0)
(-2.05135e-07 -5.79698e-06 0)
(-2.0304e-07 -5.80177e-06 0)
(-2.0108e-07 -5.80641e-06 0)
(-1.99287e-07 -5.8109e-06 0)
(-1.97648e-07 -5.81527e-06 0)
(-1.96156e-07 -5.8195e-06 0)
(-1.94827e-07 -5.82361e-06 0)
(-1.93642e-07 -5.8276e-06 0)
(-1.92629e-07 -5.83149e-06 0)
(-1.91767e-07 -5.83527e-06 0)
(-1.91049e-07 -5.83897e-06 0)
(-1.90489e-07 -5.84259e-06 0)
(-1.90087e-07 -5.84615e-06 0)
(-1.89843e-07 -5.84966e-06 0)
(-1.898e-07 -5.85308e-06 0)
(-1.90188e-07 -5.85588e-06 0)
(-1.13233e-06 -4.63914e-06 0)
(-1.11382e-06 -4.64231e-06 0)
(-1.09426e-06 -4.64438e-06 0)
(-1.07456e-06 -4.64711e-06 0)
(-1.05477e-06 -4.65056e-06 0)
(-1.03488e-06 -4.65478e-06 0)
(-1.01497e-06 -4.65974e-06 0)
(-9.95013e-07 -4.66546e-06 0)
(-9.75056e-07 -4.67194e-06 0)
(-9.55132e-07 -4.67918e-06 0)
(-9.35301e-07 -4.68712e-06 0)
(-9.1555e-07 -4.69582e-06 0)
(-8.9591e-07 -4.70527e-06 0)
(-8.76451e-07 -4.71543e-06 0)
(-8.572e-07 -4.72627e-06 0)
(-8.38168e-07 -4.73785e-06 0)
(-8.19413e-07 -4.75014e-06 0)
(-8.0108e-07 -4.7631e-06 0)
(-7.85542e-07 -4.77771e-06 0)
(-8.48628e-07 -4.91043e-06 0)
(-8.34648e-07 -4.92136e-06 0)
(-8.20771e-07 -4.93267e-06 0)
(-8.07156e-07 -4.94433e-06 0)
(-7.93789e-07 -4.95631e-06 0)
(-7.80488e-07 -4.96861e-06 0)
(-7.67401e-07 -4.9812e-06 0)
(-7.54419e-07 -4.9941e-06 0)
(-7.41569e-07 -5.00727e-06 0)
(-7.28963e-07 -5.02067e-06 0)
(-7.1652e-07 -5.03428e-06 0)
(-7.04342e-07 -5.04805e-06 0)
(-6.924e-07 -5.06195e-06 0)
(-6.80512e-07 -5.07608e-06 0)
(-6.68818e-07 -5.09034e-06 0)
(-6.57422e-07 -5.10464e-06 0)
(-6.46163e-07 -5.11907e-06 0)
(-6.3508e-07 -5.13343e-06 0)
(-6.24183e-07 -5.14674e-06 0)
(-4.29632e-07 -5.44462e-06 0)
(-4.22226e-07 -5.45642e-06 0)
(-4.1491e-07 -5.46795e-06 0)
(-4.07696e-07 -5.47927e-06 0)
(-4.00575e-07 -5.49047e-06 0)
(-3.93497e-07 -5.50141e-06 0)
(-3.86522e-07 -5.51217e-06 0)
(-3.79607e-07 -5.52278e-06 0)
(-3.7274e-07 -5.53318e-06 0)
(-3.65997e-07 -5.54341e-06 0)
(-3.59318e-07 -5.55346e-06 0)
(-3.52714e-07 -5.56335e-06 0)
(-3.46206e-07 -5.57306e-06 0)
(-3.39749e-07 -5.58261e-06 0)
(-3.33383e-07 -5.59201e-06 0)
(-3.27108e-07 -5.60123e-06 0)
(-3.2095e-07 -5.61027e-06 0)
(-3.14901e-07 -5.61918e-06 0)
(-3.09662e-07 -5.62689e-06 0)
(-1.85629e-07 -5.75651e-06 0)
(-1.8219e-07 -5.7625e-06 0)
(-1.78695e-07 -5.76888e-06 0)
(-1.75444e-07 -5.77516e-06 0)
(-1.72447e-07 -5.78135e-06 0)
(-1.69692e-07 -5.78744e-06 0)
(-1.67171e-07 -5.7934e-06 0)
(-1.64891e-07 -5.79925e-06 0)
(-1.62829e-07 -5.80496e-06 0)
(-1.60987e-07 -5.81055e-06 0)
(-1.59366e-07 -5.816e-06 0)
(-1.57958e-07 -5.82131e-06 0)
(-1.56751e-07 -5.82649e-06 0)
(-1.55741e-07 -5.83153e-06 0)
(-1.54927e-07 -5.83645e-06 0)
(-1.54305e-07 -5.84124e-06 0)
(-1.53882e-07 -5.84592e-06 0)
(-1.5365e-07 -5.8505e-06 0)
(-1.53609e-07 -5.85496e-06 0)
(-3.08589e-07 -5.62754e-06 0)
(-3.12225e-07 -5.62109e-06 0)
(-3.13617e-07 -5.61773e-06 0)
(-3.09434e-07 -5.62059e-06 0)
(-3.04207e-07 -5.62557e-06 0)
(-2.97927e-07 -5.63185e-06 0)
(-2.90955e-07 -5.63905e-06 0)
(-2.83586e-07 -5.64682e-06 0)
(-2.75946e-07 -5.655e-06 0)
(-2.68157e-07 -5.66343e-06 0)
(-2.60271e-07 -5.67202e-06 0)
(-2.52387e-07 -5.68064e-06 0)
(-2.44504e-07 -5.6893e-06 0)
(-2.36649e-07 -5.69795e-06 0)
(-2.28897e-07 -5.70649e-06 0)
(-2.21518e-07 -5.71458e-06 0)
(-2.13754e-07 -5.72316e-06 0)
(-2.06494e-07 -5.73116e-06 0)
(-1.98818e-07 -5.7396e-06 0)
(-1.91509e-07 -5.74753e-06 0)
(-1.8432e-07 -5.75522e-06 0)
(-1.77254e-07 -5.76269e-06 0)
(-1.70273e-07 -5.76997e-06 0)
(-1.63376e-07 -5.77705e-06 0)
(-1.56564e-07 -5.78392e-06 0)
(-1.49838e-07 -5.79055e-06 0)
(-1.43191e-07 -5.79695e-06 0)
(-1.36634e-07 -5.80311e-06 0)
(-1.3015e-07 -5.80902e-06 0)
(-1.23935e-07 -5.81448e-06 0)
(-1.17615e-07 -5.81992e-06 0)
(-1.11149e-07 -5.82532e-06 0)
(-1.04919e-07 -5.83027e-06 0)
(-9.87559e-08 -5.83493e-06 0)
(-9.26499e-08 -5.83934e-06 0)
(-8.659e-08 -5.84349e-06 0)
(-8.05781e-08 -5.84738e-06 0)
(-7.4613e-08 -5.851e-06 0)
(-6.86902e-08 -5.85436e-06 0)
(-6.28066e-08 -5.85745e-06 0)
(-5.69593e-08 -5.86027e-06 0)
(-5.11451e-08 -5.86282e-06 0)
(-4.53617e-08 -5.86511e-06 0)
(-3.96066e-08 -5.86712e-06 0)
(-3.38771e-08 -5.86887e-06 0)
(-2.81711e-08 -5.87034e-06 0)
(-2.24872e-08 -5.87155e-06 0)
(-1.68252e-08 -5.87248e-06 0)
(-1.11788e-08 -5.87314e-06 0)
(-5.6833e-09 -5.87348e-06 0)
(-5.94099e-07 -5.1635e-06 0)
(-5.64561e-07 -5.16738e-06 0)
(-5.34624e-07 -5.1692e-06 0)
(9.64659e-07 -4.93476e-06 0)
(9.27721e-07 -4.94469e-06 0)
(8.90686e-07 -4.94993e-06 0)
(8.54071e-07 -4.95474e-06 0)
(8.17935e-07 -4.95928e-06 0)
(7.82323e-07 -4.96364e-06 0)
(7.4728e-07 -4.96781e-06 0)
(7.12737e-07 -4.97182e-06 0)
(6.78617e-07 -4.97582e-06 0)
(6.44971e-07 -4.97968e-06 0)
(6.1177e-07 -4.98346e-06 0)
(5.78976e-07 -4.98727e-06 0)
(5.46629e-07 -4.991e-06 0)
(5.14689e-07 -4.99464e-06 0)
(4.83796e-07 -4.99823e-06 0)
(4.51323e-07 -5.00212e-06 0)
(4.20175e-07 -5.00587e-06 0)
(3.89432e-07 -5.00964e-06 0)
(3.58955e-07 -5.01348e-06 0)
(3.28613e-07 -5.01738e-06 0)
(2.97657e-07 -5.02136e-06 0)
(2.69006e-07 -5.0252e-06 0)
(2.39567e-07 -5.02944e-06 0)
(2.10253e-07 -5.0337e-06 0)
(1.81108e-07 -5.03809e-06 0)
(1.52152e-07 -5.04259e-06 0)
(1.23421e-07 -5.04712e-06 0)
(9.55564e-08 -5.0516e-06 0)
(6.57484e-08 -5.05656e-06 0)
(3.70474e-08 -5.06163e-06 0)
(8.55524e-09 -5.06685e-06 0)
(-1.98976e-08 -5.07219e-06 0)
(-4.83532e-08 -5.07771e-06 0)
(-7.69218e-08 -5.08335e-06 0)
(-1.06324e-07 -5.08922e-06 0)
(-1.33501e-07 -5.09487e-06 0)
(-1.61894e-07 -5.10109e-06 0)
(-1.90447e-07 -5.10742e-06 0)
(-2.19139e-07 -5.1139e-06 0)
(-2.47933e-07 -5.12048e-06 0)
(-2.76966e-07 -5.12716e-06 0)
(-3.06311e-07 -5.13391e-06 0)
(-3.36035e-07 -5.14064e-06 0)
(-3.66277e-07 -5.14727e-06 0)
(-3.97168e-07 -5.15365e-06 0)
(-4.28953e-07 -5.15962e-06 0)
(-4.62007e-07 -5.16483e-06 0)
(-6.03499e-07 -5.17661e-06 0)
(-5.93339e-07 -5.19113e-06 0)
(-5.83333e-07 -5.20565e-06 0)
(-5.73448e-07 -5.2202e-06 0)
(-5.6379e-07 -5.23459e-06 0)
(-5.5435e-07 -5.24883e-06 0)
(-5.45038e-07 -5.26301e-06 0)
(-5.35908e-07 -5.27703e-06 0)
(-5.26914e-07 -5.29101e-06 0)
(-5.18062e-07 -5.30488e-06 0)
(-5.09411e-07 -5.31848e-06 0)
(-5.00917e-07 -5.33189e-06 0)
(-4.92553e-07 -5.34518e-06 0)
(-4.84308e-07 -5.35839e-06 0)
(-4.76177e-07 -5.37141e-06 0)
(-4.68165e-07 -5.38418e-06 0)
(-4.6029e-07 -5.39673e-06 0)
(-4.52462e-07 -5.40899e-06 0)
(-4.45709e-07 -5.41859e-06 0)
(-2.97368e-07 -5.64493e-06 0)
(-2.91726e-07 -5.65324e-06 0)
(-2.8622e-07 -5.6614e-06 0)
(-2.80835e-07 -5.6694e-06 0)
(-2.75587e-07 -5.67725e-06 0)
(-2.70488e-07 -5.68493e-06 0)
(-2.65533e-07 -5.69247e-06 0)
(-2.6072e-07 -5.69986e-06 0)
(-2.56039e-07 -5.70708e-06 0)
(-2.51515e-07 -5.71416e-06 0)
(-2.47157e-07 -5.72108e-06 0)
(-2.42954e-07 -5.72785e-06 0)
(-2.38903e-07 -5.73446e-06 0)
(-2.35e-07 -5.74092e-06 0)
(-2.31246e-07 -5.74723e-06 0)
(-2.27687e-07 -5.75339e-06 0)
(-2.243e-07 -5.75939e-06 0)
(-2.21127e-07 -5.76521e-06 0)
(-2.1898e-07 -5.7704e-06 0)
(-4.96119e-07 -5.1897e-06 0)
(-4.91304e-07 -5.20805e-06 0)
(-4.85263e-07 -5.22691e-06 0)
(-4.79647e-07 -5.24541e-06 0)
(-4.74415e-07 -5.26347e-06 0)
(-4.69562e-07 -5.2811e-06 0)
(-4.65058e-07 -5.29825e-06 0)
(-4.60844e-07 -5.31488e-06 0)
(-4.56896e-07 -5.33097e-06 0)
(-4.53181e-07 -5.34653e-06 0)
(-4.49656e-07 -5.36153e-06 0)
(-4.46275e-07 -5.37596e-06 0)
(-4.43003e-07 -5.38983e-06 0)
(-4.39799e-07 -5.40313e-06 0)
(-4.3663e-07 -5.41587e-06 0)
(-4.33466e-07 -5.42804e-06 0)
(-4.30276e-07 -5.43965e-06 0)
(-4.27052e-07 -5.45069e-06 0)
(-4.24648e-07 -5.46016e-06 0)
(-3.06607e-07 -5.62306e-06 0)
(-2.99952e-07 -5.62891e-06 0)
(-2.9276e-07 -5.63527e-06 0)
(-2.85556e-07 -5.64169e-06 0)
(-2.78395e-07 -5.64816e-06 0)
(-2.713e-07 -5.65468e-06 0)
(-2.64298e-07 -5.66126e-06 0)
(-2.57408e-07 -5.6679e-06 0)
(-2.5065e-07 -5.67461e-06 0)
(-2.44042e-07 -5.68137e-06 0)
(-2.37607e-07 -5.68818e-06 0)
(-2.31365e-07 -5.69502e-06 0)
(-2.25338e-07 -5.70187e-06 0)
(-2.19542e-07 -5.70873e-06 0)
(-2.13977e-07 -5.71559e-06 0)
(-2.0866e-07 -5.72244e-06 0)
(-2.03603e-07 -5.72927e-06 0)
(-1.98801e-07 -5.73606e-06 0)
(-1.94283e-07 -5.74275e-06 0)
(1.02481e-06 -4.83318e-06 0)
(1.06273e-06 -4.72812e-06 0)
(1.10284e-06 -4.6059e-06 0)
(1.13971e-06 -4.47778e-06 0)
(1.17307e-06 -4.34466e-06 0)
(1.20269e-06 -4.20695e-06 0)
(1.22839e-06 -4.06565e-06 0)
(1.25022e-06 -3.92141e-06 0)
(1.26816e-06 -3.77422e-06 0)
(1.28208e-06 -3.62492e-06 0)
(1.29205e-06 -3.47437e-06 0)
(1.2982e-06 -3.32282e-06 0)
(1.30046e-06 -3.17036e-06 0)
(1.29883e-06 -3.01798e-06 0)
(1.29338e-06 -2.86609e-06 0)
(1.28422e-06 -2.71536e-06 0)
(1.27159e-06 -2.56664e-06 0)
(1.25574e-06 -2.41998e-06 0)
(1.23698e-06 -2.284e-06 0)
(0 -5.87939e-06 0)
(0 -5.88555e-06 0)
(0 -5.89259e-06 0)
(0 -5.8998e-06 0)
(0 -5.9069e-06 0)
(0 -5.91363e-06 0)
(0 -5.91978e-06 0)
(0 -5.92513e-06 0)
(0 -5.92947e-06 0)
(0 -5.93266e-06 0)
(0 -5.93456e-06 0)
(0 -5.93508e-06 0)
(0 -5.93414e-06 0)
(0 -5.93174e-06 0)
(0 -5.92789e-06 0)
(0 -5.92267e-06 0)
(0 -5.91626e-06 0)
(0 -5.90887e-06 0)
(0 -5.90114e-06 0)
(-5.70216e-08 -3.42875e-08 3.65995e-08)
(-1.05969e-07 -6.24434e-08 6.47998e-08)
(-1.55264e-07 -9.09319e-08 8.56327e-08)
(-1.98183e-07 -1.17246e-07 9.87704e-08)
(-2.38745e-07 -1.4436e-07 1.0822e-07)
(-2.77552e-07 -1.72848e-07 1.14879e-07)
(-3.15102e-07 -2.02936e-07 1.1943e-07)
(-3.51669e-07 -2.34734e-07 1.22351e-07)
(-3.87413e-07 -2.68297e-07 1.23989e-07)
(-4.22423e-07 -3.0365e-07 1.24603e-07)
(-4.56755e-07 -3.40799e-07 1.24393e-07)
(-4.90435e-07 -3.79735e-07 1.23523e-07)
(-5.23474e-07 -4.20444e-07 1.22117e-07)
(-5.55867e-07 -4.62914e-07 1.20274e-07)
(-5.87594e-07 -5.07124e-07 1.1808e-07)
(-6.18553e-07 -5.52982e-07 1.15668e-07)
(-6.48535e-07 -6.00112e-07 1.13417e-07)
(-6.77884e-07 -6.4836e-07 1.11341e-07)
(-7.06908e-07 -6.98551e-07 1.08936e-07)
(-7.35073e-07 -7.50432e-07 1.06183e-07)
(-7.62449e-07 -8.03756e-07 1.03316e-07)
(-7.89032e-07 -8.58488e-07 1.00387e-07)
(-8.14818e-07 -9.14589e-07 9.74124e-08)
(-8.39805e-07 -9.72019e-07 9.4401e-08)
(-8.63986e-07 -1.03074e-06 9.13588e-08)
(-8.87358e-07 -1.09071e-06 8.82871e-08)
(-9.09917e-07 -1.15189e-06 8.51832e-08)
(-9.31665e-07 -1.21425e-06 8.20419e-08)
(-9.52599e-07 -1.27777e-06 7.88581e-08)
(-9.72708e-07 -1.34242e-06 7.56356e-08)
(-9.91877e-07 -1.40811e-06 7.24442e-08)
(-1.00984e-06 -1.4744e-06 6.96783e-08)
(-1.02708e-06 -1.54106e-06 6.73016e-08)
(-1.04409e-06 -1.60913e-06 6.46007e-08)
(-1.06029e-06 -1.67839e-06 6.14377e-08)
(-1.07796e-06 -1.75693e-06 5.69111e-08)
(-1.08902e-06 -1.82672e-06 5.44413e-08)
(-1.10269e-06 -1.8901e-06 5.26236e-08)
(-1.11727e-06 -1.9702e-06 4.86041e-08)
(-1.02103e-06 -2.04242e-06 4.32149e-08)
(-8.73994e-07 -2.03655e-06 3.64625e-08)
(-7.45534e-07 -2.0318e-06 3.08373e-08)
(-6.34415e-07 -2.02795e-06 2.58139e-08)
(-5.16996e-07 -2.02467e-06 2.08746e-08)
(-4.02979e-07 -2.02259e-06 1.63626e-08)
(-2.92944e-07 -2.02136e-06 1.19094e-08)
(-1.86186e-07 -2.02061e-06 7.33807e-09)
(-8.05812e-08 -2.02028e-06 2.95669e-09)
(3.5308e-08 -2.02141e-06 -1.55481e-09)
(1.48927e-07 -2.02379e-06 -6.08149e-09)
(2.43354e-07 -2.02583e-06 -1.01542e-08)
(3.41243e-07 -2.02792e-06 -1.40913e-08)
(4.63154e-07 -2.03181e-06 -1.82024e-08)
(5.74263e-07 -2.03596e-06 -2.19175e-08)
(6.80338e-07 -2.04048e-06 -2.60388e-08)
(8.00869e-07 -2.04577e-06 -3.03674e-08)