/*--------------------------------*- C++ -*----------------------------------*\
| =========                 |                                                 |
| \\      /  F ield         | OpenFOAM: The Open Source CFD Toolbox           |
|  \\    /   O peration     | Version:  v2012                                 |
|   \\  /    A nd           | Website:  www.openfoam.com                      |
|    \\/     M anipulation  |                                                 |
\*---------------------------------------------------------------------------*/
FoamFile
{
    version     2.0;
    format      ascii;
    class       volScalarField;
    location    "17";
    object      epsilonEq;
}
// * * * * * * * * * * * * * * * * * * * * * * * * * * * * * * * * * * * * * //

dimensions      [0 0 0 0 0 0 0];


internalField   nonuniform List<scalar> 
2000
(
0.00862935
0.00846561
0.00833078
0.00793412
0.00775456
0.00720343
0.00698397
0.0063008
0.00606203
0.00527657
0.00504288
0.00424239
0.00403083
0.00330784
0.00313177
0.00253658
0.00240767
0.00194501
0.00186985
0.00151869
0.00833946
0.00783053
0.00782551
0.00704623
0.00710076
0.00608181
0.00618186
0.00500059
0.00512867
0.00398036
0.00409231
0.00314529
0.00320709
0.0025178
0.00253144
0.00206914
0.00205787
0.00176157
0.0017445
0.00157065
0.00763026
0.00658666
0.00675748
0.00538956
0.00570002
0.00414226
0.00453135
0.00312638
0.00348891
0.00246584
0.00272832
0.0020897
0.00224543
0.0018882
0.00196626
0.0017812
0.0018168
0.00171725
0.00174747
0.00164006
0.00626062
0.00453639
0.0048936
0.00301553
0.00350166
0.00200045
0.0024509
0.00155285
0.00188398
0.00143686
0.00165463
0.00145874
0.00159549
0.00152224
0.00161164
0.00157726
0.00164906
0.00158921
0.00165735
0.00157244
0.00408611
0.00194061
0.00237159
0.000983926
0.00133
0.000776736
0.00101496
0.000833173
0.000999981
0.000945695
0.00107616
0.00107178
0.00118425
0.00118186
0.00128763
0.0012516
0.0013541
0.00131886
0.00140163
0.00132552
0.00143923
0.000359658
0.000547937
0.000378425
0.000527442
0.000499799
0.000611832
0.000618854
0.000707366
0.00073172
0.000811527
0.000829559
0.000908254
0.00091114
0.000983794
0.000983156
0.00106752
0.00103001
0.00110099
0.00106435
0.000186625
0.000200034
0.000262286
0.00029082
0.00035621
0.000399953
0.000460402
0.000509815
0.000565956
0.000611445
0.000664629
0.00069991
0.00075029
0.000773695
0.000823065
0.000831951
0.00087645
0.000876674
0.000914768
0.000910394
0.000123628
0.000143459
0.000186929
0.000242756
0.000278815
0.000347438
0.000379672
0.000447699
0.000478189
0.000538941
0.000568254
0.000618582
0.000646476
0.000685391
0.000710586
0.000739371
0.000760647
0.000781531
0.000798078
0.000813912
5.37611e-05
0.000108501
0.00015309
0.000223557
0.000250115
0.000324982
0.000343618
0.000415742
0.000430854
0.000496269
0.000509421
0.0005664
0.000577641
0.000626068
0.000634855
0.000675369
0.000681238
0.000714395
0.000717915
0.000743294
0.00010291
0.000142654
0.0001623
0.000228936
0.000246436
0.000316427
0.000327474
0.000394977
0.000401867
0.000464208
0.000468657
0.000524772
0.00052758
0.000577484
0.000578822
0.000622997
0.000622828
0.000660867
0.000660256
0.000686356
0.000215266
0.000220491
0.000209252
0.000253744
0.00025581
0.000312596
0.00031431
0.000371761
0.000370435
0.000424434
0.000419918
0.00046911
0.000461222
0.000505851
0.000493347
0.000535637
0.000514503
0.000561448
0.000519463
0.00059346
0.000328398
0.000310416
0.000278716
0.000299751
0.000283771
0.000326527
0.00031545
0.000366124
0.000354879
0.00040691
0.000393777
0.000444852
0.000429342
0.000479267
0.000461549
0.000511092
0.000493162
0.000541989
0.000533576
0.00057166
0.000436255
0.000400288
0.000355768
0.00035609
0.000325299
0.000351993
0.000328406
0.000369749
0.000349088
0.000396647
0.00037698
0.000426154
0.000407179
0.000455538
0.000438162
0.000483788
0.000469872
0.000510191
0.000500228
0.000533738
0.000537017
0.000485745
0.000432915
0.000415455
0.000374127
0.000384254
0.000350344
0.000379439
0.000350242
0.000389845
0.000363928
0.000407742
0.000384655
0.000428551
0.000408396
0.000449674
0.000432531
0.000469557
0.000455358
0.000487314
0.000629104
0.000563969
0.000505914
0.000472719
0.000424646
0.000418556
0.000377301
0.000392102
0.000355896
0.000384474
0.000352424
0.000388251
0.000359912
0.000398057
0.000373145
0.000410392
0.000388651
0.000423135
0.000404303
0.000435082
0.000710451
0.000632465
0.00057174
0.000524213
0.000472644
0.000450975
0.0004056
0.000405015
0.000364261
0.000379377
0.000342574
0.000367821
0.00033472
0.000365201
0.000335632
0.000367701
0.000341439
0.000372721
0.0003495
0.000378594
0.000778636
0.000689007
0.000628026
0.000567352
0.00051518
0.000478586
0.000432352
0.000415827
0.000373801
0.000373562
0.000334882
0.000346806
0.000311225
0.000331201
0.000298697
0.000323162
0.000293666
0.000319912
0.000293242
0.000319376
0.000831325
0.000732038
0.000673096
0.000600249
0.00055012
0.000498223
0.00045473
0.000421709
0.000382494
0.000365517
0.000329241
0.000325248
0.000291331
0.000297276
0.000265565
0.000278606
0.000249052
0.00026678
0.000239152
0.000259712
0.00086737
0.000761973
0.000706271
0.000615445
0.000572739
0.000504321
0.00046858
0.000419122
0.000387729
0.000353603
0.000325103
0.000303405
0.000276966
0.000265353
0.000240554
0.00023708
0.000213698
0.000216842
0.000194428
0.000203513
0.000895547
0.000738445
0.000709353
0.000600851
0.000574693
0.000493283
0.000470804
0.000407624
0.000388756
0.00033895
0.000323324
0.000283738
0.000270989
0.000239345
0.000229262
0.000203836
0.000196428
0.00017601
0.000171514
0.000155774
0.000169765
0.000107333
0.000199263
0.000133285
0.000259108
0.000182603
0.000326739
0.000238244
0.000395174
0.000294162
0.000461526
0.000348231
0.000524198
0.000399673
0.000581832
0.000448237
0.000632414
0.000493769
0.000670985
0.000535558
0.000120907
8.37865e-05
0.00016733
0.00012322
0.000234789
0.000179907
0.000307135
0.000239479
0.000379076
0.000297567
0.000448474
0.000352556
0.000514131
0.000403737
0.000575009
0.000450708
0.000629592
0.00049298
0.000674423
0.000529316
9.97856e-05
8.01514e-05
0.000150973
0.000123855
0.000218788
0.000181406
0.000290426
0.000240976
0.000361605
0.000298888
0.000430557
0.000353665
0.00049633
0.000404616
0.000558188
0.000451362
0.000615153
0.000493521
0.000665117
0.000530262
9.63812e-05
8.79981e-05
0.000144525
0.000129709
0.000208551
0.000184701
0.000276704
0.000242246
0.000344938
0.00029868
0.000411542
0.000352449
0.000475647
0.000402809
0.0005367
0.000449383
0.000594101
0.000491903
0.000646647
0.000529885
0.000104044
0.00010204
0.000145161
0.000138986
0.000203054
0.000189553
0.000266198
0.000243799
0.000330275
0.000297826
0.00039343
0.000349896
0.000454755
0.000399164
0.000513767
0.000445221
0.000570097
0.000487862
0.000623119
0.000526849
0.000118181
0.000119666
0.000151417
0.00015113
0.000201987
0.000196288
0.00025919
0.000246332
0.000318346
0.000297187
0.000377342
0.000346906
0.000435152
0.000394513
0.000491273
0.000439536
0.000545443
0.00048178
0.000597374
0.00052115
0.000136025
0.000139472
0.00016217
0.000165711
0.000205132
0.00020512
0.000255862
0.000250371
0.000309578
0.000297437
0.00036392
0.000344213
0.000417695
0.000389587
0.000470323
0.000433001
0.000521555
0.000474231
0.000571265
0.000513235
0.000155929
0.000160491
0.000176295
0.000182146
0.000212052
0.000215949
0.000256166
0.000256135
0.000304142
0.00029898
0.000353486
0.000342323
0.000402855
0.000384947
0.00045156
0.000426204
0.000499301
0.000465811
0.000545997
0.000503716
0.000176808
0.00018194
0.000192677
0.000199737
0.000222047
0.000228382
0.000259767
0.000263527
0.000301934
0.000301928
0.000346097
0.000341492
0.00039082
0.000380951
0.00043531
0.000419581
0.000479187
0.000457028
0.000522339
0.000493194
0.00019785
0.000203146
0.000210288
0.000217754
0.000234241
0.000241833
0.000266069
0.000272187
0.000302593
0.000306126
0.000341563
0.000341729
0.000381535
0.000377737
0.000421646
0.000413381
0.000461437
0.000448241
0.000500726
0.000482157
0.000218392
0.000223506
0.000228223
0.000235497
0.000247703
0.000255626
0.000274302
0.000281581
0.000305541
0.000311208
0.000339471
0.000342822
0.000374725
0.000375232
0.000410421
0.000407655
0.000446035
0.000439627
0.000481317
0.000470923
0.000237849
0.00024247
0.000245695
0.000252307
0.000261532
0.000269063
0.000283608
0.000291075
0.000310044
0.000316659
0.000339226
0.00034439
0.000369927
0.000373183
0.000401288
0.000402279
0.000432759
0.000431186
0.000464027
0.000459627
0.000255681
0.000259511
0.000262004
0.000267567
0.000274888
0.000281455
0.000293115
0.000299987
0.000315287
0.000321868
0.00034011
0.000345924
0.000366525
0.000371199
0.00039374
0.000396978
0.000421205
0.000422766
0.000448571
0.000448249
0.000271362
0.000274104
0.000276504
0.000280673
0.000286988
0.000292124
0.000301967
0.000307615
0.000320416
0.000326169
0.000341322
0.000346835
0.000363802
0.000368789
0.000387151
0.000391375
0.000410845
0.000414107
0.00043452
0.000436653
0.000284352
0.0002857
0.000288559
0.000291005
0.000297074
0.000300376
0.000309321
0.000313235
0.000324562
0.000328856
0.000342023
0.000346481
0.000360983
0.000365404
0.000380829
0.000385031
0.000401076
0.000404894
0.000421366
0.000424652
0.000294073
0.000293689
0.000297504
0.000297882
0.00030437
0.000305465
0.000314316
0.000316076
0.000326837
0.00032919
0.000341351
0.000344193
0.000357272
0.000360478
0.000374066
0.000377503
0.000391291
0.000394824
0.000408607
0.000412098
0.000299889
0.000297372
0.000302587
0.000300503
0.000308008
0.000306535
0.000316019
0.000315308
0.000326316
0.000326414
0.000338446
0.000339314
0.0003519
0.000353475
0.000366206
0.00036841
0.000380966
0.000383693
0.000395859
0.000398984
0.000301123
0.000295902
0.000302889
0.000297824
0.000306912
0.000302583
0.000313361
0.00031011
0.000322058
0.000319823
0.000332486
0.000331258
0.000344181
0.000343972
0.000356733
0.000357533
0.000369778
0.000371531
0.00038301
0.000385622
0.000297137
0.000288043
0.0002971
0.000288324
0.000299583
0.000292888
0.000305329
0.000299884
0.000313225
0.000308898
0.000322774
0.000319647
0.000333616
0.000331815
0.000345412
0.000345031
0.000357817
0.000358877
0.000370494
0.000372928
0.000287538
0.00026981
0.00028205
0.000272718
0.000285436
0.000277559
0.000291334
0.000284503
0.000299215
0.000293556
0.000308883
0.00030462
0.000320111
0.000317503
0.000332609
0.000331915
0.000346019
0.000347429
0.000359888
0.000363151
0.000717954
0.000647898
0.000740807
0.000684595
0.000761534
0.000715805
0.000781668
0.000743995
0.00080173
0.000770353
0.000821812
0.000795478
0.000841834
0.000819682
0.000861675
0.000843148
0.000881234
0.000866023
0.000900489
0.000888488
0.000919527
0.000910804
0.000938573
0.000933343
0.000958005
0.000956598
0.000978363
0.000981188
0.00100034
0.00100784
0.00102475
0.00103734
0.00105251
0.00107052
0.00108456
0.00110806
0.00112175
0.00115018
0.00116457
0.00119685
0.000653024
0.000617351
0.000684191
0.000647599
0.000711557
0.000676394
0.000736284
0.000703592
0.000759206
0.000729425
0.000780898
0.000754199
0.000801758
0.000778202
0.00082208
0.000801703
0.00084211
0.00082496
0.000862091
0.000848248
0.000882292
0.00087187
0.000903034
0.000896178
0.000924695
0.000921572
0.000947722
0.000948507
0.00097262
0.000977481
0.00099995
0.00100904
0.00103031
0.00104377
0.0010643
0.00108236
0.00110257
0.00112585
0.00114675
0.00118153
0.000634572
0.00060269
0.000659135
0.000627279
0.000682853
0.000651797
0.000705524
0.000675923
0.000727236
0.000699571
0.000748182
0.00072279
0.000768587
0.000745706
0.000788678
0.000768489
0.000808688
0.000791337
0.000828856
0.000814472
0.000849437
0.00083814
0.000870707
0.00086261
0.000892967
0.000888174
0.00091654
0.000915147
0.000941774
0.000943859
0.000969034
0.000974652
0.000998698
0.00100787
0.00103116
0.00104382
0.00106686
0.00108265
0.00111073
0.00112176
0.000621788
0.000590269
0.000642263
0.000611762
0.000662637
0.00063334
0.000682721
0.000654885
0.000702459
0.000676344
0.00072189
0.000697725
0.000741112
0.00071909
0.000760259
0.00074054
0.000779489
0.000762207
0.00079898
0.000784244
0.000818923
0.000806826
0.000839526
0.000830142
0.000861007
0.000854393
0.000883595
0.000879789
0.000907527
0.000906543
0.000933042
0.000934861
0.000960372
0.000964926
0.000989726
0.000996878
0.00102124
0.00103079
0.00105457
0.00106796
0.000607823
0.000577441
0.000626166
0.000597102
0.000644434
0.000616749
0.000662574
0.000636374
0.000680567
0.000655982
0.000698435
0.000675599
0.000716234
0.000695271
0.000734049
0.000715072
0.000751983
0.00073509
0.000770161
0.000755434
0.000788718
0.000776222
0.000807802
0.000797588
0.00082757
0.000819671
0.000848183
0.000842616
0.00086981
0.000866575
0.000892622
0.000891702
0.000916789
0.000918159
0.000942481
0.000946129
0.000969874
0.000975861
0.000999444
0.00100752
0.000591786
0.000563712
0.000608888
0.000582063
0.000625798
0.000600274
0.000642528
0.000618373
0.000659098
0.000636393
0.00067554
0.000654369
0.000691903
0.000672349
0.000708249
0.000690389
0.000724655
0.000708557
0.000741208
0.000726931
0.000758009
0.000745597
0.000775165
0.000764651
0.000792794
0.000784195
0.000811018
0.000804339
0.00082997
0.000825198
0.000849786
0.000846897
0.000870615
0.000869565
0.000892615
0.000893341
0.000915966
0.000918353
0.000940832
0.000944739
0.000574078
0.000549178
0.000590271
0.0005664
0.00060615
0.000583371
0.000621749
0.000600127
0.000637102
0.000616702
0.000652246
0.000633135
0.000667227
0.000649466
0.000682097
0.000665743
0.000696915
0.000682017
0.00071175
0.000698348
0.000726678
0.000714801
0.000741781
0.000731445
0.000757151
0.00074836
0.000772886
0.000765628
0.000789093
0.000783338
0.000805886
0.000801586
0.000823386
0.000820472
0.000841725
0.000840099
0.000861037
0.000860574
0.000881466
0.000882011
0.000555414
0.000534153
0.000570767
0.000550273
0.000585712
0.000566057
0.000600282
0.000581534
0.000614511
0.000596733
0.000628436
0.000611685
0.000642095
0.000626423
0.000655531
0.000640984
0.000668792
0.000655407
0.000681932
0.000669736
0.000695011
0.000684018
0.000708092
0.000698307
0.00072125
0.000712661
0.000734563
0.000727142
0.000748118
0.00074182
0.000762008
0.000756768
0.000776338
0.000772067
0.000791217
0.000787803
0.000806764
0.000804069
0.00082311
0.000820964
0.000536518
0.000519005
0.000550982
0.000533985
0.000564976
0.000548569
0.000578526
0.000562777
0.000591658
0.000576629
0.000604401
0.000590145
0.000616787
0.00060335
0.000628848
0.000616269
0.000640621
0.000628927
0.000652148
0.000641357
0.000663474
0.00065359
0.00067465
0.000665664
0.000685732
0.000677621
0.000696782
0.000689506
0.000707873
0.000701372
0.000719081
0.000713277
0.000730494
0.000725285
0.000742209
0.000737471
0.000754333
0.000749914
0.000766985
0.000762707
0.000517983
0.000504045
0.000531466
0.000517824
0.000544448
0.000531174
0.000556944
0.000544105
0.000568973
0.000556626
0.000580554
0.00056875
0.000591708
0.000580488
0.000602459
0.000591853
0.000612832
0.000602863
0.000622856
0.000613532
0.000632564
0.000623882
0.000641992
0.000633934
0.000651182
0.000643714
0.000660183
0.000653253
0.000669049
0.000662586
0.000677843
0.000671758
0.000686639
0.000680817
0.000695519
0.000689826
0.000704579
0.000698854
0.000713928
0.000707984
0.000500209
0.000489459
0.000512613
0.000501982
0.000524512
0.000514068
0.000535914
0.000525717
0.000546827
0.000536931
0.000557261
0.00054771
0.000567227
0.000558058
0.000576739
0.000567978
0.000585811
0.000577474
0.00059446
0.000586549
0.000602706
0.00059521
0.000610571
0.000603465
0.000618083
0.000611323
0.000625274
0.000618799
0.000632182
0.000625913
0.000638854
0.000632689
0.000645348
0.000639164
0.000651731
0.000645381
0.000658086
0.000651399
0.000664508
0.00065729
0.000483376
0.000475294
0.000494621
0.000486526
0.000505383
0.000497336
0.000515662
0.000507716
0.000525456
0.00051766
0.000534769
0.000527162
0.000543602
0.000536215
0.000551959
0.000544813
0.000559844
0.000552949
0.000567262
0.000560616
0.00057422
0.000567806
0.000580725
0.000574512
0.00058679
0.000580727
0.00059243
0.000586449
0.000597664
0.000591677
0.000602521
0.000596417
0.000607039
0.000600682
0.000611265
0.000604498
0.000615264
0.000607904
0.000619118
0.000610957
0.000467464
0.000461462
0.000477504
0.000471404
0.000487104
0.000480956
0.000496256
0.000490107
0.000504954
0.000498844
0.000513193
0.000507156
0.000520966
0.000515029
0.000528271
0.000522449
0.0005351
0.0005294
0.000541448
0.000535864
0.000547308
0.00054182
0.000552676
0.000547246
0.000557544
0.000552119
0.000561909
0.000556415
0.000565771
0.000560112
0.000569135
0.000563191
0.000572013
0.000565639
0.00057443
0.000567453
0.000576422
0.000568645
0.00057805
0.000569248
0.000452297
0.00044779
0.000461132
0.000456485
0.000469586
0.000464838
0.000477645
0.000472835
0.000485299
0.00048046
0.000492539
0.000487698
0.000499353
0.000494531
0.00050573
0.000500939
0.000511656
0.000506898
0.000517115
0.000512381
0.000522089
0.000517357
0.000526558
0.000521789
0.000530499
0.000525637
0.000533888
0.000528855
0.000536701
0.000531396
0.000538914
0.000533212
0.00054051
0.000534256
0.000541479
0.000534488
0.000541826
0.00053388
0.000541572
0.000532421
0.000437612
0.000434082
0.0004453
0.00044163
0.000452673
0.000448894
0.000459719
0.000455858
0.000466425
0.000462507
0.000472778
0.000468822
0.000478764
0.000474783
0.000484365
0.000480366
0.000489563
0.000485544
0.000494334
0.000490283
0.000498649
0.000494542
0.000502477
0.000498275
0.000505777
0.000501424
0.000508505
0.000503925
0.000510612
0.000505703
0.000512043
0.000506677
0.000512744
0.000506761
0.000512662
0.000505866
0.000511752
0.000503907
0.000509987
0.000500813
0.000423159
0.000420217
0.000429824
0.000426792
0.00043625
0.000433146
0.000442423
0.000439263
0.000448328
0.000445125
0.000453952
0.000450712
0.000459276
0.000456003
0.000464283
0.000460974
0.000468949
0.000465596
0.000473246
0.000469831
0.00047714
0.000473637
0.000480587
0.000476959
0.000483537
0.000479728
0.000485927
0.000481865
0.000487684
0.000483273
0.000488721
0.000483839
0.000488944
0.000483432
0.00048825
0.00048191
0.000486532
0.000479116
0.000483687
0.000474893
0.00040882
0.000406277
0.000414683
0.000412162
0.000420384
0.000417889
0.000425905
0.000423435
0.000431229
0.000428777
0.000436339
0.000433894
0.000441215
0.000438763
0.000445837
0.000443361
0.000450182
0.000447661
0.000454223
0.00045163
0.000457921
0.000455225
0.000461233
0.00045839
0.0004641
0.000461059
0.00046645
0.000463142
0.000468191
0.00046453
0.000469215
0.000465091
0.00046939
0.00046466
0.000468562
0.000463043
0.000466555
0.000460011
0.000463175
0.000455301
0.000394777
0.000392726
0.000400204
0.000398383
0.000405538
0.000403929
0.000410752
0.000409317
0.000415815
0.000414514
0.000420702
0.0004195
0.000425393
0.000424256
0.000429872
0.00042876
0.000434118
0.000432991
0.000438106
0.000436918
0.000441805
0.000440506
0.000445171
0.000443707
0.000448152
0.000446459
0.000450675
0.000448685
0.000452649
0.000450283
0.000453957
0.000451122
0.000454453
0.000451036
0.000453953
0.000449812
0.000452229
0.000447181
0.000449002
0.0004428
0.000381766
0.000380736
0.000387379
0.000386957
0.000392938
0.000392957
0.000398345
0.000398737
0.000403573
0.000404293
0.000408611
0.000409611
0.000413448
0.000414671
0.000418069
0.000419449
0.000422456
0.000423916
0.000426586
0.000428041
0.00043043
0.000431789
0.000433953
0.000435121
0.000437111
0.000437991
0.00043985
0.000440345
0.000442099
0.000442114
0.000443766
0.00044321
0.000444729
0.00044352
0.000444831
0.000442894
0.000443862
0.000441131
0.000441546
0.000437952
0.000371564
0.000373152
0.000378572
0.000380572
0.000385037
0.000387727
0.0003912
0.000394654
0.000397131
0.000401333
0.000402833
0.000407719
0.000408283
0.000413757
0.00041345
0.000419392
0.0004183
0.000424569
0.000422797
0.000429233
0.000426904
0.000433331
0.000430588
0.000436814
0.000433814
0.00043964
0.000436547
0.000441768
0.000438751
0.00044317
0.00044039
0.000443825
0.000441417
0.000443729
0.000441783
0.000442901
0.000441426
0.000441407
0.00044028
0.000439412
0.00147535
0.00137644
0.00134174
0.0012753
0.00124878
0.00117921
0.00116751
0.00110945
0.00109923
0.00104841
0.00103967
0.000991184
0.000985767
0.000937505
0.000935868
0.000886847
0.000888813
0.000837903
0.000843452
0.000789589
0.000798708
0.000740838
0.000753557
0.000690565
0.000706993
0.000637651
0.000658011
0.000580927
0.000605601
0.000519178
0.000548776
0.000451197
0.000486672
0.000376021
0.000418843
0.000293886
0.000346214
0.000210671
0.000274335
0.000159751
0.00155821
0.00150884
0.0014965
0.00141293
0.00140813
0.00135533
0.00135035
0.00129384
0.00129462
0.0012141
0.00123474
0.00114779
0.00117575
0.00109176
0.00111963
0.00103548
0.00106526
0.00098035
0.001012
0.000925533
0.000959043
0.000869969
0.000905454
0.00081259
0.000850189
0.000752329
0.0007921
0.000688119
0.000729915
0.000618926
0.0006622
0.000543864
0.000587314
0.000462501
0.000503334
0.000375767
0.000407964
0.000288784
0.000298459
0.00022003
0.00165215
0.00161221
0.00160094
0.001563
0.00157415
0.00149152
0.00152202
0.0013998
0.00143886
0.00135543
0.00137792
0.0012978
0.00132802
0.00122272
0.00127232
0.00116879
0.00121716
0.00111795
0.0011625
0.00106629
0.0011073
0.00101284
0.00105059
0.000956783
0.000991392
0.000897382
0.00092874
0.00083397
0.000861602
0.000765982
0.000788896
0.00069307
0.000709522
0.000615354
0.000622474
0.000534006
0.000527126
0.000452593
0.000423946
0.000380211
0.00162374
0.00155585
0.00161027
0.00153137
0.00157529
0.00149491
0.00151867
0.00145977
0.00150162
0.00138928
0.00145114
0.00133242
0.00138092
0.00129336
0.00133759
0.00124126
0.00129334
0.00120438
0.0012472
0.00116362
0.00119846
0.00111908
0.0011466
0.00107077
0.00109122
0.00101866
0.0010319
0.0009627
0.000968277
0.000902936
0.000900048
0.000839644
0.000827104
0.000773572
0.000749765
0.000706393
0.000669262
0.000641524
0.000588721
0.000585563
0.00141917
0.0013406
0.00142938
0.00135178
0.0014273
0.00134956
0.00142091
0.00132833
0.00138245
0.0013049
0.00135818
0.00127879
0.00134015
0.00126349
0.00130598
0.00124516
0.00128634
0.0012249
0.00125868
0.00119861
0.00122453
0.00116718
0.0011849
0.00113131
0.00114047
0.00109152
0.00109177
0.00104836
0.0010393
0.00100244
0.000983685
0.000954652
0.000925913
0.000906362
0.000867637
0.000859748
0.000811726
0.000818248
0.000763057
0.000787099
0.00116339
0.00109115
0.0011895
0.00111524
0.0012045
0.00113411
0.00120629
0.00115057
0.00120735
0.00116516
0.0012094
0.00117806
0.00122312
0.00118513
0.00122651
0.00118728
0.00122554
0.00118278
0.00121524
0.00117234
0.00119734
0.00115667
0.00117319
0.00113653
0.00114394
0.00111268
0.00111065
0.00108601
0.00107443
0.00105754
0.00103662
0.00102859
0.000998965
0.00100093
0.000963933
0.000976965
0.000935001
0.000959949
0.000917005
0.000954117
0.000963194
0.000942098
0.000994975
0.000972781
0.00102346
0.00100155
0.00104942
0.00102833
0.0010736
0.00105277
0.0010964
0.00107417
0.00111642
0.00109163
0.00113196
0.00110437
0.00114098
0.00111217
0.00114336
0.00111516
0.0011396
0.00111371
0.00113046
0.00110843
0.00111692
0.00110009
0.0011001
0.00108965
0.00108136
0.00107832
0.00106233
0.00106757
0.00104507
0.00105929
0.00103221
0.00105577
0.00102702
0.00105983
0.00103349
0.00107474
0.000843904
0.000846756
0.000876948
0.000877748
0.000908569
0.000907223
0.000938612
0.000935151
0.000966979
0.000961345
0.000993408
0.000985465
0.00101735
0.00100705
0.00103789
0.00102563
0.0010542
0.00104093
0.0010659
0.00105288
0.00107308
0.00106166
0.00107617
0.00106768
0.00107596
0.00107163
0.00107349
0.00107441
0.00107011
0.0010772
0.00106745
0.00108144
0.00106754
0.00108889
0.00107277
0.00110159
0.00108591
0.00112182
0.00111
0.00115199
0.00075956
0.000775377
0.000791979
0.000806619
0.000823537
0.000835652
0.000853882
0.000863081
0.000882809
0.000889119
0.000910116
0.00091375
0.000935518
0.00093682
0.000958601
0.000958112
0.000978936
0.000977447
0.000996265
0.000994758
0.00101059
0.00101015
0.00102222
0.00102395
0.00103176
0.00103671
0.00104011
0.00104921
0.00104848
0.00106252
0.00105835
0.00107794
0.00107152
0.00109704
0.00109004
0.00112159
0.00111622
0.00115357
0.00115246
0.00119485
0.000693225
0.000736873
0.000728812
0.000764806
0.000761401
0.000789661
0.000791602
0.000813257
0.000819881
0.000836242
0.000846525
0.000858776
0.000871639
0.000880811
0.000895185
0.000902224
0.000917046
0.000922899
0.000937149
0.000942795
0.000955553
0.000961996
0.000972525
0.000980749
0.000988563
0.000999491
0.00100442
0.00101887
0.0010211
0.00103973
0.00103985
0.00106313
0.00106215
0.00109033
0.00108968
0.00112281
0.00112432
0.00116244
0.00116835
0.00121225
)
;

boundaryField
{
    back
    {
        type            empty;
    }
    front
    {
        type            empty;
    }
    left
    {
        type            calculated;
        value           nonuniform List<scalar> 
30
(
0.00862935
0.00833078
0.00775456
0.00698397
0.00606203
0.00504288
0.00403083
0.00313177
0.00240767
0.00186985
0.00147535
0.00134174
0.00124878
0.00116751
0.00109923
0.00103967
0.000985767
0.000935868
0.000888813
0.000843452
0.000798708
0.000753557
0.000706993
0.000658011
0.000605601
0.000548776
0.000486672
0.000418843
0.000346214
0.000274335
)
;
    }
    hole
    {
        type            calculated;
        value           nonuniform List<scalar> 
20
(
0.00862935
0.00833946
0.00763026
0.00626062
0.00408611
0.00143923
0.000186625
0.000123628
5.37611e-05
0.00010291
0.000215266
0.000328398
0.000436255
0.000537017
0.000629104
0.000710451
0.000778636
0.000831325
0.00086737
0.000895547
)
;
    }
    down
    {
        type            calculated;
        value           nonuniform List<scalar> 
30
(
0.000738445
0.000600851
0.000493283
0.000407624
0.00033895
0.000283738
0.000239345
0.000203836
0.00017601
0.000155774
0.000169765
0.000120907
9.97856e-05
9.63812e-05
0.000104044
0.000118181
0.000136025
0.000155929
0.000176808
0.00019785
0.000218392
0.000237849
0.000255681
0.000271362
0.000284352
0.000294073
0.000299889
0.000301123
0.000297137
0.000287538
)
;
    }
    right
    {
        type            calculated;
        value           nonuniform List<scalar> 
30
(
0.00026981
0.000272718
0.000277559
0.000284503
0.000293556
0.00030462
0.000317503
0.000331915
0.000347429
0.000363151
0.000373152
0.000380572
0.000387727
0.000394654
0.000401333
0.000407719
0.000413757
0.000419392
0.000424569
0.000429233
0.000433331
0.000436814
0.00043964
0.000441768
0.00044317
0.000443825
0.000443729
0.000442901
0.000441407
0.000439412
)
;
    }
    up
    {
        type            calculated;
        value           nonuniform List<scalar> 
30
(
0.00119685
0.00118153
0.00112176
0.00106796
0.00100752
0.000944739
0.000882011
0.000820964
0.000762707
0.000707984
0.00065729
0.000610957
0.000569248
0.000532421
0.000500813
0.000474893
0.000455301
0.0004428
0.000437952
0.000439412
0.000159751
0.00022003
0.000380211
0.000585563
0.000787099
0.000954117
0.00107474
0.00115199
0.00119485
0.00121225
)
;
    }
}


// ************************************************************************* //
