/*--------------------------------*- C++ -*----------------------------------*\
| =========                 |                                                 |
| \\      /  F ield         | OpenFOAM: The Open Source CFD Toolbox           |
|  \\    /   O peration     | Version:  v2012                                 |
|   \\  /    A nd           | Website:  www.openfoam.com                      |
|    \\/     M anipulation  |                                                 |
\*---------------------------------------------------------------------------*/
FoamFile
{
    version     2.0;
    format      ascii;
    class       pointVectorField;
    location    "17";
    object      pointD;
}
// * * * * * * * * * * * * * * * * * * * * * * * * * * * * * * * * * * * * * //

dimensions      [0 1 0 0 0 0 0];


internalField   nonuniform List<vector> 
2142
(
(0.00153768 0 0)
(0.00192207 0 0)
(0.00176142 -0.00010635 0)
(0 -0.00127286 0)
(0 -0.000197129 0)
(0.00157331 0 0)
(0 -0.00122069 0)
(0.00109162 -0.000272314 0)
(0.000465509 -0.000521491 0)
(0.00184718 -1.39319e-05 0)
(0.00129303 -0.000467968 0)
(0.00129303 -0.000467968 0)
(0.00109162 -0.000272314 0)
(0 -0.00122069 0)
(0 -0.000197129 0)
(0.00153768 0 0)
(0.00157331 0 0)
(0.00192207 0 0)
(0.00184718 -1.39319e-05 0)
(0.00176142 -0.00010635 0)
(0.000465509 -0.000521491 0)
(0 -0.00127286 0)
(0.000115248 -0.00117625 0)
(0.000234262 -0.001081 0)
(0.000360295 -0.000956423 0)
(0.000487556 -0.000824567 0)
(0.000605773 -0.000703494 0)
(0.000712345 -0.000598148 0)
(0.000812514 -0.000503438 0)
(0.000908762 -0.000418306 0)
(0.00100163 -0.000342016 0)
(0.00117122 -0.000221439 0)
(0.00124712 -0.00017625 0)
(0.00131778 -0.000137232 0)
(0.00138192 -0.000104344 0)
(0.00143839 -7.72145e-05 0)
(0.00148617 -5.52332e-05 0)
(0.00152436 -3.75979e-05 0)
(0.00155215 -2.33397e-05 0)
(0.00156881 -1.13109e-05 0)
(0.00154623 0 0)
(0.0015528 0 0)
(0.00155783 0 0)
(0.00156169 0 0)
(0.00156468 0 0)
(0.00156703 0 0)
(0.00156893 0 0)
(0.00157052 0 0)
(0.00157194 0 0)
(0.00157868 0 0)
(0.00158364 0 0)
(0.00158938 0 0)
(0.00159648 0 0)
(0.00160527 0 0)
(0.00161588 0 0)
(0.00162838 0 0)
(0.00164277 0 0)
(0.00165899 0 0)
(0.00167697 0 0)
(0.00169662 0 0)
(0.00171782 0 0)
(0.00174042 0 0)
(0.00176428 0 0)
(0.00178921 0 0)
(0.00181502 0 0)
(0.00184148 0 0)
(0.00186833 0 0)
(0.00189529 0 0)
(0.00192051 1.73615e-06 0)
(0.00191764 3.14621e-06 0)
(0.00191317 4.1312e-06 0)
(0.00190713 4.51583e-06 0)
(0.00189964 4.12601e-06 0)
(0.00189085 2.80546e-06 0)
(0.00188098 4.22719e-07 0)
(0.00187025 -3.12419e-06 0)
(0.00185891 -7.90282e-06 0)
(0.00184207 -1.69695e-05 0)
(0.00183692 -2.02449e-05 0)
(0.00183179 -2.37539e-05 0)
(0.00182669 -2.74901e-05 0)
(0.00182166 -3.14453e-05 0)
(0.00181671 -3.5609e-05 0)
(0.00181187 -3.99692e-05 0)
(0.00180715 -4.45117e-05 0)
(0.00180256 -4.9221e-05 0)
(0.00179813 -5.40795e-05 0)
(0.00179384 -5.90685e-05 0)
(0.00178972 -6.41677e-05 0)
(0.00178577 -6.93556e-05 0)
(0.00178196 -7.46101e-05 0)
(0.00177831 -7.99088e-05 0)
(0.00177479 -8.52292e-05 0)
(0.00177138 -9.05501e-05 0)
(0.00176804 -9.58527e-05 0)
(0.00176474 -0.000101122 0)
(0.00172328 -0.000116897 0)
(0.00168528 -0.000126429 0)
(0.00164682 -0.000134392 0)
(0.0016072 -0.000140658 0)
(0.00156582 -0.000145395 0)
(0.00152212 -0.000148953 0)
(0.00147559 -0.000151807 0)
(0.0014258 -0.000154531 0)
(0.0013723 -0.000157787 0)
(0.00131471 -0.000162326 0)
(0.00125263 -0.000168997 0)
(0.00118573 -0.000178757 0)
(0.0011137 -0.000192681 0)
(0.0010363 -0.00021197 0)
(0.000953391 -0.000237953 0)
(0.000864993 -0.000272081 0)
(0.000771334 -0.000315919 0)
(0.00067305 -0.000371228 0)
(0.000569956 -0.000439079 0)
(0.000389089 -0.00059072 0)
(0.000313971 -0.000668298 0)
(0.00024179 -0.000753858 0)
(0.000174806 -0.000846312 0)
(0.000115859 -0.000943223 0)
(6.79388e-05 -0.00103998 0)
(3.32007e-05 -0.00112944 0)
(1.19426e-05 -0.00120309 0)
(2.15598e-06 -0.00125275 0)
(0 -0.00127163 0)
(0 -0.00126987 0)
(0 -0.00126771 0)
(0 -0.00126526 0)
(0 -0.00126259 0)
(0 -0.00125978 0)
(0 -0.00125688 0)
(0 -0.00125395 0)
(0 -0.00125103 0)
(0 -0.00124813 0)
(0 -0.00124529 0)
(0 -0.00124251 0)
(0 -0.00123982 0)
(0 -0.0012372 0)
(0 -0.00123465 0)
(0 -0.00123215 0)
(0 -0.00122964 0)
(0 -0.00122705 0)
(0 -0.00122429 0)
(0 -0.00120519 0)
(0 -0.00117838 0)
(0 -0.00113528 0)
(0 -0.00107103 0)
(0 -0.000982131 0)
(0 -0.000867507 0)
(0 -0.000728495 0)
(0 -0.000567705 0)
(0 -0.000388744 0)
(0.00113482 -0.000210155 0)
(0.00117725 -0.000158683 0)
(0.00121885 -0.000118273 0)
(0.00125942 -8.78749e-05 0)
(0.00129896 -6.60291e-05 0)
(0.00133759 -5.12134e-05 0)
(0.00137547 -4.19925e-05 0)
(0.00141282 -3.70774e-05 0)
(0.0014498 -3.53398e-05 0)
(0.00148654 -3.58046e-05 0)
(0.00152316 -3.76323e-05 0)
(0.0015597 -4.00972e-05 0)
(0.0015962 -4.25648e-05 0)
(0.00163262 -4.44684e-05 0)
(0.00166894 -4.52861e-05 0)
(0.0017051 -4.45136e-05 0)
(0.00174104 -4.1633e-05 0)
(0.0017767 -3.60687e-05 0)
(0.00181208 -2.71279e-05 0)
(0.00105693 -0.000283626 0)
(0.00102259 -0.000295099 0)
(0.000988547 -0.000306701 0)
(0.00095479 -0.000318431 0)
(0.000921346 -0.000330296 0)
(0.000888249 -0.000342298 0)
(0.000855538 -0.000354437 0)
(0.00082325 -0.000366701 0)
(0.000791415 -0.000379076 0)
(0.000760051 -0.000391542 0)
(0.000729156 -0.000404077 0)
(0.000698713 -0.000416665 0)
(0.000668684 -0.000429297 0)
(0.000639015 -0.000441974 0)
(0.000609644 -0.000454716 0)
(0.000580503 -0.00046756 0)
(0.000551531 -0.000480565 0)
(0.000522688 -0.000493813 0)
(0.000493979 -0.000507411 0)
(0.000280918 -0.000258895 0)
(0.000543798 -0.000367376 0)
(0.000772084 -0.00050599 0)
(0.000947412 -0.000640445 0)
(0.00105888 -0.000720433 0)
(0.00111456 -0.000704299 0)
(0.00115605 -0.000641863 0)
(0.00120167 -0.000582102 0)
(0.00124804 -0.000524074 0)
(0.00133534 -0.000414135 0)
(0.00137445 -0.000362544 0)
(0.00140996 -0.000313003 0)
(0.00144154 -0.000265234 0)
(0.00146888 -0.000218936 0)
(0.00149173 -0.000173823 0)
(0.0015099 -0.00012965 0)
(0.00152328 -8.62063e-05 0)
(0.00153205 -4.32632e-05 0)
(0.00126513 -0.000437551 0)
(0.00123962 -0.000410828 0)
(0.00121605 -0.000387126 0)
(0.00119416 -0.000365953 0)
(0.00117378 -0.000346912 0)
(0.00115482 -0.000329664 0)
(0.00113722 -0.000313905 0)
(0.00112092 -0.000299341 0)
(0.00110581 -0.000285644 0)
(0.00126513 -0.000437551 0)
(0.00123962 -0.000410828 0)
(0.00121605 -0.000387126 0)
(0.00119416 -0.000365953 0)
(0.00117378 -0.000346912 0)
(0.00115482 -0.000329664 0)
(0.00113722 -0.000313905 0)
(0.00112092 -0.000299341 0)
(0.00110581 -0.000285644 0)
(0.00100163 -0.000342016 0)
(0.000908762 -0.000418306 0)
(0.000812514 -0.000503438 0)
(0.000712345 -0.000598148 0)
(0.000605773 -0.000703494 0)
(0.000487556 -0.000824567 0)
(0.000360295 -0.000956423 0)
(0.000234262 -0.001081 0)
(0.000115248 -0.00117625 0)
(0 -0.00120519 0)
(0 -0.00117838 0)
(0 -0.00113528 0)
(0 -0.00107103 0)
(0 -0.000982131 0)
(0 -0.000867507 0)
(0 -0.000728495 0)
(0 -0.000567705 0)
(0 -0.000388744 0)
(0.000280918 -0.000258895 0)
(0.000543798 -0.000367376 0)
(0.000772084 -0.00050599 0)
(0.000947412 -0.000640445 0)
(0.00105888 -0.000720433 0)
(0.00111456 -0.000704299 0)
(0.00115605 -0.000641863 0)
(0.00120167 -0.000582102 0)
(0.00124804 -0.000524074 0)
(0.00133534 -0.000414135 0)
(0.00137445 -0.000362544 0)
(0.00140996 -0.000313003 0)
(0.00144154 -0.000265234 0)
(0.00146888 -0.000218936 0)
(0.00149173 -0.000173823 0)
(0.0015099 -0.00012965 0)
(0.00152328 -8.62063e-05 0)
(0.00153205 -4.32632e-05 0)
(0.00154623 0 0)
(0.0015528 0 0)
(0.00155783 0 0)
(0.00156169 0 0)
(0.00156468 0 0)
(0.00156703 0 0)
(0.00156893 0 0)
(0.00157052 0 0)
(0.00157194 0 0)
(0.00156881 -1.13109e-05 0)
(0.00155215 -2.33397e-05 0)
(0.00152436 -3.75979e-05 0)
(0.00148617 -5.52332e-05 0)
(0.00143839 -7.72145e-05 0)
(0.00138192 -0.000104344 0)
(0.00131778 -0.000137232 0)
(0.00124712 -0.00017625 0)
(0.00117122 -0.000221439 0)
(0.00157868 0 0)
(0.00158364 0 0)
(0.00158938 0 0)
(0.00159648 0 0)
(0.00160527 0 0)
(0.00161588 0 0)
(0.00162838 0 0)
(0.00164277 0 0)
(0.00165899 0 0)
(0.00167697 0 0)
(0.00169662 0 0)
(0.00171782 0 0)
(0.00174042 0 0)
(0.00176428 0 0)
(0.00178921 0 0)
(0.00181502 0 0)
(0.00184148 0 0)
(0.00186833 0 0)
(0.00189529 0 0)
(0.00192051 1.73615e-06 0)
(0.00191764 3.14621e-06 0)
(0.00191317 4.1312e-06 0)
(0.00190713 4.51583e-06 0)
(0.00189964 4.12601e-06 0)
(0.00189085 2.80546e-06 0)
(0.00188098 4.22719e-07 0)
(0.00187025 -3.12419e-06 0)
(0.00185891 -7.90282e-06 0)
(0.00181208 -2.71279e-05 0)
(0.0017767 -3.60687e-05 0)
(0.00174104 -4.1633e-05 0)
(0.0017051 -4.45136e-05 0)
(0.00166894 -4.52861e-05 0)
(0.00163262 -4.44684e-05 0)
(0.0015962 -4.25648e-05 0)
(0.0015597 -4.00972e-05 0)
(0.00152316 -3.76323e-05 0)
(0.00148654 -3.58046e-05 0)
(0.0014498 -3.53398e-05 0)
(0.00141282 -3.70774e-05 0)
(0.00137547 -4.19925e-05 0)
(0.00133759 -5.12134e-05 0)
(0.00129896 -6.60291e-05 0)
(0.00125942 -8.78749e-05 0)
(0.00121885 -0.000118273 0)
(0.00117725 -0.000158683 0)
(0.00113482 -0.000210155 0)
(0.00184207 -1.69695e-05 0)
(0.00183692 -2.02449e-05 0)
(0.00183179 -2.37539e-05 0)
(0.00182669 -2.74901e-05 0)
(0.00182166 -3.14453e-05 0)
(0.00181671 -3.5609e-05 0)
(0.00181187 -3.99692e-05 0)
(0.00180715 -4.45117e-05 0)
(0.00180256 -4.9221e-05 0)
(0.00179813 -5.40795e-05 0)
(0.00179384 -5.90685e-05 0)
(0.00178972 -6.41677e-05 0)
(0.00178577 -6.93556e-05 0)
(0.00178196 -7.46101e-05 0)
(0.00177831 -7.99088e-05 0)
(0.00177479 -8.52292e-05 0)
(0.00177138 -9.05501e-05 0)
(0.00176804 -9.58527e-05 0)
(0.00176474 -0.000101122 0)
(0.00172328 -0.000116897 0)
(0.00168528 -0.000126429 0)
(0.00164682 -0.000134392 0)
(0.0016072 -0.000140658 0)
(0.00156582 -0.000145395 0)
(0.00152212 -0.000148953 0)
(0.00147559 -0.000151807 0)
(0.0014258 -0.000154531 0)
(0.0013723 -0.000157787 0)
(0.00131471 -0.000162326 0)
(0.00125263 -0.000168997 0)
(0.00118573 -0.000178757 0)
(0.0011137 -0.000192681 0)
(0.0010363 -0.00021197 0)
(0.000953391 -0.000237953 0)
(0.000864993 -0.000272081 0)
(0.000771334 -0.000315919 0)
(0.00067305 -0.000371228 0)
(0.000569956 -0.000439079 0)
(0.000493979 -0.000507411 0)
(0.000522688 -0.000493813 0)
(0.000551531 -0.000480565 0)
(0.000580503 -0.00046756 0)
(0.000609644 -0.000454716 0)
(0.000639015 -0.000441974 0)
(0.000668684 -0.000429297 0)
(0.000698713 -0.000416665 0)
(0.000729156 -0.000404077 0)
(0.000760051 -0.000391542 0)
(0.000791415 -0.000379076 0)
(0.00082325 -0.000366701 0)
(0.000855538 -0.000354437 0)
(0.000888249 -0.000342298 0)
(0.000921346 -0.000330296 0)
(0.00095479 -0.000318431 0)
(0.000988547 -0.000306701 0)
(0.00102259 -0.000295099 0)
(0.00105693 -0.000283626 0)
(0.000389089 -0.00059072 0)
(0.000313971 -0.000668298 0)
(0.00024179 -0.000753858 0)
(0.000174806 -0.000846312 0)
(0.000115859 -0.000943223 0)
(6.79388e-05 -0.00103998 0)
(3.32007e-05 -0.00112944 0)
(1.19426e-05 -0.00120309 0)
(2.15598e-06 -0.00125275 0)
(0 -0.00127163 0)
(0 -0.00126987 0)
(0 -0.00126771 0)
(0 -0.00126526 0)
(0 -0.00126259 0)
(0 -0.00125978 0)
(0 -0.00125688 0)
(0 -0.00125395 0)
(0 -0.00125103 0)
(0 -0.00124813 0)
(0 -0.00124529 0)
(0 -0.00124251 0)
(0 -0.00123982 0)
(0 -0.0012372 0)
(0 -0.00123465 0)
(0 -0.00123215 0)
(0 -0.00122964 0)
(0 -0.00122705 0)
(0 -0.00122429 0)
(0.000295439 -0.000446477 0)
(0.000298835 -0.000616546 0)
(0.000292337 -0.00076539 0)
(0.000276259 -0.000889609 0)
(0.000251456 -0.000987066 0)
(0.000221106 -0.00105882 0)
(0.000189398 -0.00110875 0)
(0.000159931 -0.00114191 0)
(0.000134939 -0.00116312 0)
(0.000563968 -0.000542804 0)
(0.000564159 -0.000691826 0)
(0.00054478 -0.000811169 0)
(0.000507141 -0.000899308 0)
(0.000457005 -0.000960291 0)
(0.000402176 -0.00100162 0)
(0.00034923 -0.00103031 0)
(0.000302375 -0.00105126 0)
(0.000263721 -0.0010675 0)
(0.000785405 -0.00065326 0)
(0.000770962 -0.000760597 0)
(0.000730344 -0.000828389 0)
(0.000672237 -0.000866639 0)
(0.000607525 -0.000888917 0)
(0.000543983 -0.000904524 0)
(0.000485978 -0.000917955 0)
(0.000435761 -0.000931009 0)
(0.000394167 -0.000944109 0)
(0.000939886 -0.000735265 0)
(0.000901243 -0.000779149 0)
(0.000843509 -0.000791208 0)
(0.00078025 -0.000792678 0)
(0.00071846 -0.000793274 0)
(0.000660724 -0.00079574 0)
(0.000608525 -0.000800761 0)
(0.000562517 -0.000807955 0)
(0.000522319 -0.000816135 0)
(0.00102233 -0.000742373 0)
(0.000967827 -0.000732561 0)
(0.000911607 -0.000720519 0)
(0.000857335 -0.000711082 0)
(0.000805868 -0.000704315 0)
(0.000758184 -0.000700412 0)
(0.000714528 -0.000699001 0)
(0.000674461 -0.000699217 0)
(0.000638704 -0.000701249 0)
(0.00106674 -0.000683385 0)
(0.0010195 -0.000664991 0)
(0.000972674 -0.000649064 0)
(0.000927397 -0.000635815 0)
(0.000884417 -0.000625183 0)
(0.00084426 -0.000616887 0)
(0.000807118 -0.00061048 0)
(0.000772982 -0.000605585 0)
(0.000741523 -0.00060161 0)
(0.00111425 -0.000618965 0)
(0.00107347 -0.000598063 0)
(0.00103391 -0.000579494 0)
(0.000995962 -0.000563347 0)
(0.000959962 -0.000549489 0)
(0.000926136 -0.000537653 0)
(0.000894577 -0.000527503 0)
(0.000865236 -0.000518648 0)
(0.000837952 -0.000510728 0)
(0.00116428 -0.000556238 0)
(0.00112893 -0.000532924 0)
(0.00109534 -0.000512111 0)
(0.00106349 -0.000493661 0)
(0.00103339 -0.000477358 0)
(0.00100509 -0.000462936 0)
(0.000978574 -0.000450102 0)
(0.000953757 -0.000438559 0)
(0.000930527 -0.000428035 0)
(0.00121515 -0.000495534 0)
(0.00118478 -0.000470208 0)
(0.00115641 -0.000447655 0)
(0.00112981 -0.000427533 0)
(0.00110486 -0.000409539 0)
(0.00108147 -0.000393386 0)
(0.00105958 -0.000378804 0)
(0.00103906 -0.000365541 0)
(0.0010198 -0.000353355 0)
(0.00131275 -0.000382862 0)
(0.00129206 -0.000355583 0)
(0.00127294 -0.000331548 0)
(0.00125517 -0.000310199 0)
(0.00123861 -0.000291111 0)
(0.00122315 -0.000273953 0)
(0.00120872 -0.000258473 0)
(0.00119525 -0.000244507 0)
(0.00118272 -0.000232039 0)
(0.0013573 -0.000331435 0)
(0.00134142 -0.00030446 0)
(0.00132662 -0.000280851 0)
(0.00131279 -0.000260034 0)
(0.00129985 -0.000241576 0)
(0.00128772 -0.000225154 0)
(0.00127638 -0.000210539 0)
(0.00126581 -0.000197584 0)
(0.00125604 -0.000186206 0)
(0.00139819 -0.000283053 0)
(0.00138701 -0.00025722 0)
(0.00137638 -0.00023475 0)
(0.00136631 -0.000215071 0)
(0.00135679 -0.000197752 0)
(0.00134782 -0.000182464 0)
(0.0013394 -0.000168958 0)
(0.00133157 -0.000157035 0)
(0.00132436 -0.000146516 0)
(0.0014349 -0.000237393 0)
(0.00142816 -0.000213494 0)
(0.00142146 -0.000192816 0)
(0.0014149 -0.000174807 0)
(0.00140854 -0.000159045 0)
(0.00140246 -0.0001452 0)
(0.00139672 -0.000133009 0)
(0.00139135 -0.000122256 0)
(0.00138641 -0.000112755 0)
(0.00146694 -0.000194095 0)
(0.00146427 -0.000172861 0)
(0.00146112 -0.000154568 0)
(0.00145771 -0.000138708 0)
(0.00145419 -0.000124883 0)
(0.00145068 -0.000112784 0)
(0.00144727 -0.000102158 0)
(0.00144405 -9.27988e-05 0)
(0.00144107 -8.45334e-05 0)
(0.0014939 -0.000152786 0)
(0.00149476 -0.000134867 0)
(0.00149469 -0.000119489 0)
(0.00149399 -0.000106209 0)
(0.00149289 -9.46796e-05 0)
(0.00149155 -8.4623e-05 0)
(0.00149011 -7.58167e-05 0)
(0.00148868 -6.80793e-05 0)
(0.00148735 -6.12607e-05 0)
(0.00151542 -0.000113085 0)
(0.00151916 -9.90269e-05 0)
(0.00152159 -8.70213e-05 0)
(0.00152307 -7.67094e-05 0)
(0.00152389 -6.77947e-05 0)
(0.00152426 -6.00454e-05 0)
(0.00152438 -5.32811e-05 0)
(0.00152437 -4.73597e-05 0)
(0.00152434 -4.21655e-05 0)
(0.00153128 -7.45789e-05 0)
(0.00153715 -6.48132e-05 0)
(0.00154136 -5.65958e-05 0)
(0.00154437 -4.95857e-05 0)
(0.00154654 -4.35436e-05 0)
(0.00154813 -3.83013e-05 0)
(0.00154934 -3.37377e-05 0)
(0.00155034 -2.97639e-05 0)
(0.00155125 -2.63154e-05 0)
(0.00154159 -3.67669e-05 0)
(0.00154851 -3.18252e-05 0)
(0.00155361 -2.77299e-05 0)
(0.00155741 -2.42333e-05 0)
(0.0015603 -2.12096e-05 0)
(0.00156254 -1.85793e-05 0)
(0.00156436 -1.62886e-05 0)
(0.00156592 -1.4306e-05 0)
(0.00156737 -1.2629e-05 0)
(0.00157359 -6.53425e-06 0)
(0.00155833 -1.39392e-05 0)
(0.00153311 -2.33031e-05 0)
(0.00149843 -3.55918e-05 0)
(0.00145491 -5.16706e-05 0)
(0.00140329 -7.22988e-05 0)
(0.00134444 -9.8109e-05 0)
(0.00127931 -0.000129573 0)
(0.00120899 -0.000166948 0)
(0.00157877 -3.50592e-06 0)
(0.00156491 -7.82026e-06 0)
(0.00154213 -1.37672e-05 0)
(0.00151079 -2.21364e-05 0)
(0.00147136 -3.36632e-05 0)
(0.00142444 -4.90181e-05 0)
(0.00137073 -6.87907e-05 0)
(0.00131102 -9.34664e-05 0)
(0.00124617 -0.000123388 0)
(0.00158493 -1.63491e-06 0)
(0.0015724 -3.95855e-06 0)
(0.00155185 -7.60723e-06 0)
(0.00152355 -1.32123e-05 0)
(0.00148789 -2.13784e-05 0)
(0.00144535 -3.26717e-05 0)
(0.00139651 -4.76083e-05 0)
(0.00134199 -6.66379e-05 0)
(0.0012825 -9.0119e-05 0)
(0.00159249 -5.60183e-07 0)
(0.00158117 -1.68451e-06 0)
(0.00156261 -3.8693e-06 0)
(0.00153703 -7.61331e-06 0)
(0.00150477 -1.34022e-05 0)
(0.00146622 -2.16993e-05 0)
(0.00142187 -3.29366e-05 0)
(0.00137223 -4.75045e-05 0)
(0.00131787 -6.57353e-05 0)
(0.00160169 -4.25983e-08 0)
(0.00159145 -5.388e-07 0)
(0.00157465 -1.87847e-06 0)
(0.00155149 -4.45371e-06 0)
(0.00152226 -8.64938e-06 0)
(0.00148731 -1.48362e-05 0)
(0.00144705 -2.33645e-05 0)
(0.00140192 -3.45577e-05 0)
(0.00135239 -4.8702e-05 0)
(0.00161267 8.44631e-08 0)
(0.00160339 -1.93653e-07 0)
(0.00158814 -1.14279e-06 0)
(0.00156712 -3.07165e-06 0)
(0.00154059 -6.28342e-06 0)
(0.00150886 -1.10708e-05 0)
(0.0014723 -1.77119e-05 0)
(0.0014313 -2.64658e-05 0)
(0.00138625 -3.75665e-05 0)
(0.00162549 -5.79212e-08 0)
(0.00161706 -4.06763e-07 0)
(0.00160319 -1.29305e-06 0)
(0.00158407 -2.96166e-06 0)
(0.00155993 -5.65193e-06 0)
(0.00153108 -9.59399e-06 0)
(0.00149786 -1.50058e-05 0)
(0.0014606 -2.20903e-05 0)
(0.00141969 -3.10321e-05 0)
(0.00164015 -3.78257e-07 0)
(0.00163247 -9.92878e-07 0)
(0.00161983 -2.04399e-06 0)
(0.00160239 -3.72866e-06 0)
(0.0015804 -6.2378e-06 0)
(0.00155413 -9.75328e-06 0)
(0.0015239 -1.44456e-05 0)
(0.00149005 -2.04719e-05 0)
(0.00145291 -2.79743e-05 0)
(0.00165662 -8.04758e-07 0)
(0.00164961 -1.80562e-06 0)
(0.00163805 -3.16874e-06 0)
(0.00162212 -5.05624e-06 0)
(0.00160204 -7.62344e-06 0)
(0.00157809 -1.10163e-05 0)
(0.00155056 -1.53696e-05 0)
(0.00151979 -2.0805e-05 0)
(0.00148609 -2.74306e-05 0)
(0.00167482 -1.27899e-06 0)
(0.00166841 -2.72544e-06 0)
(0.00165783 -4.48142e-06 0)
(0.00164325 -6.68437e-06 0)
(0.00162489 -9.46438e-06 0)
(0.00160302 -1.29418e-05 0)
(0.00157793 -1.72254e-05 0)
(0.00154994 -2.24111e-05 0)
(0.00151938 -2.85812e-05 0)
(0.00169467 -1.75153e-06 0)
(0.00168879 -3.65117e-06 0)
(0.00167909 -5.82477e-06 0)
(0.00166573 -8.39316e-06 0)
(0.00164892 -1.14694e-05 0)
(0.00162892 -1.51565e-05 0)
(0.00160604 -1.95453e-05 0)
(0.00158057 -2.47137e-05 0)
(0.00155284 -3.07258e-05 0)
(0.00171604 -2.17881e-06 0)
(0.00171065 -4.49375e-06 0)
(0.00170174 -7.06067e-06 0)
(0.00168948 -9.99017e-06 0)
(0.00167406 -1.33848e-05 0)
(0.00165577 -1.73364e-05 0)
(0.00163487 -2.19246e-05 0)
(0.00161168 -2.72152e-05 0)
(0.00158652 -3.326e-05 0)
(0.00173881 -2.52053e-06 0)
(0.00173386 -5.17101e-06 0)
(0.00172567 -8.06221e-06 0)
(0.00171439 -1.12997e-05 0)
(0.00170025 -1.49806e-05 0)
(0.00168349 -1.91908e-05 0)
(0.00166439 -2.40031e-05 0)
(0.00164327 -2.94759e-05 0)
(0.00162043 -3.56532e-05 0)
(0.00176281 -2.73728e-06 0)
(0.00175826 -5.60269e-06 0)
(0.00175072 -8.70607e-06 0)
(0.00174035 -1.21524e-05 0)
(0.00172736 -1.60378e-05 0)
(0.00171199 -2.04461e-05 0)
(0.00169452 -2.54468e-05 0)
(0.00167526 -3.1094e-05 0)
(0.00165452 -3.74265e-05 0)
(0.00178788 -2.78808e-06 0)
(0.00178369 -5.70524e-06 0)
(0.00177675 -8.86424e-06 0)
(0.0017672 -1.2374e-05 0)
(0.00175525 -1.63339e-05 0)
(0.00174115 -2.08292e-05 0)
(0.00172517 -2.59288e-05 0)
(0.0017076 -3.1684e-05 0)
(0.00168875 -3.81299e-05 0)
(0.00181381 -2.6277e-06 0)
(0.00180996 -5.38547e-06 0)
(0.00180355 -8.39374e-06 0)
(0.00179476 -1.17713e-05 0)
(0.00178377 -1.5626e-05 0)
(0.00177083 -2.0048e-05 0)
(0.0017562 -2.51069e-05 0)
(0.00174016 -3.08525e-05 0)
(0.00172302 -3.73165e-05 0)
(0.00184037 -2.20321e-06 0)
(0.00183681 -4.53148e-06 0)
(0.00183091 -7.12211e-06 0)
(0.00182282 -1.01142e-05 0)
(0.00181272 -1.36301e-05 0)
(0.00180086 -1.77666e-05 0)
(0.00178747 -2.25961e-05 0)
(0.00177284 -2.81678e-05 0)
(0.00175726 -3.45103e-05 0)
(0.00186729 -1.44819e-06 0)
(0.00186398 -2.99567e-06 0)
(0.00185853 -4.82427e-06 0)
(0.00185111 -7.1127e-06 0)
(0.00184188 -9.99467e-06 0)
(0.00183103 -1.3575e-05 0)
(0.00181882 -1.79324e-05 0)
(0.0018055 -2.31194e-05 0)
(0.00179136 -2.91634e-05 0)
(0.00189419 -2.59866e-07 0)
(0.00189106 -5.44895e-07 0)
(0.00188608 -1.20009e-06 0)
(0.00187933 -2.3946e-06 0)
(0.00187096 -4.27062e-06 0)
(0.00186113 -6.94862e-06 0)
(0.00185006 -1.05235e-05 0)
(0.00183802 -1.5061e-05 0)
(0.00182526 -2.05953e-05 0)
(0.00110466 -0.000219191 0)
(0.0010741 -0.000228657 0)
(0.00104343 -0.00023849 0)
(0.00101281 -0.00024864 0)
(0.000982337 -0.000259066 0)
(0.000952097 -0.000269736 0)
(0.000922143 -0.000280622 0)
(0.000892522 -0.000291702 0)
(0.000863274 -0.000302956 0)
(0.000834426 -0.000314367 0)
(0.000805999 -0.000325924 0)
(0.000778006 -0.00033762 0)
(0.000750449 -0.00034946 0)
(0.000723331 -0.000361455 0)
(0.000696648 -0.000373631 0)
(0.000670402 -0.000386027 0)
(0.000644599 -0.000398696 0)
(0.000619251 -0.000411704 0)
(0.00059437 -0.000425125 0)
(0.00115012 -0.000166718 0)
(0.00112269 -0.000175074 0)
(0.00109511 -0.000183748 0)
(0.00106748 -0.000192728 0)
(0.00103991 -0.000201995 0)
(0.00101248 -0.000211533 0)
(0.000985264 -0.000221322 0)
(0.000958324 -0.000231349 0)
(0.000931713 -0.0002416 0)
(0.000905475 -0.000252067 0)
(0.000879654 -0.000262746 0)
(0.000854288 -0.000273637 0)
(0.000829414 -0.000284748 0)
(0.000805068 -0.000296093 0)
(0.000781289 -0.000307694 0)
(0.000758122 -0.000319584 0)
(0.000735621 -0.000331803 0)
(0.000713853 -0.000344401 0)
(0.000692912 -0.000357442 0)
(0.00119427 -0.000125496 0)
(0.00116949 -0.000132993 0)
(0.0011446 -0.000140774 0)
(0.00111967 -0.000148838 0)
(0.00109478 -0.000157184 0)
(0.00107001 -0.000165805 0)
(0.00104544 -0.000174695 0)
(0.00102111 -0.000183849 0)
(0.000997111 -0.000193262 0)
(0.000973486 -0.000202931 0)
(0.000950295 -0.000212857 0)
(0.000927595 -0.000223045 0)
(0.000905443 -0.000233503 0)
(0.000883899 -0.000244243 0)
(0.000863026 -0.000255285 0)
(0.000842892 -0.00026665 0)
(0.000823574 -0.000278367 0)
(0.000805159 -0.000290467 0)
(0.000787744 -0.000302983 0)
(0.00123717 -9.43561e-05 0)
(0.00121479 -0.000101107 0)
(0.00119233 -0.000108133 0)
(0.00116986 -0.000115439 0)
(0.00114745 -0.000123025 0)
(0.00112517 -0.000130893 0)
(0.00110308 -0.000139041 0)
(0.00108126 -0.000147469 0)
(0.00105977 -0.000156175 0)
(0.00103868 -0.000165163 0)
(0.00101804 -0.000174432 0)
(0.000997934 -0.00018399 0)
(0.000978421 -0.000193841 0)
(0.000959575 -0.000203996 0)
(0.000941469 -0.000214466 0)
(0.000924184 -0.000225265 0)
(0.000907803 -0.000236409 0)
(0.000892414 -0.000247913 0)
(0.000878108 -0.000259794 0)
(0.00127889 -7.18535e-05 0)
(0.00125872 -7.79551e-05 0)
(0.00123851 -8.43373e-05 0)
(0.00121831 -9.1003e-05 0)
(0.0011982 -9.79541e-05 0)
(0.00117824 -0.000105192 0)
(0.00115849 -0.000112718 0)
(0.00113902 -0.000120533 0)
(0.0011199 -0.000128637 0)
(0.00110119 -0.000137033 0)
(0.00108296 -0.000145722 0)
(0.00106529 -0.000154707 0)
(0.00104825 -0.000163994 0)
(0.00103191 -0.000173586 0)
(0.00101635 -0.00018349 0)
(0.00100166 -0.000193713 0)
(0.000987926 -0.000204262 0)
(0.000975234 -0.000215146 0)
(0.000963688 -0.000226373 0)
(0.00131955 -5.64861e-05 0)
(0.00130144 -6.20432e-05 0)
(0.00128332 -6.78863e-05 0)
(0.00126523 -7.4017e-05 0)
(0.00124725 -8.04367e-05 0)
(0.00122943 -8.71465e-05 0)
(0.00121184 -9.4147e-05 0)
(0.00119455 -0.000101439 0)
(0.00117762 -0.000109023 0)
(0.00116111 -0.000116899 0)
(0.00114511 -0.000125069 0)
(0.00112968 -0.000133533 0)
(0.00111489 -0.000142293 0)
(0.00110082 -0.000151348 0)
(0.00108756 -0.000160702 0)
(0.00107517 -0.000170355 0)
(0.00106376 -0.000180307 0)
(0.00105342 -0.000190561 0)
(0.00104423 -0.000201116 0)
(0.00135933 -4.68248e-05 0)
(0.00134312 -5.19429e-05 0)
(0.00132692 -5.73477e-05 0)
(0.00131078 -6.304e-05 0)
(0.00129475 -6.90203e-05 0)
(0.0012789 -7.52888e-05 0)
(0.00126329 -8.18454e-05 0)
(0.00124799 -8.86899e-05 0)
(0.00123305 -9.58215e-05 0)
(0.00121855 -0.000103239 0)
(0.00120455 -0.000110942 0)
(0.00119113 -0.000118928 0)
(0.00117836 -0.000127196 0)
(0.00116631 -0.000135744 0)
(0.00115505 -0.000144568 0)
(0.00114468 -0.000153665 0)
(0.00113527 -0.00016303 0)
(0.00112691 -0.00017266 0)
(0.00111969 -0.000182546 0)
(0.0013984 -4.15738e-05 0)
(0.00138394 -4.63509e-05 0)
(0.00136949 -5.14093e-05 0)
(0.00135511 -5.67494e-05 0)
(0.00134086 -6.2371e-05 0)
(0.00132679 -6.82735e-05 0)
(0.00131297 -7.44559e-05 0)
(0.00129946 -8.09167e-05 0)
(0.00128631 -8.76539e-05 0)
(0.0012736 -9.46649e-05 0)
(0.00126139 -0.000101947 0)
(0.00124974 -0.000109496 0)
(0.00123873 -0.000117307 0)
(0.00122843 -0.000125375 0)
(0.00121891 -0.000133695 0)
(0.00121024 -0.000142258 0)
(0.00120251 -0.000151056 0)
(0.00119579 -0.00016008 0)
(0.00119017 -0.000169318 0)
(0.00143693 -3.95897e-05 0)
(0.00142403 -4.41097e-05 0)
(0.00141116 -4.89003e-05 0)
(0.00139837 -5.39615e-05 0)
(0.00138571 -5.92926e-05 0)
(0.00137324 -6.48925e-05 0)
(0.00136101 -7.07594e-05 0)
(0.00134908 -7.68906e-05 0)
(0.00133752 -8.32829e-05 0)
(0.00132638 -8.99325e-05 0)
(0.00131572 -9.68344e-05 0)
(0.00130562 -0.000103983 0)
(0.00129612 -0.000111371 0)
(0.00128731 -0.000118992 0)
(0.00127924 -0.000126836 0)
(0.00127199 -0.000134893 0)
(0.00126563 -0.000143152 0)
(0.00126023 -0.000151599 0)
(0.00125588 -0.000160219 0)
(0.00147506 -3.98785e-05 0)
(0.00146355 -4.42077e-05 0)
(0.00145208 -4.87929e-05 0)
(0.00144069 -5.36336e-05 0)
(0.00142944 -5.87291e-05 0)
(0.00141836 -6.40775e-05 0)
(0.00140753 -6.96765e-05 0)
(0.00139699 -7.55227e-05 0)
(0.0013868 -8.16118e-05 0)
(0.00137702 -8.79387e-05 0)
(0.0013677 -9.44973e-05 0)
(0.00135889 -0.00010128 0)
(0.00135067 -0.000108279 0)
(0.00134309 -0.000115484 0)
(0.00133622 -0.000122885 0)
(0.00133012 -0.000130468 0)
(0.00132484 -0.00013822 0)
(0.00132047 -0.000146126 0)
(0.00131707 -0.000154167 0)
(0.00151288 -4.15804e-05 0)
(0.0015026 -4.57667e-05 0)
(0.00149234 -5.01916e-05 0)
(0.00148218 -5.48549e-05 0)
(0.00147214 -5.97553e-05 0)
(0.00146229 -6.4891e-05 0)
(0.00145266 -7.02589e-05 0)
(0.00144331 -7.58551e-05 0)
(0.00143429 -8.16747e-05 0)
(0.00142566 -8.77117e-05 0)
(0.00141745 -9.39589e-05 0)
(0.00140974 -0.000100408 0)
(0.00140256 -0.000107049 0)
(0.00139599 -0.000113871 0)
(0.00139006 -0.000120861 0)
(0.00138485 -0.000128006 0)
(0.00138041 -0.000135289 0)
(0.0013768 -0.000142693 0)
(0.00137407 -0.0001502 0)
(0.00155047 -4.39502e-05 0)
(0.00154123 -4.80231e-05 0)
(0.00153203 -5.23166e-05 0)
(0.00152291 -5.68302e-05 0)
(0.00151392 -6.15628e-05 0)
(0.0015051 -6.65121e-05 0)
(0.0014965 -7.1675e-05 0)
(0.00148816 -7.70472e-05 0)
(0.00148012 -8.26233e-05 0)
(0.00147244 -8.83969e-05 0)
(0.00146516 -9.436e-05 0)
(0.00145833 -0.000100503 0)
(0.00145199 -0.000106816 0)
(0.0014462 -0.000113287 0)
(0.00144101 -0.000119901 0)
(0.00143646 -0.000126644 0)
(0.00143261 -0.000133498 0)
(0.00142952 -0.000140445 0)
(0.00142723 -0.000147463 0)
(0.00158784 -4.63355e-05 0)
(0.00157949 -5.03084e-05 0)
(0.00157118 -5.44841e-05 0)
(0.00156295 -5.88623e-05 0)
(0.00155484 -6.34417e-05 0)
(0.00154689 -6.82201e-05 0)
(0.00153915 -7.31944e-05 0)
(0.00153164 -7.83601e-05 0)
(0.00152441 -8.37117e-05 0)
(0.00151751 -8.92424e-05 0)
(0.00151097 -9.4944e-05 0)
(0.00150484 -0.000100807 0)
(0.00149916 -0.00010682 0)
(0.00149397 -0.00011297 0)
(0.00148931 -0.000119242 0)
(0.00148523 -0.000125621 0)
(0.00148177 -0.000132088 0)
(0.00147898 -0.000138623 0)
(0.00147691 -0.000145204 0)
(0.001625 -4.81551e-05 0)
(0.0016174 -5.20278e-05 0)
(0.00160983 -5.60871e-05 0)
(0.00160234 -6.03328e-05 0)
(0.00159496 -6.47638e-05 0)
(0.00158773 -6.9378e-05 0)
(0.00158069 -7.41722e-05 0)
(0.00157386 -7.91421e-05 0)
(0.00156729 -8.42823e-05 0)
(0.00156102 -8.95859e-05 0)
(0.00155507 -9.50447e-05 0)
(0.00154948 -0.000100649 0)
(0.00154429 -0.000106387 0)
(0.00153953 -0.000112246 0)
(0.00153524 -0.000118211 0)
(0.00153146 -0.000124265 0)
(0.00152822 -0.000130388 0)
(0.00152556 -0.00013656 0)
(0.00152351 -0.000142757 0)
(0.00166193 -4.88761e-05 0)
(0.00165493 -5.26388e-05 0)
(0.00164797 -5.65747e-05 0)
(0.00164109 -6.06839e-05 0)
(0.00163431 -6.49651e-05 0)
(0.00162767 -6.94163e-05 0)
(0.00162119 -7.40347e-05 0)
(0.00161492 -7.8816e-05 0)
(0.00160888 -8.37549e-05 0)
(0.0016031 -8.88448e-05 0)
(0.0015976 -9.40778e-05 0)
(0.00159243 -9.94442e-05 0)
(0.0015876 -0.000104933 0)
(0.00158315 -0.00011053 0)
(0.0015791 -0.000116222 0)
(0.00157548 -0.00012199 0)
(0.00157231 -0.000127815 0)
(0.00156963 -0.000133675 0)
(0.00156745 -0.000139544 0)
(0.00169858 -4.79891e-05 0)
(0.00169208 -5.16283e-05 0)
(0.00168561 -5.54318e-05 0)
(0.00167922 -5.93991e-05 0)
(0.00167292 -6.35292e-05 0)
(0.00166676 -6.782e-05 0)
(0.00166074 -7.22684e-05 0)
(0.00165491 -7.68704e-05 0)
(0.00164929 -8.16207e-05 0)
(0.00164389 -8.65131e-05 0)
(0.00163875 -9.15397e-05 0)
(0.00163389 -9.66916e-05 0)
(0.00162933 -0.000101958 0)
(0.00162508 -0.000107326 0)
(0.00162117 -0.000112781 0)
(0.00161761 -0.000118306 0)
(0.00161442 -0.00012388 0)
(0.00161161 -0.000129482 0)
(0.0016092 -0.000135085 0)
(0.00173492 -4.4978e-05 0)
(0.00172881 -4.84846e-05 0)
(0.00172275 -5.21527e-05 0)
(0.00171675 -5.59816e-05 0)
(0.00171084 -5.99693e-05 0)
(0.00170506 -6.41132e-05 0)
(0.00169941 -6.84095e-05 0)
(0.00169393 -7.28539e-05 0)
(0.00168864 -7.74408e-05 0)
(0.00168356 -8.21639e-05 0)
(0.00167869 -8.70156e-05 0)
(0.00167407 -9.19871e-05 0)
(0.0016697 -9.7068e-05 0)
(0.0016656 -0.000102246 0)
(0.00166177 -0.000107508 0)
(0.00165822 -0.000112837 0)
(0.00165494 -0.000118215 0)
(0.00165195 -0.000123618 0)
(0.00164925 -0.000129021 0)
(0.00177091 -3.92784e-05 0)
(0.00176514 -4.26586e-05 0)
(0.0017594 -4.62082e-05 0)
(0.00175373 -4.99242e-05 0)
(0.00174815 -5.38029e-05 0)
(0.00174267 -5.784e-05 0)
(0.00173733 -6.20303e-05 0)
(0.00173213 -6.63681e-05 0)
(0.00172711 -7.08467e-05 0)
(0.00172227 -7.54588e-05 0)
(0.00171763 -8.01958e-05 0)
(0.0017132 -8.50486e-05 0)
(0.00170899 -9.00066e-05 0)
(0.001705 -9.50579e-05 0)
(0.00170123 -0.000100189 0)
(0.00169767 -0.000105386 0)
(0.00169431 -0.000110631 0)
(0.00169115 -0.000115903 0)
(0.00168814 -0.000121178 0)