/*--------------------------------*- C++ -*----------------------------------*\
| =========                 |                                                 |
| \\      /  F ield         | OpenFOAM: The Open Source CFD Toolbox           |
|  \\    /   O peration     | Version:  v2012                                 |
|   \\  /    A nd           | Website:  www.openfoam.com                      |
|    \\/     M anipulation  |                                                 |
\*---------------------------------------------------------------------------*/
FoamFile
{
    version     2.0;
    format      ascii;
    class       volSymmTensorField;
    location    "17";
    object      sigma;
}
// * * * * * * * * * * * * * * * * * * * * * * * * * * * * * * * * * * * * * //

dimensions      [1 -1 -2 0 0 0 0];


internalField   nonuniform List<symmTensor> 
2000
(
(-1.17192e+08 -9.90127e+06 -4.45467e-05 6.69885e+06 -0.002983 2.23397e+07)
(-6.80914e+07 1.40653e+07 -0.000155327 -213558 -0.00103508 2.97738e+07)
(-5.15849e+07 -1.44541e+07 -8.7859e-05 6.82935e+06 -0.00149107 4.72013e+07)
(-1.65866e+07 4.80254e+06 -0.000276568 1.42931e+06 -0.000683673 4.93047e+07)
(3.85052e+06 -1.60927e+07 -0.000145007 1.32235e+07 -0.000863083 6.92827e+07)
(2.61081e+07 -2.24974e+06 -9.77231e-06 6.29234e+06 -0.000354556 6.56282e+07)
(5.03512e+07 -1.58063e+07 0.000126927 2.29403e+07 -0.000802661 8.76193e+07)
(6.27808e+07 -7.93818e+06 -0.00045705 1.43035e+07 -0.000823743 7.92168e+07)
(8.91662e+07 -1.38499e+07 -0.000481205 3.40873e+07 -0.0014013 1.0135e+08)
(9.41117e+07 -1.26612e+07 -0.000410477 2.41097e+07 -0.000911994 8.87517e+07)
(1.2074e+08 -9.98609e+06 0.000126958 4.50843e+07 -0.000625854 1.09253e+08)
(1.18421e+08 -1.58529e+07 0.000443026 3.23796e+07 -0.000234156 9.16804e+07)
(1.44483e+08 -4.2759e+06 0.000222715 5.42298e+07 -0.000101752 1.10291e+08)
(1.34687e+08 -1.66212e+07 0.000446219 3.65771e+07 -0.000173763 8.75369e+07)
(1.59648e+08 2.5146e+06 0.000130357 5.99503e+07 0.000187161 1.04549e+08)
(1.43864e+08 -1.47409e+07 0.000223217 3.64214e+07 0.00028751 7.83704e+07)
(1.66693e+08 9.16742e+06 4.47518e-05 6.13615e+07 0.000456255 9.3864e+07)
(1.48061e+08 -1.07049e+07 -0.000161121 3.31281e+07 0.000360211 6.71896e+07)
(1.67413e+08 1.4719e+07 -0.000159957 5.83787e+07 0.000537145 8.08229e+07)
(1.49413e+08 -5.37596e+06 -0.000418151 2.81873e+07 0.00029496 5.64006e+07)
(-1.07774e+08 -5.82249e+06 -0.000494482 -2.41767e+06 -0.0004101 2.42156e+07)
(-5.00007e+07 1.54974e+07 -0.000449776 829715 -0.000280293 3.61704e+07)
(-5.11009e+07 -1.62182e+07 -0.000253038 -2.15521e+06 -0.000287833 4.23454e+07)
(3.10079e+06 -156020 5.8467e-05 1.13676e+07 -0.00012607 5.94666e+07)
(-4.28427e+06 -2.32714e+07 0.000117683 2.05556e+06 -0.000145068 5.80194e+07)
(4.72389e+07 -1.236e+07 0.000533863 2.37881e+07 -0.000415582 7.77346e+07)
(3.46426e+07 -2.71849e+07 -0.00021571 8.10981e+06 -0.000676401 6.99971e+07)
(8.33719e+07 -2.19501e+07 -0.000195632 3.63297e+07 -0.000672281 8.95058e+07)
(6.73439e+07 -2.76513e+07 -0.000407771 1.50442e+07 -0.000468122 7.76675e+07)
(1.08877e+08 -2.77336e+07 0.000110715 4.35731e+07 -0.000136456 9.15852e+07)
(9.53399e+07 -2.40136e+07 0.000369156 2.28501e+07 -0.000312177 8.14406e+07)
(1.23187e+08 -2.81747e+07 0.000129043 4.22434e+07 3.44576e-05 8.48731e+07)
(1.18189e+08 -1.64925e+07 0.000440052 3.07344e+07 1.90554e-06 8.16301e+07)
(1.29427e+08 -2.38342e+07 0.000268736 3.46454e+07 0.000375207 7.38469e+07)
(1.34765e+08 -6.60113e+06 0.00034687 3.74835e+07 0.000235418 7.89474e+07)
(1.31276e+08 -1.65157e+07 0.000211558 2.49413e+07 0.000229082 6.2556e+07)
(1.45042e+08 3.70066e+06 -0.000126817 4.21758e+07 0.000236136 7.44809e+07)
(1.31312e+08 -7.98692e+06 -0.00013047 1.60977e+07 0.000212025 5.3104e+07)
(1.50456e+08 1.27943e+07 -0.00040979 4.45684e+07 0.000178116 6.93271e+07)
(1.31152e+08 686603 -5.83121e-05 9.54676e+06 0.000128518 4.63686e+07)
(-9.36281e+07 -1.09229e+06 8.30374e-05 -6.18851e+06 0.000161421 2.46117e+07)
(-2.35018e+07 1.27057e+07 0.00081405 7.73394e+06 0.000705377 4.64433e+07)
(-4.86096e+07 -1.85217e+07 0.000414702 -8.27804e+06 0.000278931 3.58506e+07)
(2.7295e+07 -8.32507e+06 0.000345381 2.70804e+07 0.000346673 6.89991e+07)
(-1.12811e+07 -2.99049e+07 0.000354337 -7.26825e+06 -0.00036915 4.40536e+07)
(6.78002e+07 -2.40944e+07 0.000258564 4.45513e+07 -0.000653116 8.18699e+07)
(2.04699e+07 -3.57428e+07 0.000399955 -4.59562e+06 -0.000678539 4.85065e+07)
(9.36704e+07 -3.29071e+07 0.000201875 5.126e+07 -0.000412676 8.12712e+07)
(4.91061e+07 -3.54647e+07 1.63738e-05 -134721 -0.000124328 5.06818e+07)
(1.05749e+08 -3.3195e+07 3.98467e-05 4.38921e+07 -7.7573e-05 7.17169e+07)
(7.43346e+07 -2.97002e+07 -3.89597e-05 5.46372e+06 0.000192571 5.19948e+07)
(1.10217e+08 -2.79758e+07 0.000178002 3.02335e+07 8.53333e-05 6.08479e+07)
(9.46712e+07 -2.06212e+07 0.000216697 1.11482e+07 0.000266529 5.31973e+07)
(1.11778e+08 -2.05994e+07 0.00035382 1.71923e+07 5.95941e-05 5.219e+07)
(1.09678e+08 -1.04709e+07 0.000269449 1.62036e+07 0.000206635 5.43612e+07)
(1.12436e+08 -1.27837e+07 0.000250365 7.04757e+06 0.000132048 4.60189e+07)
(1.19978e+08 -677968 0.000118233 2.02446e+07 0.000156458 5.52321e+07)
(1.13007e+08 -5.21144e+06 9.03821e-05 -3271.58 0.000236393 4.17524e+07)
(1.26015e+08 8.45128e+06 6.89592e-05 2.25918e+07 0.000229006 5.53357e+07)
(1.13506e+08 1.87206e+06 5.32875e-05 -4.66526e+06 0.000348573 3.82297e+07)
(-7.53852e+07 112953 0.000868089 -1.31954e+07 0.000929783 2.14934e+07)
(5.86396e+06 3.41181e+06 0.000354045 1.87964e+07 0.000660565 5.35683e+07)
(-4.25827e+07 -2.14688e+07 0.00027571 -1.46114e+07 0.000476805 2.55395e+07)
(4.72962e+07 -2.03304e+07 0.000349527 4.37521e+07 0.000210398 6.53186e+07)
(-1.36783e+07 -3.41302e+07 0.000327347 -1.46349e+07 -0.000230948 2.52982e+07)
(7.18074e+07 -3.2148e+07 0.000821793 4.99567e+07 -8.03277e-05 6.00682e+07)
(1.3944e+07 -3.77643e+07 0.00048319 -1.31082e+07 -0.000339354 2.39477e+07)
(8.20873e+07 -3.17467e+07 0.000541153 3.58679e+07 -1.18275e-05 4.87532e+07)
(3.89918e+07 -3.46157e+07 0.000205596 -1.0614e+07 -7.85639e-05 2.46192e+07)
(8.78455e+07 -2.67027e+07 0.000136021 2.02159e+07 2.21455e-05 4.14761e+07)
(5.95077e+07 -2.82987e+07 0.000149726 -7.87198e+06 -5.64389e-05 2.75813e+07)
(9.22152e+07 -2.14409e+07 -1.0461e-05 9.0468e+06 -2.58015e-05 3.7953e+07)
(7.53348e+07 -2.0889e+07 0.000192902 -5.24572e+06 -2.96018e-05 3.1443e+07)
(9.53722e+07 -1.63613e+07 9.61413e-05 961393 -3.21328e-05 3.60146e+07)
(8.73018e+07 -1.32727e+07 0.000275682 -2.70467e+06 3.04485e-05 3.52481e+07)
(9.75392e+07 -1.13053e+07 8.16804e-05 -5.07962e+06 -6.9073e-05 3.45059e+07)
(9.59951e+07 -5.69187e+06 4.93581e-05 -488273 0.000156156 3.8274e+07)
(9.87913e+07 -6.10604e+06 -9.44797e-05 -9.77635e+06 -8.45586e-05 3.26947e+07)
(1.02269e+08 1.56505e+06 -2.54109e-05 1.63881e+06 0.000185209 4.01132e+07)
(9.90814e+07 -835709 2.19957e-06 -1.38172e+07 -0.000141556 3.05465e+07)
(-5.22516e+07 -2.81099e+06 2.82213e-05 -2.05834e+07 0.000446787 1.45722e+07)
(2.66934e+07 -1.23336e+07 -1.19667e-05 3.22111e+07 0.000298836 4.34492e+07)
(-2.94235e+07 -2.37133e+07 0.000412986 -1.93267e+07 0.000292714 9.09961e+06)
(4.34905e+07 -2.8409e+07 0.000389321 3.50427e+07 8.68272e-05 3.09633e+07)
(-5.05926e+06 -3.17976e+07 0.000777692 -1.90698e+07 0.000120495 3.31507e+06)
(5.08463e+07 -2.83419e+07 0.000492247 1.18356e+07 -7.3931e-05 1.9262e+07)
(1.78926e+07 -3.25316e+07 0.000605846 -1.82954e+07 8.32873e-06 3.84305e+06)
(5.92222e+07 -2.51131e+07 0.000181807 1.62007e+06 -2.76021e-05 1.82527e+07)
(3.59163e+07 -3.01015e+07 8.3628e-05 -1.8409e+07 4.05938e-05 7.55635e+06)
(7.02111e+07 -2.27572e+07 2.32119e-05 -3.76267e+06 -3.17588e-05 1.99345e+07)
(4.94869e+07 -2.63616e+07 -4.94487e-05 -1.8833e+07 -2.0911e-05 1.17044e+07)
(7.85212e+07 -1.9543e+07 -0.000115092 -6.96591e+06 4.55598e-05 2.22716e+07)
(6.02709e+07 -2.17437e+07 -0.000110127 -1.8731e+07 2.15734e-05 1.58783e+07)
(8.377e+07 -1.59273e+07 -0.000174536 -9.44605e+06 0.000201904 2.40253e+07)
(6.89159e+07 -1.64876e+07 -6.48507e-05 -1.81262e+07 1.38347e-05 1.95913e+07)
(8.65534e+07 -1.21322e+07 -3.71181e-05 -1.25141e+07 0.000225045 2.43466e+07)
(7.57459e+07 -1.08193e+07 -9.61694e-06 -1.71684e+07 -0.000107557 2.23673e+07)
(8.75865e+07 -8.00383e+06 0.00016476 -1.60831e+07 0.000130949 2.3991e+07)
(8.19081e+07 -5.4564e+06 5.62452e-05 -1.52698e+07 -0.000153116 2.49652e+07)
(8.82755e+07 -4.25758e+06 0.000129706 -1.8862e+07 9.37738e-05 2.30022e+07)
(-2.23761e+07 -9.19609e+06 -0.000144149 -2.35391e+07 0.00018741 1.04995e+06)
(1.94386e+07 -1.61876e+07 -6.94723e-05 1.68066e+07 -1.1676e-06 1.08736e+07)
(-445906 -2.40918e+07 8.45803e-05 -1.43444e+07 -3.80641e-05 -4.2712e+06)
(2.42372e+07 -1.5007e+07 2.81159e-05 7.14072e+06 -7.08968e-05 9.41337e+06)
(8.94321e+06 -2.29813e+07 0.000157229 -8.58473e+06 -0.000102259 107544)
(3.40435e+07 -1.71954e+07 6.47435e-05 3.81716e+06 -9.91294e-05 1.13582e+07)
(2.15112e+07 -2.34105e+07 8.04828e-05 -1.10157e+07 -9.05125e-05 3.14864e+06)
(4.35928e+07 -1.81733e+07 -1.20613e-05 -102673 -5.17832e-05 1.3047e+07)
(3.35145e+07 -2.28847e+07 5.26472e-05 -1.37793e+07 -4.58401e-05 5.92055e+06)
(5.26376e+07 -1.81383e+07 2.09001e-06 -4.06633e+06 -7.72953e-05 1.45714e+07)
(4.49405e+07 -2.12746e+07 -9.35833e-05 -1.73279e+07 9.48677e-06 8.28377e+06)
(6.04435e+07 -1.69025e+07 -0.000161409 -8.09039e+06 -3.54484e-05 1.57059e+07)
(5.47531e+07 -1.87442e+07 -0.00022913 -2.08017e+07 0.000179992 1.01854e+07)
(6.68948e+07 -1.47346e+07 8.7757e-05 -1.17859e+07 7.66531e-05 1.65327e+07)
(6.24401e+07 -1.57379e+07 0.000120765 -2.26309e+07 0.000289495 1.20352e+07)
(7.2633e+07 -1.22311e+07 0.000103228 -1.47191e+07 0.000237292 1.73742e+07)
(6.67952e+07 -1.20476e+07 8.70331e-05 -2.28549e+07 0.000331566 1.4119e+07)
(7.58003e+07 -9.07117e+06 -8.78154e-05 -1.75706e+07 0.00018865 1.74689e+07)
(7.09032e+07 -8.54065e+06 9.80085e-05 -2.2433e+07 0.000157152 1.55995e+07)
(7.82385e+07 -6.18728e+06 6.96592e-05 -1.93081e+07 -0.000107291 1.76791e+07)
(987552 -8.69958e+06 -0.000110362 1.0332e+06 5.406e-06 606225)
(1.49273e+07 -7.57226e+06 -4.22672e-05 5.05873e+06 1.12323e-05 5.9958e+06)
(7.05085e+06 -1.13134e+07 -4.52212e-05 -2.17677e+06 -3.11049e-05 1.46222e+06)
(2.20747e+07 -9.32911e+06 6.41014e-06 3.27971e+06 -8.8621e-06 7.60631e+06)
(1.27249e+07 -1.37263e+07 7.70618e-06 -5.9182e+06 -5.78255e-05 2.042e+06)
(2.979e+07 -1.1116e+07 4.75448e-05 676086 -6.97059e-06 9.13984e+06)
(2.09246e+07 -1.5196e+07 2.02112e-05 -9.289e+06 -2.60667e-05 3.49069e+06)
(3.73757e+07 -1.23295e+07 -3.43275e-06 -2.47053e+06 6.7394e-05 1.04715e+07)
(2.98411e+07 -1.56916e+07 -7.31153e-05 -1.24079e+07 -9.49845e-06 5.22997e+06)
(4.4398e+07 -1.2791e+07 -0.000114915 -5.78158e+06 4.81636e-05 1.15849e+07)
(3.8731e+07 -1.51931e+07 -9.70278e-05 -1.5018e+07 -7.04123e-05 7.1139e+06)
(5.05565e+07 -1.24939e+07 -3.52149e-05 -8.97868e+06 4.66457e-05 1.24734e+07)
(4.68903e+07 -1.39048e+07 0.000158607 -1.69481e+07 7.82294e-07 8.98266e+06)
(5.57719e+07 -1.15946e+07 0.000136458 -1.17998e+07 0.000118418 1.31916e+07)
(5.39145e+07 -1.21211e+07 4.6996e-05 -1.84579e+07 0.000169022 1.0637e+07)
(5.99669e+07 -1.02196e+07 -0.000127572 -1.41316e+07 0.000181568 1.37506e+07)
(5.9632e+07 -1.0048e+07 -0.000181083 -1.90443e+07 0.000144397 1.21763e+07)
(6.33718e+07 -8.65602e+06 -4.67158e-05 -1.57772e+07 2.33579e-05 1.42784e+07)
(6.41415e+07 -8.00769e+06 4.12514e-05 -1.90061e+07 -0.000143457 1.35406e+07)
(6.62035e+07 -7.08016e+06 -7.13405e-05 -1.67313e+07 7.09902e-06 1.48417e+07)
(4.47526e+06 -5.13725e+06 -1.89735e-05 -683177 3.15369e-05 1.13763e+06)
(1.28414e+07 -4.07481e+06 -1.2867e-05 2.86984e+06 1.52722e-05 4.71339e+06)
(8.08485e+06 -6.15613e+06 8.12651e-06 -4.22576e+06 1.19562e-05 1.15773e+06)
(1.93948e+07 -5.17728e+06 1.53656e-05 -247509 2.53195e-05 5.74419e+06)
(1.34566e+07 -7.75928e+06 4.92144e-05 -7.36095e+06 4.12631e-05 1.8287e+06)
(2.59502e+07 -6.65037e+06 9.05359e-05 -3.12361e+06 2.46948e-05 6.84799e+06)
(2.00749e+07 -9.2043e+06 5.50525e-05 -1.00856e+07 5.78197e-05 2.99681e+06)
(3.225e+07 -7.95519e+06 -1.04734e-05 -5.87052e+06 4.54489e-05 7.91384e+06)
(2.71911e+07 -1.01589e+07 -0.000112031 -1.23619e+07 0.000101307 4.44877e+06)
(3.80924e+07 -8.86282e+06 -7.92452e-05 -8.4412e+06 7.42011e-06 8.89536e+06)
(3.42974e+07 -1.05235e+07 -2.93886e-05 -1.41182e+07 5.70491e-05 6.05374e+06)
(4.33335e+07 -9.31367e+06 6.6098e-05 -1.07471e+07 -9.42255e-06 9.7759e+06)
(4.09868e+07 -1.03506e+07 4.89926e-05 -1.53303e+07 9.5107e-05 7.69697e+06)
(4.78898e+07 -9.34704e+06 -4.55365e-07 -1.26953e+07 7.85913e-05 1.05584e+07)
(4.70034e+07 -9.7528e+06 -6.37744e-05 -1.59254e+07 0.00013069 9.3234e+06)
(5.17642e+07 -9.07118e+06 -6.21865e-05 -1.41951e+07 9.15108e-05 1.12708e+07)
(5.21942e+07 -8.90564e+06 -2.3749e-05 -1.5963e+07 4.2273e-05 1.08693e+07)
(5.50255e+07 -8.60559e+06 -6.22332e-06 -1.52026e+07 2.82501e-05 1.19469e+07)
(5.65732e+07 -7.95299e+06 -0.000125436 -1.55188e+07 0.000115423 1.23163e+07)
(5.78149e+07 -8.05167e+06 -5.34762e-05 -1.57268e+07 0.000122662 1.26264e+07)
(499520 -878425 2.09001e-06 -4.12151e+06 1.53715e-05 -1.0866e+06)
(9.28206e+06 -216074 2.33287e-05 -628484 1.47001e-05 2.59607e+06)
(6.21803e+06 -1.81026e+06 1.21431e-05 -7.58949e+06 2.67673e-05 -411438)
(1.58355e+07 -1.68676e+06 1.94056e-05 -4.57466e+06 2.78707e-05 3.37825e+06)
(1.21593e+07 -3.36352e+06 6.40897e-05 -1.01717e+07 1.23941e-05 596287)
(2.19063e+07 -3.37949e+06 6.43582e-05 -7.45039e+06 -1.0666e-05 4.33678e+06)
(1.83084e+07 -4.95274e+06 2.83027e-05 -1.21363e+07 6.01315e-07 1.85162e+06)
(2.75391e+07 -4.96384e+06 -2.70884e-05 -9.71556e+06 -1.01932e-05 5.34706e+06)
(2.44849e+07 -6.29089e+06 -4.34231e-05 -1.35949e+07 -3.63708e-05 3.26701e+06)
(3.27255e+07 -6.28096e+06 -1.07186e-05 -1.15521e+07 -4.99384e-05 6.35202e+06)
(3.04947e+07 -7.26764e+06 3.7375e-05 -1.45886e+07 -5.04171e-05 4.77182e+06)
(3.7441e+07 -7.28118e+06 3.77369e-05 -1.3023e+07 -3.01942e-05 7.3254e+06)
(3.61592e+07 -7.87899e+06 2.19392e-05 -1.51284e+07 1.50446e-05 6.30924e+06)
(4.1663e+07 -7.98627e+06 -5.62551e-05 -1.41388e+07 -1.35208e-05 8.25727e+06)
(4.13441e+07 -8.18423e+06 -7.32904e-05 -1.52374e+07 4.08544e-05 7.83202e+06)
(4.53655e+07 -8.45225e+06 3.4561e-06 -1.49023e+07 -7.77623e-05 9.13898e+06)
(4.59668e+07 -8.26161e+06 2.07483e-05 -1.4963e+07 -9.78451e-06 9.30114e+06)
(4.8506e+07 -8.73754e+06 3.47362e-05 -1.53309e+07 -5.95886e-05 9.95251e+06)
(5.00032e+07 -8.17058e+06 4.12397e-05 -1.44054e+07 2.38716e-05 1.06794e+07)
(5.10334e+07 -8.86758e+06 6.64482e-05 -1.54774e+07 8.51182e-06 1.06668e+07)
(-5.656e+06 4.07934e+06 3.18288e-05 -9.33872e+06 1.40287e-05 -4.49841e+06)
(5.30587e+06 3.87073e+06 4.20103e-05 -5.51434e+06 5.04988e-06 -62541)
(2.30197e+06 2.09289e+06 3.65226e-05 -1.20687e+07 9.59185e-06 -2.93001e+06)
(1.18088e+07 1.36482e+06 2.99256e-05 -9.36004e+06 1.47994e-05 734618)
(9.11855e+06 -3098.98 1.76775e-05 -1.38393e+07 1.09521e-05 -1.41621e+06)
(1.75668e+07 -939941 1.47702e-05 -1.18551e+07 7.7412e-06 1.71352e+06)
(1.5322e+07 -1.97966e+06 1.17694e-05 -1.49618e+07 -2.44729e-05 108034)
(2.27858e+07 -2.95848e+06 2.81275e-05 -1.35099e+07 -1.91662e-05 2.78277e+06)
(2.11016e+07 -3.70254e+06 8.54685e-06 -1.56176e+07 -2.0182e-05 1.6452e+06)
(2.75956e+07 -4.64132e+06 4.47425e-05 -1.45847e+07 -1.52956e-06 3.90325e+06)
(2.65061e+07 -5.11764e+06 2.25698e-05 -1.59172e+07 -2.12504e-05 3.17667e+06)
(3.20913e+07 -5.97665e+06 5.55195e-05 -1.52087e+07 -6.38678e-06 5.06478e+06)
(3.15267e+07 -6.22971e+06 -9.86624e-06 -1.59377e+07 -3.90388e-05 4.67668e+06)
(3.63531e+07 -6.97949e+06 7.99808e-06 -1.54404e+07 -4.01071e-06 6.27381e+06)
(3.61404e+07 -7.07883e+06 1.75841e-05 -1.57399e+07 -8.28764e-05 6.12014e+06)
(4.04381e+07 -7.67467e+06 4.10529e-05 -1.52996e+07 -5.43461e-05 7.54154e+06)
(4.0324e+07 -7.71497e+06 3.43275e-05 -1.53797e+07 -8.85568e-05 7.48329e+06)
(4.43102e+07 -8.06533e+06 1.55058e-05 -1.47847e+07 -5.7446e-05 8.85764e+06)
(4.40479e+07 -8.15488e+06 4.58751e-05 -1.49498e+07 -2.81392e-05 8.72945e+06)
(4.75696e+07 -8.0408e+06 0.000142529 -1.39e+07 -9.95877e-05 1.01009e+07)
(-1.12325e+07 9.25084e+06 3.77369e-05 -1.58765e+07 8.90297e-06 -8.13269e+06)
(1.72455e+06 7.76876e+06 3.46077e-05 -1.15536e+07 1.10805e-05 -2.94871e+06)
(-2.20196e+06 5.75569e+06 3.31366e-05 -1.73037e+07 1.17928e-05 -5.85169e+06)
(7.66356e+06 3.95837e+06 2.74854e-05 -1.45809e+07 5.5286e-06 -2.07521e+06)
(5.13114e+06 2.75496e+06 2.09701e-05 -1.78939e+07 6.5269e-06 -3.82883e+06)
(1.2742e+07 761238 3.32066e-05 -1.63603e+07 -6.82464e-06 -1.08548e+06)
(1.14122e+07 186548 3.86943e-05 -1.78614e+07 -2.09585e-06 -1.93477e+06)
(1.71587e+07 -1.92763e+06 5.18415e-05 -1.72982e+07 -8.31917e-06 -41846.1)
(1.69811e+07 -1.96688e+06 6.78961e-05 -1.73424e+07 -9.30287e-06 -108401)
(2.1038e+07 -4.17878e+06 7.84629e-05 -1.76463e+07 -1.8775e-05 1.01751e+06)
(2.20205e+07 -3.72288e+06 7.67115e-05 -1.64067e+07 3.0095e-06 1.68412e+06)
(2.44583e+07 -6.05774e+06 6.76742e-05 -1.75517e+07 1.39762e-05 2.07196e+06)
(2.66327e+07 -5.11042e+06 5.08608e-05 -1.50654e+07 2.75e-05 3.4702e+06)
(2.74786e+07 -7.6422e+06 4.76148e-05 -1.70902e+07 2.80225e-06 3.1165e+06)
(3.08829e+07 -6.17269e+06 2.15306e-05 -1.32543e+07 -1.59319e-05 5.28857e+06)
(3.01783e+07 -9.04792e+06 -2.72752e-05 -1.6274e+07 -3.20624e-05 4.17128e+06)
(3.48222e+07 -6.97411e+06 -1.03216e-05 -1.07529e+07 -5.12665e-05 7.2208e+06)
(3.27717e+07 -1.05035e+07 -4.63071e-05 -1.50171e+07 -3.2471e-05 5.32638e+06)
(3.85054e+07 -7.62935e+06 9.04308e-05 -6.89305e+06 -0.000105388 9.48371e+06)
(3.60101e+07 -1.25995e+07 4.57233e-05 -1.29817e+07 -7.45602e-05 6.90852e+06)
(-1.49936e+07 1.39796e+07 1.87517e-05 -2.37319e+07 7.48433e-06 -1.16177e+07)
(-540030 1.10856e+07 1.36843e-05 -1.8623e+07 -5.48189e-06 -5.74891e+06)
(-6.14198e+06 8.96625e+06 2.65046e-05 -2.36568e+07 -5.1141e-06 -8.93964e+06)
(4.58888e+06 6.0641e+06 2.82093e-05 -2.03354e+07 -1.49044e-05 -4.72396e+06)
(1.03631e+06 4.88128e+06 3.95117e-05 -2.30327e+07 -1.355e-05 -6.59893e+06)
(8.99774e+06 1.97251e+06 3.1572e-05 -2.107e+07 -3.4094e-06 -3.62167e+06)
(7.05288e+06 1.49994e+06 3.90446e-05 -2.20094e+07 -2.97155e-06 -4.48696e+06)
(1.28548e+07 -1.40711e+06 2.90266e-05 -2.11218e+07 -7.02313e-06 -2.4801e+06)
(1.22346e+07 -1.32257e+06 5.77496e-05 -2.06991e+07 -2.11745e-05 -2.53937e+06)
(1.62825e+07 -4.23204e+06 4.42054e-05 -2.06976e+07 -2.48057e-05 -1.32452e+06)
(1.67865e+07 -3.69557e+06 6.23033e-05 -1.91831e+07 -7.62444e-06 -718977)
(1.93768e+07 -6.62727e+06 1.32406e-05 -1.99376e+07 2.60083e-06 -168231)
(2.08381e+07 -5.71759e+06 2.494e-05 -1.7529e+07 4.60035e-06 992740)
(2.22244e+07 -8.7017e+06 8.73367e-06 -1.89399e+07 -1.85269e-05 985333)
(2.4473e+07 -7.49573e+06 -1.07419e-05 -1.58287e+07 -3.33613e-05 2.59328e+06)
(2.49162e+07 -1.05504e+07 -1.89152e-06 -1.77939e+07 -2.24851e-05 2.13668e+06)
(2.77468e+07 -9.17471e+06 -5.37914e-05 -1.43146e+07 -9.89835e-06 4.02966e+06)
(2.75261e+07 -1.2215e+07 4.92495e-05 -1.66553e+07 -1.07069e-05 3.26123e+06)
(3.06912e+07 -1.1004e+07 1.73389e-05 -1.37699e+07 -2.39534e-05 5.07639e+06)
(2.99009e+07 -1.34692e+07 0.000116457 -1.59963e+07 -3.70743e-05 4.17137e+06)
(-1.69628e+07 1.78777e+07 1.88217e-05 -3.26396e+07 -8.50015e-06 -1.48807e+07)
(-1.58809e+06 1.35281e+07 2.55705e-05 -2.64811e+07 5.21918e-06 -8.42077e+06)
(-8.99413e+06 1.16279e+07 2.15539e-05 -3.08033e+07 -2.80808e-06 -1.19392e+07)
(2.43362e+06 7.60025e+06 2.56639e-05 -2.65634e+07 -6.5123e-06 -7.23893e+06)
(-2.45534e+06 6.61098e+06 2.62711e-05 -2.87907e+07 -9.67067e-06 -9.37382e+06)
(5.98709e+06 2.83098e+06 1.94523e-05 -2.60168e+07 -1.34683e-05 -6.00891e+06)
(3.02991e+06 2.52113e+06 1.84481e-05 -2.66829e+07 -9.46342e-06 -7.09588e+06)
(9.17785e+06 -1.05738e+06 4.92728e-06 -2.5046e+07 -7.34714e-06 -4.76045e+06)
(7.73076e+06 -860150 1.13491e-05 -2.45484e+07 -1.03829e-05 -5.04528e+06)
(1.20872e+07 -4.26777e+06 4.64706e-06 -2.38057e+07 -1.23474e-05 -3.51557e+06)
(1.18352e+07 -3.69595e+06 1.05084e-06 -2.24502e+07 -1.63202e-05 -3.18449e+06)
(1.47789e+07 -6.9495e+06 -7.61277e-06 -2.24147e+07 -6.57944e-06 -2.29075e+06)
(1.54768e+07 -6.11393e+06 -4.43689e-06 -2.04576e+07 -8.03894e-06 -1.49424e+06)
(1.73021e+07 -9.20831e+06 3.26228e-05 -2.09748e+07 -1.02194e-05 -1.1018e+06)
(1.87585e+07 -8.21374e+06 4.38551e-05 -1.86591e+07 -1.45191e-05 29825.3)
(1.96852e+07 -1.11045e+07 4.25941e-05 -1.95905e+07 1.6326e-05 28417.1)
(2.178e+07 -1.00496e+07 7.4493e-05 -1.71464e+07 5.85261e-07 1.3901e+06)
(2.19218e+07 -1.26474e+07 5.86837e-05 -1.83722e+07 7.47849e-06 1.06491e+06)
(2.46892e+07 -1.15355e+07 0.000118185 -1.58085e+07 -2.27945e-05 2.66422e+06)
(2.40048e+07 -1.38554e+07 6.86784e-05 -1.73189e+07 -3.44443e-06 2.00579e+06)
(-1.73779e+07 2.06173e+07 3.49113e-05 -4.22485e+07 -6.74582e-06 -1.78879e+07)
(-1.64033e+06 1.48563e+07 2.83027e-05 -3.47873e+07 -7.14865e-06 -1.09283e+07)
(-1.07104e+07 1.35399e+07 2.25114e-05 -3.84251e+07 1.72805e-06 -1.47407e+07)
(1.05276e+06 8.43294e+06 2.77889e-05 -3.30399e+07 2.5337e-06 -9.59614e+06)
(-5.14251e+06 7.89687e+06 2.41227e-05 -3.48535e+07 -1.05668e-05 -1.19988e+07)
(3.5889e+06 3.30841e+06 2.44496e-05 -3.10562e+07 5.16956e-06 -8.24019e+06)
(-406757 3.33939e+06 6.56193e-06 -3.15295e+07 1.38361e-06 -9.58087e+06)
(5.99251e+06 -825564 1.69536e-05 -2.89569e+07 3.58746e-06 -6.88933e+06)
(3.69813e+06 -388330 7.82294e-06 -2.84534e+07 -9.14233e-06 -7.42657e+06)
(8.28402e+06 -4.19334e+06 1.11856e-05 -2.68338e+07 -1.84481e-05 -5.56493e+06)
(7.32208e+06 -3.47342e+06 -1.82146e-06 -2.56307e+07 -1.1603e-05 -5.4926e+06)
(1.04791e+07 -6.95631e+06 -1.55291e-05 -2.47583e+07 -7.33254e-06 -4.28375e+06)
(1.05793e+07 -6.05001e+06 1.59261e-05 -2.30696e+07 -4.80031e-06 -3.7471e+06)
(1.25868e+07 -9.22738e+06 -3.24593e-06 -2.27877e+07 8.12943e-06 -3.06027e+06)
(1.35617e+07 -8.20574e+06 2.16941e-05 -2.07697e+07 2.65732e-05 -2.16239e+06)
(1.46085e+07 -1.10834e+07 -1.42681e-05 -2.09629e+07 4.76717e-05 -1.90634e+06)
(1.63447e+07 -9.98462e+06 1.13257e-05 -1.87013e+07 3.33978e-05 -707004)
(1.65416e+07 -1.25817e+07 5.44103e-06 -1.92944e+07 1.87342e-05 -825819)
(1.89622e+07 -1.14241e+07 3.00891e-05 -1.68331e+07 3.33205e-06 638721)
(1.83817e+07 -1.3769e+07 2.06199e-05 -1.77742e+07 2.91901e-08 182255)
(-1.6563e+07 2.19576e+07 2.2091e-05 -5.20955e+07 2.19363e-05 -2.05976e+07)
(-1.00509e+06 1.49164e+07 1.04384e-05 -4.31095e+07 4.72558e-05 -1.32344e+07)
(-1.14375e+07 1.45379e+07 2.35155e-05 -4.61377e+07 1.27269e-05 -1.72725e+07)
(250281 8.46586e+06 1.9499e-05 -3.94378e+07 1.62034e-05 -1.17563e+07)
(-7.03937e+06 8.65472e+06 2.47999e-05 -4.08968e+07 1.72834e-05 -1.43809e+07)
(1.68715e+06 3.35369e+06 2.14372e-05 -3.59459e+07 3.31015e-06 -1.02776e+07)
(-3.19786e+06 3.93729e+06 2.92134e-05 -3.62613e+07 -6.06423e-06 -1.18378e+07)
(3.24011e+06 -737148 4.14499e-05 -3.2662e+07 -4.10996e-06 -8.82656e+06)
(216678 115193 2.69716e-05 -3.21455e+07 -3.96401e-06 -9.57864e+06)
(4.86474e+06 -4.03608e+06 2.95637e-05 -2.96023e+07 6.06569e-06 -7.42128e+06)
(3.30279e+06 -3.00757e+06 -3.68962e-06 -2.84831e+07 -7.78791e-06 -7.55411e+06)
(6.52967e+06 -6.70947e+06 1.86349e-05 -2.67754e+07 2.67089e-06 -6.07372e+06)
(6.13563e+06 -5.57128e+06 -1.26101e-05 -2.52197e+07 1.32888e-05 -5.72521e+06)
(8.21087e+06 -8.87871e+06 5.20751e-06 -2.4182e+07 2.78634e-05 -4.79135e+06)
(8.77079e+06 -7.67529e+06 -1.70003e-05 -2.2305e+07 4.11273e-05 -4.06026e+06)
(9.88802e+06 -1.06344e+07 -1.09755e-05 -2.1814e+07 2.80589e-05 -3.57778e+06)
(1.12435e+07 -9.39356e+06 -9.85456e-06 -1.96936e+07 2.27288e-05 -2.53503e+06)
(1.15436e+07 -1.20461e+07 -1.37077e-05 -1.9656e+07 9.01681e-06 -2.43374e+06)
(1.35734e+07 -1.07838e+07 1.93822e-06 -1.73443e+07 1.68719e-06 -1.13127e+06)
(1.31632e+07 -1.31685e+07 -4.67041e-08 -1.76883e+07 6.73998e-06 -1.35753e+06)
(-1.48722e+07 2.17516e+07 1.34041e-05 -6.16239e+07 8.09528e-05 -2.29489e+07)
(-24025.4 1.3663e+07 7.07567e-06 -5.09561e+07 3.19456e-05 -1.5294e+07)
(-1.13967e+07 1.45248e+07 2.49867e-06 -5.35237e+07 2.99782e-06 -1.94761e+07)
(-178782 7.6708e+06 1.17461e-05 -4.5391e+07 -1.99806e-06 -1.36709e+07)
(-8.25409e+06 8.81966e+06 2.63411e-05 -4.66131e+07 7.18075e-07 -1.64602e+07)
(175581 2.94146e+06 1.92421e-05 -4.04205e+07 -6.0365e-06 -1.20735e+07)
(-5.37241e+06 4.26874e+06 2.74854e-05 -4.06579e+07 -1.16906e-06 -1.38091e+07)
(887340 -822824 -5.09075e-06 -3.59703e+07 -1.21708e-05 -1.05249e+07)
(-2.69749e+06 606844 1.77009e-05 -3.54834e+07 -3.99028e-06 -1.14543e+07)
(1.85496e+06 -3.83648e+06 -1.10455e-05 -3.19776e+07 -6.72685e-06 -9.03678e+06)
(-188018 -2.35889e+06 2.43795e-05 -3.09582e+07 1.29954e-05 -9.34385e+06)
(3.00868e+06 -6.25708e+06 1.35909e-05 -2.83894e+07 2.50188e-05 -7.61422e+06)
(2.18651e+06 -4.77031e+06 2.07366e-05 -2.69806e+07 2.55588e-05 -7.43822e+06)
(4.29268e+06 -8.20521e+06 1.4595e-05 -2.51619e+07 2.02637e-05 -6.26076e+06)
(4.4468e+06 -6.73377e+06 -6.30505e-07 -2.3467e+07 1.44914e-05 -5.70605e+06)
(5.66101e+06 -9.773e+06 1.29137e-05 -2.2255e+07 1.42389e-05 -4.97821e+06)
(6.60526e+06 -8.33012e+06 -6.14159e-06 -2.03467e+07 1.66485e-05 -4.12242e+06)
(7.07571e+06 -1.10302e+07 2.0433e-05 -1.96318e+07 2.47087e-05 -3.76682e+06)
(8.66805e+06 -9.62185e+06 5.79131e-06 -1.75607e+07 1.65938e-05 -2.66781e+06)
(8.50598e+06 -1.20296e+07 2.26515e-05 -1.72586e+07 2.18115e-05 -2.6258e+06)
(-1.26723e+07 1.9967e+07 -9.28711e-05 -7.02248e+07 2.04914e-06 -2.48691e+07)
(962704 1.11778e+07 -0.000184154 -5.78339e+07 -7.86745e-05 -1.70614e+07)
(-1.08278e+07 1.34791e+07 -5.11643e-05 -6.01746e+07 -3.97992e-05 -2.13007e+07)
(-429609 6.09265e+06 -7.33021e-05 -5.05567e+07 -6.14173e-05 -1.52959e+07)
(-8.9223e+06 8.3626e+06 -4.55365e-06 -5.17319e+07 -2.15408e-05 -1.81962e+07)
(-1.05805e+06 2.07911e+06 -1.89619e-05 -4.42496e+07 -2.48962e-05 -1.35923e+07)
(-6.98767e+06 4.29259e+06 -1.86349e-05 -4.45457e+07 -1.64398e-05 -1.546e+07)
(-1.12663e+06 -1.10084e+06 -1.56459e-05 -3.87356e+07 2.36673e-05 -1.19587e+07)
(-5.04419e+06 1.03503e+06 -2.42628e-05 -3.83694e+07 1.89881e-05 -1.30241e+07)
(-748891 -3.61692e+06 -6.77209e-07 -3.38781e+07 5.31055e-05 -1.03881e+07)
(-3.1055e+06 -1.58519e+06 4.69376e-06 -3.30347e+07 3.03e-05 -1.08421e+07)
(-35553.1 -5.61683e+06 2.8256e-06 -2.95852e+07 3.38656e-05 -8.88623e+06)
(-1.1814e+06 -3.70295e+06 9.08395e-06 -2.84026e+07 2.20414e-05 -8.87521e+06)
(920866 -7.21601e+06 5.04404e-06 -2.57794e+07 1.71586e-05 -7.45757e+06)
(719069 -5.42108e+06 2.24413e-05 -2.43549e+07 1.50409e-05 -7.09076e+06)
(2.04699e+06 -8.5011e+06 1.19562e-05 -2.23914e+07 1.38317e-05 -6.10334e+06)
(2.58688e+06 -6.81725e+06 2.43795e-05 -2.07916e+07 2.11197e-05 -5.46143e+06)
(3.28342e+06 -9.53526e+06 1.18628e-05 -1.93604e+07 2.43131e-05 -4.82308e+06)
(4.41341e+06 -7.94952e+06 2.31886e-05 -1.76292e+07 3.0936e-05 -3.96473e+06)
(4.57867e+06 -1.0361e+07 9.66775e-06 -1.66363e+07 2.69147e-05 -3.61729e+06)
(-1.03262e+07 1.66985e+07 -0.000180231 -7.73069e+07 -5.20211e-05 -2.62899e+07)
(1.65482e+06 7.66951e+06 -2.79057e-05 -6.33302e+07 5.88457e-05 -1.85026e+07)
(-9.9692e+06 1.14405e+07 -6.47085e-05 -6.57499e+07 -4.93896e-06 -2.27157e+07)
(-710620 3.81131e+06 2.9517e-05 -5.46759e+07 7.77448e-05 -1.6616e+07)
(-9.19156e+06 7.2728e+06 -2.56873e-06 -5.60308e+07 1.71054e-06 -1.95667e+07)
(-2.26103e+06 759258 1.63464e-05 -4.72717e+07 5.49153e-05 -1.48598e+07)
(-8.1188e+06 3.97748e+06 -2.96571e-06 -4.77292e+07 5.30383e-05 -1.67544e+07)
(-2.94723e+06 -1.56436e+06 -1.90086e-05 -4.08272e+07 5.79393e-05 -1.31323e+07)
(-6.83863e+06 1.36787e+06 -9.34082e-06 -4.06719e+07 5.43548e-05 -1.42532e+07)
(-2.99283e+06 -3.36062e+06 -1.81212e-05 -3.52267e+07 1.07222e-05 -1.14659e+07)
(-5.41033e+06 -716054 -7.12237e-06 -3.46545e+07 1.86196e-05 -1.20194e+07)
(-2.57967e+06 -4.77294e+06 -1.55758e-05 -3.03501e+07 6.89396e-06 -9.87892e+06)
(-3.88049e+06 -2.39622e+06 -4.43689e-06 -2.94908e+07 2.08034e-05 -1.00114e+07)
(-1.83671e+06 -5.9003e+06 -6.79545e-06 -2.60825e+07 6.02118e-06 -8.37577e+06)
(-2.28706e+06 -3.76295e+06 -1.61129e-06 -2.50251e+07 3.79909e-06 -8.19364e+06)
(-855600 -6.81468e+06 -7.42595e-06 -2.23209e+07 -5.3385e-06 -6.95295e+06)
(-660776 -4.88242e+06 9.80786e-07 -2.11267e+07 1.33293e-05 -6.53625e+06)
(294615 -7.5703e+06 -7.00561e-07 -1.89725e+07 1.5956e-05 -5.60336e+06)
(974281 -5.8008e+06 2.61543e-06 -1.76805e+07 2.59992e-05 -5.01188e+06)
(1.55081e+06 -8.20225e+06 -1.1209e-06 -1.5957e+07 1.90815e-05 -4.32186e+06)
(-8.18987e+06 1.21251e+07 0.000116924 -8.24698e+07 0.000121209 -2.71979e+07)
(1.86964e+06 3.38316e+06 0.000166523 -6.72426e+07 0.000105029 -1.96119e+07)
(-9.10846e+06 8.40575e+06 8.26662e-05 -7.01125e+07 0.00010904 -2.37663e+07)
(-1.98012e+06 712277 7.08034e-05 -5.76826e+07 8.80274e-05 -1.78988e+07)
(-9.26555e+06 5.54592e+06 2.77656e-05 -5.90767e+07 9.7578e-05 -2.05027e+07)
(-3.87429e+06 -906576 1.04384e-05 -4.92453e+07 9.01809e-05 -1.59359e+07)
(-8.89533e+06 3.35968e+06 -1.62764e-05 -4.9888e+07 4.79753e-05 -1.7635e+07)
(-4.71784e+06 -2.07229e+06 -1.74206e-05 -4.20555e+07 2.334e-05 -1.4032e+07)
(-8.13271e+06 1.64419e+06 -2.7065e-05 -4.22154e+07 -1.20154e-06 -1.51044e+07)
(-4.88384e+06 -2.96573e+06 -2.11336e-05 -3.59254e+07 -1.90053e-05 -1.22428e+07)
(-7.08638e+06 270424 -1.82613e-05 -3.5743e+07 -1.10223e-05 -1.28488e+07)
(-4.57574e+06 -3.66839e+06 -1.1209e-05 -3.06649e+07 -6.54952e-06 -1.05722e+07)
(-5.84094e+06 -847413 -9.85456e-06 -3.02329e+07 1.80194e-06 -1.08222e+07)
(-3.92007e+06 -4.23178e+06 -7.91634e-06 -2.61172e+07 -2.02871e-06 -9.01118e+06)
(-4.46154e+06 -1.77198e+06 -9.31747e-06 -2.55062e+07 -4.99716e-06 -8.99031e+06)
(-2.99761e+06 -4.69921e+06 -4.27342e-06 -2.21507e+07 -1.38178e-06 -7.54449e+06)
(-2.99954e+06 -2.55239e+06 -3.33934e-06 -2.14211e+07 3.32876e-06 -7.3262e+06)
(-1.85427e+06 -5.12041e+06 -3.47945e-06 -1.86388e+07 -6.39919e-06 -6.14792e+06)
(-1.49599e+06 -3.22461e+06 -3.08247e-06 -1.78444e+07 6.97807e-06 -5.80212e+06)
(-499420 -5.57542e+06 -3.29264e-06 -1.54129e+07 -4.86744e-06 -4.7737e+06)
(-6.96351e+06 5.88163e+06 0.00012421 -8.67699e+07 4.91312e-05 -2.812e+07)
(-3.78535e+06 -2.67154e+06 2.13671e-05 -7.02835e+07 8.69499e-06 -2.22207e+07)
(-8.7177e+06 4.47564e+06 6.55492e-05 -7.15883e+07 5.79591e-05 -2.40918e+07)
(-5.05279e+06 -2.3963e+06 1.14192e-05 -5.88967e+07 4.21577e-05 -1.91849e+07)
(-9.47894e+06 3.51836e+06 5.95477e-06 -6.01237e+07 7.24461e-05 -2.08808e+07)
(-5.86054e+06 -2.30417e+06 5.04404e-06 -4.97934e+07 1.8104e-05 -1.66962e+07)