/*--------------------------------*- C++ -*----------------------------------*\
| =========                 |                                                 |
| \\      /  F ield         | OpenFOAM: The Open Source CFD Toolbox           |
|  \\    /   O peration     | Version:  v2012                                 |
|   \\  /    A nd           | Website:  www.openfoam.com                      |
|    \\/     M anipulation  |                                                 |
\*---------------------------------------------------------------------------*/
FoamFile
{
    version     2.0;
    format      ascii;
    class       volScalarField;
    location    "17";
    object      sigmaHyd;
}
// * * * * * * * * * * * * * * * * * * * * * * * * * * * * * * * * * * * * * //

dimensions      [1 -1 -2 0 0 0 0];


internalField   nonuniform List<scalar> 
2000
(
-2.93845e+07
-1.28437e+07
815267
1.13825e+07
2.87856e+07
3.26762e+07
5.3637e+07
5.21003e+07
7.48679e+07
6.8991e+07
9.16925e+07
8.08269e+07
1.03001e+08
8.62671e+07
1.08049e+08
8.62185e+07
1.07306e+08
8.2793e+07
1.02205e+08
7.80004e+07
-2.86589e+07
-4.33354e+06
-3.63691e+06
2.4645e+07
1.85969e+07
4.95872e+07
3.75832e+07
6.97358e+07
5.33519e+07
8.1345e+07
6.65435e+07
8.34346e+07
7.68511e+07
7.93065e+07
8.37321e+07
7.29243e+07
8.7233e+07
6.6838e+07
8.81171e+07
6.23557e+07
-2.50683e+07
1.02252e+07
-7.01235e+06
4.11248e+07
8.50141e+06
6.47405e+07
2.14603e+07
7.54005e+07
3.32177e+07
7.3786e+07
4.3931e+07
6.70993e+07
5.30056e+07
6.03867e+07
6.00808e+07
5.51673e+07
6.51516e+07
5.15855e+07
6.79809e+07
4.90235e+07
-2.23624e+07
2.60762e+07
-1.05515e+07
5.21223e+07
-1.00501e+06
6.06107e+07
8.26116e+06
5.55695e+07
1.76657e+07
4.98458e+07
2.64057e+07
4.6405e+07
3.3844e+07
4.41161e+07
3.99484e+07
4.23218e+07
4.45936e+07
4.05699e+07
4.8007e+07
3.86036e+07
-1.94209e+07
3.41179e+07
-1.32169e+07
3.64988e+07
-6.938e+06
2.73147e+07
1.14673e+06
2.6365e+07
8.35457e+06
2.87943e+07
1.41195e+07
3.12756e+07
1.91394e+07
3.27831e+07
2.34603e+07
3.27953e+07
2.69816e+07
3.18315e+07
3.05345e+07
3.08052e+07
-1.49551e+07
1.57063e+07
-6.35385e+06
1.35971e+07
155342
1.64063e+07
4.54803e+06
1.88457e+07
8.5519e+06
2.10476e+07
1.19655e+07
2.26863e+07
1.47123e+07
2.38805e+07
1.72815e+07
2.5096e+07
1.93531e+07
2.52329e+07
2.13566e+07
2.55365e+07
875658
8.6606e+06
2.1121e+06
1.09869e+07
2.94956e+06
1.3202e+07
5.0421e+06
1.51256e+07
7.5544e+06
1.67338e+07
1.02756e+07
1.80171e+07
1.2975e+07
1.90545e+07
1.53645e+07
1.9862e+07
1.7588e+07
2.06243e+07
1.95587e+07
2.1438e+07
1.64324e+06
6.80822e+06
1.67227e+06
8.29717e+06
2.64146e+06
9.89154e+06
4.32873e+06
1.14311e+07
6.426e+06
1.28489e+07
8.74429e+06
1.41207e+07
1.11178e+07
1.5251e+07
1.34671e+07
1.628e+07
1.57002e+07
1.72566e+07
1.77902e+07
1.82382e+07
-1.56953e+06
3.74988e+06
-594299
4.87969e+06
861304
6.26424e+06
2.67457e+06
7.72353e+06
4.71902e+06
9.17513e+06
6.89263e+06
1.05811e+07
9.11334e+06
1.19272e+07
1.13129e+07
1.32007e+07
1.3435e+07
1.43758e+07
1.54257e+07
1.54076e+07
-6.49771e+06
-90337
-4.23224e+06
1.06111e+06
-2.04564e+06
2.47509e+06
156049
4.01955e+06
2.3764e+06
5.63803e+06
4.58852e+06
7.31579e+06
6.75521e+06
9.06216e+06
8.84021e+06
1.08933e+07
1.08092e+07
1.27944e+07
1.26092e+07
1.45902e+07
-1.17472e+07
-4.25925e+06
-8.45244e+06
-2.99753e+06
-5.53053e+06
-1.56791e+06
-2.79466e+06
-60444.3
-156579
1.46973e+06
2.43262e+06
2.99283e+06
5.01251e+06
4.50161e+06
7.63904e+06
6.02518e+06
1.043e+07
7.69366e+06
1.36987e+07
9.97897e+06
-1.67811e+07
-8.30399e+06
-1.29128e+07
-6.8235e+06
-9.53178e+06
-5.2313e+06
-6.48117e+06
-3.58236e+06
-3.66798e+06
-1.9132e+06
-1.03852e+06
-243001
1.43396e+06
1.42326e+06
3.74585e+06
3.08631e+06
5.82062e+06
4.71067e+06
7.33257e+06
6.02531e+06
-2.14944e+07
-1.21633e+07
-1.72455e+07
-1.04562e+07
-1.354e+07
-8.67954e+06
-1.02496e+07
-6.8762e+06
-7.28763e+06
-5.07805e+06
-4.59982e+06
-3.30887e+06
-2.15834e+06
-1.59149e+06
43080.9
41046.9
2.00792e+06
1.5382e+06
3.84831e+06
2.89726e+06
-2.58381e+07
-1.57853e+07
-2.12921e+07
-1.38611e+07
-1.73316e+07
-1.19025e+07
-1.3839e+07
-9.95126e+06
-1.07273e+07
-8.03824e+06
-7.93375e+06
-6.18764e+06
-5.41248e+06
-4.42039e+06
-3.12345e+06
-2.7536e+06
-1.02123e+06
-1.19285e+06
922596
263257
-2.9752e+07
-1.91163e+07
-2.49492e+07
-1.69813e+07
-2.07724e+07
-1.48455e+07
-1.7099e+07
-1.27495e+07
-1.38358e+07
-1.07196e+07
-1.09115e+07
-8.77316e+06
-8.26975e+06
-6.92084e+06
-5.86482e+06
-5.16791e+06
-3.6617e+06
-3.5154e+06
-1.63406e+06
-1.96087e+06
-3.31483e+07
-2.20914e+07
-2.81322e+07
-1.97469e+07
-2.37758e+07
-1.74394e+07
-1.99465e+07
-1.52026e+07
-1.6545e+07
-1.30531e+07
-1.34967e+07
-1.09983e+07
-1.07441e+07
-9.04332e+06
-8.24207e+06
-7.19074e+06
-5.95461e+06
-5.44097e+06
-3.8535e+06
-3.79282e+06
-3.59221e+07
-2.46442e+07
-3.07677e+07
-2.20941e+07
-2.62835e+07
-1.96333e+07
-2.23311e+07
-1.72737e+07
-1.88126e+07
-1.5005e+07
-1.56608e+07
-1.28357e+07
-1.28197e+07
-1.0772e+07
-1.02422e+07
-8.81593e+06
-7.88873e+06
-6.96667e+06
-5.72683e+06
-5.22497e+06
-3.79743e+07
-2.6726e+07
-3.28116e+07
-2.40008e+07
-2.8263e+07
-2.14642e+07
-2.42008e+07
-1.89689e+07
-2.05879e+07
-1.65618e+07
-1.73614e+07
-1.42696e+07
-1.44609e+07
-1.20983e+07
-1.18353e+07
-1.00431e+07
-9.44124e+06
-8.09374e+06
-7.23938e+06
-6.24269e+06
-3.92858e+07
-2.83283e+07
-3.43291e+07
-2.58539e+07
-2.9615e+07
-2.30185e+07
-2.54728e+07
-2.02685e+07
-2.18175e+07
-1.7684e+07
-1.85594e+07
-1.5271e+07
-1.5632e+07
-1.30161e+07
-1.2986e+07
-1.08976e+07
-1.05823e+07
-8.88033e+06
-8.38084e+06
-6.89535e+06
-4.06178e+07
-3.20965e+07
-3.47993e+07
-2.77115e+07
-3.01611e+07
-2.41167e+07
-2.61189e+07
-2.10115e+07
-2.25132e+07
-1.82534e+07
-1.92674e+07
-1.5768e+07
-1.63291e+07
-1.35149e+07
-1.36595e+07
-1.14736e+07
-1.12358e+07
-9.63855e+06
-9.06728e+06
-8.02214e+06
-6.2021e+06
-1.91007e+06
-7.09618e+06
-847502
-7.20445e+06
710834
-6.93118e+06
2.67689e+06
-6.32972e+06
5.00195e+06
-5.40619e+06
7.63104e+06
-4.14705e+06
1.04961e+07
-2.50913e+06
1.35116e+07
-378909
1.65678e+07
2.58481e+06
1.95122e+07
-1.87885e+06
1.3903e+06
-2.35223e+06
2.23782e+06
-2.55845e+06
3.52276e+06
-2.51202e+06
5.17614e+06
-2.23645e+06
7.16079e+06
-1.74093e+06
9.44043e+06
-1.02279e+06
1.19709e+07
-62623.8
1.46948e+07
1.19529e+06
1.75333e+07
2.91649e+06
2.03644e+07
1.84271e+06
4.13661e+06
1.52223e+06
4.84708e+06
1.32645e+06
5.90724e+06
1.29278e+06
7.28375e+06
1.41966e+06
8.9544e+06
1.70188e+06
1.08976e+07
2.13771e+06
1.30866e+07
2.734e+06
1.54847e+07
3.51755e+06
1.80394e+07
4.57352e+06
2.06691e+07
4.9872e+06
6.48797e+06
4.73509e+06
7.08754e+06
4.57281e+06
7.9634e+06
4.52457e+06
9.10425e+06
4.59424e+06
1.04999e+07
4.77949e+06
1.21395e+07
5.07741e+06
1.40089e+07
5.48849e+06
1.60863e+07
6.02338e+06
1.83384e+07
6.72306e+06
2.07108e+07
7.63307e+06
8.52599e+06
7.42407e+06
9.03002e+06
7.29509e+06
9.75431e+06
7.25609e+06
1.06978e+07
7.31034e+06
1.18581e+07
7.457e+06
1.32317e+07
7.69354e+06
1.4813e+07
8.01816e+06
1.65912e+07
8.4337e+06
1.85468e+07
8.95837e+06
2.06456e+07
9.86392e+06
1.03051e+07
9.6889e+06
1.07267e+07
9.58742e+06
1.13254e+07
9.56255e+06
1.21042e+07
9.61647e+06
1.30649e+07
9.74943e+06
1.42088e+07
9.96014e+06
1.55357e+07
1.02469e+07
1.70424e+07
1.06099e+07
1.87197e+07
1.10567e+07
2.05483e+07
1.17539e+07
1.18681e+07
1.16071e+07
1.22191e+07
1.15263e+07
1.27129e+07
1.15126e+07
1.33535e+07
1.15679e+07
1.41449e+07
1.16938e+07
1.5091e+07
1.18907e+07
1.61953e+07
1.21581e+07
1.74593e+07
1.24962e+07
1.88811e+07
1.29086e+07
2.04521e+07
1.33652e+07
1.32514e+07
1.32413e+07
1.35425e+07
1.31745e+07
1.39475e+07
1.31661e+07
1.44709e+07
1.32188e+07
1.51176e+07
1.33352e+07
1.58929e+07
1.35175e+07
1.68025e+07
1.37672e+07
1.78508e+07
1.40857e+07
1.90404e+07
1.44754e+07
2.03701e+07
1.47497e+07
1.44878e+07
1.46435e+07
1.47275e+07
1.45846e+07
1.50566e+07
1.45752e+07
1.54792e+07
1.46188e+07
1.60007e+07
1.47193e+07
1.66272e+07
1.48806e+07
1.73655e+07
1.51061e+07
1.82217e+07
1.53985e+07
1.92012e+07
1.57609e+07
2.03072e+07
1.59508e+07
1.56067e+07
1.58576e+07
1.58022e+07
1.58012e+07
1.60651e+07
1.57847e+07
1.63996e+07
1.58125e+07
1.68112e+07
1.58897e+07
1.73064e+07
1.60216e+07
1.78926e+07
1.62131e+07
1.85768e+07
1.64685e+07
1.93659e+07
1.67915e+07
2.02652e+07
1.70055e+07
1.66357e+07
1.69211e+07
1.67925e+07
1.68626e+07
1.69968e+07
1.68336e+07
1.72527e+07
1.68395e+07
1.7566e+07
1.68863e+07
1.79435e+07
1.69804e+07
1.83929e+07
1.71279e+07
1.89217e+07
1.73344e+07
1.95373e+07
1.76043e+07
2.02462e+07
1.7946e+07
1.76006e+07
1.7867e+07
1.7723e+07
1.78023e+07
1.78743e+07
1.77562e+07
1.80588e+07
1.77347e+07
1.82823e+07
1.77448e+07
1.85522e+07
1.77937e+07
1.88764e+07
1.78884e+07
1.9263e+07
1.80352e+07
1.97194e+07
1.82396e+07
2.02526e+07
1.88008e+07
1.85267e+07
1.87242e+07
1.86178e+07
1.86498e+07
1.87201e+07
1.85825e+07
1.88379e+07
1.85291e+07
1.89776e+07
1.84971e+07
1.91469e+07
1.84945e+07
1.93544e+07
1.85291e+07
1.96086e+07
1.86076e+07
1.99173e+07
1.8736e+07
2.02873e+07
1.95959e+07
1.94389e+07
1.95191e+07
1.95009e+07
1.94317e+07
1.95568e+07
1.93393e+07
1.96109e+07
1.92497e+07
1.96701e+07
1.9171e+07
1.97427e+07
1.91119e+07
1.98385e+07
1.90805e+07
1.99667e+07
1.9084e+07
2.01359e+07
1.91289e+07
2.0353e+07
2.03556e+07
2.03631e+07
2.02759e+07
2.03975e+07
2.01718e+07
2.04085e+07
2.00504e+07
2.04001e+07
1.99203e+07
2.03792e+07
1.97907e+07
2.03559e+07
1.96707e+07
2.03412e+07
1.95687e+07
2.03461e+07
1.94924e+07
2.03801e+07
1.94483e+07
2.04508e+07
2.11037e+07
2.13267e+07
2.10176e+07
2.13353e+07
2.08921e+07
2.1302e+07
2.07364e+07
2.12297e+07
2.0561e+07
2.11265e+07
2.03763e+07
2.10041e+07
2.01915e+07
2.08762e+07
2.00152e+07
2.07555e+07
1.98551e+07
2.06537e+07
1.97184e+07
2.05799e+07
2.18662e+07
2.23595e+07
2.17671e+07
2.23457e+07
2.16122e+07
2.2268e+07
2.14148e+07
2.21275e+07
2.11886e+07
2.19352e+07
2.09443e+07
2.17071e+07
2.06906e+07
2.14586e+07
2.04359e+07
2.12048e+07
2.01886e+07
2.09601e+07
1.99565e+07
2.0737e+07
2.26757e+07
2.34951e+07
2.25481e+07
2.3469e+07
2.23477e+07
2.33431e+07
2.20983e+07
2.31216e+07
2.18167e+07
2.28318e+07
2.15078e+07
2.24887e+07
2.11795e+07
2.21077e+07
2.0841e+07
2.17061e+07
2.05018e+07
2.13023e+07
2.01705e+07
2.09152e+07
2.35851e+07
2.47797e+07
2.3381e+07
2.47664e+07
2.30993e+07
2.45476e+07
2.28007e+07
2.42409e+07
2.2459e+07
2.38489e+07
2.20767e+07
2.33803e+07
2.16639e+07
2.28499e+07
2.12325e+07
2.22772e+07
2.07939e+07
2.16844e+07
2.03576e+07
2.10991e+07
2.47126e+07
2.64146e+07
2.41978e+07
2.61503e+07
2.39004e+07
2.58934e+07
2.35474e+07
2.55238e+07
2.31295e+07
2.5032e+07
2.26564e+07
2.44275e+07
2.21417e+07
2.37264e+07
2.16008e+07
2.29486e+07
2.10502e+07
2.21149e+07
2.05032e+07
2.12344e+07
6.19586e+06
1.54388e+07
9.38655e+06
1.73728e+07
1.20662e+07
1.91389e+07
1.44276e+07
2.08414e+07
1.65825e+07
2.2518e+07
1.86016e+07
2.41806e+07
2.05322e+07
2.5831e+07
2.24075e+07
2.74676e+07
2.42509e+07
2.90889e+07
2.6079e+07
3.06959e+07
2.79032e+07
3.22934e+07
2.97312e+07
3.389e+07
3.1568e+07
3.54987e+07
3.34173e+07
3.7136e+07
3.52814e+07
3.88208e+07
3.7162e+07
4.0573e+07
3.90597e+07
4.24106e+07
4.09707e+07
4.43434e+07
4.2878e+07
4.63556e+07
4.47183e+07
4.82488e+07
1.12326e+07
1.61309e+07
1.25782e+07
1.7823e+07
1.41525e+07
1.94786e+07
1.58129e+07
2.10944e+07
1.75017e+07
2.26793e+07
1.91966e+07
2.42422e+07
2.08909e+07
2.57903e+07
2.25848e+07
2.73293e+07
2.42812e+07
2.88641e+07
2.59833e+07
3.04e+07
2.76939e+07
3.19433e+07
2.94147e+07
3.35019e+07
3.11462e+07
3.50852e+07
3.28881e+07
3.67042e+07
3.46392e+07
3.83712e+07
3.63982e+07
4.00995e+07
3.81651e+07
4.19041e+07
3.9945e+07
4.38037e+07
4.17596e+07
4.58326e+07
4.35616e+07
4.75952e+07
1.3062e+07
1.71023e+07
1.42897e+07
1.85249e+07
1.56019e+07
1.99612e+07
1.69815e+07
2.13978e+07
1.84089e+07
2.28299e+07
1.98697e+07
2.42571e+07
2.1355e+07
2.56815e+07
2.28593e+07
2.7106e+07
2.43798e+07
2.85343e+07
2.59147e+07
2.99706e+07
2.7463e+07
3.14196e+07
2.90233e+07
3.28867e+07
3.05943e+07
3.43777e+07
3.21739e+07
3.58991e+07
3.376e+07
3.74578e+07
3.535e+07
3.90606e+07
3.69406e+07
4.07145e+07
3.85255e+07
4.24251e+07
4.00887e+07
4.41918e+07
4.10371e+07
4.58887e+07
1.42674e+07
1.79603e+07
1.54359e+07
1.91875e+07
1.66301e+07
2.04343e+07
1.78555e+07
2.16944e+07
1.91113e+07
2.29638e+07
2.03939e+07
2.42405e+07
2.16998e+07
2.55239e+07
2.30254e+07
2.6815e+07
2.4368e+07
2.81154e+07
2.5725e+07
2.94272e+07
2.70942e+07
3.07533e+07
2.84733e+07
3.20966e+07
2.986e+07
3.34604e+07
3.12518e+07
3.48482e+07
3.26457e+07
3.6263e+07
3.40388e+07
3.77075e+07
3.54272e+07
3.91831e+07
3.6807e+07
4.06888e+07
3.81762e+07
4.22201e+07
3.96011e+07
4.38272e+07
1.52883e+07
1.86503e+07
1.63494e+07
1.97201e+07
1.74232e+07
2.08071e+07
1.85133e+07
2.19092e+07
1.96215e+07
2.30243e+07
2.07475e+07
2.41509e+07
2.18905e+07
2.52884e+07
2.30486e+07
2.64365e+07
2.42201e+07
2.75956e+07
2.54029e+07
2.87667e+07
2.65949e+07
2.99507e+07
2.77942e+07
3.11489e+07
2.89984e+07
3.23628e+07
3.02055e+07
3.35937e+07
3.14134e+07
3.48429e+07
3.26201e+07
3.61113e+07
3.38246e+07
3.74e+07
3.50274e+07
3.87106e+07
3.6232e+07
4.00469e+07
3.74137e+07
4.14088e+07
1.61921e+07
1.91801e+07
1.71213e+07
2.01111e+07
1.80613e+07
2.10564e+07
1.90131e+07
2.20152e+07
1.99773e+07
2.29864e+07
2.09537e+07
2.39693e+07
2.19419e+07
2.4963e+07
2.29408e+07
2.59671e+07
2.39491e+07
2.69814e+07
2.49651e+07
2.80059e+07
2.59874e+07
2.90407e+07
2.7014e+07
3.00861e+07
2.80432e+07
3.11422e+07
2.90732e+07
3.22095e+07
3.01023e+07
3.3288e+07
3.11288e+07
3.4378e+07
3.21513e+07
3.54798e+07
3.31679e+07
3.65932e+07
3.41751e+07
3.77175e+07
3.51708e+07
3.8852e+07
1.69786e+07
1.95706e+07
1.77705e+07
2.0374e+07
1.85731e+07
2.11891e+07
1.93859e+07
2.20154e+07
2.02084e+07
2.28521e+07
2.10401e+07
2.36985e+07
2.18802e+07
2.45541e+07
2.27276e+07
2.5418e+07
2.35811e+07
2.629e+07
2.44395e+07
2.71694e+07
2.53013e+07
2.80558e+07
2.61649e+07
2.89489e+07
2.70288e+07
2.98483e+07
2.78913e+07
3.07535e+07
2.87507e+07
3.16641e+07
2.96054e+07
3.25795e+07
3.04536e+07
3.34989e+07
3.12934e+07
3.44212e+07
3.21231e+07
3.53453e+07
3.29411e+07
3.62695e+07
1.76421e+07
1.9846e+07
1.83016e+07
2.05304e+07
1.89712e+07
2.12242e+07
1.96498e+07
2.19267e+07
2.03365e+07
2.26372e+07
2.10302e+07
2.3355e+07
2.17301e+07
2.40794e+07
2.24349e+07
2.48097e+07
2.31434e+07
2.55451e+07
2.38544e+07
2.62849e+07
2.45666e+07
2.70283e+07
2.52783e+07
2.77747e+07
2.59883e+07
2.85233e+07
2.66949e+07
2.92731e+07
2.73966e+07
3.00233e+07
2.80918e+07
3.07728e+07
2.87789e+07
3.15204e+07
2.94564e+07
3.22647e+07
3.01227e+07
3.30042e+07
3.07764e+07
3.37369e+07
1.81844e+07
2.00306e+07
1.87209e+07
2.06039e+07
1.92663e+07
2.11844e+07
1.98195e+07
2.17711e+07
2.03792e+07
2.23635e+07
2.09443e+07
2.29606e+07
2.15137e+07
2.35617e+07
2.20863e+07
2.4166e+07
2.26606e+07
2.47725e+07
2.32356e+07
2.53805e+07
2.38099e+07
2.59889e+07
2.43821e+07
2.65969e+07
2.49507e+07
2.72034e+07
2.55145e+07
2.78074e+07
2.60719e+07
2.84078e+07
2.66215e+07
2.90032e+07
2.71618e+07
2.95923e+07
2.76914e+07
3.01735e+07
2.8209e+07
3.07453e+07
2.87131e+07
3.13057e+07
1.86148e+07
2.01477e+07
1.90395e+07
2.06177e+07
1.94717e+07
2.10926e+07
1.991e+07
2.15715e+07
2.03534e+07
2.20537e+07
2.08007e+07
2.25383e+07
2.12507e+07
2.30244e+07
2.17023e+07
2.35111e+07
2.21543e+07
2.39974e+07
2.26053e+07
2.44824e+07
2.30542e+07
2.49651e+07
2.34996e+07
2.54444e+07
2.39402e+07
2.59193e+07
2.43746e+07
2.63885e+07
2.48016e+07
2.68508e+07
2.52196e+07
2.73049e+07
2.56275e+07
2.77495e+07
2.60238e+07
2.8183e+07
2.64072e+07
2.86039e+07
2.67765e+07
2.90103e+07
1.89483e+07
2.02195e+07
1.92726e+07
2.05935e+07
1.96027e+07
2.09704e+07
1.99375e+07
2.13493e+07
2.02758e+07
2.17294e+07
2.06166e+07
2.21097e+07
2.09588e+07
2.24893e+07
2.13013e+07
2.28673e+07
2.16429e+07
2.32425e+07
2.19824e+07
2.36141e+07
2.23185e+07
2.39809e+07
2.26501e+07
2.43419e+07
2.29759e+07
2.46959e+07
2.32946e+07
2.50418e+07
2.36048e+07
2.53782e+07
2.39053e+07
2.5704e+07
2.41947e+07
2.60179e+07
2.44719e+07
2.63183e+07
2.47354e+07
2.66039e+07
2.49842e+07
2.68732e+07
1.92026e+07
2.02654e+07
1.94374e+07
2.05507e+07
1.96763e+07
2.0837e+07
1.99184e+07
2.11236e+07
2.01627e+07
2.14095e+07
2.04083e+07
2.16938e+07
2.06541e+07
2.19755e+07
2.08991e+07
2.22537e+07
2.11423e+07
2.25272e+07
2.13825e+07
2.27951e+07
2.16185e+07
2.30562e+07
2.18491e+07
2.33094e+07
2.20732e+07
2.35536e+07
2.22894e+07
2.37876e+07
2.24965e+07
2.40102e+07
2.26931e+07
2.42201e+07
2.28779e+07
2.44163e+07
2.30496e+07
2.45973e+07
2.3207e+07
2.4762e+07
2.33488e+07
2.4909e+07
1.93965e+07
2.03022e+07
1.95515e+07
2.05054e+07
1.97092e+07
2.07082e+07
1.98688e+07
2.09098e+07
2.00295e+07
2.11093e+07
2.01904e+07
2.13057e+07
2.03508e+07
2.14981e+07
2.05096e+07
2.16855e+07
2.06659e+07
2.18667e+07
2.08186e+07
2.20408e+07
2.09667e+07
2.22065e+07
2.1109e+07
2.23627e+07
2.12442e+07
2.25082e+07
2.13711e+07
2.26419e+07
2.14883e+07
2.27624e+07
2.15945e+07
2.28687e+07
2.16882e+07
2.29595e+07
2.17682e+07
2.30338e+07
2.18328e+07
2.30905e+07
2.18808e+07
2.31285e+07
1.9548e+07
2.03429e+07
1.96318e+07
2.04698e+07
1.97171e+07
2.05953e+07
1.98033e+07
2.07187e+07
1.98898e+07
2.0839e+07
1.99759e+07
2.09554e+07
2.00609e+07
2.10669e+07
2.01441e+07
2.11726e+07
2.02245e+07
2.12712e+07
2.03012e+07
2.13616e+07
2.03731e+07
2.14427e+07
2.04392e+07
2.15131e+07
2.04982e+07
2.15716e+07
2.05488e+07
2.16168e+07
2.05896e+07
2.16475e+07
2.06191e+07
2.16623e+07
2.06357e+07
2.16601e+07
2.06377e+07
2.16399e+07
2.06235e+07
2.16005e+07
2.05912e+07
2.15413e+07
1.96735e+07
2.03952e+07
1.96932e+07
2.04504e+07
1.97136e+07
2.05038e+07
1.97344e+07
2.05546e+07
1.97551e+07
2.06023e+07
1.97752e+07
2.06461e+07
1.97942e+07
2.06849e+07
1.98115e+07
2.07178e+07
1.98263e+07
2.07436e+07
1.98377e+07
2.07612e+07
1.98449e+07
2.07691e+07
1.98469e+07
2.07659e+07
1.98423e+07
2.07501e+07
1.98298e+07
2.07202e+07
1.9808e+07
2.06745e+07
1.97752e+07
2.06116e+07
1.97294e+07
2.05299e+07
1.96686e+07
2.04281e+07
1.95907e+07
2.03051e+07
1.94932e+07
2.01601e+07
1.97862e+07
2.04611e+07
1.97477e+07
2.04469e+07
1.97097e+07
2.04313e+07
1.9672e+07
2.04138e+07
1.96342e+07
2.0394e+07
1.95963e+07
2.03713e+07
1.95577e+07
2.03449e+07
1.9518e+07
2.03137e+07
1.94767e+07
2.02768e+07
1.94332e+07
2.02327e+07
1.93866e+07
2.018e+07
1.93362e+07
2.0117e+07
1.92806e+07
2.0042e+07
1.92187e+07
1.99528e+07
1.91489e+07
1.98474e+07
1.90693e+07
1.97237e+07
1.89777e+07
1.95794e+07
1.88717e+07
1.94124e+07
1.87483e+07
1.9221e+07
1.86042e+07
1.90039e+07
1.98955e+07
2.05346e+07
1.98039e+07
2.04503e+07
1.97129e+07
2.03658e+07
1.96226e+07
2.02813e+07
1.9533e+07
2.01967e+07
1.94439e+07
2.01118e+07
1.93553e+07
2.0026e+07
1.92668e+07
1.99384e+07
1.91784e+07
1.98481e+07
1.90895e+07
1.97538e+07
1.89997e+07
1.9654e+07
1.89084e+07
1.95469e+07
1.88146e+07
1.94303e+07
1.87172e+07
1.93018e+07
1.86149e+07
1.91585e+07
1.85057e+07
1.89972e+07
1.83873e+07
1.88145e+07
1.82569e+07
1.86067e+07
1.8111e+07
1.83701e+07
1.7945e+07
1.81015e+07
2.00051e+07
2.06022e+07
1.98648e+07
2.04412e+07
1.97261e+07
2.02828e+07
1.9589e+07
2.01285e+07
1.94535e+07
1.99782e+07
1.93196e+07
1.98318e+07
1.91877e+07
1.96889e+07
1.90578e+07
1.95493e+07
1.89303e+07
1.94125e+07
1.88052e+07
1.92777e+07
1.86824e+07
1.91437e+07
1.85616e+07
1.9009e+07
1.84423e+07
1.88714e+07
1.83238e+07
1.8728e+07
1.82051e+07
1.85754e+07
1.80847e+07
1.84094e+07
1.79607e+07
1.82246e+07
1.78304e+07
1.8015e+07
1.76905e+07
1.77734e+07
1.7536e+07
1.74917e+07
2.01085e+07
2.0642e+07
1.99267e+07
2.03879e+07
1.97476e+07
2.01481e+07
1.95693e+07
1.99165e+07
1.93927e+07
1.96925e+07
1.92192e+07
1.9477e+07
1.90499e+07
1.92712e+07
1.88857e+07
1.90761e+07
1.87274e+07
1.88926e+07
1.85753e+07
1.87212e+07
1.84299e+07
1.85616e+07
1.82912e+07
1.84132e+07
1.81594e+07
1.82748e+07
1.80342e+07
1.81439e+07
1.79152e+07
1.80172e+07
1.78019e+07
1.789e+07
1.76933e+07
1.7756e+07
1.75883e+07
1.76068e+07
1.74851e+07
1.74313e+07
1.73815e+07
1.7214e+07
2.01848e+07
2.06158e+07
1.99845e+07
2.02837e+07
1.97679e+07
1.9944e+07
1.95493e+07
1.96084e+07
1.93345e+07
1.92834e+07
1.91264e+07
1.89735e+07
1.89267e+07
1.86823e+07
1.87367e+07
1.84127e+07
1.85574e+07
1.81677e+07
1.83898e+07
1.79496e+07
1.82344e+07
1.77608e+07
1.80917e+07
1.76028e+07
1.7962e+07
1.74767e+07
1.78454e+07
1.73828e+07
1.77419e+07
1.73199e+07
1.76512e+07
1.72855e+07
1.75734e+07
1.72747e+07
1.75087e+07
1.72796e+07
1.74583e+07
1.72889e+07
1.74261e+07
1.72879e+07
9.74561e+07
7.43664e+07
9.2072e+07
7.04592e+07
8.54419e+07
6.7275e+07
7.92519e+07
6.29725e+07
7.35471e+07
5.88543e+07
6.82278e+07
5.50516e+07
6.32066e+07
5.13869e+07
5.84266e+07
4.77627e+07
5.3844e+07
4.41611e+07
4.94169e+07
4.05518e+07
4.51061e+07
3.69102e+07
4.0875e+07
3.32134e+07
3.66878e+07
2.94381e+07
3.2509e+07
2.55591e+07
2.8302e+07
2.15475e+07
2.40277e+07
1.73683e+07
1.96433e+07
1.29776e+07
1.51003e+07
8.31588e+06
1.03408e+07
3.29672e+06
5.2934e+06
-2.21563e+06
8.5842e+07
5.8788e+07
8.32316e+07
5.74703e+07
7.98948e+07
5.55376e+07
7.59243e+07
5.39933e+07
7.1906e+07
5.25162e+07
6.75887e+07
4.9919e+07
6.32469e+07
4.68444e+07
5.9033e+07
4.3942e+07
5.49159e+07
4.10241e+07
5.08948e+07
3.80514e+07
4.6961e+07
3.50144e+07
4.31016e+07
3.18991e+07
3.93019e+07
2.86881e+07
3.55478e+07
2.53612e+07
3.1827e+07
2.18958e+07
2.81315e+07
1.82678e+07
2.44601e+07
1.44535e+07
2.08253e+07
1.04335e+07
1.72636e+07
6.20425e+06
1.38584e+07
1.80146e+06
6.9386e+07
4.84399e+07
7.07633e+07
4.78695e+07
7.01674e+07
4.72954e+07
6.83557e+07
4.67722e+07
6.58767e+07
4.53455e+07
6.33328e+07
4.45409e+07
6.04099e+07
4.3434e+07
5.70928e+07
4.12526e+07
5.37965e+07
3.90174e+07
5.05756e+07
3.67529e+07
4.74188e+07
3.44463e+07
4.43177e+07
3.2082e+07
4.12663e+07
2.96431e+07
3.82611e+07
2.71127e+07
3.53001e+07
2.44737e+07
3.23834e+07
2.1709e+07
2.95117e+07
1.88012e+07
2.66845e+07
1.57318e+07
2.38923e+07
1.24778e+07
2.11005e+07
9.0012e+06
4.93762e+07
4.27033e+07
5.16004e+07
4.20809e+07
5.37421e+07
4.16168e+07
5.58265e+07
4.14976e+07
5.61813e+07
4.13326e+07
5.52922e+07
4.04484e+07
5.40982e+07
3.96385e+07
5.24671e+07
3.8776e+07
5.04083e+07
3.72818e+07
4.83364e+07
3.58346e+07
4.62504e+07
3.43883e+07
4.4157e+07
3.29125e+07
4.20663e+07
3.13864e+07
3.99897e+07
2.97945e+07
3.79389e+07
2.81246e+07
3.59256e+07
2.63661e+07
3.39621e+07
2.4508e+07
3.2061e+07
2.25382e+07
3.02371e+07
2.04412e+07
2.85131e+07
1.81983e+07
2.87738e+07
3.7398e+07
3.21168e+07
3.73907e+07
3.52783e+07
3.74322e+07
3.79853e+07
3.73922e+07
4.07412e+07
3.74664e+07
4.27292e+07
3.7336e+07
4.35958e+07
3.67009e+07
4.41253e+07
3.63884e+07
4.40017e+07
3.58579e+07
4.35568e+07
3.53063e+07
4.28872e+07
3.4725e+07
4.20626e+07
3.41069e+07
4.11362e+07
3.34472e+07
4.01507e+07
3.27428e+07
3.91422e+07
3.19926e+07
3.8143e+07
3.11973e+07
3.71841e+07
3.03584e+07
3.62975e+07
2.94787e+07
3.55178e+07
2.85624e+07
3.48853e+07
2.76143e+07
1.70045e+07
3.15628e+07
1.95649e+07
3.20874e+07
2.21995e+07
3.25325e+07
2.50705e+07
3.30636e+07
2.80201e+07
3.36657e+07
3.09658e+07
3.43057e+07
3.34108e+07
3.47293e+07
3.53354e+07
3.5061e+07
3.67198e+07
3.52597e+07
3.76839e+07
3.5377e+07
3.83224e+07
3.54422e+07
3.8714e+07
3.54722e+07
3.89251e+07
3.54783e+07
3.90131e+07
3.5469e+07
3.90284e+07
3.54527e+07
3.90171e+07
3.5439e+07
3.90228e+07
3.54393e+07
3.90884e+07
3.54682e+07
3.92579e+07
3.55446e+07
3.95785e+07
3.56939e+07
1.598e+07
2.72693e+07
1.76766e+07
2.83308e+07
1.95448e+07
2.93813e+07
2.15296e+07
3.04232e+07
2.36056e+07
3.1438e+07
2.57311e+07
3.23878e+07
2.78851e+07
3.32382e+07
2.9914e+07
3.39785e+07
3.17258e+07
3.46315e+07
3.32957e+07
3.5223e+07
3.46352e+07
3.57756e+07
3.57743e+07
3.63079e+07
3.67515e+07
3.68355e+07
3.76088e+07
3.73722e+07
3.83892e+07
3.79317e+07
3.91356e+07
3.85286e+07
3.98904e+07
3.91793e+07
4.06953e+07
3.9903e+07
4.15915e+07
4.07229e+07
4.2619e+07
4.16681e+07
1.47167e+07
2.39765e+07
1.62953e+07
2.52771e+07
1.79513e+07
2.65486e+07
1.96733e+07
2.7797e+07
2.14547e+07
2.90183e+07
2.32897e+07
3.02016e+07
2.51645e+07
3.13339e+07
2.70363e+07
3.2409e+07
2.88496e+07
3.34322e+07
3.05663e+07
3.4415e+07
3.21692e+07
3.53726e+07
3.36586e+07
3.63208e+07
3.50478e+07
3.72756e+07
3.63592e+07
3.82531e+07
3.7621e+07
3.92699e+07
3.88652e+07
4.03435e+07
4.0126e+07
4.14925e+07
4.14385e+07
4.27366e+07
4.28375e+07
4.40948e+07
4.43546e+07
4.55847e+07
1.25769e+07
2.0353e+07
1.42466e+07
2.18974e+07
1.59657e+07
2.34044e+07
1.77175e+07
2.48822e+07
1.94963e+07
2.6332e+07
2.12998e+07
2.7752e+07
2.31244e+07
2.91387e+07
2.49566e+07
3.04904e+07
2.67745e+07
3.18096e+07
2.85566e+07
3.31032e+07
3.02885e+07
3.43815e+07
3.19647e+07
3.56576e+07
3.35891e+07
3.69461e+07
3.51735e+07
3.82636e+07
3.6736e+07
3.96282e+07
3.82992e+07
4.10598e+07
3.98893e+07
4.25802e+07
4.15352e+07
4.42127e+07
4.3269e+07
4.5978e+07
4.51246e+07
4.78773e+07
1.0227e+07
1.54511e+07
1.20954e+07
1.7598e+07
1.39506e+07
1.95959e+07
1.57908e+07
2.14787e+07
1.76239e+07
2.32725e+07
1.94582e+07
2.49966e+07
2.12984e+07
2.66656e+07
2.31435e+07
2.82899e+07
2.49867e+07
2.98783e+07
2.68187e+07
3.14392e+07
2.86321e+07
3.29822e+07
3.04233e+07
3.45185e+07
3.21947e+07
3.60619e+07
3.39537e+07
3.76287e+07
3.57126e+07
3.92378e+07
3.74873e+07
4.09117e+07
3.92959e+07
4.26776e+07
4.11582e+07
4.45727e+07
4.3099e+07
4.66604e+07
4.51641e+07
4.90832e+07
)
;

boundaryField
{
    back
    {
        type            empty;
    }
    front
    {
        type            empty;
    }
    left
    {
        type            zeroGradient;
    }
    hole
    {
        type            zeroGradient;
    }
    down
    {
        type            zeroGradient;
    }
    right
    {
        type            zeroGradient;
    }
    up
    {
        type            zeroGradient;
    }
}


// ************************************************************************* //
