/*--------------------------------*- C++ -*----------------------------------*\
| =========                 |                                                 |
| \\      /  F ield         | OpenFOAM: The Open Source CFD Toolbox           |
|  \\    /   O peration     | Version:  v2012                                 |
|   \\  /    A nd           | Website:  www.openfoam.com                      |
|    \\/     M anipulation  |                                                 |
\*---------------------------------------------------------------------------*/
FoamFile
{
    version     2.0;
    format      ascii;
    class       volScalarField;
    location    "17";
    object      sigmaEq;
}
// * * * * * * * * * * * * * * * * * * * * * * * * * * * * * * * * * * * * * //

dimensions      [1 -1 -2 0 0 0 0];


internalField   nonuniform List<scalar> 
2000
(
1.33512e+08
9.01976e+07
8.95945e+07
5.95679e+07
6.73264e+07
5.24672e+07
6.25406e+07
6.005e+07
6.65483e+07
7.09558e+07
7.27039e+07
8.10636e+07
7.9269e+07
8.97308e+07
8.66097e+07
9.72027e+07
9.47614e+07
1.03917e+08
1.02932e+08
1.10264e+08
1.21314e+08
7.96843e+07
8.56924e+07
5.27215e+07
7.17748e+07
5.1511e+07
7.14775e+07
6.31235e+07
7.53362e+07
7.57747e+07
7.85516e+07
8.54402e+07
8.12624e+07
9.22441e+07
8.53232e+07
9.7675e+07
9.13406e+07
1.02818e+08
9.84611e+07
1.08015e+08
1.0626e+08
6.45562e+07
7.98932e+07
4.42284e+07
7.44237e+07
5.29829e+07
7.71345e+07
6.83751e+07
7.92337e+07
7.86453e+07
7.96869e+07
8.5052e+07
8.06713e+07
9.01885e+07
8.34002e+07
9.49134e+07
8.76517e+07
9.9386e+07
9.27164e+07
1.03663e+08
8.5019e+07
4.31386e+07
7.00021e+07
4.05119e+07
7.10773e+07
5.88153e+07
7.3355e+07
6.8777e+07
7.44921e+07
7.56772e+07
7.62271e+07
8.20219e+07
7.86889e+07
8.73831e+07
8.15725e+07
9.17543e+07
8.46689e+07
9.53499e+07
8.79909e+07
9.85278e+07
5.81017e+07
2.59827e+07
5.37026e+07
5.04349e+07
5.84553e+07
6.08035e+07
6.46023e+07
6.72947e+07
7.02365e+07
7.63831e+07
7.48239e+07
8.25181e+07
7.82513e+07
8.63165e+07
8.08175e+07
8.92354e+07
8.29089e+07
9.16027e+07
8.50986e+07
9.38094e+07
2.88285e+07
2.90493e+07
4.35418e+07
3.05651e+07
4.26011e+07
4.03684e+07
4.94172e+07
4.99844e+07
5.71334e+07
5.91004e+07
6.55464e+07
6.70028e+07
7.3359e+07
7.35921e+07
7.8948e+07
7.94088e+07
8.07771e+07
8.3193e+07
8.26265e+07
8.59666e+07
1.50736e+07
1.61566e+07
2.11846e+07
2.34893e+07
2.87708e+07
3.23039e+07
3.71863e+07
4.11773e+07
4.57118e+07
4.93859e+07
5.36816e+07
5.65312e+07
6.06003e+07
6.24908e+07
6.64783e+07
6.7196e+07
7.07902e+07
7.08083e+07
7.38851e+07
7.35318e+07
9.9853e+06
1.15871e+07
1.50981e+07
1.96072e+07
2.25196e+07
2.80623e+07
3.06658e+07
3.61603e+07
3.86229e+07
4.35299e+07
4.58974e+07
4.99624e+07
5.22154e+07
5.53585e+07
5.73934e+07
5.97184e+07
6.14369e+07
6.31237e+07
6.44601e+07
6.57391e+07
4.34224e+06
8.76354e+06
1.2365e+07
1.80565e+07
2.02016e+07
2.62485e+07
2.77538e+07
3.35791e+07
3.47998e+07
4.00832e+07
4.11455e+07
4.57477e+07
4.66556e+07
5.0567e+07
5.12768e+07
5.45491e+07
5.50231e+07
5.77011e+07
5.79855e+07
6.00353e+07
8.31196e+06
1.1522e+07
1.31089e+07
1.8491e+07
1.99045e+07
2.55576e+07
2.64498e+07
3.19019e+07
3.24585e+07
3.74937e+07
3.78531e+07
4.23855e+07
4.26122e+07
4.66429e+07
4.6751e+07
5.03189e+07
5.03053e+07
5.33777e+07
5.33284e+07
5.54364e+07
1.73869e+07
1.78089e+07
1.69012e+07
2.04947e+07
2.06615e+07
2.52481e+07
2.53866e+07
3.00268e+07
2.99197e+07
3.42812e+07
3.39165e+07
3.78897e+07
3.72525e+07
4.08572e+07
3.98473e+07
4.3263e+07
4.1556e+07
4.53477e+07
4.19567e+07
4.79333e+07
2.65244e+07
2.50721e+07
2.25117e+07
2.42106e+07
2.29199e+07
2.63733e+07
2.54786e+07
2.95716e+07
2.86633e+07
3.28658e+07
3.18051e+07
3.59303e+07
3.46776e+07
3.871e+07
3.72789e+07
4.12805e+07
3.98323e+07
4.37761e+07
4.30965e+07
4.61725e+07
3.5236e+07
3.2331e+07
2.87351e+07
2.87611e+07
2.62742e+07
2.84302e+07
2.65251e+07
2.98644e+07
2.81956e+07
3.20368e+07
3.04484e+07
3.44201e+07
3.28876e+07
3.67935e+07
3.539e+07
3.90752e+07
3.79512e+07
4.12077e+07
4.0403e+07
4.31096e+07
4.33745e+07
3.92332e+07
3.49662e+07
3.3556e+07
3.0218e+07
3.10359e+07
2.8297e+07
3.0647e+07
2.82888e+07
3.14875e+07
2.93942e+07
3.2933e+07
3.10683e+07
3.46138e+07
3.29858e+07
3.63199e+07
3.49352e+07
3.79258e+07
3.67789e+07
3.936e+07
5.08123e+07
4.55513e+07
4.08623e+07
3.81811e+07
3.42983e+07
3.38064e+07
3.04743e+07
3.16698e+07
2.87454e+07
3.10537e+07
2.8465e+07
3.13587e+07
2.90698e+07
3.21508e+07
3.01386e+07
3.3147e+07
3.13911e+07
3.41763e+07
3.26552e+07
3.51413e+07
5.73826e+07
5.10837e+07
4.6179e+07
4.23403e+07
3.81751e+07
3.64249e+07
3.276e+07
3.27128e+07
2.94211e+07
3.0642e+07
2.76694e+07
2.97086e+07
2.70351e+07
2.9497e+07
2.71088e+07
2.9699e+07
2.75777e+07
3.01044e+07
2.82288e+07
3.05788e+07
6.28899e+07
5.56506e+07
5.07252e+07
4.58245e+07
4.16107e+07
3.8655e+07
3.49208e+07
3.35861e+07
3.01916e+07
3.01723e+07
2.70482e+07
2.80112e+07
2.51374e+07
2.67509e+07
2.41255e+07
2.61015e+07
2.37191e+07
2.58391e+07
2.3685e+07
2.57958e+07
6.71455e+07
5.91262e+07
5.43655e+07
4.84817e+07
4.44328e+07
4.02411e+07
3.67282e+07
3.40611e+07
3.08937e+07
2.95225e+07
2.65925e+07
2.627e+07
2.35305e+07
2.40107e+07
2.14495e+07
2.25028e+07
2.01157e+07
2.15476e+07
1.93162e+07
2.09768e+07
7.00568e+07
6.1544e+07
5.7045e+07
4.9709e+07
4.62597e+07
4.07337e+07
3.78468e+07
3.38522e+07
3.13166e+07
2.85602e+07
2.62583e+07
2.45058e+07
2.23704e+07
2.14324e+07
1.94293e+07
1.91488e+07
1.72602e+07
1.75141e+07
1.57038e+07
1.64376e+07
7.23327e+07
5.96436e+07
5.72939e+07
4.85303e+07
4.64175e+07
3.98421e+07
3.80265e+07
3.29235e+07
3.13996e+07
2.73768e+07
2.61147e+07
2.29173e+07
2.18875e+07
1.93317e+07
1.85173e+07
1.64637e+07
1.58653e+07
1.42162e+07
1.3853e+07
1.25817e+07
1.37118e+07
8.66919e+06
1.60943e+07
1.07653e+07
2.0928e+07
1.47487e+07
2.63905e+07
1.92428e+07
3.19179e+07
2.37592e+07
3.72771e+07
2.81263e+07
4.2339e+07
3.22813e+07
4.69941e+07
3.62037e+07
5.10796e+07
3.98814e+07
5.4195e+07
4.32566e+07
9.76556e+06
6.76737e+06
1.35151e+07
9.95238e+06
1.89637e+07
1.45309e+07
2.48071e+07
1.93426e+07
3.06177e+07
2.40342e+07
3.62229e+07
2.84757e+07
4.15259e+07
3.26095e+07
4.64431e+07
3.64034e+07
5.08517e+07
3.98176e+07
5.44726e+07
4.27525e+07
8.0596e+06
6.47376e+06
1.2194e+07
1.00037e+07
1.76714e+07
1.4652e+07
2.34575e+07
1.94635e+07
2.92066e+07
2.41409e+07
3.47758e+07
2.85652e+07
4.00882e+07
3.26806e+07
4.50844e+07
3.64561e+07
4.96854e+07
3.98613e+07
5.3721e+07
4.28288e+07
7.78463e+06
7.10754e+06
1.16732e+07
1.04765e+07
1.68445e+07
1.49181e+07
2.23491e+07
1.9566e+07
2.78603e+07
2.41241e+07
3.32399e+07
2.8467e+07
3.84177e+07
3.25345e+07
4.33488e+07
3.62963e+07
4.79851e+07
3.97306e+07
5.22292e+07
4.27984e+07
8.40355e+06
8.24168e+06
1.17245e+07
1.12258e+07
1.64005e+07
1.53101e+07
2.15006e+07
1.96915e+07
2.66761e+07
2.40551e+07
3.1777e+07
2.82608e+07
3.67302e+07
3.22401e+07
4.14966e+07
3.59601e+07
4.60463e+07
3.94043e+07
5.03288e+07
4.25532e+07
9.54543e+06
9.66536e+06
1.22298e+07
1.22066e+07
1.63144e+07
1.5854e+07
2.09346e+07
1.98961e+07
2.57125e+07
2.40035e+07
3.04776e+07
2.80194e+07
3.51469e+07
3.18646e+07
3.96797e+07
3.5501e+07
4.4055e+07
3.8913e+07
4.82495e+07
4.20929e+07
1.09867e+07
1.12651e+07
1.30983e+07
1.33843e+07
1.65684e+07
1.65674e+07
2.06658e+07
2.02223e+07
2.50044e+07
2.40238e+07
2.93935e+07
2.78018e+07
3.37369e+07
3.14666e+07
3.79877e+07
3.49732e+07
4.21256e+07
3.83033e+07
4.61407e+07
4.14536e+07
1.25943e+07
1.29627e+07
1.42392e+07
1.47118e+07
1.71273e+07
1.7442e+07
2.06904e+07
2.06879e+07
2.45653e+07
2.41484e+07
2.85508e+07
2.76491e+07
3.25383e+07
3.10919e+07
3.64722e+07
3.44242e+07
4.03282e+07
3.76232e+07
4.40998e+07
4.06847e+07
1.42806e+07
1.46952e+07
1.55624e+07
1.61326e+07
1.79346e+07
1.84463e+07
2.09812e+07
2.12849e+07
2.4387e+07
2.43865e+07
2.7954e+07
2.75821e+07
3.15662e+07
3.07691e+07
3.51596e+07
3.38893e+07
3.87036e+07
3.69138e+07
4.21889e+07
3.98349e+07
1.59802e+07
1.64079e+07
1.69848e+07
1.75878e+07
1.89194e+07
1.95327e+07
2.14902e+07
2.19844e+07
2.44402e+07
2.47255e+07
2.75878e+07
2.76012e+07
3.08163e+07
3.05095e+07
3.4056e+07
3.33884e+07
3.72699e+07
3.62041e+07
4.04433e+07
3.89435e+07
1.76393e+07
1.80524e+07
1.84334e+07
1.90209e+07
2.00068e+07
2.06467e+07
2.21551e+07
2.27431e+07
2.46783e+07
2.5136e+07
2.74188e+07
2.76895e+07
3.02663e+07
3.03072e+07
3.31494e+07
3.2926e+07
3.60259e+07
3.55084e+07
3.88756e+07
3.80361e+07
1.92109e+07
1.95841e+07
1.98446e+07
2.03787e+07
2.11237e+07
2.1732e+07
2.29068e+07
2.35099e+07
2.50421e+07
2.55763e+07
2.73991e+07
2.78161e+07
2.98787e+07
3.01417e+07
3.24117e+07
3.24918e+07
3.49536e+07
3.48265e+07
3.74791e+07
3.71237e+07
2.06512e+07
2.09605e+07
2.11619e+07
2.16112e+07
2.22025e+07
2.27329e+07
2.36747e+07
2.42297e+07
2.54655e+07
2.5997e+07
2.74704e+07
2.794e+07
2.96039e+07
2.99815e+07
3.18021e+07
3.20636e+07
3.40204e+07
3.41464e+07
3.62308e+07
3.62047e+07
2.19177e+07
2.21392e+07
2.2333e+07
2.26698e+07
2.31798e+07
2.35946e+07
2.43896e+07
2.48458e+07
2.58798e+07
2.63444e+07
2.75683e+07
2.80136e+07
2.9384e+07
2.97868e+07
3.12699e+07
3.1611e+07
3.31837e+07
3.34471e+07
3.50959e+07
3.52681e+07
2.29669e+07
2.30757e+07
2.33067e+07
2.35042e+07
2.39944e+07
2.42611e+07
2.49836e+07
2.52997e+07
2.62146e+07
2.65615e+07
2.76249e+07
2.7985e+07
2.91563e+07
2.95134e+07
3.07592e+07
3.10987e+07
3.23946e+07
3.2703e+07
3.40334e+07
3.42989e+07
2.3752e+07
2.3721e+07
2.40292e+07
2.40597e+07
2.45838e+07
2.46721e+07
2.53871e+07
2.55292e+07
2.63984e+07
2.65884e+07
2.75707e+07
2.78002e+07
2.88566e+07
2.91155e+07
3.0213e+07
3.04907e+07
3.16043e+07
3.18897e+07
3.30029e+07
3.32848e+07
2.42218e+07
2.40185e+07
2.44397e+07
2.42714e+07
2.48776e+07
2.47586e+07
2.55246e+07
2.54672e+07
2.63563e+07
2.63642e+07
2.7336e+07
2.74061e+07
2.84227e+07
2.85499e+07
2.95782e+07
2.97562e+07
3.07703e+07
3.09906e+07
3.19733e+07
3.22257e+07
2.43215e+07
2.38998e+07
2.44641e+07
2.4055e+07
2.4789e+07
2.44394e+07
2.531e+07
2.50473e+07
2.60124e+07
2.58319e+07
2.68546e+07
2.67554e+07
2.77992e+07
2.77823e+07
2.8813e+07
2.88777e+07
2.98667e+07
3.00083e+07
3.09354e+07
3.11464e+07
2.39996e+07
2.3265e+07
2.39965e+07
2.32877e+07
2.41971e+07
2.36563e+07
2.46612e+07
2.42214e+07
2.5299e+07
2.49494e+07
2.60702e+07
2.58176e+07
2.69459e+07
2.68004e+07
2.78987e+07
2.78679e+07
2.89006e+07
2.89862e+07
2.99245e+07
3.01211e+07
2.32242e+07
2.17924e+07
2.27809e+07
2.20273e+07
2.30544e+07
2.24182e+07
2.35309e+07
2.29791e+07
2.41674e+07
2.37103e+07
2.49482e+07
2.46039e+07
2.58551e+07
2.56445e+07
2.68646e+07
2.68085e+07
2.79477e+07
2.80616e+07
2.90678e+07
2.93314e+07
5.79886e+07
5.23302e+07
5.98344e+07
5.52942e+07
6.15085e+07
5.7815e+07
6.31347e+07
6.00919e+07
6.47551e+07
6.22208e+07
6.63771e+07
6.42501e+07
6.79943e+07
6.62051e+07
6.95968e+07
6.81004e+07
7.11766e+07
6.9948e+07
7.27318e+07
7.17625e+07
7.42695e+07
7.35649e+07
7.58078e+07
7.53854e+07
7.73774e+07
7.72637e+07
7.90217e+07
7.92498e+07
8.07964e+07
8.14022e+07
8.2768e+07
8.37854e+07
8.50104e+07
8.64652e+07
8.75994e+07
8.94974e+07
9.06031e+07
9.28994e+07
9.4061e+07
9.58878e+07
5.27443e+07
4.9863e+07
5.52616e+07
5.23061e+07
5.74719e+07
5.46318e+07
5.94691e+07
5.68286e+07
6.13205e+07
5.89151e+07
6.30726e+07
6.0916e+07
6.47574e+07
6.28548e+07
6.63987e+07
6.47529e+07
6.80165e+07
6.66314e+07
6.96304e+07
6.85123e+07
7.12621e+07
7.04203e+07
7.29373e+07
7.23836e+07
7.46869e+07
7.44347e+07
7.65468e+07
7.66102e+07
7.85578e+07
7.89504e+07
8.07652e+07
8.14993e+07
8.3217e+07
8.43044e+07
8.5963e+07
8.74217e+07
8.90535e+07
9.09341e+07
9.2622e+07
9.19771e+07
5.12539e+07
4.86788e+07
5.32378e+07
5.06649e+07
5.51536e+07
5.26451e+07
5.69846e+07
5.45938e+07
5.87383e+07
5.65038e+07
6.04301e+07
5.83792e+07
6.20782e+07
6.02301e+07
6.37009e+07
6.20703e+07
6.53171e+07
6.39157e+07
6.6946e+07
6.57843e+07
6.86083e+07
6.76959e+07
7.03263e+07
6.96723e+07
7.21242e+07
7.17371e+07
7.40283e+07
7.39157e+07
7.60664e+07
7.62348e+07
7.82681e+07
7.87219e+07
8.0664e+07
8.14047e+07
8.32862e+07
8.43083e+07
8.61693e+07
8.74452e+07
8.97132e+07
9.06036e+07
5.02213e+07
4.76756e+07
5.18751e+07
4.94116e+07
5.35207e+07
5.11544e+07
5.51428e+07
5.28946e+07
5.67371e+07
5.46278e+07
5.83065e+07
5.63547e+07
5.9859e+07
5.80804e+07
6.14055e+07
5.98129e+07
6.29587e+07
6.15628e+07
6.4533e+07
6.33428e+07
6.61438e+07
6.51667e+07
6.78079e+07
6.70499e+07
6.95428e+07
6.90087e+07
7.13673e+07
7.10599e+07
7.33002e+07
7.32208e+07
7.53611e+07
7.5508e+07
7.75685e+07
7.79363e+07
7.99394e+07
8.05171e+07
8.24851e+07
8.32563e+07
8.51767e+07
8.62584e+07
4.90934e+07
4.66395e+07
5.0575e+07
4.82275e+07
5.20505e+07
4.98143e+07
5.35156e+07
5.13995e+07
5.49689e+07
5.29832e+07
5.64121e+07
5.45676e+07
5.78497e+07
5.61565e+07
5.92885e+07
5.77558e+07
6.07371e+07
5.93727e+07
6.22053e+07
6.10158e+07
6.37042e+07
6.26949e+07
6.52456e+07
6.44206e+07
6.68422e+07
6.62042e+07
6.85071e+07
6.80575e+07
7.02539e+07
6.99926e+07
7.20964e+07
7.20221e+07
7.40484e+07
7.4159e+07
7.61234e+07
7.64181e+07
7.8336e+07
7.88195e+07
8.07243e+07
8.13767e+07
4.77981e+07
4.55306e+07
4.91794e+07
4.70128e+07
5.05452e+07
4.84836e+07
5.18965e+07
4.99455e+07
5.32348e+07
5.1401e+07
5.45629e+07
5.28529e+07
5.58845e+07
5.43051e+07
5.72048e+07
5.57622e+07
5.85298e+07
5.72296e+07
5.98668e+07
5.87137e+07
6.12238e+07
6.02213e+07
6.26095e+07
6.17603e+07
6.40333e+07
6.33388e+07
6.55053e+07
6.49658e+07
6.7036e+07
6.66506e+07
6.86366e+07
6.84032e+07
7.03189e+07
7.02341e+07
7.20958e+07
7.21545e+07
7.39818e+07
7.41746e+07
7.59903e+07
7.63058e+07
4.63678e+07
4.43566e+07
4.76757e+07
4.57477e+07
4.89583e+07
4.71184e+07
5.02182e+07
4.84718e+07
5.14582e+07
4.98106e+07
5.26814e+07
5.11378e+07
5.38914e+07
5.24569e+07
5.50925e+07
5.37715e+07
5.62893e+07
5.5086e+07
5.74875e+07
5.64051e+07
5.86932e+07
5.77339e+07
5.99131e+07
5.90783e+07
6.11545e+07
6.04445e+07
6.24254e+07
6.18392e+07
6.37344e+07
6.32696e+07
6.50908e+07
6.47435e+07
6.65043e+07
6.62689e+07
6.79855e+07
6.78541e+07
6.95453e+07
6.95079e+07
7.11953e+07
7.12393e+07
4.48604e+07
4.31431e+07
4.61004e+07
4.44451e+07
4.73075e+07
4.572e+07
4.84843e+07
4.69701e+07
4.96336e+07
4.81977e+07
5.07583e+07
4.94053e+07
5.18615e+07
5.05957e+07
5.29467e+07
5.17718e+07
5.40178e+07
5.29367e+07
5.50791e+07
5.4094e+07
5.61355e+07
5.52476e+07
5.71921e+07
5.64018e+07
5.82548e+07
5.75611e+07
5.93301e+07
5.87307e+07
6.04249e+07
5.99162e+07
6.15468e+07
6.11236e+07
6.27042e+07
6.23593e+07
6.3906e+07
6.36303e+07
6.51617e+07
6.4944e+07
6.6482e+07
6.63086e+07
4.33341e+07
4.19197e+07
4.45024e+07
4.31296e+07
4.56327e+07
4.43075e+07
4.67271e+07
4.54551e+07
4.77878e+07
4.65739e+07
4.8817e+07
4.76656e+07
4.98174e+07
4.87322e+07
5.07916e+07
4.97755e+07
5.17425e+07
5.0798e+07
5.26735e+07
5.18019e+07
5.35883e+07
5.279e+07
5.4491e+07
5.37652e+07
5.5386e+07
5.47309e+07
5.62786e+07
5.56909e+07
5.71743e+07
5.66493e+07
5.80796e+07
5.76108e+07
5.90014e+07
5.85807e+07
5.99476e+07
5.95649e+07
6.09269e+07
6.057e+07
6.19488e+07
6.16032e+07
4.18371e+07
4.07113e+07
4.29261e+07
4.18242e+07
4.39746e+07
4.29025e+07
4.49839e+07
4.39469e+07
4.59555e+07
4.49583e+07
4.68909e+07
4.59375e+07
4.77918e+07
4.68855e+07
4.86601e+07
4.78036e+07
4.94979e+07
4.86928e+07
5.03076e+07
4.95545e+07
5.10917e+07
5.03905e+07
5.18532e+07
5.12024e+07
5.25955e+07
5.19923e+07
5.33225e+07
5.27627e+07
5.40385e+07
5.35166e+07
5.47489e+07
5.42573e+07
5.54593e+07
5.49891e+07
5.61765e+07
5.57167e+07
5.69083e+07
5.64459e+07
5.76634e+07
5.71834e+07
4.04015e+07
3.95333e+07
4.14033e+07
4.05447e+07
4.23644e+07
4.15209e+07
4.32854e+07
4.24618e+07
4.41668e+07
4.33675e+07
4.50095e+07
4.42381e+07
4.58145e+07
4.5074e+07
4.65828e+07
4.58752e+07
4.73155e+07
4.66421e+07
4.80141e+07
4.73751e+07
4.86801e+07
4.80747e+07
4.93154e+07
4.87414e+07
4.99221e+07
4.93761e+07
5.05029e+07
4.99799e+07
5.10608e+07
5.05545e+07
5.15998e+07
5.11018e+07
5.21243e+07
5.16248e+07
5.26398e+07
5.21269e+07
5.31531e+07
5.2613e+07
5.36718e+07
5.30888e+07
3.90419e+07
3.83891e+07
3.99501e+07
3.92963e+07
4.08194e+07
4.01694e+07
4.16496e+07
4.10078e+07
4.24407e+07
4.1811e+07
4.31929e+07
4.25784e+07
4.39064e+07
4.33096e+07
4.45813e+07
4.40041e+07
4.52182e+07
4.46613e+07
4.58173e+07
4.52805e+07
4.63793e+07
4.58612e+07
4.69047e+07
4.64029e+07
4.73946e+07
4.69049e+07
4.78501e+07
4.73671e+07
4.82729e+07
4.77893e+07
4.86652e+07
4.81721e+07
4.903e+07
4.85166e+07
4.93714e+07
4.88248e+07
4.96944e+07
4.91e+07
5.00057e+07
4.93466e+07
3.77567e+07
3.7272e+07
3.85676e+07
3.80749e+07
3.9343e+07
3.88465e+07
4.00822e+07
3.95856e+07
4.07848e+07
4.02913e+07
4.14502e+07
4.09626e+07
4.20781e+07
4.15985e+07
4.2668e+07
4.21978e+07
4.32196e+07
4.27593e+07
4.37323e+07
4.32813e+07
4.42057e+07
4.37624e+07
4.46392e+07
4.42007e+07
4.50324e+07
4.45943e+07
4.5385e+07
4.49413e+07
4.56969e+07
4.52398e+07
4.59686e+07
4.54885e+07
4.62011e+07
4.56862e+07
4.63962e+07
4.58327e+07
4.65572e+07
4.59291e+07
4.66887e+07
4.59777e+07
3.65316e+07
3.61677e+07
3.72453e+07
3.68699e+07
3.79281e+07
3.75446e+07
3.8579e+07
3.81905e+07
3.91972e+07
3.88064e+07
3.9782e+07
3.9391e+07
4.03324e+07
3.99429e+07
4.08474e+07
4.04605e+07
4.1326e+07
4.09418e+07
4.1767e+07
4.13847e+07
4.21687e+07
4.17865e+07
4.25297e+07
4.21445e+07
4.2848e+07
4.24553e+07
4.31217e+07
4.27152e+07
4.33489e+07
4.29205e+07
4.35277e+07
4.30671e+07
4.36566e+07
4.31515e+07
4.37349e+07
4.31702e+07
4.37628e+07
4.31211e+07
4.37423e+07
4.30033e+07
3.53456e+07
3.50605e+07
3.59665e+07
3.56701e+07
3.65621e+07
3.62568e+07
3.71312e+07
3.68193e+07
3.76728e+07
3.73563e+07
3.81859e+07
3.78664e+07
3.86694e+07
3.83478e+07
3.91218e+07
3.87988e+07
3.95416e+07
3.9217e+07
3.99269e+07
3.95998e+07
4.02755e+07
3.99438e+07
4.05847e+07
4.02453e+07
4.08512e+07
4.04996e+07
4.10716e+07
4.07016e+07
4.12417e+07
4.08452e+07
4.13573e+07
4.09239e+07
4.14139e+07
4.09307e+07
4.14073e+07
4.08584e+07
4.13338e+07
4.07002e+07
4.11912e+07
4.04503e+07
3.41783e+07
3.39406e+07
3.47166e+07
3.44717e+07
3.52356e+07
3.49849e+07
3.57342e+07
3.54789e+07
3.62111e+07
3.59524e+07
3.66653e+07
3.64036e+07
3.70954e+07
3.6831e+07
3.74998e+07
3.72325e+07
3.78766e+07
3.76058e+07
3.82237e+07
3.79479e+07
3.85382e+07
3.82553e+07
3.88167e+07
3.85236e+07
3.9055e+07
3.87473e+07
3.9248e+07
3.89199e+07
3.93898e+07
3.90336e+07
3.94736e+07
3.90793e+07
3.94916e+07
3.90465e+07
3.94356e+07
3.89235e+07
3.92968e+07
3.86978e+07
3.90671e+07
3.83567e+07
3.30201e+07
3.28147e+07
3.34936e+07
3.329e+07
3.39541e+07
3.37525e+07
3.44e+07
3.42005e+07
3.483e+07
3.4632e+07
3.52427e+07
3.50453e+07
3.56366e+07
3.54385e+07
3.60099e+07
3.58099e+07
3.63609e+07
3.61573e+07
3.66872e+07
3.64778e+07
3.6986e+07
3.67681e+07
3.72535e+07
3.70238e+07
3.7485e+07
3.72393e+07
3.76748e+07
3.74076e+07
3.78154e+07
3.75198e+07
3.78981e+07
3.7565e+07
3.79123e+07
3.75302e+07
3.78454e+07
3.73996e+07
3.76833e+07
3.71547e+07
3.74103e+07
3.67743e+07
3.18858e+07
3.17202e+07
3.23241e+07
3.21771e+07
3.2755e+07
3.26251e+07
3.31762e+07
3.30602e+07
3.35851e+07
3.348e+07
3.39797e+07
3.38827e+07
3.43587e+07
3.42668e+07
3.47204e+07
3.46306e+07
3.50634e+07
3.49723e+07
3.53855e+07
3.52896e+07
3.56842e+07
3.55793e+07
3.59562e+07
3.58379e+07
3.61969e+07
3.60602e+07
3.64006e+07
3.624e+07
3.65601e+07
3.6369e+07
3.66658e+07
3.64368e+07
3.67058e+07
3.64298e+07
3.66654e+07
3.6331e+07
3.65262e+07
3.61184e+07
3.62656e+07
3.57646e+07
3.08349e+07
3.07517e+07
3.12883e+07
3.12542e+07
3.17373e+07
3.17389e+07
3.2174e+07
3.22057e+07
3.25963e+07
3.26544e+07
3.30032e+07
3.3084e+07
3.33938e+07
3.34927e+07
3.37671e+07
3.38786e+07
3.41215e+07
3.42394e+07
3.4455e+07
3.45725e+07
3.47655e+07
3.48752e+07
3.505e+07
3.51444e+07
3.53051e+07
3.53762e+07
3.55264e+07
3.55664e+07
3.5708e+07
3.57092e+07
3.58426e+07
3.57978e+07
3.59204e+07
3.58228e+07
3.59286e+07
3.57722e+07
3.58504e+07
3.56298e+07
3.56633e+07
3.5373e+07
3.00109e+07
3.01392e+07
3.05769e+07
3.07385e+07
3.10991e+07
3.13164e+07
3.1597e+07
3.18759e+07
3.2076e+07
3.24154e+07
3.25365e+07
3.29311e+07
3.29767e+07
3.34188e+07
3.33941e+07
3.3874e+07
3.37858e+07
3.42921e+07
3.4149e+07
3.46688e+07
3.44807e+07
3.49998e+07
3.47783e+07
3.52812e+07
3.50388e+07
3.55094e+07
3.52595e+07
3.56813e+07
3.54376e+07
3.57945e+07
3.55699e+07
3.58474e+07
3.56529e+07
3.58397e+07
3.56825e+07
3.57728e+07
3.56537e+07
3.56521e+07
3.55611e+07
3.5491e+07
1.111e+08
1.11174e+08
1.08372e+08
1.03005e+08
1.00863e+08
9.5244e+07
9.42989e+07
8.96095e+07
8.87841e+07
8.46796e+07
8.39736e+07
8.00572e+07
7.96196e+07
7.57216e+07
7.55894e+07
7.163e+07
7.17888e+07
6.76768e+07
6.8125e+07
6.37745e+07
6.4511e+07
5.98369e+07
6.08642e+07
5.57764e+07
5.71033e+07
5.15026e+07
5.31471e+07
4.6921e+07
4.89139e+07
4.19336e+07
4.43243e+07
3.64428e+07
3.93081e+07
3.03709e+07
3.38296e+07
2.37369e+07
2.79635e+07
1.70157e+07
2.21578e+07
1.29029e+07
1.06064e+08
1.09455e+08
1.09767e+08
1.12426e+08
1.13075e+08
1.09469e+08
1.09067e+08
1.04503e+08
1.04565e+08
9.80619e+07
9.97293e+07
9.27057e+07
9.49641e+07
8.8181e+07
9.04317e+07
8.36353e+07
8.604e+07
7.91821e+07
8.17383e+07
7.47546e+07
7.74611e+07
7.02667e+07
7.31328e+07
6.56323e+07
6.86691e+07
6.07651e+07
6.39773e+07
5.55788e+07
5.89546e+07
4.99902e+07
5.34854e+07
4.39274e+07
4.74369e+07
3.73559e+07
4.06539e+07
3.03504e+07
3.29509e+07
2.33249e+07
2.41063e+07
1.77717e+07
9.93651e+07
1.04475e+08
1.02541e+08
1.07134e+08
1.0584e+08
1.09815e+08
1.09094e+08
1.12523e+08
1.122e+08
1.09477e+08
1.11294e+08
1.04822e+08
1.07263e+08
9.87584e+07
1.02764e+08
9.44026e+07
9.83092e+07
9.02962e+07
9.38946e+07
8.61234e+07
8.94361e+07
8.18063e+07
8.48551e+07
7.72787e+07
8.0074e+07
7.24809e+07
7.50136e+07
6.73591e+07
6.95909e+07
6.18678e+07
6.37185e+07
5.59787e+07
5.73076e+07
4.97017e+07
5.02767e+07
4.31313e+07
4.25755e+07
3.65556e+07
3.42418e+07
3.07094e+07
9.32974e+07
9.8764e+07
9.57237e+07
1.01052e+08
9.8338e+07
1.03408e+08
1.01101e+08
1.05843e+08
1.04058e+08
1.08358e+08
1.07118e+08
1.07619e+08
1.10199e+08
1.04464e+08
1.08036e+08
1.00256e+08
1.04462e+08
9.72769e+07
1.00736e+08
9.39844e+07
9.67985e+07
9.03869e+07
9.26102e+07
8.64854e+07
8.81367e+07
8.22764e+07
8.33457e+07
7.77565e+07
7.8207e+07
7.29295e+07
7.26962e+07
6.78174e+07
6.68045e+07
6.24808e+07
6.0558e+07
5.70549e+07
5.40558e+07
5.18154e+07
4.75505e+07
4.72955e+07
8.95325e+07
9.37819e+07
9.1128e+07
9.56236e+07
9.29836e+07
9.75867e+07
9.50679e+07
9.96681e+07
9.73999e+07
1.01875e+08
9.99446e+07
1.03287e+08
1.02715e+08
1.02051e+08
1.05483e+08
1.00571e+08
1.03897e+08
9.89346e+07
1.01663e+08
9.68105e+07
9.89044e+07
9.42724e+07
9.57032e+07
9.13747e+07
9.21146e+07
8.81615e+07
8.81812e+07
8.46751e+07
8.39431e+07
8.09663e+07
7.94515e+07
7.71065e+07
7.47853e+07
7.32062e+07
7.00784e+07
6.94412e+07
6.55624e+07
6.60892e+07
6.16316e+07
6.35734e+07
8.67029e+07
8.81314e+07
8.79578e+07
9.00769e+07
8.9413e+07
9.16009e+07
9.1098e+07
9.2931e+07
9.29936e+07
9.41092e+07
9.50862e+07
9.51506e+07
9.7356e+07
9.57216e+07
9.9064e+07
9.58953e+07
9.8986e+07
9.55326e+07
9.81544e+07
9.46888e+07
9.67084e+07
9.34233e+07
9.47579e+07
9.17963e+07
9.23953e+07
8.98707e+07
8.97063e+07
8.77163e+07
8.67809e+07
8.54165e+07
8.37267e+07
8.30781e+07
8.06857e+07
8.0844e+07
7.78562e+07
7.89087e+07
7.55193e+07
7.75344e+07
7.40658e+07
7.70633e+07
7.77964e+07
7.60925e+07
8.03634e+07
7.85708e+07
8.26643e+07
8.08947e+07
8.47606e+07
8.30572e+07
8.6714e+07
8.50317e+07
8.85554e+07
8.67601e+07
9.01728e+07
8.81698e+07
9.14276e+07
8.9199e+07
9.21557e+07
8.98292e+07
9.23486e+07
9.00704e+07
9.20446e+07
8.99538e+07
9.13066e+07
8.95274e+07
9.02125e+07
8.88536e+07
8.88542e+07
8.80105e+07
8.73402e+07
8.70949e+07
8.58033e+07
8.62272e+07
8.44098e+07
8.55579e+07
8.33708e+07
8.52738e+07
8.29514e+07
8.56015e+07
8.34739e+07
8.68055e+07
6.81615e+07
6.83918e+07
7.08304e+07
7.0895e+07
7.33844e+07
7.32757e+07
7.5811e+07
7.55315e+07
7.81021e+07
7.76471e+07
8.02368e+07
7.95952e+07
8.21702e+07
8.13383e+07
8.38294e+07
8.28396e+07
8.51467e+07
8.40754e+07
8.60921e+07
8.50404e+07
8.66715e+07
8.57491e+07
8.69218e+07
8.6236e+07
8.69047e+07
8.65548e+07
8.67053e+07
8.67793e+07
8.64317e+07
8.70042e+07
8.62172e+07
8.73469e+07
8.62243e+07
8.79486e+07
8.66465e+07
8.89744e+07
8.77077e+07
9.06086e+07
8.96539e+07
9.30456e+07
6.13491e+07
6.26266e+07
6.39675e+07
6.515e+07
6.65165e+07
6.7495e+07
6.89674e+07
6.97104e+07
7.13038e+07
7.18135e+07
7.35094e+07
7.38029e+07
7.55611e+07
7.56662e+07
7.74254e+07
7.7386e+07
7.90679e+07
7.89477e+07
8.04675e+07
8.03458e+07
8.16247e+07
8.15893e+07
8.25639e+07
8.27039e+07
8.33344e+07
8.3734e+07
8.40092e+07
8.47442e+07
8.46849e+07
8.58192e+07
8.54823e+07
8.70646e+07
8.65456e+07
8.86067e+07
8.80417e+07
9.05903e+07
9.01561e+07
9.3173e+07
9.30836e+07
9.65069e+07
5.59913e+07
5.95167e+07
5.88656e+07
6.17728e+07
6.14978e+07
6.37803e+07
6.39371e+07
6.56861e+07
6.62212e+07
6.75426e+07
6.83732e+07
6.93627e+07
7.04016e+07
7.11425e+07
7.23034e+07
7.28719e+07
7.40691e+07
7.45418e+07
7.56928e+07
7.61488e+07
7.71793e+07
7.76996e+07
7.85501e+07
7.92143e+07
7.98455e+07
8.07282e+07
8.11262e+07
8.22931e+07
8.24735e+07
8.39778e+07
8.3988e+07
8.58679e+07
8.57891e+07
8.80648e+07
8.80123e+07
9.06882e+07
9.08106e+07
9.38896e+07
9.43671e+07
9.79123e+07
)
;

boundaryField
{
    back
    {
        type            empty;
    }
    front
    {
        type            empty;
    }
    left
    {
        type            calculated;
        value           nonuniform List<scalar> 
30
(
1.33512e+08
8.95945e+07
6.73264e+07
6.25406e+07
6.65483e+07
7.27039e+07
7.9269e+07
8.66097e+07
9.47614e+07
1.02932e+08
1.111e+08
1.08372e+08
1.00863e+08
9.42989e+07
8.87841e+07
8.39736e+07
7.96196e+07
7.55894e+07
7.17888e+07
6.8125e+07
6.4511e+07
6.08642e+07
5.71033e+07
5.31471e+07
4.89139e+07
4.43243e+07
3.93081e+07
3.38296e+07
2.79635e+07
2.21578e+07
)
;
    }
    hole
    {
        type            calculated;
        value           nonuniform List<scalar> 
20
(
1.33512e+08
1.21314e+08
1.0626e+08
8.5019e+07
5.81017e+07
2.88285e+07
1.50736e+07
9.9853e+06
4.34224e+06
8.31196e+06
1.73869e+07
2.65244e+07
3.5236e+07
4.33745e+07
5.08123e+07
5.73826e+07
6.28899e+07
6.71455e+07
7.00568e+07
7.23327e+07
)
;
    }
    down
    {
        type            calculated;
        value           nonuniform List<scalar> 
30
(
5.96436e+07
4.85303e+07
3.98421e+07
3.29235e+07
2.73768e+07
2.29173e+07
1.93317e+07
1.64637e+07
1.42162e+07
1.25817e+07
1.37118e+07
9.76556e+06
8.0596e+06
7.78463e+06
8.40355e+06
9.54543e+06
1.09867e+07
1.25943e+07
1.42806e+07
1.59802e+07
1.76393e+07
1.92109e+07
2.06512e+07
2.19177e+07
2.29669e+07
2.3752e+07
2.42218e+07
2.43215e+07
2.39996e+07
2.32242e+07
)
;
    }
    right
    {
        type            calculated;
        value           nonuniform List<scalar> 
30
(
2.17924e+07
2.20273e+07
2.24182e+07
2.29791e+07
2.37103e+07
2.46039e+07
2.56445e+07
2.68085e+07
2.80616e+07
2.93314e+07
3.01392e+07
3.07385e+07
3.13164e+07
3.18759e+07
3.24154e+07
3.29311e+07
3.34188e+07
3.3874e+07
3.42921e+07
3.46688e+07
3.49998e+07
3.52812e+07
3.55094e+07
3.56813e+07
3.57945e+07
3.58474e+07
3.58397e+07
3.57728e+07
3.56521e+07
3.5491e+07
)
;
    }
    up
    {
        type            calculated;
        value           nonuniform List<scalar> 
30
(
9.58878e+07
9.19771e+07
9.06036e+07
8.62584e+07
8.13767e+07
7.63058e+07
7.12393e+07
6.63086e+07
6.16032e+07
5.71834e+07
5.30888e+07
4.93466e+07
4.59777e+07
4.30033e+07
4.04503e+07
3.83567e+07
3.67743e+07
3.57646e+07
3.5373e+07
3.5491e+07
1.29029e+07
1.77717e+07
3.07094e+07
4.72955e+07
6.35734e+07
7.70633e+07
8.68055e+07
9.30456e+07
9.65069e+07
9.79123e+07
)
;
    }
}


// ************************************************************************* //
