/*--------------------------------*- C++ -*----------------------------------*\
| =========                 |                                                 |
| \\      /  F ield         | OpenFOAM: The Open Source CFD Toolbox           |
|  \\    /   O peration     | Version:  v2012                                 |
|   \\  /    A nd           | Website:  www.openfoam.com                      |
|    \\/     M anipulation  |                                                 |
\*---------------------------------------------------------------------------*/
FoamFile
{
    version     2.0;
    format      ascii;
    class       volScalarField;
    location    "12";
    object      epsilonEq;
}
// * * * * * * * * * * * * * * * * * * * * * * * * * * * * * * * * * * * * * //

dimensions      [0 0 0 0 0 0 0];


internalField   nonuniform List<scalar> 
1000
(
0.0126404
0.0118495
0.0108038
0.00947742
0.00802476
0.00661043
0.00529151
0.0042264
0.00335304
0.00276352
0.012134
0.0110359
0.00963154
0.00818679
0.0067638
0.00555255
0.00450255
0.00374814
0.00318246
0.00287534
0.0104888
0.00883046
0.00698385
0.00569788
0.00465101
0.00403499
0.0035978
0.00341004
0.00331004
0.00327541
0.00737627
0.00538481
0.00383218
0.00323064
0.00286794
0.00295202
0.00304175
0.00326494
0.00336091
0.00336926
0.00406653
0.00270807
0.00219056
0.00221764
0.0022582
0.0024918
0.00262678
0.00283974
0.00285959
0.00288676
0.00225361
0.00195647
0.00199924
0.00206116
0.00212249
0.00222348
0.00228358
0.00236369
0.00238728
0.00243576
0.0018588
0.00177763
0.00182568
0.00186657
0.00196083
0.00206641
0.00213665
0.00222234
0.00225768
0.00230237
0.00148851
0.00146037
0.00157849
0.00169951
0.00182557
0.00194441
0.00202336
0.00210486
0.00213589
0.00218564
0.00109042
0.00121691
0.00139758
0.00155835
0.00169891
0.00182289
0.00190828
0.00199154
0.0020342
0.00207697
0.000678089
0.000928856
0.0011989
0.00140062
0.00157654
0.00169859
0.00180662
0.00187206
0.00194143
0.00197085
0.00035158
0.000726067
0.00103583
0.00125715
0.00143631
0.00156357
0.00166868
0.00174114
0.00180507
0.00185622
0.000324767
0.000650853
0.00093973
0.00116699
0.00133279
0.00147191
0.00155639
0.00164599
0.00167465
0.00174292
0.000601917
0.000699332
0.000879044
0.00106796
0.00120222
0.00133166
0.00140107
0.00148927
0.00150763
0.00157599
0.000909079
0.000847862
0.000892922
0.00101779
0.00110113
0.0012128
0.00125649
0.00134072
0.00134594
0.00141372
0.00119262
0.00101875
0.000943832
0.000984046
0.00100828
0.00108729
0.00110534
0.00117747
0.00117099
0.00123154
0.00143299
0.00118357
0.0010199
0.000977946
0.000941637
0.000976459
0.000968744
0.00101907
0.00100636
0.00105281
0.00163435
0.00132656
0.00109828
0.000982519
0.000889785
0.000871727
0.000834357
0.000854139
0.000830843
0.000858077
0.00178483
0.00143809
0.00116683
0.000995763
0.000858359
0.00078802
0.000722707
0.000704496
0.000671852
0.000673496
0.00188859
0.00151504
0.00121634
0.00100685
0.000837557
0.000723179
0.000631319
0.000572599
0.00052626
0.000497015
0.00193985
0.00155388
0.00124236
0.00101427
0.000829174
0.000690175
0.000582671
0.00049505
0.000438206
0.000380964
0.000342823
0.000470334
0.000658034
0.000844206
0.00104108
0.00120967
0.00138885
0.0015359
0.00170142
0.00186639
0.000319865
0.00044359
0.000626898
0.000808441
0.00100416
0.00116901
0.00134068
0.00146774
0.00159458
0.00170338
0.000314806
0.000422939
0.000587085
0.000752407
0.000932346
0.00109649
0.0012666
0.00142859
0.00156182
0.00169118
0.000361613
0.000453805
0.000598631
0.000751428
0.000910148
0.00105693
0.00119067
0.00132764
0.00143738
0.00156996
0.000386715
0.000461443
0.000581648
0.00072257
0.000867664
0.00102155
0.00115543
0.00130324
0.0014071
0.00151954
0.00044396
0.000505583
0.000604441
0.00072697
0.000846644
0.000978986
0.00108906
0.00122081
0.00132244
0.00143711
0.000489104
0.000539199
0.000620593
0.000731719
0.000841177
0.000969845
0.00107565
0.00119852
0.00129054
0.00139046
0.000541291
0.000581535
0.000646681
0.00073913
0.000829787
0.000939786
0.00103334
0.00114477
0.00123496
0.00133133
0.000595063
0.000628172
0.000682879
0.000763541
0.000845063
0.000943827
0.00102976
0.00112768
0.00120904
0.00129419
0.00064042
0.000666682
0.000710882
0.000776794
0.000845847
0.000930083
0.00100752
0.00109562
0.00117206
0.00125145
0.000692936
0.000714577
0.000752
0.000807726
0.000868167
0.000940418
0.00100919
0.00108475
0.00115338
0.00122269
0.000730899
0.000748159
0.000778975
0.000824522
0.000876335
0.000937643
0.000999195
0.00106574
0.00112804
0.00119119
0.000775119
0.0007893
0.000815184
0.000853041
0.000897209
0.000948734
0.00100191
0.00105813
0.00111367
0.00116542
0.000803471
0.000814993
0.000836429
0.000867811
0.000905303
0.000949315
0.000995646
0.00104488
0.00109447
0.00114104
0.000833922
0.000843363
0.000861305
0.000887193
0.000918854
0.000955527
0.000995024
0.00103662
0.00107884
0.00111986
0.000848658
0.000856457
0.000871484
0.00089315
0.000920167
0.000951382
0.000985879
0.0010215
0.00105935
0.00109396
0.000859317
0.000865818
0.000878629
0.000896842
0.000920054
0.000946719
0.000976532
0.0010077
0.00104016
0.00107167
0.000854115
0.000859713
0.000870925
0.000886795
0.000907428
0.000931088
0.000958079
0.000986196
0.00101606
0.00104479
0.000836604
0.000841682
0.000852166
0.000866767
0.000886513
0.000908805
0.000935522
0.000962665
0.000993321
0.00102155
0.000801943
0.000807003
0.000817623
0.000832396
0.000852872
0.000876
0.000904579
0.000933539
0.000967295
0.000998463
0.0019395
0.00191315
0.00196595
0.00197493
0.00202001
0.00203882
0.00206932
0.00209298
0.00211402
0.00213378
0.00215648
0.00217558
0.00220185
0.00222448
0.00225884
0.00229144
0.00234063
0.0023928
0.00246525
0.00256515
0.00181126
0.0018501
0.00190058
0.00191968
0.00194897
0.00197661
0.00200046
0.00202732
0.00205608
0.00207736
0.00210662
0.00213212
0.00216634
0.00219801
0.00224166
0.00228377
0.00234135
0.00240134
0.00247693
0.00258932
0.00174555
0.00177114
0.00180366
0.00182899
0.00185652
0.00187469
0.00190912
0.00195552
0.00196407
0.00198456
0.00202459
0.00205253
0.00209465
0.00213055
0.0021792
0.00222528
0.0022844
0.00234373
0.00241713
0.00249905
0.00164776
0.00168972
0.00173195
0.00175931
0.00179862
0.00182346
0.00186291
0.00188538
0.00191748
0.00194858
0.00198445
0.0020169
0.00205717
0.00209454
0.00214076
0.00218559
0.00223992
0.00229357
0.00235878
0.00242045
0.0015829
0.00162244
0.00165397
0.00168541
0.00171597
0.00174529
0.00177599
0.00180711
0.00183685
0.00186638
0.00190148
0.00193318
0.00197305
0.00200937
0.00205475
0.00209753
0.00214987
0.00220058
0.0022617
0.00232131
0.001507
0.00154838
0.00158489
0.00161864
0.00165444
0.00168472
0.00171976
0.00174864
0.00178254
0.00181259
0.00184731
0.00187901
0.00191598
0.00195055
0.00199115
0.00203007
0.00207588
0.00212076
0.00217371
0.00222653
0.00145459
0.00149218
0.00152404
0.00155739
0.00158798
0.00161877
0.00164878
0.00167817
0.00170829
0.00173712
0.00176847
0.00179793
0.00183137
0.00186269
0.00189909
0.00193353
0.00197381
0.00201285
0.00205778
0.00210244
0.00139726
0.00143232
0.001466
0.00149892
0.00153094
0.00156119
0.00159194
0.0016203
0.0016502
0.00167758
0.00170725
0.00173449
0.0017646
0.00179268
0.00182384
0.00185395
0.0018867
0.00192024
0.00195737
0.00199385
0.00135508
0.00138631
0.00141686
0.00144745
0.00147587
0.00150422
0.0015311
0.0015576
0.00158344
0.00160863
0.0016339
0.00165839
0.00168359
0.00170803
0.0017337
0.00175866
0.00178563
0.00181453
0.00184092
0.00186959
0.00131073
0.00133857
0.00136897
0.00139738
0.00142539
0.00145177
0.00147766
0.00150221
0.00152636
0.00154929
0.00157212
0.0015937
0.0016157
0.00163624
0.00165801
0.00167783
0.00170016
0.00171966
0.00174131
0.00176302
0.00127642
0.00130195
0.00132815
0.00135393
0.00137847
0.00140208
0.0014248
0.00144642
0.0014674
0.00148717
0.00150658
0.00152465
0.00154269
0.0015593
0.00157618
0.00159169
0.00160763
0.00162267
0.00163781
0.00165244
0.00123949
0.00126206
0.00128931
0.00131077
0.00133451
0.00135533
0.00137633
0.00139571
0.00141446
0.00143198
0.00144878
0.00146427
0.00147925
0.00149269
0.00150592
0.00151742
0.0015289
0.00153882
0.00154848
0.00155737
0.00121261
0.00123853
0.00125299
0.00127061
0.00129307
0.00131047
0.00132962
0.00134592
0.00136241
0.00137706
0.00139125
0.00140387
0.00141584
0.00142622
0.00143585
0.00144395
0.00145094
0.00145692
0.00146147
0.00146517
0.00118241
0.00119707
0.00121641
0.00123497
0.00125292
0.00126961
0.00128572
0.0013006
0.00131472
0.00132743
0.00133964
0.00135018
0.00136
0.00136806
0.00137522
0.00138023
0.00138463
0.00138701
0.00138765
0.00138694
0.00115349
0.0011687
0.00118496
0.00120037
0.00121581
0.00122984
0.00124391
0.00125649
0.00126875
0.00127974
0.00129008
0.00129896
0.00130713
0.00131335
0.00131912
0.0013219
0.00132298
0.00132333
0.00132075
0.00131635
0.00112414
0.00113588
0.00115184
0.00116471
0.00117908
0.00119149
0.00120419
0.00121621
0.00122662
0.00123568
0.00124575
0.00125374
0.0012607
0.00126688
0.00127026
0.00127011
0.00127283
0.00127166
0.00126631
0.00125923
0.00109666
0.00110796
0.00112119
0.00113321
0.0011454
0.00115667
0.00116864
0.0011783
0.00118754
0.00119747
0.00120613
0.00121348
0.00121958
0.00122528
0.00122799
0.00123126
0.00123122
0.00122904
0.00122314
0.00121523
0.00106754
0.00107831
0.0010907
0.00110209
0.00111358
0.00112417
0.00113568
0.00114458
0.0011553
0.00116488
0.00117246
0.00118013
0.00118651
0.00119193
0.00119616
0.0011983
0.0011993
0.00119755
0.00119254
0.00118439
0.00104466
0.00105592
0.00106852
0.0010804
0.00109018
0.00110259
0.0011172
0.00112483
0.00113491
0.00114391
0.00115178
0.00115982
0.00116581
0.00117206
0.00117594
0.00117971
0.00118098
0.00118116
0.00117836
0.0011733
0.00102364
0.00103696
0.00105118
0.00106474
0.00107624
0.00109352
0.00110749
0.00111471
0.00112766
0.00113584
0.00114556
0.00115262
0.00115979
0.00116489
0.00116969
0.00117254
0.00117501
0.00117562
0.0011757
0.00117376
0.00247904
0.00235629
0.00224371
0.00215882
0.00207678
0.00201096
0.00193455
0.00186882
0.00179141
0.00172217
0.00164044
0.00156365
0.001473
0.00138398
0.00127876
0.00117195
0.00104546
0.000914001
0.000758297
0.000593672
0.00268544
0.00257808
0.00248527
0.00241532
0.00233455
0.00224957
0.00215502
0.00208027
0.00199091
0.00191159
0.00182027
0.00173345
0.00163466
0.00153655
0.00142486
0.00131079
0.00118054
0.00104541
0.000891589
0.000731458
0.00314818
0.00308564
0.00297204
0.0028458
0.00269083
0.00254527
0.0024531
0.00235026
0.00223821
0.00214499
0.00204173
0.00194831
0.00184383
0.00174272
0.00162959
0.00151528
0.00138791
0.00125699
0.00111314
0.000965886
0.00325502
0.00322743
0.00312643
0.00304
0.00292107
0.00282672
0.00269577
0.00255555
0.00245898
0.00236279
0.00226225
0.00216748
0.00206335
0.00196298
0.0018524
0.00174197
0.00162235
0.00150107
0.00137386
0.00124617
0.002829
0.00290931
0.00290227
0.00291275
0.00286312
0.00282279
0.00273485
0.00265817
0.0025569
0.00249406
0.00242488
0.00234881
0.00226492
0.0021752
0.00208159
0.00198226
0.00188338
0.00178124
0.00168696
0.00159467
0.00242958
0.00256612
0.00256825
0.00260454
0.00257629
0.00257677
0.00253246
0.00250632
0.00248589
0.00247131
0.00243341
0.00238698
0.00233143
0.00226627
0.00220091
0.00212776
0.00206152
0.00199292
0.0019405
0.00189292
0.0023008
0.00236579
0.00235724
0.0023899
0.00238497
0.00240901
0.00241032
0.00242892
0.00243462
0.0024313
0.00242005
0.00239422
0.00236622
0.00232488
0.00228647
0.00223926
0.00220149
0.00216227
0.0021427
0.00213
0.00217671
0.00224373
0.00224529
0.00227337
0.00227707
0.00229001
0.00229898
0.00230495
0.00231693
0.00231843
0.00232449
0.00231696
0.00231401
0.00229892
0.00229052
0.00227481
0.00227045
0.00226601
0.00228082
0.00230257
0.0020881
0.00214616
0.00217843
0.00220403
0.00223246
0.00224373
0.00226545
0.00227094
0.00228697
0.00228904
0.00229967
0.00229872
0.00230451
0.00230256
0.00230723
0.00230938
0.00232073
0.0023348
0.00236464
0.0023979
0.00198731
0.00201263
0.00205923
0.00208037
0.00212298
0.00214113
0.00217462
0.00219011
0.00221522
0.00222845
0.00224754
0.00225891
0.00227492
0.00228708
0.0023051
0.00232387
0.00235235
0.00238623
0.00243777
0.00249472
)
;

boundaryField
{
    back
    {
        type            empty;
    }
    left
    {
        type            symmetry;
    }
    hole
    {
        type            calculated;
        value           nonuniform List<scalar> 
20
(
0.012706
0.0122022
0.0105638
0.00747146
0.00414509
0.00227326
0.00185656
0.00148654
0.00106306
0.000622104
0.000215308
0.000192604
0.00056393
0.000899584
0.00119869
0.00144808
0.00165552
0.00180988
0.00191604
0.00196843
)
;
    }
    front
    {
        type            empty;
    }
    down
    {
        type            symmetry;
    }
    right
    {
        type            calculated;
        value           nonuniform List<scalar> 
30
(
0.000802622
0.000807601
0.000818007
0.00083258
0.0008527
0.000875618
0.000903813
0.000932686
0.000966154
0.00099747
0.00102256
0.00103615
0.00105074
0.00106425
0.00107727
0.00109164
0.00110508
0.00111468
0.00112675
0.00113566
0.00114524
0.00115247
0.00115968
0.00116477
0.00116962
0.00117246
0.00117505
0.0011758
0.0011764
0.00117541
)
;
    }
    up
    {
        type            calculated;
        value           nonuniform List<scalar> 
30
(
0.00256819
0.00259322
0.00250067
0.00242077
0.00232186
0.00222695
0.00210282
0.00199389
0.00186966
0.00176309
0.00165241
0.00155722
0.00146504
0.00138675
0.0013163
0.0012592
0.001215
0.00118439
0.00117325
0.00117384
0.00059269
0.000729557
0.00096351
0.00124342
0.00159274
0.00189203
0.00212983
0.00230288
0.00239797
0.00249476
)
;
    }
}


// ************************************************************************* //
