/*--------------------------------*- C++ -*----------------------------------*\
| =========                 |                                                 |
| \\      /  F ield         | OpenFOAM: The Open Source CFD Toolbox           |
|  \\    /   O peration     | Version:  v2012                                 |
|   \\  /    A nd           | Website:  www.openfoam.com                      |
|    \\/     M anipulation  |                                                 |
\*---------------------------------------------------------------------------*/
FoamFile
{
    version     2.0;
    format      ascii;
    class       volScalarField;
    location    "12";
    object      sigmaHyd;
}
// * * * * * * * * * * * * * * * * * * * * * * * * * * * * * * * * * * * * * //

dimensions      [1 -1 -2 0 0 0 0];


internalField   nonuniform List<scalar> 
1000
(
9.95878e+07
1.14082e+08
1.31789e+08
1.43597e+08
1.57854e+08
1.64229e+08
1.70726e+08
1.68391e+08
1.65739e+08
1.56398e+08
1.00937e+08
1.15401e+08
1.32439e+08
1.41782e+08
1.52414e+08
1.5408e+08
1.56016e+08
1.5058e+08
1.46286e+08
1.37769e+08
1.03299e+08
1.15038e+08
1.29687e+08
1.33803e+08
1.37119e+08
1.33283e+08
1.3108e+08
1.24913e+08
1.2206e+08
1.16675e+08
1.06421e+08
1.08206e+08
1.17344e+08
1.12662e+08
1.12189e+08
1.07703e+08
1.06575e+08
1.0347e+08
1.02958e+08
9.99833e+07
1.01691e+08
9.41957e+07
9.61771e+07
8.77189e+07
9.14381e+07
9.02355e+07
9.24863e+07
8.90395e+07
8.86148e+07
8.5266e+07
8.99011e+07
7.87043e+07
7.9323e+07
7.68168e+07
7.98447e+07
7.78838e+07
8.00491e+07
7.70714e+07
7.72354e+07
7.51259e+07
7.53661e+07
7.21175e+07
7.20873e+07
6.87749e+07
7.01907e+07
6.7627e+07
6.93247e+07
6.69861e+07
6.91353e+07
6.76092e+07
6.13814e+07
5.79703e+07
5.92398e+07
5.74793e+07
5.97452e+07
5.85619e+07
6.10484e+07
5.99443e+07
6.2455e+07
6.16e+07
4.37515e+07
4.36033e+07
4.53385e+07
4.52722e+07
4.75103e+07
4.74923e+07
5.00875e+07
4.99958e+07
5.30078e+07
5.26269e+07
2.57866e+07
2.7648e+07
3.11479e+07
3.26542e+07
3.60167e+07
3.72998e+07
4.0627e+07
4.16931e+07
4.51451e+07
4.5712e+07
8.6468e+06
1.27208e+07
1.64688e+07
1.98054e+07
2.30163e+07
2.59147e+07
2.86507e+07
3.13051e+07
3.35267e+07
3.70896e+07
-8.02684e+06
-2.3135e+06
2.69198e+06
7.28458e+06
1.13533e+07
1.5211e+07
1.85124e+07
2.18408e+07
2.44508e+07
2.89571e+07
-2.3505e+07
-1.5929e+07
-1.03451e+07
-4.16285e+06
225527
5.53829e+06
9.02574e+06
1.3776e+07
1.6573e+07
2.25347e+07
-3.72594e+07
-2.86003e+07
-2.21819e+07
-1.5102e+07
-1.00996e+07
-4.04424e+06
-148811
5.25048e+06
8.25926e+06
1.47665e+07
-4.95809e+07
-3.96909e+07
-3.2637e+07
-2.45386e+07
-1.90973e+07
-1.22059e+07
-7.98739e+06
-1.93943e+06
1.3292e+06
8.00019e+06
-5.97699e+07
-4.92325e+07
-4.15621e+07
-3.29159e+07
-2.69644e+07
-1.96359e+07
-1.49926e+07
-8.61094e+06
-4.97923e+06
1.60055e+06
-6.82422e+07
-5.70251e+07
-4.88327e+07
-3.96405e+07
-3.3289e+07
-2.55507e+07
-2.05727e+07
-1.39209e+07
-9.98118e+06
-3.58377e+06
-7.45228e+07
-6.29632e+07
-5.43568e+07
-4.48823e+07
-3.81735e+07
-3.02245e+07
-2.49248e+07
-1.81356e+07
-1.38944e+07
-7.70952e+06
-7.88378e+07
-6.69825e+07
-5.80811e+07
-4.83755e+07
-4.14304e+07
-3.33182e+07
-2.78112e+07
-2.09265e+07
-1.64876e+07
-1.04678e+07
-8.09643e+07
-6.9001e+07
-5.99508e+07
-5.01588e+07
-4.30844e+07
-3.49106e+07
-2.92849e+07
-2.23639e+07
-1.78117e+07
-1.18857e+07
-5.23008e+06
-4.05197e+06
-1.73285e+06
1.78718e+06
6.3296e+06
1.20868e+07
1.84372e+07
2.59607e+07
3.24713e+07
3.97393e+07
5.02151e+06
5.71401e+06
7.11038e+06
9.17674e+06
1.19504e+07
1.54237e+07
1.96967e+07
2.48015e+07
3.1135e+07
3.71078e+07
1.23066e+07
1.30154e+07
1.44634e+07
1.65385e+07
1.9325e+07
2.25316e+07
2.63588e+07
3.01366e+07
3.47185e+07
3.80231e+07
1.88439e+07
1.92519e+07
2.01929e+07
2.1452e+07
2.34579e+07
2.5669e+07
2.89948e+07
3.21711e+07
3.69389e+07
4.00324e+07
2.45222e+07
2.49421e+07
2.59015e+07
2.71038e+07
2.8958e+07
3.07766e+07
3.34479e+07
3.57297e+07
3.92893e+07
4.17531e+07
2.88963e+07
2.91595e+07
2.98615e+07
3.06899e+07
3.22007e+07
3.36727e+07
3.61025e+07
3.82237e+07
4.14708e+07
4.37607e+07
3.32733e+07
3.35193e+07
3.41569e+07
3.48714e+07
3.61249e+07
3.72761e+07
3.91439e+07
4.07983e+07
4.33081e+07
4.53026e+07
3.63871e+07
3.65614e+07
3.70626e+07
3.76186e+07
3.86757e+07
3.96836e+07
4.13227e+07
4.28432e+07
4.49914e+07
4.67836e+07
3.97635e+07
3.99043e+07
4.03051e+07
4.07343e+07
4.15386e+07
4.23004e+07
4.35263e+07
4.47339e+07
4.63955e+07
4.79225e+07
4.21316e+07
4.22368e+07
4.25507e+07
4.28953e+07
4.35504e+07
4.42034e+07
4.52138e+07
4.6257e+07
4.76127e+07
4.88988e+07
4.48103e+07
4.48765e+07
4.50902e+07
4.53095e+07
4.57557e+07
4.61945e+07
4.69079e+07
4.76699e+07
4.86818e+07
4.96955e+07
4.67522e+07
4.6793e+07
4.69386e+07
4.70877e+07
4.74024e+07
4.77277e+07
4.82378e+07
4.88266e+07
4.95505e+07
5.03381e+07
4.90136e+07
4.90147e+07
4.90696e+07
4.90974e+07
4.924e+07
4.93598e+07
4.96488e+07
4.99355e+07
5.0446e+07
5.08117e+07
5.07614e+07
5.07367e+07
5.07309e+07
5.06813e+07
5.07056e+07
5.06931e+07
5.08083e+07
5.09043e+07
5.11842e+07
5.13639e+07
5.28609e+07
5.27979e+07
5.27027e+07
5.25404e+07
5.23938e+07
5.2203e+07
5.20785e+07
5.19494e+07
5.19233e+07
5.18838e+07
5.46138e+07
5.45212e+07
5.43628e+07
5.4111e+07
5.38408e+07
5.34993e+07
5.31961e+07
5.28542e+07
5.26047e+07
5.2308e+07
5.67998e+07
5.66677e+07
5.64147e+07
5.60481e+07
5.55955e+07
5.50739e+07
5.45142e+07
5.39421e+07
5.33827e+07
5.28281e+07
5.87593e+07
5.85916e+07
5.82649e+07
5.77912e+07
5.7194e+07
5.64947e+07
5.5728e+07
5.4913e+07
5.41016e+07
5.32627e+07
6.12986e+07
6.10857e+07
6.0651e+07
6.00448e+07
5.92354e+07
5.83274e+07
5.7251e+07
5.61738e+07
5.49638e+07
5.38559e+07
6.37009e+07
6.34456e+07
6.29218e+07
6.21856e+07
6.11951e+07
6.00656e+07
5.87178e+07
5.73329e+07
5.57789e+07
5.43111e+07
4.32221e+07
4.56225e+07
4.86113e+07
5.15494e+07
5.48016e+07
5.78256e+07
6.06975e+07
6.38019e+07
6.64054e+07
6.9444e+07
7.20218e+07
7.50649e+07
7.76575e+07
8.0795e+07
8.34681e+07
8.68185e+07
8.96617e+07
9.33733e+07
9.64934e+07
9.8975e+07
4.40441e+07
4.73766e+07
5.11793e+07
5.36713e+07
5.65529e+07
5.95563e+07
6.21887e+07
6.51904e+07
6.79085e+07
7.07126e+07
7.33407e+07
7.62509e+07
7.88576e+07
8.19364e+07
8.45808e+07
8.79143e+07
9.06492e+07
9.43546e+07
9.72245e+07
9.88154e+07
4.27493e+07
4.59614e+07
4.86485e+07
5.21955e+07
5.43058e+07
5.75482e+07
5.98496e+07
6.42444e+07
6.53563e+07
6.83739e+07
7.08918e+07
7.39439e+07
7.65114e+07
7.9634e+07
8.22992e+07
8.55364e+07
8.83469e+07
9.1742e+07
9.47476e+07
9.75819e+07
4.40151e+07
4.7634e+07
4.98014e+07
5.29582e+07
5.52039e+07
5.81639e+07
6.04892e+07
6.32974e+07
6.54614e+07
6.841e+07
7.06606e+07
7.35515e+07
7.58936e+07
7.87768e+07
8.12276e+07
8.4135e+07
8.67234e+07
8.9663e+07
9.24307e+07
9.53747e+07
4.48602e+07
4.80745e+07
4.97655e+07
5.27389e+07
5.44723e+07
5.73924e+07
5.91713e+07
6.20824e+07
6.38846e+07
6.66798e+07
6.86389e+07
7.13752e+07
7.34646e+07
7.61853e+07
7.83946e+07
8.11319e+07
8.34617e+07
8.62374e+07
8.86948e+07
9.15194e+07
4.64944e+07
4.92772e+07
5.07998e+07
5.33876e+07
5.5008e+07
5.75123e+07
5.92139e+07
6.1656e+07
6.34196e+07
6.58296e+07
6.7658e+07
7.00483e+07
7.19439e+07
7.43309e+07
7.62974e+07
7.86977e+07
8.07409e+07
8.31712e+07
8.52985e+07
8.77772e+07
4.75951e+07
4.98908e+07
5.11362e+07
5.33703e+07
5.46987e+07
5.68978e+07
5.83023e+07
6.04675e+07
6.1943e+07
6.40744e+07
6.56208e+07
6.77274e+07
6.9339e+07
7.1433e+07
7.31017e+07
7.51964e+07
7.69129e+07
7.90218e+07
8.07747e+07
8.28904e+07
4.88432e+07
5.06882e+07
5.17946e+07
5.3666e+07
5.48458e+07
5.66893e+07
5.79327e+07
5.97487e+07
6.10449e+07
6.28375e+07
6.41764e+07
6.59511e+07
6.73228e+07
6.90857e+07
7.048e+07
7.22367e+07
7.36423e+07
7.53981e+07
7.68875e+07
7.85634e+07
4.9652e+07
5.10972e+07
5.20055e+07
5.35318e+07
5.44966e+07
5.60109e+07
5.70269e+07
5.85229e+07
5.95825e+07
6.10569e+07
6.21512e+07
6.36028e+07
6.47215e+07
6.61497e+07
6.72817e+07
6.86852e+07
6.98189e+07
7.13165e+07
7.23275e+07
7.36781e+07
5.04312e+07
5.1514e+07
5.22942e+07
5.35087e+07
5.43303e+07
5.55361e+07
5.63922e+07
5.75823e+07
5.84652e+07
5.9634e+07
6.05356e+07
6.16777e+07
6.25902e+07
6.36996e+07
6.46157e+07
6.5685e+07
6.65986e+07
6.76178e+07
6.84379e+07
6.94785e+07
5.0906e+07
5.17399e+07
5.23169e+07
5.32647e+07
5.38844e+07
5.48199e+07
5.54682e+07
5.63876e+07
5.70527e+07
5.79514e+07
5.8622e+07
5.94953e+07
6.01594e+07
6.10026e+07
6.16474e+07
6.24561e+07
6.30675e+07
6.38374e+07
6.43995e+07
6.51049e+07
5.13289e+07
5.18819e+07
5.23827e+07
5.30482e+07
5.35526e+07
5.42225e+07
5.47295e+07
5.53906e+07
5.58959e+07
5.65374e+07
5.70342e+07
5.76469e+07
5.81264e+07
5.87015e+07
5.91532e+07
5.96823e+07
6.00935e+07
6.0569e+07
6.09242e+07
6.13376e+07
5.16534e+07
5.24227e+07
5.2303e+07
5.27061e+07
5.30937e+07
5.35167e+07
5.38799e+07
5.43045e+07
5.46461e+07
5.5058e+07
5.53761e+07
5.57625e+07
5.60504e+07
5.64005e+07
5.66482e+07
5.69521e+07
5.71464e+07
5.73949e+07
5.75275e+07
5.77045e+07
5.18627e+07
5.20505e+07
5.22188e+07
5.25239e+07
5.26984e+07
5.29872e+07
5.316e+07
5.34265e+07
5.35909e+07
5.38246e+07
5.39757e+07
5.41713e+07
5.42962e+07
5.44437e+07
5.45318e+07
5.46167e+07
5.46594e+07
5.46881e+07
5.46544e+07
5.46095e+07
5.20961e+07
5.21649e+07
5.21808e+07
5.23058e+07
5.23357e+07
5.24433e+07
5.24742e+07
5.25634e+07
5.25818e+07
5.26505e+07
5.26605e+07
5.26868e+07
5.2676e+07
5.2651e+07
5.2609e+07
5.25187e+07
5.23585e+07
5.22609e+07
5.20359e+07
5.18465e+07
5.2293e+07
5.22158e+07
5.21306e+07
5.21102e+07
5.20127e+07
5.19993e+07
5.1883e+07
5.18792e+07
5.17303e+07
5.16272e+07
5.15401e+07
5.14352e+07
5.12928e+07
5.11717e+07
5.09638e+07
5.06522e+07
5.05207e+07
5.02866e+07
4.99266e+07
4.95938e+07
5.2558e+07
5.23398e+07
5.21223e+07
5.19399e+07
5.17352e+07
5.15418e+07
5.13644e+07
5.11467e+07
5.09185e+07
5.07447e+07
5.05545e+07
5.03216e+07
5.0097e+07
4.98556e+07
4.95811e+07
4.9315e+07
4.90441e+07
4.86563e+07
4.82948e+07
4.78232e+07
5.27711e+07
5.24161e+07
5.20831e+07
5.1753e+07
5.14403e+07
5.11048e+07
5.08306e+07
5.04848e+07
5.02353e+07
4.99912e+07
4.96587e+07
4.94061e+07
4.90895e+07
4.88204e+07
4.85017e+07
4.81957e+07
4.78522e+07
4.75017e+07
4.70787e+07
4.66415e+07
5.2997e+07
5.2536e+07
5.19773e+07
5.15611e+07
5.09693e+07
5.06154e+07
5.03523e+07
4.97993e+07
4.94708e+07
4.9047e+07
4.87282e+07
4.83769e+07
4.80872e+07
4.779e+07
4.75305e+07
4.72684e+07
4.70268e+07
4.67674e+07
4.65054e+07
4.61944e+07
5.31718e+07
5.25383e+07
5.18504e+07
5.12509e+07
5.05403e+07
5.01567e+07
4.96331e+07
4.8998e+07
4.85568e+07
4.81071e+07
4.77072e+07
4.73831e+07
4.70695e+07
4.68527e+07
4.66391e+07
4.65196e+07
4.63962e+07
4.63503e+07
4.62758e+07
4.62332e+07
1.48749e+08
1.40159e+08
1.32843e+08
1.25406e+08
1.18945e+08
1.1228e+08
1.06108e+08
9.97286e+07
9.37094e+07
8.74876e+07
8.15309e+07
7.53462e+07
6.93529e+07
6.30884e+07
5.69488e+07
5.04881e+07
4.40797e+07
3.73015e+07
3.04849e+07
2.32499e+07
1.33777e+08
1.30525e+08
1.26103e+08
1.20572e+08
1.15239e+08
1.09454e+08
1.03785e+08
9.83798e+07
9.28402e+07
8.74054e+07
8.19009e+07
7.63844e+07
7.08328e+07
6.51729e+07
5.94853e+07
5.36115e+07
4.76895e+07
4.15234e+07
3.52583e+07
2.86692e+07
1.14977e+08
1.14281e+08
1.13198e+08
1.12107e+08
1.10874e+08
1.08866e+08
1.04366e+08
9.92452e+07
9.41487e+07
8.9232e+07
8.42783e+07
7.94234e+07
7.44918e+07
6.95865e+07
6.45757e+07
5.95275e+07
5.43407e+07
4.90665e+07
4.36034e+07
3.79226e+07
9.89862e+07
9.97159e+07
9.92398e+07
9.93991e+07
9.88373e+07
9.88786e+07
9.83956e+07
9.76499e+07
9.38392e+07
8.98686e+07
8.59021e+07
8.20266e+07
7.80435e+07
7.41624e+07
7.0116e+07
6.61493e+07
6.19772e+07
5.78559e+07
5.34818e+07
4.89798e+07
8.37541e+07
8.48731e+07
8.46172e+07
8.5533e+07
8.54857e+07
8.65912e+07
8.64464e+07
8.76558e+07
8.75832e+07
8.65944e+07
8.42797e+07
8.26138e+07
8.00776e+07
7.80819e+07
7.54287e+07
7.32134e+07
7.04951e+07
6.81514e+07
6.53979e+07
6.28216e+07
7.39425e+07
7.56115e+07
7.54663e+07
7.65539e+07
7.66803e+07
7.80733e+07
7.85421e+07
8.01591e+07
8.02386e+07
8.12056e+07
8.06946e+07
8.08576e+07
8.00037e+07
7.96662e+07
7.86323e+07
7.80346e+07
7.69558e+07
7.62993e+07
7.53066e+07
7.46181e+07
6.82124e+07
7.07714e+07
7.11675e+07
7.2467e+07
7.29181e+07
7.4472e+07
7.51899e+07
7.70077e+07
7.79863e+07
7.9398e+07
8.00053e+07
8.09509e+07
8.12487e+07
8.18664e+07
8.19855e+07
8.24477e+07
8.25533e+07
8.30554e+07
8.33393e+07
8.3985e+07
6.2341e+07
6.59677e+07
6.69465e+07
6.8965e+07
6.98858e+07
7.17324e+07
7.27528e+07
7.45334e+07
7.5631e+07
7.7318e+07
7.83946e+07
7.99374e+07
8.09702e+07
8.24072e+07
8.34451e+07
8.48768e+07
8.60223e+07
8.75881e+07
8.89794e+07
9.07807e+07
5.47605e+07
5.89731e+07
6.13076e+07
6.414e+07
6.62452e+07
6.87006e+07
7.0587e+07
7.28098e+07
7.45414e+07
7.65858e+07
7.81997e+07
8.01156e+07
8.16524e+07
8.35052e+07
8.5038e+07
8.69058e+07
8.85465e+07
9.05065e+07
9.24012e+07
9.4473e+07
4.77558e+07
5.06986e+07
5.32394e+07
5.59573e+07
5.84218e+07
6.11645e+07
6.3582e+07
6.62766e+07
6.86629e+07
7.13046e+07
7.36587e+07
7.62877e+07
7.86501e+07
8.13187e+07
8.37674e+07
8.65395e+07
8.91906e+07
9.21252e+07
9.51354e+07
9.82505e+07
)
;

boundaryField
{
    back
    {
        type            empty;
    }
    left
    {
        type            symmetry;
    }
    hole
    {
        type            zeroGradient;
    }
    front
    {
        type            empty;
    }
    down
    {
        type            symmetry;
    }
    right
    {
        type            zeroGradient;
    }
    up
    {
        type            zeroGradient;
    }
}


// ************************************************************************* //
