/*--------------------------------*- C++ -*----------------------------------*\
| =========                 |                                                 |
| \\      /  F ield         | OpenFOAM: The Open Source CFD Toolbox           |
|  \\    /   O peration     | Version:  v2012                                 |
|   \\  /    A nd           | Website:  www.openfoam.com                      |
|    \\/     M anipulation  |                                                 |
\*---------------------------------------------------------------------------*/
FoamFile
{
    version     2.0;
    format      ascii;
    class       volSymmTensorField;
    location    "12";
    object      sigma;
}
// * * * * * * * * * * * * * * * * * * * * * * * * * * * * * * * * * * * * * //

dimensions      [1 -1 -2 0 0 0 0];


internalField   nonuniform List<symmTensor> 
1000
(
(1.8072e+08 -7.41007e+06 1.51259e-09 5.7482e+06 -7.50984e-09 1.12295e+08)
(2.04102e+08 -8.78428e+06 -5.73578e-09 1.36616e+07 -1.45634e-08 1.24481e+08)
(2.28992e+08 -1.01758e+07 -7.1103e-09 2.65959e+07 1.64855e-08 1.39778e+08)
(2.4683e+08 -1.1167e+07 7.4689e-09 3.60397e+07 -4.01877e-10 1.47921e+08)
(2.67245e+08 -1.10702e+07 8.02078e-09 4.94015e+07 4.53861e-11 1.56914e+08)
(2.79326e+08 -1.03007e+07 2.25321e-09 5.70617e+07 1.37711e-08 1.56298e+08)
(2.91929e+08 -7.80678e+06 -9.36435e-09 6.69236e+07 -1.22649e-09 1.53326e+08)
(2.9471e+08 -4.47216e+06 -7.29451e-09 6.89997e+07 -1.98602e-08 1.41464e+08)
(2.96728e+08 -7425.3 -1.84545e-08 7.20414e+07 -1.77142e-08 1.28449e+08)
(2.90076e+08 5.34483e+06 5.15981e-09 6.68484e+07 8.23621e-09 1.1227e+08)
(1.81203e+08 -2.24401e+07 0 8.57073e+06 0 1.13036e+08)
(2.04138e+08 -2.59567e+07 6.20997e-09 1.74945e+07 -2.92299e-09 1.2457e+08)
(2.28698e+08 -2.89283e+07 -6.94065e-09 3.03672e+07 -1.25312e-08 1.38253e+08)
(2.44049e+08 -3.07564e+07 2.60807e-09 3.84578e+07 -3.14985e-08 1.4284e+08)
(2.61596e+08 -2.93647e+07 5.24422e-09 4.87859e+07 1.30624e-08 1.46859e+08)
(2.69508e+08 -2.55913e+07 2.47525e-08 5.15366e+07 3.59362e-08 1.41196e+08)
(2.77609e+08 -1.81102e+07 -1.00085e-08 5.60088e+07 -4.12842e-09 1.34428e+08)
(2.77015e+08 -8.64947e+06 -1.04838e-09 5.2629e+07 -4.42645e-09 1.22095e+08)
(2.75213e+08 2.70548e+06 -3.2434e-08 5.1851e+07 -1.98647e-08 1.11794e+08)
(2.67787e+08 1.43883e+07 -8.72716e-09 4.45981e+07 -5.9439e-09 1.00922e+08)
(1.8149e+08 -3.87062e+07 2.20047e-08 1.50256e+07 -2.28065e-08 1.13382e+08)
(2.01561e+08 -4.30866e+07 6.65033e-09 2.31669e+07 -7.06723e-09 1.20386e+08)
(2.25116e+08 -4.50149e+07 1.88523e-08 3.55567e+07 9.59609e-09 1.28389e+08)
(2.36719e+08 -4.47648e+07 -8.55323e-09 3.94332e+07 -1.18164e-08 1.25257e+08)
(2.4859e+08 -3.82493e+07 3.12909e-09 4.2004e+07 4.99802e-09 1.20763e+08)
(2.51042e+08 -3.02383e+07 5.75492e-08 3.69053e+07 3.02428e-08 1.11901e+08)
(2.53903e+08 -1.82799e+07 -1.12475e-08 3.37832e+07 5.34235e-09 1.05553e+08)
(2.50405e+08 -6.427e+06 -2.19387e-08 2.58884e+07 -3.17573e-09 9.84466e+07)
(2.48305e+08 5.98452e+06 9.46996e-14 2.29161e+07 4.36084e-14 9.49582e+07)
(2.43366e+08 1.60694e+07 -2.02315e-08 1.66045e+07 -1.52451e-08 9.00544e+07)
(1.83801e+08 -5.38835e+07 3.04167e-10 2.57058e+07 -4.40174e-10 1.09756e+08)
(1.93981e+08 -5.65031e+07 -1.22924e-08 2.79671e+07 -8.97588e-09 1.02671e+08)
(2.14099e+08 -5.53924e+07 1.07257e-08 3.84857e+07 3.25226e-09 9.94473e+07)
(2.19803e+08 -4.74183e+07 3.42212e-08 2.9123e+07 1.26241e-08 8.90595e+07)
(2.27289e+08 -3.48828e+07 -2.30917e-08 2.49144e+07 -2.54571e-09 8.43633e+07)
(2.27791e+08 -2.49938e+07 -1.68585e-09 1.40323e+07 -2.55249e-10 8.12851e+07)
(2.29045e+08 -1.41065e+07 3.05878e-08 9.51844e+06 1.47546e-08 8.11631e+07)
(2.27604e+08 -5.77842e+06 -1.15105e-08 2.26829e+06 -1.00893e-08 8.0537e+07)
(2.27791e+08 3.60694e+06 -1.11809e-08 344783 -9.6677e-09 8.07387e+07)
(2.2536e+08 1.00604e+07 -1.02124e-08 -3.61566e+06 -9.12354e-09 7.82059e+07)
(1.79264e+08 -6.82639e+07 1.33088e-09 3.6067e+07 -3.77886e-09 8.97427e+07)
(1.84214e+08 -6.30636e+07 -2.38253e-08 2.72264e+07 -9.92914e-10 7.11467e+07)
(1.94065e+08 -5.3608e+07 -2.67576e-08 2.78824e+07 2.28679e-09 6.65841e+07)
(1.93854e+08 -3.95709e+07 -1.10161e-09 8.57464e+06 5.57494e-11 6.07285e+07)
(2.03259e+08 -3.06546e+07 4.6895e-08 7.75252e+06 -1.89136e-09 6.33033e+07)
(2.10784e+08 -2.26544e+07 6.70029e-09 -3.60187e+06 -1.12685e-08 6.35247e+07)
(2.14786e+08 -1.49987e+07 -2.51721e-09 -3.78009e+06 9.77022e-09 6.64531e+07)
(2.12784e+08 -7.80638e+06 -2.53862e-08 -1.14181e+07 -2.10486e-08 6.57524e+07)
(2.12449e+08 -131947 4.3455e-10 -1.22141e+07 1.04592e-10 6.56093e+07)
(2.09763e+08 5.42733e+06 -2.27749e-08 -1.71185e+07 -1.34174e-08 6.31531e+07)
(1.7192e+08 -7.37736e+07 2.52119e-08 3.5077e+07 -7.49301e-09 6.27061e+07)
(1.60718e+08 -5.47465e+07 4.87504e-13 2.09074e+07 -9.44133e-14 5.44876e+07)
(1.69499e+08 -4.65319e+07 3.31275e-08 1.35545e+07 2.5849e-08 5.49159e+07)
(1.75317e+08 -3.61313e+07 -2.50655e-08 1.95207e+06 -4.1927e-08 5.31809e+07)
(1.83503e+08 -3.15334e+07 0 754174 0 5.52771e+07)
(1.88971e+08 -2.23181e+07 -4.14589e-09 -9.23941e+06 1.35984e-08 5.39196e+07)
(1.95472e+08 -1.59256e+07 5.96092e-08 -1.0743e+07 2.1203e-08 5.54186e+07)
(1.96951e+08 -7.66821e+06 2.88547e-08 -1.90935e+07 1.10837e-08 5.33571e+07)
(1.98513e+08 -1.49172e+06 -6.22534e-10 -2.0277e+07 1.1698e-08 5.34707e+07)
(1.98266e+08 3.83793e+06 -4.17538e-08 -2.49289e+07 -2.2373e-08 5.2041e+07)
(1.4158e+08 -6.42407e+07 -5.59412e-08 3.23418e+07 3.2534e-09 5.21765e+07)
(1.45922e+08 -5.06928e+07 -8.07226e-08 2.05028e+07 2.48105e-08 4.99275e+07)
(1.54631e+08 -4.21136e+07 1.18972e-08 1.17248e+07 -4.02333e-08 4.99066e+07)
(1.58073e+08 -3.23119e+07 2.82386e-08 638541 -2.58049e-08 4.76134e+07)
(1.66495e+08 -2.6453e+07 -6.98397e-08 -4.51654e+06 -1.47102e-08 4.85936e+07)
(1.70688e+08 -1.93737e+07 -3.17858e-08 -1.46262e+07 -8.188e-09 4.68187e+07)
(1.76891e+08 -1.40181e+07 -4.33372e-08 -1.69104e+07 -2.01067e-08 4.79941e+07)
(1.79068e+08 -7.92305e+06 1.16733e-08 -2.44843e+07 -2.42182e-09 4.6375e+07)
(1.83364e+08 -3.63146e+06 2.33921e-08 -2.3821e+07 -5.04016e-09 4.78629e+07)
(1.83851e+08 500376 3.04836e-08 -2.78302e+07 1.8654e-09 4.68064e+07)
(1.08006e+08 -5.62857e+07 -2.82857e-08 3.36435e+07 1.57291e-08 4.24948e+07)
(1.17111e+08 -4.33214e+07 -4.33447e-13 1.66663e+07 1.98508e-13 4.01333e+07)
(1.31463e+08 -3.44403e+07 2.50707e-08 5.24392e+06 -1.13315e-08 4.10122e+07)
(1.39046e+08 -2.75221e+07 6.77896e-08 -6.40157e+06 3.07316e-08 3.97933e+07)
(1.49379e+08 -2.28623e+07 1.38954e-09 -1.15059e+07 -5.96691e-10 4.1362e+07)
(1.55063e+08 -1.79732e+07 -1.43322e-08 -1.99204e+07 5.87547e-09 4.05429e+07)
(1.62266e+08 -1.43565e+07 2.83164e-08 -2.13847e+07 5.59331e-09 4.22643e+07)
(1.65458e+08 -1.03425e+07 -1.03263e-08 -2.71254e+07 4.11101e-09 4.14999e+07)
(1.69994e+08 -7.28663e+06 -2.30969e-08 -2.58669e+07 -6.19005e-09 4.32381e+07)
(1.7158e+08 -4.19208e+06 2.13099e-08 -2.94261e+07 6.34834e-09 4.26461e+07)
(7.53106e+07 -4.28161e+07 -2.12203e-09 2.56545e+07 2.799e-08 3.02895e+07)
(9.27448e+07 -3.58424e+07 -5.29731e-08 7.87829e+06 5.6391e-08 3.01869e+07)
(1.08594e+08 -3.05612e+07 -5.8308e-09 -3.9663e+06 2.675e-08 3.13882e+07)
(1.19008e+08 -2.60181e+07 6.64446e-08 -1.45338e+07 5.07686e-09 3.13423e+07)
(1.29607e+08 -2.28693e+07 2.97172e-08 -1.99675e+07 3.62653e-09 3.28917e+07)
(1.36536e+08 -1.96168e+07 -1.26738e-08 -2.69383e+07 2.71362e-08 3.28793e+07)
(1.44095e+08 -1.7102e+07 8.25052e-10 -2.8509e+07 1.8573e-08 3.46759e+07)
(1.48412e+08 -1.47107e+07 5.62457e-08 -3.3037e+07 3.67071e-09 3.46125e+07)
(1.541e+08 -1.27019e+07 -3.18811e-09 -3.17748e+07 -1.55831e-08 3.66977e+07)
(1.55914e+08 -1.10764e+07 1.56322e-08 -3.44676e+07 2.38957e-08 3.6434e+07)
(4.55564e+07 -2.65129e+07 7.68296e-09 1.39512e+07 7.86866e-09 1.78523e+07)
(6.65288e+07 -2.49564e+07 2.01916e-08 -2.72567e+06 -1.5989e-08 1.9141e+07)
(8.58635e+07 -2.37561e+07 -1.50987e-08 -1.39837e+07 -1.37213e-08 2.15639e+07)
(9.8387e+07 -2.2463e+07 -3.32779e-10 -2.30312e+07 -2.39364e-08 2.26068e+07)
(1.11163e+08 -2.1629e+07 -1.21037e-09 -2.80477e+07 -2.21645e-08 2.49347e+07)
(1.18916e+08 -2.04402e+07 -1.15815e-08 -3.28396e+07 8.9816e-09 2.5823e+07)
(1.28079e+08 -1.96617e+07 -2.67559e-08 -3.43243e+07 -2.08714e-08 2.81264e+07)
(1.32703e+08 -1.84703e+07 -3.97051e-09 -3.64878e+07 -1.66831e-08 2.88644e+07)
(1.39994e+08 -1.80126e+07 -3.26136e-08 -3.58131e+07 -1.1816e-08 3.12543e+07)
(1.42324e+08 -1.65457e+07 -1.30655e-08 -3.68344e+07 1.11446e-08 3.16468e+07)
(2.21869e+07 -1.0696e+07 5.14201e-10 -2.23276e+06 -5.12848e-10 5.98625e+06)
(4.49651e+07 -1.475e+07 -5.00439e-08 -1.56095e+07 -7.18109e-09 8.80668e+06)
(6.33535e+07 -1.86247e+07 1.52062e-08 -2.53487e+07 1.22915e-08 1.14015e+07)
(7.7713e+07 -1.99791e+07 1.20365e-08 -3.20083e+07 -3.76863e-08 1.37114e+07)
(8.93338e+07 -2.25288e+07 2.92065e-08 -3.62194e+07 2.05674e-08 1.59343e+07)
(9.89902e+07 -2.22554e+07 -2.36603e-08 -3.9187e+07 1.97084e-11 1.7941e+07)
(1.0661e+08 -2.42277e+07 -1.32604e-08 -4.04929e+07 -9.07445e-09 1.98351e+07)
(1.13611e+08 -2.27618e+07 9.19239e-09 -4.13684e+07 -3.06098e-08 2.16728e+07)
(1.18672e+08 -2.46473e+07 1.24567e-08 -4.13029e+07 7.56167e-09 2.32108e+07)
(1.25573e+08 -2.32968e+07 -1.09461e-08 -3.9982e+07 2.55028e-08 2.56774e+07)
(4.71113e+06 5.43529e+06 3.43041e-08 -2.32346e+07 -4.45763e-08 -5.55705e+06)
(2.74025e+07 -4.05748e+06 6.88996e-10 -3.27413e+07 -8.9494e-10 -1.60165e+06)
(4.52268e+07 -1.20694e+07 -4.28122e-08 -3.90145e+07 -5.70879e-09 1.86368e+06)
(6.0154e+07 -1.67262e+07 -1.44222e-08 -4.33435e+07 -1.01737e-08 5.04317e+06)
(7.13238e+07 -2.15308e+07 2.27569e-08 -4.5124e+07 -1.34189e-09 7.85996e+06)
(8.19229e+07 -2.34743e+07 2.96738e-08 -4.68207e+07 -1.16661e-08 1.05307e+07)
(8.87492e+07 -2.6494e+07 2.72866e-10 -4.60282e+07 -3.33549e-10 1.28163e+07)
(9.69351e+07 -2.66795e+07 -1.76974e-08 -4.65334e+07 -3.29561e-10 1.51205e+07)
(1.00576e+08 -2.86256e+07 1.16889e-08 -4.41515e+07 2.88792e-08 1.69275e+07)
(1.08872e+08 -2.91893e+07 -1.38367e-08 -4.20484e+07 -7.92993e-09 2.00472e+07)
(-7.32189e+06 1.88842e+07 -5.54832e-09 -4.69203e+07 -8.19888e-09 -1.62727e+07)
(1.35077e+07 5.3554e+06 2.45146e-08 -5.0267e+07 -7.30369e-09 -1.10278e+07)
(2.85218e+07 -5.98629e+06 -2.85925e-09 -5.2395e+07 -2.75706e-08 -7.16196e+06)
(4.32693e+07 -1.2961e+07 -2.1251e-08 -5.28758e+07 3.91771e-09 -2.88197e+06)
(5.27752e+07 -1.96253e+07 -2.75041e-08 -5.22547e+07 1.46208e-08 156134)
(6.40434e+07 -2.30245e+07 1.17465e-08 -5.12627e+07 8.53498e-09 3.8342e+06)
(6.98664e+07 -2.6987e+07 2.27346e-08 -4.90378e+07 -1.02866e-08 6.24859e+06)
(7.91565e+07 -2.84179e+07 2.67011e-08 -4.73657e+07 5.60696e-09 9.53723e+06)
(8.22272e+07 -3.06749e+07 -3.94168e-09 -4.39818e+07 6.7334e-09 1.14736e+07)
(9.14927e+07 -3.28013e+07 -1.35426e-08 -3.94895e+07 3.49153e-10 1.56009e+07)
(-1.3706e+07 2.89981e+07 5.04769e-09 -7.22772e+07 7.81364e-09 -2.57949e+07)
(3.71855e+06 1.25246e+07 -1.23578e-08 -6.97192e+07 -1.0443e-08 -1.98002e+07)
(1.56131e+07 -889547 1.90452e-08 -6.68021e+07 -5.70518e-09 -1.53567e+07)
(2.88232e+07 -9.8736e+06 1.19673e-08 -6.3674e+07 8.30752e-09 -1.04552e+07)
(3.64853e+07 -1.76657e+07 -5.47826e-09 -5.9792e+07 1.13254e-08 -6.99201e+06)
(4.71995e+07 -2.25228e+07 -3.32361e-08 -5.65324e+07 -2.07015e-08 -2.79986e+06)
(5.18513e+07 -2.69574e+07 6.5834e-09 -5.21947e+07 1.45934e-08 -103023)
(6.11281e+07 -2.95669e+07 9.96164e-09 -4.90117e+07 6.15361e-09 3.63494e+06)
(6.35558e+07 -3.18696e+07 -6.90327e-09 -4.4496e+07 -1.14403e-08 5.71795e+06)
(7.28244e+07 -3.49069e+07 -6.80036e-09 -3.87479e+07 -1.0582e-08 1.0223e+07)
(-1.61673e+07 3.51288e+07 9.22082e-09 -9.82501e+07 -4.68286e-08 -3.43252e+07)
(-2.84454e+06 1.73223e+07 4.61224e-09 -8.87498e+07 -1.79038e-08 -2.74783e+07)
(5.37085e+06 3.16441e+06 6.31289e-09 -8.0687e+07 2.28286e-08 -2.25948e+07)
(1.65761e+07 -6.9187e+06 2.06621e-08 -7.32036e+07 1.53578e-08 -1.69882e+07)
(2.22335e+07 -1.50029e+07 1.71117e-08 -6.63042e+07 -1.43317e-08 -1.32212e+07)
(3.20057e+07 -2.0879e+07 7.19865e-09 -6.01732e+07 1.39452e-08 -8.45024e+06)
(3.56561e+07 -2.5274e+07 3.9817e-09 -5.40885e+07 2.10217e-08 -5.52973e+06)
(4.44444e+07 -2.8903e+07 5.79135e-09 -4.892e+07 -2.00619e-08 -1.34268e+06)
(4.65375e+07 -3.09246e+07 -8.40551e-09 -4.34701e+07 -4.58292e-09 920216)
(5.50721e+07 -3.45278e+07 -5.34509e-09 -3.66101e+07 6.0294e-09 5.53859e+06)
(-1.54003e+07 3.66404e+07 -3.4768e-09 -1.2253e+08 1.59286e-08 -4.13792e+07)
(-6.7437e+06 1.9178e+07 5.88887e-09 -1.0687e+08 4.01296e-08 -3.4084e+07)
(-2.03887e+06 5.56002e+06 6.99001e-09 -9.38736e+07 2.10415e-08 -2.87737e+07)
(6.5352e+06 -4.60154e+06 -6.83219e-11 -8.24949e+07 4.52707e-10 -2.27879e+07)
(1.0411e+07 -1.23403e+07 -8.59478e-09 -7.26366e+07 -5.34063e-09 -1.86677e+07)
(1.86203e+07 -1.84988e+07 8.10486e-09 -6.39339e+07 5.89427e-09 -1.35941e+07)
(2.15978e+07 -2.26233e+07 -7.90595e-09 -5.6196e+07 -4.32947e-09 -1.03795e+07)
(2.93465e+07 -2.66441e+07 9.25269e-09 -4.92179e+07 -7.37395e-09 -5.96142e+06)
(3.15513e+07 -2.84522e+07 7.9658e-09 -4.30418e+07 -1.58629e-09 -3.44716e+06)
(3.9006e+07 -3.20831e+07 -4.04792e-10 -3.53124e+07 4.37128e-09 1.10807e+06)
(-1.29669e+07 3.39342e+07 8.07655e-10 -1.44515e+08 -1.26505e-08 -4.72446e+07)
(-8.70588e+06 1.83376e+07 -1.37965e-08 -1.22891e+08 -1.778e-08 -3.94789e+07)
(-7.23121e+06 6.43828e+06 -1.39448e-08 -1.0546e+08 -1.45386e-08 -3.38073e+07)
(-1.24546e+06 -2.81749e+06 -7.2752e-09 -9.02327e+07 -2.37964e-08 -2.74434e+07)
(997036 -9.48686e+06 -1.32854e-08 -7.78179e+07 -1.8181e-08 -2.30462e+07)
(7.57393e+06 -1.52642e+07 -1.3202e-08 -6.65371e+07 -2.76127e-09 -1.76889e+07)
(9.93843e+06 -1.86999e+07 5.89273e-09 -5.74138e+07 1.45114e-08 -1.42426e+07)
(1.65267e+07 -2.25972e+07 -6.14897e-09 -4.86519e+07 -7.77173e-09 -9.63755e+06)
(1.88081e+07 -2.39671e+07 5.67569e-09 -4.18416e+07 -1.48866e-09 -6.91005e+06)
(2.51752e+07 -2.72233e+07 -1.3763e-09 -3.34455e+07 9.283e-10 -2.48107e+06)
(-9.90882e+06 2.72934e+07 -2.74029e-09 -1.62067e+08 -2.15992e-08 -5.15927e+07)
(-9.48806e+06 1.50441e+07 4.66187e-09 -1.35812e+08 7.74151e-09 -4.35899e+07)
(-1.05925e+07 5.79716e+06 8.93632e-09 -1.14846e+08 2.16554e-08 -3.76317e+07)
(-6.94695e+06 -1.57241e+06 -5.01559e-09 -9.66277e+07 -5.58502e-09 -3.10724e+07)
(-5.92755e+06 -6.75666e+06 8.76666e-09 -8.21652e+07 3.56215e-09 -2.64278e+07)
(-894044 -1.14375e+07 1.23315e-08 -6.88548e+07 2.14911e-08 -2.09247e+07)
(1.12254e+06 -1.40976e+07 9.89929e-09 -5.86413e+07 1.06521e-08 -1.72556e+07)
(6.57132e+06 -1.73154e+07 -1.6206e-09 -4.84227e+07 -6.94171e-09 -1.25554e+07)
(9.08277e+06 -1.83604e+07 4.21905e-09 -4.11468e+07 2.31833e-09 -9.61919e+06)
(1.44373e+07 -2.09219e+07 0 -3.22285e+07 0 -5.33736e+06)
(-7.2858e+06 1.76717e+07 3.57456e-09 -1.74648e+08 1.72114e-08 -5.458e+07)
(-9.64038e+06 9.83173e+06 9.69793e-09 -1.44935e+08 1.20179e-08 -4.63725e+07)
(-1.25953e+07 4.00285e+06 -6.01438e-09 -1.21438e+08 -8.84923e-09 -4.021e+07)
(-1.06765e+07 -744450 -2.63072e-09 -1.00959e+08 -4.13201e-09 -3.34907e+07)
(-1.05513e+07 -3.9735e+06 6.8041e-09 -8.50574e+07 1.13417e-08 -2.86826e+07)
(-6.67629e+06 -7.01755e+06 1.72769e-09 -7.0212e+07 3.08463e-09 -2.30665e+07)
(-4.9371e+06 -8.63175e+06 -2.75415e-09 -5.92426e+07 -2.78102e-09 -1.92539e+07)
(-345783 -1.07439e+07 -2.52637e-09 -4.79461e+07 -4.12527e-09 -1.44876e+07)
(2.29605e+06 -1.13309e+07 -3.771e-09 -4.03444e+07 -3.76674e-09 -1.14145e+07)
(6.93429e+06 -1.29581e+07 -1.03243e-09 -3.10907e+07 -1.06903e-09 -7.24693e+06)
(-5.784e+06 6.10914e+06 -6.86306e-09 -1.81057e+08 -4.3467e-09 -5.60522e+07)
(-9.61097e+06 3.42178e+06 -8.67172e-09 -1.49622e+08 -2.73163e-08 -4.77699e+07)
(-1.35042e+07 1.41013e+06 4.28232e-09 -1.24844e+08 -1.6638e-08 -4.15044e+07)
(-1.25063e+07 -230045 4.10956e-09 -1.03245e+08 6.56064e-09 -3.47253e+07)
(-1.28154e+07 -1.36127e+06 -3.34019e-09 -8.661e+07 -5.30032e-09 -2.98276e+07)
(-9.56617e+06 -2.421e+06 -8.98498e-11 -7.09969e+07 -5.6081e-09 -2.41689e+07)
(-7.93756e+06 -3.00226e+06 6.68091e-10 -5.9643e+07 -1.81852e-09 -2.02742e+07)
(-3.81788e+06 -3.74179e+06 -4.02927e-09 -4.77912e+07 -3.49441e-09 -1.54827e+07)
(-1.07678e+06 -3.96949e+06 -8.88868e-10 -4.00272e+07 -1.74041e-09 -1.23312e+07)
(3.16919e+06 -4.53009e+06 3.29814e-09 -3.05976e+07 1.18696e-09 -8.22853e+06)
(9.17322e+06 -4.7272e+06 2.2141e-09 -2.12427e+07 3.09775e-09 -3.62083e+06)
(1.26669e+07 -1.33838e+07 4.04763e-09 -2.20176e+07 2.14632e-09 -2.80521e+06)
(1.97086e+07 -2.16829e+07 -1.13812e-09 -2.37075e+07 -8.1514e-10 -1.19967e+06)
(2.96613e+07 -2.80683e+07 1.36463e-09 -2.5537e+07 8.1851e-10 1.23728e+06)
(4.27203e+07 -3.31611e+07 2.15091e-09 -2.81136e+07 1.85663e-09 4.38203e+06)
(5.76636e+07 -3.55031e+07 1.19527e-08 -2.97711e+07 3.15117e-09 8.36777e+06)
(7.47713e+07 -3.61718e+07 -8.83539e-09 -3.22239e+07 -6.043e-09 1.27642e+07)
(9.27219e+07 -3.37964e+07 -9.48867e-09 -3.28125e+07 -4.64777e-09 1.79728e+07)
(1.10078e+08 -3.07836e+07 -1.5115e-08 -3.51448e+07 -1.35127e-08 2.24801e+07)
(1.28198e+08 -2.61152e+07 2.91472e-08 -3.64922e+07 1.74925e-08 2.75118e+07)
(1.99227e+07 -4.59088e+06 -2.56197e-09 -8.33466e+06 -9.353e-10 3.47643e+06)
(2.26896e+07 -1.29026e+07 6.65261e-11 -9.5034e+06 2.47469e-11 3.95585e+06)
(2.82308e+07 -2.12121e+07 -6.12488e-09 -1.18222e+07 -2.46357e-09 4.92257e+06)
(3.60827e+07 -2.76642e+07 -7.63388e-09 -1.49056e+07 -1.93847e-09 6.35313e+06)
(4.62773e+07 -3.35717e+07 1.17948e-08 -1.86994e+07 4.03715e-09 8.27339e+06)
(5.80127e+07 -3.65719e+07 6.90954e-09 -2.24197e+07 2.46984e-09 1.06779e+07)
(7.13066e+07 -3.90011e+07 -4.8209e-09 -2.58527e+07 -1.04424e-09 1.36362e+07)
(8.56528e+07 -3.72531e+07 0 -2.84186e+07 0 1.71702e+07)
(1.00877e+08 -3.52358e+07 7.92049e-09 -2.90273e+07 6.24492e-09 2.1555e+07)
(1.16116e+08 -2.89653e+07 1.79094e-09 -3.04823e+07 -3.52704e-09 2.569e+07)
(2.78609e+07 -4.25778e+06 6.39324e-10 539012 4.78917e-10 8.51997e+06)
(3.03894e+07 -1.18602e+07 4.72767e-09 -353804 1.37408e-09 9.01067e+06)
(3.54055e+07 -1.96042e+07 -3.05453e-09 -2.02837e+06 -8.01285e-10 1.00131e+07)
(4.27291e+07 -2.55438e+07 -1.15333e-08 -4.56334e+06 -3.36465e-09 1.14497e+07)
(5.21195e+07 -3.1216e+07 -1.22215e-09 -7.5233e+06 -1.02255e-09 1.33789e+07)
(6.34235e+07 -3.43184e+07 9.84661e-10 -1.14275e+07 -4.83663e-10 1.55988e+07)
(7.56738e+07 -3.72934e+07 -7.22256e-09 -1.48459e+07 -2.62074e-09 1.82484e+07)
(8.9297e+07 -3.74252e+07 -1.28074e-08 -1.9751e+07 -4.66698e-09 2.08638e+07)
(1.01857e+08 -3.74144e+07 1.40346e-08 -2.17378e+07 5.72649e-09 2.40359e+07)
(1.13821e+08 -3.49862e+07 2.87843e-08 -2.60752e+07 1.4295e-08 2.63237e+07)
(3.73047e+07 -4.11999e+06 -2.57262e-09 6.18132e+06 -8.4807e-10 1.30458e+07)
(3.92099e+07 -1.15169e+07 1.62793e-09 5.2175e+06 1.43979e-10 1.33282e+07)
(4.28819e+07 -1.91533e+07 8.65336e-09 3.71712e+06 1.67062e-09 1.39797e+07)
(4.842e+07 -2.51995e+07 5.70809e-09 1.08465e+06 1.26579e-09 1.48514e+07)
(5.53443e+07 -3.10266e+07 9.57445e-09 -1.21061e+06 2.3285e-09 1.62401e+07)
(6.41419e+07 -3.45037e+07 -9.07399e-09 -4.90589e+06 -2.47744e-09 1.77708e+07)
(7.38195e+07 -3.73348e+07 -2.32098e-08 -6.90844e+06 -6.85864e-09 2.00733e+07)
(8.54979e+07 -3.76705e+07 4.21442e-09 -1.12568e+07 1.29143e-09 2.22723e+07)
(9.77363e+07 -3.68544e+07 4.34278e-09 -1.24927e+07 1.32234e-09 2.55731e+07)
(1.09543e+08 -3.51077e+07 -4.74466e-09 -1.71606e+07 -1.73293e-09 2.77147e+07)
(4.4716e+07 -3.58468e+06 -5.40536e-10 1.18738e+07 -3.07494e-10 1.69769e+07)
(4.6559e+07 -1.01359e+07 -4.65316e-09 1.09996e+07 -5.14828e-10 1.72676e+07)
(5.00053e+07 -1.68308e+07 -4.24915e-09 9.76746e+06 -6.07384e-10 1.79318e+07)
(5.53487e+07 -2.24406e+07 2.12911e-09 7.19851e+06 2.24599e-10 1.87642e+07)
(6.17622e+07 -2.78188e+07 1.10859e-08 5.06408e+06 1.91076e-09 2.00479e+07)
(6.99466e+07 -3.18785e+07 7.86432e-09 1.07622e+06 1.51776e-09 2.13069e+07)
(7.83847e+07 -3.52179e+07 9.02383e-09 -1.19731e+06 2.3817e-09 2.31562e+07)
(8.81849e+07 -3.73844e+07 -3.37007e-09 -5.73171e+06 -9.5669e-10 2.4736e+07)
(9.79225e+07 -3.78191e+07 7.15038e-09 -7.25494e+06 2.45245e-09 2.72003e+07)
(1.07313e+08 -3.74187e+07 3.97635e-09 -1.09595e+07 1.50414e-09 2.8906e+07)
(5.22504e+07 -3.43244e+06 0 1.44333e+07 0 2.00051e+07)
(5.35949e+07 -9.87415e+06 -4.28209e-10 1.36963e+07 3.91536e-10 2.01874e+07)
(5.60718e+07 -1.62448e+07 -4.68654e-10 1.28393e+07 -4.69939e-10 2.06733e+07)
(6.00743e+07 -2.17734e+07 -1.14596e-08 1.07484e+07 -1.95524e-09 2.12468e+07)
(6.49639e+07 -2.66786e+07 1.17933e-10 9.34525e+06 -2.13148e-12 2.22928e+07)
(7.15298e+07 -3.05916e+07 -2.71463e-09 6.1764e+06 -2.20807e-10 2.33119e+07)
(7.8792e+07 -3.32799e+07 1.25349e-10 4.52132e+06 5.46448e-12 2.4994e+07)
(8.75235e+07 -3.53829e+07 3.00002e-09 685082 5.41461e-10 2.64626e+07)
(9.68389e+07 -3.57917e+07 -1.72341e-08 -1.13709e+06 -5.0745e-09 2.87105e+07)
(1.05718e+08 -3.6129e+07 2.08964e-08 -4.73187e+06 6.7645e-09 3.02958e+07)
(5.91975e+07 -2.95528e+06 2.00627e-09 1.7587e+07 -1.30994e-11 2.30353e+07)
(6.04946e+07 -8.74043e+06 -2.56792e-09 1.68576e+07 -7.64832e-10 2.32057e+07)
(6.2853e+07 -1.43237e+07 3.29825e-10 1.59706e+07 -4.96633e-10 2.36471e+07)
(6.65808e+07 -1.95934e+07 2.76979e-09 1.38915e+07 6.15458e-10 2.41417e+07)
(7.10073e+07 -2.42088e+07 1.16738e-09 1.23578e+07 7.35497e-10 2.50095e+07)
(7.66837e+07 -2.85108e+07 -2.86533e-09 9.3381e+06 -7.02808e-11 2.58065e+07)
(8.27645e+07 -3.15207e+07 -7.95281e-09 7.56754e+06 -1.39484e-09 2.70996e+07)
(8.98148e+07 -3.43327e+07 5.90946e-09 4.33503e+06 1.5124e-09 2.8245e+07)
(9.73478e+07 -3.52702e+07 -3.37311e-09 2.59395e+06 -1.37099e-09 2.99825e+07)
(1.04783e+08 -3.60715e+07 -1.57768e-09 -238399 8.45732e-10 3.13633e+07)
(6.51251e+07 -2.76901e+06 4.38241e-10 1.88452e+07 3.86914e-10 2.51911e+07)
(6.6079e+07 -8.34384e+06 1.07844e-09 1.82935e+07 4.25776e-10 2.53118e+07)
(6.7859e+07 -1.34953e+07 -6.59635e-09 1.767e+07 -2.96024e-10 2.56587e+07)
(7.07249e+07 -1.84711e+07 -7.44733e-09 1.60871e+07 -3.84399e-10 2.60436e+07)
(7.43386e+07 -2.25438e+07 7.8262e-10 1.4913e+07 7.6942e-10 2.67755e+07)
(7.90609e+07 -2.64897e+07 5.37043e-09 1.25166e+07 -1.04126e-10 2.74733e+07)
(8.44926e+07 -2.90785e+07 -7.48303e-09 1.08675e+07 -1.0926e-09 2.8608e+07)
(9.07829e+07 -3.17762e+07 -1.38871e-08 8.08597e+06 -2.69671e-09 2.96607e+07)
(9.76697e+07 -3.28496e+07 3.51843e-10 6.15666e+06 -5.17658e-12 3.11479e+07)
(1.04372e+08 -3.40529e+07 1.11784e-08 3.59022e+06 5.5244e-09 3.23887e+07)
(7.14119e+07 -2.43062e+06 -2.43434e-09 2.03499e+07 1.92722e-11 2.75285e+07)
(7.22817e+07 -7.52094e+06 2.47256e-09 1.98051e+07 -6.537e-11 2.76261e+07)
(7.39188e+07 -1.21338e+07 1.78037e-09 1.90929e+07 5.24657e-10 2.79035e+07)
(7.64195e+07 -1.68669e+07 -1.37099e-10 1.75826e+07 9.02306e-12 2.82006e+07)
(7.95576e+07 -2.07375e+07 -1.47208e-08 1.63008e+07 -1.93324e-09 2.87575e+07)
(8.3437e+07 -2.47166e+07 6.07874e-09 1.41793e+07 -2.90864e-10 2.92849e+07)
(8.79141e+07 -2.73993e+07 8.46401e-09 1.25313e+07 2.06921e-09 3.01336e+07)
(9.29928e+07 -3.0186e+07 1.4206e-15 1.02394e+07 -2.93039e-17 3.09696e+07)
(9.86639e+07 -3.14503e+07 -1.02044e-09 8.40262e+06 1.35263e-09 3.212e+07)
(1.04345e+08 -3.27608e+07 2.50382e-09 6.24511e+06 1.56731e-09 3.31771e+07)
(7.61966e+07 -2.23466e+06 2.2317e-09 2.10302e+07 -5.23629e-10 2.9168e+07)
(7.68577e+07 -6.99625e+06 2.76309e-09 2.0612e+07 -8.17443e-11 2.92409e+07)
(7.81685e+07 -1.11895e+07 2.55316e-09 2.00255e+07 -1.03242e-10 2.94582e+07)
(8.01588e+07 -1.55306e+07 7.93175e-09 1.88304e+07 3.26842e-10 2.96968e+07)
(8.28227e+07 -1.89783e+07 -5.99172e-09 1.76781e+07 -5.52821e-10 3.01503e+07)
(8.61141e+07 -2.25753e+07 -6.47704e-09 1.58937e+07 -1.72713e-09 3.06023e+07)
(9.00763e+07 -2.50066e+07 6.91724e-09 1.42631e+07 8.57804e-10 3.13018e+07)
(9.45427e+07 -2.76309e+07 3.18558e-09 1.22042e+07 -1.33832e-10 3.20241e+07)
(9.95428e+07 -2.89248e+07 1.16935e-08 1.03326e+07 1.20037e-09 3.29626e+07)
(1.0451e+08 -3.03874e+07 8.79876e-09 8.33342e+06 1.47743e-09 3.3853e+07)
(8.1663e+07 -2.00653e+06 2.80898e-09 2.17454e+07 -1.83804e-11 3.10225e+07)
(8.2223e+07 -6.3743e+06 2.83074e-09 2.13382e+07 -7.29321e-11 3.10684e+07)
(8.33548e+07 -1.01948e+07 2.87052e-09 2.06995e+07 -1.03164e-10 3.12163e+07)
(8.49861e+07 -1.42576e+07 4.23803e-09 1.95743e+07 1.4085e-09 3.13681e+07)
(8.72006e+07 -1.751e+07 3.05091e-09 1.83896e+07 -1.09375e-09 3.1677e+07)
(8.98137e+07 -2.09396e+07 -6.00125e-09 1.67889e+07 -1.80136e-09 3.19808e+07)
(9.30507e+07 -2.33075e+07 3.56932e-09 1.51982e+07 1.01777e-09 3.24747e+07)
(9.66148e+07 -2.58052e+07 -7.48293e-09 1.33927e+07 -9.48632e-10 3.30023e+07)
(1.00774e+08 -2.71136e+07 4.89377e-09 1.15689e+07 1.29265e-09 3.37028e+07)
(1.04911e+08 -2.85067e+07 -3.39736e-09 9.771e+06 1.0541e-09 3.44045e+07)
(8.56177e+07 -1.81779e+06 -3.25835e-10 2.22719e+07 -6.30254e-10 3.23669e+07)
(8.60551e+07 -5.80289e+06 -2.84949e-09 2.19289e+07 6.27859e-11 3.23952e+07)
(8.69864e+07 -9.24688e+06 -1.71218e-09 2.13334e+07 7.81154e-10 3.24959e+07)
(8.83065e+07 -1.29088e+07 0 2.03575e+07 0 3.25992e+07)
(9.01889e+07 -1.58309e+07 6.4948e-10 1.92012e+07 -9.6633e-10 3.2817e+07)
(9.23912e+07 -1.89004e+07 1.40843e-10 1.77496e+07 -6.69239e-12 3.30422e+07)
(9.51766e+07 -2.10759e+07 6.66499e-09 1.61414e+07 2.06477e-09 3.33954e+07)
(9.82342e+07 -2.33526e+07 -3.43692e-09 1.44426e+07 1.89769e-10 3.3803e+07)
(1.01753e+08 -2.46047e+07 8.74839e-09 1.2594e+07 2.59465e-09 3.43042e+07)
(1.05305e+08 -2.59941e+07 5.09433e-09 1.08601e+07 -5.52524e-11 3.48494e+07)
(9.02171e+07 -1.64842e+06 3.03883e-10 2.28911e+07 6.9334e-10 3.39325e+07)
(9.05599e+07 -5.27669e+06 3.84454e-09 2.25509e+07 6.62461e-10 3.39332e+07)
(9.13043e+07 -8.42556e+06 -1.31203e-09 2.19332e+07 -7.49532e-10 3.39712e+07)
(9.23222e+07 -1.17799e+07 3.30019e-09 2.09794e+07 -1.09208e-10 3.39905e+07)
(9.38045e+07 -1.44959e+07 -2.3972e-09 1.98264e+07 -8.74325e-10 3.40893e+07)
(9.54858e+07 -1.73084e+07 -8.97772e-09 1.84214e+07 -6.75982e-10 3.41721e+07)
(9.77032e+07 -1.93493e+07 6.16438e-09 1.6871e+07 2.13977e-09 3.43722e+07)
(1.00031e+08 -2.14201e+07 -3.72434e-09 1.5205e+07 -1.17772e-09 3.45707e+07)
(1.02988e+08 -2.2604e+07 -3.61258e-09 1.34257e+07 -1.31859e-09 3.49242e+07)
(1.05533e+08 -2.38768e+07 2.50295e-08 1.17242e+07 5.1059e-09 3.51773e+07)
(9.34809e+07 -1.46454e+06 -5.5914e-10 2.36608e+07 -1.45032e-09 3.51425e+07)
(9.37484e+07 -4.70274e+06 6.68882e-09 2.33362e+07 -5.69774e-11 3.51254e+07)
(9.43465e+07 -7.49548e+06 9.99394e-10 2.27247e+07 7.81278e-10 3.51214e+07)
(9.51593e+07 -1.04772e+07 -3.16599e-09 2.17974e+07 5.76681e-11 3.5087e+07)
(9.63692e+07 -1.28865e+07 4.05912e-09 2.06438e+07 1.8171e-09 3.51039e+07)
(9.77412e+07 -1.53864e+07 -6.75686e-09 1.92429e+07 1.63779e-10 3.50952e+07)
(9.95622e+07 -1.72193e+07 -3.21878e-09 1.76878e+07 8.53433e-11 3.5175e+07)
(1.01479e+08 -1.90553e+07 3.22771e-09 1.59922e+07 -1.01637e-10 3.52414e+07)
(1.03905e+08 -2.01893e+07 -6.81732e-09 1.42125e+07 -1.2419e-09 3.54352e+07)
(1.06108e+08 -2.12067e+07 -3.383e-09 1.24241e+07 1.11054e-10 3.55596e+07)
(9.72165e+07 -1.30983e+06 -6.98309e-09 2.47703e+07 -7.58683e-10 3.6596e+07)
(9.74047e+07 -4.20213e+06 -9.29977e-09 2.44366e+07 7.78422e-10 3.65524e+07)
(9.78376e+07 -6.70687e+06 5.43271e-09 2.37841e+07 1.61885e-09 3.64865e+07)
(9.84085e+07 -9.37571e+06 -1.01386e-08 2.28385e+07 1.28611e-11 3.63741e+07)
(9.92853e+07 -1.15416e+07 -3.39002e-09 2.16236e+07 2.73302e-13 3.62726e+07)
(1.00261e+08 -1.37772e+07 3.3949e-09 2.02076e+07 -1.05758e-11 3.61405e+07)
(1.01601e+08 -1.54049e+07 7.53195e-10 1.85805e+07 -1.13489e-09 3.60543e+07)
(1.03008e+08 -1.70406e+07 5.37522e-10 1.68752e+07 -1.2487e-09 3.59649e+07)
(1.04813e+08 -1.79824e+07 3.25072e-09 1.50096e+07 1.36411e-09 3.59469e+07)
(1.06542e+08 -1.89022e+07 3.3829e-09 1.319e+07 1.47906e-09 3.59196e+07)
(9.98008e+07 -1.11925e+06 -3.67326e-09 2.62312e+07 -7.55332e-10 3.78096e+07)
(9.9937e+07 -3.59652e+06 -5.30536e-09 2.5881e+07 -2.31342e-09 3.77454e+07)
(1.0026e+08 -5.73829e+06 4.62894e-09 2.51927e+07 8.70415e-10 3.76358e+07)
(1.00677e+08 -8.02359e+06 6.04204e-09 2.41945e+07 1.78309e-09 3.74615e+07)
(1.01337e+08 -9.88436e+06 -3.45657e-09 2.29107e+07 -1.86616e-09 3.72744e+07)
(1.02052e+08 -1.17978e+07 -7.04806e-10 2.14083e+07 -1.93846e-09 3.7038e+07)
(1.03069e+08 -1.3216e+07 -3.34544e-09 1.96911e+07 -1.05752e-10 3.68281e+07)
(1.04086e+08 -1.45973e+07 2.60501e-09 1.78853e+07 1.23399e-09 3.65913e+07)
(1.05478e+08 -1.54457e+07 3.40965e-09 1.59177e+07 1.10349e-10 3.64187e+07)
(1.06689e+08 -1.61659e+07 1.41e-08 1.40218e+07 2.36714e-09 3.62132e+07)
(1.0263e+08 -946520 1.03205e-08 2.84469e+07 -6.13716e-10 3.9323e+07)
(1.02707e+08 -3.04038e+06 2.97507e-09 2.80646e+07 -6.41791e-10 3.92315e+07)
(1.02899e+08 -4.85313e+06 -3.50861e-09 2.72893e+07 -1.27986e-10 3.90564e+07)
(1.03141e+08 -6.78677e+06 4.81235e-09 2.6201e+07 9.9109e-10 3.88025e+07)
(1.03536e+08 -8.36019e+06 -6.63885e-11 2.47609e+07 -6.40705e-12 3.84892e+07)
(1.03971e+08 -9.97539e+06 -1.47299e-09 2.31225e+07 7.78883e-10 3.81281e+07)
(1.04592e+08 -1.11613e+07 -3.61065e-09 2.12105e+07 -2.686e-10 3.77406e+07)
(1.05253e+08 -1.23107e+07 -7.21087e-09 1.92289e+07 -3.65968e-09 3.73445e+07)
(1.06111e+08 -1.29899e+07 -1.80427e-09 1.70798e+07 -2.4435e-09 3.69572e+07)
(1.06952e+08 -1.35499e+07 1.16442e-08 1.49593e+07 6.68225e-09 3.65733e+07)
(1.04415e+08 -720526 7.25989e-09 3.11838e+07 7.06587e-10 4.06795e+07)
(1.04458e+08 -2.31344e+06 4.0297e-09 3.07532e+07 7.70214e-10 4.05634e+07)
(1.04575e+08 -3.69623e+06 8.64779e-10 2.98829e+07 6.84472e-10 4.03372e+07)
(1.04711e+08 -5.17401e+06 1.14536e-09 2.86537e+07 7.45611e-10 4.00093e+07)
(1.04949e+08 -6.38093e+06 3.51222e-09 2.70368e+07 3.61064e-10 3.95959e+07)
(1.05191e+08 -7.62871e+06 -1.75999e-09 2.51817e+07 -9.39835e-10 3.91117e+07)
(1.05564e+08 -8.5401e+06 1.53196e-09 2.30388e+07 -6.0007e-10 3.85809e+07)
(1.05924e+08 -9.44595e+06 1.2334e-09 2.07984e+07 -7.14205e-10 3.80167e+07)
(1.0645e+08 -9.94488e+06 -3.35047e-09 1.83994e+07 -4.6719e-10 3.74549e+07)
(1.06888e+08 -1.04076e+07 -7.62049e-09 1.60262e+07 2.63035e-11 3.68742e+07)
(1.06154e+08 -489070 -7.06799e-09 3.5304e+07 -1.3341e-10 4.24375e+07)
(1.06164e+08 -1.57698e+06 7.55292e-09 3.48033e+07 8.88399e-10 4.22901e+07)
(1.06198e+08 -2.51658e+06 7.57281e-10 3.37659e+07 5.38728e-10 4.19892e+07)
(1.06232e+08 -3.5317e+06 7.03891e-09 3.23334e+07 8.72949e-10 4.15695e+07)
(1.06308e+08 -4.35188e+06 -3.50858e-09 3.03892e+07 -5.33147e-10 4.10091e+07)
(1.06381e+08 -5.21672e+06 8.56966e-09 2.82209e+07 2.04606e-09 4.03805e+07)