/*--------------------------------*- C++ -*----------------------------------*\
| =========                 |                                                 |
| \\      /  F ield         | OpenFOAM: The Open Source CFD Toolbox           |
|  \\    /   O peration     | Version:  v2012                                 |
|   \\  /    A nd           | Website:  www.openfoam.com                      |
|    \\/     M anipulation  |                                                 |
\*---------------------------------------------------------------------------*/
FoamFile
{
    version     2.0;
    format      ascii;
    class       pointSymmTensorField;
    location    "17";
    object      pEpsilon;
}
// * * * * * * * * * * * * * * * * * * * * * * * * * * * * * * * * * * * * * //

dimensions      [0 0 0 0 0 0 0];


internalField   nonuniform List<symmTensor> 
32562
(
(0.000450798 -9.77122e-06 1.25117e-15 -0.00111017 0 0)
(0.000413378 -2.58548e-06 -9.19403e-16 3.61351e-05 0 0)
(0.000521041 9.26271e-08 9.99634e-16 -0.00022332 -8.53809e-18 0)
(4.63134e-05 4.39179e-05 0 -3.29707e-05 -5.51859e-16 0)
(0.00809056 -0.000267291 0 -0.00870903 -2.35589e-14 0)
(4.60008e-05 -8.98791e-06 -6.72205e-17 -0.000173338 0 0)
(0.00179636 9.22274e-05 0 -0.000191991 1.16335e-15 0)
(0.000611809 -0.000184152 5.24754e-16 -0.000430946 2.82164e-16 0)
(0.00149868 -8.38171e-06 -4.92228e-16 -0.000655721 1.32652e-15 0)
(0.000478476 -5.04561e-06 -1.21431e-16 -0.000122282 -1.16597e-15 0)
(-4.5642e-05 0.000135912 -1.60462e-16 -7.19114e-05 -7.15573e-17 0)
(-4.5642e-05 0.000135912 -1.60462e-16 -7.19114e-05 -7.15573e-17 0)
(0.000611809 -0.000184152 5.24754e-16 -0.000430946 2.82164e-16 0)
(0.00179636 9.22274e-05 0 -0.000191991 1.16335e-15 0)
(0.00809056 -0.000267291 0 -0.00870903 -2.35589e-14 0)
(0.000450798 -9.77122e-06 1.25117e-15 -0.00111017 0 0)
(4.60008e-05 -8.98791e-06 -6.72205e-17 -0.000173338 0 0)
(0.000413378 -2.58548e-06 -9.19403e-16 3.61351e-05 0 0)
(0.000478476 -5.04561e-06 -1.21431e-16 -0.000122282 -1.16597e-15 0)
(0.000521041 9.26271e-08 9.99634e-16 -0.00022332 -8.53809e-18 0)
(0.00149868 -8.38171e-06 -4.92228e-16 -0.000655721 1.32652e-15 0)
(4.63134e-05 4.39179e-05 0 -3.29707e-05 -5.51859e-16 0)
(0.00177641 8.23808e-05 2.34089e-15 -0.000231659 -4.00071e-16 0)
(0.00178801 0.000152199 -1.36975e-15 -0.000271529 5.01118e-15 0)
(0.00180699 0.00021198 -4.18326e-15 -0.000333875 -1.92988e-15 0)
(0.00183435 0.000250863 -2.70373e-15 -0.00041866 -4.38018e-16 0)
(0.00188163 0.000272465 -4.6103e-15 -0.00053774 -1.02023e-15 0)
(0.0019408 0.00028396 1.62278e-15 -0.000671224 -1.49403e-15 0)
(0.00200524 0.000288456 -1.99656e-15 -0.000808212 -1.71304e-15 0)
(0.0020655 0.000285703 3.40982e-15 -0.000938966 -3.13985e-15 0)
(0.00211528 0.000275752 1.19425e-15 -0.0010574 1.73472e-17 0)
(0.00214918 0.000258402 -2.74032e-16 -0.00115816 -2.20093e-16 0)
(0.00216313 0.000233546 -4.76236e-16 -0.00123759 4.0495e-15 0)
(0.00215459 0.000201791 -2.20364e-16 -0.00129319 1.12107e-15 0)
(0.00212205 0.00016405 -1.6694e-15 -0.00132343 -3.9736e-16 0)
(0.00206471 0.000121533 -7.87131e-16 -0.00132741 2.98318e-15 0)
(0.00198248 7.5765e-05 3.60497e-17 -0.00130497 -4.20725e-15 0)
(0.00187643 2.84654e-05 1.10534e-15 -0.00125716 2.60209e-17 0)
(0.00174877 -1.83231e-05 2.96909e-15 -0.00118583 -1.6095e-15 0)
(0.00160361 -6.15692e-05 3.26562e-15 -0.00109375 -1.19045e-15 0)
(0.00144998 -9.66685e-05 -3.83808e-16 -0.00098688 2.14509e-15 0)
(0.00130306 -0.000118324 -1.73906e-15 -0.000876589 1.81604e-15 0)
(0.00118373 -0.000123674 -4.1449e-15 -0.000781303 5.65411e-16 0)
(0.00110426 -0.000119272 -2.90729e-15 -0.00071922 2.73219e-16 0)
(0.00105618 -0.000114622 -2.1478e-15 -0.000687145 -4.24465e-16 0)
(0.00101988 -0.000109157 -1.58185e-15 -0.000659667 -1.27014e-15 0)
(0.000986424 -0.000106517 -3.57949e-15 -0.000632998 -1.09938e-15 0)
(0.000954153 -0.000106334 -3.22659e-15 -0.000608046 -6.17995e-16 0)
(0.000923337 -0.000107615 -3.58329e-16 -0.000585259 -1.41488e-15 0)
(0.000894081 -0.000109832 -7.50268e-16 -0.000564677 -2.12558e-15 0)
(0.000866331 -0.000112708 -7.86047e-17 -0.000546182 1.07878e-15 0)
(0.000839968 -0.000116099 1.40513e-15 -0.000529594 2.01607e-15 0)
(0.000814845 -0.000119929 -5.15538e-16 -0.000514716 1.54038e-15 0)
(0.000790813 -0.000124154 4.26634e-16 -0.000501352 1.05791e-15 0)
(0.000767724 -0.000128748 -6.348e-16 -0.000489316 3.13877e-16 0)
(0.000745445 -0.000133683 -1.63389e-15 -0.000478433 -3.23363e-16 0)
(0.000723864 -0.000138927 2.10986e-15 -0.000468558 -2.75387e-16 0)
(0.000702917 -0.000144424 4.44523e-16 -0.000459583 -8.53809e-16 0)
(0.000682643 -0.000150042 8.91214e-16 -0.000451485 1.59025e-15 0)
(0.000663348 -0.000155339 -1.67726e-15 -0.000444458 -1.25144e-15 0)
(0.000646095 -0.000158098 -3.46945e-16 -0.000439487 -2.31477e-16 0)
(0.000590235 -0.000187469 1.72497e-15 -0.000408139 8.10441e-17 0)
(0.000572276 -0.00019331 1.36067e-15 -0.000406276 8.09357e-16 0)
(0.000553408 -0.000198555 -1.0842e-15 -0.000401468 -4.34087e-16 0)
(0.000534109 -0.000203521 -1.00614e-15 -0.000395447 -1.1235e-16 0)
(0.000514572 -0.000208226 -5.76796e-16 -0.000388784 -1.87025e-16 0)
(0.000494892 -0.000212618 9.25909e-16 -0.000381712 1.35471e-15 0)
(0.000475129 -0.000216627 -3.6646e-16 -0.000374338 3.45996e-16 0)
(0.000455324 -0.000220187 -6.01732e-16 -0.000366721 5.19197e-16 0)
(0.000435515 -0.000223236 7.58942e-17 -0.000358895 4.59837e-16 0)
(0.000415737 -0.000225722 1.97325e-16 -0.000350887 1.96105e-16 0)
(0.000396029 -0.000227599 1.58294e-16 -0.000342719 1.37965e-16 0)
(0.00037643 -0.000228825 1.47451e-16 -0.000334417 4.47233e-16 0)
(0.000356981 -0.00022937 -3.82723e-16 -0.000326005 4.54958e-16 0)
(0.000337726 -0.000229207 4.44523e-17 -0.000317511 5.39662e-16 0)
(0.000318709 -0.000228314 -4.26091e-16 -0.000308965 -2.7986e-17 0)
(0.000299976 -0.000226676 -3.30682e-16 -0.000300397 7.48099e-17 0)
(0.000281574 -0.000224284 -3.08998e-16 -0.000291841 1.03812e-16 0)
(0.00026355 -0.000221131 -1.17094e-16 -0.000283329 7.51488e-17 0)
(0.00024595 -0.000217219 2.1684e-16 -0.000274897 1.41963e-16 0)
(0.00022882 -0.000212549 3.46945e-17 -0.000266578 3.56431e-17 0)
(0.000212207 -0.000207132 2.15756e-16 -0.000258408 9.28348e-18 0)
(0.000196155 -0.000200979 2.97071e-16 -0.000250422 3.88686e-16 0)
(0.000180708 -0.000194106 7.80626e-17 -0.000242655 2.50417e-16 0)
(0.000165909 -0.000186534 -5.42101e-17 -0.00023514 -3.38474e-17 0)
(0.000151799 -0.000178285 1.20346e-16 -0.00022791 -2.12097e-17 0)
(0.000138418 -0.000169386 6.17995e-17 -0.000220997 -5.39729e-17 0)
(0.000125803 -0.000159866 0 -0.000214433 4.87552e-17 0)
(0.000113991 -0.000149759 1.4203e-16 -0.000208247 4.05221e-17 0)
(0.000103016 -0.000139098 -3.68629e-17 -0.000202468 1.35864e-17 0)
(9.29105e-05 -0.000127921 4.66207e-17 -0.000197123 -2.95445e-17 0)
(8.37043e-05 -0.000116269 -9.6494e-17 -0.000192236 1.70592e-16 0)
(7.54259e-05 -0.000104182 -9.54098e-17 -0.000187833 2.04321e-16 0)
(6.81017e-05 -9.17046e-05 -7.80626e-17 -0.000183934 1.20143e-16 0)
(6.17566e-05 -7.88801e-05 5.52943e-17 -0.000180563 4.25888e-17 0)
(5.64154e-05 -6.57519e-05 1.24683e-16 -0.00017774 1.0842e-18 0)
(5.21059e-05 -5.2358e-05 4.77049e-17 -0.000175488 5.92584e-17 0)
(4.88693e-05 -3.87174e-05 1.73472e-17 -0.000173844 -2.63088e-17 0)
(4.67949e-05 -2.47729e-05 -3.57787e-17 -0.00017287 -1.66874e-16 0)
(4.61711e-05 -1.00715e-05 -2.49366e-17 -0.00017266 -6.73074e-17 0)
(0.000433987 -1.08116e-05 -2.51535e-16 -0.00105119 0 0)
(0.000406179 -8.96772e-06 1.38778e-16 -0.00100057 0 0)
(0.000379524 -8.10461e-06 -3.55618e-16 -0.0009535 0 0)
(0.00035411 -7.76215e-06 -7.39426e-16 -0.000909101 0 0)
(0.000330051 -7.70029e-06 5.74627e-16 -0.000867028 0 0)
(0.000307399 -7.78958e-06 1.32815e-15 -0.000827091 0 0)
(0.000286152 -7.95855e-06 5.75711e-16 -0.000789151 0 0)
(0.000266276 -8.16704e-06 7.23163e-16 -0.000753089 0 0)
(0.000247715 -8.39217e-06 8.80372e-16 -0.000718795 0 0)
(0.000230407 -8.62084e-06 4.14165e-16 -0.00068617 0 0)
(0.000214286 -8.84551e-06 5.86553e-16 -0.000655118 0 0)
(0.000199283 -9.06194e-06 4.58618e-16 -0.000625549 0 0)
(0.000185334 -9.2678e-06 2.11419e-16 -0.000597381 0 0)
(0.000172376 -9.46192e-06 3.70797e-16 -0.000570535 0 0)
(0.000160347 -9.64383e-06 4.01155e-16 -0.000544937 0 0)
(0.000149193 -9.81345e-06 3.16587e-16 -0.000520519 0 0)
(0.000138859 -9.97098e-06 2.98156e-16 -0.000497216 0 0)
(0.000129296 -1.01167e-05 1.47451e-16 -0.000474969 0 0)
(0.000120456 -1.02511e-05 4.05492e-16 -0.000453721 0 0)
(0.000112296 -1.03745e-05 1.55041e-16 -0.000433419 0 0)
(0.000104773 -1.04873e-05 2.36356e-16 -0.000414014 0 0)
(9.78505e-05 -1.059e-05 5.96311e-17 -0.000395459 0 0)
(9.14908e-05 -1.06826e-05 5.96311e-17 -0.000377711 0 0)
(8.56602e-05 -1.07656e-05 4.44523e-17 -0.000360728 0 0)
(8.03267e-05 -1.08388e-05 5.85469e-17 -0.000344474 0 0)
(7.54599e-05 -1.09021e-05 2.81893e-17 -0.000328911 0 0)
(7.10312e-05 -1.09551e-05 1.25767e-16 -0.000314006 0 0)
(6.70132e-05 -1.09968e-05 1.9082e-16 -0.000299727 0 0)
(6.33797e-05 -1.10259e-05 2.05998e-17 -0.000286044 0 0)
(6.01053e-05 -1.10401e-05 -3.36103e-17 -0.000272929 0 0)
(5.71647e-05 -1.1036e-05 -5.85469e-17 -0.000260357 0 0)
(5.4533e-05 -1.10086e-05 -2.27682e-17 -0.000248303 0 0)
(5.21848e-05 -1.09505e-05 1.0842e-17 -0.000236747 0 0)
(5.00938e-05 -1.08513e-05 1.73472e-17 -0.00022567 0 0)
(4.82329e-05 -1.06963e-05 3.36103e-17 -0.000215061 0 0)
(4.65756e-05 -1.04654e-05 -1.95156e-17 -0.000204917 0 0)
(4.5101e-05 -1.01334e-05 -1.24683e-16 -0.000195256 0 0)
(4.38087e-05 -9.67345e-06 -1.34441e-16 -0.00018614 0 0)
(4.27654e-05 -9.07369e-06 -1.19262e-16 -0.000177742 0 0)
(4.84939e-05 -8.83182e-06 -1.0842e-17 -0.000158074 0 0)
(4.7667e-05 -9.65771e-06 -2.1684e-17 -0.000138593 0 0)
(4.84021e-05 -9.86258e-06 -2.1684e-17 -0.000120992 0 0)
(5.03076e-05 -9.8017e-06 -4.11997e-17 -0.000105154 0 0)
(5.31353e-05 -9.62985e-06 1.95156e-17 -9.09199e-05 0 0)
(5.67199e-05 -9.41252e-06 6.50521e-18 -7.81386e-05 0 0)
(6.09418e-05 -9.17783e-06 1.73472e-17 -6.66754e-05 0 0)
(6.57085e-05 -8.93816e-06 -2.05998e-17 -5.64113e-05 0 0)
(7.0945e-05 -8.69919e-06 1.51788e-17 -4.72417e-05 0 0)
(7.65881e-05 -8.46362e-06 1.84314e-17 -3.90735e-05 0 0)
(8.25842e-05 -8.23279e-06 1.73472e-17 -3.18238e-05 0 0)
(8.88866e-05 -8.0074e-06 1.51788e-17 -2.54183e-05 0 0)
(9.54545e-05 -7.78778e-06 -1.22515e-16 -1.97898e-05 0 0)
(0.000102252 -7.5741e-06 -8.99888e-17 -1.48776e-05 0 0)
(0.000109247 -7.36641e-06 -4.01155e-17 -1.06263e-05 0 0)
(0.000116411 -7.16469e-06 -5.63785e-17 -6.98534e-06 0 0)
(0.000123718 -6.96889e-06 -1.76725e-16 -3.90828e-06 0 0)
(0.000131147 -6.77891e-06 -2.1684e-17 -1.35241e-06 0 0)
(0.000138674 -6.59465e-06 6.50521e-17 7.21775e-07 0 0)
(0.000146283 -6.41597e-06 -3.25261e-17 2.35087e-06 0 0)
(0.000153956 -6.24275e-06 -5.31259e-17 3.56891e-06 0 0)
(0.000161677 -6.07485e-06 -4.87891e-17 4.40765e-06 0 0)
(0.000169431 -5.91213e-06 4.34765e-16 4.89679e-06 0 0)
(0.000177206 -5.75446e-06 2.1684e-17 5.06417e-06 0 0)
(0.00018499 -5.60169e-06 -2.15756e-16 4.93599e-06 0 0)
(0.00019277 -5.4537e-06 -4.22839e-17 4.53696e-06 0 0)
(0.000200537 -5.31034e-06 4.16334e-16 3.89043e-06 0 0)
(0.000208281 -5.17148e-06 -1.84314e-17 3.01851e-06 0 0)
(0.000215993 -5.03701e-06 2.71051e-16 1.94222e-06 0 0)
(0.000223664 -4.90679e-06 -3.54534e-16 6.81565e-07 0 0)
(0.000231286 -4.78071e-06 -2.10335e-16 -7.44377e-07 0 0)
(0.000238851 -4.65865e-06 -2.5804e-16 -2.31736e-06 0 0)
(0.000246353 -4.5405e-06 2.36356e-16 -4.01991e-06 0 0)
(0.000253785 -4.42615e-06 4.2826e-16 -5.83523e-06 0 0)
(0.000261139 -4.31549e-06 2.3744e-16 -7.74718e-06 0 0)
(0.000268411 -4.20843e-06 -9.75782e-18 -9.74019e-06 0 0)
(0.000275593 -4.10486e-06 -5.63785e-17 -1.17992e-05 0 0)
(0.000282681 -4.00469e-06 -2.81893e-16 -1.39096e-05 0 0)
(0.000289668 -3.90783e-06 -1.55041e-16 -1.60573e-05 0 0)
(0.00029655 -3.81418e-06 3.15503e-16 -1.82285e-05 0 0)
(0.00030332 -3.72365e-06 2.05998e-16 -2.04097e-05 0 0)
(0.000309975 -3.63617e-06 6.15827e-16 -2.25879e-05 0 0)
(0.000316508 -3.55163e-06 -8.89046e-17 -2.47501e-05 0 0)
(0.000322916 -3.46996e-06 2.02746e-16 -2.68837e-05 0 0)
(0.000329192 -3.39107e-06 5.01986e-16 -2.89761e-05 0 0)
(0.000335333 -3.31489e-06 1.65883e-16 -3.10151e-05 0 0)
(0.000341333 -3.24132e-06 1.04083e-16 -3.29882e-05 0 0)
(0.000347186 -3.17028e-06 2.22261e-16 -3.48835e-05 0 0)
(0.000352889 -3.10169e-06 2.10335e-16 -3.66886e-05 0 0)
(0.000358435 -3.03547e-06 -4.46691e-16 -3.83913e-05 0 0)
(0.00036382 -2.97153e-06 2.69966e-16 -3.99793e-05 0 0)
(0.000369037 -2.90978e-06 -2.42861e-16 -4.14402e-05 0 0)
(0.000374082 -2.85014e-06 7.09068e-16 -4.27615e-05 0 0)
(0.000378947 -2.79252e-06 1.02566e-15 -4.39304e-05 0 0)
(0.000383628 -2.73681e-06 1.18829e-15 -4.49337e-05 0 0)
(0.000388116 -2.68293e-06 6.245e-16 -4.57582e-05 0 0)
(0.000392405 -2.63077e-06 -6.66784e-16 -4.639e-05 0 0)
(0.000396488 -2.58024e-06 -1.05168e-15 -4.68151e-05 0 0)
(0.000400357 -2.53122e-06 -1.55149e-15 -4.70188e-05 0 0)
(0.000404004 -2.48362e-06 -1.36718e-15 -4.69858e-05 0 0)
(0.000407419 -2.4373e-06 -8.26162e-16 -4.67004e-05 0 0)
(0.000410593 -2.39216e-06 -7.47015e-16 -4.6146e-05 0 0)
(0.000413516 -2.34808e-06 4.91144e-16 -4.53053e-05 0 0)
(0.000416176 -2.30492e-06 5.48606e-16 -4.41603e-05 0 0)
(0.000418563 -2.26257e-06 -5.88722e-16 -4.2692e-05 0 0)
(0.000420663 -2.2209e-06 -8.76035e-16 -4.08804e-05 0 0)
(0.000422464 -2.1798e-06 -8.45678e-17 -3.87043e-05 0 0)
(0.00042395 -2.13915e-06 -4.43439e-16 -3.61417e-05 0 0)
(0.000425108 -2.09887e-06 1.48536e-16 -3.31691e-05 0 0)
(0.000425919 -2.05892e-06 2.92735e-16 -2.9762e-05 0 0)
(0.000426368 -2.01937e-06 1.08745e-15 -2.58942e-05 0 0)
(0.000426436 -1.98043e-06 1.16877e-15 -2.15385e-05 0 0)
(0.000426106 -1.94269e-06 8.21825e-16 -1.66664e-05 0 0)
(0.00042536 -1.90747e-06 -8.21825e-16 -1.12485e-05 0 0)
(0.000424184 -1.87778e-06 -4.64039e-16 -5.25468e-06 0 0)
(0.00042257 -1.86064e-06 -7.35089e-16 1.34477e-06 0 0)
(0.00042053 -1.87325e-06 3.42608e-16 8.57875e-06 0 0)
(0.000418115 -1.96067e-06 -1.02999e-16 1.6482e-05 0 0)
(0.000415473 -2.25449e-06 -8.82541e-16 2.51674e-05 0 0)
(0.000412456 1.7406e-07 -1.19262e-16 3.67855e-05 -6.82397e-16 0)
(0.0004128 6.37275e-07 1.79978e-16 3.59934e-05 -8.57409e-18 0)
(0.00041314 5.92253e-07 -4.72712e-16 3.52808e-05 -2.72268e-16 0)
(0.000413554 4.53746e-07 1.27936e-16 3.43917e-05 -2.90168e-16 0)
(0.000414059 2.90378e-07 -6.80879e-16 3.32729e-05 -5.15447e-16 0)
(0.00041466 1.1927e-07 -4.42354e-16 3.19114e-05 -2.93493e-16 0)
(0.000415359 -5.44344e-08 3.27429e-16 3.03057e-05 4.7696e-16 0)
(0.000416157 -2.29084e-07 1.39645e-15 2.84577e-05 3.38011e-16 0)
(0.000417052 -4.04136e-07 2.25948e-15 2.63706e-05 -1.56832e-16 0)
(0.000418042 -5.79398e-07 7.069e-16 2.40482e-05 3.44637e-16 0)
(0.000419128 -7.54769e-07 1.77159e-15 2.14945e-05 1.22519e-16 0)
(0.000420306 -9.30163e-07 1.34441e-16 1.87139e-05 1.07663e-15 0)
(0.000421576 -1.10548e-06 1.1601e-16 1.57111e-05 8.19966e-16 0)
(0.000422934 -1.2806e-06 3.82723e-16 1.2491e-05 6.13379e-17 0)
(0.000424379 -1.45538e-06 2.3744e-16 9.05902e-06 1.17077e-16 0)
(0.000425908 -1.62966e-06 -4.22839e-17 5.42066e-06 -9.74088e-20 0)
(0.000427519 -1.80328e-06 7.63278e-16 1.5819e-06 7.45304e-17 0)
(0.000429209 -1.97604e-06 1.94397e-15 -2.45096e-06 -9.64834e-16 0)
(0.000430975 -2.14773e-06 1.08854e-15 -6.67131e-06 1.90167e-16 0)
(0.000432815 -2.31813e-06 1.11456e-15 -1.10722e-05 7.92531e-16 0)
(0.000434724 -2.48699e-06 -7.01479e-16 -1.56463e-05 1.76196e-16 0)
(0.0004367 -2.65405e-06 4.38018e-16 -2.03859e-05 7.25357e-17 0)
(0.00043874 -2.81904e-06 -3.08998e-16 -2.52832e-05 1.50772e-18 0)
(0.00044084 -2.98167e-06 -6.17995e-17 -3.03299e-05 -1.20956e-16 0)
(0.000442996 -3.1416e-06 1.26852e-15 -3.55172e-05 1.42399e-16 0)
(0.000445204 -3.29852e-06 -2.92735e-17 -4.08365e-05 5.30135e-16 0)
(0.000447461 -3.45207e-06 -1.36609e-15 -4.62783e-05 5.07568e-16 0)
(0.000449763 -3.6019e-06 -1.29345e-15 -5.18332e-05 5.37779e-16 0)
(0.000452105 -3.74763e-06 -8.82541e-16 -5.74914e-05 -6.56567e-17 0)
(0.000454483 -3.88892e-06 -7.60026e-16 -6.32429e-05 -4.30875e-16 0)
(0.000456894 -4.02544e-06 -1.09504e-16 -6.90773e-05 -6.13601e-17 0)
(0.000459332 -4.15696e-06 4.44523e-17 -7.49843e-05 6.22696e-16 0)
(0.000461792 -4.28342e-06 7.28584e-16 -8.09531e-05 -9.78725e-17 0)
(0.000464271 -4.40511e-06 -5.42101e-18 -8.69732e-05 -2.70718e-16 0)
(0.000466762 -4.52302e-06 5.22585e-16 -9.30343e-05 -1.18313e-15 0)
(0.000469259 -4.63949e-06 8.0231e-16 -9.91262e-05 -5.38544e-16 0)
(0.000471755 -4.75992e-06 5.34512e-16 -0.00010524 -1.07438e-15 0)
(0.000474233 -4.89807e-06 7.32921e-16 -0.000111363 -5.2998e-16 0)
(0.000476622 -5.10487e-06 1.39862e-16 -0.000117453 -2.63664e-16 0)
(0.000479856 -4.88284e-06 3.4586e-16 -0.000125646 -1.1406e-15 0)
(0.000481012 -5.00006e-06 5.34512e-16 -0.000128313 -1.07355e-15 0)
(0.000482136 -5.04988e-06 7.17742e-16 -0.000130979 -9.22724e-16 0)
(0.000483244 -5.06827e-06 7.69784e-16 -0.00013364 -3.61429e-16 0)
(0.000484343 -5.07051e-06 8.43509e-16 -0.000136291 -9.54216e-16 0)
(0.000485433 -5.06348e-06 5.33427e-16 -0.000138931 -1.22376e-15 0)
(0.000486516 -5.05048e-06 1.09179e-15 -0.000141557 -1.04692e-15 0)
(0.000487593 -5.0332e-06 7.90383e-16 -0.000144167 -1.03421e-15 0)
(0.000488662 -5.0125e-06 2.64545e-16 -0.00014676 -1.12286e-15 0)
(0.000489723 -4.98885e-06 -9.43256e-17 -0.000149334 -6.59686e-16 0)
(0.000490776 -4.96251e-06 1.07336e-16 -0.000151888 -3.854e-16 0)
(0.00049182 -4.93361e-06 4.92228e-16 -0.000154422 -3.72017e-17 0)
(0.000492856 -4.9022e-06 6.06069e-16 -0.000156933 4.94498e-16 0)
(0.000493881 -4.8683e-06 5.59448e-16 -0.000159421 5.19807e-16 0)
(0.000494897 -4.83192e-06 5.19333e-16 -0.000161885 -3.15909e-16 0)
(0.000495902 -4.79303e-06 9.97466e-17 -0.000164322 -3.25464e-16 0)
(0.000496896 -4.75161e-06 -5.31259e-17 -0.000166733 -1.70914e-16 0)
(0.000497878 -4.70764e-06 -4.17418e-16 -0.000169115 -3.37797e-17 0)
(0.000498849 -4.66109e-06 -1.01915e-16 -0.000171468 1.33577e-16 0)
(0.000499806 -4.61192e-06 7.90383e-16 -0.00017379 2.95225e-16 0)
(0.000500751 -4.56013e-06 2.1684e-17 -0.000176081 3.99732e-16 0)
(0.000501682 -4.50567e-06 -7.15573e-17 -0.000178338 3.42405e-16 0)
(0.000502599 -4.44852e-06 -1.88651e-16 -0.000180561 2.96326e-16 0)
(0.000503501 -4.38867e-06 -2.92735e-16 -0.000182748 3.99461e-16 0)
(0.000504388 -4.32609e-06 -6.13658e-16 -0.000184898 5.50097e-16 0)
(0.000505259 -4.26076e-06 -4.25007e-16 -0.00018701 1.25158e-16 0)
(0.000506115 -4.19266e-06 -2.13588e-16 -0.000189082 -1.24175e-16 0)
(0.000506953 -4.12179e-06 2.68882e-16 -0.000191114 2.5079e-16 0)
(0.000507775 -4.04812e-06 5.95227e-16 -0.000193104 -5.1093e-17 0)
(0.000508579 -3.97164e-06 3.37187e-16 -0.000195051 -5.67207e-16 0)
(0.000509364 -3.89234e-06 8.45678e-17 -0.000196953 -6.41848e-16 0)
(0.000510131 -3.81022e-06 2.84061e-16 -0.000198809 8.7075e-17 0)
(0.000510879 -3.72526e-06 2.87314e-16 -0.000200618 -3.38136e-16 0)
(0.000511608 -3.63747e-06 6.72205e-16 -0.00020238 -7.6731e-16 0)
(0.000512316 -3.54684e-06 4.45607e-16 -0.000204091 -5.06458e-16 0)
(0.000513004 -3.45337e-06 1.05384e-15 -0.000205752 -1.64697e-16 0)
(0.000513671 -3.35708e-06 6.48353e-16 -0.000207361 1.22583e-16 0)
(0.000514316 -3.25796e-06 5.86553e-16 -0.000208917 -2.15553e-16 0)
(0.00051494 -3.15604e-06 7.91468e-16 -0.000210419 -4.50926e-16 0)
(0.000515541 -3.05132e-06 4.60786e-16 -0.000211865 -4.76304e-16 0)
(0.000516119 -2.94384e-06 2.74303e-16 -0.000213255 -9.91842e-16 0)
(0.000516675 -2.83361e-06 1.20346e-16 -0.000214588 -1.9517e-15 0)
(0.000517207 -2.72067e-06 2.62377e-16 -0.000215861 -1.30667e-15 0)
(0.000517715 -2.60507e-06 6.35342e-16 -0.000217075 -7.87775e-16 0)
(0.000518199 -2.48686e-06 6.66784e-16 -0.000218228 -1.50138e-15 0)
(0.000518658 -2.36608e-06 1.3314e-15 -0.00021932 -1.71473e-15 0)
(0.000519092 -2.24283e-06 1.29128e-15 -0.000220349 -1.3729e-15 0)
(0.000519501 -2.11716e-06 1.51788e-16 -0.000221314 -5.29226e-17 0)
(0.000519885 -1.9892e-06 3.25261e-18 -0.000222215 -5.05035e-16 0)
(0.000520243 -1.85904e-06 -2.43945e-16 -0.000223052 -3.96682e-16 0)
(0.000520576 -1.72683e-06 3.37187e-16 -0.000223822 2.22397e-16 0)
(0.000520882 -1.59271e-06 1.64799e-16 -0.000224527 5.42237e-16 0)
(0.000521162 -1.45687e-06 -1.91904e-16 -0.000225165 4.06711e-16 0)
(0.000521416 -1.31952e-06 -4.6946e-16 -0.000225736 8.69395e-17 0)
(0.000521644 -1.1809e-06 -6.50521e-18 -0.00022624 -5.54298e-17 0)
(0.000521845 -1.04132e-06 -4.62954e-16 -0.000226677 5.65411e-16 0)
(0.000522021 -9.01088e-07 -6.61363e-17 -0.000227046 2.56414e-16 0)
(0.00052217 -7.60616e-07 2.73219e-16 -0.000227349 8.24671e-17 0)
(0.000522294 -6.20358e-07 -3.17671e-16 -0.000227586 -2.19686e-16 0)
(0.000522393 -4.80854e-07 -3.80555e-16 -0.000227757 -9.49355e-17 0)
(0.000522466 -3.42735e-07 7.80626e-17 -0.000227863 6.40018e-16 0)
(0.000522515 -2.06742e-07 3.68629e-16 -0.000227907 3.40439e-16 0)
(0.00052254 -7.37461e-08 1.07336e-16 -0.000227889 -2.49366e-16 0)
(0.000522542 5.52333e-08 3.02492e-16 -0.000227811 -5.17707e-16 0)
(0.000522522 1.78998e-07 -6.61363e-17 -0.000227677 -2.41777e-16 0)
(0.00052248 2.96145e-07 1.55041e-16 -0.000227489 -2.49366e-16 0)
(0.000522419 4.05033e-07 3.25261e-16 -0.000227251 1.39591e-17 0)
(0.000522338 5.03754e-07 3.42608e-16 -0.000226969 3.58397e-16 0)
(0.000522241 5.90094e-07 1.59378e-16 -0.000226646 -2.59124e-16 0)
(0.000522128 6.61515e-07 1.1601e-16 -0.00022629 -1.41624e-16 0)
(0.000522002 7.15141e-07 6.79795e-16 -0.000225909 2.41099e-16 0)
(0.000521866 7.4778e-07 5.42101e-18 -0.00022551 7.36309e-16 0)
(0.000521723 7.55997e-07 -1.30104e-16 -0.000225105 3.92549e-16 0)
(0.000521576 7.36299e-07 1.30104e-16 -0.000224705 2.36627e-16 0)
(0.000521431 6.85487e-07 3.25261e-16 -0.000224324 -4.75694e-17 0)
(0.000521295 6.01333e-07 -1.04083e-16 -0.000223978 -2.36898e-16 0)
(0.000521176 4.83796e-07 4.19586e-16 -0.000223686 -3.22821e-16 0)
(0.00052109 3.37166e-07 9.4434e-16 -0.000223468 1.96173e-16 0)
(0.000521058 1.73795e-07 7.09068e-16 -0.000223348 1.0842e-17 0)
(0.00052077 1.23893e-07 8.27246e-16 -0.000223128 1.79774e-16 0)
(0.000519861 2.61541e-07 4.88975e-16 -0.000222795 -5.91093e-16 0)
(0.000518694 3.10701e-07 1.59378e-16 -0.000222422 9.05851e-16 0)
(0.00051766 2.98951e-07 -1.32273e-16 -0.00022212 -1.59174e-16 0)
(0.000516994 2.50207e-07 5.73543e-16 -0.000221966 6.26601e-16 0)
(0.000516831 1.7892e-07 7.93636e-16 -0.000222011 2.63529e-16 0)
(0.000517247 9.37034e-08 2.04914e-16 -0.000222287 -4.95074e-16 0)
(0.00051828 -9.0019e-11 4.36933e-16 -0.00022281 3.87873e-16 0)
(0.000519946 -9.90021e-08 -3.69713e-16 -0.000223588 3.11573e-16 0)
(0.000522246 -2.00741e-07 -5.64869e-16 -0.000224625 2.45843e-16 0)
(0.000525172 -3.0377e-07 -7.58942e-18 -0.000225918 -1.0636e-15 0)
(0.000528711 -4.07056e-07 1.82146e-16 -0.000227462 2.70779e-16 0)
(0.000532847 -5.09918e-07 1.89735e-16 -0.000229253 -9.70361e-17 0)
(0.000537562 -6.11915e-07 -7.35089e-16 -0.000231284 -1.05276e-15 0)
(0.000542837 -7.12782e-07 -3.01408e-16 -0.000233547 -6.2572e-16 0)
(0.000548654 -8.12377e-07 -7.58942e-18 -0.000236036 -4.22703e-16 0)
(0.000554996 -9.10649e-07 -1.65883e-16 -0.000238743 2.02339e-16 0)
(0.000561845 -1.00761e-06 -1.23491e-15 -0.000241663 -1.02877e-15 0)
(0.000569185 -1.10331e-06 -8.32667e-16 -0.000244789 4.8762e-16 0)
(0.000577002 -1.19784e-06 -2.09251e-16 -0.000248115 -7.15167e-16 0)
(0.000585281 -1.29131e-06 4.57533e-16 -0.000251635 1.40662e-15 0)
(0.000594011 -1.38385e-06 5.83301e-16 -0.000255344 1.87486e-15 0)
(0.000603181 -1.47557e-06 -4.90059e-16 -0.000259239 5.68257e-16 0)
(0.000612779 -1.56661e-06 -4.27176e-16 -0.000263314 1.2719e-15 0)
(0.000622796 -1.6571e-06 -2.87314e-16 -0.000267566 -3.071e-16 0)
(0.000633225 -1.74716e-06 -6.77626e-16 -0.000271991 -3.89635e-16 0)
(0.000644057 -1.83692e-06 3.63208e-16 -0.000276586 -2.49651e-15 0)
(0.000655286 -1.92649e-06 1.39862e-16 -0.000281349 -1.95156e-16 0)
(0.000666906 -2.01596e-06 -6.50521e-18 -0.000286277 -3.32037e-17 0)
(0.000678912 -2.10543e-06 -3.54534e-16 -0.000291367 -9.28619e-16 0)
(0.000691297 -2.19498e-06 -5.59448e-16 -0.000296618 6.35885e-16 0)
(0.000704058 -2.28467e-06 -3.07913e-16 -0.000302027 1.47655e-15 0)
(0.000717191 -2.37456e-06 -6.60279e-16 -0.000307592 7.79948e-16 0)
(0.000730691 -2.46468e-06 1.26201e-15 -0.000313313 1.15169e-15 0)
(0.000744553 -2.55506e-06 -1.63064e-15 -0.000319186 -3.11708e-17 0)
(0.000758775 -2.6457e-06 2.67798e-16 -0.00032521 5.20688e-16 0)
(0.000773351 -2.73659e-06 2.73219e-16 -0.000331383 -1.63715e-16 0)
(0.000788277 -2.82771e-06 3.88686e-15 -0.000337703 1.39483e-15 0)
(0.000803548 -2.91902e-06 1.57535e-15 -0.000344168 6.18673e-16 0)
(0.000819158 -3.01045e-06 2.3744e-16 -0.000350775 -7.56502e-16 0)
(0.000835103 -3.10192e-06 1.69352e-15 -0.000357522 1.03338e-15 0)
(0.000851375 -3.19332e-06 -1.48536e-15 -0.000364406 2.33835e-15 0)
(0.000867966 -3.28454e-06 -1.39537e-15 -0.000371424 -1.53157e-15 0)
(0.00088487 -3.37544e-06 3.16587e-16 -0.000378572 7.28042e-16 0)
(0.000902075 -3.46584e-06 -9.38919e-16 -0.000385845 1.75383e-15 0)
(0.000919573 -3.55555e-06 -2.09576e-15 -0.00039324 1.65002e-15 0)
(0.000937351 -3.64437e-06 1.8323e-16 -0.000400751 1.71927e-15 0)
(0.000955395 -3.73205e-06 1.72063e-15 -0.000408373 -6.39137e-16 0)
(0.000973692 -3.81832e-06 8.72783e-16 -0.000416099 -1.76183e-15 0)
(0.000992225 -3.90287e-06 1.40296e-15 -0.000423921 7.05409e-16 0)
(0.00101098 -3.98536e-06 2.50125e-15 -0.000431833 -2.2321e-16 0)
(0.00102992 -4.06543e-06 -7.82794e-16 -0.000439825 1.2425e-15 0)
(0.00104905 -4.14262e-06 -1.73472e-16 -0.000447888 -1.48793e-15 0)
(0.00106832 -4.21646e-06 -5.86553e-16 -0.000456011 -3.3842e-15 0)
(0.00108772 -4.28635e-06 -1.00289e-15 -0.000464182 -1.50148e-15 0)
(0.0011072 -4.35162e-06 6.96058e-16 -0.000472386 2.08546e-15 0)
(0.00112674 -4.41138e-06 -2.90566e-16 -0.00048061 6.89553e-16 0)
(0.0011463 -4.46455e-06 -2.05782e-15 -0.000488835 3.19162e-16 0)
(0.00116582 -4.5096e-06 -3.10299e-15 -0.000497042 -6.96464e-16 0)
(0.00118525 -4.54434e-06 -2.53378e-15 -0.000505205 -1.76386e-15 0)
(0.00120452 -4.56538e-06 1.1254e-15 -0.000513295 7.13676e-16 0)
(0.00122354 -4.56703e-06 4.46149e-16 -0.000521273 2.10091e-15 0)
(0.00124218 -4.53942e-06 1.58348e-15 -0.000529086 -8.51912e-16 0)
(0.00126026 -4.46558e-06 1.40675e-15 -0.000536655 -4.03377e-15 0)
(0.00127749 -4.32116e-06 3.18159e-15 -0.000543858 -3.54344e-15 0)
(0.00129331 -4.06477e-06 1.62522e-15 -0.000550385 -4.22134e-15 0)
(0.0013089 -2.18721e-06 -2.02258e-15 -0.000559813 -3.15205e-15 0)
(0.00132731 -1.04854e-06 -1.22352e-15 -0.000573268 5.9333e-16 0)
(0.00135145 -7.93226e-08 2.07787e-15 -0.000595691 -7.57044e-16 0)
(0.0013796 -2.36439e-07 -2.09414e-15 -0.000620417 -9.61416e-16 0)
(0.00140926 -4.77408e-07 8.45136e-16 -0.00064568 -1.06523e-15 0)
(0.00143811 -9.72328e-07 -3.46945e-17 -0.000669064 7.08255e-16 0)
(0.00146436 -1.6433e-06 -1.47289e-15 -0.000688922 3.69361e-15 0)
(0.00148657 -2.4992e-06 -3.5719e-15 -0.000703838 -1.66073e-15 0)
(0.00150372 -3.54652e-06 -1.48427e-15 -0.000712754 -1.90684e-15 0)
(0.00151495 -4.7906e-06 5.28061e-15 -0.00071473 -2.6357e-15 0)
(0.00151941 -6.24327e-06 5.29741e-15 -0.000708866 -1.94425e-15 0)
(0.00151649 -7.86898e-06 1.2837e-15 -0.000694695 -6.84403e-16 0)
(0.00150673 -9.67377e-06 1.48156e-15 -0.000672896 2.39229e-15 0)
(0.00149364 -8.77483e-06 -7.54063e-16 -0.000638009 3.33067e-15 0)
(0.00149131 -5.61218e-06 -3.30682e-16 -0.000633166 6.73832e-16 0)
(0.00149583 -2.2217e-06 -4.36418e-15 -0.000635103 2.15539e-15 0)
(0.0014991 -1.12306e-06 7.80626e-16 -0.000635792 -6.2179e-16 0)
(0.00149875 -3.93413e-07 4.58075e-16 -0.000635412 -2.18955e-15 0)
(0.00149527 1.90587e-07 2.44948e-15 -0.000633854 -1.45771e-15 0)
(0.00148867 7.46613e-07 -8.48388e-17 -0.000631033 -1.09775e-15 0)
(0.00147882 1.32302e-06 -2.15729e-15 -0.000626858 1.91633e-15 0)
(0.00146546 1.94178e-06 1.73364e-15 -0.000621217 -1.14871e-15 0)
(0.00144829 2.6138e-06 -1.75641e-16 -0.000613983 -1.22515e-15 0)
(0.00142697 3.34374e-06 1.56179e-15 -0.000605022 2.39067e-16 0)
(0.00140118 4.13112e-06 2.67893e-15 -0.000594205 3.79471e-17 0)
(0.00137063 4.97031e-06 1.11185e-15 -0.000581416 -5.4698e-16 0)
(0.0013351 5.85036e-06 1.822e-15 -0.000566572 -9.2374e-16 0)
(0.00129448 6.7551e-06 1.63362e-15 -0.000549629 -1.53957e-16 0)
(0.00124878 7.66389e-06 -7.10152e-17 -0.000530599 -6.36969e-16 0)
(0.00119818 8.55336e-06 1.20685e-15 -0.000509554 -2.1684e-17 0)
(0.001143 9.39984e-06 1.20943e-15 -0.000486633 1.34983e-16 0)
(0.00108373 1.01821e-05 1.17297e-16 -0.000462035 -1.34604e-15 0)
(0.00102101 1.08839e-05 -4.83148e-17 -0.000436015 5.9848e-16 0)
(0.000955554 1.1495e-05 -6.02613e-16 -0.000408862 -9.80119e-16 0)
(0.000888127 1.20115e-05 -1.10297e-15 -0.00038089 2.75387e-16 0)
(0.000819517 1.24354e-05 -5.90213e-16 -0.000352418 9.13982e-16 0)
(0.000750483 1.27721e-05 -3.10421e-16 -0.000323759 -1.97325e-16 0)
(0.00068174 1.30298e-05 3.65037e-16 -0.00029521 5.95227e-16 0)
(0.000613941 1.32167e-05 5.43558e-16 -0.000267045 1.64799e-16 0)
(0.00054768 1.33403e-05 9.01243e-17 -0.000239516 4.08744e-16 0)
(0.000483499 1.3406e-05 1.16111e-16 -0.000212855 4.88975e-16 0)
(0.000421897 1.34168e-05 -1.25395e-16 -0.00018728 -2.25514e-16 0)
(0.000363348 1.33727e-05 1.67357e-16 -0.000162997 5.50775e-16 0)
(0.000308311 1.32714e-05 2.2947e-16 -0.000140205 1.99493e-16 0)
(0.000257243 1.31088e-05 1.89261e-16 -0.000119102 4.47775e-16 0)
(0.0002106 1.28792e-05 1.06438e-16 -9.98842e-05 -3.62124e-16 0)
(0.000168839 1.25761e-05 9.87344e-17 -8.27433e-05 -2.21177e-16 0)
(0.000132407 1.21927e-05 1.8675e-16 -6.78654e-05 -6.64616e-16 0)
(0.000101732 1.172e-05 7.80223e-17 -5.54227e-05 -7.28584e-16 0)
(7.72004e-05 1.11437e-05 6.35074e-17 -4.55565e-05 -7.55689e-16 0)
(5.9031e-05 1.04462e-05 4.35661e-17 -3.82838e-05 -5.61617e-16 0)
(4.59848e-05 9.79499e-06 2.10136e-17 -3.26131e-05 -5.09575e-16 0)
(8.41145e-05 4.42578e-05 0 -4.01987e-05 -5.72459e-16 0)
(0.000119973 4.33609e-05 0 -5.37714e-05 -6.00648e-16 0)
(0.000154496 4.26651e-05 0 -6.66534e-05 -6.21248e-16 0)
(0.000187903 4.21367e-05 0 -7.8945e-05 -5.67038e-16 0)
(0.000220334 4.17455e-05 0 -9.06997e-05 -4.98733e-16 0)
(0.000251885 4.14661e-05 0 -0.000101947 -5.41017e-16 0)
(0.000282623 4.12775e-05 0 -0.000112706 -4.66207e-16 0)
(0.000312599 4.11624e-05 0 -0.000122987 -4.04407e-16 0)
(0.000341854 4.11069e-05 0 -0.0001328 -4.38018e-16 0)