/*--------------------------------*- C++ -*----------------------------------*\
| =========                 |                                                 |
| \\      /  F ield         | OpenFOAM: The Open Source CFD Toolbox           |
|  \\    /   O peration     | Version:  v2012                                 |
|   \\  /    A nd           | Website:  www.openfoam.com                      |
|    \\/     M anipulation  |                                                 |
\*---------------------------------------------------------------------------*/
FoamFile
{
    version     2.0;
    format      ascii;
    class       pointVectorField;
    location    "17";
    object      pointD;
}
// * * * * * * * * * * * * * * * * * * * * * * * * * * * * * * * * * * * * * //

dimensions      [0 1 0 0 0 0 0];


internalField   nonuniform List<vector> 
32562
(
(0.0015821 0 0)
(0.00196008 0 0)
(0.00179803 -0.000104185 0)
(0 -0.00132968 0)
(0 -0.000183744 0)
(0.00162159 0 0)
(0 -0.00127838 0)
(0.00112928 -0.000287478 0)
(0.000473848 -0.000532535 0)
(0.00188494 -1.12501e-05 0)
(0.001337 -0.000485636 0)
(0.001337 -0.000485636 0)
(0.00112928 -0.000287478 0)
(0 -0.00127838 0)
(0 -0.000183744 0)
(0.0015821 0 0)
(0.00162159 0 0)
(0.00196008 0 0)
(0.00188494 -1.12501e-05 0)
(0.00179803 -0.000104185 0)
(0.000473848 -0.000532535 0)
(0 -0.00132968 0)
(2.59922e-05 -0.00127561 0)
(5.22265e-05 -0.00126831 0)
(7.88444e-05 -0.00125684 0)
(0.000105918 -0.00124146 0)
(0.00013397 -0.00122246 0)
(0.000163296 -0.00119988 0)
(0.000194142 -0.00117389 0)
(0.00022658 -0.0011447 0)
(0.000260561 -0.00111264 0)
(0.000295929 -0.00107814 0)
(0.000332438 -0.0010417 0)
(0.000369775 -0.00100386 0)
(0.000407576 -0.000965221 0)
(0.000445439 -0.000926383 0)
(0.000482936 -0.00088794 0)
(0.000519629 -0.000850462 0)
(0.000555086 -0.000814486 0)
(0.000588897 -0.000780485 0)
(0.000620721 -0.000748801 0)
(0.000650397 -0.000719516 0)
(0.000678078 -0.000692321 0)
(0.000704327 -0.000666479 0)
(0.000729979 -0.000641198 0)
(0.000755354 -0.000616163 0)
(0.000780496 -0.000591469 0)
(0.000805395 -0.000567226 0)
(0.000830049 -0.000543496 0)
(0.00085446 -0.000520316 0)
(0.000878631 -0.00049771 0)
(0.000902566 -0.000475688 0)
(0.000926267 -0.000454259 0)
(0.000949736 -0.000433425 0)
(0.000972974 -0.000413187 0)
(0.000995981 -0.000393542 0)
(0.00101876 -0.000374487 0)
(0.0010413 -0.000356017 0)
(0.00106362 -0.00033812 0)
(0.00108571 -0.000320779 0)
(0.00110758 -0.000303951 0)
(0.0011503 -0.000272317 0)
(0.00117113 -0.000257595 0)
(0.00119171 -0.000243358 0)
(0.00121201 -0.000229626 0)
(0.001232 -0.000216406 0)
(0.00125167 -0.000203701 0)
(0.001271 -0.000191506 0)
(0.00128998 -0.000179818 0)
(0.00130859 -0.000168628 0)
(0.00132681 -0.00015793 0)
(0.00134463 -0.000147714 0)
(0.00136203 -0.000137969 0)
(0.001379 -0.000128686 0)
(0.00139551 -0.000119853 0)
(0.00141156 -0.000111458 0)
(0.00142713 -0.000103489 0)
(0.0014422 -9.59314e-05 0)
(0.00145675 -8.87732e-05 0)
(0.00147078 -8.2e-05 0)
(0.00148427 -7.55973e-05 0)
(0.0014972 -6.95502e-05 0)
(0.00150955 -6.38436e-05 0)
(0.00152133 -5.84617e-05 0)
(0.0015325 -5.33885e-05 0)
(0.00154307 -4.86078e-05 0)
(0.00155301 -4.41029e-05 0)
(0.00156232 -3.98567e-05 0)
(0.00157099 -3.5852e-05 0)
(0.001579 -3.20712e-05 0)
(0.00158634 -2.84966e-05 0)
(0.00159301 -2.51101e-05 0)
(0.00159901 -2.18935e-05 0)
(0.00160431 -1.88282e-05 0)
(0.00160892 -1.58955e-05 0)
(0.00161282 -1.30766e-05 0)
(0.00161602 -1.03524e-05 0)
(0.00161851 -7.70362e-06 0)
(0.00162028 -5.1106e-06 0)
(0.00162132 -2.55245e-06 0)
(0.0015849 0 0)
(0.00158753 0 0)
(0.00158999 0 0)
(0.00159229 0 0)
(0.00159443 0 0)
(0.00159642 0 0)
(0.00159828 0 0)
(0.00160001 0 0)
(0.00160161 0 0)
(0.00160311 0 0)
(0.0016045 0 0)
(0.0016058 0 0)
(0.001607 0 0)
(0.00160812 0 0)
(0.00160916 0 0)
(0.00161013 0 0)
(0.00161103 0 0)
(0.00161187 0 0)
(0.00161265 0 0)
(0.00161337 0 0)
(0.00161405 0 0)
(0.00161469 0 0)
(0.00161528 0 0)
(0.00161583 0 0)
(0.00161635 0 0)
(0.00161684 0 0)
(0.0016173 0 0)
(0.00161773 0 0)
(0.00161813 0 0)
(0.00161852 0 0)
(0.00161889 0 0)
(0.00161924 0 0)
(0.00161957 0 0)
(0.00161989 0 0)
(0.0016202 0 0)
(0.00162049 0 0)
(0.00162078 0 0)
(0.00162105 0 0)
(0.00162132 0 0)
(0.00162237 0 0)
(0.00162311 0 0)
(0.00162386 0 0)
(0.00162463 0 0)
(0.00162544 0 0)
(0.0016263 0 0)
(0.00162722 0 0)
(0.00162821 0 0)
(0.00162928 0 0)
(0.00163044 0 0)
(0.00163168 0 0)
(0.00163303 0 0)
(0.00163448 0 0)
(0.00163603 0 0)
(0.00163769 0 0)
(0.00163946 0 0)
(0.00164134 0 0)
(0.00164334 0 0)
(0.00164545 0 0)
(0.00164769 0 0)
(0.00165004 0 0)
(0.00165252 0 0)
(0.00165511 0 0)
(0.00165783 0 0)
(0.00166067 0 0)
(0.00166363 0 0)
(0.00166671 0 0)
(0.00166991 0 0)
(0.00167324 0 0)
(0.00167668 0 0)
(0.00168024 0 0)
(0.00168393 0 0)
(0.00168773 0 0)
(0.00169164 0 0)
(0.00169567 0 0)
(0.00169982 0 0)
(0.00170408 0 0)
(0.00170845 0 0)
(0.00171293 0 0)
(0.00171752 0 0)
(0.00172221 0 0)
(0.00172701 0 0)
(0.00173192 0 0)
(0.00173692 0 0)
(0.00174202 0 0)
(0.00174722 0 0)
(0.00175252 0 0)
(0.0017579 0 0)
(0.00176338 0 0)
(0.00176894 0 0)
(0.00177459 0 0)
(0.00178033 0 0)
(0.00178614 0 0)
(0.00179203 0 0)
(0.00179799 0 0)
(0.00180403 0 0)
(0.00181013 0 0)
(0.0018163 0 0)
(0.00182253 0 0)
(0.00182882 0 0)
(0.00183517 0 0)
(0.00184156 0 0)
(0.001848 0 0)
(0.00185449 0 0)
(0.00186102 0 0)
(0.00186758 0 0)
(0.00187417 0 0)
(0.00188078 0 0)
(0.00188742 0 0)
(0.00189407 0 0)
(0.00190073 0 0)
(0.00190739 0 0)
(0.00191406 0 0)
(0.00192071 0 0)
(0.00192734 0 0)
(0.00193396 0 0)
(0.00194055 0 0)
(0.0019471 0 0)
(0.00195361 0 0)
(0.00195996 5.09982e-07 0)
(0.00195977 1.00653e-06 0)
(0.00195947 1.49458e-06 0)
(0.00195907 1.97248e-06 0)
(0.00195855 2.4373e-06 0)
(0.00195792 2.8858e-06 0)
(0.00195718 3.3147e-06 0)
(0.00195634 3.72074e-06 0)
(0.00195538 4.10067e-06 0)
(0.00195431 4.45133e-06 0)
(0.00195314 4.7696e-06 0)
(0.00195187 5.0524e-06 0)
(0.00195049 5.29673e-06 0)
(0.00194901 5.49965e-06 0)
(0.00194744 5.65829e-06 0)
(0.00194577 5.76985e-06 0)
(0.001944 5.83161e-06 0)
(0.00194214 5.84092e-06 0)
(0.0019402 5.79524e-06 0)
(0.00193817 5.69209e-06 0)
(0.00193606 5.52911e-06 0)
(0.00193386 5.30404e-06 0)
(0.0019316 5.01469e-06 0)
(0.00192925 4.65903e-06 0)
(0.00192684 4.23509e-06 0)
(0.00192437 3.74106e-06 0)
(0.00192183 3.17523e-06 0)
(0.00191923 2.53602e-06 0)
(0.00191658 1.82197e-06 0)
(0.00191387 1.03176e-06 0)
(0.00191112 1.64212e-07 0)
(0.00190833 -7.81722e-07 0)
(0.0019055 -1.80695e-06 0)
(0.00190263 -2.91223e-06 0)
(0.00189974 -4.09819e-06 0)
(0.00189681 -5.36532e-06 0)
(0.00189387 -6.71399e-06 0)
(0.0018909 -8.14445e-06 0)
(0.00188793 -9.65678e-06 0)
(0.00188362 -1.19796e-05 0)
(0.0018823 -1.27249e-05 0)
(0.00188098 -1.34858e-05 0)
(0.00187965 -1.42624e-05 0)
(0.00187833 -1.50546e-05 0)
(0.00187701 -1.58624e-05 0)
(0.00187569 -1.66857e-05 0)
(0.00187437 -1.75244e-05 0)
(0.00187305 -1.83783e-05 0)
(0.00187173 -1.92475e-05 0)
(0.00187042 -2.01317e-05 0)
(0.00186911 -2.1031e-05 0)
(0.0018678 -2.1945e-05 0)
(0.0018665 -2.28738e-05 0)
(0.0018652 -2.38171e-05 0)
(0.00186391 -2.47748e-05 0)
(0.00186262 -2.57468e-05 0)
(0.00186133 -2.67329e-05 0)
(0.00186005 -2.77329e-05 0)
(0.00185878 -2.87466e-05 0)
(0.00185751 -2.97739e-05 0)
(0.00185624 -3.08146e-05 0)
(0.00185499 -3.18685e-05 0)
(0.00185374 -3.29353e-05 0)
(0.0018525 -3.40149e-05 0)
(0.00185126 -3.5107e-05 0)
(0.00185003 -3.62114e-05 0)
(0.00184881 -3.73279e-05 0)
(0.0018476 -3.84562e-05 0)
(0.0018464 -3.95961e-05 0)
(0.0018452 -4.07473e-05 0)
(0.00184402 -4.19096e-05 0)
(0.00184284 -4.30827e-05 0)
(0.00184167 -4.42662e-05 0)
(0.00184052 -4.54599e-05 0)
(0.00183937 -4.66636e-05 0)
(0.00183823 -4.78769e-05 0)
(0.0018371 -4.90995e-05 0)
(0.00183598 -5.03311e-05 0)
(0.00183487 -5.15713e-05 0)
(0.00183378 -5.28199e-05 0)
(0.00183269 -5.40765e-05 0)
(0.00183161 -5.53407e-05 0)
(0.00183054 -5.66122e-05 0)
(0.00182949 -5.78907e-05 0)
(0.00182844 -5.91758e-05 0)
(0.00182741 -6.04672e-05 0)
(0.00182639 -6.17644e-05 0)
(0.00182537 -6.3067e-05 0)
(0.00182437 -6.43748e-05 0)
(0.00182338 -6.56873e-05 0)
(0.0018224 -6.70041e-05 0)
(0.00182143 -6.83248e-05 0)
(0.00182047 -6.96491e-05 0)
(0.00181952 -7.09766e-05 0)
(0.00181858 -7.23068e-05 0)
(0.00181765 -7.36393e-05 0)
(0.00181673 -7.49738e-05 0)
(0.00181581 -7.63099e-05 0)
(0.00181491 -7.76471e-05 0)
(0.00181402 -7.89852e-05 0)
(0.00181313 -8.03236e-05 0)
(0.00181226 -8.16621e-05 0)
(0.00181139 -8.30003e-05 0)
(0.00181053 -8.43379e-05 0)
(0.00180967 -8.56745e-05 0)
(0.00180882 -8.70097e-05 0)
(0.00180798 -8.83434e-05 0)
(0.00180714 -8.96753e-05 0)
(0.0018063 -9.10052e-05 0)
(0.00180547 -9.23329e-05 0)
(0.00180464 -9.36582e-05 0)
(0.00180381 -9.49811e-05 0)
(0.00180299 -9.63016e-05 0)
(0.00180217 -9.76197e-05 0)
(0.00180134 -9.89357e-05 0)
(0.00180052 -0.00010025 0)
(0.00179969 -0.000101562 0)
(0.00179886 -0.000102874 0)
(0.00178846 -0.000106784 0)
(0.0017789 -0.000109391 0)
(0.00176937 -0.000111987 0)
(0.00175986 -0.000114549 0)
(0.00175036 -0.000117059 0)
(0.00174087 -0.0001195 0)
(0.00173138 -0.000121858 0)
(0.00172188 -0.000124124 0)
(0.00171235 -0.00012629 0)
(0.00170278 -0.00012835 0)
(0.00169317 -0.000130301 0)
(0.00168349 -0.000132142 0)
(0.00167374 -0.000133872 0)
(0.00166391 -0.000135492 0)
(0.00165398 -0.000137005 0)
(0.00164395 -0.000138413 0)
(0.00163381 -0.00013972 0)
(0.00162354 -0.000140932 0)
(0.00161314 -0.000142053 0)
(0.0016026 -0.00014309 0)
(0.00159191 -0.000144049 0)
(0.00158107 -0.000144936 0)
(0.00157005 -0.000145761 0)
(0.00155886 -0.000146529 0)
(0.00154749 -0.000147251 0)
(0.00153593 -0.000147934 0)
(0.00152418 -0.000148587 0)
(0.00151221 -0.000149221 0)
(0.00150004 -0.000149844 0)
(0.00148765 -0.000150467 0)
(0.00147503 -0.000151101 0)
(0.00146217 -0.000151756 0)
(0.00144908 -0.000152444 0)
(0.00143574 -0.000153176 0)
(0.00142215 -0.000153965 0)
(0.0014083 -0.000154822 0)
(0.00139418 -0.000155761 0)
(0.00137979 -0.000156795 0)
(0.00136512 -0.000157937 0)
(0.00135016 -0.000159202 0)
(0.00133491 -0.000160604 0)
(0.00131936 -0.000162158 0)
(0.00130351 -0.00016388 0)
(0.00128734 -0.000165786 0)
(0.00127087 -0.000167891 0)
(0.00125407 -0.000170214 0)
(0.00123694 -0.000172771 0)
(0.00121948 -0.00017558 0)
(0.00120169 -0.00017866 0)
(0.00118356 -0.000182031 0)
(0.00116508 -0.00018571 0)
(0.00114625 -0.00018972 0)
(0.00112707 -0.000194079 0)
(0.00110753 -0.00019881 0)
(0.00108764 -0.000203934 0)
(0.00106739 -0.000209473 0)
(0.00104677 -0.00021545 0)
(0.0010258 -0.000221888 0)
(0.00100446 -0.00022881 0)
(0.000982765 -0.000236241 0)
(0.000960711 -0.000244204 0)
(0.000938303 -0.000252725 0)
(0.000915547 -0.000261827 0)
(0.000892453 -0.000271536 0)
(0.000869033 -0.000281874 0)
(0.000845307 -0.000292863 0)
(0.000821313 -0.000304536 0)
(0.000797009 -0.000316926 0)
(0.000772291 -0.000330104 0)
(0.00074706 -0.000344112 0)
(0.000721281 -0.000358985 0)
(0.000694957 -0.000374729 0)
(0.000668128 -0.000391334 0)
(0.00064086 -0.000408787 0)
(0.000613242 -0.000427075 0)
(0.000585373 -0.000446207 0)
(0.00055737 -0.000466223 0)
(0.000529364 -0.000487206 0)
(0.000501489 -0.000509272 0)
(0.000453911 -0.000550073 0)
(0.000434094 -0.000568286 0)
(0.000414234 -0.000587087 0)
(0.000394301 -0.000606468 0)
(0.000374354 -0.00062646 0)
(0.000354437 -0.000647078 0)
(0.000334593 -0.00066833 0)
(0.000314865 -0.00069022 0)
(0.000295297 -0.000712747 0)
(0.00027594 -0.000735905 0)
(0.000256848 -0.00075968 0)
(0.000238079 -0.000784051 0)
(0.000219697 -0.000808987 0)
(0.000201768 -0.000834444 0)
(0.000184359 -0.000860366 0)
(0.000167541 -0.000886683 0)
(0.000151381 -0.000913309 0)
(0.000135942 -0.000940147 0)
(0.000121282 -0.000967082 0)
(0.00010745 -0.000993993 0)
(9.44879e-05 -0.00102075 0)
(8.24243e-05 -0.00104721 0)
(7.12787e-05 -0.00107323 0)
(6.10599e-05 -0.00109868 0)
(5.17667e-05 -0.00112341 0)
(4.33888e-05 -0.00114728 0)
(3.59079e-05 -0.00117017 0)
(2.92981e-05 -0.00119195 0)
(2.35268e-05 -0.0012125 0)
(1.8555e-05 -0.0012317 0)
(1.43376e-05 -0.00124944 0)
(1.08237e-05 -0.00126562 0)
(7.95584e-06 -0.00128015 0)
(5.67097e-06 -0.00129294 0)
(3.89972e-06 -0.00130391 0)
(2.56694e-06 -0.00131299 0)
(1.59189e-06 -0.00132013 0)
(8.89081e-07 -0.00132528 0)
(3.72368e-07 -0.00132844 0)
(0 -0.00132957 0)
(0 -0.00132943 0)
(0 -0.00132924 0)
(0 -0.00132901 0)
(0 -0.00132874 0)
(0 -0.00132844 0)
(0 -0.00132811 0)
(0 -0.00132774 0)
(0 -0.00132734 0)
(0 -0.00132691 0)
(0 -0.00132645 0)
(0 -0.00132597 0)
(0 -0.00132545 0)
(0 -0.00132492 0)
(0 -0.00132436 0)
(0 -0.00132378 0)
(0 -0.00132318 0)
(0 -0.00132256 0)
(0 -0.00132192 0)
(0 -0.00132126 0)
(0 -0.00132059 0)
(0 -0.0013199 0)
(0 -0.0013192 0)
(0 -0.00131849 0)
(0 -0.00131776 0)
(0 -0.00131703 0)
(0 -0.00131628 0)
(0 -0.00131553 0)
(0 -0.00131476 0)
(0 -0.00131399 0)
(0 -0.00131321 0)
(0 -0.00131243 0)
(0 -0.00131164 0)
(0 -0.00131085 0)
(0 -0.00131005 0)
(0 -0.00130925 0)
(0 -0.00130845 0)
(0 -0.00130765 0)
(0 -0.00130684 0)
(0 -0.00130604 0)
(0 -0.00130523 0)
(0 -0.00130443 0)
(0 -0.00130363 0)
(0 -0.00130283 0)
(0 -0.00130203 0)
(0 -0.00130124 0)
(0 -0.00130045 0)
(0 -0.00129966 0)
(0 -0.00129888 0)
(0 -0.00129811 0)
(0 -0.00129734 0)
(0 -0.00129657 0)
(0 -0.00129581 0)
(0 -0.00129506 0)
(0 -0.00129432 0)
(0 -0.00129358 0)
(0 -0.00129285 0)
(0 -0.00129213 0)
(0 -0.00129142 0)
(0 -0.00129071 0)
(0 -0.00129002 0)
(0 -0.00128933 0)
(0 -0.00128865 0)
(0 -0.00128799 0)
(0 -0.00128733 0)
(0 -0.00128668 0)
(0 -0.00128604 0)
(0 -0.00128541 0)
(0 -0.00128479 0)
(0 -0.00128418 0)
(0 -0.00128357 0)
(0 -0.00128298 0)
(0 -0.00128239 0)
(0 -0.0012818 0)
(0 -0.00128123 0)
(0 -0.00128066 0)
(0 -0.00128009 0)
(0 -0.00127952 0)
(0 -0.00127895 0)
(0 -0.00127714 0)
(0 -0.00127579 0)
(0 -0.00127402 0)
(0 -0.00127171 0)
(0 -0.0012687 0)
(0 -0.00126487 0)
(0 -0.00126006 0)
(0 -0.00125414 0)
(0 -0.00124697 0)
(0 -0.00123844 0)
(0 -0.00122841 0)
(0 -0.00121681 0)
(0 -0.00120352 0)
(0 -0.00118849 0)
(0 -0.00117165 0)
(0 -0.00115296 0)
(0 -0.00113238 0)
(0 -0.00110989 0)
(0 -0.00108547 0)
(0 -0.00105913 0)
(0 -0.00103085 0)
(0 -0.00100066 0)
(0 -0.000968578 0)
(0 -0.000934618 0)
(0 -0.000898816 0)
(0 -0.000861205 0)
(0 -0.00082183 0)
(0 -0.00078074 0)
(0 -0.000737993 0)
(0 -0.000693652 0)
(0 -0.000647793 0)
(0 -0.000600497 0)
(0 -0.000551855 0)
(0 -0.000501967 0)
(0 -0.000450943 0)
(0 -0.000398905 0)
(0 -0.000345987 0)
(0 -0.000292347 0)
(0 -0.000238176 0)
(0.00114056 -0.000268413 0)
(0.00115179 -0.00025015 0)
(0.00116298 -0.000232792 0)
(0.00117411 -0.000216365 0)
(0.00118517 -0.000200869 0)
(0.00119614 -0.00018629 0)
(0.00120703 -0.000172607 0)
(0.00121781 -0.000159794 0)
(0.0012285 -0.000147822 0)
(0.00123908 -0.000136659 0)
(0.00124957 -0.000126274 0)
(0.00125995 -0.000116633 0)
(0.00127024 -0.000107705 0)
(0.00128043 -9.94548e-05 0)
(0.00129053 -9.18512e-05 0)
(0.00130054 -8.48617e-05 0)
(0.00131046 -7.84549e-05 0)
(0.00132031 -7.26002e-05 0)
(0.00133008 -6.72677e-05 0)
(0.00133978 -6.24284e-05 0)
(0.00134942 -5.80545e-05 0)
(0.00135899 -5.4119e-05 0)
(0.00136851 -5.05956e-05 0)
(0.00137797 -4.74595e-05 0)
(0.00138739 -4.46864e-05 0)
(0.00139676 -4.22532e-05 0)
(0.00140609 -4.01375e-05 0)
(0.00141539 -3.8318e-05 0)
(0.00142465 -3.6774e-05 0)
(0.00143389 -3.5486e-05 0)
(0.0014431 -3.44349e-05 0)
(0.00145228 -3.36025e-05 0)
(0.00146145 -3.29716e-05 0)
(0.0014706 -3.25252e-05 0)
(0.00147974 -3.22474e-05 0)
(0.00148887 -3.21226e-05 0)
(0.00149798 -3.21362e-05 0)
(0.00150709 -3.22739e-05 0)
(0.00151619 -3.25219e-05 0)
(0.00152528 -3.28671e-05 0)
(0.00153437 -3.32969e-05 0)
(0.00154346 -3.3799e-05 0)
(0.00155254 -3.43617e-05 0)
(0.00156163 -3.49736e-05 0)
(0.00157071 -3.56239e-05 0)
(0.00157979 -3.63018e-05 0)
(0.00158887 -3.69973e-05 0)
(0.00159796 -3.77003e-05 0)
(0.00160704 -3.84013e-05 0)
(0.00161612 -3.90909e-05 0)
(0.0016252 -3.97601e-05 0)
(0.00163428 -4.04e-05 0)
(0.00164336 -4.10019e-05 0)
(0.00165243 -4.15574e-05 0)
(0.0016615 -4.20582e-05 0)
(0.00167057 -4.2496e-05 0)
(0.00167964 -4.28628e-05 0)
(0.00168869 -4.31506e-05 0)
(0.00169774 -4.33514e-05 0)
(0.00170679 -4.34573e-05 0)
(0.00171582 -4.34601e-05 0)
(0.00172485 -4.3352e-05 0)
(0.00173386 -4.31247e-05 0)
(0.00174287 -4.27699e-05 0)
(0.00175186 -4.2279e-05 0)
(0.00176083 -4.16432e-05 0)
(0.0017698 -4.08534e-05 0)
(0.00177874 -3.99001e-05 0)
(0.00178767 -3.87731e-05 0)
(0.00179659 -3.74619e-05 0)
(0.00180549 -3.59552e-05 0)
(0.00181437 -3.42409e-05 0)
(0.00182324 -3.23061e-05 0)
(0.00183209 -3.01367e-05 0)
(0.00184093 -2.77176e-05 0)
(0.00184975 -2.50323e-05 0)
(0.00185857 -2.2063e-05 0)
(0.00186737 -1.87902e-05 0)
(0.00187616 -1.5193e-05 0)
(0.00112079 -0.000290104 0)
(0.00111231 -0.000292731 0)
(0.00110384 -0.00029536 0)
(0.00109537 -0.000297992 0)
(0.0010869 -0.000300629 0)
(0.00107844 -0.000303272 0)
(0.00106997 -0.000305924 0)
(0.0010615 -0.000308585 0)
(0.00105304 -0.000311256 0)
(0.00104458 -0.000313939 0)
(0.00103612 -0.000316632 0)
(0.00102766 -0.000319338 0)
(0.00101921 -0.000322056 0)
(0.00101076 -0.000324786 0)
(0.00100231 -0.000327528 0)
(0.00099387 -0.000330283 0)
(0.000985435 -0.000333051 0)
(0.000977005 -0.000335831 0)
(0.000968582 -0.000338624 0)
(0.000960166 -0.000341428 0)
(0.000951757 -0.000344245 0)
(0.000943356 -0.000347074 0)
(0.000934962 -0.000349915 0)
(0.000926577 -0.000352767 0)
(0.0009182 -0.000355632 0)
(0.000909832 -0.000358507 0)
(0.000901473 -0.000361394 0)
(0.000893123 -0.000364292 0)
(0.000884783 -0.000367202 0)
(0.000876452 -0.000370122 0)
(0.000868132 -0.000373054 0)
(0.000859821 -0.000375996 0)
(0.000851521 -0.000378949 0)
(0.000843232 -0.000381913 0)
(0.000834953 -0.000384888 0)
(0.000826686 -0.000387874 0)
(0.00081843 -0.000390871 0)
(0.000810185 -0.000393878 0)
(0.000801953 -0.000396896 0)
(0.000793733 -0.000399925 0)
(0.000785525 -0.000402965 0)
(0.00077733 -0.000406015 0)
(0.000769148 -0.000409076 0)
(0.000760979 -0.000412148 0)
(0.000752824 -0.000415231 0)
(0.000744683 -0.000418324 0)
(0.000736555 -0.000421428 0)
(0.000728441 -0.000424543 0)
(0.000720341 -0.000427669 0)
(0.000712254 -0.000430805 0)
(0.000704182 -0.000433953 0)
(0.000696124 -0.000437111 0)
(0.000688079 -0.000440281 0)
(0.000680047 -0.000443463 0)
(0.000672028 -0.000446656 0)
(0.000664022 -0.000449861 0)
(0.000656027 -0.000453079 0)
(0.000648044 -0.000456309 0)
(0.000640072 -0.000459554 0)
(0.00063211 -0.000462812 0)
(0.000624158 -0.000466085 0)
(0.000616214 -0.000469374 0)
(0.000608277 -0.00047268 0)
(0.000600347 -0.000476003 0)
(0.000592422 -0.000479344 0)
(0.000584502 -0.000482706 0)
(0.000576585 -0.000486088 0)
(0.00056867 -0.000489492 0)
(0.000560757 -0.00049292 0)
(0.000552842 -0.000496372 0)
(0.000544927 -0.000499849 0)
(0.000537008 -0.000503353 0)
(0.000529086 -0.000506884 0)
(0.00052116 -0.000510442 0)
(0.000513228 -0.000514028 0)
(0.000505291 -0.00051764 0)
(0.00049735 -0.000521277 0)
(0.000489405 -0.000524936 0)
(0.000481528 -0.000528661 0)
(7.94237e-05 -0.000188153 0)
(0.000158271 -0.000198002 0)
(0.000236213 -0.000213109 0)
(0.000312812 -0.000233333 0)
(0.000387588 -0.000258428 0)
(0.000460088 -0.000288041 0)
(0.000529927 -0.000321732 0)
(0.000596803 -0.00035898 0)
(0.000660506 -0.000399193 0)
(0.000720902 -0.000441717 0)
(0.000777902 -0.000485815 0)
(0.000831428 -0.000530653 0)
(0.000881367 -0.000575271 0)
(0.000927536 -0.000618551 0)
(0.000969669 -0.000659203 0)
(0.00100744 -0.000695784 0)
(0.00104052 -0.000726778 0)
(0.00106868 -0.000750716 0)
(0.00109185 -0.000766315 0)
(0.00111015 -0.000772588 0)
(0.00112396 -0.000769105 0)
(0.00113415 -0.000756901 0)
(0.00114291 -0.000740299 0)
(0.00115248 -0.000724217 0)
(0.00116269 -0.000708439 0)
(0.00117338 -0.00069286 0)
(0.00118445 -0.000677429 0)
(0.00119582 -0.000662116 0)
(0.00120742 -0.000646906 0)
(0.00121918 -0.000631788 0)
(0.00123105 -0.000616758 0)
(0.00124299 -0.000601814 0)
(0.00125496 -0.000586956 0)
(0.00126692 -0.000572187 0)
(0.00127884 -0.000557509 0)
(0.0012907 -0.000542927 0)
(0.00130246 -0.000528445 0)
(0.00131411 -0.000514067 0)
(0.00132563 -0.000499796 0)
(0.0013482 -0.00047159 0)
(0.00135922 -0.000457661 0)
(0.00137006 -0.00044385 0)
(0.00138069 -0.000430161 0)
(0.00139111 -0.000416592 0)
(0.00140131 -0.000403145 0)
(0.00141128 -0.00038982 0)
(0.00142101 -0.000376616 0)
(0.0014305 -0.000363531 0)
(0.00143974 -0.000350564 0)
(0.00144873 -0.000337714 0)
(0.00145745 -0.000324977 0)
(0.00146591 -0.000312352 0)
(0.0014741 -0.000299835 0)
(0.00148201 -0.000287424 0)
(0.00148964 -0.000275114 0)
(0.00149699 -0.000262903 0)
(0.00150405 -0.000250787 0)
(0.00151083 -0.000238761 0)
(0.00151731 -0.000226823 0)
(0.00152349 -0.000214967 0)
(0.00152937 -0.000203191 0)
(0.00153495 -0.00019149 0)
(0.00154023 -0.00017986 0)
(0.0015452 -0.000168297 0)
(0.00154985 -0.000156796 0)
(0.0015542 -0.000145354 0)
(0.00155824 -0.000133966 0)
(0.00156196 -0.000122628 0)
(0.00156536 -0.000111336 0)
(0.00156844 -0.000100086 0)
(0.00157121 -8.88738e-05 0)
(0.00157366 -7.76954e-05 0)
(0.00157578 -6.65468e-05 0)
(0.00157759 -5.54242e-05 0)
(0.00157908 -4.43238e-05 0)
(0.00158025 -3.32421e-05 0)
(0.00158112 -2.2175e-05 0)
(0.00158169 -1.11137e-05 0)
(0.00132942 -0.000477331 0)
(0.00132205 -0.000469321 0)
(0.00131488 -0.000461589 0)
(0.00130788 -0.000454119 0)
(0.00130106 -0.000446896 0)
(0.0012944 -0.000439907 0)
(0.00128789 -0.00043314 0)
(0.00128153 -0.000426584 0)
(0.0012753 -0.000420228 0)
(0.00126919 -0.000414064 0)
(0.00126321 -0.000408082 0)
(0.00125734 -0.000402275 0)
(0.00125159 -0.000396635 0)
(0.00124595 -0.000391154 0)
(0.0012404 -0.000385826 0)
(0.00123496 -0.000380645 0)
(0.00122962 -0.000375605 0)
(0.00122437 -0.000370699 0)
(0.00121921 -0.000365922 0)
(0.00121414 -0.00036127 0)
(0.00120916 -0.000356736 0)
(0.00120426 -0.000352317 0)
(0.00119945 -0.000348007 0)
(0.00119472 -0.000343802 0)
(0.00119007 -0.000339698 0)
(0.00118551 -0.000335691 0)
(0.00118101 -0.000331776 0)
(0.0011766 -0.00032795 0)
(0.00117226 -0.000324209 0)
(0.001168 -0.000320549 0)
(0.00116381 -0.000316967 0)
(0.00115969 -0.000313458 0)
(0.00115565 -0.000310021 0)
(0.00115167 -0.000306649 0)
(0.00114777 -0.00030334 0)
(0.00114394 -0.000300089 0)
(0.00114018 -0.00029689 0)
(0.00113649 -0.000293734 0)
(0.00113286 -0.000290608 0)
(0.00132942 -0.000477331 0)
(0.00132205 -0.000469321 0)
(0.00131488 -0.000461589 0)
(0.00130788 -0.000454119 0)
(0.00130106 -0.000446896 0)
(0.0012944 -0.000439907 0)
(0.00128789 -0.00043314 0)
(0.00128153 -0.000426584 0)
(0.0012753 -0.000420228 0)
(0.00126919 -0.000414064 0)
(0.00126321 -0.000408082 0)
(0.00125734 -0.000402275 0)
(0.00125159 -0.000396635 0)
(0.00124595 -0.000391154 0)
(0.0012404 -0.000385826 0)
(0.00123496 -0.000380645 0)
(0.00122962 -0.000375605 0)
(0.00122437 -0.000370699 0)
(0.00121921 -0.000365922 0)
(0.00121414 -0.00036127 0)
(0.00120916 -0.000356736 0)
(0.00120426 -0.000352317 0)
(0.00119945 -0.000348007 0)
(0.00119472 -0.000343802 0)
(0.00119007 -0.000339698 0)
(0.00118551 -0.000335691 0)
(0.00118101 -0.000331776 0)
(0.0011766 -0.00032795 0)
(0.00117226 -0.000324209 0)
(0.001168 -0.000320549 0)
(0.00116381 -0.000316967 0)
(0.00115969 -0.000313458 0)
(0.00115565 -0.000310021 0)
(0.00115167 -0.000306649 0)
(0.00114777 -0.00030334 0)
(0.00114394 -0.000300089 0)
(0.00114018 -0.00029689 0)
(0.00113649 -0.000293734 0)
(0.00113286 -0.000290608 0)
(0.00110758 -0.000303951 0)
(0.00108571 -0.000320779 0)
(0.00106362 -0.00033812 0)
(0.0010413 -0.000356017 0)
(0.00101876 -0.000374487 0)
(0.000995981 -0.000393542 0)
(0.000972974 -0.000413187 0)
(0.000949736 -0.000433425 0)
(0.000926267 -0.000454259 0)
(0.000902566 -0.000475688 0)
(0.000878631 -0.00049771 0)
(0.00085446 -0.000520316 0)
(0.000830049 -0.000543496 0)
(0.000805395 -0.000567226 0)
(0.000780496 -0.000591469 0)
(0.000755354 -0.000616163 0)
(0.000729979 -0.000641198 0)
(0.000704327 -0.000666479 0)
(0.000678078 -0.000692321 0)
(0.000650397 -0.000719516 0)
(0.000620721 -0.000748801 0)
(0.000588897 -0.000780485 0)
(0.000555086 -0.000814486 0)
(0.000519629 -0.000850462 0)
(0.000482936 -0.00088794 0)
(0.000445439 -0.000926383 0)
(0.000407576 -0.000965221 0)
(0.000369775 -0.00100386 0)
(0.000332438 -0.0010417 0)
(0.000295929 -0.00107814 0)
(0.000260561 -0.00111264 0)
(0.00022658 -0.0011447 0)
(0.000194142 -0.00117389 0)
(0.000163296 -0.00119988 0)
(0.00013397 -0.00122246 0)
(0.000105918 -0.00124146 0)
(7.88444e-05 -0.00125684 0)
(5.22265e-05 -0.00126831 0)
(2.59922e-05 -0.00127561 0)
(0 -0.00127714 0)
(0 -0.00127579 0)
(0 -0.00127402 0)
(0 -0.00127171 0)
(0 -0.0012687 0)
(0 -0.00126487 0)
(0 -0.00126006 0)
(0 -0.00125414 0)
(0 -0.00124697 0)
(0 -0.00123844 0)
(0 -0.00122841 0)
(0 -0.00121681 0)
(0 -0.00120352 0)
(0 -0.00118849 0)
(0 -0.00117165 0)
(0 -0.00115296 0)
(0 -0.00113238 0)
(0 -0.00110989 0)
(0 -0.00108547 0)
(0 -0.00105913 0)
(0 -0.00103085 0)
(0 -0.00100066 0)
(0 -0.000968578 0)
(0 -0.000934618 0)
(0 -0.000898816 0)
(0 -0.000861205 0)
(0 -0.00082183 0)
(0 -0.00078074 0)
(0 -0.000737993 0)
(0 -0.000693652 0)
(0 -0.000647793 0)
(0 -0.000600497 0)
(0 -0.000551855 0)
(0 -0.000501967 0)
(0 -0.000450943 0)
(0 -0.000398905 0)
(0 -0.000345987 0)
(0 -0.000292347 0)
(0 -0.000238176 0)
(7.94237e-05 -0.000188153 0)
(0.000158271 -0.000198002 0)
(0.000236213 -0.000213109 0)
(0.000312812 -0.000233333 0)
(0.000387588 -0.000258428 0)
(0.000460088 -0.000288041 0)
(0.000529927 -0.000321732 0)
(0.000596803 -0.00035898 0)
(0.000660506 -0.000399193 0)
(0.000720902 -0.000441717 0)
(0.000777902 -0.000485815 0)
(0.000831428 -0.000530653 0)
(0.000881367 -0.000575271 0)
(0.000927536 -0.000618551 0)
(0.000969669 -0.000659203 0)
(0.00100744 -0.000695784 0)
(0.00104052 -0.000726778 0)
(0.00106868 -0.000750716 0)
(0.00109185 -0.000766315 0)
(0.00111015 -0.000772588 0)
(0.00112396 -0.000769105 0)
(0.00113415 -0.000756901 0)
(0.00114291 -0.000740299 0)
(0.00115248 -0.000724217 0)
(0.00116269 -0.000708439 0)
(0.00117338 -0.00069286 0)
(0.00118445 -0.000677429 0)
(0.00119582 -0.000662116 0)
(0.00120742 -0.000646906 0)
(0.00121918 -0.000631788 0)
(0.00123105 -0.000616758 0)
(0.00124299 -0.000601814 0)
(0.00125496 -0.000586956 0)
(0.00126692 -0.000572187 0)
(0.00127884 -0.000557509 0)
(0.0012907 -0.000542927 0)
(0.00130246 -0.000528445 0)
(0.00131411 -0.000514067 0)
(0.00132563 -0.000499796 0)
(0.0013482 -0.00047159 0)
(0.00135922 -0.000457661 0)
(0.00137006 -0.00044385 0)
(0.00138069 -0.000430161 0)
(0.00139111 -0.000416592 0)
(0.00140131 -0.000403145 0)
(0.00141128 -0.00038982 0)
(0.00142101 -0.000376616 0)
(0.0014305 -0.000363531 0)
(0.00143974 -0.000350564 0)
(0.00144873 -0.000337714 0)
(0.00145745 -0.000324977 0)
(0.00146591 -0.000312352 0)
(0.0014741 -0.000299835 0)
(0.00148201 -0.000287424 0)
(0.00148964 -0.000275114 0)
(0.00149699 -0.000262903 0)
(0.00150405 -0.000250787 0)
(0.00151083 -0.000238761 0)
(0.00151731 -0.000226823 0)
(0.00152349 -0.000214967 0)
(0.00152937 -0.000203191 0)
(0.00153495 -0.00019149 0)
(0.00154023 -0.00017986 0)
(0.0015452 -0.000168297 0)
(0.00154985 -0.000156796 0)
(0.0015542 -0.000145354 0)
(0.00155824 -0.000133966 0)
(0.00156196 -0.000122628 0)
(0.00156536 -0.000111336 0)
(0.00156844 -0.000100086 0)
(0.00157121 -8.88738e-05 0)
(0.00157366 -7.76954e-05 0)
(0.00157578 -6.65468e-05 0)
(0.00157759 -5.54242e-05 0)
(0.00157908 -4.43238e-05 0)
(0.00158025 -3.32421e-05 0)
(0.00158112 -2.2175e-05 0)
(0.00158169 -1.11137e-05 0)
(0.0015849 0 0)
(0.00158753 0 0)
(0.00158999 0 0)
(0.00159229 0 0)
(0.00159443 0 0)
(0.00159642 0 0)
(0.00159828 0 0)
(0.00160001 0 0)
(0.00160161 0 0)
(0.00160311 0 0)
(0.0016045 0 0)
(0.0016058 0 0)
(0.001607 0 0)
(0.00160812 0 0)
(0.00160916 0 0)
(0.00161013 0 0)
(0.00161103 0 0)
(0.00161187 0 0)
(0.00161265 0 0)
(0.00161337 0 0)
(0.00161405 0 0)
(0.00161469 0 0)
(0.00161528 0 0)
(0.00161583 0 0)
(0.00161635 0 0)
(0.00161684 0 0)
(0.0016173 0 0)
(0.00161773 0 0)
(0.00161813 0 0)
(0.00161852 0 0)
(0.00161889 0 0)
(0.00161924 0 0)
(0.00161957 0 0)
(0.00161989 0 0)
(0.0016202 0 0)
(0.00162049 0 0)
(0.00162078 0 0)
(0.00162105 0 0)
(0.00162132 0 0)
(0.00162132 -2.55245e-06 0)
(0.00162028 -5.1106e-06 0)
(0.00161851 -7.70362e-06 0)
(0.00161602 -1.03524e-05 0)
(0.00161282 -1.30766e-05 0)
(0.00160892 -1.58955e-05 0)
(0.00160431 -1.88282e-05 0)
(0.00159901 -2.18935e-05 0)
(0.00159301 -2.51101e-05 0)
(0.00158634 -2.84966e-05 0)
(0.001579 -3.20712e-05 0)
(0.00157099 -3.5852e-05 0)
(0.00156232 -3.98567e-05 0)
(0.00155301 -4.41029e-05 0)
(0.00154307 -4.86078e-05 0)
(0.0015325 -5.33885e-05 0)
(0.00152133 -5.84617e-05 0)
(0.00150955 -6.38436e-05 0)
(0.0014972 -6.95502e-05 0)
(0.00148427 -7.55973e-05 0)
(0.00147078 -8.2e-05 0)
(0.00145675 -8.87732e-05 0)
(0.0014422 -9.59314e-05 0)
(0.00142713 -0.000103489 0)
(0.00141156 -0.000111458 0)
(0.00139551 -0.000119853 0)
(0.001379 -0.000128686 0)
(0.00136203 -0.000137969 0)
(0.00134463 -0.000147714 0)
(0.00132681 -0.00015793 0)
(0.00130859 -0.000168628 0)
(0.00128998 -0.000179818 0)
(0.001271 -0.000191506 0)
(0.00125167 -0.000203701 0)
(0.001232 -0.000216406 0)
(0.00121201 -0.000229626 0)
(0.00119171 -0.000243358 0)
(0.00117113 -0.000257595 0)
(0.0011503 -0.000272317 0)
(0.00162237 0 0)
(0.00162311 0 0)
(0.00162386 0 0)
(0.00162463 0 0)
(0.00162544 0 0)
(0.0016263 0 0)
(0.00162722 0 0)
(0.00162821 0 0)
(0.00162928 0 0)
(0.00163044 0 0)
(0.00163168 0 0)
(0.00163303 0 0)
(0.00163448 0 0)
(0.00163603 0 0)
(0.00163769 0 0)
(0.00163946 0 0)
(0.00164134 0 0)
(0.00164334 0 0)
(0.00164545 0 0)
(0.00164769 0 0)
(0.00165004 0 0)
(0.00165252 0 0)
(0.00165511 0 0)
(0.00165783 0 0)
(0.00166067 0 0)
(0.00166363 0 0)
(0.00166671 0 0)
(0.00166991 0 0)
(0.00167324 0 0)
(0.00167668 0 0)
(0.00168024 0 0)
(0.00168393 0 0)
(0.00168773 0 0)
(0.00169164 0 0)
(0.00169567 0 0)
(0.00169982 0 0)
(0.00170408 0 0)
(0.00170845 0 0)
(0.00171293 0 0)
(0.00171752 0 0)
(0.00172221 0 0)
(0.00172701 0 0)
(0.00173192 0 0)
(0.00173692 0 0)
(0.00174202 0 0)
(0.00174722 0 0)
(0.00175252 0 0)
(0.0017579 0 0)
(0.00176338 0 0)
(0.00176894 0 0)
(0.00177459 0 0)
(0.00178033 0 0)
(0.00178614 0 0)
(0.00179203 0 0)
(0.00179799 0 0)
(0.00180403 0 0)
(0.00181013 0 0)
(0.0018163 0 0)
(0.00182253 0 0)
(0.00182882 0 0)
(0.00183517 0 0)
(0.00184156 0 0)
(0.001848 0 0)
(0.00185449 0 0)
(0.00186102 0 0)
(0.00186758 0 0)
(0.00187417 0 0)
(0.00188078 0 0)
(0.00188742 0 0)
(0.00189407 0 0)
(0.00190073 0 0)
(0.00190739 0 0)
(0.00191406 0 0)