/*--------------------------------*- C++ -*----------------------------------*\
| =========                 |                                                 |
| \\      /  F ield         | OpenFOAM: The Open Source CFD Toolbox           |
|  \\    /   O peration     | Version:  v2012                                 |
|   \\  /    A nd           | Website:  www.openfoam.com                      |
|    \\/     M anipulation  |                                                 |
\*---------------------------------------------------------------------------*/
FoamFile
{
    version     2.0;
    format      ascii;
    class       volScalarField;
    location    "17";
    object      sigmaHyd;
}
// * * * * * * * * * * * * * * * * * * * * * * * * * * * * * * * * * * * * * //

dimensions      [1 -1 -2 0 0 0 0];


internalField   nonuniform List<scalar> 
32000
(
-3.60776e+07
-3.02962e+07
-2.88745e+07
-2.35917e+07
-2.13e+07
-1.73189e+07
-1.36891e+07
-1.12935e+07
-6.19812e+06
-5.43279e+06
1.10302e+06
300927
8.18451e+06
5.92267e+06
1.50379e+07
1.14399e+07
2.16646e+07
1.68543e+07
2.80695e+07
2.21651e+07
3.42632e+07
2.73685e+07
4.02477e+07
3.24639e+07
4.6028e+07
3.74511e+07
5.16098e+07
4.23255e+07
5.70008e+07
4.70847e+07
6.21967e+07
5.17317e+07
6.7195e+07
5.62545e+07
7.20053e+07
6.06441e+07
7.66084e+07
6.48987e+07
8.09914e+07
6.89989e+07
8.51618e+07
7.2926e+07
8.9081e+07
7.66744e+07
9.27298e+07
8.02058e+07
9.61008e+07
8.34969e+07
9.91399e+07
8.65381e+07
1.01836e+08
8.92668e+07
1.04151e+08
9.16782e+07
1.06033e+08
9.37312e+07
1.07506e+08
9.53972e+07
1.08498e+08
9.66867e+07
1.09037e+08
9.75602e+07
1.09107e+08
9.80609e+07
1.08723e+08
9.81842e+07
1.07939e+08
9.79882e+07
1.06757e+08
9.75076e+07
1.0527e+08
9.67946e+07
1.03495e+08
9.58926e+07
1.01491e+08
9.48292e+07
9.93079e+07
9.30385e+07
9.55083e+07
9.02774e+07
-3.73193e+07
-3.00953e+07
-2.95158e+07
-2.30074e+07
-2.19266e+07
-1.63723e+07
-1.45077e+07
-1.0038e+07
-7.245e+06
-3.9417e+06
-143220
1.95531e+06
6.79109e+06
7.6776e+06
1.35461e+07
1.32462e+07
2.01169e+07
1.86778e+07
2.6497e+07
2.39807e+07
3.26846e+07
2.9161e+07
3.86779e+07
3.42236e+07
4.44777e+07
3.91749e+07
5.00805e+07
4.40192e+07
5.54873e+07
4.87492e+07
6.06913e+07
5.33643e+07
6.56921e+07
5.78645e+07
7.04802e+07
6.22288e+07
7.50494e+07
6.6447e+07
7.93906e+07
7.05112e+07
8.3484e+07
7.4384e+07
8.73185e+07
7.80458e+07
9.08697e+07
8.14799e+07
9.41157e+07
8.46243e+07
9.7039e+07
8.74663e+07
9.95978e+07
8.99633e+07
1.0179e+08
9.2069e+07
1.03583e+08
9.3789e+07
1.04958e+08
9.50667e+07
1.05927e+08
9.59386e+07
1.06463e+08
9.63869e+07
1.06599e+08
9.64706e+07
1.06337e+08
9.6214e+07
1.05716e+08
9.56854e+07
1.0477e+08
9.49424e+07
1.03541e+08
9.40446e+07
1.02082e+08
9.30595e+07
1.00472e+08
9.20808e+07
9.79997e+07
9.07114e+07
9.4743e+07
8.87137e+07
-3.69321e+07
-2.92468e+07
-2.95066e+07
-2.19706e+07
-2.21545e+07
-1.51116e+07
-1.49418e+07
-8.57868e+06
-7.87448e+06
-2.3185e+06
-952782
3.70322e+06
5.82321e+06
9.5176e+06
1.24506e+07
1.5146e+07
1.89192e+07
2.06072e+07
2.52218e+07
2.59175e+07
3.13513e+07
3.10934e+07
3.73051e+07
3.61427e+07
4.30757e+07
4.10739e+07
4.86517e+07
4.58914e+07
5.40261e+07
5.05979e+07
5.91955e+07
5.51808e+07
6.41452e+07
5.96327e+07
6.88653e+07
6.39475e+07
7.33459e+07
6.80948e+07
7.75754e+07
7.20475e+07
8.1531e+07
7.57921e+07
8.52003e+07
7.92743e+07
8.85648e+07
8.24572e+07
9.15963e+07
8.53175e+07
9.42966e+07
8.77828e+07
9.66302e+07
8.98492e+07
9.85879e+07
9.14647e+07
1.00175e+08
9.26339e+07
1.01368e+08
9.33592e+07
1.02198e+08
9.36634e+07
1.02651e+08
9.36001e+07
1.02773e+08
9.32142e+07
1.02563e+08
9.25839e+07
1.02072e+08
9.1767e+07
1.01316e+08
9.0838e+07
1.00327e+08
8.9852e+07
9.91141e+07
8.88608e+07
9.76358e+07
8.78652e+07
9.56446e+07
8.68156e+07
9.27612e+07
8.53668e+07
-3.64887e+07
-2.78926e+07
-2.92384e+07
-2.05814e+07
-2.20788e+07
-1.36087e+07
-1.50443e+07
-6.94859e+06
-8.14626e+06
-572427
-1.38319e+06
5.55087e+06
5.24303e+06
1.14453e+07
1.17283e+07
1.71339e+07
1.80682e+07
2.26361e+07
2.42574e+07
2.79727e+07
3.0287e+07
3.31612e+07
3.61476e+07
3.82176e+07
4.18272e+07
4.31465e+07
4.73165e+07
4.79505e+07
5.2598e+07
5.26239e+07
5.76579e+07
5.71652e+07
6.24849e+07
6.15536e+07
6.70682e+07
6.57627e+07
7.13818e+07
6.97704e+07
7.54132e+07
7.35419e+07
7.91555e+07
7.7023e+07
8.25732e+07
8.01846e+07
8.56646e+07
8.29698e+07
8.8416e+07
8.53274e+07
9.08006e+07
8.72442e+07
9.28448e+07
8.86642e+07
9.45127e+07
8.96272e+07
9.5844e+07
9.01142e+07
9.6825e+07
9.02061e+07
9.74916e+07
8.99299e+07
9.78574e+07
8.93878e+07
9.7952e+07
8.8627e+07
9.77991e+07
8.77393e+07
9.74207e+07
8.67748e+07
9.68346e+07
8.57915e+07
9.60485e+07
8.48088e+07
9.5058e+07
8.38528e+07
9.39177e+07
8.29103e+07
9.27368e+07
8.21328e+07
9.04522e+07
8.12413e+07
-3.59569e+07
-2.62493e+07
-2.87735e+07
-1.89419e+07
-2.17475e+07
-1.19137e+07
-1.48631e+07
-5.17293e+06
-8.11259e+06
1.29337e+06
-1.49699e+06
7.50139e+06
4.982e+06
1.34703e+07
1.13195e+07
1.92209e+07
1.75136e+07
2.47763e+07
2.35585e+07
3.01582e+07
2.94465e+07
3.53808e+07
3.51639e+07
4.04561e+07
4.06948e+07
4.53863e+07
4.60206e+07
5.0173e+07
5.11282e+07
5.48071e+07
5.60048e+07
5.92677e+07
6.06264e+07
6.35278e+07
6.49706e+07
6.75656e+07
6.9034e+07
7.13288e+07
7.27898e+07
7.47654e+07
7.62134e+07
7.78436e+07
7.93161e+07
8.04899e+07
8.2067e+07
8.26653e+07
8.44648e+07
8.43448e+07
8.65259e+07
8.55009e+07
8.823e+07
8.61757e+07
8.96295e+07
8.63837e+07
9.07016e+07
8.62169e+07
9.15124e+07
8.57336e+07
9.2052e+07
8.5026e+07
9.23739e+07
8.41776e+07
9.24812e+07
8.3245e+07
9.24078e+07
8.22905e+07
9.21561e+07
8.13459e+07
9.17439e+07
8.04304e+07
9.1175e+07
7.9549e+07
9.0485e+07
7.87058e+07
8.96768e+07
7.79261e+07
8.86191e+07
7.70961e+07
8.76055e+07
7.6432e+07
-3.51796e+07
-2.44695e+07
-2.80661e+07
-1.7156e+07
-2.11549e+07
-1.00908e+07
-1.44041e+07
-3.28632e+06
-7.7984e+06
3.25631e+06
-1.33544e+06
9.54438e+06
4.98252e+06
1.5593e+07
1.11562e+07
2.14208e+07
1.71824e+07
2.70474e+07
2.30521e+07
3.2489e+07
2.87526e+07
3.77543e+07
3.42652e+07
4.28482e+07
3.95743e+07
4.77732e+07
4.46687e+07
5.25155e+07
4.9526e+07
5.70545e+07
5.4125e+07
6.13596e+07
5.84446e+07
6.54035e+07
6.24776e+07
6.91288e+07
6.61967e+07
7.24793e+07
6.95827e+07
7.54145e+07
7.26454e+07
7.78603e+07
7.53589e+07
7.97803e+07
7.77313e+07
8.11574e+07
7.97764e+07
8.19895e+07
8.14932e+07
8.23347e+07
8.29253e+07
8.22473e+07
8.40742e+07
8.18252e+07
8.49852e+07
8.11647e+07
8.56798e+07
8.03429e+07
8.61722e+07
7.94558e+07
8.65072e+07
7.85459e+07
8.6678e+07
7.76521e+07
8.67101e+07
7.67993e+07
8.66052e+07
7.59915e+07
8.63803e+07
7.52228e+07
8.60381e+07
7.44921e+07
8.55935e+07
7.37887e+07
8.50168e+07
7.30926e+07
8.44459e+07
7.24599e+07
8.36939e+07
7.18191e+07
-3.40347e+07
-2.26396e+07
-2.70446e+07
-1.53041e+07
-2.02631e+07
-8.199e+06
-1.3657e+07
-1.33447e+06
-7.21342e+06
5.28503e+06
-928094
1.16629e+07
5.20286e+06
1.78084e+07
1.11805e+07
2.37333e+07
1.69979e+07
2.94465e+07
2.26399e+07
3.49534e+07
2.80904e+07
4.02572e+07
3.33365e+07
4.53529e+07
3.83602e+07
5.02265e+07
4.31421e+07
5.48538e+07
4.76616e+07
5.92004e+07
5.1901e+07
6.32312e+07
5.58483e+07
6.68879e+07
5.9481e+07
7.011e+07
6.27848e+07
7.28439e+07
6.5763e+07
7.50282e+07
6.84067e+07
7.66257e+07
7.07209e+07
7.76469e+07
7.27317e+07
7.81142e+07
7.44425e+07
7.81201e+07
7.58992e+07
7.77497e+07
7.71131e+07
7.7117e+07
7.81173e+07
7.63359e+07
7.89478e+07
7.54762e+07
7.96053e+07
7.4614e+07
8.01285e+07
7.3787e+07
8.05193e+07
7.30096e+07
8.07822e+07
7.22861e+07
8.09333e+07
7.16164e+07
8.0979e+07
7.0983e+07
8.09272e+07
7.03715e+07
8.0776e+07
6.97879e+07
8.0542e+07
6.92095e+07
8.02745e+07
6.86557e+07
7.98908e+07
6.81104e+07
7.94615e+07
6.75902e+07
-3.24579e+07
-2.07892e+07
-2.56502e+07
-1.34261e+07
-1.90397e+07
-6.27734e+06
-1.26169e+07
650870
-6.3758e+06
7.35695e+06
-307328
1.3839e+07
5.59448e+06
2.00971e+07
1.13255e+07
2.61293e+07
1.68726e+07
3.19311e+07
2.22216e+07
3.74944e+07
2.73578e+07
4.28062e+07
3.22649e+07
4.78439e+07
3.6924e+07
5.25778e+07
4.13171e+07
5.697e+07
4.54283e+07
6.09731e+07
4.92425e+07
6.45321e+07
5.27461e+07
6.75834e+07
5.5928e+07
7.00599e+07
5.8785e+07
7.19214e+07
6.13287e+07
7.31433e+07
6.3562e+07
7.37683e+07
6.5523e+07
7.38581e+07
6.72186e+07
7.35443e+07
6.86982e+07
7.29377e+07
6.99715e+07
7.21682e+07
7.10706e+07
7.13453e+07
7.20257e+07
7.05256e+07
7.28385e+07
6.97559e+07
7.3523e+07
6.90615e+07
7.41007e+07
6.8437e+07
7.45661e+07
6.78685e+07
7.4926e+07
6.73419e+07
7.5193e+07
6.68472e+07
7.53717e+07
6.63651e+07
7.54653e+07
6.58962e+07
7.54968e+07
6.54286e+07
7.54631e+07
6.49771e+07
7.53528e+07
6.45253e+07
7.52064e+07
6.40798e+07
7.49878e+07
6.36489e+07
-3.04362e+07
-1.88997e+07
-2.386e+07
-1.15192e+07
-1.74759e+07
-4.33426e+06
-1.12907e+07
2.65729e+06
-5.30254e+06
9.45269e+06
497369
1.60425e+07
6.10908e+06
2.24117e+07
1.15229e+07
2.85413e+07
1.67262e+07
3.44066e+07
2.17068e+07
3.99786e+07
2.64502e+07
4.52206e+07
3.09419e+07
5.00916e+07
3.5166e+07
5.45434e+07
3.91065e+07
5.85195e+07
4.27474e+07
6.19623e+07
4.60836e+07
6.48037e+07
4.91063e+07
6.69834e+07
5.18159e+07
6.84674e+07
5.42323e+07
6.92785e+07
5.63749e+07
6.94872e+07
5.82713e+07
6.92237e+07
5.99518e+07
6.86404e+07
6.14516e+07
6.78757e+07
6.27824e+07
6.70632e+07
6.3975e+07
6.62841e+07
6.50435e+07
6.5575e+07
6.59904e+07
6.49546e+07
6.68223e+07
6.44262e+07
6.75559e+07
6.39685e+07
6.81886e+07
6.35599e+07
6.87244e+07
6.31792e+07
6.917e+07
6.28108e+07
6.95383e+07
6.245e+07
6.98338e+07
6.20903e+07
7.0063e+07
6.17309e+07
7.02362e+07
6.13671e+07
7.03414e+07
6.10078e+07
7.03994e+07
6.06482e+07
7.04036e+07
6.02951e+07
7.03753e+07
5.99421e+07
-2.80035e+07
-1.69102e+07
-2.17067e+07
-9.53881e+06
-1.5607e+07
-2.33358e+06
-9.71869e+06
4.70508e+06
-4.04174e+06
1.15701e+07
1.42516e+06
1.82385e+07
6.67488e+06
2.46781e+07
1.16958e+07
3.08475e+07
1.64787e+07
3.66969e+07
2.10137e+07
4.21689e+07
2.52909e+07
4.72042e+07
2.92987e+07
5.17381e+07
3.30248e+07
5.57034e+07
3.64575e+07
5.90292e+07
3.95858e+07
6.16449e+07
4.24127e+07
6.34978e+07
4.49498e+07
6.45852e+07
4.72171e+07
6.49702e+07
4.92534e+07
6.47927e+07
5.10811e+07
6.42326e+07
5.27484e+07
6.34663e+07
5.42652e+07
6.26519e+07
5.56542e+07
6.18941e+07
5.69332e+07
6.1238e+07
5.81006e+07
6.06957e+07
5.91613e+07
6.02586e+07
6.01186e+07
5.99104e+07
6.09801e+07
5.96206e+07
6.17496e+07
5.93628e+07
6.24301e+07
5.91154e+07
6.30259e+07
5.88652e+07
6.35454e+07
5.86094e+07
6.40037e+07
5.83511e+07
6.43991e+07
5.80842e+07
6.47354e+07
5.78113e+07
6.50104e+07
5.75332e+07
6.52465e+07
5.72453e+07
6.54273e+07
5.6969e+07
6.55712e+07
5.66879e+07
6.567e+07
5.64186e+07
-2.5248e+07
-1.47265e+07
-1.92701e+07
-7.39482e+06
-1.35095e+07
-207294
-7.9725e+06
6.83158e+06
-2.66541e+06
1.37012e+07
2.40381e+06
2.03641e+07
7.2225e+06
2.67676e+07
1.17811e+07
3.28461e+07
1.60742e+07
3.85226e+07
2.00977e+07
4.37152e+07
2.38444e+07
4.8336e+07
2.73066e+07
5.23008e+07
3.04786e+07
5.55222e+07
3.33572e+07
5.79202e+07
3.5948e+07
5.94496e+07
3.82726e+07
6.01482e+07
4.03719e+07
6.01516e+07
4.22818e+07
5.96632e+07
4.40475e+07
5.89113e+07
4.56918e+07
5.80964e+07
4.72296e+07
5.73527e+07
4.86757e+07
5.67424e+07
5.00262e+07
5.62765e+07
5.12762e+07
5.59383e+07
5.24295e+07
5.56979e+07
5.34872e+07
5.55292e+07
5.4455e+07
5.53956e+07
5.53348e+07
5.52719e+07
5.61313e+07
5.51418e+07
5.68497e+07
5.49955e+07
5.74976e+07
5.48341e+07
5.80818e+07
5.46652e+07
5.86118e+07
5.44821e+07
5.90829e+07
5.42882e+07
5.94999e+07
5.40831e+07
5.98694e+07
5.3869e+07
6.0194e+07
5.3653e+07
6.04826e+07
5.34365e+07
6.07278e+07
5.32297e+07
6.09416e+07
5.30226e+07
-2.22993e+07
-1.22418e+07
-1.66764e+07
-4.98602e+06
-1.12929e+07
2.12318e+06
-6.15309e+06
9.07252e+06
-1.26623e+06
1.58237e+07
3.3495e+06
2.23237e+07
7.68102e+06
2.85009e+07
1.17244e+07
3.427e+07
1.54772e+07
3.95306e+07
1.89359e+07
4.41774e+07
2.20986e+07
4.81068e+07
2.49629e+07
5.12088e+07
2.7532e+07
5.33872e+07
2.98278e+07
5.46138e+07
3.18981e+07
5.49788e+07
3.37903e+07
5.46922e+07
3.55616e+07
5.40367e+07
3.72456e+07
5.32691e+07
3.88669e+07
5.25673e+07
4.04275e+07
5.20242e+07
4.19145e+07
5.16588e+07
4.33166e+07
5.14406e+07
4.46302e+07
5.13297e+07
4.58566e+07
5.12873e+07
4.69964e+07
5.12851e+07
4.80498e+07
5.12896e+07
4.90175e+07
5.12824e+07
4.99065e+07
5.12538e+07
5.07225e+07
5.11976e+07
5.14734e+07
5.1121e+07
5.21637e+07
5.10319e+07
5.27962e+07
5.09227e+07
5.33776e+07
5.07972e+07
5.39042e+07
5.06573e+07
5.43878e+07
5.05057e+07
5.48266e+07
5.03505e+07
5.52241e+07
5.01899e+07
5.55895e+07
5.0031e+07
5.59188e+07
4.98769e+07
5.62169e+07
4.9726e+07
-1.93139e+07
-9.36646e+06
-1.40705e+07
-2.23748e+06
-9.08913e+06
4.70386e+06
-4.37641e+06
1.14263e+07
53758.3
1.78726e+07
4.18041e+06
2.39783e+07
7.99747e+06
2.96542e+07
1.14931e+07
3.48015e+07
1.46647e+07
3.93119e+07
1.75105e+07
4.30747e+07
2.00314e+07
4.59599e+07
2.22443e+07
4.78588e+07
2.41958e+07
4.8762e+07
2.59525e+07
4.88445e+07
2.75996e+07
4.84028e+07
2.92016e+07
4.77764e+07
3.0794e+07
4.72085e+07
3.23767e+07
4.68222e+07
3.39295e+07
4.6643e+07
3.54314e+07
4.66254e+07
3.68653e+07
4.67071e+07
3.82244e+07
4.6843e+07
3.95065e+07
4.70009e+07
4.07078e+07
4.71615e+07
4.18235e+07
4.72956e+07
4.28596e+07
4.7394e+07
4.38214e+07
4.74553e+07
4.47136e+07
4.74781e+07
4.55456e+07
4.74775e+07
4.63207e+07
4.74596e+07
4.70368e+07
4.74128e+07
4.7703e+07
4.7349e+07
4.83165e+07
4.72632e+07
4.88883e+07
4.7166e+07
4.94186e+07
4.7063e+07
4.99072e+07
4.69513e+07
5.03606e+07
4.68397e+07
5.07794e+07
4.67247e+07
5.11717e+07
4.6614e+07
5.1535e+07
4.65064e+07
-1.64493e+07
-6.07205e+06
-1.15956e+07
856165
-7.02877e+06
7.50615e+06
-2.75669e+06
1.38194e+07
1.2026e+06
1.9725e+07
4.83118e+06
2.51408e+07
8.11111e+06
2.99753e+07
1.1034e+07
3.41274e+07
1.35854e+07
3.74972e+07
1.57622e+07
3.99483e+07
1.75951e+07
4.13715e+07
1.91576e+07
4.18164e+07
2.05657e+07
4.15942e+07
2.19433e+07
4.10909e+07
2.33586e+07
4.06883e+07
2.48309e+07
4.05407e+07
2.63408e+07
4.06698e+07
2.7853e+07
4.10106e+07
2.93303e+07
4.14538e+07
3.07545e+07
4.19169e+07
3.21232e+07
4.23582e+07
3.34291e+07
4.27583e+07
3.46662e+07
4.31107e+07
3.58236e+07
4.33887e+07
3.69085e+07
4.36005e+07
3.79254e+07
4.37544e+07
3.88776e+07
4.38522e+07
3.97769e+07
4.39197e+07
4.06206e+07
4.39646e+07
4.14019e+07
4.39695e+07
4.21345e+07
4.39574e+07
4.28134e+07
4.39164e+07
4.34536e+07
4.38651e+07
4.40532e+07
4.38064e+07
4.46107e+07
4.37351e+07
4.51356e+07
4.36639e+07
4.5622e+07
4.35839e+07
4.6081e+07
4.3507e+07
4.6518e+07
4.3429e+07
4.69306e+07
4.33573e+07
-1.38322e+07
-2.43177e+06
-9.36567e+06
4.186e+06
-5.21061e+06
1.03826e+07
-1.37991e+06
1.60756e+07
2.10584e+06
2.11774e+07
5.22058e+06
2.55946e+07
7.9358e+06
2.92288e+07
1.02304e+07
3.20014e+07
1.20873e+07
3.37425e+07
1.35462e+07
3.43784e+07
1.47246e+07
3.40908e+07
1.58091e+07
3.34081e+07
1.69395e+07
3.28025e+07
1.81883e+07
3.26982e+07
1.9531e+07
3.30729e+07
2.0931e+07
3.38182e+07
2.23418e+07
3.47764e+07
2.37275e+07
3.57803e+07
2.50836e+07
3.6729e+07
2.64112e+07
3.75839e+07
2.76999e+07
3.83269e+07
2.89375e+07
3.89569e+07
3.01051e+07
3.94439e+07
3.12152e+07
3.98212e+07
3.22678e+07
4.01039e+07
3.32625e+07
4.02991e+07
3.42128e+07
4.0451e+07
3.51067e+07
4.0566e+07
3.59354e+07
4.06199e+07
3.67215e+07
4.0655e+07
3.74494e+07
4.06495e+07
3.81437e+07
4.0635e+07
3.87962e+07
4.06104e+07
3.94045e+07
4.05689e+07
3.99835e+07
4.05292e+07
4.0521e+07
4.04761e+07
4.10327e+07
4.04234e+07
4.15218e+07
4.037e+07
4.19894e+07
4.03206e+07
4.24381e+07
4.02793e+07
-1.15317e+07
1.35532e+06
-7.44246e+06
7.5084e+06
-3.69503e+06
1.30627e+07
-313040
1.7915e+07
2.66665e+06
2.19585e+07
5.20571e+06
2.50857e+07
7.26136e+06
2.71979e+07
8.80331e+06
2.80896e+07
9.90665e+06
2.76616e+07
1.07564e+07
2.63407e+07
1.16145e+07
2.49932e+07
1.26047e+07
2.41627e+07
1.37899e+07
2.42204e+07
1.50294e+07
2.49514e+07
1.63025e+07
2.6179e+07
1.7569e+07
2.76452e+07
1.88023e+07
2.91468e+07
2.00192e+07
3.06058e+07
2.12332e+07
3.19792e+07
2.24345e+07
3.32134e+07
2.36093e+07
3.42838e+07
2.47315e+07
3.51254e+07
2.58255e+07
3.58002e+07
2.68788e+07
3.63264e+07
2.78881e+07
3.67073e+07
2.8871e+07
3.70133e+07
2.97995e+07
3.7244e+07
3.06598e+07
3.73728e+07
3.14894e+07
3.74733e+07
3.22542e+07
3.75071e+07
3.29945e+07
3.75282e+07
3.36905e+07
3.75305e+07
3.43394e+07
3.75056e+07
3.49641e+07
3.74828e+07
3.55413e+07
3.74394e+07
3.60958e+07
3.73979e+07
3.66223e+07
3.73555e+07
3.71291e+07
3.73172e+07
3.76175e+07
3.72881e+07
3.80793e+07
3.72604e+07
-9.55527e+06
4.97925e+06
-5.84575e+06
1.04763e+07
-2.53245e+06
1.51846e+07
334310
1.89708e+07
2.69276e+06
2.16976e+07
4.48427e+06
2.32816e+07
5.67333e+06
2.32881e+07
6.39042e+06
2.18143e+07
6.98284e+06
1.93972e+07
7.78514e+06
1.73939e+07
8.82214e+06
1.62584e+07
1.00933e+07
1.64505e+07
1.13511e+07
1.73091e+07
1.25817e+07
1.85536e+07
1.37067e+07
1.99943e+07
1.47548e+07
2.15617e+07
1.57949e+07
2.32375e+07
1.68365e+07
2.49783e+07
1.78634e+07
2.67176e+07
1.88776e+07
2.83547e+07
1.98516e+07
2.97473e+07
2.08502e+07
3.09399e+07
2.18379e+07
3.19057e+07
2.28028e+07
3.2672e+07
2.37782e+07
3.33056e+07
2.47077e+07
3.37948e+07
2.55751e+07
3.40937e+07
2.6438e+07
3.43382e+07
2.72256e+07
3.44618e+07
2.80078e+07
3.45539e+07
2.87417e+07
3.45999e+07
2.94249e+07
3.45971e+07
3.00912e+07
3.45906e+07
3.0699e+07
3.45486e+07
3.12898e+07
3.45069e+07
3.18486e+07
3.44592e+07
3.23878e+07
3.44145e+07
3.29083e+07
3.43797e+07
3.33975e+07
3.43443e+07
3.38664e+07
3.43134e+07
-7.88214e+06
8.08018e+06
-4.60968e+06
1.27052e+07
-1.84446e+06
1.63115e+07
323253
1.87395e+07
1.82581e+06
1.9834e+07
2.59355e+06
1.90874e+07
2.99345e+06
1.62836e+07
3.51951e+06
1.3129e+07
4.88493e+06
1.18388e+07
6.89567e+06
1.24747e+07
8.49816e+06
1.35196e+07
9.99449e+06
1.4671e+07
1.12406e+07
1.57574e+07
1.24122e+07
1.68145e+07
1.35841e+07
1.78705e+07
1.46474e+07
1.88916e+07
1.55407e+07
1.98674e+07
1.62978e+07
2.08352e+07
1.69539e+07
2.18512e+07
1.76074e+07
2.30838e+07
1.81451e+07
2.44132e+07
1.85903e+07
2.57588e+07
1.91284e+07
2.71331e+07
1.97888e+07
2.84215e+07
2.0472e+07
2.9467e+07
2.11467e+07
3.02382e+07
2.19161e+07
3.08342e+07
2.26167e+07
3.12205e+07
2.33698e+07
3.15257e+07
2.40842e+07
3.17234e+07
2.47597e+07
3.18142e+07
2.54421e+07
3.18765e+07
2.60555e+07
3.1865e+07
2.66688e+07
3.18384e+07
2.72477e+07
3.17874e+07
2.78114e+07
3.17285e+07
2.83582e+07
3.16743e+07
2.88675e+07
3.16133e+07
2.93558e+07
3.15543e+07
2.98369e+07
3.15077e+07
-6.5469e+06
1.0316e+07
-3.87115e+06
1.375e+07
-1.86768e+06
1.58378e+07
-617408
1.65124e+07
-92059.1
1.4331e+07
395259
1.05171e+07
2.44147e+06
9.14323e+06
5.02161e+06
1.00065e+07
6.59025e+06
1.10972e+07
7.71206e+06
1.21075e+07
8.74599e+06
1.31403e+07
9.79224e+06
1.41531e+07
1.08576e+07
1.51293e+07
1.19035e+07
1.60752e+07
1.29145e+07
1.69825e+07
1.38932e+07
1.78388e+07
1.48393e+07
1.86452e+07
1.57556e+07
1.94143e+07
1.66576e+07
2.01644e+07
1.7518e+07
2.08826e+07
1.83602e+07
2.16262e+07
1.90331e+07
2.23601e+07
1.94035e+07
2.30445e+07
1.96519e+07
2.38425e+07
1.99193e+07
2.48843e+07
2.00078e+07
2.58146e+07
2.01139e+07
2.67755e+07
2.04407e+07
2.76365e+07
2.08113e+07
2.82742e+07
2.12131e+07
2.87308e+07
2.17256e+07
2.90346e+07
2.21876e+07
2.9187e+07
2.27038e+07
2.92871e+07
2.32027e+07
2.93191e+07
2.37147e+07
2.93036e+07
2.42296e+07
2.92652e+07
2.47098e+07
2.91974e+07
2.51786e+07
2.91151e+07
2.56497e+07
2.90338e+07
2.61233e+07
2.89609e+07
-5.69266e+06
1.12537e+07
-3.75887e+06
1.29295e+07
-2.514e+06
1.28126e+07
-1.81746e+06
9.39881e+06
543424
7.15103e+06
3.77911e+06
8.04129e+06
5.02372e+06
8.96538e+06
5.89349e+06
9.93995e+06
6.79415e+06
1.09045e+07
7.7438e+06
1.18408e+07
8.66709e+06
1.27645e+07
9.59099e+06
1.36686e+07
1.05184e+07
1.4545e+07
1.14349e+07
1.53899e+07
1.23363e+07
1.61995e+07
1.32236e+07
1.69709e+07
1.40937e+07
1.77055e+07
1.49415e+07
1.84076e+07
1.57609e+07
1.90779e+07
1.6558e+07
1.97167e+07
1.7304e+07
2.03149e+07
1.80058e+07
2.08572e+07
1.8688e+07
2.13589e+07
1.93246e+07
2.1847e+07
1.9893e+07
2.23197e+07
2.04669e+07
2.28791e+07
2.07046e+07
2.33358e+07
2.0785e+07
2.38972e+07
2.08371e+07
2.45962e+07
2.07442e+07
2.51558e+07
2.06411e+07
2.57402e+07
2.07292e+07
2.62218e+07
2.08607e+07
2.65621e+07
2.1076e+07
2.68109e+07
2.13629e+07
2.69537e+07
2.16519e+07
2.69902e+07
2.19637e+07
2.69784e+07
2.23087e+07
2.69412e+07
2.26788e+07
2.68829e+07
2.30876e+07
2.68248e+07
-5.23155e+06
1.00561e+07
-3.48206e+06
9.27163e+06
-1.37915e+06
5.80277e+06
2.53596e+06
6.20389e+06
3.92651e+06
7.12785e+06
4.62988e+06
8.05754e+06
5.41613e+06
8.95153e+06
6.18037e+06
9.83709e+06
6.96409e+06
1.07086e+07
7.7721e+06
1.15588e+07
8.58305e+06
1.23906e+07
9.39699e+06
1.3202e+07
1.02128e+07
1.39891e+07
1.10255e+07
1.47494e+07
1.18312e+07
1.54811e+07
1.26273e+07
1.61829e+07
1.34095e+07
1.68548e+07
1.41724e+07
1.74969e+07
1.49126e+07
1.81085e+07
1.56273e+07
1.86862e+07
1.63154e+07
1.9227e+07
1.69835e+07
1.97311e+07
1.76265e+07
2.02016e+07
1.82329e+07
2.06426e+07
1.88075e+07
2.10592e+07
1.93043e+07
2.14323e+07
1.98062e+07
2.17585e+07
2.02408e+07
2.2061e+07
2.06018e+07
2.2346e+07
2.09838e+07
2.27106e+07
2.11402e+07
2.30046e+07
2.11735e+07
2.33945e+07
2.11181e+07
2.37681e+07
2.09704e+07
2.40516e+07
2.0806e+07
2.43355e+07
2.07247e+07
2.45964e+07
2.07369e+07
2.47856e+07
2.08105e+07
2.49352e+07
2.09719e+07
2.50489e+07
2.11734e+07
2.51192e+07
-3.7458e+06
5.68325e+06
389391
4.33567e+06
3.07298e+06
5.45482e+06
3.85952e+06
6.38317e+06
4.47321e+06
7.26356e+06
5.08437e+06
8.11337e+06
5.7321e+06
8.93183e+06
6.39379e+06
9.73056e+06
7.07398e+06
1.05122e+07
7.77345e+06
1.1276e+07
8.48425e+06
1.20223e+07
9.2025e+06
1.27503e+07
9.92533e+06
1.34583e+07
1.0649e+07
1.41446e+07
1.13696e+07
1.4808e+07
1.20837e+07
1.54473e+07
1.27873e+07
1.60615e+07
1.34767e+07
1.66499e+07
1.41487e+07
1.72112e+07
1.48022e+07
1.77443e+07
1.54363e+07
1.82485e+07
1.60495e+07
1.87236e+07
1.66383e+07
1.91698e+07
1.71984e+07
1.95873e+07
1.77252e+07
1.99733e+07
1.82246e+07
2.03283e+07
1.87032e+07
2.06504e+07
1.91477e+07
2.09451e+07
1.95606e+07
2.12217e+07
1.99028e+07
2.14695e+07
2.02431e+07
2.16809e+07
2.0512e+07
2.18602e+07
2.07215e+07
2.2021e+07
2.09207e+07
2.2215e+07
2.10619e+07
2.24216e+07
2.1103e+07
2.26429e+07
2.10786e+07
2.28768e+07
2.09944e+07
2.30585e+07
2.08982e+07
2.32621e+07
2.08115e+07
2.34846e+07
2.18223e+06
3.67537e+06
3.52433e+06
4.89351e+06
3.93187e+06
5.86695e+06
4.42409e+06
6.69784e+06
4.91748e+06
7.46726e+06
5.42962e+06
8.20537e+06
5.97262e+06
8.92187e+06
6.54013e+06
9.62359e+06
7.12985e+06
1.03131e+07
7.73944e+06
1.09905e+07
8.36413e+06
1.16553e+07
8.99982e+06
1.23065e+07
9.64291e+06
1.29428e+07
1.02898e+07
1.35627e+07
1.09367e+07
1.41648e+07
1.15803e+07
1.47478e+07
1.22173e+07
1.53106e+07
1.28444e+07
1.58522e+07
1.34594e+07
1.63716e+07
1.40601e+07
1.68681e+07
1.46447e+07
1.7341e+07
1.52112e+07
1.779e+07
1.57574e+07
1.82143e+07
1.62809e+07
1.86137e+07
1.67816e+07
1.8988e+07
1.72588e+07
1.93375e+07
1.77133e+07
1.96621e+07
1.81409e+07
1.99631e+07
1.8536e+07
2.02396e+07
1.89019e+07
2.04925e+07
1.92462e+07
2.07187e+07
1.95648e+07
2.09222e+07
1.9857e+07
2.11121e+07
2.01077e+07
2.12915e+07
2.03322e+07
2.14543e+07
2.0533e+07
2.15969e+07
2.06882e+07
2.17239e+07
2.08188e+07
2.1852e+07
2.09391e+07
2.20017e+07
2.10882e+07
2.22136e+07
4.71768e+06
4.92773e+06
4.58296e+06
5.70352e+06
4.70503e+06
6.39798e+06
4.97538e+06
7.043e+06
5.32145e+06
7.66528e+06
5.71975e+06
8.27789e+06
6.16147e+06
8.8853e+06
6.63809e+06
9.48928e+06
7.14354e+06
1.00898e+07
7.67295e+06
1.06855e+07
8.22141e+06
1.12751e+07
8.78446e+06
1.18568e+07
9.35808e+06
1.24289e+07
9.93851e+06
1.29896e+07
1.05222e+07
1.35375e+07
1.11058e+07
1.4071e+07
1.16863e+07
1.45889e+07
1.2261e+07
1.50901e+07
1.28273e+07
1.55737e+07
1.33832e+07
1.60389e+07
1.39266e+07
1.64851e+07
1.44558e+07
1.69117e+07
1.49692e+07
1.73181e+07
1.54654e+07
1.77043e+07
1.59433e+07
1.80702e+07
1.6402e+07
1.8416e+07
1.68409e+07
1.87415e+07
1.72584e+07
1.90469e+07
1.76542e+07
1.93327e+07
1.80282e+07
1.95997e+07
1.83833e+07
1.98483e+07
1.87181e+07
2.00805e+07
1.90289e+07
2.0298e+07
1.93152e+07
2.05022e+07
1.95822e+07
2.06926e+07
1.98338e+07
2.08693e+07
2.00697e+07
2.10363e+07
2.02882e+07
2.11988e+07
2.04861e+07
2.13581e+07
2.06451e+07
2.14954e+07
6.01639e+06
5.78791e+06
5.5763e+06
6.25923e+06
5.44605e+06
6.7496e+06
5.51e+06
7.24536e+06
5.69781e+06
7.74669e+06
5.97104e+06
8.25489e+06
6.30792e+06
8.76966e+06
6.69372e+06
9.28983e+06
7.11806e+06
9.81361e+06
7.57315e+06
1.03389e+07
8.05259e+06
1.08634e+07
8.55098e+06
1.1385e+07
9.06367e+06
1.19017e+07
9.58655e+06
1.24115e+07
1.01159e+07
1.29127e+07
1.06486e+07
1.34038e+07
1.11814e+07
1.38834e+07
1.17118e+07
1.43504e+07
1.22374e+07
1.48038e+07
1.2756e+07
1.52428e+07
1.32659e+07
1.56666e+07
1.37653e+07
1.60748e+07
1.42529e+07
1.64669e+07
1.47275e+07
1.68428e+07
1.51879e+07
1.72024e+07
1.56334e+07
1.75456e+07
1.60634e+07
1.78727e+07
1.64773e+07
1.81839e+07
1.6875e+07
1.84797e+07
1.72563e+07
1.87609e+07
1.76217e+07
1.90284e+07
1.79708e+07
1.92829e+07
1.83033e+07
1.95255e+07
1.86197e+07
1.97577e+07
1.8922e+07
1.99804e+07
1.92122e+07
2.01948e+07
1.949e+07
2.04026e+07
1.97542e+07
2.06046e+07
2.00055e+07
2.07998e+07
2.02545e+07
2.09884e+07
6.57985e+06
6.28614e+06
6.12897e+06
6.56389e+06
5.90692e+06
6.90605e+06
5.85943e+06
7.28569e+06
5.94083e+06
7.69094e+06
6.11856e+06
8.11571e+06
6.37011e+06
8.55586e+06
6.67927e+06
9.00802e+06
7.03402e+06
9.46917e+06
7.42513e+06
9.93646e+06
7.84521e+06
1.04072e+07
8.28817e+06
1.08791e+07
8.74891e+06
1.13497e+07
9.22302e+06
1.18172e+07
9.70669e+06
1.22796e+07
1.01966e+07
1.27355e+07
1.06896e+07
1.31833e+07
1.11833e+07
1.3622e+07
1.16753e+07
1.40505e+07
1.21635e+07
1.4468e+07
1.26463e+07
1.48737e+07
1.3122e+07
1.52673e+07
1.35893e+07
1.56482e+07
1.40472e+07
1.60163e+07
1.44947e+07
1.63714e+07
1.49311e+07
1.67137e+07
1.53559e+07
1.70432e+07
1.57687e+07
1.73603e+07
1.61694e+07
1.76655e+07
1.65579e+07
1.79594e+07
1.69342e+07
1.82427e+07
1.72988e+07
1.85161e+07
1.76518e+07
1.87807e+07
1.79939e+07
1.90375e+07
1.83263e+07
1.92878e+07
1.86499e+07
1.95325e+07
1.89659e+07
1.97729e+07
1.92758e+07
2.00102e+07
1.95828e+07
2.02467e+07
1.98911e+07
2.04853e+07
6.65742e+06
6.4625e+06
6.2769e+06
6.62803e+06
6.05405e+06
6.87079e+06
5.96947e+06
7.16576e+06
5.99861e+06
7.49803e+06
6.11942e+06
7.8583e+06
6.31397e+06
8.24022e+06
6.56803e+06
8.63897e+06
6.87027e+06
9.05066e+06
7.21159e+06
9.47194e+06
7.58456e+06
9.89987e+06
7.98301e+06
1.03319e+07
8.40172e+06
1.07656e+07
8.83624e+06
1.11989e+07
9.28273e+06
1.16302e+07
9.73785e+06
1.20577e+07
1.01987e+07
1.248e+07
1.06627e+07
1.2896e+07
1.11276e+07
1.33047e+07
1.15915e+07
1.37053e+07
1.20526e+07
1.40969e+07
1.25096e+07
1.44793e+07
1.29613e+07
1.48519e+07
1.34065e+07
1.52145e+07
1.38444e+07
1.55671e+07
1.42745e+07
1.59097e+07
1.46962e+07
1.62423e+07
1.51093e+07
1.65655e+07
1.55135e+07
1.68794e+07
1.59089e+07
1.71847e+07
1.62956e+07
1.7482e+07
1.66739e+07
1.7772e+07
1.70443e+07
1.80556e+07
1.74074e+07
1.83338e+07
1.77639e+07
1.86076e+07
1.81151e+07
1.88781e+07
1.84621e+07
1.91467e+07
1.88064e+07
1.9415e+07
1.91496e+07
1.96852e+07
1.94929e+07
1.99594e+07
6.39664e+06
6.36538e+06
6.10356e+06
6.47214e+06
5.92146e+06
6.65442e+06
5.8449e+06
6.89275e+06
5.86191e+06
7.17334e+06
5.95903e+06
7.48645e+06
6.12365e+06
7.82496e+06
6.34468e+06
8.18345e+06
6.61268e+06
8.55754e+06
6.91963e+06
8.94363e+06
7.25877e+06
9.33863e+06
7.62432e+06
9.73987e+06
8.01137e+06
1.0145e+07
8.41565e+06
1.0552e+07
8.83348e+06
1.0959e+07
9.26165e+06
1.13645e+07
9.69738e+06
1.17672e+07
1.01382e+07
1.21658e+07
1.05821e+07
1.25594e+07
1.1027e+07
1.29472e+07
1.14715e+07
1.33285e+07
1.19142e+07
1.37029e+07
1.23539e+07
1.40698e+07
1.27897e+07
1.44292e+07
1.32208e+07
1.47809e+07
1.36465e+07
1.5125e+07
1.40665e+07
1.54615e+07
1.44804e+07
1.57907e+07
1.48881e+07
1.6113e+07
1.52896e+07
1.64288e+07
1.5685e+07
1.67388e+07
1.60746e+07
1.70435e+07
1.64587e+07
1.73437e+07
1.68379e+07
1.76403e+07
1.72128e+07
1.79343e+07
1.75843e+07
1.82267e+07
1.79531e+07
1.85189e+07
1.83203e+07
1.88121e+07
1.86866e+07
1.9108e+07
1.90526e+07
1.94079e+07
5.88384e+06
6.03983e+06
5.67904e+06
6.12199e+06
5.55525e+06
6.27266e+06
5.51172e+06
6.47752e+06
5.54288e+06
6.7251e+06
5.64095e+06
7.00654e+06
5.79761e+06
7.31497e+06
6.00483e+06
7.64493e+06
6.25527e+06
7.99202e+06
6.54242e+06
8.35258e+06
6.86049e+06
8.72351e+06
7.20447e+06
9.10216e+06
7.56994e+06
9.48623e+06
7.95304e+06
9.87372e+06
8.35039e+06
1.02629e+07
8.75905e+06
1.06523e+07
9.1764e+06
1.10405e+07
9.60019e+06
1.14265e+07
1.00284e+07
1.18093e+07
1.04594e+07
1.21882e+07
1.08916e+07
1.25625e+07
1.13238e+07
1.29318e+07
1.17548e+07
1.32956e+07
1.21838e+07
1.36537e+07
1.26101e+07
1.40061e+07
1.3033e+07
1.43527e+07
1.34522e+07
1.46937e+07
1.38673e+07
1.50291e+07
1.42781e+07
1.53595e+07
1.46846e+07
1.56851e+07
1.50869e+07
1.60064e+07
1.54852e+07
1.6324e+07
1.58797e+07
1.66387e+07
1.62707e+07
1.69511e+07
1.66588e+07
1.72622e+07
1.70444e+07
1.75727e+07
1.74281e+07
1.78838e+07
1.78104e+07
1.81965e+07
1.81918e+07
1.85118e+07
1.85729e+07
1.88308e+07
5.17473e+06
5.52442e+06
5.05579e+06
5.60401e+06
4.99742e+06
5.74386e+06
5.00026e+06
5.93338e+06
5.06186e+06
6.16349e+06
5.17786e+06
6.42663e+06
5.34299e+06
6.71665e+06
5.55169e+06
7.02847e+06
5.79855e+06
7.35791e+06
6.0785e+06
7.70147e+06
6.38689e+06
8.05616e+06
6.71954e+06
8.41943e+06
7.07268e+06
8.7891e+06
7.44295e+06
9.16324e+06
7.8274e+06
9.54022e+06
8.22337e+06
9.91861e+06
8.62854e+06
1.02972e+07
9.04086e+06
1.06748e+07
9.45851e+06
1.10508e+07
9.87992e+06
1.14242e+07
1.03037e+07
1.17945e+07
1.07287e+07
1.21613e+07
1.1154e+07
1.25241e+07
1.15786e+07
1.28828e+07
1.20018e+07
1.32372e+07
1.24232e+07
1.35874e+07
1.28422e+07
1.39333e+07
1.32586e+07
1.42751e+07
1.36722e+07
1.46132e+07
1.40828e+07
1.49478e+07
1.44904e+07
1.52794e+07
1.48952e+07
1.56085e+07
1.52972e+07
1.59356e+07
1.56967e+07
1.62613e+07
1.60939e+07
1.65865e+07
1.64892e+07
1.69117e+07
1.68829e+07
1.72378e+07
1.72754e+07
1.75655e+07
1.76669e+07
1.78957e+07
1.80579e+07
1.82289e+07
4.30919e+06
4.85147e+06
4.27329e+06
4.94309e+06
4.28289e+06
5.08685e+06
4.33904e+06
5.27486e+06
4.44086e+06
5.49994e+06
4.58604e+06
5.75591e+06
4.77133e+06
6.03745e+06
4.99304e+06
6.34008e+06
5.24733e+06
6.66001e+06
5.53042e+06
6.99401e+06
5.8387e+06
7.33931e+06
6.16883e+06
7.69353e+06
6.51772e+06
8.05463e+06
6.88257e+06
8.42083e+06
7.26085e+06
8.79058e+06
7.65027e+06
9.16255e+06
8.0488e+06
9.5356e+06
8.45463e+06
9.90875e+06
8.86617e+06
1.02812e+07
9.28199e+06
1.06522e+07
9.70087e+06
1.10212e+07
1.01217e+07
1.13878e+07