/*--------------------------------*- C++ -*----------------------------------*\
| =========                 |                                                 |
| \\      /  F ield         | OpenFOAM: The Open Source CFD Toolbox           |
|  \\    /   O peration     | Version:  v2012                                 |
|   \\  /    A nd           | Website:  www.openfoam.com                      |
|    \\/     M anipulation  |                                                 |
\*---------------------------------------------------------------------------*/
FoamFile
{
    version     2.0;
    format      ascii;
    class       volSymmTensorField;
    location    "17";
    object      sigma;
}
// * * * * * * * * * * * * * * * * * * * * * * * * * * * * * * * * * * * * * //

dimensions      [1 -1 -2 0 0 0 0];


internalField   nonuniform List<symmTensor> 
32000
(
(-1.26168e+08 -2.02492e+06 -6.62478e-05 1.30907e+06 -2.96706e-05 1.66263e+07)
(-1.11877e+08 5.93887e+06 -8.38524e-05 1.40359e+06 0.000489709 1.95849e+07)
(-1.08973e+08 -3.10845e+06 -1.68688e-05 -457931 -9.9285e-06 2.28071e+07)
(-9.58019e+07 4.86305e+06 0.000235665 22753.4 0.000134027 2.50041e+07)
(-9.19009e+07 -3.71341e+06 0.000249337 -1.15925e+06 -0.000480031 2.91601e+07)
(-8.0703e+07 3.91279e+06 0.000203953 -1.28641e+06 -0.000324635 3.00327e+07)
(-7.54105e+07 -4.00191e+06 -4.68449e-05 -1.10236e+06 -0.000773212 3.54457e+07)
(-6.6413e+07 3.09763e+06 0.00021136 -2.32284e+06 -0.000170718 3.48555e+07)
(-5.96458e+07 -4.10144e+06 0.000255038 -506435 -0.000255148 4.15579e+07)
(-5.283e+07 2.3833e+06 0.000473391 -3.00673e+06 0.000244449 3.95384e+07)
(-4.46354e+07 -4.09318e+06 0.000212978 489396 0.000420799 4.74551e+07)
(-3.98819e+07 1.74139e+06 0.000411576 -3.31886e+06 0.000505241 4.41035e+07)
(-3.03613e+07 -4.0234e+06 0.000193745 1.7966e+06 0.00046833 5.31182e+07)
(-2.75151e+07 1.15311e+06 6.30148e-05 -3.27125e+06 0.000337287 4.85543e+07)
(-1.67862e+07 -3.91929e+06 -0.000130659 3.35732e+06 0.00036875 5.85426e+07)
(-1.56833e+07 606928 -1.21282e-05 -2.8858e+06 0.000422057 5.28888e+07)
(-3.86616e+06 -3.79624e+06 0.000118032 5.13159e+06 0.00040817 6.37285e+07)
(-4.34907e+06 95930.1 0.000354675 -2.19129e+06 0.00052153 5.71031e+07)
(8.4427e+06 -3.66265e+06 0.000231763 7.08959e+06 0.000476711 6.86763e+07)
(6.52306e+06 -385042 0.000324263 -1.21393e+06 0.000581722 6.11862e+07)
(2.01837e+07 -3.52512e+06 8.85681e-05 9.20918e+06 0.000369477 7.33966e+07)
(1.69621e+07 -837966 0.000172624 18195.9 0.000581993 6.51252e+07)
(3.13944e+07 -3.38433e+06 8.17223e-05 1.14703e+07 0.000584036 7.78783e+07)
(2.69976e+07 -1.2659e+06 0.000101232 1.48229e+06 0.000847606 6.89119e+07)
(4.21101e+07 -3.24251e+06 1.82634e-05 1.38565e+07 0.000816077 8.21174e+07)
(3.66541e+07 -1.67161e+06 7.14151e-05 3.1548e+06 0.00086389 7.25443e+07)
(5.23637e+07 -3.10112e+06 5.20401e-05 1.63541e+07 0.000841216 8.61115e+07)
(4.59574e+07 -2.05956e+06 0.000177887 5.01913e+06 0.000842172 7.60001e+07)
(6.21863e+07 -2.96027e+06 0.000123049 1.89522e+07 0.000793665 8.98638e+07)
(5.49298e+07 -2.432e+06 0.00015713 7.05932e+06 0.000789665 7.9265e+07)
(7.1602e+07 -2.81515e+06 3.1956e-05 2.16388e+07 0.000593176 9.33492e+07)
(6.35931e+07 -2.79058e+06 7.79787e-05 9.26217e+06 0.000629919 8.23399e+07)
(8.06312e+07 -2.66376e+06 4.47881e-05 2.44022e+07 0.000367579 9.65514e+07)
(7.19572e+07 -3.13743e+06 5.35792e-05 1.16074e+07 0.000450008 8.5199e+07)
(8.92956e+07 -2.50918e+06 8.04476e-06 2.72336e+07 0.000305215 9.94866e+07)
(8.00374e+07 -3.47353e+06 -4.44516e-05 1.40844e+07 0.00035574 8.78105e+07)
(9.76041e+07 -2.34053e+06 -5.16212e-05 3.01194e+07 0.000219945 1.02102e+08)
(8.78443e+07 -3.79871e+06 1.67648e-05 1.66795e+07 6.10303e-05 9.01723e+07)
(1.05562e+08 -2.15417e+06 6.77997e-05 3.30443e+07 0.000255466 1.04368e+08)
(9.53746e+07 -4.11445e+06 7.69978e-05 1.93694e+07 0.000207768 9.22526e+07)
(1.13178e+08 -1.95418e+06 8.05391e-06 3.59963e+07 0.000447845 1.06311e+08)
(1.02632e+08 -4.41902e+06 6.44042e-05 2.21443e+07 0.000296401 9.40013e+07)
(1.20442e+08 -1.72449e+06 5.51161e-05 3.89547e+07 0.000265948 1.07846e+08)
(1.09613e+08 -4.70906e+06 -2.38773e-05 2.49833e+07 9.279e-05 9.54269e+07)
(1.27342e+08 -1.46241e+06 -7.82237e-05 4.18966e+07 -0.000174354 1.08951e+08)
(1.16294e+08 -4.98313e+06 -0.000129143 2.78548e+07 -2.00629e-05 9.64686e+07)
(1.33868e+08 -1.16827e+06 -4.86654e-05 4.47988e+07 -0.000241567 1.09636e+08)
(1.22666e+08 -5.23435e+06 1.01739e-05 3.0747e+07 2.67986e-05 9.70775e+07)
(1.39984e+08 -827538 5.83725e-05 4.76287e+07 -0.000314301 1.09807e+08)
(1.28702e+08 -5.45413e+06 0.000167499 3.36137e+07 -0.000118363 9.72988e+07)
(1.45668e+08 -445072 0.000105846 5.03526e+07 -0.000283053 1.09487e+08)
(1.34361e+08 -5.6353e+06 0.000147568 3.64236e+07 -8.10775e-05 9.70157e+07)
(1.50883e+08 -13876 3.90569e-05 5.29309e+07 -2.721e-05 1.08638e+08)
(1.39626e+08 -5.76271e+06 5.35247e-05 3.91468e+07 3.0686e-05 9.62619e+07)
(1.5558e+08 470251 1.34816e-05 5.53161e+07 -2.88558e-07 1.07202e+08)
(1.44442e+08 -5.82698e+06 3.73037e-05 4.17145e+07 -7.81038e-05 9.50371e+07)
(1.5975e+08 985078 2.30501e-05 5.7468e+07 -1.58053e-05 1.05301e+08)
(1.4879e+08 -5.81016e+06 4.13435e-05 4.41128e+07 -3.26415e-05 9.32894e+07)
(1.63334e+08 1.53908e+06 1.74642e-05 5.93351e+07 4.55528e-05 1.02825e+08)
(1.52637e+08 -5.70001e+06 -1.68607e-05 4.62579e+07 -2.28711e-05 9.1165e+07)
(1.66332e+08 2.10752e+06 -3.38405e-05 6.08735e+07 6.72055e-05 9.99056e+07)
(1.55963e+08 -5.484e+06 -0.000146429 4.81348e+07 1.18327e-05 8.85831e+07)
(1.68726e+08 2.67967e+06 -0.000109273 6.20392e+07 0.000104173 9.65567e+07)
(1.5878e+08 -5.15327e+06 -0.000234783 4.96997e+07 2.83979e-05 8.57031e+07)
(1.70522e+08 3.23732e+06 -0.000120381 6.27941e+07 8.1758e-05 9.28538e+07)
(1.61082e+08 -4.70674e+06 -0.000194855 5.09118e+07 -3.82681e-05 8.25588e+07)
(1.71762e+08 3.75636e+06 -7.0291e-05 6.31116e+07 6.23602e-05 8.89421e+07)
(1.62925e+08 -4.14071e+06 -0.000158135 5.17856e+07 -1.61629e-05 7.92544e+07)
(1.72461e+08 4.22775e+06 -8.42371e-05 6.2968e+07 1.93647e-05 8.48434e+07)
(1.64329e+08 -3.46962e+06 -9.79775e-05 5.22673e+07 -6.26366e-05 7.59263e+07)
(1.72702e+08 4.63196e+06 -1.16776e-05 6.23555e+07 -4.14243e-05 8.07527e+07)
(1.65363e+08 -2.6971e+06 9.59142e-05 5.24008e+07 -5.198e-05 7.26201e+07)
(1.72518e+08 4.96733e+06 0.000105041 6.1269e+07 -8.74616e-05 7.66991e+07)
(1.66068e+08 -1.85046e+06 0.000159994 5.21621e+07 -7.40271e-05 6.94478e+07)
(1.71975e+08 5.23358e+06 5.12755e-05 5.97152e+07 -8.19737e-05 7.27817e+07)
(1.66482e+08 -957749 0.000124795 5.15463e+07 -1.16767e-05 6.64599e+07)
(1.71135e+08 5.4385e+06 7.04384e-05 5.77094e+07 -4.82918e-05 6.90798e+07)
(1.63203e+08 88757.9 0.000112323 5.15017e+07 6.60863e-06 6.44113e+07)
(1.65013e+08 5.2102e+06 3.91877e-05 5.53911e+07 7.79958e-06 6.61212e+07)
(1.57458e+08 521867 8.25714e-05 5.08749e+07 2.90266e-05 6.24997e+07)
(-1.26246e+08 -1.1639e+06 0.000269036 -2.02024e+06 0.000687875 1.63083e+07)
(-1.10529e+08 7.7899e+06 0.000506598 703417 0.000465281 1.95391e+07)
(-1.08493e+08 -1.86393e+06 0.000399689 -2.55917e+06 0.000407793 2.25048e+07)
(-9.41058e+07 6.274e+06 0.000535079 -294492 0.000671786 2.53781e+07)
(-9.16923e+07 -2.70023e+06 0.000322866 -2.71317e+06 0.000541938 2.86255e+07)
(-7.87837e+07 4.82053e+06 7.98371e-05 -1.11453e+06 0.000569423 3.07812e+07)
(-7.56575e+07 -3.49834e+06 0.00021798 -2.48988e+06 0.000290777 3.46242e+07)
(-6.43362e+07 3.44357e+06 0.000321209 -1.67856e+06 0.000167227 3.59009e+07)
(-6.03251e+07 -4.20492e+06 0.000530636 -1.89266e+06 0.000199745 4.04827e+07)
(-5.06546e+07 2.15555e+06 0.000353119 -1.96733e+06 0.0002937 4.07969e+07)
(-4.56637e+07 -4.81151e+06 0.000493026 -948451 0.000423009 4.61825e+07)
(-3.76609e+07 957996 0.000331161 -1.97534e+06 0.00031868 4.55022e+07)
(-3.16463e+07 -5.3268e+06 0.000119151 307714 0.000272522 5.17119e+07)
(-2.52929e+07 -153350 0.000100485 -1.70723e+06 0.000353494 5.00329e+07)
(-1.8249e+07 -5.76268e+06 0.000160141 1.83506e+06 0.000470926 5.70524e+07)
(-1.34939e+07 -1.18665e+06 0.000276245 -1.16948e+06 0.000565838 5.4402e+07)
(-5.44292e+06 -6.13226e+06 0.000337196 3.59908e+06 0.000627553 6.21944e+07)
(-2.21417e+06 -2.14824e+06 0.00038844 -371951 0.00062088 5.86195e+07)
(6.799e+06 -6.44702e+06 0.000495988 5.56663e+06 0.000617727 6.71253e+07)
(8.58686e+06 -3.04336e+06 0.000333147 669469 0.000517728 6.26858e+07)
(1.85053e+07 -6.71564e+06 0.000243236 7.70984e+06 0.000692108 7.18388e+07)
(1.89472e+07 -3.87819e+06 0.00026363 1.94006e+06 0.000626782 6.65956e+07)
(2.97034e+07 -6.94468e+06 0.000210284 1.00033e+07 0.000778738 7.63269e+07)
(2.89014e+07 -4.66012e+06 0.000232946 3.4255e+06 0.000788021 7.03438e+07)
(4.04234e+07 -7.14087e+06 0.000174198 1.2429e+07 0.000904645 8.05806e+07)
(3.84817e+07 -5.39589e+06 0.000169555 5.11343e+06 0.000917514 7.39297e+07)
(5.06894e+07 -7.30828e+06 0.0001906 1.49672e+07 0.000876824 8.4585e+07)
(4.77172e+07 -6.08964e+06 0.000123167 6.99227e+06 0.000795 7.73482e+07)
(6.05237e+07 -7.44975e+06 0.000144674 1.75998e+07 0.000756762 8.83385e+07)
(5.66276e+07 -6.74504e+06 0.000145203 9.04575e+06 0.000662017 8.05744e+07)
(6.99444e+07 -7.56385e+06 0.000202012 2.03097e+07 0.000731143 9.18197e+07)
(6.52341e+07 -7.36503e+06 0.000232117 1.12624e+07 0.000652084 8.35963e+07)
(7.89753e+07 -7.65038e+06 0.000114266 2.30895e+07 0.000629556 9.50114e+07)
(7.35525e+07 -7.95011e+06 4.10606e-05 1.36271e+07 0.000436566 8.64138e+07)
(8.76243e+07 -7.70549e+06 -7.19076e-05 2.59183e+07 0.000306518 9.7898e+07)
(8.1588e+07 -8.50165e+06 -0.00010528 1.61205e+07 0.000200856 8.89778e+07)
(9.59025e+07 -7.72267e+06 -8.87154e-06 2.87817e+07 9.28377e-05 1.00464e+08)
(8.93499e+07 -9.01737e+06 2.416e-05 1.87295e+07 -2.20893e-05 9.12617e+07)
(1.03824e+08 -7.69755e+06 5.93815e-05 3.16743e+07 -9.68416e-05 1.02674e+08)
(9.68363e+07 -9.49306e+06 2.13499e-05 2.14297e+07 -3.04776e-05 9.32675e+07)
(1.11378e+08 -7.61913e+06 9.50257e-05 3.4567e+07 0.000130096 1.04507e+08)
(1.04035e+08 -9.92491e+06 0.000104363 2.41955e+07 8.59299e-05 9.49218e+07)
(1.18566e+08 -7.47617e+06 -5.62373e-06 3.74444e+07 8.29888e-05 1.05945e+08)
(1.10938e+08 -1.03026e+07 -8.29371e-05 2.70067e+07 -5.22854e-05 9.61925e+07)
(1.25383e+08 -7.25762e+06 -0.000151369 4.0295e+07 0.000109904 1.06932e+08)
(1.17526e+08 -1.06147e+07 -0.000109757 2.9825e+07 4.79355e-05 9.7089e+07)
(1.318e+08 -6.94961e+06 -2.82492e-05 4.30765e+07 0.000180739 1.07471e+08)
(1.23758e+08 -1.08489e+07 1.21123e-05 3.26093e+07 -1.07526e-05 9.75058e+07)
(1.37812e+08 -6.54018e+06 0.000159605 4.57807e+07 2.63697e-05 1.07525e+08)
(1.29616e+08 -1.09843e+07 0.000123662 3.53274e+07 -2.77055e-05 9.74556e+07)
(1.43381e+08 -6.0122e+06 0.000172923 4.837e+07 2.45454e-05 1.07043e+08)
(1.35052e+08 -1.10055e+07 1.33293e-05 3.79204e+07 7.58632e-05 9.69179e+07)
(1.48483e+08 -5.36017e+06 3.59694e-06 5.08027e+07 2.59662e-05 1.06083e+08)
(1.40028e+08 -1.08875e+07 -4.38794e-05 4.03511e+07 3.33998e-05 9.58277e+07)
(1.53099e+08 -4.57885e+06 3.09649e-05 5.30742e+07 -3.98463e-05 1.04575e+08)
(1.44516e+08 -1.06117e+07 -6.96636e-05 4.25544e+07 -3.83868e-05 9.42961e+07)
(1.5718e+08 -3.66301e+06 -4.29922e-05 5.51084e+07 -9.29644e-05 1.02587e+08)
(1.48473e+08 -1.0158e+07 -0.000137149 4.44927e+07 -9.68984e-05 9.22341e+07)
(1.60735e+08 -2.62574e+06 -8.37259e-05 5.69121e+07 -0.000102008 1.00135e+08)
(1.51906e+08 -9.51373e+06 -0.000221041 4.6133e+07 -0.000161608 8.97773e+07)
(1.6372e+08 -1.47588e+06 -0.000262052 5.84174e+07 -0.000133072 9.72516e+07)
(1.5479e+08 -8.67625e+06 -0.000231764 4.74334e+07 -0.000191155 8.69377e+07)
(1.6615e+08 -236312 -0.000238841 5.95982e+07 -0.000115869 9.40496e+07)
(1.57173e+08 -7.64219e+06 -0.000212526 4.84088e+07 -0.000142968 8.38305e+07)
(1.6803e+08 1.06554e+06 -0.000280888 6.04352e+07 -0.000113734 9.05455e+07)
(1.59063e+08 -6.43541e+06 -0.00029427 4.90252e+07 -8.18262e-05 8.05533e+07)
(1.69378e+08 2.40092e+06 -0.000291156 6.0868e+07 -8.18316e-05 8.6903e+07)
(1.60536e+08 -5.05994e+06 -0.000238421 4.93394e+07 -7.96102e-05 7.71807e+07)
(1.70246e+08 3.73562e+06 -0.000116236 6.0923e+07 -9.34771e-05 8.31401e+07)
(1.61632e+08 -3.56017e+06 -3.23138e-05 4.93284e+07 -0.000123142 7.38667e+07)
(1.7067e+08 5.03637e+06 9.29773e-05 6.05477e+07 -0.000100979 7.94043e+07)
(1.62427e+08 -1.94555e+06 0.000107772 4.90613e+07 -9.68772e-05 7.06461e+07)
(1.70722e+08 6.27412e+06 0.000165215 5.97744e+07 -3.43029e-05 7.57482e+07)
(1.62983e+08 -254056 4.67942e-05 4.85499e+07 1.66258e-05 6.76453e+07)
(1.70499e+08 7.39716e+06 0.000115391 5.86443e+07 4.44905e-05 7.2273e+07)
(1.63402e+08 1.52037e+06 9.46667e-05 4.78642e+07 8.90901e-05 6.49759e+07)
(1.69213e+08 8.62191e+06 0.000145294 5.61138e+07 8.41841e-05 6.86727e+07)
(1.61884e+08 3.33839e+06 6.85164e-05 4.74497e+07 0.000134905 6.28002e+07)
(1.65005e+08 8.98937e+06 7.843e-05 5.36322e+07 7.54038e-05 6.55913e+07)
(1.56865e+08 4.32259e+06 1.22328e-05 4.78589e+07 0.000152139 6.14172e+07)
(-1.25193e+08 875618 0.000644778 -2.32052e+06 0.00034148 1.67172e+07)
(-1.08508e+08 9.77442e+06 0.00025797 654510 -0.00011243 2.01135e+07)
(-1.07775e+08 -574419 0.000257558 -3.27309e+06 0.000280317 2.25282e+07)
(-9.19287e+07 7.56238e+06 0.00010452 -86152 -0.000153099 2.61031e+07)
(-9.12269e+07 -1.96481e+06 0.00014279 -3.59367e+06 0.000273432 2.83571e+07)
(-7.64591e+07 5.5059e+06 -1.00202e-05 -584778 -0.000135612 3.17091e+07)
(-7.54777e+07 -3.2914e+06 3.24402e-05 -3.45325e+06 4.30373e-05 3.41056e+07)
(-6.19177e+07 3.57328e+06 6.72279e-05 -827227 -0.000316544 3.70089e+07)
(-6.04487e+07 -4.53029e+06 0.000183256 -2.91692e+06 -9.26081e-05 3.97422e+07)
(-4.81881e+07 1.75807e+06 0.000156334 -817563 -0.00021001 4.20502e+07)
(-4.60815e+07 -5.66803e+06 0.000168355 -2.02586e+06 7.8716e-05 4.5249e+07)
(-3.51858e+07 56781.9 8.06317e-05 -565657 -9.00087e-05 4.68611e+07)
(-3.23296e+07 -6.70026e+06 0.000225655 -814411 0.000234787 5.06136e+07)
(-2.2837e+07 -1.53535e+06 0.000296325 -76055.4 0.000137519 5.14658e+07)
(-1.91572e+07 -7.63193e+06 0.000284965 683233 0.000354451 5.58259e+07)
(-1.10821e+07 -3.02155e+06 0.000199135 642540 0.000180089 5.58775e+07)
(-6.53851e+06 -8.46859e+06 0.000243254 2.43028e+06 0.000390096 6.08657e+07)
(132449 -4.40696e+06 0.000463088 1.58205e+06 0.000338941 6.01071e+07)
(5.55253e+06 -9.21773e+06 0.000445486 4.39484e+06 0.000473366 6.5718e+07)
(1.0855e+07 -5.6992e+06 0.000400806 2.73413e+06 0.000443795 6.41633e+07)
(1.71398e+07 -9.88733e+06 0.000307299 6.54672e+06 0.000426219 7.03674e+07)
(2.11326e+07 -6.90683e+06 0.000350417 4.09365e+06 0.000467846 6.80538e+07)
(2.8248e+07 -1.04873e+07 0.000327482 8.86053e+06 0.000681102 7.48068e+07)
(3.10038e+07 -8.03766e+06 0.000304497 5.65237e+06 0.000689823 7.17721e+07)
(3.8897e+07 -1.10239e+07 0.000203962 1.131e+07 0.000812069 7.90201e+07)
(4.05038e+07 -9.09754e+06 0.000140508 7.40327e+06 0.000661946 7.53145e+07)
(4.91021e+07 -1.1502e+07 3.99699e-05 1.38695e+07 0.000689237 8.29835e+07)
(4.96605e+07 -1.00919e+07 0.000123049 9.3356e+06 0.000742885 7.86781e+07)
(5.8881e+07 -1.19236e+07 0.000206642 1.65191e+07 0.000754353 8.66782e+07)
(5.84995e+07 -1.10241e+07 0.00015035 1.14394e+07 0.000738164 8.18548e+07)
(6.82476e+07 -1.22921e+07 0.000119782 1.92383e+07 0.00056719 9.01005e+07)
(6.70348e+07 -1.18963e+07 8.48754e-06 1.36977e+07 0.000397354 8.48099e+07)
(7.72132e+07 -1.26022e+07 4.98944e-05 2.2007e+07 0.000294096 9.32155e+07)
(7.52806e+07 -1.27086e+07 6.02813e-05 1.60957e+07 0.000173611 8.75217e+07)
(8.57896e+07 -1.28489e+07 1.64399e-05 2.48097e+07 0.000213316 9.59964e+07)
(8.32428e+07 -1.3459e+07 1.75205e-05 1.8612e+07 0.000198135 8.99877e+07)
(9.39808e+07 -1.30271e+07 -7.16786e-05 2.76248e+07 6.99512e-05 9.84323e+07)
(9.09181e+07 -1.41439e+07 -5.84407e-05 2.12234e+07 -2.56968e-05 9.21428e+07)
(1.01793e+08 -1.31235e+07 1.14397e-06 3.04366e+07 -5.21016e-05 1.00497e+08)
(9.82971e+07 -1.47529e+07 1.13276e-05 2.39007e+07 1.5881e-05 9.39448e+07)
(1.09224e+08 -1.31237e+07 4.1973e-05 3.32271e+07 -4.98053e-06 1.02142e+08)
(1.05367e+08 -1.52749e+07 7.6692e-05 2.66094e+07 -4.09268e-05 9.53998e+07)
(1.16266e+08 -1.30156e+07 6.07576e-05 3.59693e+07 -8.23631e-05 1.03366e+08)
(1.12099e+08 -1.56958e+07 0.000151133 2.93102e+07 -8.13871e-05 9.64137e+07)
(1.22912e+08 -1.27771e+07 4.38055e-05 3.86476e+07 -0.000109875 1.04135e+08)
(1.18461e+08 -1.59933e+07 0.000251758 3.19568e+07 -7.86715e-05 9.69538e+07)
(1.29149e+08 -1.23874e+07 0.000132985 4.12418e+07 -0.000107411 1.04398e+08)
(1.24423e+08 -1.61466e+07 0.000223258 3.44988e+07 -7.01347e-05 9.70312e+07)
(1.3496e+08 -1.18358e+07 6.51907e-05 4.37204e+07 -2.57793e-05 1.0421e+08)
(1.29928e+08 -1.61256e+07 7.68964e-05 3.68763e+07 5.18372e-05 9.65442e+07)
(1.40327e+08 -1.10962e+07 -2.18831e-05 4.60711e+07 0.000100317 1.03492e+08)
(1.34951e+08 -1.5902e+07 -3.67795e-05 3.9037e+07 6.61877e-05 9.55593e+07)
(1.45221e+08 -1.01622e+07 -4.80281e-05 4.82558e+07 4.87022e-05 1.02286e+08)
(1.39442e+08 -1.54533e+07 -5.5893e-05 4.09221e+07 -1.19337e-06 9.40297e+07)
(1.49638e+08 -9.02232e+06 -0.000150303 5.02639e+07 -1.5338e-05 1.00623e+08)
(1.43389e+08 -1.47521e+07 -0.000243756 4.2497e+07 -8.39e-06 9.20154e+07)
(1.53544e+08 -7.68225e+06 -0.00025276 5.20626e+07 -3.66569e-05 9.84991e+07)
(1.46775e+08 -1.3796e+07 -0.000172973 4.37219e+07 -5.74885e-06 8.95802e+07)
(1.56938e+08 -6.15186e+06 -0.00019276 5.36227e+07 -0.000127173 9.60344e+07)
(1.49617e+08 -1.25735e+07 -9.74801e-05 4.46018e+07 -4.63127e-05 8.67711e+07)
(1.59808e+08 -4.44792e+06 -9.91163e-05 5.49326e+07 -0.000140512 9.32127e+07)
(1.51941e+08 -1.11102e+07 -2.85457e-05 4.51251e+07 -4.81875e-05 8.37346e+07)
(1.62167e+08 -2.6136e+06 -0.000139332 5.59484e+07 -0.000127504 9.02037e+07)
(1.53795e+08 -9.41326e+06 -0.000209656 4.53426e+07 -6.78438e-05 8.05052e+07)
(1.64024e+08 -667183 -0.000297157 5.66786e+07 -5.28188e-05 8.6987e+07)
(1.55233e+08 -7.53532e+06 -0.00021115 4.52634e+07 -7.36495e-05 7.72553e+07)
(1.6541e+08 1.32663e+06 -0.00015779 5.70722e+07 -0.000100537 8.37332e+07)
(1.56327e+08 -5.48988e+06 -9.1221e-05 4.49695e+07 -0.000137968 7.40044e+07)
(1.66359e+08 3.35318e+06 -8.91938e-05 5.71542e+07 -0.000145472 8.04332e+07)
(1.57136e+08 -3.34319e+06 -9.94075e-05 4.44721e+07 -0.000129798 7.09057e+07)
(1.66903e+08 5.35831e+06 -2.3818e-05 5.68768e+07 -0.000102818 7.7201e+07)
(1.57734e+08 -1.10209e+06 -4.39671e-05 4.38598e+07 -8.49117e-05 6.79623e+07)
(1.67064e+08 7.34072e+06 -2.57e-05 5.6235e+07 -2.73584e-05 7.40429e+07)
(1.58171e+08 1.18061e+06 -1.58608e-05 4.31483e+07 -4.9833e-05 6.52631e+07)
(1.66803e+08 9.32424e+06 3.87753e-05 5.51343e+07 4.06743e-05 7.09707e+07)
(1.58468e+08 3.48899e+06 0.000114209 4.23772e+07 -3.62074e-05 6.27507e+07)
(1.65875e+08 1.12385e+07 9.40195e-05 5.3244e+07 6.56893e-05 6.78146e+07)
(1.58596e+08 5.71379e+06 1.33398e-05 4.15187e+07 -2.6481e-05 6.0332e+07)
(1.63998e+08 1.24224e+07 -7.61423e-05 5.00491e+07 0.000121734 6.42361e+07)
(1.55304e+08 7.9186e+06 -0.000148347 4.16962e+07 1.52722e-05 5.91001e+07)
(-1.2363e+08 3.02381e+06 -5.72758e-06 -2.77228e+06 -0.000303651 1.69356e+07)
(-1.05596e+08 1.16185e+07 -0.000137146 831677 -0.000300343 2.10863e+07)
(-1.06547e+08 771446 -2.19298e-05 -3.77867e+06 -0.000535642 2.26105e+07)
(-8.91321e+07 8.73736e+06 9.74359e-06 309557 -9.13209e-05 2.70785e+07)
(-9.02991e+07 -1.28389e+06 -1.48823e-05 -4.18202e+06 -0.000115034 2.82446e+07)
(-7.36845e+07 6.07091e+06 0.000146641 89913.6 0.000146236 3.27685e+07)
(-7.48332e+07 -3.19244e+06 0.000184349 -4.09762e+06 -0.000234309 3.37978e+07)
(-5.91511e+07 3.58426e+06 0.000392419 134991 -0.000601564 3.81704e+07)
(-6.00854e+07 -4.96825e+06 0.000245639 -3.5995e+06 -0.000794255 3.92462e+07)
(-4.54403e+07 1.25581e+06 0.00038465 419249 -0.000915907 4.33038e+07)
(-4.59926e+07 -6.6152e+06 0.000205401 -2.73519e+06 -0.000489837 4.45782e+07)
(-3.24684e+07 -927616 0.000297004 928989 -0.000490703 4.8192e+07)
(-3.25052e+07 -8.13638e+06 0.000241438 -1.5457e+06 -0.000180696 4.978e+07)
(-2.01678e+07 -2.97276e+06 0.000373007 1.6498e+06 -0.000353159 5.2854e+07)
(-1.95839e+07 -9.53341e+06 0.00034096 -67679.3 -0.000200539 5.48365e+07)
(-8.47564e+06 -4.88567e+06 0.000413371 2.57276e+06 -0.000311853 5.73047e+07)
(-7.19634e+06 -1.08112e+07 0.000488168 1.6648e+06 2.5367e-05 5.97362e+07)
(2.6651e+06 -6.67457e+06 0.000719311 3.68998e+06 5.19879e-05 6.15531e+07)
(4.6874e+06 -1.19757e+07 0.000645732 3.62054e+06 0.000340362 6.44642e+07)
(1.33099e+07 -8.34904e+06 0.000525471 4.99904e+06 7.85155e-05 6.56093e+07)
(1.6091e+07 -1.30354e+07 0.000321674 5.76824e+06 0.000228539 6.90017e+07)
(2.35075e+07 -9.91761e+06 0.000269346 6.49729e+06 7.02215e-05 6.94788e+07)
(2.70349e+07 -1.39966e+07 0.000276088 8.07879e+06 0.00032589 7.33292e+07)
(3.32999e+07 -1.13864e+07 0.000192463 8.18085e+06 0.000230052 7.3172e+07)
(3.75328e+07 -1.48652e+07 0.000158288 1.0522e+07 0.000451716 7.74268e+07)
(4.27208e+07 -1.27606e+07 0.000164169 1.00423e+07 0.00036499 7.66763e+07)
(4.75985e+07 -1.56451e+07 0.000227547 1.30716e+07 0.00063274 8.12795e+07)
(5.17996e+07 -1.40438e+07 0.000247454 1.20732e+07 0.000495535 7.99788e+07)
(5.72411e+07 -1.63376e+07 8.63859e-05 1.57e+07 0.000593306 8.48531e+07)
(6.05561e+07 -1.52383e+07 1.80562e-05 1.42585e+07 0.000314934 8.30573e+07)
(6.64708e+07 -1.69394e+07 -2.70216e-05 1.83831e+07 0.0002953 8.81197e+07)
(6.90058e+07 -1.63449e+07 1.99352e-05 1.65814e+07 0.0002735 8.59085e+07)
(7.52943e+07 -1.74476e+07 6.59265e-05 2.10961e+07 0.000256087 9.10642e+07)
(7.7155e+07 -1.73619e+07 0.000129395 1.90207e+07 0.000264921 8.84853e+07)
(8.37204e+07 -1.78551e+07 0.000123 2.38196e+07 0.000166547 9.36644e+07)
(8.50002e+07 -1.82817e+07 5.78521e-05 2.15481e+07 0.000157174 9.07399e+07)
(9.1748e+07 -1.81476e+07 -3.58808e-05 2.65287e+07 9.24689e-05 9.58687e+07)
(9.25306e+07 -1.90936e+07 -0.000139034 2.41273e+07 -7.4171e-06 9.26534e+07)
(9.93769e+07 -1.83108e+07 -0.000148966 2.92004e+07 -5.79787e-05 9.76625e+07)
(9.97285e+07 -1.97858e+07 -0.000240144 2.67205e+07 -0.000140576 9.41768e+07)
(1.0661e+08 -1.83297e+07 -4.07987e-05 3.18173e+07 -0.000100062 9.90393e+07)
(1.0656e+08 -2.03367e+07 -7.37799e-05 2.92766e+07 -0.000109442 9.52321e+07)
(1.13434e+08 -1.81778e+07 0.000135742 3.43545e+07 -4.88134e-05 9.99312e+07)
(1.12994e+08 -2.07217e+07 0.000100734 3.17392e+07 -3.81714e-05 9.58207e+07)
(1.19845e+08 -1.78374e+07 0.000322288 3.67922e+07 -4.08776e-05 1.00357e+08)
(1.18983e+08 -2.09139e+07 0.000289169 3.40477e+07 -0.000130353 9.58782e+07)
(1.25833e+08 -1.72855e+07 0.000306148 3.91123e+07 -0.000130213 1.00303e+08)
(1.24481e+08 -2.08767e+07 0.000133418 3.61346e+07 -0.000226402 9.53665e+07)
(1.31378e+08 -1.64956e+07 6.19601e-05 4.1292e+07 -8.53315e-05 9.97319e+07)
(1.29453e+08 -2.05823e+07 -1.20433e-05 3.79379e+07 -0.000184394 9.43414e+07)
(1.36479e+08 -1.5464e+07 -1.17221e-05 4.3316e+07 -7.59799e-05 9.87395e+07)
(1.33853e+08 -1.99953e+07 -2.14237e-05 3.94018e+07 -0.000228391 9.27378e+07)
(1.41107e+08 -1.41681e+07 -5.47071e-05 4.5166e+07 -0.000130523 9.72647e+07)
(1.37683e+08 -1.91041e+07 -7.98985e-05 4.04921e+07 -0.000185697 9.07068e+07)
(1.45264e+08 -1.26249e+07 -0.000175119 4.68229e+07 -4.61297e-05 9.54449e+07)
(1.40927e+08 -1.78942e+07 -0.000220663 4.11941e+07 -0.000133233 8.82211e+07)
(1.48933e+08 -1.08307e+07 -0.000210242 4.82775e+07 -6.25278e-05 9.32642e+07)
(1.43632e+08 -1.6383e+07 -9.7528e-05 4.15208e+07 -7.94328e-05 8.5466e+07)
(1.52116e+08 -8.82605e+06 3.22121e-05 4.95043e+07 5.70344e-05 9.08545e+07)
(1.45822e+08 -1.45855e+07 8.73743e-05 4.15063e+07 5.46678e-05 8.24612e+07)
(1.54822e+08 -6.62995e+06 2.41702e-05 5.05108e+07 3.96853e-05 8.82391e+07)
(1.47573e+08 -1.25508e+07 -2.54918e-05 4.12004e+07 -2.666e-05 7.93896e+07)
(1.57059e+08 -4.30126e+06 -0.000150055 5.12636e+07 -5.67907e-05 8.55334e+07)
(1.4894e+08 -1.03077e+07 -8.87203e-05 4.06734e+07 -5.31815e-05 7.62678e+07)
(1.58857e+08 -1.8649e+06 -6.70791e-05 5.1785e+07 -8.50559e-05 8.27555e+07)
(1.49995e+08 -7.92743e+06 9.82107e-06 3.99739e+07 -9.16915e-05 7.3249e+07)
(1.60229e+08 613768 -7.1702e-05 5.20337e+07 -0.00011775 7.99995e+07)
(1.50808e+08 -5.42871e+06 -6.91384e-05 3.91926e+07 -0.000113446 7.03239e+07)
(1.61211e+08 3.12594e+06 -9.92002e-05 5.20382e+07 -0.000118968 7.72547e+07)
(1.51429e+08 -2.88338e+06 -0.000107249 3.83512e+07 -0.000155748 6.75944e+07)
(1.61812e+08 5.61724e+06 -0.000125738 5.17506e+07 -0.00014753 7.45825e+07)
(1.51902e+08 -301781 -0.000153888 3.75179e+07 -0.000154054 6.50065e+07)
(1.62049e+08 8.09994e+06 -5.94998e-05 5.11889e+07 -0.000111172 7.19357e+07)
(1.52255e+08 2.26214e+06 -0.000117322 3.66919e+07 -0.000105989 6.26111e+07)
(1.61996e+08 1.0504e+07 4.96861e-06 5.03935e+07 -0.000117863 6.93632e+07)
(1.52501e+08 4.79569e+06 -5.32193e-05 3.59048e+07 -0.000149339 6.03254e+07)
(1.61819e+08 1.26771e+07 -2.07646e-05 4.95244e+07 -0.000154478 6.68667e+07)
(1.52775e+08 7.31576e+06 -0.000150401 3.52296e+07 -0.000153817 5.83939e+07)
(1.60303e+08 1.49057e+07 -0.000185817 4.70496e+07 -0.000125611 6.40037e+07)
(1.52877e+08 9.66336e+06 -0.000186092 3.45534e+07 -9.572e-05 5.62931e+07)
(-1.21513e+08 5.03715e+06 -0.000171763 -3.44943e+06 -0.00068096 1.70922e+07)
(-1.01982e+08 1.32374e+07 -0.000346742 993125 -0.000934829 2.22412e+07)
(-1.04751e+08 2.05173e+06 -0.00027718 -4.29911e+06 -0.000107942 2.27295e+07)
(-8.57579e+07 9.73491e+06 -0.00034647 731339 -0.000345666 2.82009e+07)
(-8.88363e+07 -669979 0.000104169 -4.64671e+06 -6.61792e-05 2.82404e+07)
(-7.04571e+07 6.49016e+06 0.000316079 801604 -0.000238587 3.39144e+07)
(-7.3691e+07 -3.17432e+06 0.000563316 -4.53747e+06 -0.000390629 3.36391e+07)
(-5.6026e+07 3.46982e+06 0.000616798 1.14192e+06 -0.000373253 3.93653e+07)
(-5.92457e+07 -5.49202e+06 0.000580628 -4.01943e+06 -0.000708832 3.89274e+07)
(-4.23953e+07 647522 0.000563326 1.71751e+06 -0.00030438 4.45579e+07)
(-4.54456e+07 -7.64134e+06 0.000455244 -3.14067e+06 -0.000515887 4.40953e+07)
(-2.95002e+07 -1.9934e+06 0.000509952 2.50307e+06 -6.32985e-05 4.95013e+07)
(-3.22438e+07 -9.63205e+06 0.000479773 -1.94205e+06 -0.00021305 4.91319e+07)
(-1.72773e+07 -4.4654e+06 0.000488778 3.48156e+06 -1.19839e-06 5.42067e+07)
(-1.96017e+07 -1.14711e+07 0.000452556 -462034 -0.000255047 5.40222e+07)
(-5.66451e+06 -6.78167e+06 0.000554835 4.64211e+06 1.17997e-06 5.86851e+07)
(-7.48092e+06 -1.3166e+07 0.000744416 1.26729e+06 -3.03886e-05 5.87545e+07)
(5.3986e+06 -8.95492e+06 0.000748086 5.98017e+06 0.000143586 6.29502e+07)
(4.14907e+06 -1.47242e+07 0.00060221 3.21352e+06 -3.35385e-05 6.3313e+07)
(1.59678e+07 -1.09945e+07 0.000293063 7.49449e+06 1.25053e-05 6.70122e+07)
(1.53115e+07 -1.61531e+07 0.000166132 5.34477e+06 -3.07547e-05 6.76833e+07)
(2.60893e+07 -1.2907e+07 0.000131435 9.18137e+06 2.42038e-05 7.08717e+07)
(2.60222e+07 -1.74565e+07 0.00015322 7.62849e+06 3.28384e-05 7.18408e+07)
(3.58049e+07 -1.46965e+07 0.000148206 1.10373e+07 4.15825e-05 7.45261e+07)
(3.62943e+07 -1.86374e+07 0.00019343 1.00341e+07 0.000157094 7.57561e+07)
(4.51459e+07 -1.63656e+07 0.000176485 1.30517e+07 1.38151e-05 7.79614e+07)
(4.61356e+07 -1.9695e+07 0.000167707 1.25283e+07 9.33367e-05 7.9398e+07)
(5.41376e+07 -1.79168e+07 0.00015571 1.52109e+07 -1.55238e-05 8.11705e+07)
(5.55562e+07 -2.0627e+07 0.000166684 1.5083e+07 0.000117698 8.27452e+07)
(6.27978e+07 -1.93504e+07 0.000103035 1.74985e+07 -9.04043e-05 8.41251e+07)
(6.45648e+07 -2.14305e+07 -1.84697e-07 1.76721e+07 9.10358e-05 8.57774e+07)
(7.11318e+07 -2.06618e+07 -8.60911e-05 1.98883e+07 -6.45733e-05 8.6783e+07)
(7.31635e+07 -2.20958e+07 -3.94136e-07 2.02671e+07 0.000131676 8.84487e+07)
(7.91358e+07 -2.18425e+07 -0.000122722 2.23476e+07 -7.47133e-05 8.91e+07)
(8.13523e+07 -2.26076e+07 -5.38708e-05 2.28389e+07 5.34593e-05 9.07207e+07)
(8.67996e+07 -2.2881e+07 -0.000199281 2.48373e+07 -6.20652e-06 9.106e+07)
(8.91373e+07 -2.29551e+07 -0.000187216 2.53676e+07 -2.13645e-07 9.2597e+07)
(9.40961e+07 -2.37601e+07 -0.000267697 2.73069e+07 1.30989e-05 9.25836e+07)
(9.6514e+07 -2.31163e+07 -0.000308089 2.78274e+07 -7.71704e-05 9.40278e+07)
(1.0099e+08 -2.44557e+07 -0.000220108 2.96975e+07 3.63809e-05 9.3609e+07)
(1.03475e+08 -2.30639e+07 -0.000182798 3.01928e+07 -3.87798e-05 9.49724e+07)
(1.07445e+08 -2.4941e+07 -9.72032e-05 3.19441e+07 7.57655e-05 9.41415e+07)
(1.10025e+08 -2.27839e+07 -2.00036e-05 3.245e+07 1.33964e-05 9.54731e+07)
(1.13406e+08 -2.51784e+07 6.10157e-05 3.39692e+07 -1.26147e-05 9.40942e+07)
(1.16149e+08 -2.22445e+07 0.000152354 3.45753e+07 -0.000153479 9.54766e+07)
(1.18828e+08 -2.51315e+07 0.000107157 3.56992e+07 -0.000290324 9.34693e+07)
(1.21838e+08 -2.14259e+07 7.54624e-05 3.65506e+07 -0.000359765 9.50058e+07)
(1.23671e+08 -2.47669e+07 1.27615e-05 3.70673e+07 -0.000429889 9.22958e+07)
(1.27091e+08 -2.0318e+07 -1.80044e-06 3.83665e+07 -0.000389243 9.41205e+07)
(1.27907e+08 -2.40535e+07 -5.94409e-05 3.80241e+07 -0.000441719 9.05717e+07)
(1.31882e+08 -1.89056e+07 -7.82676e-05 4.00011e+07 -0.000382284 9.28066e+07)
(1.31543e+08 -2.29865e+07 -0.000109383 3.85503e+07 -0.000427307 8.8434e+07)
(1.36227e+08 -1.72074e+07 -7.65457e-05 4.14546e+07 -0.000323159 9.1207e+07)
(1.34589e+08 -2.15612e+07 -0.00015317 3.86544e+07 -0.000319084 8.59075e+07)
(1.40096e+08 -1.52297e+07 -0.000201834 4.27074e+07 -0.000263666 8.93012e+07)
(1.37103e+08 -1.98136e+07 -0.000342453 3.83773e+07 -0.000325611 8.31702e+07)
(1.43519e+08 -1.3015e+07 -0.000246116 4.37668e+07 -0.000206964 8.72516e+07)
(1.39138e+08 -1.77698e+07 -0.000217536 3.77833e+07 -0.000208368 8.02797e+07)
(1.4648e+08 -1.05983e+07 -9.75352e-06 4.46218e+07 -7.83382e-05 8.5054e+07)
(1.40767e+08 -1.54945e+07 -0.000108714 3.69479e+07 -0.000146927 7.73635e+07)
(1.49016e+08 -8.02309e+06 -5.80775e-05 4.52844e+07 -7.62242e-05 8.28209e+07)
(1.4207e+08 -1.30319e+07 -0.000217619 3.59598e+07 -0.00013391 7.45034e+07)
(1.51129e+08 -5.34751e+06 -0.000121958 4.57444e+07 -7.91315e-05 8.05696e+07)
(1.43107e+08 -1.04415e+07 -0.000146977 3.48913e+07 -0.000110278 7.1737e+07)
(1.52859e+08 -2.5961e+06 -3.55978e-05 4.60258e+07 -9.01846e-05 7.83388e+07)
(1.43939e+08 -7.78554e+06 -0.000142578 3.37989e+07 -9.64705e-05 6.91332e+07)
(1.54211e+08 167325 -9.26834e-05 4.61042e+07 -9.41393e-05 7.61532e+07)
(1.4462e+08 -5.08084e+06 -7.69142e-05 3.27513e+07 -6.69711e-05 6.66664e+07)
(1.55224e+08 2.94026e+06 -6.19048e-05 4.60174e+07 -0.000124281 7.39909e+07)
(1.45172e+08 -2.38557e+06 -8.594e-05 3.17562e+07 -7.2924e-05 6.43626e+07)