/*--------------------------------*- C++ -*----------------------------------*\
| =========                 |                                                 |
| \\      /  F ield         | OpenFOAM: The Open Source CFD Toolbox           |
|  \\    /   O peration     | Version:  v2012                                 |
|   \\  /    A nd           | Website:  www.openfoam.com                      |
|    \\/     M anipulation  |                                                 |
\*---------------------------------------------------------------------------*/
FoamFile
{
    version     2.0;
    format      ascii;
    class       volVectorField;
    location    "9";
    object      D;
}
// * * * * * * * * * * * * * * * * * * * * * * * * * * * * * * * * * * * * * //

dimensions      [0 1 0 0 0 0 0];


internalField   nonuniform List<vector> 
250
(
(0.000462606 -0.00183055 0)
(0.000404022 -0.00216458 0)
(0.000315004 -0.00229116 0)
(0.000250445 -0.00239112 0)
(0.000204971 -0.00241349 0)
(0.00113876 -0.00189261 0)
(0.000974113 -0.00202811 0)
(0.000795774 -0.00203761 0)
(0.000678997 -0.00208869 0)
(0.000592235 -0.00209612 0)
(0.00157561 -0.00170977 0)
(0.00139251 -0.00170494 0)
(0.00123014 -0.00168444 0)
(0.00113389 -0.00170202 0)
(0.00105271 -0.00169789 0)
(0.00195347 -0.0014586 0)
(0.00179798 -0.00141281 0)
(0.0016573 -0.0013608 0)
(0.00156893 -0.00134439 0)
(0.00149622 -0.00131118 0)
(0.00237481 -0.00117815 0)
(0.0022277 -0.00108925 0)
(0.00211468 -0.00101 0)
(0.00203838 -0.00096843 0)
(0.00198497 -0.000924436 0)
(0.00270092 -0.000935757 0)
(0.00260035 -0.000824504 0)
(0.00250804 -0.000735483 0)
(0.00246417 -0.000677272 0)
(0.002409 -0.000632927 0)
(0.00302417 -0.000694652 0)
(0.00296165 -0.000577587 0)
(0.00290018 -0.000481028 0)
(0.00287512 -0.000425481 0)
(0.00283436 -0.000366969 0)
(0.0032572 -0.00047613 0)
(0.00324099 -0.000376414 0)
(0.00321028 -0.000295048 0)
(0.00320827 -0.000247399 0)
(0.00318415 -0.000195636 0)
(0.00342728 -0.000278242 0)
(0.00344267 -0.000210009 0)
(0.00343652 -0.00015326 0)
(0.00344803 -0.000122693 0)
(0.00344002 -8.59216e-05 0)
(0.00351096 -9.0546e-05 0)
(0.00354503 -6.72008e-05 0)
(0.00355293 -4.76987e-05 0)
(0.00357178 -3.70336e-05 0)
(0.00357352 -2.37659e-05 0)
(0.00360704 -1.6081e-05 0)
(0.00349584 -5.9881e-05 0)
(0.0032778 -0.000134342 0)
(0.00296855 -0.000262913 0)
(0.00258435 -0.000457106 0)
(0.00364278 -6.88634e-06 0)
(0.00354888 -3.91209e-05 0)
(0.00336603 -7.9133e-05 0)
(0.00311633 -0.000169917 0)
(0.00281513 -0.000271526 0)
(0.0037354 -4.27287e-06 0)
(0.00366366 -3.14482e-05 0)
(0.00352459 -5.65916e-05 0)
(0.00331798 -0.000126436 0)
(0.0030692 -0.000193602 0)
(0.0038145 -4.62283e-06 0)
(0.00375305 -3.37723e-05 0)
(0.0036388 -5.08692e-05 0)
(0.00347205 -0.000103449 0)
(0.00327868 -0.000145912 0)
(0.00394529 -7.40316e-06 0)
(0.0038947 -3.93789e-05 0)
(0.00380189 -6.12727e-05 0)
(0.00365986 -0.0001095 0)
(0.00349737 -0.00014868 0)
(0.00406621 -9.4349e-06 0)
(0.00402361 -4.26708e-05 0)
(0.00394716 -6.64264e-05 0)
(0.00383169 -0.000109906 0)
(0.00370066 -0.000148262 0)
(0.0042232 -1.21495e-05 0)
(0.00418712 -4.82239e-05 0)
(0.00412268 -7.74317e-05 0)
(0.00402465 -0.000121807 0)
(0.00391456 -0.00016266 0)
(0.00437607 -1.24177e-05 0)
(0.00434591 -4.67106e-05 0)
(0.00429226 -7.66007e-05 0)
(0.00421157 -0.000119452 0)
(0.00412068 -0.000161859 0)
(0.00454757 -1.08477e-05 0)
(0.00452211 -4.14904e-05 0)
(0.00447726 -6.89695e-05 0)
(0.0044096 -0.000109472 0)
(0.0043345 -0.000150668 0)
(0.00471499 -6.40994e-06 0)
(0.00469414 -2.74694e-05 0)
(0.00465773 -4.74891e-05 0)
(0.00460235 -8.02613e-05 0)
(0.00454193 -0.000117952 0)
(0.00227568 -0.000637601 0)
(0.00214739 -0.000690845 0)
(0.00202251 -0.000757742 0)
(0.00190824 -0.000814696 0)
(0.00179828 -0.000878266 0)
(0.00169472 -0.000935525 0)
(0.00159356 -0.000995511 0)
(0.00149545 -0.00105261 0)
(0.0013969 -0.00111066 0)
(0.0012983 -0.00117067 0)
(0.00259315 -0.000393665 0)
(0.0024846 -0.000442719 0)
(0.00238261 -0.000499936 0)
(0.00228266 -0.000552321 0)
(0.00218737 -0.000609473 0)
(0.00209568 -0.000663544 0)
(0.00200792 -0.000720126 0)
(0.0019237 -0.000776115 0)
(0.0018433 -0.000833228 0)
(0.00176609 -0.000893379 0)
(0.00287344 -0.000282287 0)
(0.00278036 -0.000320373 0)
(0.00269022 -0.000369073 0)
(0.0026037 -0.000411657 0)
(0.00252123 -0.000461664 0)
(0.00244307 -0.000508189 0)
(0.00237017 -0.000559268 0)
(0.00230199 -0.000609847 0)
(0.00224064 -0.00066272 0)
(0.00218468 -0.000718505 0)
(0.00312381 -0.000210091 0)
(0.00305062 -0.000242349 0)
(0.00297946 -0.000283517 0)
(0.00290964 -0.000321318 0)
(0.0028443 -0.000365384 0)
(0.00278137 -0.000407928 0)
(0.00272489 -0.000454451 0)
(0.00267221 -0.000501427 0)
(0.00262809 -0.000550475 0)
(0.00258956 -0.000602122 0)
(0.00336808 -0.000198347 0)
(0.00330844 -0.000227589 0)
(0.003249 -0.000262876 0)
(0.00319195 -0.000296875 0)
(0.00313831 -0.000335518 0)
(0.00308778 -0.000373879 0)
(0.00304324 -0.000415457 0)
(0.00300298 -0.000457838 0)
(0.00297126 -0.000502025 0)
(0.00294545 -0.000548132 0)
(0.00359622 -0.000191284 0)
(0.00354943 -0.000218494 0)
(0.00350188 -0.000250215 0)
(0.0034567 -0.000281818 0)
(0.00341417 -0.000317012 0)
(0.00337437 -0.000352579 0)
(0.00333981 -0.000390748 0)
(0.00330903 -0.000429733 0)
(0.00328584 -0.000470212 0)
(0.00326785 -0.00051191 0)
(0.00382786 -0.000203175 0)
(0.00378925 -0.000229229 0)
(0.00374896 -0.000258442 0)
(0.00371188 -0.000288248 0)
(0.00367609 -0.000320449 0)
(0.00364363 -0.000353538 0)
(0.003615 -0.000388358 0)
(0.00359014 -0.000424055 0)
(0.00357158 -0.000460842 0)
(0.00355763 -0.000498269 0)
(0.0040496 -0.000201445 0)
(0.00401637 -0.000226226 0)
(0.00398279 -0.000253774 0)
(0.00395104 -0.000281747 0)
(0.00392075 -0.000312072 0)
(0.00389301 -0.000342964 0)
(0.00386803 -0.000375633 0)
(0.00384675 -0.000408762 0)
(0.00382967 -0.000442894 0)
(0.00381626 -0.000477211 0)
(0.00427543 -0.000189781 0)
(0.00424597 -0.000212789 0)
(0.0042143 -0.000238479 0)
(0.00418741 -0.000265492 0)
(0.00415938 -0.000294064 0)
(0.00413535 -0.000323481 0)
(0.0041119 -0.000354384 0)
(0.00409112 -0.000385961 0)
(0.00407436 -0.000417976 0)
(0.00405948 -0.000450306 0)
(0.00449116 -0.000153343 0)
(0.00446539 -0.000175662 0)
(0.00443611 -0.000200348 0)
(0.00441071 -0.000226145 0)
(0.0043849 -0.000253648 0)
(0.0043618 -0.000282231 0)
(0.00434057 -0.000311952 0)
(0.0043205 -0.000342517 0)
(0.00430324 -0.00037363 0)
(0.0042877 -0.000404957 0)
(0.000183573 -0.00244989 0)
(0.000165627 -0.00246321 0)
(0.000150704 -0.002487 0)
(0.000137643 -0.00250083 0)
(0.000124771 -0.00252267 0)
(0.000112821 -0.00253699 0)
(9.92731e-05 -0.00255704 0)
(8.5596e-05 -0.00257067 0)
(6.87716e-05 -0.00258768 0)
(5.0569e-05 -0.00259816 0)
(0.000544855 -0.00213722 0)
(0.000496872 -0.00216696 0)
(0.000452935 -0.00220851 0)
(0.00041452 -0.00223698 0)
(0.000374945 -0.00227376 0)
(0.000338764 -0.00230035 0)
(0.000297846 -0.0023326 0)
(0.00025746 -0.00235673 0)
(0.000209012 -0.0023841 0)
(0.000157521 -0.00240484 0)
(0.000989643 -0.0017321 0)
(0.000917126 -0.00177716 0)
(0.000844189 -0.00183265 0)
(0.000783241 -0.00187473 0)
(0.000717879 -0.00192476 0)
(0.000660079 -0.00196341 0)
(0.00059506 -0.00200772 0)
(0.000532457 -0.00204323 0)
(0.000459704 -0.00208199 0)
(0.00038395 -0.0021148 0)
(0.00142027 -0.00133606 0)
(0.00132341 -0.00138844 0)
(0.0012207 -0.00145577 0)
(0.00113707 -0.00150711 0)
(0.00104798 -0.00156932 0)
(0.000969994 -0.00161808 0)
(0.000885291 -0.00167361 0)
(0.000803569 -0.0017196 0)
(0.000711458 -0.00176893 0)
(0.000614957 -0.00181329 0)
(0.00190517 -0.000944186 0)
(0.00178949 -0.000997132 0)
(0.00166511 -0.0010685 0)
(0.00155872 -0.00112474 0)
(0.00145066 -0.00119237 0)
(0.0013518 -0.00124898 0)
(0.00125118 -0.00131093 0)
(0.00115248 -0.00136607 0)
(0.00104727 -0.00142296 0)
(0.000937329 -0.00147836 0)
)
;

boundaryField
{
    back
    {
        type            empty;
    }
    left
    {
        type            symmetry;
    }
    hole
    {
        type            calculated;
        value           nonuniform List<vector> 10((0.000487163 -0.0016441 4.0115e-21) (0.00122009 -0.00180352 7.54384e-21) (0.00169232 -0.00171577 -1.82289e-20) (0.00208216 -0.00150612 1.7862e-20) (0.00248838 -0.00125523 5.82327e-22) (0.0027847 -0.00102833 1.06498e-20) (0.00307613 -0.000792272 6.93447e-21) (0.00327454 -0.000557875 -5.94812e-21) (0.0034191 -0.000333713 -1.58438e-20) (0.00348848 -0.000109727 1.40867e-21));
    }
    front
    {
        type            empty;
    }
    down
    {
        type            symmetry;
    }
    right
    {
        type            calculated;
        value           nonuniform List<vector> 
15
(
(0.00479947 -6.21444e-07 8.89217e-21)
(0.00478069 -1.14155e-05 1.41825e-20)
(0.00474811 -2.10371e-05 4.74591e-21)
(0.00469862 -4.57026e-05 7.43823e-21)
(0.00464531 -7.66122e-05 -3.21164e-21)
(0.00459963 -0.000110018 -1.57556e-20)
(0.00457495 -0.000132597 1.15388e-20)
(0.00454683 -0.000157568 6.32024e-21)
(0.00452238 -0.00018609 -6.45884e-22)
(0.00449751 -0.000215386 0)
(0.00447514 -0.000247547 1.06973e-20)
(0.00445458 -0.000279647 4.77265e-21)
(0.00443498 -0.000313314 -1.19155e-20)
(0.00441797 -0.000347973 -5.4101e-21)
(0.00440252 -0.000381196 0)
)
;
    }
    up
    {
        type            calculated;
        value           nonuniform List<vector> 
15
(
(0.00124737 -0.00120111 4.01424e-21)
(0.00172996 -0.000923729 -4.46363e-21)
(0.00216141 -0.000746701 -3.0446e-21)
(0.00257595 -0.000628171 -3.83181e-21)
(0.00293824 -0.000571357 -3.75889e-21)
(0.00326387 -0.000532871 -2.71234e-21)
(0.00355486 -0.000517046 -3.03123e-21)
(0.00381243 -0.000494395 4.53096e-21)
(0.00405371 -0.000466448 2.3865e-21)
(0.00428028 -0.000420634 0)
(3.90855e-05 -0.00260344 -2.97548e-21)
(0.000126723 -0.00241379 -1.98803e-21)
(0.000341216 -0.00212866 8.64608e-22)
(0.00056099 -0.00183295 4.31675e-21)
(0.000877119 -0.00150527 1.68849e-22)
)
;
    }
}


// ************************************************************************* //
