/*--------------------------------*- C++ -*----------------------------------*\
| =========                 |                                                 |
| \\      /  F ield         | OpenFOAM: The Open Source CFD Toolbox           |
|  \\    /   O peration     | Version:  v2012                                 |
|   \\  /    A nd           | Website:  www.openfoam.com                      |
|    \\/     M anipulation  |                                                 |
\*---------------------------------------------------------------------------*/
FoamFile
{
    version     2.0;
    format      ascii;
    class       pointVectorField;
    location    "9";
    object      pointD;
}
// * * * * * * * * * * * * * * * * * * * * * * * * * * * * * * * * * * * * * //

dimensions      [0 1 0 0 0 0 0];


internalField   nonuniform List<vector> 
572
(
(0.00350044 0 6.59223e-22)
(0.00475921 0 4.65402e-21)
(0.00435567 -0.000396312 0)
(0 -0.00260035 -1.23248e-21)
(0 -0.0017433 1.87728e-21)
(0.0035873 0 0)
(0 -0.00243243 0)
(0.00220746 -0.000739027 0)
(0.00104394 -0.00136823 1.90145e-21)
(0.00461932 -9.56154e-05 -1.03475e-20)
(0.00263654 -0.00114178 5.61608e-21)
(0.00263654 -0.00114178 5.61608e-21)
(0.00220746 -0.000739027 0)
(0 -0.00243243 0)
(0 -0.0017433 1.87728e-21)
(0.00350044 0 6.59223e-22)
(0.0035873 0 0)
(0.00475921 0 4.65402e-21)
(0.00461932 -9.56154e-05 -1.03475e-20)
(0.00435567 -0.000396312 0)
(0.00104394 -0.00136823 1.90145e-21)
(0 -0.00260035 -1.23248e-21)
(0.000382741 -0.00227313 0)
(0.00079874 -0.00191215 0)
(0.00124607 -0.00151304 0)
(0.00171268 -0.00111953 0)
(0.00267252 -0.000445469 0)
(0.00304893 -0.000248471 0)
(0.00334028 -0.000122814 0)
(0.00352564 -4.77473e-05 0)
(0.00352799 0 0)
(0.00354898 0 0)
(0.00356236 0 0)
(0.00357265 0 0)
(0.00362491 0 0)
(0.00368909 0 0)
(0.00377495 0 0)
(0.00387989 0 0)
(0.00400575 0 0)
(0.00414471 0 0)
(0.00429964 0 0)
(0.00446182 0 0)
(0.00463128 0 0)
(0.00479008 -6.01845e-06 1.15373e-20)
(0.0047644 -1.62263e-05 9.46419e-21)
(0.00472337 -3.33699e-05 6.09207e-21)
(0.00467196 -6.11574e-05 2.1133e-21)
(0.00458729 -0.000121307 -2.10839e-21)
(0.00456089 -0.000145082 8.92954e-21)
(0.0045346 -0.000171829 2.83718e-21)
(0.00450994 -0.000200738 -3.22942e-22)
(0.00448633 -0.000231466 5.34866e-21)
(0.00446486 -0.000263597 7.73499e-21)
(0.00444478 -0.000296481 -3.57143e-21)
(0.00442648 -0.000330644 -8.66281e-21)
(0.00441024 -0.000364585 -2.70505e-21)
(0.004167 -0.000443541 1.19325e-21)
(0.00393307 -0.000480422 3.45873e-21)
(0.00368364 -0.000505721 7.49865e-22)
(0.00340936 -0.000524959 -2.87178e-21)
(0.00310106 -0.000552114 -3.23561e-21)
(0.00275709 -0.000599764 -3.79535e-21)
(0.00236868 -0.000687436 -3.4382e-21)
(0.00194568 -0.000835215 -3.75412e-21)
(0.00148867 -0.00106242 -2.24692e-22)
(0.000719055 -0.00166911 2.2428e-21)
(0.000451103 -0.0019808 2.59068e-21)
(0.00023397 -0.00227122 -5.61711e-22)
(8.29043e-05 -0.00250861 -2.48176e-21)
(0 -0.00259292 0)
(0 -0.00257917 0)
(0 -0.00256385 0)
(0 -0.00254701 0)
(0 -0.00252983 0)
(0 -0.00251175 0)
(0 -0.00249391 0)
(0 -0.0024751 0)
(0 -0.00245655 0)
(0 -0.00240231 0)
(0 -0.00234114 0)
(0 -0.00222787 0)
(0 -0.00199756 0)
(0.00255102 -0.000452329 0)
(0.00282193 -0.000290586 0)
(0.00307419 -0.00021123 0)
(0.00330605 -0.00017656 0)
(0.00353176 -0.000172496 0)
(0.00375226 -0.0001768 0)
(0.00397236 -0.00018317 0)
(0.00419067 -0.000177003 0)
(0.00440793 -0.000154083 0)
(0.0020158 -0.000830433 0)
(0.00189193 -0.000891932 0)
(0.00177312 -0.000956105 0)
(0.00166293 -0.00101761 0)
(0.00155714 -0.00107969 0)
(0.00145579 -0.00113889 0)
(0.00135579 -0.0011977 0)
(0.00125536 -0.00125438 0)
(0.00115183 -0.00131168 0)
(0.000853628 -0.00172381 5.77767e-21)
(0.00145621 -0.00175964 -5.34251e-21)
(0.00188724 -0.00161094 -1.83436e-22)
(0.00228527 -0.00138067 9.22215e-21)
(0.00293041 -0.000910303 8.79215e-21)
(0.00317534 -0.000675074 4.93177e-22)
(0.00334682 -0.000445794 -1.0896e-20)
(0.00345379 -0.00022172 -7.21757e-21)
(0.00247606 -0.00100701 0)
(0.00236277 -0.000914876 0)
(0.00228136 -0.00084783 0)
(0.00222416 -0.000800793 0)
(0.00247606 -0.00100701 0)
(0.00236277 -0.000914876 0)
(0.00228136 -0.00084783 0)
(0.00222416 -0.000800793 0)
(0.00171268 -0.00111953 0)
(0.00124607 -0.00151304 0)
(0.00079874 -0.00191215 0)
(0.000382741 -0.00227313 0)
(0 -0.00240231 0)
(0 -0.00234114 0)
(0 -0.00222787 0)
(0 -0.00199756 0)
(0.000853628 -0.00172381 5.77767e-21)
(0.00145621 -0.00175964 -5.34251e-21)
(0.00188724 -0.00161094 -1.83436e-22)
(0.00228527 -0.00138067 9.22215e-21)
(0.00293041 -0.000910303 8.79215e-21)
(0.00317534 -0.000675074 4.93177e-22)
(0.00334682 -0.000445794 -1.0896e-20)
(0.00345379 -0.00022172 -7.21757e-21)
(0.00352799 0 0)
(0.00354898 0 0)
(0.00356236 0 0)
(0.00357265 0 0)
(0.00352564 -4.77473e-05 0)
(0.00334028 -0.000122814 0)
(0.00304893 -0.000248471 0)
(0.00267252 -0.000445469 0)
(0.00362491 0 0)
(0.00368909 0 0)
(0.00377495 0 0)
(0.00387989 0 0)
(0.00400575 0 0)
(0.00414471 0 0)
(0.00429964 0 0)
(0.00446182 0 0)
(0.00463128 0 0)
(0.00479008 -6.01845e-06 1.15373e-20)
(0.0047644 -1.62263e-05 9.46419e-21)
(0.00472337 -3.33699e-05 6.09207e-21)
(0.00467196 -6.11574e-05 2.1133e-21)
(0.00440793 -0.000154083 0)
(0.00419067 -0.000177003 0)
(0.00397236 -0.00018317 0)
(0.00375226 -0.0001768 0)
(0.00353176 -0.000172496 0)
(0.00330605 -0.00017656 0)
(0.00307419 -0.00021123 0)
(0.00282193 -0.000290586 0)
(0.00255102 -0.000452329 0)
(0.00458729 -0.000121307 -2.10839e-21)
(0.00456089 -0.000145082 8.92954e-21)
(0.0045346 -0.000171829 2.83718e-21)
(0.00450994 -0.000200738 -3.22942e-22)
(0.00448633 -0.000231466 5.34866e-21)
(0.00446486 -0.000263597 7.73499e-21)
(0.00444478 -0.000296481 -3.57143e-21)
(0.00442648 -0.000330644 -8.66281e-21)
(0.00441024 -0.000364585 -2.70505e-21)
(0.004167 -0.000443541 1.19325e-21)
(0.00393307 -0.000480422 3.45873e-21)
(0.00368364 -0.000505721 7.49865e-22)
(0.00340936 -0.000524959 -2.87178e-21)
(0.00310106 -0.000552114 -3.23561e-21)
(0.00275709 -0.000599764 -3.79535e-21)
(0.00236868 -0.000687436 -3.4382e-21)
(0.00194568 -0.000835215 -3.75412e-21)
(0.00148867 -0.00106242 -2.24692e-22)
(0.00115183 -0.00131168 0)
(0.00125536 -0.00125438 0)
(0.00135579 -0.0011977 0)
(0.00145579 -0.00113889 0)
(0.00155714 -0.00107969 0)
(0.00166293 -0.00101761 0)
(0.00177312 -0.000956105 0)
(0.00189193 -0.000891932 0)
(0.0020158 -0.000830433 0)
(0.000719055 -0.00166911 2.2428e-21)
(0.000451103 -0.0019808 2.59068e-21)
(0.00023397 -0.00227122 -5.61711e-22)
(8.29043e-05 -0.00250861 -2.48176e-21)
(0 -0.00259292 0)
(0 -0.00257917 0)
(0 -0.00256385 0)
(0 -0.00254701 0)
(0 -0.00252983 0)
(0 -0.00251175 0)
(0 -0.00249391 0)
(0 -0.0024751 0)
(0 -0.00245655 0)
(0.000744981 -0.00197874 0)
(0.000622336 -0.00213031 0)
(0.000510118 -0.00220209 0)
(0.000431702 -0.00224735 0)
(0.00127041 -0.0018338 0)
(0.00109827 -0.00186378 0)
(0.000959774 -0.00187817 0)
(0.000864509 -0.00189618 0)
(0.00168005 -0.00157156 0)
(0.0015196 -0.00154078 0)
(0.00139763 -0.00152291 0)
(0.00131299 -0.00151388 0)
(0.00208863 -0.00128477 0)
(0.00194951 -0.00121827 0)
(0.00184488 -0.00117092 0)
(0.00177216 -0.00113713 0)
(0.00282185 -0.000758233 0)
(0.00274262 -0.000654726 0)
(0.0026869 -0.000579856 0)
(0.00264569 -0.000525693 0)
(0.00312104 -0.000531298 0)
(0.00307831 -0.000432591 0)
(0.00304848 -0.000362275 0)
(0.0030255 -0.000308904 0)
(0.00334203 -0.000335278 0)
(0.00333263 -0.000258739 0)
(0.00332577 -0.000204627 0)
(0.00332013 -0.000162939 0)
(0.00348146 -0.000161543 0)
(0.00349429 -0.000119573 0)
(0.00350231 -9.01856e-05 0)
(0.00350834 -6.73685e-05 0)
(0.00357444 -3.01411e-05 0)
(0.00342385 -7.66971e-05 0)
(0.00318575 -0.0001592 0)
(0.00287733 -0.000283866 0)
(0.00364927 -2.03126e-05 0)
(0.0035285 -5.10316e-05 0)
(0.00333481 -0.00010691 0)
(0.00308453 -0.000188089 0)
(0.00374273 -1.85682e-05 0)
(0.0036467 -4.29733e-05 0)
(0.00349108 -8.36117e-05 0)
(0.00328865 -0.000140937 0)
(0.00385337 -2.13563e-05 0)
(0.00377404 -4.64812e-05 0)
(0.00364555 -8.11667e-05 0)
(0.00347997 -0.000126723 0)
(0.00398361 -2.4737e-05 0)
(0.00391831 -5.24746e-05 0)
(0.00381217 -8.65931e-05 0)
(0.00367488 -0.000128949 0)
(0.00412625 -2.81389e-05 0)
(0.00407153 -5.87686e-05 0)
(0.00398321 -9.38522e-05 0)
(0.00386974 -0.000135621 0)
(0.00428401 -2.98223e-05 0)
(0.00423806 -6.21747e-05 0)
(0.00416408 -9.86393e-05 0)
(0.00406924 -0.000141268 0)
(0.00444868 -2.77929e-05 0)
(0.00441022 -5.83214e-05 0)
(0.00434861 -9.33997e-05 0)
(0.00427002 -0.000135097 0)
(0.00462019 -2.14657e-05 0)
(0.00458833 -4.62083e-05 0)
(0.00453732 -7.62949e-05 0)
(0.00447262 -0.000114313 0)
(0.00237521 -0.000541208 0)
(0.00225928 -0.000597811 0)
(0.002149 -0.000656174 0)
(0.00204414 -0.000713689 0)
(0.00194401 -0.000771702 0)
(0.00184797 -0.000828677 0)
(0.00175516 -0.00088609 0)
(0.00166484 -0.000943152 0)
(0.00157615 -0.00100198 0)
(0.00268289 -0.000359761 0)
(0.00258445 -0.000408025 0)
(0.0024898 -0.000458247 0)
(0.00239874 -0.000508779 0)
(0.00231184 -0.000560718 0)
(0.00222921 -0.000612782 0)
(0.00215094 -0.000666339 0)
(0.00207741 -0.000720477 0)
(0.00200868 -0.000776958 0)
(0.00295706 -0.000263775 0)
(0.00287517 -0.000303828 0)
(0.00279576 -0.000346391 0)
(0.00271972 -0.000390006 0)
(0.00264749 -0.000435791 0)
(0.00257988 -0.000482459 0)
(0.00251731 -0.000531248 0)
(0.00246073 -0.000581117 0)
(0.00241074 -0.000633456 0)
(0.00321274 -0.000219594 0)
(0.00314688 -0.000254083 0)
(0.00308251 -0.000291146 0)
(0.00302105 -0.000329773 0)
(0.00296294 -0.000370677 0)
(0.00290932 -0.000412929 0)
(0.00286083 -0.000457293 0)
(0.00281864 -0.000502941 0)
(0.00278359 -0.000550689 0)
(0.00345555 -0.000208929 0)
(0.00340219 -0.000239793 0)
(0.00334988 -0.000272946 0)
(0.00330029 -0.000307806 0)
(0.00325366 -0.000344747 0)
(0.0032113 -0.000383166 0)
(0.00317376 -0.000423444 0)
(0.00314228 -0.000464952 0)
(0.0031176 -0.00050807 0)
(0.00369069 -0.000210545 0)
(0.00364738 -0.000239095 0)
(0.00360486 -0.000269681 0)
(0.00356471 -0.000301882 0)
(0.00352707 -0.000335894 0)
(0.0034932 -0.000371306 0)
(0.0034635 -0.000408223 0)
(0.00343915 -0.00044621 0)
(0.00342072 -0.000485308 0)
(0.00392077 -0.000215019 0)
(0.00388434 -0.000241918 0)
(0.00384867 -0.000270553 0)
(0.00381494 -0.000300629 0)
(0.00378337 -0.000332256 0)
(0.00375492 -0.000365123 0)
(0.00372998 -0.000399202 0)
(0.00370954 -0.000434138 0)
(0.00369379 -0.000469804 0)
(0.00414684 -0.00020756 0)
(0.00411486 -0.000232817 0)
(0.00408389 -0.000259873 0)
(0.00405465 -0.000288344 0)
(0.00402712 -0.000318145 0)
(0.00400207 -0.000349116 0)
(0.00397945 -0.000381185 0)
(0.00396048 -0.000413898 0)
(0.00394494 -0.000447097 0)
(0.00436949 -0.000182894 0)
(0.00434044 -0.000206819 0)
(0.00431213 -0.000232616 0)
(0.0042856 -0.000259838 0)
(0.00426036 -0.000288356 0)
(0.0042374 -0.000318012 0)
(0.00421602 -0.000348703 0)
(0.0041973 -0.000380021 0)
(0.0041812 -0.000411717 0)
(0.000346391 -0.0023054 0)
(0.000315384 -0.00233245 0)
(0.000287968 -0.00235919 0)
(0.000262084 -0.00238439 0)
(0.000237045 -0.00240917 0)
(0.000211449 -0.00243246 0)
(0.000184392 -0.00245493 0)
(0.00015461 -0.00247547 0)
(0.000120958 -0.00249436 0)
(0.000734216 -0.00195583 0)
(0.000675166 -0.0019986 0)
(0.00062149 -0.00204023 0)
(0.000570577 -0.00207947 0)
(0.000521066 -0.00211734 0)
(0.000471166 -0.00215276 0)
(0.000419045 -0.00218677 0)
(0.000363044 -0.00221825 0)
(0.000301005 -0.00224822 0)
(0.00115873 -0.00156158 0)
(0.00107283 -0.0016165 0)
(0.00099337 -0.00167019 0)
(0.000918859 -0.00172151 0)
(0.000846605 -0.00177123 0)
(0.00077536 -0.00181802 0)
(0.000701972 -0.00186333 0)
(0.000624736 -0.00190578 0)
(0.000540521 -0.00194719 0)
(0.00160467 -0.00116984 0)
(0.0014952 -0.00123074 0)
(0.00139148 -0.00129199 0)
(0.0012951 -0.00135126 0)
(0.00120186 -0.00140995 0)
(0.00111153 -0.00146565 0)
(0.00102016 -0.00152037 0)
(0.000925758 -0.00157231 0)
(0.000824767 -0.00162398 0)
(0.000744981 -0.00197874 0)
(0.000622336 -0.00213031 0)
(0.000510118 -0.00220209 0)
(0.000431702 -0.00224735 0)
(0.00127041 -0.0018338 0)
(0.00109827 -0.00186378 0)
(0.000959774 -0.00187817 0)
(0.000864509 -0.00189618 0)
(0.00168005 -0.00157156 0)
(0.0015196 -0.00154078 0)
(0.00139763 -0.00152291 0)
(0.00131299 -0.00151388 0)
(0.00208863 -0.00128477 0)
(0.00194951 -0.00121827 0)
(0.00184488 -0.00117092 0)
(0.00177216 -0.00113713 0)
(0.00282185 -0.000758233 0)
(0.00274262 -0.000654726 0)
(0.0026869 -0.000579856 0)
(0.00264569 -0.000525693 0)
(0.00312104 -0.000531298 0)
(0.00307831 -0.000432591 0)
(0.00304848 -0.000362275 0)
(0.0030255 -0.000308904 0)
(0.00334203 -0.000335278 0)
(0.00333263 -0.000258739 0)
(0.00332577 -0.000204627 0)
(0.00332013 -0.000162939 0)
(0.00348146 -0.000161543 0)
(0.00349429 -0.000119573 0)
(0.00350231 -9.01856e-05 0)
(0.00350834 -6.73685e-05 0)
(0.00357444 -3.01411e-05 0)
(0.00342385 -7.66971e-05 0)
(0.00318575 -0.0001592 0)
(0.00287733 -0.000283866 0)
(0.00364927 -2.03126e-05 0)
(0.0035285 -5.10316e-05 0)
(0.00333481 -0.00010691 0)
(0.00308453 -0.000188089 0)
(0.00374273 -1.85682e-05 0)
(0.0036467 -4.29733e-05 0)
(0.00349108 -8.36117e-05 0)
(0.00328865 -0.000140937 0)
(0.00385337 -2.13563e-05 0)
(0.00377404 -4.64812e-05 0)
(0.00364555 -8.11667e-05 0)
(0.00347997 -0.000126723 0)
(0.00398361 -2.4737e-05 0)
(0.00391831 -5.24746e-05 0)
(0.00381217 -8.65931e-05 0)
(0.00367488 -0.000128949 0)
(0.00412625 -2.81389e-05 0)
(0.00407153 -5.87686e-05 0)
(0.00398321 -9.38522e-05 0)
(0.00386974 -0.000135621 0)
(0.00428401 -2.98223e-05 0)
(0.00423806 -6.21747e-05 0)
(0.00416408 -9.86393e-05 0)
(0.00406924 -0.000141268 0)
(0.00444868 -2.77929e-05 0)
(0.00441022 -5.83214e-05 0)
(0.00434861 -9.33997e-05 0)
(0.00427002 -0.000135097 0)
(0.00462019 -2.14657e-05 0)
(0.00458833 -4.62083e-05 0)
(0.00453732 -7.62949e-05 0)
(0.00447262 -0.000114313 0)
(0.00237521 -0.000541208 0)
(0.00225928 -0.000597811 0)
(0.002149 -0.000656174 0)
(0.00204414 -0.000713689 0)
(0.00194401 -0.000771702 0)
(0.00184797 -0.000828677 0)
(0.00175516 -0.00088609 0)
(0.00166484 -0.000943152 0)
(0.00157615 -0.00100198 0)
(0.00268289 -0.000359761 0)
(0.00258445 -0.000408025 0)
(0.0024898 -0.000458247 0)
(0.00239874 -0.000508779 0)
(0.00231184 -0.000560718 0)
(0.00222921 -0.000612782 0)
(0.00215094 -0.000666339 0)
(0.00207741 -0.000720477 0)
(0.00200868 -0.000776958 0)
(0.00295706 -0.000263775 0)
(0.00287517 -0.000303828 0)
(0.00279576 -0.000346391 0)
(0.00271972 -0.000390006 0)
(0.00264749 -0.000435791 0)
(0.00257988 -0.000482459 0)
(0.00251731 -0.000531248 0)
(0.00246073 -0.000581117 0)
(0.00241074 -0.000633456 0)
(0.00321274 -0.000219594 0)
(0.00314688 -0.000254083 0)
(0.00308251 -0.000291146 0)
(0.00302105 -0.000329773 0)
(0.00296294 -0.000370677 0)
(0.00290932 -0.000412929 0)
(0.00286083 -0.000457293 0)
(0.00281864 -0.000502941 0)
(0.00278359 -0.000550689 0)
(0.00345555 -0.000208929 0)
(0.00340219 -0.000239793 0)
(0.00334988 -0.000272946 0)
(0.00330029 -0.000307806 0)
(0.00325366 -0.000344747 0)
(0.0032113 -0.000383166 0)
(0.00317376 -0.000423444 0)
(0.00314228 -0.000464952 0)
(0.0031176 -0.00050807 0)
(0.00369069 -0.000210545 0)
(0.00364738 -0.000239095 0)
(0.00360486 -0.000269681 0)
(0.00356471 -0.000301882 0)
(0.00352707 -0.000335894 0)
(0.0034932 -0.000371306 0)
(0.0034635 -0.000408223 0)
(0.00343915 -0.00044621 0)
(0.00342072 -0.000485308 0)
(0.00392077 -0.000215019 0)
(0.00388434 -0.000241918 0)
(0.00384867 -0.000270553 0)
(0.00381494 -0.000300629 0)
(0.00378337 -0.000332256 0)
(0.00375492 -0.000365123 0)
(0.00372998 -0.000399202 0)
(0.00370954 -0.000434138 0)
(0.00369379 -0.000469804 0)
(0.00414684 -0.00020756 0)
(0.00411486 -0.000232817 0)
(0.00408389 -0.000259873 0)
(0.00405465 -0.000288344 0)
(0.00402712 -0.000318145 0)
(0.00400207 -0.000349116 0)
(0.00397945 -0.000381185 0)
(0.00396048 -0.000413898 0)
(0.00394494 -0.000447097 0)
(0.00436949 -0.000182894 0)
(0.00434044 -0.000206819 0)
(0.00431213 -0.000232616 0)
(0.0042856 -0.000259838 0)
(0.00426036 -0.000288356 0)
(0.0042374 -0.000318012 0)
(0.00421602 -0.000348703 0)
(0.0041973 -0.000380021 0)
(0.0041812 -0.000411717 0)
(0.000346391 -0.0023054 0)
(0.000315384 -0.00233245 0)
(0.000287968 -0.00235919 0)
(0.000262084 -0.00238439 0)
(0.000237045 -0.00240917 0)
(0.000211449 -0.00243246 0)
(0.000184392 -0.00245493 0)
(0.00015461 -0.00247547 0)
(0.000120958 -0.00249436 0)
(0.000734216 -0.00195583 0)
(0.000675166 -0.0019986 0)
(0.00062149 -0.00204023 0)
(0.000570577 -0.00207947 0)
(0.000521066 -0.00211734 0)
(0.000471166 -0.00215276 0)
(0.000419045 -0.00218677 0)
(0.000363044 -0.00221825 0)
(0.000301005 -0.00224822 0)
(0.00115873 -0.00156158 0)
(0.00107283 -0.0016165 0)
(0.00099337 -0.00167019 0)
(0.000918859 -0.00172151 0)
(0.000846605 -0.00177123 0)
(0.00077536 -0.00181802 0)
(0.000701972 -0.00186333 0)
(0.000624736 -0.00190578 0)
(0.000540521 -0.00194719 0)
(0.00160467 -0.00116984 0)
(0.0014952 -0.00123074 0)
(0.00139148 -0.00129199 0)
(0.0012951 -0.00135126 0)
(0.00120186 -0.00140995 0)
(0.00111153 -0.00146565 0)
(0.00102016 -0.00152037 0)
(0.000925758 -0.00157231 0)
(0.000824767 -0.00162398 0)
)
;

boundaryField
{
    back
    {
        type            empty;
    }
    left
    {
        type            symmetry;
    }
    hole
    {
        type            calculated;
    }
    front
    {
        type            empty;
    }
    down
    {
        type            symmetry;
    }
    right
    {
        type            calculated;
    }
    up
    {
        type            calculated;
    }
}


// ************************************************************************* //
