/*--------------------------------*- C++ -*----------------------------------*\
| =========                 |                                                 |
| \\      /  F ield         | OpenFOAM: The Open Source CFD Toolbox           |
|  \\    /   O peration     | Version:  v2012                                 |
|   \\  /    A nd           | Website:  www.openfoam.com                      |
|    \\/     M anipulation  |                                                 |
\*---------------------------------------------------------------------------*/
FoamFile
{
    version     2.0;
    format      ascii;
    class       volScalarField;
    location    "9";
    object      sigmaHyd;
}
// * * * * * * * * * * * * * * * * * * * * * * * * * * * * * * * * * * * * * //

dimensions      [1 -1 -2 0 0 0 0];


internalField   nonuniform List<scalar> 
250
(
1.60777e+08
1.66178e+08
1.81211e+08
1.67686e+08
1.48723e+08
1.50194e+08
1.45216e+08
1.47413e+08
1.3071e+08
1.2046e+08
1.24713e+08
1.08412e+08
1.05263e+08
1.02824e+08
9.86454e+07
8.72072e+07
8.43823e+07
8.35739e+07
8.23524e+07
7.99181e+07
5.0354e+07
5.22917e+07
5.62488e+07
5.93826e+07
6.05367e+07
1.27732e+07
1.93251e+07
2.79862e+07
3.18837e+07
4.16315e+07
-2.13343e+07
-9.57849e+06
3.197e+06
1.04445e+07
2.30048e+07
-4.92398e+07
-3.33003e+07
-1.58464e+07
-6.36794e+06
8.51229e+06
-6.80722e+07
-4.98721e+07
-3.04357e+07
-1.93981e+07
-4.3218e+06
-7.8003e+07
-5.83147e+07
-3.75725e+07
-2.57005e+07
-1.07495e+07
3.0312e+06
7.79859e+06
1.7759e+07
3.01166e+07
4.46403e+07
1.97835e+07
2.17856e+07
2.57778e+07
3.33557e+07
4.17702e+07
3.17375e+07
3.37029e+07
3.71035e+07
4.22317e+07
4.66553e+07
3.95127e+07
4.06041e+07
4.24321e+07
4.64696e+07
5.00373e+07
4.67218e+07
4.74727e+07
4.86032e+07
5.085e+07
5.29495e+07
5.11597e+07
5.15378e+07
5.21465e+07
5.35743e+07
5.50297e+07
5.61721e+07
5.61686e+07
5.61001e+07
5.63556e+07
5.66558e+07
5.96732e+07
5.9404e+07
5.89218e+07
5.8467e+07
5.79744e+07
6.4692e+07
6.40119e+07
6.28187e+07
6.12365e+07
5.95871e+07
6.89019e+07
6.7863e+07
6.61816e+07
6.35274e+07
6.10471e+07
5.29833e+07
5.77683e+07
6.32165e+07
6.92283e+07
7.38967e+07
7.94777e+07
8.3915e+07
8.96606e+07
9.4557e+07
1.0122e+08
5.34508e+07
5.96231e+07
6.44493e+07
6.99953e+07
7.44048e+07
7.98002e+07
8.42151e+07
8.98256e+07
9.46253e+07
1.00859e+08
5.31773e+07
5.84358e+07
6.17628e+07
6.69304e+07
7.04275e+07
7.54686e+07
7.91579e+07
8.43038e+07
8.82706e+07
9.37616e+07
5.50639e+07
5.92027e+07
6.18531e+07
6.59046e+07
6.86791e+07
7.26372e+07
7.55125e+07
7.9486e+07
8.24641e+07
8.65549e+07
5.62389e+07
5.89208e+07
6.06505e+07
6.34571e+07
6.52745e+07
6.80426e+07
6.98963e+07
7.26229e+07
7.4461e+07
7.71344e+07
5.71564e+07
5.8824e+07
5.98979e+07
6.17015e+07
6.27826e+07
6.45215e+07
6.55573e+07
6.71784e+07
6.8106e+07
6.95627e+07
5.76676e+07
5.8345e+07
5.87877e+07
5.95979e+07
5.99879e+07
6.07559e+07
6.10372e+07
6.17028e+07
6.18412e+07
6.22716e+07
5.81017e+07
5.81427e+07
5.78712e+07
5.81699e+07
5.78971e+07
5.81141e+07
5.77523e+07
5.76542e+07
5.72721e+07
5.69437e+07
5.85191e+07
5.73072e+07
5.72361e+07
5.67052e+07
5.6104e+07
5.5575e+07
5.47441e+07
5.45271e+07
5.40237e+07
5.34354e+07
5.8728e+07
5.78425e+07
5.66172e+07
5.5538e+07
5.46211e+07
5.37227e+07
5.3197e+07
5.26577e+07
5.21871e+07
5.1939e+07
1.28442e+08
1.18982e+08
1.06178e+08
9.75384e+07
8.55478e+07
7.69213e+07
6.509e+07
5.57918e+07
4.33666e+07
3.26237e+07
1.09037e+08
1.06503e+08
9.78684e+07
9.42259e+07
8.561e+07
8.10134e+07
7.23617e+07
6.68758e+07
5.80148e+07
5.14751e+07
9.51121e+07
9.67725e+07
9.21838e+07
9.17954e+07
8.67121e+07
8.52583e+07
8.0066e+07
7.79735e+07
7.28265e+07
7.02141e+07
8.04523e+07
8.66383e+07
8.55186e+07
8.86095e+07
8.68434e+07
8.81855e+07
8.60951e+07
8.65839e+07
8.45812e+07
8.49269e+07
6.32786e+07
7.03765e+07
7.24853e+07
7.74216e+07
7.95842e+07
8.37385e+07
8.60054e+07
9.00382e+07
9.28062e+07
9.74819e+07
)
;

boundaryField
{
    back
    {
        type            empty;
    }
    left
    {
        type            symmetry;
    }
    hole
    {
        type            zeroGradient;
    }
    front
    {
        type            empty;
    }
    down
    {
        type            symmetry;
    }
    right
    {
        type            zeroGradient;
    }
    up
    {
        type            zeroGradient;
    }
}


// ************************************************************************* //
