/*--------------------------------*- C++ -*----------------------------------*\
| =========                 |                                                 |
| \\      /  F ield         | OpenFOAM: The Open Source CFD Toolbox           |
|  \\    /   O peration     | Version:  v2012                                 |
|   \\  /    A nd           | Website:  www.openfoam.com                      |
|    \\/     M anipulation  |                                                 |
\*---------------------------------------------------------------------------*/
FoamFile
{
    version     2.0;
    format      ascii;
    class       pointVectorField;
    location    "14";
    object      pointD;
}
// * * * * * * * * * * * * * * * * * * * * * * * * * * * * * * * * * * * * * //

dimensions      [0 1 0 0 0 0 0];


internalField   nonuniform List<vector> 
2014
(
(0.00260178 0 0)
(0.00343785 0 0)
(0.00316421 -0.000247807 0)
(0 -0.0020235 0)
(0 -0.000870543 0)
(0.00260178 0 0)
(0.00343785 0 0)
(0.00316421 -0.000247807 0)
(0 -0.0020235 0)
(0 -0.000870543 0)
(0.00262695 0 0)
(0.00264559 0 0)
(0.00265753 0 0)
(0.00266569 0 0)
(0.00267323 0 0)
(0.00268139 0 0)
(0.00269169 0 0)
(0.00270253 0 0)
(0.00271676 0 0)
(0.00273293 0 0)
(0.00275082 0 0)
(0.0027715 0 0)
(0.0027945 0 0)
(0.00281979 0 0)
(0.00284737 0 0)
(0.00287686 0 0)
(0.00290863 0 0)
(0.00294181 0 0)
(0.00297685 0 0)
(0.00301374 0 0)
(0.00305227 0 0)
(0.00309237 0 0)
(0.0031335 0 0)
(0.00317541 0 0)
(0.00321839 0 0)
(0.00326222 0 0)
(0.00330656 0 0)
(0.00335041 0 0)
(0.00339429 0 0)
(0.00343631 -5.37333e-07 0)
(0.00343224 -1.56587e-06 0)
(0.00342565 -3.42208e-06 0)
(0.00341632 -5.63198e-06 0)
(0.00340503 -9.3077e-06 0)
(0.00339156 -1.43158e-05 0)
(0.00337627 -2.04959e-05 0)
(0.00335986 -2.86003e-05 0)
(0.00334193 -3.86398e-05 0)
(0.00332338 -5.03764e-05 0)
(0.00330427 -6.42119e-05 0)
(0.00328516 -7.99511e-05 0)
(0.00326689 -9.71556e-05 0)
(0.00324896 -0.000116194 0)
(0.00323204 -0.000136502 0)
(0.0032165 -0.000157903 0)
(0.00320187 -0.000180201 0)
(0.00318869 -0.000202738 0)
(0.00317629 -0.000225372 0)
(0.00311219 -0.00025997 0)
(0.0030604 -0.00027178 0)
(0.00300856 -0.000282684 0)
(0.00295646 -0.000292366 0)
(0.00290346 -0.000300579 0)
(0.00284934 -0.000307826 0)
(0.00279396 -0.000313463 0)
(0.00273672 -0.000318409 0)
(0.0026776 -0.000322275 0)
(0.00261605 -0.000325975 0)
(0.00255195 -0.000329759 0)
(0.00248503 -0.000333307 0)
(0.00241515 -0.000337441 0)
(0.00234258 -0.000342717 0)
(0.002266 -0.000349764 0)
(0.00218676 -0.000358047 0)
(0.00210357 -0.000369637 0)
(0.00201585 -0.000383765 0)
(0.00192534 -0.000402326 0)
(0.00183019 -0.000423177 0)
(0.00173195 -0.000451614 0)
(0.00162894 -0.000483808 0)
(0.0015232 -0.000523528 0)
(0.0014132 -0.000569226 0)
(0.00130136 -0.000624065 0)
(0.00118474 -0.000686583 0)
(0.00106626 -0.000758002 0)
(0.000947668 -0.000838961 0)
(0.000826943 -0.000929508 0)
(0.00071108 -0.00102965 0)
(0.000595448 -0.00113968 0)
(0.000485398 -0.00125842 0)
(0.000382402 -0.00138303 0)
(0.000289033 -0.00151408 0)
(0.00020734 -0.00164189 0)
(0.000139595 -0.00176147 0)
(8.88982e-05 -0.00186896 0)
(4.89763e-05 -0.0019501 0)
(2.13126e-05 -0.00200163 0)
(0 -0.00200882 0)
(0 -0.00198344 0)
(0 -0.00195835 0)
(0 -0.00193356 0)
(0 -0.00190889 0)
(0 -0.00187576 0)
(0 -0.00177401 0)
(0 -0.00152742 0)
(0 -0.00119312 0)
(0.000448085 -0.000851016 0)
(0.000928841 -0.00094499 0)
(0.00126972 -0.0012061 0)
(0.00147737 -0.00123058 0)
(0.0016338 -0.00114285 0)
(0.00177966 -0.00103726 0)
(0.00192289 -0.000925634 0)
(0.00205929 -0.00081432 0)
(0.00218167 -0.000704992 0)
(0.00228907 -0.000598464 0)
(0.00238133 -0.00049353 0)
(0.00245905 -0.000387723 0)
(0.00251825 -0.000287269 0)
(0.00256116 -0.000194268 0)
(0.00258781 -9.51214e-05 0)
(0.00262695 0 0)
(0.00264559 0 0)
(0.00265753 0 0)
(0.00266569 0 0)
(0.00267323 0 0)
(0.00268139 0 0)
(0.00269169 0 0)
(0.00270253 0 0)
(0.00271676 0 0)
(0.00273293 0 0)
(0.00275082 0 0)
(0.0027715 0 0)
(0.0027945 0 0)
(0.00281979 0 0)
(0.00284737 0 0)
(0.00287686 0 0)
(0.00290863 0 0)
(0.00294181 0 0)
(0.00297685 0 0)
(0.00301374 0 0)
(0.00305227 0 0)
(0.00309237 0 0)
(0.0031335 0 0)
(0.00317541 0 0)
(0.00321839 0 0)
(0.00326222 0 0)
(0.00330656 0 0)
(0.00335041 0 0)
(0.00339429 0 0)
(0.00343631 -5.37333e-07 0)
(0.00343224 -1.56587e-06 0)
(0.00342565 -3.42208e-06 0)
(0.00341632 -5.63198e-06 0)
(0.00340503 -9.3077e-06 0)
(0.00339156 -1.43158e-05 0)
(0.00337627 -2.04959e-05 0)
(0.00335986 -2.86003e-05 0)
(0.00334193 -3.86398e-05 0)
(0.00332338 -5.03764e-05 0)
(0.00330427 -6.42119e-05 0)
(0.00328516 -7.99511e-05 0)
(0.00326689 -9.71556e-05 0)
(0.00324896 -0.000116194 0)
(0.00323204 -0.000136502 0)
(0.0032165 -0.000157903 0)
(0.00320187 -0.000180201 0)
(0.00318869 -0.000202738 0)
(0.00317629 -0.000225372 0)
(0.00311219 -0.00025997 0)
(0.0030604 -0.00027178 0)
(0.00300856 -0.000282684 0)
(0.00295646 -0.000292366 0)
(0.00290346 -0.000300579 0)
(0.00284934 -0.000307826 0)
(0.00279396 -0.000313463 0)
(0.00273672 -0.000318409 0)
(0.0026776 -0.000322275 0)
(0.00261605 -0.000325975 0)
(0.00255195 -0.000329759 0)
(0.00248503 -0.000333307 0)
(0.00241515 -0.000337441 0)
(0.00234258 -0.000342717 0)
(0.002266 -0.000349764 0)
(0.00218676 -0.000358047 0)
(0.00210357 -0.000369637 0)
(0.00201585 -0.000383765 0)
(0.00192534 -0.000402326 0)
(0.00183019 -0.000423177 0)
(0.00173195 -0.000451614 0)
(0.00162894 -0.000483808 0)
(0.0015232 -0.000523528 0)
(0.0014132 -0.000569226 0)
(0.00130136 -0.000624065 0)
(0.00118474 -0.000686583 0)
(0.00106626 -0.000758002 0)
(0.000947668 -0.000838961 0)
(0.000826943 -0.000929508 0)
(0.00071108 -0.00102965 0)
(0.000595448 -0.00113968 0)
(0.000485398 -0.00125842 0)
(0.000382402 -0.00138303 0)
(0.000289033 -0.00151408 0)
(0.00020734 -0.00164189 0)
(0.000139595 -0.00176147 0)
(8.88982e-05 -0.00186896 0)
(4.89763e-05 -0.0019501 0)
(2.13126e-05 -0.00200163 0)
(0 -0.00200882 0)
(0 -0.00198344 0)
(0 -0.00195835 0)
(0 -0.00193356 0)
(0 -0.00190889 0)
(0 -0.00187576 0)
(0 -0.00177401 0)
(0 -0.00152742 0)
(0 -0.00119312 0)
(0.000448085 -0.000851016 0)
(0.000928841 -0.00094499 0)
(0.00126972 -0.0012061 0)
(0.00147737 -0.00123058 0)
(0.0016338 -0.00114285 0)
(0.00177966 -0.00103726 0)
(0.00192289 -0.000925634 0)
(0.00205929 -0.00081432 0)
(0.00218167 -0.000704992 0)
(0.00228907 -0.000598464 0)
(0.00238133 -0.00049353 0)
(0.00245905 -0.000387723 0)
(0.00251825 -0.000287269 0)
(0.00256116 -0.000194268 0)
(0.00258781 -9.51214e-05 0)
(0.00220564 -0.000150819 0)
(0.00281197 -9.94727e-05 0)
(0.00149116 -0.000600956 0)
(0.00237268 -0.000155131 0)
(0.00267139 -3.88175e-05 0)
(0.00293741 -0.000175645 0)
(0.00311709 -5.24291e-05 0)
(0.000819047 -0.00128056 0)
(0.0024574 -0.000104795 0)
(0.00172039 -0.000367124 0)
(0.002588 -0.000195753 0)
(0.00289542 -3.55497e-05 0)
(0.00260817 -2.94032e-05 0)
(0.00201834 -0.000366109 0)
(0.00311098 -9.77214e-05 0)
(0.00200225 -0.00026401 0)
(0.0024068 -9.45755e-05 0)
(0.00262529 -8.76323e-05 0)
(0.000979594 -0.000964496 0)
(0.00138811 -0.00087423 0)
(0.0023345 -0.000237199 0)
(0.00274451 -0.000232008 0)
(0.00130639 -0.000628607 0)
(0.00192228 -0.000307046 0)
(0.00326528 -2.4268e-05 0)
(0.00302963 -0.000208283 0)
(0.00304918 -2.74643e-05 0)
(0.00281804 -1.61552e-05 0)
(0.00279195 -0.000158864 0)
(0.000323662 -0.00173937 0)
(0.00299543 -8.73962e-05 0)
(0.00216018 -0.000172549 0)
(0.00273092 -1.20214e-05 0)
(0.000696637 -0.00151692 0)
(0.00262105 -3.08158e-05 0)
(0.00323116 -5.45158e-05 0)
(0.0031131 -0.000135171 0)
(0.00241819 -8.35646e-05 0)
(0.00257247 -9.97151e-05 0)
(0.00297837 -5.50918e-05 0)
(0.00235007 -0.000238573 0)
(0.00254978 -0.000142885 0)
(0.00219895 -0.00018575 0)
(0.00279089 -6.30581e-05 0)
(0.00172263 -0.000380626 0)
(0.000610966 -0.00134537 0)
(0.00254586 -4.90163e-05 0)
(0.00211274 -0.000281708 0)
(0.00286912 -0.000246241 0)
(0.00182104 -0.000626582 0)
(0.00316372 -2.09742e-05 0)
(0.00294702 -0.000129112 0)
(0.00247397 -0.000259915 0)
(0.00291276 -1.49613e-05 0)
(0.00163962 -0.000439962 0)
(0.00195811 -0.000253676 0)
(0.00146003 -0.000511133 0)
(0.0011427 -0.000939698 0)
(0.00278224 -3.71326e-05 0)
(0.00119501 -0.00116341 0)
(0.00269937 -1.00362e-05 0)
(0.00270258 -0.000131817 0)
(0.00247094 -0.000102922 0)
(0.00170259 -0.000533938 0)
(0.00193514 -0.0002659 0)
(0.00100545 -0.000852562 0)
(0.00239149 -8.7361e-05 0)
(0.00219316 -0.000187838 0)
(0.00261457 -0.000267792 0)
(0.000325177 -0.00175963 0)
(0.00322528 -7.32909e-05 0)
(0.00212775 -0.000445528 0)
(0.0018642 -0.00034986 0)
(0.0029948 -1.56836e-05 0)
(0.00309153 -7.6913e-05 0)
(0.00332141 -2.781e-05 0)
(0.00311969 -0.00016264 0)
(0.00128241 -0.000704499 0)
(0.00256233 -6.62924e-05 0)
(0.00263383 -3.73253e-05 0)
(0.00225321 -0.000212527 0)
(0.00267563 -5.57263e-05 0)
(0.00279686 -7.76117e-06 0)
(0.00266525 -2.64593e-05 0)
(0.00334938 -9.04314e-06 0)
(0.00308756 -0.000228559 0)
(0.00247284 -0.000190082 0)
(0.00303015 -0.000131485 0)
(0.00287389 -7.03102e-05 0)
(0.00233062 -0.000131331 0)
(0.00269777 -0.000101722 0)
(0.00320207 -9.76434e-05 0)
(0.00252222 -5.89661e-05 0)
(0.00270674 -0.000196272 0)
(0.000708112 -0.00115498 0)
(0.00222407 -0.000233223 0)
(0.0032156 -4.21461e-05 0)
(0.00302594 -0.000175798 0)
(0.00282408 -0.000189673 0)
(0.00286299 -0.00012023 0)
(0.0016359 -0.000864361 0)
(0.000380427 -0.00160205 0)
(0.00273214 -2.31205e-05 0)
(0.000117273 -0.00193447 0)
(0.00223124 -0.000298285 0)
(0.000870276 -0.00113949 0)
(0.00110834 -0.00108142 0)
(0.00211065 -0.000202763 0)
(0.00187799 -0.000378575 0)
(0.00250135 -5.53243e-05 0)
(0.00276618 -0.000269939 0)
(0.00144405 -0.00072186 0)
(0.00294928 -0.000254247 0)
(0.00229862 -0.000119841 0)
(0.0026807 -1.13571e-05 0)
(0.0031168 -3.36558e-05 0)
(0.00248377 -0.000215283 0)
(0.00323911 -1.31174e-05 0)
(0.00310205 -1.40738e-05 0)
(0.0029678 -3.79497e-05 0)
(0.00124307 -0.000645371 0)
(0.00286855 -8.76832e-06 0)
(0.00153356 -0.000479029 0)
(0.000565836 -0.00147605 0)
(0.00065132 -0.00151514 0)
(0.00303529 -6.29551e-05 0)
(0.00234758 -0.000292576 0)
(0.00170804 -0.000438489 0)
(0.000609539 -0.00151212 0)
(0.00285937 -2.44565e-05 0)
(0.00212124 -0.000181565 0)
(0.00249213 -0.000127289 0)
(0.00293219 -0.000205539 0)
(0.00261517 -8.4897e-05 0)
(0.00302771 -0.000103897 0)
(0.00247838 -0.000136331 0)
(0.00256961 -5.89829e-05 0)
(0.0027438 -5.03413e-06 0)
(0.00236746 -0.00011671 0)
(0.00227832 -0.000132755 0)
(0.00290426 -8.92208e-05 0)
(0.000175312 -0.00187931 0)
(0.00109866 -0.00134 0)
(0.00152572 -0.000486561 0)
(0.00318481 -3.26141e-05 0)
(0.0023805 -0.000183252 0)
(0.00334883 -1.67975e-05 0)
(0.0031276 -0.00018727 0)
(0.00290308 -5.21725e-05 0)
(0.00263481 -2.3208e-05 0)
(0.00261889 -0.000226788 0)
(0.00266853 -1.98603e-05 0)
(0.00129083 -0.000764784 0)
(0.000924962 -0.00128482 0)
(0.00206227 -0.000221814 0)
(0.00197735 -0.000338276 0)
(0.00329123 -4.7841e-05 0)
(0.00294572 -2.41617e-05 0)
(0.000351556 -0.00173443 0)
(0.00212439 -0.000240753 0)
(0.00288102 -0.000154161 0)
(0.00181765 -0.000335938 0)
(0.00144011 -0.000563586 0)
(0.00318952 -0.000122943 0)
(0.00207827 -0.000277049 0)
(0.00284027 -0.000218493 0)
(0.0030391 -4.24835e-05 0)
(0.00268663 -0.000166046 0)
(0.00266604 -1.57672e-05 0)
(0.00163764 -0.000410924 0)
(0.00316703 -7.517e-05 0)
(0.00186874 -0.000306838 0)
(0.00263403 -4.77404e-05 0)
(0.00311614 -0.000116353 0)
(0.0026009 -0.000160917 0)
(0.0028302 -4.46698e-05 0)
(0.00163052 -0.000672511 0)
(0.00250537 -6.61759e-05 0)
(0.00231926 -0.000362422 0)
(0.00316901 -5.94707e-05 0)
(0.00253347 -4.83855e-05 0)
(0.00170433 -0.000415239 0)
(0.00244041 -0.000229019 0)
(0.00277846 -8.38128e-05 0)
(0.00236573 -9.54245e-05 0)
(0.00259464 -3.47631e-05 0)
(0.00252025 -0.000291871 0)
(0.00259322 -0.000113101 0)
(0.00200636 -0.000622317 0)
(0.00217587 -0.000322367 0)
(0.00187327 -0.00028974 0)
(0.00295607 -8.80633e-06 0)
(0.0014554 -0.00108285 0)
(0.00267876 -0.000285238 0)
(0.00271369 -7.17209e-05 0)
(0.000796519 -0.00101795 0)
(0.00200567 -0.000293448 0)
(0.000492077 -0.00139156 0)
(0.000215576 -0.00180481 0)
(0.0010703 -0.000771732 0)
(0.00208923 -0.000327339 0)
(0.00257374 -7.98435e-05 0)
(0.00186189 -0.000497985 0)
(0.00259839 -4.56596e-05 0)
(0.0030491 -1.04301e-05 0)
(0.00277821 -0.00013294 0)
(0.00302447 -0.000153154 0)
(0.00283585 -0.000278639 0)
(0.00222964 -0.000250314 0)
(0.00294238 -0.000109364 0)
(0.00332194 -3.38805e-05 0)
(0.00179091 -0.000332183 0)
(0.00273887 -3.22974e-05 0)
(0.00296176 -7.23156e-05 0)
(0.00198536 -0.000252361 0)
(0.00318961 -1.01711e-05 0)
(0.00109913 -0.000822023 0)
(0.00203604 -0.00021869 0)
(0.00275998 -5.20118e-05 0)
(0.0029738 -0.000145054 0)
(0.00134477 -0.000580755 0)
(0.0027777 -4.13893e-06 0)
(0.00202534 -0.000265037 0)
(0.00173317 -0.000366925 0)
(0.000822161 -0.0011237 0)
(0.00295113 -0.000226386 0)
(0.00276727 -1.29475e-05 0)
(0.00236367 -0.00017231 0)
(0.0029082 -6.87085e-06 0)
(0.00301473 -0.000254744 0)
(0.00152523 -0.000541718 0)
(0.00166191 -0.000509137 0)
(0.00254296 -0.00022185 0)
(0.00310084 -2.44945e-05 0)
(0.00140115 -0.000551427 0)
(0.00136599 -0.000985294 0)
(0.000383355 -0.00169781 0)
(0.00242355 -0.000298613 0)
(0.00283309 -5.40994e-06 0)
(0.00330295 -8.0866e-06 0)
(0.00263565 -0.000128264 0)
(0.00225352 -0.000191606 0)
(0.00107536 -0.000921247 0)
(0.00300559 -2.46189e-05 0)
(0.00208376 -0.000199934 0)
(0.00245214 -0.000157851 0)
(0.00325542 -7.41101e-05 0)
(0.00182045 -0.000794352 0)
(0.00124477 -0.000935846 0)
(0.00100446 -0.00109948 0)
(0.00228523 -0.00013346 0)
(0.00255707 -0.000176305 0)
(0.00231311 -0.000160302 0)
(0.00271091 -4.41879e-06 0)
(0.00249166 -8.6619e-05 0)
(0.00241443 -0.000123277 0)
(0.00279705 -2.53664e-05 0)
(0.0025486 -8.81118e-05 0)
(0.00305033 -5.17058e-05 0)
(0.00317535 -9.02431e-05 0)
(0.00228154 -0.000122337 0)
(0.00091428 -0.000963698 0)
(0.00274295 -0.000112924 0)
(0.00263686 -5.13458e-05 0)
(0.00254494 -0.000101777 0)
(0.00131911 -0.00120113 0)
(0.00286492 -1.60116e-05 0)
(0.00247389 -6.75014e-05 0)
(0.00322248 -0.000101205 0)
(0.00265042 -2.06036e-05 0)
(0.00270823 -1.1505e-05 0)
(0.00230484 -0.000155786 0)
(0.00337436 -4.54151e-06 0)
(0.00310819 -0.000237503 0)
(0.00322131 -2.27385e-05 0)
(0.00156062 -0.000453875 0)
(0.0022022 -0.000171398 0)
(0.00266571 -0.000241062 0)
(0.00286189 -0.000139797 0)
(0.000729628 -0.0013013 0)
(0.00201176 -0.000435676 0)
(0.00271515 -1.93146e-05 0)
(0.00304786 -7.72545e-05 0)
(0.00253483 -0.000256688 0)
(0.00184181 -0.000339324 0)
(0.00325225 -4.42085e-05 0)
(0.00309931 -0.000153838 0)
(0.00115423 -0.00073027 0)
(0.00285304 -5.95711e-05 0)
(0.000166149 -0.00186142 0)
(0.00325842 -3.19591e-05 0)
(0.00305854 -0.00018351 0)
(0.00237688 -9.68639e-05 0)
(0.00259104 -3.63977e-05 0)
(0.00301234 -0.00012064 0)
(0.00273026 -4.16811e-06 0)
(0.00288491 -0.000279324 0)
(0.00258411 -0.000298607 0)
(0.0032917 -5.40912e-05 0)
(0.00210639 -0.000225222 0)
(0.00308816 -9.004e-05 0)
(0.0027736 -0.000182373 0)
(0.00314171 -8.87958e-06 0)
(0.000871525 -0.000928817 0)
(0.00288188 -0.000190366 0)
(0.00336523 -1.74608e-05 0)
(0.00316494 -0.000163927 0)
(0.00123941 -0.000699473 0)
(0.00299321 -0.000199148 0)
(0.00283415 -3.4344e-05 0)
(0.00183918 -0.000450215 0)
(0.00282287 -1.00401e-05 0)
(0.00269532 -4.37534e-05 0)
(0.00218467 -0.000552762 0)
(0.000517691 -0.00161747 0)
(0.00282018 -0.000242582 0)
(0.00268919 -2.9361e-05 0)
(0.00246235 -6.63664e-05 0)
(0.0023184 -0.000213838 0)
(0.00226926 -0.000313583 0)
(0.002505 -0.000207553 0)
(0.00275678 -0.000205624 0)
(0.000360155 -0.00153874 0)
(0.00338402 -8.81791e-06 0)
(0.00314459 -0.00020083 0)
(0.00187114 -0.000376593 0)
(0.00330141 -1.50809e-05 0)
(8.8266e-05 -0.0019472 0)
(0.00299065 -5.69705e-06 0)
(0.0030351 -0.000228243 0)
(0.00322128 -6.52149e-05 0)
(0.00309737 -6.43803e-05 0)
(0.00156048 -0.000615734 0)
(5.9903e-05 -0.00197961 0)
(0.00268827 -8.48389e-05 0)
(0.0026842 -8.26241e-06 0)
(0.00303733 -1.76125e-05 0)
(0.00316729 -4.34011e-05 0)
(0.000946572 -0.00134798 0)
(0.000539189 -0.0012879 0)
(0.0016645 -0.000728529 0)
(0.00245426 -8.88575e-05 0)
(0.000630515 -0.00145885 0)
(0.00242352 -0.000311791 0)
(0.00103138 -0.00136791 0)
(0.0011396 -0.000828022 0)
(0.00240469 -0.000112174 0)
(0.00266191 -1.75941e-05 0)
(0.000504797 -0.00149026 0)
(0.00140526 -0.000635447 0)
(0.00228451 -0.000141745 0)
(0.00236869 -0.000256408 0)
(0.00175159 -0.000384396 0)
(0.00272079 -0.000259099 0)
(0.00261995 -3.87074e-05 0)
(0.00290091 -2.58497e-05 0)
(0.00185429 -0.000302367 0)
(0.00285243 -0.000106374 0)
(0.00295252 -1.56594e-05 0)
(0.00263911 -7.15409e-05 0)
(0.00196639 -0.000261644 0)
(0.00252992 -0.000166125 0)
(0.00276571 -8.65246e-06 0)
(0.00257047 -4.89699e-05 0)
(0.00218111 -0.000160059 0)
(0.00260565 -6.19737e-05 0)
(0.000332498 -0.00167939 0)
(0.0025081 -0.000149521 0)
(0.00215778 -0.000330139 0)
(0.00159734 -0.000467854 0)
(0.00235393 -0.000116388 0)
(0.00280632 -2.87078e-06 0)
(0.00318927 -0.000138202 0)
(0.00140196 -0.000556602 0)
(0.00239365 -0.000207246 0)
(0.00267117 -1.47752e-05 0)
(0.00194002 -0.000303135 0)
(0.00183798 -0.000370683 0)
(0.00217757 -0.000245743 0)
(0.00283286 -8.3198e-05 0)
(0.00296963 -0.00018646 0)
(0.0031656 -0.000119866 0)
(0.00260629 -3.77466e-05 0)
(0.000104372 -0.00190492 0)
(0.00292406 -6.04616e-05 0)
(0.00307226 -0.000112986 0)
(0.000202137 -0.00186115 0)
(0.00244609 -7.98352e-05 0)
(0.000393135 -0.00164187 0)
(0.00258986 -3.36801e-05 0)
(0.00210772 -0.000292365 0)
(0.00197504 -0.000544204 0)
(0.0030719 -0.000134702 0)
(0.00220682 -0.000208712 0)
(0.000130248 -0.00189652 0)
(0.00266105 -1.74716e-05 0)
(0.000943742 -0.00121187 0)
(0.00275611 -0.000151371 0)
(0.00264261 -0.0002015 0)
(0.00149147 -0.000748735 0)
(0.00223113 -0.000349392 0)
(0.000632013 -0.00126915 0)
(0.00304301 -8.94819e-05 0)
(0.00243972 -7.25765e-05 0)
(0.00229532 -0.000268621 0)
(0.00264394 -3.56734e-05 0)
(0.000839037 -0.00147068 0)
(0.0021851 -0.00016464 0)
(0.00219584 -0.000171071 0)
(0.00322679 -3.25497e-05 0)
(0.00202037 -0.000222812 0)
(0.00155945 -0.000457501 0)
(0.00277438 -1.78568e-05 0)
(0.000661949 -0.00113731 0)
(0.0027281 -0.000291147 0)
(0.00251803 -7.18391e-05 0)
(0.00174018 -0.000919338 0)
(0.00305137 -0.000258021 0)
(0.00295106 -4.77559e-05 0)
(0.00232324 -0.000182925 0)
(0.000251193 -0.00171092 0)
(0.00178091 -0.000402905 0)
(0.00129364 -0.000811306 0)
(0.00143174 -0.00067871 0)
(0.00287908 -0.000173335 0)
(0.00293725 -3.24387e-05 0)
(0.00229788 -0.000220496 0)
(0.00315258 -2.93682e-05 0)
(0.00259878 -5.30463e-05 0)
(0.00325705 -8.18747e-05 0)
(0.00331108 -1.9069e-05 0)
(0.00108245 -0.0011636 0)
(0.00218526 -0.000206441 0)
(0.00334275 -4.37132e-06 0)
(0.00307364 -0.000205766 0)
(0.00109344 -0.000743782 0)
(0.00287061 -4.62255e-05 0)
(0.00256763 -3.87502e-05 0)
(0.0027921 -0.000116968 0)
(0.00253726 -4.77795e-05 0)
(0.00219857 -0.000151679 0)
(0.00323052 -5.48408e-06 0)
(0.00197664 -0.000353804 0)
(0.00228214 -0.000123905 0)
(0.0012651 -0.000987101 0)
(0.00238949 -0.000266429 0)
(0.00273243 -0.000173128 0)
(0.00095232 -0.00103106 0)
(0.000736289 -0.00144591 0)
(0.000371219 -0.00123748 0)
(0.00301486 -3.42634e-05 0)
(0.00308416 -7.4223e-06 0)
(0.00294794 -9.62725e-05 0)
(0.0027488 -7.50317e-05 0)
(0.00327748 -4.39176e-05 0)
(0.000270251 -0.00179942 0)
(0.00306885 -3.41652e-05 0)
(0.000474919 -0.00146773 0)
(0.00153802 -0.000491526 0)
(0.00142564 -0.000555846 0)
(0.0021529 -0.000295528 0)
(0.00193005 -0.000325339 0)
(0.00150879 -0.000866231 0)
(0.00077063 -0.00136202 0)
(0.00281968 -7.19332e-05 0)
(0.00270651 -0.000217686 0)
(0.00317852 -8.04757e-05 0)
(0.00285695 -3.81612e-06 0)
(0.00101388 -0.00102041 0)
(0.00255334 -0.000181919 0)
(0.00242986 -0.000195044 0)
(0.00248914 -0.000108318 0)
(0.00312089 -4.30093e-05 0)
(0.00291169 -0.000123061 0)
(0.00258052 -0.000117459 0)
(0.0028762 -0.000225097 0)
(0.00301448 -5.68589e-05 0)
(0.00261862 -6.10937e-05 0)
(0.00290615 -0.000253541 0)
(0.00269998 -4.89858e-06 0)
(0.00295591 -0.000272139 0)
(0.00202375 -0.000228385 0)
(0.000581235 -0.00160196 0)
(0.0027848 -0.000291273 0)
(0.00254459 -0.000126695 0)
(0.00245176 -0.000175451 0)
(0.000727419 -0.00125503 0)
(0.00177484 -0.00034678 0)
(0.00046766 -0.00160225 0)
(0.00330817 -2.52689e-05 0)
(0.00309749 -0.000184278 0)
(0.00267225 -1.03476e-05 0)
(0.00318446 -6.39845e-05 0)
(0.00300754 -7.39197e-05 0)
(0.00163609 -0.000415678 0)
(0.00201903 -0.00024722 0)
(0.002494 -0.000268545 0)
(0.00242771 -0.000134145 0)
(0.00313582 -1.67438e-05 0)
(0.00128763 -0.000625871 0)
(0.00136194 -0.000570898 0)
(0.00025455 -0.00179515 0)
(0.00201075 -0.000354179 0)
(0.00176922 -0.000459103 0)
(0.00305729 -0.00015629 0)
(0.00269793 -1.75209e-05 0)
(0.00260805 -6.58993e-05 0)
(0.00292058 -7.41459e-05 0)
(0.00273915 -4.60755e-05 0)
(0.00298524 -0.000231512 0)
(0.00176619 -0.00059721 0)
(0.00319848 -1.73225e-05 0)
(0.000859044 -0.00119803 0)
(0.00307243 -1.98165e-05 0)
(0.00236547 -0.000317171 0)
(0.00276116 -2.46509e-06 0)
(0.00335298 -2.37422e-05 0)
(0.000849859 -0.00104904 0)
(0.00120323 -0.000669043 0)
(0.00297673 -0.000113999 0)
(0.00236102 -0.000107497 0)
(0.00244625 -7.93597e-05 0)
(0.00292138 -4.17779e-05 0)
(0.00279406 -0.000215416 0)
(0.0027528 -9.80626e-05 0)
(0.00164216 -0.000425622 0)
(0.00127754 -0.00129528 0)
(0.00288969 -1.12014e-05 0)
(0.00299135 -0.000100084 0)
(0.00248528 -7.73371e-05 0)
(0.00233377 -0.000104579 0)
(0.00333272 -3.44532e-05 0)
(0.00159821 -0.000636299 0)
(0.00266542 -0.000152052 0)
(0.00159823 -0.000518764 0)
(0.00259811 -5.56429e-05 0)
(0.00321185 -8.57197e-05 0)
(0.0023536 -0.000102683 0)
(0.00283167 -0.000170695 0)
(0.00241672 -0.000271521 0)
(0.00239503 -0.000163599 0)
(0.0026368 -2.75069e-05 0)
(0.00264391 -2.19303e-05 0)
(0.00282835 -2.1485e-05 0)
(0.00314546 -5.59491e-05 0)
(0.00203135 -0.00030254 0)
(0.00276153 -2.54173e-05 0)
(7.25727e-05 -0.00193277 0)
(0.00262175 -0.000173477 0)
(0.000619067 -0.00138674 0)
(0.00307646 -5.80168e-05 0)
(0.00145888 -0.000516197 0)
(0.00238718 -0.000122784 0)
(0.00262696 -2.64346e-05 0)
(0.00228292 -0.000474403 0)
(0.00299425 -4.445e-05 0)
(0.00259177 -0.000126675 0)
(0.00321108 -5.20212e-05 0)
(0.002649 -3.4499e-05 0)
(0.0033891 -1.0394e-05 0)
(0.00317093 -0.000179147 0)
(0.000155743 -0.00182422 0)
(0.00261621 -7.29675e-05 0)
(0.00289006 -1.98269e-05 0)
(0.00208284 -0.000270535 0)
(0.00265569 -2.07475e-05 0)
(0.0026639 -0.000266174 0)
(0.00314371 -0.000135483 0)
(0.00288456 -3.77733e-06 0)
(0.0019438 -0.000328008 0)
(0.00179236 -0.000329398 0)
(0.00204336 -0.000264296 0)
(0.00308262 -4.22476e-05 0)
(0.00163289 -0.000465186 0)
(0.00248888 -0.000113172 0)
(0.00112827 -0.000774617 0)
(0.00229243 -0.000151505 0)
(0.00285488 -9.14935e-05 0)
(0.00306857 -0.000102993 0)
(0.002328 -0.000115679 0)
(0.00274226 -8.20535e-06 0)
(0.00210686 -0.000238153 0)
(0.00247757 -6.40019e-05 0)
(0.00281654 -0.000139035 0)
(0.00247147 -0.000310531 0)
(0.00149145 -0.000518795 0)
(0.00279638 -1.2788e-05 0)
(0.0021219 -0.000205014 0)
(0.00295532 -8.2633e-05 0)
(0.00238997 -0.000184151 0)
(0.00195349 -0.000253312 0)
(0.00303042 -5.42768e-06 0)
(0.00268688 -0.000118116 0)
(0.00207655 -0.000209174 0)
(0.00177082 -0.000429368 0)
(0.00272258 -7.51194e-06 0)
(0.00189081 -0.000306629 0)
(0.00293341 -0.000142881 0)
(0.00190092 -0.000286915 0)
(0.00264058 -2.16954e-05 0)
(0.00258826 -0.000100678 0)
(0.00259729 -0.00014482 0)
(0.00281919 -0.000264011 0)
(0.00252307 -8.73048e-05 0)
(0.00322648 -0.000115653 0)
(0.00133334 -0.000644813 0)
(0.00211325 -0.000186543 0)
(0.00186871 -0.00029876 0)
(0.000466333 -0.00163307 0)
(0.0025492 -4.66644e-05 0)
(0.00177406 -0.000724295 0)
(0.0026416 -0.000303829 0)
(0.00153747 -0.000777295 0)
(0.003295 -5.78201e-05 0)
(0.00293542 -4.759e-06 0)
(0.00159882 -0.001021 0)
(0.0027333 -8.85824e-05 0)
(0.00254777 -5.3247e-05 0)
(0.00227125 -0.0001565 0)
(0.00113642 -0.00126079 0)
(0.00116914 -0.000704563 0)
(0.00148155 -0.000979974 0)
(0.00171033 -0.000371606 0)
(0.00172938 -0.000380717 0)
(0.00282728 -5.34744e-05 0)
(0.00284509 -1.18266e-05 0)
(0.00297949 -0.000157963 0)
(0.000962319 -0.000840761 0)
(0.00268058 -6.72859e-06 0)
(0.00290086 -0.000107353 0)
(0.00316118 -0.0001025 0)
(0.00128218 -0.000736905 0)
(0.0029216 -2.00654e-05 0)
(0.00192723 -0.000375324 0)
(0.00313457 -8.55858e-05 0)
(0.00279304 -4.38936e-05 0)
(0.00313136 -0.00012074 0)
(0.00204981 -0.000236256 0)
(0.00240924 -8.11221e-05 0)
(0.0027494 -0.000126808 0)
(0.00276786 -0.000245295 0)
(5.86809e-05 -0.0019713 0)
(0.00259252 -0.000215763 0)
(0.00297558 -2.11813e-05 0)
(0.00248428 -0.00023506 0)
(0.00287182 -3.09328e-05 0)
(0.00212236 -0.000193223 0)
(0.00332229 -4.12598e-05 0)
(0.00271706 -3.05167e-05 0)
(0.00166921 -0.00039988 0)
(0.00134849 -0.000827147 0)
(0.00281292 -2.86577e-05 0)
(0.000364853 -0.0017275 0)
(0.00148993 -0.00114247 0)
(0.00179862 -0.000327486 0)
(0.00275331 -6.19193e-05 0)
(0.00174731 -0.00038014 0)
(0.00264097 -0.000113862 0)
(0.00252441 -0.000312297 0)
(0.00191713 -0.000295305 0)
(0.00270725 -6.1451e-05 0)
(0.00260325 -0.000248236 0)
(0.000300465 -0.00171393 0)
(0.000685717 -0.00120221 0)
(0.00113146 -0.00101234 0)
(0.00325907 -1.79017e-05 0)
(0.0031403 -7.34651e-05 0)
(0.00325822 -6.03545e-05 0)
(0.00326144 -5.27715e-05 0)
(0.00265463 -2.27243e-05 0)
(0.00196927 -0.000733498 0)
(0.000803621 -0.00104823 0)
(0.00219368 -0.000221329 0)
(0.00268138 -0.000184471 0)
(0.00292108 -0.000193316 0)
(0.00181944 -0.000360555 0)
(0.00264283 -3.4801e-05 0)
(0.00318455 -2.52615e-05 0)
(0.00153843 -0.000509969 0)
(0.0028386 -0.000154488 0)
(0.00263905 -9.98364e-05 0)
(0.00116703 -0.00087793 0)
(0.00224293 -0.000263744 0)
(0.00138539 -0.00067738 0)
(0.00264141 -2.64461e-05 0)
(0.0016345 -0.000426999 0)
(0.0031029 -0.000207553 0)
(0.00327319 -5.38735e-06 0)
(0.00221268 -0.000440148 0)
(0.00314915 -0.000143379 0)
(0.00253798 -0.000154004 0)
(0.00292762 -1.03461e-05 0)
(0.00154443 -0.000462472 0)
(0.00301414 -4.97849e-05 0)
(0.00334514 -1.36839e-05 0)
(0.00339828 -4.5306e-06 0)
(0.00314301 -0.000219143 0)
(0.00293054 -0.00015832 0)
(0.000166953 -0.00181323 0)
(0.00248513 -0.000279877 0)
(0.00250105 -0.000157309 0)
(0.00312432 -0.000104555 0)
(0.000516412 -0.00162928 0)
(0.00311443 -5.4337e-06 0)
(0.00255061 -5.98836e-05 0)
(0.00256458 -3.93115e-05 0)
(0.00286001 -3.84121e-05 0)
(0.00312861 -6.58872e-05 0)
(0.00272259 -2.55329e-06 0)
(0.00218623 -0.000278664 0)
(0.00234683 -0.000102108 0)
(0.00259344 -0.000127777 0)
(0.0020658 -0.00031291 0)
(0.00169095 -0.00044119 0)
(0.00134393 -0.00107669 0)
(0.00252822 -0.000117437 0)
(0.00122625 -0.00106919 0)
(0.00264726 -0.000140966 0)
(0.000208135 -0.0018503 0)
(0.00244333 -0.000144877 0)
(0.00308159 -0.00012058 0)
(0.00298875 -0.00027406 0)
(0.00105639 -0.0012362 0)
(0.00212439 -0.000383248 0)
(0.0023777 -0.00040329 0)
(0.00255988 -0.000273004 0)
(0.00188692 -0.000537653 0)
(0.00210441 -0.000342461 0)
(0.00288226 -0.000206533 0)
(0.000289767 -0.00142911 0)
(0.00214271 -0.000177316 0)
(0.00297552 -0.000133538 0)
(0.00072217 -0.00105133 0)
(0.00239249 -0.000226849 0)
(0.00328449 -6.73051e-05 0)
(0.00223497 -0.00013985 0)
(0.00205931 -0.000207678 0)
(0.00263623 -0.000284066 0)
(0.00142117 -0.000597428 0)
(0.00297374 -2.96197e-05 0)
(0.00242884 -9.65168e-05 0)
(0.00301665 -1.0889e-05 0)
(0.00231041 -0.000324679 0)
(0.000902163 -0.000943837 0)
(0.00189157 -0.000663478 0)
(0.00306889 -1.40394e-05 0)
(0.000408661 -0.0014235 0)
(0.0017867 -0.000376347 0)
(0.00165243 -0.0004027 0)
(0.00200522 -0.000235613 0)
(0.00267204 -7.55269e-05 0)
(0.00193453 -0.000261669 0)
(0.00211076 -0.000215134 0)
(0.00207077 -0.000354772 0)
(0.0026361 -3.35425e-05 0)
(0.00284022 -0.000203181 0)
(0.00244199 -0.000210831 0)
(0.00231512 -0.000300168 0)
(0.00250494 -5.89729e-05 0)
(0.00132812 -0.000629162 0)
(0.0025849 -8.81566e-05 0)
(0.00282795 -0.000295673 0)
(0.00277215 -3.08807e-05 0)
(0.00283205 -2.34409e-06 0)
(0.00323792 -0.000103342 0)
(0.00249993 -5.88331e-05 0)
(0.00119095 -0.000824473 0)
(0.00295583 -6.50123e-05 0)
(0.0031487 -3.64409e-05 0)
(0.00279299 -5.27563e-05 0)
(0.0010029 -0.000911481 0)
(0.00258524 -3.87031e-05 0)
(0.00100905 -0.000876139 0)
(0.0010018 -0.00083309 0)
(0.00288812 -6.0982e-05 0)
(0.00319625 -4.15167e-06 0)
(0.0015536 -0.00058277 0)
(0.0020902 -0.000647284 0)
(0.000704892 -0.00123283 0)
(0.00226071 -0.000279808 0)
(0.00296044 -3.76545e-06 0)
(0.00174145 -0.000555937 0)
(0.00229576 -0.00028961 0)
(0.00192275 -0.000428283 0)
(0.00251931 -5.07296e-05 0)
(0.00290613 -0.000137574 0)
(0.00300123 -0.000168235 0)
(0.00230033 -0.000186366 0)
(0.00186865 -0.000293386 0)
(0.00209955 -0.000537773 0)
(0.00238073 -0.000143161 0)
(0.0012318 -0.000904184 0)
(0.0022581 -0.000228343 0)
(0.00299042 -0.000247617 0)
(0.0030148 -0.000144836 0)
(0.00224241 -0.000141668 0)
(0.00335539 -2.55929e-05 0)
(0.00242804 -0.000138936 0)
(0.00253002 -9.46566e-05 0)
(0.000510444 -0.0015827 0)
(0.00214208 -0.000174341 0)
(0.00299229 -6.42667e-05 0)
(0.00318729 -5.02455e-05 0)
(0.00254232 -0.000113644 0)
(0.00070908 -0.00135768 0)
(0.0034063 -1.66849e-06 0)
(0.00313404 -0.000240798 0)
(0.002979 -1.11448e-05 0)
(0.00278135 -1.679e-06 0)
(0.000267378 -0.00180186 0)
(0.00199099 -0.000310931 0)
(0.0025187 -8.45742e-05 0)
(0.00291316 -0.00023005 0)
(0.00208846 -0.000200435 0)
(0.00227973 -0.000238041 0)
(0.00171621 -0.000371248 0)
(0.00330108 -3.52332e-05 0)
(0.00286453 -0.000263293 0)
(0.00272298 -0.000143156 0)
(0.00221277 -0.000332264 0)
(0.00272319 -0.000276172 0)
(0.00279522 -9.12118e-05 0)
(0.00271437 -6.212e-06 0)
(0.00329739 -4.25834e-05 0)
(0.00268125 -1.50677e-05 0)
(0.00268665 -0.00030357 0)
(0.00128689 -0.000621138 0)
(0.0031661 -1.48578e-05 0)
(0.00225268 -0.000176313 0)
(0.0022711 -0.000125999 0)
(0.00273897 -1.46764e-05 0)
(0.00274143 -1.78994e-05 0)
(0.00327512 -1.2502e-05 0)
(0.000185811 -0.00186257 0)
(0.00147076 -0.000505921 0)
(0.0026961 -8.71294e-06 0)
(0.00263027 -4.36843e-05 0)
(0.00241588 -8.23948e-05 0)
(0.00260674 -7.07433e-05 0)
(0.00306194 -4.70002e-06 0)
(0.00326005 -6.66927e-05 0)
(0.00217488 -0.000269262 0)
(0.00279449 -2.08923e-05 0)
(0.00273899 -3.74079e-05 0)
(7.22874e-05 -0.00196225 0)
(0.00337197 -2.1065e-06 0)
(0.00309251 -0.000254099 0)
(0.00287428 -8.04812e-05 0)
(0.00230969 -0.000167171 0)
(0.00284385 -7.96868e-06 0)