/*--------------------------------*- C++ -*----------------------------------*\
| =========                 |                                                 |
| \\      /  F ield         | OpenFOAM: The Open Source CFD Toolbox           |
|  \\    /   O peration     | Version:  v2012                                 |
|   \\  /    A nd           | Website:  www.openfoam.com                      |
|    \\/     M anipulation  |                                                 |
\*---------------------------------------------------------------------------*/
FoamFile
{
    version     2.0;
    format      ascii;
    class       volSymmTensorField;
    location    "8";
    object      epsilon;
}
// * * * * * * * * * * * * * * * * * * * * * * * * * * * * * * * * * * * * * //

dimensions      [0 0 0 0 0 0 0];


internalField   nonuniform List<symmTensor> 
500
(
(0.0133268 -0.00289484 -8.15823e-19 -0.0121148 8.8602e-20 2.33506e-35)
(0.00635066 -0.000644142 -4.69997e-19 -0.00305636 -1.2675e-20 0)
(0.00722172 -0.00124643 0 -0.00354987 0 0)
(0.00457349 -0.00039636 3.89609e-19 -0.00143687 1.856e-19 0)
(0.00450167 -0.00062686 6.64581e-19 -0.00116698 1.89681e-19 0)
(0.003707 7.87969e-05 2.48066e-19 -0.000695417 1.72889e-19 0)
(0.00311453 -0.000214982 0 -0.00089226 0 0)
(0.0032315 0.000357778 6.06097e-19 -0.000520132 3.4048e-19 0)
(0.00246189 -2.33754e-05 6.6401e-19 -0.000804612 2.28058e-19 0)
(0.00277054 0.000464394 4.03419e-19 -0.000576936 2.1659e-19 0)
(0.0047641 -0.00219927 -5.82458e-19 -0.00317909 7.66483e-20 -4.26614e-35)
(0.00444432 -0.00138556 -8.2021e-19 -0.00183492 -3.55035e-19 0)
(0.0038626 -0.00123331 -1.0237e-18 -0.00116182 -3.68744e-19 0)
(0.00338988 -0.000626868 5.73474e-19 -0.0012877 3.53398e-19 0)
(0.00334715 -0.000577139 2.18608e-19 -0.00110304 2.43526e-19 0)
(0.00308648 -7.56861e-05 -1.33128e-20 -0.00120544 9.18057e-20 0)
(0.00299404 -3.68615e-05 -4.43092e-19 -0.00115418 -5.1869e-19 0)
(0.00292327 0.00028202 -9.69326e-19 -0.00108587 -9.74817e-19 0)
(0.00273876 0.000292589 -2.55642e-19 -0.00106605 -1.30354e-19 0)
(0.00275219 0.000479013 2.91539e-19 -0.00102646 2.97112e-19 0)
(0.00302683 -0.00207433 8.06852e-19 -0.000837402 -9.21032e-20 -2.34698e-36)
(0.00297039 -0.00125493 -2.93883e-19 -0.000847985 1.99799e-19 0)
(0.00287591 -0.00115003 -1.05129e-19 -0.000855773 -1.11697e-19 0)
(0.00281426 -0.000621011 4.79003e-19 -0.00113649 2.35765e-20 0)
(0.00286129 -0.000516272 1.48264e-19 -0.00110832 -9.73052e-21 0)
(0.0027598 -0.000134378 -1.38522e-19 -0.00122997 -1.77766e-19 0)
(0.0028157 -5.22914e-05 7.58862e-19 -0.00126165 6.58651e-19 0)
(0.00273962 0.000177548 2.90184e-20 -0.00126311 1.42995e-19 0)
(0.00275922 0.000242453 -1.71943e-19 -0.00132186 -1.60164e-19 0)
(0.00269373 0.000356268 0 -0.00127658 0 0)
(0.00196443 -0.00185758 -9.24856e-20 0.000127015 -5.96312e-20 -5.87963e-35)
(0.00208292 -0.00107721 -1.25352e-18 -0.000634651 -6.45186e-19 0)
(0.00219958 -0.00105037 -1.45125e-18 -0.000766533 -1.28334e-18 0)
(0.00228415 -0.000521619 -3.96734e-20 -0.00101101 -9.29262e-19 0)
(0.00239798 -0.000496823 4.09963e-19 -0.00119822 5.30714e-19 0)
(0.00245066 -0.000154773 8.78845e-19 -0.00119699 9.3606e-19 0)
(0.00250987 -0.000152589 3.78718e-19 -0.00143662 3.36456e-19 0)
(0.00256237 5.14708e-05 4.58455e-20 -0.00128891 1.86697e-19 0)
(0.00258808 4.81462e-05 -2.54813e-19 -0.00155889 -3.1605e-19 0)
(0.00262996 0.000153361 -6.57683e-20 -0.00129776 -1.66509e-19 0)
(0.000986421 -0.00131415 2.34459e-20 0.000524302 -1.84184e-19 -8.28473e-35)
(0.00120529 -0.000682205 -3.48585e-19 -0.000602944 -3.82376e-19 0)
(0.00156123 -0.00088388 -7.30725e-19 -0.000657774 -7.85077e-19 0)
(0.0017376 -0.000360503 -1.04373e-18 -0.000992365 -9.23706e-19 0)
(0.0019314 -0.000551832 -8.10014e-19 -0.00124129 -2.1961e-19 0)
(0.0020748 -0.000175509 8.6501e-20 -0.00120647 -4.83822e-20 0)
(0.00215236 -0.000331124 1.10179e-19 -0.00154127 -3.91611e-20 0)
(0.00231326 -8.24068e-05 -7.7843e-20 -0.0013176 2.53318e-20 0)
(0.00235143 -0.000172227 -9.1087e-20 -0.00172667 1.17733e-20 0)
(0.00243066 -4.99805e-05 -2.77001e-19 -0.0014412 -1.6731e-19 0)
(0.00035576 -0.000540605 1.84999e-19 0.000348466 -1.04967e-19 3.03556e-35)
(0.000593729 -0.000197921 6.66889e-19 -0.000718596 1.341e-19 0)
(0.00104035 -0.000612123 1.0265e-18 -0.000626337 5.87126e-19 0)
(0.00127692 -0.000165009 3.50209e-19 -0.000941212 3.34253e-19 0)
(0.00143506 -0.000548109 4.13369e-19 -0.00116653 2.8511e-19 0)
(0.00168288 -0.000137443 2.94291e-19 -0.00112345 3.71247e-19 0)
(0.00159793 -0.000411082 2.2125e-19 -0.00150671 1.5288e-19 0)
(0.00184673 -9.79135e-05 0 -0.00153092 0 0)
(0.00138213 -0.000236028 0 -0.0019508 0 0)
(0.00211165 -0.000349149 -2.5492e-19 -0.00126232 -2.13508e-19 0)
(0.000176497 0.000106939 1.01583e-19 -0.000201086 -2.35491e-19 -2.83726e-35)
(0.000307219 0.000191493 5.1866e-20 -0.00101696 -4.35193e-19 0)
(0.000691101 -0.000319769 7.06288e-20 -0.000655561 -1.47643e-19 0)
(0.000871692 -9.45392e-06 -3.75988e-20 -0.00105678 8.76961e-20 0)
(0.00100106 -0.000480388 7.57342e-22 -0.000989662 3.01881e-19 0)
(0.00117634 -0.000120755 2.99656e-19 -0.00113344 2.45584e-19 0)
(0.0011605 -0.000466153 5.44641e-19 -0.00124483 3.26268e-19 0)
(0.00126835 -0.000128131 5.04731e-19 -0.00128262 2.9036e-19 0)
(0.000959509 -0.000414965 8.25942e-19 -0.00158226 5.84317e-19 0)
(0.00159125 -0.000404174 2.06134e-19 -0.000882679 2.14315e-19 0)
(0.000324665 0.000424668 0 -0.000883585 0 0)
(0.000281869 0.000385642 0 -0.00135242 0 0)
(0.000513967 -6.46026e-05 -5.90378e-20 -0.000801523 -1.95079e-19 0)
(0.000629506 0.000110119 -3.34837e-19 -0.00113231 -2.70631e-19 0)
(0.000609301 -0.000312782 -5.76857e-19 -0.000866225 -2.81536e-19 0)
(0.000788206 -4.45629e-05 -3.42858e-19 -0.00104745 -2.37838e-19 0)
(0.000671084 -0.000398332 -7.7843e-19 -0.000951825 -4.77332e-19 0)
(0.000777933 -0.00012452 -2.9753e-19 -0.001101 -3.17869e-19 0)
(0.000505173 -0.000424888 -2.56014e-19 -0.00113499 2.61906e-20 0)
(0.000971903 -0.000380108 1.20793e-19 -0.000691187 4.51968e-20 0)
(0.00056412 0.000379108 1.05475e-20 -0.0014433 -2.01941e-19 -2.72931e-35)
(0.000397988 0.000367629 1.17886e-22 -0.00159549 -7.70894e-20 0)
(0.000475796 5.93374e-05 0 -0.000979709 0 0)
(0.000489627 0.000145094 0 -0.00121448 0 0)
(0.000377287 -0.000140276 2.94684e-19 -0.000812017 2.94198e-19 0)
(0.000500153 7.79065e-06 2.56886e-19 -0.00102129 2.82762e-19 0)
(0.000348387 -0.000246782 4.219e-19 -0.000750968 2.05642e-19 0)
(0.000423009 -8.11674e-05 6.54037e-20 -0.00098535 7.35911e-20 0)
(0.000193349 -0.000302697 -2.63798e-20 -0.000788712 -1.14828e-19 0)
(0.000472879 -0.000268519 -5.27313e-20 -0.000609209 -5.14668e-20 0)
(0.000765025 8.98953e-05 -1.67762e-20 -0.00166682 4.53592e-20 -1.43065e-35)
(0.000483842 0.000171024 -6.2257e-20 -0.00174436 -1.14158e-19 0)
(0.000636657 5.71796e-05 1.16014e-19 -0.00104792 2.61873e-19 0)
(0.000348671 6.08944e-05 9.63008e-20 -0.00134279 3.29448e-19 0)
(0.000419586 -5.48191e-06 -1.6633e-20 -0.000790154 -2.19571e-20 0)
(0.000253682 -1.08318e-05 1.14654e-20 -0.00107004 4.15009e-20 0)
(0.000280893 -6.55605e-05 -3.80391e-20 -0.00065243 -4.76081e-20 0)
(0.000155387 -3.33853e-05 -1.8662e-20 -0.00087181 -3.16518e-20 0)
(7.6799e-05 -9.93305e-05 -4.69562e-21 -0.000533295 1.55685e-20 0)
(0.000131439 -7.96051e-05 -7.81748e-21 -0.000492908 -8.13204e-21 0)
(1.07802e-05 -7.52654e-05 1.51853e-21 4.70242e-05 4.86088e-21 0)
(0.000302277 -0.000216091 1.33115e-20 4.08175e-05 2.30957e-21 0)
(0.000315148 -0.000402228 2.69591e-20 -8.2658e-06 -2.52808e-21 0)
(0.000563845 -0.00046774 0 -8.89469e-05 0 0)
(0.000829159 -0.000658153 -4.28705e-20 -0.000226636 2.30858e-21 0)
(0.000958867 -0.000664427 2.41632e-20 -0.000319064 5.72266e-21 0)
(0.00156611 -0.00077227 -6.35086e-20 -0.000464399 -3.22524e-20 0)
(0.00135776 -0.000713172 2.54918e-19 -0.000688332 7.06425e-20 0)
(0.00223344 -0.000702446 -2.52989e-19 -0.000679977 -1.19435e-20 0)
(0.00176112 -0.000640564 -6.80346e-20 -0.00119229 1.6469e-19 0)
(6.27107e-05 -3.99745e-05 0 -0.000102396 0 0)
(0.000343387 -0.000206861 2.19896e-20 -9.14715e-05 4.19226e-21 0)
(0.000280081 -0.000316367 9.08203e-21 -0.000123466 -1.03986e-20 0)
(0.000568369 -0.000423582 -9.49638e-20 -0.00025522 -2.64459e-20 0)
(0.000618331 -0.000551768 3.2427e-20 -0.000293076 1.09392e-20 0)
(0.00086891 -0.000568147 3.20535e-20 -0.000524851 1.96304e-20 0)
(0.00110803 -0.000705007 1.52851e-19 -0.000492596 6.75559e-20 0)
(0.00125806 -0.000630529 1.23542e-19 -0.000768014 5.95261e-20 0)
(0.00162389 -0.000733336 -1.38734e-19 -0.000681388 -4.47047e-20 0)
(0.0016127 -0.000576271 1.64353e-19 -0.00101681 8.88019e-20 0)
(0.000330202 -3.63843e-05 0 -0.000185355 0 0)
(0.000534318 -0.00018411 2.41291e-20 -0.000186818 4.09721e-21 0)
(0.000498247 -0.000239833 -3.19597e-21 -0.000233349 1.44465e-20 0)
(0.000741188 -0.000372094 -3.96221e-20 -0.00030603 -1.08673e-21 0)
(0.000764569 -0.000407281 -7.43754e-20 -0.000360254 1.39296e-21 0)
(0.00102938 -0.000509377 -4.26384e-20 -0.000474931 5.06022e-21 0)
(0.0010888 -0.00051142 4.14511e-20 -0.000515652 2.43234e-20 0)
(0.00135677 -0.000577305 -2.01229e-22 -0.000639634 1.79941e-20 0)
(0.00146195 -0.000551044 6.0138e-21 -0.000617781 1.75572e-20 0)
(0.00159918 -0.000559939 7.29585e-20 -0.000811944 6.45478e-20 0)
(0.000523474 -1.61862e-05 -3.02778e-20 -0.000207632 2.29119e-20 0)
(0.000699509 -0.000183336 -3.12782e-20 -0.000208425 1.62122e-20 0)
(0.000657759 -0.000200322 1.46296e-20 -0.000254592 -1.91006e-20 0)
(0.000888359 -0.000362914 8.78054e-20 -0.000284464 -2.9628e-21 0)
(0.000872154 -0.00035852 4.04134e-20 -0.000356965 1.00767e-20 0)
(0.00112404 -0.000494591 -5.59462e-21 -0.000413605 -5.59575e-21 0)
(0.00115815 -0.000471409 -1.00314e-20 -0.000465981 -6.88563e-21 0)
(0.00135374 -0.000555162 -4.4363e-20 -0.000565057 -8.738e-22 0)
(0.00146623 -0.000523412 1.07678e-19 -0.000552588 4.74115e-20 0)
(0.00153765 -0.00054986 -7.571e-20 -0.000701191 1.06476e-21 0)
(0.000655028 -1.04209e-05 2.20442e-20 -0.000203776 2.00914e-21 0)
(0.000827175 -0.000185459 -5.45169e-20 -0.000207808 -1.03074e-20 0)
(0.000778686 -0.000200458 -6.84745e-20 -0.000242748 1.78346e-20 0)
(0.000981903 -0.000355969 -1.17477e-19 -0.000276423 2.60352e-20 0)
(0.000972259 -0.000356411 -3.54942e-20 -0.000330708 3.23335e-20 0)
(0.00116112 -0.000472556 6.48223e-20 -0.000391823 5.11584e-20 0)
(0.00120927 -0.000461111 -5.67621e-20 -0.000424753 -5.34078e-20 0)
(0.00133361 -0.000522965 -6.66488e-20 -0.000515762 -6.56079e-20 0)
(0.00143139 -0.00050356 5.35024e-20 -0.000510133 5.89588e-20 0)
(0.00147786 -0.000519767 -7.66791e-20 -0.000623104 4.79503e-20 0)
(0.000783053 -1.52176e-05 3.69898e-20 -0.000203695 -1.04477e-20 0)
(0.000941682 -0.000175032 9.02267e-20 -0.000218063 -3.94526e-21 0)
(0.00088791 -0.000201968 8.28661e-20 -0.0002362 -2.10595e-20 0)
(0.00105879 -0.000329776 -3.36497e-20 -0.000286825 -3.73156e-20 0)
(0.00105469 -0.000344541 3.09364e-20 -0.000311993 4.11292e-20 0)
(0.00119365 -0.000429693 -4.76866e-20 -0.00038592 4.72337e-20 0)
(0.00123652 -0.000432167 -3.91209e-20 -0.0003978 -5.05613e-20 0)
(0.00132443 -0.000472718 -4.28076e-20 -0.000483558 -5.30482e-20 0)
(0.00140023 -0.000466509 1.39606e-19 -0.000476329 -1.09702e-20 0)
(0.001436 -0.000471744 5.90971e-21 -0.000566734 -2.22738e-20 0)
(0.000917853 -2.07962e-05 -8.59898e-20 -0.000203476 2.02934e-20 0)
(0.00104561 -0.000153264 -4.19928e-20 -0.000233037 2.9104e-20 0)
(0.000985641 -0.00018726 -3.66691e-20 -0.00023373 -1.47709e-20 0)
(0.00112904 -0.00028831 2.93872e-20 -0.000295177 -1.15027e-20 0)
(0.00111485 -0.000310184 4.12767e-20 -0.000297712 6.88869e-21 0)
(0.0012269 -0.000373525 1.45846e-19 -0.000376659 1.31178e-20 0)
(0.00125093 -0.000383958 -2.31488e-20 -0.000372995 -3.8115e-20 0)
(0.0013196 -0.000410017 1.19552e-19 -0.000456945 -3.66423e-20 0)
(0.00137311 -0.000413149 -3.70016e-21 -0.000444118 -1.68099e-20 0)
(0.0013996 -0.000408231 3.72451e-20 -0.00052606 -2.43451e-20 0)
(0.00103786 -2.2938e-05 8.43705e-20 -0.00018078 -5.97216e-21 0)
(0.0011193 -0.000123906 2.31428e-20 -0.000234989 -2.30078e-21 0)
(0.00106156 -0.000157981 1.05118e-19 -0.000214683 -1.43001e-20 0)
(0.00117818 -0.000236972 3.11844e-20 -0.000287979 -3.16384e-20 0)
(0.00115217 -0.000259734 5.03608e-20 -0.000272344 1.80239e-20 0)
(0.00124638 -0.000306968 -8.46557e-20 -0.00035467 1.15745e-20 0)
(0.00125211 -0.000320942 0 -0.000338565 0 0)
(0.00130801 -0.000334444 1.00272e-19 -0.000422405 1.17149e-20 0)
(0.00134452 -0.000343262 3.94583e-20 -0.000402361 -1.63861e-20 0)
(0.00136048 -0.000327806 -6.00279e-20 -0.000483569 -3.08798e-20 0)
(0.00112328 -1.82721e-05 7.57917e-20 -0.000111519 -1.60086e-20 0)
(0.00113567 -8.50392e-05 1.22184e-19 -0.00020514 -2.19991e-20 0)
(0.00110988 -0.000113267 2.31828e-20 -0.000157502 8.84972e-21 0)
(0.00119097 -0.000166395 -6.84867e-21 -0.000252304 4.14843e-21 0)
(0.00117025 -0.000192278 -3.61177e-21 -0.000216979 3.80284e-21 0)
(0.00123777 -0.000212029 -9.18485e-20 -0.00031901 -3.20117e-20 0)
(0.00124311 -0.000238995 -1.25051e-19 -0.000282456 -8.4572e-21 0)
(0.00127982 -0.00022484 -2.21201e-20 -0.000388015 2.7562e-20 0)
(0.00131008 -0.000255707 -4.29729e-20 -0.00034988 -1.65999e-21 0)
(0.00131539 -0.000211713 -1.35975e-19 -0.000451904 -4.78325e-20 0)
(0.0011757 2.83576e-06 -1.94313e-19 4.50728e-07 -5.84852e-21 0)
(0.00116802 -5.11933e-05 -6.23806e-20 -5.52086e-05 6.49998e-21 -3.43366e-35)
(0.00116803 -4.12601e-05 -7.40298e-20 -3.91993e-05 -7.34843e-21 0)
(0.00119155 -6.50906e-05 -1.72938e-20 -0.000118429 -9.10862e-21 -1.84427e-36)
(0.00121657 -9.26982e-05 5.43547e-21 -9.52632e-05 5.531e-22 0)
(0.00122598 -6.50308e-05 0 -0.000216821 0 0)
(0.00125939 -0.000120901 -1.20373e-19 -0.000193574 -2.38778e-20 0)
(0.00126539 -5.78379e-05 -1.03417e-19 -0.000317799 -8.54959e-20 -8.35242e-35)
(0.00129624 -0.000130973 -2.21287e-20 -0.000300628 -2.33025e-20 0)
(0.00129299 -4.3129e-05 7.62955e-20 -0.000413443 5.51425e-20 -3.55603e-35)
(0.00241612 -0.000511979 1.0856e-19 -0.000978497 1.55731e-19 0)
(0.00195105 -0.000476841 -2.47237e-20 -0.0011216 3.68295e-20 0)
(0.00237967 -0.000394862 8.79128e-20 -0.00101659 1.31776e-19 0)
(0.00208174 -0.000351916 2.90408e-19 -0.00109082 2.34902e-19 0)
(0.00237821 -0.000303257 2.90082e-19 -0.00102358 1.91637e-19 0)
(0.00215767 -0.000254217 0 -0.00106713 0 0)
(0.002384 -0.00022344 -2.6515e-20 -0.00102111 2.24574e-20 0)
(0.00220146 -0.00018163 4.56746e-21 -0.00104134 3.15438e-20 0)
(0.00238923 -0.000156133 1.03031e-19 -0.00102475 1.16904e-19 0)
(0.0022302 -0.000127229 8.43542e-21 -0.00101444 3.20402e-20 0)
(0.00239742 -9.50488e-05 -1.05954e-19 -0.0010395 -1.16951e-19 0)
(0.00227234 -9.11413e-05 -3.75471e-19 -0.00099047 -3.09683e-19 0)
(0.00241687 -4.20835e-05 -1.84326e-19 -0.00106191 -1.63536e-19 0)
(0.00232996 -7.53814e-05 1.71338e-19 -0.000985495 8.16153e-20 0)
(0.00245611 -6.05443e-06 3.81486e-19 -0.00109227 3.05741e-19 0)
(0.00239514 -7.40895e-05 7.65125e-20 -0.00100321 4.7571e-20 0)
(0.00253105 1.72608e-05 -7.03679e-20 -0.00112512 -3.07182e-20 0)
(0.00248411 -7.61602e-05 3.01995e-19 -0.00104605 2.07351e-19 0)
(0.00263541 3.43991e-05 2.72287e-19 -0.00116382 1.90148e-19 0)
(0.00265402 -6.08831e-05 0 -0.00105742 0 0)
(0.00200316 -0.000646815 1.21269e-19 -0.000848719 7.63903e-20 0)
(0.0017531 -0.000556287 1.54406e-19 -0.0010285 1.03194e-19 0)
(0.00207682 -0.000529962 1.34851e-20 -0.000938501 -6.99199e-21 0)
(0.0018305 -0.00049051 0 -0.00102773 0 0)
(0.00211511 -0.000416892 8.71596e-20 -0.000997269 7.85016e-20 0)
(0.00191908 -0.000419202 1.6702e-19 -0.00100224 1.16217e-19 0)
(0.00215506 -0.000315796 9.32026e-20 -0.00102418 5.23788e-20 0)
(0.0020169 -0.000355134 -1.69626e-19 -0.000967031 -1.02092e-19 0)
(0.00216719 -0.000228371 -1.09868e-19 -0.00104137 -9.6679e-20 0)
(0.00204948 -0.000292183 1.66588e-19 -0.000964783 1.01034e-19 0)
(0.00219321 -0.000169583 8.51614e-20 -0.00104904 5.25329e-20 0)
(0.0021398 -0.000239754 8.41916e-20 -0.000951068 5.3192e-20 0)
(0.00227552 -0.000125657 1.30064e-19 -0.00104987 9.65424e-20 0)
(0.00222209 -0.000193825 5.49963e-19 -0.00096149 3.37611e-19 0)
(0.00236379 -8.40418e-05 3.47049e-19 -0.00106335 2.22519e-19 0)
(0.00230288 -0.000151458 8.8717e-20 -0.000993648 5.26055e-20 0)
(0.00245203 -4.26679e-05 -6.20462e-20 -0.00109719 -4.18721e-20 0)
(0.00239239 -0.000106493 2.00954e-19 -0.00104572 1.14754e-19 0)
(0.00255542 1.14666e-06 4.43542e-19 -0.00112002 2.57793e-19 0)
(0.00256962 -5.59476e-05 7.92227e-20 -0.00103068 2.4814e-21 -4.39922e-36)
(0.00167683 -0.00054545 3.05089e-21 -0.000762132 1.11771e-21 0)
(0.00171641 -0.000543488 2.84818e-19 -0.000836154 1.0442e-19 0)
(0.00177875 -0.000500826 3.02198e-19 -0.000800387 1.30712e-19 0)
(0.00175492 -0.000516866 3.71404e-19 -0.000870677 1.4414e-19 0)
(0.00186884 -0.0004506 3.94434e-19 -0.000833633 1.78813e-19 0)
(0.00180699 -0.000477876 3.09534e-19 -0.000885228 1.25829e-19 0)
(0.00195473 -0.00039546 3.96448e-19 -0.000866532 1.87417e-19 0)
(0.0018672 -0.000429489 1.31036e-20 -0.000896821 -5.09431e-22 0)
(0.00205523 -0.000337779 9.81537e-20 -0.000889345 4.44429e-20 0)
(0.00192945 -0.000383365 8.86505e-20 -0.000904761 3.75614e-20 0)
(0.00212234 -0.000276304 2.39115e-19 -0.000926349 1.21172e-19 0)
(0.00200295 -0.000330947 -1.4919e-19 -0.00091157 -7.18652e-20 0)
(0.00219583 -0.000216114 -1.57747e-19 -0.000959621 -8.31729e-20 0)
(0.00208275 -0.000273157 -9.30543e-21 -0.00092478 3.2544e-21 0)
(0.00227425 -0.000155974 3.62356e-19 -0.000992948 1.73725e-19 0)
(0.00216497 -0.000210087 2.49711e-19 -0.000949741 1.14947e-19 0)
(0.00235404 -9.39982e-05 4.79987e-19 -0.00103087 2.23781e-19 0)
(0.00224533 -0.000137558 4.5727e-19 -0.000985966 1.888e-19 0)
(0.00243235 -2.67845e-05 4.02831e-19 -0.00105527 1.83185e-19 0)
(0.00239294 -5.19288e-05 1.82125e-19 -0.00096727 3.52646e-21 -5.20998e-36)
(0.00161582 -0.00052059 -1.97032e-19 -0.000671943 -5.53736e-20 0)
(0.00163974 -0.0005311 -7.77686e-20 -0.000718151 -3.35674e-21 0)
(0.00167999 -0.0004867 -6.56889e-20 -0.000709735 -1.83743e-20 0)
(0.00167021 -0.000512638 6.20605e-20 -0.000749364 2.49535e-20 0)
(0.00174159 -0.000450945 7.99805e-20 -0.000740168 2.12351e-20 0)
(0.00171397 -0.000484946 2.11667e-19 -0.000769796 4.93933e-20 0)
(0.00181079 -0.000412217 1.52898e-19 -0.000770575 4.41385e-20 0)
(0.00176586 -0.000448669 2.17132e-19 -0.000788813 5.32004e-20 0)
(0.001886 -0.000369342 -8.82174e-21 -0.000802116 7.135e-21 0)
(0.00182322 -0.000405687 -1.30944e-19 -0.00080999 -4.66776e-20 0)
(0.00196428 -0.000320917 -2.38773e-19 -0.000834171 -7.22726e-20 0)
(0.00188436 -0.000354818 -9.76393e-20 -0.000832028 -1.06823e-20 0)
(0.00204493 -0.000265081 -4.44694e-20 -0.000866757 -3.00874e-20 0)
(0.00194924 -0.000295718 2.35327e-19 -0.000857723 6.13045e-20 0)
(0.00212439 -0.000204608 9.71844e-20 -0.000898635 2.71827e-20 0)
(0.00200992 -0.000225524 3.59317e-20 -0.000888181 -9.36481e-21 0)
(0.00219845 -0.000137935 -8.07761e-20 -0.000930088 -2.60607e-20 0)
(0.00206298 -0.000139669 -7.54151e-20 -0.000917462 -2.15923e-20 0)
(0.00226371 -5.89188e-05 -2.12393e-19 -0.000947255 -4.80207e-20 0)
(0.00215301 -3.45924e-05 -4.89814e-20 -0.000908951 9.03665e-22 8.01044e-37)
(0.001551 -0.000501333 -8.55434e-20 -0.000603473 -2.16843e-20 0)
(0.001565 -0.000502737 1.13887e-19 -0.000639712 2.50726e-20 0)
(0.00160442 -0.000473699 5.50627e-20 -0.000637659 1.9679e-20 0)
(0.00159199 -0.000485745 -5.39559e-20 -0.000669615 -1.96111e-20 0)
(0.0016536 -0.000443443 -1.17994e-19 -0.000666024 -3.13354e-20 0)
(0.00162956 -0.000461332 -6.21134e-20 -0.00069162 -8.54596e-21 0)
(0.00170962 -0.000409844 -8.84741e-20 -0.000693846 9.32915e-24 0)
(0.0016742 -0.000429302 -8.67004e-20 -0.000713632 4.48675e-21 0)
(0.00176854 -0.000371715 9.33783e-20 -0.000723607 7.81782e-22 0)
(0.0017221 -0.000388931 1.43588e-19 -0.000736717 1.85571e-20 0)
(0.00182649 -0.000328536 3.18351e-19 -0.000753546 4.03193e-20 0)
(0.00175811 -0.000337234 3.0663e-19 -0.000766971 2.69785e-20 0)
(0.00189894 -0.000282088 -4.44785e-20 -0.000781758 -2.05123e-20 0)
(0.00182312 -0.000280067 1.00032e-19 -0.000791359 3.73638e-20 0)
(0.00196579 -0.000222754 -7.19832e-20 -0.000812897 -1.48043e-20 0)
(0.00185725 -0.000208654 0 -0.000817609 0 0)
(0.00201018 -0.000151386 -7.28356e-20 -0.000839467 -1.56208e-20 0)
(0.00188529 -0.000121905 -4.24822e-20 -0.000836026 -2.59799e-20 0)
(0.00204631 -7.14618e-05 -4.50732e-20 -0.00085078 -2.79941e-20 0)
(0.00192635 -1.86936e-05 0 -0.000831899 0 0)
(0.00149369 -0.000463856 7.9463e-20 -0.000557099 1.68113e-20 0)
(0.00150674 -0.00045713 0 -0.000584475 0 0)
(0.00153799 -0.000440375 5.816e-20 -0.000587662 4.46536e-21 0)
(0.00152729 -0.000439367 1.0536e-19 -0.000613553 2.02301e-20 0)
(0.00157733 -0.000413435 1.31547e-19 -0.000613493 7.86764e-21 0)
(0.00155442 -0.000414559 1.87959e-19 -0.000637345 1.03354e-20 0)
(0.00162114 -0.000383062 1.08311e-19 -0.000638903 2.39407e-20 0)
(0.00158527 -0.000382615 5.91887e-20 -0.000664453 5.10094e-21 0)
(0.00166614 -0.000348893 2.91669e-20 -0.000667452 -1.48928e-20 0)
(0.00162492 -0.00034415 -1.66905e-20 -0.000688572 -3.54331e-20 0)
(0.00172716 -0.000309555 -2.0628e-19 -0.000685576 -2.04915e-20 0)
(0.00166557 -0.000301389 -2.43163e-19 -0.000708214 -3.7687e-20 0)
(0.00175834 -0.000261049 -3.24669e-19 -0.00072147 -1.358e-20 0)
(0.00169384 -0.000243579 -1.05788e-19 -0.000731564 4.89526e-20 0)
(0.00179659 -0.000205859 0 -0.000742344 0 0)
(0.00171437 -0.000175822 -3.91439e-20 -0.000749116 -2.15855e-20 0)
(0.0018251 -0.000142899 -4.05028e-20 -0.000755787 -2.25723e-20 0)
(0.00172365 -9.71152e-05 -6.12418e-20 -0.00075845 -8.28046e-21 0)
(0.00184039 -7.23268e-05 -1.11691e-19 -0.000760328 4.35143e-21 0)
(0.00172642 -6.07709e-06 -4.65164e-20 -0.000758118 1.5384e-21 1.36369e-36)
(0.00144389 -0.000408713 -7.61725e-20 -0.000518835 1.12083e-20 0)
(0.00145228 -0.0003946 -6.64973e-20 -0.000544258 -1.91061e-22 0)
(0.00147905 -0.000388178 -9.93604e-20 -0.000547478 -1.76619e-20 0)
(0.0014684 -0.000376038 -5.48949e-20 -0.000571185 -3.42234e-21 0)
(0.00151005 -0.000363986 8.18649e-20 -0.000572842 -1.10767e-20 0)
(0.00148834 -0.000352096 1.23475e-19 -0.000593629 5.03768e-21 0)
(0.0015422 -0.000335988 1.57655e-19 -0.000600916 2.61381e-20 0)
(0.00151538 -0.000324097 0 -0.000618511 0 0)
(0.00157723 -0.000303557 -8.74619e-20 -0.000625555 8.39893e-21 0)
(0.00153975 -0.000288771 -2.81971e-19 -0.000640687 -3.90634e-20 0)
(0.00160768 -0.000266232 -3.23533e-19 -0.000647359 -2.62227e-20 0)
(0.00156274 -0.00024564 -3.53784e-19 -0.000662081 -4.53344e-20 0)
(0.0016351 -0.000224189 -4.02231e-19 -0.000666194 -3.2855e-20 0)
(0.00157965 -0.00019511 -3.69918e-19 -0.000679501 -8.13602e-22 0)
(0.00165527 -0.000176671 -3.80997e-20 -0.000680318 -1.96603e-20 0)
(0.00158771 -0.000137006 3.48618e-20 -0.000689934 1.98797e-20 0)
(0.00166533 -0.000123817 3.58168e-20 -0.000686973 2.0058e-20 0)
(0.00158375 -7.08732e-05 -8.76343e-20 -0.000690525 -2.75845e-20 0)
(0.00166227 -6.59921e-05 6.84375e-20 -0.000687284 -2.62681e-20 0)
(0.00155815 3.95578e-06 4.24971e-20 -0.00069371 -1.41718e-21 1.25624e-36)
(0.00139901 -0.000332395 -4.60294e-20 -0.000468919 2.15632e-20 0)
(0.00139707 -0.000313814 -4.60192e-20 -0.000500537 2.11209e-20 0)
(0.00142674 -0.000313476 2.43939e-20 -0.000494569 -1.09581e-20 0)
(0.0014089 -0.000295001 2.40307e-20 -0.000528647 -1.09379e-20 0)
(0.00144795 -0.000292789 -5.36588e-20 -0.000519039 -5.56659e-21 0)
(0.00142262 -0.00027302 -5.27318e-20 -0.00055424 -6.79792e-21 0)
(0.00147152 -0.000270477 0 -0.000543864 0 0)
(0.00144121 -0.000245827 3.89821e-20 -0.000578587 1.72911e-20 0)
(0.00149896 -0.000244107 2.62808e-19 -0.000565069 1.17748e-20 0)
(0.00145751 -0.000214141 1.64269e-19 -0.000601339 -7.62381e-21 0)
(0.00152018 -0.000212741 1.10891e-19 -0.000586541 1.40804e-20 0)
(0.00147105 -0.000177368 7.30077e-20 -0.000620802 3.76539e-20 0)
(0.00153491 -0.000177118 3.62755e-19 -0.000606065 4.29027e-20 0)
(0.00148011 -0.000135802 2.42084e-19 -0.000635364 3.31375e-20 0)
(0.00154183 -0.000138008 1.26298e-19 -0.0006209 4.57755e-20 0)
(0.00148225 -8.99705e-05 0 -0.000642211 0 0)
(0.00153884 -9.64569e-05 9.17487e-20 -0.000627612 -2.9601e-21 0)
(0.00147426 -4.06622e-05 1.41715e-19 -0.000638919 8.17938e-21 0)
(0.00152317 -5.42886e-05 -5.4104e-20 -0.0006296 -9.17893e-21 0)
(0.00143282 1.28118e-05 -5.1014e-20 -0.000646188 -9.79183e-22 2.89329e-37)
(0.00135113 -0.000239477 -1.8321e-19 -0.000426007 -2.93582e-20 0)
(0.00135147 -0.000207529 -9.50905e-20 -0.000463067 -3.83457e-21 0)
(0.00137881 -0.000225033 -5.11552e-20 -0.000456153 -9.17063e-21 0)
(0.0013655 -0.000191801 0 -0.000491246 0 0)
(0.00140059 -0.000207833 -1.29148e-19 -0.000482877 -1.22881e-20 0)
(0.00137712 -0.000173797 -6.29804e-20 -0.00051713 -1.23591e-20 0)
(0.00141879 -0.000187551 -2.21421e-19 -0.000507526 -3.91943e-20 0)
(0.0013879 -0.000151878 -2.39567e-19 -0.000540663 -7.37496e-20 0)
(0.00143464 -0.000164242 -4.30692e-19 -0.000530252 -8.8588e-20 0)
(0.0013979 -0.000126566 -1.58335e-19 -0.000562374 -1.10804e-20 0)
(0.00144689 -0.000138387 6.01248e-20 -0.000551149 -1.56125e-20 0)
(0.00140654 -9.86062e-05 3.3301e-19 -0.000581518 7.49649e-20 0)
(0.00145394 -0.000110871 6.98283e-20 -0.000569636 3.75572e-20 0)
(0.00141272 -6.89954e-05 5.10417e-20 -0.000596522 1.26824e-20 0)
(0.00145396 -8.29043e-05 0 -0.000584558 0 0)
(0.001415 -3.92752e-05 -1.65094e-19 -0.000605012 -6.66601e-20 0)
(0.00144548 -5.60543e-05 -2.87552e-19 -0.000594751 -5.83951e-20 0)
(0.00141187 -1.16333e-05 -1.69018e-19 -0.000604404 -1.10843e-20 0)
(0.00142635 -3.2106e-05 -8.90792e-20 -0.000600897 7.26878e-20 0)
(0.00137879 1.46099e-05 1.59288e-20 -0.000606626 1.99883e-21 2.36246e-36)
(0.00131284 -0.000112474 1.87097e-19 -0.000408437 6.18838e-20 0)
(0.00132429 -5.90346e-05 1.51071e-19 -0.000441609 7.27854e-20 -5.70614e-35)
(0.00133502 -0.000110409 3.20723e-19 -0.00045315 1.07034e-19 0)
(0.00134928 -4.97638e-05 1.42881e-19 -0.000472579 5.8898e-20 -6.74597e-35)
(0.00134764 -0.000100609 1.87477e-19 -0.000496827 7.11085e-20 0)
(0.00136873 -4.12912e-05 0 -0.000501371 0 0)
(0.00135775 -8.70622e-05 1.75531e-19 -0.00053343 4.85979e-20 0)
(0.00138477 -3.31744e-05 1.54232e-19 -0.000527102 6.62178e-20 -5.82551e-35)
(0.0013669 -7.17552e-05 2.4837e-19 -0.000562766 8.79282e-20 0)
(0.00139721 -2.50757e-05 -5.14885e-21 -0.000549845 -2.08059e-20 4.86195e-37)
(0.00137503 -5.5551e-05 -1.63009e-19 -0.000584892 -4.84938e-20 0)
(0.00140573 -1.68154e-05 -4.89633e-20 -0.000568989 -3.02316e-21 -9.24701e-36)
(0.00138138 -3.91874e-05 2.10167e-19 -0.00059963 3.49693e-20 0)
(0.00141024 -8.57364e-06 2.53282e-19 -0.000583556 7.36636e-20 -1.67418e-34)
(0.00138471 -2.37743e-05 3.26455e-19 -0.000606854 1.16904e-19 0)
(0.00141108 -1.10276e-06 1.00744e-19 -0.000592185 2.05516e-20 -2.8539e-35)
(0.00138354 -1.10569e-05 2.44337e-19 -0.00060727 5.1375e-20 0)
(0.00140889 4.21681e-06 1.51242e-19 -0.000593804 1.25918e-20 -7.14075e-35)
(0.00137796 -3.29913e-06 2.60077e-19 -0.00060416 6.99606e-20 0)
(0.00140432 1.74499e-06 3.9221e-20 -0.000587871 1.25341e-20 -1.11107e-35)
(0.00219374 0.000128535 0 -0.000713463 0 0)
(0.00243256 0.00038618 -1.92819e-19 -0.000604401 -1.17473e-19 0)
(0.00209741 9.84374e-05 -3.41079e-19 -0.000622476 -9.84979e-20 0)
(0.00231433 0.000395575 -3.01781e-19 -0.000615812 -1.63e-19 0)
(0.00199891 6.86179e-05 0 -0.000596536 0 0)
(0.00219693 0.000393391 7.46127e-20 -0.00063108 5.10824e-20 0)
(0.00189378 4.05219e-05 3.15334e-19 -0.000599532 9.2119e-20 0)
(0.00208047 0.000385705 2.75528e-19 -0.000635023 1.50114e-19 0)
(0.00177934 1.33883e-05 -1.5262e-19 -0.000613124 -3.53034e-20 0)
(0.00196417 0.000374389 -2.61852e-19 -0.000625174 -1.48101e-19 0)
(0.00165481 -1.46285e-05 2.80757e-19 -0.000629069 7.4574e-20 0)
(0.00184753 0.000358383 4.75055e-19 -0.000604609 2.90874e-19 0)
(0.00152228 -4.50264e-05 1.232e-20 -0.00064387 2.63229e-20 0)
(0.00173343 0.000334016 -6.63141e-20 -0.000577167 -3.62672e-20 0)
(0.00138983 -7.81784e-05 2.24335e-19 -0.000655983 9.09614e-20 0)
(0.00163356 0.000295452 4.91878e-19 -0.000541012 3.51522e-19 0)
(0.0012768 -0.000111182 3.64917e-19 -0.000653572 2.09482e-19 0)
(0.00157512 0.000235491 5.17058e-20 -0.000472855 4.02493e-20 0)
(0.00122135 -0.000135152 -9.03362e-20 -0.00060275 -6.01265e-20 0)
(0.00126558 0.000167999 -3.52589e-20 -0.000549375 -2.30935e-21 -3.66744e-36)
(0.00252839 0.000473253 -2.52339e-20 -0.00101453 -4.56917e-20 0)
(0.00255541 0.00055317 -1.06764e-19 -0.000995341 -1.31161e-19 0)
(0.00237812 0.000511011 3.1988e-19 -0.000895779 3.11616e-19 0)
(0.00246197 0.000591149 7.53841e-19 -0.00100379 7.7062e-19 0)
(0.00225563 0.000511007 6.74946e-19 -0.000795858 6.23798e-19 0)
(0.00236481 0.000606959 3.11423e-19 -0.00100815 3.3738e-19 0)
(0.00213442 0.000488422 -2.80036e-19 -0.000721827 -2.74079e-19 0)
(0.00226265 0.000603997 1.71391e-20 -0.00100053 -5.60991e-21 0)
(0.00201139 0.000449594 6.11033e-19 -0.000668901 5.951e-19 0)
(0.00215752 0.000582552 5.71954e-19 -0.000979725 6.36756e-19 0)
(0.00188614 0.000396371 0 -0.000633121 0 0)
(0.00205436 0.000540746 8.65469e-20 -0.000947099 8.50371e-20 0)
(0.00176084 0.000329038 2.61399e-19 -0.000611742 2.45262e-19 0)
(0.00196099 0.000475428 1.04037e-19 -0.000904313 1.15944e-19 0)
(0.00163898 0.000248178 -8.65379e-20 -0.000602413 -9.0477e-20 0)
(0.00188727 0.000384235 4.04603e-19 -0.000849722 4.37842e-19 0)
(0.00152227 0.000155727 3.11363e-19 -0.00059839 3.8056e-19 0)
(0.0018422 0.000264556 3.76791e-19 -0.000781722 4.9823e-19 0)
(0.00140726 5.11447e-05 2.45986e-19 -0.00060877 2.40255e-19 0)
(0.00166305 9.55649e-05 0 -0.000798796 0 0)
(0.00266329 0.000394205 4.28228e-19 -0.0013445 4.72739e-19 0)
(0.00261458 0.000463346 2.30469e-19 -0.0012597 2.71776e-19 0)
(0.00257627 0.000492177 8.98656e-20 -0.00126208 7.03025e-20 0)
(0.00258626 0.000511075 -1.40478e-19 -0.00122506 -1.4171e-19 0)
(0.00248465 0.000553723 -3.79824e-19 -0.00117052 -4.36598e-19 0)
(0.00252675 0.000546299 -5.70952e-19 -0.00119451 -6.01852e-19 0)
(0.00238118 0.000587499 -8.63259e-19 -0.0010822 -9.9252e-19 0)
(0.0024488 0.000562909 -9.84746e-19 -0.00116736 -1.11148e-18 0)
(0.00227283 0.000591829 -1.04171e-18 -0.00099692 -1.16702e-18 0)
(0.00236551 0.000556042 -5.36203e-19 -0.00113725 -6.44149e-19 0)
(0.00216438 0.000565306 7.19936e-20 -0.000918397 1.87505e-19 0)
(0.00228836 0.000521536 3.7875e-19 -0.00109976 4.9237e-19 0)
(0.00205957 0.000508221 1.41657e-19 -0.000853452 8.57484e-20 0)