/*--------------------------------*- C++ -*----------------------------------*\
| =========                 |                                                 |
| \\      /  F ield         | OpenFOAM: The Open Source CFD Toolbox           |
|  \\    /   O peration     | Version:  v2012                                 |
|   \\  /    A nd           | Website:  www.openfoam.com                      |
|    \\/     M anipulation  |                                                 |
\*---------------------------------------------------------------------------*/
FoamFile
{
    version     2.0;
    format      ascii;
    class       volScalarField;
    location    "8";
    object      sigmaHyd;
}
// * * * * * * * * * * * * * * * * * * * * * * * * * * * * * * * * * * * * * //

dimensions      [1 -1 -2 0 0 0 0];


internalField   nonuniform List<scalar> 
500
(
1.44461e+08
1.48503e+08
1.6134e+08
1.60205e+08
1.62054e+08
1.5173e+08
1.43308e+08
1.31814e+08
1.22291e+08
1.13443e+08
1.39012e+08
1.36161e+08
1.45388e+08
1.34787e+08
1.37408e+08
1.21988e+08
1.21181e+08
1.08114e+08
1.06787e+08
9.66621e+07
1.22131e+08
1.13495e+08
1.18523e+08
1.04719e+08
1.06701e+08
9.31276e+07
9.53771e+07
8.48041e+07
8.7304e+07
7.93538e+07
9.57115e+07
8.34394e+07
8.81195e+07
7.40481e+07
7.7903e+07
6.64613e+07
7.15177e+07
6.29999e+07
6.85624e+07
6.20672e+07
6.21043e+07
4.84449e+07
5.54315e+07
4.26997e+07
4.97417e+07
4.01841e+07
4.76789e+07
3.97106e+07
4.76628e+07
4.10775e+07
2.60597e+07
1.36706e+07
2.31453e+07
1.33302e+07
2.27179e+07
1.48043e+07
2.29049e+07
1.61561e+07
2.70432e+07
2.91001e+07
-6.55754e+06
-1.60009e+07
-5.30076e+06
-1.18511e+07
-1.29841e+06
-6.51396e+06
2.48701e+06
157262
1.36788e+07
1.53544e+07
-3.17762e+07
-3.76828e+07
-2.72949e+07
-3.01774e+07
-1.969e+07
-2.17487e+07
-1.23948e+07
-1.3284e+07
-127458
1.05682e+06
-4.81913e+07
-5.08838e+07
-4.15468e+07
-4.13633e+07
-3.19995e+07
-3.21763e+07
-2.37848e+07
-2.34982e+07
-1.19849e+07
-1.01582e+07
-5.70134e+07
-5.70161e+07
-4.87617e+07
-4.6659e+07
-3.91818e+07
-3.7812e+07
-3.08421e+07
-2.85564e+07
-1.85835e+07
-1.51413e+07
-2.14745e+06
5.82106e+06
3.5866e+06
1.42697e+07
1.56692e+07
2.74029e+07
3.03941e+07
4.12566e+07
4.37649e+07
5.27097e+07
1.26791e+07
1.60741e+07
1.79999e+07
2.27362e+07
2.81154e+07
3.25789e+07
3.97432e+07
4.29177e+07
4.96236e+07
5.03623e+07
1.79891e+07
2.02632e+07
2.22467e+07
2.56773e+07
3.00833e+07
3.37739e+07
3.91902e+07
4.22368e+07
4.69656e+07
4.92654e+07
2.2824e+07
2.56289e+07
2.66854e+07
3.07526e+07
3.3681e+07
3.79522e+07
4.15421e+07
4.50926e+07
4.83596e+07
5.06447e+07
2.94631e+07
3.26013e+07
3.3079e+07
3.71083e+07
3.91122e+07
4.28205e+07
4.52989e+07
4.79828e+07
5.02425e+07
5.18022e+07
3.66793e+07
3.96067e+07
3.9612e+07
4.29089e+07
4.40552e+07
4.67521e+07
4.82263e+07
5.00083e+07
5.14012e+07
5.23545e+07
4.35004e+07
4.60723e+07
4.54358e+07
4.80126e+07
4.81485e+07
5.012e+07
5.05206e+07
5.17295e+07
5.21845e+07
5.26946e+07
5.0009e+07
5.2357e+07
5.09433e+07
5.30809e+07
5.21018e+07
5.36148e+07
5.28623e+07
5.36289e+07
5.30609e+07
5.31562e+07
5.66237e+07
5.87219e+07
5.6648e+07
5.8241e+07
5.62894e+07
5.71068e+07
5.53504e+07
5.54255e+07
5.3948e+07
5.34421e+07
6.26671e+07
6.33145e+07
6.1541e+07
6.15133e+07
5.96146e+07
5.91379e+07
5.71359e+07
5.62916e+07
5.43589e+07
5.33441e+07
5.54135e+07
5.78111e+07
6.04474e+07
6.20177e+07
6.42744e+07
6.52038e+07
6.71417e+07
6.78893e+07
6.96484e+07
7.03625e+07
7.21329e+07
7.30792e+07
7.50365e+07
7.64246e+07
7.86386e+07
8.00661e+07
8.26315e+07
8.43526e+07
8.6907e+07
8.71966e+07
5.49135e+07
5.49352e+07
5.8373e+07
5.79496e+07
6.12853e+07
6.08043e+07
6.41178e+07
6.36976e+07
6.68229e+07
6.65775e+07
6.97875e+07
6.99288e+07
7.33736e+07
7.35931e+07
7.71421e+07
7.74103e+07
8.12441e+07
8.1364e+07
8.4803e+07
8.3933e+07
5.26076e+07
5.32699e+07
5.53337e+07
5.56302e+07
5.78835e+07
5.80441e+07
6.0629e+07
6.07463e+07
6.35792e+07
6.36449e+07
6.67101e+07
6.67039e+07
7.00454e+07
6.99194e+07
7.35255e+07
7.32771e+07
7.71528e+07
7.6579e+07
8.01421e+07
7.85589e+07
5.27467e+07
5.36076e+07
5.48029e+07
5.53098e+07
5.6684e+07
5.70285e+07
5.88211e+07
5.90263e+07
6.12138e+07
6.1237e+07
6.37708e+07
6.35686e+07
6.64788e+07
6.60823e+07
6.92927e+07
6.85836e+07
7.1999e+07
7.06968e+07
7.3936e+07
7.18027e+07
5.33135e+07
5.38743e+07
5.4785e+07
5.50352e+07
5.60597e+07
5.61423e+07
5.75085e+07
5.7437e+07
5.91436e+07
5.8867e+07
6.08392e+07
6.03251e+07
6.2805e+07
6.21309e+07
6.47216e+07
6.34405e+07
6.61362e+07
6.43549e+07
6.69874e+07
6.47386e+07
5.3403e+07
5.36327e+07
5.43295e+07
5.4267e+07
5.50528e+07
5.48166e+07
5.58933e+07
5.55487e+07
5.6913e+07
5.6363e+07
5.78854e+07
5.71713e+07
5.8999e+07
5.78882e+07
5.98014e+07
5.83314e+07
6.02823e+07
5.84288e+07
6.0367e+07
5.82859e+07
5.31554e+07
5.31648e+07
5.35379e+07
5.3305e+07
5.37483e+07
5.33736e+07
5.41187e+07
5.37055e+07
5.45917e+07
5.392e+07
5.49654e+07
5.40844e+07
5.52693e+07
5.41344e+07
5.53725e+07
5.39533e+07
5.51579e+07
5.34331e+07
5.466e+07
5.29114e+07
5.29728e+07
5.28225e+07
5.28901e+07
5.25669e+07
5.2715e+07
5.22942e+07
5.26558e+07
5.20647e+07
5.25699e+07
5.18059e+07
5.24298e+07
5.14934e+07
5.21941e+07
5.1084e+07
5.1784e+07
5.04913e+07
5.10886e+07
4.96518e+07
5.02378e+07
4.89702e+07
5.27462e+07
5.23951e+07
5.2258e+07
5.17733e+07
5.17418e+07
5.11025e+07
5.12079e+07
5.04299e+07
5.06734e+07
4.97919e+07
5.01425e+07
4.91918e+07
4.95942e+07
4.86072e+07
4.898e+07
4.79993e+07
4.82536e+07
4.7347e+07
4.74212e+07
4.67331e+07
5.23063e+07
5.18389e+07
5.13968e+07
5.0896e+07
5.04801e+07
4.99298e+07
4.95848e+07
4.90278e+07
4.87852e+07
4.82527e+07
4.81089e+07
4.76222e+07
4.75525e+07
4.71291e+07
4.70915e+07
4.67469e+07
4.66942e+07
4.64514e+07
4.63959e+07
4.63489e+07
1.06047e+08
1.01065e+08
9.74959e+07
9.35424e+07
9.00638e+07
8.67196e+07
8.29138e+07
7.99959e+07
7.57263e+07
7.32082e+07
6.85137e+07
6.64406e+07
6.14645e+07
5.99431e+07
5.4912e+07
5.40145e+07
4.89897e+07
4.85359e+07
4.33706e+07
4.44951e+07
9.55976e+07
8.97733e+07
9.01097e+07
8.55016e+07
8.50542e+07
8.13733e+07
8.00006e+07
7.70833e+07
7.47653e+07
7.26332e+07
6.94324e+07
6.81865e+07
6.42366e+07
6.39855e+07
5.94307e+07
6.01776e+07
5.50266e+07
5.68854e+07
5.15071e+07
5.53451e+07
8.19984e+07
7.70937e+07
7.99852e+07
7.60059e+07
7.78537e+07
7.4605e+07
7.54988e+07
7.31429e+07
7.30256e+07
7.16813e+07
7.05562e+07
7.0288e+07
6.82514e+07
6.90961e+07
6.62838e+07
6.83578e+07
6.49773e+07
6.8697e+07
6.49961e+07
6.96985e+07
6.77147e+07
6.34476e+07
6.8414e+07
6.52501e+07
6.8712e+07
6.66988e+07
6.92935e+07
6.81872e+07
7.00183e+07
6.96575e+07
7.07201e+07
7.10826e+07
7.14409e+07
7.26277e+07
7.24649e+07
7.47364e+07
7.43954e+07
7.79387e+07
7.71263e+07
8.06616e+07
5.16796e+07
5.23832e+07
5.84894e+07
5.90492e+07
6.23907e+07
6.28786e+07
6.5055e+07
6.56854e+07
6.74196e+07
6.82961e+07
6.98039e+07
7.09868e+07
7.24051e+07
7.40293e+07
7.55491e+07
7.77853e+07
7.96277e+07
8.2346e+07
8.39076e+07
8.60264e+07
)
;

boundaryField
{
    back
    {
        type            empty;
    }
    front
    {
        type            empty;
    }
    left
    {
        type            symmetry;
    }
    hole
    {
        type            zeroGradient;
    }
    down
    {
        type            symmetry;
    }
    right
    {
        type            zeroGradient;
    }
    up
    {
        type            zeroGradient;
    }
}


// ************************************************************************* //
