/*--------------------------------*- C++ -*----------------------------------*\
| =========                 |                                                 |
| \\      /  F ield         | OpenFOAM: The Open Source CFD Toolbox           |
|  \\    /   O peration     | Version:  v2012                                 |
|   \\  /    A nd           | Website:  www.openfoam.com                      |
|    \\/     M anipulation  |                                                 |
\*---------------------------------------------------------------------------*/
FoamFile
{
    version     2.0;
    format      ascii;
    class       pointVectorField;
    location    "1";
    object      pointD;
}
// * * * * * * * * * * * * * * * * * * * * * * * * * * * * * * * * * * * * * //

dimensions      [0 1 0 0 0 0 0];


internalField   nonuniform List<vector> 
72837
(
(2.45179e-07 -2.46119e-05 0)
(0 -2.45492e-05 0)
(0 -2.36181e-05 0)
(5.05485e-07 -7.10055e-07 0)
(-4.97965e-07 -6.98026e-07 0)
(-4.73403e-06 -1.93959e-05 0)
(-5.63075e-07 -2.35749e-05 0)
(-4.7395e-06 -1.8839e-05 0)
(-4.57431e-07 -2.35787e-05 0)
(-3.36272e-06 -1.93719e-05 0)
(-3.7469e-06 -1.97602e-05 0)
(-1.38417e-06 -2.20027e-05 0)
(-1.11669e-06 -2.14402e-05 0)
(-6.34285e-07 -2.33493e-05 0)
(-5.53791e-07 -2.32793e-05 0)
(-4.7638e-06 -8.97728e-06 0)
(4.84801e-06 -9.11564e-06 0)
(1.60306e-07 -2.39529e-05 0)
(0 -2.38197e-05 0)
(-8.02196e-07 -2.29713e-05 0)
(-8.76005e-07 -2.29072e-05 0)
(0 -2.35523e-05 0)
(-2.77493e-06 -2.03651e-05 0)
(-2.39986e-06 -2.06644e-05 0)
(3.81733e-06 -2.0064e-05 0)
(-8.01931e-07 -5.20539e-07 5.23058e-07)
(-4.72965e-06 -8.9481e-06 9.97962e-08)
(4.8088e-06 -9.09004e-06 -9.447e-08)
(8.16228e-07 -5.32372e-07 -5.33232e-07)
(-4.65487e-06 -1.88114e-05 -1.29691e-07)
(-3.22215e-06 -1.93787e-05 -2.55974e-07)
(3.78221e-06 -2.01786e-05 3.09435e-07)
(-2.10483e-06 -2.0953e-05 -8.29342e-07)
(-1.77655e-06 -2.22456e-05 -1.23934e-06)
(0 -2.36873e-05 2.71629e-07)
(0 -2.35684e-05 -8.32276e-08)
(-9.94e-07 -2.27365e-05 -4.76912e-07)
(0 -2.38156e-05 -7.47577e-08)
(-5.26524e-07 -2.31737e-05 -1.88963e-07)
(1.66216e-07 -2.39526e-05 -5.13462e-08)
(-4.04253e-07 -2.35176e-05 -7.78431e-08)
(0 -2.45472e-05 -5.59772e-08)
(2.44786e-07 -2.46123e-05 -6.16557e-08)
(-3.61719e-06 -1.97685e-05 -2.91564e-07)
(-4.65778e-06 -1.93753e-05 -1.56651e-07)
(-2.53532e-06 -2.07892e-05 -1.04287e-06)
(-1.75278e-06 -2.19959e-05 -1.59106e-06)
(-9.34812e-07 -2.28067e-05 -5.65728e-07)
(-6.10082e-07 -2.3253e-05 -2.06092e-07)
(-5.16562e-07 -2.35197e-05 -9.83779e-08)
(2.37858e-07 -2.4611e-05 0)
(2.27149e-07 -2.46073e-05 0)
(2.16418e-07 -2.46035e-05 0)
(2.05582e-07 -2.45995e-05 0)
(1.94579e-07 -2.45954e-05 0)
(1.8336e-07 -2.45911e-05 0)
(1.7189e-07 -2.45868e-05 0)
(1.60144e-07 -2.45824e-05 0)
(1.4811e-07 -2.45782e-05 0)
(1.35782e-07 -2.4574e-05 0)
(1.23163e-07 -2.45701e-05 0)
(1.10266e-07 -2.45664e-05 0)
(9.71065e-08 -2.45629e-05 0)
(8.37088e-08 -2.45599e-05 0)
(7.00995e-08 -2.45572e-05 0)
(5.63083e-08 -2.4555e-05 0)
(4.23689e-08 -2.45532e-05 0)
(2.83125e-08 -2.45519e-05 0)
(1.421e-08 -2.45511e-05 0)
(0 -2.45374e-05 0)
(0 -2.4519e-05 0)
(0 -2.45007e-05 0)
(0 -2.44824e-05 0)
(0 -2.44641e-05 0)
(0 -2.44458e-05 0)
(0 -2.44276e-05 0)
(0 -2.44093e-05 0)
(0 -2.4391e-05 0)
(0 -2.43728e-05 0)
(0 -2.43545e-05 0)
(0 -2.43362e-05 0)
(0 -2.43179e-05 0)
(0 -2.42996e-05 0)
(0 -2.42813e-05 0)
(0 -2.4263e-05 0)
(0 -2.42446e-05 0)
(0 -2.42263e-05 0)
(0 -2.42079e-05 0)
(0 -2.41895e-05 0)
(0 -2.41711e-05 0)
(0 -2.41527e-05 0)
(0 -2.41343e-05 0)
(0 -2.41159e-05 0)
(0 -2.40975e-05 0)
(0 -2.40791e-05 0)
(0 -2.40607e-05 0)
(0 -2.40423e-05 0)
(0 -2.40239e-05 0)
(0 -2.40055e-05 0)
(0 -2.39872e-05 0)
(0 -2.39689e-05 0)
(0 -2.39506e-05 0)
(0 -2.39324e-05 0)
(0 -2.39143e-05 0)
(0 -2.38962e-05 0)
(0 -2.38782e-05 0)
(0 -2.38603e-05 0)
(0 -2.38426e-05 0)
(0 -2.37876e-05 0)
(0 -2.37545e-05 0)
(0 -2.37219e-05 0)
(0 -2.36902e-05 0)
(0 -2.36598e-05 0)
(0 -2.36309e-05 0)
(0 -2.36038e-05 0)
(0 -2.35789e-05 0)
(0 -2.35563e-05 0)
(0 -2.35366e-05 0)
(0 -2.35199e-05 0)
(0 -2.35067e-05 0)
(0 -2.34974e-05 0)
(0 -2.34921e-05 0)
(0 -2.34911e-05 0)
(0 -2.34946e-05 0)
(0 -2.35027e-05 0)
(0 -2.35151e-05 0)
(0 -2.35318e-05 0)
(1.79352e-07 -2.35922e-05 0)
(3.28961e-07 -2.35675e-05 0)
(4.83187e-07 -2.3535e-05 0)
(6.41377e-07 -2.34908e-05 0)
(8.02116e-07 -2.34331e-05 0)
(9.66243e-07 -2.3361e-05 0)
(1.13468e-06 -2.32734e-05 0)
(1.30903e-06 -2.31686e-05 0)
(1.49151e-06 -2.30446e-05 0)
(1.68364e-06 -2.28992e-05 0)
(1.88614e-06 -2.27308e-05 0)
(2.0987e-06 -2.25382e-05 0)
(2.31984e-06 -2.23208e-05 0)
(2.54695e-06 -2.20786e-05 0)
(2.77653e-06 -2.18116e-05 0)
(3.00447e-06 -2.15189e-05 0)
(3.2265e-06 -2.11992e-05 0)
(3.43843e-06 -2.08509e-05 0)
(3.63635e-06 -2.04724e-05 0)
(4.8265e-06 -8.74484e-06 0)
(4.79172e-06 -8.4596e-06 0)
(4.75567e-06 -8.17558e-06 0)
(4.71694e-06 -7.89384e-06 0)
(4.67567e-06 -7.61421e-06 0)
(4.63173e-06 -7.33697e-06 0)
(4.58522e-06 -7.06226e-06 0)
(4.53622e-06 -6.79021e-06 0)
(4.48479e-06 -6.52093e-06 0)
(4.43099e-06 -6.25452e-06 0)
(4.37486e-06 -5.99111e-06 0)
(4.31643e-06 -5.73079e-06 0)
(4.25575e-06 -5.47369e-06 0)
(4.19285e-06 -5.21992e-06 0)
(4.12775e-06 -4.9696e-06 0)
(4.06045e-06 -4.72283e-06 0)
(3.99091e-06 -4.47974e-06 0)
(3.91907e-06 -4.24053e-06 0)
(3.84487e-06 -4.00547e-06 0)
(3.76831e-06 -3.77504e-06 0)
(3.69012e-06 -3.54955e-06 0)
(3.6096e-06 -3.3298e-06 0)
(3.52151e-06 -3.11807e-06 0)
(3.42029e-06 -2.91814e-06 0)
(3.30366e-06 -2.73389e-06 0)
(3.17126e-06 -2.56742e-06 0)
(3.02369e-06 -2.41886e-06 0)
(2.86199e-06 -2.28646e-06 0)
(2.68741e-06 -2.16697e-06 0)
(2.5014e-06 -2.05617e-06 0)
(2.30598e-06 -1.94935e-06 0)
(2.10385e-06 -1.84151e-06 0)
(1.89802e-06 -1.72742e-06 0)
(1.69078e-06 -1.60197e-06 0)
(1.48381e-06 -1.46132e-06 0)
(1.28021e-06 -1.30462e-06 0)
(1.08669e-06 -1.13605e-06 0)
(8.97613e-07 -9.60668e-07 0)
(7.54479e-07 -9.32584e-07 0)
(1.53743e-07 -1.63087e-07 0)
(4.50016e-08 -6.14936e-08 0)
(1.67042e-08 -2.64134e-08 0)
(1.61025e-08 -1.90768e-08 0)
(1.66958e-08 -1.69198e-08 0)
(1.55425e-08 -1.54502e-08 0)
(1.25035e-08 -1.42212e-08 0)
(8.44633e-09 -1.33448e-08 0)
(4.30007e-09 -1.29292e-08 0)
(2.96983e-10 -1.28249e-08 0)
(-3.69285e-09 -1.29129e-08 0)
(-7.81794e-09 -1.32836e-08 0)
(-1.19634e-08 -1.4117e-08 0)
(-1.52376e-08 -1.53268e-08 0)
(-1.66369e-08 -1.67806e-08 0)
(-1.62015e-08 -1.89199e-08 0)
(-1.66973e-08 -2.59662e-08 0)
(-4.44615e-08 -6.01786e-08 0)
(-1.51705e-07 -1.59881e-07 0)
(-7.4378e-07 -9.16907e-07 0)
(-8.85581e-07 -9.44681e-07 0)
(-1.07233e-06 -1.117e-06 0)
(-1.26344e-06 -1.28241e-06 0)
(-1.46449e-06 -1.43616e-06 0)
(-1.66872e-06 -1.57429e-06 0)
(-1.87296e-06 -1.69784e-06 0)
(-2.07552e-06 -1.81076e-06 0)
(-2.27415e-06 -1.91821e-06 0)
(-2.46596e-06 -2.02541e-06 0)
(-2.64829e-06 -2.13738e-06 0)
(-2.81913e-06 -2.25884e-06 0)
(-2.97693e-06 -2.39391e-06 0)
(-3.1204e-06 -2.54568e-06 0)
(-3.24849e-06 -2.71559e-06 0)
(-3.3607e-06 -2.90299e-06 0)
(-3.45748e-06 -3.10497e-06 0)
(-3.54244e-06 -3.31756e-06 0)
(-3.62197e-06 -3.53741e-06 0)
(-3.69959e-06 -3.76269e-06 0)
(-3.77518e-06 -3.9929e-06 0)
(-3.84834e-06 -4.2276e-06 0)
(-3.91908e-06 -4.46637e-06 0)
(-3.98748e-06 -4.70894e-06 0)
(-4.0536e-06 -4.95515e-06 0)
(-4.11747e-06 -5.20486e-06 0)
(-4.17909e-06 -5.45794e-06 0)
(-4.23843e-06 -5.71427e-06 0)
(-4.29547e-06 -5.97372e-06 0)
(-4.35018e-06 -6.23614e-06 0)
(-4.40252e-06 -6.50141e-06 0)
(-4.45248e-06 -6.76938e-06 0)
(-4.50002e-06 -7.03991e-06 0)
(-4.54513e-06 -7.31286e-06 0)
(-4.5878e-06 -7.58809e-06 0)
(-4.62802e-06 -7.86546e-06 0)
(-4.66577e-06 -8.14484e-06 0)
(-4.70105e-06 -8.4261e-06 0)
(-4.73384e-06 -8.70909e-06 0)
(-4.78727e-06 -9.19645e-06 0)
(-4.80706e-06 -9.39967e-06 0)
(-4.82562e-06 -9.60353e-06 0)
(-4.84299e-06 -9.80796e-06 0)
(-4.85916e-06 -1.00129e-05 0)
(-4.87414e-06 -1.02184e-05 0)
(-4.88795e-06 -1.04242e-05 0)
(-4.90057e-06 -1.06305e-05 0)
(-4.91203e-06 -1.08371e-05 0)
(-4.92233e-06 -1.10441e-05 0)
(-4.93148e-06 -1.12513e-05 0)
(-4.93949e-06 -1.14587e-05 0)
(-4.94638e-06 -1.16662e-05 0)
(-4.95215e-06 -1.18739e-05 0)
(-4.95683e-06 -1.20817e-05 0)
(-4.96042e-06 -1.22895e-05 0)
(-4.96295e-06 -1.24973e-05 0)
(-4.96444e-06 -1.27051e-05 0)
(-4.96491e-06 -1.29128e-05 0)
(-4.96438e-06 -1.31203e-05 0)
(-4.96287e-06 -1.33277e-05 0)
(-4.96042e-06 -1.35349e-05 0)
(-4.95706e-06 -1.37419e-05 0)
(-4.95281e-06 -1.39487e-05 0)
(-4.94771e-06 -1.41551e-05 0)
(-4.9418e-06 -1.43613e-05 0)
(-4.93512e-06 -1.45671e-05 0)
(-4.92771e-06 -1.47725e-05 0)
(-4.91962e-06 -1.49776e-05 0)
(-4.9109e-06 -1.51823e-05 0)
(-4.9016e-06 -1.53866e-05 0)
(-4.89178e-06 -1.55904e-05 0)
(-4.88151e-06 -1.57939e-05 0)
(-4.87085e-06 -1.5997e-05 0)
(-4.85987e-06 -1.61998e-05 0)
(-4.84866e-06 -1.64022e-05 0)
(-4.8373e-06 -1.66043e-05 0)
(-4.82588e-06 -1.68061e-05 0)
(-4.81451e-06 -1.70078e-05 0)
(-4.80331e-06 -1.72094e-05 0)
(-4.7924e-06 -1.7411e-05 0)
(-4.78195e-06 -1.76128e-05 0)
(-4.77212e-06 -1.7815e-05 0)
(-4.7631e-06 -1.80179e-05 0)
(-4.75513e-06 -1.82217e-05 0)
(-4.74845e-06 -1.84269e-05 0)
(-4.74354e-06 -1.86341e-05 0)
(-4.73567e-06 -1.93024e-05 0)
(-4.73624e-06 -1.91475e-05 0)
(-4.73711e-06 -1.89948e-05 0)
(-4.85713e-07 -2.35778e-05 0)
(-5.14586e-07 -2.35771e-05 0)
(-5.44721e-07 -2.3576e-05 0)
(-4.22226e-07 -2.358e-05 0)
(-3.88928e-07 -2.35818e-05 0)
(-3.58098e-07 -2.35843e-05 0)
(-3.29388e-07 -2.35874e-05 0)
(-3.02548e-07 -2.35911e-05 0)
(-2.77364e-07 -2.35953e-05 0)
(-2.53661e-07 -2.36e-05 0)
(-2.31292e-07 -2.36051e-05 0)
(-2.10135e-07 -2.36106e-05 0)
(-1.90086e-07 -2.36164e-05 0)
(-1.71057e-07 -2.36225e-05 0)
(-1.5297e-07 -2.36289e-05 0)
(-1.3576e-07 -2.36356e-05 0)
(-1.19366e-07 -2.36426e-05 0)
(-1.03737e-07 -2.36498e-05 0)
(-8.88253e-08 -2.36571e-05 0)
(-7.45888e-08 -2.36647e-05 0)
(-6.09892e-08 -2.36725e-05 0)
(-4.79917e-08 -2.36804e-05 0)
(-3.55645e-08 -2.36885e-05 0)
(-2.36786e-08 -2.36967e-05 0)
(-1.2307e-08 -2.37051e-05 0)
(-1.42491e-09 -2.37135e-05 0)
(8.99062e-09 -2.37221e-05 0)
(1.8961e-08 -2.37308e-05 0)
(2.85063e-08 -2.37396e-05 0)
(3.7645e-08 -2.37485e-05 0)
(4.63948e-08 -2.37575e-05 0)
(5.47722e-08 -2.37666e-05 0)
(6.27927e-08 -2.37758e-05 0)
(7.0471e-08 -2.3785e-05 0)
(7.78211e-08 -2.37943e-05 0)
(8.48562e-08 -2.38037e-05 0)
(9.1589e-08 -2.38132e-05 0)
(9.80314e-08 -2.38227e-05 0)
(1.04195e-07 -2.38323e-05 0)
(1.10091e-07 -2.38419e-05 0)
(1.15729e-07 -2.38516e-05 0)
(1.2112e-07 -2.38614e-05 0)
(1.26274e-07 -2.38712e-05 0)
(1.312e-07 -2.38811e-05 0)
(1.35906e-07 -2.38911e-05 0)
(1.40402e-07 -2.39011e-05 0)
(1.44697e-07 -2.39112e-05 0)
(1.488e-07 -2.39213e-05 0)
(1.52719e-07 -2.39315e-05 0)
(1.56462e-07 -2.39417e-05 0)
(1.64784e-07 -2.39667e-05 0)
(1.69259e-07 -2.39815e-05 0)
(1.73441e-07 -2.39964e-05 0)
(1.7735e-07 -2.40114e-05 0)
(1.81005e-07 -2.40266e-05 0)
(1.84424e-07 -2.40418e-05 0)
(1.87622e-07 -2.40572e-05 0)
(1.90614e-07 -2.40727e-05 0)
(1.93415e-07 -2.40883e-05 0)
(1.9604e-07 -2.4104e-05 0)
(1.98501e-07 -2.41199e-05 0)
(2.00813e-07 -2.41358e-05 0)
(2.02988e-07 -2.41519e-05 0)
(2.0504e-07 -2.41681e-05 0)
(2.06979e-07 -2.41844e-05 0)
(2.08819e-07 -2.42008e-05 0)
(2.10569e-07 -2.42173e-05 0)
(2.12243e-07 -2.42339e-05 0)
(2.13849e-07 -2.42506e-05 0)
(2.15399e-07 -2.42674e-05 0)
(2.16903e-07 -2.42843e-05 0)
(2.18369e-07 -2.43013e-05 0)
(2.19809e-07 -2.43184e-05 0)
(2.2123e-07 -2.43356e-05 0)
(2.22642e-07 -2.43529e-05 0)
(2.24052e-07 -2.43703e-05 0)
(2.25469e-07 -2.43877e-05 0)
(2.26899e-07 -2.44052e-05 0)
(2.28351e-07 -2.44228e-05 0)
(2.29829e-07 -2.44404e-05 0)
(2.3134e-07 -2.44581e-05 0)
(2.32887e-07 -2.44758e-05 0)
(2.34476e-07 -2.44936e-05 0)
(2.36108e-07 -2.45114e-05 0)
(2.37784e-07 -2.45292e-05 0)
(2.39504e-07 -2.45471e-05 0)
(2.41264e-07 -2.4565e-05 0)
(2.43055e-07 -2.45828e-05 0)
(2.44864e-07 -2.46007e-05 0)
(1.53291e-07 -2.39449e-05 0)
(1.44109e-07 -2.39341e-05 0)
(1.34631e-07 -2.3923e-05 0)
(1.24899e-07 -2.39119e-05 0)
(1.15017e-07 -2.3901e-05 0)
(1.05099e-07 -2.38906e-05 0)
(9.52525e-08 -2.38808e-05 0)
(8.55796e-08 -2.38717e-05 0)
(7.61747e-08 -2.38635e-05 0)
(6.71208e-08 -2.38561e-05 0)
(5.84854e-08 -2.38497e-05 0)
(5.0317e-08 -2.38442e-05 0)
(4.26428e-08 -2.38396e-05 0)
(3.54671e-08 -2.38357e-05 0)
(2.87739e-08 -2.38326e-05 0)
(2.25195e-08 -2.38301e-05 0)
(1.66602e-08 -2.38283e-05 0)
(1.1068e-08 -2.38269e-05 0)
(5.87266e-09 -2.3826e-05 0)
(-4.32926e-06 -8.96362e-06 0)
(-3.78988e-06 -8.94816e-06 0)
(-3.26955e-06 -8.93476e-06 0)
(-2.76519e-06 -8.9236e-06 0)
(-2.2749e-06 -8.91467e-06 0)
(-1.79644e-06 -8.90794e-06 0)
(-1.32762e-06 -8.90341e-06 0)
(-8.66197e-07 -8.90108e-06 0)
(-4.0983e-07 -8.90093e-06 0)
(4.38623e-08 -8.90292e-06 0)
(4.97316e-07 -8.90699e-06 0)
(9.52999e-07 -8.91307e-06 0)
(1.41339e-06 -8.92107e-06 0)
(1.88096e-06 -8.93096e-06 0)
(2.35812e-06 -8.94272e-06 0)
(2.84717e-06 -8.95658e-06 0)
(3.35041e-06 -8.97246e-06 0)
(3.86944e-06 -8.99155e-06 0)
(4.40977e-06 -9.00984e-06 0)
(-3.17305e-06 -1.91639e-05 0)
(-2.9929e-06 -1.89574e-05 0)
(-2.82035e-06 -1.87529e-05 0)
(-2.65309e-06 -1.85494e-05 0)
(-2.48955e-06 -1.83463e-05 0)
(-2.32865e-06 -1.81432e-05 0)
(-2.16959e-06 -1.79398e-05 0)
(-2.01176e-06 -1.77357e-05 0)
(-1.85467e-06 -1.75308e-05 0)
(-1.69794e-06 -1.73251e-05 0)
(-1.54128e-06 -1.71182e-05 0)
(-1.38443e-06 -1.69103e-05 0)
(-1.22721e-06 -1.67013e-05 0)
(-1.06944e-06 -1.64912e-05 0)
(-9.10989e-07 -1.628e-05 0)
(-7.51756e-07 -1.60676e-05 0)
(-5.91649e-07 -1.58543e-05 0)
(-4.30593e-07 -1.56398e-05 0)
(-2.68529e-07 -1.54245e-05 0)
(-1.05408e-07 -1.52082e-05 0)
(5.88092e-08 -1.4991e-05 0)
(2.24154e-07 -1.4773e-05 0)
(3.90649e-07 -1.45543e-05 0)
(5.58311e-07 -1.4335e-05 0)
(7.2715e-07 -1.41151e-05 0)
(8.97172e-07 -1.38947e-05 0)
(1.06837e-06 -1.36739e-05 0)
(1.24075e-06 -1.34527e-05 0)
(1.41429e-06 -1.32314e-05 0)
(1.58898e-06 -1.301e-05 0)
(1.76479e-06 -1.27885e-05 0)
(1.9417e-06 -1.25672e-05 0)
(2.11968e-06 -1.23461e-05 0)
(2.29869e-06 -1.21254e-05 0)
(2.4787e-06 -1.19051e-05 0)
(2.65966e-06 -1.16855e-05 0)
(2.84153e-06 -1.14667e-05 0)
(3.02426e-06 -1.12488e-05 0)
(3.20777e-06 -1.10321e-05 0)
(3.39199e-06 -1.08166e-05 0)
(3.5768e-06 -1.06025e-05 0)
(3.76206e-06 -1.039e-05 0)
(3.94766e-06 -1.0179e-05 0)
(4.13343e-06 -9.96939e-06 0)
(4.31973e-06 -9.76082e-06 0)
(4.50623e-06 -9.55339e-06 0)
(4.69386e-06 -9.3435e-06 0)
(-3.67402e-06 -1.96899e-05 0)
(-3.5646e-06 -1.95815e-05 0)
(-3.46226e-06 -1.94768e-05 0)
(-1.19141e-06 -2.15746e-05 0)
(-1.27952e-06 -2.17506e-05 0)
(-1.34158e-06 -2.18898e-05 0)
(-1.41665e-06 -2.21623e-05 0)
(-1.39329e-06 -2.2259e-05 0)
(-1.33548e-06 -2.23245e-05 0)
(-1.25909e-06 -2.23785e-05 0)
(-1.17353e-06 -2.24284e-05 0)
(-1.08376e-06 -2.24774e-05 0)
(-9.92107e-07 -2.25268e-05 0)
(-9.0016e-07 -2.25767e-05 0)
(-8.09328e-07 -2.26273e-05 0)
(-7.20459e-07 -2.26786e-05 0)
(-6.33963e-07 -2.27304e-05 0)
(-5.50086e-07 -2.27824e-05 0)
(-4.68961e-07 -2.28343e-05 0)
(-3.90687e-07 -2.2886e-05 0)
(-3.15345e-07 -2.29371e-05 0)
(-2.43013e-07 -2.29874e-05 0)
(-1.73775e-07 -2.30369e-05 0)
(-1.07715e-07 -2.30851e-05 0)
(-4.49258e-08 -2.31321e-05 0)
(1.44964e-08 -2.31777e-05 0)
(7.04506e-08 -2.32216e-05 0)
(1.22832e-07 -2.32639e-05 0)
(1.71536e-07 -2.33043e-05 0)
(2.16454e-07 -2.33428e-05 0)
(2.57482e-07 -2.33792e-05 0)
(2.94519e-07 -2.34136e-05 0)
(3.27469e-07 -2.34458e-05 0)
(3.56245e-07 -2.34757e-05 0)
(3.80769e-07 -2.35034e-05 0)
(4.00973e-07 -2.35289e-05 0)
(4.16803e-07 -2.3552e-05 0)
(4.28219e-07 -2.35729e-05 0)
(4.35196e-07 -2.35914e-05 0)
(4.37721e-07 -2.36077e-05 0)
(4.35798e-07 -2.36217e-05 0)
(4.29443e-07 -2.36334e-05 0)
(4.18688e-07 -2.36429e-05 0)
(4.03576e-07 -2.36501e-05 0)
(3.84165e-07 -2.36552e-05 0)
(3.60528e-07 -2.36581e-05 0)
(3.3276e-07 -2.36588e-05 0)
(3.00978e-07 -2.36574e-05 0)
(2.65339e-07 -2.3654e-05 0)
(2.26037e-07 -2.36487e-05 0)
(1.83352e-07 -2.36416e-05 0)
(1.37571e-07 -2.3633e-05 0)
(8.95919e-08 -2.36237e-05 0)
(-5.73202e-07 -2.32927e-05 0)
(-5.94044e-07 -2.33097e-05 0)
(-6.17705e-07 -2.33321e-05 0)
(-5.18399e-07 -2.32618e-05 0)
(-4.86361e-07 -2.32535e-05 0)
(-4.56924e-07 -2.32515e-05 0)
(-4.2957e-07 -2.32541e-05 0)
(-4.03954e-07 -2.32601e-05 0)
(-3.79811e-07 -2.32688e-05 0)
(-3.56939e-07 -2.32793e-05 0)
(-3.3518e-07 -2.32913e-05 0)
(-3.14408e-07 -2.33044e-05 0)
(-2.94529e-07 -2.33183e-05 0)
(-2.75468e-07 -2.33329e-05 0)
(-2.5717e-07 -2.33478e-05 0)
(-2.39589e-07 -2.33629e-05 0)
(-2.22695e-07 -2.33782e-05 0)
(-2.06462e-07 -2.33935e-05 0)
(-1.90872e-07 -2.34087e-05 0)
(-1.75913e-07 -2.34239e-05 0)
(-1.61575e-07 -2.34388e-05 0)
(-1.47853e-07 -2.34536e-05 0)
(-1.34742e-07 -2.34682e-05 0)
(-1.22239e-07 -2.34825e-05 0)
(-1.10342e-07 -2.34966e-05 0)
(-9.90515e-08 -2.35105e-05 0)
(-8.83654e-08 -2.35241e-05 0)
(-7.82829e-08 -2.35374e-05 0)
(-6.88029e-08 -2.35505e-05 0)
(-5.99236e-08 -2.35635e-05 0)
(-5.16427e-08 -2.35762e-05 0)
(-4.39569e-08 -2.35887e-05 0)
(-3.68622e-08 -2.36011e-05 0)
(-3.03536e-08 -2.36133e-05 0)
(-2.44247e-08 -2.36254e-05 0)
(-1.90684e-08 -2.36374e-05 0)
(-1.42759e-08 -2.36493e-05 0)
(-1.00375e-08 -2.36612e-05 0)
(-6.3421e-09 -2.3673e-05 0)
(-3.17715e-09 -2.36849e-05 0)
(-5.28815e-10 -2.36967e-05 0)
(1.61823e-09 -2.37085e-05 0)
(3.28076e-09 -2.37204e-05 0)
(4.47722e-09 -2.37323e-05 0)
(5.22714e-09 -2.37443e-05 0)
(5.55294e-09 -2.37564e-05 0)
(5.47286e-09 -2.37686e-05 0)
(5.02515e-09 -2.37809e-05 0)
(4.18031e-09 -2.37932e-05 0)
(3.15767e-09 -2.38058e-05 0)
(-4.70311e-06 -1.94001e-05 0)
(-4.65182e-06 -1.94018e-05 0)
(-4.60063e-06 -1.94059e-05 0)
(-4.54941e-06 -1.9412e-05 0)
(-4.49815e-06 -1.94201e-05 0)
(-4.44683e-06 -1.94302e-05 0)
(-4.39549e-06 -1.94423e-05 0)
(-4.34414e-06 -1.94564e-05 0)
(-4.29284e-06 -1.94723e-05 0)
(-4.24162e-06 -1.94901e-05 0)
(-4.19055e-06 -1.95097e-05 0)
(-4.13967e-06 -1.9531e-05 0)
(-4.08904e-06 -1.95541e-05 0)
(-4.03873e-06 -1.95789e-05 0)
(-3.98879e-06 -1.96053e-05 0)
(-3.93928e-06 -1.96333e-05 0)
(-3.89028e-06 -1.96629e-05 0)
(-3.84184e-06 -1.96939e-05 0)
(-3.79402e-06 -1.97264e-05 0)
(-3.30152e-06 -1.9424e-05 0)
(-3.24185e-06 -1.94781e-05 0)
(-3.18366e-06 -1.9534e-05 0)
(-3.12703e-06 -1.95917e-05 0)
(-3.07199e-06 -1.9651e-05 0)
(-3.01861e-06 -1.97119e-05 0)
(-2.96696e-06 -1.97742e-05 0)
(-2.91712e-06 -1.98378e-05 0)
(-2.86929e-06 -1.99026e-05 0)
(-2.82335e-06 -1.99686e-05 0)
(-2.7785e-06 -2.00357e-05 0)
(-2.73423e-06 -2.0104e-05 0)
(-2.69069e-06 -2.01733e-05 0)
(-2.64805e-06 -2.02434e-05 0)
(-2.60625e-06 -2.03139e-05 0)
(-2.56507e-06 -2.03847e-05 0)
(-2.52419e-06 -2.04554e-05 0)
(-2.48325e-06 -2.05258e-05 0)
(-2.44192e-06 -2.05955e-05 0)
(-1.3446e-06 -2.20726e-05 0)
(-1.30785e-06 -2.21414e-05 0)
(-1.27363e-06 -2.22086e-05 0)
(-1.24178e-06 -2.22738e-05 0)
(-1.21212e-06 -2.23364e-05 0)
(-1.18442e-06 -2.23963e-05 0)
(-1.15841e-06 -2.2453e-05 0)
(-1.1338e-06 -2.25062e-05 0)
(-1.11032e-06 -2.2556e-05 0)
(-1.08767e-06 -2.26021e-05 0)
(-1.06561e-06 -2.26446e-05 0)
(-1.04394e-06 -2.26838e-05 0)
(-1.02251e-06 -2.27197e-05 0)
(-1.00121e-06 -2.27527e-05 0)
(-9.80003e-07 -2.27831e-05 0)
(-9.58886e-07 -2.28111e-05 0)
(-9.3788e-07 -2.28373e-05 0)
(-9.17024e-07 -2.28618e-05 0)
(-8.96372e-07 -2.28851e-05 0)
(-6.26869e-07 -2.33634e-05 0)
(-6.19844e-07 -2.33772e-05 0)
(-6.13217e-07 -2.33906e-05 0)
(-6.0699e-07 -2.34038e-05 0)
(-6.01167e-07 -2.34166e-05 0)
(-5.9575e-07 -2.3429e-05 0)
(-5.90743e-07 -2.34412e-05 0)
(-5.86147e-07 -2.34531e-05 0)
(-5.81964e-07 -2.34647e-05 0)
(-5.78196e-07 -2.3476e-05 0)
(-5.74844e-07 -2.3487e-05 0)
(-5.71912e-07 -2.34978e-05 0)
(-5.69402e-07 -2.35084e-05 0)
(-5.67318e-07 -2.35187e-05 0)
(-5.65668e-07 -2.35289e-05 0)
(-5.64457e-07 -2.3539e-05 0)
(-5.63699e-07 -2.35489e-05 0)
(-5.63383e-07 -2.35589e-05 0)
(-5.63569e-07 -2.35688e-05 0)
(-4.69354e-06 -1.88432e-05 0)
(-4.62157e-06 -1.88463e-05 0)
(-4.54921e-06 -1.88526e-05 0)
(-4.47655e-06 -1.88616e-05 0)
(-4.40373e-06 -1.88736e-05 0)
(-4.33083e-06 -1.88883e-05 0)
(-4.25796e-06 -1.89059e-05 0)
(-4.18523e-06 -1.89263e-05 0)
(-4.11274e-06 -1.89494e-05 0)
(-4.0406e-06 -1.89752e-05 0)
(-3.96892e-06 -1.90037e-05 0)
(-3.89781e-06 -1.90349e-05 0)
(-3.82739e-06 -1.90686e-05 0)
(-3.75776e-06 -1.91049e-05 0)
(-3.68904e-06 -1.91436e-05 0)
(-3.62133e-06 -1.91848e-05 0)
(-3.55476e-06 -1.92282e-05 0)
(-3.48941e-06 -1.9274e-05 0)
(-3.4254e-06 -1.93218e-05 0)
(-3.70054e-06 -1.97952e-05 0)
(-3.65502e-06 -1.98314e-05 0)
(-3.61045e-06 -1.98687e-05 0)
(-3.56694e-06 -1.9907e-05 0)
(-3.52478e-06 -1.99462e-05 0)
(-3.48396e-06 -1.99861e-05 0)
(-3.44361e-06 -2.00258e-05 0)
(-3.40296e-06 -2.00645e-05 0)
(-3.36205e-06 -2.01017e-05 0)
(-3.32093e-06 -2.01372e-05 0)
(-3.27929e-06 -2.01705e-05 0)
(-3.23647e-06 -2.02013e-05 0)
(-3.19167e-06 -2.02293e-05 0)
(-3.14413e-06 -2.02542e-05 0)
(-3.09317e-06 -2.02763e-05 0)
(-3.03826e-06 -2.02961e-05 0)
(-2.97907e-06 -2.03141e-05 0)
(-2.91543e-06 -2.03312e-05 0)
(-2.84734e-06 -2.03479e-05 0)
(-1.06166e-06 -2.15335e-05 0)
(-1.01182e-06 -2.16282e-05 0)
(-9.67253e-07 -2.17238e-05 0)
(-9.27987e-07 -2.18198e-05 0)
(-8.93984e-07 -2.19156e-05 0)
(-8.65142e-07 -2.20107e-05 0)
(-8.41292e-07 -2.21043e-05 0)
(-8.22198e-07 -2.2196e-05 0)
(-8.0756e-07 -2.22852e-05 0)
(-7.97013e-07 -2.23712e-05 0)
(-7.90136e-07 -2.24535e-05 0)
(-7.86452e-07 -2.25316e-05 0)
(-7.85438e-07 -2.26051e-05 0)
(-7.86524e-07 -2.26736e-05 0)
(-7.89104e-07 -2.27368e-05 0)
(-7.92537e-07 -2.27945e-05 0)
(-7.96162e-07 -2.28466e-05 0)
(-7.99337e-07 -2.28933e-05 0)
(-8.01493e-07 -2.29347e-05 0)
(-5.43255e-07 -2.3297e-05 0)
(-5.33372e-07 -2.33144e-05 0)
(-5.24122e-07 -2.33317e-05 0)
(-5.15509e-07 -2.33487e-05 0)
(-5.07531e-07 -2.33655e-05 0)
(-5.00183e-07 -2.3382e-05 0)
(-4.93459e-07 -2.33983e-05 0)
(-4.87347e-07 -2.34142e-05 0)
(-4.81837e-07 -2.34299e-05 0)
(-4.76915e-07 -2.34452e-05 0)
(-4.72571e-07 -2.34603e-05 0)
(-4.68791e-07 -2.3475e-05 0)
(-4.65568e-07 -2.34894e-05 0)
(-4.62896e-07 -2.35036e-05 0)
(-4.60774e-07 -2.35174e-05 0)
(-4.59201e-07 -2.3531e-05 0)
(-4.58185e-07 -2.35444e-05 0)
(-4.57687e-07 -2.35575e-05 0)
(-4.57766e-07 -2.35705e-05 0)
(-8.31277e-07 -2.29647e-05 0)
(-8.57567e-07 -2.29476e-05 0)
(-8.69664e-07 -2.2926e-05 0)
(-8.78946e-07 -2.28891e-05 0)
(-8.76946e-07 -2.28795e-05 0)
(-8.71414e-07 -2.28765e-05 0)
(-8.62836e-07 -2.28791e-05 0)
(-8.51622e-07 -2.28865e-05 0)
(-8.38393e-07 -2.28978e-05 0)
(-8.23603e-07 -2.29123e-05 0)
(-8.07551e-07 -2.29294e-05 0)
(-7.90468e-07 -2.29486e-05 0)
(-7.72525e-07 -2.29693e-05 0)
(-7.53868e-07 -2.29913e-05 0)
(-7.3462e-07 -2.30142e-05 0)
(-7.14892e-07 -2.30378e-05 0)
(-6.94779e-07 -2.30617e-05 0)
(-6.74365e-07 -2.30859e-05 0)
(-6.53717e-07 -2.31101e-05 0)
(-6.32897e-07 -2.31342e-05 0)
(-6.11951e-07 -2.31581e-05 0)
(-5.9092e-07 -2.31817e-05 0)
(-5.69838e-07 -2.3205e-05 0)
(-5.48733e-07 -2.32277e-05 0)
(-5.27627e-07 -2.32499e-05 0)
(-5.06539e-07 -2.32716e-05 0)
(-4.85486e-07 -2.32926e-05 0)
(-4.64479e-07 -2.3313e-05 0)
(-4.43529e-07 -2.33326e-05 0)
(-4.22643e-07 -2.33516e-05 0)
(-4.01829e-07 -2.33697e-05 0)
(-3.81089e-07 -2.33871e-05 0)
(-3.60427e-07 -2.34037e-05 0)
(-3.39846e-07 -2.34195e-05 0)
(-3.19345e-07 -2.34344e-05 0)
(-2.98924e-07 -2.34485e-05 0)
(-2.78583e-07 -2.34618e-05 0)
(-2.58319e-07 -2.34741e-05 0)
(-2.38129e-07 -2.34856e-05 0)
(-2.1801e-07 -2.34961e-05 0)
(-1.97959e-07 -2.35058e-05 0)
(-1.77972e-07 -2.35146e-05 0)
(-1.58042e-07 -2.35225e-05 0)
(-1.38166e-07 -2.35294e-05 0)
(-1.18338e-07 -2.35355e-05 0)
(-9.855e-08 -2.35406e-05 0)
(-7.87979e-08 -2.35448e-05 0)
(-5.90728e-08 -2.3548e-05 0)
(-3.93756e-08 -2.35504e-05 0)
(-1.96947e-08 -2.35518e-05 0)
(-2.72685e-06 -2.04598e-05 0)
(-2.63391e-06 -2.05629e-05 0)
(-2.52263e-06 -2.06257e-05 0)
(3.7078e-06 -2.0078e-05 0)
(3.55814e-06 -2.00961e-05 0)
(3.40919e-06 -2.01129e-05 0)
(3.26221e-06 -2.01295e-05 0)
(3.11747e-06 -2.01459e-05 0)
(2.97506e-06 -2.0162e-05 0)
(2.83485e-06 -2.01777e-05 0)
(2.6968e-06 -2.01932e-05 0)
(2.56079e-06 -2.02083e-05 0)
(2.42672e-06 -2.02232e-05 0)
(2.29448e-06 -2.02378e-05 0)
(2.16397e-06 -2.02523e-05 0)
(2.03507e-06 -2.02666e-05 0)
(1.90769e-06 -2.02807e-05 0)
(1.78171e-06 -2.02947e-05 0)
(1.65705e-06 -2.03087e-05 0)
(1.53361e-06 -2.03226e-05 0)
(1.4113e-06 -2.03365e-05 0)
(1.29001e-06 -2.03504e-05 0)
(1.16968e-06 -2.03643e-05 0)
(1.0502e-06 -2.03783e-05 0)
(9.3149e-07 -2.03924e-05 0)
(8.13465e-07 -2.04066e-05 0)
(6.96037e-07 -2.04209e-05 0)
(5.79117e-07 -2.04354e-05 0)
(4.62615e-07 -2.045e-05 0)
(3.46435e-07 -2.04648e-05 0)
(2.30481e-07 -2.04798e-05 0)
(1.14644e-07 -2.0495e-05 0)
(-1.18823e-09 -2.05104e-05 0)
(-1.17143e-07 -2.0526e-05 0)
(-2.33364e-07 -2.05417e-05 0)
(-3.50015e-07 -2.05576e-05 0)
(-4.6729e-07 -2.05736e-05 0)
(-5.85425e-07 -2.05896e-05 0)
(-7.04715e-07 -2.06057e-05 0)
(-8.25539e-07 -2.06216e-05 0)
(-9.48418e-07 -2.06372e-05 0)
(-1.07406e-06 -2.06524e-05 0)
(-1.20364e-06 -2.06667e-05 0)
(-1.3369e-06 -2.06801e-05 0)
(-1.47203e-06 -2.06924e-05 0)
(-1.60939e-06 -2.07027e-05 0)
(-1.75139e-06 -2.07095e-05 0)
(-1.90055e-06 -2.07115e-05 0)
(-2.05902e-06 -2.07073e-05 0)
(-2.22735e-06 -2.06939e-05 0)
(-2.69843e-06 -2.03834e-05 0)
(-2.61819e-06 -2.04034e-05 0)
(-2.53459e-06 -2.04258e-05 0)
(-2.44809e-06 -2.0451e-05 0)
(-2.35918e-06 -2.04797e-05 0)
(-2.26841e-06 -2.05122e-05 0)
(-2.17634e-06 -2.05489e-05 0)
(-2.08356e-06 -2.05902e-05 0)
(-1.99066e-06 -2.06361e-05 0)
(-1.89825e-06 -2.06869e-05 0)
(-1.8069e-06 -2.07427e-05 0)
(-1.71719e-06 -2.08033e-05 0)
(-1.62968e-06 -2.08687e-05 0)
(-1.54488e-06 -2.09388e-05 0)
(-1.46327e-06 -2.10134e-05 0)
(-1.3853e-06 -2.1092e-05 0)
(-1.31134e-06 -2.11744e-05 0)
(-1.24174e-06 -2.12602e-05 0)
(-1.17677e-06 -2.1349e-05 0)
(-8.01195e-07 -2.30037e-05 0)
(-7.98411e-07 -2.30326e-05 0)
(-7.9387e-07 -2.30586e-05 0)
(-7.87636e-07 -2.30823e-05 0)
(-7.79797e-07 -2.31041e-05 0)
(-7.70536e-07 -2.31239e-05 0)
(-7.60241e-07 -2.31417e-05 0)
(-7.49424e-07 -2.31585e-05 0)
(-7.38558e-07 -2.31754e-05 0)
(-7.27807e-07 -2.31923e-05 0)
(-7.17175e-07 -2.32091e-05 0)
(-7.06733e-07 -2.32258e-05 0)
(-6.9653e-07 -2.32422e-05 0)
(-6.86612e-07 -2.32583e-05 0)
(-6.77008e-07 -2.32742e-05 0)
(-6.67741e-07 -2.32898e-05 0)
(-6.58824e-07 -2.33051e-05 0)
(-6.5027e-07 -2.33202e-05 0)
(-6.42088e-07 -2.33349e-05 0)
(-2.35675e-06 -2.07323e-05 0)
(-2.31231e-06 -2.07992e-05 0)
(-2.26632e-06 -2.08651e-05 0)
(-2.21863e-06 -2.093e-05 0)
(-2.16916e-06 -2.09943e-05 0)
(-2.11795e-06 -2.1058e-05 0)
(-2.06512e-06 -2.11216e-05 0)
(-2.01087e-06 -2.11852e-05 0)
(-1.95549e-06 -2.12492e-05 0)
(-1.89933e-06 -2.13138e-05 0)
(-1.8428e-06 -2.13792e-05 0)
(-1.78632e-06 -2.14456e-05 0)
(-1.73032e-06 -2.15129e-05 0)
(-1.67524e-06 -2.15813e-05 0)
(-1.62149e-06 -2.16505e-05 0)
(-1.56945e-06 -2.17204e-05 0)
(-1.51945e-06 -2.17909e-05 0)
(-1.47178e-06 -2.18616e-05 0)
(-1.42664e-06 -2.19322e-05 0)
(-8.5605e-07 -2.2928e-05 0)
(-8.36607e-07 -2.29475e-05 0)
(-8.17587e-07 -2.29662e-05 0)
(-7.98831e-07 -2.29848e-05 0)
(-7.80317e-07 -2.30035e-05 0)
(-7.62095e-07 -2.30223e-05 0)
(-7.44196e-07 -2.3041e-05 0)
(-7.26649e-07 -2.30597e-05 0)
(-7.09486e-07 -2.30783e-05 0)
(-6.92732e-07 -2.30968e-05 0)
(-6.76413e-07 -2.31153e-05 0)
(-6.60558e-07 -2.31338e-05 0)
(-6.45196e-07 -2.31522e-05 0)
(-6.30359e-07 -2.31706e-05 0)
(-6.16075e-07 -2.3189e-05 0)
(-6.02372e-07 -2.32073e-05 0)
(-5.89274e-07 -2.32255e-05 0)
(-5.76804e-07 -2.32436e-05 0)
(-5.6498e-07 -2.32615e-05 0)
(3.98382e-06 -1.96281e-05 0)
(4.14118e-06 -1.91684e-05 0)
(4.28946e-06 -1.86871e-05 0)
(4.42636e-06 -1.81859e-05 0)
(4.55105e-06 -1.76672e-05 0)
(4.663e-06 -1.7133e-05 0)
(4.76187e-06 -1.65853e-05 0)
(4.84752e-06 -1.60264e-05 0)
(4.91995e-06 -1.54581e-05 0)
(4.97932e-06 -1.48823e-05 0)
(5.02585e-06 -1.43008e-05 0)
(5.05983e-06 -1.37152e-05 0)
(5.08159e-06 -1.3127e-05 0)
(5.09147e-06 -1.25377e-05 0)
(5.08964e-06 -1.19484e-05 0)
(5.07606e-06 -1.13605e-05 0)
(5.04962e-06 -1.07761e-05 0)
(5.01383e-06 -1.02019e-05 0)
(4.9748e-06 -9.64045e-06 0)
(0 -2.3576e-05 0)
(0 -2.36022e-05 0)
(0 -2.36301e-05 0)
(0 -2.36587e-05 0)
(0 -2.36871e-05 0)
(0 -2.37142e-05 0)
(0 -2.37391e-05 0)
(0 -2.37607e-05 0)
(0 -2.37782e-05 0)
(0 -2.3791e-05 0)
(0 -2.37984e-05 0)
(0 -2.38e-05 0)
(0 -2.37956e-05 0)
(0 -2.3785e-05 0)
(0 -2.37683e-05 0)
(0 -2.37456e-05 0)
(0 -2.37174e-05 0)
(0 -2.36836e-05 0)
(0 -2.36492e-05 0)
(-1.13037e-06 -7.17966e-07 7.89723e-07)
(-1.18449e-06 -7.25815e-07 8.55442e-07)
(-1.31314e-06 -7.83332e-07 8.73062e-07)
(-1.48591e-06 -8.76848e-07 8.9127e-07)
(-1.65705e-06 -9.93148e-07 9.04045e-07)
(-1.81049e-06 -1.12007e-06 9.05227e-07)
(-1.9524e-06 -1.25193e-06 8.91343e-07)
(-2.09335e-06 -1.38918e-06 8.63415e-07)
(-2.23835e-06 -1.53386e-06 8.23965e-07)
(-2.38722e-06 -1.68723e-06 7.75366e-07)
(-2.53773e-06 -1.84949e-06 7.19687e-07)
(-2.68743e-06 -2.02033e-06 6.59088e-07)
(-2.83402e-06 -2.1994e-06 5.96076e-07)
(-2.97523e-06 -2.3865e-06 5.33483e-07)
(-3.10889e-06 -2.58167e-06 4.74297e-07)
(-3.23295e-06 -2.7852e-06 4.21356e-07)
(-3.34551e-06 -2.99727e-06 3.76803e-07)
(-3.44557e-06 -3.2174e-06 3.41366e-07)
(-3.53474e-06 -3.4443e-06 3.14375e-07)
(-3.61768e-06 -3.67634e-06 2.93665e-07)
(-3.69819e-06 -3.91225e-06 2.76755e-07)
(-3.77659e-06 -4.15166e-06 2.6238e-07)
(-3.85226e-06 -4.39448e-06 2.49798e-07)
(-3.92519e-06 -4.64056e-06 2.38412e-07)
(-3.99542e-06 -4.88988e-06 2.27875e-07)
(-4.06299e-06 -5.14242e-06 2.17967e-07)
(-4.1279e-06 -5.39815e-06 2.08541e-07)
(-4.19013e-06 -5.65701e-06 1.99479e-07)
(-4.24967e-06 -5.91891e-06 1.90687e-07)
(-4.30653e-06 -6.18375e-06 1.82086e-07)
(-4.3607e-06 -6.45139e-06 1.73616e-07)
(-4.4122e-06 -6.72172e-06 1.65231e-07)
(-4.46104e-06 -6.99459e-06 1.56902e-07)
(-4.50724e-06 -7.26988e-06 1.48606e-07)
(-4.55082e-06 -7.54744e-06 1.4033e-07)
(-4.5918e-06 -7.82714e-06 1.3207e-07)
(-4.63021e-06 -8.10885e-06 1.23832e-07)
(-4.66604e-06 -8.39242e-06 1.1563e-07)
(-4.69929e-06 -8.67773e-06 1.07471e-07)
(-4.2906e-06 -8.93237e-06 9.65635e-08)
(-3.75226e-06 -8.91618e-06 8.68221e-08)
(-3.23486e-06 -8.90217e-06 7.59023e-08)
(-2.73446e-06 -8.8908e-06 6.47834e-08)
(-2.24871e-06 -8.88182e-06 5.37698e-08)
(-1.77516e-06 -8.87511e-06 4.28492e-08)
(-1.3115e-06 -8.87064e-06 3.19655e-08)
(-8.554e-07 -8.86844e-06 2.11026e-08)
(-4.04499e-07 -8.86849e-06 1.02711e-08)
(4.36255e-08 -8.87075e-06 -5.11951e-10)
(4.91437e-07 -8.87517e-06 -1.12279e-08)
(9.41432e-07 -8.88168e-06 -2.18518e-08)
(1.39613e-06 -8.8902e-06 -3.23549e-08)
(1.85806e-06 -8.90065e-06 -4.27096e-08)
(2.32973e-06 -8.91306e-06 -5.2955e-08)
(2.81349e-06 -8.92769e-06 -6.3019e-08)
(3.31171e-06 -8.94477e-06 -7.28768e-08)