/*--------------------------------*- C++ -*----------------------------------*\
| =========                 |                                                 |
| \\      /  F ield         | OpenFOAM: The Open Source CFD Toolbox           |
|  \\    /   O peration     | Version:  v2012                                 |
|   \\  /    A nd           | Website:  www.openfoam.com                      |
|    \\/     M anipulation  |                                                 |
\*---------------------------------------------------------------------------*/
FoamFile
{
    version     2.0;
    format      ascii;
    class       volVectorField;
    location    "17";
    object      D_0;
}
// * * * * * * * * * * * * * * * * * * * * * * * * * * * * * * * * * * * * * //

dimensions      [0 1 0 0 0 0 0];


internalField   nonuniform List<vector> 
2000
(
(0.000228875 -0.000533608 0)
(0.000359751 -0.000564143 0)
(0.00018743 -0.000760277 0)
(0.00029531 -0.00081188 0)
(0.000166392 -0.000962608 0)
(0.000258849 -0.00101599 0)
(0.00015278 -0.00113475 0)
(0.000230092 -0.00118012 0)
(0.000140899 -0.001274 0)
(0.000199812 -0.00130578 0)
(0.000127555 -0.0013776 0)
(0.000166481 -0.00139373 0)
(0.000111927 -0.00144523 0)
(0.000133763 -0.0014484 0)
(9.48896e-05 -0.00148267 0)
(0.000105948 -0.00147751 0)
(7.73592e-05 -0.0014992 0)
(8.53648e-05 -0.00148892 0)
(5.88719e-05 -0.00150348 0)
(7.38034e-05 -0.00149018 0)
(0.000475887 -0.0006338 0)
(0.000574954 -0.000731735 0)
(0.000492939 -0.000814685 0)
(0.000589401 -0.000899571 0)
(0.000492957 -0.000985474 0)
(0.000574865 -0.00104953 0)
(0.000476901 -0.00113167 0)
(0.000537132 -0.00116619 0)
(0.00044367 -0.00124227 0)
(0.000481913 -0.00124759 0)
(0.000396689 -0.00131707 0)
(0.000418179 -0.00130056 0)
(0.000342864 -0.0013629 0)
(0.000354974 -0.00133384 0)
(0.000289116 -0.00138909 0)
(0.000298548 -0.00135481 0)
(0.000240234 -0.00140397 0)
(0.000252126 -0.00136869 0)
(0.000198876 -0.00141328 0)
(0.000215653 -0.00137742 0)
(0.000809733 -0.000728126 0)
(0.000908654 -0.000820275 0)
(0.000810443 -0.000899435 0)
(0.000884958 -0.000970349 0)
(0.00079416 -0.00103559 0)
(0.000842847 -0.00107034 0)
(0.000752205 -0.00112952 0)
(0.000778806 -0.00112686 0)
(0.00068697 -0.0011853 0)
(0.000700469 -0.00115588 0)
(0.000608582 -0.0012169 0)
(0.000617679 -0.00117264 0)
(0.000528187 -0.00123652 0)
(0.000538766 -0.00118597 0)
(0.000453899 -0.00125131 0)
(0.000469141 -0.00119957 0)
(0.000390198 -0.00126472 0)
(0.000411024 -0.00121428 0)
(0.000338347 -0.00127715 0)
(0.000364498 -0.00122857 0)
(0.00105534 -0.000870284 0)
(0.00111588 -0.000940922 0)
(0.00104152 -0.000984791 0)
(0.00107504 -0.00101246 0)
(0.000997236 -0.00104615 0)
(0.00100999 -0.00103467 0)
(0.000927161 -0.00106819 0)
(0.000930017 -0.00103302 0)
(0.000845773 -0.00107241 0)
(0.000847996 -0.00102703 0)
(0.00076398 -0.00107319 0)
(0.000770315 -0.00102358 0)
(0.000687177 -0.0010763 0)
(0.000699202 -0.00102442 0)
(0.000617761 -0.00108315 0)
(0.000635899 -0.00102988 0)
(0.000556037 -0.00109326 0)
(0.000580648 -0.00103928 0)
(0.000502349 -0.0011052 0)
(0.000531671 -0.00104968 0)
(0.00122178 -0.000955385 0)
(0.00124209 -0.00096061 0)
(0.00116804 -0.000984512 0)
(0.00117023 -0.000956056 0)
(0.00109337 -0.000974751 0)
(0.00109166 -0.000935737 0)
(0.00101633 -0.000960576 0)
(0.00101692 -0.000919998 0)
(0.000945069 -0.000948455 0)
(0.000948421 -0.000906616 0)
(0.000879764 -0.000939319 0)
(0.000885261 -0.000894835 0)
(0.000819 -0.000933735 0)
(0.000828409 -0.000887291 0)
(0.000761218 -0.000930365 0)
(0.000777382 -0.000883402 0)
(0.000708451 -0.000931533 0)
(0.000730629 -0.000882621 0)
(0.000659561 -0.000935254 0)
(0.00068665 -0.000883277 0)
(0.00129655 -0.000925097 0)
(0.00129533 -0.000889018 0)
(0.00122892 -0.000898457 0)
(0.00123035 -0.000862731 0)
(0.00116242 -0.00087486 0)
(0.00116605 -0.0008381 0)
(0.00109852 -0.000855395 0)
(0.00110404 -0.000816301 0)
(0.00103768 -0.000839264 0)
(0.00104545 -0.000797866 0)
(0.00098064 -0.000825883 0)
(0.000991073 -0.000782633 0)
(0.000927432 -0.00081464 0)
(0.000940867 -0.000770205 0)
(0.000878329 -0.000805606 0)
(0.000894663 -0.000760159 0)
(0.000832621 -0.000798577 0)
(0.000851721 -0.000751771 0)
(0.000789345 -0.000793253 0)
(0.00081393 -0.000746335 0)
(0.00135962 -0.000835249 0)
(0.00136192 -0.000797243 0)
(0.00129833 -0.000805293 0)
(0.00130276 -0.000767315 0)
(0.00123915 -0.000778851 0)
(0.00124581 -0.000739513 0)
(0.00118285 -0.000755914 0)
(0.00119172 -0.0007147 0)
(0.00112941 -0.00073606 0)
(0.0011406 -0.000692972 0)
(0.00107883 -0.000718763 0)
(0.00109249 -0.000674176 0)
(0.00103118 -0.000703579 0)
(0.00104752 -0.00065798 0)
(0.000986716 -0.000690104 0)
(0.00100585 -0.000644043 0)
(0.000945435 -0.000678103 0)
(0.000967591 -0.000632034 0)
(0.000907025 -0.000667336 0)
(0.000932471 -0.00062182 0)
(0.00143363 -0.000748307 0)
(0.00143929 -0.000707588 0)
(0.00137546 -0.000715148 0)
(0.00138314 -0.000673542 0)
(0.00132122 -0.000685648 0)
(0.00133119 -0.000642772 0)
(0.00127044 -0.000659425 0)
(0.00128277 -0.000615141 0)
(0.00122252 -0.000635983 0)
(0.00123723 -0.000590322 0)
(0.00117706 -0.000614792 0)
(0.00119416 -0.000567952 0)
(0.00113399 -0.000595389 0)
(0.00115342 -0.000547775 0)
(0.00109344 -0.000577442 0)
(0.0011152 -0.000529714 0)
(0.00105569 -0.00056083 0)
(0.0010799 -0.000513825 0)
(0.00102077 -0.000545537 0)
(0.00104782 -0.000500124 0)
(0.00151004 -0.000663948 0)
(0.00151835 -0.000622414 0)
(0.00145643 -0.00062773 0)
(0.00146716 -0.000584289 0)
(0.00140713 -0.000595363 0)
(0.00142035 -0.000550327 0)
(0.00136134 -0.000566242 0)
(0.00137701 -0.000519874 0)
(0.0013183 -0.000539844 0)
(0.0013364 -0.000492202 0)
(0.00127738 -0.000515666 0)
(0.0012979 -0.000466616 0)
(0.00123803 -0.000493196 0)
(0.00126099 -0.000442548 0)
(0.00119991 -0.000471873 0)
(0.00122534 -0.000419717 0)
(0.00116308 -0.000451049 0)
(0.00119113 -0.000398433 0)
(0.00112847 -0.000429864 0)
(0.00115983 -0.000379927 0)
(0.00158513 -0.000582927 0)
(0.00159574 -0.000541612 0)
(0.00153731 -0.000544085 0)
(0.00155079 -0.000500425 0)
(0.0014936 -0.00050946 0)
(0.0015097 -0.000464027 0)
(0.001453 -0.00047814 0)
(0.00147151 -0.000431348 0)
(0.00141486 -0.000449449 0)
(0.00143557 -0.000401487 0)
(0.00137882 -0.000422941 0)
(0.00140149 -0.000373762 0)
(0.00134465 -0.000398473 0)
(0.00136902 -0.000347698 0)
(0.00131233 -0.000376293 0)
(0.00133819 -0.000323071 0)
(0.00128227 -0.000357196 0)
(0.00130971 -0.000300217 0)
(0.00125536 -0.000342822 0)
(0.00128531 -0.000280305 0)
(0.00165574 -0.00050586 0)
(0.001668 -0.000466022 0)
(0.00161488 -0.00046559 0)
(0.00163045 -0.000423348 0)
(0.00157749 -0.000429616 0)
(0.00159578 -0.000385667 0)
(0.00154263 -0.000396931 0)
(0.00156334 -0.000351634 0)
(0.00150983 -0.000366732 0)
(0.00153272 -0.000320154 0)
(0.00147895 -0.000338459 0)
(0.00150373 -0.000290421 0)
(0.00145033 -0.000311955 0)
(0.00147649 -0.000261864 0)
(0.0014253 -0.000287968 0)
(0.00145175 -0.000234134 0)
(0.00140628 -0.000269229 0)
(0.00143028 -0.000207631 0)
(0.0013936 -0.000261881 0)
(0.00140875 -0.000185919 0)
(0.00171919 -0.000433634 0)
(0.00173229 -0.000396445 0)
(0.00168607 -0.000393672 0)
(0.00170277 -0.000354218 0)
(0.00165531 -0.000357766 0)
(0.00167474 -0.000316747 0)
(0.00162636 -0.000325081 0)
(0.00164803 -0.000282801 0)
(0.00159913 -0.000295081 0)
(0.00162265 -0.000251455 0)
(0.00157364 -0.000267694 0)
(0.00159877 -0.000222052 0)
(0.00154999 -0.000243282 0)
(0.00157667 -0.000193866 0)
(0.00152837 -0.000222249 0)
(0.00155662 -0.000165855 0)
(0.00150844 -0.000203996 0)
(0.00153749 -0.000137624 0)
(0.00148686 -0.000185793 0)
(0.00151369 -0.000112347 0)
(0.0017738 -0.000366978 0)
(0.00178692 -0.000333327 0)
(0.00174876 -0.000329048 0)
(0.0017656 -0.000293535 0)
(0.00172481 -0.000294812 0)
(0.00174436 -0.000257922 0)
(0.00170169 -0.000263683 0)
(0.00172345 -0.000225479 0)
(0.00167954 -0.000235203 0)
(0.00170322 -0.000195353 0)
(0.00165858 -0.000209177 0)
(0.00168402 -0.000166818 0)
(0.00163912 -0.000185525 0)
(0.00166623 -0.000139021 0)
(0.00162151 -0.000163891 0)
(0.00165006 -0.00011104 0)
(0.00160505 -0.000143339 0)
(0.00163404 -8.30384e-05 0)
(0.00158603 -0.000123951 0)
(0.0016133 -5.76388e-05 0)
(0.00181899 -0.000305928 0)
(0.00183158 -0.000276193 0)
(0.00180159 -0.000271438 0)
(0.00181788 -0.000240388 0)
(0.00178416 -0.000240054 0)
(0.00180308 -0.000207902 0)
(0.00176669 -0.000211378 0)
(0.00178776 -0.000177938 0)
(0.0017496 -0.000185027 0)
(0.00177253 -0.000149788 0)
(0.00173327 -0.0001608 0)
(0.0017579 -0.000122831 0)
(0.00171799 -0.000138487 0)
(0.00174427 -9.63594e-05 0)
(0.00170387 -0.000117548 0)
(0.00173177 -6.96405e-05 0)
(0.00169013 -9.73189e-05 0)
(0.00171907 -4.27664e-05 0)
(0.00167374 -7.85788e-05 0)
(0.00170161 -1.81057e-05 0)
(0.00185455 -0.000249952 0)
(0.00186605 -0.000224267 0)
(0.00184398 -0.000220045 0)
(0.00185902 -0.000193596 0)
(0.00183246 -0.000192458 0)
(0.00184997 -0.000165198 0)
(0.00182019 -0.000167056 0)
(0.00183972 -0.000138572 0)
(0.00180775 -0.000143603 0)
(0.00182908 -0.000113255 0)
(0.00179561 -0.000121938 0)
(0.00181862 -8.88247e-05 0)
(0.00178402 -0.000101837 0)
(0.00180879 -6.47271e-05 0)
(0.00177299 -8.28336e-05 0)
(0.00179977 -4.03029e-05 0)
(0.00176181 -6.44409e-05 0)
(0.00179027 -1.55191e-05 0)
(0.00174771 -4.72312e-05 0)
(0.00177585 7.76407e-06 0)
(0.00188056 -0.000198465 0)
(0.00189047 -0.000176756 0)
(0.00187576 -0.000173986 0)
(0.0018889 -0.00015201 0)
(0.00186929 -0.000150916 0)
(0.00188468 -0.0001284 0)
(0.0018615 -0.00012945 0)
(0.00187877 -0.000105807 0)
(0.00185309 -0.000109565 0)
(0.0018721 -8.40775e-05 0)
(0.00184457 -9.12074e-05 0)
(0.00186531 -6.30062e-05 0)
(0.00183617 -7.4204e-05 0)
(0.00185886 -4.21822e-05 0)
(0.00182788 -5.81303e-05 0)
(0.00185291 -2.10071e-05 0)
(0.00181903 -4.24386e-05 0)
(0.00184624 7.12641e-07 0)
(0.00180706 -2.73023e-05 0)
(0.00183458 2.17611e-05 0)
(0.00189756 -0.000150961 0)
(0.00190555 -0.000132918 0)
(0.0018973 -0.000132294 0)
(0.00190812 -0.000114415 0)
(0.00189483 -0.000114135 0)
(0.00190762 -9.59383e-05 0)
(0.00189066 -9.70391e-05 0)
(0.00190515 -7.78126e-05 0)
(0.00188558 -8.12506e-05 0)
(0.00190171 -6.02457e-05 0)
(0.00188014 -6.68556e-05 0)
(0.00189796 -4.32615e-05 0)
(0.00187453 -5.37239e-05 0)
(0.00189436 -2.65744e-05 0)
(0.00186871 -4.13828e-05 0)
(0.00189105 -9.61573e-06 0)
(0.00186205 -2.90753e-05 0)
(0.00188682 8.02156e-06 0)
(0.00185219 -1.64703e-05 0)
(0.00187771 2.58447e-05 0)
(0.00190676 -0.00010691 0)
(0.0019128 -9.20341e-05 0)
(0.00190966 -9.40006e-05 0)
(0.00191807 -7.96145e-05 0)
(0.00191009 -8.08762e-05 0)
(0.0019201 -6.62859e-05 0)
(0.00190863 -6.8392e-05 0)
(0.00192005 -5.28109e-05 0)
(0.00190622 -5.70358e-05 0)
(0.00191895 -3.97809e-05 0)
(0.00190341 -4.70435e-05 0)
(0.00191751 -2.74564e-05 0)
(0.00190039 -3.83297e-05 0)
(0.00191618 -1.56822e-05 0)
(0.00189705 -3.03272e-05 0)
(0.00191507 -3.90827e-06 0)
(0.00189271 -2.19728e-05 0)
(0.00191303 8.52382e-06 0)
(0.00188527 -1.23316e-05 0)
(0.00190654 2.18833e-05 0)
(0.00190976 -6.5365e-05 0)
(0.00191388 -5.33137e-05 0)
(0.00191468 -5.82489e-05 0)
(0.00192057 -4.67586e-05 0)
(0.00191712 -5.02452e-05 0)
(0.00192422 -3.84865e-05 0)
(0.0019178 -4.25156e-05 0)
(0.00192586 -2.96684e-05 0)
(0.00191765 -3.57092e-05 0)
(0.00192644 -2.12288e-05 0)
(0.00191725 -3.01296e-05 0)
(0.00192666 -1.36448e-05 0)
(0.00191683 -2.57358e-05 0)
(0.00192704 -6.95977e-06 0)
(0.00191629 -2.1992e-05 0)
(0.0019277 -8.13366e-07 0)
(0.00191492 -1.77687e-05 0)
(0.0019276 5.45811e-06 0)
(0.00191081 -1.17746e-05 0)
(0.00192393 1.27102e-05 0)
(0.00190684 -2.52963e-05 0)
(0.00190867 -1.6529e-05 0)
(0.00191418 -2.32329e-05 0)
(0.00191739 -1.52546e-05 0)
(0.0019193 -2.05313e-05 0)
(0.00192319 -1.174e-05 0)
(0.00192298 -1.80864e-05 0)
(0.0019269 -7.59161e-06 0)
(0.0019259 -1.63184e-05 0)
(0.00192938 -3.76403e-06 0)
(0.00192834 -1.53571e-05 0)
(0.00193129 -7.37e-07 0)
(0.00193038 -1.50289e-05 0)
(0.00193314 1.33171e-06 0)
(0.00193199 -1.4687e-05 0)
(0.0019351 2.61162e-06 0)
(0.00193285 -1.31391e-05 0)
(0.00193632 3.63519e-06 0)
(0.0019319 -9.16324e-06 0)
(0.00193459 5.26526e-06 0)
(0.00193026 2.93071e-06 0)
(0.00192804 9.85094e-06 0)
(0.00191808 1.11789e-05 0)
(0.00191569 2.03741e-05 0)
(0.00189855 1.62083e-05 0)
(0.001897 2.61408e-05 0)
(0.00187003 1.76651e-05 0)
(0.00186828 2.77709e-05 0)
(0.00182958 1.35694e-05 0)
(0.0018259 2.38195e-05 0)
(0.0017751 1.31191e-06 0)
(0.00176849 1.18055e-05 0)
(0.00170594 -2.15204e-05 0)
(0.00169637 -1.07581e-05 0)
(0.00162277 -5.66699e-05 0)
(0.00161106 -4.56417e-05 0)
(0.00153035 -0.000106266 0)
(0.00151647 -9.39589e-05 0)
(0.00144126 -0.000189964 0)
(0.00142245 -0.000168695 0)
(0.00191692 -5.051e-07 0)
(0.00191157 7.97841e-06 0)
(0.00190632 3.83634e-06 0)
(0.00190133 1.1871e-05 0)
(0.00188861 4.02647e-06 0)
(0.00188367 1.14381e-05 0)
(0.00186199 4.03563e-07 0)
(0.00185696 6.79621e-06 0)
(0.00182542 -7.13509e-06 0)
(0.00181972 -1.69652e-06 0)
(0.00177816 -2.01963e-05 0)
(0.00177104 -1.52337e-05 0)
(0.00172053 -4.17875e-05 0)
(0.00171135 -3.66448e-05 0)
(0.00165381 -7.72389e-05 0)
(0.00164243 -7.10441e-05 0)
(0.0015737 -0.00013239 0)
(0.00156181 -0.000124547 0)
(0.00146173 -0.00019952 0)
(0.00145194 -0.000191945 0)
(0.00190456 -3.11436e-06 0)
(0.0019006 4.16471e-06 0)
(0.00189468 -2.91921e-06 0)
(0.00189163 2.15848e-06 0)
(0.00187874 -5.16493e-06 0)
(0.00187625 -1.64738e-06 0)
(0.00185424 -1.03921e-05 0)
(0.00185201 -7.98973e-06 0)
(0.00182052 -1.88825e-05 0)
(0.00181828 -1.72223e-05 0)
(0.00177774 -3.18874e-05 0)
(0.0017751 -3.03532e-05 0)
(0.00172535 -5.19742e-05 0)
(0.00172201 -4.97433e-05 0)
(0.00165906 -8.13992e-05 0)
(0.00165511 -7.80625e-05 0)
(0.00156956 -0.000118074 0)
(0.0015652 -0.0001142 0)
(0.00145931 -0.000154882 0)
(0.00145343 -0.000150143 0)
(0.00189781 -3.28273e-06 0)
(0.00189615 6.18748e-07 0)
(0.00188895 -5.53367e-06 0)
(0.00188823 -3.65799e-06 0)
(0.00187384 -8.60388e-06 0)
(0.00187415 -8.39535e-06 0)
(0.00185061 -1.33733e-05 0)
(0.0018516 -1.40707e-05 0)
(0.00181837 -2.0642e-05 0)
(0.00181967 -2.15364e-05 0)
(0.00177629 -3.13285e-05 0)
(0.00177764 -3.18538e-05 0)
(0.001722 -4.58803e-05 0)
(0.00172317 -4.58396e-05 0)
(0.00165159 -6.34009e-05 0)
(0.00165217 -6.31084e-05 0)
(0.00156562 -8.33416e-05 0)
(0.00156462 -8.25707e-05 0)
(0.00147222 -0.00010879 0)
(0.00146925 -0.000106438 0)
(0.00189521 -2.08787e-06 0)
(0.00189542 -1.76118e-06 0)
(0.00188764 -4.53229e-06 0)
(0.00188862 -5.34608e-06 0)
(0.0018728 -7.13296e-06 0)
(0.00187477 -9.05953e-06 0)
(0.00184958 -1.06387e-05 0)
(0.00185229 -1.3103e-05 0)
(0.001817 -1.55997e-05 0)
(0.00182009 -1.80384e-05 0)
(0.0017737 -2.22249e-05 0)
(0.00177683 -2.43993e-05 0)
(0.00171804 -3.02506e-05 0)
(0.00172082 -3.22775e-05 0)
(0.00165007 -3.99009e-05 0)
(0.00165201 -4.17707e-05 0)
(0.00157354 -5.33219e-05 0)
(0.00157415 -5.44381e-05 0)
(0.00149281 -7.32881e-05 0)
(0.00149192 -7.28879e-05 0)
(0.00189501 -5.59238e-07 0)
(0.00189647 -2.92664e-06 0)
(0.00188859 -1.76043e-06 0)
(0.00189065 -4.52316e-06 0)
(0.00187383 -2.99075e-06 0)
(0.00187658 -6.26335e-06 0)
(0.00185013 -4.78995e-06 0)
(0.00185336 -8.28559e-06 0)
(0.00181684 -7.27861e-06 0)
(0.00182028 -1.07824e-05 0)
(0.00177331 -1.04891e-05 0)
(0.00177667 -1.39931e-05 0)
(0.00171954 -1.47494e-05 0)
(0.00172259 -1.82629e-05 0)
(0.00165726 -2.12654e-05 0)
(0.00165978 -2.4504e-05 0)
(0.00158945 -3.18818e-05 0)
(0.00159117 -3.42903e-05 0)
(0.00151867 -4.81683e-05 0)
(0.00151934 -4.91199e-05 0)
(0.00189648 8.17155e-07 0)
(0.0018988 -3.29181e-06 0)
(0.00189094 1.34694e-06 0)
(0.00189369 -2.75258e-06 0)
(0.00187637 1.83397e-06 0)
(0.00187947 -2.43525e-06 0)
(0.0018526 1.79914e-06 0)
(0.00185587 -2.5357e-06 0)
(0.00181957 1.21018e-06 0)
(0.00182287 -3.17038e-06 0)
(0.00177751 -1.58821e-07 0)
(0.00178076 -4.6153e-06 0)
(0.00172736 -3.00674e-06 0)
(0.00173052 -7.43772e-06 0)
(0.00167093 -8.43419e-06 0)
(0.00167392 -1.25263e-05 0)
(0.00161032 -1.75108e-05 0)
(0.00161294 -2.08314e-05 0)
(0.00154716 -3.09872e-05 0)
(0.00154914 -3.31223e-05 0)
(0.00189961 1.88926e-06 0)
(0.00190263 -3.31092e-06 0)
(0.00189482 4.03521e-06 0)
(0.00189807 -1.00801e-06 0)
(0.00188075 6.06751e-06 0)
(0.00188407 9.76402e-07 0)
(0.00185766 7.44811e-06 0)
(0.00186094 2.34831e-06 0)
(0.001826 8.02591e-06 0)
(0.00182925 2.91002e-06 0)
(0.00178653 7.42906e-06 0)
(0.00178982 2.30416e-06 0)
(0.00174045 4.98995e-06 0)
(0.00174383 -1.73096e-08 0)
(0.00168928 -2.66214e-09 0)
(0.00169272 -4.65779e-06 0)
(0.00163464 -7.98219e-06 0)
(0.00163799 -1.20356e-05 0)
(0.00157814 -1.91033e-05 0)
(0.00158118 -2.23346e-05 0)
(0.00190472 2.64278e-06 0)
(0.00190841 -3.25224e-06 0)
(0.00190069 5.99165e-06 0)
(0.00190438 2.72598e-07 0)
(0.00188745 9.10702e-06 0)
(0.00189103 3.37442e-06 0)
(0.00186566 1.13779e-05 0)
(0.0018691 5.6658e-06 0)
(0.00183609 1.25408e-05 0)
(0.00183949 6.86802e-06 0)
(0.00179969 1.22139e-05 0)
(0.00180319 6.61596e-06 0)
(0.00175764 9.91561e-06 0)
(0.00176133 4.50017e-06 0)
(0.00171135 5.22486e-06 0)
(0.00171519 1.66268e-07 0)
(0.00166234 -2.15161e-06 0)
(0.00166618 -6.63949e-06 0)
(0.00161213 -1.24515e-05 0)
(0.00161581 -1.61329e-05 0)
(0.00191221 3.10588e-06 0)
(0.00191659 -3.20719e-06 0)
(0.00190894 7.14876e-06 0)
(0.0019131 9.91788e-07 0)
(0.0018968 1.08235e-05 0)
(0.00190069 4.67445e-06 0)
(0.00187669 1.3486e-05 0)
(0.00188037 7.38475e-06 0)
(0.00184952 1.48247e-05 0)
(0.00185316 8.80505e-06 0)
(0.00181631 1.4501e-05 0)
(0.00182008 8.60517e-06 0)
(0.00177821 1.21633e-05 0)
(0.0017822 6.48285e-06 0)
(0.00173653 7.52669e-06 0)
(0.00174072 2.21294e-06 0)
(0.00169262 4.11993e-07 0)
(0.00169691 -4.34403e-06 0)
(0.00164768 -9.24747e-06 0)
(0.00165193 -1.32903e-05 0)
(0.0019224 3.32192e-06 0)
(0.0019275 -3.17796e-06 0)
(0.00191988 7.5863e-06 0)
(0.0019245 1.22801e-06 0)
(0.00190896 1.13687e-05 0)
(0.00191318 5.04879e-06 0)
(0.00189068 1.40329e-05 0)
(0.00189463 7.78579e-06 0)
(0.001866 1.52559e-05 0)
(0.0018699 9.11095e-06 0)
(0.00183593 1.4742e-05 0)
(0.00183997 8.73909e-06 0)
(0.00180157 1.22223e-05 0)
(0.00180585 6.44479e-06 0)
(0.00176412 7.5134e-06 0)
(0.00176864 2.09235e-06 0)
(0.00172476 5.47524e-07 0)
(0.00172944 -4.36579e-06 0)
(0.00168452 -8.66661e-06 0)
(0.00168926 -1.29589e-05 0)
(0.00193547 3.34885e-06 0)
(0.00194127 -3.13672e-06 0)
(0.00193364 7.47617e-06 0)
(0.00193872 1.14213e-06 0)
(0.00192399 1.10428e-05 0)
(0.0019285 4.79328e-06 0)
(0.00190756 1.34428e-05 0)
(0.00191174 7.29341e-06 0)
(0.00188531 1.43551e-05 0)
(0.00188942 8.31647e-06 0)
(0.00185821 1.35237e-05 0)
(0.00186245 7.62509e-06 0)
(0.00182729 1.07441e-05 0)
(0.0018318 5.06054e-06 0)
(0.00179366 5.89573e-06 0)
(0.00179843 5.46257e-07 0)
(0.00175834 -1.03824e-06 0)
(0.00176333 -5.92513e-06 0)
(0.00172217 -9.99678e-06 0)
(0.0017273 -1.43492e-05 0)
(0.00195147 3.25711e-06 0)
(0.00195793 -3.04676e-06 0)
(0.00195026 7.03719e-06 0)
(0.00195575 9.29689e-07 0)
(0.00194185 1.02077e-05 0)
(0.00194662 4.25414e-06 0)
(0.00192722 1.22024e-05 0)
(0.00193156 6.3876e-06 0)
(0.00190726 1.27035e-05 0)
(0.00191149 7.0101e-06 0)
(0.00188288 1.14885e-05 0)
(0.00188724 5.92701e-06 0)
(0.00185506 8.40544e-06 0)
(0.00185969 3.03512e-06 0)
(0.00182479 3.39187e-06 0)
(0.00182973 -1.68893e-06 0)
(0.00179298 -3.51691e-06 0)
(0.00179821 -8.20518e-06 0)
(0.00176037 -1.22381e-05 0)
(0.00176584 -1.64795e-05 0)
(0.00197029 3.12237e-06 0)
(0.00197736 -2.86819e-06 0)
(0.00196966 6.50001e-06 0)
(0.0019755 7.93623e-07 0)
(0.00196246 9.235e-06 0)
(0.0019674 3.78265e-06 0)
(0.00194952 1.08015e-05 0)
(0.00195395 5.54841e-06 0)
(0.00193166 1.08841e-05 0)
(0.00193593 5.77812e-06 0)
(0.00190971 9.28893e-06 0)
(0.00191409 4.31504e-06 0)
(0.0018846 5.91238e-06 0)
(0.00188926 1.10606e-06 0)
(0.00185725 7.34442e-07 0)
(0.00186225 -3.82883e-06 0)
(0.00182846 -6.1934e-06 0)
(0.00183381 -1.04306e-05 0)
(0.00179885 -1.47809e-05 0)
(0.00180454 -1.86586e-05 0)
(0.00199172 3.01955e-06 0)
(0.00199932 -2.55892e-06 0)
(0.00199168 6.08754e-06 0)
(0.00199778 9.31603e-07 0)
(0.00198563 8.47992e-06 0)
(0.00199069 3.71289e-06 0)
(0.00197428 9.70837e-06 0)
(0.00197873 5.2298e-06 0)
(0.00195831 9.45469e-06 0)
(0.00196254 5.17692e-06 0)
(0.00193851 7.5451e-06 0)
(0.00194281 3.42451e-06 0)
(0.00191573 3.91784e-06 0)
(0.00192029 -4.35091e-08 0)
(0.00189082 -1.39833e-06 0)
(0.00189576 -5.16394e-06 0)
(0.00186456 -8.30456e-06 0)
(0.00186991 -1.18308e-05 0)
(0.00183757 -1.66848e-05 0)
(0.00184335 -1.99547e-05 0)
(0.00201546 3.02317e-06 0)
(0.00202348 -2.06884e-06 0)
(0.00201602 6.01774e-06 0)
(0.00202233 1.54307e-06 0)
(0.0020111 8.28051e-06 0)
(0.00201623 4.36592e-06 0)
(0.0020012 9.35759e-06 0)
(0.00200565 5.85022e-06 0)
(0.00198695 8.93014e-06 0)
(0.00199109 5.71082e-06 0)
(0.00196903 6.84166e-06 0)
(0.00197317 3.84399e-06 0)
(0.00194823 3.06415e-06 0)
(0.0019526 2.53783e-07 0)
(0.00192538 -2.33497e-06 0)
(0.00193012 -4.97331e-06 0)
(0.00190123 -9.24219e-06 0)
(0.00190645 -1.16974e-05 0)
(0.00187646 -1.75622e-05 0)
(0.00188218 -1.97898e-05 0)
(0.00204108 3.21268e-06 0)
(0.00204939 -1.31343e-06 0)
(0.00204227 6.51869e-06 0)
(0.00204875 2.85422e-06 0)
(0.00203842 8.95487e-06 0)
(0.00204364 6.06127e-06 0)
(0.0020299 1.01233e-05 0)
(0.00203434 7.78438e-06 0)
(0.00201719 9.74486e-06 0)
(0.00202124 7.80971e-06 0)
(0.00200094 7.69875e-06 0)
(0.0020049 6.08719e-06 0)
(0.00198185 3.9617e-06 0)
(0.00198597 2.62346e-06 0)
(0.00196067 -1.39688e-06 0)
(0.00196516 -2.52132e-06 0)
(0.00193815 -8.21414e-06 0)
(0.00194315 -9.19552e-06 0)
(0.00191504 -1.63041e-05 0)
(0.00192064 -1.71731e-05 0)
(0.00206793 3.67653e-06 0)
(0.00207644 -1.33719e-07 0)
(0.0020697 7.75746e-06 0)
(0.0020764 5.10149e-06 0)
(0.00206697 1.06973e-05 0)
(0.00207232 9.03258e-06 0)
(0.0020598 1.22548e-05 0)
(0.00206424 1.13123e-05 0)
(0.00204851 1.22599e-05 0)
(0.00205246 1.1859e-05 0)
(0.00203368 1.06366e-05 0)
(0.0020375 1.06708e-05 0)
(0.00201602 7.34737e-06 0)
(0.00202 7.74833e-06 0)
(0.00199627 2.39469e-06 0)
(0.00200058 3.10551e-06 0)
(0.00197505 -4.10405e-06 0)
(0.00197985 -3.19069e-06 0)
(0.00195311 -1.18382e-05 0)
(0.0019585 -1.0941e-05 0)
(0.00209489 4.40775e-06 0)
(0.00210375 1.5139e-06 0)
(0.00209731 9.45543e-06 0)
(0.00210441 8.1991e-06 0)
(0.00209589 1.33619e-05 0)
(0.00210146 1.31942e-05 0)
(0.00209005 1.59636e-05 0)
(0.00209463 1.66448e-05 0)
(0.00207997 1.70682e-05 0)
(0.00208403 1.84621e-05 0)
(0.00206629 1.65335e-05 0)
(0.00207021 1.84804e-05 0)
(0.00204979 1.43103e-05 0)
(0.00205391 1.66435e-05 0)
(0.0020313 1.03971e-05 0)
(0.00203583 1.30092e-05 0)
(0.00201155 4.78142e-06 0)
(0.00201652 7.66431e-06 0)
(0.00199109 -2.49145e-06 0)
(0.00199637 6.38985e-07 0)
(0.0021198 4.3054e-06 0)
(0.00212967 2.63305e-06 0)
(0.00212435 1.05449e-05 0)
(0.00213236 1.05805e-05 0)
(0.00212413 1.67605e-05 0)
(0.00213088 1.81747e-05 0)
(0.00211924 2.19317e-05 0)
(0.00212502 2.44698e-05 0)
(0.00211016 2.54513e-05 0)
(0.00211531 2.88852e-05 0)
(0.00209758 2.70521e-05 0)
(0.00210244 3.11437e-05 0)
(0.00208226 2.6627e-05 0)
(0.00208713 3.11235e-05 0)
(0.00206502 2.41977e-05 0)
(0.0020702 2.88488e-05 0)
(0.00204673 1.99087e-05 0)
(0.0020524 2.45485e-05 0)
(0.00202822 1.40072e-05 0)
(0.00203423 1.86499e-05 0)
(0.00132166 -0.000311339 0)
(0.00132887 -0.00026517 0)
(0.00127119 -0.000323073 0)
(0.00128115 -0.000290272 0)
(0.00122705 -0.000333615 0)
(0.00123778 -0.000306228 0)
(0.00118573 -0.000344191 0)
(0.00119632 -0.000318032 0)
(0.00114531 -0.000355016 0)
(0.00115559 -0.000328314 0)
(0.00110508 -0.000366093 0)
(0.00111519 -0.00033835 0)
(0.00106496 -0.000377342 0)
(0.00107512 -0.000348638 0)
(0.00102511 -0.000388674 0)
(0.00103551 -0.000359283 0)
(0.000985719 -0.000400024 0)
(0.000996509 -0.000370247 0)
(0.000946937 -0.000411366 0)
(0.000958232 -0.000381454 0)
(0.000908853 -0.000422702 0)
(0.000920739 -0.000392847 0)
(0.000871498 -0.00043406 0)
(0.000884054 -0.000404398 0)
(0.000834872 -0.00044548 0)
(0.00084818 -0.000416107 0)
(0.000798958 -0.000457015 0)
(0.000813115 -0.000428002 0)
(0.000763739 -0.00046873 0)
(0.000778866 -0.00044013 0)
(0.000729211 -0.000480704 0)
(0.000745456 -0.00045256 0)
(0.000695377 -0.00049305 0)
(0.000712938 -0.0004654 0)
(0.000662267 -0.000505948 0)
(0.00068139 -0.000478823 0)
(0.000629983 -0.000519625 0)
(0.000650915 -0.000492902 0)
(0.000598783 -0.000534035 0)
(0.000622659 -0.000509392 0)
(0.00136207 -0.000246892 0)
(0.00137683 -0.000217477 0)
(0.0013174 -0.0002567 0)
(0.00133051 -0.000226536 0)
(0.0012742 -0.000266319 0)
(0.00128619 -0.000236541 0)
(0.00123304 -0.000275545 0)
(0.00124439 -0.00024684 0)
(0.0011938 -0.000284567 0)
(0.00120485 -0.000257138 0)
(0.00115613 -0.000293636 0)
(0.0011671 -0.000267347 0)
(0.00111965 -0.000302914 0)
(0.00113068 -0.000277493 0)
(0.00108407 -0.000312469 0)
(0.00109528 -0.000287651 0)
(0.00104922 -0.000322308 0)
(0.00106071 -0.000297905 0)
(0.00101502 -0.000332409 0)
(0.00102688 -0.000308326 0)
(0.000981432 -0.000342747 0)
(0.00099378 -0.000318965 0)
(0.000948497 -0.000353298 0)
(0.000961427 -0.000329857 0)
(0.000916261 -0.00036406 0)
(0.000929883 -0.000341024 0)
(0.000884791 -0.000375046 0)
(0.000899226 -0.000352486 0)
(0.000854167 -0.000386295 0)
(0.00086955 -0.000364263 0)
(0.00082447 -0.00039787 0)
(0.000840964 -0.00037638 0)
(0.000795787 -0.00040987 0)
(0.000813591 -0.00038889 0)
(0.000768213 -0.000422443 0)
(0.000787554 -0.000401853 0)
(0.000741864 -0.00043574 0)
(0.000762947 -0.000415199 0)
(0.000716756 -0.000449739 0)
(0.000740207 -0.000430439 0)
(0.00137609 -0.000185373 0)
(0.00139348 -0.000168338 0)
(0.00134228 -0.000193339 0)
(0.00135811 -0.000175628 0)
(0.00130873 -0.000201865 0)
(0.00132301 -0.000183161 0)
(0.00127531 -0.000210688 0)
(0.00128831 -0.000191054 0)
(0.00124206 -0.000219656 0)
(0.00125418 -0.00019937 0)
(0.00120914 -0.000228704 0)
(0.00122077 -0.000208108 0)
(0.00117669 -0.000237825 0)
(0.00118817 -0.000217224 0)
(0.00114483 -0.000247048 0)
(0.00115643 -0.000226669 0)
(0.00111365 -0.000256415 0)
(0.00112555 -0.000236405 0)
(0.00108317 -0.000265968 0)
(0.00109551 -0.000246409 0)
(0.00105342 -0.000275738 0)
(0.0010663 -0.000256671 0)
(0.00102443 -0.000285749 0)
(0.00103794 -0.000267186 0)
(0.000996225 -0.000296021 0)
(0.00101045 -0.000277959 0)
(0.000968851 -0.000306574 0)
(0.000983879 -0.000289001 0)
(0.000942373 -0.000317432 0)
(0.000958306 -0.000300326 0)
(0.000916865 -0.000328624 0)
(0.000933823 -0.000311954 0)
(0.000892422 -0.000340189 0)
(0.000910539 -0.000323918 0)
(0.000869167 -0.000352189 0)
(0.000888578 -0.000336266 0)
(0.000847235 -0.000364715 0)
(0.000868067 -0.000349039 0)
(0.000826623 -0.000377874 0)
(0.000848732 -0.000362191 0)
(0.00140012 -0.000133721 0)
(0.00141799 -0.00012171 0)
(0.00137179 -0.00014146 0)
(0.00138814 -0.000128883 0)
(0.00134354 -0.00014949 0)
(0.00135853 -0.000136273 0)
(0.00131538 -0.00015772 0)
(0.00132924 -0.000143893 0)
(0.00128733 -0.000166145 0)
(0.00130034 -0.000151772 0)
(0.00125938 -0.000174763 0)
(0.00127188 -0.000159965 0)
(0.00123162 -0.000183566 0)
(0.00124389 -0.000168499 0)
(0.00120413 -0.000192551 0)
(0.00121645 -0.000177373 0)
(0.00117703 -0.000201722 0)
(0.00118959 -0.000186576 0)
(0.0011504 -0.000211092 0)
(0.00116337 -0.000196089 0)
(0.00112432 -0.000220672 0)
(0.00113781 -0.000205905 0)
(0.00109889 -0.000230451 0)
(0.001113 -0.000216013 0)
(0.00107423 -0.000240446 0)
(0.00108903 -0.000226396 0)
(0.00105041 -0.000250679 0)
(0.00106597 -0.000237035 0)
(0.00102753 -0.00026117 0)
(0.00104391 -0.000247909 0)
(0.00100567 -0.000271948 0)
(0.00102296 -0.00025902 0)
(0.000984886 -0.00028305 0)
(0.00100317 -0.0002704 0)
(0.000965244 -0.000294519 0)
(0.000984623 -0.00028211 0)
(0.000946774 -0.000306437 0)
(0.000967424 -0.000294282 0)
(0.000929464 -0.000318909 0)
(0.000951626 -0.000306867 0)
(0.00143012 -9.40143e-05 0)
(0.00144789 -8.6007e-05 0)
(0.00140592 -0.000101619 0)
(0.00142236 -9.29968e-05 0)
(0.00138168 -0.000109477 0)
(0.00139691 -0.000100153 0)
(0.00135742 -0.000117501 0)
(0.00137154 -0.000107499 0)
(0.00133321 -0.00012546 0)
(0.00134666 -0.000115122 0)
(0.00130913 -0.000133573 0)
(0.00132224 -0.000123007 0)
(0.00128521 -0.000141896 0)
(0.00129821 -0.000131159 0)
(0.00126149 -0.000150438 0)
(0.00127457 -0.000139592 0)
(0.001238 -0.000159182 0)
(0.00125139 -0.000148315 0)
(0.0012148 -0.000168082 0)
(0.00122875 -0.000157291 0)
(0.00119233 -0.000177315 0)
(0.00120668 -0.000166565 0)
(0.00117036 -0.000186795 0)
(0.00118523 -0.00017613 0)
(0.00114902 -0.000196496 0)
(0.00116446 -0.000185976 0)
(0.00112844 -0.000206409 0)
(0.00114447 -0.000196096 0)
(0.00110876 -0.000216525 0)
(0.00112545 -0.000206496 0)
(0.00109012 -0.000226851 0)
(0.00110759 -0.000217157 0)
(0.00107259 -0.000237432 0)
(0.00109094 -0.000228052 0)
(0.00105621 -0.000248322 0)
(0.00107556 -0.000239218 0)
(0.00104099 -0.000259616 0)
(0.0010615 -0.000250776 0)
(0.00102696 -0.000271444 0)
(0.00104885 -0.000262681 0)
(0.00146316 -6.59164e-05 0)
(0.00148083 -6.06164e-05 0)
(0.00144166 -7.33261e-05 0)
(0.00145842 -6.73472e-05 0)
(0.00141981 -8.08785e-05 0)
(0.0014359 -7.41581e-05 0)
(0.00140069 -8.80292e-05 0)
(0.00141436 -8.13575e-05 0)
(0.00137946 -9.54861e-05 0)
(0.00139303 -8.85803e-05 0)
(0.00135842 -0.00010298 0)
(0.00137195 -9.60129e-05 0)
(0.00133765 -0.000110606 0)
(0.00135121 -0.000103696 0)
(0.00131727 -0.000118385 0)
(0.00133094 -0.000111629 0)
(0.00129746 -0.000126384 0)
(0.00131124 -0.000119829 0)
(0.00127662 -0.000136714 0)
(0.00129121 -0.000128491 0)
(0.00125692 -0.000145335 0)
(0.00127195 -0.000137512 0)
(0.00123791 -0.000154242 0)
(0.00125351 -0.00014678 0)
(0.0012196 -0.000163379 0)
(0.0012359 -0.000156207 0)
(0.00120202 -0.000172651 0)
(0.00121807 -0.000165945 0)
(0.00118558 -0.000182258 0)
(0.00120247 -0.000175761 0)
(0.00117008 -0.000192032 0)
(0.00118774 -0.000185699 0)
(0.00115555 -0.000202059 0)
(0.00117401 -0.000195845 0)
(0.00114207 -0.000212375 0)
(0.0011614 -0.000206269 0)
(0.00112968 -0.00022306 0)
(0.00115002 -0.000217063 0)
(0.00111847 -0.000234209 0)
(0.00113998 -0.000228175 0)
(0.00149741 -4.55204e-05 0)
(0.00151515 -4.31359e-05 0)
(0.00147835 -5.21806e-05 0)
(0.00149572 -4.9506e-05 0)
(0.00146259 -5.94487e-05 0)
(0.00147704 -5.62325e-05 0)
(0.00144424 -6.65428e-05 0)
(0.00145842 -6.28525e-05 0)
(0.0014259 -7.36884e-05 0)
(0.00143989 -6.96574e-05 0)
(0.00140765 -8.10271e-05 0)
(0.00142155 -7.67243e-05 0)
(0.00138954 -8.85958e-05 0)