/*--------------------------------*- C++ -*----------------------------------*\
| =========                 |                                                 |
| \\      /  F ield         | OpenFOAM: The Open Source CFD Toolbox           |
|  \\    /   O peration     | Version:  v2012                                 |
|   \\  /    A nd           | Website:  www.openfoam.com                      |
|    \\/     M anipulation  |                                                 |
\*---------------------------------------------------------------------------*/
FoamFile
{
    version     2.0;
    format      ascii;
    class       volVectorField;
    location    "6";
    object      D;
}
// * * * * * * * * * * * * * * * * * * * * * * * * * * * * * * * * * * * * * //

dimensions      [0 1 0 0 0 0 0];


internalField   nonuniform List<vector> 
1896
(
(0.00288863 -3.75323e-05 0)
(0.00270294 -0.000217972 0)
(0.00282557 -1.26095e-05 0)
(0.000661001 -0.000995318 0)
(0.00284754 -3.51677e-05 0)
(0.00282032 -3.83363e-05 0)
(0.00060238 -0.00104496 0)
(0.0026253 -3.78499e-05 0)
(0.00182793 -0.000168607 0)
(0.00261174 -2.59035e-05 0)
(0.00292612 -5.92532e-06 0)
(0.00226453 -2.59865e-05 0)
(0.00235423 -1.7569e-05 0)
(0.00228518 -2.21872e-05 0)
(0.000733549 -0.000915942 0)
(0.000249296 -0.00132057 0)
(0.0023567 -0.0002693 0)
(0.000482286 -0.00116152 0)
(0.00219213 -0.000236215 0)
(0.00139335 -0.000713785 0)
(0.00209365 -0.000194791 0)
(0.00262428 -0.000159625 0)
(0.00112748 -0.000558814 0)
(0.00106638 -0.000598959 0)
(0.00260538 -0.000221804 0)
(0.00263538 -0.000211957 0)
(0.0023551 -1.23201e-05 0)
(0.0023982 -1.37277e-05 0)
(0.00290568 -3.23904e-05 0)
(0.00194948 -0.000234964 0)
(0.00198913 -0.000224742 0)
(0.00269079 -0.000263935 0)
(0.00222162 -1.92514e-05 0)
(0.0027092 -0.00022584 0)
(0.00152513 -0.000424052 0)
(0.00296124 -3.70081e-05 0)
(0.0020551 -0.000219053 0)
(0.00282638 -0.000140641 0)
(0.000423978 -0.00119962 0)
(0.00188729 -0.00024082 0)
(0.00266316 -0.000298001 0)
(0.00105877 -0.000827059 0)
(0.00205287 -0.000142976 0)
(0.001229 -0.000518822 0)
(0.00239135 -9.76415e-06 0)
(0.00236976 -8.45371e-06 0)
(0.000662023 -0.00098023 0)
(0.00292709 -1.56143e-05 0)
(0.00112256 -0.000572643 0)
(0.000591452 -0.00103133 0)
(0.00281489 -1.80155e-05 0)
(0.00270113 -3.97116e-05 0)
(0.00267708 -3.75215e-05 0)
(0.00263842 -0.000163441 0)
(0.00179442 -0.000178867 0)
(0.00250134 -0.000318004 0)
(0.00154618 -0.000297848 0)
(0.00294101 -4.41071e-05 0)
(0.00288639 -0.000114562 0)
(0.00206023 -0.000343673 0)
(0.00263208 -3.08897e-05 0)
(0.000646401 -0.000979222 0)
(0.000683481 -0.000938031 0)
(0.00273899 -7.79066e-05 0)
(0.00148284 -0.000717552 0)
(0.00266457 -0.000288638 0)
(0.00133356 -0.000447934 0)
(0.00219001 -4.98222e-05 0)
(0.00279514 -0.000130676 0)
(0.0012941 -0.000474171 0)
(0.0022663 -5.52716e-06 0)
(0.000795962 -0.000835822 0)
(0.00279824 -0.00013704 0)
(0.00252652 -0.000320221 0)
(0.00148249 -0.000446589 0)
(0.00266568 -0.000211359 0)
(0.00266817 -0.000222662 0)
(0.00283098 -7.90558e-05 0)
(0.00281062 -8.6391e-05 0)
(0.00240653 -0.000133476 0)
(0.00114168 -0.000807043 0)
(0.0011572 -0.000543864 0)
(0.00247448 -1.07093e-05 0)
(0.0025097 -4.35409e-05 0)
(0.00252561 -3.85079e-05 0)
(0.0023264 -0.000180175 0)
(0.0022696 -7.20141e-05 0)
(0.0022644 -6.5325e-05 0)
(0.0016148 -0.000265878 0)
(0.00212053 -0.00010271 0)
(0.00239828 -9.1554e-05 0)
(0.000144339 -0.00120333 0)
(0.00198175 -9.64941e-05 0)
(0.000764416 -0.000994474 0)
(0.0010253 -0.000626358 0)
(0.0026092 -0.00019142 0)
(0.00283439 -0.000174879 0)
(0.0030047 -2.30683e-05 0)
(0.00282513 -0.000196283 0)
(0.00211251 -7.71284e-05 0)
(0.00210434 -8.50991e-05 0)
(0.002184 -4.84887e-05 0)
(0.00273375 -7.22343e-05 0)
(0.00195535 -0.000106215 0)
(0.00180174 -0.000167904 0)
(0.00207371 -0.000129352 0)
(0.00235645 -0.00017901 0)
(0.00108933 -0.00064372 0)
(0.00126797 -0.000462833 0)
(7.22609e-05 -0.00123665 0)
(0.00301085 -2.46247e-05 0)
(0.00284471 -0.000182511 0)
(0.00141412 -0.000374175 0)
(0.00158014 -0.000277119 0)
(0.000591154 -0.00111868 0)
(0.00224296 -8.07054e-05 0)
(0.00250735 -5.63401e-06 0)
(0.00228291 -9.33919e-05 0)
(0.00127939 -0.000577169 0)
(0.00201455 -0.000232395 0)
(0.00122335 -0.000596446 0)
(0.00182525 -0.000174199 0)
(0.00280027 -0.000151841 0)
(0.00248025 -2.60338e-05 0)
(0.00247936 -2.21992e-05 0)
(0.00162502 -0.000265836 0)
(0.00112045 -0.000607309 0)
(0.00259943 -3.96333e-05 0)
(0.00217966 -0.000296042 0)
(0.00204116 -9.28999e-05 0)
(0.00201407 -9.96291e-05 0)
(0.00239651 -9.91562e-05 0)
(0.00136563 -0.00040203 0)
(0.00084 -0.000967757 0)
(0.00222034 -0.000238191 0)
(0.000669602 -0.000944157 0)
(0.00087546 -0.000833276 0)
(0.000796169 -0.000891564 0)
(0.002697 -0.000274016 0)
(0.00174861 -0.000255017 0)
(0.00273806 -0.000147343 0)
(0.00126881 -0.000474103 0)
(0.00186423 -0.000239598 0)
(0.000235877 -0.0013543 0)
(0.00248168 -6.95379e-05 0)
(0.00238654 -0.000220054 0)
(0.0024249 -0.000217262 0)
(0.00215165 -0.000291526 0)
(0.000994649 -0.000648463 0)
(0.00228075 -8.61371e-05 0)
(0.00236749 -1.94976e-05 0)
(0.00279721 -0.000182755 0)
(0.00272065 -0.000146302 0)
(0.00272664 -9.805e-05 0)
(0.0026796 -9.91814e-05 0)
(0.00144347 -0.000350773 0)
(0.00248847 -5.70304e-06 0)
(0.00143634 -0.000355816 0)
(0.000525963 -0.00114369 0)
(0.0027165 -2.42175e-05 0)
(0.00272295 -3.54673e-05 0)
(0.00130654 -0.000505107 0)
(0.00179313 -0.000195833 0)
(0.00286768 -0.000109128 0)
(0.000161931 -0.00134945 0)
(0.00259066 -2.76173e-05 0)
(2.39176e-05 -0.00146786 0)
(0.00294555 -3.61551e-05 0)
(0.00295362 -3.13868e-05 0)
(0.00276717 -0.000197473 0)
(0.00277141 -0.000206334 0)
(0.00263299 -0.000283864 0)
(0.0022093 -2.47755e-05 0)
(0.00222347 -2.26469e-05 0)
(0.000774147 -0.000901677 0)
(0.000717168 -0.000946706 0)
(0.00104801 -0.000624143 0)
(0.00260701 -0.000201161 0)
(0.0029409 -1.09492e-05 0)
(0.00187953 -0.000135624 0)
(0.00220751 -2.46898e-05 0)
(0.0020549 -0.000314789 0)
(0.0027424 -0.000101662 0)
(0.0010371 -0.000628073 0)
(0.000746116 -0.000910496 0)
(0.00011992 -0.00135659 0)
(0.00216011 -7.48875e-05 0)
(0.000361376 -0.00125129 0)
(0.00214809 -5.06771e-05 0)
(0.00211637 -7.10437e-05 0)
(0.000911365 -0.000792789 0)
(0.00294236 -1.91365e-05 0)
(0.00131534 -0.000445708 0)
(0.000655507 -0.000891336 0)
(0.00131613 -0.000748366 0)
(0.00219755 -3.60631e-05 0)
(0.0020821 -0.000142937 0)
(0.00129465 -0.000475062 0)
(0.0022188 -3.24831e-05 0)
(0.00247656 -1.46881e-05 0)
(0.00224158 -6.46326e-05 0)
(0.00122441 -0.000743405 0)
(0.00292973 -2.34236e-05 0)
(0.00269453 -0.000104201 0)
(0.000384283 -0.00123241 0)
(0.00269592 -8.99152e-05 0)
(0.00117328 -0.000536074 0)
(0.00160093 -0.000355441 0)
(0.00216179 -2.33993e-05 0)
(0.00249675 -0.00030858 0)
(0.00135558 -0.000481901 0)
(0.00208579 -0.000220973 0)
(0.00248896 -0.000253115 0)
(0.00249955 -0.000262232 0)
(0.00227128 -3.34897e-05 0)
(0.00190519 -0.0001243 0)
(0.00124683 -0.000686265 0)
(0.00180585 -0.000344797 0)
(0.00185044 -0.000336494 0)
(0.00192725 -0.000228132 0)
(0.00209032 -8.84452e-05 0)
(0.00264776 -0.000103414 0)
(0.000811921 -0.000771425 0)
(0.00122443 -0.000491771 0)
(0.00286163 -0.000159527 0)
(0.00179196 -0.000238928 0)
(0.000886903 -0.000845721 0)
(0.00243553 -0.000195225 0)
(0.000118926 -0.00143055 0)
(0.00271927 -0.000248636 0)
(0.000109363 -0.00144754 0)
(0.00267722 -3.20948e-05 0)
(0.00269456 -2.54732e-05 0)
(0.00302695 -1.26604e-05 0)
(0.00282213 -0.000224466 0)
(0.00264288 -6.12216e-05 0)
(0.00221703 -4.57621e-05 0)
(0.00121393 -0.000567322 0)
(0.000221929 -0.00134906 0)
(0.00209356 -0.000340424 0)
(0.000955049 -0.000805825 0)
(0.00108478 -0.000627073 0)
(0.00227392 -3.73944e-05 0)
(0.00025728 -0.00132259 0)
(0.0026354 -0.000150932 0)
(0.0022362 -2.7673e-05 0)
(0.00291317 -0.000102592 0)
(0.0022564 -2.38487e-05 0)
(0.00226244 -1.87055e-05 0)
(0.00164296 -0.000337808 0)
(0.00156484 -0.000418422 0)
(0.00201522 -0.000154782 0)
(0.00271405 -0.00024061 0)
(0.00298475 -1.0822e-05 0)
(0.00275821 -0.000256802 0)
(0.00258306 -0.000122521 0)
(0.00205245 -7.35346e-05 0)
(0.000279719 -0.00132065 0)
(0.000742154 -0.000887094 0)
(0.00153362 -0.000401214 0)
(0.00220706 -0.000313209 0)
(0.00206161 -0.000212648 0)
(0.00204813 -0.000192287 0)
(0.00225876 -5.20457e-05 0)
(0.0023312 -0.000281115 0)
(0.00174999 -0.000190833 0)
(3.82072e-05 -0.00147459 0)
(0.00208195 -7.46538e-05 0)
(0.00203862 -0.000330036 0)
(0.00259896 -0.000114573 0)
(0.002096 -7.76391e-05 0)
(0.00219431 -1.50322e-05 0)
(0.000626897 -0.000922282 0)
(0.00229283 -1.54314e-05 0)
(0.00235116 -0.000255693 0)
(0.00208921 -5.98166e-05 0)
(0.00130515 -0.000441521 0)
(0.00294164 -6.7598e-05 0)
(0.00250758 -0.000122345 0)
(0.00290211 -6.30535e-06 0)
(0.00263309 -0.000292523 0)
(0.00156867 -0.000358748 0)
(0.0021468 -4.05456e-05 0)
(0.00268712 -0.000297851 0)
(0.00245547 -0.000186217 0)
(0.000280924 -0.00130809 0)
(0.0023378 -0.000146577 0)
(0.00224769 -8.80933e-05 0)
(0.0023919 -0.000126971 0)
(0.00294197 -2.35267e-06 0)
(0.000201351 -0.00136367 0)
(0.00215577 -0.000222222 0)
(0.00207093 -0.00020264 0)
(0.00230858 -0.000156294 0)
(3.60004e-05 -0.00139099 0)
(0.00227654 -3.03201e-06 0)
(0.000267415 -0.00128639 0)
(0.00221855 -7.09643e-05 0)
(0.000361837 -0.00125131 0)
(0.00201176 -0.000160838 0)
(0.000346337 -0.0012697 0)
(0.00205116 -0.000199095 0)
(0.000973458 -0.000666046 0)
(0.00060008 -0.0010386 0)
(0.00266194 -0.000129843 0)
(0.00255957 -6.98328e-05 0)
(0.00253396 -6.98677e-05 0)
(0.00217322 -3.13724e-05 0)
(0.00218001 -3.11737e-05 0)
(0.00253838 -0.000118383 0)
(0.00285152 -0.000109174 0)
(0.00214386 -0.000102424 0)
(0.00224929 -1.95854e-05 0)
(0.00298083 -2.58056e-05 0)
(0.00279602 -0.000204874 0)
(0.00216239 -0.000279587 0)
(0.0025888 -2.6844e-06 0)
(0.00282845 -0.000131226 0)
(0.00198734 -0.000157177 0)
(0.00282981 -0.00010457 0)
(0.00245636 -7.06189e-05 0)
(0.000501931 -0.00108193 0)
(0.000448772 -0.00113051 0)
(0.00190449 -0.000159557 0)
(0.0021156 -5.10343e-05 0)
(0.0021098 -0.000120448 0)
(0.00198527 -0.000150836 0)
(0.00216537 -3.61981e-05 0)
(0.00286199 -5.39848e-05 0)
(0.00273322 -0.000187766 0)
(0.00212261 -0.000110814 0)
(0.00223635 -0.000342295 0)
(0.00298818 -1.33155e-05 0)
(0.00276978 -0.000244543 0)
(0.00261427 -1.97739e-05 0)
(0.00211961 -0.000146195 0)
(0.00224584 -3.66933e-05 0)
(0.000962338 -0.000670218 0)
(0.00286328 -4.90906e-05 0)
(0.00272083 -0.000197525 0)
(0.00178362 -0.000191064 0)
(0.00206482 -0.000160699 0)
(0.00186258 -0.000204476 0)
(0.00182724 -0.000156219 0)
(0.00239601 -2.16717e-05 0)
(0.00215946 -0.000249457 0)
(0.00216138 -0.000208329 0)
(0.000690816 -0.00104298 0)
(0.00217874 -7.45967e-05 0)
(0.00212612 -0.000115313 0)
(0.00211686 -6.05194e-05 0)
(0.00284066 -6.06756e-05 0)
(0.00158464 -0.000311863 0)
(0.00228608 -0.000155477 0)
(0.00229602 -0.000254285 0)
(0.00212689 -0.000252103 0)
(0.0017403 -0.000544701 0)
(0.000491129 -0.00115116 0)
(0.00220613 -8.50091e-05 0)
(0.00125978 -0.000548432 0)
(0.00160963 -0.000288087 0)
(6.08788e-05 -0.0014022 0)
(0.000428663 -0.0011916 0)
(0.00197161 -0.000195271 0)
(0.00268771 -0.00019168 0)
(0.00237943 -0.000243599 0)
(0.00163257 -0.000282429 0)
(0.00167305 -0.000268627 0)
(0.00229478 -0.000120875 0)
(7.71801e-05 -0.00148265 0)
(0.000644774 -0.000989376 0)
(0.00229789 -1.87599e-05 0)
(0.00301707 -1.13505e-05 0)
(0.00280311 -0.000236947 0)
(0.00268914 -0.000201711 0)
(0.00201403 -8.52465e-05 0)
(0.000552653 -0.00112881 0)
(0.00156127 -0.000295541 0)
(0.00231121 -7.58583e-05 0)
(0.00220003 -7.96864e-05 0)
(0.00224058 -5.8555e-05 0)
(0.00272814 -0.000268863 0)
(0.00204806 -9.9426e-05 0)
(0.00281756 -0.000102215 0)
(0.00204084 -7.62452e-05 0)
(0.00296407 -5.93053e-05 0)
(0.00035887 -0.00124238 0)
(0.00271121 -0.000184919 0)
(0.00296523 -9.42048e-06 0)
(0.000365124 -0.0012378 0)
(0.00258761 -4.51457e-05 0)
(0.00284516 -4.66709e-05 0)
(0.000403164 -0.00113393 0)
(0.000845115 -0.00102262 0)
(0.00264446 -7.19085e-05 0)
(0.00209082 -7.05801e-05 0)
(0.00195171 -0.00028585 0)
(0.00163174 -0.000305412 0)
(0.0025728 -0.000144123 0)
(0.00256967 -0.000137301 0)
(0.00228238 -0.000131693 0)
(0.000100154 -0.00146842 0)
(0.00219675 -0.000326164 0)
(0.00226135 -3.15028e-06 0)
(0.0019462 -0.000276313 0)
(0.00167591 -0.000277536 0)
(0.00238782 -0.00014363 0)
(0.000840732 -0.000754367 0)
(0.00230392 -1.22492e-05 0)
(0.000313558 -0.00124248 0)
(0.00191314 -0.000139949 0)
(0.00244187 -3.12917e-05 0)
(0.00242614 -2.85592e-05 0)
(0.000249206 -0.0013521 0)
(0.00166777 -0.000308152 0)
(0.00167183 -0.000317142 0)
(0.00263436 -9.7459e-05 0)
(6.56474e-05 -0.00134375 0)
(0.00187966 -0.00015357 0)
(0.00255096 -5.68214e-05 0)
(0.00171136 -0.000213731 0)
(0.00302509 -5.5892e-06 0)
(0.00279707 -0.000257932 0)
(0.00080658 -0.00085943 0)
(0.00181438 -0.00023917 0)
(0.00213545 -9.26007e-05 0)
(0.00205796 -0.000100109 0)
(0.00203494 -0.000357838 0)
(0.000656341 -0.00101526 0)
(0.000598451 -0.00106218 0)
(0.00191005 -0.000272461 0)
(0.00162239 -0.000304522 0)
(0.00194099 -0.0001515 0)
(0.00250013 -0.000208853 0)
(0.00169104 -0.00023738 0)
(0.00171248 -0.000223758 0)
(0.00261083 -0.000283287 0)
(3.91361e-05 -0.00132888 0)
(0.00147271 -0.000408404 0)
(0.00285819 -0.000119039 0)
(0.00152481 -0.000372791 0)
(0.00199786 -0.000306963 0)
(0.00265272 -9.01704e-05 0)
(0.000218379 -0.00135951 0)
(0.00300352 -6.92781e-06 0)
(0.00277435 -0.000261229 0)
(0.00251822 -8.65907e-05 0)
(0.0026655 -5.82809e-05 0)
(0.00297689 -4.87842e-05 0)
(0.0022375 -0.000304984 0)
(0.000644327 -0.00091781 0)
(0.00242116 -0.00017433 0)
(0.00241509 -0.000165534 0)
(0.00266583 -7.24082e-05 0)
(0.0023595 -0.00014878 0)
(0.00246359 -2.99365e-05 0)
(0.00264723 -8.46873e-05 0)
(0.00181843 -0.000177518 0)
(0.00196215 -0.000322556 0)
(0.00238416 -4.8149e-05 0)
(0.00112407 -0.000587903 0)
(0.00267813 -0.000133412 0)
(0.00173194 -0.000253195 0)
(0.00200253 -0.000249997 0)
(0.00212781 -0.000207224 0)
(0.000515093 -0.00105312 0)
(0.00171581 -0.000283039 0)
(0.00175422 -0.000275587 0)
(0.00286994 -1.40958e-05 0)
(0.000756509 -0.00105086 0)
(0.00280243 -5.82282e-05 0)
(0.00230606 -3.55721e-05 0)
(0.00240294 -0.000196464 0)
(0.00266699 -0.00014362 0)
(0.0027751 -0.00015519 0)
(0.00243115 -8.49445e-05 0)
(0.00197775 -0.000200801 0)
(0.00219154 -9.5338e-06 0)
(0.00263686 -0.000183656 0)
(3.46111e-05 -0.00149337 0)
(0.00233058 -0.000100864 0)
(0.00263314 -1.72434e-05 0)
(0.00246037 -8.68561e-05 0)
(0.00277977 -6.33556e-05 0)
(0.00230424 -6.91981e-05 0)
(0.000840572 -0.00074973 0)
(0.00229842 -3.37807e-05 0)
(0.00198054 -0.000299484 0)
(0.00235326 -0.000129258 0)
(0.00209809 -0.000309835 0)
(0.00167041 -0.000286149 0)
(0.00233362 -0.000136525 0)
(0.00217619 -0.000307252 0)
(0.00295913 -5.6129e-05 0)
(0.000482605 -0.00115214 0)
(0.000642966 -0.00107292 0)
(0.00247084 -0.000139326 0)
(0.00243309 -0.000228224 0)
(0.00238043 -2.57652e-05 0)
(0.00232425 -0.000250446 0)
(0.00276 -0.000179277 0)
(0.00247642 -0.000156215 0)
(0.00240613 -4.91547e-05 0)
(0.000866519 -0.000968085 0)
(0.00286094 -3.98189e-05 0)
(0.0021881 -3.00367e-05 0)
(0.00246279 -1.81779e-05 0)
(0.000984319 -0.000884689 0)
(0.00197822 -9.89647e-05 0)
(0.00190421 -0.000341821 0)
(0.00196511 -0.000105057 0)
(0.00174364 -0.000195548 0)
(0.00238272 -1.80775e-06 0)
(0.0028187 -6.20132e-05 0)
(0.000134919 -0.00144015 0)
(0.000333583 -0.00126035 0)
(0.00233522 -2.02469e-05 0)
(0.00244715 -0.000138614 0)
(0.00278234 -8.2235e-05 0)
(0.00276307 -8.26952e-05 0)
(0.00285459 -1.08915e-05 0)
(0.00279072 -0.000175191 0)
(0.000467725 -0.00107844 0)
(0.0027417 -3.80555e-05 0)
(0.000838697 -0.000766554 0)
(0.00215443 -6.5751e-05 0)
(0.00217389 -6.46815e-05 0)
(0.000859767 -0.000746592 0)
(0.00260626 -0.000143158 0)
(0.00263151 -0.000134172 0)
(0.00282665 -2.3232e-05 0)
(0.00267529 -0.000113958 0)
(0.00244698 -1.90119e-05 0)
(0.00200579 -0.000198403 0)
(0.00276325 -7.58505e-05 0)
(0.00242927 -2.40458e-05 0)
(0.00256161 -0.000309007 0)
(0.000104278 -0.00146675 0)
(0.00194439 -0.000386642 0)
(0.00157009 -0.000413508 0)
(0.000660482 -0.00108594 0)
(0.00221101 -5.3176e-06 0)
(0.00188145 -0.000206195 0)
(0.0024195 -5.74491e-05 0)
(0.00240199 -5.56686e-05 0)
(0.00207195 -9.42738e-05 0)
(0.00146233 -0.000371368 0)
(0.00228987 -4.09989e-05 0)
(0.00233902 -7.33017e-05 0)
(0.00254536 -8.37666e-05 0)
(0.00272184 -1.26365e-05 0)
(0.000933814 -0.000716611 0)
(0.00160981 -0.000272289 0)
(0.00173127 -0.000228338 0)
(0.00245551 -8.67401e-06 0)
(0.000250559 -0.00135247 0)
(0.00168735 -0.000245668 0)
(0.00154031 -0.000353265 0)
(0.00250676 -0.000150515 0)
(0.000354773 -0.00121569 0)
(0.000381038 -0.00116793 0)
(0.00254306 -0.000134814 0)
(0.0024371 -0.000299089 0)
(0.000356511 -0.00124874 0)
(0.00285059 -0.000135584 0)
(0.000175834 -0.00135287 0)
(0.00236811 -2.50989e-06 0)
(0.00237717 -0.00020926 0)
(0.00120491 -0.000681893 0)
(0.00230779 -9.26822e-05 0)
(0.00197505 -9.74222e-05 0)
(0.00223402 -2.44662e-05 0)
(0.00218644 -2.74143e-05 0)
(0.000464207 -0.0011763 0)
(0.00111764 -0.000719489 0)
(0.000826356 -0.000800499 0)
(0.00287045 -6.37055e-05 0)
(0.00190444 -0.000154083 0)
(0.00187009 -0.000346519 0)
(0.00263584 -6.73721e-05 0)
(0.00208498 -7.50045e-05 0)
(0.00150764 -0.000400393 0)
(0.00253712 -0.000204237 0)
(0.00203138 -7.81745e-05 0)
(0.00153681 -0.000300956 0)
(0.00164293 -0.000259323 0)
(0.00224194 -8.51596e-06 0)
(0.0022209 -1.43429e-05 0)
(0.00217079 -4.04104e-05 0)
(0.00121552 -0.000514587 0)
(0.000789335 -0.000835151 0)
(0.000478857 -0.00115152 0)
(0.00148886 -0.000332076 0)
(0.00222733 -1.42622e-05 0)
(0.00042708 -0.00119534 0)
(0.00242691 -3.27086e-06 0)
(0.00251762 -0.000139321 0)
(0.0017967 -0.000257369 0)
(0.00154593 -0.000343086 0)
(0.00213043 -8.26057e-05 0)
(0.00197224 -0.000336492 0)
(0.00033108 -0.00127797 0)
(1.41252e-05 -0.00149137 0)
(6.12888e-05 -0.00137382 0)
(0.000983339 -0.000738417 0)
(0.000556791 -0.0010679 0)
(0.00158208 -0.000377737 0)
(0.00161781 -0.00037369 0)
(0.00256983 -4.38317e-06 0)
(0.00285722 -2.89899e-05 0)
(0.0025609 -9.50496e-05 0)
(0.00251822 -2.13298e-06 0)
(0.00254435 -5.02716e-05 0)
(0.000121088 -0.00134253 0)
(0.00218258 -3.00116e-05 0)
(0.00288218 -0.000122813 0)
(0.00228215 -4.99904e-05 0)
(0.000428277 -0.00119544 0)
(0.00148847 -0.000327717 0)
(0.00232099 -2.06896e-05 0)
(0.0022158 -1.8041e-05 0)
(0.0016988 -0.000362237 0)
(0.00201515 -0.000116666 0)
(0.000739006 -0.00084788 0)
(0.00215777 -5.08927e-05 0)
(0.00263066 -0.00011176 0)
(0.000686415 -0.000890148 0)
(0.000785399 -0.000857986 0)
(0.002199 -3.23268e-05 0)
(0.00251456 -0.00016747 0)
(0.00227531 -1.54482e-05 0)
(0.000363044 -0.00121193 0)
(0.00229672 -0.00028282 0)
(0.00131328 -0.000440913 0)
(0.00145643 -0.000439338 0)
(0.00283068 -9.28716e-05 0)
(0.00281069 -9.28673e-05 0)
(0.00207195 -0.000154146 0)
(0.00128498 -0.000459763 0)
(0.00202661 -8.48039e-05 0)
(0.00264591 -4.82282e-05 0)
(0.00264791 -4.20746e-05 0)
(0.000788029 -0.000860814 0)
(0.00057608 -0.00105547 0)
(0.00246023 -0.000301759 0)
(0.00161505 -0.000369892 0)
(0.00199172 -0.000283309 0)
(0.00290296 -2.75134e-05 0)
(0.000721019 -0.000893068 0)
(0.00243039 -0.000276817 0)
(0.00211425 -0.000298142 0)
(0.00238695 -4.35923e-05 0)
(0.00182237 -0.000378353 0)
(0.00179818 -0.000171218 0)
(0.000579608 -0.000997797 0)
(0.00254342 -0.000101505 0)
(0.00134081 -0.000449039 0)
(0.00194573 -0.0001319 0)
(0.00158243 -0.000344418 0)
(0.00136727 -0.000458388 0)
(0.0025652 -0.000266106 0)
(0.0027321 -0.000203274 0)
(0.0024825 -0.000202164 0)
(0.00146869 -0.000380157 0)
(0.00132431 -0.000476489 0)
(0.00144809 -0.000352611 0)
(0.00272558 -0.000172915 0)
(0.00284771 -2.37436e-05 0)
(0.00194149 -0.000213019 0)
(0.00219339 -0.000223006 0)
(0.00197988 -0.000129564 0)
(0.00248121 -8.2026e-05 0)
(0.00185825 -0.000223396 0)
(0.00171705 -0.000205767 0)
(0.00258427 -0.000187674 0)
(0.000154078 -0.00137016 0)
(0.000399982 -0.0011665 0)
(0.000466179 -0.001157 0)
(0.00229816 -9.46812e-06 0)
(0.00258154 -6.38761e-05 0)
(0.0026888 -0.000240347 0)
(0.00236638 -0.000328797 0)
(2.49044e-05 -0.00141971 0)
(0.00210207 -5.74158e-05 0)
(0.00188573 -0.000139967 0)
(0.00190661 -0.000128773 0)
(0.00239844 -0.000323415 0)
(0.00280513 -3.53047e-05 0)
(0.00112205 -0.000584858 0)
(0.00221332 -0.000185555 0)
(0.00219512 -0.000179796 0)
(0.00136084 -0.000456337 0)
(0.0023503 -0.000338578 0)
(0.000456293 -0.00116335 0)
(0.00260191 -0.000231493 0)
(0.0026442 -0.000233353 0)
(0.00255923 -0.000286943 0)
(0.00239555 -0.000185938 0)
(0.000536133 -0.00109732 0)
(0.00257653 -0.000293547 0)
(0.0029903 -3.15293e-05 0)
(0.00188548 -0.00013423 0)
(0.00227675 -0.000278014 0)
(0.0022773 -0.000264637 0)
(0.00191598 -0.000122218 0)
(0.00181738 -0.000220635 0)
(0.00249316 -0.000173516 0)
(0.00137746 -0.000460893 0)
(0.00236207 -5.89445e-06 0)
(0.000971188 -0.000722722 0)
(0.00162423 -0.000279204 0)
(0.00256363 -3.43229e-05 0)
(0.00165141 -0.000263164 0)
(0.00220655 -0.000337073 0)
(0.000410334 -0.00119736 0)
(0.00281062 -8.92666e-06 0)
(0.000363961 -0.00122405 0)
(0.000529073 -0.00110047 0)
(0.00158805 -0.000422308 0)
(0.00242025 -0.000331261 0)
(0.00245565 -9.59423e-05 0)
(0.00248141 -0.000275643 0)
(0.00048593 -0.00104655 0)
(0.00230514 -6.45679e-06 0)
(0.00117486 -0.000522216 0)
(0.00226336 -1.22842e-05 0)
(0.00303425 -7.24323e-06 0)
(0.0028147 -0.000245685 0)
(0.00250838 -0.000297995 0)
(0.00115496 -0.00053501 0)
(0.00236577 -0.00023229 0)
(0.00240242 -5.92372e-06 0)
(0.00199541 -0.000282729 0)
(0.00242231 -6.74591e-06 0)
(0.000158785 -0.00142469 0)
(0.000712349 -0.00089369 0)
(0.00266502 -0.000191146 0)
(7.51915e-05 -0.00146623 0)
(0.00213498 -0.000196103 0)
(0.00224894 -1.57961e-05 0)
(0.00198708 -9.96763e-05 0)
(0.00152483 -0.000353994 0)
(0.00272934 -1.77138e-05 0)
(0.00234466 -5.12976e-06 0)
(0.00196465 -0.000230876 0)
(0.00284778 -6.56806e-05 0)
(0.00205293 -8.01289e-05 0)
(0.000207544 -0.00128926 0)
(0.00173163 -0.000199439 0)
(0.00278219 -9.97432e-05 0)
(0.0015242 -0.000382269 0)
(0.00214951 -0.00013885 0)
(0.00158174 -0.000342431 0)
(0.00239821 -0.000282616 0)
(0.00244359 -2.33374e-06 0)
(6.82123e-05 -0.00147805 0)
(0.00100721 -0.000683131 0)
(0.0027537 -0.000166566 0)
(0.00114476 -0.000557652 0)
(0.000184375 -0.00131081 0)
(0.00181858 -0.000187428 0)
(0.0009785 -0.000700056 0)
(0.00211083 -0.00016837 0)
(0.00233706 -7.56852e-06 0)
(0.00214653 -8.70878e-05 0)
(0.00159013 -0.000317864 0)
(0.00212726 -0.000124448 0)
(0.000820396 -0.000856228 0)
(0.000900822 -0.000747976 0)
(0.00166358 -0.000552517 0)
(0.00183322 -0.000154845 0)
(0.000865952 -0.000750132 0)
(0.000908493 -0.000774321 0)
(0.00181684 -0.0001637 0)
(0.0024421 -0.000130497 0)
(0.00192807 -0.000161239 0)
(0.0019448 -0.000160709 0)
(0.00217173 -4.29235e-05 0)
(0.00166958 -0.000403428 0)
(0.00217074 -4.62744e-05 0)
(0.00158886 -0.0003057 0)
(0.00157271 -0.000319052 0)
(0.000562647 -0.001052 0)
(0.00258664 -7.76662e-05 0)
(0.0022874 -5.89095e-05 0)
(0.00252361 -1.97811e-05 0)
(0.00253855 -1.65353e-05 0)
(0.00272094 -0.000134523 0)
(0.000539873 -0.00110666 0)
(0.00206185 -7.30592e-05 0)
(0.000906118 -0.000712064 0)
(0.00140159 -0.000407348 0)
(0.00274597 -5.89174e-05 0)
(0.00162392 -0.00063402 0)
(0.00270179 -1.17737e-05 0)
(0.00260578 -7.43846e-05 0)
(0.00155315 -0.000305905 0)
(0.00194417 -0.00013803 0)
(0.0022998 -3.24782e-06 0)
(0.00249012 -7.53723e-05 0)
(0.00273832 -0.000154026 0)
(0.00243159 -7.83353e-05 0)
(0.00212695 -5.99343e-05 0)
(0.00277728 -0.000105627 0)
(0.00207925 -0.000115474 0)
(0.00294195 -4.72843e-05 0)
(0.00187968 -0.000224165 0)
(0.00166501 -0.000232295 0)
(0.00162922 -0.000250271 0)
(0.00220373 -1.03387e-05 0)
(0.0021347 -0.000147775 0)
(0.00241644 -1.29259e-05 0)
(0.00288477 -2.62114e-05 0)
(0.00244801 -0.000205901 0)
(0.00260765 -0.000150264 0)
(0.000334583 -0.00124204 0)
(0.00276985 -1.46959e-05 0)
(0.0020138 -0.000137825 0)
(0.00271489 -5.05723e-05 0)
(0.000719476 -0.000842693 0)
(0.00154548 -0.000293469 0)
(0.00211278 -5.20229e-05 0)
(0.00157068 -0.000279568 0)
(0.00029003 -0.00131529 0)
(0.00213473 -0.000111026 0)
(0.00260352 -6.37382e-05 0)
(0.0027504 -5.90503e-06 0)
(0.00265989 -0.000248545 0)
(0.00191631 -0.000357406 0)
(0.00186999 -0.000270882 0)
(0.00154274 -0.000638554 0)
(0.00238633 -1.73527e-05 0)
(0.000768455 -0.000821173 0)
(0.00241398 -2.04865e-05 0)
(0.0025523 -0.000210381 0)
(0.000138912 -0.00143829 0)
(0.00256286 -8.95534e-06 0)
(0.00249936 -0.000190221 0)
(0.00173314 -0.000358425 0)
(0.00227725 -0.000107967 0)
(0.00230456 -0.000101525 0)
(0.0025857 -0.000313595 0)
(0.00240805 -0.000242425 0)
(0.00254055 -0.000267532 0)
(0.00200261 -0.000337269 0)
(0.00272921 -0.000126298 0)
(0.00201404 -9.07782e-05 0)
(0.0028917 -5.26196e-05 0)
(0.000605167 -0.000966997 0)
(0.00221383 -8.55925e-06 0)
(0.00244872 -0.00017494 0)
(0.00247044 -0.000168571 0)
(0.00290207 -7.47106e-05 0)
(0.00205109 -7.43316e-05 0)
(0.00226212 -0.000307902 0)
(0.0022351 -5.05658e-06 0)
(0.000966479 -0.000991127 0)
(0.00200383 -0.000233661 0)
(0.0022017 -0.000198427 0)
(0.00229126 -3.58979e-06 0)
(0.00248868 -0.000219295 0)
(0.000880052 -0.000755128 0)
(0.000894961 -0.000715917 0)
(0.000942472 -0.000680954 0)
(0.00240795 -0.000308547 0)
(0.00271298 -0.000117027 0)
(0.00285799 -9.70199e-05 0)
(0.00268544 -0.000119149 0)
(0.00141741 -0.000381422 0)
(0.00240704 -0.000119872 0)
(0.0024601 -0.000227052 0)
(0.00141731 -0.000400479 0)
(0.00226498 -0.000334149 0)
(0.00193058 -0.000328482 0)
(0.00198496 -0.000102032 0)
(0.00195783 -0.0001082 0)
(0.00245168 -4.31101e-05 0)
(0.000715285 -0.000974273 0)
(0.00276709 -0.000169996 0)
(0.00129498 -0.000819465 0)
(0.0020113 -0.000208873 0)
(0.00117056 -0.000544497 0)
(0.00293462 -7.42414e-05 0)
(0.00183121 -0.000188619 0)
(0.00265475 -2.84159e-05 0)
(0.00253047 -6.22452e-05 0)
(0.000935951 -0.000687432 0)
(0.00217151 -3.96386e-05 0)
(0.000909714 -0.000702858 0)
(0.00211264 -0.000244743 0)
(0.00212083 -0.000232271 0)
(0.000771916 -0.000930134 0)
(0.00258454 -3.41157e-05 0)
(0.00301232 -1.68797e-05 0)
(0.00279026 -0.000217788 0)
(0.00281547 -0.000216097 0)
(0.00298656 -2.1591e-05 0)
(0.00177423 -0.00047115 0)
(0.00244677 -6.55031e-05 0)
(0.00292337 -6.8661e-05 0)
(0.00216236 -3.87183e-05 0)
(0.00214124 -4.7343e-05 0)
(0.00159017 -0.000443221 0)
(0.00146705 -0.000350225 0)
(0.000922417 -0.000721255 0)
(0.00201058 -0.000140895 0)
(0.00140096 -0.00063318 0)
(0.00232938 -0.00016831 0)
(0.00188799 -0.000260237 0)
(0.0014042 -0.000429652 0)
(0.0014246 -0.000423579 0)
(0.00273419 -0.000110902 0)
(0.00171559 -0.000273722 0)
(0.00115589 -0.000535987 0)
(0.000267264 -0.00130908 0)
(0.00179387 -0.000283832 0)
(0.00179269 -0.000297066 0)
(0.00276952 -1.06255e-05 0)
(0.00118911 -0.000513445 0)
(0.0022433 -3.30168e-05 0)
(0.00273219 -6.22964e-06 0)
(4.03773e-05 -0.0014519 0)
(0.00113534 -0.000622153 0)
(0.00257948 -0.000257275 0)
(0.00222989 -0.000211725 0)
(0.00124607 -0.000528562 0)
(0.0021353 -4.45775e-05 0)
(0.00214962 -4.03796e-05 0)
(0.00242538 -0.000100737 0)
(0.00277633 -4.82211e-05 0)
(0.00184912 -0.000462551 0)
(0.000436019 -0.00118897 0)
(0.00236133 -0.000189133 0)
(0.00193212 -0.000250648 0)
(0.00223088 -0.000108001 0)
(0.00221238 -0.00010589 0)
(0.00290157 -1.67388e-05 0)
(0.00119936 -0.000553571 0)
(0.000172779 -0.00141089 0)
(8.67305e-05 -0.00143883 0)
(0.00191505 -0.000195637 0)
(0.0014128 -0.000396896 0)
(0.00196788 -0.000325125 0)
(0.00197694 -0.000137213 0)
(0.00206552 -8.57868e-05 0)
(0.00221684 -9.79078e-05 0)
(0.00190274 -0.000125983 0)
(0.00196712 -0.000260678 0)
(0.00134784 -0.000409583 0)
(0.00233938 -0.000106609 0)
(0.000346085 -0.00120741 0)
(0.00185219 -0.000156759 0)
(0.00140112 -0.000377335 0)
(0.00182617 -0.000164614 0)
(0.00137869 -0.000395213 0)
(0.00178632 -0.00037601 0)
(0.00229877 -2.58392e-05 0)
(0.00132228 -0.000425374 0)
(0.00229495 -2.93958e-05 0)
(0.00244813 -0.000282593 0)
(0.00204999 -0.000175765 0)
(0.0016855 -0.00027165 0)
(0.00270688 -5.7146e-05 0)
(0.000322758 -0.00127122 0)
(0.000433539 -0.00117968 0)
(0.00204223 -0.000186213 0)
(0.000955887 -0.000672992 0)
(0.0027102 -7.30161e-05 0)
(0.00275574 -6.41949e-05 0)
(0.0013816 -0.000424715 0)
(0.00293492 -3.01263e-05 0)
(0.00280511 -5.33994e-05 0)
(0.00111665 -0.000588817 0)
(0.00243056 -4.3059e-05 0)
(0.00219478 -2.29283e-05 0)
(0.00178154 -0.00036444 0)
(0.0025952 -0.000177424 0)
(0.00214262 -5.48496e-05 0)
(2.53264e-05 -0.00150324 0)
(0.00244139 -5.47588e-05 0)
(0.00202859 -0.000281254 0)
(0.00211457 -0.00035152 0)
(0.000304094 -0.00127107 0)
(0.00284294 -2.45807e-06 0)
(0.00194596 -0.00035393 0)
(0.0011277 -0.000909597 0)
(0.00210301 -0.000106903 0)
(0.00268282 -8.62505e-05 0)
(0.000416309 -0.00120232 0)
(0.000537499 -0.00110131 0)
(0.00178673 -0.000231507 0)
(0.00211231 -6.1575e-05 0)
(0.00205485 -0.000265969 0)
(0.00202093 -0.000270283 0)
(0.00246299 -0.000254726 0)
(0.00188339 -0.000272941 0)
(0.0013134 -0.000432105 0)
(0.00272867 -2.91105e-05 0)
(0.00200843 -9.79212e-05 0)
(0.00195215 -0.000120402 0)
(0.00108566 -0.000599741 0)
(0.00225288 -4.34959e-05 0)
(0.0019187 -0.000132637 0)
(0.00230015 -4.32845e-05 0)
(0.0014721 -0.000335038 0)
(0.00224225 -2.76453e-06 0)
(0.000310818 -0.00129105 0)
(0.00213007 -8.3793e-05 0)
(0.000236639 -0.00132032 0)
(0.00255189 -0.000193228 0)
(0.0029157 -4.21648e-05 0)
(0.00289371 -4.26032e-05 0)
(0.00109669 -0.000588448 0)
(0.0022319 -0.000199845 0)
(0.00274118 -0.000219337 0)
(0.000259668 -0.00133911 0)
(0.000219457 -0.00137162 0)
(0.00203543 -0.00030162 0)
(0.0020618 -8.4827e-05 0)
(0.00101562 -0.000938895 0)
(0.00256982 -1.23979e-05 0)
(0.00222118 -2.67963e-06 0)
(0.00260798 -5.18918e-06 0)
(0.00226379 -4.53062e-05 0)
(0.000109901 -0.00139503 0)
(0.00236575 -6.72841e-05 0)
(0.00237102 -6.08352e-05 0)
(0.00234203 -3.56929e-05 0)
(0.00191553 -0.000127194 0)
(0.00180048 -0.00027303 0)
(0.0009269 -0.000710441 0)
(0.00229308 -5.35601e-05 0)
(0.00161518 -0.000388578 0)
(0.00265835 -0.000269373 0)
(0.00155274 -0.00029501 0)
(0.00153373 -0.000308842 0)
(0.00126569 -0.000514712 0)
(0.000736821 -0.000898768 0)
(0.00297118 -2.15857e-05 0)
(0.00276792 -0.000226559 0)
(0.00181888 -0.000195247 0)
(0.00102835 -0.000717924 0)
(0.00186442 -0.000175852 0)
(0.00289311 -5.6725e-05 0)
(0.00268523 -0.000171558 0)
(0.00271455 -0.000166242 0)
(0.00110467 -0.000660888 0)