/*--------------------------------*- C++ -*----------------------------------*\
| =========                 |                                                 |
| \\      /  F ield         | OpenFOAM: The Open Source CFD Toolbox           |
|  \\    /   O peration     | Version:  v2012                                 |
|   \\  /    A nd           | Website:  www.openfoam.com                      |
|    \\/     M anipulation  |                                                 |
\*---------------------------------------------------------------------------*/
FoamFile
{
    version     2.0;
    format      ascii;
    class       volSymmTensorField;
    location    "6";
    object      sigma;
}
// * * * * * * * * * * * * * * * * * * * * * * * * * * * * * * * * * * * * * //

dimensions      [1 -1 -2 0 0 0 0];


internalField   nonuniform List<symmTensor> 
1896
(
(7.85786e+07 -3.56738e+06 4.68633e-09 1.85945e+07 1.39926e-09 2.94086e+07)
(8.20324e+07 -3.23065e+06 4.61981e-09 2.57112e+06 2.37504e-09 2.50701e+07)
(7.71116e+07 -1.84245e+06 0 1.72948e+07 0 2.80636e+07)
(1.48425e+08 1.50849e+07 1.10921e-09 -2.15074e+06 -3.60709e-10 4.39748e+07)
(7.76951e+07 -3.80782e+06 4.28996e-09 1.75352e+07 2.65974e-09 2.87429e+07)
(7.7651e+07 -4.63696e+06 -1.45003e-09 1.64544e+07 -1.38999e-09 2.82328e+07)
(1.49316e+08 1.53183e+07 -2.24244e-08 -3.40446e+06 -1.91426e-08 4.37716e+07)
(7.13436e+07 -6.81413e+06 -4.16136e-09 1.36102e+07 -9.72445e-10 2.55098e+07)
(6.17258e+07 -2.72401e+07 2.53675e-09 -2.21527e+07 2.33894e-09 1.30207e+07)
(6.95028e+07 -5.10217e+06 8.26237e-09 1.39962e+07 4.16441e-10 2.49601e+07)
(7.86067e+07 -690714 2.13165e-09 2.13971e+07 -6.73437e-10 3.00226e+07)
(4.64719e+07 -1.48511e+07 -6.95027e-09 6.46556e+06 -4.86013e-10 1.69091e+07)
(5.2197e+07 -8.87445e+06 4.34324e-09 1.02285e+07 1.6996e-09 1.76712e+07)
(4.85011e+07 -1.22703e+07 -6.02572e-11 7.15612e+06 -1.42304e-09 1.61185e+07)
(1.39535e+08 1.49168e+07 9.04466e-10 -9.61269e+06 1.44084e-09 4.05642e+07)
(9.28863e+07 7.81822e+06 2.63558e-09 1.05474e+06 -3.2313e-09 2.89554e+07)
(8.97267e+07 -7.19764e+06 -1.41751e-08 1.00292e+06 -2.37143e-10 2.77244e+07)
(1.96167e+08 -5.76685e+06 1.43305e-08 1.91032e+07 8.18033e-09 6.72129e+07)
(9.35667e+07 -1.25824e+07 8.07516e-09 1.68932e+06 2.54151e-09 2.8821e+07)
(7.38435e+07 -4.14244e+07 -2.68876e-08 2.06873e+07 3.33769e-09 1.87425e+07)
(-8.67215e+06 1.77762e+07 1.19982e-09 -8.33817e+07 -9.79084e-09 -2.98951e+07)
(8.19623e+07 -9.04309e+06 -1.72476e-09 6.89656e+06 2.69225e-09 2.64191e+07)
(1.3493e+08 -1.17951e+06 1.33191e-08 -3.16431e+06 8.39657e-09 3.98055e+07)
(1.35455e+08 -312978 -4.40151e-09 -1.34208e+06 -2.55647e-09 4.07073e+07)
(8.34287e+07 -5.64996e+06 5.61767e-09 2.687e+06 -5.55606e-10 2.62779e+07)
(8.27188e+07 -5.68618e+06 -3.0698e-10 3.61797e+06 -2.39823e-09 2.5848e+07)
(4.82142e+07 -6.70883e+06 2.85695e-09 1.03855e+07 -1.29861e-09 1.87611e+07)
(5.46755e+07 -6.40212e+06 -3.64344e-09 1.15604e+07 -8.06556e-10 1.91564e+07)
(7.95081e+07 -2.7041e+06 5.51638e-10 1.92299e+07 -9.20511e-10 2.92519e+07)
(9.90823e+07 -1.50135e+07 -4.51598e-09 539425 -3.85251e-09 3.07898e+07)
(9.85533e+07 -1.59589e+07 -3.90684e-09 802699 1.08017e-09 2.89154e+07)
(8.14272e+07 -1.13349e+06 6.89874e-09 581525 1.82287e-09 2.4451e+07)
(2.95555e+07 -1.37454e+07 -2.84178e-09 -1.29561e+06 2.55468e-10 9.98907e+06)
(8.12859e+07 -2.39112e+06 0 2.10883e+06 0 2.53303e+07)
(1.31859e+08 -2.99481e+06 1.03345e-08 -126446 3.79979e-09 3.94184e+07)
(8.02685e+07 -1.90909e+06 1.31924e-08 2.01763e+07 2.55008e-09 3.05634e+07)
(9.56308e+07 -1.57111e+07 1.31235e-08 1.33281e+06 2.1529e-09 2.93344e+07)
(8.04982e+07 -2.90424e+06 -8.17834e-10 7.10331e+06 -5.39007e-12 2.5921e+07)
(1.94046e+08 -4.32418e+06 1.40639e-09 1.6955e+07 6.13885e-10 6.16916e+07)
(1.0128e+08 -1.51438e+07 1.46858e-08 914620 -1.5283e-09 3.02317e+07)
(8.05123e+07 -242110 1.25321e-08 200563 4.40548e-09 2.42743e+07)
(1.40835e+08 -3.24681e+07 -2.60465e-08 5.82341e+06 -6.5345e-09 3.84542e+07)
(8.46254e+07 -2.10952e+07 6.75837e-09 1.35489e+06 -2.39091e-09 2.5835e+07)
(1.18739e+08 -6.80614e+06 9.93957e-09 -2.30548e+07 5.29963e-09 2.7627e+07)
(5.11769e+07 -4.60428e+06 1.37599e-09 1.16335e+07 -7.76172e-10 1.98125e+07)
(5.08139e+07 -5.36669e+06 -4.3072e-09 1.04871e+07 -6.04613e-11 1.73291e+07)
(1.41571e+08 1.72179e+07 1.29531e-08 -6.11784e+06 1.14153e-08 3.92258e+07)
(7.89592e+07 -1.38404e+06 1.22978e-08 2.11494e+07 2.12068e-09 2.99019e+07)
(1.26319e+08 462386 9.87819e-09 -1.75974e+07 9.36163e-09 3.17406e+07)
(1.32628e+08 1.89938e+07 -6.32443e-09 -3.64321e+06 -7.27237e-09 3.73486e+07)
(7.61466e+07 -2.20199e+06 -2.09637e-09 1.73318e+07 9.5754e-10 2.82662e+07)
(7.3798e+07 -6.19547e+06 -3.73005e-09 1.43609e+07 1.76938e-09 2.70089e+07)
(7.34625e+07 -5.86401e+06 4.15652e-09 1.45006e+07 -1.03159e-09 2.57134e+07)
(8.18398e+07 -8.6508e+06 5.9723e-09 6.42068e+06 -3.60373e-09 2.67177e+07)
(6.97612e+07 -2.84561e+07 -1.44597e-08 -2.23819e+07 -6.63785e-09 1.42461e+07)
(8.39388e+07 -1.14524e+06 -7.51302e-09 304768 9.85346e-10 2.55269e+07)
(9.65534e+07 -2.11373e+07 -2.66967e-08 -2.26457e+07 -1.49691e-08 2.31544e+07)
(7.97221e+07 -2.8729e+06 -1.08055e-08 1.9358e+07 -5.71786e-11 3.00365e+07)
(8.04563e+07 -1.43633e+06 -5.24974e-09 7.72541e+06 -7.17666e-10 2.69389e+07)
(1.03632e+08 -2.35271e+06 -6.98262e-09 699761 4.41655e-09 3.18606e+07)
(7.08533e+07 -6.17156e+06 7.87818e-10 1.38881e+07 -1.14186e-09 2.54992e+07)
(1.31848e+08 1.76896e+07 -2.16778e-08 -5.22254e+06 -2.17654e-08 3.87256e+07)
(1.31877e+08 1.66114e+07 -6.18898e-09 -6.5537e+06 -2.13569e-09 3.76345e+07)
(7.82882e+07 -8.03392e+06 5.04127e-09 1.29534e+07 2.41039e-10 2.72117e+07)
(4.37663e+07 -3.53523e+07 -1.99034e-08 2.34234e+07 1.74691e-08 2.98631e+07)
(8.10484e+07 -594337 1.09051e-09 22099 -1.50654e-09 2.43762e+07)
(1.27911e+08 -5.88318e+06 9.70417e-09 -1.92694e+06 6.38464e-09 3.82998e+07)
(5.63469e+07 -2.02467e+07 5.66776e-09 3.84389e+06 2.68694e-09 1.90689e+07)
(8.0668e+07 -5.29888e+06 -4.46415e-09 8.75326e+06 -2.10156e-09 2.66577e+07)
(1.33177e+08 -3.64563e+06 -1.46374e-08 -1.88147e+06 -5.20555e-09 3.8871e+07)
(3.14602e+07 -3.63692e+06 -6.41432e-10 3.02049e+06 -5.24322e-10 8.44079e+06)
(1.33002e+08 1.36699e+07 2.07628e-08 -9.55682e+06 1.97252e-08 3.69573e+07)
(8.0397e+07 -4.43744e+06 5.01446e-09 8.11054e+06 2.25459e-09 2.65482e+07)
(8.35411e+07 -210477 5.49664e-09 -168259 4.76623e-10 2.50851e+07)
(1.3411e+08 -1.08921e+06 3.06607e-08 372728 5.43788e-09 3.98769e+07)
(8.24133e+07 -4.77741e+06 0 3.36991e+06 0 2.56214e+07)
(8.21563e+07 -3.86012e+06 -6.84533e-09 2.73252e+06 -3.08479e-09 2.56257e+07)
(7.96141e+07 -5.68468e+06 -5.39236e-09 1.39125e+07 -2.03166e-09 2.80741e+07)
(7.92745e+07 -6.42057e+06 5.2667e-10 1.33369e+07 -1.78727e-11 2.788e+07)
(8.07082e+07 -1.53721e+07 -6.45056e-10 6.42487e+06 3.81904e-09 2.68048e+07)
(1.20289e+08 -3.46772e+07 9.25358e-09 8.01418e+06 1.9829e-08 4.401e+07)
(1.34051e+08 -1.44265e+06 -1.25436e-08 -1.08536e+06 -7.61774e-09 4.03619e+07)
(5.88704e+07 -4.11681e+06 -1.47395e-09 1.30528e+07 -2.10819e-09 2.2388e+07)
(6.74458e+07 -9.90176e+06 -4.66177e-09 1.23134e+07 -8.36842e-10 2.42109e+07)
(6.79223e+07 -9.18816e+06 7.21335e-09 1.24483e+07 2.38914e-09 2.37005e+07)
(8.62035e+07 -1.44939e+07 -1.08825e-09 4.16231e+06 4.52316e-09 2.72046e+07)
(6.87937e+07 -1.89704e+07 1.55911e-08 6.76125e+06 5.27858e-09 2.26778e+07)
(6.62843e+07 -1.80084e+07 4.42122e-09 6.94007e+06 -7.70793e-10 2.20612e+07)
(8.80509e+07 -2.38366e+07 2.20816e-08 -2.42869e+07 1.22852e-08 2.05102e+07)
(7.55643e+07 -2.16894e+07 1.69482e-08 2.50672e+06 4.33719e-09 2.33925e+07)
(7.46151e+07 -1.56571e+07 -4.94684e-09 8.42877e+06 7.37518e-10 2.52087e+07)
(2.81221e+08 -1.12963e+07 0 4.38586e+06 0 1.08337e+08)
(5.18184e+07 -2.54608e+07 4.16149e-10 -1.44613e+07 -4.6119e-10 1.10821e+07)
(1.75546e+08 -2.13335e+07 -2.4338e-08 1.07142e+07 -1.40694e-08 5.18499e+07)
(1.40414e+08 1.18132e+06 -9.9653e-09 -1.73596e+06 -7.03088e-09 4.19581e+07)
(8.29114e+07 -7.64663e+06 -7.63496e-09 4.58963e+06 -2.07829e-09 2.64924e+07)
(8.0396e+07 -1.19356e+06 -1.15728e-08 2.41235e+06 -2.64893e-09 2.50676e+07)
(7.99068e+07 -1.06726e+06 -5.68146e-09 2.38091e+07 -6.31295e-10 3.09575e+07)
(8.04063e+07 -862261 -9.20728e-09 1.31331e+06 -6.45968e-09 2.44877e+07)
(6.56155e+07 -2.21239e+07 3.07397e-09 1.26061e+06 5.64312e-10 2.07982e+07)
(6.93631e+07 -2.30404e+07 8.40058e-09 871850 2.5904e-09 2.08767e+07)
(5.61241e+07 -1.99983e+07 6.33894e-09 2.42786e+06 2.74504e-09 1.72671e+07)
(7.7423e+07 -8.06576e+06 -1.84323e-09 1.34013e+07 -3.65053e-10 2.73757e+07)
(5.79942e+07 -2.82137e+07 8.40545e-10 -1.47449e+07 3.44163e-10 1.31836e+07)
(7.76354e+07 -2.67424e+07 9.57238e-09 -1.54137e+07 4.44937e-09 1.95451e+07)
(8.0961e+07 -2.0933e+07 -8.30588e-09 1.98896e+06 -9.91835e-10 2.54648e+07)
(8.59059e+07 -1.37019e+07 -8.18585e-09 4.42165e+06 -2.23848e-10 2.67926e+07)
(1.28894e+08 -5.83497e+06 -1.35672e-08 -2.26242e+07 -9.27065e-09 3.28995e+07)
(1.22556e+08 -5.62414e+06 -1.99568e-08 -8.58538e+06 -1.38026e-08 3.52758e+07)
(2.89118e+08 -8.69929e+06 -6.19256e-09 2.08093e+07 6.36474e-09 8.54651e+07)
(8.03111e+07 -237515 -7.43161e-10 2.29985e+07 -1.6169e-09 3.09808e+07)
(8.01658e+07 -217040 -5.08316e-09 1.78093e+06 -9.31646e-09 2.4747e+07)
(1.15468e+08 -1.09041e+07 -5.64858e-09 -1.07045e+07 -2.47068e-09 3.18043e+07)
(9.56259e+07 -1.96812e+07 -1.41867e-09 -1.97364e+07 -9.30513e-10 2.17419e+07)
(2.44335e+08 -4.70816e+07 8.10082e-09 1.93846e+07 2.00635e-09 6.84548e+07)
(7.1068e+07 -1.88224e+07 5.53359e-09 6.18017e+06 1.67337e-09 2.27399e+07)
(6.08499e+07 -1.73963e+06 8.25435e-09 1.35419e+07 9.93626e-10 2.29345e+07)
(7.44441e+07 -1.85189e+07 7.72389e-09 6.62554e+06 2.21379e-10 2.43728e+07)
(1.09564e+08 -1.58657e+07 1.74396e-08 -2.13995e+07 1.29286e-08 2.60319e+07)
(9.76906e+07 -1.44785e+07 9.85773e-09 1.27762e+06 3.691e-09 2.98901e+07)
(1.17404e+08 -1.69971e+07 0 -2.26527e+07 0 2.80249e+07)
(6.22792e+07 -2.70084e+07 -2.92799e-10 -2.59766e+07 -4.1614e-09 1.0281e+07)
(8.06349e+07 -3.79336e+06 6.33211e-09 6.05715e+06 2.79156e-09 2.61919e+07)
(6.32862e+07 -7.65052e+06 3.8691e-09 1.29052e+07 2.43985e-09 2.19111e+07)
(6.12861e+07 -7.23599e+06 -8.60765e-09 1.2626e+07 3.34561e-09 2.29439e+07)
(8.67308e+07 -2.20007e+07 -6.51187e-09 -2.59433e+07 3.69649e-10 1.80567e+07)
(1.27091e+08 -2.55523e+06 3.27621e-08 -2.22883e+07 2.9493e-08 3.01802e+07)
(7.06431e+07 -7.85786e+06 5.29092e-09 1.31968e+07 -2.07778e-09 2.5111e+07)
(9.74796e+07 -6.40056e+06 -6.29914e-09 320561 5.92359e-09 2.93984e+07)
(6.96822e+07 -2.3056e+07 -9.82294e-09 -760177 -2.91711e-09 1.96739e+07)
(6.93233e+07 -2.4185e+07 -1.00621e-08 -2.47402e+06 -2.58595e-09 2.10191e+07)
(7.62985e+07 -1.59088e+07 5.17823e-09 8.18675e+06 -3.28774e-10 2.50461e+07)
(1.17237e+08 -8.36371e+06 0 -8.94112e+06 0 3.17398e+07)
(1.66127e+08 -2.73639e+07 -2.44615e-08 9.40053e+06 -1.02047e-08 6.10107e+07)
(9.28933e+07 -1.15665e+07 1.17535e-09 1.89927e+06 4.02594e-09 2.85349e+07)
(1.30054e+08 1.58867e+07 -2.09361e-08 -5.38508e+06 -1.48024e-08 3.72884e+07)
(1.43817e+08 1.2231e+06 -1.70187e-08 -7.97344e+06 -1.23605e-08 3.92274e+07)
(1.51236e+08 8.09968e+06 -1.08855e-08 -9.352e+06 -5.06028e-09 4.08836e+07)
(8.07465e+07 -553575 -6.47372e-09 488523 -3.14896e-10 2.42866e+07)
(1.03823e+08 -1.5947e+07 1.11848e-08 -1.50061e+06 4.17369e-09 3.08829e+07)
(8.10782e+07 -6.46198e+06 1.05221e-10 7.37074e+06 -2.30761e-09 2.67381e+07)
(1.18287e+08 -7.85417e+06 -7.43128e-09 -2.17308e+07 -4.082e-09 2.77075e+07)
(1.02333e+08 -1.64327e+07 8.34436e-09 -412681 -2.17119e-09 3.02355e+07)
(1.28421e+08 1.70701e+07 -1.29438e-08 8.51894e+06 -8.51725e-09 4.05724e+07)
(7.23336e+07 -1.29798e+07 6.08391e-09 1.05164e+07 -8.25505e-10 2.45276e+07)
(8.75155e+07 -1.07328e+07 5.50769e-10 2.74768e+06 2.68392e-10 2.76341e+07)
(8.71328e+07 -1.02372e+07 -6.63238e-09 3.34377e+06 -4.29389e-10 2.6617e+07)
(9.83623e+07 -7.84597e+06 1.4658e-08 655100 4.02956e-10 2.96416e+07)
(1.31548e+08 3.45181e+06 -5.12754e-09 -4.17273e+06 -2.96683e-09 3.74793e+07)
(7.29774e+07 -1.80772e+07 0 6.79447e+06 0 2.36519e+07)
(5.2979e+07 -9.35215e+06 7.42343e-10 1.08934e+07 4.4222e-11 1.93314e+07)
(8.02743e+07 -2.09549e+06 4.11848e-09 3.56434e+06 -2.92166e-09 2.50631e+07)
(8.12656e+07 -7.03683e+06 0 7.7959e+06 0 2.64145e+07)
(7.92875e+07 -8.30792e+06 2.35837e-09 1.17171e+07 1.93618e-09 2.68547e+07)
(7.87071e+07 -9.50784e+06 -3.43375e-09 1.11658e+07 8.51199e-10 2.67337e+07)
(1.0775e+08 -1.4202e+07 1.22092e-08 -1.66575e+07 6.74071e-09 2.7331e+07)
(6.08841e+07 -1.99008e+06 2.41075e-10 1.27351e+07 -1.21231e-11 2.16957e+07)
(1.08342e+08 -1.33493e+07 -1.97474e-08 -1.94014e+07 -1.34862e-08 2.68574e+07)
(2.47578e+08 -5.66631e+07 1.44683e-08 1.8683e+07 -1.06331e-09 8.46579e+07)
(7.32671e+07 -3.96597e+06 6.4726e-09 1.53547e+07 3.59962e-10 2.66841e+07)
(7.48598e+07 -5.11618e+06 5.80562e-09 1.49434e+07 -6.83406e-10 2.65648e+07)
(1.40354e+08 -256404 -9.15928e-09 726574 -5.45578e-10 4.17923e+07)
(6.19342e+07 -2.82407e+07 -1.53544e-08 -2.68475e+07 -9.60191e-09 1.16878e+07)
(8.00896e+07 -2.96054e+06 -1.89978e-09 9.53114e+06 -1.25293e-09 2.7493e+07)
(1.69686e+08 6.01149e+06 2.80561e-09 2.20083e+07 -2.70268e-09 5.79546e+07)
(6.86722e+07 -6.25188e+06 3.47965e-09 1.36648e+07 1.1203e-09 2.47883e+07)
(1.04898e+08 -888419 -9.86717e-09 7.19119e+06 -2.32239e-10 3.4658e+07)
(7.94111e+07 -2.26974e+06 -4.16912e-11 2.08083e+07 1.18682e-10 3.00627e+07)
(7.973e+07 -2.31486e+06 4.56412e-09 2.07617e+07 2.75162e-09 3.07301e+07)
(8.1046e+07 -2.36462e+06 -2.10928e-09 2.6499e+06 5.72004e-09 2.50701e+07)
(8.07435e+07 -1.77357e+06 2.61005e-09 2.44182e+06 -6.38253e-10 2.45532e+07)
(8.20619e+07 -1.09776e+06 -4.81389e-09 302996 -2.71094e-09 2.44935e+07)
(3.69425e+07 -1.65142e+07 -5.04798e-09 -146323 -1.05358e-09 1.1097e+07)
(3.75051e+07 -1.44892e+07 4.24646e-09 2.41688e+06 2.33799e-10 1.15334e+07)
(1.45932e+08 8.96239e+06 -6.4564e-09 -9.42371e+06 -1.00318e-08 4.31844e+07)
(1.48011e+08 1.05882e+07 3.06253e-08 -7.75635e+06 2.55621e-08 4.23995e+07)
(1.28655e+08 4.65166e+06 2.91254e-08 -1.38998e+07 2.18211e-08 3.35553e+07)
(8.31327e+07 -7.32327e+06 -5.46154e-09 4.33677e+06 3.16876e-11 2.61072e+07)
(7.9566e+07 -1.00159e+06 4.92898e-09 2.12809e+07 4.1275e-10 3.03964e+07)
(6.8057e+07 -2.82389e+07 -1.3838e-08 -1.53709e+07 -5.47897e-09 1.6041e+07)
(3.45275e+07 -1.41426e+07 -4.5961e-09 -1.71825e+06 -1.1769e-09 8.91883e+06)
(1.03009e+08 -5.77172e+06 1.93396e-09 113639 -8.9887e-09 3.19153e+07)
(7.9338e+07 -8.12185e+06 1.14069e-08 1.11235e+07 3.92683e-09 2.7627e+07)
(1.28231e+08 3.28495e+06 -2.3593e-08 -1.25589e+07 -1.84613e-08 3.49766e+07)
(1.44143e+08 1.40211e+07 -3.29832e-09 -9.70986e+06 -1.09794e-09 3.98367e+07)
(1.6953e+08 4.83211e+06 2.50176e-09 3.18079e+07 3.0688e-09 5.7361e+07)
(6.78287e+07 -2.18147e+07 3.85667e-09 2.5995e+06 -4.60155e-10 2.11169e+07)
(1.24658e+08 1.97386e+07 -8.05253e-09 1.40558e+06 -6.7613e-09 3.62873e+07)
(-1.79879e+06 3.8777e+06 5.24221e-09 -1.06798e+08 6.57127e-09 -3.51314e+07)
(1.3345e+07 -1.65067e+07 -1.80814e-09 -3.33236e+07 -2.11235e-09 -6.18906e+06)
(1.41647e+08 3.09526e+06 4.34954e-08 -1.46467e+07 3.04835e-08 3.8216e+07)
(7.97115e+07 -1.7746e+06 6.28264e-09 2.11178e+07 2.14635e-09 3.03353e+07)
(1.12948e+08 -1.08411e+07 -2.86201e-08 -2.31349e+07 -1.91381e-08 2.81331e+07)
(1.36157e+08 864419 0 568330 0 4.10421e+07)
(8.59044e+07 -3.71311e+07 -1.26084e-08 1.9405e+07 1.52473e-08 3.39319e+07)
(4.66181e+07 -1.93233e+07 -5.48501e-09 1.70285e+06 -8.34592e-10 1.48993e+07)
(8.42606e+07 -1.97986e+07 -8.61439e-09 2.4313e+06 -2.50357e-09 2.59779e+07)
(1.1499e+08 -1.27135e+07 -4.06998e-09 -2.69251e+07 1.15818e-09 2.77329e+07)
(4.73936e+07 -1.66246e+07 4.41169e-09 3.7196e+06 1.59372e-09 1.49777e+07)
(6.09911e+07 -4.89701e+06 -3.94809e-09 1.31031e+07 -1.0705e-09 2.11931e+07)
(6.63745e+07 -1.93342e+07 1.22519e-08 5.86494e+06 -1.11081e-09 2.14265e+07)
(1.10783e+08 -3.58426e+07 1.5347e-08 918880 1.53751e-08 3.45407e+07)
(7.89755e+07 -1.88693e+06 -3.70355e-11 2.10681e+07 -1.01673e-09 2.99802e+07)
(7.92496e+07 -9.29555e+06 9.61643e-09 1.06125e+07 2.92141e-09 2.71718e+07)
(1.35989e+08 2.07517e+07 5.85228e-09 3.51027e+06 5.40254e-09 4.12016e+07)
(7.798e+07 -9.25813e+06 -4.26689e-09 1.16126e+07 4.91788e-10 2.73145e+07)
(1.22568e+08 -3.26773e+06 3.86911e-09 -1.87966e+07 1.63128e-09 3.15713e+07)
(1.19926e+08 -8.32027e+06 -9.50679e-09 49666.8 -1.9385e-09 3.609e+07)
(-5.25699e+06 3.3733e+06 1.18585e-08 -1.07809e+08 2.66058e-08 -2.79782e+07)
(8.49098e+07 -1.91136e+06 5.55401e-09 414353 4.07421e-09 2.53548e+07)
(1.39662e+08 -2.35314e+06 0 -1.01041e+06 0 4.10928e+07)
(9.52192e+07 -1.42979e+07 -1.33043e-08 1.95067e+06 -7.6981e-09 2.87443e+07)
(8.64477e+07 -6.36564e+06 7.53662e-09 1.80411e+06 6.99248e-10 2.60738e+07)
(8.55401e+07 -5.32853e+06 -8.72539e-10 1.2452e+06 -2.87602e-10 2.66041e+07)
(5.4105e+07 -1.50513e+07 -4.40162e-10 7.28708e+06 7.18827e-10 1.77947e+07)
(6.70431e+07 -2.56457e+07 9.84866e-09 -1.1967e+07 3.82802e-09 1.59775e+07)
(1.06467e+08 -2.18162e+07 -1.68917e-08 -7.02131e+06 -9.66422e-09 3.23656e+07)
(1.15013e+08 -5.73914e+06 -7.3503e-09 384054 -7.01458e-09 3.53333e+07)
(1.1421e+08 -6.17969e+06 -1.17999e-08 24320 -2.62523e-09 3.3238e+07)
(9.98088e+07 -1.64605e+07 -1.31917e-08 49533.5 -6.48629e-09 2.98038e+07)
(1.31575e+07 -1.68853e+07 1.79155e-08 -3.35796e+07 9.10418e-09 -5.06325e+06)
(7.86809e+07 -1.04533e+07 -1.32759e-08 1.02595e+07 -1.6253e-09 2.6957e+07)
(1.43017e+08 2.29942e+06 -1.38319e-08 -846415 -9.55874e-09 4.1733e+07)
(1.2582e+08 -2.84848e+06 1.41289e-08 -6.77285e+06 8.96357e-09 3.45053e+07)
(8.00949e+07 -308287 -1.68907e-09 3.63965e+06 -2.64656e-09 2.49834e+07)
(1.02478e+08 -1.69563e+07 1.56456e-08 -2.2117e+06 7.34675e-09 3.00913e+07)
(1.50675e+08 -4.95437e+06 0 -9.77251e+06 0 3.97322e+07)
(8.57884e+07 -1.15819e+07 -1.12911e-08 4.38358e+06 -4.9356e-09 2.66041e+07)
(1.1673e+08 8.19391e+06 8.85203e-09 6.99425e+06 5.36788e-09 3.76237e+07)
(8.09271e+07 -1.13788e+06 -1.2286e-08 921419 -1.54943e-09 2.46726e+07)
(1.01663e+08 7.63034e+06 -8.13335e-09 8.15753e+06 -4.69207e-09 3.30034e+07)
(7.22173e+07 -5.6249e+06 -4.18831e-09 1.4472e+07 -2.41271e-09 2.65078e+07)
(7.31697e+07 -4.31728e+06 3.4533e-09 1.45729e+07 1.65086e-09 2.6234e+07)
(8.05785e+07 -246106 0 2.50779e+07 0 3.15731e+07)
(8.01291e+07 -117332 -4.69192e-09 269539 -3.09128e-09 2.42088e+07)
(7.44246e+07 -9.19726e+06 -4.96132e-09 1.27579e+07 -4.16818e-09 2.64344e+07)
(5.78911e+07 -1.89878e+07 7.31479e-09 4.62549e+06 2.50472e-09 1.75735e+07)
(1.19001e+08 -1.34771e+07 -4.489e-09 -2.55215e+07 -2.6624e-09 2.91277e+07)
(1.41351e+08 1.26546e+07 2.53825e-08 1.22323e+07 1.30257e-08 4.60691e+07)
(1.0361e+08 -2.53845e+06 2.06293e-08 99920.6 4.33529e-09 3.03303e+07)
(1.40957e+08 -5.4406e+06 1.5928e-09 -8.94207e+06 -4.52297e-09 4.18374e+07)
(1.28016e+08 -2.31994e+06 -2.60204e-08 -2.20796e+07 -2.18521e-08 3.33071e+07)
(5.53663e+07 -1.67923e+07 -5.20401e-10 7.54194e+06 1.38495e-09 1.89539e+07)
(1.43636e+08 1.51926e+07 -1.18101e-08 1.49132e+07 -7.44516e-09 4.7876e+07)
(8.13284e+07 -9.32382e+06 -4.56957e-09 7.24029e+06 4.43707e-09 2.69589e+07)
(4.46746e+07 -1.66319e+07 1.59593e-08 4.2935e+06 3.23756e-09 1.48797e+07)
(8.01224e+07 -543065 -2.98549e-09 9.51256e+06 -3.08774e-10 2.65134e+07)
(4.59922e+07 -1.37805e+07 1.73459e-09 4.41255e+06 -2.82746e-10 1.47175e+07)
(4.04408e+07 -1.1697e+07 3.13075e-09 5.66624e+06 -2.80104e-10 1.46217e+07)
(1.18639e+08 -9.89817e+06 6.86401e-10 -1.313e+06 4.46812e-09 3.51481e+07)
(6.72556e+07 -2.27756e+07 3.16312e-08 -2.68163e+07 2.037e-08 1.5686e+07)
(8.68899e+07 -2.01673e+07 -4.18554e-09 1.12723e+06 -3.05447e-09 2.61268e+07)
(8.15321e+07 -1.5782e+06 -7.82264e-09 1.07888e+06 -2.75865e-09 2.4734e+07)
(7.96094e+07 -936536 -1.98823e-09 2.40773e+07 1.94388e-09 3.12971e+07)
(8.04657e+07 -307977 7.25836e-09 268707 2.43117e-09 2.41002e+07)
(7.97255e+07 -1.15165e+07 -1.19082e-08 8.99168e+06 -3.04253e-09 2.65019e+07)
(4.07402e+07 -2.37518e+07 -4.18136e-09 -1.35684e+07 -1.0458e-09 7.85026e+06)
(1.27947e+08 1.56893e+07 4.96202e-09 7.98814e+06 5.53433e-09 4.25408e+07)
(1.32602e+08 1.50387e+07 1.02848e-08 -8.15669e+06 5.95023e-09 3.76425e+07)
(1.27108e+08 -4.86966e+06 -2.80615e-08 -116776 -1.11045e-08 3.90718e+07)
(9.61579e+07 -4.57555e+06 3.55559e-08 60395.5 1.02774e-08 2.95608e+07)
(-1.34446e+06 1.28201e+07 5.09788e-09 -8.46956e+07 9.52746e-09 -2.12531e+07)
(2.09379e+06 -2.42595e+06 -7.9917e-09 -6.84665e+07 -7.67996e-09 -2.1016e+07)
(6.13055e+07 -1.85867e+07 7.34996e-09 6.26253e+06 3.71451e-09 2.10833e+07)
(9.16357e+07 -6.84183e+06 -5.29002e-09 690945 -5.4793e-09 2.72211e+07)
(8.2444e+07 -2.39467e+07 -7.45941e-09 -1.49918e+07 -3.26378e-09 1.95025e+07)
(9.96955e+07 4.83948e+06 -2.62726e-09 5.1529e+06 -5.27695e-09 3.14179e+07)
(6.29316e+07 -2.30964e+07 -5.51626e-09 -1.70873e+06 -1.93421e-09 1.6791e+07)
(1.05895e+08 -5.14844e+06 -1.57864e-09 -40601 2.48255e-09 3.1058e+07)
(7.92441e+07 -1.14472e+07 5.57228e-09 9.23513e+06 5.69919e-11 2.67403e+07)
(6.62931e+07 -2.31891e+07 1.59991e-08 17266 5.1708e-09 1.97693e+07)
(-2.68765e+06 -4.992e+06 -7.71182e-10 -4.16731e+07 -4.68165e-09 -1.37046e+07)
(1.35047e+08 3.71578e+06 -1.95116e-08 -841929 -1.17639e-08 3.94877e+07)
(4.28201e+07 -9.54442e+06 -4.65032e-09 7.73489e+06 -3.94846e-10 1.55163e+07)
(9.00269e+07 -8.57593e+06 1.67642e-08 1.40837e+06 2.78019e-09 2.73639e+07)
(3.54828e+07 -2.48053e+07 9.85571e-09 -1.25872e+07 3.18158e-09 7.79931e+06)
(1.22065e+08 -5.77162e+06 -1.38956e-09 -7.49612e+06 -1.52273e-10 3.4305e+07)
(8.03713e+07 -1.38134e+06 -2.53991e-09 1.46504e+07 -8.03843e-10 2.89213e+07)
(7.92173e+07 -1.33626e+07 6.16412e-09 8.06273e+06 4.51047e-09 2.67456e+07)
(7.8793e+07 -681535 -3.54125e-09 1.98826e+07 9.09424e-10 2.94026e+07)
(8.12776e+07 -651029 6.21726e-09 106661 8.24111e-10 2.47569e+07)
(1.20976e+08 -9.13632e+06 8.57563e-09 -1.42346e+06 2.00985e-09 3.62795e+07)
(3.04492e+07 -2.03766e+07 -4.59058e-09 -8.31388e+06 -1.71061e-09 7.97106e+06)
(8.03186e+07 -53656.8 -7.40694e-09 -100225 -4.73865e-10 2.42572e+07)
(8.47088e+07 -1.16959e+07 8.62174e-09 4.65973e+06 1.69674e-10 2.69534e+07)
(1.03169e+08 1.01604e+07 -8.27221e-09 -1.16622e+06 -4.70252e-09 2.92662e+07)
(8.29542e+07 -1.59028e+07 -7.47241e-11 5.81446e+06 9.05826e-10 2.63577e+07)
(7.27442e+07 -1.92874e+07 -5.20045e-09 6.00245e+06 -3.29716e-09 2.39797e+07)
(8.04761e+07 -1.53998e+07 4.71569e-09 7.29965e+06 3.44248e-09 2.55439e+07)
(7.92636e+07 -130007 0 2.17046e+07 0 3.03889e+07)
(8.84959e+07 1.30128e+06 3.29162e-09 -983945 1.96362e-09 2.77009e+07)
(9.35253e+07 -1.42427e+07 1.49044e-08 1.78984e+06 2.31742e-09 2.87984e+07)
(9.30724e+07 -1.62132e+07 -2.69007e-09 2.11848e+06 -2.73185e-09 2.86561e+07)
(8.44053e+07 -1.59651e+07 5.28342e-09 4.99584e+06 -3.34033e-10 2.66975e+07)
(1.55362e+08 -684839 -5.04053e-09 2.47645e+07 2.78741e-09 5.49273e+07)
(3.09462e+07 -2.90245e+06 2.78961e-10 5.01652e+06 -1.09489e-09 1.13819e+07)
(9.98484e+07 1.4938e+06 9.86923e-09 -1.16807e+06 1.49006e-09 2.9149e+07)
(6.7033e+07 -1.9425e+07 -8.07037e-09 5.36546e+06 1.14568e-09 2.21293e+07)
(1.37126e+08 1.73451e+07 -9.1412e-09 8.9157e+06 -7.06015e-09 4.35661e+07)
(1.84555e+07 -1.48085e+07 3.05176e-08 -4.80297e+07 1.97502e-08 -8.14017e+06)
(1.24951e+08 1.7046e+07 9.56195e-09 4.94267e+06 8.51746e-09 3.98006e+07)
(9.38759e+07 -1.68416e+07 0 1.17319e+06 0 2.85196e+07)
(1.31091e+08 4.56439e+06 2.11915e-08 -6.22082e+06 1.73403e-08 3.79382e+07)
(1.41845e+08 1.83392e+07 -1.29438e-08 -1.63265e+06 -1.14671e-08 4.22452e+07)
(8.06874e+07 -9.39985e+06 -4.61938e-09 9.06022e+06 9.71959e-10 2.65262e+07)
(7.33194e+07 -1.12288e+07 5.40752e-09 1.14824e+07 1.7048e-09 2.58754e+07)
(7.34677e+07 -1.2079e+07 1.1377e-08 1.09929e+07 1.28355e-09 2.50494e+07)
(3.24904e+07 -1.7158e+07 4.10804e-09 -6.67227e+06 1.41498e-09 7.06363e+06)
(3.22552e+07 -1.77882e+07 0 -2.26995e+06 0 9.12912e+06)
(7.94791e+07 -1.25506e+07 1.05017e-08 8.84917e+06 -3.33645e-10 2.60813e+07)
(8.03827e+07 -3.76334e+06 1.57229e-08 1.06597e+07 2.02108e-09 2.67963e+07)
(7.52829e+07 -2.07319e+07 -9.10362e-09 3.62875e+06 -3.45896e-09 2.38695e+07)
(4.00199e+07 -1.35334e+07 -1.80105e-09 4.09141e+06 1.89531e-10 1.29907e+07)
(8.0227e+07 -977539 -7.28621e-09 2.28107e+07 -1.15678e-09 3.0422e+07)
(8.02069e+07 -860014 2.55337e-08 1.41839e+06 8.12919e-09 2.49819e+07)
(9.70607e+07 -8.60942e+06 -8.15242e-10 1.17679e+06 8.38782e-10 2.94429e+07)
(6.6704e+07 -324797 -4.60044e-10 1.41558e+07 -1.10365e-09 2.41777e+07)
(8.04653e+07 -3.67053e+06 -4.043e-10 7.69962e+06 -1.6432e-09 2.66571e+07)
(8.71272e+07 -2.11295e+07 -8.69992e-09 538550 -9.89498e-10 2.62953e+07)
(8.02899e+07 -4.94952e+06 -8.11908e-11 1.11237e+07 -4.24615e-10 2.76702e+07)
(7.15987e+07 -1.39355e+07 -1.19324e-08 9.97577e+06 2.4523e-09 2.4891e+07)
(1.19908e+08 1.24853e+07 0 -881249 0 3.70768e+07)
(1.18812e+08 1.24683e+07 -2.48381e-08 235975 -2.1672e-08 3.29295e+07)
(8.62937e+07 -2.2708e+07 -1.35604e-09 -2.51945e+06 -4.52719e-09 2.5345e+07)
(3.71715e+07 -2.04247e+07 5.71065e-09 -9.56524e+06 1.9203e-09 7.46679e+06)
(8.04975e+07 -2.11169e+07 2.42207e-08 2.57822e+06 8.20936e-09 2.41838e+07)
(8.65638e+07 -2.11266e+07 0 78819.1 0 2.49253e+07)
(3.90748e+07 -1.99589e+07 -6.65687e-09 -3.6779e+06 -1.79285e-09 9.88822e+06)
(7.92628e+07 -4.63708e+06 3.37214e-10 1.67179e+07 1.30363e-09 2.85362e+07)
(8.12566e+07 -3.7536e+06 -4.01741e-09 4.33009e+06 -2.87189e-09 2.57448e+07)
(-2.86438e+06 -4.15592e+06 -6.39367e-09 -6.35102e+07 -4.36876e-09 -2.66559e+07)
(9.56688e+07 -372942 -1.54449e-08 -239097 7.68742e-10 2.8674e+07)
(8.03692e+07 -630202 -5.96496e-10 2.37674e+07 1.23025e-10 3.11291e+07)
(8.02614e+07 -302941 1.1439e-08 355571 1.04072e-09 2.4407e+07)
(6.88557e+07 -4.41646e+06 8.58542e-10 1.42195e+07 4.89348e-11 2.50801e+07)
(-3.05991e+06 1.04884e+07 -8.33372e-09 -9.69014e+07 -2.00183e-08 -2.39175e+07)
(5.25679e+07 -1.77729e+07 1.90063e-09 6.17473e+06 -4.197e-10 1.84692e+07)
(1.33753e+08 3.67082e+06 1.64483e-08 -4.37031e+06 1.1332e-08 3.95642e+07)
(7.88017e+07 -4.86745e+06 3.65436e-09 1.70299e+07 -5.16039e-10 2.8901e+07)
(8.17341e+07 -3.96415e+06 2.99025e-09 3.8499e+06 -1.46067e-09 2.52562e+07)
(8.96855e+07 -2.16003e+07 1.47641e-08 -6.77354e+06 5.73813e-09 2.48777e+07)
(1.67562e+06 -3.35814e+06 -1.17899e-08 -6.08674e+07 -5.28802e-09 -1.7766e+07)
(9.67323e+07 -1.90368e+07 -1.07885e-08 -1.78917e+06 1.27479e-10 2.81194e+07)
(7.27387e+07 -2.54723e+07 -9.31095e-09 -1.52403e+07 -3.85693e-09 1.6673e+07)
(5.69198e+07 -9.30155e+06 7.56288e-09 1.08928e+07 2.09593e-09 2.02283e+07)
(9.6076e+07 -1.13637e+07 9.66086e-09 1.33837e+06 7.45287e-10 2.86337e+07)
(9.22897e+07 -1.44955e+07 6.7128e-09 2.34665e+06 -3.40547e-10 2.81907e+07)
(1.82352e+08 -1.55393e+07 1.15684e-08 1.0459e+07 4.45418e-09 6.00325e+07)
(6.69425e+07 -2.04665e+07 -4.1747e-09 4.69866e+06 1.82827e-09 2.16515e+07)
(-1.11968e+07 6.73462e+06 -8.09426e-09 -7.91584e+07 -1.26501e-08 -2.12769e+07)
(1.88011e+07 -2.04555e+07 4.99624e-09 -2.14092e+07 2.66847e-09 249445)
(7.87441e+07 -5.49654e+06 -2.39353e-09 1.59575e+07 1.85117e-09 2.84504e+07)
(8.41398e+07 -2.47312e+07 1.99742e-08 -2.98122e+07 4.87866e-09 1.8106e+07)
(8.43894e+07 -1.65574e+07 -1.115e-09 4.78028e+06 2.34757e-09 2.68737e+07)
(9.09527e+07 -9.45127e+06 -2.16464e-08 1.69279e+06 -2.43797e-09 2.83175e+07)
(9.60674e+07 -1.17501e+07 1.02143e-11 1.23042e+06 6.0374e-09 2.99376e+07)
(1.48135e+06 -3.4801e+06 0 2.90947e+06 0 2.55371e+06)
(1.74852e+08 4.29773e+06 -1.05296e-08 1.03071e+07 -7.71001e-09 5.23893e+07)
(7.11241e+07 -2.05484e+07 -6.23186e-09 4.64903e+06 -7.85949e-10 2.36434e+07)
(1.13771e+08 -1.2111e+07 -4.80682e-08 -2.4761e+07 -2.95675e-08 2.69665e+07)
(8.41306e+07 -2.31572e+07 -1.99304e-08 -2.70035e+07 -9.12553e-09 1.59939e+07)
(1.44767e+08 6.39818e+06 -2.38182e-08 2.2078e+07 -8.29392e-09 4.98385e+07)
(1.7369e+08 7.55471e+06 8.46109e-10 1.7402e+07 5.78764e-10 5.99228e+07)
(1.67687e+07 -1.32592e+07 -1.13834e-08 -4.22567e+07 -1.61429e-08 -9.89508e+06)
(8.17617e+07 -5.31186e+06 -8.84094e-09 4.24244e+06 -2.5587e-09 2.61527e+07)
(8.83061e+07 -8.92282e+06 -1.93364e-10 2.21853e+06 1.98246e-10 2.74873e+07)
(1.06624e+08 -1.55505e+07 -2.15111e-08 -4.13547e+06 -9.29377e-09 3.14565e+07)
(1.06722e+08 -1.55041e+07 -8.17876e-09 -4.1936e+06 -4.53199e-09 3.01126e+07)
(7.91164e+07 -1.7344e+07 -4.05681e-09 6.031e+06 -2.13143e-09 2.6092e+07)
(8.15148e+07 5.97401e+06 1.05241e-08 2.41208e+06 3.04848e-09 2.4436e+07)
(1.36592e+08 1.77635e+07 -7.47e-09 -5.57444e+06 -7.987e-09 4.02313e+07)
(4.66186e+07 -1.21393e+07 2.72983e-09 8.23682e+06 7.55231e-10 1.55641e+07)
(7.9853e+07 -555804 2.11865e-09 2.58753e+07 -3.42162e-10 3.14535e+07)
(8.03115e+07 -200250 -1.31301e-08 43675.5 -5.79922e-09 2.41733e+07)
(8.16772e+07 -4.68353e+06 0 3.91839e+06 0 2.58402e+07)
(5.6435e+07 -2.61728e+07 -8.91607e-09 -9.06218e+06 -2.94949e-09 1.261e+07)
(2.2098e+08 -3.02979e+07 -1.68204e-08 1.94825e+07 -7.76542e-09 7.5952e+07)
(9.52965e+07 -2.01135e+07 4.28257e-08 -2.41035e+07 2.43989e-08 2.02155e+07)
(7.013e+07 -1.77642e+07 4.46886e-09 7.56169e+06 3.2569e-09 2.3934e+07)
(7.04352e+07 -1.96871e+07 -7.76231e-09 4.53216e+06 -8.95136e-10 2.20722e+07)
(6.34871e+07 -1.87225e+07 -1.75224e-08 6.36547e+06 -1.34537e-09 2.04552e+07)
(8.05785e+07 -255879 0 208292 0 2.41936e+07)
(2.49159e+07 -2.36798e+07 9.83282e-09 -2.76496e+07 3.69074e-09 -2.13628e+06)
(8.01451e+07 -5.69244e+06 5.78368e-09 1.20705e+07 1.12096e-09 2.7196e+07)
(5.04879e+07 -2.63271e+07 2.18581e-08 -9.05836e+06 7.88621e-09 1.42683e+07)
(8.03196e+07 -438125 -3.60782e-09 1.59252e+07 -2.73257e-09 2.86098e+07)
(1.74541e+08 8.32865e+06 -7.75025e-09 1.46974e+07 -4.0113e-09 5.51376e+07)
(8.13578e+07 -5.25882e+06 -1.93236e-09 4.94719e+06 -5.56142e-10 2.58607e+07)
(7.96337e+07 -476149 -1.033e-08 2.30407e+07 -2.0005e-09 3.07333e+07)
(1.59847e+08 1.49841e+07 -1.07473e-08 1.54995e+07 -8.53504e-09 5.2285e+07)
(7.08072e+07 -8.44678e+06 -6.92552e-09 1.29539e+07 1.01583e-09 2.52342e+07)
(7.83052e+07 -4.67945e+06 3.02107e-09 1.70581e+07 -5.83014e-10 2.84519e+07)
(1.15875e+08 1.2996e+06 -1.20638e-08 -314839 -3.00842e-09 3.53057e+07)
(1.86713e+08 -6.40519e+07 0 2.94003e+07 0 5.6601e+07)
(7.60111e+07 -9.69346e+06 -3.65809e-09 1.20447e+07 3.37515e-09 2.63323e+07)
(2.6388e+07 -2.03269e+07 0 -2.22806e+07 0 106471)