/*--------------------------------*- C++ -*----------------------------------*\
| =========                 |                                                 |
| \\      /  F ield         | OpenFOAM: The Open Source CFD Toolbox           |
|  \\    /   O peration     | Version:  v2012                                 |
|   \\  /    A nd           | Website:  www.openfoam.com                      |
|    \\/     M anipulation  |                                                 |
\*---------------------------------------------------------------------------*/
FoamFile
{
    version     2.0;
    format      ascii;
    class       volVectorField;
    location    "17";
    object      D;
}
// * * * * * * * * * * * * * * * * * * * * * * * * * * * * * * * * * * * * * //

dimensions      [0 1 0 0 0 0 0];


internalField   nonuniform List<vector> 
8000
(
(8.04343e-05 -0.000284829 0)
(0.000143123 -0.000313798 0)
(7.40963e-05 -0.00040017 0)
(0.000130713 -0.00043363 0)
(7.06379e-05 -0.000509637 0)
(0.000124854 -0.000544293 0)
(6.86525e-05 -0.000613145 0)
(0.000121343 -0.000646935 0)
(6.71416e-05 -0.000710405 0)
(0.000118404 -0.000742579 0)
(6.5722e-05 -0.000801449 0)
(0.000115202 -0.000831458 0)
(6.40822e-05 -0.000885874 0)
(0.000111421 -0.000913361 0)
(6.21602e-05 -0.000963261 0)
(0.000106919 -0.000987986 0)
(5.98644e-05 -0.00103324 0)
(0.000101686 -0.00105505 0)
(5.72366e-05 -0.00109553 0)
(9.57227e-05 -0.00111427 0)
(5.42791e-05 -0.00114991 0)
(8.90481e-05 -0.00116545 0)
(5.09684e-05 -0.00119622 0)
(8.17713e-05 -0.00120854 0)
(4.73121e-05 -0.0012345 0)
(7.41296e-05 -0.0012437 0)
(4.34206e-05 -0.00126499 0)
(6.64114e-05 -0.00127131 0)
(3.9373e-05 -0.00128826 0)
(5.89558e-05 -0.00129206 0)
(3.52817e-05 -0.00130512 0)
(5.20966e-05 -0.00130685 0)
(3.12906e-05 -0.00131661 0)
(4.61004e-05 -0.00131674 0)
(2.75371e-05 -0.0013239 0)
(4.11047e-05 -0.00132275 0)
(2.40595e-05 -0.00132814 0)
(3.70393e-05 -0.00132567 0)
(2.06835e-05 -0.00133022 0)
(3.44572e-05 -0.00132749 0)
(0.000226476 -0.00031715 0)
(0.000281316 -0.000362882 0)
(0.000233748 -0.000419346 0)
(0.00029018 -0.000463335 0)
(0.000237623 -0.000522139 0)
(0.000293411 -0.000563734 0)
(0.000238899 -0.000621857 0)
(0.000293067 -0.000660253 0)
(0.000237875 -0.000716365 0)
(0.000289925 -0.000751434 0)
(0.000234714 -0.000804879 0)
(0.000284254 -0.000836419 0)
(0.000229637 -0.000886817 0)
(0.000276212 -0.000914555 0)
(0.000222709 -0.000961633 0)
(0.00026594 -0.000985323 0)
(0.000214128 -0.00102893 0)
(0.000253551 -0.00104827 0)
(0.000203968 -0.0010883 0)
(0.000239228 -0.0011031 0)
(0.000192341 -0.00113951 0)
(0.000223261 -0.00114972 0)
(0.000179502 -0.00118252 0)
(0.000206074 -0.00118827 0)
(0.000165748 -0.00121754 0)
(0.000188233 -0.00121925 0)
(0.000151477 -0.0012451 0)
(0.000170429 -0.00124344 0)
(0.00013719 -0.00126604 0)
(0.000153344 -0.00126181 0)
(0.000123412 -0.00128141 0)
(0.000137562 -0.00127538 0)
(0.000110607 -0.00129236 0)
(0.000123513 -0.00128515 0)
(9.91257e-05 -0.00130003 0)
(0.000111435 -0.00129206 0)
(8.91428e-05 -0.00130539 0)
(0.000101328 -0.00129669 0)
(8.05989e-05 -0.00130916 0)
(9.30959e-05 -0.00129993 0)
(0.000392553 -0.000349035 0)
(0.000450167 -0.000396307 0)
(0.000399775 -0.000451995 0)
(0.000454966 -0.000498969 0)
(0.000405265 -0.000551873 0)
(0.000458377 -0.000596522 0)
(0.000407574 -0.000647311 0)
(0.00045836 -0.000688127 0)
(0.000406113 -0.000736999 0)
(0.000454309 -0.000773487 0)
(0.000400954 -0.00082049 0)
(0.000446122 -0.000852193 0)
(0.000392183 -0.0008972 0)
(0.000433858 -0.000923659 0)
(0.00037998 -0.000966547 0)
(0.000417668 -0.000987293 0)
(0.000364493 -0.00102796 0)
(0.00039781 -0.00104263 0)
(0.00034597 -0.00108105 0)
(0.000374748 -0.00108952 0)
(0.00032476 -0.00112568 0)
(0.000349181 -0.00112822 0)
(0.000301489 -0.00116214 0)
(0.000322045 -0.00115945 0)
(0.000276966 -0.00119113 0)
(0.000294412 -0.00118422 0)
(0.000252123 -0.00121369 0)
(0.000267325 -0.00120371 0)
(0.000227914 -0.00123098 0)
(0.000241711 -0.00121905 0)
(0.000205199 -0.00124419 0)
(0.000218307 -0.00123124 0)
(0.000184692 -0.00125432 0)
(0.000197618 -0.00124107 0)
(0.000166886 -0.00126223 0)
(0.000179896 -0.0012491 0)
(0.000151998 -0.00126852 0)
(0.000165139 -0.0012556 0)
(0.000139878 -0.00127344 0)
(0.000152909 -0.00126038 0)
(0.000539772 -0.000406835 0)
(0.000593236 -0.00045961 0)
(0.000551766 -0.000504498 0)
(0.000603031 -0.000555079 0)
(0.000559696 -0.000598397 0)
(0.000608481 -0.000645455 0)
(0.000562989 -0.000687196 0)
(0.00060888 -0.000729296 0)
(0.000561232 -0.000769604 0)
(0.000603807 -0.000805987 0)
(0.000554215 -0.000845106 0)
(0.000592957 -0.000874975 0)
(0.000541837 -0.000913073 0)
(0.000576224 -0.000935644 0)
(0.000524097 -0.000972831 0)
(0.00055378 -0.000987554 0)
(0.000501254 -0.0010239 0)
(0.000526222 -0.00103069 0)
(0.000473904 -0.00106621 0)
(0.000494597 -0.00106564 0)
(0.000443057 -0.00110032 0)
(0.000460285 -0.0010935 0)
(0.000410007 -0.00112732 0)
(0.000424793 -0.00111568 0)
(0.000376184 -0.00114858 0)
(0.000389567 -0.00113364 0)
(0.00034298 -0.00116551 0)
(0.000355863 -0.00114862 0)
(0.000311615 -0.00117936 0)
(0.000324634 -0.00116157 0)
(0.000282994 -0.00119106 0)
(0.000296472 -0.0011731 0)
(0.00025766 -0.00120123 0)
(0.000271664 -0.00118349 0)
(0.000235782 -0.00121019 0)
(0.000250191 -0.00119288 0)
(0.000217255 -0.00121803 0)
(0.000231752 -0.00120112 0)
(0.00020181 -0.00122462 0)
(0.000216097 -0.00120796 0)
(0.000676327 -0.000478456 0)
(0.000726088 -0.000533485 0)
(0.000690008 -0.000570659 0)
(0.00073657 -0.00062272 0)
(0.00069897 -0.000657339 0)
(0.000742079 -0.000704701 0)
(0.000702334 -0.000737429 0)
(0.000741502 -0.000778209 0)
(0.000699378 -0.000809586 0)
(0.000734087 -0.000842536 0)
(0.000689538 -0.000873169 0)
(0.000719303 -0.000897181 0)
(0.000672476 -0.00092758 0)
(0.000697089 -0.000941984 0)
(0.000648299 -0.000972536 0)
(0.000668036 -0.000977431 0)
(0.000617754 -0.00100839 0)
(0.000633436 -0.00100478 0)
(0.000582213 -0.00103625 0)
(0.000595064 -0.00102584 0)
(0.000543524 -0.00105782 0)
(0.00055485 -0.00104252 0)
(0.000503662 -0.00107494 0)
(0.000514604 -0.00105651 0)
(0.000464399 -0.00108922 0)
(0.000475813 -0.00106908 0)
(0.000427124 -0.00110186 0)
(0.000439494 -0.00108098 0)
(0.000392745 -0.00111358 0)
(0.000406239 -0.00109251 0)
(0.000361729 -0.00112473 0)
(0.000376213 -0.00110369 0)
(0.000334141 -0.00113533 0)
(0.000349399 -0.00111443 0)
(0.000309831 -0.00114528 0)
(0.000325542 -0.00112454 0)
(0.00028858 -0.00115444 0)
(0.000304401 -0.00113382 0)
(0.000269927 -0.00116249 0)
(0.000285541 -0.00114192 0)
(0.000798657 -0.000560652 0)
(0.000842867 -0.000615845 0)
(0.000812331 -0.000645667 0)
(0.000852429 -0.000696187 0)
(0.000820248 -0.000722804 0)
(0.000855664 -0.000766562 0)
(0.000821392 -0.000790933 0)
(0.000851483 -0.000825615 0)
(0.00081481 -0.00084854 0)
(0.000839184 -0.000872763 0)
(0.000799889 -0.000895124 0)
(0.00081859 -0.000908309 0)
(0.000776606 -0.000930886 0)
(0.000790316 -0.00093355 0)
(0.000745727 -0.000956988 0)
(0.000755742 -0.000950751 0)
(0.000708887 -0.000975542 0)
(0.000716847 -0.000962693 0)
(0.00066836 -0.000989111 0)
(0.000675771 -0.000971891 0)
(0.000626452 -0.000999984 0)
(0.000634455 -0.000980185 0)
(0.000585039 -0.00100981 0)
(0.000594342 -0.000988641 0)
(0.000545425 -0.00101953 0)
(0.000556317 -0.000997674 0)
(0.000508344 -0.00102954 0)
(0.000520813 -0.0010073 0)
(0.000474114 -0.00103986 0)
(0.000487979 -0.00101733 0)
(0.00044282 -0.00105033 0)
(0.000457812 -0.00102754 0)
(0.00041437 -0.0010607 0)
(0.000430256 -0.0010377 0)
(0.000388644 -0.00107077 0)
(0.000405084 -0.00104751 0)
(0.000365345 -0.00108025 0)
(0.00038211 -0.00105681 0)
(0.00034429 -0.00108899 0)
(0.00036121 -0.00106537 0)
(0.000907552 -0.000645615 0)
(0.00094481 -0.000696803 0)
(0.000917735 -0.000720816 0)
(0.000949469 -0.000764672 0)
(0.000920963 -0.000784735 0)
(0.000946523 -0.000818841 0)
(0.000916092 -0.000836228 0)
(0.000935171 -0.00085867 0)
(0.000902526 -0.000874379 0)
(0.000915475 -0.000884917 0)
(0.000880354 -0.000899933 0)
(0.000888301 -0.000899795 0)
(0.000850537 -0.000915024 0)
(0.000855268 -0.000906587 0)
(0.000814993 -0.000923082 0)
(0.000818481 -0.000909181 0)
(0.0007762 -0.000927684 0)
(0.000779973 -0.000910587 0)
(0.000736318 -0.000931407 0)
(0.000741335 -0.000912561 0)
(0.000696835 -0.000935689 0)
(0.000703574 -0.000915825 0)
(0.000658603 -0.000941097 0)
(0.000667186 -0.000920457 0)
(0.00062204 -0.000947674 0)
(0.000632406 -0.000926328 0)
(0.000587381 -0.00095525 0)
(0.000599417 -0.000933244 0)
(0.000554811 -0.000963615 0)
(0.000568342 -0.000940971 0)
(0.000524411 -0.000972506 0)
(0.000539207 -0.000949226 0)
(0.000496148 -0.000981625 0)
(0.000511935 -0.000957698 0)
(0.000469913 -0.000990705 0)
(0.000486501 -0.000966203 0)
(0.000445648 -0.000999611 0)
(0.00046288 -0.00097462 0)
(0.000423166 -0.00100811 0)
(0.000440887 -0.000982643 0)
(0.00100124 -0.000724081 0)
(0.00102968 -0.000765663 0)
(0.00100423 -0.00078464 0)
(0.00102573 -0.000815417 0)
(0.000998855 -0.000830008 0)
(0.00101336 -0.000848452 0)
(0.00098459 -0.000860212 0)
(0.000992672 -0.000866232 0)
(0.000961818 -0.00087629 0)
(0.000964913 -0.000871799 0)
(0.000931866 -0.000881498 0)
(0.000932106 -0.000870019 0)
(0.000897525 -0.000880589 0)
(0.000897244 -0.000865879 0)
(0.000861891 -0.000877817 0)
(0.00086242 -0.0008619 0)
(0.000826451 -0.000875433 0)
(0.000828417 -0.000858951 0)
(0.000791666 -0.000874325 0)
(0.000795299 -0.000857269 0)
(0.000757641 -0.000874715 0)
(0.000762952 -0.000856908 0)
(0.000724457 -0.000876586 0)
(0.000731471 -0.000857945 0)
(0.000692173 -0.000879812 0)
(0.000700965 -0.000860345 0)
(0.000661088 -0.000884309 0)
(0.000671611 -0.000864008 0)
(0.00063136 -0.000889854 0)
(0.00064345 -0.000868643 0)
(0.000603036 -0.000896141 0)
(0.000616456 -0.000873929 0)
(0.000576087 -0.000902893 0)
(0.000590744 -0.000879758 0)
(0.000550603 -0.000910002 0)
(0.000566386 -0.000886025 0)
(0.000526564 -0.000917305 0)
(0.000543337 -0.000892552 0)
(0.000503842 -0.000924563 0)
(0.000521341 -0.000898929 0)
(0.00107695 -0.000784561 0)
(0.00109512 -0.000810217 0)
(0.00106975 -0.000824122 0)
(0.00108055 -0.000836671 0)
(0.00105349 -0.000846351 0)
(0.00105784 -0.000846228 0)
(0.00102852 -0.000853893 0)
(0.00102804 -0.000843619 0)
(0.000996785 -0.000851057 0)
(0.000994649 -0.000836059 0)
(0.000962591 -0.000844214 0)
(0.000961188 -0.000828818 0)
(0.000929095 -0.000838009 0)
(0.000928696 -0.000822667 0)
(0.000896753 -0.000832643 0)
(0.000897313 -0.000817368 0)
(0.000865599 -0.000828289 0)
(0.000867025 -0.000812872 0)
(0.000835549 -0.000825016 0)
(0.000837821 -0.000809212 0)
(0.000806396 -0.000822779 0)
(0.000809862 -0.000806688 0)
(0.000777912 -0.000821371 0)
(0.000783031 -0.000805121 0)
(0.000750396 -0.000821377 0)
(0.000757168 -0.000804589 0)
(0.000723658 -0.000822539 0)
(0.000732015 -0.000804925 0)
(0.000697681 -0.000824693 0)
(0.000707356 -0.00080597 0)
(0.000672392 -0.000827608 0)
(0.000683489 -0.000807894 0)
(0.000648019 -0.000831297 0)
(0.000660533 -0.000810636 0)
(0.000624648 -0.000835645 0)
(0.000638434 -0.000813993 0)
(0.000602167 -0.000840418 0)
(0.00061708 -0.000817732 0)
(0.000580452 -0.000845381 0)
(0.000596394 -0.000821574 0)
(0.00113105 -0.000815313 0)
(0.00113867 -0.000820483 0)
(0.00111266 -0.000829613 0)
(0.00111423 -0.000822737 0)
(0.00108578 -0.000828778 0)
(0.00108387 -0.000814027 0)
(0.00105388 -0.000819566 0)
(0.00105218 -0.000804289 0)
(0.00102205 -0.000810775 0)
(0.00102114 -0.00079559 0)
(0.000991201 -0.000802939 0)
(0.000990966 -0.000787714 0)
(0.000960985 -0.00079608 0)
(0.0009615 -0.000780693 0)
(0.000931444 -0.00079015 0)
(0.000932797 -0.000774591 0)
(0.000902734 -0.000785095 0)
(0.000904986 -0.000769399 0)
(0.000874958 -0.000780828 0)
(0.000878168 -0.000765063 0)
(0.000848192 -0.000777259 0)
(0.000852371 -0.000761518 0)
(0.000822594 -0.000774455 0)
(0.000827655 -0.000758692 0)
(0.000798065 -0.000772378 0)
(0.000803937 -0.000756417 0)
(0.00077445 -0.000770972 0)
(0.000781021 -0.000754506 0)
(0.000751512 -0.000770166 0)
(0.000759318 -0.000753423 0)
(0.000729413 -0.000770145 0)
(0.000738611 -0.000752994 0)
(0.000708171 -0.000771005 0)
(0.000718596 -0.00075309 0)
(0.000687491 -0.000772451 0)
(0.000699039 -0.00075357 0)
(0.000667249 -0.000774323 0)
(0.000679939 -0.00075444 0)
(0.000647475 -0.000776593 0)
(0.000661269 -0.000755586 0)
(0.00116226 -0.000809629 0)
(0.001162 -0.000797498 0)
(0.00113578 -0.000801727 0)
(0.00113421 -0.000786256 0)
(0.00110666 -0.000790637 0)
(0.00110562 -0.000775674 0)
(0.00107806 -0.000780533 0)
(0.00107735 -0.000765613 0)
(0.00104959 -0.000771393 0)
(0.00104937 -0.000756208 0)
(0.00102144 -0.000763087 0)
(0.00102185 -0.000747641 0)
(0.000993772 -0.000755626 0)
(0.000994921 -0.000739956 0)
(0.000966699 -0.000749009 0)
(0.00096866 -0.000733136 0)
(0.0009403 -0.000743195 0)
(0.000943129 -0.000727146 0)
(0.000914636 -0.000738132 0)
(0.000918372 -0.000721944 0)
(0.000889768 -0.000733766 0)
(0.000894427 -0.000717464 0)
(0.000865793 -0.000730017 0)
(0.000871346 -0.000713641 0)
(0.00084278 -0.000726835 0)
(0.000849177 -0.000710408 0)
(0.000820752 -0.000724189 0)
(0.000827964 -0.000707699 0)
(0.000799665 -0.000722059 0)
(0.000807648 -0.000705488 0)
(0.000779468 -0.000720438 0)
(0.000788173 -0.000703705 0)
(0.000760019 -0.000719274 0)
(0.000769428 -0.000702232 0)
(0.000741145 -0.000718506 0)
(0.000751254 -0.000700953 0)
(0.000722661 -0.000718071 0)
(0.000733808 -0.000700039 0)
(0.000704817 -0.000718249 0)
(0.000716988 -0.000699435 0)
(0.00118254 -0.000776071 0)
(0.00118128 -0.000761126 0)
(0.0011572 -0.000764249 0)
(0.00115642 -0.000749673 0)
(0.00113096 -0.000753068 0)
(0.00113054 -0.000738229 0)
(0.00110455 -0.000742634 0)
(0.00110452 -0.000727451 0)
(0.00107834 -0.000732984 0)
(0.00107881 -0.000717477 0)
(0.00105248 -0.000724111 0)
(0.00105356 -0.000708326 0)
(0.00102705 -0.00071601 0)
(0.00102885 -0.000699992 0)
(0.00100214 -0.000708667 0)
(0.00100472 -0.000692456 0)
(0.000977808 -0.000702054 0)
(0.000981226 -0.000685686 0)
(0.000954113 -0.000696136 0)
(0.000958388 -0.000679635 0)
(0.000931114 -0.000690879 0)
(0.000936247 -0.000674255 0)
(0.000908859 -0.000686238 0)
(0.000914832 -0.000669492 0)
(0.000887371 -0.000682163 0)
(0.000894162 -0.000665294 0)
(0.000866654 -0.000678595 0)
(0.000874246 -0.00066161 0)
(0.000846706 -0.000675473 0)
(0.000855076 -0.000658372 0)
(0.000827522 -0.000672734 0)
(0.000836634 -0.000655518 0)
(0.000809079 -0.000670338 0)
(0.000818897 -0.000652999 0)
(0.000791342 -0.000668275 0)
(0.000801847 -0.000650776 0)
(0.00077426 -0.000666564 0)
(0.000785431 -0.000648829 0)
(0.000757717 -0.000665171 0)
(0.000769574 -0.000647084 0)
(0.00120639 -0.000739931 0)
(0.00120623 -0.000724364 0)
(0.00118159 -0.000727826 0)
(0.00118162 -0.000712557 0)
(0.00115689 -0.000716274 0)
(0.00115718 -0.000700951 0)
(0.00113239 -0.000705396 0)
(0.00113307 -0.000689808 0)
(0.00110818 -0.000695211 0)
(0.00110935 -0.000679316 0)
(0.00108431 -0.000685729 0)
(0.00108609 -0.000669561 0)
(0.00106084 -0.000676954 0)
(0.00106332 -0.000660566 0)
(0.00103784 -0.000668875 0)
(0.00104108 -0.000652316 0)
(0.00101536 -0.000661473 0)
(0.00101939 -0.000644779 0)
(0.000993434 -0.00065472 0)
(0.000998282 -0.000637913 0)
(0.000972119 -0.000648584 0)
(0.000977779 -0.000631672 0)
(0.000951443 -0.00064302 0)
(0.000957902 -0.000626006 0)
(0.000931425 -0.000637982 0)
(0.000938662 -0.000620862 0)
(0.000912073 -0.000633419 0)
(0.000920062 -0.000616187 0)
(0.000893382 -0.000629283 0)
(0.000902097 -0.000611927 0)
(0.000875338 -0.000625525 0)
(0.000884754 -0.000608034 0)
(0.000857909 -0.000622098 0)
(0.00086801 -0.000604464 0)
(0.000841066 -0.000618955 0)
(0.00085184 -0.000601177 0)
(0.000824788 -0.000616036 0)
(0.000836218 -0.000598126 0)
(0.000809052 -0.000613288 0)
(0.000821115 -0.000595264 0)
(0.00123247 -0.000704794 0)
(0.00123306 -0.000689114 0)
(0.00120845 -0.000692281 0)
(0.00120919 -0.000676514 0)
(0.00118483 -0.000680237 0)
(0.00118586 -0.00066427 0)
(0.00116171 -0.000668783 0)
(0.00116312 -0.000652578 0)
(0.00113906 -0.000657977 0)
(0.00114097 -0.000641544 0)
(0.00111686 -0.000647843 0)
(0.00111936 -0.000631211 0)
(0.00109509 -0.000638379 0)
(0.00109826 -0.000621586 0)
(0.00107378 -0.000629571 0)
(0.00107768 -0.000612655 0)
(0.00105295 -0.000621397 0)
(0.00105761 -0.000604388 0)
(0.00103264 -0.000613829 0)
(0.00103807 -0.000596745 0)
(0.00101287 -0.000606834 0)
(0.00101907 -0.000589682 0)
(0.000993663 -0.000600373 0)
(0.00100061 -0.000583151 0)
(0.000975037 -0.000594402 0)
(0.000982722 -0.000577102 0)
(0.000956992 -0.000588878 0)
(0.000965388 -0.000571485 0)
(0.000939522 -0.000583754 0)
(0.000948604 -0.000566253 0)
(0.000922608 -0.000578981 0)
(0.000932356 -0.000561359 0)
(0.000906227 -0.00057451 0)
(0.000916621 -0.00055676 0)
(0.000890352 -0.000570293 0)
(0.000901372 -0.000552417 0)
(0.000874952 -0.000566277 0)
(0.000886581 -0.000548302 0)
(0.000859992 -0.000562405 0)
(0.000872218 -0.000544392 0)
(0.00126001 -0.000670487 0)
(0.00126128 -0.000654582 0)
(0.00123675 -0.000657309 0)
(0.00123818 -0.00064113 0)
(0.00121417 -0.00064468 0)
(0.00121589 -0.000628182 0)
(0.00119224 -0.000632634 0)
(0.00119437 -0.000615862 0)
(0.0011709 -0.00062121 0)
(0.00117354 -0.000604234 0)
(0.00115009 -0.000610429 0)
(0.00115331 -0.000593311 0)
(0.00112979 -0.000600288 0)
(0.00113365 -0.000583077 0)
(0.00110996 -0.000590772 0)
(0.00111452 -0.000573503 0)
(0.00109062 -0.000581858 0)
(0.00109589 -0.000564554 0)
(0.00107176 -0.000573517 0)
(0.00107776 -0.00055619 0)
(0.00105341 -0.000565715 0)
(0.00106013 -0.000548367 0)
(0.00103558 -0.000558415 0)
(0.001043 -0.000541041 0)
(0.00101826 -0.000551575 0)
(0.00102636 -0.000534166 0)
(0.00100146 -0.000545153 0)
(0.00101023 -0.000527696 0)
(0.000985174 -0.000539108 0)
(0.00099459 -0.000521586 0)
(0.00096939 -0.000533398 0)
(0.00097943 -0.000515794 0)
(0.000954084 -0.000527981 0)
(0.000964732 -0.000510284 0)
(0.000939225 -0.000522816 0)
(0.000950466 -0.000505024 0)
(0.000924771 -0.000517861 0)
(0.0009366 -0.000499994 0)
(0.00091068 -0.000513069 0)
(0.000923096 -0.000495178 0)
(0.00128846 -0.000636887 0)
(0.00129034 -0.000620767 0)
(0.001266 -0.000622937 0)
(0.00126808 -0.000606398 0)
(0.00124441 -0.000609642 0)
(0.00124682 -0.000592708 0)
(0.00122359 -0.000596971 0)
(0.00122642 -0.000579739 0)
(0.00120344 -0.000584932 0)
(0.00120678 -0.000567507 0)
(0.00118388 -0.000573525 0)
(0.00118779 -0.000555995 0)
(0.00116486 -0.000562739 0)
(0.0011694 -0.000545168 0)
(0.00114637 -0.000552554 0)
(0.00115155 -0.000534987 0)
(0.00112836 -0.000542946 0)
(0.00113422 -0.000525406 0)
(0.00111085 -0.000533888 0)
(0.00111739 -0.000516381 0)
(0.00109382 -0.000525345 0)
(0.00110102 -0.000507869 0)
(0.00107726 -0.000517279 0)
(0.00108512 -0.000499825 0)
(0.00106117 -0.00050965 0)
(0.00106967 -0.000492209 0)
(0.00104556 -0.000502417 0)
(0.00105467 -0.00048498 0)
(0.00103041 -0.000495541 0)
(0.00104011 -0.000478102 0)
(0.00101572 -0.000488985 0)
(0.001026 -0.000471541 0)
(0.00100149 -0.000482719 0)
(0.00101234 -0.000465265 0)
(0.000987703 -0.000476717 0)
(0.000999106 -0.000459255 0)
(0.000974322 -0.00047096 0)
(0.000986289 -0.000453497 0)
(0.000961315 -0.000465436 0)
(0.000973854 -0.000447973 0)
(0.00131731 -0.000603913 0)
(0.0013197 -0.000587629 0)
(0.00129574 -0.000589177 0)
(0.00129843 -0.00057237 0)
(0.00127516 -0.000575201 0)
(0.00127822 -0.000557947 0)
(0.00125542 -0.000561904 0)
(0.00125892 -0.000544337 0)
(0.00123639 -0.000549264 0)
(0.0012404 -0.000531513 0)
(0.00121799 -0.000537258 0)
(0.00122255 -0.000519428 0)
(0.00120017 -0.000525862 0)
(0.00120533 -0.000508034 0)
(0.00118288 -0.000515051 0)
(0.00118866 -0.00049728 0)
(0.00116612 -0.000504797 0)
(0.00117253 -0.000487113 0)
(0.00114985 -0.000495073 0)
(0.00115689 -0.000477486 0)
(0.00113406 -0.000485848 0)
(0.00114173 -0.000468347 0)
(0.00111873 -0.000477085 0)
(0.00112701 -0.000459651 0)
(0.00110383 -0.000468744 0)
(0.0011127 -0.000451354 0)
(0.00108935 -0.00046078 0)
(0.00109879 -0.000443422 0)
(0.00107528 -0.000453152 0)
(0.00108527 -0.000435827 0)
(0.00106162 -0.000445822 0)
(0.00107213 -0.00042855 0)
(0.0010484 -0.000438766 0)
(0.00105941 -0.000421577 0)
(0.00103561 -0.000431968 0)
(0.00104714 -0.000414896 0)
(0.00102327 -0.000425424 0)
(0.00103533 -0.000408502 0)
(0.00101137 -0.000419132 0)
(0.00102399 -0.000402392 0)
(0.00134609 -0.000571562 0)
(0.00134894 -0.000555194 0)
(0.00132557 -0.000556084 0)
(0.0013288 -0.000539123 0)
(0.00130605 -0.00054146 0)
(0.00130971 -0.000524018 0)
(0.00128739 -0.000527574 0)
(0.00129152 -0.000509807 0)
(0.00126946 -0.000514372 0)
(0.0012741 -0.000496425 0)
(0.00125217 -0.000501812 0)
(0.00125735 -0.000483803 0)
(0.00123547 -0.000489855 0)
(0.00124122 -0.000471878 0)
(0.00121932 -0.00047847 0)
(0.00122565 -0.000460589 0)
(0.00120369 -0.000467623 0)
(0.00121062 -0.000449881 0)
(0.00118857 -0.000457288 0)
(0.00119609 -0.000439702 0)
(0.00117394 -0.000447433 0)
(0.00118204 -0.000429999 0)
(0.00115978 -0.00043803 0)
(0.00116846 -0.000420719 0)
(0.00114605 -0.000429043 0)
(0.00115529 -0.000411809 0)
(0.0011327 -0.000420431 0)
(0.0011425 -0.000403216 0)
(0.00111968 -0.000412139 0)
(0.00113004 -0.000394894 0)
(0.00110697 -0.000404109 0)
(0.00111785 -0.000386823 0)
(0.00109458 -0.000396287 0)
(0.00110594 -0.000379013 0)
(0.00108255 -0.000388654 0)
(0.00109436 -0.000371512 0)
(0.00107098 -0.000381236 0)
(0.00108323 -0.000364381 0)
(0.00105984 -0.000374081 0)
(0.00107261 -0.000357665 0)
(0.00137445 -0.000539876 0)
(0.00137769 -0.000523518 0)
(0.00135511 -0.00052375 0)
(0.00135883 -0.000506757 0)
(0.00133675 -0.000508552 0)
(0.00134095 -0.000491058 0)
(0.00131921 -0.000494145 0)
(0.0013239 -0.000476318 0)
(0.00130237 -0.000480449 0)
(0.00130758 -0.000462442 0)
(0.00128616 -0.000467404 0)
(0.00129191 -0.000449344 0)
(0.00127052 -0.000454964 0)
(0.00127682 -0.00043695 0)
(0.00125543 -0.000443089 0)
(0.00126228 -0.000425191 0)
(0.00124085 -0.000431742 0)
(0.00124826 -0.000414009 0)
(0.00122677 -0.000420891 0)
(0.00123472 -0.000403346 0)
(0.00121316 -0.000410504 0)
(0.00122166 -0.000393154 0)
(0.00120003 -0.000400551 0)
(0.00120905 -0.000383385 0)
(0.00118735 -0.00039101 0)
(0.0011969 -0.000373991 0)
(0.00117508 -0.000381862 0)
(0.00118517 -0.000364917 0)
(0.00116318 -0.000373091 0)
(0.00117383 -0.000356091 0)
(0.00115152 -0.000364666 0)
(0.00116279 -0.00034742 0)
(0.00113996 -0.000356504 0)
(0.0011519 -0.000338807 0)
(0.00112832 -0.000348448 0)
(0.00114097 -0.000330198 0)
(0.00111657 -0.000340242 0)
(0.00112991 -0.000321693 0)
(0.00110497 -0.000331561 0)
(0.001119 -0.000313666 0)
(0.0014021 -0.000508921 0)
(0.00140568 -0.000492671 0)
(0.00138409 -0.000492272 0)
(0.00138823 -0.00047537 0)
(0.00136696 -0.000476605 0)
(0.00137163 -0.000459197 0)
(0.00135058 -0.000461773 0)
(0.00135577 -0.000444029 0)
(0.00133485 -0.000447677 0)
(0.00134057 -0.000429754 0)
(0.00131971 -0.000434248 0)
(0.00132596 -0.000416275 0)
(0.00130512 -0.000421429 0)
(0.00131189 -0.000403512 0)
(0.00129103 -0.00040918 0)
(0.00129833 -0.000391393 0)
(0.00127744 -0.000397464 0)
(0.00128525 -0.000379855 0)
(0.00126432 -0.00038625 0)
(0.00127263 -0.000368842 0)
(0.00125164 -0.00037551 0)
(0.00126045 -0.000358302 0)
(0.00123939 -0.000365212 0)
(0.00124868 -0.000348189 0)
(0.00122754 -0.000355326 0)
(0.00123732 -0.00033846 0)
(0.00121611 -0.000345828 0)
(0.00122633 -0.000329085 0)
(0.00120508 -0.000336707 0)
(0.00121573 -0.000320043 0)
(0.00119449 -0.000327993 0)
(0.00120554 -0.000311323 0)
(0.00118434 -0.000319779 0)
(0.0011958 -0.00030292 0)
(0.00117461 -0.000312253 0)
(0.00118654 -0.000294821 0)
(0.00116516 -0.000305722 0)
(0.00117776 -0.000287009 0)
(0.00115574 -0.000300655 0)
(0.00116934 -0.000279433 0)
(0.00142884 -0.000478755 0)
(0.0014327 -0.000462696 0)
(0.00141226 -0.000461718 0)
(0.00141676 -0.000445021 0)
(0.00139644 -0.000445702 0)
(0.00140152 -0.000428512 0)
(0.00138128 -0.000430555 0)
(0.0013869 -0.000413041 0)
(0.0013667 -0.00041617 0)
(0.00137285 -0.000398485 0)
(0.00135265 -0.000402468 0)
(0.00135931 -0.000384745 0)
(0.0013391 -0.00038939 0)
(0.00134626 -0.000371735 0)
(0.00132602 -0.000376892 0)
(0.00133367 -0.000359383 0)
(0.0013134 -0.000364939 0)
(0.00132151 -0.000347629 0)
(0.00130122 -0.000353501 0)
(0.00130978 -0.000336418 0)
(0.00128946 -0.000342554 0)
(0.00129846 -0.000325703 0)
(0.00127811 -0.000332076 0)
(0.00128753 -0.000315444 0)
(0.00126716 -0.000322055 0)
(0.00127697 -0.000305605 0)
(0.00125659 -0.000312483 0)
(0.00126678 -0.00029616 0)
(0.00124641 -0.000303366 0)
(0.00125695 -0.000287096 0)
(0.00123664 -0.000294729 0)
(0.00124748 -0.000278422 0)
(0.00122738 -0.000286642 0)
(0.00123844 -0.000270173 0)
(0.00121888 -0.000279291 0)
(0.00123004 -0.000262401 0)
(0.00121154 -0.000273102 0)
(0.00122253 -0.00025523 0)
(0.00120541 -0.000268865 0)
(0.00121562 -0.000249173 0)
(0.00145455 -0.000449392 0)
(0.00145865 -0.000433587 0)
(0.00143948 -0.000432099 0)
(0.00144428 -0.000415701 0)
(0.00142504 -0.000415854 0)
(0.00143046 -0.000399002 0)
(0.00141116 -0.000400508 0)
(0.00141714 -0.00038336 0)
(0.00139777 -0.000385944 0)
(0.00140428 -0.000368649 0)
(0.00138485 -0.000372076 0)
(0.00139186 -0.000354765 0)
(0.00137238 -0.000358844 0)
(0.00137986 -0.000341623 0)
(0.00136034 -0.000346202 0)
(0.00136826 -0.000329152 0)
(0.00134872 -0.000334116 0)
(0.00135706 -0.000317292 0)
(0.00133751 -0.000322557 0)
(0.00134625 -0.000305991 0)
(0.00132671 -0.000311504 0)
(0.00133583 -0.000295206 0)
(0.00131631 -0.000300939 0)
(0.00132577 -0.000284902 0)
(0.0013063 -0.000290855 0)
(0.0013161 -0.00027505 0)
(0.00129671 -0.00028126 0)
(0.00130681 -0.000265629 0)
(0.00128754 -0.000272182 0)
(0.00129793 -0.000256618 0)
(0.00127881 -0.00026367 0)
(0.00128947 -0.000247985 0)
(0.00127055 -0.000255785 0)
(0.00128149 -0.00023965 0)
(0.00126284 -0.000248551 0)
(0.00127404 -0.000231492 0)
(0.00125573 -0.000241853 0)
(0.00126697 -0.000223572 0)
(0.00124881 -0.000235361 0)
(0.00125949 -0.000216688 0)
(0.00147914 -0.000420797 0)
(0.00148346 -0.000405294 0)
(0.00146563 -0.00040338 0)
(0.00147069 -0.000387352 0)
(0.00145262 -0.000387028 0)
(0.00145833 -0.000370608 0)
(0.00144006 -0.000371595 0)
(0.00144635 -0.000354925 0)
(0.00142791 -0.000356957 0)
(0.00143473 -0.000340176 0)
(0.00141616 -0.000343023 0)
(0.00142346 -0.000326254 0)
(0.00140481 -0.000329729 0)
(0.00141255 -0.000313075 0)
(0.00139384 -0.000317028 0)
(0.00140199 -0.00030057 0)
(0.00138327 -0.000304887 0)
(0.00139179 -0.00028868 0)
(0.00137307 -0.00029328 0)
(0.00138195 -0.000277355 0)
(0.00136326 -0.000282187 0)
(0.00137247 -0.000266551 0)
(0.00135383 -0.000271595 0)
(0.00136335 -0.000256227 0)
(0.00134477 -0.000261496 0)
(0.00135459 -0.000246349 0)
(0.00133611 -0.000251891 0)
(0.0013462 -0.00023688 0)
(0.00132784 -0.000242784 0)
(0.00133819 -0.000227778 0)
(0.00132 -0.000234186 0)
(0.00133058 -0.000218987 0)
(0.00131266 -0.000226097 0)
(0.00132342 -0.000210418 0)
(0.00130594 -0.000218476 0)
(0.00131677 -0.000201997 0)
(0.00129979 -0.000211235 0)
(0.00131043 -0.000193912 0)
(0.00129365 -0.000204532 0)
(0.00130366 -0.000186903 0)
(0.00150256 -0.000392914 0)
(0.00150706 -0.000377755 0)
(0.00149061 -0.000375513 0)
(0.00149591 -0.000359911 0)
(0.00147906 -0.000359181 0)
(0.00148502 -0.000343261 0)
(0.00146785 -0.000343777 0)
(0.00147439 -0.000327664 0)
(0.00145696 -0.000329172 0)
(0.00146402 -0.000312987 0)
(0.0014464 -0.00031527 0)
(0.00145393 -0.000299126 0)
(0.00143618 -0.000302005 0)
(0.00144413 -0.000285999 0)
(0.0014263 -0.000289331 0)
(0.00143463 -0.000273537 0)
(0.00141677 -0.000277215 0)
(0.00142544 -0.000261683 0)
(0.00140758 -0.00026563 0)
(0.00141658 -0.000250386 0)
(0.00139875 -0.000254557 0)
(0.00140804 -0.000239601 0)
(0.00139027 -0.000243981 0)
(0.00139983 -0.000229285 0)
(0.00138215 -0.000233892 0)
(0.00139196 -0.000219397 0)
(0.0013744 -0.000224285 0)
(0.00138444 -0.000209898 0)
(0.00136705 -0.000215166 0)
(0.00137728 -0.000200744 0)
(0.00136014 -0.000206538 0)
(0.00137051 -0.000191883 0)
(0.00135371 -0.00019839 0)
(0.00136417 -0.000183242 0)
(0.00134783 -0.000190662 0)
(0.00135831 -0.000174774 0)
(0.00134244 -0.000183315 0)
(0.00135274 -0.000166673 0)
(0.00133703 -0.000176638 0)
(0.00134668 -0.000159707 0)
(0.00152469 -0.000365692 0)
(0.00152935 -0.000350925 0)
(0.00151433 -0.000348463 0)
(0.00151981 -0.000333339 0)
(0.00150423 -0.000332288 0)
(0.00151039 -0.000316922 0)
(0.00149437 -0.000317036 0)
(0.00150111 -0.000301535 0)
(0.00148474 -0.000302575 0)
(0.00149199 -0.000287043 0)
(0.00147537 -0.000288808 0)
(0.00148307 -0.000273344 0)
(0.00146627 -0.000275668 0)
(0.00147437 -0.000260359 0)
(0.00145747 -0.000263109 0)
(0.00146592 -0.000248022 0)
(0.00144896 -0.0002511 0)
(0.00145773 -0.000236279 0)
(0.00144077 -0.000239615 0)
(0.00144982 -0.00022508 0)
(0.00143289 -0.000228635 0)
(0.0014422 -0.000214381 0)
(0.00142535 -0.000218147 0)
(0.00143488 -0.000204141 0)
(0.00141814 -0.000208143 0)
(0.00142788 -0.000194321 0)
(0.0014113 -0.000198623 0)
(0.00142121 -0.000184883 0)
(0.00140484 -0.000189589 0)
(0.00141488 -0.00017579 0)
(0.00139879 -0.000181046 0)
(0.00140892 -0.000166994 0)
(0.00139319 -0.000172974 0)
(0.00140338 -0.000158426 0)
(0.0013881 -0.000165324 0)
(0.00139831 -0.000150036 0)
(0.00138342 -0.000158082 0)
(0.00139349 -0.00014201 0)
(0.00137867 -0.000151532 0)
(0.00138809 -0.000135111 0)
(0.00154545 -0.000339101 0)
(0.0015502 -0.000324778 0)
(0.00153665 -0.000322208 0)
(0.00154227 -0.000307614 0)
(0.001528 -0.000306334 0)
(0.0015343 -0.000291574 0)
(0.00151947 -0.000291362 0)
(0.00152635 -0.000276522 0)
(0.00151108 -0.000277161 0)
(0.00151846 -0.000262328 0)
(0.00150287 -0.000263635 0)
(0.00151068 -0.000248895 0)
(0.00149488 -0.000250719 0)
(0.00150306 -0.000236149 0)
(0.00148712 -0.000238371 0)
(0.00149563 -0.00022403 0)
(0.00147963 -0.00022656 0)
(0.00148841 -0.000212486 0)
(0.0014724 -0.000215263 0)
(0.00148143 -0.000201472 0)
(0.00146546 -0.000204465 0)
(0.0014747 -0.000190948 0)
(0.00145882 -0.000194157 0)
(0.00146825 -0.000180876 0)
(0.0014525 -0.000184333 0)
(0.00146209 -0.00017122 0)
(0.00144652 -0.000174996 0)
(0.00145623 -0.000161947 0)
(0.0014409 -0.00016615 0)
(0.0014507 -0.000153021 0)
(0.00143566 -0.000157794 0)
(0.00144552 -0.000144394 0)
(0.00143083 -0.000149911 0)
(0.00144075 -0.000135998 0)
(0.00142646 -0.000142458 0)