/*--------------------------------*- C++ -*----------------------------------*\
| =========                 |                                                 |
| \\      /  F ield         | OpenFOAM: The Open Source CFD Toolbox           |
|  \\    /   O peration     | Version:  v2012                                 |
|   \\  /    A nd           | Website:  www.openfoam.com                      |
|    \\/     M anipulation  |                                                 |
\*---------------------------------------------------------------------------*/
FoamFile
{
    version     2.0;
    format      ascii;
    class       volSymmTensorField;
    location    "15";
    object      epsilon;
}
// * * * * * * * * * * * * * * * * * * * * * * * * * * * * * * * * * * * * * //

dimensions      [0 0 0 0 0 0 0];


internalField   nonuniform List<symmTensor> 
1896
(
(0.000752781 -6.46429e-05 -6.94757e-16 -0.000123504 -8.02659e-16 0)
(0.000868269 -5.94466e-05 2.31933e-15 -0.000342959 -1.32446e-15 0)
(0.000714522 -2.85828e-05 -1.65232e-15 -0.000113043 -6.37157e-16 0)
(0.00184553 -4.90573e-05 1.17528e-16 -0.00101682 1.79566e-15 0)
(0.000746833 -7.68992e-05 1.09374e-15 -0.000133248 -1.27613e-15 0)
(0.000732735 -8.01991e-05 -1.18048e-15 -0.000129257 3.88686e-17 0)
(0.00185537 -1.24909e-05 -2.15626e-15 -0.00122406 1.48839e-15 0)
(0.000670747 -0.000135601 5.81132e-16 -0.000138745 -3.8828e-18 0)
(0.000699795 -0.000438804 -1.83577e-15 -0.000522553 1.42529e-15 0)
(0.000644587 -0.00010727 -3.38271e-17 -0.00012119 -3.44275e-16 0)
(0.000740762 -8.74274e-06 -1.86656e-15 -9.28031e-05 -1.04936e-15 0)
(0.000431558 -0.000239663 6.46184e-17 -0.000102052 -2.8461e-16 0)
(0.000405963 -0.00016447 1.60462e-16 -6.62232e-05 4.64943e-16 0)
(0.000392986 -0.000233731 -1.45804e-15 -8.86732e-05 -2.67866e-16 0)
(0.00166666 5.36789e-05 2.90761e-15 -0.000905592 -2.46981e-16 0)
(0.0014231 0.000168928 1.76004e-15 -0.000618493 -6.87818e-16 0)
(0.00100111 -0.000137226 3.63555e-15 -0.000411621 -3.77953e-16 0)
(0.0026844 -0.000948015 8.06213e-16 -0.00112157 -2.42905e-15 0)
(0.00104788 -0.000236353 -1.3752e-15 -0.00042033 2.24864e-16 0)
(0.000400554 -0.000162633 3.15329e-15 -0.000276628 -7.91901e-16 0)
(0.000453361 0.000368091 1.40729e-15 -0.0013301 6.00971e-15 0)
(0.00084724 -0.000176355 2.82326e-15 -0.000294378 -5.90023e-16 0)
(0.0016798 -0.000108825 1.10979e-15 -0.000728645 -2.3138e-15 0)
(0.00179388 -8.38742e-05 -2.92908e-15 -0.000786598 -2.94393e-15 0)
(0.000896987 -0.000112998 -2.43035e-15 -0.000344773 -1.46384e-15 0)
(0.000885364 -0.000108408 -2.31672e-15 -0.000343733 -3.31603e-16 0)
(0.000432527 -0.000115338 -1.59595e-16 -5.82011e-05 8.0232e-16 0)
(0.000439677 -0.000101528 5.55979e-16 -6.29465e-05 1.42674e-17 0)
(0.000736207 -5.86691e-05 2.06606e-15 -0.000103521 -8.0273e-16 0)
(0.00114156 -0.000316663 -1.73472e-18 -0.000465904 -5.88803e-16 0)
(0.0010755 -0.000314975 8.22693e-16 -0.000447523 -5.41938e-16 0)
(0.000875133 -1.78225e-05 -7.73687e-16 -0.00036797 -3.87114e-16 0)
(0.000276822 -0.00018819 1.70003e-16 -0.000129081 -2.18535e-18 0)
(0.000882005 -5.06906e-05 1.94376e-15 -0.000352841 -1.2033e-15 0)
(0.0015798 -4.34484e-05 -1.13473e-14 -0.00066941 -1.22851e-15 0)
(0.000743599 -4.28749e-05 -3.26128e-16 -8.74295e-05 -4.10886e-16 0)
(0.00105466 -0.000302883 -1.69656e-15 -0.000428725 9.07098e-16 0)
(0.000832516 -6.29003e-05 2.07993e-15 -0.000285908 1.64202e-15 0)
(0.00249873 -0.000579317 3.79449e-15 -0.00145135 -2.95423e-15 0)
(0.00116929 -0.00032757 -4.61306e-15 -0.000483637 -1.15652e-15 0)
(0.000876121 -3.13382e-06 1.31405e-15 -0.000376947 -1.18558e-15 0)
(0.000897398 -0.000300369 5.14389e-15 -0.000441099 1.09266e-15 0)
(0.000875074 -0.000397001 7.96672e-16 -0.000337798 7.78295e-16 0)
(0.00128334 -0.000235507 3.00367e-15 -0.000793255 -1.96555e-15 0)
(0.000449969 -9.07998e-05 -5.85469e-16 -5.27182e-05 -1.62064e-16 0)
(0.000389317 -8.73348e-05 -4.25007e-16 -5.28392e-05 3.768e-16 0)
(0.00176916 5.56445e-05 7.19607e-15 -0.00106661 -3.21423e-15 0)
(0.000741685 -2.8255e-05 -9.39353e-16 -9.62025e-05 -1.32009e-15 0)
(0.00141866 -0.000175562 2.52359e-15 -0.000775685 4.07118e-16 0)
(0.00185559 0.000228148 -1.06252e-16 -0.000993242 5.35813e-16 0)
(0.000730843 -4.61011e-05 1.93422e-16 -0.000125916 -3.1284e-16 0)
(0.000709964 -0.000110798 -3.54751e-16 -0.000138201 4.9401e-16 0)
(0.000682536 -0.000119564 -6.50521e-17 -0.000140914 2.45131e-16 0)
(0.000858076 -0.000167153 2.39652e-15 -0.000288785 -1.46638e-17 0)
(0.000713799 -0.000410693 -1.45457e-15 -0.000480752 1.86485e-15 0)
(0.000931317 -2.11126e-05 3.12857e-15 -0.000396771 8.4687e-16 0)
(0.00103308 -0.000355417 -1.76812e-15 -0.000605957 2.90133e-16 0)
(0.000757972 -4.74584e-05 9.34149e-16 -0.000115338 8.10265e-16 0)
(0.000822285 -2.87342e-05 -1.31145e-15 -0.000248713 1.43874e-16 0)
(0.0012175 -5.2073e-05 2.50668e-16 -0.000506717 2.3055e-15 0)
(0.000660917 -0.000105887 -5.20417e-18 -0.000124676 -1.113e-16 0)
(0.00177005 0.000172063 4.35936e-15 -0.000907873 2.69576e-15 0)
(0.00175758 0.000125395 5.00663e-15 -0.000943313 1.69548e-15 0)
(0.000762533 -0.000152097 -7.5287e-16 -0.000180857 1.33568e-15 0)
(0.000396414 -0.000201046 1.90429e-15 -0.000154187 -4.13948e-16 0)
(0.000874184 -8.66639e-06 -6.01082e-16 -0.000370836 -1.45256e-15 0)
(0.00161283 -0.000167623 6.05982e-15 -0.000703215 -1.4447e-15 0)
(0.000542616 -0.000345276 -1.43982e-16 -0.000168103 -2.81303e-16 0)
(0.000819758 -9.55344e-05 1.42508e-15 -0.000257221 3.73481e-16 0)
(0.00160739 -0.000160374 7.40423e-15 -0.000702599 6.75783e-16 0)
(0.000209656 -4.0261e-05 -1.63498e-16 -6.47777e-05 4.28006e-17 0)
(0.00166533 4.0066e-05 -2.86013e-16 -0.000867321 -8.33968e-16 0)
(0.000832291 -9.12038e-05 2.10509e-15 -0.000271328 7.79704e-16 0)
(0.000902994 -1.42792e-05 2.21134e-15 -0.000385204 8.10712e-16 0)
(0.0016724 -5.04842e-05 -1.20346e-14 -0.000719853 -1.45055e-15 0)
(0.000873994 -9.01561e-05 -1.2464e-15 -0.000334415 -1.99005e-16 0)
(0.000883852 -7.5306e-05 -1.63931e-16 -0.000349278 -1.19826e-15 0)
(0.000774686 -0.000111606 3.70363e-16 -0.000174386 7.66951e-16 0)
(0.000789181 -0.000116662 4.60569e-16 -0.000194581 5.82664e-16 0)
(0.000841364 -0.00028772 -1.26635e-16 -0.000273978 -6.0363e-17 0)
(0.000901699 -0.000319808 7.56816e-15 -0.000361456 2.19226e-16 0)
(0.00173165 -0.000133612 1.0898e-14 -0.00075949 -2.78369e-15 0)
(0.000539485 -6.2587e-05 -4.94396e-17 -7.45038e-05 7.31417e-16 0)
(0.000640772 -0.000195075 7.10369e-16 -0.000134705 -4.23103e-16 0)
(0.000615552 -0.000165599 -1.73472e-18 -0.000124485 6.57772e-17 0)
(0.000926266 -0.00027751 -1.53219e-15 -0.000341835 1.02769e-15 0)
(0.000667465 -0.000333568 -9.26342e-16 -0.000190451 4.05769e-16 0)
(0.00063035 -0.000349185 4.571e-16 -0.00018183 7.31301e-16 0)
(0.000954616 -0.00037137 -2.94079e-15 -0.000604945 -2.55384e-16 0)
(0.000748069 -0.000401144 -1.62544e-15 -0.000267957 -3.23377e-16 0)
(0.000747261 -0.000305018 -8.23126e-16 -0.000215667 2.45301e-18 0)
(0.00834985 -0.000700576 -1.88704e-14 -0.00765356 5.70984e-15 0)
(0.000540011 -0.000443421 -3.02276e-16 -0.000374523 1.5805e-16 0)
(0.00110506 -0.000495414 6.35299e-15 -0.000602107 -1.57144e-15 0)
(0.001793 -8.16302e-05 7.05404e-15 -0.000777682 -5.31259e-15 0)
(0.000879579 -0.000151024 6.73073e-16 -0.000316432 -2.85958e-17 0)
(0.000853043 -1.64165e-05 1.17354e-15 -0.000331642 -1.2712e-15 0)
(0.000734795 -9.60159e-06 8.43076e-16 -6.19657e-05 -6.43374e-16 0)
(0.000862051 -8.32064e-06 6.62664e-16 -0.000356958 -1.54699e-15 0)
(0.000655885 -0.000414644 -7.38125e-16 -0.000243836 -9.42036e-17 0)
(0.000675574 -0.00039932 -7.61544e-16 -0.000247722 -2.89414e-16 0)
(0.000477924 -0.000352041 -1.1189e-16 -0.000166411 -2.19754e-16 0)
(0.000763853 -0.000150156 -1.24813e-15 -0.000178086 8.45583e-16 0)
(0.000559381 -0.000416683 -2.86229e-16 -0.000344947 5.6655e-16 0)
(0.000802432 -0.00043517 -2.12981e-15 -0.000441976 5.33102e-16 0)
(0.00086426 -0.00041187 1.24033e-16 -0.000322469 -3.9652e-16 0)
(0.000905864 -0.000271915 -4.43222e-16 -0.000341236 6.91965e-16 0)
(0.00130072 -0.000148663 -6.48353e-16 -0.000783585 -3.87635e-15 0)
(0.00147445 -0.000200341 -2.3345e-15 -0.000683307 3.7264e-16 0)
(0.00706061 -0.000699509 -1.50783e-14 -0.006237 5.19983e-15 0)
(0.00072955 -1.3326e-05 -5.34295e-16 -5.04798e-05 -1.21719e-16 0)
(0.000863639 -1.03519e-05 7.0343e-16 -0.000356229 -1.72806e-15 0)
(0.00130121 -0.0002958 -4.74447e-16 -0.000613905 1.45939e-15 0)
(0.00102686 -0.000417886 -3.6169e-16 -0.000614782 9.27372e-16 0)
(0.0028158 -0.00139766 -5.71331e-15 -0.00266086 -7.56643e-15 0)
(0.000683296 -0.000371519 -3.90313e-16 -0.000218869 -2.08709e-16 0)
(0.000559754 -3.60721e-05 1.47191e-15 -7.72386e-05 3.22659e-16 0)
(0.000749279 -0.000341317 6.7394e-16 -0.000230139 -2.61875e-16 0)
(0.00105378 -0.00023275 1.35482e-15 -0.000700699 -1.05829e-15 0)
(0.00111055 -0.000312439 4.33681e-19 -0.00044857 6.30626e-16 0)
(0.0010705 -0.000184903 6.2797e-16 -0.000692692 -1.00896e-15 0)
(0.0006192 -0.000435165 -2.33147e-15 -0.000496526 1.07499e-16 0)
(0.000837652 -6.61996e-05 2.43468e-15 -0.000284737 9.82396e-16 0)
(0.000548207 -0.00014224 3.03577e-17 -9.55632e-05 -1.78023e-16 0)
(0.000564263 -0.00011982 3.33934e-16 -9.48789e-05 -2.85257e-16 0)
(0.000885587 -0.000428969 -2.06475e-15 -0.000626162 -8.55815e-16 0)
(0.00133232 -0.000188093 1.28933e-15 -0.000812163 -3.41697e-15 0)
(0.000658369 -0.000138394 7.15573e-16 -0.000131253 5.22247e-17 0)
(0.00109605 -0.000143652 -1.05992e-15 -0.000462568 3.08298e-15 0)
(0.000679314 -0.000446567 -7.79325e-16 -0.00028464 5.64043e-16 0)
(0.000722135 -0.000436463 -1.53827e-15 -0.000303282 7.3906e-16 0)
(0.000756316 -0.000297103 6.50521e-18 -0.000230617 1.40879e-16 0)
(0.00137889 -0.000292762 -8.34402e-16 -0.000668847 5.20959e-16 0)
(0.00105174 -0.000431587 8.36267e-15 -0.000424879 2.83389e-15 0)
(0.00103078 -0.00023131 -2.2881e-15 -0.000416473 -4.01046e-16 0)
(0.00178106 0.000175245 -2.89417e-15 -0.000855639 4.55365e-16 0)
(0.0014511 -0.000139444 4.67074e-15 -0.000845132 2.83194e-16 0)
(0.00156513 -0.000192293 2.29677e-15 -0.000867405 2.01943e-15 0)
(0.000881306 -1.28705e-05 3.72966e-16 -0.000374915 -1.64479e-15 0)
(0.00121832 -0.000349944 1.12323e-15 -0.000518767 4.10371e-17 0)
(0.000835174 -0.000119709 1.1189e-16 -0.000268383 2.39744e-16 0)
(0.00126507 -0.000261308 -5.54678e-15 -0.000723803 1.9082e-16 0)
(0.0011475 -0.000322804 -4.30515e-15 -0.000480051 -1.76503e-15 0)
(0.00200429 0.00048102 -1.75587e-16 -0.000821818 1.64929e-15 0)
(0.000694638 -0.0002518 -1.29237e-16 -0.00017761 3.19148e-16 0)
(0.000962458 -0.00020692 -1.85442e-15 -0.000368326 -9.48135e-17 0)
(0.000930167 -0.000195687 -2.77122e-15 -0.000370703 2.43674e-16 0)
(0.00110594 -0.000145926 2.498e-16 -0.000469912 3.08244e-15 0)
(0.00170543 -7.469e-05 2.01727e-15 -0.0007888 -1.86374e-16 0)
(0.000709296 -0.000356102 7.02563e-17 -0.000221731 -1.84084e-16 0)
(0.000472942 -0.00016195 4.26742e-16 -6.99047e-05 7.89774e-17 0)
(0.000858447 -4.12712e-05 -5.53377e-16 -0.000334345 -1.42987e-15 0)
(0.000832101 -0.000131302 -2.90566e-16 -0.000280435 -4.76371e-16 0)
(0.000784656 -0.000163333 3.23613e-15 -0.000215664 4.99424e-16 0)
(0.000779032 -0.000184614 1.7937e-15 -0.00022034 5.33021e-16 0)
(0.00122566 -0.000323959 2.03266e-15 -0.000648658 -4.53739e-16 0)
(0.000507832 -3.56619e-05 9.8966e-16 -7.67813e-05 5.20441e-16 0)
(0.00116464 -0.000349639 -5.47739e-16 -0.000646689 -4.42029e-16 0)
(0.00605809 -0.00420488 4.18394e-14 -0.00487794 9.06697e-15 0)
(0.000700174 -7.58833e-05 -2.19789e-15 -0.00012999 3.72728e-17 0)
(0.000702668 -0.000105934 1.67401e-16 -0.000141443 2.68279e-16 0)
(0.001807 -4.3366e-05 1.31848e-14 -0.000779522 -2.11192e-15 0)
(0.000675011 -0.000360041 -2.38655e-15 -0.00053597 -4.8968e-16 0)
(0.000815635 -5.79367e-05 -2.1632e-15 -0.000231011 -1.08935e-16 0)
(0.00298965 -1.83855e-05 -8.78594e-15 -0.00142681 3.88795e-15 0)
(0.000630965 -0.000110215 6.14092e-16 -0.000113779 -7.58352e-16 0)
(0.00147027 0.000172879 2.12769e-15 -0.000418935 9.41695e-15 0)
(0.000747454 -5.11302e-05 7.63278e-17 -0.000110545 -3.38047e-16 0)
(0.000742874 -3.69717e-05 -7.31186e-16 -8.20938e-05 -7.45602e-16 0)
(0.000859021 -4.21596e-05 5.68989e-16 -0.000332969 -2.26853e-15 0)
(0.000865144 -3.14329e-05 2.6602e-15 -0.000352256 -2.64415e-15 0)
(0.000883893 -2.47478e-05 -5.72632e-15 -0.00037486 7.48099e-17 0)
(0.000299932 -0.000239141 3.08781e-16 -0.00011848 -1.64714e-16 0)
(0.000330449 -0.000249761 3.89445e-16 -0.00011548 -2.01323e-16 0)
(0.00161311 -6.22017e-05 -2.59341e-16 -0.000928552 1.95807e-16 0)
(0.00162937 -6.13326e-05 1.08377e-15 -0.000981397 -9.6082e-16 0)
(0.00150668 -0.000128991 3.83374e-15 -0.000805804 1.73245e-15 0)
(0.000883198 -0.000134884 -1.22471e-15 -0.000334674 -5.02365e-16 0)
(0.00072521 -1.87827e-05 -1.3262e-15 -7.24757e-05 -1.46914e-15 0)
(0.000682535 -0.000435377 -1.95807e-15 -0.000399566 1.96937e-15 0)
(0.000253157 -0.000256023 2.10769e-16 -0.000119805 -2.08878e-17 0)
(0.00120704 -0.000128934 5.78964e-16 -0.000502091 6.64616e-17 0)
(0.000797031 -0.000152861 4.06966e-15 -0.000208114 -5.20187e-16 0)
(0.00155794 -7.48391e-05 3.39225e-15 -0.000764186 6.70254e-16 0)
(0.0016532 -2.91256e-05 1.87068e-15 -0.000954821 -6.23199e-16 0)
(0.00405439 8.92363e-06 -4.96917e-15 -0.00153928 9.85063e-15 0)
(0.000631319 -0.000381751 -1.19002e-15 -0.000216485 -2.45572e-17 0)
(0.00182497 0.000480996 5.92657e-15 -0.000884378 2.52229e-15 0)
(0.000567863 0.00014487 -1.75467e-15 -0.00163258 5.85961e-15 0)
(0.000197462 -0.00019148 -3.00975e-16 -0.000415757 -4.86265e-16 0)
(0.00145286 -0.000146397 5.19073e-15 -0.000846104 -1.02934e-15 0)
(0.000729754 -3.30686e-05 1.06512e-15 -7.57333e-05 -1.2137e-15 0)
(0.00125968 -0.00025028 5.45137e-16 -0.000743904 1.67834e-16 0)
(0.00202107 6.24969e-06 5.24971e-16 -0.000876044 -2.29786e-15 0)
(0.000623362 -0.000341076 5.1582e-15 -0.000191984 -2.20744e-16 0)
(0.000418009 -0.000292717 3.83808e-16 -0.000139967 -3.30587e-16 0)
(0.000895463 -0.000404817 -1.87697e-15 -0.000341448 -1.2368e-16 0)
(0.00118198 -0.000233664 1.66013e-15 -0.000720226 -1.95026e-15 0)
(0.000407347 -0.00031122 4.8312e-16 -0.000124363 -7.88757e-17 0)
(0.000515516 -8.84529e-05 2.28983e-16 -7.79907e-05 2.58196e-16 0)
(0.000621275 -0.00034261 -5.46438e-17 -0.00018403 4.74088e-16 0)
(0.000720747 -0.000198716 5.34165e-15 -0.000442225 -7.62628e-16 0)
(0.000740219 -4.30474e-05 3.02102e-15 -0.000103628 -7.73077e-16 0)
(0.000794952 -0.000171987 3.2448e-15 -0.000210456 1.74719e-16 0)
(0.00209532 0.00037671 4.83663e-15 -0.00108667 7.19303e-15 0)
(0.000777437 -0.000172137 -4.0766e-17 -0.000196281 8.61792e-16 0)
(0.0014055 -0.000162198 -2.54961e-15 -0.000775872 -4.36608e-16 0)
(0.00145937 -0.000215123 1.84401e-15 -0.000629576 -3.21195e-16 0)
(0.000431486 -4.02817e-05 -3.71491e-15 -0.00116298 1.28776e-15 0)
(0.000921214 -3.25037e-05 5.81132e-17 -0.000400353 -7.88215e-16 0)
(0.00169496 -3.82554e-05 8.23083e-15 -0.000727081 -1.81972e-15 0)
(0.00105085 -0.000302864 -3.21358e-15 -0.000428601 1.40564e-15 0)
(0.000930074 -0.000118106 3.0722e-15 -0.000386019 7.33463e-17 0)
(0.000946467 -0.000105789 3.66113e-15 -0.000381489 -4.27772e-16 0)
(0.000467593 -0.000291714 -1.47625e-15 -0.000118661 -4.68348e-16 0)
(0.000687323 -0.000466857 -2.03873e-15 -0.000395122 1.71366e-15 0)
(0.000867925 -0.000269083 3.40873e-15 -0.000497074 -4.32814e-16 0)
(0.0013864 -0.000119532 -1.74426e-15 -0.000582161 1.66322e-15 0)
(0.00128972 -0.000130965 9.81853e-16 -0.000561592 1.83002e-15 0)
(0.00110035 -0.000321833 -4.4539e-16 -0.000462507 -6.44396e-16 0)
(0.000304111 -0.000230188 -2.77556e-16 -0.000531752 -4.82334e-16 0)
(0.000790445 -0.000194351 2.47198e-16 -0.000214699 5.8303e-17 0)
(0.00193887 -9.92062e-06 9.10686e-15 -0.000852077 1.6044e-15 0)
(0.00152164 -0.000222799 -3.02623e-15 -0.000708733 1.45587e-15 0)
(0.00085342 -1.47626e-05 1.83013e-16 -0.000337412 -6.31412e-16 0)
(0.00113199 -0.000357653 1.85876e-15 -0.000484608 -6.41251e-16 0)
(0.00132588 -0.000240989 2.06345e-15 -0.000756625 2.2816e-15 0)
(0.000911485 -0.000221362 -2.70617e-16 -0.000348906 -3.78061e-16 0)
(0.00154947 0.000361306 1.31915e-15 -0.000392655 5.25144e-15 0)
(0.000880121 -2.34894e-05 2.26295e-15 -0.000365421 -6.03087e-16 0)
(0.00154509 0.000324431 4.18486e-15 -0.000570247 3.85325e-15 0)
(0.000697452 -9.93389e-05 -2.6975e-16 -0.000134118 -6.87621e-17 0)
(0.000673828 -8.19268e-05 -1.09981e-15 -0.000126844 -1.11198e-16 0)
(0.000717469 -5.53069e-06 -1.51788e-16 -1.90996e-05 -2.39202e-18 0)
(0.000871268 -1.67407e-06 1.26201e-15 -0.000375786 -1.13885e-15 0)
(0.000723137 -0.000169548 1.09721e-15 -0.000160152 4.36107e-16 0)
(0.000485233 -0.000348571 -5.63785e-17 -0.000151681 -3.60673e-16 0)
(0.00116849 -0.000190014 3.10038e-15 -0.000734874 -2.40118e-15 0)
(0.00223193 0.000471645 -9.53865e-15 -0.000825954 4.48469e-15 0)
(0.0011491 -5.55883e-05 2.89699e-16 -0.000506244 2.63808e-15 0)
(0.00128638 -0.000202651 2.68622e-15 -0.000722974 1.75229e-15 0)
(0.00138441 -0.000122339 5.55979e-16 -0.000793609 -1.4306e-15 0)
(0.000518136 -0.000274729 -5.53377e-16 -0.000119713 -7.67141e-17 0)
(0.0026683 0.000435757 -6.375e-15 -0.00125044 6.50088e-16 0)
(0.000847402 -0.000178439 2.01488e-15 -0.000271693 -4.45526e-16 0)
(0.000387177 -0.000253154 7.45931e-16 -0.000104693 4.32495e-17 0)
(0.000816076 -2.08052e-05 -2.29764e-15 -0.000258602 -1.08804e-15 0)
(0.00035204 -0.000242616 8.86444e-16 -0.000101755 -1.66818e-16 0)
(0.000370863 -0.000219659 6.53123e-16 -9.42547e-05 -2.92399e-16 0)
(0.0013653 -0.000220997 2.47155e-15 -0.000591655 -1.52932e-15 0)
(0.000776638 -0.000209619 -3.54317e-16 -0.000669287 -2.7452e-15 0)
(0.0009272 -0.000415416 3.36927e-15 -0.000369349 1.05729e-15 0)
(0.000873206 -3.26969e-05 9.29812e-16 -0.000352547 -3.93945e-16 0)
(0.000731263 -8.89445e-06 1.48492e-15 -5.75249e-05 2.21181e-16 0)
(0.00086989 -1.63348e-06 1.67141e-15 -0.000371624 -2.93168e-16 0)
(0.000806883 -0.000223098 8.88178e-16 -0.000254595 4.74664e-16 0)
(0.000419827 -0.000405589 -2.94469e-16 -0.00032338 -1.07892e-16 0)
(0.00214335 0.00059904 1.03802e-15 -0.000844457 1.14448e-15 0)
(0.0017392 0.000117918 3.89402e-15 -0.000878813 2.02854e-15 0)
(0.00156613 -0.000140003 -6.90897e-15 -0.000668038 -6.94215e-16 0)
(0.00109316 -9.72321e-05 -2.21264e-15 -0.000462804 1.2632e-15 0)
(0.000405966 0.000234733 7.12971e-16 -0.000890722 -1.47668e-15 0)
(0.000275631 0.00019452 5.76796e-16 -0.000884822 -9.85215e-16 0)
(0.000561494 -0.000315564 3.26562e-16 -0.0001529 3.36719e-16 0)
(0.00100257 -0.000133791 3.06873e-15 -0.000424914 3.29814e-16 0)
(0.000886397 -0.000461573 3.26562e-16 -0.000512307 7.38233e-16 0)
(0.00126 4.35975e-06 1.60833e-15 -0.000438194 6.47442e-15 0)
(0.000562606 -0.000425607 3.45644e-16 -0.000238351 1.57872e-15 0)
(0.00117922 -8.03971e-05 -4.8312e-16 -0.000510958 4.63822e-16 0)
(0.000801923 -0.000215165 7.41594e-16 -0.000230548 2.12531e-16 0)
(0.000618792 -0.000410736 1.92554e-16 -0.000238632 3.01611e-16 0)
(0.000161012 1.7788e-05 -3.83374e-16 -0.00053666 -1.85053e-16 0)
(0.00191764 3.9335e-05 -7.39968e-15 -0.000827812 -1.16552e-15 0)
(0.000361469 -0.000184481 1.81279e-16 -6.69273e-05 -5.71901e-16 0)
(0.00098178 -0.000172699 1.73039e-15 -0.000403144 2.63353e-16 0)
(0.000357122 -0.000319746 -1.88217e-16 -0.000272901 -8.97177e-18 0)
(0.00144807 -0.00025585 -5.33731e-15 -0.000675584 1.36479e-15 0)
(0.000784891 -2.64655e-05 4.75314e-16 -0.000161092 3.83774e-16 0)
(0.000816956 -0.000251097 4.31946e-16 -0.000247292 -1.19325e-15 0)
(0.000721676 -1.32024e-05 -2.68795e-15 -9.2919e-05 -9.26022e-16 0)
(0.000891285 -1.49119e-05 -1.96718e-15 -0.000380842 -1.36013e-16 0)
(0.00144597 -0.000199249 1.42941e-15 -0.000619435 2.44325e-16 0)
(0.00031853 -0.000270127 -3.72966e-17 -0.000213518 1.92812e-16 0)
(0.000863777 -2.69572e-06 9.59302e-16 -0.000367846 -1.61519e-15 0)
(0.000903847 -0.000220149 1.26114e-15 -0.000329899 -7.79623e-16 0)
(0.00142214 0.000401386 2.6731e-15 -0.000620878 -1.98799e-15 0)
(0.000864629 -0.0003046 1.36263e-15 -0.000303042 2.32046e-16 0)
(0.000726121 -0.000352451 -1.89952e-16 -0.000223316 -1.33276e-16 0)
(0.000816421 -0.000299077 -4.88325e-16 -0.000275008 7.60568e-17 0)
(0.000725998 -1.12898e-05 -9.34149e-16 -7.36506e-05 -6.06215e-16 0)
(0.00117242 0.000187084 -2.48337e-16 -0.000481864 -1.02696e-15 0)
(0.00103311 -0.000269693 -1.47018e-15 -0.000411733 1.42616e-15 0)
(0.00103928 -0.000332159 -1.8709e-15 -0.000412612 -8.18464e-16 0)
(0.00088632 -0.000309064 1.30668e-15 -0.000319368 5.717e-16 0)
(0.00255488 0.000229767 1.42258e-15 -0.00056813 5.88115e-15 0)
(0.000267873 -4.54844e-05 -1.5439e-16 -6.45815e-05 1.55738e-16 0)
(0.00143044 0.000156334 7.44782e-15 -0.000633966 -2.11896e-15 0)
(0.000667508 -0.000366491 1.05384e-15 -0.000201215 1.20848e-16 0)
(0.00230063 0.000403612 2.49258e-15 -0.00115456 5.17902e-15 0)
(0.000291701 -0.000159612 4.44523e-16 -0.00056872 2.29526e-16 0)
(0.00201819 0.000564832 5.01877e-15 -0.000878472 3.74874e-15 0)
(0.00101924 -0.000341223 -2.90566e-16 -0.000416609 -3.12088e-16 0)
(0.00165572 -7.97682e-05 1.87047e-15 -0.000760955 1.27112e-15 0)
(0.00193692 0.000125056 4.03974e-15 -0.00103916 -3.48983e-15 0)
(0.000816195 -0.000182569 2.60295e-15 -0.000257658 8.21608e-16 0)
(0.000720259 -0.000216435 1.05038e-15 -0.000175049 4.98597e-16 0)
(0.000698096 -0.000223427 5.37764e-17 -0.000175051 4.65075e-16 0)
(0.000237783 -0.00028447 4.29344e-17 -0.000169961 1.29362e-16 0)
(0.000327094 -0.000278065 1.20563e-16 -0.000172656 8.83625e-18 0)
(0.000800412 -0.000243761 1.30885e-15 -0.000250495 -6.58897e-16 0)
(0.000806962 -7.09824e-05 -2.29764e-15 -0.000244127 2.70644e-16 0)
(0.000771904 -0.000400119 1.20563e-16 -0.000268811 -5.13573e-16 0)
(0.000325012 -0.000213255 4.50161e-16 -9.31956e-05 -1.09955e-16 0)
(0.000733397 -3.57607e-05 1.34094e-15 -7.91455e-05 -1.18427e-15 0)
(0.000865518 -2.42482e-05 1.65406e-15 -0.00034436 -2.00155e-15 0)
(0.00109934 -0.000181317 7.97973e-17 -0.000453761 3.55982e-15 0)
(0.000605678 -1.8916e-05 1.56125e-17 -0.000100317 3.61066e-16 0)
(0.000826698 -6.51921e-05 1.76335e-15 -0.000260594 1.10038e-15 0)
(0.000943328 -0.000405098 3.92915e-15 -0.000369289 -4.20047e-16 0)
(0.000805148 -9.9946e-05 1.16226e-16 -0.000213728 3.86505e-16 0)
(0.000691628 -0.000257163 1.30711e-15 -0.00017456 -6.73601e-16 0)
(0.00178415 0.00021351 3.62351e-15 -0.000782134 4.70977e-16 0)
(0.00170837 0.000274763 2.2816e-15 -0.000805495 1.5361e-15 0)
(0.000943369 -0.000428182 3.51715e-16 -0.000391695 -7.52301e-16 0)
(0.000322781 -0.000360072 -4.98733e-17 -0.000235911 -6.23687e-17 0)
(0.000800699 -0.000411358 -1.08811e-15 -0.000304497 -5.20553e-16 0)
(0.00088978 -0.000429451 3.84501e-15 -0.000364392 -6.72829e-16 0)
(0.000307864 -0.000290139 3.52149e-16 -0.000157779 -1.25571e-16 0)
(0.000753708 -9.49867e-05 -1.17007e-15 -0.000144307 3.68276e-16 0)
(0.000862567 -8.01307e-05 -3.19623e-15 -0.000311057 -9.39461e-17 0)
(0.000279321 8.35737e-05 1.20477e-15 -0.000847571 -9.30056e-16 0)
(0.0010754 -2.973e-05 -3.88144e-15 -0.000461451 -3.68087e-17 0)
(0.000725315 -2.17685e-05 5.9848e-17 -4.95402e-05 -6.59212e-17 0)
(0.000871877 -8.20661e-06 7.43329e-16 -0.00036765 1.31243e-16 0)
(0.000636739 -7.17613e-05 2.74086e-16 -0.000112631 -2.01413e-16 0)
(0.000479888 0.000241607 2.17795e-15 -0.0010558 6.10026e-15 0)
(0.000485811 -0.000284758 -7.86263e-16 -0.000122302 -4.11312e-16 0)
(0.00170955 -5.12449e-05 -4.71433e-15 -0.000744342 -3.32416e-16 0)
(0.000757185 -7.99156e-05 -8.40474e-16 -0.00013198 -7.74324e-17 0)
(0.00085974 -7.07186e-05 -1.29237e-15 -0.000331513 -2.23508e-16 0)
(0.000987278 -0.00044514 -1.3314e-16 -0.000465656 -8.49635e-16 0)
(0.000331473 -5.69814e-05 4.91794e-16 -0.000769785 1.9353e-17 0)
(0.00104646 -0.000386073 -1.42854e-15 -0.000443574 -1.88814e-16 0)
(0.000760088 -0.00047616 -1.74253e-15 -0.000462996 1.84626e-15 0)
(0.000481298 -0.000157222 8.78637e-16 -7.98683e-05 6.39849e-17 0)
(0.00105586 -0.000235276 -1.10762e-15 -0.000442496 1.99005e-16 0)
(0.00101191 -0.000302105 -4.43135e-15 -0.000402933 3.27212e-16 0)
(0.00134722 -0.000526333 7.30752e-15 -0.000660607 -4.21494e-15 0)
(0.000659289 -0.00039082 8.17055e-16 -0.000216108 -1.48414e-16 0)
(0.000363389 1.32485e-05 2.22045e-15 -0.000989389 -8.78556e-16 0)
(0.000266381 -0.000231216 -3.07046e-16 -0.000365712 3.61283e-16 0)
(0.000767968 -9.97066e-05 -1.27762e-15 -0.000159573 6.93429e-16 0)
(0.000860834 -0.000327172 -2.91997e-15 -0.000628999 -7.55364e-16 0)
(0.000892493 -0.000318358 4.38018e-16 -0.000319264 -4.62927e-16 0)
(0.00102556 -0.000185808 9.08128e-16 -0.000411105 1.01199e-15 0)
(0.00109731 -0.000230857 -1.1614e-15 -0.000444111 8.87148e-16 0)
(0.000157006 0.000229369 -7.02129e-16 -0.000429587 -1.81463e-15 0)
(0.00221448 -0.000277296 1.45676e-14 -0.00130375 -5.54461e-15 0)
(0.000715744 -0.000368652 4.57967e-16 -0.000224646 -3.6127e-16 0)
(0.00113715 -0.000246859 4.12084e-15 -0.000757905 -1.03444e-15 0)
(0.000901711 -0.000398267 -2.76905e-15 -0.000673641 1.24846e-16 0)
(0.00235413 3.39876e-05 -1.06515e-15 -0.000534467 8.33535e-16 0)
(0.0027214 -0.000367925 1.47024e-14 -0.00132317 -7.17135e-15 0)
(0.000404429 -0.000143724 1.98626e-16 -0.000706712 8.22367e-17 0)
(0.000866459 -0.00010247 1.56125e-17 -0.000316777 9.464e-16 0)
(0.000979983 -0.00017722 1.11022e-16 -0.000387162 8.98424e-16 0)
(0.0012509 -0.000332634 -5.21328e-15 -0.000548432 2.24403e-15 0)
(0.00118166 -0.000369441 -4.10002e-15 -0.000529364 7.3368e-16 0)
(0.000827597 -0.000340619 1.65406e-15 -0.000273485 8.21364e-16 0)
(0.000919238 0.000105906 2.5211e-15 -0.00038374 2.54657e-15 0)
(0.00178975 0.000155452 3.37837e-15 -0.000941415 -1.07813e-15 0)
(0.000372576 -0.000177211 -9.8966e-16 -6.93815e-05 -2.47601e-16 0)
(0.000725263 -7.92586e-06 2.22912e-16 -4.42997e-05 9.10436e-16 0)
(0.000868669 -1.47705e-06 2.40693e-15 -0.000370411 -9.2374e-17 0)
(0.000867728 -8.97011e-05 -5.42101e-16 -0.000326459 8.82432e-16 0)
(0.00051245 -0.000437517 1.30104e-17 -0.000297076 3.69537e-16 0)
(0.00239042 -0.00136981 -2.96898e-15 -0.000821592 -2.73869e-15 0)
(0.000975672 -0.000408019 -2.43078e-15 -0.0006242 -1.14194e-15 0)
(0.000688349 -0.000322657 -5.33427e-16 -0.000193312 -3.15855e-16 0)
(0.000664159 -0.00038063 1.44936e-15 -0.000219847 -2.11243e-16 0)
(0.000595426 -0.000357314 -1.43115e-16 -0.000173225 1.74767e-16 0)
(0.000869331 -4.57587e-06 2.49974e-15 -0.000366586 -1.18812e-15 0)
(0.000328142 -0.000256992 -1.8258e-16 -0.000446396 1.20374e-16 0)
(0.000796913 -0.000108891 5.51642e-16 -0.000222871 -1.9639e-16 0)
(0.000509225 -0.000396913 1.31666e-15 -0.000290648 7.40551e-16 0)
(0.000774834 -2.27149e-05 1.33921e-15 -0.000160265 -9.78601e-16 0)
(0.00247207 -0.000163753 8.29285e-15 -0.00135796 -6.14222e-15 0)
(0.000854649 -9.26833e-05 -1.06512e-15 -0.000324187 3.11518e-16 0)
(0.000736726 -1.81725e-05 8.71699e-16 -7.34106e-05 -9.84076e-16 0)
(0.00260194 -2.63819e-05 8.21088e-15 -0.00129616 -1.07024e-14 0)
(0.000674845 -0.000167891 1.22211e-15 -0.000141064 2.3477e-16 0)
(0.000752063 -8.94939e-05 -3.03577e-16 -0.000144207 -5.03544e-16 0)
(0.0018137 8.65268e-05 4.3522e-15 -0.000784843 3.44386e-15 0)
(0.00103895 -0.000678683 1.30989e-14 -0.000485702 1.26613e-15 0)
(0.000731905 -0.00018585 -1.63931e-16 -0.000179099 1.34251e-16 0)
(0.000270404 -0.000319976 -5.20417e-16 -0.000334548 2.33835e-16 0)
(0.00123288 -0.00020819 1.33444e-15 -0.00050948 -4.68158e-16 0)
(0.0012951 -0.000319659 -3.90226e-15 -0.000570742 8.48768e-16 0)
(0.000839675 -0.000213237 -7.11237e-16 -0.000275072 5.72269e-16 0)
(0.000828822 -0.000221089 -4.80518e-16 -0.000265183 4.3772e-16 0)
(0.00082797 -0.000336784 4.30211e-16 -0.000290276 4.10913e-17 0)
(0.000969174 0.000303026 3.62083e-15 -0.000352894 2.70053e-15 0)
(0.00107591 -6.90999e-05 -2.80114e-15 -0.000468622 -7.48425e-16 0)
(0.000222197 -4.48511e-05 -1.27936e-16 -8.3394e-05 -7.28364e-18 0)
(0.00117324 -0.000243447 -8.36137e-16 -0.000498782 -1.2696e-16 0)
(0.00076397 -0.00031254 -1.25811e-15 -0.000629951 3.4521e-16 0)
(0.000842095 -0.000291301 -2.3306e-15 -0.000294602 -6.36969e-17 0)
(0.00193054 -3.62314e-05 1.18221e-14 -0.000840658 5.40171e-15 0)
(0.000330993 -0.00012298 -7.37257e-17 -5.82379e-05 -2.65435e-16 0)
(0.00162898 0.000159291 9.24011e-15 -0.00068199 -2.18055e-15 0)
(0.000836948 -0.00043623 5.39933e-16 -0.000369168 -1.63636e-15 0)
(0.000561365 -0.000176888 4.11997e-16 -9.87653e-05 -5.49182e-17 0)
(0.000524025 -0.000182681 5.42101e-16 -9.4868e-05 1.0241e-16 0)
(0.0017376 0.000616466 -2.8224e-15 -0.000631611 1.65493e-15 0)
(0.00130116 -0.000296754 9.6147e-16 -0.000574774 -1.3146e-16 0)
(0.00137601 -0.000248944 2.32019e-15 -0.000578348 -9.7318e-16 0)
(0.000776706 -0.000203177 -1.04344e-15 -0.000218705 -5.46465e-16 0)
(0.00539182 -0.000841114 2.20147e-15 -0.00264267 -5.05455e-15 0)
(0.000873588 -0.00046504 1.12367e-15 -0.000403362 -1.65035e-15 0)
(0.000674248 -0.000195039 1.55865e-15 -0.000156365 2.07177e-16 0)
(0.000854296 -0.000407039 2.6975e-16 -0.0005349 7.18284e-16 0)
(0.000721727 -5.53688e-06 2.95076e-15 -3.26288e-05 4.50798e-16 0)
(0.000868453 1.4577e-06 1.39992e-15 -0.000371887 8.6129e-16 0)
(0.00158222 -4.91875e-06 1.0339e-15 -0.000883963 6.29488e-16 0)
(0.0011668 -0.000361138 9.74481e-16 -0.000491816 -2.94713e-15 0)
(0.000735229 -0.000412995 -1.33053e-15 -0.000261005 -6.43813e-16 0)
(0.000292075 -0.0002915 -2.56739e-16 -0.000479402 1.24927e-16 0)
(0.0012221 -4.20107e-05 1.37043e-16 -0.000532135 2.05977e-15 0)
(0.00164073 -0.000168069 -3.63468e-15 -0.00103132 1.61589e-15 0)
(0.00196186 -0.000163971 8.3592e-16 -0.00103786 1.91297e-15 0)
(0.000406567 -3.9958e-05 -3.81639e-17 -0.000695724 4.38885e-16 0)
(0.000817972 -0.000374999 -1.41337e-15 -0.000646341 -9.509e-16 0)
(0.000897731 -0.000450075 1.88738e-15 -0.000385289 -1.03105e-15 0)
(0.000918451 -0.000180081 -2.16927e-15 -0.000341205 -5.40366e-16 0)
(0.00109021 -0.000388573 2.1207e-16 -0.000493371 9.30408e-16 0)
(0.00107367 -0.000427505 -2.05435e-15 -0.00051161 1.8361e-16 0)
(0.000898308 -3.0363e-05 -4.96912e-15 -0.000383782 -3.30356e-16 0)
(0.00654584 -0.000334535 2.92182e-15 -0.00480418 -1.05254e-14 0)
(0.000971455 -0.000300341 -1.59464e-15 -0.000714089 -2.62279e-15 0)
(0.000816249 -5.61991e-05 -1.66533e-16 -0.000268308 7.48777e-16 0)
(0.000869751 -0.000319407 -3.06526e-15 -0.000657508 -2.58734e-15 0)
(0.00123027 -0.000152986 1.5361e-15 -0.000507567 -5.61834e-16 0)