/*--------------------------------*- C++ -*----------------------------------*\
| =========                 |                                                 |
| \\      /  F ield         | OpenFOAM: The Open Source CFD Toolbox           |
|  \\    /   O peration     | Version:  v2012                                 |
|   \\  /    A nd           | Website:  www.openfoam.com                      |
|    \\/     M anipulation  |                                                 |
\*---------------------------------------------------------------------------*/
FoamFile
{
    version     2.0;
    format      ascii;
    class       volVectorField;
    location    "10";
    object      D;
}
// * * * * * * * * * * * * * * * * * * * * * * * * * * * * * * * * * * * * * //

dimensions      [0 1 0 0 0 0 0];


internalField   nonuniform List<vector> 
8000
(
(0.000111571 -0.00163959 0)
(0.00020405 -0.00167653 0)
(0.000103819 -0.00177751 0)
(0.000189748 -0.00181868 0)
(9.87421e-05 -0.00190788 0)
(0.000181776 -0.00194906 0)
(9.50331e-05 -0.00203014 0)
(0.000176158 -0.00206936 0)
(9.18761e-05 -0.0021442 0)
(0.000171313 -0.00218099 0)
(8.89708e-05 -0.00225042 0)
(0.000166454 -0.00228445 0)
(8.60203e-05 -0.00234871 0)
(0.000161238 -0.00237972 0)
(8.29399e-05 -0.00243887 0)
(0.000155491 -0.00246668 0)
(7.96012e-05 -0.00252072 0)
(0.000149171 -0.00254522 0)
(7.60043e-05 -0.00259414 0)
(0.000142252 -0.00261521 0)
(7.21127e-05 -0.00265905 0)
(0.000134725 -0.00267657 0)
(6.78758e-05 -0.00271541 0)
(0.000126666 -0.00272937 0)
(6.32998e-05 -0.00276336 0)
(0.000118276 -0.00277387 0)
(5.8526e-05 -0.00280325 0)
(0.000109813 -0.00281053 0)
(5.36932e-05 -0.00283567 0)
(0.000101592 -0.00284012 0)
(4.89848e-05 -0.00286151 0)
(9.39356e-05 -0.0028636 0)
(4.46139e-05 -0.00288182 0)
(8.71132e-05 -0.0028821 0)
(4.08015e-05 -0.00289775 0)
(8.12771e-05 -0.00289671 0)
(3.77682e-05 -0.00291033 0)
(7.64193e-05 -0.00290829 0)
(3.57655e-05 -0.0029204 0)
(7.28729e-05 -0.00291881 0)
(0.000356121 -0.00166786 0)
(0.000438952 -0.00171945 0)
(0.000356532 -0.00179331 0)
(0.00044011 -0.00184291 0)
(0.000354271 -0.00191717 0)
(0.000436757 -0.0019637 0)
(0.000349981 -0.00203569 0)
(0.00043058 -0.00207826 0)
(0.000343855 -0.0021471 0)
(0.000422171 -0.00218564 0)
(0.000336026 -0.00225098 0)
(0.000411744 -0.00228538 0)
(0.000326714 -0.00234699 0)
(0.000399436 -0.00237709 0)
(0.000315962 -0.00243478 0)
(0.00038536 -0.00246041 0)
(0.000303912 -0.00251411 0)
(0.000369571 -0.00253504 0)
(0.000290566 -0.00258476 0)
(0.000352176 -0.00260082 0)
(0.000275968 -0.00264661 0)
(0.000333384 -0.00265774 0)
(0.000260333 -0.00269973 0)
(0.00031355 -0.00270606 0)
(0.000243968 -0.00274446 0)
(0.000293204 -0.00274635 0)
(0.000227333 -0.00278139 0)
(0.000273048 -0.00277949 0)
(0.000211029 -0.00281142 0)
(0.000253821 -0.00280651 0)
(0.000195701 -0.00283559 0)
(0.000236197 -0.00282851 0)
(0.00018193 -0.00285505 0)
(0.000220709 -0.00284655 0)
(0.000170183 -0.0028709 0)
(0.000207692 -0.00286154 0)
(0.000160753 -0.00288401 0)
(0.000197191 -0.002874 0)
(0.000153732 -0.00289516 0)
(0.000189021 -0.00288477 0)
(0.000620425 -0.00169389 0)
(0.000704381 -0.00174631 0)
(0.000616546 -0.00181908 0)
(0.000697319 -0.00187056 0)
(0.000611597 -0.00193922 0)
(0.000689884 -0.00198729 0)
(0.000604294 -0.00205275 0)
(0.000680088 -0.00209609 0)
(0.000594095 -0.00215872 0)
(0.000667278 -0.00219705 0)
(0.000581023 -0.00225701 0)
(0.00065124 -0.00229001 0)
(0.000565084 -0.00234728 0)
(0.000631923 -0.00237459 0)
(0.00054636 -0.00242912 0)
(0.000609368 -0.00245035 0)
(0.000524908 -0.0025021 0)
(0.000583729 -0.00251693 0)
(0.000500905 -0.00256597 0)
(0.00055537 -0.0025743 0)
(0.000474666 -0.00262072 0)
(0.000524916 -0.0026228 0)
(0.000446838 -0.00266679 0)
(0.000493278 -0.00266326 0)
(0.000418301 -0.00270499 0)
(0.000461558 -0.0026968 0)
(0.000390079 -0.00273644 0)
(0.000430875 -0.0027247 0)
(0.000363206 -0.00276238 0)
(0.000402248 -0.00274819 0)
(0.000338594 -0.00278401 0)
(0.000376485 -0.00276832 0)
(0.000316961 -0.00280237 0)
(0.000354115 -0.0027859 0)
(0.000298764 -0.00281831 0)
(0.000335354 -0.00280148 0)
(0.000284117 -0.00283242 0)
(0.000320103 -0.00281532 0)
(0.000272684 -0.00284485 0)
(0.000307861 -0.00282736 0)
(0.000866922 -0.00174163 0)
(0.000945002 -0.00179732 0)
(0.000862581 -0.0018602 0)
(0.000937836 -0.00191321 0)
(0.000855758 -0.00197309 0)
(0.000928308 -0.00202159 0)
(0.000845643 -0.0020788 0)
(0.000915312 -0.00212146 0)
(0.000831685 -0.00217641 0)
(0.000898187 -0.00221265 0)
(0.00081357 -0.00226571 0)
(0.000876462 -0.00229491 0)
(0.000791096 -0.00234629 0)
(0.000849894 -0.00236777 0)
(0.000764167 -0.00241762 0)
(0.000818527 -0.00243093 0)
(0.000732969 -0.00247938 0)
(0.000782852 -0.00248446 0)
(0.000698076 -0.00253166 0)
(0.000743841 -0.00252907 0)
(0.000660521 -0.00257518 0)
(0.000702854 -0.00256597 0)
(0.000621652 -0.00261117 0)
(0.000661429 -0.00259672 0)
(0.000582944 -0.00264113 0)
(0.000621068 -0.00262288 0)
(0.000545794 -0.00266653 0)
(0.000583073 -0.0026458 0)
(0.000511383 -0.00268865 0)
(0.000548402 -0.00266648 0)
(0.00048054 -0.00270844 0)
(0.0005176 -0.00268553 0)
(0.000453707 -0.00272652 0)
(0.000490871 -0.00270326 0)
(0.000430929 -0.0027432 0)
(0.000468068 -0.00271976 0)
(0.000411939 -0.00275856 0)
(0.000448701 -0.00273486 0)
(0.000396255 -0.00277248 0)
(0.000432331 -0.00274841 0)
(0.00110285 -0.00179897 0)
(0.00117562 -0.00185472 0)
(0.0010952 -0.00191038 0)
(0.00116428 -0.00196252 0)
(0.00108506 -0.00201447 0)
(0.00115064 -0.00206087 0)
(0.00107118 -0.00210999 0)
(0.00113301 -0.00214894 0)
(0.00105257 -0.00219597 0)
(0.00111025 -0.00222642 0)
(0.00102851 -0.00227205 0)
(0.00108161 -0.00229306 0)
(0.000998547 -0.00233783 0)
(0.00104686 -0.00234887 0)
(0.00096273 -0.00239323 0)
(0.00100647 -0.00239444 0)
(0.00092179 -0.00243877 0)
(0.000961684 -0.00243117 0)
(0.000877115 -0.00247578 0)
(0.000914241 -0.00246102 0)
(0.000830562 -0.0025061 0)
(0.000866078 -0.00248603 0)
(0.000784068 -0.00253169 0)
(0.000819007 -0.00250803 0)
(0.000739311 -0.00255421 0)
(0.000774469 -0.00252833 0)
(0.000697547 -0.00257488 0)
(0.000733394 -0.00254772 0)
(0.000659546 -0.00259443 0)
(0.000696255 -0.00256652 0)
(0.000625653 -0.00261318 0)
(0.000663093 -0.00258476 0)
(0.000595818 -0.00263118 0)
(0.000633777 -0.00260235 0)
(0.000569777 -0.00264832 0)
(0.00060792 -0.00261906 0)
(0.000547199 -0.00266448 0)
(0.000585168 -0.00263472 0)
(0.000527478 -0.00267933 0)
(0.000564893 -0.00264898 0)
(0.00132398 -0.00186303 0)
(0.00138977 -0.00191671 0)
(0.00131167 -0.00196519 0)
(0.00137301 -0.00201339 0)
(0.0012964 -0.00205784 0)
(0.00135316 -0.00209818 0)
(0.00127664 -0.00213967 0)
(0.0013284 -0.00217002 0)
(0.00125111 -0.00220947 0)
(0.00129757 -0.00222869 0)
(0.00121903 -0.00226706 0)
(0.00126026 -0.00227472 0)
(0.00118033 -0.00231285 0)
(0.00121695 -0.00230958 0)
(0.00113577 -0.00234825 0)
(0.00116897 -0.00233571 0)
(0.00108698 -0.00237558 0)
(0.00111826 -0.00235606 0)
(0.00103618 -0.00239755 0)
(0.00106693 -0.00237328 0)
(0.000985529 -0.00241655 0)
(0.00101682 -0.0023893 0)
(0.000936691 -0.00243425 0)
(0.000969213 -0.0024052 0)
(0.000890772 -0.00245162 0)
(0.000924798 -0.0024214 0)
(0.000848348 -0.00246903 0)
(0.000883854 -0.00243793 0)
(0.000809613 -0.0024865 0)
(0.000846402 -0.00245464 0)
(0.000774551 -0.00250391 0)
(0.000812334 -0.0024713 0)
(0.000742965 -0.00252098 0)
(0.000781496 -0.00248769 0)
(0.000714644 -0.00253754 0)
(0.000753556 -0.00250349 0)
(0.0006892 -0.00255331 0)
(0.00072822 -0.00251853 0)
(0.000666382 -0.00256817 0)
(0.000705253 -0.00253264 0)
(0.00153046 -0.00192672 0)
(0.00158802 -0.00197436 0)
(0.00151057 -0.00201656 0)
(0.00156248 -0.00205592 0)
(0.00148695 -0.00209372 0)
(0.00153292 -0.00212217 0)
(0.00145789 -0.00215686 0)
(0.00149778 -0.00217268 0)
(0.00142248 -0.00220539 0)
(0.0014567 -0.0022085 0)
(0.00138072 -0.0022404 0)
(0.00141032 -0.00223213 0)
(0.00133353 -0.00226428 0)
(0.00136021 -0.00224711 0)
(0.00128281 -0.00228063 0)
(0.00130845 -0.00225752 0)
(0.00123088 -0.00229315 0)
(0.00125699 -0.00226646 0)
(0.00117965 -0.00230447 0)
(0.00120719 -0.00227568 0)
(0.00113032 -0.00231606 0)
(0.00115977 -0.00228589 0)
(0.00108352 -0.00232851 0)
(0.00111496 -0.00229718 0)
(0.00103951 -0.00234187 0)
(0.00107282 -0.00230945 0)
(0.000998416 -0.00235598 0)
(0.00103343 -0.00232252 0)
(0.000960321 -0.00237065 0)
(0.000996815 -0.00233617 0)
(0.0009252 -0.00238561 0)
(0.00096291 -0.00235014 0)
(0.000892922 -0.00240058 0)
(0.000931539 -0.0023641 0)
(0.000863303 -0.00241532 0)
(0.000902589 -0.00237788 0)
(0.000836204 -0.00242971 0)
(0.000875947 -0.00239133 0)
(0.000811358 -0.00244354 0)
(0.000851308 -0.00240418 0)
(0.00172019 -0.00198128 0)
(0.00176774 -0.00201746 0)
(0.00168957 -0.00205354 0)
(0.00173032 -0.00207793 0)
(0.0016542 -0.00210951 0)
(0.00168829 -0.00212037 0)
(0.00161306 -0.00214911 0)
(0.00164116 -0.00214643 0)
(0.00156629 -0.00217374 0)
(0.00158973 -0.00215949 0)
(0.00151508 -0.00218692 0)
(0.00153588 -0.00216477 0)
(0.00146211 -0.00219359 0)
(0.00148263 -0.00216754 0)
(0.00141013 -0.00219803 0)
(0.00143179 -0.00217022 0)
(0.00136027 -0.00220252 0)
(0.00138378 -0.00217368 0)
(0.00131274 -0.00220797 0)
(0.00133833 -0.00217819 0)
(0.00126743 -0.0022146 0)
(0.0012951 -0.00218377 0)
(0.00122429 -0.00222242 0)
(0.00125396 -0.00219045 0)
(0.00118332 -0.00223136 0)
(0.00121498 -0.00219829 0)
(0.0011447 -0.00224136 0)
(0.00117822 -0.00220718 0)
(0.00110844 -0.0022522 0)
(0.00114359 -0.00221686 0)
(0.00107448 -0.00226359 0)
(0.00111097 -0.002227 0)
(0.00104269 -0.00227527 0)
(0.00108039 -0.00223749 0)
(0.0010131 -0.00228714 0)
(0.00105184 -0.00224823 0)
(0.00098559 -0.00229905 0)
(0.00102518 -0.00225901 0)
(0.00095996 -0.00231078 0)
(0.00100004 -0.00226945 0)
(0.00189043 -0.00201555 0)
(0.00192657 -0.00203394 0)
(0.0018466 -0.0020636 0)
(0.00187569 -0.00206788 0)
(0.00179776 -0.00209364 0)
(0.00182079 -0.00208398 0)
(0.0017439 -0.00210818 0)
(0.00176243 -0.0020872 0)
(0.00168691 -0.00211185 0)
(0.00170406 -0.00208527 0)
(0.00163059 -0.00211135 0)
(0.00164883 -0.00208353 0)
(0.0015774 -0.00211116 0)
(0.00159718 -0.00208264 0)
(0.0015274 -0.00211157 0)
(0.00154877 -0.00208242 0)
(0.00148035 -0.00211271 0)
(0.00150326 -0.00208287 0)
(0.00143602 -0.00211462 0)
(0.00146042 -0.00208396 0)
(0.00139414 -0.00211733 0)
(0.00142018 -0.00208595 0)
(0.00135449 -0.00212079 0)
(0.00138238 -0.00208879 0)
(0.00131715 -0.00212546 0)
(0.00134686 -0.00209264 0)
(0.00128185 -0.00213106 0)
(0.00131328 -0.00209726 0)
(0.00124841 -0.00213748 0)
(0.00128126 -0.00210245 0)
(0.00121665 -0.00214451 0)
(0.00125097 -0.00210834 0)
(0.0011867 -0.00215216 0)
(0.00122244 -0.00211488 0)
(0.00115855 -0.00216034 0)
(0.00119552 -0.00212188 0)
(0.001132 -0.00216884 0)
(0.00117001 -0.00212908 0)
(0.00110682 -0.00217742 0)
(0.00114571 -0.00213621 0)
(0.00203772 -0.00201788 0)
(0.00206208 -0.00201395 0)
(0.00198041 -0.00203727 0)
(0.00199905 -0.00202023 0)
(0.00191927 -0.00204136 0)
(0.00193481 -0.00201519 0)
(0.0018574 -0.002037 0)
(0.00187357 -0.00200909 0)
(0.00179901 -0.0020327 0)
(0.00181664 -0.00200396 0)
(0.00174446 -0.00202907 0)
(0.00176353 -0.00199956 0)
(0.00169304 -0.00202622 0)
(0.0017136 -0.00199596 0)
(0.0016445 -0.00202412 0)
(0.00166661 -0.00199321 0)
(0.00159879 -0.00202274 0)
(0.00162244 -0.00199128 0)
(0.00155585 -0.00202206 0)
(0.00158102 -0.00199012 0)
(0.00151562 -0.00202208 0)
(0.00154226 -0.00198969 0)
(0.00147809 -0.00202282 0)
(0.00150603 -0.00198991 0)
(0.00144293 -0.00202421 0)
(0.00147207 -0.00199065 0)
(0.00140987 -0.00202613 0)
(0.00144004 -0.00199172 0)
(0.0013786 -0.00202853 0)
(0.00141015 -0.00199351 0)
(0.00134923 -0.00203165 0)
(0.00138218 -0.00199593 0)
(0.00132167 -0.00203553 0)
(0.00135581 -0.00199887 0)
(0.00129557 -0.00203987 0)
(0.00133075 -0.00200213 0)
(0.00127071 -0.00204455 0)
(0.00130692 -0.00200569 0)
(0.00124697 -0.00204955 0)
(0.0012842 -0.00200936 0)
(0.00216127 -0.00198155 0)
(0.00217657 -0.00195839 0)
(0.00209447 -0.00197555 0)
(0.00210881 -0.00194802 0)
(0.00202979 -0.00196678 0)
(0.00204533 -0.00193833 0)
(0.00196959 -0.00195883 0)
(0.00198634 -0.00192931 0)
(0.00191297 -0.00195168 0)
(0.00193114 -0.00192115 0)
(0.00185969 -0.00194528 0)
(0.0018794 -0.00191396 0)
(0.00180958 -0.00193968 0)
(0.00183085 -0.00190772 0)
(0.00176244 -0.00193491 0)
(0.00178527 -0.00190238 0)
(0.00171812 -0.00193097 0)
(0.00174248 -0.00189791 0)
(0.00167652 -0.00192782 0)
(0.00170236 -0.00189426 0)
(0.00163752 -0.00192543 0)
(0.00166476 -0.00189137 0)
(0.00160102 -0.00192372 0)
(0.00162957 -0.00188916 0)
(0.00156688 -0.00192259 0)
(0.00159665 -0.00188756 0)
(0.00153495 -0.00192199 0)
(0.0015659 -0.00188649 0)
(0.00150514 -0.00192191 0)
(0.00153714 -0.00188591 0)
(0.00147728 -0.00192234 0)
(0.0015102 -0.00188575 0)
(0.0014511 -0.00192317 0)
(0.00148486 -0.00188589 0)
(0.00142633 -0.00192431 0)
(0.00146085 -0.00188621 0)
(0.00140275 -0.00192567 0)
(0.00143826 -0.00188686 0)
(0.00138049 -0.00192749 0)
(0.00141696 -0.00188772 0)
(0.00227256 -0.00191585 0)
(0.0022862 -0.00188772 0)
(0.0022052 -0.00190275 0)
(0.00221983 -0.00187378 0)
(0.00214195 -0.00189077 0)
(0.00215781 -0.0018605 0)
(0.00208277 -0.0018796 0)
(0.00210003 -0.00184822 0)
(0.00202734 -0.00186929 0)
(0.00204613 -0.00183704 0)
(0.00197535 -0.00185991 0)
(0.00199573 -0.00182696 0)
(0.00192657 -0.00185147 0)
(0.00194854 -0.00181794 0)
(0.0018808 -0.00184398 0)
(0.00190435 -0.00180993 0)
(0.00183788 -0.0018374 0)
(0.00186296 -0.00180287 0)
(0.00179765 -0.0018317 0)
(0.0018242 -0.0017967 0)
(0.00175998 -0.00182681 0)
(0.00178791 -0.00179135 0)
(0.00172472 -0.00182266 0)
(0.00175395 -0.00178674 0)
(0.00169172 -0.0018192 0)
(0.00172215 -0.0017828 0)
(0.00166084 -0.00181635 0)
(0.0016924 -0.00177946 0)
(0.00163194 -0.00181403 0)
(0.00166455 -0.00177663 0)
(0.00160489 -0.00181215 0)
(0.00163845 -0.00177421 0)
(0.00157952 -0.00181064 0)
(0.00161397 -0.00177215 0)
(0.00155566 -0.00180943 0)
(0.00159094 -0.00177036 0)
(0.00153319 -0.00180849 0)
(0.00156923 -0.0017688 0)
(0.0015119 -0.00180777 0)
(0.00154868 -0.00176739 0)
(0.00238457 -0.0018462 0)
(0.00239851 -0.001816 0)
(0.00231708 -0.00182935 0)
(0.00233203 -0.00179818 0)
(0.00225448 -0.00181374 0)
(0.00227076 -0.00178149 0)
(0.00219629 -0.00179915 0)
(0.00221409 -0.00176598 0)
(0.00214203 -0.00178562 0)
(0.00216145 -0.00175172 0)
(0.00209134 -0.0017732 0)
(0.0021124 -0.00173871 0)
(0.00204393 -0.00176189 0)
(0.00206661 -0.0017269 0)
(0.00199958 -0.00175166 0)
(0.00202384 -0.00171623 0)
(0.00195807 -0.00174245 0)
(0.00198386 -0.00170661 0)
(0.00191924 -0.00173421 0)
(0.00194648 -0.00169796 0)
(0.00188292 -0.00172686 0)
(0.00191153 -0.00169021 0)
(0.00184896 -0.00172032 0)
(0.00187885 -0.00168326 0)
(0.00181718 -0.00171452 0)
(0.00184829 -0.00167703 0)
(0.00178746 -0.00170938 0)
(0.00181969 -0.00167143 0)
(0.00175965 -0.0017048 0)
(0.00179292 -0.00166638 0)
(0.00173359 -0.00170072 0)
(0.00176782 -0.00166179 0)
(0.00170914 -0.00169704 0)
(0.00174426 -0.00165759 0)
(0.00168613 -0.0016937 0)
(0.00172208 -0.00165369 0)
(0.00166441 -0.00169061 0)
(0.00170115 -0.00165002 0)
(0.00164384 -0.00168767 0)
(0.00168132 -0.00164647 0)
(0.00249626 -0.00177605 0)
(0.0025103 -0.00174416 0)
(0.00242916 -0.00175514 0)
(0.00244439 -0.00172211 0)
(0.00236728 -0.00173578 0)
(0.002384 -0.00170169 0)
(0.00231009 -0.00171771 0)
(0.00232843 -0.00168283 0)
(0.00225702 -0.00170094 0)
(0.00227705 -0.00166549 0)
(0.00220765 -0.00168551 0)
(0.00222935 -0.0016496 0)
(0.00216163 -0.00167137 0)
(0.00218499 -0.00163508 0)
(0.00211871 -0.00165845 0)
(0.00214365 -0.00162183 0)
(0.00207865 -0.00164668 0)
(0.00210511 -0.00160973 0)
(0.00204125 -0.00163596 0)
(0.00206915 -0.0015987 0)
(0.00200632 -0.00162623 0)
(0.00203557 -0.00158864 0)
(0.00197369 -0.00161738 0)
(0.00200422 -0.00157945 0)
(0.0019432 -0.00160933 0)
(0.00197493 -0.00157103 0)
(0.0019147 -0.00160198 0)
(0.00194755 -0.0015633 0)
(0.00188804 -0.00159526 0)
(0.00192192 -0.00155616 0)
(0.00186306 -0.00158906 0)
(0.00189791 -0.00154953 0)
(0.00183963 -0.00158332 0)
(0.00187538 -0.00154332 0)
(0.00181758 -0.00157793 0)
(0.00185418 -0.00153746 0)
(0.00179678 -0.00157282 0)
(0.00183419 -0.00153186 0)
(0.00177707 -0.0015679 0)
(0.00181526 -0.00152645 0)
(0.00260682 -0.00170534 0)
(0.00262096 -0.00167178 0)
(0.00254058 -0.00168024 0)
(0.0025561 -0.00164552 0)
(0.00247979 -0.0016571 0)
(0.00249692 -0.0016214 0)
(0.00242381 -0.00163559 0)
(0.00244267 -0.00159922 0)
(0.00237206 -0.00161568 0)
(0.00239266 -0.00157886 0)
(0.00232408 -0.00159732 0)
(0.0023464 -0.00156019 0)
(0.00227952 -0.00158043 0)
(0.0023035 -0.00154305 0)
(0.00223807 -0.00156492 0)
(0.00226364 -0.00152732 0)
(0.00219949 -0.00155068 0)
(0.00222657 -0.00151288 0)
(0.00216354 -0.00153762 0)
(0.00219206 -0.0014996 0)
(0.00213004 -0.00152562 0)
(0.0021599 -0.00148737 0)
(0.0020988 -0.00151459 0)
(0.00212991 -0.00147608 0)
(0.00206964 -0.00150442 0)
(0.00210194 -0.00146564 0)
(0.00204242 -0.00149503 0)
(0.00207582 -0.00145594 0)
(0.00201697 -0.00148631 0)
(0.0020514 -0.00144689 0)
(0.00199315 -0.00147818 0)
(0.00202855 -0.0014384 0)
(0.0019708 -0.00147054 0)
(0.00200712 -0.00143039 0)
(0.00194979 -0.00146332 0)
(0.00198697 -0.00142278 0)
(0.00192996 -0.00145644 0)
(0.00196797 -0.00141551 0)
(0.00191116 -0.0014498 0)
(0.00195 -0.0014085 0)
(0.00271562 -0.00163413 0)
(0.00272986 -0.00159905 0)
(0.00265079 -0.00160492 0)
(0.00266659 -0.00156871 0)
(0.00259145 -0.00157809 0)
(0.002609 -0.00154101 0)
(0.00253697 -0.00155326 0)
(0.00255633 -0.00151564 0)
(0.00248675 -0.0015303 0)
(0.0025079 -0.00149238 0)
(0.00244032 -0.00150914 0)
(0.00246321 -0.00147103 0)
(0.00239731 -0.00148963 0)
(0.00242187 -0.00145142 0)
(0.00235741 -0.00147167 0)
(0.00238356 -0.00143336 0)
(0.00232036 -0.00145511 0)
(0.00234801 -0.00141671 0)
(0.00228592 -0.00143983 0)
(0.00231499 -0.00140134 0)
(0.00225389 -0.00142572 0)
(0.00228428 -0.0013871 0)
(0.00222407 -0.00141267 0)
(0.00225571 -0.0013739 0)
(0.0021963 -0.00140056 0)
(0.0022291 -0.00136161 0)
(0.0021704 -0.00138929 0)
(0.0022043 -0.00135013 0)
(0.00214623 -0.00137877 0)
(0.00218115 -0.00133937 0)
(0.00212363 -0.0013689 0)
(0.00215952 -0.00132923 0)
(0.00210246 -0.00135959 0)
(0.00213927 -0.00131964 0)
(0.00208258 -0.00135076 0)
(0.00212027 -0.00131051 0)
(0.00206383 -0.00134233 0)
(0.00210238 -0.00130178 0)
(0.00204605 -0.00133422 0)
(0.00208548 -0.00129338 0)
(0.00282211 -0.00156257 0)
(0.00283646 -0.00152616 0)
(0.00275923 -0.00152946 0)
(0.00277532 -0.001492 0)
(0.00270178 -0.00149912 0)
(0.00271973 -0.00146093 0)
(0.00264912 -0.00147114 0)
(0.00266894 -0.00143254 0)
(0.00260067 -0.00144532 0)
(0.00262232 -0.00140655 0)
(0.00255596 -0.00142151 0)
(0.00257937 -0.00138271 0)
(0.00251464 -0.00139956 0)
(0.00253971 -0.00136077 0)
(0.00247638 -0.0013793 0)
(0.00250304 -0.00134055 0)
(0.00244094 -0.00136058 0)
(0.00246908 -0.00132187 0)
(0.00240807 -0.00134327 0)
(0.0024376 -0.00130458 0)
(0.00237756 -0.00132722 0)
(0.00240841 -0.00128852 0)
(0.00234923 -0.00131232 0)
(0.0023813 -0.00127357 0)
(0.00232289 -0.00129844 0)
(0.00235611 -0.00125962 0)
(0.00229837 -0.00128548 0)
(0.00233267 -0.00124655 0)
(0.00227553 -0.00127333 0)
(0.00231084 -0.00123426 0)
(0.00225422 -0.00126191 0)
(0.00229049 -0.00122267 0)
(0.0022343 -0.00125111 0)
(0.00227148 -0.0012117 0)
(0.00221564 -0.00124086 0)
(0.00225371 -0.00120126 0)
(0.00219807 -0.00123109 0)
(0.00223705 -0.00119128 0)
(0.00218147 -0.00122171 0)
(0.00222136 -0.00118168 0)
(0.0029258 -0.00149085 0)
(0.00294028 -0.00145334 0)
(0.00286542 -0.00145415 0)
(0.00288179 -0.00141568 0)
(0.00281029 -0.00142057 0)
(0.0028286 -0.00138152 0)
(0.00275978 -0.00138967 0)
(0.00278002 -0.00135037 0)
(0.00271335 -0.00136121 0)
(0.00273545 -0.00132188 0)
(0.00267057 -0.00133497 0)
(0.00269443 -0.00129574 0)
(0.00263108 -0.00131077 0)
(0.0026566 -0.00127168 0)
(0.00259458 -0.00128842 0)
(0.00262167 -0.00124949 0)
(0.00256082 -0.00126773 0)
(0.00258937 -0.00122897 0)
(0.00252957 -0.00124855 0)
(0.00255949 -0.00120994 0)
(0.00250063 -0.00123074 0)
(0.00253183 -0.00119224 0)
(0.00247381 -0.00121417 0)
(0.00250622 -0.00117574 0)
(0.00244895 -0.0011987 0)
(0.0024825 -0.00116031 0)
(0.00242588 -0.00118422 0)
(0.00246049 -0.00114581 0)
(0.00240443 -0.00117063 0)
(0.00244005 -0.00113214 0)
(0.00238444 -0.0011578 0)
(0.00242102 -0.00111921 0)
(0.00236578 -0.00114564 0)
(0.00240327 -0.00110694 0)
(0.00234835 -0.00113407 0)
(0.00238669 -0.00109529 0)
(0.00233205 -0.00112304 0)
(0.00237123 -0.00108423 0)
(0.00231672 -0.00111253 0)
(0.0023568 -0.00107366 0)
(0.00302632 -0.00141917 0)
(0.00304094 -0.00138078 0)
(0.00296894 -0.00137926 0)
(0.00298558 -0.00134005 0)
(0.00291651 -0.00134277 0)
(0.00293517 -0.00130314 0)
(0.00286849 -0.00130925 0)
(0.0028891 -0.00126952 0)
(0.00282435 -0.00127842 0)
(0.00284683 -0.00123879 0)
(0.00278369 -0.00125001 0)
(0.00280793 -0.0012106 0)
(0.00274619 -0.0012238 0)
(0.00277208 -0.00118466 0)
(0.00271156 -0.00119958 0)
(0.002739 -0.00116073 0)
(0.00267956 -0.00117716 0)
(0.00270843 -0.00113858 0)
(0.00264997 -0.00115635 0)
(0.00268018 -0.00111802 0)
(0.0026226 -0.00113699 0)
(0.00265406 -0.00109889 0)
(0.00259728 -0.00111894 0)
(0.00262992 -0.00108104 0)
(0.00257387 -0.00110207 0)
(0.00260761 -0.00106434 0)
(0.00255223 -0.00108627 0)
(0.00258701 -0.00104866 0)
(0.00253221 -0.00107144 0)
(0.00256801 -0.00103387 0)
(0.00251363 -0.00105748 0)
(0.00255043 -0.00101983 0)
(0.00249626 -0.00104429 0)
(0.0025341 -0.00100638 0)
(0.00247987 -0.00103168 0)
(0.00251874 -0.000993406 0)
(0.00246427 -0.00101941 0)
(0.00250416 -0.00098088 0)
(0.00244947 -0.00100721 0)
(0.00249039 -0.000968977 0)
(0.00312335 -0.00134773 0)
(0.00313815 -0.0013087 0)
(0.0030694 -0.00130503 0)
(0.00308631 -0.00126533 0)
(0.00302006 -0.00126602 0)
(0.00303903 -0.00122605 0)
(0.00297482 -0.00123023 0)
(0.00299575 -0.00119032 0)
(0.00293322 -0.00119733 0)
(0.00295601 -0.00115766 0)
(0.00289489 -0.00116704 0)
(0.00291943 -0.00112772 0)
(0.00285955 -0.0011391 0)
(0.0028857 -0.00110018 0)
(0.00282692 -0.00111329 0)
(0.00285459 -0.00107476 0)
(0.00279677 -0.0010894 0)
(0.00282584 -0.00105125 0)
(0.0027689 -0.00106723 0)
(0.00279928 -0.00102943 0)
(0.00274312 -0.00104662 0)
(0.00277473 -0.00100912 0)
(0.00271927 -0.0010274 0)
(0.00275202 -0.000990176 0)
(0.00269721 -0.00100944 0)
(0.00273101 -0.000972451 0)
(0.00267681 -0.000992588 0)
(0.0027116 -0.00095583 0)
(0.00265799 -0.000976754 0)
(0.0026937 -0.000940224 0)
(0.00264069 -0.000961875 0)
(0.00267726 -0.000925561 0)
(0.00262485 -0.000947961 0)
(0.00266227 -0.00091177 0)
(0.00261034 -0.000935103 0)
(0.00264872 -0.000898737 0)
(0.00259686 -0.000923466 0)
(0.00263648 -0.000886256 0)
(0.0025838 -0.000913228 0)
(0.00262516 -0.00087395 0)
(0.00321668 -0.00127667 0)
(0.00323166 -0.00123722 0)
(0.00316652 -0.00123166 0)
(0.00318368 -0.0011917 0)
(0.00312058 -0.00119054 0)
(0.00313982 -0.00115049 0)
(0.0030784 -0.00115285 0)
(0.00309959 -0.00111301 0)
(0.00303957 -0.00111823 0)
(0.0030626 -0.00107878 0)
(0.00300378 -0.00108638 0)
(0.00302851 -0.0010474 0)
(0.00297075 -0.00105702 0)
(0.00299707 -0.00101855 0)
(0.00294026 -0.00102992 0)
(0.00296805 -0.000991954 0)
(0.00291208 -0.00100484 0)
(0.00294124 -0.000967361 0)
(0.00288604 -0.000981592 0)
(0.00291646 -0.000944564 0)
(0.00286196 -0.000959999 0)
(0.00289355 -0.000923381 0)
(0.00283969 -0.000939905 0)
(0.00287236 -0.000903652 0)
(0.00281908 -0.000921173 0)
(0.00285277 -0.000885235 0)
(0.00280001 -0.000903683 0)
(0.00283464 -0.000868008 0)
(0.00278235 -0.000887332 0)
(0.00281785 -0.000851865 0)
(0.002766 -0.000872031 0)
(0.0028023 -0.000836728 0)
(0.00275094 -0.000857719 0)
(0.00278794 -0.000822557 0)
(0.00273728 -0.000844414 0)
(0.00277479 -0.000809367 0)
(0.00272528 -0.000832321 0)
(0.00276306 -0.000797302 0)
(0.00271512 -0.000821957 0)
(0.00275279 -0.000786808 0)
(0.00330611 -0.00120612 0)
(0.00332127 -0.00116646 0)
(0.00326004 -0.00115929 0)
(0.00327742 -0.00111929 0)
(0.00321777 -0.00111649 0)
(0.00323723 -0.00107658 0)
(0.00317888 -0.0010773 0)
(0.00320027 -0.00103776 0)
(0.00314304 -0.00104132 0)
(0.00316622 -0.00100231 0)
(0.00310996 -0.00100824 0)
(0.00313481 -0.000969834 0)
(0.00307943 -0.000977771 0)
(0.00310581 -0.000939988 0)
(0.00305123 -0.000949648 0)
(0.00307903 -0.000912486 0)
(0.00302517 -0.000923649 0)
(0.00305428 -0.000887078 0)
(0.00300109 -0.000899568 0)
(0.00303142 -0.000863548 0)
(0.00297884 -0.00087722 0)
(0.00301028 -0.000841709 0)
(0.00295826 -0.000856442 0)
(0.00299076 -0.000821394 0)
(0.00293926 -0.000837086 0)
(0.00297272 -0.000802459 0)
(0.00292172 -0.000819026 0)
(0.00295608 -0.000784772 0)
(0.00290555 -0.000802152 0)
(0.00294075 -0.000768215 0)
(0.00289067 -0.000786379 0)
(0.00292665 -0.000752666 0)
(0.00287706 -0.000771643 0)
(0.00291374 -0.000737985 0)
(0.00286474 -0.000757895 0)
(0.00290201 -0.000724019 0)
(0.00285381 -0.000745114 0)
(0.00289133 -0.000710783 0)
(0.0028442 -0.000733392 0)
(0.00288118 -0.000698914 0)
(0.00339148 -0.00113614 0)
(0.00340684 -0.00109646 0)
(0.00334973 -0.00108799 0)
(0.00336731 -0.00104816 0)
(0.00331135 -0.00104398 0)
(0.00333097 -0.00100442 0)
(0.00327595 -0.00100369 0)
(0.00329746 -0.000964659 0)
(0.00324326 -0.000966732 0)
(0.00326651 -0.000928362 0)
(0.00321307 -0.000932757 0)
(0.00323792 -0.000895112 0)
(0.00318517 -0.00090147 0)
(0.0032115 -0.000864564 0)
(0.00315939 -0.000872606 0)
(0.00318709 -0.000836424 0)
(0.00313557 -0.000845931 0)
(0.00316453 -0.000810437 0)
(0.00311356 -0.000821232 0)
(0.00314369 -0.000786381 0)
(0.00309324 -0.00079832 0)
(0.00312445 -0.00076406 0)
(0.00307448 -0.000777023 0)
(0.00310669 -0.000743298 0)
(0.00305717 -0.000757187 0)
(0.00309032 -0.00072394 0)
(0.00304122 -0.000738676 0)
(0.00307524 -0.000705843 0)
(0.00302656 -0.000721374 0)
(0.00306138 -0.000688877 0)
(0.00301313 -0.000705186 0)
(0.00304866 -0.000672917 0)
(0.00300094 -0.000690044 0)
(0.00303708 -0.000657825 0)
(0.00299005 -0.000675901 0)
(0.00302664 -0.000643473 0)
(0.00298049 -0.00066275 0)
(0.00301721 -0.00062992 0)
(0.00297202 -0.000650807 0)
(0.0030082 -0.000617711 0)
(0.00347266 -0.00106679 0)
(0.00348818 -0.00102729 0)
(0.00343539 -0.00101783 0)
(0.00345313 -0.000978365 0)
(0.00340103 -0.000973077 0)
(0.00342076 -0.000934058 0)
(0.00336926 -0.000932117 0)
(0.00339082 -0.000893775 0)
(0.00333986 -0.00089455 0)
(0.00336309 -0.000856998 0)
(0.00331266 -0.000860024 0)
(0.00333742 -0.000823308 0)
(0.0032875 -0.000828233 0)
(0.00331367 -0.000792356 0)
(0.00326423 -0.000798909 0)
(0.0032917 -0.000763845 0)
(0.00324272 -0.000771813 0)
(0.0032714 -0.00073752 0)
(0.00322285 -0.000746729 0)
(0.00325264 -0.000713152 0)
(0.00320451 -0.000723463 0)
(0.00323533 -0.000690544 0)
(0.0031876 -0.000701839 0)
(0.00321938 -0.000669517 0)
(0.00317202 -0.000681702 0)
(0.00320469 -0.000649911 0)
(0.0031577 -0.000662918 0)
(0.00319118 -0.000631586 0)
(0.00314459 -0.000645374 0)
(0.0031788 -0.000614412 0)
(0.00313263 -0.000628981 0)
(0.0031675 -0.000598263 0)
(0.00312185 -0.000613671 0)
(0.00315726 -0.000583005 0)
(0.00311228 -0.000599381 0)
(0.0031481 -0.000568513 0)
(0.00310397 -0.000586106 0)
(0.00313988 -0.000554851 0)
(0.00309663 -0.000574126 0)
(0.00313199 -0.000542578 0)
(0.00354949 -0.000998096 0)
(0.00356514 -0.000958978 0)
(0.00351679 -0.000948872 0)
(0.00353463 -0.000909956 0)
(0.00348656 -0.000903849 0)
(0.00350633 -0.000865546 0)
(0.00345851 -0.000862646 0)
(0.00348001 -0.000825159 0)
(0.00343247 -0.000824859 0)
(0.00345556 -0.000788279 0)
(0.00340833 -0.000790131 0)
(0.00343288 -0.000754488 0)
(0.00338595 -0.000758156 0)
(0.00341184 -0.00072344 0)
(0.00336525 -0.000728664 0)
(0.00339236 -0.000694842 0)
(0.00334609 -0.000701415 0)
(0.00337434 -0.000668437 0)
(0.0033284 -0.000676194 0)
(0.00335769 -0.000644 0)
(0.00331207 -0.000652805 0)
(0.00334233 -0.000621332 0)
(0.00329702 -0.000631075 0)
(0.00332818 -0.000600256 0)
(0.00328319 -0.000610852 0)
(0.00331518 -0.000580617 0)
(0.00327051 -0.000592003 0)
(0.00330325 -0.000562273 0)
(0.00325894 -0.00057442 0)
(0.00329236 -0.000545097 0)
(0.00324844 -0.000558018 0)
(0.00328247 -0.000528966 0)
(0.00323903 -0.000542724 0)
(0.00327357 -0.00051374 0)
(0.00323077 -0.000528478 0)
(0.00326569 -0.000499291 0)
(0.00322366 -0.000515283 0)
(0.00325867 -0.000485672 0)
(0.00321743 -0.000503425 0)
(0.00325186 -0.000473437 0)
(0.00362183 -0.000930107 0)
(0.00363754 -0.000891554 0)
(0.00359375 -0.000881148 0)
(0.00361161 -0.000842964 0)
(0.00356769 -0.000836336 0)
(0.00358739 -0.000798917 0)
(0.00354339 -0.000795321 0)
(0.00356473 -0.000758844 0)
(0.00352074 -0.000757705 0)
(0.00354358 -0.000722239 0)
(0.00349968 -0.000723131 0)
(0.00352388 -0.000688692 0)
(0.00348012 -0.000691296 0)
(0.00350557 -0.000657864 0)
(0.00346199 -0.000661934 0)
(0.00348858 -0.000629469 0)
(0.00344521 -0.000634809 0)
(0.00347285 -0.000603254 0)
(0.00342969 -0.000609708 0)
(0.0034583 -0.000578999 0)
(0.00341538 -0.000586438 0)
(0.00344489 -0.000556508 0)
(0.0034022 -0.000564832 0)
(0.00343255 -0.00053561 0)
(0.00339011 -0.000544739 0)
(0.00342122 -0.000516149 0)
(0.00337906 -0.000526031 0)
(0.00341087 -0.00049799 0)
(0.00336901 -0.000508604 0)
(0.00340145 -0.000481005 0)
(0.00335994 -0.000492374 0)
(0.00339294 -0.000465071 0)
(0.00335188 -0.000477272 0)
(0.00338536 -0.000450049 0)
(0.00334487 -0.000463241 0)
(0.00337872 -0.000435806 0)
(0.00333895 -0.000450289 0)
(0.00337288 -0.000422388 0)
(0.00333379 -0.000438697 0)
(0.00336713 -0.000410332 0)
(0.00368955 -0.000862848 0)
(0.00370527 -0.000825039 0)
(0.00366608 -0.000814678 0)
(0.00368388 -0.000777395 0)
(0.00364418 -0.000770551 0)
(0.0036637 -0.000734173 0)
(0.00362361 -0.000730153 0)
(0.00364467 -0.00069483 0)
(0.00360435 -0.000693096 0)
(0.0036268 -0.000658876 0)
(0.00358637 -0.000659031 0)
(0.00361008 -0.000625916 0)
(0.00356961 -0.000627662 0)
(0.00359447 -0.000595624 0)
(0.00355405 -0.00059873 0)
(0.00357996 -0.000567722 0)
(0.00353962 -0.000572007 0)
(0.00356649 -0.000541967 0)
(0.00352627 -0.000547284 0)
(0.00355403 -0.000518145 0)
(0.00351395 -0.000524375 0)
(0.00354254 -0.000496066 0)
(0.00350262 -0.000503118 0)
(0.00353198 -0.000475564 0)
(0.00349225 -0.000483366 0)
(0.0035223 -0.000456488 0)
(0.00348279 -0.000464999 0)
(0.00351349 -0.000438705 0)
(0.00347423 -0.000447913 0)
(0.00350551 -0.000422092 0)