/*--------------------------------*- C++ -*----------------------------------*\
| =========                 |                                                 |
| \\      /  F ield         | OpenFOAM: The Open Source CFD Toolbox           |
|  \\    /   O peration     | Version:  v2012                                 |
|   \\  /    A nd           | Website:  www.openfoam.com                      |
|    \\/     M anipulation  |                                                 |
\*---------------------------------------------------------------------------*/
FoamFile
{
    version     2.0;
    format      ascii;
    class       volScalarField;
    location    "10";
    object      epsilonEq;
}
// * * * * * * * * * * * * * * * * * * * * * * * * * * * * * * * * * * * * * //

dimensions      [0 0 0 0 0 0 0];


internalField   nonuniform List<scalar> 
8000
(
0.0178021
0.0135351
0.0149345
0.0131572
0.0137493
0.0126629
0.0128389
0.0120935
0.0120721
0.0115014
0.0113572
0.0108707
0.0106498
0.0102092
0.00993499
0.00952067
0.00921039
0.00881596
0.00847514
0.00809702
0.00773175
0.00737045
0.00698874
0.00665042
0.00626088
0.00595533
0.00556545
0.00530355
0.00492347
0.00471547
0.00435291
0.00420636
0.00386542
0.00378278
0.00346283
0.00343772
0.0031326
0.00315539
0.00291172
0.00294614
0.012789
0.0133869
0.0128439
0.0130702
0.0126671
0.0125893
0.0121842
0.0120107
0.0115953
0.0113972
0.0109515
0.0107511
0.0102646
0.0100682
0.00954703
0.00935658
0.00880054
0.00861477
0.00803766
0.00785561
0.00727376
0.00709627
0.00652666
0.00635754
0.0058205
0.00566521
0.00517817
0.00504431
0.00461471
0.00451012
0.00413673
0.0040673
0.0037433
0.00371233
0.00342647
0.00343037
0.00316458
0.00320433
0.00295649
0.00299683
0.0144252
0.0130328
0.0130533
0.0125877
0.0123967
0.0120552
0.0117576
0.0114625
0.0111247
0.0108542
0.0104683
0.0102098
0.0097724
0.00952198
0.00903326
0.00878829
0.00826099
0.00802164
0.00747721
0.00724657
0.00671402
0.00649878
0.00600399
0.00581278
0.00537314
0.00521434
0.0048346
0.00471537
0.00438909
0.00431396
0.00402831
0.00399828
0.00373757
0.00375056
0.0034987
0.00354725
0.00329079
0.00336157
0.00309653
0.00316816
0.0131795
0.0124564
0.0122338
0.0119333
0.0116408
0.0113489
0.0109911
0.0107138
0.0103234
0.010059
0.00962236
0.00936348
0.00887542
0.0086184
0.00809238
0.00783802
0.00730366
0.00705757
0.00655325
0.00632608
0.00588191
0.00568593
0.00531469
0.00516067
0.00485867
0.00475282
0.0045051
0.0044483
0.00423351
0.00422232
0.00401795
0.00404608
0.00383541
0.00389461
0.00366816
0.00374947
0.00349362
0.00359318
0.00331456
0.00340527
0.0126618
0.0117885
0.0115179
0.0111496
0.0107785
0.0104545
0.0100064
0.00970174
0.00921388
0.00891972
0.00839492
0.00810422
0.00756431
0.00727882
0.00676475
0.00649257
0.00605003
0.00580405
0.00546167
0.00525635
0.00501194
0.00485768
0.00469001
0.0045884
0.00446986
0.00441541
0.00431695
0.00430109
0.00419912
0.00421384
0.00408933
0.00412765
0.0039766
0.00403332
0.00384933
0.00392616
0.00370902
0.00379584
0.00354597
0.00363183
0.0117774
0.0110079
0.0105628
0.0101931
0.00965197
0.00930848
0.00868798
0.00835315
0.00771442
0.00738824
0.0067771
0.00646332
0.00593855
0.00564963
0.00526281
0.00501505
0.00478343
0.00458963
0.00448475
0.00434771
0.00432508
0.00423669
0.00425331
0.00420131
0.00422169
0.00419535
0.00419751
0.00418993
0.00416299
0.00417223
0.0041114
0.00413497
0.00404376
0.00408238
0.00395385
0.00400656
0.00384924
0.00391858
0.00373438
0.00379822
0.0107971
0.0100258
0.00937422
0.00897004
0.00820879
0.00783824
0.00703509
0.00668337
0.00594841
0.00561916
0.00504137
0.004741
0.00438454
0.0041369
0.004007
0.00382244
0.00385068
0.00371991
0.0038334
0.00373804
0.00388081
0.00380589
0.00394094
0.00388008
0.00399109
0.00394234
0.00402529
0.00399015
0.00404059
0.00401936
0.0040343
0.00402664
0.00400387
0.00401198
0.00395818
0.0039838
0.003902
0.00393871
0.00382688
0.0038651
0.00947058
0.00870153
0.00782753
0.00739439
0.00647016
0.00609348
0.00523965
0.00490233
0.00425049
0.00396708
0.00360685
0.00340004
0.0033221
0.00317724
0.00325635
0.00314277
0.0032999
0.00319036
0.00338623
0.00326984
0.00347834
0.00335946
0.00356712
0.00345181
0.00365381
0.00354735
0.00373001
0.00363295
0.00378427
0.00369872
0.00381275
0.00374166
0.00383011
0.00377492
0.00383641
0.00379525
0.00382714
0.00379743
0.00378776
0.00377081
0.0077154
0.00693972
0.0059873
0.00552892
0.00464446
0.0042907
0.00362314
0.00338942
0.00309913
0.00299905
0.00297281
0.00294791
0.00295653
0.00293978
0.00296684
0.00294655
0.00298915
0.00296064
0.00302137
0.00298328
0.00308162
0.00302257
0.00316164
0.00309863
0.00325172
0.00317103
0.00333081
0.0032421
0.00338842
0.00329789
0.00345181
0.00336324
0.00351079
0.00342535
0.00355247
0.00347138
0.00357467
0.00350008
0.00357824
0.00351912
0.00557141
0.00488666
0.00409258
0.00370443
0.00318353
0.00300134
0.00293565
0.00288872
0.00288003
0.00285154
0.00285524
0.00283295
0.00284936
0.00283044
0.00285612
0.00284188
0.00287179
0.00286296
0.00289538
0.00289129
0.00292446
0.00292379
0.00295463
0.00295162
0.00298341
0.00297561
0.00300679
0.00299657
0.00306789
0.003047
0.003131
0.0031035
0.00318255
0.00314335
0.00322019
0.0031746
0.00325605
0.00320671
0.00328255
0.00324088
0.00362778
0.00325527
0.00298121
0.00289726
0.00286084
0.00280908
0.00278572
0.00274359
0.00274456
0.00270781
0.00272866
0.00270013
0.00273208
0.00271152
0.0027488
0.00273539
0.00277367
0.00276714
0.00280258
0.00280293
0.00283231
0.00283885
0.00286092
0.00287263
0.0028892
0.00290386
0.00291894
0.00293595
0.00294609
0.00296361
0.00296918
0.00298422
0.00298826
0.002999
0.0030027
0.00300954
0.00303444
0.003042
0.00306287
0.00306444
0.0029521
0.00286313
0.00280794
0.00273738
0.00269644
0.0026353
0.00262525
0.0025796
0.0025943
0.0025613
0.00259211
0.00256933
0.00260868
0.00259461
0.00263718
0.00263053
0.00267275
0.0026723
0.00271165
0.00271634
0.00275093
0.00275982
0.00278857
0.0028012
0.00282347
0.0028397
0.00285477
0.0028745
0.00288183
0.00290423
0.00290455
0.00292835
0.00292384
0.00294761
0.00294092
0.00296465
0.00295418
0.00297617
0.00296334
0.00298296
0.0028127
0.00267202
0.00264075
0.00254094
0.00252076
0.00245384
0.00245938
0.00241603
0.0024434
0.00241603
0.00245687
0.00244065
0.00248809
0.00248021
0.00252944
0.00252814
0.00257584
0.00257983
0.00262381
0.00263203
0.00267096
0.00268251
0.00271576
0.00272991
0.00275723
0.00277332
0.00279454
0.00281189
0.002827
0.00284499
0.00285431
0.00287256
0.00287663
0.00289482
0.00289416
0.00291162
0.00290686
0.00292224
0.00291455
0.00292607
0.00259446
0.00245028
0.00243743
0.00232946
0.00233272
0.00226274
0.00229045
0.00224812
0.00229381
0.00226954
0.00232488
0.00231251
0.00237136
0.00236725
0.00242558
0.00242749
0.00248265
0.00248902
0.00253939
0.00254907
0.00259377
0.00260583
0.00264449
0.00265815
0.00269071
0.00270531
0.00273189
0.0027468
0.00276773
0.00278237
0.0027982
0.00281199
0.00282343
0.00283569
0.00284362
0.00285334
0.00285891
0.00286476
0.00286937
0.00286912
0.00234578
0.00220162
0.00221078
0.002104
0.00213183
0.00206465
0.00211619
0.00207685
0.00214335
0.00212185
0.00219442
0.00218442
0.00225722
0.00225495
0.00232453
0.00232763
0.002392
0.00239884
0.00245697
0.00246636
0.00251785
0.00252886
0.0025737
0.00258556
0.00262399
0.00263608
0.00266847
0.00268022
0.00270707
0.00271799
0.00273987
0.00274945
0.00276707
0.00277472
0.00278899
0.00279389
0.00280603
0.00280706
0.00281855
0.00281348
0.0020759
0.00193567
0.00196976
0.00186821
0.00192294
0.00186184
0.00193831
0.00190407
0.00199198
0.00197413
0.0020645
0.00205677
0.00214423
0.00214299
0.00222469
0.00222775
0.00230229
0.00230818
0.00237504
0.00238273
0.00244189
0.00245059
0.00250234
0.00251141
0.00255624
0.00256512
0.00260364
0.00261184
0.00264473
0.00265182
0.0026798
0.00268536
0.00270923
0.0027128
0.00273353
0.00273444
0.0027532
0.00275055
0.00276848
0.00276065
0.00179188
0.00165938
0.00171924
0.00162728
0.00170962
0.001658
0.00175929
0.00173235
0.00184102
0.00182798
0.00193543
0.00193028
0.00203186
0.00203135
0.00212494
0.00212718
0.00221202
0.00221587
0.00229192
0.0022966
0.00236423
0.00236919
0.00242889
0.00243372
0.00248607
0.00249039
0.00253605
0.00253951
0.00257925
0.00258149
0.00261624
0.00261693
0.00264775
0.00264655
0.00267451
0.00267103
0.00269708
0.00269069
0.00271535
0.00270455
0.00150028
0.00137882
0.00146445
0.00138665
0.00149613
0.00145763
0.00158233
0.00156501
0.00169258
0.00168562
0.0018083
0.00180628
0.00192041
0.00192065
0.00202491
0.00202598
0.00212027
0.00212132
0.0022062
0.00220666
0.00228298
0.00228249
0.00235117
0.00234946
0.00241132
0.00240819
0.00246387
0.00245908
0.00250914
0.0025023
0.00254751
0.00253801
0.00257979
0.00256679
0.00260746
0.00259001
0.00263231
0.0026095
0.00265447
0.0026249
0.00120626
0.00109943
0.00121054
0.00115236
0.00128746
0.00126631
0.00141148
0.00140639
0.00154951
0.00155018
0.00168495
0.00168703
0.00181098
0.00181266
0.00192524
0.0019257
0.00202732
0.00202611
0.0021177
0.00211446
0.00219724
0.00219165
0.00226705
0.0022588
0.00232835
0.00231722
0.0023824
0.0023682
0.00243018
0.00241268
0.00247207
0.0024506
0.00250749
0.00248026
0.0025354
0.00249824
0.0025568
0.00250045
0.0025801
0.00248556
0.000914032
0.000826855
0.000963298
0.000932352
0.00109
0.00109118
0.00125193
0.00126188
0.00141556
0.00142565
0.00156806
0.00157568
0.00170554
0.00171013
0.00182751
0.00182912
0.0019347
0.00193353
0.00202829
0.0020245
0.00210952
0.00210319
0.00217956
0.00217072
0.00223952
0.00222819
0.0022906
0.00227694
0.00233442
0.00231896
0.00237334
0.0023574
0.00241075
0.00239689
0.00245083
0.00244344
0.00249747
0.00250256
0.0025483
0.00257695
0.000627
0.000569466
0.000730948
0.000738975
0.000912535
0.000941581
0.00111011
0.00113754
0.00129521
0.00131609
0.00146097
0.00147521
0.00160691
0.00161553
0.00173436
0.00173847
0.00184509
0.00184568
0.00194089
0.00193881
0.00202348
0.00201949
0.00209436
0.00208927
0.00215487
0.00214963
0.00220604
0.00220192
0.0022486
0.00224751
0.00228303
0.0022884
0.00231006
0.00232879
0.00233198
0.00237699
0.0023539
0.00244123
0.00238113
0.00248393
0.000348421
0.000350561
0.000529544
0.000593941
0.000767699
0.000829105
0.000993415
0.00103939
0.00119294
0.00122475
0.00136672
0.00138736
0.00151748
0.00152961
0.00164804
0.00165376
0.00176095
0.00176186
0.00185846
0.0018558
0.00194253
0.00193728
0.00201488
0.00200789
0.00207707
0.00206911
0.00213056
0.00212242
0.00217672
0.0021694
0.00221675
0.00221186
0.00225136
0.0022521
0.00228031
0.00229125
0.00230182
0.00232374
0.00231204
0.00236004
9.40017e-05
0.000261537
0.00039745
0.000529606
0.000672345
0.000765733
0.00090923
0.000972605
0.00111235
0.00115401
0.00128714
0.00131305
0.00143801
0.0014523
0.00156842
0.001574
0.00168123
0.00168016
0.00177881
0.00177257
0.00186317
0.00185287
0.00193602
0.00192253
0.00199876
0.00198289
0.00205251
0.00203527
0.00209812
0.00208105
0.00213612
0.00212189
0.00216672
0.00215938
0.00218996
0.00219338
0.00220621
0.00222212
0.00221711
0.00226099
0.00020407
0.00038386
0.000394821
0.000564075
0.000641953
0.000758064
0.000863133
0.000940318
0.00105575
0.00110556
0.001223
0.00125319
0.00136823
0.00138402
0.00149434
0.00149933
0.00160378
0.00160054
0.00169867
0.00168905
0.00178076
0.00176619
0.00185158
0.00183326
0.00191238
0.00189149
0.00196421
0.00194213
0.00200793
0.00198646
0.00204412
0.00202579
0.00207308
0.00206119
0.00209505
0.00209348
0.00211074
0.0021234
0.00212142
0.00216437
0.000452011
0.000586553
0.000511246
0.000673076
0.000677678
0.000801454
0.000856571
0.000942092
0.00102409
0.00107995
0.00117477
0.00120855
0.00130827
0.00132557
0.00142567
0.00143055
0.00152843
0.00152384
0.00161803
0.00160617
0.00169585
0.00167845
0.00176317
0.00174167
0.00182107
0.00179689
0.00187051
0.0018452
0.00191228
0.00188773
0.00194697
0.00192562
0.00197493
0.00196
0.0019965
0.00199212
0.0020121
0.00202265
0.00202182
0.00206217
0.000692362
0.000800566
0.000678355
0.000819028
0.000763014
0.000882219
0.000885579
0.000973501
0.00101664
0.00107606
0.00114273
0.00117925
0.00125882
0.00127758
0.0013634
0.00136853
0.00145642
0.00145109
0.00153847
0.00152511
0.00161036
0.00159092
0.00167296
0.00164909
0.00172712
0.0017004
0.00177362
0.00174571
0.00181311
0.00178599
0.0018461
0.00182228
0.00187296
0.00185583
0.00189402
0.00188793
0.00190931
0.00191866
0.00191786
0.00195513
0.000920619
0.00100955
0.000858374
0.000977972
0.000876893
0.000985349
0.000942138
0.00102756
0.00103083
0.00109123
0.00112647
0.00116465
0.00122037
0.00124035
0.00130844
0.00131399
0.00138893
0.00138323
0.00146131
0.00144692
0.00152564
0.00150467
0.0015823
0.00155656
0.00163179
0.001603
0.00167462
0.00164457
0.00171127
0.00168206
0.00174215
0.00171644
0.00176763
0.00174896
0.00178801
0.00178082
0.00180291
0.00181148
0.00181028
0.00184423
0.00113519
0.00120822
0.0010369
0.00113777
0.00100352
0.00109916
0.00101709
0.00109679
0.00106263
0.0011217
0.00112466
0.00116333
0.00119289
0.00121369
0.00126136
0.00126742
0.0013268
0.00132105
0.00138749
0.00137251
0.00144269
0.00142066
0.00149216
0.00146503
0.00153597
0.00150559
0.00157435
0.00154264
0.00160756
0.00157674
0.00163589
0.00160876
0.00165967
0.00163992
0.00167918
0.00167126
0.00169361
0.0017016
0.00169975
0.00173005
0.00133515
0.00139423
0.00120789
0.00129222
0.00113309
0.00121576
0.00110237
0.00117459
0.00110731
0.00116328
0.00113513
0.0011732
0.00117576
0.00119696
0.00122238
0.00122896
0.00127063
0.00126514
0.00131781
0.00130267
0.00136235
0.00133975
0.00140338
0.00137537
0.00144053
0.00140905
0.00147366
0.00144075
0.00150279
0.0014708
0.00152808
0.00149993
0.00154982
0.00152931
0.00156825
0.00155982
0.00158209
0.00158957
0.00158688
0.00161312
0.00151987
0.00156637
0.00136841
0.00143797
0.00125978
0.00133004
0.00119173
0.00125573
0.00116025
0.00121194
0.00115526
0.00119179
0.00116784
0.00118901
0.0011913
0.00119842
0.00122079
0.00121584
0.0012529
0.00123805
0.00128538
0.00126274
0.00131679
0.00128842
0.00134627
0.00131419
0.00137333
0.00133969
0.00139772
0.00136498
0.00141946
0.00139066
0.00143877
0.0014178
0.00145586
0.00144713
0.00146895
0.00147596
0.00147224
0.00149399
0.00168899
0.00172393
0.00151687
0.00157306
0.00138006
0.0014387
0.00128065
0.0013363
0.00121737
0.00126411
0.0011822
0.00121651
0.00116762
0.00118836
0.00116762
0.00117524
0.0011774
0.00117327
0.00119326
0.00117916
0.00121249
0.00119036
0.00123316
0.00120501
0.00125399
0.00122188
0.00127414
0.0012403
0.00129312
0.00126008
0.00131074
0.00128168
0.00132721
0.00130609
0.00134268
0.00133383
0.00135484
0.00136139
0.00135643
0.00137322
0.00184229
0.00186655
0.00165231
0.00169631
0.00149171
0.00153956
0.0013659
0.0014134
0.00127529
0.00131679
0.00121321
0.00124485
0.00117331
0.00119333
0.00115047
0.00115859
0.00114032
0.00113728
0.00113922
0.00112636
0.00114426
0.00112325
0.00115322
0.00112596
0.00116449
0.001133
0.00117692
0.00114347
0.00118976
0.00115698
0.0012027
0.00117382
0.00121588
0.00119495
0.00122942
0.00122068
0.00124044
0.00124656
0.00124014
0.00125146
0.0019797
0.00199403
0.0017742
0.001807
0.00159329
0.00163116
0.00144518
0.00148493
0.00133133
0.00136759
0.00124579
0.00127457
0.00118306
0.00120218
0.00113879
0.00114742
0.0011092
0.00110753
0.00109098
0.00107986
0.00108127
0.00106205
0.00107776
0.00105212
0.00107864
0.00104855
0.00108256
0.00105024
0.00108857
0.0010567
0.00109623
0.0010681
0.00110566
0.00108537
0.00111695
0.00110859
0.00112664
0.00113236
0.0011242
0.00112952
0.00210124
0.00210638
0.00188217
0.00190466
0.00168376
0.0017125
0.00151679
0.00154938
0.00138334
0.00141464
0.00127781
0.00130375
0.00119509
0.00121324
0.0011314
0.00114057
0.00108353
0.00108345
0.00104859
0.00103971
0.00102401
0.0010073
0.00100757
0.000984445
0.000997437
0.000969681
0.000992164
0.000961923
0.000990692
0.000960593
0.000992493
0.000965857
0.000997718
0.000978628
0.00100643
0.00099881
0.00101456
0.00101993
0.00100973
0.00100845
0.00220704
0.00220365
0.00197595
0.00198909
0.00176231
0.00178289
0.00157938
0.00160559
0.0014297
0.00145648
0.00130755
0.00133079
0.00120787
0.00122503
0.00112717
0.0011369
0.00106271
0.00106447
0.00101207
0.00100595
0.000973024
0.000959656
0.000943611
0.000924082
0.000922133
0.000897955
0.000907178
0.0008803
0.00089768
0.000870592
0.000893117
0.000869053
0.000893709
0.000876663
0.000899532
0.000893141
0.000905817
0.000910913
0.000898236
0.000889728
0.00229725
0.00228612
0.00205515
0.00206012
0.00182811
0.00184169
0.00163193
0.00165269
0.00146932
0.00149218
0.00133393
0.00135478
0.00122036
0.00123676
0.0011253
0.00113589
0.00104638
0.0010505
0.000981585
0.000979056
0.000929054
0.000920192
0.000887136
0.000872691
0.000854382
0.000835531
0.000829557
0.000807935
0.000811712
0.000789523
0.000800428
0.000780652
0.000796058
0.000782416
0.000798686
0.000794346
0.000802756
0.000807769
0.000791913
0.00077575
0.0023721
0.00235461
0.00211904
0.00211723
0.00188042
0.0018884
0.00167422
0.00169089
0.00150231
0.00152252
0.00135693
0.00137667
0.00123239
0.00124933
0.00112565
0.00113843
0.00103468
0.00104248
0.000957745
0.000960203
0.000893263
0.000890458
0.000839873
0.000832304
0.000796416
0.000784986
0.000761932
0.000747959
0.000735726
0.000721024
0.000717607
0.000704661
0.000708124
0.000700002
0.000707298
0.000706257
0.0007086
0.000713766
0.000693771
0.000669931
0.00243185
0.00240987
0.00216693
0.00215984
0.00191943
0.00192417
0.00170757
0.00172323
0.00152985
0.00155054
0.00137712
0.00139861
0.0012441
0.00126403
0.00112825
0.00114518
0.00102776
0.00104081
0.000941038
0.000949763
0.00086667
0.000871048
0.000803499
0.000803903
0.000750602
0.00074779
0.000707284
0.000702411
0.000673142
0.000667807
0.000648315
0.000644611
0.000633643
0.000633799
0.000629039
0.000633752
0.000626809
0.000633506
0.000607068
0.000577384
0.00247624
0.00244214
0.00219812
0.00219163
0.00194652
0.00195632
0.00173223
0.00175344
0.00155018
0.00157553
0.00139174
0.00141711
0.00125251
0.00127606
0.00113019
0.00115106
0.00102295
0.00104072
0.00092921
0.000943718
0.000847653
0.000858937
0.000777244
0.000785576
0.000717227
0.00072312
0.000667098
0.000671329
0.000626661
0.000630323
0.000596225
0.000600836
0.000576651
0.000583895
0.000567372
0.000577556
0.000559574
0.000570418
0.000533568
0.000510739
0.00249642
0.00245001
0.0022135
0.00220722
0.00195776
0.00196818
0.00174035
0.00175681
0.0015545
0.0015718
0.00139235
0.00140936
0.00124964
0.00126636
0.00112389
0.00114024
0.00101319
0.00102889
0.000915968
0.000930685
0.00083093
0.000844425
0.000757089
0.000769312
0.000693718
0.000704932
0.000640343
0.000651208
0.000596849
0.000608356
0.000563713
0.000576783
0.000541844
0.000556139
0.000529731
0.000541419
0.000515554
0.000517785
0.000476709
0.000453983
0.000311192
0.000357039
0.000366705
0.000408271
0.000451428
0.000494529
0.000558822
0.000603126
0.000679632
0.000724037
0.0008063
0.00085074
0.000935237
0.000979704
0.00106476
0.00110888
0.00119387
0.001237
0.0013218
0.00136324
0.00144796
0.00148703
0.00157184
0.00160791
0.00169297
0.00172551
0.00181087
0.0018395
0.001925
0.00194957
0.00203476
0.00205561
0.00213927
0.00215757
0.00223697
0.00225209
0.00232419
0.00233151
0.00239003
0.0024663
0.000282191
0.000340049
0.000324733
0.000405638
0.000414961
0.000499848
0.000525764
0.000609879
0.000647519
0.000728818
0.000774417
0.000852163
0.000902976
0.000977042
0.00103133
0.00110168
0.00115848
0.00122496
0.00128381
0.00134614
0.00140686
0.00146471
0.00152726
0.00158029
0.00164467
0.00169255
0.0017587
0.00180115
0.00186891
0.00190563
0.00197477
0.00200515
0.00207588
0.00209864
0.00217203
0.00218683
0.00226401
0.00227904
0.00235327
0.00237865
0.000305451
0.000360843
0.000346785
0.000427957
0.000432848
0.000520725
0.000537879
0.000626447
0.000651728
0.000739384
0.000770364
0.000856325
0.000891261
0.00097494
0.00101256
0.00109354
0.00113302
0.00121096
0.00125185
0.00132644
0.00136854
0.00143944
0.00148273
0.00154954
0.00159413
0.00165635
0.0017024
0.00175933
0.00180706
0.00185782
0.00190745
0.00195149
0.00200279
0.00204201
0.0020931
0.00213477
0.00218234
0.00222864
0.00227373
0.00230882
0.000333775
0.000386195
0.000372724
0.00044947
0.000452491
0.00053699
0.000550369
0.000637001
0.000656991
0.000743963
0.000768339
0.000854895
0.000882213
0.000967717
0.00099698
0.00108084
0.00111138
0.0011931
0.00122453
0.00130365
0.0013358
0.00141188
0.00144474
0.00151731
0.00155095
0.00161945
0.00165395
0.00171785
0.00175314
0.00181246
0.00184809
0.00190429
0.00193948
0.00199576
0.00203055
0.00208797
0.0021243
0.00217567
0.00221596
0.00224809
0.000356403
0.000406899
0.000391885
0.000465389
0.000466352
0.000547195
0.000557919
0.000641592
0.00065853
0.00074318
0.000764172
0.000848902
0.000872531
0.00095669
0.000982023
0.00106502
0.00109145
0.00117273
0.0011999
0.00127895
0.00130667
0.00138303
0.00141121
0.00148443
0.00151304
0.00158281
0.00161172
0.00167809
0.00170704
0.00177075
0.00179956
0.00186181
0.00189105
0.00195196
0.00198324
0.0020398
0.0020743
0.00212149
0.00215754
0.00218932
0.000376756
0.000425504
0.000408046
0.000479139
0.000477791
0.000555392
0.00056406
0.000644389
0.00065945
0.000740873
0.000760131
0.000841734
0.000863732
0.000944852
0.000968615
0.0010487
0.00107359
0.00115212
0.00117774
0.00125428
0.00128037
0.0013545
0.00138089
0.00145235
0.0014789
0.00154764
0.00157422
0.00164047
0.00166713
0.00173124
0.00175845
0.00182026
0.00184899
0.00190725
0.00193827
0.00199086
0.00202358
0.00206837
0.00210076
0.00213407
0.000398952
0.000445279
0.000425788
0.0004939
0.000490501
0.000564542
0.000571683
0.000648131
0.000662104
0.000739507
0.000757993
0.000835528
0.000856982
0.000934038
0.000957405
0.00103348
0.00105805
0.00113272
0.00115801
0.00123091
0.00125662
0.00132747
0.00135337
0.00142201
0.00144798
0.00151439
0.00154047
0.00160464
0.00163109
0.00169286
0.00172013
0.00177903
0.00180753
0.00186273
0.00189247
0.00194287
0.00197314
0.00201718
0.00204649
0.00208128
0.000424245
0.000467548
0.000446823
0.000511033
0.00050601
0.000575893
0.000581779
0.000653914
0.000667089
0.000740057
0.000758104
0.00083115
0.000852422
0.000925006
0.00094836
0.00102005
0.00104469
0.00111514
0.00114054
0.00120946
0.00123525
0.00130244
0.00132841
0.00139372
0.0014198
0.0014831
0.00150937
0.00157049
0.00159714
0.00165583
0.00168304
0.00173897
0.00176686
0.00181951
0.00184802
0.00189651
0.00192514
0.00196794
0.00199551
0.00203025
0.00045227
0.000492365
0.000471045
0.000530803
0.00052449
0.000589807
0.000594483
0.000662105
0.000674399
0.000742867
0.000760368
0.000828926
0.000849921
0.00091807
0.000941342
0.0010087
0.0010334
0.00109967
0.0011252
0.00119016
0.00121614
0.00127959
0.00130579
0.00136757
0.0013939
0.00145385
0.00148033
0.00153827
0.00156496
0.00162066
0.00164762
0.0017008
0.00172809
0.00177826
0.00180582
0.00185236
0.00187963
0.00192173
0.00194726
0.00198327
0.000482323
0.000519335
0.000497823
0.000553029
0.000545643
0.000606288
0.000609709
0.000672811
0.000684012
0.00074809
0.000764765
0.000829024
0.000849462
0.000913399
0.000936344
0.0009996
0.00102415
0.00108646
0.00111198
0.00117312
0.00119919
0.00125899
0.00128535
0.00134364
0.00137014
0.00142678
0.00145334
0.00150818
0.00153479
0.00158763
0.00161431
0.00166488
0.00169162
0.00173953
0.00176621
0.00181096
0.00183709
0.00187809
0.0019025
0.00193904
0.000513793
0.000547986
0.000526526
0.000577373
0.000569066
0.000625163
0.000627299
0.000686002
0.000695923
0.000755779
0.00077136
0.000831539
0.000851129
0.0009111
0.000933443
0.000992839
0.00101701
0.00107556
0.00110088
0.00115839
0.0011844
0.00124069
0.00126707
0.00132199
0.00134854
0.00140196
0.00142855
0.00148033
0.00150689
0.00155686
0.00158334
0.00163126
0.00165762
0.00170315
0.00172931
0.00177196
0.00179759
0.00183685
0.00186094
0.00189651
0.000546205
0.000577884
0.000556636
0.000603454
0.000594361
0.000646165
0.000647033
0.000701532
0.000710072
0.000765891
0.00078019
0.000836486
0.000854998
0.000911214
0.000932717
0.000988465
0.00101202
0.00106703
0.00109194
0.00114599
0.00117176
0.00122469
0.00125095
0.00130261
0.00132913
0.00137939
0.00140599
0.00145472
0.00148128
0.00152831
0.00155477
0.00159986
0.00162615
0.001669
0.00169504
0.00173536
0.00176077
0.00179836
0.00182209
0.00185702
0.000579199
0.000608656
0.000587729
0.000630896
0.000621146
0.000668974
0.000668637
0.000719175
0.000726306
0.000778287
0.000791199
0.000843795
0.000861071
0.000913711
0.000934188
0.000986464
0.00100922
0.00106084
0.00108517
0.00113591
0.00116128
0.00121098
0.00123699
0.0012855
0.00131187
0.00135906
0.00138559
0.00143133
0.00145786
0.00150198
0.0015284
0.00157072
0.00159692
0.00163725
0.0016631
0.00170131
0.00172646
0.00176244
0.00178609
0.00181977
0.000612493
0.000639988
0.000619459
0.000659349
0.000649065
0.000693257
0.000691806
0.000738652
0.000744401
0.000792759
0.000804242
0.000853322
0.000869261
0.000918494
0.000937806
0.00098677
0.00100857
0.00105695
0.00108053
0.00112811
0.00115291
0.00119952
0.00122512
0.0012706
0.0012967
0.00134093
0.00136727
0.00141013
0.00143652
0.00147788
0.00150416
0.00154389
0.00156992
0.00160791
0.00163356
0.00166974
0.00169471
0.00172906
0.0017525
0.00178519
0.000645863
0.000671618
0.00065154
0.0006885
0.000677793
0.000718685
0.000716224
0.000759662
0.000764086
0.000809053
0.000819105
0.000864865
0.000879412
0.000925408
0.000943454
0.000989265
0.00100997
0.00105528
0.00107794
0.00112252
0.00114659
0.00119024
0.00121529
0.00125788
0.00128354
0.00132496
0.00135096
0.0013911
0.00141722
0.00145597
0.00148203
0.00151929
0.00154516
0.00158084
0.00160639
0.00164036
0.00166539
0.00169747
0.00172139
0.00175181
0.000679118
0.000703318
0.000683725
0.000718068
0.000707035
0.000744945
0.000741581
0.000781894
0.00078507
0.000826887
0.000835536
0.000878181
0.000891311
0.000934252
0.000950963
0.000993787
0.00101329
0.00105568
0.00107731
0.00111902
0.00114222
0.00118307
0.0012074
0.00124725
0.00127235
0.00131107
0.00133664
0.00137415
0.00139995
0.00143615
0.00146198
0.00149678
0.00152248
0.00155577
0.00158124
0.00161292
0.00163792
0.00166794
0.00169178
0.00172077
0.000712089
0.000734887
0.000715798
0.000747797
0.000736522
0.000771744
0.000767581
0.000805041
0.000807055
0.000845965
0.000853259
0.000893001
0.000904719
0.000944793
0.000960129
0.00100013
0.00101836
0.00105799
0.00107848
0.00111747
0.00113969
0.00117788
0.00120138
0.00123861
0.00126302
0.00129918
0.0013242
0.00135919
0.00138456
0.0014183
0.00144382
0.0014762
0.00150172
0.00153267
0.00155801
0.00158749
0.00161242
0.00164043
0.00166441
0.0016915
0.000744618
0.00076614
0.000747563
0.000777458
0.000766011
0.00079881
0.000793942
0.000828809
0.00082975
0.00086599
0.000871991
0.000909043
0.000919371
0.00095677
0.000970715
0.00100808
0.00102498
0.001062
0.00108128
0.00111771
0.00113884
0.00117451
0.00119707
0.00123181
0.00125543
0.00128914
0.0013135
0.00134609
0.00137093
0.0014023
0.0014274
0.0014575
0.00148266
0.00151145
0.0015365
0.00156398
0.0015887
0.00161492
0.00163876
0.00166435
0.000776553
0.000796903
0.000778837
0.000806835
0.000795274
0.000825888
0.000820404
0.000852916
0.000852873
0.00088667
0.000891447
0.00092602
0.000934997
0.000969913
0.000982471
0.00101737
0.00103292
0.0010675
0.0010855
0.00111952
0.0011395
0.00117278
0.0011943
0.00122671
0.00124942
0.00128082
0.00130441
0.00133471
0.00135891
0.00138805
0.00141262
0.00144054
0.00146529
0.00149196
0.00151672
0.00154212
0.00156672
0.00159081
0.00161486
0.00163816
0.000807745
0.00082701
0.000809448
0.000835729
0.0008241
0.000852739
0.000846717
0.000877094
0.000876154
0.000907722
0.000911348
0.000943645
0.000951319
0.000983943
0.000995133
0.00102774
0.00104193
0.00107423
0.00109092
0.00112269
0.00114144
0.0011725
0.0011929
0.0012231
0.00124481
0.00127404
0.00129675
0.00132492
0.00134836
0.0013754
0.00139934
0.00142519
0.00144945
0.00147406
0.00149847
0.00152179
0.00154618
0.00156817
0.00159214
0.00161337
0.000838047
0.000856298
0.000839227
0.000863947
0.000852289
0.00087914
0.00087265
0.00090109
0.000899332
0.00092887
0.000931422
0.000961635
0.000968064
0.000998579
0.00100843
0.00103893
0.00105175
0.00108195
0.0010973
0.00112698
0.00114445
0.00117343
0.00119265
0.0012208
0.00124142
0.00126862
0.00129036
0.00131652
0.00133911
0.00136417
0.00138737
0.0014113
0.00143489
0.00145765
0.00148146
0.00150304
0.00152683
0.00154728
0.00157059
0.00159069
0.000867309
0.000884606
0.000868009
0.000891304
0.000879646
0.000904875
0.000897978
0.000924661
0.000922162
0.000949854
0.000951405
0.000979716
0.000984961
0.00101354
0.0010221
0.00105065
0.00106213
0.00109038
0.00110439
0.00113214
0.0011483
0.00117536
0.00119334
0.00121958
0.00123905
0.00126436
0.00128505
0.00130935
0.00133098
0.00135421
0.00137656
0.00139868
0.00142153
0.00144254
0.00146571
0.0014856
0.00150892
0.00152762
0.00155086
0.00156873
0.00089538
0.000911774
0.000895631
0.000917621
0.000905986
0.000929738
0.000922487
0.000947576
0.000944404
0.00097042
0.000971042
0.000997622
0.00100175
0.00102857
0.00103588
0.00106265
0.00107281
0.00109927
0.00111195
0.0011379
0.00115275
0.00117803
0.00119474
0.00121921
0.00123749
0.00126104
0.00128062
0.00130318
0.00132381
0.00134532
0.00136677
0.00138719
0.00140926
0.00142853
0.00145105
0.00146918
0.00149195
0.00150894
0.00153158
0.00154805
0.000922105
0.000937637
0.000921928
0.000942716
0.000931121
0.000953526
0.00094597
0.000969608
0.00096583
0.000990322
0.000990085
0.00101509
0.00101816
0.00104338
0.00104949
0.00107464
0.00108352
0.00110835
0.0011197
0.00114402
0.00115755
0.00118119
0.00119662
0.00121945
0.00123651
0.00125842
0.00127686
0.00129779
0.00131736
0.00133726
0.00135775
0.00137658
0.00139779
0.00141549
0.00143724
0.00145376
0.00147585
0.00149119
0.00151327
0.00152814
0.000947324
0.000962028
0.00094673
0.000966406
0.000954866
0.000976039
0.000968219
0.000990538
0.000986213
0.00100932
0.00100829
0.00103187
0.00103395
0.00105771
0.00106269
0.00108635
0.00109399
0.00111734
0.0011274
0.00115022
0.00116244
0.00118459
0.00119872
0.00122005
0.00123586
0.00125627
0.00127353
0.00129295
0.00131143
0.0013298
0.00134928
0.0013666
0.00138688
0.00140312
0.00142401
0.00143913
0.00146047
0.00147433
0.00149587
0.00150887
0.000970871
0.000984772
0.000969862
0.000988506
0.000977032
0.000997072
0.000989028
0.00101014
0.00100533
0.00102718
0.00102543
0.00104771
0.00104887
0.0010713
0.0010752
0.00109753
0.00110398
0.00112597
0.00113477
0.00115624
0.00116717
0.00118795
0.00120079
0.00122076
0.0012353
0.00125435
0.00127039
0.00128843
0.00130576
0.00132275