/*--------------------------------*- C++ -*----------------------------------*\
| =========                 |                                                 |
| \\      /  F ield         | OpenFOAM: The Open Source CFD Toolbox           |
|  \\    /   O peration     | Version:  v2012                                 |
|   \\  /    A nd           | Website:  www.openfoam.com                      |
|    \\/     M anipulation  |                                                 |
\*---------------------------------------------------------------------------*/
FoamFile
{
    version     2.0;
    format      ascii;
    class       volScalarField;
    location    "10";
    object      sigmaEq;
}
// * * * * * * * * * * * * * * * * * * * * * * * * * * * * * * * * * * * * * //

dimensions      [1 -1 -2 0 0 0 0];


internalField   nonuniform List<scalar> 
8000
(
2.43e+08
2.43e+08
2.43e+08
2.43e+08
2.43e+08
2.43e+08
2.43e+08
2.43e+08
2.43e+08
2.43e+08
2.43e+08
2.43e+08
2.43e+08
2.43e+08
2.43e+08
2.43e+08
2.43e+08
2.43e+08
2.43e+08
2.43e+08
2.43e+08
2.43e+08
2.43e+08
2.43e+08
2.43e+08
2.43e+08
2.43e+08
2.43e+08
2.43e+08
2.43e+08
2.43e+08
2.43e+08
2.43e+08
2.43e+08
2.43e+08
2.43e+08
2.43e+08
2.43e+08
2.35178e+08
2.37957e+08
2.43e+08
2.43e+08
2.43e+08
2.43e+08
2.43e+08
2.43e+08
2.43e+08
2.43e+08
2.43e+08
2.43e+08
2.43e+08
2.43e+08
2.43e+08
2.43e+08
2.43e+08
2.43e+08
2.43e+08
2.43e+08
2.43e+08
2.43e+08
2.43e+08
2.43e+08
2.43e+08
2.43e+08
2.43e+08
2.43e+08
2.43e+08
2.43e+08
2.43e+08
2.43e+08
2.43e+08
2.43e+08
2.43e+08
2.43e+08
2.43e+08
2.43e+08
2.43e+08
2.43e+08
2.38794e+08
2.42052e+08
2.43e+08
2.43e+08
2.43e+08
2.43e+08
2.43e+08
2.43e+08
2.43e+08
2.43e+08
2.43e+08
2.43e+08
2.43e+08
2.43e+08
2.43e+08
2.43e+08
2.43e+08
2.43e+08
2.43e+08
2.43e+08
2.43e+08
2.43e+08
2.43e+08
2.43e+08
2.43e+08
2.43e+08
2.43e+08
2.43e+08
2.43e+08
2.43e+08
2.43e+08
2.43e+08
2.43e+08
2.43e+08
2.43e+08
2.43e+08
2.43e+08
2.43e+08
2.43e+08
2.43e+08
2.43e+08
2.43e+08
2.43e+08
2.43e+08
2.43e+08
2.43e+08
2.43e+08
2.43e+08
2.43e+08
2.43e+08
2.43e+08
2.43e+08
2.43e+08
2.43e+08
2.43e+08
2.43e+08
2.43e+08
2.43e+08
2.43e+08
2.43e+08
2.43e+08
2.43e+08
2.43e+08
2.43e+08
2.43e+08
2.43e+08
2.43e+08
2.43e+08
2.43e+08
2.43e+08
2.43e+08
2.43e+08
2.43e+08
2.43e+08
2.43e+08
2.43e+08
2.43e+08
2.43e+08
2.43e+08
2.43e+08
2.43e+08
2.43e+08
2.43e+08
2.43e+08
2.43e+08
2.43e+08
2.43e+08
2.43e+08
2.43e+08
2.43e+08
2.43e+08
2.43e+08
2.43e+08
2.43e+08
2.43e+08
2.43e+08
2.43e+08
2.43e+08
2.43e+08
2.43e+08
2.43e+08
2.43e+08
2.43e+08
2.43e+08
2.43e+08
2.43e+08
2.43e+08
2.43e+08
2.43e+08
2.43e+08
2.43e+08
2.43e+08
2.43e+08
2.43e+08
2.43e+08
2.43e+08
2.43e+08
2.43e+08
2.43e+08
2.43e+08
2.43e+08
2.43e+08
2.43e+08
2.43e+08
2.43e+08
2.43e+08
2.43e+08
2.43e+08
2.43e+08
2.43e+08
2.43e+08
2.43e+08
2.43e+08
2.43e+08
2.43e+08
2.43e+08
2.43e+08
2.43e+08
2.43e+08
2.43e+08
2.43e+08
2.43e+08
2.43e+08
2.43e+08
2.43e+08
2.43e+08
2.43e+08
2.43e+08
2.43e+08
2.43e+08
2.43e+08
2.43e+08
2.43e+08
2.43e+08
2.43e+08
2.43e+08
2.43e+08
2.43e+08
2.43e+08
2.43e+08
2.43e+08
2.43e+08
2.43e+08
2.43e+08
2.43e+08
2.43e+08
2.43e+08
2.43e+08
2.43e+08
2.43e+08
2.43e+08
2.43e+08
2.43e+08
2.43e+08
2.43e+08
2.43e+08
2.43e+08
2.43e+08
2.43e+08
2.43e+08
2.43e+08
2.43e+08
2.43e+08
2.43e+08
2.43e+08
2.43e+08
2.43e+08
2.43e+08
2.43e+08
2.43e+08
2.43e+08
2.43e+08
2.43e+08
2.43e+08
2.43e+08
2.43e+08
2.43e+08
2.43e+08
2.43e+08
2.43e+08
2.43e+08
2.43e+08
2.43e+08
2.43e+08
2.43e+08
2.43e+08
2.43e+08
2.43e+08
2.43e+08
2.43e+08
2.43e+08
2.43e+08
2.43e+08
2.43e+08
2.43e+08
2.43e+08
2.43e+08
2.43e+08
2.43e+08
2.43e+08
2.43e+08
2.43e+08
2.43e+08
2.43e+08
2.43e+08
2.43e+08
2.43e+08
2.43e+08
2.43e+08
2.43e+08
2.43e+08
2.43e+08
2.43e+08
2.43e+08
2.43e+08
2.43e+08
2.43e+08
2.43e+08
2.43e+08
2.43e+08
2.43e+08
2.43e+08
2.43e+08
2.43e+08
2.43e+08
2.43e+08
2.43e+08
2.43e+08
2.43e+08
2.43e+08
2.43e+08
2.42231e+08
2.40112e+08
2.381e+08
2.38796e+08
2.37444e+08
2.39629e+08
2.3799e+08
2.41431e+08
2.39129e+08
2.43e+08
2.40958e+08
2.43e+08
2.43e+08
2.43e+08
2.43e+08
2.43e+08
2.43e+08
2.43e+08
2.43e+08
2.43e+08
2.43e+08
2.43e+08
2.43e+08
2.43e+08
2.43e+08
2.43e+08
2.43e+08
2.43e+08
2.43e+08
2.43e+08
2.43e+08
2.43e+08
2.43e+08
2.43e+08
2.43e+08
2.43e+08
2.42416e+08
2.3711e+08
2.33319e+08
2.32618e+08
2.30316e+08
2.30616e+08
2.28816e+08
2.3014e+08
2.28613e+08
2.30687e+08
2.29537e+08
2.31953e+08
2.31239e+08
2.33858e+08
2.33528e+08
2.36207e+08
2.36152e+08
2.38643e+08
2.384e+08
2.40967e+08
2.40338e+08
2.42856e+08
2.42031e+08
2.43e+08
2.43e+08
2.43e+08
2.43e+08
2.43e+08
2.43e+08
2.43e+08
2.43e+08
2.43e+08
2.43e+08
2.43e+08
2.43e+08
2.43e+08
2.43e+08
2.4079e+08
2.3401e+08
2.31068e+08
2.26887e+08
2.25001e+08
2.21597e+08
2.21676e+08
2.18707e+08
2.20392e+08
2.18087e+08
2.20668e+08
2.19008e+08
2.22018e+08
2.20935e+08
2.24027e+08
2.235e+08
2.26362e+08
2.26391e+08
2.28764e+08
2.29292e+08
2.31074e+08
2.3202e+08
2.33359e+08
2.34542e+08
2.35761e+08
2.37134e+08
2.37953e+08
2.39368e+08
2.39818e+08
2.41033e+08
2.41359e+08
2.42227e+08
2.42526e+08
2.43e+08
2.43e+08
2.43e+08
2.43e+08
2.43e+08
2.38439e+08
2.31253e+08
2.26795e+08
2.21096e+08
2.1779e+08
2.12851e+08
2.12039e+08
2.08352e+08
2.0954e+08
2.06875e+08
2.09363e+08
2.07523e+08
2.10701e+08
2.09565e+08
2.13003e+08
2.12466e+08
2.15876e+08
2.1584e+08
2.19018e+08
2.19397e+08
2.2219e+08
2.22909e+08
2.25231e+08
2.26251e+08
2.2805e+08
2.2936e+08
2.30577e+08
2.32171e+08
2.32763e+08
2.34573e+08
2.34598e+08
2.36521e+08
2.36156e+08
2.38076e+08
2.37536e+08
2.39453e+08
2.38607e+08
2.40383e+08
2.39347e+08
2.40931e+08
2.27179e+08
2.15817e+08
2.13291e+08
2.0523e+08
2.03599e+08
1.98195e+08
1.98643e+08
1.95141e+08
1.97351e+08
1.95141e+08
1.98439e+08
1.97129e+08
2.00961e+08
2.00325e+08
2.04301e+08
2.04196e+08
2.08049e+08
2.08371e+08
2.11923e+08
2.12587e+08
2.15731e+08
2.16664e+08
2.1935e+08
2.20492e+08
2.22699e+08
2.23999e+08
2.25713e+08
2.27114e+08
2.28334e+08
2.29788e+08
2.30541e+08
2.32015e+08
2.32344e+08
2.33813e+08
2.33759e+08
2.35169e+08
2.34785e+08
2.36027e+08
2.35406e+08
2.36337e+08
2.09553e+08
1.97907e+08
1.9687e+08
1.88148e+08
1.88412e+08
1.82759e+08
1.84998e+08
1.81579e+08
1.85269e+08
1.83309e+08
1.87779e+08
1.86779e+08
1.91533e+08
1.91201e+08
1.95912e+08
1.96066e+08
2.00521e+08
2.01036e+08
2.05105e+08
2.05886e+08
2.09497e+08
2.10471e+08
2.13593e+08
2.14697e+08
2.17326e+08
2.18506e+08
2.20652e+08
2.21857e+08
2.23547e+08
2.2473e+08
2.26008e+08
2.27122e+08
2.28047e+08
2.29037e+08
2.29677e+08
2.30462e+08
2.30912e+08
2.31384e+08
2.31757e+08
2.31736e+08
1.89467e+08
1.77823e+08
1.78563e+08
1.69939e+08
1.72186e+08
1.6676e+08
1.70923e+08
1.67745e+08
1.73117e+08
1.7138e+08
1.77241e+08
1.76434e+08
1.82314e+08
1.82131e+08
1.8775e+08
1.88001e+08
1.932e+08
1.93752e+08
1.98448e+08
1.99206e+08
2.03365e+08
2.04254e+08
2.07876e+08
2.08834e+08
2.11938e+08
2.12914e+08
2.1553e+08
2.16479e+08
2.18648e+08
2.1953e+08
2.21297e+08
2.22071e+08
2.23494e+08
2.24112e+08
2.25264e+08
2.2566e+08
2.26641e+08
2.26724e+08
2.27652e+08
2.27243e+08
1.67669e+08
1.56343e+08
1.59096e+08
1.50894e+08
1.55314e+08
1.50379e+08
1.56556e+08
1.5379e+08
1.60891e+08
1.59449e+08
1.66748e+08
1.66123e+08
1.73188e+08
1.73088e+08
1.79687e+08
1.79933e+08
1.85954e+08
1.8643e+08
1.9183e+08
1.92452e+08
1.9723e+08
1.97933e+08
2.02112e+08
2.02845e+08
2.06466e+08
2.07182e+08
2.10294e+08
2.10956e+08
2.13612e+08
2.14185e+08
2.16445e+08
2.16895e+08
2.18823e+08
2.19111e+08
2.20785e+08
2.20859e+08
2.22374e+08
2.2216e+08
2.23608e+08
2.22976e+08
1.44729e+08
1.34027e+08
1.38862e+08
1.31434e+08
1.38085e+08
1.33915e+08
1.42097e+08
1.3992e+08
1.48698e+08
1.47644e+08
1.56323e+08
1.55907e+08
1.64112e+08
1.6407e+08
1.71629e+08
1.71811e+08
1.78663e+08
1.78974e+08
1.85117e+08
1.85495e+08
1.90957e+08
1.91358e+08
1.9618e+08
1.9657e+08
2.00798e+08
2.01147e+08
2.04835e+08
2.05114e+08
2.08324e+08
2.08505e+08
2.11312e+08
2.11368e+08
2.13857e+08
2.1376e+08
2.16018e+08
2.15737e+08
2.17841e+08
2.17325e+08
2.19317e+08
2.18445e+08
1.21176e+08
1.11366e+08
1.18283e+08
1.11998e+08
1.20841e+08
1.17732e+08
1.27803e+08
1.26405e+08
1.36708e+08
1.36146e+08
1.46055e+08
1.45892e+08
1.5511e+08
1.55129e+08
1.6355e+08
1.63637e+08
1.71253e+08
1.71337e+08
1.78193e+08
1.7823e+08
1.84395e+08
1.84355e+08
1.89902e+08
1.89764e+08
1.9476e+08
1.94507e+08
1.99005e+08
1.98618e+08
2.02661e+08
2.02109e+08
2.05761e+08
2.04993e+08
2.08367e+08
2.07317e+08
2.10602e+08
2.09193e+08
2.1261e+08
2.10767e+08
2.144e+08
2.12011e+08
9.74289e+07
8.87998e+07
9.77747e+07
9.30755e+07
1.03987e+08
1.02279e+08
1.14004e+08
1.13593e+08
1.25152e+08
1.25207e+08
1.36092e+08
1.3626e+08
1.46272e+08
1.46407e+08
1.555e+08
1.55538e+08
1.63745e+08
1.63647e+08
1.71045e+08
1.70783e+08
1.77469e+08
1.77018e+08
1.83108e+08
1.82442e+08
1.88059e+08
1.8716e+08
1.92424e+08
1.91278e+08
1.96284e+08
1.94871e+08
1.99667e+08
1.97933e+08
2.02528e+08
2.00328e+08
2.04782e+08
2.01781e+08
2.06511e+08
2.0196e+08
2.08393e+08
2.00757e+08
7.38257e+07
6.67845e+07
7.78048e+07
7.53053e+07
8.80386e+07
8.8134e+07
1.01117e+08
1.01921e+08
1.14334e+08
1.15148e+08
1.26651e+08
1.27266e+08
1.37755e+08
1.38126e+08
1.47606e+08
1.47736e+08
1.56264e+08
1.56169e+08
1.63823e+08
1.63517e+08
1.70384e+08
1.69873e+08
1.76041e+08
1.75328e+08
1.80884e+08
1.79969e+08
1.8501e+08
1.83907e+08
1.88549e+08
1.87301e+08
1.91693e+08
1.90405e+08
1.94714e+08
1.93595e+08
1.97952e+08
1.97355e+08
2.01719e+08
2.0213e+08
2.05824e+08
2.08139e+08
5.06423e+07
4.59953e+07
5.90381e+07
5.96864e+07
7.37047e+07
7.60508e+07
8.96626e+07
9.18784e+07
1.04613e+08
1.06299e+08
1.18002e+08
1.19152e+08
1.29789e+08
1.30485e+08
1.40083e+08
1.40415e+08
1.49026e+08
1.49074e+08
1.56765e+08
1.56596e+08
1.63435e+08
1.63113e+08
1.6916e+08
1.68749e+08
1.74047e+08
1.73624e+08
1.7818e+08
1.77847e+08
1.81618e+08
1.8153e+08
1.84399e+08
1.84833e+08
1.86582e+08
1.88095e+08
1.88352e+08
1.91988e+08
1.90122e+08
1.97176e+08
1.92322e+08
2.00625e+08
2.81417e+07
2.83145e+07
4.27709e+07
4.79721e+07
6.20065e+07
6.69662e+07
8.02374e+07
8.39508e+07
9.63527e+07
9.89218e+07
1.10389e+08
1.12056e+08
1.22565e+08
1.23546e+08
1.33111e+08
1.33573e+08
1.4223e+08
1.42304e+08
1.50106e+08
1.49891e+08
1.56896e+08
1.56473e+08
1.6274e+08
1.62175e+08
1.67763e+08
1.6712e+08
1.72083e+08
1.71427e+08
1.75812e+08
1.7522e+08
1.79045e+08
1.7865e+08
1.8184e+08
1.81901e+08
1.84179e+08
1.85063e+08
1.85916e+08
1.87687e+08
1.86742e+08
1.90619e+08
7.59245e+06
2.11241e+07
3.21017e+07
4.27759e+07
5.43048e+07
6.18477e+07
7.34378e+07
7.85565e+07
8.98436e+07
9.32087e+07
1.03961e+08
1.06054e+08
1.16147e+08
1.17301e+08
1.2668e+08
1.27131e+08
1.35792e+08
1.35705e+08
1.43673e+08
1.43169e+08
1.50487e+08
1.49655e+08
1.56371e+08
1.55281e+08
1.61438e+08
1.60157e+08
1.6578e+08
1.64387e+08
1.69463e+08
1.68085e+08
1.72532e+08
1.71384e+08
1.75004e+08
1.74412e+08
1.76882e+08
1.77158e+08
1.78194e+08
1.79479e+08
1.79075e+08
1.82619e+08
1.64826e+07
3.10041e+07
3.18894e+07
4.55599e+07
5.18501e+07
6.12282e+07
6.97146e+07
7.59487e+07
8.52725e+07
8.92955e+07
9.87805e+07
1.01219e+08
1.10511e+08
1.11786e+08
1.20696e+08
1.211e+08
1.29536e+08
1.29275e+08
1.372e+08
1.36423e+08
1.43831e+08
1.42654e+08
1.49551e+08
1.48071e+08
1.54461e+08
1.52774e+08
1.58648e+08
1.56864e+08
1.62179e+08
1.60444e+08
1.65102e+08
1.63621e+08
1.67441e+08
1.66481e+08
1.69215e+08
1.69088e+08
1.70483e+08
1.71505e+08
1.71345e+08
1.74815e+08
3.65086e+07
4.73755e+07
4.12929e+07
5.43638e+07
5.47355e+07
6.47328e+07
6.91846e+07
7.6092e+07
8.27148e+07
8.72264e+07
9.4885e+07
9.76133e+07
1.05668e+08
1.07065e+08
1.1515e+08
1.15545e+08
1.2345e+08
1.2308e+08
1.30687e+08
1.29729e+08
1.36973e+08
1.35567e+08
1.4241e+08
1.40674e+08
1.47086e+08
1.45134e+08
1.5108e+08
1.49035e+08
1.54454e+08
1.5247e+08
1.57255e+08
1.55531e+08
1.59513e+08
1.58307e+08
1.61256e+08
1.60902e+08
1.62516e+08
1.63368e+08
1.63301e+08
1.6656e+08
5.59216e+07
6.46611e+07
5.47903e+07
6.61523e+07
6.1628e+07
7.12562e+07
7.15276e+07
7.86289e+07
8.21129e+07
8.69126e+07
9.22976e+07
9.5247e+07
1.01674e+08
1.03189e+08
1.1012e+08
1.10535e+08
1.17634e+08
1.17203e+08
1.24261e+08
1.23182e+08
1.30067e+08
1.28497e+08
1.35124e+08
1.33196e+08
1.39498e+08
1.3734e+08
1.43254e+08
1.41e+08
1.46443e+08
1.44253e+08
1.49108e+08
1.47184e+08
1.51277e+08
1.49894e+08
1.52979e+08
1.52487e+08
1.54213e+08
1.54969e+08
1.54904e+08
1.57915e+08
7.43577e+07
8.15405e+07
6.93302e+07
7.899e+07
7.0826e+07
7.95859e+07
7.60958e+07
8.29953e+07
8.32593e+07
8.81378e+07
9.09845e+07
9.40681e+07
9.85687e+07
1.00182e+08
1.05681e+08
1.0613e+08
1.12183e+08
1.11722e+08
1.18029e+08
1.16867e+08
1.23225e+08
1.21531e+08
1.27801e+08
1.25722e+08
1.31798e+08
1.29473e+08
1.35257e+08
1.32831e+08
1.38218e+08
1.35859e+08
1.40712e+08
1.38636e+08
1.4277e+08
1.41263e+08
1.44416e+08
1.43836e+08
1.45619e+08
1.46312e+08
1.46215e+08
1.48957e+08
9.16887e+07
9.75867e+07
8.37494e+07
9.18966e+07
8.10533e+07
8.87784e+07
8.215e+07
8.85867e+07
8.58276e+07
9.05985e+07
9.08376e+07
9.3961e+07
9.63488e+07
9.80291e+07
1.01879e+08
1.02368e+08
1.07164e+08
1.067e+08
1.12067e+08
1.10857e+08
1.16525e+08
1.14746e+08
1.2052e+08
1.18329e+08
1.24059e+08
1.21606e+08
1.27159e+08
1.24598e+08
1.29841e+08
1.27352e+08
1.32129e+08
1.29939e+08
1.3405e+08
1.32455e+08
1.35626e+08
1.34986e+08
1.36792e+08
1.37437e+08
1.37288e+08
1.39735e+08
1.07839e+08
1.12611e+08
9.75603e+07
1.04372e+08
9.15187e+07
9.8196e+07
8.90378e+07
9.48705e+07
8.94367e+07
9.39574e+07
9.16838e+07
9.47582e+07
9.49649e+07
9.66774e+07
9.87305e+07
9.92626e+07
1.02628e+08
1.02184e+08
1.06439e+08
1.05216e+08
1.10036e+08
1.08211e+08
1.1335e+08
1.11087e+08
1.16351e+08
1.13808e+08
1.19026e+08
1.16368e+08
1.21379e+08
1.18795e+08
1.23422e+08
1.21148e+08
1.25177e+08
1.23521e+08
1.26666e+08
1.25986e+08
1.27784e+08
1.28388e+08
1.28171e+08
1.30291e+08
1.22759e+08
1.26515e+08
1.10526e+08
1.16144e+08
1.01751e+08
1.07426e+08
9.62554e+07
1.01425e+08
9.37127e+07
9.78878e+07
9.33094e+07
9.626e+07
9.43258e+07
9.60354e+07
9.62208e+07
9.67957e+07
9.86023e+07
9.82026e+07
1.01196e+08
9.99962e+07
1.03819e+08
1.01991e+08
1.06356e+08
1.04065e+08
1.08737e+08
1.06146e+08
1.10923e+08
1.08206e+08
1.12893e+08
1.10248e+08
1.14648e+08
1.12322e+08
1.16208e+08
1.14515e+08
1.17589e+08
1.16884e+08
1.18646e+08
1.19212e+08
1.18911e+08
1.20668e+08
1.36418e+08
1.39241e+08
1.22516e+08
1.27055e+08
1.11466e+08
1.16203e+08
1.03437e+08
1.07932e+08
9.83261e+07
1.02101e+08
9.54853e+07
9.82564e+07
9.43078e+07
9.5983e+07
9.43074e+07
9.49236e+07
9.50975e+07
9.47639e+07
9.63789e+07
9.52397e+07
9.79315e+07
9.61441e+07
9.96012e+07
9.73275e+07
1.01284e+08
9.86905e+07
1.02912e+08
1.00178e+08
1.04444e+08
1.01776e+08
1.05868e+08
1.0352e+08
1.07198e+08
1.05492e+08
1.08447e+08
1.07733e+08
1.09429e+08
1.09958e+08
1.09558e+08
1.10914e+08
1.488e+08
1.5076e+08
1.33456e+08
1.3701e+08
1.20484e+08
1.24349e+08
1.10323e+08
1.14159e+08
1.03004e+08
1.06356e+08
9.79897e+07
1.00546e+08
9.47674e+07
9.63842e+07
9.29223e+07
9.35785e+07
9.21028e+07
9.18572e+07
9.20143e+07
9.0975e+07
9.24213e+07
9.07244e+07
9.3145e+07
9.09426e+07
9.40548e+07
9.15118e+07
9.50586e+07
9.23572e+07
9.60961e+07
9.34482e+07
9.7141e+07
9.48087e+07
9.82059e+07
9.65155e+07
9.92991e+07
9.85934e+07
1.0019e+08
1.00684e+08
1.00165e+08
1.0108e+08
1.59899e+08
1.61057e+08
1.43301e+08
1.4595e+08
1.28689e+08
1.31748e+08
1.16726e+08
1.19937e+08
1.0753e+08
1.10459e+08
1.00621e+08
1.02946e+08
9.55549e+07
9.70991e+07
9.19788e+07
9.26764e+07
8.95895e+07
8.9454e+07
8.81177e+07
8.72191e+07
8.73332e+07
8.57807e+07
8.70495e+07
8.49792e+07
8.71207e+07
8.46902e+07
8.74372e+07
8.48275e+07
8.79229e+07
8.53486e+07
8.85414e+07
8.62698e+07
8.93035e+07
8.76643e+07
9.0215e+07
8.95403e+07
9.09975e+07
9.14597e+07
9.0801e+07
9.12307e+07
1.69716e+08
1.7013e+08
1.52021e+08
1.53838e+08
1.35996e+08
1.38318e+08
1.2251e+08
1.25142e+08
1.11732e+08
1.14259e+08
1.03208e+08
1.05303e+08
9.65267e+07
9.79928e+07
9.13819e+07
9.21229e+07
8.75155e+07
8.75096e+07
8.46939e+07
8.39763e+07
8.27085e+07
8.13587e+07
8.13805e+07
7.95129e+07
8.05623e+07
7.83204e+07
8.01364e+07
7.76938e+07
8.00174e+07
7.75864e+07
8.01629e+07
7.80115e+07
8.05849e+07
7.9043e+07
8.12887e+07
8.06731e+07
8.19448e+07
8.23787e+07
8.15548e+07
8.14514e+07
1.78261e+08
1.77987e+08
1.59596e+08
1.60657e+08
1.4234e+08
1.44002e+08
1.27565e+08
1.29682e+08
1.15476e+08
1.17639e+08
1.0561e+08
1.07487e+08
9.75587e+07
9.89448e+07
9.10404e+07
9.18263e+07
8.58343e+07
8.59764e+07
8.17439e+07
8.12498e+07
7.85904e+07
7.75107e+07
7.62148e+07
7.46374e+07
7.448e+07
7.25272e+07
7.3272e+07
7.11011e+07
7.25049e+07
7.03171e+07
7.21364e+07
7.01927e+07
7.21842e+07
7.08074e+07
7.26545e+07
7.21383e+07
7.31622e+07
7.35737e+07
7.25498e+07
7.18627e+07
1.85547e+08
1.84648e+08
1.65993e+08
1.66394e+08
1.47655e+08
1.48752e+08
1.3181e+08
1.33487e+08
1.18676e+08
1.20522e+08
1.07741e+08
1.09424e+08
9.85676e+07
9.98921e+07
9.08893e+07
9.17451e+07
8.45155e+07
8.48477e+07
7.92819e+07
7.90776e+07
7.5039e+07
7.43232e+07
7.16533e+07
7.04866e+07
6.90078e+07
6.74852e+07
6.70027e+07
6.52563e+07
6.55614e+07
6.37692e+07
6.465e+07
6.30527e+07
6.4297e+07
6.31951e+07
6.45093e+07
6.41587e+07
6.4838e+07
6.52429e+07
6.39622e+07
6.26567e+07
1.91593e+08
1.9018e+08
1.71153e+08
1.71007e+08
1.5188e+08
1.52524e+08
1.35225e+08
1.36572e+08
1.21341e+08
1.22973e+08
1.09598e+08
1.11193e+08
9.95395e+07
1.00908e+08
9.0918e+07
9.19499e+07
8.35706e+07
8.42004e+07
7.73563e+07
7.75548e+07
7.21482e+07
7.19216e+07
6.78359e+07
6.72245e+07
6.43259e+07
6.34027e+07
6.15407e+07
6.04121e+07
5.94241e+07
5.82365e+07
5.79606e+07
5.69149e+07
5.71946e+07
5.65386e+07
5.71279e+07
5.70439e+07
5.72331e+07
5.76503e+07
5.60354e+07
5.41098e+07
1.96419e+08
1.94643e+08
1.75021e+08
1.74448e+08
1.55031e+08
1.55414e+08
1.37919e+08
1.39184e+08
1.23565e+08
1.25236e+08
1.11229e+08
1.12965e+08
1.00485e+08
1.02095e+08
9.11278e+07
9.24957e+07
8.30115e+07
8.40657e+07
7.60069e+07
7.67117e+07
7.00003e+07
7.03539e+07
6.4898e+07
6.49306e+07
6.06255e+07
6.03985e+07
5.71267e+07
5.67332e+07
5.43692e+07
5.39383e+07
5.23639e+07
5.20647e+07
5.11789e+07
5.11914e+07
5.0807e+07
5.11877e+07
5.06269e+07
5.11678e+07
4.90325e+07
4.66348e+07
2.00004e+08
1.97249e+08
1.77541e+08
1.77016e+08
1.57219e+08
1.5801e+08
1.39911e+08
1.41624e+08
1.25207e+08
1.27254e+08
1.12409e+08
1.14459e+08
1.01164e+08
1.03067e+08
9.12842e+07
9.29702e+07
8.26227e+07
8.40584e+07
7.50516e+07
7.62234e+07
6.84643e+07
6.93757e+07
6.27774e+07
6.34503e+07
5.79298e+07
5.84058e+07
5.3881e+07
5.42227e+07
5.06149e+07
5.09107e+07
4.81566e+07
4.8529e+07
4.65756e+07
4.71608e+07
4.58262e+07
4.66488e+07
4.51964e+07
4.60723e+07
4.30959e+07
4.1252e+07
2.01634e+08
1.97885e+08
1.78783e+08
1.78275e+08
1.58126e+08
1.58969e+08
1.40567e+08
1.41896e+08
1.25556e+08
1.26953e+08
1.12459e+08
1.13833e+08
1.00933e+08
1.02283e+08
9.07759e+07
9.2096e+07
8.1835e+07
8.31025e+07
7.3982e+07
7.51707e+07
6.71136e+07
6.82035e+07
6.11495e+07
6.21368e+07
5.6031e+07
5.69368e+07
5.172e+07
5.25976e+07
4.8207e+07
4.91364e+07
4.55306e+07
4.65863e+07
4.37644e+07
4.49189e+07
4.2786e+07
4.373e+07
4.16409e+07
4.18211e+07
3.85035e+07
3.66678e+07
2.51348e+07
2.88377e+07
2.96185e+07
3.29758e+07
3.64615e+07
3.99427e+07
4.51357e+07
4.8714e+07
5.48933e+07
5.84799e+07
6.51242e+07
6.87136e+07
7.55384e+07
7.91299e+07
8.6e+07
8.95632e+07
9.64276e+07
9.99114e+07
1.06761e+08
1.10108e+08
1.16951e+08
1.20106e+08
1.26956e+08
1.29869e+08
1.3674e+08
1.39368e+08
1.46262e+08
1.48575e+08
1.55481e+08
1.57465e+08
1.64346e+08
1.6603e+08
1.72787e+08
1.74265e+08
1.80678e+08
1.819e+08
1.87723e+08
1.88314e+08
1.9304e+08
1.99201e+08
2.27923e+07
2.74655e+07
2.62285e+07
3.27631e+07
3.35161e+07
4.03723e+07
4.24656e+07
4.92595e+07
5.22996e+07
5.8866e+07
6.25491e+07
6.88285e+07
7.29327e+07
7.89149e+07
8.33e+07
8.89818e+07
9.35699e+07
9.89388e+07
1.03692e+08
1.08727e+08
1.13631e+08
1.18304e+08
1.23356e+08
1.27639e+08
1.32839e+08
1.36706e+08
1.42049e+08
1.45478e+08
1.5095e+08
1.53916e+08
1.59501e+08
1.61954e+08
1.67667e+08
1.69505e+08
1.75433e+08
1.76629e+08
1.82862e+08
1.84076e+08
1.90072e+08
1.92122e+08
2.46711e+07
2.9145e+07
2.80096e+07
3.45657e+07
3.49608e+07
4.20586e+07
4.34441e+07
5.05976e+07
5.26395e+07
5.97195e+07
6.22217e+07
6.91647e+07
7.19865e+07
7.87452e+07
8.17839e+07
8.83242e+07
9.15131e+07
9.78085e+07
1.01111e+08
1.07136e+08
1.10536e+08
1.16263e+08
1.19759e+08
1.25155e+08
1.28757e+08
1.33782e+08
1.37501e+08
1.421e+08
1.45955e+08
1.50055e+08
1.54064e+08
1.5762e+08
1.61764e+08
1.64932e+08
1.69058e+08
1.72424e+08
1.76266e+08
1.80005e+08
1.83648e+08
1.86482e+08
2.69587e+07
3.11926e+07
3.01046e+07
3.63034e+07
3.65474e+07
4.33723e+07
4.44528e+07
5.14501e+07
5.30647e+07
6.00893e+07
6.20582e+07
6.90492e+07
7.12557e+07
7.81618e+07
8.05253e+07
8.7299e+07
8.97657e+07
9.63658e+07
9.89044e+07
1.05295e+08
1.07892e+08
1.14037e+08
1.16691e+08
1.22552e+08
1.25269e+08
1.30802e+08
1.33588e+08
1.3875e+08
1.416e+08
1.46391e+08
1.49268e+08
1.53808e+08
1.5665e+08
1.61196e+08
1.64006e+08
1.68644e+08
1.71578e+08
1.75727e+08
1.78981e+08
1.81577e+08
2.87864e+07
3.28649e+07
3.16522e+07
3.75891e+07
3.76669e+07
4.41965e+07
4.50627e+07
5.18209e+07
5.3189e+07
6.00261e+07
6.17216e+07
6.85651e+07
7.04737e+07
7.72711e+07
7.93172e+07
8.60205e+07
8.81555e+07
9.47202e+07
9.69147e+07
1.033e+08
1.05539e+08
1.11706e+08
1.13983e+08
1.19897e+08
1.22207e+08
1.27842e+08
1.30178e+08
1.35538e+08
1.37877e+08
1.43022e+08
1.45349e+08
1.50377e+08
1.52739e+08
1.57658e+08
1.60185e+08
1.64753e+08
1.67539e+08
1.71351e+08
1.74263e+08
1.7683e+08
3.04303e+07
3.43677e+07
3.29576e+07
3.86997e+07
3.85908e+07
4.48586e+07
4.55587e+07
5.20468e+07
5.32632e+07
5.98398e+07
6.13952e+07
6.79862e+07
6.97629e+07
7.6315e+07
7.82343e+07
8.47023e+07
8.67128e+07
9.30562e+07
9.51254e+07
1.01307e+08
1.03414e+08
1.09402e+08
1.11534e+08
1.17305e+08
1.1945e+08
1.25001e+08
1.27148e+08
1.325e+08
1.34653e+08
1.39831e+08
1.42029e+08
1.47021e+08
1.49341e+08
1.54047e+08
1.56553e+08
1.608e+08
1.63443e+08
1.67061e+08
1.69677e+08
1.72367e+08
3.2223e+07
3.59649e+07
3.43906e+07
3.98919e+07
3.96174e+07
4.55977e+07
4.61744e+07
5.2349e+07
5.34776e+07
5.97294e+07
6.12225e+07
6.7485e+07
6.92178e+07
7.54415e+07
7.73289e+07
8.34734e+07
8.54578e+07
9.14888e+07
9.35319e+07
9.94199e+07
1.01496e+08
1.07219e+08
1.0931e+08
1.14855e+08
1.16953e+08
1.22316e+08
1.24423e+08
1.29605e+08
1.31742e+08
1.36731e+08
1.38934e+08
1.43691e+08
1.45993e+08
1.50451e+08
1.52853e+08
1.56924e+08
1.59369e+08
1.62926e+08
1.65293e+08
1.68104e+08
3.42659e+07
3.77635e+07
3.60895e+07
4.12758e+07
4.087e+07
4.65144e+07
4.69898e+07
5.28161e+07
5.38803e+07
5.97738e+07
6.12315e+07
6.71314e+07
6.88495e+07
7.47121e+07
7.65983e+07
8.23887e+07
8.43792e+07
9.00691e+07
9.21203e+07
9.76872e+07
9.97701e+07
1.05197e+08
1.07295e+08
1.1257e+08
1.14676e+08
1.19789e+08
1.21911e+08
1.26848e+08
1.29e+08
1.3374e+08
1.35938e+08
1.40455e+08
1.42708e+08
1.4696e+08
1.49263e+08
1.53179e+08
1.55492e+08
1.58949e+08
1.61176e+08
1.63982e+08
3.65295e+07
3.97679e+07
3.8046e+07
4.28726e+07
4.23627e+07
4.76383e+07
4.80159e+07
5.34777e+07
5.44707e+07
6.00008e+07
6.14143e+07
6.69517e+07
6.86475e+07
7.41518e+07
7.60315e+07
8.14721e+07
8.34667e+07
8.88199e+07
9.08817e+07
9.61284e+07
9.82264e+07
1.03351e+08
1.05467e+08
1.10458e+08
1.12585e+08
1.17427e+08
1.19565e+08
1.24245e+08
1.264e+08
1.309e+08
1.33077e+08
1.37372e+08
1.39576e+08
1.43629e+08
1.45854e+08
1.49614e+08
1.51816e+08
1.55217e+08
1.57279e+08
1.60187e+08
3.89569e+07
4.19463e+07
4.02088e+07
4.46677e+07
4.40711e+07
4.89694e+07
4.92457e+07
5.43425e+07
5.52471e+07
6.04226e+07
6.17695e+07
6.69596e+07
6.86104e+07
7.37745e+07
7.56278e+07
8.07369e+07
8.27198e+07
8.77522e+07
8.98137e+07
9.4752e+07
9.68579e+07
1.01688e+08
1.03817e+08
1.08525e+08
1.10665e+08
1.1524e+08
1.17385e+08
1.21814e+08
1.23964e+08
1.28232e+08
1.30387e+08
1.34471e+08
1.36631e+08
1.40501e+08
1.42656e+08
1.4627e+08
1.4838e+08
1.51692e+08
1.53663e+08
1.56615e+08
4.14986e+07
4.42604e+07
4.25271e+07
4.6634e+07
4.5963e+07
5.04939e+07
5.06665e+07
5.54078e+07
5.62092e+07
6.10437e+07
6.23022e+07
6.71628e+07
6.8745e+07
7.35888e+07
7.53935e+07
8.01909e+07
8.21428e+07
8.68722e+07
8.89175e+07
9.35622e+07
9.56629e+07
1.00209e+08
1.0234e+08
1.06776e+08
1.0892e+08
1.13235e+08
1.15383e+08
1.19565e+08
1.2171e+08
1.25746e+08
1.27885e+08
1.31756e+08
1.33885e+08
1.37562e+08
1.39675e+08
1.4312e+08
1.4519e+08
1.48361e+08
1.50307e+08
1.53179e+08
4.41166e+07
4.66753e+07
4.4959e+07
4.87405e+07
4.80061e+07
5.21902e+07
5.22603e+07
5.66622e+07
5.7352e+07
6.18604e+07
6.30153e+07
6.75623e+07
6.90575e+07
7.3598e+07
7.53348e+07
7.98375e+07
8.17404e+07
8.61828e+07
8.81956e+07
9.25608e+07
9.46424e+07
9.89171e+07
1.01039e+08
1.05211e+08
1.07353e+08
1.11413e+08
1.1356e+08
1.17497e+08
1.19642e+08
1.23441e+08
1.25578e+08
1.29219e+08
1.31343e+08
1.34804e+08
1.36907e+08
1.40164e+08
1.42216e+08
1.45253e+08
1.47169e+08
1.4999e+08
4.67815e+07
4.91606e+07
4.74704e+07
5.0957e+07
5.01695e+07
5.40325e+07
5.40053e+07
5.80872e+07
5.86632e+07
6.28616e+07
6.39045e+07
6.81527e+07
6.9548e+07
7.37997e+07
7.54536e+07
7.96759e+07
8.15141e+07
8.56832e+07
8.76485e+07
9.17467e+07
9.37959e+07
9.78096e+07
9.99108e+07
1.03829e+08
1.05959e+08
1.09771e+08
1.11913e+08
1.15607e+08
1.1775e+08
1.21314e+08
1.23448e+08
1.26866e+08
1.28982e+08
1.32239e+08
1.34327e+08
1.37414e+08
1.39445e+08
1.42351e+08
1.44261e+08
1.46981e+08
4.94706e+07
5.16913e+07
5.00333e+07
5.32551e+07
5.24245e+07
5.59938e+07
5.58766e+07
5.96604e+07
6.01247e+07
6.40305e+07
6.4958e+07
6.89222e+07
7.02096e+07
7.4186e+07
7.57458e+07
7.97007e+07
8.14611e+07
8.53694e+07
8.72735e+07
9.11167e+07
9.31199e+07
9.6884e+07
9.89523e+07
1.02626e+08
1.04733e+08
1.08306e+08
1.10433e+08
1.13895e+08
1.16026e+08
1.19367e+08
1.2149e+08
1.24699e+08
1.26801e+08
1.2987e+08
1.31942e+08
1.34863e+08
1.36881e+08
1.39655e+08
1.41548e+08
1.44188e+08
5.21658e+07
5.4246e+07
5.26244e+07
5.56096e+07
5.47448e+07
5.80476e+07
5.78489e+07
6.13573e+07
6.17147e+07
6.53466e+07
6.61585e+07
6.98545e+07
7.10294e+07
7.47445e+07
7.6202e+07
7.99022e+07
8.15743e+07
8.5234e+07
8.70647e+07
9.06647e+07
9.26092e+07
9.61351e+07
9.81577e+07
1.01598e+08
1.03671e+08
1.07016e+08
1.09116e+08
1.12358e+08
1.14468e+08
1.17597e+08
1.19703e+08
1.22712e+08
1.24801e+08
1.27683e+08
1.29747e+08
1.32491e+08
1.34513e+08
1.37104e+08
1.39036e+08
1.41492e+08
5.48518e+07
5.68065e+07
5.52239e+07
5.79978e+07
5.71067e+07
6.01686e+07
5.9897e+07
6.31529e+07
6.34095e+07
6.6787e+07
6.74856e+07
7.093e+07
7.19905e+07
7.54589e+07
7.68086e+07
8.02674e+07
8.18427e+07
8.52663e+07
8.70133e+07
9.03821e+07
9.22565e+07
9.55558e+07
9.75211e+07
1.00739e+08
1.02766e+08
1.05894e+08
1.07959e+08
1.10989e+08
1.13073e+08
1.15997e+08
1.18083e+08
1.20893e+08
1.2297e+08
1.25658e+08
1.27715e+08
1.30274e+08
1.32293e+08
1.34718e+08
1.36644e+08
1.38985e+08
5.75148e+07
5.93563e+07
5.78145e+07
6.0399e+07
5.94883e+07
6.23332e+07
6.19969e+07
6.50225e+07
6.51852e+07
6.83279e+07
6.89171e+07
7.2127e+07
7.30734e+07
7.63102e+07
7.75488e+07
8.07801e+07
8.22524e+07
8.54527e+07
8.71077e+07
9.02575e+07
9.20521e+07
9.51362e+07
9.70343e+07
1.00041e+08
1.02013e+08
1.04934e+08
1.06954e+08
1.09781e+08
1.1183e+08
1.14555e+08
1.16616e+08
1.19232e+08
1.21292e+08
1.23792e+08
1.25839e+08
1.2822e+08
1.30234e+08
1.32496e+08
1.34433e+08
1.36622e+08
6.01422e+07
6.18805e+07
6.03801e+07
6.27947e+07
6.18701e+07
6.45193e+07
6.41261e+07
6.69423e+07
6.70183e+07
6.99454e+07
7.04301e+07
7.34227e+07
7.42569e+07
7.72776e+07
7.84039e+07
8.14217e+07
8.2787e+07
8.5777e+07
8.73338e+07
9.02766e+07
9.19836e+07
9.48641e+07
9.66861e+07
9.94926e+07
1.014e+08
1.04123e+08
1.06091e+08
1.08722e+08
1.10729e+08
1.13263e+08
1.1529e+08
1.17721e+08
1.19753e+08
1.22078e+08
1.24102e+08
1.26321e+08
1.28318e+08
1.30436e+08
1.32361e+08
1.34428e+08
6.27216e+07
6.43653e+07
6.29061e+07
6.51675e+07
6.42337e+07
6.67063e+07
6.62634e+07
6.88894e+07
6.88859e+07
7.16157e+07
7.20015e+07
7.47939e+07
7.5519e+07
7.83391e+07
7.93534e+07
8.2172e+07
8.3428e+07
8.6221e+07
8.76749e+07
9.04231e+07
9.20362e+07
9.47247e+07
9.6463e+07
9.90801e+07
1.00914e+08
1.03451e+08
1.05356e+08
1.07804e+08
1.09758e+08
1.12112e+08
1.14096e+08
1.16351e+08
1.1835e+08
1.20504e+08
1.22504e+08
1.24556e+08
1.26543e+08
1.28489e+08
1.30431e+08
1.32313e+08
6.5241e+07
6.6797e+07
6.53785e+07
6.75012e+07
6.6562e+07
6.88751e+07
6.83887e+07
7.08422e+07
7.07662e+07
7.3316e+07
7.36089e+07
7.62175e+07
7.68373e+07
7.94723e+07
8.03761e+07
8.30099e+07
8.41555e+07
8.67649e+07
8.81128e+07
9.06792e+07
9.21932e+07
9.47017e+07
9.63497e+07
9.87888e+07
1.00542e+08
1.02903e+08
1.04737e+08
1.07012e+08
1.08906e+08
1.1109e+08
1.13024e+08
1.15112e+08
1.17071e+08
1.19058e+08
1.2103e+08
1.22914e+08
1.24884e+08
1.2666e+08
1.28596e+08
1.3031e+08
6.76884e+07
6.91625e+07
6.77837e+07
6.97803e+07
6.88387e+07
7.10075e+07
7.04832e+07
7.27804e+07
7.26384e+07
7.50241e+07
7.52302e+07
7.76705e+07
7.81898e+07
8.06545e+07
8.14504e+07
8.39133e+07
8.4949e+07
8.73882e+07
8.86281e+07
9.10254e+07
9.24365e+07
9.47774e+07
9.63296e+07
9.86028e+07
1.00269e+08
1.02465e+08
1.04221e+08
1.06334e+08
1.08159e+08
1.10183e+08
1.12057e+08
1.13989e+08
1.15895e+08
1.17733e+08
1.19657e+08
1.21399e+08
1.23321e+08
1.24973e+08
1.26855e+08
1.28479e+08
7.00519e+07
7.1449e+07
7.01084e+07
7.199e+07
7.10484e+07
7.30861e+07
7.2529e+07
7.46842e+07
7.44823e+07
7.6719e+07
7.68442e+07
7.91309e+07
7.95545e+07
8.18632e+07
8.25545e+07
8.48604e+07
8.57875e+07
8.80695e+07
8.9201e+07
9.14417e+07
9.27475e+07
9.49329e+07
9.63852e+07
9.85043e+07
1.00077e+08
1.02122e+08
1.03792e+08
1.05755e+08
1.07502e+08
1.09379e+08
1.11183e+08
1.12971e+08
1.14816e+08
1.16513e+08
1.18384e+08
1.19991e+08
1.21874e+08
1.23385e+08
1.25261e+08
1.26705e+08
7.23191e+07
7.36433e+07
7.23394e+07
7.41155e+07
7.31758e+07
7.50942e+07
7.45086e+07
7.6535e+07
7.62788e+07
7.838e+07
7.84303e+07
8.05772e+07
8.09103e+07
8.30765e+07
8.3667e+07
8.58291e+07
8.66498e+07
8.87876e+07
8.98109e+07
9.19075e+07
9.31069e+07
9.51485e+07
9.64984e+07
9.84743e+07
9.9951e+07
1.01853e+08
1.03435e+08
1.05257e+08
1.06923e+08
1.08661e+08
1.10393e+08
1.12042e+08
1.13825e+08
1.15382e+08
1.172e+08
1.18665e+08
1.20503e+08
1.21876e+08
1.23705e+08
1.25035e+08
7.44777e+07
7.57322e+07
7.44634e+07
7.61424e+07
7.52059e+07
7.70156e+07
7.64052e+07
7.83145e+07
7.80093e+07
7.99875e+07
7.99684e+07
8.19882e+07
8.22362e+07
8.42726e+07
8.47666e+07
8.67975e+07
8.75147e+07
8.95205e+07
9.04373e+07
9.24016e+07
9.34945e+07
9.54038e+07
9.66501e+07