/*--------------------------------*- C++ -*----------------------------------*\
| =========                 |                                                 |
| \\      /  F ield         | OpenFOAM: The Open Source CFD Toolbox           |
|  \\    /   O peration     | Version:  v2012                                 |
|   \\  /    A nd           | Website:  www.openfoam.com                      |
|    \\/     M anipulation  |                                                 |
\*---------------------------------------------------------------------------*/
FoamFile
{
    version     2.0;
    format      ascii;
    class       volScalarField;
    location    "4";
    object      epsilonEq;
}
// * * * * * * * * * * * * * * * * * * * * * * * * * * * * * * * * * * * * * //

dimensions      [0 0 0 0 0 0 0];


internalField   nonuniform List<scalar> 
470
(
0.000340803
0.000284144
0.000680435
0.00044024
0.000610693
0.000621787
0.000558542
0.000599626
0.000923017
0.000656062
0.000897574
0.00103571
0.00102344
0.000436351
0.00104539
0.000800079
0.000662441
0.00042855
0.000370917
0.00032055
0.000823412
0.000523974
0.00067232
0.00046208
0.00097966
0.000537303
0.000985303
0.000747759
0.000610678
0.000455246
0.000299509
0.0010359
0.000687341
0.00122996
0.000621664
0.000602324
0.00105692
0.000374024
0.000347214
0.000332511
0.000861984
0.000359543
0.000992769
0.000851374
0.000749753
0.001006
0.000484208
0.000912367
0.000941896
0.000941658
0.00099664
0.00102813
0.000420924
0.000393315
0.00050193
0.000513387
0.000532665
0.000622941
0.00073487
0.000715839
0.000557701
0.00105058
0.00098295
0.00109559
0.000748043
0.00113789
0.000414568
0.000539126
0.000595151
0.00077509
0.000211611
0.000638775
0.00108913
0.000664923
0.0011313
0.00049586
0.000623109
0.000600511
0.000728541
0.000919442
0.000784784
0.00111926
0.000684216
0.000667535
0.00097578
0.00051285
0.00109735
0.000698203
0.0010621
0.00119747
0.001063
0.00100376
0.00061786
0.000615645
0.00102837
0.00104719
0.00051939
0.000576088
0.000687085
0.000639652
0.000501705
0.000915392
0.00118997
0.000476818
0.000464814
0.000583337
0.000568967
0.000567034
0.000644847
0.00142284
0.000968142
0.00110846
0.000484867
0.000606436
0.000643468
0.000719997
0.000450793
0.000951463
0.000572394
0.000289735
0.000614643
0.000479695
0.000430573
0.000457248
0.0005681
0.000741813
0.000781385
0.000524155
0.000984153
0.000478279
0.000467681
0.000548586
0.000600086
0.000513881
0.000528112
0.000659546
0.000662497
0.00075741
0.00100611
0.000594793
0.000596032
0.00105915
0.000531804
0.000577458
0.000566397
0.000386165
0.000444553
0.00102987
0.000526178
0.00106311
0.000383603
0.000452071
0.000784132
0.000493062
0.00150743
0.000805362
0.00043931
0.000524412
0.000518462
0.000642577
0.00117067
0.000984415
0.000733209
0.00103009
0.000879863
0.000848759
0.000799945
0.00102776
0.000685145
0.000879718
0.000825101
0.000576575
0.000583541
0.000605088
0.000590223
0.000552172
0.000394203
0.000178342
0.00107952
0.000789127
0.000745282
0.00100393
0.000643197
0.00074678
0.000765049
0.000937657
0.000608091
0.000208646
0.00076552
0.000460457
0.000590417
0.00048419
0.000714235
0.000695998
0.000375019
0.000426017
0.00069623
0.000641782
0.000650351
0.00192239
0.000247932
0.000224893
0.00191168
0.000861375
0.000750565
0.000783713
0.00034312
0.000392188
0.000783528
0.000614263
0.000514607
0.000689249
0.000646042
0.000451849
0.000917644
0.000909603
0.000536397
0.00048414
0.000481982
0.00092454
0.000357117
0.000456602
0.000626006
0.000468862
0.000959185
0.000642134
0.000882967
0.000418687
0.000891392
0.00101206
0.000887431
0.000409741
0.000430035
0.000589204
0.00074039
0.000605063
0.000324594
0.000559327
0.000565724
0.00045588
0.000476022
0.000459921
0.000576323
0.00104297
0.00110728
0.000947108
0.000743744
0.000546081
0.000349166
0.000614733
0.000608308
0.000720361
0.000438306
0.000580474
0.000811766
0.000349216
0.000415701
0.000443384
0.000577479
0.000234694
0.000692384
0.00116182
0.000189081
0.000423202
0.000423563
0.00045254
0.000584334
0.000411321
0.000421386
0.00078164
0.000671974
0.000547069
0.00103092
0.000809126
0.000802612
0.000983883
0.00109323
0.000714172
0.000946911
0.000550541
0.000639301
0.00083941
0.000543188
0.00079204
0.000460942
0.000454297
0.000779373
0.000879849
0.00050709
0.000428237
0.000872825
0.000686843
0.000396197
0.000957705
0.000851055
0.000512176
0.000494118
0.000632509
0.000884306
0.000430661
0.000550874
0.000370133
0.000542103
0.000537389
0.00101828
0.00071281
0.000579294
0.000560568
0.000604976
0.000551383
0.00105737
0.00110468
0.00169117
0.000554795
0.000628202
0.00103048
0.000831977
0.000318922
0.000982904
0.000470723
0.000872758
0.000465226
0.000520116
0.000484841
0.000876389
0.000404784
0.00068987
0.000672368
0.000650931
0.000504462
0.000520153
0.000483579
0.000784441
0.000780383
0.000568637
0.000668624
0.000303549
0.000490886
0.000933357
0.000597378
0.00042717
0.00128431
0.00092375
0.000254045
0.000554902
0.000842038
0.000902215
0.000533322
0.000428867
0.000587479
0.000315335
0.000617937
0.000820723
0.00081293
0.00082887
0.000343596
0.000768706
0.000626259
0.000438759
0.000214338
0.000438016
0.000473629
0.000547875
0.000695651
0.00125356
0.000590697
0.000439545
0.000905011
0.000336503
0.00059313
0.000451674
0.000645587
0.000750589
0.000467723
0.000536058
0.000209406
0.000348909
0.000572352
0.00129174
0.000542117
0.000733218
0.00124883
0.000644592
0.000488872
0.000520593
0.0018748
0.000898743
0.000866717
0.000843279
0.000469087
0.00108737
0.000428412
0.000653663
0.00108695
0.000581256
0.000454788
0.000440651
0.000594998
0.000974203
0.000739392
0.000996063
0.00126539
0.000651642
0.00045948
0.0011137
0.000742766
0.00113324
0.0006355
0.000426803
0.000429387
0.00058966
0.000585995
0.000386041
0.000711499
0.000548302
0.0010811
0.000491566
0.000476166
0.000886027
0.000319252
0.000706448
0.000257462
0.000703739
0.000492578
0.000662995
0.00144581
0.000973301
0.000905492
0.000984764
0.000653244
0.000998794
0.00101113
0.000830448
0.000826287
0.000460806
0.000337251
0.000446586
0.000599777
0.000561959
0.000857338
0.0010335
0.000975743
0.000457879
0.00106856
0.000863352
0.00103799
0.000930201
0.000612413
0.000240182
0.000561956
0.00070685
0.000887723
0.000888551
0.000556266
0.000538902
0.000544915
0.000861896
0.000914864
0.000519824
0.000497888
0.000664768
0.000640385
0.000403831
0.000868207
0.000882058
0.000825064
0.000506305
0.00048145
0.000789234
0.000876092
)
;

boundaryField
{
    back
    {
        type            empty;
    }
    front
    {
        type            empty;
    }
    down
    {
        type            symmetry;
    }
    right
    {
        type            calculated;
        value           nonuniform List<scalar> 10(0.00049569 0.00045185 0.000567566 0.000524472 0.000442635 0.000577229 0.000473353 0.000547015 0.000431192 0.000586071);
    }
    up
    {
        type            calculated;
        value           nonuniform List<scalar> 
20
(
0.00104309
0.000755783
0.00100088
0.000609369
0.000608633
0.000983437
0.00072254
0.00103447
0.000673108
0.00101649
0.00063671
0.000877071
0.000938227
0.00092459
0.000808828
0.000813091
0.000641463
0.000597366
0.000590154
0.000716378
)
;
    }
    left
    {
        type            symmetry;
    }
    hole
    {
        type            calculated;
        value           nonuniform List<scalar> 8(0.000698475 0.000462025 0.00193691 0.000614919 0.000407734 0.00169895 0.00122319 0.000211535);
    }
}


// ************************************************************************* //
