/*--------------------------------*- C++ -*----------------------------------*\
| =========                 |                                                 |
| \\      /  F ield         | OpenFOAM: The Open Source CFD Toolbox           |
|  \\    /   O peration     | Version:  v2012                                 |
|   \\  /    A nd           | Website:  www.openfoam.com                      |
|    \\/     M anipulation  |                                                 |
\*---------------------------------------------------------------------------*/
FoamFile
{
    version     2.0;
    format      ascii;
    class       volSymmTensorField;
    location    "4";
    object      epsilon;
}
// * * * * * * * * * * * * * * * * * * * * * * * * * * * * * * * * * * * * * //

dimensions      [0 0 0 0 0 0 0];


internalField   nonuniform List<symmTensor> 
470
(
(0.000404862 -0.00014228 -6.55734e-20 -7.62517e-05 -2.2517e-21 0)
(0.000337538 -8.28391e-05 -1.24722e-20 -0.00010623 1.18811e-20 0)
(0.000801737 -0.00010754 -1.62167e-20 -0.000323665 6.65702e-21 0)
(0.000578652 -2.71081e-05 -5.2139e-20 -0.000138157 -6.85542e-21 0)
(0.00051929 -0.000334693 6.74317e-20 -0.00028883 2.46012e-20 0)
(0.000746806 -3.32815e-05 -1.3797e-19 -0.000296135 -1.62101e-20 0)
(0.00062631 -0.000220423 3.78078e-20 -0.000198679 9.27418e-22 0)
(0.000547482 -0.00029822 -4.81256e-20 -0.000289626 -2.11786e-20 0)
(0.00107949 -9.90384e-05 6.45948e-22 -0.000466985 -7.52577e-21 0)
(0.000732028 -0.000185659 -9.28721e-20 -0.000314524 -2.15643e-20 0)
(0.000987212 -0.000161663 6.56539e-20 -0.000508064 3.04811e-20 0)
(0.00117938 0.000128305 -8.94759e-20 -0.000559643 -6.51999e-20 0)
(0.0011646 8.95703e-05 -8.15073e-20 -0.000564617 -6.13058e-20 0)
(0.000557545 -6.58449e-05 2.9184e-20 -0.000148142 1.76471e-20 0)
(0.00123721 1.21189e-05 6.22599e-20 -0.000526145 4.17158e-20 0)
(0.000930428 -0.000147295 3.65137e-20 -0.000386798 -2.88277e-20 0)
(0.00076179 -0.000199694 2.01972e-20 -0.000276743 3.24749e-20 0)
(0.000558937 -7.11439e-05 1.39606e-21 -0.00012517 -1.33256e-20 0)
(0.000485965 -4.04769e-05 -4.79985e-20 -0.000114112 6.36407e-22 0)
(0.000334277 -0.000149449 -5.09345e-20 -0.00011638 -4.77933e-22 0)
(0.000948657 -0.000131153 4.78284e-20 -0.000419512 4.37762e-20 0)
(0.000651815 -6.77144e-05 2.33854e-21 -0.000208257 8.54225e-21 0)
(0.000781299 -8.87675e-05 -3.44059e-20 -0.000341179 -1.5035e-20 0)
(0.000606859 -7.04702e-05 4.36163e-20 -0.000131666 1.18773e-20 0)
(0.00107564 -5.74033e-05 -7.74792e-20 -0.000594324 -4.86176e-20 0)
(0.000567568 -0.000232094 4.57953e-20 -0.000212562 -6.88894e-21 0)
(0.00103963 -0.000161135 -1.97449e-20 -0.000618528 -1.23759e-20 0)
(0.00088299 -5.77958e-05 1.06215e-19 -0.000372936 4.1406e-20 0)
(0.000727885 -5.59368e-05 5.6143e-20 -0.000293581 -1.38198e-20 0)
(0.000597238 -2.60445e-05 -1.89275e-20 -0.000144953 -5.47883e-21 0)
(0.000371217 -9.09651e-05 9.78092e-21 -8.57992e-05 -9.16356e-21 0)
(0.00123882 -1.80904e-05 0 -0.000504187 0 0)
(0.000783266 -0.000184887 -5.67184e-20 -0.00031569 -2.40929e-20 0)
(0.00143378 -0.000152783 -6.36687e-20 -0.00062176 -5.50928e-20 0)
(0.000717179 -2.86302e-05 -9.42753e-20 -0.000335191 -6.41519e-21 0)
(0.000716925 -4.31513e-05 -1.27159e-21 -0.000293622 2.12653e-20 0)
(0.00122159 5.27058e-05 6.76584e-21 -0.000566446 4.60655e-21 0)
(0.000447317 -0.000132902 -2.35894e-20 -0.000110561 -9.67648e-21 0)
(0.000368654 -0.000135276 -7.20539e-20 -0.000153943 -1.38788e-20 0)
(0.000290321 -0.000185342 3.07817e-20 -0.000142064 8.46779e-21 0)
(0.000861958 -0.000260458 -1.26794e-20 -0.000523508 -6.38906e-21 0)
(0.000481264 -1.02584e-05 -3.52942e-20 -0.000101177 1.85432e-20 0)
(0.00110744 0.000210711 1.05182e-19 -0.000525423 1.02397e-19 0)
(0.000876288 -0.000269466 6.69469e-20 -0.00047681 3.24311e-20 0)
(0.000884349 -8.81768e-06 0 -0.000381236 0 0)
(0.0011602 0.000217121 1.962e-19 -0.000481085 1.83685e-19 0)
(0.000498123 -0.00024122 -7.79135e-20 -0.000159439 -1.83354e-20 0)
(0.00103146 -0.000144846 4.2425e-20 -0.000490284 2.31903e-20 0)
(0.00103894 -0.000206266 -8.72493e-20 -0.00050958 -4.51151e-20 0)
(0.00100151 -0.000147337 8.91754e-20 -0.000584475 5.74212e-20 0)
(0.00119453 7.1825e-06 2.34431e-19 -0.000481891 6.2399e-20 1.51054e-35)
(0.00117112 -0.000244912 0 -0.000495996 0 0)
(0.000523951 -8.86923e-05 2.66244e-20 -0.000149309 -4.37646e-22 0)
(0.000525868 -5.32495e-05 -7.50834e-20 -0.000100601 -2.04056e-20 0)
(0.000627514 -7.03283e-05 0 -0.000192882 0 0)
(0.000647158 -8.48478e-05 3.2846e-20 -0.000183685 1.99611e-21 0)
(0.000604372 -1.11187e-05 -7.6858e-22 -0.000301201 -2.56688e-20 0)
(0.000740217 3.68412e-05 7.17503e-20 -0.000306732 1.42333e-20 -1.6033e-36)
(0.000791757 -0.000255571 9.01557e-21 -0.000345044 4.37169e-21 0)
(0.000818264 -7.97595e-05 3.8551e-21 -0.000385667 6.66331e-22 0)
(0.000628327 -0.000204596 7.42877e-20 -0.000213231 1.35857e-20 0)
(0.00116599 -1.39186e-05 1.02431e-19 -0.000626609 7.56626e-20 0)
(0.00112541 -1.78737e-05 1.749e-19 -0.000543216 1.20379e-19 0)
(0.0011623 0.000160972 -9.65441e-20 -0.00068763 -9.14888e-20 0)
(0.000770895 -0.000320869 1.4197e-21 -0.000324798 1.74199e-19 0)
(0.00135505 0.000132433 -1.64726e-19 -0.000540485 -9.05567e-20 0)
(0.000431698 -0.000199132 2.9131e-20 -0.000141876 2.44225e-20 0)
(0.00066489 -8.44349e-05 -6.78307e-21 -0.000216219 7.54789e-21 0)
(0.000489112 -0.000277086 3.12395e-20 -0.000377703 3.78496e-20 0)
(0.000847679 -0.000220283 -6.56345e-20 -0.000393001 -2.70278e-20 0)
(0.000256802 -2.48786e-05 -2.84632e-20 -9.39405e-05 3.11657e-21 0)
(0.000701159 -0.000218033 -4.22916e-20 -0.000287183 -9.7134e-21 0)
(0.00119379 0.000111762 1.82192e-19 -0.000653158 1.66074e-19 0)
(0.00068505 -0.000283629 0 -0.000291092 0 0)
(0.00130408 0.000190752 2.61344e-20 -0.000570656 3.9903e-20 0)
(0.000644495 -9.67831e-06 1.25336e-20 -0.000169088 5.41162e-21 -8.92159e-36)
(0.000712111 -0.000178683 7.70373e-21 -0.00027441 -2.32105e-20 0)
(0.000682189 -0.000187645 -4.29553e-21 -0.000256159 -1.29912e-20 0)
(0.000755703 -0.000287137 6.67547e-20 -0.000342273 2.34527e-20 0)
(0.00113797 -5.32176e-06 3.84641e-20 -0.000395782 -2.10942e-20 0)
(0.000812561 -0.000270475 -6.54556e-20 -0.000412915 -2.52703e-20 0)
(0.00130106 0.000105172 -5.49334e-20 -0.00058071 -5.15384e-20 0)
(0.000785273 -0.000127391 -6.46022e-20 -0.000343683 3.91755e-20 0)
(0.000483851 -0.000339035 -9.90304e-20 -0.000452473 -5.02752e-20 0)
(0.00112438 -8.19044e-05 2.89531e-20 -0.00052134 1.72311e-20 0)
(0.000652712 -4.59078e-05 -1.99525e-21 -0.000189335 5.86919e-21 0)
(0.00124874 0.000222559 -2.13268e-19 -0.000555164 -1.85524e-19 0)
(0.000265471 -0.000586405 -1.10811e-19 2.1478e-05 8.6259e-20 2.48971e-36)
(0.00122249 0.00023871 2.67068e-20 -0.000505146 1.4567e-20 0)
(0.00137842 5.5244e-05 1.00713e-19 -0.000649503 4.28841e-20 0)
(0.00119976 0.00022735 -8.80117e-20 -0.000543704 -6.60167e-20 0)
(0.00120255 3.1261e-05 -2.64207e-19 -0.00048474 -1.79433e-19 0)
(0.000662724 -0.000249637 -3.10162e-20 -0.000253944 -8.70147e-22 0)
(0.000696056 -0.000204233 -1.18916e-19 -0.000255537 -1.4768e-20 0)
(0.00122023 5.15953e-05 1.3747e-19 -0.000510057 9.19471e-20 0)
(0.00123754 -1.97281e-05 -3.48318e-20 -0.000529081 -2.11142e-20 0)
(0.00052955 -0.000253034 -1.01208e-19 -0.000187527 -1.02974e-20 0)
(0.00064937 -0.000210165 3.91699e-20 -0.000221169 1.4629e-20 0)
(0.000669483 -0.000322822 -3.05679e-20 -0.000308217 -6.49693e-21 0)
(0.000748927 -7.68507e-05 1.02235e-19 -0.000319951 3.91428e-20 0)
(0.000626888 -0.000103752 2.60572e-20 -0.000175747 -1.23609e-20 0)
(0.00099503 -0.000143064 -7.16957e-20 -0.000542391 -4.50174e-20 0)
(0.00142415 1.69654e-05 0 -0.000577906 0 0)
(0.000630029 -5.49632e-05 3.86805e-20 -0.000137517 8.34948e-21 0)
(0.000600273 -5.62743e-05 -3.62746e-20 -0.000154143 -7.68563e-21 0)
(0.000712476 -4.76769e-05 -2.87974e-20 -0.000258659 3.53109e-21 0)
(0.000679696 -5.79915e-05 2.8002e-20 -0.000269906 -4.09718e-21 0)
(0.000527001 -0.000291922 5.79229e-20 -0.000245896 1.26815e-20 0)
(0.000204054 8.04487e-05 -2.40467e-21 -0.0008387 -2.89461e-20 0)
(0.00179709 -0.000128484 9.95766e-20 -0.000544835 6.14875e-20 0)
(0.00107296 0.000273565 2.27138e-20 -0.00047395 1.28147e-20 0)
(0.00132124 0.000120733 5.84011e-20 -0.000527466 3.92882e-20 0)
(0.000631802 -3.7951e-05 5.69171e-21 -0.00015872 3.51018e-21 0)
(0.000713203 -5.72169e-06 2.18571e-20 -0.00031114 -5.28564e-21 1.25502e-36)
(0.000433001 -0.000360385 2.6657e-20 -0.000417033 2.18943e-20 0)
(0.000763908 -0.000260556 -5.48358e-22 -0.000342653 -1.6713e-21 0)
(0.000602476 -8.07845e-06 3.01359e-20 -0.000128649 -1.94019e-20 0)
(0.00109997 -6.21426e-05 -4.1944e-20 -0.000507304 -3.26837e-20 0)
(0.000588182 -0.000270342 -2.8526e-20 -0.000214295 5.81988e-21 0)
(0.000387946 -1.21119e-05 -1.72482e-21 -8.09142e-05 4.48177e-21 0)
(0.00063455 -0.000271548 1.71086e-21 -0.000254401 -1.11931e-20 0)
(0.00060466 -8.45675e-05 2.09992e-20 -0.00016892 -4.50229e-21 0)
(0.00056673 -4.48e-05 4.9697e-20 -0.000129219 4.82731e-21 0)
(0.000623905 -6.10426e-06 -1.28838e-20 -0.000110379 -1.10609e-20 -7.20487e-36)
(0.000682314 -6.23023e-06 1.45548e-20 -0.000272747 1.39331e-20 -8.21278e-36)
(0.000826852 -0.000226498 -5.32374e-20 -0.000342535 -1.998e-20 0)
(0.000834698 -0.000251477 -1.25524e-20 -0.000395979 -1.50845e-20 0)
(0.000656333 -0.000101336 5.29592e-20 -0.000185911 2.52484e-20 0)
(0.00117072 -1.38443e-05 -1.44356e-19 -0.000487364 -4.66139e-20 2.65285e-35)
(0.000614659 -7.82399e-05 -5.60861e-20 -0.000154158 7.72737e-21 0)
(0.000390782 -0.000267154 4.63225e-20 -0.000208941 1.1958e-20 0)
(0.000537404 -0.000270563 8.83764e-21 -0.000222129 2.76964e-21 0)
(0.000624712 -0.000266402 -2.61074e-21 -0.000239572 -1.17007e-20 0)
(0.000628976 -0.000122022 -9.63443e-20 -0.000188295 -3.57831e-20 0)
(0.000658856 -9.50838e-06 -1.04549e-20 -0.000219836 -1.96051e-20 -2.48947e-36)
(0.000777649 -6.34174e-05 6.32691e-20 -0.000327509 1.83484e-21 0)
(0.000715938 -0.000253514 -3.55019e-20 -0.000282574 -9.98736e-22 0)
(0.000591989 -0.000309354 -1.77519e-19 -0.000564715 -5.46971e-20 0)
(0.00114663 0.000150642 6.6387e-20 -0.000532783 4.95402e-20 0)
(0.00071385 -2.49359e-05 6.27251e-20 -0.000284908 1.23447e-20 0)
(0.00069333 -2.56498e-05 -2.32475e-20 -0.000314258 -1.67351e-21 0)
(0.00113182 -3.31775e-05 0 -0.000683094 0 0)
(0.000642864 -0.000112116 -5.97017e-20 -0.000215848 -2.44788e-20 0)
(0.000677439 -0.000178904 2.75671e-20 -0.000218117 6.39231e-21 0)
(0.000654933 -0.000162605 1.02377e-20 -0.000238915 -1.06017e-20 0)
(0.000396473 -0.000186541 5.99401e-20 -0.000138279 4.40583e-21 0)
(0.000601491 -2.78816e-05 -5.09243e-20 -0.000112759 -7.52181e-22 0)
(0.00117515 4.66307e-05 3.83467e-20 -0.000571798 2.3442e-20 0)
(0.000633993 -0.000149984 6.97817e-20 -0.000186983 -1.44165e-20 0)
(0.00118105 0.000166407 5.21812e-20 -0.00059847 5.43751e-20 0)
(0.000477351 -7.74323e-05 -5.52148e-20 -0.000138427 9.23878e-21 0)
(0.000607464 -2.59189e-05 -2.2306e-20 -0.000121772 -7.75689e-22 0)
(0.00070848 -0.000373629 -1.37903e-20 -0.000412694 -1.29526e-20 0)
(0.000651255 -4.60432e-05 -7.07135e-20 -0.000146112 -8.31622e-21 0)
(0.00192264 -0.00050983 4.11025e-20 -0.00028791 8.34097e-20 0)
(0.00093703 -0.00018145 -6.06043e-20 -0.000369385 -9.04213e-21 0)
(0.000190309 0.000183183 1.54682e-20 -0.000458383 7.3764e-21 4.90892e-36)
(0.000595437 -0.000194302 -3.08167e-20 -0.000191769 -2.4766e-20 0)
(0.000581196 -0.000197044 -8.07197e-20 -0.000194155 -8.94986e-21 0)
(0.000747723 -0.000172427 9.16431e-20 -0.000274619 1.69513e-20 0)
(0.00131595 -0.000298581 -6.97997e-21 -0.000573815 1.56305e-20 0)
(0.00113122 -1.93401e-05 -1.31802e-19 -0.000538722 -8.5347e-20 0)
(0.000857255 1.71936e-05 6.047e-20 -0.000382259 6.6907e-21 4.26575e-36)
(0.00124481 5.83148e-06 0 -0.000484462 0 0)
(0.0010487 0.00015931 4.14185e-20 -0.000392657 3.34207e-20 0)
(0.000756963 -0.000347085 2.88326e-20 -0.000532416 2.3476e-20 0)
(0.000763463 -0.000308986 9.19343e-20 -0.000464571 5.85395e-20 0)
(0.00119525 -4.74623e-05 2.06725e-20 -0.000541859 3.21299e-20 0)
(0.000737758 -0.000260007 7.40495e-21 -0.000298338 1.1624e-20 0)
(0.000903772 -0.000260206 9.14473e-20 -0.000510173 4.5637e-20 0)
(0.000749213 -0.000334722 5.2241e-20 -0.000505549 1.76129e-20 0)
(0.000685622 -0.000133362 -5.4989e-20 -0.000242058 -5.64779e-21 0)
(0.000692791 -0.000120921 -3.95717e-20 -0.000255548 1.24952e-20 0)
(0.00070273 -0.000158004 7.57775e-21 -0.000263881 1.52985e-20 0)
(0.000691504 -0.000157404 7.49201e-20 -0.000246579 -1.20488e-20 0)
(0.000641458 -0.00018547 -1.25916e-19 -0.000202923 -2.09406e-20 0)
(0.000513516 -4.30295e-05 2.07104e-20 -0.000125749 3.8066e-21 0)
(0.000119311 -8.97271e-05 0 -0.000132006 0 0)
(0.00114908 -8.42387e-05 1.85578e-19 -0.00069451 1.32856e-19 0)
(0.000775135 -0.000301022 1.02763e-20 -0.000436238 4.70167e-21 0)
(0.00069053 -0.000325813 6.27053e-20 -0.000412142 2.41541e-20 0)
(0.00115804 0.000159908 7.57437e-20 -0.000509668 4.59625e-20 0)
(0.000697574 -0.000233721 5.26979e-20 -0.000285245 -1.05377e-20 0)
(0.00085414 -0.000199662 -2.96411e-21 -0.000339754 -1.61289e-20 0)
(0.000859291 -0.00018424 4.90879e-20 -0.000383562 6.12042e-22 0)
(0.00107415 -0.000123282 6.00863e-20 -0.000496011 4.41916e-20 0)
(0.00070872 -0.000101406 -5.39329e-20 -0.000297123 5.30623e-21 0)
(0.000186689 -2.22398e-05 0 -0.000171847 0 0)
(0.000873583 0.000139236 3.82355e-20 -0.000392683 8.26012e-20 0)
(0.000585785 -9.2609e-05 -7.70926e-20 -0.000147516 -2.16979e-20 0)
(0.000698545 -6.07893e-05 1.64508e-20 -0.000288907 -8.84863e-21 0)
(0.000532601 -0.000203366 -3.47202e-20 -0.000170357 5.75963e-21 0)
(0.000775043 -0.000229532 0 -0.000346796 0 0)
(0.000795079 -0.000212811 -2.26566e-20 -0.000295246 1.07765e-20 0)
(0.00035578 -0.000192746 0 -0.000153848 0 0)
(0.000532492 -0.000112306 -2.90559e-20 -0.000131063 4.95347e-21 0)
(0.000825986 -5.98139e-05 -8.87616e-20 -0.00034082 2.49893e-21 0)
(0.000741065 -0.000140796 9.49254e-22 -0.000304291 -1.63062e-20 0)
(0.000766703 -0.000120219 8.12641e-20 -0.000300329 2.35808e-20 0)
(0.00209587 -0.000303842 -6.54152e-20 -0.00113004 -4.83537e-20 5.41534e-35)
(0.000274843 -9.20894e-05 2.6125e-20 -9.96699e-05 -3.12287e-23 0)
(0.000236672 -9.29659e-05 -1.71453e-20 -9.58135e-05 -6.76563e-21 0)
(0.0025115 -0.000125892 -3.31067e-19 -0.00060015 -7.26012e-20 0)
(0.000823481 -0.00024541 1.6437e-19 -0.000578289 7.26034e-20 0)
(0.000862381 -0.000160606 -6.67027e-20 -0.000364029 1.1244e-20 0)
(0.000948653 -9.79433e-05 6.20941e-21 -0.000349219 -1.76063e-20 0)
(0.000430957 -8.20363e-05 5.3895e-20 -0.000109195 -1.91763e-20 0)
(0.000488457 -0.000114599 4.19088e-20 -0.000113171 -4.69921e-21 0)
(0.000844597 -0.00025247 2.1684e-20 -0.000387071 6.33854e-21 0)
(0.000377582 9.84335e-05 -1.02549e-20 -0.000655587 -5.41915e-20 -4.48992e-36)
(0.000633767 -0.000105693 1.24306e-20 -0.000194083 -3.10612e-22 0)
(0.000802134 -0.00014312 1.03895e-20 -0.000323418 -1.8055e-20 0)
(0.000193689 4.16466e-05 -1.49208e-20 -0.00085486 -6.07557e-20 0)
(0.000565648 -9.90918e-05 2.58285e-20 -0.00015301 -5.65923e-21 0)
(0.00107398 -9.31358e-05 -5.56372e-20 -0.000464791 -2.06866e-20 0)
(0.00104 -0.000127884 8.76276e-20 -0.000480663 4.06453e-20 0)
(0.000632111 -0.000151299 5.00212e-20 -0.000212175 2.82769e-20 0)
(0.00055503 -0.000200622 -1.3965e-20 -0.000141521 1.724e-20 0)
(0.00058928 -0.000127842 1.07837e-20 -0.000167119 1.86829e-20 0)
(0.000879453 -0.00027452 -9.09157e-20 -0.000617193 -5.9209e-20 0)
(0.000123531 -0.000107788 -7.46899e-20 -0.000428793 -4.63656e-20 0)
(0.000441736 -0.00023748 -4.67237e-20 -0.000170992 -8.81647e-22 0)
(0.000748495 -9.95785e-05 -1.00327e-19 -0.000282872 -1.186e-20 0)
(0.000579725 -0.000115547 -1.34403e-20 -0.000160144 -7.35704e-21 0)
(0.00104148 -0.000170084 -1.38097e-19 -0.000560825 -9.76729e-20 0)
(0.000764105 -5.96562e-05 -5.85469e-20 -0.00031018 -6.94967e-20 0)
(0.000998224 -0.000147513 -9.41656e-20 -0.000471224 -4.9254e-20 0)
(0.00031173 -0.000199754 4.49161e-20 -0.000293398 2.31911e-20 0)
(0.00108407 0.000202918 6.77509e-20 -0.000342764 5.0972e-20 0)
(0.00119035 8.2333e-05 -7.07501e-20 -0.000510068 -6.55883e-20 0)
(0.000959919 -0.000201767 -1.49928e-19 -0.000499193 -7.52946e-20 0)
(0.000221583 -0.00023263 -6.62821e-20 -0.000311787 -4.97861e-20 0)
(0.000599908 -4.49011e-06 -8.85756e-21 -8.22958e-05 -1.72839e-21 0)
(0.000696178 -7.62887e-06 4.70951e-20 -0.000298009 2.31677e-20 0)
(0.000843029 -0.000121527 -1.76116e-20 -0.000388466 2.97141e-20 0)
(0.000641636 -0.000235772 -3.58081e-20 -0.000269258 -2.16505e-22 0)
(0.000152758 -3.75177e-05 1.14237e-19 -0.000387666 1.38561e-19 0)
(0.000684122 -4.46744e-05 0 -0.000246923 0 0)
(0.000682716 -2.75104e-05 -2.79904e-20 -0.000265478 -2.94171e-20 0)
(0.000617212 -2.89505e-05 -2.6937e-20 -0.000114929 -9.78945e-21 0)
(0.000620529 -5.10708e-05 0 -0.000151499 0 0)
(0.000627196 -2.34337e-05 6.94453e-21 -0.000109791 2.86608e-21 0)
(0.000676912 -2.6299e-05 -2.26724e-21 -0.000295263 -6.2522e-21 0)
(0.00140865 4.05938e-05 7.412e-20 -0.000272595 2.55591e-20 0)
(0.00143013 0.000191466 1.29084e-19 -0.000340746 4.37624e-20 0)
(0.00114917 0.000152438 -8.53942e-20 -0.000404254 -5.44561e-20 0)
(0.000926353 -1.57159e-05 7.27399e-20 -0.000311588 3.8264e-20 0)
(0.000679283 -6.61252e-05 3.72073e-20 -0.000218725 8.71032e-22 0)
(0.000443816 -4.84969e-05 6.29322e-20 -0.00012382 1.32754e-20 0)
(0.000716446 -0.000140198 1.84039e-21 -0.000279215 -1.28697e-20 0)
(0.00072019 -0.000123509 -1.25327e-20 -0.000270632 1.22439e-20 0)
(0.000845514 -0.000100997 1.10279e-19 -0.000352355 -4.69294e-20 0)
(0.000601936 -4.30372e-06 -1.27948e-20 -9.95958e-05 -7.20005e-22 -3.21908e-36)
(0.000696245 -2.99563e-06 2.72633e-20 -0.000280003 1.30192e-20 -1.12461e-35)
(0.00091495 -0.00018707 8.08774e-20 -0.000408454 2.3422e-20 0)
(0.000461626 -9.05607e-05 -1.24158e-20 -6.91268e-05 -1.74188e-21 0)
(0.000507994 -0.000137678 2.16489e-20 -0.000118035 6.14307e-21 0)
(0.00061428 -2.30037e-05 1.96243e-20 -9.0016e-05 5.99118e-21 0)
(0.000685202 -2.04101e-05 8.86027e-20 -0.000287446 2.45403e-20 0)
(0.000307663 -4.79604e-06 4.17091e-21 -7.61058e-05 1.36883e-20 0)
(0.000765565 -0.000237211 5.29056e-22 -0.000302977 -1.4544e-20 0)
(0.0013751 0.000250277 -7.27823e-20 -0.000508716 -5.28049e-20 0)
(0.000215108 -6.02975e-06 8.79399e-21 -0.000106054 -2.65537e-21 0)
(0.000418713 -0.000165617 3.3485e-20 -0.000225612 -1.41785e-19 0)
(0.000499772 -0.000168597 2.99619e-20 -0.000112136 5.1897e-21 0)
(0.000619108 -3.13478e-05 4.26353e-20 -0.000103198 1.21039e-20 0)
(0.000693701 -2.37827e-05 -1.37828e-20 -0.000290049 -2.0057e-20 0)
(0.000540959 -6.41791e-06 3.3367e-20 -0.000130848 -6.02768e-21 0)
(0.000469977 -0.000170047 0 -0.00014857 0 0)
(0.000924425 -6.51781e-05 -4.28052e-20 -0.000386904 -3.49393e-20 0)
(0.000795104 -9.89536e-06 4.95278e-20 -0.000338347 9.05276e-21 8.38698e-36)
(0.000402469 -0.000133692 4.64211e-20 -0.000504657 -2.00221e-20 0)
(0.00119518 -8.21089e-08 -5.14659e-20 -0.000551287 -2.05754e-20 -6.61538e-36)
(0.000708568 -0.000330189 0 -0.00052288 0 0)
(0.000976107 0.000123309 8.93458e-20 -0.000342135 3.54317e-20 0)
(0.0010361 -0.000307761 1.04577e-19 -0.000525395 -8.54111e-21 0)
(0.0012228 -0.000129834 1.01063e-19 -0.000620301 9.51159e-20 0)
(0.000812674 -0.000188234 -7.31315e-20 -0.000332559 -3.6658e-20 0)
(0.00106315 -9.74225e-05 6.51804e-21 -0.000536718 -1.05463e-22 0)
(0.000680279 -0.000110257 -9.90632e-21 -0.000206129 -1.29394e-20 0)
(0.000722978 -0.000217553 5.54125e-20 -0.00025946 -7.36877e-21 0)
(0.000953152 -0.000194474 3.32312e-20 -0.000412546 -7.55046e-22 0)
(0.000570207 -0.000241156 7.54552e-20 -0.000210426 2.23015e-20 0)
(0.000878516 -0.000217259 3.92979e-20 -0.00039203 4.97288e-21 0)
(0.000609084 -4.42053e-05 -1.96335e-20 -0.000135857 -7.15391e-21 0)
(0.000597352 -4.89933e-05 6.60054e-20 -0.000136692 6.28557e-21 0)
(0.000912043 -0.000103379 -1.65183e-19 -0.000387052 1.27853e-22 0)
(0.00104801 0.000188808 1.50595e-20 -0.000376612 1.86872e-20 0)
(0.000611784 -0.00013891 -1.02477e-19 -0.000183974 -1.34874e-20 0)
(0.000274904 -0.000276167 -4.45009e-20 -0.000219111 -1.5955e-20 0)
(0.000812519 -0.000289271 5.05922e-20 -0.000577573 -1.16929e-19 0)
(0.000530225 -0.000343801 -7.95313e-20 -0.000439156 2.15783e-20 0)
(0.000352909 -0.000223802 -2.76408e-20 -0.000154479 -1.03326e-20 0)
(0.00115282 -5.35038e-05 1.59189e-19 -0.000452359 4.18483e-20 0)
(0.000956479 -0.000165734 -3.74203e-20 -0.000449727 1.63245e-21 0)
(0.000610711 -0.000159562 8.05176e-20 -0.000178509 1.52977e-20 0)
(0.000615032 -0.000114849 5.92023e-20 -0.000167956 1.22431e-20 0)
(0.00075094 -9.16928e-06 5.61421e-20 -0.000315157 2.68456e-20 2.26084e-35)
(0.00100217 -0.000169659 -2.28632e-20 -0.000458017 -1.25901e-20 0)
(0.000567012 -7.99692e-06 -2.98507e-20 -0.000136001 -3.21475e-21 0)
(0.000656736 -0.000102764 -6.73681e-20 -0.000244023 1.35756e-21 0)
(0.00034372 -0.000258694 -2.89441e-20 0.000309232 1.14691e-19 -1.36702e-35)
(0.000653454 -4.97062e-05 3.59072e-20 -0.000250816 1.17245e-21 0)
(0.000668222 -3.53185e-05 -4.40485e-20 -0.000223685 -1.17779e-20 0)
(0.00115569 0.000262712 -5.57516e-20 -0.000482459 -5.09402e-20 0)
(0.000710713 -0.00031059 -6.5202e-20 -0.000333837 -8.04041e-21 0)
(0.000689746 -0.000106204 -5.59161e-21 -0.000258789 1.39824e-20 0)
(0.000666937 -0.000132492 -4.24557e-20 -0.000232894 -2.67545e-20 0)
(0.000479394 -0.000305584 -8.27678e-20 -0.000369386 -5.10392e-20 0)
(0.000446976 -0.000313505 5.65352e-20 -0.00026575 1.8106e-20 0)
(0.00116398 5.72155e-05 4.43575e-21 -0.00063851 9.97587e-22 0)
(0.0011858 -4.79064e-05 -5.55864e-20 -0.000704877 -8.51582e-20 0)
(0.00169372 -0.000763782 -2.43021e-19 -0.000744836 2.61458e-20 4.36927e-35)
(0.00063328 -0.000183315 -7.00455e-20 -0.000222757 3.82196e-21 0)
(0.000545739 -0.000235863 -1.06323e-19 -0.000432586 -5.91232e-20 0)
(0.00115396 3.92429e-05 6.55554e-20 -0.00060026 5.55911e-20 0)
(0.000766017 -0.000271064 6.95328e-20 -0.000564041 -2.24447e-20 0)
(0.000164974 -0.000195472 -2.08129e-20 -0.000223797 1.98882e-21 0)
(0.00116094 -6.75709e-05 -1.66284e-19 -0.00049153 -6.41683e-20 0)
(0.000534306 -0.000184192 -9.67803e-20 -0.000160238 -2.05878e-20 0)
(0.00104375 -1.17673e-05 -1.50938e-20 -0.000424888 -1.53645e-20 7.40042e-36)
(0.00055239 -0.000161875 6.17324e-20 -0.000147501 1.66207e-20 0)
(0.000604828 -0.000180233 -2.87178e-20 -0.000184266 -2.22757e-20 0)
(0.000606253 -0.000106163 -1.67616e-20 -0.000165319 3.31028e-21 0)
(0.00101961 -0.00012006 0 -0.000441605 0 0)
(0.000531203 -2.79086e-05 4.06049e-20 -0.000127708 1.67504e-20 0)
(0.000813249 -3.95439e-05 -9.66925e-20 -0.000348426 -8.29593e-21 0)
(0.000588506 -0.000332942 6.10688e-20 -0.000357569 2.1904e-20 0)
(0.000530029 -0.000348591 -4.08338e-20 -0.00034989 -1.64137e-20 0)
(0.000408555 -0.000146954 6.56939e-20 -0.000414277 -2.58014e-20 0)
(0.000550178 -0.000237197 -3.04134e-20 -0.000186375 1.86206e-22 0)
(0.000347088 -0.000194654 1.70943e-21 -0.000394026 -2.57571e-21 0)
(0.000852127 -0.000273291 -1.51774e-19 -0.000358715 -6.28475e-20 0)
(0.000805769 -0.000278294 -5.10253e-20 -0.000403933 -2.24126e-20 0)
(0.000432413 -0.000329484 1.74547e-20 -0.00029528 1.59029e-20 0)
(0.000677158 -0.000276813 -2.75181e-20 -0.000318761 -2.01364e-20 0)
(0.000401979 -5.59574e-05 5.54571e-21 -7.60213e-05 9.32686e-21 0)
(0.000585757 -0.000151778 8.53679e-20 -0.000171596 6.3682e-21 0)
(0.00111987 2.00285e-05 -1.82668e-19 -0.00044918 -4.7805e-20 2.67178e-35)
(0.000719067 -9.02903e-05 1.62165e-20 -0.000265515 -9.15719e-21 0)
(0.000530565 -0.000119712 -2.85569e-20 -0.000130255 -8.86215e-21 0)
(0.00156964 -4.69788e-05 1.19591e-19 -0.000577825 2.83317e-20 0)
(0.00109142 -6.59379e-06 -7.90932e-20 -0.00046742 -1.11459e-20 2.63285e-36)
(6.91995e-05 -0.000108787 2.34883e-20 -0.000291157 2.13871e-20 0)
(0.000666255 -0.000150578 6.54168e-20 -0.000207121 2.36864e-20 0)
(0.000986021 -5.63829e-05 7.06379e-21 -0.000432514 -2.04485e-20 0)
(0.00103041 9.90816e-05 -7.59346e-20 -0.000487653 -5.54309e-20 0)
(0.000619187 -0.000164029 1.58666e-19 -0.000211667 9.45924e-21 0)
(0.000594914 -1.23614e-05 -1.22961e-20 -8.71666e-05 -7.47636e-21 0)
(0.00069486 -5.48003e-06 2.58626e-20 -0.000296256 -8.44147e-21 0)
(0.000419041 -4.25105e-06 1.133e-21 -9.37635e-05 6.50791e-21 0)
(0.000620715 -0.000284721 1.20527e-19 -0.000261474 4.19231e-20 0)
(0.000944135 -0.000172832 -7.24347e-20 -0.000398227 -8.11391e-21 0)
(0.000953184 -1.03278e-05 -1.6537e-21 -0.000420728 -1.3345e-20 5.74333e-36)
(0.000950698 2.17495e-05 1.72923e-20 -0.000455521 1.86664e-20 -3.091e-36)
(0.000146213 -0.000136573 0 -0.000366939 0 0)
(0.000856585 0.000103191 -1.23521e-19 -0.000436171 -1.07609e-19 0)
(0.00070765 -0.000231416 5.40737e-20 -0.000234575 -9.66367e-21 0)
(0.000607094 -1.76689e-05 9.96154e-21 -9.11518e-05 6.68715e-22 0)
(0.000157319 -0.000103974 1.3934e-20 -0.000150192 9.89589e-21 0)
(0.000605881 -2.38959e-06 7.71936e-21 -9.24642e-05 9.31509e-21 0)
(0.000628848 -4.32891e-06 2.4682e-20 -0.000141741 2.48983e-20 -9.96365e-36)
(0.000671571 -3.61285e-06 -1.98667e-20 -0.000244802 -1.51689e-20 -8.029e-36)
(0.000769946 -0.000207896 4.50756e-20 -0.000332361 1.13094e-20 0)
(0.000857972 -0.000907298 0 -0.000287984 0 0)
(0.000695707 -7.40517e-06 1.04934e-20 -0.00030169 1.43256e-20 0)
(0.00051798 -0.000149987 3.65661e-20 -0.000148422 2.2338e-20 0)
(0.00107845 0.000105665 -9.68281e-20 -0.000428793 -7.14093e-20 0)
(0.0002433 -0.00017918 -2.18644e-20 -0.000216084 -5.77055e-21 0)
(0.000699194 -5.57358e-06 0 -0.000302178 0 0)
(0.000484979 -0.000206465 4.59766e-20 -0.000150874 -1.1149e-20 0)
(0.000643634 -0.00030062 -1.78634e-21 -0.000274792 5.6947e-22 0)
(0.00086834 0.000179021 -9.96779e-20 -0.000344263 -8.6477e-20 0)
(0.00061996 -5.07687e-05 2.75951e-20 -0.000132993 6.13635e-21 0)
(0.000201809 6.31572e-05 -1.60447e-19 -0.000676297 -1.5102e-19 0)
(1.20045e-05 0.000102949 4.58075e-20 -0.000252379 -2.57851e-19 -6.8749e-35)
(0.000208727 7.78087e-06 0 -0.000386608 0 0)
(0.000697024 -7.73036e-05 2.81796e-20 -0.000247105 -4.23346e-21 0)
(0.00161523 -4.58228e-05 2.77579e-20 -0.000530785 1.16478e-20 0)
(0.000342691 -0.000193014 -1.29254e-20 -0.000507928 1.9858e-21 0)
(0.000710478 -0.000304248 1.178e-20 -0.000388626 1.76878e-20 0)
(0.00148138 5.67014e-05 -4.5663e-20 -0.000620761 -4.18244e-20 0)
(0.000746721 1.46656e-05 -1.99732e-20 -0.000344993 -1.68645e-20 -8.92996e-36)
(0.000623839 -7.86041e-05 -1.24647e-20 -0.000164865 -4.86625e-21 0)
(0.000628913 -0.000131461 -2.97066e-20 -0.000196712 2.75635e-21 0)
(0.00241339 -0.00040012 -8.83473e-20 -0.000542558 -3.35696e-20 0)
(0.00101492 0.000197091 6.10468e-20 -0.000456046 5.10414e-20 0)
(0.00101878 0.000236123 1.33532e-20 -0.000353458 1.00332e-20 0)
(0.000999487 -4.72067e-05 9.81856e-20 -0.000419007 -2.70548e-20 0)
(0.000569009 -0.000140106 4.22566e-20 -0.000155244 5.71143e-21 0)
(0.00120386 -1.11252e-05 -1.91229e-19 -0.000652268 -1.58209e-19 0)
(0.000568661 -3.06183e-05 2.17931e-20 -0.000125077 5.86775e-21 0)
(0.000770984 -3.56185e-05 6.7715e-20 -0.000329874 -3.40976e-21 0)
(0.00131355 0.000157786 4.27469e-20 -0.000478803 1.9209e-20 0)
(0.000688568 -9.18872e-05 -5.53268e-21 -0.000271554 1.38654e-20 0)
(0.000548012 -0.000136667 2.15953e-20 -0.000155065 1.28035e-20 0)
(0.000603363 5.18925e-06 4.32098e-20 -0.000103009 -8.02114e-21 0)
(0.000703863 1.17553e-06 1.61465e-20 -0.000299974 6.77161e-21 3.70707e-36)
(0.00114482 -6.99398e-05 -1.05159e-19 -0.000494259 -5.61888e-20 0)
(0.000869274 -0.000130559 8.22229e-20 -0.000347803 1.48666e-20 0)
(0.00116079 -5.98823e-05 4.10067e-20 -0.000520054 1.74973e-20 0)
(0.00153764 2.91357e-05 5.56032e-20 -0.000582828 7.20088e-20 0)
(0.000763771 -0.000159677 4.04019e-20 -0.00028252 -3.63108e-21 0)
(0.000352484 -0.000263169 1.54472e-20 -0.000240971 5.82712e-21 0)
(0.00123935 0.000115419 -2.27019e-20 -0.00064475 -3.62669e-20 0)
(0.000932097 9.39651e-05 9.81625e-20 -0.000284442 4.87854e-20 0)
(0.00129879 4.44091e-05 -1.55299e-20 -0.000622789 6.20449e-22 0)
(0.000733743 -9.47178e-05 -4.97353e-20 -0.000324494 -8.54429e-21 0)
(0.000596788 5.79881e-06 -3.88017e-20 -7.92893e-05 -9.1698e-21 0)
(0.000603991 -2.4066e-06 1.46196e-20 -7.37949e-05 -1.8973e-21 -3.04331e-36)
(0.000697163 -2.25435e-07 4.73221e-20 -0.00029779 1.64892e-20 1.31854e-35)
(0.000695396 1.81959e-07 5.60854e-20 -0.000292573 3.82538e-20 -3.51777e-35)
(0.000512792 -4.88591e-07 5.23681e-20 -0.000115216 6.96411e-21 0)
(0.000848758 -2.58289e-06 -1.3453e-20 -0.000349383 -8.23798e-21 3.89998e-36)
(0.000630241 3.26279e-05 -1.798e-20 -0.000297523 -2.25047e-20 0)
(0.00118544 -0.000484498 -1.63209e-19 -0.000340872 -5.96913e-20 0)
(0.000624289 -7.88536e-05 -5.89891e-20 -0.000170273 -2.13199e-20 0)
(0.000336683 -0.000287308 1.30588e-20 -0.000252963 1.45903e-20 0)
(0.00102926 0.000161965 6.66687e-20 -0.00043042 9.28355e-20 0)
(0.00025971 -0.000194667 2.69078e-20 -0.000125199 9.26685e-21 0)
(0.000691528 -0.000294968 9.44788e-20 -0.000363622 2.25987e-20 0)
(0.000235423 -0.000126461 4.66101e-20 -0.00012642 1.53682e-20 0)
(0.000813228 -0.000161948 5.54753e-20 -0.000327976 1.49465e-20 0)
(0.000630748 -8.69996e-05 -1.44959e-20 -0.000158794 -6.68253e-22 0)
(0.000759257 -0.000156666 -1.29003e-19 -0.000315374 -4.09429e-20 0)
(0.00176908 -3.35134e-05 -2.74601e-20 -0.000649323 -3.66585e-20 0)
(0.00112751 0.000215302 7.25034e-20 -0.000455529 6.17239e-20 0)
(0.000887567 -0.000238424 -5.23425e-20 -0.000597102 -1.01896e-20 0)
(0.00111593 -4.10818e-05 -1.49189e-19 -0.0005569 -1.00678e-19 0)
(0.000737188 0.000117437 -2.86576e-20 -0.000346374 -4.05351e-20 0)
(0.00114292 1.99675e-05 7.07773e-20 -0.000552675 6.30483e-20 0)
(0.00106175 -0.000172915 8.03096e-20 -0.000637526 5.81327e-20 0)
(0.000904371 -0.000225699 -3.98914e-20 -0.000434078 -1.57449e-20 0)
(0.000928559 -0.000190261 -1.00286e-19 -0.000419419 -6.16723e-20 0)
(0.00028094 -8.80203e-05 3.97638e-20 -0.000488284 4.13239e-20 0)
(0.000182824 -8.44034e-05 1.93971e-20 -0.000366267 2.00582e-20 0)
(0.000596695 -1.97024e-05 4.47485e-20 -0.000126551 -1.88903e-20 0)
(0.000707744 -1.68748e-05 -4.52596e-20 -0.000304055 -1.28431e-20 0)
(0.000682245 -8.0739e-05 -3.46877e-20 -0.000243596 2.47114e-21 0)
(0.000880969 -0.000252804 2.24649e-19 -0.0004976 1.1199e-19 0)
(0.00110464 -0.000189945 -2.63983e-19 -0.000622349 -1.22939e-19 0)
(0.00113213 -6.4421e-05 4.16367e-21 -0.000514872 -1.18073e-20 0)