/*--------------------------------*- C++ -*----------------------------------*\
| =========                 |                                                 |
| \\      /  F ield         | OpenFOAM: The Open Source CFD Toolbox           |
|  \\    /   O peration     | Version:  v2012                                 |
|   \\  /    A nd           | Website:  www.openfoam.com                      |
|    \\/     M anipulation  |                                                 |
\*---------------------------------------------------------------------------*/
FoamFile
{
    version     2.0;
    format      ascii;
    class       volScalarField;
    location    "4";
    object      sigmaEq;
}
// * * * * * * * * * * * * * * * * * * * * * * * * * * * * * * * * * * * * * //

dimensions      [1 -1 -2 0 0 0 0];


internalField   nonuniform List<scalar> 
470
(
2.75264e+07
2.29501e+07
5.49582e+07
3.55578e+07
4.93252e+07
5.02213e+07
4.5113e+07
4.84313e+07
7.45514e+07
5.29896e+07
7.24964e+07
8.36533e+07
8.26625e+07
3.52437e+07
8.44357e+07
6.46218e+07
5.35048e+07
3.46137e+07
2.99586e+07
2.58906e+07
6.65064e+07
4.2321e+07
5.43028e+07
3.73218e+07
7.91264e+07
4.33975e+07
7.95822e+07
6.03959e+07
4.9324e+07
3.67699e+07
2.41911e+07
8.36688e+07
5.5516e+07
9.93431e+07
5.02113e+07
4.86492e+07
8.5367e+07
3.02096e+07
2.80442e+07
2.68566e+07
6.96218e+07
2.904e+07
8.01852e+07
6.87648e+07
6.0557e+07
8.1254e+07
3.91091e+07
7.36912e+07
7.60762e+07
7.6057e+07
8.04978e+07
8.30411e+07
3.39977e+07
3.17677e+07
4.05405e+07
4.14659e+07
4.30229e+07
5.03145e+07
5.93549e+07
5.78177e+07
4.50451e+07
8.48547e+07
7.93921e+07
8.84904e+07
6.04188e+07
9.19065e+07
3.34843e+07
4.35448e+07
4.80699e+07
6.26034e+07
1.70916e+07
5.15933e+07
8.79683e+07
5.37054e+07
9.13739e+07
4.00502e+07
5.03281e+07
4.85028e+07
5.88437e+07
7.42626e+07
6.33864e+07
9.04021e+07
5.52636e+07
5.39163e+07
7.8813e+07
4.14225e+07
8.86325e+07
5.63933e+07
8.57851e+07
9.67185e+07
8.58576e+07
8.1073e+07
4.99041e+07
4.97252e+07
8.30609e+07
8.45808e+07
4.19507e+07
4.65302e+07
5.54954e+07
5.16642e+07
4.05223e+07
7.39355e+07
9.61128e+07
3.85122e+07
3.75427e+07
4.71157e+07
4.5955e+07
4.57989e+07
5.20838e+07
1.14921e+08
7.81961e+07
8.95292e+07
3.91624e+07
4.89814e+07
5.19724e+07
5.81536e+07
3.64102e+07
7.68489e+07
4.62318e+07
2.34017e+07
4.96442e+07
3.87446e+07
3.4777e+07
3.69315e+07
4.5885e+07
5.99157e+07
6.31119e+07
4.23356e+07
7.94893e+07
3.86302e+07
3.77742e+07
4.43089e+07
4.84685e+07
4.15058e+07
4.26552e+07
5.3271e+07
5.35093e+07
6.11754e+07
8.12631e+07
4.8041e+07
4.81411e+07
8.55471e+07
4.29534e+07
4.66408e+07
4.57474e+07
3.11903e+07
3.59062e+07
8.31814e+07
4.2499e+07
8.58666e+07
3.09834e+07
3.65134e+07
6.33337e+07
3.98242e+07
1.21754e+08
6.50485e+07
3.54828e+07
4.23563e+07
4.18758e+07
5.19005e+07
9.45542e+07
7.95104e+07
5.92207e+07
8.31994e+07
7.10659e+07
6.85536e+07
6.46109e+07
8.30112e+07
5.53387e+07
7.10541e+07
6.66427e+07
4.65695e+07
4.71322e+07
4.88725e+07
4.76719e+07
4.45985e+07
3.18395e+07
1.44046e+07
8.71922e+07
6.37372e+07
6.01959e+07
8.1087e+07
5.19505e+07
6.03169e+07
6.17924e+07
7.57338e+07
4.9115e+07
1.68522e+07
6.18305e+07
3.71908e+07
4.76875e+07
3.91077e+07
5.76882e+07
5.62153e+07
3.029e+07
3.44091e+07
5.62339e+07
5.18362e+07
5.25284e+07
1.5527e+08
2.00253e+07
1.81645e+07
1.54405e+08
6.95726e+07
6.06226e+07
6.32999e+07
2.77135e+07
3.16767e+07
6.3285e+07
4.96135e+07
4.15644e+07
5.56701e+07
5.21803e+07
3.64955e+07
7.41174e+07
7.34679e+07
4.33244e+07
3.91036e+07
3.89293e+07
7.46744e+07
2.8844e+07
3.68794e+07
5.0562e+07
3.78696e+07
7.74726e+07
5.18646e+07
7.13166e+07
3.38171e+07
7.1997e+07
8.17433e+07
7.16772e+07
3.30945e+07
3.47336e+07
4.75896e+07
5.98007e+07
4.88705e+07
2.62172e+07
4.51764e+07
4.56931e+07
3.68211e+07
3.84479e+07
3.71474e+07
4.65492e+07
8.42402e+07
8.94342e+07
7.64972e+07
6.00716e+07
4.41065e+07
2.82019e+07
4.96515e+07
4.91325e+07
5.8183e+07
3.54016e+07
4.68844e+07
6.55657e+07
2.82059e+07
3.35759e+07
3.58118e+07
4.66425e+07
1.89561e+07
5.59234e+07
9.38396e+07
1.52719e+07
3.41817e+07
3.42109e+07
3.65513e+07
4.71962e+07
3.32221e+07
3.4035e+07
6.31325e+07
5.42748e+07
4.41863e+07
8.32662e+07
6.53525e+07
6.48263e+07
7.94675e+07
8.82995e+07
5.76831e+07
7.64813e+07
4.44667e+07
5.16358e+07
6.77985e+07
4.38729e+07
6.39724e+07
3.72299e+07
3.66932e+07
6.29494e+07
7.10648e+07
4.09573e+07
3.45884e+07
7.04974e+07
5.54758e+07
3.20006e+07
7.73531e+07
6.87391e+07
4.13681e+07
3.99095e+07
5.10873e+07
7.14247e+07
3.47842e+07
4.44937e+07
2.98954e+07
4.37852e+07
4.34045e+07
8.22455e+07
5.75731e+07
4.67891e+07
4.52767e+07
4.88635e+07
4.45347e+07
8.5403e+07
8.9224e+07
1.36594e+08
4.48104e+07
5.07394e+07
8.32308e+07
6.71981e+07
2.57591e+07
7.93884e+07
3.80199e+07
7.0492e+07
3.7576e+07
4.20093e+07
3.91603e+07
7.07853e+07
3.26941e+07
5.57203e+07
5.43066e+07
5.25752e+07
4.0745e+07
4.20123e+07
3.90583e+07
6.33587e+07
6.30309e+07
4.59283e+07
5.40042e+07
2.45174e+07
3.96485e+07
7.53865e+07
4.82497e+07
3.45022e+07
1.03732e+08
7.46106e+07
2.05191e+07
4.4819e+07
6.80107e+07
7.28712e+07
4.3076e+07
3.46393e+07
4.74502e+07
2.54694e+07
4.99103e+07
6.62892e+07
6.56597e+07
6.69472e+07
2.7752e+07
6.20878e+07
5.05824e+07
3.54382e+07
1.73119e+07
3.53782e+07
3.82547e+07
4.42515e+07
5.61872e+07
1.01249e+08
4.77102e+07
3.55017e+07
7.30971e+07
2.71791e+07
4.79067e+07
3.64813e+07
5.21435e+07
6.06245e+07
3.77776e+07
4.3297e+07
1.69135e+07
2.81811e+07
4.62284e+07
1.04333e+08
4.37863e+07
5.92215e+07
1.00867e+08
5.20632e+07
3.94858e+07
4.20479e+07
1.51426e+08
7.25908e+07
7.00041e+07
6.8111e+07
3.78878e+07
8.78259e+07
3.46025e+07
5.27958e+07
8.77919e+07
4.69476e+07
3.67329e+07
3.55911e+07
4.80575e+07
7.86856e+07
5.97201e+07
8.04513e+07
1.02205e+08
5.26326e+07
3.71118e+07
8.99524e+07
5.99927e+07
9.15305e+07
5.13288e+07
3.44726e+07
3.46813e+07
4.76264e+07
4.73304e+07
3.11803e+07
5.74672e+07
4.42859e+07
8.73196e+07
3.97034e+07
3.84596e+07
7.15637e+07
2.57858e+07
5.70593e+07
2.0795e+07
5.68404e+07
3.97852e+07
5.35496e+07
1.16777e+08
7.86127e+07
7.31359e+07
7.95387e+07
5.2762e+07
8.06718e+07
8.1668e+07
6.70746e+07
6.67385e+07
3.7219e+07
2.72395e+07
3.60704e+07
4.84435e+07
4.5389e+07
6.92465e+07
8.34747e+07
7.881e+07
3.69825e+07
8.63066e+07
6.97323e+07
8.38375e+07
7.51316e+07
4.94641e+07
1.93994e+07
4.53888e+07
5.70918e+07
7.17007e+07
7.17676e+07
4.49291e+07
4.35267e+07
4.40123e+07
6.96147e+07
7.38929e+07
4.19858e+07
4.0214e+07
5.36928e+07
5.17234e+07
3.26171e+07
7.01244e+07
7.12432e+07
6.66398e+07
4.08938e+07
3.88863e+07
6.37458e+07
7.07613e+07
)
;

boundaryField
{
    back
    {
        type            empty;
    }
    front
    {
        type            empty;
    }
    down
    {
        type            symmetry;
    }
    right
    {
        type            calculated;
        value           nonuniform List<scalar> 10(4.00365e+07 3.64956e+07 4.58419e+07 4.23612e+07 3.57513e+07 4.66223e+07 3.82323e+07 4.4182e+07 3.4827e+07 4.73365e+07);
    }
    up
    {
        type            calculated;
        value           nonuniform List<scalar> 
20
(
8.42492e+07
6.1044e+07
8.08401e+07
4.92183e+07
4.91589e+07
7.94314e+07
5.8359e+07
8.35534e+07
5.43664e+07
8.21009e+07
5.14266e+07
7.08404e+07
7.57798e+07
7.46784e+07
6.53284e+07
6.56727e+07
5.18105e+07
4.82488e+07
4.76663e+07
5.78613e+07
)
;
    }
    left
    {
        type            symmetry;
    }
    hole
    {
        type            calculated;
        value           nonuniform List<scalar> 8(5.64153e+07 3.73174e+07 1.56443e+08 4.96665e+07 3.29324e+07 1.37223e+08 9.87965e+07 1.70856e+07);
    }
}


// ************************************************************************* //
