/*--------------------------------*- C++ -*----------------------------------*\
| =========                 |                                                 |
| \\      /  F ield         | OpenFOAM: The Open Source CFD Toolbox           |
|  \\    /   O peration     | Version:  v2012                                 |
|   \\  /    A nd           | Website:  www.openfoam.com                      |
|    \\/     M anipulation  |                                                 |
\*---------------------------------------------------------------------------*/
FoamFile
{
    version     2.0;
    format      ascii;
    class       pointVectorField;
    location    "15";
    object      pointD;
}
// * * * * * * * * * * * * * * * * * * * * * * * * * * * * * * * * * * * * * //

dimensions      [0 1 0 0 0 0 0];


internalField   nonuniform List<vector> 
32562
(
(0.00231856 0 8.9664e-22)
(0.00297983 0 6.15859e-22)
(0.00274416 -0.00019443 0)
(0 -0.00184169 -7.8456e-23)
(0 -0.000588383 9.8864e-21)
(0.00237825 0 0)
(0 -0.00175459 0)
(0.00157994 -0.00043966 0)
(0.000699042 -0.000819584 4.21953e-22)
(0.0028756 -3.13913e-05 6.93045e-21)
(0.00187813 -0.000725629 1.92808e-21)
(0.00187813 -0.000725629 1.92808e-21)
(0.00157994 -0.00043966 0)
(0 -0.00175459 0)
(0 -0.000588383 9.8864e-21)
(0.00231856 0 8.9664e-22)
(0.00237825 0 0)
(0.00297983 0 6.15859e-22)
(0.0028756 -3.13913e-05 6.93045e-21)
(0.00274416 -0.00019443 0)
(0.000699042 -0.000819584 4.21953e-22)
(0 -0.00184169 -7.8456e-23)
(3.45957e-05 -0.0017516 0)
(6.99171e-05 -0.00174305 0)
(0.000105676 -0.00172976 0)
(0.000141918 -0.00171211 0)
(0.000178839 -0.00169042 0)
(0.000216853 -0.00166472 0)
(0.000256422 -0.00163497 0)
(0.000297815 -0.00160132 0)
(0.00034109 -0.001564 0)
(0.000386128 -0.00152343 0)
(0.000432731 -0.00148008 0)
(0.000480618 -0.00143452 0)
(0.000529406 -0.00138741 0)
(0.000578652 -0.00133945 0)
(0.000627878 -0.00129132 0)
(0.000676518 -0.00124379 0)
(0.000723861 -0.00119769 0)
(0.000769082 -0.00115393 0)
(0.000811539 -0.00111316 0)
(0.000851319 -0.00107522 0)
(0.000889209 -0.00103923 0)
(0.000926232 -0.00100401 0)
(0.000963128 -0.000968901 0)
(0.000999997 -0.000933829 0)
(0.00103681 -0.000898923 0)
(0.00107354 -0.000864327 0)
(0.0011102 -0.000830156 0)
(0.00114677 -0.000796487 0)
(0.00118326 -0.00076337 0)
(0.00121968 -0.000730841 0)
(0.00125601 -0.000698923 0)
(0.00129223 -0.000667627 0)
(0.00132833 -0.000636974 0)
(0.00136431 -0.00060703 0)
(0.00140023 -0.000577853 0)
(0.00143599 -0.000549329 0)
(0.00147118 -0.000521213 0)
(0.00150524 -0.000493556 0)
(0.00153924 -0.000468851 0)
(0.00162215 -0.000410281 0)
(0.00165553 -0.000386987 0)
(0.00168871 -0.000364596 0)
(0.00172155 -0.00034297 0)
(0.00175398 -0.000322118 0)
(0.00178597 -0.000302064 0)
(0.00181744 -0.000282819 0)
(0.00184837 -0.000264386 0)
(0.00187871 -0.000246767 0)
(0.00190841 -0.000229958 0)
(0.00193744 -0.00021395 0)
(0.00196578 -0.000198735 0)
(0.00199337 -0.000184297 0)
(0.0020202 -0.000170622 0)
(0.00204623 -0.000157691 0)
(0.00207144 -0.000145483 0)
(0.00209579 -0.000133977 0)
(0.00211927 -0.000123149 0)
(0.00214185 -0.000112973 0)
(0.0021635 -0.000103423 0)
(0.00218421 -9.44733e-05 0)
(0.00220395 -8.60947e-05 0)
(0.0022227 -7.82588e-05 0)
(0.00224044 -7.09363e-05 0)
(0.00225717 -6.40974e-05 0)
(0.00227285 -5.7712e-05 0)
(0.00228747 -5.17495e-05 0)
(0.00230103 -4.61793e-05 0)
(0.00231351 -4.09706e-05 0)
(0.00232489 -3.60929e-05 0)
(0.00233516 -3.15158e-05 0)
(0.00234433 -2.72098e-05 0)
(0.00235237 -2.31469e-05 0)
(0.00235929 -1.93017e-05 0)
(0.00236508 -1.56521e-05 0)
(0.00236977 -1.21769e-05 0)
(0.0023734 -8.84882e-06 0)
(0.00237606 -5.62745e-06 0)
(0.0023778 -2.43151e-06 0)
(0.00232208 0 0)
(0.00232614 0 0)
(0.0023298 0 0)
(0.00233313 0 0)
(0.0023362 0 0)
(0.00233904 0 0)
(0.00234168 0 0)
(0.00234413 0 0)
(0.00234641 0 0)
(0.00234852 0 0)
(0.00235049 0 0)
(0.00235233 0 0)
(0.00235403 0 0)
(0.00235563 0 0)
(0.00235711 0 0)
(0.0023585 0 0)
(0.0023598 0 0)
(0.00236101 0 0)
(0.00236215 0 0)
(0.00236322 0 0)
(0.00236423 0 0)
(0.00236518 0 0)
(0.00236608 0 0)
(0.00236693 0 0)
(0.00236774 0 0)
(0.00236851 0 0)
(0.00236925 0 0)
(0.00236996 0 0)
(0.00237065 0 0)
(0.00237133 0 0)
(0.00237199 0 0)
(0.00237264 0 0)
(0.0023733 0 0)
(0.00237396 0 0)
(0.00237465 0 0)
(0.00237536 0 0)
(0.00237612 0 0)
(0.0023769 0 0)
(0.00237761 0 0)
(0.00237908 0 0)
(0.00238006 0 0)
(0.00238111 0 0)
(0.00238242 0 0)
(0.00238395 0 0)
(0.00238568 0 0)
(0.0023876 0 0)
(0.00238971 0 0)
(0.002392 0 0)
(0.00239449 0 0)
(0.00239716 0 0)
(0.00240003 0 0)
(0.00240309 0 0)
(0.00240635 0 0)
(0.00240982 0 0)
(0.00241348 0 0)
(0.00241734 0 0)
(0.0024214 0 0)
(0.00242566 0 0)
(0.00243013 0 0)
(0.00243479 0 0)
(0.00243966 0 0)
(0.00244473 0 0)
(0.00245 0 0)
(0.00245547 0 0)
(0.00246114 0 0)
(0.00246701 0 0)
(0.00247307 0 0)
(0.00247934 0 0)
(0.0024858 0 0)
(0.00249245 0 0)
(0.0024993 0 0)
(0.00250634 0 0)
(0.00251357 0 0)
(0.00252099 0 0)
(0.0025286 0 0)
(0.0025364 0 0)
(0.00254437 0 0)
(0.00255252 0 0)
(0.00256086 0 0)
(0.00256936 0 0)
(0.00257803 0 0)
(0.00258687 0 0)
(0.00259587 0 0)
(0.00260503 0 0)
(0.00261434 0 0)
(0.0026238 0 0)
(0.0026334 0 0)
(0.00264313 0 0)
(0.002653 0 0)
(0.00266299 0 0)
(0.0026731 0 0)
(0.00268332 0 0)
(0.00269365 0 0)
(0.00270408 0 0)
(0.0027146 0 0)
(0.00272521 0 0)
(0.00273591 0 0)
(0.00274669 0 0)
(0.00275754 0 0)
(0.00276846 0 0)
(0.00277945 0 0)
(0.0027905 0 0)
(0.00280161 0 0)
(0.00281277 0 0)
(0.00282397 0 0)
(0.00283522 0 0)
(0.00284651 0 0)
(0.00285783 0 0)
(0.00286917 0 0)
(0.00288053 0 0)
(0.00289189 0 0)
(0.00290325 0 0)
(0.0029146 0 0)
(0.00292593 0 0)
(0.00293722 0 0)
(0.00294846 0 0)
(0.00295962 0 0)
(0.00297066 0 0)
(0.00298352 2.93509e-07 3.29476e-21)
(0.00298347 7.06383e-07 4.06524e-21)
(0.00298322 1.12846e-06 2.27912e-23)
(0.00298278 1.5365e-06 -3.409e-21)
(0.00298215 1.91924e-06 -2.04648e-21)
(0.00298133 2.27043e-06 -7.51312e-22)
(0.00298032 2.58426e-06 -2.03738e-21)
(0.00297913 2.85493e-06 -1.60598e-23)
(0.00297777 3.07693e-06 1.48924e-23)
(0.00297624 3.24504e-06 -2.49649e-21)
(0.00297454 3.35424e-06 -2.10729e-21)
(0.00297267 3.39969e-06 1.24003e-21)
(0.00297065 3.37672e-06 -3.0416e-21)
(0.00296847 3.28087e-06 -5.14755e-21)
(0.00296615 3.10792e-06 -2.1458e-21)
(0.00296368 2.85394e-06 -3.32922e-21)
(0.00296108 2.51532e-06 -1.18341e-21)
(0.00295835 2.08882e-06 -1.52698e-22)
(0.00295549 1.57159e-06 -2.43486e-23)
(0.00295251 9.61226e-07 -1.03998e-21)
(0.00294942 2.55806e-07 -2.16779e-21)
(0.00294622 -5.46104e-07 4.03216e-23)
(0.00294292 -1.44542e-06 -8.37278e-23)
(0.00293953 -2.44255e-06 4.69706e-23)
(0.00293605 -3.53737e-06 3.49527e-21)
(0.00293248 -4.72927e-06 3.50138e-21)
(0.00292884 -6.01719e-06 1.17659e-21)
(0.00292513 -7.39973e-06 -3.62362e-21)
(0.00292134 -8.8753e-06 -4.81257e-21)
(0.00291748 -1.04424e-05 2.5208e-21)
(0.00291355 -1.21003e-05 3.62822e-21)
(0.00290955 -1.3849e-05 -3.78232e-21)
(0.00290548 -1.56905e-05 -2.37886e-21)
(0.00290133 -1.76288e-05 1.1826e-21)
(0.00289709 -1.96705e-05 -1.34767e-21)
(0.00289277 -2.18276e-05 -2.60495e-21)
(0.00288836 -2.41208e-05 -1.19167e-21)
(0.00288387 -2.65763e-05 2.87585e-21)
(0.00287934 -2.92061e-05 7.07172e-21)
(0.00287308 -3.28702e-05 7.24101e-21)
(0.00287094 -3.42283e-05 9.43853e-21)
(0.00286879 -3.56742e-05 1.16703e-20)
(0.00286666 -3.72085e-05 9.51988e-21)
(0.00286456 -3.883e-05 7.38841e-21)
(0.00286251 -4.05402e-05 9.63204e-21)
(0.00286052 -4.23431e-05 9.67515e-21)
(0.00285863 -4.42447e-05 1.45862e-20)
(0.00285685 -4.62513e-05 1.20991e-20)
(0.0028552 -4.83678e-05 2.36111e-21)
(0.00285372 -5.05967e-05 2.46144e-21)
(0.00285245 -5.29367e-05 7.40366e-21)
(0.00285141 -5.5382e-05 7.53964e-21)
(0.00285065 -5.79223e-05 4.88543e-21)
(0.00285021 -6.05421e-05 9.99853e-21)
(0.00285011 -6.32184e-05 1.6822e-20)
(0.0028504 -6.58965e-05 1.49212e-20)
(0.00285112 -6.83262e-05 5.8097e-21)
(0.00285201 -7.11855e-05 -4.52425e-21)
(0.00285337 -7.37972e-05 -1.539e-21)
(0.00285522 -7.52734e-05 8.7762e-21)
(0.00285696 -7.62242e-05 5.79095e-21)
(0.00285844 -7.6504e-05 1.44672e-21)
(0.00285941 -7.60544e-05 5.34467e-21)
(0.00285954 -7.49463e-05 5.89183e-21)
(0.00285857 -7.33414e-05 6.0033e-21)
(0.00285632 -7.15282e-05 6.78769e-21)
(0.0028527 -6.99037e-05 8.40277e-22)
(0.00284784 -6.89154e-05 -3.24984e-21)
(0.00284198 -6.89296e-05 7.98176e-23)
(0.00283554 -7.00763e-05 -5.77302e-21)
(0.00282894 -7.22339e-05 -1.70193e-20)
(0.00282253 -7.51479e-05 -7.75139e-21)
(0.00281653 -7.85503e-05 6.13003e-21)
(0.00281106 -8.22212e-05 5.54733e-21)
(0.00280615 -8.6006e-05 3.75505e-21)
(0.00280178 -8.98087e-05 2.23452e-21)
(0.00279793 -9.35737e-05 -5.56697e-21)
(0.00279456 -9.72679e-05 -2.51924e-21)
(0.00279162 -0.000100869 8.46287e-21)
(0.00278907 -0.000104362 1.32924e-20)
(0.00278688 -0.000107727 5.16349e-21)
(0.00278499 -0.000110953 -2.67749e-21)
(0.00278338 -0.000114031 5.20618e-21)
(0.00278198 -0.000116962 1.02941e-20)
(0.00278077 -0.000119754 7.75609e-21)
(0.00277969 -0.000122408 5.0504e-21)
(0.0027787 -0.000124933 2.65057e-21)
(0.00277778 -0.000127354 -4.77214e-21)
(0.0027769 -0.000129689 -1.02317e-20)
(0.00277603 -0.000131956 -5.22758e-21)
(0.00277516 -0.000134171 2.59549e-21)
(0.00277428 -0.000136345 2.59549e-21)
(0.00277338 -0.000138489 0)
(0.00277247 -0.000140613 -2.38555e-21)
(0.00277152 -0.000142725 -9.90363e-21)
(0.00277055 -0.000144833 -7.51809e-21)
(0.00276956 -0.000146941 0)
(0.00276855 -0.000149053 0)
(0.00276751 -0.000151172 0)
(0.00276647 -0.000153298 0)
(0.00276542 -0.000155433 2.54674e-21)
(0.00276435 -0.000157576 -2.42399e-21)
(0.00276329 -0.000159726 -7.51822e-21)
(0.00276222 -0.000161883 4.85293e-21)
(0.00276115 -0.000164047 7.40042e-21)
(0.00276008 -0.000166216 1.24373e-22)
(0.00275901 -0.000168391 -2.42754e-21)
(0.00275795 -0.00017057 -2.55191e-21)
(0.00275689 -0.000172754 -2.55438e-21)
(0.00275583 -0.000174939 8.06019e-25)
(0.00275478 -0.000177124 1.3302e-22)
(0.00275373 -0.000179309 -7.39989e-21)
(0.00275269 -0.000181497 -9.95526e-21)
(0.00275164 -0.000183686 -5.11518e-21)
(0.0027506 -0.000185877 4.83889e-21)
(0.00274956 -0.000188066 7.53458e-21)
(0.00274853 -0.000190255 -2.41702e-21)
(0.00274749 -0.000192441 -4.97507e-21)
(0.00273333 -0.000196963 5.80114e-23)
(0.00271739 -0.000200208 -1.2659e-22)
(0.00270145 -0.000203432 -1.84602e-22)
(0.00268551 -0.000206614 1.03367e-22)
(0.00266954 -0.00020974 5.50096e-23)
(0.00265353 -0.000212818 -1.70554e-22)
(0.00263744 -0.00021587 -1.22197e-22)
(0.00262131 -0.000218921 1.22304e-22)
(0.00260521 -0.000221971 1.22304e-22)
(0.0025893 -0.000224827 9.63242e-23)
(0.00257312 -0.000227292 9.63242e-23)
(0.00255651 -0.000230291 8.23075e-23)
(0.00254015 -0.000233553 6.87712e-23)
(0.00252382 -0.000236096 1.86968e-22)
(0.00250721 -0.000238394 9.85334e-23)
(0.00249051 -0.000240647 -1.11873e-22)
(0.00247369 -0.000242785 -9.9014e-24)
(0.00245671 -0.00024478 -2.06819e-22)
(0.00243953 -0.000246632 -8.33892e-23)
(0.00242213 -0.000248363 1.67833e-22)
(0.00240451 -0.000249962 2.56685e-22)
(0.00238668 -0.000251448 2.73318e-22)
(0.00236857 -0.000252853 1.36147e-22)
(0.00235019 -0.000254177 -1.44224e-22)
(0.00233152 -0.000255447 -6.64416e-23)
(0.00231256 -0.000256694 1.48505e-22)
(0.0022933 -0.000257937 -1.59824e-22)
(0.00227377 -0.000259166 -1.45072e-22)
(0.00225394 -0.000260384 1.03632e-23)
(0.00223381 -0.000261619 7.67806e-23)
(0.00221336 -0.000262885 -1.00171e-23)
(0.00219258 -0.000264199 -3.34702e-22)
(0.00217148 -0.000265582 -2.47904e-22)
(0.00215004 -0.000267037 0)
(0.00212825 -0.000268568 1.70296e-22)
(0.00210611 -0.000270192 3.41496e-22)
(0.0020836 -0.000271927 1.712e-22)
(0.00206069 -0.000273804 1.70631e-22)
(0.00203738 -0.000275842 1.70631e-22)
(0.00201369 -0.000278054 -1.16261e-22)
(0.00198958 -0.000280456 1.7421e-22)
(0.00196506 -0.000283078 4.90133e-22)
(0.00194011 -0.000285964 3.23021e-22)
(0.00191474 -0.000289079 -2.20924e-23)
(0.00188893 -0.000292435 -1.45451e-22)
(0.00186264 -0.000296114 1.61279e-23)
(0.00183588 -0.000300153 -1.31594e-22)
(0.00180864 -0.000304576 -5.34404e-22)
(0.00178093 -0.000309396 -4.56003e-23)
(0.00175275 -0.000314647 3.75841e-22)
(0.0017241 -0.000320321 3.79751e-22)
(0.00169497 -0.000326467 9.37497e-23)
(0.00166536 -0.000333146 -1.48689e-22)
(0.00163527 -0.000340357 1.02553e-22)
(0.00160468 -0.000348121 -8.30579e-23)
(0.00157358 -0.000356486 -3.35347e-22)
(0.001542 -0.000365501 9.11229e-23)
(0.00150995 -0.000375184 2.38311e-23)
(0.00147741 -0.000385565 3.63395e-23)
(0.00144439 -0.00039668 3.55921e-22)
(0.00141091 -0.00040857 -4.37227e-22)
(0.001377 -0.000421192 1.66985e-23)
(0.00134259 -0.000434668 4.90356e-22)
(0.00130771 -0.000449065 9.0409e-23)
(0.00127245 -0.000464325 5.39785e-23)
(0.0012368 -0.000480506 -6.64664e-22)
(0.00120082 -0.000497619 6.47449e-22)
(0.00116453 -0.000515701 6.84998e-22)
(0.00112788 -0.00053483 -6.27115e-22)
(0.0010907 -0.000555082 1.68079e-22)
(0.00105293 -0.000576517 1.68079e-22)
(0.0010146 -0.000599129 -7.72809e-22)
(0.000975719 -0.000622867 -7.72809e-22)
(0.000936369 -0.000647773 5.92794e-22)
(0.000896677 -0.000673828 5.92794e-22)
(0.000856775 -0.000700944 0)
(0.00081675 -0.000729153 0)
(0.000776766 -0.000758474 3.7542e-22)
(0.000736899 -0.00078902 7.99043e-22)
(0.000667207 -0.000846677 2.34965e-21)
(0.000639213 -0.000871627 8.60168e-22)
(0.000611275 -0.000897356 -3.50936e-21)
(0.000583318 -0.000923783 -1.67138e-21)
(0.000555413 -0.000950904 -2.37709e-21)
(0.000527618 -0.000978727 9.19135e-22)
(0.000499984 -0.00100725 6.53752e-21)
(0.000472568 -0.00103647 -4.54611e-21)
(0.000445424 -0.00106639 -2.91035e-21)
(0.000418613 -0.00109697 7.63702e-21)
(0.000392198 -0.00112819 7.12253e-21)
(0.000366246 -0.00116003 1.08115e-21)
(0.00034083 -0.00119243 -4.38859e-21)
(0.000316025 -0.00122533 -3.30737e-21)
(0.000291912 -0.00125868 9.99574e-22)
(0.00026857 -0.00129236 1.44567e-21)
(0.00024608 -0.0013263 -1.40561e-21)
(0.000224517 -0.00136036 0)
(0.000203949 -0.0013944 0)
(0.000184435 -0.00142828 0)
(0.000166017 -0.00146184 3.13226e-21)
(0.000148724 -0.00149491 1.93565e-21)
(0.000132569 -0.00152733 -1.19661e-21)
(0.000117555 -0.00155892 -8.66384e-22)
(0.000103669 -0.00158953 1.00137e-21)
(9.08916e-05 -0.00161901 8.88967e-22)
(7.91937e-05 -0.00164721 -9.78783e-22)
(6.85395e-05 -0.00167399 0)
(5.8887e-05 -0.00169921 -7.88709e-22)
(5.01885e-05 -0.00172276 -6.70438e-23)
(4.23906e-05 -0.0017445 2.4433e-21)
(3.54337e-05 -0.00176433 8.06365e-23)
(2.92518e-05 -0.00178214 -1.641e-21)
(2.37717e-05 -0.00179783 1.22794e-21)
(1.8913e-05 -0.00181131 -4.37326e-22)
(1.45907e-05 -0.0018225 -1.08461e-21)
(1.07315e-05 -0.00183132 2.15768e-22)
(7.32073e-06 -0.00183764 -2.25753e-23)
(4.19126e-06 -0.00184082 2.63534e-22)
(0 -0.00184167 0)
(0 -0.0018412 0)
(0 -0.00184068 0)
(0 -0.00184012 0)
(0 -0.00183952 0)
(0 -0.00183888 0)
(0 -0.00183821 0)
(0 -0.00183749 0)
(0 -0.00183674 0)
(0 -0.00183595 0)
(0 -0.00183513 0)
(0 -0.00183427 0)
(0 -0.00183338 0)
(0 -0.00183246 0)
(0 -0.00183151 0)
(0 -0.00183053 0)
(0 -0.00182953 0)
(0 -0.0018285 0)
(0 -0.00182744 0)
(0 -0.00182636 0)
(0 -0.00182526 0)
(0 -0.00182415 0)
(0 -0.00182301 0)
(0 -0.00182185 0)
(0 -0.00182068 0)
(0 -0.00181949 0)
(0 -0.00181829 0)
(0 -0.00181708 0)
(0 -0.00181586 0)
(0 -0.00181462 0)
(0 -0.00181337 0)
(0 -0.00181212 0)
(0 -0.00181086 0)
(0 -0.00180959 0)
(0 -0.00180831 0)
(0 -0.00180703 0)
(0 -0.00180575 0)
(0 -0.00180446 0)
(0 -0.00180317 0)
(0 -0.00180188 0)
(0 -0.00180059 0)
(0 -0.0017993 0)
(0 -0.001798 0)
(0 -0.00179671 0)
(0 -0.00179542 0)
(0 -0.00179413 0)
(0 -0.00179285 0)
(0 -0.00179157 0)
(0 -0.0017903 0)
(0 -0.00178902 0)
(0 -0.00178776 0)
(0 -0.0017865 0)
(0 -0.00178525 0)
(0 -0.001784 0)
(0 -0.00178277 0)
(0 -0.00178154 0)
(0 -0.00178032 0)
(0 -0.00177911 0)
(0 -0.00177791 0)
(0 -0.00177671 0)
(0 -0.00177553 0)
(0 -0.00177436 0)
(0 -0.0017732 0)
(0 -0.00177204 0)
(0 -0.0017709 0)
(0 -0.00176977 0)
(0 -0.00176864 0)
(0 -0.00176753 0)
(0 -0.00176642 0)
(0 -0.00176532 0)
(0 -0.00176423 0)
(0 -0.00176315 0)
(0 -0.00176207 0)
(0 -0.00176101 0)
(0 -0.00175996 0)
(0 -0.00175892 0)
(0 -0.00175789 0)
(0 -0.00175689 0)
(0 -0.00175588 0)
(0 -0.00175277 0)
(0 -0.0017505 0)
(0 -0.0017478 0)
(0 -0.00174453 0)
(0 -0.00174058 0)
(0 -0.00173578 0)
(0 -0.00173 0)
(0 -0.00172309 0)
(0 -0.00171492 0)
(0 -0.00170536 0)
(0 -0.00169429 0)
(0 -0.00168162 0)
(0 -0.00166726 0)
(0 -0.00165113 0)
(0 -0.00163319 0)
(0 -0.00161338 0)
(0 -0.00159167 0)
(0 -0.00156803 0)
(0 -0.00154244 0)
(0 -0.00151488 0)
(0 -0.00148533 0)
(0 -0.00145379 0)
(0 -0.00142023 0)
(0 -0.00138467 0)
(0 -0.00134709 0)
(0 -0.0013075 0)
(0 -0.00126592 0)
(0 -0.00122237 0)
(0 -0.00117689 0)
(0 -0.00112952 0)
(0 -0.00108034 0)
(0 -0.00102941 0)
(0 -0.000976831 0)
(0 -0.000922707 0)
(0 -0.000867142 0)
(0 -0.000810226 0)
(0 -0.000751964 0)
(0 -0.000692349 0)
(0 -0.000631343 0)
(0.00160006 -0.00041444 0)
(0.00162055 -0.000387831 0)
(0.00164079 -0.000362682 0)
(0.00166096 -0.000338988 0)
(0.00168087 -0.000316689 0)
(0.00170048 -0.000295721 0)
(0.00171979 -0.000276014 0)
(0.00173884 -0.000257526 0)
(0.00175763 -0.000240224 0)
(0.00177617 -0.000224066 0)
(0.00179448 -0.000208994 0)
(0.00181256 -0.000194974 0)
(0.00183043 -0.000181971 0)
(0.00184812 -0.000169929 0)
(0.00186562 -0.000158808 0)
(0.00188292 -0.000148555 0)
(0.00190006 -0.000139118 0)
(0.00191704 -0.000130464 0)
(0.00193388 -0.000122565 0)
(0.00195058 -0.00011539 0)
(0.00196715 -0.000108876 0)
(0.00198361 -0.000102986 0)
(0.00199997 -9.77057e-05 0)
(0.00201621 -9.29842e-05 0)
(0.00203236 -8.87783e-05 0)
(0.00204843 -8.50672e-05 0)
(0.00206443 -8.18321e-05 0)
(0.00208034 -7.90303e-05 0)
(0.00209619 -7.66284e-05 0)
(0.00211196 -7.46088e-05 0)
(0.00212769 -7.2918e-05 0)
(0.00214338 -7.15346e-05 0)
(0.00215903 -7.04581e-05 0)
(0.00217463 -6.96585e-05 0)
(0.00219021 -6.9109e-05 0)
(0.00220573 -6.87846e-05 0)
(0.00222125 -6.86546e-05 0)
(0.00223676 -6.87191e-05 0)
(0.00225224 -6.89521e-05 0)
(0.0022677 -6.93168e-05 0)
(0.00228314 -6.98061e-05 0)
(0.00229857 -7.04019e-05 0)
(0.00231398 -7.10735e-05 0)
(0.00232937 -7.18014e-05 0)
(0.00234472 -7.25706e-05 0)
(0.00236003 -7.33712e-05 0)
(0.00237525 -7.42081e-05 0)
(0.00239033 -7.51258e-05 0)
(0.00240517 -7.62558e-05 0)
(0.0024197 -7.78519e-05 0)
(0.00243389 -8.01688e-05 0)
(0.00244777 -8.29583e-05 0)
(0.002463 -8.42806e-05 0)
(0.00248252 -7.54644e-05 0)
(0.00248656 -4.64861e-05 0)
(0.00251135 -3.17948e-05 0)
(0.00255727 -5.07134e-05 0)
(0.00257741 -6.67588e-05 0)
(0.00258945 -7.24133e-05 0)
(0.00259958 -7.45453e-05 0)
(0.00261013 -7.56908e-05 0)
(0.00262152 -7.6505e-05 0)
(0.00263378 -7.70278e-05 0)
(0.00264671 -7.73919e-05 0)
(0.00266011 -7.75416e-05 0)
(0.00267383 -7.73225e-05 0)
(0.00268783 -7.67268e-05 0)
(0.00270209 -7.57314e-05 0)
(0.00271657 -7.42987e-05 0)
(0.00273125 -7.23832e-05 0)
(0.00274608 -6.99276e-05 0)
(0.00276097 -6.68726e-05 0)
(0.00277578 -6.32136e-05 0)
(0.00279031 -5.90757e-05 0)
(0.00280446 -5.47505e-05 0)
(0.00281836 -5.05096e-05 0)
(0.00283232 -4.63854e-05 0)
(0.0028466 -4.2056e-05 0)
(0.00286128 -3.70387e-05 0)
(0.0015586 -0.000449636 0)
(0.00154606 -0.000454639 0)
(0.00153376 -0.000459393 0)
(0.00152157 -0.000464056 0)
(0.00150942 -0.000468685 0)
(0.00149733 -0.000473305 0)
(0.00148529 -0.000477924 0)
(0.00147332 -0.000482544 0)
(0.0014614 -0.000487164 0)
(0.00144954 -0.000491785 0)
(0.00143773 -0.000496407 0)
(0.00142598 -0.000501028 0)
(0.00141428 -0.000505651 0)
(0.00140263 -0.000510275 0)
(0.00139102 -0.000514901 0)
(0.00137946 -0.00051953 0)
(0.00136795 -0.000524161 0)
(0.00135649 -0.000528794 0)
(0.00134506 -0.00053343 0)
(0.00133369 -0.000538068 0)
(0.00132235 -0.000542708 0)
(0.00131106 -0.000547349 0)
(0.0012998 -0.000551992 0)
(0.00128859 -0.000556635 0)
(0.00127743 -0.000561279 0)
(0.0012663 -0.000565921 0)
(0.00125523 -0.000570564 0)
(0.00124419 -0.000575206 0)
(0.00123319 -0.00057985 0)
(0.00122222 -0.000584495 0)
(0.00121128 -0.000589142 0)
(0.00120035 -0.000593833 0)
(0.00118942 -0.000598553 0)
(0.00117855 -0.000603228 0)
(0.00116773 -0.000607879 0)
(0.00115697 -0.000612515 0)
(0.00114622 -0.000617173 0)
(0.00113549 -0.000621835 0)
(0.00112478 -0.0006265 0)
(0.0011141 -0.000631168 0)
(0.00110344 -0.000635838 0)
(0.0010928 -0.00064051 0)
(0.00108219 -0.000645184 0)
(0.0010716 -0.000649859 0)
(0.00106104 -0.000654536 0)
(0.0010505 -0.000659215 0)
(0.00103998 -0.000663895 0)
(0.00102948 -0.000668578 0)
(0.001019 -0.000673263 0)
(0.00100853 -0.000677952 0)
(0.000998073 -0.000682647 0)
(0.000987621 -0.000687348 0)
(0.000977177 -0.000692055 0)
(0.000966742 -0.000696748 0)
(0.00095632 -0.000701433 0)
(0.000945907 -0.000706146 0)
(0.000935496 -0.000710866 0)
(0.000925089 -0.000715594 0)
(0.000914687 -0.00072033 0)
(0.000904286 -0.000725074 0)
(0.000893887 -0.000729827 0)
(0.000883488 -0.00073459 0)
(0.000873087 -0.000739363 0)
(0.000862681 -0.000744148 0)
(0.000852265 -0.000748949 0)
(0.000841829 -0.00075377 0)
(0.000831366 -0.000758631 0)
(0.000820873 -0.000763522 0)
(0.00081036 -0.000768416 0)
(0.000799827 -0.000773336 0)
(0.000789267 -0.000778282 0)
(0.000778678 -0.000783258 0)
(0.00076806 -0.000788263 0)
(0.000757414 -0.0007933 0)
(0.000746713 -0.000798364 0)
(0.000735967 -0.000803456 0)
(0.000725198 -0.000808585 0)
(0.000714416 -0.000813757 0)
(0.000703733 -0.000819054 0)
(8.55248e-05 -0.000582763 -2.8219e-21)
(0.00018089 -0.000593171 -2.10566e-21)
(0.000277971 -0.000605666 1.43634e-20)
(0.000371357 -0.000625038 6.09238e-22)
(0.000462531 -0.000649289 2.38107e-20)
(0.000550351 -0.000678359 1.60099e-21)
(0.000634912 -0.000711284 -4.91438e-20)
(0.000716016 -0.000747393 -1.22071e-20)
(0.000793715 -0.000785908 -1.16901e-20)
(0.000868176 -0.000826066 1.07885e-20)
(0.000939477 -0.000867214 2.30245e-20)
(0.00100773 -0.000908672 -2.15206e-20)
(0.00107285 -0.000949778 -6.96135e-22)
(0.00113457 -0.000989701 9.11152e-22)
(0.00119244 -0.00102732 -9.17965e-21)
(0.00124591 -0.00106112 -6.41078e-21)
(0.0012944 -0.00108933 -1.66654e-20)
(0.00133757 -0.0011102 -1.57515e-20)
(0.00137535 -0.00112232 -5.19864e-21)
(0.00140758 -0.00112449 3.61263e-22)
(0.00143442 -0.00111603 3.76743e-22)
(0.00145749 -0.00109876 3.09467e-21)
(0.00147981 -0.00107766 -1.13998e-21)
(0.00150284 -0.00105631 -7.4034e-21)
(0.00152635 -0.00103513 -1.09763e-21)
(0.00155022 -0.00101411 3.23572e-21)
(0.00157433 -0.000993173 -3.28288e-21)
(0.00159858 -0.000972299 -1.18826e-21)
(0.00162289 -0.000951467 3.25564e-21)
(0.00164717 -0.000930671 -1.33328e-21)
(0.00167137 -0.000909908 -4.59425e-21)
(0.00169543 -0.000889184 -7.14608e-24)
(0.0017193 -0.000868502 3.25382e-21)
(0.00174293 -0.000847872 -6.19602e-21)
(0.0017663 -0.000827301 1.93649e-22)
(0.00178937 -0.000806797 3.2245e-21)
(0.00181211 -0.00078637 -1.57976e-21)
(0.0018345 -0.000766028 6.29192e-21)
(0.00185651 -0.000745779 7.98127e-21)
(0.00189934 -0.000705585 -1.34668e-21)
(0.00192012 -0.000685651 -1.69869e-21)
(0.00194047 -0.00066583 -9.11473e-21)
(0.00196037 -0.000646124 -4.6232e-21)
(0.0019798 -0.000626536 7.26366e-21)
(0.00199876 -0.000607066 1.80291e-21)
(0.00201724 -0.000587715 4.29368e-21)
(0.00203522 -0.000568484 1.34825e-22)
(0.00205269 -0.000549374 -6.12334e-21)
(0.00206965 -0.000530383 6.6158e-21)
(0.00208608 -0.000511514 7.66914e-21)
(0.00210199 -0.000492764 -4.81096e-22)
(0.00211736 -0.000474135 -2.23787e-21)
(0.00213218 -0.000455623 -3.81511e-21)
(0.00214646 -0.000437229 -9.38213e-23)
(0.00216019 -0.00041895 9.73704e-23)
(0.00217335 -0.000400785 1.72858e-21)
(0.00218596 -0.000382729 1.04528e-20)
(0.002198 -0.000364781 -4.83083e-21)
(0.00220948 -0.000346937 -6.79832e-21)
(0.00222039 -0.000329193 4.60877e-21)
(0.00223073 -0.000311544 3.06465e-21)
(0.0022405 -0.000293987 2.9177e-22)
(0.0022497 -0.000276515 2.97346e-21)
(0.00225832 -0.000259124 5.44158e-22)
(0.00226637 -0.000241807 -5.64743e-21)
(0.00227384 -0.000224558 -1.92117e-21)
(0.00228074 -0.000207371 3.63738e-21)
(0.00228706 -0.000190238 3.63564e-21)
(0.00229281 -0.000173152 -3.30595e-21)
(0.00229797 -0.000156104 -3.306e-21)
(0.00230255 -0.000139086 -1.70711e-21)
(0.00230655 -0.000122089 5.88786e-22)
(0.00230995 -0.0001051 1.75941e-21)
(0.00231275 -8.8109e-05 -2.93077e-21)
(0.00231494 -7.10984e-05 -1.18716e-21)
(0.00231651 -5.40412e-05 2.56267e-22)
(0.00231738 -3.68922e-05 -4.25568e-22)
(0.0023174 -1.96549e-05 1.425e-21)
(0.0018685 -0.000709571 0)
(0.00185565 -0.000697322 0)
(0.00184326 -0.000685574 0)
(0.00183131 -0.000674293 0)
(0.00181977 -0.000663452 0)
(0.00180863 -0.000653025 0)
(0.00179786 -0.000642989 0)
(0.00178745 -0.000633323 0)
(0.00177738 -0.000624008 0)
(0.00176762 -0.000615027 0)
(0.00175818 -0.000606363 0)
(0.00174902 -0.000597999 0)
(0.00174014 -0.000589921 0)
(0.00173153 -0.000582114 0)
(0.00172317 -0.000574566 0)
(0.00171506 -0.000567264 0)
(0.00170718 -0.000560196 0)
(0.00169952 -0.00055335 0)
(0.00169209 -0.000546715 0)
(0.00168486 -0.000540282 0)
(0.00167783 -0.000534041 0)
(0.001671 -0.000527982 0)
(0.00166435 -0.000522096 0)
(0.00165789 -0.000516377 0)
(0.0016516 -0.000510815 0)
(0.00164549 -0.000505404 0)
(0.00163953 -0.000500136 0)
(0.00163374 -0.000495007 0)
(0.00162811 -0.000490009 0)
(0.00162262 -0.000485139 0)
(0.00161728 -0.000480392 0)
(0.00161208 -0.000475766 0)
(0.00160703 -0.000471261 0)
(0.00160212 -0.00046688 0)
(0.00159735 -0.000462633 0)
(0.00159274 -0.000458534 0)
(0.0015883 -0.000454607 0)
(0.00158401 -0.000450874 0)
(0.00157983 -0.000447351 0)
(0.0018685 -0.000709571 0)
(0.00185565 -0.000697322 0)
(0.00184326 -0.000685574 0)
(0.00183131 -0.000674293 0)
(0.00181977 -0.000663452 0)
(0.00180863 -0.000653025 0)
(0.00179786 -0.000642989 0)
(0.00178745 -0.000633323 0)
(0.00177738 -0.000624008 0)
(0.00176762 -0.000615027 0)
(0.00175818 -0.000606363 0)
(0.00174902 -0.000597999 0)
(0.00174014 -0.000589921 0)
(0.00173153 -0.000582114 0)
(0.00172317 -0.000574566 0)
(0.00171506 -0.000567264 0)
(0.00170718 -0.000560196 0)
(0.00169952 -0.00055335 0)
(0.00169209 -0.000546715 0)
(0.00168486 -0.000540282 0)
(0.00167783 -0.000534041 0)
(0.001671 -0.000527982 0)
(0.00166435 -0.000522096 0)
(0.00165789 -0.000516377 0)
(0.0016516 -0.000510815 0)
(0.00164549 -0.000505404 0)
(0.00163953 -0.000500136 0)
(0.00163374 -0.000495007 0)
(0.00162811 -0.000490009 0)
(0.00162262 -0.000485139 0)
(0.00161728 -0.000480392 0)
(0.00161208 -0.000475766 0)
(0.00160703 -0.000471261 0)
(0.00160212 -0.00046688 0)
(0.00159735 -0.000462633 0)
(0.00159274 -0.000458534 0)
(0.0015883 -0.000454607 0)
(0.00158401 -0.000450874 0)
(0.00157983 -0.000447351 0)
(0.00153924 -0.000468851 0)
(0.00150524 -0.000493556 0)
(0.00147118 -0.000521213 0)
(0.00143599 -0.000549329 0)
(0.00140023 -0.000577853 0)
(0.00136431 -0.00060703 0)
(0.00132833 -0.000636974 0)
(0.00129223 -0.000667627 0)
(0.00125601 -0.000698923 0)
(0.00121968 -0.000730841 0)
(0.00118326 -0.00076337 0)
(0.00114677 -0.000796487 0)
(0.0011102 -0.000830156 0)
(0.00107354 -0.000864327 0)
(0.00103681 -0.000898923 0)
(0.000999997 -0.000933829 0)
(0.000963128 -0.000968901 0)
(0.000926232 -0.00100401 0)
(0.000889209 -0.00103923 0)
(0.000851319 -0.00107522 0)
(0.000811539 -0.00111316 0)
(0.000769082 -0.00115393 0)
(0.000723861 -0.00119769 0)
(0.000676518 -0.00124379 0)
(0.000627878 -0.00129132 0)
(0.000578652 -0.00133945 0)
(0.000529406 -0.00138741 0)
(0.000480618 -0.00143452 0)
(0.000432731 -0.00148008 0)
(0.000386128 -0.00152343 0)
(0.00034109 -0.001564 0)
(0.000297815 -0.00160132 0)
(0.000256422 -0.00163497 0)
(0.000216853 -0.00166472 0)
(0.000178839 -0.00169042 0)
(0.000141918 -0.00171211 0)
(0.000105676 -0.00172976 0)
(6.99171e-05 -0.00174305 0)
(3.45957e-05 -0.0017516 0)
(0 -0.00175277 0)
(0 -0.0017505 0)
(0 -0.0017478 0)
(0 -0.00174453 0)
(0 -0.00174058 0)
(0 -0.00173578 0)
(0 -0.00173 0)
(0 -0.00172309 0)
(0 -0.00171492 0)
(0 -0.00170536 0)
(0 -0.00169429 0)
(0 -0.00168162 0)
(0 -0.00166726 0)
(0 -0.00165113 0)
(0 -0.00163319 0)
(0 -0.00161338 0)
(0 -0.00159167 0)
(0 -0.00156803 0)
(0 -0.00154244 0)
(0 -0.00151488 0)
(0 -0.00148533 0)
(0 -0.00145379 0)
(0 -0.00142023 0)
(0 -0.00138467 0)
(0 -0.00134709 0)
(0 -0.0013075 0)
(0 -0.00126592 0)
(0 -0.00122237 0)
(0 -0.00117689 0)
(0 -0.00112952 0)
(0 -0.00108034 0)
(0 -0.00102941 0)
(0 -0.000976831 0)
(0 -0.000922707 0)
(0 -0.000867142 0)
(0 -0.000810226 0)
(0 -0.000751964 0)
(0 -0.000692349 0)
(0 -0.000631343 0)
(8.55248e-05 -0.000582763 -2.8219e-21)
(0.00018089 -0.000593171 -2.10566e-21)
(0.000277971 -0.000605666 1.43634e-20)
(0.000371357 -0.000625038 6.09238e-22)
(0.000462531 -0.000649289 2.38107e-20)
(0.000550351 -0.000678359 1.60099e-21)
(0.000634912 -0.000711284 -4.91438e-20)
(0.000716016 -0.000747393 -1.22071e-20)
(0.000793715 -0.000785908 -1.16901e-20)
(0.000868176 -0.000826066 1.07885e-20)
(0.000939477 -0.000867214 2.30245e-20)
(0.00100773 -0.000908672 -2.15206e-20)
(0.00107285 -0.000949778 -6.96135e-22)
(0.00113457 -0.000989701 9.11152e-22)
(0.00119244 -0.00102732 -9.17965e-21)
(0.00124591 -0.00106112 -6.41078e-21)
(0.0012944 -0.00108933 -1.66654e-20)
(0.00133757 -0.0011102 -1.57515e-20)
(0.00137535 -0.00112232 -5.19864e-21)
(0.00140758 -0.00112449 3.61263e-22)
(0.00143442 -0.00111603 3.76743e-22)
(0.00145749 -0.00109876 3.09467e-21)
(0.00147981 -0.00107766 -1.13998e-21)
(0.00150284 -0.00105631 -7.4034e-21)
(0.00152635 -0.00103513 -1.09763e-21)
(0.00155022 -0.00101411 3.23572e-21)
(0.00157433 -0.000993173 -3.28288e-21)
(0.00159858 -0.000972299 -1.18826e-21)
(0.00162289 -0.000951467 3.25564e-21)
(0.00164717 -0.000930671 -1.33328e-21)
(0.00167137 -0.000909908 -4.59425e-21)
(0.00169543 -0.000889184 -7.14608e-24)
(0.0017193 -0.000868502 3.25382e-21)
(0.00174293 -0.000847872 -6.19602e-21)
(0.0017663 -0.000827301 1.93649e-22)
(0.00178937 -0.000806797 3.2245e-21)
(0.00181211 -0.00078637 -1.57976e-21)
(0.0018345 -0.000766028 6.29192e-21)
(0.00185651 -0.000745779 7.98127e-21)
(0.00189934 -0.000705585 -1.34668e-21)
(0.00192012 -0.000685651 -1.69869e-21)
(0.00194047 -0.00066583 -9.11473e-21)
(0.00196037 -0.000646124 -4.6232e-21)
(0.0019798 -0.000626536 7.26366e-21)
(0.00199876 -0.000607066 1.80291e-21)
(0.00201724 -0.000587715 4.29368e-21)
(0.00203522 -0.000568484 1.34825e-22)
(0.00205269 -0.000549374 -6.12334e-21)
(0.00206965 -0.000530383 6.6158e-21)
(0.00208608 -0.000511514 7.66914e-21)
(0.00210199 -0.000492764 -4.81096e-22)
(0.00211736 -0.000474135 -2.23787e-21)