/*--------------------------------*- C++ -*----------------------------------*\
| =========                 |                                                 |
| \\      /  F ield         | OpenFOAM: The Open Source CFD Toolbox           |
|  \\    /   O peration     | Version:  v2012                                 |
|   \\  /    A nd           | Website:  www.openfoam.com                      |
|    \\/     M anipulation  |                                                 |
\*---------------------------------------------------------------------------*/
FoamFile
{
    version     2.0;
    format      ascii;
    class       volScalarField;
    location    "15";
    object      sigmaHyd;
}
// * * * * * * * * * * * * * * * * * * * * * * * * * * * * * * * * * * * * * //

dimensions      [1 -1 -2 0 0 0 0];


internalField   nonuniform List<scalar> 
32000
(
2.04577e+07
2.12037e+07
2.47103e+07
2.60467e+07
2.9597e+07
3.10703e+07
3.46087e+07
3.61783e+07
3.97296e+07
4.13267e+07
4.48649e+07
4.64716e+07
5.00013e+07
5.16052e+07
5.51148e+07
5.66998e+07
6.01691e+07
6.17233e+07
6.51317e+07
6.6646e+07
6.99804e+07
7.14485e+07
7.46992e+07
7.61196e+07
7.92804e+07
8.06547e+07
8.37152e+07
8.50413e+07
8.8e+07
8.92777e+07
9.21353e+07
9.33637e+07
9.61112e+07
9.72899e+07
9.99253e+07
1.01052e+08
1.03577e+08
1.04648e+08
1.0705e+08
1.08062e+08
1.10336e+08
1.11284e+08
1.13431e+08
1.14307e+08
1.16307e+08
1.17102e+08
1.18952e+08
1.19655e+08
1.21348e+08
1.2195e+08
1.23467e+08
1.23955e+08
1.25296e+08
1.25658e+08
1.26804e+08
1.27028e+08
1.27977e+08
1.28053e+08
1.288e+08
1.28726e+08
1.29261e+08
1.29037e+08
1.29373e+08
1.29002e+08
1.29129e+08
1.28616e+08
1.28546e+08
1.27904e+08
1.27635e+08
1.26878e+08
1.26418e+08
1.2556e+08
1.24906e+08
1.23943e+08
1.22988e+08
1.21821e+08
1.20256e+08
1.1886e+08
1.16577e+08
1.15041e+08
1.95537e+07
2.06056e+07
2.40211e+07
2.5924e+07
2.93414e+07
3.12559e+07
3.45407e+07
3.64901e+07
3.97147e+07
4.16718e+07
4.48571e+07
4.68084e+07
4.99733e+07
5.19076e+07
5.50487e+07
5.69526e+07
6.00575e+07
6.19194e+07
6.49732e+07
6.67856e+07
6.97766e+07
7.15364e+07
7.44579e+07
7.6163e+07
7.90109e+07
8.06586e+07
8.34233e+07
8.50134e+07
8.76895e+07
8.92236e+07
9.18109e+07
9.32865e+07
9.57799e+07
9.71938e+07
9.95847e+07
1.00934e+08
1.03223e+08
1.045e+08
1.06684e+08
1.07879e+08
1.09949e+08
1.11052e+08
1.13008e+08
1.14001e+08
1.15838e+08
1.16705e+08
1.18414e+08
1.19137e+08
1.20725e+08
1.21278e+08
1.22733e+08
1.231e+08
1.24425e+08
1.24584e+08
1.25779e+08
1.25715e+08
1.26776e+08
1.26483e+08
1.27422e+08
1.26898e+08
1.27707e+08
1.26959e+08
1.27651e+08
1.26692e+08
1.27261e+08
1.26114e+08
1.26564e+08
1.25258e+08
1.25582e+08
1.24148e+08
1.24343e+08
1.22819e+08
1.22873e+08
1.21284e+08
1.21088e+08
1.19399e+08
1.18677e+08
1.16854e+08
1.1536e+08
1.13372e+08
1.96381e+07
2.07777e+07
2.42325e+07
2.62451e+07
2.97733e+07
3.17744e+07
3.51346e+07
3.71265e+07
4.03895e+07
4.23714e+07
4.5564e+07
4.75377e+07
5.06808e+07
5.26406e+07
5.57359e+07
5.76694e+07
6.07107e+07
6.26069e+07
6.55884e+07
6.74406e+07
7.03538e+07
7.21562e+07
7.49952e+07
7.67459e+07
7.95093e+07
8.1207e+07
8.38926e+07
8.55352e+07
8.81345e+07
8.97176e+07
9.22265e+07
9.3747e+07
9.61665e+07
9.76171e+07
9.99408e+07
1.01309e+08
1.03531e+08
1.04806e+08
1.06929e+08
1.08094e+08
1.10111e+08
1.11143e+08
1.13049e+08
1.13928e+08
1.15728e+08
1.16427e+08
1.18114e+08
1.18606e+08
1.2018e+08
1.20445e+08
1.21911e+08
1.21926e+08
1.2328e+08
1.23028e+08
1.24282e+08
1.23757e+08
1.24908e+08
1.24117e+08
1.25176e+08
1.2413e+08
1.25098e+08
1.23825e+08
1.24709e+08
1.23241e+08
1.24041e+08
1.22416e+08
1.2313e+08
1.21386e+08
1.22008e+08
1.2018e+08
1.20709e+08
1.18831e+08
1.19262e+08
1.17351e+08
1.17618e+08
1.15661e+08
1.15542e+08
1.13462e+08
1.12652e+08
1.10558e+08
1.97109e+07
2.09224e+07
2.44944e+07
2.65963e+07
3.02367e+07
3.22767e+07
3.57075e+07
3.7708e+07
4.1023e+07
4.29956e+07
4.62335e+07
4.81853e+07
5.13661e+07
5.32941e+07
5.64158e+07
5.83112e+07
6.13681e+07
6.32233e+07
6.62127e+07
6.80212e+07
7.09425e+07
7.2702e+07
7.55509e+07
7.72572e+07
8.00284e+07
8.16767e+07
8.43688e+07
8.59555e+07
8.85693e+07
9.00891e+07
9.26187e+07
9.40575e+07
9.6497e+07
9.7839e+07
1.00189e+08
1.01423e+08
1.03681e+08
1.04785e+08
1.06943e+08
1.07884e+08
1.09943e+08
1.10702e+08
1.12663e+08
1.13208e+08
1.15066e+08
1.15368e+08
1.17127e+08
1.17164e+08
1.18822e+08
1.18571e+08
1.20133e+08
1.19583e+08
1.21056e+08
1.20213e+08
1.21597e+08
1.20474e+08
1.2178e+08
1.20406e+08
1.21634e+08
1.20044e+08
1.21201e+08
1.19443e+08
1.20527e+08
1.18642e+08
1.19653e+08
1.17685e+08
1.18618e+08
1.16598e+08
1.17444e+08
1.15398e+08
1.16158e+08
1.14104e+08
1.14777e+08
1.12731e+08
1.1329e+08
1.11239e+08
1.11524e+08
1.09433e+08
1.09224e+08
1.07176e+08
2.00151e+07
2.13157e+07
2.4896e+07
2.70771e+07
3.0761e+07
3.28525e+07
3.63088e+07
3.83357e+07
4.16626e+07
4.36454e+07
4.68882e+07
4.88355e+07
5.20182e+07
5.39305e+07
5.70545e+07
5.89269e+07
6.19854e+07
6.3812e+07
6.67991e+07
6.85752e+07
7.14884e+07
7.32082e+07
7.6049e+07
7.77096e+07
8.04784e+07
8.20756e+07
8.4769e+07
8.62899e+07
8.89024e+07
9.03273e+07
9.28572e+07
9.4174e+07
9.66217e+07
9.78137e+07
1.00173e+08
1.01206e+08
1.03473e+08
1.04315e+08
1.06492e+08
1.07121e+08
1.09204e+08
1.09583e+08
1.11571e+08
1.11671e+08
1.13567e+08
1.13369e+08
1.15173e+08
1.14656e+08
1.16372e+08
1.15541e+08
1.17172e+08
1.16039e+08
1.17592e+08
1.16183e+08
1.17662e+08
1.16021e+08
1.17432e+08
1.15605e+08
1.16948e+08
1.1499e+08
1.16271e+08
1.14228e+08
1.1544e+08
1.1335e+08
1.14494e+08
1.12389e+08
1.13455e+08
1.11349e+08
1.12328e+08
1.10234e+08
1.11126e+08
1.09052e+08
1.09858e+08
1.07814e+08
1.08533e+08
1.06516e+08
1.0707e+08
1.05083e+08
1.05287e+08
1.03229e+08
2.05465e+07
2.19171e+07
2.54659e+07
2.77214e+07
3.14079e+07
3.35519e+07
3.70001e+07
3.90564e+07
4.23683e+07
4.43658e+07
4.75906e+07
4.95446e+07
5.27048e+07
5.46164e+07
5.77133e+07
5.95751e+07
6.26051e+07
6.44114e+07
6.73734e+07
6.9121e+07
7.20136e+07
7.36993e+07
7.65204e+07
7.81336e+07
8.08803e+07
8.24027e+07
8.50733e+07
8.64862e+07
8.90807e+07
9.03703e+07
9.28878e+07
9.40271e+07
9.6462e+07
9.74109e+07
9.97599e+07
1.00488e+08
1.02752e+08
1.03233e+08
1.0541e+08
1.05605e+08
1.07693e+08
1.07575e+08
1.09577e+08
1.09132e+08
1.11046e+08
1.10263e+08
1.12096e+08
1.1099e+08
1.12746e+08
1.11345e+08
1.13028e+08
1.11373e+08
1.12987e+08
1.11136e+08
1.12688e+08
1.107e+08
1.12186e+08
1.1011e+08
1.11532e+08
1.09419e+08
1.10776e+08
1.08657e+08
1.09942e+08
1.07838e+08
1.0905e+08
1.06972e+08
1.08102e+08
1.06052e+08
1.07093e+08
1.05073e+08
1.06025e+08
1.04035e+08
1.04899e+08
1.02945e+08
1.03733e+08
1.01827e+08
1.02503e+08
1.00595e+08
1.01029e+08
9.91697e+07
2.13038e+07
2.27546e+07
2.62225e+07
2.85548e+07
3.21986e+07
3.44022e+07
3.78046e+07
3.98985e+07
4.31639e+07
4.51821e+07
4.83649e+07
5.03233e+07
5.34472e+07
5.53497e+07
5.84149e+07
6.02594e+07
6.32602e+07
6.50422e+07
6.79738e+07
6.96843e+07
7.25447e+07
7.41693e+07
7.69575e+07
7.84773e+07
8.1192e+07
8.25872e+07
8.52282e+07
8.64777e+07
8.90445e+07
9.01137e+07
9.26024e+07
9.345e+07
9.58571e+07
9.64502e+07
9.87766e+07
9.90864e+07
1.01332e+08
1.01322e+08
1.03483e+08
1.03128e+08
1.05208e+08
1.04501e+08
1.06503e+08
1.05449e+08
1.07376e+08
1.06005e+08
1.07862e+08
1.06219e+08
1.0801e+08
1.06153e+08
1.0788e+08
1.05877e+08
1.07545e+08
1.05461e+08
1.07065e+08
1.04942e+08
1.06479e+08
1.04361e+08
1.05835e+08
1.03747e+08
1.0515e+08
1.03097e+08
1.04424e+08
1.0241e+08
1.0366e+08
1.01684e+08
1.02852e+08
1.00907e+08
1.01988e+08
1.00073e+08
1.01065e+08
9.91874e+07
1.00097e+08
9.82608e+07
9.90937e+07
9.72918e+07
9.80315e+07
9.62776e+07
9.68505e+07
9.50937e+07
2.23089e+07
2.38065e+07
2.71787e+07
2.95618e+07
3.3151e+07
3.53942e+07
3.87415e+07
4.08561e+07
4.40657e+07
4.60904e+07
4.92208e+07
5.11751e+07
5.42504e+07
5.61385e+07
5.91593e+07
6.09746e+07
6.39348e+07
6.56651e+07
6.85597e+07
7.01885e+07
7.30142e+07
7.4521e+07
7.72754e+07
7.86363e+07
8.13175e+07
8.25033e+07
8.51103e+07
8.60829e+07
8.86143e+07
8.93332e+07
9.17863e+07
9.2215e+07
9.45892e+07
9.4696e+07
9.69926e+07
9.67466e+07
9.89648e+07
9.83473e+07
1.00489e+08
9.95063e+07
1.01578e+08
1.00253e+08
1.02257e+08
1.00638e+08
1.0258e+08
1.00731e+08
1.02613e+08
1.00605e+08
1.02429e+08
1.00335e+08
1.02103e+08
9.9983e+07
1.0169e+08
9.9578e+07
1.01219e+08
9.91415e+07
1.00717e+08
9.86883e+07
1.00197e+08
9.82153e+07
9.9651e+07
9.77083e+07
9.90682e+07
9.71602e+07
9.84446e+07
9.65687e+07
9.77756e+07
9.59294e+07
9.70551e+07
9.52399e+07
9.6282e+07
9.45023e+07
9.5467e+07
9.37293e+07
9.46232e+07
9.29341e+07
9.37448e+07
9.2077e+07
9.27493e+07
9.11125e+07
2.35106e+07
2.50662e+07
2.83117e+07
3.07481e+07
3.42438e+07
3.65255e+07
3.97841e+07
4.19169e+07
4.5044e+07
4.70696e+07
5.01277e+07
5.20646e+07
5.50787e+07
5.69273e+07
5.98966e+07
6.16444e+07
6.45602e+07
6.61869e+07
6.90416e+07
7.05226e+07
7.33111e+07
7.46176e+07
7.7336e+07
7.84328e+07
8.10773e+07
8.19246e+07
8.44929e+07
8.50517e+07
8.75425e+07
8.7775e+07
9.01874e+07
9.00602e+07
9.23954e+07
9.18858e+07
9.41469e+07
9.32492e+07
9.54392e+07
9.41736e+07
9.62995e+07
9.47136e+07
9.67814e+07
9.4944e+07
9.69583e+07
9.49491e+07
9.69113e+07
9.481e+07
9.67195e+07
9.45948e+07
9.64499e+07
9.43481e+07
9.61442e+07
9.40866e+07
9.58184e+07
9.38128e+07
9.54783e+07
9.35259e+07
9.51267e+07
9.32214e+07
9.47541e+07
9.28837e+07
9.43451e+07
9.25024e+07
9.38921e+07
9.2075e+07
9.33936e+07
9.16039e+07
9.28525e+07
9.10921e+07
9.22675e+07
9.0536e+07
9.16365e+07
8.9939e+07
9.09686e+07
8.9314e+07
9.02805e+07
8.86644e+07
8.95598e+07
8.79835e+07
8.87574e+07
8.71793e+07
2.49421e+07
2.65368e+07
2.96391e+07
3.21e+07
3.54844e+07
3.77798e+07
4.09345e+07
4.30633e+07
4.60927e+07
4.80947e+07
5.10645e+07
5.29531e+07
5.58893e+07
5.76564e+07
6.05577e+07
6.21794e+07
6.50354e+07
6.64824e+07
6.92836e+07
7.05218e+07
7.32604e+07
7.42504e+07
7.69204e+07
7.76206e+07
8.02172e+07
8.05882e+07
8.31083e+07
8.31141e+07
8.55567e+07
8.5168e+07
8.75338e+07
8.67369e+07
8.90305e+07
8.78372e+07
9.00665e+07
8.85205e+07
9.06937e+07
8.88682e+07
9.09934e+07
8.89779e+07
9.10579e+07
8.89438e+07
9.09787e+07
8.88449e+07
9.08315e+07
8.87314e+07
9.06648e+07
8.86251e+07
9.05004e+07
8.85253e+07
9.03374e+07
8.84189e+07
9.01653e+07
8.82947e+07
8.99769e+07
8.81458e+07
8.97633e+07
8.79602e+07
8.9511e+07
8.77299e+07
8.92135e+07
8.74528e+07
8.88698e+07
8.71302e+07
8.84823e+07
8.6768e+07
8.80575e+07
8.63715e+07
8.75959e+07
8.59398e+07
8.70976e+07
8.5471e+07
8.65637e+07
8.49678e+07
8.60062e+07
8.44575e+07
8.54386e+07
8.39162e+07
8.4787e+07
8.32666e+07
2.65645e+07
2.81891e+07
3.11334e+07
3.36071e+07
3.68544e+07
3.91486e+07
4.21736e+07
4.42774e+07
4.71833e+07
4.91318e+07
5.19863e+07
5.37821e+07
5.66106e+07
5.82311e+07
6.10332e+07
6.24454e+07
6.52117e+07
6.63753e+07
6.90954e+07
6.99667e+07
7.26309e+07
7.31679e+07
7.57682e+07
7.59326e+07
7.84627e+07
7.82209e+07
8.06768e+07
8.00062e+07
8.23902e+07
8.12908e+07
8.36099e+07
8.21181e+07
8.43808e+07
8.25696e+07
8.47874e+07
8.27584e+07
8.49379e+07
8.27982e+07
8.49415e+07
8.27852e+07
8.48892e+07
8.27796e+07
8.4838e+07
8.28058e+07
8.48121e+07
8.28625e+07
8.48103e+07
8.29303e+07
8.48146e+07
8.29856e+07
8.48046e+07
8.30137e+07
8.47693e+07
8.30079e+07
8.47005e+07
8.29601e+07
8.45892e+07
8.28662e+07
8.4432e+07
8.27254e+07
8.42286e+07
8.25375e+07
8.398e+07
8.2308e+07
8.36935e+07
8.20479e+07
8.3377e+07
8.17587e+07
8.30284e+07
8.1433e+07
8.26424e+07
8.10701e+07
8.22246e+07
8.06872e+07
8.17943e+07
8.029e+07
8.13457e+07
7.98685e+07
8.08295e+07
7.93577e+07
2.8367e+07
3.00027e+07
3.2785e+07
3.52396e+07
3.83376e+07
4.05969e+07
4.34765e+07
4.55175e+07
4.82775e+07
5.01212e+07
5.28281e+07
5.44606e+07
5.71407e+07
5.85312e+07
6.1187e+07
6.229e+07
6.49127e+07
6.56777e+07
6.82593e+07
6.86405e+07
7.1175e+07
7.11339e+07
7.36162e+07
7.31228e+07
7.55494e+07
7.45899e+07
7.69621e+07
7.5556e+07
7.78804e+07
7.60982e+07
7.83877e+07
7.63398e+07
7.86029e+07
7.64186e+07
7.86587e+07
7.64551e+07
7.86673e+07
7.6526e+07
7.87017e+07
7.66613e+07
7.87908e+07
7.68568e+07
7.8932e+07
7.70878e+07
7.91023e+07
7.73207e+07
7.92709e+07
7.75279e+07
7.94133e+07
7.7696e+07
7.95187e+07
7.78212e+07
7.95828e+07
7.79009e+07
7.96016e+07
7.79329e+07
7.95731e+07
7.79159e+07
7.94962e+07
7.78492e+07
7.93715e+07
7.77393e+07
7.92081e+07
7.75998e+07
7.90178e+07
7.74337e+07
7.87986e+07
7.72319e+07
7.85419e+07
7.69929e+07
7.82512e+07
7.67284e+07
7.79398e+07
7.64419e+07
7.76105e+07
7.61438e+07
7.72714e+07
7.58361e+07
7.68816e+07
7.54468e+07
3.03051e+07
3.19288e+07
3.4549e+07
3.69479e+07
3.98909e+07
4.20694e+07
4.47929e+07
4.67096e+07
4.93032e+07
5.09631e+07
5.34904e+07
5.48719e+07
5.73584e+07
5.84147e+07
6.08635e+07
6.1539e+07
6.39485e+07
6.41945e+07
6.65651e+07
6.63406e+07
6.86744e+07
6.79485e+07
7.02501e+07
6.9015e+07
7.1294e+07
6.9598e+07
7.1871e+07
6.98322e+07
7.21121e+07
6.98823e+07
7.21715e+07
6.99036e+07
7.21942e+07
7.00022e+07
7.22781e+07
7.02174e+07
7.24602e+07
7.05359e+07
7.2731e+07
7.09214e+07
7.30588e+07
7.13289e+07
7.34021e+07
7.17177e+07
7.37238e+07
7.20627e+07
7.40032e+07
7.23577e+07
7.42353e+07
7.26042e+07
7.44209e+07
7.28024e+07
7.45589e+07
7.295e+07
7.46472e+07
7.30448e+07
7.46842e+07
7.30874e+07
7.46723e+07
7.30879e+07
7.46231e+07
7.30593e+07
7.45471e+07
7.30018e+07
7.44406e+07
7.2907e+07
7.42963e+07
7.27764e+07
7.41185e+07
7.2619e+07
7.39165e+07
7.24377e+07
7.36917e+07
7.22351e+07
7.34554e+07
7.20299e+07
7.32187e+07
7.1818e+07
7.29328e+07
7.15324e+07
3.23307e+07
3.39065e+07
3.6365e+07
3.86525e+07
4.14369e+07
4.34631e+07
4.60221e+07
4.77257e+07
5.01358e+07
5.15148e+07
5.38336e+07
5.48546e+07
5.71024e+07
5.77129e+07
5.98944e+07
6.00394e+07
6.21603e+07
6.17877e+07
6.38618e+07
6.2932e+07
6.49828e+07
6.34977e+07
6.55604e+07
6.36099e+07
6.57254e+07
6.34858e+07
6.56746e+07
6.33382e+07
6.55988e+07
6.33325e+07
6.5641e+07
6.35352e+07
6.58576e+07
6.39271e+07
6.623e+07
6.4444e+07
6.67035e+07
6.5018e+07
6.72197e+07
6.55929e+07
6.77279e+07
6.61293e+07
6.81939e+07
6.66093e+07
6.86041e+07
6.70328e+07
6.89603e+07
6.74037e+07
6.92663e+07
6.77209e+07
6.95206e+07
6.79812e+07
6.972e+07
6.81818e+07
6.98628e+07
6.83263e+07
6.99543e+07
6.84278e+07
7.00074e+07
6.84977e+07
7.00308e+07
6.85342e+07
7.00207e+07
6.85306e+07
6.99721e+07
6.84919e+07
6.98915e+07
6.84278e+07
6.97867e+07
6.83396e+07
6.9657e+07
6.82246e+07
6.95039e+07
6.80921e+07
6.93459e+07
6.79634e+07
6.91949e+07
6.78403e+07
6.90054e+07
6.76444e+07
3.4367e+07
3.58495e+07
3.81358e+07
4.02333e+07
4.28447e+07
4.46205e+07
4.70026e+07
4.83905e+07
5.06011e+07
5.15924e+07
5.36771e+07
5.42275e+07
5.62012e+07
5.62488e+07
5.81202e+07
5.75929e+07
5.93819e+07
5.82249e+07
5.99783e+07
5.82205e+07
6.00004e+07
5.7802e+07
5.96704e+07
5.72826e+07
5.9277e+07
5.6922e+07
5.90467e+07
5.68769e+07
5.91058e+07
5.71544e+07
5.94485e+07
5.76752e+07
5.99965e+07
5.83383e+07
6.06532e+07
5.90545e+07
6.13386e+07
5.97605e+07
6.20012e+07
6.04262e+07
6.26128e+07
6.1047e+07
6.31669e+07
6.16211e+07
6.36659e+07
6.21419e+07
6.41084e+07
6.25967e+07
6.44875e+07
6.29814e+07
6.48002e+07
6.32945e+07
6.50466e+07
6.35447e+07
6.52373e+07
6.3752e+07
6.53895e+07
6.39248e+07
6.55091e+07
6.40563e+07
6.55886e+07
6.41393e+07
6.56248e+07
6.41851e+07
6.5629e+07
6.42062e+07
6.561e+07
6.42029e+07
6.55655e+07
6.41694e+07
6.5493e+07
6.41109e+07
6.5404e+07
6.40437e+07
6.53195e+07
6.39913e+07
6.52496e+07
6.39413e+07
6.51351e+07
6.38155e+07
3.63157e+07
3.76364e+07
3.97243e+07
4.15315e+07
4.39406e+07
4.53712e+07
4.75527e+07
4.85261e+07
5.05105e+07
5.09876e+07
5.28121e+07
5.27213e+07
5.44028e+07
5.36458e+07
5.52101e+07
5.37299e+07
5.52338e+07
5.31367e+07
5.46693e+07
5.22582e+07
5.38744e+07
5.15195e+07
5.3207e+07
5.11131e+07
5.2873e+07
5.11141e+07
5.29452e+07
5.14469e+07
5.33413e+07
5.19867e+07
5.39425e+07
5.26353e+07
5.46494e+07
5.33265e+07
5.53873e+07
5.40128e+07
5.61045e+07
5.46785e+07
5.67939e+07
5.5357e+07
5.74739e+07
5.60435e+07
5.81345e+07
5.67021e+07
5.87431e+07
5.72924e+07
5.92724e+07
5.78013e+07
5.97221e+07
5.82343e+07
6.00959e+07
5.86094e+07
6.04127e+07
5.89496e+07
6.06918e+07
5.92491e+07
6.09289e+07
5.94904e+07
6.11105e+07
5.96696e+07
6.12391e+07
5.9809e+07
6.13339e+07
5.99246e+07
6.14054e+07
6.0014e+07
6.14492e+07
6.0068e+07
6.14589e+07
6.00867e+07
6.14401e+07
6.00839e+07
6.14103e+07
6.00839e+07
6.13941e+07
6.00995e+07
6.13888e+07
6.01099e+07
6.13364e+07
6.0045e+07
3.80318e+07
3.91107e+07
4.09718e+07
4.23957e+07
4.45606e+07
4.55335e+07
4.7471e+07
4.78518e+07
4.95723e+07
4.92805e+07
5.08168e+07
4.97522e+07
5.11318e+07
4.92924e+07
5.05967e+07
4.82883e+07
4.9568e+07
4.73004e+07
4.86071e+07
4.6794e+07
4.81038e+07
4.67519e+07
4.8031e+07
4.70345e+07
4.83184e+07
4.75228e+07
4.8812e+07
4.8087e+07
4.93815e+07
4.86534e+07
4.99649e+07
4.9195e+07
5.05365e+07
4.97019e+07
5.1084e+07
5.01852e+07
5.16361e+07
5.07239e+07
5.22632e+07
5.13145e+07
5.29222e+07
5.18869e+07
5.35492e+07
5.241e+07
5.41143e+07
5.28812e+07
5.46104e+07
5.33103e+07
5.50496e+07
5.37388e+07
5.54688e+07
5.41671e+07
5.58698e+07
5.45563e+07
5.6219e+07
5.48727e+07
5.64938e+07
5.51206e+07
5.67093e+07
5.53373e+07
5.68965e+07
5.55426e+07
5.70645e+07
5.57219e+07
5.72016e+07
5.58588e+07
5.72968e+07
5.59512e+07
5.73548e+07
5.6018e+07
5.73959e+07
5.60861e+07
5.74425e+07
5.61619e+07
5.74984e+07
5.62384e+07
5.75527e+07
5.63019e+07
5.75585e+07
5.62969e+07
3.93341e+07
4.00885e+07
4.17068e+07
4.2608e+07
4.44689e+07
4.47504e+07
4.63763e+07
4.58866e+07
4.72664e+07
4.59697e+07
4.7138e+07
4.51895e+07
4.62213e+07
4.41966e+07
4.51999e+07
4.36628e+07
4.46083e+07
4.36301e+07
4.45967e+07
4.40102e+07
4.49703e+07
4.45444e+07
4.54777e+07
4.51062e+07
4.60378e+07
4.56703e+07
4.66039e+07
4.62152e+07
4.71442e+07
4.67236e+07
4.76439e+07
4.71893e+07
4.81028e+07
4.76234e+07
4.85424e+07
4.80535e+07
4.89967e+07
4.84741e+07
4.94419e+07
4.88419e+07
4.98305e+07
4.91396e+07
5.01625e+07
4.93865e+07
5.04592e+07
4.96242e+07
5.07792e+07
4.99548e+07
5.11858e+07
5.03023e+07
5.15826e+07
5.06044e+07
5.19251e+07
5.08479e+07
5.21952e+07
5.1056e+07
5.2421e+07
5.12711e+07
5.26466e+07
5.15038e+07
5.28738e+07
5.1715e+07
5.30694e+07
5.18765e+07
5.32139e+07
5.19871e+07
5.33149e+07
5.20793e+07
5.34042e+07
5.21893e+07
5.35067e+07
5.23094e+07
5.3612e+07
5.24191e+07
5.37106e+07
5.25234e+07
5.38068e+07
5.26289e+07
5.38727e+07
5.26893e+07
3.9976e+07
4.02565e+07
4.16189e+07
4.17369e+07
4.32411e+07
4.26713e+07
4.39048e+07
4.26783e+07
4.35996e+07
4.20274e+07
4.2765e+07
4.14666e+07
4.21047e+07
4.13473e+07
4.20574e+07
4.16529e+07
4.23821e+07
4.21188e+07
4.28892e+07
4.26506e+07
4.34455e+07
4.31884e+07
4.39958e+07
4.37133e+07
4.45336e+07
4.42234e+07
4.50512e+07
4.47124e+07
4.55392e+07
4.51738e+07
4.59928e+07
4.56062e+07
4.64171e+07
4.60148e+07
4.6823e+07
4.63999e+07
4.72041e+07
4.67484e+07
4.75331e+07
4.70429e+07
4.77978e+07
4.72838e+07
4.80168e+07
4.7498e+07
4.82319e+07
4.77197e+07
4.84761e+07
4.79114e+07
4.86733e+07
4.80273e+07
4.88042e+07
4.80876e+07
4.88988e+07
4.81465e+07
4.90203e+07
4.82775e+07
4.92099e+07
4.84277e+07
4.94023e+07
4.85441e+07
4.9555e+07
4.86181e+07
4.96523e+07
4.86592e+07
4.97123e+07
4.87096e+07
4.97878e+07
4.8805e+07
4.99006e+07
4.8914e+07
5.00164e+07
4.90053e+07
5.01143e+07
4.9081e+07
5.02081e+07
4.91694e+07
5.03206e+07
4.92842e+07
5.04213e+07
4.93624e+07
3.95621e+07
3.92404e+07
4.03289e+07
3.97774e+07
4.09237e+07
4.01038e+07
4.09232e+07
4.00238e+07
4.04798e+07
3.98237e+07
4.02663e+07
3.99148e+07
4.04215e+07
4.02089e+07
4.08005e+07
4.06076e+07
4.12484e+07
4.10333e+07
4.17212e+07
4.1473e+07
4.21994e+07
4.19208e+07
4.26749e+07
4.23707e+07
4.31442e+07
4.28162e+07
4.36012e+07
4.32498e+07
4.40392e+07
4.36661e+07
4.4455e+07
4.40629e+07
4.48491e+07
4.44391e+07
4.52199e+07
4.47906e+07
4.556e+07
4.51102e+07
4.58593e+07
4.53925e+07
4.61162e+07
4.56399e+07
4.63424e+07
4.58611e+07
4.6551e+07
4.6053e+07
4.67226e+07
4.62018e+07
4.68338e+07
4.63016e+07
4.68997e+07
4.63748e+07
4.69609e+07
4.64475e+07
4.70415e+07
4.64893e+07
4.70794e+07
4.64692e+07
4.70669e+07
4.6414e+07
4.70352e+07
4.63649e+07
4.70206e+07
4.63559e+07
4.70551e+07
4.63746e+07
4.71184e+07
4.63875e+07
4.71715e+07
4.63862e+07
4.72014e+07
4.63734e+07
4.72175e+07
4.63718e+07
4.72575e+07
4.64171e+07
4.73398e+07
4.64891e+07
4.74127e+07
4.65274e+07
3.8087e+07
3.75567e+07
3.84278e+07
3.81445e+07
3.89335e+07
3.86416e+07
3.90807e+07
3.88067e+07
3.91309e+07
3.89031e+07
3.92825e+07
3.90723e+07
3.95289e+07
3.93045e+07
3.98391e+07
3.95876e+07
4.01834e+07
3.99097e+07
4.05548e+07
4.02631e+07
4.09472e+07
4.06385e+07
4.13518e+07
4.10257e+07
4.17597e+07
4.14152e+07
4.21625e+07
4.17995e+07
4.25541e+07
4.21731e+07
4.29308e+07
4.25326e+07
4.32901e+07
4.28749e+07
4.36286e+07
4.31962e+07
4.39413e+07
4.34926e+07
4.42245e+07
4.37624e+07
4.44786e+07
4.40066e+07
4.47067e+07
4.42257e+07
4.49073e+07
4.44167e+07
4.50741e+07
4.45754e+07
4.52031e+07
4.47023e+07
4.53031e+07
4.48034e+07
4.53832e+07
4.48764e+07
4.54289e+07
4.49135e+07
4.5427e+07
4.49145e+07
4.53946e+07
4.4895e+07
4.53571e+07
4.48631e+07
4.5319e+07
4.47991e+07
4.5251e+07
4.46966e+07
4.516e+07
4.45838e+07
4.50719e+07
4.4486e+07
4.50006e+07
4.44114e+07
4.49607e+07
4.43652e+07
4.49621e+07
4.43441e+07
4.4989e+07
4.43329e+07
4.49994e+07
4.43022e+07
3.6747e+07
3.66918e+07
3.73496e+07
3.74724e+07
3.79982e+07
3.79402e+07
3.8272e+07
3.80655e+07
3.83551e+07
3.809e+07
3.84428e+07
3.81534e+07
3.85858e+07
3.8285e+07
3.87898e+07
3.8482e+07
3.90471e+07
3.87335e+07
3.93472e+07
3.90263e+07
3.96775e+07
3.93469e+07
4.00261e+07
3.96833e+07
4.03826e+07
4.0026e+07
4.0739e+07
4.03677e+07
4.10892e+07
4.07033e+07
4.14291e+07
4.10287e+07
4.17553e+07
4.13405e+07
4.20645e+07
4.16359e+07
4.23537e+07
4.19125e+07
4.26212e+07
4.2169e+07
4.28666e+07
4.24051e+07
4.30897e+07
4.26196e+07
4.32888e+07
4.28111e+07
4.34614e+07
4.29781e+07
4.36074e+07
4.31213e+07
4.37287e+07
4.32409e+07
4.38246e+07
4.33355e+07
4.38917e+07
4.34031e+07
4.3929e+07
4.34443e+07
4.39418e+07
4.34612e+07
4.3932e+07
4.34518e+07
4.38909e+07
4.34145e+07
4.38187e+07
4.33554e+07
4.37323e+07
4.32856e+07
4.36463e+07
4.32087e+07
4.35614e+07
4.31144e+07
4.34651e+07
4.30017e+07
4.33651e+07
4.28891e+07
4.32755e+07
4.27886e+07
4.31929e+07
4.26995e+07
3.6462e+07
3.67499e+07
3.7127e+07
3.72607e+07
3.75349e+07
3.73585e+07
3.756e+07
3.72429e+07
3.74869e+07
3.71376e+07
3.74657e+07
3.7116e+07
3.75273e+07
3.71824e+07
3.76651e+07
3.73235e+07
3.78653e+07
3.75241e+07
3.81132e+07
3.77689e+07
3.83945e+07
3.80441e+07
3.8697e+07
3.83381e+07
3.90107e+07
3.86417e+07
3.9328e+07
3.8948e+07
3.96431e+07
3.92519e+07
3.99516e+07
3.95492e+07
4.02501e+07
3.98368e+07
4.05358e+07
4.01122e+07
4.08064e+07
4.03734e+07
4.10605e+07
4.06192e+07
4.12971e+07
4.08486e+07
4.15154e+07
4.10605e+07
4.1714e+07
4.1254e+07
4.18921e+07
4.14283e+07
4.20494e+07
4.15832e+07
4.21857e+07
4.17182e+07
4.23004e+07
4.18326e+07
4.23922e+07
4.19257e+07
4.24612e+07
4.1998e+07
4.25081e+07
4.20497e+07
4.25328e+07
4.20809e+07
4.25351e+07
4.20923e+07
4.25174e+07
4.20856e+07
4.24841e+07
4.20625e+07
4.2436e+07
4.20229e+07
4.23697e+07
4.19684e+07
4.22885e+07
4.19072e+07
4.22062e+07
4.18493e+07
4.21317e+07
4.17965e+07
4.20643e+07
4.17528e+07
3.69072e+07
3.70232e+07
3.70899e+07
3.69645e+07
3.69916e+07
3.66585e+07
3.67368e+07
3.63356e+07
3.65237e+07
3.61181e+07
3.64159e+07
3.60218e+07
3.64121e+07
3.60297e+07
3.64953e+07
3.61212e+07
3.66471e+07
3.62774e+07
3.68506e+07
3.64813e+07
3.70905e+07
3.67186e+07
3.73546e+07
3.69778e+07
3.76331e+07
3.72498e+07
3.79186e+07
3.7528e+07
3.82053e+07
3.78072e+07
3.84892e+07
3.80833e+07
3.87666e+07
3.83533e+07
3.90351e+07
3.86149e+07
3.92927e+07
3.88661e+07
3.95377e+07
3.91057e+07
3.97691e+07
3.93325e+07
3.99859e+07
3.95455e+07
4.01871e+07
3.9744e+07
4.0372e+07
3.99273e+07
4.05402e+07
4.00949e+07
4.06912e+07
4.02464e+07
4.08246e+07
4.03813e+07
4.09398e+07
4.04996e+07
4.10371e+07
4.06012e+07
4.11165e+07
4.06865e+07
4.11784e+07
4.07557e+07
4.12233e+07
4.08096e+07
4.12524e+07
4.08495e+07
4.12671e+07
4.08771e+07
4.1269e+07
4.0895e+07
4.12609e+07
4.09066e+07
4.12482e+07
4.09163e+07
4.12363e+07
4.09268e+07
4.12263e+07
4.09384e+07
4.1217e+07
4.09458e+07
3.6932e+07
3.67691e+07
3.67359e+07
3.63515e+07
3.62699e+07
3.57854e+07
3.58082e+07
3.53198e+07
3.54817e+07
3.50159e+07
3.52991e+07
3.48559e+07
3.52367e+07
3.48118e+07
3.52707e+07
3.48593e+07
3.53797e+07
3.49775e+07
3.55452e+07
3.5148e+07
3.57512e+07
3.53556e+07
3.59848e+07
3.55883e+07
3.6236e+07
3.58371e+07
3.64975e+07
3.6095e+07
3.67635e+07
3.63569e+07
3.70298e+07
3.66189e+07
3.7293e+07
3.6878e+07
3.75506e+07
3.71318e+07
3.78007e+07
3.73786e+07
3.80418e+07
3.76169e+07
3.82725e+07
3.78457e+07
3.84921e+07
3.80641e+07
3.86996e+07
3.82712e+07
3.88944e+07
3.84665e+07
3.9076e+07
3.86496e+07
3.9244e+07
3.88201e+07
3.9398e+07
3.89777e+07
3.95379e+07
3.91223e+07
3.96637e+07
3.9254e+07
3.97756e+07
3.93732e+07
3.98741e+07
3.94804e+07
3.99598e+07
3.95766e+07
4.0034e+07
3.96631e+07
4.00984e+07
3.97419e+07
4.01553e+07
3.98152e+07
4.02074e+07
3.98857e+07
4.02579e+07
3.9956e+07
4.03093e+07
4.00288e+07
4.03638e+07
4.01069e+07
4.04213e+07
4.01895e+07
3.63667e+07
3.5994e+07
3.59584e+07
3.53869e+07
3.52901e+07
3.46807e+07
3.47097e+07
3.41355e+07
3.43114e+07
3.378e+07
3.40762e+07
3.35792e+07
3.39704e+07
3.34998e+07
3.3967e+07
3.35165e+07
3.40438e+07
3.36078e+07
3.41811e+07
3.3755e+07
3.43624e+07
3.39425e+07
3.45746e+07
3.4158e+07
3.48074e+07
3.43921e+07
3.50531e+07
3.4638e+07
3.53061e+07
3.48903e+07
3.55621e+07
3.51453e+07
3.58178e+07
3.53999e+07
3.60708e+07
3.56519e+07
3.6319e+07
3.58995e+07
3.65612e+07
3.61415e+07
3.6796e+07
3.63767e+07
3.70225e+07
3.66043e+07
3.724e+07
3.68236e+07
3.7448e+07
3.7034e+07
3.76458e+07
3.72352e+07
3.78332e+07
3.74268e+07
3.80099e+07
3.76087e+07
3.81759e+07
3.77808e+07
3.83313e+07
3.79434e+07
3.84762e+07
3.80969e+07
3.86114e+07
3.82418e+07
3.87375e+07
3.83791e+07
3.88558e+07
3.85102e+07
3.8968e+07
3.86366e+07
3.9076e+07
3.87603e+07
3.9182e+07
3.88836e+07
3.92884e+07
3.90091e+07
3.93983e+07
3.91406e+07
3.95164e+07
3.92844e+07
3.96466e+07
3.94419e+07
3.53482e+07
3.48257e+07
3.48315e+07
3.41253e+07
3.40584e+07
3.3351e+07
3.34168e+07
3.27685e+07
3.2982e+07
3.23902e+07
3.27197e+07
3.21717e+07
3.25908e+07
3.20765e+07
3.25668e+07
3.20789e+07
3.26253e+07
3.21573e+07
3.27466e+07
3.22932e+07
3.29141e+07
3.24711e+07
3.31147e+07
3.26788e+07
3.33379e+07
3.2907e+07
3.35763e+07
3.31487e+07
3.3824e+07
3.33988e+07
3.40767e+07
3.36535e+07
3.43314e+07
3.39098e+07
3.45856e+07
3.41656e+07
3.48374e+07
3.44193e+07
3.50855e+07
3.46694e+07
3.53286e+07
3.4915e+07
3.5566e+07
3.51553e+07
3.57968e+07
3.53897e+07
3.60206e+07
3.56177e+07
3.6237e+07
3.58389e+07
3.64457e+07
3.60531e+07
3.66464e+07
3.62602e+07
3.68393e+07
3.64602e+07
3.70244e+07
3.66534e+07
3.72021e+07
3.68401e+07
3.73729e+07
3.7021e+07
3.75375e+07
3.71969e+07
3.76972e+07
3.73689e+07
3.78533e+07
3.75386e+07
3.80076e+07
3.77078e+07
3.81621e+07
3.78787e+07
3.83193e+07
3.8054e+07
3.8483e+07
3.8239e+07
3.86601e+07
3.84418e+07
3.88567e+07
3.86628e+07
3.39764e+07
3.33409e+07
3.34128e+07
3.2608e+07
3.25986e+07
3.18159e+07
3.19368e+07
3.12285e+07
3.14927e+07
3.08503e+07
3.12248e+07
3.06329e+07
3.10914e+07
3.0539e+07
3.10633e+07
3.05423e+07
3.11178e+07
3.06213e+07
3.12357e+07
3.07578e+07
3.14005e+07
3.09366e+07
3.15992e+07
3.11458e+07
3.18218e+07
3.13764e+07
3.20607e+07
3.16216e+07
3.23103e+07
3.18764e+07
3.25665e+07
3.2137e+07
3.28262e+07
3.24008e+07
3.30871e+07
3.26655e+07
3.33474e+07
3.29296e+07
3.36057e+07
3.31919e+07
3.38611e+07
3.34515e+07
3.41125e+07
3.37076e+07
3.43596e+07
3.39596e+07
3.46016e+07
3.42071e+07
3.48383e+07
3.44498e+07
3.50695e+07
3.46875e+07
3.5295e+07
3.49202e+07
3.55148e+07
3.51478e+07
3.57292e+07
3.53706e+07
3.59383e+07
3.55889e+07
3.61427e+07
3.58033e+07
3.63431e+07
3.60146e+07
3.65405e+07
3.62239e+07
3.67363e+07
3.64325e+07
3.69321e+07
3.66422e+07
3.71299e+07
3.68552e+07
3.73323e+07
3.70747e+07
3.75438e+07
3.73062e+07
3.77724e+07
3.75591e+07
3.80244e+07
3.78316e+07
3.23196e+07
3.15982e+07
3.17481e+07
3.08727e+07
3.0937e+07
3.00986e+07
3.02863e+07
2.95314e+07
2.98546e+07
2.91716e+07
2.95985e+07
2.89709e+07
2.94759e+07
2.88921e+07
2.94576e+07
2.8909e+07
2.9521e+07
2.90003e+07
2.96469e+07
2.91481e+07
2.98192e+07
2.93374e+07
3.00253e+07
2.95568e+07
3.02555e+07
2.97976e+07
3.05024e+07
3.00533e+07
3.07607e+07
3.0319e+07
3.10264e+07
3.05913e+07
3.12967e+07
3.08675e+07
3.15692e+07
3.11457e+07
3.18423e+07
3.14244e+07
3.21148e+07
3.17025e+07
3.23858e+07
3.19792e+07
3.26543e+07
3.22537e+07
3.292e+07
3.25255e+07
3.31822e+07
3.27942e+07
3.34407e+07
3.30597e+07
3.36954e+07
3.33216e+07
3.3946e+07
3.35799e+07
3.41925e+07
3.38347e+07
3.44352e+07
3.40861e+07
3.46743e+07
3.43344e+07
3.49102e+07
3.45801e+07
3.51436e+07
3.48239e+07
3.53755e+07
3.50669e+07
3.5607e+07
3.53105e+07
3.58399e+07
3.55564e+07
3.60762e+07
3.58068e+07
3.63184e+07
3.60649e+07
3.65715e+07
3.63369e+07
3.6844e+07
3.66319e+07
3.71414e+07
3.69465e+07
3.04321e+07
2.96457e+07
2.98786e+07
2.89543e+07
2.91012e+07
2.82237e+07
2.84846e+07
2.76953e+07
2.80824e+07
2.73686e+07
2.78522e+07
2.71969e+07
2.77529e+07
2.71444e+07
2.77558e+07
2.71852e+07
2.78385e+07
2.72985e+07
2.79822e+07
2.74665e+07
2.8171e+07
2.76746e+07
2.83927e+07
2.79118e+07
2.86378e+07
2.81697e+07
2.88995e+07
2.8442e+07
2.91725e+07
2.87243e+07
2.94532e+07
2.90133e+07
2.97389e+07
2.93066e+07
3.00275e+07
2.96024e+07
3.03174e+07
2.98994e+07
3.06076e+07
3.01965e+07
3.08972e+07
3.04929e+07
3.11854e+07
3.07882e+07
3.14718e+07
3.10817e+07
3.17559e+07
3.13732e+07
3.20375e+07
3.16624e+07
3.23164e+07
3.19491e+07
3.25924e+07
3.22333e+07
3.28656e+07
3.25149e+07
3.3136e+07
3.27941e+07
3.34038e+07
3.30712e+07
3.36695e+07
3.33465e+07
3.39336e+07
3.36206e+07
3.41971e+07
3.38948e+07
3.44612e+07
3.41702e+07
3.47275e+07
3.44487e+07
3.49981e+07
3.47325e+07
3.52758e+07
3.5025e+07
3.55654e+07
3.53323e+07
3.58756e+07
3.56631e+07
3.62106e+07
3.60122e+07
2.83583e+07
2.75234e+07
2.78399e+07
2.68842e+07
2.71176e+07
2.62149e+07
2.6552e+07
2.57393e+07
2.61925e+07
2.54567e+07
2.59992e+07
2.53238e+07
2.5933e+07
2.53064e+07
2.59663e+07
2.53795e+07
2.60769e+07
2.55224e+07
2.62463e+07
2.57178e+07
2.6459e+07
2.59516e+07
2.67032e+07
2.62129e+07
2.69697e+07
2.64937e+07
2.72519e+07
2.67881e+07
2.7545e+07
2.70919e+07
2.78456e+07
2.74021e+07
2.8151e+07
2.77165e+07
2.84595e+07
2.80335e+07
2.87698e+07
2.83518e+07
2.90807e+07
2.86707e+07
2.93915e+07
2.89894e+07
2.97017e+07
2.93074e+07
3.00107e+07
2.96243e+07
3.03182e+07
2.99399e+07
3.0624e+07
3.02538e+07
3.09279e+07