/*--------------------------------*- C++ -*----------------------------------*\
| =========                 |                                                 |
| \\      /  F ield         | OpenFOAM: The Open Source CFD Toolbox           |
|  \\    /   O peration     | Version:  v2012                                 |
|   \\  /    A nd           | Website:  www.openfoam.com                      |
|    \\/     M anipulation  |                                                 |
\*---------------------------------------------------------------------------*/
FoamFile
{
    version     2.0;
    format      ascii;
    class       volScalarField;
    location    "5";
    object      sigmaHyd;
}
// * * * * * * * * * * * * * * * * * * * * * * * * * * * * * * * * * * * * * //

dimensions      [1 -1 -2 0 0 0 0];


internalField   nonuniform List<scalar> 
8000
(
1.22455e+08
1.15398e+08
1.2482e+08
1.117e+08
1.19189e+08
1.07021e+08
1.13896e+08
1.02887e+08
1.08952e+08
9.90834e+07
1.04344e+08
9.5525e+07
1.00049e+08
9.21682e+07
9.604e+07
8.89858e+07
9.22886e+07
8.59585e+07
8.87685e+07
8.30708e+07
8.54553e+07
8.03098e+07
8.23272e+07
7.76638e+07
7.93643e+07
7.51225e+07
7.65486e+07
7.26764e+07
7.38637e+07
7.03164e+07
7.12945e+07
6.80345e+07
6.88266e+07
6.58227e+07
6.64463e+07
6.36728e+07
6.41392e+07
6.15751e+07
6.18896e+07
5.95136e+07
1.27242e+08
1.14059e+08
1.2392e+08
1.10868e+08
1.1835e+08
1.06455e+08
1.13099e+08
1.02381e+08
1.08222e+08
9.85885e+07
1.03693e+08
9.50316e+07
9.94768e+07
9.16777e+07
9.55401e+07
8.85028e+07
9.18534e+07
8.54878e+07
8.83905e+07
8.26166e+07
8.51279e+07
7.98756e+07
8.20448e+07
7.72524e+07
7.91227e+07
7.47359e+07
7.63447e+07
7.2316e+07
7.3696e+07
6.99831e+07
7.11634e+07
6.77285e+07
6.87351e+07
6.5544e+07
6.64014e+07
6.34223e+07
6.41558e+07
6.13587e+07
6.19995e+07
5.93572e+07
1.27267e+08
1.13726e+08
1.22146e+08
1.09394e+08
1.16705e+08
1.05152e+08
1.11636e+08
1.01195e+08
1.06917e+08
9.74837e+07
1.02524e+08
9.39902e+07
9.84266e+07
9.06919e+07
9.45965e+07
8.75692e+07
9.10062e+07
8.46054e+07
8.76309e+07
8.17855e+07
8.44486e+07
7.90963e+07
8.14397e+07
7.65255e+07
7.85867e+07
7.40622e+07
7.58739e+07
7.16963e+07
7.32877e+07
6.94185e+07
7.08156e+07
6.72205e+07
6.84468e+07
6.50945e+07
6.61715e+07
6.3034e+07
6.39803e+07
6.10333e+07
6.18597e+07
5.90846e+07
1.2475e+08
1.11661e+08
1.19501e+08
1.07381e+08
1.14352e+08
1.03315e+08
1.09525e+08
9.94811e+07
1.05018e+08
9.58709e+07
1.00812e+08
9.2468e+07
9.68801e+07
8.92547e+07
9.3198e+07
8.62142e+07
8.97412e+07
8.33309e+07
8.64876e+07
8.05906e+07
8.34173e+07
7.79804e+07
8.05124e+07
7.54884e+07
7.77567e+07
7.31041e+07
7.5136e+07
7.08175e+07
7.26374e+07
6.86198e+07
7.02494e+07
6.65028e+07
6.79613e+07
6.44589e+07
6.57635e+07
6.24813e+07
6.36464e+07
6.05629e+07
6.16026e+07
5.86974e+07
1.21701e+08
1.09061e+08
1.1637e+08
1.04919e+08
1.11441e+08
1.00983e+08
1.06859e+08
9.72727e+07
1.02588e+08
9.37804e+07
9.85995e+07
9.04912e+07
9.48664e+07
8.73886e+07
9.13651e+07
8.44563e+07
8.80736e+07
8.16792e+07
8.4972e+07
7.90436e+07
8.20425e+07
7.65367e+07
7.9269e+07
7.41472e+07
7.66369e+07
7.18647e+07
7.41332e+07
6.96796e+07
7.17462e+07
6.75835e+07
6.94652e+07
6.55683e+07
6.72805e+07
6.36267e+07
6.51833e+07
6.1752e+07
6.31659e+07
5.99377e+07
6.1221e+07
5.8178e+07
1.178e+08
1.05956e+08
1.1268e+08
1.01918e+08
1.08009e+08
9.81247e+07
1.03693e+08
9.45632e+07
9.9678e+07
9.12175e+07
9.59298e+07
8.80709e+07
9.242e+07
8.51066e+07
8.91251e+07
8.23088e+07
8.60248e+07
7.96628e+07
8.31008e+07
7.71552e+07
8.03371e+07
7.4774e+07
7.77191e+07
7.25082e+07
7.52338e+07
7.03477e+07
7.28696e+07
6.82836e+07
7.0616e+07
6.63077e+07
6.84633e+07
6.44124e+07
6.64031e+07
6.25908e+07
6.44275e+07
6.08367e+07
6.25296e+07
5.91443e+07
6.07031e+07
5.75082e+07
1.1303e+08
1.02261e+08
1.08333e+08
9.83818e+07
1.04016e+08
9.47639e+07
1.00018e+08
9.13802e+07
9.62973e+07
8.82091e+07
9.28199e+07
8.52319e+07
8.95605e+07
8.24313e+07
8.64976e+07
7.97917e+07
8.36126e+07
7.7299e+07
8.08893e+07
7.49405e+07
7.83135e+07
7.27045e+07
7.58724e+07
7.05807e+07
7.35545e+07
6.85598e+07
7.13496e+07
6.66332e+07
6.92484e+07
6.47932e+07
6.72427e+07
6.3033e+07
6.53248e+07
6.1346e+07
6.34881e+07
5.97267e+07
6.17264e+07
5.81698e+07
6.00343e+07
5.66705e+07
1.07581e+08
9.80201e+07
1.03381e+08
9.43509e+07
9.94833e+07
9.09423e+07
9.58549e+07
8.7764e+07
9.24657e+07
8.47924e+07
8.92907e+07
8.20075e+07
8.63088e+07
7.93922e+07
8.3502e+07
7.6931e+07
8.08546e+07
7.46106e+07
7.83529e+07
7.24186e+07
7.59847e+07
7.03444e+07
7.37391e+07
6.83781e+07
7.16064e+07
6.6511e+07
6.95777e+07
6.47353e+07
6.76452e+07
6.3044e+07
6.58017e+07
6.14307e+07
6.40409e+07
5.98896e+07
6.2357e+07
5.84156e+07
6.07447e+07
5.7004e+07
5.91993e+07
5.56507e+07
1.01592e+08
9.32936e+07
9.79149e+07
8.98749e+07
9.44727e+07
8.67062e+07
9.12474e+07
8.37583e+07
8.82202e+07
8.10078e+07
8.53737e+07
7.84349e+07
8.26926e+07
7.60228e+07
8.01628e+07
7.37567e+07
7.77723e+07
7.16238e+07
7.551e+07
6.96127e+07
7.3366e+07
6.77133e+07
7.13315e+07
6.59167e+07
6.93986e+07
6.42147e+07
6.75599e+07
6.26004e+07
6.5809e+07
6.10672e+07
6.41401e+07
5.96094e+07
6.25477e+07
5.8222e+07
6.10271e+07
5.69003e+07
5.95741e+07
5.56403e+07
5.81846e+07
5.44384e+07
9.51653e+07
8.81486e+07
9.20221e+07
8.50101e+07
8.90539e+07
8.2106e+07
8.62524e+07
7.94095e+07
8.36074e+07
7.68982e+07
8.11086e+07
7.45533e+07
7.87457e+07
7.23589e+07
7.65094e+07
7.0301e+07
7.43909e+07
6.83678e+07
7.2382e+07
6.65486e+07
7.04754e+07
6.48341e+07
6.86643e+07
6.32162e+07
6.69425e+07
6.16876e+07
6.53044e+07
6.02418e+07
6.37449e+07
5.88732e+07
6.22594e+07
5.75766e+07
6.08437e+07
5.63477e+07
5.94939e+07
5.51822e+07
5.82066e+07
5.40768e+07
5.69788e+07
5.30282e+07
8.83904e+07
8.26527e+07
8.57836e+07
7.98158e+07
8.32969e+07
7.71951e+07
8.09297e+07
7.4766e+07
7.86787e+07
7.2508e+07
7.65394e+07
7.04036e+07
7.45066e+07
6.8438e+07
7.2575e+07
6.65984e+07
7.07391e+07
6.48737e+07
6.89937e+07
6.32543e+07
6.73338e+07
6.17318e+07
6.57548e+07
6.02988e+07
6.42522e+07
5.89488e+07
6.28221e+07
5.76762e+07
6.14607e+07
5.64759e+07
6.01646e+07
5.53434e+07
5.89306e+07
5.42748e+07
5.7756e+07
5.32668e+07
5.66381e+07
5.23162e+07
5.55748e+07
5.14204e+07
8.13496e+07
7.68722e+07
7.92746e+07
7.43516e+07
7.72692e+07
7.20274e+07
7.53389e+07
6.98774e+07
7.34865e+07
6.78828e+07
7.17125e+07
6.60278e+07
7.00159e+07
6.42988e+07
6.83953e+07
6.26842e+07
6.68483e+07
6.11741e+07
6.53724e+07
5.97597e+07
6.3965e+07
5.84335e+07
6.26234e+07
5.71891e+07
6.13449e+07
5.60206e+07
6.01271e+07
5.4923e+07
5.89674e+07
5.38922e+07
5.78636e+07
5.29242e+07
5.68138e+07
5.20157e+07
5.58159e+07
5.11639e+07
5.48684e+07
5.03661e+07
5.39697e+07
4.96202e+07
7.41192e+07
7.08714e+07
7.25656e+07
6.86761e+07
7.10349e+07
6.66566e+07
6.95382e+07
6.47928e+07
6.8083e+07
6.3068e+07
6.66744e+07
6.14679e+07
6.53154e+07
5.99803e+07
6.40075e+07
5.85949e+07
6.27516e+07
5.73026e+07
6.15475e+07
5.60959e+07
6.03949e+07
5.49681e+07
5.92928e+07
5.39135e+07
5.82403e+07
5.2927e+07
5.72361e+07
5.20044e+07
5.62792e+07
5.1142e+07
5.53683e+07
5.03368e+07
5.45024e+07
4.95859e+07
5.36805e+07
4.88871e+07
5.29018e+07
4.82383e+07
5.21655e+07
4.76377e+07
6.677e+07
6.47112e+07
6.57224e+07
6.28455e+07
6.46548e+07
6.11345e+07
6.35831e+07
5.95605e+07
6.2519e+07
5.81084e+07
6.14714e+07
5.67656e+07
6.04467e+07
5.55215e+07
5.94496e+07
5.43667e+07
5.84832e+07
5.32935e+07
5.75499e+07
5.2295e+07
5.66512e+07
5.13656e+07
5.57879e+07
5.05002e+07
5.49605e+07
4.96944e+07
5.41691e+07
4.89448e+07
5.34136e+07
4.82482e+07
5.26939e+07
4.76021e+07
5.20097e+07
4.70045e+07
5.13609e+07
4.64537e+07
5.07473e+07
4.59483e+07
5.01692e+07
4.54867e+07
5.93672e+07
5.84491e+07
5.88062e+07
5.6913e+07
5.81859e+07
5.55107e+07
5.75265e+07
5.42264e+07
5.68433e+07
5.3047e+07
5.61484e+07
5.19614e+07
5.54514e+07
5.09603e+07
5.47593e+07
5.00357e+07
5.40778e+07
4.91807e+07
5.34113e+07
4.83895e+07
5.27628e+07
4.76569e+07
5.2135e+07
4.69788e+07
5.15297e+07
4.63513e+07
5.09479e+07
4.57713e+07
5.03908e+07
4.52363e+07
4.98588e+07
4.47443e+07
4.93525e+07
4.42939e+07
4.88721e+07
4.38843e+07
4.84184e+07
4.35147e+07
4.79922e+07
4.31845e+07
5.19703e+07
5.21381e+07
5.18731e+07
5.09283e+07
5.16812e+07
4.98315e+07
5.1418e+07
4.88341e+07
5.11023e+07
4.79247e+07
5.07488e+07
4.70938e+07
5.03697e+07
4.63334e+07
4.99743e+07
4.56366e+07
4.95703e+07
4.49976e+07
4.91639e+07
4.44113e+07
4.87598e+07
4.38734e+07
4.83621e+07
4.33801e+07
4.79736e+07
4.29278e+07
4.75967e+07
4.25139e+07
4.72332e+07
4.21359e+07
4.68843e+07
4.17921e+07
4.65507e+07
4.14814e+07
4.62331e+07
4.12039e+07
4.59325e+07
4.09602e+07
4.56503e+07
4.07514e+07
4.4633e+07
4.58273e+07
4.49746e+07
4.49371e+07
4.51896e+07
4.414e+07
4.53042e+07
4.3424e+07
4.534e+07
4.27796e+07
4.53141e+07
4.21987e+07
4.52408e+07
4.16748e+07
4.51314e+07
4.1202e+07
4.49954e+07
4.07757e+07
4.48405e+07
4.03915e+07
4.46729e+07
4.00457e+07
4.44978e+07
3.97349e+07
4.43194e+07
3.94558e+07
4.4141e+07
3.92056e+07
4.3965e+07
3.89814e+07
4.37933e+07
3.8781e+07
4.36268e+07
3.86027e+07
4.34658e+07
3.84465e+07
4.33105e+07
3.83148e+07
4.31619e+07
3.82127e+07
3.74044e+07
3.95611e+07
3.81576e+07
3.89815e+07
3.87559e+07
3.84753e+07
3.92279e+07
3.80328e+07
3.95974e+07
3.76459e+07
3.98837e+07
3.73084e+07
4.01026e+07
3.70148e+07
4.02671e+07
3.67609e+07
4.03882e+07
3.65428e+07
4.04749e+07
3.63573e+07
4.05344e+07
3.62013e+07
4.05732e+07
3.60721e+07
4.05964e+07
3.59666e+07
4.06083e+07
3.58817e+07
4.06122e+07
3.58136e+07
4.06106e+07
3.57583e+07
4.06046e+07
3.57109e+07
4.05937e+07
3.5668e+07
4.05752e+07
3.56301e+07
4.05463e+07
3.56098e+07
3.03279e+07
3.33801e+07
3.1464e+07
3.30993e+07
3.24204e+07
3.2873e+07
3.3228e+07
3.26933e+07
3.39124e+07
3.25542e+07
3.44943e+07
3.24507e+07
3.4991e+07
3.23791e+07
3.54169e+07
3.23364e+07
3.5784e+07
3.23201e+07
3.61021e+07
3.23282e+07
3.63796e+07
3.23591e+07
3.66236e+07
3.24113e+07
3.68397e+07
3.24829e+07
3.7033e+07
3.25718e+07
3.72075e+07
3.26745e+07
3.73663e+07
3.27852e+07
3.75112e+07
3.28942e+07
3.76411e+07
3.29857e+07
3.77487e+07
3.30394e+07
3.78154e+07
3.30566e+07
2.34421e+07
2.73204e+07
2.49301e+07
2.73244e+07
2.62181e+07
2.73645e+07
2.73385e+07
2.74348e+07
2.83179e+07
2.7531e+07
2.91785e+07
2.76496e+07
2.99386e+07
2.77882e+07
3.06136e+07
2.7945e+07
3.12166e+07
2.81189e+07
3.17585e+07
2.83097e+07
3.22482e+07
2.85177e+07
3.26933e+07
2.87442e+07
3.30997e+07
2.89915e+07
3.3472e+07
2.9263e+07
3.38135e+07
2.95634e+07
3.41256e+07
2.98984e+07
3.44081e+07
3.02722e+07
3.46573e+07
3.06791e+07
3.48575e+07
3.10679e+07
3.49434e+07
3.12079e+07
1.67778e+07
2.14141e+07
1.85856e+07
2.16871e+07
2.01777e+07
2.19789e+07
2.1587e+07
2.22853e+07
2.28406e+07
2.26031e+07
2.39615e+07
2.29298e+07
2.49693e+07
2.32635e+07
2.58807e+07
2.36028e+07
2.67101e+07
2.39464e+07
2.74705e+07
2.42935e+07
2.81733e+07
2.46434e+07
2.88292e+07
2.49957e+07
2.94488e+07
2.53497e+07
3.00427e+07
2.5705e+07
3.06232e+07
2.60616e+07
3.12057e+07
2.64204e+07
3.18131e+07
2.67875e+07
3.24867e+07
2.71874e+07
3.33213e+07
2.77146e+07
3.45883e+07
2.87359e+07
1.03575e+07
1.56879e+07
1.24536e+07
1.62143e+07
1.4322e+07
1.6744e+07
1.5995e+07
1.72743e+07
1.74994e+07
1.78031e+07
1.88586e+07
1.83289e+07
2.00922e+07
1.88505e+07
2.12173e+07
1.93671e+07
2.22489e+07
1.98781e+07
2.32e+07
2.03835e+07
2.4082e+07
2.08834e+07
2.49054e+07
2.1378e+07
2.56798e+07
2.18684e+07
2.64138e+07
2.23562e+07
2.7116e+07
2.28446e+07
2.7794e+07
2.33393e+07
2.8453e+07
2.38507e+07
2.90883e+07
2.43934e+07
2.96511e+07
2.49652e+07
2.99077e+07
2.54119e+07
4.19638e+06
1.01616e+07
6.55278e+06
1.0926e+07
8.67213e+06
1.16801e+07
1.05853e+07
1.24225e+07
1.23189e+07
1.31517e+07
1.38958e+07
1.3867e+07
1.53358e+07
1.4568e+07
1.66559e+07
1.52545e+07
1.7871e+07
1.59267e+07
1.8994e+07
1.6585e+07
2.00362e+07
1.72302e+07
2.10071e+07
1.78631e+07
2.19152e+07
1.84853e+07
2.27669e+07
1.90983e+07
2.35669e+07
1.97043e+07
2.43167e+07
2.03047e+07
2.50124e+07
2.08982e+07
2.56421e+07
2.14747e+07
2.6192e+07
2.20085e+07
2.67191e+07
2.24956e+07
-1.69502e+06
4.85043e+06
898016
5.83821e+06
3.24585e+06
6.80387e+06
5.37831e+06
7.74645e+06
7.32138e+06
8.66537e+06
9.09761e+06
9.56041e+06
1.07266e+07
1.04317e+07
1.22254e+07
1.12795e+07
1.36088e+07
1.21046e+07
1.48896e+07
1.29077e+07
1.60787e+07
1.36897e+07
1.71854e+07
1.44517e+07
1.82176e+07
1.51946e+07
1.91813e+07
1.59192e+07
2.00808e+07
1.66253e+07
2.09187e+07
1.73114e+07
2.16969e+07
1.79736e+07
2.24198e+07
1.86064e+07
2.31005e+07
1.92075e+07
2.37467e+07
1.97763e+07
-7.30816e+06
-233265
-4.49844e+06
964268
-1.94152e+06
2.12905e+06
391714
3.26051e+06
2.52678e+06
4.35852e+06
4.48599e+06
5.42329e+06
6.28886e+06
6.45533e+06
7.95237e+06
7.45539e+06
9.49133e+06
8.42438e+06
1.09186e+07
9.36329e+06
1.22452e+07
1.02732e+07
1.34807e+07
1.11549e+07
1.46333e+07
1.20092e+07
1.57098e+07
1.28363e+07
1.67161e+07
1.36359e+07
1.76579e+07
1.44072e+07
1.85413e+07
1.51492e+07
1.93731e+07
1.58614e+07
2.01593e+07
1.6544e+07
2.0905e+07
1.71981e+07
-1.26349e+07
-5.07882e+06
-9.62555e+06
-3.68405e+06
-6.87644e+06
-2.33178e+06
-4.3588e+06
-1.02233e+06
-2.04732e+06
244448
80257.7
1.46912e+06
2.04343e+06
2.65254e+06
3.85929e+06
3.79574e+06
5.54279e+06
4.89991e+06
7.107e+06
5.96625e+06
8.56336e+06
6.99593e+06
9.92189e+06
7.99001e+06
1.11914e+07
8.94939e+06
1.23797e+07
9.87472e+06
1.34941e+07
1.07665e+07
1.45413e+07
1.16253e+07
1.55276e+07
1.24516e+07
1.6459e+07
1.32465e+07
1.73405e+07
1.40111e+07
1.81764e+07
1.47469e+07
-1.76666e+07
-9.67605e+06
-1.44727e+07
-8.09553e+06
-1.15465e+07
-6.56667e+06
-8.85919e+06
-5.08963e+06
-6.38543e+06
-3.66398e+06
-4.10283e+06
-2.28886e+06
-1.99175e+06
-963111
-34914.2
314637
1.78288e+06
1.54585e+06
3.47503e+06
2.73203e+06
5.05336e+06
3.87467e+06
6.52837e+06
4.97519e+06
7.90941e+06
6.03492e+06
9.20492e+06
7.05515e+06
1.04225e+07
8.03715e+06
1.15692e+07
8.98222e+06
1.26512e+07
9.89177e+06
1.36742e+07
1.07673e+07
1.46431e+07
1.16103e+07
1.55623e+07
1.24226e+07
-2.23934e+07
-1.40147e+07
-1.9029e+07
-1.22591e+07
-1.59398e+07
-1.05639e+07
-1.30966e+07
-8.92921e+06
-1.04738e+07
-7.35419e+06
-8.04868e+06
-5.83771e+06
-5.80146e+06
-4.37826e+06
-3.71456e+06
-2.97412e+06
-1.7725e+06
-1.62348e+06
38425.9
-324447
1.73038e+06
924845
3.31419e+06
2.12626e+06
4.79956e+06
3.28161e+06
6.19519e+06
4.39271e+06
7.50888e+06
5.46136e+06
8.74767e+06
6.48934e+06
9.91786e+06
7.47846e+06
1.10251e+07
8.43056e+06
1.20744e+07
9.34745e+06
1.30703e+07
1.0231e+07
-2.68046e+07
-1.80843e+07
-2.32835e+07
-1.61636e+07
-2.00448e+07
-1.4312e+07
-1.7059e+07
-1.25292e+07
-1.42999e+07
-1.0814e+07
-1.17444e+07
-9.16493e+06
-9.37253e+06
-7.58014e+06
-7.16635e+06
-6.0575e+06
-5.11013e+06
-4.5948e+06
-3.1899e+06
-3.18974e+06
-1.39323e+06
-1.84006e+06
290937
-543458
1.8725e+06
702296
3.36032e+06
1.89941e+06
4.76234e+06
3.05006e+06
6.08569e+06
4.15638e+06
7.33676e+06
5.22045e+06
8.52128e+06
6.24435e+06
9.64442e+06
7.23007e+06
1.07108e+07
8.17957e+06
-3.08886e+07
-2.18739e+07
-2.72247e+07
-1.97981e+07
-2.38504e+07
-1.77997e+07
-2.07351e+07
-1.5878e+07
-1.78522e+07
-1.40317e+07
-1.51785e+07
-1.22587e+07
-1.26934e+07
-1.05569e+07
-1.03787e+07
-8.92357e+06
-8.21855e+06
-7.35617e+06
-6.19869e+06
-5.852e+06
-4.30654e+06
-4.40837e+06
-2.53083e+06
-3.02263e+06
-861519
-1.69217e+06
710375
-414474
2.19292e+06
812932
3.59335e+06
1.99244e+06
4.91817e+06
3.12637e+06
6.17323e+06
4.21695e+06
7.3638e+06
5.26637e+06
8.49465e+06
6.2767e+06
-3.46334e+07
-2.53728e+07
-3.08414e+07
-2.31515e+07
-2.73453e+07
-2.10158e+07
-2.4114e+07
-1.89647e+07
-2.11202e+07
-1.69963e+07
-1.83403e+07
-1.51082e+07
-1.57534e+07
-1.32977e+07
-1.33412e+07
-1.15616e+07
-1.10874e+07
-9.89703e+06
-8.97777e+06
-8.30083e+06
-6.99946e+06
-6.76995e+06
-5.14112e+06
-5.30139e+06
-3.39259e+06
-3.89227e+06
-1.74476e+06
-2.53977e+06
-189448
-1.24119e+06
1.28068e+06
6081.49
2.67225e+06
1.20455e+06
3.99122e+06
2.35661e+06
5.24296e+06
3.46458e+06
6.43235e+06
4.53068e+06
-3.80267e+07
-2.85701e+07
-3.41221e+07
-2.62133e+07
-3.0519e+07
-2.39501e+07
-2.71855e+07
-2.17791e+07
-2.4094e+07
-1.9698e+07
-2.12202e+07
-1.77036e+07
-1.85432e+07
-1.57929e+07
-1.60443e+07
-1.39622e+07
-1.37073e+07
-1.22082e+07
-1.15177e+07
-1.05272e+07
-9.46259e+06
-8.91594e+06
-7.53055e+06
-7.37111e+06
-5.71131e+06
-5.88954e+06
-3.99565e+06
-4.46821e+06
-2.37529e+06
-3.10419e+06
-842776
-1.79471e+06
608608
-537094
1.98493e+06
671194
3.29165e+06
1.83259e+06
4.53374e+06
2.94945e+06
-4.10564e+07
-3.14558e+07
-3.70559e+07
-2.89736e+07
-3.33615e+07
-2.6593e+07
-2.99405e+07
-2.4312e+07
-2.67646e+07
-2.21277e+07
-2.38096e+07
-2.00364e+07
-2.10541e+07
-1.80344e+07
-1.84795e+07
-1.61174e+07
-1.60695e+07
-1.42817e+07
-1.38097e+07
-1.25233e+07
-1.16872e+07
-1.08387e+07
-9.69034e+06
-9.22418e+06
-7.80889e+06
-7.67649e+06
-6.03352e+06
-6.19236e+06
-4.35584e+06
-4.7687e+06
-2.76827e+06
-3.40258e+06
-1.264e+06
-2.0912e+06
163137
-831906
1.5187e+06
377849
2.8077e+06
1.54051e+06
-4.37106e+07
-3.40206e+07
-3.96328e+07
-3.14235e+07
-3.58641e+07
-2.8936e+07
-3.23708e+07
-2.65556e+07
-2.91246e+07
-2.42784e+07
-2.61008e+07
-2.21e+07
-2.32783e+07
-2.00157e+07
-2.06388e+07
-1.80209e+07
-1.81661e+07
-1.61112e+07
-1.58458e+07
-1.42827e+07
-1.36651e+07
-1.25315e+07
-1.16124e+07
-1.0854e+07
-9.67726e+06
-9.24646e+06
-7.85035e+06
-7.7056e+06
-6.12314e+06
-6.22813e+06
-4.48793e+06
-4.81094e+06
-2.93778e+06
-3.45111e+06
-1.4664e+06
-2.14592e+06
-68148.9
-892759
1.26204e+06
310848
-4.59774e+07
-3.62571e+07
-4.18439e+07
-3.35557e+07
-3.80197e+07
-3.09727e+07
-3.44706e+07
-2.85046e+07
-3.11679e+07
-2.61458e+07
-2.80875e+07
-2.38905e+07
-2.5209e+07
-2.17328e+07
-2.25149e+07
-1.96678e+07
-1.99894e+07
-1.76914e+07
-1.76182e+07
-1.57996e+07
-1.53887e+07
-1.39886e+07
-1.32892e+07
-1.22545e+07
-1.13091e+07
-1.05935e+07
-9.43892e+06
-9.00212e+06
-7.67011e+06
-7.47675e+06
-5.99483e+06
-6.01409e+06
-4.40596e+06
-4.61106e+06
-2.89708e+06
-3.26486e+06
-1.46238e+06
-1.97296e+06
-96702.9
-733017
-4.78447e+07
-3.81611e+07
-4.36831e+07
-3.53659e+07
-3.98254e+07
-3.27009e+07
-3.62371e+07
-3.01593e+07
-3.28905e+07
-2.77316e+07
-2.97639e+07
-2.54082e+07
-2.68393e+07
-2.31837e+07
-2.41005e+07
-2.10546e+07
-2.15322e+07
-1.90175e+07
-1.91202e+07
-1.70686e+07
-1.68514e+07
-1.52041e+07
-1.47142e+07
-1.342e+07
-1.26979e+07
-1.17122e+07
-1.07929e+07
-1.00768e+07
-8.99054e+06
-8.50985e+06
-7.28295e+06
-7.00763e+06
-5.66283e+06
-5.56672e+06
-4.1235e+06
-4.18414e+06
-2.65885e+06
-2.85746e+06
-1.26344e+06
-1.58494e+06
-4.93007e+07
-3.97349e+07
-4.5151e+07
-3.68566e+07
-4.12855e+07
-3.41305e+07
-3.76715e+07
-3.15364e+07
-3.42873e+07
-2.90461e+07
-3.1122e+07
-2.66559e+07
-2.81611e+07
-2.43663e+07
-2.53885e+07
-2.21761e+07
-2.27883e+07
-2.00828e+07
-2.03458e+07
-1.80827e+07
-1.80477e+07
-1.61714e+07
-1.5882e+07
-1.43445e+07
-1.38383e+07
-1.25972e+07
-1.19068e+07
-1.09253e+07
-1.0079e+07
-9.32399e+06
-8.34694e+06
-7.78911e+06
-6.70333e+06
-6.31643e+06
-5.14123e+06
-4.90215e+06
-3.65393e+06
-3.5434e+06
-2.23501e+06
-2.23929e+06
-5.03399e+07
-4.09933e+07
-4.62695e+07
-3.8058e+07
-4.24191e+07
-3.53351e+07
-3.87647e+07
-3.26733e+07
-3.53437e+07
-3.0099e+07
-3.21504e+07
-2.763e+07
-2.91667e+07
-2.52715e+07
-2.63736e+07
-2.3022e+07
-2.37536e+07
-2.08774e+07
-2.12916e+07
-1.88325e+07
-1.89741e+07
-1.68821e+07
-1.67893e+07
-1.50206e+07
-1.47266e+07
-1.32427e+07
-1.27766e+07
-1.15432e+07
-1.09309e+07
-9.91702e+06
-9.18175e+06
-8.35895e+06
-7.52227e+06
-6.8635e+06
-5.94563e+06
-5.42472e+06
-4.44469e+06
-4.03637e+06
-3.01088e+06
-2.6942e+06
-5.10151e+07
-4.19642e+07
-4.71479e+07
-3.93296e+07
-4.31732e+07
-3.64148e+07
-3.94722e+07
-3.35737e+07
-3.60395e+07
-3.08691e+07
-3.28427e+07
-2.8306e+07
-2.98553e+07
-2.58771e+07
-2.70565e+07
-2.3573e+07
-2.4429e+07
-2.13849e+07
-2.19581e+07
-1.93044e+07
-1.96308e+07
-1.73245e+07
-1.74354e+07
-1.54385e+07
-1.53617e+07
-1.36405e+07
-1.34004e+07
-1.19251e+07
-1.15432e+07
-1.02868e+07
-9.78286e+06
-8.72016e+06
-8.11312e+06
-7.2191e+06
-6.52857e+06
-5.77517e+06
-5.02402e+06
-4.37391e+06
-3.59126e+06
-2.98379e+06
-5.20449e+07
-4.48717e+07
-4.73521e+07
-4.07565e+07
-4.34019e+07
-3.72569e+07
-3.97772e+07
-3.41371e+07
-3.63921e+07
-3.12823e+07
-3.32196e+07
-2.86301e+07
-3.02432e+07
-2.61438e+07
-2.74486e+07
-2.37999e+07
-2.48219e+07
-2.15823e+07
-2.23502e+07
-1.94793e+07
-2.00213e+07
-1.74819e+07
-1.78238e+07
-1.55826e+07
-1.57473e+07
-1.37759e+07
-1.37824e+07
-1.20569e+07
-1.19202e+07
-1.04223e+07
-1.01528e+07
-8.86977e+06
-8.47324e+06
-7.39875e+06
-6.87633e+06
-6.01089e+06
-5.36149e+06
-4.71147e+06
-3.94089e+06
-3.51254e+06
-1.92048e+06
170429
-2.32113e+06
671996
-2.32955e+06
1.40164e+06
-2.13564e+06
2.33652e+06
-1.76688e+06
3.47005e+06
-1.22979e+06
4.79546e+06
-527328
6.30499e+06
338040
7.98972e+06
1.36368e+06
9.83949e+06
2.54671e+06
1.18426e+07
3.88414e+06
1.39857e+07
5.37304e+06
1.62533e+07
7.01088e+06
1.86277e+07
8.7961e+06
2.10886e+07
1.0729e+07
2.36119e+07
1.28138e+07
2.61695e+07
1.50621e+07
2.87282e+07
1.75019e+07
3.12482e+07
2.0202e+07
3.3686e+07
2.3364e+07
3.60049e+07
1.13153e+06
2.93182e+06
929681
3.35632e+06
897421
3.98971e+06
1.02469e+06
4.80775e+06
1.29994e+06
5.80162e+06
1.71752e+06
6.96486e+06
2.27421e+06
8.29096e+06
2.96751e+06
9.7727e+06
3.7951e+06
1.1402e+07
4.75461e+06
1.31695e+07
5.84359e+06
1.50648e+07
7.05957e+06
1.7076e+07
8.40026e+06
1.91894e+07
9.86384e+06
2.13895e+07
1.14495e+07
2.36585e+07
1.31583e+07
2.5976e+07
1.49951e+07
2.83178e+07
1.69722e+07
3.06545e+07
1.91187e+07
3.2947e+07
2.15142e+07
3.51332e+07
3.94807e+06
5.40135e+06
3.80732e+06
5.78241e+06
3.7726e+06
6.33884e+06
3.86038e+06
7.05737e+06
4.07012e+06
7.93076e+06
4.39951e+06
8.95355e+06
4.84636e+06
1.01204e+07
5.40865e+06
1.14257e+07
6.08441e+06
1.28629e+07
6.87159e+06
1.44249e+07
7.76807e+06
1.61034e+07
8.77168e+06
1.7889e+07
9.88032e+06
1.97711e+07
1.10921e+07
2.17376e+07
1.24057e+07
2.37745e+07
1.38209e+07
2.58661e+07
1.53395e+07
2.79939e+07
1.69676e+07
3.01356e+07
1.87211e+07
3.22624e+07
2.06432e+07
3.43309e+07
6.50636e+06
7.64052e+06
6.38454e+06
7.98632e+06
6.34896e+06
8.47868e+06
6.41181e+06
9.11193e+06
6.57567e+06
9.88123e+06
6.84025e+06
1.07824e+07
7.20443e+06
1.18113e+07
7.66677e+06
1.29633e+07
8.22569e+06
1.42336e+07
8.87945e+06
1.56165e+07
9.62617e+06
1.71056e+07
1.04639e+07
1.86934e+07
1.13907e+07
2.03718e+07
1.24045e+07
2.21311e+07
1.35039e+07
2.39605e+07
1.46877e+07
2.58474e+07
1.59562e+07
2.77774e+07
1.73122e+07
2.97334e+07
1.87641e+07
3.16939e+07
2.03361e+07
3.36291e+07
8.82008e+06
9.68343e+06
8.70642e+06
9.99632e+06
8.66964e+06
1.04337e+07
8.71561e+06
1.09934e+07
8.8467e+06
1.16727e+07
9.06331e+06
1.24686e+07
9.36496e+06
1.33777e+07
9.75071e+06
1.43968e+07
1.02193e+07
1.55219e+07
1.07693e+07
1.67487e+07
1.13991e+07
1.80722e+07
1.21069e+07
1.94868e+07
1.28908e+07
2.09858e+07
1.37488e+07
2.25619e+07
1.46793e+07
2.42065e+07
1.56807e+07
2.59097e+07
1.67522e+07
2.766e+07
1.78946e+07
2.94441e+07
1.91118e+07
3.12457e+07
2.04167e+07
3.30432e+07
1.09134e+07
1.15534e+07
1.08064e+07
1.18352e+07
1.07689e+07
1.22244e+07
1.08029e+07
1.27206e+07
1.09101e+07
1.33219e+07
1.10907e+07
1.40264e+07
1.13447e+07
1.48316e+07
1.16713e+07
1.5735e+07
1.20696e+07
1.67337e+07
1.25385e+07
1.78243e+07
1.30764e+07
1.9003e+07
1.36819e+07
2.02655e+07
1.43532e+07
2.16067e+07
1.50884e+07
2.30208e+07
1.58857e+07
2.4501e+07
1.67432e+07
2.60396e+07
1.76596e+07
2.76276e+07
1.86343e+07
2.92544e+07
1.96686e+07
3.09074e+07
2.07687e+07
3.25705e+07
1.28115e+07
1.32689e+07
1.27117e+07
1.35218e+07
1.26744e+07
1.38687e+07
1.27e+07
1.43094e+07
1.27893e+07
1.4843e+07
1.29425e+07
1.5468e+07
1.31596e+07
1.61828e+07
1.344e+07
1.69855e+07
1.37832e+07
1.78739e+07
1.4188e+07
1.88454e+07
1.46534e+07
1.98973e+07
1.5178e+07
2.10261e+07
1.576e+07
2.22281e+07
1.63979e+07
2.34987e+07
1.70897e+07
2.48327e+07
1.78335e+07
2.6224e+07
1.86277e+07
2.76656e+07
1.94709e+07
2.91492e+07
2.03628e+07
3.06648e+07
2.13057e+07
3.22003e+07
1.45374e+07
1.48457e+07
1.44454e+07
1.50721e+07
1.44092e+07
1.53816e+07
1.44289e+07
1.57739e+07
1.45047e+07
1.62484e+07
1.46367e+07
1.68042e+07
1.48248e+07
1.74401e+07
1.50688e+07
1.81548e+07
1.5368e+07
1.89467e+07
1.57219e+07
1.98139e+07
1.61293e+07
2.07542e+07
1.65891e+07
2.17653e+07
1.70999e+07
2.28442e+07
1.76601e+07
2.39875e+07
1.8268e+07
2.51913e+07
1.89217e+07
2.64507e+07
1.96193e+07
2.77604e+07
2.03591e+07
2.91137e+07
2.114e+07
3.05031e+07
2.1962e+07
3.19189e+07
1.61113e+07
1.62975e+07
1.60273e+07
1.65002e+07
1.59931e+07
1.67765e+07
1.60086e+07
1.71262e+07
1.60739e+07
1.7549e+07
1.61891e+07
1.80442e+07
1.63541e+07
1.86111e+07
1.65687e+07
1.92487e+07
1.68326e+07
1.99558e+07
1.71452e+07
2.07312e+07
1.75057e+07
2.15734e+07
1.79132e+07
2.24805e+07
1.83664e+07
2.34503e+07
1.88641e+07
2.44805e+07
1.94046e+07
2.55678e+07
1.99861e+07
2.67089e+07
2.06069e+07
2.78995e+07
2.12651e+07
2.91345e+07
2.1959e+07
3.0408e+07
2.26876e+07
3.17126e+07
1.75508e+07
1.76367e+07
1.74745e+07
1.78181e+07
1.74427e+07
1.80651e+07
1.74553e+07
1.83773e+07
1.75124e+07
1.87547e+07
1.7614e+07
1.91967e+07
1.77601e+07
1.97028e+07
1.79507e+07
2.02725e+07
1.81855e+07
2.0905e+07
1.84642e+07
2.15994e+07
1.87861e+07
2.23546e+07
1.91506e+07
2.31694e+07
1.95567e+07
2.40423e+07
2.00032e+07
2.49715e+07
2.04888e+07
2.59547e+07
2.1012e+07
2.69893e+07
2.15709e+07
2.80722e+07
2.21639e+07
2.91995e+07
2.2789e+07
3.03666e+07
2.34449e+07
3.1568e+07
1.8871e+07
1.88743e+07
1.88019e+07
1.90369e+07
1.87727e+07
1.92578e+07
1.87832e+07
1.95369e+07
1.88336e+07
1.98741e+07
1.89239e+07
2.02691e+07
1.90543e+07
2.07216e+07
1.92248e+07
2.12312e+07
1.94352e+07
2.17976e+07
1.96854e+07
2.24202e+07
1.99751e+07
2.30982e+07
2.03036e+07
2.38309e+07
2.06703e+07
2.46172e+07
2.10742e+07
2.5456e+07
2.15144e+07
2.63456e+07
2.19893e+07
2.72841e+07
2.24977e+07
2.82693e+07
2.30377e+07
2.92983e+07
2.36076e+07
3.03677e+07
2.42059e+07
3.14733e+07
2.00849e+07
2.00205e+07
2.00225e+07
2.01662e+07
1.99957e+07
2.0364e+07
2.00047e+07
2.06137e+07
2.00494e+07
2.09152e+07
2.01302e+07
2.12685e+07
2.02471e+07
2.16734e+07
2.04003e+07
2.21297e+07
2.05898e+07
2.26372e+07
2.08157e+07
2.31957e+07
2.10776e+07
2.38048e+07
2.13753e+07
2.4464e+07
2.17084e+07
2.51727e+07
2.20762e+07
2.59301e+07
2.24778e+07
2.67352e+07
2.29122e+07
2.75868e+07
2.33781e+07
2.84831e+07
2.38741e+07
2.94222e+07
2.43987e+07
3.04015e+07
2.49503e+07
3.1418e+07
2.12039e+07
2.10842e+07
2.11475e+07
2.12149e+07
2.11231e+07
2.13921e+07
2.11307e+07
2.16155e+07
2.11705e+07
2.18853e+07
2.12429e+07
2.22013e+07
2.13479e+07
2.25636e+07
2.1486e+07
2.29723e+07
2.16571e+07
2.34272e+07
2.18615e+07
2.39283e+07
2.20992e+07
2.44755e+07
2.237e+07
2.50686e+07
2.26737e+07
2.57073e+07
2.30099e+07
2.63912e+07
2.33781e+07
2.71197e+07
2.37773e+07
2.78921e+07
2.42068e+07
2.87072e+07
2.46653e+07
2.95637e+07
2.51514e+07
3.04598e+07
2.56639e+07
3.13934e+07
2.2238e+07
2.20736e+07
2.21871e+07
2.2191e+07
2.21647e+07
2.23497e+07
2.2171e+07
2.25496e+07
2.22064e+07
2.27909e+07
2.22711e+07
2.30735e+07
2.23654e+07
2.33977e+07
2.24897e+07
2.37634e+07
2.26444e+07
2.41709e+07
2.28295e+07
2.46203e+07
2.30454e+07
2.51116e+07
2.32921e+07
2.56449e+07
2.35695e+07
2.62202e+07
2.38775e+07
2.68374e+07
2.42158e+07
2.74961e+07
2.45839e+07
2.8196e+07
2.4981e+07
2.89366e+07
2.54063e+07
2.97169e+07
2.58587e+07
3.05358e+07
2.63372e+07
3.13918e+07
2.31962e+07
2.29963e+07
2.315e+07
2.31017e+07
2.31293e+07
2.32438e+07
2.31343e+07
2.34226e+07
2.31654e+07
2.36382e+07
2.3223e+07
2.38907e+07
2.33074e+07
2.41803e+07
2.34191e+07
2.45073e+07
2.35585e+07
2.48718e+07
2.37259e+07
2.52743e+07
2.39218e+07
2.57149e+07
2.41463e+07
2.61938e+07
2.43996e+07
2.67113e+07
2.46818e+07
2.72674e+07
2.49928e+07
2.78622e+07
2.53323e+07
2.84956e+07
2.56998e+07
2.91674e+07
2.60949e+07
2.9877e+07
2.65167e+07
3.0624e+07
2.69644e+07
3.14074e+07
2.40863e+07
2.38592e+07
2.40442e+07
2.39538e+07
2.40249e+07
2.4081e+07
2.40285e+07
2.42406e+07
2.40554e+07
2.44329e+07
2.41061e+07
2.4658e+07
2.41811e+07
2.49162e+07
2.42809e+07
2.52079e+07
2.44059e+07
2.55333e+07
2.45568e+07
2.5893e+07
2.47339e+07
2.62872e+07
2.49376e+07
2.67164e+07
2.51684e+07
2.71808e+07
2.54264e+07
2.76809e+07
2.57117e+07
2.82168e+07
2.60244e+07
2.87887e+07
2.63642e+07
2.93967e+07
2.67309e+07
3.00406e+07
2.71239e+07
3.07203e+07
2.75427e+07
3.14352e+07
2.49155e+07
2.46684e+07
2.4877e+07
2.47534e+07
2.48586e+07
2.4867e+07
2.48605e+07
2.50092e+07
2.48833e+07
2.51802e+07
2.49274e+07
2.53803e+07
2.49932e+07
2.56098e+07
2.50815e+07
2.58691e+07
2.51929e+07
2.61587e+07
2.53278e+07
2.64791e+07
2.5487e+07
2.68306e+07
2.56709e+07
2.7214e+07
2.58801e+07
2.76295e+07
2.6115e+07
2.80778e+07
2.63758e+07
2.85591e+07
2.66628e+07
2.90739e+07
2.69759e+07
2.96224e+07
2.73152e+07
3.02049e+07
2.76804e+07
3.08213e+07
2.80712e+07
3.14716e+07
2.56902e+07
2.543e+07
2.56547e+07
2.55062e+07
2.56369e+07
2.56074e+07
2.5637e+07
2.57337e+07
2.56555e+07
2.58852e+07
2.56929e+07
2.60623e+07
2.57499e+07
2.62653e+07
2.5827e+07
2.64948e+07
2.5925e+07
2.67513e+07
2.60445e+07
2.70353e+07
2.61863e+07
2.73474e+07
2.6351e+07
2.76883e+07
2.65393e+07
2.80585e+07
2.67517e+07
2.84585e+07
2.69887e+07
2.88891e+07
2.72506e+07
2.93505e+07
2.75377e+07
2.98434e+07
2.78501e+07
3.03681e+07
2.81878e+07
3.09249e+07
2.85507e+07
3.15139e+07
2.64163e+07
2.61493e+07
2.63834e+07
2.62176e+07
2.63658e+07
2.63074e+07
2.63638e+07
2.6419e+07
2.63779e+07
2.65525e+07
2.64087e+07
2.67083e+07
2.64567e+07
2.68868e+07
2.65228e+07
2.70886e+07
2.66077e+07
2.73143e+07
2.67121e+07
2.75645e+07
2.68369e+07
2.78399e+07
2.69828e+07
2.81412e+07
2.71505e+07
2.8469e+07
2.73408e+07
2.8824e+07
2.75543e+07
2.9207e+07
2.77914e+07
2.96184e+07
2.80526e+07
3.00589e+07
2.83382e+07
3.05291e+07
2.86484e+07
3.10293e+07
2.89832e+07
3.156e+07
2.70993e+07
2.68315e+07
2.70686e+07
2.68925e+07
2.70508e+07
2.69719e+07
2.70465e+07
2.70698e+07
2.7056e+07
2.71865e+07
2.708e+07
2.73225e+07
2.71191e+07
2.74782e+07
2.71742e+07
2.76541e+07
2.7246e+07
2.78511e+07
2.73355e+07
2.80696e+07
2.74434e+07
2.83106e+07
2.75707e+07
2.85747e+07
2.77181e+07
2.88627e+07
2.78865e+07
2.91754e+07
2.80766e+07
2.95135e+07
2.8289e+07
2.98778e+07
2.85243e+07
3.02688e+07
2.87829e+07
3.06873e+07
2.90653e+07
3.11337e+07
2.93715e+07
3.16088e+07
2.77442e+07
2.74814e+07
2.77152e+07
2.75357e+07
2.7697e+07
2.76053e+07
2.769e+07
2.76905e+07
2.76948e+07
2.77916e+07
2.77119e+07
2.7909e+07
2.7742e+07
2.80431e+07
2.77861e+07
2.81948e+07
2.78449e+07
2.83646e+07
2.79194e+07
2.85534e+07
2.80105e+07
2.87619e+07
2.81192e+07
2.89909e+07
2.82464e+07