/*--------------------------------*- C++ -*----------------------------------*\
| =========                 |                                                 |
| \\      /  F ield         | OpenFOAM: The Open Source CFD Toolbox           |
|  \\    /   O peration     | Version:  v2012                                 |
|   \\  /    A nd           | Website:  www.openfoam.com                      |
|    \\/     M anipulation  |                                                 |
\*---------------------------------------------------------------------------*/
FoamFile
{
    version     2.0;
    format      ascii;
    class       volSymmTensorField;
    location    "17";
    object      epsilon;
}
// * * * * * * * * * * * * * * * * * * * * * * * * * * * * * * * * * * * * * //

dimensions      [0 0 0 0 0 0 0];


internalField   nonuniform List<symmTensor> 
30465
(
(0.00067459 -0.000231921 3.27141e-19 -0.000271856 1.21799e-20 0)
(0.000407918 -0.000214344 -1.82619e-19 -0.000104062 -6.36953e-20 0)
(0.00102276 -6.39131e-05 -1.94457e-18 -0.000543347 -1.9975e-18 0)
(0.000627361 -0.000174858 2.47572e-19 -0.000244976 3.23386e-19 0)
(0.000577309 -5.3506e-05 5.06858e-19 -0.000241056 3.28673e-20 0)
(0.000570463 -4.73862e-05 4.30239e-19 -0.000241797 2.14937e-19 0)
(0.00111533 -4.98957e-05 -2.94072e-18 -0.000556713 -2.57152e-18 0)
(0.00128389 0.000456433 -4.5887e-19 -0.000484458 -7.20487e-19 0)
(0.00164669 0.000144236 3.44087e-19 -0.00115743 1.51485e-18 0)
(0.00080892 -0.000170491 8.18305e-19 -0.000443556 2.60171e-19 0)
(0.000913541 0.000341195 5.92684e-19 -0.000329928 1.02021e-18 0)
(0.00117215 -0.000111112 -3.21888e-19 -0.000505652 -2.482e-19 0)
(0.000587904 -0.000283116 4.00223e-19 -0.000223976 3.00196e-19 0)
(0.000214527 -0.000176644 1.16056e-18 -0.000304672 6.77608e-19 0)
(0.000991126 -6.00575e-05 7.37002e-19 -0.000424685 4.094e-19 0)
(0.00112965 -1.02012e-05 1.88789e-18 -0.000586055 1.12445e-18 0)
(0.000581326 -8.13432e-05 -4.94339e-21 -0.000235084 -7.51644e-20 0)
(0.000664956 -0.00014742 7.41624e-19 -0.000451842 3.19266e-19 0)
(0.00165225 0.000161729 3.14192e-18 -0.00106903 2.8961e-18 0)
(0.000518519 -3.23681e-05 -2.4136e-19 -0.000202301 -1.04486e-19 0)
(0.000234372 -0.000134904 3.63735e-19 -2.0792e-05 3.78139e-20 0)
(0.000243762 -0.000132954 8.1922e-20 -1.46163e-05 9.12694e-21 0)
(0.000282479 -0.000270404 -3.67349e-19 -0.000112709 -5.93152e-20 0)
(0.00158981 0.000399403 8.99568e-19 -0.00084899 1.17905e-18 0)
(0.000297497 -0.000270128 -3.73578e-19 -0.000113437 -5.83392e-20 0)
(0.000476855 -9.69262e-05 -5.94049e-20 -0.000123383 3.01019e-20 0)
(0.000479037 -9.8764e-05 6.60839e-19 -0.000123632 1.1979e-19 0)
(0.000416881 -0.000193766 5.06187e-19 -9.60054e-05 5.33008e-20 0)
(0.000404212 -0.000133119 -1.27727e-19 -7.85304e-05 1.07486e-20 0)
(0.000764049 -0.000196455 0 -0.000487386 0 0)
(0.000533713 -0.00029992 -4.57056e-19 -0.000276763 -7.39553e-20 0)
(0.000458342 -4.69134e-05 0 -6.99339e-05 0 0)
(0.000644362 -0.000256828 8.26461e-20 -0.000251067 3.10612e-20 0)
(0.000582964 -0.000189788 -1.59011e-19 -0.000219134 1.46032e-19 0)
(0.00078059 -4.93766e-05 6.8386e-19 -0.000324176 1.78338e-19 0)
(0.000385551 -0.000153273 -5.08419e-20 -6.92628e-05 -3.19755e-20 0)
(0.00161644 0.000232048 1.33379e-19 -0.00103578 1.19639e-18 0)
(-1.69632e-06 0.00011403 -7.23664e-19 -0.000113397 -2.75943e-19 0)
(0.000565955 -0.000172357 -3.24409e-19 -0.000209845 1.2962e-20 0)
(0.00118541 -9.02685e-05 -2.91328e-19 -0.000525917 -1.48223e-19 0)
(0.000312139 -0.000228158 3.36666e-19 -7.39831e-05 3.32303e-20 0)
(0.000935243 -0.000135745 -7.06736e-20 -0.000401369 -2.63242e-19 0)
(0.0015774 0.000411381 5.54599e-19 -0.000824222 -4.04023e-19 0)
(0.000389525 -0.000206782 -1.49508e-19 -9.79041e-05 6.95512e-20 0)
(0.000401484 -0.000204254 1.60583e-19 -8.55257e-05 3.51787e-20 0)
(0.00150155 -4.57956e-05 1.7425e-18 -0.00101347 1.24916e-18 0)
(0.0008219 -0.000215399 -6.63128e-19 -0.000417994 2.59191e-19 0)
(0.00041168 -0.00021218 2.66797e-19 -9.7098e-05 1.18807e-19 0)
(0.000475066 -6.44328e-05 1.7373e-19 -0.000113081 3.12796e-20 0)
(0.00029198 -0.00018589 2.21695e-19 -4.71319e-05 1.13045e-20 0)
(0.000304335 -0.000187962 -2.74403e-20 -4.68764e-05 -3.65318e-21 0)
(0.00056545 -0.000232127 -4.49553e-19 -0.000208252 -2.68607e-20 0)
(0.00113805 0.000305521 -1.72005e-19 -0.000503914 -1.42989e-19 0)
(0.00114375 0.000322325 4.76002e-19 -0.000487018 9.43136e-19 0)
(0.00232374 -0.00184706 1.6219e-18 -0.0019494 -4.92903e-19 0)
(0.00045405 -0.000248467 2.43379e-19 -0.000136999 1.39592e-19 0)
(0.00176856 -0.0015426 -9.78045e-19 -0.00136266 -1.47337e-19 0)
(0.000508406 -0.000128506 -7.76615e-21 -0.000165298 1.37244e-20 0)
(0.000417422 -0.00013053 2.27475e-19 -8.12393e-05 -6.61886e-21 0)
(0.000430819 -2.4009e-05 -2.03052e-19 -2.36477e-05 -3.04638e-20 0)
(0.000429928 -2.40116e-05 -6.68362e-20 -2.16125e-05 -1.2208e-21 0)
(0.000834996 -0.000136708 -1.12979e-18 -0.000488252 -6.16624e-20 0)
(0.00030306 -1.05417e-05 -1.47959e-19 -2.41094e-05 -1.1522e-20 0)
(0.00077194 -0.000126747 -5.8927e-19 -0.000324662 -3.39023e-20 0)
(0.000760967 -0.000127998 -2.18142e-20 -0.00032581 2.78839e-19 0)
(0.000315457 5.79857e-07 5.3022e-19 -0.000870298 4.67246e-19 0)
(0.000849628 -9.01056e-05 -9.66951e-19 -0.000366127 6.01532e-20 0)
(0.0020415 -0.000172635 -1.38582e-18 -0.00143356 -1.76304e-18 0)
(0.000177275 -5.58891e-05 0 4.69941e-06 0 0)
(0.000509909 -0.000183382 -1.88401e-19 -0.000163135 -1.42223e-19 0)
(0.000374799 -0.000290312 -6.60931e-20 -0.000128386 -1.19252e-20 0)
(0.000488168 -2.06389e-05 5.43301e-19 -0.000156824 2.55174e-19 0)
(0.00151212 -1.3754e-05 -1.25977e-19 -0.000690432 -3.22661e-19 0)
(0.00095145 -0.000188307 2.01072e-19 -0.000439869 2.43573e-19 0)
(0.000643383 -0.000257259 -3.43195e-19 -0.000256861 -4.23713e-19 0)
(0.00122627 -7.07944e-05 -2.23555e-19 -0.000515608 -1.09222e-19 0)
(0.000404602 -6.21722e-05 0 -5.35488e-05 0 0)
(0.000402536 -6.08378e-05 2.7749e-19 -5.50563e-05 -5.40112e-21 0)
(0.00025941 1.62348e-05 -2.41315e-19 -0.000366367 -1.09147e-18 0)
(0.00101349 0.00037118 -1.12938e-19 -0.000378995 -6.65874e-19 0)
(0.00132764 5.8984e-05 -1.1054e-19 -0.000608397 -6.90133e-19 0)
(0.00132806 6.82865e-05 1.11865e-18 -0.000602932 8.81104e-19 0)
(0.000579198 -0.000115529 3.1355e-19 -0.000225523 1.81379e-19 0)
(0.000470062 -0.00013817 1.83766e-19 -0.00012304 -9.35206e-21 0)
(0.000559585 -0.000267189 -1.16941e-20 -0.000208116 4.03347e-21 0)
(0.000477015 -2.9738e-05 3.10976e-19 -0.000120676 9.83144e-20 0)
(0.000421609 -0.000131327 6.41129e-20 -8.30622e-05 -3.12579e-20 0)
(0.00118185 -7.9142e-05 -8.96233e-19 -0.000528973 -4.98915e-19 0)
(0.000562724 -2.00882e-05 -7.23855e-19 -0.00023793 -1.37396e-19 0)
(0.000325172 -0.000149944 7.87671e-20 -4.65551e-05 -9.7441e-21 0)
(0.000452713 -3.18664e-05 -9.55889e-20 -6.4888e-05 -3.16463e-20 0)
(0.000451871 -3.45441e-05 -2.35889e-19 -6.1718e-05 -7.05051e-20 0)
(0.000579102 -7.25779e-05 4.34117e-19 -0.000237118 -6.3381e-20 0)
(0.000573838 -7.52751e-05 -1.57663e-19 -0.000238286 6.40392e-20 0)
(0.00081411 -0.000169251 -1.49288e-18 -0.000458418 -3.43539e-19 0)
(0.000433507 -7.12357e-05 0 -6.25193e-05 0 0)
(0.000428191 -0.000138282 -8.79552e-20 -9.03781e-05 2.68113e-20 0)
(0.000429672 -0.000135333 1.43892e-19 -8.86269e-05 3.52349e-20 0)
(0.00118813 0.000443827 7.05441e-19 -0.000471497 4.78667e-19 0)
(0.000422318 -0.000119094 2.52079e-19 -7.80269e-05 -7.34837e-20 0)
(0.000610971 -0.00012777 5.26047e-19 -0.000252495 -1.12114e-19 0)
(0.000234341 -0.000164862 9.34103e-20 -2.98119e-05 1.32878e-20 0)
(0.000241208 -0.000169679 -1.13685e-19 -2.76251e-05 -1.96076e-20 0)
(0.000691166 -0.000289402 -7.97507e-20 -0.000290473 -2.55379e-20 0)
(0.00021288 -0.000209902 -4.20662e-19 -0.000241917 -2.11907e-19 0)
(0.000942368 -3.31142e-05 -3.31457e-19 -0.000419003 -1.95417e-19 0)
(0.000958856 -2.62869e-05 2.16267e-19 -0.000398511 3.27657e-19 0)
(0.000488929 -7.16205e-05 -3.41912e-19 -0.000140665 -7.29194e-20 0)
(0.00037477 -0.000289302 -1.65221e-19 -0.000134004 -3.27768e-20 0)
(0.000131346 -0.000170899 -2.63671e-19 -0.000148564 -1.30921e-19 0)
(0.00103197 -4.60863e-05 -1.86349e-18 -0.000584373 -1.12794e-18 0)
(0.000642499 -0.000127405 3.19349e-19 -0.000261692 -1.49156e-19 0)
(0.000806771 -6.82633e-05 2.57992e-19 -0.000341975 -6.46501e-20 0)
(0.000797035 -6.12556e-05 2.82331e-19 -0.000345487 -6.48435e-20 0)
(0.000627361 -0.000292742 2.70011e-19 -0.000250497 1.02335e-19 0)
(0.000613553 -0.000290161 -4.34345e-19 -0.000244296 -5.87082e-20 0)
(8.02944e-05 -6.38695e-05 1.49082e-19 -4.09853e-05 4.28997e-20 0)
(0.000495237 -1.27283e-05 -4.00304e-19 -0.000155492 -1.91651e-19 0)
(0.000422922 -2.67994e-05 -5.10518e-19 -4.4629e-05 1.81558e-20 0)
(0.00546774 -0.000883845 -2.37836e-18 -0.00400477 -1.98918e-18 0)
(0.0012372 -8.42316e-05 1.44406e-18 -0.000540887 8.41384e-19 0)
(0.000382898 -0.000154633 1.04316e-19 -7.32775e-05 4.24678e-20 0)
(0.000475479 -0.000276644 -2.12864e-19 -0.000160807 -9.40754e-20 0)
(8.60172e-05 -1.76701e-05 1.16212e-19 -0.000362552 2.49018e-19 0)
(0.000400969 -0.000200008 -2.56735e-20 -9.30848e-05 -1.32998e-22 0)
(0.000397683 -0.000199074 1.26416e-20 -8.92277e-05 -3.84623e-20 0)
(0.000159851 -8.07205e-05 1.00395e-19 -7.75128e-06 2.81612e-21 0)
(0.000747105 -0.000114339 4.23479e-20 -0.000308256 -1.28689e-19 0)
(0.000513434 -5.67152e-06 -5.07308e-20 -0.000204057 -1.04716e-20 0)
(0.000153216 8.70158e-06 -8.33401e-20 -0.000510167 -1.22159e-19 0)
(0.00241808 -5.85059e-05 3.75776e-19 -0.00150921 8.95673e-19 0)
(0.000424981 -1.58816e-05 -1.72506e-19 -3.71772e-05 -1.2449e-20 0)
(0.00104842 -2.91302e-05 1.87394e-18 -0.000585098 7.65064e-19 0)
(0.00169033 0.000270014 1.43285e-18 -0.000330885 7.6267e-19 0)
(0.000504878 -7.46315e-05 0 -0.000171541 0 0)
(0.000125212 -0.000140193 0 -4.97345e-05 0 0)
(0.0014055 -3.42107e-05 -1.29687e-18 -0.000607139 -1.10437e-18 0)
(0.000461521 -0.000154451 2.54368e-19 -0.000123945 3.66077e-20 0)
(0.0019588 0.000271307 4.33924e-19 -0.00120507 9.01174e-19 0)
(0.00139241 -3.57781e-05 -9.74042e-19 -0.000609688 -7.36137e-19 0)
(0.00045827 -0.000288074 -6.05681e-19 -0.000157245 -9.5036e-20 0)
(0.001332 0.000319157 -6.00388e-19 -0.000360578 -4.81748e-19 0)
(5.06387e-05 -2.97683e-05 -4.34834e-20 -0.000187651 -7.63147e-20 0)
(0.000326478 -0.000232006 -4.16791e-20 -6.86658e-05 1.23338e-20 0)
(0.000373477 -0.000101676 1.79319e-19 -5.12609e-05 1.0431e-20 0)
(0.000834676 -0.000122012 6.09468e-19 -0.000494337 8.33968e-19 0)
(0.000446744 -1.7856e-05 5.04e-19 -6.0602e-05 1.77639e-19 0)
(0.000450297 -2.22917e-05 -2.11999e-19 -5.29238e-05 -7.11342e-20 0)
(0.000811962 -0.000228765 5.04174e-20 -0.000352574 -1.80398e-20 0)
(0.000421107 -1.35023e-06 1.99233e-19 1.00103e-05 8.01115e-21 0)
(0.000520678 1.49905e-06 2.23364e-19 -0.000222788 1.77782e-19 0)
(0.000731081 -0.000277093 -4.96052e-19 -0.000341499 -3.40676e-19 0)
(0.000461766 -7.59636e-05 -7.94768e-20 -9.02192e-05 -3.37274e-20 0)
(0.000459337 -7.56025e-05 -1.35183e-19 -9.44111e-05 -9.74174e-21 0)
(0.000621677 -6.82627e-05 2.20268e-19 -0.00026041 -2.00172e-19 0)
(0.000237593 -0.000210013 4.59627e-19 -0.000277093 1.59555e-19 0)
(0.000910449 -6.43843e-05 -3.23124e-19 -0.000377251 -1.83184e-19 0)
(0.000569181 -0.000154443 -2.05873e-19 -0.000216221 1.30042e-19 0)
(0.00103222 -0.000111115 1.07084e-18 -0.000446268 4.33399e-19 0)
(0.000380545 -0.000190602 3.74326e-19 -8.16928e-05 6.66337e-22 0)
(0.000383897 -0.000189671 -2.04299e-19 -7.82861e-05 -8.73795e-20 0)
(0.00105638 -0.000101182 2.0826e-19 -0.000451733 -1.19037e-20 0)
(0.000886547 -0.00014343 -2.85866e-19 -0.000386233 1.08829e-19 0)
(0.000907779 -0.000138559 -2.27929e-19 -0.000377421 -1.85215e-19 0)
(6.78108e-05 -7.7995e-05 0 -6.64682e-05 0 0)
(0.000418058 -7.9574e-06 -2.79378e-19 -4.24155e-05 -1.42762e-22 0)
(0.00043352 -0.000122684 -3.76051e-19 -8.82582e-05 -5.65649e-20 0)
(0.00223074 0.000223944 2.82685e-18 -0.000973496 2.17852e-18 0)
(0.000476687 -0.000149395 -1.20452e-20 -0.000131737 -5.49871e-20 0)
(0.000734059 -0.000231568 3.90684e-19 -0.000388271 3.48085e-19 0)
(0.000520655 -0.000303685 -3.82335e-19 -0.000197106 -6.38348e-20 0)
(0.000430793 -4.08594e-05 2.44321e-20 -4.23247e-05 1.91529e-20 0)
(0.000437092 -8.35876e-05 3.08839e-20 -6.79632e-05 2.9057e-20 0)
(0.000431011 -8.45125e-05 -3.55778e-19 -7.39503e-05 3.31854e-22 0)
(0.000462704 -0.000159709 0 -0.000124104 0 0)
(0.00075467 -0.000225356 -1.47828e-18 -0.000402183 -8.32588e-19 0)
(0.000734561 -0.000103005 4.82267e-19 -0.000315817 -2.68857e-19 0)
(0.000592805 -0.000309252 1.09537e-19 -0.000255758 3.81446e-20 0)
(6.67508e-05 -6.39922e-05 1.93404e-20 -6.34768e-05 3.24524e-21 0)
(0.00125765 0.000305843 6.39314e-19 -0.000326153 5.08041e-19 0)
(0.00112701 -8.55049e-05 -2.33548e-19 -0.000509276 -4.34653e-19 0)
(0.000706587 -0.000237634 0 -0.000291153 0 0)
(0.000713217 -0.000242431 6.2229e-19 -0.000286852 -9.18431e-20 0)
(0.000536796 -7.5949e-06 -2.48022e-19 -0.000232093 -2.01648e-19 0)
(0.000514669 -1.15378e-05 3.2303e-19 -0.000199602 1.60355e-19 0)
(0.000332107 -0.000275185 -4.98887e-19 -0.000234886 -1.27658e-19 0)
(0.00134977 0.00044452 -7.72767e-19 -0.000620099 -1.22036e-18 0)
(0.000210537 0.000101769 -3.51644e-19 -0.000699069 -8.11565e-19 0)
(0.000420427 -2.58975e-05 -2.14655e-20 -4.3549e-05 -2.85768e-21 0)
(0.000570481 -7.67333e-05 -1.10997e-20 -0.000235472 1.12812e-19 0)
(0.00116809 -2.34604e-05 5.54011e-19 -0.000497228 3.44608e-19 0)
(0.000484907 -7.17774e-05 -1.35596e-19 -0.000130137 -7.7298e-21 0)
(0.000225061 -0.00021549 -2.15201e-19 -5.85309e-05 -3.35731e-20 0)
(0.00126298 0.000335735 0 -0.000369759 0 0)
(0.000580863 -9.39837e-05 -4.66201e-19 -0.00023852 1.54115e-20 0)
(0.000586016 -9.71512e-05 -3.63595e-19 -0.000234141 7.90222e-20 0)
(0.00112281 -4.72853e-05 -8.45247e-19 -0.000533565 -9.17263e-19 0)
(0.0005469 -0.000209509 3.40784e-19 -0.000190634 6.58086e-20 0)
(0.000548946 -0.000134714 3.95776e-19 -0.000206988 -2.56049e-20 0)
(0.000681133 -0.000228182 0 -0.000275024 0 0)
(0.000430068 -3.54229e-05 -1.54153e-19 -3.99011e-05 -4.06628e-20 0)
(0.000420237 -0.000117658 -2.01236e-19 -7.82054e-05 -1.56742e-20 0)
(0.000425041 -1.65121e-05 3.40214e-19 -8.55725e-06 4.26875e-20 0)
(0.00188854 0.000266573 -1.05517e-18 -0.000400857 -5.63801e-19 0)
(0.000540162 -0.000314595 -4.86389e-19 -0.00024309 -1.81457e-19 0)
(0.000456188 -0.000284826 -2.34622e-19 -0.00014734 -1.12823e-20 0)
(0.00011075 -1.1654e-05 -7.49361e-20 -0.000450104 -3.98059e-19 0)
(0.0020314 0.000163226 -1.34969e-19 -0.000799054 -1.1717e-19 0)
(0.000653704 -0.000301165 -1.64396e-19 -0.000282712 -5.76275e-20 0)
(0.000359774 -0.000186171 -5.07509e-19 -6.64229e-05 -3.89222e-20 0)
(0.00103015 -7.12752e-05 2.84356e-19 -0.000541731 -2.06185e-19 0)
(0.000441432 -0.000282798 -1.23581e-19 -0.000139973 -5.64258e-20 0)
(0.000152785 -2.5933e-05 1.30929e-19 2.37014e-06 3.91573e-21 0)
(0.000448779 -0.000123875 -4.68129e-19 -9.84998e-05 -5.35888e-20 0)
(0.001358 -8.00619e-05 3.35916e-18 -0.000956249 2.96871e-18 0)
(0.000904514 -7.11505e-05 -3.62878e-19 -0.000391786 -1.78031e-20 0)
(0.000916586 -5.99193e-05 -3.21628e-20 -0.000389959 -1.8712e-19 0)
(0.000484314 -0.000100699 5.00633e-19 -0.000131821 1.50347e-19 0)
(0.000480398 -0.000100651 -1.3657e-19 -0.000131194 -5.88526e-20 0)
(0.00114816 -3.86371e-05 -1.20818e-18 -0.000491491 -5.34272e-19 0)
(0.000709495 -0.000109089 4.91011e-19 -0.000297576 1.42976e-19 0)
(0.000615149 -0.000257634 -5.09631e-20 -0.000236464 4.77145e-21 0)
(0.000459311 -7.2454e-05 8.80079e-20 -8.38577e-05 3.18233e-20 0)
(0.000507046 -7.83513e-05 2.2295e-19 -0.00017016 5.16491e-20 0)
(0.000850233 -5.23204e-05 2.87615e-19 -0.000354572 -8.74121e-20 0)
(0.000182255 2.65041e-05 -8.553e-20 -0.000579184 -2.05785e-19 0)
(0.000831612 -0.000137686 0 -0.000493981 0 0)
(0.00063127 -0.000265685 -3.86911e-19 -0.000357451 -3.3323e-19 0)
(0.000324714 -0.000146484 7.51293e-20 -4.36185e-05 4.01547e-20 0)
(0.000341292 -0.000287299 2.26578e-19 -0.000222291 -6.90651e-21 0)
(0.000855232 -0.000122231 9.7591e-19 -0.000486201 -9.72684e-20 0)
(0.000440944 -9.48098e-05 8.64909e-20 -7.65632e-05 3.08038e-20 0)
(0.000438374 -9.51051e-05 -1.02843e-19 -8.04846e-05 -6.71894e-20 0)
(0.000238312 -2.31924e-05 3.12806e-20 -0.00041885 -3.52862e-19 0)
(0.000232786 -0.000244389 6.64909e-20 -0.00019104 1.29838e-19 0)
(9.28655e-05 -0.000103848 -1.45483e-19 -4.90802e-05 -8.14132e-21 0)
(0.000730946 -7.12478e-05 4.24901e-19 -0.00030156 -1.32454e-19 0)
(0.000711573 -7.64184e-05 0 -0.000309594 0 0)
(0.00123258 1.47346e-05 -1.90774e-18 -0.000595937 -1.29038e-18 0)
(0.00123143 1.30836e-05 2.06252e-18 -0.000586261 2.05701e-18 0)
(0.000767856 -0.000212242 -1.31975e-18 -0.00040551 -6.74476e-19 0)
(0.000342456 -0.000280229 -8.02171e-19 -0.000220029 -2.34508e-19 0)
(0.000525486 -0.000287719 -2.31373e-19 -0.000184675 -1.23849e-19 0)
(0.000356526 -0.000228018 -1.20513e-18 -0.000320686 -5.70578e-19 0)
(0.000444202 -0.000163743 -3.62766e-19 -0.000103756 -3.27409e-20 0)
(0.000998737 -2.34182e-05 9.51406e-19 -0.000438468 6.62044e-19 0)
(0.000651482 -0.000298219 -5.06807e-19 -0.000277475 -1.67968e-19 0)
(0.000590967 -0.000292099 -3.68102e-19 -0.000224485 -8.27635e-20 0)
(0.0018953 -0.000177731 -1.00948e-18 -0.00125852 -1.01477e-18 0)
(0.000229488 -0.000243979 3.73004e-19 -0.000191914 1.68091e-19 0)
(0.000540504 -0.000192588 -2.30312e-19 -0.000193444 1.19075e-19 0)
(0.000136341 -3.447e-06 9.17858e-20 -0.000469615 2.16675e-19 0)
(0.000134649 -3.55349e-06 1.73009e-20 -0.000468798 -4.0912e-20 0)
(0.000821424 -0.000135321 1.67895e-18 -0.000482362 3.61173e-19 0)
(0.000599182 -0.000304933 5.18541e-19 -0.000244086 1.67053e-19 0)
(0.00231174 -0.000108712 2.17372e-18 -0.00148222 1.62036e-18 0)
(0.000375594 -0.000116992 0 -0.000259929 0 0)
(0.000394311 -0.000101647 8.88404e-19 -0.000281437 4.70539e-19 0)
(0.000783697 -0.000262046 -9.22836e-19 -0.000338352 -3.714e-19 0)
(0.00199055 5.38011e-05 1.59229e-19 -0.000343701 1.00218e-19 0)
(0.000492455 -1.82956e-05 1.58722e-19 -0.000149287 1.02175e-19 0)
(0.000309256 -0.000286097 -3.07119e-20 -0.000170208 -7.20233e-20 0)
(0.000330211 -0.00028647 3.07791e-20 -0.000174733 -1.29971e-19 0)
(9.75005e-05 -6.16228e-05 -4.87331e-20 -0.000331246 -1.37152e-20 0)
(0.000847151 -0.000114799 1.00096e-19 -0.000534917 1.47632e-19 0)
(0.000850418 -0.00010388 1.15923e-18 -0.000513078 2.87359e-19 0)
(0.000532442 -0.000208359 -1.78254e-19 -0.000177259 3.9084e-20 0)
(0.000953583 -0.000207196 5.61491e-19 -0.000424307 1.90599e-19 0)
(0.000603514 -0.000296349 0 -0.000243307 0 0)
(0.000510248 -0.00021106 3.1687e-19 -0.00016378 -3.45052e-21 0)
(0.000417864 -7.89926e-06 -1.10526e-19 -4.25619e-05 -4.52429e-21 0)
(0.000528686 -4.68979e-05 2.11137e-21 -0.000209221 -1.36745e-20 0)
(0.000403828 -0.000147824 -1.68153e-19 -7.45052e-05 -4.10392e-20 0)
(0.000575445 -5.28835e-05 3.27392e-19 -0.000242176 1.7738e-19 0)
(0.000192626 -0.000202556 6.36569e-19 -0.000238779 4.39321e-19 0)
(0.000524427 -0.000183914 -3.26595e-20 -0.000392613 2.79314e-19 0)
(0.000185 6.28527e-05 3.78223e-19 -0.000453875 1.51533e-19 0)
(0.000414968 -0.000306388 -2.83154e-19 -0.000168216 -5.41184e-20 0)
(0.000930455 -0.000121306 1.48808e-18 -0.000619897 1.20457e-18 0)
(0.000210554 -0.000136299 -3.76353e-20 -1.96154e-05 -6.38478e-22 0)
(0.000974642 -0.000115426 -7.82196e-19 -0.000609042 -3.73628e-19 0)
(0.000682766 -4.73819e-05 6.45185e-19 -0.000286517 3.87404e-20 0)
(0.000200292 4.70491e-05 -1.16531e-18 -0.000446514 -1.01411e-18 0)
(0.000539191 -0.000120942 6.00791e-21 -0.00019024 -1.84929e-20 0)
(0.0003562 -0.000187552 -1.81745e-19 -7.10061e-05 2.30748e-20 0)
(0.000520195 -0.000136133 -2.70779e-20 -0.000180099 -3.09953e-20 0)
(0.000852812 -0.000224448 1.91655e-20 -0.000366591 6.32638e-20 0)
(0.000482369 -8.92379e-05 -2.166e-19 -0.000140163 -5.17515e-20 0)
(0.000419196 -2.22967e-06 6.35469e-20 1.22002e-05 4.94418e-22 0)
(0.000519743 1.0826e-06 -1.59302e-19 -0.000222931 8.29638e-20 0)
(0.000536275 -0.000317197 9.15743e-21 -0.000248843 -5.71097e-21 0)
(0.000446409 -0.000309188 -1.48385e-19 -0.000210213 -1.3062e-19 0)
(0.00047502 -0.000278091 -1.91151e-19 -0.000154136 -7.17434e-20 0)
(0.000537982 -0.00014648 0 -0.000346141 0 0)
(0.00043015 -2.98296e-05 5.2913e-21 -3.46159e-05 1.09222e-20 0)
(0.000507277 -5.32832e-05 -4.86191e-20 -0.000175344 -1.32309e-19 0)
(0.000425223 -1.05242e-05 -2.60294e-19 -3.76551e-05 -3.5685e-20 0)
(0.000133891 -7.68701e-05 -7.48098e-20 -5.494e-06 -7.87302e-21 0)
(0.000144328 -7.073e-05 1.46921e-19 -3.7913e-06 1.14465e-20 0)
(0.000405574 -9.11705e-05 -2.82647e-19 -6.44306e-05 -3.4459e-20 0)
(0.000667347 -7.16304e-05 -2.34983e-19 -0.000283742 7.53383e-20 0)
(0.00066584 -7.45818e-05 -2.33699e-19 -0.000281238 6.94132e-20 0)
(0.00148514 -1.76279e-05 -6.50593e-19 -0.000682291 -2.46492e-19 0)
(0.000302132 -0.000146588 -1.4298e-21 -3.81399e-05 1.84381e-20 0)
(0.000323653 -9.29652e-05 3.35972e-19 -3.61823e-05 4.59867e-21 0)
(0.000844201 -0.00019918 -1.29935e-18 -0.000429163 -8.284e-19 0)
(0.000850073 -0.000198563 2.46665e-20 -0.000424332 -1.68605e-19 0)
(0.000430815 -4.0325e-05 -7.01573e-20 -4.48481e-05 -1.48459e-20 0)
(0.000199985 -0.000106412 1.03387e-18 -0.000369503 3.22449e-19 0)
(2.45423e-06 0.000328361 4.36414e-19 -0.000254385 -7.06381e-19 -1.86575e-34)
(0.000589985 -0.000276565 5.7542e-20 -0.000227262 -4.54293e-20 0)
(0.000595302 -0.000278011 -5.96212e-19 -0.000225297 -1.67111e-19 0)
(0.00139021 0.000461123 -3.94844e-19 -0.000476696 -2.27685e-19 0)
(0.000505942 -2.72035e-05 -4.09709e-20 -0.000179741 2.137e-20 0)
(0.00102149 -0.000138779 -2.23919e-20 -0.00066798 -1.69015e-19 0)
(0.000345565 -0.000146519 5.62287e-19 -0.000382948 2.44001e-19 0)
(0.00193002 0.000130055 -1.24073e-18 -0.000310455 -4.88631e-19 0)
(0.0020418 3.91438e-05 3.11925e-18 -0.00035465 8.27399e-19 0)
(0.000963964 -0.000193363 -1.00746e-18 -0.000422603 -4.94658e-19 0)
(0.00196699 -0.00138814 -4.05032e-19 -0.00108255 3.30994e-19 0)
(0.000735448 -0.000268037 1.68006e-19 -0.000363729 6.32329e-20 0)
(0.00232338 -0.00151412 -3.3218e-18 -0.00192877 -8.2463e-19 0)
(0.000752143 -0.00022185 -1.20304e-18 -0.000406344 -7.51693e-19 0)
(0.000110309 -0.000154137 2.47274e-19 -9.44589e-05 1.71104e-19 0)
(0.000425681 -0.000231587 0 -0.000109313 0 0)
(0.000414065 -0.000229729 0 -0.000111115 0 0)
(0.000166631 -0.000266542 -1.0328e-18 1.5177e-05 -5.3676e-19 0)
(0.000466747 -0.000205545 4.23509e-19 -0.000370883 -2.46317e-19 0)
(0.000498333 -0.000256077 -6.73947e-20 -0.000158841 6.11587e-20 0)
(0.000969359 -7.0681e-05 -1.06635e-19 -0.0005647 -5.45555e-19 0)
(6.25188e-05 -2.63634e-07 -2.65426e-20 -5.72962e-05 1.03481e-20 0)
(0.000896192 -0.00015597 1.17051e-18 -0.000468827 1.03097e-18 0)
(0.000127873 -0.000168155 9.06691e-20 -8.61244e-05 5.98393e-20 0)
(0.00132383 0.000427359 -7.52895e-19 -0.000418384 -7.60278e-19 0)
(0.000161274 -0.000163456 6.16479e-20 -0.000255241 1.7846e-20 0)
(0.000973279 -0.000109146 -8.11677e-19 -0.000420392 -2.94541e-19 0)
(0.000463899 -2.39192e-05 -6.70468e-20 -8.80599e-05 -2.50896e-20 0)
(0.000288068 -0.000250336 -5.89994e-19 -8.18144e-05 -8.85638e-20 0)
(0.00029206 -0.000244589 -2.30484e-19 -7.96813e-05 -3.23855e-20 0)
(0.000766019 -0.000263853 -9.16866e-19 -0.000365852 -5.20541e-19 0)
(0.000827692 -0.000235618 -1.14286e-18 -0.000355718 -3.98867e-19 0)
(0.00057557 -0.000230395 -2.49798e-19 -0.000209574 8.3669e-20 0)
(0.000902206 -9.072e-05 3.44202e-19 -0.000544321 7.45267e-19 0)
(0.000429515 -0.000122746 -1.62835e-19 -8.47283e-05 -3.25644e-20 0)
(0.000467666 -0.000246807 1.42022e-19 -0.000145895 6.02987e-20 0)
(0.000811121 -0.000250237 -1.97479e-19 -0.000366475 -1.41566e-19 0)
(0.00082115 -0.000255822 2.47021e-19 -0.000378567 1.55213e-19 0)
(0.00130291 -5.03694e-05 7.28618e-19 -0.000571072 5.86124e-19 0)
(0.000559244 -0.000207602 5.50436e-19 -0.000386832 7.24528e-19 0)
(0.000446436 -6.42785e-06 -1.471e-20 -5.72585e-05 6.1648e-21 0)
(0.000795012 -0.00026054 -9.82565e-21 -0.000358587 -3.06929e-20 0)
(0.00034146 -0.000127538 3.60312e-22 -4.93468e-05 -6.49915e-20 0)
(0.00127421 0.000318315 -1.07752e-18 -0.000593121 -1.15012e-18 0)
(0.00130818 0.00038954 5.32704e-19 -0.00042945 6.54141e-19 0)
(0.000529367 -0.000298044 2.55453e-19 -0.000195949 9.07116e-20 0)
(0.000894739 -0.00014822 8.50667e-20 -0.000373426 2.29012e-20 0)
(0.000119042 -0.000139576 7.41432e-20 -5.38373e-05 3.4589e-20 0)
(0.00130641 5.7489e-06 1.23166e-18 -0.000581838 3.1899e-19 0)
(0.000209116 -0.000179826 0 -0.000284682 0 0)
(0.000179348 0.000162571 -5.6321e-20 -0.000631175 -6.96005e-19 0)
(0.000678573 -0.00025653 1.91186e-19 -0.000363662 -2.81665e-19 0)
(0.000670064 -0.000259289 5.73606e-19 -0.000360563 2.03197e-19 0)
(0.000472536 -9.15703e-05 0 -0.000109035 0 0)
(0.000232894 -3.64027e-05 0 -0.000405972 0 0)
(0.000207519 0.000120302 -2.06784e-19 -0.000555832 -4.8864e-19 0)
(0.0011327 -9.04359e-05 -6.68989e-19 -0.00052109 -9.02712e-19 0)
(0.00101611 0.000397429 -8.8554e-19 -0.000382982 -1.95595e-18 0)
(0.000167746 -2.03436e-05 1.334e-19 3.34056e-06 -4.45342e-21 0)
(0.000250821 -0.000225475 4.53819e-19 -6.4271e-05 6.48003e-20 0)
(0.000546617 -0.00031302 -1.5342e-19 -0.000258241 -6.90348e-20 0)
(0.00309717 -0.00224542 9.25926e-19 -0.00317341 -5.98581e-19 0)
(0.0004502 -3.43176e-05 3.07365e-21 -5.92041e-05 7.5544e-22 0)
(0.00162848 0.000260317 1.09846e-19 -0.00102944 -4.57615e-19 0)
(0.000492797 -0.0001169 -7.26685e-19 -0.00039436 -4.72929e-19 0)
(0.000485929 -0.000114506 6.62514e-19 -0.000397385 4.758e-19 0)
(0.000910541 -0.000177775 2.84305e-19 -0.00038838 3.34595e-20 0)
(0.000538597 -2.72823e-05 2.11277e-19 -0.00022551 9.47413e-20 0)
(0.000724032 -0.00021343 -5.66289e-20 -0.000293651 -7.17191e-21 0)
(0.000477108 -0.000147461 -4.04702e-19 -0.000131634 4.6872e-21 0)
(0.000587457 -9.04275e-05 4.06254e-20 -0.000245649 4.75472e-20 0)
(0.000315355 -0.000113504 1.4736e-19 -0.000388025 7.16055e-20 0)
(0.000535482 -5.9388e-05 6.80618e-19 -0.000207845 2.21281e-19 0)
(0.000515764 -5.75975e-05 -1.71656e-20 -0.000188999 1.00604e-20 0)
(0.000932774 -0.000118548 -8.36454e-20 -0.000388464 1.66037e-20 0)
(0.00126071 0.000334245 5.32993e-19 -0.000607236 3.91867e-20 0)
(0.000328176 -0.000137294 -4.21963e-19 -3.94309e-05 -2.33689e-20 0)
(7.21276e-05 -9.72055e-05 2.21749e-19 -0.000159713 8.79125e-20 0)
(0.00108154 -0.000114603 5.28872e-19 -0.00048909 4.95787e-19 0)
(0.00108121 -0.000123919 5.50479e-19 -0.000486694 1.58427e-19 0)
(7.25567e-05 -0.000108703 -1.62021e-19 -0.000151994 1.28048e-20 0)
(0.00101532 -0.000147174 1.63405e-18 -0.000652943 6.09432e-19 0)
(0.00020297 -0.000163836 1.63137e-19 -3.11315e-05 1.49726e-20 0)
(0.000299787 -0.000144158 1.91516e-19 -3.51095e-05 -1.18381e-20 0)
(0.000367752 -6.39512e-05 -2.91104e-19 -4.48643e-05 -2.7245e-20 0)
(0.000611099 -0.000272461 -4.6233e-19 -0.000240165 -8.15396e-20 0)
(0.000529733 -2.49569e-05 -7.24959e-20 -0.000219423 4.88691e-20 0)
(7.05672e-05 -8.94628e-05 -1.4117e-19 -9.90011e-05 -5.71235e-20 0)
(0.000396865 -1.37876e-05 6.74525e-20 -4.51889e-05 -2.8583e-20 0)
(0.000532107 -1.16117e-05 5.47074e-19 -0.000223353 1.28436e-19 0)
(0.000528544 -1.11021e-05 -1.22695e-19 -0.000223614 3.98508e-20 0)
(0.000440137 -2.22018e-05 -2.18283e-19 -2.97576e-05 -5.8667e-20 0)
(0.000438354 -2.62433e-05 2.41267e-20 -3.93891e-05 7.25297e-21 0)
(0.000334095 -0.000155416 -3.60062e-20 -0.000369201 -1.25661e-19 0)
(0.000157729 -1.68973e-05 -5.44339e-20 -2.52811e-07 1.87295e-21 0)
(0.000757814 -1.03908e-05 2.44435e-19 -0.000325073 1.13909e-19 0)
(0.00051192 -0.00030744 -1.20975e-18 -0.000199997 -2.26775e-19 0)
(0.000611959 -0.000306179 -2.6215e-19 -0.000273682 -1.3212e-20 0)
(0.000650957 -0.000154265 -1.14977e-19 -0.000268922 8.43753e-20 0)
(0.000532606 -0.000105144 -3.2062e-19 -0.000195033 -1.64815e-19 0)
(0.000328202 -9.48823e-05 1.56324e-19 -3.33896e-05 3.36134e-21 0)
(0.000523193 -3.12191e-06 2.42496e-20 -0.000220908 -9.84189e-20 0)
(0.000890373 -2.86779e-05 2.87183e-19 -0.000374161 1.87305e-19 0)
(0.000384287 -0.000194196 1.55564e-22 -8.1336e-05 1.92681e-20 0)
(0.000799181 -0.000245775 -1.85306e-19 -0.00037712 -2.63766e-19 0)
(0.00061298 -0.000128953 -1.71233e-19 -0.000245391 6.74266e-20 0)
(0.000201422 8.33726e-05 7.51651e-19 -0.000488295 5.74878e-19 0)
(0.000365685 -0.000164612 3.85925e-19 -6.60419e-05 3.34956e-20 0)
(0.00411465 -0.000690104 -3.23574e-19 -0.0028429 -1.2252e-18 0)
(0.00111228 -0.000139101 -1.1211e-18 -0.000487118 -7.35888e-19 0)
(0.00113111 -0.000130894 -7.29531e-19 -0.00049046 -4.53765e-19 0)
(0.000329492 -0.000209482 1.03874e-19 -6.69821e-05 -4.85983e-20 0)
(0.00166153 0.000434814 -7.17207e-19 -0.000476883 -6.35089e-19 0)
(0.00109716 -7.43768e-06 -7.24518e-19 -0.000613398 8.73262e-20 0)
(0.00054475 -0.000289488 -5.32917e-19 -0.000304968 -1.57258e-19 0)
(0.000402428 -2.88799e-05 -5.27773e-19 -4.88218e-05 -3.13792e-21 0)
(0.00053982 -0.000294422 1.19597e-19 -0.000310728 -1.64269e-19 0)
(0.00116354 1.39794e-05 1.16662e-18 -0.000628161 9.0208e-19 0)
(0.000574417 -0.000308646 -4.15261e-19 -0.000233193 -1.0322e-19 0)
(0.000623201 -0.000177218 3.22967e-19 -0.000251288 1.03857e-19 0)
(0.000601297 -0.000292514 -4.80094e-19 -0.000313761 3.06442e-21 0)
(0.00114897 -3.75618e-05 1.0316e-18 -0.000731423 5.08103e-19 0)
(0.000447924 -0.000140059 -4.21909e-19 -0.000107858 -7.8626e-20 0)
(0.000163993 0.000118408 3.51578e-19 -0.000373213 5.10066e-19 0)
(0.000564463 -5.16281e-05 -1.46809e-20 -0.000232521 8.17497e-21 0)
(0.000559727 -4.78813e-05 -4.41281e-19 -0.000236028 1.86475e-21 0)
(0.000521235 4.68708e-07 0 -0.000224795 0 0)
(0.000411375 -1.12757e-06 2.11744e-19 3.22036e-05 1.4097e-20 0)
(0.00060418 -3.32138e-05 -3.23821e-19 -0.000258577 -3.20855e-19 0)
(0.000711582 -0.000271903 8.41478e-19 -0.000469207 3.50803e-19 0)
(0.000251614 -1.53466e-05 -1.25119e-19 -1.66401e-06 2.14601e-21 0)
(0.000930947 -8.37638e-05 1.05561e-18 -0.000537667 1.44152e-18 0)
(0.000239709 -0.000201487 5.54481e-19 -0.000276873 5.28113e-19 0)
(0.000557032 -0.000156159 -4.81742e-19 -0.00020367 -1.86425e-20 0)
(0.000747847 -0.000227783 -5.13211e-19 -0.000405313 -5.3078e-19 0)
(0.000435772 -2.36962e-05 9.03033e-20 -2.47388e-05 1.89468e-20 0)
(0.000446478 -6.83815e-05 -1.68438e-19 -6.84823e-05 -3.30465e-20 0)
(0.000525528 -0.000314123 3.48721e-19 -0.00023469 1.85862e-19 0)