/*--------------------------------*- C++ -*----------------------------------*\
| =========                 |                                                 |
| \\      /  F ield         | OpenFOAM: The Open Source CFD Toolbox           |
|  \\    /   O peration     | Version:  v2012                                 |
|   \\  /    A nd           | Website:  www.openfoam.com                      |
|    \\/     M anipulation  |                                                 |
\*---------------------------------------------------------------------------*/
FoamFile
{
    version     2.0;
    format      ascii;
    class       volScalarField;
    location    "17";
    object      sigmaHyd;
}
// * * * * * * * * * * * * * * * * * * * * * * * * * * * * * * * * * * * * * //

dimensions      [1 -1 -2 0 0 0 0];


internalField   nonuniform List<scalar> 
30465
(
2.36048e+07
1.80643e+07
2.78111e+07
2.19862e+07
1.94995e+07
1.94126e+07
3.33818e+07
4.88906e+07
3.19371e+07
2.11496e+07
3.17777e+07
3.85051e+07
2.11454e+07
-5.00932e+06
3.31568e+07
3.13902e+07
1.99479e+07
1.28668e+07
3.10655e+07
1.84758e+07
1.28159e+07
1.2858e+07
1.0151e+07
4.29203e+07
1.03494e+07
2.06952e+07
2.06441e+07
1.8507e+07
1.93006e+07
1.59387e+07
1.42512e+07
2.22353e+07
2.27021e+07
2.11797e+07
2.57544e+07
1.82996e+07
3.38598e+07
-5.29532e+06
2.077e+07
3.95857e+07
1.44043e+07
3.14286e+07
4.4233e+07
1.7782e+07
1.78115e+07
2.5639e+07
2.40861e+07
1.80842e+07
2.10097e+07
1.45751e+07
1.46964e+07
2.10558e+07
3.69155e+07
3.64768e+07
1.76107e+07
1.86639e+07
1.79751e+07
2.01091e+07
1.96509e+07
2.37638e+07
2.37383e+07
2.06024e+07
1.66448e+07
2.59401e+07
2.5812e+07
-3.1495e+07
2.85511e+07
3.90546e+07
1.0261e+07
2.01507e+07
1.41226e+07
1.97455e+07
4.77501e+07
3.03135e+07
2.28163e+07
4.0216e+07
2.03141e+07
2.03215e+07
-8.18536e+06
3.55895e+07
4.20706e+07
4.24313e+07
2.03614e+07
2.0299e+07
2.08227e+07
2.07776e+07
1.97109e+07
3.976e+07
1.87509e+07
1.64111e+07
2.26274e+07
2.26432e+07
1.97863e+07
1.98074e+07
2.09239e+07
2.15087e+07
1.97914e+07
1.98497e+07
4.28081e+07
1.99256e+07
2.13009e+07
1.20398e+07
1.22388e+07
2.29543e+07
-1.97206e+06
3.18324e+07
3.16188e+07
2.02443e+07
1.42321e+07
-1.63258e+06
2.63143e+07
2.20249e+07
2.69094e+07
2.67917e+07
2.17299e+07
2.14747e+07
2.13626e+06
1.95997e+07
2.20469e+07
7.41988e+07
4.1233e+07
1.82648e+07
1.86037e+07
-1.58494e+07
1.80625e+07
1.79472e+07
9.66448e+06
2.49727e+07
1.79842e+07
-2.17976e+07
5.15875e+07
2.258e+07
2.67583e+07
8.02322e+07
1.96416e+07
4.29261e+06
4.64397e+07
2.00271e+07
3.97284e+07
4.66909e+07
1.78359e+07
5.65898e+07
-7.94633e+06
1.4557e+07
1.84885e+07
1.91115e+07
2.29197e+07
2.29219e+07
2.74503e+07
2.51344e+07
1.73495e+07
2.23316e+07
2.14962e+07
2.15103e+07
2.09452e+07
-2.46355e+06
3.0123e+07
2.06943e+07
3.46432e+07
1.76737e+07
1.76608e+07
3.50263e+07
2.9872e+07
3.0108e+07
320873
2.19015e+07
2.01889e+07
6.80103e+07
2.01618e+07
1.98928e+07
1.86718e+07
2.27697e+07
2.11771e+07
2.12467e+07
1.99612e+07
2.03908e+07
2.47723e+07
1.99033e+07
141376
5.44142e+07
3.5978e+07
2.4589e+07
2.44223e+07
1.79542e+07
1.80979e+07
5.50343e+06
4.13808e+07
-2.60905e+07
2.21477e+07
1.97313e+07
3.86624e+07
2.05134e+07
9.96501e+06
5.30143e+07
2.01943e+07
2.02537e+07
3.34691e+07
2.06104e+07
2.02468e+07
2.3784e+07
2.25837e+07
1.99962e+07
2.44366e+07
8.59025e+07
1.71957e+07
1.76413e+07
-1.88063e+07
7.61575e+07
2.17134e+07
1.69634e+07
2.93953e+07
1.72718e+07
8.68379e+06
2.04634e+07
2.46326e+07
3.03206e+07
3.06315e+07
2.0501e+07
2.05409e+07
3.82815e+07
2.38159e+07
2.20478e+07
2.16775e+07
1.96903e+07
2.81556e+07
-2.31653e+07
2.05123e+07
1.63611e+07
1.62913e+07
7.08508e+06
2.10214e+07
2.10321e+07
2.10792e+07
-1.05503e+07
2.2872e+06
3.26543e+06
2.42494e+07
2.40753e+07
3.74661e+07
3.74142e+07
2.0478e+07
7.19691e+06
1.94732e+07
1.62928e+06
1.9571e+07
3.3596e+07
2.17676e+07
2.0928e+07
3.30245e+07
2.31887e+06
2.05519e+07
-1.96935e+07
-2.02181e+07
1.96683e+07
2.07024e+07
4.99219e+07
7.52583e+06
7.19632e+06
2.56393e+07
9.85864e+07
1.97787e+07
8.3398e+06
8.69847e+06
-1.39361e+07
1.86338e+07
1.87977e+07
2.03868e+07
3.03919e+07
2.12553e+07
2.00435e+07
2.18887e+07
1.87686e+07
1.88658e+07
1.95822e+07
-2.42742e+06
7.40454e+06
-1.52488e+07
1.43832e+07
1.96566e+07
1.16263e+07
2.0035e+07
2.2702e+07
-1.42575e+07
1.99996e+07
1.69551e+07
2.01367e+07
2.8427e+07
2.04044e+07
2.51001e+07
1.73354e+07
1.72467e+07
1.34898e+07
1.85432e+07
1.01954e+07
2.29563e+07
1.92832e+07
2.23255e+07
7.55595e+06
7.692e+06
2.00278e+07
2.24432e+07
2.23362e+07
4.79094e+07
1.54414e+07
1.69512e+07
2.45027e+07
2.44137e+07
2.25016e+07
-9.5729e+06
-1.70117e+07
2.14047e+07
2.1343e+07
5.05749e+07
1.89134e+07
2.07645e+07
-1.71115e+06
9.47307e+07
9.7529e+07
3.15448e+07
3.45075e+07
2.17376e+07
3.594e+07
2.00789e+07
914039
1.80996e+07
1.79798e+07
7.05053e+06
5.60909e+06
1.9417e+07
2.3432e+07
366704
2.50162e+07
2.4679e+06
5.31482e+07
-5.54163e+06
3.26411e+07
2.18906e+07
1.21672e+07
1.22641e+07
2.31825e+07
2.75736e+07
2.11644e+07
2.16372e+07
2.01425e+07
1.90221e+07
2.57732e+07
2.61717e+07
4.34236e+07
9.57474e+06
2.30221e+07
2.58639e+07
1.72458e+07
3.86842e+07
5.19405e+07
1.92813e+07
2.98298e+07
4.26889e+06
4.18967e+07
-4.57166e+06
-2.35422e+07
1.78152e+07
1.81863e+07
2.0942e+07
-9.93458e+06
-2.24022e+07
3.58354e+07
3.64809e+07
1.03166e+07
1.05708e+07
1.68947e+07
1.01444e+07
2.27389e+07
3.51715e+07
4.97491e+06
5.13167e+06
3.03878e+07
1.83618e+07
2.47968e+07
2.0187e+07
2.03802e+07
-4.44536e+06
1.90248e+07
1.91168e+07
3.08257e+07
3.86353e+07
1.6522e+07
-5.13577e+06
3.45939e+07
3.42016e+07
-4.65241e+06
2.05712e+07
1.05528e+07
1.55408e+07
1.87311e+07
2.1938e+07
1.82654e+07
-1.78532e+06
2.03128e+07
1.78367e+07
1.78728e+07
2.36547e+07
2.35135e+07
-2.29984e+06
9.78725e+06
2.54139e+07
1.85128e+07
1.93299e+07
2.26213e+07
1.97959e+07
1.6977e+07
1.75686e+07
2.94478e+07
1.75929e+07
2.43433e+07
2.12234e+07
-1.89457e+07
1.75899e+07
8.50261e+07
3.65301e+07
3.69718e+07
1.56403e+07
6.71731e+07
2.77196e+07
1.39947e+07
2.06352e+07
1.38366e+07
3.1318e+07
1.95928e+07
2.20472e+07
1.73296e+07
2.24044e+07
2.01334e+07
-1.2673e+07
1.91838e+07
1.91195e+07
1.73422e+07
2.5887e+07
2.03272e+07
1.64333e+07
1.42267e+07
2.20455e+07
-2.32254e+06
2.05059e+07
2.05014e+07
2.38765e+07
2.20046e+07
1.68694e+07
1.67213e+07
4.28605e+07
-1.79078e+07
2.18614e+07
1.76462e+07
9.60546e+06
3.18379e+06
2.47904e+07
3.35707e+07
2.01868e+07
8.09018e+06
8.38232e+06
1.65106e+07
1.97781e+07
1.97487e+07
8.76207e+07
2.02693e+07
1.75582e+07
2.52519e+07
1.99623e+07
2.31509e+07
2.12615e+07
2.12019e+07
2.91858e+07
2.98338e+07
1.99042e+07
1.60769e+07
2.11602e+07
3.8906e+07
2.18068e+07
2.1745e+07
-4.73011e+06
1.05692e+07
1.91867e+07
1.9099e+07
1.92291e+07
1.46717e+07
1.9071e+07
1.84683e+07
3.08175e+07
3.10737e+07
1.8868e+07
2.72563e+06
-2.50627e+07
2.25886e+07
1.75115e+07
2.90953e+07
1.41976e+07
3.67073e+07
1.4278e+07
2.0979e+07
2.01033e+07
1.82963e+07
7.37182e+07
2.06212e+07
2.05709e+07
6.77982e+06
1.34866e+07
2.53236e+07
1.69605e+07
3.3401e+07
9.05404e+06
2.29612e+07
1.74843e+07
4.29032e+07
1.66714e+07
2.22332e+07
1.76687e+07
1.76009e+07
1.51542e+07
-9.19404e+06
-3.16168e+07
2.76406e+07
2.93961e+07
2.63327e+07
2.34944e+07
1.92116e+07
1.97133e+07
573269
2.76605e+07
3.94623e+07
-2.72646e+06
-1.17541e+07
1.9982e+07
8.82593e+06
3.2718e+07
9.46394e+06
1.91831e+07
1.82733e+07
6.97758e+06
2.04319e+07
2.52841e+07
7.1582e+06
1.23581e+07
1.39019e+07
2.1948e+07
7.74264e+07
1.18356e+07
1.66832e+07
1.93936e+07
1.93501e+07
3.08346e+07
1.86093e+07
2.6199e+07
2.55925e+07
1.8386e+07
2.04167e+07
2.39225e+07
8.68698e+06
-11754.4
2.17545e+07
1.17672e+07
4.89443e+06
-7.47127e+06
1.27275e+07
6.42618e+06
6.31119e+06
1.80673e+07
8.05315e+06
8.3449e+06
1.78979e+07
6.35033e+06
6.24327e+06
1.72073e+07
2.10268e+07
-5.12344e+06
6.23767e+07
2.04026e+07
6.35557e+07
2.27331e+07
2.2645e+07
2.83673e+07
2.17756e+07
2.95678e+07
2.01827e+07
7.72158e+06
1.65259e+07
2.45453e+07
3.02815e+07
1.83275e+07
1.99879e+07
1.95578e+07
1.95996e+07
1.94506e+07
-2.30176e+07
1.73486e+07
2.59213e+07
2.0149e+07
1.9589e+07
1.96097e+07
2.77138e+07
2.60906e+07
7.14031e+06
2.45523e+07
1.2782e+07
1.74407e+07
1.29627e+07
2.23218e+07
1.87157e+07
1.66138e+07
1.67062e+07
2.81268e+07
2.45144e+07
3.83553e+07
3.87948e+07
4.97864e+07
1.80298e+07
6.36595e+07
2.19821e+07
8.51311e+07
2.18469e+07
6.49026e+07
2.54735e+07
2.00428e+07
1.87939e+07
2.94803e+07
1.98069e+07
-2.16139e+07
2.51407e+07
1.88329e+07
1.68384e+07
2.03167e+07
2.20638e+07
1.1167e+07
2.93905e+07
2.35543e+07
2.20179e+07
2.19215e+07
2.16187e+07
1.67131e+07
2.12443e+07
-1.20443e+07
1.5661e+07
2.48448e+07
4.08612e+06
-2.22963e+07
2.17039e+07
1.37566e+07
1.68079e+07
2.94426e+07
4.2899e+07
1.99611e+07
2.04905e+07
1.9793e+07
1.83713e+07
1.07876e+07
1.48686e+07
2.14318e+07
1.96371e+07
6.97851e+06
1.9534e+07
1.9465e+07
3.89272e+07
1.12747e+07
2.17071e+07
2.17805e+07
1.99953e+07
2.53023e+07
1.7407e+07
1.84509e+07
1.84421e+07
1.42023e+07
7.43158e+07
1.89049e+07
-7.29793e+06
9.50728e+06
1.19123e+07
3.2449e+07
1.99057e+07
1.94287e+07
1.01572e+08
2.00422e+07
1.41371e+07
2.06121e+07
3.25281e+07
1.92623e+07
1.49464e+07
8.75389e+07
5.98605e+07
1.88638e+07
2.1683e+07
2.15897e+07
2.9803e+07
2.07891e+07
1.95514e+07
2.84028e+07
2.39304e+07
2.01055e+07
2.56778e+07
2.1785e+07
2.17734e+07
3.60619e+07
2.00842e+07
3.67726e+07
3.87913e+07
2.46437e+07
1.97989e+07
1.979e+07
7.99586e+07
-5.11533e+06
4.41126e+07
4.40256e+07
2.03573e+07
4.266e+07
2.04907e+07
2.05552e+07
2.58917e+07
3.56979e+07
-1.61441e+07
4.34041e+07
4.31141e+07
1.85937e+07
1.76487e+07
3.61276e+07
3.58262e+07
-2.66536e+06
2.90809e+07
3.87067e+07
2.11141e+07
2.36798e+07
1.61291e+07
2.03869e+07
2.05505e+07
1.74107e+07
1.73839e+07
1.23554e+07
5.32341e+07
1.28773e+07
5.28137e+07
2.32979e+07
2.26205e+07
5.20111e+06
1.66803e+07
1.21448e+07
1.22921e+07
1.64836e+07
1.66162e+07
1.01455e+07
2.02652e+07
1.07642e+07
106777
3.89664e+07
1.91281e+07
1.01944e+07
2.95202e+07
1.4169e+07
2.44836e+07
3.82607e+07
2.92151e+07
1.4823e+07
1.92892e+07
2.96691e+07
6.20357e+06
2948.02
6.04244e+06
4.27538e+07
1.8435e+07
-1.66519e+07
2.69395e+07
-578804
1.64755e+07
1.6415e+07
2.05932e+07
1.86274e+07
1.87921e+07
1.20106e+07
2.06189e+07
1.79469e+07
2.01413e+07
3.08442e+07
3.10455e+07
2.26869e+07
1.46187e+07
1.34431e+07
1.92268e+07
-3.17879e+06
2.20164e+07
2.19676e+07
4.17968e+07
-346003
1.83675e+07
1.83419e+07
1.64294e+07
1.35174e+07
1.35047e+07
3.80035e+07
2.15422e+07
2.28844e+07
1.865e+07
7.66195e+06
-2.968e+07
1.81459e+07
1.73824e+07
3.51172e+06
2.38129e+07
2.07158e+07
2.06866e+07
2.88193e+07
3.928e+07
2.39493e+07
1.66153e+07
4.61482e+06
9.13797e+06
1.76439e+07
3.86663e+07
1.44448e+07
1.95944e+07
2.05652e+07
2.06241e+07
-1.7153e+07
1.87693e+07
1.87925e+07
1.68458e+07
1.69466e+07
8.23176e+06
2.01633e+07
2.01524e+07
1.84313e+06
8.58415e+06
7.79541e+07
2.06072e+07
1.93047e+07
1.79593e+07
1.9454e+07
1.64623e+07
4.25324e+07
1.87655e+07
2.81267e+07
-9.83849e+06
2.02431e+07
2.74041e+07
1.26625e+07
1.32277e+07
5.78694e+07
-8.39623e+06
2.38816e+07
1.97678e+07
1.98299e+07
1.98447e+07
1.81083e+07
2.24526e+07
1.03232e+07
4.14209e+07
4.17089e+07
-2.20844e+06
3.44242e+07
2.09732e+07
-2.3261e+06
5.51741e+07
1.88403e+07
2.91849e+07
2.47345e+07
-5.18157e+06
1.12796e+07
1.7364e+07
4.57218e+07
1.99258e+07
3.48795e+07
1.65169e+07
-333292
1.63586e+07
1.95636e+07
2.50103e+07
2.48199e+07
1.85171e+07
1.06382e+07
2.53492e+07
4.35615e+07
1.99603e+07
1.87119e+07
1.86652e+07
1.88212e+07
3.92532e+07
1.96903e+07
1.5417e+07
1.53616e+07
1.90564e+07
1.61575e+07
2.00398e+07
1.57286e+07
2.09118e+07
1.18851e+07
1.93791e+07
2.04047e+07
2.01572e+07
3.0991e+07
2.43756e+07
-2.57502e+07
2.22676e+07
2.93287e+07
-4.99101e+06
2.02012e+07
2.01225e+07
1.25225e+07
3.24256e+07
2.0669e+07
1.97467e+07
2.06475e+07
1.78318e+07
3.42749e+07
2.02761e+07
2.39803e+07
1.8332e+07
8.94473e+07
7.934e+06
7.95158e+06
-748914
1.41877e+07
1.70319e+07
2.04414e+07
2.33221e+07
1.11664e+06
2.09048e+07
2.25503e+07
3.13366e+07
1.8407e+07
4.00694e+07
377424
2.2686e+07
-2.81724e+06
3.66653e+07
1.76328e+07
3.5628e+07
2.31052e+07
3.59077e+07
2.23258e+07
3.87556e+07
1.86298e+07
4.78757e+07
1.87749e+07
1.91834e+07
-2.45017e+06
2.47517e+07
2.17863e+07
2.00092e+07
2.79378e+07
2.54259e+07
1.56637e+07
4.17926e+07
2.79263e+07
2.51063e+07
4.50655e+06
1.52599e+07
2.1011e+07
2.00421e+07
2.04923e+07
8.35887e+06
2.22369e+07
2.33086e+07
2.01466e+07
3.90165e+07
1.74945e+07
2.35957e+07
1.99332e+07
1.98651e+07
2.80273e+07
7.91062e+06
3.16096e+07
8.46863e+06
2.08898e+07
7.37629e+06
6.21354e+06
1.99439e+07
5.22174e+07
1.13568e+07
-3.06051e+07
1.06914e+07
1.37625e+07
2.04373e+07
1.88421e+07
1.4418e+07
2.68066e+07
1.68801e+07
2.15108e+07
2.38658e+07
-1.45861e+07
2.10116e+07
2.00296e+07
1.93643e+07
1.03221e+08
2.38483e+07
2.38061e+07
2.60896e+07
1.67643e+07
1.95318e+07
2.43103e+06
9.88799e+06
9.71925e+06
1.37264e+07
-799401
1.75066e+07
1.34988e+07
43603.1
1.97979e+07
3.57859e+07
1.72251e+07
2.05473e+07
2.04924e+07
6.49338e+06
1.99099e+07
1.95093e+07
-1.21285e+07
7.87754e+06
1.04658e+07
8.25068e+06
2.10534e+07
4.32936e+07
1.76622e+07
1.77768e+07
3.68365e+07
3.62398e+07
1.80019e+07
1.89598e+07
2.24661e+07
3.4657e+07
3.50101e+07
1.94519e+07
2.00628e+07
3.95242e+06
2.3021e+07
1.90952e+07
1.90467e+07
4.3683e+07
1.39884e+07
2.10394e+07
4.40881e+07
1.2953e+06
-1.75446e+07
1.10524e+06
6.43285e+06
2.07718e+07
1.80738e+07
1.82386e+07
1.2883e+07
-1.35558e+07
1.81842e+07
1.07574e+07
1.78445e+07
1.82194e+07
1.35954e+07
3.78977e+07
8.04829e+06
-4.91984e+06
1.76698e+07
2.30934e+07
-1.44318e+07
2.26867e+07
1.74949e+07
2.64681e+07
1.98607e+07
1.9875e+07
2.31226e+07
3.22922e+07
2.04702e+07
2.0463e+07
1.87562e+07
1.64025e+06
1.81181e+07
1.80448e+07
5.55664e+06
2.40499e+07
1.91432e+07
1.74263e+07
3.55963e+07
2.23039e+07
2.23557e+07
2.05352e+07
1.76509e+07
4.13492e+07
1.97256e+07
1.78939e+07
1.78836e+07
-9.51599e+06
1.91702e+07
9.31337e+07
-2.17468e+06
2.84519e+06
1.26609e+07
2.22342e+07
2.95455e+07
2.51301e+07
2.03662e+07
1.4366e+07
8.87039e+06
1.81081e+07
1.03766e+07
1.91209e+07
1.93229e+07
1.06598e+07
1.3288e+07
-5.15796e+06
1.33444e+07
2.23445e+07
2.03921e+07
1.92981e+07
1.61868e+07
1.61439e+07
2.02116e+07
2.01213e+07
2.61183e+07
2.10598e+07
1.91172e+07
2.02154e+07
2.55571e+07
1.72997e+07
2.6111e+07
-1.28871e+07
1.32247e+07
2.29876e+07
3.2383e+07
-1.23769e+07
2.4727e+07
1.83523e+07
1.22348e+07
1.23553e+07
4.25973e+07
1.88394e+07
1.94343e+07
3.19339e+07
2.2153e+07
2.21393e+07
1.9788e+07
1.98604e+07
1.99931e+07
6.60999e+06
-4.76869e+06
-1.899e+07
4.11751e+07
5.98185e+06
2.32959e+07
8.19132e+07
3.72491e+07
2.40998e+07
3.09605e+07
2.01744e+07
2.01064e+07
1.08659e+07
-7.94167e+06
2.14622e+07
2.15702e+07
1.34636e+07
-7.84329e+06
1.4623e+07
2.03226e+07
-1.07538e+07
4.06598e+07
1.53217e+07
3.6354e+07
1.69857e+07
3.68438e+07
2.09885e+07
2.26128e+07
2.15762e+07
2.15377e+07
3.30772e+07
-2.51836e+06
9.35434e+06
2.05227e+07
2.36341e+07
2.5226e+07
1.83858e+07
1.84192e+07
1.99073e+07
-1.45255e+06
2.08851e+07
5.75642e+07
-4.55641e+06
2.47329e+07
2.61231e+07
1.77669e+07
2.32316e+07
1.95836e+07
5.64382e+07
1.33772e+07
1.74465e+07
1.43627e+07
1.33447e+07
9.83347e+06
3.87701e+07
2.53434e+07
4.36884e+07
1.2799e+07
2.15493e+07
1.98739e+07
3.89537e+07
2.2004e+07
2.19472e+07
2.00993e+07
1.89193e+07
1.23253e+07
1.23454e+07
-7.89938e+06
2.89916e+07
2.94995e+07
1.76707e+07
1.99255e+07
2.5077e+07
2.04883e+07
2.05259e+07
1.82446e+07
2.38503e+07
1.74952e+07
1.4961e+07
8.18448e+07
2.15697e+07
2.1658e+07
2.01835e+07
2.53335e+07
7.96807e+07
5.12907e+06
1.39931e+07
3.36208e+07
1.89428e+07
1.99272e+07
2.26761e+07
2.25786e+07
2.90552e+07
2.05696e+07
2.90805e+07
1.93071e+07
1.93672e+07
2.36266e+07
7.73929e+06
2.18325e+07
-5.75006e+06
2.93627e+07
2.49657e+07
1.75453e+07
1.90378e+07
-705985
7.99497e+07
1.92393e+07
1.02586e+08
2.08817e+07
6.37531e+06
3.59313e+06
2.0831e+07
2.06607e+07
1.7921e+07
1.82091e+07
2.16151e+07
2.4995e+07
2.53345e+07
2.63943e+07
2.00599e+07
7.70224e+06
2.08491e+07
1.7943e+07
2.50013e+07
1.40939e+07
1.8395e+07
1.83199e+07
1.99774e+07
-2.80469e+07
1.37327e+07
2.05791e+07
6.77854e+07
6.52315e+07
1.7577e+07
1.79749e+07
2.50307e+07
2.52923e+07
1.74143e+07
3.71212e+07
1.94909e+07
1.86403e+07
2.03069e+07
2.08559e+07
-1.67462e+07
1.76031e+07
2.00443e+07
1.10358e+07
1.87364e+07
1.87685e+07
3.34202e+07
2.32168e+07
2.30982e+07
2.06357e+07
8.46178e+06
3.38151e+07
2.03423e+07
-4.08903e+06
1.53261e+07
1.90156e+07
1.58863e+07
1.60987e+07
1.95219e+07
2.79669e+07
2.08861e+07
1.06401e+07
2.07289e+07
1.86462e+07
1.60162e+07
2.05889e+07
2.20569e+07
2.09368e+07
1.74869e+07
1.19024e+07
1.85673e+07
5.2624e+07
1.67152e+07
8.55696e+06
5.22533e+06
2.1486e+07
5.48821e+06
8.01336e+06
7.86883e+06
4.8671e+07
4.16308e+07
2.00754e+07
1.06916e+07
-8.15438e+06
-4.64719e+06
6.30787e+07
-1.8571e+06
4.17362e+06
1.76901e+07
8.65873e+06
2.06675e+07
1.85134e+07
1.84397e+07
1.86503e+07
1.90579e+07
1.86685e+07
1.85784e+07
-5.83942e+06
1.02129e+07
2.8322e+07
1.35009e+07
3.28996e+06
3.27469e+07
1.3369e+07
3.72054e+06
-874710
3.58292e+06
2.4965e+07
3.93344e+06
2.69149e+07
2.04005e+07
2.03362e+07
2.00212e+07
1.94093e+07
6.51496e+06
6.85462e+07
1.8976e+07
1.7289e+07
1.60628e+07
2.13556e+07
-6.81467e+06
3.19427e+06
4.77392e+06
-8.94359e+06
1.35687e+07
8.08317e+06
2.52559e+07
3.28691e+07
2.53848e+07
1.36328e+07
3.87188e+07
3.87052e+07
1.19962e+07
5.86226e+07
-8.00349e+06
-5.72437e+06
1.81616e+07
1.81263e+07
2.01232e+07
2.37448e+07
3.67987e+06
1.73581e+07
3.79409e+07
1.95592e+07
1.95164e+07
-9.30403e+06
1.42465e+07
-1.93012e+07
1.21808e+07
3.63988e+07
3.66127e+07
2.27599e+07
2.28219e+07
7.50584e+06
1.68289e+07
1.43937e+07
2.06526e+07
1.74567e+07
2.33191e+07
1.36987e+07
2.03253e+07
1.38971e+07
2.01002e+07
1.569e+07
2.06225e+07
2.36078e+07
1.59706e+07
1.91248e+07
1.91378e+07
2.00818e+07
2.00066e+07
2.1008e+07
-2.30402e+07
1.01524e+07
1.56497e+07
1.39404e+07
1.13519e+07
1.59942e+07
4.82559e+07
5.20929e+07
1.78143e+07
7.17268e+06
2.24451e+07
2.05703e+07
1.14613e+07
7.09521e+06
3.72857e+07
-1.41695e+06
5.28084e+07
1.09757e+07
2.28542e+07
1.95477e+07
2.15438e+07
2.16075e+07
2.51849e+07
1.90221e+07
2.02519e+07
2.05062e+07
3.52599e+07
2.11769e+07
1.97685e+07
2.37056e+07
3.82091e+07
1.11337e+07
-2.73265e+07
1.24088e+06
2.13894e+07
1.00555e+07
2.5782e+07
4.12733e+07
1.1523e+07
2.21767e+06
3.66212e+07
-1.97967e+07
277748
6.37174e+06
2.31755e+07
1.99279e+07
2.70637e+07
2.73275e+07
1.42155e+07
-2.30615e+07
1.94898e+07
9.57356e+06
9.39343e+06
-2.23646e+07
2.09331e+07
2.02979e+07
1.78755e+07
3.39803e+07
1.43664e+07
1.09902e+07
2.22674e+07
2.04747e+07
2.01505e+07
1.99343e+07
2.18214e+07
2.90068e+07
1.89162e+07
2.12836e+07
2.03024e+07
3.80599e+07
2.47718e+07
1.89429e+07
3.57018e+07
-2.32681e+07
3.30544e+07
4.59672e+06
2.21603e+07
3.92759e+07
1.82252e+07
1.97738e+07
1.79876e+07
2.4574e+07
2.34696e+07
-1.77641e+06
2.14129e+07
1.6596e+07
2.7279e+07
1.85987e+07
1.99979e+07
2.00379e+07
1.29011e+07
1.30796e+07
1.59847e+07
3.57548e+07
2.06779e+07
7.49802e+06
2.07173e+07
2.16534e+07
2.16014e+07
2.18094e+07
1.51357e+07
2.16166e+07
2.05692e+07
2.06579e+07
2.09403e+07
1.43469e+07
-3.02901e+07
1.50716e+07
-1.72786e+06
1.50138e+07
2.1334e+07
1.2823e+07
2.09197e+07
2.03188e+07
1.55529e+07
3.82722e+07
2.23454e+07
1.96868e+07
1.92708e+07
1.94631e+07
2.34406e+07
1.86367e+07
1.38365e+07
1.86971e+07
2.52218e+07
2.48345e+07
1.97076e+07
1.02365e+07
1.83167e+07
2.39761e+07
1.57355e+07
4.36591e+07
2.33719e+07
1.42662e+07
1.44315e+07
3.46059e+07
2.62326e+07
1.93325e+07
2.28321e+07
1.62581e+07
1.99332e+07
1.75938e+07
1.76596e+07
1.72952e+07
1.73842e+07
8.3737e+06
1.74602e+07
3.05399e+07
2.44991e+07
2.01716e+07
2.97357e+07
1.3398e+07
-3.18623e+07
2.23843e+07
1.36373e+07
3.31549e+07
3.92537e+07
4.64239e+06
2.32029e+07
2.1287e+07
2.0039e+07
1.79306e+07
4.26252e+07
2.47134e+07
2.01218e+07
700930
1.90085e+07
3.47827e+07
2.26109e+07
2.01325e+07
1.28826e+07
1.62589e+07
1.99049e+07
1.92971e+07
7.55506e+06
4.1016e+07
3.24553e+07
6.2933e+07
2.59107e+07
1.1759e+07
6.72293e+06
6.8766e+06
9.18121e+06
1.042e+07
2.05573e+07
1.36802e+07
3.86236e+07
1.26783e+07
-1.85352e+07
2.39516e+07
2.39907e+07
3.82331e+07
2.91003e+07
1.22968e+07
1.85732e+07
1.92205e+07
8.24476e+06
3.91237e+07
8.51594e+06
1.98757e+07
2.04267e+07
1.89716e+07
2.10522e+07
1.91156e+07
5.91407e+06
2.06562e+07
1.93409e+07
1.33875e+07
1.90345e+07
1.89691e+07
1.82997e+07
1.8266e+07
2.04896e+07
2.16953e+07
1.32251e+07
2.36834e+07
2.13801e+07
8.91158e+06
1.15111e+07
2.85279e+07
1.13081e+07
2.51881e+07
7.36032e+06
4.30122e+07
1.93059e+07
1.93495e+07
2.56219e+07
1.29229e+07
1.36606e+07
1.58811e+07
3.39903e+07
1.91414e+07
2.17539e+07
2.53959e+07
3.38252e+07
-7.41529e+06
2.25826e+07
9.82998e+06
1.47611e+07
2.56088e+07
1.90388e+07
2.21737e+07
2.12604e+07
1.82601e+07
1.67921e+07
1.5819e+07
2.39471e+07
1.86615e+07
6.41711e+07
2.73744e+07
3.66301e+07
-3.59787e+07
3.32365e+07
1.89355e+07
3.27207e+07
1.83113e+07
2.3342e+07
1.45498e+07
2.0205e+07
2.20731e+07
1.2507e+07
1.78158e+07
2.03092e+07
2.42553e+07
2.04382e+07
2.25282e+07
1.43861e+07
1.45682e+07
2.84806e+07
3.44273e+06
1.42283e+07
2.17263e+07
2.01241e+07
2.29088e+07
3.35865e+07
2.51029e+07
-1.12723e+06
6.29946e+06
9.16239e+06
47366.7
1.9816e+07
-6.33472e+06
1.62406e+07
2.16627e+07
2.92048e+07
6.61506e+07
1.67856e+07
1.78644e+07
2.52982e+07
2.49974e+07
1.70618e+07
2.11602e+07
1.49912e+07
1.51109e+07
2.71808e+07
1.97623e+07
2.54319e+07
2.11473e+07
2.10872e+07
2.82621e+07
2.50787e+07
1.31874e+06
6.59622e+06
1.8238e+07
2.56861e+07
6.37095e+06
2.24006e+07
1.90052e+07
-2.84288e+06
1.82234e+07
6.58478e+07
-2.73049e+06
2.45897e+07
3.18373e+07
6.15731e+06
1.86943e+07
1.86555e+07
1.86211e+07
2.15359e+07
1.99896e+07
2.30447e+07
2.29674e+07
2.52706e+07
1.09238e+06
2.98999e+07
3.64549e+07
1.74086e+07
2.61213e+07
1.63539e+07
4.18699e+06
1.77123e+07
2.23332e+07
2.34829e+07
3.68596e+07
1.88717e+07
5.50238e+07
2.47361e+07
5.53471e+07
1.8003e+07
2.90057e+07
2.07013e+07
2.1155e+07
1.59673e+07
2.34393e+07
2.1286e+07
1.81922e+07
7.81739e+06
-3.35449e+06
1.48924e+07
2.11065e+07
-3.60463e+06
3.65675e+07
2.30317e+07
2.29186e+07
1.90009e+07
2.5987e+07
2.51587e+07
-546310
-606580
1.81781e+07
1.8206e+07
2.86638e+07
2.9299e+07
1.77052e+07
2.56514e+07
1.18316e+07
2.73996e+07
4.21513e+07
5.95978e+06
1.96187e+07
2.02897e+07
6.6029e+06
2.2549e+07
1.85515e+07
-6.06728e+06
1.73479e+07
2.54232e+07
-1.1263e+07
2.10119e+07
2.15884e+07
1.40835e+07
2.06389e+07
1.77882e+07
2.73061e+07
2.46292e+07
1.73039e+07
1.84893e+06
1.37275e+07
1.19839e+07
2.00329e+07
1.86736e+07
3.08717e+07
1.81896e+06
1.97157e+07
1.96275e+07
-8.52007e+06
1.91769e+07
1.86807e+07
1.52563e+07
-8.22125e+06
2.24514e+07
1.91076e+07
2.53601e+07
4.09464e+07
2.34533e+07
2.35661e+07
4.85219e+07
2.57364e+07
2.13013e+07
1.9702e+07
1.19885e+07
4.56345e+06
3.05612e+07
1.90005e+07
1.78691e+07
6.17845e+07
2.16377e+07
2.06394e+07
2.40793e+07
2.06012e+07
2.11433e+07
3.60676e+07
2.05822e+07
1.80098e+07
-2.08391e+06
2.0831e+07
1.28093e+07
2.02748e+07
1.85257e+07
1.64696e+07
2.12503e+07
2.92328e+07
3.42392e+07
2.27844e+07
2.3096e+07
2.26333e+07
2.57813e+07
2.31529e+07
8.11663e+06
2.14427e+07
8.33847e+06
1.95348e+07
1.99269e+07
4.11314e+07
4.70033e+07
1.96563e+07
9.2032e+06
1.65388e+07
2.31173e+07
2.10957e+07
3.86846e+07
2.09726e+07
2.09417e+07
7.98841e+06
8.3242e+06
1.35961e+07
1.36541e+07
2.46058e+07
1.83968e+07
2.39875e+07
2.40975e+07
-8.27937e+06
1.46361e+07
1.47193e+07
2.07208e+07
4.40325e+07
3.92175e+07
2.37458e+07
2.25288e+07
2.83807e+07
2.05313e+07
1.19726e+07
5.66956e+06
1.98525e+07
3.18304e+07
1.37361e+06
1.98062e+07
1.96194e+07
3.29493e+07
1.46093e+07
269791
2.24902e+07
-7.72612e+06
3.25589e+07
2.16502e+07
2.15701e+07
2.25649e+07
1.79477e+07
9.63305e+06
-3.30059e+06
2.2932e+07
2.08991e+07
2.26746e+07
3.5143e+07
3.55176e+07
3.98325e+06
1.96547e+07
1.44508e+07
1.44572e+07
-1.71586e+07
3.48188e+07
4.98731e+07
2.13072e+07
4.41578e+07
2.34269e+07
5.46571e+07
2.35374e+07
2.87587e+07
-77226.5
1.94658e+07
1.94323e+07
2.03669e+07
2.56531e+07
2.4738e+07
6.19726e+07
3.31158e+06
2.11038e+07
2.22593e+07
1.91831e+07
2.02213e+07
5.69787e+07
-986581
1.77911e+07
1.7708e+07
1.93774e+07
1.71225e+07
9.18427e+06
1.71911e+07
2.90696e+07
2.916e+07
1.95223e+07
6.2277e+07
6.17267e+07
3.64682e+07
4.34729e+07
2.42231e+07
1.72701e+07
1.97887e+07
1.98431e+07
6.6934e+07
7.45677e+06
4.66849e+07
-1.98609e+07
2.41311e+07
1.72758e+07
2.3618e+07
7.48304e+07
9.67735e+06
1.47555e+07
-60651
2.14958e+07
-5.3825e+06
3.06163e+07
2.1691e+07
2.09495e+07
2.09067e+07
1.86265e+07
-3.27425e+06
-1.69719e+07
1.52274e+07
2.12061e+07
2.2792e+07
1.9537e+07
1.84771e+07
4.78364e+07
1.45235e+07
1.67128e+07
3.6846e+07
-46038.2
1.73298e+07
2.43761e+07
2.23162e+07
1.22021e+07
2.20299e+07
8.51875e+06
4.61347e+07
2.14488e+07
1.414e+07
1.73792e+07
2.18845e+07
2.53853e+07
2.54509e+07
2.15635e+07
1.56578e+07
1.92946e+07
1.80961e+07
9.72382e+06
1.45e+07
1.64375e+07
2.07257e+07
1.95114e+07
2.95232e+07
1.67337e+07
1.92343e+07
1.9235e+07
3.88411e+06
1.73486e+07
2.42419e+07
1.11354e+06
3.27226e+07
1.83152e+07
1.57341e+06
2.01651e+07
3.18184e+07
2.01016e+07
1.93214e+07
1.7979e+07
2.08373e+07
2.70642e+07
3.45452e+07
8.83036e+06
3.49772e+07
1.99881e+07
2.07389e+07
2.06963e+07
4.10573e+06
4.58401e+06
1.39864e+07
1.86271e+07
2.19253e+07
2.19591e+07
1.55565e+07
1.53345e+07
1.71557e+07
5.80499e+06
1.36696e+07
1.80926e+07
3.41048e+07
3.42649e+07
3.01675e+07
1.26199e+07
1.92161e+07
2.87953e+07
6.83591e+07
1.81739e+07
1.80971e+07
1.11288e+07
2.32636e+07
1.76444e+07
3.88165e+07
1.73258e+07
2.54751e+07
1.66577e+07
1.89432e+07
2.20981e+07
1.68517e+06
2.22193e+07
1.92924e+07
1.9556e+07
1.94961e+07
1.7616e+07
2.09516e+07
-1.003e+07
1.81087e+07
-1.05481e+07
7.92791e+06
3.21294e+07
3.35029e+07
3.1207e+07
1.84313e+07
4.14652e+07
2.05347e+07
3.08108e+07
-2.22867e+07
2.54575e+07
2.53225e+07
2.05262e+07
2.08568e+07
406432
2.53733e+07
1.82983e+07
1.83001e+07
8.65334e+06
2.54354e+07
2.24918e+07
4.25082e+07
2.07738e+07
2.37455e+07
4.16788e+07
3.47231e+07
2.07423e+07
2.07345e+07
2.75623e+07
1.32124e+07
1.99254e+07
1.99691e+07
-1.20006e+07
2.26414e+07
9.40789e+06
2.4056e+07
1.90919e+07
1.91924e+07
1.70232e+07
1.71024e+07
9.84517e+06
1.91986e+07
9.09574e+06
1.84703e+07
1.93523e+07
4.45936e+07
1.91137e+07
1.64604e+07
1.54272e+07
1.66378e+07
4.58969e+07
1.14283e+07
1.83672e+07
6.75269e+06
3.21316e+07
2.22274e+07
6.89468e+06
1.68348e+07
2.05287e+07
1.91563e+07
1.91619e+07
3.3593e+07
2.36071e+07
4.95725e+07
2.34751e+07
1.7596e+07
1.04945e+07
1.85544e+07
1.97984e+07
3.16317e+07
-6.07028e+06
2.81779e+07
3.47107e+07
1.8273e+07
2.29345e+07
2.00582e+07
5.03072e+07
7.78567e+06
1.75625e+07
1.32274e+07
3.94779e+07
1.78381e+07
2.02107e+07
-2.41565e+07
2.00902e+07
4.31724e+07
4.39183e+07
1.77916e+07
2.28741e+07
3.16783e+07
2.55622e+07
2.03124e+07
1.75307e+07
1.73101e+06
-4.07213e+06
4.32376e+07
2.05022e+07
1.90874e+07
-2.99616e+07
4.84949e+07
2.24078e+07
3.05278e+07
-1.26939e+07
2.92282e+07
2.66074e+07
1.18773e+07
1.331e+07
1.05163e+07
1.98817e+07
6.72265e+07
1.73642e+07
2.23253e+07
1.90376e+07
1.92624e+07
1.65865e+07
3.27223e+07
4.12732e+07
1.62779e+07
2.10761e+07
2.10339e+07
6.46061e+07
-3.91084e+06
-4.11889e+06
2.14774e+07
2.24458e+07
1.90837e+07
2.04265e+07
4.29013e+07
2.39565e+07
1.23674e+07
3.70065e+07
4.04132e+07
1.90676e+07
2.35943e+07
1.51604e+07
2.09995e+07
1.26156e+07
2.9472e+07
2.9006e+07
1.67378e+07
2.53757e+07
7.96815e+06
2.83754e+07
2.01525e+07
1.81536e+07
-2.21684e+07
4.1292e+07
-1.44218e+06
2.27324e+07
3.36516e+07
3.3985e+07
7.71345e+06
2.10133e+07
1.85888e+07
2.09136e+07
2.1452e+07
4.34526e+07
4.3861e+07
3.17826e+07
3.48267e+07
2.14343e+07
5.10128e+07
1.49112e+07
5.76427e+06
-3.43862e+06
1.9182e+07
-6.79211e+06
3.31658e+06
1.22081e+07
1.22556e+07
2.36361e+07
1.78557e+07
8.92676e+06
3.23012e+07
9.12944e+06
2.03451e+07
2.32524e+07
1.83162e+07
1.9505e+07
2.60581e+07
1.74331e+07
1.76232e+07
3.18308e+07
2.215e+07
-1.74765e+06
-3.91295e+06
3.22282e+07
-1.67416e+07
1.93764e+07
-7.01453e+06
2.06431e+07
2.05033e+07
1.98232e+07
1.92227e+07
6.49322e+06
2.47089e+07
2.35905e+07
1.12509e+07
2.60153e+07
-1.17397e+07
-259937
6.54101e+06
9.20577e+06
3.01602e+07
1.70947e+07
2.00189e+07
1.92872e+07
6.86428e+06
-3.02339e+06
2.36961e+07
1.9534e+07
2.34864e+07
1.85168e+07
1.8587e+07
2.1066e+07
2.25808e+07
1.20764e+07
2.00105e+07
2.49252e+07
2.17454e+07
1.98117e+07
4.59335e+07
4.68693e+07
2.01545e+07
2.21089e+07
1.681e+07
2.08401e+07
1.58657e+07
3.23622e+07
3.6457e+07
2.42418e+07
1.85539e+07
2.35386e+07
1.89103e+07
-1.71522e+07
2.95869e+07
2.11379e+07
2.3183e+07
2.31285e+07
2.45614e+07
6.46401e+06
1.5506e+07
1.83513e+07
1.52599e+07
3.50866e+06
1.87583e+07
-1.1345e+07
2.2614e+07
2.2781e+07
1.27817e+07
2.04766e+07
2.06639e+07
2.0697e+07
1.50226e+07
2.08015e+07
2.0745e+07
1.30114e+07
3.39156e+07
2.84337e+07
2.02831e+07
2.56583e+07
8.91741e+06
3.71964e+07
4.62564e+07
2.11253e+07
2.12079e+07
9.88142e+06
1.95064e+07
2.10178e+07
5.72934e+07
4.59679e+07
2.10414e+07
2.34402e+07
1.88785e+07
1.89337e+07
3.69479e+07
872103
2.17273e+07
-2.05393e+07
2.04782e+07
1.48601e+07
2.1664e+07
1.92991e+07
3.68863e+07
2.48211e+07
1.97137e+07
1.96395e+07
2.01452e+07
2.1702e+07
2.16819e+07
-250655
-1.03211e+07
-1.07832e+07
2.31511e+07
2.31382e+07
1.8017e+07
1.46086e+07
1.47708e+07
2.17704e+07
2.11975e+07
5.33528e+06
2.44532e+07
5.46606e+06
1.69805e+07
1.71794e+07
2.35102e+07
2.93744e+07
2.21494e+07
9.38275e+06
2.64443e+07
2.62276e+07
1.51602e+07
2.43449e+07
2.43501e+07
1.78799e+07
1.78615e+07
2.00084e+07
7.17835e+07
2.02748e+07
1.94467e+07
2.07175e+07
7.7182e+06
5.4932e+07
1.93229e+07
2.00298e+07
2.00037e+07
2.24123e+07
1.78826e+07
1.67464e+07
2.02602e+07
2.93022e+07
-847867
2.08798e+07
-478729
1.72497e+07
1.74389e+07
3.25315e+07
1.59887e+07
2.34502e+07
2.35642e+07
1.75421e+07
-393031
1.96308e+07
2.21938e+07
4.61249e+07
1.91866e+07
1.9022e+07
9.53595e+06
1.12491e+07
1.8726e+07
2.60645e+07
1.00429e+07
2.02248e+07
2.01767e+07
1.70972e+07
2.78545e+07
3.70977e+07
3.69246e+07
1.84258e+07
2.2941e+07
4.26036e+07
2.03425e+07
-7.31295e+06
2.01515e+07
2.01302e+07
2.28266e+07
2.19323e+07
2.08237e+06
1.71201e+07
1.98747e+07
-2.74079e+06
2.35423e+07
437740
1.99598e+07
1.23618e+07
9.32124e+06
1.84655e+07
2.18756e+07
1.97499e+07
1.68229e+07
1.97713e+07
-1.36267e+07
5.66303e+06
2.047e+07
1.79774e+07
3.66065e+07
2.28685e+07