/*--------------------------------*- C++ -*----------------------------------*\
| =========                 |                                                 |
| \\      /  F ield         | OpenFOAM: The Open Source CFD Toolbox           |
|  \\    /   O peration     | Version:  v2012                                 |
|   \\  /    A nd           | Website:  www.openfoam.com                      |
|    \\/     M anipulation  |                                                 |
\*---------------------------------------------------------------------------*/
FoamFile
{
    version     2.0;
    format      ascii;
    class       volSymmTensorField;
    location    "17";
    object      sigma;
}
// * * * * * * * * * * * * * * * * * * * * * * * * * * * * * * * * * * * * * //

dimensions      [1 -1 -2 0 0 0 0];


internalField   nonuniform List<symmTensor> 
30465
(
(5.27004e+07 -1.24881e+07 1.76153e-08 1.73788e+06 6.5584e-10 1.63763e+07)
(3.45753e+07 -1.15416e+07 -9.83335e-09 7.00716e+06 -3.42974e-09 1.26105e+07)
(7.4278e+07 -3.44147e+06 -1.04707e-07 -1.0051e+07 -1.07558e-07 1.92062e+07)
(4.89038e+07 -9.41543e+06 1.33308e-08 1.93185e+06 1.74131e-08 1.51228e+07)
(4.45501e+07 -2.88109e+06 2.72924e-08 484306 1.76978e-09 1.34642e+07)
(4.42307e+07 -2.55156e+06 2.31667e-08 493609 1.15735e-08 1.35135e+07)
(8.34115e+07 -2.68669e+06 -1.58346e-07 -6.6214e+06 -1.38466e-07 2.33555e+07)
(1.03675e+08 2.45771e+07 -2.47084e-08 8.45552e+06 -3.87955e-08 3.45417e+07)
(9.07111e+07 3.9231e+06 6.48472e-09 -2.18698e+07 6.20343e-08 2.697e+07)
(5.8149e+07 -9.1803e+06 4.40626e-08 -9.29205e+06 1.40092e-08 1.45917e+07)
(7.04933e+07 1.83721e+07 3.19137e-08 3.53723e+06 5.49344e-08 2.13026e+07)
(8.96581e+07 -5.98293e+06 -1.73324e-08 -685150 -1.33646e-08 2.65423e+07)
(4.62698e+07 -1.52447e+07 2.15505e-08 2.55313e+06 1.61644e-08 1.46134e+07)
(8.16014e+06 -9.51158e+06 6.24918e-08 -1.97968e+07 3.64866e-08 -3.39133e+06)
(7.63583e+07 -3.23386e+06 3.96847e-08 122274 2.20446e-08 2.29899e+07)
(8.24608e+07 -549293 1.01655e-07 -9.92355e+06 6.05474e-08 2.16333e+07)
(4.50355e+07 -4.38002e+06 -2.66183e-10 1.07497e+06 -4.04731e-09 1.37333e+07)
(4.4847e+07 -7.93802e+06 3.99336e-08 -1.52883e+07 1.71913e-08 9.04166e+06)
(8.97119e+07 5.03411e+06 1.31562e-07 -2.08978e+07 1.21993e-07 2.43825e+07)
(4.07204e+07 -1.7429e+06 -1.29963e-08 1.90699e+06 -5.62618e-09 1.28001e+07)
(2.16025e+07 -7.26406e+06 1.95857e-08 7.86288e+06 2.03613e-09 8.98245e+06)
(2.18708e+07 -7.15908e+06 4.41119e-09 7.95812e+06 4.9145e-10 8.74515e+06)
(2.23142e+07 -1.45602e+07 -1.97803e-08 1.0349e+06 -3.19389e-09 7.10383e+06)
(1.0713e+08 1.91701e+07 4.31356e-08 -9.7435e+06 5.76184e-08 3.13741e+07)
(2.30648e+07 -1.45453e+07 -2.01157e-08 937563 -3.14134e-09 7.04572e+06)
(4.00276e+07 -5.2191e+06 -3.19873e-09 7.70712e+06 1.62087e-09 1.43508e+07)
(4.00593e+07 -5.31806e+06 3.55836e-08 7.6079e+06 6.45022e-09 1.4265e+07)
(3.51951e+07 -1.04336e+07 2.72562e-08 7.57818e+06 2.87004e-09 1.27477e+07)
(3.52203e+07 -7.16797e+06 -6.87759e-09 9.22646e+06 5.78773e-10 1.3455e+07)
(5.21141e+07 -1.05783e+07 0 -1.52709e+07 0 1.09729e+07)
(3.83776e+07 -1.61495e+07 -2.46107e-08 -5.26339e+06 -3.98221e-09 9.63924e+06)
(3.99438e+07 -2.52611e+06 0 1.14982e+07 0 1.52638e+07)
(5.03394e+07 -1.38292e+07 4.45017e-09 2.12395e+06 1.67253e-09 1.5643e+07)
(4.60398e+07 -1.02193e+07 -8.56213e-09 2.84986e+06 7.86326e-09 1.46494e+07)
(5.95941e+07 -2.65874e+06 3.68232e-08 106668 9.60283e-09 1.75623e+07)
(3.3383e+07 -8.25317e+06 -2.73764e-09 8.89308e+06 -1.72176e-09 1.26226e+07)
(9.42199e+07 8.94976e+06 1.05599e-09 -1.91808e+07 5.26559e-08 2.65404e+07)
(-3.3209e+06 6.14006e+06 -3.89665e-08 -9.33552e+06 -1.48585e-08 -3.22955e+06)
(4.48528e+07 -9.28076e+06 -1.74682e-08 3.07889e+06 6.97954e-10 1.43783e+07)
(9.15783e+07 -4.86061e+06 -1.56869e-08 -569876 -7.98121e-09 2.77487e+07)
(2.69372e+07 -1.22854e+07 1.81282e-08 6.14602e+06 1.78932e-09 1.01297e+07)
(7.22055e+07 -7.30937e+06 -3.8055e-09 234095 -1.41746e-08 2.18463e+07)
(1.09697e+08 2.04466e+07 2.88648e-08 -8.9991e+06 -2.05898e-08 3.20006e+07)
(3.35222e+07 -1.11344e+07 -8.05042e-09 7.27597e+06 3.74507e-09 1.25477e+07)
(3.37588e+07 -1.09983e+07 8.64675e-09 7.53525e+06 1.89424e-09 1.21405e+07)
(8.14056e+07 -4.26662e+06 7.68813e-08 -2.44648e+07 5.42534e-08 1.99764e+07)
(6.10926e+07 -1.15984e+07 -3.57069e-08 -5.67091e+06 1.39564e-08 1.68365e+07)
(3.46052e+07 -1.14251e+07 1.4366e-08 7.20949e+06 6.39732e-09 1.24378e+07)
(4.0093e+07 -3.46946e+06 9.35469e-09 8.4235e+06 1.68429e-09 1.45125e+07)
(2.59024e+07 -1.00095e+07 1.19374e-08 7.64249e+06 6.08703e-10 1.01804e+07)
(2.64626e+07 -1.0121e+07 -1.47756e-09 7.55124e+06 -1.9671e-10 1.00754e+07)
(4.50918e+07 -1.24991e+07 -2.42067e-08 3.43095e+06 -1.44635e-09 1.46445e+07)
(8.6813e+07 1.64511e+07 -9.2618e-09 -1.60016e+06 -7.69939e-09 2.55337e+07)
(8.62757e+07 1.7356e+07 2.56309e-08 -1.53471e+06 5.07843e-08 2.46894e+07)
(345612 -2.3546e+07 -3.42209e-08 1.36838e+07 -5.42109e-08 3.88025e+07)
(3.74221e+07 -1.3379e+07 1.3105e-08 5.59643e+06 7.51652e-09 1.29733e+07)
(2.00974e+06 -2.65053e+07 1.66431e-08 1.62709e+07 1.39173e-08 3.56447e+07)
(4.13265e+07 -6.91954e+06 -4.18178e-10 5.05011e+06 7.39007e-10 1.39508e+07)
(3.60934e+07 -7.02856e+06 1.22486e-08 9.2424e+06 -3.564e-10 1.36168e+07)
(3.96536e+07 -1.29279e+06 -1.09335e-08 1.51823e+07 -1.64036e-09 1.64556e+07)
(3.95596e+07 -1.29293e+06 -3.59887e-09 1.52458e+07 -6.57355e-11 1.64096e+07)
(5.93402e+07 -7.36123e+06 -6.08349e-08 -1.19117e+07 -3.32028e-09 1.43788e+07)
(2.79566e+07 -567630 -7.96701e-09 1.03398e+07 -6.20416e-10 1.1638e+07)
(5.9478e+07 -6.82483e+06 -3.17299e-08 430250 -1.82551e-09 1.7912e+07)
(5.89767e+07 -6.8922e+06 -1.17461e-09 457922 1.50144e-08 1.80015e+07)
(-4.55018e+06 31223 2.85503e-08 -6.83986e+07 2.51594e-08 -2.15363e+07)
(6.56221e+07 -4.85184e+06 -5.20666e-08 158353 3.23902e-09 1.98729e+07)
(9.19299e+07 -1.10214e+07 -3.46253e-08 -1.21263e+07 -5.6426e-08 3.73601e+07)
(1.65404e+07 -3.00941e+06 0 7.24783e+06 0 6.99479e+06)
(4.13832e+07 -9.87441e+06 -1.01447e-08 5.14234e+06 -7.65817e-09 1.39265e+07)
(2.98813e+07 -1.56322e+07 -3.55886e-09 2.78669e+06 -6.42129e-10 9.69977e+06)
(4.00843e+07 -1.11132e+06 2.92547e-08 5.35389e+06 1.37401e-08 1.37983e+07)
(1.09078e+08 -748184 -6.02804e-09 -52607.3 -1.59889e-08 3.42245e+07)
(7.23632e+07 -1.01396e+07 1.0827e-08 -2.55398e+06 1.31155e-08 2.11313e+07)
(5.05224e+07 -1.38524e+07 -1.84798e-08 2.04772e+06 -2.28153e-08 1.58787e+07)
(9.34903e+07 -3.81201e+06 -1.20376e-08 -302903 -5.88118e-09 2.74606e+07)
(3.57994e+07 -3.34773e+06 0 1.11297e+07 0 1.40131e+07)
(3.57597e+07 -3.27588e+06 1.49418e-08 1.11201e+07 -2.90829e-10 1.40847e+07)
(7.70262e+06 874179 -1.29939e-08 -2.59931e+07 -5.87712e-08 -6.26562e+06)
(7.87735e+07 1.99866e+07 -6.0813e-09 3.79377e+06 -3.58547e-08 2.42012e+07)
(1.00649e+08 3.17606e+06 -5.95214e-09 -3.59867e+06 -3.7161e-08 2.91612e+07)
(1.00927e+08 3.67696e+06 6.02351e-08 -3.04935e+06 4.74441e-08 2.94162e+07)
(4.5201e+07 -6.22078e+06 1.68835e-08 1.8698e+06 9.76654e-09 1.40133e+07)
(3.93814e+07 -7.43992e+06 9.89509e-09 7.44514e+06 -5.03572e-10 1.40704e+07)
(4.46458e+07 -1.43871e+07 -6.29683e-10 3.30808e+06 2.17187e-10 1.45143e+07)
(4.00672e+07 -1.60128e+06 1.67449e-08 7.8838e+06 5.29385e-09 1.43817e+07)
(3.63364e+07 -7.07147e+06 3.45223e-09 9.16183e+06 -1.68312e-09 1.36344e+07)
(9.16798e+07 -4.26149e+06 -4.82587e-08 -441468 -2.68646e-08 2.80417e+07)
(4.32217e+07 -1.08167e+06 -3.89768e-08 109629 -7.39822e-09 1.29212e+07)
(2.89195e+07 -8.07392e+06 4.2413e-09 8.90343e+06 -5.24682e-10 1.14102e+07)
(4.00433e+07 -1.71588e+06 -5.1471e-09 1.21725e+07 -1.70403e-09 1.56665e+07)
(3.9972e+07 -1.86007e+06 -1.27017e-08 1.23172e+07 -3.79643e-09 1.56405e+07)
(4.48305e+07 -3.90804e+06 2.33755e-08 880229 -3.41282e-09 1.36481e+07)
(4.46837e+07 -4.05328e+06 -8.48957e-09 953921 3.44826e-09 1.37847e+07)
(5.83763e+07 -9.11352e+06 -8.03857e-08 -1.01444e+07 -1.84983e-08 1.45396e+07)
(3.81926e+07 -3.83577e+06 0 1.14835e+07 0 1.48499e+07)
(3.67845e+07 -7.44598e+06 -4.73605e-09 8.86154e+06 1.44368e-09 1.3728e+07)
(3.68646e+07 -7.28717e+06 7.74803e-09 8.95619e+06 1.89726e-09 1.37284e+07)
(9.39217e+07 2.38984e+07 3.79853e-08 4.55724e+06 2.57744e-08 2.99455e+07)
(3.64862e+07 -6.41277e+06 1.35735e-08 9.54457e+06 -3.95682e-09 1.3746e+07)
(4.77651e+07 -6.87995e+06 2.83256e-08 1.27081e+06 -6.03693e-09 1.48667e+07)
(2.09872e+07 -8.87719e+06 5.02978e-09 6.76356e+06 7.15497e-10 8.36881e+06)
(2.13934e+07 -9.13656e+06 -6.12148e-09 6.91779e+06 -1.05579e-09 8.40529e+06)
(5.2979e+07 -1.55832e+07 -4.29427e-09 121517 -1.37512e-09 1.57624e+07)
(1.00119e+07 -1.13024e+07 -2.2651e-08 -1.44772e+07 -1.14104e-08 -1.45088e+06)
(7.31816e+07 -1.78307e+06 -1.78477e-08 -122976 -1.05224e-08 2.24387e+07)
(7.3192e+07 -1.41545e+06 1.16451e-08 102998 1.76431e-08 2.15613e+07)
(4.03204e+07 -3.85649e+06 -1.84107e-08 6.41916e+06 -3.92643e-09 1.39935e+07)
(3.00906e+07 -1.55778e+07 -8.8965e-09 2.69509e+06 -1.76491e-09 9.91071e+06)
(5.74893e+06 -9.20226e+06 -1.41977e-08 -9.32313e+06 -7.04959e-09 -1.32355e+06)
(7.3848e+07 -2.48157e+06 -1.00342e-07 -1.31857e+07 -6.07354e-08 1.82806e+07)
(4.9786e+07 -6.86028e+06 1.71957e-08 1.09874e+06 -8.0315e-09 1.51899e+07)
(6.20085e+07 -3.67571e+06 1.38919e-08 152890 -3.48116e-09 1.8567e+07)
(6.16043e+07 -3.29838e+06 1.52024e-08 83896.2 -3.49157e-09 1.8687e+07)
(4.87467e+07 -1.5763e+07 1.45391e-08 1.47739e+06 5.51032e-09 1.49657e+07)
(4.78845e+07 -1.56241e+07 -2.33878e-08 1.69263e+06 -3.16121e-09 1.4847e+07)
(5.75426e+06 -3.43913e+06 8.02752e-09 -776190 2.30998e-09 1.43071e+06)
(4.01683e+07 -685372 -2.15548e-08 5.12905e+06 -1.03197e-08 1.35017e+07)
(3.80298e+07 -1.44304e+06 -2.74894e-08 1.2854e+07 9.77622e-10 1.52571e+07)
(9.88111e+07 -1.86466e+07 -1.00617e-08 2.90192e+07 -2.73918e-08 9.4766e+07)
(9.53537e+07 -4.53555e+06 7.77569e-08 -389638 4.53053e-08 2.87351e+07)
(3.33251e+07 -8.32637e+06 5.617e-09 8.76179e+06 2.28673e-09 1.27075e+07)
(3.85584e+07 -1.48962e+07 -1.14619e-08 4.29691e+06 -5.0656e-09 1.29557e+07)
(-6.25425e+06 -951469 6.25757e-09 -3.0408e+07 1.34087e-08 -1.08859e+07)
(3.41271e+07 -1.07696e+07 -1.38242e-09 7.52415e+06 -7.16144e-12 1.25364e+07)
(3.38245e+07 -1.07194e+07 6.80703e-10 7.60623e+06 -2.07105e-09 1.24108e+07)
(1.55418e+07 -4.34649e+06 5.4059e-09 6.51711e+06 1.51637e-10 6.93449e+06)
(5.73246e+07 -6.15672e+06 2.28027e-09 497547 -6.92939e-09 1.70959e+07)
(4.00778e+07 -305390 -2.73166e-09 1.4436e+06 -5.63857e-10 1.24313e+07)
(-7.14071e+06 468546 -4.48754e-09 -4.28613e+07 -6.57778e-09 -1.53908e+07)
(1.06076e+08 -6.81245e+06 -3.78618e-09 284121 2.46744e-08 4.84028e+07)
(3.8503e+07 -855161 -9.2888e-09 1.36176e+07 -6.70333e-10 1.56194e+07)
(7.48958e+07 -1.56855e+06 1.00904e-07 -1.30631e+07 4.11958e-08 1.84422e+07)
(1.4685e+08 1.45392e+07 7.71536e-08 3.8015e+07 4.10668e-08 5.58319e+07)
(4.08443e+07 -4.01862e+06 0 4.42178e+06 0 1.36586e+07)
(9.68007e+06 -7.54883e+06 0 259866 0 2.93788e+06)
(1.07791e+08 -1.84211e+06 -6.98312e-08 -581962 -5.94663e-08 3.21102e+07)
(3.88192e+07 -8.31661e+06 1.36967e-08 7.29407e+06 1.97119e-09 1.3968e+07)
(9.96962e+07 8.09635e+06 1.14265e-08 -1.31616e+07 3.31306e-08 3.26504e+07)
(1.07618e+08 -1.92651e+06 -5.24484e-08 -187419 -3.96381e-08 3.2642e+07)
(3.7109e+07 -1.55117e+07 -3.26136e-08 3.96586e+06 -5.11733e-09 1.24329e+07)
(1.10877e+08 1.71854e+07 -3.23286e-08 1.97383e+07 -2.59403e-08 3.9154e+07)
(-2.76045e+06 -1.60291e+06 -2.34142e-09 -1.55914e+07 -4.10925e-09 -5.48715e+06)
(2.75092e+07 -1.24926e+07 -2.24426e-09 6.2322e+06 6.64129e-10 9.92959e+06)
(3.28155e+07 -5.47487e+06 9.65562e-09 9.94496e+06 5.61672e-10 1.27052e+07)
(5.7947e+07 -6.56988e+06 3.28175e-08 -1.36153e+07 4.4906e-08 1.30029e+07)
(4.00444e+07 -961478 2.71385e-08 1.27258e+07 9.56518e-09 1.5989e+07)
(4.00364e+07 -1.20032e+06 -1.14153e-08 1.29399e+07 -3.8303e-09 1.57896e+07)
(6.29259e+07 -1.23181e+07 2.71478e-09 220090 -9.71373e-10 1.92048e+07)
(4.00714e+07 -72704.7 1.07279e-08 1.79354e+07 4.3137e-10 1.73964e+07)
(4.00393e+07 80718.2 1.20273e-08 6512.33 9.57288e-09 1.20028e+07)
(5.4705e+07 -1.49204e+07 -2.67105e-08 -3.04926e+06 -1.83441e-08 1.53391e+07)
(3.96918e+07 -4.09035e+06 -4.27952e-09 9.9695e+06 -1.81609e-09 1.48275e+07)
(3.96939e+07 -4.07091e+06 -7.2791e-09 9.8767e+06 -5.24555e-10 1.49604e+07)
(4.79359e+07 -3.67569e+06 1.18606e-08 438862 -1.07785e-08 1.44609e+07)
(1.10389e+07 -1.13084e+07 2.47491e-08 -1.6675e+07 8.59142e-09 -1.75457e+06)
(6.95769e+07 -3.46685e+06 -1.7399e-08 239269 -9.86373e-09 2.05528e+07)
(4.50073e+07 -8.31618e+06 -1.10855e-08 2.71641e+06 7.00228e-09 1.43591e+07)
(7.97073e+07 -5.98311e+06 5.76606e-08 96216.1 2.33369e-08 2.4126e+07)
(3.28006e+07 -1.02632e+07 2.0156e-08 7.91087e+06 3.58797e-11 1.23097e+07)
(3.28469e+07 -1.02131e+07 -1.10007e-08 7.96011e+06 -4.70505e-09 1.21755e+07)
(8.10555e+07 -5.44825e+06 1.1214e-08 -150345 -6.40971e-10 2.41738e+07)
(6.86292e+07 -7.72317e+06 -1.53928e-08 94868.5 5.86005e-09 2.0892e+07)
(6.94691e+07 -7.46085e+06 -1.22731e-08 266056 -9.9731e-09 2.05887e+07)
(3.94813e+06 -4.19973e+06 0 -3.28228e+06 0 296776)
(3.767e+07 -428476 -1.50434e-08 1.28753e+07 -7.68717e-12 1.51592e+07)
(3.73352e+07 -6.60606e+06 -2.02489e-08 9.23949e+06 -3.0458e-09 1.39918e+07)
(1.32797e+08 7.63931e+06 1.06946e-07 1.7186e+07 8.43688e-08 5.40484e+07)
(3.96381e+07 -8.04432e+06 -6.48588e-10 6.87681e+06 -2.96084e-09 1.39703e+07)
(5.32126e+07 -1.2469e+07 2.10368e-08 -7.22055e+06 1.87431e-08 1.36864e+07)
(4.08998e+07 -1.63523e+07 -2.05873e-08 2.25116e+06 -3.43726e-09 1.28645e+07)
(3.89937e+07 -2.20012e+06 1.31557e-09 1.35181e+07 1.03131e-09 1.57972e+07)
(3.80874e+07 -4.50087e+06 1.66298e-09 1.08921e+07 1.56461e-09 1.45517e+07)
(3.80462e+07 -4.55067e+06 -1.91573e-08 1.0856e+07 1.78691e-11 1.48379e+07)
(3.87986e+07 -8.59972e+06 0 7.20123e+06 0 1.38838e+07)
(5.47002e+07 -1.21346e+07 -7.95997e-08 -7.59191e+06 -4.48316e-08 1.40641e+07)
(5.68096e+07 -5.5464e+06 2.59682e-08 250793 -1.44769e-08 1.72563e+07)
(4.5774e+07 -1.6652e+07 5.89812e-09 82117.6 2.05394e-09 1.38537e+07)
(3.67689e+06 -3.44573e+06 1.04141e-09 -3.33537e+06 1.74744e-10 82611)
(1.05415e+08 1.64684e+07 3.44246e-08 2.0133e+07 2.7356e-08 3.76951e+07)
(8.55755e+07 -4.60411e+06 -1.25757e-08 -2.53201e+06 -2.34044e-08 2.48906e+07)
(5.51795e+07 -1.27957e+07 0 1.45507e+06 0 1.71325e+07)
(5.51736e+07 -1.3054e+07 3.35079e-08 1.32371e+06 -4.9454e-09 1.67696e+07)
(4.13896e+07 -408956 -1.33551e-08 -12117.2 -1.0858e-08 1.24852e+07)
(4.01558e+07 -621267 1.73939e-08 1.69502e+06 8.63449e-09 1.24428e+07)
(2.16411e+07 -1.48176e+07 -2.68632e-08 -8.88926e+06 -6.87387e-09 3.75843e+06)
(1.00964e+08 2.39357e+07 -4.16105e-08 -5.10575e+06 -6.57118e-08 2.82842e+07)
(-5.98539e+06 5.47987e+06 -1.89347e-08 -5.49642e+07 -4.36997e-08 -1.7322e+07)
(3.80216e+07 -1.39448e+06 -1.15583e-09 1.30383e+07 -1.53875e-10 1.53832e+07)
(4.44366e+07 -4.13179e+06 -5.97678e-10 1.03909e+06 6.07449e-09 1.37184e+07)
(8.95185e+07 -1.26325e+06 2.98314e-08 -152559 1.85558e-08 2.66212e+07)
(4.02561e+07 -3.86494e+06 -7.30135e-09 7.13834e+06 -4.1622e-10 1.41457e+07)
(1.90947e+07 -1.16033e+07 -1.15877e-08 3.82434e+06 -1.80778e-09 6.976e+06)
(1.04989e+08 1.8078e+07 0 1.70721e+07 0 3.69822e+07)
(4.53269e+07 -5.06066e+06 -2.51031e-08 1.20627e+06 8.29852e-10 1.40496e+07)
(4.54927e+07 -5.23122e+06 -1.95782e-08 1.33039e+06 4.25504e-09 1.3938e+07)
(8.33518e+07 -2.54613e+06 -4.55133e-08 -5.83748e+06 -4.93911e-08 2.28929e+07)
(4.36644e+07 -1.12812e+07 1.83499e-08 3.95095e+06 3.54354e-09 1.42159e+07)
(4.36677e+07 -7.25384e+06 2.1311e-08 2.96355e+06 -1.37873e-09 1.41091e+07)
(5.31713e+07 -1.22867e+07 0 1.68589e+06 0 1.64949e+07)
(3.87382e+07 -1.90739e+06 -8.30057e-09 1.34322e+07 -2.18953e-09 1.55807e+07)
(3.64853e+07 -6.33544e+06 -1.08358e-08 9.64611e+06 -8.43994e-10 1.38572e+07)
(3.98481e+07 -889115 1.83192e-08 1.65005e+07 2.29856e-09 1.69613e+07)
(1.55057e+08 1.357e+07 -5.20313e-08 4.15447e+07 -2.9296e-08 6.11055e+07)
(4.09493e+07 -1.69397e+07 -2.61902e-08 -1.22578e+06 -9.77079e-09 1.18637e+07)
(3.66619e+07 -1.53368e+07 -1.26335e-08 4.1642e+06 -6.07509e-10 1.20979e+07)
(-6.75192e+06 -627521 -4.03502e-09 -3.69517e+07 -2.14339e-08 -1.27154e+07)
(1.41912e+08 6.40051e+06 -5.37019e-09 2.6485e+07 -5.20662e-09 6.00754e+07)
(5.02541e+07 -1.62166e+07 -8.85208e-09 -168344 -3.10302e-09 1.50546e+07)
(3.10706e+07 -1.00246e+07 -2.73274e-08 8.1215e+06 -2.09581e-09 1.16981e+07)
(7.60986e+07 -3.8379e+06 1.53115e-08 -8.54141e+06 -1.11023e-08 2.06287e+07)
(3.56304e+07 -1.52276e+07 -6.65436e-09 4.32399e+06 -3.03831e-09 1.1861e+07)
(1.41258e+07 -1.39639e+06 7.05003e-09 6.02658e+06 2.10847e-10 5.89896e+06)
(3.83414e+07 -6.6702e+06 -2.5207e-08 8.87252e+06 -2.88555e-09 1.41763e+07)
(7.9954e+07 -5.36372e+06 1.56206e-07 -2.54303e+07 1.38361e-07 1.9374e+07)
(6.98224e+07 -3.83118e+06 -1.95396e-08 21565.8 -9.58626e-10 2.11177e+07)
(7.05338e+07 -3.22642e+06 -1.73185e-09 181378 -1.00757e-08 2.11792e+07)
(4.02526e+07 -5.42227e+06 2.69572e-08 7.07613e+06 8.09562e-09 1.41742e+07)
(4.01407e+07 -5.41966e+06 -7.35378e-09 7.20886e+06 -3.16899e-09 1.42731e+07)
(8.83192e+07 -2.08046e+06 -6.50557e-08 30171.3 -2.87685e-08 2.64951e+07)
(5.46261e+07 -5.87404e+06 2.64391e-08 399176 7.69871e-09 1.64225e+07)
(4.83743e+07 -1.38726e+07 -2.74417e-09 2.51825e+06 2.56924e-10 1.52509e+07)
(3.96707e+07 -3.90137e+06 4.73889e-09 1.04232e+07 1.71356e-09 1.49386e+07)
(4.09461e+07 -4.21892e+06 1.2005e-08 4.48114e+06 2.78111e-09 1.36436e+07)
(6.50408e+07 -2.81725e+06 1.54869e-08 166746 -4.7068e-09 1.92591e+07)
(-6.22721e+06 1.42714e+06 -4.60546e-09 -4.72278e+07 -1.10807e-08 -1.60409e+07)
(5.92314e+07 -7.41386e+06 0 -1.21467e+07 0 1.44523e+07)
(4.54379e+07 -1.43061e+07 -2.08337e-08 -7.801e+06 -1.79432e-08 1.14464e+07)
(2.87306e+07 -7.88761e+06 4.04542e-09 8.89733e+06 2.16218e-09 1.1246e+07)
(2.33264e+07 -1.54699e+07 1.22004e-08 -7.02036e+06 -3.71889e-10 4.94918e+06)
(6.04487e+07 -6.58169e+06 5.2549e-08 -1.17823e+07 -5.23753e-09 1.43978e+07)
(3.82351e+07 -5.10514e+06 4.6572e-09 1.03693e+07 1.65867e-09 1.4492e+07)
(3.82603e+07 -5.12104e+06 -5.53771e-09 1.03217e+07 -3.61789e-09 1.46555e+07)
(5.52234e+06 -1.24882e+06 1.68434e-09 -2.98633e+07 -1.90003e-08 -7.30987e+06)
(1.40725e+07 -1.31594e+07 3.58028e-09 -8.74884e+06 6.99128e-09 1.53791e+06)
(7.47999e+06 -5.59184e+06 -7.83368e-09 -163237 -4.38379e-10 2.47954e+06)
(5.59011e+07 -3.83642e+06 2.28793e-08 304580 -7.13216e-09 1.65424e+07)
(5.51758e+07 -4.11484e+06 0 189857 0 1.68603e+07)
(9.24088e+07 793404 -1.02724e-07 -6.04962e+06 -6.94818e-08 2.60393e+07)
(9.21419e+07 704503 1.11059e-07 -5.73365e+06 1.10762e-07 2.58343e+07)
(5.53204e+07 -1.14284e+07 -7.10637e-08 -7.86079e+06 -3.6318e-08 1.39743e+07)
(2.34394e+07 -1.50892e+07 -4.31938e-08 -6.8482e+06 -1.26273e-08 4.99951e+06)
(4.16515e+07 -1.54925e+07 -1.24585e-08 3.41205e+06 -6.66882e-09 1.33561e+07)
(2.01836e+07 -1.22779e+07 -6.48916e-08 -1.62817e+07 -3.07235e-08 986009)
(3.7379e+07 -8.81692e+06 -1.95335e-08 7.87359e+06 -1.76297e-09 1.34605e+07)
(7.73181e+07 -1.26098e+06 5.12296e-08 -69894.5 3.56485e-08 2.35399e+07)
(5.01345e+07 -1.60579e+07 -2.72896e-08 113719 -9.04445e-09 1.50547e+07)
(4.61714e+07 -1.57284e+07 -1.98209e-08 2.26248e+06 -4.45649e-09 1.43501e+07)
(8.61078e+07 -1.0957e+07 -3.21334e-08 -1.62112e+07 -3.49264e-08 2.9177e+07)
(1.40015e+07 -1.31373e+07 2.00848e-08 -8.68938e+06 9.05104e-09 1.64447e+06)
(4.34267e+07 -1.03701e+07 -1.24014e-08 3.90646e+06 6.41174e-09 1.43226e+07)
(-6.37025e+06 -185608 4.94231e-09 -3.89987e+07 1.16671e-08 -1.37117e+07)
(-6.97025e+06 -191342 9.31585e-10 -3.94635e+07 -2.20295e-09 -1.42206e+07)
(5.78131e+07 -7.28651e+06 9.04052e-08 -1.23908e+07 1.94478e-08 1.35825e+07)
(4.65926e+07 -1.64194e+07 2.79215e-08 1.18582e+06 8.99515e-09 1.43289e+07)
(1.04632e+08 -8.53325e+06 6.76812e-08 -1.80255e+06 5.16425e-08 4.69361e+07)
(2.56741e+07 -6.29959e+06 0 -8.5464e+06 0 5.44979e+06)
(2.64025e+07 -5.47327e+06 4.78371e-08 -9.98394e+06 2.53367e-08 5.17038e+06)
(5.9845e+07 -1.41102e+07 -4.96912e-08 -572991 -1.99984e-08 1.7646e+07)
(1.68283e+08 2.60162e+06 7.96163e-09 5.57276e+07 4.73939e-09 7.1749e+07)
(4.01361e+07 -985149 8.54658e-09 5.58071e+06 5.5017e-09 1.36193e+07)
(2.24963e+07 -1.54052e+07 -1.65372e-09 -3.32099e+06 -3.87818e-09 5.84408e+06)
(2.36884e+07 -1.54253e+07 1.65734e-09 -3.50087e+06 -6.99844e-09 5.90785e+06)
(-4.49062e+06 -3.31815e+06 -2.62409e-09 -2.7577e+07 -7.38513e-10 -9.74065e+06)
(5.86454e+07 -6.18148e+06 5.38977e-09 -1.57737e+07 7.94942e-09 1.30296e+07)
(5.85346e+07 -5.59356e+06 6.24199e-08 -1.48845e+07 1.54732e-08 1.27428e+07)
(4.26817e+07 -1.12193e+07 -9.59828e-09 4.46703e+06 2.10453e-09 1.40117e+07)
(7.22389e+07 -1.11567e+07 3.02341e-08 -1.95519e+06 1.0263e-08 2.08921e+07)
(4.72869e+07 -1.59573e+07 0 1.68891e+06 0 1.47901e+07)
(4.12997e+07 -1.13648e+07 1.70622e-08 5.00592e+06 -1.85797e-10 1.38249e+07)
(3.76529e+07 -425345 -5.95139e-09 1.28607e+07 -2.43616e-10 1.51525e+07)
(4.15023e+07 -2.52527e+06 1.13689e-10 1.76882e+06 -7.36319e-10 1.30346e+07)
(3.46995e+07 -7.95977e+06 -9.05438e-09 8.94307e+06 -2.2098e-09 1.29549e+07)
(4.4586e+07 -2.84757e+06 1.76288e-08 560190 9.55122e-09 1.36005e+07)
(8.77312e+06 -1.09068e+07 3.42768e-08 -1.44564e+07 2.36557e-08 -1.59903e+06)
(3.3277e+07 -9.90308e+06 -1.75859e-09 -1.61021e+07 1.504e-08 5.03864e+06)
(-461263 3.38438e+06 2.03658e-08 -3.48623e+07 8.15946e-09 -1.04228e+07)
(3.22987e+07 -1.64978e+07 -1.52467e-08 896507 -2.91407e-09 9.95431e+06)
(6.41839e+07 -6.53188e+06 8.01272e-08 -1.92966e+07 6.48614e-08 1.40825e+07)
(1.95367e+07 -7.33915e+06 -2.02652e-09 7.14296e+06 -3.43796e-11 8.19917e+06)
(6.59537e+07 -6.21527e+06 -4.21183e-08 -1.93216e+07 -2.01184e-08 1.34729e+07)
(5.23541e+07 -2.55133e+06 3.47407e-08 161957 2.08602e-09 1.55898e+07)
(946811 2.53342e+06 -6.27475e-08 -3.38812e+07 -5.46057e-08 -9.83816e+06)
(4.27698e+07 -6.51228e+06 3.23503e-10 3.49271e+06 -9.9577e-10 1.37364e+07)
(3.10162e+07 -1.0099e+07 -9.78624e-09 8.01282e+06 1.24249e-09 1.18362e+07)
(4.2043e+07 -7.33024e+06 -1.45804e-09 4.33481e+06 -1.66898e-09 1.40324e+07)
(6.56206e+07 -1.20857e+07 1.03199e-09 -39601 3.40651e-09 1.96999e+07)
(4.0236e+07 -4.80512e+06 -1.16631e-08 6.71503e+06 -2.78662e-09 1.42623e+07)
(3.99292e+07 -120059 3.42176e-09 1.8014e+07 2.66225e-11 1.73571e+07)
(3.99941e+07 58293.7 -8.57779e-09 3990.92 4.46728e-09 1.2008e+07)
(4.0964e+07 -1.70798e+07 4.93092e-10 -1.3116e+06 -3.07514e-10 1.20877e+07)
(3.32878e+07 -1.66486e+07 -7.98996e-09 -2.06875e+06 -7.03336e-09 9.25043e+06)
(3.83617e+07 -1.49741e+07 -1.02927e-08 4.48407e+06 -3.8631e-09 1.27837e+07)
(3.57204e+07 -7.88737e+06 0 -1.18862e+07 0 6.75212e+06)
(3.90189e+07 -1.60621e+06 2.84916e-10 1.39931e+07 5.8812e-10 1.5857e+07)
(4.06403e+07 -2.8691e+06 -2.61795e-09 3.88376e+06 -7.12434e-09 1.33254e+07)
(3.82657e+07 -566689 -1.40159e-08 1.33416e+07 -1.9215e-09 1.53691e+07)
(1.24609e+07 -4.13916e+06 -4.02822e-09 4.95555e+06 -4.23932e-10 5.25138e+06)
(1.29411e+07 -3.80854e+06 7.91115e-09 4.96539e+06 6.16351e-10 5.16954e+06)
(3.57433e+07 -4.90918e+06 -1.52195e-08 1.04354e+07 -1.85548e-09 1.39047e+07)
(5.14921e+07 -3.85702e+06 -1.26529e-08 279584 4.05668e-09 1.5558e+07)
(5.1286e+07 -4.01594e+06 -1.25838e-08 289471 3.73763e-09 1.5433e+07)
(1.09102e+08 -938550 -3.29141e-08 120459 -1.24276e-08 3.45056e+07)
(2.69717e+07 -7.89318e+06 -7.69891e-11 8.64934e+06 9.92819e-10 1.0703e+07)
(2.9219e+07 -5.00582e+06 1.80908e-08 9.84324e+06 2.47621e-10 1.17915e+07)
(6.25103e+07 -1.07251e+07 -6.99649e-08 -6.05552e+06 -4.46061e-08 1.70533e+07)
(6.25453e+07 -1.06919e+07 1.32819e-09 -6.07649e+06 -9.07873e-09 1.67722e+07)
(3.87717e+07 -2.17134e+06 -3.7777e-09 1.31591e+07 -7.99395e-10 1.5574e+07)
(4.23816e+06 -5.72989e+06 5.567e-08 -2.64266e+07 1.73626e-08 -6.53028e+06)
(-1.23577e+07 1.7681e+07 2.34992e-08 -2.61875e+07 -3.80359e-08 -1.24899e+07)
(4.66627e+07 -1.4892e+07 3.09842e-09 2.65713e+06 -2.44619e-09 1.48943e+07)
(4.67566e+07 -1.49698e+07 -3.21037e-08 2.57055e+06 -8.9983e-09 1.47019e+07)
(1.09036e+08 2.48297e+07 -2.12609e-08 8.51017e+06 -1.226e-08 3.41784e+07)
(4.03016e+07 -1.4648e+06 -2.20612e-09 3.38016e+06 1.15069e-09 1.30585e+07)
(6.94227e+07 -7.47273e+06 -1.20572e-09 -2.15487e+07 -9.10082e-09 1.44195e+07)
(1.75672e+07 -7.88947e+06 3.0277e-08 -2.16605e+07 1.31385e-08 -1.04018e+06)
(1.65093e+08 6.68423e+06 -6.31046e-08 5.1884e+07 -2.48925e-08 6.72151e+07)
(1.67218e+08 1.86116e+06 1.47561e-07 5.47317e+07 4.07229e-08 7.06374e+07)
(7.37338e+07 -1.04118e+07 -5.42479e-08 -927537 -2.66355e-08 2.1828e+07)
(3.70084e+07 -3.95287e+07 2.01614e-08 2.51249e+07 3.50979e-08 4.13892e+07)
(5.46668e+07 -1.44328e+07 9.04646e-09 -4.51968e+06 3.40485e-09 1.50658e+07)
(3.78275e+07 -3.63773e+07 7.68434e-10 1.82651e+07 2.55663e-08 5.17275e+07)
(5.43723e+07 -1.19458e+07 -6.47793e-08 -8.00778e+06 -4.04758e-08 1.38723e+07)
(6.56927e+06 -8.29971e+06 1.33148e-08 -4.4567e+06 9.21332e-09 629548)
(3.53425e+07 -1.24701e+07 0 6.53513e+06 0 1.24212e+07)
(3.48381e+07 -1.237e+07 0 6.55914e+06 0 1.25423e+07)
(1.27597e+07 -1.43523e+07 -5.56124e-08 4.60453e+06 -2.89025e-08 3.78731e+06)
(2.9021e+07 -1.10678e+07 2.28043e-08 -1.60822e+07 -1.32632e-08 3.88846e+06)
(4.01569e+07 -1.37888e+07 -3.62895e-09 4.7706e+06 3.29316e-09 1.33236e+07)
(6.83651e+07 -3.8059e+06 -5.74191e-09 -1.4238e+07 -2.9376e-08 1.61689e+07)
(3.63936e+06 -14195.7 -1.42922e-09 -2.81221e+06 5.57206e-10 272966)
(6.56021e+07 -8.39838e+06 6.30274e-08 -7.89896e+06 5.55136e-08 1.73456e+07)
(8.60402e+06 -9.05448e+06 4.88218e-09 -2.91889e+06 3.22212e-09 1.71858e+06)
(1.0818e+08 2.30116e+07 -4.05405e-08 1.43683e+07 -4.09381e-08 3.68967e+07)
(4.82893e+06 -8.80148e+06 3.3195e-09 -1.75988e+07 9.60936e-10 -3.85504e+06)
(7.51248e+07 -5.8771e+06 -4.37057e-08 80987.8 -1.58599e-08 2.27175e+07)
(4.01239e+07 -1.28796e+06 -3.61021e-09 1.04031e+07 -1.35098e-09 1.51447e+07)
(2.39766e+07 -1.34796e+07 -3.17689e-08 4.05983e+06 -4.76882e-09 8.46522e+06)
(2.41784e+07 -1.31702e+07 -1.24107e-08 4.1616e+06 -1.74383e-09 8.45214e+06)
(5.72472e+07 -1.42075e+07 -4.93697e-08 -3.69965e+06 -2.80292e-08 1.6e+07)
(6.36703e+07 -1.26871e+07 -6.15385e-08 -51773.7 -2.14775e-08 1.91023e+07)
(4.55875e+07 -1.24059e+07 -1.34507e-08 3.31048e+06 4.50525e-09 1.45952e+07)
(6.3794e+07 -4.88492e+06 1.85339e-08 -1.40959e+07 4.01298e-08 1.52137e+07)
(3.70817e+07 -6.60941e+06 -8.76804e-09 9.3917e+06 -1.75347e-09 1.3954e+07)
(3.84288e+07 -1.32896e+07 7.64735e-09 5.39086e+06 3.24685e-09 1.32467e+07)
(6.14681e+07 -1.34743e+07 -1.06335e-08 -1.94084e+06 -7.6228e-09 1.77924e+07)
(6.24436e+07 -1.3775e+07 1.33011e-08 -2.15651e+06 8.3576e-09 1.82279e+07)
(1.00445e+08 -2.7122e+06 3.92333e-08 -462020 3.15605e-08 3.0288e+07)
(3.65933e+07 -1.11786e+07 2.96389e-08 -1.43493e+07 3.90131e-08 6.48017e+06)
(4.00757e+07 -346115 -7.92076e-10 1.29537e+07 3.31951e-10 1.60368e+07)
(6.0839e+07 -1.40291e+07 -5.29074e-10 -1.27788e+06 -1.65269e-09 1.80306e+07)
(3.0389e+07 -6.86741e+06 1.94014e-11 9.34559e+06 -3.49954e-09 1.20027e+07)
(9.50707e+07 1.714e+07 -5.80202e-08 -5.47774e+06 -6.19293e-08 2.64595e+07)
(1.06609e+08 2.09752e+07 2.8684e-08 1.30442e+07 3.5223e-08 3.61684e+07)
(4.18013e+07 -1.60485e+07 1.37552e-08 2.74579e+06 4.88447e-09 1.32969e+07)
(6.86512e+07 -7.98107e+06 4.58051e-09 365359 1.23314e-09 2.04729e+07)
(9.50852e+06 -7.51563e+06 3.99232e-09 199616 1.86249e-09 3.09855e+06)
(9.92368e+07 309556 6.632e-08 -2.43818e+06 1.71764e-08 2.88916e+07)
(8.04475e+06 -9.68293e+06 0 -1.85444e+07 0 -3.21535e+06)
(-5.77525e+06 8.75385e+06 -3.03267e-09 -4.94188e+07 -3.74772e-08 -1.54324e+07)
(4.87015e+07 -1.38131e+07 1.02946e-08 -7.41885e+06 -1.51666e-08 1.2163e+07)
(4.87115e+07 -1.39617e+07 3.08865e-08 -6.78382e+06 1.09414e-08 1.26311e+07)
(3.98619e+07 -4.93071e+06 0 8.54648e+06 0 1.44176e+07)
(5.71238e+06 -1.96015e+06 0 -2.86881e+07 0 -6.82805e+06)
(-4.97637e+06 6.47777e+06 -1.11345e-08 -4.60799e+07 -2.63114e-08 -1.61505e+07)
(8.58492e+07 -4.86963e+06 -3.60225e-08 -3.2008e+06 -4.86076e-08 2.48579e+07)
(7.98305e+07 2.14e+07 -4.76829e-08 4.49502e+06 -1.0532e-07 2.51171e+07)
(1.62783e+07 -1.09543e+06 7.18308e-09 7.4257e+06 -2.39799e-10 7.24582e+06)
(2.07282e+07 -1.2141e+07 2.44364e-08 3.7617e+06 3.48925e-09 7.22244e+06)
(4.1152e+07 -1.68549e+07 -8.26107e-09 -2.18652e+06 -3.71726e-09 1.17187e+07)
(-1.77666e+07 -1.06378e+07 -2.5846e-08 6.77893e+06 -3.64417e-08 4.14209e+07)
(3.99626e+07 -1.84787e+06 1.65504e-10 1.25331e+07 4.06775e-11 1.5721e+07)
(9.66297e+07 1.05223e+07 7.0983e-09 -1.84978e+07 -2.04644e-08 2.73826e+07)
(2.97433e+07 -6.29459e+06 -3.91292e-08 -1.80267e+07 -2.54654e-08 3.20809e+06)
(2.97078e+07 -6.16569e+06 3.56738e-08 -1.78552e+07 2.562e-08 3.5424e+06)
(7.00448e+07 -9.57249e+06 1.53087e-08 102869 1.80166e-09 2.10156e+07)
(4.17436e+07 -1.46905e+06 1.13765e-08 599453 5.10146e-09 1.27423e+07)
(5.60584e+07 -1.14924e+07 -3.04925e-09 1.26008e+06 -3.8618e-10 1.7072e+07)
(3.96766e+07 -7.94021e+06 -2.17916e-08 6.89814e+06 2.52388e-10 1.39861e+07)
(4.58775e+07 -4.86917e+06 2.18752e-09 1.01792e+06 2.56024e-09 1.42452e+07)
(1.38396e+07 -6.11176e+06 7.93475e-09 -2.40347e+07 3.85568e-09 -3.14104e+06)
(4.19778e+07 -3.19781e+06 3.66487e-08 1.95248e+06 1.19151e-08 1.31441e+07)
(4.10237e+07 -3.1014e+06 -9.24302e-10 3.07496e+06 5.41713e-10 1.32518e+07)
(7.12824e+07 -6.38335e+06 -4.50398e-09 138795 8.94047e-10 2.10561e+07)
(9.47907e+07 1.79978e+07 2.86996e-08 -5.79112e+06 2.11005e-09 2.69062e+07)
(2.90104e+07 -7.39276e+06 -2.27211e-08 9.21621e+06 -1.25832e-09 1.13394e+07)
(320067 -5.23414e+06 1.19403e-08 -1.21637e+07 4.73375e-09 -3.56373e+06)
(8.21969e+07 -6.17094e+06 2.84777e-08 -2.37535e+06 2.66962e-08 2.39603e+07)
(8.17497e+07 -6.67254e+06 2.96412e-08 -2.67574e+06 8.53066e-09 2.35309e+07)
(680280 -5.85322e+06 -8.72422e-09 -1.14109e+07 6.89489e-10 -3.22662e+06)
(6.87379e+07 -7.92476e+06 8.79874e-08 -2.10914e+07 3.28156e-08 1.40671e+07)
(1.83977e+07 -8.82191e+06 8.7843e-09 5.79219e+06 8.06219e-10 7.46851e+06)
(2.69325e+07 -7.76235e+06 1.03124e-08 8.89964e+06 -6.37437e-10 1.07902e+07)
(3.27377e+07 -3.44353e+06 -1.56749e-08 1.05199e+07 -1.46704e-09 1.29357e+07)
(4.81855e+07 -1.4671e+07 -2.48947e-08 2.34826e+06 -4.39059e-09 1.52802e+07)
(4.12199e+07 -1.34383e+06 -3.90363e-09 880704 2.63141e-09 1.26958e+07)
(2.5248e+06 -4.81723e+06 -7.60146e-09 -6.6058e+06 -3.07588e-09 -1.27497e+06)