/*--------------------------------*- C++ -*----------------------------------*\
| =========                 |                                                 |
| \\      /  F ield         | OpenFOAM: The Open Source CFD Toolbox           |
|  \\    /   O peration     | Version:  v2012                                 |
|   \\  /    A nd           | Website:  www.openfoam.com                      |
|    \\/     M anipulation  |                                                 |
\*---------------------------------------------------------------------------*/
FoamFile
{
    version     2.0;
    format      ascii;
    class       volScalarField;
    location    "17";
    object      epsilonEq;
}
// * * * * * * * * * * * * * * * * * * * * * * * * * * * * * * * * * * * * * //

dimensions      [0 0 0 0 0 0 0];


internalField   nonuniform List<scalar> 
500
(
0.0295077
0.00687048
0.012914
0.00561544
0.00678618
0.00289112
0.00325941
0.00138819
0.00163438
0.00100899
0.00442858
0.0047161
0.00307059
0.00232463
0.00230663
0.00127514
0.00190359
0.00115504
0.001692
0.00125944
0.00211237
0.000561427
0.000840859
0.000648343
0.000951212
0.000764766
0.00106054
0.00088144
0.00139012
0.00114412
0.000252661
0.000397991
0.000466681
0.000562052
0.000646858
0.000659322
0.000797882
0.000707591
0.000969075
0.000761013
0.000227444
0.000297922
0.000492979
0.000573066
0.000677955
0.00078922
0.000836961
0.00100451
0.00111828
0.00131524
0.000193949
0.000412243
0.000469488
0.00051594
0.0007046
0.000788845
0.000965888
0.00128337
0.00136242
0.000978163
0.000518347
0.000535475
0.000392845
0.000548761
0.000553365
0.000757024
0.000807672
0.000975291
0.0009137
0.000566378
0.000677972
0.000568542
0.000485596
0.000571604
0.000502412
0.000700994
0.000576998
0.000784978
0.000530239
0.000296
0.00069459
0.000559539
0.000562008
0.000564503
0.000517003
0.000633947
0.00047202
0.000648772
0.000316456
0.000227801
0.000630047
0.000559478
0.000581836
0.000573582
0.000547035
0.000587011
0.000441851
0.000487464
0.000177156
0.000177052
0.00043432
0.000406334
0.000427336
0.000437771
0.000468063
0.000502597
0.000667282
0.000422842
0.00092303
0.000741518
0.000395679
0.000296148
0.000397069
0.000229996
0.000435036
0.000208632
0.000591852
0.000363347
0.0008299
0.000540637
0.000134854
5.8301e-05
0.000106456
8.20732e-05
0.000190544
0.00027426
0.000354247
0.000503557
0.00053417
0.000596288
6.72358e-05
7.20188e-05
0.000129423
0.000209776
0.000241308
0.000414605
0.000430955
0.000587305
0.000621062
0.000648838
9.37885e-05
0.000140513
0.000182561
0.000310046
0.000327095
0.000491019
0.000508737
0.000610528
0.000632545
0.000653086
8.55718e-05
0.000205217
0.000219708
0.000383736
0.000396878
0.000528844
0.000540836
0.00060551
0.000615754
0.000628792
8.58825e-05
0.000259535
0.000253793
0.000426861
0.000422782
0.000537826
0.000530698
0.000581987
0.000577837
0.000587426
0.000112975
0.000290797
0.000261108
0.000433281
0.00040313
0.000511262
0.000484726
0.000530491
0.000517655
0.00052326
0.000145973
0.000274697
0.000234787
0.000382797
0.000344983
0.000433431
0.000409846
0.00044656
0.000440395
0.000444885
0.00020759
0.000240884
0.000215704
0.00026986
0.000273304
0.00031538
0.00032544
0.000365914
0.000367116
0.000401784
0.000964048
0.000701104
0.000880739
0.0007438
0.000883525
0.000762698
0.000893323
0.000759717
0.000903079
0.000746806
0.000915369
0.000754412
0.000943102
0.000789637
0.000995331
0.000802366
0.00102647
0.000830572
0.00116911
0.00089692
0.00100422
0.000653583
0.000995293
0.000659201
0.000931172
0.000659482
0.000870178
0.00067199
0.000797452
0.000642418
0.000756822
0.000668482
0.000775105
0.000699612
0.000794776
0.000729907
0.000807992
0.000760144
0.000827091
0.000791729
0.000616408
0.000684363
0.000680995
0.000689624
0.000706897
0.000678398
0.000714934
0.000664651
0.000730215
0.000652296
0.000718101
0.000648066
0.000713834
0.000651598
0.000713694
0.000662927
0.000719091
0.000682558
0.000731589
0.000713665
0.000655056
0.000703265
0.000664657
0.000688593
0.000651984
0.000667112
0.000640146
0.000645551
0.000633341
0.000629911
0.000631132
0.000619239
0.000632812
0.000612352
0.000638431
0.000611547
0.000648438
0.000617063
0.000660492
0.000635341
0.000655123
0.000683156
0.000655867
0.00066295
0.000636696
0.000638326
0.000618773
0.000615262
0.000604439
0.000595517
0.000594833
0.000585367
0.000588092
0.000571532
0.000585503
0.000565827
0.000589073
0.000562546
0.00059251
0.000566224
0.000628259
0.00064444
0.000625755
0.000626373
0.000607591
0.000606034
0.000591203
0.000586974
0.000578652
0.000563252
0.000559339
0.000542635
0.000555027
0.000532757
0.000549806
0.000523658
0.000544053
0.000513887
0.000537008
0.000505927
0.000586194
0.00059219
0.000584625
0.000576685
0.000572186
0.000560332
0.000552971
0.000535587
0.000536937
0.000521838
0.000527978
0.00050955
0.000521348
0.000498153
0.00051434
0.000485814
0.000504589
0.000470878
0.00049186
0.000452317
0.00052391
0.000521899
0.000524363
0.000510091
0.000515155
0.000497629
0.00050857
0.000486223
0.000500074
0.000477304
0.000493617
0.000470501
0.00048781
0.000463916
0.000480783
0.00045521
0.000470273
0.000442186
0.000456377
0.000418365
0.00045448
0.000453604
0.000464606
0.000450977
0.000464223
0.000447406
0.000462509
0.000445205
0.000461032
0.000444766
0.000459496
0.00044549
0.00045697
0.0004462
0.000452397
0.000445414
0.0004452
0.000441742
0.000435464
0.000425548
0.000396196
0.000422608
0.000419058
0.000439562
0.000429573
0.0004502
0.000435723
0.000457013
0.000439663
0.000460801
0.000441911
0.000461737
0.000442438
0.000459992
0.000441141
0.000455942
0.00043805
0.000450252
0.000433481
0.000443757
0.00109401
0.000904524
0.000898901
0.000821759
0.000768915
0.000769435
0.000677839
0.000740124
0.00060377
0.000723431
0.000539038
0.000715664
0.000486726
0.00072136
0.000463229
0.000747456
0.000492592
0.000793866
0.00056726
0.000725672
0.00150523
0.00108463
0.00128365
0.00104279
0.0012335
0.00103765
0.00116839
0.00103284
0.00107456
0.00101837
0.000974711
0.00100734
0.000882066
0.0010115
0.000800295
0.00103845
0.000733087
0.00108783
0.000681294
0.00109804
0.0016312
0.00127438
0.00165628
0.0014133
0.00164591
0.00136439
0.001355
0.00110432
0.00122414
0.00100719
0.00115843
0.000994769
0.00109737
0.00101752
0.0010509
0.00107887
0.00103011
0.00117997
0.00103937
0.00135302
0.00150349
0.00094933
0.00190233
0.00117105
0.00156447
0.00100946
0.0013703
0.000993438
0.00122893
0.000993941
0.00118181
0.000997201
0.00114804
0.00102138
0.00113923
0.00107757
0.00117014
0.00117338
0.00123075
0.00136884
0.00234817
0.00134423
0.00128814
0.00129555
0.00123326
0.00120043
0.00119182
0.00110157
0.00116125
0.00102185
0.00113932
0.000972444
0.00113173
0.000959005
0.00114697
0.000978352
0.00119021
0.00104732
0.00130997
0.00129365
)
;

boundaryField
{
    back
    {
        type            empty;
    }
    front
    {
        type            empty;
    }
    left
    {
        type            symmetry;
    }
    hole
    {
        type            calculated;
        value           nonuniform List<scalar> 10(0.0313387 0.00530505 0.00236473 0.000252037 0.000207507 0.000139163 0.000468226 0.000623579 0.000655623 0.000632383);
    }
    down
    {
        type            symmetry;
    }
    right
    {
        type            calculated;
        value           nonuniform List<scalar> 
15
(
0.000231498
0.000240718
0.000281209
0.000335115
0.000384262
0.000398418
0.000408218
0.00041807
0.000426287
0.0004323
0.000436318
0.000438765
0.00044018
0.00044137
0.000441797
)
;
    }
    up
    {
        type            calculated;
        value           nonuniform List<scalar> 
15
(
0.000912382
0.00079402
0.000715107
0.000633567
0.00056344
0.000505933
0.000455855
0.000424539
0.000429768
0.000443907
0.000667765
0.00103308
0.00130658
0.00132418
0.00131775
)
;
    }
}


// ************************************************************************* //
