/*--------------------------------*- C++ -*----------------------------------*\
| =========                 |                                                 |
| \\      /  F ield         | OpenFOAM: The Open Source CFD Toolbox           |
|  \\    /   O peration     | Version:  v2012                                 |
|   \\  /    A nd           | Website:  www.openfoam.com                      |
|    \\/     M anipulation  |                                                 |
\*---------------------------------------------------------------------------*/
FoamFile
{
    version     2.0;
    format      ascii;
    class       volSymmTensorField;
    location    "17";
    object      epsilon;
}
// * * * * * * * * * * * * * * * * * * * * * * * * * * * * * * * * * * * * * //

dimensions      [0 0 0 0 0 0 0];


internalField   nonuniform List<symmTensor> 
500
(
(0.0237326 -0.00558744 -1.32815e-18 -0.0261206 1.59065e-19 5.22017e-35)
(0.00642475 -0.00105525 -4.63921e-19 -0.00526755 1.47714e-19 0)
(0.0121512 -0.00236606 0 -0.00966289 0 0)
(0.00505524 -0.000939133 4.31478e-19 -0.00448217 3.29136e-19 0)
(0.00678905 -0.00112991 1.01451e-18 -0.0046813 3.75325e-19 0)
(0.0029795 -0.000441984 1.32318e-19 -0.00191064 1.64142e-19 0)
(0.00364824 -0.000414491 0 -0.00183727 0 0)
(0.00178863 -0.000195659 6.54064e-19 -0.000455382 4.7039e-19 0)
(0.0021293 -1.79808e-05 5.99592e-19 -0.000550534 3.27971e-19 0)
(0.00148572 -1.02012e-05 9.80354e-20 -5.38929e-05 3.88594e-19 0)
(0.00273199 -0.00181218 -6.35201e-19 -0.00398917 3.1915e-19 2.52864e-34)
(0.00372646 -0.00191025 -6.80014e-19 -0.00349229 2.15649e-19 0)
(0.00308619 -0.00146285 -8.17074e-19 -0.00122294 -2.66149e-19 0)
(0.00172338 -0.000992857 4.024e-19 -0.00177914 2.91401e-19 0)
(0.00259296 -0.00102613 1.22246e-19 -0.000645118 2.83782e-19 0)
(0.00103244 -0.000526846 -1.64072e-19 -0.000907265 1.13237e-19 0)
(0.00222868 -0.000543404 -1.45411e-19 -0.000767717 -7.22638e-19 0)
(0.00113601 -0.000203738 -4.82684e-19 -0.000813793 -1.06207e-18 0)
(0.00194281 -9.36624e-05 -4.59502e-19 -0.000921807 -1.08848e-19 0)
(0.00134628 0.00011822 1.73342e-19 -0.000799156 3.28307e-19 0)
(0.00130139 -0.00145406 4.07388e-19 -0.000907076 -3.73953e-21 -1.59957e-36)
(0.000399395 -0.000419345 -3.35727e-19 -4.93297e-05 2.57861e-19 0)
(0.000719089 -0.000598381 -3.35899e-20 5.86932e-07 -1.10329e-19 0)
(0.000443382 -0.000413578 4.75183e-19 -0.000312353 -6.70795e-20 0)
(0.000872817 -0.00046009 1.73999e-19 -0.000474307 -3.63218e-20 0)
(0.00065559 -0.000277689 -3.5326e-20 -0.000545285 -1.5746e-19 0)
(0.0010681 -0.000248534 5.10261e-19 -0.000686503 5.97503e-19 0)
(0.000786941 -8.83776e-05 -7.7426e-20 -0.000729123 1.40907e-19 0)
(0.00140345 1.53718e-05 -1.26444e-19 -0.000992396 -1.47107e-19 0)
(0.00106923 0.000103168 0 -0.000899216 0 0)
(0.000144105 -0.000150785 6.11292e-20 -0.000172593 -1.14618e-19 -3.56119e-35)
(0.000375917 -0.000239859 -6.44919e-19 -9.09868e-05 -4.58942e-19 0)
(0.000571138 -0.000235769 -6.50461e-19 5.17387e-06 -9.23545e-19 0)
(0.00052123 -0.000249562 2.48629e-19 -0.000305227 -7.61974e-19 0)
(0.000753132 -0.000242067 1.75669e-19 -0.000206754 4.19054e-19 0)
(0.000671623 -0.000183166 4.39111e-19 -0.000398443 6.81537e-19 0)
(0.000852504 -0.000166724 2.3897e-19 -0.000470364 2.52244e-19 0)
(0.000831041 -6.37199e-05 -3.89837e-20 -0.000356742 1.686e-19 0)
(0.00090464 -4.47696e-05 -1.12313e-19 -0.000769645 -2.71639e-19 0)
(0.00097499 7.69373e-05 1.10307e-20 -0.000269046 -1.53996e-19 0)
(0.000241113 -0.000153818 8.0277e-20 7.7981e-05 -1.7509e-19 -5.79182e-35)
(0.000181269 2.70844e-05 -1.65057e-19 -0.00032513 -2.93452e-19 0)
(0.000475479 -0.000154038 -3.65164e-19 -0.000315496 -5.92733e-19 0)
(0.000505904 -3.24146e-05 -5.73255e-19 -0.000484479 -6.56209e-19 0)
(0.000608012 -0.000130971 -5.49715e-19 -0.000535895 -1.06525e-19 0)
(0.000680606 -4.29039e-05 7.90928e-20 -0.000683666 -4.38495e-20 0)
(0.000698446 -4.14358e-05 1.07242e-19 -0.000748553 -5.5741e-20 0)
(0.000838109 1.28423e-05 -7.74161e-20 -0.000901189 2.64096e-20 0)
(0.000815806 0.000129336 -9.69101e-20 -0.0010969 3.18874e-20 0)
(0.000795364 0.00011825 -2.1512e-19 -0.00143965 -1.65412e-19 0)
(0.000111861 0.000114123 8.31136e-20 -0.000134278 -2.87167e-20 1.72602e-35)
(1.18538e-05 0.000245996 3.42577e-19 -0.0004421 8.46053e-20 0)
(0.000435436 -4.89598e-05 5.78788e-19 -0.000370965 4.10624e-19 0)
(0.000453138 0.000168679 1.81684e-19 -0.000373078 2.16443e-19 0)
(0.000617713 -1.98455e-05 2.49748e-19 -0.00060201 2.08514e-19 0)
(0.000743335 0.000227177 1.50974e-19 -0.00053986 2.66387e-19 0)
(0.000671023 0.000210071 1.41448e-19 -0.00094082 1.26277e-19 0)
(0.000762802 0.000419162 0 -0.0012746 0 0)
(0.000145064 0.000554177 0 -0.00172728 0 0)
(0.000989043 0.000172918 -1.07797e-19 -0.000658496 -1.25596e-19 0)
(9.1667e-05 0.000342058 4.80976e-20 -0.000451383 -1.16976e-19 -1.4144e-35)
(-5.94424e-05 0.00031733 4.12629e-20 -0.000613164 -2.20213e-19 0)
(0.000298657 0.000123692 3.43142e-20 -0.000334862 -9.26086e-20 0)
(0.000203231 0.000203039 -2.43034e-20 -0.000621509 5.21485e-20 0)
(0.000447546 9.69599e-05 -9.71273e-21 -0.000490756 2.3893e-19 0)
(0.000373956 0.000237818 1.52259e-19 -0.000820438 1.82574e-19 0)
(0.000506187 0.000229744 3.27218e-19 -0.0008039 2.67344e-19 0)
(0.000305688 0.000449934 3.25993e-19 -0.00105661 2.63567e-19 0)
(5.03917e-05 0.000273895 5.54633e-19 -0.00125989 5.60515e-19 0)
(0.000693482 0.000187747 9.10523e-20 -0.00015856 1.90391e-19 0)
(0.000231888 0.000378909 0 -0.000634496 0 0)
(1.06754e-05 0.000286774 0 -0.000687833 0 0)
(0.000272282 0.000258802 -2.61481e-20 -0.000387327 -1.01018e-19 0)
(0.000127958 0.000215142 -1.17497e-19 -0.000700226 -1.53538e-19 0)
(0.000324943 0.000207377 -2.48203e-19 -0.000437307 -1.67653e-19 0)
(0.000215791 0.000255202 -1.62109e-19 -0.000827692 -1.82563e-19 0)
(0.000312085 0.000200285 -4.10611e-19 -0.000589407 -3.69717e-19 0)
(6.20196e-05 0.000339313 -1.5473e-19 -0.000987884 -3.21166e-19 0)
(-5.41048e-05 0.00012095 -2.03728e-19 -0.000792894 6.94945e-20 0)
(0.000256243 0.000100511 6.80407e-20 -0.000214783 1.56409e-20 0)
(0.000339679 0.000276696 1.17939e-20 -0.000707261 -7.71138e-20 -6.03478e-36)
(0.000118182 0.000178919 -6.70077e-21 -0.000714167 -1.1009e-20 0)
(0.000297115 0.000270457 0 -0.000503379 0 0)
(0.000127676 0.000144872 0 -0.000737288 0 0)
(0.000287419 0.000222591 1.05314e-19 -0.000481438 1.83666e-19 0)
(0.000132262 0.000166511 1.09971e-19 -0.00083273 2.16092e-19 0)
(0.000239101 0.000155846 1.81526e-19 -0.000501388 1.42568e-19 0)
(-3.94889e-05 0.000202283 3.43875e-20 -0.000926999 7.33979e-20 0)
(-6.91043e-05 5.35196e-05 -3.75257e-22 -0.000496234 -1.11257e-19 0)
(-2.63865e-05 5.74785e-05 -1.79042e-20 -0.000339271 -6.02174e-20 0)
(0.000348859 0.00012607 -8.57446e-21 -0.000694017 1.77994e-20 -7.86769e-36)
(0.000248556 2.12555e-05 -2.80598e-20 -0.000686027 -2.15224e-20 0)
(0.000288808 0.000164652 3.80991e-21 -0.000641606 1.59514e-19 0)
(0.000179154 -1.26205e-05 1.43839e-20 -0.000756409 1.69513e-19 0)
(0.000280062 0.000143094 -1.27096e-20 -0.000603644 -1.26509e-20 0)
(0.000114219 -1.28413e-05 1.2963e-21 -0.00081755 4.14699e-20 0)
(0.000216772 8.25461e-05 -1.54677e-20 -0.000510959 -3.37113e-20 0)
(-5.72935e-05 4.06939e-05 -1.62053e-20 -0.000754744 -2.77585e-20 0)
(-5.2447e-05 1.97232e-05 -5.55435e-21 -0.00028581 1.14483e-20 0)
(-0.000181773 4.046e-05 1.08112e-20 -0.000292975 -1.74536e-20 0)
(-0.000241245 -1.33177e-05 5.95544e-21 0.000496016 2.33069e-20 0)
(-8.59953e-05 -0.000130707 -9.10421e-21 0.000517977 5.98155e-21 0)
(-0.000163177 -0.000184604 5.34051e-21 0.000455701 -1.54198e-20 0)
(8.89647e-05 -0.000235037 0 0.000553929 0 0)
(4.34227e-05 -0.000370565 -7.52159e-22 0.000303788 1.8667e-20 0)
(0.000375634 -0.000326413 1.21023e-20 0.000565833 -6.96526e-21 0)
(0.000551941 -0.000505416 -2.68168e-20 0.000192108 3.6548e-20 0)
(0.000476169 -0.000273572 4.08422e-20 0.000325899 -4.2636e-20 0)
(0.00113935 -0.000514652 -1.04156e-19 0.000183964 3.73201e-20 0)
(0.000839583 -0.000300074 -9.8888e-20 -0.00024229 2.10828e-19 0)
(-0.000392121 -1.97377e-05 0 0.000289508 0 0)
(-0.000161341 -7.66452e-05 7.9564e-21 0.000319563 -5.25e-21 0)
(-0.000262041 -0.000165657 -2.32291e-20 0.000338998 3.4925e-21 0)
(-7.98226e-05 -0.000149932 -4.83816e-20 0.000176429 1.83713e-20 0)
(-0.000122492 -0.000329454 1.54573e-20 0.000237003 -7.50744e-21 0)
(4.15544e-05 -0.000178003 3.48285e-20 -1.90578e-05 -1.37923e-20 0)
(0.000158628 -0.000506325 7.31928e-20 9.27918e-05 7.12858e-21 0)
(0.000327344 -0.000230375 9.58029e-20 -7.60432e-05 -2.71555e-20 0)
(0.000468472 -0.000652372 -4.80151e-20 -9.48326e-05 2.07452e-20 0)
(0.000596296 -0.000167743 6.68375e-20 -0.00025553 4.70997e-20 0)
(-0.000164141 -4.58683e-05 0 3.7927e-05 0 0)
(-3.14137e-05 -1.58762e-06 4.80929e-21 6.73599e-05 1.2003e-20 0)
(-3.60357e-05 -8.60956e-05 1.37138e-20 2.98097e-05 -4.94784e-21 0)
(6.68127e-05 -4.41134e-05 -8.62408e-22 -4.38599e-05 -2.31769e-20 0)
(0.000105827 -0.000141407 -1.07881e-20 -6.24251e-05 -4.72197e-21 0)
(0.000291234 -0.000110152 -9.16349e-22 -0.000117496 -3.22691e-20 0)
(0.000245082 -0.000201343 2.64312e-20 -0.00021759 7.99241e-21 0)
(0.000614676 -0.000174665 1.04838e-20 -0.000134972 -1.8342e-20 0)
(0.000495032 -0.000272994 4.58967e-20 -0.00023688 -1.68553e-20 0)
(0.000737929 -0.000150642 4.0323e-20 -0.000199828 -1.50464e-20 0)
(-1.65991e-05 -8.09693e-06 6.62585e-21 -0.000107133 8.64215e-21 0)
(7.57406e-05 -9.35988e-06 2.44891e-20 -4.64197e-05 -2.98205e-20 0)
(7.99807e-05 -8.06912e-06 -1.39989e-20 -0.000140828 6.32175e-21 0)
(0.000255807 -7.06444e-05 2.33832e-20 -5.90818e-05 4.47053e-20 0)
(0.000178793 -6.64018e-05 1.57257e-20 -0.000216893 1.24702e-20 0)
(0.000495258 -0.00015158 -6.13514e-21 -0.000118267 1.15334e-21 0)
(0.000400232 -0.000159821 -8.34546e-21 -0.000270103 -2.45702e-21 0)
(0.000688249 -0.000185171 -2.23197e-20 -0.000219751 -1.19112e-20 0)
(0.000680208 -0.000226822 7.18546e-20 -0.000265295 2.25315e-20 0)
(0.000763332 -0.000172185 -3.64254e-20 -0.000267394 -1.83779e-20 0)
(-9.01663e-06 1.93006e-05 -3.23867e-22 -0.000140938 3.3896e-21 0)
(0.000137189 -6.71532e-05 -3.47276e-20 -6.0941e-05 -1.71905e-20 0)
(0.000144675 -2.89385e-05 -7.32601e-22 -0.000165945 -2.38547e-20 0)
(0.000347626 -0.000150461 -2.13052e-20 -6.64796e-05 -4.73361e-20 0)
(0.000288924 -0.000112828 1.67592e-20 -0.000229613 -9.20111e-21 0)
(0.000548375 -0.000213254 6.87733e-20 -0.000150673 8.28406e-21 0)
(0.000514129 -0.000198746 -6.27677e-20 -0.000258284 -1.88871e-20 0)
(0.000682998 -0.00021649 -5.64955e-20 -0.000248592 -1.97375e-20 0)
(0.000688753 -0.000228564 5.56026e-20 -0.000278315 1.8338e-20 0)
(0.000739512 -0.000188561 -2.97953e-20 -0.000295713 -5.16789e-21 0)
(-7.90694e-06 2.39078e-05 1.24503e-21 -0.000125255 -4.88215e-21 0)
(0.000190934 -0.000119381 2.65485e-20 -6.1564e-05 1.60954e-20 0)
(0.000203219 -8.8341e-05 7.86669e-21 -0.000131254 1.41252e-20 0)
(0.00038641 -0.000210771 -6.15151e-20 -0.000100161 -6.1683e-21 0)
(0.000381642 -0.000180018 5.45157e-20 -0.000193813 1.55103e-20 0)
(0.000548861 -0.00025233 1.09166e-20 -0.000186354 -1.17949e-21 0)
(0.000557085 -0.000232787 -5.73397e-20 -0.000234104 -1.83802e-20 0)
(0.000651715 -0.000236544 -4.63852e-20 -0.000255982 -1.96957e-20 0)
(0.000668919 -0.000232498 6.31099e-20 -0.000261642 2.23004e-20 0)
(0.000697256 -0.000196268 -3.47916e-21 -0.000291227 -4.84215e-21 0)
(5.49094e-05 1.6295e-05 -8.58707e-21 -8.88969e-05 8.23702e-21 0)
(0.000258519 -0.000146319 1.81611e-20 -6.36261e-05 3.61854e-21 0)
(0.000254919 -0.000128972 -2.81409e-20 -8.76798e-05 -7.56009e-21 0)
(0.000417113 -0.000238123 6.53267e-22 -0.000122167 -8.5748e-23 0)
(0.000422134 -0.000216131 2.707e-20 -0.000147248 7.38859e-21 0)
(0.000539625 -0.000267651 8.43766e-20 -0.000196579 2.12893e-20 0)
(0.000553623 -0.000246508 -4.41321e-20 -0.000193847 -1.29083e-20 0)
(0.00061169 -0.000244718 3.69168e-20 -0.000243528 4.59002e-21 0)
(0.000630232 -0.000230634 -1.29308e-20 -0.000226913 -4.50663e-21 0)
(0.000645132 -0.000199084 6.83704e-21 -0.000265105 -1.25671e-21 0)
(0.000153079 5.98162e-06 1.29372e-20 -2.85099e-05 -8.98335e-22 0)
(0.000323367 -0.000148881 5.94391e-21 -5.12599e-05 -5.04251e-22 0)
(0.000288013 -0.000141036 2.1097e-20 -3.35102e-05 1.22113e-21 0)
(0.000437531 -0.00023753 -2.45015e-20 -0.000112236 -8.43645e-21 0)
(0.000419614 -0.000219533 4.32824e-20 -8.85464e-05 7.55512e-21 0)
(0.000518325 -0.000259336 -2.40603e-20 -0.000170794 -3.76197e-21 0)
(0.000519461 -0.000238488 0 -0.000134793 0 0)
(0.000560598 -0.000232406 5.13274e-20 -0.00020494 1.61024e-20 0)
(0.000577961 -0.000216123 2.59828e-21 -0.000171744 3.71502e-21 0)
(0.000580561 -0.000183257 -4.41149e-20 -0.000222082 -1.65101e-20 0)
(0.000247262 -8.92774e-07 1.33221e-20 7.79471e-05 1.44081e-20 0)
(0.000349001 -0.000123693 2.09444e-20 -5.8623e-06 -1.75338e-21 0)
(0.000300061 -0.000124592 1.98273e-20 5.03615e-05 -2.27292e-21 0)
(0.000429089 -0.000193347 4.58004e-21 -6.7348e-05 -1.52662e-22 0)
(0.000396005 -0.000189652 6.4141e-21 -7.57387e-06 -1.40583e-21 0)
(0.000477017 -0.000201447 -6.99687e-20 -0.000122446 -1.8381e-20 0)
(0.00047521 -0.000200522 -4.51453e-20 -5.8951e-05 -2.23732e-20 0)
(0.000504399 -0.000172332 3.48949e-20 -0.000158626 -5.22867e-21 0)
(0.000520752 -0.000179993 -1.32988e-20 -0.000108138 -9.44334e-21 0)
(0.000518919 -0.000125949 -7.70541e-20 -0.000183011 -3.72676e-20 0)
(0.000345008 1.22073e-05 -5.49675e-20 0.000257594 -2.54935e-20 0)
(0.000390848 -7.20706e-05 -1.76404e-20 0.000175364 -1.16477e-20 -9.70993e-36)
(0.000351212 -6.09948e-05 -3.41098e-20 0.000207465 1.13004e-21 0)
(0.000412513 -7.68675e-05 -1.20672e-20 7.02276e-05 -5.29598e-21 -1.28689e-36)
(0.000410176 -0.000107451 -6.43712e-21 0.000119979 6.16159e-21 0)
(0.000441517 -5.78668e-05 0 -3.91403e-05 0 0)
(0.000452497 -0.000114012 5.54019e-21 1.23809e-05 -5.98884e-20 0)
(0.000474853 -3.53165e-05 -2.85446e-20 -0.000120909 -1.12049e-19 -2.30538e-35)
(0.000476766 -0.00010324 -6.56416e-20 -7.90877e-05 1.1022e-20 0)
(0.000490735 -1.09079e-05 2.14127e-20 -0.000181535 7.25852e-20 -9.9802e-36)
(0.00134925 -0.000384794 4.88241e-20 0.000143985 1.48258e-19 0)
(0.000728125 -0.000364799 -4.08379e-20 -0.000191925 4.46124e-20 0)
(0.00114208 -0.000394645 2.778e-20 2.34753e-05 9.24791e-20 0)
(0.000780434 -0.000354342 1.36623e-19 -0.000251113 1.21563e-19 0)
(0.00109754 -0.000431877 1.62414e-19 7.12084e-06 6.48804e-20 0)
(0.00079603 -0.00034679 0 -0.000289593 0 0)
(0.00108145 -0.000451977 -3.3277e-20 -1.20497e-05 2.34503e-20 0)
(0.000788748 -0.000337317 -1.69744e-20 -0.00030612 1.80967e-20 0)
(0.00106967 -0.000453311 3.23056e-20 -6.54729e-05 5.43918e-20 0)
(0.000779679 -0.000319135 -1.58729e-20 -0.000312586 1.74448e-20 0)
(0.00107542 -0.000425376 -3.36736e-20 -0.00015153 -5.30889e-20 0)
(0.000811573 -0.000296543 -1.45768e-19 -0.000317233 -1.32875e-19 0)
(0.0011141 -0.000370353 -8.5345e-20 -0.00025465 -6.61345e-20 0)
(0.000877208 -0.00027277 1.11757e-19 -0.000337672 2.82724e-20 0)
(0.00119149 -0.000300426 1.99147e-19 -0.000349526 1.19562e-19 0)
(0.000898341 -0.000226004 3.82039e-20 -0.000381512 1.86808e-20 0)
(0.00124057 -0.00020466 -4.45512e-20 -0.000424108 -1.16358e-20 0)
(0.000933157 -0.000135897 1.20633e-19 -0.000451939 8.03218e-20 0)
(0.00138869 -9.01928e-05 1.37937e-19 -0.000572382 7.87784e-20 0)
(0.00102786 -2.44781e-05 0 -0.000493972 0 0)
(0.0010143 -0.000637095 6.01103e-20 -2.17862e-05 2.872e-20 0)
(0.000648023 -0.000314768 6.09931e-20 -0.000266707 7.15095e-20 0)
(0.00105155 -0.000549282 1.91924e-20 -0.000177369 -1.02764e-20 0)
(0.000678032 -0.000289527 0 -0.000278606 0 0)
(0.000989147 -0.000451124 2.74879e-20 -0.000284263 4.90638e-20 0)
(0.00072229 -0.000259544 6.65879e-20 -0.000259496 7.57352e-20 0)
(0.000943007 -0.000364822 5.72439e-20 -0.000326926 2.2293e-20 0)
(0.000785437 -0.00023657 -8.35531e-20 -0.00022813 -5.24782e-20 0)
(0.000857481 -0.000292708 -2.33382e-20 -0.000360152 -5.29557e-20 0)
(0.00072762 -0.000206343 7.53058e-20 -0.000271621 4.85603e-20 0)
(0.000808515 -0.00024788 4.45578e-20 -0.000379418 2.11212e-20 0)
(0.000780913 -0.000179693 3.30225e-20 -0.00028127 2.70582e-20 0)
(0.000864388 -0.000213283 3.06063e-20 -0.000377082 4.44941e-20 0)
(0.000818538 -0.000144169 2.10316e-19 -0.000323138 1.66612e-19 0)
(0.000917542 -0.000166315 1.55069e-19 -0.000381979 8.93567e-20 0)
(0.000846559 -0.000107546 3.41314e-20 -0.000368254 2.52749e-20 0)
(0.000946811 -0.000108478 -3.13634e-20 -0.000399105 -1.56357e-20 0)
(0.000882096 -6.6471e-05 7.5443e-20 -0.000397562 5.57768e-20 0)
(0.000971812 -4.60916e-05 1.67159e-19 -0.000422109 1.11806e-19 0)
(0.000939726 -1.4452e-05 2.124e-20 -0.000394681 1.81351e-21 -3.21512e-36)
(0.000585789 -0.000305738 -7.53949e-21 -0.00027024 3.25721e-21 0)
(0.000823564 -0.000201185 1.37471e-19 -0.000239121 7.2154e-20 0)
(0.00069988 -0.000321402 1.16378e-19 -0.000255184 5.80784e-20 0)
(0.000798946 -0.000196304 1.70178e-19 -0.000290247 9.09325e-20 0)
(0.000754492 -0.000314759 1.64409e-19 -0.000255342 7.59023e-20 0)
(0.000769435 -0.000186091 1.3314e-19 -0.000313559 7.59598e-20 0)
(0.000787025 -0.000291612 1.73175e-19 -0.000262516 7.91162e-20 0)
(0.00074375 -0.000168682 1.00556e-21 -0.000330782 5.437e-21 0)
(0.000843158 -0.000258236 3.35772e-20 -0.00026142 2.59133e-20 0)
(0.000721827 -0.000160356 3.33e-20 -0.000338683 2.33417e-20 0)
(0.000835724 -0.000212411 1.0708e-19 -0.000290004 5.64318e-20 0)
(0.000724482 -0.000141799 -6.28495e-20 -0.000338473 -3.79575e-20 0)
(0.000837144 -0.000166773 -7.11021e-20 -0.000314545 -3.87259e-20 0)
(0.000741925 -0.000114359 2.67168e-21 -0.000338426 -3.33722e-21 0)
(0.000842858 -0.000120066 1.39841e-19 -0.000333556 9.35446e-20 0)
(0.000766595 -8.33179e-05 9.74968e-20 -0.000342813 6.57822e-20 0)
(0.000850021 -7.29645e-05 1.78613e-19 -0.000353182 1.23524e-19 0)
(0.000795656 -5.0777e-05 1.66787e-19 -0.000354306 1.1843e-19 0)
(0.000861558 -2.55351e-05 1.45951e-19 -0.000372702 1.02673e-19 0)
(0.00085805 -1.95916e-05 5.45293e-20 -0.000340796 3.71073e-21 -5.48222e-36)
(0.000701453 -0.000216117 -9.0378e-20 -0.000324792 -4.56392e-20 0)
(0.000846023 -0.000177317 -4.0379e-20 -0.000271011 -1.54077e-20 0)
(0.000730405 -0.000210244 -2.94792e-20 -0.000313953 -1.38681e-20 0)
(0.000813654 -0.000165138 2.99098e-20 -0.000292117 1.26884e-20 0)
(0.000723817 -0.000199447 3.33427e-20 -0.000304549 1.59303e-20 0)
(0.000780295 -0.000153124 9.65203e-20 -0.000298583 3.89386e-20 0)
(0.000720061 -0.000185688 6.20029e-20 -0.000295495 2.98239e-20 0)
(0.000749633 -0.000140744 9.27841e-20 -0.000301029 3.9589e-20 0)
(0.000723425 -0.000169294 1.10745e-21 -0.000289464 -6.06421e-22 0)
(0.000725528 -0.000129573 -5.52722e-20 -0.000306273 -2.62144e-20 0)
(0.000731752 -0.000149545 -9.16192e-20 -0.000287998 -4.61416e-20 0)
(0.000709609 -0.000116472 -3.38214e-20 -0.000311846 -1.54794e-20 0)
(0.0007431 -0.00012597 -2.40004e-20 -0.000291218 -1.1091e-20 0)
(0.000701713 -9.88677e-05 8.68337e-20 -0.000316277 4.48002e-20 0)
(0.000756341 -9.76328e-05 3.4747e-20 -0.000299658 1.9177e-20 0)
(0.000703856 -7.65199e-05 7.11228e-21 -0.000320642 2.85907e-21 0)
(0.000771927 -6.40833e-05 -2.97831e-20 -0.000311774 -1.68791e-20 0)
(0.000712745 -4.87298e-05 -2.73176e-20 -0.00032817 -1.53884e-20 0)
(0.00078958 -2.53244e-05 -7.03195e-20 -0.000320795 -4.07026e-20 0)
(0.000750505 -1.60341e-05 -1.10458e-20 -0.000321179 -3.71905e-22 -3.29671e-37)
(0.000712128 -0.000204158 -4.42892e-20 -0.000322378 -1.94207e-20 0)
(0.000805236 -0.000175253 5.97198e-20 -0.000284139 2.15976e-20 0)
(0.000730069 -0.00018906 2.9268e-20 -0.000313847 1.29124e-20 0)
(0.00077447 -0.000157924 -2.70331e-20 -0.000294094 -1.16312e-20 0)
(0.000715459 -0.000171638 -5.62321e-20 -0.000305458 -2.42521e-20 0)
(0.000744 -0.000142514 -2.85913e-20 -0.000291855 -9.92877e-21 0)
(0.000703959 -0.000154391 -3.29741e-20 -0.000294782 -1.24717e-20 0)
(0.000715746 -0.000128614 -3.56994e-20 -0.00028857 -9.75415e-21 0)
(0.000695839 -0.000137426 3.30612e-20 -0.000286295 1.29212e-20 0)
(0.000690615 -0.000114667 5.81778e-20 -0.000287767 2.18218e-20 0)
(0.000691556 -0.000120503 1.18819e-19 -0.000281804 5.10335e-20 0)
(0.00068342 -0.000101434 1.18057e-19 -0.000282638 4.39815e-20 0)
(0.00068878 -9.89602e-05 -2.01747e-20 -0.000282487 -1.01764e-20 0)
(0.000663368 -8.44832e-05 4.19804e-20 -0.000287593 2.08724e-20 0)
(0.000690528 -7.85277e-05 -2.63854e-20 -0.000283392 -1.20505e-20 0)
(0.000656652 -6.41668e-05 0 -0.000291846 0 0)
(0.000700859 -5.53503e-05 -2.65536e-20 -0.000284529 -1.24776e-20 0)
(0.000652021 -3.90788e-05 -1.98233e-20 -0.000297368 -1.23374e-20 0)
(0.00071073 -2.596e-05 -2.14139e-20 -0.000284188 -1.27939e-20 0)
(0.000661733 -7.8434e-06 0 -0.000295848 0 0)
(0.000687032 -0.000199054 4.29061e-20 -0.000300859 1.77228e-20 0)
(0.000747348 -0.000174264 0 -0.00027781 0 0)
(0.000700596 -0.00017941 2.75728e-20 -0.000294949 1.04037e-20 0)
(0.000723263 -0.000154258 5.33534e-20 -0.000285712 2.02475e-20 0)
(0.000686787 -0.000159297 5.84444e-20 -0.000289648 2.22261e-20 0)
(0.000701221 -0.000137918 8.61251e-20 -0.00028226 2.90209e-20 0)
(0.000675672 -0.000141503 5.13585e-20 -0.000281803 2.20271e-20 0)
(0.000683732 -0.000124355 2.6252e-20 -0.000273115 9.46296e-21 0)
(0.000670906 -0.000122558 6.79847e-21 -0.00027343 5.91914e-22 0)
(0.000655583 -0.000109918 -1.46843e-20 -0.000268222 -1.08721e-20 0)
(0.000645674 -0.000102455 -7.93071e-20 -0.000276975 -3.25847e-20 0)
(0.000630224 -8.99852e-05 -9.78652e-20 -0.000268275 -4.05046e-20 0)
(0.000650782 -8.6768e-05 -1.17443e-19 -0.000268662 -4.59183e-20 0)
(0.000621831 -7.18771e-05 -2.57412e-20 -0.000266246 -2.82735e-22 0)
(0.000648572 -6.95159e-05 0 -0.00026746 0 0)
(0.000612392 -5.20013e-05 -1.88254e-20 -0.000266176 -1.08789e-20 0)
(0.000645478 -4.99568e-05 -2.00048e-20 -0.000265493 -1.13146e-20 0)
(0.000601899 -2.86309e-05 -2.24592e-20 -0.000264743 -9.97452e-21 0)
(0.000641066 -2.64938e-05 -3.44392e-20 -0.000261292 -1.23656e-20 0)
(0.000591003 -3.02959e-07 -1.09577e-20 -0.000264812 -6.61264e-23 -5.86168e-38)
(0.000645887 -0.000193153 -2.86063e-20 -0.000267268 -1.00459e-20 0)
(0.000681522 -0.000172075 -3.13156e-20 -0.000252422 -1.00931e-20 0)
(0.000659693 -0.000169699 -5.18996e-20 -0.000267003 -2.08198e-20 0)
(0.000664848 -0.000149705 -2.58335e-20 -0.000258777 -9.09476e-21 0)
(0.000654849 -0.000145803 3.10546e-20 -0.000265238 1.03138e-20 0)
(0.000651946 -0.000129966 5.51192e-20 -0.000254533 1.96359e-20 0)
(0.000638711 -0.000122141 7.27127e-20 -0.000261402 3.08925e-20 0)
(0.00062063 -0.000108119 0 -0.000256663 0 0)
(0.000624037 -0.000104241 -3.06323e-20 -0.000257203 -1.09462e-20 0)
(0.000608842 -8.98806e-05 -1.18583e-19 -0.000252766 -5.01378e-20 0)
(0.000618666 -8.9393e-05 -1.28054e-19 -0.000252963 -5.43199e-20 0)
(0.000596002 -7.46596e-05 -1.42668e-19 -0.000250685 -6.19533e-20 0)
(0.000613522 -7.52717e-05 -1.54727e-19 -0.000252036 -6.66119e-20 0)
(0.000584093 -5.83067e-05 -1.31299e-19 -0.000248582 -5.23204e-20 0)
(0.000607184 -6.06678e-05 -1.97119e-20 -0.000251098 -1.07776e-20 0)
(0.000571593 -3.99045e-05 1.77266e-20 -0.000244504 1.04132e-20 0)
(0.000598218 -4.48076e-05 1.87633e-20 -0.000247197 1.06956e-20 0)
(0.000556534 -1.85409e-05 -3.71983e-20 -0.000237054 -2.01719e-20 0)
(0.000585186 -2.7e-05 1.3481e-20 -0.000241556 1.3217e-21 0)
(0.000524674 7.60957e-06 9.62495e-21 -0.000241343 1.03214e-22 -9.14923e-38)
(0.000594517 -0.000175167 -3.31409e-21 -0.000213081 -4.6233e-21 0)
(0.000607333 -0.000153413 -6.02423e-21 -0.000211702 -5.05895e-21 0)
(0.000607566 -0.000150395 2.98841e-21 -0.000219613 2.5378e-21 0)
(0.000595662 -0.000127941 3.83441e-21 -0.000221994 2.44163e-21 0)
(0.000601706 -0.000127407 -2.37411e-20 -0.00022534 -1.09996e-20 0)
(0.000583897 -0.000103804 -2.28678e-20 -0.000226849 -1.10213e-20 0)
(0.00060278 -0.000107114 0 -0.000223034 0 0)
(0.000573009 -8.44021e-05 2.12587e-20 -0.000227601 1.06383e-20 0)
(0.00059515 -8.86105e-05 1.0222e-19 -0.000225357 5.01784e-20 0)
(0.0005647 -6.65262e-05 5.4926e-20 -0.000227701 2.87701e-20 0)
(0.000588091 -7.2728e-05 4.54614e-20 -0.000228422 2.28229e-20 0)
(0.000557683 -5.00089e-05 3.88677e-20 -0.00022843 2.16138e-20 0)
(0.000580475 -5.86373e-05 1.42523e-19 -0.000231663 7.27835e-20 0)
(0.000550441 -3.42443e-05 9.25788e-20 -0.00022825 5.09563e-20 0)
(0.000571014 -4.57193e-05 6.02954e-20 -0.000233414 3.3064e-20 0)
(0.000541087 -1.87502e-05 0 -0.000225037 0 0)
(0.000558117 -3.3754e-05 2.85123e-20 -0.000231396 1.3914e-20 0)
(0.000527117 -3.21564e-06 4.75253e-20 -0.000217605 2.60072e-20 0)
(0.000539723 -2.3345e-05 -2.0469e-20 -0.000228654 -1.11206e-20 0)
(0.000481798 1.45911e-05 -1.87461e-20 -0.000227161 -1.07493e-21 3.17621e-37)
(0.000538151 -0.000139944 -7.83101e-20 -0.000165416 -4.52266e-20 0)
(0.000550679 -0.000107914 -2.32484e-20 -0.000172523 -2.91917e-20 0)
(0.000557421 -0.000117881 -2.24716e-20 -0.000180588 -1.30358e-20 0)
(0.000547039 -8.57685e-05 0 -0.000185933 0 0)
(0.000559524 -9.65853e-05 -4.71467e-20 -0.000191507 -3.15004e-20 0)
(0.000543257 -6.5168e-05 -2.49994e-20 -0.000193452 -1.75611e-20 0)
(0.000559704 -7.73172e-05 -9.20085e-20 -0.000198084 -5.50069e-20 0)
(0.000540105 -4.65508e-05 -1.0945e-19 -0.000199713 -6.82113e-20 0)
(0.000558544 -6.0141e-05 -1.81765e-19 -0.000203853 -1.07569e-19 0)
(0.000537744 -2.98024e-05 -5.13098e-20 -0.000206047 -3.95739e-20 0)
(0.000555587 -4.50481e-05 1.04444e-20 -0.000209507 9.50503e-21 0)
(0.000535884 -1.48889e-05 1.32038e-19 -0.000212156 8.97054e-20 0)
(0.000550065 -3.21724e-05 3.89952e-20 -0.000214676 2.22228e-20 0)
(0.000533897 -2.18362e-06 2.04864e-20 -0.000216955 1.38851e-20 0)
(0.000541137 -2.18772e-05 0 -0.000218753 0 0)
(0.0005312 7.31369e-06 -7.59655e-20 -0.00021875 -5.08078e-20 0)
(0.000528444 -1.47955e-05 -1.09334e-19 -0.000221432 -6.99489e-20 0)
(0.000527761 1.19225e-05 -5.39156e-20 -0.000215421 -3.77451e-20 0)
(0.000511929 -1.16142e-05 7.39302e-21 -0.000223314 3.45846e-21 0)
(0.00050364 1.20701e-05 1.32172e-20 -0.000213774 8.21133e-22 9.70512e-37)
(0.000476805 -7.48675e-05 7.59637e-20 -0.00016886 6.61007e-20 0)
(0.000522112 -2.30085e-05 7.05545e-20 -0.000181444 9.42653e-20 -2.66493e-35)
(0.000499032 -6.73616e-05 1.2858e-19 -0.000191771 1.14399e-19 0)
(0.000537864 -1.37176e-05 5.49725e-20 -0.000197111 9.15088e-20 -2.59547e-35)
(0.000501538 -5.32439e-05 8.43716e-20 -0.000216176 6.44016e-20 0)
(0.000546978 -6.98413e-06 0 -0.00020765 0 0)
(0.000502001 -3.88401e-05 6.20267e-20 -0.000232367 5.6167e-20 0)
(0.000552524 -2.17412e-06 6.91348e-20 -0.000214614 7.52803e-20 -2.6113e-35)
(0.000502656 -2.60915e-05 1.03174e-19 -0.000242022 7.85804e-20 0)
(0.000554767 1.34865e-06 -1.02054e-20 -0.000219535 -2.18581e-21 9.63671e-37)
(0.000503798 -1.53249e-05 -6.25658e-20 -0.000246427 -4.73421e-20 0)
(0.000553879 4.05389e-06 -1.6414e-20 -0.000222627 -1.822e-20 -3.09988e-36)
(0.000505118 -6.62512e-06 6.88231e-20 -0.00024639 5.11462e-20 0)
(0.000550194 6.05962e-06 1.05986e-19 -0.000223841 9.13831e-20 -7.00561e-35)
(0.000506121 -2.54142e-07 1.35539e-19 -0.000242664 9.39163e-20 0)
(0.000544378 7.07759e-06 4.02975e-20 -0.000223114 3.24608e-20 -1.14156e-35)
(0.000506311 3.28889e-06 8.75499e-20 -0.000236183 5.86487e-20 0)
(0.000537604 6.66839e-06 5.6624e-20 -0.000220319 4.27907e-20 -2.67344e-35)
(0.000505213 3.25209e-06 1.00175e-19 -0.000228358 6.65399e-20 0)
(0.000531891 4.89385e-07 1.4876e-20 -0.000214564 4.754e-21 -4.21412e-36)
(0.00142553 0.000216316 0 -0.000301369 0 0)
(0.00127462 0.000145888 -1.50258e-19 -0.00011004 -1.43696e-19 0)
(0.00110636 0.000320758 -1.76646e-19 -0.000215827 -1.1153e-19 0)
(0.00110884 0.000192371 -1.41506e-19 -0.000142876 -2.24833e-19 0)
(0.00092713 0.000354543 0 -9.18535e-05 0 0)
(0.000982535 0.000212373 5.67185e-20 -0.000196285 4.91842e-20 0)
(0.000810795 0.000349013 1.25463e-19 -1.33206e-05 6.70867e-20 0)
(0.000888751 0.00021434 1.1343e-19 -0.00026434 1.79093e-19 0)
(0.000731479 0.000316933 -7.06687e-20 2.28469e-05 -3.17676e-20 0)
(0.000819971 0.000206514 -1.04466e-19 -0.000328481 -1.66764e-19 0)
(0.000675154 0.000267391 1.29355e-19 2.54965e-05 6.26997e-20 0)
(0.000776028 0.000193895 2.00723e-19 -0.00037876 3.13971e-19 0)
(0.000637811 0.000202277 -1.08632e-20 -5.40932e-06 -6.05871e-21 0)
(0.000768243 0.000178418 -1.11514e-20 -0.000411279 -4.56213e-20 0)
(0.000623057 0.000120159 1.04114e-19 -7.36233e-05 8.99e-20 0)
(0.000814398 0.00016175 2.64791e-19 -0.000418108 3.95676e-19 0)
(0.000640589 2.15007e-05 1.91012e-19 -0.000166331 1.7104e-19 0)
(0.000933887 0.000149124 1.12023e-20 -0.00036803 5.39819e-20 0)
(0.00070074 -8.97812e-05 -4.31184e-20 -0.000225438 -7.18178e-20 0)
(0.000748529 0.00019386 -2.6305e-21 -0.000433129 -3.66756e-21 -5.82439e-36)
(0.00162555 0.000248838 7.03872e-20 -0.000899024 -7.87732e-20 0)
(0.00116593 0.000243621 -1.48095e-20 -0.000620931 -1.56537e-19 0)
(0.00134986 0.000400797 1.58367e-19 -0.000688499 3.97884e-19 0)
(0.00105583 0.000309829 4.24953e-19 -0.00062214 8.34168e-19 0)
(0.00121573 0.000537172 4.21572e-19 -0.000595987 7.41972e-19 0)
(0.00101509 0.000343313 9.37121e-20 -0.000630975 3.81673e-19 0)
(0.00110808 0.000599839 -1.27619e-19 -0.000480982 -3.37784e-19 0)
(0.000996837 0.000348665 1.21961e-19 -0.000637471 -4.24444e-20 0)
(0.00101432 0.00059678 3.08128e-19 -0.000363452 6.97579e-19 0)
(0.000972938 0.000338829 2.18908e-19 -0.000644482 6.73155e-19 0)
(0.000940736 0.000553735 0 -0.000273966 0 0)
(0.00097566 0.000311519 7.43118e-20 -0.000642697 7.84395e-20 0)
(0.000888133 0.000484536 1.60557e-19 -0.000230234 2.61077e-19 0)
(0.00102335 0.00026534 6.76661e-20 -0.000630872 1.16858e-19 0)
(0.000849633 0.000391582 -5.00247e-20 -0.000238243 -1.02037e-19 0)
(0.00111862 0.000204848 3.07291e-19 -0.000607733 4.44363e-19 0)
(0.000808082 0.000275898 1.58367e-19 -0.00029673 4.51331e-19 0)
(0.00124851 0.000135977 2.44118e-19 -0.000574925 5.3661e-19 0)
(0.000732149 0.000132132 1.70457e-19 -0.000402011 2.6948e-19 0)
(0.00133088 3.52811e-05 0 -0.000509561 0 0)
(0.00160746 0.000181089 2.90552e-19 -0.00118385 4.36471e-19 0)
(0.00124365 0.000205279 1.2556e-19 -0.000916904 2.33815e-19 0)
(0.0016647 0.000264119 8.42613e-20 -0.00113861 6.32565e-20 0)
(0.00140994 0.000244727 -9.63008e-20 -0.000975376 -1.1486e-19 0)
(0.00164161 0.000345736 -2.63735e-19 -0.00110676 -3.86974e-19 0)
(0.00137527 0.000243099 -3.72821e-19 -0.000922549 -4.72574e-19 0)
(0.00141446 0.000333389 -5.68608e-19 -0.000808395 -9.00514e-19 0)