/*--------------------------------*- C++ -*----------------------------------*\
| =========                 |                                                 |
| \\      /  F ield         | OpenFOAM: The Open Source CFD Toolbox           |
|  \\    /   O peration     | Version:  v2012                                 |
|   \\  /    A nd           | Website:  www.openfoam.com                      |
|    \\/     M anipulation  |                                                 |
\*---------------------------------------------------------------------------*/
FoamFile
{
    version     2.0;
    format      ascii;
    class       volVectorField;
    location    "4";
    object      D;
}
// * * * * * * * * * * * * * * * * * * * * * * * * * * * * * * * * * * * * * //

dimensions      [0 1 0 0 0 0 0];


internalField   nonuniform List<vector> 
16000
(
(1.4706e-05 -0.00077602 0)
(1.43069e-05 -0.00078377 0)
(1.39329e-05 -0.000790816 0)
(1.35837e-05 -0.000797641 0)
(1.32568e-05 -0.000803907 0)
(1.29508e-05 -0.000809957 0)
(1.26644e-05 -0.000815563 0)
(1.23958e-05 -0.000820964 0)
(1.21444e-05 -0.00082601 0)
(1.19083e-05 -0.000830867 0)
(1.16871e-05 -0.000835438 0)
(1.14794e-05 -0.000839838 0)
(1.12846e-05 -0.000844008 0)
(1.11015e-05 -0.000848024 0)
(1.09297e-05 -0.000851853 0)
(1.07682e-05 -0.000855547 0)
(1.06164e-05 -0.000859088 0)
(1.04737e-05 -0.000862512 0)
(1.03395e-05 -0.000865811 0)
(1.02132e-05 -0.000869008 0)
(1.00942e-05 -0.000872103 0)
(9.98229e-06 -0.000875111 0)
(9.8766e-06 -0.000878033 0)
(9.77713e-06 -0.000880883 0)
(9.68297e-06 -0.000883663 0)
(9.59424e-06 -0.000886381 0)
(9.51002e-06 -0.000889041 0)
(9.43042e-06 -0.000891651 0)
(9.35477e-06 -0.000894212 0)
(9.28278e-06 -0.000896731 0)
(9.21451e-06 -0.000899211 0)
(9.14883e-06 -0.000901656 0)
(9.08686e-06 -0.000904069 0)
(9.02659e-06 -0.000906453 0)
(8.96978e-06 -0.000908813 0)
(8.91399e-06 -0.000911147 0)
(8.86131e-06 -0.000913463 0)
(8.80892e-06 -0.000915758 0)
(8.75954e-06 -0.000918037 0)
(8.70933e-06 -0.0009203 0)
(4.41103e-05 -0.000775488 0)
(4.29145e-05 -0.000783198 0)
(4.17941e-05 -0.000790206 0)
(4.07479e-05 -0.000796995 0)
(3.97686e-05 -0.000803228 0)
(3.88518e-05 -0.000809247 0)
(3.79936e-05 -0.000814824 0)
(3.71889e-05 -0.000820197 0)
(3.64355e-05 -0.000825217 0)
(3.57282e-05 -0.00083005 0)
(3.50655e-05 -0.000834598 0)
(3.4443e-05 -0.000838976 0)
(3.38592e-05 -0.000843125 0)
(3.33105e-05 -0.000847121 0)
(3.27956e-05 -0.000850931 0)
(3.23113e-05 -0.000854607 0)
(3.18564e-05 -0.000858131 0)
(3.14284e-05 -0.000861538 0)
(3.10259e-05 -0.00086482 0)
(3.06469e-05 -0.000868002 0)
(3.02902e-05 -0.000871081 0)
(2.99539e-05 -0.000874075 0)
(2.9637e-05 -0.000876983 0)
(2.9338e-05 -0.000879819 0)
(2.90555e-05 -0.000882585 0)
(2.87888e-05 -0.00088529 0)
(2.85359e-05 -0.000887937 0)
(2.82974e-05 -0.000890534 0)
(2.80698e-05 -0.000893083 0)
(2.78557e-05 -0.000895589 0)
(2.76497e-05 -0.000898057 0)
(2.74562e-05 -0.000900489 0)
(2.72692e-05 -0.000902891 0)
(2.70919e-05 -0.000905262 0)
(2.69208e-05 -0.00090761 0)
(2.67561e-05 -0.000909932 0)
(2.65978e-05 -0.000912236 0)
(2.64424e-05 -0.000914518 0)
(2.62942e-05 -0.000916786 0)
(2.61447e-05 -0.000919036 0)
(7.34905e-05 -0.000774427 0)
(7.15031e-05 -0.000782055 0)
(6.9641e-05 -0.000788987 0)
(6.79021e-05 -0.000795706 0)
(6.62742e-05 -0.000801873 0)
(6.47501e-05 -0.000807829 0)
(6.33236e-05 -0.000813348 0)
(6.19858e-05 -0.000818667 0)
(6.07331e-05 -0.000823635 0)
(5.95572e-05 -0.000828419 0)
(5.84553e-05 -0.000832921 0)
(5.74202e-05 -0.000837255 0)
(5.64496e-05 -0.000841362 0)
(5.55372e-05 -0.000845319 0)
(5.4681e-05 -0.000849091 0)
(5.38758e-05 -0.000852731 0)
(5.31194e-05 -0.00085622 0)
(5.24078e-05 -0.000859594 0)
(5.17386e-05 -0.000862844 0)
(5.11087e-05 -0.000865995 0)
(5.05156e-05 -0.000869044 0)
(4.9957e-05 -0.000872008 0)
(4.94301e-05 -0.000874888 0)
(4.89337e-05 -0.000877697 0)
(4.84641e-05 -0.000880436 0)
(4.80216e-05 -0.000883115 0)
(4.76014e-05 -0.000885735 0)
(4.72053e-05 -0.000888307 0)
(4.68274e-05 -0.000890829 0)
(4.64704e-05 -0.000893311 0)
(4.61292e-05 -0.000895754 0)
(4.58041e-05 -0.000898161 0)
(4.54951e-05 -0.000900539 0)
(4.51972e-05 -0.000902885 0)
(4.49143e-05 -0.00090521 0)
(4.46386e-05 -0.000907508 0)
(4.43764e-05 -0.000909788 0)
(4.41173e-05 -0.000912046 0)
(4.38718e-05 -0.00091429 0)
(4.36233e-05 -0.000916516 0)
(0.000102831 -0.000772839 0)
(0.000100061 -0.000780344 0)
(9.74643e-05 -0.000787165 0)
(9.50398e-05 -0.000793777 0)
(9.27698e-05 -0.000799845 0)
(9.06445e-05 -0.000805709 0)
(8.86549e-05 -0.000811141 0)
(8.67891e-05 -0.000816378 0)
(8.50419e-05 -0.000821269 0)
(8.34016e-05 -0.00082598 0)
(8.18645e-05 -0.000830413 0)
(8.04205e-05 -0.000834682 0)
(7.90663e-05 -0.000838727 0)
(7.77934e-05 -0.000842624 0)
(7.65987e-05 -0.00084634 0)
(7.54752e-05 -0.000849926 0)
(7.44198e-05 -0.000853363 0)
(7.34265e-05 -0.000856687 0)
(7.24928e-05 -0.000859889 0)
(7.16134e-05 -0.000862993 0)
(7.0786e-05 -0.000865997 0)
(7.00057e-05 -0.000868918 0)
(6.92708e-05 -0.000871755 0)
(6.85768e-05 -0.000874522 0)
(6.7922e-05 -0.00087722 0)
(6.7303e-05 -0.000879859 0)
(6.67167e-05 -0.000882441 0)
(6.61633e-05 -0.000884974 0)
(6.56345e-05 -0.000887459 0)
(6.51387e-05 -0.000889904 0)
(6.46581e-05 -0.000892311 0)
(6.42125e-05 -0.000894682 0)
(6.37786e-05 -0.000897022 0)
(6.33687e-05 -0.000899334 0)
(6.2973e-05 -0.000901621 0)
(6.25914e-05 -0.000903884 0)
(6.22258e-05 -0.000906127 0)
(6.18661e-05 -0.000908351 0)
(6.15243e-05 -0.000910558 0)
(6.11789e-05 -0.000912748 0)
(0.000132116 -0.000770728 0)
(0.000128574 -0.000778072 0)
(0.000125254 -0.000784743 0)
(0.000122154 -0.000791215 0)
(0.000119251 -0.000797153 0)
(0.000116533 -0.000802894 0)
(0.000113988 -0.000808211 0)
(0.000111601 -0.000813339 0)
(0.000109365 -0.000818129 0)
(0.000107267 -0.000822742 0)
(0.0001053 -0.000827085 0)
(0.000103452 -0.000831266 0)
(0.000101719 -0.000835229 0)
(0.00010009 -0.000839048 0)
(9.85608e-05 -0.000842689 0)
(9.71227e-05 -0.000846203 0)
(9.57717e-05 -0.000849572 0)
(9.45006e-05 -0.000852829 0)
(9.33052e-05 -0.000855968 0)
(9.21799e-05 -0.00085901 0)
(9.11204e-05 -0.000861955 0)
(9.01225e-05 -0.000864818 0)
(8.91814e-05 -0.0008676 0)
(8.82948e-05 -0.000870312 0)
(8.74562e-05 -0.000872957 0)
(8.66668e-05 -0.000875544 0)
(8.5916e-05 -0.000878075 0)
(8.52112e-05 -0.000880558 0)
(8.45348e-05 -0.000882993 0)
(8.39014e-05 -0.000885391 0)
(8.32892e-05 -0.000887746 0)
(8.27065e-05 -0.000890066 0)
(8.21593e-05 -0.000892362 0)
(8.1627e-05 -0.000894624 0)
(8.11258e-05 -0.000896867 0)
(8.0635e-05 -0.000899081 0)
(8.01701e-05 -0.000901279 0)
(7.97103e-05 -0.000903454 0)
(7.92749e-05 -0.000905615 0)
(7.8835e-05 -0.000907757 0)
(0.00016133 -0.000768101 0)
(0.000157031 -0.000775245 0)
(0.000153002 -0.000781731 0)
(0.000149238 -0.000788029 0)
(0.000145713 -0.000793806 0)
(0.000142413 -0.000799394 0)
(0.000139322 -0.000804569 0)
(0.000136423 -0.000809562 0)
(0.000133708 -0.000814225 0)
(0.000131158 -0.000818719 0)
(0.000128769 -0.000822949 0)
(0.000126524 -0.000827023 0)
(0.000124418 -0.000830884 0)
(0.000122438 -0.000834605 0)
(0.00012058 -0.000838153 0)
(0.000118832 -0.000841578 0)
(0.00011719 -0.000844862 0)
(0.000115645 -0.000848037 0)
(0.000114192 -0.000851097 0)
(0.000112824 -0.000854064 0)
(0.000111536 -0.000856934 0)
(0.000110322 -0.000859725 0)
(0.00010918 -0.000862436 0)
(0.0001081 -0.000865081 0)
(0.000107083 -0.000867658 0)
(0.000106119 -0.000870181 0)
(0.00010521 -0.000872644 0)
(0.000104347 -0.000875067 0)
(0.000103526 -0.000877434 0)
(0.000102755 -0.000879776 0)
(0.00010199 -0.000882064 0)
(0.000101317 -0.000884337 0)
(0.000100645 -0.000886564 0)
(0.000100009 -0.000888776 0)
(9.93987e-05 -0.000890954 0)
(9.88057e-05 -0.000893115 0)
(9.82418e-05 -0.000895251 0)
(9.76849e-05 -0.00089737 0)
(9.71579e-05 -0.000899473 0)
(9.66257e-05 -0.000901556 0)
(0.000190456 -0.000764964 0)
(0.000185419 -0.000771871 0)
(0.000180697 -0.000778138 0)
(0.000176285 -0.000784229 0)
(0.000172152 -0.000789814 0)
(0.000168282 -0.00079522 0)
(0.000164657 -0.000800226 0)
(0.000161257 -0.000805059 0)
(0.000158072 -0.000809573 0)
(0.000155081 -0.000813924 0)
(0.000152277 -0.000818019 0)
(0.000149642 -0.000821965 0)
(0.000147171 -0.000825705 0)
(0.000144847 -0.00082931 0)
(0.000142666 -0.000832748 0)
(0.000140614 -0.000836067 0)
(0.000138686 -0.000839249 0)
(0.000136872 -0.000842327 0)
(0.000135166 -0.000845294 0)
(0.00013356 -0.000848168 0)
(0.000132048 -0.000850953 0)
(0.000130623 -0.000853656 0)
(0.000129281 -0.000856288 0)
(0.000128015 -0.000858847 0)
(0.000126819 -0.000861351 0)
(0.000125692 -0.000863788 0)
(0.000124623 -0.000866188 0)
(0.000123621 -0.000868521 0)
(0.000122655 -0.000870836 0)
(0.000121772 -0.000873084 0)
(0.000120881 -0.000875327 0)
(0.000120032 -0.000877535 0)
(0.000119274 -0.000879686 0)
(0.000118516 -0.000881834 0)
(0.000117807 -0.000883935 0)
(0.000117113 -0.000886029 0)
(0.000116454 -0.000888092 0)
(0.000115806 -0.000890143 0)
(0.000115189 -0.000892174 0)
(0.000114571 -0.000894188 0)
(0.000219481 -0.000761327 0)
(0.000213726 -0.00076796 0)
(0.000208329 -0.000773975 0)
(0.000203287 -0.000779828 0)
(0.000198563 -0.000785192 0)
(0.000194137 -0.000790389 0)
(0.000189993 -0.0007952 0)
(0.000186104 -0.000799849 0)
(0.00018246 -0.000804189 0)
(0.000179038 -0.000808376 0)
(0.00017583 -0.000812316 0)
(0.000172815 -0.000816115 0)
(0.000169987 -0.000819715 0)
(0.000167327 -0.000823187 0)
(0.00016483 -0.000826498 0)
(0.000162481 -0.000829695 0)
(0.000160274 -0.000832761 0)
(0.000158197 -0.000835727 0)
(0.000156244 -0.000838586 0)
(0.000154405 -0.000841357 0)
(0.000152673 -0.000844041 0)
(0.000151042 -0.000846648 0)
(0.000149504 -0.000849184 0)
(0.000148055 -0.000851654 0)
(0.000146685 -0.000854067 0)
(0.000145395 -0.000856421 0)
(0.000144172 -0.000858731 0)
(0.000143018 -0.000860986 0)
(0.000141927 -0.000863212 0)
(0.000140885 -0.000865383 0)
(0.000139927 -0.000867538 0)
(0.000138958 -0.00086964 0)
(0.000138067 -0.000871732 0)
(0.000137205 -0.000873779 0)
(0.000136386 -0.000875818 0)
(0.000135597 -0.00087782 0)
(0.000134841 -0.000879815 0)
(0.000134104 -0.000881779 0)
(0.000133401 -0.000883738 0)
(0.000132699 -0.000885669 0)
(0.000248388 -0.000757199 0)
(0.000241939 -0.000763524 0)
(0.00023589 -0.000769255 0)
(0.000230237 -0.000774839 0)
(0.000224939 -0.000779954 0)
(0.000219976 -0.000784916 0)
(0.000215327 -0.000789507 0)
(0.000210964 -0.000793948 0)
(0.000206875 -0.000798093 0)
(0.000203034 -0.000802094 0)
(0.000199433 -0.00080586 0)
(0.000196049 -0.000809492 0)
(0.000192873 -0.000812934 0)
(0.000189886 -0.000816255 0)
(0.000187082 -0.000819423 0)
(0.000184444 -0.000822482 0)
(0.000181965 -0.000825417 0)
(0.000179632 -0.000828256 0)
(0.000177438 -0.000830992 0)
(0.000175372 -0.000833646 0)
(0.000173427 -0.000836215 0)
(0.000171594 -0.000838713 0)
(0.000169867 -0.000841141 0)
(0.000168239 -0.000843507 0)
(0.000166701 -0.000845816 0)
(0.000165251 -0.000848073 0)
(0.000163877 -0.000850281 0)
(0.000162583 -0.000852447 0)
(0.000161349 -0.000854569 0)
(0.000160188 -0.000856658 0)
(0.000159076 -0.000858708 0)
(0.000158019 -0.000860726 0)
(0.000157019 -0.000862724 0)
(0.000156057 -0.000864687 0)
(0.000155145 -0.000866635 0)
(0.000154261 -0.000868553 0)
(0.000153421 -0.000870459 0)
(0.000152597 -0.000872337 0)
(0.000151815 -0.000874208 0)
(0.000151033 -0.000876051 0)
(0.000277163 -0.000752591 0)
(0.000270046 -0.000758576 0)
(0.000263368 -0.000763992 0)
(0.000257127 -0.00076928 0)
(0.000251276 -0.000774119 0)
(0.000245794 -0.00077882 0)
(0.000240657 -0.000783168 0)
(0.000235836 -0.000787378 0)
(0.000231317 -0.000791307 0)
(0.000227071 -0.000795103 0)
(0.00022309 -0.000798675 0)
(0.000219347 -0.000802122 0)
(0.000215835 -0.00080539 0)
(0.000212532 -0.000808545 0)
(0.000209429 -0.000811553 0)
(0.000206511 -0.000814461 0)
(0.000203768 -0.000817249 0)
(0.000201186 -0.000819948 0)
(0.000198758 -0.00082255 0)
(0.000196471 -0.000825074 0)
(0.000194319 -0.000827517 0)
(0.000192291 -0.000829893 0)
(0.00019038 -0.000832203 0)
(0.000188578 -0.000834454 0)
(0.000186877 -0.000836651 0)
(0.000185273 -0.000838797 0)
(0.000183756 -0.000840898 0)
(0.000182321 -0.000842956 0)
(0.000180966 -0.000844976 0)
(0.000179675 -0.000846959 0)
(0.000178459 -0.000848911 0)
(0.000177289 -0.000850831 0)
(0.000176186 -0.000852728 0)
(0.000175124 -0.000854593 0)
(0.000174116 -0.000856443 0)
(0.000173143 -0.000858263 0)
(0.000172216 -0.000860073 0)
(0.000171311 -0.000861853 0)
(0.000170451 -0.000863629 0)
(0.000169595 -0.000865374 0)
(0.00030579 -0.000747515 0)
(0.000298034 -0.00075313 0)
(0.000290755 -0.000758203 0)
(0.000283949 -0.000763166 0)
(0.000277568 -0.000767705 0)
(0.000271588 -0.000772121 0)
(0.000265982 -0.000776204 0)
(0.00026072 -0.000780161 0)
(0.000255787 -0.000783854 0)
(0.000251152 -0.000787425 0)
(0.000246804 -0.000790786 0)
(0.000242716 -0.000794032 0)
(0.000238879 -0.000797108 0)
(0.00023527 -0.00080008 0)
(0.00023188 -0.000802915 0)
(0.000228691 -0.000805656 0)
(0.000225693 -0.000808285 0)
(0.000222871 -0.000810831 0)
(0.000220216 -0.000813285 0)
(0.000217717 -0.000815667 0)
(0.000215364 -0.000817972 0)
(0.000213147 -0.000820215 0)
(0.000211057 -0.000822395 0)
(0.000209087 -0.000824521 0)
(0.000207228 -0.000826593 0)
(0.000205474 -0.000828622 0)
(0.000203814 -0.000830603 0)
(0.000202248 -0.000832548 0)
(0.000200761 -0.000834453 0)
(0.000199357 -0.000836327 0)
(0.000198018 -0.000838168 0)
(0.000196754 -0.00083998 0)
(0.000195547 -0.000841769 0)
(0.000194397 -0.000843529 0)
(0.0001933 -0.000845272 0)
(0.000192245 -0.000846988 0)
(0.000191239 -0.000848693 0)
(0.000190258 -0.000850369 0)
(0.000189327 -0.000852043 0)
(0.000188401 -0.000853683 0)
(0.000334256 -0.000741986 0)
(0.000325891 -0.000747201 0)
(0.000318039 -0.000751904 0)
(0.000310695 -0.000756518 0)
(0.000303808 -0.000760732 0)
(0.000297352 -0.000764842 0)
(0.000291298 -0.000768638 0)
(0.000285615 -0.000772324 0)
(0.000280285 -0.000775761 0)
(0.000275276 -0.00077909 0)
(0.000270576 -0.000782222 0)
(0.000266157 -0.00078525 0)
(0.000262008 -0.000788121 0)
(0.000258105 -0.000790896 0)
(0.000254439 -0.000793543 0)
(0.000250989 -0.000796104 0)
(0.000247746 -0.000798561 0)
(0.000244693 -0.000800942 0)
(0.000241821 -0.000803237 0)
(0.000239116 -0.000805465 0)
(0.00023657 -0.000807623 0)
(0.000234171 -0.000809722 0)
(0.000231911 -0.000811763 0)
(0.00022978 -0.000813753 0)
(0.00022777 -0.000815695 0)
(0.000225873 -0.000817593 0)
(0.00022408 -0.00081945 0)
(0.000222387 -0.000821272 0)
(0.000220783 -0.000823056 0)
(0.000219265 -0.000824811 0)
(0.000217824 -0.000826534 0)
(0.000216451 -0.000828227 0)
(0.000215154 -0.000829904 0)
(0.00021391 -0.000831548 0)
(0.00021273 -0.000833181 0)
(0.000211593 -0.000834783 0)
(0.000210512 -0.000836378 0)
(0.00020946 -0.000837942 0)
(0.000208461 -0.000839506 0)
(0.000207471 -0.000841033 0)
(0.000362545 -0.000736016 0)
(0.000353606 -0.000740805 0)
(0.000345211 -0.000745114 0)
(0.000337357 -0.000749356 0)
(0.00032999 -0.000753224 0)
(0.000323081 -0.000757005 0)
(0.000316601 -0.000760495 0)
(0.000310516 -0.00076389 0)
(0.000304809 -0.000767056 0)
(0.000299444 -0.000770125 0)
(0.000294409 -0.000773013 0)
(0.000289673 -0.000775808 0)
(0.000285227 -0.000778458 0)
(0.000281043 -0.000781022 0)
(0.000277112 -0.000783469 0)
(0.000273413 -0.000785838 0)
(0.000269935 -0.000788111 0)
(0.00026666 -0.000790315 0)
(0.00026358 -0.00079244 0)
(0.000260678 -0.000794505 0)
(0.000257947 -0.000796504 0)
(0.000255374 -0.00079845 0)
(0.000252949 -0.000800342 0)
(0.000250662 -0.000802188 0)
(0.000248507 -0.000803988 0)
(0.000246471 -0.00080575 0)
(0.000244549 -0.00080747 0)
(0.000242732 -0.000809161 0)
(0.00024101 -0.000810812 0)
(0.000239386 -0.000812444 0)
(0.000237821 -0.000814035 0)
(0.000236381 -0.000815617 0)
(0.000234988 -0.000817164 0)
(0.000233667 -0.000818695 0)
(0.000232407 -0.000820204 0)
(0.000231197 -0.000821691 0)
(0.000230046 -0.000823167 0)
(0.000228927 -0.000824614 0)
(0.000227866 -0.000826062 0)
(0.000226818 -0.000827473 0)
(0.000390645 -0.00072962 0)
(0.000381165 -0.00073396 0)
(0.000372259 -0.000737852 0)
(0.000363926 -0.0007417 0)
(0.000356105 -0.000745202 0)
(0.000348769 -0.000748637 0)
(0.000341887 -0.000751802 0)
(0.000335422 -0.00075489 0)
(0.000329356 -0.000757766 0)
(0.000323653 -0.000760562 0)
(0.0003183 -0.00076319 0)
(0.000313264 -0.000765739 0)
(0.000308535 -0.000768155 0)
(0.000304084 -0.000770496 0)
(0.000299902 -0.00077273 0)
(0.000295965 -0.000774895 0)
(0.000292263 -0.000776974 0)
(0.000288777 -0.00077899 0)
(0.000285498 -0.000780936 0)
(0.00028241 -0.000782826 0)
(0.000279502 -0.000784658 0)
(0.000276762 -0.000786441 0)
(0.000274181 -0.000788178 0)
(0.000271748 -0.000789868 0)
(0.000269453 -0.000791523 0)
(0.000267289 -0.000793134 0)
(0.000265244 -0.000794721 0)
(0.000263317 -0.000796264 0)
(0.000261486 -0.000797793 0)
(0.000259773 -0.00079928 0)
(0.000258118 -0.000800757 0)
(0.000256547 -0.000802207 0)
(0.000255089 -0.000803627 0)
(0.000253678 -0.000805033 0)
(0.000252349 -0.000806414 0)
(0.000251067 -0.000807778 0)
(0.000249851 -0.000809128 0)
(0.000248673 -0.000810453 0)
(0.000247554 -0.000811778 0)
(0.000246454 -0.000813066 0)
(0.000418541 -0.000722815 0)
(0.000408558 -0.000726683 0)
(0.000399175 -0.000730139 0)
(0.000390391 -0.000733573 0)
(0.000382146 -0.000736691 0)
(0.000374409 -0.000739761 0)
(0.000367149 -0.000742586 0)
(0.000360327 -0.000745351 0)
(0.000353925 -0.000747924 0)
(0.000347904 -0.000750431 0)
(0.00034225 -0.000752787 0)
(0.000336931 -0.000755077 0)
(0.000331934 -0.000757247 0)
(0.000327231 -0.000759353 0)
(0.00032281 -0.000761364 0)
(0.000318648 -0.000763315 0)
(0.000314734 -0.000765189 0)
(0.000311048 -0.000767008 0)
(0.00030758 -0.000768765 0)
(0.000304314 -0.000770474 0)
(0.000301238 -0.000772131 0)
(0.000298341 -0.000773744 0)
(0.00029561 -0.000775316 0)
(0.000293037 -0.000776849 0)
(0.000290609 -0.000778348 0)
(0.000288321 -0.000779811 0)
(0.000286159 -0.000781248 0)
(0.000284119 -0.000782651 0)
(0.000282194 -0.000784036 0)
(0.000280367 -0.000785385 0)
(0.000278663 -0.000786728 0)
(0.000277001 -0.000788026 0)
(0.000275451 -0.000789324 0)
(0.000273968 -0.000790586 0)
(0.000272562 -0.000791847 0)
(0.000271219 -0.000793074 0)
(0.000269939 -0.000794303 0)
(0.000268707 -0.000795497 0)
(0.000267534 -0.000796701 0)
(0.000266388 -0.00079786 0)
(0.000446221 -0.000715616 0)
(0.000435771 -0.000718994 0)
(0.000425946 -0.000721995 0)
(0.000416745 -0.000724999 0)
(0.000408105 -0.000727716 0)
(0.000399995 -0.000730406 0)
(0.000392383 -0.000732876 0)
(0.000385227 -0.000735303 0)
(0.00037851 -0.00073756 0)
(0.000372191 -0.000739765 0)
(0.000366256 -0.000741838 0)
(0.000360671 -0.000743856 0)
(0.000355423 -0.00074577 0)
(0.000350482 -0.000747631 0)
(0.000345837 -0.000749408 0)
(0.000341464 -0.000751135 0)
(0.00033735 -0.000752795 0)
(0.000333477 -0.00075441 0)
(0.000329831 -0.000755969 0)
(0.000326397 -0.000757488 0)
(0.000323164 -0.000758961 0)
(0.000320117 -0.000760398 0)
(0.000317248 -0.000761798 0)
(0.000314542 -0.000763165 0)
(0.000311992 -0.000764501 0)
(0.000309586 -0.000765808 0)
(0.000307316 -0.000767089 0)
(0.000305172 -0.000768345 0)
(0.000303146 -0.000769577 0)
(0.000301231 -0.000770788 0)
(0.000299418 -0.000771978 0)
(0.000297698 -0.000773143 0)
(0.000296072 -0.000774302 0)
(0.000294523 -0.000775432 0)
(0.000293056 -0.000776559 0)
(0.000291653 -0.000777655 0)
(0.00029032 -0.000778754 0)
(0.000289037 -0.000779818 0)
(0.000287818 -0.000780894 0)
(0.000286629 -0.000781924 0)
(0.000473671 -0.000708041 0)
(0.000462793 -0.000710911 0)
(0.000452562 -0.000713442 0)
(0.000442978 -0.000716001 0)
(0.000433973 -0.000718302 0)
(0.000425519 -0.0007206 0)
(0.00041758 -0.000722702 0)
(0.000410116 -0.000724779 0)
(0.000403107 -0.000726707 0)
(0.000396511 -0.0007286 0)
(0.000390314 -0.000730378 0)
(0.000384482 -0.000732115 0)
(0.000378999 -0.000733762 0)
(0.000373837 -0.000735368 0)
(0.000368983 -0.000736903 0)
(0.000364412 -0.000738399 0)
(0.000360111 -0.000739837 0)
(0.00035606 -0.000741238 0)
(0.000352248 -0.000742594 0)
(0.000348657 -0.000743915 0)
(0.000345275 -0.000745199 0)
(0.000342089 -0.000746452 0)
(0.000339087 -0.000747675 0)
(0.000336258 -0.000748868 0)
(0.000333591 -0.000750039 0)
(0.000331076 -0.000751182 0)
(0.000328704 -0.000752306 0)
(0.000326463 -0.000753405 0)
(0.000324351 -0.000754488 0)
(0.000322349 -0.000755549 0)
(0.000320464 -0.000756596 0)
(0.000318668 -0.000757621 0)
(0.000316975 -0.000758637 0)
(0.000315363 -0.000759629 0)
(0.000313836 -0.000760618 0)
(0.000312379 -0.000761578 0)
(0.000310995 -0.000762544 0)
(0.000309668 -0.000763473 0)
(0.000308406 -0.000764418 0)
(0.000307182 -0.000765316 0)
(0.000500878 -0.000700106 0)
(0.000489614 -0.000702455 0)
(0.000479012 -0.000704502 0)
(0.000469079 -0.000706603 0)
(0.000459741 -0.000708477 0)
(0.000450973 -0.000710369 0)
(0.000442734 -0.000712092 0)
(0.000434987 -0.000713809 0)
(0.000427708 -0.000715398 0)
(0.000420858 -0.000716969 0)
(0.00041442 -0.000718442 0)
(0.000408358 -0.000719889 0)
(0.000402659 -0.000721262 0)
(0.000397292 -0.000722605 0)
(0.000392244 -0.00072389 0)
(0.000387489 -0.000725146 0)
(0.000383015 -0.000726356 0)
(0.000378801 -0.000727538 0)
(0.000374834 -0.000728682 0)
(0.000371097 -0.000729801 0)
(0.000367578 -0.000730889 0)
(0.000364261 -0.000731954 0)
(0.000361138 -0.000732994 0)
(0.000358193 -0.000734012 0)
(0.000355421 -0.00073501 0)
(0.000352801 -0.000735986 0)
(0.000350338 -0.000736948 0)
(0.000348003 -0.000737887 0)
(0.000345807 -0.000738815 0)
(0.000343727 -0.000739723 0)
(0.000341764 -0.000740621 0)
(0.000339906 -0.000741499 0)
(0.000338148 -0.000742372 0)
(0.00033648 -0.000743222 0)
(0.0003349 -0.000744073 0)
(0.000333396 -0.000744895 0)
(0.000331967 -0.000745726 0)
(0.000330601 -0.00074652 0)
(0.000329302 -0.000747334 0)
(0.000328048 -0.000748098 0)
(0.000527832 -0.000691829 0)
(0.00051622 -0.000693646 0)
(0.000505287 -0.000695198 0)
(0.000495038 -0.000696829 0)
(0.000485401 -0.000698267 0)
(0.000476347 -0.000699743 0)
(0.000467837 -0.000701078 0)
(0.000459832 -0.000702425 0)
(0.000452309 -0.000703667 0)
(0.000445226 -0.000704907 0)
(0.000438567 -0.000706068 0)
(0.000432296 -0.000707218 0)
(0.000426399 -0.000708308 0)
(0.000420843 -0.000709382 0)
(0.000415617 -0.000710411 0)
(0.000410693 -0.000711421 0)
(0.000406059 -0.000712396 0)
(0.000401694 -0.000713352 0)
(0.000397583 -0.000714281 0)
(0.000393711 -0.000715191 0)
(0.000390064 -0.000716079 0)
(0.000386628 -0.000716949 0)
(0.000383391 -0.000717803 0)
(0.000380341 -0.000718638 0)
(0.000377465 -0.000719461 0)
(0.000374755 -0.000720265 0)
(0.000372199 -0.000721062 0)
(0.000369786 -0.000721843 0)
(0.000367512 -0.000722611 0)
(0.000365363 -0.000723367 0)
(0.000363335 -0.000724113 0)
(0.000361415 -0.000724844 0)
(0.000359602 -0.000725571 0)
(0.000357882 -0.000726279 0)
(0.000356254 -0.000726989 0)
(0.000354707 -0.000727672 0)
(0.000353239 -0.000728366 0)
(0.000351838 -0.000729024 0)
(0.000350508 -0.000729705 0)
(0.000349228 -0.000730335 0)
(0.000554519 -0.000683228 0)
(0.000542601 -0.000684503 0)
(0.000531374 -0.000685552 0)
(0.000520846 -0.000686706 0)
(0.00051094 -0.000687698 0)
(0.000501632 -0.000688751 0)
(0.000492879 -0.000689689 0)
(0.000484643 -0.00069066 0)
(0.000476899 -0.000691548 0)
(0.000469607 -0.00069245 0)
(0.000462749 -0.000693292 0)
(0.000456288 -0.000694138 0)
(0.000450211 -0.00069494 0)
(0.000444485 -0.000695739 0)
(0.000439096 -0.000696505 0)
(0.000434019 -0.000697265 0)
(0.000429239 -0.000698 0)
(0.000424735 -0.000698727 0)
(0.000420495 -0.000699434 0)
(0.000416499 -0.000700133 0)
(0.000412736 -0.000700816 0)
(0.00040919 -0.000701491 0)
(0.00040585 -0.000702153 0)
(0.000402702 -0.000702806 0)
(0.000399741 -0.000703451 0)
(0.000396939 -0.000704083 0)
(0.000394325 -0.000704718 0)
(0.000391816 -0.000705324 0)
(0.000389476 -0.000705936 0)
(0.000387257 -0.000706531 0)
(0.000385168 -0.000707127 0)
(0.000383194 -0.000707707 0)
(0.000381327 -0.000708288 0)
(0.000379563 -0.000708851 0)
(0.000377892 -0.00070942 0)
(0.000376308 -0.000709963 0)
(0.000374805 -0.000710521 0)
(0.000373377 -0.000711043 0)
(0.000372019 -0.000711591 0)
(0.000370719 -0.000712088 0)
(0.000580929 -0.00067432 0)
(0.000568746 -0.000675047 0)
(0.000557263 -0.000675587 0)
(0.000546491 -0.000676257 0)
(0.000536351 -0.000676798 0)
(0.000526818 -0.000677422 0)
(0.000517851 -0.000677958 0)
(0.000509411 -0.000678546 0)
(0.000501471 -0.000679073 0)
(0.000493992 -0.000679633 0)
(0.000486957 -0.000680152 0)
(0.000480327 -0.000680689 0)
(0.000474088 -0.000681198 0)
(0.000468209 -0.000681717 0)
(0.000462674 -0.000682217 0)
(0.000457459 -0.000682722 0)
(0.000452548 -0.000683214 0)
(0.000447919 -0.000683707 0)
(0.000443561 -0.00068419 0)
(0.000439453 -0.000684674 0)
(0.000435585 -0.00068515 0)
(0.000431939 -0.000685626 0)
(0.000428505 -0.000686094 0)
(0.000425268 -0.000686562 0)
(0.00042222 -0.000687022 0)
(0.000419345 -0.000687481 0)
(0.000416637 -0.000687935 0)
(0.000414085 -0.000688384 0)
(0.000411676 -0.000688833 0)
(0.000409406 -0.000689271 0)
(0.000407262 -0.000689716 0)
(0.00040524 -0.000690144 0)
(0.000403328 -0.000690581 0)
(0.000401524 -0.000690998 0)
(0.000399815 -0.000691427 0)
(0.0003982 -0.000691831 0)
(0.000396667 -0.000692253 0)
(0.000395214 -0.000692638 0)
(0.000393833 -0.000693055 0)
(0.000392518 -0.000693418 0)
(0.000607051 -0.000665123 0)
(0.000594644 -0.000665299 0)
(0.000582943 -0.000665325 0)
(0.000571962 -0.000665507 0)
(0.000561621 -0.000665592 0)
(0.000551896 -0.000665783 0)
(0.000542743 -0.000665913 0)
(0.000534125 -0.000666114 0)
(0.000526015 -0.000666278 0)
(0.000518374 -0.000666491 0)
(0.000511182 -0.000666682 0)
(0.000504404 -0.000666907 0)
(0.000498023 -0.000667119 0)
(0.000492008 -0.000667355 0)
(0.000486345 -0.000667586 0)
(0.000481006 -0.000667833 0)
(0.000475979 -0.000668078 0)
(0.00047124 -0.000668335 0)
(0.000466776 -0.000668592 0)
(0.00046257 -0.000668857 0)
(0.000458607 -0.000669124 0)
(0.000454872 -0.000669397 0)
(0.000451353 -0.000669671 0)
(0.000448039 -0.00066995 0)
(0.000444909 -0.000670228 0)
(0.000441971 -0.000670512 0)
(0.000439175 -0.000670787 0)
(0.000436584 -0.00067108 0)
(0.000434115 -0.000671365 0)
(0.000431799 -0.000671651 0)
(0.000429607 -0.000671939 0)
(0.000427543 -0.000672219 0)
(0.000425592 -0.000672508 0)
(0.000423753 -0.000672782 0)
(0.000422013 -0.00067307 0)
(0.00042037 -0.000673334 0)
(0.000418813 -0.00067362 0)
(0.000417342 -0.000673871 0)
(0.000415943 -0.000674157 0)
(0.000414617 -0.000674389 0)
(0.000632874 -0.000655655 0)
(0.000620284 -0.000655278 0)
(0.000608404 -0.000654789 0)
(0.00059725 -0.000654482 0)
(0.000586741 -0.000654109 0)
(0.000576854 -0.000653864 0)
(0.000567544 -0.000653586 0)
(0.000558775 -0.000653398 0)
(0.00055052 -0.000653196 0)
(0.00054274 -0.000653059 0)
(0.000535414 -0.000652921 0)
(0.000528507 -0.00065283 0)
(0.000522004 -0.000652745 0)
(0.000515872 -0.000652695 0)
(0.000510096 -0.000652655 0)
(0.000504651 -0.000652641 0)
(0.000499521 -0.000652639 0)
(0.000494686 -0.000652657 0)
(0.00049013 -0.000652687 0)
(0.000485837 -0.000652732 0)
(0.000481791 -0.00065279 0)
(0.00047798 -0.000652858 0)
(0.000474388 -0.000652939 0)
(0.000471004 -0.000653026 0)
(0.000467815 -0.000653126 0)
(0.000464813 -0.000653229 0)
(0.000461981 -0.000653345 0)
(0.000459314 -0.000653465 0)
(0.000456802 -0.000653589 0)
(0.000454435 -0.000653716 0)
(0.000452203 -0.00065385 0)
(0.000450101 -0.000653981 0)
(0.000448117 -0.000654123 0)
(0.000446248 -0.000654254 0)
(0.000444481 -0.000654402 0)
(0.000442817 -0.000654529 0)
(0.000441239 -0.000654681 0)
(0.000439754 -0.000654799 0)
(0.000438341 -0.000654956 0)
(0.000437009 -0.00065506 0)
(0.000658388 -0.000645933 0)
(0.000645656 -0.000645004 0)
(0.000633634 -0.000644001 0)
(0.000622343 -0.000643204 0)
(0.000611698 -0.000642374 0)
(0.000601681 -0.000641693 0)
(0.000592243 -0.000641005 0)
(0.000583351 -0.000640428 0)
(0.000574976 -0.000639859 0)
(0.000567079 -0.000639372 0)
(0.000559642 -0.000638903 0)
(0.000552628 -0.000638497 0)
(0.000546021 -0.000638111 0)
(0.00053979 -0.000637776 0)
(0.000533919 -0.000637463 0)
(0.000528383 -0.000637189 0)
(0.000523166 -0.000636937 0)
(0.000518248 -0.000636717 0)
(0.000513613 -0.000636518 0)
(0.000509245 -0.000636345 0)
(0.000505128 -0.000636191 0)
(0.000501249 -0.000636057 0)
(0.000497592 -0.000635941 0)
(0.00049415 -0.000635842 0)
(0.000490902 -0.000635757 0)
(0.000487849 -0.000635687 0)
(0.000484965 -0.000635628 0)
(0.000482259 -0.000635582 0)
(0.000479702 -0.000635546 0)
(0.000477301 -0.000635517 0)
(0.000475033 -0.0006355 0)
(0.000472901 -0.000635482 0)
(0.000470888 -0.000635481 0)
(0.000468997 -0.000635471 0)
(0.000467208 -0.000635481 0)
(0.000465527 -0.000635473 0)
(0.000463934 -0.000635494 0)
(0.000462439 -0.000635481 0)
(0.000461017 -0.000635512 0)
(0.000459684 -0.000635489 0)
(0.000683583 -0.000635976 0)
(0.000670749 -0.000634497 0)
(0.000658623 -0.000632983 0)
(0.00064723 -0.000631698 0)
(0.000636483 -0.000630412 0)
(0.000626365 -0.000629297 0)
(0.000616828 -0.000628201 0)
(0.000607839 -0.000627235 0)
(0.000599369 -0.000626299 0)
(0.000591381 -0.000625463 0)
(0.000583854 -0.000624663 0)
(0.000576753 -0.000623942 0)
(0.000570062 -0.000623258 0)
(0.00056375 -0.000622636 0)
(0.000557801 -0.000622051 0)
(0.00055219 -0.000621516 0)
(0.000546902 -0.000621016 0)
(0.000541915 -0.000620558 0)
(0.000537215 -0.000620131 0)
(0.000532784 -0.000619738 0)
(0.000528608 -0.000619374 0)
(0.000524673 -0.000619038 0)
(0.000520965 -0.000618728 0)
(0.000517472 -0.00061844 0)
(0.00051418 -0.000618175 0)
(0.000511081 -0.000617929 0)
(0.000508161 -0.000617703 0)
(0.000505413 -0.000617491 0)
(0.000502824 -0.000617297 0)
(0.000500388 -0.000617112 0)
(0.000498093 -0.000616945 0)
(0.000495935 -0.000616781 0)
(0.000493901 -0.000616637 0)
(0.000491989 -0.000616487 0)
(0.000490184 -0.000616363 0)
(0.000488491 -0.000616221 0)
(0.000486887 -0.000616113 0)
(0.000485387 -0.000615973 0)
(0.000483959 -0.00061588 0)
(0.000482628 -0.000615735 0)
(0.000708451 -0.000625798 0)
(0.000695553 -0.000623777 0)
(0.00068336 -0.000621756 0)
(0.000671899 -0.000619988 0)
(0.000661082 -0.000618249 0)
(0.000650894 -0.000616703 0)
(0.000641287 -0.000615202 0)
(0.000632228 -0.000613849 0)
(0.000623689 -0.000612549 0)
(0.000615631 -0.000611366 0)
(0.000608037 -0.000610237 0)