/*--------------------------------*- C++ -*----------------------------------*\
| =========                 |                                                 |
| \\      /  F ield         | OpenFOAM: The Open Source CFD Toolbox           |
|  \\    /   O peration     | Version:  v2012                                 |
|   \\  /    A nd           | Website:  www.openfoam.com                      |
|    \\/     M anipulation  |                                                 |
\*---------------------------------------------------------------------------*/
FoamFile
{
    version     2.0;
    format      ascii;
    class       pointVectorField;
    location    "18";
    object      pointD;
}
// * * * * * * * * * * * * * * * * * * * * * * * * * * * * * * * * * * * * * //

dimensions      [0 1 0 0 0 0 0];


internalField   nonuniform List<vector> 
8282
(
(0.00123382 0 1.05822e-21)
(0.00145645 0 -1.36764e-23)
(0.00133221 -5.76779e-05 6.7749e-22)
(0 -0.00108846 -1.01209e-22)
(0 -1.65969e-05 4.57248e-20)
(0.00126043 0 0)
(0 -0.00105692 0)
(0.000919944 -0.00020525 0)
(0.00037185 -0.000381965 -1.10415e-23)
(0.00140171 3.92266e-06 -1.65328e-22)
(0.00108392 -0.000370468 3.25877e-21)
(0.00108392 -0.000370468 3.25877e-21)
(0.000919944 -0.00020525 0)
(0 -0.00105692 0)
(0 -1.65969e-05 4.57248e-20)
(0.00123382 0 1.05822e-21)
(0.00126043 0 0)
(0.00145645 0 -1.36764e-23)
(0.00140171 3.92266e-06 -1.65328e-22)
(0.00133221 -5.76779e-05 6.7749e-22)
(0.00037185 -0.000381965 -1.10415e-23)
(0 -0.00108846 -1.01209e-22)
(4.45078e-05 -0.00104783 0)
(8.98099e-05 -0.00102214 0)
(0.000138053 -0.00098279 0)
(0.00019201 -0.000931893 0)
(0.000252314 -0.000870876 0)
(0.000317483 -0.000801936 0)
(0.000385657 -0.000729204 0)
(0.000452394 -0.000658816 0)
(0.000511867 -0.000597078 0)
(0.000561274 -0.000546326 0)
(0.000603535 -0.000503373 0)
(0.000642768 -0.000463247 0)
(0.000681028 -0.000424131 0)
(0.000717864 -0.000387345 0)
(0.000753669 -0.00035265 0)
(0.000788248 -0.000320324 0)
(0.000821981 -0.000290035 0)
(0.000854553 -0.000262019 0)
(0.000886486 -0.000235896 0)
(0.000952995 -0.000181236 0)
(0.000981761 -0.00016078 0)
(0.00100956 -0.000142076 0)
(0.00103612 -0.000125079 0)
(0.0010615 -0.000109676 0)
(0.00108564 -9.5731e-05 0)
(0.00110846 -8.31668e-05 0)
(0.00112994 -7.18573e-05 0)
(0.00114995 -6.17313e-05 0)
(0.00116852 -5.26654e-05 0)
(0.00118549 -4.45923e-05 0)
(0.00120091 -3.73819e-05 0)
(0.00121461 -3.09469e-05 0)
(0.00122659 -2.52234e-05 0)
(0.00123682 -2.01306e-05 0)
(0.00124528 -1.54966e-05 0)
(0.00125187 -1.12722e-05 0)
(0.00125663 -7.34714e-06 0)
(0.00125946 -3.6228e-06 0)
(0.0012369 0 0)
(0.00124051 0 0)
(0.00124363 0 0)
(0.00124635 0 0)
(0.00124867 0 0)
(0.00125069 0 0)
(0.0012524 0 0)
(0.00125388 0 0)
(0.00125512 0 0)
(0.00125618 0 0)
(0.00125706 0 0)
(0.00125781 0 0)
(0.00125842 0 0)
(0.00125892 0 0)
(0.00125933 0 0)
(0.00125965 0 0)
(0.00125991 0 0)
(0.00126011 0 0)
(0.00126027 0 0)
(0.00126063 0 0)
(0.0012608 0 0)
(0.00126099 0 0)
(0.00126136 0 0)
(0.00126179 0 0)
(0.00126255 0 0)
(0.00126343 0 0)
(0.00126472 0 0)
(0.00126619 0 0)
(0.00126808 0 0)
(0.00127022 0 0)
(0.00127277 0 0)
(0.00127563 0 0)
(0.00127885 0 0)
(0.00128244 0 0)
(0.00128636 0 0)
(0.00129066 0 0)
(0.00129527 0 0)
(0.00130026 0 0)
(0.00130554 0 0)
(0.00131119 0 0)
(0.00131711 0 0)
(0.00132338 0 0)
(0.00132989 0 0)
(0.00133672 0 0)
(0.00134378 0 0)
(0.00135111 0 0)
(0.00135865 0 0)
(0.00136642 0 0)
(0.00137436 0 0)
(0.00138249 0 0)
(0.00139075 0 0)
(0.00139914 0 0)
(0.00140762 0 0)
(0.00141617 0 0)
(0.00142474 0 0)
(0.00143331 0 0)
(0.00144182 0 0)
(0.00145025 0 0)
(0.00145834 1.38457e-06 4.88227e-22)
(0.00145781 2.74829e-06 1.03075e-21)
(0.00145694 4.07137e-06 9.91885e-22)
(0.00145572 5.3325e-06 -2.51583e-24)
(0.00145418 6.51323e-06 -1.08415e-21)
(0.00145229 7.5928e-06 -1.46807e-22)
(0.00145011 8.55385e-06 1.15043e-21)
(0.00144761 9.37772e-06 1.38524e-21)
(0.00144484 1.00474e-05 2.21307e-22)
(0.00144178 1.05483e-05 -4.8537e-22)
(0.00143849 1.08624e-05 4.9606e-22)
(0.00143495 1.09818e-05 1.78605e-22)
(0.00143121 1.08858e-05 2.15022e-23)
(0.00142727 1.05758e-05 8.51858e-22)
(0.00142318 1.00265e-05 -6.08644e-22)
(0.00141893 9.2513e-06 3.19014e-22)
(0.00141458 8.21873e-06 3.98606e-21)
(0.00141013 6.95606e-06 9.32835e-22)
(0.00140562 5.42559e-06 -2.34239e-21)
(0.00139905 2.80104e-06 1.09676e-21)
(0.00139703 1.88651e-06 -9.54629e-22)
(0.001395 9.21838e-07 -1.50432e-21)
(0.00139298 -8.94409e-08 -5.58237e-22)
(0.00139096 -1.14823e-06 -5.58237e-22)
(0.00138896 -2.25371e-06 3.73161e-22)
(0.00138696 -3.40427e-06 -1.93051e-22)
(0.00138498 -4.60079e-06 -1.84407e-21)
(0.00138301 -5.84002e-06 -7.06509e-22)
(0.00138106 -7.12371e-06 9.03718e-22)
(0.00137913 -8.44774e-06 3.32372e-22)
(0.00137722 -9.81405e-06 3.07066e-22)
(0.00137533 -1.12182e-05 -2.73733e-22)
(0.00137346 -1.26619e-05 -1.72162e-21)
(0.00137162 -1.41407e-05 2.92592e-23)
(0.0013698 -1.56559e-05 5.83091e-22)
(0.00136802 -1.72031e-05 5.90825e-22)
(0.00136626 -1.8783e-05 5.87158e-22)
(0.00136454 -2.03917e-05 1.7122e-24)
(0.00136284 -2.20292e-05 2.73828e-21)
(0.00136118 -2.36916e-05 7.90395e-22)
(0.00135955 -2.53785e-05 -1.35552e-21)
(0.00135795 -2.70863e-05 1.32606e-21)
(0.00135639 -2.88141e-05 7.2704e-22)
(0.00135486 -3.05585e-05 -1.89511e-21)
(0.00135336 -3.2318e-05 -1.29608e-21)
(0.0013519 -3.40894e-05 -6.01617e-22)
(0.00135047 -3.58711e-05 5.95378e-25)
(0.00134907 -3.766e-05 6.35325e-22)
(0.0013477 -3.9454e-05 3.31129e-23)
(0.00134635 -4.12504e-05 -1.21351e-21)
(0.00134504 -4.3047e-05 -1.21351e-21)
(0.00134374 -4.48413e-05 -1.19302e-21)
(0.00134247 -4.66309e-05 -5.8941e-22)
(0.00134121 -4.84139e-05 9.38283e-26)
(0.00133996 -5.01877e-05 -1.23702e-25)
(0.00133872 -5.19508e-05 1.1429e-21)
(0.00133749 -5.37003e-05 5.39501e-22)
(0.00133624 -5.54354e-05 6.02513e-22)
(0.00132223 -6.11238e-05 2.57356e-22)
(0.00130955 -6.50359e-05 1.41533e-22)
(0.00129693 -6.87582e-05 2.52876e-22)
(0.0012843 -7.2241e-05 8.7298e-22)
(0.00127159 -7.54026e-05 8.25343e-22)
(0.00125872 -7.82328e-05 2.24189e-22)
(0.00124564 -8.07168e-05 2.34406e-22)
(0.00123227 -8.28646e-05 -6.99669e-24)
(0.00121854 -8.47008e-05 8.07514e-24)
(0.00120441 -8.62478e-05 2.86696e-22)
(0.00118982 -8.75526e-05 -1.59726e-23)
(0.00117472 -8.86477e-05 -3.33584e-22)
(0.00115904 -8.95931e-05 1.18608e-23)
(0.00114277 -9.04315e-05 3.40841e-22)
(0.00112582 -9.12307e-05 3.79461e-22)
(0.00110819 -9.20452e-05 7.402e-22)
(0.00108978 -9.29487e-05 3.72109e-22)
(0.00107062 -9.40085e-05 -1.8658e-23)
(0.00105057 -9.53028e-05 -1.8658e-23)
(0.0010297 -9.69185e-05 4.70214e-22)
(0.00100784 -9.89283e-05 1.42476e-21)
(0.00098508 -0.000101449 9.08845e-22)
(0.0009613 -0.000104547 -4.57058e-23)
(0.000936497 -0.000108354 1.56898e-21)
(0.000910504 -0.000112971 1.65183e-21)
(0.000883499 -0.000118539 1.41725e-21)
(0.000855209 -0.000125156 2.2792e-21)
(0.000825859 -0.000133017 5.40353e-23)
(0.000795166 -0.00014219 -8.90773e-22)
(0.000763375 -0.000152909 6.65226e-22)
(0.000730218 -0.00016526 -2.13691e-23)
(0.000695969 -0.00017947 -1.64189e-21)
(0.000660471 -0.000195671 -1.68592e-21)
(0.000624011 -0.000214046 -1.20854e-21)
(0.000585816 -0.000235003 -8.31633e-22)
(0.000545445 -0.000258737 -1.72159e-21)
(0.000502813 -0.000285645 -2.933e-21)
(0.000458678 -0.000315101 -1.06391e-21)
(0.000413769 -0.000348223 -4.442e-22)
(0.000337093 -0.000413744 9.07197e-22)
(0.000305027 -0.000445287 9.6274e-22)
(0.000272405 -0.000479281 1.03945e-21)
(0.000239932 -0.000515713 -8.525e-22)
(0.00020761 -0.000554642 2.05252e-21)
(0.000176048 -0.000596271 5.00201e-21)
(0.000145628 -0.000640186 7.70687e-23)
(0.00011692 -0.000686476 -2.86287e-21)
(9.06268e-05 -0.000734137 1.91213e-21)
(6.71512e-05 -0.000782822 2.71644e-21)
(4.71214e-05 -0.000830912 -1.64778e-21)
(3.03845e-05 -0.000877821 -1.94957e-22)
(1.73122e-05 -0.000921953 6.45419e-22)
(7.3669e-06 -0.000962741 -6.92171e-22)
(7.15825e-07 -0.000998936 7.30027e-22)
(-3.29638e-06 -0.00102999 6.05335e-22)
(-4.74929e-06 -0.00105497 -1.7092e-22)
(-4.35811e-06 -0.00107338 -2.35186e-22)
(-2.51838e-06 -0.00108462 -2.91925e-22)
(0 -0.00108858 0)
(0 -0.00108858 0)
(0 -0.00108843 0)
(0 -0.00108815 0)
(0 -0.00108774 0)
(0 -0.00108724 0)
(0 -0.00108663 0)
(0 -0.00108595 0)
(0 -0.00108518 0)
(0 -0.00108435 0)
(0 -0.00108347 0)
(0 -0.00108254 0)
(0 -0.00108156 0)
(0 -0.00108056 0)
(0 -0.00107952 0)
(0 -0.00107847 0)
(0 -0.0010774 0)
(0 -0.00107632 0)
(0 -0.00107524 0)
(0 -0.00107416 0)
(0 -0.00107308 0)
(0 -0.00107202 0)
(0 -0.00107097 0)
(0 -0.00106995 0)
(0 -0.00106894 0)
(0 -0.00106796 0)
(0 -0.001067 0)
(0 -0.00106608 0)
(0 -0.00106519 0)
(0 -0.00106434 0)
(0 -0.00106351 0)
(0 -0.00106273 0)
(0 -0.00106197 0)
(0 -0.00106125 0)
(0 -0.00106055 0)
(0 -0.00105987 0)
(0 -0.00105919 0)
(0 -0.00105851 0)
(0 -0.0010578 0)
(0 -0.00105542 0)
(0 -0.00105215 0)
(0 -0.00104596 0)
(0 -0.00103604 0)
(0 -0.00102133 0)
(0 -0.0010011 0)
(0 -0.000974464 0)
(0 -0.000940973 0)
(0 -0.000900073 0)
(0 -0.000851686 0)
(0 -0.000795638 0)
(0 -0.000732085 0)
(0 -0.000661079 0)
(0 -0.000582927 0)
(0 -0.000497813 0)
(0 -0.000406187 0)
(0 -0.000308562 0)
(0 -0.000205765 0)
(0 -9.87403e-05 0)
(0.000935558 -0.000175084 0)
(0.000948461 -0.000149007 0)
(0.000961444 -0.000125541 0)
(0.000974188 -0.000105218 0)
(0.000986836 -8.75222e-05 0)
(0.000999341 -7.22583e-05 0)
(0.00101173 -5.92944e-05 0)
(0.00102402 -4.82222e-05 0)
(0.00103617 -3.91552e-05 0)
(0.00104823 -3.15249e-05 0)
(0.0010602 -2.54676e-05 0)
(0.00107211 -2.05377e-05 0)
(0.00108395 -1.68351e-05 0)
(0.00109576 -1.4014e-05 0)
(0.00110754 -1.21152e-05 0)
(0.00111931 -1.08398e-05 0)
(0.00113106 -1.02511e-05 0)
(0.00114282 -1.00982e-05 0)
(0.00115458 -1.04199e-05 0)
(0.00116636 -1.10171e-05 0)
(0.00117816 -1.19067e-05 0)
(0.00118997 -1.29327e-05 0)
(0.00120181 -1.41045e-05 0)
(0.00121365 -1.52836e-05 0)
(0.00122552 -1.64733e-05 0)
(0.0012374 -1.75671e-05 0)
(0.00124928 -1.85598e-05 0)
(0.00126116 -1.9356e-05 0)
(0.00127305 -1.9947e-05 0)
(0.00128491 -2.02466e-05 0)
(0.00129676 -2.02415e-05 0)
(0.00130858 -1.98497e-05 0)
(0.00132037 -1.90508e-05 0)
(0.00133212 -1.77613e-05 0)
(0.00134383 -1.59487e-05 0)
(0.00135549 -1.35213e-05 0)
(0.00136711 -1.04263e-05 0)
(0.00137868 -6.5537e-06 0)
(0.00139022 -1.81775e-06 0)
(0.000901584 -0.000210424 0)
(0.000888563 -0.000213476 0)
(0.000875385 -0.00021665 0)
(0.000862147 -0.000219828 0)
(0.000848749 -0.00022312 0)
(0.000835313 -0.000226438 0)
(0.000821726 -0.000229866 0)
(0.00080814 -0.000233338 0)
(0.000794385 -0.00023691 0)
(0.000780579 -0.000240516 0)
(0.00076675 -0.000244223 0)
(0.000752871 -0.000247978 0)
(0.000738977 -0.000251817 0)
(0.000725045 -0.000255712 0)
(0.000711106 -0.000259684 0)
(0.000697144 -0.000263713 0)
(0.000683184 -0.000267816 0)
(0.000669215 -0.000271978 0)
(0.00065526 -0.000276213 0)
(0.00064131 -0.000280506 0)
(0.000627387 -0.000284873 0)
(0.000613484 -0.000289296 0)
(0.000599621 -0.000293794 0)
(0.000585788 -0.000298348 0)
(0.000572009 -0.000302977 0)
(0.000558268 -0.000307661 0)
(0.000544591 -0.00031242 0)
(0.000530957 -0.000317237 0)
(0.00051739 -0.000322132 0)
(0.00050387 -0.000327089 0)
(0.000490406 -0.000332129 0)
(0.000477 -0.000337238 0)
(0.000463643 -0.000342443 0)
(0.000450341 -0.000347725 0)
(0.000437081 -0.000353119 0)
(0.000423863 -0.000358601 0)
(0.000410676 -0.000364209 0)
(0.000397505 -0.000369913 0)
(0.000384419 -0.000375788 0)
(0.000151595 -1.42806e-06 7.58083e-20)
(0.000296401 -3.77512e-05 5.51631e-20)
(0.000429764 -9.53247e-05 5.69983e-20)
(0.000550053 -0.000170486 3.58315e-20)
(0.000657892 -0.000258998 -3.66867e-21)
(0.000754306 -0.000355242 2.12401e-20)
(0.000838269 -0.000450791 3.98827e-20)
(0.000904966 -0.000534109 1.36197e-20)
(0.000948921 -0.000588201 5.80498e-22)
(0.000970822 -0.000603269 -1.6017e-21)
(0.000979907 -0.000589311 4.96446e-21)
(0.000986705 -0.000564724 7.18813e-21)
(0.000995707 -0.000538892 -7.25976e-22)
(0.00100635 -0.000513524 -4.99234e-21)
(0.00101821 -0.000488529 1.15112e-22)
(0.00103077 -0.000464044 1.37646e-21)
(0.00104393 -0.000439971 -1.64392e-21)
(0.00105722 -0.000416327 -2.96505e-21)
(0.00107065 -0.00039321 3.98883e-22)
(0.001097 -0.000348341 1.39032e-21)
(0.00110977 -0.000326572 -9.84264e-22)
(0.00112209 -0.000305423 8.15733e-22)
(0.00113402 -0.000284647 -3.96038e-22)
(0.00114534 -0.000264438 -4.0657e-21)
(0.00115617 -0.000244613 6.28362e-22)
(0.0011663 -0.000225281 3.4672e-21)
(0.00117588 -0.00020632 -8.04132e-22)
(0.00118471 -0.000187775 -2.15062e-21)
(0.00119291 -0.000169564 3.81564e-22)
(0.00120033 -0.000151691 8.51777e-23)
(0.00120706 -0.000134103 -7.57934e-22)
(0.00121301 -0.000116778 4.3907e-22)
(0.00121822 -9.96787e-05 8.67677e-22)
(0.00122262 -8.27727e-05 -5.60494e-22)
(0.00122626 -6.60269e-05 -9.19389e-22)
(0.00122908 -4.94091e-05 3.80389e-22)
(0.00123112 -3.28863e-05 -1.55156e-22)
(0.00123232 -1.64275e-05 5.14098e-22)
(0.00107407 -0.000358281 0)
(0.0010644 -0.000346684 0)
(0.00105505 -0.000335767 0)
(0.00104584 -0.000325334 0)
(0.00103684 -0.000315454 0)
(0.00102797 -0.00030601 0)
(0.00101924 -0.000297021 0)
(0.00101066 -0.000288437 0)
(0.00100219 -0.00028023 0)
(0.000993892 -0.0002724 0)
(0.000985689 -0.00026488 0)
(0.000977687 -0.000257712 0)
(0.000969766 -0.0002508 0)
(0.000962077 -0.000244214 0)
(0.000954457 -0.000237845 0)
(0.000947086 -0.000231706 0)
(0.000939776 -0.000225809 0)
(0.000932768 -0.000220196 0)
(0.000925805 -0.000214752 0)
(0.00107407 -0.000358281 0)
(0.0010644 -0.000346684 0)
(0.00105505 -0.000335767 0)
(0.00104584 -0.000325334 0)
(0.00103684 -0.000315454 0)
(0.00102797 -0.00030601 0)
(0.00101924 -0.000297021 0)
(0.00101066 -0.000288437 0)
(0.00100219 -0.00028023 0)
(0.000993892 -0.0002724 0)
(0.000985689 -0.00026488 0)
(0.000977687 -0.000257712 0)
(0.000969766 -0.0002508 0)
(0.000962077 -0.000244214 0)
(0.000954457 -0.000237845 0)
(0.000947086 -0.000231706 0)
(0.000939776 -0.000225809 0)
(0.000932768 -0.000220196 0)
(0.000925805 -0.000214752 0)
(0.000886486 -0.000235896 0)
(0.000854553 -0.000262019 0)
(0.000821981 -0.000290035 0)
(0.000788248 -0.000320324 0)
(0.000753669 -0.00035265 0)
(0.000717864 -0.000387345 0)
(0.000681028 -0.000424131 0)
(0.000642768 -0.000463247 0)
(0.000603535 -0.000503373 0)
(0.000561274 -0.000546326 0)
(0.000511867 -0.000597078 0)
(0.000452394 -0.000658816 0)
(0.000385657 -0.000729204 0)
(0.000317483 -0.000801936 0)
(0.000252314 -0.000870876 0)
(0.00019201 -0.000931893 0)
(0.000138053 -0.00098279 0)
(8.98099e-05 -0.00102214 0)
(4.45078e-05 -0.00104783 0)
(0 -0.00105542 0)
(0 -0.00105215 0)
(0 -0.00104596 0)
(0 -0.00103604 0)
(0 -0.00102133 0)
(0 -0.0010011 0)
(0 -0.000974464 0)
(0 -0.000940973 0)
(0 -0.000900073 0)
(0 -0.000851686 0)
(0 -0.000795638 0)
(0 -0.000732085 0)
(0 -0.000661079 0)
(0 -0.000582927 0)
(0 -0.000497813 0)
(0 -0.000406187 0)
(0 -0.000308562 0)
(0 -0.000205765 0)
(0 -9.87403e-05 0)
(0.000151595 -1.42806e-06 7.58083e-20)
(0.000296401 -3.77512e-05 5.51631e-20)
(0.000429764 -9.53247e-05 5.69983e-20)
(0.000550053 -0.000170486 3.58315e-20)
(0.000657892 -0.000258998 -3.66867e-21)
(0.000754306 -0.000355242 2.12401e-20)
(0.000838269 -0.000450791 3.98827e-20)
(0.000904966 -0.000534109 1.36197e-20)
(0.000948921 -0.000588201 5.80498e-22)
(0.000970822 -0.000603269 -1.6017e-21)
(0.000979907 -0.000589311 4.96446e-21)
(0.000986705 -0.000564724 7.18813e-21)
(0.000995707 -0.000538892 -7.25976e-22)
(0.00100635 -0.000513524 -4.99234e-21)
(0.00101821 -0.000488529 1.15112e-22)
(0.00103077 -0.000464044 1.37646e-21)
(0.00104393 -0.000439971 -1.64392e-21)
(0.00105722 -0.000416327 -2.96505e-21)
(0.00107065 -0.00039321 3.98883e-22)
(0.001097 -0.000348341 1.39032e-21)
(0.00110977 -0.000326572 -9.84264e-22)
(0.00112209 -0.000305423 8.15733e-22)
(0.00113402 -0.000284647 -3.96038e-22)
(0.00114534 -0.000264438 -4.0657e-21)
(0.00115617 -0.000244613 6.28362e-22)
(0.0011663 -0.000225281 3.4672e-21)
(0.00117588 -0.00020632 -8.04132e-22)
(0.00118471 -0.000187775 -2.15062e-21)
(0.00119291 -0.000169564 3.81564e-22)
(0.00120033 -0.000151691 8.51777e-23)
(0.00120706 -0.000134103 -7.57934e-22)
(0.00121301 -0.000116778 4.3907e-22)
(0.00121822 -9.96787e-05 8.67677e-22)
(0.00122262 -8.27727e-05 -5.60494e-22)
(0.00122626 -6.60269e-05 -9.19389e-22)
(0.00122908 -4.94091e-05 3.80389e-22)
(0.00123112 -3.28863e-05 -1.55156e-22)
(0.00123232 -1.64275e-05 5.14098e-22)
(0.0012369 0 0)
(0.00124051 0 0)
(0.00124363 0 0)
(0.00124635 0 0)
(0.00124867 0 0)
(0.00125069 0 0)
(0.0012524 0 0)
(0.00125388 0 0)
(0.00125512 0 0)
(0.00125618 0 0)
(0.00125706 0 0)
(0.00125781 0 0)
(0.00125842 0 0)
(0.00125892 0 0)
(0.00125933 0 0)
(0.00125965 0 0)
(0.00125991 0 0)
(0.00126011 0 0)
(0.00126027 0 0)
(0.00125946 -3.6228e-06 0)
(0.00125663 -7.34714e-06 0)
(0.00125187 -1.12722e-05 0)
(0.00124528 -1.54966e-05 0)
(0.00123682 -2.01306e-05 0)
(0.00122659 -2.52234e-05 0)
(0.00121461 -3.09469e-05 0)
(0.00120091 -3.73819e-05 0)
(0.00118549 -4.45923e-05 0)
(0.00116852 -5.26654e-05 0)
(0.00114995 -6.17313e-05 0)
(0.00112994 -7.18573e-05 0)
(0.00110846 -8.31668e-05 0)
(0.00108564 -9.5731e-05 0)
(0.0010615 -0.000109676 0)
(0.00103612 -0.000125079 0)
(0.00100956 -0.000142076 0)
(0.000981761 -0.00016078 0)
(0.000952995 -0.000181236 0)
(0.00126063 0 0)
(0.0012608 0 0)
(0.00126099 0 0)
(0.00126136 0 0)
(0.00126179 0 0)
(0.00126255 0 0)
(0.00126343 0 0)
(0.00126472 0 0)
(0.00126619 0 0)
(0.00126808 0 0)
(0.00127022 0 0)
(0.00127277 0 0)
(0.00127563 0 0)
(0.00127885 0 0)
(0.00128244 0 0)
(0.00128636 0 0)
(0.00129066 0 0)
(0.00129527 0 0)
(0.00130026 0 0)
(0.00130554 0 0)
(0.00131119 0 0)
(0.00131711 0 0)
(0.00132338 0 0)
(0.00132989 0 0)
(0.00133672 0 0)
(0.00134378 0 0)
(0.00135111 0 0)
(0.00135865 0 0)
(0.00136642 0 0)
(0.00137436 0 0)
(0.00138249 0 0)
(0.00139075 0 0)
(0.00139914 0 0)
(0.00140762 0 0)
(0.00141617 0 0)
(0.00142474 0 0)
(0.00143331 0 0)
(0.00144182 0 0)
(0.00145025 0 0)
(0.00145834 1.38457e-06 4.88227e-22)
(0.00145781 2.74829e-06 1.03075e-21)
(0.00145694 4.07137e-06 9.91885e-22)
(0.00145572 5.3325e-06 -2.51583e-24)
(0.00145418 6.51323e-06 -1.08415e-21)
(0.00145229 7.5928e-06 -1.46807e-22)
(0.00145011 8.55385e-06 1.15043e-21)
(0.00144761 9.37772e-06 1.38524e-21)
(0.00144484 1.00474e-05 2.21307e-22)
(0.00144178 1.05483e-05 -4.8537e-22)
(0.00143849 1.08624e-05 4.9606e-22)
(0.00143495 1.09818e-05 1.78605e-22)
(0.00143121 1.08858e-05 2.15022e-23)
(0.00142727 1.05758e-05 8.51858e-22)
(0.00142318 1.00265e-05 -6.08644e-22)
(0.00141893 9.2513e-06 3.19014e-22)
(0.00141458 8.21873e-06 3.98606e-21)
(0.00141013 6.95606e-06 9.32835e-22)
(0.00140562 5.42559e-06 -2.34239e-21)
(0.00139022 -1.81775e-06 0)
(0.00137868 -6.5537e-06 0)
(0.00136711 -1.04263e-05 0)
(0.00135549 -1.35213e-05 0)
(0.00134383 -1.59487e-05 0)
(0.00133212 -1.77613e-05 0)
(0.00132037 -1.90508e-05 0)
(0.00130858 -1.98497e-05 0)
(0.00129676 -2.02415e-05 0)
(0.00128491 -2.02466e-05 0)
(0.00127305 -1.9947e-05 0)
(0.00126116 -1.9356e-05 0)
(0.00124928 -1.85598e-05 0)
(0.0012374 -1.75671e-05 0)
(0.00122552 -1.64733e-05 0)
(0.00121365 -1.52836e-05 0)
(0.00120181 -1.41045e-05 0)
(0.00118997 -1.29327e-05 0)
(0.00117816 -1.19067e-05 0)
(0.00116636 -1.10171e-05 0)
(0.00115458 -1.04199e-05 0)
(0.00114282 -1.00982e-05 0)
(0.00113106 -1.02511e-05 0)
(0.00111931 -1.08398e-05 0)
(0.00110754 -1.21152e-05 0)
(0.00109576 -1.4014e-05 0)
(0.00108395 -1.68351e-05 0)
(0.00107211 -2.05377e-05 0)
(0.0010602 -2.54676e-05 0)
(0.00104823 -3.15249e-05 0)
(0.00103617 -3.91552e-05 0)
(0.00102402 -4.82222e-05 0)
(0.00101173 -5.92944e-05 0)
(0.000999341 -7.22583e-05 0)
(0.000986836 -8.75222e-05 0)
(0.000974188 -0.000105218 0)
(0.000961444 -0.000125541 0)
(0.000948461 -0.000149007 0)
(0.000935558 -0.000175084 0)
(0.00139905 2.80104e-06 1.09676e-21)
(0.00139703 1.88651e-06 -9.54629e-22)
(0.001395 9.21838e-07 -1.50432e-21)
(0.00139298 -8.94409e-08 -5.58237e-22)
(0.00139096 -1.14823e-06 -5.58237e-22)
(0.00138896 -2.25371e-06 3.73161e-22)
(0.00138696 -3.40427e-06 -1.93051e-22)
(0.00138498 -4.60079e-06 -1.84407e-21)
(0.00138301 -5.84002e-06 -7.06509e-22)
(0.00138106 -7.12371e-06 9.03718e-22)
(0.00137913 -8.44774e-06 3.32372e-22)
(0.00137722 -9.81405e-06 3.07066e-22)
(0.00137533 -1.12182e-05 -2.73733e-22)
(0.00137346 -1.26619e-05 -1.72162e-21)
(0.00137162 -1.41407e-05 2.92592e-23)
(0.0013698 -1.56559e-05 5.83091e-22)
(0.00136802 -1.72031e-05 5.90825e-22)
(0.00136626 -1.8783e-05 5.87158e-22)
(0.00136454 -2.03917e-05 1.7122e-24)
(0.00136284 -2.20292e-05 2.73828e-21)
(0.00136118 -2.36916e-05 7.90395e-22)
(0.00135955 -2.53785e-05 -1.35552e-21)
(0.00135795 -2.70863e-05 1.32606e-21)
(0.00135639 -2.88141e-05 7.2704e-22)
(0.00135486 -3.05585e-05 -1.89511e-21)
(0.00135336 -3.2318e-05 -1.29608e-21)
(0.0013519 -3.40894e-05 -6.01617e-22)
(0.00135047 -3.58711e-05 5.95378e-25)
(0.00134907 -3.766e-05 6.35325e-22)
(0.0013477 -3.9454e-05 3.31129e-23)
(0.00134635 -4.12504e-05 -1.21351e-21)
(0.00134504 -4.3047e-05 -1.21351e-21)
(0.00134374 -4.48413e-05 -1.19302e-21)
(0.00134247 -4.66309e-05 -5.8941e-22)
(0.00134121 -4.84139e-05 9.38283e-26)
(0.00133996 -5.01877e-05 -1.23702e-25)
(0.00133872 -5.19508e-05 1.1429e-21)
(0.00133749 -5.37003e-05 5.39501e-22)
(0.00133624 -5.54354e-05 6.02513e-22)
(0.00132223 -6.11238e-05 2.57356e-22)
(0.00130955 -6.50359e-05 1.41533e-22)
(0.00129693 -6.87582e-05 2.52876e-22)
(0.0012843 -7.2241e-05 8.7298e-22)
(0.00127159 -7.54026e-05 8.25343e-22)
(0.00125872 -7.82328e-05 2.24189e-22)
(0.00124564 -8.07168e-05 2.34406e-22)
(0.00123227 -8.28646e-05 -6.99669e-24)
(0.00121854 -8.47008e-05 8.07514e-24)
(0.00120441 -8.62478e-05 2.86696e-22)
(0.00118982 -8.75526e-05 -1.59726e-23)
(0.00117472 -8.86477e-05 -3.33584e-22)
(0.00115904 -8.95931e-05 1.18608e-23)
(0.00114277 -9.04315e-05 3.40841e-22)
(0.00112582 -9.12307e-05 3.79461e-22)
(0.00110819 -9.20452e-05 7.402e-22)
(0.00108978 -9.29487e-05 3.72109e-22)
(0.00107062 -9.40085e-05 -1.8658e-23)
(0.00105057 -9.53028e-05 -1.8658e-23)
(0.0010297 -9.69185e-05 4.70214e-22)
(0.00100784 -9.89283e-05 1.42476e-21)
(0.00098508 -0.000101449 9.08845e-22)
(0.0009613 -0.000104547 -4.57058e-23)
(0.000936497 -0.000108354 1.56898e-21)
(0.000910504 -0.000112971 1.65183e-21)
(0.000883499 -0.000118539 1.41725e-21)
(0.000855209 -0.000125156 2.2792e-21)
(0.000825859 -0.000133017 5.40353e-23)
(0.000795166 -0.00014219 -8.90773e-22)
(0.000763375 -0.000152909 6.65226e-22)
(0.000730218 -0.00016526 -2.13691e-23)
(0.000695969 -0.00017947 -1.64189e-21)
(0.000660471 -0.000195671 -1.68592e-21)
(0.000624011 -0.000214046 -1.20854e-21)
(0.000585816 -0.000235003 -8.31633e-22)
(0.000545445 -0.000258737 -1.72159e-21)
(0.000502813 -0.000285645 -2.933e-21)
(0.000458678 -0.000315101 -1.06391e-21)
(0.000413769 -0.000348223 -4.442e-22)
(0.000384419 -0.000375788 0)
(0.000397505 -0.000369913 0)
(0.000410676 -0.000364209 0)
(0.000423863 -0.000358601 0)
(0.000437081 -0.000353119 0)
(0.000450341 -0.000347725 0)
(0.000463643 -0.000342443 0)
(0.000477 -0.000337238 0)
(0.000490406 -0.000332129 0)
(0.00050387 -0.000327089 0)
(0.00051739 -0.000322132 0)
(0.000530957 -0.000317237 0)
(0.000544591 -0.00031242 0)
(0.000558268 -0.000307661 0)
(0.000572009 -0.000302977 0)
(0.000585788 -0.000298348 0)
(0.000599621 -0.000293794 0)
(0.000613484 -0.000289296 0)
(0.000627387 -0.000284873 0)
(0.00064131 -0.000280506 0)
(0.00065526 -0.000276213 0)
(0.000669215 -0.000271978 0)
(0.000683184 -0.000267816 0)
(0.000697144 -0.000263713 0)
(0.000711106 -0.000259684 0)
(0.000725045 -0.000255712 0)
(0.000738977 -0.000251817 0)
(0.000752871 -0.000247978 0)
(0.00076675 -0.000244223 0)
(0.000780579 -0.000240516 0)
(0.000794385 -0.00023691 0)
(0.00080814 -0.000233338 0)
(0.000821726 -0.000229866 0)
(0.000835313 -0.000226438 0)
(0.000848749 -0.00022312 0)
(0.000862147 -0.000219828 0)
(0.000875385 -0.00021665 0)
(0.000888563 -0.000213476 0)
(0.000901584 -0.000210424 0)
(0.000337093 -0.000413744 9.07197e-22)
(0.000305027 -0.000445287 9.6274e-22)
(0.000272405 -0.000479281 1.03945e-21)
(0.000239932 -0.000515713 -8.525e-22)
(0.00020761 -0.000554642 2.05252e-21)
(0.000176048 -0.000596271 5.00201e-21)
(0.000145628 -0.000640186 7.70687e-23)
(0.00011692 -0.000686476 -2.86287e-21)
(9.06268e-05 -0.000734137 1.91213e-21)
(6.71512e-05 -0.000782822 2.71644e-21)
(4.71214e-05 -0.000830912 -1.64778e-21)
(3.03845e-05 -0.000877821 -1.94957e-22)
(1.73122e-05 -0.000921953 6.45419e-22)
(7.3669e-06 -0.000962741 -6.92171e-22)
(7.15825e-07 -0.000998936 7.30027e-22)
(-3.29638e-06 -0.00102999 6.05335e-22)
(-4.74929e-06 -0.00105497 -1.7092e-22)
(-4.35811e-06 -0.00107338 -2.35186e-22)
(-2.51838e-06 -0.00108462 -2.91925e-22)
(0 -0.00108858 0)
(0 -0.00108858 0)
(0 -0.00108843 0)
(0 -0.00108815 0)
(0 -0.00108774 0)
(0 -0.00108724 0)
(0 -0.00108663 0)
(0 -0.00108595 0)
(0 -0.00108518 0)
(0 -0.00108435 0)
(0 -0.00108347 0)
(0 -0.00108254 0)
(0 -0.00108156 0)
(0 -0.00108056 0)
(0 -0.00107952 0)
(0 -0.00107847 0)
(0 -0.0010774 0)
(0 -0.00107632 0)
(0 -0.00107524 0)
(0 -0.00107416 0)
(0 -0.00107308 0)
(0 -0.00107202 0)
(0 -0.00107097 0)
(0 -0.00106995 0)
(0 -0.00106894 0)
(0 -0.00106796 0)
(0 -0.001067 0)
(0 -0.00106608 0)
(0 -0.00106519 0)
(0 -0.00106434 0)
(0 -0.00106351 0)
(0 -0.00106273 0)
(0 -0.00106197 0)
(0 -0.00106125 0)
(0 -0.00106055 0)
(0 -0.00105987 0)
(0 -0.00105919 0)
(0 -0.00105851 0)
(0 -0.0010578 0)
(0.000157491 -0.000109701 0)
(0.000161126 -0.000215178 0)
(0.000162171 -0.000316513 0)
(0.000161291 -0.000412846 0)
(0.000158689 -0.000503357 0)
(0.000154695 -0.000587446 0)
(0.000149507 -0.000664587 0)
(0.000143238 -0.000734488 0)
(0.000135939 -0.000796758 0)
(0.00012769 -0.000851355 0)
(0.000118623 -0.000898119 0)
(0.000108871 -0.000937329 0)
(9.87317e-05 -0.000969173 0)
(8.85286e-05 -0.00099432 0)
(7.86011e-05 -0.00101332 0)
(6.93133e-05 -0.00102713 0)
(6.09684e-05 -0.00103653 0)
(5.38577e-05 -0.00104257 0)
(4.82159e-05 -0.00104602 0)
(0.000308149 -0.000142147 0)
(0.000315827 -0.000243465 0)
(0.000318721 -0.000340745 0)
(0.000317896 -0.000433311 0)
(0.000313487 -0.000520285 0)
(0.000305981 -0.000600928 0)
(0.000295741 -0.000674488 0)
(0.000282937 -0.000740461 0)
(0.000267869 -0.000798351 0)
(0.000250794 -0.000848186 0)
(0.000232154 -0.000889937 0)
(0.000212414 -0.000924194 0)
(0.000192224 -0.000951438 0)
(0.000172238 -0.000972654 0)
(0.000153136 -0.000988608 0)
(0.000135569 -0.00100042 0)
(0.000120056 -0.00100887 0)
(0.000107053 -0.00101496 0)
(9.67601e-05 -0.00101922 0)
(0.000446941 -0.000194738 0)
(0.000458893 -0.000290379 0)
(0.000464503 -0.000381656 0)
(0.000464684 -0.000468042 0)
(0.000459303 -0.000548504 0)
(0.000448747 -0.000622233 0)
(0.000433426 -0.00068826 0)
(0.0004137 -0.000746129 0)
(0.000390343 -0.000795454 0)
(0.000364023 -0.000836613 0)
(0.000335742 -0.000869988 0)
(0.000306429 -0.000896657 0)
(0.000277158 -0.000917485 0)
(0.000248898 -0.000933797 0)
(0.000222566 -0.000946488 0)
(0.000198913 -0.000956698 0)
(0.000178437 -0.000964985 0)
(0.000161418 -0.000972048 0)
(0.000147806 -0.000977985 0)
(0.000571367 -0.000264874 0)
(0.000586845 -0.000354167 0)
(0.000594933 -0.000437792 0)
(0.000596008 -0.000515223 0)
(0.000589493 -0.000585176 0)
(0.00057554 -0.000647066 0)
(0.000554867 -0.000700262 0)
(0.000528119 -0.000744936 0)
(0.000496762 -0.000781253 0)
(0.000462064 -0.000810384 0)
(0.000425675 -0.000833263 0)
(0.000388974 -0.000851464 0)
(0.000353381 -0.000866073 0)
(0.000319986 -0.000878444 0)
(0.000289665 -0.000889248 0)
(0.000262917 -0.000899258 0)
(0.000239907 -0.000908505 0)
(0.000220513 -0.00091725 0)
(0.000204417 -0.000925124 0)
(0.000680945 -0.000348203 0)
(0.000697603 -0.000430148 0)
(0.000705973 -0.000503579 0)
(0.00070564 -0.000568019 0)
(0.000695987 -0.000622399 0)
(0.000677621 -0.000667109 0)
(0.000651671 -0.000702497 0)
(0.000619017 -0.000730076 0)
(0.000581858 -0.000751014 0)
(0.000541961 -0.000767346 0)
(0.000501331 -0.000780356 0)
(0.000461563 -0.000791716 0)
(0.000423989 -0.000802186 0)
(0.000389443 -0.000812629 0)
(0.000358399 -0.000823047 0)
(0.000330866 -0.000833608 0)
(0.00030673 -0.000843848 0)
(0.000285628 -0.000853752 0)
(0.000267279 -0.00086279 0)
(0.00077546 -0.000437271 0)
(0.000789137 -0.00050889 0)
(0.000793337 -0.000567736 0)
(0.000787559 -0.000614245 0)
(0.00077241 -0.000648578 0)
(0.000749011 -0.000672867 0)
(0.000718793 -0.000688793 0)
(0.000683271 -0.000699485 0)
(0.000644668 -0.000706892 0)
(0.000604804 -0.000713262 0)
(0.000565345 -0.000719572 0)
(0.000527502 -0.000726865 0)
(0.00049202 -0.000735103 0)
(0.000459238 -0.000744434 0)
(0.00042924 -0.000754261 0)
(0.000401881 -0.000764458 0)
(0.000377103 -0.000774434 0)
(0.00035465 -0.000784197 0)
(0.000334504 -0.000793306 0)
(0.000853477 -0.00052041 0)
(0.000859549 -0.000575954 0)
(0.000854907 -0.000614893 0)
(0.000840674 -0.000640106 0)
(0.000818611 -0.00065347 0)
(0.000790444 -0.000659222 0)
(0.000758484 -0.000660106 0)
(0.000724341 -0.00065955 0)
(0.000689333 -0.000658998 0)
(0.000654412 -0.00065994 0)
(0.00062022 -0.000662453 0)
(0.000587295 -0.000666894 0)
(0.00055587 -0.000672698 0)
(0.00052606 -0.00067978 0)
(0.000497975 -0.000687456 0)
(0.000471621 -0.000695701 0)
(0.000447148 -0.00070403 0)
(0.000424468 -0.000712534 0)
(0.000403714 -0.000720808 0)
(0.000910826 -0.000583455 0)
(0.000906447 -0.000616325 0)
(0.000891418 -0.000632297 0)
(0.000868857 -0.000637627 0)
(0.000841681 -0.000635425 0)
(0.000811959 -0.000630853 0)
(0.000781577 -0.000625515 0)
(0.000751427 -0.000621174 0)
(0.000721731 -0.0006179 0)
(0.000692663 -0.000616264 0)
(0.000664192 -0.000615986 0)
(0.000636517 -0.000617372 0)
(0.000609652 -0.000619881 0)
(0.000583608 -0.000623606 0)
(0.000558508 -0.000628019 0)
(0.000534521 -0.000633312 0)
(0.00051185 -0.000639075 0)
(0.000490423 -0.000645376 0)
(0.000470392 -0.00065178 0)
(0.000944117 -0.000612361 0)
(0.000929861 -0.00062153 0)
(0.000908149 -0.000619211 0)
(0.000882447 -0.000613161 0)
(0.000855348 -0.000605303 0)
(0.000828211 -0.000598655 0)
(0.000800948 -0.000592696 0)
(0.000774241 -0.000588031 0)
(0.000747997 -0.000584042 0)
(0.000722565 -0.000581154 0)
(0.000697956 -0.000579062 0)
(0.000674197 -0.000578117 0)
(0.000651163 -0.000577859 0)
(0.000628749 -0.000578507 0)
(0.000607079 -0.000579851 0)
(0.000586271 -0.000582185 0)
(0.000566339 -0.000585075 0)
(0.000547143 -0.000588573 0)
(0.000528782 -0.000592298 0)
(0.000958226 -0.000606554 0)
(0.000938884 -0.000600737 0)