/*--------------------------------*- C++ -*----------------------------------*\
| =========                 |                                                 |
| \\      /  F ield         | OpenFOAM: The Open Source CFD Toolbox           |
|  \\    /   O peration     | Version:  v2012                                 |
|   \\  /    A nd           | Website:  www.openfoam.com                      |
|    \\/     M anipulation  |                                                 |
\*---------------------------------------------------------------------------*/
FoamFile
{
    version     2.0;
    format      ascii;
    class       volSymmTensorField;
    location    "18";
    object      sigma;
}
// * * * * * * * * * * * * * * * * * * * * * * * * * * * * * * * * * * * * * //

dimensions      [1 -1 -2 0 0 0 0];


internalField   nonuniform List<symmTensor> 
4000
(
(-1.6631e+08 2.63104e+06 1.63354e-08 -2.27456e+06 3.9554e-09 4.38657e+06)
(-1.30281e+08 1.32121e+06 -7.17568e-09 -4.49156e+06 1.16858e-08 1.63002e+07)
(-9.78604e+07 -121040 5.49798e-15 -5.22107e+06 -2.02072e-14 2.80439e+07)
(-6.88932e+07 -1.19045e+06 -3.12069e-08 -4.18211e+06 -2.68009e-08 3.83062e+07)
(-4.17599e+07 -2.18788e+06 4.55308e-08 -2.24636e+06 -2.43406e-08 4.86253e+07)
(-1.81875e+07 -3.12005e+06 -6.83277e-10 873307 1.56974e-08 5.72269e+07)
(4.86784e+06 -3.79045e+06 1.86033e-08 4.74377e+06 2.248e-09 6.60103e+07)
(2.462e+07 -4.54978e+06 0 9.17614e+06 0 7.29328e+07)
(4.43654e+07 -5.01218e+06 8.00252e-10 1.44049e+07 3.64289e-08 7.9845e+07)
(6.11742e+07 -5.54007e+06 -5.88242e-09 1.95807e+07 1.6365e-08 8.46632e+07)
(7.79779e+07 -5.74872e+06 -2.40823e-09 2.55662e+07 -3.53198e-08 8.90459e+07)
(9.20101e+07 -5.89467e+06 -3.43515e-09 3.08487e+07 -3.34442e-08 9.09849e+07)
(1.0564e+08 -5.68655e+06 -2.25894e-09 3.6767e+07 -1.53262e-08 9.19253e+07)
(1.16399e+08 -5.27367e+06 5.64831e-09 4.13009e+07 2.71599e-08 9.02293e+07)
(1.26239e+08 -4.49212e+06 8.41633e-09 4.61167e+07 1.21435e-08 8.74334e+07)
(1.33089e+08 -3.44021e+06 -3.68127e-09 4.89326e+07 -9.23559e-09 8.23513e+07)
(1.38796e+08 -2.08266e+06 -1.16683e-08 5.16559e+07 -8.3894e-09 7.67511e+07)
(1.41895e+08 -551402 -2.15984e-08 5.2007e+07 -8.45566e-09 6.98664e+07)
(1.44418e+08 1.2391e+06 -9.82794e-09 5.20672e+07 -1.99091e-09 6.35622e+07)
(1.41523e+08 3.11119e+06 -1.6499e-08 4.96453e+07 -1.2966e-09 5.73506e+07)
(-1.63131e+08 7.88496e+06 -2.77609e-08 -2.56812e+06 3.66636e-09 5.00694e+06)
(-1.27896e+08 3.671e+06 -3.60757e-08 -4.44318e+06 -6.28754e-11 1.67075e+07)
(-9.56771e+07 -431341 -5.02225e-09 -4.74296e+06 -2.539e-08 2.85443e+07)
(-6.73587e+07 -3.70607e+06 -4.06703e-08 -3.48219e+06 1.43699e-09 3.86375e+07)
(-4.02793e+07 -6.65114e+06 4.29072e-08 -1.23951e+06 1.46571e-08 4.90556e+07)
(-1.72218e+07 -9.19572e+06 8.55197e-15 2.06794e+06 -5.62618e-14 5.7504e+07)
(5.66665e+06 -1.13458e+07 -4.76145e-11 6.21111e+06 7.36997e-10 6.62555e+07)
(2.50854e+07 -1.33165e+07 1.41058e-08 1.06526e+07 -2.82349e-08 7.28829e+07)
(4.45113e+07 -1.47662e+07 0 1.59326e+07 0 7.9405e+07)
(6.08906e+07 -1.60431e+07 -6.92171e-09 2.08293e+07 8.90125e-09 8.35687e+07)
(7.70541e+07 -1.65852e+07 5.28394e-15 2.64194e+07 2.21686e-14 8.70321e+07)
(9.03421e+07 -1.67317e+07 -1.14917e-08 3.09697e+07 -3.19556e-08 8.78807e+07)
(1.0296e+08 -1.59333e+07 -7.45265e-09 3.59227e+07 -1.44025e-08 8.76517e+07)
(1.1266e+08 -1.44841e+07 9.0727e-09 3.92318e+07 1.25683e-08 8.49012e+07)
(1.21301e+08 -1.20453e+07 1.57884e-08 4.26595e+07 1.26817e-08 8.126e+07)
(1.27068e+08 -8.91681e+06 4.23592e-09 4.40524e+07 4.83395e-09 7.5835e+07)
(1.31866e+08 -5.08179e+06 3.40422e-09 4.54768e+07 1.9412e-09 7.04008e+07)
(1.34119e+08 -802508 -2.81647e-08 4.48124e+07 -1.49377e-08 6.42986e+07)
(1.36098e+08 3.75194e+06 1.56431e-10 4.42779e+07 5.79637e-11 5.91722e+07)
(1.35781e+08 8.56942e+06 -3.26897e-08 4.19308e+07 -1.6425e-08 5.40667e+07)
(-1.56857e+08 1.25326e+07 -7.48139e-08 -3.21677e+06 1.93023e-09 6.22036e+06)
(-1.22951e+08 5.78541e+06 -4.36546e-08 -4.2463e+06 -3.63696e-09 1.76273e+07)
(-9.15815e+07 -1.03329e+06 1.45256e-08 -3.76912e+06 -1.12079e-08 2.94282e+07)
(-6.4146e+07 -6.31573e+06 -4.00824e-09 -2.00342e+06 3.54161e-08 3.9305e+07)
(-3.78869e+07 -1.12152e+07 -2.89395e-08 886555 -1.65422e-08 4.95991e+07)
(-1.53732e+07 -1.56337e+07 -2.30383e-09 4.52954e+06 -4.00519e-08 5.77953e+07)
(6.93661e+06 -1.88272e+07 -4.39293e-09 8.84896e+06 3.37127e-08 6.6118e+07)
(2.57129e+07 -2.1995e+07 1.16909e-11 1.33183e+07 7.37538e-10 7.2036e+07)
(4.44257e+07 -2.38884e+07 1.01388e-09 1.82774e+07 -4.25919e-08 7.74955e+07)
(5.98322e+07 -2.54999e+07 2.8954e-09 2.25361e+07 1.28106e-08 8.02207e+07)
(7.47453e+07 -2.57207e+07 8.01264e-09 2.69972e+07 1.36789e-08 8.18777e+07)
(8.6511e+07 -2.52365e+07 -2.16405e-08 3.0006e+07 -2.88193e-08 8.08445e+07)
(9.73026e+07 -2.32621e+07 -2.10063e-08 3.29371e+07 -1.58437e-08 7.87542e+07)
(1.05133e+08 -2.03777e+07 1.16559e-08 3.40354e+07 7.05573e-09 7.47208e+07)
(1.11868e+08 -1.62269e+07 3.61068e-08 3.50885e+07 1.75158e-08 7.04293e+07)
(1.16146e+08 -1.14114e+07 1.86882e-08 3.44233e+07 7.36429e-09 6.53954e+07)
(1.19675e+08 -5.94205e+06 8.30145e-09 3.40981e+07 7.52039e-09 6.10582e+07)
(1.21428e+08 -274160 -3.99697e-08 3.24397e+07 -1.80044e-08 5.6766e+07)
(1.22874e+08 5.31365e+06 -2.22254e-10 3.15976e+07 -7.31893e-11 5.34491e+07)
(1.23698e+08 1.0847e+07 -3.26815e-08 2.97552e+07 -1.85997e-08 5.00942e+07)
(-1.47628e+08 1.66403e+07 -6.12673e-09 -3.89621e+06 2.56757e-08 8.16393e+06)
(-1.15975e+08 6.90733e+06 -5.35936e-08 -3.81943e+06 2.03005e-08 1.89418e+07)
(-8.52922e+07 -2.04192e+06 -2.19998e-08 -2.04541e+06 -1.48402e-08 3.08021e+07)
(-5.96115e+07 -9.4807e+06 1.61771e-08 282070 -1.41245e-08 3.99955e+07)
(-3.32727e+07 -1.60589e+07 -1.91864e-08 3.83362e+06 -7.00985e-08 5.01594e+07)
(-1.27515e+07 -2.14503e+07 -1.48584e-08 7.64376e+06 3.29777e-08 5.72183e+07)
(8.51943e+06 -2.57108e+07 -3.23075e-09 1.23342e+07 1.77623e-08 6.45189e+07)
(2.6046e+07 -2.93746e+07 -1.89594e-08 1.61466e+07 -2.33381e-08 6.87633e+07)
(4.31965e+07 -3.12686e+07 -9.47374e-09 2.04735e+07 -2.05802e-08 7.22377e+07)
(5.70568e+07 -3.23982e+07 -2.13983e-08 2.31e+07 -2.93843e-08 7.26464e+07)
(6.98875e+07 -3.15761e+07 1.52146e-09 2.57069e+07 -4.84297e-10 7.20083e+07)
(7.96473e+07 -2.97274e+07 1.8876e-08 2.61838e+07 1.11225e-08 6.90905e+07)
(8.82014e+07 -2.62061e+07 2.3099e-08 2.66173e+07 9.97193e-09 6.59169e+07)
(9.41985e+07 -2.18919e+07 -3.56633e-08 2.51838e+07 -2.20638e-08 6.18788e+07)
(9.93746e+07 -1.66309e+07 -7.10825e-09 2.4242e+07 -8.34718e-09 5.86177e+07)
(1.02795e+08 -1.11765e+07 7.32738e-09 2.20821e+07 8.93715e-09 5.54105e+07)
(1.05945e+08 -5.53975e+06 4.84996e-08 2.10497e+07 2.15484e-08 5.32096e+07)
(1.08047e+08 -203655 1.69194e-08 1.92612e+07 1.85953e-08 5.09632e+07)
(1.10073e+08 4.91698e+06 -8.1667e-09 1.8939e+07 -8.9836e-09 4.92937e+07)
(1.11704e+08 9.51506e+06 1.54254e-08 1.7867e+07 1.10846e-08 4.70939e+07)
(-1.35468e+08 1.93139e+07 2.63864e-08 -4.74196e+06 9.42823e-09 1.07929e+07)
(-1.06374e+08 7.27379e+06 4.32492e-08 -2.90825e+06 -4.80225e-08 2.08743e+07)
(-7.7634e+07 -3.71454e+06 2.96102e-08 -191717 -1.58654e-08 3.19514e+07)
(-5.33083e+07 -1.22482e+07 -1.75416e-08 3.0641e+06 -1.89004e-08 4.02717e+07)
(-2.95824e+07 -2.03447e+07 3.51295e-10 7.43855e+06 -3.76682e-10 4.8792e+07)
(-1.00874e+07 -2.74193e+07 2.39782e-09 1.1437e+07 3.03264e-08 5.41321e+07)
(9.86384e+06 -3.14644e+07 -2.15849e-08 1.55549e+07 -4.7423e-08 5.91311e+07)
(2.53575e+07 -3.50612e+07 -1.05274e-08 1.80781e+07 -2.15129e-08 6.05804e+07)
(4.03604e+07 -3.60668e+07 -2.54981e-09 2.05778e+07 -3.8645e-09 6.11813e+07)
(5.18803e+07 -3.58815e+07 0 2.05552e+07 0 5.92286e+07)
(6.22215e+07 -3.3535e+07 2.35228e-08 2.04987e+07 8.77109e-09 5.71077e+07)
(6.9912e+07 -3.02427e+07 -9.2227e-09 1.82858e+07 -1.30845e-08 5.40877e+07)
(7.67005e+07 -2.57376e+07 3.9565e-08 1.6695e+07 2.35179e-08 5.20267e+07)
(8.17443e+07 -2.09947e+07 6.29938e-08 1.3819e+07 2.29324e-08 5.00113e+07)
(8.64411e+07 -1.59214e+07 -1.80175e-08 1.23221e+07 3.17852e-09 4.9125e+07)
(9.00552e+07 -1.11545e+07 -2.31134e-08 1.01059e+07 -6.97857e-09 4.8098e+07)
(9.362e+07 -6.40866e+06 -1.2644e-08 9.56767e+06 2.48747e-09 4.76068e+07)
(9.62867e+07 -2.08583e+06 6.83961e-09 8.29531e+06 8.92848e-09 4.65592e+07)
(9.89099e+07 2.30184e+06 7.60717e-09 8.61484e+06 -2.59942e-09 4.56269e+07)
(1.00702e+08 6.22355e+06 3.72744e-09 7.94686e+06 1.73123e-08 4.39966e+07)
(-1.20556e+08 2.09135e+07 -5.39166e-08 -5.25577e+06 -2.13486e-08 1.41929e+07)
(-9.53751e+07 6.64505e+06 -1.29718e-08 -1.84603e+06 4.16988e-08 2.26358e+07)
(-6.91285e+07 -5.52761e+06 -2.36228e-08 2.32724e+06 -2.32893e-08 3.2359e+07)
(-4.71598e+07 -1.62112e+07 2.50806e-08 6.64483e+06 -1.71532e-08 3.83764e+07)
(-2.16323e+07 -2.45723e+07 2.55477e-08 1.20559e+07 3.39365e-08 4.58624e+07)
(-7.25478e+06 -3.10822e+07 1.46744e-08 1.46716e+07 -1.03485e-09 4.60444e+07)
(9.41774e+06 -3.45253e+07 -5.021e-09 1.73503e+07 -1.17582e-08 4.68245e+07)
(2.31396e+07 -3.69702e+07 3.14946e-08 1.74675e+07 2.02657e-08 4.52465e+07)
(3.48665e+07 -3.64381e+07 -6.55294e-10 1.68305e+07 -2.08673e-09 4.34921e+07)
(4.41821e+07 -3.47844e+07 -3.63318e-08 1.40169e+07 -1.71622e-08 4.14341e+07)
(5.23306e+07 -3.16595e+07 5.20281e-08 1.1585e+07 -7.30285e-09 4.05092e+07)
(5.89789e+07 -2.81332e+07 -3.6948e-08 7.99399e+06 -1.42738e-08 4.00231e+07)
(6.51301e+07 -2.41307e+07 -5.919e-08 5.83044e+06 -1.09647e-08 4.05865e+07)
(7.02101e+07 -2.03291e+07 6.01987e-09 3.11976e+06 9.36427e-09 4.09984e+07)
(7.51292e+07 -1.63562e+07 2.35359e-08 2.16542e+06 6.64797e-09 4.18109e+07)
(7.89914e+07 -1.27e+07 7.26139e-09 565439 9.16013e-09 4.18397e+07)
(8.27144e+07 -8.73069e+06 1.95811e-08 526375 7.24216e-09 4.19741e+07)
(8.53829e+07 -5.07888e+06 4.45053e-08 -476162 2.41245e-08 4.12578e+07)
(8.80393e+07 -1.03206e+06 -4.0465e-08 -25688.2 -2.30274e-08 4.07227e+07)
(8.99609e+07 2.48159e+06 -8.67674e-09 -691895 -2.10409e-09 3.95546e+07)
(-1.03698e+08 2.0914e+07 -1.49501e-07 -4.81288e+06 4.70015e-08 1.78134e+07)
(-8.22292e+07 4.98842e+06 6.57473e-08 -492952 9.55104e-09 2.37937e+07)
(-5.814e+07 -8.28337e+06 6.67788e-08 5.78127e+06 -3.72528e-08 3.10327e+07)
(-4.03513e+07 -2.00837e+07 -4.51244e-08 1.02894e+07 6.61537e-08 3.24172e+07)
(-2.03933e+07 -2.72252e+07 2.8228e-09 1.43794e+07 2.54613e-08 3.30669e+07)
(-5.44713e+06 -3.20676e+07 -1.13575e-08 1.54291e+07 -1.35941e-08 2.99526e+07)
(7.85199e+06 -3.43135e+07 -1.94513e-08 1.5492e+07 -2.89645e-09 2.6635e+07)
(1.86937e+07 -3.45823e+07 -2.86176e-09 1.22668e+07 -5.59552e-09 2.41232e+07)
(2.81084e+07 -3.30427e+07 4.36115e-08 8.96321e+06 1.74423e-08 2.36479e+07)
(3.62354e+07 -3.1226e+07 2.20775e-08 4.59123e+06 -1.92092e-08 2.46322e+07)
(4.36694e+07 -2.86478e+07 6.44752e-10 1.65773e+06 3.91355e-11 2.68418e+07)
(4.99208e+07 -2.62614e+07 -6.01824e-08 -1.52676e+06 -7.28911e-09 2.89916e+07)
(5.59922e+07 -2.35067e+07 -3.48185e-08 -2.98703e+06 -1.4178e-08 3.13294e+07)
(6.08398e+07 -2.09527e+07 4.40019e-08 -4.95473e+06 3.00297e-09 3.27513e+07)
(6.55252e+07 -1.78769e+07 -3.72845e-08 -5.41767e+06 -2.39492e-08 3.4074e+07)
(6.90225e+07 -1.49243e+07 -2.97153e-08 -6.86795e+06 -1.5833e-08 3.44084e+07)
(7.2477e+07 -1.13783e+07 -2.75061e-08 -6.92568e+06 -1.57039e-08 3.48777e+07)
(7.4974e+07 -8.23344e+06 1.80131e-08 -8.04932e+06 6.55014e-09 3.45917e+07)
(7.76915e+07 -4.54648e+06 4.2465e-08 -7.69374e+06 2.25647e-08 3.47057e+07)
(7.97027e+07 -1.57024e+06 -2.34209e-08 -8.40647e+06 -1.57566e-08 3.41954e+07)
(-8.52056e+07 1.90015e+07 -2.72114e-08 -3.61608e+06 2.98395e-08 2.01688e+07)
(-6.82889e+07 2.6038e+06 -8.31062e-08 1.00972e+06 -3.21855e-08 2.18308e+07)
(-4.69972e+07 -1.10803e+07 4.79316e-08 8.50161e+06 5.71931e-08 2.4217e+07)
(-3.28932e+07 -2.12179e+07 -9.7568e-09 1.13611e+07 -1.0736e-08 1.95984e+07)
(-1.75487e+07 -2.77649e+07 -3.38866e-08 1.35525e+07 -5.72397e-09 1.44438e+07)
(-7.63986e+06 -3.08677e+07 -5.39966e-08 1.06961e+07 1.24441e-08 8.86855e+06)
(3.58703e+06 -3.02718e+07 2.25444e-08 7.3258e+06 -2.54329e-08 6.53058e+06)
(1.29103e+07 -2.95107e+07 -7.20926e-09 2.03128e+06 -1.13766e-08 6.76971e+06)
(2.18954e+07 -2.81625e+07 1.86311e-08 -921241 -2.65952e-08 9.31184e+06)
(2.96337e+07 -2.76315e+07 4.08447e-08 -4.41883e+06 9.26947e-09 1.23955e+07)
(3.66643e+07 -2.66068e+07 7.44587e-09 -5.83383e+06 1.01152e-08 1.58565e+07)
(4.27284e+07 -2.56612e+07 3.50169e-14 -8.20643e+06 2.48833e-15 1.86233e+07)
(4.83397e+07 -2.37839e+07 -3.44181e-08 -9.17592e+06 -1.22262e-08 2.12367e+07)
(5.2731e+07 -2.20394e+07 1.72729e-08 -1.1168e+07 -4.73969e-09 2.29007e+07)
(5.68498e+07 -1.92503e+07 2.37673e-08 -1.18689e+07 4.75815e-09 2.44798e+07)
(5.98417e+07 -1.68096e+07 -2.9404e-08 -1.35241e+07 -1.40996e-08 2.52524e+07)
(6.30793e+07 -1.36736e+07 -1.91606e-14 -1.37613e+07 -5.19898e-15 2.63261e+07)
(6.53408e+07 -1.11683e+07 -2.21634e-08 -1.49133e+07 -2.61834e-08 2.66992e+07)
(6.80197e+07 -7.96689e+06 -1.04886e-08 -1.46092e+07 2.68641e-09 2.74642e+07)
(7.00452e+07 -5.62362e+06 -3.19509e-08 -1.53205e+07 -2.01156e-08 2.74952e+07)
(-6.57428e+07 1.55408e+07 3.94341e-08 -1.98278e+06 1.82821e-08 1.79564e+07)
(-5.34175e+07 779413 -2.034e-08 1.53173e+06 1.18855e-08 1.29671e+07)
(-3.74813e+07 -1.22949e+07 -3.17723e-09 9.94266e+06 -2.41675e-09 9.21471e+06)
(-2.72624e+07 -2.05232e+07 -4.40948e-08 8.70272e+06 9.20547e-09 2.25841e+06)
(-1.5626e+07 -2.33112e+07 3.63335e-08 6.87924e+06 1.98857e-09 -1.89689e+06)
(-9.95339e+06 -2.41683e+07 9.91781e-08 438820 -3.68624e-08 -2.85437e+06)
(-3.05292e+06 -2.46511e+07 2.3334e-08 -2.3035e+06 -3.10739e-08 -1.60693e+06)
(7.05444e+06 -2.58318e+07 -6.91666e-09 -5.7625e+06 -1.13528e-08 387582)
(1.6823e+07 -2.64184e+07 -4.75452e-08 -6.38654e+06 -1.77477e-08 3.13094e+06)
(2.59292e+07 -2.65611e+07 -6.41059e-08 -8.67689e+06 6.36987e-09 5.31201e+06)
(3.27899e+07 -2.55873e+07 3.01865e-08 -9.43265e+06 -2.03793e-09 7.94761e+06)
(3.76924e+07 -2.43807e+07 1.83036e-08 -1.20161e+07 1.96806e-08 9.83435e+06)
(4.25503e+07 -2.26176e+07 -3.0633e-14 -1.30278e+07 -6.45822e-16 1.20265e+07)
(4.58858e+07 -2.12878e+07 2.55511e-08 -1.52485e+07 1.703e-09 1.34248e+07)
(4.9267e+07 -1.93508e+07 -1.50887e-08 -1.60363e+07 6.8937e-09 1.5039e+07)
(5.19696e+07 -1.77857e+07 -5.60781e-09 -1.77773e+07 1.45042e-08 1.62179e+07)
(5.50079e+07 -1.544e+07 2.92982e-08 -1.83008e+07 1.26138e-08 1.76323e+07)
(5.71283e+07 -1.37111e+07 1.64531e-08 -1.95184e+07 1.72824e-08 1.84021e+07)
(5.96835e+07 -1.10191e+07 -1.61973e-08 -1.97119e+07 -1.73864e-08 1.93532e+07)
(6.16215e+07 -9.22159e+06 1.79964e-08 -2.05026e+07 4.83833e-09 1.96854e+07)
(-4.80916e+07 1.1802e+07 4.16326e-08 -721823 -1.35319e-09 7.88432e+06)
(-4.01675e+07 -849352 -7.74283e-09 1.71726e+06 2.16784e-09 -1.45826e+06)
(-2.65348e+07 -1.09513e+07 0 7.93873e+06 0 -4.55421e+06)
(-2.42373e+07 -1.3302e+07 -2.87157e-08 380301 9.88465e-09 -7.15711e+06)
(-1.75923e+07 -1.59108e+07 -4.03051e-08 -313344 -1.41077e-08 -5.37169e+06)
(-8.8699e+06 -1.88929e+07 2.39885e-08 -4.66802e+06 -1.86765e-08 -4.06137e+06)
(-1.23345e+06 -2.16706e+07 3.70352e-08 -3.93111e+06 3.87656e-09 -1.54937e+06)
(5.38249e+06 -2.37206e+07 1.52535e-08 -6.76813e+06 2.06529e-08 -415693)
(1.21644e+07 -2.41058e+07 2.37778e-08 -6.95147e+06 3.06112e-08 1.56387e+06)
(1.84717e+07 -2.42154e+07 -2.83426e-08 -1.00816e+07 3.71951e-09 2.51702e+06)
(2.53937e+07 -2.31227e+07 -5.54623e-08 -1.08143e+07 6.1609e-09 4.37381e+06)
(3.10556e+07 -2.23727e+07 -1.0349e-09 -1.36508e+07 7.94957e-11 5.22144e+06)
(3.70223e+07 -2.09779e+07 2.57472e-08 -1.42118e+07 -1.58403e-09 6.84316e+06)
(4.17612e+07 -1.99656e+07 9.24804e-09 -1.65204e+07 9.75797e-09 7.64429e+06)
(4.51913e+07 -1.81583e+07 -4.75433e-09 -1.71739e+07 1.89563e-08 9.18729e+06)
(4.70812e+07 -1.67974e+07 -2.20687e-08 -1.91751e+07 -1.003e-09 9.98925e+06)
(4.96302e+07 -1.49059e+07 -3.61903e-10 -1.97952e+07 -2.63271e-11 1.11449e+07)
(5.09402e+07 -1.36506e+07 6.66048e-08 -2.12479e+07 1.48932e-08 1.1624e+07)
(5.28379e+07 -1.16314e+07 2.78776e-08 -2.17886e+07 1.117e-08 1.23833e+07)
(5.46001e+07 -1.05318e+07 -1.93876e-08 -2.26558e+07 1.22346e-08 1.29016e+07)
(-3.14179e+07 7.66884e+06 -2.15345e-08 -932036 1.27207e-08 -3.5716e+06)
(-3.0229e+07 521510 -2.4668e-08 -234862 1.21772e-08 -9.13916e+06)
(-2.43157e+07 -5.21883e+06 -1.7751e-08 1.49582e+06 3.44696e-08 -6.84595e+06)
(-1.982e+07 -7.7854e+06 3.41336e-09 -3.42545e+06 1.19896e-08 -6.97364e+06)
(-1.24592e+07 -1.32817e+07 5.46809e-08 -111755 -1.89683e-08 -3.77128e+06)
(-7.64928e+06 -1.53315e+07 6.00069e-10 -3.98747e+06 -1.80283e-10 -3.49102e+06)
(-1.58831e+06 -1.74312e+07 -4.13871e-08 -2.73403e+06 3.59866e-08 -1.2967e+06)
(4.64397e+06 -1.88128e+07 -4.80398e-08 -6.7906e+06 2.31576e-08 -643989)
(1.06548e+07 -1.97786e+07 3.37886e-08 -6.7197e+06 4.22004e-09 1.18053e+06)
(1.64509e+07 -2.04546e+07 3.4257e-08 -1.03082e+07 5.18187e-09 1.8428e+06)
(2.14474e+07 -2.031e+07 3.43996e-08 -1.06503e+07 5.4323e-09 3.23914e+06)
(2.5984e+07 -1.98996e+07 -1.69209e-08 -1.37079e+07 -1.89267e-08 3.68285e+06)
(3.03491e+07 -1.89619e+07 -2.3895e-08 -1.41295e+07 2.64132e-09 4.86587e+06)
(3.45984e+07 -1.79891e+07 -3.19423e-08 -1.66786e+07 -7.41003e-09 5.37594e+06)
(3.90549e+07 -1.66237e+07 -9.62421e-09 -1.7114e+07 -9.06155e-09 6.58226e+06)
(4.20891e+07 -1.54427e+07 -6.57266e-09 -1.91657e+07 -2.80294e-08 6.87701e+06)
(4.52424e+07 -1.39414e+07 -1.81782e-08 -1.95966e+07 -1.82256e-08 7.69374e+06)
(4.73661e+07 -1.27889e+07 -1.91235e-08 -2.11415e+07 1.88072e-10 7.93201e+06)
(4.91742e+07 -1.11793e+07 -1.34474e-09 -2.16363e+07 1.77786e-08 8.63575e+06)
(5.06132e+07 -1.02708e+07 2.62563e-08 -2.25865e+07 5.29568e-09 9.06288e+06)
(-2.06141e+07 6.65328e+06 1.00752e-09 -3.78663e+06 2.01531e-08 -7.32021e+06)
(-2.25606e+07 3.15892e+06 -4.20296e-08 -1.26739e+06 2.30113e-08 -7.14841e+06)
(-1.69905e+07 -3.28502e+06 -2.31961e-08 -647442 1.09122e-08 -5.29139e+06)
(-1.58376e+07 -5.19865e+06 1.91169e-08 -1.2459e+06 -2.19209e-08 -5.12504e+06)
(-1.09007e+07 -9.32209e+06 5.12682e-09 -726565 1.05672e-08 -3.48818e+06)
(-6.28603e+06 -1.05659e+07 -1.22727e-08 -3.63708e+06 2.98652e-08 -2.97693e+06)
(-1.20111e+06 -1.3523e+07 5.77746e-09 -3.38549e+06 1.01989e-08 -1.37598e+06)
(3.88787e+06 -1.43332e+07 1.74972e-08 -6.51572e+06 -1.7139e-08 -788354)
(8.9684e+06 -1.58787e+07 -1.50106e-08 -6.70139e+06 -1.90768e-08 680103)
(1.39278e+07 -1.60696e+07 -3.17302e-08 -9.79614e+06 -3.88947e-09 1.23951e+06)
(1.88384e+07 -1.65664e+07 2.26643e-08 -1.03232e+07 -4.84323e-09 2.55458e+06)
(2.31631e+07 -1.63574e+07 3.10806e-08 -1.30751e+07 5.10252e-09 3.02641e+06)
(2.73588e+07 -1.6212e+07 1.76336e-08 -1.36024e+07 1.80541e-08 4.12694e+06)
(3.08039e+07 -1.56677e+07 2.14961e-08 -1.59066e+07 -2.9507e-09 4.46918e+06)
(3.41344e+07 -1.4805e+07 1.21369e-08 -1.64719e+07 -1.15183e-08 5.29872e+06)
(3.67274e+07 -1.37212e+07 9.64512e-09 -1.84269e+07 8.78701e-09 5.49014e+06)
(3.95632e+07 -1.25755e+07 -4.69675e-08 -1.88682e+07 1.39589e-08 6.2085e+06)
(4.18064e+07 -1.14614e+07 -5.9811e-10 -2.0279e+07 1.8855e-08 6.45824e+06)
(4.43524e+07 -1.02027e+07 1.75071e-08 -2.06287e+07 -1.15363e-09 7.11711e+06)
(4.60366e+07 -9.2495e+06 -3.38701e-08 -2.14683e+07 -1.24517e-08 7.3705e+06)
(-1.42718e+07 6.60501e+06 1.98544e-08 -4.07866e+06 3.27207e-09 -5.50513e+06)
(-1.56933e+07 3.17569e+06 2.9789e-08 -744725 -4.65619e-08 -4.93142e+06)
(-1.32752e+07 -21429.5 -4.13647e-09 -1.5805e+06 -1.16578e-08 -4.45672e+06)
(-1.16666e+07 -1.88533e+06 -2.65645e-08 -1.91766e+06 -1.56941e-10 -4.07528e+06)
(-7.44466e+06 -5.60677e+06 -2.16953e-08 -2.22779e+06 9.9761e-09 -2.90174e+06)
(-4.45054e+06 -6.93677e+06 -4.80927e-10 -3.963e+06 2.06452e-10 -2.52406e+06)
(104288 -9.52497e+06 8.70477e-09 -4.20565e+06 -2.83956e-08 -1.23041e+06)
(3.94312e+06 -1.04563e+07 3.65203e-08 -6.63482e+06 1.14339e-08 -807510)
(8.44606e+06 -1.19861e+07 2.99118e-08 -6.9514e+06 1.93306e-09 448399)
(1.24284e+07 -1.24493e+07 -2.09264e-08 -9.52733e+06 6.29064e-09 870327)
(1.66078e+07 -1.30716e+07 -2.05854e-08 -9.8692e+06 5.79599e-09 2.02157e+06)
(2.03253e+07 -1.30104e+07 -2.44359e-08 -1.23116e+07 2.83858e-08 2.40408e+06)
(2.415e+07 -1.29879e+07 -7.57083e-10 -1.26566e+07 1.80124e-10 3.448e+06)
(2.74641e+07 -1.25707e+07 2.94547e-08 -1.48211e+07 -1.68891e-08 3.79289e+06)
(3.0898e+07 -1.21544e+07 -1.02883e-08 -1.51359e+07 1.24988e-08 4.72866e+06)
(3.35023e+07 -1.15173e+07 7.09212e-09 -1.68071e+07 2.94597e-08 5.00858e+06)
(3.62683e+07 -1.08277e+07 -9.37614e-09 -1.69584e+07 1.17346e-08 5.79298e+06)
(3.81839e+07 -1.00379e+07 -1.75725e-08 -1.81144e+07 -1.70751e-08 6.02083e+06)
(4.03932e+07 -9.07883e+06 3.23932e-08 -1.8212e+07 -5.21012e-09 6.65438e+06)
(4.20792e+07 -8.35208e+06 2.44419e-08 -1.87434e+07 5.97139e-09 7.00074e+06)
(-1.10229e+07 6.08102e+06 6.69339e-08 -3.47223e+06 -5.70556e-08 -4.34853e+06)
(-1.21341e+07 4.28019e+06 1.97533e-08 -2.52234e+06 -1.2665e-08 -4.39695e+06)
(-9.4458e+06 1.82581e+06 -3.21018e-08 -2.95663e+06 3.36214e-08 -3.72073e+06)
(-8.88735e+06 45496 4.45458e-10 -3.10012e+06 -2.54105e-10 -3.59624e+06)
(-5.26792e+06 -2.54301e+06 -3.21221e-08 -3.46078e+06 -1.0128e-08 -2.61861e+06)
(-2.9752e+06 -3.94537e+06 1.36204e-08 -4.82949e+06 -2.00948e-08 -2.34141e+06)
(901638 -6.1245e+06 -4.61718e-08 -5.08316e+06 8.51241e-09 -1.25446e+06)
(4.03729e+06 -7.09537e+06 -4.02211e-08 -7.04437e+06 1.73316e-08 -902125)
(7.91595e+06 -8.61738e+06 5.33912e-08 -7.27249e+06 2.81742e-09 193036)
(1.12853e+07 -9.14714e+06 1.51344e-08 -9.41146e+06 1.8247e-08 562139)
(1.49913e+07 -1.00167e+07 -2.72572e-08 -9.61501e+06 -1.97285e-09 1.61287e+06)
(1.81915e+07 -1.01551e+07 3.43064e-08 -1.16487e+07 1.15368e-08 1.96284e+06)
(2.15629e+07 -1.04639e+07 2.20053e-08 -1.17645e+07 -5.13256e-08 2.93949e+06)
(2.43952e+07 -1.02532e+07 -2.42036e-08 -1.35409e+07 -2.56443e-08 3.25629e+06)
(2.73931e+07 -1.01e+07 -6.77148e-08 -1.35521e+07 -2.2203e-09 4.15232e+06)
(2.98063e+07 -9.59436e+06 -1.60996e-14 -1.49968e+07 4.29607e-15 4.44287e+06)
(3.24704e+07 -9.18054e+06 1.56124e-08 -1.48807e+07 -2.47968e-08 5.27691e+06)
(3.44523e+07 -8.54424e+06 -1.5727e-08 -1.58947e+07 -1.6478e-08 5.56725e+06)
(3.68188e+07 -8.03288e+06 -4.61337e-08 -1.56404e+07 -8.57304e-09 6.35353e+06)
(3.86387e+07 -7.56896e+06 5.3598e-08 -1.59739e+07 6.57554e-09 6.79943e+06)
(-9.29593e+06 6.24706e+06 -1.85344e-08 -4.39015e+06 4.69583e-09 -4.10582e+06)
(-9.41046e+06 4.73813e+06 -8.28629e-10 -3.8067e+06 4.71421e-08 -3.96515e+06)
(-7.39048e+06 3.30975e+06 6.12047e-09 -4.4779e+06 1.0953e-08 -3.56051e+06)
(-6.26065e+06 1.77034e+06 3.51293e-08 -4.74515e+06 -2.23078e-08 -3.30174e+06)
(-3.4029e+06 -297022 8.02163e-10 -5.21383e+06 -4.78355e-10 -2.58502e+06)
(-1.35892e+06 -1.57926e+06 -1.11471e-08 -6.20424e+06 2.00936e-08 -2.26895e+06)
(1.87962e+06 -3.48293e+06 7.07616e-09 -6.53036e+06 9.52379e-09 -1.39522e+06)
(4.47959e+06 -4.45937e+06 -4.94252e-08 -7.9808e+06 -1.09366e-09 -1.05036e+06)
(7.80388e+06 -5.89464e+06 -2.52076e-08 -8.19796e+06 -5.78374e-10 -118223)
(1.06087e+07 -6.54465e+06 3.4455e-08 -9.84095e+06 -1.5484e-08 230321)
(1.38327e+07 -7.45553e+06 -3.21293e-08 -9.94774e+06 -1.01591e-08 1.16549e+06)
(1.65752e+07 -7.78809e+06 1.64501e-08 -1.15749e+07 -6.66291e-09 1.50009e+06)
(1.95978e+07 -8.24679e+06 9.89112e-08 -1.15585e+07 -1.58452e-08 2.41182e+06)
(2.20933e+07 -8.31456e+06 1.64354e-08 -1.30113e+07 1.63247e-08 2.72462e+06)
(2.48527e+07 -8.43244e+06 -6.19772e-08 -1.28504e+07 2.24952e-08 3.60069e+06)
(2.69708e+07 -8.28749e+06 -2.33154e-08 -1.4004e+07 -2.68046e-09 3.89004e+06)
(2.94326e+07 -8.17169e+06 7.00094e-09 -1.36789e+07 -1.30055e-08 4.7261e+06)
(3.11486e+07 -7.86001e+06 7.78175e-09 -1.44754e+07 7.82911e-09 5.00198e+06)
(3.33659e+07 -7.63016e+06 2.3972e-10 -1.40103e+07 -8.03435e-11 5.80669e+06)
(3.50037e+07 -7.3785e+06 -3.52033e-08 -1.43142e+07 4.46427e-09 6.20684e+06)
(-8.97054e+06 6.78921e+06 2.12429e-09 -5.15282e+06 6.49804e-09 -4.23701e+06)
(-8.48695e+06 5.76303e+06 -2.26254e-08 -5.35482e+06 1.28531e-09 -4.15253e+06)
(-6.11934e+06 4.55045e+06 1.57772e-08 -5.95555e+06 -1.16181e-08 -3.62247e+06)
(-5.12211e+06 3.23042e+06 1.02088e-08 -6.32891e+06 -2.22638e-08 -3.43531e+06)
(-2.28483e+06 1.60854e+06 -1.30073e-08 -6.72595e+06 5.24397e-08 -2.70323e+06)
(-617476 341184 -7.24381e-09 -7.51643e+06 -9.47962e-09 -2.44017e+06)
(2.40267e+06 -1.22591e+06 8.7565e-09 -7.73086e+06 -1.90761e-08 -1.59846e+06)
(4.53668e+06 -2.2836e+06 0 -8.8445e+06 0 -1.29235e+06)
(7.56802e+06 -3.56205e+06 -1.44907e-08 -8.90896e+06 -1.77709e-08 -402283)
(9.90456e+06 -4.35032e+06 8.48687e-09 -1.01762e+07 -1.71363e-08 -81489.5)
(1.28373e+07 -5.26482e+06 7.44748e-09 -1.01049e+07 3.29912e-08 819712)
(1.51569e+07 -5.77848e+06 -6.82585e-08 -1.13705e+07 -2.46211e-09 1.13593e+06)
(1.7919e+07 -6.34531e+06 2.15022e-08 -1.11609e+07 1.41929e-09 2.02743e+06)
(2.00796e+07 -6.60745e+06 5.15673e-08 -1.23125e+07 1.06567e-08 2.33013e+06)
(2.26379e+07 -6.89443e+06 1.51133e-08 -1.19628e+07 1.55557e-08 3.20252e+06)
(2.4563e+07 -6.94829e+06 1.40383e-08 -1.29229e+07 -6.10566e-09 3.49204e+06)
(2.69111e+07 -7.05629e+06 7.78663e-09 -1.24351e+07 7.37832e-09 4.34278e+06)
(2.85616e+07 -6.95805e+06 -1.30934e-08 -1.31414e+07 5.51801e-09 4.62606e+06)
(3.07169e+07 -6.99276e+06 2.41952e-09 -1.25337e+07 1.96904e-08 5.45498e+06)
(3.23092e+07 -6.93557e+06 -5.06003e-09 -1.2827e+07 1.23156e-08 5.84466e+06)
(-8.91042e+06 7.53641e+06 1.58525e-08 -6.48364e+06 -1.27796e-08 -4.61822e+06)
(-7.79776e+06 6.52674e+06 3.70788e-10 -6.91291e+06 -3.09706e-10 -4.4132e+06)
(-5.45785e+06 5.53895e+06 3.5445e-10 -7.73519e+06 -2.87834e-10 -3.95791e+06)
(-4.0741e+06 4.27925e+06 1.20289e-08 -8.15703e+06 5.26825e-08 -3.66934e+06)
(-1.59594e+06 2.88484e+06 -7.26483e-09 -8.60115e+06 -9.57037e-09 -3.05913e+06)
(135694 1.66886e+06 4.53373e-08 -9.2213e+06 -3.27499e-08 -2.72568e+06)
(2.70778e+06 245633 -1.4135e-08 -9.41784e+06 9.78314e-09 -2.01302e+06)
(4.69303e+06 -809325 -1.46233e-08 -1.02301e+07 9.70753e-09 -1.66113e+06)
(7.27907e+06 -2.03729e+06 -1.44956e-08 -1.02433e+07 -1.73403e-08 -889257)
(9.37005e+06 -2.89006e+06 -4.27537e-08 -1.11636e+07 2.61724e-08 -538067)
(1.18987e+07 -3.83097e+06 2.07842e-08 -1.10191e+07 2.42627e-10 263864)
(1.39532e+07 -4.47831e+06 2.67071e-08 -1.19489e+07 -3.96601e-08 601279)
(1.63763e+07 -5.12924e+06 -2.80497e-08 -1.16545e+07 -8.24238e-09 1.41653e+06)
(1.82801e+07 -5.58768e+06 -5.6123e-09 -1.2504e+07 1.46238e-08 1.73281e+06)
(2.05741e+07 -5.9972e+06 -5.34788e-09 -1.20623e+07 1.41972e-08 2.55354e+06)
(2.22514e+07 -6.28473e+06 -7.84809e-09 -1.27626e+07 -7.05938e-09 2.84663e+06)
(2.44148e+07 -6.53462e+06 1.21908e-08 -1.21778e+07 -6.21558e-09 3.67112e+06)
(2.58481e+07 -6.65497e+06 -4.57113e-09 -1.27005e+07 1.29004e-08 3.94428e+06)
(2.78873e+07 -6.85973e+06 -2.70575e-08 -1.19713e+07 -7.38629e-09 4.77479e+06)
(2.92428e+07 -6.92471e+06 -7.4644e-09 -1.22348e+07 -6.59429e-09 5.10242e+06)
(-9.64674e+06 8.82423e+06 -2.48755e-09 -8.14747e+06 -6.2394e-09 -5.33826e+06)
(-8.08077e+06 7.75157e+06 -1.4647e-08 -8.77966e+06 1.35514e-08 -5.05813e+06)
(-5.44261e+06 6.68888e+06 -2.84892e-08 -9.51848e+06 5.86741e-08 -4.48833e+06)
(-3.96042e+06 5.46285e+06 3.33235e-08 -9.94085e+06 -1.31154e-08 -4.17038e+06)
(-1.37455e+06 4.16909e+06 1.38857e-08 -1.02947e+07 -4.26875e-08 -3.50079e+06)
(220562 2.95584e+06 -7.09092e-09 -1.07422e+07 2.07451e-08 -3.15648e+06)
(2.77684e+06 1.67145e+06 1.99427e-08 -1.08379e+07 -1.13609e-09 -2.41831e+06)
(4.49297e+06 569643 2.64241e-08 -1.13671e+07 -1.99883e-08 -2.06225e+06)
(7.00248e+06 -559706 7.57877e-09 -1.12731e+07 8.10885e-09 -1.28118e+06)
(8.76396e+06 -1.50026e+06 -3.30014e-08 -1.18557e+07 1.00715e-08 -927526)
(1.12039e+07 -2.41485e+06 -9.07572e-09 -1.16076e+07 -3.24058e-08 -121108)
(1.29202e+07 -3.17611e+06 7.40411e-09 -1.21899e+07 7.56001e-09 219107)
(1.52692e+07 -3.87902e+06 -3.20491e-08 -1.18031e+07 8.68264e-09 1.03982e+06)
(1.68718e+07 -4.4627e+06 -1.95467e-08 -1.23376e+07 5.10792e-10 1.36027e+06)
(1.9105e+07 -4.99285e+06 1.57451e-08 -1.18149e+07 -2.13638e-08 2.18702e+06)
(2.05653e+07 -5.41664e+06 2.32066e-08 -1.22739e+07 -1.40308e-08 2.48741e+06)
(2.26376e+07 -5.8106e+06 -2.21744e-08 -1.16082e+07 1.33331e-08 3.30881e+06)
(2.39776e+07 -6.11746e+06 1.06887e-08 -1.19876e+07 -6.2629e-09 3.597e+06)
(2.59058e+07 -6.4367e+06 3.95331e-09 -1.12081e+07 -1.27949e-08 4.40929e+06)
(2.71419e+07 -6.6573e+06 -2.7956e-08 -1.14628e+07 5.8145e-09 4.70375e+06)
(-1.01003e+07 9.89017e+06 -2.20492e-09 -9.97968e+06 -6.47955e-09 -6.02399e+06)
(-8.20821e+06 8.6875e+06 -3.26491e-08 -1.05877e+07 5.07327e-08 -5.63877e+06)
(-5.59993e+06 7.49891e+06 -2.00473e-08 -1.14407e+07 3.03791e-09 -5.11219e+06)
(-3.89514e+06 6.23271e+06 1.82472e-08 -1.17709e+07 -6.6708e-08 -4.69981e+06)
(-1.52004e+06 4.90424e+06 7.03706e-09 -1.21623e+07 9.29955e-09 -4.10472e+06)
(165893 3.69385e+06 -1.38811e-08 -1.24316e+07 -1.81377e-08 -3.67973e+06)
(2.41569e+06 2.3791e+06 2.61922e-10 -1.2525e+07 -2.28459e-10 -3.0328e+06)
(4.11609e+06 1.2894e+06 -1.91919e-08 -1.28121e+07 1.84097e-09 -2.60881e+06)
(6.28064e+06 97887.6 3.31457e-08 -1.27007e+07 1.46729e-08 -1.92602e+06)
(7.96526e+06 -844335 1.1888e-08 -1.30149e+07 -9.39643e-09 -1.51488e+06)
(1.00554e+07 -1.85645e+06 -1.12844e-08 -1.27489e+07 8.67242e-09 -808050)
(1.16724e+07 -2.65032e+06 3.28934e-08 -1.30709e+07 1.33757e-08 -419558)
(1.36921e+07 -3.46827e+06 4.23457e-09 -1.26782e+07 -1.53868e-08 304183)
(1.51832e+07 -4.13439e+06 -1.7724e-08 -1.29752e+07 6.39841e-10 662384)
(1.71462e+07 -4.76618e+06 -4.28197e-08 -1.24799e+07 -5.04802e-09 1.3999e+06)
(1.8435e+07 -5.34876e+06 -1.08424e-08 -1.26944e+07 7.32886e-09 1.72216e+06)
(2.03851e+07 -5.80974e+06 2.44836e-08 -1.214e+07 5.60216e-09 2.47354e+06)
(2.14252e+07 -6.28883e+06 -2.11694e-08 -1.23657e+07 -1.80921e-08 2.71786e+06)
(2.33692e+07 -6.68337e+06 1.38675e-08 -1.162e+07 1.18871e-08 3.52476e+06)
(2.39995e+07 -7.03698e+06 4.03811e-08 -1.18087e+07 2.4528e-09 3.65722e+06)
(-1.09367e+07 1.14608e+07 -2.35805e-08 -1.23557e+07 3.37984e-08 -6.98772e+06)
(-8.78557e+06 1.00093e+07 -5.95004e-09 -1.28963e+07 2.4688e-08 -6.50456e+06)
(-6.00604e+06 8.61218e+06 -8.30689e-09 -1.35872e+07 -4.30575e-08 -5.87797e+06)
(-4.19573e+06 7.24816e+06 6.91341e-09 -1.38146e+07 9.40713e-09 -5.4031e+06)
(-1.74346e+06 5.85555e+06 1.10442e-08 -1.40752e+07 -1.15394e-08 -4.74558e+06)
(-85714.8 4.60002e+06 2.45001e-10 -1.41753e+07 -2.47987e-10 -4.27831e+06)
(2.18047e+06 3.29048e+06 -7.33634e-09 -1.41609e+07 -8.09226e-09 -3.59413e+06)