/*--------------------------------*- C++ -*----------------------------------*\
| =========                 |                                                 |
| \\      /  F ield         | OpenFOAM: The Open Source CFD Toolbox           |
|  \\    /   O peration     | Version:  v2012                                 |
|   \\  /    A nd           | Website:  www.openfoam.com                      |
|    \\/     M anipulation  |                                                 |
\*---------------------------------------------------------------------------*/
FoamFile
{
    version     2.0;
    format      ascii;
    class       volVectorField;
    location    "13";
    object      D;
}
// * * * * * * * * * * * * * * * * * * * * * * * * * * * * * * * * * * * * * //

dimensions      [0 1 0 0 0 0 0];


internalField   nonuniform List<vector> 
7666
(
(0.00311595 -7.20478e-06 0)
(0.00319926 -4.8846e-05 0)
(0.00135564 -0.00156396 0)
(0.00297811 -9.75126e-05 0)
(0.00208178 -0.000410008 0)
(0.00156096 -0.000701452 0)
(0.00376514 -9.61834e-05 0)
(0.00302584 -0.000122188 0)
(0.00110703 -0.000974522 0)
(0.00372993 -7.88993e-05 0)
(0.00305594 -3.61318e-05 0)
(0.00337081 -0.000224442 0)
(0.00303109 -0.000110696 0)
(0.00322989 -8.18939e-05 0)
(0.00382834 -6.27266e-05 0)
(0.00189641 -0.000894298 0)
(0.00303578 -0.000118113 0)
(0.00184228 -0.000553813 0)
(0.00315962 -0.000218926 0)
(0.00343459 -5.32361e-05 0)
(0.00335139 -1.05079e-05 0)
(0.00252336 -0.000274721 0)
(0.00321085 -9.71621e-05 0)
(0.00290024 -8.15773e-05 0)
(0.00151533 -0.000802354 0)
(0.00382832 -6.08651e-05 0)
(0.00148878 -0.000830073 0)
(0.00300041 -3.95691e-05 0)
(0.00303828 -0.000112882 0)
(0.00355122 -0.000271444 0)
(0.00338353 -0.000327103 0)
(0.00185698 -0.000541244 0)
(0.00302302 -4.7943e-05 0)
(0.00359938 -0.0001994 0)
(0.00299992 -8.91333e-05 0)
(0.00332655 -3.89362e-05 0)
(0.00333662 -3.56531e-05 0)
(0.00346786 -0.000271913 0)
(0.00188601 -0.000491285 0)
(0.00365767 -8.91299e-05 0)
(0.00250964 -0.000354121 0)
(0.000650137 -0.00181958 0)
(0.000121889 -0.00217083 0)
(0.00291084 -6.14847e-05 0)
(0.000273184 -0.00211163 0)
(0.00378918 -8.37793e-05 0)
(0.00141849 -0.000773186 0)
(0.0025111 -0.000336656 0)
(0.00237587 -0.000327448 0)
(0.00320513 -5.48206e-06 0)
(0.00300288 -3.96736e-05 0)
(0.00268834 -0.000320541 0)
(0.003778 -0.000100972 0)
(0.0011442 -0.000946742 0)
(0.00329568 -4.00169e-06 0)
(0.00190823 -0.000911344 0)
(0.00319527 -7.61163e-06 0)
(0.00320355 -6.77577e-06 0)
(0.00161288 -0.000852578 0)
(0.00154383 -0.000707596 0)
(0.00320522 -1.69688e-05 0)
(0.00347387 -0.000275356 0)
(0.00309427 -9.2857e-05 0)
(0.00308424 -9.6698e-05 0)
(0.00317 -9.97763e-06 0)
(0.00237425 -0.000305719 0)
(0.00369534 -4.71202e-05 0)
(0.00317828 -9.35553e-06 0)
(0.00170961 -0.000944932 0)
(0.00161225 -0.000835075 0)
(0.00166008 -0.000976615 0)
(0.00391242 -1.12634e-05 0)
(0.00390654 -1.09705e-05 0)
(0.00362479 -0.000246211 0)
(0.00361288 -0.000253269 0)
(0.00381705 -8.4288e-05 0)
(0.000195346 -0.00218648 0)
(0.00317558 -7.74825e-05 0)
(0.003166 -8.15527e-05 0)
(0.00320588 -1.85635e-05 0)
(0.00363306 -0.000134614 0)
(0.00384305 -2.75033e-05 0)
(0.00274804 -0.000111249 0)
(0.000151017 -0.00216524 0)
(0.00325713 -0.000280108 0)
(0.0028519 -0.000371114 0)
(0.00284605 -0.000363346 0)
(0.0025703 -0.000306741 0)
(0.00243938 -0.000311585 0)
(0.00346244 -0.000294472 0)
(0.00339231 -0.000122525 0)
(0.00340436 -0.000124109 0)
(0.00269556 -0.000397874 0)
(0.00138566 -0.00113648 0)
(0.000745307 -0.00127975 0)
(0.00210421 -0.000593792 0)
(0.00302482 -8.92885e-05 0)
(0.00140603 -0.00154145 0)
(0.00315978 -0.000225958 0)
(0.00344809 -5.04466e-05 0)
(0.00267967 -0.000394584 0)
(0.00356539 -0.000270106 0)
(0.00299318 -5.06602e-05 0)
(0.00102029 -0.0015787 0)
(0.00281765 -0.000138751 0)
(0.00199445 -0.00044369 0)
(0.000386815 -0.00202141 0)
(0.00213367 -0.000357183 0)
(0.00377859 -9.23553e-05 0)
(0.00270338 -0.000342676 0)
(0.00307557 -7.34625e-05 0)
(0.00231417 -0.000273216 0)
(0.00308972 -4.38975e-05 0)
(0.00321696 -1.52335e-05 0)
(0.00305139 -3.33732e-05 0)
(0.00196046 -0.000472009 0)
(0.00301499 -3.59097e-05 0)
(0.00296853 -0.00014019 0)
(0.00340077 -0.00027523 0)
(0.00340282 -0.00026821 0)
(0.00146979 -0.000732719 0)
(0.00371361 -0.000190363 0)
(0.00344205 -0.000183944 0)
(0.00380819 -6.44282e-05 0)
(0.00291817 -7.66268e-05 0)
(0.00321547 -6.10959e-07 0)
(0.00215394 -0.000347814 0)
(0.00248993 -0.000218076 0)
(0.00273277 -0.000120063 0)
(0.00323721 -0.00012967 0)
(0.00187619 -0.000957752 0)
(0.00302228 -0.000290902 0)
(0.00344117 -2.45107e-05 0)
(6.85259e-05 -0.00226283 0)
(0.0034376 -0.000189451 0)
(0.00201951 -0.000436318 0)
(0.00364641 -0.000129627 0)
(0.00365841 -9.20146e-05 0)
(0.00332809 -9.48707e-05 0)
(0.00297651 -7.03538e-05 0)
(0.00270476 -0.000128301 0)
(0.0038647 -2.64534e-05 0)
(0.00372634 -1.01879e-05 0)
(0.00374089 -8.66399e-06 0)
(0.00368308 -4.99148e-05 0)
(0.00351313 -8.01011e-05 0)
(0.00375877 -9.50603e-05 0)
(0.003885 -2.57078e-05 0)
(0.00310266 -1.29457e-05 0)
(0.00311495 -0.000161535 0)
(0.00374251 -7.76882e-05 0)
(0.00236518 -0.000390515 0)
(0.00319265 -2.0596e-05 0)
(0.00258854 -0.000292489 0)
(0.00358573 -3.77656e-05 0)
(0.00360041 -3.57211e-05 0)
(0.00254967 -0.000306297 0)
(0.00260305 -0.000159523 0)
(0.00289278 -9.15329e-05 0)
(0.00368006 -0.000156989 0)
(0.000993691 -0.00151777 0)
(0.000334179 -0.00178918 0)
(0.00255095 -0.000264435 0)
(0.000415673 -0.00200011 0)
(0.00109711 -0.00158066 0)
(0.00109935 -0.0015581 0)
(0.00287388 -9.60561e-05 0)
(0.00318416 -7.00422e-06 0)
(0.00318668 -8.05029e-06 0)
(0.000947376 -0.00153983 0)
(0.00314891 -4.5526e-05 0)
(0.00306508 -3.05637e-05 0)
(0.0027073 -0.0002445 0)
(0.00298272 -0.000314892 0)
(0.00237675 -0.000397253 0)
(0.00328689 -4.04959e-06 0)
(0.00232928 -0.000272831 0)
(0.000615004 -0.00141739 0)
(0.00329264 -0.000324492 0)
(0.00296064 -0.000101747 0)
(0.00256083 -0.000244082 0)
(0.00305062 -5.2798e-05 0)
(0.00282368 -0.000253509 0)
(0.0030097 -0.00010355 0)
(0.00240457 -0.000288216 0)
(0.00206893 -0.000607533 0)
(0.00389407 -3.53359e-06 0)
(0.00356636 -0.000299866 0)
(0.00165787 -0.000795292 0)
(0.00361079 -0.000173624 0)
(0.00313525 -4.86909e-05 0)
(0.00354699 -9.77969e-05 0)
(0.00355182 -9.39754e-05 0)
(0.00336592 -9.28733e-05 0)
(0.00217915 -0.000338963 0)
(0.000864502 -0.00132722 0)
(0.00317787 -6.33633e-05 0)
(0.0038003 -9.30583e-05 0)
(0.00376824 -9.00279e-05 0)
(0.00291104 -0.000296739 0)
(0.00232119 -0.000278398 0)
(0.00303067 -3.19361e-05 0)
(0.00330685 -0.000318814 0)
(0.00195898 -0.000460937 0)
(0.00346567 -1.72066e-05 0)
(0.000752683 -0.00167444 0)
(0.00360526 -4.65058e-05 0)
(0.00267649 -0.000284407 0)
(0.00306081 -2.64587e-05 0)
(0.00298495 -9.47364e-05 0)
(0.00116655 -0.00111023 0)
(0.00307236 -2.44394e-05 0)
(0.00371611 -9.08644e-06 0)
(0.00381863 -2.83433e-05 0)
(0.00387735 -2.42891e-05 0)
(0.00311777 -2.4706e-05 0)
(0.00309624 -6.66861e-05 0)
(0.00145202 -0.000754293 0)
(0.00313488 -2.20939e-05 0)
(0.00256439 -0.000391242 0)
(0.000554914 -0.00184683 0)
(0.000714678 -0.00174821 0)
(0.0033873 -0.000332092 0)
(0.0037442 -6.21973e-06 0)
(0.00290937 -0.000304156 0)
(0.00262634 -0.000162117 0)
(0.00046707 -0.00194701 0)
(0.000140984 -0.00222231 0)
(0.00337051 -1.64889e-06 0)
(0.00288809 -0.000101282 0)
(0.00290839 -9.58189e-05 0)
(0.00355561 -0.000198668 0)
(0.00246367 -0.000303844 0)
(0.00216141 -0.000589977 0)
(0.00391876 -1.65463e-06 0)
(0.00359153 -0.000300349 0)
(0.000303139 -0.00208743 0)
(0.00269112 -0.000327495 0)
(0.00298001 -0.000136273 0)
(0.00358081 -0.000205102 0)
(0.00368377 -2.51215e-05 0)
(0.00279491 -0.000191494 0)
(0.00307 -8.78535e-05 0)
(0.00312925 -1.53172e-05 0)
(0.00308385 -4.67867e-05 0)
(0.00315268 -3.68275e-05 0)
(0.00300877 -0.000131302 0)
(0.00310617 -4.10549e-05 0)
(0.00110549 -0.00146577 0)
(0.00226502 -0.000296135 0)
(0.00229634 -0.000282063 0)
(0.00317849 -2.48442e-05 0)
(0.00192678 -0.00049471 0)
(0.00300014 -0.000307375 0)
(0.00386585 -4.1977e-06 0)
(0.00353344 -0.000306581 0)
(8.7194e-05 -0.00225012 0)
(0.00256799 -0.000281023 0)
(0.00217372 -0.000339555 0)
(0.00272586 -0.000338696 0)
(0.00254207 -0.0001942 0)
(0.00165642 -0.000696736 0)
(0.001911 -0.000477208 0)
(0.00256002 -0.000301739 0)
(0.00377977 -7.64304e-05 0)
(0.00301823 -0.000104368 0)
(0.0030617 -7.382e-05 0)
(0.00182348 -0.000523676 0)
(4.40742e-05 -0.00214679 0)
(0.0030879 -1.64673e-05 0)
(0.00381543 -8.24792e-05 0)
(0.00379832 -7.89908e-05 0)
(0.00352701 -0.000211391 0)
(0.00271157 -0.000330667 0)
(0.00308162 -2.09902e-05 0)
(0.00311646 -4.1483e-05 0)
(0.000404893 -0.00196984 0)
(0.000513619 -0.00176452 0)
(0.00254139 -0.000180199 0)
(0.00253947 -0.000182441 0)
(0.00376576 -0.000107748 0)
(0.00212789 -0.000441484 0)
(0.00298643 -5.92241e-05 0)
(0.00353909 -0.000250997 0)
(0.00290618 -6.8342e-05 0)
(0.00276696 -0.000153837 0)
(0.00255562 -0.000277436 0)
(0.00175983 -0.000786993 0)
(0.00279858 -0.000141618 0)
(0.00381008 -3.13623e-05 0)
(0.00378045 -3.34354e-05 0)
(0.00101468 -0.00142854 0)
(0.00138614 -0.000812062 0)
(0.00289617 -6.61146e-05 0)
(0.00309442 -7.00049e-05 0)
(0.00112679 -0.00143657 0)
(0.00381026 -2.71833e-05 0)
(0.00311246 -1.29931e-05 0)
(0.00311831 -1.25343e-05 0)
(0.00316987 -0.000249584 0)
(0.00349241 -4.10943e-05 0)
(0.00316143 -3.70705e-05 0)
(0.00351135 -7.70748e-05 0)
(0.0039473 -4.74895e-06 0)
(0.00364493 -0.000262612 0)
(0.00312398 -1.99767e-05 0)
(0.00338008 -9.13587e-07 0)
(0.00234442 -0.000440279 0)
(0.0028011 -9.65996e-05 0)
(0.00325598 -1.35321e-05 0)
(0.00304012 -3.51345e-05 0)
(0.00318894 -5.62097e-06 0)
(0.00315379 -7.8919e-06 0)
(0.00315583 -6.53016e-06 0)
(0.00318601 -3.34462e-05 0)
(0.00316053 -0.000263861 0)
(0.00350483 -3.58234e-05 0)
(0.00276645 -0.000106724 0)
(0.00315629 -0.000247861 0)
(0.00348021 -4.1473e-05 0)
(0.00273672 -0.000143495 0)
(0.00272057 -0.000150684 0)
(0.000670473 -0.00137113 0)
(0.00300724 -0.000212026 0)
(0.00369562 -0.000151339 0)
(0.00317491 -3.41464e-05 0)
(0.00316901 -5.92974e-07 0)
(0.00337618 -0.000229333 0)
(0.00317861 -1.14294e-05 0)
(0.00286206 -8.1969e-05 0)
(0.00288037 -7.78752e-05 0)
(0.00257017 -0.000261396 0)
(0.0012385 -0.00153066 0)
(0.00361574 -0.000176166 0)
(0.00119936 -0.000915003 0)
(0.00119737 -0.000913197 0)
(0.0019949 -0.000514794 0)
(0.00301105 -4.1048e-05 0)
(0.00389625 -4.62304e-06 0)
(0.00357299 -0.000293037 0)
(0.00291814 -5.99749e-05 0)
(0.00209248 -0.000530596 0)
(0.00302453 -3.55927e-05 0)
(0.00225256 -0.000783622 0)
(0.00269157 -0.00024404 0)
(0.00310833 -0.000274934 0)
(0.00348065 -3.12252e-05 0)
(0.00198485 -0.000511055 0)
(0.00294778 -0.000110328 0)
(0.00393541 -5.8997e-06 0)
(0.00363342 -0.000262604 0)
(0.000576309 -0.00176109 0)
(0.00177768 -0.000761851 0)
(0.00335117 -8.93798e-06 0)
(0.00158116 -0.000884507 0)
(0.000330563 -0.00206528 0)
(0.00289279 -8.56641e-05 0)
(0.00367064 -2.67177e-05 0)
(0.00179357 -0.000542616 0)
(0.00305735 -3.79074e-05 0)
(0.00309045 -0.000186821 0)
(0.000313554 -0.00207906 0)
(0.00273865 -0.000326275 0)
(0.000510713 -0.00184381 0)
(0.00380184 -2.31689e-05 0)
(0.00137197 -0.000795082 0)
(0.00192136 -0.000471782 0)
(0.00202129 -0.000417137 0)
(0.00369795 -0.000100568 0)
(0.000822518 -0.00136459 0)
(0.00335132 -0.000226647 0)
(0.00299957 -0.000218603 0)
(0.00303702 -6.24713e-05 0)
(0.00310823 -0.000186183 0)
(0.00387162 -4.67191e-05 0)
(0.00304416 -5.38907e-05 0)
(0.00281171 -0.000182901 0)
(0.00123137 -0.00159547 0)
(0.00302864 -4.24274e-05 0)
(0.000674958 -0.00172801 0)
(0.00118892 -0.00108163 0)
(0.0028916 -0.000173174 0)
(0.00312191 -2.9342e-06 0)
(0.00237377 -0.000431079 0)
(0.00206101 -0.000403019 0)
(0.00303671 -0.000221557 0)
(0.00216782 -0.000605721 0)
(0.000818083 -0.00140212 0)
(0.0011611 -0.00151512 0)
(0.00352946 -0.000268951 0)
(0.00354773 -0.000264771 0)
(0.00309274 -1.7667e-05 0)
(0.0031017 -1.51646e-05 0)
(0.000143954 -0.00221631 0)
(0.000798094 -0.00140417 0)
(0.000650274 -0.00187162 0)
(0.00319315 -5.97727e-05 0)
(0.00369788 -0.000194291 0)
(0.00306063 -3.69267e-05 0)
(0.00297171 -0.00012877 0)
(0.00195639 -0.000473416 0)
(0.00263242 -0.000147113 0)
(0.00308778 -3.36217e-05 0)
(0.00302095 -4.65181e-05 0)
(0.000663046 -0.0016453 0)
(0.00292591 -0.000176765 0)
(0.00292075 -0.000183153 0)
(0.00194649 -0.000456455 0)
(0.00177093 -0.000573752 0)
(0.00116712 -0.00100942 0)
(0.00119897 -0.00115253 0)
(0.00355356 -0.000248224 0)
(0.00296299 -9.9377e-05 0)
(0.00176751 -0.000570438 0)
(0.00122862 -0.00111399 0)
(0.0023917 -0.000283543 0)
(0.00242124 -0.000275149 0)
(0.00352703 -7.34275e-05 0)
(0.0037429 -3.56964e-05 0)
(0.000481455 -0.00193804 0)
(0.0029155 -0.000122627 0)
(0.00334721 -0.000110737 0)
(0.00374366 -0.000135903 0)
(0.00325253 -0.000119727 0)
(0.00316645 -2.5184e-05 0)
(0.00339075 -0.000118573 0)
(0.00290279 -7.39469e-05 0)
(0.00225736 -0.000391765 0)
(0.00323482 -0.000282548 0)
(0.00159883 -0.00105237 0)
(0.00226221 -0.00081462 0)
(0.00117584 -0.00154662 0)
(0.00290217 -8.56088e-05 0)
(0.00366911 -0.000261868 0)
(0.00397095 -2.38999e-06 0)
(0.00378283 -3.13103e-05 0)
(0.00291527 -6.49373e-05 0)
(0.00321986 -7.91545e-05 0)
(0.00321803 -0.000135251 0)
(0.00315403 -0.000142475 0)
(0.00200852 -0.000737154 0)
(0.00308691 -1.84869e-05 0)
(0.003253 -7.80607e-05 0)
(0.00326586 -8.01534e-05 0)
(0.00381551 -4.68378e-05 0)
(0.00305299 -9.08932e-05 0)
(0.00286421 -0.000329475 0)
(0.00343206 -9.19419e-05 0)
(0.00341796 -9.58027e-05 0)
(0.003796 -7.1547e-05 0)
(0.00310652 -1.13914e-05 0)
(0.00302344 -8.02353e-05 0)
(0.00262252 -0.000150372 0)
(0.000433398 -0.00194484 0)
(0.00309423 -3.12225e-05 0)
(0.00247216 -0.000239013 0)
(0.00367961 -0.000104166 0)
(0.00283945 -8.21183e-05 0)
(0.00329875 -8.14991e-05 0)
(0.00259268 -0.000190105 0)
(0.000173097 -0.00219528 0)
(0.0028213 -8.80267e-05 0)
(0.000493162 -0.00187326 0)
(0.000701836 -0.00168026 0)
(0.00297957 -8.03211e-05 0)
(0.00364893 -8.52128e-05 0)
(0.00364576 -8.279e-05 0)
(0.00235357 -0.000262977 0)
(0.00259342 -0.000245462 0)
(0.00295934 -6.57983e-05 0)
(0.00263456 -0.000200516 0)
(0.00373686 -0.000105438 0)
(0.00372224 -0.000110512 0)
(0.00171305 -0.000678882 0)
(0.00159347 -0.000660351 0)
(0.00248521 -0.000237815 0)
(0.00383623 -2.61556e-05 0)
(0.00281001 -0.000249846 0)
(0.00359449 -2.02602e-05 0)
(0.00234452 -0.000679939 0)
(0.00297525 -8.66015e-05 0)
(0.0020637 -0.000561046 0)
(0.0032438 -0.00034133 0)
(0.00362962 -8.64888e-06 0)
(0.00326313 -0.000336762 0)
(0.0036427 -9.48667e-06 0)
(0.00237614 -0.000643901 0)
(0.00283413 -0.000103212 0)
(0.00102246 -0.00145926 0)
(0.00335333 -0.000178234 0)
(0.00353271 -0.000162792 0)
(0.00298853 -7.03358e-05 0)
(0.00367857 -0.000262293 0)
(0.00398048 -1.56754e-06 0)
(0.00337312 -6.11833e-05 0)
(0.0014058 -0.00110543 0)
(0.000964731 -0.0015093 0)
(0.000876856 -0.00159619 0)
(0.00352636 -7.03865e-05 0)
(0.00249421 -0.000665978 0)
(0.00316402 -4.37329e-05 0)
(0.00300902 -4.86694e-05 0)
(0.000569628 -0.00178181 0)
(0.00252407 -0.000619845 0)
(0.00299871 -5.21448e-05 0)
(0.00324797 -1.31495e-05 0)
(0.00387193 -2.88586e-05 0)
(0.0008314 -0.00173626 0)
(0.00308658 -1.52101e-05 0)
(0.00353754 -3.59984e-05 0)
(0.00327343 -2.82885e-05 0)
(0.0020227 -0.00042661 0)
(0.00201348 -0.000443321 0)
(0.00386055 -5.98572e-06 0)
(0.0038448 -7.49602e-06 0)
(0.0035153 -0.000300731 0)
(0.00353171 -0.000300409 0)
(0.00329149 -0.000149214 0)
(0.00256846 -0.000181796 0)
(0.00318039 -1.3339e-05 0)
(0.00318503 -1.46655e-05 0)
(7.46452e-05 -0.00211455 0)
(0.00197306 -0.000487663 0)
(0.00272063 -0.000236045 0)
(0.00320341 -0.000264529 0)
(0.00291975 -0.000268293 0)
(0.00381425 -2.28333e-05 0)
(0.000602481 -0.00172116 0)
(0.00335854 -1.15582e-05 0)
(0.00390545 -1.82823e-06 0)
(0.00357565 -0.000304387 0)
(0.00162581 -0.0009766 0)
(0.00202495 -0.000417002 0)
(0.00318105 -2.04034e-05 0)
(0.00139313 -0.000800835 0)
(0.00292644 -0.000133105 0)
(0.000244691 -0.00213725 0)
(0.00224033 -0.000325358 0)
(0.00341152 -0.000159803 0)
(0.00341923 -0.000154673 0)
(0.000602301 -0.0017571 0)
(0.0016555 -0.000930104 0)
(0.000420026 -0.00198776 0)
(0.00298192 -0.00017148 0)
(0.00225958 -0.000314784 0)
(0.00154701 -0.0006867 0)
(0.00152567 -0.00069863 0)
(0.00122061 -0.000893444 0)
(0.00291234 -0.000296608 0)
(0.00376773 -5.61867e-05 0)
(0.00190205 -0.000478421 0)
(0.00273182 -0.000360624 0)
(0.00214087 -0.00038477 0)
(0.000446954 -0.00196178 0)
(0.0029555 -0.000140543 0)
(0.00299806 -0.000119582 0)
(0.00322224 -8.68667e-05 0)
(0.00312073 -4.86039e-06 0)
(0.000228196 -0.00214978 0)
(0.0025992 -0.00017657 0)
(0.00205373 -0.000423142 0)
(0.000117889 -0.00223805 0)
(0.00320239 -0.000102056 0)
(0.00275888 -0.0001065 0)
(0.00266369 -0.00030347 0)
(0.00308619 -1.87555e-05 0)
(0.00326086 -3.00122e-05 0)
(0.00391551 -1.94489e-05 0)
(0.000930906 -0.00172674 0)
(0.00320275 -8.05072e-05 0)
(0.00317475 -0.000226824 0)
(0.00346034 -5.03453e-05 0)
(0.00281787 -0.00036284 0)
(0.00387782 -3.36226e-05 0)
(0.00239321 -0.000310277 0)
(0.00304536 -3.25996e-05 0)
(0.00156523 -0.000674359 0)
(0.00134237 -0.00117081 0)
(0.00160629 -0.000648297 0)
(0.00167761 -0.00069922 0)
(0.000639105 -0.00143507 0)
(0.00300162 -4.2212e-05 0)
(0.00358425 -1.92828e-05 0)
(0.00291649 -0.000156547 0)
(0.00282214 -0.000283781 0)
(0.00102147 -0.00118262 0)
(0.00146651 -0.000930528 0)
(0.0037939 -3.38573e-05 0)
(0.00372918 -0.000142008 0)
(0.0018413 -0.000630205 0)
(0.00351994 -0.000267119 0)
(0.00146226 -0.000803964 0)
(0.00279263 -0.000197562 0)
(0.0029747 -4.51329e-05 0)
(0.00333426 -4.19202e-05 0)
(0.00298052 -9.16439e-05 0)
(0.00335693 -0.000182798 0)
(0.00383347 -6.92044e-06 0)
(0.00349993 -0.000306545 0)
(0.003486 -0.000156827 0)
(0.002776 -0.000287065 0)
(0.00108483 -0.00102351 0)
(0.00240826 -0.000367668 0)
(0.00238701 -0.000379577 0)
(0.00326527 -1.35418e-06 0)
(0.00317207 -4.84692e-05 0)
(0.00280881 -0.00019866 0)
(0.00327146 -2.57627e-05 0)
(0.00197113 -0.000749279 0)
(0.000423123 -0.00198718 0)
(0.00143319 -0.000949156 0)
(0.00120454 -0.000903854 0)
(0.00313294 -5.27466e-06 0)
(0.00279485 -0.00025805 0)
(0.00332676 -4.52924e-05 0)
(0.00362083 -0.000167115 0)
(0.00390513 -1.34569e-05 0)
(0.00388899 -1.57299e-05 0)
(0.00360786 -0.000240323 0)
(0.0036238 -0.000239794 0)
(0.003706 -9.64663e-05 0)
(0.0031315 -6.28296e-06 0)
(0.000377057 -0.00192443 0)
(0.00293278 -0.000154334 0)
(0.00371349 -8.36629e-05 0)
(0.00285274 -0.000113659 0)
(0.00283725 -8.18037e-05 0)
(0.00308271 -1.54221e-05 0)
(0.00293409 -0.000144395 0)
(0.00135441 -0.000835321 0)
(0.00349243 -0.000209504 0)
(0.000316705 -0.00206431 0)
(0.00287854 -0.000101182 0)
(0.000332898 -0.00195426 0)
(0.00287281 -0.000342961 0)
(0.00310712 -2.45481e-05 0)
(0.00323091 -0.00027509 0)
(0.00279743 -0.000298336 0)
(0.00309799 -0.000282067 0)
(0.00348141 -2.84753e-05 0)
(0.0024228 -0.00024351 0)
(0.00328974 -7.00178e-05 0)
(0.00310317 -9.49377e-06 0)
(0.00295413 -0.000136829 0)
(0.00299642 -4.4932e-05 0)
(0.00355968 -0.000258136 0)
(0.00301417 -3.76357e-05 0)
(0.00310262 -9.1775e-06 0)
(0.000216743 -0.00216684 0)
(0.00302559 -3.52589e-05 0)
(0.00202102 -0.000424076 0)
(0.000210562 -0.00217428 0)
(0.00299176 -0.00015602 0)
(0.00300967 -0.00015478 0)
(0.00114169 -0.0012 0)
(0.00166234 -0.000779379 0)
(0.00212038 -0.000365253 0)
(0.00212319 -0.000366055 0)
(0.00390153 -2.39736e-05 0)
(0.00390083 -2.34337e-05 0)
(0.00301238 -7.82228e-05 0)
(0.00156508 -0.000798041 0)
(0.00259168 -0.000236334 0)
(0.000577773 -0.00181631 0)
(0.00331068 -4.71544e-05 0)
(0.00261761 -0.000221598 0)
(0.00311821 -2.40469e-06 0)
(0.000325341 -0.00205174 0)
(0.00112144 -0.00120227 0)
(0.00321519 -0.000275003 0)
(0.00342165 -1.39997e-05 0)
(0.0030947 -1.51227e-05 0)
(0.00307922 -3.93071e-05 0)
(0.0031123 -2.16696e-05 0)
(0.00254082 -0.000246062 0)
(0.001497 -0.00114012 0)
(0.00339498 -0.00022683 0)
(0.00386929 -4.63044e-05 0)
(0.00150878 -0.00098315 0)
(0.00307965 -3.79012e-05 0)
(0.0014783 -0.000992788 0)
(0.00233152 -0.000337318 0)
(0.00138153 -0.000799042 0)
(0.00338421 -0.000281602 0)
(0.00304626 -0.000211858 0)
(0.0024332 -0.00025356 0)
(0.00340891 -4.63158e-06 0)
(0.00238393 -0.00024474 0)
(0.0014225 -0.0007809 0)
(0.00144507 -0.000762058 0)
(0.00138377 -0.000789539 0)
(0.00335917 -6.37612e-05 0)
(0.0032174 -1.43912e-05 0)
(0.00305469 -0.000194374 0)
(0.00366769 -8.59309e-05 0)
(0.00173356 -0.00063248 0)
(0.00174459 -0.000575852 0)
(0.00163613 -0.00092221 0)
(0.00173309 -0.000580434 0)
(0.00151709 -0.000703096 0)
(0.00366062 -4.8208e-05 0)
(0.000155428 -0.00222222 0)
(0.00158608 -0.000951639 0)
(0.00254138 -0.000346094 0)
(0.00281272 -0.00010714 0)
(0.00243371 -0.000360643 0)
(0.000125392 -0.00193927 0)
(0.00307257 -2.8389e-05 0)
(0.00318511 -0.000131658 0)
(0.00193228 -0.00048132 0)
(0.00299711 -4.24489e-05 0)
(0.00228948 -0.00028602 0)
(0.000903173 -0.00174091 0)
(0.00256348 -0.000367803 0)
(0.00298585 -0.000285039 0)
(0.00341351 -2.53317e-05 0)
(0.00323426 -0.000335196 0)
(0.00361926 -1.09164e-05 0)
(0.00282054 -8.64389e-05 0)
(0.00248632 -0.00036589 0)
(0.000204759 -0.00217582 0)
(0.00239904 -0.000268977 0)
(0.00396783 -5.07984e-06 0)
(0.00369893 -0.000220871 0)
(0.00316848 -1.83463e-05 0)
(0.000910906 -0.00150517 0)
(0.00382649 -1.77569e-05 0)
(0.000776734 -0.00132733 0)
(0.00133242 -0.0012132 0)
(0.00369479 -2.0555e-05 0)
(0.00233349 -0.000537612 0)
(0.00321962 -0.00033569 0)
(0.00360826 -1.11395e-05 0)
(0.00290712 -0.000329521 0)
(0.00292304 -0.000332711 0)
(0.000852724 -0.00149611 0)
(0.00254715 -0.000253965 0)
(0.00347963 -0.000161916 0)
(0.000805171 -0.00179111 0)
(0.00237823 -0.000282158 0)
(0.000864647 -0.00154147 0)
(0.000807049 -0.0012315 0)
(0.000609002 -0.0014715 0)
(0.000853243 -0.00147862 0)
(0.00324814 -0.000115853 0)
(0.00232279 -0.000525124 0)
(0.00383199 -1.89003e-05 0)
(0.00200014 -0.000427032 0)
(0.000605132 -0.00189232 0)
(0.00334783 -0.00010682 0)
(0.00293145 -5.6161e-05 0)
(0.00340097 -0.000169272 0)
(0.00340338 -0.000172815 0)
(0.00293827 -5.42354e-05 0)
(0.0031692 -1.89778e-05 0)
(0.00361015 -0.000191805 0)
(0.00189017 -0.000484059 0)
(0.00196535 -0.000448886 0)
(0.00199727 -0.000433741 0)
(0.00314243 -2.0272e-05 0)
(0.00198638 -0.000459355 0)
(0.00360431 -4.94246e-05 0)
(0.00245377 -0.000372469 0)
(0.00294551 -0.000327301 0)
(0.00131068 -0.00105404 0)
(0.003459 -1.52125e-05 0)
(0.00335283 -1.5225e-05 0)
(0.00163988 -0.000628668 0)
(0.00377781 -7.32291e-05 0)
(0.00174632 -0.000851715 0)
(0.000164793 -0.00207767 0)
(0.00127869 -0.00107086 0)
(0.00346887 -0.000286996 0)
(0.00380265 -1.67807e-05 0)
(0.00368464 -2.21685e-05 0)
(0.00318767 -3.58516e-05 0)
(0.00181796 -0.000999867 0)
(0.00293175 -5.71324e-05 0)
(0.00374803 -6.73391e-05 0)
(0.00374608 -6.57474e-05 0)
(0.00375709 -5.98078e-05 0)
(0.000185479 -0.00219566 0)
(0.00334992 -3.48959e-05 0)
(0.00339043 -0.000266926 0)
(0.00337529 -9.45305e-05 0)
(0.00337276 -8.90771e-05 0)
(0.00283095 -0.000207765 0)
(0.00214523 -0.000429718 0)
(0.00177248 -0.00100189 0)
(0.000458782 -0.00192309 0)
(0.000440554 -0.0017492 0)
(0.00319345 -7.48443e-05 0)
(0.00357074 -0.000238409 0)
(0.00358316 -0.00023827 0)
(0.00131305 -0.00121264 0)
(0.00329505 -0.00015301 0)
(0.000448467 -0.00171837 0)
(0.00336755 -1.06324e-05 0)
(0.00335033 -1.9718e-05 0)
(0.0033614 -1.89119e-05 0)
(0.00330397 -1.48206e-05 0)
(2.18635e-05 -0.00231033 0)
(0.00303124 -0.000208049 0)
(0.000582303 -0.00179184 0)
(0.00307384 -2.22778e-05 0)
(0.00227848 -0.000389326 0)
(0.0033314 -9.04342e-05 0)
(0.00264598 -0.00029876 0)
(0.00320984 -2.75783e-05 0)
(0.00368396 -7.45746e-05 0)
(0.00325795 -1.4943e-05 0)
(0.00216509 -0.000374607 0)
(0.00262822 -0.000151035 0)
(0.000975175 -0.00137511 0)
(0.00377115 -7.74419e-05 0)
(0.00252044 -0.000208684 0)
(0.00388945 -3.07712e-05 0)
(0.00358353 -1.57245e-05 0)
(0.00329659 -9.70951e-06 0)
(0.00330503 -9.7718e-06 0)
(0.000449464 -0.00196922 0)
(0.00386393 -1.17695e-05 0)
(0.00182128 -0.000651431 0)
(0.00316804 -9.15125e-06 0)
(0.00361988 -0.000207969 0)
(0.00307304 -0.000194074 0)
(0.00349315 -0.000248199 0)
(0.00308164 -1.42632e-05 0)
(0.00330237 -1.64192e-05 0)
(0.00155216 -0.000759019 0)
(0.00206495 -0.00116324 0)
(0.00310708 -7.63672e-05 0)
(0.00281304 -0.000262998 0)
(0.00306542 -2.70691e-05 0)
(0.0029776 -5.40221e-05 0)
(0.00260763 -0.000237118 0)
(0.00388649 -2.4268e-05 0)
(0.00351887 -0.000172353 0)
(0.00352893 -0.000173471 0)
(0.00274678 -0.000262398 0)
(0.00339161 -0.000320048 0)
(0.0025711 -0.000194721 0)
(0.000423654 -0.00185209 0)
(0.00300936 -0.000124622 0)
(0.00231192 -0.000348335 0)
(0.00243885 -0.000401893 0)
(0.00229854 -0.000280093 0)
(0.00309983 -7.44082e-05 0)
(0.00346317 -0.000106044 0)
(0.00239524 -0.000545409 0)
(0.00305221 -5.35555e-05 0)
(0.00318992 -4.69796e-05 0)
(0.00220126 -0.000595529 0)
(0.00285497 -9.73744e-05 0)
(0.00305045 -5.6295e-05 0)
(0.00299768 -0.000136608 0)
(0.00295727 -0.000331114 0)
(0.00107812 -0.00153376 0)
(0.00357189 -0.000203387 0)
(0.00359385 -0.000169922 0)
(0.00345593 -0.000116741 0)
(0.00330672 -0.000160204 0)
(0.00277869 -0.0003919 0)
(0.00245448 -0.000217827 0)
(0.00242972 -0.000227869 0)
(0.00171271 -0.000895479 0)
(0.000377374 -0.0017437 0)
(0.00361717 -0.000218997 0)
(0.00205986 -0.00041548 0)
(0.00163056 -0.000636847 0)
(0.00208659 -0.000396804 0)
(0.00264195 -0.000373946 0)
(0.00335052 -4.01958e-05 0)
(0.00335969 -4.2327e-05 0)
(0.00261024 -0.000390271 0)
(0.00305274 -5.02287e-05 0)
(0.00305556 -4.73221e-05 0)
(0.00339884 -9.66222e-05 0)
(0.00339401 -9.3051e-05 0)
(0.00318493 -2.99478e-06 0)
(0.00319194 -3.10757e-06 0)
(0.00282092 -0.000335479 0)
(0.00298615 -4.48668e-05 0)
(0.00367122 -0.000108786 0)
(0.00310466 -1.09566e-05 0)
(0.00293274 -0.000113019 0)
(0.00290661 -7.64055e-05 0)
(0.00307769 -2.17861e-05 0)
(0.00360556 -3.30549e-05 0)
(0.00272607 -0.000166598 0)
(0.00275061 -0.00016351 0)
(0.00316109 -5.16611e-05 0)
(0.00296379 -0.000270246 0)
(0.0033828 -2.88409e-05 0)
(0.00279531 -9.98072e-05 0)
(0.00295126 -5.1184e-05 0)
(0.00283506 -9.59237e-05 0)
(0.00295577 -0.000152207 0)
(0.0028573 -9.13981e-05 0)
(0.00293591 -0.000156376 0)
(0.000647432 -0.00176261 0)
(0.00299929 -0.000298369 0)
(0.00343504 -2.19676e-05 0)
(0.00080517 -0.00133663 0)
(0.00284528 -0.000279319 0)
(0.00339949 -0.000114226 0)
(0.00359779 -3.01595e-05 0)
(0.00325798 -6.71767e-07 0)
(0.00364458 -4.99202e-05 0)
(0.00250118 -0.000346561 0)
(0.00250825 -0.000352653 0)
(0.00207454 -0.000393649 0)
(0.00253962 -0.000397023 0)
(0.00274897 -0.000167715 0)
(0.00274603 -0.000118129 0)
(0.0031108 -3.46024e-06 0)
(0.00351774 -5.25194e-05 0)
(0.00207264 -0.000670932 0)
(0.000431999 -0.00130836 0)
(0.00241099 -0.000517359 0)
(0.00381005 -1.43723e-05 0)
(0.00210627 -0.000376759 0)
(0.00219017 -0.000561333 0)
(0.0036374 -5.4117e-05 0)
(0.00361545 -0.000205055 0)
(0.00247547 -0.000385875 0)
(0.00308755 -0.000180916 0)
(0.000490051 -0.00185546 0)
(0.00150923 -0.0011087 0)
(0.00302352 -7.45451e-05 0)
(0.00350375 -8.36993e-05 0)
(0.00228709 -0.00035592 0)
(0.000526175 -0.00179014 0)
(0.00225096 -0.0009703 0)
(0.00336775 -3.07788e-06 0)
(0.0026527 -0.000304506 0)
(0.00210907 -0.000984991 0)
(0.002474 -0.00022638 0)
(6.04214e-05 -0.00200688 0)
(0.00298444 -6.57358e-05 0)
(0.00308146 -0.000200512 0)
(0.00165307 -0.000627485 0)
(0.00168628 -0.000623573 0)
(0.00172145 -0.000604859 0)
(0.0037657 -7.49418e-05 0)
(0.00308675 -8.69288e-05 0)
(0.00290397 -0.000142742 0)
(0.00212341 -0.000941375 0)
(0.00310845 -1.23184e-05 0)
(0.00344429 -0.000300788 0)
(0.00195028 -0.000506384 0)
(0.00345487 -2.38846e-05 0)
(0.00304099 -0.000293245 0)
(0.00295953 -0.000244002 0)
(0.00348837 -0.000214811 0)
(0.000553496 -0.00129812 0)
(0.00247462 -0.000389244 0)
(0.0025567 -0.000335741 0)
(0.00212284 -0.0004043 0)
(0.00213441 -0.000405653 0)
(0.000437697 -0.00188949 0)
(0.00349632 -0.000233291 0)
(0.000372197 -0.00203126 0)
(0.00297157 -4.87795e-05 0)
(0.00345353 -9.4257e-05 0)
(0.00297476 -0.000168337 0)
(0.00386414 -1.30938e-05 0)
(0.00298894 -4.31329e-05 0)
(0.00270167 -0.000133053 0)
(0.00291157 -6.91493e-05 0)
(0.00268177 -0.000139728 0)
(0.00321982 -5.27331e-05 0)
(0.00235174 -0.00025891 0)
(0.00353743 -5.99001e-05 0)
(0.00352552 -5.82426e-05 0)
(1.17595e-05 -0.002327 0)
(0.00297757 -6.00106e-05 0)
(0.00250149 -0.000370702 0)
(0.00191359 -0.000574818 0)
(0.00196108 -0.000544743 0)
(0.00146134 -0.00073867 0)
(0.00283023 -8.83038e-05 0)
(0.00272879 -0.000274488 0)
(0.00274266 -0.000110092 0)
(0.00282823 -0.000240544 0)
(0.00255197 -0.000316954 0)
(0.00269268 -0.000145279 0)
(0.000999196 -0.00168529 0)
(0.00156033 -0.0010642 0)
(0.00247223 -0.000422226 0)
(0.00280007 -0.000387717 0)
(0.00122794 -0.00131641 0)
(0.00050238 -0.00186781 0)
(0.00158705 -0.000736989 0)
(0.00243182 -0.000306108 0)
(0.00206182 -0.000410977 0)
(0.00309734 -1.38136e-05 0)
(0.00100093 -0.00142972 0)
(0.00190757 -0.000673266 0)
(0.00287291 -9.07223e-05 0)
(0.00157668 -0.00119587 0)
(0.00269342 -0.000129628 0)
(0.00323692 -0.000349167 0)
(0.00362739 -6.19966e-06 0)
(0.00154815 -0.00122798 0)
(0.00255487 -0.000371388 0)
(0.00155057 -0.000797152 0)
(0.00302379 -0.000131557 0)
(0.00302757 -0.000135212 0)
(0.000224475 -0.00214115 0)
(0.00382878 -4.47719e-05 0)
(0.00279945 -0.000371219 0)
(0.00326879 -0.000272488 0)
(0.00383464 -2.9705e-05 0)
(0.000488728 -0.00189806 0)
(0.00296993 -0.000282659 0)
(0.00340087 -2.56194e-05 0)
(0.000742527 -0.0017356 0)
(0.000191849 -0.00216164 0)
(0.00300325 -0.000133974 0)
(0.00327655 -0.000322911 0)
(0.00364441 -1.3996e-05 0)
(0.00258756 -0.0001709 0)
(0.00325395 -9.12957e-06 0)
(0.0010861 -0.00166439 0)
(9.51025e-05 -0.00227182 0)
(0.00329019 -8.17262e-07 0)
(0.00327559 -7.02937e-05 0)
(0.00297632 -4.80964e-05 0)
(0.000846195 -0.00130384 0)
(0.000160688 -0.00210503 0)
(0.00173545 -0.000599794 0)
(0.00301286 -5.31425e-05 0)
(0.00169687 -0.00062199 0)
(0.00376401 -5.50185e-05 0)
(0.00380095 -8.67187e-05 0)
(0.000258663 -0.00193471 0)
(0.00244518 -0.00023688 0)
(0.00336173 -4.72386e-05 0)
(0.00354529 -0.000206032 0)
(0.000837619 -0.00164026 0)
(0.00344977 -0.000109855 0)
(0.00301071 -9.16181e-05 0)
(0.00319584 -0.000282212 0)
(0.00355226 -2.95045e-05 0)
(0.00283959 -8.45171e-05 0)
(0.00345016 -9.09298e-05 0)
(0.00309449 -0.000249937 0)
(0.00344049 -3.89684e-05 0)
(0.00281998 -8.84661e-05 0)