/*--------------------------------*- C++ -*----------------------------------*\
| =========                 |                                                 |
| \\      /  F ield         | OpenFOAM: The Open Source CFD Toolbox           |
|  \\    /   O peration     | Version:  v2012                                 |
|   \\  /    A nd           | Website:  www.openfoam.com                      |
|    \\/     M anipulation  |                                                 |
\*---------------------------------------------------------------------------*/
FoamFile
{
    version     2.0;
    format      ascii;
    class       volSymmTensorField;
    location    "13";
    object      epsilon;
}
// * * * * * * * * * * * * * * * * * * * * * * * * * * * * * * * * * * * * * //

dimensions      [0 0 0 0 0 0 0];


internalField   nonuniform List<symmTensor> 
7666
(
(0.000262147 -0.000113586 -6.24501e-20 -0.00016402 -1.14351e-20 0)
(0.000877125 -0.000390432 2.97182e-19 -0.000255863 3.79264e-20 0)
(0.00277818 -0.00147931 -1.05385e-18 -0.00122717 -4.1358e-19 0)
(0.00111564 -0.000519833 -2.22023e-19 -0.000393037 -2.16721e-19 0)
(0.00171024 -0.000412758 1.4042e-21 -0.000915647 1.10137e-20 0)
(0.00219157 -0.000116333 7.64564e-20 -0.000992048 2.46947e-19 0)
(0.00114064 -6.83379e-05 8.68704e-19 -0.000338963 2.8697e-19 0)
(0.00120776 -0.000476278 -3.19274e-20 -0.000414298 2.99834e-20 0)
(0.00270077 -1.31827e-05 -6.46258e-19 -0.0011954 -5.02166e-19 0)
(0.0011087 -0.000139084 -4.98384e-20 -0.000271805 -1.74633e-20 0)
(0.000760471 -0.00045261 0 -0.000235905 0 0)
(0.00127043 -0.000199956 -2.00261e-19 -0.000484312 1.74232e-19 0)
(0.00116837 -0.000482265 -2.00134e-19 -0.000388221 6.51296e-20 0)
(0.00103555 -0.000404873 -1.72855e-19 -0.000316974 -4.43633e-20 0)
(0.00111387 -4.76135e-05 0 -0.000265514 0 0)
(0.00152094 -0.000325364 1.358e-18 -0.000948032 7.4059e-19 0)
(0.00115455 -0.000478949 5.68153e-19 -0.00042005 4.88858e-20 0)
(0.00237564 -9.61183e-05 -6.79939e-20 -0.00100833 -2.74573e-19 0)
(0.00133239 -0.000302257 3.29079e-19 -0.000517517 1.15249e-19 0)
(0.000968789 -0.000265671 -1.69227e-19 -0.00024647 2.40733e-20 0)
(0.000762086 -0.000111774 3.12442e-19 -0.000128952 -1.98135e-20 0)
(0.00168309 -0.000379663 5.08973e-19 -0.000700496 -1.8489e-19 0)
(0.00108313 -0.000412608 -1.19441e-19 -0.000349457 5.33135e-20 0)
(0.00102177 -0.000552065 3.2753e-19 -0.000375202 4.76663e-20 0)
(0.0021438 -3.52105e-05 -9.95261e-20 -0.00107543 1.36426e-19 0)
(0.0010996 -6.05881e-05 -4.45139e-19 -0.000262382 -1.89731e-19 0)
(0.00212961 -3.97938e-05 -3.32657e-19 -0.00109911 -6.08611e-20 0)
(0.000555122 -0.000474145 -7.12658e-21 -0.000252133 1.14018e-20 0)
(0.0011473 -0.000474937 8.77766e-20 -0.000413769 2.03493e-20 0)
(0.00122607 -2.4668e-05 -7.1836e-20 -0.000509831 1.66522e-19 0)
(0.00126477 -3.08819e-05 -3.51404e-20 -0.000534644 -4.77283e-21 0)
(0.00229854 -0.000110062 -7.32175e-19 -0.000998592 -3.76392e-19 0)
(0.000340227 -0.00034139 -2.68815e-20 -0.000378055 -1.08758e-19 0)
(0.00121225 -8.39353e-05 -6.74896e-19 -0.000460038 -1.82681e-19 0)
(0.000281981 -0.000262861 6.42259e-19 -0.000630504 3.1875e-19 0)
(0.000897454 -0.000292249 1.39323e-19 -0.000199588 4.19956e-20 0)
(0.000871989 -0.000273844 -2.6286e-19 -0.000195566 -1.27507e-20 0)
(0.00125747 -7.12708e-05 8.24698e-19 -0.000511909 4.82543e-19 0)
(0.00212621 -0.000236774 -1.53917e-18 -0.000925579 -8.68729e-19 0)
(0.00109899 -0.000187224 1.847e-19 -0.00029301 4.4507e-20 0)
(0.00103682 -0.000480152 4.65628e-19 -0.000912103 6.794e-19 0)
(0.00362561 0.000108043 2.50346e-19 -0.0018971 3.32493e-19 0)
(0.00325909 3.22034e-05 -8.26551e-19 -0.000831568 -3.57252e-19 0)
(0.000733484 -0.000547526 -7.58318e-19 -0.000348519 -2.05897e-19 0)
(0.00273756 0.000515295 3.56327e-20 -0.000884353 8.69613e-20 0)
(0.00113424 -6.19893e-05 4.10996e-19 -0.000305496 9.85851e-20 0)
(0.00238846 -6.55391e-05 -1.23264e-18 -0.00104456 -9.42646e-19 0)
(0.00100879 -0.000496829 2.17832e-19 -0.000871016 1.04158e-19 0)
(0.0013068 -0.000555196 -2.50543e-19 -0.000901891 -2.69767e-19 0)
(0.000511068 -0.000130364 -4.64064e-20 -9.47007e-05 -4.40509e-20 0)
(0.000554789 -0.000447859 2.09894e-19 -0.000263462 5.14474e-20 0)
(0.00168491 -0.00022472 -5.54507e-20 -0.000695608 -1.58067e-19 0)
(0.0011463 -4.10165e-05 -7.52071e-20 -0.000376564 1.04814e-20 0)
(0.00271143 -3.35626e-06 -7.82731e-19 -0.00118885 -5.9963e-19 0)
(0.000657154 -5.77143e-05 9.53998e-20 -0.000105221 2.37058e-20 0)
(0.00158752 -0.000336989 7.26008e-20 -0.000884579 2.9075e-19 0)
(0.000534402 -0.000173658 9.09121e-20 -9.74856e-05 3.40037e-20 0)
(0.000567195 -0.000145244 -7.70815e-20 -7.79546e-05 -3.87253e-21 0)
(0.0020472 -9.19987e-05 7.69065e-19 -0.00117451 3.9281e-19 0)
(0.0022025 -0.000123737 -1.78872e-19 -0.00103091 -2.04463e-19 0)
(0.000655112 -0.000263697 -1.94239e-19 -0.000136157 1.16537e-21 0)
(0.00123831 -5.88957e-05 -2.84231e-19 -0.00051966 1.617e-19 0)
(0.00107997 -0.000470705 9.71519e-21 -0.000361217 8.79568e-20 0)
(0.00111062 -0.000469731 1.32981e-19 -0.000358956 -4.76248e-20 0)
(0.000548718 -0.000230572 -1.71689e-19 -0.000106327 -1.31628e-20 0)
(0.00133264 -0.000553509 -5.26248e-19 -0.000845666 -2.42956e-19 0)
(0.00105971 -0.000145716 -4.83124e-19 -0.000213916 -1.02439e-19 0)
(0.000532278 -0.000205811 -5.11183e-20 -0.000107767 -1.89053e-20 0)
(0.00186404 -0.000237387 -8.10858e-19 -0.00107156 -5.27387e-19 0)
(0.0020478 -8.57886e-05 0 -0.00114183 0 0)
(0.00193013 -0.000189675 4.11577e-19 -0.00108296 -2.01875e-20 0)
(0.00103171 -2.80545e-05 -6.3792e-20 -0.00011147 -6.7477e-20 0)
(0.00103094 -2.82075e-05 -4.26928e-19 -0.000100216 -6.26262e-20 0)
(0.00121607 -1.40427e-05 -2.40847e-20 -0.00051044 -4.10098e-20 0)
(0.0012193 -1.53616e-05 -2.09376e-20 -0.000513187 -3.71677e-20 0)
(0.0011451 -6.38166e-06 -8.79488e-21 -0.000353079 2.73487e-20 -8.25485e-36)
(0.00203808 0.000424779 1.0273e-18 -0.000728288 8.30544e-19 0)
(0.00101431 -0.000429362 -4.92295e-19 -0.000319871 -1.86436e-20 0)
(0.00105339 -0.000430538 0 -0.00031973 0 0)
(0.000699047 -0.000284922 1.41467e-19 -0.00013538 3.08857e-21 0)
(0.00115693 -0.000155487 -3.14136e-19 -0.000380356 -3.853e-20 0)
(0.0010556 -7.24697e-05 3.74916e-19 -0.000167124 4.93898e-20 0)
(0.000969942 -0.000626709 1.39546e-19 -0.000516224 4.73378e-20 0)
(0.00320163 0.000241225 8.5309e-19 -0.000881956 4.06931e-19 0)
(0.00134263 -0.000161392 -3.82317e-19 -0.000535986 5.26502e-20 0)
(0.00158993 -6.76077e-05 3.29534e-19 -0.000703005 -1.56615e-19 0)
(0.00162089 -7.75099e-05 -2.37363e-19 -0.000668165 -4.45742e-19 0)
(0.00170088 -0.000300203 -6.9167e-19 -0.000734431 -1.06874e-19 0)
(0.00124417 -0.000545224 7.21553e-19 -0.000861093 2.27763e-19 0)
(0.00124757 -4.25042e-05 -2.20935e-19 -0.000521754 1.61349e-20 0)
(0.00114374 -0.000314565 -4.88866e-20 -0.000363634 -1.25878e-20 0)
(0.00114171 -0.000308596 1.23555e-19 -0.000364274 -1.11299e-19 0)
(0.00174058 -1.02629e-05 -7.95967e-19 -0.000734788 -6.29481e-20 1.20281e-34)
(0.00218368 -5.83212e-05 -2.47237e-18 -0.00121635 -2.29736e-18 0)
(0.00258662 5.90355e-06 1.05233e-18 -0.00111166 3.45248e-19 -3.67533e-35)
(0.00151253 -0.000366555 -7.49968e-19 -0.0010362 -5.93137e-19 0)
(0.000320266 -0.000135597 -1.97215e-19 -0.000835284 -2.30399e-19 0)
(0.00421473 -0.00240713 -8.91966e-19 -0.00244172 -6.53322e-19 0)
(0.00133128 -0.000291308 3.4225e-19 -0.000525158 9.09181e-20 0)
(0.000980882 -0.000252146 -1.84146e-19 -0.000229947 -9.15462e-20 0)
(0.00176054 -3.69308e-05 2.19909e-19 -0.000745087 -2.87892e-19 0)
(0.00122833 -2.1199e-05 -2.95952e-19 -0.000513413 -2.85541e-20 0)
(0.000414522 -0.000433937 -1.72161e-20 -0.000333923 -3.38516e-20 0)
(0.00276822 -0.000439371 8.15285e-20 -0.00152636 -6.93871e-19 0)
(0.000645798 -0.000512436 -7.46387e-19 -0.000598011 -2.4023e-19 0)
(0.00206722 -0.000277606 2.83188e-19 -0.000918909 8.74549e-20 0)
(0.00317889 0.000265148 -1.66672e-18 -0.0014094 -1.2254e-18 0)
(0.00173977 -0.000438696 -1.73218e-19 -0.000863915 -8.31789e-20 0)
(0.00113575 -6.48059e-05 3.10505e-19 -0.00033823 7.78343e-20 0)
(0.00171302 -0.000172465 -2.26113e-19 -0.000703356 2.39142e-19 0)
(0.00101417 -0.000473994 2.11412e-19 -0.00031984 1.39602e-19 0)
(0.00160526 -0.000501801 1.0656e-19 -0.000738712 4.86227e-20 0)
(0.0008281 -0.000449566 1.616e-19 -0.000249528 -1.4891e-20 0)
(0.000681023 -0.000250364 -1.30429e-20 -0.000111574 4.27364e-20 0)
(0.000710706 -0.00044315 4.73849e-19 -0.000208819 6.43484e-20 0)
(0.00186081 -0.000338617 -6.32217e-19 -0.000954498 -4.15907e-19 0)
(0.000592357 -0.000444659 -8.40802e-20 -0.000236869 -2.14325e-20 0)
(0.000381341 -0.00017545 -1.85619e-20 -0.000894898 -1.39589e-20 0)
(0.00126803 -0.000100432 4.60423e-20 -0.000521014 -2.9765e-21 0)
(0.00127295 -0.00010852 3.73045e-20 -0.000521401 1.22442e-19 0)
(0.00241955 -8.53298e-05 2.65537e-19 -0.00106291 1.72252e-19 0)
(0.0012086 -1.005e-05 -4.25547e-19 -0.00050955 -1.9403e-19 0)
(0.00121577 -0.00022081 6.53854e-20 -0.000448562 -1.74414e-19 0)
(0.00110012 -8.30379e-05 4.98377e-19 -0.000260482 1.19515e-19 0)
(0.000986162 -0.000555884 -6.52604e-20 -0.000375602 -1.19447e-20 0)
(0.000528052 -1.27008e-05 -1.14888e-19 -7.80572e-05 -4.77963e-21 0)
(0.00176714 -0.000436067 4.30692e-19 -0.000818663 2.08599e-19 0)
(0.00150678 -0.000525499 -4.55689e-19 -0.000669291 -1.43841e-19 0)
(0.00116786 -0.00060056 -5.75147e-19 -0.000508547 -2.33854e-19 0)
(0.00116603 -0.000382603 0 -0.000396436 0 0)
(0.00154422 -0.000362813 -4.52309e-19 -0.000787288 -6.82977e-19 0)
(0.00144241 -0.000217375 -1.43022e-20 -0.000613573 1.2823e-19 0)
(0.000891491 -0.000168537 -8.33579e-20 -0.000174752 3.30382e-20 0)
(0.001957 0.00016953 -7.42621e-19 -0.000635884 -3.59718e-19 0)
(0.0012274 -0.000214869 -1.49013e-19 -0.000442841 -1.78347e-20 0)
(0.00204431 -0.000246114 -3.79551e-19 -0.000901554 -8.99503e-20 0)
(0.00115482 -0.000150495 -6.12074e-20 -0.000366031 -7.45e-20 0)
(0.00111429 -0.000183081 2.39254e-19 -0.000301616 6.65459e-20 0)
(0.00109011 -0.000353112 3.25204e-19 -0.000323591 8.73162e-20 0)
(0.000988217 -0.000532338 -2.19819e-19 -0.000337261 1.91703e-20 0)
(0.00116939 -0.000596331 -4.36091e-19 -0.000520974 -1.38461e-19 0)
(0.00105135 -5.93882e-05 2.40135e-19 -0.00015745 5.81561e-20 0)
(0.0010158 -4.01108e-05 1.65633e-19 -0.000179386 -2.02158e-20 0)
(0.00101479 -3.05733e-05 2.1401e-19 -0.000179701 2.04519e-20 0)
(0.00104241 -0.000154347 1.98618e-19 -0.000230417 9.17394e-20 0)
(0.0010705 -0.000261899 1.51696e-19 -0.000285169 1.42924e-19 0)
(0.00113491 -8.58331e-05 -2.97781e-19 -0.000321782 -9.20738e-20 0)
(0.00105932 -4.93198e-05 3.02474e-20 -0.000140262 3.04199e-20 0)
(0.000337758 -0.00019778 8.57434e-20 -0.000173803 2.11776e-20 0)
(0.00126754 -0.000402195 -9.71597e-20 -0.000447927 1.08111e-19 0)
(0.00110323 -0.000133523 -6.7846e-19 -0.000283202 -7.22188e-20 0)
(0.00122499 -0.000512235 3.29363e-19 -0.000937231 -1.23737e-19 0)
(0.000675664 -0.000301 -1.7696e-19 -0.000157356 -2.73047e-20 0)
(0.000894416 -0.00051618 4.10374e-19 -0.000824299 6.14473e-19 0)
(0.000989092 -0.00016087 -2.33523e-19 -0.000216019 -2.68336e-20 0)
(0.00100092 -0.000147017 1.64571e-19 -0.000209628 -4.11731e-20 0)
(0.00102128 -0.000504803 -4.23221e-19 -0.000861743 -3.262e-19 0)
(0.001259 -0.000592724 -1.63398e-19 -0.000596124 -2.6905e-20 0)
(0.00106662 -0.000561828 -1.13165e-19 -0.000413235 -6.79026e-20 0)
(0.00117732 -6.88464e-05 -3.46151e-19 -0.000440693 -1.27022e-19 0)
(0.00268617 -9.6095e-05 -4.50019e-20 -0.00155062 -5.40228e-20 0)
(0.00199304 2.95078e-05 0 -0.000859648 0 0)
(0.00163417 -0.000407164 -2.58757e-19 -0.000707894 -5.23196e-20 0)
(0.00383727 0.000346525 -2.15135e-19 -0.00155461 -1.43993e-19 0)
(0.00282049 -0.000647216 -2.50783e-18 -0.00114291 -1.83525e-18 0)
(0.00240593 -0.000593114 -1.04351e-18 -0.00108191 -1.28644e-18 0)
(0.00108797 -0.00055501 5.44694e-19 -0.000411258 1.03815e-19 0)
(0.000504792 -0.000153352 -2.15118e-19 -9.86667e-05 -3.33364e-20 0)
(0.000557123 -0.000186058 -5.89766e-20 -8.15828e-05 1.05673e-20 0)
(0.0031122 -7.24911e-06 2.14356e-18 -0.00167813 1.94009e-18 0)
(0.000861427 -0.000419911 0 -0.000246979 0 0)
(0.000665028 -0.000439129 -2.4402e-19 -0.000222194 -1.58496e-20 0)
(0.00155405 -0.000385784 4.13403e-19 -0.000631904 -1.35021e-20 0)
(0.00149381 -0.000175018 4.25509e-20 -0.000614853 2.63299e-19 0)
(0.00125907 -0.000475498 1.57628e-18 -0.000938646 6.12346e-19 0)
(0.000665375 -7.39055e-05 -2.04808e-19 -9.78121e-05 -1.3872e-20 0)
(0.00164687 -0.000479497 2.60247e-22 -0.000731622 -9.91601e-20 0)
(0.00247695 1.27529e-05 4.03999e-19 -0.00104975 3.66324e-19 -8.01622e-34)
(0.00131322 -6.72403e-05 2.63521e-19 -0.000554858 -2.67874e-20 0)
(0.00112011 -0.000515986 -2.6939e-19 -0.000405037 -2.02184e-19 0)
(0.00160755 -0.000434051 3.55552e-19 -0.000663963 -5.35248e-20 0)
(0.000328451 -1.99336e-05 2.89421e-19 -0.00102307 6.04691e-19 0)
(0.00151001 -0.000339223 -3.33006e-19 -0.000625523 9.90362e-20 0)
(0.000310624 -0.000113645 5.36172e-19 -0.000895043 6.7442e-19 0)
(0.00132939 -0.000564148 6.70679e-19 -0.000844517 3.87241e-19 0)
(0.00161557 -0.000356311 -8.37841e-19 -0.00105992 -3.26806e-19 0)
(0.00102858 -1.53602e-05 -3.0657e-19 -0.00010384 -3.87035e-20 0)
(0.00121605 -3.34746e-06 -2.59216e-19 -0.000519672 -1.15869e-19 0)
(0.00202072 -0.000114759 6.00755e-19 -0.00115624 2.77868e-19 0)
(0.00119618 -0.000113056 6.13723e-20 -0.00042813 1.79675e-19 0)
(0.000885025 -0.000427222 0 -0.000248754 0 0)
(0.00111355 -0.000245305 -1.41166e-19 -0.000304888 9.3831e-20 0)
(0.00109441 -0.000247406 1.99064e-19 -0.000313991 -2.54281e-20 0)
(0.00108726 -0.000334023 -3.85487e-19 -0.000307225 -1.21484e-19 0)
(0.00171856 -0.000452532 -5.33264e-19 -0.000821211 -2.4868e-19 0)
(0.0023839 0.000287438 -1.79062e-18 -0.00114155 -1.57726e-18 0)
(0.000968915 -0.000417779 -2.55052e-19 -0.000282718 2.25231e-20 0)
(0.0011493 -2.6662e-05 0 -0.000365327 0 0)
(0.00112995 -7.90852e-05 2.30943e-19 -0.000327985 6.85733e-20 0)
(0.000531925 0.000370845 -2.16524e-19 -0.00138365 -6.89064e-20 0)
(0.00166878 -0.000487062 4.57565e-19 -0.000752814 1.69907e-19 0)
(0.00058512 -0.000445462 0 -0.000237645 0 0)
(0.00130252 -7.28716e-05 0 -0.000551975 0 0)
(0.0020858 -0.000247861 2.66212e-20 -0.000907363 1.19042e-19 0)
(0.000891879 -0.000117243 0 -0.000165676 0 0)
(0.0032622 0.000377136 -2.40494e-19 -0.00179769 -4.18185e-19 0)
(0.0010133 -0.000180791 -3.30542e-21 -0.000234544 1.26825e-20 0)
(0.000746401 -0.000392585 -1.55129e-19 -0.000831394 7.28198e-19 0)
(0.000568731 -0.000412725 -1.62046e-19 -0.000196213 -3.44766e-20 0)
(0.000334349 -0.000284728 -5.84988e-19 -0.000653203 -2.46095e-19 0)
(0.00227173 0.000157272 1.10337e-18 -0.00116326 5.95274e-19 0)
(0.000582763 -0.000383865 1.81737e-19 -0.000181885 1.32988e-20 0)
(0.00101138 -3.30331e-05 1.44869e-19 -0.000185179 1.13176e-19 0)
(0.00105277 -8.19948e-05 9.16525e-20 -0.000172664 4.07087e-20 0)
(0.00104997 -5.44937e-05 1.98061e-19 -0.000139674 4.76905e-20 0)
(0.000666497 -0.000375713 -1.81267e-19 -0.00018394 2.03766e-21 0)
(0.000972747 -0.000461717 -3.40695e-19 -0.00030702 -1.61527e-19 0)
(0.00231966 -7.96715e-05 9.31769e-19 -0.00101976 8.07747e-19 0)
(0.000689288 -0.000355375 2.0139e-19 -0.000142185 5.58017e-20 0)
(0.00186538 -8.19398e-05 -2.30521e-19 -0.000782836 -2.00523e-19 0)
(0.00289331 0.000636113 -5.97157e-19 -0.00143517 -2.48415e-19 0)
(0.00345358 0.000139105 -1.43832e-18 -0.00194349 -1.19365e-18 0)
(0.00124895 -2.25134e-05 -4.3693e-19 -0.000538894 -1.56948e-19 0)
(0.00102376 -2.44006e-05 -2.16332e-19 -0.000172846 -1.12199e-20 0)
(0.00151556 -0.000216435 -1.20601e-18 -0.0006379 -1.11407e-19 0)
(0.00134761 -0.00057922 -4.31947e-19 -0.000570495 -2.05588e-19 0)
(0.00303513 0.000612375 1.74982e-18 -0.00140042 1.51857e-18 0)
(0.00206678 0.000361261 2.98366e-19 -0.000628309 2.66236e-19 0)
(0.000768481 -2.25272e-05 2.52398e-19 -0.000124146 4.80911e-20 0)
(0.00112865 -0.000545442 3.20134e-20 -0.000416648 6.26406e-20 0)
(0.0011015 -0.000550719 2.28376e-19 -0.000408902 9.37643e-21 0)
(0.00120557 -0.000118164 8.5257e-20 -0.000462429 2.11185e-19 0)
(0.0011567 -0.000548195 7.26434e-19 -0.000850847 4.16592e-19 0)
(0.0013857 -0.000380646 -5.15275e-19 -0.00099883 -6.20176e-19 0)
(0.00102679 -7.27894e-06 3.184e-19 -8.45148e-05 3.59675e-20 0)
(0.00121228 -4.27702e-07 2.01465e-19 -0.000520252 1.41947e-19 0)
(0.00295368 0.000629673 5.77218e-19 -0.000889731 4.48017e-19 0)
(0.00166965 -0.000214514 0 -0.000713253 0 0)
(0.000320654 -0.000100788 -8.99531e-19 -0.000903807 -8.40183e-19 0)
(0.00120832 -8.76747e-05 3.49073e-19 -0.00047347 -6.87915e-20 0)
(0.00101783 -9.42659e-05 -3.98642e-20 -0.000195797 3.09181e-20 0)
(0.00142964 -0.000461432 5.38408e-19 -0.000565923 4.13644e-19 0)
(0.00105793 -0.000484126 7.10759e-19 -0.000361289 8.66543e-20 0)
(0.000524315 -0.00029707 -2.21642e-19 -0.000145987 -3.61237e-20 0)
(0.00086959 -0.000459623 1.90858e-19 -0.000248749 -1.73446e-20 0)
(0.000806384 -0.000399884 2.73161e-19 -0.000216145 -6.39386e-21 0)
(0.000586725 0.000236985 -1.10855e-20 -0.00157966 -2.59286e-20 0)
(0.00083227 -0.000440955 2.95427e-19 -0.000237916 4.99252e-20 0)
(0.00244676 -0.000270497 7.05983e-19 -0.00120029 8.41854e-19 0)
(0.00168187 -0.000473407 -5.61664e-19 -0.000767918 -2.51352e-19 0)
(0.00161571 -0.000504236 -5.63513e-19 -0.000785354 -2.53869e-19 0)
(0.000723444 -0.000334571 -2.87031e-19 -0.000162067 2.31723e-20 0)
(0.00186282 -0.00033137 1.35783e-20 -0.000964705 1.98356e-20 0)
(0.00145742 -0.000187943 -8.08699e-19 -0.000632778 -3.4626e-19 0)
(0.00103401 -1.54806e-05 5.00083e-19 -0.00013071 -5.2957e-20 0)
(0.00121798 -4.15273e-06 -6.74519e-20 -0.000520482 -2.53045e-20 0)
(0.0020334 0.000255221 -6.3053e-19 -0.000615394 -2.6916e-19 0)
(0.00164421 -0.000358393 -7.0251e-19 -0.000720306 -6.32146e-20 0)
(0.00166856 -0.000463479 -7.41399e-20 -0.000856408 -1.80995e-20 0)
(0.000605412 -0.000210904 6.54324e-19 -0.000811418 2.41924e-19 0)
(0.00116267 -0.000618901 -2.94042e-19 -0.000687365 -8.79547e-20 0)
(0.00204721 -0.000133057 5.63304e-19 -0.00107986 2.91128e-19 0)
(0.00207331 -0.000272889 -6.88064e-19 -0.000926296 -4.24258e-19 0)
(0.00172696 -0.000310611 3.57752e-19 -0.000725985 4.52628e-19 0)
(0.00110719 -9.50286e-05 2.1738e-19 -0.000293393 2.60777e-20 0)
(0.000606127 0.000116493 1.93628e-19 -0.00158691 1.4214e-19 0)
(0.00100626 -0.000487153 3.34705e-19 -0.000332189 1.11438e-20 0)
(0.00206136 -0.000249834 -1.00824e-19 -0.000937635 -7.24382e-20 0)
(0.00476578 -9.09367e-05 -6.61062e-19 -0.001842 -4.63567e-19 0)
(0.000240799 -0.00013276 1.67991e-19 -0.000308087 1.46358e-19 0)
(0.00113763 -2.49638e-05 -2.51096e-19 -0.00034991 -7.97586e-20 0)
(0.00112611 -6.03586e-05 -9.45968e-20 -0.000314632 8.53151e-21 0)
(0.00121457 -0.000119799 -3.08915e-19 -0.00047515 -8.95016e-20 0)
(0.00165104 -0.000192721 -1.07891e-19 -0.00071425 -1.50459e-19 0)
(0.000195878 -0.000169569 0 -0.000310269 0 0)
(0.000819603 -0.000425648 3.61737e-19 -0.000234564 9.9702e-20 0)
(0.00227749 0.000653381 6.2963e-19 -0.000949036 5.28725e-19 0)
(0.0021572 0.000580824 6.63577e-19 -0.00101777 1.30156e-18 0)
(0.00135278 -0.00058509 1.15567e-19 -0.000627524 5.90804e-20 0)
(0.00132489 -0.000590802 7.26349e-20 -0.000642586 4.71764e-20 0)
(0.00115732 -5.00153e-05 -3.33478e-19 -0.000368231 -1.25316e-19 0)
(0.00214369 -0.000160643 2.30054e-19 -0.000900145 3.64168e-19 0)
(0.000892387 -0.000520834 -9.13153e-19 -0.000327581 -1.91613e-19 0)
(0.00122159 -5.32982e-05 7.69192e-20 -0.000507108 1.79645e-19 0)
(0.000651365 -0.000552187 4.42434e-19 -0.000394798 2.17225e-19 0)
(0.000761017 -0.000547686 2.4786e-19 -0.000603877 1.18442e-19 0)
(0.00169571 -0.000371368 4.94434e-19 -0.000699875 -7.43311e-20 0)
(0.00191137 -0.00020306 7.18515e-19 -0.00113565 5.68064e-19 0)
(0.000672206 -0.000572746 5.61517e-19 -0.000615038 2.90175e-19 0)
(0.00105453 -8.57671e-05 -3.87741e-20 -0.00017208 4.24984e-20 0)
(0.00105582 -9.32021e-05 -4.01926e-19 -0.00018045 -3.50015e-20 0)
(0.00260326 0.000141682 2.81902e-18 -0.00139935 2.65464e-18 0)
(0.00232843 -3.67802e-05 2.40654e-19 -0.00105244 4.96268e-20 0)
(0.000739362 -0.000570845 1.32694e-19 -0.000360949 5.23992e-20 0)
(0.00100139 -0.000474415 -3.3048e-19 -0.000306855 -1.51584e-19 0)
(0.00245336 -0.000203821 -3.55208e-19 -0.00119361 2.75523e-20 0)
(0.00104416 -7.85355e-05 1.17572e-19 -0.000166848 -1.6192e-20 0)
(0.000435861 -0.000243658 2.90324e-19 -0.000131619 7.1642e-20 0)
(0.000399014 -0.000249982 0 -0.000136757 0 0)
(0.0013488 -0.00024718 -1.70311e-19 -0.00054877 -2.166e-19 0)
(0.000964262 -0.000206475 -3.72629e-19 -0.000213423 -1.0168e-19 0)
(0.000812061 -0.000390918 1.104e-19 -0.000213922 -6.88572e-21 0)
(0.00105677 -0.000259679 1.22597e-20 -0.000281942 1.1241e-20 0)
(0.00102131 -6.58417e-06 -5.41118e-20 -6.35635e-05 -2.10361e-20 0)
(0.00121695 8.36418e-07 -5.47766e-20 -0.000520982 -1.48233e-19 0)
(0.00062182 -0.0003516 4.7385e-19 -0.000149459 3.80797e-20 0)
(0.000774806 -5.91796e-06 3.05794e-20 -0.000124982 2.36833e-20 0)
(0.00128036 -0.000467256 -2.75293e-19 -0.000943058 -4.50355e-19 0)
(0.00105715 -0.000590066 1.10518e-19 -0.000440681 5.95578e-20 0)
(0.000666329 -0.000198953 8.65846e-20 -0.000126076 -2.94935e-20 0)
(0.000372838 -0.000354747 -1.15078e-19 -0.000286322 -1.471e-20 0)
(0.000515433 -0.000145548 -1.38733e-19 -8.34911e-05 -8.82437e-21 0)
(0.000473326 -0.000176716 1.13158e-19 -0.000103953 1.81049e-20 0)
(0.000416964 -0.000155887 1.30252e-19 -0.000105934 2.23312e-20 0)
(0.00081143 -0.0003624 1.96956e-19 -0.000190857 3.53731e-20 0)
(0.00138048 -0.000226256 4.84352e-19 -0.000543037 2.6064e-19 0)
(0.000939993 -0.000186137 2.02785e-19 -0.000220255 3.83585e-20 0)
(0.000904799 -0.000599829 -2.20055e-19 -0.000479684 -5.26708e-20 0)
(0.00135603 -0.000255147 6.65001e-19 -0.00054547 -8.20674e-20 0)
(0.000962624 -0.000213478 -8.73654e-20 -0.000216078 -1.1267e-19 0)
(0.00127179 -0.00055488 2.73792e-19 -0.000525723 1.44952e-19 0)
(0.00132807 -0.000555378 1.38101e-18 -0.000532516 5.10614e-19 0)
(0.00253655 7.03392e-05 -7.81211e-19 -0.0010812 -7.04129e-19 0)
(0.00136984 -0.000363319 -2.40601e-19 -0.000548968 5.33338e-20 0)
(0.00118493 -6.5854e-05 -1.08066e-19 -0.000422237 -1.03277e-19 0)
(0.000797707 -0.000378332 -1.6073e-19 -0.000207624 -4.19655e-21 0)
(0.000415867 -1.03431e-05 -1.51348e-21 -8.28088e-05 1.897e-20 0)
(0.00126061 -0.000186138 -3.07451e-19 -0.000499026 -5.58033e-20 0)
(0.000568202 -0.000238056 -3.27459e-19 -0.000114339 -1.2802e-20 0)
(0.000756442 -0.000575543 3.79563e-19 -0.000408571 1.31713e-19 0)
(0.000665307 -0.000561211 -5.47944e-20 -0.000427909 -3.8365e-20 0)
(0.00163752 -0.000389828 -4.9161e-19 -0.000699732 -6.1247e-20 0)
(0.00486397 -0.00243721 -4.02961e-19 -0.003613 -1.76686e-18 0)
(0.00118905 -0.000101789 4.13024e-19 -0.000438774 8.29372e-20 0)
(0.00260887 7.57899e-06 8.90265e-20 -0.00110485 5.65988e-20 0)
(0.0026475 -2.57819e-05 -3.22253e-21 -0.00113359 5.73085e-21 0)
(0.00178273 -0.000330789 -1.35738e-19 -0.00101124 1.48154e-19 0)
(0.00044997 -0.000433632 4.70656e-19 -0.000292023 1.66001e-19 0)
(0.001035 -1.07354e-05 2.41379e-20 -0.000108408 -9.55001e-21 0)
(0.0012183 -1.16797e-06 1.583e-19 -0.000522332 -2.47017e-19 0)
(0.000793429 -0.000559058 -5.19192e-21 -0.000336783 -1.10184e-21 0)
(0.00164231 -0.000361744 -1.27819e-20 -0.00102833 4.65445e-20 0)
(0.00045621 -0.000389662 -4.97155e-19 -0.000253506 -1.44905e-19 0)
(0.000744618 -0.000229643 1.42782e-18 -0.000678156 6.95768e-19 0)
(0.00155742 -0.00040356 7.48961e-19 -0.000640318 2.67265e-19 0)
(0.00138319 -0.000218872 2.47776e-19 -0.000579007 -2.47908e-19 0)
(0.000939924 -0.000175306 0 -0.00019525 0 0)
(0.00174361 -0.000359656 -8.05213e-19 -0.00104425 -2.75338e-19 0)
(0.000368406 -0.000358311 -5.15253e-19 -0.000592553 -4.53164e-20 0)
(0.00102314 -1.71681e-05 -1.83209e-19 -7.80012e-05 -6.41343e-21 0)
(0.00121719 -1.75536e-06 5.627e-19 -0.000518888 4.38977e-20 0)
(0.00250394 0.000655921 1.5189e-18 -0.00108547 1.52491e-18 0)
(0.00191847 -0.000183501 1.22262e-18 -0.00112185 6.85389e-19 0)
(0.000751019 -9.59131e-05 2.23215e-20 -0.000137112 -8.23938e-20 0)
(0.00204943 -7.68376e-05 -7.2994e-19 -0.00115424 -4.41827e-19 0)
(0.00243664 0.000657725 -9.65579e-19 -0.000925871 -8.88696e-19 0)
(0.0010537 -0.000560969 1.1393e-19 -0.000395302 6.57603e-20 0)
(0.00101118 -0.000105936 -8.56847e-20 -0.000198644 -1.063e-19 0)
(0.00201519 -0.000255229 -5.31979e-19 -0.000971046 -3.06266e-19 0)
(0.00034865 -2.60563e-05 -1.35064e-19 -0.00107347 -3.15223e-19 0)
(0.00129542 -0.000380634 2.83317e-19 -0.000501024 -8.4828e-21 0)
(0.00228428 0.000607409 -2.9572e-19 -0.000830402 -2.79536e-19 0)
(0.00166964 -0.000204434 1.52417e-19 -0.000682556 1.56989e-19 0)
(0.00247959 0.000706517 3.1051e-19 -0.00102617 6.47588e-19 0)
(0.00105067 -6.8508e-05 -2.96623e-20 -0.000167293 -1.0425e-21 0)
(0.00251599 -5.6619e-05 3.97615e-19 -0.00109572 2.37664e-19 0)
(0.00191062 -0.000322645 -6.80006e-19 -0.000937678 -3.97571e-19 0)
(0.00196681 -0.000322321 -3.92101e-19 -0.000883389 -2.08528e-19 0)
(0.00113377 -0.000143964 0 -0.000307413 0 0)
(0.00237674 0.000294468 -3.18891e-19 -0.00109892 -5.44794e-19 0)
(0.00126258 -0.00020424 5.62115e-19 -0.00050236 5.19657e-20 0)
(0.00139105 -0.000358756 -8.64947e-19 -0.000550121 -1.39431e-19 0)
(0.00051624 2.99936e-05 5.51834e-20 -0.00144312 -1.19297e-19 0)
(0.00130794 -0.000367388 -3.37026e-19 -0.000493589 4.88764e-20 0)
(0.00110584 -5.34404e-06 9.48027e-21 -0.000251348 -3.10436e-21 -9.10283e-36)
(0.000458651 4.00332e-05 1.34493e-19 -0.00121251 1.90528e-19 0)
(0.00137399 -0.000468111 1.50348e-19 -0.00056126 -6.20543e-20 0)
(0.00253297 -0.00114832 -2.10826e-18 -0.00119998 -9.0874e-19 0)
(0.000344468 -0.000334798 3.01411e-19 -0.000318361 1.33972e-19 0)
(0.00315688 0.000585868 5.80014e-20 -0.00161014 2.86687e-19 0)
(0.00229029 0.000159928 1.08782e-19 -0.00111934 -5.99429e-19 0)
(0.000446223 -0.000278883 8.27925e-19 -0.000772614 4.90864e-19 0)
(0.000250556 -5.12324e-05 1.03912e-20 -0.000156614 2.44542e-20 0)
(0.00116316 -0.000450915 1.66818e-18 -0.000940744 1.96414e-19 0)
(0.00192793 -0.000345812 4.38563e-19 -0.000855461 2.21477e-19 0)
(0.00138369 -0.000336711 -1.08142e-19 -0.000544261 2.0379e-19 0)
(0.00144508 -0.000381928 -8.293e-19 -0.000980016 -6.81579e-19 0)
(0.00241268 0.000352532 -3.94203e-19 -0.00112065 5.17006e-20 0)
(0.00249643 -0.000545819 8.64115e-19 -0.000958402 5.96012e-19 0)
(0.00122578 -3.71867e-05 7.03e-19 -0.000519596 2.52234e-19 0)
(0.00123058 -3.40676e-05 -2.52531e-20 -0.000513753 -1.05127e-19 0)
(0.000438533 -0.000289684 -2.95657e-19 -0.000161466 -6.26123e-20 0)
(0.000389017 -0.000274746 -5.32998e-20 -0.000156318 -6.9187e-21 0)
(0.00225903 0.000356698 0 -0.000724058 0 0)
(0.00237628 0.000343449 5.05209e-19 -0.00114018 1.22726e-18 0)
(0.00456979 -0.000689627 7.66264e-19 -0.00210084 3.70504e-19 0)
(0.000954163 -0.000412372 -2.47523e-19 -0.000267425 -5.56993e-20 0)
(0.00120869 -1.28163e-05 3.87096e-19 -0.00049458 -9.56057e-20 0)
(0.000743149 -0.000461269 -2.4438e-19 -0.00023444 -6.38136e-20 0)
(0.000342136 -0.000202725 -3.26777e-19 -0.000776485 -3.30244e-19 0)
(0.00213864 -0.000209987 -1.7763e-18 -0.000916081 -7.43031e-19 0)
(0.00120505 -0.000605562 1.78792e-20 -0.000566955 -2.32933e-20 0)
(0.000763271 -0.00043531 2.47514e-19 -0.000201262 6.03975e-20 0)
(0.000356711 -0.000377333 1.76157e-19 -0.000324844 1.1464e-19 0)
(0.00816241 -0.00195488 0 -0.00605476 0 0)
(0.00134521 -0.000444212 0 -0.00051316 0 0)
(0.00136383 -0.000439827 0 -0.000532006 0 0)
(0.00193204 -0.00032781 -1.48077e-19 -0.000914853 -1.14748e-19 0)
(0.0020449 -0.000225873 -3.01709e-18 -0.000971811 -2.04243e-18 0)
(0.00235499 9.14564e-05 -8.66393e-19 -0.00108863 -7.45146e-19 0)
(0.00225624 0.000155872 0 -0.00122635 0 0)
(0.00123224 -4.94855e-05 -5.33222e-19 -0.000503171 -1.69693e-19 0)
(0.000397273 -0.000338626 -6.93509e-19 -0.000608424 -5.09294e-19 0)
(0.00201198 -0.000238971 -6.54472e-19 -0.000981384 -4.54918e-19 0)
(0.00226921 0.000162103 -7.35784e-19 -0.0011698 -6.45086e-19 0)
(0.00168554 -0.000420659 -2.21161e-19 -0.000751865 1.09851e-19 0)
(0.00171143 -0.000424605 1.76751e-20 -0.000722934 4.22962e-21 0)
(0.00106278 -0.000247612 -4.97136e-19 -0.000271268 -4.22599e-20 0)
(0.00104589 -0.00011303 3.70615e-20 -0.00020524 -1.80698e-20 0)
(0.00335771 0.000545797 4.73856e-19 -0.00156788 5.39208e-19 0)
(0.000452735 -0.000379563 7.42176e-19 -0.000615412 5.01133e-19 0)
(0.00112745 -0.000343766 5.44393e-19 -0.000343936 8.97782e-20 0)
(0.00118628 -3.36439e-05 -2.72621e-19 -0.000423505 -2.08222e-19 0)
(0.00114122 -0.000386309 -5.44929e-19 -0.000378028 -9.41491e-20 0)
(0.000725036 -0.000355115 2.65813e-19 -0.00016985 5.67266e-20 0)
(0.00113577 -0.000317546 4.2947e-20 -0.000355103 1.38843e-21 0)
(0.000603077 -0.000553031 1.06863e-19 -0.00042712 8.08323e-20 0)
(0.0019894 -0.000225541 -1.24881e-19 -0.000859374 -1.6664e-19 0)
(0.00132708 -0.000162454 4.37185e-19 -0.000562432 1.5748e-19 0)
(0.00192057 -0.000209453 0 -0.00110465 0 0)
(0.000847714 -0.000273885 -1.52502e-18 -0.000566617 -9.24822e-19 0)
(0.00643497 -0.00288355 -5.98048e-19 -0.00428742 -2.35783e-18 0)
(0.00103545 -0.000551557 3.03748e-19 -0.000393905 1.89192e-20 0)
(0.00121621 3.53055e-07 1.26745e-19 -0.000526353 -2.94243e-20 0)
(0.00100854 -5.46163e-06 -1.39471e-19 -4.20816e-05 -3.85171e-21 0)
(0.00104297 -9.64484e-05 -5.46877e-20 -0.000193505 -6.53271e-20 0)
(0.000643179 -0.000524858 2.5258e-19 -0.000367624 1.34961e-19 0)
(0.00104453 -0.000404449 1.7591e-19 -0.000311306 -4.36892e-20 0)
(0.00119066 -0.000385999 3.94323e-19 -0.000404869 4.029e-22 0)
(0.00119852 -0.00040653 4.95912e-19 -0.000442374 -9.91827e-21 0)
(0.00152588 -0.000304744 1.30114e-20 -0.00098813 -4.72355e-20 0)
(0.00034493 -0.000244841 -1.38135e-19 -0.000196172 -4.71005e-20 0)
(0.00105094 -0.000387128 1.60849e-19 -0.000295129 2.29468e-20 0)
(0.00102173 -0.000383965 1.15214e-19 -0.000318302 -1.15122e-19 0)
(0.00107992 -9.07173e-05 1.76885e-19 -0.00020892 7.74592e-20 0)
(0.00107327 -0.000481303 1.64828e-19 -0.000366262 -1.16629e-19 0)
(0.000492131 0.000239284 -5.03969e-19 -0.00118886 -2.8273e-19 0)
(0.0010849 -0.000307009 -2.96323e-20 -0.000313957 8.48463e-20 0)
(0.00108803 -0.000310835 -1.80757e-19 -0.000318658 -1.33147e-19 0)
(0.00110751 -8.31242e-05 2.66336e-19 -0.00027525 6.73955e-20 0)
(0.000271865 -0.000172416 -1.12353e-19 -0.00016243 -3.59006e-20 0)