/*--------------------------------*- C++ -*----------------------------------*\
| =========                 |                                                 |
| \\      /  F ield         | OpenFOAM: The Open Source CFD Toolbox           |
|  \\    /   O peration     | Version:  v2012                                 |
|   \\  /    A nd           | Website:  www.openfoam.com                      |
|    \\/     M anipulation  |                                                 |
\*---------------------------------------------------------------------------*/
FoamFile
{
    version     2.0;
    format      ascii;
    class       volSymmTensorField;
    location    "13";
    object      sigma;
}
// * * * * * * * * * * * * * * * * * * * * * * * * * * * * * * * * * * * * * //

dimensions      [1 -1 -2 0 0 0 0];


internalField   nonuniform List<symmTensor> 
7666
(
(1.97763e+07 -6.11619e+06 -3.3627e-09 -3.17113e+06 -6.15738e-10 5.66069e+06)
(7.45218e+07 -2.10233e+07 1.60021e-08 1.35147e+07 2.04219e-09 2.7292e+07)
(1.60289e+08 -5.26624e+07 -3.34983e-08 3.10756e+07 -1.24146e-08 7.4756e+07)
(8.89013e+07 -2.7991e+07 -1.19551e-08 7.66484e+06 -1.16696e-08 2.88284e+07)
(1.24605e+08 -2.22254e+07 7.56106e-11 -1.67892e+07 5.93046e-10 3.25148e+07)
(1.64435e+08 -6.26407e+06 4.11688e-09 -6.99083e+06 1.32972e-08 4.64271e+07)
(9.37053e+07 -3.67973e+06 4.67764e-08 1.40344e+07 1.54522e-08 3.22863e+07)
(9.54096e+07 -2.56458e+07 -1.71917e-09 8.0678e+06 1.61449e-09 3.03762e+07)
(2.02579e+08 -696252 -3.35866e-08 39530.8 -2.61102e-08 6.22077e+07)
(9.30549e+07 -7.48916e+06 -2.68361e-09 1.872e+07 -9.4033e-10 3.33557e+07)
(6.14379e+07 -2.43713e+07 0 7.78685e+06 0 2.04895e+07)
(9.95047e+07 -1.07668e+07 -1.07833e-08 5.01882e+06 9.38174e-09 3.10972e+07)
(9.26405e+07 -2.59681e+07 -1.07765e-08 8.82425e+06 3.50698e-09 2.97285e+07)
(8.54356e+07 -2.18009e+07 -9.30758e-09 1.26072e+07 -2.38879e-09 2.9675e+07)
(9.363e+07 -2.56381e+06 0 1.93557e+07 0 3.36526e+07)
(1.09929e+08 -1.75196e+07 7.31232e-08 -2.30162e+07 3.98779e-08 2.80317e+07)
(9.32486e+07 -2.57895e+07 3.05929e-08 8.46221e+06 2.63231e-09 3.10803e+07)
(1.81606e+08 -5.1756e+06 -3.66121e-09 -607676 -1.47847e-08 5.36872e+07)
(1.04218e+08 -1.62754e+07 1.77196e-08 4.60766e+06 6.2057e-09 3.2474e+07)
(8.23888e+07 -1.43054e+07 -9.11224e-09 1.69518e+07 1.29625e-09 3.02232e+07)
(6.64973e+07 -6.01862e+06 1.68238e-08 1.85184e+07 -1.06688e-09 2.54619e+07)
(1.29133e+08 -2.04434e+07 2.74062e-08 785400 -9.95563e-09 3.85044e+07)
(8.86454e+07 -2.22173e+07 -6.43146e-09 1.15062e+07 2.87073e-09 3.03231e+07)
(8.03779e+07 -2.97266e+07 1.76362e-08 5.15634e+06 2.56665e-09 2.53595e+07)
(1.57161e+08 -1.89595e+06 -5.3591e-09 -1.61824e+07 7.34603e-09 4.17254e+07)
(9.3335e+07 -3.26244e+06 -2.3969e-08 1.99975e+07 -1.02163e-08 3.41257e+07)
(1.57114e+08 -2.14274e+06 -1.79123e-08 -1.67407e+07 -3.27714e-09 4.24422e+07)
(4.17825e+07 -2.55309e+07 -3.83739e-10 -1.68504e+06 6.13941e-10 1.18914e+07)
(9.25331e+07 -2.55735e+07 4.72643e-09 8.47571e+06 1.09573e-09 3.07556e+07)
(9.47054e+07 -1.32828e+06 -3.86809e-09 1.23386e+06 8.96655e-09 2.86863e+07)
(9.71872e+07 -1.66287e+06 -1.89217e-09 295432 -2.56999e-10 2.9084e+07)
(1.77365e+08 -5.9264e+06 -3.94248e-08 -172714 -2.02673e-08 5.35976e+07)
(1.71212e+07 -1.83825e+07 -1.44747e-09 -2.15555e+07 -5.8562e-09 -1.19871e+06)
(9.50524e+07 -4.5196e+06 -3.63406e-08 5.00599e+06 -9.83666e-09 2.97773e+07)
(1.94759e+06 -1.4154e+07 3.45832e-08 -4.71862e+07 1.71635e-08 -1.3236e+07)
(7.56192e+07 -1.57365e+07 7.50201e-09 1.65477e+07 2.2613e-09 2.72948e+07)
(7.44864e+07 -1.47454e+07 -1.4154e-08 1.70027e+07 -6.86577e-10 2.75332e+07)
(9.71017e+07 -3.83766e+06 4.44068e-08 1.82747e+06 2.59831e-08 2.93918e+07)
(1.61566e+08 -1.27494e+07 -8.28785e-08 -2.76134e+06 -4.67777e-08 4.70775e+07)
(9.21219e+07 -1.00813e+07 9.9454e-09 1.7168e+07 2.39653e-09 3.29455e+07)
(6.12866e+07 -2.58544e+07 2.50723e-08 -4.36551e+07 3.65831e-08 5.45808e+06)
(2.13283e+08 2.28377e+06 7.72205e-09 1.27388e+07 1.20151e-08 8.49255e+07)
(2.6705e+08 1.34927e+06 -4.04947e-08 6.77358e+07 -1.75024e-08 1.08182e+08)
(5.49889e+07 -2.94822e+07 -4.08325e-08 -3.27276e+06 -1.10867e-08 1.54936e+07)
(2.23268e+08 2.77467e+07 1.91868e-09 2.82421e+07 4.68253e-09 7.58611e+07)
(9.35943e+07 -3.33789e+06 2.21305e-08 1.607e+07 5.30843e-09 3.25198e+07)
(1.82074e+08 -3.52903e+06 -6.63728e-08 -2.78118e+06 -5.07579e-08 5.34643e+07)
(6.12131e+07 -2.67523e+07 1.17294e-08 -4.00075e+07 5.60852e-09 6.89341e+06)
(8.7976e+07 -2.98952e+07 -1.34908e-08 -3.09533e+07 -1.45259e-08 1.761e+07)
(4.63372e+07 -7.0196e+06 -2.49881e-09 1.37189e+07 -2.37197e-09 1.88182e+07)
(4.06486e+07 -2.41155e+07 1.1302e-08 -3.41103e+06 2.77024e-09 1.07754e+07)
(1.2921e+08 -1.21003e+07 -2.9858e-09 1.02813e+06 -8.51132e-09 3.84839e+07)
(9.36088e+07 -2.20858e+06 -4.04961e-09 1.16083e+07 5.64382e-10 3.18848e+07)
(2.02516e+08 -195699 -4.05764e-08 267184 -3.11033e-08 6.19153e+07)
(5.87981e+07 -3.10769e+06 5.13691e-09 1.77471e+07 1.27646e-09 2.34128e+07)
(1.11154e+08 -1.81455e+07 3.90927e-09 -2.19594e+07 1.56558e-08 2.56717e+07)
(4.7467e+07 -9.3508e+06 4.89527e-09 1.34423e+07 1.83097e-09 1.86915e+07)
(4.85258e+07 -7.82085e+06 -4.15054e-09 1.3787e+07 -2.08521e-10 1.79846e+07)
(1.46101e+08 -4.95378e+06 4.14112e-08 -2.73756e+07 2.11513e-08 3.58672e+07)
(1.6693e+08 -6.66277e+06 -9.63155e-09 -7.17647e+06 -1.10096e-08 4.83342e+07)
(5.71689e+07 -1.41991e+07 -1.0459e-08 1.45621e+07 6.27507e-11 2.18937e+07)
(9.63108e+07 -3.1713e+06 -1.53048e-08 1.65105e+06 8.70692e-09 2.96327e+07)
(8.76397e+07 -2.53457e+07 5.23126e-10 1.00371e+07 4.73613e-09 2.94873e+07)
(8.90078e+07 -2.52932e+07 7.16053e-09 9.87694e+06 -2.56441e-09 2.92054e+07)
(4.67457e+07 -1.24154e+07 -9.24479e-09 1.1474e+07 -7.08765e-10 1.71993e+07)
(9.12268e+07 -2.98043e+07 -2.83364e-08 -2.60665e+07 -1.30823e-08 1.94694e+07)
(9.02312e+07 -7.84627e+06 -2.60144e-08 2.16512e+07 -5.51594e-09 3.31698e+07)
(4.69033e+07 -1.10821e+07 -2.75252e-09 1.24393e+07 -1.01798e-09 1.82421e+07)
(1.32865e+08 -1.27824e+07 -4.36616e-08 -2.5206e+07 -2.83977e-08 3.24934e+07)
(1.46201e+08 -4.61939e+06 0 -2.55485e+07 0 3.59344e+07)
(1.37465e+08 -1.02132e+07 2.21618e-08 -2.47782e+07 -1.08702e-09 3.35349e+07)
(9.32903e+07 -1.51062e+06 -3.43496e-09 3.17344e+07 -3.63338e-09 3.77366e+07)
(9.2888e+07 -1.51886e+06 -2.29884e-08 3.19797e+07 -3.37218e-09 3.73759e+07)
(9.39754e+07 -756146 -1.29687e-09 1.00968e+06 -2.20822e-09 2.84949e+07)
(9.41479e+07 -827164 -1.12741e-09 859839 -2.00134e-09 2.8493e+07)
(9.35502e+07 -343628 -4.7357e-10 1.28789e+07 1.47262e-09 3.18908e+07)
(1.66699e+08 2.28727e+07 5.53161e-08 1.77406e+07 4.47216e-08 5.69562e+07)
(8.38149e+07 -2.31195e+07 -2.65082e-08 1.19742e+07 -1.00389e-09 2.9198e+07)
(8.55096e+07 -2.31828e+07 0 1.15725e+07 0 2.87887e+07)
(5.94792e+07 -1.53419e+07 7.61747e-09 1.45485e+07 1.66307e-10 2.18383e+07)
(9.41956e+07 -8.37236e+06 -1.6915e-08 1.14185e+07 -2.07469e-09 3.18992e+07)
(9.27623e+07 -3.90221e+06 2.01878e-08 2.69233e+07 2.65945e-09 3.59222e+07)
(7.02156e+07 -3.37459e+07 7.51404e-09 -9.80878e+06 2.54896e-09 1.79879e+07)
(2.58963e+08 1.17881e+07 4.14571e-08 6.08476e+07 1.99876e-08 1.03659e+08)
(1.03383e+08 -8.69033e+06 -2.05863e-08 2.22659e+06 2.83501e-09 3.10874e+07)
(1.23088e+08 -3.64042e+06 1.77441e-08 -377884 -8.43313e-09 3.74762e+07)
(1.23657e+08 -4.17361e+06 -1.27811e-08 400546 -2.40015e-08 3.63787e+07)
(1.31931e+08 -1.61648e+07 -3.72438e-08 798504 -5.75473e-09 4.03448e+07)
(8.02584e+07 -2.93582e+07 3.88529e-08 -3.31017e+07 1.22642e-08 1.32649e+07)
(9.6225e+07 -2.28869e+06 -1.18965e-08 953917 8.68805e-10 2.90484e+07)
(9.30678e+07 -1.69381e+07 -2.63235e-09 1.19014e+07 -6.77803e-10 3.14816e+07)
(9.31041e+07 -1.66167e+07 6.65294e-09 1.20125e+07 -5.99302e-09 3.16272e+07)
(1.33728e+08 -552619 -4.28598e-08 439213 -3.38952e-09 4.00047e+07)
(1.57888e+08 -3.14037e+06 -1.33127e-07 -2.51908e+07 -1.23704e-07 4.0305e+07)
(1.99009e+08 317884 5.6664e-08 -129831 1.85903e-08 5.9729e+07)
(1.01859e+08 -1.97376e+07 -4.03829e-08 -3.53808e+07 -3.19381e-08 2.04146e+07)
(-6.61588e+06 -7.30136e+06 -1.06193e-08 -6.88378e+07 -1.24061e-08 -2.3861e+07)
(1.50525e+08 -5.40908e+07 -6.75625e-09 2.66635e+07 -1.54795e-08 8.2097e+07)
(1.04345e+08 -1.56858e+07 1.84288e-08 4.38277e+06 4.89559e-09 3.26605e+07)
(8.26271e+07 -1.35771e+07 -9.91555e-09 1.74286e+07 -4.92941e-09 2.98104e+07)
(1.35046e+08 -1.98858e+06 1.18412e-08 127272 -1.55019e-08 4.02474e+07)
(9.47093e+07 -1.14148e+06 -1.59359e-08 923136 -1.53753e-09 2.85685e+07)
(2.68701e+07 -2.33659e+07 -9.2702e-10 -1.34308e+07 -1.82278e-09 4.54968e+06)
(1.89983e+08 -2.09193e+07 5.88593e-09 -527463 -3.11891e-08 6.83643e+07)
(3.67675e+07 -2.75927e+07 -4.01901e-08 -3.02068e+07 -1.29355e-08 1.99381e+06)
(1.57978e+08 -1.4948e+07 1.52486e-08 -2.81352e+06 4.70911e-09 4.66662e+07)
(2.31664e+08 1.15046e+07 -7.54474e-08 2.67733e+07 -5.54808e-08 9.04395e+07)
(1.30792e+08 -2.36221e+07 -9.32713e-09 -9.40612e+06 -4.47886e-09 3.71124e+07)
(9.35377e+07 -3.48955e+06 1.67195e-08 1.41693e+07 4.19108e-09 3.23817e+07)
(1.30778e+08 -9.28659e+06 -1.21753e-08 665196 1.28769e-08 3.85382e+07)
(8.21435e+07 -2.55228e+07 1.13837e-08 1.0312e+07 7.51705e-09 2.75342e+07)
(1.20311e+08 -2.70201e+07 5.73784e-09 -5.90362e+06 2.61815e-09 3.38732e+07)
(6.87562e+07 -2.42074e+07 8.70155e-09 1.073e+07 -8.01823e-10 2.41661e+07)
(5.78125e+07 -1.34811e+07 -7.0231e-10 1.51342e+07 2.30119e-09 2.1142e+07)
(5.68886e+07 -2.38619e+07 2.5515e-08 7.37576e+06 3.46491e-09 1.86198e+07)
(1.35791e+08 -1.82332e+07 -3.40425e-08 -1.58021e+07 -2.2395e-08 3.5594e+07)
(4.59094e+07 -2.39432e+07 -4.5274e-09 1.25873e+06 -1.15406e-09 1.40132e+07)
(374946 -9.4473e+06 -9.99488e-10 -6.83456e+07 -7.51635e-10 -2.01588e+07)
(9.84873e+07 -5.40789e+06 2.4792e-09 2.15393e+06 -1.60273e-10 3.02085e+07)
(9.88517e+07 -5.84341e+06 2.0087e-09 2.23272e+06 6.59302e-09 3.03081e+07)
(1.86644e+08 -4.59468e+06 1.42981e-08 -872799 9.2751e-09 5.6361e+07)
(9.36582e+07 -541154 -2.29141e-08 1.14218e+06 -1.04478e-08 2.85795e+07)
(9.71051e+07 -1.18898e+07 3.52075e-09 7.48717e+06 -9.39152e-09 3.16405e+07)
(9.33536e+07 -4.47127e+06 2.68357e-08 2.00905e+07 6.43544e-09 3.41165e+07)
(7.85652e+07 -2.99322e+07 -3.51402e-09 5.2394e+06 -6.43177e-10 2.54641e+07)
(4.65642e+07 -683887 -6.18629e-09 1.39276e+07 -2.57365e-10 1.81307e+07)
(1.31104e+08 -2.34805e+07 2.31911e-08 -8.13118e+06 1.12322e-08 3.59507e+07)
(1.15744e+08 -2.82961e+07 -2.45371e-08 -1.42856e+06 -7.74526e-09 3.46102e+07)
(8.93302e+07 -3.23378e+07 -3.09695e-08 -937779 -1.25921e-08 2.64455e+07)
(9.41744e+07 -2.06017e+07 0 1.00418e+07 0 3.13883e+07)
(1.10281e+08 -1.95361e+07 -2.43551e-08 -1.52622e+07 -3.67757e-08 2.71303e+07)
(1.12024e+08 -1.17048e+07 -7.70121e-10 1.31702e+06 6.9047e-09 3.43556e+07)
(7.63759e+07 -9.0751e+06 -4.4885e-09 1.89628e+07 1.77898e-09 2.83725e+07)
(1.60643e+08 9.12855e+06 -3.99873e-08 2.10265e+07 -1.93694e-08 5.52664e+07)
(9.73507e+07 -1.15699e+07 -8.02376e-09 7.41462e+06 -9.60329e-10 3.12599e+07)
(1.57017e+08 -1.32523e+07 -2.04374e-08 -1.60621e+06 -4.84348e-09 4.6939e+07)
(9.3989e+07 -8.10355e+06 -3.29578e-09 1.20971e+07 -4.01154e-09 3.18064e+07)
(9.28038e+07 -9.85818e+06 1.28829e-08 1.65625e+07 3.58324e-09 3.28034e+07)
(8.92343e+07 -1.90137e+07 1.7511e-08 1.31121e+07 4.70164e-09 3.05362e+07)
(7.87857e+07 -2.86643e+07 -1.18364e-08 7.41379e+06 1.03225e-09 2.5574e+07)
(9.01117e+07 -3.21101e+07 -2.34818e-08 -907907 -7.45557e-09 2.71445e+07)
(9.29282e+07 -3.19782e+06 1.29303e-08 2.7839e+07 3.13148e-09 3.63171e+07)
(8.83785e+07 -2.15981e+06 8.91872e-09 2.40226e+07 -1.08854e-09 3.36819e+07)
(8.8747e+07 -1.64625e+06 1.15236e-08 2.44285e+07 1.10126e-09 3.41048e+07)
(8.96435e+07 -8.31098e+06 1.06948e-08 2.11064e+07 4.93981e-09 3.35135e+07)
(8.92404e+07 -1.41022e+07 8.16823e-09 1.62426e+07 7.69593e-09 3.15979e+07)
(9.34801e+07 -4.62178e+06 -1.60344e-08 1.50429e+07 -4.95782e-09 3.23696e+07)
(9.33444e+07 -2.65568e+06 1.62871e-09 2.87516e+07 1.63799e-09 3.63042e+07)
(2.34017e+07 -1.06497e+07 4.61695e-09 -4.14384e+06 1.14033e-09 5.21479e+06)
(9.99555e+07 -2.16566e+07 -5.23168e-09 7.58418e+06 5.82138e-09 3.17034e+07)
(9.31622e+07 -7.18967e+06 -3.65324e-08 1.85079e+07 -3.88871e-09 3.37573e+07)
(7.99088e+07 -2.75819e+07 1.77349e-08 -3.65186e+07 -6.66277e-09 1.39477e+07)
(5.90004e+07 -1.62077e+07 -9.5286e-09 1.41455e+07 -1.47025e-09 2.26185e+07)
(5.24806e+07 -2.77943e+07 2.20971e-08 -4.00656e+07 3.3087e-08 4.31975e+06)
(8.49921e+07 -8.66225e+06 -1.25743e-08 2.01016e+07 -1.44488e-09 3.17334e+07)
(8.561e+07 -7.91631e+06 8.86149e-09 2.04268e+07 -2.21702e-09 3.17145e+07)
(6.05215e+07 -2.71817e+07 -2.27888e-08 -4.08718e+07 -1.75646e-08 5.5297e+06)
(9.5969e+07 -3.19159e+07 -8.79834e-09 -3.9222e+06 -1.44873e-09 2.81768e+07)
(8.47121e+07 -3.02523e+07 -6.09349e-09 5.02787e+06 -3.65629e-09 2.7279e+07)
(9.39727e+07 -3.70711e+06 -1.86389e-08 6.8487e+06 -6.83966e-09 3.05784e+07)
(1.84449e+08 -5.35549e+06 -2.09111e-09 -1.49811e+07 -2.54709e-09 5.87541e+07)
(1.52309e+08 1.58888e+06 0 -1.29726e+06 0 4.49915e+07)
(1.26682e+08 -2.19242e+07 -1.39331e-08 570243 -2.81721e-09 3.86876e+07)
(2.31572e+08 1.22926e+07 -7.02229e-09 3.02192e+07 -5.19405e-09 9.03749e+07)
(1.90138e+08 -3.06352e+07 -1.15089e-07 1.04496e+07 -8.50173e-08 6.25172e+07)
(1.85917e+08 -3.09101e+07 -5.35263e-08 6.646e+06 -6.65576e-08 6.23948e+07)
(8.58637e+07 -2.98851e+07 2.93297e-08 5.13623e+06 5.59001e-09 2.72809e+07)
(4.46603e+07 -8.25741e+06 -1.15833e-08 1.21664e+07 -1.79504e-09 1.74792e+07)
(4.72363e+07 -1.00185e+07 -3.17566e-09 1.28445e+07 5.69011e-10 1.72374e+07)
(1.87352e+08 -1.65309e+06 9.0118e-08 -1.39003e+07 8.20157e-08 5.74722e+07)
(7.21033e+07 -2.26106e+07 0 1.24199e+07 0 2.57188e+07)
(5.49394e+07 -2.36454e+07 -1.31395e-08 7.1659e+06 -8.53439e-10 1.91302e+07)
(1.20168e+08 -2.0773e+07 2.22602e-08 2.46254e+06 -7.27035e-10 3.64881e+07)
(1.14694e+08 -9.42402e+06 2.2912e-09 1.15099e+06 1.41777e-08 3.42585e+07)
(7.95897e+07 -2.56037e+07 8.48768e-08 -3.8749e+07 3.29725e-08 1.17934e+07)
(5.83937e+07 -3.97953e+06 -1.10281e-08 1.7299e+07 -7.46952e-10 2.25658e+07)
(1.24449e+08 -2.58191e+07 1.40133e-11 -3.62423e+06 -5.33939e-09 3.57708e+07)
(1.90683e+08 686694 2.17538e-08 783663 1.97252e-08 5.73087e+07)
(1.01041e+08 -3.62063e+06 1.41896e-08 451747 -1.4424e-09 3.03287e+07)
(8.96037e+07 -2.77838e+07 -1.45056e-08 7.48047e+06 -1.08868e-08 2.92902e+07)
(1.23637e+08 -2.3372e+07 1.91451e-08 1.32472e+06 -2.8821e-09 3.70766e+07)
(-1.2416e+07 -1.07335e+06 1.55842e-08 -8.51899e+07 3.25603e-08 -3.01018e+07)
(1.17269e+08 -1.82659e+07 -1.79311e-08 2.27819e+06 5.33272e-09 3.59602e+07)
(-4.23629e+06 -6.11937e+06 2.88708e-08 -6.91568e+07 3.63149e-08 -2.09622e+07)
(9.03297e+07 -3.03772e+07 3.61135e-08 -2.67269e+07 2.08514e-08 1.87471e+07)
(1.08043e+08 -1.9186e+07 -4.51145e-08 -3.60218e+07 -1.75972e-08 2.10509e+07)
(9.25541e+07 -827085 -1.65076e-08 3.15777e+07 -2.08403e-09 3.71691e+07)
(9.35836e+07 -180248 -1.39578e-08 121782 -6.23912e-09 2.81041e+07)
(1.44345e+08 -6.17934e+06 3.23484e-08 -2.67218e+07 1.49621e-08 3.55374e+07)
(9.48636e+07 -6.08762e+06 3.30466e-09 7.40068e+06 9.67478e-09 3.04538e+07)
(7.33238e+07 -2.30043e+07 0 1.22741e+07 0 2.56686e+07)
(9.18248e+07 -1.32087e+07 -7.60125e-09 1.54472e+07 5.05244e-09 3.18642e+07)
(9.12991e+07 -1.33219e+07 1.07188e-08 1.54621e+07 -1.3692e-09 3.23693e+07)
(8.90455e+07 -1.79858e+07 -2.0757e-08 1.39576e+07 -6.54146e-09 3.05005e+07)
(1.2555e+08 -2.43671e+07 -2.87142e-08 -1.12069e+07 -1.33905e-08 3.30121e+07)
(1.79286e+08 1.54774e+07 -9.64179e-08 -1.05454e+07 -8.49294e-08 5.09225e+07)
(8.00367e+07 -2.24958e+07 -1.37336e-08 1.2641e+07 1.21278e-09 2.78643e+07)
(9.35409e+07 -1.43564e+06 0 1.19843e+07 0 3.16557e+07)
(9.37006e+07 -4.25844e+06 1.24354e-08 1.51962e+07 3.69241e-09 3.2857e+07)
(-7.36901e+06 1.99686e+07 -1.1659e-08 -1.10515e+08 -3.71034e-09 -3.60111e+07)
(1.2663e+08 -2.62264e+07 2.46381e-08 -3.76387e+06 9.14884e-09 3.67723e+07)
(4.53289e+07 -2.39864e+07 0 1.02613e+06 0 1.38224e+07)
(1.00522e+08 -3.92385e+06 0 664480 0 3.03862e+07)
(1.59517e+08 -1.33464e+07 1.43345e-09 -1.65344e+06 6.40997e-09 4.72046e+07)
(7.65533e+07 -6.31308e+06 0 1.9608e+07 0 2.8529e+07)
(1.93787e+08 1.4319e+07 -9.03845e-09 -9.97416e+06 -1.6761e-08 6.37179e+07)
(8.68775e+07 -9.73488e+06 -1.77984e-10 1.96861e+07 6.82906e-10 3.23154e+07)
(3.74806e+07 -2.11392e+07 -8.3531e-09 -4.74776e+07 3.92107e-08 -2.71024e+06)
(4.60597e+07 -2.22236e+07 -8.72554e-09 4.8704e+06 -1.85643e-09 1.54357e+07)
(6.47853e+06 -1.53315e+07 -3.14994e-08 -4.66973e+07 -1.32513e-08 -1.15249e+07)
(1.68777e+08 8.46848e+06 5.94121e-08 -1.61843e+07 3.20532e-08 4.64525e+07)
(4.69536e+07 -2.06697e+07 9.78583e-09 5.78029e+06 7.16091e-10 1.55741e+07)
(8.80278e+07 -1.77871e+06 7.80066e-09 2.35977e+07 6.09412e-09 3.35689e+07)
(9.21652e+07 -4.4151e+06 4.93513e-09 2.61803e+07 2.19201e-09 3.54776e+07)
(9.29294e+07 -2.93428e+06 1.06648e-08 2.88715e+07 2.56795e-09 3.63925e+07)
(5.61352e+07 -2.02307e+07 -9.76052e-09 1.03424e+07 1.0972e-10 2.02469e+07)
(7.97301e+07 -2.48617e+07 -1.83451e-08 1.08195e+07 -8.69761e-09 2.73514e+07)
(1.77211e+08 -4.29e+06 5.01722e-08 -2.60427e+06 4.34941e-08 5.23058e+07)
(5.62634e+07 -1.91356e+07 1.08441e-08 1.14917e+07 3.00471e-09 1.91478e+07)
(1.42293e+08 -4.41214e+06 -1.24127e-08 -303149 -1.07974e-08 4.18495e+07)
(2.00788e+08 2.95704e+07 -2.84194e-08 -102684 -1.15271e-08 6.68765e+07)
(2.04641e+08 3.63298e+06 -5.47731e-08 326464 -4.60191e-08 7.63915e+07)
(9.6419e+07 -1.21226e+06 -2.3527e-08 150351 -8.45104e-09 2.91677e+07)
(8.90402e+07 -1.31388e+06 -1.16486e-08 2.46076e+07 -6.04149e-10 3.39147e+07)
(1.17208e+08 -1.16542e+07 -6.49389e-08 1.25299e+06 -5.99886e-09 3.56014e+07)
(1.0236e+08 -3.11888e+07 -2.32587e-08 -922438 -1.10701e-08 2.97965e+07)
(2.13526e+08 2.78291e+07 8.00618e-08 1.22816e+07 6.97059e-08 7.66045e+07)
(1.69767e+08 1.94525e+07 1.60659e-08 2.46466e+07 1.43358e-08 5.84786e+07)
(6.70359e+07 -1.213e+06 1.35907e-08 1.89714e+07 2.58952e-09 2.56562e+07)
(8.88459e+07 -2.93699e+07 1.7238e-09 5.63749e+06 3.37295e-09 2.80724e+07)
(8.72422e+07 -2.96541e+07 1.22972e-08 5.91286e+06 5.04885e-10 2.79307e+07)
(9.55482e+07 -6.36268e+06 4.59076e-09 5.73257e+06 1.13715e-08 3.06326e+07)
(7.52143e+07 -2.95182e+07 3.91157e-08 -3.28841e+07 2.24319e-08 1.29307e+07)
(9.25814e+07 -2.04963e+07 -2.77456e-08 -3.58162e+07 -3.33941e-08 1.7967e+07)
(9.29718e+07 -391943 1.71446e-08 3.31326e+07 1.93671e-09 3.76834e+07)
(9.33234e+07 -23030.1 1.08481e-08 33311.1 7.64333e-09 2.80469e+07)
(2.27586e+08 3.2414e+07 2.96073e-08 3.05438e+07 2.30322e-08 7.6134e+07)
(1.29145e+08 -1.15508e+07 0 834643 0 3.92406e+07)
(-4.53296e+06 -5.42704e+06 -4.84363e-08 -7.04655e+07 -4.52406e-08 -2.1799e+07)
(9.52302e+07 -4.72094e+06 1.87963e-08 4.67232e+06 -3.70416e-09 3.01668e+07)
(8.77799e+07 -5.07586e+06 -2.14653e-09 2.24307e+07 1.66482e-09 3.29736e+07)
(1.10958e+08 -2.48463e+07 2.89912e-08 3.50398e+06 2.22732e-08 3.39768e+07)
(8.60648e+07 -2.60683e+07 3.82716e-08 9.64514e+06 4.666e-09 2.90991e+07)
(4.51435e+07 -1.59961e+07 -1.19346e-08 9.0503e+06 -1.94512e-09 1.69111e+07)
(7.07802e+07 -2.47489e+07 1.0277e-08 1.0562e+07 -9.3394e-10 2.39562e+07)
(6.77713e+07 -2.15322e+07 1.47087e-08 1.2712e+07 -3.44285e-10 2.43506e+07)
(-9.47351e+06 1.27607e+07 -5.96911e-10 -1.26125e+08 -1.39615e-09 -4.10664e+07)
(6.85489e+07 -2.37437e+07 1.59076e-08 1.09236e+07 2.68828e-09 2.37344e+07)
(1.81647e+08 -1.44287e+07 3.73421e-08 -1.13938e+07 4.46109e-08 5.21886e+07)
(1.25908e+08 -2.54912e+07 -3.02434e-08 -6.00428e+06 -1.35343e-08 3.53452e+07)
(1.22732e+08 -2.71512e+07 -3.0343e-08 -6.5559e+06 -1.36698e-08 3.57324e+07)
(6.16255e+07 -1.80153e+07 -1.54555e-08 1.39441e+07 1.24774e-09 2.26708e+07)
(1.36715e+08 -1.7843e+07 7.31141e-10 -1.55357e+07 1.06807e-09 3.641e+07)
(1.13298e+08 -1.012e+07 -4.35453e-08 748902 -1.86448e-08 3.48216e+07)
(9.23233e+07 -833570 2.69275e-08 2.96078e+07 -2.85153e-09 3.6646e+07)
(9.3783e+07 -223609 -3.63203e-09 173705 -1.36255e-09 2.81997e+07)
(1.67511e+08 1.37427e+07 -3.39516e-08 2.48832e+07 -1.44933e-08 5.80198e+07)
(1.28132e+08 -1.92981e+07 -3.78275e-08 812205 -3.40386e-09 3.95979e+07)
(1.25485e+08 -2.49566e+07 -3.99215e-09 -1.04746e+07 -9.7459e-10 3.56397e+07)
(1.8937e+07 -1.13564e+07 3.52328e-08 -5.73538e+07 1.30267e-08 -1.36621e+07)
(8.36358e+07 -3.33254e+07 -1.5833e-08 -1.59814e+07 -4.73602e-09 2.10306e+07)
(1.50301e+08 -7.16462e+06 3.03318e-08 -1.80799e+07 1.56761e-08 4.00661e+07)
(1.58539e+08 -1.4694e+07 -3.70496e-08 -2.9778e+06 -2.28447e-08 4.68997e+07)
(1.32576e+08 -1.67252e+07 1.92636e-08 494412 2.43723e-08 3.95859e+07)
(9.33668e+07 -5.11693e+06 1.17051e-08 1.7951e+07 1.40419e-09 3.37491e+07)
(-9.54292e+06 6.27267e+06 1.04261e-08 -1.2763e+08 7.65367e-09 -4.21805e+07)
(8.18891e+07 -2.62313e+07 1.80226e-08 9.81903e+06 6.00053e-10 2.77061e+07)
(1.54326e+08 -1.34526e+07 -5.42899e-09 -7.1581e+06 -3.90052e-09 4.33299e+07)
(2.72542e+08 -2.85127e+06 -2.03456e-08 7.16335e+07 -1.54661e-08 1.32192e+08)
(9.26286e+06 -7.1486e+06 9.04567e-09 -2.02925e+07 7.88082e-09 -3.70323e+06)
(9.35798e+07 -1.34421e+06 -1.35205e-08 1.34817e+07 -4.2947e-09 3.23231e+07)
(9.3741e+07 -3.25008e+06 -5.09367e-09 1.61629e+07 4.59389e-10 3.31046e+07)
(9.60042e+07 -6.45071e+06 -1.66339e-08 5.01945e+06 -4.81932e-09 3.06044e+07)
(1.28179e+08 -1.03773e+07 -5.80952e-09 816870 -8.10165e-09 3.92765e+07)
(6.58922e+06 -9.13064e+06 0 -2.06648e+07 0 -3.95806e+06)
(6.85224e+07 -2.29195e+07 1.94782e-08 1.17596e+07 5.36857e-09 2.439e+07)
(1.80105e+08 3.51821e+07 3.39032e-08 6.3696e+06 2.84698e-08 5.74716e+07)
(1.67172e+08 3.12751e+07 3.57311e-08 -3.78754e+06 7.00841e-08 5.10153e+07)
(1.00573e+08 -3.15049e+07 6.22285e-09 -6.05832e+06 3.18125e-09 2.77314e+07)
(1.00725e+08 -3.18124e+07 3.91111e-09 -5.21572e+06 2.54027e-09 2.93851e+07)
(9.35978e+07 -2.69313e+06 -1.79565e-08 1.14528e+07 -6.74776e-09 3.12806e+07)
(1.63587e+08 -8.65003e+06 1.23875e-08 -311381 1.9609e-08 4.8158e+07)
(7.24672e+07 -2.80449e+07 -4.91698e-08 6.7766e+06 -1.03176e-08 2.44156e+07)
(9.52452e+07 -2.8699e+06 4.1418e-09 2.16129e+06 9.67319e-09 2.94671e+07)
(4.57563e+07 -2.97332e+07 2.38234e-08 -1.05755e+07 1.16967e-08 1.06829e+07)
(4.48443e+07 -2.94908e+07 1.33463e-08 -2.865e+07 6.37764e-09 3.86649e+06)
(1.29567e+08 -1.99968e+07 2.66234e-08 573778 -4.00244e-09 3.82594e+07)
(1.34278e+08 -1.0934e+07 3.86893e-08 -2.97922e+07 3.05881e-08 3.13583e+07)
(4.04551e+07 -3.08402e+07 3.02355e-08 -2.8858e+07 1.56248e-08 4.25939e+06)
(9.19463e+07 -4.61823e+06 -2.08784e-09 2.58983e+07 2.28838e-09 3.51641e+07)
(9.1383e+07 -5.01858e+06 -2.16422e-08 2.48145e+07 -1.8847e-09 3.45311e+07)
(1.76428e+08 6.77008e+06 1.41104e-07 -2.37674e+07 1.3305e-07 4.64385e+07)
(1.7689e+08 -1.98047e+06 1.29583e-08 -5.15707e+06 2.67221e-09 5.15127e+07)
(5.48414e+07 -3.07378e+07 7.14505e-09 -4.40614e+06 2.8215e-09 1.50296e+07)
(8.12203e+07 -2.55454e+07 -1.77951e-08 1.07763e+07 -8.1622e-09 2.72993e+07)
(1.80093e+08 -1.0935e+07 -1.89918e-08 -1.45307e+07 1.47089e-09 4.91911e+07)
(9.15359e+07 -4.22884e+06 6.33082e-09 2.63276e+07 -8.71877e-10 3.53118e+07)
(3.37904e+07 -1.312e+07 1.56329e-08 3.23375e+06 3.85765e-09 1.03209e+07)
(3.39804e+07 -1.34605e+07 0 5.13118e+06 0 1.2495e+07)
(1.05275e+08 -1.33097e+07 -9.17057e-09 3.0983e+06 -1.16631e-08 3.26474e+07)
(8.21412e+07 -1.11179e+07 -2.00647e-08 1.87274e+07 -5.47508e-09 3.02194e+07)
(6.82945e+07 -2.10494e+07 5.94463e-09 1.30492e+07 -3.70769e-10 2.45681e+07)
(8.85785e+07 -1.39827e+07 6.6014e-10 1.6494e+07 6.05282e-10 3.16755e+07)
(9.34971e+07 -354532 -2.91371e-09 3.50805e+07 -1.13271e-09 3.85032e+07)
(9.36371e+07 45037.9 -2.94951e-09 55989.8 -7.98178e-09 2.81089e+07)
(5.16888e+07 -1.89323e+07 2.5515e-08 1.01583e+07 2.05044e-09 1.82061e+07)
(6.7733e+07 -318659 1.64658e-09 1.92829e+07 1.27526e-09 2.60127e+07)
(8.02527e+07 -2.51599e+07 -1.48235e-08 -3.94698e+07 -2.42499e-08 1.13103e+07)
(8.07673e+07 -3.17728e+07 5.95098e-09 114806 3.20696e-09 2.38438e+07)
(5.90351e+07 -1.07129e+07 4.66225e-09 1.63672e+07 -1.58811e-09 2.31559e+07)
(2.25216e+07 -1.91018e+07 -6.19652e-09 -1.29717e+07 -7.92076e-10 2.44568e+06)
(4.46992e+07 -7.83722e+06 -7.47026e-09 1.24495e+07 -4.75158e-10 1.69452e+07)
(3.95465e+07 -9.51546e+06 6.0931e-09 8.46223e+06 9.74882e-10 1.40597e+07)
(3.68553e+07 -8.39393e+06 7.01357e-09 8.69929e+06 1.20245e-09 1.44034e+07)
(6.79023e+07 -1.95139e+07 1.06053e-08 1.3933e+07 1.90471e-09 2.42099e+07)
(1.06398e+08 -1.2183e+07 2.60805e-08 2.82423e+06 1.40345e-08 3.20647e+07)
(8.13375e+07 -1.00228e+07 1.09192e-08 1.88626e+07 2.06546e-09 3.07225e+07)
(6.55426e+07 -3.22985e+07 -1.18491e-08 -9.00651e+06 -2.83612e-09 1.68226e+07)
(1.05646e+08 -1.37387e+07 3.58078e-08 3.25727e+06 -4.41902e-09 3.26287e+07)
(8.18885e+07 -1.1495e+07 -4.70429e-09 1.84199e+07 -6.06682e-09 3.00549e+07)
(9.94639e+07 -2.98781e+07 1.47427e-08 2.67477e+06 7.80508e-09 3.09829e+07)
(1.02373e+08 -2.9905e+07 7.4362e-08 2.18739e+06 2.74946e-08 3.08613e+07)
(1.94084e+08 3.7875e+06 -4.20652e-08 -718226 -3.79146e-08 5.75002e+07)
(1.07543e+08 -1.95633e+07 -1.29554e-08 4.22211e+06 2.87182e-09 3.37819e+07)
(9.39222e+07 -3.54598e+06 -5.81895e-09 7.38222e+06 -5.56106e-09 3.01181e+07)
(6.74294e+07 -2.03717e+07 -8.6547e-09 1.32962e+07 -2.25968e-10 2.4476e+07)
(3.61243e+07 -556935 -8.14951e-11 9.27258e+06 1.02146e-09 1.37315e+07)
(9.92659e+07 -1.00228e+07 -1.65551e-08 4.51627e+06 -3.0048e-09 3.13869e+07)
(4.92298e+07 -1.28184e+07 -1.76324e-08 1.24776e+07 -6.89341e-10 1.86343e+07)
(5.18743e+07 -3.09908e+07 2.0438e-08 -1.08572e+07 7.09225e-09 1.11428e+07)
(4.73788e+07 -3.0219e+07 -2.95047e-09 -1.14866e+07 -2.06581e-09 1.15546e+07)
(1.2643e+08 -2.09908e+07 -2.64713e-08 577735 -3.29792e-09 3.82556e+07)
(1.57545e+08 -4.53435e+07 1.37653e-08 2.47415e+07 -4.73827e-08 9.86629e+07)
(9.45852e+07 -5.48094e+06 2.22397e-08 6.93335e+06 4.46585e-09 3.05596e+07)
(1.99673e+08 408099 4.79374e-09 -296066 3.04763e-09 5.91956e+07)
(2.01899e+08 -1.38403e+06 -1.72823e-10 -360930 3.06631e-10 6.02793e+07)
(1.24982e+08 -1.78117e+07 -7.30895e-09 -2.54628e+07 7.97753e-09 2.89884e+07)
(3.09143e+07 -2.33494e+07 2.5343e-08 -9.03918e+06 8.93851e-09 6.68512e+06)
(9.29395e+07 -578058 1.29973e-09 3.13716e+07 -5.14231e-10 3.72089e+07)
(9.38265e+07 -62890.9 8.52386e-09 100260 -1.33009e-08 2.82258e+07)
(6.18189e+07 -3.01031e+07 -2.79565e-10 961317 -5.933e-11 1.90958e+07)
(1.10586e+08 -1.94785e+07 -6.88258e-10 -3.32174e+07 2.50624e-09 2.2154e+07)
(3.14913e+07 -2.09818e+07 -2.67699e-08 -6.72414e+06 -7.80258e-09 6.92616e+06)
(5.37739e+07 -1.23654e+07 7.68823e-08 -2.2837e+07 3.74644e-08 1.36791e+07)
(1.20572e+08 -2.17301e+07 4.03287e-08 2.23196e+06 1.43912e-08 3.67106e+07)
(1.07845e+08 -1.17854e+07 1.33418e-08 2.188e+06 -1.33489e-08 3.33653e+07)
(8.00393e+07 -9.43954e+06 0 1.89145e+07 0 2.9428e+07)
(1.25297e+08 -1.93661e+07 -4.33576e-08 -2.48184e+07 -1.48259e-08 3.14103e+07)
(1.06956e+07 -1.92937e+07 -2.77444e-08 -4.10484e+07 -2.44012e-09 -9.1417e+06)
(9.33298e+07 -924436 -9.86513e-09 3.40378e+07 -3.45338e-10 3.82379e+07)
(9.37316e+07 -94519.6 3.02992e-08 250703 2.36372e-09 2.81908e+07)
(1.87812e+08 3.53188e+07 8.1787e-08 -5.46387e+06 8.21108e-08 5.29847e+07)
(1.33898e+08 -9.88083e+06 6.58336e-08 -2.98114e+07 3.69055e-08 3.05959e+07)
(6.60996e+07 -5.16455e+06 1.20193e-09 1.82771e+07 -4.43659e-09 2.56601e+07)
(1.46565e+08 -4.13741e+06 -3.93044e-08 -2.59404e+07 -2.37907e-08 3.62108e+07)
(1.93459e+08 3.54159e+07 -5.19927e-08 1.2401e+07 -4.78529e-08 6.22556e+07)
(8.26929e+07 -3.0206e+07 6.13467e-09 4.66976e+06 3.54094e-09 2.59552e+07)
(8.72907e+07 -5.70427e+06 -4.61379e-09 2.21462e+07 -5.72383e-09 3.28424e+07)
(1.53541e+08 -1.37431e+07 -2.8645e-08 -7.25632e+06 -1.64913e-08 4.50308e+07)
(-1.0198e+07 -1.40303e+06 -7.27266e-09 -8.67739e+07 -1.69735e-08 -2.89714e+07)
(1.02682e+08 -2.04957e+07 1.52555e-08 5.95069e+06 -4.56766e-10 3.29289e+07)
(1.82359e+08 3.27066e+07 -1.59234e-08 1.46453e+07 -1.50519e-08 5.93592e+07)
(1.27565e+08 -1.1008e+07 8.20705e-09 907945 8.45327e-09 3.7661e+07)
(1.88636e+08 3.80432e+07 1.67197e-08 -136065 3.48701e-08 5.5119e+07)
(9.15435e+07 -3.68889e+06 -1.5972e-09 2.59609e+07 -5.61344e-11 3.4969e+07)
(1.93571e+08 -3.04871e+06 2.141e-08 -905454 1.27973e-08 5.80947e+07)
(1.442e+08 -1.73732e+07 -3.66157e-08 -9.16993e+06 -2.14077e-08 4.13204e+07)
(1.49061e+08 -1.73557e+07 -2.11132e-08 -4.41174e+06 -1.12284e-08 4.31554e+07)
(9.34629e+07 -7.75189e+06 0 1.58607e+07 0 3.24138e+07)
(1.78622e+08 1.5856e+07 -1.7171e-08 -8.5293e+06 -2.93351e-08 5.06433e+07)
(9.97026e+07 -1.09975e+07 3.02677e-08 4.66746e+06 2.79815e-09 3.17176e+07)
(1.08552e+08 -1.93176e+07 -4.65741e-08 4.02789e+06 -7.50781e-09 3.36498e+07)
(-1.10633e+07 1.61504e+06 2.97142e-09 -1.16567e+08 -6.4237e-09 -3.88608e+07)
(1.0287e+08 -1.97825e+07 -1.81475e-08 5.86476e+06 2.63181e-09 3.24426e+07)
(9.38249e+07 -287756 5.10476e-10 2.07454e+07 -1.67158e-10 3.42795e+07)
(-1.23716e+07 2.15563e+06 7.24191e-09 -1.02357e+08 1.02592e-08 -3.70682e+07)
(1.08265e+08 -2.5206e+07 8.09566e-09 4.05954e+06 -3.34138e-09 3.42813e+07)
(1.73741e+08 -4.91123e+07 -8.55647e-08 2.78671e+07 -3.651e-08 7.6298e+07)
(1.91704e+07 -1.80276e+07 1.62298e-08 -1.65204e+07 7.21389e-09 622138)
(1.94328e+08 2.44386e+07 1.89704e-09 -6.95007e+06 1.19239e-08 6.19598e+07)
(1.68962e+08 8.61148e+06 5.85747e-09 -1.46333e+07 -3.2277e-08 4.56391e+07)
(1.0957e+07 -1.50168e+07 4.45806e-08 -5.46727e+07 2.64311e-08 -1.30704e+07)
(1.9342e+07 -2.75867e+06 5.59526e-10 -2.5825e+06 1.31677e-09 5.85058e+06)
(7.3883e+07 -2.428e+07 8.98252e-08 -3.94042e+07 1.05761e-08 1.12512e+07)
(1.47811e+08 -1.86206e+07 2.36149e-08 -2.06432e+06 1.19257e-08 4.3999e+07)
(1.07905e+08 -1.81306e+07 -5.82305e-09 4.09203e+06 1.09733e-08 3.33984e+07)
(9.35431e+07 -2.05654e+07 -4.46546e-08 -3.70391e+07 -3.67004e-08 1.5731e+07)
(1.78754e+08 1.89825e+07 -2.12263e-08 -1.15026e+07 2.78388e-09 4.88402e+07)
(1.82991e+08 -2.87291e+07 4.51933e-08 2.67106e+06 3.11916e-08 5.272e+07)
(9.51892e+07 -2.00236e+06 3.78538e-08 1.20753e+06 1.35818e-08 2.91858e+07)
(9.51363e+07 -1.83441e+06 -1.35978e-09 1.21061e+06 -5.6607e-09 2.88742e+07)
(3.43161e+07 -1.55983e+07 -1.592e-08 2.00841e+06 -3.37143e-09 1.07027e+07)
(3.18502e+07 -1.4794e+07 -2.86999e-09 2.48599e+06 -3.72546e-10 1.09031e+07)
(1.83614e+08 1.92068e+07 0 2.29867e+07 0 6.19744e+07)