/*--------------------------------*- C++ -*----------------------------------*\
| =========                 |                                                 |
| \\      /  F ield         | OpenFOAM: The Open Source CFD Toolbox           |
|  \\    /   O peration     | Version:  v2012                                 |
|   \\  /    A nd           | Website:  www.openfoam.com                      |
|    \\/     M anipulation  |                                                 |
\*---------------------------------------------------------------------------*/
FoamFile
{
    version     2.0;
    format      ascii;
    class       pointVectorField;
    location    "4";
    object      pointD;
}
// * * * * * * * * * * * * * * * * * * * * * * * * * * * * * * * * * * * * * //

dimensions      [0 1 0 0 0 0 0];


internalField   nonuniform List<vector> 
32562
(
(0.0014172 0 0)
(0.00202362 0 0)
(0.00186718 -0.000186713 0)
(0 -0.000998493 0)
(0 -0.000769113 0)
(0.00146492 0 0)
(0 -0.000919774 0)
(0.000858191 -0.000319379 0)
(0.000426452 -0.000592588 0)
(0.00195208 -5.82218e-05 0)
(0.0010317 -0.000465884 0)
(0.0010317 -0.000465884 0)
(0.000858191 -0.000319379 0)
(0 -0.000919774 0)
(0 -0.000769113 0)
(0.0014172 0 0)
(0.00146492 0 0)
(0.00202362 0 0)
(0.00195208 -5.82218e-05 0)
(0.00186718 -0.000186713 0)
(0.000426452 -0.000592588 0)
(0 -0.000998493 0)
(1.7384e-05 -0.000919109 0)
(3.47998e-05 -0.000917195 0)
(5.22756e-05 -0.000914031 0)
(6.98407e-05 -0.000909629 0)
(8.75237e-05 -0.000904009 0)
(0.000105352 -0.000897197 0)
(0.00012335 -0.000889225 0)
(0.000141544 -0.000880128 0)
(0.000159955 -0.000869949 0)
(0.000178602 -0.000858732 0)
(0.000197506 -0.000846528 0)
(0.00021668 -0.000833387 0)
(0.000236138 -0.000819366 0)
(0.000255893 -0.000804523 0)
(0.000275951 -0.000788916 0)
(0.000296319 -0.000772608 0)
(0.000317001 -0.000755659 0)
(0.000337998 -0.000738134 0)
(0.000359309 -0.000720094 0)
(0.000380932 -0.000701602 0)
(0.000402859 -0.000682719 0)
(0.000425085 -0.000663508 0)
(0.0004476 -0.000644028 0)
(0.000470392 -0.000624337 0)
(0.000493448 -0.000604491 0)
(0.000516754 -0.000584545 0)
(0.000540294 -0.000564552 0)
(0.00056405 -0.000544562 0)
(0.000588002 -0.000524622 0)
(0.000612132 -0.000504779 0)
(0.000636417 -0.000485075 0)
(0.000660835 -0.00046555 0)
(0.000685363 -0.000446243 0)
(0.000709978 -0.000427186 0)
(0.000734655 -0.000408413 0)
(0.000759369 -0.00038995 0)
(0.000784099 -0.00037182 0)
(0.000808822 -0.000354038 0)
(0.000833522 -0.000336594 0)
(0.000882551 -0.0003032 0)
(0.000906821 -0.000287374 0)
(0.000930954 -0.000271955 0)
(0.000954912 -0.000256974 0)
(0.00097866 -0.000242453 0)
(0.00100217 -0.000228406 0)
(0.0010254 -0.000214844 0)
(0.00104833 -0.000201772 0)
(0.00107093 -0.000189197 0)
(0.00109316 -0.000177119 0)
(0.001115 -0.00016554 0)
(0.00113642 -0.000154457 0)
(0.00115739 -0.000143869 0)
(0.00117787 -0.000133769 0)
(0.00119785 -0.000124153 0)
(0.00121729 -0.000115012 0)
(0.00123617 -0.000106337 0)
(0.00125446 -9.81189e-05 0)
(0.00127213 -9.0346e-05 0)
(0.00128917 -8.30058e-05 0)
(0.00130554 -7.60849e-05 0)
(0.00132122 -6.95686e-05 0)
(0.00133619 -6.34415e-05 0)
(0.00135043 -5.76871e-05 0)
(0.00136391 -5.2288e-05 0)
(0.00137662 -4.72261e-05 0)
(0.00138854 -4.24824e-05 0)
(0.00139965 -3.80372e-05 0)
(0.00140994 -3.38702e-05 0)
(0.00141938 -2.99603e-05 0)
(0.00142797 -2.6286e-05 0)
(0.00143568 -2.28252e-05 0)
(0.00144252 -1.95551e-05 0)
(0.00144847 -1.64526e-05 0)
(0.00145351 -1.34943e-05 0)
(0.00145765 -1.06561e-05 0)
(0.00146086 -7.9138e-06 0)
(0.00146316 -5.24239e-06 0)
(0.00146452 -2.61563e-06 0)
(0.00142008 0 0)
(0.00142277 0 0)
(0.00142527 0 0)
(0.00142759 0 0)
(0.00142974 0 0)
(0.00143174 0 0)
(0.0014336 0 0)
(0.00143533 0 0)
(0.00143694 0 0)
(0.00143844 0 0)
(0.00143985 0 0)
(0.00144116 0 0)
(0.0014424 0 0)
(0.00144356 0 0)
(0.00144466 0 0)
(0.0014457 0 0)
(0.00144669 0 0)
(0.00144763 0 0)
(0.00144854 0 0)
(0.00144941 0 0)
(0.00145025 0 0)
(0.00145106 0 0)
(0.00145186 0 0)
(0.00145264 0 0)
(0.0014534 0 0)
(0.00145415 0 0)
(0.0014549 0 0)
(0.00145564 0 0)
(0.00145638 0 0)
(0.00145712 0 0)
(0.00145786 0 0)
(0.00145861 0 0)
(0.00145936 0 0)
(0.00146012 0 0)
(0.00146089 0 0)
(0.00146167 0 0)
(0.00146247 0 0)
(0.00146327 0 0)
(0.00146409 0 0)
(0.00146718 0 0)
(0.00146952 0 0)
(0.00147198 0 0)
(0.00147457 0 0)
(0.00147729 0 0)
(0.00148017 0 0)
(0.00148319 0 0)
(0.00148637 0 0)
(0.00148971 0 0)
(0.0014932 0 0)
(0.00149686 0 0)
(0.00150067 0 0)
(0.00150465 0 0)
(0.00150878 0 0)
(0.00151306 0 0)
(0.00151751 0 0)
(0.0015221 0 0)
(0.00152685 0 0)
(0.00153175 0 0)
(0.0015368 0 0)
(0.00154199 0 0)
(0.00154733 0 0)
(0.00155281 0 0)
(0.00155844 0 0)
(0.0015642 0 0)
(0.00157009 0 0)
(0.00157612 0 0)
(0.00158228 0 0)
(0.00158857 0 0)
(0.00159499 0 0)
(0.00160154 0 0)
(0.0016082 0 0)
(0.00161499 0 0)
(0.0016219 0 0)
(0.00162892 0 0)
(0.00163605 0 0)
(0.0016433 0 0)
(0.00165066 0 0)
(0.00165813 0 0)
(0.0016657 0 0)
(0.00167337 0 0)
(0.00168114 0 0)
(0.00168902 0 0)
(0.00169699 0 0)
(0.00170505 0 0)
(0.0017132 0 0)
(0.00172145 0 0)
(0.00172978 0 0)
(0.00173819 0 0)
(0.00174669 0 0)
(0.00175527 0 0)
(0.00176392 0 0)
(0.00177264 0 0)
(0.00178144 0 0)
(0.00179031 0 0)
(0.00179924 0 0)
(0.00180823 0 0)
(0.00181729 0 0)
(0.0018264 0 0)
(0.00183556 0 0)
(0.00184477 0 0)
(0.00185403 0 0)
(0.00186333 0 0)
(0.00187268 0 0)
(0.00188205 0 0)
(0.00189146 0 0)
(0.00190089 0 0)
(0.00191035 0 0)
(0.00191982 0 0)
(0.0019293 0 0)
(0.0019388 0 0)
(0.00194829 0 0)
(0.00195778 0 0)
(0.00196726 0 0)
(0.00197673 0 0)
(0.00198617 0 0)
(0.00199559 0 0)
(0.00200497 0 0)
(0.00201431 0 0)
(0.00202351 -7.21906e-07 0)
(0.00202333 -1.45652e-06 0)
(0.00202305 -2.19909e-06 0)
(0.00202266 -2.95112e-06 0)
(0.00202217 -3.7153e-06 0)
(0.00202157 -4.49465e-06 0)
(0.00202087 -5.29221e-06 0)
(0.00202007 -6.11101e-06 0)
(0.00201916 -6.95406e-06 0)
(0.00201815 -7.82431e-06 0)
(0.00201704 -8.72464e-06 0)
(0.00201583 -9.65791e-06 0)
(0.00201452 -1.06269e-05 0)
(0.00201312 -1.16343e-05 0)
(0.00201162 -1.26828e-05 0)
(0.00201004 -1.3775e-05 0)
(0.00200836 -1.49134e-05 0)
(0.0020066 -1.61004e-05 0)
(0.00200475 -1.73384e-05 0)
(0.00200282 -1.86297e-05 0)
(0.00200081 -1.99764e-05 0)
(0.00199873 -2.13806e-05 0)
(0.00199657 -2.28444e-05 0)
(0.00199435 -2.43696e-05 0)
(0.00199205 -2.5958e-05 0)
(0.0019897 -2.76112e-05 0)
(0.00198728 -2.93309e-05 0)
(0.00198481 -3.11185e-05 0)
(0.00198229 -3.29752e-05 0)
(0.00197971 -3.49024e-05 0)
(0.00197709 -3.69011e-05 0)
(0.00197443 -3.89722e-05 0)
(0.00197173 -4.11167e-05 0)
(0.001969 -4.33351e-05 0)
(0.00196623 -4.5628e-05 0)
(0.00196344 -4.79959e-05 0)
(0.00196063 -5.04392e-05 0)
(0.00195779 -5.2958e-05 0)
(0.00195494 -5.55525e-05 0)
(0.00195082 -5.9426e-05 0)
(0.00194955 -6.06446e-05 0)
(0.00194829 -6.18777e-05 0)
(0.00194702 -6.31254e-05 0)
(0.00194575 -6.43874e-05 0)
(0.00194448 -6.56638e-05 0)
(0.00194322 -6.69546e-05 0)
(0.00194195 -6.82595e-05 0)
(0.00194068 -6.95786e-05 0)
(0.00193942 -7.09118e-05 0)
(0.00193816 -7.22589e-05 0)
(0.0019369 -7.36199e-05 0)
(0.00193564 -7.49946e-05 0)
(0.00193439 -7.63829e-05 0)
(0.00193313 -7.77846e-05 0)
(0.00193189 -7.91997e-05 0)
(0.00193064 -8.06281e-05 0)
(0.0019294 -8.20694e-05 0)
(0.00192817 -8.35237e-05 0)
(0.00192694 -8.49907e-05 0)
(0.00192571 -8.64703e-05 0)
(0.00192449 -8.79623e-05 0)
(0.00192328 -8.94665e-05 0)
(0.00192207 -9.09827e-05 0)
(0.00192087 -9.25108e-05 0)
(0.00191967 -9.40505e-05 0)
(0.00191848 -9.56017e-05 0)
(0.0019173 -9.71641e-05 0)
(0.00191612 -9.87375e-05 0)
(0.00191495 -0.000100322 0)
(0.00191379 -0.000101916 0)
(0.00191264 -0.000103521 0)
(0.00191149 -0.000105136 0)
(0.00191036 -0.000106761 0)
(0.00190923 -0.000108396 0)
(0.00190811 -0.000110039 0)
(0.001907 -0.000111692 0)
(0.0019059 -0.000113353 0)
(0.0019048 -0.000115023 0)
(0.00190372 -0.000116701 0)
(0.00190264 -0.000118387 0)
(0.00190158 -0.00012008 0)
(0.00190052 -0.000121781 0)
(0.00189948 -0.000123488 0)
(0.00189844 -0.000125202 0)
(0.00189741 -0.000126922 0)
(0.0018964 -0.000128648 0)
(0.00189539 -0.00013038 0)
(0.00189439 -0.000132117 0)
(0.0018934 -0.000133859 0)
(0.00189242 -0.000135605 0)
(0.00189146 -0.000137355 0)
(0.0018905 -0.00013911 0)
(0.00188955 -0.000140867 0)
(0.0018886 -0.000142628 0)
(0.00188767 -0.000144392 0)
(0.00188675 -0.000146158 0)
(0.00188584 -0.000147925 0)
(0.00188493 -0.000149695 0)
(0.00188403 -0.000151466 0)
(0.00188315 -0.000153237 0)
(0.00188226 -0.000155009 0)
(0.00188139 -0.000156782 0)
(0.00188052 -0.000158554 0)
(0.00187966 -0.000160326 0)
(0.00187881 -0.000162097 0)
(0.00187796 -0.000163867 0)
(0.00187712 -0.000165635 0)
(0.00187628 -0.000167402 0)
(0.00187545 -0.000169168 0)
(0.00187461 -0.000170931 0)
(0.00187379 -0.000172692 0)
(0.00187296 -0.000174451 0)
(0.00187213 -0.000176208 0)
(0.00187131 -0.000177963 0)
(0.00187049 -0.000179716 0)
(0.00186966 -0.000181467 0)
(0.00186884 -0.000183217 0)
(0.00186801 -0.000184965 0)
(0.00185442 -0.000189311 0)
(0.00184166 -0.000191914 0)
(0.00182893 -0.000194505 0)
(0.00181622 -0.000197066 0)
(0.00180353 -0.000199577 0)
(0.00179084 -0.000202024 0)
(0.00177815 -0.000204395 0)
(0.00176544 -0.000206681 0)
(0.0017527 -0.000208876 0)
(0.00173993 -0.000210975 0)
(0.00172711 -0.000212976 0)
(0.00171424 -0.000214877 0)
(0.00170129 -0.000216679 0)
(0.00168827 -0.000218384 0)
(0.00167516 -0.000219993 0)
(0.00166195 -0.000221511 0)
(0.00164864 -0.000222941 0)
(0.00163521 -0.000224289 0)
(0.00162166 -0.00022556 0)
(0.00160797 -0.000226759 0)
(0.00159415 -0.000227895 0)
(0.00158019 -0.000228973 0)
(0.00156607 -0.000230001 0)
(0.00155179 -0.000230988 0)
(0.00153735 -0.00023194 0)
(0.00152273 -0.000232868 0)
(0.00150794 -0.00023378 0)
(0.00149296 -0.000234685 0)
(0.00147779 -0.000235593 0)
(0.00146242 -0.000236514 0)
(0.00144685 -0.000237459 0)
(0.00143107 -0.000238437 0)
(0.00141508 -0.000239461 0)
(0.00139888 -0.00024054 0)
(0.00138245 -0.000241688 0)
(0.00136579 -0.000242916 0)
(0.00134891 -0.000244236 0)
(0.00133178 -0.000245661 0)
(0.00131442 -0.000247204 0)
(0.00129682 -0.000248879 0)
(0.00127897 -0.000250699 0)
(0.00126087 -0.000252678 0)
(0.00124251 -0.000254831 0)
(0.0012239 -0.000257172 0)
(0.00120504 -0.000259717 0)
(0.00118592 -0.000262481 0)
(0.00116654 -0.00026548 0)
(0.0011469 -0.000268729 0)
(0.001127 -0.000272246 0)
(0.00110684 -0.000276046 0)
(0.00108642 -0.000280146 0)
(0.00106575 -0.000284562 0)
(0.00104483 -0.000289313 0)
(0.00102366 -0.000294415 0)
(0.00100224 -0.000299884 0)
(0.00098059 -0.000305739 0)
(0.000958706 -0.000311995 0)
(0.000936598 -0.000318668 0)
(0.000914276 -0.000325777 0)
(0.000891749 -0.000333334 0)
(0.00086903 -0.000341357 0)
(0.00084613 -0.00034986 0)
(0.000823064 -0.000358855 0)
(0.000799847 -0.000368356 0)
(0.000776497 -0.000378374 0)
(0.000753031 -0.00038892 0)
(0.000729471 -0.000400001 0)
(0.000705837 -0.000411624 0)
(0.000682154 -0.000423795 0)
(0.000658445 -0.000436516 0)
(0.000634737 -0.000449788 0)
(0.000611058 -0.000463608 0)
(0.000587437 -0.000477971 0)
(0.000563905 -0.000492868 0)
(0.000540493 -0.000508289 0)
(0.000517236 -0.000524218 0)
(0.000494166 -0.000540636 0)
(0.000471319 -0.000557521 0)
(0.000448733 -0.000574847 0)
(0.000410553 -0.000605594 0)
(0.000394844 -0.000618788 0)
(0.000379335 -0.000632146 0)
(0.000364039 -0.000645647 0)
(0.000348968 -0.000659271 0)
(0.000334134 -0.000672997 0)
(0.000319549 -0.000686804 0)
(0.000305225 -0.000700667 0)
(0.000291171 -0.000714563 0)
(0.0002774 -0.000728465 0)
(0.000263919 -0.000742347 0)
(0.000250738 -0.000756181 0)
(0.000237864 -0.000769938 0)
(0.000225304 -0.000783588 0)
(0.000213064 -0.0007971 0)
(0.000201149 -0.000810443 0)
(0.000189561 -0.000823584 0)
(0.000178303 -0.000836491 0)
(0.000167376 -0.00084913 0)
(0.000156778 -0.000861468 0)
(0.000146508 -0.000873471 0)
(0.000136563 -0.000885106 0)
(0.000126936 -0.00089634 0)
(0.000117622 -0.00090714 0)
(0.000108612 -0.000917474 0)
(9.98959e-05 -0.000927309 0)
(9.14633e-05 -0.000936616 0)
(8.33009e-05 -0.000945365 0)
(7.53945e-05 -0.000953528 0)
(6.77285e-05 -0.000961078 0)
(6.02857e-05 -0.00096799 0)
(5.3048e-05 -0.000974241 0)
(4.59956e-05 -0.00097981 0)
(3.91081e-05 -0.000984678 0)
(3.23637e-05 -0.000988828 0)
(2.574e-05 -0.000992247 0)
(1.92136e-05 -0.000994923 0)
(1.27606e-05 -0.00099685 0)
(6.35786e-06 -0.000998029 0)
(0 -0.000997826 0)
(0 -0.000997142 0)
(0 -0.000996443 0)
(0 -0.000995728 0)
(0 -0.000994998 0)
(0 -0.000994254 0)
(0 -0.000993496 0)
(0 -0.000992724 0)
(0 -0.000991939 0)
(0 -0.000991141 0)
(0 -0.000990331 0)
(0 -0.000989508 0)
(0 -0.000988674 0)
(0 -0.000987829 0)
(0 -0.000986972 0)
(0 -0.000986106 0)
(0 -0.000985228 0)
(0 -0.000984342 0)
(0 -0.000983445 0)
(0 -0.00098254 0)
(0 -0.000981626 0)
(0 -0.000980703 0)
(0 -0.000979772 0)
(0 -0.000978834 0)
(0 -0.000977887 0)
(0 -0.000976934 0)
(0 -0.000975974 0)
(0 -0.000975007 0)
(0 -0.000974034 0)
(0 -0.000973054 0)
(0 -0.000972069 0)
(0 -0.000971078 0)
(0 -0.000970082 0)
(0 -0.00096908 0)
(0 -0.000968074 0)
(0 -0.000967063 0)
(0 -0.000966047 0)
(0 -0.000965027 0)
(0 -0.000964003 0)
(0 -0.000962975 0)
(0 -0.000961944 0)
(0 -0.000960908 0)
(0 -0.000959869 0)
(0 -0.000958827 0)
(0 -0.000957782 0)
(0 -0.000956734 0)
(0 -0.000955683 0)
(0 -0.000954629 0)
(0 -0.000953572 0)
(0 -0.000952513 0)
(0 -0.000951451 0)
(0 -0.000950387 0)
(0 -0.000949321 0)
(0 -0.000948253 0)
(0 -0.000947182 0)
(0 -0.000946109 0)
(0 -0.000945035 0)
(0 -0.000943958 0)
(0 -0.000942879 0)
(0 -0.000941799 0)
(0 -0.000940716 0)
(0 -0.000939632 0)
(0 -0.000938546 0)
(0 -0.000937458 0)
(0 -0.000936368 0)
(0 -0.000935276 0)
(0 -0.000934183 0)
(0 -0.000933087 0)
(0 -0.00093199 0)
(0 -0.00093089 0)
(0 -0.000929789 0)
(0 -0.000928686 0)
(0 -0.00092758 0)
(0 -0.000926472 0)
(0 -0.000925362 0)
(0 -0.000924249 0)
(0 -0.000923134 0)
(0 -0.000922017 0)
(0 -0.000920897 0)
(0 -0.000917501 0)
(0 -0.000915215 0)
(0 -0.000912915 0)
(0 -0.000910598 0)
(0 -0.000908262 0)
(0 -0.000905904 0)
(0 -0.000903523 0)
(0 -0.000901114 0)
(0 -0.000898676 0)
(0 -0.000896204 0)
(0 -0.000893696 0)
(0 -0.000891147 0)
(0 -0.000888552 0)
(0 -0.000885909 0)
(0 -0.00088321 0)
(0 -0.000880452 0)
(0 -0.000877627 0)
(0 -0.000874731 0)
(0 -0.000871755 0)
(0 -0.000868693 0)
(0 -0.000865536 0)
(0 -0.000862275 0)
(0 -0.000858901 0)
(0 -0.000855404 0)
(0 -0.000851772 0)
(0 -0.000847992 0)
(0 -0.000844052 0)
(0 -0.000839938 0)
(0 -0.000835632 0)
(0 -0.000831118 0)
(0 -0.000826378 0)
(0 -0.000821389 0)
(0 -0.000816129 0)
(0 -0.000810573 0)
(0 -0.000804693 0)
(0 -0.000798455 0)
(0 -0.000791823 0)
(0 -0.000784756 0)
(0 -0.000777203 0)
(0.000877844 -0.000302679 0)
(0.000897154 -0.000286652 0)
(0.000916153 -0.00027139 0)
(0.000934842 -0.000256918 0)
(0.000953217 -0.000243234 0)
(0.000971281 -0.00023033 0)
(0.000989035 -0.000218186 0)
(0.00100648 -0.000206782 0)
(0.00102363 -0.000196094 0)
(0.00104049 -0.000186096 0)
(0.00105705 -0.000176761 0)
(0.00107335 -0.000168063 0)
(0.00108938 -0.000159972 0)
(0.00110515 -0.000152463 0)
(0.00112068 -0.000145507 0)
(0.00113597 -0.000139079 0)
(0.00115105 -0.000133151 0)
(0.00116591 -0.000127699 0)
(0.00118057 -0.000122698 0)
(0.00119505 -0.000118123 0)
(0.00120935 -0.000113952 0)
(0.00122349 -0.000110161 0)
(0.00123747 -0.00010673 0)
(0.00125131 -0.000103638 0)
(0.00126502 -0.000100863 0)
(0.00127861 -9.83876e-05 0)
(0.00129208 -9.61923e-05 0)
(0.00130544 -9.42594e-05 0)
(0.00131871 -9.25717e-05 0)
(0.00133188 -9.11124e-05 0)
(0.00134498 -8.98656e-05 0)
(0.001358 -8.88159e-05 0)
(0.00137095 -8.79486e-05 0)
(0.00138385 -8.72493e-05 0)
(0.00139668 -8.67043e-05 0)
(0.00140946 -8.63003e-05 0)
(0.0014222 -8.60246e-05 0)
(0.0014349 -8.58648e-05 0)
(0.00144756 -8.5809e-05 0)
(0.00146018 -8.58457e-05 0)
(0.00147278 -8.59637e-05 0)
(0.00148535 -8.61523e-05 0)
(0.00149789 -8.64011e-05 0)
(0.00151041 -8.66999e-05 0)
(0.00152292 -8.7039e-05 0)
(0.0015354 -8.74087e-05 0)
(0.00154787 -8.78e-05 0)
(0.00156032 -8.82038e-05 0)
(0.00157276 -8.86112e-05 0)
(0.00158519 -8.90138e-05 0)
(0.00159761 -8.94032e-05 0)
(0.00161001 -8.97712e-05 0)
(0.00162241 -9.01098e-05 0)
(0.00163479 -9.0411e-05 0)
(0.00164716 -9.06671e-05 0)
(0.00165953 -9.08704e-05 0)
(0.00167188 -9.10133e-05 0)
(0.00168422 -9.10883e-05 0)
(0.00169655 -9.10877e-05 0)
(0.00170886 -9.1004e-05 0)
(0.00172117 -9.08296e-05 0)
(0.00173346 -9.05569e-05 0)
(0.00174574 -9.0178e-05 0)
(0.001758 -8.9685e-05 0)
(0.00177025 -8.90699e-05 0)
(0.00178249 -8.83241e-05 0)
(0.0017947 -8.74389e-05 0)
(0.00180691 -8.64054e-05 0)
(0.00181909 -8.52139e-05 0)
(0.00183126 -8.38543e-05 0)
(0.00184341 -8.23161e-05 0)
(0.00185554 -8.05876e-05 0)
(0.00186766 -7.86569e-05 0)
(0.00187976 -7.65105e-05 0)
(0.00189185 -7.41344e-05 0)
(0.00190392 -7.15131e-05 0)
(0.00191598 -6.86299e-05 0)
(0.00192802 -6.54666e-05 0)
(0.00194006 -6.20038e-05 0)
(0.00085072 -0.000323294 0)
(0.000843344 -0.000327202 0)
(0.000836061 -0.000331106 0)
(0.000828871 -0.000335005 0)
(0.000821773 -0.0003389 0)
(0.000814767 -0.000342792 0)
(0.000807852 -0.000346681 0)
(0.000801026 -0.000350565 0)
(0.000794289 -0.000354446 0)
(0.000787639 -0.000358321 0)
(0.000781076 -0.000362191 0)
(0.000774598 -0.000366055 0)
(0.000768205 -0.000369912 0)
(0.000761894 -0.000373761 0)
(0.000755665 -0.0003776 0)
(0.000749517 -0.00038143 0)
(0.000743447 -0.00038525 0)
(0.000737454 -0.000389058 0)
(0.000731536 -0.000392854 0)
(0.000725693 -0.000396637 0)
(0.000719922 -0.000400406 0)
(0.000714221 -0.000404161 0)
(0.000708589 -0.0004079 0)
(0.000703024 -0.000411624 0)
(0.000697524 -0.000415331 0)
(0.000692086 -0.000419021 0)
(0.00068671 -0.000422693 0)
(0.000681392 -0.000426348 0)
(0.000676132 -0.000429983 0)
(0.000670926 -0.0004336 0)
(0.000665772 -0.000437198 0)
(0.000660669 -0.000440775 0)
(0.000655614 -0.000444333 0)
(0.000650605 -0.000447871 0)
(0.00064564 -0.000451387 0)
(0.000640716 -0.000454884 0)
(0.000635831 -0.000458359 0)
(0.000630982 -0.000461814 0)
(0.000626168 -0.000465247 0)
(0.000621386 -0.00046866 0)
(0.000616633 -0.000472051 0)
(0.000611907 -0.000475422 0)
(0.000607205 -0.000478771 0)
(0.000602526 -0.0004821 0)
(0.000597866 -0.000485409 0)
(0.000593224 -0.000488697 0)
(0.000588595 -0.000491964 0)
(0.000583979 -0.000495212 0)
(0.000579372 -0.000498441 0)
(0.000574772 -0.00050165 0)
(0.000570177 -0.000504841 0)
(0.000565582 -0.000508013 0)
(0.000560987 -0.000511167 0)
(0.000556388 -0.000514305 0)
(0.000551783 -0.000517425 0)
(0.000547168 -0.000520529 0)
(0.000542542 -0.000523618 0)
(0.000537902 -0.000526691 0)
(0.000533244 -0.000529751 0)
(0.000528566 -0.000532797 0)
(0.000523866 -0.000535831 0)
(0.00051914 -0.000538853 0)
(0.000514385 -0.000541865 0)
(0.0005096 -0.000544867 0)
(0.00050478 -0.00054786 0)
(0.000499924 -0.000550845 0)
(0.000495028 -0.000553824 0)
(0.00049009 -0.000556797 0)
(0.000485106 -0.000559767 0)
(0.000480074 -0.000562733 0)
(0.00047499 -0.000565699 0)
(0.000469852 -0.000568664 0)
(0.000464657 -0.000571631 0)
(0.000459402 -0.000574601 0)
(0.000454083 -0.000577576 0)
(0.000448699 -0.000580557 0)
(0.000443246 -0.000583547 0)
(0.000437721 -0.000586547 0)
(0.000432123 -0.00058956 0)
(2.97932e-05 -0.00076932 0)
(5.95634e-05 -0.000768737 0)
(8.93148e-05 -0.000767571 0)
(0.000119018 -0.000765868 0)
(0.000148652 -0.000763649 0)
(0.000178197 -0.000760927 0)
(0.000207636 -0.000757712 0)
(0.000236952 -0.000754017 0)
(0.000266129 -0.000749851 0)
(0.000295151 -0.000745227 0)
(0.000324002 -0.000740156 0)
(0.000352666 -0.000734651 0)
(0.00038113 -0.000728725 0)
(0.000409377 -0.000722394 0)
(0.000437394 -0.000715672 0)
(0.000465168 -0.000708573 0)
(0.000492684 -0.000701114 0)
(0.000519931 -0.00069331 0)
(0.000546897 -0.000685178 0)
(0.000573569 -0.000676734 0)
(0.000599937 -0.000667994 0)
(0.000625989 -0.000658975 0)
(0.000651716 -0.000649694 0)
(0.000677108 -0.000640166 0)
(0.000702156 -0.000630407 0)
(0.000726851 -0.000620432 0)
(0.000751185 -0.000610258 0)
(0.00077515 -0.000599899 0)
(0.00079874 -0.00058937 0)
(0.000821946 -0.000578683 0)
(0.000844763 -0.000567854 0)
(0.000867184 -0.000556894 0)
(0.000889204 -0.000545816 0)
(0.000910817 -0.000534633 0)
(0.000932019 -0.000523354 0)
(0.000952805 -0.000511991 0)
(0.00097317 -0.000500553 0)
(0.00099311 -0.00048905 0)
(0.00101262 -0.000477491 0)
(0.00105035 -0.000454236 0)
(0.00106856 -0.000442554 0)
(0.00108632 -0.000430845 0)
(0.00110365 -0.000419114 0)
(0.00112052 -0.000407366 0)
(0.00113695 -0.000395606 0)
(0.00115293 -0.000383838 0)
(0.00116846 -0.000372066 0)
(0.00118353 -0.000360293 0)
(0.00119815 -0.000348521 0)
(0.00121231 -0.000336753 0)
(0.00122601 -0.000324992 0)
(0.00123925 -0.000313238 0)
(0.00125202 -0.000301493 0)
(0.00126433 -0.000289759 0)
(0.00127617 -0.000278036 0)
(0.00128754 -0.000266325 0)
(0.00129845 -0.000254626 0)
(0.00130888 -0.00024294 0)
(0.00131883 -0.000231268 0)
(0.00132832 -0.000219608 0)
(0.00133732 -0.000207962 0)
(0.00134585 -0.000196328 0)
(0.0013539 -0.000184707 0)
(0.00136147 -0.000173099 0)
(0.00136856 -0.000161502 0)
(0.00137517 -0.000149916 0)
(0.00138129 -0.000138342 0)
(0.00138693 -0.000126777 0)
(0.00139208 -0.000115222 0)
(0.00139674 -0.000103676 0)
(0.00140092 -9.21388e-05 0)
(0.00140462 -8.06091e-05 0)
(0.00140782 -6.90865e-05 0)
(0.00141054 -5.75707e-05 0)
(0.00141278 -4.60613e-05 0)
(0.00141454 -3.45583e-05 0)
(0.00141582 -2.30612e-05 0)
(0.00141666 -1.15636e-05 0)
(0.00102129 -0.000457424 0)
(0.00101141 -0.000449439 0)
(0.00100201 -0.0004419 0)
(0.000993095 -0.000434776 0)
(0.000984625 -0.000428043 0)
(0.000976582 -0.000421674 0)
(0.000968947 -0.000415647 0)
(0.000961701 -0.000409941 0)
(0.000954824 -0.000404535 0)
(0.0009483 -0.000399411 0)
(0.000942113 -0.000394551 0)
(0.000936246 -0.00038994 0)
(0.000930685 -0.000385562 0)
(0.000925417 -0.000381403 0)
(0.000920427 -0.00037745 0)
(0.000915703 -0.000373691 0)
(0.000911234 -0.000370113 0)
(0.000907007 -0.000366707 0)
(0.000903012 -0.000363462 0)
(0.000899239 -0.000360368 0)
(0.000895678 -0.000357417 0)
(0.000892319 -0.0003546 0)
(0.000889155 -0.000351909 0)
(0.000886175 -0.000349336 0)
(0.000883373 -0.000346876 0)
(0.000880741 -0.00034452 0)
(0.000878271 -0.000342264 0)
(0.000875957 -0.0003401 0)
(0.000873792 -0.000338024 0)
(0.00087177 -0.000336029 0)
(0.000869884 -0.000334111 0)
(0.000868131 -0.000332266 0)
(0.000866503 -0.000330487 0)
(0.000864996 -0.00032877 0)
(0.000863606 -0.000327109 0)
(0.000862327 -0.000325501 0)
(0.000861155 -0.000323937 0)
(0.000860084 -0.000322409 0)
(0.000859104 -0.000320902 0)
(0.00102129 -0.000457424 0)
(0.00101141 -0.000449439 0)
(0.00100201 -0.0004419 0)
(0.000993095 -0.000434776 0)
(0.000984625 -0.000428043 0)
(0.000976582 -0.000421674 0)
(0.000968947 -0.000415647 0)
(0.000961701 -0.000409941 0)
(0.000954824 -0.000404535 0)
(0.0009483 -0.000399411 0)
(0.000942113 -0.000394551 0)
(0.000936246 -0.00038994 0)
(0.000930685 -0.000385562 0)
(0.000925417 -0.000381403 0)
(0.000920427 -0.00037745 0)
(0.000915703 -0.000373691 0)
(0.000911234 -0.000370113 0)
(0.000907007 -0.000366707 0)
(0.000903012 -0.000363462 0)
(0.000899239 -0.000360368 0)
(0.000895678 -0.000357417 0)
(0.000892319 -0.0003546 0)
(0.000889155 -0.000351909 0)
(0.000886175 -0.000349336 0)
(0.000883373 -0.000346876 0)
(0.000880741 -0.00034452 0)
(0.000878271 -0.000342264 0)
(0.000875957 -0.0003401 0)
(0.000873792 -0.000338024 0)
(0.00087177 -0.000336029 0)
(0.000869884 -0.000334111 0)
(0.000868131 -0.000332266 0)
(0.000866503 -0.000330487 0)
(0.000864996 -0.00032877 0)
(0.000863606 -0.000327109 0)
(0.000862327 -0.000325501 0)
(0.000861155 -0.000323937 0)
(0.000860084 -0.000322409 0)
(0.000859104 -0.000320902 0)
(0.000833522 -0.000336594 0)
(0.000808822 -0.000354038 0)
(0.000784099 -0.00037182 0)
(0.000759369 -0.00038995 0)
(0.000734655 -0.000408413 0)
(0.000709978 -0.000427186 0)
(0.000685363 -0.000446243 0)
(0.000660835 -0.00046555 0)
(0.000636417 -0.000485075 0)
(0.000612132 -0.000504779 0)
(0.000588002 -0.000524622 0)
(0.00056405 -0.000544562 0)
(0.000540294 -0.000564552 0)
(0.000516754 -0.000584545 0)
(0.000493448 -0.000604491 0)
(0.000470392 -0.000624337 0)
(0.0004476 -0.000644028 0)
(0.000425085 -0.000663508 0)
(0.000402859 -0.000682719 0)
(0.000380932 -0.000701602 0)
(0.000359309 -0.000720094 0)
(0.000337998 -0.000738134 0)
(0.000317001 -0.000755659 0)
(0.000296319 -0.000772608 0)
(0.000275951 -0.000788916 0)
(0.000255893 -0.000804523 0)
(0.000236138 -0.000819366 0)
(0.00021668 -0.000833387 0)
(0.000197506 -0.000846528 0)
(0.000178602 -0.000858732 0)
(0.000159955 -0.000869949 0)
(0.000141544 -0.000880128 0)
(0.00012335 -0.000889225 0)
(0.000105352 -0.000897197 0)
(8.75237e-05 -0.000904009 0)
(6.98407e-05 -0.000909629 0)
(5.22756e-05 -0.000914031 0)
(3.47998e-05 -0.000917195 0)
(1.7384e-05 -0.000919109 0)
(0 -0.000917501 0)
(0 -0.000915215 0)
(0 -0.000912915 0)
(0 -0.000910598 0)
(0 -0.000908262 0)
(0 -0.000905904 0)
(0 -0.000903523 0)
(0 -0.000901114 0)
(0 -0.000898676 0)
(0 -0.000896204 0)
(0 -0.000893696 0)
(0 -0.000891147 0)
(0 -0.000888552 0)
(0 -0.000885909 0)
(0 -0.00088321 0)
(0 -0.000880452 0)
(0 -0.000877627 0)
(0 -0.000874731 0)
(0 -0.000871755 0)
(0 -0.000868693 0)
(0 -0.000865536 0)
(0 -0.000862275 0)
(0 -0.000858901 0)
(0 -0.000855404 0)
(0 -0.000851772 0)
(0 -0.000847992 0)
(0 -0.000844052 0)
(0 -0.000839938 0)
(0 -0.000835632 0)
(0 -0.000831118 0)
(0 -0.000826378 0)
(0 -0.000821389 0)
(0 -0.000816129 0)
(0 -0.000810573 0)
(0 -0.000804693 0)
(0 -0.000798455 0)
(0 -0.000791823 0)
(0 -0.000784756 0)
(0 -0.000777203 0)
(2.97932e-05 -0.00076932 0)
(5.95634e-05 -0.000768737 0)
(8.93148e-05 -0.000767571 0)
(0.000119018 -0.000765868 0)
(0.000148652 -0.000763649 0)
(0.000178197 -0.000760927 0)
(0.000207636 -0.000757712 0)
(0.000236952 -0.000754017 0)
(0.000266129 -0.000749851 0)
(0.000295151 -0.000745227 0)
(0.000324002 -0.000740156 0)
(0.000352666 -0.000734651 0)
(0.00038113 -0.000728725 0)
(0.000409377 -0.000722394 0)
(0.000437394 -0.000715672 0)
(0.000465168 -0.000708573 0)
(0.000492684 -0.000701114 0)
(0.000519931 -0.00069331 0)
(0.000546897 -0.000685178 0)
(0.000573569 -0.000676734 0)
(0.000599937 -0.000667994 0)
(0.000625989 -0.000658975 0)
(0.000651716 -0.000649694 0)
(0.000677108 -0.000640166 0)
(0.000702156 -0.000630407 0)
(0.000726851 -0.000620432 0)
(0.000751185 -0.000610258 0)
(0.00077515 -0.000599899 0)
(0.00079874 -0.00058937 0)
(0.000821946 -0.000578683 0)
(0.000844763 -0.000567854 0)
(0.000867184 -0.000556894 0)
(0.000889204 -0.000545816 0)
(0.000910817 -0.000534633 0)
(0.000932019 -0.000523354 0)
(0.000952805 -0.000511991 0)
(0.00097317 -0.000500553 0)
(0.00099311 -0.00048905 0)
(0.00101262 -0.000477491 0)
(0.00105035 -0.000454236 0)
(0.00106856 -0.000442554 0)
(0.00108632 -0.000430845 0)
(0.00110365 -0.000419114 0)
(0.00112052 -0.000407366 0)
(0.00113695 -0.000395606 0)
(0.00115293 -0.000383838 0)
(0.00116846 -0.000372066 0)
(0.00118353 -0.000360293 0)
(0.00119815 -0.000348521 0)
(0.00121231 -0.000336753 0)
(0.00122601 -0.000324992 0)
(0.00123925 -0.000313238 0)
(0.00125202 -0.000301493 0)
(0.00126433 -0.000289759 0)
(0.00127617 -0.000278036 0)
(0.00128754 -0.000266325 0)
(0.00129845 -0.000254626 0)
(0.00130888 -0.00024294 0)
(0.00131883 -0.000231268 0)
(0.00132832 -0.000219608 0)
(0.00133732 -0.000207962 0)
(0.00134585 -0.000196328 0)
(0.0013539 -0.000184707 0)
(0.00136147 -0.000173099 0)
(0.00136856 -0.000161502 0)
(0.00137517 -0.000149916 0)
(0.00138129 -0.000138342 0)
(0.00138693 -0.000126777 0)
(0.00139208 -0.000115222 0)
(0.00139674 -0.000103676 0)
(0.00140092 -9.21388e-05 0)
(0.00140462 -8.06091e-05 0)
(0.00140782 -6.90865e-05 0)
(0.00141054 -5.75707e-05 0)
(0.00141278 -4.60613e-05 0)
(0.00141454 -3.45583e-05 0)
(0.00141582 -2.30612e-05 0)
(0.00141666 -1.15636e-05 0)
(0.00142008 0 0)
(0.00142277 0 0)
(0.00142527 0 0)
(0.00142759 0 0)
(0.00142974 0 0)
(0.00143174 0 0)
(0.0014336 0 0)
(0.00143533 0 0)
(0.00143694 0 0)
(0.00143844 0 0)
(0.00143985 0 0)
(0.00144116 0 0)
(0.0014424 0 0)
(0.00144356 0 0)
(0.00144466 0 0)
(0.0014457 0 0)
(0.00144669 0 0)
(0.00144763 0 0)
(0.00144854 0 0)
(0.00144941 0 0)
(0.00145025 0 0)
(0.00145106 0 0)
(0.00145186 0 0)
(0.00145264 0 0)
(0.0014534 0 0)
(0.00145415 0 0)
(0.0014549 0 0)
(0.00145564 0 0)
(0.00145638 0 0)
(0.00145712 0 0)
(0.00145786 0 0)
(0.00145861 0 0)
(0.00145936 0 0)
(0.00146012 0 0)
(0.00146089 0 0)
(0.00146167 0 0)
(0.00146247 0 0)
(0.00146327 0 0)
(0.00146409 0 0)
(0.00146452 -2.61563e-06 0)
(0.00146316 -5.24239e-06 0)
(0.00146086 -7.9138e-06 0)
(0.00145765 -1.06561e-05 0)
(0.00145351 -1.34943e-05 0)
(0.00144847 -1.64526e-05 0)
(0.00144252 -1.95551e-05 0)
(0.00143568 -2.28252e-05 0)
(0.00142797 -2.6286e-05 0)
(0.00141938 -2.99603e-05 0)
(0.00140994 -3.38702e-05 0)
(0.00139965 -3.80372e-05 0)
(0.00138854 -4.24824e-05 0)
(0.00137662 -4.72261e-05 0)
(0.00136391 -5.2288e-05 0)
(0.00135043 -5.76871e-05 0)
(0.00133619 -6.34415e-05 0)
(0.00132122 -6.95686e-05 0)
(0.00130554 -7.60849e-05 0)
(0.00128917 -8.30058e-05 0)
(0.00127213 -9.0346e-05 0)
(0.00125446 -9.81189e-05 0)
(0.00123617 -0.000106337 0)
(0.00121729 -0.000115012 0)
(0.00119785 -0.000124153 0)
(0.00117787 -0.000133769 0)
(0.00115739 -0.000143869 0)
(0.00113642 -0.000154457 0)
(0.001115 -0.00016554 0)
(0.00109316 -0.000177119 0)
(0.00107093 -0.000189197 0)
(0.00104833 -0.000201772 0)
(0.0010254 -0.000214844 0)
(0.00100217 -0.000228406 0)
(0.00097866 -0.000242453 0)
(0.000954912 -0.000256974 0)
(0.000930954 -0.000271955 0)
(0.000906821 -0.000287374 0)
(0.000882551 -0.0003032 0)
(0.00146718 0 0)
(0.00146952 0 0)
(0.00147198 0 0)
(0.00147457 0 0)
(0.00147729 0 0)
(0.00148017 0 0)
(0.00148319 0 0)
(0.00148637 0 0)
(0.00148971 0 0)
(0.0014932 0 0)
(0.00149686 0 0)
(0.00150067 0 0)
(0.00150465 0 0)
(0.00150878 0 0)
(0.00151306 0 0)
(0.00151751 0 0)
(0.0015221 0 0)
(0.00152685 0 0)
(0.00153175 0 0)
(0.0015368 0 0)
(0.00154199 0 0)
(0.00154733 0 0)
(0.00155281 0 0)
(0.00155844 0 0)
(0.0015642 0 0)
(0.00157009 0 0)
(0.00157612 0 0)
(0.00158228 0 0)
(0.00158857 0 0)
(0.00159499 0 0)
(0.00160154 0 0)
(0.0016082 0 0)
(0.00161499 0 0)
(0.0016219 0 0)
(0.00162892 0 0)
(0.00163605 0 0)
(0.0016433 0 0)
(0.00165066 0 0)
(0.00165813 0 0)
(0.0016657 0 0)
(0.00167337 0 0)
(0.00168114 0 0)
(0.00168902 0 0)
(0.00169699 0 0)
(0.00170505 0 0)
(0.0017132 0 0)
(0.00172145 0 0)
(0.00172978 0 0)
(0.00173819 0 0)
(0.00174669 0 0)
(0.00175527 0 0)