/*--------------------------------*- C++ -*----------------------------------*\
| =========                 |                                                 |
| \\      /  F ield         | OpenFOAM: The Open Source CFD Toolbox           |
|  \\    /   O peration     | Version:  v2012                                 |
|   \\  /    A nd           | Website:  www.openfoam.com                      |
|    \\/     M anipulation  |                                                 |
\*---------------------------------------------------------------------------*/
FoamFile
{
    version     2.0;
    format      ascii;
    class       volScalarField;
    location    "4";
    object      sigmaEq;
}
// * * * * * * * * * * * * * * * * * * * * * * * * * * * * * * * * * * * * * //

dimensions      [1 -1 -2 0 0 0 0];


internalField   nonuniform List<scalar> 
32000
(
2.07258e+08
2.00112e+08
1.97936e+08
1.91438e+08
1.89176e+08
1.8329e+08
1.8106e+08
1.75683e+08
1.73555e+08
1.68603e+08
1.6661e+08
1.62021e+08
1.60174e+08
1.55902e+08
1.54202e+08
1.50211e+08
1.48653e+08
1.44915e+08
1.4349e+08
1.39983e+08
1.38681e+08
1.35385e+08
1.34197e+08
1.31095e+08
1.30012e+08
1.27088e+08
1.26102e+08
1.23344e+08
1.22445e+08
1.19841e+08
1.19023e+08
1.1656e+08
1.15817e+08
1.13486e+08
1.12811e+08
1.10603e+08
1.09989e+08
1.07896e+08
1.07339e+08
1.05351e+08
1.04847e+08
1.02958e+08
1.02502e+08
1.00705e+08
1.00293e+08
9.8582e+07
9.82098e+07
9.65789e+07
9.62438e+07
9.46872e+07
9.43862e+07
9.28988e+07
9.26291e+07
9.1206e+07
9.09652e+07
8.9602e+07
8.93877e+07
8.80801e+07
8.78903e+07
8.66342e+07
8.6467e+07
8.52586e+07
8.51125e+07
8.39481e+07
8.38216e+07
8.26975e+07
8.25895e+07
8.15021e+07
8.14118e+07
8.03574e+07
8.02845e+07
7.9259e+07
7.92035e+07
7.82024e+07
7.81652e+07
7.71825e+07
7.71652e+07
7.61926e+07
7.61981e+07
7.52218e+07
2.05767e+08
1.9933e+08
1.9666e+08
1.90633e+08
1.88227e+08
1.82567e+08
1.80366e+08
1.75062e+08
1.73041e+08
1.68076e+08
1.66222e+08
1.61572e+08
1.59874e+08
1.55516e+08
1.53966e+08
1.49877e+08
1.48465e+08
1.44623e+08
1.4334e+08
1.39725e+08
1.38562e+08
1.35157e+08
1.34104e+08
1.30892e+08
1.29941e+08
1.26909e+08
1.26051e+08
1.23184e+08
1.22413e+08
1.197e+08
1.19007e+08
1.16437e+08
1.15816e+08
1.13379e+08
1.12824e+08
1.1051e+08
1.10016e+08
1.07817e+08
1.07378e+08
1.05287e+08
1.04898e+08
1.02906e+08
1.02564e+08
1.00666e+08
1.00366e+08
9.85538e+07
9.82929e+07
9.65617e+07
9.63365e+07
9.46805e+07
9.44879e+07
9.2902e+07
9.27394e+07
9.12186e+07
9.10836e+07
8.96234e+07
8.95136e+07
8.81098e+07
8.80232e+07
8.66715e+07
8.66063e+07
8.53029e+07
8.52573e+07
8.39985e+07
8.39711e+07
8.27532e+07
8.27427e+07
8.15622e+07
8.15672e+07
8.04207e+07
8.04401e+07
7.93245e+07
7.93569e+07
7.82691e+07
7.8313e+07
7.72511e+07
7.73038e+07
7.62686e+07
7.63246e+07
7.53269e+07
2.05087e+08
1.98619e+08
1.95886e+08
1.89868e+08
1.8744e+08
1.81798e+08
1.79626e+08
1.74324e+08
1.72371e+08
1.67386e+08
1.65627e+08
1.60938e+08
1.59353e+08
1.54938e+08
1.53511e+08
1.49353e+08
1.4807e+08
1.4415e+08
1.42999e+08
1.39299e+08
1.38269e+08
1.34775e+08
1.33855e+08
1.30551e+08
1.29733e+08
1.26606e+08
1.2588e+08
1.22918e+08
1.22277e+08
1.19467e+08
1.18903e+08
1.16236e+08
1.15743e+08
1.13208e+08
1.1278e+08
1.10369e+08
1.09999e+08
1.07703e+08
1.07387e+08
1.05199e+08
1.04932e+08
1.02843e+08
1.02621e+08
1.00627e+08
1.00445e+08
9.85377e+07
9.83931e+07
9.65674e+07
9.64567e+07
9.4707e+07
9.46271e+07
9.29483e+07
9.28967e+07
9.12838e+07
9.12579e+07
8.97064e+07
8.97041e+07
8.82097e+07
8.82288e+07
8.67875e+07
8.68262e+07
8.5434e+07
8.54907e+07
8.41438e+07
8.42169e+07
8.2912e+07
8.29999e+07
8.17337e+07
8.18351e+07
8.06045e+07
8.0718e+07
7.95204e+07
7.96445e+07
7.84776e+07
7.86109e+07
7.74733e+07
7.76145e+07
7.65051e+07
7.66551e+07
7.55693e+07
2.04121e+08
1.97633e+08
1.9496e+08
1.88904e+08
1.86534e+08
1.80859e+08
1.78755e+08
1.7342e+08
1.71552e+08
1.66529e+08
1.64868e+08
1.60133e+08
1.58658e+08
1.54191e+08
1.52882e+08
1.48663e+08
1.47506e+08
1.43518e+08
1.42497e+08
1.38725e+08
1.37827e+08
1.34256e+08
1.3347e+08
1.30086e+08
1.29402e+08
1.26191e+08
1.25601e+08
1.22552e+08
1.22046e+08
1.19149e+08
1.18719e+08
1.15963e+08
1.15603e+08
1.12979e+08
1.12682e+08
1.10181e+08
1.09941e+08
1.07555e+08
1.07367e+08
1.05089e+08
1.04948e+08
1.02771e+08
1.02672e+08
1.00589e+08
1.00529e+08
9.85337e+07
9.85091e+07
9.65955e+07
9.66027e+07
9.47658e+07
9.48018e+07
9.30365e+07
9.30985e+07
9.13999e+07
9.14856e+07
8.98493e+07
8.99563e+07
8.8378e+07
8.85043e+07
8.69799e+07
8.71238e+07
8.56494e+07
8.58091e+07
8.43812e+07
8.45552e+07
8.31703e+07
8.33572e+07
8.20122e+07
8.22105e+07
8.09024e+07
8.1111e+07
7.98371e+07
8.00549e+07
7.88126e+07
7.90387e+07
7.78256e+07
7.80594e+07
7.68724e+07
7.71135e+07
7.59497e+07
2.0282e+08
1.96324e+08
1.93754e+08
1.87669e+08
1.85397e+08
1.79685e+08
1.77681e+08
1.72306e+08
1.70543e+08
1.65477e+08
1.63928e+08
1.59147e+08
1.5779e+08
1.53272e+08
1.52088e+08
1.47813e+08
1.46785e+08
1.42737e+08
1.41848e+08
1.38011e+08
1.37249e+08
1.33609e+08
1.3296e+08
1.29504e+08
1.28958e+08
1.25673e+08
1.2522e+08
1.22096e+08
1.21727e+08
1.18752e+08
1.18459e+08
1.15624e+08
1.15399e+08
1.12695e+08
1.12532e+08
1.0995e+08
1.09843e+08
1.07376e+08
1.07319e+08
1.0496e+08
1.04948e+08
1.02689e+08
1.02717e+08
1.00552e+08
1.00618e+08
9.85409e+07
9.86388e+07
9.66447e+07
9.67719e+07
9.4855e+07
9.50086e+07
9.3164e+07
9.33412e+07
9.15641e+07
9.17624e+07
9.00483e+07
9.02656e+07
8.86103e+07
8.88445e+07
8.72441e+07
8.74933e+07
8.59439e+07
8.62066e+07
8.47047e+07
8.49793e+07
8.35214e+07
8.38066e+07
8.23897e+07
8.26842e+07
8.13051e+07
8.1608e+07
8.02638e+07
8.05742e+07
7.92621e+07
7.95791e+07
7.82962e+07
7.86193e+07
7.73628e+07
7.76914e+07
7.64587e+07
2.01188e+08
1.94695e+08
1.92244e+08
1.86144e+08
1.8399e+08
1.78252e+08
1.76367e+08
1.70961e+08
1.69318e+08
1.64215e+08
1.62791e+08
1.57968e+08
1.5674e+08
1.52176e+08
1.51124e+08
1.46799e+08
1.45906e+08
1.41805e+08
1.41054e+08
1.3716e+08
1.36537e+08
1.32837e+08
1.32329e+08
1.28809e+08
1.28405e+08
1.25054e+08
1.24743e+08
1.21551e+08
1.21323e+08
1.18278e+08
1.18126e+08
1.1522e+08
1.15134e+08
1.12358e+08
1.12333e+08
1.09678e+08
1.09707e+08
1.07166e+08
1.07243e+08
1.0481e+08
1.04929e+08
1.02597e+08
1.02754e+08
1.00516e+08
1.00707e+08
9.85574e+07
9.87791e+07
9.67121e+07
9.69605e+07
9.49713e+07
9.52433e+07
9.33269e+07
9.36197e+07
9.17715e+07
9.20827e+07
9.02983e+07
9.06257e+07
8.8901e+07
8.92424e+07
8.75734e+07
8.79271e+07
8.63102e+07
8.66746e+07
8.51061e+07
8.54798e+07
8.39563e+07
8.43381e+07
8.28564e+07
8.32451e+07
8.18022e+07
8.21968e+07
8.07896e+07
8.11893e+07
7.9815e+07
8.02191e+07
7.88747e+07
7.92826e+07
7.79655e+07
7.83766e+07
7.70842e+07
1.99236e+08
1.92757e+08
1.90432e+08
1.84332e+08
1.82307e+08
1.76557e+08
1.74802e+08
1.69375e+08
1.67865e+08
1.62735e+08
1.61446e+08
1.5659e+08
1.555e+08
1.50898e+08
1.49986e+08
1.4562e+08
1.44869e+08
1.40722e+08
1.40114e+08
1.36171e+08
1.35693e+08
1.31941e+08
1.31579e+08
1.28004e+08
1.27745e+08
1.24337e+08
1.24171e+08
1.20919e+08
1.20836e+08
1.1773e+08
1.17721e+08
1.14752e+08
1.14808e+08
1.11969e+08
1.12083e+08
1.09364e+08
1.0953e+08
1.06925e+08
1.07137e+08
1.04638e+08
1.04891e+08
1.02493e+08
1.0278e+08
1.00476e+08
1.00795e+08
9.85799e+07
9.8926e+07
9.6794e+07
9.71637e+07
9.51099e+07
9.55002e+07
9.35198e+07
9.39278e+07
9.20163e+07
9.24395e+07
9.05925e+07
9.10287e+07
8.92423e+07
8.96895e+07
8.79597e+07
8.8416e+07
8.67392e+07
8.72032e+07
8.55758e+07
8.60461e+07
8.44647e+07
8.49401e+07
8.34016e+07
8.38809e+07
8.23821e+07
8.28646e+07
8.14026e+07
8.18873e+07
8.04592e+07
8.09456e+07
7.95485e+07
8.0036e+07
7.86673e+07
7.91553e+07
7.78125e+07
1.96974e+08
1.9052e+08
1.88327e+08
1.8224e+08
1.80349e+08
1.74602e+08
1.72985e+08
1.6755e+08
1.6618e+08
1.61035e+08
1.59889e+08
1.55012e+08
1.54066e+08
1.49437e+08
1.48672e+08
1.44274e+08
1.4367e+08
1.39487e+08
1.39029e+08
1.35046e+08
1.34717e+08
1.30922e+08
1.30709e+08
1.27088e+08
1.26979e+08
1.23522e+08
1.23505e+08
1.20202e+08
1.20266e+08
1.17108e+08
1.17244e+08
1.14222e+08
1.14421e+08
1.11527e+08
1.11782e+08
1.09008e+08
1.09313e+08
1.06651e+08
1.06999e+08
1.04444e+08
1.04829e+08
1.02374e+08
1.02792e+08
1.00431e+08
1.00877e+08
9.86042e+07
9.90741e+07
9.68852e+07
9.73755e+07
9.52652e+07
9.57726e+07
9.37362e+07
9.42579e+07
9.22911e+07
9.28245e+07
9.0923e+07
9.14659e+07
8.96257e+07
9.01761e+07
8.83934e+07
8.89497e+07
8.72209e+07
8.77813e+07
8.6103e+07
8.66663e+07
8.50351e+07
8.56002e+07
8.40129e+07
8.45787e+07
8.30323e+07
8.3598e+07
8.20895e+07
8.26543e+07
8.1181e+07
8.17443e+07
8.03033e+07
8.08646e+07
7.94534e+07
8.00121e+07
7.86283e+07
1.9441e+08
1.87997e+08
1.85937e+08
1.79878e+08
1.78126e+08
1.72394e+08
1.7092e+08
1.65491e+08
1.64267e+08
1.5912e+08
1.58121e+08
1.53235e+08
1.52439e+08
1.47794e+08
1.4718e+08
1.42762e+08
1.42311e+08
1.38102e+08
1.37796e+08
1.33784e+08
1.33608e+08
1.2978e+08
1.29719e+08
1.26063e+08
1.26105e+08
1.2261e+08
1.22743e+08
1.19399e+08
1.19612e+08
1.16411e+08
1.16694e+08
1.13627e+08
1.13971e+08
1.1103e+08
1.11428e+08
1.08607e+08
1.09051e+08
1.06341e+08
1.06826e+08
1.04222e+08
1.0474e+08
1.02236e+08
1.02784e+08
1.00374e+08
1.00946e+08
9.8625e+07
9.92174e+07
9.69799e+07
9.7589e+07
9.54304e+07
9.60529e+07
9.39688e+07
9.46018e+07
9.25877e+07
9.32287e+07
9.12806e+07
9.19274e+07
9.00414e+07
9.06919e+07
8.88642e+07
8.95168e+07
8.7744e+07
8.83971e+07
8.66757e+07
8.73281e+07
8.56549e+07
8.63054e+07
8.46773e+07
8.53249e+07
8.3739e+07
8.43829e+07
8.28362e+07
8.34757e+07
8.19655e+07
8.26001e+07
8.11238e+07
8.17528e+07
8.03079e+07
8.09309e+07
7.95149e+07
1.91557e+08
1.85196e+08
1.83274e+08
1.77255e+08
1.75645e+08
1.69943e+08
1.68614e+08
1.63206e+08
1.62131e+08
1.56994e+08
1.56148e+08
1.51264e+08
1.50622e+08
1.45974e+08
1.45515e+08
1.41087e+08
1.40792e+08
1.36568e+08
1.36419e+08
1.32388e+08
1.32368e+08
1.28516e+08
1.28611e+08
1.24928e+08
1.25124e+08
1.216e+08
1.21885e+08
1.1851e+08
1.18873e+08
1.15638e+08
1.16069e+08
1.12966e+08
1.13456e+08
1.10478e+08
1.11018e+08
1.08159e+08
1.08742e+08
1.05993e+08
1.06613e+08
1.0397e+08
1.0462e+08
1.02076e+08
1.02752e+08
1.00302e+08
1.00998e+08
9.86365e+07
9.93492e+07
9.70715e+07
9.77969e+07
9.55983e+07
9.63331e+07
9.42093e+07
9.49506e+07
9.28973e+07
9.36426e+07
9.16559e+07
9.24029e+07
9.0479e+07
9.12257e+07
8.9361e+07
9.01058e+07
8.82968e+07
8.90382e+07
8.72816e+07
8.80184e+07
8.63111e+07
8.70421e+07
8.53811e+07
8.61053e+07
8.44878e+07
8.52046e+07
8.36276e+07
8.43362e+07
8.27973e+07
8.34972e+07
8.19937e+07
8.26844e+07
8.1214e+07
8.18951e+07
8.04553e+07
1.88425e+08
1.82131e+08
1.80347e+08
1.74383e+08
1.72917e+08
1.67258e+08
1.66078e+08
1.60702e+08
1.59779e+08
1.54666e+08
1.53974e+08
1.49106e+08
1.4862e+08
1.43981e+08
1.43679e+08
1.39254e+08
1.39116e+08
1.3489e+08
1.34899e+08
1.3086e+08
1.30997e+08
1.27134e+08
1.27385e+08
1.23686e+08
1.24037e+08
1.20494e+08
1.20932e+08
1.17535e+08
1.18048e+08
1.1479e+08
1.15368e+08
1.1224e+08
1.12874e+08
1.09869e+08
1.1055e+08
1.07662e+08
1.08382e+08
1.05604e+08
1.06357e+08
1.03684e+08
1.04463e+08
1.01888e+08
1.0269e+08
1.00208e+08
1.01026e+08
9.86325e+07
9.94625e+07
9.71529e+07
9.79914e+07
9.5761e+07
9.66046e+07
9.44493e+07
9.52951e+07
9.32106e+07
9.40561e+07
9.20387e+07
9.28817e+07
9.09277e+07
9.17663e+07
8.98722e+07
9.07046e+07
8.88671e+07
8.9692e+07
8.79078e+07
8.8724e+07
8.69902e+07
8.77965e+07
8.61101e+07
8.69057e+07
8.52641e+07
8.60482e+07
8.44485e+07
8.52206e+07
8.36605e+07
8.44199e+07
8.28968e+07
8.36433e+07
8.21549e+07
8.28879e+07
8.14321e+07
1.85026e+08
1.78812e+08
1.77169e+08
1.71272e+08
1.69952e+08
1.64349e+08
1.63319e+08
1.57989e+08
1.57219e+08
1.52143e+08
1.51607e+08
1.46768e+08
1.46439e+08
1.41821e+08
1.41679e+08
1.37267e+08
1.37289e+08
1.33072e+08
1.33239e+08
1.29203e+08
1.29499e+08
1.25635e+08
1.26042e+08
1.22339e+08
1.22844e+08
1.19293e+08
1.19883e+08
1.16475e+08
1.17138e+08
1.13866e+08
1.1459e+08
1.11446e+08
1.12223e+08
1.092e+08
1.1002e+08
1.07113e+08
1.07968e+08
1.0517e+08
1.06054e+08
1.03359e+08
1.04266e+08
1.01668e+08
1.02592e+08
1.00087e+08
1.01023e+08
9.86066e+07
9.95501e+07
9.7217e+07
9.81646e+07
9.59106e+07
9.68589e+07
9.46799e+07
9.56259e+07
9.35181e+07
9.44594e+07
9.24189e+07
9.33533e+07
9.13767e+07
9.23023e+07
9.03863e+07
9.13014e+07
8.94426e+07
9.0346e+07
8.85415e+07
8.94318e+07
8.76786e+07
8.8555e+07
8.68504e+07
8.7712e+07
8.60532e+07
8.68993e+07
8.52838e+07
8.61138e+07
8.45393e+07
8.53528e+07
8.38169e+07
8.46134e+07
8.31139e+07
8.38931e+07
8.24281e+07
1.81374e+08
1.75253e+08
1.73752e+08
1.67935e+08
1.66762e+08
1.61228e+08
1.60349e+08
1.55077e+08
1.54462e+08
1.49435e+08
1.49055e+08
1.44257e+08
1.44087e+08
1.39502e+08
1.39519e+08
1.35133e+08
1.35315e+08
1.31118e+08
1.31444e+08
1.27423e+08
1.27876e+08
1.24022e+08
1.24586e+08
1.20889e+08
1.21548e+08
1.17999e+08
1.1874e+08
1.15331e+08
1.16141e+08
1.12866e+08
1.13734e+08
1.10585e+08
1.11501e+08
1.08471e+08
1.09427e+08
1.0651e+08
1.07497e+08
1.04688e+08
1.057e+08
1.02992e+08
1.04022e+08
1.01411e+08
1.02453e+08
9.99342e+07
1.00984e+08
9.85523e+07
9.96051e+07
9.72566e+07
9.83087e+07
9.60391e+07
9.70873e+07
9.48925e+07
9.59339e+07
9.38103e+07
9.48424e+07
9.27864e+07
9.38071e+07
9.18152e+07
9.28227e+07
9.08918e+07
9.18845e+07
9.00114e+07
9.0988e+07
8.91699e+07
9.01292e+07
8.83633e+07
8.93045e+07
8.7588e+07
8.85103e+07
8.68408e+07
8.77435e+07
8.61186e+07
8.70012e+07
8.54186e+07
8.62807e+07
8.47382e+07
8.55794e+07
8.4075e+07
8.4895e+07
8.34268e+07
1.77482e+08
1.71466e+08
1.70108e+08
1.64383e+08
1.63358e+08
1.57905e+08
1.57177e+08
1.51977e+08
1.51516e+08
1.4655e+08
1.46328e+08
1.41582e+08
1.41571e+08
1.3703e+08
1.37206e+08
1.32859e+08
1.33199e+08
1.29034e+08
1.29518e+08
1.25524e+08
1.26134e+08
1.22301e+08
1.23019e+08
1.19339e+08
1.20149e+08
1.16614e+08
1.17503e+08
1.14105e+08
1.15059e+08
1.11791e+08
1.128e+08
1.09655e+08
1.10708e+08
1.0768e+08
1.08768e+08
1.05851e+08
1.06966e+08
1.04155e+08
1.0529e+08
1.02579e+08
1.03727e+08
1.01112e+08
1.02268e+08
9.9743e+07
1.00902e+08
9.84635e+07
9.96205e+07
9.72646e+07
9.84163e+07
9.61387e+07
9.72817e+07
9.50787e+07
9.62103e+07
9.40782e+07
9.51959e+07
9.31313e+07
9.42331e+07
9.22328e+07
9.33168e+07
9.13778e+07
9.24427e+07
9.05618e+07
9.16063e+07
8.9781e+07
9.0804e+07
8.90315e+07
9.00322e+07
8.831e+07
8.92877e+07
8.76135e+07
8.85676e+07
8.6939e+07
8.7869e+07
8.6284e+07
8.71896e+07
8.5646e+07
8.65269e+07
8.50229e+07
8.58787e+07
8.44125e+07
1.73364e+08
1.67465e+08
1.66249e+08
1.6063e+08
1.59752e+08
1.54392e+08
1.53816e+08
1.48698e+08
1.48392e+08
1.43499e+08
1.43433e+08
1.38752e+08
1.38898e+08
1.34415e+08
1.34749e+08
1.30451e+08
1.30949e+08
1.26827e+08
1.27468e+08
1.23511e+08
1.24275e+08
1.20475e+08
1.21345e+08
1.17693e+08
1.18652e+08
1.1514e+08
1.16175e+08
1.12796e+08
1.13893e+08
1.10641e+08
1.11787e+08
1.08656e+08
1.09842e+08
1.06825e+08
1.08042e+08
1.05134e+08
1.06373e+08
1.03568e+08
1.04822e+08
1.02116e+08
1.03378e+08
1.00766e+08
1.02031e+08
9.95086e+07
1.00771e+08
9.83341e+07
9.95901e+07
9.72345e+07
9.84802e+07
9.62022e+07
9.74345e+07
9.52304e+07
9.64466e+07
9.43131e+07
9.55107e+07
9.34444e+07
9.46217e+07
9.26196e+07
9.37747e+07
9.18338e+07
9.29654e+07
9.1083e+07
9.219e+07
9.03633e+07
9.14448e+07
8.96714e+07
9.07264e+07
8.9004e+07
9.00321e+07
8.83583e+07
8.93589e+07
8.77317e+07
8.87044e+07
8.71217e+07
8.80662e+07
8.65262e+07
8.74423e+07
8.59432e+07
8.68306e+07
8.53708e+07
1.69035e+08
1.63264e+08
1.62191e+08
1.56688e+08
1.55957e+08
1.50701e+08
1.50276e+08
1.45252e+08
1.451e+08
1.40292e+08
1.40382e+08
1.35776e+08
1.36079e+08
1.31663e+08
1.32154e+08
1.27917e+08
1.28571e+08
1.24503e+08
1.25298e+08
1.2139e+08
1.22306e+08
1.18549e+08
1.19567e+08
1.15954e+08
1.17058e+08
1.13581e+08
1.14757e+08
1.11409e+08
1.12643e+08
1.09418e+08
1.10697e+08
1.07589e+08
1.08903e+08
1.05907e+08
1.07247e+08
1.04357e+08
1.05714e+08
1.02926e+08
1.04292e+08
1.016e+08
1.0297e+08
1.00371e+08
1.01738e+08
9.92264e+07
1.00587e+08
9.81589e+07
9.95078e+07
9.71601e+07
9.8494e+07
9.62227e+07
9.75384e+07
9.53403e+07
9.66352e+07
9.45069e+07
9.57788e+07
9.37172e+07
9.49642e+07
9.29664e+07
9.4187e+07
9.22502e+07
9.34432e+07
9.15647e+07
9.27289e+07
9.09063e+07
9.2041e+07
9.02719e+07
9.13763e+07
8.96585e+07
9.07321e+07
8.90635e+07
9.01059e+07
8.84846e+07
8.94954e+07
8.79195e+07
8.88985e+07
8.73662e+07
8.83133e+07
8.68231e+07
8.7738e+07
8.62883e+07
1.6451e+08
1.58878e+08
1.57947e+08
1.5257e+08
1.51985e+08
1.46845e+08
1.4657e+08
1.41651e+08
1.41651e+08
1.36938e+08
1.37183e+08
1.32663e+08
1.33122e+08
1.28785e+08
1.2943e+08
1.25265e+08
1.26072e+08
1.22069e+08
1.23015e+08
1.19166e+08
1.2023e+08
1.16528e+08
1.17691e+08
1.14127e+08
1.15372e+08
1.1194e+08
1.13252e+08
1.09945e+08
1.11311e+08
1.08122e+08
1.09529e+08
1.06455e+08
1.07891e+08
1.04925e+08
1.06382e+08
1.0352e+08
1.04989e+08
1.02225e+08
1.03699e+08
1.01029e+08
1.02501e+08
9.99213e+07
1.01386e+08
9.88921e+07
1.00344e+08
9.79328e+07
9.93685e+07
9.70358e+07
9.84517e+07
9.61941e+07
9.75871e+07
9.54015e+07
9.67692e+07
9.46523e+07
9.59926e+07
9.39417e+07
9.52528e+07
9.3265e+07
9.45455e+07
9.26182e+07
9.38671e+07
9.19978e+07
9.3214e+07
9.14004e+07
9.25832e+07
9.08231e+07
9.1972e+07
9.02633e+07
9.13778e+07
8.97187e+07
9.07984e+07
8.91869e+07
9.02317e+07
8.86661e+07
8.96758e+07
8.81546e+07
8.9129e+07
8.76507e+07
8.85898e+07
8.71531e+07
1.59804e+08
1.5432e+08
1.5353e+08
1.48289e+08
1.4785e+08
1.42836e+08
1.42709e+08
1.37905e+08
1.38057e+08
1.3345e+08
1.33846e+08
1.29425e+08
1.30035e+08
1.25788e+08
1.26585e+08
1.22502e+08
1.23459e+08
1.19532e+08
1.20626e+08
1.16847e+08
1.18055e+08
1.14417e+08
1.15721e+08
1.12215e+08
1.13598e+08
1.10219e+08
1.11664e+08
1.08406e+08
1.09899e+08
1.06757e+08
1.08285e+08
1.05253e+08
1.06806e+08
1.03879e+08
1.05448e+08
1.02621e+08
1.04196e+08
1.01465e+08
1.03039e+08
1.004e+08
1.01967e+08
9.94154e+07
1.0097e+08
9.8502e+07
1.00039e+08
9.76516e+07
9.91676e+07
9.68567e+07
9.83482e+07
9.61108e+07
9.75749e+07
9.54079e+07
9.68423e+07
9.47429e+07
9.61455e+07
9.41109e+07
9.54803e+07
9.35079e+07
9.48427e+07
9.293e+07
9.42294e+07
9.23741e+07
9.36371e+07
9.1837e+07
9.30631e+07
9.13163e+07
9.25049e+07
9.08094e+07
9.19602e+07
9.03142e+07
9.14271e+07
8.98289e+07
9.09037e+07
8.93518e+07
9.03883e+07
8.88813e+07
8.98795e+07
8.8416e+07
8.9376e+07
8.79548e+07
1.54933e+08
1.49606e+08
1.48956e+08
1.43861e+08
1.43565e+08
1.38686e+08
1.38706e+08
1.34028e+08
1.34328e+08
1.29837e+08
1.30383e+08
1.26069e+08
1.26829e+08
1.22682e+08
1.23627e+08
1.19637e+08
1.2074e+08
1.169e+08
1.18137e+08
1.14438e+08
1.15786e+08
1.12222e+08
1.13661e+08
1.10225e+08
1.11738e+08
1.08424e+08
1.09995e+08
1.06797e+08
1.0841e+08
1.05323e+08
1.06967e+08
1.03986e+08
1.0565e+08
1.0277e+08
1.04443e+08
1.0166e+08
1.03334e+08
1.00645e+08
1.02312e+08
9.97112e+07
1.01367e+08
9.88503e+07
1.00488e+08
9.80531e+07
9.96687e+07
9.73115e+07
9.89012e+07
9.66186e+07
9.81791e+07
9.59681e+07
9.74968e+07
9.53545e+07
9.68492e+07
9.47728e+07
9.62318e+07
9.42188e+07
9.56407e+07
9.36886e+07
9.50722e+07
9.31788e+07
9.45233e+07
9.26865e+07
9.39912e+07
9.22088e+07
9.34733e+07
9.17436e+07
9.29674e+07
9.12886e+07
9.24716e+07
9.08421e+07
9.19842e+07
9.04023e+07
9.15034e+07
8.99679e+07
9.1028e+07
8.95375e+07
9.05566e+07
8.911e+07
9.00882e+07
8.86843e+07
1.49911e+08
1.4475e+08
1.44238e+08
1.39297e+08
1.39144e+08
1.34408e+08
1.34573e+08
1.30029e+08
1.30476e+08
1.26111e+08
1.26804e+08
1.22608e+08
1.23514e+08
1.19476e+08
1.20566e+08
1.16679e+08
1.17924e+08
1.1418e+08
1.15555e+08
1.11946e+08
1.13429e+08
1.09949e+08
1.11519e+08
1.08161e+08
1.09799e+08
1.06558e+08
1.08248e+08
1.05119e+08
1.06847e+08
1.03824e+08
1.05577e+08
1.02656e+08
1.04422e+08
1.01599e+08
1.03369e+08
1.00638e+08
1.02404e+08
9.9763e+07
1.01517e+08
9.89616e+07
1.00698e+08
9.82244e+07
9.99384e+07
9.75429e+07
9.923e+07
9.69096e+07
9.85661e+07
9.63179e+07
9.79408e+07
9.5762e+07
9.73488e+07
9.52366e+07
9.67855e+07
9.47373e+07
9.62467e+07
9.42602e+07
9.57287e+07
9.38017e+07
9.52285e+07
9.33588e+07
9.47432e+07
9.29288e+07
9.42703e+07
9.25095e+07
9.38076e+07
9.20986e+07
9.33533e+07
9.16944e+07
9.29055e+07
9.12954e+07
9.24629e+07
9.09001e+07
9.2024e+07
9.05073e+07
9.15877e+07
9.0116e+07
9.11531e+07
8.97252e+07
9.07191e+07
8.93341e+07
1.44755e+08
1.39767e+08
1.3939e+08
1.34612e+08
1.34598e+08
1.30015e+08
1.30323e+08
1.25922e+08
1.26513e+08
1.22282e+08
1.23119e+08
1.19049e+08
1.20099e+08
1.1618e+08
1.17411e+08
1.13636e+08
1.15019e+08
1.11379e+08
1.12889e+08
1.09379e+08
1.10991e+08
1.07604e+08
1.09298e+08
1.06028e+08
1.07785e+08
1.04626e+08
1.06429e+08
1.03378e+08
1.05213e+08
1.02262e+08
1.04116e+08
1.01264e+08
1.03125e+08
1.00366e+08
1.02226e+08
9.95553e+07
1.01406e+08
9.88204e+07
1.00654e+08
9.81504e+07
9.99611e+07
9.75362e+07
9.93193e+07
9.69696e+07
9.8721e+07
9.64435e+07
9.81599e+07
9.59519e+07
9.76305e+07
9.54892e+07
9.71278e+07
9.50508e+07
9.66476e+07
9.46325e+07
9.61862e+07
9.42308e+07
9.57404e+07
9.38426e+07
9.53072e+07
9.34652e+07
9.48844e+07
9.30962e+07
9.44696e+07
9.27337e+07
9.40611e+07
9.23759e+07
9.36572e+07
9.20212e+07
9.32565e+07
9.16684e+07
9.28577e+07
9.13163e+07
9.24598e+07
9.0964e+07
9.20619e+07
9.06107e+07
9.16632e+07
9.02555e+07
9.12628e+07
8.98981e+07
1.39479e+08
1.34671e+08
1.34427e+08
1.29819e+08
1.29942e+08
1.2552e+08
1.25967e+08
1.21718e+08
1.22449e+08
1.18362e+08
1.19339e+08
1.15405e+08
1.16593e+08
1.12803e+08
1.1417e+08
1.10516e+08
1.12032e+08
1.08507e+08
1.10145e+08
1.06743e+08
1.08478e+08
1.05193e+08
1.07005e+08
1.03831e+08
1.057e+08
1.02633e+08
1.04542e+08
1.01576e+08
1.03511e+08
1.00641e+08
1.02589e+08
9.98121e+07
1.01762e+08
9.90735e+07
1.01016e+08
9.84123e+07
1.00339e+08
9.7817e+07
9.97219e+07
9.72775e+07
9.91546e+07
9.6785e+07
9.86298e+07
9.63319e+07
9.81405e+07
9.59116e+07
9.76809e+07
9.55184e+07
9.7246e+07
9.51474e+07
9.68312e+07
9.47942e+07
9.64328e+07
9.44553e+07
9.60474e+07
9.41274e+07
9.56722e+07
9.38078e+07
9.53049e+07
9.34942e+07
9.49431e+07
9.31847e+07
9.45852e+07
9.28775e+07
9.42297e+07
9.25712e+07
9.3875e+07
9.22646e+07
9.35203e+07
9.19566e+07
9.31643e+07
9.16465e+07
9.28065e+07
9.13334e+07
9.2446e+07
9.10168e+07
9.20822e+07
9.06962e+07
9.17148e+07
9.03712e+07
1.34099e+08
1.29476e+08
1.29363e+08
1.24931e+08
1.25189e+08
1.20934e+08
1.21518e+08
1.17428e+08
1.18297e+08
1.14362e+08
1.15476e+08
1.11685e+08
1.13008e+08
1.09355e+08
1.10853e+08
1.07329e+08
1.08972e+08
1.0557e+08
1.07331e+08
1.04045e+08
1.05898e+08
1.02723e+08
1.04647e+08
1.01577e+08
1.03551e+08
1.00582e+08
1.02591e+08
9.97175e+07
1.01745e+08
9.89636e+07
1.00998e+08
9.83039e+07
1.00334e+08
9.77239e+07
9.97408e+07
9.72108e+07
9.92069e+07
9.67538e+07
9.87225e+07
9.63431e+07
9.82792e+07
9.59707e+07
9.78698e+07
9.56293e+07
9.74879e+07
9.53128e+07
9.71281e+07
9.50162e+07
9.6786e+07
9.47348e+07
9.64574e+07
9.4465e+07
9.61391e+07
9.42034e+07
9.58281e+07
9.39473e+07
9.5522e+07
9.36945e+07
9.52188e+07
9.3443e+07
9.49168e+07
9.31912e+07
9.46143e+07
9.29376e+07
9.43103e+07
9.26813e+07
9.40037e+07
9.24212e+07
9.36937e+07
9.21566e+07
9.33794e+07
9.1887e+07
9.30605e+07
9.16118e+07
9.27364e+07
9.13308e+07
9.24068e+07
9.10435e+07
9.20714e+07
9.07498e+07
1.28628e+08
1.24196e+08
1.24212e+08
1.19962e+08
1.20352e+08
1.16271e+08
1.16989e+08
1.13065e+08
1.14068e+08
1.10291e+08
1.11539e+08
1.079e+08
1.09353e+08
1.05844e+08
1.0747e+08
1.04083e+08
1.05848e+08
1.02578e+08
1.04455e+08
1.01294e+08
1.03258e+08
1.00201e+08
1.02229e+08
9.92715e+07
1.01343e+08
9.84808e+07
1.0058e+08
9.78077e+07
9.99199e+07
9.72336e+07
9.93462e+07
9.67422e+07
9.88447e+07
9.63192e+07
9.84028e+07
9.59527e+07
9.80099e+07
9.5632e+07
9.76568e+07
9.53482e+07
9.73356e+07
9.50936e+07
9.70396e+07
9.48617e+07
9.67631e+07
9.46468e+07
9.65012e+07
9.44444e+07
9.62498e+07
9.42505e+07
9.60055e+07
9.40618e+07
9.57654e+07
9.38754e+07
9.55269e+07
9.36891e+07
9.52882e+07
9.35011e+07
9.50475e+07
9.33097e+07
9.48034e+07
9.31136e+07
9.45549e+07
9.2912e+07
9.4301e+07
9.27039e+07
9.40411e+07
9.24887e+07
9.37745e+07
9.22661e+07
9.35008e+07
9.20355e+07
9.32197e+07
9.17969e+07
9.2931e+07
9.15501e+07
9.26345e+07
9.12949e+07
9.23302e+07
9.10315e+07
1.23082e+08
1.18845e+08
1.18986e+08
1.14923e+08
1.15442e+08
1.11542e+08
1.1239e+08
1.0864e+08
1.09773e+08
1.06163e+08
1.07539e+08
1.04059e+08
1.05639e+08
1.02282e+08
1.04029e+08
1.00788e+08
1.0267e+08
9.95375e+07
1.01525e+08
9.84964e+07
1.00564e+08
9.76331e+07
9.97577e+07
9.69201e+07
9.90822e+07
9.6333e+07
9.85158e+07
9.58508e+07
9.80398e+07
9.54552e+07
9.76381e+07
9.51302e+07
9.7297e+07
9.48624e+07
9.70045e+07
9.46401e+07
9.67505e+07
9.44534e+07
9.65265e+07
9.4294e+07
9.63251e+07
9.41547e+07
9.61402e+07
9.40296e+07
9.59668e+07
9.39138e+07
9.58004e+07
9.38032e+07
9.56376e+07
9.36942e+07
9.54753e+07
9.35841e+07
9.53112e+07
9.34706e+07
9.51433e+07
9.33519e+07
9.497e+07
9.32264e+07
9.47899e+07
9.3093e+07
9.46022e+07
9.29509e+07
9.44059e+07
9.27992e+07
9.42006e+07
9.26376e+07
9.39859e+07
9.24658e+07
9.37614e+07
9.22834e+07
9.35269e+07
9.20905e+07
9.32825e+07
9.18871e+07
9.30281e+07
9.16732e+07
9.27638e+07
9.14489e+07
9.24898e+07
9.12146e+07
1.17473e+08
1.13435e+08
1.13698e+08
1.09828e+08
1.10473e+08
1.06758e+08
1.07735e+08
1.04163e+08
1.05424e+08
1.01986e+08
1.03487e+08
1.00173e+08
1.01875e+08
9.86765e+07
1.0054e+08
9.74514e+07
9.94441e+07
9.64577e+07
9.85494e+07
9.56599e+07
9.78243e+07
9.50263e+07
9.72407e+07
9.45293e+07
9.67739e+07
9.41447e+07
9.64029e+07
9.38517e+07
9.61093e+07
9.36325e+07
9.58776e+07
9.34717e+07
9.56946e+07
9.33564e+07
9.5549e+07
9.32756e+07
9.54313e+07
9.32201e+07
9.53337e+07
9.31821e+07
9.52494e+07
9.31552e+07
9.5173e+07
9.31342e+07
9.51e+07
9.31146e+07
9.50266e+07
9.30929e+07
9.49499e+07
9.30662e+07
9.48673e+07
9.30322e+07
9.4777e+07
9.29891e+07
9.46774e+07
9.29355e+07
9.45673e+07
9.28703e+07
9.4446e+07
9.27928e+07
9.43127e+07
9.27025e+07
9.4167e+07
9.25989e+07
9.40087e+07
9.2482e+07
9.38377e+07
9.23517e+07
9.36539e+07
9.22081e+07
9.34574e+07
9.20514e+07
9.32485e+07
9.18817e+07
9.30274e+07
9.16995e+07
9.27942e+07
9.15049e+07
9.25494e+07
9.12985e+07
1.11816e+08
1.07979e+08
1.08363e+08
1.04689e+08
1.05457e+08
1.01932e+08
1.03034e+08
9.96465e+07
1.01032e+08
9.77715e+07
9.93946e+07
9.62523e+07
9.80708e+07
9.50382e+07
9.70135e+07
9.40835e+07
9.61809e+07
9.3347e+07
9.55361e+07
9.27923e+07
9.50467e+07
9.23877e+07
9.46843e+07
9.21053e+07
9.44246e+07
9.19214e+07
9.42469e+07
9.18154e+07
9.41334e+07
9.177e+07
9.4069e+07
9.17705e+07
9.40413e+07
9.18046e+07
9.40396e+07
9.18622e+07
9.40552e+07
9.19345e+07
9.40809e+07
9.20147e+07
9.41107e+07
9.20971e+07
9.41399e+07
9.21768e+07
9.41644e+07
9.22503e+07
9.41812e+07
9.23146e+07
9.41878e+07
9.23673e+07
9.41824e+07
9.24066e+07
9.41634e+07
9.24313e+07
9.41298e+07
9.24403e+07
9.40809e+07
9.24331e+07
9.40162e+07
9.24093e+07
9.39355e+07
9.23687e+07
9.38386e+07
9.23113e+07
9.37256e+07
9.22372e+07
9.35967e+07
9.21468e+07
9.34522e+07
9.20403e+07
9.32925e+07
9.19182e+07
9.31178e+07
9.1781e+07
9.29288e+07
9.16291e+07
9.27258e+07
9.14631e+07
9.25094e+07
9.12835e+07
1.06122e+08
1.0249e+08
1.0299e+08
9.95164e+07
1.00405e+08
9.70754e+07
9.82983e+07
9.51008e+07
9.66066e+07
9.35304e+07
9.52708e+07
9.23065e+07
9.42373e+07
9.13765e+07
9.34577e+07
9.06929e+07
9.2889e+07
9.02135e+07
9.24935e+07
8.99014e+07
9.22384e+07
8.97243e+07
9.20955e+07
8.96547e+07
9.20407e+07
8.96688e+07
9.20536e+07
8.97469e+07
9.21171e+07
8.98721e+07
9.22169e+07
9.00305e+07
9.23411e+07
9.02105e+07
9.24799e+07
9.04028e+07
9.26254e+07
9.05994e+07
9.2771e+07
9.07943e+07
9.29116e+07
9.09823e+07
9.3043e+07
9.11595e+07
9.3162e+07
9.13228e+07
9.3266e+07
9.14699e+07
9.33532e+07
9.15989e+07
9.34221e+07
9.17088e+07
9.34719e+07
9.17985e+07
9.3502e+07
9.18676e+07
9.3512e+07
9.1916e+07
9.35018e+07
9.19435e+07
9.34716e+07
9.19505e+07
9.34216e+07
9.19372e+07
9.33522e+07
9.19041e+07
9.3264e+07
9.18517e+07
9.31573e+07
9.17808e+07
9.30329e+07
9.16918e+07
9.28913e+07
9.15856e+07
9.27333e+07
9.14628e+07
9.25595e+07
9.13242e+07
9.23706e+07
9.11704e+07
1.00405e+08
9.69792e+07
9.75931e+07
9.43223e+07
9.53286e+07
9.2198e+07
9.35398e+07
9.05367e+07
9.21598e+07
8.92729e+07
9.11266e+07
8.83459e+07
9.03843e+07
8.7701e+07
8.98825e+07
8.72887e+07
8.95771e+07
8.7066e+07
8.94297e+07
8.6995e+07
8.94071e+07
8.70435e+07
8.94813e+07
8.71838e+07
8.96284e+07
8.7393e+07
8.98287e+07
8.76516e+07
9.00657e+07
8.79436e+07
9.03259e+07
8.8256e+07
9.05982e+07
8.85779e+07
9.08737e+07
8.89008e+07
9.11453e+07
8.92178e+07
9.14072e+07
8.95234e+07
9.16549e+07
8.98133e+07
9.18851e+07
9.00843e+07
9.20952e+07
9.0334e+07
9.22833e+07
9.05606e+07
9.2448e+07
9.0763e+07
9.25886e+07
9.09403e+07
9.27045e+07
9.10923e+07
9.27957e+07
9.1219e+07
9.28622e+07
9.13204e+07
9.29044e+07
9.1397e+07
9.29227e+07
9.14493e+07
9.29178e+07
9.14781e+07
9.28903e+07
9.14841e+07
9.28409e+07
9.14681e+07
9.27706e+07
9.14309e+07
9.26802e+07
9.13736e+07
9.25705e+07
9.1297e+07
9.24424e+07
9.12021e+07
9.22967e+07
9.10897e+07
9.21344e+07
9.09607e+07
9.46753e+07
9.14574e+07
9.21825e+07
8.91174e+07
9.02389e+07
8.7311e+07
8.8769e+07
8.59648e+07
8.77018e+07
8.50092e+07
8.69723e+07
8.43805e+07
8.65216e+07
8.40212e+07
8.62975e+07
8.38801e+07
8.62544e+07
8.39128e+07
8.63532e+07
8.4081e+07
8.65607e+07
8.43523e+07
8.68488e+07
8.46994e+07
8.71943e+07
8.50997e+07
8.75781e+07
8.55348e+07
8.79845e+07
8.59893e+07
8.84009e+07
8.64512e+07
8.88171e+07
8.69106e+07
8.92251e+07
8.73598e+07
8.96185e+07
8.77928e+07
8.99927e+07
8.8205e+07
9.03437e+07
8.85929e+07
9.06691e+07
8.89539e+07
9.09668e+07
8.92864e+07
9.12356e+07
8.95892e+07
9.14748e+07
8.98616e+07
9.1684e+07
9.01035e+07
9.18634e+07
9.0315e+07
9.20131e+07
9.04964e+07
9.21338e+07
9.06484e+07
9.22262e+07
9.07717e+07
9.2291e+07
9.08673e+07
9.23291e+07
9.09361e+07
9.23417e+07
9.09792e+07
9.23297e+07
9.09977e+07
9.22942e+07
9.09927e+07
9.22364e+07
9.09655e+07
9.21572e+07
9.09171e+07
9.20579e+07
9.08488e+07
9.19393e+07
9.07614e+07
9.18027e+07
9.06562e+07
8.89449e+07
8.59357e+07
8.67692e+07
8.39121e+07
8.51465e+07
8.24248e+07
8.39964e+07
8.13953e+07
8.32434e+07
8.07497e+07
8.28183e+07
8.04204e+07
8.26594e+07
8.03469e+07
8.27122e+07
8.04762e+07
8.29299e+07
8.07626e+07
8.32725e+07
8.11673e+07
8.37068e+07
8.1658e+07
8.42052e+07
8.22079e+07
8.47449e+07
8.2795e+07
8.53077e+07
8.34018e+07
8.58789e+07
8.40141e+07
8.64467e+07
8.46206e+07
8.70021e+07
8.52126e+07
8.7538e+07
8.57834e+07
8.80489e+07
8.63278e+07
8.8531e+07
8.68422e+07
8.89813e+07
8.73239e+07
8.93979e+07
8.7771e+07
8.97796e+07
8.81826e+07
9.01257e+07
8.8558e+07
9.04362e+07
8.88973e+07
9.07112e+07