/*--------------------------------*- C++ -*----------------------------------*\
| =========                 |                                                 |
| \\      /  F ield         | OpenFOAM: The Open Source CFD Toolbox           |
|  \\    /   O peration     | Version:  v2012                                 |
|   \\  /    A nd           | Website:  www.openfoam.com                      |
|    \\/     M anipulation  |                                                 |
\*---------------------------------------------------------------------------*/
FoamFile
{
    version     2.0;
    format      ascii;
    class       volVectorField;
    location    "15";
    object      D;
}
// * * * * * * * * * * * * * * * * * * * * * * * * * * * * * * * * * * * * * //

dimensions      [0 1 0 0 0 0 0];


internalField   nonuniform List<vector> 
500
(
(0.000804776 -0.00152556 0)
(0.00104206 -0.00146744 0)
(0.000554543 -0.00193277 0)
(0.000682011 -0.00192618 0)
(0.000411199 -0.00219668 0)
(0.00043864 -0.00213423 0)
(0.000289364 -0.00228878 0)
(0.000278099 -0.00220103 0)
(0.000177983 -0.00229151 0)
(0.000194563 -0.0022087 0)
(0.00127252 -0.00162627 0)
(0.00138256 -0.00169792 0)
(0.0011593 -0.00180797 0)
(0.00120152 -0.0017534 0)
(0.000962941 -0.00187217 0)
(0.000975927 -0.00174885 0)
(0.000756654 -0.00188547 0)
(0.000777553 -0.00174294 0)
(0.000583523 -0.00189338 0)
(0.000627514 -0.00174667 0)
(0.00173594 -0.00157269 0)
(0.00175648 -0.00145206 0)
(0.00150212 -0.00151638 0)
(0.00152173 -0.00137917 0)
(0.00129018 -0.00147591 0)
(0.00131987 -0.00132935 0)
(0.00111187 -0.00144712 0)
(0.00115192 -0.0012905 0)
(0.000961865 -0.00142776 0)
(0.00102601 -0.00126916 0)
(0.00199159 -0.00127469 0)
(0.00202035 -0.00114248 0)
(0.00179374 -0.00117999 0)
(0.00183884 -0.00104001 0)
(0.00161727 -0.00110481 0)
(0.00167595 -0.000950615 0)
(0.00146114 -0.0010418 0)
(0.00153136 -0.000875053 0)
(0.00132821 -0.000984504 0)
(0.00140888 -0.00081608 0)
(0.00229854 -0.000978755 0)
(0.00234897 -0.000829668 0)
(0.00211451 -0.000859015 0)
(0.00218361 -0.00070106 0)
(0.00196296 -0.00076559 0)
(0.00204423 -0.000595314 0)
(0.00183456 -0.000694259 0)
(0.00192414 -0.000503342 0)
(0.00172862 -0.000645739 0)
(0.00182508 -0.000425512 0)
(0.00257312 -0.000696139 0)
(0.00263463 -0.00056469 0)
(0.00243174 -0.00057088 0)
(0.00251566 -0.000423393 0)
(0.00232036 -0.000469451 0)
(0.00241593 -0.000301424 0)
(0.0022401 -0.000399729 0)
(0.00233185 -0.000187979 0)
(0.00218609 -0.000388316 0)
(0.00223982 -8.83203e-05 0)
(0.00276656 -0.000465921 0)
(0.00281922 -0.000370167 0)
(0.00268283 -0.000368368 0)
(0.0027585 -0.000250711 0)
(0.00260864 -0.000293908 0)
(0.00270327 -0.000140659 0)
(0.0025391 -0.000239772 0)
(0.00265012 -2.7734e-05 0)
(0.00245708 -0.000191401 0)
(0.002571 8.97801e-05 0)
(0.00287209 -0.000295311 0)
(0.00290854 -0.000231611 0)
(0.00283587 -0.000232585 0)
(0.00289309 -0.00014852 0)
(0.00279771 -0.00018251 0)
(0.00287441 -6.58806e-05 0)
(0.002755 -0.000140056 0)
(0.00285107 2.21566e-05 0)
(0.00269095 -9.74069e-05 0)
(0.0028027 0.000121067 0)
(0.00291264 -0.000166585 0)
(0.00293196 -0.000124103 0)
(0.00290889 -0.000137621 0)
(0.00294231 -7.97678e-05 0)
(0.00289879 -0.000114133 0)
(0.00294685 -3.27182e-05 0)
(0.00288167 -9.27832e-05 0)
(0.00294595 1.78816e-05 0)
(0.00284583 -6.63045e-05 0)
(0.00292584 7.81872e-05 0)
(0.00291926 -6.28935e-05 0)
(0.00292526 -3.1699e-05 0)
(0.00293686 -6.21242e-05 0)
(0.00294717 -1.93544e-05 0)
(0.00294828 -6.28794e-05 0)
(0.00296445 -4.04467e-06 0)
(0.00295478 -6.0194e-05 0)
(0.0029763 1.12222e-05 0)
(0.00295182 -4.58227e-05 0)
(0.00297318 2.89921e-05 0)
(0.00295655 1.12079e-05 0)
(0.00295593 3.6989e-05 0)
(0.00289384 4.76546e-05 0)
(0.00289694 7.55888e-05 0)
(0.00277689 5.38946e-05 0)
(0.00278554 8.14406e-05 0)
(0.00259063 1.0544e-05 0)
(0.00259249 4.33397e-05 0)
(0.00234486 -0.000186301 0)
(0.00231578 -0.000114091 0)
(0.00292951 -1.15985e-05 0)
(0.00291378 2.32891e-05 0)
(0.00287154 -2.15836e-05 0)
(0.00285975 6.4074e-06 0)
(0.00276885 -7.70834e-05 0)
(0.00275952 -5.42249e-05 0)
(0.00259301 -0.000192532 0)
(0.00258963 -0.000173462 0)
(0.00228903 -0.000332338 0)
(0.00229281 -0.00032119 0)
(0.00291429 -2.58924e-05 0)
(0.00290633 6.23086e-06 0)
(0.00285393 -6.69727e-05 0)
(0.00285413 -4.55904e-05 0)
(0.00273877 -0.000129467 0)
(0.00274722 -0.000116022 0)
(0.00253184 -0.000203605 0)
(0.0025458 -0.0001983 0)
(0.00225267 -0.000266354 0)
(0.00226436 -0.000263877 0)
(0.00291889 -2.65461e-05 0)
(0.00292097 -2.78633e-06 0)
(0.00284747 -6.90635e-05 0)
(0.00285716 -5.51089e-05 0)
(0.00271526 -0.000108964 0)
(0.00273224 -0.000106529 0)
(0.0025214 -0.000144894 0)
(0.00253984 -0.000149581 0)
(0.00230337 -0.000187466 0)
(0.0023193 -0.000191416 0)
(0.00293182 -1.8586e-05 0)
(0.00294064 -7.7966e-06 0)
(0.00285889 -4.5602e-05 0)
(0.00287158 -4.15379e-05 0)
(0.00273034 -6.87164e-05 0)
(0.00274682 -7.33647e-05 0)
(0.00256461 -9.54441e-05 0)
(0.00258274 -0.000104093 0)
(0.00238944 -0.000133924 0)
(0.00240726 -0.000141467 0)
(0.00295262 -8.87951e-06 0)
(0.0029658 -1.11276e-05 0)
(0.00288937 -2.16219e-05 0)
(0.00290349 -2.71591e-05 0)
(0.00277744 -3.7524e-05 0)
(0.00279325 -4.69495e-05 0)
(0.00263883 -6.335e-05 0)
(0.00265633 -7.35547e-05 0)
(0.00249508 -0.000100806 0)
(0.00251352 -0.000109115 0)
(0.0029875 -8.29495e-07 0)
(0.00300422 -1.21719e-05 0)
(0.00293781 -5.31417e-06 0)
(0.00295324 -1.6911e-05 0)
(0.00284519 -1.80514e-05 0)
(0.00286082 -2.9581e-05 0)
(0.0027305 -4.32644e-05 0)
(0.00274713 -5.29095e-05 0)
(0.00261115 -7.9832e-05 0)
(0.00262915 -8.66228e-05 0)
(0.00304054 5.35881e-06 0)
(0.00305948 -9.28083e-06 0)
(0.00300356 5.19899e-06 0)
(0.0030185 -6.68906e-06 0)
(0.00292818 -5.94922e-06 0)
(0.00294187 -1.49194e-05 0)
(0.00283269 -2.96131e-05 0)
(0.0028471 -3.50544e-05 0)
(0.00273139 -6.37149e-05 0)
(0.00274788 -6.56966e-05 0)
(0.00311043 1.11049e-05 0)
(0.00312979 -5.23893e-07 0)
(0.00308466 1.46847e-05 0)
(0.00309667 9.42019e-06 0)
(0.00302271 6.88591e-06 0)
(0.00303245 6.36294e-06 0)
(0.00294013 -1.24578e-05 0)
(0.0029514 -8.81744e-06 0)
(0.00284989 -4.18457e-05 0)
(0.00286427 -3.48426e-05 0)
(0.00318857 1.81408e-05 0)
(0.00321232 1.34346e-05 0)
(0.00317562 3.49482e-05 0)
(0.00318892 4.0563e-05 0)
(0.00312248 3.94735e-05 0)
(0.00313221 5.27606e-05 0)
(0.00304706 2.91555e-05 0)
(0.00305767 4.69472e-05 0)
(0.00296348 6.40955e-06 0)
(0.00297695 2.61624e-05 0)
(0.00192726 -0.000572035 0)
(0.00196734 -0.000409967 0)
(0.00177571 -0.000614282 0)
(0.00181574 -0.000502251 0)
(0.00165213 -0.000650453 0)
(0.00169333 -0.000561721 0)
(0.00154264 -0.00068398 0)
(0.00158332 -0.000604536 0)
(0.00144022 -0.000716102 0)
(0.00147933 -0.000640136 0)
(0.00134234 -0.000747279 0)
(0.00138098 -0.000673616 0)
(0.00124881 -0.000777859 0)
(0.00128949 -0.000707391 0)
(0.00115928 -0.000808823 0)
(0.00120499 -0.000742362 0)
(0.00108933 -0.000826768 0)
(0.00113658 -0.000774746 0)
(0.0010221 -0.0008621 0)
(0.00107724 -0.000814478 0)
(0.00202738 -0.000438588 0)
(0.00209724 -0.000375255 0)
(0.00192007 -0.000468723 0)
(0.00197989 -0.00040082 0)
(0.00181592 -0.000499608 0)
(0.00186891 -0.000430621 0)
(0.00171729 -0.000529069 0)
(0.00176752 -0.000462005 0)
(0.00162479 -0.00055608 0)
(0.00166212 -0.000498825 0)
(0.00154433 -0.000583513 0)
(0.00158417 -0.000531263 0)
(0.00147068 -0.000610415 0)
(0.00151314 -0.000563029 0)
(0.00140407 -0.000638665 0)
(0.00144917 -0.000594761 0)
(0.00134345 -0.000668978 0)
(0.00139277 -0.000627612 0)
(0.00128828 -0.000701144 0)
(0.00134282 -0.000661452 0)
(0.0020566 -0.000320657 0)
(0.00213087 -0.000301848 0)
(0.00198871 -0.000341808 0)
(0.00205606 -0.000323044 0)
(0.00192309 -0.000365543 0)
(0.00198355 -0.000344719 0)
(0.00185954 -0.000390612 0)
(0.00191403 -0.000367243 0)
(0.00179857 -0.000416815 0)
(0.00184745 -0.00039 0)
(0.00173881 -0.000443834 0)
(0.00178491 -0.000414636 0)
(0.00168158 -0.000471171 0)
(0.00172705 -0.000440859 0)
(0.0016282 -0.000498797 0)
(0.00167452 -0.000468363 0)
(0.00157939 -0.000527016 0)
(0.00162766 -0.000497201 0)
(0.00153569 -0.000556298 0)
(0.00158679 -0.000527115 0)
(0.00214621 -0.000232763 0)
(0.00221461 -0.000225034 0)
(0.00209359 -0.000253392 0)
(0.00215677 -0.000245919 0)
(0.00204355 -0.000275263 0)
(0.00210192 -0.000266984 0)
(0.00199577 -0.000297715 0)
(0.00205003 -0.000288295 0)
(0.00195023 -0.000320618 0)
(0.00200132 -0.000310049 0)
(0.00190687 -0.000344155 0)
(0.0019558 -0.000332393 0)
(0.00186588 -0.000368387 0)
(0.00191368 -0.000355479 0)
(0.00182777 -0.000393329 0)
(0.00187535 -0.000379482 0)
(0.00179323 -0.000419065 0)
(0.00184142 -0.000404522 0)
(0.00176318 -0.00044574 0)
(0.00181259 -0.000430237 0)
(0.0022626 -0.000175163 0)
(0.00232314 -0.000172454 0)
(0.00221903 -0.000195538 0)
(0.002276 -0.00019289 0)
(0.00217804 -0.000216673 0)
(0.00223186 -0.000213473 0)
(0.00213932 -0.000238026 0)
(0.00219062 -0.00023413 0)
(0.00210278 -0.000259604 0)
(0.00215222 -0.000254993 0)
(0.00206847 -0.000281553 0)
(0.00211663 -0.000276222 0)
(0.0020367 -0.00030382 0)
(0.00208431 -0.0002988 0)
(0.00200823 -0.000326603 0)
(0.00205579 -0.000321017 0)
(0.00198327 -0.000350029 0)
(0.00203106 -0.000343753 0)
(0.00196255 -0.000374076 0)
(0.00201079 -0.000366735 0)
(0.00239045 -0.000139714 0)
(0.00244366 -0.000138034 0)
(0.00235232 -0.00015944 0)
(0.00240338 -0.000157744 0)
(0.0023166 -0.00017982 0)
(0.00236588 -0.00017766 0)
(0.00228291 -0.000200371 0)
(0.00233096 -0.000197689 0)
(0.00225111 -0.000220943 0)
(0.00229872 -0.000217857 0)
(0.00222355 -0.000241829 0)
(0.00226957 -0.000238468 0)
(0.00219677 -0.000262855 0)
(0.00224296 -0.000259262 0)
(0.00217303 -0.000284145 0)
(0.00221937 -0.000280343 0)
(0.00215279 -0.000305693 0)
(0.00219916 -0.000301562 0)
(0.00213661 -0.000327338 0)
(0.00218286 -0.000322681 0)
(0.00252264 -0.000116625 0)
(0.00256909 -0.000113188 0)
(0.00248755 -0.000135096 0)
(0.00253322 -0.000131811 0)
(0.00245476 -0.000154091 0)
(0.00250015 -0.000150717 0)
(0.00242407 -0.000173169 0)
(0.00246791 -0.000168247 0)
(0.00239528 -0.00019284 0)
(0.00243929 -0.000187765 0)
(0.00236875 -0.000212622 0)
(0.00241293 -0.000207457 0)
(0.00234452 -0.00023258 0)
(0.00238892 -0.000227378 0)
(0.00232294 -0.000252654 0)
(0.00236746 -0.000247431 0)
(0.00230448 -0.000272662 0)
(0.00234882 -0.000267363 0)
(0.00228966 -0.000292315 0)
(0.0023334 -0.000286976 0)
(0.00265401 -9.75068e-05 0)
(0.00269437 -8.85197e-05 0)
(0.00261997 -0.000114013 0)
(0.00266063 -0.000105086 0)
(0.00258808 -0.000131236 0)
(0.00262907 -0.000122202 0)
(0.00255828 -0.000148959 0)
(0.00259978 -0.000139664 0)
(0.00253034 -0.000167023 0)
(0.00257236 -0.000157509 0)
(0.00250435 -0.000185393 0)
(0.00254684 -0.00017577 0)
(0.00248047 -0.000204035 0)
(0.00252328 -0.000194417 0)
(0.00245894 -0.000222821 0)
(0.00250181 -0.000213303 0)
(0.00244004 -0.000241492 0)
(0.00248255 -0.00023213 0)
(0.00242404 -0.000259703 0)
(0.00246558 -0.000250753 0)
(0.00277931 -7.13776e-05 0)
(0.0028147 -5.39328e-05 0)
(0.00274451 -8.55517e-05 0)
(0.00278162 -6.89085e-05 0)
(0.00271199 -0.000100614 0)
(0.00275059 -8.46001e-05 0)
(0.00268168 -0.000116316 0)
(0.00272157 -0.000100823 0)
(0.00265361 -0.000132584 0)
(0.00269452 -0.000117529 0)
(0.00262776 -0.000149402 0)
(0.00266936 -0.000134699 0)
(0.00260412 -0.000166724 0)
(0.00264599 -0.000152292 0)
(0.00258258 -0.000184426 0)
(0.00262426 -0.00017022 0)
(0.00256295 -0.000202266 0)
(0.00260399 -0.000188348 0)
(0.00254486 -0.000219854 0)
(0.00258476 -0.000206454 0)
(0.00289921 -1.91115e-05 0)
(0.00292952 8.4739e-06 0)
(0.00286248 -3.36015e-05 0)
(0.00289525 -7.00626e-06 0)
(0.00282831 -4.89268e-05 0)
(0.0028629 -2.40489e-05 0)
(0.00279695 -6.49022e-05 0)
(0.00283309 -4.21759e-05 0)
(0.00276857 -8.13732e-05 0)
(0.00280599 -6.09827e-05 0)
(0.0027432 -9.8233e-05 0)
(0.00278158 -8.01283e-05 0)
(0.00272071 -0.000115366 0)
(0.00275966 -9.93111e-05 0)
(0.00270077 -0.000132642 0)
(0.00273986 -0.000118266 0)
(0.00268287 -0.000149918 0)
(0.00272163 -0.000136783 0)
(0.00266626 -0.000167052 0)
(0.00270428 -0.000154767 0)
(0.000121345 -0.00226279 0)
(0.000156797 -0.00219989 0)
(0.000103055 -0.00224661 0)
(0.000133138 -0.00219532 0)
(9.03635e-05 -0.00223301 0)
(0.000117246 -0.00219094 0)
(8.02444e-05 -0.00222277 0)
(0.000105598 -0.00218704 0)
(7.03117e-05 -0.00221662 0)
(9.56216e-05 -0.00218377 0)
(5.84098e-05 -0.00221485 0)
(8.56125e-05 -0.00218109 0)
(4.23834e-05 -0.0022174 0)
(7.45347e-05 -0.00217915 0)
(2.01539e-05 -0.0022239 0)
(6.20315e-05 -0.00217843 0)
(-9.91239e-06 -0.00223338 0)
(4.86024e-05 -0.00217932 0)
(-4.82254e-05 -0.00224334 0)
(3.55188e-05 -0.00218064 0)
(0.000478689 -0.00190181 0)
(0.000529361 -0.00176967 0)
(0.000421798 -0.00192011 0)
(0.000462747 -0.00179955 0)
(0.000375479 -0.00193553 0)
(0.000410907 -0.00182624 0)
(0.000335861 -0.0019498 0)
(0.000368142 -0.00184936 0)
(0.000298212 -0.00196419 0)
(0.000328787 -0.00186914 0)
(0.00025781 -0.00197966 0)
(0.000288603 -0.00188667 0)
(0.000211141 -0.00199687 0)
(0.000244382 -0.00190355 0)
(0.000155643 -0.00201594 0)
(0.000193532 -0.00192144 0)
(9.02196e-05 -0.00203621 0)
(0.000134275 -0.00194165 0)
(1.57304e-05 -0.00205644 0)
(6.56651e-05 -0.00196509 0)
(0.000853144 -0.00143011 0)
(0.000927381 -0.00129984 0)
(0.000770334 -0.00146603 0)
(0.00084224 -0.00134928 0)
(0.000703248 -0.00150375 0)
(0.000768054 -0.00139611 0)
(0.000642755 -0.00153913 0)
(0.00069375 -0.00143292 0)
(0.000579135 -0.00156903 0)
(0.000622287 -0.00146505 0)
(0.000512973 -0.00159676 0)
(0.000552284 -0.0014947 0)
(0.000442989 -0.00162378 0)
(0.000480112 -0.00152255 0)
(0.000366934 -0.00165069 0)
(0.000402844 -0.0015498 0)
(0.000283478 -0.00167825 0)
(0.000318261 -0.00157794 0)
(0.000191899 -0.00170738 0)
(0.000224572 -0.00160853 0)
(0.00122779 -0.000969684 0)
(0.00130688 -0.000850386 0)
(0.00113674 -0.00104459 0)
(0.00121225 -0.000933629 0)
(0.00104805 -0.00110774 0)
(0.0011127 -0.00100045 0)
(0.0009561 -0.0011535 0)
(0.00101387 -0.00105399 0)
(0.000868431 -0.00118964 0)
(0.000918748 -0.00109747 0)
(0.000786365 -0.00122169 0)
(0.00083032 -0.0011362 0)
(0.000706221 -0.00125097 0)
(0.00074517 -0.00117063 0)
(0.000624747 -0.0012795 0)
(0.000659551 -0.00120231 0)
(0.000539658 -0.00130967 0)
(0.000570525 -0.00123381 0)
(0.000449711 -0.00134372 0)
(0.000476132 -0.00126686 0)
(0.0016236 -0.000724488 0)
(0.00171598 -0.000528419 0)
(0.00149336 -0.000740411 0)
(0.00156673 -0.00061991 0)
(0.00138172 -0.000778959 0)
(0.00144061 -0.000688914 0)
(0.00127824 -0.000823013 0)
(0.00132669 -0.000746552 0)
(0.00117935 -0.000866535 0)
(0.00122008 -0.000797116 0)
(0.00108362 -0.000907409 0)
(0.00111857 -0.000842608 0)
(0.000990579 -0.000945383 0)
(0.00102134 -0.000884379 0)
(0.000899888 -0.000981404 0)
(0.000927669 -0.000923913 0)
(0.000811622 -0.00101745 0)
(0.00083695 -0.000963066 0)
(0.000723648 -0.00105316 0)
(0.000751571 -0.00100341 0)
)
;

boundaryField
{
    back
    {
        type            empty;
    }
    front
    {
        type            empty;
    }
    left
    {
        type            symmetry;
    }
    hole
    {
        type            calculated;
        value           nonuniform List<vector> 10((0.00102317 -0.00103546 1.73884e-20) (0.00128059 -0.00151951 2.64605e-20) (0.00182414 -0.00156412 3.10092e-20) (0.00206538 -0.00130901 -1.43771e-20) (0.00236896 -0.00103509 -1.623e-20) (0.00262358 -0.000755412 9.17597e-21) (0.00279125 -0.000511679 -3.9042e-21) (0.00287724 -0.000322631 0) (0.00290746 -0.000177597 -2.94714e-21) (0.00291024 -6.32313e-05 -1.44649e-21));
    }
    down
    {
        type            symmetry;
    }
    right
    {
        type            calculated;
        value           nonuniform List<vector> 
15
(
(0.00324172 1.82415e-05 6.35538e-21)
(0.00321894 6.12601e-05 2.77374e-21)
(0.00316387 8.31454e-05 0)
(0.00309238 8.20879e-05 1.0692e-20)
(0.00301544 6.16673e-05 -7.71785e-21)
(0.00296938 4.72379e-05 -1.70699e-20)
(0.00293541 2.93074e-05 -1.45815e-20)
(0.00290357 9.39318e-06 0)
(0.00287425 -1.18316e-05 -1.71108e-20)
(0.00284755 -3.37933e-05 1.62915e-21)
(0.00282344 -5.59856e-05 4.70179e-21)
(0.00280175 -7.79266e-05 -2.70745e-20)
(0.00278217 -9.91344e-05 -1.05188e-20)
(0.00276425 -0.00011918 -1.52897e-20)
(0.00274723 -0.000137054 -4.83655e-21)
)
;
    }
    up
    {
        type            calculated;
        value           nonuniform List<vector> 
15
(
(0.00105968 -0.000826981 0)
(0.00132726 -0.000671992 -7.71234e-22)
(0.0015749 -0.000536585 -1.36954e-21)
(0.00180494 -0.000438999 7.17014e-25)
(0.00200582 -0.000374701 0)
(0.00217911 -0.0003299 -1.52547e-22)
(0.00232985 -0.000293649 1.30946e-22)
(0.00246121 -0.000257083 3.69724e-22)
(0.00257903 -0.00021237 -4.1802e-22)
(0.00269858 -0.000160437 -4.99564e-22)
(2.01232e-05 -0.00218555 1.13398e-21)
(3.5582e-05 -0.00197047 0)
(0.000187827 -0.0016159 6.38949e-21)
(0.000441169 -0.00127687 -2.21162e-21)
(0.000726044 -0.00101824 -1.31447e-21)
)
;
    }
}


// ************************************************************************* //
