/*--------------------------------*- C++ -*----------------------------------*\
| =========                 |                                                 |
| \\      /  F ield         | OpenFOAM: The Open Source CFD Toolbox           |
|  \\    /   O peration     | Version:  v2012                                 |
|   \\  /    A nd           | Website:  www.openfoam.com                      |
|    \\/     M anipulation  |                                                 |
\*---------------------------------------------------------------------------*/
FoamFile
{
    version     2.0;
    format      ascii;
    class       volSymmTensorField;
    location    "15";
    object      epsilon;
}
// * * * * * * * * * * * * * * * * * * * * * * * * * * * * * * * * * * * * * //

dimensions      [0 0 0 0 0 0 0];


internalField   nonuniform List<symmTensor> 
500
(
(0.0250351 -0.00577255 -1.4294e-18 -0.0265981 1.67385e-19 5.2538e-35)
(0.00770978 -0.00110465 -5.69107e-19 -0.00563039 1.37178e-19 0)
(0.0130874 -0.00245914 0 -0.0100017 0 0)
(0.00603478 -0.00094203 4.93381e-19 -0.00478424 3.59003e-19 0)
(0.00754269 -0.00116843 1.11979e-18 -0.00489181 3.90223e-19 0)
(0.00377041 -0.000413624 1.94577e-19 -0.00214595 1.77313e-19 0)
(0.00429559 -0.000422331 0 -0.00198443 0 0)
(0.00246645 -0.00015079 7.68679e-19 -0.000657625 5.29886e-19 0)
(0.0027077 -1.314e-05 7.50576e-19 -0.000681369 3.56979e-19 0)
(0.00208534 4.47259e-05 1.85699e-19 -0.000248609 4.16182e-19 0)
(0.00392105 -0.00225655 -7.77401e-19 -0.00434273 3.25665e-19 2.22761e-34)
(0.00482318 -0.00212184 -8.81233e-19 -0.0038293 1.21346e-19 0)
(0.00396709 -0.00164446 -1.0038e-18 -0.0015798 -3.53388e-19 0)
(0.00260551 -0.0010623 5.26606e-19 -0.00207929 3.60658e-19 0)
(0.00333126 -0.00105541 1.77851e-19 -0.000919051 3.23966e-19 0)
(0.00179334 -0.000504288 -1.52663e-19 -0.00116429 1.27487e-19 0)
(0.00288891 -0.000493508 -2.60743e-19 -0.00098728 -8.11791e-19 0)
(0.00182405 -0.000132061 -7.03736e-19 -0.00105862 -1.23696e-18 0)
(0.00255468 -7.85456e-06 -4.96778e-19 -0.001114 -1.32342e-19 0)
(0.00197614 0.000214399 2.38543e-19 -0.00105195 3.84067e-19 0)
(0.00217997 -0.00201104 6.35336e-19 -0.00104918 -4.2266e-20 -2.1414e-36)
(0.00124039 -0.000708799 -3.82143e-19 -0.000314972 2.89833e-19 0)
(0.00147429 -0.000852069 -6.05636e-20 -0.000281312 -1.3398e-19 0)
(0.00118712 -0.00051982 5.66742e-19 -0.000600516 -5.66425e-20 0)
(0.00157531 -0.000524224 1.99751e-19 -0.000771423 -3.56287e-20 0)
(0.00135749 -0.000272174 -7.03688e-20 -0.000827046 -1.9574e-19 0)
(0.00173642 -0.000211102 6.72792e-19 -0.000982044 7.37515e-19 0)
(0.00147091 -2.78399e-05 -6.44107e-20 -0.00100822 1.71009e-19 0)
(0.00204671 0.000100728 -1.6322e-19 -0.00128061 -1.80561e-19 0)
(0.00173074 0.000188209 0 -0.00118076 0 0)
(0.00067985 -0.000666031 2.97169e-20 -0.000132525 -1.20568e-19 -4.884e-35)
(0.00094172 -0.000512213 -9.38961e-19 -0.000272386 -6.01263e-19 0)
(0.00114341 -0.000503826 -1.00044e-18 -0.000212843 -1.20276e-18 0)
(0.00111455 -0.000356883 2.1337e-19 -0.000564388 -9.5754e-19 0)
(0.00136518 -0.000348856 2.75564e-19 -0.000521255 5.31679e-19 0)
(0.00128806 -0.000194 6.42687e-19 -0.00069793 8.86377e-19 0)
(0.00148846 -0.000185632 3.24073e-19 -0.000822294 3.2441e-19 0)
(0.0014606 -3.05324e-05 -2.32505e-20 -0.000689682 2.06788e-19 0)
(0.0015509 -1.85226e-05 -1.73887e-19 -0.00112662 -3.37639e-19 0)
(0.00160094 0.000125202 -7.10242e-21 -0.000631166 -1.8772e-19 0)
(0.00049643 -0.000512797 8.00222e-20 0.000213792 -2.11977e-19 -7.62267e-35)
(0.000509525 -0.000162843 -2.48639e-19 -0.000463371 -3.75108e-19 0)
(0.0008689 -0.000385858 -5.37638e-19 -0.000481954 -7.6252e-19 0)
(0.000951428 -0.000120404 -8.14144e-19 -0.000712991 -8.57831e-19 0)
(0.00109333 -0.000269121 -7.26405e-19 -0.000841049 -1.59349e-19 0)
(0.00119997 -7.70852e-05 9.58434e-20 -0.00094675 -5.4015e-20 0)
(0.00123876 -0.000128203 1.28022e-19 -0.00110764 -6.17082e-20 0)
(0.00140273 -3.50954e-06 -9.19237e-20 -0.00116501 3.18217e-20 0)
(0.00140025 6.32429e-05 -1.13465e-19 -0.00145957 3.27124e-20 0)
(0.00139034 9.23187e-05 -2.72251e-19 -0.0016563 -1.93561e-19 0)
(0.00020173 -4.71257e-05 1.27653e-19 -1.96382e-05 -5.57345e-20 2.42126e-35)
(0.000178754 0.000166725 5.00982e-19 -0.000609427 1.15462e-19 0)
(0.000682549 -0.000217715 8.14849e-19 -0.00050912 5.37926e-19 0)
(0.00076653 0.000107863 2.63948e-19 -0.000612553 2.92076e-19 0)
(0.000951291 -0.00017781 3.42649e-19 -0.000869756 2.68835e-19 0)
(0.00113684 0.000164776 2.19409e-19 -0.000809943 3.47265e-19 0)
(0.00104277 5.9521e-05 1.90251e-19 -0.00126377 1.56282e-19 0)
(0.00119843 0.000338378 0 -0.00156472 0 0)
(0.000529564 0.000403752 0 -0.002075 0 0)
(0.00146951 3.89024e-05 -1.70352e-19 -0.00094286 -1.76449e-19 0)
(0.000136261 0.000338888 7.28379e-20 -0.000468988 -1.73925e-19 -2.10279e-35)
(3.54504e-05 0.000345921 5.23242e-20 -0.00084504 -3.26195e-19 0)
(0.000464304 1.61125e-05 5.17836e-20 -0.000489027 -1.26393e-19 0)
(0.000436948 0.000184734 -3.27251e-20 -0.000851319 7.29091e-20 0)
(0.000678535 -5.57331e-05 -1.01054e-20 -0.000719535 3.02571e-19 0)
(0.000676017 0.000182774 2.22896e-19 -0.00104102 2.33385e-19 0)
(0.00077259 6.63541e-05 4.50633e-19 -0.00106944 3.32484e-19 0)
(0.000642654 0.000364942 4.34455e-19 -0.00129683 3.16164e-19 0)
(0.000314281 0.000122855 7.32122e-19 -0.00157943 6.67966e-19 0)
(0.00107451 4.90878e-05 1.40213e-19 -0.000398265 2.29818e-19 0)
(0.000302605 0.000460717 0 -0.00083959 0 0)
(8.71972e-05 0.000375958 0 -0.00100316 0 0)
(0.000389218 0.000210751 -4.039e-20 -0.000573009 -1.47497e-19 0)
(0.000297841 0.000230053 -2.01869e-19 -0.000936176 -2.13779e-19 0)
(0.000457081 9.42446e-05 -3.91656e-19 -0.000630519 -2.3024e-19 0)
(0.000423242 0.00021958 -2.43558e-19 -0.00102263 -2.29546e-19 0)
(0.00046322 6.68204e-05 -5.94686e-19 -0.000795935 -4.69585e-19 0)
(0.000286716 0.00027173 -2.23737e-19 -0.00118961 -3.77449e-19 0)
(8.92929e-05 -6.81786e-06 -2.57115e-19 -0.00104817 6.99009e-20 0)
(0.000519104 -1.05126e-05 9.3547e-20 -0.000385808 2.6644e-20 0)
(0.000467466 0.000353787 1.39188e-20 -0.00106438 -1.26227e-19 -1.28842e-35)
(0.000211447 0.000272091 -6.24972e-21 -0.00109051 -3.11652e-20 0)
(0.000399468 0.000262904 0 -0.000720102 0 0)
(0.000248546 0.000174322 0 -0.000995523 0 0)
(0.000356788 0.000166086 1.77915e-19 -0.000647441 2.48324e-19 0)
(0.000260126 0.000151289 1.71724e-19 -0.00102818 2.72819e-19 0)
(0.000306422 7.66933e-05 2.84878e-19 -0.000655528 1.85225e-19 0)
(8.89984e-05 0.000158117 4.97827e-20 -0.00111219 8.69468e-20 0)
(-1.24872e-05 -3.19701e-05 -7.44154e-21 -0.00067577 -1.3457e-19 0)
(0.000120031 -1.97308e-05 -3.13239e-20 -0.000477102 -6.86431e-20 0)
(0.000532337 0.000132763 -1.31842e-20 -0.00110381 3.42351e-20 -1.14901e-35)
(0.000352834 7.18439e-05 -4.14177e-20 -0.00110358 -5.0471e-20 0)
(0.000449099 0.000173154 2.94787e-20 -0.000852821 2.12084e-19 0)
(0.000246399 3.56695e-06 3.90737e-20 -0.00105407 2.43926e-19 0)
(0.000371787 0.000140734 -1.62715e-20 -0.000746933 -1.81899e-20 0)
(0.000162199 -2.21929e-05 5.47567e-21 -0.00103728 4.92962e-20 0)
(0.000271422 6.73403e-05 -2.4268e-20 -0.000634065 -4.40296e-20 0)
(-1.6368e-05 1.95734e-05 -2.09837e-20 -0.000931263 -3.43125e-20 0)
(-2.8855e-05 -4.82008e-06 -6.43528e-21 -0.000402513 1.51073e-20 0)
(-0.000131603 1.14905e-05 7.82725e-21 -0.000406771 -1.84204e-20 0)
(-0.000217496 -3.31338e-05 6.197e-21 0.000457159 2.23507e-20 0)
(2.42901e-06 -0.000172613 -4.4867e-21 0.000468304 5.26606e-21 0)
(-5.69633e-05 -0.00027715 1.14091e-20 0.000402497 -1.50411e-20 0)
(0.000239635 -0.000327611 0 0.000457104 0 0)
(0.000287701 -0.000519197 -1.37564e-20 0.000202463 1.90744e-20 0)
(0.000604738 -0.000459649 1.78387e-20 0.000395229 -4.28534e-21 0)
(0.000962601 -0.000674377 -4.49422e-20 2.89405e-05 2.40777e-20 0)
(0.000808914 -0.000435648 1.11079e-19 7.23862e-05 -1.62235e-20 0)
(0.00167134 -0.000661857 -1.69123e-19 -5.78792e-05 2.79598e-20 0)
(0.00125636 -0.000457612 -1.06891e-19 -0.000559789 2.32515e-19 0)
(-0.00033969 -2.76314e-05 0 0.000217121 0 0)
(-5.70174e-05 -0.000121818 1.25214e-20 0.000246958 -3.3058e-21 0)
(-0.000153203 -0.000230436 -1.7356e-20 0.000253215 -1.66749e-21 0)
(9.41633e-05 -0.000244203 -6.72845e-20 7.58827e-05 7.9387e-21 0)
(7.38955e-05 -0.000441761 2.15473e-20 0.000115006 -3.03319e-21 0)
(0.000300857 -0.000311571 3.76061e-20 -0.000172107 -5.70626e-21 0)
(0.000467175 -0.000643306 1.05456e-19 -6.47405e-05 2.67229e-20 0)
(0.000672137 -0.000381148 1.15542e-19 -0.000295867 -4.62818e-21 0)
(0.000886345 -0.000781956 -8.30702e-20 -0.000277125 4.0548e-21 0)
(0.00100445 -0.000317938 1.07288e-19 -0.000534099 6.73607e-20 0)
(-6.85833e-05 -4.65987e-05 0 -3.07038e-05 0 0)
(0.00011291 -5.60699e-05 1.04786e-20 -3.90122e-07 1.11528e-20 0)
(0.000103914 -0.000139776 1.00388e-20 -5.0306e-05 1.21004e-21 0)
(0.000279449 -0.000148669 -1.27071e-20 -0.000129192 -1.94566e-20 0)
(0.000311432 -0.000239252 -3.06804e-20 -0.000166137 -1.96061e-21 0)
(0.000572215 -0.000247568 -1.51686e-20 -0.000246123 -2.45398e-20 0)
(0.000537201 -0.000327041 3.42072e-20 -0.000339388 1.43915e-20 0)
(0.000949761 -0.000323038 6.98609e-21 -0.000317719 -8.62229e-21 0)
(0.000874147 -0.000404441 3.9373e-20 -0.000376301 -8.80514e-21 0)
(0.00112604 -0.000299507 5.42757e-20 -0.000427987 9.22347e-21 0)
(0.000112281 -6.7864e-06 -3.89112e-21 -0.000158902 1.54834e-20 0)
(0.000257762 -7.03906e-05 1.17659e-20 -0.000102633 -1.81514e-20 0)
(0.000252082 -6.70928e-05 -6.66759e-21 -0.000197404 -1.89052e-21 0)
(0.000487746 -0.000179283 4.66486e-20 -0.000138836 3.41531e-20 0)
(0.000413369 -0.000168318 2.51036e-20 -0.000292555 1.3151e-20 0)
(0.000774299 -0.000287437 -6.64476e-21 -0.000234535 -1.04111e-21 0)
(0.00069859 -0.000284363 -9.92014e-21 -0.000367556 -4.23965e-21 0)
(0.00101101 -0.000331357 -3.29839e-20 -0.000370125 -9.40439e-21 0)
(0.00103301 -0.000357456 9.29605e-20 -0.000385888 3.29274e-20 0)
(0.00113003 -0.000316659 -5.51444e-20 -0.000452083 -1.38491e-20 0)
(0.000160895 1.76543e-05 5.06514e-21 -0.000179903 3.03231e-21 0)
(0.0003528 -0.000125131 -4.40533e-20 -0.000113608 -1.57503e-20 0)
(0.000346172 -9.09435e-05 -2.11562e-20 -0.0002081 -1.10957e-20 0)
(0.000593209 -0.000251038 -5.43924e-20 -0.000145747 -2.54392e-20 0)
(0.000541847 -0.00021368 2.15765e-21 -0.000290356 4.6646e-21 0)
(0.000827119 -0.000338047 7.61881e-20 -0.000258206 2.536e-20 0)
(0.00081323 -0.000318288 -6.87758e-20 -0.000344208 -3.30457e-20 0)
(0.000997629 -0.000352043 -6.60149e-20 -0.00038016 -3.95745e-20 0)
(0.00103096 -0.000354716 6.18403e-20 -0.000386718 3.41525e-20 0)
(0.00108981 -0.000323372 -5.10096e-20 -0.000451679 1.36264e-20 0)
(0.000209015 1.84234e-05 1.19995e-20 -0.00016054 -7.54898e-21 0)
(0.000437977 -0.000166892 4.84521e-20 -0.000116108 7.96547e-21 0)
(0.000430926 -0.000144349 3.17802e-20 -0.000172481 1.18349e-21 0)
(0.000648671 -0.000295157 -6.04726e-20 -0.000177497 -1.86491e-20 0)
(0.00064525 -0.000269396 5.35128e-20 -0.000251152 2.6171e-20 0)
(0.000834319 -0.000359288 -7.13315e-21 -0.000285606 1.85922e-20 0)
(0.000856201 -0.000340066 -5.87062e-20 -0.000314478 -3.18273e-20 0)
(0.000965242 -0.000355339 -5.06894e-20 -0.000375185 -3.51943e-20 0)
(0.00100344 -0.000348178 9.72114e-20 -0.000363181 1.26408e-20 0)
(0.00103881 -0.000316912 -4.15874e-22 -0.000429141 -1.19689e-20 0)
(0.000313288 8.51292e-06 -3.3272e-20 -0.000125819 1.31256e-20 0)
(0.000531303 -0.000180664 4.62139e-22 -0.000121009 1.42569e-20 0)
(0.000506267 -0.000173685 -3.27493e-20 -0.000133338 -9.23376e-21 0)
(0.000695826 -0.000303137 9.92693e-21 -0.0001963 -5.33454e-21 0)
(0.000695844 -0.000288398 3.48484e-20 -0.000205848 7.11891e-21 0)
(0.000834549 -0.000353585 1.15414e-19 -0.000287997 1.87824e-20 0)
(0.000854509 -0.00033638 -4.2906e-20 -0.000271759 -2.31314e-20 0)
(0.0009273 -0.00034288 6.93978e-20 -0.000353521 -1.2099e-20 0)
(0.000959695 -0.000330309 -1.1562e-20 -0.00032368 -9.30458e-21 0)
(0.000981037 -0.000300644 1.80737e-20 -0.000392356 -1.02038e-20 0)
(0.000441434 -2.12185e-06 3.64931e-20 -6.529e-05 -2.83124e-21 0)
(0.000610749 -0.000169904 1.20752e-20 -0.000110052 -1.88261e-21 0)
(0.000560003 -0.000172598 4.99316e-20 -8.14107e-05 -6.7773e-21 0)
(0.000727679 -0.000282646 -9.48016e-21 -0.000182795 -1.91399e-20 0)
(0.000703804 -0.000272779 5.05735e-20 -0.000148171 1.06535e-20 0)
(0.00082086 -0.000323201 -4.67828e-20 -0.000255644 3.29086e-21 0)
(0.000823085 -0.000308081 0 -0.0002108 0 0)
(0.000878317 -0.000307902 7.40449e-20 -0.000306774 1.53723e-20 0)
(0.000903789 -0.000295335 1.4954e-20 -0.000263677 -3.05366e-21 0)
(0.000912019 -0.000262467 -5.50565e-20 -0.000340149 -2.34022e-20 0)
(0.000552954 -6.32951e-06 3.53989e-20 4.851e-05 9.42125e-21 0)
(0.000634035 -0.000132358 5.63563e-20 -6.28798e-05 -1.13594e-20 0)
(0.000588263 -0.000141669 2.24942e-20 7.03662e-06 -1.61991e-22 0)
(0.00072491 -0.00021964 1.4019e-21 -0.000130438 1.44859e-21 0)
(0.000689255 -0.000223073 3.95529e-21 -6.36911e-05 8.59739e-23 0)
(0.000781737 -0.000242131 -8.59727e-20 -0.000200067 -2.42153e-20 0)
(0.000781172 -0.000247866 -7.64352e-20 -0.000129391 -1.88531e-20 0)
(0.000819172 -0.000221314 2.14238e-20 -0.000253841 5.96582e-21 0)
(0.000842355 -0.000236032 -2.45538e-20 -0.00019303 -7.68389e-21 0)
(0.000843403 -0.000177136 -1.06356e-19 -0.000294596 -4.48858e-20 0)
(0.000650496 1.39415e-05 -1.06447e-19 0.000230445 -2.27611e-20 0)
(0.000684977 -8.21167e-05 -3.46597e-20 0.000145952 -2.74145e-21 -1.9078e-35)
(0.000651356 -6.15742e-05 -4.98972e-20 0.000173758 5.14835e-22 0)
(0.000708922 -8.96351e-05 -1.50155e-20 3.67488e-05 -5.98042e-21 -1.6013e-36)
(0.000718345 -0.000119392 -3.32406e-21 8.35584e-05 5.36053e-21 0)
(0.000745574 -7.25766e-05 0 -8.93246e-05 0 0)
(0.00076858 -0.00013519 -3.4056e-20 -3.88989e-05 -5.62112e-20 0)
(0.000787312 -5.01255e-05 -5.59582e-20 -0.000193625 -1.17639e-19 -4.51942e-35)
(0.000800889 -0.000129787 -6.06708e-20 -0.000150838 2.49839e-21 0)
(0.000810547 -2.39446e-05 4.16101e-20 -0.000277617 7.68457e-20 -1.93939e-35)
(0.00189001 -0.000487725 7.44656e-20 -0.000202898 1.75632e-19 0)
(0.00121119 -0.000465021 -4.36447e-20 -0.000509832 4.99619e-20 0)
(0.00168185 -0.000455128 4.80614e-20 -0.000312219 1.22883e-19 0)
(0.00128883 -0.000421469 2.06265e-19 -0.000546508 1.79732e-19 0)
(0.00164043 -0.00045968 2.29677e-19 -0.000321667 1.19933e-19 0)
(0.00132844 -0.000388431 0 -0.000566973 0 0)
(0.00163126 -0.000455198 -4.02463e-20 -0.000335054 2.88419e-20 0)
(0.00134209 -0.000360416 -1.56333e-20 -0.000569944 2.70916e-20 0)
(0.0016277 -0.000438667 5.60633e-20 -0.000381795 8.76417e-20 0)
(0.00135045 -0.00032959 -1.33579e-20 -0.000566089 2.67124e-20 0)
(0.00164238 -0.000398213 -5.8584e-20 -0.000461165 -8.62758e-20 0)
(0.00139739 -0.000299407 -2.42272e-19 -0.000564475 -2.16174e-19 0)
(0.00169126 -0.000335857 -1.29368e-19 -0.000558365 -1.12568e-19 0)
(0.00147791 -0.000272885 1.54575e-19 -0.000585351 4.88451e-20 0)
(0.00178208 -0.000264115 2.91393e-19 -0.000652228 2.05829e-19 0)
(0.00152469 -0.000229596 5.78931e-20 -0.000634511 3.11535e-20 0)
(0.0018659 -0.000171339 -6.30372e-20 -0.000725721 -1.93658e-20 0)
(0.00158982 -0.000149289 2.00513e-19 -0.000719131 1.36266e-19 0)
(0.00204299 -6.08873e-05 2.07408e-19 -0.000883964 1.31798e-19 0)
(0.00174533 -4.98822e-05 0 -0.000758342 0 0)
(0.00147176 -0.000748249 8.79098e-20 -0.000259593 4.84014e-20 0)
(0.00108684 -0.000441564 9.9133e-20 -0.000540786 9.27354e-20 0)
(0.00152641 -0.000641524 2.13054e-20 -0.000418216 -1.15439e-20 0)
(0.00113061 -0.000404714 0 -0.000551366 0 0)
(0.00148598 -0.000525736 4.8878e-20 -0.000530278 6.73897e-20 0)
(0.00119357 -0.000361733 1.07372e-19 -0.000526299 1.01468e-19 0)
(0.00146288 -0.000422075 7.87288e-20 -0.000579392 3.50777e-20 0)
(0.00127948 -0.000325385 -1.24426e-19 -0.000486583 -7.69355e-20 0)
(0.00139534 -0.000332782 -5.14559e-20 -0.000620007 -7.77243e-20 0)
(0.00124009 -0.000281033 1.16814e-19 -0.000524962 7.38186e-20 0)
(0.00136494 -0.000276089 6.58313e-20 -0.000644464 3.46899e-20 0)
(0.00131925 -0.000241612 5.42109e-20 -0.000529405 4.04243e-20 0)
(0.00144382 -0.000231921 6.40779e-20 -0.000647176 7.07481e-20 0)
(0.00138277 -0.000195696 3.50059e-19 -0.000570739 2.5232e-19 0)
(0.00152279 -0.000176578 2.43527e-19 -0.000660003 1.48334e-19 0)
(0.00143793 -0.000149244 5.6925e-20 -0.00062357 3.86629e-20 0)
(0.00158316 -0.000110254 -4.7122e-20 -0.000689777 -2.67265e-20 0)
(0.00150412 -9.8438e-05 1.27688e-19 -0.000670752 8.48988e-20 0)
(0.00164649 -3.69807e-05 2.84428e-19 -0.000720608 1.7967e-19 0)
(0.00163258 -3.85323e-05 4.28699e-20 -0.000661083 2.40088e-21 -4.25647e-36)
(0.00101306 -0.000431665 -5.72691e-21 -0.000451413 3.47648e-21 0)
(0.00123048 -0.000340397 2.04772e-19 -0.000460523 9.22869e-20 0)
(0.00113772 -0.000433302 1.9096e-19 -0.000451568 9.04291e-20 0)
(0.00121608 -0.00033049 2.58459e-19 -0.000513621 1.21089e-19 0)
(0.00120982 -0.00041372 2.60245e-19 -0.000463243 1.20852e-19 0)
(0.00120383 -0.000312194 2.07607e-19 -0.000536461 1.03473e-19 0)
(0.00126379 -0.000378308 2.69305e-19 -0.000481656 1.26257e-19 0)
(0.00119921 -0.000284333 4.09436e-21 -0.000554534 4.65804e-21 0)
(0.00134718 -0.000333407 5.80252e-20 -0.000490086 3.64021e-20 0)
(0.00120101 -0.000264472 5.53141e-20 -0.000564165 3.16715e-20 0)
(0.00136619 -0.000275791 1.66005e-19 -0.000528881 8.60648e-20 0)
(0.0012283 -0.000233044 -1.00048e-19 -0.000567002 -5.46913e-20 0)
(0.00139486 -0.000217762 -1.10348e-19 -0.000563259 -5.91209e-20 0)
(0.00127098 -0.000191579 6.42914e-24 -0.000572631 -1.96294e-21 0)
(0.00142883 -0.000157646 2.32712e-19 -0.000593108 1.34864e-19 0)
(0.00132151 -0.000144921 1.60917e-19 -0.000586953 9.20711e-20 0)
(0.0014649 -9.51445e-05 3.03391e-19 -0.000625955 1.7642e-19 0)
(0.00137688 -9.38042e-05 2.84768e-19 -0.000612844 1.60211e-19 0)
(0.00150634 -2.8715e-05 2.52233e-19 -0.000653563 1.45887e-19 0)
(0.00149516 -3.99582e-05 1.04225e-19 -0.000593721 4.26342e-21 -6.29877e-36)
(0.00109569 -0.000347566 -1.37621e-19 -0.000474992 -5.46966e-20 0)
(0.00122841 -0.00031576 -5.87924e-20 -0.000452802 -1.31521e-20 0)
(0.00113801 -0.000333148 -4.52896e-20 -0.000478042 -1.71525e-20 0)
(0.00120585 -0.000300516 4.43578e-20 -0.000479057 1.82934e-20 0)
(0.00114991 -0.000313542 5.28992e-20 -0.000479916 1.98592e-20 0)
(0.00118796 -0.000283169 1.46859e-19 -0.000489193 4.73417e-20 0)
(0.00116819 -0.000290423 9.97178e-20 -0.000482717 3.86615e-20 0)
(0.00117663 -0.000262934 1.45278e-19 -0.000496037 4.92594e-20 0)
(0.00119542 -0.000263683 -1.56366e-21 -0.000489308 1.64613e-21 0)
(0.00117402 -0.000241281 -8.7308e-20 -0.000506847 -3.6267e-20 0)
(0.00122894 -0.000232213 -1.51761e-19 -0.00050002 -6.11955e-20 0)
(0.00118042 -0.000215158 -5.84634e-20 -0.000518963 -1.61028e-20 0)
(0.0012664 -0.000194899 -3.44271e-20 -0.000514794 -1.8691e-20 0)
(0.00119526 -0.000182233 1.46197e-19 -0.000531943 5.61725e-20 0)
(0.00130552 -0.000151415 5.98503e-20 -0.000534073 2.4532e-20 0)
(0.0012181 -0.00014143 1.69714e-20 -0.000547431 -7.1371e-22 0)
(0.00134561 -0.000100387 -5.06405e-20 -0.000556839 -2.22874e-20 0)
(0.00124547 -9.06795e-05 -4.66187e-20 -0.000566689 -1.94813e-20 0)
(0.001386 -3.9333e-05 -1.26981e-19 -0.000571822 -4.90127e-20 0)
(0.00131802 -2.9206e-05 -2.49197e-20 -0.000557326 -2.23222e-24 -1.97861e-39)
(0.00108617 -0.000331945 -6.39036e-20 -0.000455725 -2.25384e-20 0)
(0.00117041 -0.000305884 8.55717e-20 -0.000440662 2.52111e-20 0)
(0.00111624 -0.000310734 4.17054e-20 -0.00045942 1.67147e-20 0)
(0.00114957 -0.000285668 -3.92781e-20 -0.000456926 -1.56909e-20 0)
(0.00111766 -0.000286527 -8.39999e-20 -0.000461263 -2.95102e-20 0)
(0.001133 -0.000265493 -4.33338e-20 -0.00046045 -1.057e-20 0)
(0.00112499 -0.000261482 -5.53656e-20 -0.000461336 -9.88072e-21 0)
(0.00112165 -0.000244591 -5.70465e-20 -0.000463769 -6.06985e-21 0)
(0.0011373 -0.000235309 5.70145e-20 -0.000464294 1.04994e-20 0)
(0.00111511 -0.00022122 9.34583e-20 -0.000470161 2.31973e-20 0)
(0.00115367 -0.000207508 1.99674e-19 -0.0004707 5.36724e-20 0)
(0.00112052 -0.000194873 1.9449e-19 -0.000475537 4.32701e-20 0)
(0.00117558 -0.000174594 -3.08114e-20 -0.000480929 -1.47955e-20 0)
(0.00112376 -0.000163063 6.62707e-20 -0.000488178 2.86882e-20 0)
(0.00119927 -0.000139312 -4.48098e-20 -0.000492254 -1.43745e-20 0)
(0.00113017 -0.000123398 0 -0.000501008 0 0)
(0.00122395 -9.67845e-05 -4.52839e-20 -0.000503029 -1.50057e-20 0)
(0.00113678 -7.46592e-05 -2.97913e-20 -0.000513437 -1.83483e-20 0)
(0.00124606 -4.47535e-05 -3.1992e-20 -0.000507583 -1.94182e-20 0)
(0.00116454 -1.50082e-05 0 -0.00051051 0 0)
(0.00104662 -0.000317148 6.07345e-20 -0.000425117 1.94595e-20 0)
(0.00110185 -0.000292418 0 -0.000418327 0 0)
(0.0010707 -0.000292684 4.13428e-20 -0.000429859 9.52579e-21 0)
(0.00108576 -0.000269285 7.73353e-20 -0.000432817 2.24121e-20 0)
(0.00107031 -0.00026663 9.01856e-20 -0.000433341 1.98071e-20 0)
(0.00107391 -0.000247701 1.30829e-19 -0.000436278 2.5573e-20 0)
(0.0010744 -0.000241595 7.66878e-20 -0.000434704 2.51383e-20 0)
(0.00106785 -0.000226716 4.04187e-20 -0.000436618 8.95053e-21 0)
(0.00108505 -0.000214657 1.51104e-20 -0.000437012 -4.58096e-21 0)
(0.00105654 -0.000203375 -1.70785e-20 -0.000439871 -2.04033e-20 0)
(0.00108463 -0.00018579 -1.31271e-19 -0.000445795 -3.20999e-20 0)
(0.00104855 -0.00017317 -1.57674e-19 -0.000445794 -4.36971e-20 0)
(0.00109969 -0.000157776 -2.00891e-19 -0.000450606 -4.01256e-20 0)
(0.00105031 -0.000139713 -5.53026e-20 -0.000451528 1.6424e-20 0)
(0.00110997 -0.000125944 0 -0.000456916 0 0)
(0.00104882 -0.000101473 -2.77472e-20 -0.000457348 -1.56207e-20 0)
(0.0011166 -8.91858e-05 -2.92736e-20 -0.000460243 -1.63564e-20 0)
(0.00104317 -5.6607e-05 -3.79014e-20 -0.000459869 -1.04051e-20 0)
(0.00111825 -4.5883e-05 -6.4385e-20 -0.000458492 -8.06904e-21 0)
(0.00103718 -3.19092e-06 -2.4125e-20 -0.000459894 4.74884e-22 4.20955e-37)
(0.000994426 -0.000295608 -4.80826e-20 -0.000384991 -3.59897e-21 0)
(0.0010269 -0.000272319 -4.71041e-20 -0.000383741 -7.49089e-21 0)
(0.00101634 -0.000268501 -7.42829e-20 -0.000394015 -2.19295e-20 0)
(0.00101644 -0.000246935 -3.87452e-20 -0.000396765 -7.97008e-21 0)
(0.00102159 -0.000239915 5.18955e-20 -0.000400477 3.96967e-21 0)
(0.00101069 -0.000222556 8.46393e-20 -0.000399939 1.64424e-20 0)
(0.00101879 -0.000210455 1.09963e-19 -0.000405798 3.26471e-20 0)
(0.000993713 -0.000195501 0 -0.000408736 0 0)
(0.00101839 -0.000185252 -5.33318e-20 -0.00041098 -5.64003e-21 0)
(0.000991474 -0.000168858 -1.8711e-19 -0.000412138 -5.16549e-20 0)
(0.0010234 -0.000161001 -2.08756e-19 -0.000415155 -5.0902e-20 0)
(0.000987976 -0.000142193 -2.29705e-19 -0.00041681 -6.27689e-20 0)
(0.00102784 -0.000135963 -2.55841e-19 -0.00042057 -6.2448e-20 0)
(0.000983143 -0.000112273 -2.25969e-19 -0.000420382 -4.01707e-20 0)
(0.00102897 -0.000108739 -2.81895e-20 -0.000424174 -1.49555e-20 0)
(0.00097479 -7.82008e-05 2.54018e-20 -0.000420228 1.4668e-20 0)
(0.00102454 -7.85529e-05 2.66487e-20 -0.000422778 1.49988e-20 0)
(0.000960337 -3.88824e-05 -5.80359e-20 -0.000414134 -2.46528e-20 0)
(0.00101233 -4.46986e-05 3.3444e-20 -0.000417669 -7.92189e-21 0)
(0.000924642 7.77329e-06 2.17219e-20 -0.000419091 -4.0764e-22 3.61348e-37)
(0.000934887 -0.000256343 -1.76316e-20 -0.000322605 3.98073e-21 0)
(0.000944637 -0.00023198 -1.99398e-20 -0.00033434 3.66735e-21 0)
(0.000954328 -0.000228645 1.03836e-20 -0.000336324 -1.83047e-21 0)
(0.000937939 -0.00020425 1.09466e-20 -0.000351374 -1.97043e-21 0)
(0.000956237 -0.00020217 -3.65866e-20 -0.000348931 -1.02985e-20 0)
(0.000932148 -0.000176862 -3.55291e-20 -0.000363324 -1.07129e-20 0)
(0.000964917 -0.000177841 0 -0.000355262 0 0)
(0.000929258 -0.000151546 2.97114e-20 -0.000371487 1.40344e-20 0)
(0.00096847 -0.000154002 1.68124e-19 -0.000364031 4.24594e-20 0)
(0.000927587 -0.000126114 9.76458e-20 -0.000378834 1.95046e-20 0)
(0.000970051 -0.000130707 7.27793e-20 -0.000373581 2.23036e-20 0)
(0.000925934 -0.000100186 5.47689e-20 -0.000385555 2.93619e-20 0)
(0.000968621 -0.000107504 2.33124e-19 -0.00038267 7.05386e-20 0)
(0.000922517 -7.33224e-05 1.52883e-19 -0.000389791 5.04713e-20 0)
(0.000962696 -8.41371e-05 8.95151e-20 -0.000388981 4.09025e-20 0)
(0.00091494 -4.52313e-05 0 -0.000388813 0 0)
(0.00095023 -6.07537e-05 5.29016e-20 -0.000389332 9.7266e-21 0)
(0.000899918 -1.57726e-05 8.40905e-20 -0.00038077 2.28043e-20 0)
(0.000928427 -3.84436e-05 -3.39992e-20 -0.000387386 -1.16337e-20 0)
(0.000845265 1.75608e-05 -3.1293e-20 -0.000391925 -1.15097e-21 3.40087e-37)
(0.0008703 -0.000197038 -1.22376e-19 -0.000267847 -4.46633e-20 0)
(0.000880882 -0.000160264 -4.9243e-20 -0.000287737 -2.41521e-20 0)
(0.000895479 -0.00017328 -3.46794e-20 -0.000290518 -1.31645e-20 0)
(0.000882528 -0.000136622 0 -0.000307837 0 0)
(0.000904999 -0.000149559 -7.98563e-20 -0.000308318 -2.86132e-20 0)
(0.000883432 -0.000113475 -4.05287e-20 -0.000322418 -1.78709e-20 0)
(0.000911735 -0.000126659 -1.46032e-19 -0.000321873 -5.58856e-20 0)
(0.000884591 -9.04636e-05 -1.65871e-19 -0.000335203 -7.79341e-20 0)
(0.000916503 -0.00010457 -2.86401e-19 -0.0003341 -1.13362e-19 0)
(0.000886048 -6.77032e-05 -9.26337e-20 -0.000347459 -3.47854e-20 0)
(0.00091836 -8.34015e-05 2.81017e-20 -0.000345645 2.31554e-21 0)
(0.000887349 -4.55062e-05 2.14197e-19 -0.000358675 9.53368e-20 0)
(0.000916052 -6.35669e-05 5.39708e-20 -0.000356069 2.98113e-20 0)
(0.000887634 -2.4601e-05 3.30126e-20 -0.000367391 1.51206e-20 0)
(0.000908236 -4.58003e-05 0 -0.000364478 0 0)
(0.000885943 -6.40654e-06 -1.14283e-19 -0.0003713 -6.19907e-20 0)
(0.000894089 -3.11886e-05 -1.81195e-19 -0.000370099 -7.41721e-20 0)
(0.000881699 6.87761e-06 -9.83621e-20 -0.000367571 -3.34552e-20 0)
(0.000872318 -2.09564e-05 -2.32974e-20 -0.000373723 2.68034e-20 0)
(0.000847288 1.60889e-05 1.54742e-20 -0.000367194 1.30131e-21 1.53804e-36)
(0.000806082 -0.000100244 1.2149e-19 -0.00026247 7.30678e-20 0)
(0.00084706 -3.93579e-05 1.05824e-19 -0.000286736 1.00708e-19 -3.99709e-35)
(0.00083167 -9.34292e-05 2.07016e-19 -0.000296684 1.26964e-19 0)
(0.000869401 -2.85794e-05 9.03972e-20 -0.000310486 9.45319e-20 -4.26801e-35)
(0.000837737 -7.85367e-05 1.2869e-19 -0.000332159 7.49738e-20 0)
(0.000884394 -2.008e-05 0 -0.00032903 0 0)
(0.00084121 -6.20278e-05 1.06366e-19 -0.000358668 6.11744e-20 0)
(0.000895204 -1.31913e-05 1.06078e-19 -0.000343393 8.34142e-20 -4.00667e-35)
(0.000844531 -4.61649e-05 1.63226e-19 -0.000377311 9.18396e-20 0)
(0.00090186 -7.3095e-06 -1.00998e-20 -0.000354929 -8.34715e-21 9.53708e-37)
(0.000847967 -3.15438e-05 -1.02841e-19 -0.000389004 -5.37215e-20 0)
(0.000904294 -2.02636e-06 -2.91485e-20 -0.00036367 -1.58748e-20 -5.50487e-36)
(0.000851026 -1.85448e-05 1.23044e-19 -0.000394258 5.1991e-20 0)
(0.000902697 2.66054e-06 1.67847e-19 -0.000369292 9.74295e-20 -1.10946e-34)
(0.000852874 -7.83695e-06 2.13837e-19 -0.000393594 1.12628e-19 0)
(0.000897752 6.21314e-06 6.52105e-20 -0.00037127 3.24202e-20 -1.84731e-35)
(0.000852543 -5.28605e-07 1.49113e-19 -0.000387986 6.27742e-20 0)
(0.000890744 7.70562e-06 9.47878e-20 -0.000369074 3.74791e-20 -4.47531e-35)
(0.00084988 1.84425e-06 1.64133e-19 -0.000379786 7.49528e-20 0)
(0.000883754 1.12504e-06 2.47078e-20 -0.000361496 7.89602e-21 -6.99933e-36)
(0.00195975 0.000236436 0 -0.000452634 0 0)
(0.00182726 0.00019595 -1.94227e-19 -0.000281449 -1.66597e-19 0)
(0.00161958 0.00033231 -2.602e-19 -0.000368729 -1.3233e-19 0)
(0.00164879 0.000248354 -2.11874e-19 -0.000307846 -2.55207e-19 0)
(0.00142173 0.000354615 0 -0.000253946 0 0)
(0.00151392 0.000275192 7.51663e-20 -0.000354485 6.02477e-20 0)
(0.00128657 0.000335334 2.06099e-19 -0.000189237 9.4114e-20 0)
(0.00141403 0.000285318 1.8294e-19 -0.000413052 2.11357e-19 0)
(0.00118592 0.000288174 -1.07868e-19 -0.000169597 -4.41424e-20 0)
(0.00133926 0.000286396 -1.73692e-19 -0.00046431 -2.01021e-19 0)
(0.00110368 0.00022346 1.96912e-19 -0.000184635 9.25009e-20 0)
(0.00128723 0.000281718 3.32145e-19 -0.000498828 3.85328e-19 0)
(0.00103527 0.000144388 2.25377e-21 -0.000233288 2.72245e-21 0)
(0.00126874 0.000270486 -3.10606e-20 -0.00051394 -5.61171e-20 0)
(0.000987039 5.06556e-05 1.55169e-19 -0.000318418 1.28838e-19 0)
(0.00130474 0.00025158 4.11051e-19 -0.000501034 4.84947e-19 0)
(0.000976568 -5.59734e-05 2.97222e-19 -0.000421192 2.53663e-19 0)
(0.00142265 0.000229506 2.96761e-20 -0.000418673 6.58479e-20 0)
(0.00102737 -0.00016965 -6.39056e-20 -0.000465316 -9.23496e-20 0)
(0.0010801 0.00027632 -1.69632e-20 -0.000527376 -4.056e-21 -6.44127e-36)
(0.00220191 0.000348507 6.07713e-20 -0.00110081 -8.70883e-20 0)
(0.00175466 0.000349697 -4.0307e-20 -0.000855528 -1.81694e-19 0)
(0.00190279 0.00049736 2.33274e-19 -0.000877187 4.59862e-19 0)
(0.00163595 0.000420786 6.01212e-19 -0.000853145 9.93822e-19 0)
(0.00174711 0.000625735 5.80839e-19 -0.000780303 8.72783e-19 0)
(0.00158765 0.000458519 1.69173e-19 -0.000857795 4.54209e-19 0)
(0.00161675 0.000677583 -1.93553e-19 -0.000667644 -3.96039e-19 0)
(0.00156152 0.00046739 1.26979e-19 -0.000859208 -4.41404e-20 0)
(0.00149889 0.000661667 4.55335e-19 -0.000555316 8.28744e-19 0)
(0.00152809 0.000459303 3.65858e-19 -0.000859922 8.23497e-19 0)
(0.0014002 0.000604235 0 -0.000470929 0 0)
(0.00151887 0.000430027 9.69852e-20 -0.000850871 9.83369e-20 0)
(0.00132247 0.00051945 2.26824e-19 -0.000430839 3.17597e-19 0)
(0.00155271 0.000376096 9.53679e-20 -0.000831081 1.44562e-19 0)
(0.00125985 0.000410065 -7.17649e-20 -0.000440334 -1.21512e-19 0)
(0.00163389 0.000301635 4.13611e-19 -0.000797127 5.47262e-19 0)
(0.00119417 0.000277675 2.37563e-19 -0.000494081 5.25939e-19 0)
(0.00174999 0.000214328 3.47948e-19 -0.000745023 6.5099e-19 0)
(0.00108895 0.000115755 2.30092e-19 -0.000588166 3.17275e-19 0)
(0.00172703 8.27781e-05 0 -0.000700285 0 0)
(0.00221929 0.000284215 3.86474e-19 -0.001475 5.36045e-19 0)
(0.00187338 0.000309608 1.80344e-19 -0.00119314 2.93138e-19 0)
(0.00225092 0.000381952 1.03281e-19 -0.00141079 7.84204e-20 0)
(0.00202203 0.000361224 -1.29197e-19 -0.00124952 -1.47137e-19 0)
(0.00220742 0.000470044 -3.49858e-19 -0.00135884 -4.8279e-19 0)
(0.00197434 0.000368526 -5.09152e-19 -0.0011952 -6.1533e-19 0)
(0.00196248 0.000456651 -7.67455e-19 -0.00104351 -1.12141e-18 0)
(0.0017236 0.000318292 -7.81914e-19 -0.000997464 -1.16158e-18 0)
(0.00181114 0.000487495 -9.53498e-19 -0.000897353 -1.31916e-18 0)
(0.00162385 0.000298476 -3.88073e-19 -0.000922454 -6.87188e-19 0)