/*--------------------------------*- C++ -*----------------------------------*\
| =========                 |                                                 |
| \\      /  F ield         | OpenFOAM: The Open Source CFD Toolbox           |
|  \\    /   O peration     | Version:  v2012                                 |
|   \\  /    A nd           | Website:  www.openfoam.com                      |
|    \\/     M anipulation  |                                                 |
\*---------------------------------------------------------------------------*/
FoamFile
{
    version     2.0;
    format      ascii;
    class       volSymmTensorField;
    location    "15";
    object      sigma;
}
// * * * * * * * * * * * * * * * * * * * * * * * * * * * * * * * * * * * * * //

dimensions      [1 -1 -2 0 0 0 0];


internalField   nonuniform List<symmTensor> 
500
(
(7.64802e+07 -1.11298e+07 3.14651e-09 3.60898e+06 -2.07044e-10 7.88443e+07)
(9.09152e+07 -1.14611e+07 4.16819e-10 1.31741e+07 3.68658e-09 8.48074e+07)
(1.38862e+08 -1.25219e+07 0 7.02729e+06 0 1.1237e+08)
(1.354e+08 -1.41001e+07 3.13994e-09 2.97123e+07 5.00108e-09 1.10446e+08)
(1.75608e+08 -1.21203e+07 8.77144e-09 2.32768e+07 6.83074e-09 1.20582e+08)
(1.66989e+08 -1.30015e+07 1.83802e-09 4.36324e+07 4.71891e-09 1.02841e+08)
(1.92966e+08 -7.97236e+06 0 3.71326e+07 0 1.00453e+08)
(1.79689e+08 -8.30147e+06 3.38506e-08 5.1646e+07 2.40294e-08 7.91809e+07)
(1.9947e+08 631237 3.49444e-08 4.16886e+07 1.72719e-08 7.34222e+07)
(1.75321e+08 2.40832e+06 9.99916e-09 4.96468e+07 2.24098e-08 6.30335e+07)
(7.18409e+07 -1.60231e+07 -9.22657e-09 1.22743e+07 9.93492e-09 8.55455e+07)
(9.43549e+07 -2.87091e+07 -2.74336e-09 8.39436e+06 1.46683e-08 7.82126e+07)
(1.30548e+08 -3.90643e+07 -1.7383e-08 3.55667e+07 -4.79307e-09 6.38826e+07)
(1.24407e+08 -3.22455e+07 1.16694e-08 1.78275e+07 9.2409e-09 7.99822e+07)
(1.61948e+08 -3.91436e+07 4.71089e-09 3.73554e+07 1.11955e-08 6.15784e+07)
(1.40473e+08 -2.38358e+07 -7.55402e-09 1.88014e+07 5.92428e-09 6.9449e+07)
(1.72312e+08 -2.22711e+07 -8.63582e-09 2.25339e+07 -3.45857e-08 6.02893e+07)
(1.43191e+08 -7.32264e+06 -3.24275e-08 1.09562e+07 -6.01032e-08 6.07171e+07)
(1.69393e+08 -943788 -2.32343e-08 7.33438e+06 -5.86173e-09 5.68929e+07)
(1.40064e+08 9.40559e+06 1.10848e-08 160374 1.85874e-08 4.95812e+07)
(8.07682e+07 -4.19789e+07 9.93907e-09 2.44803e+07 6.55515e-10 5.28211e+07)
(9.99224e+07 -3.81661e+07 -2.05769e-08 1.6172e+07 1.56064e-08 3.3132e+07)
(1.16101e+08 -4.58807e+07 -3.26112e-09 2.15687e+07 -7.21431e-09 3.67163e+07)
(1.04167e+08 -2.79903e+07 3.05169e-08 7.90972e+06 -3.04998e-09 4.02452e+07)
(1.27578e+08 -2.82275e+07 1.07558e-08 1.21553e+06 -1.91847e-09 4.27537e+07)
(1.11221e+08 -1.46555e+07 -3.78909e-09 -6.408e+06 -1.05399e-08 3.81253e+07)
(1.31767e+08 -1.12772e+07 3.58132e-08 -1.26088e+07 3.93201e-08 3.96122e+07)
(1.1423e+08 -1.49907e+06 -3.46827e-09 -1.92617e+07 9.20818e-09 3.50272e+07)
(1.2846e+08 4.45789e+06 -7.52119e-09 -2.21882e+07 -8.48635e-09 3.68556e+07)
(1.14879e+08 9.21251e+06 0 -2.76308e+07 0 3.09545e+07)
(6.57301e+07 -3.58632e+07 1.60014e-09 2.19869e+07 -6.49213e-09 2.91228e+07)
(7.24712e+07 -2.75807e+07 -5.05594e-08 7.09627e+06 -3.23757e-08 2.17632e+07)
(8.43202e+07 -2.71291e+07 -5.38697e-08 1.12911e+07 -6.47641e-08 2.27518e+07)
(8.27951e+07 -1.92168e+07 1.14891e-08 -7.60918e+06 -5.15598e-08 2.2781e+07)
(9.54168e+07 -1.87846e+07 1.48381e-08 -6.16071e+06 2.86289e-08 2.19069e+07)
(8.8869e+07 -1.04462e+07 3.46062e-08 -1.80687e+07 4.7728e-08 1.95122e+07)
(1.01854e+08 -9.99557e+06 1.74501e-08 -2.25714e+07 1.74682e-08 2.1706e+07)
(9.16742e+07 -1.64405e+06 -1.25195e-09 -2.41102e+07 1.11347e-08 1.30265e+07)
(1.06275e+08 -997369 -9.36317e-09 -3.78983e+07 -1.81805e-08 2.27656e+07)
(9.28283e+07 6.74164e+06 -3.82438e-10 -2.73622e+07 -1.0108e-08 6.62371e+06)
(3.60964e+07 -2.76121e+07 4.30889e-09 2.08774e+07 -1.14141e-08 9.36559e+06)
(4.16116e+07 -8.76848e+06 -1.33882e-08 -1.07751e+07 -2.01981e-08 1.41757e+07)
(6.06398e+07 -2.0777e+07 -2.89497e-08 -1.20986e+07 -4.10588e-08 1.38528e+07)
(6.09814e+07 -6.48327e+06 -4.38385e-08 -2.86412e+07 -4.61909e-08 9.75062e+06)
(7.31289e+07 -1.44912e+07 -3.91141e-08 -3.10302e+07 -8.58031e-09 1.4257e+07)
(7.19379e+07 -4.15074e+06 5.1608e-09 -4.36546e+07 -2.9085e-09 7.32427e+06)
(7.88912e+07 -6.90324e+06 6.89349e-09 -4.74534e+07 -3.32275e-09 1.21885e+07)
(7.65859e+07 -188975 -4.94974e-09 -6.16773e+07 1.71348e-09 1.05427e+06)
(8.43454e+07 3.40539e+06 -6.10968e-09 -6.9645e+07 1.76144e-09 8.94744e+06)
(7.76737e+07 4.971e+06 -1.46597e-08 -8.63763e+07 -1.04225e-08 2.80914e+06)
(9.47538e+06 -2.53754e+06 6.87361e-09 -2.44444e+06 -3.00109e-09 -1.387e+06)
(1.241e+07 8.97752e+06 2.6976e-08 -3.00306e+07 6.21716e-09 2.78473e+06)
(3.58677e+07 -1.17231e+07 4.38765e-08 -2.82991e+07 2.89653e-08 -884907)
(3.54506e+07 5.80802e+06 1.42126e-08 -3.88078e+07 1.57272e-08 -5.82414e+06)
(5.14819e+07 -9.57439e+06 1.84503e-08 -4.65745e+07 1.44757e-08 258507)
(4.99469e+07 8.87257e+06 1.18143e-08 -5.48798e+07 1.86989e-08 -1.12675e+07)
(5.51163e+07 3.20498e+06 1.02443e-08 -6.90819e+07 8.41516e-09 -1.03297e+06)
(5.83811e+07 1.82204e+07 0 -9.0404e+07 0 -6.14955e+06)
(4.90814e+07 2.17405e+07 0 -9.11644e+07 0 2.05664e+07)
(7.26994e+07 2.09474e+06 -9.17282e-09 -5.71972e+07 -9.50108e-09 -6.42787e+06)
(-3.74415e+06 1.82478e+07 3.92204e-09 -3.63345e+07 -9.36519e-09 -1.10813e+07)
(-5.51671e+06 1.86265e+07 2.81746e-09 -5.29277e+07 -1.75644e-08 -7.42558e+06)
(1.06583e+07 867594 2.78835e-09 -4.06749e+07 -6.80575e-09 -1.43427e+07)
(1.17805e+07 9.94721e+06 -1.76212e-09 -5.75878e+07 3.92588e-09 -1.17475e+07)
(2.25254e+07 -3.00101e+06 -5.44139e-10 -5.27553e+07 1.62923e-08 -1.40111e+07)
(2.24152e+07 9.84167e+06 1.20021e-08 -7.00405e+07 1.25669e-08 -1.39857e+07)
(2.83259e+07 3.57291e+06 2.42648e-08 -7.08603e+07 1.7903e-08 -1.32751e+07)
(2.71819e+07 1.96507e+07 2.33937e-08 -7.72521e+07 1.70242e-08 -7.42253e+06)
(3.25517e+07 6.61529e+06 3.94219e-08 -6.94173e+07 3.59674e-08 1.56289e+07)
(4.54538e+07 2.64319e+06 7.5499e-09 -3.38495e+07 1.23748e-08 -1.24045e+07)
(-4.27682e+06 2.48078e+07 0 -6.57796e+07 0 -2.0571e+07)
(-1.16435e+07 2.02439e+07 0 -7.03552e+07 0 -1.63387e+07)
(-3.24984e+06 1.13481e+07 -2.17484e-09 -5.50621e+07 -7.94212e-09 -2.42077e+07)
(-2.47988e+06 1.23875e+07 -1.08699e-08 -6.8927e+07 -1.15112e-08 -1.85175e+07)
(1.05401e+06 5.07471e+06 -2.10891e-08 -5.7509e+07 -1.23976e-08 -2.3558e+07)
(3.98823e+06 1.18235e+07 -1.31147e-08 -7.38667e+07 -1.23602e-08 -1.88017e+07)
(4.91788e+06 3.59802e+06 -3.20216e-08 -6.28828e+07 -2.52854e-08 -2.00247e+07)
(5.7759e+06 1.46316e+07 -1.20474e-08 -7.37189e+07 -2.03242e-08 -9.66267e+06)
(8.86288e+06 -367116 -1.38447e-08 -5.23852e+07 3.76389e-09 4.0548e+06)
(1.68382e+07 -566061 5.03715e-09 -3.18878e+07 1.43468e-09 -1.11135e+07)
(-1.04204e+06 1.90501e+07 7.49474e-10 -8.35263e+07 -6.79684e-09 -2.62133e+07)
(-1.06684e+07 1.46511e+07 -3.36523e-10 -8.07739e+07 -1.67813e-09 -2.2054e+07)
(-7.44078e+06 1.41564e+07 0 -6.77254e+07 0 -2.89506e+07)
(-9.225e+06 9.38657e+06 0 -7.62133e+07 0 -2.26083e+07)
(-9.51172e+06 8.94312e+06 9.58005e-09 -6.35856e+07 1.33713e-08 -2.87234e+07)
(-8.11921e+06 8.14636e+06 9.24668e-09 -7.74895e+07 1.46902e-08 -2.2126e+07)
(-9.44856e+06 4.12964e+06 1.53396e-08 -6.12459e+07 9.97368e-09 -2.59482e+07)
(-8.38639e+06 8.51397e+06 2.68061e-09 -7.3066e+07 4.68175e-09 -1.31786e+07)
(-8.31295e+06 -1.72147e+06 -4.00698e-10 -4.40282e+07 -7.24609e-09 -7.64056e+06)
(-3.0598e+06 -1.06243e+06 -1.68667e-09 -3.52132e+07 -3.69617e-09 -9.52302e+06)
(-556800 7.14877e+06 -7.09916e-10 -8.8657e+07 1.84343e-09 -2.92211e+07)
(-7.21381e+06 3.86852e+06 -2.23019e-09 -8.56359e+07 -2.71767e-09 -2.62125e+07)
(-7.01245e+06 9.32369e+06 1.58731e-09 -7.71158e+07 1.14199e-08 -3.11947e+07)
(-1.16402e+07 192066 2.10397e-09 -8.16654e+07 1.31345e-08 -2.49078e+07)
(-1.21507e+07 7.57797e+06 -8.76156e-10 -7.23895e+07 -9.79454e-10 -3.217e+07)
(-1.54268e+07 -1.195e+06 2.94844e-10 -8.00142e+07 2.65441e-09 -2.41606e+07)
(-1.52476e+07 3.62602e+06 -1.30674e-09 -6.40045e+07 -2.37083e-09 -2.98626e+07)
(-1.81346e+07 1.05395e+06 -1.12989e-09 -6.73982e+07 -1.8476e-09 -1.72532e+07)
(-1.72274e+07 -259543 -3.46515e-10 -3.73475e+07 8.13468e-10 -1.56737e+07)
(-1.61836e+07 618718 4.21467e-10 -3.10004e+07 -9.91867e-10 -9.09732e+06)
(-1.8543e+07 -1.78413e+06 3.33685e-10 1.77846e+07 1.2035e-09 -6.83165e+06)
(-2.38803e+06 -9.29453e+06 -2.41591e-10 2.26975e+07 2.83557e-10 -2.51882e+06)
(-7.56046e+06 -1.49234e+07 6.14334e-10 1.71797e+07 -8.09906e-10 -4.49321e+06)
(1.36208e+07 -1.76406e+07 0 2.53307e+07 0 717415)
(1.79787e+07 -2.79568e+07 -7.40727e-10 1.33889e+07 1.02708e-09 2.48706e+06)
(3.93474e+07 -2.47503e+07 9.60546e-10 2.80662e+07 -2.30749e-10 6.78461e+06)
(5.68552e+07 -3.63126e+07 -2.41997e-09 6.58112e+06 1.29649e-09 5.02279e+06)
(6.43185e+07 -2.3458e+07 5.9812e-09 2.46593e+07 -8.73571e-10 2.07616e+07)
(9.2684e+07 -3.56384e+07 -9.10664e-09 -427690 1.50553e-09 2.68888e+06)
(1.01579e+08 -2.46406e+07 -5.75566e-09 3.7869e+06 1.252e-08 3.39294e+07)
(-4.63139e+06 -1.48785e+06 0 2.53507e+07 0 1.36596e+07)
(6.20927e+06 -6.55944e+06 6.74227e-10 2.25772e+07 -1.78005e-10 9.27943e+06)
(5.9281e+06 -1.24081e+07 -9.34556e-10 2.78121e+07 -8.97879e-11 1.41775e+07)
(2.02878e+07 -1.31494e+07 -3.62301e-09 1.93035e+07 4.27468e-10 1.52175e+07)
(2.55208e+07 -2.37871e+07 1.16024e-09 2.77344e+07 -1.63326e-10 2.15418e+07)
(4.11961e+07 -1.67769e+07 2.02494e-09 1.57289e+07 -3.0726e-10 2.49962e+07)
(5.40514e+07 -3.46395e+07 5.67841e-09 2.54098e+07 1.43893e-09 2.88958e+07)
(6.80966e+07 -2.05234e+07 6.2215e-09 1.59733e+07 -2.4921e-10 3.19046e+07)
(8.29678e+07 -4.21053e+07 -4.47301e-09 2.03195e+07 2.18335e-10 3.52416e+07)
(9.04159e+07 -1.71197e+07 5.77705e-09 7.57105e+06 3.62712e-09 3.63302e+07)
(7.03992e+06 -2.50916e+06 0 9.07959e+06 0 1.07329e+07)
(1.21535e+07 -3.01915e+06 5.64232e-10 6.05274e+06 6.00537e-10 6.07375e+06)
(1.71022e+07 -7.52641e+06 5.40549e-10 8.79806e+06 6.51562e-11 1.15068e+07)
(2.52202e+07 -8.00524e+06 -6.8423e-10 3.21641e+06 -1.04766e-09 1.01729e+07)
(3.40586e+07 -1.28828e+07 -1.65202e-09 8.34332e+06 -1.05571e-10 1.72891e+07)
(4.67767e+07 -1.33306e+07 -8.16772e-10 2.71232e+06 -1.32137e-09 1.59651e+07)
(5.56719e+07 -1.76099e+07 1.84192e-09 8.47097e+06 7.74929e-10 2.67457e+07)
(7.19459e+07 -1.73943e+07 3.76174e-10 3.697e+06 -4.64277e-10 2.08049e+07)
(7.66895e+07 -2.17776e+07 2.12009e-09 9.35769e+06 -4.74123e-10 2.96201e+07)
(8.76505e+07 -1.61273e+07 2.92254e-09 3.9719e+06 4.96648e-10 2.70173e+07)
(1.20739e+07 -365422 -2.09522e-10 -2.52826e+06 8.33724e-10 6.02802e+06)
(1.69183e+07 -3.79026e+06 6.33551e-10 -2.48759e+06 -9.77383e-10 3.03879e+06)
(2.18276e+07 -3.61269e+06 -3.59024e-10 -2.37554e+06 -1.01797e-10 8.25389e+06)
(3.22067e+07 -9.65372e+06 2.51185e-09 -1.53232e+06 1.83901e-09 5.94347e+06)
(3.79363e+07 -9.06327e+06 1.35173e-09 -75009.5 7.0813e-10 1.56779e+07)
(5.41986e+07 -1.54774e+07 -3.57795e-10 -123301 -5.606e-11 1.25055e+07)
(6.00305e+07 -1.53119e+07 -5.34162e-10 2.62261e+06 -2.28289e-10 2.24141e+07)
(7.48694e+07 -1.78423e+07 -1.77605e-09 500343 -5.0639e-10 2.04301e+07)
(8.06257e+07 -1.92476e+07 5.00556e-09 4.22341e+06 1.77302e-09 2.5002e+07)
(8.68827e+07 -1.70508e+07 -2.96931e-09 1.69189e+06 -7.4572e-10 2.60348e+07)
(1.53436e+07 950616 2.72738e-10 -3.00711e+06 1.63278e-10 6.67999e+06)
(2.35554e+07 -6.73784e+06 -2.3721e-09 -1.5589e+06 -8.48094e-10 4.55846e+06)
(2.78734e+07 -4.89696e+06 -1.13918e-09 -1.97204e+06 -5.97462e-10 9.23333e+06)
(4.02892e+07 -1.35174e+07 -2.92882e-09 499292 -1.3698e-09 8.34718e+06)
(4.5768e+07 -1.15059e+07 1.16181e-10 957044 2.51171e-10 1.65916e+07)
(6.0074e+07 -1.82025e+07 4.10244e-09 1.63343e+06 1.36554e-09 1.55368e+07)
(6.57168e+07 -1.71386e+07 -3.70331e-09 3.3932e+06 -1.77939e-09 2.19275e+07)
(7.58669e+07 -1.89562e+07 -3.55465e-09 1.67824e+06 -2.13093e-09 2.21484e+07)
(8.04352e+07 -1.91001e+07 3.32986e-09 4.09863e+06 1.83898e-09 2.49219e+07)
(8.47202e+07 -1.74124e+07 -2.74667e-09 1.71718e+06 7.3373e-10 2.60383e+07)
(2.17899e+07 992027 6.46129e-10 1.89078e+06 -4.06483e-10 1.05352e+07)
(3.25845e+07 -8.9865e+06 2.60896e-09 2.74918e+06 4.2891e-10 9.00112e+06)
(3.56755e+07 -7.77265e+06 1.71124e-09 3.18441e+06 6.37262e-11 1.24718e+07)
(4.81571e+07 -1.58931e+07 -3.25622e-09 3.6712e+06 -1.00418e-09 1.32287e+07)
(5.30416e+07 -1.4506e+07 2.88146e-09 4.77384e+06 1.40921e-09 1.82974e+07)
(6.40164e+07 -1.93463e+07 -3.84093e-10 3.71277e+06 1.00112e-09 1.90916e+07)
(6.85022e+07 -1.83113e+07 -3.1611e-09 5.46561e+06 -1.71378e-09 2.2399e+07)
(7.53296e+07 -1.91336e+07 -2.72943e-09 3.15278e+06 -1.89508e-09 2.3355e+07)
(7.86225e+07 -1.8748e+07 5.23446e-09 5.03513e+06 6.80658e-10 2.4591e+07)
(8.15623e+07 -1.70645e+07 -2.23932e-11 2.51856e+06 -6.4448e-10 2.56261e+07)
(3.17571e+07 458388 -1.79157e-09 8.11296e+06 7.06764e-10 1.48878e+07)
(4.30208e+07 -9.72805e+06 2.48844e-11 7.89634e+06 7.67681e-10 1.44122e+07)
(4.36086e+07 -9.35226e+06 -1.76342e-09 9.16829e+06 -4.97202e-10 1.6348e+07)
(5.5433e+07 -1.63228e+07 5.34527e-10 7.39548e+06 -2.87244e-10 1.79655e+07)
(5.7746e+07 -1.55291e+07 1.87645e-09 9.19335e+06 3.83326e-10 2.02775e+07)
(6.6824e+07 -1.90392e+07 6.21461e-09 6.37926e+06 1.01136e-09 2.18868e+07)
(6.89159e+07 -1.81128e+07 -2.31032e-09 8.27072e+06 -1.24554e-09 2.29039e+07)
(7.4163e+07 -1.84627e+07 3.7368e-09 5.19577e+06 -6.51482e-10 2.42315e+07)
(7.58411e+07 -1.77859e+07 -6.22568e-10 6.73631e+06 -5.01016e-10 2.41652e+07)
(7.80211e+07 -1.61885e+07 9.73198e-10 4.06918e+06 -5.49438e-10 2.5196e+07)
(4.31101e+07 -114254 1.96501e-09 1.58249e+07 -1.52451e-10 1.93405e+07)
(5.34952e+07 -9.14869e+06 6.50204e-10 1.46828e+07 -1.01371e-10 2.06087e+07)
(5.09035e+07 -9.29373e+06 2.68863e-09 1.63659e+07 -3.64932e-10 2.07496e+07)
(6.20411e+07 -1.52194e+07 -5.1047e-10 1.30156e+07 -1.03061e-09 2.28584e+07)
(6.08011e+07 -1.46881e+07 2.72319e-09 1.49255e+07 5.73651e-10 2.2904e+07)
(6.88796e+07 -1.74031e+07 -2.51907e-09 1.0914e+07 1.772e-10 2.46795e+07)
(6.81813e+07 -1.6589e+07 0 1.25106e+07 0 2.38614e+07)
(7.25355e+07 -1.65793e+07 3.98703e-09 8.72285e+06 8.27741e-10 2.52415e+07)
(7.25896e+07 -1.59027e+07 8.05217e-10 9.72607e+06 -1.64428e-10 2.3924e+07)
(7.40787e+07 -1.41329e+07 -2.96458e-09 6.65423e+06 -1.26012e-09 2.49699e+07)
(5.38865e+07 -340820 1.90609e-09 2.67241e+07 5.07298e-10 2.4112e+07)
(6.20099e+07 -7.12697e+06 3.03457e-09 2.44837e+07 -6.11659e-10 2.78696e+07)
(5.73495e+07 -7.62831e+06 1.21123e-09 2.60527e+07 -8.72261e-12 2.56738e+07)
(6.70709e+07 -1.18268e+07 7.54872e-11 2.10137e+07 7.8001e-11 2.80373e+07)
(6.30233e+07 -1.20116e+07 2.12977e-10 2.24801e+07 4.62936e-12 2.59096e+07)
(6.96672e+07 -1.30378e+07 -4.6293e-09 1.68009e+07 -1.3039e-09 2.75737e+07)
(6.69608e+07 -1.33466e+07 -4.11574e-09 1.79305e+07 -1.01516e-09 2.48977e+07)
(7.03631e+07 -1.19169e+07 1.15359e-09 1.25855e+07 3.21237e-10 2.62539e+07)
(6.90147e+07 -1.27094e+07 -1.32213e-09 1.32632e+07 -4.13748e-10 2.36571e+07)
(7.00966e+07 -9.53811e+06 -5.72687e-09 8.81977e+06 -2.41693e-09 2.46826e+07)
(6.25076e+07 750698 -5.73177e-09 3.98895e+07 -1.2256e-09 2.74809e+07)
(6.627e+07 -4.42167e+06 -1.86629e-09 3.72456e+07 -1.47617e-10 2.93866e+07)
(6.26665e+07 -3.31553e+06 -2.68677e-09 3.69497e+07 2.77219e-11 2.75935e+07)
(6.71481e+07 -4.8265e+06 -8.08526e-10 3.09541e+07 -3.22023e-10 2.89753e+07)
(6.4614e+07 -6.42878e+06 -1.78988e-10 3.04332e+07 2.88644e-10 2.59339e+07)
(6.79885e+07 -3.90797e+06 0 2.30324e+07 0 2.78422e+07)
(6.58789e+07 -7.27945e+06 -1.83379e-09 2.23993e+07 -3.02676e-09 2.44939e+07)
(6.82612e+07 -2.69907e+06 -3.01313e-09 1.54415e+07 -6.33441e-09 2.58674e+07)
(6.6218e+07 -6.98852e+06 -3.26689e-09 1.49711e+07 1.34529e-10 2.30931e+07)
(6.77176e+07 -1.28932e+06 2.24054e-09 9.12419e+06 4.13785e-09 2.40728e+07)
(1.10178e+08 -2.62621e+07 4.00969e-09 -2.51726e+06 9.45711e-09 8.40801e+06)
(9.86864e+07 -2.50396e+07 -2.3501e-09 6.01624e+06 2.69026e-09 3.34688e+07)
(1.09996e+08 -2.45069e+07 2.58792e-09 2.62289e+06 6.61678e-09 1.94347e+07)
(1.04959e+08 -2.26945e+07 1.11066e-08 6.13306e+06 9.67789e-09 3.55604e+07)
(1.11726e+08 -2.4752e+07 1.23672e-08 6.07456e+06 6.45794e-09 2.33951e+07)
(1.0779e+08 -2.09155e+07 0 5.72953e+06 0 3.62589e+07)
(1.13159e+08 -2.45107e+07 -2.16711e-09 7.28033e+06 1.55303e-09 2.53217e+07)
(1.08667e+08 -1.9407e+07 -8.41792e-10 5.71152e+06 1.45878e-09 3.64008e+07)
(1.14929e+08 -2.36205e+07 3.01879e-09 6.72559e+06 4.71917e-09 2.72838e+07)
(1.09183e+08 -1.77471e+07 -7.19273e-10 5.98456e+06 1.43836e-09 3.64663e+07)
(1.18186e+08 -2.14422e+07 -3.15452e-09 4.91752e+06 -4.64562e-09 2.97495e+07)
(1.11907e+08 -1.61219e+07 -1.30454e-08 6.2684e+06 -1.16401e-08 3.66632e+07)
(1.23981e+08 -1.80846e+07 -6.96599e-09 2.84767e+06 -6.06137e-09 3.29135e+07)
(1.17424e+08 -1.46938e+07 8.32328e-09 6.32572e+06 2.63012e-09 3.78446e+07)
(1.3219e+08 -1.42216e+07 1.56904e-08 1.11178e+06 1.10831e-08 3.62318e+07)
(1.22062e+08 -1.23629e+07 3.11732e-09 5.79756e+06 1.67749e-09 3.99635e+07)
(1.39301e+08 -9.22594e+06 -3.39431e-09 -248209 -1.04277e-09 3.88291e+07)
(1.28173e+08 -8.03864e+06 1.07969e-08 3.84533e+06 7.3374e-09 4.25678e+07)
(1.44873e+08 -3.34059e+06 1.03376e-08 -1.10889e+06 6.51538e-09 4.28664e+07)
(1.3626e+08 -2.68597e+06 0 1.44678e+06 0 4.22806e+07)
(1.04777e+08 -4.02903e+07 4.73361e-09 1.15508e+07 2.60623e-09 2.55289e+07)
(9.55804e+07 -2.37765e+07 5.33793e-09 7.93903e+06 4.99345e-09 3.70583e+07)
(1.11184e+08 -3.45436e+07 1.14722e-09 6.47397e+06 -6.21597e-10 2.89933e+07)
(9.79283e+07 -2.17923e+07 0 7.36027e+06 0 3.70492e+07)
(1.1166e+08 -2.83089e+07 2.63189e-09 3.09196e+06 3.62868e-09 3.16454e+07)
(9.93657e+07 -1.94779e+07 5.78157e-09 6.75729e+06 5.46366e-09 3.50965e+07)
(1.11217e+08 -2.27271e+07 4.23924e-09 1.24918e+06 1.8888e-09 3.24472e+07)
(1.01198e+08 -1.75207e+07 -6.69984e-09 6.1019e+06 -4.14268e-09 3.23025e+07)
(1.09038e+08 -1.7919e+07 -2.7707e-09 519421 -4.18515e-09 3.39044e+07)
(1.00321e+08 -1.51325e+07 6.28998e-09 5.28014e+06 3.97485e-09 3.35473e+07)
(1.08664e+08 -1.48663e+07 3.54476e-09 465038 1.86792e-09 3.51669e+07)
(1.03878e+08 -1.30099e+07 2.91905e-09 4.33499e+06 2.17669e-09 3.28414e+07)
(1.12999e+08 -1.24881e+07 3.45035e-09 406670 3.80951e-09 3.52546e+07)
(1.08229e+08 -1.05375e+07 1.88493e-08 3.04039e+06 1.35864e-08 3.37725e+07)
(1.17677e+08 -9.50803e+06 1.3113e-08 142215 7.9872e-09 3.56808e+07)
(1.12651e+08 -8.03619e+06 3.06519e-09 1.64758e+06 2.08185e-09 3.52244e+07)
(1.22231e+08 -5.93677e+06 -2.53734e-09 -157908 -1.43912e-09 3.69839e+07)
(1.17827e+08 -5.30051e+06 6.87551e-09 718363 4.57147e-09 3.68358e+07)
(1.27113e+08 -1.99127e+06 1.53154e-08 -345689 9.67453e-09 3.84563e+07)
(1.23941e+08 -2.07482e+06 2.30838e-09 435777 1.29278e-10 3.60325e+07)
(8.73944e+07 -2.32435e+07 -3.08372e-10 8.53829e+06 1.87195e-10 3.28451e+07)
(9.46392e+07 -1.83291e+07 1.10262e-08 3.58549e+06 4.9693e-09 2.83829e+07)
(9.27366e+07 -2.33317e+07 1.02825e-08 7.15933e+06 4.86926e-09 3.14745e+07)
(9.54129e+07 -1.77956e+07 1.3917e-08 2.27531e+06 6.52019e-09 2.99318e+07)
(9.54803e+07 -2.22772e+07 1.40132e-08 5.39224e+06 6.50743e-09 3.03361e+07)
(9.51895e+07 -1.68105e+07 1.11788e-08 1.48164e+06 5.57162e-09 3.0368e+07)
(9.75455e+07 -2.03705e+07 1.4501e-08 3.56003e+06 6.79843e-09 2.94954e+07)
(9.53133e+07 -1.53102e+07 2.20465e-10 880968 2.50818e-10 3.07405e+07)
(1.00842e+08 -1.79527e+07 3.12443e-09 1.91223e+06 1.96011e-09 2.83015e+07)
(9.577e+07 -1.42408e+07 2.97845e-09 722207 1.70539e-09 3.11003e+07)
(1.02628e+08 -1.48503e+07 8.93873e-09 585278 4.63426e-09 2.90635e+07)
(9.73478e+07 -1.25485e+07 -5.38719e-09 677763 -2.94492e-09 3.12087e+07)
(1.05181e+08 -1.17256e+07 -5.94184e-09 -256558 -3.18343e-09 3.00728e+07)
(9.99387e+07 -1.03158e+07 3.46185e-13 667388 -1.05697e-10 3.15013e+07)
(1.08181e+08 -8.48864e+06 1.25307e-08 -692546 7.26192e-09 3.1244e+07)
(1.03363e+08 -7.80343e+06 8.66476e-09 599931 4.95767e-09 3.22051e+07)
(1.11798e+08 -5.12317e+06 1.63364e-08 -786303 9.49953e-09 3.2919e+07)
(1.07608e+08 -5.051e+06 1.53337e-08 469332 8.62675e-09 3.34686e+07)
(1.15672e+08 -1.54619e+06 1.35818e-08 -630576 7.85547e-09 3.45613e+07)
(1.12881e+08 -2.1516e+06 5.61213e-09 402601 2.29569e-10 3.23722e+07)
(8.82525e+07 -1.87151e+07 -7.41037e-09 3.67711e+06 -2.9452e-09 2.92536e+07)
(9.2464e+07 -1.70025e+07 -3.16574e-09 1.93731e+06 -7.08191e-10 2.63189e+07)
(9.03856e+07 -1.79388e+07 -2.43867e-09 3.36756e+06 -9.23597e-10 2.91083e+07)
(9.22292e+07 -1.61816e+07 2.3885e-09 1.50321e+06 9.85032e-10 2.72986e+07)
(9.06316e+07 -1.6883e+07 2.84842e-09 2.87147e+06 1.06934e-09 2.87131e+07)
(9.1449e+07 -1.52476e+07 7.90779e-09 1.14052e+06 2.54917e-09 2.74817e+07)
(9.11536e+07 -1.56382e+07 5.36942e-09 2.25847e+06 2.08178e-09 2.82509e+07)
(9.0999e+07 -1.4158e+07 7.82263e-09 932249 2.65243e-09 2.76419e+07)
(9.23201e+07 -1.41983e+07 -8.41972e-11 1.60409e+06 8.86376e-11 2.79515e+07)
(9.11954e+07 -1.29921e+07 -4.7012e-09 687073 -1.95284e-09 2.79788e+07)
(9.40751e+07 -1.25038e+07 -8.17174e-09 977069 -3.29514e-09 2.79012e+07)
(9.20092e+07 -1.15854e+07 -3.14803e-09 503943 -8.67076e-10 2.84481e+07)
(9.63609e+07 -1.04945e+07 -1.85377e-09 450506 -1.00644e-09 2.81702e+07)
(9.34266e+07 -9.81253e+06 7.87215e-09 423206 3.02468e-09 2.90663e+07)
(9.90998e+07 -8.15313e+06 3.22271e-09 44960.5 1.32095e-09 2.88027e+07)
(9.546e+07 -7.61546e+06 9.13846e-10 393133 -3.84306e-11 2.98702e+07)
(1.02267e+08 -5.40547e+06 -2.7268e-09 -172131 -1.20009e-09 2.98115e+07)
(9.78993e+07 -4.88274e+06 -2.51024e-09 321297 -1.04899e-09 3.08353e+07)
(1.05219e+08 -2.11793e+06 -6.83745e-09 -202124 -2.63915e-09 3.05883e+07)
(1.01065e+08 -1.57263e+06 -1.34183e-09 84237.1 -1.20197e-13 3.00941e+07)
(8.6245e+07 -1.7874e+07 -3.44096e-09 3.2199e+06 -1.21361e-09 2.7759e+07)
(8.88394e+07 -1.64707e+07 4.6077e-09 2.08935e+06 1.35752e-09 2.58173e+07)
(8.77702e+07 -1.67318e+07 2.24568e-09 2.92718e+06 9.0002e-10 2.76652e+07)
(8.84067e+07 -1.53821e+07 -2.11497e-09 1.90324e+06 -8.44895e-10 2.65069e+07)
(8.75588e+07 -1.54284e+07 -4.52307e-09 2.53985e+06 -1.58901e-09 2.73771e+07)
(8.75e+07 -1.42958e+07 -2.33336e-09 1.69897e+06 -5.69153e-10 2.64924e+07)
(8.75192e+07 -1.40798e+07 -2.98122e-09 2.10163e+06 -5.32039e-10 2.69428e+07)
(8.68626e+07 -1.31703e+07 -3.07173e-09 1.49396e+06 -3.26838e-10 2.64661e+07)
(8.79017e+07 -1.26705e+07 3.07001e-09 1.66194e+06 5.65351e-10 2.66624e+07)
(8.66132e+07 -1.19118e+07 5.03237e-09 1.25259e+06 1.24908e-09 2.65689e+07)
(8.86871e+07 -1.11735e+07 1.07517e-08 1.22083e+06 2.89005e-09 2.65662e+07)
(8.69313e+07 -1.04931e+07 1.04725e-08 989800 2.32993e-09 2.65956e+07)
(8.99665e+07 -9.4012e+06 -1.65907e-09 769948 -7.96683e-10 2.66661e+07)
(8.75255e+07 -8.78029e+06 3.56842e-09 728659 1.54475e-09 2.70152e+07)
(9.15075e+07 -7.5014e+06 -2.41283e-09 425194 -7.74014e-10 2.69312e+07)
(8.82937e+07 -6.6445e+06 0 461181 0 2.74385e+07)
(9.31555e+07 -5.21147e+06 -2.43836e-09 164310 -8.07997e-10 2.72505e+07)
(8.90565e+07 -4.02011e+06 -1.60415e-09 198891 -9.87985e-10 2.78455e+07)
(9.446e+07 -2.4098e+06 -1.72265e-09 33124.9 -1.0456e-09 2.73645e+07)
(9.0134e+07 -808135 0 -61033.4 0 2.74279e+07)
(8.29649e+07 -1.70772e+07 3.27032e-09 3.7174e+06 1.04782e-09 2.66083e+07)
(8.45578e+07 -1.57456e+07 0 2.70196e+06 0 2.52272e+07)
(8.41551e+07 -1.57599e+07 2.22615e-09 3.35596e+06 5.12927e-10 2.65022e+07)
(8.41996e+07 -1.45e+07 4.16421e-09 2.42996e+06 1.20681e-09 2.57355e+07)
(8.38964e+07 -1.4357e+07 4.85615e-09 2.93072e+06 1.06654e-09 2.62645e+07)
(8.34647e+07 -1.33378e+07 7.04466e-09 2.14694e+06 1.37701e-09 2.56388e+07)
(8.37129e+07 -1.3009e+07 4.12934e-09 2.45366e+06 1.3536e-09 2.58608e+07)
(8.28775e+07 -1.22078e+07 2.17639e-09 1.86758e+06 4.81951e-10 2.53778e+07)
(8.38504e+07 -1.15585e+07 8.13639e-10 1.89313e+06 -2.46667e-10 2.54245e+07)
(8.21637e+07 -1.09509e+07 -9.19611e-10 1.58796e+06 -1.09864e-09 2.52733e+07)
(8.37541e+07 -1.00041e+07 -7.06842e-09 1.34667e+06 -1.72846e-09 2.5351e+07)
(8.17379e+07 -9.32456e+06 -8.49012e-09 1.27346e+06 -2.35292e-09 2.52777e+07)
(8.43447e+07 -8.49563e+06 -1.08172e-08 867312 -2.16061e-09 2.51307e+07)
(8.17876e+07 -7.52301e+06 -2.97783e-09 919615 8.8437e-10 2.52327e+07)
(8.4826e+07 -6.78159e+06 0 455237 0 2.50584e+07)
(8.16726e+07 -5.46395e+06 -1.49408e-09 571192 -8.41116e-10 2.51976e+07)
(8.50498e+07 -4.80231e+06 -1.57627e-09 142990 -8.80727e-10 2.49253e+07)
(8.11993e+07 -3.04807e+06 -2.04084e-09 266347 -5.60276e-10 2.50285e+07)
(8.48672e+07 -2.47062e+06 -3.46688e-09 -34347.7 -4.34487e-10 2.46537e+07)
(8.06572e+07 -171819 -1.29904e-09 45445.6 2.55707e-11 2.4809e+07)
(7.90826e+07 -1.59173e+07 -2.58907e-09 4.80632e+06 -1.93791e-10 2.55366e+07)
(7.99152e+07 -1.46634e+07 -2.53637e-09 3.95769e+06 -4.03356e-10 2.46207e+07)
(8.01121e+07 -1.44578e+07 -3.99985e-09 4.16984e+06 -1.18082e-09 2.5386e+07)
(7.96412e+07 -1.32965e+07 -2.08628e-09 3.54531e+06 -4.29158e-10 2.49096e+07)
(8.00862e+07 -1.29185e+07 2.79437e-09 3.51329e+06 2.13752e-10 2.50774e+07)
(7.90485e+07 -1.19838e+07 4.5575e-09 3.0913e+06 8.85359e-10 2.46265e+07)
(7.96111e+07 -1.13322e+07 5.92107e-09 2.9026e+06 1.75792e-09 2.47533e+07)
(7.80909e+07 -1.0527e+07 0 2.5744e+06 0 2.45832e+07)
(7.92289e+07 -9.97509e+06 -2.87171e-09 2.26306e+06 -3.03694e-10 2.43928e+07)
(7.7623e+07 -9.09234e+06 -1.00751e-08 2.04388e+06 -2.78142e-09 2.42359e+07)
(7.91289e+07 -8.66929e+06 -1.12407e-08 1.66849e+06 -2.74088e-09 2.4023e+07)
(7.72087e+07 -7.65657e+06 -1.23688e-08 1.56635e+06 -3.37987e-09 2.401e+07)
(7.90957e+07 -7.32107e+06 -1.37761e-08 1.10448e+06 -3.36259e-09 2.37505e+07)
(7.6707e+07 -6.04544e+06 -1.21675e-08 1.13254e+06 -2.16304e-09 2.37685e+07)
(7.88343e+07 -5.85515e+06 -1.51789e-09 588037 -8.05295e-10 2.34282e+07)
(7.58698e+07 -4.21081e+06 1.36779e-09 753405 7.89814e-10 2.33811e+07)
(7.80852e+07 -4.22977e+06 1.43493e-09 152557 8.07629e-10 2.29175e+07)
(7.4464e+07 -2.09367e+06 -3.12501e-09 454097 -1.32746e-09 2.27536e+07)
(7.68477e+07 -2.40685e+06 1.80083e-09 -152363 -4.26564e-10 2.23375e+07)
(7.26098e+07 418562 1.16964e-09 254974 -2.19498e-11 2.28214e+07)
(7.47729e+07 -1.38031e+07 -9.49393e-10 7.06176e+06 2.14347e-10 2.44328e+07)
(7.49338e+07 -1.24912e+07 -1.07368e-09 6.06582e+06 1.97473e-10 2.40688e+07)
(7.55904e+07 -1.23117e+07 5.59119e-10 6.09373e+06 -9.85636e-11 2.42035e+07)
(7.47108e+07 -1.09981e+07 5.89432e-10 5.28623e+06 -1.061e-10 2.42064e+07)
(7.54605e+07 -1.08861e+07 -1.97005e-09 5.18221e+06 -5.54533e-10 2.39708e+07)
(7.4221e+07 -9.52336e+06 -1.91311e-09 4.46484e+06 -5.76851e-10 2.40284e+07)
(7.53869e+07 -9.57603e+06 0 4.30034e+06 0 2.34298e+07)
(7.37445e+07 -8.1602e+06 1.59985e-09 3.70441e+06 7.55699e-10 2.37076e+07)
(7.51844e+07 -8.29241e+06 9.05284e-09 3.43439e+06 2.28628e-09 2.3036e+07)
(7.331e+07 -6.79077e+06 5.25785e-09 2.96422e+06 1.05025e-09 2.3363e+07)
(7.49447e+07 -7.03807e+06 3.91888e-09 2.59528e+06 1.20096e-09 2.27111e+07)
(7.28573e+07 -5.39461e+06 2.94909e-09 2.23867e+06 1.58102e-09 2.29993e+07)
(7.45492e+07 -5.7887e+06 1.25528e-08 1.78739e+06 3.79823e-09 2.23927e+07)
(7.22318e+07 -3.94813e+06 8.23217e-09 1.56911e+06 2.71768e-09 2.25578e+07)
(7.38145e+07 -4.53046e+06 4.82004e-09 1.03195e+06 2.20244e-09 2.19771e+07)
(7.12077e+07 -2.43553e+06 0 1.0056e+06 0 2.19417e+07)
(7.24992e+07 -3.27135e+06 2.84855e-09 368879 5.2374e-10 2.13329e+07)
(6.95733e+07 -849294 4.52795e-09 613210 1.22792e-09 2.11162e+07)
(7.07075e+07 -2.07004e+06 -1.83072e-09 -144008 -6.2643e-10 2.07152e+07)
(6.70645e+07 945580 -1.68501e-09 446523 -6.19751e-11 2.15502e+07)
(7.0381e+07 -1.06098e+07 -6.5895e-09 9.09615e+06 -2.40495e-09 2.35187e+07)
(7.05652e+07 -8.62958e+06 -2.65155e-09 7.63955e+06 -1.3005e-09 2.31331e+07)
(7.13586e+07 -9.33046e+06 -1.86735e-09 7.4972e+06 -7.08856e-10 2.31405e+07)
(7.05145e+07 -7.35657e+06 0 6.41797e+06 0 2.29938e+07)
(7.15084e+07 -8.05317e+06 -4.29996e-09 6.17595e+06 -1.54071e-09 2.27777e+07)
(7.02109e+07 -6.11019e+06 -2.18232e-09 5.28057e+06 -9.62278e-10 2.26415e+07)
(7.14184e+07 -6.82011e+06 -7.86326e-09 4.99339e+06 -3.00922e-09 2.2325e+07)
(6.98744e+07 -4.87112e+06 -8.93151e-09 4.19312e+06 -4.19645e-09 2.22425e+07)
(7.12478e+07 -5.63072e+06 -1.54216e-08 3.90766e+06 -6.10412e-09 2.18977e+07)
(6.95832e+07 -3.64556e+06 -4.98797e-09 3.16361e+06 -1.87306e-09 2.1873e+07)
(7.09777e+07 -4.49085e+06 1.51317e-09 2.9159e+06 1.24683e-10 2.15276e+07)
(6.93043e+07 -2.45033e+06 1.15337e-08 2.21072e+06 5.13352e-09 2.1524e+07)
(7.05234e+07 -3.42283e+06 2.90612e-09 2.02455e+06 1.60522e-09 2.11975e+07)
(6.89501e+07 -1.32467e+06 1.7776e-09 1.37187e+06 8.14184e-10 2.11545e+07)
(6.97714e+07 -2.46617e+06 0 1.24063e+06 0 2.08664e+07)
(6.84101e+07 -344968 -6.15371e-09 712436 -3.33796e-09 2.07055e+07)
(6.86432e+07 -1.67938e+06 -9.75666e-09 571591 -3.99388e-09 2.05e+07)
(6.76047e+07 370333 -5.29642e-09 336291 -1.80144e-09 2.01286e+07)
(6.71247e+07 -1.12842e+06 -1.25448e-09 30143.8 1.44326e-09 2.01537e+07)
(6.57784e+07 866323 8.33228e-10 383251 7.00707e-11 2.01552e+07)
(6.66464e+07 -5.39773e+06 6.54179e-09 9.10893e+06 3.93442e-09 2.32419e+07)
(6.80266e+07 -2.11927e+06 5.6982e-09 6.97599e+06 5.42274e-09 2.24156e+07)
(6.7517e+07 -5.0308e+06 1.1147e-08 6.75946e+06 6.83651e-09 2.27348e+07)
(6.86029e+07 -1.53889e+06 4.86754e-09 5.0706e+06 5.09018e-09 2.17891e+07)
(6.76869e+07 -4.2289e+06 6.92946e-09 4.69245e+06 4.03705e-09 2.25779e+07)
(6.87775e+07 -1.08123e+06 0 3.43921e+06 0 2.11562e+07)
(6.76202e+07 -3.33996e+06 5.72739e-09 3.01136e+06 3.29401e-09 2.23243e+07)
(6.87969e+07 -710301 5.71187e-09 2.10315e+06 4.49153e-09 2.05935e+07)
(6.75109e+07 -2.4858e+06 8.78908e-09 1.71939e+06 4.94521e-09 2.20361e+07)
(6.87449e+07 -393589 -5.43838e-10 1.0717e+06 -4.49462e-10 2.01832e+07)
(6.73969e+07 -1.69851e+06 -5.53762e-09 790828 -2.8927e-09 2.17372e+07)
(6.86173e+07 -109112 -1.56954e-09 342268 -8.54795e-10 1.99245e+07)
(6.72501e+07 -998564 6.62543e-09 196283 2.79952e-09 2.14256e+07)
(6.83918e+07 143260 9.03792e-09 -99932.5 5.2462e-09 1.9785e+07)
(6.7017e+07 -421989 1.15143e-08 -100508 6.06456e-09 2.1093e+07)
(6.80472e+07 334553 3.51133e-09 -284741 1.7457e-09 1.97067e+07)
(6.66413e+07 -28463.4 8.02917e-09 -156371 3.38015e-09 2.07352e+07)
(6.75715e+07 414918 5.10396e-09 -264846 2.0181e-09 1.96084e+07)
(6.61497e+07 99305.7 8.83793e-09 -63047.3 4.03592e-09 2.0387e+07)
(6.70777e+07 60579.2 1.33042e-09 25814.4 4.2517e-10 1.9491e+07)