/*--------------------------------*- C++ -*----------------------------------*\
| =========                 |                                                 |
| \\      /  F ield         | OpenFOAM: The Open Source CFD Toolbox           |
|  \\    /   O peration     | Version:  v2012                                 |
|   \\  /    A nd           | Website:  www.openfoam.com                      |
|    \\/     M anipulation  |                                                 |
\*---------------------------------------------------------------------------*/
FoamFile
{
    version     2.0;
    format      ascii;
    class       volScalarField;
    location    "15";
    object      sigmaHyd;
}
// * * * * * * * * * * * * * * * * * * * * * * * * * * * * * * * * * * * * * //

dimensions      [1 -1 -2 0 0 0 0];


internalField   nonuniform List<scalar> 
500
(
5.29778e+07
6.29655e+07
8.60864e+07
9.18529e+07
1.06489e+08
1.04487e+08
1.10184e+08
1.03505e+08
1.0486e+08
9.60005e+07
5.65536e+07
6.03206e+07
7.66658e+07
7.40724e+07
8.69606e+07
7.6241e+07
8.5045e+07
7.16215e+07
7.78736e+07
6.32684e+07
5.26899e+07
4.97421e+07
5.81287e+07
5.07741e+07
5.71824e+07
4.76461e+07
5.29235e+07
4.33318e+07
4.77092e+07
3.9401e+07
3.89466e+07
3.37769e+07
3.94544e+07
3.26556e+07
3.70543e+07
3.01042e+07
3.36628e+07
2.68635e+07
3.03809e+07
2.403e+07
2.21132e+07
1.50041e+07
2.0798e+07
1.40303e+07
1.87852e+07
1.18692e+07
1.45421e+07
5.32096e+06
7.88264e+06
-1.9645e+06
1.88131e+06
-4.9453e+06
2.2279e+06
-3.06045e+06
1.72195e+06
-5.40016e+06
-4.99954e+06
-1.27241e+07
-7.17223e+06
3.02476e+06
-1.70533e+07
-2.19567e+07
-1.47864e+07
-1.91849e+07
-1.4747e+07
-2.0537e+07
-1.86032e+07
-1.91642e+07
-7.07888e+06
-266719
-3.02091e+07
-3.27791e+07
-2.75065e+07
-2.99748e+07
-2.6671e+07
-2.95601e+07
-2.59965e+07
-2.58685e+07
-1.31558e+07
-8.72104e+06
-3.69272e+07
-3.78321e+07
-3.47056e+07
-3.60155e+07
-3.39402e+07
-3.59116e+07
-3.22142e+07
-3.15437e+07
-1.99939e+07
-1.5932e+07
-3.94783e+07
-3.96874e+07
-3.8441e+07
-3.94044e+07
-3.89034e+07
-3.98672e+07
-3.63716e+07
-3.4262e+07
-2.34162e+07
-1.87605e+07
-2.53001e+06
5.93023e+06
1.70867e+06
1.3223e+07
1.12849e+07
2.47327e+07
2.28197e+07
3.65798e+07
3.16484e+07
4.64319e+07
1.14596e+07
1.26886e+07
1.59726e+07
1.82696e+07
2.49323e+07
2.73071e+07
3.6119e+07
3.86582e+07
4.61763e+07
4.47724e+07
8.95079e+06
8.09333e+06
1.2469e+07
1.28698e+07
1.9897e+07
2.1818e+07
3.02962e+07
3.21493e+07
3.85558e+07
3.95466e+07
5.19122e+06
5.82317e+06
9.2353e+06
1.2206e+07
1.78464e+07
2.21936e+07
2.83557e+07
3.19333e+07
3.66171e+07
3.82031e+07
6.33881e+06
8.85165e+06
1.17116e+07
1.63786e+07
2.11055e+07
2.57481e+07
3.03458e+07
3.32312e+07
3.64853e+07
3.74919e+07
1.14053e+07
1.47783e+07
1.71106e+07
2.16857e+07
2.5371e+07
2.89403e+07
3.21223e+07
3.39458e+07
3.60829e+07
3.6569e+07
1.82526e+07
2.17764e+07
2.30416e+07
2.69313e+07
2.90723e+07
3.16967e+07
3.33635e+07
3.45301e+07
3.55809e+07
3.57621e+07
2.60918e+07
2.95956e+07
2.93397e+07
3.26384e+07
3.28769e+07
3.48244e+07
3.48511e+07
3.54999e+07
3.54132e+07
3.52343e+07
3.49075e+07
3.81211e+07
3.63586e+07
3.87073e+07
3.71377e+07
3.80139e+07
3.65963e+07
3.64008e+07
3.53116e+07
3.4533e+07
4.32927e+07
4.43007e+07
4.24032e+07
4.23592e+07
4.0327e+07
3.9621e+07
3.75907e+07
3.65234e+07
3.47607e+07
3.36382e+07
3.86894e+07
4.60571e+07
4.40179e+07
4.88841e+07
4.70653e+07
4.99262e+07
4.8587e+07
5.02598e+07
4.96462e+07
5.05446e+07
5.09508e+07
5.1613e+07
5.32475e+07
5.38649e+07
5.65111e+07
5.59411e+07
5.92939e+07
5.81954e+07
6.22102e+07
5.99958e+07
4.72857e+07
4.68592e+07
4.88839e+07
4.74459e+07
4.8799e+07
4.70732e+07
4.83046e+07
4.6534e+07
4.78207e+07
4.63829e+07
4.80986e+07
4.70181e+07
4.95533e+07
4.83474e+07
5.11668e+07
4.98411e+07
5.3019e+07
5.17936e+07
5.50747e+07
5.34697e+07
4.29259e+07
4.22025e+07
4.37902e+07
4.254e+07
4.37362e+07
4.23464e+07
4.35336e+07
4.23116e+07
4.36853e+07
4.25309e+07
4.40921e+07
4.30781e+07
4.4999e+07
4.40358e+07
4.62442e+07
4.53894e+07
4.79769e+07
4.71821e+07
4.98675e+07
4.85518e+07
4.03944e+07
4.02401e+07
4.09538e+07
4.03437e+07
4.07387e+07
4.00237e+07
4.05543e+07
3.98577e+07
4.06252e+07
3.99538e+07
4.09845e+07
4.03204e+07
4.16605e+07
4.0972e+07
4.26492e+07
4.19078e+07
4.3969e+07
4.30186e+07
4.52018e+07
4.37477e+07
3.90746e+07
3.89153e+07
3.94542e+07
3.8939e+07
3.91586e+07
3.85638e+07
3.88545e+07
3.82742e+07
3.8742e+07
3.81449e+07
3.88247e+07
3.81722e+07
3.91342e+07
3.84231e+07
3.96213e+07
3.87311e+07
4.01901e+07
3.90336e+07
4.06192e+07
3.9167e+07
3.77635e+07
3.74957e+07
3.80044e+07
3.7455e+07
3.76972e+07
3.70835e+07
3.73425e+07
3.67076e+07
3.7056e+07
3.63417e+07
3.68173e+07
3.60964e+07
3.67809e+07
3.598e+07
3.67799e+07
3.58138e+07
3.6706e+07
3.54981e+07
3.64955e+07
3.51706e+07
3.64752e+07
3.61645e+07
3.6556e+07
3.6032e+07
3.62257e+07
3.55888e+07
3.57557e+07
3.50828e+07
3.52949e+07
3.46343e+07
3.49401e+07
3.42617e+07
3.46502e+07
3.38693e+07
3.42835e+07
3.33348e+07
3.37184e+07
3.25572e+07
3.30109e+07
3.18954e+07
3.54225e+07
3.50228e+07
3.52959e+07
3.47345e+07
3.48712e+07
3.42381e+07
3.43723e+07
3.37188e+07
3.3885e+07
3.32124e+07
3.3417e+07
3.26984e+07
3.29098e+07
3.21196e+07
3.22745e+07
3.1385e+07
3.14003e+07
3.04342e+07
3.04262e+07
2.96871e+07
3.43319e+07
3.37793e+07
3.39988e+07
3.33088e+07
3.34874e+07
3.2711e+07
3.29123e+07
3.21033e+07
3.23511e+07
3.15399e+07
3.18071e+07
3.1013e+07
3.12485e+07
3.04921e+07
3.06261e+07
2.99427e+07
2.99049e+07
2.93565e+07
2.91028e+07
2.87723e+07
3.29991e+07
3.24727e+07
3.23371e+07
3.18209e+07
3.16524e+07
3.11243e+07
3.09853e+07
3.04978e+07
3.04221e+07
3e+07
2.9975e+07
2.9628e+07
2.9624e+07
2.93589e+07
2.93365e+07
2.91564e+07
2.90734e+07
2.89717e+07
2.88246e+07
2.88648e+07
9.2758e+07
8.44698e+07
8.27606e+07
7.5218e+07
7.32971e+07
6.71179e+07
6.5344e+07
6.03914e+07
5.84947e+07
5.46055e+07
5.24922e+07
4.96552e+07
4.75033e+07
4.58785e+07
4.39445e+07
4.35803e+07
4.16432e+07
4.19043e+07
3.84971e+07
3.9778e+07
6.76924e+07
5.76057e+07
6.20547e+07
5.39452e+07
5.70821e+07
5.1278e+07
5.33597e+07
4.93442e+07
5.03546e+07
4.76428e+07
4.78846e+07
4.65617e+07
4.63169e+07
4.65508e+07
4.58964e+07
4.7606e+07
4.62288e+07
4.93889e+07
4.66127e+07
5.11997e+07
4.48224e+07
3.9751e+07
4.526e+07
4.17391e+07
4.58771e+07
4.34463e+07
4.62652e+07
4.44691e+07
4.62255e+07
4.53964e+07
4.65903e+07
4.69622e+07
4.80164e+07
4.96671e+07
5.06472e+07
5.36391e+07
5.45523e+07
5.91881e+07
5.93206e+07
6.36794e+07
3.0102e+07
2.59118e+07
3.33234e+07
3.21758e+07
3.70018e+07
3.65529e+07
4.01713e+07
4.03185e+07
4.30854e+07
4.36104e+07
4.59488e+07
4.71138e+07
4.95556e+07
5.1412e+07
5.42473e+07
5.68801e+07
6.03885e+07
6.36275e+07
6.6716e+07
6.85234e+07
1.05592e+07
1.65888e+07
2.54211e+07
2.99089e+07
3.29207e+07
3.60488e+07
3.75359e+07
4.00749e+07
4.13898e+07
4.36115e+07
4.5256e+07
4.73001e+07
4.96506e+07
5.16751e+07
5.49337e+07
5.69928e+07
6.12012e+07
6.27151e+07
6.67766e+07
6.65205e+07
)
;

boundaryField
{
    back
    {
        type            empty;
    }
    front
    {
        type            empty;
    }
    left
    {
        type            symmetry;
    }
    hole
    {
        type            zeroGradient;
    }
    down
    {
        type            symmetry;
    }
    right
    {
        type            zeroGradient;
    }
    up
    {
        type            zeroGradient;
    }
}


// ************************************************************************* //
