/*--------------------------------*- C++ -*----------------------------------*\
| =========                 |                                                 |
| \\      /  F ield         | OpenFOAM: The Open Source CFD Toolbox           |
|  \\    /   O peration     | Version:  v2012                                 |
|   \\  /    A nd           | Website:  www.openfoam.com                      |
|    \\/     M anipulation  |                                                 |
\*---------------------------------------------------------------------------*/
FoamFile
{
    version     2.0;
    format      ascii;
    class       pointVectorField;
    location    "2";
    object      pointD;
}
// * * * * * * * * * * * * * * * * * * * * * * * * * * * * * * * * * * * * * //

dimensions      [0 1 0 0 0 0 0];


internalField   nonuniform List<vector> 
32562
(
(0.000709453 0 4.40609e-22)
(0.001011 0 5.19694e-22)
(0.000932359 -9.33677e-05 -6.43929e-22)
(0 -0.000499886 1.74583e-22)
(0 -0.00038701 2.1832e-21)
(0.000733299 0 0)
(0 -0.000460568 0)
(0.000430514 -0.00015926 0)
(0.000213792 -0.000296081 7.1709e-22)
(0.000976578 -2.8813e-05 -3.16255e-21)
(0.000516412 -0.000233543 2.33846e-22)
(0.000516412 -0.000233543 2.33846e-22)
(0.000430514 -0.00015926 0)
(0 -0.000460568 0)
(0 -0.00038701 2.1832e-21)
(0.000709453 0 4.40609e-22)
(0.000733299 0 0)
(0.001011 0 5.19694e-22)
(0.000976578 -2.8813e-05 -3.16255e-21)
(0.000932359 -9.33677e-05 -6.43929e-22)
(0.000213792 -0.000296081 7.1709e-22)
(0 -0.000499886 1.74583e-22)
(8.68481e-06 -0.000460251 0)
(1.73847e-05 -0.000459304 0)
(2.61146e-05 -0.000457731 0)
(3.48891e-05 -0.000455539 0)
(4.37224e-05 -0.000452739 0)
(5.26281e-05 -0.000449344 0)
(6.16185e-05 -0.000445369 0)
(7.07062e-05 -0.000440832 0)
(7.99025e-05 -0.000435754 0)
(8.92172e-05 -0.000430158 0)
(9.86591e-05 -0.000424069 0)
(0.000108236 -0.000417512 0)
(0.000117955 -0.000410516 0)
(0.000127821 -0.000403108 0)
(0.000137839 -0.000395318 0)
(0.000148011 -0.000387178 0)
(0.000158339 -0.000378717 0)
(0.000168825 -0.000369967 0)
(0.000179467 -0.000360961 0)
(0.000190263 -0.000351727 0)
(0.000201212 -0.000342299 0)
(0.000212309 -0.000332706 0)
(0.00022355 -0.000322977 0)
(0.000234929 -0.000313143 0)
(0.00024644 -0.00030323 0)
(0.000258075 -0.000293268 0)
(0.000269827 -0.000283281 0)
(0.000281686 -0.000273294 0)
(0.000293644 -0.000263333 0)
(0.000305689 -0.00025342 0)
(0.000317812 -0.000243576 0)
(0.000330001 -0.000233822 0)
(0.000342245 -0.000224177 0)
(0.000354532 -0.000214658 0)
(0.000366849 -0.000205283 0)
(0.000379182 -0.000196068 0)
(0.000391521 -0.000187025 0)
(0.000403848 -0.000178175 0)
(0.000416166 -0.000169513 0)
(0.000443956 -0.000150287 0)
(0.000456088 -0.000142299 0)
(0.000468123 -0.000134561 0)
(0.000480058 -0.000127069 0)
(0.000491879 -0.000119827 0)
(0.000503574 -0.000112834 0)
(0.00051513 -0.000106089 0)
(0.000526531 -9.95953e-05 0)
(0.000537762 -9.33525e-05 0)
(0.000548811 -8.73611e-05 0)
(0.000559661 -8.16207e-05 0)
(0.000570299 -7.61298e-05 0)
(0.00058071 -7.08866e-05 0)
(0.000590881 -6.58883e-05 0)
(0.000600798 -6.1131e-05 0)
(0.000610447 -5.66105e-05 0)
(0.000619816 -5.23237e-05 0)
(0.000628891 -4.82644e-05 0)
(0.000637659 -4.44262e-05 0)
(0.000646109 -4.08034e-05 0)
(0.000654228 -3.73889e-05 0)
(0.000662005 -3.41754e-05 0)
(0.000669429 -3.1155e-05 0)
(0.000676489 -2.83196e-05 0)
(0.000683174 -2.56602e-05 0)
(0.000689476 -2.3168e-05 0)
(0.000695385 -2.08333e-05 0)
(0.000700892 -1.86465e-05 0)
(0.00070599 -1.65973e-05 0)
(0.00071067 -1.46754e-05 0)
(0.000714925 -1.28701e-05 0)
(0.00071875 -1.11705e-05 0)
(0.000722139 -9.56527e-06 0)
(0.000725087 -8.04317e-06 0)
(0.000727588 -6.59262e-06 0)
(0.00072964 -5.20194e-06 0)
(0.000731239 -3.85929e-06 0)
(0.000732383 -2.55275e-06 0)
(0.00073307 -1.27034e-06 0)
(0.000710575 0 0)
(0.000711968 0 0)
(0.000713249 0 0)
(0.000714437 0 0)
(0.000715531 0 0)
(0.000716548 0 0)
(0.000717488 0 0)
(0.000718362 0 0)
(0.000719174 0 0)
(0.000719931 0 0)
(0.000720637 0 0)
(0.000721298 0 0)
(0.000721918 0 0)
(0.000722501 0 0)
(0.000723052 0 0)
(0.000723573 0 0)
(0.000724068 0 0)
(0.00072454 0 0)
(0.000724991 0 0)
(0.000725426 0 0)
(0.000725845 0 0)
(0.000726251 0 0)
(0.000726647 0 0)
(0.000727034 0 0)
(0.000727414 0 0)
(0.000727788 0 0)
(0.000728159 0 0)
(0.000728527 0 0)
(0.000728894 0 0)
(0.000729261 0 0)
(0.000729629 0 0)
(0.000729999 0 0)
(0.000730373 0 0)
(0.00073075 0 0)
(0.000731133 0 0)
(0.000731521 0 0)
(0.000731915 0 0)
(0.000732317 0 0)
(0.000732726 0 0)
(0.000734226 0 0)
(0.000735369 0 0)
(0.000736578 0 0)
(0.000737857 0 0)
(0.000739209 0 0)
(0.000740636 0 0)
(0.00074214 0 0)
(0.000743723 0 0)
(0.000745386 0 0)
(0.000747128 0 0)
(0.00074895 0 0)
(0.000750853 0 0)
(0.000752834 0 0)
(0.000754895 0 0)
(0.000757035 0 0)
(0.000759253 0 0)
(0.000761547 0 0)
(0.000763918 0 0)
(0.000766365 0 0)
(0.000768886 0 0)
(0.00077148 0 0)
(0.000774146 0 0)
(0.000776884 0 0)
(0.000779692 0 0)
(0.000782569 0 0)
(0.000785514 0 0)
(0.000788527 0 0)
(0.000791605 0 0)
(0.000794748 0 0)
(0.000797954 0 0)
(0.000801224 0 0)
(0.000804555 0 0)
(0.000807946 0 0)
(0.000811397 0 0)
(0.000814906 0 0)
(0.000818472 0 0)
(0.000822094 0 0)
(0.000825771 0 0)
(0.000829502 0 0)
(0.000833286 0 0)
(0.000837121 0 0)
(0.000841007 0 0)
(0.000844942 0 0)
(0.000848925 0 0)
(0.000852955 0 0)
(0.000857031 0 0)
(0.000861152 0 0)
(0.000865316 0 0)
(0.000869522 0 0)
(0.00087377 0 0)
(0.000878057 0 0)
(0.000882382 0 0)
(0.000886744 0 0)
(0.000891142 0 0)
(0.000895574 0 0)
(0.000900039 0 0)
(0.000904536 0 0)
(0.000909062 0 0)
(0.000913616 0 0)
(0.000918197 0 0)
(0.000922803 0 0)
(0.000927432 0 0)
(0.000932082 0 0)
(0.000936752 0 0)
(0.000941439 0 0)
(0.000946141 0 0)
(0.000950857 0 0)
(0.000955584 0 0)
(0.000960319 0 0)
(0.000965061 0 0)
(0.000969805 0 0)
(0.000974551 0 0)
(0.000979295 0 0)
(0.000984033 0 0)
(0.000988763 0 0)
(0.000993481 0 0)
(0.000998183 0 0)
(0.00100287 0 0)
(0.00100753 0 0)
(0.00101213 -3.62961e-07 5.31573e-22)
(0.00101205 -7.27476e-07 5.0622e-22)
(0.00101191 -1.0951e-06 1.00867e-21)
(0.00101172 -1.46737e-06 -5.5423e-22)
(0.00101148 -1.84583e-06 4.78742e-22)
(0.00101118 -2.232e-06 5.14829e-22)
(0.00101083 -2.62742e-06 1.35866e-24)
(0.00101043 -3.03356e-06 1.10643e-21)
(0.00100998 -3.45192e-06 1.51974e-22)
(0.00100947 -3.88396e-06 -8.71221e-22)
(0.00100891 -4.33112e-06 -1.56877e-21)
(0.00100831 -4.79481e-06 -1.24386e-21)
(0.00100765 -5.27642e-06 9.42991e-22)
(0.00100695 -5.77732e-06 1.68994e-21)
(0.0010062 -6.29881e-06 -1.48804e-22)
(0.0010054 -6.84221e-06 -2.37787e-21)
(0.00100456 -7.40875e-06 -2.39561e-21)
(0.00100368 -7.99966e-06 -9.68027e-22)
(0.00100275 -8.61612e-06 -6.8101e-22)
(0.00100178 -9.25924e-06 -7.1415e-28)
(0.00100078 -9.93013e-06 3.62305e-22)
(0.000999735 -1.06298e-05 8.98995e-22)
(0.000998654 -1.13593e-05 5.36598e-22)
(0.000997539 -1.21195e-05 7.32887e-22)
(0.00099639 -1.29113e-05 2.01571e-21)
(0.00099521 -1.37355e-05 1.28282e-21)
(0.000993999 -1.4593e-05 -5.45482e-22)
(0.000992761 -1.54844e-05 -3.28296e-22)
(0.000991496 -1.64104e-05 -1.10397e-21)
(0.000990207 -1.73715e-05 -9.9809e-22)
(0.000988895 -1.83684e-05 8.75792e-22)
(0.000987562 -1.94014e-05 1.10748e-21)
(0.00098621 -2.04709e-05 5.54652e-22)
(0.000984841 -2.15774e-05 -1.82978e-22)
(0.000983458 -2.2721e-05 2.61762e-21)
(0.00098206 -2.39018e-05 3.31027e-21)
(0.000980652 -2.51201e-05 2.15393e-21)
(0.000979235 -2.63759e-05 1.60218e-21)
(0.00097781 -2.76691e-05 -2.47445e-21)
(0.000975745 -2.96006e-05 -1.43903e-22)
(0.00097511 -3.02099e-05 6.14364e-22)
(0.000974473 -3.08265e-05 -1.14141e-21)
(0.000973837 -3.14504e-05 -1.16366e-21)
(0.000973201 -3.20814e-05 1.20426e-21)
(0.000972565 -3.27197e-05 -5.16909e-22)
(0.000971929 -3.33651e-05 -4.0704e-21)
(0.000971294 -3.40176e-05 -2.34923e-21)
(0.000970659 -3.46773e-05 5.90111e-22)
(0.000970026 -3.53439e-05 -5.76203e-22)
(0.000969393 -3.60175e-05 -1.16631e-21)
(0.000968762 -3.66981e-05 1.18163e-21)
(0.000968131 -3.73855e-05 -5.57342e-22)
(0.000967502 -3.80797e-05 -4.07109e-21)
(0.000966875 -3.87807e-05 -2.33212e-21)
(0.00096625 -3.94883e-05 -1.72986e-24)
(0.000965627 -4.02026e-05 -5.80123e-22)
(0.000965005 -4.09234e-05 -5.78393e-22)
(0.000964386 -4.16507e-05 -5.84454e-22)
(0.000963769 -4.23844e-05 -5.84454e-22)
(0.000963155 -4.31243e-05 -5.85978e-22)
(0.000962544 -4.38705e-05 -1.15247e-21)
(0.000961935 -4.46228e-05 -5.90233e-22)
(0.000961329 -4.53812e-05 1.07053e-21)
(0.000960726 -4.61455e-05 -6.72413e-22)
(0.000960127 -4.69156e-05 -3.46559e-21)
(0.00095953 -4.76915e-05 -1.18639e-21)
(0.000958938 -4.8473e-05 -1.21742e-21)
(0.000958349 -4.926e-05 -2.81906e-21)
(0.000957763 -5.00525e-05 -1.68137e-21)
(0.000957181 -5.08502e-05 6.31767e-25)
(0.000956604 -5.16531e-05 5.93835e-23)
(0.00095603 -5.2461e-05 6.06025e-23)
(0.00095546 -5.32739e-05 1.05075e-21)
(0.000954895 -5.40915e-05 -6.60248e-22)
(0.000954333 -5.49138e-05 -1.03856e-21)
(0.000953777 -5.57406e-05 -4.73972e-24)
(0.000953224 -5.65718e-05 -6.79949e-22)
(0.000952677 -5.74072e-05 -5.96881e-22)
(0.000952133 -5.82467e-05 5.00294e-22)
(0.000951595 -5.90902e-05 -5.93894e-22)
(0.000951061 -5.99374e-05 -1.69297e-21)
(0.000950532 -6.07882e-05 2.62486e-22)
(0.000950007 -6.16425e-05 -8.20256e-22)
(0.000949488 -6.25001e-05 -3.11458e-21)
(0.000948973 -6.33609e-05 -1.38102e-23)
(0.000948464 -6.42246e-05 6.8621e-22)
(0.000947959 -6.50911e-05 -2.26182e-21)
(0.000947459 -6.59602e-05 -2.58943e-21)
(0.000946964 -6.68318e-05 -1.06064e-21)
(0.000946474 -6.77056e-05 -1.51874e-22)
(0.000945988 -6.85816e-05 -7.54087e-22)
(0.000945507 -6.94594e-05 -1.64573e-21)
(0.000945032 -7.0339e-05 -1.48015e-21)
(0.00094456 -7.12201e-05 5.9848e-22)
(0.000944094 -7.21026e-05 4.32104e-22)
(0.000943632 -7.29863e-05 -1.0268e-21)
(0.000943174 -7.3871e-05 8.35289e-22)
(0.000942721 -7.47564e-05 -5.5112e-22)
(0.000942272 -7.56425e-05 -2.44229e-21)
(0.000941827 -7.65291e-05 -8.27501e-22)
(0.000941386 -7.74159e-05 2.09181e-22)
(0.000940948 -7.83028e-05 6.07016e-22)
(0.000940514 -7.91896e-05 2.02424e-22)
(0.000940084 -8.00761e-05 -6.03638e-22)
(0.000939657 -8.09622e-05 -1.52189e-26)
(0.000939232 -8.18478e-05 3.60667e-26)
(0.00093881 -8.27326e-05 -9.91135e-22)
(0.000938391 -8.36166e-05 -1.6963e-22)
(0.000937973 -8.44996e-05 8.21335e-22)
(0.000937558 -8.53815e-05 1.97178e-21)
(0.000937144 -8.62623e-05 1.14657e-21)
(0.000936731 -8.71418e-05 -1.20576e-21)
(0.000936318 -8.802e-05 -3.80874e-22)
(0.000935907 -8.88969e-05 3.80609e-22)
(0.000935495 -8.97725e-05 -1.20639e-21)
(0.000935082 -9.06468e-05 -9.83909e-22)
(0.000934669 -9.15198e-05 -3.25137e-30)
(0.000934254 -9.23919e-05 -3.84672e-22)
(0.000927455 -9.45687e-05 -5.16351e-22)
(0.00092108 -9.58723e-05 -7.7335e-22)
(0.000914715 -9.71696e-05 -7.72628e-22)
(0.00090836 -9.8452e-05 -7.7141e-22)
(0.000902014 -9.97093e-05 -9.91084e-22)
(0.00089567 -0.000100934 -1.84083e-22)
(0.000889324 -0.000102121 2.92902e-22)
(0.000882971 -0.000103266 0)
(0.000876605 -0.000104365 2.27042e-22)
(0.000870221 -0.000105416 -3.22498e-22)
(0.000863812 -0.000106418 -8.39065e-22)
(0.000857375 -0.00010737 -5.51773e-22)
(0.000850904 -0.000108272 -7.64264e-22)
(0.000844393 -0.000109125 -7.6762e-22)
(0.000837838 -0.000109931 -8.00725e-22)
(0.000831234 -0.000110691 -5.35121e-22)
(0.000824578 -0.000111407 -5.64222e-22)
(0.000817864 -0.000112081 -1.11314e-21)
(0.000811088 -0.000112717 -7.72044e-22)
(0.000804247 -0.000113318 3.70601e-22)
(0.000797337 -0.000113886 8.28115e-22)
(0.000790354 -0.000114426 -6.84614e-22)
(0.000783295 -0.000114941 -1.4824e-21)
(0.000776156 -0.000115434 -8.2739e-22)
(0.000768933 -0.00011591 -5.46033e-22)
(0.000761624 -0.000116374 -5.81529e-22)
(0.000754225 -0.00011683 -6.16124e-22)
(0.000746734 -0.000117283 -6.23642e-22)
(0.000739147 -0.000117737 -9.76504e-24)
(0.000731462 -0.000118198 -3.18712e-22)
(0.000723676 -0.000118671 -6.014e-22)
(0.000715786 -0.00011916 -6.47545e-22)
(0.000707789 -0.000119672 -6.78174e-22)
(0.000699683 -0.000120212 -3.48351e-22)
(0.000691466 -0.000120786 -6.50829e-22)
(0.000683135 -0.000121401 -3.38273e-22)
(0.000674687 -0.000122062 -3.65958e-22)
(0.000666124 -0.000122775 -2.77154e-22)
(0.000657441 -0.000123547 4.24973e-22)
(0.000648634 -0.000124385 -5.93995e-23)
(0.000639704 -0.000125295 -4.44919e-22)
(0.000630649 -0.000126286 -7.39252e-22)
(0.000621467 -0.000127363 -7.09621e-22)
(0.000612157 -0.000128536 -1.18199e-21)
(0.000602718 -0.000129811 -1.60976e-21)
(0.000593151 -0.000131193 -1.12081e-21)
(0.000583453 -0.000132695 2.47137e-22)
(0.000573625 -0.000134323 1.23638e-21)
(0.000563668 -0.000136084 -5.38055e-23)
(0.00055358 -0.000137988 4.74675e-22)
(0.000543364 -0.000140042 1.10908e-21)
(0.000533019 -0.000142256 -1.38114e-22)
(0.000522549 -0.000144636 -6.96239e-22)
(0.000511953 -0.000147192 -2.73727e-22)
(0.000501235 -0.000149933 -1.76634e-22)
(0.000490397 -0.000152868 -8.71655e-22)
(0.000479444 -0.000156003 -5.94331e-22)
(0.000468381 -0.000159347 3.36344e-22)
(0.000457209 -0.000162913 1.21461e-22)
(0.000445933 -0.000166704 6.9522e-24)
(0.000434561 -0.000170725 7.11802e-22)
(0.000423097 -0.000174987 7.2661e-22)
(0.00041155 -0.000179498 2.79583e-22)
(0.000399928 -0.000184262 4.6331e-22)
(0.00038824 -0.000189287 1.60189e-22)
(0.000376493 -0.000194575 8.13803e-24)
(0.000364699 -0.000200133 8.20306e-22)
(0.000352869 -0.000205963 2.84314e-22)
(0.000341014 -0.000212068 -1.71003e-21)
(0.000329147 -0.000218448 -1.61906e-21)
(0.000317279 -0.000225105 -2.77392e-22)
(0.000305428 -0.000232038 -1.16123e-30)
(0.000293605 -0.00023924 9.2577e-22)
(0.00028183 -0.000246709 1.15928e-21)
(0.000270113 -0.000254443 4.61347e-22)
(0.000258474 -0.000262435 -2.08575e-23)
(0.000246929 -0.000270669 6.99762e-24)
(0.000235493 -0.000279134 1.42949e-21)
(0.000224189 -0.000287812 1.76118e-21)
(0.000205108 -0.000303215 -6.87794e-22)
(0.000197264 -0.000309825 -5.28155e-22)
(0.000189518 -0.000316517 1.91087e-21)
(0.000181878 -0.000323278 9.85367e-22)
(0.000174348 -0.000330101 -1.87307e-21)
(0.000166937 -0.000336975 -5.42048e-22)
(0.000159649 -0.00034389 1.57041e-21)
(0.000152491 -0.000350833 3.01063e-22)
(0.000145469 -0.000357792 -2.08732e-21)
(0.000138586 -0.000364755 -2.46705e-21)
(0.000131848 -0.000371708 -1.05868e-21)
(0.00012526 -0.000378637 -1.0627e-22)
(0.000118826 -0.000385528 -1.10669e-22)
(0.000112548 -0.000392366 -2.23073e-22)
(0.00010643 -0.000399135 1.51287e-24)
(0.000100474 -0.000405819 -7.66406e-22)
(9.46826e-05 -0.000412403 -1.39536e-21)
(8.90558e-05 -0.000418869 -2.23254e-21)
(8.35944e-05 -0.000425202 -2.30559e-21)
(7.82981e-05 -0.000431384 -1.35466e-22)
(7.31659e-05 -0.000437398 -5.45449e-22)
(6.8196e-05 -0.000443229 -7.06257e-22)
(6.33859e-05 -0.000448858 1.49223e-21)
(5.87322e-05 -0.00045427 1.43388e-21)
(5.42309e-05 -0.000459448 6.27844e-23)
(4.98772e-05 -0.000464377 4.97589e-22)
(4.56653e-05 -0.000469041 4.03714e-22)
(4.15888e-05 -0.000473425 2.60856e-22)
(3.76406e-05 -0.000477515 6.4406e-22)
(3.38129e-05 -0.000481298 -1.0633e-22)
(3.00971e-05 -0.000484761 -6.71595e-22)
(2.64839e-05 -0.000487893 -5.72216e-22)
(2.29636e-05 -0.000490682 -1.25614e-22)
(1.95259e-05 -0.00049312 0)
(1.616e-05 -0.000495197 -8.68381e-23)
(1.28544e-05 -0.000496906 -4.52943e-23)
(9.59772e-06 -0.000498242 7.51927e-22)
(6.37787e-06 -0.0004992 6.92583e-22)
(3.18274e-06 -0.000499776 1.57504e-22)
(0 -0.000499642 0)
(0 -0.000499307 0)
(0 -0.000498964 0)
(0 -0.000498612 0)
(0 -0.000498252 0)
(0 -0.000497885 0)
(0 -0.00049751 0)
(0 -0.000497128 0)
(0 -0.000496739 0)
(0 -0.000496343 0)
(0 -0.000495941 0)
(0 -0.000495532 0)
(0 -0.000495118 0)
(0 -0.000494697 0)
(0 -0.000494271 0)
(0 -0.00049384 0)
(0 -0.000493403 0)
(0 -0.000492962 0)
(0 -0.000492515 0)
(0 -0.000492064 0)
(0 -0.000491609 0)
(0 -0.000491149 0)
(0 -0.000490685 0)
(0 -0.000490217 0)
(0 -0.000489745 0)
(0 -0.000489269 0)
(0 -0.00048879 0)
(0 -0.000488308 0)
(0 -0.000487823 0)
(0 -0.000487334 0)
(0 -0.000486842 0)
(0 -0.000486348 0)
(0 -0.00048585 0)
(0 -0.000485351 0)
(0 -0.000484848 0)
(0 -0.000484344 0)
(0 -0.000483837 0)
(0 -0.000483327 0)
(0 -0.000482816 0)
(0 -0.000482303 0)
(0 -0.000481788 0)
(0 -0.000481271 0)
(0 -0.000480752 0)
(0 -0.000480231 0)
(0 -0.000479709 0)
(0 -0.000479186 0)
(0 -0.000478661 0)
(0 -0.000478134 0)
(0 -0.000477607 0)
(0 -0.000477078 0)
(0 -0.000476547 0)
(0 -0.000476016 0)
(0 -0.000475483 0)
(0 -0.000474949 0)
(0 -0.000474414 0)
(0 -0.000473878 0)
(0 -0.000473341 0)
(0 -0.000472803 0)
(0 -0.000472264 0)
(0 -0.000471724 0)
(0 -0.000471183 0)
(0 -0.000470642 0)
(0 -0.000470099 0)
(0 -0.000469555 0)
(0 -0.00046901 0)
(0 -0.000468464 0)
(0 -0.000467918 0)
(0 -0.00046737 0)
(0 -0.000466821 0)
(0 -0.000466272 0)
(0 -0.000465721 0)
(0 -0.000465169 0)
(0 -0.000464616 0)
(0 -0.000464061 0)
(0 -0.000463506 0)
(0 -0.000462949 0)
(0 -0.000462391 0)
(0 -0.000461831 0)
(0 -0.00046127 0)
(0 -0.00045958 0)
(0 -0.000458444 0)
(0 -0.000457301 0)
(0 -0.000456148 0)
(0 -0.000454985 0)
(0 -0.000453812 0)
(0 -0.000452626 0)
(0 -0.000451427 0)
(0 -0.000450212 0)
(0 -0.000448981 0)
(0 -0.000447731 0)
(0 -0.000446461 0)
(0 -0.000445168 0)
(0 -0.000443851 0)
(0 -0.000442507 0)
(0 -0.000441132 0)
(0 -0.000439725 0)
(0 -0.000438281 0)
(0 -0.000436799 0)
(0 -0.000435273 0)
(0 -0.0004337 0)
(0 -0.000432076 0)
(0 -0.000430396 0)
(0 -0.000428654 0)
(0 -0.000426846 0)
(0 -0.000424965 0)
(0 -0.000423004 0)
(0 -0.000420957 0)
(0 -0.000418815 0)
(0 -0.000416572 0)
(0 -0.000414215 0)
(0 -0.000411739 0)
(0 -0.000409128 0)
(0 -0.000406376 0)
(0 -0.000403462 0)
(0 -0.000400383 0)
(0 -0.00039711 0)
(0 -0.000393643 0)
(0 -0.000389942 0)
(0.00044113 -0.000150363 0)
(0.000450768 -0.000142275 0)
(0.000460259 -0.000134627 0)
(0.000469585 -0.000127382 0)
(0.000478752 -0.000120557 0)
(0.000487759 -0.000114124 0)
(0.000496608 -0.000108083 0)
(0.000505304 -0.000102413 0)
(0.000513847 -9.7105e-05 0)
(0.000522243 -9.21434e-05 0)
(0.000530496 -8.75146e-05 0)
(0.000538609 -8.32035e-05 0)
(0.000546589 -7.91966e-05 0)
(0.000554441 -7.54793e-05 0)
(0.000562171 -7.20379e-05 0)
(0.000569784 -6.88598e-05 0)
(0.000577286 -6.59305e-05 0)
(0.000584683 -6.32377e-05 0)
(0.000591982 -6.07685e-05 0)
(0.000599187 -5.85112e-05 0)
(0.000606306 -5.64539e-05 0)
(0.000613342 -5.45854e-05 0)
(0.000620302 -5.28954e-05 0)
(0.000627192 -5.13724e-05 0)
(0.000634015 -5.00068e-05 0)
(0.000640777 -4.87891e-05 0)
(0.000647483 -4.77099e-05 0)
(0.000654137 -4.67608e-05 0)
(0.000660742 -4.59327e-05 0)
(0.000667304 -4.52182e-05 0)
(0.000673826 -4.46088e-05 0)
(0.000680311 -4.40958e-05 0)
(0.000686762 -4.36729e-05 0)
(0.000693184 -4.33331e-05 0)
(0.000699577 -4.30693e-05 0)
(0.000705946 -4.28752e-05 0)
(0.000712293 -4.27443e-05 0)
(0.000718619 -4.26705e-05 0)
(0.000724927 -4.2648e-05 0)
(0.000731219 -4.26711e-05 0)
(0.000737496 -4.2734e-05 0)
(0.00074376 -4.28319e-05 0)
(0.000750012 -4.29593e-05 0)
(0.000756254 -4.31111e-05 0)
(0.000762486 -4.32824e-05 0)
(0.00076871 -4.34685e-05 0)
(0.000774926 -4.3665e-05 0)
(0.000781135 -4.38674e-05 0)
(0.000787337 -4.40713e-05 0)
(0.000793534 -4.42724e-05 0)
(0.000799726 -4.44666e-05 0)
(0.000805912 -4.46499e-05 0)
(0.000812092 -4.48183e-05 0)
(0.000818268 -4.49677e-05 0)
(0.000824439 -4.50944e-05 0)
(0.000830605 -4.51946e-05 0)
(0.000836766 -4.52644e-05 0)
(0.000842921 -4.53001e-05 0)
(0.000849071 -4.5298e-05 0)
(0.000855216 -4.52543e-05 0)
(0.000861354 -4.51651e-05 0)
(0.000867486 -4.50267e-05 0)
(0.000873612 -4.48353e-05 0)
(0.00087973 -4.45868e-05 0)
(0.000885841 -4.42771e-05 0)
(0.000891945 -4.39022e-05 0)
(0.000898041 -4.34576e-05 0)
(0.000904129 -4.2939e-05 0)
(0.000910208 -4.23409e-05 0)
(0.000916279 -4.16586e-05 0)
(0.000922343 -4.08876e-05 0)
(0.000928398 -4.00215e-05 0)
(0.000934445 -3.9054e-05 0)
(0.000940484 -3.79784e-05 0)
(0.000946515 -3.67884e-05 0)
(0.000952539 -3.54746e-05 0)
(0.000958557 -3.40312e-05 0)
(0.000964569 -3.2445e-05 0)
(0.000970576 -3.07119e-05 0)
(0.000424983 -0.000162242 0)
(0.000421355 -0.000164141 0)
(0.000417765 -0.000166047 0)
(0.00041422 -0.000167954 0)
(0.000410717 -0.000169866 0)
(0.000407256 -0.000171779 0)
(0.000403837 -0.000173694 0)
(0.00040046 -0.000175611 0)
(0.000397125 -0.000177528 0)
(0.000393832 -0.000179445 0)
(0.00039058 -0.000181361 0)
(0.000387369 -0.000183276 0)
(0.000384199 -0.000185189 0)
(0.000381068 -0.000187098 0)
(0.000377977 -0.000189004 0)
(0.000374926 -0.000190906 0)
(0.000371912 -0.000192804 0)
(0.000368937 -0.000194696 0)
(0.000365998 -0.000196583 0)
(0.000363096 -0.000198463 0)
(0.000360228 -0.000200337 0)
(0.000357396 -0.000202204 0)
(0.000354596 -0.000204064 0)
(0.000351829 -0.000205916 0)
(0.000349094 -0.00020776 0)
(0.000346389 -0.000209596 0)
(0.000343713 -0.000211423 0)
(0.000341067 -0.000213241 0)
(0.000338448 -0.00021505 0)
(0.000335857 -0.00021685 0)
(0.000333291 -0.00021864 0)
(0.000330749 -0.00022042 0)
(0.000328231 -0.000222191 0)
(0.000325736 -0.000223951 0)
(0.000323262 -0.000225702 0)
(0.000320807 -0.000227442 0)
(0.000318372 -0.000229172 0)
(0.000315955 -0.000230891 0)
(0.000313554 -0.0002326 0)
(0.000311169 -0.000234299 0)
(0.000308798 -0.000235988 0)
(0.00030644 -0.000237666 0)
(0.000304093 -0.000239334 0)
(0.000301758 -0.000240992 0)
(0.000299431 -0.00024264 0)
(0.000297113 -0.000244277 0)
(0.000294802 -0.000245905 0)
(0.000292496 -0.000247523 0)
(0.000290195 -0.000249131 0)
(0.000287898 -0.00025073 0)
(0.000285602 -0.00025232 0)
(0.000283307 -0.000253901 0)
(0.000281011 -0.000255473 0)
(0.000278713 -0.000257036 0)
(0.000276412 -0.000258591 0)
(0.000274106 -0.000260139 0)
(0.000271794 -0.000261678 0)
(0.000269475 -0.000263211 0)
(0.000267147 -0.000264736 0)
(0.000264809 -0.000266255 0)
(0.00026246 -0.000267768 0)
(0.000260099 -0.000269275 0)
(0.000257723 -0.000270777 0)
(0.000255331 -0.000272274 0)
(0.000252923 -0.000273767 0)
(0.000250496 -0.000275257 0)
(0.00024805 -0.000276743 0)
(0.000245582 -0.000278226 0)
(0.000243092 -0.000279708 0)
(0.000240578 -0.000281188 0)
(0.000238038 -0.000282668 0)
(0.000235472 -0.000284148 0)
(0.000232876 -0.000285628 0)
(0.000230251 -0.00028711 0)
(0.000227594 -0.000288595 0)
(0.000224904 -0.000290082 0)
(0.000222182 -0.000291574 0)
(0.000219422 -0.000293071 0)
(0.000216625 -0.000294574 0)
(1.49188e-05 -0.000385883 3.17841e-21)
(2.98287e-05 -0.000385501 -1.33061e-21)
(4.47209e-05 -0.000384866 -3.40518e-21)
(5.95864e-05 -0.000383979 -7.995e-22)
(7.44166e-05 -0.000382843 1.67747e-21)
(8.92028e-05 -0.00038146 7.37911e-22)
(0.000103936 -0.000379834 -1.1252e-21)
(0.000118609 -0.00037797 -4.43014e-22)
(0.000133212 -0.000375873 2.02839e-21)
(0.000147738 -0.000373547 4.06312e-22)
(0.000162178 -0.000370998 1.02395e-21)
(0.000176525 -0.000368232 2.61817e-21)
(0.000190772 -0.000365257 -2.25107e-24)
(0.00020491 -0.00036208 9.18508e-22)
(0.000218933 -0.000358706 -8.32614e-22)
(0.000232835 -0.000355145 -3.51077e-21)
(0.000246607 -0.000351404 -3.45283e-21)
(0.000260245 -0.00034749 -1.38534e-21)
(0.000273741 -0.000343412 3.89093e-21)
(0.000287091 -0.000339179 6.92479e-21)
(0.000300288 -0.000334798 3.74295e-21)
(0.000313327 -0.000330277 -2.87557e-21)
(0.000326204 -0.000325626 -4.63125e-21)
(0.000338912 -0.000320851 -1.85606e-21)
(0.000351448 -0.00031596 -3.51917e-21)
(0.000363808 -0.000310963 1.11571e-21)
(0.000375987 -0.000305865 5.24659e-21)
(0.000387982 -0.000300675 6.23865e-23)
(0.000399788 -0.0002954 -5.61644e-22)
(0.000411403 -0.000290047 -1.96577e-21)
(0.000422823 -0.000284623 -2.01183e-21)
(0.000434046 -0.000279133 1.68681e-21)
(0.000445068 -0.000273585 2.86593e-21)
(0.000455887 -0.000267983 3.22021e-21)
(0.000466501 -0.000262334 5.04768e-21)
(0.000476907 -0.000256642 2.79005e-21)
(0.000487103 -0.000250912 -3.12601e-21)
(0.000497087 -0.00024515 -1.00143e-21)
(0.000506857 -0.000239359 1.87488e-21)
(0.000525749 -0.000227706 2.75621e-22)
(0.000534868 -0.000221852 -8.5705e-22)
(0.000543766 -0.000215983 -3.96837e-23)
(0.000552443 -0.000210102 -8.99492e-22)
(0.000560897 -0.000204212 -4.53482e-21)
(0.000569127 -0.000198315 -1.2844e-22)
(0.000577131 -0.000192413 1.14245e-21)
(0.000584907 -0.000186508 -1.06863e-21)
(0.000592455 -0.000180603 1.13301e-21)
(0.000599775 -0.000174699 1.10552e-21)
(0.000606865 -0.000168796 1.00576e-21)
(0.000613724 -0.000162897 1.87029e-21)
(0.000620352 -0.000157001 7.28234e-22)
(0.000626746 -0.000151109 -2.7555e-21)
(0.000632908 -0.000145224 -2.27132e-21)
(0.000638835 -0.000139344 3.14839e-21)
(0.000644526 -0.00013347 3.6391e-21)
(0.000649982 -0.000127603 3.79138e-22)
(0.000655201 -0.000121743 -1.23252e-21)
(0.000660183 -0.00011589 -1.77664e-21)
(0.000664927 -0.000110044 -7.26015e-22)
(0.000669432 -0.000104205 -1.44607e-23)
(0.000673697 -9.83724e-05 -2.93651e-22)
(0.000677722 -9.25471e-05 2.80133e-22)
(0.000681507 -8.67283e-05 -6.10279e-22)
(0.00068505 -8.09157e-05 -2.48216e-21)
(0.000688352 -7.51092e-05 -4.35449e-23)
(0.000691411 -6.93081e-05 2.09692e-21)
(0.000694227 -6.35126e-05 9.6291e-22)
(0.000696799 -5.77223e-05 7.98347e-22)
(0.000699128 -5.19365e-05 -6.3166e-22)
(0.000701213 -4.61551e-05 -5.33858e-22)
(0.000703053 -4.03774e-05 1.66332e-21)
(0.000704649 -3.4603e-05 1.22188e-21)
(0.000705999 -2.88315e-05 -3.68859e-22)
(0.000707105 -2.30623e-05 -1.37521e-21)
(0.000707965 -1.72951e-05 -1.58254e-21)
(0.000708579 -1.15292e-05 -6.22483e-22)
(0.000708948 -5.76438e-06 4.36171e-22)
(0.000511184 -0.000229295 0)
(0.00050623 -0.000225298 0)
(0.000501519 -0.000221517 0)
(0.000497049 -0.000217949 0)
(0.0004928 -0.000214574 0)
(0.000488768 -0.000211382 0)
(0.000484939 -0.000208361 0)
(0.000481305 -0.000205501 0)
(0.000477856 -0.000202792 0)
(0.000474583 -0.000200224 0)
(0.000471479 -0.000197788 0)
(0.000468536 -0.000195477 0)
(0.000465745 -0.000193283 0)
(0.000463101 -0.000191198 0)
(0.000460596 -0.000189217 0)
(0.000458225 -0.000187334 0)
(0.00045598 -0.000185541 0)
(0.000453857 -0.000183834 0)
(0.000451851 -0.000182208 0)
(0.000449955 -0.000180659 0)
(0.000448165 -0.000179182 0)
(0.000446476 -0.000177771 0)
(0.000444884 -0.000176425 0)
(0.000443385 -0.000175138 0)
(0.000441974 -0.000173908 0)
(0.000440648 -0.000172731 0)
(0.000439403 -0.000171605 0)
(0.000438236 -0.000170525 0)
(0.000437143 -0.000169491 0)
(0.000436121 -0.000168498 0)
(0.000435168 -0.000167545 0)
(0.000434279 -0.000166629 0)
(0.000433453 -0.000165749 0)
(0.000432687 -0.000164903 0)
(0.000431979 -0.000164089 0)
(0.000431326 -0.000163304 0)
(0.000430725 -0.000162549 0)
(0.000430178 -0.000161821 0)
(0.000429677 -0.000161122 0)
(0.000511184 -0.000229295 0)
(0.00050623 -0.000225298 0)
(0.000501519 -0.000221517 0)
(0.000497049 -0.000217949 0)
(0.0004928 -0.000214574 0)
(0.000488768 -0.000211382 0)
(0.000484939 -0.000208361 0)
(0.000481305 -0.000205501 0)
(0.000477856 -0.000202792 0)
(0.000474583 -0.000200224 0)
(0.000471479 -0.000197788 0)
(0.000468536 -0.000195477 0)
(0.000465745 -0.000193283 0)
(0.000463101 -0.000191198 0)
(0.000460596 -0.000189217 0)
(0.000458225 -0.000187334 0)
(0.00045598 -0.000185541 0)
(0.000453857 -0.000183834 0)
(0.000451851 -0.000182208 0)
(0.000449955 -0.000180659 0)
(0.000448165 -0.000179182 0)
(0.000446476 -0.000177771 0)
(0.000444884 -0.000176425 0)
(0.000443385 -0.000175138 0)
(0.000441974 -0.000173908 0)
(0.000440648 -0.000172731 0)
(0.000439403 -0.000171605 0)
(0.000438236 -0.000170525 0)
(0.000437143 -0.000169491 0)
(0.000436121 -0.000168498 0)
(0.000435168 -0.000167545 0)
(0.000434279 -0.000166629 0)
(0.000433453 -0.000165749 0)
(0.000432687 -0.000164903 0)
(0.000431979 -0.000164089 0)
(0.000431326 -0.000163304 0)
(0.000430725 -0.000162549 0)
(0.000430178 -0.000161821 0)
(0.000429677 -0.000161122 0)
(0.000416166 -0.000169513 0)
(0.000403848 -0.000178175 0)
(0.000391521 -0.000187025 0)
(0.000379182 -0.000196068 0)
(0.000366849 -0.000205283 0)
(0.000354532 -0.000214658 0)
(0.000342245 -0.000224177 0)
(0.000330001 -0.000233822 0)
(0.000317812 -0.000243576 0)
(0.000305689 -0.00025342 0)
(0.000293644 -0.000263333 0)
(0.000281686 -0.000273294 0)
(0.000269827 -0.000283281 0)
(0.000258075 -0.000293268 0)
(0.00024644 -0.00030323 0)
(0.000234929 -0.000313143 0)
(0.00022355 -0.000322977 0)
(0.000212309 -0.000332706 0)
(0.000201212 -0.000342299 0)
(0.000190263 -0.000351727 0)
(0.000179467 -0.000360961 0)
(0.000168825 -0.000369967 0)
(0.000158339 -0.000378717 0)
(0.000148011 -0.000387178 0)
(0.000137839 -0.000395318 0)
(0.000127821 -0.000403108 0)
(0.000117955 -0.000410516 0)
(0.000108236 -0.000417512 0)
(9.86591e-05 -0.000424069 0)
(8.92172e-05 -0.000430158 0)
(7.99025e-05 -0.000435754 0)
(7.07062e-05 -0.000440832 0)
(6.16185e-05 -0.000445369 0)
(5.26281e-05 -0.000449344 0)
(4.37224e-05 -0.000452739 0)
(3.48891e-05 -0.000455539 0)
(2.61146e-05 -0.000457731 0)
(1.73847e-05 -0.000459304 0)
(8.68481e-06 -0.000460251 0)
(0 -0.00045958 0)
(0 -0.000458444 0)
(0 -0.000457301 0)
(0 -0.000456148 0)
(0 -0.000454985 0)
(0 -0.000453812 0)
(0 -0.000452626 0)
(0 -0.000451427 0)
(0 -0.000450212 0)
(0 -0.000448981 0)
(0 -0.000447731 0)
(0 -0.000446461 0)
(0 -0.000445168 0)
(0 -0.000443851 0)
(0 -0.000442507 0)
(0 -0.000441132 0)
(0 -0.000439725 0)
(0 -0.000438281 0)
(0 -0.000436799 0)
(0 -0.000435273 0)
(0 -0.0004337 0)
(0 -0.000432076 0)
(0 -0.000430396 0)
(0 -0.000428654 0)
(0 -0.000426846 0)
(0 -0.000424965 0)
(0 -0.000423004 0)
(0 -0.000420957 0)
(0 -0.000418815 0)
(0 -0.000416572 0)
(0 -0.000414215 0)
(0 -0.000411739 0)
(0 -0.000409128 0)
(0 -0.000406376 0)
(0 -0.000403462 0)
(0 -0.000400383 0)
(0 -0.00039711 0)
(0 -0.000393643 0)
(0 -0.000389942 0)
(1.49188e-05 -0.000385883 3.17841e-21)
(2.98287e-05 -0.000385501 -1.33061e-21)
(4.47209e-05 -0.000384866 -3.40518e-21)
(5.95864e-05 -0.000383979 -7.995e-22)
(7.44166e-05 -0.000382843 1.67747e-21)
(8.92028e-05 -0.00038146 7.37911e-22)
(0.000103936 -0.000379834 -1.1252e-21)
(0.000118609 -0.00037797 -4.43014e-22)
(0.000133212 -0.000375873 2.02839e-21)
(0.000147738 -0.000373547 4.06312e-22)
(0.000162178 -0.000370998 1.02395e-21)
(0.000176525 -0.000368232 2.61817e-21)
(0.000190772 -0.000365257 -2.25107e-24)
(0.00020491 -0.00036208 9.18508e-22)
(0.000218933 -0.000358706 -8.32614e-22)
(0.000232835 -0.000355145 -3.51077e-21)
(0.000246607 -0.000351404 -3.45283e-21)
(0.000260245 -0.00034749 -1.38534e-21)
(0.000273741 -0.000343412 3.89093e-21)
(0.000287091 -0.000339179 6.92479e-21)
(0.000300288 -0.000334798 3.74295e-21)
(0.000313327 -0.000330277 -2.87557e-21)
(0.000326204 -0.000325626 -4.63125e-21)