/*--------------------------------*- C++ -*----------------------------------*\
| =========                 |                                                 |
| \\      /  F ield         | OpenFOAM: The Open Source CFD Toolbox           |
|  \\    /   O peration     | Version:  v2012                                 |
|   \\  /    A nd           | Website:  www.openfoam.com                      |
|    \\/     M anipulation  |                                                 |
\*---------------------------------------------------------------------------*/
FoamFile
{
    version     2.0;
    format      ascii;
    class       volScalarField;
    location    "2";
    object      sigmaEq;
}
// * * * * * * * * * * * * * * * * * * * * * * * * * * * * * * * * * * * * * //

dimensions      [1 -1 -2 0 0 0 0];


internalField   nonuniform List<scalar> 
16000
(
1.01407e+08
9.69829e+07
9.27235e+07
8.89058e+07
8.52622e+07
8.19592e+07
7.88271e+07
7.59619e+07
7.32574e+07
7.07653e+07
6.842e+07
6.62466e+07
6.42046e+07
6.23038e+07
6.05189e+07
5.88517e+07
5.72857e+07
5.58188e+07
5.44398e+07
5.31449e+07
5.1926e+07
5.07789e+07
4.96973e+07
4.86772e+07
4.77135e+07
4.68026e+07
4.594e+07
4.51231e+07
4.43471e+07
4.36112e+07
4.29096e+07
4.22431e+07
4.16061e+07
4.09983e+07
4.0416e+07
3.98575e+07
3.93213e+07
3.88039e+07
3.83067e+07
3.78217e+07
1.01241e+08
9.68277e+07
9.25789e+07
8.87713e+07
8.51375e+07
8.18439e+07
7.87211e+07
7.58648e+07
7.3169e+07
7.06853e+07
6.83483e+07
6.61827e+07
6.41484e+07
6.22551e+07
6.04774e+07
5.88172e+07
5.7258e+07
5.57976e+07
5.44249e+07
5.31361e+07
5.19231e+07
5.07817e+07
4.97057e+07
4.8691e+07
4.77324e+07
4.68268e+07
4.59688e+07
4.51569e+07
4.43851e+07
4.36534e+07
4.29556e+07
4.22917e+07
4.16586e+07
4.10534e+07
4.04745e+07
3.99189e+07
3.93856e+07
3.8871e+07
3.83762e+07
3.7894e+07
1.00911e+08
9.6518e+07
9.22904e+07
8.85026e+07
8.48886e+07
8.16138e+07
7.85095e+07
7.56709e+07
7.29926e+07
7.05256e+07
6.8205e+07
6.60553e+07
6.40364e+07
6.2158e+07
6.03948e+07
5.87485e+07
5.7203e+07
5.57557e+07
5.43958e+07
5.31191e+07
5.19181e+07
5.07879e+07
4.9723e+07
4.87183e+07
4.77702e+07
4.68732e+07
4.60246e+07
4.52203e+07
4.44558e+07
4.37324e+07
4.30384e+07
4.23871e+07
4.17602e+07
4.11636e+07
4.05913e+07
4.0042e+07
3.95144e+07
3.90052e+07
3.85151e+07
3.8038e+07
1.00416e+08
9.6055e+07
9.1859e+07
8.8101e+07
8.45164e+07
8.12697e+07
7.8193e+07
7.53809e+07
7.27286e+07
7.02867e+07
6.79904e+07
6.58643e+07
6.38683e+07
6.2012e+07
6.02703e+07
5.86448e+07
5.71192e+07
5.56912e+07
5.435e+07
5.30913e+07
5.19076e+07
5.0794e+07
4.97453e+07
4.87564e+07
4.78232e+07
4.69416e+07
4.61068e+07
4.5318e+07
4.45661e+07
4.3857e+07
4.31748e+07
4.25263e+07
4.1913e+07
4.13232e+07
4.07611e+07
4.02205e+07
3.97009e+07
3.92007e+07
3.87171e+07
3.82485e+07
9.97601e+07
9.54408e+07
9.12865e+07
8.7568e+07
8.40223e+07
8.08128e+07
7.77728e+07
7.49958e+07
7.23779e+07
6.99691e+07
6.77052e+07
6.56103e+07
6.36447e+07
6.18178e+07
6.01046e+07
5.85066e+07
5.70076e+07
5.56054e+07
5.4289e+07
5.30543e+07
5.18938e+07
5.08025e+07
4.97756e+07
4.88068e+07
4.78948e+07
4.70299e+07
4.62166e+07
4.54392e+07
4.47063e+07
4.40064e+07
4.33154e+07
4.27119e+07
4.21126e+07
4.1536e+07
4.09881e+07
4.04559e+07
3.99478e+07
3.94563e+07
3.89817e+07
3.85224e+07
9.89452e+07
9.46777e+07
9.05753e+07
8.69056e+07
8.34083e+07
8.0245e+07
7.72503e+07
7.4517e+07
7.19417e+07
6.9574e+07
6.73502e+07
6.5294e+07
6.3366e+07
6.15754e+07
5.98973e+07
5.83332e+07
5.6867e+07
5.54962e+07
5.42101e+07
5.30044e+07
5.18718e+07
5.08069e+07
4.98054e+07
4.88607e+07
4.79716e+07
4.71294e+07
4.63366e+07
4.55838e+07
4.48713e+07
4.42048e+07
4.35481e+07
4.29223e+07
4.23469e+07
4.17877e+07
4.12498e+07
4.07372e+07
4.02385e+07
3.97635e+07
3.9298e+07
3.88528e+07
9.7975e+07
9.37689e+07
8.9728e+07
8.61165e+07
8.26766e+07
7.95682e+07
7.66274e+07
7.39458e+07
7.14211e+07
6.91022e+07
6.69259e+07
6.49156e+07
6.30321e+07
6.12844e+07
5.96479e+07
5.81239e+07
5.66962e+07
5.53628e+07
5.4112e+07
5.29413e+07
5.18403e+07
5.08089e+07
4.98346e+07
4.89232e+07
4.80557e+07
4.72486e+07
4.64732e+07
4.57551e+07
4.50721e+07
4.44147e+07
4.36923e+07
4.31961e+07
4.26312e+07
4.20807e+07
4.15504e+07
4.10576e+07
4.05685e+07
4.01126e+07
3.96574e+07
3.92292e+07
9.68534e+07
9.2718e+07
8.87482e+07
8.52036e+07
8.18301e+07
7.8785e+07
7.59064e+07
7.32845e+07
7.08183e+07
6.85557e+07
6.64343e+07
6.44768e+07
6.26447e+07
6.09466e+07
5.93581e+07
5.78804e+07
5.64975e+07
5.52071e+07
5.39981e+07
5.28671e+07
5.18053e+07
5.08098e+07
4.98726e+07
4.89925e+07
4.81607e+07
4.73784e+07
4.66358e+07
4.59348e+07
4.52694e+07
4.46299e+07
4.40383e+07
4.34749e+07
4.29205e+07
4.2398e+07
4.18961e+07
4.14151e+07
4.09502e+07
4.05056e+07
4.00683e+07
3.96526e+07
9.55848e+07
9.15293e+07
8.76395e+07
8.41705e+07
8.08717e+07
7.78979e+07
7.50894e+07
7.25349e+07
7.01344e+07
6.79351e+07
6.58754e+07
6.39773e+07
6.22028e+07
6.05601e+07
5.90253e+07
5.75991e+07
5.62659e+07
5.50232e+07
5.38602e+07
5.2773e+07
5.17539e+07
5.07982e+07
4.99011e+07
4.90564e+07
4.8263e+07
4.7511e+07
4.68059e+07
4.61304e+07
4.54957e+07
4.48877e+07
4.42836e+07
4.37658e+07
4.32462e+07
4.27451e+07
4.22683e+07
4.18045e+07
4.13586e+07
4.09306e+07
4.05083e+07
4.01089e+07
9.41746e+07
9.02074e+07
8.64063e+07
8.3021e+07
7.9805e+07
7.69104e+07
7.41797e+07
7.16998e+07
6.93722e+07
6.72431e+07
6.52516e+07
6.34193e+07
6.17085e+07
6.01272e+07
5.86515e+07
5.72821e+07
5.60037e+07
5.48134e+07
5.37008e+07
5.26615e+07
5.16883e+07
5.07763e+07
4.99204e+07
4.91155e+07
4.83582e+07
4.76429e+07
4.69683e+07
4.63285e+07
4.57224e+07
4.51475e+07
4.45973e+07
4.40823e+07
4.35818e+07
4.31077e+07
4.26484e+07
4.22099e+07
4.17817e+07
4.13752e+07
4.0969e+07
4.05884e+07
9.26281e+07
8.87574e+07
8.50531e+07
8.17593e+07
7.86339e+07
7.58258e+07
7.31799e+07
7.07815e+07
6.85336e+07
6.6481e+07
6.45639e+07
6.28032e+07
6.11617e+07
5.96468e+07
5.82353e+07
5.69275e+07
5.57083e+07
5.45747e+07
5.35163e+07
5.25289e+07
5.16054e+07
5.07405e+07
4.99299e+07
4.91676e+07
4.84513e+07
4.77745e+07
4.71365e+07
4.65316e+07
4.59573e+07
4.54143e+07
4.48909e+07
4.4404e+07
4.39302e+07
4.34812e+07
4.30454e+07
4.26294e+07
4.22215e+07
4.18355e+07
4.14465e+07
4.10846e+07
9.09515e+07
8.71848e+07
8.35851e+07
8.03902e+07
7.73626e+07
7.46479e+07
7.20938e+07
6.97834e+07
6.76214e+07
6.56514e+07
6.38145e+07
6.21308e+07
6.05638e+07
5.91204e+07
5.77777e+07
5.65359e+07
5.53798e+07
5.43066e+07
5.3306e+07
5.23738e+07
5.15027e+07
5.0688e+07
4.99252e+07
4.92081e+07
4.85358e+07
4.78992e+07
4.73025e+07
4.67316e+07
4.61944e+07
4.56803e+07
4.51707e+07
4.4729e+07
4.42861e+07
4.38597e+07
4.34506e+07
4.30545e+07
4.26685e+07
4.23021e+07
4.19311e+07
4.15878e+07
8.9151e+07
8.54956e+07
8.20076e+07
7.89183e+07
7.59954e+07
7.33807e+07
7.09248e+07
6.87085e+07
6.66384e+07
6.47566e+07
6.30053e+07
6.14037e+07
5.9916e+07
5.85486e+07
5.7279e+07
5.61071e+07
5.5018e+07
5.40086e+07
5.3069e+07
5.21947e+07
5.13786e+07
5.06163e+07
4.99025e+07
4.92328e+07
4.86035e+07
4.80102e+07
4.74503e+07
4.69196e+07
4.64171e+07
4.59356e+07
4.54831e+07
4.50544e+07
4.46316e+07
4.42337e+07
4.38447e+07
4.34754e+07
4.31092e+07
4.27661e+07
4.24132e+07
4.20901e+07
8.72334e+07
8.36958e+07
8.03263e+07
7.73491e+07
7.45372e+07
7.20285e+07
6.96767e+07
6.75602e+07
6.55874e+07
6.3799e+07
6.21382e+07
6.06233e+07
5.92192e+07
5.79319e+07
5.6739e+07
5.56404e+07
5.46212e+07
5.36786e+07
5.2802e+07
5.19883e+07
5.12286e+07
5.05214e+07
4.98571e+07
4.92382e+07
4.86517e+07
4.81064e+07
4.75852e+07
4.70992e+07
4.66441e+07
4.61926e+07
4.57108e+07
4.53641e+07
4.49838e+07
4.45997e+07
4.42324e+07
4.38885e+07
4.35404e+07
4.32216e+07
4.28854e+07
4.25835e+07
8.52057e+07
8.17919e+07
7.8547e+07
7.56879e+07
7.29929e+07
7.05959e+07
6.83537e+07
6.63424e+07
6.4472e+07
6.27817e+07
6.12159e+07
5.97921e+07
5.84757e+07
5.72722e+07
5.61596e+07
5.51375e+07
5.41915e+07
5.33184e+07
5.25082e+07
5.1757e+07
5.10575e+07
5.04059e+07
4.97965e+07
4.92258e+07
4.86897e+07
4.81846e+07
4.77081e+07
4.72566e+07
4.68272e+07
4.64242e+07
4.60269e+07
4.5646e+07
4.52918e+07
4.49458e+07
4.46087e+07
4.42877e+07
4.39649e+07
4.36654e+07
4.33497e+07
4.30655e+07
8.3075e+07
7.97906e+07
7.6676e+07
7.39402e+07
7.13675e+07
6.90875e+07
6.696e+07
6.50585e+07
6.32951e+07
6.17073e+07
6.02406e+07
5.89116e+07
5.76863e+07
5.65696e+07
5.55403e+07
5.45973e+07
5.37266e+07
5.2925e+07
5.21827e+07
5.14959e+07
5.08573e+07
5.02631e+07
4.97083e+07
4.91885e+07
4.87014e+07
4.82402e+07
4.7808e+07
4.73917e+07
4.70009e+07
4.66237e+07
4.62438e+07
4.59225e+07
4.55938e+07
4.52746e+07
4.49655e+07
4.46651e+07
4.43662e+07
4.4086e+07
4.37902e+07
4.35237e+07
8.08488e+07
7.76987e+07
7.47193e+07
7.2112e+07
6.96666e+07
6.75081e+07
6.55e+07
6.37127e+07
6.20605e+07
6.0579e+07
5.92151e+07
5.79841e+07
5.6853e+07
5.5826e+07
5.48822e+07
5.40204e+07
5.32268e+07
5.24983e+07
5.1825e+07
5.12034e+07
5.06262e+07
5.00901e+07
4.95897e+07
4.91215e+07
4.86827e+07
4.82675e+07
4.7878e+07
4.75036e+07
4.71487e+07
4.68103e+07
4.64824e+07
4.61686e+07
4.58661e+07
4.55742e+07
4.52873e+07
4.50134e+07
4.47353e+07
4.44779e+07
4.4201e+07
4.39537e+07
7.85344e+07
7.5523e+07
7.26835e+07
7.0209e+07
6.78953e+07
6.58628e+07
6.39782e+07
6.23091e+07
6.07718e+07
5.94001e+07
5.81422e+07
5.70121e+07
5.59778e+07
5.50428e+07
5.41867e+07
5.3408e+07
5.26934e+07
5.20393e+07
5.14365e+07
5.08813e+07
5.03666e+07
4.98897e+07
4.94437e+07
4.90288e+07
4.86354e+07
4.82686e+07
4.7915e+07
4.75778e+07
4.72619e+07
4.69564e+07
4.66615e+07
4.63832e+07
4.61085e+07
4.58454e+07
4.55833e+07
4.53333e+07
4.50769e+07
4.48401e+07
4.45822e+07
4.43524e+07
7.61395e+07
7.32705e+07
7.0575e+07
6.82373e+07
6.60593e+07
6.41565e+07
6.23992e+07
6.08518e+07
5.94327e+07
5.81738e+07
5.70246e+07
5.5998e+07
5.50626e+07
5.42214e+07
5.34544e+07
5.276e+07
5.2125e+07
5.1546e+07
5.10136e+07
5.0525e+07
5.00721e+07
4.96538e+07
4.92623e+07
4.88986e+07
4.85565e+07
4.82324e+07
4.79409e+07
4.76316e+07
4.73512e+07
4.70807e+07
4.68181e+07
4.65673e+07
4.63195e+07
4.60819e+07
4.58431e+07
4.56162e+07
4.53806e+07
4.51643e+07
4.49249e+07
4.47128e+07
7.36714e+07
7.09483e+07
6.84003e+07
6.62028e+07
6.41641e+07
6.23945e+07
6.07677e+07
5.93451e+07
5.80471e+07
5.69036e+07
5.58654e+07
5.49442e+07
5.41095e+07
5.33636e+07
5.26872e+07
5.2078e+07
5.15237e+07
5.10203e+07
5.05598e+07
5.01373e+07
4.97483e+07
4.93878e+07
4.90527e+07
4.87419e+07
4.8444e+07
4.81848e+07
4.78976e+07
4.76225e+07
4.7398e+07
4.71604e+07
4.69339e+07
4.67132e+07
4.64932e+07
4.62818e+07
4.60666e+07
4.58623e+07
4.56473e+07
4.54506e+07
4.52296e+07
4.5034e+07
7.11378e+07
6.85633e+07
6.61658e+07
6.41117e+07
6.22154e+07
6.0582e+07
5.90887e+07
5.77935e+07
5.66191e+07
5.55932e+07
5.4668e+07
5.38539e+07
5.31213e+07
5.24719e+07
5.18868e+07
5.13637e+07
5.08906e+07
5.04632e+07
5.00742e+07
4.97184e+07
4.93919e+07
4.90888e+07
4.88067e+07
4.85426e+07
4.82859e+07
4.80566e+07
4.79006e+07
4.76169e+07
4.74028e+07
4.72092e+07
4.70113e+07
4.68192e+07
4.6627e+07
4.64395e+07
4.62483e+07
4.60652e+07
4.58708e+07
4.56929e+07
4.54902e+07
4.53105e+07
6.8546e+07
6.61225e+07
6.3878e+07
6.197e+07
6.02187e+07
5.87242e+07
5.73668e+07
5.62014e+07
5.51525e+07
5.4246e+07
5.34351e+07
5.27294e+07
5.20997e+07
5.15473e+07
5.10538e+07
5.06168e+07
5.02244e+07
4.98732e+07
4.95546e+07
4.9266e+07
4.90005e+07
4.87564e+07
4.85282e+07
4.83122e+07
4.81126e+07
4.79005e+07
4.77374e+07
4.75826e+07
4.73872e+07
4.72209e+07
4.70488e+07
4.68836e+07
4.67168e+07
4.65536e+07
4.63853e+07
4.62236e+07
4.60494e+07
4.58901e+07
4.57052e+07
4.5541e+07
6.59033e+07
6.36326e+07
6.15433e+07
5.97836e+07
5.81798e+07
5.68263e+07
5.5607e+07
5.45733e+07
5.36516e+07
5.28659e+07
5.21705e+07
5.15738e+07
5.10476e+07
5.05924e+07
5.01905e+07
4.98393e+07
4.95272e+07
4.92511e+07
4.90026e+07
4.87794e+07
4.85747e+07
4.8388e+07
4.82129e+07
4.80503e+07
4.78964e+07
4.77466e+07
4.76176e+07
4.74614e+07
4.73222e+07
4.71831e+07
4.70432e+07
4.69064e+07
4.67644e+07
4.66259e+07
4.6479e+07
4.63383e+07
4.6183e+07
4.60416e+07
4.58739e+07
4.57244e+07
6.32169e+07
6.11005e+07
5.91681e+07
5.75586e+07
5.61042e+07
5.48938e+07
5.38143e+07
5.29138e+07
5.21208e+07
5.14568e+07
5.08777e+07
5.03906e+07
4.9968e+07
4.96101e+07
4.92996e+07
4.90339e+07
4.88019e+07
4.86001e+07
4.84214e+07
4.82622e+07
4.81184e+07
4.7986e+07
4.78641e+07
4.77463e+07
4.76377e+07
4.75267e+07
4.74252e+07
4.73243e+07
4.72143e+07
4.71099e+07
4.6997e+07
4.6887e+07
4.6769e+07
4.66532e+07
4.65273e+07
4.64063e+07
4.62697e+07
4.61452e+07
4.59944e+07
4.58589e+07
6.04937e+07
5.85325e+07
5.67584e+07
5.53008e+07
5.39975e+07
5.29316e+07
5.19935e+07
5.12275e+07
5.0564e+07
5.00225e+07
4.956e+07
4.91824e+07
4.88633e+07
4.86021e+07
4.83824e+07
4.82012e+07
4.80482e+07
4.792e+07
4.78096e+07
4.77144e+07
4.76296e+07
4.75529e+07
4.74815e+07
4.74131e+07
4.73471e+07
4.72791e+07
4.7213e+07
4.714e+07
4.70662e+07
4.69882e+07
4.69054e+07
4.68199e+07
4.67269e+07
4.6633e+07
4.65283e+07
4.64263e+07
4.63081e+07
4.62e+07
4.60658e+07
4.59436e+07
5.77405e+07
5.59353e+07
5.43205e+07
5.30161e+07
5.18652e+07
5.09453e+07
5.01497e+07
4.95191e+07
4.89859e+07
4.85671e+07
4.82213e+07
4.79531e+07
4.77369e+07
4.75717e+07
4.74418e+07
4.73442e+07
4.72689e+07
4.72126e+07
4.71693e+07
4.71358e+07
4.71085e+07
4.70845e+07
4.70623e+07
4.70389e+07
4.70146e+07
4.69862e+07
4.69545e+07
4.69182e+07
4.68746e+07
4.6827e+07
4.67706e+07
4.67105e+07
4.66403e+07
4.6568e+07
4.64831e+07
4.63996e+07
4.62989e+07
4.62065e+07
4.60882e+07
4.59788e+07
5.49638e+07
5.33147e+07
5.18601e+07
5.07099e+07
4.97126e+07
4.89399e+07
4.82877e+07
4.77932e+07
4.73905e+07
4.70945e+07
4.68651e+07
4.67056e+07
4.65914e+07
4.65212e+07
4.64799e+07
4.64644e+07
4.64654e+07
4.64799e+07
4.6502e+07
4.65292e+07
4.65578e+07
4.65859e+07
4.66115e+07
4.66328e+07
4.66489e+07
4.66585e+07
4.66612e+07
4.66561e+07
4.6643e+07
4.66222e+07
4.6592e+07
4.65554e+07
4.65077e+07
4.64557e+07
4.63904e+07
4.63245e+07
4.62411e+07
4.61636e+07
4.6061e+07
4.59638e+07
5.21697e+07
5.0677e+07
4.9383e+07
4.8388e+07
4.75453e+07
4.69206e+07
4.64125e+07
4.60545e+07
4.57823e+07
4.56089e+07
4.54951e+07
4.54434e+07
4.54301e+07
4.54535e+07
4.54991e+07
4.5564e+07
4.56395e+07
4.57227e+07
4.58084e+07
4.58941e+07
4.59768e+07
4.60548e+07
4.61264e+07
4.61903e+07
4.62456e+07
4.62917e+07
4.63279e+07
4.63544e+07
4.63699e+07
4.63763e+07
4.63708e+07
4.63573e+07
4.6331e+07
4.62988e+07
4.62521e+07
4.62032e+07
4.61362e+07
4.60731e+07
4.59856e+07
4.59e+07
4.93644e+07
4.80278e+07
4.68947e+07
4.60558e+07
4.53685e+07
4.48925e+07
4.45291e+07
4.43076e+07
4.41658e+07
4.41143e+07
4.41152e+07
4.417e+07
4.42561e+07
4.43713e+07
4.45021e+07
4.46456e+07
4.47937e+07
4.49437e+07
4.5091e+07
4.52336e+07
4.53687e+07
4.54949e+07
4.56109e+07
4.57158e+07
4.58088e+07
4.58897e+07
4.5958e+07
4.60141e+07
4.60572e+07
4.60888e+07
4.61071e+07
4.61154e+07
4.61097e+07
4.60963e+07
4.60675e+07
4.60348e+07
4.59837e+07
4.59344e+07
4.58616e+07
4.5787e+07
4.65534e+07
4.53726e+07
4.44008e+07
4.37185e+07
4.31874e+07
4.28609e+07
4.26423e+07
4.25573e+07
4.25453e+07
4.26148e+07
4.27291e+07
4.28889e+07
4.30725e+07
4.32776e+07
4.34913e+07
4.37111e+07
4.39295e+07
4.41442e+07
4.43509e+07
4.45481e+07
4.47334e+07
4.49059e+07
4.50645e+07
4.52086e+07
4.53377e+07
4.54521e+07
4.55512e+07
4.5636e+07
4.57054e+07
4.57616e+07
4.58026e+07
4.5832e+07
4.5846e+07
4.58508e+07
4.58392e+07
4.5822e+07
4.57862e+07
4.575e+07
4.56914e+07
4.56272e+07
4.37421e+07
4.27166e+07
4.19063e+07
4.13815e+07
4.10073e+07
4.08307e+07
4.07571e+07
4.08084e+07
4.09254e+07
4.11146e+07
4.13408e+07
4.16037e+07
4.18826e+07
4.21753e+07
4.24697e+07
4.27635e+07
4.30498e+07
4.33268e+07
4.35906e+07
4.38403e+07
4.40738e+07
4.42906e+07
4.44897e+07
4.46713e+07
4.48349e+07
4.4981e+07
4.51094e+07
4.52212e+07
4.53157e+07
4.5395e+07
4.54575e+07
4.55068e+07
4.55394e+07
4.55614e+07
4.55662e+07
4.55638e+07
4.55427e+07
4.55188e+07
4.5474e+07
4.54199e+07
4.09356e+07
4.0065e+07
3.94165e+07
3.905e+07
3.88333e+07
3.88071e+07
3.88785e+07
3.90656e+07
3.93105e+07
3.9618e+07
3.99541e+07
4.03178e+07
4.06897e+07
4.10673e+07
4.14398e+07
4.18048e+07
4.21564e+07
4.2493e+07
4.28116e+07
4.31113e+07
4.33907e+07
4.36496e+07
4.38874e+07
4.41046e+07
4.4301e+07
4.44774e+07
4.46337e+07
4.47713e+07
4.48897e+07
4.49912e+07
4.50744e+07
4.51429e+07
4.51935e+07
4.5232e+07
4.52526e+07
4.52644e+07
4.52575e+07
4.52456e+07
4.5214e+07
4.51693e+07
3.81388e+07
3.74226e+07
3.69362e+07
3.6729e+07
3.66707e+07
3.67955e+07
3.70118e+07
3.73338e+07
3.77054e+07
3.81292e+07
3.8573e+07
3.9035e+07
3.94971e+07
3.99569e+07
4.04044e+07
4.08379e+07
4.1252e+07
4.16457e+07
4.20163e+07
4.23637e+07
4.26867e+07
4.29855e+07
4.326e+07
4.35109e+07
4.37382e+07
4.39431e+07
4.41257e+07
4.42875e+07
4.44285e+07
4.45507e+07
4.46532e+07
4.47395e+07
4.48069e+07
4.48608e+07
4.48961e+07
4.49211e+07
4.49276e+07
4.49267e+07
4.49078e+07
4.48721e+07
3.53561e+07
3.47939e+07
3.44704e+07
3.44238e+07
3.45248e+07
3.48012e+07
3.5162e+07
3.56181e+07
3.61145e+07
3.66526e+07
3.72014e+07
3.77588e+07
3.8308e+07
3.88468e+07
3.93663e+07
3.9865e+07
4.03386e+07
4.07863e+07
4.12063e+07
4.15986e+07
4.19627e+07
4.22992e+07
4.26082e+07
4.28907e+07
4.31472e+07
4.33789e+07
4.35864e+07
4.37712e+07
4.39335e+07
4.40756e+07
4.41967e+07
4.43002e+07
4.4384e+07
4.4453e+07
4.4503e+07
4.45411e+07
4.45608e+07
4.45709e+07
4.45645e+07
4.45372e+07
3.25918e+07
3.21837e+07
3.20241e+07
3.21397e+07
3.24013e+07
3.28297e+07
3.33347e+07
3.39236e+07
3.4543e+07
3.51927e+07
3.58435e+07
3.6493e+07
3.71259e+07
3.77403e+07
3.83283e+07
3.88892e+07
3.9419e+07
3.9918e+07
4.03845e+07
4.08194e+07
4.12222e+07
4.15941e+07
4.19356e+07
4.22479e+07
4.25318e+07
4.27887e+07
4.30194e+07
4.32257e+07
4.34079e+07
4.35684e+07
4.37066e+07
4.38259e+07
4.39244e+07
4.40069e+07
4.40697e+07
4.41194e+07
4.41506e+07
4.41704e+07
4.41749e+07
4.41553e+07
2.98498e+07
2.9596e+07
2.9602e+07
2.9882e+07
3.03056e+07
3.08867e+07
3.15353e+07
3.22555e+07
3.29954e+07
3.37538e+07
3.45031e+07
3.52411e+07
3.5954e+07
3.66402e+07
3.72931e+07
3.79123e+07
3.84951e+07
3.90419e+07
3.95518e+07
4.00261e+07
4.04649e+07
4.08696e+07
4.1241e+07
4.15808e+07
4.18899e+07
4.217e+07
4.24223e+07
4.26483e+07
4.28491e+07
4.30266e+07
4.31813e+07
4.33155e+07
4.34289e+07
4.35248e+07
4.36016e+07
4.36633e+07
4.37076e+07
4.3738e+07
4.37545e+07
4.37436e+07
2.7134e+07
2.70356e+07
2.72096e+07
2.7657e+07
2.82445e+07
2.89789e+07
2.97704e+07
3.06199e+07
3.14774e+07
3.23409e+07
3.31849e+07
3.40073e+07
3.47959e+07
3.55499e+07
3.62636e+07
3.69377e+07
3.75696e+07
3.81615e+07
3.8712e+07
3.92234e+07
3.96959e+07
4.01314e+07
4.05312e+07
4.08969e+07
4.123e+07
4.15322e+07
4.1805e+07
4.20499e+07
4.22685e+07
4.24623e+07
4.26325e+07
4.27808e+07
4.29077e+07
4.30158e+07
4.31039e+07
4.31762e+07
4.32297e+07
4.32687e+07
4.32927e+07
4.32875e+07
2.44475e+07
2.45063e+07
2.48519e+07
2.54705e+07
2.6224e+07
2.71124e+07
2.80454e+07
2.90218e+07
2.99935e+07
3.09579e+07
3.18922e+07
3.27943e+07
3.36544e+07
3.44715e+07
3.52423e+07
3.59669e+07
3.66448e+07
3.72775e+07
3.78651e+07
3.841e+07
3.89128e+07
3.93761e+07
3.9801e+07
4.01898e+07
4.0544e+07
4.08654e+07
4.1156e+07
4.1417e+07
4.1651e+07
4.18579e+07
4.20419e+07
4.22009e+07
4.23412e+07
4.24578e+07
4.25602e+07
4.26397e+07
4.27094e+07
4.27563e+07
4.27959e+07
4.28033e+07
2.17944e+07
2.20137e+07
2.2536e+07
2.33308e+07
2.42531e+07
2.52959e+07
2.63689e+07
2.74689e+07
2.85506e+07
2.96112e+07
3.06308e+07
3.16075e+07
3.25339e+07
3.34094e+07
3.42319e+07
3.50033e+07
3.57211e+07
3.63933e+07
3.70153e+07
3.75914e+07
3.81232e+07
3.86121e+07
3.90615e+07
3.9472e+07
3.98471e+07
4.01874e+07
4.04965e+07
4.07741e+07
4.10248e+07
4.12467e+07
4.14463e+07
4.16189e+07
4.17741e+07
4.19034e+07
4.202e+07
4.21118e+07
4.21946e+07
4.22529e+07
4.23063e+07
4.23153e+07
1.91768e+07
1.95619e+07
2.0268e+07
2.12453e+07
2.23389e+07
2.35363e+07
2.47465e+07
2.59662e+07
2.71527e+07
2.83035e+07
2.94028e+07
3.04477e+07
3.14357e+07
3.23636e+07
3.32351e+07
3.40474e+07
3.48057e+07
3.55111e+07
3.61623e+07
3.67668e+07
3.7322e+07
3.78346e+07
3.83036e+07
3.87336e+07
3.91257e+07
3.9482e+07
3.98057e+07
4.00962e+07
4.03596e+07
4.05909e+07
4.08019e+07
4.09792e+07
4.11464e+07
4.12733e+07
4.14071e+07
4.1485e+07
4.16013e+07
4.16297e+07
4.17566e+07
4.17268e+07
1.65997e+07
1.71589e+07
1.8059e+07
1.92265e+07
2.04948e+07
2.18458e+07
2.31897e+07
2.45235e+07
2.58084e+07
2.70433e+07
2.82158e+07
2.93233e+07
3.03674e+07
3.13419e+07
3.22568e+07
3.31042e+07
3.38867e+07
3.46291e+07
3.53119e+07
3.59374e+07
3.65186e+07
3.70489e+07
3.75388e+07
3.7985e+07
3.83945e+07
3.87657e+07
3.91048e+07
3.94089e+07
3.96866e+07
3.99304e+07
4.01556e+07
4.03445e+07
4.05263e+07
4.06645e+07
4.08123e+07
4.09054e+07
4.10274e+07
4.10899e+07
4.11861e+07
4.12812e+07
1.4064e+07
1.48106e+07
1.59187e+07
1.72863e+07
1.87307e+07
2.02338e+07
2.17045e+07
2.31464e+07
2.45227e+07
2.58322e+07
2.707e+07
2.8231e+07
2.93233e+07
3.0336e+07
3.12909e+07
3.21599e+07
3.29934e+07
3.37688e+07
3.4457e+07
3.51119e+07
3.57043e+07
3.62568e+07
3.67601e+07
3.72239e+07
3.7647e+07
3.80332e+07
3.83855e+07
3.87036e+07
3.89942e+07
3.92525e+07
3.94902e+07
3.96958e+07
3.98884e+07
4.00486e+07
4.02007e+07
4.03258e+07
4.04308e+07
4.05433e+07
4.05648e+07
4.07419e+07
1.15767e+07
1.25319e+07
1.38674e+07
1.54451e+07
1.70674e+07
1.8716e+07
2.03072e+07
2.1846e+07
2.33012e+07
2.46789e+07
2.59717e+07
2.71829e+07
2.83159e+07
2.93678e+07
3.03601e+07
3.12564e+07
3.21263e+07
3.28811e+07
3.36168e+07
3.42716e+07
3.48874e+07
3.54507e+07
3.59693e+07
3.64449e+07
3.68798e+07
3.72766e+07
3.76386e+07
3.79657e+07
3.82642e+07
3.85299e+07
3.87734e+07
3.89849e+07
3.91804e+07
3.93454e+07
3.94957e+07
3.96263e+07
3.97212e+07
3.98442e+07
3.98423e+07
4.00425e+07
9.14026e+06
1.03399e+07
1.19297e+07
1.37269e+07
1.55212e+07
1.73084e+07
1.90013e+07
2.0632e+07
2.21617e+07
2.35917e+07
2.4931e+07
2.61822e+07
2.73431e+07
2.84314e+07
2.94296e+07
3.03767e+07
3.12231e+07
3.20066e+07
3.27591e+07
3.34337e+07
3.40667e+07
3.46413e+07
3.51737e+07
3.56587e+07
3.61047e+07
3.65103e+07
3.68814e+07
3.7217e+07
3.75229e+07
3.77968e+07
3.80457e+07
3.82651e+07
3.84628e+07
3.86359e+07
3.87829e+07
3.8923e+07
3.90074e+07
3.91435e+07
3.91276e+07
3.93478e+07
6.76551e+06
8.27151e+06
1.0146e+07
1.2165e+07
1.41242e+07
1.60266e+07
1.78191e+07
1.95136e+07
2.10916e+07
2.25638e+07
2.3943e+07
2.52192e+07
2.64119e+07
2.75119e+07
2.85378e+07
2.94816e+07
3.03502e+07
3.11689e+07
3.19211e+07
3.2609e+07
3.32477e+07
3.38305e+07
3.43693e+07
3.4861e+07
3.5313e+07
3.57246e+07
3.6101e+07
3.64421e+07
3.67526e+07
3.70315e+07
3.7284e+07
3.75086e+07
3.77088e+07
3.7888e+07
3.80362e+07
3.81847e+07
3.82692e+07
3.84178e+07
3.8402e+07
3.86374e+07
4.47993e+06
6.40452e+06
8.59106e+06
1.08136e+07
1.29116e+07
1.49025e+07
1.67491e+07
1.85e+07
2.01212e+07
2.16211e+07
2.30097e+07
2.43157e+07
2.55133e+07
2.66359e+07
2.76658e+07
2.86269e+07
2.95092e+07
3.03268e+07
3.10836e+07
3.17792e+07
3.2423e+07
3.3013e+07
3.35572e+07
3.40549e+07
3.45122e+07
3.49291e+07
3.53103e+07
3.56563e+07
3.59711e+07
3.62548e+07
3.6511e+07
3.67406e+07
3.69437e+07
3.71286e+07
3.72791e+07
3.74348e+07
3.7522e+07
3.76799e+07
3.76697e+07
3.79131e+07
2.38515e+06
4.90119e+06
7.35121e+06
9.72267e+06
1.18988e+07
1.39375e+07
1.58428e+07
1.75341e+07
1.92404e+07
2.07421e+07
2.2161e+07
2.34635e+07
2.46744e+07
2.57948e+07
2.68314e+07
2.77921e+07
2.86777e+07
2.95006e+07
3.02585e+07
3.09581e+07
3.16031e+07
3.21961e+07
3.2742e+07
3.32424e+07
3.37016e+07
3.41212e+07
3.45048e+07
3.48538e+07
3.51712e+07
3.54583e+07
3.57174e+07
3.59512e+07
3.61574e+07
3.63476e+07
3.65019e+07
3.66643e+07
3.6756e+07
3.69219e+07
3.69178e+07
3.71665e+07
1.41839e+06
4.1077e+06
6.57852e+06
8.97118e+06
1.11346e+07
1.31915e+07
1.50792e+07
1.68345e+07
1.84523e+07
1.99708e+07
2.13788e+07
2.26723e+07
2.38815e+07
2.49935e+07
2.6029e+07
2.6984e+07
2.78697e+07
2.86871e+07
2.94437e+07
3.0141e+07
3.07851e+07
3.13775e+07
3.19233e+07
3.24241e+07
3.28841e+07
3.33048e+07
3.36897e+07
3.40405e+07
3.43597e+07
3.46493e+07
3.49106e+07
3.51477e+07
3.53567e+07
3.55511e+07
3.57087e+07
3.58762e+07
3.59721e+07
3.61437e+07
3.61455e+07
3.6396e+07
2.88144e+06
4.35041e+06
6.41567e+06
8.61396e+06
1.06763e+07
1.26469e+07
1.44823e+07
1.62064e+07
1.77932e+07
1.92732e+07
2.06566e+07
2.19347e+07
2.31266e+07
2.42282e+07
2.52518e+07
2.61988e+07
2.7076e+07
2.78876e+07
2.86379e+07
2.93309e+07
2.99705e+07
3.05599e+07
3.11027e+07
3.16016e+07
3.20599e+07
3.24798e+07
3.28641e+07
3.3215e+07
3.35346e+07
3.38254e+07
3.4088e+07
3.43273e+07
3.45384e+07
3.4736e+07
3.48964e+07
3.50679e+07
3.51676e+07
3.53434e+07
3.53503e+07
3.56008e+07
4.8825e+06
5.43558e+06
6.84599e+06
8.67939e+06
1.05157e+07
1.23455e+07
1.40734e+07
1.57112e+07
1.72386e+07
1.86811e+07
2.00195e+07
2.12702e+07
2.24324e+07
2.35123e+07
2.45157e+07
2.54458e+07
2.63086e+07
2.71073e+07
2.78469e+07
2.85304e+07
2.91621e+07
2.97447e+07
3.02819e+07
3.07762e+07
3.12308e+07
3.16478e+07
3.20299e+07
3.23794e+07
3.26982e+07
3.29889e+07
3.32518e+07
3.34921e+07
3.37044e+07
3.39041e+07
3.40665e+07
3.4241e+07
3.43434e+07
3.4522e+07
3.45333e+07
3.47824e+07
6.91938e+06
6.93056e+06
7.73749e+06
9.11758e+06
1.06477e+07
1.22673e+07
1.38399e+07
1.53713e+07
1.68133e+07
1.8182e+07
1.94648e+07
2.06671e+07
2.17905e+07
2.28375e+07
2.3813e+07
2.47196e+07
2.55621e+07
2.63435e+07
2.7068e+07
2.77388e+07
2.83592e+07
2.89324e+07
2.94614e+07
2.99488e+07
3.03975e+07
3.08098e+07
3.1188e+07
3.15345e+07
3.18509e+07
3.214e+07
3.24019e+07
3.26419e+07
3.28543e+07
3.30548e+07
3.32182e+07
3.33942e+07
3.34988e+07
3.36791e+07
3.36941e+07
3.39406e+07
8.92868e+06
8.58961e+06
8.92087e+06
9.85976e+06
1.10448e+07
1.24086e+07
1.37888e+07
1.51717e+07
1.65015e+07
1.77812e+07
1.899e+07
2.01336e+07
2.12059e+07
2.22113e+07
2.31503e+07
2.40264e+07
2.48422e+07
2.56008e+07
2.63053e+07
2.69588e+07
2.75643e+07
2.81245e+07
2.86422e+07
2.91201e+07
2.95605e+07
2.99657e+07
3.03381e+07
3.06797e+07
3.09923e+07
3.12784e+07
3.15382e+07
3.17767e+07
3.19886e+07
3.21892e+07
3.23529e+07
3.25307e+07
3.26357e+07
3.28165e+07
3.2835e+07
3.30778e+07
1.08917e+07
1.03e+07
1.02664e+07
1.08147e+07
1.16568e+07
1.27432e+07
1.39035e+07
1.5116e+07
1.63093e+07
1.74789e+07
1.85984e+07
1.96675e+07
2.06781e+07
2.16313e+07
2.2526e+07
2.33642e+07
2.41473e+07
2.48778e+07
2.5558e+07
2.61904e+07
2.67775e+07
2.73218e+07
2.78258e+07
2.82916e+07
2.87218e+07
2.91183e+07
2.94833e+07
2.98185e+07
3.0126e+07
3.04076e+07
3.06641e+07
3.08996e+07
3.11096e+07
3.1308e+07
3.14712e+07
3.16472e+07
3.17531e+07
3.19344e+07
3.19549e+07
3.21945e+07
1.28013e+07
1.20134e+07
1.16931e+07
1.19108e+07
1.24336e+07
1.32403e+07
1.41671e+07
1.51891e+07
1.62278e+07
1.72713e+07
1.82866e+07
1.92696e+07
2.02075e+07
2.10996e+07
2.19419e+07
2.27354e+07
2.34798e+07
2.41769e+07
2.4828e+07
2.5435e+07
2.6e+07
2.6525e+07
2.70121e+07
2.74632e+07
2.78805e+07
2.82657e+07
2.86209e+07
2.89477e+07
2.9248e+07
2.9523e+07
2.9775e+07
3.00049e+07
3.02137e+07
3.04077e+07
3.05728e+07
3.07529e+07
3.08543e+07
3.10299e+07
3.10565e+07
3.12877e+07
1.46542e+07
1.37046e+07
1.31524e+07
1.30916e+07
1.33284e+07
1.38674e+07
1.45584e+07
1.53807e+07
1.62515e+07
1.71554e+07
1.80538e+07
1.89389e+07
1.97939e+07
2.06157e+07
2.13979e+07
2.21398e+07
2.28396e+07
2.34981e+07
2.41155e+07
2.46933e+07
2.52326e+07
2.57353e+07
2.62028e+07
2.66368e+07
2.70393e+07
2.74116e+07
2.77558e+07
2.8073e+07
2.83656e+07
2.86338e+07
2.88809e+07
2.91059e+07
2.93128e+07
2.95013e+07
2.96704e+07
2.98329e+07
2.99272e+07
3.01158e+07
3.01365e+07
3.03714e+07
1.64474e+07
1.53595e+07
1.46139e+07
1.43177e+07
1.43018e+07
1.45925e+07
1.50541e+07
1.5674e+07
1.63696e+07
1.71244e+07
1.78959e+07
1.86733e+07
1.94365e+07
2.018e+07
2.08947e+07
2.15785e+07
2.22279e+07
2.28427e+07
2.34219e+07
2.39664e+07
2.44764e+07
2.49535e+07
2.53984e+07
2.5813e+07
2.61977e+07
2.65554e+07
2.68855e+07
2.71923e+07
2.74728e+07
2.77343e+07
2.79704e+07
2.81905e+07
2.83881e+07
2.85663e+07
2.87352e+07
2.88591e+07
2.90096e+07
2.91695e+07
2.92084e+07
2.94274e+07
1.81796e+07
1.69702e+07
1.60594e+07
1.55615e+07
1.53237e+07
1.53879e+07
1.56321e+07
1.60532e+07
1.65711e+07
1.71711e+07
1.78082e+07
1.84701e+07
1.91336e+07
1.97913e+07
2.04318e+07
2.10513e+07
2.16448e+07
2.22108e+07
2.27473e+07
2.32544e+07
2.37315e+07
2.41797e+07
2.4599e+07
2.4991e+07
2.53558e+07
2.56959e+07
2.60104e+07
2.63034e+07
2.65719e+07
2.68231e+07
2.70489e+07
2.72646e+07
2.7449e+07
2.76379e+07
2.77771e+07
2.7955e+07
2.80676e+07
2.82274e+07
2.82604e+07
2.84697e+07
1.98488e+07
1.85307e+07
1.74758e+07
1.68033e+07
1.63703e+07
1.62302e+07
1.62719e+07
1.65019e+07
1.68441e+07
1.72873e+07
1.77855e+07
1.8326e+07
1.88836e+07
1.9449e+07
2.00092e+07
2.05588e+07
2.10911e+07
2.16035e+07
2.20931e+07
2.25589e+07
2.29997e+07
2.34158e+07
2.38068e+07
2.41737e+07
2.45167e+07
2.48369e+07
2.51347e+07
2.54116e+07
2.56681e+07
2.59055e+07
2.61245e+07
2.63267e+07
2.65114e+07
2.66857e+07
2.68347e+07
2.70005e+07
2.70944e+07
2.72566e+07
2.72879e+07
2.74927e+07
2.14543e+07
2.00375e+07
1.88551e+07
1.80294e+07
1.74237e+07
1.70998e+07
1.69549e+07
1.70041e+07
1.71758e+07
1.74631e+07
1.78205e+07
1.8236e+07
1.86829e+07
1.91512e+07
1.96258e+07
2.01004e+07
2.05667e+07
2.10213e+07
2.14598e+07
2.18805e+07
2.22816e+07
2.26625e+07
2.30224e+07
2.33618e+07
2.36803e+07
2.39792e+07
2.42576e+07
2.45183e+07
2.47592e+07
2.49851e+07
2.51908e+07
2.5386e+07
2.55583e+07
2.57286e+07
2.58665e+07
2.60223e+07
2.61184e+07
2.62786e+07
2.63078e+07
2.65068e+07
2.29944e+07
2.14873e+07
2.01907e+07
1.92295e+07
1.84705e+07
1.79816e+07
1.76662e+07
1.75465e+07
1.75554e+07
1.76906e+07
1.79078e+07
1.81965e+07
1.85296e+07
1.88964e+07
1.92812e+07
1.96761e+07
2.0072e+07
2.04644e+07
2.08478e+07
2.12199e+07
2.15779e+07
2.19205e+07
2.22466e+07
2.25559e+07
2.28477e+07
2.31227e+07
2.33804e+07
2.36221e+07
2.38469e+07
2.40576e+07
2.42514e+07
2.44343e+07
2.45981e+07
2.47589e+07
2.48905e+07
2.50393e+07
2.5129e+07
2.52834e+07
2.53106e+07
2.55011e+07
2.44686e+07
2.28784e+07
2.14785e+07
2.0396e+07
1.95e+07
1.88626e+07
1.83915e+07
1.8115e+07
1.79699e+07
1.79581e+07
1.80378e+07
1.82e+07
1.8418e+07
1.86815e+07
1.89731e+07
1.92854e+07
1.96071e+07
1.99339e+07
2.02586e+07
2.05788e+07
2.08903e+07
2.11919e+07
2.14812e+07
2.17579e+07
2.20207e+07
2.22699e+07
2.25045e+07
2.27259e+07
2.29323e+07
2.31272e+07
2.33062e+07
2.34769e+07
2.36289e+07
2.37798e+07
2.39028e+07
2.40427e+07
2.41283e+07
2.42756e+07
2.43016e+07
2.44829e+07
2.58753e+07
2.42082e+07
2.27143e+07
2.1523e+07
2.0504e+07
1.97331e+07
1.91207e+07
1.87002e+07
1.84112e+07
1.82601e+07
1.82071e+07
1.82445e+07
1.83483e+07
1.85051e+07