/*--------------------------------*- C++ -*----------------------------------*\
| =========                 |                                                 |
| \\      /  F ield         | OpenFOAM: The Open Source CFD Toolbox           |
|  \\    /   O peration     | Version:  v2012                                 |
|   \\  /    A nd           | Website:  www.openfoam.com                      |
|    \\/     M anipulation  |                                                 |
\*---------------------------------------------------------------------------*/
FoamFile
{
    version     2.0;
    format      ascii;
    class       volSymmTensorField;
    location    "2";
    object      sigma;
}
// * * * * * * * * * * * * * * * * * * * * * * * * * * * * * * * * * * * * * //

dimensions      [1 -1 -2 0 0 0 0];


internalField   nonuniform List<symmTensor> 
16000
(
(1.14845e+08 -1.08942e+06 1.79615e-09 861160 1.8783e-08 3.4712e+07)
(1.10836e+08 -981823 2.76489e-08 1.9376e+06 1.80785e-08 3.38319e+07)
(1.07238e+08 -883383 -8.64625e-10 3.27099e+06 -1.6585e-08 3.31526e+07)
(1.03728e+08 -792641 4.67306e-08 4.14939e+06 -3.05555e-08 3.23631e+07)
(1.00539e+08 -708922 -2.30375e-08 5.17225e+06 -3.82076e-10 3.17134e+07)
(9.74513e+07 -631964 4.74617e-17 5.87979e+06 7.43129e-15 3.09993e+07)
(9.46139e+07 -560618 -2.23297e-08 6.65513e+06 -2.67158e-08 3.03807e+07)
(9.18833e+07 -495023 1.24364e-09 7.2141e+06 2.4989e-08 2.97292e+07)
(8.9349e+07 -434084 -1.86579e-08 7.79228e+06 1.14668e-08 2.91424e+07)
(8.69214e+07 -377950 -3.74425e-08 8.22194e+06 -1.20349e-08 2.8543e+07)
(8.46501e+07 -325768 -1.71947e-08 8.64267e+06 1.03568e-08 2.79878e+07)
(8.24805e+07 -277579 1.7015e-08 8.96021e+06 3.75402e-10 2.74322e+07)
(8.04377e+07 -232774 -2.39124e-16 9.25456e+06 -2.06569e-15 2.69077e+07)
(7.8489e+07 -191303 8.48764e-10 9.47552e+06 1.87686e-08 2.63894e+07)
(7.66451e+07 -152733 4.51663e-08 9.66775e+06 -7.89898e-09 2.58939e+07)
(7.48863e+07 -116967 -7.49343e-10 9.80615e+06 -1.73113e-08 2.54077e+07)
(7.32156e+07 -83689.2 3.52221e-10 9.91525e+06 8.33495e-09 2.49393e+07)
(7.16208e+07 -52792.4 -7.4047e-17 9.98359e+06 1.44329e-15 2.44813e+07)
(7.01011e+07 -24027.4 -1.86268e-16 1.00246e+07 -1.35901e-15 2.40377e+07)
(6.86484e+07 2691.91 -2.53111e-08 1.00339e+07 6.82201e-09 2.36047e+07)
(6.72602e+07 27587.2 -2.76271e-10 1.00189e+07 -7.30265e-09 2.31837e+07)
(6.5931e+07 50697.6 -1.25451e-08 9.97866e+06 -1.45406e-08 2.27729e+07)
(6.46575e+07 72246.6 -1.16661e-08 9.91744e+06 -3.43747e-10 2.23725e+07)
(6.34357e+07 92213.3 -1.10946e-08 9.83598e+06 6.39602e-09 2.19815e+07)
(6.22621e+07 110835 2.18819e-10 9.73666e+06 6.57979e-09 2.15996e+07)
(6.11339e+07 128049 1.04899e-08 9.62098e+06 -6.10228e-09 2.12265e+07)
(6.00473e+07 144065 -2.08096e-08 9.49036e+06 -6.63072e-10 2.08613e+07)
(5.90008e+07 158891 1.04981e-08 9.34639e+06 1.2705e-08 2.05041e+07)
(5.79898e+07 172567 1.95455e-08 9.19021e+06 -5.42935e-09 2.0154e+07)
(5.70145e+07 185386 -1.93828e-08 9.02289e+06 -6.62852e-09 1.98112e+07)
(5.60696e+07 197048 0 8.8459e+06 0 1.94747e+07)
(5.51561e+07 208189 -1.52568e-10 8.65939e+06 -5.81482e-09 1.91446e+07)
(5.42693e+07 218394 -8.91023e-09 8.46535e+06 -3.14363e-10 1.88204e+07)
(5.34087e+07 227891 -8.5568e-09 8.26354e+06 5.36591e-09 1.85017e+07)
(5.25721e+07 236660 -8.49145e-09 8.05621e+06 -3.09128e-10 1.81885e+07)
(5.17568e+07 244738 -1.67174e-08 7.84225e+06 -6.17935e-09 1.78797e+07)
(5.09633e+07 252009 -1.62074e-08 7.62483e+06 -6.08241e-10 1.75765e+07)
(5.01861e+07 258957 3.64948e-10 7.40161e+06 1.64274e-08 1.72763e+07)
(4.943e+07 264621 7.62383e-09 7.17648e+06 -5.13803e-09 1.69819e+07)
(4.86838e+07 270824 -7.91813e-09 6.94702e+06 -1.65038e-08 1.66892e+07)
(1.14574e+08 -3.2613e+06 -2.5438e-08 942732 9.28399e-09 3.46552e+07)
(1.10587e+08 -2.93942e+06 8.29075e-08 2.00482e+06 2.01195e-08 3.37776e+07)
(1.0701e+08 -2.64492e+06 2.0221e-08 3.3247e+06 -3.2061e-08 3.31003e+07)
(1.03518e+08 -2.37343e+06 -2.4799e-09 4.19149e+06 -1.59498e-08 3.2313e+07)
(1.00347e+08 -2.12294e+06 -1.84823e-08 5.20344e+06 2.85095e-08 3.16652e+07)
(9.72752e+07 -1.89267e+06 7.31037e-16 5.90157e+06 3.70459e-15 3.0953e+07)
(9.44523e+07 -1.67918e+06 -3.95303e-09 6.66814e+06 -2.60464e-08 3.03361e+07)
(9.17352e+07 -1.48289e+06 -1.63734e-08 7.21949e+06 2.38596e-08 2.96864e+07)
(8.92133e+07 -1.30054e+06 4.37611e-08 7.79063e+06 3.75095e-08 2.91012e+07)
(8.67972e+07 -1.13255e+06 -3.85191e-08 8.21415e+06 -1.29897e-08 2.85034e+07)
(8.45365e+07 -976394 -3.05647e-09 8.62926e+06 -2.12428e-08 2.79497e+07)
(8.23768e+07 -832189 3.2596e-08 8.94188e+06 -8.2844e-09 2.73956e+07)
(8.03431e+07 -698119 -1.50251e-08 9.23179e+06 8.73438e-09 2.68725e+07)
(7.84029e+07 -574027 1.44999e-08 9.44887e+06 -8.32814e-09 2.63555e+07)
(7.65668e+07 -458647 5.95735e-08 9.63761e+06 -5.21584e-09 2.58613e+07)
(7.48154e+07 -351653 1.12295e-09 9.773e+06 8.61303e-09 2.53765e+07)
(7.31515e+07 -252159 1.05576e-09 9.87942e+06 8.29402e-09 2.49093e+07)
(7.15631e+07 -159769 2.73736e-08 9.94548e+06 1.98654e-09 2.44526e+07)
(7.00493e+07 -73842.5 1.51079e-08 9.98447e+06 1.64589e-08 2.40101e+07)
(6.86022e+07 6014.82 2.65299e-08 9.99209e+06 9.60525e-09 2.35783e+07)
(6.72193e+07 80299.1 -1.65723e-09 9.97559e+06 -1.45339e-08 2.31585e+07)
(6.58951e+07 149340 -7.73299e-10 9.93423e+06 -6.99257e-09 2.27488e+07)
(6.46262e+07 213611 -1.16731e-08 9.87194e+06 -8.94959e-10 2.23494e+07)
(6.3409e+07 273255 1.13473e-08 9.78975e+06 1.0198e-09 2.19596e+07)
(6.22395e+07 328932 -6.56753e-10 9.6897e+06 -6.54757e-09 2.15788e+07)
(6.11156e+07 380360 1.13264e-08 9.57357e+06 7.28531e-09 2.12067e+07)
(6.00326e+07 428727 -2.08271e-08 9.44255e+06 -1.74926e-09 2.08425e+07)
(5.89899e+07 473007 -1.11985e-09 9.29831e+06 -1.23731e-08 2.04865e+07)
(5.79822e+07 515162 1.09226e-08 9.14211e+06 1.29087e-08 2.01373e+07)
(5.701e+07 553504 5.11664e-10 8.97473e+06 6.06233e-09 1.97954e+07)
(5.60681e+07 589989 -1.97142e-08 8.79816e+06 -1.35399e-08 1.94599e+07)
(5.51562e+07 623908 0 8.61214e+06 0 1.91305e+07)
(5.42728e+07 654225 -8.48461e-09 8.4187e+06 4.87352e-09 1.88075e+07)
(5.34139e+07 683150 9.1315e-09 8.21734e+06 6.58211e-09 1.84894e+07)
(5.25804e+07 708590 -8.10022e-09 8.01092e+06 4.76175e-09 1.81774e+07)
(5.1767e+07 732991 -8.30101e-09 7.79742e+06 -7.74328e-10 1.78693e+07)
(5.09763e+07 754061 -8.86145e-09 7.58112e+06 -1.17483e-08 1.75672e+07)
(5.02013e+07 774901 -7.93378e-09 7.35846e+06 -8.57046e-10 1.72679e+07)
(4.94476e+07 791431 2.32674e-08 7.13465e+06 2.50612e-09 1.69747e+07)
(4.87036e+07 809995 -1.40022e-08 6.90579e+06 7.38334e-09 1.66828e+07)
(1.14034e+08 -5.41241e+06 -3.69553e-08 1.10495e+06 -1.81811e-08 3.45418e+07)
(1.10092e+08 -4.87898e+06 2.19969e-08 2.13851e+06 -1.64088e-08 3.36692e+07)
(1.06555e+08 -4.39087e+06 8.55855e-09 3.43151e+06 3.24462e-08 3.29959e+07)
(1.03101e+08 -3.94085e+06 -2.40788e-08 4.27521e+06 -1.15481e-09 3.22129e+07)
(9.99639e+07 -3.52559e+06 -9.66364e-16 5.26546e+06 -4.06097e-15 3.15688e+07)
(9.69238e+07 -3.14382e+06 1.84667e-08 5.94488e+06 -1.21434e-08 3.08606e+07)
(9.41299e+07 -2.78983e+06 1.76762e-08 6.69397e+06 -1.15122e-08 3.02472e+07)
(9.14397e+07 -2.46434e+06 -4.01862e-08 7.23017e+06 -3.09459e-09 2.9601e+07)
(8.89425e+07 -2.16191e+06 4.42379e-08 7.78729e+06 2.61979e-08 2.90189e+07)
(8.65494e+07 -1.8833e+06 3.96723e-08 8.19857e+06 1.43815e-08 2.84244e+07)
(8.43098e+07 -1.62427e+06 -4.31664e-08 8.60249e+06 -3.51216e-08 2.78737e+07)
(8.21697e+07 -1.38505e+06 -1.46738e-08 8.90529e+06 8.33988e-09 2.73225e+07)
(8.01543e+07 -1.16261e+06 -1.41234e-08 9.18632e+06 8.10692e-09 2.68022e+07)
(7.82309e+07 -956710 -6.36695e-09 9.39559e+06 -2.78342e-08 2.6288e+07)
(7.64107e+07 -765222 -1.52448e-08 9.57736e+06 -1.73525e-09 2.57964e+07)
(7.46738e+07 -587641 3.73462e-09 9.7066e+06 1.70564e-08 2.53141e+07)
(7.30237e+07 -422443 -1.59409e-08 9.80762e+06 -9.84314e-09 2.48494e+07)
(7.14479e+07 -269039 1.2026e-08 9.86892e+06 -6.46408e-09 2.43951e+07)
(6.99461e+07 -126268 -1.32796e-08 9.90382e+06 -1.69313e-09 2.3955e+07)
(6.85101e+07 6396.2 4.13906e-08 9.90784e+06 1.93577e-08 2.35254e+07)
(6.71377e+07 129958 1.37745e-09 9.88832e+06 7.19619e-09 2.31078e+07)
(6.5823e+07 244723 1.07534e-08 9.8444e+06 -5.47528e-09 2.27002e+07)
(6.45635e+07 351769 2.21886e-08 9.77995e+06 -3.65461e-09 2.2303e+07)
(6.33545e+07 450953 1.13443e-08 9.69617e+06 1.43751e-09 2.19152e+07)
(6.21933e+07 543738 1.091e-09 9.59462e+06 6.48376e-09 2.15364e+07)
(6.10764e+07 629239 -9.70555e-09 9.47802e+06 4.79904e-09 2.11663e+07)
(6.00004e+07 709573 9.7639e-10 9.346e+06 6.21404e-09 2.08039e+07)
(5.89641e+07 783106 -1.10842e-08 9.20245e+06 -7.56054e-09 2.045e+07)
(5.79614e+07 852207 -3.05741e-08 9.04594e+06 -1.04621e-08 2.01022e+07)
(5.69966e+07 915813 3.0599e-08 8.8798e+06 1.61717e-08 1.97629e+07)
(5.60567e+07 974370 1.44147e-11 8.70426e+06 1.05067e-10 1.94283e+07)
(5.51559e+07 1.03056e+06 1.68292e-08 8.51826e+06 -8.50498e-09 1.91022e+07)
(5.42763e+07 1.08167e+06 1.71755e-08 8.32497e+06 -2.7289e-09 1.87804e+07)
(5.34253e+07 1.12899e+06 6.82568e-10 8.12522e+06 5.49228e-09 1.84652e+07)
(5.25965e+07 1.17252e+06 1.33573e-09 7.91929e+06 1.1065e-08 1.81547e+07)
(5.1789e+07 1.21255e+06 7.68541e-09 7.70798e+06 -4.09753e-09 1.78491e+07)
(5.1003e+07 1.24845e+06 8.13907e-09 7.49298e+06 1.37243e-09 1.75488e+07)
(5.02329e+07 1.28285e+06 7.36197e-09 7.27247e+06 -3.93515e-09 1.72516e+07)
(4.94836e+07 1.31085e+06 7.77381e-09 7.05075e+06 1.30768e-09 1.69603e+07)
(4.8744e+07 1.34161e+06 3.66718e-09 6.82378e+06 2.5025e-08 1.66703e+07)
(1.13228e+08 -7.5291e+06 -6.23414e-09 1.34594e+06 -8.90092e-09 3.43723e+07)
(1.09353e+08 -6.78863e+06 -5.32972e-08 2.33712e+06 -3.71912e-09 3.35071e+07)
(1.05876e+08 -6.11094e+06 7.27608e-11 3.59016e+06 1.94673e-10 3.28397e+07)
(1.02478e+08 -5.48604e+06 -2.98474e-08 4.39952e+06 -1.74384e-08 3.20633e+07)
(9.93917e+07 -4.90932e+06 -2.3043e-08 5.35751e+06 -2.13448e-09 3.14248e+07)
(9.63989e+07 -4.37903e+06 -4.97783e-09 6.00909e+06 -1.36679e-08 3.07224e+07)
(9.3648e+07 -3.88725e+06 4.6093e-09 6.73219e+06 1.27621e-08 3.01141e+07)
(9.0998e+07 -3.43499e+06 -1.57542e-08 7.24584e+06 1.00243e-08 2.94731e+07)
(8.85375e+07 -3.01473e+06 -2.32857e-08 7.7821e+06 -1.36038e-08 2.88959e+07)
(8.61786e+07 -2.6275e+06 4.83015e-08 8.17519e+06 3.70818e-08 2.83061e+07)
(8.39705e+07 -2.26745e+06 2.14418e-08 8.56245e+06 1.3025e-08 2.77599e+07)
(8.18597e+07 -1.93488e+06 -4.07609e-08 8.85068e+06 -2.42153e-08 2.72131e+07)
(7.98713e+07 -1.62562e+06 1.64267e-08 9.11851e+06 2.27443e-09 2.66969e+07)
(7.79732e+07 -1.33929e+06 1.29032e-08 9.31624e+06 -6.73591e-09 2.61868e+07)
(7.61762e+07 -1.07301e+06 -4.84771e-08 9.48767e+06 -1.53611e-08 2.56992e+07)
(7.44612e+07 -825998 -1.21154e-08 9.60795e+06 6.13742e-09 2.52207e+07)
(7.28313e+07 -596257 -2.84119e-08 9.701e+06 -4.42861e-09 2.47597e+07)
(7.12745e+07 -382814 -2.7467e-08 9.75555e+06 -4.41397e-09 2.4309e+07)
(6.97903e+07 -184305 -1.32548e-08 9.78444e+06 -2.0832e-09 2.38724e+07)
(6.8371e+07 351.319 2.05129e-11 9.78363e+06 7.34496e-11 2.34464e+07)
(6.7014e+07 172017 1.24785e-08 9.7597e+06 2.21204e-09 2.30321e+07)
(6.57142e+07 331840 6.66552e-09 9.7126e+06 -1.84712e-08 2.2628e+07)
(6.44682e+07 480316 2.34537e-08 9.645e+06 4.23798e-09 2.2234e+07)
(6.32729e+07 618490 -1.95673e-08 9.55943e+06 8.8034e-09 2.18497e+07)
(6.21236e+07 746950 -9.55854e-09 9.45565e+06 4.2329e-09 2.14738e+07)
(6.102e+07 865848 -2.00969e-08 9.33821e+06 2.02908e-09 2.11075e+07)
(5.99545e+07 977402 0 9.20469e+06 0 2.07477e+07)
(5.89313e+07 1.07863e+06 1.15001e-08 9.06057e+06 8.11388e-09 2.03976e+07)
(5.79378e+07 1.17676e+06 7.51097e-09 8.90345e+06 -9.60161e-09 2.00524e+07)
(5.69843e+07 1.26256e+06 -1.20336e-08 8.73657e+06 -1.37414e-08 1.97163e+07)
(5.60533e+07 1.34984e+06 2.72045e-08 8.56174e+06 3.58086e-10 1.93845e+07)
(5.51523e+07 1.43141e+06 -2.12449e-09 8.37761e+06 -1.13799e-08 1.9059e+07)
(5.42857e+07 1.49885e+06 -5.98042e-09 8.18656e+06 1.45787e-08 1.87417e+07)
(5.34377e+07 1.5666e+06 2.91171e-09 7.98698e+06 1.66106e-08 1.84274e+07)
(5.26194e+07 1.6246e+06 1.71416e-08 7.78486e+06 3.99526e-09 1.81213e+07)
(5.18173e+07 1.68094e+06 -8.94736e-10 7.57377e+06 -5.39425e-09 1.78173e+07)
(5.10398e+07 1.72995e+06 -1.73422e-09 7.36298e+06 -1.06924e-08 1.75208e+07)
(5.02762e+07 1.77803e+06 -1.42962e-11 7.14345e+06 -9.02785e-11 1.72259e+07)
(4.95344e+07 1.81688e+06 8.28738e-10 6.92613e+06 5.30878e-09 1.69382e+07)
(4.88013e+07 1.85981e+06 7.64447e-09 6.70062e+06 1.88048e-09 1.66506e+07)
(1.12162e+08 -9.59807e+06 2.78417e-08 1.66297e+06 -3.82088e-11 3.41474e+07)
(1.08375e+08 -8.6568e+06 -3.47545e-08 2.5984e+06 -1.90469e-08 3.3292e+07)
(1.04976e+08 -7.79513e+06 5.82918e-08 3.79885e+06 2.06661e-08 3.26325e+07)
(1.01653e+08 -7.00042e+06 7.35021e-09 4.56303e+06 1.52e-08 3.18648e+07)
(9.86333e+07 -6.26683e+06 -2.96783e-08 5.47854e+06 -1.6509e-08 3.12336e+07)
(9.5703e+07 -5.59216e+06 9.48739e-09 6.09347e+06 -2.35393e-08 3.05389e+07)
(9.3009e+07 -4.96637e+06 -4.20734e-08 6.78234e+06 -5.59347e-09 2.99374e+07)
(9.04119e+07 -4.39077e+06 6.5942e-08 7.26629e+06 2.03482e-08 2.93035e+07)
(8.80001e+07 -3.85579e+06 -2.44828e-08 7.77507e+06 -1.41036e-08 2.87325e+07)
(8.56863e+07 -3.36277e+06 1.36573e-08 8.14417e+06 -7.84025e-09 2.81491e+07)
(8.35198e+07 -2.90428e+06 9.32961e-08 8.50947e+06 2.41651e-08 2.76088e+07)
(8.14478e+07 -2.48072e+06 2.13844e-08 8.77845e+06 1.26321e-08 2.70679e+07)
(7.94952e+07 -2.08677e+06 -2.45451e-08 9.02887e+06 -2.1617e-08 2.65572e+07)
(7.76304e+07 -1.722e+06 3.69558e-09 9.21128e+06 8.7323e-09 2.60525e+07)
(7.58645e+07 -1.38269e+06 -8.16001e-09 9.36907e+06 1.43252e-08 2.55701e+07)
(7.41783e+07 -1.06792e+06 -2.61541e-08 9.47729e+06 2.55567e-09 2.50967e+07)
(7.25754e+07 -775057 2.85553e-08 9.55985e+06 5.82749e-09 2.46406e+07)
(7.10437e+07 -502988 -5.86866e-09 9.605e+06 -1.52263e-08 2.41946e+07)
(6.95832e+07 -249766 2.11097e-08 9.62606e+06 -9.17281e-09 2.37628e+07)
(6.81856e+07 -14312.7 -3.87969e-08 9.61798e+06 -8.57274e-09 2.33411e+07)
(6.68496e+07 204964 3.75528e-08 9.58848e+06 8.38399e-09 2.29314e+07)
(6.55687e+07 408841 7.48876e-09 9.53578e+06 -1.07738e-08 2.25313e+07)
(6.43418e+07 599041 -4.27964e-08 9.46445e+06 2.01737e-09 2.21419e+07)
(6.31624e+07 775389 6.20911e-09 9.37474e+06 1.92949e-08 2.17611e+07)
(6.20309e+07 940836 -9.16554e-09 9.2684e+06 3.57594e-09 2.13898e+07)
(6.09398e+07 1.09262e+06 2.16681e-08 9.14874e+06 5.51031e-09 2.10266e+07)
(5.98912e+07 1.23723e+06 1.75858e-08 9.01257e+06 -6.58848e-09 2.06711e+07)
(5.88769e+07 1.36642e+06 -3.31933e-09 8.86983e+06 -1.18275e-08 2.0324e+07)
(5.78959e+07 1.49266e+06 3.14941e-08 8.70893e+06 1.36269e-08 1.99814e+07)
(5.6953e+07 1.60199e+06 -9.70988e-09 8.54848e+06 -2.5422e-09 1.96504e+07)
(5.60086e+07 1.70511e+06 -1.4403e-09 8.3754e+06 -5.64736e-09 1.93152e+07)
(5.51526e+07 1.8066e+06 -6.53416e-09 8.19138e+06 8.54346e-09 1.90032e+07)
(5.4292e+07 1.90135e+06 -3.74175e-08 7.99687e+06 -1.56586e-08 1.86867e+07)
(5.34605e+07 1.98237e+06 -2.49464e-09 7.80511e+06 -1.0878e-08 1.83797e+07)
(5.26513e+07 2.0619e+06 2.35193e-09 7.60245e+06 1.05759e-08 1.80761e+07)
(5.1859e+07 2.13136e+06 1.14343e-09 7.39785e+06 5.28144e-09 1.77771e+07)
(5.10907e+07 2.19616e+06 8.23509e-09 7.1893e+06 2.50781e-09 1.7484e+07)
(5.03356e+07 2.2568e+06 -9.10444e-09 6.97448e+06 -7.59126e-09 1.7193e+07)
(4.96024e+07 2.30724e+06 6.819e-09 6.76123e+06 -2.72404e-09 1.69091e+07)
(4.88776e+07 2.36189e+06 1.01745e-09 6.53927e+06 5.1157e-09 1.66251e+07)
(1.10841e+08 -1.16065e+07 3.72271e-08 2.0524e+06 8.02539e-09 3.3868e+07)
(1.07163e+08 -1.04723e+07 4.32526e-08 2.91931e+06 -1.03171e-08 3.30248e+07)
(1.03862e+08 -9.43366e+06 -3.47514e-08 4.05509e+06 -1.85731e-08 3.23751e+07)
(1.0063e+08 -8.47555e+06 4.13522e-08 4.7637e+06 3.17343e-08 3.16181e+07)
(9.76927e+07 -7.59087e+06 1.48674e-08 5.62692e+06 -1.0324e-08 3.09959e+07)
(9.48395e+07 -6.77704e+06 -1.78768e-10 6.19674e+06 -3.01116e-10 3.03109e+07)
(9.22157e+07 -6.022e+06 -4.90853e-08 6.84344e+06 -1.86425e-08 2.97177e+07)
(8.9684e+07 -5.32733e+06 -4.05384e-08 7.29079e+06 -7.23592e-09 2.90924e+07)
(8.73321e+07 -4.68154e+06 2.5689e-08 7.76567e+06 1.45299e-08 2.85293e+07)
(8.50741e+07 -4.08626e+06 -1.7783e-08 8.10518e+06 -3.14151e-08 2.79538e+07)
(8.2959e+07 -3.53255e+06 -3.01601e-08 8.44337e+06 2.84955e-09 2.74207e+07)
(8.09348e+07 -3.0209e+06 3.78935e-08 8.6886e+06 4.13569e-08 2.6887e+07)
(7.90265e+07 -2.54492e+06 4.99084e-09 8.91747e+06 9.2691e-09 2.63832e+07)
(7.7203e+07 -2.10407e+06 -2.03945e-08 9.08103e+06 -1.2011e-08 2.58852e+07)
(7.54753e+07 -1.69393e+06 3.4994e-08 9.22186e+06 1.53378e-08 2.54091e+07)
(7.38247e+07 -1.31332e+06 -8.0643e-09 9.31537e+06 -1.59662e-08 2.4942e+07)
(7.22549e+07 -959187 2.0885e-08 9.38478e+06 -8.74349e-09 2.44919e+07)
(7.07543e+07 -629974 2.7649e-08 9.41882e+06 6.85255e-09 2.40519e+07)
(6.93225e+07 -323741 -1.6712e-08 9.42989e+06 1.46632e-08 2.36257e+07)
(6.79521e+07 -38484.9 -1.60277e-08 9.41393e+06 -1.01349e-08 2.32098e+07)
(6.66411e+07 226500 -1.20241e-08 9.37705e+06 -2.72368e-08 2.28054e+07)
(6.53843e+07 474167 1.12737e-08 9.31959e+06 2.63372e-08 2.24112e+07)
(6.41789e+07 703231 -2.094e-08 9.24293e+06 -8.16865e-11 2.20265e+07)
(6.30216e+07 918798 8.98072e-09 9.15174e+06 -2.96012e-09 2.1652e+07)
(6.19084e+07 1.11605e+06 -2.36876e-09 9.0415e+06 -6.10339e-09 2.1285e+07)
(6.08393e+07 1.30383e+06 6.3435e-09 8.92396e+06 -8.80226e-09 2.0929e+07)
(5.98058e+07 1.47271e+06 3.59829e-08 8.78438e+06 2.14205e-08 2.05771e+07)
(5.8818e+07 1.63347e+06 -1.02993e-08 8.64743e+06 -3.20316e-09 2.02396e+07)
(5.78499e+07 1.77995e+06 -2.20106e-08 8.4814e+06 -1.20942e-08 1.98994e+07)
(5.69474e+07 1.90121e+06 1.81909e-09 8.32943e+06 5.49142e-09 1.9583e+07)
(5.60196e+07 2.04657e+06 -2.08191e-08 8.142e+06 -1.17688e-08 1.92485e+07)
(5.51192e+07 2.18489e+06 -6.1118e-09 7.94717e+06 7.571e-09 1.89199e+07)
(5.43011e+07 2.27769e+06 1.22431e-08 7.7743e+06 1.38045e-08 1.86226e+07)
(5.34717e+07 2.37812e+06 -1.92431e-08 7.57038e+06 -1.13679e-08 1.83126e+07)
(5.26811e+07 2.47208e+06 -1.73435e-08 7.38346e+06 -6.07254e-09 1.80194e+07)
(5.19002e+07 2.55611e+06 5.7171e-09 7.17393e+06 -7.23082e-09 1.77223e+07)
(5.11447e+07 2.63623e+06 -1.3515e-09 6.97574e+06 -5.13748e-09 1.74361e+07)
(5.0402e+07 2.70962e+06 -1.10407e-11 6.76096e+06 -4.29996e-11 1.71489e+07)
(4.968e+07 2.77257e+06 -7.93791e-09 6.55583e+06 -2.98975e-09 1.68708e+07)
(4.89666e+07 2.83889e+06 3.96453e-09 6.33605e+06 1.20041e-08 1.65908e+07)
(1.09275e+08 -1.3542e+07 1.61343e-08 2.5098e+06 -7.76263e-09 3.35354e+07)
(1.05726e+08 -1.22243e+07 6.44709e-08 3.29625e+06 2.23718e-08 3.27066e+07)
(1.02539e+08 -1.10172e+07 -3.17166e-09 4.35599e+06 2.62858e-08 3.20685e+07)
(9.94148e+07 -9.90339e+06 -5.83024e-08 4.99929e+06 -2.12628e-08 3.13242e+07)
(9.65748e+07 -8.87457e+06 2.29e-08 5.80101e+06 3.664e-09 3.07128e+07)
(9.38125e+07 -7.92788e+06 9.17162e-09 6.31777e+06 1.2745e-08 3.00391e+07)
(9.12717e+07 -7.0493e+06 5.89022e-08 6.91485e+06 3.14423e-08 2.9456e+07)
(8.88172e+07 -6.24076e+06 -9.59817e-08 7.31915e+06 -3.77116e-08 2.88409e+07)
(8.65362e+07 -5.4889e+06 -2.97304e-09 7.75414e+06 -2.80233e-08 2.82871e+07)
(8.43442e+07 -4.79567e+06 1.39355e-08 8.05885e+06 2.03161e-08 2.77209e+07)
(8.229e+07 -4.15068e+06 2.15553e-10 8.36515e+06 3.18946e-10 2.71965e+07)
(8.03224e+07 -3.55454e+06 -2.32879e-08 8.58243e+06 -1.32837e-08 2.66715e+07)
(7.84665e+07 -2.99984e+06 3.29747e-08 8.78602e+06 8.00212e-09 2.61758e+07)
(7.66918e+07 -2.48598e+06 1.05103e-08 8.92733e+06 -4.41951e-09 2.56857e+07)
(7.50095e+07 -2.0078e+06 3.57455e-08 9.04841e+06 1.60962e-08 2.52174e+07)
(7.34012e+07 -1.56402e+06 3.44467e-08 9.12443e+06 1.58594e-08 2.47577e+07)
(7.18708e+07 -1.15099e+06 -8.90266e-09 9.17881e+06 -1.49056e-08 2.43149e+07)
(7.04069e+07 -767104 2.22802e-08 9.1992e+06 1.84414e-08 2.38818e+07)
(6.90096e+07 -409811 -2.28447e-08 9.19952e+06 -8.66835e-10 2.34627e+07)
(6.76714e+07 -77310.2 3.1566e-08 9.17274e+06 -1.70201e-09 2.30532e+07)
(6.63906e+07 232067 -3.44207e-09 9.12945e+06 -6.43737e-09 2.2656e+07)
(6.5162e+07 520338 -6.66638e-16 9.06254e+06 -1.06193e-15 2.22674e+07)
(6.39835e+07 788377 2.68982e-08 8.98475e+06 1.39769e-08 2.18905e+07)
(6.2851e+07 1.03836e+06 2.94357e-09 8.88296e+06 6.05917e-09 2.15202e+07)
(6.1763e+07 1.27098e+06 -8.48327e-09 8.77926e+06 2.02567e-09 2.11627e+07)
(6.07143e+07 1.48713e+06 -2.97422e-08 8.64562e+06 -2.49774e-08 2.0808e+07)
(5.97093e+07 1.69104e+06 -2.32727e-11 8.52409e+06 -5.31936e-11 2.047e+07)
(5.8731e+07 1.8748e+06 1.74483e-08 8.35983e+06 2.04924e-08 2.01272e+07)
(5.78137e+07 2.06144e+06 4.07495e-11 8.22468e+06 1.00652e-10 1.98115e+07)
(5.6881e+07 2.20657e+06 1.93848e-11 8.03421e+06 4.90949e-11 1.94745e+07)
(5.58805e+07 2.42518e+06 -1.16348e-08 7.86923e+06 -5.31374e-09 1.91249e+07)
(5.51428e+07 2.49638e+06 -1.12896e-08 7.68304e+06 -8.81484e-09 1.88478e+07)
(5.4335e+07 2.64243e+06 9.14587e-09 7.52466e+06 3.56684e-09 1.85579e+07)
(5.35031e+07 2.7497e+06 -7.20874e-09 7.31282e+06 1.45316e-09 1.82448e+07)
(5.27229e+07 2.8631e+06 7.07942e-09 7.13771e+06 -1.41956e-09 1.79582e+07)
(5.1952e+07 2.96297e+06 -1.63333e-09 6.92255e+06 -5.01928e-09 1.76624e+07)
(5.12084e+07 3.05445e+06 -6.79284e-09 6.73328e+06 1.41778e-09 1.73825e+07)
(5.04783e+07 3.14252e+06 1.28805e-11 6.5169e+06 4.15795e-11 1.70986e+07)
(4.9769e+07 3.21453e+06 -2.54994e-08 6.31976e+06 -1.52901e-08 1.68266e+07)
(4.90682e+07 3.29335e+06 -3.21163e-09 6.10081e+06 -6.95407e-09 1.65507e+07)
(1.07473e+08 -1.5393e+07 -2.73963e-08 3.02994e+06 -2.39524e-11 3.3151e+07)
(1.04071e+08 -1.39027e+07 -3.96142e-08 3.72483e+06 7.15338e-09 3.23387e+07)
(1.01015e+08 -1.25369e+07 6.25188e-08 4.69792e+06 4.65294e-08 3.17138e+07)
(9.8014e+07 -1.12762e+07 1.39858e-10 5.26682e+06 1.60689e-10 3.09842e+07)
(9.52853e+07 -1.01112e+07 -5.58091e-08 5.99837e+06 -4.22541e-08 3.03851e+07)
(9.26271e+07 -9.03895e+06 3.34978e-08 6.45461e+06 -3.36738e-09 2.97245e+07)
(9.01812e+07 -8.04344e+06 4.96512e-08 6.99501e+06 3.81948e-08 2.91529e+07)
(8.78153e+07 -7.12699e+06 8.96544e-08 7.35011e+06 2.8878e-08 2.85496e+07)
(8.56155e+07 -6.27451e+06 -6.39949e-08 7.73946e+06 -3.96992e-08 2.80065e+07)
(8.34992e+07 -5.48825e+06 -1.59438e-08 8.00431e+06 -1.95482e-08 2.7451e+07)
(8.15148e+07 -4.75649e+06 5.04321e-08 8.27401e+06 2.75247e-08 2.69366e+07)
(7.96122e+07 -4.07994e+06 3.12803e-08 8.45919e+06 2.24643e-08 2.64214e+07)
(7.78165e+07 -3.45022e+06 -6.56219e-09 8.63358e+06 -8.46263e-09 2.5935e+07)
(7.60978e+07 -2.86674e+06 -2.21777e-08 8.74927e+06 -1.27886e-08 2.54541e+07)
(7.44677e+07 -2.32357e+06 -3.09137e-08 8.84721e+06 -9.33851e-09 2.49945e+07)
(7.29081e+07 -1.81941e+06 1.4877e-08 8.90303e+06 4.58052e-09 2.45433e+07)
(7.14231e+07 -1.34994e+06 -5.17602e-09 8.93919e+06 -7.2932e-09 2.41087e+07)
(7.00016e+07 -913713 -4.33684e-09 8.94396e+06 9.31002e-09 2.36837e+07)
(6.86439e+07 -507255 3.15615e-08 8.92995e+06 1.58809e-08 2.32722e+07)
(6.73427e+07 -129527 -2.59302e-08 8.89151e+06 -2.41621e-08 2.28703e+07)
(6.60968e+07 222932 2.13514e-08 8.83667e+06 2.65567e-09 2.248e+07)
(6.49007e+07 549914 -4.77353e-09 8.76177e+06 7.78039e-09 2.20987e+07)
(6.37527e+07 856152 3.57269e-09 8.67391e+06 5.99122e-09 2.1728e+07)
(6.26483e+07 1.13871e+06 -4.92037e-09 8.56806e+06 7.21567e-09 2.13649e+07)
(6.15866e+07 1.40564e+06 2.5897e-08 8.45409e+06 1.46382e-08 2.10122e+07)
(6.05613e+07 1.64936e+06 -9.01874e-09 8.32139e+06 -1.67445e-08 2.06648e+07)
(5.95763e+07 1.88274e+06 -3.50581e-08 8.18785e+06 -1.85388e-08 2.03293e+07)
(5.86165e+07 2.09542e+06 2.09146e-08 8.03113e+06 8.62962e-09 1.99943e+07)
(5.7703e+07 2.29655e+06 -1.02533e-08 7.8843e+06 -4.40665e-09 1.96762e+07)
(5.67878e+07 2.49885e+06 1.71097e-08 7.70674e+06 1.97602e-08 1.93484e+07)
(5.59515e+07 2.65104e+06 2.08595e-11 7.55059e+06 4.61129e-11 1.90506e+07)
(5.51415e+07 2.79239e+06 7.24331e-09 7.38832e+06 -8.49223e-10 1.8759e+07)
(5.43054e+07 2.95727e+06 -5.04557e-09 7.19358e+06 5.77484e-09 1.84497e+07)
(5.35236e+07 3.09602e+06 7.05475e-09 7.01576e+06 -6.98632e-10 1.81618e+07)
(5.27494e+07 3.22084e+06 -1.94049e-09 6.81863e+06 -4.87965e-09 1.78704e+07)
(5.20033e+07 3.34126e+06 -8.62886e-09 6.62759e+06 -4.04193e-09 1.75893e+07)
(5.12731e+07 3.44305e+06 -1.78464e-09 6.43011e+06 -4.73904e-09 1.7311e+07)
(5.05611e+07 3.54574e+06 1.17035e-08 6.22929e+06 1.3373e-08 1.70371e+07)
(4.98658e+07 3.62702e+06 -8.06838e-09 6.0326e+06 -3.90944e-09 1.67695e+07)
(4.91807e+07 3.71765e+06 4.67071e-09 5.82412e+06 -5.28463e-09 1.65014e+07)
(1.05447e+08 -1.71487e+07 3.60762e-10 3.60693e+06 1.62449e-10 3.27161e+07)
(1.02208e+08 -1.54979e+07 -6.73542e-08 4.20022e+06 -2.30118e-08 3.19225e+07)
(9.92982e+07 -1.39844e+07 2.51659e-08 5.07704e+06 4.63109e-09 3.13126e+07)
(9.6435e+07 -1.25867e+07 1.09051e-07 5.56328e+06 3.17202e-08 3.05995e+07)
(9.38307e+07 -1.12946e+07 -7.03289e-08 6.21682e+06 -3.3725e-08 3.00142e+07)
(9.12889e+07 -1.01048e+07 -3.34781e-08 6.60576e+06 -1.64015e-08 2.93684e+07)
(8.89492e+07 -8.99982e+06 -6.30675e-08 7.08311e+06 -1.50252e-08 2.88097e+07)
(8.66823e+07 -7.98217e+06 7.03727e-08 7.38349e+06 2.52473e-08 2.82197e+07)
(8.45736e+07 -7.0352e+06 9.58741e-09 7.72207e+06 9.85722e-09 2.76887e+07)
(8.25419e+07 -6.16148e+06 -3.63448e-08 7.94259e+06 -2.36653e-08 2.71454e+07)
(8.06358e+07 -5.34801e+06 -6.20893e-08 8.17161e+06 -2.43985e-08 2.66422e+07)
(7.8806e+07 -4.59566e+06 -9.60805e-09 8.32112e+06 3.04675e-09 2.61381e+07)
(7.70779e+07 -3.89513e+06 -1.8582e-08 8.46316e+06 5.71448e-09 2.56623e+07)
(7.54222e+07 -3.24579e+06 -9.07658e-09 8.55046e+06 2.60854e-09 2.51918e+07)
(7.38506e+07 -2.64112e+06 -3.74183e-08 8.62294e+06 -1.77541e-08 2.4742e+07)
(7.23456e+07 -2.07962e+06 -2.1124e-08 8.65649e+06 -1.23888e-08 2.43006e+07)
(7.09116e+07 -1.55663e+06 -1.44563e-08 8.67294e+06 -5.13071e-09 2.38754e+07)
(6.95378e+07 -1.07034e+06 -2.80516e-08 8.66063e+06 -1.02962e-08 2.34595e+07)
(6.82248e+07 -617236 3.2276e-08 8.63164e+06 1.6703e-08 2.30569e+07)
(6.69654e+07 -195624 -9.54477e-09 8.58063e+06 -1.24358e-08 2.26638e+07)
(6.57589e+07 197473 -3.01394e-08 8.5146e+06 -1.62718e-08 2.22821e+07)
(6.45997e+07 563208 -3.88387e-09 8.43127e+06 6.77285e-09 2.19093e+07)
(6.34871e+07 904667 1.60994e-08 8.33481e+06 1.0779e-08 2.15466e+07)
(6.24153e+07 1.22178e+06 -1.55004e-08 8.22494e+06 -1.0548e-08 2.11921e+07)
(6.13854e+07 1.51884e+06 3.4195e-08 8.10312e+06 1.47607e-08 2.08466e+07)
(6.039e+07 1.79316e+06 6.75292e-09 7.97228e+06 1.06873e-08 2.05087e+07)
(5.94323e+07 2.05215e+06 -1.71625e-08 7.82876e+06 -1.52715e-08 2.01783e+07)
(5.85037e+07 2.28832e+06 2.99475e-09 7.68268e+06 5.08448e-09 1.98559e+07)
(5.76045e+07 2.51394e+06 2.94345e-09 7.52129e+06 5.17989e-09 1.95377e+07)
(5.67389e+07 2.71672e+06 7.32632e-09 7.36426e+06 -1.65436e-10 1.9231e+07)
(5.58673e+07 2.90799e+06 1.95757e-08 7.19717e+06 9.46253e-09 1.89193e+07)
(5.50845e+07 3.0876e+06 -9.5736e-09 7.02123e+06 -4.71423e-09 1.86317e+07)
(5.42923e+07 3.25646e+06 2.80557e-08 6.83785e+06 1.40343e-08 1.83391e+07)
(5.35266e+07 3.40713e+06 2.73787e-08 6.65911e+06 1.38377e-08 1.80557e+07)
(5.27813e+07 3.54971e+06 2.1667e-09 6.47274e+06 4.66784e-09 1.77762e+07)
(5.20503e+07 3.67925e+06 6.67467e-09 6.28446e+06 -9.91826e-12 1.75004e+07)
(5.13419e+07 3.79723e+06 1.51085e-08 6.09731e+06 4.53238e-09 1.72318e+07)
(5.06454e+07 3.90946e+06 -6.44534e-09 5.90069e+06 -7.40726e-12 1.69638e+07)
(4.99685e+07 4.0034e+06 1.4496e-08 5.71447e+06 4.4372e-09 1.67049e+07)
(4.92985e+07 4.10368e+06 8.52527e-09 5.51052e+06 2.35094e-09 1.64427e+07)
(1.03208e+08 -1.87991e+07 3.16477e-08 4.2342e+06 1.15807e-08 3.22327e+07)
(1.00148e+08 -1.70011e+07 2.62942e-08 4.7169e+06 4.93722e-09 3.14596e+07)
(9.73987e+07 -1.53518e+07 -2.14289e-08 5.48876e+06 -3.34325e-08 3.08662e+07)
(9.46862e+07 -1.38281e+07 6.68348e-08 5.8849e+06 4.11711e-08 3.01713e+07)
(9.22183e+07 -1.24188e+07 2.72567e-08 6.45327e+06 2.29575e-08 2.96015e+07)
(8.98042e+07 -1.11205e+07 -4.3795e-08 6.76875e+06 -1.08567e-08 2.89719e+07)
(8.7581e+07 -9.91416e+06 -3.26973e-08 7.17717e+06 -1.55747e-08 2.84275e+07)
(8.5423e+07 -8.80274e+06 -4.25575e-08 7.4177e+06 -2.51072e-08 2.78522e+07)
(8.34142e+07 -7.76808e+06 4.92174e-08 7.70069e+06 2.05199e-08 2.73345e+07)
(8.14757e+07 -6.81305e+06 9.83704e-09 7.87263e+06 8.81169e-09 2.68045e+07)
(7.96556e+07 -5.92355e+06 1.86755e-08 8.05701e+06 1.69848e-08 2.63138e+07)
(7.79061e+07 -5.10055e+06 -2.57119e-08 8.16734e+06 -3.24693e-09 2.5822e+07)
(7.62523e+07 -4.33396e+06 -7.97351e-09 8.27375e+06 -7.51888e-09 2.53578e+07)
(7.46659e+07 -3.62312e+06 8.48294e-09 8.32973e+06 -1.59418e-09 2.48987e+07)
(7.31587e+07 -2.96093e+06 1.55969e-08 8.37404e+06 5.77083e-09 2.44598e+07)
(7.17139e+07 -2.34581e+06 -2.17816e-08 8.38291e+06 -1.25006e-08 2.40291e+07)
(7.03361e+07 -1.77264e+06 -1.4597e-08 8.37739e+06 -5.74e-09 2.3614e+07)
(6.90147e+07 -1.23955e+06 -2.00674e-08 8.34599e+06 -1.19948e-08 2.32082e+07)
(6.77507e+07 -742612 -5.69526e-09 8.30025e+06 -6.1962e-09 2.28153e+07)
(6.65372e+07 -280070 5.25481e-09 8.23491e+06 5.88368e-09 2.24316e+07)
(6.53736e+07 151367 -2.57064e-08 8.1566e+06 -1.11466e-08 2.20591e+07)
(6.42546e+07 553017 7.82237e-09 8.06298e+06 -1.02601e-11 2.16953e+07)
(6.31796e+07 927949 4.39722e-09 7.95836e+06 5.40533e-09 2.13414e+07)
(6.21434e+07 1.27693e+06 1.18475e-08 7.8415e+06 5.52298e-09 2.09955e+07)
(6.11464e+07 1.60281e+06 -1.29083e-15 7.71573e+06 -1.56428e-15 2.06586e+07)
(6.01827e+07 1.90636e+06 2.61862e-08 7.58013e+06 1.59722e-08 2.03289e+07)
(5.92544e+07 2.18893e+06 7.3749e-09 7.43761e+06 3.79719e-10 2.00076e+07)
(5.83547e+07 2.45366e+06 -3.30753e-09 7.28723e+06 -4.83537e-09 1.96926e+07)
(5.74865e+07 2.69662e+06 7.14596e-09 7.13176e+06 3.97525e-10 1.93855e+07)
(5.66449e+07 2.92753e+06 -7.17395e-09 6.96969e+06 -6.13469e-10 1.90844e+07)
(5.58286e+07 3.13409e+06 1.5587e-08 6.80436e+06 1.44657e-08 1.87899e+07)
(5.50453e+07 3.32555e+06 4.26252e-09 6.63173e+06 -3.89924e-09 1.85031e+07)
(5.42739e+07 3.51162e+06 4.20521e-09 6.45682e+06 -3.97336e-09 1.82192e+07)
(5.35309e+07 3.67827e+06 -4.3133e-09 6.27846e+06 3.74137e-09 1.79428e+07)
(5.28026e+07 3.83601e+06 1.13853e-08 6.09836e+06 9.42769e-09 1.76703e+07)
(5.20952e+07 3.98051e+06 4.27459e-09 5.91393e+06 -3.69434e-09 1.74027e+07)
(5.14043e+07 4.11143e+06 -6.49896e-09 5.73278e+06 -7.6838e-10 1.71411e+07)
(5.07292e+07 4.23644e+06 2.11802e-08 5.54203e+06 1.84567e-08 1.68814e+07)
(5.00699e+07 4.34122e+06 4.17135e-09 5.36332e+06 -3.55215e-09 1.663e+07)