/*--------------------------------*- C++ -*----------------------------------*\
| =========                 |                                                 |
| \\      /  F ield         | OpenFOAM: The Open Source CFD Toolbox           |
|  \\    /   O peration     | Version:  v2012                                 |
|   \\  /    A nd           | Website:  www.openfoam.com                      |
|    \\/     M anipulation  |                                                 |
\*---------------------------------------------------------------------------*/
FoamFile
{
    version     2.0;
    format      ascii;
    class       volVectorField;
    location    "20";
    object      D;
}
// * * * * * * * * * * * * * * * * * * * * * * * * * * * * * * * * * * * * * //

dimensions      [0 1 0 0 0 0 0];


internalField   nonuniform List<vector> 
470
(
(0.000495007 1.04932e-05 0)
(0.000488394 6.26799e-07 0)
(0.000396567 2.97667e-05 0)
(0.000448189 3.45174e-06 0)
(0.000479214 1.81022e-05 0)
(0.000396016 2.90039e-05 0)
(0.000442157 2.79387e-05 0)
(0.000486327 1.24549e-05 0)
(0.000348631 2.57033e-05 0)
(0.000408191 3.22136e-05 0)
(0.000366552 2.78947e-05 0)
(0.000275817 -6.62165e-05 0)
(0.000283173 -3.47972e-05 0)
(0.000450713 6.66676e-06 0)
(0.000277028 6.09284e-06 0)
(0.000379589 3.56834e-05 0)
(0.000409962 3.33711e-05 0)
(0.000455651 7.81382e-06 0)
(0.000464376 3.01521e-06 0)
(0.000490805 8.50711e-06 0)
(0.00037576 3.35207e-05 0)
(0.000421369 2.57904e-05 0)
(0.00039475 2.84804e-05 0)
(0.00044777 1.01068e-05 0)
(0.000407388 -1.62914e-05 0)
(0.000447802 2.39137e-05 0)
(0.000423866 -7.42602e-07 0)
(0.000385913 2.75498e-05 0)
(0.000400623 2.94727e-05 0)
(0.000449393 4.69123e-06 0)
(0.000486814 8.88792e-06 0)
(0.000278173 2.08846e-06 0)
(0.000403141 3.21365e-05 0)
(0.000524293 -0.000175493 0)
(0.000396132 2.71045e-05 0)
(0.000400638 2.77812e-05 0)
(0.000220162 -4.30811e-05 0)
(0.000483083 7.42842e-06 0)
(0.000477229 1.26106e-05 0)
(0.000496314 8.7349e-06 0)
(0.000440297 1.49871e-05 0)
(0.000468018 2.20077e-06 0)
(0.000233768 -0.000149224 0)
(0.000445811 2.06907e-05 0)
(0.000382843 2.88704e-05 0)
(0.000185114 -0.000189178 0)
(0.000469496 2.1786e-05 0)
(0.000413767 1.21207e-05 0)
(0.000422729 1.47247e-05 0)
(0.00038558 1.47516e-05 0)
(0.000181005 -6.6951e-05 0)
(0.000557502 -0.00014441 0)
(0.000454552 1.11072e-05 0)
(0.000462766 6.07974e-06 0)
(0.000429329 2.15096e-05 0)
(0.000426912 2.31558e-05 0)
(-1.07391e-05 -0.000628013 0)
(-2.09163e-05 -0.000601885 0)
(0.000422004 3.52817e-05 0)
(0.000389748 2.99567e-05 0)
(0.000436473 2.62215e-05 0)
(0.000375746 -1.40833e-05 0)
(0.00031193 -9.60396e-07 0)
(0.000340036 -8.63051e-05 0)
(0.000563857 -0.000137552 0)
(0.000212191 -0.000407798 0)
(0.000483895 1.26884e-05 0)
(0.000419145 2.6094e-05 0)
(0.000520961 -1.91129e-05 0)
(0.000394397 3.71658e-05 0)
(0.000504353 2.24939e-06 0)
(0.000417792 3.04855e-05 0)
(0.000442246 -0.00013627 0)
(0.000437203 3.23094e-05 0)
(0.000360346 -0.000164056 0)
(0.000424112 2.75649e-05 0)
(0.000414677 2.93018e-05 0)
(0.000421869 2.73057e-05 0)
(0.000431311 3.4069e-05 0)
(6.656e-05 -0.000597476 0)
(0.000434317 2.56473e-05 0)
(0.000333918 -0.000289518 0)
(0.000395422 3.05436e-05 0)
(0.000522456 -2.74906e-05 0)
(0.000361079 1.40556e-05 0)
(0.000421429 2.81333e-05 0)
(0.000279091 -0.000132792 0)
(0.000576312 -0.000168263 0)
(0.000253234 -0.000224677 0)
(0.000435228 -9.0312e-05 0)
(0.000344933 -0.000172802 0)
(0.000260941 -3.00764e-05 0)
(0.000435784 3.33124e-05 0)
(0.000422332 3.15586e-05 0)
(0.000280565 -8.97906e-06 0)
(0.000260932 -1.17647e-05 0)
(0.000466422 2.18547e-05 0)
(0.000430893 2.71792e-05 0)
(0.000467811 2.0991e-05 0)
(0.000397423 2.72938e-05 0)
(0.000435003 1.84825e-05 0)
(0.000387297 2.50224e-05 0)
(0.000490654 -0.000175571 0)
(0.000435815 1.67179e-05 0)
(0.000439827 1.34841e-05 0)
(0.000403579 3.11297e-05 0)
(0.000408348 2.92595e-05 0)
(0.000469491 2.49037e-05 0)
(0.000526272 -2.76131e-05 0)
(0.000556581 -0.000250104 0)
(0.000216029 -0.00024416 0)
(0.000489304 -0.000243253 0)
(0.000428058 2.45314e-05 0)
(0.000395928 2.89971e-05 0)
(0.000507171 -8.00736e-06 0)
(0.000415485 3.54619e-05 0)
(0.000445996 3.38189e-06 0)
(0.000333181 2.33223e-05 0)
(0.000455614 2.66958e-05 0)
(0.000485059 5.09248e-06 0)
(0.000448894 3.01298e-05 0)
(0.000441338 1.38531e-05 0)
(0.000453264 7.13669e-06 0)
(0.000434846 1.76564e-05 0)
(0.000405234 3.46674e-05 0)
(0.000405249 3.7884e-05 0)
(0.000406206 3.73232e-05 0)
(0.000427231 2.18072e-05 0)
(0.000320783 1.86593e-05 0)
(0.000442704 1.34933e-05 0)
(0.000488161 1.56889e-05 0)
(0.000476535 1.96159e-05 0)
(0.000441473 2.81444e-05 0)
(0.000435673 1.97111e-05 0)
(0.000417131 3.14595e-05 0)
(0.000394499 2.8189e-05 0)
(0.000424559 3.13555e-05 0)
(0.000546761 -0.000115812 0)
(0.000220596 -8.75381e-05 0)
(0.000399001 3.0559e-05 0)
(0.000398115 3.10346e-05 0)
(0.000440641 -5.32634e-05 0)
(0.000425904 2.27941e-05 0)
(0.000424706 2.67582e-05 0)
(0.000424903 2.57763e-05 0)
(0.000483092 1.46919e-05 0)
(0.000442251 5.88807e-06 0)
(0.00035853 -2.1913e-05 0)
(0.000435686 2.04167e-05 0)
(0.00031702 -5.77682e-05 0)
(0.000462537 9.17811e-06 0)
(0.000443409 7.70974e-06 0)
(0.000501726 -4.07344e-06 0)
(0.000429707 2.19405e-05 0)
(0.000652633 -0.000262004 0)
(0.000383914 3.69241e-05 0)
(0.000527581 -3.83555e-05 0)
(0.000447457 2.35117e-05 0)
(0.000444102 2.30842e-05 0)
(0.000409545 2.96965e-05 0)
(0.000628215 -0.00022235 0)
(0.000319747 1.27757e-05 0)
(9.72295e-07 -0.000371326 0)
(0.000297231 5.20128e-06 0)
(5.95966e-05 -0.000580325 0)
(0.000507155 -2.08458e-05 0)
(0.000495991 -9.95082e-06 0)
(0.000310188 1.25767e-05 0)
(0.000428774 3.55488e-05 0)
(0.000465522 1.81236e-06 0)
(0.000478294 3.687e-06 0)
(0.00041871 2.64866e-05 0)
(0.000412972 2.58722e-05 0)
(0.000414881 2.82107e-05 0)
(0.000417437 2.62875e-05 0)
(0.000435077 2.46598e-05 0)
(0.000458783 5.43518e-06 0)
(0.000520518 -4.25019e-06 0)
(0.000439662 -2.74674e-05 0)
(0.000476536 9.4305e-06 0)
(0.000463613 1.60998e-05 0)
(0.000191977 -0.000121699 0)
(0.000423509 3.46125e-05 0)
(0.000395221 3.85267e-05 0)
(0.000389433 3.4656e-05 0)
(0.000340756 2.37208e-05 0)
(0.000405563 2.71401e-05 0)
(0.000522157 -1.19349e-06 0)
(5.38561e-05 -0.000299371 0)
(0.000446905 1.25894e-05 0)
(0.000404176 2.7531e-05 0)
(0.000457205 2.39395e-05 0)
(0.000405538 3.44258e-05 0)
(0.000408369 3.74207e-05 0)
(0.000501436 8.16892e-06 0)
(0.000459387 1.08575e-05 0)
(0.000391061 2.85184e-05 0)
(0.000405548 2.90394e-05 0)
(0.000401456 2.83169e-05 0)
(0.000309033 -4.43333e-06 0)
(0.00050009 7.29936e-07 0)
(0.000509735 3.09745e-06 0)
(0.000100394 -0.000204492 0)
(0.000522492 -5.64217e-05 0)
(0.000389515 3.51731e-05 0)
(0.000381236 3.17722e-05 0)
(0.000472004 6.55587e-06 0)
(0.000469117 1.00152e-05 0)
(0.00053019 -7.61432e-05 0)
(0.000520935 -1.43201e-05 0)
(0.000432316 1.96905e-05 0)
(0.00039791 3.14032e-05 0)
(0.000523249 -6.93029e-06 0)
(0.000451588 1.26277e-05 0)
(0.000343128 2.78795e-05 0)
(0.000356599 3.28152e-05 0)
(0.000432342 2.22869e-05 0)
(0.000457525 1.94972e-05 0)
(0.000444493 1.69074e-05 0)
(0.000473382 -8.38554e-06 0)
(0.000525745 -2.16511e-05 0)
(0.000484597 1.71596e-05 0)
(0.000402081 2.8236e-05 0)
(0.000448052 1.43278e-05 0)
(0.000460289 -1.13764e-05 0)
(0.000397188 2.92829e-05 0)
(0.000381117 2.70582e-05 0)
(0.000525068 -8.27306e-06 0)
(0.000137929 -0.000488979 0)
(0.000176232 -8.3753e-05 0)
(0.00040794 2.33237e-05 0)
(0.000523913 -1.62355e-05 0)
(0.000439732 8.87585e-06 0)
(0.000399686 3.41449e-05 0)
(0.00038576 3.17036e-05 0)
(0.000431721 3.08401e-05 0)
(0.000551366 -9.17526e-05 0)
(0.000409024 3.13076e-05 0)
(0.000408418 3.29831e-05 0)
(0.000432746 1.96233e-05 0)
(0.000433712 1.91142e-05 0)
(0.000437821 1.23345e-05 0)
(0.000403697 3.1322e-05 0)
(0.000283475 -0.00047338 0)
(0.000117573 -0.000581348 0)
(7.2538e-05 -0.000529145 0)
(1.34696e-05 -0.000624181 0)
(0.000415045 2.84717e-05 0)
(0.000471213 4.12169e-06 0)
(0.000409002 2.7365e-05 0)
(0.000409246 2.83771e-05 0)
(0.000390603 3.04126e-05 0)
(0.000437937 1.12425e-05 0)
(0.000400661 3.48756e-05 0)
(0.000379188 3.82212e-05 0)
(0.00047899 1.09657e-05 0)
(0.000462265 1.34624e-05 0)
(0.000437978 1.41985e-05 0)
(0.000402107 3.3775e-05 0)
(0.000495326 4.20744e-06 0)
(0.00041535 3.77631e-05 0)
(0.000323992 -0.000257333 0)
(0.000513411 -2.62488e-07 0)
(0.000545112 -7.45169e-05 0)
(0.000466684 1.54476e-05 0)
(0.000440912 9.62003e-06 0)
(0.000400174 3.19374e-05 0)
(0.000455632 1.59527e-06 0)
(0.000466325 1.63576e-05 0)
(0.00037961 3.05234e-05 0)
(0.000392123 2.70337e-05 0)
(0.000538921 -5.86801e-05 0)
(0.000227307 -3.12177e-05 0)
(0.000530094 -4.77216e-05 0)
(1.04338e-05 -0.000591521 0)
(0.000532661 -0.000101532 0)
(0.000525992 -0.000113882 0)
(0.000397673 3.4632e-05 0)
(0.0003453 1.61479e-05 0)
(0.000422191 2.4425e-05 0)
(0.000420104 3.33559e-05 0)
(0.00038176 3.69293e-05 0)
(0.000454604 2.68081e-05 0)
(0.000396801 3.68386e-05 0)
(0.000445351 8.70029e-06 0)
(0.000444441 7.74336e-06 0)
(0.000375717 3.33925e-05 0)
(9.78543e-05 -0.000282477 0)
(0.000440127 1.86125e-05 0)
(0.000508387 2.2868e-06 0)
(0.000543955 -9.10963e-05 0)
(0.000528815 -4.91789e-05 0)
(0.000506952 4.48049e-06 0)
(0.000340615 3.02451e-05 0)
(0.000371265 3.4476e-05 0)
(0.000440903 2.09709e-05 0)
(0.000439209 1.71756e-05 0)
(0.000394264 2.73172e-05 0)
(0.000374339 3.54876e-05 0)
(0.000451658 1.15172e-06 0)
(0.000418256 2.64333e-05 0)
(0.000555747 -0.000116547 0)
(0.000413551 2.98158e-05 0)
(0.000413513 3.16135e-05 0)
(0.000265221 -0.000309446 0)
(0.000463952 2.26667e-05 0)
(0.000412858 2.8224e-05 0)
(0.000419837 2.4419e-05 0)
(0.000509222 -9.33039e-07 0)
(0.000501312 3.47021e-06 0)
(0.000366323 -4.43057e-05 0)
(0.000474626 -6.40643e-05 0)
(0.0007317 -0.000218729 0)
(0.000433003 2.37278e-05 0)
(0.000529076 -3.1657e-05 0)
(0.000324366 -2.42617e-05 0)
(0.000514215 -3.29386e-05 0)
(0.000519147 -5.91902e-06 0)
(0.000332029 2.45533e-05 0)
(0.000455204 1.99861e-05 0)
(0.000360984 2.83992e-05 0)
(0.000454004 1.80369e-05 0)
(0.000440789 2.20951e-05 0)
(0.000443186 1.47144e-05 0)
(0.000357228 3.55338e-05 0)
(0.000458489 2.73359e-06 0)
(0.000391222 2.77238e-05 0)
(0.000487286 6.25938e-06 0)
(0.00049309 9.62625e-06 0)
(0.000530899 -3.32135e-05 0)
(0.000458405 2.3234e-05 0)
(0.00052868 -2.18678e-05 0)
(0.000438666 2.88338e-05 0)
(0.00042454 3.30274e-05 0)
(0.000520735 -1.07867e-05 0)
(0.000444213 3.06884e-05 0)
(0.000478663 2.79117e-06 0)
(0.000445437 1.85828e-05 0)
(0.000120869 -0.000129931 0)
(0.00040611 2.90099e-05 0)
(0.000456405 1.38818e-05 0)
(0.000106246 -0.000465779 0)
(0.000347928 2.64139e-05 0)
(0.000523932 -1.06354e-05 0)
(0.000425775 2.34823e-05 0)
(0.000366676 3.00983e-05 0)
(0.000131481 -0.000149887 0)
(0.000435749 2.29426e-05 0)
(0.000439852 5.86444e-06 0)
(0.000398231 3.41587e-05 0)
(0.000476623 2.23819e-06 0)
(0.000461499 2.61566e-05 0)
(0.000377252 3.69337e-05 0)
(0.000374272 2.91378e-05 0)
(4.09863e-05 -0.000244119 0)
(0.000524628 -3.41761e-06 0)
(5.93712e-05 -0.00043922 0)
(0.00042595 2.98942e-05 0)
(0.000442083 1.79241e-06 0)
(0.000516054 1.15117e-06 0)
(0.000441796 4.91875e-06 0)
(0.000429773 2.35623e-05 0)
(0.000410624 3.40205e-05 0)
(0.000404723 3.35587e-05 0)
(0.000604973 -0.000226747 0)
(0.000396229 3.23344e-05 0)
(0.000459523 1.54195e-05 0)
(9.99506e-05 -0.000188295 0)
(0.000520524 -1.68089e-07 0)
(0.000397632 3.25864e-05 0)
(0.00047111 2.08824e-05 0)
(0.000451486 3.00447e-05 0)
(4.0652e-05 -0.000518026 0)
(0.000440683 1.31815e-05 0)
(0.000533996 -4.9984e-05 0)
(0.000534757 -6.82998e-05 0)
(0.000526364 -3.74923e-06 0)
(0.000409704 2.89494e-05 0)
(0.000583354 -0.000321774 0)
(0.000531692 -4.42742e-05 0)
(0.000448805 2.70056e-05 0)
(0.000449772 -0.000178404 0)
(-3.02344e-05 -0.000509935 0)
(0.000435566 1.76313e-05 0)
(0.000431554 2.14269e-05 0)
(0.000767955 -0.000348597 0)
(0.000126558 -0.000315841 0)
(0.000118485 -0.000401688 0)
(0.000371008 3.09645e-05 0)
(0.000449524 1.72128e-05 0)
(0.000483443 -9.80446e-05 0)
(0.000453612 2.63558e-06 0)
(0.000394216 2.66979e-05 0)
(0.000396923 -0.000200029 0)
(0.000409093 2.70999e-05 0)
(0.000453145 1.51417e-05 0)
(0.000443475 2.08821e-06 0)
(0.000395486 3.08845e-05 0)
(0.00031087 1.13695e-05 0)
(0.000389368 3.2802e-05 0)
(0.000320317 2.08274e-05 0)
(0.00014591 -0.000368325 0)
(0.000405467 3.04406e-05 0)
(0.000514945 -1.59125e-07 0)
(0.000401574 -9.04499e-05 0)
(6.43717e-05 -0.000547753 0)
(0.000403266 -5.38936e-05 0)
(0.000401319 2.94803e-05 0)
(0.000440793 1.42378e-06 0)
(0.000439211 3.87188e-06 0)
(0.000395419 3.44301e-05 0)
(0.000396786 3.57024e-05 0)
(0.000461276 1.2438e-06 0)
(0.000388418 2.762e-05 0)
(-3.98841e-06 -0.000551679 0)
(0.000583082 -0.000202868 0)
(0.000432545 1.97662e-05 0)
(0.000514767 -6.45016e-06 0)
(0.000138398 -0.000222991 0)
(0.000511643 2.47859e-06 0)
(0.000450292 2.91103e-05 0)
(0.000507016 3.59166e-06 0)
(0.000397907 3.37836e-05 0)
(0.000436946 1.65916e-05 0)
(0.000401852 3.12036e-05 0)
(0.000402654 -0.000474996 0)
(0.000130807 -0.000388926 0)
(0.000493803 -2.37572e-05 0)
(0.000361366 -1.27035e-06 0)
(1.31657e-05 -0.000444246 0)
(0.000327763 -4.40342e-06 0)
(0.000465871 -3.16882e-05 0)
(0.000399388 3.56123e-05 0)
(0.000389789 3.35335e-05 0)
(0.000528392 -1.26699e-05 0)
(0.000523599 -7.35903e-06 0)
(0.000444822 1.76312e-06 0)
(0.000396354 2.90057e-05 0)
(0.000413278 2.75188e-05 0)
(0.000416928 2.91786e-05 0)
(0.000490208 -4.29402e-05 0)
(0.000320252 1.75838e-05 0)
(0.000446274 9.93223e-06 0)
(0.000518739 -8.10549e-05 0)
(0.000366279 3.2312e-05 0)
(0.000497803 -6.54767e-05 0)
(0.000503592 -4.06005e-05 0)
(0.0004018 2.75496e-05 0)
(0.00051443 -1.32097e-06 0)
(0.000414923 2.63065e-05 0)
(0.000395202 3.2378e-05 0)
(0.000353203 3.08446e-05 0)
(0.00036009 3.40303e-05 0)
(0.000425104 2.42093e-05 0)
(0.000427568 2.28289e-05 0)
(0.0005025 6.45588e-06 0)
(0.000407324 2.82351e-05 0)
(0.000355002 2.80762e-05 0)
(0.000494998 1.10197e-05 0)
(0.000493306 1.26926e-05 0)
(0.000416515 3.25775e-05 0)
(0.000461461 2.58614e-05 0)
(0.000501235 8.05373e-06 0)
(0.000361438 3.23868e-05 0)
(0.000368102 3.54721e-05 0)
(0.000368792 3.56048e-05 0)
(0.000445399 2.11365e-05 0)
(0.000450611 1.88831e-05 0)
(0.000413163 3.2447e-05 0)
(0.00039178 3.07847e-05 0)
)
;

boundaryField
{
    back
    {
        type            empty;
    }
    front
    {
        type            empty;
    }
    down
    {
        type            symmetry;
    }
    right
    {
        type            calculated;
        value           nonuniform List<vector> 10((0.000423512 2.99557e-05 4.39793e-22) (0.000434009 1.95569e-05 -1.3924e-22) (0.000405104 3.70004e-05 -2.7139e-23) (0.000416686 3.41544e-05 2.83541e-22) (0.000437225 1.17565e-05 -1.34632e-22) (0.000400617 3.56106e-05 -6.79882e-24) (0.000429294 2.4756e-05 -1.56646e-22) (0.000410403 3.53058e-05 -2.78812e-23) (0.00043865 4.14087e-06 8.86441e-23) (0.0003968 3.64499e-05 -8.24888e-23));
    }
    up
    {
        type            calculated;
        value           nonuniform List<vector> 
20
(
(0.000276726 -2.19344e-06 0)
(0.000383845 2.76879e-05 0)
(0.000165209 -7.48018e-05 -5.79896e-21)
(-4.87164e-05 -0.000603452 -5.85381e-21)
(0.000395914 2.88106e-05 9.67841e-24)
(0.000317904 1.67189e-05 8.63217e-22)
(-4.50586e-05 -0.000375698 -5.71334e-22)
(0.000295087 2.62314e-06 0)
(0.000392414 2.66477e-05 -2.54046e-23)
(0.000218499 -3.59197e-05 1.05153e-21)
(0.00039411 2.70732e-05 -2.56222e-23)
(0.000360503 2.72423e-05 1.68201e-22)
(0.000101852 -0.000135042 2.83723e-21)
(0.000348107 2.45501e-05 1.12352e-22)
(0.000374428 2.81458e-05 1.69462e-22)
(1.25223e-05 -0.000248691 -2.54993e-21)
(-5.80434e-05 -0.000512857 5.568e-21)
(0.000394773 3.08558e-05 -3.55389e-24)
(0.000394702 3.44168e-05 -6.72482e-23)
(0.000388373 2.72224e-05 3.47272e-23)
)
;
    }
    left
    {
        type            symmetry;
    }
    hole
    {
        type            calculated;
        value           nonuniform List<vector> 8((0.000579308 -0.000183233 7.93131e-22) (0.000523378 -3.90478e-05 -2.29486e-22) (0.00027603 0.000404333 -9.62761e-20) (0.000517537 -1.407e-05 -2.55027e-22) (0.00055502 -0.000123156 9.18242e-22) (0.000741332 -0.000221477 -5.2808e-21) (0.000603066 -0.000238385 0) (0.000531682 -7.09615e-05 -1.30505e-21));
    }
}


// ************************************************************************* //
