/*--------------------------------*- C++ -*----------------------------------*\
| =========                 |                                                 |
| \\      /  F ield         | OpenFOAM: The Open Source CFD Toolbox           |
|  \\    /   O peration     | Version:  v2012                                 |
|   \\  /    A nd           | Website:  www.openfoam.com                      |
|    \\/     M anipulation  |                                                 |
\*---------------------------------------------------------------------------*/
FoamFile
{
    version     2.0;
    format      ascii;
    class       volVectorField;
    location    "20";
    object      D_0;
}
// * * * * * * * * * * * * * * * * * * * * * * * * * * * * * * * * * * * * * //

dimensions      [0 1 0 0 0 0 0];


internalField   nonuniform List<vector> 
470
(
(0.000571026 1.01162e-05 0)
(0.000566813 2.14447e-07 0)
(0.000473712 2.12367e-05 0)
(0.000541769 2.92299e-06 0)
(0.00054706 1.51916e-05 0)
(0.000480682 1.93328e-05 0)
(0.000518102 2.48974e-05 0)
(0.00055387 9.65038e-06 0)
(0.000395655 1.25913e-05 0)
(0.000483822 2.60488e-05 0)
(0.000416349 1.63507e-05 0)
(0.000303505 -9.29845e-05 0)
(0.000314264 -5.86134e-05 0)
(0.000541203 5.71815e-06 0)
(0.000314231 -1.30244e-05 0)
(0.000442681 2.65782e-05 0)
(0.000484376 2.75343e-05 0)
(0.000542956 7.02544e-06 0)
(0.000549118 2.70965e-06 0)
(0.000567637 7.85796e-06 0)
(0.000438629 2.35228e-05 0)
(0.000515303 2.22109e-05 0)
(0.000472078 1.90672e-05 0)
(0.00053829 8.85612e-06 0)
(0.000448799 -3.27305e-05 0)
(0.000525325 2.13036e-05 0)
(0.000469613 -1.4155e-05 0)
(0.000457687 1.65443e-05 0)
(0.000486764 2.13373e-05 0)
(0.000541396 4.22417e-06 0)
(0.00056473 8.44758e-06 0)
(0.000315593 -1.73211e-05 0)
(0.000477712 2.52144e-05 0)
(0.000551775 -0.000207718 0)
(0.000479031 1.70579e-05 0)
(0.000487302 1.90016e-05 0)
(0.000248122 -6.84561e-05 0)
(0.000561323 6.59792e-06 0)
(0.000556264 1.18843e-05 0)
(0.00057111 7.92167e-06 0)
(0.000493894 6.19741e-06 0)
(0.000551602 2.08194e-06 0)
(0.000254729 -0.00018292 0)
(0.000502812 1.35034e-05 0)
(0.000452335 1.75134e-05 0)
(0.000202909 -0.000225913 0)
(0.000544563 2.02921e-05 0)
(0.000460909 -8.93508e-08 0)
(0.000473729 4.3527e-06 0)
(0.000431853 1.57232e-06 0)
(0.000204724 -9.54727e-05 0)
(0.000592088 -0.000172282 0)
(0.000540769 1.0067e-05 0)
(0.000547656 5.57339e-06 0)
(0.000523939 1.87921e-05 0)
(0.000520365 1.99e-05 0)
(-9.87906e-06 -0.000679478 0)
(-1.92429e-05 -0.000653199 0)
(0.000484328 2.94376e-05 0)
(0.000462802 1.99688e-05 0)
(0.000516475 2.30005e-05 0)
(0.000414954 -3.19072e-05 0)
(0.000349608 -1.94581e-05 0)
(0.000367324 -0.000114771 0)
(0.000611561 -0.000158832 0)
(0.000221853 -0.00045221 0)
(0.000559435 1.13205e-05 0)
(0.000511482 2.18279e-05 0)
(0.00058609 -2.35277e-05 0)
(0.000457861 2.98351e-05 0)
(0.000580608 2.2088e-06 0)
(0.000493397 2.53466e-05 0)
(0.000468151 -0.000167406 0)
(0.000506835 2.84078e-05 0)
(0.000382276 -0.000198218 0)
(0.000522165 2.52266e-05 0)
(0.000494477 2.38177e-05 0)
(0.000501771 2.2534e-05 0)
(0.000496327 2.91683e-05 0)
(6.84381e-05 -0.000645386 0)
(0.000491748 1.86902e-05 0)
(0.000347455 -0.000331294 0)
(0.000470483 2.20605e-05 0)
(0.000586036 -3.34112e-05 0)
(0.000404516 -8.37923e-07 0)
(0.00051772 2.50299e-05 0)
(0.000302339 -0.000164744 0)
(0.000621591 -0.000194677 0)
(0.000269994 -0.000263132 0)
(0.000465024 -0.000117236 0)
(0.000366091 -0.000207455 0)
(0.000291677 -5.34872e-05 0)
(0.000507469 2.95912e-05 0)
(0.000500359 2.7122e-05 0)
(0.000315326 -2.96815e-05 0)
(0.000294717 -3.27492e-05 0)
(0.000539469 1.97456e-05 0)
(0.000509192 2.33974e-05 0)
(0.000533739 1.732e-05 0)
(0.000478447 1.81692e-05 0)
(0.0005262 1.58558e-05 0)
(0.000436183 1.34207e-05 0)
(0.000516592 -0.000207796 0)
(0.000531661 1.48766e-05 0)
(0.000536164 1.20809e-05 0)
(0.000493577 2.42894e-05 0)
(0.000499418 2.32109e-05 0)
(0.00054053 2.27788e-05 0)
(0.000597535 -3.23208e-05 0)
(0.000573996 -0.000289489 0)
(0.000232053 -0.000282957 0)
(0.000506833 -0.000281631 0)
(0.000525925 2.24156e-05 0)
(0.0004816 1.87763e-05 0)
(0.000571536 -1.26771e-05 0)
(0.000482092 2.99513e-05 0)
(0.000540662 3.26267e-06 0)
(0.000382774 9.27564e-06 0)
(0.00052832 2.41548e-05 0)
(0.000564563 5.14325e-06 0)
(0.000519049 2.69547e-05 0)
(0.00053431 1.20492e-05 0)
(0.000542312 6.46673e-06 0)
(0.000534885 1.66745e-05 0)
(0.000500012 2.8987e-05 0)
(0.000468997 3.1402e-05 0)
(0.000467802 3.06578e-05 0)
(0.000518613 1.84478e-05 0)
(0.000368144 3.19221e-06 0)
(0.000534494 1.17978e-05 0)
(0.000560475 1.40836e-05 0)
(0.000547114 1.73902e-05 0)
(0.000515312 2.49279e-05 0)
(0.000525244 1.69563e-05 0)
(0.00051398 2.81293e-05 0)
(0.000473861 1.85475e-05 0)
(0.000495762 2.67157e-05 0)
(0.000592582 -0.000136476 0)
(0.00024463 -0.000117288 0)
(0.000488508 2.19876e-05 0)
(0.000486147 2.22566e-05 0)
(0.000478344 -7.3399e-05 0)
(0.000515881 1.90131e-05 0)
(0.000506888 2.26657e-05 0)
(0.000508899 2.1454e-05 0)
(0.000559663 1.37979e-05 0)
(0.000539722 5.22443e-06 0)
(0.000393982 -4.25946e-05 0)
(0.000521582 1.738e-05 0)
(0.000345966 -8.39719e-05 0)
(0.000546372 8.44847e-06 0)
(0.000539684 7.13543e-06 0)
(0.00056358 -9.52149e-06 0)
(0.000526056 1.96489e-05 0)
(0.000679238 -0.000297429 0)
(0.000444956 2.85594e-05 0)
(0.000596723 -4.62434e-05 0)
(0.000526761 2.11437e-05 0)
(0.000524398 2.04409e-05 0)
(0.000487548 2.35662e-05 0)
(0.000653366 -0.000256864 0)
(0.000360654 -3.81069e-06 0)
(8.88642e-06 -0.00041639 0)
(0.000338864 -1.2404e-05 0)
(6.28963e-05 -0.000628849 0)
(0.000563257 -2.95099e-05 0)
(0.00055413 -1.7022e-05 0)
(0.000354483 -3.59666e-06 0)
(0.000495763 3.08894e-05 0)
(0.000519347 -7.10024e-06 0)
(0.000535441 -3.64597e-06 0)
(0.000504744 2.14292e-05 0)
(0.000499054 2.01224e-05 0)
(0.000496985 2.26344e-05 0)
(0.000501241 2.12207e-05 0)
(0.00051672 2.14397e-05 0)
(0.000545299 4.9119e-06 0)
(0.000594424 -4.77398e-06 0)
(0.000480677 -4.47286e-05 0)
(0.000536879 3.81512e-06 0)
(0.00052428 1.07806e-05 0)
(0.000213071 -0.000154258 0)
(0.000496116 3.01533e-05 0)
(0.000461151 3.1425e-05 0)
(0.000455349 2.65656e-05 0)
(0.000387766 1.03502e-05 0)
(0.000490112 2.00334e-05 0)
(0.000596637 -1.45499e-06 0)
(6.46696e-05 -0.000341702 0)
(0.000536084 1.10118e-05 0)
(0.000491899 2.0093e-05 0)
(0.000534655 2.206e-05 0)
(0.000473914 2.81284e-05 0)
(0.000478935 3.162e-05 0)
(0.000575658 7.36987e-06 0)
(0.000543823 9.78954e-06 0)
(0.000466514 1.84277e-05 0)
(0.000485502 2.20213e-05 0)
(0.000481105 2.0432e-05 0)
(0.000317763 -4.59037e-05 0)
(0.000576913 2.31515e-07 0)
(0.000585388 2.84711e-06 0)
(0.000103955 -0.000248636 0)
(0.000573576 -6.98525e-05 0)
(0.00045762 2.70481e-05 0)
(0.000448397 2.16979e-05 0)
(0.000553684 5.92608e-06 0)
(0.000551337 9.18093e-06 0)
(0.000579412 -9.15791e-05 0)
(0.000592858 -1.75022e-05 0)
(0.00052414 1.67535e-05 0)
(0.000472733 2.35374e-05 0)
(0.000596447 -8.05409e-06 0)
(0.000537949 1.11917e-05 0)
(0.00039253 1.51207e-05 0)
(0.000408985 2.14414e-05 0)
(0.000518857 1.88832e-05 0)
(0.000536392 1.77437e-05 0)
(0.000531017 1.47928e-05 0)
(0.000524697 -1.90428e-05 0)
(0.0005963 -2.54452e-05 0)
(0.000558274 1.596e-05 0)
(0.000485457 2.04643e-05 0)
(0.000535536 1.26815e-05 0)
(0.000508102 -2.40742e-05 0)
(0.000479772 2.02379e-05 0)
(0.000431322 1.60286e-05 0)
(0.000596928 -1.01643e-05 0)
(0.000146755 -0.000534638 0)
(0.00019853 -0.000114064 0)
(0.000459362 1.32756e-05 0)
(0.000593706 -1.92536e-05 0)
(0.000539655 8.34725e-06 0)
(0.00049245 2.64963e-05 0)
(0.000454483 2.24596e-05 0)
(0.000507866 2.71907e-05 0)
(0.000608264 -0.000107002 0)
(0.000501942 2.59122e-05 0)
(0.00050295 2.77592e-05 0)
(0.000531578 1.82034e-05 0)
(0.000530832 1.72965e-05 0)
(0.00053569 1.12956e-05 0)
(0.000495065 2.42702e-05 0)
(0.000291218 -0.00051797 0)
(0.000120872 -0.000628057 0)
(7.83781e-05 -0.000576679 0)
(1.47322e-05 -0.000674166 0)
(0.000507441 2.37713e-05 0)
(0.000553561 3.85836e-06 0)
(0.000491195 2.09648e-05 0)
(0.000493342 2.19841e-05 0)
(0.00046335 2.10819e-05 0)
(0.000538754 1.06885e-05 0)
(0.000494852 2.78979e-05 0)
(0.000437575 2.93934e-05 0)
(0.000559387 1.06773e-05 0)
(0.000543233 1.22926e-05 0)
(0.000537571 1.32646e-05 0)
(0.000495538 2.73066e-05 0)
(0.000573003 4.29751e-06 0)
(0.000483887 3.25019e-05 0)
(0.000339118 -0.00029719 0)
(0.000588609 -4.30816e-07 0)
(0.00060448 -8.80538e-05 0)
(0.000544982 1.4192e-05 0)
(0.000539077 8.83767e-06 0)
(0.000490978 2.41508e-05 0)
(0.000544174 1.44478e-06 0)
(0.000545866 1.51178e-05 0)
(0.000447104 1.95578e-05 0)
(0.000469787 1.59472e-05 0)
(0.000599904 -6.93386e-05 0)
(0.000256745 -5.53252e-05 0)
(0.000585197 -5.89083e-05 0)
(1.27521e-05 -0.000641466 0)
(0.000574164 -0.000122949 0)
(0.000561616 -0.000138157 0)
(0.00046822 2.72815e-05 0)
(0.000388997 1.56241e-06 0)
(0.000511665 2.00814e-05 0)
(0.000494431 2.8599e-05 0)
(0.00043914 2.81585e-05 0)
(0.000528874 2.44268e-05 0)
(0.000455611 2.90393e-05 0)
(0.000539016 7.78384e-06 0)
(0.000539569 6.72682e-06 0)
(0.000440247 2.317e-05 0)
(0.000110507 -0.000323666 0)
(0.000527332 1.61248e-05 0)
(0.000579677 7.35579e-07 0)
(0.00059366 -0.000108306 0)
(0.000587546 -5.93024e-05 0)
(0.000579484 3.33849e-06 0)
(0.000392933 1.72147e-05 0)
(0.000425189 2.43711e-05 0)
(0.000524933 1.835e-05 0)
(0.000528222 1.48037e-05 0)
(0.000475704 1.65115e-05 0)
(0.00042729 2.53973e-05 0)
(0.000542907 9.76519e-07 0)
(0.000508527 2.19223e-05 0)
(0.000611555 -0.000137163 0)
(0.000507134 2.51409e-05 0)
(0.000508944 2.75182e-05 0)
(0.000279432 -0.000350414 0)
(0.000527036 1.8085e-05 0)
(0.000500569 2.26076e-05 0)
(0.000507166 1.98136e-05 0)
(0.000576267 -4.01375e-06 0)
(0.000568863 7.14749e-07 0)
(0.000399917 -6.66396e-05 0)
(0.000512652 -8.46901e-05 0)
(0.000753292 -0.000256735 0)
(0.000515768 2.01164e-05 0)
(0.000589534 -3.92718e-05 0)
(0.000358981 -4.52884e-05 0)
(0.000571051 -4.17893e-05 0)
(0.00059144 -7.38082e-06 0)
(0.000380325 1.0817e-05 0)
(0.000535282 1.81007e-05 0)
(0.000420175 1.56929e-05 0)
(0.00053543 1.62943e-05 0)
(0.00052342 1.93867e-05 0)
(0.000533262 1.27792e-05 0)
(0.00041141 2.45504e-05 0)
(0.000545663 2.47602e-06 0)
(0.000467014 1.68922e-05 0)
(0.000550524 1.8286e-06 0)
(0.000558984 6.19542e-06 0)
(0.000597434 -3.89241e-05 0)
(0.000534571 2.12551e-05 0)
(0.000597915 -2.59348e-05 0)
(0.000499215 2.28394e-05 0)
(0.00048486 2.67891e-05 0)
(0.000588986 -1.40608e-05 0)
(0.000510208 2.65161e-05 0)
(0.00055907 2.41144e-06 0)
(0.000530319 1.64009e-05 0)
(0.000138532 -0.000163842 0)
(0.00049286 2.21976e-05 0)
(0.00053996 1.25869e-05 0)
(0.000108102 -0.000512524 0)
(0.000402281 1.28683e-05 0)
(0.000596469 -1.23949e-05 0)
(0.000511435 1.95179e-05 0)
(0.000427766 1.82929e-05 0)
(0.000149119 -0.000185052 0)
(0.00052013 1.98981e-05 0)
(0.000540078 5.52229e-06 0)
(0.000490929 2.59247e-05 0)
(0.000558066 2.19479e-06 0)
(0.000530492 2.31422e-05 0)
(0.000438074 2.78546e-05 0)
(0.000439113 1.72145e-05 0)
(5.28125e-05 -0.000284324 0)
(0.000598275 -4.08923e-06 0)
(6.73087e-05 -0.000485453 0)
(0.000500529 2.55033e-05 0)
(0.000540873 1.56496e-06 0)
(0.000590776 8.84961e-07 0)
(0.000540474 4.57424e-06 0)
(0.00052921 2.20685e-05 0)
(0.000506761 2.96949e-05 0)
(0.000476231 2.71269e-05 0)
(0.000639853 -0.000259298 0)
(0.000486718 2.29899e-05 0)
(0.000541602 1.40321e-05 0)
(0.000115047 -0.000225831 0)
(0.000594061 -9.49508e-07 0)
(0.000488379 2.37976e-05 0)
(0.000547979 1.95528e-05 0)
(0.000520152 2.6762e-05 0)
(4.64202e-05 -0.000566292 0)
(0.000535474 1.18563e-05 0)
(0.00060042 -5.91181e-05 0)
(0.000598624 -8.18046e-05 0)
(0.000600386 -4.15331e-06 0)
(0.000499564 2.31322e-05 0)
(0.000596558 -0.000362565 0)
(0.000596318 -5.24482e-05 0)
(0.000511639 2.20288e-05 0)
(0.000470343 -0.000214665 0)
(-2.5976e-05 -0.000559074 0)
(0.000529653 1.54358e-05 0)
(0.000519801 1.81715e-05 0)
(0.000781992 -0.000389901 0)
(0.000139387 -0.000357787 0)
(0.000128793 -0.000446038 0)
(0.000434288 1.95544e-05 0)
(0.000533519 1.53355e-05 0)
(0.000518344 -0.000122247 0)
(0.000543199 2.27687e-06 0)
(0.000473776 1.60964e-05 0)
(0.00041606 -0.000236932 0)
(0.00049701 2.0838e-05 0)
(0.000537722 1.35922e-05 0)
(0.000540818 2.03882e-06 0)
(0.000484159 2.09576e-05 0)
(0.000351968 -5.17296e-06 0)
(0.000460463 2.38993e-05 0)
(0.000364387 5.65632e-06 0)
(0.000150683 -0.000412628 0)
(0.000483514 2.36565e-05 0)
(0.0005859 -1.93873e-06 0)
(0.000431592 -0.00011631 0)
(6.97608e-05 -0.000596254 0)
(0.000437457 -7.6515e-05 0)
(0.000482704 2.14692e-05 0)
(0.000541225 1.34843e-06 0)
(0.000540569 3.72269e-06 0)
(0.000487609 2.51921e-05 0)
(0.000490389 2.7206e-05 0)
(0.000547349 1.14919e-06 0)
(0.000462147 1.62281e-05 0)
(-1.10583e-07 -0.000601454 0)
(0.000620216 -0.000232111 0)
(0.000526155 1.71936e-05 0)
(0.000583851 -9.01042e-06 0)
(0.000154022 -0.000261255 0)
(0.000585626 1.64342e-06 0)
(0.000515416 2.48884e-05 0)
(0.000581817 3.07273e-06 0)
(0.000470303 2.63871e-05 0)
(0.000529547 1.43735e-05 0)
(0.000477811 2.39827e-05 0)
(0.000410838 -0.000519648 0)
(0.000141596 -0.000432738 0)
(0.000545723 -3.44525e-05 0)
(0.000401553 -1.82241e-05 0)
(2.00726e-05 -0.000491274 0)
(0.00036524 -2.32756e-05 0)
(0.000510776 -4.65459e-05 0)
(0.000456401 2.76046e-05 0)
(0.000444415 2.43819e-05 0)
(0.000601009 -1.45878e-05 0)
(0.000596489 -8.78158e-06 0)
(0.000540891 1.38158e-06 0)
(0.000483798 1.92487e-05 0)
(0.000503852 2.22398e-05 0)
(0.000472783 2.10971e-05 0)
(0.000535551 -5.81715e-05 0)
(0.000365168 2.389e-06 0)
(0.00053857 8.67786e-06 0)
(0.00056196 -9.91033e-05 0)
(0.000426683 2.13204e-05 0)
(0.000540387 -8.34063e-05 0)
(0.000553272 -5.36864e-05 0)
(0.000485946 1.91958e-05 0)
(0.000588514 -2.11564e-06 0)
(0.000504305 2.11222e-05 0)
(0.000467716 2.42905e-05 0)
(0.000407411 1.89427e-05 0)
(0.000417101 2.29859e-05 0)
(0.000512195 2.01011e-05 0)
(0.000516074 1.91564e-05 0)
(0.000572031 4.29136e-06 0)
(0.000460897 1.90624e-05 0)
(0.000411887 1.54414e-05 0)
(0.000564868 8.99319e-06 0)
(0.000564688 1.1092e-05 0)
(0.000488866 2.73481e-05 0)
(0.000528428 2.25275e-05 0)
(0.000574056 6.8257e-06 0)
(0.00041947 2.09657e-05 0)
(0.000424961 2.54837e-05 0)
(0.000427167 2.55504e-05 0)
(0.000527332 1.87316e-05 0)
(0.000533131 1.69009e-05 0)
(0.000470769 2.49429e-05 0)
(0.000444864 2.12104e-05 0)
)
;

boundaryField
{
    back
    {
        type            empty;
    }
    front
    {
        type            empty;
    }
    down
    {
        type            symmetry;
    }
    right
    {
        type            calculated;
        value           nonuniform List<vector> 10((0.000522726 2.80386e-05 3.0249e-22) (0.000535062 1.88666e-05 -7.24199e-24) (0.000501014 3.17038e-05 -1.80415e-22) (0.000514693 3.12644e-05 3.95502e-22) (0.000538813 1.13234e-05 -6.29578e-23) (0.000495685 2.88283e-05 -1.59529e-22) (0.00052949 2.34804e-05 -3.03191e-22) (0.00050733 3.12268e-05 8.55138e-23) (0.000540565 4.03232e-06 3.51692e-23) (0.000491043 2.80937e-05 -2.92346e-22));
    }
    up
    {
        type            calculated;
        value           nonuniform List<vector> 
20
(
(0.000313409 -2.22976e-05 0)
(0.000453327 1.56665e-05 0)
(0.000187022 -0.000104206 -6.50301e-21)
(-4.77175e-05 -0.00065521 -5.97057e-21)
(0.000481475 1.80974e-05 4.87459e-23)
(0.000364743 6.55107e-07 1.10041e-21)
(-3.86354e-05 -0.00042128 -6.40025e-22)
(0.000336018 -1.56419e-05 0)
(0.000470041 1.51313e-05 -1.07506e-22)
(0.000246713 -6.07365e-05 1.1781e-21)
(0.000475472 1.58539e-05 -1.76263e-22)
(0.000419501 1.40614e-05 2.48418e-22)
(0.000118121 -0.000169499 3.08318e-21)
(0.000402227 1.04214e-05 1.824e-22)
(0.000439165 1.57355e-05 2.45e-22)
(2.3135e-05 -0.000289366 -2.64536e-21)
(-5.45051e-05 -0.000562363 5.65431e-21)
(0.000483314 2.06314e-05 -4.38782e-23)
(0.000486755 2.49035e-05 -1.4868e-22)
(0.000462034 1.54711e-05 8.09981e-23)
)
;
    }
    left
    {
        type            symmetry;
    }
    hole
    {
        type            calculated;
        value           nonuniform List<vector> 8((0.000628168 -0.000211703 7.45955e-22) (0.000592623 -4.87337e-05 -3.82616e-23) (0.000285864 0.000364421 -9.67152e-20) (0.000588987 -1.79141e-05 -3.7166e-22) (0.000612733 -0.000146005 1.19049e-21) (0.000765272 -0.000258969 -5.72821e-21) (0.000640319 -0.000271292 0) (0.000596406 -8.62127e-05 -1.76723e-21));
    }
}


// ************************************************************************* //
