/*--------------------------------*- C++ -*----------------------------------*\
| =========                 |                                                 |
| \\      /  F ield         | OpenFOAM: The Open Source CFD Toolbox           |
|  \\    /   O peration     | Version:  v2012                                 |
|   \\  /    A nd           | Website:  www.openfoam.com                      |
|    \\/     M anipulation  |                                                 |
\*---------------------------------------------------------------------------*/
FoamFile
{
    version     2.0;
    format      ascii;
    class       pointVectorField;
    location    "20";
    object      pointD;
}
// * * * * * * * * * * * * * * * * * * * * * * * * * * * * * * * * * * * * * //

dimensions      [0 1 0 0 0 0 0];


internalField   nonuniform List<vector> 
530
(
(0.000520379 0 -1.28146e-22)
(0.000439721 0 4.43221e-23)
(0.000395751 3.54334e-05 -7.48685e-23)
(0 -0.000615732 -2.9269e-21)
(0 0.000101429 -4.83766e-20)
(0.000520379 0 -1.28146e-22)
(0.000439721 0 4.43221e-23)
(0.000395751 3.54334e-05 -7.48685e-23)
(0 -0.000615732 -2.9269e-21)
(0 0.000101429 -4.83766e-20)
(0.000524806 0 0)
(0.00052426 0 0)
(0.000517784 0 0)
(0.000508882 0 0)
(0.000499839 0 0)
(0.000490192 0 0)
(0.000480841 0 0)
(0.00047232 0 0)
(0.000464647 0 0)
(0.000458454 0 0)
(0.000453645 0 0)
(0.000448827 0 0)
(0.000444735 0 0)
(0.000442134 0 0)
(0.000437938 7.9487e-06 -2.29937e-23)
(0.000435617 1.56567e-05 -1.36936e-22)
(0.000431652 2.21565e-05 -1.47943e-22)
(0.000426403 2.73559e-05 1.41573e-22)
(0.000420099 3.20551e-05 3.61667e-22)
(0.000413544 3.47301e-05 1.2783e-22)
(0.000407753 3.61531e-05 -2.75101e-23)
(0.00040286 3.63055e-05 -1.69689e-23)
(0.000398709 3.60303e-05 -4.46438e-23)
(0.000394737 3.26363e-05 -3.5401e-23)
(0.000395343 2.98332e-05 3.06226e-24)
(0.000395012 2.79419e-05 -7.97191e-24)
(0.000393262 2.68605e-05 -2.55134e-23)
(0.000390394 2.69351e-05 4.66128e-24)
(0.000386109 2.74552e-05 1.73636e-23)
(0.000379136 2.79169e-05 8.47311e-23)
(0.000367465 2.7694e-05 1.68831e-22)
(0.000354305 2.58962e-05 1.40276e-22)
(0.000333006 2.06345e-05 4.87784e-22)
(0.000306495 9.67103e-06 4.31608e-22)
(0.000285907 2.14848e-07 0)
(0.000247613 -1.90566e-05 5.25766e-22)
(0.000191854 -5.53608e-05 -2.37372e-21)
(0.000133531 -0.000104922 -1.48087e-21)
(5.71871e-05 -0.000191867 1.43651e-22)
(-1.62681e-05 -0.000312194 -1.56063e-21)
(-5.1551e-05 -0.000444278 2.49833e-21)
(-5.33799e-05 -0.000558155 -1.42906e-22)
(0 -0.000626097 0)
(0 -0.000610828 0)
(0 -0.000531628 0)
(0 -0.000335136 0)
(0.000508681 9.14278e-05 -5.07784e-20)
(0.000672199 -0.000229931 -2.6404e-21)
(0.000591187 -0.000210809 3.96566e-22)
(0.000567164 -0.000153195 8.55687e-22)
(0.000543351 -9.7059e-05 -1.93405e-22)
(0.00052753 -5.50047e-05 -7.67269e-22)
(0.000520457 -2.65589e-05 -2.42257e-22)
(0.000524806 0 0)
(0.00052426 0 0)
(0.000517784 0 0)
(0.000508882 0 0)
(0.000499839 0 0)
(0.000490192 0 0)
(0.000480841 0 0)
(0.00047232 0 0)
(0.000464647 0 0)
(0.000458454 0 0)
(0.000453645 0 0)
(0.000448827 0 0)
(0.000444735 0 0)
(0.000442134 0 0)
(0.000437938 7.9487e-06 -2.29937e-23)
(0.000435617 1.56567e-05 -1.36936e-22)
(0.000431652 2.21565e-05 -1.47943e-22)
(0.000426403 2.73559e-05 1.41573e-22)
(0.000420099 3.20551e-05 3.61667e-22)
(0.000413544 3.47301e-05 1.2783e-22)
(0.000407753 3.61531e-05 -2.75101e-23)
(0.00040286 3.63055e-05 -1.69689e-23)
(0.000398709 3.60303e-05 -4.46438e-23)
(0.000394737 3.26363e-05 -3.5401e-23)
(0.000395343 2.98332e-05 3.06226e-24)
(0.000395012 2.79419e-05 -7.97191e-24)
(0.000393262 2.68605e-05 -2.55134e-23)
(0.000390394 2.69351e-05 4.66128e-24)
(0.000386109 2.74552e-05 1.73636e-23)
(0.000379136 2.79169e-05 8.47311e-23)
(0.000367465 2.7694e-05 1.68831e-22)
(0.000354305 2.58962e-05 1.40276e-22)
(0.000333006 2.06345e-05 4.87784e-22)
(0.000306495 9.67103e-06 4.31608e-22)
(0.000285907 2.14848e-07 0)
(0.000247613 -1.90566e-05 5.25766e-22)
(0.000191854 -5.53608e-05 -2.37372e-21)
(0.000133531 -0.000104922 -1.48087e-21)
(5.71871e-05 -0.000191867 1.43651e-22)
(-1.62681e-05 -0.000312194 -1.56063e-21)
(-5.1551e-05 -0.000444278 2.49833e-21)
(-5.33799e-05 -0.000558155 -1.42906e-22)
(0 -0.000626097 0)
(0 -0.000610828 0)
(0 -0.000531628 0)
(0 -0.000335136 0)
(0.000508681 9.14278e-05 -5.07784e-20)
(0.000672199 -0.000229931 -2.6404e-21)
(0.000591187 -0.000210809 3.96566e-22)
(0.000567164 -0.000153195 8.55687e-22)
(0.000543351 -9.7059e-05 -1.93405e-22)
(0.00052753 -5.50047e-05 -7.67269e-22)
(0.000520457 -2.65589e-05 -2.42257e-22)
(0.00044966 2.33618e-05 0)
(0.000429226 2.67194e-05 0)
(0.000399145 -3.33201e-05 0)
(0.000404967 3.68556e-05 0)
(0.000462509 2.35321e-05 0)
(0.000409227 2.76229e-05 0)
(0.000439083 1.63286e-05 0)
(0.00032373 -0.000223487 0)
(0.000514562 -8.88305e-06 0)
(0.000367646 2.15729e-05 0)
(0.000453933 1.64022e-05 0)
(0.000399289 3.21849e-05 0)
(0.000494281 1.16942e-05 0)
(0.000511893 -3.75051e-05 0)
(0.00042301 2.43499e-05 0)
(0.000368861 3.55502e-05 0)
(0.000431814 3.0946e-05 0)
(0.000440342 3.21183e-05 0)
(0.000263734 -0.000101592 0)
(0.000493674 -0.000133146 0)
(0.00045097 1.03878e-05 0)
(0.00039777 2.85932e-05 0)
(0.000441366 9.91249e-06 0)
(0.000401174 3.01e-05 0)
(0.000443648 3.13713e-06 0)
(0.000298646 -1.70177e-05 0)
(0.000382466 3.37419e-05 0)
(0.000470498 1.23154e-05 0)
(0.000422005 2.50941e-05 0)
(0.000440454 1.97282e-05 0)
(8.81215e-05 -0.000474792 0)
(0.000410349 3.50589e-05 0)
(0.00043274 1.94747e-05 0)
(0.000411518 2.91989e-05 0)
(0.000409873 2.89925e-05 0)
(0.000411119 -0.000353453 0)
(0.000469151 2.26653e-05 0)
(0.000485954 9.89235e-06 0)
(0.000513683 2.78147e-07 0)
(0.000525928 -1.51118e-05 0)
(0.000488019 9.51373e-07 0)
(0.000530245 -4.05993e-05 0)
(0.000412992 3.34806e-05 0)
(0.000453025 2.21745e-05 0)
(0.000331245 2.28489e-05 0)
(0.000153278 -0.000251008 0)
(0.000369644 3.43197e-05 0)
(0.000447791 7.3912e-06 0)
(0.000398779 2.83907e-05 0)
(0.000534263 -9.36276e-05 0)
(0.000459106 8.37192e-06 0)
(0.000392959 2.96316e-05 0)
(0.000495714 8.57895e-06 0)
(0.00038861 1.03004e-06 0)
(0.000424242 2.25911e-05 0)
(0.000372697 -0.000124301 0)
(0.000294088 1.83537e-06 0)
(0.00052548 -0.000206709 0)
(0.000430745 2.09872e-05 0)
(0.000414808 3.05849e-05 0)
(0.000440485 2.33774e-05 0)
(0.000502135 5.26645e-06 0)
(0.000476877 1.90899e-05 0)
(0.000468523 -4.7544e-05 0)
(0.000425893 2.46219e-05 0)
(0.000230446 -5.92345e-05 0)
(0.000380752 3.11302e-05 0)
(0.000135729 -0.000521719 0)
(0.000385705 3.04542e-05 0)
(0.000467096 5.84547e-06 0)
(0.000426127 3.42784e-05 0)
(0.000392322 3.7332e-05 0)
(0.000445665 2.95295e-05 0)
(0.000536556 -6.82764e-05 0)
(0.000417117 2.60221e-05 0)
(0.000405801 3.20691e-05 0)
(0.000436124 1.61204e-05 0)
(0.00032276 -4.12027e-05 0)
(0.000345217 2.93174e-05 0)
(0.000512415 -1.95889e-05 0)
(0.000430404 2.3599e-05 0)
(0.000440984 6.96226e-06 0)
(0.000398918 3.26551e-05 0)
(0.00042464 3.05872e-05 0)
(0.000417215 2.87892e-05 0)
(0.000522303 -5.48087e-06 0)
(0.000458891 2.6639e-05 0)
(0.00038655 3.66661e-05 0)
(0.000398509 3.54872e-05 0)
(0.000482434 6.94962e-06 0)
(0.000476122 1.5185e-05 0)
(0.00044875 1.57892e-05 0)
(0.000459175 1.71592e-05 0)
(0.000443655 1.57092e-05 0)
(0.00043737 3.10844e-05 0)
(0.000418197 3.59344e-05 0)
(0.000419716 2.72866e-05 0)
(0.000406902 2.87959e-05 0)
(0.000438357 1.52849e-05 0)
(0.000161946 -0.000169713 0)
(6.69712e-05 -0.000364339 0)
(0.000555047 -0.000140038 0)
(0.00040492 2.82776e-05 0)
(0.000455914 4.50596e-06 0)
(0.000485672 -9.56179e-06 0)
(0.000392981 2.77724e-05 0)
(0.000250139 -2.48734e-05 0)
(0.000400581 3.01455e-05 0)
(0.000477291 1.45202e-05 0)
(0.000445328 5.45651e-06 0)
(0.000397561 2.91989e-05 0)
(0.000440254 2.60346e-05 0)
(0.000413704 2.70868e-05 0)
(0.000428433 -0.00017088 0)
(0.000253931 -0.000184957 0)
(0.000440113 -1.77285e-05 0)
(1.50125e-05 -0.000570337 0)
(0.000371117 3.20726e-05 0)
(0.000439591 -7.48916e-05 0)
(0.000529304 -3.39585e-05 0)
(0.000429766 2.11183e-05 0)
(0.000460895 1.12752e-05 0)
(0.000435722 1.99691e-05 0)
(0.00065344 -0.000270444 0)
(0.000235375 -0.000355957 0)
(0.000338512 5.84834e-06 0)
(0.000392411 3.3351e-05 0)
(0.000445351 1.21727e-05 0)
(0.000403407 2.81706e-05 0)
(0.00038673 -0.00029324 0)
(0.000493005 5.50625e-06 0)
(0.000508462 7.99249e-07 0)
(0.000511988 1.47576e-06 0)
(0.000524738 -1.50343e-05 0)
(0.000524688 -2.13891e-05 0)
(0.000352943 3.03164e-05 0)
(0.000425457 2.97349e-05 0)
(0.000475506 5.26883e-06 0)
(0.000519758 -7.99827e-06 0)
(0.000398782 -0.000233431 0)
(0.000415701 3.47053e-05 0)
(0.000430804 2.17539e-05 0)
(0.000411023 3.19547e-05 0)
(0.000395591 2.76229e-05 0)
(0.000499857 1.18054e-06 0)
(0.000451753 4.41938e-06 0)
(0.000211537 -0.000472136 0)
(0.000416091 2.69645e-05 0)
(4.58254e-05 -0.000572887 0)
(0.000536929 -5.93408e-05 0)
(0.000450635 2.56231e-05 0)
(0.000184 -0.00031481 0)
(0.000461502 1.21973e-05 0)
(0.000488676 1.22146e-05 0)
(0.000375479 3.66355e-05 0)
(0.000486636 1.48383e-05 0)
(0.000403626 1.79277e-05 0)
(0.000463068 1.9846e-05 0)
(0.000367357 -6.61682e-05 0)
(0.000458329 2.51721e-05 0)
(0.000302826 1.11193e-05 0)
(0.000505647 5.36565e-06 0)
(0.000403472 3.3288e-05 0)
(0.000525408 -7.58502e-06 0)
(0.00034913 -1.32648e-05 0)
(0.000330786 1.85273e-05 0)
(0.000411981 2.76178e-05 0)
(0.000401309 3.32098e-05 0)
(0.000438846 1.13564e-05 0)
(0.000591865 -0.000206258 0)
(0.000424045 2.37527e-05 0)
(0.000443498 1.11376e-05 0)
(0.000385682 3.5488e-05 0)
(0.000376343 3.11376e-05 0)
(0.000505491 -8.71834e-05 0)
(0.000405629 3.11281e-05 0)
(0.000357413 2.97195e-05 0)
(0.000445503 1.97952e-05 0)
(0.000399967 2.83506e-05 0)
(0.000449538 2.07031e-05 0)
(0.000436958 2.2926e-05 0)
(0.00045395 2.83392e-05 0)
(0.000481848 -2.69949e-05 0)
(0.000361447 3.42898e-05 0)
(8.6614e-05 -0.000247349 0)
(0.000552272 -0.000110311 0)
(0.000525533 -4.03769e-05 0)
(0.000500996 7.64586e-06 0)
(1.53303e-05 -0.000492703 0)
(0.000167451 -0.000114074 0)
(0.000455025 1.27581e-05 0)
(0.000461063 3.66539e-06 0)
(0.000518604 -1.04895e-06 0)
(0.0003231 1.92612e-05 0)
(0.00039511 2.69024e-05 0)
(0.000389277 2.82635e-05 0)
(0.000421587 3.26087e-05 0)
(0.000428448 2.28491e-05 0)
(0.000393671 3.15215e-05 0)
(0.000510392 -6.04029e-05 0)
(0.00044305 3.93772e-06 0)
(0.000397076 3.09823e-05 0)
(0.000362004 3.02807e-05 0)
(0.00043449 1.84216e-05 0)
(0.000440661 3.6068e-06 0)
(0.000396866 3.39305e-05 0)
(0.000402901 3.1654e-05 0)
(0.00044966 2.33618e-05 0)
(0.000429226 2.67194e-05 0)
(0.000399145 -3.33201e-05 0)
(0.000404967 3.68556e-05 0)
(0.000462509 2.35321e-05 0)
(0.000409227 2.76229e-05 0)
(0.000439083 1.63286e-05 0)
(0.00032373 -0.000223487 0)
(0.000514562 -8.88305e-06 0)
(0.000367646 2.15729e-05 0)
(0.000453933 1.64022e-05 0)
(0.000399289 3.21849e-05 0)
(0.000494281 1.16942e-05 0)
(0.000511893 -3.75051e-05 0)
(0.00042301 2.43499e-05 0)
(0.000368861 3.55502e-05 0)
(0.000431814 3.0946e-05 0)
(0.000440342 3.21183e-05 0)
(0.000263734 -0.000101592 0)
(0.000493674 -0.000133146 0)
(0.00045097 1.03878e-05 0)
(0.00039777 2.85932e-05 0)
(0.000441366 9.91249e-06 0)
(0.000401174 3.01e-05 0)
(0.000443648 3.13713e-06 0)
(0.000298646 -1.70177e-05 0)
(0.000382466 3.37419e-05 0)
(0.000470498 1.23154e-05 0)
(0.000422005 2.50941e-05 0)
(0.000440454 1.97282e-05 0)
(8.81215e-05 -0.000474792 0)
(0.000410349 3.50589e-05 0)
(0.00043274 1.94747e-05 0)
(0.000411518 2.91989e-05 0)
(0.000409873 2.89925e-05 0)
(0.000411119 -0.000353453 0)
(0.000469151 2.26653e-05 0)
(0.000485954 9.89235e-06 0)
(0.000513683 2.78147e-07 0)
(0.000525928 -1.51118e-05 0)
(0.000488019 9.51373e-07 0)
(0.000530245 -4.05993e-05 0)
(0.000412992 3.34806e-05 0)
(0.000453025 2.21745e-05 0)
(0.000331245 2.28489e-05 0)
(0.000153278 -0.000251008 0)
(0.000369644 3.43197e-05 0)
(0.000447791 7.3912e-06 0)
(0.000398779 2.83907e-05 0)
(0.000534263 -9.36276e-05 0)
(0.000459106 8.37192e-06 0)
(0.000392959 2.96316e-05 0)
(0.000495714 8.57895e-06 0)
(0.00038861 1.03004e-06 0)
(0.000424242 2.25911e-05 0)
(0.000372697 -0.000124301 0)
(0.000294088 1.83537e-06 0)
(0.00052548 -0.000206709 0)
(0.000430745 2.09872e-05 0)
(0.000414808 3.05849e-05 0)
(0.000440485 2.33774e-05 0)
(0.000502135 5.26645e-06 0)
(0.000476877 1.90899e-05 0)
(0.000468523 -4.7544e-05 0)
(0.000425893 2.46219e-05 0)
(0.000230446 -5.92345e-05 0)
(0.000380752 3.11302e-05 0)
(0.000135729 -0.000521719 0)
(0.000385705 3.04542e-05 0)
(0.000467096 5.84547e-06 0)
(0.000426127 3.42784e-05 0)
(0.000392322 3.7332e-05 0)
(0.000445665 2.95295e-05 0)
(0.000536556 -6.82764e-05 0)
(0.000417117 2.60221e-05 0)
(0.000405801 3.20691e-05 0)
(0.000436124 1.61204e-05 0)
(0.00032276 -4.12027e-05 0)
(0.000345217 2.93174e-05 0)
(0.000512415 -1.95889e-05 0)
(0.000430404 2.3599e-05 0)
(0.000440984 6.96226e-06 0)
(0.000398918 3.26551e-05 0)
(0.00042464 3.05872e-05 0)
(0.000417215 2.87892e-05 0)
(0.000522303 -5.48087e-06 0)
(0.000458891 2.6639e-05 0)
(0.00038655 3.66661e-05 0)
(0.000398509 3.54872e-05 0)
(0.000482434 6.94962e-06 0)
(0.000476122 1.5185e-05 0)
(0.00044875 1.57892e-05 0)
(0.000459175 1.71592e-05 0)
(0.000443655 1.57092e-05 0)
(0.00043737 3.10844e-05 0)
(0.000418197 3.59344e-05 0)
(0.000419716 2.72866e-05 0)
(0.000406902 2.87959e-05 0)
(0.000438357 1.52849e-05 0)
(0.000161946 -0.000169713 0)
(6.69712e-05 -0.000364339 0)
(0.000555047 -0.000140038 0)
(0.00040492 2.82776e-05 0)
(0.000455914 4.50596e-06 0)
(0.000485672 -9.56179e-06 0)
(0.000392981 2.77724e-05 0)
(0.000250139 -2.48734e-05 0)
(0.000400581 3.01455e-05 0)
(0.000477291 1.45202e-05 0)
(0.000445328 5.45651e-06 0)
(0.000397561 2.91989e-05 0)
(0.000440254 2.60346e-05 0)
(0.000413704 2.70868e-05 0)
(0.000428433 -0.00017088 0)
(0.000253931 -0.000184957 0)
(0.000440113 -1.77285e-05 0)
(1.50125e-05 -0.000570337 0)
(0.000371117 3.20726e-05 0)
(0.000439591 -7.48916e-05 0)
(0.000529304 -3.39585e-05 0)
(0.000429766 2.11183e-05 0)
(0.000460895 1.12752e-05 0)
(0.000435722 1.99691e-05 0)
(0.00065344 -0.000270444 0)
(0.000235375 -0.000355957 0)
(0.000338512 5.84834e-06 0)
(0.000392411 3.3351e-05 0)
(0.000445351 1.21727e-05 0)
(0.000403407 2.81706e-05 0)
(0.00038673 -0.00029324 0)
(0.000493005 5.50625e-06 0)
(0.000508462 7.99249e-07 0)
(0.000511988 1.47576e-06 0)
(0.000524738 -1.50343e-05 0)
(0.000524688 -2.13891e-05 0)
(0.000352943 3.03164e-05 0)
(0.000425457 2.97349e-05 0)
(0.000475506 5.26883e-06 0)
(0.000519758 -7.99827e-06 0)
(0.000398782 -0.000233431 0)
(0.000415701 3.47053e-05 0)
(0.000430804 2.17539e-05 0)
(0.000411023 3.19547e-05 0)
(0.000395591 2.76229e-05 0)
(0.000499857 1.18054e-06 0)
(0.000451753 4.41938e-06 0)
(0.000211537 -0.000472136 0)
(0.000416091 2.69645e-05 0)
(4.58254e-05 -0.000572887 0)
(0.000536929 -5.93408e-05 0)
(0.000450635 2.56231e-05 0)
(0.000184 -0.00031481 0)
(0.000461502 1.21973e-05 0)
(0.000488676 1.22146e-05 0)
(0.000375479 3.66355e-05 0)
(0.000486636 1.48383e-05 0)
(0.000403626 1.79277e-05 0)
(0.000463068 1.9846e-05 0)
(0.000367357 -6.61682e-05 0)
(0.000458329 2.51721e-05 0)
(0.000302826 1.11193e-05 0)
(0.000505647 5.36565e-06 0)
(0.000403472 3.3288e-05 0)
(0.000525408 -7.58502e-06 0)
(0.00034913 -1.32648e-05 0)
(0.000330786 1.85273e-05 0)
(0.000411981 2.76178e-05 0)
(0.000401309 3.32098e-05 0)
(0.000438846 1.13564e-05 0)
(0.000591865 -0.000206258 0)
(0.000424045 2.37527e-05 0)
(0.000443498 1.11376e-05 0)
(0.000385682 3.5488e-05 0)
(0.000376343 3.11376e-05 0)
(0.000505491 -8.71834e-05 0)
(0.000405629 3.11281e-05 0)
(0.000357413 2.97195e-05 0)
(0.000445503 1.97952e-05 0)
(0.000399967 2.83506e-05 0)
(0.000449538 2.07031e-05 0)
(0.000436958 2.2926e-05 0)
(0.00045395 2.83392e-05 0)
(0.000481848 -2.69949e-05 0)
(0.000361447 3.42898e-05 0)
(8.6614e-05 -0.000247349 0)
(0.000552272 -0.000110311 0)
(0.000525533 -4.03769e-05 0)
(0.000500996 7.64586e-06 0)
(1.53303e-05 -0.000492703 0)
(0.000167451 -0.000114074 0)
(0.000455025 1.27581e-05 0)
(0.000461063 3.66539e-06 0)
(0.000518604 -1.04895e-06 0)
(0.0003231 1.92612e-05 0)
(0.00039511 2.69024e-05 0)
(0.000389277 2.82635e-05 0)
(0.000421587 3.26087e-05 0)
(0.000428448 2.28491e-05 0)
(0.000393671 3.15215e-05 0)
(0.000510392 -6.04029e-05 0)
(0.00044305 3.93772e-06 0)
(0.000397076 3.09823e-05 0)
(0.000362004 3.02807e-05 0)
(0.00043449 1.84216e-05 0)
(0.000440661 3.6068e-06 0)
(0.000396866 3.39305e-05 0)
(0.000402901 3.1654e-05 0)
)
;

boundaryField
{
    back
    {
        type            empty;
    }
    front
    {
        type            empty;
    }
    down
    {
        type            symmetry;
    }
    right
    {
        type            calculated;
    }
    up
    {
        type            calculated;
    }
    left
    {
        type            symmetry;
    }
    hole
    {
        type            calculated;
    }
}


// ************************************************************************* //
