/*--------------------------------*- C++ -*----------------------------------*\
| =========                 |                                                 |
| \\      /  F ield         | OpenFOAM: The Open Source CFD Toolbox           |
|  \\    /   O peration     | Version:  v2012                                 |
|   \\  /    A nd           | Website:  www.openfoam.com                      |
|    \\/     M anipulation  |                                                 |
\*---------------------------------------------------------------------------*/
FoamFile
{
    version     2.0;
    format      ascii;
    class       volScalarField;
    location    "20";
    object      sigmaEq;
}
// * * * * * * * * * * * * * * * * * * * * * * * * * * * * * * * * * * * * * //

dimensions      [1 -1 -2 0 0 0 0];


internalField   nonuniform List<scalar> 
470
(
6.9797e+06
7.52924e+06
4.31832e+06
4.15923e+06
9.64788e+06
1.46129e+06
7.91891e+06
9.0038e+06
1.4195e+07
6.56964e+06
1.5336e+07
2.60533e+07
1.82068e+07
5.02745e+06
2.33136e+07
8.7729e+06
7.02744e+06
5.59477e+06
6.40393e+06
8.11356e+06
8.9485e+06
2.89482e+06
3.61701e+06
4.8303e+06
1.65309e+07
8.40871e+06
1.20093e+07
4.91512e+06
1.79366e+06
4.23986e+06
7.73423e+06
1.96202e+07
6.74823e+06
4.89173e+07
1.35196e+06
1.4606e+06
3.14813e+07
7.45545e+06
8.44435e+06
8.26623e+06
1.36797e+07
6.63124e+06
3.71842e+07
1.12534e+07
4.44044e+06
3.22783e+07
8.91575e+06
1.33653e+07
1.20054e+07
1.67599e+07
3.08805e+07
2.42698e+07
6.01775e+06
6.20301e+06
3.4279e+06
3.67564e+06
9.58e+06
1.40058e+07
1.07297e+07
4.30533e+06
7.14042e+06
1.68018e+07
1.9526e+07
2.65154e+07
3.51411e+07
3.11767e+07
8.28198e+06
3.14558e+06
8.0147e+06
1.01163e+07
6.93553e+06
7.65799e+06
2.57048e+07
9.7193e+06
2.01762e+07
2.85574e+06
5.96002e+06
6.43719e+06
1.06311e+07
6.1678e+07
1.28382e+07
3.72323e+07
4.81842e+06
1.00918e+07
1.43055e+07
2.65232e+06
2.14524e+07
3.91437e+07
3.13833e+07
1.41494e+07
3.31563e+07
2.48311e+07
8.86253e+06
6.76748e+06
2.21438e+07
2.39224e+07
9.17377e+06
7.72151e+06
9.92729e+06
2.73068e+06
4.3504e+06
1.30573e+07
2.8255e+07
4.09003e+06
4.13034e+06
1.28193e+06
2.03107e+06
9.2968e+06
1.46267e+07
5.06976e+07
5.23684e+07
5.56681e+07
3.35284e+06
459683
9.44201e+06
9.87664e+06
4.21483e+06
1.32468e+07
9.16205e+06
7.99285e+06
9.9506e+06
4.15354e+06
5.03742e+06
4.13344e+06
600490
1.00088e+07
1.11566e+07
4.03131e+06
1.53458e+07
4.54477e+06
8.80618e+06
9.12277e+06
9.60749e+06
4.84643e+06
1.86052e+06
2.86785e+06
9.02212e+06
2.66051e+07
3.2422e+07
858630
991821
1.67112e+07
3.86006e+06
5.98479e+06
5.69701e+06
8.26624e+06
4.35519e+06
1.42388e+07
5.72239e+06
1.74139e+07
6.7237e+06
4.51275e+06
8.11086e+06
3.39436e+06
7.82245e+07
9.932e+06
1.78048e+07
7.383e+06
7.33059e+06
5.69812e+06
4.86712e+07
1.71833e+07
2.78831e+07
2.02416e+07
3.79682e+07
9.09574e+06
1.21726e+07
1.82725e+07
1.01122e+07
1.20358e+07
1.00861e+07
4.19178e+06
3.94428e+06
5.25467e+06
5.12406e+06
6.7127e+06
5.96357e+06
1.94924e+06
1.28571e+07
9.93468e+06
1.15006e+07
3.05257e+07
8.16378e+06
8.79146e+06
8.63863e+06
1.71291e+07
3.17745e+06
3.07992e+06
4.11187e+07
4.95273e+06
2.05549e+06
7.81113e+06
8.84642e+06
7.70991e+06
6.6085e+06
6.2017e+06
3.59765e+06
4.82751e+06
4.07848e+06
1.58924e+08
7.21567e+06
6.19958e+06
1.61975e+08
1.38829e+07
7.28483e+06
6.91983e+06
8.10521e+06
7.29964e+06
1.53597e+07
1.60144e+07
4.09174e+06
5.41338e+06
1.2614e+07
5.37821e+06
1.32129e+07
1.28652e+07
5.51146e+06
8.38352e+06
5.70651e+06
1.17469e+07
9.26471e+06
8.10913e+06
3.45471e+06
5.47543e+06
1.23807e+07
2.53787e+06
1.33065e+07
5.59189e+06
5.42394e+07
3.86327e+07
1.45764e+07
5.83634e+06
4.89693e+06
172447
5.75707e+06
8.11504e+06
2.42151e+07
1.57677e+06
1.05745e+06
4.16244e+06
3.73816e+06
3.86463e+06
994677
5.45722e+07
4.94591e+07
5.25879e+07
2.99271e+07
2.4985e+06
6.66559e+06
4.49026e+06
4.00414e+06
5.07358e+06
4.46156e+06
255817
1.05677e+07
8.2918e+06
7.17317e+06
4.40361e+06
639939
7.81991e+06
9.31272e+06
3.2237e+07
4.72057e+06
2.43452e+07
7.24968e+06
4.48002e+06
588708
5.3738e+06
7.49468e+06
6.00984e+06
2.19899e+06
1.81896e+07
2.76408e+07
1.45835e+07
4.37298e+07
1.93098e+07
2.59728e+07
7.3567e+06
1.82745e+07
4.00548e+06
7.5187e+06
1.12922e+07
8.79957e+06
1.11655e+07
4.26395e+06
4.1981e+06
6.56329e+06
3.83543e+07
5.36067e+06
7.39453e+06
2.09427e+07
1.3098e+07
5.99376e+06
1.34584e+07
1.24845e+07
6.11224e+06
5.15428e+06
1.0494e+06
1.31607e+07
4.80387e+06
3.54356e+06
3.22545e+07
2.19836e+06
1.89482e+06
4.84603e+07
1.02152e+07
3.19669e+06
4.6136e+06
6.98542e+06
8.81007e+06
2.03461e+07
1.3999e+07
1.12078e+08
6.49253e+06
1.02079e+07
2.1934e+07
1.24041e+07
4.90449e+06
1.51635e+07
7.34571e+06
9.24033e+06
7.05253e+06
6.70591e+06
4.87033e+06
1.12491e+07
5.69745e+06
2.90431e+06
9.77027e+06
8.10987e+06
9.81961e+06
8.79654e+06
1.06336e+07
1.04656e+07
1.17884e+07
7.41782e+06
1.04904e+07
8.05085e+06
6.25342e+06
3.57804e+07
2.85339e+06
6.77701e+06
3.55574e+07
1.1702e+07
5.77267e+06
5.18428e+06
7.88827e+06
4.16763e+07
5.93557e+06
4.81518e+06
164124
7.21321e+06
9.22621e+06
9.56436e+06
6.81506e+06
3.52307e+07
4.99404e+06
3.62049e+07
8.19041e+06
4.76983e+06
4.93849e+06
4.84825e+06
3.46659e+06
1.09401e+06
7.92771e+06
6.08312e+07
289240
6.73427e+06
3.92337e+07
3.72576e+06
149241
8.93865e+06
1.00864e+07
4.06274e+07
4.32111e+06
1.87281e+07
2.30614e+07
7.11338e+06
2.48146e+06
8.71491e+07
1.518e+07
1.17619e+07
3.04509e+07
1.80974e+07
3.93862e+06
5.15923e+06
1.45366e+08
4.34904e+07
5.14736e+07
7.84247e+06
6.28311e+06
1.99794e+07
5.15078e+06
1.98548e+06
4.25457e+07
3.23405e+06
6.23311e+06
4.71834e+06
204116
1.89156e+07
6.38394e+06
1.74924e+07
4.43868e+07
5.27174e+06
5.44205e+06
1.95863e+07
3.62119e+07
1.12001e+07
2.93313e+06
4.88841e+06
4.60126e+06
38140.3
181341
5.94777e+06
3.44312e+06
1.17742e+07
4.27283e+07
3.95364e+06
6.70668e+06
4.32928e+07
6.42695e+06
1.0152e+07
7.50389e+06
6.42142e+06
4.29519e+06
5.48884e+06
6.05544e+07
4.79724e+07
1.19993e+07
1.68296e+07
3.16586e+07
1.73658e+07
1.43044e+07
1.20858e+07
1.1476e+07
8.90069e+06
7.95469e+06
4.31242e+06
620056
2.67939e+06
1.2674e+07
1.35277e+07
1.73523e+07
4.51148e+06
1.78643e+07
9.45172e+06
1.54645e+07
1.20168e+07
2.40837e+06
6.14381e+06
3.38503e+06
6.32997e+06
1.17918e+07
1.06486e+07
4.64921e+06
4.61777e+06
6.89326e+06
1.23281e+07
1.08315e+07
8.87794e+06
7.46349e+06
8.66995e+06
1.03137e+07
7.79993e+06
1.01058e+07
1.25836e+07
9.62904e+06
6.90805e+06
6.71887e+06
1.11423e+07
1.31501e+07
)
;

boundaryField
{
    back
    {
        type            empty;
    }
    front
    {
        type            empty;
    }
    down
    {
        type            symmetry;
    }
    right
    {
        type            calculated;
        value           nonuniform List<scalar> 10(2.72334e+06 4.04425e+06 686386 1.87261e+06 4.36672e+06 309313 3.49303e+06 1.07169e+06 4.55216e+06 175928);
    }
    up
    {
        type            calculated;
        value           nonuniform List<scalar> 
20
(
2.0082e+07
4.69457e+06
3.21151e+07
1.06891e+07
552631
1.57262e+07
2.87942e+07
1.92951e+07
2.23132e+06
2.81628e+07
1.22785e+06
9.54233e+06
3.57982e+07
1.14829e+07
6.65897e+06
3.17542e+07
1.79583e+07
238388
40354.8
3.68854e+06
)
;
    }
    left
    {
        type            symmetry;
    }
    hole
    {
        type            calculated;
        value           nonuniform List<scalar> 8(4.31102e+07 1.82503e+07 1.68163e+08 1.61289e+07 3.28673e+07 1.06432e+08 6.49098e+07 2.24027e+07);
    }
}


// ************************************************************************* //
