/*--------------------------------*- C++ -*----------------------------------*\
| =========                 |                                                 |
| \\      /  F ield         | OpenFOAM: The Open Source CFD Toolbox           |
|  \\    /   O peration     | Version:  v2012                                 |
|   \\  /    A nd           | Website:  www.openfoam.com                      |
|    \\/     M anipulation  |                                                 |
\*---------------------------------------------------------------------------*/
FoamFile
{
    version     2.0;
    format      ascii;
    class       volSymmTensorField;
    location    "20";
    object      sigma;
}
// * * * * * * * * * * * * * * * * * * * * * * * * * * * * * * * * * * * * * //

dimensions      [1 -1 -2 0 0 0 0];


internalField   nonuniform List<symmTensor> 
470
(
(-6.669e+06 -1.16566e+06 5.39262e-10 1.00341e+06 8.95873e-11 -2.13235e+06)
(-6.34753e+06 -816426 6.70777e-10 2.14781e+06 -4.21012e-10 -1.35046e+06)
(2.76203e+06 -2.12963e+06 1.07943e-11 325143 4.20443e-11 776724)
(-1.12281e+06 -357150 1.53907e-10 3.62119e+06 1.07294e-10 1.05575e+06)
(-7.23783e+06 -3.01129e+06 7.83779e-10 2.06861e+06 -2.65408e-10 -1.62509e+06)
(964540 -674358 -1.82837e-10 444309 -1.72647e-10 -49304.7)
(-1.89484e+06 -3.71852e+06 -4.44491e-11 3.30327e+06 -2.74792e-11 -276424)
(-8.39898e+06 -1.87674e+06 -1.1802e-09 1.03738e+06 5.1553e-10 -1.75253e+06)
(1.0768e+07 -6.42712e+06 -7.57377e-10 961448 4.62146e-11 3.53083e+06)
(1.62305e+06 -3.78401e+06 -4.53569e-10 1.13509e+06 1.63917e-10 1.21948e+06)
(7.07239e+06 -8.41738e+06 4.64662e-10 1.9686e+06 3.39295e-10 2.75982e+06)
(2.09033e+07 -8.47574e+06 -4.52088e-09 -3.94934e+06 -1.45855e-09 8.3273e+06)
(1.82276e+07 -5.92622e+06 -2.34327e-09 1.46113e+06 -9.20908e-10 5.93405e+06)
(-1.75313e+06 -1.08467e+06 1.39008e-10 3.63122e+06 -3.48801e-10 890769)
(2.59194e+07 -2.07784e+06 1.2361e-09 743999 5.35955e-10 5.90037e+06)
(6.72104e+06 -4.02113e+06 -2.29343e-10 888962 -2.33396e-10 2.0888e+06)
(1.52715e+06 -3.98124e+06 8.11281e-10 2.00548e+06 -1.51723e-10 476881)
(-2.24122e+06 -1.21121e+06 -3.19179e-10 3.70517e+06 3.79476e-10 114910)
(-3.74887e+06 -480389 3.66456e-10 3.58297e+06 6.71224e-12 -50849.1)
(-6.98049e+06 -1.26381e+06 6.14155e-10 1.93364e+06 5.87786e-11 -1.32266e+06)
(7.71043e+06 -3.50864e+06 7.96505e-10 370163 2.0832e-10 2.3867e+06)
(-52410.3 -1.13757e+06 2.24473e-10 2.3773e+06 -1.06084e-10 897513)
(2.49715e+06 -1.72424e+06 -1.75206e-10 178704 -1.98047e-11 974199)
(-1.09213e+06 -1.26854e+06 1.39598e-10 3.75139e+06 -2.93709e-10 375976)
(-5.07656e+06 -8.90062e+06 -2.35296e-09 526574 -1.56911e-10 1.19798e+06)
(-2.99862e+06 -3.84526e+06 -4.75413e-10 2.87417e+06 -3.55379e-11 631457)
(-2.52889e+06 -6.86496e+06 -3.37666e-10 -609669 -1.00514e-10 -1.29161e+06)
(4.80126e+06 -1.27344e+06 5.69367e-10 -146003 1.1537e-10 1.35972e+06)
(893127 -994120 -8.27237e-11 380713 -6.51911e-12 401385)
(-1.15365e+06 -531457 2.00296e-11 3.5775e+06 1.14431e-10 627746)
(-6.39789e+06 -902546 -4.74713e-10 2.30152e+06 2.99456e-10 -1.26414e+06)
(2.27321e+07 -889611 0 446460 0 8.41257e+06)
(2.40658e+06 -3.81576e+06 -5.22287e-10 1.12193e+06 6.68292e-11 976321)
(-5.45146e+07 -6.78415e+06 3.10646e-09 -1.12031e+07 -1.98461e-09 -3.73992e+06)
(1.02961e+06 -382425 -4.73624e-12 -220801 -8.27116e-11 869585)
(768299 -783637 1.96528e-10 320893 -3.5794e-11 169157)
(3.35225e+07 -5.82339e+06 2.42834e-10 414188 6.73838e-11 8.76963e+06)
(-5.44893e+06 -1.73137e+06 -2.6128e-10 2.4282e+06 3.24559e-10 -1.27814e+06)
(-6.20922e+06 -1.3836e+06 2.60761e-10 2.93171e+06 -3.33758e-10 63162.7)
(-7.96792e+06 -1.00119e+06 2.07652e-11 1.10103e+06 -4.05289e-11 -1.52584e+06)
(-5.2768e+06 -6.86856e+06 -1.37681e-09 2.49253e+06 5.693e-10 -816096)
(-4.141e+06 -271138 3.0687e-10 3.49618e+06 -6.45605e-10 -411305)
(3.17133e+07 -2.63551e+06 3.9614e-09 -9.45826e+06 3.68402e-09 1.61405e+06)
(-3.80005e+06 -5.64482e+06 1.84072e-10 2.58516e+06 2.34024e-10 -1.29264e+06)
(5.22901e+06 -148157 0 231134 0 1.77216e+06)
(2.79657e+07 -2.80593e+06 5.69315e-09 -8.87636e+06 8.69479e-09 9.02488e+06)
(-5.04257e+06 -3.02649e+06 -7.15944e-10 3.27125e+06 3.19989e-10 -1.30032e+06)
(-3.00275e+06 -7.17341e+06 -7.68374e-10 2.6768e+06 5.83803e-10 93358)
(-2.04696e+06 -6.60316e+06 -5.22359e-10 2.12852e+06 -2.85048e-10 -458000)
(3.03254e+06 -9.64869e+06 2.03073e-09 1.99022e+06 2.32924e-10 1.62443e+06)
(3.57061e+07 -1.77044e+06 4.9929e-09 1.25804e+06 1.38531e-09 1.11202e+07)
(-3.25544e+07 3.16058e+06 0 -6.04797e+06 0 -2.49679e+07)
(-2.74442e+06 -1.59722e+06 -1.62987e-10 3.41971e+06 -2.76604e-11 588034)
(-3.28853e+06 -899440 -2.99546e-11 3.63e+06 8.29798e-10 -217639)
(-188858 -1.17417e+06 0 2.97562e+06 0 1.07095e+06)
(-90677 -1.48729e+06 -6.88484e-11 2.83775e+06 6.14748e-11 708349)
(2.42872e+06 1.67097e+06 -2.06893e-09 5.65418e+06 -1.00121e-10 1.27361e+07)
(1.2177e+07 4.58922e+06 1.82978e-10 -796593 1.9284e-09 3.09335e+06)
(-812433 -5.94992e+06 1.59953e-10 2.63469e+06 -2.05798e-11 816119)
(3.7953e+06 -1.51721e+06 1.28084e-11 -137682 1.46185e-12 1.65911e+06)
(-1.28931e+06 -3.63427e+06 3.08229e-10 2.60011e+06 -1.80856e-10 528648)
(4.06359e+06 -9.36525e+06 1.41863e-09 1.22884e+06 6.20818e-10 -980169)
(1.57482e+07 -8.55081e+06 6.1138e-09 1.32192e+06 1.13873e-09 6.12052e+06)
(1.32919e+07 -1.01419e+07 -3.27562e-09 -8.12519e+06 -2.49934e-09 -4.52112e+06)
(-3.0103e+07 1.73632e+07 -2.55017e-09 -1.44263e+07 4.42549e-09 -1.01763e+07)
(2.44743e+07 -979911 7.20399e-11 -41298.3 -8.72435e-09 3.49837e+07)
(-6.2802e+06 -2.17011e+06 1.53684e-09 2.09078e+06 -6.23738e-10 -713383)
(207078 -1.4933e+06 1.62418e-10 2.13147e+06 -8.49045e-11 515560)
(-1.10111e+07 2.69211e+06 -1.0184e-09 -4.96149e+06 1.40539e-09 -4.10754e+06)
(3.88992e+06 -5.6896e+06 -7.60227e-10 1.40598e+06 -5.29418e-11 1.8751e+06)
(-7.82891e+06 -443499 6.31019e-10 -165015 1.57025e-10 -2.13685e+06)
(447220 -4.37936e+06 -2.42436e-10 1.65233e+06 8.32744e-11 1.18881e+06)
(-1.34954e+07 -1.46526e+07 4.39747e-09 -1.13292e+07 4.81356e-09 -8.78976e+06)
(-1.60132e+06 -5.14654e+06 0 2.81102e+06 0 -29625.8)
(-3.08697e+06 -8.03919e+06 -4.2825e-09 -1.68832e+07 1.35086e-09 -1.59219e+06)
(-100610 -199139 -1.07728e-10 3.10894e+06 4.21592e-10 947052)
(944291 -3.38907e+06 -5.36528e-10 1.71357e+06 8.59936e-11 541171)
(100735 -3.61186e+06 -2.56743e-10 1.85105e+06 5.40419e-12 920831)
(-1.10063e+06 -5.81987e+06 6.68482e-10 2.66017e+06 -1.04994e-10 -114302)
(8.57835e+07 -1.17333e+07 3.85321e-10 3.07909e+07 6.89752e-10 2.47756e+07)
(-3.34271e+06 -6.67142e+06 -2.40458e-10 3.11102e+06 -1.91474e-10 123316)
(1.73225e+07 -1.82889e+07 2.229e-09 -5.26232e+06 -1.71812e-09 5.54002e+06)
(2.80025e+06 -2.51027e+06 3.37089e-10 433387 1.9134e-10 1.28333e+06)
(-1.16708e+07 4.73523e+06 2.14571e-10 -5.81652e+06 -3.34716e-10 -5.765e+06)
(6.08206e+06 -7.97587e+06 7.78506e-10 2.04549e+06 4.96334e-11 2.80588e+06)
(153966 -820520 1.68458e-10 2.59053e+06 -1.24772e-10 622325)
(7.21824e+06 -8.31976e+06 -7.34749e-09 -9.36332e+06 -6.43621e-09 5.73485e+06)
(-2.80924e+07 2.17238e+07 -7.08801e-10 -2.28408e+07 8.01842e-10 -1.56802e+07)
(2.32769e+07 332626 3.97744e-09 -1.29141e+07 5.236e-11 3.68549e+06)
(-1.40327e+07 -6.99729e+06 4.31961e-09 -7.58935e+06 -2.87738e-10 -6.10119e+06)
(1.36179e+07 -8.33544e+06 -6.72995e-09 -2.06057e+07 -2.50591e-09 35736.8)
(2.42225e+07 -7.87247e+06 -6.37833e-09 631534 -3.51229e-09 8.78594e+06)
(-1.60915e+06 -4.69326e+06 9.64143e-11 2.44718e+06 6.11181e-11 770996)
(373760 -3.81589e+06 -4.03779e-10 1.89374e+06 2.40222e-10 514992)
(2.31411e+07 -5.32201e+06 4.0524e-09 700641 1.21734e-09 6.65817e+06)
(2.61235e+07 -4.47464e+06 -1.9649e-09 372956 -2.23789e-10 9.38898e+06)
(-5.50086e+06 -3.2199e+06 3.5619e-10 2.75252e+06 1.3067e-10 28026.6)
(-862621 -4.06449e+06 4.40403e-10 2.72234e+06 -1.9601e-10 279843)
(-5.97722e+06 -3.89349e+06 8.98838e-10 2.42757e+06 -4.80024e-10 -1.47028e+06)
(1.54503e+06 -1.45065e+06 4.61e-10 350749 1.15451e-10 676361)
(-529348 -1.77564e+06 -3.12553e-10 3.00038e+06 1.17334e-10 884766)
(3.30619e+06 -7.4719e+06 -1.54175e-09 2.08034e+06 -3.11586e-11 1.32267e+06)
(-1.62751e+07 -1.56145e+07 0 -1.22098e+07 0 -2.16255e+07)
(-228069 -1.0276e+06 4.0495e-11 3.90671e+06 -4.66646e-11 980129)
(-316257 -1.10433e+06 1.80992e-11 3.88826e+06 9.48804e-11 1.40834e+06)
(480730 -652198 8.74237e-11 791539 -1.10294e-10 93181.9)
(275145 -1.09747e+06 -1.31959e-10 1.04772e+06 9.00898e-11 407955)
(-5.0356e+06 -3.85505e+06 1.83032e-11 2.43254e+06 -5.36917e-11 -1.17314e+06)
(-5.01551e+06 5.30758e+06 -4.73759e-11 -1.62759e+07 -2.32025e-10 -4.78638e+06)
(-4.81051e+07 -1.37501e+07 -4.5671e-09 -1.77632e+06 2.33092e-09 -5.10926e+06)
(3.6627e+07 1.35552e+06 4.58714e-09 -2.35625e+07 1.10056e-09 1.09888e+07)
(-8.17644e+06 -2.96902e+07 6.00168e-09 -2.37293e+07 1.9897e-09 569634)
(-87367.7 -677692 6.13964e-11 3.45816e+06 -4.4056e-11 1.02534e+06)
(593472 -74296.3 3.06421e-12 89284.2 -3.60918e-12 277388)
(-1.13245e+07 1.30788e+06 -7.20038e-10 -941926 1.0277e-09 -4.35232e+06)
(756838 -5.64586e+06 -7.15207e-11 2.22048e+06 1.02046e-11 928406)
(-895436 -258600 -2.61152e-11 3.90911e+06 3.73741e-10 1.00534e+06)
(1.46684e+07 -2.25636e+06 -6.77384e-10 321810 -3.31957e-10 5.07936e+06)
(-3.46845e+06 -4.02354e+06 6.27413e-10 3.33613e+06 -2.60171e-10 -872211)
(-6.21964e+06 27217.8 8.34028e-11 2.98288e+06 -2.23009e-10 -1.01125e+06)
(-3.46267e+06 -4.7644e+06 -6.13579e-10 2.94099e+06 1.24044e-10 140214)
(-628348 -1.37217e+06 -1.80512e-10 3.30077e+06 8.27256e-11 1.1786e+06)
(-1.89355e+06 -765852 -1.49854e-10 3.69185e+06 -2.31701e-10 431732)
(-74198.8 -139206 3.64112e-11 4.58804e+06 -2.00188e-10 1.40555e+06)
(183850 -166598 6.97447e-12 675278 2.23332e-10 119406)
(2.1193e+06 -5.75288e+06 -5.46749e-10 2.13625e+06 7.04154e-11 1.18471e+06)
(1.88224e+06 -6.42503e+06 -6.43287e-10 1.97417e+06 6.1521e-11 1.1403e+06)
(-82931.6 -1.78323e+06 5.25438e-10 2.77227e+06 -2.54144e-10 571604)
(1.71971e+07 -821143 -2.00736e-09 439090 -4.54064e-10 4.03826e+06)
(-652317 -1.49414e+06 3.01899e-10 3.56021e+06 -1.45438e-10 648623)
(-7.54653e+06 -2.07956e+06 3.5549e-11 1.46679e+06 2.45067e-11 -1.13066e+06)
(-6.56554e+06 -2.85197e+06 8.15972e-11 2.25871e+06 -2.8729e-11 -1.50281e+06)
(-2.33826e+06 -4.79601e+06 -4.91442e-10 3.20844e+06 1.21363e-10 -38685.1)
(-467916 -2.16346e+06 -6.71089e-10 2.99001e+06 4.59808e-10 569502)
(44497.2 -213551 -7.17305e-11 2.09449e+06 -2.39892e-11 653710)
(2.10911e+06 -1.3007e+06 1.22734e-10 145909 -6.98705e-11 619105)
(-380577 -4.95507e+06 7.99359e-11 2.72316e+06 -2.16383e-11 453195)
(-2.79154e+07 1.05489e+07 -1.37128e-09 -5.9869e+06 7.31493e-10 -1.32976e+07)
(3.3548e+07 -3.70152e+06 2.8893e-09 -717847 9.76764e-10 5.03673e+06)
(391014 -452231 5.25986e-11 132286 7.64253e-11 -9461.42)
(258755 -499419 2.52398e-11 -59501.9 -4.65976e-11 498981)
(-9.23247e+06 -8.90228e+06 0 -2.38687e+06 0 -3.28673e+06)
(-168768 -1.83718e+06 -3.07487e-10 2.33903e+06 1.76301e-10 845124)
(-8194.52 -3.21881e+06 1.72916e-10 2.3415e+06 -6.3638e-11 395460)
(-62256.5 -3.09337e+06 -2.16619e-10 2.13994e+06 4.32638e-12 704264)
(-6.36266e+06 -1.77309e+06 -5.09661e-10 2.44604e+06 -1.19227e-10 -1.11912e+06)
(-174795 -663006 1.33675e-10 4.56605e+06 1.92126e-11 1.30555e+06)
(3.59385e+06 -8.07728e+06 1.96984e-09 552027 -8.25775e-11 2.34789e+06)
(-649381 -2.77183e+06 -3.70407e-10 2.84585e+06 -4.28281e-11 367358)
(6.42392e+06 -9.31572e+06 -9.03335e-11 -927106 1.14631e-09 4.28723e+06)
(-3.97352e+06 -1.09182e+06 6.39424e-10 3.44448e+06 -9.72117e-11 337075)
(-577348 -543386 6.55596e-11 4.45433e+06 2.26108e-11 1.23795e+06)
(-1.03633e+07 334687 5.0895e-10 -1.5619e+06 -4.89663e-10 -3.25124e+06)
(46982.2 -828351 2.29493e-10 3.43888e+06 -3.1218e-10 829433)
(-8.93331e+07 3.62264e+06 -6.79184e-09 -5.86272e+06 1.32528e-09 -1.83707e+07)
(5.78145e+06 -5.21101e+06 -2.6115e-10 1.57572e+06 5.27884e-11 1.70001e+06)
(-2.09952e+06 5.64463e+06 -2.8579e-10 -1.89364e+07 7.56188e-10 -7.54903e+06)
(-2.17868e+06 -3.45532e+06 -8.91735e-10 2.80941e+06 3.27523e-10 141788)
(-2.16795e+06 -3.31483e+06 -1.37645e-10 3.09141e+06 2.84478e-10 295535)
(1.44655e+06 -3.26545e+06 4.18734e-10 1.42527e+06 -1.72439e-10 743978)
(-5.83715e+07 -7.43564e+06 -2.01936e-09 -4.72634e+06 1.47167e-09 -2.48655e+07)
(1.57683e+07 -6.41065e+06 -1.92697e-09 1.23157e+06 -9.78347e-10 4.82739e+06)
(3.15494e+07 617544 5.13778e-09 906057 1.46494e-10 7.7386e+06)
(2.18064e+07 -283640 0 -888510 0 5.64388e+06)
(5.81565e+07 1.26474e+07 2.2879e-09 2.31541e+07 2.50063e-09 3.41102e+07)
(-1.20992e+07 387431 -2.74681e-10 -1.73679e+06 5.27526e-10 -5.5963e+06)
(-1.31217e+07 -429840 -1.06751e-09 403067 1.38665e-09 -3.12998e+06)
(1.87944e+07 -3.03158e+06 7.75841e-10 -1.14191e+06 3.97636e-10 5.95923e+06)
(-1.00644e+06 -5.56678e+06 5.4627e-10 2.51227e+06 -7.49675e-11 696226)
(-9.72919e+06 -3.82503e+06 1.0724e-09 1.24188e+06 6.06954e-11 -973326)
(-9.0197e+06 -3.04847e+06 1.83355e-09 822952 -9.80879e-10 -3.00662e+06)
(340699 -2.32185e+06 -5.61474e-11 1.65154e+06 8.60652e-11 665578)
(333257 -2.17643e+06 3.44822e-10 1.59618e+06 -1.2163e-10 576668)
(537526 -2.99669e+06 2.60575e-10 1.474e+06 -1.2582e-11 890482)
(462991 -2.85706e+06 -2.88307e-10 1.8185e+06 2.47514e-12 516663)
(-722045 -3.49106e+06 -5.20084e-10 2.56368e+06 5.27874e-10 287731)
(-3.0746e+06 -693201 -8.44341e-11 3.67026e+06 -1.1859e-10 350245)
(-7.07083e+06 310831 0 -5.39065e+06 0 -5.05072e+06)
(-1.0443e+07 -4.66585e+06 2.07912e-09 542314 1.29119e-09 -1.87053e+06)
(-8.63283e+06 -2.64432e+06 6.09769e-11 1.30343e+06 -2.78639e-13 -1.74804e+06)
(-6.80286e+06 -4.64037e+06 -9.18474e-10 2.6803e+06 8.85383e-10 -1.59652e+06)
(3.06337e+07 -6.25957e+06 4.90796e-09 -1.39257e+06 8.37335e-10 7.91154e+06)
(10938.7 -4.62378e+06 -3.63688e-10 1.83791e+06 -6.37834e-11 1.00123e+06)
(3.7679e+06 -4.89239e+06 -3.68664e-10 1.58275e+06 -2.27295e-11 1.2962e+06)
(4.92555e+06 -4.46865e+06 9.20892e-11 547821 -7.41418e-11 2.14851e+06)
(1.32047e+07 -7.48962e+06 1.64989e-09 894625 2.44125e-10 3.66316e+06)
(917005 -1.83196e+06 1.23169e-10 762304 -4.01083e-11 739305)
(-6.85311e+06 522985 0 -6.10791e+06 0 -3.60843e+06)
(3.81351e+07 8.2039e+06 -1.193e-09 -6.07527e+06 6.5161e-09 1.12427e+07)
(-1.36415e+06 -1.52242e+06 -2.12834e-10 3.45315e+06 4.88566e-10 630476)
(436865 -1.18158e+06 -1.31161e-10 657579 2.90778e-11 557081)
(-3.52527e+06 -3.02666e+06 3.70326e-10 3.15597e+06 3.30538e-11 44355.4)
(2.18926e+06 -5.09147e+06 0 1.53539e+06 0 1.4509e+06)
(2.0067e+06 -4.40157e+06 2.70057e-10 1.80876e+06 3.73273e-13 771063)
(-7.3996e+06 -835990 0 -131937 0 -2.36523e+06)
(-2.76212e+06 -1.91572e+06 2.81929e-10 3.27949e+06 -7.98121e-11 -15677.6)
(3.29206e+06 -1.26578e+06 -2.40628e-10 137222 1.2172e-10 895049)
(1.59681e+06 -2.75428e+06 -1.89663e-10 829234 -3.62466e-11 889334)
(2.04851e+06 -2.20165e+06 4.28673e-10 798082 -2.55278e-11 464354)
(-1.55925e+08 1.52317e+07 1.60435e-08 -2.54265e+06 -2.13302e-09 3.92926e+06)
(-7.32903e+06 -207785 -5.90785e-10 897195 2.07739e-10 -2.12815e+06)
(-7.79864e+06 35046.2 -1.17092e-11 -938218 9.77931e-11 -2.59866e+06)
(-1.44757e+08 3.13517e+06 2.2919e-08 65733.3 2.63407e-09 3.0008e+07)
(-1.76274e+07 4.60519e+06 1.61186e-09 -5.82654e+06 9.77177e-11 -6.76041e+06)
(4.66823e+06 -3.62371e+06 -1.09502e-11 498973 1.11756e-10 1.78494e+06)
(6.48042e+06 -2.44177e+06 -7.1921e-11 710402 -6.6375e-11 1.35318e+06)
(-5.4889e+06 -1.06428e+06 -8.49584e-10 3.55525e+06 7.51406e-11 7311.46)
(-3.99854e+06 -1.99557e+06 -5.75603e-10 3.42454e+06 2.24317e-10 -392924)
(-2.00595e+07 5.10847e+06 1.60937e-10 -6.50265e+06 1.80423e-12 -8.83259e+06)
(-268439 1.74754e+06 -3.78289e-11 -1.81472e+07 -5.51012e-10 -6.45798e+06)
(-309504 -1.80503e+06 -5.47063e-11 2.72462e+06 2.65516e-11 955446)
(2.85994e+06 -2.89945e+06 -1.98313e-10 680332 -6.22848e-11 1.04822e+06)
(-3.13859e+06 1.08758e+06 -5.38612e-11 -1.62994e+07 -8.33413e-10 -4.65343e+06)
(-2.16198e+06 -1.51184e+06 -2.1862e-10 3.26152e+06 5.19632e-11 463318)
(1.21157e+07 -4.83172e+06 -4.34844e-10 534340 -2.51409e-10 4.33757e+06)
(1.06862e+07 -5.31261e+06 1.04456e-09 781274 3.64231e-10 3.03889e+06)
(-576678 -2.76612e+06 7.19522e-10 2.55434e+06 -2.43191e-10 725017)
(-3.50196e+06 -3.19797e+06 7.68659e-10 3.73647e+06 -2.90896e-10 -436077)
(-1.63307e+06 -2.24142e+06 4.62438e-10 3.19069e+06 -2.65891e-10 576599)
(-1.02829e+07 -3.84545e+06 3.24372e-11 809913 -7.61278e-10 -3.5789e+06)
(-5.31841e+06 4.14898e+06 -1.48247e-11 -1.18139e+07 -5.42697e-10 -6.96952e+06)
(-6.51299e+06 -2.15371e+06 4.81789e-10 1.78951e+06 -4.42452e-11 -1.98232e+06)
(1.43523e+06 -1.91254e+06 -2.24185e-10 765496 1.95078e-10 309655)
(-1.5828e+06 -2.00597e+06 -1.58429e-10 3.28156e+06 1.32868e-10 446724)
(-1.07023e+07 -3.43005e+06 5.68589e-10 1.48686e+06 -2.02798e-09 -2.04732e+06)
(1.73841e+06 -1.1727e+06 -6.82941e-10 265769 6.29534e-12 172291)
(4.32103e+06 -7.53093e+06 -9.90608e-10 1.2876e+06 -3.08012e-10 2.92997e+06)
(-7.33493e+06 2.63547e+06 -6.97805e-11 -7.89706e+06 3.40955e-10 -4.42302e+06)
(5.44717e+07 7.41821e+06 3.31731e-09 -6.35733e+06 5.11278e-09 2.27576e+07)
(3.96108e+07 -5.15373e+06 -1.68573e-09 -2.84117e+06 -2.12501e-09 1.05631e+07)
(398086 -8.18667e+06 -6.9818e-10 3.38941e+06 -7.32522e-10 -273211)
(-8.97935e+06 2.81349e+06 1.63186e-10 -6.67128e+06 -8.20634e-10 -5.31131e+06)
(-283108 -92747.8 1.59107e-11 5.24498e+06 3.23191e-11 1.46394e+06)
(157952 -90297.8 9.59947e-11 125714 8.78507e-11 74769.7)
(4.85981e+06 -2.48543e+06 2.52635e-10 512017 1.43556e-10 2.02688e+06)
(-920130 -4.47497e+06 8.02291e-11 1.76282e+06 4.85667e-11 1.03704e+06)
(-1.81405e+07 1.34178e+07 -4.04187e-10 -1.44218e+07 2.06567e-09 -1.02907e+07)
(115206 -711419 0 1.20554e+06 0 384258)
(232309 -514306 -3.14282e-10 844414 3.94283e-11 329408)
(-261198 -469667 -1.06207e-10 4.36047e+06 1.29916e-10 1.24693e+06)
(-151120 -864130 0 3.75098e+06 0 1.23967e+06)
(71616.7 -411040 3.08652e-11 4.32752e+06 -5.86579e-11 1.28086e+06)
(71818.5 -543169 -5.55162e-11 393223 3.54254e-12 396251)
(4.4582e+07 -2.61936e+07 -2.96323e-09 1.16023e+07 4.5173e-09 1.78906e+07)
(4.46516e+07 -1.97432e+07 -1.16152e-09 1.36572e+07 -3.01512e-09 5.27411e+07)
(5.93347e+07 1.27646e+07 -3.82831e-09 6.56986e+06 -3.9313e-09 1.92193e+07)
(4.81783e+07 -1.5754e+06 4.38691e-09 1.66135e+07 1.9294e-09 2.05245e+07)
(180544 -1.15319e+06 -1.43538e-10 1.80563e+06 1.52033e-10 471281)
(-4.67547e+06 -739714 -4.02597e-10 2.79416e+06 -3.23602e-10 29915.2)
(948933 -2.58553e+06 -2.31794e-10 1.15215e+06 1.29587e-11 773783)
(954801 -2.28351e+06 1.70632e-10 1.18223e+06 -1.19248e-11 475995)
(4.12922e+06 -2.10679e+06 1.35335e-10 251833 -3.74974e-10 1.11818e+06)
(-80664.7 -121462 6.51981e-11 4.96189e+06 -2.10658e-10 1.55142e+06)
(69591.3 -39031.1 3.26606e-12 310273 1.25522e-10 57924.1)
(6.02853e+06 -5.58634e+06 5.61942e-10 1.2357e+06 6.6152e-11 2.72369e+06)
(-5.42994e+06 -1.1995e+06 3.26938e-11 3.82885e+06 1.77685e-10 -1.17958e+06)
(-3.58486e+06 -2.23964e+06 1.86566e-10 3.37857e+06 -2.13097e-10 -301596)
(147547 -378746 7.03968e-11 4.88212e+06 -1.61162e-10 1.04877e+06)
(-3572.82 -298912 1.6705e-11 345953 2.50193e-10 394464)
(-7.36416e+06 -199864 8.64371e-11 1.47595e+06 -5.16483e-10 -1.38828e+06)
(918120 -5.29921e+06 -4.79463e-10 2.37906e+06 4.08118e-11 709840)
(9.80602e+06 -1.18357e+07 -5.41885e-09 -1.37268e+07 -3.31531e-09 1.23093e+07)
(-7.3556e+06 325127 -1.77231e-10 -2.15892e+06 7.15315e-11 -3.44862e+06)
(-1.25614e+07 1.30036e+07 1.24308e-10 -1.8435e+07 -1.793e-09 -7.78236e+06)
(-4.32847e+06 -1.92918e+06 5.57626e-11 3.09853e+06 -2.08338e-10 -764916)
(-129689 -540490 1.24492e-10 4.77661e+06 -2.66414e-10 1.25561e+06)
(93932 -311732 -1.90826e-10 348425 1.23355e-11 140735)
(-2.46115e+06 -131569 -1.78837e-10 3.73564e+06 1.13133e-10 477059)
(-3.77411e+06 -2.52209e+06 0 3.2569e+06 0 -364108)
(6.28213e+06 -1.4541e+06 -3.43018e-10 168123 -1.40375e-10 1.90637e+06)
(2.48198e+06 -308939 9.70158e-11 88975.2 7.5007e-12 781136)
(-1.71266e+07 8.9129e+06 5.05844e-10 -1.00603e+07 -5.91454e-10 -6.17093e+06)
(3.13872e+07 -882547 -7.93724e-10 521685 -4.66624e-10 9.08664e+06)
(-1.76803e+07 4.85854e+06 0 -6.04451e+06 0 -5.51285e+06)
(4.21394e+07 1.55758e+07 2.92263e-09 6.44056e+06 4.69858e-09 9.1681e+06)
(-2.50729e+07 5.38382e+06 1.43018e-09 -5.88578e+06 -1.25835e-09 -1.23486e+07)
(-3.29687e+07 669379 -1.37757e-09 -6.64493e+06 1.85016e-09 -7.41579e+06)
(3.1946e+06 -4.08966e+06 -8.73688e-10 1.63641e+06 9.60701e-11 958072)
(1.05516e+07 -9.48706e+06 -7.83117e-10 1.73619e+06 1.63926e-10 3.76438e+06)
(285350 -2.02321e+06 -3.19866e-10 2.24667e+06 1.35038e-10 328678)
(558424 -4.20643e+06 -2.30911e-10 2.2969e+06 4.62721e-12 340522)
(5.9469e+06 -6.02922e+06 -3.39882e-10 1.49961e+06 1.26416e-10 1.81918e+06)
(-3.45106e+06 -4.01584e+06 6.6172e-10 2.72813e+06 -2.80001e-10 282407)
(2.78028e+06 -6.42964e+06 -2.14299e-10 2.02853e+06 6.46118e-11 1.93226e+06)
(-688434 -846422 -2.97873e-11 3.84117e+06 1.68046e-10 773900)
(-482223 -979961 -1.03931e-10 3.90448e+06 -1.10077e-10 1.1537e+06)
(6.40018e+06 -2.47721e+06 -5.82113e-10 783741 1.60259e-10 2.58761e+06)
(3.83511e+07 6.3465e+06 2.62162e-10 -1.3503e+06 1.22165e-09 5.53651e+06)
(-1.08606e+06 -2.39455e+06 -8.84047e-11 2.83434e+06 2.10991e-10 784074)
(-9.05589e+06 -607451 7.89529e-11 -881197 -7.16331e-11 -3.11034e+06)
(-2.06314e+07 1.03565e+07 2.03453e-09 -1.1894e+07 -3.14232e-09 -8.54443e+06)
(-1.35045e+07 6.86885e+06 -5.26115e-10 -7.38018e+06 1.08644e-09 -9.07e+06)
(-7.93654e+06 59410 -7.14036e-10 -1.39972e+06 3.84493e-10 -2.70167e+06)
(1.44923e+07 -2.38656e+06 1.5496e-09 525248 4.86267e-10 3.29791e+06)
(7.03841e+06 -6.54467e+06 3.60012e-10 1.06351e+06 5.43006e-11 3.28338e+06)
(-1.33336e+06 -2.76943e+06 3.43418e-10 3.0038e+06 -3.00326e-10 343252)
(-871146 -2.07486e+06 1.81973e-10 3.31796e+06 -2.30258e-10 523382)
(1.24431e+06 -303019 2.16716e-10 314512 1.22009e-11 358244)
(7.39607e+06 -6.81713e+06 -4.08121e-10 1.35183e+06 -3.8312e-11 1.8472e+06)
(-1.72443e+06 -63309.1 1.13079e-10 3.80504e+06 5.00475e-11 674434)
(47172.9 -1.85821e+06 2.77636e-10 1.75897e+06 -1.34481e-10 921305)
(-1.52897e+07 1.77589e+07 -7.2842e-10 -2.19793e+07 1.64359e-09 -1.08464e+07)
(-97437.7 -942493 -1.64331e-10 1.59958e+06 1.45898e-10 661602)
(-47388 -625771 6.48499e-12 1.72099e+06 -1.29255e-10 571865)
(3.20505e+07 -9.37239e+06 -9.90498e-09 -2.00873e+07 -3.68578e-09 1.27721e+07)
(-6.35311e+06 -3.8991e+06 1.48237e-09 2.37753e+06 -8.69035e-10 -733140)
(557336 -1.81398e+06 2.32886e-10 1.17825e+06 -4.09915e-11 626874)
(-48171.6 -2.42708e+06 -4.80287e-10 2.11055e+06 1.68687e-10 687437)
(-9.44361e+06 319278 6.66035e-10 -1.70115e+06 -9.79498e-10 -3.69331e+06)
(-9.76187e+06 -736883 8.26678e-10 79564.2 -4.26111e-10 -3.01142e+06)
(4.86837e+06 -1.11527e+07 5.6033e-10 -1.33317e+06 -1.6991e-10 -1.69205e+06)
(-1.70423e+07 -2.37198e+06 2.79397e-09 -2.51486e+06 -2.77139e-09 -5.21708e+06)
(-1.06288e+08 3.23397e+07 1.06518e-08 -2.4615e+07 -2.92232e-09 1.03963e+06)
(-695119 -3.3972e+06 1.44839e-10 2.46436e+06 8.85203e-11 676616)
(-1.1947e+07 4.87364e+06 -2.68263e-10 -5.79896e+06 -5.35613e-10 -6.72905e+06)
(1.27964e+07 -1.05265e+07 -1.71185e-09 -1.25918e+06 1.43995e-09 5.05659e+06)
(-1.54925e+07 2.83571e+06 2.31296e-09 -3.97924e+06 -1.70464e-09 -4.22935e+06)
(-8.68107e+06 1.12032e+06 -6.39362e-10 -4.4161e+06 4.8306e-10 -3.97054e+06)
(1.52796e+07 -3.36449e+06 -1.62342e-09 -564831 -7.85328e-10 4.58454e+06)
(-3.0549e+06 -2.7311e+06 -4.37881e-10 3.43125e+06 5.20863e-10 14732.5)
(1.04911e+07 -274767 -1.38664e-10 301647 -8.65804e-11 2.69657e+06)
(-3.01171e+06 -2.55977e+06 4.11036e-10 3.32084e+06 -4.03463e-10 225797)
(-1.5195e+06 -3.16463e+06 -7.13876e-10 2.92745e+06 2.88043e-10 398768)
(-1.00799e+06 -1.77782e+06 1.34852e-10 3.32927e+06 -5.38155e-11 800894)
(1.0039e+07 -4.43046e+06 0 813485 0 3.47117e+06)
(-2.8389e+06 -467419 -7.60745e-11 3.67139e+06 -4.52341e-10 283817)
(3.09503e+06 -703227 -2.56162e-10 138650 3.68292e-11 987349)
(-9.54658e+06 -2.21581e+06 7.83243e-10 494992 -1.85108e-10 -2.26662e+06)
(-8.30448e+06 -1.70191e+06 -6.61579e-10 311851 3.1581e-10 -2.81324e+06)
(-1.01913e+07 5.1705e+06 5.68785e-10 -1.00277e+07 -6.69252e-10 -6.08426e+06)
(-3.63515e+06 -3.91761e+06 2.20324e-10 2.82044e+06 -2.33677e-11 -124005)
(-8.07061e+06 5.25095e+06 1.85271e-11 -1.12024e+07 -4.61037e-11 -4.8406e+06)
(-2.8137e+06 -5.3894e+06 -2.03767e-09 2.64921e+06 2.57276e-10 -174310)
(-838446 -6.62092e+06 -6.68563e-10 2.30345e+06 1.88769e-11 502687)
(-9.7061e+06 3.12483e+06 -3.46944e-10 -5.64105e+06 4.46813e-10 -4.02159e+06)
(-3.52297e+06 -5.17465e+06 -1.04779e-09 2.72458e+06 2.44532e-10 267026)
(-5.68676e+06 -646982 1.31669e-10 3.51833e+06 -5.29262e-10 -983617)
(-1.71756e+06 -2.66651e+06 -1.36798e-11 3.13591e+06 -2.23844e-10 381690)
(4.01495e+07 -365226 -6.51922e-09 21518.8 -1.49449e-09 1.15914e+07)
(877507 -1.60413e+06 -1.09126e-10 948794 2.65376e-11 266362)
(-3.05301e+06 -2.01424e+06 -1.88578e-10 3.64977e+06 2.73407e-10 51458.4)
(8.39695e+06 -1.94573e+06 -2.88401e-09 1.04479e+07 -1.57664e-09 4.47752e+07)
(1.30532e+07 -128518 -5.80396e-10 -194023 -4.76959e-11 4.1339e+06)
(-7.59383e+06 2.72833e+06 -1.10318e-10 -8.27994e+06 3.55772e-10 -4.67508e+06)
(-192423 -2.66187e+06 5.20318e-10 2.45161e+06 -2.41044e-10 515683)
(8.82463e+06 -1.36904e+06 -5.80354e-11 331558 -1.33084e-10 2.99605e+06)
(4.2988e+07 -503336 -3.36683e-09 -3.6584e+06 -1.89923e-09 9.45504e+06)
(-1.00755e+06 -2.89632e+06 -1.1575e-10 2.65413e+06 -3.66261e-10 728440)
(-197146 -185550 -2.2443e-11 5.23466e+06 2.99433e-10 1.54188e+06)
(65850.2 -90565.3 -1.02168e-10 105430 9.10929e-11 51645.7)
(-5.07269e+06 -50598.1 7.32422e-11 3.25175e+06 -2.74747e-10 -685971)
(-4.86636e+06 -3.86115e+06 1.30499e-09 2.40139e+06 -3.20095e-10 -347926)
(6.99657e+06 -4.5877e+06 -2.95268e-10 1.25824e+06 3.51282e-12 2.2196e+06)
(7.56202e+06 -201425 3.26411e-11 -132646 -8.0802e-11 2.32997e+06)
(3.73415e+07 237005 -8.1157e-10 -3.00932e+06 1.3492e-09 1.27058e+07)
(-6.80027e+06 412693 0 -9.21803e+06 0 -3.53195e+06)
(3.54878e+07 8.89496e+06 -5.66666e-09 -1.49713e+06 -8.74144e-09 1.01018e+07)
(-523732 -4.41087e+06 -3.10705e-10 2.76208e+06 -9.11812e-11 332942)
(-101442 -436931 -1.88865e-11 5.15592e+06 -3.77076e-11 1.32366e+06)
(-8.01102e+06 -652857 1.23164e-10 -3.46019e+06 3.10882e-11 -2.98287e+06)
(-289666 48938 5.93405e-11 5.17007e+06 -3.69777e-10 1.37166e+06)
(27059.3 -73303.2 7.09065e-11 3.889e+06 -8.7493e-11 1.05513e+06)
(-15929.8 -45727.2 1.31196e-11 1.23888e+06 -2e-10 513193)
(2.25366e+06 -4.52958e+06 2.66054e-10 938827 -6.74122e-11 1.62418e+06)
(-5.24474e+07 3.1168e+07 0 -2.37464e+07 0 -2.51238e+07)
(120533 -127062 9.57332e-11 -61825.3 1.84638e-11 130766)
(-2.97898e+06 -2.30048e+06 7.07617e-10 3.28623e+06 -4.9432e-10 -31347.3)
(4.12354e+07 -1.37736e+06 -5.06559e-09 -2.08759e+06 -3.20458e-09 8.35205e+06)
(-7.33901e+06 975490 2.65585e-10 -5.35016e+06 -1.94801e-10 -3.5056e+06)
(143018 -72603.1 0 54045.6 0 75682)
(-4.81062e+06 -3.17162e+06 -8.75524e-10 3.32536e+06 3.54496e-11 -466103)
(-3.48018e+06 -4.95162e+06 8.20405e-11 2.64935e+06 -2.62032e-11 -371640)
(3.08555e+07 1.8868e+07 -3.93741e-09 3.49149e+06 -7.73532e-09 1.25917e+07)
(-374036 -862129 3.47997e-11 4.12695e+06 -1.04952e-10 759300)
(-8.20414e+06 9.20264e+06 4.90075e-10 -1.69189e+07 -2.14162e-09 -6.25953e+06)
(-5.61908e+06 1.1186e+07 5.26516e-10 -1.97356e+07 -2.30222e-09 -1.00335e+07)
(-4.13833e+06 632476 0 -1.15908e+07 0 -5.08143e+06)
(554338 -1.34952e+06 -1.24043e-10 1.23854e+06 9.143e-11 310854)
(-4.33468e+07 -4.18917e+07 9.88893e-09 -1.08341e+07 2.19548e-10 1.21196e+07)
(-9.50377e+06 7.88143e+06 1.53084e-11 -1.42065e+07 1.65712e-11 -6.6116e+06)
(-4.53387e+06 -5.71823e+06 1.58928e-09 2.7496e+06 -5.0706e-10 -212566)
(-2.26654e+07 -1.46062e+07 6.16757e-09 -1.20686e+07 -2.25616e-09 -3.11887e+06)
(2.03721e+07 2.01898e+06 4.75387e-09 174859 -2.86503e-09 7.21705e+06)
(-208748 -1.33349e+06 -7.01249e-11 3.38879e+06 5.94295e-11 903368)
(-730575 -2.42716e+06 1.57501e-10 2.72004e+06 -1.10732e-11 875040)
(-1.3364e+08 1.69493e+06 7.94716e-09 1.68275e+07 5.89842e-10 5.95413e+06)
(3.92546e+07 8.72621e+06 4.56049e-09 -6.79884e+06 3.07678e-09 7.72574e+06)
(3.97094e+07 1.97943e+07 1.44325e-09 -3.97592e+06 2.0225e-10 1.13255e+07)
(8.39258e+06 -1.1413e+06 4.4208e-10 -168280 -2.23206e-10 2.49033e+06)
(-2.32183e+06 -2.3487e+06 4.60216e-11 3.20696e+06 -1.59841e-10 391703)
(-1.92374e+07 -7.96251e+06 -1.7947e-09 -2.54954e+06 -2.2243e-09 -1.12226e+07)
(-1.91677e+06 -607646 -3.62221e-11 3.85656e+06 -1.83269e-10 318464)
(1.96648e+06 -563112 8.97634e-11 -297.309 -1.66428e-11 683652)
(4.40793e+06 -1.60066e+07 5.16119e-09 -2.75124e+07 1.70365e-09 5.10067e+06)
(292565 -1.82235e+06 2.51369e-10 1.10459e+06 -3.31492e-11 739270)
(-2.27227e+06 -2.3231e+06 3.27386e-10 3.21626e+06 -2.50593e-10 210762)
(-381887 195993 -1.12692e-10 4.9213e+06 3.46566e-10 1.24274e+06)
(176310 39594.9 1.25226e-10 183187 1.59584e-12 -12409.8)
(1.76566e+07 -7.2613e+06 -1.26331e-09 2.01465e+06 -6.68011e-10 5.82096e+06)
(4.68617e+06 -2.90314e+06 4.64511e-10 455087 -3.80592e-11 1.14113e+06)
(1.70451e+07 -5.13083e+06 3.95874e-10 137342 1.76771e-10 5.04093e+06)
(-1.72306e+07 -1.36313e+07 -5.50225e-09 -1.27387e+07 3.09751e-09 2.24001e+07)
(1.86616e+06 -2.97122e+06 7.199e-12 1.34095e+06 -4.66395e-11 554809)
(-8.39993e+06 1.45757e+06 1.14196e-11 -3.78696e+06 6.40296e-11 -3.39479e+06)
(-4.98576e+06 -1.08857e+07 4.32673e-09 -7.524e+06 -1.48723e-09 -1.42849e+06)
(4.21528e+07 1.02613e+07 2.57251e-09 8.14844e+06 5.43001e-09 1.38282e+07)
(-6.57261e+06 -5.67473e+06 -2.41165e-09 -677894 1.00913e-09 -1.9596e+06)
(1.43902e+06 -1.58137e+06 -8.68575e-11 257351 -7.91888e-12 1.08024e+06)
(-148956 186766 7.50405e-11 5.35439e+06 3.12965e-10 1.56504e+06)
(-41684.5 -83865 -6.48413e-11 5.16627e+06 2.14535e-10 1.6632e+06)
(30451.4 -21632.6 2.60601e-10 22370 3.67751e-11 27753.1)
(-7011.49 15018.3 5.94566e-11 154599 3.27486e-10 -38542.4)
(-3.23701e+06 -19234 -3.37148e-10 3.63003e+06 -2.03117e-10 109459)
(3.9828e+06 -54482.9 -4.62969e-11 243972 -1.65374e-11 946326)
(9.81687e+06 6.47165e+06 2.85127e-09 6.54128e+06 -4.14856e-09 1.04012e+07)
(-4.53295e+07 1.70985e+07 2.16986e-10 -1.04756e+07 -7.77412e-10 -2.17759e+07)
(-428884 -1.34434e+06 -2.89548e-10 3.22815e+06 1.84816e-10 976480)
(-9.65984e+06 1.37728e+06 -4.16725e-10 -2.9761e+06 4.82342e-10 -3.91287e+06)