/*--------------------------------*- C++ -*----------------------------------*\
| =========                 |                                                 |
| \\      /  F ield         | OpenFOAM: The Open Source CFD Toolbox           |
|  \\    /   O peration     | Version:  v2012                                 |
|   \\  /    A nd           | Website:  www.openfoam.com                      |
|    \\/     M anipulation  |                                                 |
\*---------------------------------------------------------------------------*/
FoamFile
{
    version     2.0;
    format      ascii;
    class       volVectorField;
    location    "3";
    object      D_0;
}
// * * * * * * * * * * * * * * * * * * * * * * * * * * * * * * * * * * * * * //

dimensions      [0 1 0 0 0 0 0];


internalField   nonuniform List<vector> 
4000
(
(2.02809e-05 -0.00054671 0)
(1.92462e-05 -0.000557002 0)
(1.83206e-05 -0.000565575 0)
(1.75296e-05 -0.000573673 0)
(1.68112e-05 -0.000580587 0)
(1.62061e-05 -0.000587126 0)
(1.5652e-05 -0.000592858 0)
(1.51806e-05 -0.000598294 0)
(1.47517e-05 -0.000603181 0)
(1.43807e-05 -0.000607837 0)
(1.4046e-05 -0.000612122 0)
(1.3752e-05 -0.00061623 0)
(1.34878e-05 -0.000620091 0)
(1.32525e-05 -0.000623818 0)
(1.30406e-05 -0.000627383 0)
(1.28486e-05 -0.00063085 0)
(1.2675e-05 -0.000634214 0)
(1.25128e-05 -0.000637505 0)
(1.23659e-05 -0.000640734 0)
(1.22209e-05 -0.00064391 0)
(6.08728e-05 -0.000545165 0)
(5.77692e-05 -0.000555245 0)
(5.50304e-05 -0.000563631 0)
(5.26402e-05 -0.000571566 0)
(5.05343e-05 -0.000578333 0)
(4.86816e-05 -0.000584735 0)
(4.70515e-05 -0.000590357 0)
(4.56088e-05 -0.000595679 0)
(4.43385e-05 -0.000600475 0)
(4.32097e-05 -0.000605036 0)
(4.22132e-05 -0.000609241 0)
(4.13241e-05 -0.000613267 0)
(4.05355e-05 -0.000617054 0)
(3.98272e-05 -0.000620707 0)
(3.91947e-05 -0.000624203 0)
(3.86191e-05 -0.0006276 0)
(3.81009e-05 -0.000630897 0)
(3.76165e-05 -0.000634119 0)
(3.71789e-05 -0.000637282 0)
(3.67474e-05 -0.000640389 0)
(0.000101283 -0.000542057 0)
(9.61751e-05 -0.000551715 0)
(9.1633e-05 -0.000559739 0)
(8.77158e-05 -0.000567353 0)
(8.41844e-05 -0.000573834 0)
(8.11876e-05 -0.000579995 0)
(7.84706e-05 -0.000585379 0)
(7.61217e-05 -0.000590504 0)
(7.40161e-05 -0.0005951 0)
(7.21662e-05 -0.00059949 0)
(7.05189e-05 -0.000603524 0)
(6.90564e-05 -0.000607395 0)
(6.77543e-05 -0.00061103 0)
(6.65875e-05 -0.000614541 0)
(6.55441e-05 -0.000617896 0)
(6.45962e-05 -0.000621156 0)
(6.37426e-05 -0.00062432 0)
(6.29466e-05 -0.000627409 0)
(6.22275e-05 -0.000630441 0)
(6.15212e-05 -0.000633413 0)
(0.000141555 -0.000537485 0)
(0.000134516 -0.00054653 0)
(0.000128292 -0.000554012 0)
(0.000122861 -0.000561164 0)
(0.000118063 -0.00056721 0)
(0.000113851 -0.000572958 0)
(0.000110131 -0.000578033 0)
(0.000106847 -0.000582825 0)
(0.000103947 -0.000587158 0)
(0.000101374 -0.000591274 0)
(9.90989e-05 -0.000595073 0)
(9.70724e-05 -0.000598708 0)
(9.5273e-05 -0.000602127 0)
(9.36604e-05 -0.000605423 0)
(9.22202e-05 -0.000608577 0)
(9.09138e-05 -0.000611635 0)
(8.97388e-05 -0.000614605 0)
(8.86465e-05 -0.000617497 0)
(8.76606e-05 -0.000620341 0)
(8.66979e-05 -0.000623115 0)
(0.000181519 -0.000531427 0)
(0.000172659 -0.00053966 0)
(0.000164788 -0.00054645 0)
(0.000157976 -0.000552972 0)
(0.000151708 -0.00055845 0)
(0.000146621 -0.000563785 0)
(0.000141893 -0.000568382 0)
(0.000137792 -0.000572804 0)
(0.00013413 -0.000576749 0)
(0.000130886 -0.000580536 0)
(0.000128016 -0.000584007 0)
(0.000125455 -0.000587347 0)
(0.000123185 -0.000590478 0)
(0.000121149 -0.000593502 0)
(0.000119334 -0.000596391 0)
(0.000117689 -0.000599192 0)
(0.000116212 -0.000601912 0)
(0.000114844 -0.000604553 0)
(0.00011361 -0.000607154 0)
(0.000112415 -0.000609678 0)
(0.000221152 -0.000523982 0)
(0.000210632 -0.000531236 0)
(0.000201309 -0.000537225 0)
(0.00019317 -0.00054298 0)
(0.000185952 -0.000547873 0)
(0.000179592 -0.000552579 0)
(0.000174004 -0.000556649 0)
(0.000169042 -0.000560593 0)
(0.000164671 -0.000564074 0)
(0.000160784 -0.000567455 0)
(0.000157349 -0.000570529 0)
(0.000154289 -0.00057351 0)
(0.000151574 -0.000576292 0)
(0.000149145 -0.000578987 0)
(0.000146979 -0.000581558 0)
(0.000145022 -0.00058405 0)
(0.000143266 -0.00058647 0)
(0.000141648 -0.000588812 0)
(0.000140191 -0.000591125 0)
(0.000138792 -0.000593351 0)
(0.000260337 -0.000515311 0)
(0.000248315 -0.000521462 0)
(0.000237691 -0.000526475 0)
(0.000228323 -0.000531359 0)
(0.000220287 -0.000535531 0)
(0.000212776 -0.000539466 0)
(0.000206379 -0.000542942 0)
(0.000200635 -0.000546279 0)
(0.000195599 -0.000549271 0)
(0.000191124 -0.000552157 0)
(0.000187163 -0.000554804 0)
(0.000183644 -0.000557361 0)
(0.000180516 -0.000559758 0)
(0.000177726 -0.000562075 0)
(0.000175237 -0.00056429 0)
(0.000172997 -0.000566431 0)
(0.000170988 -0.000568515 0)
(0.000169148 -0.00057052 0)
(0.000167492 -0.000572509 0)
(0.000165919 -0.000574403 0)
(0.000299031 -0.000505405 0)
(0.000285675 -0.000510328 0)
(0.000273822 -0.000514247 0)
(0.000263423 -0.000518197 0)
(0.000254227 -0.000521442 0)
(0.000246106 -0.00052464 0)
(0.000238918 -0.000527445 0)
(0.000232556 -0.000530146 0)
(0.000226923 -0.000532586 0)
(0.000221926 -0.000534933 0)
(0.000217498 -0.000537101 0)
(0.000213561 -0.00053919 0)
(0.000210065 -0.000541159 0)
(0.000206948 -0.000543057 0)
(0.000204171 -0.000544881 0)
(0.000201678 -0.000546635 0)
(0.000199446 -0.000548352 0)
(0.000197413 -0.000549989 0)
(0.000195586 -0.000551628 0)
(0.000193872 -0.000553163 0)
(0.000337182 -0.000494375 0)
(0.000322696 -0.000497958 0)
(0.000309843 -0.000500741 0)
(0.000298517 -0.000503627 0)
(0.000288548 -0.000505995 0)
(0.000279638 -0.000508372 0)
(0.000271822 -0.000510418 0)
(0.000264842 -0.000512445 0)
(0.000258696 -0.000514251 0)
(0.000253218 -0.000516027 0)
(0.000248377 -0.000517657 0)
(0.000244067 -0.000519249 0)
(0.000240245 -0.000520748 0)
(0.000236839 -0.000522201 0)
(0.000233808 -0.000523602 0)
(0.000231094 -0.000524946 0)
(0.00022867 -0.000526272 0)
(0.000226475 -0.000527522 0)
(0.000224505 -0.000528792 0)
(0.00022268 -0.000529951 0)
(0.000374653 -0.000482356 0)
(0.000359248 -0.000484544 0)
(0.000345531 -0.000486098 0)
(0.000333469 -0.000487892 0)
(0.000322763 -0.000489273 0)
(0.000313294 -0.000490776 0)
(0.000304898 -0.000492034 0)
(0.00029745 -0.000493338 0)
(0.000290848 -0.000494496 0)
(0.000284985 -0.000495661 0)
(0.000279785 -0.000496738 0)
(0.000275163 -0.000497803 0)
(0.00027106 -0.000498816 0)
(0.000267411 -0.000499802 0)
(0.000264164 -0.000500766 0)
(0.000261267 -0.000501684 0)
(0.000258681 -0.000502608 0)
(0.000256358 -0.00050346 0)
(0.000254273 -0.000504353 0)
(0.00025237 -0.00050513 0)
(0.000411467 -0.000469433 0)
(0.000395351 -0.000470175 0)
(0.00038098 -0.000470481 0)
(0.000368315 -0.000471134 0)
(0.00035707 -0.000471524 0)
(0.00034709 -0.000472117 0)
(0.000338251 -0.000472558 0)
(0.000330384 -0.000473116 0)
(0.000323419 -0.000473589 0)
(0.000317219 -0.000474127 0)
(0.000311726 -0.000474621 0)
(0.000306839 -0.000475145 0)
(0.000302505 -0.000475652 0)
(0.000298651 -0.000476159 0)
(0.000295227 -0.000476673 0)
(0.000292181 -0.000477157 0)
(0.000289465 -0.000477672 0)
(0.000287042 -0.000478122 0)
(0.000284869 -0.000478635 0)
(0.000282915 -0.000479034 0)
(0.000447478 -0.000455727 0)
(0.00043087 -0.000455014 0)
(0.00041602 -0.000454043 0)
(0.000402929 -0.000453544 0)
(0.000391265 -0.00045291 0)
(0.000380927 -0.000452574 0)
(0.000371735 -0.000452182 0)
(0.000363567 -0.000451976 0)
(0.000356313 -0.000451759 0)
(0.000349863 -0.000451656 0)
(0.000344137 -0.000451565 0)
(0.00033905 -0.00045154 0)
(0.000334533 -0.000451539 0)
(0.000330524 -0.000451566 0)
(0.000326962 -0.00045163 0)
(0.000323806 -0.000451684 0)
(0.000320994 -0.000451794 0)
(0.000318504 -0.00045185 0)
(0.000316271 -0.000451992 0)
(0.000314295 -0.000452022 0)
(0.000482703 -0.000441345 0)
(0.000465808 -0.000439182 0)
(0.00045067 -0.000436946 0)
(0.000437303 -0.000435292 0)
(0.000425373 -0.000433642 0)
(0.000414783 -0.000432375 0)
(0.000405357 -0.00043115 0)
(0.000396969 -0.00043018 0)
(0.000389515 -0.000429268 0)
(0.00038288 -0.000428525 0)
(0.000376988 -0.000427845 0)
(0.000371752 -0.000427272 0)
(0.000367103 -0.000426765 0)
(0.000362982 -0.000426314 0)
(0.000359322 -0.000425933 0)
(0.000356089 -0.000425562 0)
(0.00035321 -0.000425274 0)
(0.00035068 -0.000424946 0)
(0.00034841 -0.000424728 0)
(0.000346433 -0.000424404 0)
(0.000517027 -0.000426378 0)
(0.000500053 -0.0004228 0)
(0.000484806 -0.000419321 0)
(0.000471326 -0.000416535 0)
(0.000459265 -0.00041388 0)
(0.000448553 -0.000411695 0)
(0.000438997 -0.000409648 0)
(0.000430491 -0.000407922 0)
(0.000422917 -0.000406327 0)
(0.000416177 -0.000404952 0)
(0.000410183 -0.000403697 0)
(0.000404859 -0.000402587 0)
(0.00040013 -0.000401586 0)
(0.000395945 -0.000400672 0)
(0.000392226 -0.000399861 0)
(0.000388955 -0.000399084 0)
(0.000386042 -0.000398417 0)
(0.000383504 -0.000397726 0)
(0.000381225 -0.000397169 0)
(0.000379274 -0.000396516 0)
(0.000550448 -0.000410943 0)
(0.000533585 -0.000406001 0)
(0.0005184 -0.000401326 0)
(0.000504955 -0.000397444 0)
(0.000492902 -0.000393819 0)
(0.000482182 -0.000390743 0)
(0.000472604 -0.000387899 0)
(0.000464069 -0.00038544 0)
(0.000456461 -0.000383183 0)
(0.000449685 -0.000381195 0)
(0.000443655 -0.000379381 0)
(0.0004383 -0.000377752 0)
(0.000433541 -0.000376273 0)
(0.000429333 -0.000374913 0)
(0.000425596 -0.00037369 0)
(0.000422318 -0.000372523 0)
(0.0004194 -0.000371494 0)
(0.000416875 -0.000370458 0)
(0.000414606 -0.00036958 0)
(0.000412695 -0.00036862 0)
(0.000582884 -0.000395102 0)
(0.000566318 -0.00038887 0)
(0.000551358 -0.000383059 0)
(0.000538095 -0.000378134 0)
(0.000526177 -0.000373583 0)
(0.000515566 -0.000369655 0)
(0.000506065 -0.000366049 0)
(0.000497595 -0.000362887 0)
(0.00049003 -0.000359996 0)
(0.000483293 -0.000357423 0)
(0.000477289 -0.000355076 0)
(0.00047196 -0.000352955 0)
(0.000467218 -0.000351023 0)
(0.000463037 -0.000349245 0)
(0.000459317 -0.000347633 0)
(0.000456073 -0.000346108 0)
(0.000453179 -0.000344745 0)
(0.000450703 -0.000343399 0)
(0.00044847 -0.000342231 0)
(0.000446626 -0.000341 0)
(0.000614316 -0.000378974 0)
(0.00059821 -0.000371541 0)
(0.000583626 -0.000364671 0)
(0.000570678 -0.000358771 0)
(0.000559015 -0.000353355 0)
(0.000548621 -0.000348629 0)
(0.000539295 -0.00034431 0)
(0.000530973 -0.000340492 0)
(0.000523531 -0.000337007 0)
(0.000516898 -0.000333889 0)
(0.000510983 -0.000331043 0)
(0.000505731 -0.000328465 0)
(0.000501058 -0.000326112 0)
(0.000496938 -0.000323946 0)
(0.000493278 -0.000321976 0)
(0.00049009 -0.000320119 0)
(0.000487251 -0.000318449 0)
(0.000484833 -0.000316813 0)
(0.000482654 -0.000315381 0)
(0.000480879 -0.000313897 0)
(0.000644694 -0.000362588 0)
(0.000629204 -0.000354058 0)
(0.000615133 -0.000346219 0)
(0.000602627 -0.000339422 0)
(0.000591332 -0.000333208 0)
(0.000581255 -0.000327745 0)
(0.000572195 -0.000322764 0)
(0.000564105 -0.000318335 0)
(0.000556857 -0.000314298 0)
(0.000550397 -0.000310672 0)
(0.000544626 -0.000307362 0)
(0.000539509 -0.00030436 0)
(0.000534946 -0.000301615 0)
(0.000530941 -0.000299095 0)
(0.000527367 -0.00029679 0)
(0.000524286 -0.000294641 0)
(0.000521519 -0.000292685 0)
(0.000519206 -0.000290808 0)
(0.000517101 -0.00028914 0)
(0.000515435 -0.000287457 0)
(0.00067398 -0.00034606 0)
(0.000659238 -0.00033655 0)
(0.000645803 -0.000327845 0)
(0.000633847 -0.000320244 0)
(0.000623021 -0.000313315 0)
(0.000613351 -0.000307191 0)
(0.000604639 -0.000301619 0)
(0.000596852 -0.000296646 0)
(0.000589865 -0.000292117 0)
(0.00058363 -0.000288043 0)
(0.00057806 -0.000284323 0)
(0.000573112 -0.000280953 0)
(0.000568708 -0.000277863 0)
(0.00056483 -0.000275043 0)
(0.000561391 -0.000272449 0)
(0.000558406 -0.000270054 0)
(0.000555757 -0.000267864 0)
(0.000553528 -0.000265781 0)
(0.000551529 -0.000263919 0)
(0.000549938 -0.000262064 0)
(0.000702159 -0.000329394 0)
(0.000688285 -0.000319029 0)
(0.000675596 -0.000309566 0)
(0.000664293 -0.000301257 0)
(0.000654028 -0.000293697 0)
(0.000644853 -0.000286987 0)
(0.000636568 -0.000280887 0)
(0.000629157 -0.000275426 0)
(0.000622497 -0.000270455 0)
(0.000616554 -0.000265974 0)
(0.000611237 -0.000261881 0)
(0.000606521 -0.000258173 0)
(0.000602317 -0.000254765 0)
(0.000598637 -0.000251669 0)
(0.000595351 -0.000248794 0)
(0.000592566 -0.000246202 0)
(0.000590023 -0.000243729 0)
(0.000587959 -0.000241493 0)
(0.000586084 -0.000239395 0)
(0.000584656 -0.000237467 0)
(0.000729168 -0.000312692 0)
(0.000716262 -0.000301605 0)
(0.000704409 -0.000291505 0)
(0.000693843 -0.000282599 0)
(0.000684215 -0.000274507 0)
(0.000675601 -0.000267302 0)
(0.000667802 -0.000260759 0)
(0.000660819 -0.000254891 0)
(0.000654534 -0.000249552 0)
(0.000648916 -0.00024474 0)
(0.00064389 -0.000240341 0)
(0.000639415 -0.000236367 0)
(0.000635444 -0.000232705 0)
(0.000631927 -0.000229404 0)
(0.000628851 -0.000226318 0)
(0.000626127 -0.000223566 0)
(0.000623829 -0.000220936 0)
(0.000621747 -0.000218639 0)
(0.000620175 -0.000216378 0)
(0.000618561 -0.000214465 0)
(0.000755023 -0.000295945 0)
(0.000743168 -0.000284277 0)
(0.000732232 -0.000273661 0)
(0.000722478 -0.000264266 0)
(0.000713559 -0.000255739 0)
(0.000705575 -0.000248125 0)
(0.00069833 -0.000241215 0)
(0.000691839 -0.000235005 0)
(0.00068599 -0.000229357 0)
(0.000680759 -0.000224259 0)
(0.000676084 -0.000219601 0)
(0.000671914 -0.000215388 0)
(0.000668234 -0.00021151 0)
(0.00066495 -0.000208001 0)
(0.000662131 -0.000204745 0)
(0.000659563 -0.000201781 0)
(0.000657523 -0.000199043 0)
(0.000655563 -0.000196553 0)
(0.000654212 -0.000194192 0)
(0.000652652 -0.000192022 0)
(0.000779648 -0.000279229 0)
(0.00076891 -0.000267123 0)
(0.00075895 -0.00025612 0)
(0.000750063 -0.000246354 0)
(0.000741903 -0.000237495 0)
(0.000734595 -0.000229569 0)
(0.000727943 -0.000222378 0)
(0.000721979 -0.000215906 0)
(0.000716598 -0.000210019 0)
(0.000711778 -0.000204705 0)
(0.000707478 -0.000199844 0)
(0.000703629 -0.000195455 0)
(0.000700257 -0.000191402 0)
(0.000697228 -0.000187756 0)
(0.000694665 -0.000184343 0)
(0.000692315 -0.000181294 0)
(0.000690476 -0.000178398 0)
(0.000688665 -0.000175806 0)
(0.000687529 -0.000173336 0)
(0.000686064 -0.000171056 0)
(0.000803066 -0.000262543 0)
(0.000793493 -0.000250144 0)
(0.000784557 -0.000238884 0)
(0.000776584 -0.000228864 0)
(0.000769228 -0.00021978 0)
(0.000762639 -0.000211636 0)
(0.000756621 -0.000204251 0)
(0.000751225 -0.000197595 0)
(0.000746348 -0.000191543 0)
(0.000741977 -0.000186071 0)
(0.000738081 -0.000181074 0)
(0.000734587 -0.000176549 0)
(0.000731541 -0.000172386 0)
(0.000728791 -0.000168622 0)
(0.000726498 -0.000165125 0)
(0.000724363 -0.000161968 0)
(0.00072276 -0.000159011 0)
(0.000721109 -0.000156329 0)
(0.000720171 -0.000153826 0)
(0.000718836 -0.000151471 0)
(0.00082521 -0.000245928 0)
(0.000816834 -0.000233382 0)
(0.000808951 -0.000221996 0)
(0.000801921 -0.000211842 0)
(0.000795395 -0.000202641 0)
(0.00078955 -0.000194378 0)
(0.000784191 -0.000186886 0)
(0.000779383 -0.000180126 0)
(0.000775031 -0.000173982 0)
(0.000771127 -0.000168422 0)
(0.00076765 -0.000163345 0)
(0.00076453 -0.000158748 0)
(0.000761822 -0.000154521 0)
(0.000759372 -0.000150699 0)
(0.000757352 -0.000147154 0)
(0.000755461 -0.000143953 0)
(0.000754076 -0.000140965 0)
(0.000752623 -0.000138246 0)
(0.000751862 -0.000135742 0)
(0.000750697 -0.000133355 0)
(0.000846094 -0.000229392 0)
(0.000838929 -0.000216845 0)
(0.000832116 -0.000205464 0)
(0.000826045 -0.000195295 0)
(0.000820369 -0.000186084 0)
(0.000815286 -0.0001778 0)
(0.000810602 -0.000170292 0)
(0.000806402 -0.000163509 0)
(0.00080259 -0.000157347 0)
(0.000799171 -0.000151765 0)
(0.000796127 -0.000146675 0)
(0.000793395 -0.000142058 0)
(0.000791035 -0.000137824 0)
(0.000788897 -0.000133985 0)
(0.000787158 -0.000130443 0)
(0.00078552 -0.000127229 0)
(0.000784363 -0.000124257 0)
(0.00078312 -0.000121531 0)
(0.000782538 -0.000119061 0)
(0.000781562 -0.000116677 0)
(0.00086567 -0.000212951 0)
(0.000859714 -0.000200547 0)
(0.000853972 -0.000189299 0)
(0.000848864 -0.000179234 0)
(0.00084404 -0.000170119 0)
(0.000839725 -0.00016191 0)
(0.000835722 -0.000154473 0)
(0.000832136 -0.000147747 0)
(0.000828869 -0.000141641 0)
(0.000825943 -0.000136104 0)
(0.000823338 -0.000131059 0)
(0.000821002 -0.000126481 0)
(0.000818995 -0.000122289 0)
(0.000817178 -0.000118484 0)
(0.000815723 -0.000114985 0)
(0.000814349 -0.000111803 0)
(0.000813418 -0.00010888 0)
(0.0008124 -0.000106183 0)
(0.000811991 -0.000103771 0)
(0.000811219 -0.000101417 0)
(0.000883939 -0.000196615 0)
(0.000879176 -0.000184493 0)
(0.000874493 -0.000173504 0)
(0.000870338 -0.000163657 0)
(0.00086636 -0.000154742 0)
(0.000862809 -0.000146705 0)
(0.000859484 -0.000139426 0)
(0.000856511 -0.000132837 0)
(0.000853789 -0.000126857 0)
(0.000851356 -0.000121432 0)
(0.00084919 -0.000116493 0)
(0.000847253 -0.000112006 0)
(0.0008456 -0.000107906 0)
(0.000844108 -0.00010418 0)
(0.000842938 -0.000100765 0)
(0.000841833 -9.765e-05 0)
(0.000841128 -9.48083e-05 0)
(0.000840339 -9.21725e-05 0)
(0.000840105 -8.98416e-05 0)
(0.000839542 -8.75433e-05 0)
(0.000900869 -0.000180383 0)
(0.000897269 -0.000168679 0)
(0.000893617 -0.00015807 0)
(0.000890394 -0.000148553 0)
(0.000887244 -0.000139939 0)
(0.000884441 -0.000132165 0)
(0.000881782 -0.000125126 0)
(0.000879411 -0.00011875 0)
(0.000877226 -0.000112966 0)
(0.00087528 -0.000107715 0)
(0.000873547 -0.000102939 0)
(0.000872005 -9.85972e-05 0)
(0.000870702 -9.46362e-05 0)
(0.000869533 -9.10318e-05 0)
(0.000868645 -8.77388e-05 0)
(0.000867808 -8.47287e-05 0)
(0.000867327 -8.19979e-05 0)
(0.000866769 -7.94525e-05 0)
(0.000866706 -7.72242e-05 0)
(0.000866354 -7.50068e-05 0)
(0.000916454 -0.000164264 0)
(0.000913971 -0.000153105 0)
(0.000911313 -0.000142993 0)
(0.000908988 -0.000133912 0)
(0.000906637 -0.000125694 0)
(0.000904557 -0.000118273 0)
(0.000902542 -0.000111554 0)
(0.000900756 -0.000105465 0)
(0.000899092 -9.99427e-05 0)
(0.00089762 -9.49269e-05 0)
(0.000896308 -9.03679e-05 0)
(0.000895152 -8.62214e-05 0)
(0.00089419 -8.24435e-05 0)
(0.000893338 -7.90028e-05 0)
(0.000892724 -7.58668e-05 0)
(0.000892153 -7.29956e-05 0)
(0.000891889 -7.04018e-05 0)
(0.000891559 -6.79758e-05 0)
(0.000891661 -6.58692e-05 0)
(0.000891516 -6.37561e-05 0)
(0.000930673 -0.000148249 0)
(0.000929249 -0.000137756 0)
(0.000927535 -0.00012825 0)
(0.000926064 -0.000119707 0)
(0.000924472 -0.000111976 0)
(0.000923083 -0.00010499 0)
(0.000921683 -9.8666e-05 0)
(0.000920455 -9.29318e-05 0)
(0.000919288 -8.77334e-05 0)
(0.00091827 -8.30098e-05 0)
(0.000917362 -7.87186e-05 0)
(0.000916576 -7.48145e-05 0)
(0.000915943 -7.12612e-05 0)
(0.000915395 -6.80232e-05 0)
(0.000915047 -6.50786e-05 0)
(0.000914729 -6.2378e-05 0)
(0.000914677 -5.99504e-05 0)
(0.000914567 -5.76684e-05 0)
(0.000914829 -5.57064e-05 0)
(0.000914887 -5.37178e-05 0)
(0.000943514 -0.000132339 0)
(0.000943079 -0.000122627 0)
(0.000942247 -0.000113829 0)
(0.000941575 -0.000105916 0)
(0.000940696 -9.8757e-05 0)
(0.000939953 -9.22846e-05 0)
(0.00093913 -8.64266e-05 0)
(0.000938426 -8.11124e-05 0)
(0.000937728 -7.62965e-05 0)
(0.000937136 -7.19187e-05 0)
(0.00093661 -6.7944e-05 0)
(0.000936173 -6.43267e-05 0)
(0.000935849 -6.10369e-05 0)
(0.000935591 -5.80391e-05 0)
(0.000935491 -5.53138e-05 0)
(0.000935418 -5.28177e-05 0)
(0.000935562 -5.057e-05 0)
(0.000935664 -4.8465e-05 0)
(0.000936073 -4.66496e-05 0)
(0.000936317 -4.48034e-05 0)
(0.000954963 -0.000116524 0)
(0.000955437 -0.000107696 0)
(0.000955417 -9.96996e-05 0)
(0.00095548 -9.25044e-05 0)
(0.000955257 -8.59946e-05 0)
(0.00095511 -8.01067e-05 0)
(0.000954819 -7.47783e-05 0)
(0.0009546 -6.99429e-05 0)
(0.000954336 -6.55614e-05 0)
(0.000954139 -6.15778e-05 0)
(0.000953966 -5.79615e-05 0)
(0.000953852 -5.46706e-05 0)
(0.000953818 -5.16782e-05 0)
(0.000953824 -4.89524e-05 0)
(0.000953965 -4.6476e-05 0)
(0.000954107 -4.42082e-05 0)
(0.000954452 -4.21742e-05 0)
(0.000954733 -4.02619e-05 0)
(0.000955304 -3.86456e-05 0)
(0.000955716 -3.69599e-05 0)
(0.000965008 -0.000100799 0)
(0.000966301 -9.29486e-05 0)
(0.00096701 -8.58397e-05 0)
(0.000967735 -7.94397e-05 0)
(0.000968104 -7.36501e-05 0)
(0.000968494 -6.84114e-05 0)
(0.000968684 -6.36716e-05 0)
(0.000968903 -5.93684e-05 0)
(0.000969029 -5.54713e-05 0)
(0.000969188 -5.19255e-05 0)
(0.000969335 -4.87108e-05 0)
(0.000969512 -4.57814e-05 0)
(0.000969739 -4.3124e-05 0)
(0.000969982 -4.06992e-05 0)
(0.000970336 -3.85005e-05 0)
(0.000970676 -3.64942e-05 0)
(0.000971192 -3.46733e-05 0)
(0.000971648 -3.3027e-05 0)
(0.000972352 -3.15068e-05 0)
(0.00097297 -2.99415e-05 0)
(0.00097364 -8.51518e-05 0)
(0.000975651 -7.83634e-05 0)
(0.000977003 -7.22167e-05 0)
(0.000978311 -6.66809e-05 0)
(0.000979199 -6.16736e-05 0)
(0.000980064 -5.71413e-05 0)
(0.000980676 -5.30413e-05 0)
(0.000981282 -4.93177e-05 0)
(0.000981752 -4.59467e-05 0)
(0.00098223 -4.28779e-05 0)
(0.000982653 -4.00984e-05 0)
(0.000983097 -3.75613e-05 0)
(0.000983543 -3.52667e-05 0)
(0.000984017 -3.31616e-05 0)
(0.000984536 -3.12703e-05 0)
(0.000985084 -2.95131e-05 0)
(0.000985713 -2.79639e-05 0)
(0.000986362 -2.64805e-05 0)
(0.000987137 -2.52263e-05 0)
(0.000987893 -2.3954e-05 0)
(0.000980849 -6.95736e-05 0)
(0.000983471 -6.3919e-05 0)
(0.000985368 -5.87993e-05 0)
(0.000987171 -5.41871e-05 0)
(0.000988504 -5.00155e-05 0)
(0.000989771 -4.62389e-05 0)
(0.000990745 -4.28224e-05 0)
(0.00099168 -3.97197e-05 0)
(0.000992445 -3.69103e-05 0)
(0.000993192 -3.4354e-05 0)
(0.000993859 -3.20366e-05 0)
(0.000994523 -2.99255e-05 0)
(0.000995171 -2.80104e-05 0)
(0.000995826 -2.62633e-05 0)
(0.000996513 -2.46808e-05 0)
(0.000997209 -2.32296e-05 0)
(0.00099798 -2.19292e-05 0)
(0.000998751 -2.07078e-05 0)
(0.000999636 -1.96654e-05 0)
(0.0010005 -1.85855e-05 0)
(0.000986625 -5.40525e-05 0)
(0.000989744 -4.95913e-05 0)
(0.000992086 -4.55525e-05 0)
(0.000994293 -4.19132e-05 0)
(0.000995985 -3.86218e-05 0)
(0.000997581 -3.56413e-05 0)
(0.000998849 -3.29456e-05 0)
(0.00100005 -3.04964e-05 0)
(0.00100106 -2.82798e-05 0)
(0.00100203 -2.62612e-05 0)
(0.00100289 -2.44335e-05 0)
(0.00100373 -2.27652e-05 0)
(0.00100454 -2.12563e-05 0)
(0.00100535 -1.98733e-05 0)
(0.00100616 -1.86296e-05 0)
(0.00100699 -1.74776e-05 0)
(0.00100786 -1.64602e-05 0)
(0.00100874 -1.54901e-05 0)
(0.00100971 -1.46779e-05 0)
(0.00101067 -1.38373e-05 0)
(0.000990964 -3.85764e-05 0)
(0.00099446 -3.53558e-05 0)
(0.00099714 -3.24403e-05 0)
(0.000999653 -2.98129e-05 0)
(0.00100162 -2.74366e-05 0)
(0.00100347 -2.52848e-05 0)
(0.00100496 -2.33383e-05 0)
(0.00100636 -2.15702e-05 0)
(0.00100755 -1.99695e-05 0)
(0.00100869 -1.85127e-05 0)
(0.0010097 -1.71924e-05 0)
(0.00101069 -1.59893e-05 0)
(0.00101162 -1.48989e-05 0)
(0.00101254 -1.39026e-05 0)
(0.00101345 -1.30032e-05 0)
(0.00101437 -1.21741e-05 0)
(0.00101533 -1.14384e-05 0)
(0.00101629 -1.07392e-05 0)
(0.00101732 -1.01538e-05 0)
(0.00101836 -9.54384e-06 0)
(0.000993859 -2.31327e-05 0)
(0.00099761 -2.11866e-05 0)
(0.00100052 -1.9425e-05 0)
(0.00100324 -1.78372e-05 0)
(0.00100539 -1.64012e-05 0)
(0.0010074 -1.51007e-05 0)
(0.00100904 -1.39244e-05 0)
(0.00101059 -1.28556e-05 0)
(0.0010119 -1.18883e-05 0)
(0.00101315 -1.10074e-05 0)
(0.00101426 -1.02098e-05 0)
(0.00101534 -9.48189e-06 0)
(0.00101635 -8.82364e-06 0)
(0.00101735 -8.22043e-06 0)
(0.00101833 -7.67821e-06 0)
(0.00101932 -7.17601e-06 0)
(0.00102033 -6.73328e-06 0)
(0.00102135 -6.31027e-06 0)
(0.00102242 -5.95808e-06 0)
(0.00102351 -5.59088e-06 0)
(0.000995308 -7.70881e-06 0)
(0.000999186 -7.05786e-06 0)
(0.00100221 -6.46859e-06 0)
(0.00100503 -5.93752e-06 0)
(0.00100727 -5.45721e-06 0)
(0.00100937 -5.02227e-06 0)
(0.00101109 -4.6288e-06 0)
(0.0010127 -4.27147e-06 0)
(0.00101408 -3.94786e-06 0)
(0.00101538 -3.65349e-06 0)
(0.00101655 -3.38657e-06 0)
(0.00101767 -3.14348e-06 0)
(0.00101872 -2.92301e-06 0)
(0.00101976 -2.72171e-06 0)
(0.00102078 -2.53991e-06 0)
(0.0010218 -2.3723e-06 0)
(0.00102283 -2.22373e-06 0)
(0.00102388 -2.08225e-06 0)
(0.00102498 -1.96416e-06 0)
(0.0010261 -1.84083e-06 0)
(0.00102816 -1.64683e-06 0)
(0.00102566 -5.00574e-06 0)
(0.00102068 -8.56065e-06 0)
(0.00101325 -1.24385e-05 0)
(0.00100342 -1.67687e-05 0)
(0.000991194 -2.167e-05 0)
(0.000976757 -2.72481e-05 0)
(0.000960154 -3.35872e-05 0)
(0.000941361 -4.09014e-05 0)
(0.00092062 -4.9163e-05 0)
(0.000897994 -5.85427e-05 0)
(0.000873618 -6.90702e-05 0)
(0.000847634 -8.08415e-05 0)
(0.000820159 -9.38951e-05 0)
(0.00079137 -0.000108286 0)
(0.000761366 -0.000124049 0)
(0.000730358 -0.000141203 0)
(0.000698373 -0.00015982 0)
(0.000665657 -0.000179876 0)
(0.000632136 -0.000201428 0)
(0.00103146 -1.38031e-06 0)
(0.00102912 -4.20786e-06 0)
(0.00102446 -7.20337e-06 0)
(0.00101749 -1.05063e-05 0)
(0.00100828 -1.42006e-05 0)
(0.000996842 -1.84434e-05 0)
(0.000983277 -2.32965e-05 0)
(0.000967595 -2.89101e-05 0)
(0.000949975 -3.53119e-05 0)
(0.000930436 -4.26807e-05 0)
(0.000909128 -5.10235e-05 0)
(0.000886132 -6.04676e-05 0)
(0.000861593 -7.10505e-05 0)
(0.000835604 -8.28374e-05 0)
(0.000808347 -9.58719e-05 0)
(0.000779885 -0.000110158 0)
(0.000750495 -0.00012574 0)
(0.000720162 -0.000142519 0)
(0.00068931 -0.00016067 0)
(0.000657748 -0.000179853 0)
(0.00103513 -1.20206e-06 0)
(0.00103295 -3.66192e-06 0)
(0.0010286 -6.27549e-06 0)
(0.00102211 -9.15419e-06 0)
(0.00101352 -1.23894e-05 0)
(0.00100285 -1.60911e-05 0)
(0.000990198 -2.03423e-05 0)
(0.000975617 -2.52422e-05 0)
(0.000959139 -3.09e-05 0)
(0.000940909 -3.73546e-05 0)
(0.000920982 -4.47355e-05 0)
(0.00089947 -5.30619e-05 0)
(0.000876491 -6.24535e-05 0)
(0.000852115 -7.29148e-05 0)
(0.000826514 -8.45724e-05 0)
(0.000799699 -9.73771e-05 0)
(0.000771913 -0.000111516 0)
(0.000743076 -0.000126769 0)
(0.000713556 -0.00014349 0)
(0.000683192 -0.000161073 0)
(0.00103925 -1.06011e-06 0)
(0.00103721 -3.233e-06 0)
(0.00103314 -5.5422e-06 0)
(0.00102705 -8.09285e-06 0)
(0.00101899 -1.09659e-05 0)
(0.00100898 -1.42609e-05 0)
(0.000997095 -1.80617e-05 0)
(0.000983363 -2.24417e-05 0)
(0.000967891 -2.74908e-05 0)
(0.000950712 -3.32852e-05 0)
(0.000931952 -3.98914e-05 0)
(0.000911658 -4.73677e-05 0)
(0.000889973 -5.57908e-05 0)
(0.000866943 -6.51645e-05 0)
(0.000842754 -7.56098e-05 0)
(0.000817416 -8.70335e-05 0)
(0.000791186 -9.967e-05 0)
(0.000763988 -0.000113252 0)
(0.000736173 -0.000128256 0)
(0.000707492 -0.000144072 0)
(0.00104379 -9.56465e-07 0)
(0.00104188 -2.91308e-06 0)
(0.00103807 -4.99181e-06 0)
(0.00103239 -7.27887e-06 0)
(0.00102485 -9.85139e-06 0)
(0.0010155 -1.27907e-05 0)
(0.00100439 -1.61754e-05 0)
(0.000991564 -2.00752e-05 0)
(0.000977078 -2.45761e-05 0)
(0.000961011 -2.97211e-05 0)
(0.000943431 -3.56161e-05 0)
(0.00092441 -4.22683e-05 0)
(0.000904054 -4.98104e-05 0)
(0.000882402 -5.81947e-05 0)
(0.000859611 -6.76093e-05 0)
(0.000835669 -7.78923e-05 0)
(0.000810806 -8.93588e-05 0)
(0.000784946 -0.000101612 0)
(0.000758421 -0.000115252 0)
(0.000731082 -0.000129448 0)
(0.00104879 -8.8781e-07 0)
(0.001047 -2.70222e-06 0)
(0.00104342 -4.62662e-06 0)
(0.00103808 -6.7363e-06 0)
(0.001031 -9.10394e-06 0)
(0.0010222 -1.17958e-05 0)
(0.00101174 -1.48903e-05 0)
(0.00099966 -1.84355e-05 0)
(0.000986024 -2.25188e-05 0)
(0.000970873 -2.71726e-05 0)
(0.000954306 -3.24891e-05 0)
(0.000936358 -3.84705e-05 0)
(0.000917155 -4.52399e-05 0)
(0.000896721 -5.27318e-05 0)
(0.000875216 -6.11522e-05 0)
(0.000852634 -7.03039e-05 0)
(0.000829174 -8.05656e-05 0)
(0.00080478 -9.14919e-05 0)
(0.000779693 -0.000103772 0)
(0.000753811 -0.00011652 0)
(0.00105423 -8.34455e-07 0)
(0.00105255 -2.5359e-06 0)
(0.0010492 -4.33504e-06 0)
(0.00104419 -6.29506e-06 0)
(0.00103755 -8.48263e-06 0)
(0.00102931 -1.09545e-05 0)
(0.0010195 -1.3782e-05 0)
(0.00100817 -1.70092e-05 0)
(0.000995368 -2.07167e-05 0)
(0.000981147 -2.49255e-05 0)
(0.000965574 -2.97392e-05 0)
(0.000948698 -3.51355e-05 0)
(0.000930609 -4.12632e-05 0)
(0.000911342 -4.80214e-05 0)
(0.00089102 -5.56472e-05 0)
(0.000869652 -6.38966e-05 0)
(0.000847401 -7.31772e-05 0)
(0.000824255 -8.29962e-05 0)
(0.000800399 -9.40726e-05 0)
(0.000775819 -0.0001055 0)
(0.00106012 -8.09347e-07 0)
(0.00105853 -2.45605e-06 0)
(0.00105537 -4.19054e-06 0)
(0.00105065 -6.06634e-06 0)
(0.00104439 -8.14565e-06 0)
(0.00103662 -1.04737e-05 0)
(0.00102737 -1.31189e-05 0)
(0.00101668 -1.61112e-05 0)
(0.0010046 -1.95309e-05 0)
(0.000991179 -2.33847e-05 0)
(0.000976482 -2.77743e-05 0)
(0.000960549 -3.26646e-05 0)
(0.000943473 -3.82064e-05 0)
(0.000925286 -4.42844e-05 0)
(0.000906096 -5.11509e-05 0)
(0.000885926 -5.85422e-05 0)
(0.000864894 -6.68971e-05 0)
(0.00084302 -7.56937e-05 0)
(0.000820406 -8.56831e-05 0)
(0.000797113 -9.59357e-05 0)
(0.00106644 -7.90944e-07 0)
(0.00106495 -2.39654e-06 0)
(0.00106198 -4.08016e-06 0)
(0.00105754 -5.8871e-06 0)
(0.00105165 -7.87421e-06 0)
(0.00104434 -1.00798e-05 0)
(0.00103563 -1.25672e-05 0)
(0.00102557 -1.53608e-05 0)
(0.0010142 -1.85368e-05 0)
(0.00100155 -2.20942e-05 0)
(0.000987688 -2.6137e-05 0)
(0.000972656 -3.06162e-05 0)
(0.000956523 -3.56899e-05 0)
(0.000939333 -4.12243e-05 0)
(0.000921164 -4.74773e-05 0)
(0.000902066 -5.41712e-05 0)
(0.000882111 -6.17357e-05 0)
(0.000861377 -6.96688e-05 0)
(0.000839893 -7.86611e-05 0)
(0.000817796 -8.79004e-05 0)
(0.00107318 -7.92643e-07 0)
(0.00107177 -2.39807e-06 0)
(0.00106897 -4.07318e-06 0)
(0.00106477 -5.85592e-06 0)
(0.00105921 -7.7986e-06 0)
(0.00105229 -9.93151e-06 0)
(0.00104406 -1.23139e-05 0)
(0.00103455 -1.49615e-05 0)
(0.0010238 -1.79477e-05 0)
(0.00101184 -2.12625e-05 0)
(0.000998737 -2.50075e-05 0)
(0.000984526 -2.91269e-05 0)
(0.000969272 -3.37764e-05 0)
(0.000953022 -3.88209e-05 0)
(0.000935835 -4.45119e-05 0)
(0.000917774 -5.05832e-05 0)
(0.000898877 -5.74397e-05 0)
(0.000879243 -6.46184e-05 0)
(0.000858859 -7.2745e-05 0)
(0.000837895 -8.1088e-05 0)
(0.00108035 -7.98367e-07 0)
(0.00107903 -2.41226e-06 0)
(0.00107638 -4.08825e-06 0)
(0.00107241 -5.85852e-06 0)
(0.00106716 -7.77089e-06 0)
(0.00106063 -9.85053e-06 0)
(0.00105286 -1.21524e-05 0)
(0.00104388 -1.46875e-05 0)
(0.00103371 -1.75253e-05 0)
(0.00102241 -2.0651e-05 0)
(0.00101002 -2.41626e-05 0)
(0.000996571 -2.79996e-05 0)
(0.000982125 -3.23121e-05 0)
(0.000966736 -3.69635e-05 0)
(0.000950441 -4.21922e-05 0)
(0.000933322 -4.77436e-05 0)
(0.00091539 -5.39927e-05 0)