/*--------------------------------*- C++ -*----------------------------------*\
| =========                 |                                                 |
| \\      /  F ield         | OpenFOAM: The Open Source CFD Toolbox           |
|  \\    /   O peration     | Version:  v2012                                 |
|   \\  /    A nd           | Website:  www.openfoam.com                      |
|    \\/     M anipulation  |                                                 |
\*---------------------------------------------------------------------------*/
FoamFile
{
    version     2.0;
    format      ascii;
    class       volSymmTensorField;
    location    "3";
    object      epsilon;
}
// * * * * * * * * * * * * * * * * * * * * * * * * * * * * * * * * * * * * * //

dimensions      [0 0 0 0 0 0 0];


internalField   nonuniform List<symmTensor> 
4000
(
(0.00218541 -5.74729e-05 -3.09592e-19 -0.000909991 3.76744e-19 1.22859e-33)
(0.0020241 -4.67364e-05 4.66558e-20 -0.000809967 4.49314e-19 0)
(0.00188251 -3.73421e-05 -4.3214e-26 -0.000716204 -4.31411e-25 0)
(0.00175957 -2.954e-05 5.36811e-19 -0.000645196 -3.36445e-19 0)
(0.00165086 -2.26214e-05 -8.19357e-19 -0.00057856 -3.52452e-19 0)
(0.00155575 -1.66198e-05 1.37956e-20 -0.000528015 1.46303e-19 0)
(0.00147109 -1.17923e-05 -4.47829e-19 -0.000480739 -2.07187e-20 0)
(0.00139624 -7.31556e-06 0 -0.000444631 0 0)
(0.00132927 -3.78794e-06 1.90516e-20 -0.000411206 2.27697e-19 0)
(0.00126941 -4.88709e-07 3.71329e-19 -0.000385493 1.26501e-19 0)
(0.00121555 2.16592e-06 -1.49761e-20 -0.00036201 -2.00361e-19 0)
(0.00116692 4.6045e-06 -1.32929e-20 -0.000343871 -1.90281e-19 0)
(0.00112285 6.61493e-06 -5.95078e-21 -0.00032754 -9.06043e-20 0)
(0.00108264 8.42821e-06 1.06519e-20 -0.000314935 1.74204e-19 0)
(0.0010459 9.93648e-06 1.4057e-19 -0.000303744 9.30255e-20 0)
(0.00101198 1.12896e-05 -4.35696e-21 -0.000295147 -8.16051e-20 0)
(0.00098073 1.23894e-05 -1.26787e-19 -0.000287628 -8.82382e-20 0)
(0.000951409 1.3403e-05 -2.37761e-19 -0.000281859 -9.50724e-20 0)
(0.000924261 1.41489e-05 -1.11754e-19 -0.00027694 -8.43707e-21 0)
(0.000898146 1.49221e-05 -2.06524e-19 -0.000273027 8.43474e-20 0)
(0.00216294 -0.000171063 1.46294e-19 -0.000895796 2.46348e-19 5.71852e-34)
(0.00200563 -0.000138395 4.15017e-19 -0.000798976 2.46262e-19 0)
(0.00186712 -0.000110899 1.91921e-19 -0.000708012 -3.61673e-19 0)
(0.0017472 -8.74081e-05 6.24716e-19 -0.00063925 2.22701e-19 0)
(0.00164011 -6.72522e-05 -7.86047e-19 -0.000574142 -7.36577e-20 0)
(0.00154779 -5.0192e-05 -1.44838e-25 -0.00052553 -5.07364e-25 0)
(0.00146463 -3.53223e-05 1.57249e-21 -0.000479588 5.61287e-21 0)
(0.00139148 -2.27003e-05 -4.82122e-19 -0.000444545 -2.97225e-19 0)
(0.00132575 -1.16351e-05 0 -0.000412131 0 0)
(0.00126698 -2.20227e-06 5.71026e-19 -0.000387026 1.82427e-19 0)
(0.00121406 6.07582e-06 3.03404e-26 -0.000364223 1.27578e-25 0)
(0.00116619 1.31628e-05 -3.99558e-20 -0.00034646 -1.86569e-19 0)
(0.00112281 1.93588e-05 -1.78267e-20 -0.000330552 -8.88417e-20 0)
(0.00108317 2.46916e-05 1.59713e-20 -0.000318184 8.53871e-20 0)
(0.00104694 2.9294e-05 1.50673e-19 -0.000307231 1.06222e-19 0)
(0.00101346 3.33022e-05 -1.16729e-19 -0.000298776 5.4962e-20 0)
(0.000982596 3.66374e-05 -1.11398e-19 -0.000291362 5.46685e-20 0)
(0.000953643 3.96505e-05 -2.46234e-19 -0.000285674 -1.22112e-19 0)
(0.000926785 4.19099e-05 1.77151e-22 -0.000280758 1.28079e-21 0)
(0.000900991 4.42104e-05 -2.46993e-19 -0.000276892 -1.7108e-19 0)
(0.00211823 -0.000280306 6.1246e-19 -0.000867459 2.24252e-19 6.24627e-34)
(0.00196882 -0.000227788 4.57289e-19 -0.000777301 2.47085e-19 0)
(0.00183743 -0.000182546 -1.03005e-19 -0.00069203 -1.90679e-19 0)
(0.00172269 -0.000144952 -1.10142e-19 -0.000627595 2.91522e-19 0)
(0.00162139 -0.000111262 5.28052e-19 -0.000566916 9.00739e-20 0)
(0.00153224 -8.21706e-05 1.07695e-19 -0.000521109 -2.29874e-19 0)
(0.00145266 -5.88034e-05 1.18007e-19 -0.000477543 2.45221e-19 0)
(0.00138209 -3.74503e-05 2.23199e-21 -0.000444657 4.8827e-21 0)
(0.00131877 -1.99218e-05 -5.33347e-19 -0.000413697 -4.11213e-19 0)
(0.00126204 -4.19203e-06 2.24395e-19 -0.00039014 1.42862e-19 0)
(0.00121087 9.12421e-06 2.0953e-19 -0.000368292 1.38172e-19 0)
(0.00116455 2.08402e-05 9.66883e-20 -0.000351564 -1.36034e-19 0)
(0.00112248 3.09145e-05 -3.36476e-19 -0.000336276 -1.70532e-19 0)
(0.00108402 3.97004e-05 -1.19062e-19 -0.000324556 4.00353e-20 0)
(0.00104878 4.72334e-05 4.74501e-20 -0.00031397 1.58051e-19 0)
(0.00101622 5.38324e-05 2.18516e-20 -0.000305895 7.81282e-20 0)
(0.000986113 5.93198e-05 1.25007e-19 -0.000298643 4.00451e-20 0)
(0.000957913 6.42798e-05 -1.55386e-19 -0.000293167 -1.85737e-19 0)
(0.000931631 6.80259e-05 -2.90554e-22 -0.000288236 -1.22674e-21 0)
(0.000906481 7.18097e-05 -1.8129e-19 -0.00028449 -1.93079e-19 0)
(0.00205347 -0.000382859 -4.17326e-19 -0.000826796 1.98218e-19 3.05043e-34)
(0.00191533 -0.000310785 3.15514e-19 -0.000745805 3.93691e-19 0)
(0.00179314 -0.000249985 3.17429e-19 -0.000668893 6.29298e-20 0)
(0.00168678 -0.000197934 -1.18882e-19 -0.000610615 -1.53659e-19 0)
(0.00158815 -0.000152429 5.73857e-19 -0.00055335 -1.02906e-19 0)
(0.00150874 -0.000115118 1.86673e-19 -0.000513689 2.55228e-19 0)
(0.00143396 -8.20611e-05 8.69191e-20 -0.000474523 1.22727e-19 0)
(0.00136781 -5.37858e-05 6.32007e-19 -0.000444153 1.80461e-19 0)
(0.00130835 -2.91803e-05 1.35436e-19 -0.000416303 -3.54092e-20 0)
(0.00125447 -7.92525e-06 -1.15412e-19 -0.000394309 -1.88913e-19 0)
(0.00120608 1.05548e-05 3.47971e-19 -0.000374432 1.18116e-19 0)
(0.00116189 2.65489e-05 4.46711e-20 -0.000358796 8.25996e-20 0)
(0.00112183 4.04438e-05 4.21823e-20 -0.000344704 8.32491e-20 0)
(0.00108501 5.24932e-05 -3.30571e-19 -0.00033372 -1.90491e-19 0)
(0.00105127 6.2867e-05 -1.40053e-19 -0.000323809 -5.6554e-20 0)
(0.00102 7.19356e-05 1.32748e-19 -0.000316192 5.43796e-20 0)
(0.000991026 7.95096e-05 1.80651e-19 -0.000309249 1.93635e-19 0)
(0.000963901 8.63277e-05 2.43127e-19 -0.000304038 1.09078e-19 0)
(0.000938476 9.15427e-05 -1.1567e-19 -0.00029913 -5.1938e-20 0)
(0.000914247 9.67373e-05 1.06779e-19 -0.000295533 8.89749e-20 0)
(0.00196844 -0.000475659 -3.55037e-19 -0.000773674 2.25157e-21 -2.6148e-36)
(0.00184527 -0.000387481 -5.46081e-20 -0.00070516 -2.87151e-19 0)
(0.00173591 -0.0003125 -1.82889e-19 -0.000638221 -1.6607e-19 0)
(0.00163863 -0.000251651 2.8494e-19 -0.00058728 7.25124e-20 0)
(0.00155408 -0.000193333 -3.03747e-21 -0.000540404 -2.89618e-21 0)
(0.00147897 -0.000142485 -1.26994e-19 -0.000505879 4.37574e-20 0)
(0.00140979 -0.000105053 5.77649e-19 -0.000469647 1.20248e-19 0)
(0.00134879 -6.95201e-05 1.19371e-19 -0.000443773 -2.48292e-20 0)
(0.00129364 -3.93064e-05 1.94979e-19 -0.000418455 7.09803e-20 0)
(0.00124387 -1.30585e-05 0 -0.000399539 0 0)
(0.00119881 1.00999e-05 6.33837e-20 -0.000381563 7.96881e-20 0)
(0.00115768 2.98732e-05 -3.32955e-19 -0.000367904 -1.46632e-19 0)
(0.00112015 4.73567e-05 3.6557e-19 -0.0003551 2.16778e-19 0)
(0.00108563 6.23277e-05 2.42621e-19 -0.000345338 2.14541e-19 0)
(0.00105381 7.5396e-05 1.02186e-19 -0.000336205 4.09047e-21 0)
(0.0010243 8.6715e-05 -3.71946e-20 -0.000329309 -6.59646e-20 0)
(0.000996795 9.62869e-05 9.57939e-20 -0.000322733 4.52119e-21 0)
(0.000971093 0.000104817 1.22364e-19 -0.000317927 6.42295e-20 0)
(0.000946799 0.000111477 -8.9747e-20 -0.00031305 -5.15335e-21 0)
(0.000923759 0.000117976 2.79434e-19 -0.000309672 1.00123e-19 0)
(0.0018673 -0.000557431 7.08121e-19 -0.000710528 2.24682e-21 -5.25947e-37)
(0.00176194 -0.000455543 -1.11494e-19 -0.000657532 7.0485e-20 0)
(0.001669 -0.000369514 3.23687e-19 -0.000602317 9.35645e-20 0)
(0.00158353 -0.000294613 -1.82687e-19 -0.000562697 -1.2689e-19 0)
(0.00149451 -0.000225923 -5.25543e-19 -0.00051905 -1.76892e-19 0)
(0.00144078 -0.000175571 -3.90311e-19 -0.00049326 -1.96452e-19 0)
(0.00138204 -0.000128297 -1.28244e-19 -0.000464327 -9.76469e-20 0)
(0.00132516 -8.65957e-05 6.02858e-21 -0.000442375 8.5533e-20 0)
(0.00127575 -5.07033e-05 -1.98623e-19 -0.000420695 -8.76097e-20 0)
(0.00123049 -1.97347e-05 -4.68345e-19 -0.0004053 -2.57381e-19 0)
(0.00118936 7.39694e-06 -2.03315e-19 -0.000389606 -3.21753e-20 0)
(0.00115188 3.07532e-05 -2.37402e-19 -0.000378376 -1.55401e-19 0)
(0.00111729 5.12381e-05 -1.22512e-19 -0.000367078 -1.30836e-19 0)
(0.00108555 6.89361e-05 1.51008e-19 -0.000358848 8.29693e-20 0)
(0.00105599 8.43185e-05 4.73105e-20 -0.000350645 5.827e-20 0)
(0.00102862 9.77137e-05 1.38965e-19 -0.000344658 8.26095e-20 0)
(0.00100287 0.000109066 3.94926e-20 -0.00033855 5.59058e-20 0)
(0.000978887 0.000119164 2.01653e-19 -0.000334255 1.93136e-19 0)
(0.000955965 0.000127177 -1.89321e-19 -0.000329461 -1.86169e-19 0)
(0.000934333 0.000134864 9.60808e-21 -0.000326355 -1.66205e-20 0)
(0.00175151 -0.000626123 8.32931e-19 -0.00064033 1.21596e-19 1.08278e-33)
(0.00166527 -0.000512994 -5.95855e-19 -0.000602426 -2.21873e-19 0)
(0.00158614 -0.000417647 -4.92413e-19 -0.000560159 -2.44238e-19 0)
(0.00151783 -0.000331509 3.32172e-19 -0.000533261 2.21511e-19 0)
(0.00145265 -0.000263912 -7.90845e-20 -0.000500685 -5.23734e-21 0)
(0.00139383 -0.000205714 8.79068e-20 -0.000477344 1.86704e-20 0)
(0.00134338 -0.000149376 -1.41349e-19 -0.000456386 -7.95229e-20 0)
(0.00129593 -0.000103608 -2.15887e-19 -0.000439914 -1.03345e-19 0)
(0.00125302 -6.31489e-05 5.21649e-19 -0.000423495 2.76758e-19 0)
(0.00121357 -2.82296e-05 -2.82688e-19 -0.000411345 -1.37476e-19 0)
(0.00117728 2.05605e-06 1.76312e-21 -0.00039901 1.23013e-21 0)
(0.00114389 2.85633e-05 -1.58269e-19 -0.000389926 -1.18331e-19 0)
(0.0011129 5.15135e-05 -2.34899e-19 -0.000380713 -1.55204e-19 0)
(0.00108423 7.16296e-05 -2.95161e-20 -0.000373905 1.1951e-20 0)
(0.00105738 8.8987e-05 -3.52485e-19 -0.000366921 -2.41673e-19 0)
(0.0010324 0.000104225 -1.93926e-19 -0.00036183 -1.45596e-19 0)
(0.00100872 0.000117156 -1.81269e-19 -0.00035633 -1.4059e-19 0)
(0.000986661 0.000128642 3.94946e-20 -0.000352564 4.52599e-20 0)
(0.000965357 0.000137918 2.02228e-19 -0.000347918 1.82304e-19 0)
(0.000945294 0.000146658 -1.55217e-19 -0.000345096 -1.32812e-19 0)
(0.00162504 -0.000680426 -1.67871e-20 -0.000564606 1.19893e-20 8.93158e-36)
(0.00155902 -0.00056004 9.66408e-19 -0.000542613 3.15968e-19 0)
(0.00149696 -0.000457964 -9.1543e-19 -0.000515249 -3.26521e-19 0)
(0.00144221 -0.000369281 2.94304e-19 -0.000497754 1.16055e-19 0)
(0.00138719 -0.00029165 1.24525e-19 -0.000475127 7.82972e-20 0)
(0.00134489 -0.0002272 -1.21031e-19 -0.000463411 -2.96681e-20 0)
(0.00130182 -0.000169871 -3.12822e-19 -0.000448137 -1.69285e-19 0)
(0.00126303 -0.000120192 -2.21109e-19 -0.000437255 -1.16367e-19 0)
(0.00122694 -7.68753e-05 -2.92702e-19 -0.000425822 -1.74991e-19 0)
(0.00119333 -3.90197e-05 3.08883e-19 -0.000417178 1.68252e-19 0)
(0.00116234 -6.02229e-06 1.84248e-19 -0.000408372 1.11903e-19 0)
(0.00113331 2.28273e-05 1.09251e-25 -0.000401677 5.99771e-26 0)
(0.00110633 4.80086e-05 -2.45221e-19 -0.000394775 -1.54989e-19 0)
(0.001081 7.00097e-05 -8.98372e-20 -0.000389576 -6.34285e-20 0)
(0.00105719 8.91521e-05 6.27769e-20 -0.000383999 4.27578e-20 0)
(0.00103484 0.000105891 -2.00319e-19 -0.000379941 -1.44309e-19 0)
(0.00101351 0.000120257 -4.62963e-26 -0.000375187 -3.65823e-26 0)
(0.000993564 0.000132906 -4.00221e-19 -0.00037204 -3.00065e-19 0)
(0.000974098 0.000143368 8.59931e-20 -0.000367644 6.03126e-20 0)
(0.000955737 0.000153007 -2.20009e-19 -0.00036515 -1.8134e-19 0)
(0.00148904 -0.000719244 -6.48147e-19 -0.000484438 -9.74139e-21 6.06969e-36)
(0.00144501 -0.000594721 3.17334e-19 -0.000480461 7.40489e-20 0)
(0.00140107 -0.000489413 -2.87587e-19 -0.000466957 -6.75953e-20 0)
(0.00136212 -0.000396675 -5.18247e-19 -0.000462453 -1.28205e-19 0)
(0.00132368 -0.000318181 4.84093e-19 -0.000451279 1.80072e-19 0)
(0.00128839 -0.000250007 3.48734e-19 -0.000445857 3.27035e-20 0)
(0.0012559 -0.000189257 -2.87336e-19 -0.000437868 -2.02042e-19 0)
(0.00122494 -0.000137481 -2.2031e-19 -0.000432994 -1.25411e-19 0)
(0.00119637 -9.12902e-05 -5.52054e-19 -0.000426532 -2.90942e-19 0)
(0.00116916 -5.16261e-05 -2.48095e-19 -0.000422297 -8.22146e-20 0)
(0.00114375 -1.64335e-05 1.08929e-19 -0.000416905 3.84932e-20 0)
(0.00111964 1.4026e-05 3.60356e-19 -0.000413217 2.41562e-19 0)
(0.00109689 4.09241e-05 -1.0005e-25 -0.000408595 -4.12819e-26 0)
(0.00107533 6.43044e-05 7.80881e-20 -0.000405368 3.47677e-20 0)
(0.00105477 8.48371e-05 8.80827e-20 -0.000401227 8.21035e-20 0)
(0.00103533 0.000102715 2.3738e-19 -0.00039841 1.93303e-19 0)
(0.00101654 0.000118246 1.9872e-19 -0.000394453 1.41662e-19 0)
(0.000998905 0.000131793 2.7603e-19 -0.000392044 2.17737e-19 0)
(0.000981464 0.000143282 -2.65448e-19 -0.00038796 -2.13709e-19 0)
(0.000964922 0.000153636 4.19728e-20 -0.000385861 2.89914e-20 0)
(0.00134826 -0.000742824 -9.65e-19 -0.000403759 2.59014e-20 3.59369e-34)
(0.0013252 -0.000618257 -3.38051e-19 -0.000416117 -4.35597e-20 0)
(0.00129917 -0.000511597 0 -0.000417402 0 0)
(0.00127579 -0.000418645 -2.58381e-19 -0.000424406 -3.6171e-20 0)
(0.00125039 -0.000337746 -7.74069e-19 -0.000423761 -3.031e-19 0)
(0.00122818 -0.000268019 -4.12203e-20 -0.000427732 -1.02515e-19 0)
(0.00120492 -0.000206608 4.2357e-19 -0.00042668 1.65405e-19 0)
(0.00118341 -0.000153322 4.51861e-19 -0.000428174 2.6965e-19 0)
(0.00116203 -0.000106354 6.38538e-19 -0.000426761 4.0048e-19 0)
(0.00114167 -6.53809e-05 -1.29008e-19 -0.000426795 -2.62781e-20 0)
(0.00112191 -2.9248e-05 -2.33802e-19 -0.000425009 -5.12174e-20 0)
(0.0011029 2.34275e-06 -4.03277e-21 -0.000424202 -9.65752e-22 0)
(0.00108454 3.02129e-05 9.22947e-20 -0.000422046 2.39202e-20 0)
(0.00106687 5.45705e-05 1.65888e-19 -0.000420746 1.23919e-19 0)
(0.00104974 7.60349e-05 2.4599e-19 -0.000418191 2.21338e-19 0)
(0.00103332 9.47421e-05 -6.64738e-20 -0.000416622 -2.24514e-20 0)
(0.00101723 0.000111152 -1.03502e-21 -0.000413585 -3.76139e-22 0)
(0.00100199 0.000125371 2.97567e-19 -0.000411939 1.77419e-19 0)
(0.000986717 0.000137718 1.85669e-19 -0.000408276 1.3396e-19 0)
(0.000972042 0.000148633 1.76207e-19 -0.000406589 1.82727e-19 0)
(0.00120502 -0.000750999 -4.55657e-19 -0.000323902 1.47185e-19 1.05326e-34)
(0.00120289 -0.000629066 -3.71348e-19 -0.00035284 -1.2878e-20 0)
(0.00119486 -0.000524549 2.88299e-19 -0.000368044 2.62638e-19 0)
(0.0011867 -0.000432723 2.7346e-19 -0.000386811 1.39648e-19 0)
(0.00117533 -0.000353211 5.10656e-19 -0.000396498 2.38763e-20 0)
(0.00116369 -0.000283638 4.92013e-21 -0.000408327 2.72784e-22 0)
(0.00115087 -0.000222427 8.38294e-20 -0.000414581 2.60729e-19 0)
(0.00113761 -0.00016912 -1.32372e-19 -0.000421887 1.163e-19 0)
(0.00112405 -0.000121838 3.66584e-19 -0.000425605 1.51969e-19 0)
(0.0011102 -8.06724e-05 3.42083e-19 -0.000429886 1.50866e-19 0)
(0.00109636 -4.40496e-05 3.1949e-19 -0.000431678 1.49023e-19 0)
(0.00108245 -1.21305e-05 -3.69639e-19 -0.00043388 -2.68978e-19 0)
(0.00106865 1.6286e-05 -9.74695e-20 -0.000434166 -1.21674e-20 0)
(0.00105497 4.10413e-05 -2.57624e-19 -0.000434928 -1.42419e-19 0)
(0.0010414 6.30749e-05 -1.65278e-19 -0.000433968 -1.2799e-19 0)
(0.00102812 8.21875e-05 -4.02044e-19 -0.000433758 -3.6392e-19 0)
(0.00101484 9.91923e-05 -3.01272e-19 -0.000431683 -2.4568e-19 0)
(0.00100209 0.000113771 -5.38058e-20 -0.00043088 -1.13606e-20 0)
(0.000989118 0.000126768 2.28748e-19 -0.000427711 2.24833e-19 0)
(0.000976364 0.000138026 1.24651e-19 -0.000426496 7.34699e-20 0)
(0.00106229 -0.000744348 8.34724e-19 -0.0002475 3.90224e-20 2.70219e-36)
(0.00107963 -0.000628267 -7.39292e-19 -0.000291187 3.94165e-20 0)
(0.00108837 -0.00052796 -3.4798e-19 -0.000319598 1.82094e-20 0)
(0.00109503 -0.000439767 1.65085e-20 -0.000349166 -1.59717e-19 0)
(0.00109634 -0.000362679 2.6323e-19 -0.000368477 1.47751e-19 0)
(0.00109628 -0.000295165 2.72329e-19 -0.000388399 3.04847e-19 0)
(0.001093 -0.00023559 2.32835e-19 -0.000401502 1.48005e-19 0)
(0.00108861 -0.000183421 -4.23227e-20 -0.000414674 -1.51848e-19 0)
(0.00108239 -0.000137134 -4.33675e-19 -0.000423311 -2.90801e-19 0)
(0.00107531 -9.6559e-05 -3.53149e-19 -0.000431761 -1.41381e-19 0)
(0.00106721 -6.04381e-05 1.26145e-19 -0.000437062 -1.29186e-21 0)
(0.0010585 -2.87708e-05 3.04296e-19 -0.000442188 1.39065e-19 0)
(0.00104921 -5.07794e-07 3.63662e-19 -0.000444921 2.73758e-19 0)
(0.00103957 2.42068e-05 9.18043e-20 -0.000447698 1.18406e-21 0)
(0.00102956 4.63294e-05 -8.43391e-20 -0.000448379 -1.30312e-19 0)
(0.00101945 6.55228e-05 1.63313e-19 -0.000449514 1.29355e-19 0)
(0.00100904 8.2799e-05 -3.36625e-20 -0.000448468 1.20618e-19 0)
(0.000998782 9.75072e-05 2.40818e-19 -0.000448514 2.45811e-19 0)
(0.00098817 0.00011094 5.09972e-20 -0.000445923 2.15045e-21 0)
(0.000977329 0.000122392 -2.71838e-19 -0.000445191 -1.89555e-19 0)
(0.0009229 -0.000723885 9.07916e-19 -0.00017627 -8.96736e-20 3.73182e-34)
(0.000958276 -0.000616025 1.23631e-19 -0.000233483 -3.90699e-19 0)
(0.000982715 -0.000522449 -2.81905e-19 -0.000273756 -1.49975e-19 0)
(0.00100305 -0.000439622 -5.8328e-19 -0.000313241 -1.11245e-19 0)
(0.00101653 -0.000367056 -2.6788e-19 -0.000341343 3.46448e-20 0)
(0.00102683 -0.000303006 -5.23303e-21 -0.000368453 6.50024e-22 0)
(0.00103295 -0.000246347 -2.68178e-19 -0.000387993 -3.2966e-19 0)
(0.00103658 -0.000196454 6.50236e-19 -0.000406427 2.78566e-19 0)
(0.00103765 -0.000152004 3.91326e-19 -0.000419728 1.28802e-19 0)
(0.00103686 -0.000112914 -1.46039e-19 -0.000432017 1.65291e-20 0)
(0.00103444 -7.79179e-05 -1.29801e-19 -0.000440655 1.45641e-20 0)
(0.00103069 -4.71938e-05 1.47684e-19 -0.00044854 3.1048e-19 0)
(0.00102587 -1.9577e-05 -3.97617e-21 -0.000453612 4.32928e-22 0)
(0.00102016 4.5601e-06 6.26983e-21 -0.000458326 -1.5664e-19 0)
(0.00101371 2.63746e-05 8.67459e-20 -0.000460594 1.43492e-19 0)
(0.00100672 4.52271e-05 4.1492e-19 -0.000463045 4.03349e-19 0)
(0.000999201 6.24528e-05 9.11281e-20 -0.000463026 1.36535e-19 0)
(0.000991422 7.69592e-05 -3.05426e-19 -0.000463914 -2.52441e-19 0)
(0.000983221 9.05637e-05 1.00311e-19 -0.000461948 -1.27271e-20 0)
(0.000974292 0.000101966 1.87033e-19 -0.000461716 1.15127e-19 0)
(0.000788954 -0.000690619 1.08818e-18 -0.000112012 -6.57918e-19 -7.65982e-35)
(0.000840343 -0.000593294 4.10922e-19 -0.000180637 -8.99769e-20 0)
(0.000878755 -0.000508256 -3.9802e-19 -0.000231274 3.01998e-19 0)
(0.000911612 -0.000432628 6.9834e-21 -0.000279358 -1.48685e-21 0)
(0.000935998 -0.000365907 -8.0327e-19 -0.000315221 -2.51533e-19 0)
(0.000956147 -0.000306771 -7.48346e-21 -0.000348804 -2.06047e-19 0)
(0.0009708 -0.000254163 -6.67439e-19 -0.000374091 -6.51226e-20 0)
(0.00098218 -0.000207628 -3.90641e-19 -0.000397342 8.06001e-20 0)
(0.000989977 -0.000165969 7.76348e-19 -0.000414874 2.32498e-19 0)
(0.000995278 -0.000129167 4.20802e-19 -0.000430701 2.98125e-19 0)
(0.000998209 -9.60564e-05 -3.40394e-19 -0.000442425 -1.17693e-19 0)
(0.000999275 -6.68757e-05 5.06889e-19 -0.000452877 2.63074e-19 0)
(0.000998749 -4.04837e-05 -4.2577e-19 -0.000460166 -6.33786e-19 0)
(0.000996861 -1.73659e-05 -5.35798e-19 -0.000466712 -4.15935e-19 0)
(0.000993892 3.71359e-06 -5.95481e-19 -0.000470533 -2.14473e-19 0)
(0.000989947 2.19159e-05 -7.19041e-26 -0.000474259 1.67753e-26 0)
(0.000985275 3.87843e-05 -1.90224e-19 -0.000475287 -2.92329e-19 0)
(0.000979911 5.28936e-05 -3.0702e-19 -0.000477018 -2.54873e-19 0)
(0.000974105 6.64549e-05 -3.99281e-19 -0.000475726 -2.19936e-19 0)
(0.000967034 7.77015e-05 4.01154e-19 -0.000476016 2.06979e-19 0)
(0.000662821 -0.000646215 -6.10882e-19 -5.61837e-05 1.48872e-19 2.14928e-34)
(0.00072806 -0.000561121 4.95802e-19 -0.000134252 5.74593e-19 0)
(0.000778675 -0.000486279 2.88338e-19 -0.000193524 1.53725e-19 0)
(0.00082249 -0.000419201 5.99555e-19 -0.000248822 -1.76487e-19 0)
(0.000856604 -0.00035968 1.2174e-20 -0.000291265 -3.58185e-21 0)
(0.000885425 -0.000306541 1.10041e-20 -0.000330303 2.26332e-19 0)
(0.000907837 -0.000259007 2.41681e-19 -0.000360556 1.54924e-19 0)
(0.000926119 -0.000216695 -8.39052e-19 -0.000387906 -1.97051e-19 0)
(0.000940116 -0.000178594 -3.93063e-19 -0.000409143 -1.00988e-19 0)
(0.000950942 -0.000144769 3.01608e-19 -0.000428022 -8.95247e-20 0)
(0.000958845 -0.000114129 -5.38899e-19 -0.000442473 -2.54106e-19 0)
(0.000964361 -8.70469e-05 1.18019e-19 -0.000455164 -3.62439e-20 0)
(0.000967843 -6.23365e-05 9.15266e-19 -0.000464422 1.12278e-19 0)
(0.000969551 -4.07012e-05 3.65319e-19 -0.000472575 2.76165e-19 0)
(0.00096984 -2.07192e-05 -3.30899e-19 -0.000477778 1.12777e-19 0)
(0.000968806 -3.57291e-06 -2.42577e-19 -0.000482617 -1.06364e-19 0)
(0.000966832 1.26355e-05 -9.69348e-20 -0.000484586 -1.5456e-19 0)
(0.000963794 2.5989e-05 1.56353e-19 -0.000487033 1.27006e-19 0)
(0.000960309 3.92124e-05 8.51009e-22 -0.000486379 -3.74267e-22 0)
(0.000955039 5.00098e-05 -1.98582e-19 -0.000487105 -4.12099e-20 0)
(0.000545959 -0.000592102 2.11292e-19 -9.90157e-06 3.1916e-20 -2.01356e-36)
(0.000622602 -0.000520637 -6.69008e-19 -9.50354e-05 -9.42071e-21 0)
(0.000683357 -0.000457202 3.27747e-19 -0.000161018 -1.24703e-19 0)
(0.000736471 -0.000399866 3.49044e-20 -0.00022189 -2.7173e-19 0)
(0.00077885 -0.000348545 2.33979e-19 -0.000269563 6.75934e-19 0)
(0.000815226 -0.000302399 -2.55534e-19 -0.000312936 -1.54022e-19 0)
(0.000844366 -0.000260784 -3.1142e-20 -0.000347208 -2.33498e-19 0)
(0.000868774 -0.000223508 0 -0.000377882 0 0)
(0.000888268 -0.000189677 -4.4007e-19 -0.000402179 -3.0297e-19 0)
(0.000904058 -0.000159485 -5.85825e-20 -0.000423569 -2.08135e-19 0)
(0.000916484 -0.000131905 4.80367e-19 -0.000440337 4.90414e-19 0)
(0.000926024 -0.000107441 -9.49194e-19 -0.000454899 -2.85031e-19 0)
(0.000933267 -8.48907e-05 2.88123e-19 -0.000465902 9.92056e-20 0)
(0.000938242 -6.51273e-05 7.32205e-19 -0.000475432 3.32639e-19 0)
(0.00094169 -4.66344e-05 3.50166e-19 -0.000481934 2.69396e-19 0)
(0.000943317 -3.0796e-05 7.4365e-20 -0.000487786 -3.50214e-20 0)
(0.000944006 -1.55689e-05 1.64588e-19 -0.000490682 1.27945e-19 0)
(0.000943158 -3.08076e-06 -5.60626e-20 -0.000493897 2.99524e-20 0)
(0.000941951 9.58397e-06 2.58362e-19 -0.000493885 2.73017e-19 0)
(0.000938428 1.9941e-05 1.05733e-19 -0.000495197 1.46617e-19 0)
(0.000440028 -0.000530283 3.82781e-19 2.5864e-05 -2.3202e-19 5.27031e-35)
(0.000525633 -0.000473324 8.79485e-21 -6.41312e-05 -4.0998e-21 0)
(0.00059446 -0.000422187 7.70271e-21 -0.000134944 -3.5735e-21 0)
(0.000655093 -0.000375387 7.73451e-19 -0.000199804 7.59925e-19 0)
(0.000704247 -0.000333061 -2.62749e-19 -0.000251367 -1.53273e-19 0)
(0.000746886 -0.000294588 7.13928e-19 -0.00029794 -3.27544e-19 0)
(0.000781681 -0.000259562 -2.00873e-19 -0.000335296 9.26715e-20 0)
(0.000811296 -0.000227884 -1.87502e-19 -0.000368491 8.69048e-20 0)
(0.000835497 -0.000198869 -4.38481e-19 -0.000395203 -2.99843e-19 0)
(0.000855626 -0.000172764 -4.47792e-19 -0.000418546 2.12923e-19 0)
(0.000871964 -0.000148679 3.30033e-19 -0.000437184 8.30143e-20 0)
(0.000885138 -0.000127205 -3.65877e-20 -0.000453228 -4.60017e-19 0)
(0.000895624 -0.000107143 -4.79878e-19 -0.000465656 -2.24925e-19 0)
(0.000903666 -8.96e-05 9.13764e-20 -0.000476282 1.83997e-19 0)
(0.0009098 -7.27934e-05 9.60641e-20 -0.00048384 1.7727e-19 0)
(0.000914015 -5.86696e-05 -1.72841e-19 -0.000490462 -1.27811e-19 0)
(0.000916953 -4.44829e-05 6.14485e-20 -0.000494108 -3.86829e-20 0)
(0.000918184 -3.32825e-05 1.05657e-19 -0.000497764 1.58986e-19 0)
(0.000918959 -2.13455e-05 -3.58212e-19 -0.000498251 -2.03507e-19 0)
(0.000917014 -1.18483e-05 -1.50263e-19 -0.00049977 -1.1662e-19 0)
(0.000345768 -0.000462319 -1.8885e-19 5.06431e-05 -3.86476e-20 1.01114e-36)
(0.000437774 -0.000420393 -3.60013e-19 -4.17685e-05 1.99427e-19 0)
(0.000512492 -0.00038206 -4.16888e-19 -0.000115324 8.37044e-19 0)
(0.000578781 -0.000346333 8.00931e-19 -0.000182387 -1.40051e-19 0)
(0.000633108 -0.000313494 1.51906e-20 -0.000236301 -5.93103e-19 0)
(0.000680631 -0.000283204 6.20285e-21 -0.000284748 2.82842e-19 0)
(0.000719907 -0.00025522 4.30592e-19 -0.000324044 4.39743e-20 0)
(0.000753677 -0.000229608 3.64827e-19 -0.000358759 -2.0154e-19 0)
(0.00078175 -0.000205818 2.2266e-19 -0.000387044 1.44447e-19 0)
(0.000805366 -0.00018422 -5.02574e-19 -0.000411561 2.15996e-20 0)
(0.000825087 -0.000163995 -4.78135e-19 -0.000431484 -5.00034e-19 0)
(0.000841129 -0.000145875 1.97168e-19 -0.000448371 1.37574e-19 0)
(0.000854649 -0.000128647 -3.96134e-19 -0.000461899 -7.85009e-21 0)
(0.000864973 -0.000113593 -2.75727e-19 -0.000473056 -7.27552e-20 0)
(0.000873903 -9.88765e-05 -2.08394e-20 -0.000481593 -2.33395e-19 0)
(0.000879897 -8.65647e-05 1.41625e-19 -0.000488521 -9.9633e-20 0)
(0.000885231 -7.39999e-05 -1.1978e-19 -0.000492811 9.06197e-20 0)
(0.000888188 -6.41111e-05 5.16389e-20 -0.000497011 -4.15284e-20 0)
(0.000891125 -5.33246e-05 -1.08525e-19 -0.000497973 -1.57724e-19 0)
(0.000890793 -4.46278e-05 -2.27476e-19 -0.000500314 -3.87065e-20 0)
(0.000264158 -0.000390437 -1.67631e-19 6.4038e-05 -4.8778e-20 -2.02469e-36)
(0.000360141 -0.000363647 -7.2841e-19 -2.86571e-05 7.99251e-19 0)
(0.000438637 -0.00033835 -5.70906e-19 -0.000103121 4.42479e-20 0)
(0.000508763 -0.000313943 6.76248e-20 -0.000170803 -9.91522e-19 0)
(0.000566677 -0.000290918 2.47065e-19 -0.000225729 1.52225e-19 0)
(0.000617752 -0.000269102 -4.74133e-19 -0.000274911 -3.03853e-19 0)
(0.00066032 -0.00024853 4.21991e-21 -0.000315208 -2.69896e-21 0)
(0.000697308 -0.000229259 -4.00053e-19 -0.000350654 -3.24875e-20 0)
(0.00072834 -0.000211082 8.01662e-19 -0.000379885 3.30163e-19 0)
(0.000754851 -0.000194207 1.43238e-19 -0.000405066 -9.46485e-20 0)
(0.000777185 -0.000178246 -1.22631e-19 -0.000425878 8.27401e-20 0)
(0.000795857 -0.000163616 6.97261e-19 -0.000443333 3.25505e-19 0)
(0.000811631 -0.000149614 -8.73072e-20 -0.000457706 -2.03561e-19 0)
(0.000824432 -0.000137192 -2.67136e-19 -0.000469325 -6.5212e-20 0)
(0.000835249 -0.000124774 -6.82055e-19 -0.000478717 -2.55818e-19 0)
(0.000843705 -0.000114919 -6.94559e-20 -0.000485944 5.65705e-20 0)
(0.000850734 -0.000103332 3.89259e-19 -0.000491383 1.8581e-19 0)
(0.000855527 -9.51419e-05 -4.81889e-19 -0.000495476 -3.44909e-19 0)
(0.000860196 -8.51749e-05 3.10401e-19 -0.000497495 2.25115e-19 0)
(0.000860949 -7.82171e-05 4.97658e-19 -0.000499274 2.12402e-19 0)
(0.000195266 -0.000316005 -5.04419e-19 6.60774e-05 6.16538e-19 -2.09149e-34)
(0.00029286 -0.000304123 -7.17779e-20 -2.46337e-05 4.01013e-19 0)
(0.000373088 -0.000291685 -4.62516e-19 -9.80013e-05 -6.79695e-19 0)
(0.000445248 -0.000278507 2.47616e-19 -0.000164573 1.51353e-19 0)
(0.000505188 -0.000265222 2.2596e-19 -0.000218964 -1.66011e-19 0)
(0.000558427 -0.000251872 4.56292e-21 -0.000267546 -3.3507e-21 0)
(0.000603099 -0.000238678 -2.31443e-19 -0.00030762 -1.41389e-19 0)
(0.000642208 -0.000225788 5.67688e-20 -0.000342744 2.63076e-19 0)
(0.000675315 -0.000213188 -1.52936e-19 -0.000371928 1.14858e-19 0)
(0.000703785 -0.000201111 3.38135e-19 -0.0003969 3.53197e-20 0)
(0.000728157 -0.000189342 -2.40926e-19 -0.000417798 1.87687e-19 0)
(0.000748493 -0.000178281 4.89826e-19 -0.000435002 1.76328e-19 0)
(0.000766442 -0.000167415 5.61164e-19 -0.000449718 9.7903e-20 0)
(0.000780325 -0.000157502 2.62933e-19 -0.000460781 5.25624e-20 0)
(0.000794106 -0.000147549 2.49411e-19 -0.000471324 5.28906e-20 0)
(0.000802286 -0.00013886 -3.57874e-19 -0.000477036 6.3071e-20 0)
(0.00081162 -0.000129946 5.3779e-20 -0.000482734 -5.51837e-20 0)
(0.00081693 -0.000122448 -1.11223e-19 -0.000486147 -1.63086e-19 0)
(0.000825636 -0.000115173 1.92525e-19 -0.00049025 3.57789e-19 0)
(0.000826205 -0.000107361 3.12344e-19 -0.000490757 1.43393e-19 0)
(0.000139367 -0.00024134 1.4096e-19 5.7032e-05 6.11383e-20 -1.9723e-36)
(0.000236311 -0.000243828 5.2037e-20 -2.97529e-05 -4.10812e-19 0)
(0.000316258 -0.000243925 -1.51912e-20 -0.000100327 3.71549e-19 0)
(0.000388701 -0.000241745 4.74569e-19 -0.000164301 3.01707e-19 0)
(0.0004491 -0.000238126 4.56205e-19 -0.000216879 -4.02482e-20 0)
(0.000503163 -0.0002332 1.90858e-19 -0.00026375 -1.6001e-19 0)
(0.000548715 -0.0002275 -3.90518e-19 -0.000302684 1.3638e-21 0)
(0.000588943 -0.000221065 -3.22164e-19 -0.000336687 2.72416e-19 0)
(0.000623138 -0.000214341 -6.53036e-20 -0.000365215 -2.56925e-19 0)
(0.000652873 -0.000207176 -2.80412e-19 -0.000389457 -3.70204e-19 0)
(0.000678367 -0.000200141 -2.6364e-20 -0.000410054 3.24358e-19 0)
(0.000700056 -0.000192657 -4.82904e-19 -0.000426822 -1.56275e-19 0)
(0.000718901 -0.000185875 5.47227e-19 -0.000441409 7.63647e-20 0)
(0.000734378 -0.000178023 0 -0.00045246 0 0)
(0.000748139 -0.000172222 -2.53118e-21 -0.000462496 2.5517e-21 0)
(0.000760208 -0.000166665 3.72635e-20 -0.000467786 6.28958e-20 0)
(0.00076876 -0.000159768 -4.37899e-19 -0.000475916 -3.8224e-19 0)
(0.000776795 -0.00015068 7.05211e-20 -0.000479548 2.13916e-19 0)
(0.000782924 -0.000148711 -1.93147e-19 -0.000483985 -5.0082e-20 0)
(0.000791985 -0.000140688 -8.80104e-20 -0.000485082 -1.93557e-19 0)
(9.61089e-05 -0.000167564 0 3.72316e-05 0 0)
(0.000190442 -0.000183596 -3.18098e-20 -4.37496e-05 4.16456e-19 0)
(0.000268391 -0.000195496 -5.03537e-19 -0.000109827 4.87397e-19 0)
(0.000339587 -0.000203705 -4.68758e-19 -0.000169742 -2.85825e-19 0)
(0.000399123 -0.000209198 8.20874e-19 -0.000219178 -4.25576e-19 0)
(0.000452865 -0.000212234 3.66054e-19 -0.000263236 -3.49514e-19 0)
(0.000498315 -0.000213576 -3.51142e-21 -0.000299993 3.3582e-21 0)
(0.000538863 -0.000213221 -3.51224e-19 -0.00033208 3.36581e-21 0)
(0.000573454 -0.000211949 1.31707e-19 -0.000359125 -1.27941e-19 0)
(0.000603995 -0.000209393 -1.1298e-19 -0.000382123 1.11478e-19 0)
(0.000630148 -0.000206585 1.72499e-19 -0.000401711 4.58485e-19 0)
(0.000653111 -0.00020259 -7.47357e-19 -0.000417788 -4.76172e-19 0)
(0.000672538 -0.000199035 1.80686e-19 -0.000431549 1.16486e-19 0)
(0.000689959 -0.000194022 2.17543e-19 -0.000442497 -2.41809e-19 0)
(0.00070345 -0.000190312 -4.0485e-19 -0.000451255 -1.45361e-19 0)
(0.000717548 -0.000184407 -9.86112e-22 -0.000459036 1.22474e-21 0)
(0.000727565 -0.000181323 2.58284e-19 -0.000465355 -2.4566e-20 0)
(0.000738234 -0.000173895 2.7378e-19 -0.000469641 2.56806e-19 0)
(0.000742004 -0.000171645 -1.84972e-19 -0.000471212 -4.53362e-20 0)
(0.00075529 -0.000167408 3.55745e-20 -0.000473117 5.87599e-20 0)
(6.50145e-05 -9.67312e-05 -3.8934e-19 7.59076e-06 2.46314e-19 1.62551e-34)
(0.000154739 -0.000125243 -4.45209e-19 -6.58719e-05 -7.17205e-19 0)