/*--------------------------------*- C++ -*----------------------------------*\
| =========                 |                                                 |
| \\      /  F ield         | OpenFOAM: The Open Source CFD Toolbox           |
|  \\    /   O peration     | Version:  v2012                                 |
|   \\  /    A nd           | Website:  www.openfoam.com                      |
|    \\/     M anipulation  |                                                 |
\*---------------------------------------------------------------------------*/
FoamFile
{
    version     2.0;
    format      ascii;
    class       volVectorField;
    location    "8";
    object      D_0;
}
// * * * * * * * * * * * * * * * * * * * * * * * * * * * * * * * * * * * * * //

dimensions      [0 1 0 0 0 0 0];


internalField   nonuniform List<vector> 
4000
(
(7.5937e-05 -0.00147154 0)
(7.41435e-05 -0.00153654 0)
(7.21841e-05 -0.00159222 0)
(7.01515e-05 -0.00164545 0)
(6.77612e-05 -0.00169047 0)
(6.53001e-05 -0.00173226 0)
(6.22706e-05 -0.00176667 0)
(5.91818e-05 -0.00179708 0)
(5.53413e-05 -0.00182093 0)
(5.11485e-05 -0.00183986 0)
(4.72667e-05 -0.00185311 0)
(4.45158e-05 -0.00186472 0)
(4.24108e-05 -0.00187469 0)
(4.07706e-05 -0.00188417 0)
(3.94642e-05 -0.00189271 0)
(3.83911e-05 -0.0019011 0)
(3.75085e-05 -0.00190898 0)
(3.67385e-05 -0.00191685 0)
(3.60962e-05 -0.00192447 0)
(3.54859e-05 -0.00193211 0)
(0.00022763 -0.00147592 0)
(0.00022215 -0.00154004 0)
(0.000216207 -0.00159467 0)
(0.000209674 -0.00164655 0)
(0.000202493 -0.00169002 0)
(0.000194398 -0.00172978 0)
(0.000185357 -0.00176183 0)
(0.000175263 -0.00178953 0)
(0.000163853 -0.00181021 0)
(0.000151684 -0.00182653 0)
(0.000141272 -0.00183876 0)
(0.000133509 -0.00185024 0)
(0.000127538 -0.00186016 0)
(0.000122755 -0.00186976 0)
(0.00011894 -0.00187843 0)
(0.000115745 -0.00188697 0)
(0.000113121 -0.00189499 0)
(0.000110805 -0.00190295 0)
(0.000108876 -0.00191066 0)
(0.000107039 -0.00191834 0)
(0.000377001 -0.00148426 0)
(0.000367854 -0.0015465 0)
(0.00035746 -0.00159854 0)
(0.000346126 -0.00164747 0)
(0.000333202 -0.00168713 0)
(0.000318858 -0.00172255 0)
(0.000302572 -0.00174948 0)
(0.000284952 -0.00177175 0)
(0.000265884 -0.00178723 0)
(0.000248129 -0.00180042 0)
(0.000233658 -0.0018116 0)
(0.000222348 -0.00182279 0)
(0.000213252 -0.00183263 0)
(0.00020582 -0.00184234 0)
(0.000199712 -0.00185115 0)
(0.000194537 -0.00185985 0)
(0.000190207 -0.00186801 0)
(0.000186371 -0.00187607 0)
(0.000183132 -0.00188385 0)
(0.000180065 -0.00189152 0)
(0.00052352 -0.00149607 0)
(0.000509845 -0.00155483 0)
(0.00049427 -0.00160188 0)
(0.000476822 -0.00164526 0)
(0.000457154 -0.00167817 0)
(0.000435175 -0.00170604 0)
(0.000411097 -0.00172552 0)
(0.000386086 -0.0017409 0)
(0.000362274 -0.00175223 0)
(0.000341916 -0.00176384 0)
(0.00032529 -0.00177437 0)
(0.000311496 -0.00178508 0)
(0.000300069 -0.00179469 0)
(0.000290419 -0.00180427 0)
(0.000282326 -0.00181304 0)
(0.000275337 -0.0018217 0)
(0.000269405 -0.00182984 0)
(0.000264108 -0.00183783 0)
(0.000259581 -0.00184555 0)
(0.000255318 -0.00185306 0)
(0.000664165 -0.00150806 0)
(0.000644752 -0.00156064 0)
(0.000622292 -0.0015998 0)
(0.000597815 -0.00163458 0)
(0.00056976 -0.00165768 0)
(0.000540586 -0.00167637 0)
(0.000509848 -0.0016879 0)
(0.000481503 -0.00169911 0)
(0.000456432 -0.00170877 0)
(0.000435094 -0.00171959 0)
(0.000416868 -0.00172924 0)
(0.000401294 -0.00173932 0)
(0.000388021 -0.00174838 0)
(0.00037658 -0.00175754 0)
(0.000366787 -0.00176595 0)
(0.000358213 -0.00177428 0)
(0.000350826 -0.00178214 0)
(0.000344191 -0.00178981 0)
(0.000338446 -0.00179724 0)
(0.000333062 -0.00180439 0)
(0.00079647 -0.00151592 0)
(0.000770132 -0.00155901 0)
(0.000739855 -0.00158722 0)
(0.000707023 -0.00161057 0)
(0.000671352 -0.00162288 0)
(0.000636625 -0.00163362 0)
(0.000604289 -0.00164153 0)
(0.000575616 -0.00165143 0)
(0.000550311 -0.00165995 0)
(0.000528093 -0.00166968 0)
(0.000508726 -0.00167824 0)
(0.000491818 -0.00168737 0)
(0.000477122 -0.00169557 0)
(0.000464259 -0.00170397 0)
(0.000453064 -0.0017117 0)
(0.000443165 -0.00171939 0)
(0.00043452 -0.00172667 0)
(0.000426726 -0.00173375 0)
(0.000419889 -0.00174064 0)
(0.000413524 -0.00174719 0)
(0.000917057 -0.00151351 0)
(0.000882901 -0.00154391 0)
(0.000844397 -0.0015588 0)
(0.000804526 -0.00157069 0)
(0.000765873 -0.00157662 0)
(0.000730178 -0.00158486 0)
(0.000698408 -0.00159147 0)
(0.00066964 -0.00159987 0)
(0.000643966 -0.00160704 0)
(0.000621131 -0.00161526 0)
(0.000600887 -0.00162255 0)
(0.000583009 -0.00163036 0)
(0.000567212 -0.00163748 0)
(0.000553257 -0.00164476 0)
(0.000540934 -0.00165156 0)
(0.000529971 -0.0016583 0)
(0.000520274 -0.00166475 0)
(0.000511519 -0.00167097 0)
(0.000503744 -0.00167709 0)
(0.000496554 -0.00168282 0)
(0.00102506 -0.00149519 0)
(0.000983139 -0.00151207 0)
(0.000938669 -0.0015161 0)
(0.000897457 -0.00152296 0)
(0.000858873 -0.00152685 0)
(0.000824134 -0.00153358 0)
(0.000792145 -0.00153855 0)
(0.000763464 -0.00154519 0)
(0.000737435 -0.00155075 0)
(0.000714214 -0.00155728 0)
(0.000693353 -0.00156308 0)
(0.000674788 -0.00156938 0)
(0.000658209 -0.00157517 0)
(0.00064344 -0.00158113 0)
(0.000630284 -0.00158676 0)
(0.000618502 -0.00159233 0)
(0.000607999 -0.00159773 0)
(0.000598495 -0.00160288 0)
(0.00058998 -0.00160803 0)
(0.000582154 -0.00161277 0)
(0.00112323 -0.00146213 0)
(0.00107634 -0.00146804 0)
(0.00103111 -0.0014689 0)
(0.000990491 -0.0014736 0)
(0.00095235 -0.00147582 0)
(0.000917707 -0.00148028 0)
(0.000885881 -0.00148342 0)
(0.000857107 -0.00148798 0)
(0.000830945 -0.00149175 0)
(0.00080741 -0.00149639 0)
(0.000786169 -0.00150052 0)
(0.000767119 -0.00150513 0)
(0.000750003 -0.00150941 0)
(0.000734659 -0.00151388 0)
(0.000720899 -0.00151815 0)
(0.000708528 -0.00152239 0)
(0.00069742 -0.00152657 0)
(0.000687371 -0.00153051 0)
(0.000678288 -0.00153455 0)
(0.000670002 -0.00153815 0)
(0.00121568 -0.00142061 0)
(0.00116816 -0.00142157 0)
(0.00112362 -0.00142143 0)
(0.00108318 -0.00142294 0)
(0.00104514 -0.00142324 0)
(0.00101089 -0.00142512 0)
(0.000979098 -0.00142626 0)
(0.000950497 -0.00142855 0)
(0.000924256 -0.00143041 0)
(0.00090067 -0.00143303 0)
(0.000879213 -0.00143541 0)
(0.000859939 -0.00143822 0)
(0.000842501 -0.00144092 0)
(0.000826834 -0.00144378 0)
(0.000812693 -0.00144663 0)
(0.000799967 -0.00144942 0)
(0.000788465 -0.0014523 0)
(0.000778084 -0.00145493 0)
(0.000768627 -0.00145777 0)
(0.000760076 -0.00146016 0)
(0.00130797 -0.00137745 0)
(0.00126047 -0.00137549 0)
(0.00121596 -0.00137266 0)
(0.0011755 -0.00137118 0)
(0.00113787 -0.00136913 0)
(0.00110371 -0.00136841 0)
(0.00107225 -0.00136734 0)
(0.00104372 -0.00136735 0)
(0.00101765 -0.00136717 0)
(0.000994048 -0.00136777 0)
(0.000972602 -0.00136829 0)
(0.000953226 -0.00136929 0)
(0.000935677 -0.00137031 0)
(0.000919843 -0.00137154 0)
(0.000905516 -0.00137288 0)
(0.000892599 -0.0013742 0)
(0.000880877 -0.00137572 0)
(0.00087032 -0.00137701 0)
(0.000860643 -0.0013786 0)
(0.000851971 -0.00137975 0)
(0.00140035 -0.00133335 0)
(0.00135229 -0.00132802 0)
(0.00130777 -0.00132216 0)
(0.00126744 -0.00131781 0)
(0.00123005 -0.0013132 0)
(0.00119623 -0.00130995 0)
(0.00116503 -0.00130663 0)
(0.00113683 -0.00130439 0)
(0.00111095 -0.00130219 0)
(0.00108758 -0.00130077 0)
(0.00106624 -0.00129948 0)
(0.00104699 -0.00129868 0)
(0.00102946 -0.00129806 0)
(0.00101368 -0.00129768 0)
(0.000999316 -0.00129755 0)
(0.000986411 -0.0012974 0)
(0.000974627 -0.00129759 0)
(0.000964082 -0.00129754 0)
(0.000954342 -0.00129791 0)
(0.000945721 -0.00129784 0)
(0.00149192 -0.0012882 0)
(0.0014437 -0.00127942 0)
(0.00139926 -0.00127047 0)
(0.0013591 -0.00126325 0)
(0.00132209 -0.00125606 0)
(0.00128858 -0.00125033 0)
(0.00125781 -0.00124476 0)
(0.00122992 -0.00124034 0)
(0.00120441 -0.00123614 0)
(0.00118131 -0.00123279 0)
(0.00116023 -0.0012297 0)
(0.00114118 -0.00122716 0)
(0.00112384 -0.00122493 0)
(0.00110819 -0.00122298 0)
(0.00109395 -0.0012214 0)
(0.00108115 -0.00121983 0)
(0.00106943 -0.00121871 0)
(0.001059 -0.00121736 0)
(0.00104931 -0.00121655 0)
(0.00104082 -0.00121529 0)
(0.00158214 -0.00124185 0)
(0.00153409 -0.00122957 0)
(0.00148994 -0.00121749 0)
(0.00145021 -0.00120743 0)
(0.00141365 -0.00119766 0)
(0.00138067 -0.00118953 0)
(0.00135035 -0.00118175 0)
(0.00132298 -0.00117523 0)
(0.00129788 -0.0011691 0)
(0.00127522 -0.00116389 0)
(0.00125449 -0.0011591 0)
(0.00123582 -0.00115491 0)
(0.00121874 -0.00115116 0)
(0.00120341 -0.00114773 0)
(0.00118937 -0.00114478 0)
(0.00117685 -0.00114189 0)
(0.00116531 -0.00113955 0)
(0.00115514 -0.001137 0)
(0.00114561 -0.00113509 0)
(0.00113741 -0.00113274 0)
(0.00167074 -0.00119488 0)
(0.00162327 -0.00117913 0)
(0.00157971 -0.00116399 0)
(0.00154061 -0.00115114 0)
(0.0015047 -0.00113889 0)
(0.00147234 -0.00112842 0)
(0.00144266 -0.00111854 0)
(0.00141586 -0.00111002 0)
(0.00139132 -0.00110206 0)
(0.00136917 -0.0010951 0)
(0.00134892 -0.00108869 0)
(0.00133067 -0.00108295 0)
(0.00131399 -0.00107777 0)
(0.00129902 -0.00107296 0)
(0.00128531 -0.00106874 0)
(0.00127311 -0.00106459 0)
(0.00126185 -0.00106111 0)
(0.00125197 -0.00105743 0)
(0.00124268 -0.0010545 0)
(0.00123478 -0.00105112 0)
(0.00175733 -0.00114682 0)
(0.00171089 -0.00112776 0)
(0.00166827 -0.00110969 0)
(0.0016301 -0.00109417 0)
(0.00159504 -0.00107952 0)
(0.00156353 -0.00106684 0)
(0.0015346 -0.00105493 0)
(0.00150856 -0.00104452 0)
(0.00148466 -0.00103483 0)
(0.00146318 -0.00102623 0)
(0.00144347 -0.00101831 0)
(0.00142581 -0.00101114 0)
(0.00140957 -0.00100462 0)
(0.00139513 -0.000998546 0)
(0.0013818 -0.000993145 0)
(0.00137008 -0.000987892 0)
(0.00135914 -0.000983371 0)
(0.00134971 -0.000978705 0)
(0.00134075 -0.000974871 0)
(0.00133327 -0.000970609 0)
(0.00184162 -0.0010986 0)
(0.0017966 -0.00107639 0)
(0.00175525 -0.00105557 0)
(0.00171827 -0.00103754 0)
(0.00168429 -0.00102064 0)
(0.00165379 -0.0010059 0)
(0.00162579 -0.000992121 0)
(0.0016006 -0.000979983 0)
(0.00157751 -0.00096869 0)
(0.00155674 -0.000958618 0)
(0.00153772 -0.000949311 0)
(0.00152066 -0.000940861 0)
(0.00150502 -0.000933141 0)
(0.00149109 -0.000925943 0)
(0.00147826 -0.000919493 0)
(0.00146698 -0.000913238 0)
(0.00145649 -0.000907805 0)
(0.00144746 -0.000902235 0)
(0.00143888 -0.000897604 0)
(0.00143178 -0.000892527 0)
(0.00192357 -0.00104954 0)
(0.00188038 -0.00102446 0)
(0.00184064 -0.00100111 0)
(0.00180515 -0.000980756 0)
(0.00177248 -0.000961784 0)
(0.00174322 -0.000945122 0)
(0.0017163 -0.000929604 0)
(0.00169216 -0.000915854 0)
(0.00166997 -0.000903077 0)
(0.00165011 -0.000891631 0)
(0.00163182 -0.000881037 0)
(0.00161556 -0.000871411 0)
(0.00160052 -0.000862561 0)
(0.00158731 -0.000854362 0)
(0.00157498 -0.000846912 0)
(0.00156436 -0.000839813 0)
(0.0015543 -0.000833501 0)
(0.00154586 -0.000827209 0)
(0.0015377 -0.000821859 0)
(0.00153114 -0.00081615 0)
(0.00200266 -0.00100067 0)
(0.00196164 -0.000973011 0)
(0.00192381 -0.00094739 0)
(0.00189003 -0.000924956 0)
(0.00185891 -0.00090413 0)
(0.00183103 -0.000885774 0)
(0.00180537 -0.000868714 0)
(0.00178236 -0.000853571 0)
(0.00176122 -0.000839491 0)
(0.00174227 -0.000826896 0)
(0.00172489 -0.000815186 0)
(0.00170934 -0.000804612 0)
(0.0016951 -0.0007948 0)
(0.00168244 -0.000785817 0)
(0.00167084 -0.000777543 0)
(0.00166063 -0.000769791 0)
(0.00165122 -0.000762798 0)
(0.00164315 -0.000755958 0)
(0.00163557 -0.000750029 0)
(0.00162932 -0.000743858 0)
(0.00207922 -0.000951269 0)
(0.0020407 -0.000921358 0)
(0.00200506 -0.000893751 0)
(0.00197326 -0.000869481 0)
(0.00194389 -0.000847017 0)
(0.00191762 -0.000827143 0)
(0.00189339 -0.000808712 0)
(0.0018717 -0.0007923 0)
(0.00185174 -0.000777052 0)
(0.0018339 -0.000763388 0)
(0.00181748 -0.000750666 0)
(0.0018029 -0.00073919 0)
(0.00178946 -0.000728481 0)
(0.00177768 -0.000718761 0)
(0.00176672 -0.000709652 0)
(0.0017574 -0.00070138 0)
(0.00174848 -0.00069352 0)
(0.00174115 -0.000686265 0)
(0.00173413 -0.000679597 0)
(0.00172854 -0.000673215 0)
(0.00215251 -0.000902253 0)
(0.00211673 -0.000870453 0)
(0.00208352 -0.000841187 0)
(0.00205389 -0.00081538 0)
(0.00202645 -0.000791543 0)
(0.00200189 -0.00077042 0)
(0.00197924 -0.000750841 0)
(0.00195891 -0.000733422 0)
(0.00194024 -0.000717202 0)
(0.00192346 -0.000702738 0)
(0.00190815 -0.00068918 0)
(0.00189436 -0.000677093 0)
(0.00188191 -0.000665654 0)
(0.00187063 -0.000655494 0)
(0.00186068 -0.000645745 0)
(0.00185146 -0.000637168 0)
(0.00184374 -0.000628684 0)
(0.00183618 -0.000621527 0)
(0.00183064 -0.000614172 0)
(0.00182428 -0.000608144 0)
(0.0022231 -0.000853019 0)
(0.00219029 -0.000819695 0)
(0.00215971 -0.000789094 0)
(0.00213244 -0.000762032 0)
(0.00210712 -0.000737087 0)
(0.00208446 -0.000714925 0)
(0.00206353 -0.000694419 0)
(0.00204473 -0.000676137 0)
(0.0020275 -0.000659135 0)
(0.00201197 -0.000643951 0)
(0.00199788 -0.000629732 0)
(0.0019851 -0.000617034 0)
(0.00197372 -0.000605043 0)
(0.00196322 -0.000594333 0)
(0.00195424 -0.000584155 0)
(0.00194558 -0.000574981 0)
(0.00193883 -0.000566345 0)
(0.00193169 -0.000558504 0)
(0.00192696 -0.000551013 0)
(0.00192084 -0.000544089 0)
(0.00229015 -0.000804217 0)
(0.0022605 -0.000769774 0)
(0.00223271 -0.000738196 0)
(0.00220792 -0.000710201 0)
(0.00218483 -0.000684431 0)
(0.00216415 -0.000661501 0)
(0.00214503 -0.000640294 0)
(0.00212782 -0.000621382 0)
(0.00211209 -0.00060378 0)
(0.00209781 -0.000588087 0)
(0.002085 -0.000573343 0)
(0.00207321 -0.000560246 0)
(0.00206295 -0.000547782 0)
(0.00205325 -0.000536782 0)
(0.00204527 -0.000526152 0)
(0.00203727 -0.000516828 0)
(0.00203139 -0.000507711 0)
(0.00202471 -0.000499664 0)
(0.00202091 -0.000491844 0)
(0.00201503 -0.000484647 0)
(0.00235429 -0.000755497 0)
(0.0023279 -0.000720311 0)
(0.00230302 -0.000688102 0)
(0.00228084 -0.000659481 0)
(0.00226009 -0.000633181 0)
(0.00224149 -0.000609722 0)
(0.00222428 -0.000588075 0)
(0.00220875 -0.000568715 0)
(0.00219458 -0.000550751 0)
(0.00218167 -0.000534671 0)
(0.00217016 -0.000519643 0)
(0.00215946 -0.000506199 0)
(0.00215031 -0.000493525 0)
(0.00214147 -0.000482198 0)
(0.00213446 -0.000471438 0)
(0.00212712 -0.00046179 0)
(0.00212213 -0.000452621 0)
(0.00211594 -0.000444279 0)
(0.00211292 -0.00043647 0)
(0.00210746 -0.000429038 0)
(0.00241476 -0.000707189 0)
(0.00239173 -0.000671682 0)
(0.00236983 -0.000639214 0)
(0.00235033 -0.000610301 0)
(0.00233198 -0.000583764 0)
(0.00231552 -0.000560052 0)
(0.00230026 -0.000538194 0)
(0.00228645 -0.000518621 0)
(0.00227388 -0.000500477 0)
(0.00226237 -0.000484222 0)
(0.00225218 -0.000469043 0)
(0.00224263 -0.000455462 0)
(0.00223459 -0.00044267 0)
(0.00222668 -0.000431238 0)
(0.00222061 -0.000420398 0)
(0.00221404 -0.00041067 0)
(0.00220983 -0.000401471 0)
(0.00220427 -0.00039304 0)
(0.0022019 -0.000385297 0)
(0.00219699 -0.00037776 0)
(0.00247206 -0.000659173 0)
(0.00245242 -0.000623721 0)
(0.00243354 -0.000591341 0)
(0.00241674 -0.000562449 0)
(0.00240082 -0.000535974 0)
(0.00238655 -0.000512262 0)
(0.00237326 -0.000490455 0)
(0.00236122 -0.00047087 0)
(0.00235027 -0.000452779 0)
(0.00234019 -0.000436503 0)
(0.00233133 -0.000421389 0)
(0.00232295 -0.000407777 0)
(0.00231601 -0.000395073 0)
(0.00230906 -0.000383602 0)
(0.00230392 -0.000372882 0)
(0.00229814 -0.000363113 0)
(0.00229471 -0.000354073 0)
(0.00228983 -0.000345615 0)
(0.00228809 -0.000338074 0)
(0.00228382 -0.000330544 0)
(0.00252564 -0.000611543 0)
(0.00250938 -0.000576561 0)
(0.00249352 -0.000544634 0)
(0.00247944 -0.000516097 0)
(0.00246595 -0.000489972 0)
(0.00245388 -0.000466538 0)
(0.00244256 -0.000445013 0)
(0.0024323 -0.00042565 0)
(0.00242296 -0.000407796 0)
(0.00241433 -0.000391703 0)
(0.0024068 -0.000376801 0)
(0.0023996 -0.000363342 0)
(0.00239375 -0.000350841 0)
(0.0023878 -0.000339501 0)
(0.00238354 -0.000328988 0)
(0.00237861 -0.00031933 0)
(0.00237588 -0.000310515 0)
(0.00237175 -0.000302147 0)
(0.00237057 -0.000294858 0)
(0.00236699 -0.000287404 0)
(0.00257583 -0.000564312 0)
(0.00256289 -0.000530163 0)
(0.00255 -0.000499023 0)
(0.00253861 -0.000471145 0)
(0.00252752 -0.000445657 0)
(0.00251762 -0.00042275 0)
(0.00250824 -0.000401753 0)
(0.00249976 -0.000382816 0)
(0.002492 -0.00036541 0)
(0.00248483 -0.000349665 0)
(0.00247859 -0.000335155 0)
(0.0024726 -0.000321984 0)
(0.00246781 -0.000309839 0)
(0.00246286 -0.00029874 0)
(0.00245947 -0.000288563 0)
(0.0024554 -0.00027911 0)
(0.00245338 -0.000270624 0)
(0.00245001 -0.000262439 0)
(0.00244937 -0.000255476 0)
(0.00244651 -0.000248197 0)
(0.00262224 -0.000517442 0)
(0.00261256 -0.000484513 0)
(0.00260256 -0.000454501 0)
(0.00259379 -0.000427599 0)
(0.00258504 -0.000403024 0)
(0.00257727 -0.000380906 0)
(0.0025698 -0.000360657 0)
(0.00256305 -0.000342368 0)
(0.00255684 -0.000325588 0)
(0.00255109 -0.000310379 0)
(0.00254612 -0.000296407 0)
(0.00254132 -0.000283683 0)
(0.00253756 -0.000272012 0)
(0.00253361 -0.000261288 0)
(0.00253105 -0.000251541 0)
(0.00252784 -0.000242405 0)
(0.00252647 -0.000234317 0)
(0.00252388 -0.000226401 0)
(0.00252372 -0.000219811 0)
(0.00252159 -0.000212769 0)
(0.00266509 -0.000470995 0)
(0.00265852 -0.000439625 0)
(0.0026513 -0.000411053 0)
(0.00264505 -0.000385408 0)
(0.00263855 -0.000362008 0)
(0.00263284 -0.000340915 0)
(0.00262719 -0.000321637 0)
(0.00262213 -0.000304189 0)
(0.00261741 -0.000288222 0)
(0.00261305 -0.000273711 0)
(0.0026093 -0.000260428 0)
(0.00260566 -0.00024829 0)
(0.00260288 -0.000237212 0)
(0.00259992 -0.000226986 0)
(0.00259814 -0.000217756 0)
(0.0025958 -0.000209049 0)
(0.00259505 -0.000201419 0)
(0.00259323 -0.000193879 0)
(0.00259354 -0.000187702 0)
(0.00259213 -0.000180992 0)
(0.00270413 -0.000424876 0)
(0.00270051 -0.000395411 0)
(0.00269593 -0.000368584 0)
(0.00269208 -0.000344483 0)
(0.00268772 -0.000322505 0)
(0.00268396 -0.000302673 0)
(0.00268006 -0.000284566 0)
(0.0026766 -0.000268158 0)
(0.0026733 -0.000253165 0)
(0.00267026 -0.000239518 0)
(0.00266767 -0.000227057 0)
(0.00266513 -0.00021564 0)
(0.0026633 -0.000205266 0)
(0.00266127 -0.000195645 0)
(0.00266026 -0.00018703 0)
(0.00265872 -0.000178832 0)
(0.00265857 -0.000171748 0)
(0.00265748 -0.000164637 0)
(0.00265823 -0.000158942 0)
(0.00265752 -0.000152602 0)
(0.00273945 -0.000379154 0)
(0.00273859 -0.000351893 0)
(0.00273647 -0.000327088 0)
(0.00273486 -0.000304781 0)
(0.0027325 -0.000284457 0)
(0.00273057 -0.000266096 0)
(0.00272829 -0.000249355 0)
(0.00272634 -0.00023416 0)
(0.00272436 -0.000220305 0)
(0.00272258 -0.000207667 0)
(0.00272106 -0.00019616 0)
(0.00271958 -0.000185591 0)
(0.00271862 -0.000176018 0)
(0.0027175 -0.000167123 0)
(0.00271717 -0.000159175 0)
(0.00271644 -0.000151613 0)
(0.00271681 -0.000145074 0)
(0.00271645 -0.000138529 0)
(0.00271758 -0.000133283 0)
(0.00271752 -0.000127411 0)
(0.00277092 -0.000333715 0)
(0.00277259 -0.000308954 0)
(0.00277274 -0.00028643 0)
(0.00277318 -0.000266161 0)
(0.00277266 -0.000247704 0)
(0.00277242 -0.000231015 0)
(0.00277164 -0.00021581 0)
(0.00277107 -0.000201998 0)
(0.00277032 -0.000189416 0)
(0.00276969 -0.000177927 0)
(0.00276918 -0.000167482 0)
(0.00276865 -0.000157874 0)
(0.00276852 -0.000149195 0)
(0.0027682 -0.000141107 0)
(0.00276856 -0.000133921 0)
(0.0027685 -0.00012704 0)
(0.00276945 -0.000121173 0)
(0.00276966 -0.000115199 0)
(0.00277126 -0.000110609 0)
(0.00277176 -0.000105188 0)
(0.00279857 -0.000288611 0)
(0.00280251 -0.000266602 0)
(0.00280469 -0.000246591 0)
(0.00280699 -0.000228569 0)
(0.00280813 -0.000212171 0)
(0.0028094 -0.000197329 0)
(0.00280997 -0.000183823 0)
(0.00281066 -0.000171536 0)
(0.00281101 -0.000160368 0)
(0.00281142 -0.000150145 0)
(0.00281181 -0.000140883 0)
(0.00281214 -0.000132335 0)
(0.00281275 -0.000124646 0)
(0.00281315 -0.000117461 0)
(0.00281411 -0.000111088 0)
(0.00281469 -0.00010502 0)
(0.0028161 -9.97551e-05 0)
(0.00281692 -9.46339e-05 0)
(0.00281883 -9.02773e-05 0)
(0.00282005 -8.53029e-05 0)
(0.00282231 -0.000243736 0)
(0.00282825 -0.000224714 0)
(0.00283222 -0.000207423 0)
(0.00283615 -0.000191843 0)
(0.00283874 -0.000177673 0)
(0.00284136 -0.000164838 0)
(0.00284311 -0.00015317 0)
(0.00284491 -0.000142542 0)
(0.00284622 -0.000132898 0)
(0.00284757 -0.00012405 0)
(0.00284871 -0.000116062 0)
(0.00284987 -0.000108652 0)
(0.00285105 -0.00010204 0)
(0.0028522 -9.57866e-05 0)
(0.00285357 -9.03365e-05 0)
(0.00285484 -8.50037e-05 0)
(0.0028565 -8.055e-05 0)
(0.00285798 -7.5943e-05 0)
(0.00286002 -7.23263e-05 0)
(0.00286176 -6.83212e-05 0)
(0.00284215 -0.000199117 0)
(0.00284979 -0.000183276 0)
(0.00285528 -0.00016888 0)
(0.0028606 -0.000155904 0)
(0.00286443 -0.000144105 0)
(0.00286818 -0.000133416 0)
(0.00287095 -0.0001237 0)
(0.00287369 -0.000114851 0)
(0.00287583 -0.000106818 0)
(0.00287796 -9.94577e-05 0)
(0.0028798 -9.27992e-05 0)
(0.0028816 -8.66481e-05 0)
(0.00288336 -8.11258e-05 0)
(0.00288505 -7.59551e-05 0)
(0.0028869 -7.13896e-05 0)
(0.00288863 -6.70019e-05 0)
(0.00289069 -6.32688e-05 0)
(0.00289257 -5.94718e-05 0)
(0.00289492 -5.65138e-05 0)
(0.00289699 -5.30699e-05 0)
(0.00285805 -0.00015466 0)
(0.00286707 -0.000142167 0)
(0.00287379 -0.000130815 0)
(0.00288025 -0.000120578 0)
(0.00288507 -0.000111276 0)
(0.00288976 -0.000102841 0)
(0.00289334 -9.51825e-05 0)
(0.00289686 -8.81957e-05 0)
(0.00289966 -8.1868e-05 0)
(0.00290244 -7.60511e-05 0)
(0.00290481 -7.08125e-05 0)
(0.00290716 -6.59427e-05 0)
(0.00290935 -6.16076e-05 0)
(0.00291152 -5.75028e-05 0)
(0.00291371 -5.39307e-05 0)
(0.00291585 -5.04378e-05 0)
(0.00291818 -4.75276e-05 0)
(0.00292043 -4.45121e-05 0)
(0.00292299 -4.22036e-05 0)
(0.00292543 -3.95347e-05 0)
(0.00287 -0.000110376 0)
(0.00288007 -0.000101358 0)
(0.00288773 -9.31638e-05 0)
(0.00289504 -8.57761e-05 0)
(0.00290064 -7.90606e-05 0)
(0.00290603 -7.29749e-05 0)
(0.00291024 -6.74446e-05 0)
(0.00291433 -6.24068e-05 0)
(0.00291765 -5.78353e-05 0)
(0.00292092 -5.36455e-05 0)
(0.00292371 -4.9858e-05 0)
(0.00292647 -4.6356e-05 0)
(0.00292901 -4.32185e-05 0)
(0.00293152 -4.02718e-05 0)
(0.00293399 -3.76855e-05 0)
(0.00293644 -3.51784e-05 0)
(0.00293899 -3.30768e-05 0)
(0.00294151 -3.09016e-05 0)
(0.00294423 -2.92498e-05 0)
(0.00294693 -2.7302e-05 0)
(0.00287796 -6.61729e-05 0)
(0.00288874 -6.07247e-05 0)
(0.00289704 -5.57761e-05 0)
(0.00290492 -5.13111e-05 0)
(0.00291103 -4.72559e-05 0)
(0.0029169 -4.35758e-05 0)
(0.00292152 -4.02375e-05 0)
(0.00292602 -3.71886e-05 0)
(0.00292968 -3.4431e-05 0)
(0.00293327 -3.18923e-05 0)
(0.00293634 -2.96101e-05 0)
(0.00293938 -2.74849e-05 0)
(0.00294214 -2.55974e-05 0)
(0.00294489 -2.38066e-05 0)
(0.00294755 -2.22531e-05 0)
(0.0029502 -2.07297e-05 0)
(0.0029529 -1.94677e-05 0)
(0.0029556 -1.81512e-05 0)
(0.00295843 -1.71556e-05 0)
(0.00296132 -1.59868e-05 0)
(0.00288195 -2.20587e-05 0)
(0.00289309 -2.02361e-05 0)
(0.0029017 -1.85798e-05 0)
(0.00290988 -1.70875e-05 0)
(0.00291624 -1.57297e-05 0)
(0.00292235 -1.45012e-05 0)
(0.00292719 -1.33827e-05 0)
(0.00293188 -1.23667e-05 0)
(0.00293571 -1.14416e-05 0)
(0.00293947 -1.05976e-05 0)
(0.00294268 -9.8307e-06 0)
(0.00294586 -9.12592e-06 0)
(0.00294874 -8.49052e-06 0)
(0.00295161 -7.89753e-06 0)
(0.00295436 -7.37423e-06 0)
(0.00295711 -6.86887e-06 0)
(0.00295988 -6.44492e-06 0)
(0.00296268 -6.00499e-06 0)
(0.00296557 -5.67347e-06 0)
(0.00296854 -5.27837e-06 0)
(0.00297393 -4.73802e-06 0)
(0.00296695 -1.43318e-05 0)
(0.00295308 -2.45382e-05 0)
(0.0029323 -3.55658e-05 0)
(0.00290489 -4.79393e-05 0)
(0.00287071 -6.18065e-05 0)
(0.00283044 -7.76542e-05 0)
(0.00278406 -9.55392e-05 0)
(0.00273155 -0.000116195 0)
(0.00267352 -0.000139447 0)
(0.00261026 -0.000165853 0)
(0.00254194 -0.000195447 0)
(0.0024692 -0.000228549 0)
(0.00239202 -0.000265254 0)
(0.00231125 -0.000305744 0)
(0.00222671 -0.000350169 0)
(0.0021394 -0.000398563 0)
(0.00204891 -0.000451255 0)
(0.00195624 -0.000508177 0)
(0.0018612 -0.000569334 0)
(0.00298267 -3.87619e-06 0)
(0.00297611 -1.18052e-05 0)
(0.00296303 -2.02158e-05 0)
(0.00294348 -2.94851e-05 0)
(0.00291761 -3.98573e-05 0)
(0.00288551 -5.17761e-05 0)
(0.00284744 -6.54155e-05 0)
(0.00280332 -8.12026e-05 0)
(0.00275386 -9.92111e-05 0)
(0.00269888 -0.000119949 0)
(0.00263901 -0.00014346 0)
(0.00257423 -0.000170052 0)
(0.00250524 -0.000199916 0)
(0.00243194 -0.000233118 0)
(0.00235526 -0.00026993 0)
(0.00227489 -0.000310148 0)
(0.00219218 -0.000354194 0)
(0.00210645 -0.000401332 0)
(0.00201951 -0.000452802 0)
(0.00193023 -0.000506613 0)
(0.00299217 -3.36894e-06 0)
(0.00298606 -1.01953e-05 0)
(0.00297392 -1.75165e-05 0)
(0.00295571 -2.55039e-05 0)
(0.00293169 -3.45551e-05 0)
(0.00290177 -4.48268e-05 0)
(0.00286639 -5.67045e-05 0)
(0.00282551 -7.03029e-05 0)
(0.00277935 -8.61239e-05 0)
(0.00272819 -0.000104051 0)
(0.00267233 -0.000124707 0)
(0.00261184 -0.000147883 0)
(0.00254735 -0.000174227 0)
(0.00247863 -0.000203436 0)
(0.00240662 -0.000236284 0)
(0.00233077 -0.000272164 0)
(0.00225232 -0.000312261 0)
(0.00217048 -0.000355103 0)
(0.00208671 -0.00040283 0)
(0.00200041 -0.000452202 0)
(0.00300312 -2.90589e-06 0)
(0.00299737 -8.83552e-06 0)
(0.00298591 -1.51813e-05 0)
(0.00296875 -2.21726e-05 0)
(0.00294607 -3.0114e-05 0)
(0.00291785 -3.91959e-05 0)
(0.00288438 -4.97662e-05 0)
(0.00284562 -6.18935e-05 0)
(0.00280206 -7.59885e-05 0)
(0.00275353 -9.20914e-05 0)
(0.0027007 -0.000110591 0)
(0.00264333 -0.000131396 0)
(0.00258224 -0.000155044 0)
(0.00251709 -0.000181114 0)
(0.00244894 -0.000210512 0)
(0.00237724 -0.000242238 0)
(0.00230332 -0.00027794 0)
(0.00222635 -0.000315644 0)
(0.00214778 -0.000358318 0)
(0.0020665 -0.000402344 0)
(0.00301496 -2.58581e-06 0)
(0.00300959 -7.80632e-06 0)
(0.00299893 -1.3441e-05 0)
(0.00298293 -1.95775e-05 0)
(0.00296182 -2.65928e-05 0)
(0.00293552 -3.45392e-05 0)
(0.00290436 -4.38338e-05 0)
(0.00286829 -5.44504e-05 0)
(0.00282761 -6.69027e-05 0)
(0.00278237 -8.09893e-05 0)
(0.00273296 -9.74132e-05 0)
(0.0026793 -0.000115725 0)
(0.00262201 -0.000136888 0)
(0.00256077 -0.000160079 0)
(0.00249647 -0.00018669 0)
(0.00242855 -0.000215218 0)
(0.00235817 -0.000247842 0)
(0.00228465 -0.000281853 0)
(0.00220931 -0.000320831 0)
(0.00213154 -0.00036024 0)
(0.00302823 -2.37251e-06 0)
(0.00302316 -7.16451e-06 0)
(0.00301307 -1.23323e-05 0)
(0.00299796 -1.79487e-05 0)
(0.00297797 -2.43761e-05 0)
(0.00295309 -3.16156e-05 0)
(0.00292357 -4.01069e-05 0)
(0.00288937 -4.97202e-05 0)
(0.00285088 -6.10113e-05 0)
(0.00280797 -7.37038e-05 0)
(0.00276121 -8.849e-05 0)
(0.00271036 -0.000104846 0)
(0.00265617 -0.000123769 0)
(0.00259828 -0.000144269 0)
(0.00253759 -0.000167942 0)
(0.00247361 -0.000193003 0)
(0.00240735 -0.000222056 0)
(0.0023382 -0.000252066 0)
(0.00226717 -0.000287076 0)
(0.00219364 -0.000322283 0)
(0.0030426 -2.17987e-06 0)
(0.00303787 -6.54301e-06 0)
(0.00302845 -1.12702e-05 0)
(0.00301433 -1.63505e-05 0)
(0.00299567 -2.21761e-05 0)
(0.00297242 -2.86779e-05 0)
(0.00294484 -3.63229e-05 0)
(0.00291288 -4.49272e-05 0)
(0.00287684 -5.50938e-05 0)
(0.00283669 -6.64346e-05 0)
(0.00279279 -7.97984e-05 0)
(0.00274505 -9.44555e-05 0)
(0.00269398 -0.000111645 0)
(0.00263935 -0.000130101 0)
(0.00258184 -0.000151668 0)
(0.00252114 -0.000174262 0)
(0.00245801 -0.000200652 0)
(0.00239217 -0.000227589 0)
(0.00232436 -0.000259191 0)
(0.00225438 -0.000290629 0)
(0.00305821 -2.1147e-06 0)
(0.00305372 -6.33172e-06 0)
(0.00304479 -1.08911e-05 0)
(0.00303141 -1.57418e-05 0)
(0.0030137 -2.12833e-05 0)
(0.00299166 -2.73822e-05 0)
(0.00296549 -3.4534e-05 0)
(0.00293517 -4.24607e-05 0)
(0.00290102 -5.18152e-05 0)
(0.00286294 -6.21056e-05 0)
(0.00282138 -7.42264e-05 0)
(0.00277619 -8.73511e-05 0)
(0.00272791 -0.000102784 0)
(0.00267633 -0.000119158 0)
(0.00262206 -0.000138444 0)
(0.00256486 -0.000158438 0)
(0.00250529 -0.000182106 0)
(0.0024432 -0.000206023 0)
(0.00237902 -0.000234514 0)
(0.00231278 -0.000262561 0)
(0.00307512 -2.01933e-06 0)
(0.00307091 -6.02059e-06 0)
(0.00306254 -1.03503e-05 0)
(0.00305 -1.49104e-05 0)
(0.0030334 -2.01107e-05 0)
(0.00301273 -2.57788e-05 0)
(0.00298818 -3.24213e-05 0)
(0.00295973 -3.9725e-05 0)
(0.00292761 -4.83658e-05 0)
(0.00289181 -5.77934e-05 0)
(0.00285262 -6.89647e-05 0)
(0.00281001 -8.09489e-05 0)
(0.00276432 -9.51397e-05 0)
(0.00271552 -0.000110037 0)
(0.00266396 -0.000127676 0)
(0.00260969 -0.000145765 0)
(0.00255296 -0.000167217 0)
(0.00249399 -0.000188744 0)
(0.00243284 -0.000214316 0)
(0.00236991 -0.000239562 0)
(0.00309303 -2.03894e-06 0)
(0.00308904 -6.06255e-06 0)
(0.00308108 -1.0397e-05 0)
(0.00306917 -1.49062e-05 0)
(0.00305339 -2.00048e-05 0)
(0.00303377 -2.5471e-05 0)
(0.00301044 -3.18259e-05 0)
(0.00298344 -3.86955e-05 0)
(0.00295296 -4.67785e-05 0)
(0.00291902 -5.54655e-05 0)
(0.00288189 -6.57308e-05 0)
(0.00284157 -7.66128e-05 0)
(0.00279834 -8.95009e-05 0)
(0.00275224 -0.000102923 0)
(0.00270349 -0.000118855 0)
(0.00265225 -0.000135132 0)
(0.00259858 -0.000154476 0)
(0.00254282 -0.000173879 0)
(0.00248483 -0.000196916 0)
(0.00242519 -0.000219661 0)
(0.00311237 -2.01905e-06 0)
(0.00310861 -5.99006e-06 0)
(0.00310112 -1.0258e-05 0)
(0.00308991 -1.46632e-05 0)
(0.00307506 -1.96183e-05 0)
(0.00305658 -2.48828e-05 0)
(0.00303459 -3.09738e-05 0)
(0.00300914 -3.75027e-05 0)
(0.00298036 -4.51626e-05 0)
(0.00294832 -5.33276e-05 0)
(0.00291316 -6.29638e-05 0)
(0.00287501 -7.30923e-05 0)
(0.00283398 -8.50743e-05 0)
(0.00279028 -9.74453e-05 0)
(0.00274393 -0.000112098 0)
(0.00269529 -0.000126955 0)
(0.00264421 -0.000144562 0)
(0.00259127 -0.000162136 0)
(0.00253608 -0.000182954 0)
(0.00247945 -0.000203454 0)
(0.00313254 -2.08674e-06 0)
(0.00312897 -6.18121e-06 0)
(0.00312184 -1.05548e-05 0)
(0.00311118 -1.50228e-05 0)
(0.00309704 -1.99927e-05 0)
(0.00307947 -2.51979e-05 0)
(0.00305857 -3.11503e-05 0)
(0.00303439 -3.74382e-05 0)
(0.00300706 -4.47454e-05 0)
(0.00297666 -5.24396e-05 0)
(0.00294332 -6.14587e-05 0)
(0.00290718 -7.08585e-05 0)
(0.0028683 -8.19276e-05 0)
(0.00282693 -9.33079e-05 0)
(0.00278302 -0.000106735 0)
(0.00273698 -0.000120341 0)
(0.00268856 -0.000136386 0)
(0.00263839 -0.000152424 0)
(0.00258599 -0.000171304 0)
(0.00253229 -0.000189931 0)
(0.00315416 -2.12286e-06 0)
(0.00315078 -6.28494e-06 0)
(0.00314404 -1.07119e-05 0)
(0.00313397 -1.52115e-05 0)
(0.0031206 -2.01792e-05 0)
(0.003104 -2.53456e-05 0)
(0.00308421 -3.12043e-05 0)
(0.00306133 -3.73489e-05 0)
(0.00303542 -4.44324e-05 0)
(0.00300663 -5.184e-05 0)
(0.00297497 -6.04574e-05 0)
(0.00294069 -6.93804e-05 0)