/*--------------------------------*- C++ -*----------------------------------*\
| =========                 |                                                 |
| \\      /  F ield         | OpenFOAM: The Open Source CFD Toolbox           |
|  \\    /   O peration     | Version:  v2012                                 |
|   \\  /    A nd           | Website:  www.openfoam.com                      |
|    \\/     M anipulation  |                                                 |
\*---------------------------------------------------------------------------*/
FoamFile
{
    version     2.0;
    format      ascii;
    class       volSymmTensorField;
    location    "8";
    object      epsilon;
}
// * * * * * * * * * * * * * * * * * * * * * * * * * * * * * * * * * * * * * //

dimensions      [0 0 0 0 0 0 0];


internalField   nonuniform List<symmTensor> 
4000
(
(0.00798352 -0.000267131 -1.32395e-18 -0.00559725 2.34831e-18 7.69747e-33)
(0.00761861 -0.000249826 8.06027e-20 -0.00515673 2.86494e-18 0)
(0.00725695 -0.000232927 -8.8181e-26 -0.00468354 -2.82621e-24 0)
(0.00689778 -0.000217401 2.15019e-18 -0.00425664 -2.35236e-18 0)
(0.00653318 -0.000200127 -3.22019e-18 -0.00379831 -2.13949e-18 0)
(0.00616202 -0.000183382 5.86551e-20 -0.00337205 9.36158e-19 0)
(0.00577283 -0.000162942 -1.75812e-18 -0.00291315 -4.21072e-20 0)
(0.00537649 -0.000140751 0 -0.00248459 0 0)
(0.00495958 -0.000120824 1.67704e-19 -0.00203431 1.12759e-18 0)
(0.00452622 -9.51992e-05 1.38738e-18 -0.00159202 5.22967e-19 0)
(0.00410577 -6.1721e-05 -1.77766e-19 -0.00118933 -6.57208e-19 0)
(0.00375417 -2.00884e-05 -1.43971e-19 -0.000950546 -5.24482e-19 0)
(0.00348764 1.57541e-05 -5.26278e-20 -0.000831175 -2.29126e-19 0)
(0.00327357 3.75236e-05 8.07467e-20 -0.000760977 4.19335e-19 0)
(0.00309878 5.04998e-05 4.34434e-19 -0.000705934 2.33898e-19 0)
(0.00295101 5.92118e-05 -2.5647e-20 -0.000674283 -1.85691e-19 0)
(0.00282552 6.42389e-05 -3.75226e-19 -0.000649041 -2.14515e-19 0)
(0.00271409 6.78194e-05 -6.85942e-19 -0.00063646 -2.43716e-19 0)
(0.00261715 6.94201e-05 -3.16543e-19 -0.000626416 -3.27677e-20 0)
(0.00252657 7.10021e-05 -5.75031e-19 -0.000623111 1.66889e-19 0)
(0.00788264 -0.000793583 1.44807e-19 -0.00549885 1.5534e-18 3.50308e-33)
(0.00751953 -0.000741351 1.41046e-18 -0.00505929 1.37765e-18 0)
(0.00714843 -0.000690904 9.32436e-19 -0.00457661 -2.57282e-18 0)
(0.00677341 -0.000639817 2.35667e-18 -0.00413592 1.08893e-18 0)
(0.00638682 -0.000584455 -3.05953e-18 -0.00365807 3.06302e-20 0)
(0.00598489 -0.000527651 -6.40544e-25 -0.00320731 -3.14956e-24 0)
(0.00556929 -0.000461641 8.8252e-21 -0.00273032 3.24429e-20 0)
(0.00514149 -0.000394831 -2.01066e-18 -0.00227973 -1.40684e-18 0)
(0.00470519 -0.000328346 0 -0.00182079 0 0)
(0.00429106 -0.000254106 2.13282e-18 -0.00141298 7.18615e-19 0)
(0.00394101 -0.000150504 3.22709e-25 -0.00110309 3.7994e-25 0)
(0.0036775 -3.83958e-05 -3.86644e-19 -0.00096054 -5.05021e-19 0)
(0.00345757 4.8525e-05 -1.46966e-19 -0.000875452 -2.29034e-19 0)
(0.00327007 0.000103534 1.15487e-19 -0.000812785 2.11905e-19 0)
(0.00311056 0.000139845 4.98429e-19 -0.000763083 3.05678e-19 0)
(0.00297107 0.00016427 -3.06069e-19 -0.000730498 8.37943e-20 0)
(0.00284984 0.000180065 -2.94902e-19 -0.00070303 8.439e-20 0)
(0.00274062 0.000191341 -7.30592e-19 -0.000687274 -3.66446e-19 0)
(0.00264413 0.00019746 8.0545e-22 -0.000673326 2.98808e-21 0)
(0.00255381 0.000203019 -7.2383e-19 -0.000666823 -4.76023e-19 0)
(0.00768295 -0.00129415 1.59588e-18 -0.00530253 1.36299e-18 3.33671e-33)
(0.00730375 -0.00120677 1.46625e-18 -0.00484779 1.26906e-18 0)
(0.00690564 -0.00111162 -2.34739e-19 -0.00434006 -1.24717e-18 0)
(0.00649084 -0.00101746 -5.64342e-19 -0.00386528 2.16277e-18 0)
(0.00605541 -0.000910346 1.97208e-18 -0.00334615 6.97067e-20 0)
(0.00560252 -0.000800752 2.40342e-19 -0.00285725 -1.49801e-18 0)
(0.0051418 -0.000682575 7.1518e-19 -0.00234955 1.24566e-18 0)
(0.00468917 -0.000565354 1.68979e-20 -0.00189266 2.11192e-20 0)
(0.00427483 -0.000452103 -2.5789e-18 -0.00147383 -1.49121e-18 0)
(0.00396262 -0.000321904 9.94222e-19 -0.00120284 4.87121e-19 0)
(0.00375133 -0.000171222 8.96298e-19 -0.00106262 4.54916e-19 0)
(0.00358097 -2.83991e-05 -3.79113e-20 -0.00100535 -2.93773e-19 0)
(0.00341629 7.45769e-05 -1.16851e-18 -0.00094566 -5.98365e-19 0)
(0.00326416 0.000147153 -2.65714e-19 -0.000898691 3.49215e-20 0)
(0.003126 0.000199363 2.92673e-19 -0.000853351 4.04247e-19 0)
(0.00300007 0.000237216 1.24271e-19 -0.00082177 1.97562e-19 0)
(0.00288641 0.000263847 3.68364e-19 -0.000791225 1.59216e-19 0)
(0.00278218 0.000284189 -5.26581e-19 -0.000771996 -5.16571e-19 0)
(0.0026876 0.000296929 -1.34491e-21 -0.000752602 -3.02267e-21 0)
(0.00259889 0.000308315 -5.69267e-19 -0.000741834 -5.43106e-19 0)
(0.00736089 -0.00174977 -2.27057e-18 -0.00498462 1.70986e-18 3.03059e-33)
(0.00693245 -0.00160529 6.14354e-19 -0.00448622 2.55379e-18 0)
(0.00647088 -0.00145144 1.1276e-18 -0.00392065 6.52639e-21 0)
(0.00599586 -0.00129785 -3.85932e-19 -0.00339802 -9.25249e-19 0)
(0.00548948 -0.00112459 1.84805e-18 -0.00282287 -1.30303e-18 0)
(0.00500012 -0.000957051 9.86636e-19 -0.00231674 1.21572e-18 0)
(0.0045267 -0.000785613 5.64047e-19 -0.00182183 4.82035e-19 0)
(0.00413547 -0.000630813 1.98293e-18 -0.00144808 6.84985e-19 0)
(0.00386823 -0.000474336 9.39145e-20 -0.00120847 -9.72482e-21 0)
(0.00371599 -0.000311709 -9.55372e-19 -0.00112754 -4.96329e-19 0)
(0.00361405 -0.000155498 1.07684e-18 -0.00109857 4.96101e-19 0)
(0.00349735 -2.20758e-05 3.21026e-19 -0.00107227 2.28348e-19 0)
(0.00337438 8.22848e-05 2.82364e-19 -0.00102806 2.29502e-19 0)
(0.00325218 0.00016289 -1.12506e-18 -0.000992738 -6.67582e-19 0)
(0.0031352 0.000225914 -4.24662e-19 -0.000951979 -2.22312e-19 0)
(0.00302442 0.000274954 3.9775e-19 -0.000922422 2.11577e-19 0)
(0.00292097 0.000312224 6.59022e-19 -0.000890534 5.77198e-19 0)
(0.00282427 0.00034215 7.2028e-19 -0.000869227 4.06169e-19 0)
(0.00273411 0.000363182 -3.39129e-19 -0.00084563 -1.92214e-19 0)
(0.00264908 0.000381668 3.35251e-19 -0.000831371 2.75845e-19 0)
(0.00685408 -0.00210934 -1.24086e-18 -0.00448407 1.94367e-19 -8.16861e-37)
(0.00635843 -0.0018891 2.70282e-19 -0.00393595 -2.29225e-18 0)
(0.00581838 -0.0016536 -5.23582e-19 -0.00330197 -9.67297e-19 0)
(0.00527592 -0.00142948 9.23489e-19 -0.00273253 9.43732e-20 0)
(0.00473472 -0.00118535 -1.40607e-20 -0.00214368 -1.23273e-20 0)
(0.00426751 -0.000971545 -6.24403e-20 -0.00169014 1.63395e-19 0)
(0.00391879 -0.000783408 1.32345e-18 -0.00133952 5.55109e-19 0)
(0.00371874 -0.000605704 -3.0183e-20 -0.00118997 5.91855e-20 0)
(0.00363034 -0.000443601 5.61901e-19 -0.00115246 2.88108e-19 0)
(0.00357498 -0.000292263 0 -0.00116553 0 0)
(0.00350689 -0.00015331 4.18667e-19 -0.00114986 2.17975e-19 0)
(0.00342065 -3.32578e-05 -1.01815e-18 -0.00113538 -5.62306e-19 0)
(0.00332515 6.96232e-05 1.26945e-18 -0.00110117 7.54405e-19 0)
(0.00322747 0.000154709 9.98175e-19 -0.00107532 6.78912e-19 0)
(0.00312965 0.000225334 2.07275e-19 -0.00104006 7.1885e-20 0)
(0.00303497 0.000283265 -1.99771e-19 -0.00101466 -1.87527e-19 0)
(0.00294344 0.000329892 2.14843e-19 -0.00098396 6.81595e-20 0)
(0.00285678 0.000368575 3.62198e-19 -0.000963121 2.32247e-19 0)
(0.00277353 0.000398103 -2.14681e-19 -0.000937753 -6.61784e-20 0)
(0.00269457 0.000423721 7.64867e-19 -0.000921884 4.12561e-19 0)
(0.00612528 -0.00230439 2.3013e-18 -0.0037697 -3.13942e-19 -6.17596e-37)
(0.0055627 -0.00198745 -4.66591e-19 -0.0031899 8.32757e-19 0)
(0.00496605 -0.00167379 9.7573e-19 -0.00250652 1.71536e-19 0)
(0.00440077 -0.0013837 -7.53252e-19 -0.00194634 -4.69727e-19 0)
(0.00394016 -0.00111716 -1.48032e-18 -0.0014631 -5.81061e-19 0)
(0.00368051 -0.000914039 -1.47705e-18 -0.00123731 -5.52562e-19 0)
(0.00356762 -0.000735004 -7.50192e-19 -0.0011552 -1.97163e-19 0)
(0.00352546 -0.000575511 6.95235e-19 -0.00117635 5.6437e-20 0)
(0.00350299 -0.000431586 -5.71666e-19 -0.00118522 -3.22813e-19 0)
(0.00346257 -0.000297594 -1.65079e-18 -0.00120005 -8.5376e-19 0)
(0.00340636 -0.000171337 -1.77766e-19 -0.00118668 -2.36001e-19 0)
(0.00334008 -5.67108e-05 -8.99816e-19 -0.00118047 -5.06825e-19 0)
(0.00326526 4.45221e-05 -6.83954e-19 -0.00115506 -3.80522e-19 0)
(0.00318778 0.000132529 4.53974e-19 -0.00113836 2.93559e-19 0)
(0.00310752 0.000207849 2.51947e-19 -0.00110977 1.71711e-19 0)
(0.00302871 0.000272298 4.2008e-19 -0.00109038 2.87092e-19 0)
(0.00294999 0.000325991 1.99616e-19 -0.00106304 1.63432e-19 0)
(0.00287477 0.000371793 7.48217e-19 -0.00104501 6.03512e-19 0)
(0.00280034 0.00040869 -6.85344e-19 -0.00102024 -5.76414e-19 0)
(0.00272924 0.000440605 -9.11865e-21 -0.00100477 -3.63022e-20 0)
(0.00518424 -0.0022753 1.83666e-18 -0.00286887 1.00124e-18 4.72956e-33)
(0.0045952 -0.00187515 -1.70409e-18 -0.00229277 -7.32486e-19 0)
(0.00402119 -0.00153102 -1.81037e-18 -0.00165104 -7.38054e-19 0)
(0.00364634 -0.00125327 1.93251e-18 -0.00130311 3.37863e-19 0)
(0.00345548 -0.00103396 1.81194e-19 -0.00111629 -2.05524e-19 0)
(0.00341275 -0.000866915 -1.10456e-19 -0.00113795 2.16143e-19 0)
(0.00340723 -0.000715051 -7.09713e-19 -0.00115786 -1.56252e-19 0)
(0.00340144 -0.000578939 -6.0771e-19 -0.0011919 -3.54766e-19 0)
(0.0033767 -0.000444601 1.76469e-18 -0.00119646 8.70668e-19 0)
(0.00334491 -0.000315957 -5.93694e-19 -0.00121273 -5.16746e-19 0)
(0.00330164 -0.000195653 9.20581e-21 -0.00120584 3.35887e-21 0)
(0.00325198 -8.47539e-05 -8.23542e-19 -0.00120714 -3.38425e-19 0)
(0.00319462 1.43988e-05 -8.58537e-19 -0.00119103 -4.95523e-19 0)
(0.00313445 0.000103474 1.79583e-19 -0.00118237 1.02944e-21 0)
(0.00307046 0.000180866 -1.17323e-18 -0.00116171 -7.88038e-19 0)
(0.00300651 0.000249258 -6.86481e-19 -0.00114847 -4.67876e-19 0)
(0.00294101 0.000307436 -6.31187e-19 -0.00112641 -4.5022e-19 0)
(0.00287757 0.000358177 1.9209e-19 -0.00111215 1.35553e-19 0)
(0.00281327 0.000400566 7.40051e-19 -0.00109013 5.6847e-19 0)
(0.002751 0.000437292 -5.21455e-19 -0.00107628 -4.19488e-19 0)
(0.0042038 -0.00207475 -3.95184e-20 -0.00195293 1.46297e-19 1.49938e-34)
(0.0036912 -0.00166425 2.64942e-18 -0.00147591 8.94981e-19 0)
(0.00336309 -0.00137761 -2.25605e-18 -0.00109113 -1.0967e-18 0)
(0.00327292 -0.00117154 7.53486e-19 -0.00107448 3.90477e-19 0)
(0.00325704 -0.00100891 -3.24161e-19 -0.00107279 5.61522e-19 0)
(0.00327587 -0.000863 -9.30597e-19 -0.001134 1.33033e-19 0)
(0.00326897 -0.000726515 -5.89165e-19 -0.00114212 -6.36852e-19 0)
(0.00326288 -0.000590426 -6.20272e-19 -0.00117984 -3.74697e-19 0)
(0.00324615 -0.000460065 -6.11188e-19 -0.00118762 -6.11526e-19 0)
(0.00322482 -0.0003359 1.09932e-18 -0.0012105 5.02153e-19 0)
(0.0031943 -0.000220762 5.35233e-19 -0.00121082 3.58302e-19 0)
(0.00315863 -0.000113532 5.22608e-25 -0.00121981 1.6874e-25 0)
(0.00311657 -1.67274e-05 -8.70891e-19 -0.00121241 -4.81237e-19 0)
(0.0030712 7.13737e-05 -1.36901e-19 -0.00121145 -2.1263e-19 0)
(0.0030219 0.000149423 3.03343e-19 -0.00119852 1.28427e-19 0)
(0.00297149 0.000219133 -6.9725e-19 -0.00119163 -4.54685e-19 0)
(0.00291867 0.000280037 -2.2347e-25 -0.00117532 -1.11044e-25 0)
(0.00286666 0.00033336 -1.18749e-18 -0.00116554 -9.5554e-19 0)
(0.00281282 0.000379666 1.80642e-19 -0.00114726 1.97922e-19 0)
(0.00275966 0.000419424 -7.38521e-19 -0.00113596 -5.66843e-19 0)
(0.00339703 -0.0018391 -1.55035e-18 -0.00122099 -9.54383e-20 1.63857e-35)
(0.00312687 -0.00151466 1.03257e-18 -0.00100977 7.30671e-20 0)
(0.00308446 -0.00133808 -9.96924e-19 -0.000949789 -4.95535e-20 0)
(0.00310032 -0.00116304 -1.87734e-18 -0.00103534 -1.37417e-19 0)
(0.00310865 -0.0010245 1.51305e-18 -0.00103533 4.57495e-19 0)
(0.00311697 -0.000873523 1.68444e-18 -0.00109507 -1.61349e-19 0)
(0.00311771 -0.000734896 -5.29551e-19 -0.00110864 -6.98767e-19 0)
(0.00311995 -0.000599935 -6.05359e-19 -0.00115329 -3.87146e-19 0)
(0.0031126 -0.000474248 -1.74117e-18 -0.00116792 -8.53394e-19 0)
(0.0031021 -0.00035435 -1.07853e-18 -0.0011973 -1.92995e-19 0)
(0.00308356 -0.000243945 4.81967e-19 -0.00120569 9.62345e-20 0)
(0.00306103 -0.000140817 1.04649e-18 -0.00122208 7.43054e-19 0)
(0.0030322 -4.71777e-05 -4.52382e-25 -0.00122284 -1.15195e-25 0)
(0.00300043 3.8593e-05 3.5737e-19 -0.0012292 1.00956e-19 0)
(0.00296406 0.000115536 1.45326e-19 -0.00122342 2.5758e-19 0)
(0.0029263 0.000184715 5.95254e-19 -0.00122282 5.99354e-19 0)
(0.00288519 0.000246296 6.80557e-19 -0.00121215 4.3573e-19 0)
(0.0028442 0.000300324 8.15361e-19 -0.00120713 6.7286e-19 0)
(0.00280058 0.000348622 -7.83482e-19 -0.00119295 -6.60255e-19 0)
(0.00275651 0.000389824 1.96211e-19 -0.00118474 8.74234e-20 0)
(0.00293874 -0.00170922 -2.42705e-18 -0.00086224 2.0507e-20 9.48422e-34)
(0.00288355 -0.00150172 -1.03505e-18 -0.000862656 2.32883e-21 0)
(0.00290846 -0.00134743 0 -0.000895463 0 0)
(0.0029174 -0.00117126 -8.68932e-19 -0.000948936 -9.85727e-21 0)
(0.00293162 -0.00102627 -2.21898e-18 -0.00097889 -8.24046e-19 0)
(0.00295234 -0.000871119 1.01499e-19 -0.00103847 -3.79945e-19 0)
(0.00296312 -0.000738441 1.33615e-18 -0.00106881 4.32975e-19 0)
(0.00297529 -0.000604555 1.2352e-18 -0.00111703 8.01433e-19 0)
(0.00297858 -0.000485138 1.76721e-18 -0.00114279 1.18889e-18 0)
(0.00297911 -0.00036942 -5.22849e-19 -0.00117782 -5.13556e-20 0)
(0.00297225 -0.000264779 -9.68112e-19 -0.00119544 -1.10931e-19 0)
(0.00296153 -0.000166098 -1.69898e-20 -0.00121818 -2.33082e-21 0)
(0.00294487 -7.67509e-05 3.95568e-19 -0.00122705 6.13048e-20 0)
(0.00292493 5.69055e-06 4.78131e-19 -0.00123963 3.71235e-19 0)
(0.00290035 8.01565e-05 6.03309e-19 -0.00124076 6.68053e-19 0)
(0.00287369 0.000147427 -2.96642e-19 -0.00124562 -6.54901e-20 0)
(0.00284343 0.000208205 -4.66606e-21 -0.00124048 -1.11075e-21 0)
(0.00281234 0.000261513 1.12466e-18 -0.00123977 5.33326e-19 0)
(0.00277846 0.000310366 6.24411e-19 -0.00122983 4.03544e-19 0)
(0.00274282 0.000351767 3.67393e-19 -0.00122463 5.52756e-19 0)
(0.00268843 -0.00171691 -1.41108e-18 -0.000710038 5.68733e-19 9.7978e-35)
(0.00268648 -0.001519 -1.0826e-18 -0.000748794 6.62348e-20 0)
(0.00270452 -0.00133825 5.38622e-19 -0.000799443 8.828e-19 0)
(0.0027275 -0.00116069 6.83732e-19 -0.00086348 4.18433e-19 0)
(0.00275842 -0.00101183 1.68473e-18 -0.00091657 -8.15547e-20 0)
(0.00278514 -0.000862469 1.67832e-20 -0.000980066 -6.23968e-22 0)
(0.00281054 -0.000731626 -1.17858e-19 -0.00102614 8.65317e-19 0)
(0.00283115 -0.000604803 -6.8945e-19 -0.00107979 4.27898e-19 0)
(0.00284659 -0.000490099 1.1524e-18 -0.00111618 4.06103e-19 0)
(0.00285704 -0.000381617 1.09018e-18 -0.00115725 4.10843e-19 0)
(0.00286145 -0.000282192 1.03082e-18 -0.00118302 4.11264e-19 0)
(0.00286133 -0.000189914 -1.03803e-18 -0.00121189 -7.84855e-19 0)
(0.00285555 -0.000105057 -3.96702e-19 -0.00122753 -2.31142e-20 0)
(0.00284619 -2.76327e-05 -8.47886e-19 -0.00124589 -4.08581e-19 0)
(0.00283198 4.35977e-05 -4.76315e-19 -0.00125265 -3.75431e-19 0)
(0.00281532 0.000107317 -1.05931e-18 -0.00126257 -1.07437e-18 0)
(0.00279474 0.000166203 -8.68551e-19 -0.00126204 -7.23784e-19 0)
(0.00277268 0.000217231 -2.38956e-19 -0.00126542 -3.16617e-20 0)
(0.00274777 0.000265409 5.80377e-19 -0.00125919 6.65918e-19 0)
(0.00271994 0.000305652 4.52726e-19 -0.00125699 2.15508e-19 0)
(0.00242235 -0.00172678 1.99674e-18 -0.000551136 2.47687e-19 7.40954e-36)
(0.00245092 -0.00150524 -2.09753e-18 -0.000629687 2.7048e-19 0)
(0.00249608 -0.00131296 -1.02146e-18 -0.000706895 1.31025e-19 0)
(0.00253787 -0.00114082 1.93926e-19 -0.000787532 -5.38916e-19 0)
(0.00258197 -0.00098937 6.7508e-19 -0.000855915 4.27795e-19 0)
(0.00262343 -0.000847637 5.61065e-19 -0.000929611 9.34225e-19 0)
(0.00265925 -0.000721208 6.10496e-19 -0.000986427 4.25243e-19 0)
(0.00269186 -0.000601953 2.83844e-20 -0.00104737 -4.7717e-19 0)
(0.00271697 -0.000493893 -1.17361e-18 -0.00109194 -8.30476e-19 0)
(0.00273815 -0.000392618 -1.09538e-18 -0.00113904 -3.74483e-19 0)
(0.00275209 -0.00029989 4.68199e-19 -0.00117153 -2.75499e-20 0)
(0.00276201 -0.000213975 9.63465e-19 -0.00120575 3.79381e-19 0)
(0.00276564 -0.000134852 1.02054e-18 -0.0012271 7.85752e-19 0)
(0.00276575 -6.26101e-05 3.64188e-19 -0.00125025 -8.6223e-21 0)
(0.00276063 4.24828e-06 -1.38271e-19 -0.00126187 -3.8555e-19 0)
(0.00275275 6.40559e-05 4.6836e-19 -0.00127595 3.73513e-19 0)
(0.00274077 0.00011998 -3.5376e-19 -0.00127944 3.66469e-19 0)
(0.00272661 0.000168273 6.06468e-19 -0.00128623 7.17607e-19 0)
(0.00270977 0.000214765 2.24105e-19 -0.00128329 2.43928e-21 0)
(0.00268888 0.000253391 -8.69796e-19 -0.00128372 -5.4716e-19 0)
(0.00213394 -0.00168984 2.31921e-18 -0.000400761 -1.94032e-19 9.86952e-34)
(0.00221032 -0.00146966 5.20874e-19 -0.000518335 -1.26628e-18 0)
(0.00227936 -0.00127944 -7.06416e-19 -0.00061802 -4.40183e-19 0)
(0.00234624 -0.00111135 -1.608e-18 -0.000717995 -2.61838e-19 0)
(0.00240683 -0.000964614 -8.13456e-19 -0.000801298 1.54496e-19 0)
(0.00246276 -0.000829997 -1.63411e-20 -0.000885056 2.98358e-21 0)
(0.0025114 -0.000709873 -5.83563e-19 -0.000952279 -9.81086e-19 0)
(0.00255471 -0.000598777 1.85188e-18 -0.00101984 7.46414e-19 0)
(0.00259044 -0.000497571 1.17152e-18 -0.00107189 3.2691e-19 0)
(0.00262089 -0.000404335 -5.06005e-19 -0.00112415 7.67299e-20 0)
(0.0026442 -0.000318139 -4.60997e-19 -0.00116233 6.71426e-20 0)
(0.00266277 -0.000239495 1.99343e-19 -0.00120096 9.23247e-19 0)
(0.002675 -0.000166034 -1.48065e-20 -0.00122684 1.94407e-21 0)
(0.00268326 -9.99746e-05 2.04528e-19 -0.00125386 -4.75273e-19 0)
(0.0026862 -3.76582e-05 1.51755e-19 -0.00126919 4.21698e-19 0)
(0.00268591 1.7152e-05 1.07876e-18 -0.00128661 1.16139e-18 0)
(0.00268155 6.96887e-05 1.73169e-19 -0.00129317 3.99584e-19 0)
(0.00267427 0.000114147 -8.67578e-19 -0.00130271 -7.2225e-19 0)
(0.00266471 0.000158296 4.31324e-19 -0.00130238 -5.00226e-20 0)
(0.00264988 0.000194329 6.04154e-19 -0.00130497 3.23965e-19 0)
(0.0018427 -0.00162191 3.0852e-18 -0.000257915 -1.97705e-18 -6.42357e-34)
(0.00195859 -0.00141186 1.13024e-18 -0.000408299 -3.05331e-19 0)
(0.00205824 -0.00123103 -1.19921e-18 -0.000532458 9.623e-19 0)
(0.00214977 -0.00107323 2.01407e-20 -0.000651261 -5.35803e-21 0)
(0.00222874 -0.00093433 -2.176e-18 -0.00074889 -6.66535e-19 0)
(0.0023012 -0.000809759 8.44928e-20 -0.000843772 -6.28671e-19 0)
(0.00236242 -0.000697836 -1.95767e-18 -0.000920049 -9.80799e-20 0)
(0.00241783 -0.000596096 -1.24249e-18 -0.000994677 3.06211e-19 0)
(0.00246338 -0.000503016 2.27264e-18 -0.00105297 5.81623e-19 0)
(0.00250353 -0.000418212 1.13355e-18 -0.0011102 8.35865e-19 0)
(0.00253532 -0.000339482 -1.02143e-18 -0.00115306 -3.01027e-19 0)
(0.0025622 -0.000268163 1.47662e-18 -0.00119556 7.13987e-19 0)
(0.0025822 -0.000201134 -9.02925e-19 -0.00122519 -1.84468e-18 0)
(0.00259788 -0.000141179 -1.47951e-18 -0.00125544 -1.16996e-18 0)
(0.00260809 -8.40937e-05 -1.90196e-18 -0.00127384 -5.54285e-19 0)
(0.00261452 -3.41392e-05 -2.78089e-25 -0.00129406 6.10435e-26 0)
(0.00261698 1.43782e-05 -3.7973e-19 -0.00130313 -8.509e-19 0)
(0.00261577 5.51893e-05 -8.58914e-19 -0.0013151 -7.21501e-19 0)
(0.00261264 9.64414e-05 -1.26296e-18 -0.00131681 -6.03194e-19 0)
(0.00260323 0.000130062 1.30627e-18 -0.00132148 5.63034e-19 0)
(0.00155741 -0.00152038 -1.59797e-18 -0.0001323 3.916e-19 5.607e-34)
(0.00171148 -0.00133119 1.1859e-18 -0.000311452 1.69601e-18 0)
(0.0018395 -0.00116796 7.37054e-19 -0.000457157 4.415e-19 0)
(0.00195533 -0.00102474 1.70035e-18 -0.000593128 -5.78208e-19 0)
(0.00205288 -0.00089882 3.52533e-20 -0.000704034 -1.19161e-20 0)
(0.00214118 -0.000786122 -5.57374e-20 -0.000808944 6.7651e-19 0)
(0.00221548 -0.00068486 6.35314e-19 -0.000893715 4.3402e-19 0)
(0.00228213 -0.000593394 -2.38899e-18 -0.000974489 -4.7909e-19 0)
(0.0023376 -0.000509409 -1.1333e-18 -0.00103844 -2.47364e-19 0)
(0.00238654 -0.000433613 9.75685e-19 -0.00109976 -3.11212e-19 0)
(0.0024264 -0.000362593 -1.53561e-18 -0.00114658 -6.80375e-19 0)
(0.00246072 -0.000299122 3.9999e-19 -0.00119206 -1.2613e-19 0)
(0.00248765 -0.000238455 2.89888e-18 -0.00122456 1.94325e-19 0)
(0.00250993 -0.000185249 1.00509e-18 -0.00125715 7.70558e-19 0)
(0.00252635 -0.000133243 -1.20863e-18 -0.00127772 3.90927e-19 0)
(0.0025387 -8.89732e-05 -7.4463e-19 -0.00129981 -2.80734e-19 0)
(0.00254696 -4.44278e-05 -1.9807e-19 -0.00131058 -4.48782e-19 0)
(0.00255097 -8.19441e-06 4.34818e-19 -0.001324 3.56506e-19 0)
(0.00255347 2.9883e-05 3.49978e-21 -0.00132714 -1.27109e-21 0)
(0.00254854 6.03173e-05 -6.95554e-19 -0.001333 -8.91258e-20 0)
(0.00128631 -0.00139161 5.24778e-19 -2.68183e-05 1.1868e-19 -5.44389e-36)
(0.00147129 -0.00123015 -1.76858e-18 -0.000227328 -1.11799e-20 0)
(0.0016248 -0.00108963 9.0171e-19 -0.000390541 -3.79334e-19 0)
(0.00176198 -0.000965853 1.57179e-19 -0.000540186 -8.00907e-19 0)
(0.00187684 -0.000856064 4.67651e-19 -0.000662151 1.97155e-18 0)
(0.00197999 -0.000758225 -6.68768e-19 -0.000775442 -4.30823e-19 0)
(0.00206658 -0.000669524 -1.1742e-20 -0.000867212 -6.86185e-19 0)
(0.00214393 -0.000590037 0 -0.000953073 0 0)
(0.00220879 -0.000516325 -1.16882e-18 -0.00102163 -8.42543e-19 0)
(0.00226583 -0.000450443 -8.31591e-20 -0.0010861 -6.08893e-19 0)
(0.00231347 -0.000387959 1.22046e-18 -0.00113618 1.3892e-18 0)
(0.00235427 -0.000332732 -2.77761e-18 -0.00118374 -7.11011e-19 0)
(0.00238807 -0.000279146 8.47179e-19 -0.00121873 2.51899e-19 0)
(0.00241582 -0.0002327 2.13163e-18 -0.00125289 8.78755e-19 0)
(0.00243852 -0.000186517 9.57079e-19 -0.0012754 7.48498e-19 0)
(0.00245576 -0.000147613 2.71413e-19 -0.00129899 -1.16858e-19 0)
(0.00246969 -0.000107776 4.54204e-19 -0.00131116 3.55672e-19 0)
(0.00247834 -7.55808e-05 -2.17763e-19 -0.00132629 9.98941e-20 0)
(0.00248595 -4.11509e-05 6.5541e-19 -0.00133032 7.76072e-19 0)
(0.00248533 -1.3297e-05 2.33386e-19 -0.00133813 4.24193e-19 0)
(0.00103724 -0.00124151 1.02909e-18 5.37641e-05 -6.43517e-19 1.23665e-34)
(0.00124753 -0.00111224 2.3737e-20 -0.00016253 -1.19329e-20 0)
(0.00142199 -0.000998896 2.10476e-20 -0.000339158 -1.05346e-20 0)
(0.00157735 -0.000897656 1.94991e-18 -0.000499226 2.16937e-18 0)
(0.00170721 -0.000807406 -6.84991e-19 -0.000630068 -4.29955e-19 0)
(0.00182336 -0.000726257 2.04427e-18 -0.000749838 -1.00538e-18 0)
(0.00192091 -0.000652334 -5.85368e-19 -0.000847416 2.87563e-19 0)
(0.00200791 -0.000585794 -5.56306e-19 -0.000937214 2.72029e-19 0)
(0.00208106 -0.000523637 -1.1632e-18 -0.00100962 -8.31974e-19 0)
(0.00214571 -0.000468146 -1.38119e-18 -0.00107652 6.76494e-19 0)
(0.00219989 -0.000414781 9.4356e-19 -0.0011292 2.03022e-19 0)
(0.00224708 -0.000368125 8.94522e-20 -0.00117833 -1.35129e-18 0)
(0.00228626 -0.000321608 -1.35644e-18 -0.00121515 -5.9769e-19 0)
(0.00231963 -0.000282454 1.87363e-19 -0.00125038 5.31717e-19 0)
(0.00234694 -0.0002415 2.01864e-19 -0.00127419 5.12434e-19 0)
(0.00236913 -0.000208971 -4.74129e-19 -0.00129846 -3.5309e-19 0)
(0.00238731 -0.000172832 2.25887e-19 -0.00131158 -1.26359e-19 0)
(0.00240001 -0.00014586 2.33457e-19 -0.00132697 4.58398e-19 0)
(0.00241177 -0.000114626 -1.04588e-18 -0.00133152 -5.46245e-19 0)
(0.00241419 -9.03142e-05 -4.16018e-19 -0.00133945 -3.23644e-19 0)
(0.000812458 -0.00107248 -4.74644e-19 0.000107884 -1.31894e-19 2.72534e-36)
(0.00104082 -0.000978731 -9.68005e-19 -0.000116772 5.69765e-19 0)
(0.00123119 -0.000895006 -1.20191e-18 -0.000301118 2.40003e-18 0)
(0.00140037 -0.000819051 2.16385e-18 -0.00046694 -4.26908e-19 0)
(0.00154226 -0.000750081 1.34188e-19 -0.000603009 -1.70632e-18 0)
(0.00166866 -0.000687617 -3.42068e-20 -0.000726193 8.15213e-19 0)
(0.00177544 -0.00062956 1.17991e-18 -0.000827152 9.64383e-20 0)
(0.00186996 -0.000577327 1.06595e-18 -0.000918599 -6.14381e-19 0)
(0.00195059 -0.000527368 5.91558e-19 -0.000993254 3.99114e-19 0)
(0.00202072 -0.00048314 -1.44469e-18 -0.00106055 1.15179e-19 0)
(0.00208148 -0.000439375 -1.22313e-18 -0.00111497 -1.40819e-18 0)
(0.00213257 -0.000401718 5.29411e-19 -0.00116361 3.79099e-19 0)
(0.00217805 -0.000362941 -1.17615e-18 -0.00120209 3.02434e-20 0)
(0.00221406 -0.000330934 -8.00537e-19 -0.00123627 -1.75736e-19 0)
(0.00224759 -0.00029646 4.89333e-20 -0.00126176 -6.89213e-19 0)
(0.00227176 -0.00026946 4.93336e-19 -0.00128501 -3.18694e-19 0)
(0.00229523 -0.000238955 -4.30833e-19 -0.00129892 2.91778e-19 0)
(0.00231079 -0.000216448 1.92162e-19 -0.00131482 -1.33719e-19 0)
(0.00232716 -0.000189769 -2.44324e-19 -0.00131959 -4.54694e-19 0)
(0.0023331 -0.000168593 -7.26992e-19 -0.00132975 -7.03164e-20 0)
(0.000617805 -0.00089386 -4.21941e-19 0.000133877 -1.57581e-19 -5.45267e-36)
(0.000857849 -0.000836567 -1.97768e-18 -9.34822e-05 2.25681e-18 0)
(0.00105847 -0.00078435 -1.51601e-18 -0.000281159 1.28867e-19 0)
(0.00123727 -0.000734864 2.86019e-19 -0.000448946 -2.82105e-18 0)
(0.00138745 -0.000689233 6.45491e-19 -0.000587505 4.25738e-19 0)
(0.00152153 -0.00064635 -1.24213e-18 -0.000711732 -8.46831e-19 0)
(0.00163493 -0.00060607 1.20062e-20 -0.000814464 -7.98866e-21 0)
(0.00173567 -0.000568572 -1.09983e-18 -0.000906235 -6.55317e-20 0)
(0.00182162 -0.000532544 2.16807e-18 -0.00098221 8.87801e-19 0)
(0.00189705 -0.000499525 4.27562e-19 -0.00104942 -2.86959e-19 0)
(0.0019621 -0.000466914 -3.72975e-19 -0.00110493 2.53041e-19 0)
(0.00201809 -0.000437871 1.91446e-18 -0.00115336 8.70747e-19 0)
(0.00206698 -0.000408011 -1.85689e-19 -0.00119289 -5.85168e-19 0)
(0.00210792 -0.000383011 -7.6634e-19 -0.00122687 -1.56541e-19 0)
(0.00214425 -0.000355127 -1.93925e-18 -0.00125367 -6.57254e-19 0)
(0.00217334 -0.000335361 -2.37788e-19 -0.00127633 1.77726e-19 0)
(0.00220008 -0.000307964 1.10599e-18 -0.00129301 4.89317e-19 0)
(0.00221885 -0.000291182 -1.31393e-18 -0.0013076 -9.46975e-19 0)
(0.00223936 -0.00026699 8.47644e-19 -0.00131503 6.18864e-19 0)
(0.00224545 -0.000251687 1.46613e-18 -0.00132261 5.4349e-19 0)
(0.000452594 -0.000705587 -1.37171e-18 0.000130895 1.70519e-18 -6.14197e-34)
(0.000697987 -0.000685333 -2.12057e-19 -9.26756e-05 1.12599e-18 0)
(0.000903881 -0.000664677 -1.17612e-18 -0.000277986 -1.91405e-18 0)
(0.00108787 -0.000642297 6.46061e-19 -0.000443163 4.24354e-19 0)
(0.00124296 -0.000619936 6.21539e-19 -0.000580094 -4.75691e-19 0)
(0.00138154 -0.000597171 1.26982e-20 -0.000702096 -9.6877e-21 0)
(0.00149936 -0.000574314 -6.10068e-19 -0.000803544 -3.91842e-19 0)
(0.00160378 -0.000551978 1.14505e-19 -0.000893127 7.48868e-19 0)
(0.00169385 -0.000529165 -4.43502e-19 -0.000968126 3.40672e-19 0)
(0.00177207 -0.00050772 9.36493e-19 -0.00103295 7.40682e-20 0)
(0.00184138 -0.000485228 -7.22133e-19 -0.00108802 5.65442e-19 0)
(0.00189895 -0.000465001 1.34861e-18 -0.00113354 4.612e-19 0)
(0.00195313 -0.000443082 1.58635e-18 -0.00117375 2.21229e-19 0)
(0.00199371 -0.000424289 7.47709e-19 -0.00120369 1.21135e-19 0)
(0.00203827 -0.00040348 7.15381e-19 -0.0012338 1.21496e-19 0)
(0.00206345 -0.000386057 -1.09083e-18 -0.00125007 2.38399e-19 0)
(0.00209735 -0.000366633 1.86801e-19 -0.00126884 -1.7273e-19 0)
(0.0021142 -0.000351052 -2.59407e-19 -0.0012782 -4.67807e-19 0)
(0.00214722 -0.000336176 4.00619e-19 -0.00129302 1.04226e-18 0)
(0.00215051 -0.000317193 8.97396e-19 -0.00129488 3.71708e-19 0)
(0.000319705 -0.000518122 3.56522e-19 0.00010045 1.87499e-19 -5.30043e-36)
(0.000564097 -0.000533552 1.55151e-19 -0.000113935 -1.14645e-18 0)
(0.000769399 -0.000544384 -6.00856e-20 -0.000292543 1.03944e-18 0)
(0.000954026 -0.000548697 1.2399e-18 -0.000451178 8.44073e-19 0)
(0.00110971 -0.000550381 1.2215e-18 -0.000583481 -1.21e-19 0)
(0.00124965 -0.000547635 5.28025e-19 -0.000700475 -4.57373e-19 0)
(0.00136857 -0.000543572 -1.05672e-18 -0.000798681 1.93721e-20 0)
(0.00147465 -0.000536222 -9.13188e-19 -0.000884198 7.90859e-19 0)
(0.00156597 -0.000528678 -1.40245e-19 -0.000956992 -7.29195e-19 0)
(0.00164604 -0.000518177 -7.11497e-19 -0.00101843 -1.03987e-18 0)
(0.00171637 -0.000508887 -1.38345e-19 -0.00107206 9.35112e-19 0)
(0.00177622 -0.000495842 -1.32401e-18 -0.00111495 -4.0586e-19 0)
(0.00183043 -0.000486513 1.53745e-18 -0.00115397 1.64324e-19 0)
(0.00187457 -0.000470358 0 -0.00118282 0 0)
(0.00191619 -0.000463323 -8.18199e-21 -0.00121042 7.79388e-21 0)
(0.00195183 -0.000449839 8.67991e-20 -0.00122591 1.80168e-19 0)
(0.00198015 -0.00044065 -1.1464e-18 -0.00124784 -1.06572e-18 0)
(0.00200492 -0.00041672 1.17153e-19 -0.00125843 6.24935e-19 0)
(0.00202816 -0.000418842 -5.63475e-19 -0.00127253 -1.16126e-19 0)
(0.00205573 -0.000398644 -1.63061e-19 -0.00127575 -5.70257e-19 0)
(0.000217825 -0.000330607 0 4.17021e-05 0 0)
(0.000456336 -0.000380331 -9.76507e-20 -0.000158582 1.15711e-18 0)
(0.000656923 -0.000420974 -1.3488e-18 -0.00032572 1.35128e-18 0)
(0.000838568 -0.000450994 -1.22761e-18 -0.000474213 -7.98625e-19 0)
(0.000991801 -0.000475317 2.214e-18 -0.000598201 -1.20075e-18 0)
(0.00113069 -0.00049188 1.007e-18 -0.000707824 -9.90405e-19 0)
(0.00124854 -0.000505239 -9.77076e-21 -0.000799873 9.58423e-21 0)
(0.00135501 -0.000512394 -9.52039e-19 -0.000880089 2.4527e-20 0)
(0.00144605 -0.000518473 3.75806e-19 -0.000948225 -3.70559e-19 0)
(0.0015278 -0.00051887 -3.26537e-19 -0.00100607 3.25156e-19 0)
(0.00159808 -0.000520337 3.99748e-19 -0.00105599 1.30079e-18 0)
(0.00166113 -0.00051567 -1.99271e-18 -0.00109692 -1.30653e-18 0)
(0.00171454 -0.00051454 4.82994e-19 -0.00113238 3.19516e-19 0)
(0.00176408 -0.00050578 6.76394e-19 -0.0011611 -7.24967e-19 0)
(0.00180214 -0.000503473 -1.12007e-18 -0.00118373 -3.76827e-19 0)
(0.00184366 -0.000491017 -3.23386e-21 -0.00120523 3.7204e-21 0)
(0.00187247 -0.000490248 7.66219e-19 -0.00122032 -1.10044e-19 0)
(0.00190516 -0.000471758 7.07071e-19 -0.00123455 7.21116e-19 0)
(0.00191827 -0.00047213 -5.33698e-19 -0.00123748 -1.04446e-19 0)
(0.00195714 -0.000464502 7.80308e-20 -0.00124317 1.71367e-19 0)
(0.000146392 -0.000151934 -1.02184e-18 -4.13493e-05 6.47516e-19 4.25873e-34)
(0.00037328 -0.000233071 -1.15202e-18 -0.000222584 -1.99619e-18 0)
(0.000563752 -0.000301645 1.22536e-18 -0.000374118 -1.39498e-18 0)
(0.000738124 -0.000355586 -1.67671e-18 -0.000508735 -2.17939e-19 0)
(0.000884662 -0.000401494 -1.06331e-18 -0.000621256 1.62098e-19 0)
(0.00101921 -0.000436198 1.46346e-18 -0.000720589 -6.29572e-19 0)
(0.00113251 -0.000466384 5.61869e-19 -0.000804011 3.50163e-19 0)
(0.00123676 -0.000487167 -7.62271e-19 -0.000876511 8.47863e-19 0)
(0.00132454 -0.000506508 -5.27838e-19 -0.000938011 -3.37845e-19 0)
(0.00140576 -0.00051694 1.21983e-18 -0.000990052 1.34613e-18 0)
(0.00147352 -0.000528971 5.65822e-19 -0.0010348 -6.41519e-19 0)