/*--------------------------------*- C++ -*----------------------------------*\
| =========                 |                                                 |
| \\      /  F ield         | OpenFOAM: The Open Source CFD Toolbox           |
|  \\    /   O peration     | Version:  v2012                                 |
|   \\  /    A nd           | Website:  www.openfoam.com                      |
|    \\/     M anipulation  |                                                 |
\*---------------------------------------------------------------------------*/
FoamFile
{
    version     2.0;
    format      ascii;
    class       volSymmTensorField;
    location    "8";
    object      sigma;
}
// * * * * * * * * * * * * * * * * * * * * * * * * * * * * * * * * * * * * * //

dimensions      [1 -1 -2 0 0 0 0];


internalField   nonuniform List<symmTensor> 
4000
(
(2.84172e+08 -5.48108e+06 -2.74965e-08 4.34191e+06 5.24956e-08 1.29083e+08)
(2.89388e+08 -5.4477e+06 5.58883e-10 9.77158e+06 6.77439e-08 1.31669e+08)
(2.96907e+08 -5.46016e+06 -7.86414e-16 1.76229e+07 -7.13468e-14 1.35816e+08)
(3.0186e+08 -5.46362e+06 5.23163e-08 2.29779e+07 -6.391e-08 1.37361e+08)
(3.08578e+08 -5.44667e+06 -8.22219e-08 3.0306e+07 -6.06753e-08 1.39719e+08)
(3.13037e+08 -5.4109e+06 1.21173e-09 3.55117e+07 2.89346e-08 1.39695e+08)
(3.18619e+08 -5.24412e+06 -5.45006e-08 4.2209e+07 -8.80397e-10 1.39615e+08)
(3.2198e+08 -4.9664e+06 0 4.69299e+07 0 1.37173e+08)
(3.25599e+08 -4.74488e+06 6.19205e-09 5.25235e+07 4.50597e-08 1.338e+08)
(3.27828e+08 -4.23936e+06 6.11406e-08 5.73778e+07 2.32138e-08 1.28279e+08)
(3.28332e+08 -3.11609e+06 -8.97484e-09 6.09996e+07 -3.31803e-08 1.21045e+08)
(3.15371e+08 -1.08168e+06 -7.75228e-09 6.20403e+07 -2.82414e-08 1.13223e+08)
(2.95077e+08 848295 -2.8338e-09 6.25249e+07 -1.23375e-08 1.0728e+08)
(2.7774e+08 2.0205e+06 4.3479e-09 6.04946e+07 2.25796e-08 1.0147e+08)
(2.63492e+08 2.71922e+06 2.33926e-08 5.86224e+07 1.25945e-08 9.66343e+07)
(2.50845e+08 3.18833e+06 -1.38099e-09 5.56371e+07 -9.99876e-09 9.19447e+07)
(2.40039e+08 3.45902e+06 -2.02045e-08 5.29478e+07 -1.15508e-08 8.78961e+07)
(2.30048e+08 3.65181e+06 -3.69353e-08 4.96334e+07 -1.31232e-08 8.39043e+07)
(2.21318e+08 3.73801e+06 -1.70446e-08 4.66649e+07 -1.76441e-09 8.0395e+07)
(2.12916e+08 3.82319e+06 -3.09632e-08 4.33182e+07 8.98633e-09 7.68703e+07)
(2.83243e+08 -1.64343e+07 -8.56419e-10 5.15287e+06 3.51389e-08 1.28768e+08)
(2.88541e+08 -1.63785e+07 2.77181e-08 1.06669e+07 3.19242e-08 1.31334e+08)
(2.96097e+08 -1.64045e+07 2.41783e-08 1.8585e+07 -6.68965e-08 1.35387e+08)
(3.00995e+08 -1.63675e+07 5.55462e-08 2.39168e+07 2.7751e-08 1.36649e+08)
(3.07656e+08 -1.62475e+07 -8.08669e-08 3.12293e+07 3.76494e-09 1.38647e+08)
(3.11881e+08 -1.59986e+07 -1.44037e-14 3.62602e+07 -1.0017e-13 1.37935e+08)
(3.17121e+08 -1.54208e+07 2.46812e-10 4.26502e+07 1.12488e-09 1.37048e+08)
(3.20127e+08 -1.46316e+07 -7.1784e-08 4.71159e+07 -5.25047e-08 1.33566e+08)
(3.23273e+08 -1.37343e+07 0 5.23844e+07 0 1.29112e+08)
(3.2463e+08 -1.20306e+07 1.00286e-07 5.61668e+07 3.38019e-08 1.22867e+08)
(3.23748e+08 -7.94988e+06 1.7046e-14 5.73106e+07 2.0069e-14 1.15577e+08)
(3.07742e+08 -2.06747e+06 -2.08193e-08 5.80019e+07 -2.71934e-08 1.09723e+08)
(2.90455e+08 2.61289e+06 -7.91354e-09 5.71382e+07 -1.23326e-08 1.04278e+08)
(2.75317e+08 5.57493e+06 6.21852e-09 5.54712e+07 1.14103e-08 9.92366e+07)
(2.62294e+08 7.5301e+06 2.68385e-08 5.37128e+07 1.64596e-08 9.48019e+07)
(2.50465e+08 8.84531e+06 -1.64806e-08 5.11501e+07 4.512e-09 9.04846e+07)
(2.40151e+08 9.69581e+06 -1.58793e-08 4.88426e+07 4.54408e-09 8.6698e+07)
(2.30496e+08 1.0303e+07 -3.93396e-08 4.59166e+07 -1.97317e-08 8.29237e+07)
(2.21967e+08 1.06325e+07 4.33704e-11 4.33344e+07 1.60897e-10 7.95903e+07)
(2.13718e+08 1.09318e+07 -3.89754e-08 4.02992e+07 -2.5632e-08 7.62051e+07)
(2.81498e+08 -2.72806e+07 2.55514e-08 6.88222e+06 3.11088e-08 1.28192e+08)
(2.86805e+08 -2.7306e+07 2.83878e-08 1.24648e+07 2.94115e-08 1.30524e+08)
(2.94368e+08 -2.72178e+07 -2.70403e-09 2.04127e+07 -3.29865e-08 1.34195e+08)
(2.99089e+08 -2.70769e+07 -1.89633e-08 2.56219e+07 6.32348e-08 1.34762e+08)
(3.05564e+08 -2.66575e+07 5.50301e-08 3.28016e+07 -7.17516e-10 1.35755e+08)
(3.09328e+08 -2.59921e+07 1.04441e-08 3.74344e+07 -5.20208e-08 1.3366e+08)
(3.14077e+08 -2.48413e+07 2.36662e-08 4.34576e+07 4.67465e-08 1.31108e+08)
(3.16294e+08 -2.32773e+07 6.71459e-10 4.72182e+07 8.80771e-10 1.25878e+08)
(3.18554e+08 -2.10939e+07 -1.19574e-07 5.14378e+07 -6.94321e-08 1.20183e+08)
(3.17817e+08 -1.6592e+07 5.12454e-08 5.15732e+07 2.51078e-08 1.13571e+08)
(3.10577e+08 -9.21964e+06 4.82622e-08 5.13644e+07 2.44955e-08 1.08583e+08)
(2.96837e+08 -1.52918e+06 -2.04138e-09 4.98813e+07 -1.58186e-08 1.04015e+08)
(2.8373e+08 4.01568e+06 -6.29197e-08 4.88555e+07 -3.22196e-08 9.97756e+07)
(2.71291e+08 7.9236e+06 -1.43077e-08 4.71375e+07 1.88039e-09 9.55286e+07)
(2.60103e+08 1.07349e+07 1.57593e-08 4.58304e+07 2.17671e-08 9.17801e+07)
(2.49512e+08 1.27732e+07 6.6915e-09 4.37208e+07 1.0638e-08 8.79699e+07)
(2.40036e+08 1.42072e+07 1.9835e-08 4.20089e+07 8.57318e-09 8.46133e+07)
(2.3099e+08 1.53025e+07 -2.83544e-08 3.96115e+07 -2.78153e-08 8.11805e+07)
(2.22861e+08 1.59885e+07 -7.24184e-11 3.76192e+07 -1.62759e-10 7.81439e+07)
(2.14936e+08 1.66016e+07 -3.06528e-08 3.50514e+07 -2.92442e-08 7.49963e+07)
(2.78973e+08 -3.81016e+07 -5.50617e-08 9.64771e+06 4.35109e-08 1.27228e+08)
(2.84132e+08 -3.8034e+07 6.17855e-09 1.51153e+07 6.58503e-08 1.28844e+08)
(2.91657e+08 -3.77472e+07 2.74987e-08 2.30554e+07 -2.05739e-09 1.31579e+08)
(2.95969e+08 -3.73276e+07 -7.93114e-09 2.78975e+07 -2.84642e-08 1.30755e+08)
(3.02056e+08 -3.64169e+07 6.1436e-08 3.47676e+07 -4.91851e-08 1.29833e+08)
(3.0514e+08 -3.50673e+07 3.32246e-08 3.87556e+07 4.61059e-08 1.25696e+08)
(3.08811e+08 -3.2984e+07 2.30351e-08 4.36939e+07 2.05295e-08 1.20847e+08)
(3.09983e+08 -2.99306e+07 9.37232e-08 4.58012e+07 3.22523e-08 1.14509e+08)
(3.10427e+08 -2.47019e+07 4.89078e-09 4.60484e+07 -5.06438e-10 1.08982e+08)
(3.04625e+08 -1.67844e+07 -5.14431e-08 4.382e+07 -2.67254e-08 1.04534e+08)
(2.96189e+08 -8.37296e+06 5.79839e-08 4.24324e+07 2.67131e-08 1.01586e+08)
(2.86255e+08 -1.1887e+06 1.7286e-08 4.01987e+07 1.22957e-08 9.79362e+07)
(2.76452e+08 4.43072e+06 1.52042e-08 3.93982e+07 1.23578e-08 9.47552e+07)
(2.66364e+08 8.77098e+06 -6.05799e-08 3.77917e+07 -3.59467e-08 9.12468e+07)
(2.56987e+08 1.21646e+07 -2.28664e-08 3.69083e+07 -1.19707e-08 8.81687e+07)
(2.47741e+08 1.48052e+07 2.14173e-08 3.52193e+07 1.13926e-08 8.48882e+07)
(2.39282e+08 1.68121e+07 3.54858e-08 3.40468e+07 3.10799e-08 8.19986e+07)
(2.3103e+08 1.84235e+07 3.87843e-08 3.21492e+07 2.18706e-08 7.89538e+07)
(2.23487e+08 1.9556e+07 -1.82608e-08 3.07316e+07 -1.035e-08 7.62655e+07)
(2.16051e+08 2.05513e+07 1.8052e-08 2.86415e+07 1.48532e-08 7.34076e+07)
(2.75742e+08 -4.87795e+07 -2.71941e-08 1.35978e+07 6.1008e-09 1.25412e+08)
(2.80237e+08 -4.83366e+07 1.4463e-08 1.82641e+07 -6.6935e-08 1.25432e+08)
(2.8771e+08 -4.76257e+07 -1.10614e-08 2.61208e+07 -3.01575e-08 1.26541e+08)
(2.91347e+08 -4.67531e+07 2.91904e-08 3.03537e+07 1.44259e-09 1.23392e+08)
(2.96867e+08 -4.50143e+07 -5.02146e-10 3.66862e+07 -4.85323e-10 1.19878e+08)
(2.98635e+08 -4.25275e+07 -2.92335e-09 3.90223e+07 7.65539e-09 1.13383e+08)
(3.01407e+08 -3.87143e+07 6.52919e-08 4.18931e+07 2.73065e-08 1.08072e+08)
(3.00846e+08 -3.22953e+07 -1.60932e-09 3.91199e+07 3.15569e-09 1.02568e+08)
(2.95548e+08 -2.38862e+07 3.02562e-08 3.80122e+07 1.55135e-08 1.00068e+08)
(2.89804e+08 -1.57372e+07 0 3.45452e+07 0 9.73047e+07)
(2.8402e+08 -8.25518e+06 2.25436e-08 3.32717e+07 1.17371e-08 9.51874e+07)
(2.76478e+08 -1.7908e+06 -5.48236e-08 3.11538e+07 -3.0278e-08 9.22896e+07)
(2.68861e+08 3.74894e+06 6.83552e-08 3.05203e+07 4.06218e-08 8.98143e+07)
(2.60701e+08 8.33051e+06 5.37479e-08 2.90121e+07 3.65568e-08 8.69139e+07)
(2.52907e+08 1.21334e+07 1.1161e-08 2.83843e+07 3.87073e-09 8.43875e+07)
(2.45011e+08 1.52527e+07 -1.07569e-08 2.69537e+07 -1.00976e-08 8.15894e+07)
(2.37626e+08 1.77634e+07 1.15685e-08 2.61505e+07 3.67013e-09 7.91329e+07)
(2.30301e+08 1.98463e+07 1.9503e-08 2.46142e+07 1.25056e-08 7.64745e+07)
(2.23481e+08 2.14363e+07 -1.15598e-08 2.36426e+07 -3.56345e-09 7.4137e+07)
(2.16681e+08 2.28158e+07 4.11851e-08 2.19493e+07 2.22148e-08 7.15892e+07)
(2.71729e+08 -5.90275e+07 5.57725e-08 1.86021e+07 -1.11146e-08 1.21896e+08)
(2.74854e+08 -5.77402e+07 -1.60294e-08 2.13364e+07 2.90795e-08 1.1905e+08)
(2.82607e+08 -5.67162e+07 3.19309e-08 2.97748e+07 4.31166e-09 1.18036e+08)
(2.85013e+08 -5.5126e+07 -2.8856e-08 3.28148e+07 -1.93569e-08 1.11698e+08)
(2.89583e+08 -5.21795e+07 -6.8879e-08 3.77102e+07 -2.68636e-08 1.06193e+08)
(2.90543e+08 -4.72109e+07 -7.62855e-08 3.65559e+07 -2.85383e-08 1.00461e+08)
(2.89527e+08 -3.95771e+07 -4.03949e-08 3.52213e+07 -1.06165e-08 9.74245e+07)
(2.84701e+08 -3.0989e+07 3.74358e-08 3.15264e+07 3.03891e-09 9.48681e+07)
(2.82225e+08 -2.32392e+07 -3.0782e-08 2.97831e+07 -1.73822e-08 9.36025e+07)
(2.77817e+08 -1.60243e+07 -8.88888e-08 2.6753e+07 -4.59717e-08 9.13711e+07)
(2.73061e+08 -9.22583e+06 -9.57202e-09 2.57432e+07 -1.27077e-08 8.96412e+07)
(2.67066e+08 -3.05366e+06 -4.84516e-08 2.36516e+07 -2.72906e-08 8.72152e+07)
(2.61041e+08 2.39734e+06 -3.68283e-08 2.30239e+07 -2.04897e-08 8.52195e+07)
(2.54415e+08 7.13618e+06 2.44448e-08 2.14692e+07 1.5807e-08 8.27653e+07)
(2.48006e+08 1.11919e+07 1.35664e-08 2.09212e+07 9.24595e-09 8.06781e+07)
(2.41363e+08 1.46622e+07 2.26197e-08 1.95661e+07 1.54588e-08 7.82787e+07)
(2.35049e+08 1.75534e+07 1.07485e-08 1.89629e+07 8.80018e-09 7.62037e+07)
(2.2869e+08 2.00196e+07 4.02886e-08 1.76247e+07 3.24968e-08 7.38944e+07)
(2.22676e+08 2.20064e+07 -3.69031e-08 1.69527e+07 -3.10377e-08 7.18886e+07)
(2.16601e+08 2.37249e+07 -4.91004e-10 1.55386e+07 -1.95473e-09 6.96419e+07)
(2.66278e+08 -6.85137e+07 4.29723e-08 2.38944e+07 3.53927e-08 1.15017e+08)
(2.68636e+08 -6.62847e+07 -5.71172e-08 2.52339e+07 -2.58151e-08 1.09057e+08)
(2.75598e+08 -6.53197e+07 -7.5827e-08 3.39546e+07 -3.23633e-08 1.05225e+08)
(2.77431e+08 -6.16357e+07 9.48946e-08 3.42599e+07 1.67554e-08 9.83749e+07)
(2.80532e+08 -5.56746e+07 9.75658e-09 3.43592e+07 -1.10667e-08 9.44673e+07)
(2.75631e+08 -4.668e+07 -5.94761e-09 3.05925e+07 1.16385e-08 9.18669e+07)
(2.74306e+08 -3.85028e+07 -3.82153e-08 2.84933e+07 -8.41358e-09 9.08397e+07)
(2.72386e+08 -3.11736e+07 -3.27229e-08 2.5052e+07 -1.91028e-08 8.92314e+07)
(2.69871e+08 -2.39401e+07 9.50215e-08 2.36236e+07 4.68821e-08 8.80483e+07)
(2.66218e+08 -1.70131e+07 -3.19681e-08 2.08064e+07 -2.78248e-08 8.61072e+07)
(2.62419e+08 -1.05351e+07 4.95697e-10 1.97083e+07 1.80862e-10 8.46382e+07)
(2.57687e+08 -4.56367e+06 -4.43446e-08 1.75805e+07 -1.82229e-08 8.25801e+07)
(2.52933e+08 775319 -4.62289e-08 1.67822e+07 -2.6682e-08 8.09145e+07)
(2.47613e+08 5.57167e+06 9.66987e-09 1.51681e+07 5.54312e-11 7.88342e+07)
(2.42416e+08 9.73896e+06 -6.31742e-08 1.45302e+07 -4.24328e-08 7.7084e+07)
(2.36926e+08 1.34216e+07 -3.69643e-08 1.3196e+07 -2.51933e-08 7.50364e+07)
(2.31644e+08 1.65543e+07 -3.3987e-08 1.26293e+07 -2.42426e-08 7.3282e+07)
(2.26242e+08 1.92865e+07 1.03433e-08 1.14109e+07 7.299e-09 7.12957e+07)
(2.21072e+08 2.1569e+07 3.98489e-08 1.08893e+07 3.06099e-08 6.95884e+07)
(2.15763e+08 2.35465e+07 -2.80783e-08 9.67918e+06 -2.25878e-08 6.76328e+07)
(2.59323e+08 -7.73642e+07 -2.73088e-09 2.97985e+07 6.79643e-09 1.04782e+08)
(2.61037e+08 -7.44689e+07 1.17777e-07 3.00525e+07 3.98238e-08 9.65869e+07)
(2.67946e+08 -7.15969e+07 -1.17241e-07 3.64692e+07 -5.69924e-08 9.31779e+07)
(2.65018e+08 -6.30831e+07 4.05723e-08 3.09269e+07 2.10257e-08 8.87834e+07)
(2.63589e+08 -5.43258e+07 -1.74548e-08 3.04442e+07 3.02358e-08 8.821e+07)
(2.62892e+08 -4.64693e+07 -5.01091e-08 2.5437e+07 7.1633e-09 8.64986e+07)
(2.61913e+08 -3.91201e+07 -3.17243e-08 2.43931e+07 -3.4292e-08 8.58919e+07)
(2.59817e+08 -3.17921e+07 -3.33993e-08 2.05933e+07 -2.0176e-08 8.4123e+07)
(2.57925e+08 -2.47727e+07 -3.29101e-08 1.91837e+07 -3.29283e-08 8.31327e+07)
(2.54992e+08 -1.80869e+07 5.91942e-08 1.61671e+07 2.7039e-08 8.13477e+07)
(2.52103e+08 -1.18872e+07 2.88202e-08 1.49044e+07 1.92932e-08 8.01022e+07)
(2.48379e+08 -6.11328e+06 2.81404e-14 1.26169e+07 9.086e-15 7.82988e+07)
(2.44714e+08 -900706 -4.68941e-08 1.16152e+07 -2.59128e-08 7.68988e+07)
(2.40478e+08 3.8432e+06 -7.37162e-09 9.87343e+06 -1.14493e-08 7.51054e+07)
(2.36354e+08 8.04584e+06 1.63339e-08 9.10103e+06 6.91527e-09 7.36365e+07)
(2.31882e+08 1.17995e+07 -3.75442e-08 7.71396e+06 -2.4483e-08 7.18788e+07)
(2.27564e+08 1.50789e+07 -1.2033e-14 7.11796e+06 -5.97928e-15 7.04045e+07)
(2.23058e+08 1.79501e+07 -6.39415e-08 5.93905e+06 -5.14521e-08 6.86991e+07)
(2.18723e+08 2.04436e+07 9.72685e-09 5.48784e+06 1.06573e-08 6.72632e+07)
(2.14169e+08 2.25843e+07 -3.97665e-08 4.4052e+06 -3.05223e-08 6.55723e+07)
(2.50999e+08 -8.55921e+07 -7.1947e-08 3.63868e+07 -4.37813e-09 9.34226e+07)
(2.52386e+08 -8.06315e+07 5.49679e-08 3.21762e+07 3.88965e-09 8.59303e+07)
(2.52294e+08 -7.20506e+07 -5.36805e-08 3.50653e+07 -2.66827e-09 8.62078e+07)
(2.50334e+08 -6.26252e+07 -1.01088e-07 2.76446e+07 -7.39939e-09 8.33936e+07)
(2.51119e+08 -5.51653e+07 8.1472e-08 2.79814e+07 2.46343e-08 8.373e+07)
(2.4949e+08 -4.70359e+07 9.07007e-08 2.26885e+07 -8.68803e-09 8.16536e+07)
(2.49012e+08 -3.95713e+07 -2.85143e-08 2.1439e+07 -3.76259e-08 8.11352e+07)
(2.4742e+08 -3.23042e+07 -3.25963e-08 1.73229e+07 -2.08463e-08 7.94229e+07)
(2.46137e+08 -2.55364e+07 -9.37554e-08 1.56477e+07 -4.5952e-08 7.85355e+07)
(2.43961e+08 -1.90804e+07 -5.80749e-08 1.24548e+07 -1.03921e-08 7.69247e+07)
(2.41875e+08 -1.31355e+07 2.59521e-08 1.0915e+07 5.18186e-09 7.58369e+07)
(2.3909e+08 -7.58244e+06 5.63495e-08 8.46091e+06 4.00106e-08 7.42653e+07)
(2.36343e+08 -2.54034e+06 -2.4359e-14 7.22556e+06 -6.2028e-15 7.30705e+07)
(2.33093e+08 2.07808e+06 1.9243e-08 5.34323e+06 5.43611e-09 7.15308e+07)
(2.29898e+08 6.22119e+06 7.82526e-09 4.41809e+06 1.38697e-08 7.02948e+07)
(2.26365e+08 9.94618e+06 3.20521e-08 2.95016e+06 3.22729e-08 6.87944e+07)
(2.22921e+08 1.32621e+07 3.66454e-08 2.295e+06 2.34624e-08 6.75648e+07)
(2.19262e+08 1.61713e+07 4.3904e-08 1.11317e+06 3.62309e-08 6.61124e+07)
(2.15724e+08 1.87719e+07 -4.21875e-08 687562 -3.55522e-08 6.49234e+07)
(2.11903e+08 2.09905e+07 1.05652e-08 -318225 4.70742e-09 6.34754e+07)
(2.41182e+08 -9.1338e+07 -1.29698e-07 3.80639e+07 1.09586e-09 8.41407e+07)
(2.36882e+08 -8.0862e+07 -5.57335e-08 3.51625e+07 1.25398e-10 8.16132e+07)
(2.37903e+08 -7.2554e+07 0 3.30768e+07 0 8.12941e+07)
(2.36587e+08 -6.30681e+07 -4.67886e-08 2.83992e+07 -5.30776e-10 7.94958e+07)
(2.36717e+08 -5.52607e+07 -1.19483e-07 2.61507e+07 -4.43717e-08 7.88602e+07)
(2.36263e+08 -4.69064e+07 5.46532e-09 2.13731e+07 -2.04586e-08 7.72908e+07)
(2.36054e+08 -3.97622e+07 7.19468e-08 1.89499e+07 2.3314e-08 7.65012e+07)
(2.35253e+08 -3.2553e+07 6.6511e-08 1.48971e+07 4.31541e-08 7.5045e+07)
(2.34523e+08 -2.61228e+07 9.51575e-08 1.26025e+07 6.40171e-08 7.41375e+07)
(2.33158e+08 -1.98919e+07 -2.81534e-08 9.32289e+06 -2.7653e-09 7.27442e+07)
(2.318e+08 -1.42573e+07 -5.21291e-08 7.38634e+06 -5.97318e-09 7.1756e+07)
(2.29871e+08 -8.94376e+06 -9.14834e-10 4.81032e+06 -1.25506e-10 7.04045e+07)
(2.27944e+08 -4.13274e+06 2.12998e-08 3.30157e+06 3.30103e-09 6.93736e+07)
(2.25556e+08 306414 2.57455e-08 1.31031e+06 1.99896e-08 6.80599e+07)
(2.23195e+08 4.31612e+06 3.24859e-08 211701 3.59721e-08 6.70219e+07)
(2.20486e+08 7.93839e+06 -1.5973e-08 -1.32266e+06 -3.52639e-09 6.57491e+07)
(2.17843e+08 1.12111e+07 -2.51249e-10 -2.06042e+06 -5.98094e-11 6.47346e+07)
(2.14941e+08 1.40815e+07 6.05588e-08 -3.24946e+06 2.87175e-08 6.35075e+07)
(2.1215e+08 1.6712e+07 3.36221e-08 -3.68078e+06 2.17293e-08 6.25409e+07)
(2.09002e+08 1.89413e+07 1.97827e-08 -4.62996e+06 2.97638e-08 6.13116e+07)
(2.24658e+08 -9.24489e+07 -7.59814e-08 4.16639e+07 3.06241e-08 7.98967e+07)
(2.22909e+08 -8.17923e+07 -5.8294e-08 3.79329e+07 3.56649e-09 7.82526e+07)
(2.22564e+08 -7.20597e+07 2.90027e-08 3.3889e+07 4.75354e-08 7.69359e+07)
(2.22143e+08 -6.24987e+07 3.68164e-08 2.87825e+07 2.2531e-08 7.52776e+07)
(2.22913e+08 -5.44832e+07 9.07163e-08 2.50288e+07 -4.39141e-09 7.43826e+07)
(2.22866e+08 -4.64406e+07 9.03711e-10 2.01242e+07 -3.35983e-11 7.2897e+07)
(2.23399e+08 -3.93953e+07 -6.34618e-09 1.68091e+07 4.6594e-08 7.20626e+07)
(2.23175e+08 -3.25663e+07 -3.71242e-08 1.25854e+07 2.30406e-08 7.07281e+07)
(2.2316e+08 -2.63899e+07 6.20523e-08 9.77989e+06 2.18671e-08 6.98819e+07)
(2.22486e+08 -2.05486e+07 5.87018e-08 6.33207e+06 2.21223e-08 6.86454e+07)
(2.21861e+08 -1.51949e+07 5.55058e-08 4.08124e+06 2.2145e-08 6.77826e+07)
(2.20684e+08 -1.02261e+07 -5.58937e-08 1.3561e+06 -4.22614e-08 6.66119e+07)
(2.19507e+08 -5.6569e+06 -2.13609e-08 -350585 -1.24461e-09 6.57469e+07)
(2.17884e+08 -1.48791e+06 -4.56554e-08 -2.45883e+06 -2.20005e-08 6.46275e+07)
(2.16271e+08 2.34757e+06 -2.56477e-08 -3.67027e+06 -2.02155e-08 6.37803e+07)
(2.14302e+08 5.77861e+06 -5.70397e-08 -5.27757e+06 -5.78506e-08 6.27072e+07)
(2.12384e+08 8.94942e+06 -4.67681e-08 -6.05836e+06 -3.8973e-08 6.18976e+07)
(2.10168e+08 1.1697e+07 -1.28669e-08 -7.26795e+06 -1.70486e-09 6.08701e+07)
(2.08073e+08 1.42912e+07 3.12511e-08 -7.68681e+06 3.58571e-08 6.01158e+07)
(2.05539e+08 1.64582e+07 2.43776e-08 -8.60359e+06 1.16043e-08 5.90806e+07)
(2.06003e+08 -9.29804e+07 1.07517e-07 4.58919e+07 1.3337e-08 7.55685e+07)
(2.05523e+08 -8.10514e+07 -1.12944e-07 3.96438e+07 1.45643e-08 7.355e+07)
(2.0666e+08 -7.06979e+07 -5.50017e-08 3.41921e+07 7.05519e-09 7.22556e+07)
(2.07341e+08 -6.14288e+07 1.04421e-08 2.82811e+07 -2.90185e-08 7.06867e+07)
(2.08735e+08 -5.32737e+07 3.63505e-08 2.36182e+07 2.30351e-08 6.97059e+07)
(2.09666e+08 -4.5642e+07 3.02112e-08 1.83485e+07 5.03044e-08 6.84044e+07)
(2.10747e+08 -3.88343e+07 3.28729e-08 1.44412e+07 2.28977e-08 6.75565e+07)
(2.11359e+08 -3.24129e+07 1.52839e-09 1.00157e+07 -2.56938e-08 6.64124e+07)
(2.11925e+08 -2.65942e+07 -6.31942e-08 6.82937e+06 -4.47179e-08 6.56262e+07)
(2.12018e+08 -2.1141e+07 -5.89819e-08 3.2467e+06 -2.01645e-08 6.45795e+07)
(2.12019e+08 -1.61479e+07 2.52107e-08 747654 -1.48345e-09 6.38301e+07)
(2.11573e+08 -1.15218e+07 5.18789e-08 -2.07579e+06 2.04282e-08 6.28492e+07)
(2.11052e+08 -7.26126e+06 5.49519e-08 -3.9414e+06 4.23097e-08 6.21333e+07)
(2.10128e+08 -3.37131e+06 1.96101e-08 -6.11848e+06 -4.64278e-10 6.12027e+07)
(2.09177e+08 228754 -7.44537e-09 -7.41969e+06 -2.07604e-08 6.05271e+07)
(2.07865e+08 3.44916e+06 2.52194e-08 -9.06486e+06 2.01122e-08 5.964e+07)
(2.06596e+08 6.46048e+06 -1.90486e-08 -9.87723e+06 1.97329e-08 5.90155e+07)
(2.04987e+08 9.06088e+06 3.2656e-08 -1.10893e+07 3.86404e-08 5.81692e+07)
(2.03519e+08 1.15643e+07 1.20672e-08 -1.14925e+07 1.31346e-10 5.76079e+07)
(2.01533e+08 1.36441e+07 -4.68352e-08 -1.2376e+07 -2.94625e-08 5.67472e+07)
(1.84898e+08 -9.09913e+07 1.2488e-07 4.84141e+07 -1.04479e-08 6.99936e+07)
(1.87348e+08 -7.91355e+07 2.80471e-08 4.04199e+07 -6.81841e-08 6.83303e+07)
(1.89828e+08 -6.8893e+07 -3.80378e-08 3.38148e+07 -2.37022e-08 6.70927e+07)
(1.92092e+08 -5.98421e+07 -8.65844e-08 2.70947e+07 -1.4099e-08 6.57559e+07)
(1.94438e+08 -5.19407e+07 -4.38015e-08 2.16921e+07 8.319e-09 6.48389e+07)
(1.96325e+08 -4.46921e+07 -8.79905e-10 1.6058e+07 1.60654e-10 6.37149e+07)
(1.98194e+08 -3.82239e+07 -3.14226e-08 1.1688e+07 -5.28277e-08 6.29645e+07)
(1.99547e+08 -3.22418e+07 9.97167e-08 7.07107e+06 4.01915e-08 6.19853e+07)
(2.00811e+08 -2.67923e+07 6.3082e-08 3.60859e+06 1.76028e-08 6.13258e+07)
(2.01571e+08 -2.17719e+07 -2.72464e-08 -85326.7 4.13161e-09 6.04456e+07)
(2.02225e+08 -1.71306e+07 -2.48229e-08 -2.74207e+06 3.61537e-09 5.98449e+07)
(2.02414e+08 -1.28959e+07 1.07339e-08 -5.63231e+06 4.97133e-08 5.90346e+07)
(2.02522e+08 -8.94031e+06 -7.97272e-10 -7.57755e+06 1.0468e-10 5.84833e+07)
(2.02209e+08 -5.38325e+06 1.1013e-08 -9.79026e+06 -2.55916e-08 5.77255e+07)
(2.01867e+08 -2.02775e+06 8.1714e-09 -1.11153e+07 2.27068e-08 5.72256e+07)
(2.01136e+08 923571 5.80871e-08 -1.27688e+07 6.25366e-08 5.65101e+07)
(2.0046e+08 3.75247e+06 9.32446e-09 -1.3563e+07 2.15161e-08 5.60691e+07)
(1.99389e+08 6.14637e+06 -4.67157e-08 -1.47562e+07 -3.88904e-08 5.53898e+07)
(1.98502e+08 8.52362e+06 2.32251e-08 -1.51108e+07 -2.69352e-09 5.50174e+07)
(1.97e+08 1.04639e+07 3.25314e-08 -1.59539e+07 1.74443e-08 5.43138e+07)
(1.63223e+08 -8.73335e+07 1.66126e-07 5.01131e+07 -1.06457e-07 6.40009e+07)
(1.68071e+08 -7.60231e+07 6.08593e-08 4.06226e+07 -1.64409e-08 6.26079e+07)
(1.72447e+08 -6.62864e+07 -6.45728e-08 3.29474e+07 5.18161e-08 6.16183e+07)
(1.76274e+08 -5.77892e+07 1.0845e-09 2.54488e+07 -2.8851e-10 6.05167e+07)
(1.79772e+08 -5.03101e+07 -1.17169e-07 1.94381e+07 -3.58903e-08 5.9763e+07)
(1.82769e+08 -4.36024e+07 4.54961e-09 1.3424e+07 -3.38515e-08 5.88578e+07)
(1.85456e+08 -3.75758e+07 -1.05413e-07 8.70832e+06 -5.28123e-09 5.82494e+07)
(1.87665e+08 -3.20975e+07 -6.69034e-08 3.91407e+06 1.64883e-08 5.74736e+07)
(1.89602e+08 -2.70855e+07 1.22373e-07 260517 3.13181e-08 5.69588e+07)
(1.91074e+08 -2.25191e+07 6.10372e-08 -3.51099e+06 4.50081e-08 5.6269e+07)
(1.92339e+08 -1.82798e+07 -5.50001e-08 -6.26597e+06 -1.62092e-08 5.58221e+07)
(1.93156e+08 -1.44395e+07 7.95102e-08 -9.18512e+06 3.84454e-08 5.51912e+07)
(1.93844e+08 -1.08303e+07 -4.8619e-08 -1.11693e+07 -9.93291e-08 5.48025e+07)
(1.94099e+08 -7.60192e+06 -7.96661e-08 -1.33871e+07 -6.29977e-08 5.42137e+07)
(1.94319e+08 -4.52812e+06 -1.02413e-07 -1.47081e+07 -2.98461e-08 5.38833e+07)
(1.94108e+08 -1.83827e+06 -1.4974e-14 -1.63542e+07 3.28696e-15 5.33261e+07)
(1.93974e+08 774209 -2.0447e-08 -1.71096e+07 -4.58177e-08 5.30592e+07)
(1.93377e+08 2.97173e+06 -4.62492e-08 -1.8286e+07 -3.88501e-08 5.25272e+07)
(1.93012e+08 5.193e+06 -6.80056e-08 -1.85736e+07 -3.24797e-08 5.23315e+07)
(1.91937e+08 7.00332e+06 7.03376e-08 -1.93934e+07 3.03172e-08 5.1763e+07)
(1.41413e+08 -8.18667e+07 -8.60446e-08 5.04286e+07 2.10862e-08 5.75525e+07)
(1.48696e+08 -7.16794e+07 6.38559e-08 3.9769e+07 9.13235e-08 5.65395e+07)
(1.54876e+08 -6.28902e+07 3.96875e-08 3.12094e+07 2.37731e-08 5.58255e+07)
(1.60299e+08 -5.51782e+07 9.15571e-08 2.30743e+07 -3.11343e-08 5.5012e+07)
(1.65012e+08 -4.8398e+07 1.89825e-09 1.6563e+07 -6.41635e-10 5.44726e+07)
(1.69096e+08 -4.23296e+07 -3.00124e-09 1.02431e+07 3.64275e-08 5.38016e+07)
(1.72674e+08 -3.68771e+07 3.42092e-08 5.2558e+06 2.33703e-08 5.33789e+07)
(1.75692e+08 -3.1952e+07 -1.28638e-07 336086 -2.57971e-08 5.28086e+07)
(1.78337e+08 -2.74297e+07 -6.10239e-08 -3.45007e+06 -1.33196e-08 5.24659e+07)
(1.80472e+08 -2.33484e+07 5.25369e-08 -7.25187e+06 -1.67576e-08 5.19661e+07)
(1.82337e+08 -1.95243e+07 -8.26869e-08 -1.00537e+07 -3.66356e-08 5.1685e+07)
(1.83735e+08 -1.61066e+07 2.15379e-08 -1.29532e+07 -6.7916e-09 5.12346e+07)
(1.84959e+08 -1.28399e+07 1.56094e-07 -1.49289e+07 1.04636e-08 5.10092e+07)
(1.85743e+08 -9.97496e+06 5.41204e-08 -1.70999e+07 4.14916e-08 5.05929e+07)
(1.8646e+08 -7.17464e+06 -6.508e-08 -1.83745e+07 2.10499e-08 5.04257e+07)
(1.86731e+08 -4.79087e+06 -4.00955e-08 -1.99576e+07 -1.51165e-08 5.00322e+07)
(1.87075e+08 -2.39227e+06 -1.06653e-08 -2.0639e+07 -2.41652e-08 4.99308e+07)
(1.86911e+08 -441237 2.34133e-08 -2.17418e+07 1.91965e-08 4.95507e+07)
(1.8702e+08 1.60909e+06 1.8845e-10 -2.19359e+07 -6.84434e-11 4.95252e+07)
(1.86318e+08 3.24786e+06 -3.74529e-08 -2.26876e+07 -4.79908e-09 4.90891e+07)
(1.20127e+08 -7.49327e+07 2.82573e-08 4.94202e+07 6.39047e-09 5.08642e+07)
(1.2946e+08 -6.62387e+07 -9.52312e-08 3.7996e+07 -6.01993e-10 5.02368e+07)
(1.37334e+08 -5.86724e+07 4.85536e-08 2.88158e+07 -2.04257e-08 4.98449e+07)
(1.44217e+08 -5.20075e+07 8.4635e-09 2.02547e+07 -4.31257e-08 4.93416e+07)
(1.50115e+08 -4.60957e+07 2.51812e-08 1.34005e+07 1.0616e-07 4.90548e+07)
(1.5526e+08 -4.08275e+07 -3.60106e-08 6.89053e+06 -2.31982e-08 4.86451e+07)
(1.59714e+08 -3.60513e+07 -6.32259e-10 1.74007e+06 -3.69484e-08 4.84361e+07)
(1.63535e+08 -3.17712e+07 0 -3.22701e+06 0 4.80923e+07)
(1.66877e+08 -2.78021e+07 -6.29364e-08 -7.06803e+06 -4.53677e-08 4.79428e+07)
(1.69649e+08 -2.42546e+07 -4.4778e-09 -1.08396e+07 -3.27865e-08 4.76429e+07)
(1.72116e+08 -2.08901e+07 6.5717e-08 -1.36342e+07 7.4803e-08 4.75445e+07)
(1.7404e+08 -1.79163e+07 -1.49563e-07 -1.64681e+07 -3.82852e-08 4.72716e+07)
(1.75812e+08 -1.50309e+07 4.56173e-08 -1.84004e+07 1.35638e-08 4.72235e+07)
(1.77047e+08 -1.253e+07 1.1478e-07 -2.0499e+07 4.73176e-08 4.69645e+07)
(1.78276e+08 -1.00432e+07 5.1535e-08 -2.17038e+07 4.03037e-08 4.69718e+07)
(1.78949e+08 -7.94837e+06 1.46145e-08 -2.32297e+07 -6.29236e-09 4.67159e+07)
(1.7977e+08 -5.80333e+06 2.44571e-08 -2.38137e+07 1.91515e-08 4.6787e+07)
(1.79974e+08 -4.06974e+06 -1.17257e-08 -2.48905e+07 5.37891e-09 4.65251e+07)
(1.80528e+08 -2.21582e+06 3.52913e-08 -2.49629e+07 4.17885e-08 4.66696e+07)
(1.80155e+08 -715995 1.25669e-08 -2.57237e+07 2.28412e-08 4.63294e+07)
(9.99114e+07 -6.68504e+07 5.54123e-08 4.69549e+07 -3.46509e-08 4.40599e+07)
(1.10992e+08 -5.98898e+07 1.27815e-09 3.50656e+07 -6.42541e-10 4.38172e+07)
(1.20298e+08 -5.37867e+07 1.13333e-09 2.54674e+07 -5.67245e-10 4.37297e+07)
(1.28474e+08 -4.83353e+07 1.04995e-07 1.66581e+07 1.16812e-07 4.35395e+07)
(1.35427e+08 -4.34757e+07 -3.68841e-08 9.57325e+06 -2.31514e-08 4.35e+07)
(1.41535e+08 -3.91061e+07 1.10076e-07 2.97809e+06 -5.41361e-08 4.3354e+07)
(1.46786e+08 -3.51257e+07 -3.15198e-08 -2.27743e+06 1.54842e-08 4.33527e+07)
(1.51358e+08 -3.15428e+07 -2.99549e-08 -7.22572e+06 1.46477e-08 4.32397e+07)
(1.55327e+08 -2.81958e+07 -6.26338e-08 -1.10942e+07 -4.47986e-08 4.32698e+07)
(1.58717e+08 -2.52079e+07 -7.43718e-08 -1.47874e+07 3.64266e-08 4.3179e+07)
(1.61695e+08 -2.23344e+07 5.08071e-08 -1.75635e+07 1.09319e-08 4.32395e+07)
(1.64158e+08 -1.98221e+07 4.81666e-09 -2.02876e+07 -7.27617e-08 4.31611e+07)
(1.66363e+08 -1.73174e+07 -7.30389e-08 -2.21741e+07 -3.21833e-08 4.32567e+07)
(1.68084e+08 -1.52091e+07 1.00888e-08 -2.41471e+07 2.86309e-08 4.31812e+07)
(1.69696e+08 -1.30039e+07 1.08696e-08 -2.52877e+07 2.75926e-08 4.33226e+07)
(1.70807e+08 -1.12523e+07 -2.553e-08 -2.66783e+07 -1.90125e-08 4.32387e+07)
(1.7199e+08 -9.30636e+06 1.21631e-08 -2.71807e+07 -6.80397e-09 4.34428e+07)
(1.72566e+08 -7.854e+06 1.25707e-08 -2.81176e+07 2.4683e-08 4.33345e+07)
(1.7349e+08 -6.17215e+06 -5.63166e-08 -2.80721e+07 -2.94132e-08 4.36254e+07)
(1.73398e+08 -4.86307e+06 -2.2401e-08 -2.87211e+07 -1.7427e-08 4.34031e+07)
(8.09154e+07 -5.77487e+07 -2.55577e-08 4.29768e+07 -7.10198e-09 3.71677e+07)
(9.33618e+07 -5.27009e+07 -5.21234e-08 3.10297e+07 3.06796e-08 3.73175e+07)
(1.03855e+08 -4.81926e+07 -6.47183e-08 2.13464e+07 1.29232e-07 3.75604e+07)
(1.13101e+08 -4.41028e+07 1.16515e-07 1.25533e+07 -2.29873e-08 3.76963e+07)
(1.20976e+08 -4.0389e+07 7.2255e-09 5.46146e+06 -9.18789e-08 3.79312e+07)
(1.27912e+08 -3.70255e+07 -1.8419e-09 -1.0415e+06 4.38961e-08 3.80612e+07)
(1.33897e+08 -3.38994e+07 6.35336e-08 -6.24282e+06 5.19283e-09 3.82961e+07)
(1.39111e+08 -3.10868e+07 5.73973e-08 -1.10426e+07 -3.3082e-08 3.84205e+07)
(1.43694e+08 -2.83967e+07 3.18531e-08 -1.48211e+07 2.14908e-08 3.86617e+07)
(1.47585e+08 -2.60152e+07 -7.77909e-08 -1.83299e+07 6.20194e-09 3.87764e+07)
(1.51112e+08 -2.36587e+07 -6.58609e-08 -2.10043e+07 -7.58257e-08 3.90324e+07)
(1.53962e+08 -2.16309e+07 2.85068e-08 -2.35247e+07 2.0413e-08 3.91311e+07)
(1.56693e+08 -1.9543e+07 -6.33311e-08 -2.53141e+07 1.62849e-09 3.94137e+07)
(1.58706e+08 -1.78195e+07 -4.31058e-08 -2.70812e+07 -9.46269e-09 3.94875e+07)
(1.60836e+08 -1.59633e+07 2.63487e-09 -2.81286e+07 -3.71115e-08 3.98124e+07)
(1.62175e+08 -1.45094e+07 2.65643e-08 -2.93434e+07 -1.71605e-08 3.98496e+07)
(1.63825e+08 -1.28668e+07 -2.31987e-08 -2.97067e+07 1.57111e-08 4.02354e+07)
(1.64649e+08 -1.16549e+07 1.03472e-08 -3.05763e+07 -7.20024e-09 4.02219e+07)
(1.65999e+08 -1.02183e+07 -1.31559e-08 -3.03647e+07 -2.44835e-08 4.06902e+07)
(1.66148e+08 -9.07811e+06 -3.91457e-08 -3.10818e+07 -3.78627e-09 4.052e+07)
(6.36228e+07 -4.81309e+07 -2.27199e-08 3.75652e+07 -8.48512e-09 3.03564e+07)
(7.70605e+07 -4.50459e+07 -1.06491e-07 2.5835e+07 1.21521e-07 3.08686e+07)
(8.8386e+07 -4.22342e+07 -8.16314e-08 1.6252e+07 6.93899e-09 3.13914e+07)
(9.84585e+07 -3.95696e+07 1.5401e-08 7.6622e+06 -1.51903e-07 3.18362e+07)
(1.07015e+08 -3.71125e+07 3.47572e-08 670762 2.29244e-08 3.23057e+07)
(1.14632e+08 -3.48035e+07 -6.68839e-08 -5.62047e+06 -4.55986e-08 3.27036e+07)
(1.21169e+08 -3.26345e+07 6.46486e-10 -1.07215e+07 -4.30159e-10 3.31342e+07)
(1.26956e+08 -3.06154e+07 -5.92214e-08 -1.53008e+07 -3.52863e-09 3.34964e+07)
(1.31986e+08 -2.86755e+07 1.16742e-07 -1.89892e+07 4.78047e-08 3.38991e+07)
(1.3638e+08 -2.68975e+07 2.30226e-08 -2.22755e+07 -1.54516e-08 3.42315e+07)
(1.40268e+08 -2.51415e+07 -2.00833e-08 -2.48803e+07 1.36253e-08 3.46162e+07)
(1.43588e+08 -2.35777e+07 1.03086e-07 -2.71821e+07 4.68864e-08 3.49218e+07)
(1.46599e+08 -2.19698e+07 -9.99862e-09 -2.89326e+07 -3.15091e-08 3.52999e+07)
(1.49084e+08 -2.06237e+07 -4.12645e-08 -3.04815e+07 -8.42915e-09 3.55808e+07)
(1.51425e+08 -1.91222e+07 -1.04421e-07 -3.15398e+07 -3.53906e-08 3.59656e+07)
(1.53251e+08 -1.80579e+07 -1.2804e-08 -3.25004e+07 9.56984e-09 3.62252e+07)
(1.55098e+08 -1.65827e+07 5.95532e-08 -3.29914e+07 2.63478e-08 3.6632e+07)
(1.56277e+08 -1.5679e+07 -7.07502e-08 -3.36084e+07 -5.0991e-08 3.68007e+07)
(1.5791e+08 -1.43764e+07 4.56424e-08 -3.348e+07 3.33234e-08 3.73291e+07)
(1.58177e+08 -1.35524e+07 7.89454e-08 -3.39489e+07 2.92648e-08 3.72686e+07)
(4.79345e+07 -3.79932e+07 -7.38616e-08 3.06122e+07 9.1818e-08 2.3564e+07)
(6.20292e+07 -3.69025e+07 -1.14184e-08 1.94551e+07 6.06304e-08 2.44453e+07)
(7.39471e+07 -3.57903e+07 -6.33296e-08 1.03081e+07 -1.03064e-07 2.52766e+07)
(8.46137e+07 -3.45852e+07 3.47879e-08 2.17358e+06 2.28499e-08 2.60362e+07)
(9.36978e+07 -3.33812e+07 3.34675e-08 -4.46642e+06 -2.56141e-08 2.67694e+07)
(1.0183e+08 -3.21553e+07 6.83752e-10 -1.0366e+07 -5.21646e-10 2.74392e+07)
(1.08835e+08 -3.09246e+07 -3.28498e-08 -1.51677e+07 -2.10992e-08 2.81001e+07)
(1.15057e+08 -2.97219e+07 6.16563e-09 -1.93919e+07 4.03237e-08 2.86996e+07)