/*--------------------------------*- C++ -*----------------------------------*\
| =========                 |                                                 |
| \\      /  F ield         | OpenFOAM: The Open Source CFD Toolbox           |
|  \\    /   O peration     | Version:  v2012                                 |
|   \\  /    A nd           | Website:  www.openfoam.com                      |
|    \\/     M anipulation  |                                                 |
\*---------------------------------------------------------------------------*/
FoamFile
{
    version     2.0;
    format      ascii;
    class       volSymmTensorField;
    location    "3";
    object      sigma;
}
// * * * * * * * * * * * * * * * * * * * * * * * * * * * * * * * * * * * * * //

dimensions      [1 -1 -2 0 0 0 0];


internalField   nonuniform List<symmTensor> 
1896
(
(3.96738e+07 -1.66474e+06 -4.31079e-05 8.91438e+06 7.83406e-06 1.45765e+07)
(4.0636e+07 -1.53568e+06 4.83387e-06 1.30514e+06 -3.44253e-05 1.25823e+07)
(3.81515e+07 -736135 2.21611e-05 8.61579e+06 4.2749e-05 1.40302e+07)
(7.55326e+07 5.74836e+06 0.000174218 -1.61478e+06 -5.34703e-05 2.21754e+07)
(3.92217e+07 -1.98562e+06 1.89852e-05 8.33644e+06 -1.33804e-05 1.42674e+07)
(3.86628e+07 -2.0637e+06 7.1574e-05 8.2366e+06 -8.02982e-06 1.40698e+07)
(7.20675e+07 8.31358e+06 4.44798e-05 -738782 -2.79057e-05 2.13986e+07)
(3.56838e+07 -3.51865e+06 4.72178e-05 6.47173e+06 -9.72211e-06 1.26467e+07)
(3.30699e+07 -1.44317e+07 -1.48169e-05 -1.15864e+07 4.54051e-06 6.44503e+06)
(3.48301e+07 -2.79299e+06 3.1175e-05 6.7556e+06 -1.92682e-05 1.24757e+07)
(3.97257e+07 -223885 3.9535e-05 1.00773e+07 -2.86988e-06 1.49409e+07)
(2.55797e+07 -6.87593e+06 2.44963e-05 3.51316e+06 9.13649e-07 8.72786e+06)
(2.47904e+07 -4.54028e+06 -6.30505e-06 4.52368e+06 3.35531e-06 8.79423e+06)
(2.3753e+07 -6.63626e+06 2.10052e-05 3.18945e+06 -1.9156e-07 8.08274e+06)
(7.08363e+07 7.46034e+06 -0.00014661 -3.81451e+06 1.5856e-05 2.01065e+07)
(4.89052e+07 2.14528e+06 -2.59967e-05 -186965 -2.68081e-05 1.46155e+07)
(4.52321e+07 -3.46476e+06 -7.12237e-06 743737 3.22565e-05 1.37927e+07)
(1.00229e+08 -6.18628e+06 4.2238e-06 1.26399e+07 3.15253e-07 3.38606e+07)
(4.71211e+07 -5.84494e+06 -2.96921e-05 1.13138e+06 1.28509e-05 1.44757e+07)
(3.15659e+07 -1.527e+07 -0.000101686 1.18641e+06 6.46852e-06 9.8257e+06)
(-4.50868e+06 8.72146e+06 -6.74407e-05 -5.2681e+07 -2.54078e-05 -1.71569e+07)
(4.06325e+07 -4.5065e+06 -3.33934e-06 3.0131e+06 -3.63416e-07 1.30937e+07)
(6.59555e+07 -366718 -5.80357e-05 -672178 8.5235e-07 1.9585e+07)
(6.76289e+07 349626 -6.58761e-05 -1.60919e+06 -5.9898e-06 1.98059e+07)
(4.18798e+07 -2.89522e+06 2.77889e-06 1.75274e+06 5.12271e-05 1.30898e+07)
(4.13834e+07 -2.78171e+06 2.21611e-05 1.58915e+06 1.9229e-05 1.28918e+07)
(2.62547e+07 -3.22497e+06 -1.09755e-06 5.59404e+06 -2.8183e-06 9.55461e+06)
(2.64841e+07 -2.7766e+06 -8.99054e-06 5.3838e+06 3.68488e-06 9.56036e+06)
(3.93153e+07 -1.51205e+06 -7.99808e-05 9.51881e+06 6.88521e-06 1.46502e+07)
(5.03425e+07 -7.49429e+06 4.11813e-05 484446 1.23357e-05 1.52481e+07)
(4.79808e+07 -7.54376e+06 -7.26249e-05 242737 1.18395e-05 1.44671e+07)
(4.04702e+07 -468873 -3.38605e-05 318638 -2.89463e-05 1.22367e+07)
(1.70538e+07 -5.99795e+06 -1.84481e-05 -67709.6 -5.17941e-06 5.09584e+06)
(4.10638e+07 -1.31079e+06 5.2472e-05 1.13319e+06 -4.86496e-05 1.26591e+07)
(6.4463e+07 -818982 0.000144888 236195 5.18912e-05 1.94098e+07)
(3.99599e+07 -1.10315e+06 -7.68516e-05 1.04281e+07 -5.84356e-05 1.51164e+07)
(4.74021e+07 -7.32997e+06 -0.000110946 731666 -4.00561e-05 1.44401e+07)
(4.01298e+07 -1.61919e+06 9.50428e-06 3.20224e+06 -7.6478e-07 1.29996e+07)
(9.15879e+07 2.0894e+06 -0.000249858 8.31121e+06 0.000222136 2.99697e+07)
(5.11758e+07 -7.64597e+06 0.000101453 69682.4 5.6833e-06 1.53736e+07)
(4.03518e+07 -84231.7 7.88365e-05 -65524.2 4.33764e-06 1.20859e+07)
(6.32632e+07 -1.32058e+07 -5.01777e-05 -95338.7 4.17359e-05 1.89504e+07)
(4.18097e+07 -9.8555e+06 5.4959e-05 833504 -6.10211e-05 1.27929e+07)
(5.9612e+07 -4.73269e+06 -7.1504e-05 -1.29648e+07 4.82307e-05 1.39942e+07)
(2.7153e+07 -2.49163e+06 -9.34082e-08 6.14691e+06 6.64471e-06 9.98997e+06)
(2.422e+07 -2.42709e+06 1.07653e-05 4.89344e+06 -1.16578e-06 8.73405e+06)
(6.85957e+07 8.07039e+06 2.06082e-06 -2.94482e+06 -8.79088e-05 1.96953e+07)
(3.9701e+07 -728896 1.37544e-05 9.9448e+06 5.98396e-07 1.48937e+07)
(6.16088e+07 -331750 0.000172817 -8.9191e+06 2.78123e-05 1.58069e+07)
(6.4312e+07 8.79638e+06 2.59704e-05 -2.20384e+06 -9.04892e-05 1.86324e+07)
(3.86373e+07 -1.19082e+06 -4.5373e-05 8.33146e+06 3.47199e-05 1.40906e+07)
(3.74716e+07 -2.85894e+06 4.69376e-06 7.31309e+06 -5.75701e-06 1.34354e+07)
(3.61752e+07 -3.09456e+06 4.90393e-05 6.64737e+06 -6.05219e-06 1.28468e+07)
(4.12182e+07 -4.27205e+06 1.76074e-05 3.48934e+06 1.18249e-05 1.34123e+07)
(3.52997e+07 -1.28327e+07 -6.87835e-05 -9.65395e+06 -1.98288e-05 7.69373e+06)
(4.24644e+07 -542577 -3.45377e-05 105857 1.51613e-05 1.27711e+07)
(4.95873e+07 -9.24861e+06 -2.01995e-06 -9.5771e+06 1.47089e-05 1.20031e+07)
(4.00646e+07 -1.22064e+06 -8.76636e-05 9.4229e+06 -3.82693e-05 1.48462e+07)
(4.03875e+07 -736426 6.76509e-05 4.68981e+06 4.65946e-06 1.35232e+07)
(5.29459e+07 -1.26381e+06 -7.71085e-05 636038 -0.000173196 1.60746e+07)
(3.5518e+07 -2.74564e+06 4.65406e-05 6.93803e+06 -1.07662e-05 1.27368e+07)
(6.67952e+07 8.842e+06 4.30962e-05 -1.89341e+06 6.64132e-05 1.94705e+07)
(6.4739e+07 8.16451e+06 9.56733e-05 -3.31858e+06 7.75521e-05 1.84261e+07)
(3.90211e+07 -3.9075e+06 -2.35856e-06 6.46737e+06 2.18137e-05 1.36465e+07)
(3.65247e+07 -1.92538e+07 -8.69513e-05 1.41454e+07 6.59112e-06 1.5201e+07)
(4.03789e+07 -231419 2.23012e-05 168878 1.04325e-05 1.21643e+07)
(6.43108e+07 -2.38691e+06 0.000172502 -1.18074e+06 -1.79052e-05 1.8939e+07)
(2.99455e+07 -9.60989e+06 -1.05084e-06 2.24238e+06 6.98737e-06 9.65635e+06)
(4.01096e+07 -2.45451e+06 -5.91507e-05 4.2141e+06 -3.95978e-05 1.32971e+07)
(6.44566e+07 -2.3751e+06 0.000148426 -668309 -3.3843e-05 1.91365e+07)
(1.46803e+07 -1.28172e+06 7.19243e-06 1.41068e+06 1.57266e-06 4.82728e+06)
(6.56301e+07 6.54364e+06 0.000135436 -4.14961e+06 3.62307e-05 1.84441e+07)
(4.04005e+07 -2.34319e+06 -9.04191e-05 3.83954e+06 9.22844e-06 1.3272e+07)
(4.14272e+07 -369595 -9.79618e-05 80021.2 -9.88229e-06 1.24522e+07)
(6.74564e+07 -1.02749e+06 0.000175818 -89728.1 -4.52446e-06 2.021e+07)
(4.10539e+07 -2.31726e+06 9.29411e-06 1.78672e+06 5.95039e-06 1.28522e+07)
(4.12117e+07 -1.94017e+06 -3.80638e-05 1.32162e+06 -1.5354e-06 1.276e+07)
(3.96859e+07 -2.86846e+06 3.92314e-05 7.05798e+06 -1.66894e-05 1.40232e+07)
(3.99444e+07 -2.99689e+06 7.67582e-05 6.40524e+06 -1.11221e-05 1.39049e+07)
(4.08409e+07 -7.28994e+06 4.85723e-06 3.59816e+06 3.5733e-05 1.33317e+07)
(7.03442e+07 -1.93345e+07 -0.000149278 9.97481e+06 4.87999e-05 2.40957e+07)
(6.70021e+07 -1.08921e+06 -0.000141502 -1.35702e+06 1.70733e-05 1.96935e+07)
(3.09258e+07 -1.67443e+06 1.86583e-05 6.82918e+06 2.24379e-05 1.13265e+07)
(3.44306e+07 -5.08994e+06 -2.71818e-05 5.96594e+06 -9.01389e-06 1.2119e+07)
(3.3498e+07 -4.32276e+06 -2.34455e-05 5.99685e+06 -2.43722e-05 1.18485e+07)
(4.33e+07 -6.96451e+06 -7.75054e-05 2.2547e+06 3.0905e-05 1.36664e+07)
(3.49842e+07 -8.73438e+06 -7.47265e-07 3.6993e+06 2.45926e-06 1.1605e+07)
(3.33228e+07 -9.20183e+06 5.27289e-05 3.1977e+06 -1.72075e-06 1.09561e+07)
(4.57249e+07 -1.07773e+07 -4.34348e-05 -1.11227e+07 2.75802e-05 1.03807e+07)
(3.75061e+07 -1.03299e+07 5.00318e-05 1.42544e+06 -2.56508e-06 1.16795e+07)
(3.77678e+07 -7.82823e+06 8.89947e-05 4.24616e+06 -1.42572e-05 1.26042e+07)
(1.71022e+08 -8.16185e+06 -1.84e-05 1.19617e+07 0.000295088 5.4895e+07)
(2.65439e+07 -1.40108e+07 4.69376e-06 -7.66037e+06 8.22722e-06 5.66507e+06)
(8.20732e+07 -6.95788e+06 -6.4475e-05 2.17957e+06 4.93896e-06 2.52758e+07)
(6.83435e+07 -47652 -0.000103426 -289070 -5.14621e-05 2.04163e+07)
(4.16408e+07 -3.85885e+06 -5.48773e-06 2.66242e+06 -8.66945e-07 1.3291e+07)
(4.01729e+07 -424560 7.4493e-06 1.54525e+06 1.19241e-05 1.25154e+07)
(4.00515e+07 -245839 2.70884e-06 1.14089e+07 -4.21519e-05 1.54381e+07)
(4.00894e+07 -219016 -4.8619e-05 576856 1.94464e-05 1.21999e+07)
(3.3744e+07 -1.1177e+07 -4.2057e-05 490273 7.29751e-07 1.02703e+07)
(3.48446e+07 -1.06465e+07 -7.12121e-05 867725 3.09123e-06 1.07137e+07)
(2.68218e+07 -9.88492e+06 1.83314e-05 895009 -7.62627e-06 8.31505e+06)
(3.9128e+07 -3.86234e+06 -9.93863e-05 6.58913e+06 2.80028e-05 1.37151e+07)
(2.87309e+07 -1.28425e+07 -4.90393e-06 -6.08783e+06 2.58485e-05 6.79292e+06)
(3.95962e+07 -1.21812e+07 4.67858e-05 -6.29408e+06 -1.79417e-05 9.99062e+06)
(4.14486e+07 -1.03481e+07 6.12174e-05 1.12011e+06 -1.74272e-05 1.27706e+07)
(4.23746e+07 -6.8464e+06 -3.71998e-05 1.8765e+06 5.02945e-05 1.32753e+07)
(6.57647e+07 -1.24098e+06 -0.000111745 -9.69757e+06 -3.41203e-05 1.68201e+07)
(6.14134e+07 -2.0306e+06 -8.93566e-05 -3.58375e+06 5.3231e-05 1.73489e+07)
(1.3434e+08 752019 -0.000205116 8.04423e+06 0.000449784 4.27152e+07)
(4.00403e+07 -343203 8.26662e-05 1.18445e+07 -2.5463e-05 1.55654e+07)
(4.01765e+07 -269707 -8.59122e-05 653508 5.39345e-05 1.2249e+07)
(5.65868e+07 -4.93366e+06 -0.000165578 -4.15882e+06 9.52764e-06 1.57284e+07)
(4.70054e+07 -1.0802e+07 -4.93779e-05 -1.09883e+07 5.31639e-05 1.08051e+07)
(1.08194e+08 -2.4129e+07 -3.41232e-05 4.66514e+06 -0.000345569 3.38578e+07)
(3.50361e+07 -9.66622e+06 1.1209e-05 2.50535e+06 4.88933e-06 1.12624e+07)
(3.1798e+07 -957006 9.85456e-06 7.09576e+06 3.79772e-05 1.16681e+07)
(3.78139e+07 -8.77507e+06 -2.7065e-05 3.52364e+06 -7.65633e-05 1.24013e+07)
(5.6425e+07 -1.01327e+07 0.000146242 -1.01683e+07 3.22725e-05 1.3877e+07)
(4.92751e+07 -7.50129e+06 -7.10486e-05 756494 -7.0348e-06 1.50095e+07)
(5.83244e+07 -6.3241e+06 0.00013752 -1.03099e+07 -7.18834e-05 1.44043e+07)
(2.91527e+07 -1.44969e+07 1.87867e-05 -1.23771e+07 -2.07979e-06 5.03267e+06)
(4.03839e+07 -1.70173e+06 -8.50015e-06 3.33953e+06 1.45527e-05 1.3117e+07)
(3.09498e+07 -3.75797e+06 -6.84215e-06 5.97396e+06 -4.09339e-05 1.10771e+07)
(3.1692e+07 -3.18354e+06 1.42447e-05 6.34179e+06 -1.80894e-05 1.14101e+07)
(4.10568e+07 -1.27448e+07 -0.000104419 -1.41922e+07 2.55924e-05 8.05937e+06)
(6.17573e+07 -2.64248e+06 -0.000109293 -1.24073e+07 3.37466e-05 1.4805e+07)
(3.52904e+07 -3.5893e+06 3.19222e-05 6.56977e+06 -2.10285e-05 1.2558e+07)
(4.84391e+07 -3.57171e+06 2.40876e-05 259054 -3.82915e-05 1.46094e+07)
(3.42859e+07 -1.20244e+07 -3.60672e-05 -1.25368e+06 -4.6113e-06 9.90965e+06)
(3.64177e+07 -1.17989e+07 -7.81243e-05 -1.08427e+06 -3.357e-05 1.06e+07)
(3.794e+07 -7.60131e+06 6.9881e-05 3.83164e+06 -2.47605e-05 1.25315e+07)
(5.79058e+07 -4.61201e+06 -0.000154439 -5.57156e+06 1.55116e-05 1.57003e+07)
(9.15257e+07 -1.44828e+07 0.000159261 1.01962e+07 -0.00011498 3.05165e+07)
(4.64233e+07 -5.74316e+06 -8.33902e-05 952494 3.71166e-05 1.42128e+07)
(6.45254e+07 7.59864e+06 8.9199e-05 -2.26226e+06 -0.000104997 1.8679e+07)
(7.50775e+07 1.46445e+06 -1.17461e-05 -5.00242e+06 -0.000105837 2.10225e+07)
(7.29714e+07 1.90254e+06 -2.8256e-06 -4.41205e+06 -0.000163126 2.05678e+07)
(4.0619e+07 -338715 -5.25888e-05 128281 1.95749e-05 1.22242e+07)
(5.2917e+07 -7.80453e+06 -3.72815e-05 -951813 2.08096e-05 1.55895e+07)
(4.05844e+07 -3.06847e+06 -1.32173e-05 3.99194e+06 9.00659e-06 1.33729e+07)
(5.75144e+07 -4.23414e+06 -0.000121466 -1.06356e+07 -3.22609e-05 1.40636e+07)
(5.06216e+07 -7.48111e+06 8.86444e-05 -23574.4 2.84121e-05 1.51794e+07)
(6.22026e+07 6.11798e+06 -0.000146382 3.90087e+06 5.56713e-05 1.9831e+07)
(3.60827e+07 -6.51031e+06 6.97759e-05 5.04324e+06 -3.05226e-05 1.23378e+07)
(4.4333e+07 -5.21751e+06 -2.65746e-05 1.87369e+06 2.80662e-05 1.3862e+07)
(4.28631e+07 -4.95557e+06 -6.11824e-06 1.16606e+06 2.10373e-05 1.32087e+07)
(4.87245e+07 -3.61326e+06 -2.78823e-05 159031 4.13156e-05 1.46651e+07)
(6.50043e+07 1.77573e+06 0.000142757 -3.32635e+06 -2.87639e-05 1.85034e+07)
(3.60747e+07 -9.20409e+06 -6.9449e-05 2.99298e+06 -3.44479e-05 1.17203e+07)
(2.79959e+07 -4.45396e+06 -2.5804e-05 5.76296e+06 3.59092e-06 1.01277e+07)
(4.03615e+07 -1.06716e+06 4.70544e-05 1.52626e+06 -2.05148e-05 1.25663e+07)
(4.02166e+07 -3.36922e+06 -1.43615e-05 3.38584e+06 -1.48431e-05 1.30807e+07)
(3.93431e+07 -4.1953e+06 0.000112417 5.33306e+06 2.07585e-05 1.34028e+07)
(3.90036e+07 -4.73846e+06 4.2851e-05 4.97796e+06 -1.46512e-05 1.31945e+07)
(5.49525e+07 -6.6095e+06 -0.000118243 -7.9888e+06 -7.2692e-05 1.40891e+07)
(2.93928e+07 -951576 1.7514e-05 6.08392e+06 2.17276e-05 1.0643e+07)
(5.30365e+07 -7.27694e+06 -2.84428e-05 -9.50952e+06 -7.25752e-05 1.30581e+07)
(1.46508e+08 -2.6775e+07 0.00095302 1.48501e+07 -0.000304347 4.84075e+07)
(3.71754e+07 -1.96612e+06 7.02897e-06 7.49772e+06 -1.99032e-05 1.34019e+07)
(3.70689e+07 -2.74029e+06 3.04978e-05 7.04138e+06 -1.20405e-05 1.32331e+07)
(7.09941e+07 -758835 0.000398631 -188312 -6.95015e-06 2.12417e+07)
(3.28345e+07 -1.27678e+07 6.63198e-06 -1.2199e+07 -3.12655e-05 6.19065e+06)
(4.04301e+07 -1.48621e+06 -5.4924e-05 5.34684e+06 -1.40477e-06 1.37331e+07)
(7.97414e+07 4.26414e+06 -3.26447e-05 1.1989e+07 0.000133702 2.75191e+07)
(3.43733e+07 -2.86831e+06 3.10115e-05 6.82752e+06 -1.09271e-05 1.23603e+07)
(5.37249e+07 2.05794e+06 -2.21928e-05 3.87673e+06 6.48019e-06 1.72805e+07)
(3.96845e+07 -1.31989e+06 -8.26896e-05 9.43734e+06 -3.92977e-05 1.47366e+07)
(4.00295e+07 -951308 -4.8689e-05 1.06396e+07 -1.88949e-05 1.52007e+07)
(4.04142e+07 -1.09015e+06 2.7462e-05 1.5866e+06 -2.3787e-05 1.26003e+07)
(4.03184e+07 -816853 2.6668e-05 842765 -2.57413e-05 1.23483e+07)
(4.07387e+07 -645964 5.55779e-06 176386 -2.6957e-06 1.22745e+07)
(1.87025e+07 -7.40482e+06 -2.42161e-05 530557 -7.07257e-06 5.76991e+06)
(2.01018e+07 -7.49818e+06 -5.44103e-06 1.13862e+06 -5.76577e-06 6.37212e+06)
(7.45759e+07 4.95331e+06 2.91842e-05 -4.31212e+06 -6.23383e-05 2.10791e+07)
(7.20401e+07 6.34803e+06 6.98285e-05 -3.37543e+06 -2.48524e-05 2.05994e+07)
(6.25487e+07 1.36948e+06 0.000195392 -8.10995e+06 1.61538e-05 1.63316e+07)
(4.14606e+07 -3.45211e+06 3.22725e-05 1.93816e+06 9.68526e-06 1.30196e+07)
(3.94196e+07 -484200 1.5786e-05 1.07195e+07 -2.18707e-06 1.50417e+07)
(3.44442e+07 -1.29119e+07 -5.23786e-05 -6.41805e+06 2.37425e-05 8.40786e+06)
(1.58501e+07 -7.94092e+06 -2.34922e-05 -647611 -8.99017e-06 4.56076e+06)
(5.24913e+07 -3.13638e+06 -6.41247e-05 593089 -7.39063e-05 1.59253e+07)
(4.00384e+07 -3.91715e+06 9.50195e-05 5.92515e+06 1.31246e-05 1.37891e+07)
(6.44824e+07 2.21649e+06 0.00016382 -5.52304e+06 -5.37973e-05 1.76878e+07)
(7.02369e+07 5.94612e+06 -2.19101e-05 -4.37697e+06 2.62243e-05 1.9758e+07)
(8.69414e+07 1.76792e+06 -0.000212226 1.16587e+07 0.000177616 2.958e+07)
(3.31771e+07 -1.01936e+07 -6.92271e-05 1.52855e+06 -1.3847e-05 1.04117e+07)
(5.92675e+07 8.65438e+06 -0.000153499 1.07834e+06 6.80712e-06 1.81038e+07)
(-6.3755e+06 3.89596e+06 -1.44432e-05 -6.7194e+07 1.95822e-05 -2.20708e+07)
(5.15922e+06 -7.77475e+06 5.49941e-06 -1.45006e+07 5.42643e-06 -2.80242e+06)
(6.90594e+07 710449 6.8801e-05 -7.70758e+06 6.62031e-06 1.84056e+07)
(3.95611e+07 -853498 -8.00508e-05 1.0665e+07 -3.02692e-05 1.50678e+07)
(5.82131e+07 -5.09847e+06 -0.00011662 -1.14817e+07 3.15486e-05 1.40194e+07)
(6.82735e+07 1.26301e+06 -1.70762e-05 -183582 -6.48428e-05 2.0427e+07)
(4.96198e+07 -2.23231e+07 -0.000161468 1.29898e+07 2.21844e-06 1.87829e+07)
(2.44408e+07 -8.6085e+06 7.9397e-06 1.44818e+06 1.77147e-06 7.7667e+06)
(4.22783e+07 -1.00623e+07 7.04064e-05 908145 -2.75175e-05 1.29559e+07)
(5.72174e+07 -4.81065e+06 1.61129e-06 -1.15369e+07 1.17636e-05 1.37041e+07)
(2.38337e+07 -8.98899e+06 2.57573e-05 1.70469e+06 -1.57991e-07 7.66152e+06)
(2.97475e+07 -2.35399e+06 2.30952e-05 6.16233e+06 1.38883e-05 1.0773e+07)
(3.30808e+07 -9.08752e+06 5.55545e-05 3.0374e+06 2.59719e-06 1.08355e+07)
(5.0911e+07 -1.38206e+07 -0.000148402 -2.43458e+06 6.04234e-05 1.45429e+07)
(3.94886e+07 -1.11211e+06 -0.000104337 9.58818e+06 -1.9436e-05 1.4723e+07)
(3.99094e+07 -4.40522e+06 3.98853e-05 5.7516e+06 -1.16848e-05 1.36983e+07)
(6.48906e+07 8.52537e+06 -1.64807e-05 2.12757e+06 1.48052e-05 2.01055e+07)
(3.93972e+07 -4.41392e+06 8.80139e-05 6.03449e+06 2.66337e-05 1.36295e+07)
(6.25119e+07 -983689 3.47595e-05 -9.52431e+06 -5.47781e-05 1.58963e+07)
(6.03087e+07 -4.46652e+06 5.6512e-06 -595210 8.87086e-06 1.7914e+07)
(-3.04983e+06 -1.58948e+06 7.4493e-05 -4.58491e+07 2.98348e-05 -1.46697e+07)
(4.19337e+07 -840071 2.81392e-05 -250367 4.11872e-06 1.2505e+07)
(6.75738e+07 -634953 0.000207553 -52867.9 9.26405e-05 2.02563e+07)
(4.7108e+07 -7.38308e+06 -7.45981e-05 586128 1.57626e-06 1.43082e+07)
(4.25727e+07 -3.01483e+06 1.18161e-05 540261 5.08082e-05 1.29339e+07)
(4.33894e+07 -2.7009e+06 1.51788e-06 1.05994e+06 3.71852e-05 1.33348e+07)
(2.68664e+07 -8.11187e+06 9.27076e-06 3.08702e+06 -4.55693e-06 8.98603e+06)
(3.35233e+07 -1.3476e+07 -7.26249e-06 -6.69428e+06 1.90042e-05 8.04871e+06)
(5.40078e+07 -1.47757e+07 -1.92771e-05 -2.18281e+06 6.90345e-05 1.55475e+07)
(5.84992e+07 -2.72704e+06 -2.14605e-05 385241 4.90772e-05 1.76653e+07)
(5.48913e+07 -3.06815e+06 7.16791e-05 -392680 6.07153e-05 1.63496e+07)
(4.88689e+07 -7.61001e+06 4.19052e-05 -52783.8 2.72869e-05 1.46448e+07)
(9.12496e+06 -9.34975e+06 1.38711e-05 -1.75341e+07 1.12214e-05 -2.52274e+06)
(3.96331e+07 -4.97705e+06 -9.154e-06 5.44087e+06 -4.98785e-06 1.35222e+07)
(6.91312e+07 800630 -6.79836e-05 -125852 -1.03099e-05 2.07016e+07)
(6.16724e+07 -2.11075e+06 5.63952e-06 -3.82334e+06 2.39329e-05 1.73547e+07)
(4.00785e+07 -382166 2.45196e-05 1.30889e+06 1.64019e-05 1.24162e+07)
(5.02315e+07 -8.12348e+06 5.69323e-05 -782791 2.4813e-05 1.48346e+07)
(7.06386e+07 -1.2455e+06 4.32071e-05 -5.23778e+06 -9.66016e-05 1.96203e+07)
(4.24537e+07 -5.60374e+06 5.26355e-05 1.74499e+06 -3.55973e-06 1.32596e+07)
(5.5625e+07 4.0729e+06 -0.000141795 5.41333e+06 6.38562e-05 1.83115e+07)
(4.07425e+07 -613104 -0.000110268 534661 -3.3011e-05 1.23832e+07)
(5.39651e+07 3.47834e+06 -0.000197242 1.79003e+06 2.78707e-05 1.67265e+07)
(3.69796e+07 -2.57128e+06 2.76722e-05 7.23486e+06 -3.29231e-05 1.32643e+07)
(3.60474e+07 -2.11813e+06 -4.41354e-06 7.12808e+06 -3.45388e-05 1.29526e+07)
(4.01008e+07 -141676 -4.60969e-05 1.30265e+07 1.08874e-05 1.59382e+07)
(4.01423e+07 -47076.4 9.27076e-06 -95010.9 -4.9769e-05 1.20142e+07)
(3.76567e+07 -4.36683e+06 -5.53444e-06 6.54206e+06 -5.69899e-06 1.32596e+07)
(2.71831e+07 -9.65557e+06 3.30431e-06 1.70626e+06 -4.95282e-06 8.66681e+06)
(6.05358e+07 -4.8019e+06 8.0331e-06 -1.09507e+07 1.98142e-05 1.48755e+07)
(6.81185e+07 7.43828e+06 -0.000104846 7.46273e+06 0.000109451 2.26744e+07)
(5.00084e+07 -1.38138e+06 -5.97812e-06 -602161 -0.000162971 1.48219e+07)
(7.45798e+07 -3.96908e+06 9.70336e-05 -4.17788e+06 -9.53231e-05 2.11206e+07)
(6.62333e+07 123410 -5.39783e-05 -9.19089e+06 -2.88631e-05 1.71127e+07)
(2.94213e+07 -7.60109e+06 -1.66267e-05 4.17817e+06 -6.23354e-06 1.00798e+07)
(7.30911e+07 6.41274e+06 -3.55739e-05 6.59215e+06 8.58538e-05 2.3905e+07)
(4.10673e+07 -4.5588e+06 -1.12323e-05 4.01428e+06 3.26257e-05 1.35245e+07)
(2.34266e+07 -7.42024e+06 2.39125e-05 2.59136e+06 1.19916e-06 7.80539e+06)
(3.99196e+07 -535976 -4.99033e-05 4.14304e+06 8.26006e-06 1.32188e+07)
(2.15197e+07 -7.02656e+06 2.52903e-05 1.76548e+06 -4.48797e-07 6.98556e+06)
(2.25899e+07 -6.4474e+06 1.2937e-05 2.83456e+06 -2.61105e-06 7.62733e+06)
(5.73711e+07 -4.68613e+06 0.000137275 -507648 -9.87967e-05 1.7059e+07)
(3.96865e+07 -1.16289e+07 -1.21314e-05 -1.33421e+07 1.64252e-05 7.90334e+06)
(4.32679e+07 -1.02178e+07 -1.07303e-05 161295 -7.4045e-05 1.30288e+07)
(4.06776e+07 -850515 -2.83727e-05 976429 -7.41165e-05 1.24962e+07)
(3.99777e+07 -227780 7.9864e-06 1.15244e+07 -1.23054e-07 1.54506e+07)
(4.01606e+07 -48545.7 -2.41927e-05 55476.3 2.30018e-05 1.20648e+07)
(3.96054e+07 -5.70216e+06 -1.18395e-05 3.93464e+06 -8.26079e-07 1.3062e+07)
(2.08585e+07 -1.31667e+07 -9.09562e-06 -7.19468e+06 -5.46182e-06 4.09914e+06)
(6.51943e+07 8.75708e+06 -2.98994e-05 4.47388e+06 7.42245e-05 2.09005e+07)
(6.62762e+07 7.50846e+06 0.000125155 -4.07262e+06 0.000120794 1.86611e+07)
(6.39357e+07 -2.8289e+06 -2.30718e-05 -47047.6 7.35385e-05 1.91666e+07)
(4.83469e+07 -2.42607e+06 7.1901e-05 220217 -6.65329e-05 1.45701e+07)
(2.5195e+06 4.02576e+06 -5.62784e-06 -3.08787e+07 4.705e-05 -8.50775e+06)
(-2.67866e+06 2.4335e+06 4.56533e-06 -3.45158e+07 3.50179e-05 -1.11583e+07)
(3.08878e+07 -8.5155e+06 8.05646e-06 3.34615e+06 6.86696e-06 1.02702e+07)
(4.50537e+07 -3.38154e+06 1.37544e-05 185817 2.12066e-05 1.35719e+07)
(4.1455e+07 -1.26038e+07 3.78887e-05 -8.70063e+06 5.5067e-06 9.8263e+06)
(4.82285e+07 -366682 -1.28666e-05 1.64493e+06 2.45664e-05 1.4962e+07)
(2.97088e+07 -1.18885e+07 3.98619e-05 -1.19313e+06 -1.10346e-05 8.55471e+06)
(5.11802e+07 -1.97536e+06 -3.35802e-05 -242563 -0.000147521 1.52813e+07)
(3.98496e+07 -5.49999e+06 -4.0399e-05 4.92738e+06 4.23176e-05 1.34331e+07)
(3.25366e+07 -1.11989e+07 -7.4026e-06 36607.8 5.65557e-07 9.77197e+06)
(-677935 29036.7 1.42331e-05 -2.01136e+07 1.02232e-05 -6.23745e+06)
(6.48841e+07 1.80755e+06 6.17486e-05 -333713 -3.33934e-05 1.93651e+07)
(2.26186e+07 -5.32361e+06 -4.55365e-06 3.87787e+06 5.63368e-07 7.94894e+06)
(4.45296e+07 -4.35629e+06 -2.3352e-07 719084 6.84945e-06 1.35746e+07)
(1.89583e+07 -1.0682e+07 -1.46651e-05 -5.45917e+06 -1.27794e-05 4.04972e+06)
(5.992e+07 -3.46965e+06 -1.62881e-05 -3.93604e+06 2.60288e-05 1.67952e+07)
(4.03946e+07 -677317 -3.50981e-05 7.91293e+06 2.16039e-05 1.44923e+07)
(4.02138e+07 -6.39674e+06 -6.11824e-05 4.38355e+06 -2.8569e-05 1.33792e+07)
(3.88592e+07 -340346 3.5752e-05 9.70164e+06 1.73914e-05 1.45683e+07)
(4.0961e+07 -389368 3.98152e-05 53679.8 2.04272e-05 1.23044e+07)
(6.00318e+07 -3.97465e+06 -7.07801e-05 -279691 1.74265e-06 1.79256e+07)
(1.78343e+07 -8.92697e+06 -1.46651e-05 -3.16707e+06 -4.15302e-06 4.40017e+06)
(3.99716e+07 -72737 8.98353e-05 106827 3.33599e-05 1.20235e+07)
(4.24881e+07 -5.57858e+06 6.06219e-05 2.45347e+06 -1.86948e-05 1.34825e+07)
(4.93425e+07 5.79015e+06 -7.28686e-05 883650 -2.703e-05 1.50678e+07)
(4.13698e+07 -7.68543e+06 3.09181e-05 2.72651e+06 2.34995e-05 1.32289e+07)
(3.70226e+07 -9.10606e+06 -2.98556e-05 3.33446e+06 -2.80057e-05 1.21071e+07)
(3.97183e+07 -7.59334e+06 3.65693e-05 3.02048e+06 -8.99054e-06 1.28216e+07)
(3.94285e+07 -294000 6.35176e-06 1.06785e+07 -5.86802e-06 1.50321e+07)
(4.23677e+07 2.56065e+06 -0.000107666 603834 -4.58284e-05 1.28915e+07)
(4.66744e+07 -6.63583e+06 3.36269e-06 1.17857e+06 1.14659e-05 1.43559e+07)
(4.6951e+07 -8.07492e+06 -0.000109229 960536 -5.86195e-05 1.43735e+07)
(4.19625e+07 -7.77249e+06 4.56883e-05 2.34034e+06 -1.43936e-05 1.32908e+07)
(7.68547e+07 2.7263e+06 -0.000126121 1.11196e+07 0.00013717 2.63923e+07)
(1.77706e+07 -1.39489e+06 3.33934e-06 2.74085e+06 -5.51578e-07 6.15343e+06)
(4.68345e+07 2.30379e+06 0.000108949 -256052 4.09828e-06 1.39735e+07)
(3.48171e+07 -9.68504e+06 2.30601e-05 2.97876e+06 -2.43631e-05 1.13387e+07)
(6.96899e+07 9.24303e+06 -2.17641e-05 3.46719e+06 2.23596e-05 2.19471e+07)
(6.93446e+06 -8.25514e+06 1.52722e-05 -1.96814e+07 1.94391e-05 -3.82407e+06)
(6.45126e+07 9.75562e+06 -3.30607e-05 2.84038e+06 2.43912e-05 2.02059e+07)
(4.61461e+07 -8.28421e+06 -0.000124863 464922 -2.14211e-05 1.39833e+07)
(6.50721e+07 1.99587e+06 2.11219e-05 -2.56926e+06 2.73219e-05 1.87508e+07)
(7.17692e+07 8.28398e+06 7.74354e-05 -1.66553e+06 -7.71785e-05 2.10311e+07)
(3.99471e+07 -4.67561e+06 0.00013766 4.04374e+06 4.94005e-05 1.31972e+07)
(3.72577e+07 -5.58123e+06 -4.79885e-05 5.7347e+06 -2.19509e-06 1.28977e+07)
(3.62876e+07 -5.76481e+06 -2.77422e-05 5.31884e+06 -2.4038e-06 1.24819e+07)
(1.4014e+07 -9.08597e+06 -1.09054e-05 -3.2819e+06 -6.79599e-06 3.21964e+06)
(1.88671e+07 -8.75765e+06 -1.97558e-05 -1.22624e+06 -1.2221e-05 5.29224e+06)
(3.9408e+07 -6.22743e+06 -0.000109194 3.95126e+06 -5.04842e-06 1.30078e+07)
(3.97856e+07 -1.82757e+06 -7.76222e-05 4.57632e+06 -1.80606e-05 1.33086e+07)
(3.83005e+07 -1.02578e+07 2.25814e-05 1.77857e+06 1.95471e-05 1.20237e+07)
(2.04372e+07 -6.39343e+06 1.77009e-05 2.07757e+06 -5.92449e-06 6.75442e+06)
(3.96564e+07 -925004 -3.81806e-05 1.0602e+07 -2.70997e-05 1.50775e+07)
(4.04897e+07 -628924 2.14839e-06 1.21145e+06 -4.70982e-06 1.25104e+07)
(4.87151e+07 -4.48046e+06 -4.76031e-05 675899 8.21e-05 1.48173e+07)
(3.34494e+07 -496729 -1.81212e-05 6.94997e+06 5.73033e-06 1.21198e+07)
(4.0357e+07 -1.67415e+06 -4.78717e-05 4.21528e+06 -4.28364e-06 1.33717e+07)
(4.43108e+07 -9.93362e+06 -1.14775e-05 610600 -6.69284e-05 1.34764e+07)
(4.02926e+07 -2.5638e+06 -5.32894e-05 5.89738e+06 -7.00853e-06 1.3857e+07)
(3.60614e+07 -6.63764e+06 4.12631e-05 5.13466e+06 -1.25495e-05 1.23588e+07)
(6.1296e+07 5.90867e+06 -3.42691e-05 498090 -2.41285e-05 1.85382e+07)
(5.65189e+07 5.68229e+06 3.69955e-05 -1.20899e+06 3.66627e-05 1.6593e+07)
(4.44155e+07 -1.05816e+07 4.83387e-05 -822182 -5.04988e-06 1.3078e+07)
(1.72454e+07 -1.15232e+07 -1.7409e-05 -4.95093e+06 -5.09075e-06 3.68835e+06)
(3.89678e+07 -1.04051e+07 0.000117601 831917 3.90578e-05 1.19399e+07)
(4.20337e+07 -1.05916e+07 2.63061e-05 -399349 -7.36757e-05 1.24903e+07)
(1.82969e+07 -9.03605e+06 -2.20443e-05 -1.46914e+06 -1.13827e-05 5.04833e+06)
(3.93219e+07 -2.44707e+06 -5.12811e-05 8.00686e+06 1.26086e-05 1.41986e+07)
(4.0991e+07 -2.06062e+06 0.000152746 2.62743e+06 -2.28018e-05 1.30855e+07)
(-1.75977e+06 278158 -3.9932e-06 -3.27491e+07 2.22348e-05 -1.03527e+07)
(4.76677e+07 -749511 5.11643e-05 -28612.5 -0.000175018 1.42917e+07)
(3.98664e+07 -563463 -2.25581e-05 1.17825e+07 1.8467e-05 1.54947e+07)
(4.03296e+07 -218415 -6.62731e-05 278963 1.00662e-05 1.21826e+07)
(3.46449e+07 -1.86744e+06 2.23713e-05 7.0057e+06 -3.00108e-05 1.24952e+07)
(1.95608e+06 5.38901e+06 -9.38986e-05 -3.8905e+07 -6.12101e-05 -1.10847e+07)
(2.79485e+07 -7.99416e+06 1.09171e-05 3.44192e+06 -1.03625e-05 9.41712e+06)
(6.59984e+07 1.75699e+06 0.00011087 -952417 2.71059e-05 1.95138e+07)
(3.97117e+07 -2.05522e+06 -4.57934e-05 8.61449e+06 2.12584e-05 1.44979e+07)
(4.04724e+07 -1.82293e+06 5.12811e-05 1.65407e+06 -1.83357e-05 1.26379e+07)
(4.55141e+07 -1.08295e+07 9.90477e-05 -4.00415e+06 1.64997e-05 1.2453e+07)
(3.59195e+06 -4.94589e+06 -2.93068e-06 -2.70466e+07 3.54126e-05 -7.0364e+06)
(4.74357e+07 -9.05652e+06 0.000186408 -722893 5.77379e-05 1.40138e+07)
(3.6198e+07 -1.37387e+07 -2.63061e-05 -8.63798e+06 -1.28407e-05 8.26801e+06)
(2.81904e+07 -4.27079e+06 -1.88918e-05 5.40274e+06 7.85851e-06 1.00779e+07)
(4.70369e+07 -5.81014e+06 -6.79661e-05 305273 3.6489e-05 1.42027e+07)
(4.58638e+07 -7.44027e+06 7.32087e-06 1.01034e+06 3.72027e-06 1.40623e+07)
(8.98948e+07 -8.44874e+06 -0.00024508 5.68696e+06 3.83207e-05 2.86745e+07)
(3.41654e+07 -1.03323e+07 -6.73123e-05 1.96026e+06 -4.86328e-05 1.08377e+07)
(-1.73114e+06 -1.60127e+06 -4.55832e-05 -3.75977e+07 -1.37879e-05 -1.17987e+07)
(1.1263e+07 -8.69571e+06 7.02897e-06 -1.07374e+07 4.48469e-06 157681)
(3.96643e+07 -2.56562e+06 -9.68176e-05 7.56815e+06 2.36235e-05 1.41697e+07)
(4.2299e+07 -1.121e+07 -7.58942e-07 -1.3511e+07 -4.57817e-05 8.6364e+06)
(4.23001e+07 -7.98172e+06 1.72688e-05 2.48839e+06 -1.56342e-05 1.34366e+07)
(4.63014e+07 -4.65545e+06 6.2817e-06 1.18407e+06 -8.95989e-06 1.42456e+07)
(4.87944e+07 -5.6559e+06 -8.50715e-05 986289 3.02307e-05 1.49342e+07)
(8.14761e+06 -2.31635e+06 1.20613e-05 -7.2517e+06 -5.5286e-06 268773)
(8.14481e+07 4.40286e+06 5.90106e-05 5.72073e+06 9.06235e-05 2.61507e+07)
(3.66195e+07 -9.58766e+06 3.93949e-05 2.943e+06 -3.65095e-06 1.18687e+07)
(5.68931e+07 -8.12233e+06 0.000181142 -1.30765e+07 -5.413e-05 1.3145e+07)
(4.21388e+07 -1.29934e+07 -6.04468e-05 -1.51001e+07 -2.10139e-05 8.11159e+06)
(7.25125e+07 218899 -0.000158899 9.14828e+06 0.000157661 2.44982e+07)
(9.04492e+07 1.59719e+06 -9.47801e-05 8.82937e+06 0.000180605 2.97836e+07)
(1.17928e+07 -8.58897e+06 8.67529e-06 -2.23811e+07 2.5734e-05 -3.1765e+06)
(4.10519e+07 -2.62952e+06 0.000127946 2.42964e+06 -2.10095e-05 1.30445e+07)
(4.47526e+07 -4.47072e+06 -1.22598e-05 1.3993e+06 2.31331e-05 1.38456e+07)
(5.42876e+07 -6.93019e+06 4.18002e-05 -1.85735e+06 -4.97501e-05 1.57291e+07)
(5.16259e+07 -8.00559e+06 3.27863e-05 -2.22002e+06 9.16276e-06 1.48218e+07)
(4.03225e+07 -8.62346e+06 -9.46225e-05 3.11148e+06 4.77476e-05 1.30302e+07)
(4.03513e+07 813382 -0.000121939 215855 -5.60683e-05 1.21701e+07)
(6.90353e+07 8.85349e+06 1.30071e-05 -2.49045e+06 -0.000108143 1.99634e+07)
(2.32378e+07 -5.07062e+06 1.04851e-05 3.8826e+06 -1.57106e-06 8.13611e+06)
(3.99626e+07 -204643 -2.40526e-05 1.20178e+07 1.86826e-05 1.55941e+07)
(4.01292e+07 -42055 1.19796e-05 89688.8 2.07249e-07 1.20657e+07)
(4.09279e+07 -2.30737e+06 0.000102095 2.03352e+06 -2.25449e-05 1.28884e+07)
(2.65109e+07 -1.30626e+07 1.37427e-05 -4.9909e+06 4.79228e-06 6.456e+06)
(1.20212e+08 -1.8137e+07 0.000165163 1.70278e+07 -0.000289811 4.11721e+07)
(4.55408e+07 -1.11101e+07 1.25751e-05 -1.23384e+07 -3.07809e-06 9.96071e+06)
(3.5769e+07 -8.37892e+06 -7.12354e-05 4.03333e+06 -3.53492e-06 1.19407e+07)
(3.42961e+07 -9.97788e+06 9.94797e-06 1.98588e+06 -3.30512e-05 1.08846e+07)
(3.19195e+07 -9.5514e+06 1.55992e-05 2.88922e+06 8.41768e-07 1.04426e+07)
(4.02374e+07 -124817 -5.67688e-05 271918 3.06802e-05 1.21528e+07)
(1.33165e+07 -1.01554e+07 4.02823e-06 -1.3523e+07 9.4459e-06 -61951.3)
(3.97476e+07 -2.79877e+06 -3.30198e-05 5.31011e+06 -1.85722e-05 1.35173e+07)
(2.67906e+07 -1.21938e+07 1.90436e-05 -4.10631e+06 8.69973e-06 6.80527e+06)
(3.99634e+07 -586966 -5.413e-05 7.77514e+06 2.19217e-05 1.43216e+07)
(8.17096e+07 5.48121e+06 -0.000135264 8.40036e+06 0.000125424 2.7033e+07)
(4.03867e+07 -2.38425e+06 0.00014616 1.88181e+06 -3.54046e-05 1.26806e+07)
(3.99194e+07 -471492 2.94236e-06 1.09015e+07 -5.14133e-06 1.52462e+07)
(8.04556e+07 4.86701e+06 -7.19535e-06 7.28892e+06 2.06315e-05 2.63234e+07)
(3.58346e+07 -4.35458e+06 2.29551e-05 6.40976e+06 -2.67231e-05 1.26733e+07)
(3.92435e+07 -2.30687e+06 -1.40112e-07 7.94867e+06 1.30115e-06 1.41576e+07)
(5.6872e+07 2.07756e+06 -0.000157136 123325 -1.31297e-05 1.70986e+07)
(8.70914e+07 -2.43956e+07 -0.000415894 7.59276e+06 -0.000107892 2.84052e+07)
(3.7694e+07 -4.78147e+06 3.11983e-05 5.88199e+06 3.84564e-05 1.30728e+07)