/*--------------------------------*- C++ -*----------------------------------*\
| =========                 |                                                 |
| \\      /  F ield         | OpenFOAM: The Open Source CFD Toolbox           |
|  \\    /   O peration     | Version:  v2012                                 |
|   \\  /    A nd           | Website:  www.openfoam.com                      |
|    \\/     M anipulation  |                                                 |
\*---------------------------------------------------------------------------*/
FoamFile
{
    version     2.0;
    format      ascii;
    class       volSymmTensorField;
    location    "3";
    object      epsilon;
}
// * * * * * * * * * * * * * * * * * * * * * * * * * * * * * * * * * * * * * //

dimensions      [0 0 0 0 0 0 0];


internalField   nonuniform List<symmTensor> 
470
(
(0.000226218 -0.000113389 2.63461e-16 -8.07808e-05 1.34546e-16 0)
(0.00028026 -2.71868e-05 -2.18141e-16 -7.21802e-05 -1.18432e-17 0)
(0.000580209 -8.20507e-05 -4.39752e-16 -0.0002425 1.17183e-15 0)
(0.000461541 -1.65078e-05 -3.98553e-16 -0.00011049 6.39002e-18 0)
(0.000452841 -0.00021342 -1.5851e-16 -0.000208406 3.36482e-16 0)
(0.00054003 -1.74241e-05 9.76649e-16 -0.000233233 6.9866e-16 0)
(0.000464862 -0.000168875 1.21582e-15 -0.000171664 2.8398e-16 0)
(0.000385083 -0.00024457 -1.04062e-15 -0.000216596 -3.19162e-18 0)
(0.000768248 -9.29588e-05 5.76796e-17 -0.00035985 2.35868e-16 0)
(0.000568895 -0.000131548 3.87711e-16 -0.00021853 3.37648e-16 0)
(0.000755855 -8.34575e-05 1.03606e-15 -0.000344949 -4.3097e-17 0)
(0.00086129 9.69725e-05 -2.92052e-15 -0.000404115 2.50765e-15 0)
(0.000850522 4.25039e-05 3.40624e-15 -0.00040272 3.90313e-17 0)
(0.000449252 -3.38076e-05 -8.318e-16 -0.00011294 5.73204e-17 0)
(0.000874555 -2.73526e-05 -4.50161e-16 -0.000390439 -4.97107e-17 0)
(0.000673813 -0.000119047 -1.62457e-15 -0.000294784 -6.28322e-16 0)
(0.000546624 -0.000143412 6.55725e-16 -0.000223481 -1.63124e-15 0)
(0.000407979 -4.3216e-05 -2.1684e-17 -0.000106718 4.08483e-16 0)
(0.000387036 -1.82001e-05 4.11129e-16 -9.15121e-05 -1.30362e-16 0)
(0.0003011 -0.000104568 -1.63931e-16 -7.98245e-05 1.98131e-16 0)
(0.000696949 -7.30692e-05 -3.13551e-16 -0.00029409 3.84892e-17 0)
(0.000492036 -5.26299e-05 1.08854e-15 -0.000153659 1.52141e-15 0)
(0.000598356 -5.41882e-05 2.35922e-16 -0.000250207 1.08583e-15 0)
(0.000436688 -5.33288e-05 8.42208e-16 -0.000117597 4.14558e-16 0)
(0.000847741 -6.93251e-05 5.14476e-15 -0.000476137 4.91415e-16 0)
(0.000443768 -0.00014307 -2.04047e-16 -0.000148297 2.38796e-16 0)
(0.000773321 -9.40811e-05 3.92655e-15 -0.000413137 -4.12376e-16 0)
(0.000624124 -3.33632e-05 3.98986e-17 -0.00027127 -1.78351e-16 0)
(0.00053499 -4.27957e-05 -1.10112e-15 -0.00021947 -1.21482e-15 0)
(0.000431745 -2.3296e-05 -4.92228e-16 -0.000111244 -5.54976e-18 0)
(0.000292785 -0.000101406 -2.58691e-16 -7.97553e-05 6.77796e-17 0)
(0.000933746 8.29422e-06 1.63595e-15 -0.000403212 -1.4389e-15 0)
(0.000571379 -0.000116336 5.37331e-16 -0.000233927 2.46033e-16 0)
(0.000993315 -0.000153901 -5.811e-15 -0.000415786 6.42498e-16 0)
(0.000564282 -2.60058e-05 1.26548e-15 -0.000232915 6.08508e-16 0)
(0.000545854 -2.43968e-05 8.96852e-16 -0.000229354 2.95499e-16 0)
(0.000871652 3.00571e-05 1.56028e-15 -0.000376476 1.79739e-15 0)
(0.000307204 -9.72357e-05 -1.81495e-16 -9.19249e-05 1.59107e-17 0)
(0.000358799 -9.26303e-05 4.33681e-17 -9.20068e-05 -2.67971e-16 0)
(0.000306832 -0.000136182 1.4962e-17 -0.000100747 8.0851e-17 0)
(0.000699729 -0.000164363 8.40474e-16 -0.000380188 -1.11318e-15 0)
(0.000361379 -2.269e-05 2.22045e-16 -8.7353e-05 -2.53331e-17 0)
(0.00085718 0.000145864 -2.69614e-15 -0.00037123 1.97769e-15 0)
(0.000587011 -0.000204619 3.39789e-16 -0.000325565 3.56946e-16 0)
(0.000670206 -2.89833e-05 5.44053e-16 -0.000285444 -1.77722e-15 0)
(0.000795517 0.000147805 1.06669e-15 -0.000362561 6.82288e-16 0)
(0.000366348 -0.000152133 6.19079e-16 -0.000124752 3.67084e-16 0)
(0.000755958 -0.000123767 1.85724e-15 -0.000425217 -1.55204e-16 0)
(0.000689942 -0.000152186 2.44162e-16 -0.000366184 -1.03823e-15 0)
(0.000794642 -7.60063e-05 8.92949e-16 -0.000403146 2.76038e-16 0)
(0.000884535 3.73176e-05 -9.17343e-16 -0.000387488 -3.90096e-16 0)
(0.000969668 -0.000133637 -4.78263e-15 -0.000431451 1.09504e-15 0)
(0.000425982 -6.34342e-05 -1.41814e-16 -0.000112368 -2.5554e-16 0)
(0.000373277 -4.04591e-05 1.22732e-16 -9.72539e-05 1.48527e-16 0)
(0.000480358 -4.97377e-05 8.45244e-16 -0.00013067 -6.51199e-17 0)
(0.000486889 -5.66165e-05 1.4099e-15 -0.000150665 7.79948e-17 0)
(0.000614454 6.91082e-05 -7.86399e-16 -0.000254703 1.68355e-15 0)
(0.000438324 9.54518e-06 8.97882e-16 -0.000197699 8.67362e-16 0)
(0.000594762 -0.000200251 1.6675e-16 -0.000282612 -1.13234e-15 0)
(0.000637697 -5.1024e-05 -3.91614e-16 -0.000263523 1.61259e-15 0)
(0.000464176 -0.000135689 2.19941e-15 -0.000157997 1.05914e-15 0)
(0.00082006 -1.05047e-05 7.92855e-15 -0.000412584 2.35196e-15 0)
(0.000845281 5.0894e-06 2.91824e-15 -0.000401789 -8.10766e-16 0)
(0.000903208 0.000123761 -4.48545e-15 -0.000422998 5.18899e-16 0)
(0.00042641 -0.000261726 2.58712e-15 -0.000186652 1.36284e-16 0)
(0.000897708 8.86418e-05 1.191e-15 -0.000294311 -1.41163e-16 0)
(0.00034403 -0.000165595 5.68556e-16 -0.000115659 9.82863e-17 0)
(0.00050142 -5.55807e-05 -3.24697e-15 -0.00017226 1.08046e-15 0)
(0.000355499 -0.000273964 4.69893e-16 -0.000291361 7.0812e-17 0)
(0.000638313 -0.000139734 -1.03628e-15 -0.000266962 -1.21891e-16 0)
(0.000208779 -5.05533e-05 -2.90566e-17 -6.9105e-05 5.74458e-18 0)
(0.000545488 -0.00014683 -1.12237e-15 -0.000207639 -4.19098e-16 0)
(0.00100497 5.90251e-05 -2.72655e-15 -0.000469454 3.8487e-15 0)
(0.000509928 -0.000181568 -2.97071e-16 -0.000203894 -2.71484e-16 0)
(0.000909369 0.000119324 -1.77007e-15 -0.000411094 1.83642e-15 0)
(0.000480484 -1.92158e-05 1.83664e-15 -0.000131844 -6.37104e-16 0)
(0.000532307 -0.00012023 -1.70306e-15 -0.000199888 -1.29855e-15 0)
(0.000519856 -0.000132292 -3.80772e-16 -0.000189943 -1.37723e-15 0)
(0.000551978 -0.000185872 -2.84928e-16 -0.000239995 -2.21719e-17 0)
(0.000885503 6.981e-05 -3.53531e-16 -0.000279304 -1.53046e-15 0)
(0.000641708 -0.000181222 2.93602e-16 -0.000316382 1.19146e-15 0)
(0.00101582 0.000144981 -1.4215e-15 -0.000364603 -5.6205e-16 0)
(0.000603421 -8.31811e-05 1.21301e-15 -0.000244986 2.07571e-15 0)
(0.000329848 -0.000204702 6.97142e-16 -0.000301429 -7.90248e-17 0)
(0.000782088 -6.63732e-05 1.35157e-15 -0.000389535 1.13212e-15 0)
(0.000491098 -2.33752e-05 6.81746e-16 -0.000154571 8.07324e-16 0)
(0.000868078 0.000136198 -3.37729e-16 -0.000426959 2.2933e-15 0)
(0.000630916 -0.00037059 2.8135e-16 -0.000159894 9.65699e-16 0)
(0.000844067 0.000178376 -1.74448e-15 -0.000353109 -4.0289e-16 0)
(0.000900828 5.30182e-05 -1.83512e-15 -0.000461169 -1.00744e-15 0)
(0.000930221 0.000155636 -8.28547e-16 -0.00042155 2.36573e-16 0)
(0.000861077 5.22099e-05 3.62731e-15 -0.00039542 9.16259e-16 0)
(0.000508045 -0.000187684 9.41304e-16 -0.000203485 -7.87741e-16 0)
(0.000512205 -0.000139637 -3.32633e-16 -0.000192646 -1.71792e-16 0)
(0.000850133 -5.60064e-06 1.86038e-15 -0.000378712 1.00191e-15 0)
(0.00086933 1.56667e-05 -3.71079e-15 -0.000371703 1.4035e-15 0)
(0.000406905 -0.000198684 1.86266e-16 -0.000165222 6.9889e-16 0)
(0.000494524 -0.000154006 -1.6198e-16 -0.000179492 -2.31748e-18 0)
(0.000451388 -0.000219008 -8.80806e-16 -0.00022093 -4.14707e-17 0)
(0.000563306 -4.69315e-05 -1.04214e-15 -0.000235579 9.04929e-16 0)
(0.000477273 -7.26984e-05 1.08811e-15 -0.000142381 -2.42075e-16 0)
(0.000720144 -0.000120332 -2.07777e-15 -0.000360199 2.84386e-16 0)
(0.000997105 7.18875e-05 -2.3138e-15 -0.000443509 3.33587e-15 0)
(0.000466449 -4.48525e-05 9.85323e-16 -0.000122295 -6.59059e-17 0)
(0.000470351 -3.04513e-05 1.03173e-15 -0.000106003 -1.0409e-16 0)
(0.00051881 -3.22174e-05 7.34655e-16 -0.000213084 -1.12681e-15 0)
(0.000521119 -4.19405e-05 -1.03953e-15 -0.00019111 -1.01002e-15 0)
(0.000430121 -0.000189178 2.22261e-16 -0.000170837 6.05513e-16 0)
(0.000199345 -2.53234e-05 -1.11543e-15 -0.000367946 -2.0518e-15 0)
(0.0010838 -1.94595e-05 1.59519e-15 -0.000393396 -1.13885e-15 0)
(0.000829708 0.000151108 1.56749e-15 -0.000367806 6.74916e-16 0)
(0.00111116 -2.5899e-06 -2.34556e-15 -0.000412856 -1.37412e-15 0)
(0.000478397 -1.94688e-05 9.72746e-16 -0.000120078 -6.12317e-16 0)
(0.000536017 -1.41917e-05 1.83577e-15 -0.000224994 2.68692e-15 0)
(0.000450814 -0.000242355 -1.75641e-17 -0.000300607 -4.25143e-16 0)
(0.000577145 -0.000166372 1.17528e-15 -0.000238227 -8.91838e-16 0)
(0.000448115 -1.48841e-05 -9.15067e-17 -0.000104539 -1.7394e-16 0)
(0.000839761 -2.39669e-05 -5.19767e-16 -0.000359776 1.18753e-15 0)
(0.00043894 -0.000177107 -3.9465e-16 -0.000164344 8.47683e-16 0)
(0.000290953 -3.2438e-05 -3.05311e-16 -7.01101e-05 -6.3231e-17 0)
(0.000482462 -0.000203166 -7.56773e-16 -0.000200152 8.00168e-16 0)
(0.000469759 -5.07571e-05 1.36002e-15 -0.000119452 -1.98938e-16 0)
(0.00042571 -3.84379e-05 -7.6111e-16 -0.000111103 -1.8384e-17 0)
(0.000460634 -1.19929e-05 -1.84661e-15 -8.27059e-05 3.44255e-16 0)
(0.000515744 -1.10661e-05 2.96551e-15 -0.000208946 -2.81914e-15 0)
(0.000611096 -0.000177649 1.04083e-16 -0.000272502 -8.90943e-17 0)
(0.000622326 -0.000156967 3.58871e-16 -0.000269099 -8.36516e-16 0)
(0.000481422 -7.44752e-05 6.94757e-16 -0.00015016 -2.73734e-16 0)
(0.000871905 -4.16115e-05 9.91394e-16 -0.000371233 -6.37565e-16 0)
(0.000452044 -6.22565e-05 1.25377e-15 -0.000126172 5.1978e-16 0)
(0.00036905 -0.000193923 -1.17311e-16 -0.000151037 1.00885e-16 0)
(0.000363934 -0.000217251 1.75641e-16 -0.000169651 3.87636e-16 0)
(0.000473908 -0.000166637 1.4962e-17 -0.000173507 2.5224e-16 0)
(0.000471711 -8.22962e-05 5.63785e-18 -0.000141016 -8.65735e-17 0)
(0.000498022 -1.9613e-05 7.60676e-16 -0.000162422 1.54863e-15 0)
(0.000578173 -4.65145e-05 5.00901e-16 -0.000245228 3.79362e-16 0)
(0.000531515 -0.00016665 -2.62377e-16 -0.000210079 -1.05764e-15 0)
(0.000757927 -0.000255118 4.08159e-15 -0.000333609 -1.76183e-16 0)
(0.000852534 9.1312e-05 1.18427e-15 -0.000376557 4.56774e-16 0)
(0.000524711 -1.04736e-05 1.68398e-15 -0.000223291 -5.74031e-16 0)
(0.000534947 -1.84108e-05 1.96891e-15 -0.000220137 1.02487e-15 0)
(0.00090023 -2.58386e-05 4.42669e-15 -0.000492555 -3.63067e-15 0)
(0.000497588 -7.91568e-05 -6.07153e-17 -0.000158579 4.36771e-16 0)
(0.000493254 -0.000124276 -1.12237e-15 -0.000176953 -1.51748e-15 0)
(0.00050628 -0.000114165 -1.51051e-15 -0.000173204 -1.59619e-15 0)
(0.000315308 -9.97957e-05 -6.46184e-17 -9.22446e-05 1.41919e-16 0)
(0.0004652 -1.56009e-05 1.36913e-15 -9.85667e-05 9.87827e-16 0)
(0.000847166 1.11053e-05 2.69554e-15 -0.000458563 1.93639e-15 0)
(0.000473127 -0.000106717 -1.41163e-15 -0.000153309 -6.27943e-16 0)
(0.000855974 8.0964e-05 -6.30084e-15 -0.000445132 1.53978e-15 0)
(0.000392081 -6.26012e-05 3.61256e-16 -9.86944e-05 6.41949e-17 0)
(0.000450615 -2.21709e-05 -5.62484e-16 -9.88724e-05 4.626e-16 0)
(0.000452172 -0.000237225 8.80372e-17 -0.000288591 -8.13612e-16 0)
(0.000474487 -4.20947e-05 2.8276e-16 -0.0001368 3.44959e-16 0)
(0.00105415 -0.000379099 -3.9453e-15 -0.000420179 -6.01841e-16 0)
(0.000659308 -0.000149697 -2.46895e-15 -0.000290537 6.01732e-18 0)
(0.000227309 0.000123406 -6.59195e-16 -0.000604584 -1.85732e-15 0)
(0.000428072 -0.00014231 2.87097e-16 -0.000144701 5.22396e-16 0)
(0.000461466 -0.000136293 1.42508e-15 -0.0001444 1.56755e-15 0)
(0.000546442 -0.000130236 -3.00107e-16 -0.000217761 1.1138e-15 0)
(0.00123115 -0.000206065 -2.19421e-15 -0.000454394 -1.53957e-16 0)
(0.00081289 -4.20769e-05 -6.96708e-16 -0.000375578 8.40636e-16 0)
(0.000580401 7.17374e-05 -2.06221e-15 -0.00024204 8.76035e-17 0)
(0.000924444 -3.0032e-05 4.14631e-15 -0.000411853 -1.88348e-15 0)
(0.000796496 -1.07139e-05 9.40085e-16 -0.000288763 -5.37114e-16 0)
(0.000615963 -0.000209604 -2.13783e-15 -0.000396413 2.29959e-16 0)
(0.000537085 -0.00027075 -4.90493e-16 -0.000371697 -5.6758e-16 0)
(0.00085346 -7.63903e-06 1.28565e-15 -0.000371335 -8.69964e-16 0)
(0.000543446 -0.000200784 8.95551e-16 -0.000238837 -5.78178e-16 0)
(0.000637163 -0.000210306 -9.84456e-17 -0.000385975 -1.63351e-15 0)
(0.000624565 -0.000201635 -1.18005e-15 -0.000357392 -1.02351e-15 0)
(0.000512493 -9.34538e-05 4.93529e-16 -0.000185819 -2.07354e-16 0)
(0.000522636 -8.48932e-05 -3.9465e-16 -0.000194958 -3.43204e-16 0)
(0.000527367 -0.00011267 -2.17252e-15 -0.000200179 -1.23033e-15 0)
(0.000512876 -0.000106387 -1.1202e-15 -0.000185486 -1.37198e-15 0)
(0.000472121 -0.000129916 2.9963e-15 -0.000161883 6.24785e-16 0)
(0.000410667 -3.81396e-05 -1.80845e-16 -9.72515e-05 1.79073e-16 0)
(0.00015907 -6.67237e-05 3.98986e-17 -0.000158453 -1.51172e-16 0)
(0.000799101 -7.41022e-05 3.53949e-15 -0.000457544 -2.28165e-15 0)
(0.000516991 -0.00024243 -5.53594e-16 -0.000309814 -9.60739e-16 0)
(0.000586481 -0.000209712 2.38524e-18 -0.000300472 3.17942e-16 0)
(0.000797114 0.000117113 -3.05691e-15 -0.000383894 1.92771e-16 0)
(0.000532269 -0.000166542 -1.84228e-15 -0.000210068 -4.37286e-16 0)
(0.000617761 -0.00015372 -2.43295e-16 -0.000269847 1.65693e-16 0)
(0.000650451 -0.00011429 -7.13622e-16 -0.000267654 -5.34241e-17 0)
(0.000798143 -5.37838e-05 3.56117e-15 -0.000347034 -3.88361e-16 0)
(0.000545689 -7.17277e-05 -1.53957e-15 -0.000209028 -1.33579e-15 0)
(0.000104071 -5.18498e-05 4.11997e-18 -0.000108825 -5.53943e-17 0)
(0.00072036 7.75801e-05 -3.12326e-15 -0.000307712 -5.9848e-17 0)
(0.000450315 -6.74355e-05 3.10082e-16 -0.000124893 1.15122e-16 0)
(0.000536355 -4.76199e-05 -9.90961e-16 -0.000206371 -1.10608e-15 0)
(0.000425532 -0.000153329 -6.58978e-16 -0.000139021 7.53317e-17 0)
(0.00060002 -0.000149175 -1.13993e-15 -0.000239858 2.03423e-16 0)
(0.000564289 -0.000156766 -1.42377e-15 -0.000236677 -4.82849e-16 0)
(0.00022123 -0.000138115 -2.02529e-16 -0.000100788 -3.54161e-17 0)
(0.000396523 -6.39403e-05 -7.63278e-17 -0.000111634 -3.40785e-16 0)
(0.000600795 -5.09888e-05 2.60209e-18 -0.000263216 1.77853e-15 0)
(0.000556453 -0.000101022 -6.47486e-16 -0.000220561 -5.7086e-16 0)
(0.000567079 -7.91998e-05 -1.3507e-15 -0.000231199 -1.83474e-16 0)
(0.00202887 -0.000231605 1.51013e-15 -0.0006641 5.07103e-15 0)
(0.000260921 -4.16618e-05 4.33681e-18 -7.14969e-05 6.36596e-17 0)
(0.000180328 -4.1376e-05 3.66027e-16 -7.13986e-05 -3.87958e-17 0)
(0.00142531 3.09277e-05 5.30549e-15 -0.000513502 -1.83035e-15 0)
(0.00062329 -0.000242846 -1.63715e-16 -0.000423111 1.46958e-15 0)
(0.000629824 -0.000123028 -1.28803e-16 -0.000268972 1.14465e-16 0)
(0.00065548 -7.76664e-05 -2.93602e-16 -0.000285788 -2.18413e-16 0)
(0.000359074 -6.62927e-05 -1.38344e-16 -8.51958e-05 2.45074e-16 0)
(0.000368414 -6.56728e-05 2.1207e-16 -9.78618e-05 -3.26386e-16 0)
(0.000721199 -0.000184886 3.58264e-15 -0.000443243 7.58996e-16 0)
(0.000250708 8.9768e-05 -4.90493e-16 -0.000769164 -2.10599e-15 0)
(0.000482716 -6.81617e-05 8.94684e-16 -0.000138602 -1.19063e-15 0)
(0.000581679 -0.000102795 1.00918e-15 -0.000250264 1.08973e-15 0)
(0.000146308 -6.07487e-05 1.12692e-15 -0.000408006 5.45625e-17 0)
(0.000419699 -7.94995e-05 -6.34041e-16 -0.000118974 2.89651e-16 0)
(0.000798005 -8.26864e-05 3.74809e-15 -0.000365787 -1.01752e-15 0)
(0.000740957 -8.6244e-05 1.146e-15 -0.000323913 4.51733e-16 0)
(0.000486055 -0.000101737 -1.46237e-15 -0.000154326 2.84129e-16 0)
(0.000382739 -0.000133623 1.97758e-16 -0.000125089 -1.87445e-16 0)
(0.000449002 -9.61942e-05 -1.44849e-15 -0.000135044 5.16358e-16 0)
(0.000713087 -0.000157762 8.05129e-16 -0.000419086 -1.13353e-15 0)
(0.000215775 -9.57948e-05 2.48065e-16 -0.000395721 -2.93927e-16 0)
(0.000296657 -0.000156925 2.48065e-16 -0.000117013 1.07038e-16 0)
(0.000543523 -6.55025e-05 -1.72085e-15 -0.000226743 -3.21086e-16 0)
(0.000439382 -7.26155e-05 -7.83661e-16 -0.000120468 5.85984e-16 0)
(0.000728389 -0.000164744 2.42623e-15 -0.000447376 -1.71678e-15 0)
(0.000542439 -3.89852e-05 -2.02529e-16 -0.000233937 -3.29597e-17 0)
(0.000738568 -0.000126938 -8.02743e-16 -0.00037373 1.05563e-15 0)
(0.000127845 -0.000141264 2.34621e-16 -0.000170743 -3.2459e-16 0)
(0.000902443 0.000129285 -8.68825e-16 -0.000331483 1.43657e-15 0)
(0.000818989 6.12782e-05 -7.72928e-16 -0.000357104 -7.77373e-16 0)
(0.00072883 -0.000131634 -1.45478e-15 -0.000372393 6.56701e-16 0)
(0.000249274 -0.000206498 3.51498e-16 -0.000260814 -1.89918e-16 0)
(0.00045879 -1.33494e-05 1.17397e-15 -8.65394e-05 8.84004e-16 0)
(0.00052007 -6.17106e-06 4.0766e-16 -0.000214616 -4.13081e-17 0)
(0.000656859 -8.23467e-05 8.67362e-18 -0.000273853 -3.70689e-16 0)
(0.000498704 -0.000154721 1.95156e-16 -0.000179372 1.24033e-16 0)
(0.000427926 -0.000203617 1.78026e-15 -0.000218741 -5.56521e-16 0)
(0.00050861 -3.11614e-05 -7.5764e-16 -0.000199613 -3.64509e-16 0)
(0.000508454 -1.60743e-05 2.07213e-15 -0.000189955 -1.73608e-15 0)
(0.000472004 -1.78227e-05 -1.45587e-15 -0.000113258 1.28634e-16 0)
(0.00047433 -2.9573e-05 -2.94036e-16 -0.000106819 1.12059e-16 0)
(0.000462912 -3.04546e-05 8.61724e-16 -0.000102296 8.7508e-16 0)
(0.000522866 -2.58863e-05 6.41848e-16 -0.000204978 -3.23905e-16 0)
(0.0010959 5.85454e-05 -1.98788e-15 -0.000366076 -3.10776e-15 0)
(0.00097031 -3.25458e-05 -2.66001e-15 -0.000279974 -2.26186e-15 0)
(0.000745003 8.9204e-05 -4.0766e-16 -0.000230801 1.04712e-15 0)
(0.000748062 6.19202e-05 9.8432e-16 -0.000255438 -1.43332e-16 0)
(0.000506055 -4.97016e-05 -4.72409e-15 -0.000182565 6.04443e-16 0)
(0.000342436 -2.09858e-05 -3.52149e-16 -8.40092e-05 2.90109e-16 0)
(0.000540816 -9.68928e-05 -8.13152e-16 -0.000209522 -5.5896e-16 0)
(0.000530839 -8.49525e-05 -8.13152e-16 -0.000206375 -8.86335e-16 0)
(0.000615239 -8.39318e-05 1.31796e-15 -0.000261665 1.76356e-15 0)
(0.000452206 -3.57578e-06 -9.25909e-16 -6.15271e-05 4.86661e-16 0)
(0.000523889 -3.13973e-06 7.65013e-16 -0.00022403 -6.74645e-17 0)
(0.000701955 -0.000124565 -1.19761e-15 -0.00030252 8.12935e-16 0)
(0.000307705 -7.26252e-05 -3.69496e-16 -8.59678e-05 1.07128e-16 0)
(0.000376253 -0.000104836 3.7882e-16 -0.000107935 -3.94202e-16 0)
(0.000460792 -1.4699e-05 1.25334e-16 -9.28093e-05 6.28065e-16 0)
(0.000518128 -1.19489e-05 7.96672e-16 -0.000212739 -9.00972e-16 0)
(0.000254238 -3.73357e-05 -3.7817e-16 -7.41298e-05 4.75558e-17 0)
(0.000556827 -0.000173873 -1.2889e-15 -0.00023749 -7.57234e-16 0)
(0.000899138 0.000127502 -4.03757e-15 -0.000345532 -7.23597e-16 0)
(0.000155533 -4.88383e-05 3.13334e-16 -7.33634e-05 -3.50367e-17 0)
(0.000207508 -6.66385e-05 8.12284e-16 -0.000275981 -1.39916e-16 0)
(0.000337003 -0.00011616 2.16407e-16 -0.000105541 -1.16606e-16 0)
(0.00045721 -1.30118e-05 1.54998e-15 -8.65569e-05 1.02881e-15 0)
(0.000526441 -1.27972e-05 3.59088e-16 -0.000220184 -6.8508e-16 0)
(0.000420068 -1.51442e-05 2.38524e-16 -0.000107134 1.09498e-16 0)
(0.000392196 -0.000111528 3.75134e-16 -0.000106394 -2.11541e-16 0)
(0.00068535 -3.28172e-05 -4.79217e-16 -0.000293541 -8.53104e-16 0)
(0.000587264 -1.90934e-05 9.28077e-16 -0.000251824 -1.20699e-15 0)
(0.000336568 -0.00023689 1.10784e-15 -0.000281904 -1.54553e-16 0)
(0.000935207 1.7714e-05 -2.4568e-15 -0.000407168 3.05962e-16 0)
(0.000500449 -0.000200934 -1.67357e-15 -0.000358595 6.16315e-16 0)
(0.000622912 3.05949e-06 -1.35051e-16 -0.000241271 1.76226e-15 0)
(0.00077514 -0.000114233 3.57472e-15 -0.000427634 -8.20416e-16 0)
(0.0008275 -0.000141334 -1.6894e-15 -0.000431838 8.45678e-18 0)
(0.000601167 -0.000120186 7.92118e-16 -0.000245805 -8.07541e-16 0)
(0.000805203 -3.40326e-05 -7.96889e-16 -0.000379726 2.3641e-16 0)
(0.00049785 -7.81499e-05 1.12323e-16 -0.0001757 5.48552e-16 0)
(0.000529415 -0.000155165 -2.72699e-15 -0.000211919 -6.21736e-16 0)
(0.000672051 -0.000135272 1.01828e-15 -0.000302531 1.06778e-15 0)
(0.00044604 -0.000178356 -6.59629e-16 -0.000164328 6.79659e-16 0)
(0.000666659 -0.000164136 1.92121e-16 -0.000307146 -2.58528e-16 0)
(0.000442878 -3.53996e-05 -1.43548e-16 -0.000112953 2.54869e-16 0)
(0.000468385 -2.44136e-05 -1.64799e-16 -0.000108525 2.29526e-16 0)
(0.000711468 -6.82359e-05 2.92518e-16 -0.000293532 4.44577e-16 0)
(0.000700331 0.000122181 -2.68665e-16 -0.000318372 -7.37257e-18 0)
(0.000460157 -9.14939e-05 -1.33357e-15 -0.000135969 -4.70327e-16 0)
(0.000298971 -0.000184363 2.76905e-16 -0.000164686 -4.75131e-16 0)
(0.000447512 -0.000185246 3.25152e-15 -0.000347873 -6.39788e-16 0)
(0.000500461 -0.000201209 -1.05601e-16 -0.000387419 1.55149e-16 0)
(0.000222455 -0.000181231 -1.37911e-16 -0.000131212 -1.18341e-16 0)
(0.000782829 -4.57148e-05 -2.23606e-15 -0.000341695 7.94612e-16 0)
(0.000740475 -0.00011601 2.1207e-15 -0.000333727 9.94322e-16 0)
(0.000456777 -0.000115853 3.57353e-16 -0.000144922 1.61912e-16 0)
(0.000467019 -8.39688e-05 -5.00034e-16 -0.000139104 -1.85941e-16 0)
(0.000553998 -1.76501e-05 1.09027e-15 -0.000239662 5.04262e-16 0)
(0.000707668 -0.000128903 1.37217e-15 -0.000332787 3.99366e-16 0)
(0.000441827 -1.57962e-05 4.60135e-16 -0.000106755 -1.82115e-16 0)
(0.000505471 -7.01513e-05 -2.43815e-15 -0.000167698 6.87059e-16 0)
(0.000324013 -0.000128082 1.44568e-15 -0.00022547 -7.39426e-17 0)
(0.000508247 -3.79848e-05 -1.76551e-15 -0.000171075 7.29153e-16 0)
(0.000501618 -2.06284e-05 3.62991e-16 -0.000183777 1.67005e-15 0)
(0.000909648 0.000161525 -2.23844e-15 -0.000368524 -4.09395e-16 0)
(0.000516764 -0.000244469 -3.46945e-16 -0.000289939 4.45946e-16 0)
(0.000515722 -7.15386e-05 -1.40079e-16 -0.000188366 -5.03883e-17 0)
(0.000504447 -8.94536e-05 -6.07153e-17 -0.000168995 -2.65521e-16 0)
(0.000313965 -0.00024924 6.26669e-17 -0.000225023 -6.61811e-16 0)
(0.000387794 -0.000247001 -7.53304e-16 -0.000229352 -7.74934e-16 0)
(0.000899981 6.06099e-05 -2.18282e-15 -0.000445833 3.8641e-16 0)
(0.000827558 -6.86508e-05 2.61249e-15 -0.000495912 -4.44875e-15 0)
(0.00175158 -0.000505788 -3.64005e-15 -0.000528702 3.71025e-15 0)
(0.000490594 -0.000125817 1.90212e-15 -0.000162712 -3.34192e-16 0)
(0.000500628 -0.000256261 -3.68195e-16 -0.000388194 2.79019e-16 0)
(0.000858844 4.03859e-05 4.44826e-15 -0.000412774 9.06935e-16 0)
(0.000500626 -0.000256348 -1.96609e-15 -0.000359177 7.5558e-16 0)
(0.000217107 -0.000174525 1.76942e-16 -0.000170778 -3.00731e-16 0)
(0.000788414 -5.38722e-05 2.06974e-15 -0.000341952 -4.85614e-16 0)
(0.000431986 -0.000128881 9.93129e-17 -0.000124799 1.63748e-16 0)
(0.000774185 -3.69387e-05 -4.40229e-15 -0.000331402 -6.54424e-16 0)
(0.000405915 -0.000116431 6.18863e-16 -0.000123193 1.52534e-16 0)
(0.000463431 -0.000119222 1.83252e-15 -0.000143247 1.08813e-15 0)
(0.000455199 -6.48407e-05 4.51895e-16 -0.000124614 3.45156e-16 0)
(0.000749219 -0.000100102 1.39277e-15 -0.000333132 1.57773e-15 0)
(0.000400939 -1.46766e-05 -4.44957e-16 -0.000104123 -3.88449e-18 0)
(0.000610814 -2.19655e-05 8.19657e-17 -0.000260742 -3.5616e-17 0)
(0.000514105 -0.000253491 -2.19876e-16 -0.000310568 -8.17339e-16 0)
(0.00041088 -0.000218359 -1.05211e-15 -0.000221883 -5.11052e-16 0)
(0.00028712 -0.000232491 7.46798e-16 -0.000300528 -2.21584e-16 0)
(0.000397859 -0.000153554 -2.37657e-16 -0.000138995 5.92625e-16 0)
(0.000158722 -0.000126237 4.9136e-16 -0.0002532 -2.83803e-16 0)
(0.000574946 -0.000209937 -8.95117e-16 -0.000292336 6.45209e-16 0)
(0.000620818 -0.000173309 -1.34354e-15 -0.000283763 -6.80418e-16 0)
(0.000257405 -0.000188633 4.11563e-16 -0.000221903 -1.89735e-17 0)
(0.000535113 -0.000212025 -2.25037e-15 -0.000243005 6.11829e-16 0)
(0.000333558 -3.01377e-05 -3.13551e-16 -7.3024e-05 2.68211e-16 0)
(0.000446874 -9.96466e-05 -1.25984e-15 -0.000132028 6.59954e-16 0)
(0.000810297 6.10788e-05 -3.35235e-15 -0.000355142 -1.03942e-15 0)
(0.000525319 -5.82368e-05 -1.65102e-15 -0.000214208 -1.50596e-15 0)
(0.000406434 -9.28177e-05 1.7911e-16 -0.000115647 -7.49096e-16 0)
(0.00111984 3.60006e-05 -2.27723e-15 -0.000373053 -3.28839e-15 0)
(0.000838514 -3.76016e-05 -5.26836e-15 -0.000356618 2.12075e-15 0)
(0.000174826 -0.000114468 1.11456e-16 -0.00023962 -1.8777e-16 0)
(0.00048642 -0.000107512 -8.04478e-16 -0.00016912 4.27799e-16 0)
(0.000750175 -3.37833e-05 5.32343e-16 -0.000307833 -1.27274e-15 0)
(0.000825343 7.63998e-05 -1.04409e-15 -0.000339606 -7.60459e-16 0)
(0.000469835 -0.000115056 6.86083e-16 -0.000150611 -5.85605e-17 0)
(0.000459808 -3.14203e-06 3.66894e-16 -7.09621e-05 3.72259e-16 0)
(0.000519472 -1.86266e-06 -1.77722e-15 -0.000224049 -3.99529e-16 0)
(0.000326824 -2.31787e-05 -5.87204e-16 -7.95492e-05 3.27981e-16 0)
(0.00043925 -0.000220541 -1.43375e-15 -0.000197405 1.10417e-15 0)
(0.000689111 -0.00010769 -2.44856e-15 -0.000289754 -2.55709e-16 0)
(0.000726184 -2.8945e-05 -1.88651e-16 -0.000311842 -1.14427e-15 0)
(0.000704974 7.86195e-05 -2.88972e-15 -0.000303015 5.41017e-16 0)
(7.17205e-05 -3.05355e-05 5.07407e-17 -0.000170461 -5.22179e-17 0)
(0.000672836 0.000144798 -2.53934e-15 -0.00025658 -3.20924e-17 0)
(0.000513675 -0.000172032 -1.88001e-15 -0.000198281 -3.08754e-16 0)
(0.000458399 -1.1294e-06 8.74301e-16 -8.21405e-05 4.2879e-16 0)
(0.000154743 -3.01115e-05 9.58435e-17 -0.000103974 -1.00394e-16 0)
(0.000457444 -1.43218e-05 1.33791e-15 -9.09576e-05 7.92049e-16 0)
(0.000466748 -1.75992e-05 -9.08561e-16 -0.000101429 -5.25628e-16 0)
(0.000509206 -1.70669e-05 2.20787e-15 -0.000188655 -2.58013e-16 0)
(0.00059288 -0.000145189 4.08527e-16 -0.000234224 -1.46416e-15 0)
(0.00117338 -0.000562934 -6.05928e-15 -0.00027818 1.25876e-16 0)
(0.000523557 -1.48208e-06 6.14959e-16 -0.000225523 3.05718e-16 0)
(0.000407327 -9.56317e-05 6.245e-16 -0.00011263 -4.4848e-16 0)
(0.000740715 7.80775e-05 -2.70606e-15 -0.000339639 8.49581e-16 0)
(0.000114226 -0.000102167 1.17094e-17 -0.000111118 -2.27449e-16 0)
(0.000523981 -8.06175e-06 -3.27429e-16 -0.000216609 -1.02397e-15 0)
(0.000395565 -0.00014904 3.5345e-16 -0.000124972 3.33785e-16 0)
(0.000471759 -0.000201493 -1.86483e-15 -0.000199851 1.16622e-15 0)
(0.000623652 5.78156e-05 -2.9876e-15 -0.000253228 1.31449e-15 0)
(0.000454583 -4.70887e-05 1.18829e-15 -0.000118635 -6.50521e-17 0)
(0.000204561 -5.06173e-05 7.55255e-16 -0.000303311 -4.0766e-17 0)
(0.000251786 4.68245e-05 5.16514e-16 -0.000412539 1.0365e-16 0)
(0.000124002 -5.64348e-05 1.58294e-16 -0.000240648 1.68051e-17 0)
(0.000514869 -5.11867e-05 -1.47105e-15 -0.000202024 -3.31359e-16 0)
(0.00137684 -0.000110097 7.09434e-15 -0.000445171 -5.17468e-15 0)
(0.000250445 -7.24651e-05 8.82974e-16 -0.000361273 -1.79598e-16 0)
(0.000568338 -0.000201187 -1.13147e-15 -0.000273842 1.31216e-16 0)
(0.000971773 4.73512e-05 -1.89291e-15 -0.000388869 2.0126e-15 0)
(0.000438673 3.91995e-05 4.82551e-16 -0.000174447 1.48818e-15 0)
(0.000474492 -4.82669e-05 1.47061e-15 -0.000121967 -7.53981e-16 0)
(0.000484742 -9.27473e-05 -8.40907e-16 -0.00015878 5.45191e-16 0)
(0.00134557 -0.000186825 2.84088e-15 -0.000632655 7.99491e-16 0)
(0.000765872 0.000169759 -1.5645e-16 -0.000310222 -8.27029e-16 0)
(0.000765052 0.000117653 -2.81123e-15 -0.000318887 -1.01048e-16 0)
(0.000693707 -3.88018e-05 1.02002e-15 -0.000305787 1.37152e-17 0)
(0.000428489 -0.000104589 -3.9118e-16 -0.000128965 4.50012e-16 0)
(0.000987553 -2.49867e-05 -1.42573e-15 -0.000514196 -1.95015e-15 0)
(0.000422994 -1.35911e-05 -1.91253e-16 -0.000106826 -1.19852e-16 0)
(0.000578703 -1.93186e-05 1.12584e-15 -0.000245716 -2.72189e-16 0)
(0.00102491 0.000135318 -4.18139e-15 -0.000414135 7.05816e-16 0)
(0.00052693 -6.37408e-05 -6.11924e-16 -0.000195851 -7.6794e-16 0)
(0.000425437 -8.35313e-05 -3.0401e-16 -0.000116164 -1.76061e-16 0)
(0.000456886 -9.66343e-06 7.12538e-16 -9.78685e-05 5.39416e-16 0)
(0.00052293 -3.78582e-06 2.82586e-15 -0.000220221 1.72339e-15 0)
(0.000854038 -1.07539e-05 1.1499e-15 -0.000376335 1.02094e-15 0)
(0.000618095 -8.80774e-05 9.77517e-16 -0.00026719 6.67814e-16 0)
(0.0008116 -6.155e-05 4.0315e-15 -0.000365994 8.41341e-17 0)
(0.00134264 -0.000100488 3.41914e-15 -0.000401284 -6.77691e-15 0)
(0.000563827 -0.000107288 -7.54171e-16 -0.000227047 9.34609e-16 0)
(0.000205634 -0.000186296 3.18755e-16 -0.000161052 -5.70223e-16 0)
(0.000915721 5.02856e-05 -1.2116e-15 -0.000479372 -2.05521e-15 0)
(0.000741631 0.000102683 -1.27983e-15 -0.000281646 1.6172e-15 0)
(0.000856444 1.83381e-05 1.07499e-15 -0.000456539 -2.21806e-15 0)
(0.000560993 -7.28196e-05 -1.76985e-15 -0.000223686 2.51643e-16 0)
(0.000453325 -6.83872e-06 1.43548e-16 -6.95367e-05 6.97362e-17 0)
(0.000444446 -1.87811e-06 -9.52797e-16 -5.07369e-05 1.41648e-16 0)
(0.000520195 -4.78388e-07 -4.06793e-16 -0.000221682 -6.33282e-16 0)
(0.000522549 -1.92581e-07 -1.13277e-15 -0.000224608 -1.81333e-16 0)
(0.000390145 -1.61718e-05 -9.06393e-17 -9.74301e-05 -1.26039e-16 0)
(0.000630794 -2.73078e-05 1.66533e-16 -0.000265818 -2.76146e-16 0)
(0.000586366 9.07977e-05 -5.48498e-16 -0.000208787 9.01623e-16 0)
(0.000713207 -0.00043738 -3.58036e-15 -0.000262668 7.76939e-16 0)
(0.000474836 -5.9382e-05 7.86263e-16 -0.000144519 -9.75728e-16 0)
(0.000324191 -0.000231096 4.43872e-16 -0.000224753 -3.85685e-16 0)
(0.000801739 0.000133612 -1.56022e-15 -0.000330368 8.09249e-16 0)
(0.000208908 -0.00011298 -4.92228e-17 -0.00010627 -1.55847e-16 0)
(0.00049479 -0.000218108 -2.71463e-15 -0.000240499 4.97107e-17 0)
(0.000240465 -0.000127326 5.35596e-17 -0.000100557 -4.8125e-17 0)
(0.000592583 -0.00012239 1.04907e-15 -0.000246369 -7.03972e-16 0)
(0.000461995 -6.30105e-05 1.57947e-15 -0.000130336 -7.47652e-16 0)
(0.000583765 -0.000110176 4.64039e-17 -0.000232027 1.29852e-15 0)
(0.00107812 1.03581e-05 4.10257e-15 -0.00033871 -6.66307e-15 0)
(0.000787489 0.000160338 -1.61812e-15 -0.000297611 1.42854e-15 0)
(0.000633295 -0.000230975 -1.26938e-15 -0.000422353 1.05168e-17 0)
(0.000830149 -1.56685e-05 5.13391e-15 -0.000428711 2.28387e-15 0)
(0.000629322 5.93002e-05 -1.02677e-15 -0.000267853 5.19333e-16 0)
(0.000821683 -9.00188e-06 5.63395e-15 -0.000398245 -2.6254e-16 0)
(0.000821466 -0.000102414 2.16515e-15 -0.000469797 -2.5546e-15 0)
(0.000661113 -0.000145956 9.38052e-16 -0.00030158 -8.34375e-16 0)
(0.000704027 -0.000151945 1.15511e-15 -0.000336865 6.98226e-17 0)
(8.53501e-05 -8.46701e-05 -1.30104e-17 -0.000238313 -4.84604e-17 0)
(0.000138581 1.83912e-05 8.19657e-17 -0.000360723 7.13371e-17 0)
(0.000465291 -9.03761e-06 -3.79471e-16 -0.000102624 3.83133e-16 0)
(0.000525513 -7.99144e-06 2.36703e-15 -0.000227296 1.91513e-15 0)
(0.000515254 -5.64192e-05 -4.10999e-15 -0.000177659 1.77565e-16 0)