/*--------------------------------*- C++ -*----------------------------------*\
| =========                 |                                                 |
| \\      /  F ield         | OpenFOAM: The Open Source CFD Toolbox           |
|  \\    /   O peration     | Version:  v2012                                 |
|   \\  /    A nd           | Website:  www.openfoam.com                      |
|    \\/     M anipulation  |                                                 |
\*---------------------------------------------------------------------------*/
FoamFile
{
    version     2.0;
    format      ascii;
    class       pointScalarField;
    location    "3";
    object      pEpsilonEq;
}
// * * * * * * * * * * * * * * * * * * * * * * * * * * * * * * * * * * * * * //

dimensions      [0 0 0 0 0 0 0];


internalField   nonuniform List<scalar> 
530
(
0.000532365
0.000320943
0.000441175
0.000432323
0.00148709
0.000532365
0.000320943
0.000441175
0.000432323
0.00148709
0.000290203
0.000179736
0.000142553
0.000158899
0.000191252
0.000213687
0.000239017
0.000262478
0.000288502
0.000310071
0.000328137
0.000339249
0.00034226
0.000334969
0.000332568
0.000335905
0.000351794
0.000364314
0.000387143
0.000407433
0.000420293
0.000434961
0.000438779
0.000442872
0.000448098
0.000464698
0.000485369
0.000516351
0.00054349
0.000587474
0.00062071
0.000669315
0.000699039
0.000747162
0.000791143
0.000756779
0.0007598
0.000713482
0.000657122
0.000573037
0.000472141
0.000406865
0.000544972
0.000651436
0.000785282
0.00104851
0.00149061
0.00119558
0.000843471
0.000464196
0.000308052
0.000390803
0.000504905
0.000290203
0.000179736
0.000142553
0.000158899
0.000191252
0.000213687
0.000239017
0.000262478
0.000288502
0.000310071
0.000328137
0.000339249
0.00034226
0.000334969
0.000332568
0.000335905
0.000351794
0.000364314
0.000387143
0.000407433
0.000420293
0.000434961
0.000438779
0.000442872
0.000448098
0.000464698
0.000485369
0.000516351
0.00054349
0.000587474
0.00062071
0.000669315
0.000699039
0.000747162
0.000791143
0.000756779
0.0007598
0.000713482
0.000657122
0.000573037
0.000472141
0.000406865
0.000544972
0.000651436
0.000785282
0.00104851
0.00149061
0.00119558
0.000843471
0.000464196
0.000308052
0.000390803
0.000504905
0.000572787
0.000428962
0.000772283
0.000538462
0.000383
0.000444232
0.000370568
0.000791995
0.000441284
0.000675786
0.00034591
0.000509711
0.000323685
0.000644368
0.000402014
0.000625826
0.000458715
0.000492462
0.000755828
0.000824252
0.000339235
0.000488122
0.000348165
0.000445161
0.000677591
0.000734358
0.000573544
0.000295149
0.000423874
0.000382546
0.000630583
0.000580206
0.000369826
0.000421403
0.00046784
0.000893118
0.000451092
0.000263505
0.000265743
0.000291703
0.000567662
0.000462426
0.000494071
0.000374637
0.00069953
0.000679929
0.000613576
0.000345809
0.000461572
0.000685236
0.00031244
0.000517073
0.000429373
0.000719831
0.00062665
0.000806552
0.000727275
0.000880591
0.000392681
0.000471377
0.000396187
0.000220621
0.000371751
0.000768407
0.000381177
0.000739564
0.000638736
0.000718588
0.000550761
0.000285703
0.000495905
0.000582793
0.000446165
0.000528047
0.000423341
0.000429388
0.000351556
0.000762123
0.00067174
0.000543342
0.000411833
0.000339537
0.000440373
0.000458368
0.000402664
0.000226904
0.000437474
0.000573433
0.000535133
0.000252112
0.000309103
0.000354915
0.000338379
0.000365694
0.000539006
0.00053856
0.000442424
0.00043762
0.000361271
0.000699779
0.000590532
0.00070077
0.000466249
0.000319769
0.000643003
0.000501374
0.000744962
0.000493854
0.000508149
0.000346113
0.000453011
0.00041261
0.000444634
0.000831049
0.000751609
0.000733498
0.000498306
0.000606469
0.000810279
0.000360023
0.000384423
0.000599314
0.000389397
0.00110877
0.000758805
0.000715404
0.000538362
0.000353625
0.000453923
0.00116308
0.000217373
0.000389043
0.000193117
0.000349373
0.000397789
0.000660235
0.000588069
0.000261003
0.000331017
0.000847178
0.000501827
0.000361461
0.000415438
0.000477565
0.000488331
0.000333639
0.000891022
0.000415062
0.000589423
0.00033933
0.000404624
0.00070711
0.000315449
0.000281867
0.000606959
0.000409507
0.000679016
0.000346026
0.000789359
0.000509146
0.000747267
0.000263998
0.000507209
0.000221725
0.000739166
0.00069712
0.00042839
0.000436745
0.000340137
0.000905873
0.000411327
0.000354913
0.000617095
0.00058695
0.000769839
0.000490604
0.000660681
0.000373676
0.000470009
0.000372012
0.000401177
0.000484498
0.000711578
0.00063708
0.000635859
0.000474772
0.000571387
0.000352567
0.000498147
0.000708855
0.000334302
0.000301747
0.000173309
0.000710803
0.000651367
0.000527221
0.000479648
0.00040661
0.000523836
0.000719986
0.000341343
0.00044435
0.000639981
0.000376155
0.000330766
0.000440905
0.000614143
0.000572787
0.000428962
0.000772283
0.000538462
0.000383
0.000444232
0.000370568
0.000791995
0.000441284
0.000675786
0.00034591
0.000509711
0.000323685
0.000644368
0.000402014
0.000625826
0.000458715
0.000492462
0.000755828
0.000824252
0.000339235
0.000488122
0.000348165
0.000445161
0.000677591
0.000734358
0.000573544
0.000295149
0.000423874
0.000382546
0.000630583
0.000580206
0.000369826
0.000421403
0.00046784
0.000893118
0.000451092
0.000263505
0.000265743
0.000291703
0.000567662
0.000462426
0.000494071
0.000374637
0.00069953
0.000679929
0.000613576
0.000345809
0.000461572
0.000685236
0.00031244
0.000517073
0.000429373
0.000719831
0.00062665
0.000806552
0.000727275
0.000880591
0.000392681
0.000471377
0.000396187
0.000220621
0.000371751
0.000768407
0.000381177
0.000739564
0.000638736
0.000718588
0.000550761
0.000285703
0.000495905
0.000582793
0.000446165
0.000528047
0.000423341
0.000429388
0.000351556
0.000762123
0.00067174
0.000543342
0.000411833
0.000339537
0.000440373
0.000458368
0.000402664
0.000226904
0.000437474
0.000573433
0.000535133
0.000252112
0.000309103
0.000354915
0.000338379
0.000365694
0.000539006
0.00053856
0.000442424
0.00043762
0.000361271
0.000699779
0.000590532
0.00070077
0.000466249
0.000319769
0.000643003
0.000501374
0.000744962
0.000493854
0.000508149
0.000346113
0.000453011
0.00041261
0.000444634
0.000831049
0.000751609
0.000733498
0.000498306
0.000606469
0.000810279
0.000360023
0.000384423
0.000599314
0.000389397
0.00110877
0.000758805
0.000715404
0.000538362
0.000353625
0.000453923
0.00116308
0.000217373
0.000389043
0.000193117
0.000349373
0.000397789
0.000660235
0.000588069
0.000261003
0.000331017
0.000847178
0.000501827
0.000361461
0.000415438
0.000477565
0.000488331
0.000333639
0.000891022
0.000415062
0.000589423
0.00033933
0.000404624
0.00070711
0.000315449
0.000281867
0.000606959
0.000409507
0.000679016
0.000346026
0.000789359
0.000509146
0.000747267
0.000263998
0.000507209
0.000221725
0.000739166
0.00069712
0.00042839
0.000436745
0.000340137
0.000905873
0.000411327
0.000354913
0.000617095
0.00058695
0.000769839
0.000490604
0.000660681
0.000373676
0.000470009
0.000372012
0.000401177
0.000484498
0.000711578
0.00063708
0.000635859
0.000474772
0.000571387
0.000352567
0.000498147
0.000708855
0.000334302
0.000301747
0.000173309
0.000710803
0.000651367
0.000527221
0.000479648
0.00040661
0.000523836
0.000719986
0.000341343
0.00044435
0.000639981
0.000376155
0.000330766
0.000440905
0.000614143
)
;

boundaryField
{
    back
    {
        type            empty;
    }
    front
    {
        type            empty;
    }
    down
    {
        type            calculated;
    }
    right
    {
        type            calculated;
    }
    up
    {
        type            calculated;
    }
    left
    {
        type            calculated;
    }
    hole
    {
        type            calculated;
    }
}


// ************************************************************************* //
