/*--------------------------------*- C++ -*----------------------------------*\
| =========                 |                                                 |
| \\      /  F ield         | OpenFOAM: The Open Source CFD Toolbox           |
|  \\    /   O peration     | Version:  v2012                                 |
|   \\  /    A nd           | Website:  www.openfoam.com                      |
|    \\/     M anipulation  |                                                 |
\*---------------------------------------------------------------------------*/
FoamFile
{
    version     2.0;
    format      ascii;
    class       pointVectorField;
    location    "3";
    object      pointD;
}
// * * * * * * * * * * * * * * * * * * * * * * * * * * * * * * * * * * * * * //

dimensions      [0 1 0 0 0 0 0];


internalField   nonuniform List<vector> 
530
(
(0.00104123 0 0)
(0.00149948 0 0)
(0.00138828 -0.00014369 0)
(0 -0.000720214 0)
(0 -0.000552614 0)
(0.00104123 0 0)
(0.00149948 0 0)
(0.00138828 -0.00014369 0)
(0 -0.000720214 0)
(0 -0.000552614 0)
(0.00105586 0 0)
(0.00106826 0 0)
(0.00107867 0 0)
(0.00109422 0 0)
(0.0011151 0 0)
(0.00114052 0 0)
(0.00116962 0 0)
(0.0012023 0 0)
(0.00123844 0 0)
(0.00127745 0 0)
(0.00131946 0 0)
(0.00136364 0 0)
(0.00140845 0 0)
(0.00145414 0 0)
(0.00149722 -5.07369e-06 0)
(0.00149047 -1.12264e-05 0)
(0.00148061 -1.9497e-05 0)
(0.00146744 -2.96399e-05 0)
(0.00145312 -4.28243e-05 0)
(0.00143798 -5.90664e-05 0)
(0.00142292 -7.7932e-05 0)
(0.00140974 -9.88266e-05 0)
(0.00139824 -0.00012123 0)
(0.00133626 -0.000153322 0)
(0.00128397 -0.000161956 0)
(0.00123037 -0.000168572 0)
(0.00117497 -0.000173305 0)
(0.00111624 -0.000177383 0)
(0.00105316 -0.000180303 0)
(0.000986139 -0.000185592 0)
(0.00091352 -0.000192475 0)
(0.000836102 -0.000203858 0)
(0.000752251 -0.000221009 0)
(0.00066506 -0.000247237 0)
(0.000572616 -0.000283829 0)
(0.000479241 -0.000327979 0)
(0.00038572 -0.000386826 0)
(0.000297267 -0.000453614 0)
(0.000216237 -0.00052743 0)
(0.00014574 -0.000599455 0)
(8.76997e-05 -0.00066033 0)
(4.38324e-05 -0.000700692 0)
(0 -0.000694743 0)
(0 -0.0006692 0)
(0 -0.000641269 0)
(0 -0.000603964 0)
(0.000204269 -0.000526812 0)
(0.000406511 -0.000481551 0)
(0.000592203 -0.000408379 0)
(0.000743786 -0.00032814 0)
(0.000869137 -0.000240646 0)
(0.000960894 -0.000157831 0)
(0.00101769 -7.88346e-05 0)
(0.00105586 0 0)
(0.00106826 0 0)
(0.00107867 0 0)
(0.00109422 0 0)
(0.0011151 0 0)
(0.00114052 0 0)
(0.00116962 0 0)
(0.0012023 0 0)
(0.00123844 0 0)
(0.00127745 0 0)
(0.00131946 0 0)
(0.00136364 0 0)
(0.00140845 0 0)
(0.00145414 0 0)
(0.00149722 -5.07369e-06 0)
(0.00149047 -1.12264e-05 0)
(0.00148061 -1.9497e-05 0)
(0.00146744 -2.96399e-05 0)
(0.00145312 -4.28243e-05 0)
(0.00143798 -5.90664e-05 0)
(0.00142292 -7.7932e-05 0)
(0.00140974 -9.88266e-05 0)
(0.00139824 -0.00012123 0)
(0.00133626 -0.000153322 0)
(0.00128397 -0.000161956 0)
(0.00123037 -0.000168572 0)
(0.00117497 -0.000173305 0)
(0.00111624 -0.000177383 0)
(0.00105316 -0.000180303 0)
(0.000986139 -0.000185592 0)
(0.00091352 -0.000192475 0)
(0.000836102 -0.000203858 0)
(0.000752251 -0.000221009 0)
(0.00066506 -0.000247237 0)
(0.000572616 -0.000283829 0)
(0.000479241 -0.000327979 0)
(0.00038572 -0.000386826 0)
(0.000297267 -0.000453614 0)
(0.000216237 -0.00052743 0)
(0.00014574 -0.000599455 0)
(8.76997e-05 -0.00066033 0)
(4.38324e-05 -0.000700692 0)
(0 -0.000694743 0)
(0 -0.0006692 0)
(0 -0.000641269 0)
(0 -0.000603964 0)
(0.000204269 -0.000526812 0)
(0.000406511 -0.000481551 0)
(0.000592203 -0.000408379 0)
(0.000743786 -0.00032814 0)
(0.000869137 -0.000240646 0)
(0.000960894 -0.000157831 0)
(0.00101769 -7.88346e-05 0)
(0.000878909 -8.56084e-05 0)
(0.0011795 -6.1492e-05 0)
(0.000547082 -0.000275173 0)
(0.000971258 -9.88002e-05 0)
(0.00109149 -3.20755e-05 0)
(0.00126485 -9.97518e-05 0)
(0.00133496 -3.58604e-05 0)
(0.000256949 -0.000523595 0)
(0.000965982 -4.85025e-05 0)
(0.000683984 -0.000189988 0)
(0.00121211 -2.61071e-05 0)
(0.00108945 -0.000114715 0)
(0.00105915 -1.94018e-05 0)
(0.000759271 -0.000156808 0)
(0.00134805 -6.15366e-05 0)
(0.000813756 -0.000152015 0)
(0.00108018 -6.04831e-05 0)
(0.000984399 -6.38698e-05 0)
(0.00036083 -0.000423768 0)
(0.000439 -0.00038545 0)
(0.00129332 -1.95848e-05 0)
(0.00116966 -0.00013314 0)
(0.00141886 -1.63453e-05 0)
(0.00130902 -0.000123887 0)
(0.000732941 -0.000153791 0)
(0.00050982 -0.000300678 0)
(0.000969007 -0.000138837 0)
(0.00116577 -1.43942e-05 0)
(0.00125704 -7.13476e-05 0)
(0.00125298 -4.09415e-05 0)
(0.000116135 -0.00064153 0)
(0.000871562 -0.000105931 0)
(0.00140127 -3.68578e-05 0)
(0.00135192 -8.45022e-05 0)
(0.00118043 -9.6309e-05 0)
(0.000170846 -0.000581803 0)
(0.000996111 -4.3846e-05 0)
(0.00112074 -1.1731e-05 0)
(0.0010506 -1.5678e-05 0)
(0.00102662 -3.47205e-05 0)
(0.000865559 -8.69058e-05 0)
(0.000903747 -0.000102731 0)
(0.00107101 -8.67393e-05 0)
(0.00114751 -3.40329e-05 0)
(0.000688842 -0.000207413 0)
(0.000226689 -0.000546165 0)
(0.000883033 -0.00015546 0)
(0.00135409 -1.5069e-05 0)
(0.00124109 -0.000137788 0)
(0.000642222 -0.000263428 0)
(0.00124692 -1.23198e-05 0)
(0.00110312 -0.000142672 0)
(0.000985214 -3.91039e-05 0)
(0.000625567 -0.000219473 0)
(0.000787043 -0.000128684 0)
(0.000377267 -0.000417907 0)
(0.000564013 -0.000268412 0)
(0.000329059 -0.000484038 0)
(0.0013203 -5.13939e-05 0)
(0.00113529 -8.4395e-05 0)
(0.00119083 -4.47584e-05 0)
(0.00109403 -7.51195e-06 0)
(0.0010647 -2.64373e-05 0)
(0.000601653 -0.00024658 0)
(0.00140928 -4.66768e-05 0)
(0.000400183 -0.000382431 0)
(0.000768375 -0.000151732 0)
(8.98444e-05 -0.000638827 0)
(0.00103266 -0.000153922 0)
(0.00121486 -7.70553e-06 0)
(0.00101118 -7.22095e-05 0)
(0.00089116 -0.00011686 0)
(0.00105164 -5.02549e-05 0)
(0.000788802 -0.000179292 0)
(0.00129751 -7.8561e-05 0)
(0.00136613 -9.739e-05 0)
(0.00143946 -2.32124e-05 0)
(0.000470952 -0.000331706 0)
(0.000758316 -0.000187136 0)
(0.000870157 -9.25948e-05 0)
(0.00123888 -5.74358e-05 0)
(0.00144849 -9.17634e-06 0)
(0.00134623 -0.000129639 0)
(0.00111929 -6.85157e-05 0)
(0.00139092 -6.468e-05 0)
(0.00105409 -1.55228e-05 0)
(0.00103319 -4.29411e-05 0)
(0.000930548 -0.000125109 0)
(0.0010052 -0.000109306 0)
(0.00115425 -6.80583e-06 0)
(0.0011224 -1.85711e-05 0)
(0.00125343 -2.86109e-05 0)
(0.00117164 -2.43811e-05 0)
(0.00129437 -3.23949e-05 0)
(0.000920826 -7.81278e-05 0)
(0.000942412 -8.70856e-05 0)
(0.00120189 -7.65372e-05 0)
(0.00130996 -0.000102597 0)
(0.00138278 -2.99564e-05 0)
(0.000276663 -0.000494007 0)
(0.000153602 -0.000612415 0)
(0.000580429 -0.000331072 0)
(0.00121053 -0.000111205 0)
(0.00128816 -7.80507e-06 0)
(0.000790519 -0.000125224 0)
(0.00114462 -0.000156809 0)
(0.000470734 -0.000328524 0)
(0.00113687 -0.000118398 0)
(0.000934461 -5.87597e-05 0)
(0.00139421 -9.75135e-06 0)
(0.00128124 -0.000142335 0)
(0.00114452 -4.76981e-05 0)
(0.00123825 -8.88941e-05 0)
(0.000331516 -0.000466006 0)
(0.00029371 -0.000488838 0)
(0.000643083 -0.000210565 0)
(5.7725e-05 -0.000683301 0)
(0.000920031 -0.000164748 0)
(0.00049273 -0.000326702 0)
(0.000985355 -8.07803e-05 0)
(0.00136321 -4.78659e-05 0)
(0.000821952 -0.000107222 0)
(0.00128632 -4.60655e-05 0)
(0.000262121 -0.000531145 0)
(0.000174964 -0.000588808 0)
(0.000597515 -0.000241032 0)
(0.00103321 -0.00012797 0)
(0.00133032 -2.48173e-05 0)
(0.0012615 -0.000117382 0)
(0.000119559 -0.000586678 0)
(0.00111939 -6.40773e-06 0)
(0.00100158 -3.29994e-05 0)
(0.00108123 -5.91957e-06 0)
(0.00104221 -3.38299e-05 0)
(0.000969054 -5.88891e-05 0)
(0.000813393 -0.000185669 0)
(0.000845973 -0.000105685 0)
(0.00118298 -5.63392e-06 0)
(0.00101452 -3.06926e-05 0)
(0.000247912 -0.000532356 0)
(0.00103188 -8.27566e-05 0)
(0.0014403 -3.15105e-05 0)
(0.00139426 -7.68822e-05 0)
(0.00119958 -0.000153421 0)
(0.000936463 -5.65668e-05 0)
(0.00132444 -8.27736e-06 0)
(7.53391e-05 -0.000618118 0)
(0.00133909 -7.60455e-05 0)
(5.91423e-05 -0.000665693 0)
(0.000903263 -0.000150806 0)
(0.00110457 -3.97898e-05 0)
(0.000197658 -0.000575638 0)
(0.00120718 -1.74282e-05 0)
(0.0010916 -1.57548e-05 0)
(0.000869699 -0.000139812 0)
(0.00101399 -3.29282e-05 0)
(0.000712697 -0.000167869 0)
(0.00113491 -2.50164e-05 0)
(0.00045623 -0.000347074 0)
(0.000941919 -6.30526e-05 0)
(0.000615199 -0.00024749 0)
(0.0010649 -1.3846e-05 0)
(0.00107145 -0.000104076 0)
(0.00105453 -1.59095e-05 0)
(0.000546939 -0.000274321 0)
(0.000649698 -0.000217398 0)
(0.00131113 -8.86464e-05 0)
(0.00136742 -0.000111842 0)
(0.00145747 -1.45178e-05 0)
(0.000445942 -0.00043294 0)
(0.00129933 -6.57475e-05 0)
(0.00137135 -2.17269e-05 0)
(0.000822713 -0.000133862 0)
(0.000965225 -0.000166349 0)
(0.000561879 -0.000291715 0)
(0.00112544 -0.0001026 0)
(0.000740465 -0.000173711 0)
(0.0012197 -3.62211e-05 0)
(0.00121559 -0.000130608 0)
(0.00118495 -3.39944e-05 0)
(0.0012184 -4.93676e-05 0)
(0.000982348 -5.50219e-05 0)
(0.000702311 -0.000179081 0)
(0.000824399 -0.000163443 0)
(0.000205596 -0.00055625 0)
(0.000727635 -0.000258507 0)
(0.000830497 -0.000131213 0)
(0.0010297 -2.47966e-05 0)
(9.1639e-05 -0.00066477 0)
(0.000315 -0.00045212 0)
(0.00124285 -2.08269e-05 0)
(0.00125547 -5.37769e-06 0)
(0.00107022 -7.82955e-06 0)
(0.000690397 -0.000219937 0)
(0.000752083 -0.000151932 0)
(0.0010895 -0.000162872 0)
(0.00107705 -7.3115e-05 0)
(0.00128053 -5.85651e-05 0)
(0.00107602 -0.000131673 0)
(0.000671683 -0.000215241 0)
(0.00142569 -5.77821e-06 0)
(0.00131074 -0.000145529 0)
(0.000868377 -0.000179173 0)
(0.00136089 -4.00562e-05 0)
(0.00147369 -3.83909e-06 0)
(0.00136493 -0.000136769 0)
(0.000809189 -0.000127399 0)
(0.000878909 -8.56084e-05 0)
(0.0011795 -6.1492e-05 0)
(0.000547082 -0.000275173 0)
(0.000971258 -9.88002e-05 0)
(0.00109149 -3.20755e-05 0)
(0.00126485 -9.97518e-05 0)
(0.00133496 -3.58604e-05 0)
(0.000256949 -0.000523595 0)
(0.000965982 -4.85025e-05 0)
(0.000683984 -0.000189988 0)
(0.00121211 -2.61071e-05 0)
(0.00108945 -0.000114715 0)
(0.00105915 -1.94018e-05 0)
(0.000759271 -0.000156808 0)
(0.00134805 -6.15366e-05 0)
(0.000813756 -0.000152015 0)
(0.00108018 -6.04831e-05 0)
(0.000984399 -6.38698e-05 0)
(0.00036083 -0.000423768 0)
(0.000439 -0.00038545 0)
(0.00129332 -1.95848e-05 0)
(0.00116966 -0.00013314 0)
(0.00141886 -1.63453e-05 0)
(0.00130902 -0.000123887 0)
(0.000732941 -0.000153791 0)
(0.00050982 -0.000300678 0)
(0.000969007 -0.000138837 0)
(0.00116577 -1.43942e-05 0)
(0.00125704 -7.13476e-05 0)
(0.00125298 -4.09415e-05 0)
(0.000116135 -0.00064153 0)
(0.000871562 -0.000105931 0)
(0.00140127 -3.68578e-05 0)
(0.00135192 -8.45022e-05 0)
(0.00118043 -9.6309e-05 0)
(0.000170846 -0.000581803 0)
(0.000996111 -4.3846e-05 0)
(0.00112074 -1.1731e-05 0)
(0.0010506 -1.5678e-05 0)
(0.00102662 -3.47205e-05 0)
(0.000865559 -8.69058e-05 0)
(0.000903747 -0.000102731 0)
(0.00107101 -8.67393e-05 0)
(0.00114751 -3.40329e-05 0)
(0.000688842 -0.000207413 0)
(0.000226689 -0.000546165 0)
(0.000883033 -0.00015546 0)
(0.00135409 -1.5069e-05 0)
(0.00124109 -0.000137788 0)
(0.000642222 -0.000263428 0)
(0.00124692 -1.23198e-05 0)
(0.00110312 -0.000142672 0)
(0.000985214 -3.91039e-05 0)
(0.000625567 -0.000219473 0)
(0.000787043 -0.000128684 0)
(0.000377267 -0.000417907 0)
(0.000564013 -0.000268412 0)
(0.000329059 -0.000484038 0)
(0.0013203 -5.13939e-05 0)
(0.00113529 -8.4395e-05 0)
(0.00119083 -4.47584e-05 0)
(0.00109403 -7.51195e-06 0)
(0.0010647 -2.64373e-05 0)
(0.000601653 -0.00024658 0)
(0.00140928 -4.66768e-05 0)
(0.000400183 -0.000382431 0)
(0.000768375 -0.000151732 0)
(8.98444e-05 -0.000638827 0)
(0.00103266 -0.000153922 0)
(0.00121486 -7.70553e-06 0)
(0.00101118 -7.22095e-05 0)
(0.00089116 -0.00011686 0)
(0.00105164 -5.02549e-05 0)
(0.000788802 -0.000179292 0)
(0.00129751 -7.8561e-05 0)
(0.00136613 -9.739e-05 0)
(0.00143946 -2.32124e-05 0)
(0.000470952 -0.000331706 0)
(0.000758316 -0.000187136 0)
(0.000870157 -9.25948e-05 0)
(0.00123888 -5.74358e-05 0)
(0.00144849 -9.17634e-06 0)
(0.00134623 -0.000129639 0)
(0.00111929 -6.85157e-05 0)
(0.00139092 -6.468e-05 0)
(0.00105409 -1.55228e-05 0)
(0.00103319 -4.29411e-05 0)
(0.000930548 -0.000125109 0)
(0.0010052 -0.000109306 0)
(0.00115425 -6.80583e-06 0)
(0.0011224 -1.85711e-05 0)
(0.00125343 -2.86109e-05 0)
(0.00117164 -2.43811e-05 0)
(0.00129437 -3.23949e-05 0)
(0.000920826 -7.81278e-05 0)
(0.000942412 -8.70856e-05 0)
(0.00120189 -7.65372e-05 0)
(0.00130996 -0.000102597 0)
(0.00138278 -2.99564e-05 0)
(0.000276663 -0.000494007 0)
(0.000153602 -0.000612415 0)
(0.000580429 -0.000331072 0)
(0.00121053 -0.000111205 0)
(0.00128816 -7.80507e-06 0)
(0.000790519 -0.000125224 0)
(0.00114462 -0.000156809 0)
(0.000470734 -0.000328524 0)
(0.00113687 -0.000118398 0)
(0.000934461 -5.87597e-05 0)
(0.00139421 -9.75135e-06 0)
(0.00128124 -0.000142335 0)
(0.00114452 -4.76981e-05 0)
(0.00123825 -8.88941e-05 0)
(0.000331516 -0.000466006 0)
(0.00029371 -0.000488838 0)
(0.000643083 -0.000210565 0)
(5.7725e-05 -0.000683301 0)
(0.000920031 -0.000164748 0)
(0.00049273 -0.000326702 0)
(0.000985355 -8.07803e-05 0)
(0.00136321 -4.78659e-05 0)
(0.000821952 -0.000107222 0)
(0.00128632 -4.60655e-05 0)
(0.000262121 -0.000531145 0)
(0.000174964 -0.000588808 0)
(0.000597515 -0.000241032 0)
(0.00103321 -0.00012797 0)
(0.00133032 -2.48173e-05 0)
(0.0012615 -0.000117382 0)
(0.000119559 -0.000586678 0)
(0.00111939 -6.40773e-06 0)
(0.00100158 -3.29994e-05 0)
(0.00108123 -5.91957e-06 0)
(0.00104221 -3.38299e-05 0)
(0.000969054 -5.88891e-05 0)
(0.000813393 -0.000185669 0)
(0.000845973 -0.000105685 0)
(0.00118298 -5.63392e-06 0)
(0.00101452 -3.06926e-05 0)
(0.000247912 -0.000532356 0)
(0.00103188 -8.27566e-05 0)
(0.0014403 -3.15105e-05 0)
(0.00139426 -7.68822e-05 0)
(0.00119958 -0.000153421 0)
(0.000936463 -5.65668e-05 0)
(0.00132444 -8.27736e-06 0)
(7.53391e-05 -0.000618118 0)
(0.00133909 -7.60455e-05 0)
(5.91423e-05 -0.000665693 0)
(0.000903263 -0.000150806 0)
(0.00110457 -3.97898e-05 0)
(0.000197658 -0.000575638 0)
(0.00120718 -1.74282e-05 0)
(0.0010916 -1.57548e-05 0)
(0.000869699 -0.000139812 0)
(0.00101399 -3.29282e-05 0)
(0.000712697 -0.000167869 0)
(0.00113491 -2.50164e-05 0)
(0.00045623 -0.000347074 0)
(0.000941919 -6.30526e-05 0)
(0.000615199 -0.00024749 0)
(0.0010649 -1.3846e-05 0)
(0.00107145 -0.000104076 0)
(0.00105453 -1.59095e-05 0)
(0.000546939 -0.000274321 0)
(0.000649698 -0.000217398 0)
(0.00131113 -8.86464e-05 0)
(0.00136742 -0.000111842 0)
(0.00145747 -1.45178e-05 0)
(0.000445942 -0.00043294 0)
(0.00129933 -6.57475e-05 0)
(0.00137135 -2.17269e-05 0)
(0.000822713 -0.000133862 0)
(0.000965225 -0.000166349 0)
(0.000561879 -0.000291715 0)
(0.00112544 -0.0001026 0)
(0.000740465 -0.000173711 0)
(0.0012197 -3.62211e-05 0)
(0.00121559 -0.000130608 0)
(0.00118495 -3.39944e-05 0)
(0.0012184 -4.93676e-05 0)
(0.000982348 -5.50219e-05 0)
(0.000702311 -0.000179081 0)
(0.000824399 -0.000163443 0)
(0.000205596 -0.00055625 0)
(0.000727635 -0.000258507 0)
(0.000830497 -0.000131213 0)
(0.0010297 -2.47966e-05 0)
(9.1639e-05 -0.00066477 0)
(0.000315 -0.00045212 0)
(0.00124285 -2.08269e-05 0)
(0.00125547 -5.37769e-06 0)
(0.00107022 -7.82955e-06 0)
(0.000690397 -0.000219937 0)
(0.000752083 -0.000151932 0)
(0.0010895 -0.000162872 0)
(0.00107705 -7.3115e-05 0)
(0.00128053 -5.85651e-05 0)
(0.00107602 -0.000131673 0)
(0.000671683 -0.000215241 0)
(0.00142569 -5.77821e-06 0)
(0.00131074 -0.000145529 0)
(0.000868377 -0.000179173 0)
(0.00136089 -4.00562e-05 0)
(0.00147369 -3.83909e-06 0)
(0.00136493 -0.000136769 0)
(0.000809189 -0.000127399 0)
)
;

boundaryField
{
    back
    {
        type            empty;
    }
    front
    {
        type            empty;
    }
    down
    {
        type            pointFixedDisplacementZeroShear;
    }
    right
    {
        type            pointSolidTraction;
        tractionSeries  
{
        fileName        "$FOAM_CASE/constant/timeVsTraction";
        outOfBounds     clamp;
}
        pressure        uniform 0;
    }
    up
    {
        type            pointSolidTraction;
        traction        uniform (0 0 0);
        pressure        uniform 0;
    }
    left
    {
        type            pointFixedDisplacementZeroShear;
    }
    hole
    {
        type            pointSolidTraction;
        traction        uniform (0 0 0);
        pressure        uniform 0;
    }
}


// ************************************************************************* //
