/*--------------------------------*- C++ -*----------------------------------*\
| =========                 |                                                 |
| \\      /  F ield         | OpenFOAM: The Open Source CFD Toolbox           |
|  \\    /   O peration     | Version:  v2012                                 |
|   \\  /    A nd           | Website:  www.openfoam.com                      |
|    \\/     M anipulation  |                                                 |
\*---------------------------------------------------------------------------*/
FoamFile
{
    version     2.0;
    format      ascii;
    class       volSymmTensorField;
    location    "3";
    object      sigma;
}
// * * * * * * * * * * * * * * * * * * * * * * * * * * * * * * * * * * * * * //

dimensions      [1 -1 -2 0 0 0 0];


internalField   nonuniform List<symmTensor> 
470
(
(1.80544e+07 -6.10554e+06 1.41864e-05 1.52369e+06 7.24479e-06 5.87342e+06)
(2.34941e+07 -1.46391e+06 -1.17461e-05 4.51658e+06 -6.37712e-07 8.40321e+06)
(4.48803e+07 -4.41811e+06 -2.3679e-05 580543 6.30987e-05 1.36383e+07)
(3.90292e+07 -888881 -2.14605e-05 8.22762e+06 3.44078e-07 1.41771e+07)
(3.42551e+07 -1.14919e+07 -8.53517e-06 -1.35046e+06 1.81183e-05 9.8714e+06)
(4.14684e+07 -938220 5.25888e-05 -168843 3.76201e-05 1.23899e+07)
(3.68717e+07 -9.09327e+06 6.54675e-05 2.5972e+06 1.52912e-05 1.18407e+07)
(2.75395e+07 -1.31692e+07 -5.60332e-05 -4.85861e+06 -1.71856e-07 6.80427e+06)
(5.78602e+07 -5.00547e+06 3.10582e-06 -2.88359e+06 1.27006e-05 1.6493e+07)
(4.47822e+07 -7.08333e+06 2.08767e-05 2.38235e+06 1.8181e-05 1.41494e+07)
(5.72941e+07 -4.49387e+06 5.5788e-05 -1.97991e+06 -2.32061e-06 1.65943e+07)
(6.484e+07 5.22159e+06 -0.000157259 -3.29722e+06 0.000135027 1.84628e+07)
(6.38817e+07 2.28867e+06 0.000183413 -3.60063e+06 2.10168e-06 1.80843e+07)
(3.77723e+07 -1.82041e+06 -4.47892e-05 7.50041e+06 3.08648e-06 1.35818e+07)
(6.66423e+07 -1.47283e+06 -2.42394e-05 -1.47283e+06 -2.67673e-06 1.95508e+07)
(5.15892e+07 -6.41024e+06 -8.74768e-05 -566020 -3.38327e-05 1.5307e+07)
(4.24836e+07 -7.72217e+06 3.53083e-05 1.01642e+06 -8.78358e-05 1.305e+07)
(3.41344e+07 -2.32702e+06 -1.1676e-06 6.41994e+06 2.19953e-05 1.21663e+07)
(3.2775e+07 -980005 2.21377e-05 7.00703e+06 -7.01948e-06 1.19346e+07)
(2.51492e+07 -5.63057e+06 -8.82707e-06 4.63789e+06 1.06686e-05 8.93613e+06)
(5.37973e+07 -3.9345e+06 -1.68835e-05 433686 2.07249e-06 1.62693e+07)
(4.01594e+07 -2.83392e+06 5.86136e-05 5.39127e+06 8.19219e-05 1.36652e+07)
(4.62791e+07 -2.91783e+06 1.27035e-05 587228 5.84677e-05 1.40599e+07)
(3.64003e+07 -2.87155e+06 4.53497e-05 6.55425e+06 2.23224e-05 1.28864e+07)
(6.06547e+07 -3.73289e+06 0.000277025 -1.0631e+07 2.64608e-05 1.50071e+07)
(3.58277e+07 -7.70377e+06 -1.09871e-05 3.94724e+06 1.28582e-05 1.19325e+07)
(5.61862e+07 -5.06591e+06 0.000211429 -7.69994e+06 -2.22049e-05 1.45459e+07)
(4.78566e+07 -1.79648e+06 2.14839e-06 -356966 -9.60353e-06 1.42499e+07)
(4.15493e+07 -2.30438e+06 -5.92908e-05 924526 -6.54135e-05 1.27422e+07)
(3.61911e+07 -1.2544e+06 -2.65046e-05 6.95323e+06 -2.98833e-07 1.29433e+07)
(2.43685e+07 -5.46032e+06 -1.39295e-05 4.30862e+06 3.64967e-06 8.60313e+06)
(7.1704e+07 446612 8.80898e-05 -286009 -7.74792e-05 2.14254e+07)
(4.43944e+07 -6.26424e+06 2.89332e-05 1.03178e+06 1.32479e-05 1.36279e+07)
(7.68095e+07 -8.28699e+06 -0.0003129 934780 3.45961e-05 2.33233e+07)
(4.37666e+07 -1.40031e+06 6.81413e-05 840571 3.27658e-05 1.33821e+07)
(4.21739e+07 -1.31367e+06 4.8292e-05 431884 1.59115e-05 1.27817e+07)
(6.69326e+07 1.61846e+06 8.40148e-05 -274295 9.67826e-05 1.99975e+07)
(2.52357e+07 -5.23577e+06 -9.77283e-06 3.74416e+06 8.56728e-07 8.69397e+06)
(3.00942e+07 -4.98779e+06 2.3352e-06 5.82007e+06 -1.44292e-05 1.07743e+07)
(2.48443e+07 -7.33288e+06 8.05646e-07 2.8978e+06 4.35351e-06 8.32264e+06)
(5.05822e+07 -8.85034e+06 4.52563e-05 -7.56712e+06 -5.99403e-05 1.29045e+07)
(3.05253e+07 -1.22177e+06 1.19562e-05 6.36282e+06 -1.36409e-06 1.10664e+07)
(6.57808e+07 7.85422e+06 -0.000145177 -364382 0.000106491 1.96249e+07)
(4.21667e+07 -1.10179e+07 1.82963e-05 -6.97206e+06 1.92202e-05 1.05584e+07)
(5.16265e+07 -1.56064e+06 2.92951e-05 168437 -9.56967e-05 1.55385e+07)
(6.03203e+07 7.95875e+06 5.74373e-05 -2.03775e+06 3.67386e-05 1.74848e+07)
(2.94832e+07 -8.19178e+06 3.3335e-05 3.03936e+06 1.9766e-05 9.75678e+06)
(5.40623e+07 -6.66439e+06 0.000100005 -9.53944e+06 -8.35711e-06 1.33569e+07)
(5.02256e+07 -8.19465e+06 1.31472e-05 -6.64276e+06 -5.59048e-05 1.30748e+07)
(5.85988e+07 -4.09265e+06 4.80819e-05 -5.89741e+06 1.48636e-05 1.58104e+07)
(6.77018e+07 2.00941e+06 -4.93954e-05 -791729 -2.10052e-05 2.0073e+07)
(7.39486e+07 -7.19586e+06 -0.000257526 -1.49633e+06 5.89639e-05 2.17357e+07)
(3.56026e+07 -3.41569e+06 -7.63612e-06 6.61457e+06 -1.37598e-05 1.26652e+07)
(3.12466e+07 -2.17857e+06 6.60863e-06 5.91034e+06 7.99762e-06 1.11471e+07)
(3.99874e+07 -2.67818e+06 4.55131e-05 7.08592e+06 -3.50646e-06 1.4122e+07)
(3.97954e+07 -3.04858e+06 7.59175e-05 5.46552e+06 4.19972e-06 1.35783e+07)
(4.76144e+07 3.72121e+06 -4.23446e-05 813601 9.06526e-05 1.45284e+07)
(3.33196e+07 513971 4.83475e-05 -927783 4.67041e-05 9.71754e+06)
(4.46318e+07 -1.07827e+07 8.97886e-06 -2.61146e+06 -6.09722e-05 1.26061e+07)
(4.94484e+07 -2.74744e+06 -2.10869e-05 921164 8.68317e-05 1.51109e+07)
(3.73591e+07 -7.30631e+06 0.00011843 3.85744e+06 5.70308e-05 1.2365e+07)
(6.06129e+07 -565636 0.000426922 -5.76026e+06 0.000126644 1.64558e+07)
(6.34254e+07 274045 0.000157136 -3.72449e+06 -4.36567e-05 1.79103e+07)
(6.80274e+07 6.66407e+06 -0.000241524 -3.38371e+06 2.79407e-05 1.93931e+07)
(3.2643e+07 -1.4093e+07 0.000139307 -367956 7.33838e-06 9.68253e+06)
(7.27061e+07 4.77302e+06 6.41306e-05 8.52043e+06 -7.60109e-06 2.4368e+07)
(2.77473e+07 -8.91663e+06 3.06145e-05 2.99491e+06 5.29234e-06 9.22268e+06)
(4.02925e+07 -2.9928e+06 -0.000174837 4.01743e+06 5.81787e-05 1.3293e+07)
(2.17324e+07 -1.47519e+07 2.53019e-05 -1.30985e+07 3.81295e-06 2.59017e+06)
(4.93676e+07 -7.52414e+06 -5.57997e-05 621950 -6.56338e-06 1.49969e+07)
(1.68826e+07 -2.7221e+06 -1.56459e-06 1.91964e+06 3.09323e-07 5.64068e+06)
(4.30164e+07 -7.90624e+06 -6.04351e-05 2.46338e+06 -2.25668e-05 1.36439e+07)
(7.57403e+07 3.17828e+06 -0.000146814 -3.65169e+06 0.000207238 2.16266e+07)
(3.98168e+07 -9.77673e+06 -1.59962e-05 1.38021e+06 -1.46184e-05 1.23591e+07)
(6.90887e+07 6.42514e+06 -9.53114e-05 -2.01315e+06 9.88842e-05 2.01227e+07)
(3.99519e+07 -1.0347e+06 9.88959e-05 6.9804e+06 -3.43056e-05 1.40797e+07)
(4.20873e+07 -6.47394e+06 -9.17035e-05 2.66143e+06 -6.99219e-05 1.34246e+07)
(4.13156e+07 -7.12341e+06 -2.05031e-05 3.09569e+06 -7.41588e-05 1.33234e+07)
(4.23212e+07 -1.00085e+07 -1.53423e-05 -323507 -1.19387e-06 1.25993e+07)
(7.2162e+07 3.759e+06 -1.90363e-05 9.44163e+06 -8.24094e-05 2.44811e+07)
(4.76917e+07 -9.75812e+06 1.58093e-05 -3.89776e+06 6.41554e-05 1.31382e+07)
(8.09968e+07 7.80668e+06 -7.65422e-05 6.66657e+06 -3.02643e-05 2.6299e+07)
(4.69672e+07 -4.47898e+06 6.53157e-05 1.28375e+06 0.000111769 1.44753e+07)
(1.89088e+07 -1.10224e+07 3.75384e-05 -1.50831e+07 -4.25518e-06 1.14772e+06)
(5.79656e+07 -3.57394e+06 7.27767e-05 -5.1218e+06 6.09605e-05 1.58531e+07)
(4.00342e+07 -1.25867e+06 3.67094e-05 5.26746e+06 4.34713e-05 1.35905e+07)
(6.45571e+07 7.33372e+06 -1.81854e-05 -5.1757e+06 0.000123486 1.78144e+07)
(5.29944e+07 -1.99549e+07 1.51496e-05 1.04124e+07 5.19992e-05 1.9022e+07)
(6.52769e+07 9.60488e+06 -9.39336e-05 813573 -2.16941e-05 1.98272e+07)
(6.62616e+07 2.85483e+06 -9.88142e-05 -7.07671e+06 -5.42468e-05 1.77555e+07)
(7.06312e+07 8.38038e+06 -4.46141e-05 -2.15641e+06 1.27385e-05 2.05425e+07)
(6.51711e+07 2.8113e+06 0.000195317 -2.48646e+06 4.9337e-05 1.88054e+07)
(3.96558e+07 -1.01061e+07 5.06856e-05 1.34268e+06 -4.24168e-05 1.22996e+07)
(4.04855e+07 -7.51893e+06 -1.7911e-05 2.53201e+06 -9.25033e-06 1.29053e+07)
(6.48146e+07 -301573 0.000100174 -1.35404e+06 5.39491e-05 1.90382e+07)
(6.69065e+07 843589 -0.000199812 81709.9 7.55731e-05 2.00965e+07)
(3.16705e+07 -1.06984e+07 1.00297e-05 863730 3.76326e-05 9.76028e+06)
(3.93507e+07 -8.29265e+06 -8.72199e-06 3.05752e+06 -1.24788e-07 1.27225e+07)
(3.36125e+07 -1.17927e+07 -4.7428e-05 -2.58922e+06 -2.23304e-06 9.30698e+06)
(4.3567e+07 -2.52708e+06 -5.6115e-05 550100 4.8727e-05 1.32351e+07)
(3.92238e+07 -3.91453e+06 5.85903e-05 5.85781e+06 -1.30348e-05 1.35245e+07)
(5.33132e+07 -6.47942e+06 -0.00011188 -4.85913e+06 1.53131e-05 1.45362e+07)
(7.60471e+07 3.87086e+06 -0.000124589 -1.52444e+06 0.000179624 2.23568e+07)
(3.9015e+07 -2.41513e+06 5.30559e-05 7.31339e+06 -3.54878e-06 1.38985e+07)
(4.00407e+07 -1.63969e+06 5.55545e-05 9.00618e+06 -5.60486e-06 1.47141e+07)
(4.02825e+07 -1.73479e+06 3.95584e-05 872892 -6.06745e-05 1.23466e+07)
(4.13876e+07 -2.25833e+06 -5.59749e-05 3.03681e+06 -5.43855e-05 1.33273e+07)
(3.36315e+07 -1.01865e+07 1.19679e-05 1.27218e+06 3.26046e-05 1.04711e+07)
(3.92504e+06 -1.36357e+06 -6.00615e-05 -2.66214e+07 -0.000110481 -6.8089e+06)
(8.62403e+07 -1.04782e+06 8.58947e-05 6.69891e+06 -6.13225e-05 2.78818e+07)
(6.33303e+07 8.13658e+06 8.44031e-05 -1.15119e+06 3.63416e-05 1.86537e+07)
(8.80326e+07 -139456 -0.0001263 5.97007e+06 -7.3991e-05 2.82008e+07)
(4.02304e+07 -1.04832e+06 5.23786e-05 8.00485e+06 -3.29709e-05 1.44706e+07)
(4.1423e+07 -764167 9.88492e-05 445459 0.000144681 1.25605e+07)
(3.03406e+07 -1.30499e+07 -9.45758e-07 -1.01205e+07 -2.28923e-05 6.06605e+06)
(4.47642e+07 -8.95848e+06 6.3284e-05 859486 -4.8022e-05 1.36871e+07)
(3.80045e+07 -801451 -4.92728e-06 8.24615e+06 -9.366e-06 1.38752e+07)
(6.46019e+07 -1.29053e+06 -2.79874e-05 11411.9 6.39437e-05 1.9384e+07)
(3.47247e+07 -9.53653e+06 -2.12504e-05 2.24013e+06 4.56445e-05 1.10894e+07)
(2.45854e+07 -1.74666e+06 -1.64398e-05 5.14351e+06 -3.40475e-06 8.91866e+06)
(3.73797e+07 -1.09397e+07 -4.07493e-05 623545 4.3086e-05 1.1401e+07)
(3.94417e+07 -2.73307e+06 7.3232e-05 7.71503e+06 -1.0712e-05 1.4147e+07)
(3.56281e+07 -2.06973e+06 -4.09828e-05 6.72283e+06 -9.89908e-07 1.27053e+07)
(4.00658e+07 -645772 -9.9433e-05 1.08091e+07 1.85368e-05 1.52625e+07)
(4.01608e+07 -595869 0.000159681 1.13898e+06 -0.0001518 1.23899e+07)
(4.65792e+07 -9.5657e+06 5.60449e-06 -999163 -4.79739e-06 1.3674e+07)
(4.77748e+07 -8.45205e+06 1.93238e-05 -224985 -4.50432e-05 1.42649e+07)
(3.93006e+07 -4.0102e+06 3.741e-05 5.29234e+06 -1.47395e-05 1.33779e+07)
(6.71682e+07 -2.24062e+06 5.33828e-05 229989 -3.43304e-05 2.02195e+07)
(3.75011e+07 -3.35227e+06 6.75108e-05 6.36638e+06 2.79882e-05 1.31602e+07)
(2.86763e+07 -1.0442e+07 -6.31673e-06 671658 5.43227e-06 8.8044e+06)
(2.74425e+07 -1.16981e+07 9.45758e-06 -1.28905e+06 2.08727e-05 7.84603e+06)
(3.76497e+07 -8.97277e+06 8.05646e-07 2.78894e+06 1.35821e-05 1.21316e+07)
(3.87548e+07 -4.43134e+06 3.03577e-07 5.76178e+06 -4.66165e-06 1.3355e+07)
(4.03697e+07 -1.05608e+06 4.09595e-05 4.8073e+06 8.3388e-05 1.35531e+07)
(4.45783e+07 -2.50463e+06 2.69716e-05 241317 2.04272e-05 1.34459e+07)
(4.16011e+07 -8.97347e+06 -1.4128e-05 1.66911e+06 -5.69498e-05 1.29811e+07)
(5.79474e+07 -1.37371e+07 0.000219778 -827610 -9.48677e-06 1.71359e+07)
(6.51278e+07 4.9168e+06 6.37686e-05 -1.05406e+06 2.45955e-05 1.92221e+07)
(4.04264e+07 -563963 9.0676e-05 149418 -3.09094e-05 1.21728e+07)
(4.15183e+07 -991350 0.000106018 859902 5.51853e-05 1.27135e+07)
(6.49377e+07 -1.39131e+06 0.00023836 -1.00584e+07 -0.000195497 1.64638e+07)
(4.04839e+07 -4.26229e+06 -3.26929e-06 5.15188e+06 2.35184e-05 1.36907e+07)
(3.93335e+07 -6.69177e+06 -6.04351e-05 3.24542e+06 -8.17103e-05 1.27737e+07)
(4.07124e+07 -6.14736e+06 -8.13352e-05 4.12482e+06 -8.59487e-05 1.34512e+07)
(2.59864e+07 -5.37362e+06 -3.47945e-06 4.0413e+06 7.64177e-06 9.00832e+06)
(3.98556e+07 -840047 7.37224e-05 9.49892e+06 5.31907e-05 1.48064e+07)
(6.13103e+07 597978 0.000145145 -8.99821e+06 0.000104267 1.56936e+07)
(3.83918e+07 -5.74631e+06 -7.60109e-05 4.66059e+06 -3.38123e-05 1.29157e+07)
(6.26826e+07 4.3596e+06 -0.000339276 -7.37691e+06 8.29114e-05 1.65917e+07)
(3.29604e+07 -3.37083e+06 1.94523e-05 6.53401e+06 3.45665e-06 1.18483e+07)
(3.84689e+07 -1.19382e+06 -3.02876e-05 8.88108e+06 2.49092e-05 1.4205e+07)
(3.09538e+07 -1.27736e+07 4.74047e-06 -8.93337e+06 -4.38099e-05 6.60614e+06)
(3.91867e+07 -2.26664e+06 1.52255e-05 6.27124e+06 1.85747e-05 1.36374e+07)
(8.23642e+07 -2.0413e+07 -0.000212439 2.97751e+06 -3.24068e-05 2.56025e+07)
(5.03939e+07 -8.06059e+06 -0.000132943 -751640 3.2401e-07 1.48927e+07)
(-2.99643e+06 6.64495e+06 -3.54951e-05 -4.77906e+07 -0.00010001 -1.52361e+07)
(3.44938e+07 -7.66284e+06 1.54591e-05 3.65221e+06 2.8129e-05 1.14438e+07)
(3.76528e+07 -7.33884e+06 7.67348e-05 5.02924e+06 8.44067e-05 1.28046e+07)
(4.26974e+07 -7.01273e+06 -1.61596e-05 1.54805e+06 5.99739e-05 1.32736e+07)
(9.76615e+07 -1.10958e+07 -0.00011815 6.90158e+06 -8.28998e-06 3.13689e+07)
(6.14316e+07 -2.26568e+06 -3.75151e-05 -2.56275e+06 4.5265e-05 1.76607e+07)
(4.49169e+07 3.86278e+06 -0.000111042 631694 4.71711e-06 1.36646e+07)
(7.04786e+07 -1.61711e+06 0.000223263 -1.47589e+06 -0.000101418 2.07008e+07)
(6.33929e+07 -576904 5.06199e-05 4.95586e+06 -2.89215e-05 2.05046e+07)
(4.20337e+07 -1.12864e+07 -0.000115114 -1.24789e+07 1.23824e-05 8.86643e+06)
(3.55991e+07 -1.45788e+07 -2.64112e-05 -1.33353e+07 -3.0562e-05 6.67913e+06)
(6.54259e+07 -411332 6.92271e-05 -524579 -4.68442e-05 1.94704e+07)
(4.1564e+07 -1.08114e+07 4.8222e-05 -558979 -3.11327e-05 1.23015e+07)
(4.44529e+07 -1.13242e+07 -5.30091e-06 -1.06391e+07 -8.79584e-05 1.01441e+07)
(4.44201e+07 -1.08573e+07 -6.35409e-05 -8.45446e+06 -5.51123e-05 1.07897e+07)
(4.07884e+07 -5.03213e+06 2.65746e-05 3.18695e+06 -1.11652e-05 1.31926e+07)
(4.13751e+07 -4.57117e+06 -2.12504e-05 2.73545e+06 -1.84802e-05 1.32332e+07)
(4.16101e+07 -6.06685e+06 -0.000116982 2.43448e+06 -6.62483e-05 1.32134e+07)
(4.08379e+07 -5.72853e+06 -6.03183e-05 3.23384e+06 -7.38757e-05 1.32215e+07)
(3.79507e+07 -6.99547e+06 0.000161339 3.81204e+06 3.36423e-05 1.25288e+07)
(3.477e+07 -2.05367e+06 -9.7378e-06 7.42054e+06 9.64239e-06 1.26572e+07)
(8.59025e+06 -3.59282e+06 2.14839e-06 -8.50713e+06 -8.14001e-06 24935.1)
(5.68222e+07 -3.99012e+06 0.000190588 -1.08433e+07 -0.000122858 1.37937e+07)
(3.62048e+07 -1.30539e+07 -2.98089e-05 -8.31552e+06 -5.17321e-05 8.36677e+06)
(4.31302e+07 -1.12922e+07 1.28436e-07 -4.62888e+06 1.712e-05 1.15504e+07)
(5.96093e+07 6.3061e+06 -0.000164603 -3.98349e+06 1.038e-05 1.66877e+07)
(4.16726e+07 -8.96765e+06 -9.91995e-05 1.70061e+06 -2.35462e-05 1.3012e+07)
(4.73145e+07 -8.27725e+06 -1.31005e-05 -479794 8.92194e-06 1.40504e+07)
(5.04834e+07 -6.15409e+06 -3.84258e-05 1.047e+06 -2.87668e-06 1.54591e+07)
(6.11948e+07 -2.89605e+06 0.000191755 -468609 -2.09118e-05 1.82178e+07)
(4.29792e+07 -3.86226e+06 -8.28998e-05 2.34055e+06 -7.19272e-05 1.35959e+07)
(5.41185e+06 -2.79191e+06 2.21844e-07 -6.0518e+06 -2.98277e-06 -191985)
(5.54533e+07 4.17739e+06 -0.000168176 95539.3 -3.22258e-06 1.66646e+07)
(3.73898e+07 -3.63114e+06 1.66967e-05 6.41707e+06 6.19887e-06 1.31421e+07)
(4.22069e+07 -2.56415e+06 -5.33594e-05 2.21395e+06 -5.95579e-05 1.33263e+07)
(3.44839e+07 -8.25618e+06 -3.54834e-05 4.08487e+06 4.05632e-06 1.15706e+07)
(4.68538e+07 -8.03251e+06 -6.13809e-05 1.62957e+06 1.09536e-05 1.4545e+07)
(4.36153e+07 -8.44124e+06 -7.66648e-05 486364 -2.59996e-05 1.32305e+07)
(1.67764e+07 -7.43698e+06 -1.09054e-05 -563002 -1.90702e-06 4.86402e+06)
(3.28564e+07 -3.44294e+06 -4.10996e-06 5.49412e+06 -1.835e-05 1.15052e+07)
(4.59835e+07 -2.74555e+06 1.40112e-07 -540206 9.57667e-05 1.3633e+07)
(4.35277e+07 -5.43962e+06 -3.48646e-05 1.68852e+06 -3.07386e-05 1.35649e+07)
(4.40994e+07 -4.26461e+06 -7.27299e-05 1.11522e+06 -9.87938e-06 1.35644e+07)
(1.64363e+08 -1.2471e+07 8.13147e-05 1.93564e+07 0.000273055 5.51157e+07)
(2.16994e+07 -2.24333e+06 2.3352e-07 3.79999e+06 3.42783e-06 7.64982e+06)
(1.4109e+07 -2.22794e+06 1.97091e-05 554520 -2.089e-06 4.39906e+06)
(1.1357e+08 1.66534e+06 0.00028568 9.17284e+06 -9.85573e-05 3.6823e+07)
(4.16459e+07 -1.30763e+07 -8.8154e-06 -1.46988e+07 7.91313e-05 8.08413e+06)
(4.84865e+07 -6.62459e+06 -6.93556e-06 89775.8 6.16348e-06 1.45729e+07)
(5.0225e+07 -4.18204e+06 -1.58093e-05 -458672 -1.17607e-05 1.49299e+07)
(3.03953e+07 -3.5696e+06 -7.4493e-06 6.47301e+06 1.31963e-05 1.10605e+07)
(3.07638e+07 -3.53623e+06 1.14192e-05 5.65665e+06 -1.75746e-05 1.09261e+07)
(5.00589e+07 -9.9554e+06 0.000192911 -1.26418e+07 4.0869e-05 1.12251e+07)
(-7.43793e+06 4.83366e+06 -2.64112e-05 -6.23541e+07 -0.0001134 -2.09376e+07)
(3.98893e+07 -3.67025e+06 4.81753e-05 6.43373e+06 -6.41109e-05 1.38969e+07)
(4.47052e+07 -5.53513e+06 5.43402e-05 -91712.9 5.86779e-05 1.33841e+07)
(-2.6905e+06 -3.27108e+06 6.06803e-05 -3.25382e+07 2.93798e-06 -1.05686e+07)
(3.47438e+07 -4.28074e+06 -3.41407e-05 5.73836e+06 1.55966e-05 1.21447e+07)
(6.04245e+07 -4.45234e+06 0.00020182 -2.24124e+06 -5.47897e-05 1.7455e+07)
(5.67398e+07 -4.64391e+06 6.17078e-05 -599339 2.43241e-05 1.68421e+07)
(3.95689e+07 -5.47814e+06 -7.87431e-05 5.08692e+06 1.52992e-05 1.33968e+07)
(3.10141e+07 -7.19507e+06 1.06485e-05 3.66952e+06 -1.00932e-05 1.04051e+07)
(3.68561e+07 -5.17969e+06 -7.79958e-05 5.4075e+06 2.78039e-05 1.26791e+07)
(5.02701e+07 -8.4949e+06 4.33531e-05 -1.06931e+07 -6.10364e-05 1.18731e+07)
(4.35158e+06 -5.15818e+06 1.33574e-05 -2.85751e+07 -1.58268e-05 -7.26706e+06)
(2.32287e+07 -8.44983e+06 1.33574e-05 954151 5.76358e-06 7.25486e+06)
(4.20597e+07 -3.52706e+06 -9.26609e-05 583800 -1.72893e-05 1.2793e+07)
(3.65383e+07 -3.91006e+06 -4.21971e-05 6.39253e+06 3.1553e-05 1.28792e+07)
(5.05695e+07 -8.87083e+06 0.000130643 -1.27409e+07 -9.2442e-05 1.13486e+07)
(4.1667e+07 -2.09921e+06 -1.09054e-05 -137913 -1.77476e-06 1.24587e+07)
(5.45029e+07 -6.83511e+06 -4.32246e-05 -5.39005e+06 5.68418e-05 1.47339e+07)
(5.15158e+06 -7.60651e+06 1.26335e-05 -1.09262e+07 -1.74779e-05 -1.73239e+06)
(7.16511e+07 6.9615e+06 -4.67829e-05 5.20892e+06 7.73537e-05 2.3058e+07)
(6.27525e+07 3.2996e+06 -4.16192e-05 -575608 -4.18585e-05 1.86531e+07)
(5.36393e+07 -7.088e+06 -7.83344e-05 -5.65734e+06 3.53608e-05 1.43946e+07)
(1.29564e+07 -1.11191e+07 1.89268e-05 -1.45099e+07 -1.02264e-05 -466044)
(3.97373e+07 -718814 6.3214e-05 1.03734e+07 4.76002e-05 1.50332e+07)
(4.03394e+07 -332288 2.19509e-05 779435 -2.22428e-06 1.23357e+07)
(5.08369e+07 -4.43406e+06 4.67041e-07 721624 -1.99602e-05 1.54675e+07)
(3.97494e+07 -8.33115e+06 1.05084e-05 3.2376e+06 6.67869e-06 1.28961e+07)
(3.14901e+07 -1.0964e+07 9.58602e-05 -3.33046e+06 -2.99665e-05 8.44788e+06)
(3.98654e+07 -1.67792e+06 -4.0796e-05 1.73034e+06 -1.96274e-05 1.24787e+07)
(4.02407e+07 -865537 0.000111576 2.63411e+06 -9.34812e-05 1.28625e+07)
(3.99035e+07 -959683 -7.83928e-05 8.3893e+06 6.92644e-06 1.44878e+07)
(4.03827e+07 -1.59239e+06 -1.58327e-05 9.09004e+06 6.03395e-06 1.48418e+07)
(3.94894e+07 -1.63986e+06 4.64005e-05 9.05507e+06 4.71197e-05 1.45633e+07)
(4.09921e+07 -1.39388e+06 3.4561e-05 1.80051e+06 -1.74411e-05 1.28378e+07)
(8.84834e+07 3.15245e+06 -0.00010704 9.76175e+06 -0.000167341 2.94735e+07)
(8.01264e+07 -1.75247e+06 -0.000143231 1.28034e+07 -0.000121793 2.7879e+07)
(6.08814e+07 4.80329e+06 -2.19509e-05 8.33808e+06 5.63835e-05 2.07658e+07)
(6.01747e+07 3.33417e+06 5.30018e-05 6.14009e+06 -7.71785e-06 1.98944e+07)
(4.03131e+07 -2.67624e+06 -0.000254374 3.23362e+06 3.25469e-05 1.3064e+07)
(2.88753e+07 -1.13e+06 -1.89619e-05 5.91288e+06 1.56212e-05 1.04365e+07)
(4.25001e+07 -5.2173e+06 -4.37851e-05 2.09725e+06 -3.00979e-05 1.33792e+07)
(4.16869e+07 -4.57436e+06 -4.37851e-05 1.9908e+06 -4.77257e-05 1.31033e+07)
(4.74072e+07 -4.5194e+06 7.09669e-05 189349 9.49611e-05 1.4279e+07)
(4.0127e+07 -192542 -4.98566e-05 1.24644e+07 2.62048e-05 1.57774e+07)
(4.03191e+07 -169062 4.1193e-05 46519.7 -3.6327e-06 1.21097e+07)
(5.39286e+07 -6.70733e+06 -6.44867e-05 -158463 4.37734e-05 1.61311e+07)
(2.55235e+07 -3.91059e+06 -1.98959e-05 4.32572e+06 5.76841e-06 8.95475e+06)
(3.10957e+07 -5.64504e+06 2.0398e-05 5.02407e+06 -2.12263e-05 1.08359e+07)
(3.96727e+07 -791486 6.74874e-06 9.86342e+06 3.38189e-05 1.48608e+07)
(4.02323e+07 -643402 4.28977e-05 877892 -4.85139e-05 1.23331e+07)
(2.09633e+07 -2.01038e+06 -2.0363e-05 3.28198e+06 2.5607e-06 7.27358e+06)
(4.28793e+07 -9.3624e+06 -6.94023e-05 108416 -4.07741e-05 1.28963e+07)
(7.07723e+07 6.8655e+06 -0.000217408 3.75158e+06 -3.89629e-05 2.23572e+07)
(1.16932e+07 -2.62976e+06 1.68719e-05 -631950 -1.88659e-06 3.31839e+06)
(8.40823e+06 -3.58823e+06 4.37384e-05 -1.76258e+07 -7.53395e-06 -2.76527e+06)
(2.74938e+07 -6.25479e+06 1.16527e-05 3.66456e+06 -6.27878e-06 9.34752e+06)
(3.95877e+07 -700638 8.34602e-05 1.03079e+07 5.53973e-05 1.49687e+07)
(4.07149e+07 -689079 1.93355e-05 511986 -3.68889e-05 1.23681e+07)
(3.52568e+07 -815457 1.28436e-05 6.86899e+06 5.89603e-06 1.26377e+07)
(3.26603e+07 -6.00534e+06 2.01995e-05 5.81314e+06 -1.13907e-05 1.1542e+07)
(5.27266e+07 -1.76708e+06 -2.5804e-05 17037.4 -4.59364e-05 1.58231e+07)
(4.51685e+07 -1.02811e+06 4.99734e-05 -13140.3 -6.49917e-05 1.35466e+07)
(2.03305e+07 -1.27556e+07 5.96528e-05 -1.29719e+07 -8.32209e-06 2.20758e+06)
(7.1682e+07 953830 -0.000132289 -599799 1.64749e-05 2.13246e+07)
(3.2676e+07 -1.08195e+07 -9.01155e-05 -1.35803e+07 3.31862e-05 5.72872e+06)
(4.89539e+07 164742 -7.27197e-06 2.4209e+06 9.4891e-05 1.54124e+07)
(5.57722e+07 -6.15103e+06 0.000192485 -8.99259e+06 -4.41762e-05 1.40339e+07)
(6.05364e+07 -7.61031e+06 -9.09679e-05 -7.27416e+06 4.55365e-07 1.59787e+07)
(4.67217e+07 -6.47153e+06 4.26525e-05 1.11555e+06 -4.3483e-05 1.43512e+07)
(6.05398e+07 -1.83252e+06 -4.29094e-05 -3.26402e+06 1.27298e-05 1.71827e+07)
(3.98172e+07 -4.20807e+06 6.04818e-06 3.54917e+06 2.95374e-05 1.30099e+07)
(4.13289e+07 -8.35504e+06 -0.000146838 1.4109e+06 -3.34781e-05 1.28219e+07)
(5.11103e+07 -7.28387e+06 5.48306e-05 -1.36723e+06 5.74957e-05 1.49229e+07)
(3.53944e+07 -9.60376e+06 -3.55185e-05 2.52842e+06 3.6597e-05 1.13768e+07)
(5.04158e+07 -8.83809e+06 1.0345e-05 -2.01987e+06 -1.39207e-05 1.45188e+07)
(3.71712e+07 -1.90613e+06 -7.72953e-06 7.24186e+06 1.37237e-05 1.33239e+07)
(3.97535e+07 -1.31458e+06 -8.87378e-06 8.68912e+06 1.23591e-05 1.45328e+07)
(5.5188e+07 -3.67424e+06 1.5751e-05 1.0726e+06 2.39388e-05 1.68782e+07)
(5.31354e+07 6.57896e+06 -1.44666e-05 -1.71784e+06 -3.96985e-07 1.54253e+07)
(3.78699e+07 -4.92659e+06 -7.18075e-05 5.77078e+06 -2.53253e-05 1.30922e+07)
(2.15215e+07 -9.92726e+06 1.49103e-05 -3.44464e+06 -2.5584e-05 5.42305e+06)
(2.81206e+07 -9.97477e+06 0.000175082 -1.47078e+07 -3.44501e-05 4.02387e+06)
(3.1513e+07 -1.08343e+07 -5.68622e-06 -1.62959e+07 8.35419e-06 4.56515e+06)
(1.56632e+07 -9.75858e+06 -7.42595e-06 -3.38042e+06 -6.37219e-06 3.68482e+06)
(5.99674e+07 -2.46157e+06 -0.000120403 -583899 4.27868e-05 1.7815e+07)
(5.62981e+07 -6.24668e+06 0.000114192 -1.54354e+06 5.35404e-05 1.64264e+07)
(3.71898e+07 -6.23823e+06 1.92421e-05 4.79062e+06 8.71834e-06 1.25941e+07)
(3.83899e+07 -4.5214e+06 -2.69249e-05 5.75246e+06 -1.00122e-05 1.32427e+07)
(4.2525e+07 -950388 5.8707e-05 -210553 2.71526e-05 1.26943e+07)
(5.32446e+07 -6.94093e+06 7.38859e-05 -2.77989e+06 2.15043e-05 1.51394e+07)
(3.73224e+07 -850566 2.47765e-05 7.78338e+06 -9.80622e-06 1.35317e+07)
(4.08585e+07 -3.77738e+06 -0.000131285 4.61091e+06 3.69955e-05 1.36408e+07)
(2.14265e+07 -6.89673e+06 7.7844e-05 -8.16106e+06 -3.98152e-06 3.97963e+06)
(4.09838e+07 -2.04534e+06 -9.50662e-05 4.40487e+06 3.92621e-05 1.36166e+07)
(3.98461e+07 -1.11076e+06 1.95457e-05 2.94022e+06 8.99258e-05 1.28359e+07)
(7.08341e+07 8.69752e+06 -0.000120532 2.00949e+06 -2.20443e-05 2.18531e+07)
(3.6986e+07 -1.31637e+07 -1.86816e-05 -6.45185e+06 2.40125e-05 9.16025e+06)
(4.09898e+07 -3.85208e+06 -7.54271e-06 3.07741e+06 -2.71322e-06 1.32202e+07)
(4.07096e+07 -4.81673e+06 -3.26929e-06 4.44733e+06 -1.42973e-05 1.35471e+07)
(2.04977e+07 -1.34206e+07 3.37437e-06 -8.52473e+06 -3.5636e-05 3.59189e+06)
(2.72799e+07 -1.33e+07 -4.05625e-05 -5.95111e+06 -4.17272e-05 6.39863e+06)
(6.68011e+07 3.26361e+06 -0.000117537 -5.66583e+06 2.08067e-05 1.83406e+07)
(5.79543e+07 -3.69658e+06 0.000140673 -1.33095e+07 -0.000239548 1.33934e+07)
(1.43702e+08 -2.72348e+07 -0.000196002 2.09171e+07 0.000199783 4.93857e+07)
(3.9658e+07 -6.77476e+06 0.000102422 4.48e+06 -1.79949e-05 1.32414e+07)
(3.14975e+07 -1.37987e+07 -1.98259e-05 -1.63621e+07 1.50241e-05 4.54061e+06)
(6.42599e+07 2.17463e+06 0.000239522 -4.21187e+06 4.8835e-05 1.80144e+07)
(3.26691e+07 -1.38033e+07 -0.000105867 -1.3628e+07 4.06851e-05 5.71234e+06)
(1.35613e+07 -9.39751e+06 9.52764e-06 -7.32479e+06 -1.61932e-05 1.87096e+06)
(6.04832e+07 -2.90081e+06 0.000111448 -382635 -2.61485e-05 1.80302e+07)
(3.56665e+07 -6.93974e+06 5.34762e-06 5.68573e+06 8.81722e-06 1.24057e+07)
(5.95685e+07 -1.98901e+06 -0.000237047 36882.4 -3.52382e-05 1.78816e+07)
(3.32746e+07 -6.26937e+06 3.33234e-05 4.78415e+06 8.21335e-06 1.14176e+07)
(3.78845e+07 -6.41967e+06 9.86741e-05 5.2172e+06 5.85917e-05 1.29305e+07)
(3.78612e+07 -3.49142e+06 2.43328e-05 6.64055e+06 1.85853e-05 1.33505e+07)
(5.71461e+07 -5.39009e+06 7.49951e-05 -1.13432e+06 8.49547e-05 1.68035e+07)
(3.35759e+07 -790278 -2.39592e-05 6.38017e+06 -2.09165e-07 1.19868e+07)
(4.70275e+07 -1.18276e+06 4.41354e-06 97589.5 -1.91779e-06 1.41375e+07)
(3.59023e+07 -1.36495e+07 -1.18395e-05 -8.50316e+06 -4.40106e-05 8.21975e+06)
(2.97569e+07 -1.17578e+07 -5.66521e-05 -4.31495e+06 -2.75182e-05 7.63258e+06)
(1.49188e+07 -1.25188e+07 4.02122e-05 -1.67237e+07 -1.19314e-05 -541485)
(3.18773e+07 -8.26829e+06 -1.27969e-05 2.96979e+06 3.19106e-05 1.04541e+07)
(4.73109e+06 -6.79736e+06 2.64579e-05 -1.74493e+07 -1.52817e-05 -3.81547e+06)
(4.23717e+07 -1.13043e+07 -4.81986e-05 -4.3281e+06 3.4742e-05 1.14131e+07)
(4.70405e+07 -9.33202e+06 -7.23446e-05 -1.66773e+06 -3.66379e-05 1.36118e+07)
(1.5294e+07 -1.01572e+07 2.21611e-05 -1.05149e+07 -1.02165e-06 1.43372e+06)
(4.06105e+07 -1.14167e+07 -0.000121174 -1.28823e+06 3.29446e-05 1.17967e+07)
(2.84824e+07 -1.6228e+06 -1.68835e-05 6.58951e+06 1.44421e-05 1.05216e+07)
(3.67774e+07 -5.36558e+06 -6.78377e-05 5.6057e+06 3.5536e-05 1.27149e+07)
(6.20126e+07 3.28886e+06 -0.000180511 -741799 -5.5969e-05 1.83812e+07)
(4.08505e+07 -3.13583e+06 -8.89012e-05 1.0298e+06 -8.109e-05 1.25641e+07)
(3.36282e+07 -4.99787e+06 9.6444e-06 5.51621e+06 -4.03359e-05 1.17433e+07)
(9.04574e+07 1.9385e+06 -0.00012262 1.00711e+07 -0.000177067 3.01585e+07)
(6.4612e+07 -2.0247e+06 -0.000283681 258725 0.000114194 1.94612e+07)
(6.79699e+06 -6.16364e+06 6.00148e-06 -1.55193e+07 -1.01107e-05 -2.6167e+06)
(3.90059e+07 -5.78913e+06 -4.3318e-05 3.70756e+06 2.30353e-05 1.2814e+07)
(5.82579e+07 -1.8191e+06 2.86646e-05 1.28821e+06 -6.85324e-05 1.78638e+07)
(6.40578e+07 4.11383e+06 -5.62201e-05 1.32982e+06 -4.09478e-05 1.96163e+07)
(3.81906e+07 -6.19535e+06 3.69429e-05 4.78196e+06 -3.15326e-06 1.28918e+07)
(4.04623e+07 -169186 1.97558e-05 1.18824e+07 2.00447e-05 1.57034e+07)
(3.99021e+07 -100297 -9.56967e-05 -133674 -2.15131e-05 1.19305e+07)
(2.75843e+07 -1.24808e+06 -3.16187e-05 5.70268e+06 1.76605e-05 9.98609e+06)
(3.34187e+07 -1.18753e+07 -7.72019e-05 -862665 5.9455e-05 9.76683e+06)
(5.32338e+07 -5.7987e+06 -0.000131846 525690 -1.3769e-05 1.61278e+07)
(5.58352e+07 -1.55858e+06 -1.01581e-05 -58453.2 -6.16144e-05 1.6733e+07)
(5.4193e+07 4.23336e+06 -0.000155601 -83291 2.91317e-05 1.62329e+07)
(-125725 -1.64422e+06 2.73219e-06 -1.31663e+07 -2.81173e-06 -3.9876e+06)
(5.304e+07 7.7968e+06 -0.000136734 2.99447e+06 -1.72805e-06 1.68103e+07)
(4.03965e+07 -9.26325e+06 -0.000101231 2.06044e+06 -1.66252e-05 1.27371e+07)
(3.98781e+07 -60813.8 4.70777e-05 1.07721e+07 2.30887e-05 1.51951e+07)
(1.03826e+07 -1.62139e+06 5.1608e-06 -3.54833e+06 -5.40582e-06 2.05029e+06)
(3.94321e+07 -771171 7.20411e-05 9.90271e+06 4.26488e-05 1.48004e+07)
(3.98859e+07 -947647 -4.89225e-05 9.29172e+06 -2.8303e-05 1.47533e+07)
(4.03641e+07 -918987 0.000118885 2.78694e+06 -1.3893e-05 1.29453e+07)
(4.64085e+07 -7.81788e+06 2.19976e-05 1.87218e+06 -7.88394e-05 1.44842e+07)
(9.9334e+07 -3.03118e+07 -0.000326269 2.11732e+07 6.77793e-06 3.61522e+07)
(4.02275e+07 -79804.3 3.31132e-05 -107597 1.64617e-05 1.2036e+07)
(3.38343e+07 -5.1494e+06 3.36269e-05 5.83654e+06 -2.41489e-05 1.19012e+07)
(5.6082e+07 4.20417e+06 -0.000145711 -2.09091e+06 4.57467e-05 1.61973e+07)
(6.27619e+06 -5.50132e+06 6.30505e-07 -5.8577e+06 -1.22472e-05 125546)
(4.06275e+07 -434094 -1.76308e-05 749504 -5.51371e-05 1.24131e+07)
(3.22275e+07 -8.02526e+06 1.90319e-05 4.19855e+06 1.7973e-05 1.09278e+07)
(3.63833e+07 -1.08496e+07 -0.000100414 219696 6.27966e-05 1.09809e+07)
(4.85407e+07 3.11315e+06 -0.000160871 1.32407e+06 7.07801e-05 1.49594e+07)
(3.80447e+07 -2.53555e+06 6.39846e-05 7.17915e+06 -3.50281e-06 1.35672e+07)
(7.02683e+06 -2.72555e+06 4.06676e-05 -2.03201e+07 -2.19509e-06 -3.98799e+06)
(7.06579e+06 2.52132e+06 2.78123e-05 -2.87055e+07 5.58114e-06 -6.49193e+06)
(1.96635e+06 -3.0388e+06 8.5235e-06 -1.76686e+07 9.04892e-07 -4.71069e+06)
(4.03579e+07 -2.75621e+06 -7.92101e-05 1.75594e+06 -1.78424e-05 1.26341e+07)
(1.11762e+08 -5.92827e+06 0.000382003 1.36542e+07 -0.000278637 3.7625e+07)
(9.00981e+06 -3.90197e+06 4.75448e-05 -2.39289e+07 -9.67067e-06 -4.47572e+06)
(4.24959e+07 -1.08331e+07 -6.09255e-05 -2.8522e+06 7.06545e-06 1.18931e+07)
(7.58666e+07 2.54968e+06 -0.000101926 2.60122e+06 0.000108371 2.35403e+07)
(3.42915e+07 2.11074e+06 2.59835e-05 1.27738e+06 8.01325e-05 1.06707e+07)
(3.97861e+07 -2.59898e+06 7.91868e-05 7.66909e+06 -4.0599e-05 1.42366e+07)
(3.92654e+07 -4.99408e+06 -4.52796e-05 4.61417e+06 2.93564e-05 1.31639e+07)
(1.01245e+08 -1.00598e+07 0.000152971 -5.27511e+06 4.30495e-05 2.87909e+07)
(5.96405e+07 9.14085e+06 -8.42425e-06 1.69695e+06 -4.45324e-05 1.84012e+07)
(5.92133e+07 6.33514e+06 -0.000151374 847337 -5.44103e-06 1.80182e+07)
(5.30195e+07 -2.08933e+06 5.4924e-05 -799465 7.38508e-07 1.5666e+07)
(3.51686e+07 -5.63172e+06 -2.10635e-05 5.15188e+06 2.42314e-05 1.20961e+07)
(7.22922e+07 -1.34544e+06 -7.67699e-05 -8.57118e+06 -0.000105008 1.91163e+07)
(3.5545e+07 -731828 -1.02983e-05 7.01621e+06 -6.45356e-06 1.27684e+07)
(4.46085e+07 -1.04023e+06 6.06219e-05 216678 -1.46563e-05 1.34475e+07)