/*--------------------------------*- C++ -*----------------------------------*\
| =========                 |                                                 |
| \\      /  F ield         | OpenFOAM: The Open Source CFD Toolbox           |
|  \\    /   O peration     | Version:  v2012                                 |
|   \\  /    A nd           | Website:  www.openfoam.com                      |
|    \\/     M anipulation  |                                                 |
\*---------------------------------------------------------------------------*/
FoamFile
{
    version     2.0;
    format      ascii;
    class       volScalarField;
    location    "3";
    object      sigmaHyd;
}
// * * * * * * * * * * * * * * * * * * * * * * * * * * * * * * * * * * * * * //

dimensions      [1 -1 -2 0 0 0 0];


internalField   nonuniform List<scalar> 
470
(
8.48383e+06
1.2138e+07
1.96997e+07
2.0478e+07
1.42587e+07
1.78965e+07
1.71032e+07
9.8284e+06
2.38232e+07
2.0438e+07
2.39695e+07
2.66685e+07
2.61218e+07
1.96182e+07
2.82401e+07
2.211e+07
1.885e+07
1.75735e+07
1.72389e+07
1.29077e+07
2.35001e+07
1.97386e+07
2.03087e+07
1.86137e+07
2.16769e+07
1.72358e+07
2.10107e+07
2.05832e+07
1.84053e+07
1.86959e+07
1.24267e+07
3.09478e+07
1.96847e+07
3.36892e+07
1.93298e+07
1.84625e+07
2.88853e+07
1.2558e+07
1.55629e+07
1.20216e+07
1.86399e+07
1.59849e+07
2.83471e+07
1.5251e+07
2.24445e+07
2.52558e+07
1.40931e+07
1.92932e+07
1.88859e+07
2.28373e+07
2.89944e+07
3.1396e+07
1.82941e+07
1.61014e+07
2.03984e+07
1.96131e+07
2.09855e+07
1.40365e+07
1.82088e+07
2.18268e+07
1.78605e+07
2.37695e+07
2.58704e+07
2.80123e+07
1.39859e+07
3.51982e+07
1.33216e+07
1.9201e+07
3.74136e+06
2.16621e+07
8.14765e+06
1.97079e+07
3.12384e+07
1.7852e+07
2.90661e+07
2.03373e+07
1.93911e+07
1.92449e+07
1.8199e+07
3.53616e+07
1.89774e+07
3.79875e+07
2.09087e+07
1.65782e+06
2.2899e+07
1.96307e+07
2.57319e+07
2.74763e+07
2.86392e+07
2.56468e+07
2.96724e+07
2.71633e+07
1.7766e+07
1.86409e+07
2.74996e+07
2.90282e+07
1.40982e+07
1.83769e+07
1.34434e+07
1.91174e+07
1.95354e+07
2.09968e+07
3.22931e+07
2.00757e+07
2.12536e+07
1.7834e+07
1.92506e+07
1.51249e+07
-9.83508e+06
4.02736e+07
2.69443e+07
4.07345e+07
2.09019e+07
1.8143e+07
8.76207e+06
1.97702e+07
2.00419e+07
2.79991e+07
1.60181e+07
1.28825e+07
1.64681e+07
2.04346e+07
1.83521e+07
2.20458e+07
1.78966e+07
1.97513e+07
2.06049e+07
1.93236e+07
2.92059e+07
1.90092e+07
1.27175e+07
1.13331e+07
1.75234e+07
1.92905e+07
1.95767e+07
1.94218e+07
1.87504e+07
2.47519e+07
2.77653e+07
1.75829e+07
1.83639e+07
2.37811e+07
1.97755e+07
1.84509e+07
1.94295e+07
1.3012e+07
2.1387e+07
2.26686e+07
1.8656e+07
2.39658e+07
1.71142e+07
2.05183e+07
9.54221e+06
1.96984e+07
3.69814e+07
2.15116e+07
-2.20077e+07
1.653e+07
1.84955e+07
1.9173e+07
4.53107e+07
2.55099e+07
1.97377e+07
2.99012e+07
2.96178e+07
1.28071e+07
9.64763e+06
2.81239e+07
1.77688e+07
1.46527e+07
1.55851e+07
1.9056e+07
1.91146e+07
1.9086e+07
1.90978e+07
1.80972e+07
1.82826e+07
36017.3
1.99242e+07
1.20853e+07
1.66839e+07
2.41045e+07
1.8795e+07
2.0295e+07
2.23299e+07
2.63147e+07
1.96386e+07
-277311
2.40712e+07
1.8983e+07
1.9249e+07
1.67131e+07
2.10095e+07
1.91107e+07
7.02581e+06
1.66186e+07
1.96921e+07
1.95937e+07
1.9593e+07
7.96116e+07
1.10497e+07
6.3542e+06
5.31887e+07
1.16771e+07
2.10497e+07
2.15654e+07
1.59762e+07
1.57822e+07
1.62141e+07
-3.02432e+07
2.00733e+07
1.93325e+07
-1.52658e+07
1.75423e+07
2.52127e+07
2.43275e+07
1.93509e+07
1.50296e+07
1.83142e+07
1.715e+07
-1.04969e+07
1.04792e+07
1.84788e+07
1.86034e+07
1.63924e+07
1.79959e+07
2.12822e+07
-2.50234e+06
3.3306e+07
2.69433e+07
2.07922e+07
-673174
2.17146e+07
1.78182e+07
2.2342e+07
1.86277e+07
1.22025e+07
1.80248e+07
1.85791e+07
2.09269e+07
2.14382e+07
2.10359e+07
1.85435e+07
4.25729e+07
4.02696e+07
2.99951e+07
2.87364e+07
1.88703e+07
1.50749e+07
1.93255e+07
1.8927e+07
2.06252e+07
2.27896e+07
1.74918e+07
2.33004e+07
1.29346e+07
1.56519e+07
2.14657e+07
1.78144e+07
1.05063e+07
1.8628e+07
3.22937e+07
4.79322e+06
-3.99428e+06
1.3502e+07
2.16214e+07
1.7865e+07
1.82545e+07
1.66718e+07
2.28556e+07
1.95673e+07
3.18872e+06
3.08023e+07
8.27482e+06
2.22624e+07
2.02711e+07
2.30803e+07
2.07295e+07
2.48195e+07
1.87921e+07
1.85206e+07
2.15553e+07
1.64332e+07
2.09716e+07
1.92457e+07
2.09918e+07
2.43796e+07
2.2281e+07
1.8911e+07
7.8333e+06
5.81225e+06
6.59411e+06
5.32252e+06
2.57328e+07
2.3727e+07
1.81915e+07
1.91284e+07
1.83363e+07
2.1868e+07
1.95458e+07
1.97034e+07
5.74836e+06
1.96684e+07
1.85407e+07
3.15656e+07
1.32315e+07
1.90958e+07
1.9568e+07
5.18829e+06
9.24246e+06
2.64919e+07
1.93461e+07
7.13349e+07
1.91265e+07
6.55866e+06
2.60208e+07
8.25116e+06
2.7025e+06
2.60436e+07
1.79193e+07
2.5829e+07
1.64921e+07
1.86774e+07
1.92841e+07
2.42718e+07
1.73143e+07
2.04209e+07
1.1873e+07
1.10248e+07
-782144
1.51004e+07
-5.51123e+06
1.64856e+07
1.96615e+07
2.07092e+06
1.70396e+07
1.51978e+07
1.8366e+07
2.65507e+07
1.81481e+07
1.69626e+07
4.35623e+07
2.81106e+07
-3.77968e+06
1.85092e+07
2.58033e+07
2.83347e+07
1.86214e+07
2.26827e+07
1.7233e+07
1.44244e+07
1.41076e+07
2.32958e+07
2.41699e+07
2.34476e+07
-5.75986e+06
2.42816e+07
1.8398e+07
2.19484e+07
2.96152e+06
2.13784e+07
2.13103e+07
1.86988e+07
2.09216e+07
5.22198e+07
1.73853e+07
1.71907e+07
2.33961e+07
181344
1.793e+07
1.57846e+07
1.58613e+07
2.1608e+07
1.9597e+07
-5.76043e+06
-9.37723e+06
-6.80432e+06
1.82493e+07
5.43472e+07
-6.46493e+06
1.71789e+07
3.40027e+07
1.54132e+07
2.05639e+07
1.90145e+07
4.15869e+07
2.65796e+07
2.60263e+07
2.26287e+07
1.74722e+07
2.76125e+07
1.84432e+07
1.94242e+07
3.56288e+07
1.93129e+07
1.80409e+07
2.09427e+07
1.7658e+07
2.7866e+07
2.04695e+07
2.59937e+07
5.49127e+07
1.96455e+07
2.60062e+06
2.54537e+07
2.68324e+07
2.33278e+07
1.96762e+07
2.23876e+07
2.29664e+07
1.74132e+07
1.73799e+07
1.70751e+07
2.12903e+07
2.20254e+07
2.62815e+07
1.92685e+07
5.80056e+06
2.74967e+07
5.98719e+06
1.48336e+07
8.16133e+06
2.01958e+07
1.93468e+07
2.05181e+07
4.31323e+07
2.85762e+07
1.23049e+07
2.34172e+07
2.10857e+07
2.47006e+07
2.0514e+07
2.09728e+07
2.14178e+07
-8.92281e+06
-1.29583e+07
2.11556e+07
1.7396e+07
1.9693e+07
1.95667e+07
1.60574e+07
2.82134e+07
2.03218e+07
1.68692e+07
2.30918e+07
2.16498e+07
1.67943e+07
1.95309e+07
4.19189e+06
1.85263e+07
2.17625e+07
2.66296e+07
2.37827e+07
1.94361e+07
1.90328e+07
6.36033e+06
1.90202e+07
2.51773e+07
1.18475e+07
9.03182e+06
1.98921e+07
1.57342e+07
1.10251e+07
2.5873e+07
2.32994e+07
2.43159e+07
1.70373e+07
1.81713e+07
1.90307e+07
2.18723e+07
)
;

boundaryField
{
    back
    {
        type            empty;
    }
    front
    {
        type            empty;
    }
    down
    {
        type            zeroGradient;
    }
    right
    {
        type            zeroGradient;
    }
    up
    {
        type            zeroGradient;
    }
    left
    {
        type            zeroGradient;
    }
    hole
    {
        type            zeroGradient;
    }
}


// ************************************************************************* //
