/*--------------------------------*- C++ -*----------------------------------*\
| =========                 |                                                 |
| \\      /  F ield         | OpenFOAM: The Open Source CFD Toolbox           |
|  \\    /   O peration     | Version:  v2012                                 |
|   \\  /    A nd           | Website:  www.openfoam.com                      |
|    \\/     M anipulation  |                                                 |
\*---------------------------------------------------------------------------*/
FoamFile
{
    version     2.0;
    format      ascii;
    class       volScalarField;
    location    "3";
    object      sigmaEq;
}
// * * * * * * * * * * * * * * * * * * * * * * * * * * * * * * * * * * * * * //

dimensions      [1 -1 -2 0 0 0 0];


internalField   nonuniform List<scalar> 
470
(
1.8224e+07
1.75477e+07
4.01631e+07
2.83417e+07
3.72869e+07
3.70285e+07
3.45171e+07
3.64429e+07
5.44372e+07
3.98473e+07
5.30851e+07
6.09533e+07
5.98035e+07
2.79144e+07
6.0466e+07
4.76186e+07
3.92967e+07
2.56535e+07
2.37524e+07
2.1122e+07
4.79566e+07
3.18388e+07
4.09781e+07
2.76881e+07
6.2874e+07
3.16796e+07
5.68516e+07
4.29341e+07
3.64125e+07
2.68388e+07
2.05946e+07
6.39652e+07
4.01311e+07
6.90327e+07
3.83074e+07
3.721e+07
5.9776e+07
2.15e+07
2.3836e+07
2.35231e+07
5.33386e+07
2.22885e+07
6.03127e+07
4.71666e+07
4.58319e+07
5.69412e+07
2.77143e+07
5.69773e+07
5.19898e+07
5.72815e+07
6.09074e+07
6.80754e+07
2.7139e+07
2.34715e+07
3.0365e+07
3.15235e+07
4.21674e+07
3.03714e+07
4.57534e+07
4.34776e+07
3.27088e+07
5.85265e+07
5.93686e+07
6.42265e+07
3.81418e+07
5.84987e+07
2.71263e+07
3.30502e+07
3.95693e+07
4.52979e+07
1.4293e+07
3.87772e+07
7.04662e+07
3.82448e+07
6.39954e+07
3.01107e+07
3.70356e+07
3.64238e+07
4.16532e+07
5.70889e+07
4.85642e+07
6.80733e+07
4.14553e+07
3.50949e+07
5.59914e+07
3.15181e+07
6.28442e+07
5.21088e+07
5.97338e+07
6.47954e+07
6.61194e+07
6.01169e+07
3.83999e+07
3.63865e+07
5.86948e+07
5.94205e+07
3.31285e+07
3.55828e+07
3.79292e+07
3.85337e+07
3.10199e+07
5.25155e+07
6.91383e+07
2.92762e+07
2.87514e+07
3.52366e+07
3.46024e+07
3.38433e+07
2.69443e+07
7.13717e+07
5.89208e+07
7.35134e+07
2.95842e+07
3.64861e+07
4.18937e+07
4.20683e+07
2.74164e+07
5.74538e+07
3.34503e+07
1.81106e+07
3.78162e+07
2.94329e+07
2.66689e+07
2.73267e+07
3.4804e+07
4.53363e+07
4.50859e+07
3.15469e+07
5.96431e+07
2.89433e+07
3.08181e+07
3.25119e+07
3.49056e+07
3.08963e+07
3.2148e+07
3.96673e+07
3.88894e+07
5.73368e+07
5.93445e+07
3.58258e+07
3.62576e+07
6.59135e+07
3.27731e+07
3.44038e+07
3.46089e+07
2.19974e+07
2.81194e+07
6.17899e+07
3.20397e+07
6.21339e+07
2.49047e+07
2.73959e+07
4.1257e+07
3.01768e+07
7.91713e+07
4.7491e+07
4.17197e+07
3.07858e+07
3.21351e+07
3.86755e+07
8.35746e+07
5.67933e+07
3.9983e+07
6.38857e+07
5.24311e+07
5.14373e+07
4.95317e+07
5.85756e+07
4.18172e+07
5.20269e+07
5.00217e+07
3.48385e+07
3.55005e+07
3.65932e+07
3.51666e+07
3.30252e+07
2.53939e+07
1.60613e+07
5.97184e+07
4.50429e+07
4.63953e+07
5.72372e+07
3.89207e+07
4.47939e+07
4.53079e+07
5.4995e+07
3.69531e+07
1.10436e+07
4.97407e+07
2.89102e+07
3.6031e+07
3.09366e+07
4.26792e+07
4.10687e+07
2.00482e+07
2.56108e+07
4.15759e+07
3.85154e+07
3.90137e+07
1.32615e+08
1.67749e+07
1.26998e+07
9.37288e+07
5.40653e+07
4.45278e+07
4.55868e+07
2.2843e+07
2.3735e+07
5.74619e+07
5.0267e+07
3.10758e+07
4.09463e+07
2.73844e+07
2.74138e+07
5.60368e+07
5.15422e+07
3.25815e+07
2.76445e+07
2.98948e+07
5.53762e+07
3.02724e+07
2.46923e+07
3.74198e+07
2.83048e+07
5.7441e+07
3.73222e+07
5.41019e+07
1.92037e+07
6.07668e+07
5.65255e+07
5.36645e+07
3.06072e+07
2.73619e+07
3.52379e+07
4.52655e+07
3.58046e+07
3.60791e+07
3.41814e+07
3.37116e+07
2.89984e+07
2.89816e+07
2.82315e+07
3.50865e+07
7.11598e+07
6.12694e+07
4.82853e+07
4.89802e+07
3.35933e+07
2.11588e+07
3.72224e+07
3.63445e+07
4.27088e+07
2.6166e+07
3.58004e+07
4.94437e+07
2.04579e+07
2.56434e+07
2.76854e+07
3.50773e+07
1.6435e+07
4.13388e+07
6.10933e+07
1.18141e+07
2.34596e+07
2.41263e+07
2.7277e+07
3.57996e+07
2.60265e+07
2.66079e+07
4.69507e+07
4.01966e+07
3.63603e+07
6.42131e+07
4.43903e+07
4.1589e+07
5.78523e+07
6.11222e+07
4.21559e+07
5.65199e+07
3.33898e+07
3.84392e+07
4.82033e+07
3.38282e+07
4.88891e+07
2.75976e+07
2.86845e+07
4.86155e+07
4.99225e+07
3.03605e+07
2.78604e+07
4.10047e+07
4.55596e+07
2.37427e+07
5.39359e+07
5.24044e+07
3.12173e+07
3.06296e+07
3.8001e+07
5.09946e+07
2.71656e+07
3.33305e+07
2.83954e+07
3.31431e+07
3.3143e+07
6.31808e+07
4.44104e+07
3.4644e+07
3.37251e+07
3.43191e+07
3.71092e+07
6.41876e+07
6.26866e+07
1.20898e+08
3.38192e+07
4.79404e+07
6.06193e+07
4.68365e+07
2.43653e+07
5.42975e+07
2.97828e+07
5.30282e+07
2.80113e+07
3.15961e+07
2.91004e+07
5.25367e+07
2.49086e+07
4.17713e+07
4.54735e+07
3.62118e+07
3.4946e+07
2.96715e+07
2.26729e+07
4.55731e+07
4.60758e+07
2.84604e+07
4.20654e+07
2.04102e+07
2.97821e+07
5.60018e+07
3.59016e+07
2.69989e+07
7.25396e+07
5.73292e+07
2.21479e+07
3.32866e+07
5.08519e+07
5.63285e+07
3.2033e+07
2.68755e+07
3.5573e+07
2.02014e+07
3.66998e+07
4.79592e+07
4.97474e+07
4.87885e+07
1.19465e+07
4.67587e+07
3.78387e+07
2.71661e+07
1.24623e+07
2.74432e+07
2.83096e+07
3.37053e+07
4.20025e+07
8.89895e+07
3.58412e+07
2.7026e+07
5.20355e+07
1.41853e+07
3.55209e+07
2.89051e+07
3.72504e+07
4.24334e+07
2.85589e+07
2.4295e+07
3.15831e+07
1.80752e+07
3.48039e+07
8.91824e+07
2.94669e+07
4.42411e+07
6.55107e+07
2.96888e+07
2.97317e+07
3.24402e+07
9.58222e+07
5.403e+07
5.31002e+07
4.79013e+07
2.89125e+07
7.12181e+07
2.61626e+07
3.9517e+07
7.02345e+07
3.53668e+07
2.77108e+07
2.76309e+07
3.56019e+07
5.88073e+07
4.31393e+07
5.65013e+07
8.56949e+07
3.92744e+07
2.44072e+07
6.62745e+07
5.022e+07
6.21902e+07
3.83082e+07
2.64889e+07
2.54087e+07
3.55166e+07
3.5753e+07
2.4111e+07
4.30255e+07
3.93694e+07
6.23058e+07
3.07233e+07
3.35705e+07
5.57081e+07
1.82942e+07
4.04516e+07
2.02014e+07
4.18057e+07
2.96179e+07
4.05274e+07
6.90105e+07
5.43873e+07
5.40334e+07
5.97079e+07
4.33087e+07
5.8025e+07
6.1698e+07
4.78991e+07
5.15225e+07
1.75248e+07
2.41006e+07
2.82383e+07
3.60192e+07
3.3976e+07
4.82104e+07
5.83088e+07
5.90423e+07
2.86695e+07
5.56848e+07
4.98309e+07
6.38865e+07
5.94938e+07
3.79007e+07
1.75135e+07
3.40223e+07
4.30228e+07
5.38645e+07
5.05975e+07
3.34425e+07
3.25982e+07
3.08936e+07
5.17962e+07
5.20061e+07
3.30338e+07
2.86064e+07
4.00641e+07
3.97592e+07
2.64737e+07
5.22972e+07
4.9086e+07
5.11183e+07
3.05978e+07
2.92722e+07
4.84267e+07
5.06402e+07
)
;

boundaryField
{
    back
    {
        type            empty;
    }
    front
    {
        type            empty;
    }
    down
    {
        type            calculated;
        value           nonuniform List<scalar> 
15
(
2.22885e+07
1.4293e+07
2.74164e+07
1.81106e+07
1.10436e+07
2.73844e+07
1.6435e+07
1.18141e+07
2.60265e+07
2.71656e+07
2.02014e+07
1.80752e+07
2.76309e+07
2.64889e+07
2.4111e+07
)
;
    }
    right
    {
        type            calculated;
        value           nonuniform List<scalar> 10(3.01107e+07 2.73267e+07 3.4804e+07 3.2148e+07 2.6166e+07 3.58004e+07 2.83096e+07 3.37053e+07 2.54087e+07 3.5753e+07);
    }
    up
    {
        type            calculated;
        value           nonuniform List<scalar> 
20
(
6.39652e+07
4.58319e+07
6.09074e+07
3.03714e+07
3.64861e+07
5.96431e+07
3.9983e+07
6.38857e+07
4.01966e+07
6.42131e+07
3.8001e+07
5.30282e+07
5.60018e+07
5.73292e+07
4.97474e+07
4.87885e+07
2.96888e+07
3.56019e+07
3.55166e+07
4.30255e+07
)
;
    }
    left
    {
        type            calculated;
        value           nonuniform List<scalar> 5(4.21674e+07 5.70889e+07 9.37288e+07 4.89802e+07 7.25396e+07);
    }
    hole
    {
        type            calculated;
        value           nonuniform List<scalar> 8(5.21088e+07 4.17197e+07 1.32615e+08 5.0267e+07 2.83954e+07 1.20898e+08 8.89895e+07 3.15831e+07);
    }
}


// ************************************************************************* //
