/*--------------------------------*- C++ -*----------------------------------*\
| =========                 |                                                 |
| \\      /  F ield         | OpenFOAM: The Open Source CFD Toolbox           |
|  \\    /   O peration     | Version:  v2012                                 |
|   \\  /    A nd           | Website:  www.openfoam.com                      |
|    \\/     M anipulation  |                                                 |
\*---------------------------------------------------------------------------*/
FoamFile
{
    version     2.0;
    format      ascii;
    class       pointScalarField;
    location    "14";
    object      pEpsilonEq;
}
// * * * * * * * * * * * * * * * * * * * * * * * * * * * * * * * * * * * * * //

dimensions      [0 0 0 0 0 0 0];


internalField   nonuniform List<scalar> 
8282
(
0.00158836
0.000581879
0.000881165
0.000402432
0.0111236
0.000283777
0.00207544
0.00139913
0.002003
0.000755287
0.000207583
0.000207583
0.00139913
0.00207544
0.0111236
0.00158836
0.000283777
0.000581879
0.000755287
0.000881165
0.002003
0.000402432
0.00207613
0.00218521
0.00234144
0.002498
0.00261186
0.00265207
0.00260921
0.00248393
0.00229457
0.0020867
0.00192113
0.00182106
0.00174989
0.00169096
0.00163772
0.0015882
0.00154137
0.00149713
0.00145668
0.00132691
0.00129128
0.00124671
0.00119708
0.00114374
0.00108728
0.00102802
0.00096622
0.000902081
0.00083585
0.000767835
0.000698442
0.000628237
0.00055803
0.00048904
0.000423178
0.000363559
0.000315269
0.000286079
0.00142702
0.00127619
0.00114456
0.00102849
0.000925913
0.000835207
0.00075498
0.000684005
0.0006212
0.00056561
0.000516401
0.000472842
0.000434297
0.000400212
0.000370114
0.000343612
0.000320418
0.000300432
0.000283965
0.000262918
0.000236367
0.000221947
0.000216891
0.000218966
0.000226346
0.000237596
0.000251641
0.000267697
0.000285193
0.000303714
0.000322946
0.000342647
0.000362621
0.000382708
0.000402767
0.000422673
0.000442313
0.000461581
0.000480377
0.0004986
0.000516156
0.000532946
0.000548873
0.000563837
0.000577733
0.000590449
0.00060187
0.000611867
0.000620304
0.000627032
0.000631884
0.000634683
0.000635235
0.000633337
0.000628788
0.000621416
0.000611133
0.000597986
0.000579407
0.000581832
0.000584685
0.000588417
0.000593111
0.000598781
0.000605417
0.000612996
0.000621489
0.000630859
0.000641061
0.000652043
0.000663742
0.000676089
0.000689004
0.000702397
0.000716171
0.000730197
0.000744194
0.000763284
0.000769755
0.000776126
0.000782424
0.000788649
0.000794794
0.000800847
0.000806796
0.000812629
0.000818332
0.000823893
0.000829298
0.000834535
0.000839591
0.000844452
0.000849106
0.00085354
0.000857741
0.000861699
0.0008654
0.000868834
0.00087199
0.000874858
0.00087743
0.000879698
0.000881655
0.000883297
0.000884621
0.000885627
0.000886318
0.000886699
0.000886781
0.000886581
0.000886122
0.000885435
0.000884566
0.000883577
0.000882559
0.000881651
0.000880232
0.000878159
0.000877818
0.000880416
0.000886348
0.000895655
0.000908219
0.000923863
0.000942398
0.000963642
0.000987431
0.00101362
0.00104209
0.00107273
0.00110545
0.00114016
0.00117677
0.00121522
0.0012554
0.00129722
0.00134055
0.00138527
0.0014312
0.00147814
0.00152584
0.00157402
0.00162233
0.00167037
0.00171766
0.00176363
0.00180759
0.00184867
0.00188538
0.00192416
0.00196724
0.00201382
0.00204761
0.00205779
0.0020353
0.00198712
0.00196714
0.00193883
0.00189997
0.00184939
0.00178563
0.00170735
0.00161374
0.001505
0.00138285
0.00125058
0.0011127
0.000974265
0.000840332
0.00071565
0.000604657
0.000511544
0.000439968
0.000389811
0.000468694
0.000537585
0.000602551
0.000663926
0.000721998
0.000777017
0.000829207
0.00087877
0.000925896
0.000970762
0.00101354
0.00105438
0.00109345
0.00113089
0.00116684
0.00120144
0.00123481
0.00126708
0.00129838
0.00132882
0.00135852
0.00138759
0.00141615
0.00144432
0.00147222
0.00149998
0.00152775
0.00155566
0.00158391
0.00161269
0.00164223
0.00167282
0.00170481
0.00173866
0.00177494
0.00181433
0.00185778
0.00190687
0.00196376
0.00228354
0.00256145
0.00291036
0.00333088
0.00381908
0.00436592
0.00495782
0.0055783
0.00621043
0.00683917
0.00745214
0.00804016
0.0085971
0.00911808
0.00959927
0.010037
0.0104263
0.010759
0.0110161
0.00136263
0.00133143
0.00130618
0.00128107
0.00125562
0.00123014
0.00120498
0.00118041
0.00115661
0.0011337
0.00111172
0.00109072
0.00107071
0.00105168
0.00103363
0.00101652
0.00100033
0.00098501
0.000970523
0.000956805
0.00094379
0.000931405
0.000919567
0.00090819
0.000897182
0.000886452
0.000875911
0.000865474
0.000855068
0.000844634
0.000834135
0.000823564
0.000812948
0.000802364
0.000791948
0.000781915
0.000772576
0.000764375
0.000757962
0.00149208
0.0015043
0.0015156
0.00152669
0.00153777
0.00154885
0.00155987
0.00157078
0.00158154
0.00159211
0.00160247
0.00161265
0.00162263
0.00163245
0.00164211
0.00165165
0.00166108
0.00167042
0.00167971
0.00168895
0.00169819
0.00170747
0.00171683
0.00172633
0.00173608
0.00174616
0.0017567
0.00176786
0.0017798
0.00179271
0.00180679
0.00182227
0.00183935
0.00185824
0.00187913
0.00190214
0.00192731
0.00195457
0.00198479
0.0111098
0.0109346
0.0106575
0.0102411
0.00965367
0.00885665
0.00780449
0.00646859
0.0048774
0.0031708
0.00174559
0.00129682
0.00120906
0.0011008
0.000971029
0.000826976
0.000674155
0.000517037
0.000359666
8.81353e-05
0.000142995
0.000277282
0.000414908
0.000548601
0.000676674
0.000798361
0.000913148
0.0010206
0.00112031
0.00121188
0.00129495
0.00136914
0.00143412
0.00148957
0.0015352
0.00157089
0.00159724
0.0016213
0.000268159
0.000413233
0.000546464
0.000664344
0.000767887
0.000858736
0.000938478
0.00100851
0.00107002
0.00112403
0.00117139
0.00121284
0.00124902
0.00128045
0.00130755
0.00133059
0.00134946
0.00136313
0.00136754
0.000268159
0.000413233
0.000546464
0.000664344
0.000767887
0.000858736
0.000938478
0.00100851
0.00107002
0.00112403
0.00117139
0.00121284
0.00124902
0.00128045
0.00130755
0.00133059
0.00134946
0.00136313
0.00136754
0.00145668
0.00149713
0.00154137
0.0015882
0.00163772
0.00169096
0.00174989
0.00182106
0.00192113
0.0020867
0.00229457
0.00248393
0.00260921
0.00265207
0.00261186
0.002498
0.00234144
0.00218521
0.00207613
0.00228354
0.00256145
0.00291036
0.00333088
0.00381908
0.00436592
0.00495782
0.0055783
0.00621043
0.00683917
0.00745214
0.00804016
0.0085971
0.00911808
0.00959927
0.010037
0.0104263
0.010759
0.0110161
0.0111098
0.0109346
0.0106575
0.0102411
0.00965367
0.00885665
0.00780449
0.00646859
0.0048774
0.0031708
0.00174559
0.00129682
0.00120906
0.0011008
0.000971029
0.000826976
0.000674155
0.000517037
0.000359666
8.81353e-05
0.000142995
0.000277282
0.000414908
0.000548601
0.000676674
0.000798361
0.000913148
0.0010206
0.00112031
0.00121188
0.00129495
0.00136914
0.00143412
0.00148957
0.0015352
0.00157089
0.00159724
0.0016213
0.00142702
0.00127619
0.00114456
0.00102849
0.000925913
0.000835207
0.00075498
0.000684005
0.0006212
0.00056561
0.000516401
0.000472842
0.000434297
0.000400212
0.000370114
0.000343612
0.000320418
0.000300432
0.000283965
0.000286079
0.000315269
0.000363559
0.000423178
0.00048904
0.00055803
0.000628237
0.000698442
0.000767835
0.00083585
0.000902081
0.00096622
0.00102802
0.00108728
0.00114374
0.00119708
0.00124671
0.00129128
0.00132691
0.000262918
0.000236367
0.000221947
0.000216891
0.000218966
0.000226346
0.000237596
0.000251641
0.000267697
0.000285193
0.000303714
0.000322946
0.000342647
0.000362621
0.000382708
0.000402767
0.000422673
0.000442313
0.000461581
0.000480377
0.0004986
0.000516156
0.000532946
0.000548873
0.000563837
0.000577733
0.000590449
0.00060187
0.000611867
0.000620304
0.000627032
0.000631884
0.000634683
0.000635235
0.000633337
0.000628788
0.000621416
0.000611133
0.000597986
0.000579407
0.000581832
0.000584685
0.000588417
0.000593111
0.000598781
0.000605417
0.000612996
0.000621489
0.000630859
0.000641061
0.000652043
0.000663742
0.000676089
0.000689004
0.000702397
0.000716171
0.000730197
0.000744194
0.000757962
0.000764375
0.000772576
0.000781915
0.000791948
0.000802364
0.000812948
0.000823564
0.000834135
0.000844634
0.000855068
0.000865474
0.000875911
0.000886452
0.000897182
0.00090819
0.000919567
0.000931405
0.00094379
0.000956805
0.000970523
0.00098501
0.00100033
0.00101652
0.00103363
0.00105168
0.00107071
0.00109072
0.00111172
0.0011337
0.00115661
0.00118041
0.00120498
0.00123014
0.00125562
0.00128107
0.00130618
0.00133143
0.00136263
0.000763284
0.000769755
0.000776126
0.000782424
0.000788649
0.000794794
0.000800847
0.000806796
0.000812629
0.000818332
0.000823893
0.000829298
0.000834535
0.000839591
0.000844452
0.000849106
0.00085354
0.000857741
0.000861699
0.0008654
0.000868834
0.00087199
0.000874858
0.00087743
0.000879698
0.000881655
0.000883297
0.000884621
0.000885627
0.000886318
0.000886699
0.000886781
0.000886581
0.000886122
0.000885435
0.000884566
0.000883577
0.000882559
0.000881651
0.000880232
0.000878159
0.000877818
0.000880416
0.000886348
0.000895655
0.000908219
0.000923863
0.000942398
0.000963642
0.000987431
0.00101362
0.00104209
0.00107273
0.00110545
0.00114016
0.00117677
0.00121522
0.0012554
0.00129722
0.00134055
0.00138527
0.0014312
0.00147814
0.00152584
0.00157402
0.00162233
0.00167037
0.00171766
0.00176363
0.00180759
0.00184867
0.00188538
0.00192416
0.00196724
0.00201382
0.00204761
0.00205779
0.0020353
0.00198479
0.00195457
0.00192731
0.00190214
0.00187913
0.00185824
0.00183935
0.00182227
0.00180679
0.00179271
0.0017798
0.00176786
0.0017567
0.00174616
0.00173608
0.00172633
0.00171683
0.00170747
0.00169819
0.00168895
0.00167971
0.00167042
0.00166108
0.00165165
0.00164211
0.00163245
0.00162263
0.00161265
0.00160247
0.00159211
0.00158154
0.00157078
0.00155987
0.00154885
0.00153777
0.00152669
0.0015156
0.0015043
0.00149208
0.00198712
0.00196714
0.00193883
0.00189997
0.00184939
0.00178563
0.00170735
0.00161374
0.001505
0.00138285
0.00125058
0.0011127
0.000974265
0.000840332
0.00071565
0.000604657
0.000511544
0.000439968
0.000389811
0.000468694
0.000537585
0.000602551
0.000663926
0.000721998
0.000777017
0.000829207
0.00087877
0.000925896
0.000970762
0.00101354
0.00105438
0.00109345
0.00113089
0.00116684
0.00120144
0.00123481
0.00126708
0.00129838
0.00132882
0.00135852
0.00138759
0.00141615
0.00144432
0.00147222
0.00149998
0.00152775
0.00155566
0.00158391
0.00161269
0.00164223
0.00167282
0.00170481
0.00173866
0.00177494
0.00181433
0.00185778
0.00190687
0.00196376
0.0108585
0.0105629
0.0102137
0.00981372
0.00936559
0.00887189
0.00833562
0.00776098
0.00715396
0.00652364
0.00588304
0.00524852
0.00463869
0.00407166
0.0035622
0.00312009
0.00274958
0.0024501
0.0022214
0.0106366
0.0103001
0.00992043
0.00949353
0.00901817
0.00849486
0.00792626
0.00731852
0.00668241
0.00603437
0.00539569
0.00478917
0.00423457
0.0037453
0.00332752
0.00298091
0.00270049
0.00247896
0.00230403
0.0103032
0.00990093
0.00945883
0.00897059
0.00843341
0.00784833
0.00722207
0.00656838
0.00590948
0.00527422
0.00469048
0.00417828
0.00374651
0.00339399
0.00311246
0.0028897
0.00271222
0.00256605
0.00244035
0.00981866
0.00932208
0.00878241
0.00819543
0.00756223
0.00689208
0.00620391
0.0055285
0.00490395
0.00436199
0.00391845
0.00357254
0.00331186
0.0031185
0.00297326
0.0028585
0.00276049
0.00266956
0.00257953
0.00914363
0.00851529
0.00783971
0.00712184
0.00637719
0.00563371
0.00493487
0.00432958
0.00384893
0.00349667
0.00325549
0.00309878
0.00299948
0.00293399
0.00288385
0.00283805
0.00278975
0.00273531
0.00267387
0.00823315
0.00743566
0.00659961
0.00575052
0.00492982
0.00419984
0.00362189
0.00321864
0.00297112
0.00283947
0.00278296
0.00276888
0.00277313
0.00277935
0.0027812
0.00277489
0.00275833
0.00273188
0.00269502
0.00704846
0.00607136
0.00509866
0.00418654
0.0034221
0.00287987
0.00256181
0.00241528
0.00237714
0.00239869
0.00244811
0.00250412
0.00255349
0.00259491
0.00262607
0.00264518
0.0026533
0.00264935
0.00263392
0.00559061
0.00448821
0.00348706
0.00270344
0.00221823
0.00199087
0.0019242
0.00194113
0.00199907
0.0020759
0.00215611
0.00222901
0.00229788
0.00235885
0.00240847
0.0024482
0.00247541
0.00249155
0.00249342
0.0039431
0.00286251
0.0021043
0.00173379
0.00162058
0.00161634
0.001651
0.00170322
0.00176538
0.00183021
0.00189261
0.00195987
0.00202791
0.00209087
0.00215047
0.00220056
0.00224343
0.00227368
0.00228752
0.00233064
0.00166477
0.00145003
0.00143345
0.00145858
0.00149542
0.00153832
0.00158458
0.00163153
0.00167832
0.00172671
0.00177517
0.00182542
0.0018777
0.00192527
0.0019729
0.00201395
0.00204298
0.00206621
0.00140546
0.00131877
0.0013235
0.00134246
0.00137228
0.00141045
0.00145388
0.00149982
0.00154632
0.00159228
0.00163681
0.00167968
0.00172112
0.00175941
0.0017953
0.00182698
0.00185322
0.00187853
0.00190185
0.0012536
0.00123612
0.00124004
0.00126015
0.00129225
0.00133264
0.00137809
0.00142604
0.00147457
0.0015223
0.00156824
0.00161163
0.00165166
0.00168768
0.00171924
0.00174631
0.00176978
0.0017903
0.00180782
0.00116471
0.00114597
0.00115343
0.00117877
0.00121603
0.00126078
0.00130971
0.00136033
0.00141082
0.00145988
0.00150653
0.00155003
0.00158984
0.00162552
0.00165689
0.001684
0.00170706
0.00172619
0.00174131
0.0010564
0.00104704
0.00106428
0.00109874
0.00114369
0.00119445
0.00124778
0.00130143
0.00135383
0.00140389
0.00145085
0.00149417
0.00153351
0.00156866
0.00159956
0.00162625
0.00164886
0.00166758
0.00168261
0.000933645
0.000940621
0.000972745
0.00101967
0.0010744
0.0011324
0.0011908
0.00124778
0.00130217
0.0013532
0.00140042
0.00144351
0.00148234
0.00151686
0.00154711
0.00157323
0.00159543
0.00161399
0.00162929
0.000800803
0.000828875
0.00087961
0.000941413
0.00100729
0.00107327
0.00113713
0.00119763
0.0012541
0.00130619
0.00135375
0.00139672
0.00143514
0.00146912
0.00149881
0.00152442
0.00154623
0.00156459
0.00157994
0.000662246
0.000715042
0.000786834
0.000864709
0.000942186
0.00101622
0.00108548
0.00114944
0.00120798
0.00126116
0.00130915
0.00135214
0.00139037
0.00142405
0.00145341
0.00147871
0.00150022
0.00151832
0.0015335
0.000522534
0.000603414
0.000697452
0.000791226
0.000879648
0.000961052
0.00103514
0.00110212
0.00116244
0.00121656
0.00126493
0.00130802
0.0013462
0.00137983
0.00140921
0.00143462
0.00145625
0.00147438
0.00148947
0.000387477
0.000499879
0.000615571
0.000723408
0.00082094
0.000908204
0.000985956
0.00105511
0.00111654
0.00117108
0.00121945
0.00126229
0.0013002
0.00133368
0.0013632
0.0013891
0.00141161
0.00143085
0.00144703
0.000194412
0.00035639
0.000496312
0.000617503
0.000722744
0.000814326
0.000894141
0.00096375
0.00102445
0.0010773
0.0011232
0.0011629
0.00119699
0.00122597
0.00125024
0.00127017
0.00128624
0.00129971
0.00131518
0.000213114
0.000342584
0.000470758
0.00058602
0.000687619
0.000776641
0.000854466
0.000922423
0.000981699
0.00103333
0.00107823
0.00111717
0.00115087
0.00117999
0.00120519
0.00122727
0.00124723
0.00126644
0.00128579
0.000302079
0.000373432
0.000472268
0.00057176
0.000663875
0.000746663
0.000820123
0.000884888
0.000941783
0.000991649
0.0010353
0.00107348
0.00110691
0.00113629
0.00116229
0.00118561
0.00120689
0.00122652
0.00124448
0.000413674
0.000436152
0.000498469
0.000574785
0.000652075
0.000724963
0.000791532
0.00085135
0.000904629
0.000951848
0.000993589
0.00103046
0.00106307
0.001092
0.00111778
0.00114087
0.00116163
0.00118025
0.00119683
0.000529629
0.000515952
0.000543432
0.000593251
0.000651851
0.000711634
0.00076886
0.000821887
0.000870147
0.000913617
0.00095254
0.000987287
0.00101827
0.0010459
0.00107056
0.00109257
0.00111218
0.00112957
0.00114491
0.000643933
0.000602999
0.000600537
0.000624016
0.000661971
0.000706288
0.000752038
0.0007965
0.000838297
0.00087683
0.000911933
0.000943673
0.000972238
0.000997861
0.00102079
0.00104124
0.00105942
0.0010755
0.00108965
0.000754108
0.000691714
0.000664297
0.000663516
0.000680588
0.000708112
0.000740772
0.000775124
0.000809099
0.00084153
0.000871818
0.000899705
0.000925133
0.000948154
0.000968877
0.000987438
0.00100398
0.00101864
0.00103157
0.000858854
0.000778909
0.000730712
0.000708441
0.000705583
0.000715976
0.000734561
0.000757614
0.000782592
0.000807857
0.000832403
0.000855648
0.000877282
0.000897168
0.000915273
0.000931631
0.00094631
0.000959402
0.000971008
0.000957341
0.000862641
0.000796994
0.000756023
0.000734853
0.00072857
0.000732739
0.000743732
0.000758803
0.000775992
0.000793962
0.000811836
0.000829061
0.000845303
0.000860383
0.000874215
0.000886784
0.000898112
0.000908251
0.00104895
0.00094163
0.000861197
0.000804084
0.000766495
0.000744546
0.000734527
0.000733153
0.000737718
0.00074612
0.000756798
0.000768639
0.000780871
0.000792973
0.000804611
0.000815579
0.000825758
0.000835097
0.000843583
0.00113317
0.00101497
0.000921937
0.000850948
0.000798884
0.000762615
0.000739089
0.000725472
0.000719272
0.000718409
0.000721226
0.000726455
0.000733148
0.000740624
0.000748398
0.000756139
0.000763625
0.000770717
0.000777333
0.00120956
0.00108198
0.000978201
0.000895341
0.000830682
0.000781606
0.000745586
0.00072023
0.000703346
0.000693004
0.000687572
0.000685717
0.000686386
0.000688769
0.000692254
0.000696391
0.000700854
0.000705414
0.000709914
0.00127775
0.00114213
0.00102924
0.000936292
0.000860807
0.000800493
0.000753203
0.000716919
0.00068976
0.000670015
0.000656165
0.000646909
0.000641157
0.000638026
0.000636809
0.000636958
0.00063805
0.000639769
0.000641878
0.0013374
0.00119503
0.00107449
0.000973052
0.000888374
0.000818371
0.000761156
0.000714993
0.000678271
0.000649504
0.00062734
0.000610571
0.000598145
0.000589165
0.000582877
0.000578666
0.000576032
0.000574579
0.000573997
0.00138823
0.00124037
0.00111352
0.00100502
0.000912614
0.000834397
0.00076866
0.000713856
0.000668564
0.000631484
0.000601427
0.000577314
0.000558179
0.000543169
0.000531538
0.000522646
0.000515951
0.000510995
0.000507401
0.00143006
0.00127799
0.00114598
0.00103155
0.000932697
0.000847688
0.000774905
0.000712879
0.000660286
0.000615941
0.000578779
0.000547845
0.000522277
0.000501306
0.000484244
0.000470479
0.000459466
0.000450721
0.000443811
0.00146291
0.00130773
0.0011711
0.00105154
0.00094753
0.000857288
0.000779116
0.000711509
0.000653157
0.000602928
0.000559833
0.000523007
0.000491687
0.000465197
0.000442933
0.000424354
0.000408966
0.000396305
0.000385906
0.00148735
0.00132791
0.00118635
0.00106315
0.000955941
0.000862474
0.000780856
0.000709526
0.00064718
0.000592717
0.000545199
0.00050382
0.000467887
0.000436799
0.000410034
0.00038714
0.000367713
0.000351379
0.000337714
0.0014967
0.00132959
0.00118796
0.0010652
0.000957832
0.000863544
0.000780552
0.000707407
0.000642892
0.000585969
0.00053575
0.000491473
0.000452482
0.000418219
0.000388212
0.000362068
0.000339477
0.000320205
0.00030409
0.00025955
0.000294221
0.000346664
0.000408842
0.000476009
0.000545452
0.000615554
0.0006853
0.000754018
0.000821246
0.000886662
0.000950036
0.0010112
0.00107005
0.00112648
0.00118037
0.00123155
0.0012796
0.00132336
0.000239436
0.00027701
0.000331239
0.000394502
0.000462234
0.000531866
0.000601896
0.000671382
0.000739703
0.000806431
0.000871261
0.000933977
0.000994421
0.00105248
0.00110804
0.00116101
0.0012112
0.00125823
0.0013012
0.000228856
0.000267334
0.000321478
0.000384147
0.00045103
0.000519682
0.000588667
0.000657086
0.000724342
0.000790022
0.000853834
0.000915568
0.000975075
0.00103224
0.00108699
0.00113921
0.00118879
0.00123548
0.00127872
0.000225901
0.000263605
0.000316227
0.000377103
0.000442152
0.000509017
0.000576293
0.000643092
0.000708823
0.000773075
0.000835558
0.000896064
0.000954445
0.0010106
0.00106444
0.0011159
0.0011649
0.00121128
0.0012547
0.000228911
0.000264646
0.000314714
0.000372955
0.000435487
0.000500006
0.00056511
0.000629905
0.000693788
0.000756342
0.00081727
0.00087636
0.000933463
0.000988475
0.00104132
0.00109195
0.0011403
0.00118628
0.0012297
0.000236487
0.000269549
0.000316396
0.000371437
0.000430982
0.000492765
0.000555371
0.000617886
0.000679689
0.000740347
0.000799551
0.000857083
0.000912787
0.000966556
0.00101832
0.00106803
0.00111564
0.00116111
0.00120433
0.000247508
0.000277589
0.000320858
0.000372349
0.000428597
0.000487373
0.000547251
0.000607287
0.000666839
0.000725452
0.000782805
0.000838665
0.000892869
0.000945305
0.000995899
0.00104461
0.0010914
0.00113626
0.00117911
0.000261107
0.000288175
0.000327748
0.000375518
0.000428281
0.000483873
0.00054086
0.000598274
0.000655446
0.000711902
0.000767301
0.000821397
0.000874017
0.00092504
0.000974389
0.00102202
0.00106791
0.00111204
0.00115439
0.000276624
0.000300818
0.00033675
0.000380766
0.00042996
0.000482263
0.000536252
0.000590941
0.000645639
0.000699849
0.000753212
0.000805468
0.00085643
0.000905969
0.000954002
0.00100048
0.00104538
0.00108869
0.00113042
0.000293563
0.000315105
0.000347568
0.000387904
0.00043353
0.000482504
0.000533434
0.000585332
0.000637486
0.000689382
0.000740642
0.000790993
0.000840233
0.000888224
0.000934873
0.000980126
0.00102396
0.00106637
0.00110736
0.000311544
0.000330691
0.000359923
0.00039673
0.000438857
0.000484517
0.000532371
0.00058144
0.000631006
0.000680537
0.000729642
0.000778032
0.000825493
0.000871876
0.000917079
0.00096104
0.00100373
0.00104514
0.00108529
0.000330268
0.000347284
0.000373554
0.000407035
0.000445787
0.000488192
0.00053299
0.000579224
0.000626177
0.00067331
0.00072022
0.000766603
0.000812236
0.000856957
0.000900654
0.000943259
0.000984734
0.00102507
0.00106428
0.000349501
0.000364631
0.000388217
0.000418605
0.000454144
0.000493395
0.000535189
0.000578607
0.000622946
0.000667665
0.000712351
0.000756693
0.000800455
0.000843466
0.000885605
0.000926792
0.000966985
0.00100617
0.00104435
0.000369045
0.000382516
0.000403688
0.000431226
0.000463742
0.00049997
0.00053884
0.000579489
0.000621232
0.000663535
0.000705984
0.000748259
0.000790117
0.000831378
0.00087191
0.000911626
0.000950475
0.000988433
0.00102551
0.000388736
0.000400749
0.00041976
0.000444694
0.000474389
0.000507745
0.000543797
0.000581743
0.000620929
0.000660833
0.000701044
0.00074124
0.00078117
0.000820647
0.000859532
0.000897729
0.000935176
0.000971845
0.00100773
0.000408429
0.000419161
0.000436243
0.00045881
0.000485893
0.000516542
0.000549901
0.00058523
0.000621914
0.000659452
0.000697438
0.000735552
0.000773541
0.00081121
0.000848415
0.000885051
0.00092105
0.000956372
0.000991007
0.000427995
0.0004376
0.000452963
0.000473386
0.000498062
0.00052618
0.00055698
0.000589794
0.000624049
0.000659266
0.000695054
0.000731097
0.000767141
0.000802989
0.000838491
0.000873534
0.000908042
0.000941969
0.000975295
0.000447314
0.000455927
0.000469759
0.000488244
0.000510713
0.000536474
0.000564861
0.000595273
0.000627182
0.000660139
0.000693768
0.000727762
0.000761869
0.000795892
0.000829675
0.000863101
0.000896088
0.00092858
0.000960551
0.000466278
0.000474013
0.00048648
0.000503217
0.000523668
0.000547244
0.000573367
0.000601498
0.000631156
0.000661924
0.000693445
0.000725422
0.000757612
0.000789815
0.000821874
0.00085367
0.000885112
0.00091614
0.000946717
0.00048478
0.000491739
0.000502987
0.000518147
0.000536756
0.000558315
0.000582321
0.000608296
0.000635806
0.000664465
0.000693939
0.000723944
0.000754244
0.000784643
0.000814984
0.000845144
0.000875029
0.000904572
0.000933729
0.000502718
0.000508988
0.000519147
0.000532884
0.000549816
0.000569515
0.000591549
0.000615496
0.000640965
0.000667603
0.000695099
0.000723185
0.000751633
0.000780253
0.00080889
0.000837419
0.000865743
0.00089379
0.000921509
0.000519992
0.00052565
0.000534833
0.000547287
0.000562689
0.000580679
0.000600882
0.000622927
0.000646465
0.000671175
0.000696769
0.000722996
0.000749639
0.000776514
0.000803471
0.000830383
0.000857151
0.000883701
0.000909975
0.000536504
0.000541614
0.000549922
0.000561216
0.000575226
0.000591646
0.000610153
0.00063042
0.000652138
0.000675016
0.000698789
0.000723225
0.000748117
0.000773291
0.000798598
0.000823915
0.000849143
0.000874202
0.000899033
0.000552152
0.000556772
0.000564293
0.000574538
0.000587281
0.000602261
0.000619198
0.000637809
0.000657817
0.000678961
0.000701
0.000723716
0.000746919
0.000770441
0.000794138
0.000817892
0.000841603
0.000865189
0.000888588
0.000566832
0.000571014
0.000577826
0.000587122
0.000598711
0.00061237
0.000627859
0.000644929
0.000663337
0.000682846
0.000703239
0.000724315
0.000745895
0.000767821
0.000789957
0.000812187
0.000834411
0.00085655
0.000878536
0.000580439
0.000584226
0.000590399
0.000598835
0.000609373
0.000621823
0.000635977
0.000651619
0.000668533
0.000686508
0.000705345
0.000724862
0.000744892
0.000765287
0.000785917
0.000806669
0.000827448
0.000848173
0.000868777
0.000592858
0.000596291
0.000601887
0.000609544
0.000619125
0.000630469
0.000643396
0.000657717
0.000673242
0.000689782
0.000707158
0.000725203
0.000743761
0.000762695
0.000781881
0.000801211
0.000820593
0.000839947
0.000859207
0.000603972
0.000607084
0.00061216
0.00061911
0.000627821
0.000638155
0.000649956
0.000663061
0.0006773
0.000692507
0.000708517
0.000725179
0.00074235
0.000759901
0.000777714
0.000795687
0.00081373
0.000831767
0.00084973
0.000613649
0.000616474
0.000621078
0.000627389
0.00063531
0.000644724
0.000655498
0.000667487
0.000680544
0.000694518
0.000709263
0.000724638
0.000740512
0.000756764
0.000773284
0.000789975
0.000806749
0.000823532
0.000840258
0.000621751
0.000624317
0.000628495
0.000634227
0.000641433
0.000650013
0.000659853
0.000670828
0.000682805
0.000695651
0.000709234
0.000723423
0.000738099
0.000753148
0.000768466
0.00078396
0.000799547
0.000815154
0.000830716
0.000628125
0.000630455
0.000634248
0.000639459
0.00064602
0.000653849
0.000662849
0.000672909
0.000683913
0.00069574
0.000708269
0.000721384
0.00073497
0.000748921
0.00076314
0.000777538
0.000792035
0.000806559
0.000821047
0.000632603
0.000634719
0.000638163
0.000642903
0.000648887
0.000656048
0.000664301
0.00067355
0.00068369
0.000694613
0.000706208
0.000718367
0.000730983
0.000743958
0.000757198
0.000770618
0.00078414
0.000797694
0.000811219
0.000635001
0.000636917
0.000640043
0.00064436
0.000649835
0.00065641
0.000664014
0.000672561
0.000681956
0.000692099
0.000702889
0.000714225
0.000726007
0.000738143
0.000750543
0.000763123
0.000775809
0.000788532
0.000801231
0.000635118
0.00063684
0.000639668
0.000643609
0.000648641
0.000654722
0.000661783
0.000669747
0.000678524
0.000688023
0.000698151
0.000708813
0.000719917
0.000731373
0.000743095
0.000755002
0.00076702
0.000779081
0.000791122
0.000632738
0.00063425
0.000636791
0.000640398
0.000645067
0.000650755
0.000657394
0.000664905
0.000673206
0.000682212
0.000691837
0.000701995
0.000712599
0.000723562
0.0007348
0.000746234
0.000757788
0.000769393
0.000780988
0.000627627
0.000628871
0.000631117
0.000634448
0.000638858
0.00064428
0.000650632
0.000657836
0.000665816
0.000674497
0.000683802
0.000693651
0.000703962
0.000714653
0.000725639
0.000736841
0.00074818
0.000759584
0.000770991
0.000619531
0.000620354
0.000622298
0.000625475
0.000629779
0.000635081
0.000641294
0.000648348
0.00065618
0.000664727
0.000673919
0.000683685
0.000693949
0.00070463
0.000715645
0.00072691
0.000738341
0.000749858
0.000761393
0.000608105
0.000608174
0.00061001
0.000613286
0.00061765
0.000622973
0.000629195
0.000636268
0.000644144
0.000652773
0.000662095
0.000672046
0.000682554
0.000693542
0.000704927
0.000716619
0.000728525
0.00074055
0.000752603
0.000592259
0.000591985
0.000594346
0.000597853
0.000602348
0.000607795
0.000614172
0.00062145
0.000629594
0.000638562
0.000648303
0.000658759
0.000669863
0.000681541
0.00069371
0.000706278
0.000719144
0.000732189
0.00074527
0.00140424
0.00142618
0.00144543
0.00146269
0.00147845
0.00149304
0.00150669
0.0015196
0.00153188
0.00154366
0.00155502
0.00156603
0.00157677
0.0015873
0.00159768
0.00160794
0.00161815
0.00162835
0.00163858
0.0016489
0.00165936
0.00167002
0.00168096
0.00169225
0.00170399
0.00171629
0.00172927
0.00174309
0.0017579
0.00177386
0.00179116
0.00181
0.00183056
0.00185302
0.00187755
0.00190422
0.00193297
0.00196354
0.00200546
0.00136716
0.00138691
0.00140555
0.00142298
0.00143923
0.00145446
0.00146878
0.00148234
0.00149526
0.00150765
0.00151959
0.00153119
0.00154251
0.00155364
0.00156463
0.00157555
0.00158647
0.00159744
0.00160852
0.00161978
0.00163128
0.00164309
0.00165529
0.00166796
0.00168121
0.00169513
0.00170983
0.00172546
0.00174214
0.00176004
0.00177932
0.00180016
0.00182278
0.00184739
0.00187427
0.00190374
0.00193621
0.00197764
0.00202999
0.00133873
0.00135602
0.00137286
0.00138909
0.00140466
0.00141956
0.00143382
0.00144752
0.0014607
0.00147346
0.00148585
0.00149795
0.00150983
0.00152156
0.00153321
0.00154483
0.00155649
0.00156826
0.00158019
0.00159236
0.00160483
0.00161768
0.00163098
0.00164482
0.00165928
0.00167447
0.00169047
0.00170742
0.00172544
0.00174465
0.00176523
0.00178734
0.00181121
0.00183709
0.00186535
0.00189649
0.00193183
0.00197481
0.00202472
0.00131181
0.00132773
0.00134334
0.0013586
0.00137344
0.00138786
0.00140186
0.00141547
0.00142873
0.00144167
0.00145436
0.00146685
0.00147918
0.00149143
0.00150365
0.00151589
0.00152822
0.0015407
0.00155339
0.00156636
0.00157967
0.0015934
0.0016076
0.00162237
0.00163779
0.00165393
0.0016709
0.00168879
0.0017077
0.00172776
0.00174909
0.00177184
0.00179615
0.00182223
0.00185026
0.00188049
0.00191302
0.0019503
0.0019951
0.0012851
0.00130034
0.00131529
0.00132996
0.00134434
0.00135841
0.0013722
0.00138572
0.001399
0.00141206
0.00142496
0.00143773
0.00145041
0.00146307
0.00147574
0.00148848
0.00150135
0.00151441
0.0015277
0.00154129
0.00155524
0.00156961
0.00158448
0.00159991
0.00161597
0.00163274
0.00165029
0.00166871
0.00168808
0.00170848
0.00172999
0.00175271
0.0017767
0.00180202
0.00182869
0.00185664
0.00188576
0.00191766
0.00195414
0.00125861
0.00127352
0.00128816
0.00130254
0.00131667
0.00133057
0.00134424
0.00135772
0.00137102
0.00138418
0.00139723
0.00141021
0.00142315
0.0014361
0.0014491
0.0014622
0.00147544
0.00148889
0.00150258
0.00151658
0.00153093
0.0015457
0.00156095
0.00157672
0.00159309
0.00161012
0.00162786
0.00164639
0.00166575
0.00168601
0.00170722
0.00172942
0.00175263
0.00177685
0.00180204
0.00182813
0.00185497
0.00188239
0.0019132
0.00123255
0.00124733
0.00126183
0.00127609
0.00129011
0.00130394
0.00131757
0.00133105
0.00134439
0.00135762
0.00137077
0.00138389
0.00139699
0.00141012
0.00142332
0.00143663
0.00145009
0.00146374
0.00147764
0.00149182
0.00150635
0.00152125