/*--------------------------------*- C++ -*----------------------------------*\
| =========                 |                                                 |
| \\      /  F ield         | OpenFOAM: The Open Source CFD Toolbox           |
|  \\    /   O peration     | Version:  v2012                                 |
|   \\  /    A nd           | Website:  www.openfoam.com                      |
|    \\/     M anipulation  |                                                 |
\*---------------------------------------------------------------------------*/
FoamFile
{
    version     2.0;
    format      ascii;
    class       volScalarField;
    location    "1";
    object      sigmaHyd;
}
// * * * * * * * * * * * * * * * * * * * * * * * * * * * * * * * * * * * * * //

dimensions      [1 -1 -2 0 0 0 0];


internalField   nonuniform List<scalar> 
1896
(
7.02727e+06
6.09046e+06
6.80092e+06
1.05716e+07
6.88095e+06
6.7898e+06
1.05304e+07
6.13347e+06
2.94315e+06
6.02202e+06
7.21579e+06
3.88614e+06
4.45933e+06
3.99366e+06
9.47204e+06
6.80655e+06
6.57637e+06
1.57614e+07
6.88565e+06
6.38238e+06
-6.75297e+06
6.40258e+06
9.49818e+06
9.6769e+06
6.24303e+06
6.23196e+06
4.31013e+06
4.75015e+06
7.10411e+06
7.23755e+06
7.11987e+06
5.91529e+06
2.13976e+06
6.03894e+06
9.48472e+06
7.27322e+06
7.01222e+06
6.30591e+06
1.5137e+07
7.34171e+06
5.83235e+06
1.03666e+07
6.20933e+06
6.88895e+06
4.59833e+06
4.37858e+06
9.68998e+06
7.21458e+06
7.81433e+06
9.20302e+06
6.7598e+06
6.39563e+06
6.31134e+06
6.38627e+06
3.44302e+06
6.09822e+06
5.40039e+06
7.16798e+06
6.39236e+06
7.55474e+06
6.12081e+06
9.16177e+06
9.03915e+06
6.57828e+06
5.49357e+06
5.859e+06
9.1031e+06
4.39974e+06
6.44536e+06
9.42685e+06
2.38442e+06
8.89975e+06
6.38962e+06
6.0258e+06
9.66006e+06
6.18747e+06
6.13827e+06
6.75108e+06
6.68993e+06
6.32749e+06
9.65705e+06
9.59658e+06
5.24106e+06
5.77856e+06
5.7846e+06
6.52904e+06
5.45934e+06
5.29773e+06
4.69704e+06
5.64156e+06
6.01279e+06
2.23431e+07
2.69933e+06
1.33204e+07
9.99639e+06
6.33234e+06
5.99101e+06
7.47622e+06
5.89955e+06
4.87297e+06
5.06144e+06
4.21336e+06
6.56418e+06
3.14427e+06
4.55228e+06
6.02182e+06
6.50529e+06
7.78918e+06
8.27629e+06
2.22656e+07
7.45542e+06
5.92671e+06
7.57627e+06
5.4251e+06
1.88879e+07
5.5573e+06
5.40858e+06
5.85491e+06
6.40822e+06
7.15299e+06
6.89226e+06
2.60407e+06
6.27102e+06
5.45453e+06
5.38622e+06
4.3987e+06
7.54875e+06
6.04947e+06
7.05846e+06
4.90539e+06
4.87157e+06
6.08308e+06
7.77005e+06
1.32511e+07
6.8432e+06
8.97912e+06
9.75624e+06
1.01795e+07
5.86358e+06
7.39032e+06
6.39756e+06
6.92459e+06
7.32517e+06
9.81151e+06
5.96521e+06
6.54533e+06
6.50006e+06
7.13466e+06
9.12516e+06
5.74396e+06
4.629e+06
6.04719e+06
6.41333e+06
6.5486e+06
6.47845e+06
6.58318e+06
5.29805e+06
6.44061e+06
2.00641e+07
6.40319e+06
6.46138e+06
1.01308e+07
2.61196e+06
6.5069e+06
1.36751e+07
5.94902e+06
8.12335e+06
7.23314e+06
7.28453e+06
6.03921e+06
5.98355e+06
5.93635e+06
2.67274e+06
2.86938e+06
1.00019e+07
1.0156e+07
8.23605e+06
6.30944e+06
7.28246e+06
3.82738e+06
2.33019e+06
7.49128e+06
6.56039e+06
8.35734e+06
9.68852e+06
1.41216e+07
5.08845e+06
9.00458e+06
-7.96314e+06
-1.43108e+06
9.2208e+06
7.27877e+06
6.57332e+06
9.81874e+06
7.80441e+06
3.52476e+06
6.25683e+06
6.46701e+06
3.68134e+06
5.29467e+06
5.20728e+06
8.23608e+06
7.21634e+06
6.50217e+06
1.0021e+07
6.49547e+06
7.53438e+06
8.65054e+06
-7.81252e+06
6.14748e+06
9.96045e+06
6.98944e+06
6.34939e+06
6.2988e+06
4.39401e+06
3.95652e+06
7.43823e+06
8.36415e+06
8.18592e+06
7.19119e+06
-1.39658e+06
6.4377e+06
1.01738e+07
8.50846e+06
6.03687e+06
7.23182e+06
1.0082e+07
6.48188e+06
8.91183e+06
5.91872e+06
7.91247e+06
6.28559e+06
6.32913e+06
7.61649e+06
5.81148e+06
6.3097e+06
4.44223e+06
6.87527e+06
1.10129e+07
7.43655e+06
9.71291e+06
7.77757e+06
4.54138e+06
1.13968e+07
6.41624e+06
3.55765e+06
6.44881e+06
3.62765e+06
3.38364e+06
8.4513e+06
3.17174e+06
6.33736e+06
5.96335e+06
7.49128e+06
5.82481e+06
6.39798e+06
1.96083e+06
9.881e+06
8.99721e+06
9.20616e+06
6.98807e+06
-5.92964e+06
-4.81806e+06
4.93022e+06
6.63702e+06
4.83769e+06
7.55145e+06
4.32135e+06
7.59702e+06
6.39813e+06
4.77867e+06
-3.20575e+06
9.59564e+06
3.67633e+06
6.59605e+06
1.72379e+06
8.25823e+06
6.87938e+06
6.33176e+06
7.10902e+06
5.89734e+06
8.63813e+06
1.69109e+06
5.80447e+06
6.45713e+06
7.26993e+06
6.38958e+06
5.70607e+06
6.28963e+06
7.29001e+06
6.3875e+06
6.89194e+06
6.87556e+06
6.44368e+06
1.28723e+07
2.63741e+06
7.07394e+06
5.25614e+06
1.05044e+07
-2.07121e+06
9.41368e+06
6.86081e+06
9.01397e+06
1.01201e+07
6.45616e+06
6.1467e+06
6.08332e+06
1.843e+06
2.18521e+06
6.35149e+06
6.54538e+06
5.71405e+06
3.18121e+06
7.40762e+06
5.92223e+06
7.07892e+06
5.83396e+06
6.37783e+06
6.32603e+06
6.61049e+06
5.91585e+06
8.62721e+06
8.39192e+06
6.05567e+06
1.96214e+06
5.95793e+06
6.19213e+06
2.52793e+06
6.91311e+06
6.18182e+06
-5.13364e+06
6.89572e+06
7.50648e+06
5.83562e+06
6.00502e+06
-6.85993e+06
4.28476e+06
9.34973e+06
6.9247e+06
6.15422e+06
5.99116e+06
-4.23846e+06
6.82872e+06
4.13156e+06
4.8951e+06
6.99371e+06
6.8206e+06
1.41504e+07
5.18669e+06
-6.1637e+06
-105635
6.83811e+06
4.03994e+06
6.44121e+06
6.71476e+06
7.06187e+06
433837
1.31642e+07
5.52932e+06
6.50667e+06
4.0764e+06
1.19021e+07
1.39078e+07
-1.94394e+06
6.23179e+06
6.55202e+06
7.43472e+06
7.36198e+06
6.1785e+06
6.03504e+06
9.49453e+06
3.91776e+06
7.61375e+06
5.80747e+06
6.18987e+06
3.34263e+06
1.7832e+07
5.09043e+06
5.64755e+06
5.3985e+06
5.02018e+06
5.83343e+06
-258287
6.62803e+06
3.10561e+06
6.93031e+06
1.35055e+07
6.23137e+06
7.40253e+06
1.25858e+07
6.05172e+06
6.87337e+06
8.32816e+06
1.54084e+07
6.35411e+06
256541
7.62435e+06
7.90448e+06
6.41345e+06
6.40818e+06
6.26711e+06
5.99937e+06
7.04016e+06
2.15186e+06
7.57865e+06
3.00645e+06
6.37591e+06
9.95117e+06
3.66583e+06
7.46334e+06
5.46408e+06
5.34763e+06
5.20944e+06
8.60177e+06
8.06096e+06
8.19816e+06
6.41067e+06
1.57862e+07
5.63378e+06
6.02781e+06
4.31728e+06
7.65545e+06
5.79302e+06
9.42296e+06
7.28037e+06
5.45607e+06
-844559
7.6514e+06
1.12314e+07
1.17967e+07
-2.13928e+06
3.51536e+06
6.0391e+06
6.40912e+06
6.61956e+06
6.39292e+06
5.98232e+06
1.70759e+07
4.57808e+06
6.42618e+06
4.16874e+06
7.63053e+06
6.42555e+06
1.03158e+07
7.57409e+06
5.80424e+06
6.16181e+06
6.36021e+06
7.07764e+06
6.88393e+06
9.43675e+06
6.45487e+06
6.44158e+06
6.40421e+06
6.40127e+06
5.43158e+06
6.40158e+06
5.87829e+06
-3.832e+06
5.39804e+06
7.57203e+06
6.45567e+06
7.31495e+06
7.29576e+06
6.85426e+06
8.7437e+06
7.76427e+06
7.71694e+06
6.97429e+06
1.65687e+07
6.73364e+06
4.69148e+06
6.50595e+06
6.43339e+06
6.29894e+06
6.00083e+06
6.8937e+06
-4.12215e+06
6.32895e+06
6.21439e+06
6.01378e+06
6.07754e+06
6.06559e+06
6.67091e+06
5.51355e+06
1.03284e+07
4.58025e+06
7.63905e+06
6.28051e+06
7.3485e+06
7.68528e+06
6.3254e+06
7.08994e+06
7.00601e+06
1.22558e+07
1.54043e+07
6.36936e+06
6.47975e+06
4.8877e+06
6.65392e+06
6.17401e+06
6.40602e+06
5.48764e+06
1.40506e+07
6.92739e+06
-2.97739e+06
5.26129e+06
1.17031e+07
3.89234e+06
8.07961e+06
4.1787e+06
4.37698e+06
4.418e+06
6.77432e+06
5.71609e+06
7.76062e+06
4.40234e+06
6.35994e+06
6.65822e+06
6.62307e+06
6.91124e+06
6.12043e+06
8.65363e+06
6.52541e+06
9.39128e+06
4.76304e+06
4.87866e+06
9.54104e+06
6.42069e+06
6.43498e+06
6.80691e+06
6.47842e+06
5.17707e+06
6.87538e+06
6.62953e+06
5.1417e+06
5.97172e+06
5.33387e+06
-3.47712e+06
9.36004e+06
1.64687e+07
-1.15194e+06
6.89588e+06
5.66042e+06
5.57282e+06
5.19174e+06
5.20795e+06
4.77396e+06
5.6899e+06
6.20123e+06
6.39427e+06
8.57837e+06
6.8524e+06
3.06019e+06
5.11389e+06
8.09849e+06
3.6046e+06
8.43608e+06
6.40608e+06
7.78197e+06
8.07515e+06
6.39508e+06
6.33233e+06
8.24255e+06
6.28193e+06
1.27368e+07
4.25852e+06
6.55071e+06
7.52514e+06
5.89158e+06
3.37535e+06
3.29087e+06
305933
1.7514e+07
8.4511e+06
8.90762e+06
6.89649e+06
5.89699e+06
8.19524e+06
6.31493e+06
4.51945e+06
9.15219e+06
6.37925e+06
2.48675e+06
6.70568e+06
6.8394e+06
1.79037e+06
1.12075e+06
-1.85826e+06
7.14577e+06
8.92697e+06
1.08486e+07
5.72811e+06
1.57102e+06
1.1274e+07
4.84609e+06
6.38788e+06
7.50192e+06
8.25599e+06
5.16503e+06
7.84243e+06
8.40339e+06
6.66075e+06
1.37942e+07
8.70145e+06
9.39437e+06
8.95374e+06
8.92752e+06
5.74231e+06
6.92003e+06
6.28575e+06
5.47461e+06
5.95432e+06
1.53902e+07
-183243
6.32446e+06
5.00347e+06
1.2042e+07
6.87793e+06
4.25781e+06
1.76559e+06
8.71673e+06
5.50605e+06
9.39496e+06
-2.13341e+06
6.429e+06
9.37097e+06
9.01674e+06
3.24554e+06
6.42228e+06
3.39619e+06
1.84086e+07
6.7204e+06
8.45348e+06
4.61952e+06
6.68188e+06
6.66488e+06
6.3958e+06
8.68337e+06
1.63678e+06
6.26094e+06
6.23361e+06
9.12595e+06
9.59878e+06
6.26349e+06
2.6728e+06
7.52307e+06
7.09831e+06
8.98219e+06
6.4134e+06
7.25586e+06
5.31785e+06
8.48689e+06
4.02069e+06
8.94389e+06
6.28976e+06
6.05847e+06
5.4929e+06
3.53001e+06
5.6461e+06
6.15632e+06
6.09948e+06
6.4362e+06
4.95896e+06
6.07195e+06
7.3157e+06
6.27091e+06
6.88496e+06
7.03039e+06
6.83675e+06
5.67877e+06
6.06926e+06
7.11118e+06
5.19443e+06
6.36445e+06
1.19801e+07
8.10653e+06
9.76649e+06
3.41143e+06
6.16224e+06
6.01855e+06
6.46851e+06
1.10703e+07
1.17206e+06
2.6346e+06
2.77053e+06
6.37548e+06
6.73635e+06
1.04282e+07
6.64476e+06
6.63017e+06
9.57119e+06
6.51479e+06
9.45185e+06
6.21774e+06
6.13855e+06
6.08321e+06
6.49345e+06
1.01322e+07
6.00494e+06
7.37417e+06
4.35494e+06
6.77484e+06
6.76955e+06
4.42043e+06
6.99308e+06
6.43023e+06
9.73274e+06
4.22344e+06
8.49863e+06
7.25566e+06
5.88769e+06
7.02531e+06
7.00401e+06
8.54608e+06
6.73933e+06
7.8934e+06
9.84886e+06
9.31762e+06
6.29469e+06
6.13267e+06
6.30319e+06
8.92692e+06
3.41443e+06
8.58389e+06
2.84434e+06
7.66211e+06
5.79311e+06
6.16038e+06
8.50289e+06
6.58008e+06
4.66126e+06
-4.54947e+06
4.8349e+06
6.25778e+06
9.01862e+06
6.26785e+06
7.42812e+06
6.77784e+06
2.71827e+06
4.33046e+06
4.45785e+06
6.4346e+06
4.00967e+06
-2.81741e+06
6.83813e+06
4.30127e+06
1.73604e+07
5.3154e+06
6.61241e+06
8.88737e+06
6.2585e+06
8.39405e+06
6.46835e+06
4.97616e+06
6.61981e+06
8.22065e+06
6.26501e+06
9.92434e+06
1.59245e+07
6.25276e+06
8.33747e+06
6.57132e+06
3.95294e+06
-7.43152e+06
7.98147e+06
-7.35278e+06
9.54827e+06
8.64099e+06
1.59733e+06
4.65537e+06
9.19095e+06
8.88042e+06
4.99886e+06
6.32696e+06
6.22075e+06
6.27717e+06
3.65689e+06
9.05077e+06
3.88636e+06
7.67921e+06
7.89198e+06
9.04279e+06
6.24926e+06
5.24384e+06
5.59356e+06
5.64781e+06
6.46256e+06
1.16606e+07
3.88383e+06
9.51554e+06
5.73119e+06
6.57759e+06
2.81298e+06
6.32194e+06
6.27868e+06
7.33044e+06
5.68563e+06
3.2089e+06
6.02624e+06
6.3608e+06
5.9333e+06
-798946
6.59033e+06
-2.61037e+06
7.14214e+06
7.14821e+06
5.36494e+06
5.66619e+06
-1.73317e+06
6.36068e+06
4.88374e+06
7.02708e+06
6.47314e+06
6.41765e+06
1.57779e+07
6.58656e+06
6.01671e+06
6.4717e+06
9.93068e+06
5.82091e+06
2.3603e+06
5.88632e+06
9.25057e+06
5.83779e+06
6.22142e+06
6.50459e+06
6.04081e+06
8.11574e+06
-1.09344e+06
3.91616e+06
4.73826e+06
9.52525e+06
4.99744e+06
6.34917e+06
7.53827e+06
5.71676e+06
6.42595e+06
8.62256e+06
6.02644e+06
5.98807e+06
5.91578e+06
6.50685e+06
6.19331e+06
7.74335e+06
6.49056e+06
4.28311e+06
6.99789e+06
9.1061e+06
-562200
6.44402e+06
6.42725e+06
6.84473e+06
3.6836e+06
6.80502e+06
1.05381e+06
1.4619e+07
-4.01637e+06
6.72043e+06
3.01596e+06
6.41402e+06
8.80145e+06
9.79528e+06
9.82007e+06
6.38701e+06
6.50591e+06
6.65939e+06
6.48166e+06
5.93833e+06
6.24649e+06
6.4421e+06
8.67701e+06
6.79387e+06
7.9274e+06
1.92016e+06
2.44215e+06
5.5669e+06
1.12944e+07
6.21732e+06
9.05783e+06
6.95504e+06
7.43227e+06
6.81002e+06
6.38213e+06
6.19732e+06
6.02153e+06
1.04267e+07
-1.23692e+06
1.03279e+07
7.06506e+06
6.99529e+06
1.07712e+07
5.96138e+06
7.55317e+06
5.88512e+06
5.84445e+06
7.45322e+06
-454097
5.83737e+06
6.8976e+06
-256711
156872
2.77472e+06
5.6526e+06
8.66502e+06
-1.17725e+06
5.70756e+06
6.48711e+06
7.52077e+06
9.25693e+06
5.16046e+06
6.53732e+06
7.62019e+06
8.2173e+06
1.22418e+07
7.82553e+06
7.95566e+06
6.58418e+06
8.24504e+06
4.07053e+06
6.43229e+06
8.94346e+06
7.52427e+06
6.16203e+06
6.73702e+06
6.64769e+06
2.58816e+06
1.29795e+06
6.13457e+06
6.65541e+06
-1.66316e+06
1.0057e+07
6.52394e+06
7.38942e+06
5.97505e+06
5.91574e+06
7.10099e+06
7.01633e+06
7.87985e+06
9.30858e+06
6.78845e+06
8.53468e+06
7.8107e+06
5.86262e+06
4.75359e+06
5.80055e+06
3.38109e+06
7.4276e+06
7.14884e+06
6.08289e+06
1.99134e+07
5.40492e+06
6.90211e+06
5.36366e+06
6.60686e+06
8.60439e+06
4.23184e+06
7.44905e+06
4.36312e+06
6.35602e+06
6.64563e+06
7.47474e+06
6.46716e+06
1.21509e+07
8.89391e+06
6.74808e+06
1.00764e+07
6.51224e+06
6.60979e+06
8.97153e+06
7.21929e+06
6.74282e+06
7.65894e+06
5.483e+06
-640708
8.55256e+06
6.37788e+06
4.07994e+06
5.52589e+06
5.69266e+06
-5.39944e+06
7.35922e+06
1.39971e+07
6.85875e+06
7.99717e+06
1.18508e+07
-3.28514e+06
6.47025e+06
9.1338e+06
1.10302e+07
1.67625e+06
4.06194e+06
7.27777e+06
7.37278e+06
6.39346e+06
7.63212e+06
7.163e+06
6.46049e+06
4.67293e+06
5.04614e+06
1.03897e+07
4.65607e+06
5.21448e+06
4.90837e+06
6.773e+06
1.35834e+06
1.04784e+07
-3.33559e+06
1.27911e+07
6.38066e+06
7.11017e+06
7.03456e+06
1.01698e+07
6.69164e+06
5.99342e+06
7.38438e+06
7.05726e+06
7.49342e+06
160339
1.30275e+07
5.76887e+06
-77071.6
5.92854e+06
4.76666e+06
1.16208e+07
5.65001e+06
5.56529e+06
4.9167e+06
4.69603e+06
476681
8.82592e+06
5.12597e+06
9.08234e+06
5.95294e+06
6.81678e+06
7.05759e+06
1.01579e+07
9.08663e+06
7.39719e+06
5.89976e+06
2.01941e+06
8.5467e+06
1.55768e+06
6.98034e+06
6.32592e+06
6.3253e+06
7.87964e+06
1.84265e+07
7.41251e+06
5.87692e+06
5.0758e+06
5.59631e+06
6.5083e+06
8.88049e+06
6.29329e+06
6.29783e+06
3.59603e+06
2.14055e+06
3.25263e+06
1.72556e+07
6.40266e+06
439830
7.06096e+06
1.77768e+07
6.43854e+06
6.16138e+06
6.36998e+06
7.3345e+06
6.44588e+06
6.35233e+06
8.55737e+06
9.66759e+06
7.97045e+06
3.89209e+06
7.17178e+06
4.17746e+06
3.84597e+06
6.0048e+06
5.72778e+06
5.63411e+06
6.7409e+06
6.80913e+06
6.10134e+06
7.48836e+06
6.63059e+06
1.50417e+07
6.70896e+06
-811882
6.1164e+06
7.63669e+06
5.54638e+06
5.85178e+06
6.93491e+06
880525
221915
6.61061e+06
6.69142e+06
1.32005e+07
9.11906e+06
6.74105e+06
9.25667e+06
7.53522e+06
6.15446e+06
6.17652e+06
1.01486e+07
5.97489e+06
6.54534e+06
7.94797e+06
1.03086e+07
1.03998e+07
606651
6.25929e+06
6.268e+06
5.94911e+06
5.8683e+06
5.80914e+06
-869957
1.10846e+07
6.39955e+06
4.64675e+06
3.73822e+06
6.2271e+06
5.85016e+06
7.08682e+06
7.08568e+06
2.05425e+07
6.76455e+06
6.71987e+06
1.03282e+06
8.79392e+06
4.67267e+06
8.33114e+06
8.28509e+06
8.77792e+06
5.88369e+06
-4.37494e+06
4.10759e+06
-2.60685e+06
6.39617e+06
-1.13017e+06
5.85772e+06
8.09609e+06
8.12702e+06
4.66926e+06
4.75979e+06
6.41761e+06
4.57551e+06
-3.42507e+06
9.87965e+06
5.93535e+06
6.31924e+06
3.60736e+06
6.80836e+06
1.14912e+06
754374
7.56537e+06
6.60517e+06
6.1378e+06
7.95764e+06
5.81961e+06
6.63217e+06
6.10592e+06
9.19311e+06
9.45641e+06
1.00605e+07
1.03023e+07
-1.26839e+06
7.95626e+06
5.70399e+06
6.50598e+06
4.10807e+06
8.23297e+06
6.17442e+06
7.17758e+06
6.24728e+06
5.1012e+06
1.57124e+06
2.91565e+06
6.72429e+06
6.22818e+06
6.5512e+06
6.48718e+06
6.78098e+06
6.66818e+06
5.73648e+06
6.36314e+06
5.70018e+06
7.26575e+06
5.46105e+06
5.41202e+06
7.81828e+06
5.37456e+06
5.52367e+06
7.91464e+06
7.45975e+06
7.78463e+06
1.06795e+07
6.38197e+06
6.35532e+06
9.97009e+06
5.74569e+06
5.6883e+06
8.72417e+06
7.04577e+06
5.87239e+06
1.02754e+07
3.73087e+06
-1.6538e+06
6.32724e+06
7.2602e+06
1.22823e+06
573066
-5.12786e+06
4.83139e+06
3.14343e+06
7.52122e+06
6.55745e+06
6.24752e+06
1.66346e+06
1.59563e+06
5.94527e+06
5.94561e+06
5.04696e+06
781827
8.10102e+06
6.24419e+06
6.36878e+06
7.10108e+06
6.37856e+06
6.77239e+06
6.16134e+06
3.16247e+06
3.24181e+06
6.73213e+06
6.55252e+06
3.32829e+06
-2.80152e+06
6.02341e+06
6.16046e+06
1.98435e+07
6.37744e+06
1.70381e+06
9.37613e+06
6.6798e+06
9.54149e+06
9.77129e+06
1.78295e+06
6.29435e+06
-2.3536e+06
6.67017e+06
6.45476e+06
2.17153e+06
2.37902e+06
5.95301e+06
3.18766e+06
3.06883e+06
1.10545e+06
2.77172e+06
6.48598e+06
6.30189e+06
1.50273e+07
6.41614e+06
2.03944e+07
1.21769e+07
9.6035e+06
7.9956e+06
6.59456e+06
6.34441e+06
6.40572e+06
6.15474e+06
6.3696e+06
-2.06726e+06
5.48662e+06
9.72258e+06
7.72108e+06
9.21798e+06
9.34022e+06
2.51514e+06
8.46396e+06
8.64286e+06
9.16631e+06
-242564
4.57081e+06
7.90162e+06
6.10262e+06
14466.2
8.02458e+06
1.06653e+06
6.25024e+06
6.21929e+06
3.81794e+06
3.93875e+06
4.01671e+06
-2.94776e+06
4.39611e+06
5.66715e+06
2.12631e+07
8.24777e+06
8.38545e+06
9.87119e+06
5.10271e+06
4.92257e+06
5.0374e+06
6.24246e+06
9.37853e+06
-4.42764e+06
4.67785e+06
1.32913e+06
3.68216e+06
6.86539e+06
6.93636e+06
1.82758e+07
6.34553e+06
8.12826e+06
6.52986e+06
6.41249e+06
6.5193e+06
2.66638e+06
-1.92278e+06
-6.19741e+06
5.86743e+06
1.20727e+07
8.33455e+06
5.21011e+06
2.15059e+07
-406917
8.01108e+06
5.19937e+06
5.21985e+06
3.42291e+06
-6.58802e+06
6.27963e+06
7.63778e+06
7.05627e+06
7.53652e+06
5.86175e+06
2.73112e+06
9.06788e+06
1.47461e+07
6.36932e+06
2.92132e+06
7.08221e+06
7.39202e+06
6.02911e+06
6.15536e+06
6.01681e+06
5.87003e+06
4.72536e+06
6.27701e+06
6.64024e+06
6.50775e+06
9.03593e+06
6.6367e+06
-2.43977e+06
6.29161e+06
6.27088e+06
6.20158e+06
1.05838e+07
1.97923e+07
4.98738e+06
5.10955e+06
6.0756e+06
-387598
6.20653e+06
6.12301e+06
7.27449e+06
6.88248e+06
6.26031e+06
756337
6.66228e+06
8.56186e+06
8.65444e+06
1.91235e+06
2.34337e+06
354328
6.77205e+06
3.92667e+06
7.90582e+06
7.98011e+06
8.55818e+06
6.3809e+06
954541
6.77073e+06
6.55534e+06
9.52002e+06
6.58781e+06
6.33142e+06
5.35274e+06
5.32478e+06
2.06982e+07
956075
6.43073e+06
5.09377e+06
6.76902e+06
6.17737e+06
9.32477e+06
6.66117e+06
1.03426e+07
6.22736e+06
7.32139e+06
7.21235e+06
6.18333e+06
1.23809e+06
6.26854e+06
3.78367e+06
6.51758e+06
6.4761e+06
8.77224e+06
8.32773e+06
-4.34644e+06
7.40745e+06
8.31428e+06
8.01928e+06
9.7852e+06
6.61401e+06
6.59163e+06
7.66969e+06
7.6956e+06
5.78701e+06
5.78679e+06
6.36284e+06
8.65875e+06
9.64628e+06
5.028e+06
4.55957e+06
1.02328e+07
6.43077e+06
8.17816e+06
6.75287e+06
6.33677e+06
9.09655e+06
6.61666e+06
6.63952e+06
9.19431e+06
6.03612e+06
4.94245e+06
2.83528e+06
8.86916e+06
6.94446e+06
2.80244e+06
5.62338e+06
1.2479e+07
6.13112e+06
6.09236e+06
6.19457e+06
6.10967e+06
6.3e+06
1.0088e+07
6.11044e+06
8.24351e+06
4.97109e+06
8.93146e+06
6.29922e+06
6.21163e+06
6.18017e+06
7.81586e+06
6.63737e+06
6.65873e+06
6.37294e+06
1.01176e+07
6.94184e+06
6.53465e+06
1.28028e+07
691584
1.08879e+06
6.53409e+06
6.48817e+06
9.11528e+06
8.89326e+06
9.1502e+06
-5.99474e+06
6.22336e+06
1.14129e+07
7.11839e+06
5.0127e+06
6.4282e+06
-2.17718e+06
7.28116e+06
8.26041e+06
6.45818e+06
5.95136e+06
5.65184e+06
7.90442e+06
8.92037e+06
444170
-244005
5.20491e+06
5.13957e+06
7.90396e+06
6.56368e+06
5.88984e+06
7.98492e+06
6.62495e+06
6.51946e+06
5.87999e+06
6.40784e+06
168039
8.77288e+06
7.50002e+06
5.34573e+06
7.66809e+06
5.00226e+06
5.23712e+06
6.57717e+06
6.72334e+06
6.71973e+06
8.59971e+06
6.2905e+06
5.78689e+06
5.79834e+06
4.97561e+06
8.80448e+06
8.77877e+06
4.9932e+06
5.80954e+06
5.79917e+06
8.42006e+06
9.58621e+06
4.75479e+06
-5.00138e+06
4.11285e+06
6.38548e+06
6.66089e+06
8.43334e+06
8.18523e+06
5.36893e+06
5.62258e+06
9.01541e+06
8.95523e+06
5.41303e+06
6.62851e+06
6.51948e+06
6.45553e+06
8.48378e+06
6.52369e+06
6.32177e+06
6.35687e+06
3.60334e+06
6.49748e+06
6.41264e+06
6.49786e+06
4.8165e+06
4.9427e+06
6.21586e+06
8.97864e+06
6.85976e+06
6.7995e+06
5.2544e+06
6.54081e+06
5.15587e+06
5.90114e+06
5.87073e+06
5.96217e+06
1.26611e+07
6.58868e+06
7.20678e+06
6.93719e+06
6.30839e+06
8.94794e+06
8.9878e+06
883095
3.53487e+06
4.62351e+06
4.78498e+06
5.8582e+06
7.80068e+06
-6.73696e+06
7.72733e+06
6.66424e+06
6.63893e+06
1.19331e+07
6.97207e+06
6.57034e+06
5.87751e+06
1.12421e+07
5.84417e+06
9.39567e+06
4.26409e+06
9.03799e+06
6.27634e+06
833308
1.07949e+07
7.43795e+06
7.39808e+06
6.62909e+06
5.90194e+06
6.54251e+06
6.50704e+06
7.7391e+06
4.46734e+06
8.96046e+06
2.08649e+06
6.47062e+06
6.22625e+06
6.21853e+06
8.9194e+06
6.43353e+06
8.77272e+06
5.47724e+06
5.5763e+06
6.78318e+06
6.15868e+06
4.70983e+06
5.79386e+06
6.49113e+06
6.7008e+06
1.12476e+07
6.57195e+06
3.15054e+06
-639942
5.87354e+06
5.06362e+06
6.5648e+06
5.13015e+06
6.20087e+06
4.04479e+06
4.08243e+06
2.77808e+06
2.98699e+06
6.64451e+06
162563
6.26537e+06
7.2639e+06
737043
6.02935e+06
6.0096e+06
1.04389e+07
8.70721e+06
8.87032e+06
9.11801e+06
8.58166e+06
8.80602e+06
7.48009e+06
5.79271e+06
9.18034e+06
1.58768e+06
7.48479e+06
6.27168e+06
5.46725e+06
6.41464e+06
6.37766e+06
7.2536e+06
7.18018e+06
5.56375e+06
3.16993e+06
6.93961e+06
6.09883e+06
7.77366e+06
6.58705e+06
1.01883e+07
1.0387e+07
4.49993e+06
2.14389e+06
1.50829e+07
6.63814e+06
6.66526e+06
7.73501e+06
22716.3
8.67061e+06
6.39195e+06
8.64859e+06
6.34478e+06
6.63673e+06
6.41544e+06
8.89863e+06
5.37916e+06
6.12469e+06
1.88837e+06
2.90191e+06
6.49343e+06
6.61919e+06
8.02846e+06
7.04385e+06
7.01455e+06
5.60728e+06
5.10424e+06
5.29671e+06
1.1881e+06
6.17945e+06
8.6199e+06
6.43853e+06
5.56519e+06
5.30477e+06
6.54727e+06
8.60464e+06
8.22714e+06
8.93486e+06
2.64453e+06
8.52435e+06
8.89689e+06
8.0662e+06
6.41312e+06
6.41509e+06
6.41559e+06
6.40598e+06
6.56135e+06
8.69682e+06
5.77484e+06
202531
6.47258e+06
6.41538e+06
1.85033e+06
7.66344e+06
7.48695e+06
6.74749e+06
6.33267e+06
7.17113e+06
6.24923e+06
6.09756e+06
7.22175e+06
6.58883e+06
6.15489e+06
6.41325e+06
6.91119e+06
7.85623e+06
6.18832e+06
6.38743e+06
6.3196e+06
8.27231e+06
1.14904e+07
7.11441e+06
8.32022e+06
1.1088e+07
8.83228e+06
6.51237e+06
8.43177e+06
6.55423e+06
6.2735e+06
7.17154e+06
5.31681e+06
5.42949e+06
7.13829e+06
6.23122e+06
6.49853e+06
9.01167e+06
6.62239e+06
8.33719e+06
6.0986e+06
6.92027e+06
6.8411e+06
9.13703e+06
-681384
8.32596e+06
5.58108e+06
6.24535e+06
6.54558e+06
9.0476e+06
-1.86136e+06
5.83718e+06
6.21706e+06
6.55845e+06
7.0479e+06
6.98648e+06
5.65657e+06
7.34656e+06
1.63593e+06
6.19164e+06
6.50337e+06
6.38925e+06
6.31534e+06
1.36001e+07
1.35765e+07
6.68827e+06
5.26042e+06
6.24532e+06
1.39934e+07
6.61471e+06
1.41647e+07
6.19252e+06
6.73632e+06
6.40666e+06
3.75657e+06
-2.84875e+06
5.15802e+06
5.78567e+06
6.2266e+06
6.39834e+06
6.11804e+06
6.0771e+06
5.86605e+06
6.20287e+06
5.99008e+06
6.76672e+06
6.67755e+06
7.34601e+06
3.56691e+06
7.1188e+06
8.20136e+06
6.67347e+06
6.67567e+06
6.04592e+06
5.94687e+06
6.75936e+06
6.68584e+06
6.41069e+06
6.4249e+06
9.19493e+06
5.60435e+06
5.15738e+06
6.72872e+06
6.08958e+06
6.92427e+06
9.13604e+06
9.21347e+06
4.97777e+06
5.07183e+06
5.72413e+06
1.73431e+06
5.3826e+06
6.42068e+06
6.47545e+06
6.42877e+06
6.36797e+06
6.73103e+06
5.14394e+06
7.7847e+06
4.45637e+06
5.95254e+06
3.40169e+06
5.97663e+06
6.35037e+06
7.83632e+06
7.65348e+06
8.07103e+06
6.70418e+06
7.16907e+06
8.80146e+06
9.03267e+06
5.81332e+06
2.92828e+06
6.21528e+06
6.41624e+06
6.43523e+06
5.73804e+06
6.65773e+06
6.10537e+06
6.22306e+06
5.62155e+06
6.03034e+06
9.18084e+06
6.18617e+06
6.88412e+06
6.83442e+06
2.95639e+06
2.4735e+06
5.72624e+06
6.61974e+06
6.52847e+06
6.54205e+06
6.35172e+06
8.19836e+06
7.10315e+06
7.01552e+06
3.83542e+06
8.38913e+06
6.97922e+06
7.22118e+06
5.65877e+06
5.85502e+06
7.53687e+06
5.8e+06
5.79224e+06
7.56947e+06
5.47477e+06
6.44327e+06
7.03766e+06
6.95533e+06
3.40128e+06
7.16838e+06
6.47455e+06
9.00256e+06
9.05231e+06
7.15867e+06
7.00187e+06
6.85415e+06
6.68963e+06
6.632e+06
7.44129e+06
8.86689e+06
8.72815e+06
6.16163e+06
6.17202e+06
6.66619e+06
6.98675e+06
6.95687e+06
7.57132e+06
5.28738e+06
4.50263e+06
4.52472e+06
8.94039e+06
8.81402e+06
6.60796e+06
6.49066e+06
6.7422e+06
6.75389e+06
6.63625e+06
)
;

boundaryField
{
    back
    {
        type            empty;
    }
    front
    {
        type            empty;
    }
    down
    {
        type            symmetry;
    }
    right
    {
        type            zeroGradient;
    }
    up
    {
        type            zeroGradient;
    }
    left
    {
        type            symmetry;
    }
    hole
    {
        type            zeroGradient;
    }
}


// ************************************************************************* //
