/*--------------------------------*- C++ -*----------------------------------*\
| =========                 |                                                 |
| \\      /  F ield         | OpenFOAM: The Open Source CFD Toolbox           |
|  \\    /   O peration     | Version:  v2012                                 |
|   \\  /    A nd           | Website:  www.openfoam.com                      |
|    \\/     M anipulation  |                                                 |
\*---------------------------------------------------------------------------*/
FoamFile
{
    version     2.0;
    format      ascii;
    class       volScalarField;
    location    "15";
    object      epsilonEq;
}
// * * * * * * * * * * * * * * * * * * * * * * * * * * * * * * * * * * * * * //

dimensions      [0 0 0 0 0 0 0];


internalField   nonuniform List<scalar> 
470
(
0.000330251
0.00029433
0.000852538
0.000552497
0.000739214
0.000770156
0.000713977
0.000721917
0.00121914
0.000848817
0.00115881
0.00145029
0.00140451
0.000541824
0.00144012
0.00104861
0.00083512
0.00048607
0.000437635
0.000389344
0.00105559
0.000642882
0.000871963
0.00053808
0.00130831
0.00063927
0.00113935
0.000920569
0.000755718
0.000515197
0.000378943
0.00155784
0.000854143
0.00128132
0.000802492
0.000775184
0.00146209
0.000391958
0.000446695
0.000442463
0.0010686
0.000402644
0.00149975
0.000955774
0.000993705
0.00153122
0.00054062
0.00119883
0.00107838
0.00121099
0.00158594
0.00106031
0.000523917
0.000432054
0.000605821
0.000634594
0.00102741
0.00055133
0.000976612
0.000935692
0.000669386
0.00123308
0.00136771
0.0014405
0.000582263
0.00164605
0.000533248
0.00067258
0.000760583
0.000979733
0.000238744
0.000821305
0.00151323
0.000794193
0.00162537
0.000598666
0.000776664
0.000762178
0.000867553
0.0018178
0.0010085
0.00172659
0.00088626
0.000639145
0.00123006
0.000632997
0.00161192
0.000752911
0.00162626
0.00133316
0.00168595
0.00146558
0.000807625
0.000761027
0.00138575
0.00143329
0.000673201
0.000742238
0.000759747
0.000809478
0.00062291
0.00112103
0.00130164
0.000578462
0.000564735
0.000725966
0.000710772
0.000675544
0.000654074
0.00198492
0.00160486
0.00196978
0.000585337
0.000756157
0.00079205
0.00089215
0.000530122
0.00132188
0.0006766
0.00030741
0.000786411
0.00058191
0.00051086
0.00053041
0.000715141
0.000980621
0.000959722
0.000636986
0.00138351
0.000570459
0.0006054
0.000650824
0.000717136
0.000621082
0.000649265
0.000837539
0.000817535
0.000937795
0.00147006
0.000740074
0.000750926
0.00131348
0.000667416
0.000711958
0.000716079
0.000401786
0.000548499
0.0013716
0.000651191
0.00144128
0.000469009
0.000530663
0.000781037
0.000600712
0.00185081
0.00104477
0.00101674
0.000621346
0.000655172
0.000819712
0.00146988
0.00129729
0.00104435
0.00153183
0.00150115
0.000961459
0.000963698
0.00136048
0.000887107
0.00103607
0.000962653
0.000719816
0.000736051
0.000765257
0.000729497
0.00067684
0.000479433
0.000325849
0.00119895
0.000889203
0.000927489
0.0014863
0.000823233
0.000973118
0.000985195
0.00124442
0.000771346
0.000211875
0.00132184
0.000569111
0.000746722
0.000624413
0.000916447
0.000878678
0.000369725
0.000485892
0.000886147
0.000812884
0.00082387
0.00665099
0.000282281
0.000202172
0.00527181
0.00099044
0.000966652
0.000992134
0.000421111
0.00044009
0.000996949
0.00118146
0.000624545
0.000874259
0.00066475
0.000533119
0.00127568
0.00114622
0.000664709
0.000545163
0.000596636
0.00106341
0.000673171
0.000472867
0.000782466
0.000554448
0.0011597
0.000778315
0.00118648
0.00036348
0.00176876
0.00145032
0.00113495
0.000602351
0.00053071
0.000725523
0.000983537
0.0007446
0.000638205
0.000699799
0.000687662
0.000570745
0.000570973
0.000552355
0.000722178
0.00262728
0.00242198
0.0012515
0.00131513
0.000685963
0.000374881
0.000780034
0.000756697
0.000917509
0.000502399
0.000739767
0.00109063
0.000365966
0.000493111
0.000538545
0.000721599
0.000274331
0.00088178
0.00165998
0.000203104
0.000490876
0.000457367
0.000528427
0.000739677
0.000493805
0.000515355
0.00102586
0.000849142
0.000686469
0.00162122
0.000800028
0.000970273
0.000970326
0.00110437
0.000905212
0.00125762
0.000682482
0.000811835
0.00105188
0.00069393
0.0010656
0.000535236
0.000562045
0.0010711
0.00135291
0.000608184
0.000528513
0.000699725
0.000821309
0.000454259
0.00121997
0.00116592
0.000631319
0.00061391
0.000793825
0.00111442
0.00052264
0.00068109
0.000496544
0.000674389
0.000673591
0.00179012
0.000907372
0.000713282
0.000692274
0.000655181
0.000721515
0.00137958
0.00120882
0.00494907
0.00069726
0.000899037
0.00135705
0.000889804
0.000470899
0.00123084
0.000594789
0.00118519
0.000551748
0.000640257
0.000574214
0.00117821
0.000465796
0.000890322
0.000894866
0.000692861
0.00068296
0.000591047
0.000450541
0.000950238
0.000961427
0.000531492
0.000877597
0.000359374
0.000593637
0.00153278
0.00074381
0.000524091
0.00365662
0.00130685
0.000463388
0.000682947
0.00113005
0.00145821
0.000652425
0.000519251
0.000733829
0.000353512
0.000752898
0.00105613
0.00109639
0.00134137
0.000259825
0.00126712
0.000800023
0.000525559
0.000220666
0.000532251
0.000554563
0.000688123
0.000903254
0.00159738
0.000740373
0.000523908
0.00138375
0.000261494
0.000732417
0.000573057
0.000764227
0.00108174
0.000560424
0.000581582
0.000799905
0.00041851
0.000715999
0.00386788
0.000609322
0.000899022
0.00169981
0.000609217
0.000589613
0.000659917
0.00567684
0.00148281
0.00152156
0.00105088
0.000572858
0.00130606
0.000497233
0.000832935
0.00175275
0.000731112
0.000539994
0.000536146
0.000734042
0.00137572
0.000929793
0.00130031
0.00426039
0.000832562
0.000458248
0.00148026
0.00134211
0.00133058
0.000805327
0.000509723
0.000484316
0.000732298
0.000738303
0.000446371
0.00092083
0.000968066
0.000967352
0.000614799
0.000647698
0.00145273
0.000325902
0.000829402
0.000378265
0.000896958
0.000587798
0.000864268
0.0031308
0.00152679
0.00103592
0.00131924
0.00110308
0.00129724
0.00119943
0.00102233
0.00112613
0.000389555
0.000576762
0.000550759
0.000744702
0.000695904
0.00100118
0.00111526
0.00137472
0.000561901
0.00101997
0.00110447
0.00118655
0.00108184
0.00079414
0.000330952
0.000697765
0.000927836
0.0012172
0.00112766
0.00068569
0.000664375
0.000599983
0.00110905
0.00116271
0.000636749
0.000555116
0.000849866
0.00081006
0.000502115
0.00117088
0.00108205
0.00114145
0.000617299
0.000581974
0.00103255
0.00108271
)
;

boundaryField
{
    back
    {
        type            empty;
    }
    front
    {
        type            empty;
    }
    down
    {
        type            calculated;
        value           nonuniform List<scalar> 
15
(
0.000402644
0.000238744
0.000530122
0.00030741
0.000211875
0.00066475
0.000274331
0.000203104
0.000493805
0.00052264
0.000353512
0.00041851
0.000536146
0.000509723
0.000446371
)
;
    }
    right
    {
        type            calculated;
        value           nonuniform List<scalar> 10(0.000598666 0.00053041 0.000715141 0.000649265 0.000502399 0.000739767 0.000554563 0.000688123 0.000484316 0.000738303);
    }
    up
    {
        type            calculated;
        value           nonuniform List<scalar> 
20
(
0.00155784
0.000993705
0.00158594
0.00055133
0.000756157
0.00138351
0.00104435
0.00153183
0.000849142
0.00162122
0.000793825
0.00118519
0.00153278
0.00130685
0.00109639
0.00134137
0.000609217
0.000734042
0.000732298
0.00092083
)
;
    }
    left
    {
        type            calculated;
        value           nonuniform List<scalar> 5(0.00102741 0.0018178 0.00527181 0.00131513 0.00365662);
    }
    hole
    {
        type            calculated;
        value           nonuniform List<scalar> 8(0.000752911 0.00101674 0.00665099 0.00118146 0.000496544 0.00494907 0.00159738 0.000799905);
    }
}


// ************************************************************************* //
