/*--------------------------------*- C++ -*----------------------------------*\
| =========                 |                                                 |
| \\      /  F ield         | OpenFOAM: The Open Source CFD Toolbox           |
|  \\    /   O peration     | Version:  v2012                                 |
|   \\  /    A nd           | Website:  www.openfoam.com                      |
|    \\/     M anipulation  |                                                 |
\*---------------------------------------------------------------------------*/
FoamFile
{
    version     2.0;
    format      ascii;
    class       volSymmTensorField;
    location    "15";
    object      epsilon;
}
// * * * * * * * * * * * * * * * * * * * * * * * * * * * * * * * * * * * * * //

dimensions      [0 0 0 0 0 0 0];


internalField   nonuniform List<symmTensor> 
470
(
(0.000294236 -0.000204883 -1.02999e-15 -8.64094e-05 2.20449e-16 0)
(0.00039332 -4.93051e-05 -1.15099e-15 -7.0921e-05 2.74024e-16 0)
(0.000988674 -0.000169085 2.05131e-15 -0.000409251 -7.86914e-16 0)
(0.000746855 -3.33323e-05 2.86229e-16 -0.000141491 1.06272e-16 0)
(0.000681427 -0.000393631 -6.20164e-17 -0.000304571 -4.11346e-16 0)
(0.000906545 -3.49544e-05 -1.83013e-15 -0.000392028 -9.80498e-16 0)
(0.000742426 -0.000341348 1.0031e-15 -0.000248476 -2.00035e-17 0)
(0.000558426 -0.000444025 3.747e-16 -0.00031008 -4.94491e-16 0)
(0.00136954 -0.000267038 3.80815e-15 -0.000628054 -5.10551e-16 0)
(0.000962852 -0.000273444 -3.02969e-15 -0.000356116 5.07407e-16 0)
(0.00132243 -0.000227563 8.14019e-16 -0.000585542 -3.78072e-15 0)
(0.00166624 9.89392e-05 -6.5952e-15 -0.00078579 -1.46454e-15 0)
(0.00160245 -4.25126e-05 1.08268e-15 -0.000782162 1.6713e-15 0)
(0.000721559 -6.80595e-05 -1.34268e-15 -0.000145342 5.33851e-16 0)
(0.00167173 -0.000114678 -4.16767e-16 -0.000755018 2.88289e-16 0)
(0.00118321 -0.000261199 3.26432e-15 -0.00051266 -5.03596e-15 0)
(0.000914331 -0.000298006 -4.55061e-15 -0.000364895 -3.06829e-17 0)
(0.000638212 -8.65043e-05 1.72345e-15 -0.000132181 6.10104e-16 0)
(0.000596696 -3.56554e-05 6.53991e-16 -0.000101754 -9.50202e-18 0)
(0.000430199 -0.000193191 -5.49474e-16 -8.54042e-05 -1.76522e-16 0)
(0.00123418 -0.000160706 -1.15706e-15 -0.000517477 -2.44878e-15 0)
(0.000809536 -0.000106643 9.0726e-16 -0.000231069 5.26949e-16 0)
(0.00102626 -0.000111629 2.62811e-15 -0.000426786 2.22261e-16 0)
(0.00069627 -0.000107415 4.18068e-16 -0.000155091 -1.12079e-17 0)
(0.00140618 -0.000218041 1.18139e-14 -0.000788755 -1.45999e-15 0)
(0.000698352 -0.000286402 -6.09755e-16 -0.000205486 -6.74591e-16 0)
(0.00121764 -0.000256353 6.26235e-15 -0.000660667 7.17742e-17 0)
(0.00107884 -6.92062e-05 2.12851e-15 -0.000470265 -5.06268e-16 0)
(0.000896506 -8.66707e-05 -2.52402e-16 -0.000363947 4.0869e-16 0)
(0.000686972 -4.6898e-05 -1.85095e-15 -0.000142998 2.85582e-16 0)
(0.00041692 -0.00018921 -4.03757e-16 -8.36455e-05 6.79981e-17 0)
(0.0018411 -1.12288e-05 4.44631e-15 -0.000787615 -5.57529e-15 0)
(0.000967915 -0.000242505 -1.84965e-15 -0.000389222 -8.44566e-16 0)
(0.00137129 -0.000358027 -8.08728e-15 -0.000692435 -2.80613e-15 0)
(0.000955719 -5.28825e-05 -1.26548e-15 -0.000391362 -2.62052e-16 0)
(0.000918608 -4.9291e-05 -8.10116e-16 -0.000384426 -1.36875e-15 0)
(0.00171906 6.59156e-06 -6.72509e-15 -0.000750843 5.12069e-15 0)
(0.000437513 -0.000182921 -8.93383e-17 -0.00010019 3.72796e-16 0)
(0.000538232 -0.000177258 6.87818e-16 -0.000101594 7.61225e-16 0)
(0.000438293 -0.000242092 -3.18755e-16 -0.000128116 1.50128e-16 0)
(0.00109822 -0.000343307 -8.75602e-16 -0.000595949 -9.56917e-16 0)
(0.000546733 -4.43722e-05 1.95113e-15 -9.36217e-05 1.39237e-16 0)
(0.00170212 0.000236646 6.026e-16 -0.00079816 1.55431e-15 0)
(0.000908276 -0.00042435 -7.42895e-16 -0.00049267 -1.04051e-15 0)
(0.00117346 -6.11018e-05 5.53377e-16 -0.000498536 -6.87872e-16 0)
(0.00168522 0.000304503 6.1304e-15 -0.000850688 -7.12321e-16 0)
(0.00054129 -0.000291394 1.78677e-16 -0.00015729 3.45318e-16 0)
(0.00125789 -0.00031985 5.91324e-15 -0.000690158 1.60191e-15 0)
(0.00111092 -0.000364655 3.71491e-15 -0.000581204 4.80193e-16 0)
(0.00134107 -0.000223635 7.98146e-15 -0.000671374 8.13911e-16 0)
(0.00186139 3.40861e-05 -1.28389e-14 -0.000817762 3.08781e-16 0)
(0.00111487 -0.000238386 -5.0294e-15 -0.000637086 -2.33927e-15 0)
(0.00067364 -0.000126584 2.56913e-15 -0.000141914 5.55112e-17 0)
(0.000569158 -8.01122e-05 1.22732e-15 -0.00011266 -5.79023e-16 0)
(0.000785478 -0.000100801 1.31839e-16 -0.000183957 3.27253e-16 0)
(0.000798663 -0.000114786 2.06345e-15 -0.000223704 -1.50623e-16 0)
(0.00118936 0.000249277 1.65349e-15 -0.00046724 -2.38655e-15 0)
(0.000631395 5.52693e-05 4.05416e-15 -0.000297296 -2.06953e-15 0)
(0.000983713 -0.000426412 -3.322e-16 -0.000443415 2.61328e-15 0)
(0.00110769 -0.000106728 2.92127e-15 -0.000453881 -3.51878e-16 0)
(0.000745486 -0.000275608 2.20744e-16 -0.000230153 4.13894e-16 0)
(0.00137576 -0.000155268 1.07449e-14 -0.000701088 -5.2161e-16 0)
(0.00157497 -8.48222e-05 3.52279e-15 -0.00073795 2.30588e-15 0)
(0.00161134 5.87878e-05 -7.31663e-15 -0.000840885 2.71484e-16 0)
(0.000565824 -0.000218451 -4.13732e-16 -0.000333154 -2.02442e-15 0)
(0.00202649 -7.71315e-06 -1.14727e-14 -0.000723455 -2.26381e-15 0)
(0.000505504 -0.000312478 -7.8583e-16 -0.000141226 3.39484e-16 0)
(0.000828316 -0.000112671 -4.2414e-16 -0.000267863 8.45e-16 0)
(0.000514934 -0.000429471 6.5746e-16 -0.000483742 -2.57335e-16 0)
(0.00109301 -0.000305279 2.41213e-15 -0.000445535 -5.63135e-16 0)
(0.000273241 -9.11827e-05 -1.92121e-16 -8.08857e-05 1.65146e-16 0)
(0.000912323 -0.000303567 -1.68442e-15 -0.000329337 7.39805e-16 0)
(0.00170013 -8.52891e-05 -2.11203e-15 -0.000871139 -5.11093e-16 0)
(0.000815217 -0.000369996 -4.3238e-16 -0.000306567 6.68736e-16 0)
(0.00173508 -5.9258e-05 2.2868e-15 -0.00104967 -1.42312e-15 0)
(0.000786574 -3.89189e-05 -1.46628e-15 -0.000187947 1.09419e-15 0)
(0.000887671 -0.000247024 -1.88217e-16 -0.000319828 -1.23897e-16 0)
(0.000862041 -0.000271196 1.99493e-15 -0.000296358 5.26651e-17 0)
(0.000886285 -0.000386039 -1.11066e-15 -0.00036757 9.86624e-16 0)
(0.00230192 0.000202683 -4.37036e-15 -0.000675933 6.36297e-15 0)
(0.00104106 -0.000387323 8.09682e-16 -0.000492142 -5.51317e-17 0)
(0.00205055 0.000130079 -3.07632e-15 -0.000846407 -3.7392e-15 0)
(0.00103658 -0.000173032 3.13681e-15 -0.000415291 1.07878e-16 0)
(0.000447598 -0.000281323 -2.89265e-16 -0.000505209 -2.00168e-15 0)
(0.00136392 -0.000247754 3.59131e-15 -0.000668969 1.3597e-15 0)
(0.000807738 -4.73044e-05 -3.83374e-16 -0.000232918 1.03736e-15 0)
(0.00175974 0.000167713 8.81023e-16 -0.000974658 -1.47451e-16 0)
(0.000753411 -0.000364106 -2.76949e-15 -0.000295624 -1.07726e-15 0)
(0.00177662 0.000293782 3.88871e-15 -0.000934988 -1.41597e-15 0)
(0.00143274 -0.000133663 -7.40423e-15 -0.000834697 3.32763e-15 0)
(0.00188749 0.00023132 6.3686e-15 -0.00094383 -8.40907e-16 0)
(0.00170771 3.0468e-05 3.90269e-15 -0.000771832 6.59325e-15 0)
(0.000824333 -0.000384143 5.68989e-16 -0.000305636 -2.45301e-18 0)
(0.000843187 -0.000286609 1.4112e-15 -0.000301911 8.1345e-16 0)
(0.00160654 -0.000117381 6.7999e-15 -0.000727614 2.77382e-15 0)
(0.00170135 -1.76651e-05 7.61674e-15 -0.000714678 2.94816e-15 0)
(0.000620619 -0.000384436 -8.14019e-16 -0.000225834 -8.2955e-17 0)
(0.000807541 -0.000314268 2.46634e-15 -0.000270158 5.87082e-16 0)
(0.000672872 -0.000421632 -3.50067e-15 -0.000316133 4.74067e-16 0)
(0.000954264 -9.5871e-05 -2.56305e-15 -0.000396816 2.23508e-16 0)
(0.000778451 -0.000147026 -8.79505e-16 -0.0002055 -9.25841e-16 0)
(0.00121421 -0.000310169 1.77159e-15 -0.000590071 1.45646e-15 0)
(0.00137414 -0.000189052 -4.53565e-15 -0.000825775 -8.12067e-16 0)
(0.000757535 -9.05263e-05 -3.24827e-15 -0.000167046 1.19617e-15 0)
(0.000765333 -6.17054e-05 -2.09034e-15 -0.000133917 9.80505e-16 0)
(0.000863822 -6.492e-05 -1.07553e-15 -0.000351367 2.03288e-17 0)
(0.000868592 -8.49444e-05 6.15827e-17 -0.000306789 -1.15175e-15 0)
(0.000651518 -0.000360605 -1.46454e-15 -0.000238462 3.09133e-17 0)
(0.00037697 1.17329e-05 -1.19522e-15 -0.000736493 -1.16148e-15 0)
(0.00188228 -0.000578146 -3.2641e-15 -0.00134026 4.30558e-15 0)
(0.00179594 0.000340937 1.49436e-15 -0.000841934 -2.81979e-15 0)
(0.00226106 -0.000179236 1.42377e-15 -0.00106022 -4.93572e-15 0)
(0.000782149 -3.95245e-05 -5.17815e-16 -0.000163351 2.32983e-15 0)
(0.000897917 -2.85739e-05 1.38214e-15 -0.000375268 6.06286e-16 0)
(0.000650215 -0.000379476 1.41337e-15 -0.000488791 3.84756e-16 0)
(0.000956481 -0.00035183 5.18249e-16 -0.000378119 2.37532e-15 0)
(0.000720312 -2.97805e-05 2.22999e-15 -0.000130271 -4.67291e-17 0)
(0.00156299 -7.06788e-05 6.38205e-15 -0.000662242 5.33319e-16 0)
(0.000675351 -0.000349474 -1.92815e-15 -0.00022938 -5.0082e-16 0)
(0.000413386 -6.15174e-05 -8.54351e-16 -6.36913e-05 2.28714e-16 0)
(0.000765486 -0.000406808 -2.46895e-15 -0.000292194 2.65467e-16 0)
(0.00076338 -0.000102789 -1.10242e-15 -0.000159728 7.77136e-16 0)
(0.000674162 -7.68385e-05 -5.33427e-16 -0.000141058 1.09541e-15 0)
(0.000746488 -2.42683e-05 -2.9152e-15 -8.86043e-05 1.22726e-15 0)
(0.000857949 -2.21928e-05 1.2837e-15 -0.000343798 -2.28783e-15 0)
(0.00103477 -0.000383472 -8.71265e-16 -0.000441482 1.46362e-15 0)
(0.00103891 -0.000342804 -1.53523e-15 -0.000434664 1.74513e-15 0)
(0.000787226 -0.000150916 2.35749e-15 -0.000222682 -7.69485e-16 0)
(0.0016312 -0.000105535 -3.58264e-15 -0.000693603 4.33789e-16 0)
(0.000727576 -0.000125475 -3.37837e-16 -0.000172817 -2.97796e-16 0)
(0.000541796 -0.000353149 3.13551e-16 -0.000209044 -3.16994e-17 0)
(0.000529448 -0.000407995 -7.37257e-18 -0.000228655 -6.32361e-17 0)
(0.000751627 -0.00033645 2.25514e-17 -0.000251751 -4.61369e-16 0)
(0.000766794 -0.000166777 -2.25341e-15 -0.00020269 -1.50887e-15 0)
(0.000822127 -3.96714e-05 1.21344e-15 -0.000249872 1.34219e-15 0)
(0.000984126 -9.50757e-05 2.69316e-16 -0.00041613 1.76725e-16 0)
(0.000869766 -0.000345339 4.64949e-15 -0.00032582 1.06366e-15 0)
(0.000972127 -0.000243618 -1.79197e-15 -0.000558906 -1.85344e-15 0)
(0.00169914 7.90071e-05 -1.16257e-14 -0.000787015 5.20569e-15 0)
(0.000875702 -2.08178e-05 5.38632e-16 -0.000372028 -1.68485e-16 0)
(0.000896295 -3.70401e-05 -1.05384e-15 -0.000365566 -1.34652e-15 0)
(0.00141964 -0.000141089 -1.26201e-16 -0.000810229 2.40541e-15 0)
(0.000819788 -0.000160797 -1.11716e-15 -0.000238676 -2.38904e-16 0)
(0.000807988 -0.000253643 5.53464e-15 -0.000272653 2.87314e-18 0)
(0.000836008 -0.000233052 3.63338e-15 -0.000265086 1.08778e-15 0)
(0.000450547 -0.000185973 -2.86229e-16 -0.000102172 1.48302e-16 0)
(0.000754976 -3.14577e-05 1.26635e-15 -0.000118953 4.99014e-16 0)
(0.00150935 -0.000122643 7.3613e-15 -0.00081986 -4.77233e-15 0)
(0.000768435 -0.000216214 6.43582e-16 -0.000224878 -6.08793e-16 0)
(0.00158889 3.86296e-06 -6.62122e-15 -0.000873017 -2.86056e-15 0)
(0.000605785 -0.000123513 1.0391e-15 -0.000114162 -8.06226e-16 0)
(0.000725645 -4.46727e-05 1.5439e-16 -0.000119568 1.9695e-16 0)
(0.000639756 -0.000406949 -6.49654e-16 -0.000434281 5.64002e-16 0)
(0.000774042 -8.493e-05 -1.64799e-15 -0.000196871 1.47008e-15 0)
(0.00153841 -0.000657186 -8.10918e-15 -0.00138408 8.03958e-15 0)
(0.00114559 -0.000333459 1.63021e-15 -0.000494022 -4.35936e-15 0)
(0.000401955 0.000305136 -4.89192e-16 -0.00118663 -1.99715e-15 0)
(0.000671712 -0.000284967 -1.92034e-15 -0.000199536 1.74042e-16 0)
(0.000740697 -0.000275635 -1.97845e-15 -0.000200979 1.34377e-15 0)
(0.000917738 -0.000268873 -1.61069e-15 -0.000355549 -1.10914e-16 0)
(0.00164961 -0.000381082 -7.78284e-15 -0.000719425 3.44451e-15 0)
(0.0014853 -0.000177262 4.54324e-15 -0.000684871 -2.58257e-16 0)
(0.00119295 0.000225411 7.77156e-16 -0.000514477 -1.20477e-15 0)
(0.0017816 -8.96434e-05 -1.93573e-15 -0.000804766 -7.53358e-15 0)
(0.00188664 -0.000135334 -8.89978e-15 -0.000588275 5.07363e-15 0)
(0.000890641 -0.000335836 4.38972e-15 -0.000625482 2.17383e-17 0)
(0.00079586 -0.000473559 7.45064e-16 -0.000572527 4.4886e-16 0)
(0.00160231 -3.68791e-05 -6.23199e-15 -0.00069381 -1.99016e-15 0)
(0.000888842 -0.000417412 -9.21572e-16 -0.000365164 1.16994e-15 0)
(0.000981037 -0.000421994 4.21104e-16 -0.000586144 5.70182e-16 0)
(0.000928912 -0.000368438 -4.21104e-16 -0.000550767 9.76216e-16 0)
(0.000849823 -0.000190366 1.2863e-15 -0.000293028 1.74394e-16 0)
(0.000870893 -0.000172867 1.57079e-15 -0.000313216 -7.66477e-16 0)
(0.000879414 -0.000230772 2.22608e-15 -0.000320455 -2.79941e-16 0)
(0.000849685 -0.000217221 2.84755e-15 -0.000292335 1.04235e-15 0)
(0.000763924 -0.000263347 2.35662e-15 -0.000238532 -1.62874e-16 0)
(0.000643819 -7.60211e-05 6.56593e-16 -0.000112788 -5.67021e-17 0)
(0.000218356 -9.91868e-05 1.05818e-16 -0.000307506 -2.71051e-17 0)
(0.00125651 -0.000239946 8.47673e-15 -0.000741977 -1.92392e-15 0)
(0.000769278 -0.000455426 -2.49583e-15 -0.000459726 -3.92481e-17 0)
(0.000910464 -0.000400081 -1.36306e-15 -0.000457799 -3.57028e-16 0)
(0.00166744 0.000201058 -5.69965e-15 -0.000828786 3.29099e-15 0)
(0.000879 -0.00034578 1.24033e-16 -0.00032645 -1.16335e-16 0)
(0.001059 -0.000330881 3.07697e-15 -0.00045086 7.28611e-16 0)
(0.00112952 -0.000247957 1.79457e-15 -0.000456305 -1.65438e-15 0)
(0.00145451 -0.000161801 5.53507e-15 -0.000621476 2.98047e-16 0)
(0.000918267 -0.000146253 -7.41594e-16 -0.000342185 -6.63803e-16 0)
(0.000127335 -8.73976e-05 2.70617e-16 -0.000193099 1.05035e-16 0)
(0.00153406 0.000223088 4.74772e-16 -0.000653184 -1.14101e-15 0)
(0.000723351 -0.000135687 -3.16587e-16 -0.0001685 -7.97092e-17 0)
(0.000899477 -9.65995e-05 -1.25334e-15 -0.000337533 1.03785e-15 0)
(0.000664891 -0.000304173 -2.27249e-16 -0.000185369 -8.39789e-16 0)
(0.00101786 -0.000317075 4.45173e-15 -0.000391663 3.6012e-15 0)
(0.000947093 -0.000329234 1.90299e-15 -0.000386247 8.25186e-16 0)
(0.00028469 -0.000240655 3.1225e-16 -0.000127907 3.24366e-16 0)
(0.0006138 -0.000127005 1.51355e-15 -0.000140594 -6.21749e-16 0)
(0.00103054 -0.000104798 2.9178e-15 -0.000452904 -5.16405e-16 0)
(0.000939776 -0.000207826 -1.52135e-15 -0.000363656 -2.64545e-15 0)
(0.000961828 -0.000162728 -7.11237e-17 -0.000387382 -8.10658e-16 0)
(0.00659407 -0.000996282 2.63134e-14 -0.00469929 -2.23781e-14 0)
(0.000360021 -7.02139e-05 -8.9425e-16 -7.93834e-05 2.40583e-16 0)
(0.000222329 -6.33463e-05 1.66533e-16 -9.58481e-05 1.95499e-16 0)
(0.00499765 -0.000401343 1.42801e-14 -0.00408269 -1.44401e-14 0)
(0.000896772 -0.000350101 1.9585e-15 -0.000663514 1.01785e-15 0)
(0.00108945 -0.000262057 -4.35416e-16 -0.000458385 -2.98698e-17 0)
(0.00114485 -0.000165361 -4.83901e-15 -0.000499814 1.41185e-15 0)
(0.000541409 -0.000128731 5.04805e-16 -8.90807e-05 4.07355e-17 0)
(0.000557444 -0.000128437 8.74301e-16 -0.000112727 -3.47114e-16 0)
(0.000960991 -0.000207314 -2.24647e-15 -0.000708927 1.35525e-17 0)
(0.000458994 0.000187849 -1.31275e-15 -0.00146661 -1.51841e-15 0)
(0.000789818 -0.000138228 1.92554e-15 -0.000198762 -6.27889e-16 0)
(0.000991153 -0.000213427 9.39353e-16 -0.000424368 -6.23037e-16 0)
(0.000282987 -9.09218e-05 -5.44269e-16 -0.000812129 -4.62128e-16 0)
(0.000660837 -0.000159305 1.08073e-15 -0.000155198 7.12287e-16 0)
(0.00145771 -0.000218355 6.47659e-15 -0.000658536 -1.39054e-15 0)
(0.00131787 -0.000218069 2.22652e-15 -0.000570241 -4.02602e-15 0)
(0.000795092 -0.000206753 -1.95677e-15 -0.000228367 -3.18132e-16 0)
(0.000581827 -0.000264407 -1.05471e-15 -0.000161945 -5.87116e-16 0)
(0.000719735 -0.000193935 -1.24119e-15 -0.000187487 2.81174e-16 0)
(0.00106769 -0.000303493 3.37057e-15 -0.000654902 2.48358e-15 0)
(0.000345834 -9.61333e-05 -5.42535e-16 -0.000776915 4.96836e-17 0)
(0.000413794 -0.000289025 -4.996e-16 -0.000145356 2.38524e-18 0)
(0.000913811 -0.00013348 -4.15466e-15 -0.000378458 -6.9004e-16 0)
(0.000700333 -0.000146251 -6.88685e-16 -0.000159402 4.54918e-16 0)
(0.00114746 -0.00036534 5.67818e-15 -0.000706163 9.7318e-16 0)
(0.000911546 -7.91014e-05 -2.98763e-15 -0.000393363 -1.33975e-15 0)
(0.00128252 -0.000325572 -2.6151e-16 -0.00062987 -8.6438e-16 0)
(0.00016269 -0.000204774 2.35055e-16 -0.000308034 2.21448e-17 0)
(0.00207736 0.000439349 -1.66398e-14 -0.000756736 3.12337e-15 0)
(0.00169775 8.71291e-05 -1.01392e-14 -0.000747423 2.76905e-15 0)
(0.00121853 -0.000313282 1.06122e-15 -0.000611482 9.3751e-16 0)
(0.000361487 -0.000301463 3.21358e-16 -0.000486876 2.05212e-16 0)
(0.00074255 -2.67894e-05 4.73493e-15 -9.56628e-05 1.11722e-15 0)
(0.000866422 -1.22775e-05 8.98587e-16 -0.000354758 2.00686e-16 0)
(0.00114753 -0.000175399 -1.02956e-15 -0.000473424 -6.85487e-16 0)
(0.000810634 -0.000315588 1.19522e-15 -0.000269837 8.73813e-16 0)
(0.000604125 -0.000154324 9.04225e-16 -0.000453758 -8.34402e-16 0)
(0.000843329 -6.28069e-05 9.11597e-16 -0.000324412 -9.32495e-16 0)
(0.000843027 -3.24545e-05 6.28837e-16 -0.000304983 2.52348e-17 0)
(0.000769204 -3.59379e-05 -3.53016e-15 -0.000149539 1.70004e-15 0)
(0.00077373 -6.00262e-05 -2.65066e-15 -0.000136319 1.92091e-15 0)
(0.000750679 -6.12894e-05 1.5864e-15 -0.000127211 1.77047e-15 0)
(0.000872117 -5.22035e-05 6.95624e-16 -0.000335206 4.1281e-16 0)
(0.00313274 -0.000303032 1.41178e-14 -0.0012434 -7.03907e-15 0)
(0.00285582 -0.000367426 1.0928e-14 -0.00115602 -4.28477e-16 0)
(0.00162057 0.000238661 -1.20097e-14 -0.000365934 4.11693e-15 0)
(0.00166066 0.000209391 -3.76289e-15 -0.000470295 3.13465e-15 0)
(0.000837907 -0.000100548 1.25767e-15 -0.000289447 5.99049e-16 0)
(0.00050903 -4.05003e-05 8.85576e-16 -8.74656e-05 -1.21956e-17 0)
(0.000907258 -0.000198572 5.7853e-16 -0.000342228 -1.39968e-15 0)
(0.000887541 -0.000173322 1.40122e-15 -0.000335595 -1.13917e-15 0)
(0.00106088 -0.000175052 3.47118e-15 -0.000448377 1.29047e-15 0)
(0.000729459 -7.37221e-06 4.04017e-15 -4.59599e-05 1.70812e-15 0)
(0.000874256 -6.08268e-06 1.2889e-15 -0.000374025 -2.30377e-15 0)
(0.00123481 -0.000286578 5.07407e-17 -0.000516773 -3.97707e-15 0)
(0.000441643 -0.000139415 -1.5439e-16 -9.02237e-05 2.25772e-16 0)
(0.000572937 -0.000205953 8.1532e-17 -0.000130261 -1.72544e-16 0)
(0.000746627 -2.9661e-05 2.53183e-15 -0.000108184 2.76921e-15 0)
(0.000862556 -2.3954e-05 5.05672e-16 -0.000350939 -1.76958e-15 0)
(0.000348987 -6.92065e-05 -1.07813e-15 -7.77297e-05 5.59381e-17 0)
(0.000926364 -0.000365263 5.29004e-15 -0.000376813 2.98207e-15 0)
(0.00193877 8.27057e-05 -2.94318e-15 -0.000863724 2.25514e-17 0)
(0.000195755 -8.44888e-05 2.09468e-16 -0.000108665 2.72999e-17 0)
(0.000297131 3.87901e-05 4.11563e-16 -0.000538041 -3.32091e-16 0)
(0.000492241 -0.000225163 4.56232e-16 -0.000123805 2.74805e-16 0)
(0.000739272 -2.64164e-05 3.37924e-15 -9.54373e-05 1.00278e-15 0)
(0.000879386 -2.55772e-05 1.54998e-15 -0.000365957 8.08327e-16 0)
(0.000663101 -3.0152e-05 -9.26342e-16 -0.00013336 6.9928e-16 0)
(0.000601652 -0.000218562 4.55365e-16 -0.000126704 -2.03966e-17 0)
(0.00120841 -7.01053e-05 -4.85115e-15 -0.000517384 1.51485e-15 0)
(0.00100164 -3.89416e-05 5.30392e-16 -0.000429415 -1.52222e-16 0)
(0.000498648 -0.000280627 -2.75387e-16 -0.000549142 -1.47018e-15 0)
(0.00191175 -1.30907e-05 -3.67176e-15 -0.000825187 5.3024e-15 0)
(0.000693916 -0.000270925 1.84271e-15 -0.000579735 1.40621e-15 0)
(0.00121919 1.5384e-05 -1.33221e-15 -0.000391747 2.82326e-16 0)
(0.000981802 -0.000165722 6.35559e-16 -0.000655008 -2.17957e-15 0)
(0.00116667 -0.000274856 1.07683e-15 -0.000640057 -1.41705e-15 0)
(0.00102778 -0.000254087 -2.44769e-15 -0.000412249 5.33482e-16 0)
(0.00144298 -0.000143609 4.72105e-15 -0.000669583 1.10079e-15 0)
(0.000820355 -0.000158539 -1.79804e-15 -0.00027383 -4.24926e-16 0)
(0.000876455 -0.000319652 -3.14592e-15 -0.000336536 -2.21557e-16 0)
(0.0011562 -0.000312924 -3.53753e-15 -0.000514225 -2.70628e-15 0)
(0.000701594 -0.000354854 2.21177e-16 -0.000229309 -4.78892e-16 0)
(0.00114542 -0.000369733 -2.88571e-15 -0.000504676 9.82504e-16 0)
(0.000709555 -7.12331e-05 5.52509e-16 -0.000146968 3.65532e-16 0)
(0.000760988 -4.94226e-05 6.245e-16 -0.000138261 -2.35577e-16 0)
(0.00126462 -0.000149082 -5.87985e-15 -0.000514513 1.01107e-15 0)
(0.00149088 0.000323874 3.40331e-16 -0.000716269 -1.31427e-15 0)
(0.000742275 -0.000185316 -2.1181e-15 -0.000190995 -6.80228e-16 0)
(0.000419304 -0.000304747 2.7452e-16 -0.000257263 2.53446e-16 0)
(0.000593052 -0.000188895 -5.55979e-16 -0.000558346 -1.25095e-15 0)
(0.000696835 -0.000225673 -5.00901e-16 -0.000651964 2.14672e-16 0)
(0.00029315 -0.000309989 5.46438e-17 -0.000187428 1.03135e-17 0)
(0.00142439 -0.000111056 -3.67848e-15 -0.000625734 2.92745e-15 0)
(0.00131681 -0.000283439 -4.49987e-15 -0.000573293 -3.23407e-15 0)
(0.000734076 -0.000234224 2.26034e-15 -0.000205706 -1.98938e-16 0)
(0.000757001 -0.000169722 -3.27603e-15 -0.00019751 -9.34406e-16 0)
(0.000933939 -3.57171e-05 1.92901e-15 -0.000404722 1.88613e-15 0)
(0.00122207 -0.000315401 -2.76385e-15 -0.000561922 -3.68336e-15 0)
(0.000706925 -3.16039e-05 -1.82059e-15 -0.000133146 9.72021e-17 0)
(0.000836482 -0.000142584 -1.60722e-15 -0.000258494 -3.92698e-16 0)
(0.000386359 2.98379e-05 4.59702e-17 -0.00047024 -7.6176e-16 0)
(0.000842572 -7.70652e-05 2.31586e-15 -0.000266491 1.60245e-16 0)
(0.000829224 -4.15936e-05 2.03657e-15 -0.000292482 1.40794e-15 0)
(0.00202901 0.000386515 -7.76853e-15 -0.000902361 -1.96631e-15 0)
(0.000798589 -0.000474977 -3.46381e-15 -0.000435787 7.22377e-16 0)
(0.000857035 -0.000145506 -1.70523e-15 -0.000299726 -1.13597e-15 0)
(0.000833536 -0.000182061 -1.76768e-15 -0.000259821 7.23298e-16 0)
(0.000438188 -0.000410379 1.40599e-15 -0.000343577 1.5786e-15 0)
(0.000565141 -0.000417423 1.35872e-15 -0.000357 9.15582e-16 0)
(0.0015552 -2.27408e-05 1.38648e-15 -0.000793001 -2.7916e-15 0)
(0.00125126 -0.000222001 -1.0018e-15 -0.000776413 2.35684e-15 0)
(0.00458655 -0.00237209 4.03041e-15 -0.00244509 1.19744e-14 0)
(0.000802774 -0.000256168 5.27703e-15 -0.000241798 -5.85225e-16 0)
(0.000724806 -0.000361374 -4.39319e-16 -0.000653876 -2.72785e-16 0)
(0.00155488 -2.17446e-05 5.81306e-15 -0.000748632 -1.14969e-15 0)
(0.000724219 -0.00040755 1.85008e-15 -0.00058117 1.01731e-15 0)
(0.000300483 -0.000271496 3.7817e-16 -0.000308105 -1.05073e-16 0)
(0.00143475 -0.000147609 7.86827e-15 -0.000624059 -1.5722e-15 0)
(0.000680191 -0.000256323 -1.73472e-15 -0.000161793 2.80917e-16 0)
(0.00139696 -8.16184e-05 1.81756e-15 -0.000596465 -7.64796e-16 0)
(0.000630299 -0.000231966 -1.19349e-15 -0.0001598 1.29675e-15 0)
(0.000746012 -0.000240995 1.12887e-15 -0.000202065 3.76991e-16 0)
(0.000733208 -0.000131095 -1.86309e-15 -0.000169234 -4.67129e-16 0)
(0.00134614 -0.0002419 3.77042e-15 -0.000587401 -5.69868e-15 0)
(0.000624512 -2.93772e-05 -7.95371e-16 -0.000127145 5.12538e-16 0)
(0.0010511 -4.53122e-05 -1.06252e-15 -0.000448487 -1.11613e-15 0)
(0.000772194 -0.000445928 -7.20344e-16 -0.000484536 1.23192e-15 0)
(0.000587037 -0.000384268 8.60857e-16 -0.000321851 2.97234e-16 0)
(0.00043352 -0.000313781 -1.25898e-15 -0.000566278 -5.23534e-16 0)
(0.000604471 -0.000302301 1.10155e-15 -0.000185424 -3.92563e-16 0)
(0.000232097 -0.000152281 -7.54605e-16 -0.000472806 5.81973e-16 0)
(0.000917278 -0.00043866 6.58328e-16 -0.000448732 7.23542e-16 0)
(0.00101103 -0.000368788 1.68745e-15 -0.000445866 2.44769e-15 0)
(0.000350038 -0.000284441 6.12791e-16 -0.000373592 5.86445e-16 0)
(0.000858523 -0.00042786 -4.79651e-16 -0.000365037 1.04579e-15 0)
(0.000492595 -5.62864e-05 -1.27242e-15 -6.84957e-05 8.49777e-17 0)
(0.000713896 -0.000200967 8.27463e-16 -0.000181117 2.86636e-16 0)
(0.00178712 0.000118606 -5.32387e-15 -0.000794233 6.33825e-16 0)
(0.000876802 -0.000118193 -1.38344e-15 -0.000353007 3.5654e-16 0)
(0.000633538 -0.000184691 3.26128e-16 -0.000146535 2.14747e-16 0)
(0.00383241 -0.000166677 1.47488e-14 -0.00244103 5.92321e-15 0)
(0.00154441 -8.96036e-05 -4.22449e-15 -0.000652474 3.67859e-15 0)
(0.000255985 -0.000158405 4.31079e-16 -0.000470937 -4.42253e-16 0)
(0.00079584 -0.000218584 -6.75675e-16 -0.000258646 1.05143e-15 0)
(0.00134839 -7.58224e-05 -2.50668e-15 -0.000547452 -2.77827e-16 0)
(0.00171982 0.000121237 -1.02132e-15 -0.000728145 4.11021e-15 0)
(0.00076087 -0.000233824 3.59521e-15 -0.000219164 -1.86347e-16 0)
(0.00074458 -6.44062e-06 2.08254e-15 -6.44293e-05 5.05231e-16 0)
(0.000865211 -3.56066e-06 8.51749e-16 -0.000373716 -1.16443e-16 0)
(0.000480511 -4.44601e-05 -1.60462e-16 -7.92543e-05 -1.47594e-16 0)
(0.000671901 -0.000431993 -1.9533e-15 -0.000278039 3.06233e-16 0)
(0.00121267 -0.000240976 3.55879e-15 -0.000503867 -6.06633e-15 0)
(0.00129203 -6.2611e-05 -5.68946e-15 -0.000554354 1.53219e-15 0)
(0.00155003 0.000193676 2.61217e-15 -0.000685772 -1.42334e-15 0)
(9.17115e-05 -3.20721e-05 7.29451e-16 -0.000331638 -7.03607e-16 0)
(0.00139717 0.000467617 -2.23682e-15 -0.000523099 2.10335e-15 0)
(0.000843481 -0.000354558 -1.55344e-15 -0.000305827 6.97684e-17 0)
(0.000741521 -2.3692e-06 -2.29677e-15 -8.64829e-05 8.90228e-16 0)
(0.000192433 -3.93004e-05 1.35308e-16 -0.00018155 1.57975e-16 0)
(0.000739608 -2.87969e-05 1.55605e-15 -0.00010417 1.16601e-15 0)
(0.000758917 -3.56069e-05 -2.57086e-15 -0.000126698 1.68634e-15 0)
(0.000844895 -3.44425e-05 2.76081e-15 -0.000303127 1.10887e-15 0)
(0.00101064 -0.000305407 -3.16934e-15 -0.000383401 4.3444e-16 0)
(0.0015709 -0.000870609 -7.47015e-15 -0.000485964 8.21608e-16 0)
(0.000873284 -2.85113e-06 -6.27103e-16 -0.000376593 7.07279e-16 0)
(0.000633206 -0.000189196 -8.82974e-16 -0.000141088 -2.15079e-17 0)
(0.00157987 0.000200698 4.55094e-15 -0.000731704 7.29885e-16 0)
(0.000132255 -0.000160052 2.94903e-17 -0.000186626 7.20012e-17 0)
(0.000874135 -1.60382e-05 2.43729e-16 -0.000358622 -4.22405e-16 0)
(0.000605304 -0.000290066 8.84709e-17 -0.000157434 -1.03812e-17 0)
(0.00073154 -0.000400525 -1.93595e-15 -0.000291096 9.52201e-16 0)
(0.00124423 0.000244864 -6.79849e-16 -0.000514504 1.13494e-15 0)
(0.000733397 -9.48311e-05 -9.1073e-17 -0.000158933 4.9258e-16 0)
(0.00036532 2.71166e-05 1.48753e-16 -0.000628964 -1.12519e-15 0)
(0.000385648 0.000260631 9.95298e-16 -0.000867519 -1.0095e-15 0)
(0.000203239 -8.74805e-05 7.09502e-16 -0.000481605 -5.70372e-16 0)
(0.000855698 -0.000103555 -9.14199e-16 -0.000328549 -8.48334e-16 0)
(0.00428898 -0.00126195 1.55995e-14 -0.00173973 3.74136e-15 0)
(0.000357443 -1.0791e-05 -1.30018e-15 -0.000681041 -5.96636e-16 0)
(0.000891981 -0.000399698 -3.15937e-15 -0.000415719 1.12638e-15 0)
(0.00181956 -0.000217721 -6.92372e-16 -0.00105892 -8.98804e-16 0)
(0.000701253 0.000166931 1.59665e-15 -0.00026797 -2.05868e-15 0)
(0.000773401 -9.78676e-05 -1.83707e-15 -0.000165433 1.52276e-16 0)
(0.000793 -0.000187949 -3.83287e-15 -0.000237725 -9.46698e-16 0)
(0.00455582 -0.00149888 2.35071e-14 -0.00480751 1.03272e-14 0)
(0.00163286 0.000409021 -1.66447e-15 -0.000747391 -2.29656e-15 0)
(0.00170765 0.000384415 -5.85621e-15 -0.000752003 6.5746e-16 0)
(0.00122548 -8.38616e-05 -7.22339e-15 -0.000543699 1.44947e-15 0)
(0.00067706 -0.000209973 6.54858e-16 -0.000173621 4.77862e-16 0)
(0.00140893 -0.000113318 -2.35966e-15 -0.000815645 3.10993e-15 0)
(0.000668758 -2.73718e-05 -1.77896e-15 -0.000133186 6.97538e-16 0)
(0.000985209 -3.94701e-05 2.18228e-15 -0.000417537 6.084e-16 0)
(0.00200956 0.000125105 4.50659e-15 -0.000953939 1.73472e-16 0)
(0.000880194 -0.000129544 -2.06085e-15 -0.000315733 -5.13424e-16 0)
(0.000670866 -0.00016718 6.53991e-16 -0.000149018 7.6834e-16 0)
(0.000738263 -1.93671e-05 -1.88217e-16 -0.000117561 6.39539e-16 0)
(0.000871637 -7.42298e-06 1.26114e-15 -0.000365656 5.52076e-16 0)
(0.00161978 -7.8197e-05 4.16334e-17 -0.000697495 -6.00323e-16 0)
(0.0010669 -0.000184732 8.74301e-16 -0.000461076 1.33693e-15 0)
(0.00149502 -0.000186067 2.5366e-15 -0.000675203 1.66067e-15 0)
(0.00468233 -0.000731103 2.85322e-14 -0.00243304 5.34989e-15 0)
(0.0009541 -0.000221292 -9.37618e-16 -0.000377331 -1.45695e-15 0)
(0.000264297 -0.000302696 8.53484e-16 -0.000248923 3.67057e-16 0)
(0.00163293 -6.99145e-05 -7.37257e-15 -0.000891046 3.60259e-15 0)
(0.00156553 0.00039242 -5.67648e-15 -0.000541112 2.64545e-15 0)
(0.00142868 -0.000147436 -2.10205e-15 -0.000830801 3.72532e-15 0)
(0.000949498 -0.000149208 -2.2829e-15 -0.000371592 -1.68702e-16 0)
(0.000731566 -1.36801e-05 -3.91007e-15 -6.15781e-05 5.83692e-16 0)
(0.000713976 -3.8477e-06 -1.11196e-15 -2.4324e-05 2.29715e-16 0)
(0.000866532 -8.32069e-07 -3.43562e-15 -0.000368872 1.74643e-15 0)
(0.000871359 -2.4281e-07 -2.72265e-15 -0.000374878 7.56123e-16 0)
(0.000603347 -3.19386e-05 -7.14706e-16 -0.000113326 -1.38857e-16 0)
(0.0010908 -5.65531e-05 4.2067e-16 -0.000457525 -1.24618e-15 0)
(0.00113168 0.000334596 3.91538e-15 -0.000335379 -8.09249e-16 0)
(0.000896144 -0.000487469 -4.82557e-15 -0.000440917 -1.74773e-15 0)
(0.000774088 -0.000120013 5.75061e-16 -0.000211145 -2.4793e-16 0)
(0.000464472 -0.000368874 9.88359e-16 -0.000379237 8.8578e-16 0)
(0.00167458 0.000288923 2.12482e-15 -0.000710257 -1.51875e-15 0)
(0.000268052 -0.00018276 4.24574e-16 -0.000157323 1.91504e-16 0)
(0.000765791 -0.0004346 -3.08694e-15 -0.000352859 9.59099e-16 0)
(0.000331323 -0.000220463 2.84495e-16 -0.0001406 3.14405e-16 0)
(0.00101243 -0.000256499 -2.54397e-15 -0.000412514 -1.14535e-15 0)
(0.00074786 -0.000127408 -1.48839e-15 -0.000182145 2.98698e-17 0)
(0.000995545 -0.000229019 -6.80012e-16 -0.000385391 -1.86716e-15 0)
(0.00312809 -0.000401073 3.09506e-14 -0.00220863 -7.02736e-15 0)
(0.00171504 0.000398742 -1.36672e-14 -0.000743088 -4.79651e-16 0)
(0.000943634 -0.000411979 5.66821e-15 -0.000640633 2.65337e-15 0)
(0.0014764 -0.000142202 6.06199e-15 -0.000751907 1.33433e-15 0)
(0.00127057 0.000220963 5.09467e-16 -0.000539677 -3.25261e-16 0)
(0.001472 -0.000142761 5.36463e-15 -0.000713191 3.53819e-15 0)
(0.00125244 -0.000232655 5.08231e-15 -0.000751489 3.70906e-16 0)
(0.00110954 -0.000332256 -3.27646e-15 -0.000492653 1.62576e-15 0)
(0.00121555 -0.000356276 -2.70747e-15 -0.00056031 -2.71349e-15 0)
(0.000143802 -0.000106034 7.68482e-16 -0.000468659 -8.42764e-16 0)
(0.000232373 6.0169e-05 6.78277e-16 -0.000718748 -9.99302e-16 0)
(0.000754898 -1.83856e-05 1.60982e-15 -0.000126622 6.06313e-16 0)
(0.000877109 -1.58803e-05 5.83734e-16 -0.000380017 -1.117e-15 0)
(0.000856511 -0.000114573 -7.94503e-16 -0.000278884 -2.41696e-16 0)
(0.00105574 -0.000347621 -1.72605e-16 -0.000500172 -5.12069e-16 0)
(0.00109647 -0.000311341 6.13658e-16 -0.000719068 1.85334e-15 0)