/*--------------------------------*- C++ -*----------------------------------*\
| =========                 |                                                 |
| \\      /  F ield         | OpenFOAM: The Open Source CFD Toolbox           |
|  \\    /   O peration     | Version:  v2012                                 |
|   \\  /    A nd           | Website:  www.openfoam.com                      |
|    \\/     M anipulation  |                                                 |
\*---------------------------------------------------------------------------*/
FoamFile
{
    version     2.0;
    format      ascii;
    class       pointSymmTensorField;
    location    "15";
    object      pEpsilon;
}
// * * * * * * * * * * * * * * * * * * * * * * * * * * * * * * * * * * * * * //

dimensions      [0 0 0 0 0 0 0];


internalField   nonuniform List<symmTensor> 
530
(
(0.000329495 -5.94124e-05 -2.51535e-15 -0.00132898 0 0)
(0.000727168 -1.56193e-05 -8.04044e-15 -3.36376e-05 0 0)
(0.000867739 -1.89165e-06 -1.20715e-14 -0.000373377 2.96977e-15 0)
(0.000770886 0.000243262 0 -0.000424754 -4.33464e-15 0)
(0.00625828 -0.000410872 0 -0.00424558 -8.81939e-14 0)
(0.000329495 -5.94124e-05 -2.51535e-15 -0.00132898 0 0)
(0.000727168 -1.56193e-05 -8.04044e-15 -3.36376e-05 0 0)
(0.000867739 -1.89165e-06 -1.20715e-14 -0.000373377 2.96977e-15 0)
(0.000770886 0.000243262 0 -0.000424754 -4.33464e-15 0)
(0.00625828 -0.000410872 0 -0.00424558 -8.81939e-14 0)
(0.000241284 -7.19634e-05 -1.73472e-16 -0.0006836 0 0)
(0.000159861 -9.631e-05 7.80626e-16 -0.000336365 0 0)
(0.000166064 -7.36643e-05 2.21177e-16 -0.000164344 0 0)
(0.000232793 -7.69909e-05 6.28837e-17 -9.52265e-05 0 0)
(0.000318531 -7.135e-05 -5.85469e-16 -7.93422e-05 0 0)
(0.000384138 -5.31288e-05 -8.84709e-16 -7.08641e-05 0 0)
(0.000454758 -4.78737e-05 -9.04225e-16 -6.99449e-05 0 0)
(0.000512653 -3.57532e-05 2.73436e-15 -8.70883e-05 0 0)
(0.000580683 -3.04518e-05 9.02056e-16 -0.00010213 0 0)
(0.000631201 -2.33807e-05 -2.33754e-15 -0.000125991 0 0)
(0.000681963 -2.6143e-05 -1.36393e-15 -0.000133215 0 0)
(0.000714191 -3.38962e-05 3.6646e-16 -0.000136725 0 0)
(0.000733192 -2.2607e-05 4.66857e-15 -0.000125153 0 0)
(0.000736969 -1.29661e-05 -5.66821e-15 -8.66892e-05 0 0)
(0.000753149 -8.25725e-06 3.49113e-15 -4.94512e-05 -1.15876e-15 0)
(0.000749331 -1.44477e-05 1.83664e-15 -7.25461e-05 2.36545e-15 0)
(0.000770088 -2.7714e-05 -6.62448e-15 -0.000115779 -8.17726e-16 0)
(0.000780688 -3.06756e-05 -7.54605e-16 -0.000158439 2.24476e-15 0)
(0.000808099 -3.39616e-05 -3.38271e-15 -0.000221548 -3.84214e-17 0)
(0.000830877 -3.24898e-05 4.5298e-15 -0.00027939 1.95502e-15 0)
(0.000841969 -2.50199e-05 4.34548e-15 -0.000320001 1.05452e-15 0)
(0.000860211 -1.27871e-05 1.39428e-15 -0.000357834 -6.59534e-15 0)
(0.000861978 -5.50434e-06 5.1608e-16 -0.000371227 -6.74238e-16 0)
(0.00087039 -3.05994e-06 -1.81062e-15 -0.000376588 2.56712e-15 0)
(0.000883671 -1.53508e-05 7.00178e-15 -0.000380009 1.4138e-15 0)
(0.000920386 -3.20055e-05 -1.27285e-15 -0.00039984 3.2686e-15 0)
(0.000971533 -3.02038e-05 8.25945e-15 -0.000419053 3.85569e-15 0)
(0.00104736 -3.58958e-05 -5.67688e-15 -0.000449693 -2.91379e-15 0)
(0.00112021 -5.29118e-05 3.32416e-15 -0.000468034 -1.95238e-15 0)
(0.00122815 -5.00257e-05 -1.40946e-15 -0.00051804 1.26581e-16 0)
(0.00132501 -6.06227e-05 -4.3032e-15 -0.000538466 3.26074e-16 0)
(0.00145248 -6.60863e-05 5.48281e-15 -0.000592247 -1.32191e-15 0)
(0.00155388 -8.04935e-05 3.83482e-15 -0.000610267 1.17958e-14 0)
(0.0016894 -6.02039e-05 -1.11781e-14 -0.000688098 -3.76543e-15 0)
(0.00181135 -5.04361e-05 1.2889e-14 -0.000796191 -1.63877e-14 0)
(0.001813 -3.34936e-05 9.60712e-15 -0.000681832 7.6485e-15 0)
(0.00185694 4.26337e-06 -2.78244e-14 -0.000750854 2.79724e-15 0)
(0.00180719 7.12821e-05 -5.37168e-15 -0.000746954 -7.2815e-15 0)
(0.00166229 0.000124454 9.08914e-15 -0.000690746 2.71484e-15 0)
(0.00140317 0.000168982 1.81983e-15 -0.000648633 -3.90963e-15 0)
(0.00100922 0.00014272 -1.04192e-15 -0.000535967 -3.34585e-15 0)
(0.000735908 0.000167653 5.4429e-15 -0.000398433 -2.28225e-15 0)
(0.00133176 0.000202525 0 -0.000457136 -2.99999e-15 0)
(0.00194194 0.000178013 0 -0.000575215 7.76072e-15 0)
(0.00294374 0.000158468 0 -0.00148014 5.85252e-15 0)
(0.00455038 -0.000215764 0 -0.00312196 2.56099e-14 0)
(0.00533641 -0.00185249 3.12809e-14 -0.00440086 5.44974e-15 0)
(0.00250329 -0.001498 -1.04365e-14 -0.00100906 5.49853e-15 0)
(0.00101793 -0.000633267 -5.39174e-15 -0.000303525 2.31098e-15 0)
(0.000505973 -0.000189108 -1.32381e-15 -0.000326715 -1.84911e-15 0)
(0.000271435 5.10033e-05 6.42932e-16 -0.000607428 8.48388e-16 0)
(0.000310875 0.000205858 2.68665e-15 -0.000960665 -4.02808e-15 0)
(0.000357456 0.00017251 -2.13154e-15 -0.00123351 -2.73612e-15 0)
(0.000241284 -7.19634e-05 -1.73472e-16 -0.0006836 0 0)
(0.000159861 -9.631e-05 7.80626e-16 -0.000336365 0 0)
(0.000166064 -7.36643e-05 2.21177e-16 -0.000164344 0 0)
(0.000232793 -7.69909e-05 6.28837e-17 -9.52265e-05 0 0)
(0.000318531 -7.135e-05 -5.85469e-16 -7.93422e-05 0 0)
(0.000384138 -5.31288e-05 -8.84709e-16 -7.08641e-05 0 0)
(0.000454758 -4.78737e-05 -9.04225e-16 -6.99449e-05 0 0)
(0.000512653 -3.57532e-05 2.73436e-15 -8.70883e-05 0 0)
(0.000580683 -3.04518e-05 9.02056e-16 -0.00010213 0 0)
(0.000631201 -2.33807e-05 -2.33754e-15 -0.000125991 0 0)
(0.000681963 -2.6143e-05 -1.36393e-15 -0.000133215 0 0)
(0.000714191 -3.38962e-05 3.6646e-16 -0.000136725 0 0)
(0.000733192 -2.2607e-05 4.66857e-15 -0.000125153 0 0)
(0.000736969 -1.29661e-05 -5.66821e-15 -8.66892e-05 0 0)
(0.000753149 -8.25725e-06 3.49113e-15 -4.94512e-05 -1.15876e-15 0)
(0.000749331 -1.44477e-05 1.83664e-15 -7.25461e-05 2.36545e-15 0)
(0.000770088 -2.7714e-05 -6.62448e-15 -0.000115779 -8.17726e-16 0)
(0.000780688 -3.06756e-05 -7.54605e-16 -0.000158439 2.24476e-15 0)
(0.000808099 -3.39616e-05 -3.38271e-15 -0.000221548 -3.84214e-17 0)
(0.000830877 -3.24898e-05 4.5298e-15 -0.00027939 1.95502e-15 0)
(0.000841969 -2.50199e-05 4.34548e-15 -0.000320001 1.05452e-15 0)
(0.000860211 -1.27871e-05 1.39428e-15 -0.000357834 -6.59534e-15 0)
(0.000861978 -5.50434e-06 5.1608e-16 -0.000371227 -6.74238e-16 0)
(0.00087039 -3.05994e-06 -1.81062e-15 -0.000376588 2.56712e-15 0)
(0.000883671 -1.53508e-05 7.00178e-15 -0.000380009 1.4138e-15 0)
(0.000920386 -3.20055e-05 -1.27285e-15 -0.00039984 3.2686e-15 0)
(0.000971533 -3.02038e-05 8.25945e-15 -0.000419053 3.85569e-15 0)
(0.00104736 -3.58958e-05 -5.67688e-15 -0.000449693 -2.91379e-15 0)
(0.00112021 -5.29118e-05 3.32416e-15 -0.000468034 -1.95238e-15 0)
(0.00122815 -5.00257e-05 -1.40946e-15 -0.00051804 1.26581e-16 0)
(0.00132501 -6.06227e-05 -4.3032e-15 -0.000538466 3.26074e-16 0)
(0.00145248 -6.60863e-05 5.48281e-15 -0.000592247 -1.32191e-15 0)
(0.00155388 -8.04935e-05 3.83482e-15 -0.000610267 1.17958e-14 0)
(0.0016894 -6.02039e-05 -1.11781e-14 -0.000688098 -3.76543e-15 0)
(0.00181135 -5.04361e-05 1.2889e-14 -0.000796191 -1.63877e-14 0)
(0.001813 -3.34936e-05 9.60712e-15 -0.000681832 7.6485e-15 0)
(0.00185694 4.26337e-06 -2.78244e-14 -0.000750854 2.79724e-15 0)
(0.00180719 7.12821e-05 -5.37168e-15 -0.000746954 -7.2815e-15 0)
(0.00166229 0.000124454 9.08914e-15 -0.000690746 2.71484e-15 0)
(0.00140317 0.000168982 1.81983e-15 -0.000648633 -3.90963e-15 0)
(0.00100922 0.00014272 -1.04192e-15 -0.000535967 -3.34585e-15 0)
(0.000735908 0.000167653 5.4429e-15 -0.000398433 -2.28225e-15 0)
(0.00133176 0.000202525 0 -0.000457136 -2.99999e-15 0)
(0.00194194 0.000178013 0 -0.000575215 7.76072e-15 0)
(0.00294374 0.000158468 0 -0.00148014 5.85252e-15 0)
(0.00455038 -0.000215764 0 -0.00312196 2.56099e-14 0)
(0.00533641 -0.00185249 3.12809e-14 -0.00440086 5.44974e-15 0)
(0.00250329 -0.001498 -1.04365e-14 -0.00100906 5.49853e-15 0)
(0.00101793 -0.000633267 -5.39174e-15 -0.000303525 2.31098e-15 0)
(0.000505973 -0.000189108 -1.32381e-15 -0.000326715 -1.84911e-15 0)
(0.000271435 5.10033e-05 6.42932e-16 -0.000607428 8.48388e-16 0)
(0.000310875 0.000205858 2.68665e-15 -0.000960665 -4.02808e-15 0)
(0.000357456 0.00017251 -2.13154e-15 -0.00123351 -2.73612e-15 0)
(0.000905534 -0.000428041 -1.5027e-15 -0.000468445 1.13258e-15 0)
(0.000806229 -0.000274762 6.03901e-15 -0.000264282 -1.14106e-15 0)
(0.00142696 -0.000146504 1.49577e-14 -0.000795164 -3.05149e-15 0)
(0.00101776 -0.000338116 3.73399e-15 -0.000410524 6.29122e-15 0)
(0.000620932 -0.000325711 1.38778e-15 -0.000197127 -3.04525e-16 0)
(0.000884853 -0.000148738 1.64799e-15 -0.000327877 -7.72901e-16 0)
(0.000752851 -0.000138784 -2.97939e-15 -0.000184872 -3.91939e-16 0)
(0.00190171 0.000170169 7.19314e-15 -0.000937633 -1.11239e-15 0)
(0.000485869 -0.000377844 8.45678e-16 -0.000413188 1.61621e-15 0)
(0.00134107 -0.000251091 5.9848e-15 -0.000616941 -1.43684e-15 0)
(0.000653036 -0.000202692 -4.46691e-16 -0.000155763 1.03524e-15 0)
(0.00100168 -0.000232786 -1.71304e-16 -0.000409484 -2.84129e-15 0)
(0.000448154 -0.000293945 3.38271e-16 -0.000166903 1.37321e-16 0)
(0.000882456 -0.000347664 6.33933e-15 -0.000626132 1.67943e-15 0)
(0.000814901 -0.000134596 6.63532e-16 -0.000244246 -1.58504e-15 0)
(0.00126926 -0.000266085 -7.28584e-16 -0.000548065 -4.95196e-15 0)
(0.00081626 -0.000346161 2.33537e-15 -0.00029334 8.8498e-17 0)
(0.000827287 -0.000400552 -4.11997e-16 -0.000327625 2.19334e-15 0)
(0.00167429 0.000126671 -1.36561e-14 -0.00082727 5.8059e-16 0)
(0.00135534 -0.000189999 -7.22729e-15 -0.000761564 1.77213e-15 0)
(0.000685621 -0.000111974 2.24864e-15 -0.000149815 9.39055e-16 0)
(0.00097784 -0.000130481 2.73653e-15 -0.000401224 3.00758e-15 0)
(0.00074826 -4.8787e-05 -5.29091e-16 -0.000126396 -1.05732e-15 0)
(0.000887331 -5.33515e-05 2.93602e-15 -0.000359794 1.59866e-15 0)
(0.00111971 -0.000338863 -1.73906e-15 -0.000647412 1.54065e-15 0)
(0.00158613 -6.80059e-05 6.96383e-15 -0.000745881 7.29343e-15 0)
(0.00116492 -0.000204401 6.50521e-18 -0.00049468 -7.92145e-16 0)
(0.000533834 -0.000176896 2.83194e-15 -0.000110299 3.5417e-16 0)
(0.000832504 -0.000207206 8.19657e-16 -0.000271013 1.95434e-15 0)
(0.000739878 -0.000211132 2.86229e-16 -0.000202222 3.82215e-16 0)
(0.00162259 0.000369075 -1.08249e-14 -0.000600764 4.38993e-15 0)
(0.0010557 -0.000370312 1.73581e-15 -0.000470707 6.45155e-15 0)
(0.000774067 -9.19516e-05 -4.0289e-15 -0.00017596 -1.46672e-16 0)
(0.000850972 -9.04182e-05 5.0372e-15 -0.000298772 -1.85236e-15 0)
(0.00091278 -0.00022752 -8.80372e-16 -0.00034503 -1.56681e-15 0)
(0.00275497 -0.000376006 7.41865e-15 -0.00128926 -1.42236e-14 0)
(0.000657967 -0.00040939 -5.0307e-16 -0.00029069 5.17707e-17 0)
(0.000433494 -0.000187531 6.93889e-16 -9.29889e-05 -4.08304e-16 0)
(0.000275907 -0.000246915 3.98986e-16 -0.000216545 1.96664e-16 0)
(0.000254651 -0.000167408 3.68629e-17 -0.000501694 5.52198e-16 0)
(0.000777364 -0.000427097 -4.27392e-15 -0.000491869 2.16217e-15 0)
(0.000517428 -0.000234836 -1.47343e-15 -0.000610268 -2.61794e-15 0)
(0.000933595 -0.000310897 -3.747e-15 -0.000356968 -1.06936e-15 0)
(0.000664451 -0.000279474 -2.13588e-15 -0.000181363 -1.48976e-15 0)
(0.00149892 -0.000169587 1.13906e-14 -0.00066351 1.56369e-15 0)
(0.00165367 0.00033513 1.01508e-15 -0.000774884 -4.56883e-15 0)
(0.00126775 -0.00019967 4.893e-15 -0.000544872 -7.54022e-15 0)
(0.000722307 -6.86087e-05 -5.85469e-16 -0.000146363 5.14251e-16 0)
(0.000919896 -6.82847e-05 -3.40439e-16 -0.000382753 -1.7686e-15 0)
(0.000937539 -0.000225701 -4.3509e-15 -0.000617597 -9.80119e-16 0)
(0.000619618 -0.000103339 2.3679e-15 -0.000126327 -1.48974e-15 0)
(0.00104464 -0.00013966 5.5381e-15 -0.000434356 -1.47858e-15 0)
(0.000534267 -0.000402209 7.09068e-16 -0.000299648 -1.91599e-16 0)
(0.00135119 -0.000224659 8.52617e-15 -0.000698285 8.95009e-16 0)
(0.00108339 -0.000369288 1.53306e-15 -0.000548673 -2.46561e-15 0)
(0.00166357 2.10428e-05 -1.91036e-15 -0.000908517 -4.10533e-15 0)
(0.00160071 -0.000104028 4.9689e-15 -0.000717314 -5.24158e-15 0)
(0.00171798 -0.000339734 -9.63151e-15 -0.00095011 -4.69297e-15 0)
(0.000788528 -0.000163208 2.84061e-16 -0.000221435 -1.56477e-15 0)
(0.000900827 -0.000278561 -4.17418e-15 -0.000331815 5.14115e-16 0)
(0.000738613 -0.000262107 -2.31152e-15 -0.00021325 1.72226e-15 0)
(0.000315202 -0.000166485 -1.0842e-17 -0.000105653 5.70799e-16 0)
(0.000551698 -0.0003397 -2.60209e-16 -0.000192545 7.96719e-17 0)
(0.00125602 -0.000225601 -1.1807e-15 -0.00075987 -1.13136e-15 0)
(0.000792823 -7.56254e-05 -1.06252e-16 -0.000206934 9.72902e-16 0)
(0.00171043 3.68186e-05 -4.52329e-15 -0.000786234 6.94323e-15 0)
(0.0012455 -0.00029758 2.45247e-15 -0.000561171 -5.53458e-15 0)
(0.00223859 -5.67145e-06 -1.44843e-14 -0.000779559 5.42968e-15 0)
(0.00112562 -0.000127354 -4.51028e-16 -0.000477884 -1.36203e-16 0)
(0.000560044 -8.45029e-05 2.17491e-15 -0.0001014 4.22602e-16 0)
(0.000880308 -0.000370105 2.71918e-15 -0.00034262 1.02742e-15 0)
(0.00111764 -0.000333361 -1.49511e-15 -0.000483637 -1.82756e-15 0)
(0.000756716 -0.000364139 -3.50631e-15 -0.000267574 -1.20753e-15 0)
(0.000655137 -0.000220414 9.3133e-16 -0.000596523 -2.1619e-15 0)
(0.000843182 -0.000161257 -2.01445e-15 -0.000285578 -1.95177e-15 0)
(0.000859581 -4.94766e-05 -2.49583e-15 -0.000331323 -1.62346e-15 0)
(0.000757311 -5.17553e-05 -3.79037e-15 -0.000129121 2.36083e-15 0)
(0.00158081 -2.69062e-05 -8.39172e-16 -0.000811441 -1.08008e-14 0)
(0.00143499 -0.000159225 1.30646e-14 -0.000612144 -3.58437e-15 0)
(0.000680281 -0.000376722 1.12974e-15 -0.000533157 -3.69062e-15 0)
(0.000795831 -0.000231418 6.89553e-15 -0.000244479 4.62548e-16 0)
(0.000741621 -2.74271e-05 3.48679e-15 -0.000100226 7.0867e-16 0)
(0.000872607 -1.62514e-05 3.62124e-16 -0.000363325 -1.50704e-16 0)
(0.000849104 -0.000310768 2.292e-15 -0.00030145 2.54273e-15 0)
(0.000824799 -7.51363e-05 2.20093e-15 -0.000257807 2.13005e-15 0)
(0.000212217 -0.000160478 -1.79978e-16 -0.000323748 -3.47555e-16 0)
(0.000688806 -0.000385576 -3.30248e-15 -0.000260977 -2.76472e-17 0)
(0.00113586 -0.000284742 4.43547e-15 -0.000476805 -6.21343e-15 0)
(0.00104465 -0.00029198 8.93383e-16 -0.000417181 1.97921e-15 0)
(0.000455875 -0.000120605 -7.58942e-16 -8.307e-05 7.48739e-16 0)
(0.000513983 -0.000234591 -7.71952e-16 -0.000125149 1.33599e-15 0)
(0.000689876 -0.000180236 -1.29671e-15 -0.000168746 5.34376e-16 0)
(0.000610331 -0.000230086 -7.63278e-16 -0.000147348 4.48453e-16 0)
(0.000730067 -0.000160397 -2.82977e-15 -0.000178928 -8.01632e-17 0)
(0.000903052 -0.000409601 1.43874e-15 -0.000401177 7.83336e-17 0)
(0.000964865 -0.000382755 -4.62521e-15 -0.0004031 3.6375e-16 0)
(0.000854684 -0.000243457 3.64726e-15 -0.000294424 7.29329e-16 0)
(0.000874492 -9.94449e-05 -3.30899e-15 -0.000333672 7.33192e-17 0)
(0.000756666 -9.49502e-05 -1.89302e-15 -0.000159808 1.66449e-15 0)
(0.00167489 0.000225192 7.65284e-15 -0.000776661 2.42428e-15 0)
(0.00144717 0.000327925 1.64365e-15 -0.000632905 3.61907e-15 0)
(0.000944481 -0.000285762 -1.41705e-15 -0.00050757 -3.94324e-15 0)
(0.000925315 -0.000167731 -2.09034e-15 -0.000359797 -2.98562e-15 0)
(0.000652509 -5.51046e-05 8.50015e-16 -0.000132191 1.96349e-15 0)
(0.000939872 -0.000377012 5.5934e-15 -0.000604692 1.94845e-15 0)
(0.00101065 -7.37256e-05 3.46945e-17 -0.000429697 -8.53674e-16 0)
(0.0017187 -1.97625e-05 8.16838e-15 -0.000751963 5.64436e-15 0)
(0.00097844 -0.000196168 -1.73906e-15 -0.000394094 -3.63872e-15 0)
(0.000718624 -0.000427575 -5.43185e-16 -0.000385334 -1.18842e-15 0)
(0.000737687 -4.00351e-05 9.32414e-16 -0.000133307 -1.51348e-16 0)
(0.000901934 -3.56172e-05 -3.47162e-15 -0.000375345 -3.02235e-15 0)
(0.000745225 -0.000300947 -1.27068e-15 -0.000231343 -7.43356e-17 0)
(0.000873733 -0.000196474 4.52763e-15 -0.000316149 2.4381e-16 0)
(0.00170687 -8.59499e-05 1.41217e-15 -0.000960838 2.2443e-16 0)
(0.00176614 0.00025767 1.2194e-14 -0.000899323 1.94506e-15 0)
(0.00124739 -0.000264584 1.12258e-14 -0.000727245 -1.6797e-15 0)
(0.00115398 0.00019712 5.77012e-15 -0.000389126 4.08744e-16 0)
(0.00126953 -0.00012438 -6.07153e-15 -0.00053717 -2.41235e-17 0)
(0.00143023 -0.000141646 -1.20574e-14 -0.000825927 1.06431e-14 0)
(0.000361944 -3.07952e-05 -2.56956e-15 -0.000739437 1.05317e-15 0)
(0.000785899 -0.000125266 4.91577e-15 -0.000210343 3.22821e-16 0)
(0.000933795 -0.000399232 -1.9288e-15 -0.000503568 -1.79788e-15 0)
(0.000769167 -0.000189218 -4.04191e-15 -0.000213388 -2.38524e-15 0)
(0.00308548 -0.00109024 -5.94251e-15 -0.00224108 2.33949e-14 0)
(0.00201347 0.000241629 -2.32689e-14 -0.000807814 -5.42101e-17 0)
(0.00146306 -0.000160071 -1.00614e-15 -0.000716648 3.42039e-15 0)
(0.00108273 -0.000225286 -2.02746e-15 -0.000435281 -9.40816e-16 0)
(0.000720049 -0.000119771 2.1684e-18 -0.000163995 -8.93247e-16 0)
(0.000904408 -0.000114611 -2.4503e-15 -0.000358121 1.61248e-15 0)
(0.00470159 -0.00089287 4.38937e-14 -0.00333143 2.75604e-15 0)
(0.000351505 -0.000127589 -1.78026e-15 -8.0274e-05 1.68242e-16 0)
(0.000429512 -0.000366189 1.25334e-15 -0.000311814 1.02545e-15 0)
(0.000255613 -0.0001336 3.51282e-16 -0.000140382 8.02225e-17 0)
(0.000296082 -1.19133e-06 7.43763e-16 -0.000823288 -1.40811e-15 0)
(0.000385327 -0.00030212 5.63785e-17 -0.000488787 1.98206e-16 0)
(0.00141188 -0.000129268 -1.99612e-14 -0.000597826 9.87166e-16 0)
(0.00101957 -0.000391049 1.86808e-15 -0.000479693 8.8376e-16 0)
(0.000499565 -8.21287e-05 -2.00361e-15 -8.25075e-05 -3.98821e-16 0)
(0.000317326 -0.000288887 8.76035e-16 -0.000352831 -1.36271e-16 0)
(0.00205735 2.66296e-06 4.87512e-15 -0.000952772 1.22298e-15 0)
(0.000928611 -0.00034042 8.44593e-15 -0.000359495 1.90779e-15 0)
(0.000771895 -5.05289e-05 -6.245e-16 -0.000154312 3.37488e-15 0)
(0.000840208 -4.92676e-05 -8.89046e-17 -0.000298321 4.37679e-16 0)
(0.000955743 -6.5156e-05 -1.86049e-15 -0.000403148 -1.28207e-15 0)
(0.000621855 -0.000404643 2.2508e-15 -0.000399877 2.13757e-15 0)
(0.000692508 -4.8592e-05 -4.16767e-15 -0.000139015 2.94479e-16 0)
(0.00351706 -0.000381623 3.89351e-14 -0.00193145 -1.00701e-14 0)
(0.000838546 -0.000121379 -2.96204e-15 -0.000276189 1.71019e-15 0)
(0.00160399 0.000128869 -1.11857e-14 -0.000400123 3.06612e-15 0)
(0.000373483 1.19851e-05 -1.30104e-16 -0.00063996 4.87891e-18 0)
(0.000694242 -0.000325163 2.06432e-15 -0.00021736 -7.71816e-17 0)
(0.00177466 0.000371084 -7.86182e-15 -0.000819845 -5.03395e-15 0)
(0.00059856 -0.000159092 -1.39212e-15 -0.000130056 -1.38896e-15 0)
(0.000422551 -0.000240192 -1.27068e-15 -0.000111019 -1.49637e-16 0)
(0.00122473 -0.000268665 1.76291e-15 -0.00052544 -4.77225e-15 0)
(0.000559426 -0.000380809 7.22079e-16 -0.000248886 -2.96157e-16 0)
(0.0012363 -0.000311437 8.84817e-15 -0.000636338 2.14672e-15 0)
(0.000586234 -0.000271151 -2.47198e-16 -0.000158662 -8.27721e-16 0)
(0.00155977 -3.27299e-05 -7.68157e-15 -0.000844463 3.65214e-15 0)
(0.000775469 -0.000427991 -7.68916e-15 -0.000366467 1.87547e-15 0)
(0.00166298 -0.000106438 -1.40881e-14 -0.000737995 1.19479e-15 0)
(0.000310364 -0.00024889 5.07407e-16 -0.000156286 2.81791e-16 0)
(0.000984383 -0.000274996 -5.68339e-15 -0.000387694 6.35342e-16 0)
(0.000182546 -6.66643e-05 1.36826e-15 -0.000482756 -1.49423e-15 0)
(0.00147979 -0.00011332 9.80444e-15 -0.000743052 -3.03577e-17 0)
(0.00147288 -0.000177646 8.63675e-15 -0.000668848 2.2218e-15 0)
(0.000858184 -0.000126805 -3.84892e-15 -0.000305215 -7.94585e-16 0)
(0.000869955 -2.346e-05 1.79761e-15 -0.000351474 1.26757e-15 0)
(0.000743137 -2.91012e-05 7.01045e-15 -0.000101063 3.28944e-15 0)
(0.00136271 -0.000513727 -6.9519e-15 -0.00067976 -4.17418e-15 0)
(0.000819848 -0.000176202 -3.38922e-15 -0.000254147 1.67096e-15 0)
(0.000741551 -8.87616e-05 1.63498e-15 -0.00015402 6.31904e-16 0)
(0.00119375 -0.00032274 -7.64037e-15 -0.000534039 -1.39957e-15 0)
(0.00121395 -0.000103729 -1.06859e-14 -0.000526604 3.78251e-15 0)
(0.00119413 -0.000228415 1.00918e-14 -0.000699365 -2.18358e-15 0)
(0.000957773 -0.000247169 -3.18755e-16 -0.000372045 4.12539e-16 0)
(0.0013555 -0.000239393 -5.35704e-15 -0.000599042 -3.31386e-15 0)
(0.000706104 -0.000227621 3.22442e-15 -0.00018942 -2.05321e-17 0)
(0.000937973 -0.000113306 -7.01479e-15 -0.000382789 -8.90266e-16 0)
(0.00068193 -0.000254333 -2.23779e-15 -0.00018227 2.21231e-15 0)
(0.000765505 -0.000244382 3.55401e-15 -0.000221076 -1.00092e-15 0)
(0.0007593 -0.000418398 -2.08384e-15 -0.000325261 7.41459e-16 0)
(0.00108636 -0.000320672 5.1749e-15 -0.00070915 3.98119e-15 0)
(0.00133174 -0.000208598 1.14925e-16 -0.000564504 -7.98705e-15 0)
(0.00157073 0.000243809 -1.49918e-15 -0.000697811 -2.21394e-15 0)
(0.000597706 -0.000152818 1.05276e-15 -0.000465343 -8.36462e-16 0)
(0.000709915 -0.000316333 -7.56773e-16 -0.000618397 3.58193e-15 0)
(0.000434997 -0.000333097 -9.32414e-16 -0.000225025 -5.6304e-16 0)
(0.00114815 0.000286282 9.73071e-16 -0.000438594 -7.80626e-16 0)
(0.00171615 0.000120125 -1.66636e-14 -0.000766707 6.72314e-15 0)
(0.000654394 -0.000149778 2.89482e-15 -0.000145938 7.43305e-16 0)
(0.000610375 -5.24201e-05 -7.37257e-16 -0.000112629 -3.39432e-16 0)
(0.000189352 -0.000111356 -6.50521e-17 -0.000206169 3.18552e-16 0)
(0.00155826 -9.17955e-05 1.36501e-15 -0.000667642 -2.62241e-15 0)
(0.00121001 -0.000335549 -6.95082e-15 -0.000594629 3.1305e-15 0)
(0.00107285 -7.82167e-05 2.8341e-15 -0.000456935 5.56738e-16 0)
(0.00087863 -0.000334753 -6.39029e-15 -0.000331747 -1.49491e-15 0)
(0.000799067 -0.000199667 -7.22512e-15 -0.000243946 7.71545e-16 0)
(0.00105009 -0.000191624 4.43872e-15 -0.000434106 4.45566e-15 0)
(0.00104374 -0.000269794 -2.27249e-15 -0.000711487 2.67093e-15 0)
(0.000737864 -2.59038e-05 -1.88651e-16 -0.000114056 1.61264e-15 0)
(0.000877719 -1.49553e-05 -1.14492e-15 -0.000372753 -1.5744e-15 0)
(0.00135658 -0.000110026 2.70183e-15 -0.000576268 -1.01725e-15 0)
(0.000770984 -0.000126882 -2.38524e-17 -0.00019233 -9.07138e-16 0)
(0.000739484 -7.99436e-06 3.01408e-16 -6.27584e-05 1.42963e-15 0)
(0.000868489 -4.09824e-06 1.40296e-15 -0.000371235 2.7471e-16 0)
(0.0011279 -0.000351273 -4.34765e-15 -0.000529727 -5.12557e-16 0)
(0.000905534 -0.000428041 -1.5027e-15 -0.000468445 1.13258e-15 0)
(0.000806229 -0.000274762 6.03901e-15 -0.000264282 -1.14106e-15 0)
(0.00142696 -0.000146504 1.49577e-14 -0.000795164 -3.05149e-15 0)
(0.00101776 -0.000338116 3.73399e-15 -0.000410524 6.29122e-15 0)
(0.000620932 -0.000325711 1.38778e-15 -0.000197127 -3.04525e-16 0)
(0.000884853 -0.000148738 1.64799e-15 -0.000327877 -7.72901e-16 0)
(0.000752851 -0.000138784 -2.97939e-15 -0.000184872 -3.91939e-16 0)
(0.00190171 0.000170169 7.19314e-15 -0.000937633 -1.11239e-15 0)
(0.000485869 -0.000377844 8.45678e-16 -0.000413188 1.61621e-15 0)
(0.00134107 -0.000251091 5.9848e-15 -0.000616941 -1.43684e-15 0)
(0.000653036 -0.000202692 -4.46691e-16 -0.000155763 1.03524e-15 0)
(0.00100168 -0.000232786 -1.71304e-16 -0.000409484 -2.84129e-15 0)
(0.000448154 -0.000293945 3.38271e-16 -0.000166903 1.37321e-16 0)
(0.000882456 -0.000347664 6.33933e-15 -0.000626132 1.67943e-15 0)
(0.000814901 -0.000134596 6.63532e-16 -0.000244246 -1.58504e-15 0)
(0.00126926 -0.000266085 -7.28584e-16 -0.000548065 -4.95196e-15 0)
(0.00081626 -0.000346161 2.33537e-15 -0.00029334 8.8498e-17 0)
(0.000827287 -0.000400552 -4.11997e-16 -0.000327625 2.19334e-15 0)
(0.00167429 0.000126671 -1.36561e-14 -0.00082727 5.8059e-16 0)
(0.00135534 -0.000189999 -7.22729e-15 -0.000761564 1.77213e-15 0)
(0.000685621 -0.000111974 2.24864e-15 -0.000149815 9.39055e-16 0)
(0.00097784 -0.000130481 2.73653e-15 -0.000401224 3.00758e-15 0)
(0.00074826 -4.8787e-05 -5.29091e-16 -0.000126396 -1.05732e-15 0)
(0.000887331 -5.33515e-05 2.93602e-15 -0.000359794 1.59866e-15 0)
(0.00111971 -0.000338863 -1.73906e-15 -0.000647412 1.54065e-15 0)
(0.00158613 -6.80059e-05 6.96383e-15 -0.000745881 7.29343e-15 0)
(0.00116492 -0.000204401 6.50521e-18 -0.00049468 -7.92145e-16 0)
(0.000533834 -0.000176896 2.83194e-15 -0.000110299 3.5417e-16 0)
(0.000832504 -0.000207206 8.19657e-16 -0.000271013 1.95434e-15 0)
(0.000739878 -0.000211132 2.86229e-16 -0.000202222 3.82215e-16 0)
(0.00162259 0.000369075 -1.08249e-14 -0.000600764 4.38993e-15 0)
(0.0010557 -0.000370312 1.73581e-15 -0.000470707 6.45155e-15 0)
(0.000774067 -9.19516e-05 -4.0289e-15 -0.00017596 -1.46672e-16 0)
(0.000850972 -9.04182e-05 5.0372e-15 -0.000298772 -1.85236e-15 0)
(0.00091278 -0.00022752 -8.80372e-16 -0.00034503 -1.56681e-15 0)
(0.00275497 -0.000376006 7.41865e-15 -0.00128926 -1.42236e-14 0)
(0.000657967 -0.00040939 -5.0307e-16 -0.00029069 5.17707e-17 0)
(0.000433494 -0.000187531 6.93889e-16 -9.29889e-05 -4.08304e-16 0)
(0.000275907 -0.000246915 3.98986e-16 -0.000216545 1.96664e-16 0)
(0.000254651 -0.000167408 3.68629e-17 -0.000501694 5.52198e-16 0)
(0.000777364 -0.000427097 -4.27392e-15 -0.000491869 2.16217e-15 0)
(0.000517428 -0.000234836 -1.47343e-15 -0.000610268 -2.61794e-15 0)
(0.000933595 -0.000310897 -3.747e-15 -0.000356968 -1.06936e-15 0)
(0.000664451 -0.000279474 -2.13588e-15 -0.000181363 -1.48976e-15 0)
(0.00149892 -0.000169587 1.13906e-14 -0.00066351 1.56369e-15 0)
(0.00165367 0.00033513 1.01508e-15 -0.000774884 -4.56883e-15 0)
(0.00126775 -0.00019967 4.893e-15 -0.000544872 -7.54022e-15 0)
(0.000722307 -6.86087e-05 -5.85469e-16 -0.000146363 5.14251e-16 0)
(0.000919896 -6.82847e-05 -3.40439e-16 -0.000382753 -1.7686e-15 0)
(0.000937539 -0.000225701 -4.3509e-15 -0.000617597 -9.80119e-16 0)
(0.000619618 -0.000103339 2.3679e-15 -0.000126327 -1.48974e-15 0)
(0.00104464 -0.00013966 5.5381e-15 -0.000434356 -1.47858e-15 0)
(0.000534267 -0.000402209 7.09068e-16 -0.000299648 -1.91599e-16 0)
(0.00135119 -0.000224659 8.52617e-15 -0.000698285 8.95009e-16 0)
(0.00108339 -0.000369288 1.53306e-15 -0.000548673 -2.46561e-15 0)
(0.00166357 2.10428e-05 -1.91036e-15 -0.000908517 -4.10533e-15 0)
(0.00160071 -0.000104028 4.9689e-15 -0.000717314 -5.24158e-15 0)
(0.00171798 -0.000339734 -9.63151e-15 -0.00095011 -4.69297e-15 0)
(0.000788528 -0.000163208 2.84061e-16 -0.000221435 -1.56477e-15 0)
(0.000900827 -0.000278561 -4.17418e-15 -0.000331815 5.14115e-16 0)
(0.000738613 -0.000262107 -2.31152e-15 -0.00021325 1.72226e-15 0)
(0.000315202 -0.000166485 -1.0842e-17 -0.000105653 5.70799e-16 0)
(0.000551698 -0.0003397 -2.60209e-16 -0.000192545 7.96719e-17 0)
(0.00125602 -0.000225601 -1.1807e-15 -0.00075987 -1.13136e-15 0)
(0.000792823 -7.56254e-05 -1.06252e-16 -0.000206934 9.72902e-16 0)
(0.00171043 3.68186e-05 -4.52329e-15 -0.000786234 6.94323e-15 0)
(0.0012455 -0.00029758 2.45247e-15 -0.000561171 -5.53458e-15 0)
(0.00223859 -5.67145e-06 -1.44843e-14 -0.000779559 5.42968e-15 0)
(0.00112562 -0.000127354 -4.51028e-16 -0.000477884 -1.36203e-16 0)
(0.000560044 -8.45029e-05 2.17491e-15 -0.0001014 4.22602e-16 0)
(0.000880308 -0.000370105 2.71918e-15 -0.00034262 1.02742e-15 0)
(0.00111764 -0.000333361 -1.49511e-15 -0.000483637 -1.82756e-15 0)
(0.000756716 -0.000364139 -3.50631e-15 -0.000267574 -1.20753e-15 0)
(0.000655137 -0.000220414 9.3133e-16 -0.000596523 -2.1619e-15 0)
(0.000843182 -0.000161257 -2.01445e-15 -0.000285578 -1.95177e-15 0)
(0.000859581 -4.94766e-05 -2.49583e-15 -0.000331323 -1.62346e-15 0)
(0.000757311 -5.17553e-05 -3.79037e-15 -0.000129121 2.36083e-15 0)
(0.00158081 -2.69062e-05 -8.39172e-16 -0.000811441 -1.08008e-14 0)
(0.00143499 -0.000159225 1.30646e-14 -0.000612144 -3.58437e-15 0)
(0.000680281 -0.000376722 1.12974e-15 -0.000533157 -3.69062e-15 0)
(0.000795831 -0.000231418 6.89553e-15 -0.000244479 4.62548e-16 0)
(0.000741621 -2.74271e-05 3.48679e-15 -0.000100226 7.0867e-16 0)
(0.000872607 -1.62514e-05 3.62124e-16 -0.000363325 -1.50704e-16 0)
(0.000849104 -0.000310768 2.292e-15 -0.00030145 2.54273e-15 0)
(0.000824799 -7.51363e-05 2.20093e-15 -0.000257807 2.13005e-15 0)
(0.000212217 -0.000160478 -1.79978e-16 -0.000323748 -3.47555e-16 0)
(0.000688806 -0.000385576 -3.30248e-15 -0.000260977 -2.76472e-17 0)
(0.00113586 -0.000284742 4.43547e-15 -0.000476805 -6.21343e-15 0)
(0.00104465 -0.00029198 8.93383e-16 -0.000417181 1.97921e-15 0)
(0.000455875 -0.000120605 -7.58942e-16 -8.307e-05 7.48739e-16 0)
(0.000513983 -0.000234591 -7.71952e-16 -0.000125149 1.33599e-15 0)
(0.000689876 -0.000180236 -1.29671e-15 -0.000168746 5.34376e-16 0)
(0.000610331 -0.000230086 -7.63278e-16 -0.000147348 4.48453e-16 0)
(0.000730067 -0.000160397 -2.82977e-15 -0.000178928 -8.01632e-17 0)
(0.000903052 -0.000409601 1.43874e-15 -0.000401177 7.83336e-17 0)
(0.000964865 -0.000382755 -4.62521e-15 -0.0004031 3.6375e-16 0)
(0.000854684 -0.000243457 3.64726e-15 -0.000294424 7.29329e-16 0)
(0.000874492 -9.94449e-05 -3.30899e-15 -0.000333672 7.33192e-17 0)
(0.000756666 -9.49502e-05 -1.89302e-15 -0.000159808 1.66449e-15 0)
(0.00167489 0.000225192 7.65284e-15 -0.000776661 2.42428e-15 0)
(0.00144717 0.000327925 1.64365e-15 -0.000632905 3.61907e-15 0)
(0.000944481 -0.000285762 -1.41705e-15 -0.00050757 -3.94324e-15 0)
(0.000925315 -0.000167731 -2.09034e-15 -0.000359797 -2.98562e-15 0)
(0.000652509 -5.51046e-05 8.50015e-16 -0.000132191 1.96349e-15 0)
(0.000939872 -0.000377012 5.5934e-15 -0.000604692 1.94845e-15 0)
(0.00101065 -7.37256e-05 3.46945e-17 -0.000429697 -8.53674e-16 0)
(0.0017187 -1.97625e-05 8.16838e-15 -0.000751963 5.64436e-15 0)
(0.00097844 -0.000196168 -1.73906e-15 -0.000394094 -3.63872e-15 0)
(0.000718624 -0.000427575 -5.43185e-16 -0.000385334 -1.18842e-15 0)
(0.000737687 -4.00351e-05 9.32414e-16 -0.000133307 -1.51348e-16 0)
(0.000901934 -3.56172e-05 -3.47162e-15 -0.000375345 -3.02235e-15 0)
(0.000745225 -0.000300947 -1.27068e-15 -0.000231343 -7.43356e-17 0)
(0.000873733 -0.000196474 4.52763e-15 -0.000316149 2.4381e-16 0)
(0.00170687 -8.59499e-05 1.41217e-15 -0.000960838 2.2443e-16 0)
(0.00176614 0.00025767 1.2194e-14 -0.000899323 1.94506e-15 0)
(0.00124739 -0.000264584 1.12258e-14 -0.000727245 -1.6797e-15 0)
(0.00115398 0.00019712 5.77012e-15 -0.000389126 4.08744e-16 0)
(0.00126953 -0.00012438 -6.07153e-15 -0.00053717 -2.41235e-17 0)
(0.00143023 -0.000141646 -1.20574e-14 -0.000825927 1.06431e-14 0)
(0.000361944 -3.07952e-05 -2.56956e-15 -0.000739437 1.05317e-15 0)
(0.000785899 -0.000125266 4.91577e-15 -0.000210343 3.22821e-16 0)
(0.000933795 -0.000399232 -1.9288e-15 -0.000503568 -1.79788e-15 0)
(0.000769167 -0.000189218 -4.04191e-15 -0.000213388 -2.38524e-15 0)
(0.00308548 -0.00109024 -5.94251e-15 -0.00224108 2.33949e-14 0)
(0.00201347 0.000241629 -2.32689e-14 -0.000807814 -5.42101e-17 0)
(0.00146306 -0.000160071 -1.00614e-15 -0.000716648 3.42039e-15 0)