/*--------------------------------*- C++ -*----------------------------------*\
| =========                 |                                                 |
| \\      /  F ield         | OpenFOAM: The Open Source CFD Toolbox           |
|  \\    /   O peration     | Version:  v2012                                 |
|   \\  /    A nd           | Website:  www.openfoam.com                      |
|    \\/     M anipulation  |                                                 |
\*---------------------------------------------------------------------------*/
FoamFile
{
    version     2.0;
    format      ascii;
    class       volScalarField;
    location    "15";
    object      sigmaEq;
}
// * * * * * * * * * * * * * * * * * * * * * * * * * * * * * * * * * * * * * //

dimensions      [1 -1 -2 0 0 0 0];


internalField   nonuniform List<scalar> 
470
(
2.66741e+07
2.37728e+07
6.88588e+07
4.46247e+07
5.97058e+07
6.22049e+07
5.76673e+07
5.83087e+07
9.84688e+07
6.85583e+07
9.35959e+07
1.17139e+08
1.13441e+08
4.37627e+07
1.16317e+08
8.46956e+07
6.7452e+07
3.92595e+07
3.53474e+07
3.1447e+07
8.52595e+07
5.1925e+07
7.04278e+07
4.34603e+07
1.05671e+08
5.16333e+07
9.20241e+07
7.43536e+07
6.10388e+07
4.1612e+07
3.06069e+07
1.25825e+08
6.89885e+07
1.03491e+08
6.48166e+07
6.2611e+07
1.18092e+08
3.16581e+07
3.60792e+07
3.57374e+07
8.631e+07
3.25212e+07
1.21134e+08
7.71972e+07
8.02608e+07
1.23675e+08
4.36654e+07
9.68284e+07
8.70999e+07
9.78108e+07
1.28095e+08
8.56401e+07
4.23163e+07
3.48966e+07
4.89317e+07
5.12557e+07
8.29828e+07
4.45305e+07
7.88802e+07
7.55751e+07
5.40658e+07
9.95947e+07
1.10469e+08
1.16348e+08
4.7029e+07
1.3295e+08
4.30701e+07
5.43238e+07
6.14317e+07
7.91323e+07
1.92832e+07
6.63361e+07
1.22222e+08
6.41464e+07
1.3128e+08
4.83538e+07
6.27305e+07
6.15605e+07
7.00716e+07
1.46822e+08
8.14559e+07
1.29985e+08
7.15825e+07
5.16232e+07
9.93508e+07
5.11267e+07
1.30194e+08
6.0812e+07
1.31352e+08
1.07678e+08
1.32937e+08
1.18374e+08
6.52313e+07
6.14676e+07
1.11926e+08
1.15766e+08
5.43739e+07
5.995e+07
6.13642e+07
6.53809e+07
5.03119e+07
9.05445e+07
1.05132e+08
4.6722e+07
4.56132e+07
5.86357e+07
5.74085e+07
5.45632e+07
5.2829e+07
1.28869e+08
1.29623e+08
1.21033e+08
4.72772e+07
6.10742e+07
6.39733e+07
7.20583e+07
4.28176e+07
1.06767e+08
5.46485e+07
2.48293e+07
6.35178e+07
4.70004e+07
4.12618e+07
4.28408e+07
5.77614e+07
7.9204e+07
7.7516e+07
5.14488e+07
1.11745e+08
4.60755e+07
4.88977e+07
5.25666e+07
5.79225e+07
5.01643e+07
5.24406e+07
6.76474e+07
6.60316e+07
7.5745e+07
1.18736e+08
5.97752e+07
6.06517e+07
1.06089e+08
5.39067e+07
5.75043e+07
5.78372e+07
3.2452e+07
4.43018e+07
1.10783e+08
5.25962e+07
1.16411e+08
3.78815e+07
4.28613e+07
6.30838e+07
4.85191e+07
1.1264e+08
8.43852e+07
8.21211e+07
5.01857e+07
5.29177e+07
6.62075e+07
1.03933e+08
1.04781e+08
8.43512e+07
1.23725e+08
1.21247e+08
7.76563e+07
7.78372e+07
1.09885e+08
7.16509e+07
8.36829e+07
7.77527e+07
5.8139e+07
5.94503e+07
6.18092e+07
5.89209e+07
5.46679e+07
3.87235e+07
2.63185e+07
9.68387e+07
7.18202e+07
7.49126e+07
1.20048e+08
6.64919e+07
7.8598e+07
7.95734e+07
1.00511e+08
6.2301e+07
1.7113e+07
1.06764e+08
4.59667e+07
6.03121e+07
5.04334e+07
7.40207e+07
7.09701e+07
2.98624e+07
3.92451e+07
7.15734e+07
6.5656e+07
6.65434e+07
4.83649e+07
2.27997e+07
1.63293e+07
9.62943e+07
7.9997e+07
7.80757e+07
8.01339e+07
3.40128e+07
3.55458e+07
8.05228e+07
9.54254e+07
5.0444e+07
7.06132e+07
5.36913e+07
4.30596e+07
1.03036e+08
9.25796e+07
5.3688e+07
4.40324e+07
4.81898e+07
8.58911e+07
5.43715e+07
3.81931e+07
6.31992e+07
4.47823e+07
9.36683e+07
6.28639e+07
9.58313e+07
2.9358e+07
1.41969e+08
1.17141e+08
9.16694e+07
4.86514e+07
4.2865e+07
5.85999e+07
7.94395e+07
6.01408e+07
5.15473e+07
5.65222e+07
5.5542e+07
4.60986e+07
4.61171e+07
4.46133e+07
5.83297e+07
1.26902e+08
1.41693e+08
1.01083e+08
1.06222e+08
5.54047e+07
3.02788e+07
6.30027e+07
6.11179e+07
7.41065e+07
4.05784e+07
5.97504e+07
8.80893e+07
2.95588e+07
3.98282e+07
4.34979e+07
5.8283e+07
2.21575e+07
7.12207e+07
1.34075e+08
1.64045e+07
3.96477e+07
3.69412e+07
4.26807e+07
5.97431e+07
3.98842e+07
4.16248e+07
8.28582e+07
6.85845e+07
5.54456e+07
1.30945e+08
6.46177e+07
7.83682e+07
7.83725e+07
8.9199e+07
7.31133e+07
1.01577e+08
5.51235e+07
6.55713e+07
8.49598e+07
5.60482e+07
8.60673e+07
4.32306e+07
4.53959e+07
8.6512e+07
1.09273e+08
4.91226e+07
4.26876e+07
5.65162e+07
6.63365e+07
3.66902e+07
9.85361e+07
9.41705e+07
5.09912e+07
4.9585e+07
6.41166e+07
9.00107e+07
4.22132e+07
5.50111e+07
4.01055e+07
5.44699e+07
5.44055e+07
1.37716e+08
7.32877e+07
5.76113e+07
5.59144e+07
5.29184e+07
5.82762e+07
1.11428e+08
9.76357e+07
5.7396e+07
5.63172e+07
7.26146e+07
1.09608e+08
7.18688e+07
3.80342e+07
9.94142e+07
4.80407e+07
9.57265e+07
4.45643e+07
5.17131e+07
4.63789e+07
9.51633e+07
3.7622e+07
7.19106e+07
7.22777e+07
5.59618e+07
5.51622e+07
4.77384e+07
3.63898e+07
7.675e+07
7.76537e+07
4.29282e+07
7.08829e+07
2.90263e+07
4.79476e+07
1.23801e+08
6.0077e+07
4.23304e+07
1.24735e+08
1.05554e+08
3.74275e+07
5.51611e+07
9.12733e+07
1.17778e+08
5.26959e+07
4.19395e+07
5.92708e+07
2.85529e+07
6.0811e+07
8.5303e+07
8.85542e+07
1.08342e+08
2.09859e+07
1.02344e+08
6.46173e+07
4.2449e+07
1.7823e+07
4.29895e+07
4.47916e+07
5.55792e+07
7.29551e+07
9.48472e+07
5.97994e+07
4.23156e+07
1.11764e+08
2.11207e+07
5.91567e+07
4.62854e+07
6.1726e+07
8.73711e+07
4.52651e+07
4.69739e+07
6.46077e+07
3.38027e+07
5.78307e+07
1.03104e+08
4.92145e+07
7.26133e+07
1.35492e+08
4.9206e+07
4.76226e+07
5.3301e+07
9.39302e+07
1.19765e+08
1.22895e+08
8.48789e+07
4.62693e+07
1.0549e+08
4.01612e+07
6.72755e+07
1.26317e+08
5.90513e+07
4.36149e+07
4.33041e+07
5.9288e+07
1.11115e+08
7.50987e+07
1.05025e+08
1.03099e+08
6.72454e+07
3.70123e+07
1.19559e+08
1.08401e+08
1.0747e+08
6.50456e+07
4.117e+07
3.91179e+07
5.91471e+07
5.96321e+07
3.6053e+07
7.43747e+07
7.81899e+07
7.81323e+07
4.96568e+07
5.23141e+07
1.17336e+08
2.63228e+07
6.69902e+07
3.05521e+07
7.24466e+07
4.7476e+07
6.98062e+07
1.31734e+08
1.23318e+08
8.36707e+07
1.06554e+08
8.90949e+07
1.04777e+08
9.68773e+07
8.25726e+07
9.09569e+07
3.14641e+07
4.65847e+07
4.44844e+07
6.0149e+07
5.62076e+07
8.08647e+07
9.00786e+07
1.11035e+08
4.53843e+07
8.23824e+07
8.92072e+07
9.58366e+07
8.73795e+07
6.41421e+07
2.67308e+07
5.6358e+07
7.49406e+07
9.83125e+07
9.10799e+07
5.53826e+07
5.36611e+07
4.84602e+07
8.95772e+07
9.39116e+07
5.14297e+07
4.48363e+07
6.8643e+07
6.54279e+07
4.05555e+07
9.4571e+07
8.73963e+07
9.21942e+07
4.98588e+07
4.70056e+07
8.33986e+07
8.74496e+07
)
;

boundaryField
{
    back
    {
        type            empty;
    }
    front
    {
        type            empty;
    }
    down
    {
        type            calculated;
        value           nonuniform List<scalar> 
15
(
3.25212e+07
1.92832e+07
4.28176e+07
2.48293e+07
1.7113e+07
5.36913e+07
2.21575e+07
1.64045e+07
3.98842e+07
4.22132e+07
2.85529e+07
3.38027e+07
4.33041e+07
4.117e+07
3.6053e+07
)
;
    }
    right
    {
        type            calculated;
        value           nonuniform List<scalar> 10(4.83538e+07 4.28408e+07 5.77614e+07 5.24406e+07 4.05784e+07 5.97504e+07 4.47916e+07 5.55792e+07 3.91179e+07 5.96321e+07);
    }
    up
    {
        type            calculated;
        value           nonuniform List<scalar> 
20
(
1.25825e+08
8.02608e+07
1.28095e+08
4.45305e+07
6.10742e+07
1.11745e+08
8.43512e+07
1.23725e+08
6.85845e+07
1.30945e+08
6.41166e+07
9.57265e+07
1.23801e+08
1.05554e+08
8.85542e+07
1.08342e+08
4.9206e+07
5.9288e+07
5.91471e+07
7.43747e+07
)
;
    }
    left
    {
        type            calculated;
        value           nonuniform List<scalar> 5(8.29828e+07 1.46822e+08 9.62943e+07 1.06222e+08 1.24735e+08);
    }
    hole
    {
        type            calculated;
        value           nonuniform List<scalar> 8(6.0812e+07 8.21211e+07 4.83649e+07 9.54254e+07 4.01055e+07 5.7396e+07 9.48472e+07 6.46077e+07);
    }
}


// ************************************************************************* //
