/*--------------------------------*- C++ -*----------------------------------*\
| =========                 |                                                 |
| \\      /  F ield         | OpenFOAM: The Open Source CFD Toolbox           |
|  \\    /   O peration     | Version:  v2012                                 |
|   \\  /    A nd           | Website:  www.openfoam.com                      |
|    \\/     M anipulation  |                                                 |
\*---------------------------------------------------------------------------*/
FoamFile
{
    version     2.0;
    format      ascii;
    class       volSymmTensorField;
    location    "6";
    object      epsilon;
}
// * * * * * * * * * * * * * * * * * * * * * * * * * * * * * * * * * * * * * //

dimensions      [0 0 0 0 0 0 0];


internalField   nonuniform List<symmTensor> 
500
(
(0.00477537 -0.000286883 6.66784e-18 -0.00250558 8.23994e-18 0)
(0.00334861 -0.000856751 5.85469e-18 -0.00132508 1.73472e-18 0)
(0.00350502 0.00014209 -1.84314e-18 -0.00119286 -2.38524e-18 0)
(0.00269615 -0.000401823 -2.1684e-18 -0.000983649 4.33681e-19 0)
(0.00279263 0.00021645 2.71051e-19 -0.000847954 -8.67362e-19 0)
(0.00228578 -0.000178524 6.50521e-19 -0.000784106 0 0)
(0.00235102 0.000239669 1.6263e-19 -0.000690084 0 0)
(0.00200747 -5.63329e-05 -1.0842e-19 -0.000672091 8.67362e-19 0)
(0.00205487 0.000246719 -5.42101e-20 -0.000623337 4.33681e-19 0)
(0.00180247 1.40972e-05 -3.79471e-19 -0.000611632 -4.33681e-19 0)
(0.00363858 -0.00077204 1.13299e-17 -0.00135918 3.25261e-18 0)
(0.00270577 -0.00103131 3.90313e-18 -0.000929473 -8.67362e-19 0)
(0.00311033 -0.000204004 -1.84314e-18 -0.0010567 4.33681e-19 0)
(0.00239094 -0.000499333 1.51788e-18 -0.000841447 -1.73472e-18 0)
(0.00267615 9.01531e-05 8.67362e-19 -0.000879007 0 0)
(0.00215224 -0.000175148 0 -0.00078036 4.33681e-19 0)
(0.00235584 0.000249208 2.1684e-19 -0.000777616 4.33681e-19 0)
(0.00196805 2.33817e-05 5.42101e-19 -0.000737233 -1.30104e-18 0)
(0.00211693 0.000335363 -3.25261e-19 -0.000721288 -2.1684e-19 0)
(0.00182021 0.000145695 4.33681e-19 -0.000705258 0 0)
(0.00282967 -0.00104046 6.61363e-18 -0.000936602 -2.38524e-18 0)
(0.0020376 -0.00106451 2.1684e-18 -0.000543814 0 0)
(0.00263459 -0.00042135 2.1684e-18 -0.000917846 -1.30104e-18 0)
(0.00201859 -0.000541756 0 -0.000717913 6.50521e-19 0)
(0.00245205 -5.42702e-05 6.50521e-19 -0.000890564 -1.73472e-18 0)
(0.00196469 -0.000212421 1.51788e-18 -0.000804294 -4.33681e-19 0)
(0.00228583 0.000163338 3.25261e-19 -0.000861731 -2.1684e-18 0)
(0.00189598 -1.65936e-06 2.1684e-19 -0.000839233 -2.1684e-19 0)
(0.00213766 0.00029129 6.50521e-19 -0.000833386 -5.42101e-19 0)
(0.00182319 0.000134541 1.0842e-18 -0.000844439 -6.50521e-19 0)
(0.00185844 -0.00103946 1.73472e-18 -0.000522824 -2.1684e-19 0)
(0.00140342 -0.000903996 -4.33681e-19 -0.000261385 1.0842e-18 0)
(0.0020605 -0.00051838 1.95156e-18 -0.000752617 -7.58942e-19 0)
(0.00162213 -0.000535592 1.30104e-18 -0.000630899 -4.33681e-19 0)
(0.00212374 -0.000196934 8.67362e-19 -0.000861367 -3.25261e-19 0)
(0.00172063 -0.000289603 4.33681e-19 -0.000823134 0 0)
(0.00211223 5.53096e-06 8.67362e-19 -0.000902703 -4.33681e-19 0)
(0.00175127 -0.00012239 -8.67362e-19 -0.00091502 4.33681e-19 0)
(0.00206201 0.000133959 6.50521e-19 -0.000905848 -3.25261e-19 0)
(0.00174411 -7.22819e-06 6.50521e-19 -0.000948379 -2.1684e-19 0)
(0.000972893 -0.000755577 4.33681e-19 -0.000249789 0 0)
(0.000911817 -0.000619182 6.50521e-19 -0.000152749 -3.25261e-19 0)
(0.00146358 -0.000491792 6.50521e-19 -0.000610852 -2.1684e-19 0)
(0.00124359 -0.000481031 2.1684e-19 -0.000571748 1.0842e-19 0)
(0.00171 -0.000304002 -2.1684e-19 -0.000796601 2.1684e-19 0)
(0.00143206 -0.000362226 -6.50521e-19 -0.000797013 2.1684e-19 0)
(0.00182291 -0.000170254 -1.0842e-18 -0.000883284 4.33681e-19 0)
(0.00153175 -0.000261452 -4.33681e-19 -0.000906284 -1.0842e-19 0)
(0.00186041 -7.26447e-05 -8.67362e-19 -0.000914713 6.50521e-19 0)
(0.00155886 -0.000167818 1.30104e-18 -0.000936172 -2.1684e-19 0)
(0.000358931 -0.00032434 0 -0.000189547 1.0842e-19 0)
(0.000578042 -0.000322658 4.33681e-19 -0.000194901 -1.0842e-19 0)
(0.000923287 -0.000355411 8.67362e-19 -0.000502687 -3.25261e-19 0)
(0.00086566 -0.000417444 4.33681e-19 -0.000525693 -1.0842e-19 0)
(0.00123703 -0.000335181 -6.50521e-19 -0.000656073 2.71051e-19 0)
(0.00103682 -0.000451887 -4.33681e-19 -0.000700717 1.0842e-19 0)
(0.00140053 -0.000297678 -4.33681e-19 -0.000702616 0 0)
(0.00113749 -0.000468858 -8.67362e-19 -0.000776583 0 0)
(0.00146158 -0.000259543 2.1684e-19 -0.000655443 -1.0842e-19 0)
(0.00120962 -0.000511762 0 -0.000785042 0 0)
(0.000115138 7.35053e-05 -4.33681e-19 -0.000408507 1.0842e-19 0)
(0.000480804 -0.000103765 4.33681e-19 -0.000410521 -1.0842e-19 0)
(0.000568059 -0.000199811 1.30104e-18 -0.000561002 -2.71051e-19 0)
(0.000651959 -0.000351894 8.67362e-19 -0.000574888 -3.25261e-19 0)
(0.000845616 -0.000343383 2.1684e-18 -0.000637181 -2.71051e-19 0)
(0.000773369 -0.00048859 -1.73472e-18 -0.000659874 1.0842e-19 0)
(0.00101591 -0.000423482 8.67362e-19 -0.000671157 -5.42101e-20 0)
(0.000863248 -0.000565086 4.33681e-19 -0.000700556 0 0)
(0.00112807 -0.000485595 -4.33681e-19 -0.000702579 -2.71051e-20 0)
(0.000935176 -0.000597881 4.33681e-19 -0.000729843 5.42101e-20 0)
(0.000126003 0.000342009 4.33681e-19 -0.000793645 -2.71051e-19 0)
(0.00049608 -7.12962e-06 1.73472e-18 -0.000695707 -2.1684e-19 0)
(0.000379673 -4.99653e-05 0 -0.00071122 -1.35525e-19 0)
(0.000509142 -0.000289053 -8.67362e-19 -0.000659069 0 0)
(0.00055612 -0.000276255 -1.30104e-18 -0.000656527 1.6263e-19 0)
(0.00054447 -0.00044913 -8.67362e-19 -0.000629599 -5.42101e-20 0)
(0.000683368 -0.000409037 -2.1684e-18 -0.000620216 1.89735e-19 0)
(0.00059358 -0.000533281 0 -0.00060829 0 0)
(0.000782435 -0.000481612 -8.67362e-19 -0.000597888 2.1684e-19 0)
(0.000647191 -0.000572095 -1.30104e-18 -0.000594167 8.13152e-20 0)
(0.000273266 0.000418155 -4.33681e-19 -0.00120296 1.6263e-19 0)
(0.000526022 -3.29923e-05 8.67362e-19 -0.000941079 -1.0842e-19 0)
(0.000309028 5.57523e-05 0 -0.000885961 5.42101e-20 0)
(0.000382956 -0.000248703 8.67362e-19 -0.000723654 1.0842e-19 0)
(0.000359432 -0.000156517 1.30104e-18 -0.000678034 -1.35525e-20 0)
(0.0003479 -0.000350459 8.67362e-19 -0.000584669 2.71051e-20 0)
(0.000421941 -0.000277956 0 -0.000554124 9.48677e-20 0)
(0.000365974 -0.000401446 5.20417e-18 -0.000500568 -6.77626e-20 0)
(0.000488532 -0.000346304 8.67362e-19 -0.000481155 -2.71051e-20 0)
(0.000410522 -0.000429636 0 -0.000448781 1.35525e-20 0)
(0.0004409 0.000281482 -4.33681e-19 -0.00151882 0 0)
(0.000332233 -0.00019264 0 -0.00101497 1.35525e-20 0)
(0.000278377 0.000100825 1.30104e-18 -0.00096844 5.42101e-20 0)
(0.000223021 -0.000182193 4.33681e-19 -0.000700048 5.42101e-20 0)
(0.000238687 1.1708e-06 0 -0.000671283 2.71051e-20 0)
(0.000199255 -0.000173433 4.33681e-19 -0.000520324 0 0)
(0.0002581 -6.07117e-05 -4.33681e-19 -0.000502946 5.42101e-20 0)
(0.000221822 -0.000164263 -8.67362e-19 -0.0004195 0 0)
(0.000306298 -0.000103646 0 -0.000410482 1.35525e-20 0)
(0.000271788 -0.000154943 0 -0.000370668 1.35525e-20 0)
(0.000400538 -0.000149877 -4.33681e-19 -0.000370668 2.03288e-20 0)
(0.000424848 -5.46681e-05 8.67362e-19 -0.00018463 0 0)
(0.000418534 -0.000408836 8.67362e-19 -0.000439256 -3.38813e-21 0)
(0.000606685 -0.000209334 0 -0.000241137 0 0)
(0.000594852 -0.000599951 -8.67362e-19 -0.000608264 9.48677e-20 0)
(0.00086725 -0.000300741 -8.67362e-19 -0.000339993 5.42101e-20 0)
(0.000854565 -0.000683479 -4.33681e-19 -0.00080448 1.35525e-19 0)
(0.00114867 -0.000310364 0 -0.000447545 -1.0842e-19 0)
(0.0011409 -0.000639943 4.33681e-19 -0.000953865 -5.42101e-20 0)
(0.00140306 -0.000240565 1.30104e-18 -0.000532065 -2.71051e-19 0)
(0.0004406 -0.000135407 -4.33681e-19 -0.00019626 -3.38813e-21 0)
(0.000495074 -7.91327e-05 -1.73472e-18 -0.000138836 6.77626e-21 0)
(0.000490198 -0.000352487 -4.33681e-19 -0.000297937 -3.38813e-21 0)
(0.000641627 -0.000215239 0 -0.000198597 0 0)
(0.000632329 -0.000522053 8.67362e-19 -0.000472596 1.35525e-20 0)
(0.000846072 -0.000298606 -8.67362e-19 -0.000289674 2.71051e-20 0)
(0.000835846 -0.000607277 -6.50521e-19 -0.000679119 9.48677e-20 0)
(0.0010665 -0.000316391 0 -0.00038629 -1.0842e-19 0)
(0.00106006 -0.000589952 -2.1684e-19 -0.000864061 9.48677e-20 0)
(0.00126233 -0.000273435 -1.0842e-18 -0.000461669 2.71051e-20 0)
(0.000528261 -0.000103094 -2.1684e-18 -0.000142049 6.77626e-21 0)
(0.000572708 -7.62892e-05 8.67362e-19 -0.000139202 -1.35525e-20 0)
(0.000569008 -0.000283592 -8.67362e-19 -0.000222484 1.69407e-20 0)
(0.000679574 -0.000198241 0 -0.000187274 0 0)
(0.000672416 -0.000434162 1.30104e-18 -0.000360698 -1.35525e-20 0)
(0.00083247 -0.000281438 8.67362e-19 -0.000261795 2.71051e-20 0)
(0.000824298 -0.000527788 -1.95156e-18 -0.00053432 -4.06576e-20 0)
(0.00100528 -0.000315093 0 -0.000345885 -1.0842e-19 0)
(0.00099979 -0.00054808 8.67362e-19 -0.000709606 -1.35525e-20 0)
(0.00116834 -0.000301024 4.33681e-19 -0.00042012 4.06576e-20 0)
(0.00062121 -7.61512e-05 4.33681e-19 -0.000139342 -6.77626e-21 0)
(0.000652362 -6.68234e-05 8.67362e-19 -0.000159285 6.77626e-21 0)
(0.000649553 -0.000224045 0 -0.000195256 0 0)
(0.000727018 -0.000174292 -8.67362e-19 -0.000195198 0 0)
(0.000721578 -0.000353345 -1.30104e-18 -0.000294342 6.77626e-21 0)
(0.000837489 -0.000254728 0 -0.000253139 2.71051e-20 0)
(0.000831129 -0.000446143 -2.60209e-18 -0.000425448 8.13152e-20 0)
(0.000969315 -0.000299113 -8.67362e-19 -0.000323106 0 0)
(0.000964803 -0.000490211 6.50521e-19 -0.000569131 -2.71051e-20 0)
(0.00110398 -0.000306611 -4.33681e-19 -0.00039259 5.42101e-20 0)
(0.000706876 -5.68422e-05 -1.30104e-18 -0.000158436 6.77626e-21 0)
(0.000728003 -5.61865e-05 -1.73472e-18 -0.000185204 6.77626e-21 0)
(0.00072584 -0.000177214 -8.67362e-19 -0.00019604 -6.77626e-21 0)
(0.000779308 -0.000149463 -1.73472e-18 -0.000211716 -1.35525e-20 0)
(0.000775175 -0.000285339 8.67362e-19 -0.000264579 1.35525e-20 0)
(0.000857534 -0.000223919 2.60209e-18 -0.000256238 -2.71051e-20 0)
(0.000852684 -0.00036963 4.33681e-19 -0.000358734 -2.71051e-20 0)
(0.000955545 -0.000272185 1.73472e-18 -0.00031321 0 0)
(0.000952006 -0.000421842 -4.33681e-19 -0.000467951 0 0)
(0.0010633 -0.000291949 0 -0.000375151 2.71051e-20 0)
(0.000781283 -4.35181e-05 4.33681e-19 -0.000184247 -1.01644e-20 0)
(0.000795654 -4.55815e-05 0 -0.000208388 0 0)
(0.000793944 -0.000141167 -8.67362e-19 -0.000209876 6.77626e-21 0)
(0.000830589 -0.00012553 -1.73472e-18 -0.000228278 0 0)
(0.000827415 -0.000229786 0 -0.000257374 -4.06576e-20 0)
(0.000885125 -0.000191911 -4.33681e-18 -0.00026295 8.13152e-20 0)
(0.000881468 -0.000301634 -2.1684e-18 -0.000324182 1.35525e-20 0)
(0.000956269 -0.000238736 0 -0.000309409 0 0)
(0.000953607 -0.000351196 0 -0.000404707 4.06576e-20 0)
(0.00103926 -0.000263106 0 -0.000363184 2.71051e-20 0)
(0.000842789 -3.43926e-05 -2.60209e-18 -0.000207694 0 0)
(0.000852526 -3.49669e-05 0 -0.00022222 0 0)
(0.00085113 -0.000113009 2.1684e-18 -0.00022597 -1.69407e-20 0)
(0.000875802 -0.000102391 0 -0.000237517 0 0)
(0.000873317 -0.000184009 -1.73472e-18 -0.000259959 -6.77626e-21 0)
(0.000912954 -0.000159431 1.73472e-18 -0.000265524 2.71051e-20 0)
(0.000910202 -0.000241967 -1.73472e-18 -0.000308353 0 0)
(0.000963152 -0.000201283 -1.73472e-18 -0.000304539 0 0)
(0.000961216 -0.000283033 4.33681e-19 -0.00036806 1.35525e-20 0)
(0.00102438 -0.000224981 -4.33681e-19 -0.000351343 5.42101e-20 0)
(0.000890017 -2.82519e-05 -8.67362e-19 -0.000221905 0 0)
(0.000895857 -2.39798e-05 1.73472e-18 -0.000219889 -6.77626e-21 0)
(0.000894678 -8.99639e-05 -1.30104e-18 -0.000235739 3.72694e-20 0)
(0.000910281 -7.87451e-05 -1.73472e-18 -0.000231635 2.71051e-20 0)
(0.000908287 -0.000144325 8.67362e-19 -0.000261629 6.77626e-21 0)
(0.000934698 -0.000125031 8.67362e-19 -0.000256294 -2.71051e-20 0)
(0.000932608 -0.000187819 -2.1684e-18 -0.000298824 9.48677e-20 0)
(0.000969093 -0.000159506 0 -0.000292108 -5.42101e-20 0)
(0.000967713 -0.000217794 1.30104e-18 -0.000345167 -1.35525e-20 0)
(0.00101227 -0.000179381 -1.30104e-18 -0.000334946 5.42101e-20 0)
(0.000921094 -2.4628e-05 4.33681e-19 -0.000219918 -6.77626e-21 0)
(0.000921125 -1.24232e-05 -8.67362e-19 -0.000191376 2.03288e-20 0)
(0.000920117 -6.89538e-05 8.67362e-19 -0.000230662 -2.71051e-20 0)
(0.000928059 -5.11955e-05 -8.67362e-19 -0.00019936 4.06576e-20 0)
(0.000926427 -0.000105096 1.73472e-18 -0.000252866 -5.42101e-20 0)
(0.000945058 -8.34916e-05 -8.67362e-19 -0.000228034 -2.71051e-20 0)
(0.000943402 -0.000133424 -4.33681e-19 -0.00028564 0 0)
(0.000969042 -0.000109168 0 -0.000267037 -8.13152e-20 0)
(0.000968043 -0.000151501 -8.67362e-19 -0.000325671 -1.35525e-20 0)
(0.000998725 -0.000124105 -2.60209e-18 -0.000311813 2.71051e-20 0)
(0.000933404 -2.45568e-05 0 -0.000191586 0 0)
(0.000914779 -5.37048e-09 4.33681e-19 -0.000108199 -6.77626e-21 0)
(0.000914049 -4.12653e-05 -8.67362e-19 -0.000198841 0 0)
(0.000923566 -8.13865e-06 0 -0.00013343 0 0)
(0.000922112 -5.64947e-05 -1.30104e-18 -0.000225706 1.35525e-20 0)
(0.000939739 -2.41537e-05 -1.73472e-18 -0.00017282 0 0)
(0.000938289 -6.81955e-05 -1.73472e-18 -0.000262156 0 0)
(0.000960734 -3.96085e-05 1.30104e-18 -0.000225754 -8.13152e-20 0)
(0.000959918 -7.43817e-05 -2.60209e-18 -0.000304325 2.71051e-20 0)
(0.000983655 -5.14927e-05 0 -0.000286467 -2.71051e-20 0)
(0.00140306 -0.000446039 0 -0.000985751 1.0842e-19 0)
(0.0015057 -0.000247942 -8.67362e-19 -0.000751011 -1.0842e-19 0)
(0.0015057 -0.000323045 -6.50521e-19 -0.00097397 -2.71051e-19 0)
(0.00157228 -0.000187022 8.67362e-19 -0.000774617 -3.25261e-19 0)
(0.00157228 -0.000217162 -2.1684e-19 -0.000949228 1.0842e-19 0)
(0.00161467 -0.000124496 -4.33681e-19 -0.000784313 3.25261e-19 0)
(0.00161467 -0.000129347 6.50521e-19 -0.000916178 -2.1684e-19 0)
(0.00164112 -6.67475e-05 -8.67362e-19 -0.000783378 3.25261e-19 0)
(0.00164112 -6.07809e-05 -6.50521e-19 -0.000878407 3.79471e-19 0)
(0.00165851 -1.71301e-05 4.33681e-19 -0.000775508 -2.1684e-19 0)
(0.00165851 -1.25043e-05 -2.1684e-19 -0.000839389 3.25261e-19 0)
(0.00167331 2.26048e-05 4.33681e-19 -0.000764581 0 0)
(0.00167331 1.47485e-05 -8.67362e-19 -0.000802866 5.42101e-19 0)
(0.00169205 5.1772e-05 4.33681e-19 -0.000754639 -4.33681e-19 0)
(0.00169205 2.07094e-05 -6.50521e-19 -0.000773091 1.0842e-19 0)
(0.00172158 7.06107e-05 -8.67362e-19 -0.000749926 2.1684e-19 0)
(0.00172158 6.04765e-06 2.1684e-19 -0.000755219 3.25261e-19 0)
(0.00176902 8.03335e-05 -4.33681e-19 -0.000754849 0 0)
(0.00176902 -2.59877e-05 2.1684e-19 -0.00075614 -2.1684e-19 0)
(0.00184055 8.31489e-05 2.1684e-19 -0.000773528 0 0)
(0.00126233 -0.000415683 4.33681e-19 -0.000751011 0 0)
(0.00133726 -0.000278195 -4.33681e-19 -0.00062424 1.0842e-19 0)
(0.00133726 -0.000366361 2.1684e-19 -0.000774617 -1.35525e-19 0)
(0.00140335 -0.000242669 4.33681e-19 -0.000647623 -2.1684e-19 0)
(0.00140335 -0.000309894 0 -0.000784313 5.42101e-20 0)
(0.00145934 -0.000203239 8.67362e-19 -0.000665069 -2.1684e-19 0)
(0.00145934 -0.000254312 0 -0.000783378 -1.0842e-19 0)
(0.00150715 -0.000162556 4.33681e-19 -0.000677253 0 0)
(0.00150715 -0.000204179 -4.33681e-19 -0.000775508 -1.6263e-19 0)
(0.00155006 -0.000122696 4.33681e-19 -0.000685748 -1.0842e-19 0)
(0.00155006 -0.000162055 6.50521e-19 -0.000764581 1.0842e-19 0)
(0.00159203 -8.48988e-05 4.33681e-19 -0.000692674 -4.33681e-19 0)
(0.00159203 -0.000129104 6.50521e-19 -0.000754639 3.25261e-19 0)
(0.00163736 -4.95193e-05 0 -0.000700482 0 0)
(0.00163736 -0.000105313 -2.1684e-19 -0.000749926 2.1684e-19 0)
(0.00169055 -1.60153e-05 0 -0.000711794 2.1684e-19 0)
(0.00169055 -8.95561e-05 0 -0.000754849 -1.6263e-19 0)
(0.00175609 1.70853e-05 0 -0.000729281 -4.33681e-19 0)
(0.00175609 -7.98767e-05 2.1684e-19 -0.000773528 -1.0842e-19 0)
(0.00183873 5.22734e-05 0 -0.000755633 1.0842e-19 0)
(0.00116834 -0.000418403 4.33681e-19 -0.00062424 0 0)
(0.00123193 -0.000304273 0 -0.000532579 5.42101e-20 0)
(0.00123193 -0.000388523 -1.73472e-18 -0.000647623 -5.42101e-20 0)
(0.00129196 -0.000280116 1.73472e-18 -0.000557006 -1.6263e-19 0)
(0.00129196 -0.000353667 1.73472e-18 -0.000665069 -5.42101e-20 0)
(0.00134812 -0.00025198 8.67362e-19 -0.00057857 -1.0842e-19 0)
(0.00134812 -0.00031612 -4.33681e-19 -0.000677253 1.6263e-19 0)
(0.00140101 -0.000220648 -8.67362e-19 -0.000597575 0 0)
(0.00140101 -0.000277871 -2.1684e-19 -0.000685748 1.0842e-19 0)
(0.00145197 -0.000186785 1.30104e-18 -0.000614716 -1.0842e-19 0)
(0.00145197 -0.000240214 8.67362e-19 -0.000692674 -1.6263e-19 0)
(0.00150287 -0.000150718 1.30104e-18 -0.000630994 0 0)
(0.00150287 -0.000203632 -6.50521e-19 -0.000700482 1.0842e-19 0)
(0.00155584 -0.0001123 4.33681e-19 -0.000647591 -3.25261e-19 0)
(0.00155584 -0.00016777 6.50521e-19 -0.000711794 -1.0842e-19 0)
(0.00161309 -7.08452e-05 0 -0.000665761 -1.0842e-19 0)
(0.00161309 -0.0001314 6.50521e-19 -0.000729281 -5.96311e-19 0)
(0.00167669 -2.50958e-05 -4.33681e-19 -0.000686695 -2.1684e-19 0)
(0.00167669 -9.22661e-05 4.33681e-19 -0.000755633 -5.42101e-20 0)
(0.00174824 2.67601e-05 -1.30104e-18 -0.000711347 -4.33681e-19 0)
(0.00110398 -0.000406463 0 -0.000532579 1.0842e-19 0)
(0.00115935 -0.000309576 -8.67362e-19 -0.000468428 5.42101e-20 0)
(0.00115935 -0.000386536 -4.33681e-19 -0.000557006 1.89735e-19 0)
(0.0012128 -0.000292768 -2.60209e-18 -0.000493515 1.6263e-19 0)
(0.0012128 -0.000362076 -4.33681e-19 -0.00057857 1.89735e-19 0)
(0.00126439 -0.000271513 1.73472e-18 -0.000516914 -2.1684e-19 0)
(0.00126439 -0.000333623 8.67362e-19 -0.000597575 -8.13152e-20 0)
(0.00131438 -0.000246005 0 -0.000538771 1.0842e-19 0)
(0.00131438 -0.000301715 1.30104e-18 -0.000614716 1.6263e-19 0)
(0.0013633 -0.000216334 0 -0.000559348 2.1684e-19 0)
(0.0013633 -0.000266656 4.33681e-19 -0.000630994 -1.35525e-19 0)
(0.00141183 -0.000182413 -8.67362e-19 -0.000579008 1.0842e-19 0)
(0.00141183 -0.000228383 -2.1684e-19 -0.000647591 5.42101e-20 0)
(0.00146078 -0.000143907 -1.30104e-18 -0.00059816 0 0)
(0.00146078 -0.000186385 -8.67362e-19 -0.000665761 3.25261e-19 0)
(0.00151091 -0.000100195 -8.67362e-19 -0.000617208 1.0842e-19 0)
(0.00151091 -0.000139682 -6.50521e-19 -0.000686695 -5.42101e-20 0)
(0.00156286 -5.03633e-05 8.67362e-19 -0.000636474 -1.0842e-19 0)
(0.00156286 -8.68776e-05 -2.1684e-19 -0.000711347 -1.6263e-19 0)
(0.00161709 6.78071e-06 -8.67362e-19 -0.000656152 0 0)
(0.0010633 -0.000374305 -8.67362e-19 -0.000468428 0 0)
(0.00110976 -0.000294902 0 -0.000426433 0 0)
(0.00110976 -0.000360931 -4.33681e-19 -0.000493515 8.13152e-20 0)
(0.00115504 -0.000283231 1.73472e-18 -0.000450529 -5.42101e-20 0)
(0.00115504 -0.00034266 8.67362e-19 -0.000516914 -1.6263e-19 0)
(0.00119907 -0.000266828 0 -0.000473512 -5.42101e-20 0)
(0.00119907 -0.000319612 0 -0.000538771 1.6263e-19 0)
(0.00124186 -0.000245725 0 -0.000495338 -1.0842e-19 0)
(0.00124186 -0.000291849 -4.33681e-19 -0.000559348 1.35525e-19 0)
(0.00128344 -0.000219863 8.67362e-19 -0.000515982 0 0)
(0.00128344 -0.000259305 -8.67362e-19 -0.000579008 2.43945e-19 0)
(0.00132388 -0.000189071 -8.67362e-19 -0.000535421 0 0)
(0.00132388 -0.000221732 -4.33681e-19 -0.00059816 5.42101e-20 0)
(0.00136324 -0.000153036 0 -0.000553618 -1.0842e-19 0)
(0.00136324 -0.000178661 6.50521e-19 -0.000617208 -1.0842e-19 0)
(0.00140153 -0.000111286 0 -0.000570492 3.25261e-19 0)
(0.00140153 -0.00012939 2.1684e-19 -0.000636474 0 0)
(0.00143868 -6.3186e-05 0 -0.000585895 1.0842e-19 0)
(0.00143868 -7.29833e-05 0 -0.000656152 0 0)
(0.00147447 -7.94562e-06 -4.33681e-19 -0.000599589 -1.0842e-19 0)
(0.00103926 -0.000327795 -8.67362e-19 -0.000426433 1.0842e-19 0)
(0.00107603 -0.000265877 8.67362e-19 -0.000399008 0 0)
(0.00107603 -0.00031861 -1.73472e-18 -0.000450529 1.35525e-19 0)
(0.00111201 -0.000257571 -2.60209e-18 -0.000420865 5.42101e-20 0)
(0.00111201 -0.000304402 -8.67362e-19 -0.000473512 5.42101e-20 0)
(0.00114697 -0.000244665 -8.67362e-19 -0.000441981 2.71051e-19 0)
(0.00114697 -0.000285201 1.73472e-18 -0.000495338 -1.35525e-19 0)
(0.00118067 -0.000227179 -8.67362e-19 -0.000462153 5.42101e-20 0)
(0.00118067 -0.000260966 -4.33681e-19 -0.000515982 5.42101e-20 0)
(0.00121283 -0.00020508 -2.60209e-18 -0.000481156 0 0)
(0.00121283 -0.000231574 -1.30104e-18 -0.000535421 -1.0842e-19 0)
(0.00124316 -0.000178262 -8.67362e-19 -0.000498726 1.0842e-19 0)
(0.00124316 -0.000196793 -4.33681e-19 -0.000553618 2.71051e-19 0)
(0.0012713 -0.000146528 -1.73472e-18 -0.000514549 3.25261e-19 0)
(0.0012713 -0.000156265 4.33681e-19 -0.000570492 2.1684e-19 0)
(0.00129682 -0.000109575 -1.73472e-18 -0.000528252 1.0842e-19 0)
(0.00129682 -0.000109497 -1.30104e-18 -0.000585895 2.1684e-19 0)
(0.00131925 -6.69734e-05 -8.67362e-19 -0.000539385 0 0)
(0.00131925 -5.58632e-05 2.1684e-19 -0.000599589 -2.1684e-19 0)
(0.00133802 -1.81653e-05 0 -0.000547428 3.25261e-19 0)
(0.00102438 -0.000273215 -8.67362e-19 -0.000399008 5.42101e-20 0)
(0.00105166 -0.000227231 -8.67362e-19 -0.000378279 0 0)
(0.00105166 -0.000266336 -8.67362e-19 -0.000420865 -8.13152e-20 0)
(0.00107841 -0.000220778 -1.73472e-18 -0.000397695 -5.42101e-20 0)
(0.00107841 -0.000254766 8.67362e-19 -0.000441981 -1.6263e-19 0)
(0.00110429 -0.000210223 -1.73472e-18 -0.000416651 -5.42101e-20 0)
(0.00110429 -0.000238535 -2.1684e-18 -0.000462153 1.89735e-19 0)
(0.00112891 -0.000195651 -8.67362e-19 -0.000434837 2.1684e-19 0)
(0.00112891 -0.000217636 -1.73472e-18 -0.000481156 5.42101e-20 0)
(0.00115181 -0.000177136 8.67362e-19 -0.000451897 -2.1684e-19 0)
(0.00115181 -0.000192006 3.03577e-18 -0.000498726 -1.89735e-19 0)
(0.00117245 -0.000154711 -8.67362e-19 -0.000467426 2.1684e-19 0)
(0.00117245 -0.000161514 4.33681e-19 -0.000514549 -2.71051e-20 0)
(0.00119021 -0.000128364 0 -0.000480954 0 0)
(0.00119021 -0.000125942 2.1684e-18 -0.000528252 -3.25261e-19 0)
(0.00120435 -9.8006e-05 -8.67362e-19 -0.000491913 1.0842e-19 0)
(0.00120435 -8.49656e-05 -2.1684e-18 -0.000539385 1.6263e-19 0)
(0.00121405 -6.34286e-05 -1.73472e-18 -0.000499621 2.1684e-19 0)
(0.00121405 -3.81383e-05 0 -0.000547428 -5.42101e-20 0)
(0.00121842 -2.42461e-05 -1.73472e-18 -0.000503278 1.0842e-19 0)
(0.00101227 -0.000213694 -1.73472e-18 -0.000378279 1.0842e-19 0)
(0.00103132 -0.000180682 -8.67362e-19 -0.000358292 0 0)
(0.00103132 -0.000207749 -1.73472e-18 -0.000397695 2.71051e-20 0)
(0.00105012 -0.000174944 8.67362e-19 -0.000376386 -1.6263e-19 0)
(0.00105012 -0.000197837 3.90313e-18 -0.000416651 -2.1684e-19 0)
(0.00106825 -0.000165875 1.73472e-18 -0.000394138 5.42101e-20 0)
(0.00106825 -0.000184033 -4.33681e-19 -0.000434837 -1.0842e-19 0)
(0.00108523 -0.00015366 -8.67362e-19 -0.000411095 0 0)
(0.00108523 -0.000166399 0 -0.000451897 -2.71051e-20 0)
(0.00110054 -0.00013845 8.67362e-19 -0.000426883 -1.0842e-19 0)
(0.00110054 -0.000144979 -2.1684e-18 -0.000467426 1.89735e-19 0)
(0.00111354 -0.000120443 -8.67362e-19 -0.000441099 2.1684e-19 0)
(0.00111354 -0.000119793 -4.33681e-19 -0.000480954 8.13152e-20 0)
(0.00112343 -9.98855e-05 8.67362e-19 -0.000453245 -3.25261e-19 0)
(0.00112343 -9.08139e-05 3.03577e-18 -0.000491913 -2.71051e-19 0)
(0.00112925 -7.70466e-05 -8.67362e-19 -0.00046269 -1.0842e-19 0)
(0.00112925 -5.7921e-05 8.67362e-19 -0.000499621 -1.0842e-19 0)
(0.00112976 -5.21557e-05 -1.73472e-18 -0.000468611 2.1684e-19 0)
(0.00112976 -2.08381e-05 4.33681e-19 -0.000503278 -1.0842e-19 0)
(0.00112351 -2.52845e-05 0 -0.000469923 1.0842e-19 0)
(0.000998725 -0.000148027 0 -0.000358292 5.42101e-20 0)
(0.00101223 -0.000123628 8.67362e-19 -0.00033781 0 0)
(0.00101223 -0.000142421 -8.67362e-19 -0.000376386 1.0842e-19 0)
(0.00102566 -0.000118443 8.67362e-19 -0.000357812 -5.42101e-20 0)
(0.00102566 -0.000133981 1.30104e-18 -0.000394138 -5.42101e-20 0)
(0.00103839 -0.000111229 -8.67362e-19 -0.000376455 -5.42101e-20 0)
(0.00103839 -0.000122734 -4.33681e-19 -0.000411095 -2.71051e-20 0)
(0.00105006 -0.000101706 1.73472e-18 -0.000393772 5.42101e-20 0)
(0.00105006 -0.000108753 -1.30104e-18 -0.000426883 2.71051e-20 0)
(0.00106027 -9.00103e-05 1.73472e-18 -0.000409548 -1.6263e-19 0)
(0.00106027 -9.21827e-05 -8.67362e-19 -0.000441099 1.6263e-19 0)
(0.0010685 -7.64952e-05 8.67362e-19 -0.000423453 0 0)
(0.0010685 -7.32336e-05 -2.60209e-18 -0.000453245 2.1684e-19 0)
(0.00107402 -6.1695e-05 1.73472e-18 -0.000435077 -1.0842e-19 0)
(0.00107402 -5.21611e-05 -4.33681e-19 -0.00046269 -2.71051e-20 0)
(0.00107582 -4.6343e-05 0 -0.000443915 0 0)
(0.00107582 -2.92252e-05 0 -0.000468611 1.6263e-19 0)
(0.00107244 -3.14268e-05 0 -0.00044931 -1.0842e-19 0)
(0.00107244 -4.59955e-06 -4.33681e-19 -0.000469923 5.42101e-20 0)
(0.00106168 -1.82962e-05 0 -0.000450336 -1.0842e-19 0)
(0.000983655 -6.93134e-05 -8.67362e-19 -0.00033781 5.42101e-20 0)
(0.000997519 -4.57821e-05 -8.67362e-19 -0.000326302 2.71051e-20 0)
(0.000997519 -6.52573e-05 0 -0.000357812 1.0842e-19 0)
(0.00100928 -4.58631e-05 -4.33681e-19 -0.000351621 5.42101e-20 0)
(0.00100928 -5.98796e-05 -8.67362e-19 -0.000376455 -1.0842e-19 0)
(0.00101976 -4.33234e-05 2.1684e-18 -0.000375421 -8.13152e-20 0)
(0.00101976 -5.29599e-05 -2.60209e-18 -0.000393772 1.0842e-19 0)
(0.00102906 -3.89207e-05 4.33681e-19 -0.00039699 0 0)
(0.00102906 -4.45481e-05 -8.67362e-19 -0.000409548 0 0)
(0.00103702 -3.30648e-05 -8.67362e-19 -0.000415645 -2.71051e-20 0)
(0.00103702 -3.48267e-05 -8.67362e-19 -0.000423453 5.42101e-20 0)
(0.00104334 -2.61071e-05 2.1684e-18 -0.000430751 -1.0842e-19 0)
(0.00104334 -2.40957e-05 1.73472e-18 -0.000435077 -1.0842e-19 0)
(0.00104761 -1.84889e-05 -1.30104e-18 -0.000441747 -5.42101e-20 0)
(0.00104761 -1.28093e-05 0 -0.000443915 -2.1684e-19 0)
(0.00104929 -1.08541e-05 -4.33681e-19 -0.000448185 5.42101e-20 0)
(0.00104929 -1.65929e-06 0 -0.00044931 2.1684e-19 0)
(0.00104774 -4.17003e-06 0 -0.000449804 0 0)
(0.00104774 8.26251e-06 -8.67362e-19 -0.000450336 1.0842e-19 0)
(0.00104217 1.4171e-07 -4.33681e-19 -0.000446672 5.42101e-20 0)
(0.00183958 0.000251394 0 -0.00057245 8.67362e-19 0)
(0.00170617 1.02285e-05 -4.33681e-19 -0.000658538 -4.33681e-19 0)
(0.00173887 0.000242447 -2.71051e-20 -0.000557505 -4.33681e-19 0)
(0.00162108 2.55796e-05 -5.42101e-20 -0.000637119 0 0)
(0.00164745 0.000233898 -8.13152e-20 -0.000547958 6.50521e-19 0)
(0.00153982 3.27221e-05 5.42101e-20 -0.000618683 4.33681e-19 0)
(0.00156151 0.000226141 0 -0.000541241 -6.50521e-19 0)
(0.00145932 3.2747e-05 0 -0.00060175 0 0)
(0.0014775 0.000219426 0 -0.000535032 -2.1684e-19 0)
(0.00137654 2.62439e-05 0 -0.000584632 0 0)
(0.00139196 0.000213901 2.71051e-20 -0.000527108 2.1684e-19 0)
(0.00128829 1.33426e-05 -5.42101e-20 -0.00056543 -8.67362e-19 0)
(0.00130135 0.000209659 -2.71051e-20 -0.000515209 -6.50521e-19 0)
(0.00119107 -6.31432e-06 5.42101e-20 -0.000541991 -8.67362e-19 0)
(0.00120182 0.000206755 0 -0.000496871 4.33681e-19 0)
(0.00108077 -3.36892e-05 -1.0842e-19 -0.000511836 1.30104e-18 0)
(0.0010889 0.00020522 5.42101e-20 -0.000469217 -6.50521e-19 0)
(0.000952338 -7.06238e-05 2.71051e-20 -0.000472061 -4.33681e-19 0)
(0.000957084 0.000205055 0 -0.000428637 0 0)
(0.000799105 -0.000120428 -2.71051e-20 -0.000419238 8.67362e-19 0)
(0.00193194 0.000387889 -2.1684e-19 -0.000626156 0 0)
(0.00173443 0.000141842 -1.0842e-19 -0.000766057 0 0)
(0.00183746 0.000396003 -3.79471e-19 -0.000605348 1.73472e-18 0)
(0.00166693 0.000173202 -4.33681e-19 -0.000739765 1.30104e-18 0)
(0.00174769 0.000395211 0 -0.000587586 -6.50521e-19 0)
(0.00159842 0.000191338 0 -0.000713207 0 0)
(0.00166148 0.000387038 2.1684e-19 -0.000571354 -6.50521e-19 0)
(0.00152798 0.000196891 2.1684e-19 -0.000686682 0 0)
(0.00157715 0.000372318 -5.42101e-20 -0.000554947 -2.1684e-19 0)
(0.00145444 0.000190101 0 -0.000660082 -4.33681e-19 0)
(0.00149267 0.000351225 1.0842e-19 -0.000536464 8.67362e-19 0)
(0.00137636 0.000170726 2.1684e-19 -0.000632973 -8.67362e-19 0)
(0.00140579 0.000323233 -2.1684e-19 -0.000513769 -2.1684e-19 0)
(0.00129219 0.000137961 1.0842e-19 -0.000604712 0 0)
(0.00131412 0.000286972 -1.0842e-19 -0.00048442 6.50521e-19 0)
(0.00120043 9.03962e-05 -1.0842e-19 -0.00057457 8.67362e-19 0)
(0.00121534 0.000239921 -5.42101e-20 -0.00044558 0 0)
(0.00109994 2.60782e-05 5.42101e-20 -0.000541927 -8.67362e-19 0)
(0.00110764 0.000177782 1.0842e-19 -0.000393914 -2.1684e-19 0)
(0.000990882 -5.71333e-05 1.0842e-19 -0.00050657 -8.67362e-19 0)
(0.00201466 0.000388636 2.1684e-19 -0.000733575 -4.33681e-19 0)
(0.00176064 0.00015282 -2.1684e-19 -0.000868947 4.33681e-19 0)
(0.00193545 0.000416843 -4.33681e-19 -0.00070766 -1.0842e-19 0)
(0.00172293 0.000204483 -4.33681e-19 -0.000844273 0 0)
(0.00185539 0.000430437 1.0842e-19 -0.00068167 -2.1684e-19 0)
(0.00167865 0.000241019 1.0842e-18 -0.00081434 -1.30104e-18 0)
(0.00177594 0.000430717 3.25261e-19 -0.000655825 -4.33681e-19 0)
(0.00162899 0.000262203 -2.1684e-19 -0.000781332 4.33681e-19 0)
(0.0016979 0.000418488 -1.0842e-19 -0.000629948 1.0842e-19 0)
(0.00157484 0.000267631 0 -0.000747004 4.33681e-19 0)
(0.00162151 0.000393958 1.0842e-19 -0.000603554 2.1684e-19 0)
(0.00151685 0.000256604 -2.1684e-19 -0.000712755 4.33681e-19 0)
(0.00154663 0.000356653 5.42101e-20 -0.000575958 0 0)
(0.00145548 0.000227957 2.1684e-19 -0.000679737 -4.33681e-19 0)
(0.00147294 0.000305403 2.71051e-19 -0.000546405 -4.33681e-19 0)
(0.00139105 0.000179884 -1.0842e-19 -0.000648988 4.33681e-19 0)
(0.00139998 0.000238453 5.42101e-20 -0.000514251 0 0)
(0.00132358 0.000109764 2.1684e-19 -0.00062154 4.33681e-19 0)
(0.00132706 0.000153921 1.0842e-19 -0.000479245 0 0)
(0.00125252 1.40047e-05 0 -0.000598367 4.33681e-19 0)
(0.00201422 0.00024077 4.33681e-19 -0.000858271 -4.33681e-19 0)
(0.00173047 5.1895e-05 0 -0.000934439 0 0)
(0.00196938 0.000297564 -4.33681e-19 -0.000832875 1.0842e-19 0)
(0.00173443 0.000122464 -4.33681e-19 -0.000921927 2.1684e-19 0)
(0.00191371 0.000336315 1.0842e-19 -0.000802593 -2.1684e-19 0)
(0.00172398 0.000179409 -4.33681e-19 -0.000896912 0 0)
(0.00185172 0.000357726 -3.25261e-19 -0.000769498 0 0)
(0.00170261 0.00022133 2.1684e-19 -0.000863575 -6.50521e-19 0)
(0.00178733 0.000362235 1.0842e-19 -0.000735248 0 0)
(0.0016735 0.000246872 -2.1684e-19 -0.000825608 -2.1684e-19 0)
(0.00172384 0.00034989 1.0842e-19 -0.000701151 6.50521e-19 0)
(0.00163977 0.000254721 2.1684e-19 -0.000786374 -1.0842e-18 0)
(0.00166416 0.000320164 -6.50521e-19 -0.000668286 5.42101e-19 0)