/*--------------------------------*- C++ -*----------------------------------*\
| =========                 |                                                 |
| \\      /  F ield         | OpenFOAM: The Open Source CFD Toolbox           |
|  \\    /   O peration     | Version:  v2012                                 |
|   \\  /    A nd           | Website:  www.openfoam.com                      |
|    \\/     M anipulation  |                                                 |
\*---------------------------------------------------------------------------*/
FoamFile
{
    version     2.0;
    format      ascii;
    class       volScalarField;
    location    "6";
    object      sigmaEq;
}
// * * * * * * * * * * * * * * * * * * * * * * * * * * * * * * * * * * * * * //

dimensions      [1 -1 -2 0 0 0 0];


internalField   nonuniform List<scalar> 
500
(
2.43e+08
2.38437e+08
2.2813e+08
1.81592e+08
1.78801e+08
1.49684e+08
1.50367e+08
1.30129e+08
1.32712e+08
1.17059e+08
2.43e+08
2.00687e+08
2.02925e+08
1.63186e+08
1.72905e+08
1.42592e+08
1.53937e+08
1.30451e+08
1.41093e+08
1.22291e+08
2.07026e+08
1.61136e+08
1.76417e+08
1.41645e+08
1.61522e+08
1.34318e+08
1.52466e+08
1.30683e+08
1.45486e+08
1.27775e+08
1.5173e+08
1.18662e+08
1.44173e+08
1.19356e+08
1.44463e+08
1.24034e+08
1.44316e+08
1.26871e+08
1.42404e+08
1.27373e+08
9.27127e+07
7.8847e+07
1.09492e+08
9.74987e+07
1.22766e+08
1.10628e+08
1.29682e+08
1.17489e+08
1.32065e+08
1.18587e+08
3.98747e+07
4.80743e+07
7.51579e+07
7.62179e+07
9.4948e+07
9.17776e+07
1.03646e+08
9.98669e+07
1.03937e+08
1.05169e+08
2.65641e+07
4.27181e+07
5.58515e+07
6.59882e+07
7.64087e+07
8.09488e+07
8.8517e+07
9.00808e+07
9.73131e+07
9.57515e+07
5.63886e+07
5.58388e+07
5.18577e+07
6.09155e+07
6.22001e+07
6.89734e+07
7.17878e+07
7.49331e+07
7.86473e+07
7.8739e+07
8.29837e+07
6.93889e+07
5.80824e+07
5.73156e+07
5.12564e+07
5.47736e+07
5.25013e+07
5.52068e+07
5.5569e+07
5.66775e+07
9.94124e+07
6.78776e+07
6.1758e+07
4.80262e+07
4.40033e+07
3.82404e+07
3.65376e+07
3.40207e+07
3.49076e+07
3.33685e+07
3.85924e+07
2.95904e+07
5.52652e+07
4.51785e+07
7.92378e+07
6.44787e+07
1.00252e+08
8.20655e+07
1.14584e+08
9.58978e+07
3.29353e+07
3.19419e+07
4.95809e+07
4.56117e+07
7.10206e+07
6.16846e+07
9.06447e+07
7.61295e+07
1.05385e+08
8.70527e+07
3.43166e+07
3.59019e+07
4.63558e+07
4.63846e+07
6.349e+07
5.94043e+07
8.06091e+07
7.17547e+07
9.5016e+07
8.17366e+07
3.84265e+07
4.05907e+07
4.62407e+07
4.81525e+07
5.88443e+07
5.82965e+07
7.26926e+07
6.86526e+07
8.5559e+07
7.78135e+07
4.32939e+07
4.53265e+07
4.82151e+07
5.06313e+07
5.69917e+07
5.82727e+07
6.75018e+07
6.66629e+07
7.81166e+07
7.4727e+07
4.79799e+07
4.96007e+07
5.11059e+07
5.32742e+07
5.70418e+07
5.88827e+07
6.4633e+07
6.54413e+07
7.28238e+07
7.21834e+07
5.19837e+07
5.30131e+07
5.40109e+07
5.55142e+07
5.79657e+07
5.95397e+07
6.32516e+07
6.45091e+07
6.92402e+07
6.98872e+07
5.49459e+07
5.5166e+07
5.62483e+07
5.67744e+07
5.8827e+07
5.96163e+07
6.24143e+07
6.33436e+07
6.66461e+07
6.75218e+07
5.65042e+07
5.54861e+07
5.7146e+07
5.6318e+07
5.87295e+07
5.85303e+07
6.12635e+07
6.1509e+07
6.43296e+07
6.48907e+07
5.61805e+07
5.24138e+07
5.54872e+07
5.369e+07
5.69583e+07
5.58842e+07
5.92073e+07
5.88766e+07
6.19296e+07
6.2317e+07
1.19439e+08
1.09645e+08
1.20348e+08
1.12884e+08
1.20489e+08
1.14671e+08
1.20115e+08
1.15562e+08
1.19406e+08
1.15977e+08
1.18557e+08
1.16306e+08
1.17831e+08
1.16952e+08
1.17603e+08
1.18366e+08
1.18394e+08
1.21051e+08
1.20894e+08
1.25479e+08
1.02504e+08
9.69962e+07
1.05335e+08
1.00366e+08
1.07332e+08
1.03105e+08
1.08772e+08
1.05381e+08
1.09914e+08
1.07437e+08
1.11022e+08
1.09544e+08
1.12375e+08
1.11994e+08
1.14282e+08
1.15093e+08
1.17082e+08
1.1916e+08
1.21121e+08
1.24541e+08
9.34074e+07
8.90521e+07
9.61382e+07
9.22397e+07
9.84953e+07
9.51515e+07
1.00577e+08
9.78634e+07
1.02526e+08
1.00496e+08
1.04507e+08
1.032e+08
1.06697e+08
1.06139e+08
1.09285e+08
1.09485e+08
1.12461e+08
1.13411e+08
1.16422e+08
1.18071e+08
8.65902e+07
8.33156e+07
8.92669e+07
8.63238e+07
9.17063e+07
8.91411e+07
9.39649e+07
9.18164e+07
9.61201e+07
9.44138e+07
9.82641e+07
9.70098e+07
1.00498e+08
9.96891e+07
1.02927e+08
1.0254e+08
1.0566e+08
1.05653e+08
1.08803e+08
1.09119e+08
8.10994e+07
7.89092e+07
8.36547e+07
8.16284e+07
8.59957e+07
8.41682e+07
8.81586e+07
8.65545e+07
9.01863e+07
8.8817e+07
9.21275e+07
9.09891e+07
9.40359e+07
9.3107e+07
9.5969e+07
9.52098e+07
9.79889e+07
9.73405e+07
1.00164e+08
9.95475e+07
7.66702e+07
7.53551e+07
7.89565e+07
7.76718e+07
8.10437e+07
7.98199e+07
8.29487e+07
8.18045e+07
8.46898e+07
8.363e+07
8.62866e+07
8.52999e+07
8.77603e+07
8.68162e+07
8.91341e+07
8.81808e+07
9.04359e+07
8.93977e+07
9.17016e+07
9.04782e+07
7.30651e+07
7.22782e+07
7.49704e+07
7.41482e+07
7.67126e+07
7.5878e+07
7.82919e+07
7.74572e+07
7.97074e+07
7.88713e+07
8.09561e+07
8.01017e+07
8.20326e+07
8.11233e+07
8.29292e+07
8.19043e+07
8.36378e+07
8.24072e+07
8.41548e+07
8.2594e+07
6.99522e+07
6.93646e+07
7.14639e+07
7.08537e+07
7.28674e+07
7.22437e+07
7.41504e+07
7.35093e+07
7.52965e+07
7.46256e+07
7.62861e+07
7.55619e+07
7.70939e+07
7.62764e+07
7.7685e+07
7.6711e+07
7.80133e+07
7.67858e+07
7.80219e+07
7.6397e+07
6.70248e+07
6.65281e+07
6.8283e+07
6.78778e+07
6.94891e+07
6.91247e+07
7.06047e+07
7.02524e+07
7.16093e+07
7.12408e+07
7.24811e+07
7.20616e+07
7.31891e+07
7.26724e+07
7.36865e+07
7.30099e+07
7.39024e+07
7.29775e+07
7.37315e+07
7.24245e+07
6.43545e+07
6.44649e+07
6.57888e+07
6.60244e+07
6.70612e+07
6.74544e+07
6.82155e+07
6.87386e+07
6.92525e+07
6.98443e+07
7.01551e+07
7.07329e+07
7.08958e+07
7.13623e+07
7.14366e+07
7.16885e+07
7.17258e+07
7.16661e+07
7.16901e+07
7.12552e+07
1.19853e+08
1.13826e+08
1.13974e+08
1.08612e+08
1.0878e+08
1.0371e+08
1.03992e+08
9.88937e+07
9.93487e+07
9.39381e+07
9.45972e+07
8.86156e+07
8.94771e+07
8.2686e+07
8.3707e+07
7.58946e+07
7.69669e+07
6.79895e+07
6.88752e+07
5.88096e+07
1.29517e+08
1.20212e+08
1.24261e+08
1.16101e+08
1.19135e+08
1.11832e+08
1.14043e+08
1.07312e+08
1.0885e+08
1.02443e+08
1.03389e+08
9.71271e+07
9.74585e+07
9.12839e+07
9.08267e+07
8.48893e+07
8.3241e+07
7.80617e+07
7.44785e+07
7.12359e+07
1.37577e+08
1.25761e+08
1.334e+08
1.2351e+08
1.28868e+08
1.20672e+08
1.24026e+08
1.1727e+08
1.18885e+08
1.13326e+08
1.13433e+08
1.08864e+08
1.07641e+08
1.03934e+08
1.01493e+08
9.86434e+07
9.50338e+07
9.32172e+07
8.84427e+07
8.8099e+07
1.3934e+08
1.26198e+08
1.37049e+08
1.26306e+08
1.33878e+08
1.25351e+08
1.30012e+08
1.23517e+08
1.25623e+08
1.20965e+08
1.20874e+08
1.17865e+08
1.15934e+08
1.14417e+08
1.11018e+08
1.10891e+08
1.06452e+08
1.07684e+08
1.02759e+08
1.054e+08
1.33566e+08
1.23325e+08
1.34356e+08
1.24979e+08
1.33326e+08
1.25352e+08
1.30994e+08
1.24805e+08
1.27801e+08
1.23587e+08
1.2414e+08
1.21945e+08
1.20396e+08
1.2019e+08
1.17017e+08
1.18766e+08
1.14615e+08
1.1835e+08
1.14146e+08
1.20058e+08
)
;

boundaryField
{
    back
    {
        type            empty;
    }
    front
    {
        type            empty;
    }
    left
    {
        type            calculated;
        value           nonuniform List<scalar> 
15
(
2.43e+08
2.2813e+08
1.78801e+08
1.50367e+08
1.32712e+08
1.19853e+08
1.13974e+08
1.0878e+08
1.03992e+08
9.93487e+07
9.45972e+07
8.94771e+07
8.3707e+07
7.69669e+07
6.88752e+07
)
;
    }
    hole
    {
        type            calculated;
        value           nonuniform List<scalar> 10(2.43e+08 2.43e+08 2.07026e+08 1.5173e+08 9.27127e+07 3.98747e+07 2.65641e+07 5.63886e+07 8.29837e+07 9.94124e+07);
    }
    down
    {
        type            calculated;
        value           nonuniform List<scalar> 
15
(
6.78776e+07
4.80262e+07
3.82404e+07
3.40207e+07
3.33685e+07
3.85924e+07
3.29353e+07
3.43166e+07
3.84265e+07
4.32939e+07
4.79799e+07
5.19837e+07
5.49459e+07
5.65042e+07
5.61805e+07
)
;
    }
    right
    {
        type            calculated;
        value           nonuniform List<scalar> 
15
(
5.24138e+07
5.369e+07
5.58842e+07
5.88766e+07
6.2317e+07
6.44649e+07
6.60244e+07
6.74544e+07
6.87386e+07
6.98443e+07
7.07329e+07
7.13623e+07
7.16885e+07
7.16661e+07
7.12552e+07
)
;
    }
    up
    {
        type            calculated;
        value           nonuniform List<scalar> 
15
(
1.25479e+08
1.24541e+08
1.18071e+08
1.09119e+08
9.95475e+07
9.04782e+07
8.2594e+07
7.6397e+07
7.24245e+07
7.12552e+07
5.88096e+07
7.12359e+07
8.8099e+07
1.054e+08
1.20058e+08
)
;
    }
}


// ************************************************************************* //
