/*--------------------------------*- C++ -*----------------------------------*\
| =========                 |                                                 |
| \\      /  F ield         | OpenFOAM: The Open Source CFD Toolbox           |
|  \\    /   O peration     | Version:  v2012                                 |
|   \\  /    A nd           | Website:  www.openfoam.com                      |
|    \\/     M anipulation  |                                                 |
\*---------------------------------------------------------------------------*/
FoamFile
{
    version     2.0;
    format      ascii;
    class       volVectorField;
    location    "1";
    object      D;
}
// * * * * * * * * * * * * * * * * * * * * * * * * * * * * * * * * * * * * * //

dimensions      [0 1 0 0 0 0 0];


internalField   nonuniform List<vector> 
4000
(
(7.24722e-06 -0.000195239 0)
(6.87569e-06 -0.0001989 0)
(6.54781e-06 -0.000201984 0)
(6.26187e-06 -0.00020485 0)
(6.0089e-06 -0.000207345 0)
(5.78894e-06 -0.000209657 0)
(5.59364e-06 -0.000211725 0)
(5.42257e-06 -0.000213648 0)
(5.27069e-06 -0.000215409 0)
(5.13669e-06 -0.000217059 0)
(5.01761e-06 -0.000218599 0)
(4.9119e-06 -0.000220059 0)
(4.8176e-06 -0.000221443 0)
(4.73329e-06 -0.00022277 0)
(4.65753e-06 -0.000224046 0)
(4.58899e-06 -0.000225282 0)
(4.52668e-06 -0.000226485 0)
(4.46912e-06 -0.00022766 0)
(4.4161e-06 -0.000228813 0)
(4.36498e-06 -0.000229947 0)
(2.17364e-05 -0.000194686 0)
(2.06265e-05 -0.000198271 0)
(1.96504e-05 -0.000201289 0)
(1.87954e-05 -0.000204097 0)
(1.80441e-05 -0.000206539 0)
(1.7383e-05 -0.000208803 0)
(1.68009e-05 -0.000210831 0)
(1.62867e-05 -0.000212715 0)
(1.58328e-05 -0.000214442 0)
(1.54308e-05 -0.000216059 0)
(1.50746e-05 -0.00021757 0)
(1.47579e-05 -0.000219001 0)
(1.44759e-05 -0.000220359 0)
(1.42237e-05 -0.000221659 0)
(1.39973e-05 -0.000222911 0)
(1.37926e-05 -0.000224122 0)
(1.36066e-05 -0.0002253 0)
(1.34349e-05 -0.000226451 0)
(1.3277e-05 -0.00022758 0)
(1.31249e-05 -0.00022869 0)
(3.61753e-05 -0.000193578 0)
(3.43462e-05 -0.000197013 0)
(3.27327e-05 -0.000199901 0)
(3.1324e-05 -0.000202594 0)
(3.00745e-05 -0.000204935 0)
(2.89932e-05 -0.00020711 0)
(2.80302e-05 -0.000209056 0)
(2.71856e-05 -0.000210866 0)
(2.64362e-05 -0.000212524 0)
(2.57736e-05 -0.000214078 0)
(2.51856e-05 -0.00021553 0)
(2.46631e-05 -0.000216904 0)
(2.41975e-05 -0.000218209 0)
(2.37813e-05 -0.000219458 0)
(2.34078e-05 -0.000220659 0)
(2.30704e-05 -0.000221822 0)
(2.2764e-05 -0.000222952 0)
(2.24818e-05 -0.000224055 0)
(2.22224e-05 -0.000225138 0)
(2.19733e-05 -0.0002262 0)
(5.05525e-05 -0.000191944 0)
(4.80336e-05 -0.000195159 0)
(4.58162e-05 -0.000197854 0)
(4.38716e-05 -0.000200382 0)
(4.21612e-05 -0.000202567 0)
(4.0657e-05 -0.000204599 0)
(3.93294e-05 -0.000206429 0)
(3.81574e-05 -0.000208125 0)
(3.71214e-05 -0.000209686 0)
(3.62038e-05 -0.000211145 0)
(3.53907e-05 -0.00021251 0)
(3.46679e-05 -0.000213802 0)
(3.40246e-05 -0.000215028 0)
(3.34498e-05 -0.000216202 0)
(3.29344e-05 -0.00021733 0)
(3.24694e-05 -0.000218421 0)
(3.20478e-05 -0.000219482 0)
(3.16604e-05 -0.000220516 0)
(3.1305e-05 -0.00022153 0)
(3.09651e-05 -0.000222523 0)
(6.48285e-05 -0.000189781 0)
(6.16586e-05 -0.000192707 0)
(5.88593e-05 -0.000195155 0)
(5.6412e-05 -0.000197458 0)
(5.41962e-05 -0.000199443 0)
(5.23577e-05 -0.000201322 0)
(5.06805e-05 -0.000202987 0)
(4.92092e-05 -0.000204547 0)
(4.7903e-05 -0.000205972 0)
(4.67445e-05 -0.000207311 0)
(4.57181e-05 -0.000208561 0)
(4.48049e-05 -0.000209746 0)
(4.39927e-05 -0.00021087 0)
(4.32671e-05 -0.000211946 0)
(4.26174e-05 -0.00021298 0)
(4.20319e-05 -0.000213979 0)
(4.15022e-05 -0.000214951 0)
(4.10166e-05 -0.000215895 0)
(4.05724e-05 -0.000216822 0)
(4.015e-05 -0.000217726 0)
(7.89804e-05 -0.000187125 0)
(7.5216e-05 -0.000189704 0)
(7.18958e-05 -0.000191859 0)
(6.89784e-05 -0.000193893 0)
(6.64097e-05 -0.000195663 0)
(6.41406e-05 -0.000197321 0)
(6.21414e-05 -0.000198797 0)
(6.03717e-05 -0.000200182 0)
(5.88084e-05 -0.000201445 0)
(5.74221e-05 -0.000202636 0)
(5.61939e-05 -0.000203747 0)
(5.51024e-05 -0.000204802 0)
(5.41316e-05 -0.000205803 0)
(5.32654e-05 -0.000206761 0)
(5.24904e-05 -0.000207682 0)
(5.17934e-05 -0.000208571 0)
(5.11641e-05 -0.000209435 0)
(5.05894e-05 -0.000210273 0)
(5.00651e-05 -0.000211097 0)
(4.95697e-05 -0.000211895 0)
(9.29767e-05 -0.000184025 0)
(8.86762e-05 -0.000186208 0)
(8.48855e-05 -0.000188018 0)
(8.15411e-05 -0.000189742 0)
(7.86576e-05 -0.000191251 0)
(7.59918e-05 -0.00019264 0)
(7.36981e-05 -0.000193898 0)
(7.16535e-05 -0.000195076 0)
(6.98528e-05 -0.000196158 0)
(6.82563e-05 -0.000197178 0)
(6.68415e-05 -0.000198132 0)
(6.55853e-05 -0.000199039 0)
(6.44682e-05 -0.000199899 0)
(6.34726e-05 -0.000200724 0)
(6.25828e-05 -0.000201517 0)
(6.17843e-05 -0.000202281 0)
(6.10651e-05 -0.000203025 0)
(6.04108e-05 -0.000203743 0)
(5.98158e-05 -0.00020445 0)
(5.92582e-05 -0.000205131 0)
(0.000106796 -0.000180489 0)
(0.000102018 -0.000182233 0)
(9.77953e-05 -0.000183655 0)
(9.40732e-05 -0.000185041 0)
(9.07965e-05 -0.000186224 0)
(8.78926e-05 -0.000187347 0)
(8.53271e-05 -0.000188364 0)
(8.30543e-05 -0.000189317 0)
(8.1042e-05 -0.000190198 0)
(7.92579e-05 -0.000191028 0)
(7.76755e-05 -0.000191808 0)
(7.62703e-05 -0.00019255 0)
(7.50212e-05 -0.000193256 0)
(7.39087e-05 -0.000193933 0)
(7.29158e-05 -0.000194584 0)
(7.20268e-05 -0.000195212 0)
(7.12279e-05 -0.000195823 0)
(7.05044e-05 -0.000196411 0)
(6.98489e-05 -0.000196992 0)
(6.92398e-05 -0.000197546 0)
(0.000120418 -0.000176551 0)
(0.000115237 -0.000177818 0)
(0.000110653 -0.000178831 0)
(0.000106606 -0.000179841 0)
(0.000103043 -0.000180706 0)
(9.98669e-05 -0.000181537 0)
(9.70705e-05 -0.000182283 0)
(9.45835e-05 -0.000182994 0)
(9.23852e-05 -0.000183651 0)
(9.04325e-05 -0.000184276 0)
(8.8702e-05 -0.000184865 0)
(8.71646e-05 -0.000185429 0)
(8.57989e-05 -0.000185968 0)
(8.45836e-05 -0.000186486 0)
(8.35005e-05 -0.000186986 0)
(8.25327e-05 -0.000187468 0)
(8.16654e-05 -0.000187939 0)
(8.08838e-05 -0.00018839 0)
(8.01781e-05 -0.000188838 0)
(7.95285e-05 -0.000189259 0)
(0.000133804 -0.000172259 0)
(0.000128294 -0.000173026 0)
(0.000123406 -0.000173602 0)
(0.000119089 -0.000174221 0)
(0.000115273 -0.000174736 0)
(0.000111887 -0.000175255 0)
(0.00010889 -0.000175719 0)
(0.00010623 -0.000176173 0)
(0.000103872 -0.000176596 0)
(0.000101778 -0.000177005 0)
(9.99204e-05 -0.000177395 0)
(9.82704e-05 -0.000177772 0)
(9.68048e-05 -0.000178136 0)
(9.55018e-05 -0.000178488 0)
(9.43419e-05 -0.000178831 0)
(9.3308e-05 -0.000179161 0)
(9.23837e-05 -0.000179487 0)
(9.15548e-05 -0.000179797 0)
(9.08092e-05 -0.000180109 0)
(9.013e-05 -0.000180395 0)
(0.000146948 -0.000167644 0)
(0.000141183 -0.000167897 0)
(0.000136061 -0.000168025 0)
(0.00013153 -0.000168238 0)
(0.000127519 -0.000168396 0)
(0.000123954 -0.000168591 0)
(0.000120797 -0.000168763 0)
(0.000117989 -0.000168951 0)
(0.000115501 -0.000169129 0)
(0.000113289 -0.000169315 0)
(0.000111326 -0.000169496 0)
(0.000109582 -0.000169681 0)
(0.000108034 -0.000169863 0)
(0.000106658 -0.000170045 0)
(0.000105436 -0.000170227 0)
(0.000104348 -0.000170404 0)
(0.000103379 -0.000170583 0)
(0.000102513 -0.000170751 0)
(0.000101738 -0.000170926 0)
(0.000101039 -0.000171078 0)
(0.000159812 -0.000162751 0)
(0.000153871 -0.000162483 0)
(0.00014858 -0.000162155 0)
(0.000143894 -0.000161957 0)
(0.000139736 -0.00016175 0)
(0.000136039 -0.000161613 0)
(0.000132759 -0.000161487 0)
(0.000129842 -0.000161403 0)
(0.000127251 -0.000161334 0)
(0.000124948 -0.000161292 0)
(0.000122903 -0.000161263 0)
(0.000121086 -0.000161252 0)
(0.000119473 -0.000161253 0)
(0.000118042 -0.000161263 0)
(0.00011677 -0.000161284 0)
(0.000115642 -0.000161307 0)
(0.000114639 -0.000161341 0)
(0.000113748 -0.000161368 0)
(0.000112953 -0.00016141 0)
(0.000112244 -0.000161431 0)
(0.000172389 -0.000157614 0)
(0.000166345 -0.000156829 0)
(0.000160951 -0.000156048 0)
(0.000156167 -0.000155439 0)
(0.000151914 -0.000154867 0)
(0.000148128 -0.000154399 0)
(0.000144764 -0.000153975 0)
(0.000141768 -0.000153618 0)
(0.000139106 -0.000153301 0)
(0.000136738 -0.00015303 0)
(0.000134634 -0.000152791 0)
(0.000132764 -0.000152585 0)
(0.000131105 -0.000152404 0)
(0.000129633 -0.000152245 0)
(0.000128327 -0.000152106 0)
(0.000127171 -0.000151979 0)
(0.000126145 -0.00015187 0)
(0.00012524 -0.000151762 0)
(0.000124433 -0.000151675 0)
(0.000123722 -0.000151571 0)
(0.00018465 -0.000152271 0)
(0.000178578 -0.00015098 0)
(0.000173145 -0.000149756 0)
(0.000168319 -0.000148742 0)
(0.000164021 -0.000147812 0)
(0.00016019 -0.000147016 0)
(0.00015678 -0.000146298 0)
(0.000153741 -0.000145672 0)
(0.000151037 -0.00014511 0)
(0.00014863 -0.000144614 0)
(0.00014649 -0.000144169 0)
(0.000144589 -0.000143772 0)
(0.000142901 -0.000143414 0)
(0.000141405 -0.000143089 0)
(0.00014008 -0.000142796 0)
(0.000138909 -0.000142524 0)
(0.000137872 -0.000142279 0)
(0.000136961 -0.000142041 0)
(0.000136153 -0.000141831 0)
(0.000135449 -0.00014161 0)
(0.000196583 -0.000146757 0)
(0.000190551 -0.00014498 0)
(0.000185141 -0.000143327 0)
(0.000180328 -0.000141923 0)
(0.000176032 -0.000140645 0)
(0.000172198 -0.000139532 0)
(0.000168781 -0.000138528 0)
(0.000165732 -0.000137641 0)
(0.000163016 -0.000136841 0)
(0.000160596 -0.000136127 0)
(0.000158443 -0.000135482 0)
(0.00015653 -0.0001349 0)
(0.000154832 -0.000134371 0)
(0.000153328 -0.000133888 0)
(0.000151997 -0.000133447 0)
(0.000150824 -0.000133037 0)
(0.000149787 -0.000132662 0)
(0.00014888 -0.000132302 0)
(0.000148078 -0.000131978 0)
(0.000147387 -0.000131649 0)
(0.000208168 -0.000141103 0)
(0.000202241 -0.000138865 0)
(0.000196912 -0.000136806 0)
(0.000192164 -0.000135031 0)
(0.000187916 -0.000133421 0)
(0.000184121 -0.000132006 0)
(0.000180732 -0.000130729 0)
(0.000177705 -0.000129592 0)
(0.000175005 -0.000128565 0)
(0.000172598 -0.000127643 0)
(0.000170455 -0.000126807 0)
(0.000168551 -0.000126049 0)
(0.00016686 -0.000125359 0)
(0.000165364 -0.000124726 0)
(0.000164041 -0.000124147 0)
(0.000162877 -0.000123608 0)
(0.000161851 -0.000123114 0)
(0.000160958 -0.000122642 0)
(0.00016017 -0.000122214 0)
(0.000159501 -0.000121787 0)
(0.000219393 -0.00013534 0)
(0.000213631 -0.000132674 0)
(0.000208435 -0.000130236 0)
(0.0002038 -0.000128113 0)
(0.000199644 -0.000126193 0)
(0.000195926 -0.000124493 0)
(0.0001926 -0.00012296 0)
(0.000189625 -0.000121588 0)
(0.00018697 -0.000120349 0)
(0.0001846 -0.000119231 0)
(0.000182489 -0.000118217 0)
(0.000180613 -0.000117295 0)
(0.000178947 -0.000116453 0)
(0.000177473 -0.000115682 0)
(0.000176171 -0.000114974 0)
(0.000175028 -0.000114316 0)
(0.000174022 -0.000113712 0)
(0.000173152 -0.000113138 0)
(0.000172385 -0.000112615 0)
(0.000171742 -0.0001121 0)
(0.000230241 -0.000129492 0)
(0.000224699 -0.000126435 0)
(0.000219686 -0.000123651 0)
(0.000215208 -0.000121208 0)
(0.000211183 -0.000119003 0)
(0.000207578 -0.000117041 0)
(0.000204347 -0.000115272 0)
(0.000201455 -0.000113684 0)
(0.000198869 -0.000112248 0)
(0.000196559 -0.00011095 0)
(0.000194501 -0.000109771 0)
(0.00019267 -0.000108698 0)
(0.000191045 -0.000107718 0)
(0.000189609 -0.00010682 0)
(0.00018834 -0.000105995 0)
(0.000187231 -0.000105232 0)
(0.000186254 -0.000104528 0)
(0.000185416 -0.000103867 0)
(0.000184678 -0.00010326 0)
(0.00018407 -0.000102673 0)
(0.000240701 -0.000123586 0)
(0.000235426 -0.000120179 0)
(0.000230641 -0.000117084 0)
(0.00022636 -0.000114355 0)
(0.000222503 -0.000111893 0)
(0.000219043 -0.000109695 0)
(0.000215937 -0.000107713 0)
(0.000213153 -0.00010593 0)
(0.000210661 -0.000104317 0)
(0.000208433 -0.000102857 0)
(0.000206447 -0.000101531 0)
(0.000204679 -0.000100324 0)
(0.000203109 -9.92202e-05 0)
(0.000201723 -9.82109e-05 0)
(0.0002005 -9.72821e-05 0)
(0.000199431 -9.64271e-05 0)
(0.000198493 -9.56382e-05 0)
(0.000197692 -9.48995e-05 0)
(0.00019699 -9.4221e-05 0)
(0.000196415 -9.35707e-05 0)
(0.000250761 -0.000117639 0)
(0.000245796 -0.000113927 0)
(0.000241277 -0.000110561 0)
(0.000237229 -0.000107581 0)
(0.000233572 -0.000104893 0)
(0.000230288 -0.000102488 0)
(0.000227334 -0.000100317 0)
(0.000224683 -9.83617e-05 0)
(0.000222307 -9.65916e-05 0)
(0.000220181 -9.49886e-05 0)
(0.000218284 -9.35309e-05 0)
(0.000216595 -9.22044e-05 0)
(0.000215097 -9.09913e-05 0)
(0.000213775 -8.98838e-05 0)
(0.000212608 -8.88617e-05 0)
(0.0002116 -8.79327e-05 0)
(0.000210705 -8.7055e-05 0)
(0.000209953 -8.62573e-05 0)
(0.000209295 -8.55077e-05 0)
(0.000208774 -8.48277e-05 0)
(0.00026041 -0.000111671 0)
(0.000255791 -0.000107702 0)
(0.000251571 -0.000104107 0)
(0.000247786 -0.000100914 0)
(0.000244357 -9.80347e-05 0)
(0.000241274 -9.54528e-05 0)
(0.000238495 -9.31228e-05 0)
(0.000235998 -9.10213e-05 0)
(0.000233757 -8.91188e-05 0)
(0.00023175 -8.73952e-05 0)
(0.000229957 -8.58281e-05 0)
(0.000228359 -8.44032e-05 0)
(0.000226942 -8.31002e-05 0)
(0.000225688 -8.19134e-05 0)
(0.000224587 -8.0817e-05 0)
(0.000223621 -7.98249e-05 0)
(0.00022279 -7.89003e-05 0)
(0.000222064 -7.80604e-05 0)
(0.000221474 -7.72652e-05 0)
(0.000220931 -7.65605e-05 0)
(0.000269639 -0.000105694 0)
(0.000265396 -0.000101517 0)
(0.000261502 -9.77388e-05 0)
(0.000258007 -9.43718e-05 0)
(0.000254831 -9.13366e-05 0)
(0.000251972 -8.86097e-05 0)
(0.00024939 -8.61483e-05 0)
(0.000247068 -8.39258e-05 0)
(0.00024498 -8.19132e-05 0)
(0.000243111 -8.00885e-05 0)
(0.00024144 -7.84296e-05 0)
(0.000239952 -7.692e-05 0)
(0.000238634 -7.5541e-05 0)
(0.000237467 -7.42816e-05 0)
(0.00023645 -7.31255e-05 0)
(0.000235549 -7.20616e-05 0)
(0.000234798 -7.10885e-05 0)
(0.000234126 -7.01942e-05 0)
(0.000233607 -6.93537e-05 0)
(0.000233094 -6.85775e-05 0)
(0.000278437 -9.97225e-05 0)
(0.000274593 -9.539e-05 0)
(0.000271048 -9.14723e-05 0)
(0.000267862 -8.79734e-05 0)
(0.000264958 -8.48192e-05 0)
(0.000262341 -8.19812e-05 0)
(0.000259971 -7.94189e-05 0)
(0.000257838 -7.7103e-05 0)
(0.000255918 -7.50052e-05 0)
(0.000254197 -7.31026e-05 0)
(0.00025266 -7.1372e-05 0)
(0.000251289 -6.97979e-05 0)
(0.000250078 -6.83586e-05 0)
(0.000249006 -6.70474e-05 0)
(0.000248076 -6.58391e-05 0)
(0.000247256 -6.47396e-05 0)
(0.000246572 -6.37159e-05 0)
(0.000245961 -6.27829e-05 0)
(0.000245507 -6.19062e-05 0)
(0.00024504 -6.1093e-05 0)
(0.000286796 -9.37656e-05 0)
(0.000283368 -8.9329e-05 0)
(0.000280189 -8.53188e-05 0)
(0.00027733 -8.17302e-05 0)
(0.000274712 -7.84949e-05 0)
(0.000272351 -7.55801e-05 0)
(0.000270207 -7.29478e-05 0)
(0.000268276 -7.05667e-05 0)
(0.000266536 -6.84095e-05 0)
(0.000264975 -6.64518e-05 0)
(0.00026358 -6.46715e-05 0)
(0.000262338 -6.30512e-05 0)
(0.000261241 -6.1571e-05 0)
(0.000260272 -6.02208e-05 0)
(0.000259434 -5.89798e-05 0)
(0.000258696 -5.78469e-05 0)
(0.00025809 -5.6797e-05 0)
(0.000257543 -5.58386e-05 0)
(0.000257153 -5.49447e-05 0)
(0.00025674 -5.41113e-05 0)
(0.000294707 -8.78318e-05 0)
(0.000291707 -8.33435e-05 0)
(0.000288903 -7.92875e-05 0)
(0.000286381 -7.56518e-05 0)
(0.000284061 -7.23737e-05 0)
(0.000281965 -6.9417e-05 0)
(0.000280057 -6.67463e-05 0)
(0.000278337 -6.43287e-05 0)
(0.000276783 -6.21381e-05 0)
(0.00027539 -6.01494e-05 0)
(0.000274145 -5.83408e-05 0)
(0.000273037 -5.66949e-05 0)
(0.00027206 -5.51917e-05 0)
(0.000271198 -5.38213e-05 0)
(0.000270458 -5.25625e-05 0)
(0.000269808 -5.14148e-05 0)
(0.000269279 -5.03526e-05 0)
(0.000268804 -4.93832e-05 0)
(0.000268477 -4.84856e-05 0)
(0.000268125 -4.76456e-05 0)
(0.000302163 -8.19272e-05 0)
(0.000299595 -7.74391e-05 0)
(0.000297174 -7.3384e-05 0)
(0.000294994 -6.97439e-05 0)
(0.000292977 -6.64614e-05 0)
(0.000291153 -6.34979e-05 0)
(0.000289487 -6.08206e-05 0)
(0.000287983 -5.83956e-05 0)
(0.000286622 -5.6198e-05 0)
(0.000285402 -5.42024e-05 0)
(0.000284312 -5.23879e-05 0)
(0.000283342 -5.07363e-05 0)
(0.00028249 -4.9229e-05 0)
(0.00028174 -4.78549e-05 0)
(0.000281099 -4.65947e-05 0)
(0.00028054 -4.54455e-05 0)
(0.000280093 -4.43856e-05 0)
(0.000279693 -4.34176e-05 0)
(0.000279431 -4.25276e-05 0)
(0.000279145 -4.16918e-05 0)
(0.000309156 -7.60563e-05 0)
(0.00030702 -7.16195e-05 0)
(0.000304981 -6.76113e-05 0)
(0.000303145 -6.40089e-05 0)
(0.000301433 -6.07599e-05 0)
(0.000299883 -5.78243e-05 0)
(0.00029846 -5.51717e-05 0)
(0.000297175 -5.27679e-05 0)
(0.00029601 -5.05894e-05 0)
(0.000294966 -4.86107e-05 0)
(0.000294032 -4.68119e-05 0)
(0.000293204 -4.51748e-05 0)
(0.000292478 -4.36814e-05 0)
(0.000291843 -4.23205e-05 0)
(0.000291305 -4.10741e-05 0)
(0.000290839 -3.99378e-05 0)
(0.000290474 -3.88928e-05 0)
(0.000290152 -3.79378e-05 0)
(0.000289957 -3.70651e-05 0)
(0.000289738 -3.62428e-05 0)
(0.000315679 -7.02221e-05 0)
(0.00031397 -6.58866e-05 0)
(0.000312309 -6.19702e-05 0)
(0.000310813 -5.84465e-05 0)
(0.000309403 -5.52682e-05 0)
(0.000308126 -5.23945e-05 0)
(0.000306945 -4.97975e-05 0)
(0.000305879 -4.74431e-05 0)
(0.000304909 -4.53093e-05 0)
(0.00030404 -4.3371e-05 0)
(0.000303264 -4.16091e-05 0)
(0.000302578 -4.00058e-05 0)
(0.000301979 -3.85441e-05 0)
(0.000301459 -3.72124e-05 0)
(0.000301024 -3.59943e-05 0)
(0.000300652 -3.48839e-05 0)
(0.000300371 -3.38655e-05 0)
(0.000300127 -3.29342e-05 0)
(0.000299999 -3.20877e-05 0)
(0.00029985 -3.12875e-05 0)
(0.000321727 -6.44262e-05 0)
(0.000320433 -6.024e-05 0)
(0.00031914 -5.64586e-05 0)
(0.000317977 -5.30535e-05 0)
(0.000316863 -4.99817e-05 0)
(0.000315852 -4.72028e-05 0)
(0.00031491 -4.46911e-05 0)
(0.000314058 -4.24133e-05 0)
(0.000313281 -4.03489e-05 0)
(0.000312585 -3.84733e-05 0)
(0.000311965 -3.67689e-05 0)
(0.000311419 -3.5218e-05 0)
(0.000310946 -3.38049e-05 0)
(0.00031054 -3.25177e-05 0)
(0.000310208 -3.13417e-05 0)
(0.00030993 -3.027e-05 0)
(0.000309732 -2.92893e-05 0)
(0.000309566 -2.83918e-05 0)
(0.000309504 -2.758e-05 0)
(0.000309424 -2.681e-05 0)
(0.000327292 -5.86691e-05 0)
(0.000326397 -5.46781e-05 0)
(0.00032546 -5.10733e-05 0)
(0.000324617 -4.78247e-05 0)
(0.000323789 -4.48939e-05 0)
(0.000323036 -4.22412e-05 0)
(0.000322325 -3.98433e-05 0)
(0.000321681 -3.76682e-05 0)
(0.000321091 -3.56968e-05 0)
(0.000320563 -3.39057e-05 0)
(0.000320094 -3.22782e-05 0)
(0.000319685 -3.07975e-05 0)
(0.000319336 -2.9449e-05 0)
(0.000319041 -2.82211e-05 0)
(0.000318809 -2.71002e-05 0)
(0.000318623 -2.60789e-05 0)
(0.000318506 -2.51461e-05 0)
(0.000318417 -2.42919e-05 0)
(0.00031842 -2.35225e-05 0)
(0.000318408 -2.27905e-05 0)
(0.000332371 -5.295e-05 0)
(0.000331854 -4.91976e-05 0)
(0.000331254 -4.58084e-05 0)
(0.000330716 -4.27522e-05 0)
(0.000330159 -3.99948e-05 0)
(0.000329653 -3.7498e-05 0)
(0.000329161 -3.52408e-05 0)
(0.000328717 -3.31929e-05 0)
(0.000328305 -3.13367e-05 0)
(0.000327939 -2.96502e-05 0)
(0.000327615 -2.8118e-05 0)
(0.000327337 -2.67242e-05 0)
(0.000327106 -2.54553e-05 0)
(0.000326918 -2.43003e-05 0)
(0.000326783 -2.32468e-05 0)
(0.000326685 -2.22872e-05 0)
(0.000326647 -2.14123e-05 0)
(0.000326633 -2.06107e-05 0)
(0.000326697 -1.98917e-05 0)
(0.000326752 -1.92049e-05 0)
(0.000336957 -4.72676e-05 0)
(0.000336794 -4.37942e-05 0)
(0.000336509 -4.06572e-05 0)
(0.000336256 -3.7827e-05 0)
(0.000335954 -3.52732e-05 0)
(0.000335678 -3.29601e-05 0)
(0.000335393 -3.08688e-05 0)
(0.000335135 -2.89712e-05 0)
(0.000334891 -2.72512e-05 0)
(0.000334677 -2.56884e-05 0)
(0.00033449 -2.42688e-05 0)
(0.000334336 -2.29776e-05 0)
(0.000334216 -2.18025e-05 0)
(0.000334131 -2.07333e-05 0)
(0.000334087 -1.97584e-05 0)
(0.000334073 -1.88712e-05 0)
(0.000334109 -1.80619e-05 0)
(0.000334166 -1.7322e-05 0)
(0.000334288 -1.66568e-05 0)
(0.000334404 -1.60203e-05 0)
(0.000341046 -4.16194e-05 0)
(0.000341208 -3.84623e-05 0)
(0.000341212 -3.56111e-05 0)
(0.000341222 -3.30375e-05 0)
(0.000341155 -3.07152e-05 0)
(0.000341091 -2.86112e-05 0)
(0.000340997 -2.67088e-05 0)
(0.000340912 -2.49823e-05 0)
(0.000340823 -2.34174e-05 0)
(0.000340749 -2.19954e-05 0)
(0.000340689 -2.07038e-05 0)
(0.000340649 -1.95292e-05 0)
(0.000340634 -1.84602e-05 0)
(0.000340643 -1.74881e-05 0)
(0.000340684 -1.66016e-05 0)
(0.000340747 -1.57964e-05 0)
(0.000340855 -1.50618e-05 0)
(0.000340975 -1.4392e-05 0)
(0.000341157 -1.37947e-05 0)
(0.000341329 -1.32167e-05 0)
(0.000344634 -3.60027e-05 0)
(0.000345088 -3.31956e-05 0)
(0.000345353 -3.06605e-05 0)
(0.0003456 -2.83715e-05 0)
(0.000345744 -2.63059e-05 0)
(0.000345872 -2.4434e-05 0)
(0.00034595 -2.27415e-05 0)
(0.00034602 -2.12053e-05 0)
(0.000346071 -1.98129e-05 0)
(0.000346125 -1.85477e-05 0)
(0.000346179 -1.73988e-05 0)
(0.000346243 -1.63539e-05 0)
(0.000346321 -1.54038e-05 0)
(0.000346414 -1.45396e-05 0)
(0.000346533 -1.37527e-05 0)
(0.000346665 -1.30391e-05 0)
(0.000346837 -1.23849e-05 0)
(0.000347014 -1.18046e-05 0)
(0.00034725 -1.12492e-05 0)
(0.000347487 -1.0713e-05 0)
(0.000347717 -3.04143e-05 0)
(0.000348428 -2.79868e-05 0)
(0.000348922 -2.57948e-05 0)
(0.000349377 -2.3815e-05 0)
(0.000349707 -2.20283e-05 0)
(0.000350004 -2.0409e-05 0)
(0.000350233 -1.89448e-05 0)
(0.000350441 -1.76156e-05 0)
(0.000350616 -1.6411e-05 0)
(0.000350782 -1.53163e-05 0)
(0.000350937 -1.43225e-05 0)
(0.000351093 -1.34184e-05 0)
(0.000351254 -1.25969e-05 0)
(0.000351424 -1.18484e-05 0)
(0.000351608 -1.1169e-05 0)
(0.000351807 -1.05476e-05 0)
(0.000352027 -9.98678e-06 0)
(0.000352266 -9.46788e-06 0)
(0.000352535 -9.00792e-06 0)
(0.000352814 -8.56808e-06 0)
(0.000350292 -2.48502e-05 0)
(0.000351221 -2.28281e-05 0)
(0.00035191 -2.10023e-05 0)
(0.000352541 -1.93528e-05 0)
(0.000353031 -1.78643e-05 0)
(0.000353471 -1.6515e-05 0)
(0.00035383 -1.52949e-05 0)
(0.000354154 -1.41873e-05 0)
(0.000354435 -1.31834e-05 0)
(0.000354697 -1.22712e-05 0)
(0.000354939 -1.1443e-05 0)
(0.000355174 -1.069e-05 0)
(0.000355406 -1.00053e-05 0)
(0.000355641 -9.38262e-06 0)
(0.000355885 -8.81593e-06 0)
(0.000356137 -8.30065e-06 0)
(0.000356407 -7.83172e-06 0)
(0.000356689 -7.40344e-06 0)
(0.000356999 -7.01983e-06 0)
(0.000357314 -6.65021e-06 0)
(0.000352355 -1.93064e-05 0)
(0.000353462 -1.77112e-05 0)
(0.00035431 -1.62708e-05 0)
(0.000355085 -1.49693e-05 0)
(0.000355703 -1.37948e-05 0)
(0.00035626 -1.273e-05 0)
(0.000356725 -1.17672e-05 0)
(0.000357145 -1.08931e-05 0)
(0.000357512 -1.01009e-05 0)
(0.000357851 -9.38091e-06 0)
(0.000358164 -8.72732e-06 0)
(0.000358463 -8.13285e-06 0)
(0.000358753 -7.59267e-06 0)
(0.000359041 -7.10089e-06 0)
(0.000359332 -6.65419e-06 0)
(0.000359629 -6.24674e-06 0)
(0.000359938 -5.87822e-06 0)
(0.000360257 -5.53919e-06 0)
(0.000360599 -5.23964e-06 0)
(0.000360948 -4.95096e-06 0)
(0.000353905 -1.37787e-05 0)
(0.000355146 -1.26271e-05 0)
(0.000356115 -1.15873e-05 0)
(0.000356999 -1.06476e-05 0)
(0.000357716 -9.79968e-06 0)
(0.000358362 -9.03088e-06 0)
(0.000358906 -8.33569e-06 0)
(0.000359399 -7.70452e-06 0)
(0.000359832 -7.1325e-06 0)
(0.000360231 -6.6127e-06 0)
(0.000360598 -6.14078e-06 0)
(0.000360946 -5.71167e-06 0)
(0.00036128 -5.32166e-06 0)
(0.000361608 -4.96684e-06 0)
(0.000361936 -4.64432e-06 0)
(0.000362266 -4.35055e-06 0)
(0.000362605 -4.08449e-06 0)
(0.000362952 -3.84006e-06 0)
(0.000363317 -3.62396e-06 0)
(0.000363693 -3.41523e-06 0)
(0.000354939 -8.26255e-06 0)
(0.000356271 -7.56669e-06 0)
(0.000357321 -6.9384e-06 0)
(0.000358279 -6.3706e-06 0)
(0.000359061 -5.8582e-06 0)
(0.000359768 -5.39359e-06 0)
(0.000360366 -4.97347e-06 0)
(0.000360908 -4.59202e-06 0)
(0.000361384 -4.24631e-06 0)
(0.000361824 -3.93215e-06 0)
(0.000362226 -3.64695e-06 0)
(0.000362608 -3.38757e-06 0)
(0.000362972 -3.1519e-06 0)
(0.000363327 -2.93742e-06 0)
(0.000363679 -2.74262e-06 0)
(0.000364032 -2.56504e-06 0)
(0.000364391 -2.40452e-06 0)
(0.000364758 -2.25685e-06 0)
(0.000365139 -2.12666e-06 0)
(0.000365532 -2.00083e-06 0)
(0.000355456 -2.75341e-06 0)
(0.000356834 -2.52064e-06 0)
(0.000357925 -2.31047e-06 0)
(0.00035892 -2.12054e-06 0)
(0.000359735 -1.94913e-06 0)
(0.000360472 -1.79372e-06 0)
(0.000361097 -1.65319e-06 0)
(0.000361663 -1.52559e-06 0)
(0.000362162 -1.40995e-06 0)
(0.000362622 -1.30487e-06 0)
(0.000363043 -1.20947e-06 0)
(0.000363441 -1.12273e-06 0)
(0.00036382 -1.04389e-06 0)
(0.000364189 -9.72172e-07 0)
(0.000364553 -9.06997e-07 0)
(0.000364918 -8.47614e-07 0)
(0.000365287 -7.93886e-07 0)
(0.000365663 -7.44479e-07 0)
(0.000366053 -7.00887e-07 0)
(0.000366454 -6.58742e-07 0)
(0.00036719 -5.86123e-07 0)
(0.000366298 -1.78222e-06 0)
(0.000364518 -3.04761e-06 0)
(0.000361861 -4.43004e-06 0)
(0.000358344 -5.97173e-06 0)
(0.00035398 -7.72185e-06 0)
(0.000348815 -9.70962e-06 0)
(0.000342874 -1.19775e-05 0)
(0.00033616 -1.45864e-05 0)
(0.000328744 -1.7542e-05 0)
(0.000320655 -2.08932e-05 0)
(0.000311942 -2.46593e-05 0)
(0.000302651 -2.8869e-05 0)
(0.000292832 -3.35404e-05 0)
(0.000282539 -3.86901e-05 0)
(0.000271822 -4.43303e-05 0)
(0.000260738 -5.04682e-05 0)
(0.000249329 -5.71179e-05 0)
(0.000237652 -6.42752e-05 0)
(0.000225707 -7.19631e-05 0)
(0.000368366 -4.94778e-07 0)
(0.000367532 -1.50636e-06 0)
(0.000365867 -2.57991e-06 0)
(0.000363383 -3.76026e-06 0)
(0.000360093 -5.08342e-06 0)
(0.000356013 -6.59735e-06 0)
(0.000351173 -8.33248e-06 0)
(0.000345583 -1.03328e-05 0)
(0.000339294 -1.26212e-05 0)
(0.000332326 -1.52461e-05 0)
(0.000324723 -1.82234e-05 0)
(0.000316522 -2.15891e-05 0)
(0.000307766 -2.53617e-05 0)
(0.000298499 -2.95639e-05 0)
(0.000288769 -3.421e-05 0)
(0.00027862 -3.93099e-05 0)
(0.000268114 -4.48697e-05 0)
(0.000257287 -5.08817e-05 0)
(0.000246231 -5.73617e-05 0)
(0.00023494 -6.42652e-05 0)
(0.000369681 -4.2888e-07 0)
(0.000368902 -1.30618e-06 0)
(0.000367349 -2.23899e-06 0)
(0.000365028 -3.26654e-06 0)
(0.000361956 -4.42222e-06 0)
(0.000358143 -5.74534e-06 0)
(0.00035362 -7.26549e-06 0)
(0.000348404 -9.01936e-06 0)
(0.000342516 -1.10406e-05 0)
(0.000335997 -1.33532e-05 0)
(0.000328872 -1.59907e-05 0)
(0.000321183 -1.89734e-05 0)
(0.000312964 -2.23288e-05 0)
(0.000304255 -2.6074e-05 0)
(0.000295099 -3.02321e-05 0)
(0.00028553 -3.48116e-05 0)
(0.000275599 -3.98381e-05 0)
(0.000265327 -4.52917e-05 0)
(0.000254791 -5.12202e-05 0)
(0.000243982 -5.75208e-05 0)
(0.00037115 -3.78903e-07 0)
(0.000370421 -1.15417e-06 0)
(0.000368968 -1.9792e-06 0)
(0.000366796 -2.8889e-06 0)
(0.000363919 -3.91418e-06 0)
(0.000360349 -5.08907e-06 0)
(0.000356107 -6.44346e-06 0)
(0.00035121 -8.00565e-06 0)
(0.000345688 -9.80555e-06 0)
(0.000339563 -1.18714e-05 0)
(0.000332867 -1.42263e-05 0)
(0.000325631 -1.68947e-05 0)
(0.00031789 -1.98972e-05 0)
(0.000309678 -2.32503e-05 0)
(0.000301036 -2.69752e-05 0)
(0.000291996 -3.10743e-05 0)
(0.00028261 -3.55802e-05 0)
(0.000272898 -4.04658e-05 0)
(0.000262931 -4.58048e-05 0)
(0.000252687 -5.14921e-05 0)
(0.000372774 -3.42127e-07 0)
(0.000372092 -1.04168e-06 0)
(0.000370732 -1.78535e-06 0)
(0.000368699 -2.60354e-06 0)
(0.000366006 -3.52411e-06 0)
(0.000362663 -4.57647e-06 0)
(0.00035869 -5.78753e-06 0)
(0.000354105 -7.18424e-06 0)
(0.000348926 -8.79272e-06 0)
(0.000343182 -1.06362e-05 0)
(0.000336897 -1.27399e-05 0)
(0.0003301 -1.51227e-05 0)
(0.000322822 -1.78089e-05 0)
(0.000315091 -2.08104e-05 0)
(0.000306944 -2.41542e-05 0)
(0.000298406 -2.78365e-05 0)
(0.000289524 -3.1899e-05 0)
(0.000280312 -3.62972e-05 0)
(0.000270839 -4.11255e-05 0)
(0.000261096 -4.62401e-05 0)
(0.000374559 -3.16511e-07 0)
(0.000373919 -9.63029e-07 0)
(0.000372643 -1.64888e-06 0)
(0.000370736 -2.40078e-06 0)
(0.000368208 -3.24399e-06 0)
(0.00036507 -4.20402e-06 0)
(0.000361338 -5.30553e-06 0)
(0.000357028 -6.57132e-06 0)
(0.000352161 -8.02535e-06 0)
(0.000346758 -9.68853e-06 0)
(0.000340843 -1.15825e-05 0)
(0.000334442 -1.37245e-05 0)
(0.000327583 -1.61361e-05 0)
(0.000320292 -1.88266e-05 0)
(0.000312604 -2.18241e-05 0)
(0.000304543 -2.51196e-05 0)
(0.000296149 -2.87638e-05 0)
(0.000287438 -3.2704e-05 0)
(0.000278461 -3.7051e-05 0)
(0.000269222 -4.16487e-05 0)
(0.000376503 -2.98705e-07 0)
(0.000375902 -9.07925e-07 0)
(0.000374704 -1.55187e-06 0)
(0.000372914 -2.2539e-06 0)
(0.00037054 -3.03651e-06 0)
(0.000367594 -3.92211e-06 0)
(0.000364088 -4.93264e-06 0)
(0.000360038 -6.08879e-06 0)
(0.000355463 -7.41165e-06 0)
(0.000350381 -8.91958e-06 0)
(0.000344815 -1.06333e-05 0)
(0.000338787 -1.2567e-05 0)
(0.000332322 -1.47428e-05 0)
(0.000325445 -1.71663e-05 0)
(0.000318185 -1.98673e-05 0)
(0.000310564 -2.28316e-05 0)
(0.000302618 -2.61133e-05 0)
(0.000294364 -2.96529e-05 0)
(0.000285843 -3.35665e-05 0)
(0.000277074 -3.76961e-05 0)
(0.000378604 -2.88285e-07 0)
(0.00037804 -8.75239e-07 0)
(0.000376912 -1.49296e-06 0)
(0.000375228 -2.16194e-06 0)
(0.000372994 -2.90222e-06 0)
(0.00037022 -3.73341e-06 0)
(0.000366918 -4.67505e-06 0)
(0.000363104 -5.7451e-06 0)
(0.000358793 -6.96255e-06 0)
(0.000354003 -8.34319e-06 0)
(0.000348755 -9.90576e-06 0)
(0.000343068 -1.16619e-05 0)
(0.000336968 -1.36328e-05 0)
(0.000330475 -1.58213e-05 0)
(0.000323616 -1.82579e-05 0)
(0.000316413 -2.09254e-05 0)
(0.000308894 -2.38806e-05 0)
(0.000301081 -2.70607e-05 0)
(0.000293 -3.0584e-05 0)
(0.000284681 -3.42934e-05 0)
(0.000380862 -2.82944e-07 0)
(0.00038033 -8.57938e-07 0)
(0.000379269 -1.46005e-06 0)
(0.000377682 -2.10726e-06 0)
(0.000375577 -2.81731e-06 0)
(0.000372964 -3.60746e-06 0)
(0.000369853 -4.49501e-06 0)
(0.000366257 -5.4959e-06 0)
(0.000362192 -6.62703e-06 0)
(0.000357675 -7.90214e-06 0)
(0.000352722 -9.33855e-06 0)
(0.000347354 -1.09457e-05 0)
(0.000341592 -1.27439e-05 0)
(0.000335455 -1.47335e-05 0)
(0.000328968 -1.69448e-05 0)
(0.000322151 -1.93582e-05 0)
(0.000315028 -2.20292e-05 0)
(0.000307624 -2.48966e-05 0)
(0.000299956 -2.80707e-05 0)
(0.000292063 -3.14104e-05 0)
(0.000383272 -2.82418e-07 0)
(0.00038277 -8.55258e-07 0)
(0.000381768 -1.45204e-06 0)
(0.00038027 -2.08855e-06 0)
(0.000378283 -2.78048e-06 0)
(0.000375816 -3.54296e-06 0)
(0.000372879 -4.39129e-06 0)
(0.000369483 -5.33936e-06 0)
(0.000365644 -6.40223e-06 0)
(0.000361375 -7.59167e-06 0)
(0.000356696 -8.92334e-06 0)
(0.000351622 -1.04049e-05 0)
(0.000346173 -1.20553e-05 0)
(0.000340369 -1.38737e-05 0)
(0.000334229 -1.58887e-05 0)
(0.000327776 -1.80811e-05 0)
(0.000321028 -2.05031e-05 0)
(0.000314011 -2.30977e-05 0)
(0.000306734 -2.59661e-05 0)
(0.000299243 -2.89799e-05 0)
(0.000385831 -2.85325e-07 0)
(0.000385356 -8.63009e-07 0)
(0.000384409 -1.4618e-06 0)
(0.000382994 -2.09557e-06 0)
(0.000381117 -2.77819e-06 0)
(0.000378785 -3.52295e-06 0)
(0.000376008 -4.34341e-06 0)
(0.000372798 -5.25173e-06 0)
(0.000369168 -6.26134e-06 0)
(0.000365131 -7.38235e-06 0)
(0.000360704 -8.62898e-06 0)
(0.000355903 -1.00073e-05 0)
(0.000350745 -1.1535e-05 0)