/*--------------------------------*- C++ -*----------------------------------*\
| =========                 |                                                 |
| \\      /  F ield         | OpenFOAM: The Open Source CFD Toolbox           |
|  \\    /   O peration     | Version:  v2012                                 |
|   \\  /    A nd           | Website:  www.openfoam.com                      |
|    \\/     M anipulation  |                                                 |
\*---------------------------------------------------------------------------*/
FoamFile
{
    version     2.0;
    format      ascii;
    class       volScalarField;
    location    "1";
    object      sigmaHyd;
}
// * * * * * * * * * * * * * * * * * * * * * * * * * * * * * * * * * * * * * //

dimensions      [1 -1 -2 0 0 0 0];


internalField   nonuniform List<scalar> 
4000
(
2.48348e+07
2.35841e+07
2.26892e+07
2.16629e+07
2.08487e+07
1.99871e+07
1.92505e+07
1.85095e+07
1.78443e+07
1.71932e+07
1.65908e+07
1.60085e+07
1.54599e+07
1.49311e+07
1.44275e+07
1.39409e+07
1.34745e+07
1.30209e+07
1.25849e+07
1.21566e+07
2.46732e+07
2.34373e+07
2.25495e+07
2.15368e+07
2.07265e+07
1.98792e+07
1.91479e+07
1.84176e+07
1.77582e+07
1.71153e+07
1.65189e+07
1.59433e+07
1.54005e+07
1.48778e+07
1.43799e+07
1.38989e+07
1.34382e+07
1.299e+07
1.25598e+07
1.21367e+07
2.43553e+07
2.31461e+07
2.22823e+07
2.12892e+07
2.05017e+07
1.96658e+07
1.89539e+07
1.82351e+07
1.75915e+07
1.69604e+07
1.63774e+07
1.58134e+07
1.52827e+07
1.47712e+07
1.42847e+07
1.38146e+07
1.3365e+07
1.29276e+07
1.25087e+07
1.20958e+07
2.38832e+07
2.27165e+07
2.18697e+07
2.0919e+07
2.01201e+07
1.93501e+07
1.86491e+07
1.7965e+07
1.73378e+07
1.67304e+07
1.61646e+07
1.56198e+07
1.5106e+07
1.46116e+07
1.41415e+07
1.36875e+07
1.32542e+07
1.28323e+07
1.24299e+07
1.20319e+07
2.32643e+07
2.21479e+07
2.13548e+07
2.04377e+07
1.97102e+07
1.89292e+07
1.82751e+07
1.7606e+07
1.70111e+07
1.64247e+07
1.58852e+07
1.53622e+07
1.48716e+07
1.43984e+07
1.395e+07
1.35165e+07
1.31043e+07
1.27023e+07
1.23212e+07
1.19419e+07
2.25157e+07
2.14598e+07
2.07375e+07
1.9854e+07
1.89601e+07
1.84359e+07
1.78269e+07
1.71752e+07
1.66134e+07
1.60529e+07
1.5542e+07
1.50455e+07
1.45815e+07
1.41339e+07
1.37109e+07
1.33019e+07
1.29145e+07
1.25362e+07
1.21803e+07
1.18231e+07
2.16347e+07
2.06501e+07
1.99588e+07
1.91451e+07
1.85099e+07
1.78231e+07
1.72421e+07
1.66507e+07
1.61236e+07
1.56048e+07
1.51276e+07
1.46653e+07
1.42327e+07
1.38156e+07
1.34221e+07
1.30415e+07
1.26828e+07
1.23314e+07
1.20041e+07
1.16716e+07
2.06453e+07
1.97438e+07
1.90964e+07
1.83595e+07
1.77342e+07
1.71417e+07
1.65938e+07
1.60612e+07
1.55708e+07
1.50964e+07
1.46548e+07
1.42301e+07
1.38312e+07
1.34476e+07
1.30863e+07
1.27367e+07
1.24091e+07
1.2087e+07
1.17907e+07
1.14848e+07
1.95596e+07
1.87404e+07
1.81705e+07
1.74919e+07
1.6961e+07
1.63867e+07
1.59004e+07
1.54049e+07
1.49629e+07
1.45278e+07
1.41278e+07
1.37405e+07
1.33791e+07
1.30306e+07
1.27042e+07
1.23874e+07
1.20931e+07
1.18019e+07
1.15385e+07
1.12603e+07
1.83885e+07
1.76601e+07
1.71534e+07
1.65505e+07
1.60731e+07
1.5566e+07
1.51286e+07
1.46888e+07
1.42922e+07
1.39044e+07
1.35463e+07
1.32006e+07
1.28779e+07
1.25669e+07
1.22767e+07
1.19945e+07
1.17347e+07
1.14755e+07
1.1246e+07
1.09961e+07
1.71537e+07
1.65162e+07
1.60827e+07
1.55519e+07
1.51418e+07
1.46913e+07
1.43116e+07
1.39221e+07
1.35755e+07
1.32333e+07
1.29196e+07
1.26154e+07
1.2333e+07
1.20601e+07
1.18072e+07
1.15602e+07
1.13358e+07
1.11091e+07
1.0914e+07
1.06924e+07
1.5862e+07
1.53186e+07
1.49542e+07
1.45007e+07
1.4152e+07
1.37667e+07
1.3442e+07
1.31082e+07
1.28111e+07
1.25175e+07
1.22486e+07
1.19876e+07
1.17461e+07
1.15123e+07
1.12971e+07
1.10857e+07
1.08969e+07
1.07028e+07
1.05419e+07
1.03483e+07
1.45336e+07
1.40833e+07
1.37895e+07
1.34121e+07
1.31268e+07
1.2805e+07
1.25367e+07
1.22576e+07
1.20109e+07
1.17655e+07
1.15418e+07
1.1324e+07
1.11235e+07
1.09287e+07
1.07514e+07
1.05755e+07
1.0422e+07
1.02603e+07
1.01333e+07
9.96718e+06
1.31767e+07
1.28191e+07
1.25936e+07
1.22927e+07
1.2069e+07
1.18117e+07
1.15989e+07
1.13752e+07
1.11782e+07
1.09813e+07
1.08026e+07
1.06279e+07
1.04681e+07
1.03122e+07
1.01721e+07
1.00313e+07
9.91245e+06
9.78233e+06
9.68817e+06
9.54873e+06
1.18068e+07
1.15393e+07
1.13808e+07
1.11545e+07
1.09915e+07
1.07972e+07
1.06389e+07
1.04696e+07
1.03218e+07
1.01726e+07
1.00381e+07
9.90595e+06
9.78626e+06
9.66861e+06
9.56513e+06
9.45907e+06
9.37405e+06
9.27527e+06
9.21308e+06
9.09999e+06
1.04327e+07
1.02527e+07
1.01586e+07
1.00051e+07
9.90086e+06
9.76828e+06
9.66328e+06
9.54722e+06
9.44736e+06
9.34497e+06
9.25365e+06
9.16304e+06
9.08239e+06
9.00189e+06
8.93388e+06
8.86112e+06
8.80867e+06
8.73958e+06
8.70773e+06
8.61941e+06
9.06554e+06
8.96945e+06
8.93682e+06
8.85342e+06
8.80562e+06
8.73257e+06
8.67887e+06
8.61434e+06
8.56075e+06
8.5037e+06
8.45398e+06
8.4039e+06
8.36064e+06
8.31689e+06
8.28255e+06
8.24352e+06
8.22172e+06
8.18332e+06
8.1806e+06
8.11857e+06
7.71341e+06
7.69746e+06
7.72342e+06
7.70733e+06
7.71374e+06
7.69813e+06
7.69395e+06
7.67925e+06
7.67051e+06
7.65728e+06
7.648e+06
7.6368e+06
7.62998e+06
7.62089e+06
7.61959e+06
7.61129e+06
7.62017e+06
7.6083e+06
7.63406e+06
7.59271e+06
6.38406e+06
6.44387e+06
6.52491e+06
6.57262e+06
6.63022e+06
6.66912e+06
6.71167e+06
6.74428e+06
6.77757e+06
6.80607e+06
6.83402e+06
6.86045e+06
6.88583e+06
6.91222e+06
6.93726e+06
6.96581e+06
6.99289e+06
7.01511e+06
7.05961e+06
7.05172e+06
5.08373e+06
5.2155e+06
5.34881e+06
5.45744e+06
5.56406e+06
5.65532e+06
5.74309e+06
5.82139e+06
5.89592e+06
5.96479e+06
6.03009e+06
6.09243e+06
6.15145e+06
6.20965e+06
6.26479e+06
6.32064e+06
6.38264e+06
6.42844e+06
6.50009e+06
6.51558e+06
3.8181e+06
4.01723e+06
4.19909e+06
4.3648e+06
4.51699e+06
4.65718e+06
4.78665e+06
4.90734e+06
5.01905e+06
5.12489e+06
5.22216e+06
5.31677e+06
5.40133e+06
5.48747e+06
5.55949e+06
5.69176e+06
5.69897e+06
5.78643e+06
5.81475e+06
5.97037e+06
2.59155e+06
2.85461e+06
3.08264e+06
3.30275e+06
3.49871e+06
3.68596e+06
3.85623e+06
4.01833e+06
4.16779e+06
4.31067e+06
4.44291e+06
4.57136e+06
4.68856e+06
4.80701e+06
4.9093e+06
5.02298e+06
5.10102e+06
5.22454e+06
5.26995e+06
5.4843e+06
1.40861e+06
1.73128e+06
2.002e+06
2.27283e+06
2.50925e+06
2.74027e+06
2.94799e+06
3.14851e+06
3.33192e+06
3.50925e+06
3.67157e+06
3.83213e+06
3.97486e+06
4.12582e+06
4.24737e+06
4.39944e+06
4.4923e+06
4.65295e+06
4.71112e+06
4.97888e+06
273147
651906
962865
1.28155e+06
1.55636e+06
1.82885e+06
2.07246e+06
2.30942e+06
2.52599e+06
2.73559e+06
2.92844e+06
3.11749e+06
3.28848e+06
3.46394e+06
3.61226e+06
3.78342e+06
3.90333e+06
4.0853e+06
4.16317e+06
4.45145e+06
-811544
-380657
-32541.7
330624
640925
951948
1.22869e+06
1.49955e+06
1.74654e+06
1.9864e+06
2.20687e+06
2.4233e+06
2.61917e+06
2.81969e+06
2.9903e+06
3.18444e+06
3.32451e+06
3.52644e+06
3.62324e+06
3.92287e+06
-1.84213e+06
-1.36267e+06
-979963
-575274
-231795
115242
423081
725589
1.00129e+06
1.26918e+06
1.51594e+06
1.75719e+06
1.97713e+06
2.1994e+06
2.39225e+06
2.60495e+06
2.76598e+06
2.98316e+06
3.10016e+06
3.40458e+06
-2.81619e+06
-2.29179e+06
-1.87721e+06
-1.4341e+06
-1.06001e+06
-679644
-343101
-11270.2
290914
584843
855820
1.12027e+06
1.3623e+06
1.60507e+06
1.81827e+06
2.04851e+06
2.22891e+06
2.45981e+06
2.59658e+06
2.90303e+06
-3.73106e+06
-3.16516e+06
-2.72119e+06
-2.24258e+06
-1.84021e+06
-1.42903e+06
-1.06592e+06
-707000
-380272
-62334.7
231138
516857
779528
1.04091e+06
1.27331e+06
1.51926e+06
1.71821e+06
1.96109e+06
2.1172e+06
2.42394e+06
-4.58475e+06
-3.9807e+06
-3.50979e+06
-2.99856e+06
-2.57024e+06
-2.13074e+06
-1.74325e+06
-1.35942e+06
-1.01014e+06
-670107
-355960
-50635.1
231013
509557
759668
1.02001e+06
1.23627e+06
1.48987e+06
1.66451e+06
1.9701e+06
-5.37515e+06
-4.73622e+06
-4.24074e+06
-3.6997e+06
-3.2477e+06
-2.78235e+06
-2.3726e+06
-1.96603e+06
-1.59616e+06
-1.23596e+06
-902904
-579695
-280611
13577.3
280114
553537
786088
1.04928e+06
1.24157e+06
1.54554e+06
-6.10047e+06
-5.42982e+06
-4.912e+06
-4.34388e+06
-3.87037e+06
-3.38151e+06
-2.95153e+06
-2.52427e+06
-2.13567e+06
-1.75709e+06
-1.40683e+06
-1.06726e+06
-752390
-443766
-162580
123105
369842
642084
849884
1.15047e+06
-6.7589e+06
-6.05972e+06
-5.52187e+06
-4.92942e+06
-4.43664e+06
-3.92671e+06
-3.47864e+06
-3.03286e+06
-2.62755e+06
-2.23255e+06
-1.86697e+06
-1.51279e+06
-1.18381e+06
-862335
-567664
-271227
-10236.5
269419
495577
792483
-7.34888e+06
-6.62422e+06
-6.06847e+06
-5.45431e+06
-4.94432e+06
-4.41558e+06
-3.9513e+06
-3.48897e+06
-3.0686e+06
-2.65885e+06
-2.27939e+06
-1.91189e+06
-1.57021e+06
-1.2363e+06
-930572
-621012
-352708
-54596.8
168137
449109
-7.8688e+06
-7.12184e+06
-6.55046e+06
-5.91734e+06
-5.39237e+06
-4.84725e+06
-4.36896e+06
-3.89226e+06
-3.45907e+06
-3.03658e+06
-2.64565e+06
-2.26681e+06
-1.91523e+06
-1.57124e+06
-1.25754e+06
-939283
-665400
-360883
-122833
187918
-8.31736e+06
-7.55115e+06
-6.96628e+06
-6.31683e+06
-5.77889e+06
-5.21969e+06
-4.72917e+06
-4.24022e+06
-3.79552e+06
-3.36253e+06
-2.96043e+06
-2.57329e+06
-2.20977e+06
-1.86135e+06
-1.53211e+06
-1.21768e+06
-917854
-635881
-358353
-53661.6
-8.69329e+06
-7.91098e+06
-7.31482e+06
-6.65171e+06
-6.10299e+06
-5.53197e+06
-5.03136e+06
-4.53197e+06
-4.07797e+06
-3.63552e+06
-3.22501e+06
-2.82891e+06
-2.45812e+06
-2.10032e+06
-1.76563e+06
-1.43952e+06
-1.1379e+06
-837650
-566482
-279493
-8.99543e+06
-8.20019e+06
-7.59496e+06
-6.92091e+06
-6.36351e+06
-5.78308e+06
-5.27432e+06
-4.76674e+06
-4.30515e+06
-3.85558e+06
-3.43793e+06
-3.03582e+06
-2.65808e+06
-2.29562e+06
-1.95377e+06
-1.62462e+06
-1.31542e+06
-1.01343e+06
-735368
-448239
-9.22292e+06
-8.41792e+06
-7.80585e+06
-7.12355e+06
-6.55963e+06
-5.97207e+06
-5.45721e+06
-4.94334e+06
-4.47611e+06
-4.0209e+06
-3.5981e+06
-3.19084e+06
-2.80846e+06
-2.44122e+06
-2.09527e+06
-1.76178e+06
-1.44886e+06
-1.14361e+06
-861390
-576722
-9.37497e+06
-8.56346e+06
-7.94683e+06
-7.25903e+06
-6.69077e+06
-6.09848e+06
-5.57954e+06
-5.06155e+06
-4.59054e+06
-4.13171e+06
-3.70541e+06
-3.29499e+06
-2.9093e+06
-2.5394e+06
-2.19019e+06
-1.85459e+06
-1.5383e+06
-1.23161e+06
-945595
-661955
-9.45113e+06
-8.63635e+06
-8.01743e+06
-7.32687e+06
-6.75642e+06
-6.16175e+06
-5.64077e+06
-5.12069e+06
-4.64779e+06
-4.1871e+06
-3.75906e+06
-3.34697e+06
-2.95969e+06
-2.58831e+06
-2.23763e+06
-1.90079e+06
-1.58303e+06
-1.27552e+06
-987769
-704767
-248014
-209815
-133844
-20002.3
130194
317012
534354
809473
1.09532e+06
1.42532e+06
1.78068e+06
2.16841e+06
2.58256e+06
3.02258e+06
3.48593e+06
3.96916e+06
4.4687e+06
4.97635e+06
5.47536e+06
5.91888e+06
350575
382421
445171
540711
664658
823766
1.00423e+06
1.20945e+06
1.45807e+06
1.72222e+06
2.01868e+06
2.33487e+06
2.67629e+06
3.03694e+06
3.41918e+06
3.81818e+06
4.24144e+06
4.67769e+06
5.16044e+06
5.61897e+06
882253
910161
965428
1.04892e+06
1.15871e+06
1.29722e+06
1.46071e+06
1.65378e+06
1.86753e+06
2.11039e+06
2.37392e+06
2.66188e+06
2.97036e+06
3.29736e+06
3.64354e+06
3.99818e+06
4.37246e+06
4.7342e+06
5.13251e+06
5.47616e+06
1.36665e+06
1.39036e+06
1.43721e+06
1.50805e+06
1.60099e+06
1.71774e+06
1.8555e+06
2.01432e+06
2.198e+06
2.39935e+06
2.624e+06
2.86552e+06
3.1287e+06
3.40684e+06
3.70773e+06
4.01784e+06
4.35779e+06
4.68994e+06
5.06921e+06
5.38988e+06
1.8053e+06
1.82632e+06
1.86805e+06
1.93097e+06
2.01414e+06
2.11847e+06
2.24255e+06
2.38713e+06
2.55032e+06
2.73336e+06
2.93424e+06
3.15228e+06
3.38808e+06
3.63579e+06
3.90303e+06
4.17187e+06
4.4691e+06
4.74687e+06
5.08087e+06
5.34102e+06
2.20388e+06
2.22197e+06
2.25791e+06
2.31198e+06
2.38354e+06
2.47292e+06
2.5796e+06
2.70312e+06
2.84458e+06
3.00143e+06
3.17634e+06
3.36497e+06
3.57251e+06
3.79007e+06
4.03035e+06
4.27103e+06
4.54534e+06
4.79685e+06
5.10836e+06
5.33885e+06
2.56887e+06
2.58504e+06
2.61725e+06
2.66567e+06
2.72996e+06
2.81027e+06
2.90628e+06
3.01774e+06
3.14462e+06
3.28602e+06
3.4428e+06
3.61182e+06
3.79734e+06
3.99012e+06
4.20386e+06
4.41431e+06
4.65829e+06
4.87678e+06
5.15736e+06
5.35631e+06
2.90127e+06
2.91538e+06
2.94353e+06
2.98577e+06
3.04197e+06
3.11205e+06
3.1961e+06
3.29356e+06
3.40526e+06
3.52943e+06
3.6685e+06
3.8181e+06
3.98454e+06
4.15695e+06
4.35145e+06
4.54128e+06
4.76599e+06
4.96336e+06
5.22328e+06
5.40078e+06
3.20752e+06
3.22018e+06
3.24548e+06
3.28343e+06
3.33398e+06
3.39702e+06
3.47268e+06
3.56041e+06
3.66088e+06
3.77251e+06
3.89748e+06
4.0315e+06
4.18086e+06
4.33458e+06
4.50917e+06
4.67805e+06
4.8805e+06
5.05739e+06
5.29239e+06
5.45529e+06
3.48774e+06
3.49892e+06
3.52129e+06
3.55481e+06
3.59955e+06
3.65533e+06
3.72246e+06
3.80031e+06
3.88989e+06
3.98941e+06
4.10157e+06
4.22179e+06
4.35694e+06
4.49574e+06
4.65487e+06
4.80815e+06
4.9933e+06
5.1543e+06
5.36893e+06
5.51602e+06
3.74688e+06
3.75693e+06
3.77704e+06
3.80717e+06
3.84742e+06
3.8976e+06
3.95803e+06
4.02809e+06
4.10876e+06
4.19831e+06
4.29936e+06
4.40748e+06
4.52941e+06
4.65433e+06
4.79835e+06
4.93684e+06
5.10535e+06
5.25212e+06
5.44872e+06
5.58363e+06
3.98534e+06
3.99427e+06
4.01217e+06
4.03899e+06
4.07487e+06
4.11962e+06
4.17364e+06
4.23632e+06
4.30872e+06
4.38916e+06
4.48034e+06
4.57792e+06
4.68852e+06
4.8018e+06
4.933e+06
5.05916e+06
5.21304e+06
5.34746e+06
5.52732e+06
5.65161e+06
4.20655e+06
4.21456e+06
4.23063e+06
4.2547e+06
4.28693e+06
4.32712e+06
4.37569e+06
4.43206e+06
4.49725e+06
4.56968e+06
4.65194e+06
4.73998e+06
4.84004e+06
4.94259e+06
5.06178e+06
5.17665e+06
5.3171e+06
5.44052e+06
5.60537e+06
5.72053e+06
4.41128e+06
4.41842e+06
4.43274e+06
4.4542e+06
4.48298e+06
4.51889e+06
4.56238e+06
4.61289e+06
4.67147e+06
4.73663e+06
4.81085e+06
4.89039e+06
4.98105e+06
5.07413e+06
5.1825e+06
5.28731e+06
5.41537e+06
5.5289e+06
5.67946e+06
5.78702e+06
4.6019e+06
4.60827e+06
4.62106e+06
4.64023e+06
4.66595e+06
4.69807e+06
4.73701e+06
4.78228e+06
4.83486e+06
4.8934e+06
4.96022e+06
5.03194e+06
5.11386e+06
5.19817e+06
5.29647e+06
5.39202e+06
5.50856e+06
5.61293e+06
5.75017e+06
5.8502e+06
4.77937e+06
4.78502e+06
4.79636e+06
4.81337e+06
4.83623e+06
4.86481e+06
4.89951e+06
4.93991e+06
4.98694e+06
5.0394e+06
5.09941e+06
5.16397e+06
5.23784e+06
5.31414e+06
5.40313e+06
5.49016e+06
5.59603e+06
5.69192e+06
5.81699e+06
5.91005e+06
4.94538e+06
4.95037e+06
4.96039e+06
4.97543e+06
4.99567e+06
5.02099e+06
5.05178e+06
5.08768e+06
5.12956e+06
5.17635e+06
5.23e+06
5.28786e+06
5.35419e+06
5.42294e+06
5.50318e+06
5.58213e+06
5.67795e+06
5.76566e+06
5.87916e+06
5.96546e+06
5.10093e+06
5.10529e+06
5.11407e+06
5.12725e+06
5.14501e+06
5.16726e+06
5.19438e+06
5.22606e+06
5.2631e+06
5.3046e+06
5.35228e+06
5.40387e+06
5.46312e+06
5.52481e+06
5.59682e+06
5.66818e+06
5.75452e+06
5.83449e+06
5.93709e+06
6.01682e+06
5.24731e+06
5.25109e+06
5.2587e+06
5.27014e+06
5.28557e+06
5.30494e+06
5.32859e+06
5.35629e+06
5.38876e+06
5.42523e+06
5.46726e+06
5.51289e+06
5.56542e+06
5.62035e+06
5.68456e+06
5.74856e+06
5.82593e+06
5.89824e+06
5.99058e+06
6.06356e+06
5.3855e+06
5.38872e+06
5.39521e+06
5.40498e+06
5.41819e+06
5.43481e+06
5.45517e+06
5.47907e+06
5.50719e+06
5.53889e+06
5.57554e+06
5.6155e+06
5.66163e+06
5.71013e+06
5.76687e+06
5.82388e+06
5.89262e+06
5.95767e+06
6.04003e+06
6.10661e+06
5.51653e+06
5.51922e+06
5.52464e+06
5.53282e+06
5.54391e+06
5.55789e+06
5.57509e+06
5.59536e+06
5.61931e+06
5.64641e+06
5.67791e+06
5.71239e+06
5.75239e+06
5.79463e+06
5.84426e+06
5.89435e+06
5.95498e+06
6.01257e+06
6.0858e+06
6.14509e+06
5.64131e+06
5.64349e+06
5.64788e+06
5.65452e+06
5.66356e+06
5.675e+06
5.68915e+06
5.70591e+06
5.72584e+06
5.74852e+06
5.77504e+06
5.80425e+06
5.83832e+06
5.87454e+06
5.91726e+06
5.96075e+06
6.01339e+06
6.06406e+06
6.128e+06
6.18116e+06
5.76074e+06
5.76241e+06
5.76581e+06
5.77096e+06
5.778e+06
5.78698e+06
5.79817e+06
5.81152e+06
5.82754e+06
5.84592e+06
5.86761e+06
5.89167e+06
5.92002e+06
5.95032e+06
5.98642e+06
6.02332e+06
6.06846e+06
6.11197e+06
6.16765e+06
6.21384e+06
5.87567e+06
5.87686e+06
5.87928e+06
5.88297e+06
5.88807e+06
5.89464e+06
5.90294e+06
5.91296e+06
5.92517e+06
5.93933e+06
5.95632e+06
5.97535e+06
5.9981e+06
6.02262e+06
6.05221e+06
6.08267e+06
6.12029e+06
6.15683e+06
6.2038e+06
6.24312e+06
5.98688e+06
5.98759e+06
5.98904e+06
5.9913e+06
5.99449e+06
5.99869e+06
6.00415e+06
6.0109e+06
6.01937e+06
6.0294e+06
6.04177e+06
6.05586e+06
6.07314e+06
6.09198e+06
6.11526e+06
6.13935e+06
6.16982e+06
6.19931e+06
6.23825e+06
6.27021e+06
6.09524e+06
6.09547e+06
6.09598e+06
6.09681e+06
6.09812e+06
6.09997e+06
6.10263e+06
6.10614e+06
6.11091e+06
6.11686e+06
6.12468e+06
6.13388e+06
6.14578e+06
6.15901e+06
6.17608e+06
6.19392e+06
6.21732e+06
6.24008e+06
6.27101e+06
6.29645e+06
6.20135e+06
6.20111e+06
6.20067e+06
6.2001e+06
6.19953e+06
6.19905e+06
6.19892e+06
6.19921e+06
6.20032e+06
6.20221e+06
6.20552e+06
6.20988e+06
6.21645e+06
6.22411e+06
6.23506e+06
6.24667e+06
6.26315e+06
6.27909e+06
6.30225e+06
6.32071e+06
6.30625e+06
6.30554e+06
6.30415e+06
6.30217e+06
6.29971e+06
6.29691e+06
6.29399e+06
6.29106e+06
6.2885e+06
6.28633e+06
6.28514e+06
6.28466e+06
6.28594e+06
6.28805e+06
6.29293e+06
6.29837e+06
6.30802e+06
6.31725e+06
6.3328e+06
6.34441e+06
6.41024e+06
6.40905e+06
6.40671e+06
6.40331e+06
6.39897e+06
6.39382e+06
6.3881e+06
6.38194e+06
6.37571e+06
6.36946e+06
6.36376e+06
6.35843e+06
6.35441e+06
6.35096e+06
6.34981e+06
6.34905e+06
6.35195e+06
6.35442e+06
6.36251e+06
6.36718e+06
6.51476e+06
6.51309e+06
6.50979e+06
6.50494e+06
6.49869e+06
6.49116e+06
6.4826e+06
6.47316e+06
6.4632e+06
6.45282e+06
6.44256e+06
6.43231e+06
6.42295e+06
6.41388e+06
6.40665e+06
6.39965e+06
6.39579e+06
6.3915e+06
6.39216e+06
6.38985e+06
6.61947e+06
6.61731e+06
6.61304e+06
6.60673e+06
6.59853e+06
6.5886e+06
6.57716e+06
6.5644e+06
6.55067e+06
6.53611e+06
6.52124e+06
6.50601e+06
6.49126e+06
6.4765e+06
6.46317e+06
6.44988e+06
6.43925e+06
6.42817e+06
6.42146e+06
6.41216e+06
6.72684e+06
6.72418e+06
6.7189e+06
6.71108e+06
6.70089e+06
6.68847e+06
6.67406e+06
6.65788e+06
6.64026e+06
6.62138e+06
6.60175e+06
6.58138e+06
6.56107e+06
6.54046e+06
6.52085e+06
6.50109e+06
6.48354e+06
6.4655e+06
6.45131e+06
6.43486e+06
6.83504e+06
6.83186e+06
6.82556e+06
6.81622e+06
6.80399e+06
6.78904e+06
6.77162e+06
6.75194e+06
6.73037e+06
6.70709e+06
6.68262e+06
6.65704e+06
6.63108e+06
6.60451e+06
6.57853e+06
6.55221e+06
6.52768e+06
6.5026e+06
6.48089e+06
6.45724e+06
6.94881e+06
6.9451e+06
6.93772e+06
6.92677e+06
6.9124e+06
6.89479e+06
6.87419e+06
6.85083e+06
6.82508e+06
6.79716e+06
6.76757e+06
6.73646e+06
6.70452e+06
6.67165e+06
6.63894e+06
6.60567e+06
6.57377e+06
6.54128e+06
6.51169e+06
6.48045e+06
7.06315e+06
7.05889e+06
7.05042e+06
7.03783e+06
7.0213e+06
7.00099e+06
6.97717e+06
6.95008e+06
6.92009e+06
6.88746e+06
6.85268e+06
6.81594e+06
6.77794e+06
6.73865e+06
6.69911e+06
6.65877e+06
6.61938e+06
6.57935e+06
6.54178e+06
6.50284e+06
7.18747e+06
7.18262e+06
7.17298e+06
7.15863e+06
7.13975e+06
7.11652e+06
7.0892e+06
7.05806e+06
7.02345e+06
6.98568e+06
6.94523e+06
6.90234e+06
6.85769e+06
6.81136e+06
6.7643e+06
6.71618e+06
6.66858e+06
6.62025e+06
6.57395e+06
6.52652e+06
7.31044e+06
7.305e+06
7.29418e+06
7.27808e+06
7.25686e+06
7.23071e+06
7.19991e+06
7.16471e+06
7.1255e+06
7.08259e+06
7.03646e+06
6.98741e+06
6.93609e+06
6.88267e+06
6.82806e+06
6.77209e+06
6.71619e+06
6.65945e+06
6.60428e+06
6.54821e+06
7.45032e+06
7.44423e+06
7.43209e+06
7.41402e+06
7.39017e+06
7.36074e+06
7.326e+06
7.28623e+06
7.24179e+06
7.19303e+06
7.14042e+06
7.08432e+06
7.02534e+06
6.96377e+06
6.90044e+06
6.8354e+06
6.7699e+06
6.70341e+06
6.63799e+06
6.57187e+06
7.58429e+06
7.57757e+06
7.56416e+06
7.54419e+06
7.5178e+06
7.4852e+06
7.44665e+06
7.40245e+06
7.35296e+06
7.29853e+06
7.23964e+06
7.17668e+06
7.11026e+06
7.04072e+06
6.96887e+06
6.8949e+06
6.81991e+06
6.74374e+06
6.66803e+06
6.59185e+06
7.74574e+06
7.73829e+06
7.72345e+06
7.7013e+06
7.67201e+06
7.63577e+06
7.59283e+06
7.54348e+06
7.48806e+06
7.42695e+06
7.36059e+06
7.2894e+06
7.21396e+06
7.13471e+06
7.05237e+06
6.96734e+06
6.88054e+06
6.79232e+06
6.70368e+06
6.61508e+06
6.20435e+06
6.36282e+06
6.53162e+06
6.70111e+06
6.85277e+06
7.00919e+06
7.14463e+06
7.29391e+06
7.40857e+06
7.52018e+06
7.64959e+06
7.7569e+06
7.86869e+06
7.96859e+06
8.06766e+06
8.15964e+06
8.24912e+06
8.33394e+06
8.41614e+06
8.49512e+06
8.57199e+06
8.64667e+06
8.72e+06
8.79198e+06
8.8635e+06
8.93439e+06
9.00578e+06
9.07726e+06
9.15002e+06
9.22399e+06
9.29912e+06
9.37819e+06
9.45798e+06
9.54361e+06
9.62968e+06
9.72436e+06
9.81781e+06
9.9247e+06
1.00263e+07
1.01493e+07
6.00869e+06
6.18012e+06
6.35903e+06
6.51646e+06
6.67901e+06
6.81883e+06
6.97204e+06
7.09204e+06
7.27725e+06
7.34667e+06
7.48109e+06
7.58564e+06
7.70352e+06
7.8058e+06
7.91256e+06
8.01102e+06
8.11012e+06
8.20461e+06
8.29842e+06
8.38955e+06
8.47985e+06
8.56863e+06
8.65694e+06
8.74456e+06
8.83226e+06
8.9201e+06
9.00845e+06
9.09815e+06
9.18813e+06
9.28198e+06
9.37387e+06
9.4711e+06
9.56904e+06
9.67179e+06
9.77539e+06
9.88683e+06
9.99644e+06
1.01197e+07
1.02357e+07
1.03745e+07
5.79381e+06
5.97387e+06
6.13875e+06
6.30236e+06
6.45912e+06
6.60674e+06
6.75748e+06
6.8883e+06
7.03722e+06
7.18238e+06
7.29993e+06
7.42924e+06
7.5455e+06
7.66457e+06
7.77697e+06
7.88884e+06
7.99691e+06
8.10351e+06
8.20782e+06
8.3106e+06
8.41219e+06
8.51242e+06
8.61266e+06
8.71146e+06
8.81207e+06
8.91027e+06
9.01364e+06
9.11143e+06
9.22115e+06
9.31742e+06
9.41417e+06
9.5322e+06
9.63746e+06
9.75655e+06
9.87057e+06
9.99655e+06
1.01176e+07
1.02549e+07
1.03821e+07
1.05346e+07
5.67369e+06
5.86493e+06
6.01336e+06
6.18676e+06
6.34578e+06
6.49015e+06
6.63835e+06
6.77567e+06
6.91523e+06
7.04567e+06
7.1772e+06
7.30192e+06
7.42646e+06
7.54622e+06
7.66505e+06
7.7806e+06
7.895e+06
8.00714e+06
8.11834e+06
8.22794e+06
8.33716e+06
8.44507e+06
8.55358e+06
8.66056e+06
8.76982e+06
8.87633e+06
8.98813e+06
9.09413e+06
9.21075e+06
9.33177e+06
9.43694e+06
9.55659e+06
9.69063e+06
9.80603e+06
9.9372e+06
1.00673e+07
1.02002e+07
1.03446e+07
1.04811e+07
1.06417e+07
5.60993e+06
5.78501e+06
5.93878e+06
6.08291e+06
6.24487e+06
6.38669e+06
6.53388e+06
6.67125e+06
6.81033e+06
6.94375e+06
7.07532e+06
7.20387e+06
7.32996e+06
7.45393e+06
7.57573e+06
7.69586e+06
7.81429e+06
7.93145e+06
8.04739e+06
8.16248e+06
8.2768e+06
8.3908e+06
8.50435e+06
8.61831e+06
8.73182e+06
8.84697e+06
8.96083e+06
9.07883e+06
9.19266e+06
9.31611e+06
9.453e+06
9.57723e+06
9.70012e+06
9.82167e+06
9.95935e+06
1.0095e+07
1.02336e+07
1.03831e+07
1.05242e+07
1.06895e+07
5.58435e+06
5.75993e+06
5.90152e+06
6.05173e+06
6.17754e+06
6.33462e+06
6.46635e+06
6.60906e+06
6.74049e+06
6.87457e+06
7.0033e+06
7.13166e+06
7.25712e+06
7.38136e+06
7.5038e+06
7.625e+06
7.74502e+06
7.86407e+06
7.98243e+06
8.10016e+06
8.2177e+06
8.33491e+06
8.45258e+06
8.57008e+06
8.68893e+06
8.8075e+06
8.92879e+06
9.04915e+06
9.17444e+06
9.29719e+06
9.42851e+06
9.5498e+06
9.67116e+06
9.81305e+06
9.94376e+06
1.00898e+07
1.02267e+07
1.03818e+07
1.05227e+07
1.06914e+07
5.58138e+06
5.74746e+06
5.87902e+06
6.02112e+06
6.16092e+06
6.30877e+06
6.4329e+06
6.56953e+06
6.69573e+06
6.82589e+06
6.95116e+06
7.07711e+06
7.20047e+06
7.32342e+06
7.44482e+06
7.56556e+06
7.68534e+06
7.80458e+06
7.92327e+06
8.04169e+06
8.15991e+06
8.27822e+06
8.39667e+06
8.51563e+06
8.63502e+06
8.75549e+06
8.87658e+06
8.9995e+06
9.12307e+06
9.24953e+06
9.37649e+06
9.50767e+06
9.63677e+06
9.77226e+06
9.90604e+06
1.00487e+07
1.01862e+07
1.03388e+07
1.04786e+07
1.06445e+07
5.60943e+06
5.76911e+06
5.89416e+06
6.03115e+06
6.10785e+06
6.28929e+06
6.4193e+06
6.54279e+06
6.66873e+06
6.79144e+06
6.91451e+06
7.03577e+06
7.15667e+06
7.27643e+06
7.39569e+06
7.51421e+06
7.63233e+06
7.75002e+06
7.86752e+06
7.98488e+06
8.10232e+06
8.2199e+06
8.33787e+06
8.45625e+06
8.57538e+06
8.69518e+06
8.81608e+06
8.93798e+06
9.06121e+06
9.18597e+06
9.31193e+06
9.44048e+06
9.56906e+06
9.70329e+06
9.83518e+06
9.97625e+06
1.0111e+07
1.02611e+07
1.03976e+07
1.05596e+07
5.6446e+06
5.79842e+06
5.90743e+06
6.04904e+06
6.15837e+06
6.27703e+06
6.40365e+06
6.52294e+06
6.64513e+06
6.76375e+06
6.8831e+06
7.00062e+06
7.11806e+06
7.2345e+06
7.35064e+06
7.46622e+06
7.58156e+06
7.69665e+06
7.81165e+06
7.92667e+06
8.04181e+06
8.15724e+06
8.273e+06
8.38934e+06
8.50625e+06
8.62403e+06
8.74261e+06
8.86247e+06
8.98319e+06
9.1058e+06
9.22905e+06
9.3552e+06
9.48116e+06
9.61187e+06
9.74054e+06
9.87731e+06
1.00081e+07
1.01531e+07
1.02847e+07
1.04406e+07
5.69144e+06
5.83195e+06
5.93533e+06
6.06267e+06
6.16897e+06
6.29303e+06
6.40433e+06
6.52228e+06
6.63498e+06
6.74982e+06
6.86241e+06
6.97552e+06
7.0876e+06
7.19966e+06
7.31124e+06
7.42273e+06
7.53403e+06
7.6453e+06
7.75664e+06
7.86806e+06
7.97981e+06
8.09174e+06
8.20429e+06
8.3171e+06
8.43084e+06
8.54495e+06
8.66015e+06
8.77619e+06
8.89323e+06
9.01177e+06
9.13097e+06
9.25268e+06
9.37421e+06
9.50003e+06
9.62373e+06
9.75497e+06
9.88019e+06
1.00187e+07
1.01442e+07
1.02925e+07
5.74721e+06
5.87674e+06
5.97475e+06
6.09235e+06
6.19581e+06
6.3077e+06
6.41409e+06
6.52328e+06
6.63023e+06
6.73828e+06
6.84521e+06
6.95251e+06
7.05924e+06
7.16608e+06
7.27264e+06
7.37929e+06
7.48583e+06
7.59254e+06
7.69926e+06
7.80634e+06
7.91347e+06
8.02121e+06
8.12903e+06
8.23768e+06
8.34656e+06
8.45614e+06
8.56678e+06
8.67809e+06
8.79044e+06
8.90401e+06
9.01821e+06
9.13457e+06
9.25067e+06
9.37059e+06
9.48835e+06
9.61297e+06
9.73168e+06
9.86272e+06
9.98105e+06
1.01208e+07
5.80338e+06
5.9223e+06
6.01388e+06
6.12305e+06
6.21983e+06
6.32484e+06
6.42432e+06
6.52665e+06
6.62778e+06
6.72959e+06
6.83058e+06
6.93198e+06
7.03293e+06
7.13411e+06
7.23512e+06
7.33628e+06
7.43751e+06
7.53886e+06
7.64054e+06
7.74225e+06
7.84476e+06
7.94688e+06
8.05088e+06
8.15318e+06
8.25996e+06
8.36144e+06
8.46757e+06
8.5723e+06
8.67914e+06
8.78645e+06
8.89462e+06
9.00455e+06
9.11418e+06
9.22722e+06
9.33806e+06
9.45517e+06
9.56647e+06
9.68913e+06
9.79954e+06
9.92979e+06
5.86163e+06
5.9703e+06
6.05631e+06
6.15673e+06
6.2483e+06
6.34461e+06
6.44013e+06
6.53305e+06
6.62407e+06
6.72201e+06
6.81533e+06
6.91157e+06
7.00594e+06
7.10157e+06
7.19647e+06
7.29208e+06
7.38734e+06
7.48335e+06
7.57888e+06
7.67579e+06
7.7714e+06
7.87e+06
7.96509e+06
8.06695e+06
8.16001e+06
8.25373e+06
8.35701e+06
8.45488e+06
8.55692e+06
8.65754e+06
8.75976e+06
8.86275e+06
8.96569e+06
9.07132e+06
9.17487e+06
9.28391e+06
9.38741e+06
9.50119e+06
9.60338e+06
9.72374e+06
5.91722e+06
6.01672e+06
6.0958e+06
6.1896e+06
6.27249e+06
6.36484e+06
6.44864e+06
6.53262e+06
6.62515e+06
6.71628e+06
6.80221e+06
6.8919e+06
6.97936e+06
7.06855e+06
7.15683e+06
7.24602e+06
7.33478e+06
7.42428e+06
7.51328e+06
7.60343e+06
7.69228e+06
7.78365e+06
7.87149e+06
7.96532e+06
8.09142e+06
8.14899e+06
8.23883e+06
8.33493e+06
8.42746e+06
8.52312e+06
8.61723e+06
8.71372e+06
8.80884e+06
8.90706e+06
9.00262e+06
9.10354e+06
9.19869e+06
9.30358e+06
9.39703e+06
9.50742e+06
5.97018e+06
6.06019e+06
6.13333e+06
6.21881e+06
6.29527e+06
6.37948e+06
6.45659e+06
6.54179e+06
6.62574e+06
6.70513e+06
6.78795e+06
6.86894e+06
6.95146e+06
7.03332e+06
7.11596e+06
7.19834e+06
7.28132e+06
7.36401e+06
7.44754e+06
7.53026e+06
7.61474e+06
7.69693e+06
7.78316e+06
7.86352e+06
7.95327e+06
8.04347e+06
8.12472e+06
8.21278e+06
8.29716e+06
8.38489e+06
8.471e+06
8.55937e+06
8.64644e+06
8.73612e+06
8.82346e+06
8.9152e+06
9.00191e+06
9.0968e+06
9.18143e+06
9.28109e+06
6.02071e+06
6.10187e+06
6.16974e+06
6.24728e+06
6.31867e+06
6.39453e+06
6.46805e+06
6.54288e+06
6.61814e+06
6.69352e+06
6.76897e+06
6.8447e+06
6.92048e+06
6.99652e+06
7.07267e+06
7.14902e+06
7.22559e+06
7.30226e+06
7.37932e+06
7.45629e+06
7.53404e+06
7.61116e+06
7.69007e+06
7.76692e+06
7.84804e+06
7.92349e+06
8.00306e+06
8.08085e+06
8.16013e+06
8.23934e+06
8.31871e+06
8.39916e+06
8.47851e+06
8.56054e+06
8.63934e+06
8.72388e+06
8.80091e+06
8.88985e+06
8.96281e+06
9.05386e+06
6.06692e+06
6.1399e+06
6.20219e+06
6.27266e+06
6.33797e+06
6.40739e+06
6.47447e+06
6.5436e+06
6.61195e+06
6.68093e+06
6.74991e+06
6.81912e+06
6.88851e+06
6.95803e+06
7.02777e+06
7.0976e+06
7.16766e+06
7.23778e+06
7.30818e+06
7.37856e+06
7.44933e+06
7.51996e+06
7.59113e+06
7.66208e+06
7.73358e+06
7.80519e+06
7.8766e+06
7.94849e+06
8.02012e+06
8.09227e+06
8.16414e+06
8.23662e+06
8.30869e+06
8.38159e+06
8.45377e+06
8.52716e+06
8.59948e+06
8.67324e+06
8.73831e+06
8.82026e+06
6.10944e+06
6.17472e+06
6.23163e+06
6.29518e+06
6.35471e+06
6.41745e+06
6.47853e+06
6.54111e+06
6.60315e+06
6.6659e+06
6.72854e+06
6.79155e+06
6.85461e+06
6.9179e+06
6.9813e+06
7.04484e+06
7.10852e+06
7.17229e+06
7.23621e+06
7.30016e+06
7.3643e+06
7.42838e+06
7.49271e+06
7.55686e+06
7.62132e+06
7.6855e+06
7.74986e+06
7.81418e+06
7.87838e+06
7.94274e+06
8.00678e+06
8.07127e+06
8.13483e+06
8.19948e+06
8.26223e+06
8.32692e+06
8.38861e+06
8.49703e+06
8.51468e+06
8.58441e+06
6.14771e+06
6.2057e+06
6.25739e+06
6.31433e+06
6.36826e+06
6.4247e+06
6.47993e+06
6.53635e+06
6.59238e+06
6.64897e+06
6.70551e+06
6.76234e+06
6.81923e+06
6.87629e+06
6.93342e+06
6.99068e+06
7.048e+06
7.10539e+06
7.16285e+06
7.22033e+06
7.27788e+06
7.3354e+06
7.39299e+06
7.45049e+06
7.50806e+06
7.56551e+06
7.62296e+06
7.68031e+06
7.73748e+06
7.7948e+06
7.85161e+06
7.90892e+06
7.96492e+06
8.02254e+06
8.07704e+06
8.13563e+06
8.18736e+06
8.24829e+06
8.30273e+06
8.36021e+06
6.18234e+06
6.23371e+06
6.28018e+06
6.331e+06
6.37933e+06
6.42977e+06
6.4792e+06
6.52965e+06
6.57976e+06
6.63038e+06
6.68094e+06
6.73176e+06
6.78261e+06
6.83361e+06
6.88465e+06
6.93577e+06
6.98692e+06
7.03811e+06
7.0893e+06
7.1405e+06
7.19164e+06
7.24282e+06
7.29381e+06
7.34498e+06
7.39566e+06
7.44691e+06
7.49699e+06
7.54866e+06
7.59758e+06
7.64666e+06
7.69742e+06
7.74711e+06
7.7964e+06
7.84656e+06
7.89418e+06
7.94529e+06
7.9904e+06
8.04383e+06
8.08459e+06
8.13738e+06
6.21328e+06
6.25764e+06
6.29973e+06
6.34318e+06
6.3876e+06
6.43164e+06
6.47619e+06
6.52065e+06
6.5654e+06
6.61017e+06
6.65508e+06
6.7001e+06
6.74512e+06
6.79029e+06
6.83534e+06
6.88059e+06
6.92561e+06
6.97078e+06
7.01577e+06
7.06076e+06
7.1057e+06
7.15041e+06
7.19525e+06
7.23953e+06
7.28433e+06
7.32792e+06
7.37283e+06
7.41532e+06
7.46169e+06
7.50205e+06
7.54607e+06
7.58792e+06
7.63036e+06
7.67231e+06
7.71319e+06
7.75513e+06
7.7942e+06
7.8363e+06
7.87312e+06
7.91561e+06
6.24076e+06
6.28026e+06
6.31653e+06
6.3562e+06
6.39421e+06
6.43311e+06
6.47171e+06
6.51079e+06
6.54977e+06
6.58901e+06
6.62823e+06
6.66757e+06
6.70691e+06
6.7463e+06
6.78565e+06
6.825e+06
6.86429e+06
6.9035e+06
6.94263e+06
6.98162e+06
7.02051e+06
7.05915e+06
7.09775e+06
7.13588e+06
7.17417e+06
7.21155e+06
7.24961e+06