/*--------------------------------*- C++ -*----------------------------------*\
| =========                 |                                                 |
| \\      /  F ield         | OpenFOAM: The Open Source CFD Toolbox           |
|  \\    /   O peration     | Version:  v2012                                 |
|   \\  /    A nd           | Website:  www.openfoam.com                      |
|    \\/     M anipulation  |                                                 |
\*---------------------------------------------------------------------------*/
FoamFile
{
    version     2.0;
    format      ascii;
    class       volSymmTensorField;
    location    "17";
    object      epsilon;
}
// * * * * * * * * * * * * * * * * * * * * * * * * * * * * * * * * * * * * * //

dimensions      [0 0 0 0 0 0 0];


internalField   nonuniform List<symmTensor> 
16000
(
(0.00859787 -0.000177879 -1.97989e-19 -0.00918143 5.1007e-18 2.26389e-32)
(0.00864998 -0.000178841 2.94121e-18 -0.00910572 4.98748e-18 0)
(0.00865086 -0.000181975 4.02605e-20 -0.00898618 -4.99031e-18 0)
(0.0086206 -0.000182465 5.88805e-18 -0.00883589 -9.91675e-18 0)
(0.00855712 -0.000182969 -2.86303e-18 -0.00865675 4.36727e-20 0)
(0.00846411 -0.000182329 -4.04664e-26 -0.00845192 2.50433e-24 0)
(0.00834802 -0.00018089 -2.75895e-18 -0.00822508 -9.10476e-18 0)
(0.00820853 -0.000179022 5.24969e-20 -0.00798089 8.86317e-18 0)
(0.00805269 -0.000176472 -2.5366e-18 -0.00771973 4.30461e-18 0)
(0.00787817 -0.000173424 -5.02345e-18 -0.00744694 -4.1083e-18 0)
(0.00769389 -0.000169498 -2.35186e-18 -0.00716313 3.98619e-18 0)
(0.00749651 -0.000165935 2.31704e-18 -0.00687346 -4.98427e-21 0)
(0.00729264 -0.000161868 -3.35204e-26 -0.00657585 -7.68772e-25 0)
(0.00707868 -0.000157675 1.4329e-19 -0.0062754 6.96843e-18 0)
(0.00686047 -0.000152719 6.08374e-18 -0.0059693 -3.29921e-18 0)
(0.00663727 -0.000148453 -1.62508e-19 -0.0056651 -6.29051e-18 0)
(0.00640975 -0.000143809 8.63875e-20 -0.00535557 2.97334e-18 0)
(0.00617672 -0.000138259 -1.46718e-27 -0.00504717 5.03938e-25 0)
(0.00594583 -0.000133425 -3.33398e-26 -0.00474025 -4.59016e-25 0)
(0.00570742 -0.000128218 -3.14769e-18 -0.00443228 2.42484e-18 0)
(0.00546967 -0.00012204 -9.97588e-20 -0.00412516 -2.29e-18 0)
(0.00523174 -0.000116614 -1.66718e-18 -0.00382416 -4.26829e-18 0)
(0.00498894 -0.000109801 -1.37717e-18 -0.00351942 -2.4977e-20 0)
(0.00474936 -0.000103139 -1.18922e-18 -0.00322465 1.76242e-18 0)
(0.0045079 -9.62402e-05 1.12917e-19 -0.00293014 1.62627e-18 0)
(0.00426604 -8.80338e-05 1.03096e-18 -0.00264261 -1.4339e-18 0)
(0.00402976 -7.97177e-05 -2.14178e-18 -0.0023639 -7.14996e-20 0)
(0.00379131 -7.10709e-05 1.23006e-18 -0.00209125 2.35876e-18 0)
(0.00356156 -6.1503e-05 1.74302e-18 -0.00183161 -9.35036e-19 0)
(0.00333499 -5.22974e-05 -1.83897e-18 -0.0015842 -9.6429e-19 0)
(0.003117 -4.20912e-05 0 -0.00135014 0 0)
(0.0029096 -3.19916e-05 -1.07721e-19 -0.00113579 -6.29629e-19 0)
(0.00271253 -2.19754e-05 -6.82615e-19 -0.000936655 -4.65771e-20 0)
(0.00253026 -1.15653e-05 -5.35813e-19 -0.000760516 3.74316e-19 0)
(0.002363 -1.79807e-06 -5.84254e-19 -0.000604301 -4.67339e-20 0)
(0.00221202 8.00523e-06 -1.16239e-18 -0.000470126 -3.51834e-19 0)
(0.00208012 1.74766e-05 -1.01081e-18 -0.000359255 -8.98425e-20 0)
(0.00196607 2.72317e-05 1.67304e-19 -0.000270413 4.47481e-19 0)
(0.00187346 3.53354e-05 4.02057e-19 -0.000217582 -7.81125e-20 0)
(0.00179688 4.04631e-05 -5.40828e-19 -0.000203569 -3.76917e-19 0)
(0.00850674 -0.000528454 -3.28272e-18 -0.00908585 2.72951e-18 5.80638e-33)
(0.00855773 -0.000531551 8.72152e-18 -0.00900916 4.14863e-18 0)
(0.00856053 -0.000540702 3.17704e-18 -0.00889151 -1.01422e-17 0)
(0.00853346 -0.000542805 7.96476e-20 -0.0087449 -4.98512e-18 0)
(0.00847277 -0.000544046 -2.90092e-18 -0.00856855 9.78267e-18 0)
(0.00838341 -0.000542362 2.26386e-26 -0.00836785 1.24023e-24 0)
(0.00827127 -0.000538319 -8.62273e-20 -0.00814506 -9.01173e-18 0)
(0.00813472 -0.000532628 -2.4794e-18 -0.00790424 8.91682e-18 0)
(0.00798382 -0.000525376 5.42796e-18 -0.00764817 1.26041e-17 0)
(0.00781393 -0.000516828 -5.0745e-18 -0.00738032 -3.83976e-18 0)
(0.00763328 -0.000506097 -3.10225e-19 -0.00710023 -7.8528e-18 0)
(0.00743839 -0.000494881 4.42762e-18 -0.00681332 -3.94331e-18 0)
(0.00723773 -0.000482721 -2.02146e-18 -0.00651896 3.66762e-18 0)
(0.00702702 -0.000470848 1.91619e-18 -0.00622181 -3.48975e-18 0)
(0.00681122 -0.000456242 7.93815e-18 -0.00591822 -3.47433e-18 0)
(0.00658811 -0.000442608 2.4285e-19 -0.00561414 3.11945e-18 0)
(0.00636308 -0.000429127 2.57998e-19 -0.00530721 2.94835e-18 0)
(0.00613214 -0.00041296 3.56881e-18 -0.00500109 2.06421e-20 0)
(0.00589734 -0.000396963 2.2599e-18 -0.00469056 5.22927e-18 0)
(0.0056617 -0.000381954 3.53035e-18 -0.00438601 2.54332e-18 0)
(0.00542128 -0.000362536 -6.03442e-19 -0.00407684 -4.5252e-18 0)
(0.00517878 -0.000344874 -3.09948e-19 -0.00377256 -2.07234e-18 0)
(0.00493724 -0.000325399 -1.36555e-18 -0.00347044 -4.00429e-20 0)
(0.00468982 -0.000303228 1.29117e-18 -0.00316979 8.52359e-20 0)
(0.00444783 -0.000281517 -3.3895e-19 -0.00287698 -1.59352e-18 0)
(0.00420286 -0.000256957 1.47304e-18 -0.00258896 1.50762e-18 0)
(0.00396156 -0.000231519 -2.11074e-18 -0.00230851 -1.72477e-19 0)
(0.00372481 -0.000205643 -7.02471e-19 -0.00204084 -2.26467e-18 0)
(0.00349181 -0.000177048 1.60303e-18 -0.00178182 2.06252e-18 0)
(0.00326896 -0.000148925 3.49145e-19 -0.00154146 8.6405e-19 0)
(0.00305359 -0.000119562 -2.2409e-18 -0.00131392 -1.70027e-18 0)
(0.00285097 -8.93782e-05 0 -0.00110728 0 0)
(0.00266137 -6.08135e-05 -3.68234e-19 -0.000918809 3.70475e-19 0)
(0.00248585 -3.03104e-05 9.08792e-19 -0.000751343 5.48934e-19 0)
(0.00232824 -2.95426e-06 -3.19311e-19 -0.000606429 1.94645e-19 0)
(0.00218568 2.5642e-05 -5.35239e-19 -0.000480941 -1.29794e-19 0)
(0.00206306 5.20013e-05 -8.9904e-19 -0.000379881 -5.31585e-19 0)
(0.00195784 7.83946e-05 -4.74115e-19 -0.000297144 -1.26429e-19 0)
(0.00186701 0.00010265 1.34247e-18 -0.000240128 3.62699e-19 0)
(0.0018008 0.000118885 -6.38956e-19 -0.000229619 -2.60452e-20 0)
(0.00833193 -0.000864912 -1.94913e-18 -0.00890206 -4.66123e-18 2.10315e-32)
(0.00837871 -0.000870177 3.20404e-18 -0.00882164 -5.5294e-18 0)
(0.00838312 -0.000884553 -4.17191e-19 -0.0087055 9.68947e-18 0)
(0.00835943 -0.000888799 -2.83215e-18 -0.00856326 4.88991e-19 0)
(0.00830551 -0.000891371 2.80604e-26 -0.00839367 -1.31806e-24 0)
(0.00822391 -0.00088933 2.71865e-18 -0.00820164 -4.87652e-18 0)
(0.00811949 -0.000883322 2.59286e-18 -0.00798676 -4.76806e-18 0)
(0.00799086 -0.000874691 -5.17686e-18 -0.00775464 4.90585e-19 0)
(0.00784698 -0.00086224 5.36269e-18 -0.00750583 7.86029e-18 0)
(0.00768482 -0.000849421 5.08902e-18 -0.00724632 3.72273e-18 0)
(0.00751161 -0.000833 -5.48009e-18 -0.0069738 -1.14451e-17 0)
(0.00732381 -0.000815448 -1.9889e-18 -0.00669441 3.80081e-18 0)
(0.00712777 -0.00079481 -1.86735e-18 -0.00640478 3.69431e-18 0)
(0.00692179 -0.000775211 -1.0569e-18 -0.00611268 -1.02516e-17 0)
(0.00671095 -0.000752944 -2.02616e-18 -0.00581406 1.09589e-20 0)
(0.00648956 -0.000729123 8.04263e-19 -0.00551229 6.13541e-18 0)
(0.00626579 -0.000704436 -2.27667e-18 -0.00520677 -2.88834e-18 0)
(0.00603557 -0.00067965 1.30796e-18 -0.00490224 -2.77058e-18 0)
(0.00579964 -0.000650643 -1.68566e-18 -0.00459146 -5.42225e-20 0)
(0.00555973 -0.000622554 5.74773e-18 -0.00428405 4.79861e-18 0)
(0.00531767 -0.000591727 5.09057e-19 -0.00397513 2.20422e-18 0)
(0.00506803 -0.000557992 8.98401e-19 -0.00366617 -1.96813e-18 0)
(0.00482138 -0.000524178 2.15087e-18 -0.00336212 -1.6571e-18 0)
(0.00456969 -0.000486424 1.25515e-18 -0.00306091 8.67466e-20 0)
(0.00431953 -0.000447031 5.69322e-19 -0.00276462 1.52352e-18 0)
(0.00407321 -0.000406384 -5.29486e-19 -0.00248056 1.2086e-18 0)
(0.0038273 -0.00036271 5.83151e-19 -0.00220148 1.20665e-18 0)
(0.00359292 -0.000318326 -1.5416e-18 -0.00194246 -1.23709e-18 0)
(0.00336267 -0.000272229 -3.25255e-18 -0.00169277 -1.5076e-18 0)
(0.00314629 -0.000225011 3.60973e-18 -0.00146537 2.1997e-18 0)
(0.00294118 -0.000178787 9.93757e-21 -0.00125414 1.22031e-20 0)
(0.00275012 -0.00013065 3.77301e-19 -0.00106465 -6.90092e-19 0)
(0.00257557 -8.61409e-05 8.28417e-19 -0.000895383 -2.28486e-20 0)
(0.00241668 -3.93217e-05 4.47739e-19 -0.000748031 3.84386e-19 0)
(0.00227597 2.70053e-06 8.29072e-19 -0.000620936 6.41469e-19 0)
(0.00215132 4.58418e-05 1.65769e-19 -0.000514485 -4.63304e-20 0)
(0.00204464 8.58154e-05 5.02223e-19 -0.000426828 2.08444e-19 0)
(0.00195111 0.000122779 2.10698e-19 -0.000354699 3.06403e-20 0)
(0.00187255 0.000161844 4.49078e-19 -0.000298898 1.9139e-19 0)
(0.00180609 0.000189156 8.5552e-19 -0.000275382 6.39089e-19 0)
(0.00808497 -0.00117901 6.78106e-19 -0.00864157 -2.47425e-18 5.37686e-33)
(0.00812331 -0.0011862 -5.61324e-18 -0.00855378 1.36944e-18 0)
(0.00812651 -0.00120534 -3.64568e-21 -0.00843611 5.77392e-20 0)
(0.00810481 -0.00121148 -2.53724e-18 -0.00829742 -4.20455e-18 0)
(0.00805828 -0.00121537 -2.69773e-18 -0.00813518 4.72669e-19 0)
(0.00798582 -0.00121415 9.91619e-21 -0.00795363 -4.52965e-18 0)
(0.00789276 -0.00120771 7.62533e-20 -0.00775037 4.35854e-18 0)
(0.00777698 -0.00119792 -2.37136e-18 -0.00753214 4.59996e-18 0)
(0.00764453 -0.00118216 -2.67749e-18 -0.00729512 -3.77395e-18 0)
(0.00749243 -0.00116484 5.61774e-18 -0.00704648 1.12986e-17 0)
(0.00732958 -0.00114289 2.66291e-18 -0.00678464 3.73148e-18 0)
(0.00715077 -0.00112055 -5.24242e-18 -0.00651479 -6.89189e-18 0)
(0.00696289 -0.00109326 2.15222e-18 -0.00623363 -1.28734e-19 0)
(0.00676218 -0.00106496 1.59309e-18 -0.00594742 -3.38674e-18 0)
(0.0065545 -0.00103361 -6.47415e-18 -0.0056524 -2.88493e-18 0)
(0.00633618 -0.00100106 -1.3439e-18 -0.00535449 3.02617e-18 0)
(0.00611064 -0.000964521 -3.63211e-18 -0.00504831 5.17337e-20 0)
(0.00587778 -0.000926927 -3.46194e-18 -0.00474247 -6.33845e-21 0)
(0.00563863 -0.000886 -1.63569e-18 -0.00443052 5.01608e-21 0)
(0.00539166 -0.000842408 6.94112e-21 -0.00411853 2.29492e-20 0)
(0.00514273 -0.00079619 1.47883e-18 -0.00380614 1.01388e-19 0)
(0.00488815 -0.00074669 -8.47813e-19 -0.00349635 -5.65729e-18 0)
(0.00463186 -0.000694496 2.60639e-18 -0.00318776 2.8066e-19 0)
(0.00437798 -0.000639709 -8.65816e-19 -0.00289057 2.81183e-18 0)
(0.00412293 -0.000582143 -3.41851e-19 -0.00259615 1.20512e-18 0)
(0.00387676 -0.000522509 -1.31907e-18 -0.00232026 7.99363e-19 0)
(0.00363619 -0.000461047 0 -0.00205442 0 0)
(0.00340658 -0.000398613 1.74378e-18 -0.00180918 1.24311e-18 0)
(0.00319048 -0.00033584 -7.26776e-19 -0.00158158 -1.36925e-18 0)
(0.00298762 -0.000273108 -2.36799e-18 -0.0013761 -1.75203e-18 0)
(0.00280337 -0.000211873 1.47516e-18 -0.00119193 3.0246e-19 0)
(0.00263451 -0.000151731 -1.43219e-18 -0.00103049 -1.06248e-18 0)
(0.00248492 -9.34839e-05 1.32754e-18 -0.000889421 1.02128e-18 0)
(0.00235128 -3.67156e-05 1.83434e-18 -0.000770135 1.15066e-18 0)
(0.00223474 1.64916e-05 1.14459e-18 -0.000666521 6.05656e-19 0)
(0.0021326 6.81441e-05 -4.84676e-19 -0.000582769 -2.78604e-19 0)
(0.00204262 0.000115936 -8.39013e-19 -0.000507168 -4.75624e-19 0)
(0.00196178 0.000160407 -6.05555e-21 -0.000447125 -3.50241e-21 0)
(0.00189303 0.000203858 2.9217e-19 -0.000392042 1.78165e-19 0)
(0.0018196 0.000238673 4.37452e-19 -0.000342578 2.47877e-19 0)
(0.00778361 -0.00146555 2.73287e-18 -0.00832204 -5.75942e-19 -4.81895e-36)
(0.00780723 -0.00147446 -2.1583e-18 -0.00822148 -3.81319e-18 0)
(0.00780569 -0.00149673 4.93355e-18 -0.00809848 3.05762e-18 0)
(0.00778451 -0.00150519 -2.79494e-19 -0.00796234 4.64964e-18 0)
(0.00774323 -0.00151026 -2.4448e-18 -0.00780528 -3.78004e-18 0)
(0.00767844 -0.00150986 2.61895e-18 -0.00763307 -9.17084e-18 0)
(0.00759729 -0.00150292 -4.99392e-18 -0.00744201 9.56984e-19 0)
(0.00749401 -0.00149282 7.49076e-18 -0.00723762 2.84402e-18 0)
(0.00737502 -0.00147611 -2.64023e-18 -0.00701441 -3.60678e-18 0)
(0.00723662 -0.00145678 1.97145e-18 -0.00678055 -4.14014e-18 0)
(0.00708453 -0.00143056 1.16234e-17 -0.00652986 2.2209e-18 0)
(0.00691613 -0.00140278 2.65824e-18 -0.0062714 3.31833e-18 0)
(0.006736 -0.00136875 -3.2003e-18 -0.00599846 -6.61345e-18 0)
(0.00654014 -0.00133318 5.95532e-19 -0.00571829 3.14174e-18 0)
(0.00633361 -0.0012918 -6.03977e-19 -0.00542543 6.1991e-18 0)
(0.00611516 -0.00124805 -2.9867e-18 -0.00512911 2.98988e-18 0)
(0.00588709 -0.00119873 3.55035e-18 -0.0048223 1.71653e-20 0)
(0.00564707 -0.00114681 -1.61673e-18 -0.0045122 -4.99628e-18 0)
(0.00540069 -0.00108984 1.47545e-18 -0.00419631 -4.52889e-18 0)
(0.00514714 -0.00102921 -4.54974e-18 -0.00388231 -3.67448e-19 0)
(0.00488771 -0.000963955 4.27227e-18 -0.00356454 4.46865e-19 0)
(0.00462796 -0.000896357 -6.18706e-19 -0.00325625 -3.38671e-18 0)
(0.00436716 -0.000823809 -3.02318e-18 -0.00295037 2.27751e-18 0)
(0.0041107 -0.000750613 3.09967e-18 -0.00265928 4.31883e-18 0)
(0.00386232 -0.0006735 -4.38115e-20 -0.00238038 9.83539e-19 0)
(0.00362235 -0.000596884 2.05894e-18 -0.00212054 6.71055e-19 0)
(0.00339842 -0.000518722 -1.87165e-19 -0.00188056 -1.2554e-18 0)
(0.00318675 -0.000442337 -2.0772e-18 -0.00166264 -1.72263e-18 0)
(0.00299728 -0.000365999 3.47185e-18 -0.00146935 1.89312e-18 0)
(0.00282337 -0.000292352 -7.58501e-19 -0.00129976 -3.85835e-19 0)
(0.00267224 -0.000221084 -9.3075e-19 -0.0011528 -5.70943e-19 0)
(0.00253644 -0.000151806 1.06104e-18 -0.00102828 6.00197e-19 0)
(0.00241839 -8.62022e-05 -3.36351e-18 -0.00092022 -2.0068e-18 0)
(0.00231649 -2.40436e-05 -1.47385e-18 -0.000831591 -7.81708e-19 0)
(0.00222546 3.5113e-05 1.30228e-18 -0.000752292 6.834e-19 0)
(0.00214441 8.89106e-05 5.8259e-19 -0.000685572 3.09478e-19 0)
(0.00206892 0.000140477 5.25918e-19 -0.000621827 3.48993e-19 0)
(0.00199847 0.000186743 -9.31265e-19 -0.000566506 -5.77913e-19 0)
(0.0019302 0.000229129 1.03457e-19 -0.000509625 1.00898e-19 0)
(0.00186081 0.00026986 3.06946e-19 -0.000456478 1.90715e-19 0)
(0.00745029 -0.0017235 1.62149e-18 -0.00796588 1.67548e-18 4.06078e-33)
(0.00744886 -0.00173205 5.74533e-18 -0.00784328 -6.54961e-18 0)
(0.00743421 -0.00175408 -2.03383e-18 -0.00770649 -3.6123e-18 0)
(0.00740759 -0.00176392 1.80716e-18 -0.00756732 7.82205e-18 0)
(0.00736796 -0.00177013 2.67098e-18 -0.00741188 -5.02057e-18 0)
(0.00731095 -0.00177122 1.73263e-21 -0.00724923 -9.76255e-20 0)
(0.00723971 -0.00176469 -4.8197e-18 -0.00706847 -2.78988e-18 0)
(0.00714861 -0.0017552 -4.67613e-18 -0.0068777 8.98036e-19 0)
(0.00704236 -0.00173699 2.56751e-18 -0.0066678 3.40736e-18 0)
(0.00691705 -0.00171605 -1.15921e-18 -0.00644827 -1.10739e-17 0)
(0.0067754 -0.00168621 -3.84764e-18 -0.00620877 4.13526e-18 0)
(0.00661439 -0.00165334 4.36026e-18 -0.00595909 1.32297e-17 0)
(0.006438 -0.0016123 6.65316e-19 -0.00569117 3.29125e-18 0)
(0.00624381 -0.00156755 -2.66027e-18 -0.00541456 -2.84232e-18 0)
(0.00603635 -0.00151418 4.53808e-18 -0.0051229 2.69637e-18 0)
(0.00581307 -0.00145677 -1.73676e-18 -0.00482472 -5.38126e-18 0)
(0.00557693 -0.00139238 1.49459e-18 -0.00451341 -5.08381e-18 0)
(0.00532844 -0.00132294 3.222e-18 -0.00419948 1.1921e-19 0)
(0.00507363 -0.00124659 1.17644e-19 -0.00388054 6.15481e-18 0)
(0.00480994 -0.0011667 -2.51629e-18 -0.00356319 -2.0549e-18 0)
(0.00454628 -0.00108142 -4.6923e-18 -0.00324887 -7.10096e-18 0)
(0.00428316 -0.000993218 4.8354e-18 -0.00294603 6.34382e-18 0)
(0.00402702 -0.00090261 -1.09009e-18 -0.00265451 8.12378e-19 0)
(0.00378064 -0.000810708 -1.63224e-19 -0.00238343 -8.94263e-19 0)
(0.00354961 -0.00071849 -1.27311e-18 -0.00213249 -1.10187e-18 0)
(0.00333554 -0.00062764 -1.60392e-18 -0.00190777 -1.5305e-18 0)
(0.00314119 -0.000538475 5.2107e-18 -0.00170701 3.05735e-18 0)
(0.00297056 -0.000451727 -8.42864e-19 -0.00153629 -4.66634e-19 0)
(0.00281865 -0.000368007 -2.78464e-18 -0.0013876 -1.62955e-18 0)
(0.00269192 -0.000287862 1.10988e-18 -0.00126726 5.89531e-19 0)
(0.00257516 -0.000212046 -2.486e-18 -0.00115796 -1.49607e-18 0)
(0.00247267 -0.000140244 1.27611e-18 -0.00106624 4.82866e-19 0)
(0.00239311 -7.24617e-05 2.47014e-18 -0.000993665 1.35787e-18 0)
(0.00231835 -8.01567e-06 -2.05743e-18 -0.000930462 -1.31159e-18 0)
(0.0022487 5.02443e-05 -1.18215e-18 -0.000867776 -8.72811e-19 0)
(0.00218363 0.000105586 -7.54734e-19 -0.00081393 -2.76429e-19 0)
(0.00211776 0.000155918 -5.93059e-19 -0.000755757 -3.23718e-19 0)
(0.00205265 0.000202272 -4.3994e-21 -0.000701754 -2.49985e-21 0)
(0.00198632 0.000244495 -4.99548e-19 -0.000644423 -3.78203e-19 0)
(0.00191936 0.000282703 9.72604e-19 -0.000588323 6.01465e-19 0)
(0.00710786 -0.00195459 3.63095e-18 -0.00759591 -3.11519e-18 5.79766e-33)
(0.0070737 -0.00195981 4.11137e-18 -0.00744467 2.02577e-18 0)
(0.0070361 -0.00197818 -3.5344e-18 -0.00728424 9.74903e-18 0)
(0.00699497 -0.00198631 -4.28606e-18 -0.00713337 -2.23259e-18 0)
(0.00694919 -0.00199123 2.32484e-18 -0.00697178 -9.15525e-19 0)
(0.0068937 -0.00199293 -1.26272e-19 -0.00681259 4.07942e-18 0)
(0.00682732 -0.00198663 4.54462e-18 -0.00663706 6.35489e-18 0)
(0.00674487 -0.00197736 -9.147e-18 -0.0064566 -4.84807e-18 0)
(0.00664718 -0.00195794 1.2901e-18 -0.00625595 -1.14833e-17 0)
(0.00652864 -0.00193442 8.31656e-19 -0.00604502 7.01833e-18 0)
(0.00639223 -0.00190034 1.76127e-20 -0.00581202 1.10805e-19 0)
(0.0062332 -0.00186092 -2.63483e-18 -0.00556667 -2.88812e-18 0)
(0.00605656 -0.00180998 3.83033e-18 -0.00530067 -5.19412e-19 0)
(0.00585927 -0.00175325 9.91254e-19 -0.00502422 -3.03723e-18 0)
(0.00564469 -0.00168509 4.47045e-18 -0.004729 2.44945e-18 0)
(0.00541229 -0.0016121 4.41008e-18 -0.00442655 2.43736e-18 0)
(0.00516547 -0.00152835 -2.23566e-18 -0.00410999 -4.55235e-18 0)
(0.00491031 -0.00143903 3.91721e-18 -0.00379628 4.30096e-18 0)
(0.00464716 -0.00134293 -1.55563e-18 -0.00347682 1.55135e-18 0)
(0.00438275 -0.00124273 1.32571e-18 -0.00316803 -2.66242e-18 0)
(0.00412429 -0.00113834 -1.36793e-18 -0.00286876 -1.49366e-18 0)
(0.00387301 -0.00103304 -2.42541e-25 -0.00258889 -2.19718e-25 0)
(0.00363804 -0.000927021 3.65998e-18 -0.00232915 2.04048e-18 0)
(0.00342129 -0.000822506 1.47619e-18 -0.0020988 1.05144e-18 0)
(0.00322632 -0.000720493 4.91388e-19 -0.00189317 4.15679e-19 0)
(0.00305558 -0.000622032 -6.16735e-18 -0.00172038 -3.52089e-18 0)
(0.0029093 -0.000527434 -1.32532e-20 -0.00157311 -6.88503e-21 0)
(0.00278679 -0.000437503 4.91104e-18 -0.00145521 2.55116e-18 0)
(0.0026839 -0.000351769 2.38865e-20 -0.00135655 1.11711e-20 0)
(0.00259687 -0.000273308 1.1205e-20 -0.00127583 5.11531e-21 0)
(0.00251204 -0.000195544 -1.03889e-18 -0.00119511 -7.40885e-19 0)
(0.00246052 -0.00012729 -1.74207e-18 -0.00115123 -1.02524e-18 0)
(0.00240632 -5.81153e-05 6.5329e-19 -0.00110159 5.18073e-19 0)
(0.00234787 2.22783e-06 2.49848e-19 -0.00104996 -7.0648e-20 0)
(0.00229236 5.99663e-05 -1.91856e-19 -0.000998291 7.97922e-20 0)
(0.00223458 0.000114094 -7.42228e-19 -0.000948599 -3.949e-19 0)
(0.00217405 0.000162709 9.69274e-20 -0.000892671 -9.7692e-20 0)
(0.00211304 0.000209483 5.05514e-21 -0.000840806 2.87648e-21 0)
(0.00204931 0.000250445 -2.09858e-18 -0.000782416 -1.60687e-18 0)
(0.00198426 0.000289055 -7.06536e-19 -0.000727556 -4.43062e-19 0)
(0.00677453 -0.00216341 -2.37121e-18 -0.00723055 8.18832e-19 -1.88473e-35)
(0.00670481 -0.00216282 -5.33494e-18 -0.00704836 6.75997e-18 0)
(0.00663771 -0.00217414 3.52559e-19 -0.0068583 1.11913e-17 0)
(0.00657448 -0.00217735 -5.79944e-21 -0.00668815 4.81427e-20 0)
(0.00651175 -0.00217757 -1.18964e-18 -0.00651004 -1.07223e-17 0)
(0.00644485 -0.00217551 4.45333e-18 -0.0063414 -5.64056e-18 0)
(0.00637159 -0.00216565 2.0537e-18 -0.00615972 1.01098e-17 0)
(0.00628522 -0.00215297 8.39769e-18 -0.00597725 7.16377e-19 0)
(0.00618474 -0.0021291 -4.90763e-18 -0.00577515 -8.96369e-18 0)
(0.00606401 -0.00210017 -8.75496e-19 -0.00556452 -6.55637e-18 0)
(0.00592362 -0.00205783 4.98008e-18 -0.00532984 5.27901e-18 0)
(0.0057604 -0.00200818 3.30056e-18 -0.0050838 5.59673e-18 0)
(0.00557584 -0.00194413 -8.46106e-19 -0.00481355 -2.76713e-18 0)
(0.00536853 -0.00187218 -2.69841e-18 -0.00453207 -2.44783e-18 0)
(0.00514299 -0.00178676 -3.29729e-18 -0.00423157 8.8513e-20 0)
(0.00489984 -0.00169436 1.55567e-18 -0.00392534 2.38393e-20 0)
(0.00464817 -0.00159062 -1.32609e-18 -0.003612 -2.0124e-18 0)
(0.00438994 -0.00148206 1.41173e-18 -0.00330455 3.36702e-18 0)
(0.00413241 -0.00136697 4.11695e-18 -0.00300128 2.18923e-18 0)
(0.00388422 -0.00125072 -5.9142e-18 -0.00271985 -4.63465e-18 0)
(0.00364817 -0.00113211 6.92692e-19 -0.00245483 -3.88848e-19 0)
(0.00343259 -0.00101701 2.18527e-18 -0.00222186 1.70229e-18 0)
(0.00323973 -0.000903057 1.65325e-18 -0.00201477 9.69116e-19 0)
(0.00307341 -0.000795299 2.3174e-18 -0.00184357 1.139e-18 0)
(0.00293303 -0.000691539 3.4914e-18 -0.00169893 1.99232e-18 0)
(0.0028197 -0.000594249 -4.73527e-18 -0.00158788 -2.10169e-18 0)
(0.00272925 -0.000501567 -4.04814e-18 -0.00149746 -2.53305e-18 0)
(0.00265653 -0.000415569 1.61651e-18 -0.00142965 1.2576e-18 0)
(0.00259902 -0.00033475 -8.1198e-19 -0.00137243 -6.37495e-19 0)
(0.00254878 -0.000258235 4.62132e-18 -0.00132687 2.25806e-18 0)
(0.00251044 -0.0001863 1.09017e-20 -0.00128854 4.78657e-21 0)
(0.00247551 -0.000118565 -4.11894e-19 -0.00125634 7.37137e-20 0)
(0.00242931 -5.44665e-05 1.38623e-18 -0.00121208 4.10291e-19 0)
(0.00238331 4.73955e-06 -2.78879e-19 -0.00116919 9.62406e-20 0)
(0.00233524 6.15922e-05 -8.84595e-19 -0.00112385 -4.52733e-19 0)
(0.00228267 0.00011437 -6.13984e-19 -0.00107626 -5.28811e-19 0)
(0.00222844 0.000163531 -7.34129e-19 -0.00102533 -4.00576e-19 0)
(0.0021721 0.000209443 1.90459e-18 -0.000975349 1.25104e-18 0)
(0.00211368 0.000251575 -5.40724e-19 -0.000920754 -4.80656e-19 0)
(0.00205378 0.0002898 -5.65699e-19 -0.000868175 -1.75693e-19 0)
(0.00645985 -0.00235483 -3.16128e-20 -0.00687946 5.6261e-20 2.77044e-36)
(0.0063536 -0.00234575 -3.49266e-18 -0.00666546 -1.34107e-18 0)
(0.00625166 -0.0023456 2.09924e-18 -0.00644115 -1.24982e-18 0)
(0.00615738 -0.00233906 7.71199e-18 -0.00624301 -8.46929e-19 0)
(0.00606603 -0.00232951 -3.30747e-18 -0.00603714 -5.23298e-18 0)
(0.00597373 -0.00231793 -1.77114e-18 -0.00584554 -2.60368e-18 0)
(0.00587801 -0.00229813 -5.83095e-18 -0.00564257 2.62797e-18 0)
(0.00577175 -0.00227525 5.82837e-18 -0.00544293 9.00833e-19 0)
(0.00565367 -0.00224012 2.93021e-19 -0.00522532 3.17247e-18 0)
(0.00551703 -0.00219918 -2.72711e-18 -0.00500244 -5.38867e-18 0)
(0.00536095 -0.00214293 -5.9027e-18 -0.00475567 -1.49668e-18 0)
(0.00518273 -0.00207812 -9.28492e-19 -0.00449981 2.88985e-18 0)
(0.00498252 -0.00199697 -1.37435e-18 -0.00421951 5.2815e-18 0)
(0.00476242 -0.00190641 -4.51595e-19 -0.00393259 2.35517e-18 0)
(0.00452699 -0.00180198 -4.20823e-18 -0.00363021 -2.04696e-18 0)
(0.00428095 -0.00169031 -2.79812e-18 -0.00333104 -1.96984e-18 0)
(0.00403412 -0.00156954 -1.32407e-18 -0.00303309 -2.19885e-19 0)
(0.00379008 -0.00144604 -2.51089e-18 -0.00275212 -6.49813e-19 0)
(0.00355995 -0.00131949 4.04885e-18 -0.00248818 2.09009e-18 0)
(0.00334893 -0.0011959 -3.47122e-18 -0.00225656 -2.20883e-18 0)
(0.00316176 -0.00107393 -3.90717e-18 -0.00205126 -2.08241e-18 0)
(0.00300362 -0.000959149 2.60076e-18 -0.0018854 1.12333e-18 0)
(0.00287497 -0.000848875 2.74936e-18 -0.00174937 1.41023e-18 0)
(0.00277437 -0.00074728 -2.66395e-18 -0.00164815 -1.36062e-18 0)
(0.00270116 -0.000650253 2.61972e-18 -0.00157222 2.02516e-18 0)
(0.00264765 -0.000561053 3.29378e-18 -0.00151992 1.23391e-18 0)
(0.00261005 -0.000476284 -3.95438e-18 -0.00148033 -1.86031e-18 0)
(0.00258063 -0.000398048 1.48019e-18 -0.00145137 5.70787e-19 0)
(0.00255758 -0.000322541 1.44906e-18 -0.0014257 5.78236e-19 0)
(0.00253554 -0.000251584 -5.50605e-19 -0.00140353 1.07029e-19 0)
(0.00250982 -0.000184775 1.49524e-18 -0.00137462 1.28848e-18 0)
(0.002482 -0.000119499 -7.32581e-19 -0.00134845 -6.33328e-19 0)
(0.00244644 -5.79743e-05 2.13239e-18 -0.00131194 1.86082e-18 0)
(0.002409 1.13823e-07 2.04935e-18 -0.00127658 1.8103e-18 0)
(0.00236776 5.64679e-05 9.4132e-19 -0.00123563 4.76133e-19 0)
(0.00232256 0.00010794 -2.20299e-19 -0.00119417 1.26341e-19 0)
(0.0022751 0.000157263 4.4622e-19 -0.00114754 6.984e-19 0)
(0.00222575 0.000202904 1.35032e-19 -0.00110312 -1.41539e-19 0)
(0.00217393 0.000245707 4.75502e-19 -0.00105247 6.82825e-19 0)
(0.00211961 0.000284263 2.50655e-19 -0.00100395 3.85702e-19 0)
(0.00616534 -0.00253212 -2.54355e-18 -0.00654472 4.40445e-18 1.68774e-32)
(0.00602713 -0.00251224 2.02736e-18 -0.00630262 -1.40025e-18 0)
(0.00588831 -0.00249758 3.97662e-18 -0.00604311 -1.2824e-17 0)
(0.00575476 -0.00247517 3.53602e-19 -0.00580877 9.64602e-18 0)
(0.00562251 -0.00244861 -7.54339e-19 -0.00556395 7.04326e-18 0)
(0.0054891 -0.00241889 -3.64537e-18 -0.00533432 2.07502e-18 0)
(0.00535256 -0.00237964 -1.72775e-18 -0.00509303 -2.19465e-18 0)
(0.00520806 -0.00233683 -1.98385e-18 -0.00485888 -5.22388e-18 0)
(0.00505295 -0.0022805 3.66407e-18 -0.004608 1.46565e-18 0)
(0.00488304 -0.00221832 5.00077e-19 -0.00435693 2.64428e-18 0)
(0.00469661 -0.0021399 1.3943e-18 -0.00408552 4.94998e-18 0)
(0.00449324 -0.00205354 -2.11156e-18 -0.00381167 2.86099e-18 0)
(0.00427433 -0.00195119 -1.04032e-18 -0.00352096 -1.99469e-18 0)
(0.00404452 -0.00184174 1.39264e-19 -0.00323411 -1.83251e-18 0)
(0.00380977 -0.00172047 1.30976e-18 -0.00294358 1.26488e-19 0)
(0.00357786 -0.00159607 -2.77019e-18 -0.00267087 -1.6554e-18 0)
(0.00335715 -0.00146644 -1.17551e-18 -0.00241219 -3.54912e-19 0)
(0.00315492 -0.00133996 -2.86031e-18 -0.00218615 -1.5139e-18 0)
(0.00297879 -0.00121483 -1.85265e-18 -0.00198843 -9.40296e-19 0)
(0.00283215 -0.00109744 1.85852e-18 -0.00183162 8.076e-19 0)
(0.0027181 -0.000985729 -1.89944e-18 -0.00170717 -1.28277e-18 0)
(0.00263557 -0.00088284 -9.48019e-19 -0.00162176 2.45275e-20 0)
(0.00258151 -0.000786474 1.83245e-18 -0.00156192 6.08595e-19 0)
(0.00255036 -0.000697549 8.84762e-19 -0.00152938 7.20558e-19 0)
(0.00253611 -0.000613759 -5.09027e-25 -0.00150951 -1.74111e-25 0)
(0.00253041 -0.000535717 3.36159e-18 -0.00150148 2.01352e-18 0)
(0.00252931 -0.000461091 -7.65991e-19 -0.0014939 1.51106e-19 0)
(0.00252774 -0.000389888 -1.49045e-18 -0.00148935 -5.54493e-19 0)
(0.00252369 -0.000320782 -6.60854e-19 -0.00147897 1.29254e-19 0)
(0.00251299 -0.000254698 5.48085e-19 -0.00146611 -1.44691e-19 0)
(0.00249764 -0.00018977 3.28809e-18 -0.00144618 1.75384e-18 0)
(0.00247672 -0.000127718 -1.62547e-18 -0.00142497 -3.89985e-19 0)
(0.00244797 -6.81769e-05 -1.54386e-18 -0.00139354 -3.89365e-19 0)
(0.00241943 -1.14566e-05 1.3837e-18 -0.00136569 3.57458e-19 0)
(0.00238422 4.39743e-05 1.65861e-18 -0.00132937 1.11038e-18 0)
(0.00234801 9.44876e-05 -1.17698e-18 -0.0012949 -3.23273e-19 0)
(0.00230799 0.000144059 1.94522e-19 -0.00125458 -1.62788e-19 0)
(0.00226669 0.000189268 2.84037e-18 -0.00121603 2.04618e-18 0)
(0.00222189 0.000232626 -8.74506e-19 -0.00117111 -2.44589e-19 0)
(0.00217386 0.000271326 9.37866e-19 -0.00112663 8.2309e-19 0)
(0.00587537 -0.00269153 -8.48025e-19 -0.00621088 -1.1441e-18 2.8332e-33)
(0.00570936 -0.00265858 -3.64576e-19 -0.0059441 -6.33074e-18 0)
(0.00553386 -0.00262652 1.88168e-25 -0.00565029 -1.09657e-24 0)
(0.0053565 -0.002583 -2.78062e-18 -0.00537573 8.29716e-18 0)
(0.00517456 -0.00253139 3.11501e-18 -0.00508419 9.68147e-19 0)
(0.00498689 -0.00247393 -1.66359e-18 -0.00480492 1.06239e-18 0)
(0.00479432 -0.00240397 3.20546e-18 -0.00451158 -4.72182e-18 0)
(0.00459397 -0.00232955 -3.43452e-18 -0.0042274 -3.78826e-18 0)
(0.00438448 -0.00224043 -4.20692e-21 -0.00392768 -2.78124e-20 0)
(0.00416614 -0.00214678 -2.83232e-18 -0.00363568 9.66443e-19 0)
(0.00393908 -0.00203869 2.11668e-18 -0.00333157 1.64084e-18 0)
(0.00370662 -0.00192634 3.5564e-18 -0.00303862 1.41569e-18 0)
(0.00347329 -0.00180316 1.72022e-20 -0.00274454 -1.63408e-18 0)
(0.00324576 -0.00167837 1.15137e-18 -0.0024729 9.93122e-20 0)
(0.00303167 -0.00154931 3.73409e-18 -0.0022166 1.64594e-18 0)
(0.00283884 -0.00142425 3.78446e-18 -0.00199729 1.72418e-18 0)
(0.00267412 -0.00130098 -9.88317e-19 -0.00180773 -4.61109e-19 0)
(0.00254227 -0.00118691 -9.00594e-19 -0.00166374 -1.67928e-19 0)
(0.00244635 -0.00107881 1.94402e-20 -0.00155476 6.41003e-21 0)
(0.00238434 -0.000981372 -1.79826e-18 -0.001488 -1.33818e-18 0)
(0.00235495 -0.000890526 -2.95825e-18 -0.00145001 -3.5737e-19 0)
(0.00234964 -0.000808469 -8.95289e-19 -0.00144095 -7.32896e-19 0)
(0.00236289 -0.000730732 9.95938e-19 -0.00144528 -2.2485e-19 0)
(0.00238532 -0.000659126 -9.43912e-19 -0.00146234 2.23815e-19 0)
(0.0024114 -0.000588928 -2.56616e-18 -0.0014785 -1.26349e-18 0)
(0.00243535 -0.000522437 4.13604e-18 -0.00149614 2.73469e-18 0)
(0.00245495 -0.000455572 2.25826e-25 -0.0015063 8.20287e-26 0)
(0.00246805 -0.000391158 1.48393e-18 -0.00151386 5.34576e-19 0)
(0.00247259 -0.000326559 2.07239e-18 -0.00151081 3.69083e-19 0)
(0.00247155 -0.000263755 -2.11879e-18 -0.00150645 -1.23586e-18 0)
(0.00246297 -0.000202392 -1.79506e-18 -0.00149216 -3.59356e-19 0)
(0.0024485 -0.000143261 7.34158e-19 -0.00147636 6.81484e-19 0)
(0.00243044 -8.53181e-05 1.58235e-18 -0.00145415 3.50975e-19 0)
(0.00241039 -2.93819e-05 -7.00767e-19 -0.00143394 -6.61296e-19 0)
(0.00238447 2.42809e-05 -1.72079e-18 -0.00140504 -1.14704e-18 0)
(0.00235715 7.46545e-05 1.64038e-18 -0.00137823 1.12307e-18 0)
(0.00232514 0.000123434 -3.76188e-18 -0.0013441 -2.8137e-18 0)
(0.00229158 0.000168361 4.2272e-19 -0.00131201 7.92108e-19 0)
(0.00225347 0.000211709 1.75006e-25 -0.00127193 1.02118e-25 0)
(0.00221175 0.000250325 7.78187e-19 -0.00123255 5.72057e-19 0)
(0.00557195 -0.00282558 -4.62911e-19 -0.00586047 3.24408e-18 1.35367e-32)
(0.00537848 -0.00277467 6.90305e-19 -0.00556868 -3.62059e-18 0)
(0.0051637 -0.00271992 -1.80326e-18 -0.00523876 -7.79173e-18 0)
(0.00493955 -0.00264925 1.25215e-18 -0.00492154 2.0043e-18 0)
(0.00470203 -0.0025646 1.08456e-18 -0.00457898 4.93058e-18 0)
(0.00445388 -0.00247117 1.49947e-18 -0.0042453 -9.80878e-19 0)
(0.00419548 -0.00236054 2.84018e-18 -0.00389253 -1.70983e-18 0)
(0.00392923 -0.00224539 3.29381e-21 -0.00355027 2.62931e-20 0)
(0.00365726 -0.00211527 -7.72586e-19 -0.00319674 2.59661e-18 0)
(0.00338543 -0.00198337 -1.1766e-18 -0.0028613 4.1317e-19 0)
(0.00311836 -0.0018428 -2.9223e-18 -0.00252889 -2.83253e-18 0)
(0.00286498 -0.00170558 2.15596e-18 -0.00222809 1.22906e-18 0)
(0.0026311 -0.00156699 1.41096e-20 -0.00194822 1.15532e-20 0)
(0.00242804 -0.00143828 -3.90818e-18 -0.00171621 -1.99727e-18 0)