/*--------------------------------*- C++ -*----------------------------------*\
| =========                 |                                                 |
| \\      /  F ield         | OpenFOAM: The Open Source CFD Toolbox           |
|  \\    /   O peration     | Version:  v2012                                 |
|   \\  /    A nd           | Website:  www.openfoam.com                      |
|    \\/     M anipulation  |                                                 |
\*---------------------------------------------------------------------------*/
FoamFile
{
    version     2.0;
    format      ascii;
    class       pointVectorField;
    location    "17";
    object      pointD;
}
// * * * * * * * * * * * * * * * * * * * * * * * * * * * * * * * * * * * * * //

dimensions      [0 1 0 0 0 0 0];


internalField   nonuniform List<vector> 
32562
(
(0.00158844 0 8.46291e-22)
(0.0019636 0 7.23739e-22)
(0.00180073 -0.000104245 -1.16063e-21)
(0 -0.00133745 7.0416e-24)
(0 -0.000193104 3.18816e-20)
(0.00162775 0 0)
(0 -0.00128576 0)
(0.00113549 -0.000286553 0)
(0.000477334 -0.000531639 1.82767e-21)
(0.00189043 -1.07359e-05 -5.53105e-21)
(0.00134271 -0.000487233 -1.00233e-22)
(0.00134271 -0.000487233 -1.00233e-22)
(0.00113549 -0.000286553 0)
(0 -0.00128576 0)
(0 -0.000193104 3.18816e-20)
(0.00158844 0 8.46291e-22)
(0.00162775 0 0)
(0.0019636 0 7.23739e-22)
(0.00189043 -1.07359e-05 -5.53105e-21)
(0.00180073 -0.000104245 -1.16063e-21)
(0.000477334 -0.000531639 1.82767e-21)
(0 -0.00133745 7.0416e-24)
(2.60353e-05 -0.0012833 0)
(5.22284e-05 -0.0012761 0)
(7.86948e-05 -0.00126462 0)
(0.000105614 -0.00124936 0)
(0.000133395 -0.00123059 0)
(0.00016243 -0.00120836 0)
(0.000192983 -0.00118274 0)
(0.000225208 -0.00115384 0)
(0.000259135 -0.00112191 0)
(0.00029466 -0.00108727 0)
(0.000331593 -0.00105039 0)
(0.000369647 -0.00101178 0)
(0.000408489 -0.000972028 0)
(0.000447728 -0.000931752 0)
(0.000486891 -0.000891612 0)
(0.000525384 -0.000852336 0)
(0.0005624 -0.000814908 0)
(0.000597034 -0.000780305 0)
(0.000628693 -0.000749006 0)
(0.000657513 -0.000720684 0)
(0.000684274 -0.000694421 0)
(0.000709988 -0.000669098 0)
(0.000735468 -0.000643967 0)
(0.000760823 -0.000618919 0)
(0.000785875 -0.000594241 0)
(0.000810678 -0.000570039 0)
(0.000835253 -0.000546308 0)
(0.000859552 -0.000523144 0)
(0.000883638 -0.000500526 0)
(0.00090746 -0.000478503 0)
(0.000931072 -0.000457053 0)
(0.000954424 -0.000436217 0)
(0.000977576 -0.000415952 0)
(0.00100046 -0.000396319 0)
(0.00102316 -0.000377242 0)
(0.00104557 -0.000358811 0)
(0.00106781 -0.000340916 0)
(0.00108974 -0.000323675 0)
(0.00111154 -0.000306958 0)
(0.00115902 -0.000269722 0)
(0.00117992 -0.000254766 0)
(0.00120052 -0.000240412 0)
(0.00122079 -0.000226633 0)
(0.00124072 -0.000213434 0)
(0.00126032 -0.000200775 0)
(0.00127956 -0.000188661 0)
(0.00129844 -0.000177063 0)
(0.00131694 -0.00016598 0)
(0.00133505 -0.000155392 0)
(0.00135275 -0.000145292 0)
(0.00137004 -0.000135665 0)
(0.00138688 -0.000126499 0)
(0.00140329 -0.000117783 0)
(0.00141922 -0.0001095 0)
(0.00143467 -0.00010164 0)
(0.00144962 -9.41927e-05 0)
(0.00146407 -8.71415e-05 0)
(0.00147799 -8.04706e-05 0)
(0.00149137 -7.41683e-05 0)
(0.0015042 -6.82162e-05 0)
(0.00151646 -6.26025e-05 0)
(0.00152814 -5.73085e-05 0)
(0.00153923 -5.23212e-05 0)
(0.00154971 -4.76219e-05 0)
(0.00155957 -4.3196e-05 0)
(0.0015688 -3.90251e-05 0)
(0.0015774 -3.50934e-05 0)
(0.00158534 -3.13823e-05 0)
(0.00159263 -2.78753e-05 0)
(0.00159925 -2.45536e-05 0)
(0.00160519 -2.14002e-05 0)
(0.00161045 -1.8396e-05 0)
(0.00161503 -1.55234e-05 0)
(0.0016189 -1.27632e-05 0)
(0.00162208 -1.00974e-05 0)
(0.00162456 -7.50687e-06 0)
(0.00162633 -4.97314e-06 0)
(0.0016274 -2.47709e-06 0)
(0.00159062 0 0)
(0.00159332 0 0)
(0.00159584 0 0)
(0.00159818 0 0)
(0.00160036 0 0)
(0.00160238 0 0)
(0.00160426 0 0)
(0.00160601 0 0)
(0.00160763 0 0)
(0.00160914 0 0)
(0.00161054 0 0)
(0.00161185 0 0)
(0.00161305 0 0)
(0.00161418 0 0)
(0.00161522 0 0)
(0.0016162 0 0)
(0.0016171 0 0)
(0.00161794 0 0)
(0.00161872 0 0)
(0.00161945 0 0)
(0.00162013 0 0)
(0.00162076 0 0)
(0.00162135 0 0)
(0.00162191 0 0)
(0.00162242 0 0)
(0.00162291 0 0)
(0.00162336 0 0)
(0.00162379 0 0)
(0.00162419 0 0)
(0.00162458 0 0)
(0.00162494 0 0)
(0.00162528 0 0)
(0.00162561 0 0)
(0.00162593 0 0)
(0.00162624 0 0)
(0.00162653 0 0)
(0.00162682 0 0)
(0.0016271 0 0)
(0.00162738 0 0)
(0.00162834 0 0)
(0.001629 0 0)
(0.00162971 0 0)
(0.00163044 0 0)
(0.00163121 0 0)
(0.00163205 0 0)
(0.00163294 0 0)
(0.00163392 0 0)
(0.00163496 0 0)
(0.00163611 0 0)
(0.00163734 0 0)
(0.00163867 0 0)
(0.0016401 0 0)
(0.00164164 0 0)
(0.00164328 0 0)
(0.00164504 0 0)
(0.00164691 0 0)
(0.0016489 0 0)
(0.001651 0 0)
(0.00165323 0 0)
(0.00165557 0 0)
(0.00165803 0 0)
(0.00166062 0 0)
(0.00166333 0 0)
(0.00166616 0 0)
(0.00166911 0 0)
(0.00167218 0 0)
(0.00167537 0 0)
(0.00167869 0 0)
(0.00168212 0 0)
(0.00168568 0 0)
(0.00168935 0 0)
(0.00169314 0 0)
(0.00169705 0 0)
(0.00170108 0 0)
(0.00170522 0 0)
(0.00170947 0 0)
(0.00171383 0 0)
(0.00171831 0 0)
(0.00172289 0 0)
(0.00172758 0 0)
(0.00173237 0 0)
(0.00173727 0 0)
(0.00174227 0 0)
(0.00174737 0 0)
(0.00175256 0 0)
(0.00175785 0 0)
(0.00176323 0 0)
(0.00176871 0 0)
(0.00177427 0 0)
(0.00177991 0 0)
(0.00178564 0 0)
(0.00179145 0 0)
(0.00179734 0 0)
(0.0018033 0 0)
(0.00180933 0 0)
(0.00181543 0 0)
(0.0018216 0 0)
(0.00182783 0 0)
(0.00183411 0 0)
(0.00184046 0 0)
(0.00184685 0 0)
(0.00185329 0 0)
(0.00185977 0 0)
(0.00186629 0 0)
(0.00187285 0 0)
(0.00187944 0 0)
(0.00188605 0 0)
(0.00189268 0 0)
(0.00189933 0 0)
(0.00190599 0 0)
(0.00191265 0 0)
(0.0019193 0 0)
(0.00192595 0 0)
(0.00193258 0 0)
(0.00193919 0 0)
(0.00194576 0 0)
(0.00195229 0 0)
(0.00195878 0 0)
(0.00196515 5.08377e-07 7.4936e-22)
(0.00196497 1.01339e-06 6.96155e-22)
(0.00196469 1.51175e-06 1.38424e-21)
(0.00196429 2.00004e-06 -7.97028e-22)
(0.00196377 2.47506e-06 6.38455e-22)
(0.00196315 2.93337e-06 7.14194e-22)
(0.00196241 3.37187e-06 2.95297e-24)
(0.00196156 3.78713e-06 1.58997e-21)
(0.0019606 4.17619e-06 3.19369e-22)
(0.00195953 4.53561e-06 -1.09607e-21)
(0.00195836 4.8626e-06 -2.19455e-21)
(0.00195708 5.15373e-06 -1.87926e-21)
(0.0019557 5.40643e-06 1.24745e-21)
(0.00195422 5.61728e-06 2.44966e-21)
(0.00195264 5.78395e-06 5.38618e-23)
(0.00195096 5.90303e-06 -3.16249e-21)
(0.00194919 5.97248e-06 -3.56603e-21)
(0.00194733 5.98891e-06 -1.66675e-21)
(0.00194538 5.9506e-06 -1.06406e-21)
(0.00194334 5.85418e-06 -1.70503e-27)
(0.00194122 5.69827e-06 3.95525e-22)
(0.00193902 5.47954e-06 1.15699e-21)
(0.00193675 5.19698e-06 7.61333e-22)
(0.0019344 4.84733e-06 1.17304e-21)
(0.00193199 4.4299e-06 3.13607e-21)
(0.0019295 3.94163e-06 1.96303e-21)
(0.00192696 3.38205e-06 -7.80652e-22)
(0.00192435 2.74844e-06 -3.26011e-22)
(0.0019217 2.0404e-06 -1.58917e-21)
(0.00191899 1.25577e-06 -1.72804e-21)
(0.00191623 3.94006e-07 1.11224e-21)
(0.00191343 -5.46176e-07 1.59722e-21)
(0.0019106 -1.56582e-06 8.006e-22)
(0.00190773 -2.66493e-06 -7.38965e-22)
(0.00190483 -3.84541e-06 3.32344e-21)
(0.0019019 -5.1056e-06 5.12546e-21)
(0.00189895 -6.44859e-06 3.78113e-21)
(0.00189598 -7.87075e-06 2.98432e-21)
(0.001893 -9.37652e-06 -3.73998e-21)
(0.00188869 -1.16887e-05 -2.96819e-22)
(0.00188736 -1.24335e-05 1.63979e-21)
(0.00188603 -1.31943e-05 -1.66962e-21)
(0.0018847 -1.39707e-05 -2.07291e-21)
(0.00188338 -1.47628e-05 2.86578e-21)
(0.00188205 -1.55705e-05 3.39557e-22)
(0.00188073 -1.63935e-05 -7.06845e-21)
(0.0018794 -1.72322e-05 -4.54223e-21)
(0.00187808 -1.80859e-05 1.22887e-21)
(0.00187676 -1.89551e-05 -8.47506e-22)
(0.00187544 -1.98391e-05 -2.07637e-21)
(0.00187413 -2.07384e-05 2.80943e-21)
(0.00187282 -2.16522e-05 2.44522e-22)
(0.00187151 -2.25811e-05 -7.06246e-21)
(0.00187021 -2.35243e-05 -4.49754e-21)
(0.00186891 -2.44821e-05 3.44878e-22)
(0.00186762 -2.54541e-05 -8.55429e-22)
(0.00186633 -2.64403e-05 -1.20031e-21)
(0.00186504 -2.74404e-05 -8.65374e-22)
(0.00186376 -2.84544e-05 -8.65374e-22)
(0.00186249 -2.94819e-05 -8.68673e-22)
(0.00186123 -3.05229e-05 -2.04123e-21)
(0.00185997 -3.1577e-05 -8.78303e-22)
(0.00185871 -3.26442e-05 2.89925e-21)
(0.00185747 -3.37242e-05 -1.994e-23)
(0.00185623 -3.48168e-05 -5.79211e-21)
(0.001855 -3.59217e-05 -1.76928e-21)
(0.00185378 -3.70387e-05 -1.49118e-21)
(0.00185256 -3.81676e-05 -5.1338e-21)
(0.00185135 -3.93082e-05 -3.12696e-21)
(0.00185016 -4.04601e-05 1.36961e-24)
(0.00184897 -4.16231e-05 -2.13737e-22)
(0.00184779 -4.27969e-05 -2.11115e-22)
(0.00184662 -4.39812e-05 2.1581e-21)
(0.00184546 -4.51759e-05 -6.87438e-22)
(0.0018443 -4.63804e-05 -2.13075e-21)
(0.00184316 -4.75947e-05 -1.05467e-23)
(0.00184203 -4.88182e-05 -7.31276e-22)
(0.00184091 -5.00509e-05 -8.92158e-22)
(0.0018398 -5.12922e-05 1.02287e-21)
(0.0018387 -5.25419e-05 -8.85379e-22)
(0.00183761 -5.37996e-05 -2.80448e-21)
(0.00183653 -5.5065e-05 1.18538e-21)
(0.00183546 -5.63378e-05 -6.97225e-22)
(0.0018344 -5.76176e-05 -5.69669e-21)
(0.00183335 -5.89039e-05 -3.05276e-23)
(0.00183231 -6.01966e-05 2.03878e-21)
(0.00183129 -6.14951e-05 -3.63375e-21)
(0.00183027 -6.27991e-05 -4.61879e-21)
(0.00182927 -6.41083e-05 -1.8336e-21)
(0.00182827 -6.54222e-05 8.75994e-24)
(0.00182729 -6.67404e-05 -8.9468e-22)
(0.00182632 -6.80626e-05 -2.69924e-21)
(0.00182536 -6.93884e-05 -2.67801e-21)
(0.0018244 -7.07173e-05 8.95137e-22)
(0.00182346 -7.2049e-05 8.72268e-22)
(0.00182253 -7.3383e-05 -1.75915e-21)
(0.00182161 -7.4719e-05 1.68146e-21)
(0.0018207 -7.60566e-05 -1.82016e-22)
(0.00181979 -7.73954e-05 -4.29588e-21)
(0.0018189 -7.87349e-05 -1.66439e-21)
(0.00181801 -8.00749e-05 7.26276e-22)
(0.00181713 -8.14148e-05 9.13464e-22)
(0.00181626 -8.27544e-05 1.01133e-22)
(0.0018154 -8.40932e-05 -9.06215e-22)
(0.00181454 -8.54309e-05 -2.34369e-26)
(0.00181369 -8.67674e-05 1.25359e-25)
(0.00181285 -8.81021e-05 -1.68177e-21)
(0.00181201 -8.94349e-05 -6.4147e-22)
(0.00181117 -9.07655e-05 1.03991e-21)
(0.00181034 -9.20937e-05 3.34145e-21)
(0.00180951 -9.34192e-05 2.29339e-21)
(0.00180869 -9.4742e-05 -1.80909e-21)
(0.00180786 -9.60619e-05 -7.61788e-22)
(0.00180704 -9.7379e-05 7.61347e-22)
(0.00180621 -9.86931e-05 -1.81048e-21)
(0.00180539 -0.000100005 -1.66691e-21)
(0.00180456 -0.000101313 -6.50645e-30)
(0.00180373 -0.00010262 -7.70296e-22)
(0.00179332 -0.00010654 -7.74289e-22)
(0.00178376 -0.000109152 -1.15881e-21)
(0.00177423 -0.00011175 -1.1572e-21)
(0.00176472 -0.000114318 -1.15426e-21)
(0.00175523 -0.000116832 -1.46389e-21)
(0.00174574 -0.000119277 -2.39083e-22)
(0.00173625 -0.000121638 4.55743e-22)
(0.00172675 -0.000123908 0)
(0.00171723 -0.000126077 3.25569e-22)
(0.00170766 -0.00012814 -5.12831e-22)
(0.00169805 -0.000130094 -1.28612e-21)
(0.00168837 -0.000131938 -8.4294e-22)
(0.00167862 -0.000133669 -1.14362e-21)
(0.00166879 -0.000135291 -1.15071e-21)
(0.00165887 -0.000136805 -1.21536e-21)
(0.00164884 -0.000138214 -8.13061e-22)
(0.0016387 -0.000139523 -8.68433e-22)
(0.00162843 -0.000140736 -1.71117e-21)
(0.00161803 -0.000141858 -1.17681e-21)
(0.00160749 -0.000142895 5.89335e-22)
(0.0015968 -0.000143854 1.28352e-21)
(0.00158595 -0.000144742 -1.07624e-21)
(0.00157494 -0.000145566 -2.31999e-21)
(0.00156375 -0.000146333 -1.30148e-21)
(0.00155238 -0.000147054 -8.65819e-22)
(0.00154081 -0.000147735 -9.24113e-22)
(0.00152905 -0.000148387 -9.79099e-22)
(0.00151709 -0.000149019 -9.95852e-22)
(0.00150491 -0.000149641 -9.5261e-24)
(0.00149251 -0.000150263 -5.19596e-22)
(0.00147989 -0.000150895 -9.83717e-22)
(0.00146703 -0.000151549 -1.06059e-21)
(0.00145393 -0.000152235 -1.10136e-21)
(0.00144059 -0.000152965 -5.71491e-22)
(0.00142699 -0.000153753 -1.08517e-21)
(0.00141312 -0.000154608 -5.62999e-22)
(0.001399 -0.000155548 -6.09865e-22)
(0.0013846 -0.000156579 -4.80728e-22)
(0.00136992 -0.000157718 7.06298e-22)
(0.00135495 -0.000158982 -9.49799e-23)
(0.00133969 -0.000160381 -7.46182e-22)
(0.00132413 -0.000161934 -1.27698e-21)
(0.00130826 -0.000163654 -1.23073e-21)
(0.00129208 -0.000165562 -2.06249e-21)
(0.00127558 -0.000167668 -2.81082e-21)
(0.00125877 -0.000169986 -1.97977e-21)
(0.00124162 -0.000172543 4.32254e-22)
(0.00122415 -0.000175354 2.19819e-21)
(0.00120633 -0.000178436 -9.72097e-23)
(0.00118818 -0.00018181 8.61783e-22)
(0.00116967 -0.000185492 2.01337e-21)
(0.00115082 -0.000189507 -2.55092e-22)
(0.00113162 -0.000193869 -1.27996e-21)
(0.00111205 -0.000198606 -5.04979e-22)
(0.00109213 -0.000203734 -3.33374e-22)
(0.00107185 -0.000209282 -1.63967e-21)
(0.0010512 -0.000215266 -1.11257e-21)
(0.0010302 -0.00022171 6.37978e-22)
(0.00100883 -0.000228649 2.2023e-22)
(0.000987103 -0.000236097 1.57637e-23)
(0.000965011 -0.000244067 1.40142e-21)
(0.000942566 -0.000252604 1.43606e-21)
(0.00091977 -0.000261721 5.67358e-22)
(0.00089664 -0.00027145 9.26169e-22)
(0.000873182 -0.000281809 3.01426e-22)
(0.000849432 -0.000292824 2.00765e-23)
(0.000825422 -0.000304508 1.70888e-21)
(0.000801125 -0.000316902 5.6611e-22)
(0.000776377 -0.000330079 -3.77206e-21)
(0.000751086 -0.000344107 -3.65183e-21)
(0.000725187 -0.000359026 -6.7064e-22)
(0.000698697 -0.000374857 -2.66209e-30)
(0.000671634 -0.000391576 2.2925e-21)
(0.000644151 -0.000409109 2.8461e-21)
(0.000616302 -0.000427482 1.24367e-21)
(0.000588193 -0.000446683 8.25033e-23)
(0.00055988 -0.000466805 2.84136e-23)
(0.000531549 -0.000487837 3.74732e-21)
(0.000503393 -0.000509997 4.65276e-21)
(0.000455479 -0.000550902 -1.87367e-21)
(0.000435603 -0.000569196 -1.2312e-21)
(0.000415638 -0.000588132 5.36968e-21)
(0.000395605 -0.000607654 2.44037e-21)
(0.000375519 -0.000627817 -5.46554e-21)
(0.000355459 -0.000648617 -1.31102e-21)
(0.000335443 -0.000670074 4.60489e-21)
(0.000315537 -0.000692199 3.87688e-22)
(0.000295776 -0.000714981 -6.73786e-21)
(0.000276223 -0.000738438 -7.27877e-21)
(0.000256931 -0.00076253 -2.7175e-21)
(0.000237965 -0.000787269 -1.18235e-22)
(0.0002194 -0.000812584 -9.5722e-23)
(0.000201299 -0.000838468 -1.76513e-22)
(0.00018375 -0.000864819 -1.7624e-23)
(0.000166811 -0.000891598 -2.26729e-21)
(0.000150575 -0.00091867 -4.5041e-21)
(0.000135084 -0.000945966 -8.58362e-21)
(0.000120422 -0.000973321 -7.38678e-21)
(0.000106608 -0.00100064 1.06295e-21)
(9.3707e-05 -0.00102775 -7.17709e-22)
(8.17121e-05 -0.00105454 -7.53743e-22)
(7.06663e-05 -0.00108082 6.35737e-21)
(6.0541e-05 -0.0011065 4.07823e-21)
(5.13587e-05 -0.0011314 -1.10697e-21)
(4.30747e-05 -0.00115542 2.12365e-22)
(3.56938e-05 -0.0011784 4.98182e-22)
(2.91616e-05 -0.00120025 1.30339e-21)
(2.34669e-05 -0.00122083 1.63774e-21)
(1.8549e-05 -0.00124004 -1.3636e-21)
(1.43811e-05 -0.00125777 -1.75681e-21)
(1.08967e-05 -0.00127394 -3.90813e-22)
(8.05331e-06 -0.00128844 2.13776e-22)
(5.77766e-06 -0.00130119 0)
(4.01121e-06 -0.00131213 4.4657e-22)
(2.67309e-06 -0.00132117 6.67121e-22)
(1.69016e-06 -0.00132826 3.15336e-22)
(9.74564e-07 -0.00133336 -2.28664e-25)
(4.41792e-07 -0.00133644 -8.79434e-23)
(0 -0.00133739 0)
(0 -0.00133728 0)
(0 -0.00133712 0)
(0 -0.00133691 0)
(0 -0.00133667 0)
(0 -0.00133639 0)
(0 -0.00133607 0)
(0 -0.00133572 0)
(0 -0.00133533 0)
(0 -0.00133491 0)
(0 -0.00133446 0)
(0 -0.00133398 0)
(0 -0.00133348 0)
(0 -0.00133295 0)
(0 -0.00133239 0)
(0 -0.00133182 0)
(0 -0.00133122 0)
(0 -0.0013306 0)
(0 -0.00132996 0)
(0 -0.00132931 0)
(0 -0.00132863 0)
(0 -0.00132795 0)
(0 -0.00132724 0)
(0 -0.00132653 0)
(0 -0.0013258 0)
(0 -0.00132506 0)
(0 -0.00132431 0)
(0 -0.00132355 0)
(0 -0.00132278 0)
(0 -0.00132201 0)
(0 -0.00132123 0)
(0 -0.00132044 0)
(0 -0.00131964 0)
(0 -0.00131884 0)
(0 -0.00131804 0)
(0 -0.00131724 0)
(0 -0.00131643 0)
(0 -0.00131562 0)
(0 -0.00131481 0)
(0 -0.00131399 0)
(0 -0.00131318 0)
(0 -0.00131237 0)
(0 -0.00131156 0)
(0 -0.00131076 0)
(0 -0.00130995 0)
(0 -0.00130915 0)
(0 -0.00130835 0)
(0 -0.00130756 0)
(0 -0.00130677 0)
(0 -0.00130599 0)
(0 -0.00130521 0)
(0 -0.00130444 0)
(0 -0.00130367 0)
(0 -0.00130291 0)
(0 -0.00130216 0)
(0 -0.00130142 0)
(0 -0.00130068 0)
(0 -0.00129996 0)
(0 -0.00129924 0)
(0 -0.00129853 0)
(0 -0.00129783 0)
(0 -0.00129713 0)
(0 -0.00129645 0)
(0 -0.00129578 0)
(0 -0.00129511 0)
(0 -0.00129446 0)
(0 -0.00129381 0)
(0 -0.00129317 0)
(0 -0.00129255 0)
(0 -0.00129192 0)
(0 -0.00129131 0)
(0 -0.0012907 0)
(0 -0.0012901 0)
(0 -0.00128951 0)
(0 -0.00128891 0)
(0 -0.00128832 0)
(0 -0.00128773 0)
(0 -0.00128713 0)
(0 -0.00128653 0)
(0 -0.00128466 0)
(0 -0.00128332 0)
(0 -0.00128166 0)
(0 -0.00127943 0)
(0 -0.00127652 0)
(0 -0.00127276 0)
(0 -0.00126803 0)
(0 -0.0012622 0)
(0 -0.00125512 0)
(0 -0.0012467 0)
(0 -0.00123681 0)
(0 -0.00122538 0)
(0 -0.00121233 0)
(0 -0.00119757 0)
(0 -0.00118106 0)
(0 -0.00116275 0)
(0 -0.00114261 0)
(0 -0.00112062 0)
(0 -0.00109672 0)
(0 -0.00107094 0)
(0 -0.00104324 0)
(0 -0.00101361 0)
(0 -0.000982058 0)
(0 -0.000948581 0)
(0 -0.000913168 0)
(0 -0.000875851 0)
(0 -0.00083662 0)
(0 -0.000795509 0)
(0 -0.000752535 0)
(0 -0.00070775 0)
(0 -0.000661188 0)
(0 -0.00061292 0)
(0 -0.000563016 0)
(0 -0.000511584 0)
(0 -0.000458731 0)
(0 -0.000404595 0)
(0 -0.000349337 0)
(0 -0.000293136 0)
(0 -0.000236185 0)
(0.00114866 -0.000266596 0)
(0.00115995 -0.000248234 0)
(0.00117119 -0.000230723 0)
(0.00118231 -0.000214297 0)
(0.00119336 -0.000198801 0)
(0.0012043 -0.000184247 0)
(0.00121515 -0.000170619 0)
(0.00122589 -0.000157847 0)
(0.00123653 -0.000145959 0)
(0.00124707 -0.000134845 0)
(0.0012575 -0.000124553 0)
(0.00126784 -0.000114965 0)
(0.00127807 -0.00010613 0)
(0.00128821 -9.79378e-05 0)
(0.00129825 -9.04212e-05 0)
(0.00130821 -8.34926e-05 0)
(0.00131808 -7.71666e-05 0)
(0.00132787 -7.13707e-05 0)
(0.00133758 -6.61114e-05 0)
(0.00134723 -6.13272e-05 0)
(0.00135681 -5.70186e-05 0)
(0.00136633 -5.31335e-05 0)
(0.0013758 -4.96675e-05 0)
(0.00138521 -4.6577e-05 0)
(0.00139457 -4.38537e-05 0)
(0.0014039 -4.14611e-05 0)
(0.00141318 -3.93878e-05 0)
(0.00142243 -3.76038e-05 0)
(0.00143164 -3.60963e-05 0)
(0.00144083 -3.4839e-05 0)
(0.00144999 -3.38211e-05 0)
(0.00145913 -3.30144e-05 0)
(0.00146826 -3.2409e-05 0)
(0.00147737 -3.19841e-05 0)
(0.00148646 -3.17266e-05 0)
(0.00149554 -3.16195e-05 0)
(0.00150462 -3.16494e-05 0)
(0.00151368 -3.18011e-05 0)
(0.00152274 -3.20621e-05 0)
(0.0015318 -3.24184e-05 0)
(0.00154085 -3.28579e-05 0)
(0.0015499 -3.33694e-05 0)
(0.00155895 -3.39394e-05 0)
(0.001568 -3.45577e-05 0)
(0.00157705 -3.52125e-05 0)
(0.0015861 -3.58941e-05 0)
(0.00159515 -3.6593e-05 0)
(0.0016042 -3.72983e-05 0)
(0.00161325 -3.80011e-05 0)
(0.0016223 -3.86915e-05 0)
(0.00163135 -3.93611e-05 0)
(0.0016404 -4.00006e-05 0)
(0.00164944 -4.06019e-05 0)
(0.00165849 -4.11559e-05 0)
(0.00166754 -4.16553e-05 0)
(0.00167658 -4.20908e-05 0)
(0.00168561 -4.24556e-05 0)
(0.00169465 -4.27403e-05 0)
(0.00170367 -4.29387e-05 0)
(0.00171269 -4.30411e-05 0)
(0.0017217 -4.30413e-05 0)
(0.0017307 -4.29292e-05 0)
(0.0017397 -4.26992e-05 0)
(0.00174868 -4.23401e-05 0)
(0.00175764 -4.18466e-05 0)
(0.0017666 -4.12064e-05 0)
(0.00177554 -4.0414e-05 0)
(0.00178446 -3.94565e-05 0)
(0.00179337 -3.83261e-05 0)
(0.00180227 -3.70073e-05 0)
(0.00181115 -3.54987e-05 0)
(0.00182001 -3.37795e-05 0)
(0.00182886 -3.18415e-05 0)
(0.00183769 -2.96662e-05 0)
(0.00184651 -2.7243e-05 0)
(0.00185532 -2.45513e-05 0)
(0.00186411 -2.15762e-05 0)
(0.00187289 -1.82962e-05 0)
(0.00188167 -1.46897e-05 0)
(0.00112343 -0.000290779 0)
(0.0011151 -0.00029327 0)
(0.00110675 -0.000295792 0)
(0.0010984 -0.000298316 0)
(0.00109004 -0.000300867 0)
(0.00108167 -0.000303425 0)
(0.00107329 -0.000306007 0)
(0.00106491 -0.000308601 0)
(0.00105653 -0.000311216 0)
(0.00104814 -0.000313845 0)
(0.00103975 -0.000316494 0)
(0.00103136 -0.000319157 0)
(0.00102298 -0.000321841 0)
(0.00101458 -0.00032454 0)
(0.00100617 -0.000327251 0)
(0.000997778 -0.000329983 0)
(0.000989384 -0.000332723 0)
(0.000981006 -0.000335478 0)
(0.000972626 -0.000338247 0)
(0.00096426 -0.000341027 0)
(0.000955896 -0.000343822 0)
(0.000947541 -0.000346628 0)
(0.000939197 -0.000349449 0)
(0.000930852 -0.000352281 0)
(0.000922531 -0.000355129 0)
(0.00091419 -0.000357987 0)
(0.000905851 -0.000360853 0)
(0.000897536 -0.000363732 0)
(0.000889221 -0.000366622 0)
(0.000880925 -0.000369522 0)
(0.000872632 -0.000372435 0)
(0.000864353 -0.000375355 0)
(0.00085608 -0.000378289 0)
(0.000847818 -0.00038123 0)
(0.000839564 -0.000384185 0)
(0.000831321 -0.000387147 0)
(0.000823086 -0.000390122 0)
(0.000814861 -0.000393105 0)
(0.000806646 -0.000396102 0)
(0.000798442 -0.000399106 0)
(0.000790246 -0.000402124 0)
(0.000782065 -0.00040515 0)
(0.000773888 -0.00040819 0)
(0.000765733 -0.000411241 0)
(0.000757569 -0.000414305 0)
(0.000749415 -0.000417374 0)
(0.00074128 -0.000420458 0)
(0.000733153 -0.000423553 0)
(0.000725043 -0.000426659 0)
(0.000716941 -0.000429777 0)
(0.000708855 -0.000432907 0)
(0.000700777 -0.000436049 0)
(0.000692712 -0.000439203 0)
(0.000684657 -0.00044237 0)
(0.000676615 -0.00044555 0)
(0.000668581 -0.000448744 0)
(0.000660559 -0.000451951 0)
(0.000652546 -0.000455173 0)
(0.000644542 -0.00045841 0)
(0.000636547 -0.000461663 0)
(0.000628559 -0.000464933 0)
(0.000620579 -0.000468219 0)
(0.000612605 -0.000471525 0)
(0.000604636 -0.000474849 0)
(0.000596671 -0.000478194 0)
(0.00058871 -0.000481559 0)
(0.00058075 -0.000484949 0)
(0.000572791 -0.00048836 0)
(0.00056483 -0.000491798 0)
(0.000556869 -0.00049526 0)
(0.000548902 -0.000498751 0)
(0.000540931 -0.000502267 0)
(0.000532953 -0.000505814 0)
(0.000524963 -0.000509384 0)
(0.000516967 -0.000512987 0)
(0.000508947 -0.000516609 0)
(0.000500928 -0.000520257 0)
(0.000492928 -0.000523942 0)
(0.000485035 -0.000527729 0)
(8.40447e-05 -0.000181909 4.84065e-20)
(0.000167121 -0.00019148 -1.32731e-20)
(0.000248343 -0.000207242 -4.49182e-20)
(0.000326953 -0.000228859 -1.72252e-20)
(0.00040238 -0.00025586 9.46565e-21)
(0.000474318 -0.000287637 -4.92955e-21)
(0.000542717 -0.000323379 -1.3541e-20)
(0.000607713 -0.000362282 3.22826e-21)
(0.000669564 -0.000403571 2.4425e-20)
(0.000728542 -0.000446554 1.59741e-20)
(0.000784756 -0.000490701 1.10134e-20)
(0.000838168 -0.000535476 1.91247e-20)
(0.000888516 -0.000580278 -2.51966e-23)
(0.000935363 -0.000624193 9.28605e-21)
(0.000978192 -0.000665771 3.5028e-21)
(0.0010165 -0.000703407 -1.08551e-20)
(0.00104997 -0.000735635 -1.6444e-20)
(0.0010782 -0.000760573 -2.00508e-20)
(0.0011006 -0.000775528 -2.71657e-21)
(0.00111709 -0.000778657 1.04926e-20)
(0.00112896 -0.000771259 3.19682e-21)
(0.00113843 -0.000757573 -7.48863e-21)
(0.00114755 -0.000741812 -6.40904e-21)
(0.00115733 -0.000725932 -2.21195e-21)
(0.00116768 -0.000710222 -4.50158e-21)
(0.00117847 -0.000694673 3.96568e-21)
(0.00118963 -0.000679254 6.79001e-21)
(0.00120106 -0.000663945 1.95233e-23)
(0.00121271 -0.000648731 -1.45854e-22)
(0.00122452 -0.000633608 -4.18097e-21)
(0.00123644 -0.000618565 -4.21449e-21)
(0.00124842 -0.000603609 2.22667e-21)
(0.00126043 -0.000588734 4.31765e-21)
(0.00127242 -0.000573947 4.31144e-21)
(0.00128438 -0.000559248 6.32004e-21)
(0.00129627 -0.000544643 1.99636e-21)
(0.00130807 -0.000530136 -6.34733e-21)
(0.00131975 -0.000515728 -2.20269e-21)
(0.00133131 -0.000501429 1.70531e-21)
(0.00135395 -0.000473155 -3.99733e-22)
(0.00136501 -0.000459184 -2.2919e-21)
(0.00137588 -0.000445337 -6.34767e-23)
(0.00138654 -0.0004316 -2.62166e-21)
(0.001397 -0.000417989 -7.40427e-21)
(0.00140723 -0.000404491 5.08799e-22)
(0.00141723 -0.000391118 2.20752e-21)
(0.00142698 -0.000377863 -1.0408e-21)
(0.0014365 -0.000364729 2.46432e-21)
(0.00144576 -0.00035171 2.09039e-21)
(0.00145477 -0.00033881 1.59094e-21)
(0.00146351 -0.00032602 2.66784e-21)
(0.00147198 -0.000313345 5.80535e-22)
(0.00148019 -0.000300776 -4.32788e-21)
(0.00148811 -0.000288315 -2.76846e-21)
(0.00149575 -0.000275956 5.69421e-21)
(0.00150311 -0.000263697 5.9348e-21)
(0.00151018 -0.000251534 1.09543e-22)
(0.00151695 -0.000239463 -2.3933e-21)
(0.00152344 -0.000227481 -2.97635e-21)
(0.00152962 -0.000215583 -1.12824e-21)
(0.0015355 -0.000203766 -1.63309e-23)
(0.00154108 -0.000192025 -6.72145e-22)
(0.00154636 -0.000180357 2.16782e-22)
(0.00155132 -0.000168755 -1.34705e-21)
(0.00155598 -0.000157219 -3.99693e-21)
(0.00156032 -0.000145741 5.23177e-22)
(0.00156435 -0.000134318 3.59753e-21)
(0.00156806 -0.000122946 1.27048e-21)
(0.00157146 -0.000111621 1.40492e-21)
(0.00157453 -0.000100339 -7.66018e-22)
(0.00157729 -8.90952e-05 -4.42399e-22)
(0.00157973 -7.78842e-05 3.07425e-21)
(0.00158184 -6.67039e-05 1.85541e-21)
(0.00158363 -5.55476e-05 -9.20312e-22)
(0.00158509 -4.44134e-05 -2.62303e-21)
(0.00158623 -3.3295e-05 -2.93452e-21)
(0.00158705 -2.21899e-05 -1.12372e-21)
(0.00158753 -1.10928e-05 8.37661e-22)
(0.0013351 -0.000478902 0)
(0.0013277 -0.000470867 0)
(0.0013205 -0.000463117 0)
(0.00131349 -0.000455626 0)
(0.00130665 -0.000448386 0)
(0.00129997 -0.00044138 0)
(0.00129344 -0.000434597 0)
(0.00128705 -0.000428027 0)
(0.0012808 -0.000421658 0)
(0.00127468 -0.000415483 0)
(0.00126869 -0.00040949 0)
(0.00126281 -0.000403674 0)
(0.00125704 -0.000398024 0)
(0.00125138 -0.000392537 0)
(0.00124582 -0.000387202 0)
(0.00124037 -0.000382015 0)
(0.00123501 -0.00037697 0)
(0.00122975 -0.000372059 0)
(0.00122458 -0.00036728 0)
(0.0012195 -0.000362624 0)
(0.00121451 -0.000358089 0)
(0.0012096 -0.000353668 0)
(0.00120478 -0.000349359 0)
(0.00120004 -0.000345155 0)
(0.00119537 -0.000341053 0)
(0.00119079 -0.000337049 0)
(0.00118629 -0.000333139 0)
(0.00118186 -0.000329319 0)
(0.0011775 -0.000325585 0)
(0.00117322 -0.000321936 0)
(0.00116901 -0.000318366 0)
(0.00116488 -0.000314874 0)
(0.0011608 -0.000311455 0)
(0.00115681 -0.00030811 0)
(0.00115288 -0.000304832 0)
(0.00114903 -0.000301624 0)
(0.00114522 -0.00029848 0)
(0.00114152 -0.000295403 0)
(0.00113785 -0.000292392 0)
(0.0013351 -0.000478902 0)
(0.0013277 -0.000470867 0)
(0.0013205 -0.000463117 0)
(0.00131349 -0.000455626 0)
(0.00130665 -0.000448386 0)
(0.00129997 -0.00044138 0)
(0.00129344 -0.000434597 0)
(0.00128705 -0.000428027 0)
(0.0012808 -0.000421658 0)
(0.00127468 -0.000415483 0)
(0.00126869 -0.00040949 0)
(0.00126281 -0.000403674 0)
(0.00125704 -0.000398024 0)
(0.00125138 -0.000392537 0)
(0.00124582 -0.000387202 0)
(0.00124037 -0.000382015 0)
(0.00123501 -0.00037697 0)
(0.00122975 -0.000372059 0)
(0.00122458 -0.00036728 0)
(0.0012195 -0.000362624 0)
(0.00121451 -0.000358089 0)
(0.0012096 -0.000353668 0)
(0.00120478 -0.000349359 0)
(0.00120004 -0.000345155 0)
(0.00119537 -0.000341053 0)
(0.00119079 -0.000337049 0)
(0.00118629 -0.000333139 0)
(0.00118186 -0.000329319 0)
(0.0011775 -0.000325585 0)
(0.00117322 -0.000321936 0)
(0.00116901 -0.000318366 0)
(0.00116488 -0.000314874 0)
(0.0011608 -0.000311455 0)
(0.00115681 -0.00030811 0)
(0.00115288 -0.000304832 0)
(0.00114903 -0.000301624 0)
(0.00114522 -0.00029848 0)
(0.00114152 -0.000295403 0)
(0.00113785 -0.000292392 0)
(0.00111154 -0.000306958 0)
(0.00108974 -0.000323675 0)
(0.00106781 -0.000340916 0)
(0.00104557 -0.000358811 0)
(0.00102316 -0.000377242 0)
(0.00100046 -0.000396319 0)
(0.000977576 -0.000415952 0)
(0.000954424 -0.000436217 0)
(0.000931072 -0.000457053 0)
(0.00090746 -0.000478503 0)
(0.000883638 -0.000500526 0)
(0.000859552 -0.000523144 0)
(0.000835253 -0.000546308 0)
(0.000810678 -0.000570039 0)
(0.000785875 -0.000594241 0)
(0.000760823 -0.000618919 0)
(0.000735468 -0.000643967 0)
(0.000709988 -0.000669098 0)
(0.000684274 -0.000694421 0)
(0.000657513 -0.000720684 0)
(0.000628693 -0.000749006 0)
(0.000597034 -0.000780305 0)
(0.0005624 -0.000814908 0)
(0.000525384 -0.000852336 0)
(0.000486891 -0.000891612 0)
(0.000447728 -0.000931752 0)
(0.000408489 -0.000972028 0)
(0.000369647 -0.00101178 0)
(0.000331593 -0.00105039 0)
(0.00029466 -0.00108727 0)
(0.000259135 -0.00112191 0)
(0.000225208 -0.00115384 0)
(0.000192983 -0.00118274 0)
(0.00016243 -0.00120836 0)
(0.000133395 -0.00123059 0)
(0.000105614 -0.00124936 0)
(7.86948e-05 -0.00126462 0)
(5.22284e-05 -0.0012761 0)
(2.60353e-05 -0.0012833 0)
(0 -0.00128466 0)
(0 -0.00128332 0)
(0 -0.00128166 0)
(0 -0.00127943 0)
(0 -0.00127652 0)
(0 -0.00127276 0)
(0 -0.00126803 0)
(0 -0.0012622 0)
(0 -0.00125512 0)
(0 -0.0012467 0)
(0 -0.00123681 0)
(0 -0.00122538 0)
(0 -0.00121233 0)
(0 -0.00119757 0)
(0 -0.00118106 0)
(0 -0.00116275 0)
(0 -0.00114261 0)
(0 -0.00112062 0)
(0 -0.00109672 0)
(0 -0.00107094 0)
(0 -0.00104324 0)
(0 -0.00101361 0)
(0 -0.000982058 0)
(0 -0.000948581 0)
(0 -0.000913168 0)
(0 -0.000875851 0)
(0 -0.00083662 0)
(0 -0.000795509 0)
(0 -0.000752535 0)
(0 -0.00070775 0)
(0 -0.000661188 0)
(0 -0.00061292 0)
(0 -0.000563016 0)
(0 -0.000511584 0)
(0 -0.000458731 0)
(0 -0.000404595 0)
(0 -0.000349337 0)
(0 -0.000293136 0)
(0 -0.000236185 0)
(8.40447e-05 -0.000181909 4.84065e-20)
(0.000167121 -0.00019148 -1.32731e-20)
(0.000248343 -0.000207242 -4.49182e-20)
(0.000326953 -0.000228859 -1.72252e-20)
(0.00040238 -0.00025586 9.46565e-21)
(0.000474318 -0.000287637 -4.92955e-21)
(0.000542717 -0.000323379 -1.3541e-20)
(0.000607713 -0.000362282 3.22826e-21)
(0.000669564 -0.000403571 2.4425e-20)
(0.000728542 -0.000446554 1.59741e-20)
(0.000784756 -0.000490701 1.10134e-20)
(0.000838168 -0.000535476 1.91247e-20)
(0.000888516 -0.000580278 -2.51966e-23)
(0.000935363 -0.000624193 9.28605e-21)
(0.000978192 -0.000665771 3.5028e-21)
(0.0010165 -0.000703407 -1.08551e-20)
(0.00104997 -0.000735635 -1.6444e-20)
(0.0010782 -0.000760573 -2.00508e-20)
(0.0011006 -0.000775528 -2.71657e-21)
(0.00111709 -0.000778657 1.04926e-20)
(0.00112896 -0.000771259 3.19682e-21)
(0.00113843 -0.000757573 -7.48863e-21)
(0.00114755 -0.000741812 -6.40904e-21)
(0.00115733 -0.000725932 -2.21195e-21)
(0.00116768 -0.000710222 -4.50158e-21)
(0.00117847 -0.000694673 3.96568e-21)
(0.00118963 -0.000679254 6.79001e-21)
(0.00120106 -0.000663945 1.95233e-23)
(0.00121271 -0.000648731 -1.45854e-22)
(0.00122452 -0.000633608 -4.18097e-21)
(0.00123644 -0.000618565 -4.21449e-21)
(0.00124842 -0.000603609 2.22667e-21)
(0.00126043 -0.000588734 4.31765e-21)
(0.00127242 -0.000573947 4.31144e-21)
(0.00128438 -0.000559248 6.32004e-21)
(0.00129627 -0.000544643 1.99636e-21)
(0.00130807 -0.000530136 -6.34733e-21)
(0.00131975 -0.000515728 -2.20269e-21)
(0.00133131 -0.000501429 1.70531e-21)
(0.00135395 -0.000473155 -3.99733e-22)
(0.00136501 -0.000459184 -2.2919e-21)
(0.00137588 -0.000445337 -6.34767e-23)
(0.00138654 -0.0004316 -2.62166e-21)
(0.001397 -0.000417989 -7.40427e-21)
(0.00140723 -0.000404491 5.08799e-22)