/*--------------------------------*- C++ -*----------------------------------*\
| =========                 |                                                 |
| \\      /  F ield         | OpenFOAM: The Open Source CFD Toolbox           |
|  \\    /   O peration     | Version:  v2012                                 |
|   \\  /    A nd           | Website:  www.openfoam.com                      |
|    \\/     M anipulation  |                                                 |
\*---------------------------------------------------------------------------*/
FoamFile
{
    version     2.0;
    format      ascii;
    class       volVectorField;
    location    "16";
    object      D_0;
}
// * * * * * * * * * * * * * * * * * * * * * * * * * * * * * * * * * * * * * //

dimensions      [0 1 0 0 0 0 0];


internalField   nonuniform List<vector> 
1896
(
(0.00245605 -1.45397e-05 0)
(0.00229022 -0.000122943 0)
(0.00241838 -5.21838e-06 0)
(0.00086783 -0.000856258 0)
(0.00242971 -1.47035e-05 0)
(0.002411 -1.64644e-05 0)
(0.00077804 -0.000908605 0)
(0.00228232 -1.57395e-05 0)
(0.00177344 -0.0001268 0)
(0.00227642 -1.03111e-05 0)
(0.00248591 -1.87672e-06 0)
(0.00206452 -7.02919e-06 0)
(0.00212054 -3.77837e-06 0)
(0.00207795 -4.75056e-06 0)
(0.000870838 -0.00076838 0)
(0.000194097 -0.00128569 0)
(0.00204128 -0.000160798 0)
(0.000891362 -0.00107524 0)
(0.0019265 -0.000134395 0)
(0.00153257 -0.000635453 0)
(0.00197856 -0.00016634 0)
(0.0022472 -8.62366e-05 0)
(0.00107681 -0.000387348 0)
(0.00102165 -0.000424113 0)
(0.00222302 -0.000127693 0)
(0.00224489 -0.000120645 0)
(0.00212351 -2.11467e-06 0)
(0.00214767 -3.05418e-06 0)
(0.00246834 -1.20114e-05 0)
(0.00175022 -0.0001292 0)
(0.00178134 -0.000122071 0)
(0.00227706 -0.000154488 0)
(0.00205292 -9.87343e-06 0)
(0.00229373 -0.000128155 0)
(0.00140042 -0.000273407 0)
(0.0025024 -9.89335e-06 0)
(0.00183016 -0.000119133 0)
(0.00238621 -6.87378e-05 0)
(0.000766681 -0.00111811 0)
(0.00170451 -0.00013283 0)
(0.00225529 -0.000178673 0)
(0.00130312 -0.000734511 0)
(0.0018562 -6.69394e-05 0)
(0.00131556 -0.000405619 0)
(0.00214555 -1.99404e-06 0)
(0.00213351 -9.60349e-07 0)
(0.000793955 -0.000837617 0)
(0.00248551 -5.16375e-06 0)
(0.00117483 -0.00042889 0)
(0.000652045 -0.000887215 0)
(0.00241075 -7.79991e-06 0)
(0.00233198 -1.75245e-05 0)
(0.00231645 -1.63864e-05 0)
(0.00225612 -8.86814e-05 0)
(0.00174342 -0.000130331 0)
(0.00214147 -0.000195616 0)
(0.00153928 -0.000212377 0)
(0.00248785 -1.39553e-05 0)
(0.00243002 -4.91704e-05 0)
(0.00181938 -0.000212888 0)
(0.00228869 -1.28846e-05 0)
(0.000716129 -0.000827636 0)
(0.00073897 -0.000777616 0)
(0.00234669 -3.71186e-05 0)
(0.00159256 -0.000638811 0)
(0.00225688 -0.000172225 0)
(0.00125404 -0.000293472 0)
(0.00200116 -1.63514e-05 0)
(0.00236834 -6.47219e-05 0)
(0.00121521 -0.000315384 0)
(0.00208353 -2.80708e-06 0)
(0.00085622 -0.000668387 0)
(0.00236887 -6.81468e-05 0)
(0.00215913 -0.000197031 0)
(0.0013644 -0.000291581 0)
(0.00226599 -0.000119645 0)
(0.00226607 -0.000127138 0)
(0.00240656 -3.55654e-05 0)
(0.00239106 -3.98181e-05 0)
(0.00210312 -6.6905e-05 0)
(0.00136392 -0.000722272 0)
(0.00110025 -0.000374968 0)
(0.00219389 -3.24024e-06 0)
(0.002205 -1.6534e-05 0)
(0.00221729 -1.47549e-05 0)
(0.00203421 -9.71322e-05 0)
(0.00203506 -2.63681e-05 0)
(0.00203528 -2.32692e-05 0)
(0.00160288 -0.000194349 0)
(0.00192196 -4.27573e-05 0)
(0.00211199 -4.01545e-05 0)
(0.000252384 -0.000635509 0)
(0.00187993 -6.59431e-05 0)
(0.00109409 -0.000884623 0)
(0.000978738 -0.000447848 0)
(0.00223066 -0.000107237 0)
(0.00238438 -8.91374e-05 0)
(0.00253438 -2.37296e-06 0)
(0.00237543 -0.000103788 0)
(0.00193497 -3.06443e-05 0)
(0.00192528 -3.48668e-05 0)
(0.00200036 -1.68442e-05 0)
(0.00234479 -3.3912e-05 0)
(0.00185545 -6.95151e-05 0)
(0.00172551 -0.0001062 0)
(0.00187695 -5.84552e-05 0)
(0.00205585 -9.63714e-05 0)
(0.00122681 -0.000525387 0)
(0.00122923 -0.000311378 0)
(8.28824e-05 -0.000723546 0)
(0.00253737 -1.49566e-06 0)
(0.00239019 -9.37144e-05 0)
(0.00136271 -0.000241934 0)
(0.00155918 -0.000192472 0)
(0.00112609 -0.00105603 0)
(0.00201245 -3.08713e-05 0)
(0.00221453 -1.59265e-06 0)
(0.00203285 -3.88217e-05 0)
(0.00141504 -0.000492091 0)
(0.00179805 -0.000128305 0)
(0.00136491 -0.000504373 0)
(0.00177675 -0.00013563 0)
(0.00236617 -7.68748e-05 0)
(0.00219265 -8.59944e-06 0)
(0.00219387 -7.35556e-06 0)
(0.0016183 -0.000199515 0)
(0.00124086 -0.000486849 0)
(0.002265 -1.67881e-05 0)
(0.00191014 -0.000178422 0)
(0.00188412 -4.04492e-05 0)
(0.0018653 -4.66484e-05 0)
(0.0021076 -4.49123e-05 0)
(0.00132066 -0.000264165 0)
(0.00115909 -0.000864859 0)
(0.00194639 -0.000136132 0)
(0.000706935 -0.000781035 0)
(0.00107857 -0.000707375 0)
(0.00101048 -0.000760232 0)
(0.00228037 -0.000161125 0)
(0.00160513 -0.000143036 0)
(0.00232684 -7.68575e-05 0)
(0.00131665 -0.000354032 0)
(0.00168853 -0.000132126 0)
(0.000260646 -0.00141296 0)
(0.00217631 -2.92435e-05 0)
(0.00206922 -0.000125918 0)
(0.00209688 -0.000124224 0)
(0.0018897 -0.000174181 0)
(0.000976585 -0.000472722 0)
(0.00203465 -3.45339e-05 0)
(0.00212708 -4.34056e-06 0)
(0.00235897 -9.66332e-05 0)
(0.00231543 -7.62939e-05 0)
(0.0023325 -4.78483e-05 0)
(0.00230068 -4.89328e-05 0)
(0.00142755 -0.000238769 0)
(0.00220294 -1.69601e-06 0)
(0.00142907 -0.000246655 0)
(0.000968488 -0.00091611 0)
(0.00234517 -1.06039e-05 0)
(0.00234693 -1.54826e-05 0)
(0.00121824 -0.000340436 0)
(0.00175641 -0.000154858 0)
(0.00242019 -4.8023e-05 0)
(0.000242472 -0.00143771 0)
(0.00226245 -1.0783e-05 0)
(2.35685e-05 -0.00160117 0)
(0.00249322 -1.106e-05 0)
(0.00249967 -9.207e-06 0)
(0.00233634 -0.000107126 0)
(0.00233835 -0.000113045 0)
(0.00223559 -0.000169823 0)
(0.00203948 -1.07892e-05 0)
(0.0020478 -8.67737e-06 0)
(0.000971751 -0.000763542 0)
(0.000899043 -0.000806756 0)
(0.00108975 -0.000467539 0)
(0.00222711 -0.000113661 0)
(0.00249539 -3.55115e-06 0)
(0.00179279 -8.72466e-05 0)
(0.00204201 -1.23415e-05 0)
(0.00181638 -0.000190919 0)
(0.00234188 -4.98786e-05 0)
(0.00106742 -0.000467097 0)
(0.000910425 -0.000766138 0)
(0.000196749 -0.00147757 0)
(0.00196479 -2.81043e-05 0)
(0.000387889 -0.00121343 0)
(0.0020134 -4.29788e-05 0)
(0.00199577 -6.3129e-05 0)
(0.00109378 -0.000662835 0)
(0.00249524 -6.05825e-06 0)
(0.00136063 -0.000333427 0)
(0.000619435 -0.000708255 0)
(0.0014861 -0.000673896 0)
(0.00202109 -1.3468e-05 0)
(0.00187543 -6.68197e-05 0)
(0.00136585 -0.000369673 0)
(0.00203393 -1.04989e-05 0)
(0.00219391 -4.67011e-06 0)
(0.00202118 -2.1832e-05 0)
(0.00141577 -0.000662152 0)
(0.00248614 -7.75277e-06 0)
(0.00230925 -5.20323e-05 0)
(0.000451926 -0.00119537 0)
(0.00231438 -4.38834e-05 0)
(0.00122382 -0.000399439 0)
(0.00146826 -0.00021791 0)
(0.00202428 -2.00727e-05 0)
(0.00213863 -0.000189068 0)
(0.00125955 -0.000321449 0)
(0.00185194 -0.000121156 0)
(0.00213739 -0.000149996 0)
(0.00214418 -0.000156191 0)
(0.00206085 -8.79567e-06 0)
(0.00180821 -7.64224e-05 0)
(0.0014199 -0.000605154 0)
(0.00162521 -0.000210336 0)
(0.00166016 -0.000205588 0)
(0.00173665 -0.000124235 0)
(0.00198027 -7.86404e-05 0)
(0.00227801 -5.16332e-05 0)
(0.000776074 -0.000584222 0)
(0.00118653 -0.000335863 0)
(0.00240493 -7.7773e-05 0)
(0.00164045 -0.000131445 0)
(0.00111331 -0.000720223 0)
(0.00210837 -0.000108974 0)
(0.000120363 -0.00154143 0)
(0.0022979 -0.000143107 0)
(0.000104005 -0.00155366 0)
(0.00231798 -1.42535e-05 0)
(0.00233036 -1.08018e-05 0)
(0.00255163 4.14337e-07 0)
(0.00237022 -0.00012284 0)
(0.00228743 -2.76944e-05 0)
(0.00202012 -1.43297e-05 0)
(0.00133675 -0.000467148 0)
(0.000255407 -0.00142173 0)
(0.00184407 -0.000210614 0)
(0.00117736 -0.000693206 0)
(0.00119518 -0.00049904 0)
(0.00206029 -1.05961e-05 0)
(0.00031357 -0.0013742 0)
(0.00225677 -8.0633e-05 0)
(0.00204872 -8.69117e-06 0)
(0.00244983 -4.02365e-05 0)
(0.00206207 -6.67713e-06 0)
(0.00206984 -5.01735e-06 0)
(0.00150264 -0.000204785 0)
(0.00162009 -0.000363063 0)
(0.00182581 -7.41983e-05 0)
(0.00229516 -0.000137819 0)
(0.00252462 -2.49915e-06 0)
(0.00232368 -0.00014735 0)
(0.00222852 -6.2623e-05 0)
(0.00193659 -5.23554e-05 0)
(0.000318174 -0.00135423 0)
(0.000809274 -0.000723339 0)
(0.00140891 -0.000254334 0)
(0.00192915 -0.000191404 0)
(0.00195878 -0.000184099 0)
(0.00195129 -0.00016961 0)
(0.00204029 -1.63001e-05 0)
(0.00202212 -0.000169267 0)
(0.00168488 -0.000122657 0)
(3.44009e-05 -0.00160445 0)
(0.0019253 -3.46094e-05 0)
(0.00180296 -0.000202481 0)
(0.00224164 -5.80342e-05 0)
(0.00192604 -3.14757e-05 0)
(0.00205106 -1.37497e-05 0)
(0.000592653 -0.000741679 0)
(0.0020882 -3.42141e-06 0)
(0.00203882 -0.000150986 0)
(0.00196328 -4.14688e-05 0)
(0.00125612 -0.000292669 0)
(0.00247829 -2.1144e-05 0)
(0.00217661 -6.16657e-05 0)
(0.00246981 -2.41797e-06 0)
(0.00223498 -0.000175627 0)
(0.00144362 -0.00022059 0)
(0.00200353 -2.66676e-05 0)
(0.00227168 -0.000177842 0)
(0.00212426 -0.000103365 0)
(0.000247969 -0.00127815 0)
(0.00205119 -7.4303e-05 0)
(0.00201181 -3.50382e-05 0)
(0.00209499 -6.1896e-05 0)
(0.00249659 -8.29359e-07 0)
(0.000134801 -0.00135438 0)
(0.00190255 -0.000123477 0)
(0.00184596 -0.000107523 0)
(0.00202772 -7.98366e-05 0)
(5.32568e-05 -0.00154775 0)
(0.00208846 -8.58656e-07 0)
(0.000201195 -0.00122434 0)
(0.00200289 -2.55636e-05 0)
(0.000448479 -0.00123028 0)
(0.00192784 -0.000143143 0)
(0.000389507 -0.00125502 0)
(0.00183276 -0.000104708 0)
(0.000964305 -0.000489523 0)
(0.000760526 -0.000900171 0)
(0.00228013 -6.71064e-05 0)
(0.00222859 -3.07147e-05 0)
(0.00221202 -3.12822e-05 0)
(0.00202176 -1.90181e-05 0)
(0.00202296 -1.74851e-05 0)
(0.00219888 -5.94696e-05 0)
(0.00241018 -4.92269e-05 0)
(0.00193654 -4.25392e-05 0)
(0.00206286 -6.15866e-06 0)
(0.00251847 -5.2715e-06 0)
(0.00235471 -0.00011069 0)
(0.00189883 -0.000165734 0)
(0.00226498 -1.00742e-06 0)
(0.00238939 -6.30253e-05 0)
(0.0018066 -7.58124e-05 0)
(0.00239759 -4.82184e-05 0)
(0.00215917 -2.93574e-05 0)
(0.000488796 -0.000941413 0)
(0.000430835 -0.00100169 0)
(0.0017567 -7.99701e-05 0)
(0.0019799 -3.38356e-05 0)
(0.0019045 -5.30617e-05 0)
(0.00180935 -7.23001e-05 0)
(0.00201024 -1.8839e-05 0)
(0.00243418 -2.24699e-05 0)
(0.00231545 -0.000102327 0)
(0.00200145 -9.84157e-05 0)
(0.0019503 -0.000213215 0)
(0.00252623 -2.27777e-06 0)
(0.00233276 -0.000138481 0)
(0.00227929 -7.787e-06 0)
(0.00199725 -0.00012713 0)
(0.00204466 -1.0507e-05 0)
(0.000939699 -0.000491133 0)
(0.00243681 -2.05686e-05 0)
(0.00230533 -0.000108921 0)
(0.00167421 -0.000105957 0)
(0.00196293 -0.000143965 0)
(0.00170249 -0.000107335 0)
(0.00175204 -0.000101798 0)
(0.00214248 -5.40863e-06 0)
(0.00190022 -0.000143255 0)
(0.00190932 -0.000113178 0)
(0.00104928 -0.000920071 0)
(0.00197573 -2.73778e-05 0)
(0.00200183 -9.94457e-05 0)
(0.00199337 -5.03123e-05 0)
(0.00241856 -2.64322e-05 0)
(0.00160616 -0.000250313 0)
(0.00201204 -7.8854e-05 0)
(0.00199921 -0.00014948 0)
(0.00187609 -0.000144819 0)
(0.00175267 -0.000475535 0)
(0.000761192 -0.00103836 0)
(0.00198676 -3.30691e-05 0)
(0.00138291 -0.00045578 0)
(0.00161934 -0.000226654 0)
(7.80752e-05 -0.00154514 0)
(0.000725396 -0.00110464 0)
(0.00190047 -0.000173203 0)
(0.00228417 -0.000106022 0)
(0.00206068 -0.000142552 0)
(0.00152154 -0.000164629 0)
(0.00155246 -0.000153887 0)
(0.00202955 -5.58694e-05 0)
(5.99442e-05 -0.00159131 0)
(0.000758734 -0.000846003 0)
(0.00208838 -4.41003e-06 0)
(0.0025456 -4.83012e-07 0)
(0.0023561 -0.000132072 0)
(0.00228336 -0.000112876 0)
(0.00189358 -5.04434e-05 0)
(0.00105016 -0.00104937 0)
(0.00156028 -0.000216247 0)
(0.00206011 -2.92545e-05 0)
(0.00198554 -2.98206e-05 0)
(0.00202443 -1.98897e-05 0)
(0.00230215 -0.000156529 0)
(0.00194805 -8.57798e-05 0)
(0.00239085 -4.77953e-05 0)
(0.00191541 -4.51057e-05 0)
(0.00249454 -1.49178e-05 0)
(0.000579251 -0.00119133 0)
(0.00230086 -0.000101303 0)
(0.00251159 -2.2472e-06 0)
(0.000540407 -0.00119186 0)
(0.00225542 -1.86271e-05 0)
(0.00242516 -1.97479e-05 0)
(0.000350657 -0.000998107 0)
(0.00121933 -0.000941488 0)
(0.00228511 -3.33841e-05 0)
(0.00197506 -5.80565e-05 0)
(0.00174159 -0.000167371 0)
(0.00150724 -0.000180393 0)
(0.00221587 -7.62669e-05 0)
(0.00221542 -7.19242e-05 0)
(0.00201729 -6.30855e-05 0)
(7.5448e-05 -0.00156261 0)
(0.00192144 -0.00020114 0)
(0.0020816 -2.14484e-06 0)
(0.00173946 -0.000160217 0)
(0.00168001 -0.000228015 0)
(0.00208722 -7.31931e-05 0)
(0.0008078 -0.000568392 0)
(0.0020963 -2.56364e-06 0)
(0.000257856 -0.00115703 0)
(0.00177947 -7.08666e-05 0)
(0.00216615 -9.71332e-06 0)
(0.00215835 -8.57467e-06 0)
(0.000257335 -0.00138686 0)
(0.00152949 -0.000181914 0)
(0.00152935 -0.000188625 0)
(0.00227063 -4.78365e-05 0)
(0.000125687 -0.00142286 0)
(0.0017513 -7.94905e-05 0)
(0.00222781 -2.47085e-05 0)
(0.00167269 -0.000151143 0)
(0.00255177 1.32136e-07 0)
(0.00235014 -0.000146618 0)
(0.000965851 -0.000717592 0)
(0.001655 -0.000130916 0)
(0.00193726 -3.72636e-05 0)
(0.00195387 -8.71059e-05 0)
(0.00180004 -0.000223334 0)
(0.000878836 -0.000875564 0)
(0.000850774 -0.000927558 0)
(0.00185993 -0.000240207 0)
(0.00164064 -0.000249517 0)
(0.00178284 -7.36406e-05 0)
(0.0021515 -0.000119161 0)
(0.00158942 -0.000136189 0)
(0.00161208 -0.000127855 0)
(0.00222016 -0.000169818 0)
(0.000116336 -0.00135417 0)
(0.0015385 -0.000339135 0)
(0.0024117 -5.42005e-05 0)
(0.00157431 -0.000308121 0)
(0.00177405 -0.000184052 0)
(0.00228525 -4.38747e-05 0)
(0.000250294 -0.00143107 0)
(0.00253718 -7.26419e-07 0)
(0.00233438 -0.000149674 0)
(0.00219492 -3.97921e-05 0)
(0.0023033 -2.66991e-05 0)
(0.0025064 -9.84449e-06 0)
(0.00195226 -0.000185728 0)
(0.000617412 -0.000739609 0)
(0.00210252 -9.46097e-05 0)
(0.00210055 -8.82368e-05 0)
(0.00229941 -3.41094e-05 0)
(0.00206581 -7.58617e-05 0)
(0.00218083 -9.57331e-06 0)
(0.00228324 -4.07552e-05 0)
(0.0017012 -9.57327e-05 0)
(0.00189541 -0.000280031 0)
(0.0021217 -1.60024e-05 0)
(0.00121853 -0.000458881 0)
(0.00229027 -6.93888e-05 0)
(0.00159565 -0.000141858 0)
(0.00178517 -0.000141309 0)
(0.00188553 -0.000112099 0)
(0.000491854 -0.000900804 0)
(0.00157092 -0.00016316 0)
(0.00160013 -0.000157152 0)
(0.00244782 -5.73904e-06 0)
(0.00117608 -0.000990215 0)
(0.00239419 -2.60594e-05 0)
(0.00208027 -9.59834e-06 0)
(0.00208498 -0.000109607 0)
(0.00228017 -7.56543e-05 0)
(0.00234959 -8.00886e-05 0)
(0.00213644 -3.70414e-05 0)
(0.001781 -0.000105225 0)
(0.00204926 -8.47649e-06 0)
(0.00225073 -0.000101765 0)
(2.90051e-05 -0.00161639 0)
(0.00206198 -4.45054e-05 0)
(0.00229178 -6.84471e-06 0)
(0.00215637 -3.88187e-05 0)
(0.00237778 -2.89219e-05 0)
(0.00205894 -2.53623e-05 0)
(0.000801862 -0.000563652 0)
(0.00207688 -9.01925e-06 0)
(0.00176141 -0.000178188 0)
(0.00206708 -6.31849e-05 0)
(0.00184841 -0.000187471 0)
(0.00154037 -0.000166018 0)
(0.0020514 -6.72107e-05 0)
(0.0019073 -0.00018657 0)
(0.00249313 -1.47901e-05 0)
(0.000715023 -0.00103821 0)
(0.00104876 -0.000986932 0)
(0.00214634 -7.18871e-05 0)
(0.00210119 -0.000132204 0)
(0.00213104 -6.24367e-06 0)
(0.00202007 -0.000146782 0)
(0.00233458 -9.57864e-05 0)
(0.00214569 -8.29414e-05 0)
(0.00213538 -1.71271e-05 0)
(0.00120645 -0.000890337 0)
(0.00243743 -1.65641e-05 0)
(0.0020482 -2.72368e-05 0)
(0.00218433 -4.7368e-06 0)
(0.00125981 -0.000794343 0)
(0.00185964 -5.63726e-05 0)
(0.00170061 -0.000209789 0)
(0.00184487 -5.7744e-05 0)
(0.00169216 -0.000133989 0)
(0.00214225 -3.58097e-07 0)
(0.00240371 -2.75691e-05 0)
(8.61955e-05 -0.00149576 0)
(0.000315142 -0.00120216 0)
(0.00210751 -3.75118e-06 0)
(0.00213002 -7.1006e-05 0)
(0.00237393 -3.84642e-05 0)
(0.00236108 -3.91427e-05 0)
(0.00243795 -4.55649e-06 0)
(0.00235576 -9.17875e-05 0)
(0.000426924 -0.000927875 0)
(0.00235922 -1.70981e-05 0)
(0.000824325 -0.000584386 0)
(0.00196801 -2.38215e-05 0)
(0.00197974 -2.27225e-05 0)
(0.000838467 -0.000562264 0)
(0.00223879 -7.56779e-05 0)
(0.00225848 -7.02502e-05 0)
(0.00241784 -9.82781e-06 0)
(0.00229348 -5.75022e-05 0)
(0.00217465 -4.88303e-06 0)
(0.00180103 -0.000103147 0)
(0.00236334 -3.55072e-05 0)
(0.00216148 -6.8905e-06 0)
(0.00218412 -0.000188685 0)
(5.49457e-05 -0.00153965 0)
(0.00188219 -0.000331819 0)
(0.00143629 -0.000263749 0)
(0.00109421 -0.000995064 0)
(0.00206115 -5.06319e-06 0)
(0.00171401 -0.000108142 0)
(0.00214009 -2.1401e-05 0)
(0.00212986 -2.0419e-05 0)
(0.00189865 -3.93765e-05 0)
(0.00150365 -0.000290032 0)
(0.00206645 -1.17113e-05 0)
(0.00207927 -2.79388e-05 0)
(0.00221453 -3.83419e-05 0)
(0.00235005 -5.51494e-06 0)
(0.000986943 -0.000552949 0)
(0.00152529 -0.000162442 0)
(0.0017112 -0.000180844 0)
(0.00218274 -2.20163e-06 0)
(0.000248267 -0.00137643 0)
(0.00167443 -0.000191127 0)
(0.00142628 -0.000216711 0)
(0.00216816 -7.96433e-05 0)
(0.000315636 -0.0011225 0)
(0.000330341 -0.00104431 0)
(0.0021975 -6.98455e-05 0)
(0.00209671 -0.000182574 0)
(0.000353278 -0.00119358 0)
(0.00240234 -6.37567e-05 0)
(0.000245348 -0.00145743 0)
(0.00213434 -7.11747e-08 0)
(0.00206441 -0.000117999 0)
(0.00137914 -0.000593719 0)
(0.00204973 -3.8801e-05 0)
(0.00186576 -6.02674e-05 0)
(0.00205028 -8.06844e-06 0)
(0.00203941 -2.16619e-05 0)
(0.000934934 -0.00110502 0)
(0.00131575 -0.000621723 0)
(0.000858882 -0.000626479 0)
(0.00243678 -2.63875e-05 0)
(0.00176139 -7.71641e-05 0)
(0.00167462 -0.00021265 0)
(0.00228082 -3.11775e-05 0)
(0.00192348 -3.13779e-05 0)
(0.00138912 -0.000253377 0)
(0.00217813 -0.000116162 0)
(0.00191587 -5.15492e-05 0)
(0.00148238 -0.000190068 0)
(0.00154846 -0.000151486 0)
(0.002071 -3.49763e-06 0)
(0.00206036 -9.47821e-06 0)
(0.00203495 -3.62486e-05 0)
(0.00128097 -0.000390509 0)
(0.000832092 -0.000664775 0)
(0.000630138 -0.00104789 0)
(0.00149393 -0.000239672 0)
(0.00206119 -8.90742e-06 0)
(0.000578803 -0.00112092 0)
(0.00216698 -5.51796e-07 0)
(0.00217886 -7.27099e-05 0)
(0.00163566 -0.000144942 0)
(0.00143524 -0.000209256 0)
(0.00194122 -3.22698e-05 0)
(0.00175276 -0.000206328 0)
(0.000339328 -0.00124867 0)
(9.52854e-06 -0.00161973 0)
(9.56705e-05 -0.00151643 0)
(0.00115649 -0.000615579 0)
(0.000640172 -0.000938307 0)
(0.00144937 -0.000235964 0)
(0.00147723 -0.000232193 0)
(0.00225297 -1.50015e-06 0)
(0.00243709 -1.18648e-05 0)
(0.0022215 -4.56847e-05 0)
(0.00222113 -5.0037e-07 0)
(0.00222535 -2.04563e-05 0)
(0.000250015 -0.00143909 0)
(0.00203899 -2.49285e-05 0)
(0.00242585 -5.4442e-05 0)
(0.00205548 -1.53031e-05 0)
(0.000608751 -0.00111233 0)
(0.00144345 -0.000212141 0)
(0.00209954 -4.65835e-06 0)
(0.00205239 -9.7279e-06 0)
(0.00154122 -0.000224341 0)
(0.00185058 -5.3494e-05 0)
(0.000723986 -0.000665821 0)
(0.00202549 -4.62049e-05 0)
(0.00226401 -5.62927e-05 0)
(0.00066663 -0.000710634 0)
(0.000884884 -0.000701468 0)
(0.00202559 -1.25868e-05 0)
(0.00216979 -9.11782e-05 0)
(0.00207906 -3.7604e-06 0)
(0.000793033 -0.00113076 0)
(0.00199674 -0.000169625 0)
(0.00125575 -0.000290842 0)
(0.00153318 -0.000372442 0)
(0.0024018 -4.22476e-05 0)
(0.00238938 -4.33048e-05 0)
(0.00186374 -7.44416e-05 0)
(0.001226 -0.000305639 0)
(0.00192049 -6.30346e-05 0)
(0.00229323 -2.1443e-05 0)
(0.00229604 -1.83787e-05 0)
(0.000906385 -0.000704993 0)
(0.000677604 -0.000923027 0)
(0.00211311 -0.00018438 0)
(0.00165377 -0.000318193 0)
(0.00177211 -0.000165875 0)
(0.0024678 -1.03801e-05 0)
(0.000750926 -0.000723071 0)
(0.00209351 -0.000166677 0)
(0.00186178 -0.00017932 0)
(0.00212587 -1.41518e-05 0)
(0.00163669 -0.000237848 0)
(0.00173485 -0.00011633 0)
(0.000566429 -0.000833856 0)
(0.00220751 -4.92956e-05 0)
(0.00141251 -0.00035324 0)
(0.00180174 -6.42286e-05 0)
(0.00161733 -0.000286776 0)
(0.00145201 -0.000372899 0)
(0.00218979 -0.000158685 0)
(0.00231229 -0.000112532 0)
(0.00214026 -0.000114269 0)
(0.00151972 -0.000304896 0)
(0.00140927 -0.000384313 0)
(0.00139714 -0.000227119 0)
(0.00231302 -9.28413e-05 0)
(0.00243185 -9.87738e-06 0)
(0.00175138 -0.000113054 0)
(0.00192928 -0.000124347 0)
(0.00182073 -6.05592e-05 0)
(0.00217129 -3.63498e-05 0)
(0.00169072 -0.000120408 0)
(0.00165274 -0.000130591 0)
(0.00221369 -0.000104746 0)
(0.00019422 -0.00147372 0)
(0.000364156 -0.00105158 0)
(0.000557766 -0.00106281 0)
(0.00209544 -2.14871e-06 0)
(0.00224572 -2.88786e-05 0)
(0.00227785 -0.000138451 0)
(0.00204505 -0.000204161 0)
(2.74074e-05 -0.0015691 0)
(0.00197686 -4.31922e-05 0)
(0.00181555 -0.000104138 0)
(0.00182815 -9.33028e-05 0)
(0.00206822 -0.000199765 0)
(0.00240172 -1.56579e-05 0)
(0.00105918 -0.00041025 0)
(0.0019521 -9.80642e-05 0)
(0.00194078 -9.384e-05 0)
(0.0012673 -0.00030029 0)
(0.0020334 -0.000210909 0)
(0.000528832 -0.00107492 0)
(0.00221934 -0.000134447 0)
(0.00224815 -0.000135073 0)
(0.00218392 -0.000173264 0)
(0.00208199 -0.000101875 0)
(0.000670454 -0.000976746 0)
(0.00219571 -0.000177597 0)
(0.00252238 -5.20307e-06 0)
(0.00178641 -7.94376e-05 0)
(0.00198288 -0.00016649 0)
(0.00198455 -0.000156333 0)
(0.00180629 -6.89165e-05 0)
(0.00166609 -0.000118509 0)
(0.00215351 -9.50529e-05 0)
(0.00127992 -0.000303243 0)
(0.0021304 -1.28328e-06 0)
(0.00111095 -0.000588398 0)
(0.0015216 -0.0001639 0)
(0.00224321 -1.35048e-05 0)
(0.00154825 -0.000153083 0)
(0.00192827 -0.000208826 0)
(0.000424682 -0.00111362 0)
(0.0024088 -3.97297e-06 0)
(0.000336854 -0.00114177 0)
(0.000646069 -0.000983113 0)
(0.00145086 -0.000271571 0)
(0.00208359 -0.000205638 0)
(0.00214907 -4.44516e-05 0)
(0.00212994 -0.000166074 0)
(0.00044125 -0.000886254 0)
(0.00210055 -1.21935e-06 0)
(0.00114692 -0.000361474 0)
(0.00207664 -4.02767e-06 0)
(0.00255747 6.94513e-07 0)
(0.00236325 -0.000137582 0)
(0.00214747 -0.000181451 0)
(0.00113505 -0.000374628 0)
(0.00205239 -0.000134398 0)
(0.00215248 -9.08862e-07 0)
(0.00191656 -0.000245108 0)
(0.00216406 -1.55434e-06 0)
(0.000123548 -0.00147819 0)
(0.000730244 -0.000721514 0)
(0.00226843 -0.000106172 0)
(7.07056e-05 -0.00158321 0)
(0.00189364 -0.000104133 0)
(0.00206738 -6.09034e-06 0)
(0.00185816 -5.23045e-05 0)
(0.00156474 -0.000285655 0)
(0.00235417 -7.76894e-06 0)
(0.00212126 -6.68864e-07 0)
(0.00189612 -0.000204108 0)
(0.00242151 -2.82931e-05 0)
(0.0019045 -3.71208e-05 0)
(0.000508803 -0.00127574 0)
(0.00165933 -0.000123025 0)
(0.00236863 -4.78803e-05 0)
(0.00140606 -0.000239398 0)
(0.00192282 -6.51553e-05 0)
(0.00145887 -0.000208175 0)
(0.00207006 -0.000170456 0)
(0.0021768 -7.36507e-07 0)
(5.56743e-05 -0.00159261 0)
(0.00112718 -0.000545279 0)
(0.00233277 -8.81239e-05 0)
(0.00108489 -0.000386667 0)
(0.000397016 -0.00134261 0)
(0.00169028 -9.94385e-05 0)
(0.00108476 -0.00055669 0)
(0.00188479 -8.40358e-05 0)
(0.00211633 -1.34544e-06 0)
(0.00201408 -7.48691e-05 0)
(0.0014746 -0.000189544 0)
(0.00199991 -0.000105733 0)
(0.000996344 -0.000714659 0)
(0.000966299 -0.000584966 0)
(0.00170236 -0.000485292 0)
(0.0017443 -9.36818e-05 0)
(0.000860381 -0.000569798 0)
(0.00105895 -0.000634733 0)
(0.00172491 -9.62672e-05 0)
(0.00212869 -6.54909e-05 0)
(0.00176794 -7.94517e-05 0)
(0.0017782 -7.85794e-05 0)
(0.00200059 -1.69777e-05 0)
(0.00151606 -0.000256736 0)
(0.00199635 -1.74554e-05 0)
(0.00148269 -0.000182034 0)
(0.00146483 -0.000191648 0)
(0.000606883 -0.000913863 0)
(0.00224443 -3.59951e-05 0)
(0.00205346 -1.97458e-05 0)
(0.00222185 -6.61969e-06 0)
(0.00223169 -5.59038e-06 0)
(0.00231849 -6.93054e-05 0)
(0.000754386 -0.000977179 0)
(0.00191831 -3.53763e-05 0)
(0.000882333 -0.000529741 0)
(0.00145391 -0.000316549 0)
(0.0023567 -2.71261e-05 0)
(0.00167971 -0.000558692 0)
(0.00233692 -5.05119e-06 0)
(0.00225855 -3.43863e-05 0)
(0.00146896 -0.000185512 0)
(0.0017953 -6.73221e-05 0)
(0.00209903 -5.82714e-07 0)
(0.00218046 -3.3039e-05 0)
(0.00232557 -8.06489e-05 0)
(0.00213967 -3.33735e-05 0)
(0.00200242 -5.20947e-05 0)
(0.00236378 -5.11629e-05 0)
(0.00197392 -0.000103417 0)
(0.00248705 -1.48988e-05 0)
(0.00170496 -0.000120567 0)
(0.00161418 -0.000151605 0)
(0.00158134 -0.000163016 0)
(0.0020565 -9.21055e-06 0)
(0.00190908 -7.08717e-05 0)
(0.00215868 -2.66409e-06 0)
(0.00245605 -1.03388e-05 0)
(0.00211531 -0.000116885 0)
(0.00223829 -8.04004e-05 0)
(0.00065228 -0.00119854 0)
(0.0023812 -6.29376e-06 0)
(0.00183471 -6.41606e-05 0)
(0.0023383 -2.28657e-05 0)
(0.000685833 -0.000657944 0)
(0.00152273 -0.000199733 0)
(0.00197438 -3.19663e-05 0)
(0.00153644 -0.000186095 0)
(0.00031333 -0.00132742 0)
(0.00192638 -4.77164e-05 0)
(0.00226028 -2.83413e-05 0)
(0.00236918 -2.48444e-06 0)
(0.00225715 -0.00014495 0)
(0.0017098 -0.000221807 0)
(0.00183156 -0.00023865 0)
(0.00162601 -0.000565589 0)
(0.00213914 -3.58052e-06 0)
(0.000748079 -0.00063662 0)
(0.00215403 -4.75664e-06 0)
(0.00218774 -0.000120098 0)
(0.000131496 -0.00153147 0)
(0.00224839 -3.3596e-06 0)
(0.00215432 -0.000106434 0)
(0.0015678 -0.000220962 0)
(0.00202281 -4.76213e-05 0)
(0.00204384 -4.41023e-05 0)
(0.00220077 -0.000191446 0)
(0.00208114 -0.000141938 0)
(0.00217243 -0.000159659 0)
(0.00177585 -0.000207084 0)
(0.00232627 -6.43038e-05 0)
(0.00187745 -4.53357e-05 0)
(0.00245391 -2.05865e-05 0)
(0.000585697 -0.000796643 0)
(0.00206136 -6.93292e-06 0)
(0.00212202 -9.51819e-05 0)
(0.00213854 -9.14051e-05 0)
(0.00245235 -2.87061e-05 0)
(0.00191434 -3.90246e-05 0)
(0.00196983 -0.000187855 0)
(0.00207025 -3.66992e-06 0)
(0.0013 -0.000932376 0)
(0.00192299 -0.000205305 0)
(0.00194091 -0.000107437 0)
(0.00209516 -9.59242e-07 0)
(0.00214188 -0.000126444 0)
(0.000912784 -0.000584366 0)
(0.000863952 -0.000531637 0)
(0.000907062 -0.000498124 0)
(0.00207566 -0.000189652 0)
(0.00231791 -5.90932e-05 0)
(0.00241796 -4.25558e-05 0)
(0.00229904 -6.08203e-05 0)
(0.00144832 -0.000284189 0)
(0.00210789 -5.82002e-05 0)
(0.00212026 -0.000131452 0)
(0.00132792 -0.000255055 0)
(0.0019712 -0.000207394 0)
(0.0017216 -0.000199908 0)
(0.00189078 -7.69783e-05 0)
(0.0018659 -7.75206e-05 0)
(0.00216764 -1.49344e-05 0)
(0.000969308 -0.000841462 0)
(0.00234115 -8.95726e-05 0)
(0.00148173 -0.000744808 0)
(0.0018021 -0.00011154 0)
(0.001236 -0.000413277 0)
(0.00247211 -2.48016e-05 0)
(0.00169549 -9.91315e-05 0)
(0.00230388 -1.18398e-05 0)
(0.00221187 -2.62792e-05 0)
(0.000892037 -0.000504101 0)
(0.00203366 -3.47984e-05 0)
(0.0008686 -0.000518726 0)
(0.00186694 -0.000139143 0)
(0.00187494 -0.000130002 0)
(0.00100629 -0.000792772 0)
(0.00225674 -1.35535e-05 0)
(0.00254097 -1.03454e-06 0)
(0.00234941 -0.000119765 0)
(0.00236655 -0.000117428 0)
(0.0025235 -4.3575e-06 0)
(0.00177341 -0.000411936 0)
(0.00215495 -2.63541e-05 0)
(0.0024674 -2.39044e-05 0)
(0.00202503 -3.24971e-05 0)
(0.00200894 -3.90112e-05 0)
(0.00164433 -0.000387473 0)
(0.00148638 -0.000258719 0)
(0.000961333 -0.000553105 0)
(0.00192294 -0.000124411 0)
(0.001528 -0.000560572 0)
(0.00203922 -8.85144e-05 0)
(0.00169926 -0.000147102 0)
(0.00130654 -0.000277652 0)
(0.00149299 -0.000345328 0)
(0.00233386 -5.52051e-05 0)
(0.0015755 -0.000156322 0)
(0.00115309 -0.000379867 0)
(0.00035448 -0.00134074 0)
(0.00162587 -0.000163559 0)
(0.00162189 -0.000174913 0)
(0.00238139 -4.63873e-06 0)
(0.00117545 -0.000358678 0)
(0.00204581 -9.21322e-06 0)
(0.00235715 -2.5959e-06 0)
(3.79852e-05 -0.00158548 0)
(0.00127804 -0.000511874 0)
(0.00220053 -0.000152333 0)
(0.00195824 -0.000117533 0)
(0.00135243 -0.000426394 0)
(0.00198798 -2.46929e-05 0)
(0.0020088 -2.87584e-05 0)
(0.00212694 -4.59991e-05 0)
(0.00237946 -2.1652e-05 0)
(0.00182152 -0.000400371 0)
(0.000533895 -0.00111581 0)
(0.00205688 -0.000103801 0)
(0.00173378 -0.000140911 0)
(0.00199105 -4.64769e-05 0)
(0.00197969 -4.5201e-05 0)
(0.00246846 -6.35492e-06 0)
(0.00130412 -0.000443542 0)
(0.000166625 -0.00148369 0)
(9.21867e-05 -0.00156416 0)
(0.0017405 -0.000101197 0)
(0.00132842 -0.000252262 0)
(0.00175002 -0.000197394 0)
(0.00181316 -6.4797e-05 0)
(0.00190421 -3.82142e-05 0)
(0.00198674 -4.03973e-05 0)
(0.00181639 -8.4469e-05 0)
(0.00175704 -0.000148677 0)
(0.00134018 -0.000282221 0)
(0.00206569 -4.79716e-05 0)
(0.000770835 -0.00103085 0)
(0.00173806 -8.50371e-05 0)
(0.00138471 -0.000256616 0)
(0.00172149 -9.17043e-05 0)
(0.00138855 -0.000280327 0)
(0.00160838 -0.000234876 0)
(0.00208391 -6.69354e-06 0)
(0.00130697 -0.000290405 0)
(0.00207889 -7.90314e-06 0)
(0.00210593 -0.00017064 0)
(0.00183994 -8.81774e-05 0)
(0.00155802 -0.000155783 0)
(0.00233117 -2.61902e-05 0)
(0.000453447 -0.00126062 0)
(0.000461899 -0.00108911 0)
(0.00183084 -9.57988e-05 0)
(0.000916093 -0.000489964 0)
(0.00232886 -3.44751e-05 0)
(0.00236173 -2.97815e-05 0)
(0.00129345 -0.000273628 0)
(0.00248809 -9.76214e-06 0)
(0.00239715 -2.3865e-05 0)
(0.00119823 -0.000454818 0)
(0.00215401 -1.47039e-05 0)
(0.00204847 -1.9481e-05 0)
(0.00160503 -0.000226608 0)
(0.0022236 -9.80522e-05 0)
(0.0019729 -2.19491e-05 0)
(1.44216e-05 -0.00162415 0)
(0.00215579 -2.0498e-05 0)
(0.00193601 -0.000240006 0)
(0.00186005 -0.000219145 0)
(0.000507575 -0.00126247 0)
(0.00243049 -1.06889e-06 0)
(0.00173208 -0.000219049 0)
(0.00138657 -0.000836447 0)
(0.00198859 -9.5727e-05 0)
(0.00230677 -4.16698e-05 0)
(0.000459976 -0.0011334 0)
(0.000735086 -0.000975178 0)
(0.00176377 -0.000195064 0)
(0.00195149 -2.55821e-05 0)
(0.00182096 -0.000153777 0)
(0.00179524 -0.000157013 0)
(0.00211895 -0.000150971 0)
(0.00169355 -0.000156717 0)
(0.00131803 -0.000303024 0)
(0.00235224 -1.29432e-05 0)
(0.00186593 -4.66892e-05 0)
(0.00181723 -6.01513e-05 0)
(0.00102813 -0.000423246 0)
(0.00204207 -1.2294e-05 0)
(0.00178968 -6.79114e-05 0)
(0.00207123 -1.26396e-05 0)
(0.00143714 -0.000220275 0)
(0.00207357 -7.52385e-07 0)
(0.000373514 -0.00130507 0)
(0.00200766 -7.5553e-05 0)
(0.000333799 -0.00137612 0)
(0.00219058 -0.000108663 0)
(0.00247244 -1.53169e-05 0)
(0.00245806 -1.6552e-05 0)
(0.00103939 -0.000414276 0)
(0.00196193 -0.000108505 0)
(0.00231593 -0.000122579 0)
(0.00023858 -0.00133662 0)
(0.000192196 -0.00139192 0)
(0.00180221 -0.000180785 0)
(0.0019539 -7.15345e-05 0)
(0.00131606 -0.000865792 0)
(0.0022522 -4.63577e-06 0)
(0.00206547 -2.20496e-06 0)
(0.00227707 -2.05532e-06 0)
(0.00204785 -1.35046e-05 0)
(0.000130768 -0.00153065 0)
(0.00210053 -2.58645e-05 0)
(0.00210674 -2.22307e-05 0)
(0.00210194 -1.00972e-05 0)
(0.00179963 -6.98538e-05 0)
(0.00178136 -0.00023812 0)
(0.000940289 -0.000536357 0)
(0.00206089 -1.76355e-05 0)
(0.0014741 -0.000244748 0)
(0.00225415 -0.00015909 0)
(0.0014884 -0.000183472 0)
(0.0014661 -0.000191738 0)
(0.00118396 -0.000347625 0)
(0.000826525 -0.000740446 0)
(0.00251352 -5.22618e-06 0)
(0.00233326 -0.000126424 0)
(0.00178023 -0.000159672 0)
(0.00120902 -0.000604957 0)
(0.00181414 -0.000144592 0)
(0.00245333 -2.21182e-05 0)
(0.00228597 -9.30396e-05 0)
(0.00230675 -8.94242e-05 0)