/*--------------------------------*- C++ -*----------------------------------*\
| =========                 |                                                 |
| \\      /  F ield         | OpenFOAM: The Open Source CFD Toolbox           |
|  \\    /   O peration     | Version:  v2012                                 |
|   \\  /    A nd           | Website:  www.openfoam.com                      |
|    \\/     M anipulation  |                                                 |
\*---------------------------------------------------------------------------*/
FoamFile
{
    version     2.0;
    format      ascii;
    class       volSymmTensorField;
    location    "16";
    object      sigma;
}
// * * * * * * * * * * * * * * * * * * * * * * * * * * * * * * * * * * * * * //

dimensions      [1 -1 -2 0 0 0 0];


internalField   nonuniform List<symmTensor> 
1896
(
(5.20113e+07 -3.12023e+06 3.23247e-09 1.642e+07 6.79666e-10 2.07898e+07)
(5.51501e+07 -2.8428e+06 3.30751e-09 2.25468e+06 1.62659e-09 1.69225e+07)
(5.07539e+07 -1.60514e+06 0 1.53835e+07 0 1.96026e+07)
(9.50209e+07 -5.57372e+06 5.03095e-09 -2.49286e+07 -1.68972e-10 2.32959e+07)
(5.12722e+07 -3.36961e+06 3.20124e-09 1.5558e+07 1.13568e-09 2.02296e+07)
(5.12406e+07 -4.07958e+06 -1.24526e-09 1.46862e+07 -5.99575e-10 1.97522e+07)
(1.0152e+08 -1.67267e+06 -2.23559e-08 -2.07618e+07 -1.94485e-08 2.28394e+07)
(4.56547e+07 -5.90779e+06 -2.84403e-09 1.24491e+07 -3.90956e-10 1.75143e+07)
(2.98688e+07 -1.7779e+07 5.73587e-10 -1.54334e+07 2.76215e-09 5.18737e+06)
(4.41366e+07 -4.39768e+06 5.16149e-09 1.27814e+07 3.69979e-11 1.70092e+07)
(5.20887e+07 -587512 1.31363e-09 1.8892e+07 -1.66387e-10 2.12883e+07)
(2.44811e+07 -1.15677e+07 -3.68989e-09 6.3897e+06 -4.67839e-10 9.94238e+06)
(2.9309e+07 -7.17313e+06 3.36695e-09 9.5638e+06 2.6456e-10 1.07918e+07)
(2.60197e+07 -9.43972e+06 -1.03589e-09 6.85001e+06 -4.06769e-10 9.56924e+06)
(9.59561e+07 -3.19208e+06 -1.6944e-09 -2.39307e+07 1.90077e-09 2.23982e+07)
(9.00299e+07 1.49082e+07 8.15588e-09 686990 -8.26584e-09 2.78863e+07)
(6.19558e+07 -6.40403e+06 -9.70158e-09 979708 -4.4254e-11 1.93597e+07)
(8.87528e+07 -3.27644e+07 2.22882e-08 2.66033e+06 9.28819e-09 4.79394e+07)
(6.55016e+07 -1.15811e+07 6.02047e-09 1.78978e+06 1.64231e-09 2.04375e+07)
(2.06983e+07 -7.58073e+06 -1.73176e-08 -3.51307e+06 2.33046e-09 512407)
(-6.93488e+06 1.61436e+07 5.39973e-10 -7.36773e+07 -6.67192e-09 -2.69085e+07)
(5.50329e+07 -7.99302e+06 -5.33465e-10 6.21804e+06 1.63712e-09 1.82029e+07)
(1.11096e+08 -6.71816e+06 1.1736e-08 -1.77219e+06 7.0603e-09 3.28127e+07)
(1.1305e+08 -5.77127e+06 -2.5541e-09 -705638 -2.28327e-09 3.51668e+07)
(5.63638e+07 -4.96018e+06 3.63675e-09 2.34423e+06 -3.26791e-10 1.80527e+07)
(5.5718e+07 -5.02627e+06 -5.80989e-10 3.19112e+06 -1.53183e-09 1.76495e+07)
(2.61117e+07 -5.33365e+06 6.82938e-10 9.50806e+06 -2.71884e-10 1.17489e+07)
(3.14561e+07 -5.20358e+06 -2.36747e-09 1.07203e+07 -1.43643e-10 1.20355e+07)
(5.28659e+07 -2.35249e+06 1.2529e-10 1.6994e+07 -2.61099e-10 2.05983e+07)
(7.03096e+07 -1.44691e+07 -4.1211e-09 1.36764e+06 -2.69592e-09 2.25318e+07)
(6.98521e+07 -1.53107e+07 -2.39944e-09 1.86879e+06 7.80675e-10 2.04333e+07)
(5.45358e+07 -969111 4.67925e-09 509474 1.38934e-09 1.6368e+07)
(1.2073e+07 -9.61967e+06 -5.81955e-10 -1.48142e+06 -2.64353e-10 4.17967e+06)
(5.44337e+07 -2.0472e+06 0 1.83987e+06 0 1.71933e+07)
(1.02839e+08 -3.28991e+06 8.12484e-09 68912.8 3.07664e-09 3.09139e+07)
(5.3533e+07 -1.65315e+06 8.5215e-09 1.7698e+07 1.99811e-09 2.17493e+07)
(6.71031e+07 -1.48188e+07 9.51617e-09 2.05788e+06 1.27558e-09 2.09981e+07)
(5.37489e+07 -2.51491e+06 -4.90517e-10 6.20592e+06 -6.81985e-11 1.76465e+07)
(1.08989e+08 -2.70393e+07 -5.55267e-09 1.71796e+07 1.8525e-09 4.05158e+07)
(7.23456e+07 -1.4837e+07 9.41865e-09 2.36963e+06 -1.01266e-09 2.17034e+07)
(5.37207e+07 -176401 8.51985e-09 185326 3.26292e-09 1.6207e+07)
(5.27359e+07 -1.14883e+07 -1.89633e-08 -5.89154e+06 -4.4912e-09 1.23434e+07)
(5.60702e+07 -1.93366e+07 2.95928e-09 3.38462e+06 -1.38241e-09 1.77061e+07)
(6.60061e+07 -8.96155e+06 1.01048e-08 -1.69359e+07 3.1262e-09 1.46641e+07)
(2.85533e+07 -3.77419e+06 4.76974e-10 1.06853e+07 -2.25275e-10 1.26407e+07)
(2.84067e+07 -4.35159e+06 -2.35956e-09 9.64221e+06 -4.84943e-12 1.04308e+07)
(9.67707e+07 1.49976e+06 1.24575e-08 -2.09777e+07 1.18066e-08 2.41706e+07)
(5.24253e+07 -1.22601e+06 8.05747e-09 1.86597e+07 8.95243e-10 2.11633e+07)
(8.22736e+07 -7.24745e+06 2.93655e-09 -1.17357e+07 9.77185e-09 2.08366e+07)
(1.09543e+08 8.20666e+06 -1.62513e-09 -1.57353e+07 -9.1418e-09 2.88398e+07)
(4.99096e+07 -1.94382e+06 -1.20105e-09 1.53827e+07 3.73045e-10 1.98404e+07)
(4.78443e+07 -5.38314e+06 -1.90414e-09 1.29442e+07 8.30478e-10 1.87798e+07)
(4.76061e+07 -5.16018e+06 2.36374e-09 1.32283e+07 -4.06703e-10 1.74986e+07)
(5.49842e+07 -7.68953e+06 3.04299e-09 5.80395e+06 -2.12301e-09 1.83677e+07)
(3.6451e+07 -1.96356e+07 -1.04428e-08 -1.54648e+07 -4.74426e-09 6.07489e+06)
(5.66887e+07 -992635 -4.99762e-09 274062 5.95571e-10 1.72977e+07)
(5.58055e+07 -1.8213e+07 -2.07473e-08 -1.44488e+07 -1.09874e-08 1.32024e+07)
(5.30532e+07 -2.55643e+06 -6.41454e-09 1.70008e+07 -8.4896e-10 2.12872e+07)
(5.36667e+07 -1.20293e+06 -3.28286e-09 6.72084e+06 -8.11374e-10 1.86167e+07)
(7.446e+07 -2.02217e+06 -4.96308e-09 745223 3.21044e-09 2.3034e+07)
(4.52625e+07 -5.3648e+06 2.04136e-10 1.27493e+07 -4.74784e-10 1.74173e+07)
(1.1058e+08 5.27971e+06 -2.03628e-08 -1.80735e+07 -2.47648e-08 2.6308e+07)
(1.06612e+08 5.698e+06 -1.53295e-08 -1.25967e+07 -2.68708e-10 2.78672e+07)
(5.1794e+07 -7.07346e+06 3.25534e-09 1.164e+07 1.81338e-10 1.88195e+07)
(5.3675e+06 -3.6157e+06 -1.43993e-08 -2.56505e+06 1.40915e-08 5.74486e+06)
(5.41686e+07 -503620 6.0809e-10 13489.1 -9.63211e-10 1.63238e+07)
(1.00423e+08 -9.36687e+06 8.97553e-09 -700058 5.08599e-09 3.08326e+07)
(3.16809e+07 -1.62926e+07 5.359e-09 5.01424e+06 1.1239e-09 1.19739e+07)
(5.39315e+07 -4.63007e+06 -3.27221e-09 7.71964e+06 -1.32948e-09 1.83042e+07)
(1.07061e+08 -6.98195e+06 -1.11466e-08 -742350 -4.42835e-09 3.07857e+07)
(1.37088e+07 -2.47268e+06 -5.87056e-10 2.10389e+06 -7.36964e-11 3.14624e+06)
(1.024e+08 1.2008e+06 1.71845e-08 -1.15237e+07 1.99437e-08 2.57676e+07)
(5.3628e+07 -3.91447e+06 3.64051e-09 7.166e+06 1.51162e-09 1.8227e+07)
(5.63155e+07 -161759 3.72619e-09 -185478 3.35621e-10 1.69626e+07)
(1.05514e+08 -1.51383e+06 2.43243e-08 498222 4.2402e-09 3.12781e+07)
(5.54966e+07 -4.19855e+06 0 3.0481e+06 0 1.73303e+07)
(5.521e+07 -3.35858e+06 -4.87147e-09 2.37476e+06 -2.179e-09 1.74887e+07)
(5.29798e+07 -4.99387e+06 -3.93618e-09 1.23562e+07 -1.17918e-09 1.95801e+07)
(5.26542e+07 -5.61601e+06 3.20811e-10 1.18738e+07 7.38139e-12 1.94236e+07)
(5.36962e+07 -1.37944e+07 7.06842e-10 6.1941e+06 2.49624e-09 1.87247e+07)
(3.99193e+07 -1.0403e+07 1.29233e-09 -2.13798e+06 2.08782e-08 1.2372e+07)
(1.09687e+08 -5.67428e+06 -1.07469e-08 -387462 -6.22316e-09 3.37471e+07)
(3.50399e+07 -3.48912e+06 -1.30226e-09 1.19794e+07 -6.4806e-10 1.48447e+07)
(4.21788e+07 -8.60292e+06 -3.16888e-09 1.1429e+07 -2.58318e-10 1.63972e+07)
(4.26093e+07 -7.92266e+06 5.31794e-09 1.15842e+07 8.60646e-10 1.59006e+07)
(5.87647e+07 -1.31363e+07 3.74434e-10 4.20359e+06 2.99064e-09 1.88841e+07)
(4.27271e+07 -1.63015e+07 1.26669e-08 7.54373e+06 2.40133e-09 1.48189e+07)
(4.03258e+07 -1.53194e+07 2.25482e-09 7.50555e+06 -4.85707e-10 1.4643e+07)
(4.83837e+07 -1.83274e+07 1.60678e-08 -1.56833e+07 9.20618e-09 1.05597e+07)
(4.79176e+07 -1.89985e+07 1.25934e-08 4.45776e+06 2.34619e-09 1.5491e+07)
(4.81827e+07 -1.38094e+07 -2.926e-09 8.26012e+06 5.55243e-10 1.73353e+07)
(-9.88297e+06 -6.62797e+06 0 -513732 0 4.83676e+07)
(2.54633e+07 -1.72703e+07 2.09228e-09 -1.02546e+07 -1.69054e-09 4.54196e+06)
(6.31365e+07 -2.27687e+07 -1.52501e-08 -1.3667e+06 -1.06378e-08 1.42659e+07)
(1.20901e+08 -3.03943e+06 -9.74764e-09 -659311 -5.86714e-09 3.51579e+07)
(5.5865e+07 -6.75585e+06 -5.36e-09 4.15075e+06 -1.37151e-09 1.821e+07)
(5.36187e+07 -1.01042e+06 -7.64355e-09 2.07657e+06 -2.29582e-09 1.69577e+07)
(5.32128e+07 -947724 -3.53479e-09 2.08508e+07 -7.10482e-10 2.20974e+07)
(5.36911e+07 -756129 -6.66183e-09 1.12164e+06 -4.4768e-09 1.63616e+07)
(3.86421e+07 -1.82861e+07 2.0392e-09 3.28898e+06 3.55742e-10 1.36608e+07)
(4.20864e+07 -1.94386e+07 6.52564e-09 3.48681e+06 1.317e-09 1.30782e+07)
(3.14959e+07 -1.57068e+07 5.82019e-09 3.75476e+06 1.07513e-09 1.04042e+07)
(5.1026e+07 -7.13741e+06 -1.27089e-09 1.19913e+07 -1.84519e-10 1.9041e+07)
(2.98985e+07 -1.99326e+07 4.84694e-10 -9.80595e+06 3.20744e-10 6.23677e+06)
(4.42519e+07 -2.13596e+07 9.56047e-09 -8.57673e+06 1.65833e-09 1.12122e+07)
(5.26671e+07 -1.89236e+07 -5.57193e-09 3.85865e+06 -5.65794e-10 1.75525e+07)
(5.83864e+07 -1.2301e+07 -5.58732e-09 4.38221e+06 -3.03509e-11 1.86009e+07)
(7.11428e+07 -8.08366e+06 -1.14681e-08 -2.03817e+07 -7.3027e-09 1.53836e+07)
(9.16385e+07 -1.24906e+07 -2.24335e-08 -4.64545e+06 -9.88965e-09 2.70692e+07)
(-5.39539e+06 559224 4.16763e-10 1.91417e+06 7.42103e-09 6.09703e+07)
(5.35363e+07 -199957 -6.30329e-10 2.01524e+07 -3.81755e-10 2.2125e+07)
(5.34061e+07 -195644 -3.56816e-09 1.48361e+06 -6.71362e-09 1.66928e+07)
(8.20589e+07 -1.5346e+07 -2.84186e-09 -5.15557e+06 -2.40438e-09 2.30349e+07)
(5.53697e+07 -1.71627e+07 -5.32677e-10 -1.13299e+07 -9.98835e-10 1.27106e+07)
(2.41064e+07 -2.97434e+07 -7.20318e-09 2.66268e+07 7.65965e-09 3.41478e+07)
(4.44882e+07 -1.63274e+07 4.33151e-09 6.90491e+06 8.25104e-10 1.51921e+07)
(3.67002e+07 -1.47955e+06 4.77397e-09 1.24475e+07 3.004e-10 1.52774e+07)
(4.7805e+07 -1.63098e+07 5.01899e-09 7.19985e+06 1.63005e-12 1.64727e+07)
(4.83566e+07 -7.34844e+06 1.14485e-08 -2.00426e+07 1.09921e-08 8.64667e+06)
(6.90893e+07 -1.38466e+07 7.6137e-09 1.8086e+06 2.4479e-09 2.16709e+07)
(5.55737e+07 -8.92331e+06 0 -2.07101e+07 0 9.85341e+06)
(3.01717e+07 -1.66331e+07 2.84011e-09 -1.95451e+07 -5.62573e-09 3.15385e+06)
(5.38305e+07 -3.39615e+06 4.50799e-09 5.30583e+06 1.92337e-09 1.79101e+07)
(3.86102e+07 -6.49937e+06 3.301e-09 1.20138e+07 6.33878e-10 1.43542e+07)
(3.68795e+07 -6.17852e+06 -3.89697e-09 1.17141e+07 1.50604e-09 1.53274e+07)
(4.61009e+07 -1.56806e+07 -9.02392e-09 -1.73307e+07 3.3554e-09 8.76197e+06)
(6.99347e+07 -6.79616e+06 1.87917e-08 -1.76432e+07 2.722e-08 1.51942e+07)
(4.50562e+07 -6.85955e+06 2.65479e-09 1.22686e+07 -9.17094e-10 1.70301e+07)
(6.91217e+07 -5.82408e+06 -4.24744e-09 291466 4.38535e-09 2.08153e+07)
(4.13852e+07 -1.89071e+07 -7.34774e-09 2.46875e+06 -1.61544e-09 1.24021e+07)
(4.11376e+07 -2.00095e+07 -6.63953e-09 748293 -2.02995e-09 1.34609e+07)
(4.97307e+07 -1.41203e+07 3.2405e-09 8.16965e+06 -2.81247e-10 1.69967e+07)
(8.36367e+07 -1.34656e+07 0 -3.85663e+06 0 2.36891e+07)
(5.51588e+07 -1.81967e+07 -2.18874e-08 2.10067e+06 -5.13629e-09 1.51908e+07)
(6.48472e+07 -1.05817e+07 1.43335e-09 1.99316e+06 2.78614e-09 2.01765e+07)
(1.10523e+08 4.7331e+06 -3.3591e-08 -1.26057e+07 -1.49478e-08 3.07245e+07)
(7.77783e+07 -6.98124e+06 -1.43148e-08 -1.87929e+07 -1.12637e-08 1.90345e+07)
(8.4202e+07 -7.70742e+06 -1.42684e-08 -1.89097e+07 -3.48192e-09 1.83412e+07)
(5.39198e+07 -469332 -4.23872e-09 419611 -4.31664e-10 1.62348e+07)
(7.38522e+07 -1.65601e+07 8.69664e-09 806792 2.85955e-09 2.2719e+07)
(5.42447e+07 -5.68377e+06 -4.2498e-10 6.53513e+06 -1.36063e-09 1.84146e+07)
(7.09038e+07 -1.12093e+07 -7.91852e-09 -1.38076e+07 -2.21161e-09 1.64859e+07)
(7.3285e+07 -1.641e+07 4.83446e-09 1.16962e+06 -1.563e-09 2.18233e+07)
(1.42816e+08 2.84345e+07 -1.43392e-08 1.04809e+07 -1.58153e-08 4.37517e+07)
(4.64395e+07 -1.14249e+07 3.65633e-09 9.98588e+06 -6.27076e-10 1.65316e+07)
(6.00018e+07 -9.68294e+06 4.18011e-10 2.58217e+06 1.77769e-10 1.93593e+07)
(5.96555e+07 -9.18435e+06 -4.58245e-09 3.21148e+06 -1.96335e-10 1.83402e+07)
(6.97729e+07 -7.22938e+06 1.03482e-08 769964 1.218e-10 2.11522e+07)
(1.06456e+08 -5.48468e+06 -7.31887e-09 -2.27156e+06 -2.18837e-09 3.16027e+07)
(4.64069e+07 -1.58865e+07 0 7.38822e+06 0 1.58948e+07)
(2.99918e+07 -7.5949e+06 4.29863e-10 1.02444e+07 1.31113e-11 1.20949e+07)
(5.35635e+07 -1.88375e+06 2.05608e-09 3.10361e+06 -1.54205e-09 1.69196e+07)
(5.44224e+07 -6.27301e+06 0 6.88663e+06 0 1.81797e+07)
(5.26189e+07 -7.30333e+06 2.07425e-09 1.04682e+07 1.03065e-09 1.8546e+07)
(5.21156e+07 -8.41044e+06 -1.94648e-09 1.0049e+07 4.54888e-10 1.84574e+07)
(6.8308e+07 -1.66438e+07 5.48032e-09 -8.57001e+06 7.00244e-09 1.77542e+07)
(3.67704e+07 -1.66268e+06 1.3726e-10 1.17493e+07 -2.55493e-12 1.41938e+07)
(6.78656e+07 -1.49484e+07 -1.09724e-08 -1.12518e+07 -1.23314e-08 1.70185e+07)
(1.59962e+07 -3.33311e+06 -1.76868e-08 -2.99426e+06 6.06247e-09 6.06896e+07)
(4.73928e+07 -3.51248e+06 4.08574e-09 1.38188e+07 5.69227e-11 1.84685e+07)
(4.88203e+07 -4.46874e+06 3.55333e-09 1.34436e+07 -3.52741e-10 1.83307e+07)
(1.1369e+08 -465318 -7.4553e-09 536461 -3.89494e-10 3.4046e+07)
(2.98892e+07 -1.72504e+07 -9.83273e-09 -2.05091e+07 -7.9812e-09 3.2542e+06)
(5.33123e+07 -2.58212e+06 -1.4511e-09 8.3317e+06 -7.95798e-10 1.90772e+07)
(1.64592e+08 -3.69519e+06 -4.52574e-09 3.67235e+07 -3.13652e-09 8.47493e+07)
(4.33455e+07 -5.38045e+06 2.4208e-09 1.2624e+07 4.05549e-10 1.68159e+07)
(1.01363e+08 -360556 -8.83985e-09 1.62783e+07 -6.61139e-10 3.82691e+07)
(5.27011e+07 -2.00472e+06 1.68453e-11 1.83266e+07 2.12304e-11 2.13429e+07)
(5.30356e+07 -2.00904e+06 3.4987e-09 1.82724e+07 1.11353e-09 2.19002e+07)
(5.42689e+07 -2.07142e+06 -6.00729e-10 2.32389e+06 3.50303e-09 1.69101e+07)
(5.39843e+07 -1.54076e+06 1.58247e-09 2.1143e+06 -2.83014e-10 1.64726e+07)
(5.50918e+07 -939914 -3.37697e-09 305018 -1.88496e-09 1.63762e+07)
(1.70412e+07 -1.20084e+07 -2.77554e-09 -82943.1 -9.32631e-10 5.40814e+06)
(1.76111e+07 -1.03991e+07 2.10222e-09 2.31066e+06 3.9758e-10 5.48223e+06)
(8.8669e+07 -8.61423e+06 5.83319e-09 -2.1012e+07 -1.28347e-08 1.85569e+07)
(8.98334e+07 -5.88021e+06 2.80382e-08 -2.09886e+07 2.45177e-08 2.10407e+07)
(8.98442e+07 -5.05026e+06 2.8005e-08 -9.56624e+06 1.77234e-08 2.3637e+07)
(5.61016e+07 -6.54354e+06 -3.56011e-09 3.87519e+06 -5.52911e-11 1.7849e+07)
(5.28996e+07 -893333 3.15874e-09 1.87859e+07 2.38507e-10 2.16333e+07)
(3.73104e+07 -2.10978e+07 -1.1944e-08 -9.38249e+06 -2.53911e-09 8.20214e+06)
(1.54582e+07 -9.62444e+06 -2.7857e-09 -1.54608e+06 -9.11945e-10 3.48536e+06)
(7.40752e+07 -5.2935e+06 8.12967e-10 133964 -6.57444e-09 2.32365e+07)
(5.26784e+07 -7.16191e+06 8.24559e-09 9.89467e+06 2.32635e-09 1.92538e+07)
(9.3004e+07 -7.54978e+06 -1.95112e-08 -9.02509e+06 -1.64103e-08 2.55221e+07)
(9.20022e+07 -1.61859e+06 -8.04146e-09 -2.06486e+07 -9.04152e-11 1.91074e+07)
(1.77328e+08 -1.04452e+07 1.01505e-08 4.83429e+07 4.45736e-09 8.40685e+07)
(4.11991e+07 -1.84451e+07 1.83469e-09 4.38719e+06 -1.11878e-10 1.35823e+07)
(1.2663e+08 3.01833e+07 -1.29313e-08 -4.77473e+06 -8.74348e-09 3.31589e+07)
(-1.44317e+06 3.51624e+06 4.44756e-09 -8.90509e+07 4.17922e-09 -2.93455e+07)
(941345 -7.64379e+06 -8.24581e-10 -3.11899e+07 -1.92544e-09 -7.80262e+06)
(7.76523e+07 -5.01475e+06 4.1372e-08 -1.86256e+07 2.50707e-08 1.81153e+07)
(5.30198e+07 -1.59508e+06 4.26956e-09 1.86329e+07 8.20253e-10 2.15775e+07)
(6.64458e+07 -1.31296e+07 -2.32707e-08 -1.51389e+07 -1.46714e-08 1.63122e+07)
(1.31807e+08 159493 0 912486 0 3.96273e+07)
(2.28942e+07 -6.44267e+06 -1.17912e-08 -982441 1.61713e-08 8.60099e+06)
(2.40676e+07 -1.45646e+07 -3.2244e-09 2.51142e+06 -6.73394e-10 8.31974e+06)
(5.59953e+07 -1.81414e+07 -6.56873e-09 3.83363e+06 -1.47616e-09 1.80949e+07)
(6.4924e+07 -1.24294e+07 -7.7226e-09 -1.96951e+07 3.47433e-09 1.42899e+07)
(2.47421e+07 -1.26022e+07 3.83825e-09 4.24132e+06 5.23368e-10 8.4963e+06)
(3.68873e+07 -4.2203e+06 -2.65385e-09 1.21223e+07 -1.7675e-10 1.36824e+07)
(4.04689e+07 -1.64014e+07 6.62994e-09 6.76658e+06 -5.77241e-10 1.38174e+07)
(4.03741e+07 -9.67485e+06 8.12513e-09 -1.10803e+07 1.42604e-08 9.02431e+06)
(5.2404e+07 -1.67804e+06 -2.33729e-10 1.85504e+07 -2.74426e-10 2.12806e+07)
(5.26214e+07 -8.2254e+06 6.96768e-09 9.52579e+06 1.68215e-09 1.8811e+07)
(1.25027e+08 1.98848e+07 9.15221e-09 -6.71126e+06 7.17501e-09 4.10692e+07)
(5.14297e+07 -8.13887e+06 -2.53789e-09 1.04588e+07 2.35892e-10 1.89921e+07)
(7.84938e+07 -1.03671e+07 6.91457e-09 -1.27845e+07 -1.67264e-10 1.97521e+07)
(9.10632e+07 -9.50938e+06 -7.07621e-09 792061 -1.36542e-09 2.78129e+07)
(-5.08827e+06 2.68956e+06 9.39547e-09 -8.92431e+07 2.13813e-08 -2.35428e+07)
(5.75344e+07 -1.66573e+06 3.94347e-09 371463 2.78475e-09 1.72025e+07)
(1.12443e+08 -3.4915e+06 0 -1.05898e+06 0 3.30385e+07)
(6.6883e+07 -1.34037e+07 -1.0828e-08 2.47196e+06 -5.0466e-09 2.03774e+07)
(5.90584e+07 -5.62388e+06 5.17788e-09 1.62795e+06 4.66261e-10 1.78236e+07)
(5.81793e+07 -4.72919e+06 -6.11091e-10 1.10686e+06 -1.95884e-10 1.83398e+07)
(3.04479e+07 -1.19823e+07 2.40545e-10 7.34722e+06 2.58638e-10 1.09593e+07)
(3.66023e+07 -1.92545e+07 6.72188e-09 -6.63986e+06 2.92693e-09 8.7605e+06)
(3.78011e+07 -4.92064e+06 -1.09776e-08 -1.3665e+07 -8.19158e-09 1.04501e+07)
(8.55216e+07 -5.77682e+06 -5.9998e-09 614431 -5.17432e-09 2.64115e+07)
(8.46615e+07 -6.25482e+06 -8.85999e-09 309546 -1.72715e-09 2.43637e+07)
(7.08441e+07 -1.6014e+07 -1.08813e-08 1.28986e+06 -4.36915e-09 2.15812e+07)
(1.03855e+06 -8.17143e+06 1.23929e-08 -3.03536e+07 7.21999e-09 -8.71997e+06)
(5.20819e+07 -9.21028e+06 -8.99036e-09 9.34966e+06 -8.78773e-10 1.86352e+07)
(1.30392e+08 -1.32584e+06 -1.29644e-08 181065 -8.73664e-09 3.88621e+07)
(9.56082e+07 -9.6189e+06 1.14215e-08 -3.00961e+06 7.40545e-09 2.67419e+07)
(5.34764e+07 -273807 -1.21274e-09 3.17782e+06 -1.88115e-09 1.67576e+07)
(7.28799e+07 -1.71488e+07 1.3098e-08 119145 5.01168e-09 2.16626e+07)
(7.17748e+07 -9.42991e+06 0 -1.43754e+07 0 1.76342e+07)
(5.84574e+07 -1.04094e+07 -8.57586e-09 4.19134e+06 -3.04056e-09 1.8345e+07)
(1.24759e+08 1.80914e+07 1.00934e-08 1.39442e+07 8.6618e-09 4.28312e+07)
(5.41195e+07 -980956 -8.11969e-09 766521 -1.40538e-09 1.65871e+07)
(9.73487e+07 1.62723e+07 -8.01816e-09 1.61311e+07 -6.8836e-09 3.42443e+07)
(4.6411e+07 -4.91507e+06 -3.09106e-09 1.31014e+07 -1.03359e-09 1.83897e+07)
(4.73165e+07 -3.75615e+06 2.45301e-09 1.3192e+07 6.88361e-10 1.80522e+07)
(5.38176e+07 -228187 0 2.20008e+07 0 2.2593e+07)
(5.34074e+07 -98952.3 -3.13082e-09 206357 -2.5913e-09 1.61658e+07)
(4.83104e+07 -8.04503e+06 -4.416e-09 1.16603e+07 -2.01204e-09 1.8251e+07)
(3.33224e+07 -1.53538e+07 6.0642e-09 5.57042e+06 9.65035e-10 1.05704e+07)
(6.14468e+07 -1.04457e+07 -3.65218e-09 -2.12436e+07 -1.95111e-09 1.20249e+07)
(1.53448e+08 2.02647e+07 2.62983e-08 1.54905e+07 2.0538e-08 5.30379e+07)
(7.43551e+07 -2.44841e+06 1.4899e-08 181499 2.94774e-09 2.1678e+07)
(6.63507e+07 -9.56831e+06 5.5959e-09 -1.307e+07 -5.70629e-09 1.63449e+07)
(7.57125e+07 -8.02899e+06 -1.87719e-08 -1.86313e+07 -1.9515e-08 1.78823e+07)
(3.15047e+07 -1.36489e+07 6.90515e-10 7.89042e+06 4.9116e-10 1.168e+07)
(1.48234e+08 1.64143e+07 -1.00397e-08 8.31722e+06 -1.22049e-08 5.78686e+07)
(5.44184e+07 -8.26853e+06 -1.84819e-09 6.58703e+06 2.64041e-09 1.8676e+07)
(2.2872e+07 -1.26495e+07 1.08742e-08 4.57699e+06 1.43999e-09 8.25625e+06)
(5.34471e+07 -536782 -1.73475e-09 8.31836e+06 -1.09492e-09 1.81398e+07)
(2.39459e+07 -1.03956e+07 5.664e-10 4.51559e+06 1.99842e-12 8.37738e+06)
(1.98144e+07 -8.69689e+06 1.09024e-09 5.25326e+06 1.43624e-10 8.2045e+06)
(8.96114e+07 -1.08784e+07 1.53514e-09 -74899 3.24622e-09 2.65032e+07)
(2.73891e+07 -8.33499e+06 2.13045e-08 -2.57611e+07 1.62599e-08 1.14909e+06)
(5.79347e+07 -1.87036e+07 -4.08007e-09 3.08596e+06 -1.85669e-09 1.82392e+07)
(5.46698e+07 -1.39689e+06 -5.38367e-09 958731 -2.0193e-09 1.65958e+07)
(5.29281e+07 -808381 -1.01267e-09 2.1157e+07 2.51893e-10 2.24201e+07)
(5.3706e+07 -248404 4.93386e-09 222043 1.83704e-09 1.60601e+07)
(5.29579e+07 -1.02101e+07 -8.60628e-09 8.29653e+06 -1.65966e-09 1.82988e+07)
(1.83254e+07 -1.54579e+07 -3.75921e-09 -1.07907e+07 -1.10156e-10 2.10227e+06)
(1.43438e+08 2.47841e+07 1.32143e-08 2.77589e+06 5.29832e-09 4.34539e+07)
(1.02965e+08 -394453 2.21268e-08 -1.42571e+07 4.33615e-09 2.74804e+07)
(9.85951e+07 -5.90264e+06 -2.20617e-08 34492.9 -8.31212e-09 3.0577e+07)
(6.76468e+07 -4.28651e+06 2.52632e-08 -68180.2 6.92501e-09 2.10784e+07)
(-4.796e+06 1.48771e+07 3.2792e-09 -7.42384e+07 7.55268e-09 -1.99312e+07)
(-3.98728e+06 4.2966e+06 -4.88622e-09 -6.14901e+07 -6.34126e-09 -2.01335e+07)
(3.61196e+07 -1.55859e+07 6.83573e-09 6.90475e+06 1.69114e-09 1.37416e+07)
(6.37582e+07 -6.22727e+06 -4.02938e-09 550010 -3.75119e-09 1.89299e+07)
(4.74153e+07 -1.95159e+07 -6.92946e-09 -8.09066e+06 -1.54115e-09 1.14552e+07)
(9.38389e+07 1.00968e+07 -3.46078e-09 1.19587e+07 -4.17172e-09 3.05696e+07)
(3.60638e+07 -1.83555e+07 -4.60331e-09 1.35143e+06 -8.67532e-10 9.80274e+06)
(7.66558e+07 -4.96661e+06 -1.05008e-09 37960.1 1.82709e-09 2.23296e+07)
(5.25656e+07 -1.01191e+07 3.62505e-09 8.48154e+06 -6.3946e-12 1.84992e+07)
(3.91622e+07 -1.9118e+07 1.2634e-08 2.44831e+06 2.90362e-09 1.25857e+07)
(-6.5772e+06 -2.48636e+06 -1.99073e-10 -3.8326e+07 -4.12726e-09 -1.39807e+07)
(1.33055e+08 -268254 -2.24165e-08 -1.67529e+06 -1.19808e-08 3.82906e+07)
(2.17467e+07 -7.28086e+06 -2.55472e-09 7.03962e+06 -1.35595e-10 9.00523e+06)
(6.22744e+07 -7.8233e+06 1.18661e-08 1.36579e+06 1.7029e-09 1.90214e+07)
(1.49901e+07 -1.62581e+07 7.72716e-09 -1.04725e+07 1.65709e-09 2.19871e+06)
(9.10633e+07 -1.15086e+07 5.21183e-10 -3.40863e+06 -4.9955e-10 2.61386e+07)
(5.36275e+07 -1.1784e+06 -1.68962e-09 1.28266e+07 -6.24451e-10 2.03114e+07)
(5.24669e+07 -1.18617e+07 5.32084e-09 7.55217e+06 2.6606e-09 1.85768e+07)
(5.22232e+07 -580514 -2.20867e-09 1.76017e+07 2.69673e-10 2.07526e+07)
(5.43743e+07 -540064 4.12771e-09 68659.4 7.27899e-10 1.66755e+07)
(9.21662e+07 -1.05672e+07 6.36921e-09 -304083 1.57441e-09 2.79139e+07)
(1.22134e+07 -1.34765e+07 -2.55877e-09 -7.37427e+06 -1.66707e-09 2.31489e+06)
(5.35523e+07 -58840.3 -5.01216e-09 -112481 -3.59279e-10 1.62257e+07)
(5.74289e+07 -1.04927e+07 5.7919e-09 4.45466e+06 3.27536e-11 1.86974e+07)
(1.01445e+08 1.83338e+07 -1.30348e-08 -1.90052e+06 -5.19168e-09 2.77839e+07)
(5.57291e+07 -1.43163e+07 2.28624e-10 5.96008e+06 5.6526e-10 1.81622e+07)
(4.6116e+07 -1.68164e+07 -4.88673e-09 6.86937e+06 -1.71025e-09 1.60647e+07)
(5.35515e+07 -1.38074e+07 4.2671e-09 7.24864e+06 1.92968e-09 1.73828e+07)
(5.26256e+07 -132568 0 1.91366e+07 0 2.16458e+07)
(8.02853e+07 2.80983e+06 2.7632e-11 -1.03114e+06 3.71503e-09 2.64629e+07)
(6.53429e+07 -1.31757e+07 1.07612e-08 2.07261e+06 1.37922e-09 2.04472e+07)
(6.47131e+07 -1.52494e+07 -2.56968e-09 2.88699e+06 -1.81422e-09 2.03506e+07)
(5.70039e+07 -1.45151e+07 3.48067e-09 5.17234e+06 -3.64226e-10 1.85642e+07)
(1.89717e+08 -1.4581e+06 -4.07317e-09 5.56535e+07 1.3696e-09 7.92587e+07)
(1.31466e+07 -2.13557e+06 -4.71906e-10 3.86642e+06 -1.76876e-10 5.50883e+06)
(1.01002e+08 2.29747e+06 1.44634e-08 -1.58087e+06 1.86443e-09 2.82647e+07)
(4.08718e+07 -1.65299e+07 -3.83781e-09 6.29631e+06 3.5172e-10 1.45927e+07)
(1.31143e+08 1.54109e+07 -4.44214e-09 -1.04888e+07 -9.80386e-09 4.88734e+07)
(3.41389e+06 -4.0296e+06 1.91814e-08 -4.40473e+07 1.70018e-08 -9.75339e+06)
(1.32731e+08 2.26232e+07 1.10427e-08 -5.7213e+06 1.43578e-08 3.82869e+07)
(6.54679e+07 -1.58101e+07 0 1.9824e+06 0 2.02969e+07)
(1.06674e+08 -4.70275e+06 1.60747e-08 -4.49642e+06 1.63702e-08 3.07452e+07)
(1.06094e+08 1.24105e+06 -1.44124e-08 -2.69016e+07 -1.2789e-08 2.64931e+07)
(5.38982e+07 -8.30012e+06 -2.71987e-09 8.18913e+06 5.2017e-10 1.82622e+07)
(4.71602e+07 -9.7954e+06 3.98802e-09 1.07474e+07 7.92945e-10 1.78663e+07)
(4.74371e+07 -1.0558e+07 7.75386e-09 1.02604e+07 5.12607e-10 1.70596e+07)
(1.35866e+07 -1.14286e+07 3.12207e-09 -5.89034e+06 7.83031e-10 2.01834e+06)
(1.34253e+07 -1.22648e+07 0 -1.78424e+06 0 3.34829e+06)
(5.27641e+07 -1.11163e+07 6.81383e-09 8.23866e+06 -3.56992e-10 1.79323e+07)
(5.36212e+07 -3.29491e+06 9.94342e-09 9.33779e+06 2.15279e-09 1.84406e+07)
(4.77135e+07 -1.82896e+07 -7.42792e-09 5.10723e+06 -1.88554e-09 1.62042e+07)
(1.95978e+07 -1.00619e+07 -3.63998e-10 3.86504e+06 -2.296e-10 6.77419e+06)
(5.35104e+07 -860628 -4.69979e-09 2.00635e+07 -9.28863e-10 2.15723e+07)
(5.34589e+07 -719930 1.7209e-08 1.20338e+06 6.35865e-09 1.68757e+07)
(6.87072e+07 -7.98646e+06 -4.96987e-10 1.32207e+06 6.04221e-10 2.08653e+07)
(4.17571e+07 -298594 -2.79547e-10 1.29147e+07 -3.71398e-10 1.63139e+07)
(5.37392e+07 -3.20051e+06 -6.17499e-10 6.71345e+06 -9.40938e-10 1.83107e+07)
(5.80889e+07 -1.95759e+07 -5.72944e-09 2.82563e+06 -6.94763e-10 1.81953e+07)
(5.35324e+07 -4.347e+06 -1.79719e-10 9.81833e+06 -2.16579e-10 1.92536e+07)
(4.55526e+07 -1.21035e+07 -6.46021e-09 9.5572e+06 1.50732e-09 1.70517e+07)
(1.17098e+08 1.01591e+07 0 -5.29003e+06 0 3.62281e+07)
(1.18544e+08 1.27882e+07 -2.87117e-08 -3.21438e+06 -2.78716e-08 3.1642e+07)
(5.61292e+07 -2.10114e+07 -4.38702e-09 1.12459e+06 -2.14138e-09 1.72598e+07)
(1.65134e+07 -1.34912e+07 4.3558e-09 -7.77465e+06 1.04529e-09 2.09764e+06)
(5.24528e+07 -1.89247e+07 1.93657e-08 4.35018e+06 4.52315e-09 1.62799e+07)
(5.72346e+07 -1.95313e+07 0 2.65275e+06 0 1.70017e+07)
(1.84531e+07 -1.39129e+07 -4.55846e-09 -2.62926e+06 -1.08851e-09 4.06976e+06)
(5.2606e+07 -4.09308e+06 6.26661e-10 1.48198e+07 5.05418e-10 1.99949e+07)
(5.44223e+07 -3.21159e+06 -3.03303e-09 3.91923e+06 -1.88354e-09 1.74422e+07)
(-5.90489e+06 1.2575e+06 -3.47213e-09 -5.64912e+07 -3.98439e-09 -2.38524e+07)
(6.7165e+07 -301575 -1.09274e-08 -332033 6.03553e-10 2.01363e+07)
(5.36007e+07 -565224 -3.42774e-10 2.09185e+07 -2.57205e-11 2.22308e+07)
(5.35118e+07 -254466 7.47682e-09 299205 1.13565e-09 1.63365e+07)
(4.35387e+07 -3.79584e+06 5.29535e-10 1.30223e+07 1.37918e-11 1.71088e+07)
(-4.89161e+06 1.16546e+07 -5.67462e-09 -8.21488e+07 -1.61631e-08 -2.0944e+07)
(2.91147e+07 -1.41059e+07 6.3419e-10 6.5971e+06 -9.65806e-11 1.1347e+07)
(1.13019e+08 -4.3867e+06 1.97879e-08 -3.02716e+06 9.15764e-09 3.30712e+07)
(5.22344e+07 -4.2838e+06 2.12567e-09 1.50879e+07 -1.00397e-10 2.02998e+07)
(5.49312e+07 -3.4855e+06 1.69723e-09 3.34738e+06 -8.05303e-10 1.70867e+07)
(5.71725e+07 -2.0279e+07 1.10824e-08 -1.86348e+06 3.98197e-09 1.6918e+07)
(-4.60438e+06 2.86133e+06 -8.03796e-09 -5.48234e+07 -4.54907e-09 -1.79818e+07)
(6.69427e+07 -1.8542e+07 -6.38314e-09 950254 -1.26069e-10 1.9847e+07)
(3.98395e+07 -1.92668e+07 -7.68453e-09 -8.84362e+06 -2.17054e-09 9.10797e+06)
(3.32747e+07 -7.78559e+06 5.41881e-09 1.03062e+07 5.56668e-10 1.28651e+07)
(6.78149e+07 -1.0545e+07 6.90475e-09 1.51727e+06 3.48181e-10 2.01887e+07)
(6.424e+07 -1.34661e+07 4.56516e-09 2.68753e+06 -3.86274e-10 1.98318e+07)
(5.70156e+07 -2.85037e+07 1.95251e-08 -4.91052e+06 1.86717e-09 2.77424e+07)
(4.04223e+07 -1.7384e+07 -1.09611e-09 6.14467e+06 7.5633e-10 1.41287e+07)
(-1.081e+07 8.33658e+06 -5.03984e-09 -6.84088e+07 -1.06467e-08 -1.97171e+07)
(4.39702e+06 -1.15707e+07 3.00348e-09 -1.94553e+07 2.26471e-09 -4.23878e+06)
(5.21809e+07 -4.8011e+06 -9.36529e-10 1.41212e+07 7.16563e-10 1.9953e+07)
(4.19702e+07 -1.51755e+07 1.74091e-08 -2.24852e+07 1.01147e-09 7.07724e+06)
(5.69974e+07 -1.49812e+07 -3.42354e-11 5.11236e+06 1.5211e-09 1.86282e+07)
(6.30315e+07 -8.6067e+06 -1.51544e-08 1.71974e+06 -1.36237e-09 1.99243e+07)
(6.77105e+07 -1.08791e+07 9.81698e-10 1.40636e+06 4.29553e-09 2.15028e+07)
(-1.11034e+07 1.2902e+07 0 -1.76144e+07 0 -9.00479e+06)
(1.0556e+08 -1.22489e+07 4.00284e-09 -8.21655e+06 -1.06684e-08 3.41698e+07)
(4.44186e+07 -1.78518e+07 -4.21035e-09 5.79472e+06 -3.64066e-10 1.58127e+07)
(5.5006e+07 -8.28719e+06 -3.70959e-08 -2.07562e+07 -2.23767e-08 1.07732e+07)
(4.23021e+07 -1.53155e+07 -1.58285e-08 -1.88587e+07 -5.68832e-09 6.08039e+06)
(1.76153e+08 8.96923e+06 -2.89222e-08 5.1377e+07 -1.14609e-08 6.94151e+07)
(1.12521e+08 -2.48615e+07 1.03296e-09 -3.8553e+06 7.09931e-10 4.98098e+07)
(2.61295e+06 -2.73526e+06 -7.29173e-09 -3.91159e+07 -1.35214e-08 -1.37415e+07)
(5.48263e+07 -4.66144e+06 -6.08187e-09 3.7534e+06 -1.74798e-09 1.79108e+07)
(6.06994e+07 -7.99835e+06 -1.04319e-10 2.1141e+06 1.36263e-10 1.91561e+07)
(7.5773e+07 -1.72375e+07 -1.69379e-08 -767471 -6.78678e-09 2.31379e+07)
(7.61369e+07 -1.67697e+07 -7.1898e-09 -1.13208e+06 -3.07807e-09 2.18594e+07)
(5.20276e+07 -1.54778e+07 -3.38892e-09 6.35638e+06 -1.23213e-09 1.80938e+07)
(6.23765e+07 1.3003e+07 6.33732e-09 4.75653e+06 9.39205e-09 1.8343e+07)
(1.04433e+08 4.32287e+06 -3.64441e-09 -2.2142e+07 -9.69783e-09 2.47732e+07)
(2.48341e+07 -9.50291e+06 2.12352e-09 7.67691e+06 1.24421e-10 8.87138e+06)
(5.31908e+07 -502646 1.23813e-09 2.26482e+07 1.78632e-10 2.25368e+07)
(5.35544e+07 -167064 -9.03011e-09 31831.9 -4.25145e-09 1.61303e+07)
(5.4688e+07 -4.15704e+06 0 3.46987e+06 0 1.77161e+07)
(2.95402e+07 -1.87965e+07 -7.06547e-09 -5.42634e+06 -1.59957e-09 6.27321e+06)
(5.22171e+07 -3.43691e+07 -3.30303e-09 1.47482e+07 -7.074e-09 4.03946e+07)
(5.32669e+07 -1.58056e+07 3.14448e-08 -1.52987e+07 1.85366e-08 1.06258e+07)
(4.40013e+07 -1.54226e+07 4.48009e-09 7.91429e+06 1.66175e-09 1.61647e+07)
(4.364e+07 -1.69246e+07 -5.14175e-09 5.7374e+06 -4.50213e-10 1.45372e+07)
(3.7899e+07 -1.56927e+07 -1.12083e-08 7.17919e+06 -5.70994e-10 1.30962e+07)
(5.37744e+07 -204486 0 179846 0 1.61514e+07)
(8.32754e+06 -1.2552e+07 6.50487e-09 -2.46547e+07 2.72864e-09 -6.44392e+06)
(5.34344e+07 -5.05156e+06 3.87704e-09 1.07151e+07 8.18399e-10 1.87955e+07)
(2.53637e+07 -1.90212e+07 1.64904e-08 -5.45974e+06 4.69111e-09 7.24046e+06)
(5.36197e+07 -405095 -2.48576e-09 1.39255e+07 -1.99321e-09 2.00094e+07)
(1.26697e+08 -1.22518e+07 1.10796e-09 8.53073e+06 -4.95182e-09 5.13264e+07)
(5.44347e+07 -4.65571e+06 -1.33091e-09 4.35468e+06 -3.89442e-10 1.77048e+07)
(5.30047e+07 -395477 -6.67071e-09 2.02488e+07 -6.52289e-10 2.19205e+07)
(1.26269e+08 -5.828e+06 -2.42588e-08 -4.54562e+06 -1.39455e-08 5.60751e+07)
(4.52141e+07 -7.32189e+06 -4.03073e-09 1.19015e+07 6.02461e-10 1.72739e+07)
(5.17842e+07 -4.09887e+06 1.75606e-09 1.51399e+07 -1.78629e-10 1.99424e+07)
(1.22037e+08 1.37455e+06 -1.37899e-08 -403735 -3.70762e-09 3.68091e+07)
(4.79165e+07 -1.98476e+07 0 5.23035e+06 0 1.24848e+07)
(4.97514e+07 -8.49628e+06 -1.30349e-09 1.09632e+07 1.7392e-09 1.81183e+07)
(9.51895e+06 -1.11885e+07 0 -2.0431e+07 0 -3.79439e+06)
(7.58684e+07 -1.07564e+07 9.92993e-10 1.02727e+06 -2.73994e-09 2.35777e+07)