/*--------------------------------*- C++ -*----------------------------------*\
| =========                 |                                                 |
| \\      /  F ield         | OpenFOAM: The Open Source CFD Toolbox           |
|  \\    /   O peration     | Version:  v2012                                 |
|   \\  /    A nd           | Website:  www.openfoam.com                      |
|    \\/     M anipulation  |                                                 |
\*---------------------------------------------------------------------------*/
FoamFile
{
    version     2.0;
    format      ascii;
    class       volSymmTensorField;
    location    "11";
    object      epsilon;
}
// * * * * * * * * * * * * * * * * * * * * * * * * * * * * * * * * * * * * * //

dimensions      [0 0 0 0 0 0 0];


internalField   nonuniform List<symmTensor> 
250
(
(0.0121798 -0.00180435 1.03444e-18 -0.00981338 -6.20121e-20 5.06209e-37)
(0.00991583 -0.00118665 4.82619e-19 -0.00726097 5.3935e-19 0)
(0.00751792 -0.000676602 4.36677e-19 -0.00451079 -1.95508e-19 0)
(0.0058962 -0.000223708 -3.02262e-19 -0.00294724 -5.89746e-19 0)
(0.00448589 7.91298e-05 3.94528e-20 -0.00163369 3.92815e-20 0)
(0.00717314 -0.003153 -2.2196e-19 -0.00484546 1.70499e-19 3.43885e-35)
(0.00557675 -0.00177814 4.8779e-19 -0.00323223 2.69111e-19 0)
(0.00459028 -0.000882749 7.86865e-19 -0.00213574 4.75873e-19 0)
(0.00409462 -0.000214472 -3.79391e-19 -0.00187005 -2.00363e-19 0)
(0.0036331 0.000207601 -5.1969e-20 -0.00152496 -8.449e-20 0)
(0.00302977 -0.00176804 -6.13325e-19 -0.0010651 4.9897e-20 9.14765e-35)
(0.0026861 -0.000840683 -8.52053e-19 -0.00100625 2.44767e-19 0)
(0.00285858 -0.000465783 3.47533e-19 -0.00119989 1.17778e-19 0)
(0.00304899 -7.78456e-05 5.02916e-19 -0.00148531 1.22313e-19 0)
(0.00317974 0.000112618 -6.26611e-19 -0.00159568 -3.05169e-19 0)
(0.00182681 -0.00116487 -4.59774e-20 -0.00050185 2.57515e-19 -6.00514e-35)
(0.00216789 -0.000646574 -2.38221e-19 -0.00094044 8.66787e-20 0)
(0.00249691 -0.000477703 -1.5056e-19 -0.00122609 -1.30182e-19 0)
(0.00267492 -0.000220998 3.9255e-19 -0.001404 4.11098e-20 0)
(0.00275662 -0.000126167 -1.10667e-19 -0.00145407 -2.04401e-19 0)
(0.00101302 -0.000712554 2.23244e-20 -0.000292229 -2.1299e-20 1.31977e-37)
(0.00160483 -0.00053741 -3.52267e-19 -0.000833977 -8.53778e-21 0)
(0.00196568 -0.000453743 -3.19657e-19 -0.00111441 -2.31422e-19 0)
(0.00226668 -0.000341746 7.54412e-20 -0.00135542 -2.63e-19 0)
(0.00235888 -0.000257172 1.4922e-19 -0.00140692 1.22991e-19 0)
(0.000509457 -0.000149597 1.09259e-19 -0.000407974 3.2759e-20 4.23696e-36)
(0.00110471 -0.000369698 -1.82261e-19 -0.000894428 -3.65229e-19 0)
(0.00150177 -0.000454636 -1.28876e-19 -0.00110834 -1.13038e-19 0)
(0.00174307 -0.000553043 -1.89961e-20 -0.00128147 2.44649e-19 0)
(0.00193304 -0.000558349 8.70539e-21 -0.00127429 7.22282e-20 0)
(0.000409183 0.00027727 4.02754e-19 -0.000863289 -5.41237e-19 5.10435e-35)
(0.000789472 -0.000184315 -1.78325e-19 -0.0010443 -3.74231e-19 0)
(0.00111379 -0.000442867 -1.92944e-19 -0.00114103 3.57392e-19 0)
(0.00123712 -0.00059356 2.31932e-19 -0.0011333 1.38856e-19 0)
(0.00143803 -0.000709879 -1.10763e-19 -0.00110754 -1.95889e-19 0)
(0.000532062 0.000541845 1.47468e-19 -0.00145707 -5.27396e-19 -5.41485e-35)
(0.000615874 -2.0075e-05 2.65026e-19 -0.00126928 -1.08066e-19 0)
(0.000762021 -0.000353368 -8.37102e-20 -0.00109608 3.73329e-19 0)
(0.000794641 -0.000517832 -1.09471e-19 -0.000964453 3.51765e-20 0)
(0.000915532 -0.00068765 -5.29129e-21 -0.000814117 -1.57809e-19 0)
(0.000742949 0.000463226 -6.54146e-20 -0.00197124 -3.87736e-19 -3.99163e-35)
(0.000528013 4.8604e-05 1.20403e-19 -0.00145339 5.55545e-20 0)
(0.000496886 -0.000230518 6.21809e-20 -0.00107525 4.96504e-20 0)
(0.000453395 -0.000348213 -1.69429e-19 -0.000844276 -1.0473e-19 0)
(0.000493244 -0.000495271 2.19905e-20 -0.000612754 -2.98862e-20 0)
(0.000904081 0.000184623 3.31269e-20 -0.00229975 -2.18843e-19 -9.0042e-36)
(0.000523051 2.01901e-05 6.69316e-20 -0.00159015 6.07351e-20 0)
(0.000363479 -8.42417e-05 -2.21443e-20 -0.00105877 -2.17761e-20 0)
(0.000284759 -0.000123969 -3.11692e-21 -0.000780344 -9.18472e-21 0)
(0.000257238 -0.000179048 2.85256e-20 -0.000483501 2.41626e-20 0)
(0.000335779 -0.000178967 -1.82281e-21 -0.000323307 5.45427e-21 0)
(0.000552096 -0.000523018 -7.62893e-21 -0.000457808 -5.20693e-21 0)
(0.00094061 -0.000704901 -9.59146e-20 -0.000670421 -4.82047e-20 0)
(0.00143668 -0.000770892 -9.29138e-20 -0.000958229 -5.07583e-20 0)
(0.00197525 -0.000674397 -3.34412e-19 -0.00124005 -2.12066e-19 0)
(0.000492245 -0.000159733 1.36592e-20 -0.000176055 1.69503e-21 0)
(0.000623928 -0.000495389 8.96112e-20 -0.000274627 1.96243e-20 0)
(0.000887217 -0.000690821 -1.5191e-21 -0.000468039 -8.03858e-22 0)
(0.0012141 -0.000806933 -1.10082e-20 -0.000664597 2.50419e-21 0)
(0.0016175 -0.000715614 8.97956e-20 -0.000920095 3.31493e-20 0)
(0.000658684 -0.000132642 -1.09414e-20 -0.000131188 -4.01663e-21 0)
(0.000766496 -0.000398402 3.23953e-20 -0.000204943 6.2574e-21 0)
(0.00100357 -0.000603688 -5.25991e-21 -0.000380286 -3.73425e-22 0)
(0.00125405 -0.00074443 7.04055e-20 -0.000543179 1.40849e-20 0)
(0.00156235 -0.000809197 1.21464e-19 -0.000773188 3.67676e-20 0)
(0.000807132 -0.00012185 -4.46981e-20 -0.00013693 3.3453e-22 0)
(0.000869176 -0.000352768 1.93906e-21 -0.000179796 6.1362e-21 0)
(0.0010169 -0.000537728 -5.88026e-20 -0.000294021 -1.72866e-20 0)
(0.00120935 -0.00063765 -1.54672e-19 -0.000414215 -3.87179e-20 0)
(0.0014533 -0.000707253 3.06924e-19 -0.000593293 8.81112e-20 0)
(0.000981105 -0.000104722 -1.73181e-20 -0.00018398 -1.12505e-20 0)
(0.00103418 -0.000285042 -3.84201e-20 -0.000224244 -1.36039e-20 0)
(0.00114819 -0.000468615 -9.80595e-20 -0.000317333 -6.0893e-21 0)
(0.00128391 -0.000575497 -1.28772e-19 -0.000414613 2.68142e-21 0)
(0.00143995 -0.000666386 2.1075e-20 -0.000531897 1.64145e-20 0)
(0.00108402 -8.89011e-05 5.99922e-20 -0.000204143 -9.65351e-22 0)
(0.00112088 -0.000236458 5.62151e-20 -0.000234305 2.1375e-20 0)
(0.00119598 -0.000383743 2.00376e-20 -0.000297608 1.97531e-20 0)
(0.00131113 -0.000467154 -1.57416e-19 -0.000387493 -4.66363e-20 0)
(0.00143517 -0.000545955 -1.03261e-19 -0.000484178 -4.5209e-20 0)
(0.00121992 -7.54565e-05 0 -0.000252376 0 0)
(0.00124697 -0.000195897 5.04186e-20 -0.00028002 8.264e-21 0)
(0.00129614 -0.000325979 7.46963e-20 -0.000329983 -1.36513e-20 0)
(0.00137071 -0.000403004 6.63339e-21 -0.000401288 -2.7167e-20 0)
(0.00144767 -0.00046886 8.75662e-20 -0.000471909 1.96715e-20 0)
(0.00127739 -5.67882e-05 6.51803e-20 -0.000244573 -7.45907e-21 0)
(0.00129815 -0.000147527 7.27569e-20 -0.00027035 1.57082e-21 0)
(0.00133448 -0.000243011 9.12428e-20 -0.000314775 1.19982e-20 0)
(0.00139496 -0.000303132 -9.31778e-20 -0.000384073 -2.67362e-20 0)
(0.00145442 -0.000351731 -1.36521e-20 -0.000451668 1.121e-20 0)
(0.00133928 -4.21968e-05 -7.19966e-27 -0.000217572 -1.45348e-28 0)
(0.00135359 -0.00010778 -6.23775e-20 -0.000244723 3.81663e-21 0)
(0.00137851 -0.000178984 3.59626e-20 -0.000290746 1.93186e-20 0)
(0.00141667 -0.000221658 -1.3745e-20 -0.000358932 8.27912e-21 0)
(0.00145898 -0.000253127 2.51958e-22 -0.000430053 1.66002e-20 0)
(0.00132654 -1.52428e-05 -3.4913e-20 -0.000127862 6.07276e-22 -7.71486e-36)
(0.00134168 -3.73628e-05 -5.51451e-20 -0.000162111 -1.46879e-20 -1.80956e-35)
(0.00136552 -6.40053e-05 -1.79709e-20 -0.000215508 -7.39529e-21 -1.88704e-36)
(0.00140321 -7.79149e-05 -2.76447e-20 -0.000302221 -1.92199e-20 -2.82982e-36)
(0.00144038 -9.33293e-05 1.08552e-20 -0.000382974 2.05439e-21 -1.04522e-36)
(0.00221808 -0.000551594 -1.92582e-19 -0.00134313 -1.29112e-19 0)
(0.00223923 -0.000428748 -5.28615e-20 -0.00127818 -4.90422e-20 0)
(0.00238676 -0.000336581 3.03557e-19 -0.00132541 9.45764e-20 0)
(0.00247357 -0.000249829 2.26347e-19 -0.00129176 5.53293e-20 0)
(0.00258943 -0.000170509 -2.13182e-19 -0.00131435 -1.13143e-19 0)
(0.00267731 -0.0001093 1.69513e-19 -0.0012833 1.36231e-19 0)
(0.00278892 -5.66633e-05 5.98022e-20 -0.00130156 9.41016e-20 0)
(0.00290123 -2.47618e-05 1.04407e-19 -0.00128886 8.02389e-20 0)
(0.00305412 -4.92612e-06 1.55201e-19 -0.00133814 8.70159e-20 0)
(0.00323557 6.51663e-07 -1.55608e-19 -0.00137782 -4.56897e-20 1.34265e-35)
(0.0019972 -0.000561333 -8.78489e-20 -0.00108695 -4.10781e-20 0)
(0.00213751 -0.00053299 -6.17333e-34 -0.00110883 -4.65259e-34 0)
(0.0022765 -0.000464124 6.39914e-20 -0.00115674 1.96766e-20 0)
(0.0023914 -0.000414273 -1.67532e-19 -0.00116282 -8.58976e-20 0)
(0.00251001 -0.000350723 -4.30609e-20 -0.00119704 -1.82765e-20 0)
(0.00262108 -0.00029305 -1.23751e-19 -0.00120046 -7.19093e-20 0)
(0.00274319 -0.000233799 6.47584e-20 -0.00123798 3.67215e-20 0)
(0.00286951 -0.000173244 -1.35481e-19 -0.00125324 -7.46727e-20 0)
(0.00301951 -0.000112558 2.77643e-19 -0.00131235 1.72651e-19 0)
(0.00318564 -4.01914e-05 1.25977e-19 -0.0013585 5.01762e-20 1.48261e-35)
(0.00178404 -0.000746474 -2.83939e-19 -0.000878326 -1.14085e-19 0)
(0.00190619 -0.000697392 1.10484e-19 -0.000902523 4.99074e-20 0)
(0.00202053 -0.000638221 3.49146e-19 -0.000957356 1.59474e-19 0)
(0.00213698 -0.000572436 -2.89189e-19 -0.000974722 -1.44005e-19 0)
(0.00225439 -0.000504354 1.37835e-19 -0.00102873 7.59922e-20 0)
(0.00236882 -0.000428117 7.36161e-20 -0.00104521 5.60258e-20 0)
(0.0024935 -0.000350849 -1.20784e-19 -0.00110235 -8.14306e-20 0)
(0.0026181 -0.000262341 -1.72017e-19 -0.00112718 -1.061e-19 0)
(0.00275867 -0.000170233 -1.64028e-19 -0.00119515 -1.11855e-19 0)
(0.0029054 -6.01634e-05 1.65961e-20 -0.00123739 3.3512e-20 9.90211e-36)
(0.00167608 -0.000681623 2.96488e-19 -0.00072498 1.09308e-19 0)
(0.00179699 -0.000653631 -1.20395e-19 -0.000768159 -5.67438e-20 0)
(0.00191254 -0.00061503 4.51493e-20 -0.000835975 8.71207e-21 0)
(0.00202476 -0.000570375 4.77985e-20 -0.00087101 9.33384e-21 0)
(0.00213535 -0.000513333 -4.6353e-29 -0.000931683 -5.9291e-29 0)
(0.00224142 -0.000449548 5.29133e-20 -0.000962082 1.09029e-20 0)
(0.00235011 -0.000373606 5.54789e-20 -0.00101912 1.17065e-20 0)
(0.0024561 -0.00028654 1.97094e-19 -0.0010497 1.02339e-19 0)
(0.00256696 -0.000186017 6.86693e-20 -0.00110725 8.17924e-20 0)
(0.00267806 -6.8301e-05 5.39916e-20 -0.00114209 4.21832e-20 1.24643e-35)
(0.00160003 -0.000663236 -2.71148e-20 -0.000632621 -4.37454e-20 0)
(0.00169087 -0.000640338 3.99163e-20 -0.000673967 1.70904e-21 0)
(0.00177636 -0.000610931 9.80755e-20 -0.000729485 5.3887e-20 0)
(0.00186815 -0.000567349 -4.89021e-21 -0.000768122 -5.08144e-20 0)
(0.00195223 -0.000515302 1.33839e-19 -0.000820751 6.4343e-20 0)
(0.00203898 -0.000450127 -4.81343e-20 -0.000854891 -4.28004e-21 0)
(0.00212023 -0.000375739 -9.22688e-20 -0.00090405 -1.28563e-19 0)
(0.0022019 -0.000286238 1.5594e-19 -0.000934198 1.70619e-20 0)
(0.00227845 -0.000185776 1.01386e-19 -0.000978993 7.87582e-20 0)
(0.00235324 -6.70658e-05 8.8356e-20 -0.00100412 4.07455e-20 1.20395e-35)
(0.00156614 -0.000555772 8.05699e-20 -0.000576772 4.26061e-20 0)
(0.00163835 -0.000536319 8.69006e-22 -0.000617887 4.62913e-20 0)
(0.00170873 -0.000518413 -1.17486e-19 -0.000669715 -4.96501e-20 0)
(0.00178323 -0.000482557 -7.28212e-20 -0.000709789 -5.2432e-20 0)
(0.00184909 -0.00044178 1.18164e-19 -0.000757151 1.65734e-19 0)
(0.00191672 -0.000386943 4.52479e-20 -0.000791524 1.44836e-21 0)
(0.00197532 -0.000323803 -3.09945e-19 -0.000832583 -2.50058e-19 0)
(0.00203251 -0.000246888 -5.14039e-20 -0.000858952 5.82841e-20 0)
(0.00208035 -0.000159818 2.8389e-21 -0.000891279 1.91076e-19 0)
(0.00212336 -5.78784e-05 -7.92937e-20 -0.000907037 2.95362e-20 8.72735e-36)
(0.00154047 -0.000478666 8.60456e-20 -0.000546629 6.61216e-20 0)
(0.0015847 -0.000463261 1.03117e-19 -0.000578447 4.18557e-20 0)
(0.00163506 -0.000448284 -6.45843e-20 -0.000621798 -4.59321e-20 0)
(0.00168418 -0.00041556 -7.95168e-20 -0.000655331 4.77345e-22 0)
(0.00172831 -0.000381419 6.05746e-29 -0.000693505 5.45373e-29 0)
(0.00177272 -0.000331349 8.36972e-20 -0.000723086 1.12613e-21 0)
(0.00180722 -0.000278556 1.73299e-21 -0.000753611 5.46331e-20 0)
(0.00184203 -0.000209833 -8.69697e-20 -0.000775631 -3.07301e-21 0)
(0.00186356 -0.000135856 -1.7395e-20 -0.000795829 5.6702e-20 0)
(0.00187988 -4.84209e-05 1.04431e-19 -0.000803896 3.24148e-20 9.5779e-36)
(0.00152325 -0.000364614 -3.38356e-21 -0.000518465 8.99361e-21 0)
(0.00155426 -0.00034627 3.66914e-20 -0.000548355 1.30707e-21 0)
(0.00158559 -0.000332747 1.8317e-19 -0.000585477 8.96904e-20 0)
(0.00162349 -0.000308425 -1.29402e-20 -0.000616904 -4.37493e-20 0)
(0.00165147 -0.000280126 -9.03633e-21 -0.00065088 -4.59594e-20 0)
(0.00168298 -0.000242754 1.2292e-19 -0.000677387 5.48931e-20 0)
(0.00170146 -0.000199893 4.01662e-20 -0.000703551 2.75371e-21 0)
(0.00171662 -0.000147849 -8.9904e-21 -0.00071981 5.00754e-20 0)
(0.00172297 -9.45683e-05 1.57365e-20 -0.000734017 -5.07173e-20 0)
(0.00171957 -3.2663e-05 8.7504e-20 -0.000736057 -4.84701e-20 2.86438e-35)
(0.00149734 -0.000258631 -1.36174e-20 -0.000489026 -1.29722e-20 0)
(0.00150204 -0.000240838 -1.71379e-19 -0.000514753 -8.54128e-20 0)
(0.0015381 -0.000235693 -1.22716e-20 -0.000553628 -3.6499e-20 0)
(0.00156148 -0.000210563 8.22797e-20 -0.000585751 4.78423e-20 0)
(0.00157704 -0.000190031 -8.03763e-20 -0.000613187 -5.01127e-20 0)
(0.00159402 -0.000159055 -1.57428e-33 -0.000639217 -6.01956e-34 0)
(0.00159721 -0.000125381 1.78194e-19 -0.000656838 1.949e-19 0)
(0.00161167 -9.26904e-05 3.80466e-20 -0.000676116 5.4782e-21 0)
(0.00161082 -5.38105e-05 -1.6945e-21 -0.000684742 -1.40262e-19 0)
(0.0016034 -1.90731e-05 -2.15819e-20 -0.000687588 -2.5396e-20 7.50401e-36)
(0.00146839 -9.00896e-05 5.54434e-20 -0.000454197 6.4572e-20 -5.14783e-36)
(0.00148899 -8.78062e-05 -4.03362e-20 -0.000490059 -4.66026e-20 -3.80886e-36)
(0.00150648 -8.53806e-05 -2.26632e-20 -0.000530257 -3.917e-20 -1.89953e-49)
(0.00151834 -7.30488e-05 3.21066e-21 -0.000561332 3.14077e-20 3.03176e-37)
(0.00153367 -6.51478e-05 0 -0.000593528 0 0)
(0.00154195 -5.06002e-05 -3.64008e-20 -0.000618071 -1.85892e-20 -6.8745e-36)
(0.00155508 -4.00049e-05 -1.7035e-20 -0.000640905 -4.73436e-20 -4.75935e-50)
(0.00156123 -2.66859e-05 3.99715e-20 -0.000656538 -2.29177e-20 -1.13233e-35)
(0.00156123 -1.24333e-05 1.8428e-20 -0.000665314 7.9928e-21 -1.74011e-36)
(0.00155965 -3.92154e-06 0 -0.000667986 0 0)
(0.00381232 0.000231066 -8.35552e-20 -0.00118877 -6.4903e-20 0)
(0.00342763 0.000324946 4.24329e-20 -0.000948361 8.11047e-20 0)
(0.00309798 0.000400809 3.80874e-25 -0.000904736 4.26794e-25 0)
(0.00280922 0.000427036 -8.74328e-20 -0.000826803 -4.89311e-20 0)
(0.00250512 0.000416365 7.86858e-20 -0.000799608 4.70305e-20 0)
(0.00224149 0.000394029 -2.54523e-19 -0.000736708 -2.54739e-19 0)
(0.00193274 0.000346136 2.00772e-19 -0.00070048 2.65973e-19 0)
(0.00163245 0.000282266 3.20692e-19 -0.00060938 2.59226e-19 0)
(0.00125442 0.00019444 -8.32799e-20 -0.000519646 -3.33327e-20 0)
(0.000846824 7.59814e-05 2.03261e-19 -0.000350135 6.546e-20 3.55627e-35)
(0.0035344 0.000515618 3.14048e-19 -0.00158942 2.09866e-19 0)
(0.00344905 0.000670575 2.05818e-19 -0.00149296 1.00932e-19 0)
(0.00327864 0.000757062 2.23463e-19 -0.0014244 2.30181e-19 0)
(0.0030772 0.000778946 -5.75757e-19 -0.0012511 -5.19156e-19 0)
(0.00285457 0.000789879 -4.94226e-21 -0.00120171 -3.18822e-21 0)
(0.00264799 0.000768259 4.94089e-19 -0.00108692 3.25565e-19 0)
(0.00240816 0.000689958 1.5414e-20 -0.00102809 -1.57609e-19 0)
(0.00217897 0.000572423 -4.75152e-19 -0.000905297 -1.74614e-19 0)
(0.00191865 0.000397456 -3.72552e-19 -0.000834001 -2.30103e-19 0)
(0.00165024 0.000157132 5.12819e-20 -0.000689986 4.83062e-20 -2.55952e-37)
(0.00332953 0.0003429 1.637e-19 -0.00180016 1.47976e-19 0)
(0.00332811 0.000451667 1.25343e-19 -0.00172634 1.21518e-19 0)
(0.00320384 0.000518434 4.94567e-19 -0.00163486 2.90193e-19 0)
(0.00311207 0.000569478 5.08624e-19 -0.00147398 2.67358e-19 0)
(0.00299293 0.000605477 -7.62478e-19 -0.00141855 -4.30116e-19 0)
(0.00288389 0.000622595 1.74223e-19 -0.00130574 4.68912e-20 0)
(0.00274744 0.00057485 1.07959e-18 -0.00125237 7.42486e-19 0)
(0.00262223 0.000490377 1.94348e-19 -0.00113959 2.40696e-19 0)
(0.00249916 0.000340964 -3.26501e-19 -0.00110008 -1.45325e-19 0)
(0.00238562 0.000137839 -2.86568e-19 -0.00100604 -1.2273e-20 5.54121e-36)
(0.0028576 8.33525e-06 -6.13778e-19 -0.00153022 -3.00312e-19 0)
(0.00294146 0.00013679 7.42964e-19 -0.00150755 4.34083e-19 0)
(0.00295249 0.000225642 6.22029e-19 -0.00152362 3.30529e-19 0)
(0.00299629 0.000336959 -4.87513e-19 -0.00147285 -1.13168e-19 0)
(0.002994 0.000393274 1.07124e-19 -0.00147149 1.16265e-19 0)
(0.00297074 0.000450669 -7.48955e-20 -0.00138462 -2.15964e-19 0)
(0.0029327 0.000437304 -6.66386e-19 -0.00136172 -4.27649e-19 0)
(0.00288298 0.000393122 9.41818e-20 -0.00126841 1.12879e-19 0)
(0.00285806 0.00028184 2.00447e-19 -0.00125986 2.34943e-19 0)
(0.00284266 0.00011559 -3.20914e-19 -0.00120296 -6.67726e-20 2.56688e-35)
(0.00247741 -0.000231268 -3.21397e-19 -0.0014555 -5.42277e-20 0)
(0.00259301 -0.000116819 -2.50487e-19 -0.00143822 -1.19568e-19 0)
(0.00268671 -4.93438e-05 3.55701e-19 -0.00148449 3.06879e-19 0)
(0.00275928 5.21156e-05 2.83947e-19 -0.00144053 1.48924e-19 0)
(0.00283873 0.000117638 4.74972e-19 -0.00146326 1.64946e-19 0)
(0.00288127 0.000183879 7.31627e-19 -0.0013994 4.24469e-19 0)
(0.00294506 0.000212806 -3.84873e-19 -0.00140109 -2.66384e-19 0)
(0.00299155 0.00020594 -7.15124e-19 -0.00134201 -3.74932e-19 0)
(0.00308643 0.00015961 -8.99619e-20 -0.00136353 -8.98829e-20 0)
(0.00320406 6.36981e-05 1.19019e-19 -0.00136265 -3.17491e-21 -1.01327e-36)
)
;

boundaryField
{
    back
    {
        type            empty;
    }
    left
    {
        type            symmetry;
    }
    hole
    {
        type            calculated;
        value           nonuniform List<symmTensor> 10((0.0121874 -0.00176983 1.03293e-18 -0.0101611 -8.12931e-20 5.06209e-37) (0.00719277 -0.00315243 -2.57599e-19 -0.00518122 1.96502e-20 3.22617e-35) (0.00286771 -0.00196173 -5.41147e-19 -0.00105575 2.2415e-19 9.14765e-35) (0.00135966 -0.0014186 -1.35259e-19 -8.59599e-05 9.83692e-20 -5.50021e-35) (0.000463537 -0.000822792 1.33391e-20 0.000202902 -2.04759e-20 -1.62488e-39) (2.20493e-05 -8.94125e-05 2.50591e-20 5.03723e-05 -3.04961e-20 1.33762e-36) (2.94228e-05 0.000485565 3.50408e-19 -0.000465392 -5.80462e-19 5.284e-35) (0.000339772 0.000782317 2.08059e-19 -0.00122486 -5.02298e-19 -5.41485e-35) (0.000713232 0.000659463 8.99768e-20 -0.0018753 -3.48985e-19 -3.77064e-35) (0.000969228 0.000257995 1.56265e-20 -0.0022886 -2.20339e-19 -8.94375e-36));
    }
    front
    {
        type            empty;
    }
    down
    {
        type            symmetry;
    }
    right
    {
        type            calculated;
        value           nonuniform List<symmTensor> 
15
(
(0.00133129 -1.19509e-12 5.25855e-28 -0.000127862 6.07276e-22 -7.71486e-36)
(0.00134597 -3.43112e-12 6.42854e-28 -0.000162111 -1.46879e-20 -1.80956e-35)
(0.00136885 -5.60425e-12 1.89405e-28 -0.000215508 -7.39529e-21 -1.88704e-36)
(0.00140602 -7.45021e-12 -3.18847e-28 -0.000302221 -1.92199e-20 -2.82982e-36)
(0.00144063 -9.47021e-12 -5.05589e-28 -0.000382974 2.05439e-21 -1.04522e-36)
(0.00147115 -1.09126e-11 2.48512e-27 -0.000454197 6.4572e-20 -5.14783e-36)
(0.00148652 -1.1658e-11 -1.61489e-27 -0.000490059 -4.66026e-20 -3.80886e-36)
(0.00150375 -1.23197e-11 -1.82011e-27 -0.000530257 -3.917e-20 -1.89953e-49)
(0.00151706 -1.26984e-11 1.96484e-27 -0.000561332 3.14077e-20 3.03176e-37)
(0.00153086 -1.32353e-11 0 -0.000593528 0 0)
(0.00154138 -1.44533e-11 1.36767e-28 -0.000618071 -1.85892e-20 -6.8745e-36)
(0.00155117 -1.71937e-11 -2.5402e-27 -0.000640905 -4.73436e-20 -4.75935e-50)
(0.00155787 -2.20923e-11 -3.40315e-27 -0.000656538 -2.29177e-20 -1.13233e-35)
(0.00156163 -3.32981e-11 -1.06438e-28 -0.000665314 7.9928e-21 -1.74011e-36)
(0.00156277 -4.45078e-11 0 -0.000667986 0 0)
)
;
    }
    up
    {
        type            calculated;
        value           nonuniform List<symmTensor> 
15
(
(0.00323557 3.15871e-11 -1.55608e-19 -0.00138667 -4.74617e-28 1.34265e-35)
(0.00318564 1.94615e-11 1.25977e-19 -0.00136527 8.93548e-28 1.48261e-35)
(0.0029054 1.19469e-11 1.65961e-20 -0.00124517 2.38182e-28 9.90211e-36)
(0.00267806 6.21167e-12 5.39916e-20 -0.00114774 6.59735e-28 1.24643e-35)
(0.00235324 2.68504e-12 8.8356e-20 -0.00100853 5.70448e-28 1.20395e-35)
(0.00212336 1.4455e-12 -7.92937e-20 -0.000910011 3.88109e-29 8.72735e-36)
(0.00187988 2.77283e-12 1.04431e-19 -0.000805665 1.97504e-28 9.5779e-36)
(0.00171957 5.66437e-12 8.7504e-20 -0.000736957 1.32728e-27 2.86438e-35)
(0.0016034 1.43881e-11 -2.15819e-20 -0.000687173 4.14065e-28 7.50401e-36)
(0.00155965 3.8259e-11 0 -0.000668421 0 0)
(0.000846824 8.42092e-12 2.03261e-19 -0.000362924 -2.10297e-27 3.55627e-35)
(0.00165024 2.30299e-11 5.12819e-20 -0.000707247 1.48643e-27 -2.55952e-37)
(0.00238562 3.29295e-11 -2.86568e-19 -0.00102241 2.82972e-27 5.54121e-36)
(0.00284266 3.80346e-11 -3.20914e-19 -0.00121828 -1.94634e-28 2.56688e-35)
(0.00320406 3.98151e-11 1.19019e-19 -0.00137317 -2.48962e-27 -1.01327e-36)
)
;
    }
}


// ************************************************************************* //
