/*--------------------------------*- C++ -*----------------------------------*\
| =========                 |                                                 |
| \\      /  F ield         | OpenFOAM: The Open Source CFD Toolbox           |
|  \\    /   O peration     | Version:  v2012                                 |
|   \\  /    A nd           | Website:  www.openfoam.com                      |
|    \\/     M anipulation  |                                                 |
\*---------------------------------------------------------------------------*/
FoamFile
{
    version     2.0;
    format      ascii;
    class       volScalarField;
    location    "11";
    object      epsilonEq;
}
// * * * * * * * * * * * * * * * * * * * * * * * * * * * * * * * * * * * * * //

dimensions      [0 0 0 0 0 0 0];


internalField   nonuniform List<scalar> 
250
(
0.0128917
0.0100503
0.00706011
0.00520594
0.00365996
0.0078744
0.00554008
0.00409734
0.00353133
0.00306917
0.00319158
0.00240839
0.00246685
0.00267078
0.00281021
0.00195239
0.0019863
0.00225919
0.00240633
0.00247381
0.00114131
0.00156003
0.00187546
0.0021497
0.0022172
0.000558161
0.00123261
0.00160115
0.00186568
0.00197304
0.000815564
0.00108324
0.00139869
0.00153098
0.00168642
0.00134366
0.00111022
0.00115314
0.00117992
0.00127627
0.00170568
0.00118615
0.000965346
0.000860211
0.000858131
0.00191922
0.00127107
0.000858743
0.000652632
0.000480968
0.000433037
0.000840051
0.00123926
0.00165217
0.00202794
0.000440458
0.000780964
0.00112609
0.00144161
0.00169803
0.000512193
0.000749156
0.00108048
0.00136811
0.00166148
0.000605631
0.000765188
0.00100818
0.00122108
0.00146468
0.000733279
0.000842077
0.00104183
0.00121952
0.00140705
0.000806025
0.000879804
0.0010147
0.00116084
0.00131373
0.000913326
0.000965552
0.00106152
0.00116946
0.0012756
0.00094602
0.000983084
0.00104926
0.00113624
0.00121973
0.000974735
0.00100182
0.00105023
0.00111388
0.00118006
0.000930079
0.00095407
0.000992788
0.00105465
0.00111537
0.00217213
0.00211466
0.00220672
0.00222808
0.00230201
0.00233681
0.00241401
0.0024783
0.00259959
0.00273458
0.00191907
0.00200231
0.002087
0.00214648
0.00222177
0.00228184
0.00236809
0.00244867
0.00256821
0.00269372
0.00178797
0.0018412
0.00190384
0.00195309
0.00202461
0.00207948
0.00216546
0.0022393
0.00234971
0.0024566
0.00162533
0.00169723
0.00177517
0.00183762
0.00190994
0.00196777
0.00204128
0.00210384
0.00218697
0.00226559
0.00153365
0.00158926
0.00164697
0.00169713
0.00174913
0.00179372
0.00184427
0.00188843
0.00194181
0.00199136
0.00143224
0.00148192
0.00153751
0.00158437
0.00162999
0.00166888
0.00170675
0.00173814
0.0017705
0.00179721
0.00136647
0.00139943
0.00144216
0.00147387
0.00150599
0.00153139
0.0015533
0.00157134
0.0015839
0.00159143
0.00129575
0.00132135
0.00135275
0.00138294
0.00140812
0.0014311
0.00144635
0.00145543
0.00146043
0.00145565
0.00123181
0.00124155
0.0012807
0.00130452
0.00132303
0.0013407
0.0013464
0.00136138
0.00136224
0.00135765
0.001165
0.00119444
0.00122408
0.00124522
0.00126972
0.00128588
0.00130478
0.00131582
0.00131981
0.00132003
0.00302869
0.00268456
0.00246764
0.00225537
0.00204811
0.00184802
0.00162473
0.00137761
0.0010768
0.000716016
0.00308642
0.00302752
0.00291874
0.00272475
0.00257292
0.00238906
0.00218684
0.00194629
0.00169324
0.00140033
0.00303115
0.00301213
0.00290452
0.0027823
0.00269282
0.00257771
0.00245393
0.00229825
0.0021658
0.00201773
0.00257168
0.0026175
0.0026407
0.00265838
0.00266658
0.00262171
0.0025839
0.00249808
0.00245807
0.00240255
0.00231155
0.0023629
0.00244202
0.00246502
0.00252937
0.00252926
0.00257325
0.0025727
0.00263903
0.0027081
)
;

boundaryField
{
    back
    {
        type            empty;
    }
    left
    {
        type            symmetry;
    }
    hole
    {
        type            calculated;
        value           nonuniform List<scalar> 10(0.0130812 0.00804602 0.00325993 0.00188682 0.000987239 0.000107283 0.00064583 0.00131114 0.00172146 0.00195448);
    }
    front
    {
        type            empty;
    }
    down
    {
        type            symmetry;
    }
    right
    {
        type            calculated;
        value           nonuniform List<scalar> 
15
(
0.000933073
0.000955943
0.000992238
0.00105265
0.00111031
0.00116214
0.00118853
0.00121834
0.00124153
0.00126569
0.00128419
0.00130146
0.00131331
0.00131998
0.00132201
)
;
    }
    up
    {
        type            calculated;
        value           nonuniform List<scalar> 
15
(
0.00273889
0.00269662
0.00245941
0.00226697
0.001992
0.00179741
0.00159131
0.0014556
0.00135727
0.00132024
0.000716832
0.00139692
0.00201942
0.0024063
0.00271222
)
;
    }
}


// ************************************************************************* //
