/*--------------------------------*- C++ -*----------------------------------*\
| =========                 |                                                 |
| \\      /  F ield         | OpenFOAM: The Open Source CFD Toolbox           |
|  \\    /   O peration     | Version:  v2012                                 |
|   \\  /    A nd           | Website:  www.openfoam.com                      |
|    \\/     M anipulation  |                                                 |
\*---------------------------------------------------------------------------*/
FoamFile
{
    version     2.0;
    format      ascii;
    class       pointVectorField;
    location    "11";
    object      pointD;
}
// * * * * * * * * * * * * * * * * * * * * * * * * * * * * * * * * * * * * * //

dimensions      [0 1 0 0 0 0 0];


internalField   nonuniform List<vector> 
572
(
(0.0037579 0 8.24246e-22)
(0.00498274 0 4.59323e-21)
(0.00455823 -0.000381104 0)
(0 -0.0029032 -1.38391e-21)
(0 -0.00157078 9.11051e-22)
(0.00384583 0 0)
(0 -0.00271536 0)
(0.00244932 -0.000758156 0)
(0.00114033 -0.00139974 2.08422e-21)
(0.00483276 -8.06629e-05 -1.06057e-20)
(0.00291312 -0.00119868 5.52316e-21)
(0.00291312 -0.00119868 5.52316e-21)
(0.00244932 -0.000758156 0)
(0 -0.00271536 0)
(0 -0.00157078 9.11051e-22)
(0.0037579 0 8.24246e-22)
(0.00384583 0 0)
(0.00498274 0 4.59323e-21)
(0.00483276 -8.06629e-05 -1.06057e-20)
(0.00455823 -0.000381104 0)
(0.00114033 -0.00139974 2.08422e-21)
(0 -0.0029032 -1.38391e-21)
(0.000489403 -0.00250222 0)
(0.000976612 -0.00203302 0)
(0.00146375 -0.00157445 0)
(0.00194828 -0.00115959 0)
(0.00292191 -0.000456431 0)
(0.00330284 -0.000254217 0)
(0.00359708 -0.000125959 0)
(0.00378375 -4.90948e-05 0)
(0.00378727 0 0)
(0.00380916 0 0)
(0.0038228 0 0)
(0.00383252 0 0)
(0.00387886 0 0)
(0.00393759 0 0)
(0.00401823 0 0)
(0.00411805 0 0)
(0.00424016 0 0)
(0.0043755 0 0)
(0.00452813 0 0)
(0.00468814 0 0)
(0.00485606 0 0)
(0.00501257 -2.16902e-06 1.14186e-20)
(0.00498564 -8.86699e-06 9.38557e-21)
(0.00494231 -2.27488e-05 6.12025e-21)
(0.00488822 -4.81232e-05 2.21497e-21)
(0.00479894 -0.000105799 -2.21872e-21)
(0.00477119 -0.00012909 9.25883e-21)
(0.00474349 -0.000155614 2.85888e-21)
(0.00471762 -0.000184378 -4.71862e-22)
(0.00469276 -0.000215092 5.34971e-21)
(0.00467026 -0.00024732 7.8533e-21)
(0.0046492 -0.000280373 -3.37091e-21)
(0.00463012 -0.000314801 -8.5828e-21)
(0.00461323 -0.000348938 -2.7083e-21)
(0.00436915 -0.000429761 1.19278e-21)
(0.00413539 -0.000467897 3.46927e-21)
(0.0038843 -0.000493786 7.54069e-22)
(0.00360801 -0.00051277 -2.90965e-21)
(0.00329366 -0.000539837 -3.30092e-21)
(0.0029428 -0.000588178 -3.89491e-21)
(0.00254073 -0.000678299 -3.55518e-21)
(0.00210163 -0.000832646 -3.93058e-21)
(0.00161843 -0.00107313 -2.10846e-22)
(0.000780706 -0.00173669 2.56882e-21)
(0.000476563 -0.00209994 2.81379e-21)
(0.000225375 -0.00246049 -9.43233e-22)
(6.3106e-05 -0.00277689 -2.99577e-21)
(0 -0.00289677 0)
(0 -0.00288324 0)
(0 -0.00286769 0)
(0 -0.00285011 0)
(0 -0.00283191 0)
(0 -0.00281242 0)
(0 -0.00279259 0)
(0 -0.00277111 0)
(0 -0.00274894 0)
(0 -0.00265443 0)
(0 -0.00251952 0)
(0 -0.00230248 0)
(0 -0.00193985 0)
(0.00278465 -0.00045315 0)
(0.00304987 -0.000280813 0)
(0.0032973 -0.000197725 0)
(0.00352689 -0.000161536 0)
(0.00375005 -0.000158827 0)
(0.00396957 -0.000164 0)
(0.00418829 -0.00017194 0)
(0.00440603 -0.000165805 0)
(0.00462228 -0.000142366 0)
(0.00224444 -0.000847811 0)
(0.00210875 -0.000907706 0)
(0.00197623 -0.000971343 0)
(0.00185075 -0.00103232 0)
(0.00172852 -0.00109528 0)
(0.00161064 -0.00115575 0)
(0.00149426 -0.00121714 0)
(0.00137841 -0.00127689 0)
(0.00126055 -0.00133841 0)
(0.00104362 -0.00159895 8.71947e-21)
(0.0017492 -0.00178015 -1.74652e-21)
(0.00218171 -0.00169451 -2.97569e-22)
(0.00256952 -0.00145894 9.43833e-21)
(0.00319586 -0.000953203 8.55134e-21)
(0.00343915 -0.000704541 -2.92383e-23)
(0.00360566 -0.000463753 -1.13491e-20)
(0.00371186 -0.000230575 -7.16776e-21)
(0.00275287 -0.00105843 0)
(0.00263469 -0.0009588 0)
(0.00254618 -0.000884154 0)
(0.00248023 -0.000829558 0)
(0.00275287 -0.00105843 0)
(0.00263469 -0.0009588 0)
(0.00254618 -0.000884154 0)
(0.00248023 -0.000829558 0)
(0.00194828 -0.00115959 0)
(0.00146375 -0.00157445 0)
(0.000976612 -0.00203302 0)
(0.000489403 -0.00250222 0)
(0 -0.00265443 0)
(0 -0.00251952 0)
(0 -0.00230248 0)
(0 -0.00193985 0)
(0.00104362 -0.00159895 8.71947e-21)
(0.0017492 -0.00178015 -1.74652e-21)
(0.00218171 -0.00169451 -2.97569e-22)
(0.00256952 -0.00145894 9.43833e-21)
(0.00319586 -0.000953203 8.55134e-21)
(0.00343915 -0.000704541 -2.92383e-23)
(0.00360566 -0.000463753 -1.13491e-20)
(0.00371186 -0.000230575 -7.16776e-21)
(0.00378727 0 0)
(0.00380916 0 0)
(0.0038228 0 0)
(0.00383252 0 0)
(0.00378375 -4.90948e-05 0)
(0.00359708 -0.000125959 0)
(0.00330284 -0.000254217 0)
(0.00292191 -0.000456431 0)
(0.00387886 0 0)
(0.00393759 0 0)
(0.00401823 0 0)
(0.00411805 0 0)
(0.00424016 0 0)
(0.0043755 0 0)
(0.00452813 0 0)
(0.00468814 0 0)
(0.00485606 0 0)
(0.00501257 -2.16902e-06 1.14186e-20)
(0.00498564 -8.86699e-06 9.38557e-21)
(0.00494231 -2.27488e-05 6.12025e-21)
(0.00488822 -4.81232e-05 2.21497e-21)
(0.00462228 -0.000142366 0)
(0.00440603 -0.000165805 0)
(0.00418829 -0.00017194 0)
(0.00396957 -0.000164 0)
(0.00375005 -0.000158827 0)
(0.00352689 -0.000161536 0)
(0.0032973 -0.000197725 0)
(0.00304987 -0.000280813 0)
(0.00278465 -0.00045315 0)
(0.00479894 -0.000105799 -2.21872e-21)
(0.00477119 -0.00012909 9.25883e-21)
(0.00474349 -0.000155614 2.85888e-21)
(0.00471762 -0.000184378 -4.71862e-22)
(0.00469276 -0.000215092 5.34971e-21)
(0.00467026 -0.00024732 7.8533e-21)
(0.0046492 -0.000280373 -3.37091e-21)
(0.00463012 -0.000314801 -8.5828e-21)
(0.00461323 -0.000348938 -2.7083e-21)
(0.00436915 -0.000429761 1.19278e-21)
(0.00413539 -0.000467897 3.46927e-21)
(0.0038843 -0.000493786 7.54069e-22)
(0.00360801 -0.00051277 -2.90965e-21)
(0.00329366 -0.000539837 -3.30092e-21)
(0.0029428 -0.000588178 -3.89491e-21)
(0.00254073 -0.000678299 -3.55518e-21)
(0.00210163 -0.000832646 -3.93058e-21)
(0.00161843 -0.00107313 -2.10846e-22)
(0.00126055 -0.00133841 0)
(0.00137841 -0.00127689 0)
(0.00149426 -0.00121714 0)
(0.00161064 -0.00115575 0)
(0.00172852 -0.00109528 0)
(0.00185075 -0.00103232 0)
(0.00197623 -0.000971343 0)
(0.00210875 -0.000907706 0)
(0.00224444 -0.000847811 0)
(0.000780706 -0.00173669 2.56882e-21)
(0.000476563 -0.00209994 2.81379e-21)
(0.000225375 -0.00246049 -9.43233e-22)
(6.3106e-05 -0.00277689 -2.99577e-21)
(0 -0.00289677 0)
(0 -0.00288324 0)
(0 -0.00286769 0)
(0 -0.00285011 0)
(0 -0.00283191 0)
(0 -0.00281242 0)
(0 -0.00279259 0)
(0 -0.00277111 0)
(0 -0.00274894 0)
(0.00095342 -0.00197867 0)
(0.000825104 -0.0022278 0)
(0.000691569 -0.00236943 0)
(0.000577559 -0.00245998 0)
(0.00157724 -0.00191054 0)
(0.00139171 -0.00196857 0)
(0.00122275 -0.00199523 0)
(0.0010843 -0.00201759 0)
(0.00197718 -0.00166032 0)
(0.00180533 -0.00162168 0)
(0.00166437 -0.00159528 0)
(0.00155479 -0.00157925 0)
(0.00237038 -0.00135623 0)
(0.00222308 -0.00128058 0)
(0.00210845 -0.0012257 0)
(0.00202237 -0.0011842 0)
(0.00308885 -0.000796794 0)
(0.00300771 -0.000687037 0)
(0.00294864 -0.000606152 0)
(0.00290257 -0.000546004 0)
(0.00338645 -0.000557772 0)
(0.00334261 -0.000454338 0)
(0.00331066 -0.000379446 0)
(0.00328438 -0.000321059 0)
(0.00360331 -0.000351679 0)
(0.00359425 -0.000272237 0)
(0.0035869 -0.000215291 0)
(0.00357965 -0.000170288 0)
(0.00374172 -0.000169631 0)
(0.00375509 -0.00012612 0)
(0.00376306 -9.52766e-05 0)
(0.00376818 -7.07263e-05 0)
(0.00382758 -2.92107e-05 0)
(0.00367481 -7.48348e-05 0)
(0.00343285 -0.000157223 0)
(0.00311933 -0.000281761 0)
(0.00389676 -1.78219e-05 0)
(0.00377344 -4.60641e-05 0)
(0.00357484 -0.000100367 0)
(0.00331889 -0.000179824 0)
(0.0039849 -1.53179e-05 0)
(0.0038866 -3.63913e-05 0)
(0.00372645 -7.44608e-05 0)
(0.00351845 -0.000129379 0)
(0.00409044 -1.80653e-05 0)
(0.00400895 -3.99207e-05 0)
(0.00387622 -7.16239e-05 0)
(0.00370581 -0.000114592 0)
(0.00421696 -2.1553e-05 0)
(0.00414973 -4.62349e-05 0)
(0.00403979 -7.75213e-05 0)
(0.00389793 -0.000117581 0)
(0.00435612 -2.51578e-05 0)
(0.00429969 -5.29822e-05 0)
(0.00420809 -8.53357e-05 0)
(0.00409083 -0.000124987 0)
(0.00451164 -2.7097e-05 0)
(0.00446407 -5.69305e-05 0)
(0.00438707 -9.09814e-05 0)
(0.00428867 -0.000131762 0)
(0.00467424 -2.49802e-05 0)
(0.00463435 -5.29312e-05 0)
(0.00457009 -8.55855e-05 0)
(0.0044884 -0.000125481 0)
(0.00484424 -1.84907e-05 0)
(0.00481102 -4.05189e-05 0)
(0.00475748 -6.80562e-05 0)
(0.00468984 -0.000104187 0)
(0.00259808 -0.000542085 0)
(0.00247255 -0.000597315 0)
(0.00235147 -0.000654876 0)
(0.00223508 -0.000711886 0)
(0.00212302 -0.000770303 0)
(0.00201518 -0.000828166 0)
(0.00191101 -0.000887426 0)
(0.0018104 -0.000946852 0)
(0.00171278 -0.00100893 0)
(0.00290264 -0.000349859 0)
(0.00279691 -0.000397093 0)
(0.00269448 -0.000446739 0)
(0.00259525 -0.000496936 0)
(0.00250007 -0.000549205 0)
(0.00240936 -0.000601941 0)
(0.00232346 -0.0006569 0)
(0.00224314 -0.000712801 0)
(0.00216876 -0.000771686 0)
(0.00317316 -0.000249545 0)
(0.00308546 -0.000288779 0)
(0.00299999 -0.000330892 0)
(0.00291795 -0.000374237 0)
(0.0028398 -0.000420274 0)
(0.00276666 -0.000467412 0)
(0.00269907 -0.000517232 0)
(0.00263824 -0.000568352 0)
(0.00258497 -0.000622421 0)
(0.0034281 -0.000204091 0)
(0.00335805 -0.000237957 0)
(0.00328932 -0.000274719 0)
(0.00322365 -0.000313212 0)
(0.00316142 -0.000354365 0)
(0.00310406 -0.000397034 0)
(0.00305225 -0.000442197 0)
(0.00300736 -0.000488786 0)
(0.0029704 -0.000537778 0)
(0.00366947 -0.000194524 0)
(0.00361283 -0.000224861 0)
(0.00355713 -0.000257719 0)
(0.00350438 -0.000292426 0)
(0.00345471 -0.000329481 0)
(0.0034097 -0.000368144 0)
(0.00336986 -0.000408926 0)
(0.00333659 -0.000451036 0)
(0.00331075 -0.000494956 0)
(0.00390454 -0.000197221 0)
(0.00385879 -0.000225315 0)
(0.00381373 -0.000255644 0)
(0.0037713 -0.000287702 0)
(0.00373144 -0.000321768 0)
(0.0036957 -0.000357337 0)
(0.00366437 -0.000394586 0)
(0.00363882 -0.000432972 0)
(0.00361965 -0.000472591 0)
(0.00413384 -0.000203211 0)
(0.00409538 -0.000229673 0)
(0.00405764 -0.000258024 0)
(0.00402206 -0.0002879 0)
(0.0039887 -0.000319471 0)
(0.00395877 -0.000352359 0)
(0.00393252 -0.000386578 0)
(0.00391112 -0.000421696 0)
(0.00389473 -0.000457623 0)
(0.0043598 -0.000195837 0)
(0.00432611 -0.000220636 0)
(0.00429345 -0.000247386 0)
(0.00426272 -0.000275628 0)
(0.00423373 -0.000305313 0)
(0.00420747 -0.000336232 0)
(0.0041837 -0.000368367 0)
(0.00416387 -0.000401148 0)
(0.0041477 -0.000434465 0)
(0.00458167 -0.00017058 0)
(0.00455107 -0.00019401 0)
(0.00452122 -0.000219463 0)
(0.00449334 -0.000246401 0)
(0.00446675 -0.000274739 0)
(0.00444268 -0.000304264 0)
(0.00442021 -0.000334928 0)
(0.00440067 -0.000366223 0)
(0.0043839 -0.000397927 0)
(0.000428428 -0.00254462 0)
(0.000380832 -0.00257852 0)
(0.000340401 -0.00261082 0)
(0.00030286 -0.00264015 0)
(0.00026773 -0.00266848 0)
(0.000233077 -0.00269472 0)
(0.000197118 -0.00271977 0)
(0.000157977 -0.00274222 0)
(0.000113741 -0.00276267 0)
(0.000886569 -0.00208819 0)
(0.000806902 -0.00214179 0)
(0.000733276 -0.00219271 0)
(0.000662393 -0.00223893 0)
(0.000595048 -0.00228344 0)
(0.000528974 -0.0023247 0)
(0.00046137 -0.00236424 0)
(0.000389719 -0.00240038 0)
(0.000310835 -0.00243488 0)
(0.00135904 -0.0016283 0)
(0.00125411 -0.00168982 0)
(0.00115381 -0.00174993 0)
(0.00105731 -0.00180689 0)
(0.000964403 -0.00186274 0)
(0.000873784 -0.00191543 0)
(0.000781984 -0.00196678 0)
(0.000686839 -0.00201473 0)
(0.000584381 -0.00206188 0)
(0.00182719 -0.00120911 0)
(0.00170239 -0.00127013 0)
(0.00158147 -0.00133245 0)
(0.0014661 -0.00139344 0)
(0.00135349 -0.00145514 0)
(0.00124402 -0.00151426 0)
(0.0011338 -0.00157335 0)
(0.00102132 -0.00162975 0)
(0.000902589 -0.00168676 0)
(0.00095342 -0.00197867 0)
(0.000825104 -0.0022278 0)
(0.000691569 -0.00236943 0)
(0.000577559 -0.00245998 0)
(0.00157724 -0.00191054 0)
(0.00139171 -0.00196857 0)
(0.00122275 -0.00199523 0)
(0.0010843 -0.00201759 0)
(0.00197718 -0.00166032 0)
(0.00180533 -0.00162168 0)
(0.00166437 -0.00159528 0)
(0.00155479 -0.00157925 0)
(0.00237038 -0.00135623 0)
(0.00222308 -0.00128058 0)
(0.00210845 -0.0012257 0)
(0.00202237 -0.0011842 0)
(0.00308885 -0.000796794 0)
(0.00300771 -0.000687037 0)
(0.00294864 -0.000606152 0)
(0.00290257 -0.000546004 0)
(0.00338645 -0.000557772 0)
(0.00334261 -0.000454338 0)
(0.00331066 -0.000379446 0)
(0.00328438 -0.000321059 0)
(0.00360331 -0.000351679 0)
(0.00359425 -0.000272237 0)
(0.0035869 -0.000215291 0)
(0.00357965 -0.000170288 0)
(0.00374172 -0.000169631 0)
(0.00375509 -0.00012612 0)
(0.00376306 -9.52766e-05 0)
(0.00376818 -7.07263e-05 0)
(0.00382758 -2.92107e-05 0)
(0.00367481 -7.48348e-05 0)
(0.00343285 -0.000157223 0)
(0.00311933 -0.000281761 0)
(0.00389676 -1.78219e-05 0)
(0.00377344 -4.60641e-05 0)
(0.00357484 -0.000100367 0)
(0.00331889 -0.000179824 0)
(0.0039849 -1.53179e-05 0)
(0.0038866 -3.63913e-05 0)
(0.00372645 -7.44608e-05 0)
(0.00351845 -0.000129379 0)
(0.00409044 -1.80653e-05 0)
(0.00400895 -3.99207e-05 0)
(0.00387622 -7.16239e-05 0)
(0.00370581 -0.000114592 0)
(0.00421696 -2.1553e-05 0)
(0.00414973 -4.62349e-05 0)
(0.00403979 -7.75213e-05 0)
(0.00389793 -0.000117581 0)
(0.00435612 -2.51578e-05 0)
(0.00429969 -5.29822e-05 0)
(0.00420809 -8.53357e-05 0)
(0.00409083 -0.000124987 0)
(0.00451164 -2.7097e-05 0)
(0.00446407 -5.69305e-05 0)
(0.00438707 -9.09814e-05 0)
(0.00428867 -0.000131762 0)
(0.00467424 -2.49802e-05 0)
(0.00463435 -5.29312e-05 0)
(0.00457009 -8.55855e-05 0)
(0.0044884 -0.000125481 0)
(0.00484424 -1.84907e-05 0)
(0.00481102 -4.05189e-05 0)
(0.00475748 -6.80562e-05 0)
(0.00468984 -0.000104187 0)
(0.00259808 -0.000542085 0)
(0.00247255 -0.000597315 0)
(0.00235147 -0.000654876 0)
(0.00223508 -0.000711886 0)
(0.00212302 -0.000770303 0)
(0.00201518 -0.000828166 0)
(0.00191101 -0.000887426 0)
(0.0018104 -0.000946852 0)
(0.00171278 -0.00100893 0)
(0.00290264 -0.000349859 0)
(0.00279691 -0.000397093 0)
(0.00269448 -0.000446739 0)
(0.00259525 -0.000496936 0)
(0.00250007 -0.000549205 0)
(0.00240936 -0.000601941 0)
(0.00232346 -0.0006569 0)
(0.00224314 -0.000712801 0)
(0.00216876 -0.000771686 0)
(0.00317316 -0.000249545 0)
(0.00308546 -0.000288779 0)
(0.00299999 -0.000330892 0)
(0.00291795 -0.000374237 0)
(0.0028398 -0.000420274 0)
(0.00276666 -0.000467412 0)
(0.00269907 -0.000517232 0)
(0.00263824 -0.000568352 0)
(0.00258497 -0.000622421 0)
(0.0034281 -0.000204091 0)
(0.00335805 -0.000237957 0)
(0.00328932 -0.000274719 0)
(0.00322365 -0.000313212 0)
(0.00316142 -0.000354365 0)
(0.00310406 -0.000397034 0)
(0.00305225 -0.000442197 0)
(0.00300736 -0.000488786 0)
(0.0029704 -0.000537778 0)
(0.00366947 -0.000194524 0)
(0.00361283 -0.000224861 0)
(0.00355713 -0.000257719 0)
(0.00350438 -0.000292426 0)
(0.00345471 -0.000329481 0)
(0.0034097 -0.000368144 0)
(0.00336986 -0.000408926 0)
(0.00333659 -0.000451036 0)
(0.00331075 -0.000494956 0)
(0.00390454 -0.000197221 0)
(0.00385879 -0.000225315 0)
(0.00381373 -0.000255644 0)
(0.0037713 -0.000287702 0)
(0.00373144 -0.000321768 0)
(0.0036957 -0.000357337 0)
(0.00366437 -0.000394586 0)
(0.00363882 -0.000432972 0)
(0.00361965 -0.000472591 0)
(0.00413384 -0.000203211 0)
(0.00409538 -0.000229673 0)
(0.00405764 -0.000258024 0)
(0.00402206 -0.0002879 0)
(0.0039887 -0.000319471 0)
(0.00395877 -0.000352359 0)
(0.00393252 -0.000386578 0)
(0.00391112 -0.000421696 0)
(0.00389473 -0.000457623 0)
(0.0043598 -0.000195837 0)
(0.00432611 -0.000220636 0)
(0.00429345 -0.000247386 0)
(0.00426272 -0.000275628 0)
(0.00423373 -0.000305313 0)
(0.00420747 -0.000336232 0)
(0.0041837 -0.000368367 0)
(0.00416387 -0.000401148 0)
(0.0041477 -0.000434465 0)
(0.00458167 -0.00017058 0)
(0.00455107 -0.00019401 0)
(0.00452122 -0.000219463 0)
(0.00449334 -0.000246401 0)
(0.00446675 -0.000274739 0)
(0.00444268 -0.000304264 0)
(0.00442021 -0.000334928 0)
(0.00440067 -0.000366223 0)
(0.0043839 -0.000397927 0)
(0.000428428 -0.00254462 0)
(0.000380832 -0.00257852 0)
(0.000340401 -0.00261082 0)
(0.00030286 -0.00264015 0)
(0.00026773 -0.00266848 0)
(0.000233077 -0.00269472 0)
(0.000197118 -0.00271977 0)
(0.000157977 -0.00274222 0)
(0.000113741 -0.00276267 0)
(0.000886569 -0.00208819 0)
(0.000806902 -0.00214179 0)
(0.000733276 -0.00219271 0)
(0.000662393 -0.00223893 0)
(0.000595048 -0.00228344 0)
(0.000528974 -0.0023247 0)
(0.00046137 -0.00236424 0)
(0.000389719 -0.00240038 0)
(0.000310835 -0.00243488 0)
(0.00135904 -0.0016283 0)
(0.00125411 -0.00168982 0)
(0.00115381 -0.00174993 0)
(0.00105731 -0.00180689 0)
(0.000964403 -0.00186274 0)
(0.000873784 -0.00191543 0)
(0.000781984 -0.00196678 0)
(0.000686839 -0.00201473 0)
(0.000584381 -0.00206188 0)
(0.00182719 -0.00120911 0)
(0.00170239 -0.00127013 0)
(0.00158147 -0.00133245 0)
(0.0014661 -0.00139344 0)
(0.00135349 -0.00145514 0)
(0.00124402 -0.00151426 0)
(0.0011338 -0.00157335 0)
(0.00102132 -0.00162975 0)
(0.000902589 -0.00168676 0)
)
;

boundaryField
{
    back
    {
        type            empty;
    }
    left
    {
        type            symmetry;
    }
    hole
    {
        type            calculated;
    }
    front
    {
        type            empty;
    }
    down
    {
        type            symmetry;
    }
    right
    {
        type            calculated;
    }
    up
    {
        type            calculated;
    }
}


// ************************************************************************* //
