/*--------------------------------*- C++ -*----------------------------------*\
| =========                 |                                                 |
| \\      /  F ield         | OpenFOAM: The Open Source CFD Toolbox           |
|  \\    /   O peration     | Version:  v2012                                 |
|   \\  /    A nd           | Website:  www.openfoam.com                      |
|    \\/     M anipulation  |                                                 |
\*---------------------------------------------------------------------------*/
FoamFile
{
    version     2.0;
    format      ascii;
    class       volVectorField;
    location    "20";
    object      D_0;
}
// * * * * * * * * * * * * * * * * * * * * * * * * * * * * * * * * * * * * * //

dimensions      [0 1 0 0 0 0 0];


internalField   nonuniform List<vector> 
500
(
(0.000711758 -0.000343799 0)
(0.00088999 -0.000288728 0)
(0.00047873 -0.000715372 0)
(0.000555341 -0.000709983 0)
(0.000343398 -0.000954208 0)
(0.000324962 -0.000896237 0)
(0.000226724 -0.0010294 0)
(0.000171186 -0.000949639 0)
(0.00012147 -0.00101825 0)
(9.1769e-05 -0.000947079 0)
(0.000871127 -0.000525041 0)
(0.00093529 -0.000630417 0)
(0.000825446 -0.000676947 0)
(0.000827543 -0.000659552 0)
(0.000670937 -0.000720919 0)
(0.000643331 -0.000638881 0)
(0.000492088 -0.0007216 0)
(0.000468809 -0.000623198 0)
(0.000340562 -0.000719181 0)
(0.000334887 -0.000620295 0)
(0.00103601 -0.000582714 0)
(0.00101537 -0.000518061 0)
(0.000899556 -0.00052093 0)
(0.000878753 -0.000448495 0)
(0.000752603 -0.000477312 0)
(0.000737624 -0.000401801 0)
(0.000619786 -0.000449056 0)
(0.000608592 -0.000366134 0)
(0.000504837 -0.000431662 0)
(0.000509815 -0.000348001 0)
(0.00100588 -0.000419281 0)
(0.000992536 -0.000362541 0)
(0.000920312 -0.000351352 0)
(0.000918608 -0.000295596 0)
(0.000818714 -0.000296777 0)
(0.000824074 -0.000230214 0)
(0.000713938 -0.000251735 0)
(0.000723703 -0.000172132 0)
(0.000619077 -0.000209667 0)
(0.000631227 -0.000127291 0)
(0.00104901 -0.000271536 0)
(0.00105333 -0.000208214 0)
(0.000975075 -0.000208311 0)
(0.000988668 -0.000144069 0)
(0.000898564 -0.000159312 0)
(0.00091645 -8.30798e-05 0)
(0.000821677 -0.00012648 0)
(0.000841256 -2.41965e-05 0)
(0.000750406 -0.000112963 0)
(0.000770087 2.92103e-05 0)
(0.00109378 -0.000139268 0)
(0.00110657 -9.1936e-05 0)
(0.00104339 -9.06834e-05 0)
(0.0010666 -3.23621e-05 0)
(0.000994894 -4.93706e-05 0)
(0.00102324 3.09942e-05 0)
(0.000956794 -2.74413e-05 0)
(0.000979983 0.000100728 0)
(0.000928116 -4.8224e-05 0)
(0.000919018 0.000171023 0)
(0.0011003 -5.41291e-05 0)
(0.00110533 -3.06638e-05 0)
(0.0010786 -3.78589e-05 0)
(0.00109398 6.18442e-06 0)
(0.00104724 -2.7046e-05 0)
(0.00107571 5.44483e-05 0)
(0.0010063 -2.2037e-05 0)
(0.00105002 0.000117623 0)
(0.000941797 -6.12251e-06 0)
(0.000995116 0.000195442 0)
(0.00107412 -1.57025e-05 0)
(0.0010711 -6.26513e-06 0)
(0.00107017 -2.08136e-05 0)
(0.00107607 9.24861e-06 0)
(0.00105528 -2.41278e-05 0)
(0.00107533 3.88505e-05 0)
(0.00102931 -2.14097e-05 0)
(0.00106613 8.24284e-05 0)
(0.000978324 -3.95391e-06 0)
(0.00103273 0.00014234 0)
(0.00104281 -2.98946e-06 0)
(0.00103705 4.31371e-06 0)
(0.00104702 -1.45019e-05 0)
(0.00104606 8.12441e-06 0)
(0.00104481 -2.43978e-05 0)
(0.00105364 2.03e-05 0)
(0.00103483 -2.7408e-05 0)
(0.00105611 4.0631e-05 0)
(0.00100697 -1.63986e-05 0)
(0.00104188 7.28259e-05 0)
(0.00103342 -4.03618e-07 0)
(0.00103132 1.30081e-05 0)
(0.00103903 -1.07003e-05 0)
(0.00103541 1.45354e-05 0)
(0.00104378 -2.18383e-05 0)
(0.00104272 1.52402e-05 0)
(0.00104624 -2.71206e-05 0)
(0.0010489 1.64926e-05 0)
(0.00104078 -2.00777e-05 0)
(0.00104457 2.16228e-05 0)
(0.00102825 1.45944e-05 0)
(0.00102214 4.26821e-05 0)
(0.00100546 5.74687e-05 0)
(0.00100619 8.88487e-05 0)
(0.000982963 8.84815e-05 0)
(0.000995584 0.000119307 0)
(0.000962333 0.000102929 0)
(0.000978218 0.000136866 0)
(0.000952613 1.33534e-05 0)
(0.000945648 8.32928e-05 0)
(0.000990798 -7.12764e-06 0)
(0.00096965 3.64911e-05 0)
(0.000968028 -8.18078e-06 0)
(0.000950962 3.2104e-05 0)
(0.000951452 -5.28133e-05 0)
(0.000937259 -1.40083e-05 0)
(0.000915463 -0.00014918 0)
(0.00091029 -0.000114954 0)
(0.000792585 -0.000247194 0)
(0.000801254 -0.00022862 0)
(0.000957471 -2.65715e-05 0)
(0.000937246 2.31024e-05 0)
(0.000927786 -6.7442e-05 0)
(0.000916656 -2.68849e-05 0)
(0.000890252 -0.000133526 0)
(0.000888162 -9.90988e-05 0)
(0.000797079 -0.000206047 0)
(0.000802749 -0.000181781 0)
(0.000654029 -0.000247302 0)
(0.000660925 -0.000232938 0)
(0.000932159 -3.38223e-05 0)
(0.000916387 1.51096e-05 0)
(0.000883113 -8.60506e-05 0)
(0.000877688 -4.78506e-05 0)
(0.000812636 -0.00013512 0)
(0.000816797 -0.000109684 0)
(0.000707273 -0.000170545 0)
(0.000714505 -0.000155598 0)
(0.000596674 -0.000196007 0)
(0.000602498 -0.000185732 0)
(0.000901631 -2.97999e-05 0)
(0.000889151 9.88984e-06 0)
(0.000841285 -6.95063e-05 0)
(0.000836179 -3.88779e-05 0)
(0.000758063 -9.98995e-05 0)
(0.000759297 -8.09097e-05 0)
(0.000660919 -0.000122913 0)
(0.000664779 -0.000111483 0)
(0.000571534 -0.000144986 0)
(0.000575077 -0.000136689 0)
(0.000864599 -2.03321e-05 0)
(0.000853923 5.82285e-06 0)
(0.000806461 -4.25937e-05 0)
(0.000800283 -2.2124e-05 0)
(0.000726952 -6.11795e-05 0)
(0.000724576 -4.75767e-05 0)
(0.000641303 -7.99284e-05 0)
(0.000641176 -7.01213e-05 0)
(0.000565639 -0.000100526 0)
(0.000565956 -9.19612e-05 0)
(0.000828163 -1.03089e-05 0)
(0.000819012 3.47579e-06 0)
(0.000779228 -1.88016e-05 0)
(0.000772335 -7.2861e-06 0)
(0.000709726 -2.92194e-05 0)
(0.000704685 -1.99341e-05 0)
(0.000635541 -4.41014e-05 0)
(0.000631682 -3.50301e-05 0)
(0.000569354 -6.23167e-05 0)
(0.00056607 -5.2553e-05 0)
(0.000799123 -1.97668e-06 0)
(0.000790755 4.06116e-06 0)
(0.000760492 -1.13989e-06 0)
(0.000751687 5.62967e-06 0)
(0.000701214 -5.4771e-06 0)
(0.000692715 2.45983e-06 0)
(0.000636372 -1.56648e-05 0)
(0.000628475 -5.50737e-06 0)
(0.000576315 -2.96881e-05 0)
(0.000569179 -1.74411e-05 0)
(0.000780811 4.6029e-06 0)
(0.000771271 9.23372e-06 0)
(0.00075102 1.27268e-05 0)
(0.000737976 2.05149e-05 0)
(0.000698878 1.44365e-05 0)
(0.000685606 2.53848e-05 0)
(0.000638996 1.03284e-05 0)
(0.000627069 2.44096e-05 0)
(0.000581154 2.06304e-06 0)
(0.000570598 1.85009e-05 0)
(0.000772607 1.29151e-05 0)
(0.0007637 2.06131e-05 0)
(0.000748305 3.45386e-05 0)
(0.000733784 4.83768e-05 0)
(0.000699255 4.59841e-05 0)
(0.000682981 6.46e-05 0)
(0.000640692 4.79926e-05 0)
(0.000625314 6.92568e-05 0)
(0.000582585 4.41433e-05 0)
(0.000568683 6.63058e-05 0)
(0.000737569 -0.000256671 0)
(0.000741152 -0.000147845 0)
(0.000666856 -0.000262631 0)
(0.000669999 -0.000208541 0)
(0.000618317 -0.000264582 0)
(0.000621455 -0.000235266 0)
(0.000578484 -0.000265776 0)
(0.000579676 -0.000245788 0)
(0.000541388 -0.000267168 0)
(0.00053976 -0.000250095 0)
(0.000505531 -0.00026894 0)
(0.000502208 -0.000253175 0)
(0.000471476 -0.000270966 0)
(0.000468997 -0.000257067 0)
(0.0004399 -0.000273402 0)
(0.000441211 -0.000261839 0)
(0.000429306 -0.000268738 0)
(0.000427573 -0.000265242 0)
(0.000417565 -0.000273813 0)
(0.000422705 -0.000273595 0)
(0.000684841 -0.000281112 0)
(0.000715982 -0.000238824 0)
(0.000637122 -0.000280662 0)
(0.000660617 -0.000239304 0)
(0.000592139 -0.000280592 0)
(0.000609377 -0.0002427 0)
(0.000551647 -0.000279516 0)
(0.000565007 -0.000246689 0)
(0.000515755 -0.000276971 0)
(0.000517602 -0.000256646 0)
(0.000489474 -0.000275022 0)
(0.000491035 -0.000260089 0)
(0.000467473 -0.000273314 0)
(0.000468762 -0.000262548 0)
(0.000449979 -0.000273119 0)
(0.000450755 -0.000264341 0)
(0.000435839 -0.000274276 0)
(0.000436902 -0.000265946 0)
(0.00042453 -0.000275531 0)
(0.000426184 -0.000267659 0)
(0.000576835 -0.000253689 0)
(0.000611726 -0.000240628 0)
(0.00055348 -0.000250023 0)
(0.000583971 -0.000241195 0)
(0.000533034 -0.000248098 0)
(0.000557403 -0.000240755 0)
(0.000514464 -0.000247178 0)
(0.00053239 -0.000239808 0)
(0.00049737 -0.000247082 0)
(0.000508296 -0.000238056 0)
(0.000480203 -0.000247581 0)
(0.000486143 -0.000237013 0)
(0.000463542 -0.0002482 0)
(0.000466054 -0.000236501 0)
(0.000448059 -0.000248711 0)
(0.00044815 -0.000236181 0)
(0.000433885 -0.000248981 0)
(0.000432251 -0.000235865 0)
(0.000420774 -0.000248968 0)
(0.000418067 -0.000235767 0)
(0.00053228 -0.000206256 0)
(0.00056232 -0.000195681 0)
(0.000513733 -0.000206061 0)
(0.000540028 -0.000198506 0)
(0.00049822 -0.000206218 0)
(0.000519842 -0.000200197 0)
(0.000484905 -0.00020638 0)
(0.000501465 -0.000200856 0)
(0.00047308 -0.000206476 0)
(0.00048467 -0.000200662 0)
(0.000461922 -0.000206646 0)
(0.000468941 -0.000199858 0)
(0.000450911 -0.000206911 0)
(0.000453865 -0.000198684 0)
(0.000439791 -0.000207116 0)
(0.000439389 -0.000197372 0)
(0.000428518 -0.000207069 0)
(0.00042559 -0.000196016 0)
(0.000416995 -0.000206789 0)
(0.000412295 -0.000194718 0)
(0.000517859 -0.000158426 0)
(0.000540875 -0.000147518 0)
(0.000500842 -0.000160668 0)
(0.000520836 -0.000151507 0)
(0.000486432 -0.000162842 0)
(0.000502896 -0.000154501 0)
(0.000473949 -0.000164575 0)
(0.000486697 -0.000156446 0)
(0.000462749 -0.000165852 0)
(0.000471804 -0.000157452 0)
(0.000452247 -0.000166789 0)
(0.000457782 -0.000157767 0)
(0.000441916 -0.000166992 0)
(0.000442987 -0.000158322 0)
(0.000432391 -0.000166937 0)
(0.00043126 -0.000157631 0)
(0.000422582 -0.000166656 0)
(0.000419483 -0.000156497 0)
(0.000412197 -0.00016629 0)
(0.000407562 -0.000155147 0)
(0.000518597 -0.000115651 0)
(0.000534719 -0.000102443 0)
(0.000501098 -0.000119133 0)
(0.000515099 -0.000106814 0)
(0.000485669 -0.000122504 0)
(0.000497251 -0.000110444 0)
(0.000471555 -0.000125331 0)
(0.000480739 -0.000113237 0)
(0.000458181 -0.000127234 0)
(0.000465511 -0.000115075 0)
(0.000450692 -0.000127769 0)
(0.000452657 -0.00011666 0)
(0.00043992 -0.000128571 0)
(0.000440157 -0.00011715 0)
(0.000429225 -0.000128873 0)
(0.000427803 -0.000117187 0)
(0.000418377 -0.000128852 0)
(0.000415448 -0.000116855 0)
(0.000407204 -0.000128547 0)
(0.000403048 -0.000116236 0)
(0.000525845 -7.65819e-05 0)
(0.000535951 -6.12826e-05 0)
(0.000507249 -8.00017e-05 0)
(0.000516245 -6.53617e-05 0)
(0.000490565 -8.322e-05 0)
(0.000498448 -6.8842e-05 0)
(0.000475303 -8.57889e-05 0)
(0.000479569 -7.28917e-05 0)
(0.000462585 -8.78495e-05 0)
(0.000465669 -7.47883e-05 0)
(0.000450568 -8.93424e-05 0)
(0.000452118 -7.60222e-05 0)
(0.000438644 -9.0388e-05 0)
(0.000438774 -7.68768e-05 0)
(0.000426701 -9.10263e-05 0)
(0.000425525 -7.74374e-05 0)
(0.000414719 -9.12452e-05 0)
(0.000412314 -7.76725e-05 0)
(0.000402712 -9.103e-05 0)
(0.000399138 -7.76113e-05 0)
(0.000534254 -4.13328e-05 0)
(0.000539103 -2.31198e-05 0)
(0.00051419 -4.39196e-05 0)
(0.000518684 -2.6264e-05 0)
(0.000496162 -4.6457e-05 0)
(0.000500052 -2.91795e-05 0)
(0.000479955 -4.87118e-05 0)
(0.000482758 -3.14017e-05 0)
(0.000464769 -5.05404e-05 0)
(0.000466631 -3.33297e-05 0)
(0.000450381 -5.19096e-05 0)
(0.00045136 -3.49812e-05 0)
(0.00043658 -5.29027e-05 0)
(0.000436681 -3.63852e-05 0)
(0.000423194 -5.3559e-05 0)
(0.000422387 -3.75381e-05 0)
(0.000410091 -5.38647e-05 0)
(0.000408319 -3.83951e-05 0)
(0.000397157 -5.38023e-05 0)
(0.000394331 -3.90113e-05 0)
(0.00053907 -5.70689e-06 0)
(0.000540051 1.58815e-05 0)
(0.000517344 -7.09853e-06 0)
(0.000518799 1.36357e-05 0)
(0.000497661 -8.58346e-06 0)
(0.000499298 1.14491e-05 0)
(0.000479796 -9.89664e-06 0)
(0.000481365 9.49234e-06 0)
(0.000463403 -1.10209e-05 0)
(0.000464692 7.76374e-06 0)
(0.000448151 -1.19964e-05 0)
(0.000448976 6.22615e-06 0)
(0.000433734 -1.28614e-05 0)
(0.000433922 4.85328e-06 0)
(0.000419836 -1.36288e-05 0)
(0.00041924 3.62816e-06 0)
(0.000406097 -1.42741e-05 0)
(0.000404656 2.52081e-06 0)
(0.000392101 -1.47205e-05 0)
(0.000389942 1.11918e-06 0)
(0.000540761 3.9292e-05 0)
(0.000537115 6.38392e-05 0)
(0.000517052 3.78195e-05 0)
(0.000514805 6.07366e-05 0)
(0.000496017 3.63184e-05 0)
(0.000494538 5.74203e-05 0)
(0.000477363 3.49331e-05 0)
(0.000476328 5.42145e-05 0)
(0.00046075 3.37273e-05 0)
(0.000459915 5.13228e-05 0)
(0.000445802 3.27049e-05 0)
(0.000444945 4.88575e-05 0)
(0.000432111 3.18625e-05 0)
(0.000431032 4.68686e-05 0)
(0.000419255 3.1189e-05 0)
(0.000417793 4.5354e-05 0)
(0.00040681 3.06496e-05 0)
(0.000404862 4.42697e-05 0)
(0.000394393 3.01963e-05 0)
(0.000391826 4.35836e-05 0)
(6.74973e-05 -0.000980649 0)
(5.78113e-05 -0.000932989 0)
(5.44353e-05 -0.000959868 0)
(4.0235e-05 -0.000924135 0)
(4.76722e-05 -0.000940438 0)
(3.04377e-05 -0.000915173 0)
(4.45319e-05 -0.000922994 0)
(2.52785e-05 -0.000906352 0)
(4.28963e-05 -0.000908311 0)
(2.25386e-05 -0.000897806 0)
(4.08027e-05 -0.000896879 0)
(2.07578e-05 -0.000889437 0)
(3.62406e-05 -0.000889031 0)
(1.88997e-05 -0.00088118 0)
(2.72498e-05 -0.000884944 0)
(1.61699e-05 -0.000873209 0)
(1.21954e-05 -0.000884429 0)
(1.20317e-05 -0.000865872 0)
(-9.75889e-06 -0.00088654 0)
(6.12391e-06 -0.000859071 0)
(0.000251311 -0.000718086 0)
(0.000253779 -0.000633695 0)
(0.000211873 -0.000723895 0)
(0.000206235 -0.000649493 0)
(0.000183335 -0.000725684 0)
(0.000173472 -0.000662391 0)
(0.000162645 -0.000724942 0)
(0.000150714 -0.000671403 0)
(0.000145733 -0.000723069 0)
(0.000132966 -0.000676324 0)
(0.000128408 -0.00072141 0)
(0.000116431 -0.00067801 0)
(0.000107578 -0.000721187 0)
(9.81235e-05 -0.000677954 0)
(8.09523e-05 -0.0007231 0)
(7.54949e-05 -0.000677881 0)
(4.73099e-05 -0.000727235 0)
(4.66566e-05 -0.000679599 0)
(6.81292e-06 -0.000733382 0)
(1.04436e-05 -0.000684754 0)
(0.000422918 -0.000429437 0)
(0.00044283 -0.000364747 0)
(0.000371208 -0.000442761 0)
(0.000392624 -0.000388986 0)
(0.000333779 -0.000458735 0)
(0.000351194 -0.000412161 0)
(0.000303039 -0.000473254 0)
(0.000309069 -0.000426609 0)
(0.00027071 -0.000483003 0)
(0.00027072 -0.000437465 0)
(0.000238608 -0.000490998 0)
(0.000236117 -0.000446627 0)
(0.000206412 -0.000498403 0)
(0.000202746 -0.000454421 0)
(0.000172487 -0.000505653 0)
(0.000168513 -0.000461667 0)
(0.000135729 -0.000513655 0)
(0.000131745 -0.000469722 0)
(9.55322e-05 -0.000523799 0)
(9.1088e-05 -0.000479815 0)
(0.000553152 -0.000194948 0)
(0.000574731 -0.000143618 0)
(0.000509372 -0.00024193 0)
(0.000531862 -0.000193571 0)
(0.000464559 -0.000281256 0)
(0.000479578 -0.000231827 0)
(0.000415509 -0.000305732 0)
(0.000426167 -0.000260589 0)
(0.000371697 -0.00032144 0)
(0.000376898 -0.00028177 0)
(0.000335763 -0.000332665 0)
(0.000336506 -0.000299303 0)
(0.000304849 -0.000340102 0)
(0.00030271 -0.00031254 0)
(0.000276172 -0.000345716 0)
(0.000272466 -0.000322302 0)
(0.000247797 -0.000352164 0)
(0.000243374 -0.00033074 0)
(0.000218891 -0.00036192 0)
(0.000214157 -0.000339223 0)
(0.000677395 -0.000206219 0)
(0.000713658 -5.79608e-05 0)
(0.000616179 -0.000189444 0)
(0.000636322 -0.000118893 0)
(0.000569651 -0.00019699 0)
(0.000579072 -0.000157177 0)
(0.000527739 -0.00021107 0)
(0.00053025 -0.000183919 0)
(0.000487541 -0.000225327 0)
(0.000485383 -0.000203848 0)
(0.000448586 -0.000237572 0)
(0.000443333 -0.000219442 0)
(0.000411608 -0.000247447 0)
(0.000404701 -0.000232249 0)
(0.000377697 -0.000255609 0)
(0.0003704 -0.000243509 0)
(0.000348472 -0.000263453 0)
(0.000341548 -0.000254421 0)
(0.000324642 -0.000270003 0)
(0.000322984 -0.000266119 0)
)
;

boundaryField
{
    back
    {
        type            empty;
    }
    front
    {
        type            empty;
    }
    left
    {
        type            symmetry;
    }
    hole
    {
        type            calculated;
        value           nonuniform List<vector> 10((0.000917714 0.000124807 1.71248e-20) (0.00083897 -0.000429163 3.52998e-20) (0.00107311 -0.000571412 1.15909e-20) (0.00102431 -0.00043471 -4.61414e-21) (0.00106893 -0.000295412 -6.28687e-21) (0.0011058 -0.00015906 2.47678e-21) (0.00110144 -6.07969e-05 -7.65549e-22) (0.00107014 -1.27741e-05 0) (0.00103898 2.26628e-06 6.60893e-22) (0.00103119 6.24646e-07 -3.50719e-22));
    }
    down
    {
        type            symmetry;
    }
    right
    {
        type            calculated;
        value           nonuniform List<vector> 
15
(
(0.000762919 3.01832e-05 -1.08153e-21)
(0.000732221 6.80408e-05 1.37378e-21)
(0.000681591 8.89706e-05 0)
(0.000624925 9.46802e-05 -1.78504e-21)
(0.00056938 9.01143e-05 1.21163e-21)
(0.000538443 8.9061e-05 -3.23052e-21)
(0.000516138 8.32536e-05 -8.19616e-22)
(0.000496041 7.74211e-05 0)
(0.000478006 7.20171e-05 -2.67593e-21)
(0.0004617 6.73121e-05 1.59437e-21)
(0.000446782 6.34521e-05 -2.17355e-22)
(0.000432892 6.05038e-05 -3.00526e-21)
(0.000419661 5.84723e-05 -8.46184e-22)
(0.000406771 5.72692e-05 -5.11677e-22)
(0.000393855 5.71931e-05 3.1327e-22)
)
;
    }
    up
    {
        type            calculated;
        value           nonuniform List<vector> 
15
(
(0.000422689 -0.000275899 0)
(0.000423387 -0.000268126 -2.78649e-22)
(0.000413636 -0.000235648 -8.34945e-22)
(0.000408083 -0.000194546 2.51216e-22)
(0.000403643 -0.000155002 0)
(0.00039907 -0.000116144 2.39884e-22)
(0.000395105 -7.76447e-05 -2.43338e-22)
(0.000390044 -3.91798e-05 2.95864e-22)
(0.000385095 1.01773e-06 -4.69689e-23)
(0.000387489 4.34434e-05 -5.51512e-22)
(-5.03428e-06 -0.00086013 8.72107e-22)
(-7.13445e-06 -0.000685651 0)
(7.47918e-05 -0.000481511 2.90664e-21)
(0.000203258 -0.00034173 -7.15211e-22)
(0.000322594 -0.000271264 2.67047e-22)
)
;
    }
}


// ************************************************************************* //
