/*--------------------------------*- C++ -*----------------------------------*\
| =========                 |                                                 |
| \\      /  F ield         | OpenFOAM: The Open Source CFD Toolbox           |
|  \\    /   O peration     | Version:  v2012                                 |
|   \\  /    A nd           | Website:  www.openfoam.com                      |
|    \\/     M anipulation  |                                                 |
\*---------------------------------------------------------------------------*/
FoamFile
{
    version     2.0;
    format      ascii;
    class       pointScalarField;
    location    "20";
    object      pEpsilonEq;
}
// * * * * * * * * * * * * * * * * * * * * * * * * * * * * * * * * * * * * * //

dimensions      [0 0 0 0 0 0 0];


internalField   nonuniform List<scalar> 
32562
(
0.000206683
6.58935e-05
5.44077e-08
0.000265819
0.00755197
3.42453e-05
0.000586737
0.000161568
0.000508977
2.54602e-05
0.000497646
0.000497646
0.000161568
0.000586737
0.00755197
0.000206683
3.42453e-05
6.58935e-05
2.54602e-05
5.44077e-08
0.000508977
0.000265819
0.000585502
0.000615796
0.000660246
0.000713786
0.000789791
0.000879763
0.000976141
0.001068
0.001148
0.00120976
0.00124882
0.00126252
0.00124952
0.00120939
0.00114268
0.0010515
0.000939407
0.000811816
0.000678293
0.000552606
0.000450322
0.000381178
0.000338996
0.000302955
0.000272373
0.00024727
0.000227021
0.000210981
0.000198518
0.000189012
0.000181879
0.000176584
0.000172655
0.000169685
0.000167338
0.000165322
0.000163345
0.000160958
0.00015695
0.000159592
0.000155801
0.000152519
0.000149406
0.000146317
0.000143182
0.000139967
0.000136655
0.000133243
0.000129735
0.000126136
0.000122456
0.000118705
0.000114892
0.000111029
0.000107125
0.000103191
9.92369e-05
9.52723e-05
9.13069e-05
8.73504e-05
8.34124e-05
7.95026e-05
7.56314e-05
7.18095e-05
6.80485e-05
6.43613e-05
6.07623e-05
5.72682e-05
5.38985e-05
5.06762e-05
4.76288e-05
4.47889e-05
4.21949e-05
3.98912e-05
3.79262e-05
3.63493e-05
3.51999e-05
3.44686e-05
0.00020189
0.00019636
0.000190709
0.000184928
0.00017904
0.000173073
0.000167051
0.000160997
0.000154931
0.000148871
0.000142832
0.000136829
0.000130873
0.000124978
0.000119155
0.000113412
0.00010776
0.000102208
9.67657e-05
9.14409e-05
8.62433e-05
8.11822e-05
7.62678e-05
7.15113e-05
6.69252e-05
6.25235e-05
5.83229e-05
5.43428e-05
5.0606e-05
4.71395e-05
4.39746e-05
4.11474e-05
3.86973e-05
3.66658e-05
3.50923e-05
3.40093e-05
3.34357e-05
3.33698e-05
3.37753e-05
3.53333e-05
3.91331e-05
4.37461e-05
4.86726e-05
5.36172e-05
5.84096e-05
6.29534e-05
6.71955e-05
7.1109e-05
7.46826e-05
7.79152e-05
8.08119e-05
8.33819e-05
8.5637e-05
8.75906e-05
8.9257e-05
9.06513e-05
9.17883e-05
9.26831e-05
9.33507e-05
9.38056e-05
9.40619e-05
9.41336e-05
9.40338e-05
9.37754e-05
9.33709e-05
9.28321e-05
9.21703e-05
9.13965e-05
9.0521e-05
8.9554e-05
8.85048e-05
8.73826e-05
8.61961e-05
8.49536e-05
8.36629e-05
8.23316e-05
8.0967e-05
7.95759e-05
7.81649e-05
7.67404e-05
7.53085e-05
7.38749e-05
7.24453e-05
7.1025e-05
6.96193e-05
6.82333e-05
6.68719e-05
6.55399e-05
6.4242e-05
6.29828e-05
6.17669e-05
6.05988e-05
5.94831e-05
5.84241e-05
5.74265e-05
5.64948e-05
5.56336e-05
5.48475e-05
5.41414e-05
5.35201e-05
5.29888e-05
5.25526e-05
5.22169e-05
5.19872e-05
5.18695e-05
5.18698e-05
5.19945e-05
5.22502e-05
5.26439e-05
5.3183e-05
5.38751e-05
5.4728e-05
5.57499e-05
5.69482e-05
5.83298e-05
5.98986e-05
6.16539e-05
6.35967e-05
6.61338e-05
6.59367e-05
6.5751e-05
6.55194e-05
6.52297e-05
6.48789e-05
6.44665e-05
6.39928e-05
6.34586e-05
6.28646e-05
6.22119e-05
6.15015e-05
6.07345e-05
5.99121e-05
5.90356e-05
5.81063e-05
5.71257e-05
5.60954e-05
5.5017e-05
5.38923e-05
5.2723e-05
5.15111e-05
5.02585e-05
4.89675e-05
4.76401e-05
4.62788e-05
4.48857e-05
4.34634e-05
4.20145e-05
4.05415e-05
3.90472e-05
3.75344e-05
3.60059e-05
3.44645e-05
3.29134e-05
3.13555e-05
2.97942e-05
2.82345e-05
2.66949e-05
2.45971e-05
2.39087e-05
2.32237e-05
2.25416e-05
2.18627e-05
2.11873e-05
2.05158e-05
1.98487e-05
1.91862e-05
1.85288e-05
1.78767e-05
1.72303e-05
1.65898e-05
1.59557e-05
1.53283e-05
1.47079e-05
1.40947e-05
1.34892e-05
1.28917e-05
1.23024e-05
1.17218e-05
1.11502e-05
1.0588e-05
1.00354e-05
9.49276e-06
8.96052e-06
8.43898e-06
7.9285e-06
7.42942e-06
6.94209e-06
6.46689e-06
6.00415e-06
5.55427e-06
5.11761e-06
4.69456e-06
4.28554e-06
3.89097e-06
3.51134e-06
3.14715e-06
2.79903e-06
2.46769e-06
2.15406e-06
1.85935e-06
1.58528e-06
1.33439e-06
1.11059e-06
9.19981e-07
7.71688e-07
6.76826e-07
6.42482e-07
6.63078e-07
7.21393e-07
7.98908e-07
8.82143e-07
9.6275e-07
1.03581e-06
1.09845e-06
1.14899e-06
1.18648e-06
1.21043e-06
1.2207e-06
1.2174e-06
1.20084e-06
1.17151e-06
1.13009e-06
1.07742e-06
1.01453e-06
9.42634e-07
8.63127e-07
7.77611e-07
6.87876e-07
5.95898e-07
5.03806e-07
4.1385e-07
3.28339e-07
2.49577e-07
1.79751e-07
1.2052e-07
7.12558e-08
1.3489e-07
3.7423e-07
6.76365e-07
9.54181e-07
1.14921e-06
1.22494e-06
1.15978e-06
9.42113e-07
5.68805e-07
1.27316e-07
7.00267e-07
1.55587e-06
2.57259e-06
3.74387e-06
5.06557e-06
6.53399e-06
8.14572e-06
9.89761e-06
1.17868e-05
1.3811e-05
1.59679e-05
1.82559e-05
2.06737e-05
2.32204e-05
2.58955e-05
2.86988e-05
3.16307e-05
3.46917e-05
3.78828e-05
4.12055e-05
4.46616e-05
4.8253e-05
5.19822e-05
5.58521e-05
5.98657e-05
6.40266e-05
6.83387e-05
7.2806e-05
7.74331e-05
8.2225e-05
8.71867e-05
9.2324e-05
9.76427e-05
0.000103149
0.00010885
0.000114752
0.000120863
0.00012719
0.000133742
0.000140526
0.000147551
0.000154826
0.000162358
0.000170157
0.00017823
0.000186584
0.000195225
0.000204157
0.000213379
0.000222885
0.000232661
0.000242674
0.000252866
0.000263129
0.000273272
0.00028284
0.000294362
0.000310435
0.000335428
0.000365042
0.000396846
0.000428182
0.000457109
0.000482041
0.000501815
0.000515471
0.000522062
0.000521068
0.000513392
0.000506086
0.000511179
0.00052452
0.000537103
0.000547458
0.000555821
0.000562149
0.000566278
0.000567966
0.000566927
0.000562848
0.000555422
0.000544366
0.000529452
0.000510534
0.000487572
0.000460653
0.000429997
0.000395951
0.000358968
0.000319581
0.000278364
0.000235904
0.000192771
0.000149506
0.000106626
6.47062e-05
2.52121e-05
2.06459e-05
5.63083e-05
9.16429e-05
0.000124783
0.000155225
0.000182588
0.000206527
0.000226717
0.000242872
0.000254828
0.000263452
0.000246271
0.000225383
0.000205459
0.000186367
0.000168034
0.00015042
0.00013351
0.000117313
0.000101862
8.72317e-05
7.35603e-05
6.11044e-05
5.03348e-05
4.20757e-05
3.75087e-05
3.7536e-05
4.17723e-05
4.88442e-05
5.74867e-05
6.69122e-05
7.66864e-05
8.65722e-05
9.64376e-05
0.000106207
0.000115837
0.000125302
0.000134589
0.000143691
0.000152607
0.000161337
0.000169885
0.000178256
0.000186454
0.000194486
0.000202358
0.000210078
0.000217653
0.000225089
0.000232394
0.000239575
0.00024664
0.000253597
0.000260452
0.000267215
0.000273891
0.000280491
0.000287021
0.00029349
0.000299907
0.000306281
0.000312622
0.000318939
0.000325244
0.000331547
0.000337861
0.000344199
0.000350573
0.000357001
0.000363497
0.000370081
0.000376771
0.000383589
0.00039056
0.000397708
0.000405064
0.000412659
0.00042053
0.000428717
0.000437266
0.000446226
0.000455657
0.000465623
0.000476199
0.000487472
0.000499542
0.000512529
0.000526575
0.000541861
0.000558626
0.000633356
0.000698511
0.000789402
0.000902336
0.00103854
0.00119814
0.00138063
0.00158482
0.00180893
0.00205095
0.00230841
0.00257887
0.00285973
0.00314845
0.00344283
0.00374057
0.00403977
0.00433863
0.00463547
0.00492895
0.00521758
0.00550009
0.00577534
0.00604197
0.00629872
0.00654432
0.00677724
0.00699586
0.00719845
0.00738305
0.00754756
0.00768976
0.00780721
0.00789691
0.00795497
0.0079754
0.00793648
0.00782011
0.00765439
0.000162587
0.000157942
0.000154227
0.000151383
0.000149212
0.000147554
0.000146281
0.000145295
0.000144518
0.000143885
0.000143343
0.000142849
0.000142367
0.000141868
0.000141329
0.000140732
0.000140062
0.00013931
0.000138469
0.000137534
0.000136503
0.000135375
0.000134152
0.000132835
0.000131428
0.000129935
0.000128359
0.000126707
0.000124983
0.000123192
0.000121339
0.000119431
0.000117472
0.000115467
0.000113423
0.000111343
0.000109232
0.000107096
0.000104937
0.000102761
0.000100571
9.83707e-05
9.61632e-05
9.39517e-05
9.1739e-05
8.95276e-05
8.73198e-05
8.51176e-05
8.2923e-05
8.07375e-05
7.85627e-05
7.63996e-05
7.42494e-05
7.21129e-05
6.99909e-05
6.78837e-05
6.57919e-05
6.37156e-05
6.16548e-05
5.96095e-05
5.75794e-05
5.55641e-05
5.35631e-05
5.15756e-05
4.96011e-05
4.76388e-05
4.5688e-05
4.37484e-05
4.18201e-05
3.99044e-05
3.80041e-05
3.61247e-05
3.4276e-05
3.2474e-05
3.07446e-05
2.91275e-05
2.7682e-05
2.64928e-05
2.56694e-05
0.000158944
0.000157828
0.000157485
0.000157558
0.000157884
0.000158383
0.000159016
0.000159764
0.000160616
0.000161567
0.000162614
0.000163758
0.000164998
0.000166335
0.000167769
0.000169303
0.000170938
0.000172674
0.000174513
0.000176457
0.000178506
0.000180662
0.000182926
0.000185297
0.000187778
0.000190368
0.000193067
0.000195875
0.000198792
0.000201818
0.000204951
0.000208192
0.000211538
0.00021499
0.000218545
0.000222202
0.000225961
0.000229819
0.000233777
0.000237832
0.000241985
0.000246235
0.000250581
0.000255025
0.000259566
0.000264207
0.000268949
0.000273794
0.000278746
0.000283809
0.000288986
0.000294284
0.000299707
0.000305262
0.000310956
0.000316797
0.000322792
0.000328949
0.000335277
0.000341783
0.000348474
0.000355358
0.00036244
0.000369722
0.000377207
0.00038489
0.000392764
0.000400815
0.00040902
0.000417346
0.000425747
0.000434158
0.000442493
0.000450642
0.000458461
0.000465773
0.000472367
0.00048122
0.00049805
0.0076683
0.00767876
0.00763459
0.00754685
0.00742519
0.00727578
0.00710495
0.00689323
0.00664826
0.00635896
0.00604007
0.00569334
0.00530215
0.00484667
0.00430724
0.00367061
0.00293629
0.0021199
0.00125358
0.000434569
0.000590553
0.00108134
0.00110671
0.00102247
0.000952283
0.000892545
0.000840872
0.000795668
0.000755757
0.000720238
0.000688399
0.000659661
0.000633547
0.000609659
0.000587663
0.000567277
0.000548266
0.000530429
0.000513602
0.000482449
0.000467918
0.000453979
0.000440571
0.000427648
0.000415173
0.000403118
0.000391462
0.000380189
0.000369288
0.00035875
0.000348572
0.000338748
0.000329277
0.000320159
0.000311393
0.00030298
0.00029492
0.000287214
0.000279863
0.000272868
0.00026623
0.000259948
0.000254024
0.000248458
0.00024325
0.000238399
0.000233906
0.00022977
0.000225992
0.00022257
0.000219505
0.000216796
0.000214444
0.000212449
0.000210812
0.000209542
0.000208667
0.000208395
0.000483532
0.000466787
0.000450543
0.000434787
0.000419514
0.00040472
0.0003904
0.000376555
0.000363183
0.000350284
0.000337855
0.000325897
0.000314407
0.000303382
0.00029282
0.000282717
0.000273069
0.000263871
0.000255117
0.000246802
0.000238919
0.000231461
0.000224419
0.000217786
0.000211551
0.000205706
0.00020024
0.00019514
0.000190394
0.000185987
0.000181903
0.000178124
0.000174629
0.000171393
0.000168391
0.000165597
0.000162994
0.000160609
0.000158612
0.000483532
0.000466787
0.000450543
0.000434787
0.000419514
0.00040472
0.0003904
0.000376555
0.000363183
0.000350284
0.000337855
0.000325897
0.000314407
0.000303382
0.00029282
0.000282717
0.000273069
0.000263871
0.000255117
0.000246802
0.000238919
0.000231461
0.000224419
0.000217786
0.000211551
0.000205706
0.00020024
0.00019514
0.000190394
0.000185987
0.000181903
0.000178124
0.000174629
0.000171393
0.000168391
0.000165597
0.000162994
0.000160609
0.000158612
0.00015695
0.000160958
0.000163345
0.000165322
0.000167338
0.000169685
0.000172655
0.000176584
0.000181879
0.000189012
0.000198518
0.000210981
0.000227021
0.00024727
0.000272373
0.000302955
0.000338996
0.000381178
0.000450322
0.000552606
0.000678293
0.000811816
0.000939407
0.0010515
0.00114268
0.00120939
0.00124952
0.00126252
0.00124882
0.00120976
0.001148
0.001068
0.000976141
0.000879763
0.000789791
0.000713786
0.000660246
0.000615796
0.000585502
0.000633356
0.000698511
0.000789402
0.000902336
0.00103854
0.00119814
0.00138063
0.00158482
0.00180893
0.00205095
0.00230841
0.00257887
0.00285973
0.00314845
0.00344283
0.00374057
0.00403977
0.00433863
0.00463547
0.00492895
0.00521758
0.00550009
0.00577534
0.00604197
0.00629872
0.00654432
0.00677724
0.00699586
0.00719845
0.00738305
0.00754756
0.00768976
0.00780721
0.00789691
0.00795497
0.0079754
0.00793648
0.00782011
0.00765439
0.0076683
0.00767876
0.00763459
0.00754685
0.00742519
0.00727578
0.00710495
0.00689323
0.00664826
0.00635896
0.00604007
0.00569334
0.00530215
0.00484667
0.00430724
0.00367061
0.00293629
0.0021199
0.00125358
0.000434569
0.000590553
0.00108134
0.00110671
0.00102247
0.000952283
0.000892545
0.000840872
0.000795668
0.000755757
0.000720238
0.000688399
0.000659661
0.000633547
0.000609659
0.000587663
0.000567277
0.000548266
0.000530429
0.000513602
0.000482449
0.000467918
0.000453979
0.000440571
0.000427648
0.000415173
0.000403118
0.000391462
0.000380189
0.000369288
0.00035875
0.000348572
0.000338748
0.000329277
0.000320159
0.000311393
0.00030298
0.00029492
0.000287214
0.000279863
0.000272868
0.00026623
0.000259948
0.000254024
0.000248458
0.00024325
0.000238399
0.000233906
0.00022977
0.000225992
0.00022257
0.000219505
0.000216796
0.000214444
0.000212449
0.000210812
0.000209542
0.000208667
0.000208395
0.00020189
0.00019636
0.000190709
0.000184928
0.00017904
0.000173073
0.000167051
0.000160997
0.000154931
0.000148871
0.000142832
0.000136829
0.000130873
0.000124978
0.000119155
0.000113412
0.00010776
0.000102208
9.67657e-05
9.14409e-05
8.62433e-05
8.11822e-05
7.62678e-05
7.15113e-05
6.69252e-05
6.25235e-05
5.83229e-05
5.43428e-05
5.0606e-05
4.71395e-05
4.39746e-05
4.11474e-05
3.86973e-05
3.66658e-05
3.50923e-05
3.40093e-05
3.34357e-05
3.33698e-05
3.37753e-05
3.44686e-05
3.51999e-05
3.63493e-05
3.79262e-05
3.98912e-05
4.21949e-05
4.47889e-05
4.76288e-05
5.06762e-05
5.38985e-05
5.72682e-05
6.07623e-05
6.43613e-05
6.80485e-05
7.18095e-05
7.56314e-05
7.95026e-05
8.34124e-05
8.73504e-05
9.13069e-05
9.52723e-05
9.92369e-05
0.000103191
0.000107125
0.000111029
0.000114892
0.000118705
0.000122456
0.000126136
0.000129735
0.000133243
0.000136655
0.000139967
0.000143182
0.000146317
0.000149406
0.000152519
0.000155801
0.000159592
3.53333e-05
3.91331e-05
4.37461e-05
4.86726e-05
5.36172e-05
5.84096e-05
6.29534e-05
6.71955e-05
7.1109e-05
7.46826e-05
7.79152e-05
8.08119e-05
8.33819e-05
8.5637e-05
8.75906e-05
8.9257e-05
9.06513e-05
9.17883e-05
9.26831e-05
9.33507e-05
9.38056e-05
9.40619e-05
9.41336e-05
9.40338e-05
9.37754e-05
9.33709e-05
9.28321e-05
9.21703e-05
9.13965e-05
9.0521e-05
8.9554e-05
8.85048e-05
8.73826e-05
8.61961e-05
8.49536e-05
8.36629e-05
8.23316e-05
8.0967e-05
7.95759e-05
7.81649e-05
7.67404e-05
7.53085e-05
7.38749e-05
7.24453e-05
7.1025e-05
6.96193e-05
6.82333e-05
6.68719e-05
6.55399e-05
6.4242e-05
6.29828e-05
6.17669e-05
6.05988e-05
5.94831e-05
5.84241e-05
5.74265e-05
5.64948e-05
5.56336e-05
5.48475e-05
5.41414e-05
5.35201e-05
5.29888e-05
5.25526e-05
5.22169e-05
5.19872e-05
5.18695e-05
5.18698e-05
5.19945e-05
5.22502e-05
5.26439e-05
5.3183e-05
5.38751e-05
5.4728e-05
5.57499e-05
5.69482e-05
5.83298e-05
5.98986e-05
6.16539e-05
6.35967e-05
6.61338e-05
6.59367e-05
6.5751e-05
6.55194e-05
6.52297e-05
6.48789e-05
6.44665e-05
6.39928e-05
6.34586e-05
6.28646e-05
6.22119e-05
6.15015e-05
6.07345e-05
5.99121e-05
5.90356e-05
5.81063e-05
5.71257e-05
5.60954e-05
5.5017e-05
5.38923e-05
5.2723e-05
5.15111e-05
5.02585e-05
4.89675e-05
4.76401e-05
4.62788e-05
4.48857e-05
4.34634e-05
4.20145e-05
4.05415e-05
3.90472e-05
3.75344e-05
3.60059e-05
3.44645e-05
3.29134e-05
3.13555e-05
2.97942e-05
2.82345e-05
2.66949e-05
2.56694e-05
2.64928e-05
2.7682e-05
2.91275e-05
3.07446e-05
3.2474e-05
3.4276e-05
3.61247e-05
3.80041e-05
3.99044e-05
4.18201e-05
4.37484e-05
4.5688e-05
4.76388e-05
4.96011e-05
5.15756e-05
5.35631e-05
5.55641e-05
5.75794e-05
5.96095e-05
6.16548e-05
6.37156e-05
6.57919e-05
6.78837e-05
6.99909e-05
7.21129e-05
7.42494e-05
7.63996e-05
7.85627e-05
8.07375e-05
8.2923e-05
8.51176e-05
8.73198e-05
8.95276e-05
9.1739e-05
9.39517e-05
9.61632e-05
9.83707e-05
0.000100571
0.000102761
0.000104937
0.000107096
0.000109232
0.000111343
0.000113423
0.000115467
0.000117472
0.000119431
0.000121339
0.000123192
0.000124983
0.000126707
0.000128359
0.000129935
0.000131428
0.000132835
0.000134152
0.000135375
0.000136503
0.000137534
0.000138469
0.00013931
0.000140062
0.000140732
0.000141329
0.000141868
0.000142367
0.000142849
0.000143343
0.000143885
0.000144518
0.000145295
0.000146281
0.000147554
0.000149212
0.000151383
0.000154227
0.000157942
0.000162587
2.45971e-05
2.39087e-05
2.32237e-05
2.25416e-05
2.18627e-05
2.11873e-05
2.05158e-05
1.98487e-05
1.91862e-05
1.85288e-05
1.78767e-05
1.72303e-05
1.65898e-05
1.59557e-05
1.53283e-05
1.47079e-05
1.40947e-05
1.34892e-05
1.28917e-05
1.23024e-05
1.17218e-05
1.11502e-05
1.0588e-05
1.00354e-05
9.49276e-06
8.96052e-06
8.43898e-06
7.9285e-06
7.42942e-06
6.94209e-06
6.46689e-06
6.00415e-06
5.55427e-06
5.11761e-06
4.69456e-06
4.28554e-06
3.89097e-06
3.51134e-06
3.14715e-06
2.79903e-06
2.46769e-06
2.15406e-06
1.85935e-06
1.58528e-06
1.33439e-06
1.11059e-06
9.19981e-07
7.71688e-07
6.76826e-07
6.42482e-07
6.63078e-07
7.21393e-07
7.98908e-07
8.82143e-07
9.6275e-07
1.03581e-06
1.09845e-06
1.14899e-06
1.18648e-06
1.21043e-06
1.2207e-06
1.2174e-06
1.20084e-06
1.17151e-06
1.13009e-06
1.07742e-06
1.01453e-06
9.42634e-07
8.63127e-07
7.77611e-07
6.87876e-07
5.95898e-07
5.03806e-07
4.1385e-07
3.28339e-07
2.49577e-07
1.79751e-07
1.2052e-07
7.12558e-08
1.3489e-07
3.7423e-07
6.76365e-07
9.54181e-07
1.14921e-06
1.22494e-06
1.15978e-06
9.42113e-07
5.68805e-07
1.27316e-07
7.00267e-07
1.55587e-06
2.57259e-06
3.74387e-06
5.06557e-06
6.53399e-06
8.14572e-06
9.89761e-06
1.17868e-05
1.3811e-05
1.59679e-05
1.82559e-05
2.06737e-05
2.32204e-05
2.58955e-05
2.86988e-05
3.16307e-05
3.46917e-05
3.78828e-05
4.12055e-05
4.46616e-05
4.8253e-05
5.19822e-05
5.58521e-05
5.98657e-05
6.40266e-05
6.83387e-05
7.2806e-05
7.74331e-05
8.2225e-05
8.71867e-05
9.2324e-05
9.76427e-05
0.000103149
0.00010885
0.000114752
0.000120863
0.00012719
0.000133742
0.000140526
0.000147551
0.000154826
0.000162358
0.000170157
0.00017823
0.000186584
0.000195225
0.000204157
0.000213379
0.000222885
0.000232661
0.000242674
0.000252866
0.000263129
0.000273272
0.00028284
0.000294362
0.000310435
0.000335428
0.000365042
0.000396846
0.000428182
0.000457109
0.000482041
0.000501815
0.000515471
0.000522062
0.000521068
0.000513392
0.00049805
0.00048122
0.000472367
0.000465773
0.000458461
0.000450642
0.000442493
0.000434158
0.000425747
0.000417346
0.00040902
0.000400815
0.000392764
0.00038489
0.000377207
0.000369722
0.00036244
0.000355358
0.000348474
0.000341783
0.000335277
0.000328949
0.000322792
0.000316797
0.000310956
0.000305262
0.000299707
0.000294284
0.000288986
0.000283809
0.000278746
0.000273794
0.000268949
0.000264207
0.000259566
0.000255025
0.000250581
0.000246235
0.000241985
0.000237832
0.000233777
0.000229819
0.000225961
0.000222202
0.000218545
0.00021499
0.000211538
0.000208192
0.000204951
0.000201818
0.000198792
0.000195875
0.000193067
0.000190368
0.000187778
0.000185297
0.000182926
0.000180662
0.000178506
0.000176457
0.000174513
0.000172674
0.000170938
0.000169303
0.000167769
0.000166335
0.000164998
0.000163758
0.000162614
0.000161567
0.000160616
0.000159764
0.000159016
0.000158383
0.000157884
0.000157558
0.000157485
0.000157828
0.000158944
0.000506086
0.000511179
0.00052452
0.000537103
0.000547458
0.000555821
0.000562149
0.000566278
0.000567966
0.000566927
0.000562848
0.000555422
0.000544366
0.000529452
0.000510534
0.000487572
0.000460653
0.000429997
0.000395951
0.000358968
0.000319581
0.000278364
0.000235904
0.000192771
0.000149506
0.000106626
6.47062e-05
2.52121e-05
2.06459e-05
5.63083e-05
9.16429e-05
0.000124783
0.000155225
0.000182588
0.000206527
0.000226717
0.000242872
0.000254828
0.000263452
0.000246271
0.000225383
0.000205459
0.000186367
0.000168034
0.00015042
0.00013351
0.000117313
0.000101862
8.72317e-05
7.35603e-05
6.11044e-05
5.03348e-05
4.20757e-05
3.75087e-05
3.7536e-05
4.17723e-05
4.88442e-05
5.74867e-05
6.69122e-05
7.66864e-05
8.65722e-05
9.64376e-05
0.000106207
0.000115837
0.000125302
0.000134589
0.000143691
0.000152607
0.000161337
0.000169885
0.000178256
0.000186454
0.000194486
0.000202358
0.000210078
0.000217653
0.000225089
0.000232394
0.000239575
0.00024664
0.000253597
0.000260452
0.000267215
0.000273891
0.000280491
0.000287021
0.00029349
0.000299907
0.000306281
0.000312622
0.000318939
0.000325244
0.000331547
0.000337861
0.000344199
0.000350573
0.000357001
0.000363497
0.000370081
0.000376771
0.000383589
0.00039056
0.000397708
0.000405064
0.000412659
0.00042053
0.000428717
0.000437266
0.000446226
0.000455657
0.000465623
0.000476199
0.000487472
0.000499542
0.000512529
0.000526575
0.000541861
0.000558626
0.00771754
0.00785662
0.00793175
0.0079394
0.00790874
0.00784496
0.00775117
0.00763029
0.00748494
0.00731749
0.00713019
0.00692512
0.00670416
0.00646902
0.00622121
0.00596214
0.00569314
0.00541547
0.00513037
0.00483915
0.00454314
0.00424377
0.0039427
0.00364162
0.00334248
0.00304755
0.00275915
0.00247989
0.00221237
0.00195921
0.00172297
0.00150586
0.0013098
0.00113618
0.000985891
0.000859215
0.000755717
0.000677719
0.000622413
0.00770864
0.00781657
0.00785913
0.00785091
0.0078131
0.00774603
0.00765131
0.00753091
0.00738685
0.00722124
0.00703609
0.00683317
0.00661412
0.00638042
0.00613347
0.00587457
0.00560501
0.00532611
0.00503918
0.00474562
0.00444698
0.00414496
0.00384148
0.00353869
0.00323902
0.00294515
0.00265982
0.00238591
0.00212618
0.00188316
0.00165903
0.0014555
0.00127378
0.00111456
0.000978107
0.000864333
0.000773085
0.000703176
0.000649275
0.00764502
0.00772755
0.00774604
0.00772286
0.00767405
0.00759972
0.00750072
0.00737827
0.00723389
0.00706912
0.00688539
0.00668397
0.00646608
0.00623293
0.0059857
0.00572561
0.00545398
0.00517216
0.0048817
0.00458432
0.00428193
0.00397683
0.00367158
0.00336908
0.00307241
0.00278479
0.00250941
0.00224918
0.0020066
0.00178359
0.00158146
0.00140086
0.00124192
0.00110424
0.000987082
0.000889225
0.000808534
0.000741447
0.000693917
0.00754043
0.00759705
0.00759188
0.00755288
0.00749123
0.00740731
0.00730167
0.0071751
0.00702849
0.00686263
0.00667823
0.00647604
0.0062569
0.00602169
0.00577148
0.0055075
0.00523115
0.00494411
0.00464836
0.00434619
0.00404041
0.00373415
0.00343094
0.00313454
0.00284872
0.00257701
0.00232244
0.00208732
0.00187317
0.00168063
0.0015096
0.00135935
0.00122862
0.00111581
0.00101898
0.000935925
0.000864566
0.000805383
0.000753279
0.00740073
0.00742781
0.00739771
0.00734092
0.00726479
0.00716951
0.0070553
0.00692234
0.00677073
0.00660052
0.0064118
0.00620491
0.00598036
0.00573897
0.00548184
0.00521036
0.00492639
0.00463227
0.00433076
0.00402531
0.00371983
0.00341862
0.00312623
0.00284694
0.0025846
0.00234214
0.00212147
0.00192345
0.00174782
0.00159354
0.00145897
0.00134195
0.00124013
0.00115112
0.00107262
0.00100275
0.000940403
0.000882813
0.000830957
0.00723371
0.00722371
0.00716383
0.0070876
0.00699537
0.00688674
0.0067613
0.00661846
0.00645756
0.00627805
0.00607971
0.00586265
0.00562737
0.00537486
0.00510655
0.0048245
0.00453148
0.00423088
0.0039269
0.00362439
0.00332853
0.00304461
0.00277737
0.00253066
0.00230702
0.0021076
0.00193227
0.00177971
0.00164782
0.00153404
0.00143549
0.0013493
0.00127284
0.00120382
0.00114042
0.00108139
0.00102527
0.000972409
0.000922815
0.00703246
0.00697785
0.00689254
0.00679515
0.0066842
0.00655867
0.00641738
0.00625905
0.00608253
0.00588713
0.00567256
0.00543907
0.00518755
0.00491957
0.0046375
0.00434461
0.00404506
0.00374392
0.00344707
0.0031606
0.00289041
0.00264135
0.00241687
0.00221866
0.00204668
0.00189955
0.00177473
0.00166908
0.0015793
0.00150197
0.00143399
0.00137274
0.00131616
0.00126266
0.00121119
0.001161
0.00111208
0.00106435
0.00101753
0.00678814
0.00669588
0.00658589
0.00646459
0.00633058
0.00618236
0.00601821
0.00583664
0.00563662
0.00541766
0.00517993
0.00492437
0.00465279
0.00436801
0.00407395
0.00377558
0.00347904
0.00319118
0.0029189
0.00266833
0.00244396
0.00224821
0.00208138
0.00194188
0.00182689
0.00173268
0.00165524
0.00159076
0.00153564
0.00148683
0.00144195
0.00139929
0.00135768
0.00131635
0.00127489
0.00123319
0.00119127
0.00114903
0.00110672
0.0065119
0.00638329
0.00624508
0.00609486
0.00593102
0.00575186
0.00555585
0.00534202
0.00511003
0.00486031
0.00459416
0.00431389
0.00402293
0.00372598
0.00342902
0.00313919
0.00286431
0.00261169
0.00238705
0.00219375
0.00203249
0.00190168
0.00179795
0.00171705
0.00165433
0.00160523
0.00156576
0.00153246
0.00150257
0.00147418
0.00144601
0.00141729
0.00138753
0.00135648
0.00132408
0.00129039
0.00125549
0.00121956
0.00118266
0.00620037
0.00604154
0.00586897
0.00568184
0.00547887
0.00525891
0.00502146
0.0047668
0.0044961
0.00421152
0.00391627
0.00361477
0.00331272
0.00301724
0.00273655
0.00247908
0.00225186
0.00205926
0.00190249
0.0017799
0.00168763
0.00162064
0.00157356
0.00154121
0.00151894
0.00150291
0.00149004
0.00147811
0.00146567
0.00145193
0.00143645
0.00141894
0.00139923
0.0013773
0.00135334
0.00132748
0.00129987
0.00127058
0.00123966
0.0058633
0.00566525
0.00544961
0.00521613
0.0049644
0.00469473
0.00440845
0.004108
0.00379697
0.00348003
0.00316309
0.00285336
0.00255936
0.0022904
0.00205493
0.00185851
0.00170282
0.00158591
0.00150325
0.00144894
0.00141676
0.00140078
0.0013958
0.00139749
0.00140238
0.00140792
0.00141246
0.00141505
0.00141526
0.00141292
0.00140778
0.00139975
0.00138886
0.00137537
0.0013595
0.00134133
0.00132092
0.00129832
0.00127362
0.0054895
0.00524239
0.00497438
0.00468595
0.00437835
0.00405423
0.00371765
0.00337408
0.00303026
0.00269423
0.00237531
0.00208397
0.0018305
0.00162222
0.00146127
0.00134473
0.0012667
0.00122036
0.00119882
0.0011956
0.00120504
0.0012224
0.00124385
0.00126633
0.00128774
0.0013069
0.00132322
0.00133656
0.00134684
0.00135373
0.00135724
0.00135746
0.00135466
0.00134916
0.00134092
0.00133002
0.00131649
0.00130042
0.00128197
0.0050631
0.00475764
0.0044297
0.00408145
0.00371681
0.00334161
0.00296345
0.0025916
0.0022369
0.00191177
0.00162946
0.00140069
0.00122868
0.00110808
0.00102892
0.000981872
0.000960279
0.000958927
0.000972965
0.000997865
0.0010296
0.00106467
0.00110008
0.00113388
0.00116515
0.00119337
0.00121852
0.00124047
0.00125865
0.00127313
0.00128407
0.00129176
0.00129655
0.00129825
0.00129698
0.00129274
0.00128562
0.00127587
0.00126356
0.00456535
0.00419534
0.00380499
0.00339949
0.00298642
0.00257578
0.00217996
0.00181368
0.00149451
0.0012401
0.00105921
0.000942772
0.000869565
0.000820988
0.000788501
0.000770826
0.000768269
0.000779891
0.000803514
0.000836179
0.000874485
0.000914987
0.000955386
0.000994535
0.00103157
0.0010663
0.00109827
0.00112639
0.00115083
0.00117168
0.00118922
0.00120384
0.00121507
0.00122314
0.00122798
0.0012297
0.00122866
0.0012249
0.00121843
0.00397968
0.00354524
0.00309854
0.0026491
0.00220973
0.00179712
0.0014327
0.00114417
0.000955834
0.000862219
0.000822334
0.000795537
0.000765206
0.000731543
0.000700529
0.000677837
0.000666423
0.00066752
0.000681038
0.000705124
0.000736479
0.000772315
0.000810812
0.000850213
0.000889753
0.000928183
0.000963501
0.000995889
0.00102514
0.00105137
0.00107492
0.00109488
0.00111168
0.00112508
0.00113519
0.00114255
0.00114709
0.00114885
0.00114731
0.00329849
0.00280887
0.0023229
0.00185689
0.00143421
0.00108955
0.000871382
0.000800294
0.000814766
0.000835453
0.000830392
0.0008041
0.000767683
0.000728384
0.000691965
0.00066055
0.00063542
0.000618732
0.000612138
0.000615684
0.000628536
0.000649839
0.000677661
0.000710768
0.000746985
0.00078293
0.000818469
0.000852568
0.000884866
0.000915467
0.000942673
0.000967122
0.000988245
0.00100608
0.0010213
0.00103366
0.00104326
0.00104935
0.00105192
0.00252864
0.00200376
0.00151008
0.00108247
0.00078581
0.000702939
0.00077887
0.000862116
0.000892478
0.000876559
0.000840134
0.000801037
0.000762679
0.000727598
0.000694638
0.000663253
0.000634604
0.000609864
0.000590444
0.000576611
0.000569324
0.000569966
0.000579029
0.000595938
0.000617852
0.000644539
0.00067414
0.000705273
0.000737538
0.00076799
0.000797254
0.000824032
0.00084808
0.000870101
0.000889466
0.000906316
0.000919557
0.000929132
0.000935942
0.00169337
0.00116871
0.000744577
0.000566517
0.000694246
0.00086743
0.000942791
0.00093207
0.000889632
0.000844357
0.000803806
0.000766386
0.000732376
0.000701573
0.00067339
0.000647549
0.000624015
0.000602666
0.000583158
0.000565461
0.000549645
0.000536479
0.000528345
0.000526297
0.00052999
0.000539627
0.000555119
0.000575949
0.00059884
0.000624342
0.00065021
0.000675459
0.000700561
0.00072419
0.000746392
0.00076542
0.000781018
0.000794321
0.000805192
0.000840861
0.000452267
0.00053801
0.000824382
0.000980606
0.000990459
0.000942216
0.000891969
0.000845239
0.000802873
0.00076419
0.000728749
0.000696385
0.000666906
0.000640128
0.000615977
0.000594427
0.00057537
0.000558527
0.000543719
0.000530451
0.00051816
0.00050717
0.000498099
0.000490985
0.000486225
0.000485895
0.000490092
0.000498847
0.000511126
0.000526496
0.000544915
0.000564565
0.000585561
0.000605396
0.000623205
0.000640126
0.000655819
0.000669636
0.000331448
0.000689412
0.000973593
0.00104597
0.00100224
0.00094509
0.000893251
0.000845846
0.000802305
0.00076238
0.000725735
0.00069208
0.000661234
0.000633063
0.000607456
0.000584324
0.000563574
0.000545073
0.000528635
0.000514051
0.000501103
0.000489728
0.000480011
0.000471866
0.000465333
0.000459476
0.000454115
0.000450378
0.000448034
0.000447729
0.000450961
0.000457235
0.000466612
0.00047734
0.000488835
0.000501969
0.000516058
0.000530507
0.000544116
0.000875204
0.00107333
0.00106575
0.00100308
0.000945732
0.000893574
0.000845871
0.000801953
0.000761372
0.000723864
0.000689209
0.000657221
0.000627768
0.000600748
0.000576068
0.000553641
0.000533374
0.000515161
0.000498875
0.000484397
0.00047162
0.000460456
0.000450825
0.000442601
0.000435565
0.000429421
0.000424215
0.00042003
0.000417165
0.000415023
0.000413261
0.000412477
0.000412234
0.000413065
0.000416116
0.000421296
0.000428305
0.000436289
0.000444514
0.00111991
0.00106394
0.00100048
0.000944143
0.0008929
0.000845666
0.000801889
0.000761175
0.000723251
0.000687934
0.000655084
0.000624589
0.000596356
0.00057031