/*--------------------------------*- C++ -*----------------------------------*\
| =========                 |                                                 |
| \\      /  F ield         | OpenFOAM: The Open Source CFD Toolbox           |
|  \\    /   O peration     | Version:  v2012                                 |
|   \\  /    A nd           | Website:  www.openfoam.com                      |
|    \\/     M anipulation  |                                                 |
\*---------------------------------------------------------------------------*/
FoamFile
{
    version     2.0;
    format      ascii;
    class       volScalarField;
    location    "20";
    object      sigmaHyd;
}
// * * * * * * * * * * * * * * * * * * * * * * * * * * * * * * * * * * * * * //

dimensions      [1 -1 -2 0 0 0 0];


internalField   nonuniform List<scalar> 
32000
(
-1.03107e+08
-9.70296e+07
-1.0191e+08
-9.43084e+07
-9.86162e+07
-8.96488e+07
-9.03043e+07
-8.17738e+07
-8.02684e+07
-7.41165e+07
-7.07441e+07
-6.67867e+07
-6.16644e+07
-5.96734e+07
-5.29822e+07
-5.2739e+07
-4.46601e+07
-4.59695e+07
-3.66689e+07
-3.9359e+07
-2.89803e+07
-3.29066e+07
-2.15793e+07
-2.6609e+07
-1.4451e+07
-2.04628e+07
-7.58192e+06
-1.44694e+07
-957965
-8.62854e+06
5.42175e+06
-2.93455e+06
1.15591e+07
2.60285e+06
1.74674e+07
7.97673e+06
2.31307e+07
1.31873e+07
2.85389e+07
1.82169e+07
3.3702e+07
2.30485e+07
3.85837e+07
2.76779e+07
4.31666e+07
3.20682e+07
4.74455e+07
3.61974e+07
5.13678e+07
4.00571e+07
5.49238e+07
4.35858e+07
5.80766e+07
4.67798e+07
6.07764e+07
4.95989e+07
6.30489e+07
5.20155e+07
6.48211e+07
5.40409e+07
6.6124e+07
5.56364e+07
6.69422e+07
5.68462e+07
6.72914e+07
5.76662e+07
6.72262e+07
5.81551e+07
6.67518e+07
5.83486e+07
6.59595e+07
5.82992e+07
6.48698e+07
5.8051e+07
6.3541e+07
5.76325e+07
6.20268e+07
5.6479e+07
5.88912e+07
5.4351e+07
-1.05575e+08
-9.56507e+07
-1.02375e+08
-9.29409e+07
-9.81955e+07
-8.84378e+07
-8.95653e+07
-8.01799e+07
-8.0424e+07
-7.23552e+07
-7.14287e+07
-6.48746e+07
-6.26788e+07
-5.76701e+07
-5.42036e+07
-5.06969e+07
-4.60057e+07
-4.39251e+07
-3.80837e+07
-3.73378e+07
-3.04314e+07
-3.09235e+07
-2.3043e+07
-2.46724e+07
-1.59106e+07
-1.85746e+07
-9.03209e+06
-1.26227e+07
-2.40133e+06
-6.82124e+06
3.97921e+06
-1.16838e+06
1.01132e+07
4.33818e+06
1.59944e+07
9.67939e+06
2.16195e+07
1.48469e+07
2.69822e+07
1.98342e+07
3.20649e+07
2.46058e+07
3.68588e+07
2.91434e+07
4.13415e+07
3.34314e+07
4.54928e+07
3.74094e+07
4.92969e+07
4.10654e+07
5.27134e+07
4.43583e+07
5.57412e+07
4.72427e+07
5.83501e+07
4.97249e+07
6.05223e+07
5.17495e+07
6.22699e+07
5.33538e+07
6.35673e+07
5.45207e+07
6.44498e+07
5.53102e+07
6.4918e+07
5.5747e+07
6.50146e+07
5.59005e+07
6.47714e+07
5.58288e+07
6.42338e+07
5.55923e+07
6.34542e+07
5.52591e+07
6.25127e+07
5.49233e+07
6.06963e+07
5.41878e+07
5.80812e+07
5.28122e+07
-1.06044e+08
-9.46299e+07
-1.02987e+08
-9.17631e+07
-9.75186e+07
-8.64548e+07
-8.88001e+07
-7.82007e+07
-8.00819e+07
-7.03017e+07
-7.14743e+07
-6.27349e+07
-6.30405e+07
-5.54613e+07
-5.48095e+07
-4.84478e+07
-4.67999e+07
-4.16654e+07
-3.90198e+07
-3.50899e+07
-3.14745e+07
-2.86986e+07
-2.41632e+07
-2.24786e+07
-1.70897e+07
-1.64177e+07
-1.02617e+07
-1.05081e+07
-3.68267e+06
-4.74446e+06
2.64726e+06
863037
8.71661e+06
6.30912e+06
1.4518e+07
1.15896e+07
2.00444e+07
1.66758e+07
2.52863e+07
2.15421e+07
3.02232e+07
2.61765e+07
3.48446e+07
3.05259e+07
3.91338e+07
3.45549e+07
4.30642e+07
3.82412e+07
4.66395e+07
4.15134e+07
4.98252e+07
4.43688e+07
5.26137e+07
4.67563e+07
5.50113e+07
4.86814e+07
5.69967e+07
5.01474e+07
5.86006e+07
5.11781e+07
5.98104e+07
5.18276e+07
6.06734e+07
5.21417e+07
6.11899e+07
5.21993e+07
6.14105e+07
5.2059e+07
6.1353e+07
5.17958e+07
6.10504e+07
5.14655e+07
6.05115e+07
5.11204e+07
5.96956e+07
5.07616e+07
5.83559e+07
5.03397e+07
5.61152e+07
4.95103e+07
-1.05926e+08
-9.36194e+07
-1.03078e+08
-9.05947e+07
-9.65594e+07
-8.41344e+07
-8.79229e+07
-7.58852e+07
-7.9426e+07
-6.79506e+07
-7.10815e+07
-6.03375e+07
-6.29053e+07
-5.3026e+07
-5.49116e+07
-4.59874e+07
-4.71105e+07
-3.91949e+07
-3.95096e+07
-3.26208e+07
-3.21182e+07
-2.62422e+07
-2.49445e+07
-2.00384e+07
-1.7999e+07
-1.40011e+07
-1.12887e+07
-8.12457e+06
-4.82886e+06
-2.41206e+06
1.36896e+06
3.13719e+06
7.29594e+06
8.50439e+06
1.29433e+07
1.36648e+07
1.82874e+07
1.8598e+07
2.33175e+07
2.32706e+07
2.80285e+07
2.76296e+07
3.23869e+07
3.16473e+07
3.63924e+07
3.5268e+07
4.0033e+07
3.84415e+07
4.32832e+07
4.11555e+07
4.61708e+07
4.33553e+07
4.86612e+07
4.50812e+07
5.07952e+07
4.63155e+07
5.25603e+07
4.71397e+07
5.39933e+07
4.75815e+07
5.51089e+07
4.77441e+07
5.59376e+07
4.76753e+07
5.65039e+07
4.74677e+07
5.68307e+07
4.71718e+07
5.69365e+07
4.68466e+07
5.68298e+07
4.65117e+07
5.65067e+07
4.61938e+07
5.60228e+07
4.58805e+07
5.54881e+07
4.57236e+07
5.38401e+07
4.54448e+07
-1.05459e+08
-9.2548e+07
-1.02639e+08
-8.90328e+07
-9.52578e+07
-8.15977e+07
-8.67237e+07
-7.32896e+07
-7.84263e+07
-6.53268e+07
-7.0312e+07
-5.76935e+07
-6.23698e+07
-5.03649e+07
-5.46048e+07
-4.33134e+07
-4.70212e+07
-3.65097e+07
-3.96272e+07
-2.99268e+07
-3.24314e+07
-2.3546e+07
-2.54477e+07
-1.73517e+07
-1.86911e+07
-1.13387e+07
-1.21794e+07
-5.50271e+06
-5.9243e+06
149231
63176.3
5.5982e+06
5.76071e+06
1.08189e+07
1.11474e+07
1.57912e+07
1.62216e+07
2.0464e+07
2.09583e+07
2.47867e+07
2.53345e+07
2.87287e+07
2.93628e+07
3.22177e+07
3.30138e+07
3.52157e+07
3.62876e+07
3.76988e+07
3.9202e+07
3.96402e+07
4.17378e+07
4.10832e+07
4.39486e+07
4.20431e+07
4.58128e+07
4.26126e+07
4.73973e+07
4.28511e+07
4.86934e+07
4.28511e+07
4.97554e+07
4.26972e+07
5.05873e+07
4.24465e+07
5.1224e+07
4.2162e+07
5.16685e+07
4.18762e+07
5.19394e+07
4.16088e+07
5.20412e+07
4.13654e+07
5.20102e+07
4.11508e+07
5.18502e+07
4.09907e+07
5.14302e+07
4.07718e+07
5.10447e+07
4.0711e+07
-1.04668e+08
-9.13788e+07
-1.01338e+08
-8.72429e+07
-9.33922e+07
-7.87061e+07
-8.51318e+07
-7.04113e+07
-7.70799e+07
-6.24663e+07
-6.92047e+07
-5.4838e+07
-6.15025e+07
-4.75013e+07
-5.39736e+07
-4.04322e+07
-4.66235e+07
-3.36071e+07
-3.94634e+07
-2.70067e+07
-3.25077e+07
-2.06197e+07
-2.57756e+07
-1.44387e+07
-1.92827e+07
-8.45939e+06
-1.30399e+07
-2.69357e+06
-7.06849e+06
2.83981e+06
-1.38892e+06
8.11153e+06
3.97917e+06
1.30959e+07
9.02979e+06
1.77368e+07
1.3737e+07
2.1979e+07
1.80828e+07
2.57835e+07
2.20785e+07
2.9077e+07
2.56994e+07
3.18243e+07
2.89549e+07
3.40092e+07
3.18601e+07
3.56305e+07
3.4415e+07
3.67473e+07
3.66644e+07
3.74147e+07
3.86108e+07
3.77314e+07
4.03007e+07
3.77945e+07
4.17562e+07
3.76818e+07
4.29928e+07
3.74901e+07
4.4056e+07
3.72625e+07
4.49398e+07
3.70386e+07
4.56705e+07
3.68439e+07
4.62507e+07
3.66831e+07
4.66979e+07
3.65508e+07
4.70156e+07
3.64466e+07
4.72195e+07
3.63601e+07
4.72803e+07
3.6272e+07
4.73367e+07
3.6239e+07
4.72023e+07
3.61901e+07
-1.0336e+08
-8.96581e+07
-9.87793e+07
-8.42344e+07
-9.09552e+07
-7.56582e+07
-8.3095e+07
-6.74254e+07
-7.53543e+07
-5.94986e+07
-6.77635e+07
-5.18594e+07
-6.03344e+07
-4.44919e+07
-5.30754e+07
-3.73814e+07
-4.59992e+07
-3.05173e+07
-3.91253e+07
-2.38927e+07
-3.24719e+07
-1.75032e+07
-2.60537e+07
-1.13526e+07
-1.98891e+07
-5.45373e+06
-1.39976e+07
170551
-8.39959e+06
5.48711e+06
-3.11197e+06
1.04617e+07
1.85399e+06
1.50375e+07
6.47676e+06
1.91549e+07
1.07432e+07
2.27613e+07
1.46576e+07
2.57965e+07
1.82122e+07
2.82241e+07
2.14131e+07
3.00556e+07
2.42875e+07
3.13143e+07
2.68398e+07
3.20934e+07
2.9117e+07
3.24791e+07
3.11314e+07
3.25862e+07
3.2917e+07
3.25291e+07
3.45108e+07
3.23784e+07
3.59144e+07
3.22111e+07
3.71671e+07
3.20655e+07
3.8272e+07
3.19564e+07
3.92341e+07
3.18892e+07
4.00704e+07
3.18639e+07
4.07879e+07
3.1864e+07
4.13952e+07
3.18755e+07
4.18912e+07
3.19049e+07
4.22929e+07
3.19301e+07
4.26504e+07
3.1971e+07
4.28814e+07
3.2012e+07
4.30571e+07
3.20702e+07
-1.022e+08
-8.80698e+07
-9.59597e+07
-8.09844e+07
-8.83654e+07
-7.25808e+07
-8.08061e+07
-6.44066e+07
-7.33662e+07
-5.64803e+07
-6.60753e+07
-4.88049e+07
-5.89481e+07
-4.13809e+07
-5.20011e+07
-3.42108e+07
-4.52549e+07
-2.72995e+07
-3.87285e+07
-2.06554e+07
-3.24397e+07
-1.42911e+07
-2.64067e+07
-8.22886e+06
-2.06493e+07
-2.49759e+06
-1.51859e+07
2.86556e+06
-1.00326e+07
7.81402e+06
-5.2039e+06
1.22937e+07
-712955
1.6242e+07
3.42991e+06
1.95927e+07
7.22224e+06
2.23065e+07
1.06765e+07
2.43597e+07
1.37965e+07
2.5796e+07
1.66214e+07
2.66778e+07
1.91588e+07
2.71376e+07
2.14593e+07
2.72869e+07
2.35334e+07
2.72567e+07
2.54141e+07
2.71568e+07
2.71324e+07
2.70448e+07
2.86909e+07
2.69682e+07
3.01045e+07
2.69529e+07
3.13953e+07
2.6994e+07
3.25587e+07
2.70786e+07
3.36021e+07
2.71927e+07
3.45389e+07
2.73274e+07
3.53742e+07
2.74636e+07
3.61121e+07
2.76027e+07
3.67759e+07
2.7733e+07
3.73634e+07
2.78701e+07
3.78636e+07
2.7998e+07
3.83174e+07
2.81237e+07
3.86895e+07
2.8256e+07
-1.00492e+08
-8.6453e+07
-9.31234e+07
-7.78499e+07
-8.56508e+07
-6.9527e+07
-7.83361e+07
-6.13875e+07
-7.11846e+07
-5.34427e+07
-6.42083e+07
-4.5714e+07
-5.74212e+07
-3.82236e+07
-5.0842e+07
-3.09948e+07
-4.44895e+07
-2.40549e+07
-3.83796e+07
-1.7434e+07
-3.25293e+07
-1.11692e+07
-2.6955e+07
-5.30156e+06
-2.16735e+07
121078
-1.67012e+07
5.04292e+06
-1.20542e+07
9.40687e+06
-7.7375e+06
1.31458e+07
-3.75953e+06
1.62001e+07
-119184
1.85366e+07
3.2039e+06
2.0179e+07
6.23e+06
2.11986e+07
8.98743e+06
2.17265e+07
1.15073e+07
2.19158e+07
1.38257e+07
2.19057e+07
1.5955e+07
2.18306e+07
1.79269e+07
2.17724e+07
1.97563e+07
2.17684e+07
2.14464e+07
2.1838e+07
2.30046e+07
2.19853e+07
2.44485e+07
2.21895e+07
2.5776e+07
2.24295e+07
2.6992e+07
2.26849e+07
2.81035e+07
2.29407e+07
2.91244e+07
2.31925e+07
3.00597e+07
2.34346e+07
3.09165e+07
2.36666e+07
3.17056e+07
2.38842e+07
3.24157e+07
2.4097e+07
3.3068e+07
2.43005e+07
3.36564e+07
2.4502e+07
3.42027e+07
2.46955e+07
-9.69328e+07
-8.31729e+07
-8.98358e+07
-7.48546e+07
-8.26625e+07
-6.65648e+07
-7.5646e+07
-5.84055e+07
-6.88255e+07
-5.04164e+07
-6.22141e+07
-4.26347e+07
-5.58271e+07
-3.51004e+07
-4.9682e+07
-2.78587e+07
-4.37921e+07
-2.09615e+07
-3.81697e+07
-1.44671e+07
-3.28269e+07
-8.43504e+06
-2.77764e+07
-2.93007e+06
-2.30314e+07
1.98106e+06
-1.86037e+07
6.22816e+06
-1.45046e+07
9.74115e+06
-1.07309e+07
1.24683e+07
-7.27057e+06
1.44075e+07
-4.10327e+06
1.56229e+07
-1.18947e+06
1.62549e+07
1.49374e+06
1.64844e+07
3.99535e+06
1.64886e+07
6.32576e+06
1.64263e+07
8.50861e+06
1.64031e+07
1.05624e+07
1.64646e+07
1.24861e+07
1.66238e+07
1.42855e+07
1.68727e+07
1.59645e+07
1.71957e+07
1.75315e+07
1.75628e+07
1.89909e+07
1.79484e+07
2.03463e+07
1.83314e+07
2.16028e+07
1.86991e+07
2.27692e+07
1.90493e+07
2.38614e+07
1.93857e+07
2.48781e+07
1.97027e+07
2.58238e+07
2.00032e+07
2.66968e+07
2.02888e+07
2.75198e+07
2.05551e+07
2.82771e+07
2.08239e+07
2.89877e+07
2.10795e+07
2.96435e+07
2.13387e+07
-9.40019e+07
-8.01914e+07
-8.66156e+07
-7.17958e+07
-7.96034e+07
-6.34975e+07
-7.28712e+07
-5.53372e+07
-6.64004e+07
-4.73542e+07
-6.01912e+07
-3.95949e+07
-5.42541e+07
-3.21172e+07
-4.85983e+07
-2.4989e+07
-4.32297e+07
-1.82886e+07
-3.81532e+07
-1.20981e+07
-3.33763e+07
-6.50546e+06
-2.89071e+07
-1.59442e+06
-2.47515e+07
2.54812e+06
-2.09128e+07
5.84296e+06
-1.7385e+07
8.24568e+06
-1.41464e+07
9.79468e+06
-1.11556e+07
1.06266e+07
-8.37625e+06
1.09455e+07
-5.7627e+06
1.09807e+07
-3.2914e+06
1.09333e+07
-946920
1.09382e+07
1.28631e+06
1.10586e+07
3.40494e+06
1.13061e+07
5.4048e+06
1.16647e+07
7.29032e+06
1.21052e+07
9.06324e+06
1.26022e+07
1.07299e+07
1.31197e+07
1.2293e+07
1.36331e+07
1.37576e+07
1.41267e+07
1.51298e+07
1.45913e+07
1.64175e+07
1.50285e+07
1.76282e+07
1.54464e+07
1.8772e+07
1.58388e+07
1.98446e+07
1.62096e+07
2.08514e+07
1.6559e+07
2.17993e+07
1.68894e+07
2.26917e+07
1.72086e+07
2.35378e+07
1.75182e+07
2.43306e+07
1.78288e+07
2.50824e+07
1.8131e+07
-9.03183e+07
-7.68e+07
-8.31725e+07
-6.83982e+07
-7.64376e+07
-6.01567e+07
-7.00442e+07
-5.20893e+07
-6.39665e+07
-4.42389e+07
-5.8205e+07
-3.66623e+07
-5.27636e+07
-2.94334e+07
-4.76411e+07
-2.26388e+07
-4.28372e+07
-1.63793e+07
-3.83538e+07
-1.07601e+07
-3.41916e+07
-5.88459e+06
-3.03525e+07
-1.86203e+06
-2.68324e+07
1.21204e+06
-2.36093e+07
3.31024e+06
-2.06345e+07
4.5235e+06
-1.78602e+07
5.06281e+06
-1.52287e+07
5.2115e+06
-1.27058e+07
5.2274e+06
-1.02663e+07
5.28902e+06
-7.90768e+06
5.49018e+06
-5.64202e+06
5.85069e+06
-3.48008e+06
6.34057e+06
-1.42493e+06
6.92092e+06
525475
7.55345e+06
2.37235e+06
8.21053e+06
4.11649e+06
8.85937e+06
5.75927e+06
9.48209e+06
7.30813e+06
1.00697e+07
8.76941e+06
1.06164e+07
1.01516e+07
1.11302e+07
1.14597e+07
1.16192e+07
1.26971e+07
1.20764e+07
1.38708e+07
1.25063e+07
1.49779e+07
1.2911e+07
1.60305e+07
1.32937e+07
1.70272e+07
1.36628e+07
1.7972e+07
1.40172e+07
1.88746e+07
1.43642e+07
1.97313e+07
1.47074e+07
2.05473e+07
1.50454e+07
-8.62232e+07
-7.28829e+07
-7.95008e+07
-6.45722e+07
-7.31633e+07
-5.64902e+07
-6.71869e+07
-4.86579e+07
-6.15623e+07
-4.11297e+07
-5.62949e+07
-3.39698e+07
-5.13807e+07
-2.72672e+07
-4.68249e+07
-2.11209e+07
-4.26259e+07
-1.56386e+07
-3.87823e+07
-1.09308e+07
-3.52912e+07
-7.12672e+06
-3.2134e+07
-4.33437e+06
-2.9263e+07
-2.56229e+06
-2.66106e+07
-1.6348e+06
-2.40908e+07
-1.25441e+06
-2.16382e+07
-1.08072e+06
-1.92167e+07
-869817
-1.68256e+07
-497730
-1.44845e+07
61837.9
-1.22138e+07
764305
-1.00298e+07
1.54791e+06
-7.93877e+06
2.3684e+06
-5.94234e+06
3.19421e+06
-4.04363e+06
4.00684e+06
-2.2468e+06
4.77763e+06
-545359
5.4979e+06
1.0666e+06
6.16702e+06
2.59434e+06
6.78406e+06
4.04776e+06
7.36468e+06
5.43062e+06
7.9155e+06
6.7415e+06
8.42547e+06
7.9899e+06
8.90675e+06
9.17344e+06
9.35508e+06
1.03035e+07
9.78132e+06
1.13809e+07
1.01916e+07
1.24058e+07
1.05833e+07
1.33851e+07
1.09656e+07
1.43198e+07
1.13355e+07
1.52182e+07
1.17009e+07
1.60783e+07
1.2061e+07
-8.20279e+07
-6.8416e+07
-7.57734e+07
-6.03052e+07
-6.98921e+07
-5.2522e+07
-6.43819e+07
-4.51147e+07
-5.92487e+07
-3.81489e+07
-5.45e+07
-3.17041e+07
-5.01454e+07
-2.58705e+07
-4.61872e+07
-2.07478e+07
-4.26353e+07
-1.64352e+07
-3.94896e+07
-1.30683e+07
-3.67166e+07
-1.07552e+07
-3.42409e+07
-9.4456e+06
-3.19451e+07
-8.8274e+06
-2.97037e+07
-8.5136e+06
-2.74474e+07
-8.12168e+06
-2.51561e+07
-7.49635e+06
-2.28484e+07
-6.6151e+06
-2.05586e+07
-5.54216e+06
-1.83233e+07
-4.3859e+06
-1.616e+07
-3.22824e+06
-1.40702e+07
-2.11e+06
-1.2061e+07
-1.04985e+06
-1.01374e+07
-53829.2
-8.30986e+06
852191
-6.57065e+06
1.67698e+06
-4.91462e+06
2.42954e+06
-3.33795e+06
3.11203e+06
-1.8283e+06
3.75088e+06
-387955
4.35434e+06
976779
4.90552e+06
2.2802e+06
5.42784e+06
3.51763e+06
5.90978e+06
4.70455e+06
6.37058e+06
5.83948e+06
6.81335e+06
6.92134e+06
7.23339e+06
7.96004e+06
7.64374e+06
8.94986e+06
8.03581e+06
9.90256e+06
8.42194e+06
1.08236e+07
8.79831e+06
1.17111e+07
9.1724e+06
-7.79314e+07
-6.34869e+07
-7.21455e+07
-5.57072e+07
-6.67361e+07
-4.83985e+07
-6.17131e+07
-4.16354e+07
-5.70914e+07
-3.55001e+07
-5.28904e+07
-3.00828e+07
-4.91329e+07
-2.54795e+07
-4.58349e+07
-2.17671e+07
-4.30097e+07
-1.91142e+07
-4.06143e+07
-1.75934e+07
-3.85285e+07
-1.70219e+07
-3.65637e+07
-1.68702e+07
-3.45784e+07
-1.66653e+07
-3.24986e+07
-1.5982e+07
-3.03476e+07
-1.48416e+07
-2.8161e+07
-1.33518e+07
-2.59841e+07
-1.16693e+07
-2.38523e+07
-9.96065e+06
-2.1769e+07
-8.32582e+06
-1.97326e+07
-6.80285e+06
-1.77526e+07
-5.40895e+06
-1.58408e+07
-4.14466e+06
-1.40153e+07
-3.03917e+06
-1.2263e+07
-2.05877e+06
-1.05836e+07
-1.18765e+06
-8.97669e+06
-418053
-7.42838e+06
294491
-5.95018e+06
957200
-4.55031e+06
1.54622e+06
-3.20589e+06
2.10432e+06
-1.93189e+06
2.61013e+06
-703517
3.09569e+06
471660
3.56035e+06
1.59147e+06
3.99767e+06
2.67129e+06
4.42676e+06
3.6993e+06
4.83264e+06
4.69132e+06
5.2296e+06
5.65115e+06
5.61678e+06
6.57997e+06
5.99914e+06
7.48086e+06
6.38118e+06
-7.4038e+07
-5.8309e+07
-6.87089e+07
-5.10276e+07
-6.3774e+07
-4.43926e+07
-5.92562e+07
-3.85012e+07
-5.51893e+07
-3.3456e+07
-5.16077e+07
-2.93612e+07
-4.85502e+07
-2.63128e+07
-4.60434e+07
-2.45143e+07
-4.40089e+07
-2.40635e+07
-4.22589e+07
-2.45323e+07
-4.05293e+07
-2.5053e+07
-3.8694e+07
-2.5081e+07
-3.66888e+07
-2.42441e+07
-3.46525e+07
-2.27562e+07
-3.2605e+07
-2.07932e+07
-3.05852e+07
-1.8612e+07
-2.86187e+07
-1.64153e+07
-2.66878e+07
-1.428e+07
-2.47782e+07
-1.22485e+07
-2.28992e+07
-1.03736e+07
-2.10635e+07
-8.67935e+06
-1.9297e+07
-7.23009e+06
-1.75744e+07
-5.96305e+06
-1.59076e+07
-4.85947e+06
-1.42996e+07
-3.9155e+06
-1.27321e+07
-3.06029e+06
-1.12328e+07
-2.29361e+06
-9.81485e+06
-1.64159e+06
-8.4403e+06
-1.03018e+06
-7.14303e+06
-497379
-5.88205e+06
11234.4
-4.67702e+06
490109
-3.53018e+06
930987
-2.41844e+06
1.36376e+06
-1.36461e+06
1.76597e+06
-343526
2.16041e+06
639598
2.5447e+06
1.59357e+06
2.924e+06
2.51982e+06
3.30382e+06
3.4106e+06
3.67653e+06
-7.03751e+07
-5.32048e+07
-6.55033e+07
-4.66209e+07
-6.10721e+07
-4.08702e+07
-5.71313e+07
-3.6082e+07
-5.3741e+07
-3.23899e+07
-5.09572e+07
-2.98741e+07
-4.88129e+07
-2.8967e+07
-4.71746e+07
-2.95694e+07
-4.56927e+07
-3.11427e+07
-4.40303e+07
-3.23282e+07
-4.21605e+07
-3.26708e+07
-4.00821e+07
-3.17095e+07
-3.80412e+07
-3.01043e+07
-3.605e+07
-2.8135e+07
-3.41858e+07
-2.59902e+07
-3.2419e+07
-2.37387e+07
-3.06796e+07
-2.13978e+07
-2.89572e+07
-1.90103e+07
-2.72673e+07
-1.66419e+07
-2.56071e+07
-1.43926e+07
-2.40036e+07
-1.24041e+07
-2.23911e+07
-1.06313e+07
-2.08048e+07
-9.10017e+06
-1.92558e+07
-7.78303e+06
-1.77106e+07
-6.61258e+06
-1.62248e+07
-5.59989e+06
-1.48142e+07
-4.79053e+06
-1.3421e+07
-4.04799e+06
-1.21154e+07
-3.4383e+06
-1.0827e+07
-2.87177e+06
-9.5986e+06
-2.36255e+06
-8.43193e+06
-1.91299e+06
-7.29301e+06
-1.47758e+06
-6.22317e+06
-1.08772e+06
-5.1804e+06
-707435
-4.17953e+06
-342711
-3.20786e+06
15813.8
-2.26423e+06
375279
-1.36091e+06
725558
-486806
1.0718e+06
-6.69352e+07
-4.85444e+07
-6.25771e+07
-4.2879e+07
-5.87647e+07
-3.82739e+07
-5.55876e+07
-3.48854e+07
-5.31124e+07
-3.28654e+07
-5.1407e+07
-3.27194e+07
-5.01027e+07
-3.46608e+07
-4.87032e+07
-3.69815e+07
-4.64936e+07
-3.74646e+07
-4.3666e+07
-3.6047e+07
-4.12723e+07
-3.42445e+07
-3.9009e+07
-3.23585e+07
-3.70186e+07
-3.05595e+07
-3.51242e+07
-2.88107e+07
-3.325e+07
-2.70831e+07
-3.15039e+07
-2.54097e+07
-2.99463e+07
-2.37999e+07
-2.85426e+07
-2.22159e+07
-2.7257e+07
-2.06006e+07
-2.59902e+07
-1.87851e+07
-2.48549e+07
-1.68886e+07
-2.38272e+07
-1.49909e+07
-2.27211e+07
-1.30791e+07
-2.15068e+07
-1.12671e+07
-2.02831e+07
-9.71157e+06
-1.9081e+07
-8.44336e+06
-1.77969e+07
-7.36287e+06
-1.65938e+07
-6.50423e+06
-1.535e+07
-5.7384e+06
-1.41564e+07
-5.09132e+06
-1.30128e+07
-4.56209e+06
-1.18732e+07
-4.07196e+06
-1.08129e+07
-3.66589e+06
-9.76296e+06
-3.28483e+06
-8.75729e+06
-2.93788e+06
-7.77636e+06
-2.60812e+06
-6.82173e+06
-2.28283e+06
-5.91363e+06
-1.97312e+06
-5.03535e+06
-1.66993e+06
-4.17297e+06
-1.36282e+06
-6.3763e+07
-4.46789e+07
-6.00779e+07
-4.02545e+07
-5.70984e+07
-3.72148e+07
-5.49051e+07
-3.56244e+07
-5.34688e+07
-3.69235e+07
-5.21013e+07
-3.98864e+07
-4.92045e+07
-4.04384e+07
-4.58017e+07
-3.87806e+07
-4.3437e+07
-3.69213e+07
-4.15441e+07
-3.51669e+07
-3.97629e+07
-3.34133e+07
-3.79919e+07
-3.17017e+07
-3.6223e+07
-3.00479e+07
-3.44938e+07
-2.84446e+07
-3.28188e+07
-2.6899e+07
-3.11944e+07
-2.54231e+07
-2.96202e+07
-2.40148e+07
-2.80926e+07
-2.26607e+07
-2.65954e+07
-2.1342e+07
-2.51553e+07
-2.0071e+07
-2.37482e+07
-1.87897e+07
-2.25248e+07
-1.75325e+07
-2.16178e+07
-1.63389e+07
-2.08461e+07
-1.50453e+07
-2.00682e+07
-1.35208e+07
-1.94817e+07
-1.21205e+07
-1.88899e+07
-1.07016e+07
-1.80889e+07
-9.39446e+06
-1.72554e+07
-8.32188e+06
-1.64018e+07
-7.44147e+06
-1.54481e+07
-6.72439e+06
-1.45554e+07
-6.16913e+06
-1.36185e+07
-5.67607e+06
-1.27087e+07
-5.26094e+06
-1.17954e+07
-4.90267e+06
-1.08885e+07
-4.57647e+06
-1.00252e+07
-4.28858e+06
-9.18229e+06
-4.02387e+06
-8.34564e+06
-3.76675e+06
-7.51491e+06
-3.50936e+06
-6.10102e+07
-4.20489e+07
-5.81431e+07
-3.9435e+07
-5.59939e+07
-3.86498e+07
-5.44216e+07
-4.11952e+07
-5.12129e+07
-4.26061e+07
-4.71564e+07
-4.09085e+07
-4.51171e+07
-3.92049e+07
-4.34775e+07
-3.7477e+07
-4.1831e+07
-3.57838e+07
-4.01582e+07
-3.41424e+07
-3.85334e+07
-3.25356e+07
-3.69286e+07
-3.09697e+07
-3.53401e+07
-2.94517e+07
-3.37811e+07
-2.79845e+07
-3.22552e+07
-2.65711e+07
-3.07606e+07
-2.52136e+07
-2.92995e+07
-2.39098e+07
-2.78766e+07
-2.26547e+07
-2.64973e+07
-2.14471e+07
-2.51547e+07
-2.02862e+07
-2.38773e+07
-1.91803e+07
-2.26577e+07
-1.81442e+07
-2.14707e+07
-1.71622e+07
-2.0342e+07
-1.62068e+07
-1.92938e+07
-1.52793e+07
-1.82518e+07
-1.42773e+07
-1.75576e+07
-1.33896e+07
-1.70318e+07
-1.24085e+07
-1.65451e+07
-1.13009e+07
-1.62139e+07
-1.03432e+07
-1.59031e+07
-9.3711e+06
-1.54111e+07
-8.51172e+06
-1.48854e+07
-7.80335e+06
-1.42852e+07
-7.19604e+06
-1.36227e+07
-6.70378e+06
-1.2967e+07
-6.32683e+06
-1.22973e+07
-6.00699e+06
-1.16028e+07
-5.72098e+06
-1.08917e+07
-5.4644e+06
-1.015e+07
-5.21577e+06
-5.85965e+07
-4.14988e+07
-5.59897e+07
-4.13994e+07
-5.30542e+07
-4.40177e+07
-4.83312e+07
-4.27974e+07
-4.61569e+07
-4.10838e+07
-4.46933e+07
-3.93923e+07
-4.31696e+07
-3.77627e+07
-4.169e+07
-3.61663e+07
-4.02121e+07
-3.46075e+07
-3.87303e+07
-3.30921e+07
-3.72651e+07
-3.16162e+07
-3.58156e+07
-3.0181e+07
-3.43822e+07
-2.87891e+07
-3.29692e+07
-2.74425e+07
-3.15796e+07
-2.6142e+07
-3.02154e+07
-2.48882e+07
-2.88804e+07
-2.36805e+07
-2.75794e+07
-2.25182e+07
-2.63151e+07
-2.14012e+07
-2.509e+07
-2.03325e+07
-2.39046e+07
-1.93145e+07
-2.27519e+07
-1.83466e+07
-2.16366e+07
-1.74252e+07
-2.05698e+07
-1.65456e+07
-1.95463e+07
-1.57025e+07
-1.86117e+07
-1.49144e+07
-1.7683e+07
-1.41845e+07
-1.68322e+07
-1.34892e+07
-1.60651e+07
-1.28218e+07
-1.52871e+07
-1.20853e+07
-1.47442e+07
-1.14292e+07
-1.43341e+07
-1.06868e+07
-1.40219e+07
-9.97021e+06
-1.3811e+07
-9.35285e+06
-1.36255e+07
-8.74407e+06
-1.33656e+07
-8.16688e+06
-1.30206e+07
-7.66996e+06
-1.26224e+07
-7.22092e+06
-1.21445e+07
-6.81588e+06
-1.16344e+07
-6.46228e+06
-5.51113e+07
-4.40751e+07
-5.01944e+07
-4.45942e+07
-4.67501e+07
-4.26774e+07
-4.52238e+07
-4.09806e+07
-4.38908e+07
-3.93592e+07
-4.25807e+07
-3.77944e+07
-4.12537e+07
-3.62855e+07
-3.9932e+07
-3.48196e+07
-3.86105e+07
-3.33928e+07
-3.72877e+07
-3.20049e+07
-3.59709e+07
-3.06544e+07
-3.46635e+07
-2.93411e+07
-3.33677e+07
-2.80661e+07
-3.20867e+07
-2.683e+07
-3.08236e+07
-2.56335e+07
-2.95816e+07
-2.44771e+07
-2.8364e+07
-2.3361e+07
-2.71742e+07
-2.22855e+07
-2.60147e+07
-2.12511e+07
-2.48863e+07
-2.02587e+07
-2.37896e+07
-1.93083e+07
-2.27255e+07
-1.83996e+07
-2.16972e+07
-1.75322e+07
-2.07088e+07
-1.67051e+07
-1.97645e+07
-1.59211e+07
-1.8858e+07
-1.51791e+07
-1.79825e+07
-1.44808e+07
-1.71511e+07
-1.38203e+07
-1.63609e+07
-1.3188e+07
-1.56509e+07
-1.25944e+07
-1.49519e+07
-1.20466e+07
-1.43334e+07
-1.15403e+07
-1.37829e+07
-1.10615e+07
-1.32514e+07
-1.05584e+07
-1.27863e+07
-1.00513e+07
-1.24295e+07
-9.53787e+06
-1.21463e+07
-9.02013e+06
-1.19307e+07
-8.56266e+06
-1.17348e+07
-8.09112e+06
-1.15371e+07
-7.60847e+06
-4.71435e+07
-4.42436e+07
-4.50949e+07
-4.22533e+07
-4.39983e+07
-4.05362e+07
-4.28343e+07
-3.89885e+07
-4.16864e+07
-3.75278e+07
-4.05369e+07
-3.61225e+07
-3.93734e+07
-3.47617e+07
-3.82019e+07
-3.34374e+07
-3.70243e+07
-3.21458e+07
-3.58425e+07
-3.0886e+07
-3.4661e+07
-2.96575e+07
-3.34833e+07
-2.84603e+07
-3.23125e+07
-2.72952e+07
-3.11519e+07
-2.61627e+07
-3.00047e+07
-2.50637e+07
-2.88739e+07
-2.39988e+07
-2.77624e+07
-2.29685e+07
-2.66729e+07
-2.19733e+07
-2.56076e+07
-2.10136e+07
-2.4568e+07
-2.00897e+07
-2.35557e+07
-1.92018e+07
-2.25725e+07
-1.83498e+07
-2.16201e+07
-1.7534e+07
-2.07006e+07
-1.67545e+07
-1.9814e+07
-1.60108e+07
-1.89606e+07
-1.53025e+07
-1.81394e+07
-1.46294e+07
-1.73545e+07
-1.39897e+07
-1.6611e+07
-1.33841e+07
-1.59056e+07
-1.28115e+07
-1.52304e+07
-1.22748e+07
-1.45894e+07
-1.17697e+07
-1.39831e+07
-1.12868e+07
-1.34264e+07
-1.0823e+07
-1.29038e+07
-1.0384e+07
-1.24128e+07
-9.97335e+06
-1.1975e+07
-9.58614e+06
-1.15693e+07
-9.20575e+06
-1.11813e+07
-8.8113e+06
-1.07719e+07
-8.36219e+06
-4.25341e+07
-4.11149e+07
-4.20371e+07
-3.96239e+07
-4.12971e+07
-3.82404e+07
-4.04228e+07
-3.6931e+07
-3.94869e+07
-3.56678e+07
-3.85129e+07
-3.44365e+07
-3.75096e+07
-3.32316e+07
-3.64852e+07
-3.20502e+07
-3.54458e+07
-3.08914e+07
-3.43959e+07
-2.97555e+07
-3.33401e+07
-2.86432e+07
-3.22826e+07
-2.75554e+07
-3.12271e+07
-2.64931e+07
-3.01771e+07
-2.54574e+07
-2.91357e+07
-2.44492e+07
-2.81061e+07
-2.34694e+07
-2.70908e+07
-2.25187e+07
-2.60925e+07
-2.15976e+07
-2.51132e+07
-2.07067e+07
-2.41548e+07
-1.98462e+07
-2.3219e+07
-1.90165e+07
-2.23074e+07
-1.82177e+07
-2.14212e+07
-1.74499e+07
-2.05617e+07
-1.67129e+07
-1.97296e+07
-1.60064e+07
-1.89258e+07
-1.53301e+07
-1.81505e+07
-1.46837e+07
-1.74053e+07
-1.40667e+07
-1.66902e+07
-1.34785e+07
-1.6005e+07
-1.29181e+07
-1.53468e+07
-1.23847e+07
-1.47169e+07
-1.18762e+07
-1.41187e+07
-1.13907e+07
-1.35527e+07
-1.09266e+07
-1.30134e+07
-1.04841e+07
-1.24969e+07
-1.00632e+07
-1.20033e+07
-9.65955e+06
-1.15343e+07
-9.26789e+06
-1.10929e+07
-8.88671e+06
-1.06973e+07
-8.53482e+06
-3.91332e+07
-3.83469e+07
-3.90155e+07
-3.72177e+07
-3.85984e+07
-3.60932e+07
-3.79979e+07
-3.49859e+07
-3.72847e+07
-3.38945e+07
-3.64973e+07
-3.28167e+07
-3.56576e+07
-3.17516e+07
-3.47804e+07
-3.06996e+07
-3.38761e+07
-2.96616e+07
-3.29522e+07
-2.8639e+07
-3.20152e+07
-2.76331e+07
-3.10702e+07
-2.66456e+07
-3.01217e+07
-2.56777e+07
-2.91737e+07
-2.47307e+07
-2.82295e+07
-2.3806e+07
-2.72923e+07
-2.29044e+07
-2.63648e+07
-2.20268e+07
-2.54496e+07
-2.1174e+07
-2.45486e+07
-2.03464e+07
-2.3664e+07
-1.95445e+07
-2.27973e+07
-1.87687e+07
-2.19499e+07
-1.80191e+07
-2.11231e+07
-1.72957e+07
-2.03179e+07
-1.65985e+07
-1.95352e+07
-1.59272e+07
-1.87757e+07
-1.52816e+07
-1.80397e+07
-1.46613e+07
-1.73277e+07
-1.40657e+07
-1.66397e+07
-1.34941e+07
-1.59756e+07
-1.29454e+07
-1.53349e+07
-1.24188e+07
-1.47179e+07
-1.19132e+07
-1.41246e+07
-1.14272e+07
-1.35546e+07
-1.09595e+07
-1.30056e+07
-1.05087e+07
-1.24757e+07
-1.00736e+07
-1.1965e+07
-9.65243e+06
-1.14745e+07
-9.24412e+06
-1.10036e+07
-8.84967e+06
-1.05415e+07
-8.46873e+06
-3.6445e+07
-3.59146e+07
-3.64111e+07
-3.50364e+07
-3.61556e+07
-3.41153e+07
-3.57332e+07
-3.31771e+07
-3.51902e+07
-3.22329e+07
-3.45595e+07
-3.12876e+07
-3.38637e+07
-3.03447e+07
-3.31193e+07
-2.94066e+07
-3.23384e+07
-2.84756e+07
-3.15303e+07
-2.75538e+07
-3.07024e+07
-2.66433e+07
-2.98608e+07
-2.57459e+07
-2.90104e+07
-2.48631e+07
-2.81556e+07
-2.39966e+07
-2.73001e+07
-2.31476e+07
-2.64472e+07
-2.23171e+07
-2.55997e+07
-2.15063e+07
-2.47601e+07
-2.07159e+07
-2.39305e+07
-1.99464e+07
-2.31129e+07
-1.91984e+07
-2.23089e+07
-1.84722e+07
-2.15198e+07
-1.77681e+07
-2.07469e+07
-1.7086e+07
-1.99911e+07
-1.6426e+07
-1.92532e+07
-1.5788e+07
-1.85338e+07
-1.51715e+07
-1.78334e+07
-1.45763e+07
-1.7152e+07
-1.40018e+07
-1.64898e+07
-1.34472e+07
-1.58469e+07
-1.29119e+07
-1.52229e+07
-1.23949e+07
-1.46174e+07
-1.18953e+07
-1.40301e+07
-1.14119e+07
-1.34603e+07
-1.09436e+07
-1.29067e+07
-1.04889e+07
-1.23682e+07
-1.00468e+07
-1.18438e+07
-9.61592e+06
-1.13317e+07
-9.19483e+06
-1.08286e+07
-8.78135e+06
-1.03305e+07
-8.3722e+06
-3.42253e+07
-3.3783e+07
-3.4193e+07
-3.30742e+07
-3.40071e+07
-3.23076e+07
-3.36878e+07
-3.15072e+07
-3.32602e+07
-3.0687e+07
-3.27469e+07
-2.98555e+07
-3.21662e+07
-2.90183e+07
-3.15327e+07
-2.81796e+07
-3.08579e+07
-2.73425e+07
-3.01511e+07
-2.65098e+07
-2.94199e+07
-2.56838e+07
-2.86705e+07
-2.48666e+07
-2.79082e+07
-2.406e+07
-2.71375e+07
-2.32655e+07
-2.63621e+07
-2.24847e+07
-2.55854e+07
-2.17186e+07
-2.48103e+07
-2.09683e+07
-2.40393e+07
-2.02346e+07
-2.32745e+07
-1.95181e+07
-2.25178e+07
-1.88194e+07
-2.17709e+07
-1.81388e+07
-2.1035e+07
-1.74766e+07
-2.03114e+07
-1.68329e+07
-1.96009e+07
-1.62077e+07
-1.89043e+07
-1.56009e+07
-1.82223e+07
-1.50121e+07
-1.75551e+07
-1.44411e+07
-1.69029e+07
-1.38874e+07
-1.6266e+07
-1.33504e+07
-1.56442e+07
-1.28294e+07
-1.50373e+07
-1.23235e+07
-1.44449e+07
-1.1832e+07
-1.38665e+07
-1.13539e+07
-1.33014e+07
-1.0888e+07
-1.27487e+07
-1.04332e+07
-1.22074e+07
-9.98822e+06
-1.16761e+07
-9.55165e+06
-1.11533e+07
-9.12171e+06
-1.06373e+07
-8.69626e+06
-1.01268e+07
-8.27296e+06
-3.23316e+07
-3.19083e+07
-3.22825e+07
-3.13154e+07
-3.21237e+07
-3.06641e+07
-3.18613e+07
-2.99731e+07
-3.15082e+07
-2.92555e+07
-3.10784e+07
-2.85203e+07
-3.05851e+07
-2.7774e+07
-3.00399e+07
-2.70214e+07
-2.94524e+07
-2.62663e+07
-2.88311e+07
-2.55117e+07
-2.8183e+07
-2.47602e+07
-2.7514e+07
-2.40141e+07
-2.68292e+07
-2.32752e+07
-2.61329e+07
-2.25452e+07
-2.54289e+07
-2.18255e+07
-2.47205e+07
-2.11173e+07
-2.40105e+07
-2.04216e+07
-2.33014e+07
-1.97392e+07
-2.25952e+07
-1.90709e+07
-2.18939e+07
-1.84171e+07
-2.1199e+07
-1.77783e+07
-2.05118e+07
-1.71548e+07
-1.98334e+07
-1.65466e+07
-1.91649e+07
-1.59538e+07
-1.85069e+07
-1.53763e+07
-1.78599e+07
-1.48139e+07
-1.72245e+07
-1.42663e+07
-1.66008e+07
-1.3733e+07
-1.59889e+07
-1.32137e+07
-1.53888e+07
-1.27075e+07
-1.48004e+07
-1.2214e+07
-1.42233e+07
-1.17322e+07
-1.36571e+07
-1.12614e+07
-1.31013e+07
-1.08005e+07
-1.25551e+07
-1.03484e+07
-1.20177e+07
-9.90403e+06
-1.14883e+07
-9.46602e+06
-1.09659e+07
-9.03289e+06
-1.04497e+07
-8.60309e+06
-9.93893e+06
-8.17501e+06
-3.06825e+07
-3.02502e+07
-3.06144e+07
-2.97384e+07
-3.04637e+07
-2.91731e+07
-3.02322e+07
-2.85681e+07
-2.99262e+07
-2.79342e+07
-2.95545e+07
-2.72795e+07
-2.91258e+07
-2.66105e+07
-2.86489e+07
-2.59321e+07
-2.81316e+07
-2.52481e+07
-2.75807e+07
-2.45618e+07
-2.70024e+07
-2.38758e+07
-2.6402e+07
-2.31925e+07
-2.57841e+07
-2.25136e+07
-2.51529e+07
-2.1841e+07
-2.45118e+07
-2.11759e+07
-2.3864e+07
-2.05195e+07
-2.32121e+07
-1.98729e+07
-2.25585e+07
-1.9237e+07
-2.19052e+07
-1.86124e+07
-2.12541e+07
-1.79996e+07
-2.06066e+07
-1.7399e+07
-1.99641e+07
-1.6811e+07
-1.93276e+07
-1.62356e+07
-1.8698e+07
-1.5673e+07
-1.80762e+07
-1.51231e+07
-1.74626e+07
-1.45857e+07
-1.68578e+07
-1.40606e+07
-1.62619e+07
-1.35474e+07
-1.56751e+07
-1.30456e+07
-1.50976e+07
-1.25549e+07
-1.45291e+07
-1.20745e+07
-1.39696e+07
-1.16038e+07
-1.34187e+07
-1.11421e+07
-1.2876e+07
-1.06884e+07
-1.23412e+07
-1.02418e+07
-1.18136e+07
-9.80145e+06
-1.12927e+07
-9.36616e+06
-1.0778e+07
-8.93486e+06
-1.02689e+07
-8.50642e+06
-9.76506e+06
-8.07975e+06
-2.92266e+07
-2.87742e+07
-2.91405e+07
-2.83209e+07
-2.89895e+07
-2.78204e+07
-2.87742e+07