/*--------------------------------*- C++ -*----------------------------------*\
| =========                 |                                                 |
| \\      /  F ield         | OpenFOAM: The Open Source CFD Toolbox           |
|  \\    /   O peration     | Version:  v2012                                 |
|   \\  /    A nd           | Website:  www.openfoam.com                      |
|    \\/     M anipulation  |                                                 |
\*---------------------------------------------------------------------------*/
FoamFile
{
    version     2.0;
    format      ascii;
    class       volSymmTensorField;
    location    "20";
    object      sigma;
}
// * * * * * * * * * * * * * * * * * * * * * * * * * * * * * * * * * * * * * //

dimensions      [1 -1 -2 0 0 0 0];


internalField   nonuniform List<symmTensor> 
32000
(
(-2.62961e+08 664821 -2.0307e-08 -429792 1.79682e-07 -4.59312e+07)
(-2.56912e+08 9.18241e+06 4.58324e-08 3.57032e+06 1.33315e-07 -3.77465e+07)
(-2.62797e+08 -1.59609e+06 6.12138e-08 -5.1275e+06 1.04953e-07 -3.78059e+07)
(-2.55096e+08 9.06108e+06 9.86868e-08 625706 -2.34166e-08 -2.8455e+07)
(-2.60189e+08 -3.71588e+06 3.60874e-08 -8.35534e+06 6.43744e-08 -2.73038e+07)
(-2.45006e+08 8.63811e+06 6.30342e-08 -3.89854e+06 -2.96602e-08 -2.00419e+07)
(-2.42792e+08 -4.99209e+06 2.19106e-08 -1.0525e+07 4.08741e-10 -1.75956e+07)
(-2.23851e+08 6.66554e+06 5.56251e-08 -7.53204e+06 -8.49857e-08 -1.39386e+07)
(-2.19659e+08 -5.11798e+06 3.19035e-08 -1.14251e+07 -2.6774e-08 -9.72158e+06)
(-2.04322e+08 5.31072e+06 6.77644e-08 -1.00156e+07 -1.7794e-07 -8.01184e+06)
(-1.98394e+08 -5.06804e+06 3.46105e-08 -1.15533e+07 -1.33e-07 -2.2852e+06)
(-1.86139e+08 4.27654e+06 6.14511e-08 -1.1879e+07 -1.28951e-07 -2.34177e+06)
(-1.78598e+08 -4.95333e+06 2.9334e-08 -1.11563e+07 -1.44251e-07 4.7613e+06)
(-1.69034e+08 3.40276e+06 4.01567e-08 -1.31276e+07 -1.82647e-07 3.14164e+06)
(-1.60045e+08 -4.81406e+06 1.17676e-08 -1.03531e+07 -2.08838e-07 1.14518e+07)
(-1.52853e+08 2.62758e+06 3.2386e-08 -1.3821e+07 -1.81514e-07 8.45723e+06)
(-1.42578e+08 -4.66594e+06 1.93162e-08 -9.2134e+06 -2.30104e-07 1.78114e+07)
(-1.37493e+08 1.92301e+06 4.31974e-08 -1.40254e+07 -2.05832e-07 1.36097e+07)
(-1.26079e+08 -4.51511e+06 2.30241e-08 -7.78482e+06 -2.70791e-07 2.38574e+07)
(-1.22873e+08 1.27354e+06 1.88449e-08 -1.37971e+07 -1.52285e-07 1.85926e+07)
(-1.10451e+08 -4.36592e+06 -4.04234e-09 -6.10241e+06 -2.04975e-07 2.96127e+07)
(-1.08929e+08 671277 -6.1046e-08 -1.31876e+07 -4.65474e-08 2.33963e+07)
(-9.56165e+07 -4.21732e+06 -5.50947e-08 -4.19646e+06 -3.62452e-08 3.5075e+07)
(-9.56042e+07 109400 -4.935e-08 -1.2238e+07 1.77248e-07 2.80153e+07)
(-8.15083e+07 -4.07031e+06 7.92643e-09 -2.09202e+06 5.3834e-08 4.02473e+07)
(-8.28525e+07 -417483 2.49333e-08 -1.09859e+07 8.65663e-08 3.24501e+07)
(-6.80682e+07 -3.92552e+06 1.61216e-08 189822 2.58869e-07 4.51326e+07)
(-7.06289e+07 -915788 5.11191e-08 -9.45973e+06 1.6685e-07 3.66806e+07)
(-5.52442e+07 -3.78249e+06 3.46276e-08 2.63178e+06 2.46943e-07 4.97385e+07)
(-5.88951e+07 -1.38925e+06 9.20576e-08 -7.68476e+06 1.76138e-07 4.06943e+07)
(-4.29944e+07 -3.636e+06 5.7067e-08 5.21621e+06 2.40902e-07 5.40435e+07)
(-4.76156e+07 -1.84068e+06 1.17158e-07 -5.68214e+06 1.26385e-07 4.4494e+07)
(-3.12833e+07 -3.4838e+06 5.94568e-08 7.92629e+06 -5.97963e-09 5.80343e+07)
(-3.67681e+07 -2.27318e+06 6.14584e-08 -3.47895e+06 -4.43812e-08 4.80555e+07)
(-2.00761e+07 -3.32878e+06 1.44018e-09 1.07488e+07 -4.33282e-08 6.17296e+07)
(-2.63267e+07 -2.68847e+06 4.13958e-08 -1.09155e+06 4.20732e-08 5.13485e+07)
(-9.35246e+06 -3.15993e+06 3.93984e-08 1.36659e+07 -2.44161e-09 6.50787e+07)
(-1.62714e+07 -3.08703e+06 4.25507e-08 1.46115e+06 -1.19025e-08 5.43721e+07)
(902894 -2.97349e+06 2.87216e-09 1.66588e+07 -1.68163e-08 6.80551e+07)
(-6.5967e+06 -3.47089e+06 -1.87317e-08 4.15152e+06 -5.38877e-08 5.70959e+07)
(1.0709e+07 -2.77353e+06 -2.15147e-08 1.97122e+07 -5.26447e-08 7.06848e+07)
(2.70898e+06 -3.83876e+06 -1.24028e-08 6.96572e+06 -5.37295e-08 5.94708e+07)
(2.00624e+07 -2.54389e+06 9.62704e-09 2.28023e+07 -3.20394e-08 7.28864e+07)
(1.16485e+07 -4.1877e+06 2.56779e-08 9.87905e+06 -3.43502e-08 6.15062e+07)
(2.89587e+07 -2.28188e+06 1.66036e-08 2.59034e+07 -2.51689e-08 7.46378e+07)
(2.0205e+07 -4.51659e+06 2.04768e-08 1.2857e+07 -2.10156e-08 6.31425e+07)
(3.73949e+07 -1.98781e+06 3.17984e-09 2.899e+07 -2.49526e-08 7.59515e+07)
(2.83759e+07 -4.81889e+06 4.12102e-09 1.58846e+07 -9.58039e-09 6.43316e+07)
(4.53419e+07 -1.64712e+06 1.11441e-09 3.2027e+07 -4.0498e-08 7.67344e+07)
(3.61385e+07 -5.08625e+06 -1.44205e-08 1.89131e+07 1.44982e-08 6.51196e+07)
(5.27829e+07 -1.26469e+06 -1.40783e-08 3.49788e+07 -3.79194e-08 7.70097e+07)
(4.34582e+07 -5.31175e+06 -2.09842e-08 2.19087e+07 8.02643e-10 6.53904e+07)
(5.96859e+07 -833526 -4.52725e-09 3.78036e+07 -1.65052e-08 7.67403e+07)
(5.03216e+07 -5.48048e+06 2.08284e-08 2.48394e+07 -1.0246e-08 6.51784e+07)
(6.60058e+07 -349427 2.49835e-08 4.04524e+07 3.34259e-09 7.5871e+07)
(5.66782e+07 -5.58325e+06 5.09895e-08 2.76343e+07 -5.54673e-08 6.4484e+07)
(7.17406e+07 165353 2.53129e-08 4.28833e+07 -6.02287e-08 7.45229e+07)
(6.25129e+07 -5.6023e+06 7.02155e-08 3.02777e+07 -6.53943e-08 6.32559e+07)
(7.68328e+07 719266 4.359e-08 4.50434e+07 -4.204e-08 7.25871e+07)
(6.77978e+07 -5.52559e+06 1.40768e-08 3.26839e+07 8.10163e-09 6.1641e+07)
(8.12883e+07 1.28755e+06 -2.99974e-08 4.68872e+07 3.91421e-08 7.01965e+07)
(7.25138e+07 -5.34074e+06 -3.46572e-08 3.48366e+07 3.99416e-08 5.95589e+07)
(8.50914e+07 1.85942e+06 -4.12185e-09 4.83698e+07 3.41923e-08 6.73654e+07)
(7.66786e+07 -5.0391e+06 -1.51055e-08 3.66902e+07 3.09725e-08 5.71698e+07)
(8.82519e+07 2.41661e+06 -1.04209e-08 4.94521e+07 2.58609e-08 6.41701e+07)
(8.0288e+07 -4.61976e+06 -1.50541e-08 3.82027e+07 5.25679e-08 5.45078e+07)
(9.08158e+07 2.93491e+06 -4.25153e-09 5.01062e+07 4.52568e-08 6.07565e+07)
(8.34005e+07 -4.07926e+06 -1.16525e-08 3.93873e+07 5.50646e-08 5.16777e+07)
(9.28001e+07 3.40518e+06 -4.83678e-09 5.03082e+07 4.66917e-08 5.71471e+07)
(8.60407e+07 -3.43225e+06 1.13385e-09 4.01888e+07 2.8646e-08 4.88163e+07)
(9.42913e+07 3.80771e+06 4.97494e-09 5.00493e+07 1.38964e-08 5.35377e+07)
(8.82783e+07 -2.68264e+06 2.33353e-10 4.065e+07 1.33436e-08 4.59694e+07)
(9.53268e+07 4.14056e+06 -4.84726e-09 4.93244e+07 2.10164e-08 4.99583e+07)
(9.01578e+07 -1.85799e+06 -1.16261e-09 4.07455e+07 -1.27554e-08 4.32497e+07)
(9.59742e+07 4.40308e+06 3.6921e-09 4.814e+07 2.11265e-08 4.65088e+07)
(9.17201e+07 -986518 1.02558e-08 4.04691e+07 1.09986e-08 4.07083e+07)
(9.62989e+07 4.60251e+06 6.25558e-09 4.65118e+07 -2.30842e-08 4.32698e+07)
(8.95683e+07 39840.9 6.56776e-09 4.07678e+07 1.1676e-08 3.91008e+07)
(9.1323e+07 4.36611e+06 1.82438e-10 4.45797e+07 0 4.07708e+07)
(8.49378e+07 455997 9.12189e-10 4.04876e+07 -2.3352e-08 3.76276e+07)
(-2.65864e+08 2.93952e+06 1.50598e-07 -5.30904e+06 2.00274e-08 -4.55516e+07)
(-2.5533e+08 1.36429e+07 2.04721e-07 3.52077e+06 2.46946e-08 -3.51427e+07)
(-2.63535e+08 2.55345e+06 1.78443e-07 -7.75838e+06 2.58632e-08 -3.58322e+07)
(-2.53453e+08 1.36553e+07 1.62844e-07 485807 1.69616e-08 -2.58556e+07)
(-2.59924e+08 1.69366e+06 1.0588e-07 -9.38327e+06 -1.16568e-07 -2.52798e+07)
(-2.41274e+08 1.27864e+07 1.43911e-07 -4.92961e+06 -6.30957e-08 -1.91102e+07)
(-2.40521e+08 -698033 1.30565e-07 -1.08362e+07 -4.37504e-08 -1.73387e+07)
(-2.2076e+08 9.94911e+06 1.8876e-07 -7.12034e+06 -7.60081e-08 -1.26589e+07)
(-2.1912e+08 -2.28524e+06 1.41395e-07 -1.19725e+07 -1.34151e-07 -1.01797e+07)
(-2.01514e+08 7.60069e+06 1.70086e-07 -8.98507e+06 -9.47545e-08 -6.56633e+06)
(-1.9875e+08 -3.44173e+06 1.24201e-07 -1.23675e+07 -1.95704e-07 -3.16894e+06)
(-1.83447e+08 5.60747e+06 1.6194e-07 -1.04119e+07 -2.82276e-07 -764654)
(-1.79475e+08 -4.34432e+06 1.05334e-07 -1.21794e+07 -1.95228e-07 3.61732e+06)
(-1.66427e+08 3.87006e+06 1.87637e-07 -1.13755e+07 -1.98344e-07 4.79219e+06)
(-1.61241e+08 -5.07657e+06 1.37569e-07 -1.15186e+07 -2.18894e-07 1.01487e+07)
(-1.50334e+08 2.3246e+06 1.67384e-07 -1.18903e+07 -1.90849e-07 1.01337e+07)
(-1.43971e+08 -5.68618e+06 8.42136e-08 -1.04633e+07 -2.77201e-07 1.64173e+07)
(-1.35069e+08 931474 1.85627e-07 -1.19852e+07 5.30892e-08 1.5279e+07)
(-1.27591e+08 -6.20304e+06 1.41183e-07 -9.07593e+06 6.68927e-08 2.24156e+07)
(-1.20552e+08 -335493 1.97674e-07 -1.16961e+07 2.36198e-07 2.02345e+07)
(-1.12032e+08 -6.64651e+06 1.45513e-08 -7.40513e+06 2.78693e-07 2.81431e+07)
(-1.06713e+08 -1.49628e+06 1.28563e-07 -1.10558e+07 1.22358e-07 2.49987e+07)
(-9.72342e+07 -7.02979e+06 4.39119e-08 -5.49181e+06 1.67783e-07 3.35971e+07)
(-9.34929e+07 -2.56781e+06 1.49428e-07 -1.00941e+07 9.94822e-08 2.95697e+07)
(-8.31393e+07 -7.36394e+06 6.61353e-08 -3.3659e+06 7.41241e-08 3.87733e+07)
(-8.08369e+07 -3.56357e+06 2.48463e-08 -8.83618e+06 1.20635e-08 3.39492e+07)
(-6.97003e+07 -7.65601e+06 2.07773e-08 -1.05683e+06 4.21282e-08 4.36609e+07)
(-6.86983e+07 -4.49265e+06 3.47119e-08 -7.30448e+06 1.73344e-08 3.81345e+07)
(-5.68752e+07 -7.91097e+06 1.20843e-07 1.40953e+06 6.50383e-08 4.82617e+07)
(-5.70417e+07 -5.36246e+06 1.36086e-07 -5.52449e+06 -9.78036e-08 4.21025e+07)
(-4.46292e+07 -8.12898e+06 1.6684e-07 4.00932e+06 -3.69709e-09 5.25575e+07)
(-4.58325e+07 -6.17879e+06 1.17073e-07 -3.51552e+06 2.4508e-08 4.58429e+07)
(-3.29237e+07 -8.31103e+06 7.1136e-08 6.72955e+06 7.26402e-08 5.65337e+07)
(-3.5043e+07 -6.9444e+06 4.86068e-08 -1.29956e+06 2.83953e-08 4.93571e+07)
(-2.17382e+07 -8.45425e+06 7.79687e-08 9.54432e+06 3.38407e-08 6.0177e+07)
(-2.46576e+07 -7.66246e+06 1.04824e-07 1.09827e+06 -5.89353e-08 5.25975e+07)
(-1.10504e+07 -8.55287e+06 6.4993e-08 1.24348e+07 -5.67124e-08 6.3474e+07)
(-1.46575e+07 -8.33217e+06 2.85408e-08 3.6596e+06 -2.1631e-08 5.55385e+07)
(-836506 -8.60318e+06 -1.00576e-08 1.53918e+07 -2.9838e-08 6.63912e+07)
(-5.03621e+06 -8.95054e+06 1.62961e-08 6.35545e+06 -1.78358e-07 5.81835e+07)
(8.90292e+06 -8.5947e+06 1.20239e-08 1.83828e+07 -6.84359e-08 6.89091e+07)
(4.20143e+06 -9.5148e+06 4.97763e-08 9.1561e+06 -1.86617e-07 6.046e+07)
(1.8176e+07 -8.51667e+06 3.62261e-08 2.13891e+07 -5.11132e-08 7.10113e+07)
(1.30554e+07 -1.00155e+07 3.12545e-08 1.20377e+07 -9.35263e-08 6.2337e+07)
(2.69852e+07 -8.35841e+06 1.97733e-08 2.43966e+07 -2.53463e-08 7.26429e+07)
(2.15111e+07 -1.0442e+07 1.17449e-08 1.49586e+07 -7.63393e-08 6.38247e+07)
(3.53095e+07 -8.10645e+06 1.40849e-08 2.73601e+07 5.58002e-09 7.38089e+07)
(2.95348e+07 -1.07826e+07 1.15238e-08 1.78748e+07 -3.40543e-08 6.48185e+07)
(4.31489e+07 -7.74913e+06 -1.01692e-08 3.02694e+07 -1.81364e-08 7.44723e+07)
(3.7113e+07 -1.10172e+07 -6.434e-09 2.07513e+07 -3.91832e-08 6.5332e+07)
(5.04715e+07 -7.2696e+06 -1.38962e-08 3.30845e+07 1.40331e-08 7.45842e+07)
(4.4203e+07 -1.11306e+07 1.71564e-08 2.35267e+07 -5.42995e-08 6.53452e+07)
(5.72579e+07 -6.66262e+06 2.99113e-08 3.57619e+07 -7.06657e-09 7.42037e+07)
(5.07723e+07 -1.10985e+07 5.01304e-08 2.61616e+07 -5.19662e-08 6.47941e+07)
(6.34949e+07 -5.92321e+06 6.57303e-08 3.8295e+07 -4.27512e-08 7.32603e+07)
(5.67956e+07 -1.09027e+07 2.4018e-08 2.8589e+07 -2.52331e-08 6.37902e+07)
(6.91374e+07 -5.04636e+06 5.36755e-08 4.06063e+07 -6.41608e-08 7.18234e+07)
(6.22342e+07 -1.05234e+07 -2.63208e-08 3.0769e+07 -5.16666e-08 6.22452e+07)
(7.41982e+07 -4.04536e+06 -3.87511e-08 4.27009e+07 5.6918e-09 6.99105e+07)
(6.70987e+07 -9.94833e+06 -9.01315e-08 3.26672e+07 2.94803e-08 6.02955e+07)
(7.86378e+07 -2.92925e+06 -4.03408e-08 4.45094e+07 2.25611e-08 6.75547e+07)
(7.13689e+07 -9.17522e+06 -3.18e-08 3.42398e+07 4.57088e-09 5.79534e+07)
(8.24756e+07 -1.7211e+06 -3.49971e-08 4.60046e+07 2.14086e-08 6.48691e+07)
(7.50952e+07 -8.20095e+06 -3.387e-08 3.55005e+07 2.8295e-08 5.53348e+07)
(8.57172e+07 -448495 -1.68987e-08 4.71658e+07 1.93059e-08 6.1871e+07)
(7.82897e+07 -7.04966e+06 -5.00141e-09 3.64137e+07 5.18887e-09 5.25377e+07)
(8.83875e+07 859628 -1.09266e-08 4.79315e+07 2.90236e-08 5.87248e+07)
(8.10295e+07 -5.72559e+06 -8.42841e-09 3.70348e+07 2.61266e-08 4.96373e+07)
(9.05383e+07 2.16895e+06 -2.29065e-09 4.83269e+07 3.61374e-08 5.54491e+07)
(8.33586e+07 -4.27334e+06 4.67568e-09 3.73398e+07 3.38122e-08 4.67881e+07)
(9.2211e+07 3.44611e+06 2.60103e-09 4.82985e+07 3.01142e-08 5.21918e+07)
(8.53552e+07 -2.70246e+06 -2.06725e-09 3.73965e+07 3.96401e-08 4.40252e+07)
(9.34793e+07 4.66211e+06 1.14931e-10 4.78771e+07 1.24632e-09 4.90061e+07)
(8.70858e+07 -1.0509e+06 5.80012e-09 3.72156e+07 -9.00375e-10 4.14757e+07)
(9.44424e+07 5.76563e+06 1.10702e-08 4.71023e+07 -1.26604e-08 4.59934e+07)
(8.86523e+07 687586 8.80725e-09 3.68661e+07 -3.74923e-09 3.92515e+07)
(9.43136e+07 6.97436e+06 8.22617e-09 4.49281e+07 -3.50281e-08 4.28473e+07)
(8.82562e+07 2.47402e+06 2.55413e-09 3.67926e+07 -5.83801e-09 3.75146e+07)
(9.12351e+07 7.33304e+06 7.29751e-10 4.27985e+07 5.83801e-09 4.02101e+07)
(8.43279e+07 3.43104e+06 3.28388e-09 3.75465e+07 0 3.65623e+07)
(-2.66383e+08 7.26157e+06 2.3906e-07 -7.19692e+06 -1.14739e-07 -4.45515e+07)
(-2.53825e+08 1.84702e+07 2.87236e-07 3.25847e+06 -1.47951e-07 -3.33232e+07)
(-2.64147e+08 6.75054e+06 2.49444e-07 -9.83953e+06 -9.81078e-08 -3.49741e+07)
(-2.51765e+08 1.8354e+07 2.29929e-07 309439 -2.64735e-07 -2.3834e+07)
(-2.59077e+08 5.65553e+06 1.87445e-07 -9.66052e+06 -1.4346e-07 -2.3818e+07)
(-2.36729e+08 1.62431e+07 2.459e-07 -4.95352e+06 -1.32617e-07 -1.76824e+07)
(-2.37954e+08 2.6565e+06 2.6401e-07 -1.14187e+07 -1.4647e-07 -1.7027e+07)
(-2.16748e+08 1.27174e+07 3.00935e-07 -6.66334e+06 -2.81008e-07 -1.11909e+07)
(-2.17502e+08 151675 2.48642e-07 -1.24958e+07 -2.50746e-07 -1.02476e+07)
(-1.97862e+08 9.56989e+06 2.42781e-07 -8.02848e+06 -1.71105e-07 -5.01513e+06)
(-1.9791e+08 -1.94999e+06 2.00033e-07 -1.29395e+07 -2.60603e-07 -3.57357e+06)
(-1.80045e+08 6.76901e+06 1.45924e-07 -9.02525e+06 -2.12758e-07 865481)
(-1.79232e+08 -3.73737e+06 1.90662e-07 -1.28284e+07 -2.18181e-07 2.93871e+06)
(-1.63218e+08 4.26357e+06 1.30595e-07 -9.64663e+06 -3.00886e-07 6.48045e+06)
(-1.61452e+08 -5.27843e+06 1.48465e-07 -1.22381e+07 -1.46081e-07 9.26123e+06)
(-1.47292e+08 2.00816e+06 7.32071e-08 -9.90217e+06 -1.58539e-07 1.18511e+07)
(-1.44529e+08 -6.6201e+06 1.85939e-07 -1.1239e+07 1.56187e-08 1.53679e+07)
(-1.32184e+08 -35309.7 2.32908e-07 -9.80728e+06 3.49215e-08 1.69953e+07)
(-1.28414e+08 -7.7974e+06 2.73806e-07 -9.88888e+06 2.30673e-07 2.1243e+07)
(-1.17817e+08 -1.89891e+06 2.68957e-07 -9.38032e+06 -1.43627e-07 2.19274e+07)
(-1.13058e+08 -8.837e+06 2.80739e-07 -8.23835e+06 1.07912e-08 2.68726e+07)
(-1.04118e+08 -3.60915e+06 2.70681e-07 -8.63716e+06 -2.8818e-07 2.66594e+07)
(-9.84127e+07 -9.76176e+06 2.03458e-07 -6.32868e+06 3.40825e-08 3.22519e+07)
(-9.10274e+07 -5.18706e+06 1.43522e-07 -7.59644e+06 -1.5371e-07 3.11881e+07)
(-8.44374e+07 -1.0587e+07 4.03445e-08 -4.19881e+06 -4.50901e-08 3.73671e+07)
(-7.8491e+07 -6.64831e+06 1.28324e-08 -6.27483e+06 -7.56611e-08 3.55127e+07)
(-7.10976e+07 -1.13244e+07 2.0431e-08 -1.88489e+06 -1.53692e-07 4.21973e+07)
(-6.64648e+07 -8.00575e+06 4.8195e-08 -4.69187e+06 -1.73825e-07 3.96323e+07)
(-5.83589e+07 -1.19807e+07 7.23753e-08 584882 -6.12201e-08 4.6726e+07)
(-5.49089e+07 -9.26842e+06 2.71576e-08 -2.86538e+06 5.50808e-09 4.35409e+07)
(-4.61924e+07 -1.2563e+07 4.3977e-08 3.1825e+06 -3.97312e-08 5.09517e+07)
(-4.37967e+07 -1.0443e+07 1.65827e-08 -819522 7.18074e-08 4.72053e+07)
(-3.45739e+07 -1.30688e+07 6.40428e-08 5.88193e+06 -3.43269e-08 5.48419e+07)
(-3.31029e+07 -1.15329e+07 5.63685e-08 1.42478e+06 5.88829e-08 5.06054e+07)
(-2.34797e+07 -1.34953e+07 5.84045e-08 8.66232e+06 1.2263e-08 5.83714e+07)
(-2.28115e+07 -1.25391e+07 2.97759e-08 3.84045e+06 1.02245e-08 5.37399e+07)
(-1.28953e+07 -1.38392e+07 4.4295e-08 1.14973e+07 -5.69775e-09 6.15312e+07)
(-1.29168e+07 -1.34603e+07 4.15527e-08 6.39909e+06 -6.79537e-08 5.6545e+07)
(-2.8048e+06 -1.40886e+07 4.64191e-08 1.43672e+07 -9.66273e-08 6.42964e+07)
(-3.42019e+06 -1.4288e+07 3.10625e-08 9.06709e+06 -6.84094e-08 5.89795e+07)
(6.79842e+06 -1.42306e+07 2.10951e-08 1.72503e+07 -8.82766e-08 6.6621e+07)
(5.67312e+06 -1.50128e+07 -1.95156e-09 1.18058e+07 -3.74152e-08 6.10506e+07)
(1.5913e+07 -1.42537e+07 1.59739e-08 2.01164e+07 2.29191e-08 6.85044e+07)
(1.43406e+07 -1.56219e+07 -6.98158e-09 1.45724e+07 2.97866e-08 6.26648e+07)
(2.45415e+07 -1.4137e+07 -5.89461e-09 2.29467e+07 1.9403e-08 6.99131e+07)
(2.25571e+07 -1.60942e+07 -2.18722e-08 1.7317e+07 8.32688e-08 6.37907e+07)
(3.2675e+07 -1.38604e+07 -9.57705e-10 2.57185e+07 4.92993e-08 7.07992e+07)
(3.02972e+07 -1.64101e+07 -1.55599e-08 1.99864e+07 3.23386e-08 6.44399e+07)
(4.03044e+07 -1.34138e+07 4.88462e-09 2.83979e+07 -1.61558e-08 7.12162e+07)
(3.75109e+07 -1.65403e+07 2.14382e-08 2.25178e+07 -1.60563e-08 6.45116e+07)
(4.74161e+07 -1.27718e+07 3.4226e-08 3.09704e+07 -4.41487e-08 7.1089e+07)
(4.41771e+07 -1.64574e+07 3.35808e-08 2.48565e+07 -1.53144e-08 6.40729e+07)
(5.39872e+07 -1.19285e+07 3.62302e-08 3.33958e+07 1.52512e-09 7.04582e+07)
(5.02499e+07 -1.61396e+07 1.32137e-08 2.69413e+07 -6.663e-08 6.30778e+07)
(6.00167e+07 -1.08728e+07 -9.1436e-09 3.56616e+07 4.33595e-09 6.93557e+07)
(5.5722e+07 -1.55601e+07 -3.47049e-08 2.87356e+07 -1.82873e-08 6.15868e+07)
(6.54766e+07 -9.61091e+06 -7.07427e-08 3.77334e+07 6.42393e-08 6.77802e+07)
(6.05801e+07 -1.47172e+07 -5.73508e-08 3.01978e+07 3.07772e-08 5.96644e+07)
(7.03703e+07 -8.15315e+06 -6.45299e-08 3.95802e+07 3.1162e-08 6.58512e+07)
(6.48453e+07 -1.35999e+07 -2.32167e-08 3.13308e+07 6.12326e-09 5.73582e+07)
(7.46883e+07 -6.51659e+06 -4.38159e-08 4.11892e+07 2.04937e-08 6.35537e+07)
(6.85459e+07 -1.22342e+07 -4.1621e-08 3.21217e+07 1.11279e-08 5.48152e+07)
(7.84472e+07 -4.74473e+06 -2.4306e-08 4.2515e+07 -7.57589e-09 6.10578e+07)
(7.17351e+07 -1.06278e+07 -1.61841e-08 3.26195e+07 -1.77443e-08 5.20704e+07)
(8.16612e+07 -2.85612e+06 -1.15315e-08 4.35647e+07 -8.13281e-09 5.83439e+07)
(7.44691e+07 -8.83357e+06 -1.29201e-08 3.28321e+07 -2.99395e-09 4.92967e+07)
(8.43621e+07 -915688 -9.30354e-09 4.42862e+07 4.57179e-08 5.55831e+07)
(7.68227e+07 -6.86546e+06 -1.08498e-08 3.28401e+07 4.8283e-08 4.65142e+07)
(8.65891e+07 1.06172e+06 -3.60327e-09 4.47033e+07 2.33973e-08 5.27668e+07)
(7.88572e+07 -4.78991e+06 2.85156e-09 3.26537e+07 3.37337e-08 4.38764e+07)
(8.83747e+07 3.02188e+06 4.01122e-09 4.47668e+07 2.45305e-08 5.00096e+07)
(8.06495e+07 -2.61395e+06 5.51701e-09 3.236e+07 1.38422e-08 4.1387e+07)
(8.97454e+07 4.96351e+06 4.80038e-09 4.44709e+07 1.02153e-08 4.73181e+07)
(8.22518e+07 -390576 9.82244e-09 3.19741e+07 1.19198e-08 3.91352e+07)
(9.06626e+07 6.91057e+06 7.21083e-09 4.37198e+07 6.73973e-09 4.47044e+07)
(8.36865e+07 1.86417e+06 7.60563e-09 3.15346e+07 2.91428e-08 3.70636e+07)
(9.08856e+07 8.79276e+06 3.3991e-09 4.21827e+07 -5.83801e-09 4.19993e+07)
(8.4927e+07 4.0407e+06 9.46147e-09 3.10127e+07 -1.14736e-08 3.50794e+07)
(9.01327e+07 9.94775e+06 9.48677e-09 3.9347e+07 -1.16904e-08 3.88658e+07)
(8.27233e+07 6.20191e+06 1.31355e-08 3.15312e+07 5.83801e-09 3.42764e+07)
(-2.66037e+08 1.21179e+07 3.9939e-07 -8.27697e+06 -1.88544e-07 -4.34632e+07)
(-2.5213e+08 2.33582e+07 4.42707e-07 2.75943e+06 -1.31277e-07 -3.14878e+07)
(-2.64022e+08 1.11957e+07 3.07227e-07 -1.1182e+07 -2.27798e-07 -3.40312e+07)
(-2.49896e+08 2.30659e+07 3.59684e-07 -70066.3 -2.40607e-07 -2.18179e+07)
(-2.55695e+08 9.04346e+06 3.46164e-07 -1.06641e+07 -3.7011e-07 -2.33189e+07)
(-2.31589e+08 1.93201e+07 4.05039e-07 -4.75757e+06 -3.24444e-07 -1.6057e+07)
(-2.34998e+08 5.41567e+06 3.46249e-07 -1.21143e+07 -3.00625e-07 -1.66566e+07)
(-2.12025e+08 1.50848e+07 4.05504e-07 -6.07589e+06 -2.74848e-07 -9.55494e+06)
(-2.15175e+08 2.16298e+06 3.5763e-07 -1.30015e+07 -2.53663e-07 -1.01013e+07)
(-1.93515e+08 1.12163e+07 2.46026e-07 -6.99435e+06 -2.12241e-07 -3.34268e+06)
(-1.96225e+08 -716854 6.89993e-08 -1.3345e+07 -3.78891e-08 -3.67446e+06)
(-1.76014e+08 7.70844e+06 1.81913e-07 -7.57593e+06 -2.58819e-07 2.57698e+06)
(-1.78126e+08 -3.26532e+06 1.76097e-07 -1.31904e+07 -3.52013e-07 2.60037e+06)
(-1.59455e+08 4.52688e+06 -1.25433e-08 -7.84337e+06 -3.59089e-07 8.22004e+06)
(-1.60846e+08 -5.52622e+06 -1.52251e-07 -1.25904e+07 -1.59925e-07 8.70119e+06)
(-1.43762e+08 1.63277e+06 -2.2634e-07 -7.80553e+06 -1.45959e-07 1.36053e+07)
(-1.44347e+08 -7.53995e+06 4.31968e-08 -1.15968e+07 -2.54218e-07 1.46125e+07)
(-1.28861e+08 -1.01123e+06 9.98565e-09 -7.47108e+06 -3.84923e-07 1.8747e+07)
(-1.28589e+08 -9.34005e+06 1.82098e-07 -1.02577e+07 -4.46587e-07 2.03178e+07)
(-1.14677e+08 -3.43824e+06 -1.42381e-07 -6.84553e+06 -6.11407e-07 2.36599e+07)
(-1.13534e+08 -1.09555e+07 -7.00986e-08 -8.61918e+06 -5.46147e-07 2.57981e+07)
(-1.01144e+08 -5.67523e+06 -4.07613e-07 -5.93644e+06 -4.34455e-07 2.83533e+07)
(-9.9145e+07 -1.24082e+07 -1.42938e-07 -6.72325e+06 -2.69974e-07 3.10346e+07)
(-8.82024e+07 -7.74259e+06 -3.3739e-07 -4.75374e+06 -9.74444e-08 3.28409e+07)
(-8.53947e+07 -1.37157e+07 -7.72212e-08 -4.61102e+06 -9.05078e-08 3.60087e+07)
(-7.58046e+07 -9.65674e+06 -1.88084e-07 -3.31135e+06 -1.13393e-08 3.71126e+07)
(-7.22545e+07 -1.48907e+07 -5.61678e-08 -2.31813e+06 -4.81883e-08 4.07066e+07)
(-6.3907e+07 -1.14298e+07 -1.41728e-07 -1.62427e+06 8.59199e-08 4.11575e+07)
(-5.97022e+07 -1.59412e+07 -8.38328e-08 119628 2.95795e-08 4.5096e+07)
(-5.24777e+07 -1.3071e+07 -7.66745e-08 286094 1.01257e-07 4.49554e+07)
(-4.77149e+07 -1.68691e+07 5.51149e-09 2.67129e+06 4.81629e-08 4.91505e+07)
(-4.14898e+07 -1.45867e+07 1.29515e-08 2.39685e+06 -8.70305e-08 4.85045e+07)
(-3.62746e+07 -1.76756e+07 2.12059e-08 5.30594e+06 2.80041e-09 5.28565e+07)
(-3.0927e+07 -1.59795e+07 7.13382e-09 4.68134e+06 2.75258e-08 5.17589e+07)
(-2.53621e+07 -1.8357e+07 1.03452e-08 7.99876e+06 3.76388e-10 5.61934e+07)
(-2.07836e+07 -1.72457e+07 3.2476e-08 7.10589e+06 2.10222e-08 5.46721e+07)
(-1.49689e+07 -1.89018e+07 4.63262e-08 1.07201e+07 -4.02564e-08 5.91111e+07)
(-1.1062e+07 -1.83774e+07 1.55564e-08 9.62959e+06 9.05784e-08 5.72263e+07)
(-5.08642e+06 -1.92978e+07 -1.45483e-08 1.34427e+07 6.86629e-08 6.15962e+07)
(-1.7721e+06 -1.93656e+07 -3.21223e-08 1.22103e+07 4.45197e-08 5.93736e+07)
(4.29612e+06 -1.95319e+07 -5.55702e-09 1.61456e+07 -6.27396e-08 6.36437e+07)
(7.05926e+06 -2.01907e+07 -5.45553e-08 1.47928e+07 3.81516e-08 6.10366e+07)
(1.31733e+07 -1.95793e+07 -6.76635e-08 1.88004e+07 -1.34641e-08 6.51868e+07)
(1.54066e+07 -2.08301e+07 -9.13728e-08 1.73173e+07 2.67371e-08 6.2218e+07)
(2.15476e+07 -1.94235e+07 -5.51301e-08 2.13843e+07 2.93843e-08 6.62453e+07)
(2.32304e+07 -2.12585e+07 -3.42324e-08 1.97198e+07 -1.34192e-08 6.28539e+07)
(2.9416e+07 -1.90429e+07 -1.44213e-08 2.38763e+07 6.76523e-08 6.68067e+07)
(3.04878e+07 -2.14408e+07 -1.52036e-08 2.19297e+07 1.32858e-08 6.2907e+07)
(3.67632e+07 -1.84119e+07 4.18726e-09 2.62512e+07 7.2802e-08 6.68353e+07)
(3.71504e+07 -2.13505e+07 3.26479e-08 2.38823e+07 -2.97461e-08 6.24339e+07)
(4.35942e+07 -1.75279e+07 4.73361e-08 2.84915e+07 1.83873e-09 6.64268e+07)
(4.31763e+07 -2.09532e+07 3.97675e-08 2.55194e+07 -6.66804e-08 6.13701e+07)
(4.98853e+07 -1.6369e+07 6.77002e-09 3.05768e+07 -2.99133e-09 6.55214e+07)
(4.85719e+07 -2.02383e+07 9.26421e-09 2.68046e+07 -3.10939e-08 5.98673e+07)
(5.56424e+07 -1.49528e+07 -1.1065e-08 3.2486e+07 1.98036e-08 6.42572e+07)
(5.33267e+07 -1.91925e+07 -6.2106e-09 2.77209e+07 3.75728e-08 5.7899e+07)
(6.08532e+07 -1.32767e+07 -2.14822e-08 3.42082e+07 2.65004e-08 6.26194e+07)
(5.74888e+07 -1.78335e+07 -1.86241e-08 2.82795e+07 -8.43275e-10 5.56508e+07)
(6.55234e+07 -1.13814e+07 -3.26579e-08 3.57163e+07 1.45418e-08 6.07403e+07)
(6.10889e+07 -1.61775e+07 -1.92669e-08 2.85125e+07 1.23423e-08 5.31431e+07)
(6.96665e+07 -9.28662e+06 -1.81254e-08 3.70163e+07 1.5994e-08 5.8644e+07)
(6.42045e+07 -1.42739e+07 -7.40837e-09 2.84684e+07 4.3087e-08 5.05594e+07)
(7.32929e+07 -7.05172e+06 -2.1483e-08 3.80733e+07 7.34362e-09 5.64465e+07)
(6.68935e+07 -1.21524e+07 -1.31562e-08 2.82158e+07 4.36417e-08 4.79166e+07)
(7.64369e+07 -4.70199e+06 -1.49549e-08 3.89084e+07 3.30964e-08 5.41665e+07)
(6.92324e+07 -9.88447e+06 -4.30732e-09 2.78021e+07 1.19757e-08 4.53686e+07)
(7.91145e+07 -2.30315e+06 -6.79698e-09 3.9479e+07 2.61095e-08 5.18987e+07)
(7.12925e+07 -7.48942e+06 -9.06173e-09 2.73165e+07 5.08373e-08 4.29065e+07)
(8.13639e+07 135687 -3.62175e-09 3.98126e+07 4.4581e-09 4.96329e+07)
(7.31274e+07 -5.03945e+06 -3.04892e-09 2.67797e+07 9.92317e-09 4.06325e+07)
(8.3198e+07 2.55989e+06 2.4415e-09 3.98603e+07 1.99763e-08 4.74311e+07)
(7.47831e+07 -2.5453e+06 3.10611e-09 2.62588e+07 5.51556e-09 3.84931e+07)
(8.46347e+07 4.98149e+06 8.49465e-09 3.96391e+07 6.81335e-09 4.52463e+07)
(7.62901e+07 -61248.2 9.02522e-09 2.57519e+07 2.30225e-08 3.65395e+07)
(8.57511e+07 7.33018e+06 7.76101e-09 3.91889e+07 3.58951e-08 4.31283e+07)
(7.76622e+07 2.39961e+06 7.28625e-09 2.52898e+07 3.25194e-08 3.46894e+07)
(8.67159e+07 9.4531e+06 1.13941e-08 3.86694e+07 1.32706e-09 4.10791e+07)
(7.90385e+07 4.85378e+06 1.6174e-08 2.49447e+07 -2.05623e-08 3.31875e+07)
(8.63158e+07 1.16364e+07 2.04155e-08 3.65476e+07 -1.1676e-08 3.86568e+07)
(8.02207e+07 7.14189e+06 2.03991e-08 2.46029e+07 -5.79271e-09 3.15109e+07)
(-2.65142e+08 1.69984e+07 3.75551e-07 -9.18319e+06 -2.47534e-07 -4.20528e+07)
(-2.50222e+08 2.81409e+07 6.18676e-07 1.95274e+06 -5.11832e-07 -2.93751e+07)
(-2.63189e+08 1.56919e+07 6.95258e-07 -1.21381e+07 -4.75036e-07 -3.25898e+07)
(-2.45389e+08 2.72471e+07 7.8117e-07 -1.38543e+06 -3.7705e-07 -2.03235e+07)
(-2.51637e+08 1.22087e+07 4.83262e-07 -1.14846e+07 -1.36683e-07 -2.26514e+07)
(-2.25836e+08 2.21017e+07 5.11213e-07 -4.62917e+06 7.13401e-10 -1.43283e+07)
(-2.31385e+08 7.81766e+06 4.72954e-07 -1.26753e+07 -9.56241e-08 -1.61105e+07)
(-2.06686e+08 1.71059e+07 4.14707e-07 -5.39093e+06 1.46094e-08 -7.79238e+06)
(-2.12178e+08 3.84379e+06 2.24953e-07 -1.33495e+07 1.50392e-08 -9.75134e+06)
(-1.8858e+08 1.25672e+07 3.84044e-07 -5.83636e+06 -1.62378e-08 -1.56381e+06)
(-1.93851e+08 265796 4.62447e-07 -1.35394e+07 -3.23333e-07 -3.54586e+06)
(-1.7144e+08 8.43102e+06 4.68268e-07 -6.00671e+06 -1.18826e-07 4.36634e+06)
(-1.76331e+08 -2.95535e+06 -2.94358e-08 -1.32825e+07 -3.84337e-08 2.50372e+06)
(-1.55194e+08 4.6499e+06 -1.32094e-07 -5.91326e+06 3.13346e-08 1.00131e+07)
(-1.59576e+08 -5.85962e+06 -1.93483e-07 -1.26211e+07 -2.94247e-07 8.38238e+06)
(-1.39773e+08 1.18026e+06 1.8322e-07 -5.5593e+06 -4.97727e-07 1.53921e+07)
(-1.43546e+08 -8.48378e+06 1.15876e-07 -1.15947e+07 -7.04533e-07 1.40765e+07)
(-1.25106e+08 -2.01595e+06 8.47377e-08 -4.94472e+06 -5.38389e-07 2.05215e+07)
(-1.28206e+08 -1.08598e+07 -3.30852e-07 -1.0245e+07 -6.66072e-07 1.95691e+07)
(-1.11126e+08 -4.96887e+06 -4.77929e-07 -4.06952e+06 -3.77707e-07 2.54149e+07)
(-1.13526e+08 -1.30142e+07 -6.30932e-07 -8.61307e+06 -2.52538e-07 2.48448e+07)
(-9.77755e+07 -7.70179e+06 -4.69035e-07 -2.93883e+06 4.90734e-08 3.00762e+07)
(-9.94814e+07 -1.49661e+07 -4.47833e-07 -6.74062e+06 -7.63129e-08 2.9879e+07)
(-8.50011e+07 -1.02323e+07 -2.78325e-07 -1.5594e+06 1.41368e-07 3.45053e+07)
(-8.60493e+07 -1.67305e+07 -2.92489e-07 -4.66669e+06 1.8246e-07 3.46428e+07)
(-7.27599e+07 -1.2574e+07 -1.73388e-07 53663.3 4.02627e-08 3.86902e+07)
(-7.32115e+07 -1.83161e+07 -1.64933e-07 -2.4324e+06 1.18257e-07 3.91057e+07)
(-6.10159e+07 -1.47385e+07 -1.11919e-07 1.88193e+06 3.74384e-08 4.26258e+07)
(-6.09474e+07 -1.97284e+07 -8.50601e-08 -72853 4.4352e-08 4.32474e+07)
(-4.9741e+07 -1.67331e+07 -2.90558e-08 3.90364e+06 3.10783e-09 4.6285e+07)
(-4.92385e+07 -2.09704e+07 -2.12326e-08 2.37948e+06 -2.17672e-09 4.70486e+07)
(-3.89202e+07 -1.85594e+07 -2.12829e-08 6.08763e+06 6.8162e-09 4.96272e+07)
(-3.80729e+07 -2.20374e+07 -1.75845e-08 4.89029e+06 7.00433e-08 5.04648e+07)
(-2.85486e+07 -2.02139e+07 -3.91313e-08 8.39619e+06 5.41603e-08 5.26092e+07)
(-2.74417e+07 -2.29183e+07 2.40905e-09 7.4255e+06 1.8163e-08 5.34584e+07)
(-1.8628e+07 -2.16895e+07 -3.02957e-09 1.07855e+07 -7.15019e-10 5.52162e+07)
(-1.73303e+07 -2.36059e+07 -2.32477e-09 9.96057e+06 5.49031e-08 5.60346e+07)
(-9.17792e+06 -2.29723e+07 1.05861e-08 1.32006e+07 -4.83244e-08 5.73695e+07)
(-7.73508e+06 -2.40809e+07 1.17995e-08 1.24655e+07 4.31024e-08 5.81445e+07)
(-226741 -2.40416e+07 2.89771e-08 1.55785e+07 -6.00111e-08 5.90083e+07)
(1.34401e+06 -2.43185e+07 -6.48684e-08 1.49109e+07 6.6314e-08 5.97485e+07)
(8.19673e+06 -2.48732e+07 -7.61984e-08 1.78506e+07 -6.04996e-09 6.01389e+07)
(9.91841e+06 -2.43068e+07 -8.14068e-08 1.72799e+07 -7.71028e-09 6.089e+07)
(1.60423e+07 -2.54318e+07 -6.15605e-08 1.99356e+07 -2.21183e-08 6.0675e+07)
(1.79793e+07 -2.40161e+07 -6.4949e-08 1.95455e+07 2.55294e-08 6.15166e+07)
(2.32705e+07 -2.56831e+07 -3.77959e-08 2.17571e+07 2.34315e-08 6.06196e+07)
(2.55236e+07 -2.34279e+07 3.14559e-09 2.16869e+07 -3.2458e-09 6.16523e+07)
(2.98488e+07 -2.55953e+07 1.12455e-08 2.32451e+07 4.00263e-08 6.00024e+07)
(3.2556e+07 -2.25338e+07 3.26956e-08 2.36922e+07 2.3601e-08 6.13578e+07)
(3.57509e+07 -2.51393e+07 7.17592e-08 2.43476e+07 -3.2444e-08 5.8822e+07)
(3.90566e+07 -2.13196e+07 6.10323e-08 2.5537e+07 -4.63429e-08 6.06197e+07)
(4.09905e+07 -2.43115e+07 5.07709e-08 2.50429e+07 4.70026e-08 5.72162e+07)
(4.50444e+07 -1.98054e+07 1.9821e-08 2.72198e+07 1.03651e-08 5.95818e+07)
(4.55821e+07 -2.31084e+07 5.30116e-09 2.53371e+07 -1.9732e-09 5.52101e+07)
(5.04953e+07 -1.79984e+07 -4.87902e-09 2.87187e+07 -1.53381e-08 5.82243e+07)
(4.9586e+07 -2.15674e+07 -3.57728e-08 2.52693e+07 5.12777e-08 5.29826e+07)
(5.54422e+07 -1.59419e+07 -3.19089e-08 3.00393e+07 2.84726e-08 5.67104e+07)
(5.30598e+07 -1.97153e+07 -5.83156e-08 2.49016e+07 4.85843e-08 5.05917e+07)
(5.98747e+07 -1.36719e+07 -3.3228e-08 3.11691e+07 7.21842e-08 5.50365e+07)
(5.60798e+07 -1.76181e+07 -5.38466e-08 2.4308e+07 7.99986e-08 4.81655e+07)
(6.38318e+07 -1.12324e+07 -3.45116e-08 3.21185e+07 4.35354e-08 5.33158e+07)
(5.87299e+07 -1.53206e+07 -5.08776e-08 2.35754e+07 8.43663e-08 4.57862e+07)
(6.73198e+07 -8.68239e+06 -1.81039e-08 3.2876e+07 4.35969e-08 5.15662e+07)
(6.10727e+07 -1.2883e+07 -2.27821e-08 2.27749e+07 6.07192e-08 4.34919e+07)
(7.03807e+07 -6.04689e+06 -2.09717e-08 3.34643e+07 5.35633e-08 4.98269e+07)
(6.31728e+07 -1.03685e+07 -2.11798e-08 2.19612e+07 3.18157e-08 4.1352e+07)