/*--------------------------------*- C++ -*----------------------------------*\
| =========                 |                                                 |
| \\      /  F ield         | OpenFOAM: The Open Source CFD Toolbox           |
|  \\    /   O peration     | Version:  v2012                                 |
|   \\  /    A nd           | Website:  www.openfoam.com                      |
|    \\/     M anipulation  |                                                 |
\*---------------------------------------------------------------------------*/
FoamFile
{
    version     2.0;
    format      ascii;
    class       pointScalarField;
    location    "17";
    object      pEpsilonEq;
}
// * * * * * * * * * * * * * * * * * * * * * * * * * * * * * * * * * * * * * //

dimensions      [0 0 0 0 0 0 0];


internalField   nonuniform List<scalar> 
530
(
0.000661521
0.000283442
0.000441149
0.000475066
0.00515455
0.000661521
0.000283442
0.000441149
0.000475066
0.00515455
0.000367056
0.000193691
0.000114734
0.000109437
0.000130343
0.000147706
0.000175041
0.000202036
0.000234826
0.000262848
0.000287373
0.000303221
0.000308174
0.000299939
0.000298336
0.000302216
0.000322734
0.000338937
0.000369029
0.00039633
0.000413484
0.000433082
0.000438051
0.00044328
0.000450135
0.000472824
0.000500877
0.000543737
0.000582074
0.000645568
0.000695811
0.000771097
0.000825913
0.000916362
0.00101689
0.000985274
0.00104395
0.00104308
0.000965955
0.000845011
0.000607789
0.00042656
0.000737571
0.00110302
0.0020864
0.00377837
0.0050647
0.00193455
0.000521349
0.000255732
0.000352224
0.000546586
0.00064832
0.000367056
0.000193691
0.000114734
0.000109437
0.000130343
0.000147706
0.000175041
0.000202036
0.000234826
0.000262848
0.000287373
0.000303221
0.000308174
0.000299939
0.000298336
0.000302216
0.000322734
0.000338937
0.000369029
0.00039633
0.000413484
0.000433082
0.000438051
0.00044328
0.000450135
0.000472824
0.000500877
0.000543737
0.000582074
0.000645568
0.000695811
0.000771097
0.000825913
0.000916362
0.00101689
0.000985274
0.00104395
0.00104308
0.000965955
0.000845011
0.000607789
0.00042656
0.000737571
0.00110302
0.0020864
0.00377837
0.0050647
0.00193455
0.000521349
0.000255732
0.000352224
0.000546586
0.00064832
0.00056777
0.000433699
0.000801423
0.000577715
0.000368213
0.000448732
0.000349277
0.00115821
0.000384702
0.000744698
0.000319382
0.000541371
0.000286882
0.000533597
0.000391516
0.000703855
0.000471822
0.000503569
0.000977371
0.000716467
0.000304993
0.000507658
0.000317036
0.000447023
0.000656101
0.000890824
0.000630017
0.000252787
0.000424281
0.000368935
0.000977315
0.000615085
0.000347077
0.000415981
0.00048415
0.00184934
0.000436648
0.00021743
0.000226901
0.000292941
0.000512102
0.000401629
0.000521484
0.000360156
0.000828807
0.00103064
0.00068993
0.000312717
0.000469475
0.000485966
0.00026882
0.000548035
0.000389423
0.000755425
0.000635812
0.000975987
0.000892364
0.00104175
0.000380357
0.000490888
0.000389382
0.000172837
0.000349648
0.000695187
0.000361733
0.000983018
0.000698849
0.00133265
0.000594968
0.000233224
0.000516812
0.000637184
0.000449494
0.00041984
0.000421182
0.000425849
0.00032218
0.000901309
0.000780016
0.000464214
0.000409476
0.000305966
0.000440144
0.000473197
0.000390472
0.000212343
0.000432509
0.00063063
0.000577236
0.000196606
0.00027288
0.000329888
0.00031159
0.000343372
0.000549077
0.000568223
0.000450676
0.000437999
0.000335506
0.00100348
0.000896238
0.000448047
0.000479308
0.000276516
0.000571596
0.000523894
0.00096688
0.000518239
0.00047797
0.000313274
0.000457168
0.000411568
0.000451327
0.00102461
0.00109384
0.000707973
0.00062609
0.000676762
0.000795232
0.000414594
0.00036764
0.000563851
0.000377075
0.00261698
0.00119572
0.000822677
0.000581167
0.000325362
0.000460509
0.00401716
0.000160816
0.000344546
0.000150658
0.000437995
0.00035056
0.000761038
0.000604521
0.000202945
0.000290814
0.00121926
0.000529976
0.000335275
0.000407176
0.000491082
0.000431738
0.000295293
0.00263759
0.000408502
0.000841721
0.000380654
0.000399152
0.00111904
0.000276276
0.000242831
0.000679107
0.000379386
0.000708273
0.000323295
0.00088962
0.000499492
0.00092783
0.000223477
0.000539409
0.000257873
0.000824905
0.000818967
0.000426511
0.000435415
0.000307014
0.000739181
0.000405906
0.000326231
0.000678541
0.000646468
0.00062563
0.000515993
0.000750384
0.000357847
0.00048238
0.00035685
0.000395395
0.000484715
0.000635686
0.000725919
0.000947258
0.000341806
0.000470047
0.000312786
0.000675963
0.00100241
0.000300128
0.000252601
0.000147276
0.000849676
0.000700059
0.000559854
0.000501567
0.000400863
0.0005598
0.000586492
0.000307623
0.000445294
0.000726373
0.000356509
0.000295287
0.000440775
0.000652493
0.00056777
0.000433699
0.000801423
0.000577715
0.000368213
0.000448732
0.000349277
0.00115821
0.000384702
0.000744698
0.000319382
0.000541371
0.000286882
0.000533597
0.000391516
0.000703855
0.000471822
0.000503569
0.000977371
0.000716467
0.000304993
0.000507658
0.000317036
0.000447023
0.000656101
0.000890824
0.000630017
0.000252787
0.000424281
0.000368935
0.000977315
0.000615085
0.000347077
0.000415981
0.00048415
0.00184934
0.000436648
0.00021743
0.000226901
0.000292941
0.000512102
0.000401629
0.000521484
0.000360156
0.000828807
0.00103064
0.00068993
0.000312717
0.000469475
0.000485966
0.00026882
0.000548035
0.000389423
0.000755425
0.000635812
0.000975987
0.000892364
0.00104175
0.000380357
0.000490888
0.000389382
0.000172837
0.000349648
0.000695187
0.000361733
0.000983018
0.000698849
0.00133265
0.000594968
0.000233224
0.000516812
0.000637184
0.000449494
0.00041984
0.000421182
0.000425849
0.00032218
0.000901309
0.000780016
0.000464214
0.000409476
0.000305966
0.000440144
0.000473197
0.000390472
0.000212343
0.000432509
0.00063063
0.000577236
0.000196606
0.00027288
0.000329888
0.00031159
0.000343372
0.000549077
0.000568223
0.000450676
0.000437999
0.000335506
0.00100348
0.000896238
0.000448047
0.000479308
0.000276516
0.000571596
0.000523894
0.00096688
0.000518239
0.00047797
0.000313274
0.000457168
0.000411568
0.000451327
0.00102461
0.00109384
0.000707973
0.00062609
0.000676762
0.000795232
0.000414594
0.00036764
0.000563851
0.000377075
0.00261698
0.00119572
0.000822677
0.000581167
0.000325362
0.000460509
0.00401716
0.000160816
0.000344546
0.000150658
0.000437995
0.00035056
0.000761038
0.000604521
0.000202945
0.000290814
0.00121926
0.000529976
0.000335275
0.000407176
0.000491082
0.000431738
0.000295293
0.00263759
0.000408502
0.000841721
0.000380654
0.000399152
0.00111904
0.000276276
0.000242831
0.000679107
0.000379386
0.000708273
0.000323295
0.00088962
0.000499492
0.00092783
0.000223477
0.000539409
0.000257873
0.000824905
0.000818967
0.000426511
0.000435415
0.000307014
0.000739181
0.000405906
0.000326231
0.000678541
0.000646468
0.00062563
0.000515993
0.000750384
0.000357847
0.00048238
0.00035685
0.000395395
0.000484715
0.000635686
0.000725919
0.000947258
0.000341806
0.000470047
0.000312786
0.000675963
0.00100241
0.000300128
0.000252601
0.000147276
0.000849676
0.000700059
0.000559854
0.000501567
0.000400863
0.0005598
0.000586492
0.000307623
0.000445294
0.000726373
0.000356509
0.000295287
0.000440775
0.000652493
)
;

boundaryField
{
    back
    {
        type            empty;
    }
    front
    {
        type            empty;
    }
    down
    {
        type            calculated;
    }
    right
    {
        type            calculated;
    }
    up
    {
        type            calculated;
    }
    left
    {
        type            calculated;
    }
    hole
    {
        type            calculated;
    }
}


// ************************************************************************* //
