/*--------------------------------*- C++ -*----------------------------------*\
| =========                 |                                                 |
| \\      /  F ield         | OpenFOAM: The Open Source CFD Toolbox           |
|  \\    /   O peration     | Version:  v2012                                 |
|   \\  /    A nd           | Website:  www.openfoam.com                      |
|    \\/     M anipulation  |                                                 |
\*---------------------------------------------------------------------------*/
FoamFile
{
    version     2.0;
    format      ascii;
    class       pointVectorField;
    location    "12";
    object      pointD;
}
// * * * * * * * * * * * * * * * * * * * * * * * * * * * * * * * * * * * * * //

dimensions      [0 1 0 0 0 0 0];


internalField   nonuniform List<vector> 
32562
(
(0.00336206 0 1.94908e-21)
(0.0044911 0 2.02282e-21)
(0.00413161 -0.000337663 -2.77098e-21)
(0 -0.00258717 4.43373e-22)
(0 -0.00116064 3.7346e-20)
(0.00346099 0 0)
(0 -0.00243719 0)
(0.00221177 -0.000684715 0)
(0.00101181 -0.00127185 3.62e-21)
(0.00433186 -8.27714e-05 -1.34374e-20)
(0.00263373 -0.00107109 4.84974e-22)
(0.00263373 -0.00107109 4.84974e-22)
(0.00221177 -0.000684715 0)
(0 -0.00243719 0)
(0 -0.00116064 3.7346e-20)
(0.00336206 0 1.94908e-21)
(0.00346099 0 0)
(0.0044911 0 2.02282e-21)
(0.00433186 -8.27714e-05 -1.34374e-20)
(0.00413161 -0.000337663 -2.77098e-21)
(0.00101181 -0.00127185 3.62e-21)
(0 -0.00258717 4.43373e-22)
(4.77465e-05 -0.00243394 0)
(9.56883e-05 -0.00242438 0)
(0.000143979 -0.00240897 0)
(0.000192835 -0.00238823 0)
(0.0002427 -0.00236245 0)
(0.000294 -0.00233173 0)
(0.000347027 -0.00229617 0)
(0.000401972 -0.00225593 0)
(0.00045889 -0.00221131 0)
(0.000517702 -0.00216268 0)
(0.00057824 -0.00211057 0)
(0.000640238 -0.00205557 0)
(0.000703377 -0.00199833 0)
(0.000767282 -0.00193953 0)
(0.000831488 -0.00187992 0)
(0.000895413 -0.00182029 0)
(0.000958249 -0.00176171 0)
(0.0010191 -0.00170523 0)
(0.00107736 -0.00165141 0)
(0.00113317 -0.0016 0)
(0.00118731 -0.00155017 0)
(0.00124076 -0.00150086 0)
(0.00129435 -0.00145141 0)
(0.00134815 -0.00140177 0)
(0.00140198 -0.00135231 0)
(0.00145588 -0.0013032 0)
(0.00150983 -0.00125451 0)
(0.00156378 -0.00120637 0)
(0.00161776 -0.00115886 0)
(0.0016717 -0.00111205 0)
(0.00172561 -0.00106599 0)
(0.00177945 -0.00102077 0)
(0.0018332 -0.000976396 0)
(0.00188681 -0.000932962 0)
(0.00194029 -0.000890451 0)
(0.00199353 -0.000848985 0)
(0.00204662 -0.000808478 0)
(0.00209936 -0.000769125 0)
(0.00215196 -0.000730743 0)
(0.00226892 -0.000645444 0)
(0.00232016 -0.000610506 0)
(0.00237085 -0.0005768 0)
(0.00242095 -0.000544291 0)
(0.00247042 -0.000512994 0)
(0.00251925 -0.000482859 0)
(0.00256737 -0.000453892 0)
(0.00261475 -0.000426066 0)
(0.00266132 -0.00039938 0)
(0.00270705 -0.000373815 0)
(0.00275187 -0.000349363 0)
(0.00279575 -0.000326007 0)
(0.00283862 -0.00030373 0)
(0.00288045 -0.000282515 0)
(0.00292118 -0.000262336 0)
(0.00296075 -0.000243172 0)
(0.00299913 -0.000225005 0)
(0.00303627 -0.000207802 0)
(0.00307211 -0.000191534 0)
(0.00310662 -0.000176172 0)
(0.00313975 -0.000161682 0)
(0.00317145 -0.000148033 0)
(0.00320169 -0.000135187 0)
(0.00323043 -0.00012311 0)
(0.00325762 -0.000111762 0)
(0.00328324 -0.000101106 0)
(0.00330725 -9.10982e-05 0)
(0.00332961 -8.16995e-05 0)
(0.0033503 -7.28661e-05 0)
(0.00336929 -6.45548e-05 0)
(0.00338655 -5.67207e-05 0)
(0.00340206 -4.93187e-05 0)
(0.00341579 -4.23024e-05 0)
(0.00342773 -3.56253e-05 0)
(0.00343786 -2.92397e-05 0)
(0.00344617 -2.30982e-05 0)
(0.00345265 -1.7152e-05 0)
(0.00345728 -1.13529e-05 0)
(0.00346006 -5.6519e-06 0)
(0.00336705 0 0)
(0.00337323 0 0)
(0.00337896 0 0)
(0.00338427 0 0)
(0.00338918 0 0)
(0.00339374 0 0)
(0.00339797 0 0)
(0.00340191 0 0)
(0.00340556 0 0)
(0.00340896 0 0)
(0.00341212 0 0)
(0.00341508 0 0)
(0.00341784 0 0)
(0.00342043 0 0)
(0.00342284 0 0)
(0.00342512 0 0)
(0.00342726 0 0)
(0.00342928 0 0)
(0.00343119 0 0)
(0.00343301 0 0)
(0.00343473 0 0)
(0.00343638 0 0)
(0.00343796 0 0)
(0.00343948 0 0)
(0.00344095 0 0)
(0.00344237 0 0)
(0.00344375 0 0)
(0.0034451 0 0)
(0.00344642 0 0)
(0.00344772 0 0)
(0.003449 0 0)
(0.00345027 0 0)
(0.00345154 0 0)
(0.0034528 0 0)
(0.00345406 0 0)
(0.00345533 0 0)
(0.0034566 0 0)
(0.00345788 0 0)
(0.00345918 0 0)
(0.00346389 0 0)
(0.00346742 0 0)
(0.00347114 0 0)
(0.00347507 0 0)
(0.00347923 0 0)
(0.00348363 0 0)
(0.00348828 0 0)
(0.00349322 0 0)
(0.00349842 0 0)
(0.00350392 0 0)
(0.0035097 0 0)
(0.00351579 0 0)
(0.00352218 0 0)
(0.00352887 0 0)
(0.00353586 0 0)
(0.00354316 0 0)
(0.00355077 0 0)
(0.00355869 0 0)
(0.00356691 0 0)
(0.00357543 0 0)
(0.00358426 0 0)
(0.00359339 0 0)
(0.00360282 0 0)
(0.00361255 0 0)
(0.00362257 0 0)
(0.00363288 0 0)
(0.00364348 0 0)
(0.00365437 0 0)
(0.00366555 0 0)
(0.003677 0 0)
(0.00368873 0 0)
(0.00370073 0 0)
(0.003713 0 0)
(0.00372553 0 0)
(0.00373833 0 0)
(0.00375139 0 0)
(0.00376469 0 0)
(0.00377825 0 0)
(0.00379205 0 0)
(0.00380609 0 0)
(0.00382037 0 0)
(0.00383488 0 0)
(0.00384961 0 0)
(0.00386457 0 0)
(0.00387974 0 0)
(0.00389513 0 0)
(0.00391072 0 0)
(0.00392651 0 0)
(0.0039425 0 0)
(0.00395868 0 0)
(0.00397504 0 0)
(0.00399159 0 0)
(0.0040083 0 0)
(0.00402518 0 0)
(0.00404222 0 0)
(0.00405942 0 0)
(0.00407676 0 0)
(0.00409424 0 0)
(0.00411186 0 0)
(0.0041296 0 0)
(0.00414745 0 0)
(0.00416542 0 0)
(0.00418348 0 0)
(0.00420164 0 0)
(0.00421988 0 0)
(0.0042382 0 0)
(0.00425657 0 0)
(0.004275 0 0)
(0.00429347 0 0)
(0.00431197 0 0)
(0.00433049 0 0)
(0.00434902 0 0)
(0.00436753 0 0)
(0.00438602 0 0)
(0.00440448 0 0)
(0.00442288 0 0)
(0.00444121 0 0)
(0.00445945 0 0)
(0.00447758 0 0)
(0.00449546 -3.99128e-07 2.07813e-21)
(0.00449509 -8.05492e-07 1.96154e-21)
(0.00449446 -1.2263e-06 3.90559e-21)
(0.00449359 -1.66876e-06 -2.18245e-21)
(0.00449246 -2.14002e-06 1.83514e-21)
(0.00449109 -2.64723e-06 2.0011e-21)
(0.00448948 -3.19738e-06 6.34345e-24)
(0.00448762 -3.79754e-06 4.35572e-21)
(0.00448553 -4.45453e-06 6.99301e-22)
(0.00448319 -5.17525e-06 -3.27383e-21)
(0.00448063 -5.96632e-06 -6.11601e-21)
(0.00447783 -6.83444e-06 -4.98861e-21)
(0.00447481 -7.78595e-06 3.60461e-21)
(0.00447158 -8.82734e-06 6.67407e-21)
(0.00446812 -9.96461e-06 -3.18022e-22)
(0.00446445 -1.1204e-05 -9.10652e-21)
(0.00446058 -1.25511e-05 -9.55448e-21)
(0.00445651 -1.40119e-05 -4.08667e-21)
(0.00445224 -1.55916e-05 -2.76647e-21)
(0.00444779 -1.72958e-05 -3.49578e-27)
(0.00444316 -1.91291e-05 1.30119e-21)
(0.00443835 -2.1097e-05 3.40427e-21)
(0.00443337 -2.32035e-05 2.10272e-21)
(0.00442824 -2.54536e-05 3.00519e-21)
(0.00442295 -2.78507e-05 8.175e-21)
(0.00441752 -3.03996e-05 5.16981e-21)
(0.00441195 -3.3103e-05 -2.14426e-21)
(0.00440625 -3.59652e-05 -1.14659e-21)
(0.00440043 -3.89882e-05 -4.3488e-21)
(0.00439449 -4.21758e-05 -4.22316e-21)
(0.00438846 -4.55296e-05 3.30151e-21)
(0.00438233 -4.90526e-05 4.36576e-21)
(0.00437611 -5.27459e-05 2.18715e-21)
(0.00436982 -5.66116e-05 -1.1965e-21)
(0.00436346 -6.06506e-05 9.86723e-21)
(0.00435704 -6.48635e-05 1.34009e-20)
(0.00435057 -6.92518e-05 9.16591e-21)
(0.00434406 -7.38138e-05 6.9897e-21)
(0.00433752 -7.85522e-05 -9.92633e-21)
(0.00432804 -8.56934e-05 -6.56452e-22)
(0.00432512 -8.79616e-05 3.17562e-21)
(0.0043222 -9.02638e-05 -4.52328e-21)
(0.00431929 -9.26e-05 -4.98212e-21)
(0.00431637 -9.49696e-05 5.87671e-21)
(0.00431345 -9.7373e-05 -9.52441e-22)
(0.00431054 -9.98096e-05 -1.72448e-20)
(0.00430763 -0.00010228 -1.04156e-20)
(0.00430472 -0.000104782 2.70424e-21)
(0.00430181 -0.000107318 -2.28778e-21)
(0.00429892 -0.000109886 -4.99202e-21)
(0.00429602 -0.000112487 5.76308e-21)
(0.00429314 -0.000115119 -1.1493e-21)
(0.00429026 -0.000117783 -1.72399e-20)
(0.00428739 -0.000120479 -1.03276e-20)
(0.00428452 -0.000123206 3.40438e-22)
(0.00428167 -0.000125964 -2.30586e-21)
(0.00427883 -0.000128752 -2.64629e-21)
(0.004276 -0.00013157 -2.32654e-21)
(0.00427318 -0.000134418 -2.32654e-21)
(0.00427037 -0.000137296 -2.33365e-21)
(0.00426757 -0.000140202 -4.9224e-21)
(0.00426479 -0.000143137 -2.35391e-21)
(0.00426203 -0.0001461 5.57538e-21)
(0.00425927 -0.000149091 -1.70123e-21)
(0.00425654 -0.000152109 -1.44562e-20)
(0.00425381 -0.000155153 -4.73536e-21)
(0.00425111 -0.000158224 -4.53492e-21)
(0.00424842 -0.00016132 -1.21815e-20)
(0.00424575 -0.000164442 -7.33041e-21)
(0.0042431 -0.000167588 2.9455e-24)
(0.00424047 -0.000170758 -6.52185e-23)
(0.00423785 -0.000173952 -5.95455e-23)
(0.00423526 -0.000177168 4.78498e-21)
(0.00423268 -0.000180407 -2.33817e-21)
(0.00423013 -0.000183667 -4.72713e-21)
(0.00422759 -0.000186948 -2.24072e-23)
(0.00422508 -0.00019025 -2.43129e-21)
(0.00422259 -0.000193571 -2.38443e-21)
(0.00422012 -0.000196911 2.27361e-21)
(0.00421767 -0.000200269 -2.37018e-21)
(0.00421525 -0.000203645 -7.03705e-21)
(0.00421285 -0.000207037 1.84149e-21)
(0.00421047 -0.000210446 -2.74805e-21)
(0.00420811 -0.000213869 -1.34833e-20)
(0.00420577 -0.000217307 -6.5077e-23)
(0.00420346 -0.000220759 3.75423e-21)
(0.00420118 -0.000224224 -9.28849e-21)
(0.00419891 -0.000227701 -1.10926e-20)
(0.00419667 -0.000231189 -4.4853e-21)
(0.00419445 -0.000234687 -3.70944e-22)
(0.00419225 -0.000238195 -2.77998e-21)
(0.00419008 -0.000241712 -6.81372e-21)
(0.00418793 -0.000245236 -6.37852e-21)
(0.0041858 -0.000248768 2.39141e-21)
(0.00418369 -0.000252306 1.95258e-21)
(0.0041816 -0.000255849 -4.32625e-21)
(0.00417953 -0.000259397 3.76982e-21)
(0.00417749 -0.000262948 -1.55978e-21)
(0.00417546 -0.000266502 -1.04019e-20)
(0.00417345 -0.000270057 -3.73332e-21)
(0.00417146 -0.000273614 1.24932e-21)
(0.00416949 -0.000277171 2.43105e-21)
(0.00416754 -0.000280728 6.0716e-22)
(0.0041656 -0.000284283 -2.41534e-21)
(0.00416367 -0.000287836 -5.73972e-26)
(0.00416176 -0.000291386 2.23533e-25)
(0.00415986 -0.000294933 -4.15976e-21)
(0.00415797 -0.000298475 -1.06574e-21)
(0.00415609 -0.000302014 3.0932e-21)
(0.00415422 -0.000305546 8.2712e-21)
(0.00415236 -0.000309074 5.16017e-21)
(0.0041505 -0.000312595 -4.82357e-21)
(0.00414864 -0.000316111 -1.71412e-21)
(0.00414679 -0.00031962 1.71303e-21)
(0.00414494 -0.000323123 -4.82654e-21)
(0.00414308 -0.00032662 -4.1269e-21)
(0.00414122 -0.000330112 -1.46367e-29)
(0.00413935 -0.000333598 -1.73251e-21)
(0.00411195 -0.000342963 -2.06513e-21)
(0.00408645 -0.000348832 -3.09215e-21)
(0.004061 -0.000354675 -3.08875e-21)
(0.00403561 -0.000360449 -3.08274e-21)
(0.00401025 -0.000366107 -3.9415e-21)
(0.0039849 -0.000371614 -6.99246e-22)
(0.00395955 -0.000376943 1.18798e-21)
(0.00393417 -0.000382075 0)
(0.00390873 -0.000386991 8.93139e-22)
(0.0038832 -0.000391682 -1.31903e-21)
(0.00385757 -0.00039614 -3.38368e-21)
(0.0038318 -0.000400364 -2.22232e-21)
(0.00380587 -0.000404349 -3.05421e-21)
(0.00377976 -0.000408104 -3.06968e-21)
(0.00375345 -0.000411633 -3.21709e-21)
(0.00372691 -0.000414942 -2.15082e-21)
(0.00370013 -0.000418041 -2.27894e-21)
(0.00367308 -0.00042094 -4.49394e-21)
(0.00364574 -0.000423653 -3.10686e-21)
(0.0036181 -0.000426192 1.51585e-21)
(0.00359014 -0.000428571 3.35375e-21)
(0.00356183 -0.000430808 -2.7878e-21)
(0.00353317 -0.000432919 -6.02594e-21)
(0.00350413 -0.000434919 -3.36996e-21)
(0.0034747 -0.000436831 -2.23092e-21)
(0.00344486 -0.000438673 -2.37791e-21)
(0.0034146 -0.000440465 -2.51939e-21)
(0.00338391 -0.000442229 -2.55499e-21)
(0.00335276 -0.000443986 -3.39541e-23)
(0.00332115 -0.00044576 -1.31641e-21)
(0.00328907 -0.000447573 -2.48727e-21)
(0.00325648 -0.000449451 -2.6795e-21)
(0.00322339 -0.000451416 -2.79684e-21)
(0.00318978 -0.000453497 -1.44238e-21)
(0.00315564 -0.00045572 -2.7123e-21)
(0.00312095 -0.000458112 -1.40873e-21)
(0.0030857 -0.000460704 -1.52475e-21)
(0.0030499 -0.000463519 -1.17359e-21)
(0.00301351 -0.000466586 1.76878e-21)
(0.00297652 -0.000469945 -2.43412e-22)
(0.00293894 -0.000473621 -1.85847e-21)
(0.00290074 -0.00047765 -3.12513e-21)
(0.00286191 -0.000482063 -3.00479e-21)
(0.00282246 -0.000486904 -5.01793e-21)
(0.00278237 -0.000492199 -6.83568e-21)
(0.00274163 -0.000497971 -4.7818e-21)
(0.00270024 -0.000504281 1.05025e-21)
(0.0026582 -0.000511162 5.28932e-21)
(0.00261549 -0.000518649 -2.31824e-22)
(0.00257211 -0.000526782 2.0485e-21)
(0.00252807 -0.0005356 4.78637e-21)
(0.00248336 -0.000545148 -6.00323e-22)
(0.00243798 -0.000555461 -3.02083e-21)
(0.00239192 -0.000566589 -1.18948e-21)
(0.00234521 -0.000578569 -7.74894e-22)
(0.00229783 -0.000591453 -3.81864e-21)
(0.0022498 -0.000605276 -2.59834e-21)
(0.00220115 -0.000620078 1.47879e-21)
(0.00215184 -0.000635935 5.23948e-22)
(0.00210192 -0.000652859 3.32384e-23)
(0.0020514 -0.000670882 3.1812e-21)
(0.00200029 -0.000690074 3.25289e-21)
(0.00194864 -0.00071047 1.26632e-21)
(0.00189645 -0.000732108 2.08438e-21)
(0.00184377 -0.000755029 7.01953e-22)
(0.00179065 -0.000779264 4.05428e-23)
(0.00173716 -0.000804845 3.75978e-21)
(0.00168329 -0.000831813 1.27691e-21)
(0.0016289 -0.000860252 -8.04739e-21)
(0.00157394 -0.000890232 -7.69943e-21)
(0.00151837 -0.000921792 -1.36388e-21)
(0.00146226 -0.000954958 -5.5652e-30)
(0.00140563 -0.000989678 4.60687e-21)
(0.00134872 -0.0010259 5.74383e-21)
(0.00129158 -0.00106359 2.39586e-21)
(0.00123437 -0.00110279 3.02533e-23)
(0.0011772 -0.00114347 4.71621e-23)
(0.00112028 -0.00118569 7.31992e-21)
(0.00106387 -0.00122952 9.05386e-21)
(0.00096825 -0.00130895 -3.59389e-21)
(0.000928757 -0.00134377 -2.55215e-21)
(0.000889435 -0.00137943 1.01474e-20)
(0.000850294 -0.00141586 4.90446e-21)
(0.00081139 -0.00145308 -1.01486e-20)
(0.000772797 -0.00149106 -2.66651e-21)
(0.000734566 -0.0015298 8.53106e-21)
(0.000696762 -0.00156928 1.13988e-21)
(0.000659445 -0.00160947 -1.19563e-20)
(0.000622683 -0.00165033 -1.34451e-20)
(0.000586549 -0.00169181 -5.36348e-21)
(0.000551113 -0.00173386 -3.83938e-22)
(0.00051646 -0.00177641 -3.72337e-22)
(0.000482666 -0.00181938 -7.33858e-22)
(0.00044982 -0.00186266 -1.36937e-23)
(0.000417995 -0.00190615 -4.18333e-21)
(0.000387276 -0.00194969 -7.99189e-21)
(0.000357722 -0.00199314 -1.41657e-20)
(0.000329402 -0.00203634 -1.31511e-20)
(0.000302352 -0.00207911 7.25673e-22)
(0.000276615 -0.00212126 -2.07947e-21)
(0.0002522 -0.00216261 -2.51757e-21)
(0.000229124 -0.00220298 1.0087e-20)
(0.00020737 -0.00224218 7.66158e-21)
(0.00018693 -0.00228003 -9.49867e-22)
(0.000167766 -0.00231637 1.45676e-21)
(0.000149851 -0.00235102 1.50816e-21)
(0.000133132 -0.00238382 1.95615e-21)
(0.000117563 -0.00241462 3.24785e-21)
(0.00010308 -0.00244329 -1.6298e-21)
(8.96196e-05 -0.00246969 -3.43535e-21)
(7.71051e-05 -0.00249368 -1.82077e-21)
(6.54592e-05 -0.00251516 -1.00218e-22)
(5.45914e-05 -0.002534 0)
(4.44089e-05 -0.00255013 2.29651e-22)
(3.48083e-05 -0.00256344 5.54075e-22)
(2.56831e-05 -0.00257388 2.19453e-21)
(1.69188e-05 -0.00258137 1.73058e-21)
(8.3982e-06 -0.00258589 3.05678e-22)
(0 -0.00258651 0)
(0 -0.00258556 0)
(0 -0.00258454 0)
(0 -0.00258346 0)
(0 -0.00258231 0)
(0 -0.00258111 0)
(0 -0.00257986 0)
(0 -0.00257855 0)
(0 -0.00257719 0)
(0 -0.00257578 0)
(0 -0.00257432 0)
(0 -0.00257283 0)
(0 -0.00257128 0)
(0 -0.0025697 0)
(0 -0.00256808 0)
(0 -0.00256643 0)
(0 -0.00256474 0)
(0 -0.00256302 0)
(0 -0.00256126 0)
(0 -0.00255948 0)
(0 -0.00255767 0)
(0 -0.00255583 0)
(0 -0.00255397 0)
(0 -0.00255208 0)
(0 -0.00255018 0)
(0 -0.00254825 0)
(0 -0.0025463 0)
(0 -0.00254434 0)
(0 -0.00254235 0)
(0 -0.00254036 0)
(0 -0.00253834 0)
(0 -0.00253632 0)
(0 -0.00253428 0)
(0 -0.00253223 0)
(0 -0.00253017 0)
(0 -0.00252811 0)
(0 -0.00252603 0)
(0 -0.00252395 0)
(0 -0.00252186 0)
(0 -0.00251976 0)
(0 -0.00251767 0)
(0 -0.00251556 0)
(0 -0.00251346 0)
(0 -0.00251135 0)
(0 -0.00250924 0)
(0 -0.00250713 0)
(0 -0.00250502 0)
(0 -0.00250291 0)
(0 -0.0025008 0)
(0 -0.00249869 0)
(0 -0.00249659 0)
(0 -0.00249449 0)
(0 -0.00249239 0)
(0 -0.0024903 0)
(0 -0.00248821 0)
(0 -0.00248613 0)
(0 -0.00248405 0)
(0 -0.00248198 0)
(0 -0.00247991 0)
(0 -0.00247785 0)
(0 -0.0024758 0)
(0 -0.00247375 0)
(0 -0.00247171 0)
(0 -0.00246968 0)
(0 -0.00246765 0)
(0 -0.00246563 0)
(0 -0.00246362 0)
(0 -0.00246161 0)
(0 -0.00245961 0)
(0 -0.00245762 0)
(0 -0.00245563 0)
(0 -0.00245364 0)
(0 -0.00245166 0)
(0 -0.00244967 0)
(0 -0.00244769 0)
(0 -0.0024457 0)
(0 -0.00244372 0)
(0 -0.00244172 0)
(0 -0.00243971 0)
(0 -0.00243363 0)
(0 -0.00242945 0)
(0 -0.00242492 0)
(0 -0.00241981 0)
(0 -0.00241399 0)
(0 -0.0024073 0)
(0 -0.00239961 0)
(0 -0.00239078 0)
(0 -0.00238066 0)
(0 -0.00236916 0)
(0 -0.00235616 0)
(0 -0.00234155 0)
(0 -0.00232526 0)
(0 -0.00230721 0)
(0 -0.00228734 0)
(0 -0.0022656 0)
(0 -0.00224193 0)
(0 -0.00221633 0)
(0 -0.00218873 0)
(0 -0.00215913 0)
(0 -0.0021275 0)
(0 -0.00209381 0)
(0 -0.00205806 0)
(0 -0.00202023 0)
(0 -0.00198029 0)
(0 -0.00193828 0)
(0 -0.00189414 0)
(0 -0.00184792 0)
(0 -0.00179958 0)
(0 -0.0017492 0)
(0 -0.00169674 0)
(0 -0.00164228 0)
(0 -0.00158585 0)
(0 -0.00152754 0)
(0 -0.0014674 0)
(0 -0.00140557 0)
(0 -0.00134213 0)
(0 -0.00127725 0)
(0 -0.00121106 0)
(0.00225148 -0.000642484 0)
(0.00228684 -0.000603921 0)
(0.00232182 -0.000567311 0)
(0.00235625 -0.000532752 0)
(0.00239022 -0.000500216 0)
(0.00242368 -0.000469559 0)
(0.00245665 -0.000440845 0)
(0.00248914 -0.000413886 0)
(0.00252114 -0.000388733 0)
(0.00255267 -0.000365213 0)
(0.00258374 -0.000343348 0)
(0.00261436 -0.000322986 0)
(0.00264454 -0.000304128 0)
(0.00267431 -0.000286648 0)
(0.00270367 -0.00027052 0)
(0.00273266 -0.000255653 0)
(0.00276129 -0.000241997 0)
(0.00278957 -0.000229475 0)
(0.00281753 -0.000218037 0)
(0.00284519 -0.000207614 0)
(0.00287257 -0.000198158 0)
(0.00289968 -0.000189605 0)
(0.00292654 -0.000181912 0)
(0.00295318 -0.000175015 0)
(0.0029796 -0.000168876 0)
(0.00300583 -0.000163441 0)
(0.00303187 -0.000158667 0)
(0.00305775 -0.000154512 0)
(0.00308348 -0.000150933 0)
(0.00310908 -0.00014789 0)
(0.00313454 -0.000145347 0)
(0.0031599 -0.000143259 0)
(0.00318515 -0.000141596 0)
(0.00321031 -0.000140321 0)
(0.00323539 -0.000139403 0)
(0.00326039 -0.000138811 0)
(0.00328533 -0.000138513 0)
(0.00331021 -0.000138481 0)
(0.00333505 -0.000138685 0)
(0.00335983 -0.000139099 0)
(0.00338458 -0.000139695 0)
(0.00340929 -0.000140452 0)
(0.00343397 -0.00014134 0)
(0.00345862 -0.000142338 0)
(0.00348325 -0.000143421 0)
(0.00350786 -0.000144568 0)
(0.00353245 -0.000145758 0)
(0.00355702 -0.000146969 0)
(0.00358157 -0.000148181 0)
(0.00360612 -0.000149374 0)
(0.00363065 -0.00015053 0)
(0.00365516 -0.000151627 0)
(0.00367966 -0.000152649 0)
(0.00370415 -0.000153577 0)
(0.00372862 -0.000154393 0)
(0.00375308 -0.000155079 0)
(0.00377752 -0.000155618 0)
(0.00380194 -0.000155992 0)
(0.00382634 -0.000156185 0)
(0.00385072 -0.000156178 0)
(0.00387507 -0.000155955 0)
(0.00389941 -0.000155497 0)
(0.00392371 -0.000154788 0)
(0.00394799 -0.000153808 0)
(0.00397223 -0.00015254 0)
(0.00399645 -0.000150963 0)
(0.00402063 -0.000149059 0)
(0.00404477 -0.000146805 0)
(0.00406888 -0.000144179 0)
(0.00409295 -0.000141154 0)
(0.00411699 -0.000137719 0)
(0.004141 -0.000133833 0)
(0.00416496 -0.000129478 0)
(0.00418889 -0.000124612 0)
(0.00421279 -0.000119215 0)
(0.00423665 -0.000113238 0)
(0.00426049 -0.000106655 0)
(0.0042843 -9.94097e-05 0)
(0.00430809 -9.14696e-05 0)
(0.00218588 -0.000696398 0)
(0.00216848 -0.000703638 0)
(0.00215115 -0.000710926 0)
(0.00213394 -0.000718217 0)
(0.00211682 -0.000725548 0)
(0.0020998 -0.000732889 0)
(0.00208287 -0.00074026 0)
(0.00206605 -0.000747646 0)
(0.00204933 -0.000755055 0)
(0.0020327 -0.000762477 0)
(0.00201619 -0.000769917 0)
(0.00199976 -0.000777369 0)
(0.00198346 -0.000784836 0)
(0.00196723 -0.00079231 0)
(0.0019511 -0.000799785 0)
(0.00193508 -0.000807273 0)
(0.00191915 -0.000814759 0)
(0.00190334 -0.000822246 0)
(0.00188761 -0.000829733 0)
(0.00187199 -0.000837217 0)
(0.00185646 -0.000844699 0)
(0.00184102 -0.000852175 0)
(0.00182568 -0.000859647 0)
(0.00181042 -0.00086711 0)
(0.00179525 -0.00087457 0)
(0.00178015 -0.000882018 0)
(0.00176513 -0.000889451 0)
(0.0017502 -0.000896876 0)
(0.00173535 -0.00090429 0)
(0.00172057 -0.00091169 0)
(0.00170587 -0.000919079 0)
(0.00169124 -0.000926451 0)
(0.00167667 -0.000933811 0)
(0.00166217 -0.000941154 0)
(0.00164773 -0.000948484 0)
(0.00163335 -0.000955797 0)
(0.00161903 -0.000963097 0)
(0.00160476 -0.000970378 0)
(0.00159054 -0.000977647 0)
(0.00157638 -0.000984898 0)
(0.00156225 -0.000992136 0)
(0.00154817 -0.000999358 0)
(0.00153413 -0.00100657 0)
(0.00152013 -0.00101376 0)
(0.00150615 -0.00102094 0)
(0.00149221 -0.0010281 0)
(0.0014783 -0.00103525 0)
(0.00146441 -0.00104239 0)
(0.00145055 -0.00104952 0)
(0.0014367 -0.00105663 0)
(0.00142287 -0.00106374 0)
(0.00140906 -0.00107083 0)
(0.00139525 -0.00107791 0)
(0.00138145 -0.00108499 0)
(0.00136766 -0.00109205 0)
(0.00135386 -0.00109911 0)
(0.00134006 -0.00110617 0)
(0.00132624 -0.00111322 0)
(0.00131242 -0.00112027 0)
(0.00129858 -0.00112732 0)
(0.00128472 -0.00113437 0)
(0.00127083 -0.00114142 0)
(0.00125692 -0.00114848 0)
(0.00124297 -0.00115555 0)
(0.00122898 -0.00116262 0)
(0.00121496 -0.00116971 0)
(0.00120088 -0.00117682 0)
(0.00118675 -0.00118394 0)
(0.00117256 -0.00119108 0)
(0.00115832 -0.00119824 0)
(0.001144 -0.00120543 0)
(0.00112961 -0.00121264 0)
(0.00111514 -0.00121989 0)
(0.00110059 -0.00122717 0)
(0.00108595 -0.00123448 0)
(0.00107121 -0.00124182 0)
(0.00105638 -0.0012492 0)
(0.00104148 -0.00125662 0)
(0.0010266 -0.00126417 0)
(0.000121343 -0.00114662 5.63622e-20)
(0.000241695 -0.00115524 -1.66025e-20)
(0.000360149 -0.00116941 -5.344e-20)
(0.000475923 -0.00118881 -1.92267e-20)
(0.000588427 -0.00121297 1.36615e-20)
(0.00069733 -0.0012413 -3.08445e-21)
(0.000802564 -0.00127297 -1.63558e-20)
(0.000904242 -0.00130722 2.12075e-21)
(0.0010026 -0.00134326 2.9497e-20)
(0.00109789 -0.00138043 1.69908e-20)
(0.00119021 -0.00141821 1.35727e-20)
(0.00127949 -0.00145607 2.56696e-20)
(0.00136545 -0.00149343 -3.08233e-23)
(0.00144764 -0.0015294 1.15808e-20)
(0.00152553 -0.00156255 1.42146e-21)
(0.00159859 -0.00159128 -1.9628e-20)
(0.00166649 -0.00161415 -2.50686e-20)
(0.00172882 -0.00162931 -2.35029e-20)
(0.00178495 -0.00163407 7.00988e-21)
(0.00183482 -0.00162661 2.77906e-20)
(0.00187968 -0.00160826 1.25406e-20)
(0.00192174 -0.00158327 -1.46844e-20)
(0.00196305 -0.00155587 -1.79851e-20)
(0.0020046 -0.00152805 -6.84956e-21)
(0.0020463 -0.00150012 -1.3301e-20)
(0.00208799 -0.00147207 6.75373e-21)
(0.00212959 -0.00144391 1.99093e-20)
(0.00217101 -0.00141563 1.75391e-22)
(0.00221218 -0.00138723 -1.55115e-21)
(0.00225302 -0.00135872 -9.09366e-21)
(0.00229349 -0.00133012 -9.24243e-21)
(0.00233353 -0.00130143 6.44465e-21)
(0.00237309 -0.00127269 1.14833e-20)
(0.00241213 -0.0012439 1.23634e-20)
(0.00245063 -0.00121508 1.89418e-20)
(0.00248853 -0.00118624 8.97445e-21)
(0.00252582 -0.00115741 -1.41616e-20)
(0.00256246 -0.0011286 -4.70621e-21)
(0.00259844 -0.00109982 6.39306e-21)
(0.00266831 -0.00104241 2.89616e-22)
(0.00270217 -0.00101381 -4.43405e-21)
(0.00273528 -0.000985288 -1.62569e-22)
(0.00276764 -0.000956851 -4.87141e-21)
(0.00279923 -0.000928514 -1.87415e-20)
(0.00283004 -0.000900275 1.88855e-22)
(0.00286004 -0.000872144 5.06499e-21)
(0.00288924 -0.00084413 -3.71094e-21)
(0.00291763 -0.000816233 5.29791e-21)
(0.00294519 -0.000788454 4.85468e-21)
(0.00297192 -0.000760796 4.10519e-21)
(0.00299781 -0.000733258 7.34269e-21)
(0.00302285 -0.000705842 2.39954e-21)
(0.00304704 -0.000678546 -1.12167e-20)
(0.00307037 -0.00065137 -8.4442e-21)
(0.00309283 -0.000624311 1.35681e-20)
(0.00311441 -0.000597368 1.50336e-20)
(0.00313512 -0.000570538 1.05535e-21)
(0.00315495 -0.000543816 -5.47651e-21)
(0.00317388 -0.000517202 -7.41898e-21)
(0.00319193 -0.000490689 -2.94328e-21)
(0.00320907 -0.000464275 -5.24834e-23)
(0.00322531 -0.000437953 -1.40736e-21)
(0.00324065 -0.000411722 9.16041e-22)
(0.00325508 -0.000385574 -2.87493e-21)
(0.00326859 -0.000359506 -1.02036e-20)
(0.00328119 -0.000333512 4.17926e-22)
(0.00329287 -0.000307586 8.84236e-21)
(0.00330362 -0.000281726 3.67657e-21)
(0.00331345 -0.000255926 3.40201e-21)
(0.00332234 -0.000230179 -2.34397e-21)
(0.00333031 -0.000204482 -1.77464e-21)
(0.00333735 -0.000178827 7.23614e-21)
(0.00334345 -0.000153211 4.9101e-21)
(0.00334861 -0.000127626 -1.8449e-21)
(0.00335284 -0.000102069 -6.06485e-21)
(0.00335613 -7.65323e-05 -6.89464e-21)
(0.00335848 -5.10128e-05 -2.68117e-21)
(0.00335989 -2.55036e-05 1.92934e-21)
(0.00261306 -0.00105214 0)
(0.00259327 -0.00103411 0)
(0.0025743 -0.00101691 0)
(0.00255611 -0.0010005 0)
(0.00253864 -0.000984818 0)
(0.00252188 -0.000969836 0)
(0.00250578 -0.000955499 0)
(0.00249031 -0.000941781 0)
(0.00247544 -0.000928637 0)
(0.00246114 -0.000916042 0)
(0.00244738 -0.00090396 0)
(0.00243414 -0.000892366 0)
(0.0024214 -0.000881232 0)
(0.00240913 -0.000870534 0)
(0.00239731 -0.000860246 0)
(0.00238593 -0.000850351 0)
(0.00237496 -0.000840822 0)
(0.00236439 -0.000831645 0)
(0.0023542 -0.000822802 0)
(0.00234438 -0.000814273 0)
(0.00233492 -0.000806044 0)
(0.00232579 -0.000798098 0)
(0.00231698 -0.000790423 0)
(0.00230849 -0.000783002 0)
(0.00230031 -0.000775826 0)
(0.00229241 -0.000768879 0)
(0.00228479 -0.000762154 0)
(0.00227744 -0.000755634 0)
(0.00227035 -0.000749315 0)
(0.00226352 -0.000743183 0)
(0.00225692 -0.000737233 0)
(0.00225056 -0.000731451 0)
(0.00224443 -0.000725835 0)
(0.00223852 -0.000720372 0)
(0.00223281 -0.000715061 0)
(0.00222733 -0.000709892 0)
(0.00222202 -0.000704862 0)
(0.00221695 -0.000699968 0)
(0.00221202 -0.000695207 0)
(0.00261306 -0.00105214 0)
(0.00259327 -0.00103411 0)
(0.0025743 -0.00101691 0)
(0.00255611 -0.0010005 0)
(0.00253864 -0.000984818 0)
(0.00252188 -0.000969836 0)
(0.00250578 -0.000955499 0)
(0.00249031 -0.000941781 0)
(0.00247544 -0.000928637 0)
(0.00246114 -0.000916042 0)
(0.00244738 -0.00090396 0)
(0.00243414 -0.000892366 0)
(0.0024214 -0.000881232 0)
(0.00240913 -0.000870534 0)
(0.00239731 -0.000860246 0)
(0.00238593 -0.000850351 0)
(0.00237496 -0.000840822 0)
(0.00236439 -0.000831645 0)
(0.0023542 -0.000822802 0)
(0.00234438 -0.000814273 0)
(0.00233492 -0.000806044 0)
(0.00232579 -0.000798098 0)
(0.00231698 -0.000790423 0)
(0.00230849 -0.000783002 0)
(0.00230031 -0.000775826 0)
(0.00229241 -0.000768879 0)
(0.00228479 -0.000762154 0)
(0.00227744 -0.000755634 0)
(0.00227035 -0.000749315 0)
(0.00226352 -0.000743183 0)
(0.00225692 -0.000737233 0)
(0.00225056 -0.000731451 0)
(0.00224443 -0.000725835 0)
(0.00223852 -0.000720372 0)
(0.00223281 -0.000715061 0)
(0.00222733 -0.000709892 0)
(0.00222202 -0.000704862 0)
(0.00221695 -0.000699968 0)
(0.00221202 -0.000695207 0)
(0.00215196 -0.000730743 0)
(0.00209936 -0.000769125 0)
(0.00204662 -0.000808478 0)
(0.00199353 -0.000848985 0)
(0.00194029 -0.000890451 0)
(0.00188681 -0.000932962 0)
(0.0018332 -0.000976396 0)
(0.00177945 -0.00102077 0)
(0.00172561 -0.00106599 0)
(0.0016717 -0.00111205 0)
(0.00161776 -0.00115886 0)
(0.00156378 -0.00120637 0)
(0.00150983 -0.00125451 0)
(0.00145588 -0.0013032 0)
(0.00140198 -0.00135231 0)
(0.00134815 -0.00140177 0)
(0.00129435 -0.00145141 0)
(0.00124076 -0.00150086 0)
(0.00118731 -0.00155017 0)
(0.00113317 -0.0016 0)
(0.00107736 -0.00165141 0)
(0.0010191 -0.00170523 0)
(0.000958249 -0.00176171 0)
(0.000895413 -0.00182029 0)
(0.000831488 -0.00187992 0)
(0.000767282 -0.00193953 0)
(0.000703377 -0.00199833 0)
(0.000640238 -0.00205557 0)
(0.00057824 -0.00211057 0)
(0.000517702 -0.00216268 0)
(0.00045889 -0.00221131 0)
(0.000401972 -0.00225593 0)
(0.000347027 -0.00229617 0)
(0.000294 -0.00233173 0)
(0.0002427 -0.00236245 0)
(0.000192835 -0.00238823 0)
(0.000143979 -0.00240897 0)
(9.56883e-05 -0.00242438 0)
(4.77465e-05 -0.00243394 0)
(0 -0.00243363 0)
(0 -0.00242945 0)
(0 -0.00242492 0)
(0 -0.00241981 0)
(0 -0.00241399 0)
(0 -0.0024073 0)
(0 -0.00239961 0)
(0 -0.00239078 0)
(0 -0.00238066 0)
(0 -0.00236916 0)
(0 -0.00235616 0)
(0 -0.00234155 0)
(0 -0.00232526 0)
(0 -0.00230721 0)
(0 -0.00228734 0)
(0 -0.0022656 0)
(0 -0.00224193 0)
(0 -0.00221633 0)
(0 -0.00218873 0)
(0 -0.00215913 0)
(0 -0.0021275 0)
(0 -0.00209381 0)
(0 -0.00205806 0)
(0 -0.00202023 0)
(0 -0.00198029 0)
(0 -0.00193828 0)
(0 -0.00189414 0)
(0 -0.00184792 0)
(0 -0.00179958 0)
(0 -0.0017492 0)
(0 -0.00169674 0)
(0 -0.00164228 0)
(0 -0.00158585 0)
(0 -0.00152754 0)
(0 -0.0014674 0)
(0 -0.00140557 0)
(0 -0.00134213 0)
(0 -0.00127725 0)
(0 -0.00121106 0)
(0.000121343 -0.00114662 5.63622e-20)
(0.000241695 -0.00115524 -1.66025e-20)
(0.000360149 -0.00116941 -5.344e-20)
(0.000475923 -0.00118881 -1.92267e-20)
(0.000588427 -0.00121297 1.36615e-20)
(0.00069733 -0.0012413 -3.08445e-21)
(0.000802564 -0.00127297 -1.63558e-20)
(0.000904242 -0.00130722 2.12075e-21)
(0.0010026 -0.00134326 2.9497e-20)
(0.00109789 -0.00138043 1.69908e-20)
(0.00119021 -0.00141821 1.35727e-20)
(0.00127949 -0.00145607 2.56696e-20)
(0.00136545 -0.00149343 -3.08233e-23)
(0.00144764 -0.0015294 1.15808e-20)
(0.00152553 -0.00156255 1.42146e-21)
(0.00159859 -0.00159128 -1.9628e-20)
(0.00166649 -0.00161415 -2.50686e-20)
(0.00172882 -0.00162931 -2.35029e-20)
(0.00178495 -0.00163407 7.00988e-21)
(0.00183482 -0.00162661 2.77906e-20)
(0.00187968 -0.00160826 1.25406e-20)
(0.00192174 -0.00158327 -1.46844e-20)
(0.00196305 -0.00155587 -1.79851e-20)
(0.0020046 -0.00152805 -6.84956e-21)
(0.0020463 -0.00150012 -1.3301e-20)
(0.00208799 -0.00147207 6.75373e-21)
(0.00212959 -0.00144391 1.99093e-20)
(0.00217101 -0.00141563 1.75391e-22)
(0.00221218 -0.00138723 -1.55115e-21)
(0.00225302 -0.00135872 -9.09366e-21)
(0.00229349 -0.00133012 -9.24243e-21)
(0.00233353 -0.00130143 6.44465e-21)
(0.00237309 -0.00127269 1.14833e-20)
(0.00241213 -0.0012439 1.23634e-20)
(0.00245063 -0.00121508 1.89418e-20)
(0.00248853 -0.00118624 8.97445e-21)
(0.00252582 -0.00115741 -1.41616e-20)
(0.00256246 -0.0011286 -4.70621e-21)
(0.00259844 -0.00109982 6.39306e-21)
(0.00266831 -0.00104241 2.89616e-22)
(0.00270217 -0.00101381 -4.43405e-21)
(0.00273528 -0.000985288 -1.62569e-22)
(0.00276764 -0.000956851 -4.87141e-21)
(0.00279923 -0.000928514 -1.87415e-20)
(0.00283004 -0.000900275 1.88855e-22)
(0.00286004 -0.000872144 5.06499e-21)
(0.00288924 -0.00084413 -3.71094e-21)
(0.00291763 -0.000816233 5.29791e-21)
(0.00294519 -0.000788454 4.85468e-21)
(0.00297192 -0.000760796 4.10519e-21)
(0.00299781 -0.000733258 7.34269e-21)
(0.00302285 -0.000705842 2.39954e-21)
(0.00304704 -0.000678546 -1.12167e-20)