/*--------------------------------*- C++ -*----------------------------------*\
| =========                 |                                                 |
| \\      /  F ield         | OpenFOAM: The Open Source CFD Toolbox           |
|  \\    /   O peration     | Version:  v2012                                 |
|   \\  /    A nd           | Website:  www.openfoam.com                      |
|    \\/     M anipulation  |                                                 |
\*---------------------------------------------------------------------------*/
FoamFile
{
    version     2.0;
    format      ascii;
    class       volSymmTensorField;
    location    "6";
    object      epsilon;
}
// * * * * * * * * * * * * * * * * * * * * * * * * * * * * * * * * * * * * * //

dimensions      [0 0 0 0 0 0 0];


internalField   nonuniform List<symmTensor> 
32000
(
(0.00519149 -0.000111864 -3.48324e-18 -0.00301086 2.12885e-19 1.20906e-33)
(0.00487265 -6.57278e-05 -5.97397e-18 -0.00263965 8.39272e-19 0)
(0.00488975 -8.92306e-05 0 -0.00262495 0 0)
(0.00468724 -6.81356e-05 1.95474e-18 -0.00242717 1.23764e-18 0)
(0.00466715 -8.23551e-05 8.77876e-18 -0.00238633 -8.394e-19 0)
(0.00452733 -6.12863e-05 6.17641e-18 -0.00223999 -4.3056e-19 0)
(0.00446563 -7.9249e-05 7.04304e-18 -0.00217447 1.30955e-18 0)
(0.0043697 -5.19433e-05 3.19288e-18 -0.00204152 -8.81323e-19 0)
(0.00427181 -7.77131e-05 0 -0.00196974 0 0)
(0.00421137 -4.29768e-05 -1.74352e-19 -0.00184453 6.37876e-19 0)
(0.00408263 -7.69302e-05 4.67321e-18 -0.00177374 1.81922e-19 0)
(0.0040527 -3.53358e-05 1.07406e-18 -0.00165497 -9.32016e-19 0)
(0.00389656 -7.60563e-05 2.76387e-18 -0.00158273 -6.22883e-19 0)
(0.00389254 -2.8996e-05 2.55729e-18 -0.00146128 4.33761e-19 0)
(0.00371117 -7.27333e-05 3.22737e-18 -0.00137569 1.39352e-18 0)
(0.00372737 -1.51029e-05 -3.1528e-18 -0.00127556 -1.30106e-18 0)
(0.00354522 -7.3635e-05 -1.05385e-17 -0.00126937 2.05432e-19 0)
(0.00357885 -5.74652e-06 -9.08172e-18 -0.00121947 2.92733e-19 0)
(0.00340314 -6.19318e-05 -5.31589e-18 -0.00118506 -7.13433e-19 0)
(0.00343978 7.26995e-07 -3.88703e-18 -0.00114225 -1.70796e-19 0)
(0.00327951 -5.37763e-05 -1.4085e-18 -0.00110584 -5.3703e-19 0)
(0.00331371 5.73206e-06 -1.3887e-18 -0.00107228 -5.34364e-19 0)
(0.00316821 -4.80287e-05 -3.56138e-18 -0.00103996 -1.26144e-19 0)
(0.0031994 9.70714e-06 -2.25144e-18 -0.00101254 3.31866e-19 0)
(0.00306622 -4.31983e-05 0 -0.000984066 0 0)
(0.0030951 1.30503e-05 -2.61623e-18 -0.000960217 -6.3237e-19 0)
(0.00297222 -3.88513e-05 -5.36571e-18 -0.000934867 1.99639e-19 0)
(0.00299937 1.59131e-05 -4.16753e-18 -0.000913623 2.59567e-19 0)
(0.00288537 -3.49745e-05 -1.23449e-18 -0.000890935 -4.20619e-19 0)
(0.00291107 1.83508e-05 0 -0.000871996 0 0)
(0.00280491 -3.15532e-05 1.91224e-18 -0.000851615 -2.80357e-19 0)
(0.00282928 2.04228e-05 4.33202e-18 -0.000834763 8.4859e-19 0)
(0.00273011 -2.85259e-05 5.35026e-18 -0.000816393 8.76889e-19 0)
(0.00275326 2.2195e-05 7.10579e-19 -0.00080139 -8.73584e-19 0)
(0.00266035 -2.58263e-05 -2.27092e-18 -0.000784793 -7.25067e-19 0)
(0.00268238 2.37244e-05 3.18273e-20 -0.000771415 2.49129e-19 0)
(0.0025951 -2.34018e-05 1.10673e-18 -0.000756395 3.46847e-19 0)
(0.0026161 2.50553e-05 0 -0.000744449 0 0)
(0.00253391 -2.12121e-05 -1.69193e-18 -0.000730842 2.2024e-19 0)
(0.00255396 2.62218e-05 -2.74132e-18 -0.000720165 6.72943e-20 0)
(0.00247639 -1.92253e-05 1.6447e-18 -0.000707831 -2.08739e-19 0)
(0.00249557 2.72508e-05 1.67197e-18 -0.000698282 -1.71795e-19 0)
(0.00242221 -1.74153e-05 -1.60006e-18 -0.0006871 1.98326e-19 0)
(0.00244058 2.81638e-05 -3.66706e-18 -0.000678558 -4.82652e-19 0)
(0.00237105 -1.57608e-05 -5.13117e-18 -0.000668422 -2.17071e-19 0)
(0.00238868 2.89781e-05 -5.1614e-18 -0.000660778 -3.18272e-19 0)
(0.00232267 -1.42438e-05 -3.49035e-18 -0.000651598 -3.9513e-19 0)
(0.00233961 2.9708e-05 -1.54094e-18 -0.000644759 1.4494e-19 0)
(0.00227681 -1.28497e-05 0 -0.000636452 0 0)
(0.00229311 3.03652e-05 8.02803e-20 -0.000630333 1.96275e-19 0)
(0.00223327 -1.15659e-05 3.83305e-18 -0.000622828 -5.99088e-20 0)
(0.00224899 3.09596e-05 2.9287e-18 -0.000617354 -2.61816e-19 0)
(0.00219186 -1.03821e-05 -1.40863e-18 -0.000610587 1.58817e-19 0)
(0.00220703 3.14994e-05 -3.17902e-18 -0.000605691 -2.47798e-19 0)
(0.0021524 -9.28958e-06 -3.66156e-18 -0.000599604 4.91042e-20 0)
(0.00216706 3.19919e-05 -1.17336e-18 -0.000595225 4.19923e-19 0)
(0.00211473 -8.28099e-06 2.68792e-18 -0.000589767 -2.94739e-19 0)
(0.00212893 3.24434e-05 2.03637e-18 -0.000585849 -1.38378e-19 0)
(0.00207871 -7.3502e-06 8.77298e-19 -0.000580972 2.44666e-19 0)
(0.00209247 3.28601e-05 1.02864e-19 -0.000577466 1.74956e-19 0)
(0.0020442 -6.49178e-06 2.14633e-18 -0.000573124 1.01715e-19 0)
(0.00205754 3.32488e-05 4.46492e-19 -0.000569989 -3.61661e-19 0)
(0.00201107 -5.70084e-06 -3.36007e-18 -0.000566134 3.2258e-20 0)
(0.00202402 3.36166e-05 -2.76575e-18 -0.000563337 -1.35204e-19 0)
(0.0019792 -4.97393e-06 -2.89445e-18 -0.000559914 -3.30802e-19 0)
(0.00199176 3.397e-05 -4.19312e-19 -0.000557438 3.45017e-19 0)
(0.00194844 -4.31275e-06 3.22591e-18 -0.000554379 -2.54377e-20 0)
(0.00196064 3.431e-05 1.16129e-18 -0.000552211 -1.84594e-19 0)
(0.00191861 -3.73306e-06 1.98349e-18 -0.000549452 1.00016e-19 0)
(0.00193056 3.46251e-05 1.43098e-18 -0.000547549 2.31841e-19 0)
(0.0018895 -3.27882e-06 2.73769e-18 -0.000545079 3.18584e-19 0)
(0.0019014 3.4887e-05 3.28374e-18 -0.000543287 3.04669e-19 0)
(0.00186085 -3.03439e-06 4.1684e-18 -0.000541248 -1.31883e-19 0)
(0.00187307 3.50749e-05 5.10363e-18 -0.000539159 3.71232e-19 0)
(0.00183243 -3.11166e-06 2.29943e-18 -0.000537919 6.36677e-19 0)
(0.00184531 3.5277e-05 -1.26268e-19 -0.00053476 -1.54727e-19 0)
(0.00180408 -3.57788e-06 -7.53681e-19 -0.00053482 -2.08612e-19 0)
(0.00181733 3.58854e-05 6.2049e-19 -0.000529692 7.34233e-20 0)
(0.00177559 -4.34739e-06 -1.05974e-18 -0.000531511 1.11136e-19 0)
(0.00178406 3.82459e-05 -1.36547e-18 -0.000526783 -6.27555e-20 0)
(0.00473074 -0.000220515 1.06506e-18 -0.00269896 -4.62065e-19 2.89795e-33)
(0.00487283 -0.000217077 3.54443e-18 -0.00260032 -1.19336e-18 0)
(0.00462494 -0.000214168 3.33146e-18 -0.00247519 -1.10012e-18 0)
(0.00470029 -0.000202661 5.24049e-18 -0.00239994 1.02676e-18 0)
(0.00447927 -0.000205905 2.85558e-18 -0.00230649 6.92083e-19 0)
(0.00453045 -0.000189071 3.24965e-18 -0.00221646 -9.39572e-19 0)
(0.00432008 -0.000196922 -3.05352e-18 -0.00211913 8.54619e-19 0)
(0.00436028 -0.000174397 -3.10519e-18 -0.00202228 8.16574e-19 0)
(0.00415736 -0.000187906 9.43609e-19 -0.00192555 -1.06841e-18 0)
(0.00419069 -0.000159476 2.85878e-18 -0.00183066 -7.10402e-20 0)
(0.00399464 -0.00017959 5.49557e-18 -0.00173632 -6.52506e-19 0)
(0.00402263 -0.000145748 7.3731e-18 -0.00164754 2.5084e-19 0)
(0.00383414 -0.000171333 2.58111e-18 -0.00154983 5.5742e-19 0)
(0.0038576 -0.000133933 4.42313e-18 -0.00145127 2.92663e-19 0)
(0.00367936 -0.000160596 1.69286e-18 -0.00133892 7.20207e-19 0)
(0.0036947 -0.000105884 1.68896e-18 -0.00128669 2.70235e-19 0)
(0.00353787 -0.00014206 1.61468e-18 -0.00125464 2.334e-19 0)
(0.00355015 -8.17686e-05 0 -0.00122566 0 0)
(0.00340296 -0.000117866 0 -0.00117037 0 0)
(0.00341603 -6.03292e-05 1.02076e-20 -0.00114803 -3.81241e-19 0)
(0.00328091 -9.79095e-05 -5.95863e-18 -0.00109431 2.43866e-20 0)
(0.00329454 -4.27304e-05 -4.54841e-18 -0.00107909 -1.84054e-19 0)
(0.0031702 -8.21026e-05 -2.83912e-18 -0.00102983 -1.10267e-18 0)
(0.00318362 -2.8541e-05 1.3988e-18 -0.00102007 5.6243e-19 0)
(0.00306889 -6.89134e-05 2.11561e-18 -0.000974168 8.79564e-20 0)
(0.00308177 -1.67906e-05 2.1135e-18 -0.000968152 -2.04955e-19 0)
(0.00297563 -5.75426e-05 -7.31813e-19 -0.000924957 4.00899e-19 0)
(0.0029879 -6.82605e-06 -2.06876e-18 -0.000921803 -1.20026e-19 0)
(0.00288942 -4.76463e-05 2.62108e-18 -0.000881043 -8.68145e-19 0)
(0.00290107 1.73016e-06 4.0195e-18 -0.000880294 2.52809e-19 0)
(0.00280943 -3.89901e-05 3.18041e-18 -0.000841742 5.54262e-19 0)
(0.00282048 9.13826e-06 7.73237e-19 -0.000843074 -6.37697e-20 0)
(0.00273497 -3.13691e-05 2.34693e-18 -0.000806495 5.91435e-19 0)
(0.00274543 1.56032e-05 -1.13866e-18 -0.00080964 -1.89112e-19 0)
(0.00266547 -2.46115e-05 -2.88123e-18 -0.000774824 -7.34568e-21 0)
(0.00267534 2.12886e-05 -7.55462e-19 -0.000779554 4.30093e-20 0)
(0.0026004 -1.85798e-05 -2.86406e-18 -0.000746322 -2.63737e-19 0)
(0.00260972 2.63235e-05 -6.18567e-19 -0.000752445 5.17871e-19 0)
(0.00253935 -1.31649e-05 3.43329e-18 -0.000720643 -5.48229e-21 0)
(0.00254813 3.08098e-05 3.39025e-18 -0.000727996 -1.74055e-19 0)
(0.00248194 -8.2788e-06 0 -0.000697493 0 0)
(0.0024902 3.4829e-05 1.07009e-18 -0.000705934 3.93403e-19 0)
(0.00242782 -3.85037e-06 2.64444e-18 -0.000676614 2.57012e-19 0)
(0.00243559 3.84465e-05 1.6856e-18 -0.000686022 1.50815e-19 0)
(0.00237671 1.78757e-07 1.03036e-18 -0.000657782 3.47982e-19 0)
(0.00238403 4.17159e-05 -8.61967e-20 -0.000668052 -2.12302e-19 0)
(0.00232835 3.85676e-06 5.02483e-19 -0.0006408 -4.23366e-19 0)
(0.00233524 4.46811e-05 1.70453e-18 -0.000651838 3.6082e-19 0)
(0.00228251 7.22379e-06 5.50377e-18 -0.000625493 2.98065e-19 0)
(0.00228899 4.73785e-05 2.78745e-18 -0.000637216 -2.39837e-19 0)
(0.00223898 1.03136e-05 -4.72593e-19 -0.000611705 3.92673e-19 0)
(0.00224507 4.98386e-05 -1.34942e-18 -0.000624041 2.36478e-19 0)
(0.00219756 1.31547e-05 2.9149e-18 -0.000599295 6.14821e-20 0)
(0.00220329 5.20869e-05 2.82876e-18 -0.000612179 -6.8868e-20 0)
(0.0021581 1.57716e-05 2.58863e-19 -0.000588138 2.95897e-19 0)
(0.00216348 5.41449e-05 -1.27452e-18 -0.000601511 2.18068e-19 0)
(0.00212042 1.81849e-05 2.00115e-18 -0.000578117 -4.18256e-20 0)
(0.00212548 5.60301e-05 4.50118e-18 -0.000591927 5.99642e-19 0)
(0.00208438 2.04116e-05 4.94059e-18 -0.000569128 3.21806e-19 0)
(0.00208914 5.77562e-05 4.95638e-18 -0.000583325 4.37536e-19 0)
(0.00204984 2.24645e-05 4.68076e-19 -0.000561074 6.25439e-19 0)
(0.00205432 5.9333e-05 -2.27491e-18 -0.000575603 -4.75208e-19 0)
(0.00201668 2.43514e-05 -1.50099e-18 -0.000553864 -3.066e-19 0)
(0.00202092 6.07664e-05 -1.9954e-18 -0.000568661 -1.18809e-19 0)
(0.00198475 2.60737e-05 0 -0.000547416 0 0)
(0.0019888 6.20601e-05 2.44343e-19 -0.000562395 3.47137e-19 0)
(0.00195395 2.76264e-05 3.16182e-18 -0.000541653 1.23264e-19 0)
(0.00195784 6.32193e-05 3.87853e-18 -0.0005567 3.18034e-19 0)
(0.00192417 2.90012e-05 2.61348e-19 -0.000536499 3.34916e-19 0)
(0.00192792 6.42578e-05 -1.74548e-18 -0.000551489 -7.60848e-19 0)
(0.00189531 3.01945e-05 -3.37462e-18 -0.00053188 -5.35839e-19 0)
(0.00189885 6.52107e-05 -3.11616e-18 -0.000546708 -2.85361e-19 0)
(0.00186723 3.12212e-05 -1.44378e-18 -0.000527704 -3.65366e-19 0)
(0.00187039 6.61585e-05 1.31075e-19 -0.000542316 1.65075e-19 0)
(0.00183968 3.21316e-05 2.5231e-18 -0.000523775 3.34436e-19 0)
(0.00184215 6.72658e-05 -1.59344e-19 -0.000538128 -2.41599e-19 0)
(0.00181202 3.301e-05 -4.58473e-19 -0.000519627 1.22056e-19 0)
(0.00181346 6.87652e-05 -4.68829e-19 -0.000533598 1.16703e-19 0)
(0.00178315 3.38752e-05 1.67068e-18 -0.000514877 7.76212e-20 0)
(0.00178033 7.0825e-05 7.56324e-19 -0.000529718 5.0416e-20 0)
(0.0048811 -0.000387117 -3.38191e-18 -0.00278143 4.32015e-19 1.19292e-33)
(0.00484185 -0.000355361 -8.61838e-19 -0.002566 6.90069e-19 0)
(0.00466613 -0.000357983 -7.75801e-18 -0.00248184 -7.53605e-19 0)
(0.00466035 -0.00033565 -3.14661e-18 -0.00236308 1.74458e-19 0)
(0.00448618 -0.000339098 -2.1108e-18 -0.00227922 -1.22743e-18 0)
(0.00448686 -0.000315168 4.26276e-18 -0.00217671 1.56149e-18 0)
(0.00431449 -0.000321198 7.98786e-18 -0.00208121 -4.18906e-19 0)
(0.00431655 -0.00029416 7.94551e-18 -0.00198332 2.63175e-19 0)
(0.00414606 -0.000304066 7.62376e-18 -0.00188581 3.93379e-19 0)
(0.00415022 -0.000273184 7.67081e-18 -0.00179467 -2.56854e-19 0)
(0.00397885 -0.000287666 1.40979e-20 -0.00169947 5.94386e-19 0)
(0.00398571 -0.000253047 -1.89423e-18 -0.00161375 -3.47568e-19 0)
(0.00381197 -0.000270469 0 -0.00151444 0 0)
(0.00381941 -0.000230359 1.80088e-18 -0.00142252 3.29575e-19 0)
(0.00365232 -0.000250962 -7.04146e-19 -0.00131811 6.26844e-19 0)
(0.00365426 -0.000187213 -7.60316e-19 -0.00128066 6.07136e-19 0)
(0.00351303 -0.000213305 2.33941e-18 -0.00124136 -2.80843e-19 0)
(0.00351621 -0.000149525 3.99428e-18 -0.00121652 6.67897e-20 0)
(0.00338368 -0.000175206 -7.04353e-19 -0.0011633 5.16861e-19 0)
(0.00338925 -0.000116137 -7.96047e-19 -0.00114401 1.31138e-19 0)
(0.00326639 -0.000144068 -2.94885e-18 -0.00109357 2.96765e-19 0)
(0.00327389 -8.83762e-05 -3.05153e-18 -0.00107976 -8.06921e-20 0)
(0.00315912 -0.000118726 -5.07609e-18 -0.00103326 -1.05069e-18 0)
(0.00316784 -6.53922e-05 -2.19019e-18 -0.00102354 -1.99445e-19 0)
(0.00306036 -9.73785e-05 -1.42686e-18 -0.000979956 -5.80365e-19 0)
(0.00306976 -4.60051e-05 -1.34485e-18 -0.000973361 -2.76506e-19 0)
(0.00296909 -7.9037e-05 -6.77407e-19 -0.000932177 3.58811e-19 0)
(0.00297881 -2.94016e-05 -3.35458e-18 -0.000928229 -4.85503e-19 0)
(0.00288444 -6.31265e-05 -3.82181e-18 -0.000889209 -1.00172e-18 0)
(0.00289425 -1.5037e-05 1.30848e-18 -0.000887589 5.45572e-19 0)
(0.00280569 -4.92149e-05 -2.97284e-18 -0.000850533 1.32318e-19 0)
(0.00281545 -2.50494e-06 4.3354e-19 -0.000850967 2.77198e-19 0)
(0.00273222 -3.69549e-05 -5.96501e-19 -0.000815679 -7.73482e-19 0)
(0.00274183 8.51198e-06 -5.53881e-19 -0.000817927 -7.82425e-19 0)
(0.00266349 -2.6073e-05 1.02252e-18 -0.00078423 -4.51178e-20 0)
(0.0026729 1.82636e-05 1.27568e-18 -0.000788086 7.43654e-19 0)
(0.00259906 -1.63537e-05 4.05077e-18 -0.000755825 8.81752e-19 0)
(0.00260822 2.69476e-05 2.79475e-18 -0.000761114 2.31588e-19 0)
(0.00253851 -7.6256e-06 0 -0.000730156 0 0)
(0.0025474 3.47223e-05 -1.03654e-18 -0.000736724 -2.28185e-19 0)
(0.00248151 2.49875e-07 -3.23041e-18 -0.00070695 2.76079e-20 0)
(0.00249012 4.17151e-05 -3.35871e-18 -0.000714663 -2.63339e-19 0)
(0.00242772 7.38561e-06 1.08845e-18 -0.000685968 -6.21778e-19 0)
(0.00243605 4.80304e-05 3.27804e-18 -0.000694707 2.73528e-19 0)
(0.00237689 1.38744e-05 2.0032e-18 -0.000667 5.96202e-19 0)
(0.00238494 5.37534e-05 1.98876e-18 -0.000676658 6.41836e-19 0)
(0.00232876 1.97932e-05 6.91546e-19 -0.000649856 3.80299e-20 0)
(0.00233654 5.89549e-05 2.53241e-18 -0.000660341 4.59064e-19 0)
(0.0022831 2.5206e-05 -1.66811e-18 -0.000634368 -1.5389e-19 0)
(0.00229062 6.36938e-05 1.77718e-18 -0.000645595 4.09431e-19 0)
(0.00223972 3.01667e-05 5.59752e-19 -0.000620386 -1.55465e-19 0)
(0.00224699 6.80192e-05 4.6193e-19 -0.000632277 -3.50578e-19 0)
(0.00219843 3.47204e-05 4.29022e-19 -0.000607771 -3.45235e-19 0)
(0.00220546 7.19721e-05 2.59508e-18 -0.000620258 8.44262e-19 0)
(0.00215906 3.89052e-05 2.01432e-18 -0.0005964 9.23563e-19 0)
(0.00216587 7.55867e-05 -1.87391e-18 -0.000609418 -7.74531e-19 0)
(0.00212145 4.27523e-05 -4.51686e-18 -0.000586161 -7.86586e-19 0)
(0.00212806 7.88912e-05 -3.72616e-18 -0.000599646 -6.98726e-19 0)
(0.00208547 4.62874e-05 -3.89804e-18 -0.000576949 -9.07559e-19 0)
(0.0020919 8.19091e-05 -2.08944e-18 -0.00059084 -2.54603e-19 0)
(0.00205098 4.95304e-05 -5.16114e-19 -0.000568673 1.1983e-19 0)
(0.00205726 8.46607e-05 -5.28435e-19 -0.000582908 1.14383e-19 0)
(0.00201787 5.24968e-05 5.07819e-19 -0.000561245 -1.14332e-19 0)
(0.002024 8.71647e-05 3.73047e-18 -0.000575764 9.82767e-19 0)
(0.001986 5.51976e-05 1.49343e-18 -0.000554586 4.06232e-19 0)
(0.00199201 8.94411e-05 1.23131e-18 -0.000569331 7.52322e-20 0)
(0.00195526 5.76416e-05 -1.41133e-18 -0.000548622 -3.09888e-19 0)
(0.00196115 9.15159e-05 -1.33539e-19 -0.000563542 -1.78083e-19 0)
(0.00192553 5.98357e-05 -1.39337e-19 -0.000543279 -1.74841e-19 0)
(0.00193128 9.34265e-05 0 -0.000558333 0 0)
(0.00189662 6.17877e-05 1.14899e-18 -0.00053848 5.45838e-20 0)
(0.00190222 9.52329e-05 1.29431e-18 -0.000553646 2.55467e-19 0)
(0.00186834 6.35086e-05 2.39424e-18 -0.000534118 2.83967e-19 0)
(0.00187372 9.70334e-05 2.68361e-18 -0.000549373 6.8371e-19 0)
(0.00184036 6.50175e-05 2.17903e-18 -0.000529938 7.13415e-19 0)
(0.00184541 9.89707e-05 9.70628e-19 -0.000545221 -8.74111e-20 0)
(0.00181224 6.63391e-05 -1.22575e-18 -0.000525385 -2.27699e-19 0)
(0.00181674 0.000101174 9.29727e-19 -0.000540626 5.80174e-19 0)
(0.00178347 6.74566e-05 1.64688e-18 -0.00052001 1.46883e-19 0)
(0.00178398 0.000103669 2.42682e-18 -0.000537185 3.55179e-19 0)
(0.00477602 -0.000525429 4.89614e-18 -0.00269428 3.82151e-21 1.52287e-33)
(0.00477139 -0.000495175 -2.52229e-18 -0.00251243 4.06063e-19 0)
(0.00459136 -0.000490356 7.71762e-18 -0.00241682 8.27474e-19 0)
(0.00459154 -0.000466161 8.7188e-19 -0.00230701 -1.36961e-18 0)
(0.00441798 -0.000463646 -3.78267e-18 -0.00221954 2.06836e-18 0)
(0.00441849 -0.000437724 -8.20737e-18 -0.00211903 4.19908e-19 0)
(0.00424809 -0.000437712 -1.38419e-18 -0.00202164 -2.22453e-18 0)
(0.00424744 -0.000407991 -3.39757e-18 -0.00192799 -1.88898e-18 0)
(0.00408102 -0.000412137 -2.71572e-18 -0.00182688 5.54282e-19 0)
(0.00407752 -0.000378418 -2.70346e-18 -0.00174328 1.1045e-18 0)
(0.00391699 -0.000387012 8.7085e-20 -0.00164076 5.64509e-19 0)
(0.00391087 -0.00035131 -2.03902e-18 -0.00155639 -1.41459e-18 0)
(0.00375402 -0.000360301 3.78466e-19 -0.00144417 -1.65462e-18 0)
(0.00374623 -0.000316789 8.51175e-19 -0.00136635 2.49905e-19 0)
(0.0036052 -0.000332436 7.82418e-18 -0.00128565 1.71427e-18 0)
(0.00359256 -0.000259916 6.51226e-19 -0.00126897 -5.57973e-19 0)
(0.00347454 -0.00027737 -2.86739e-18 -0.0012228 6.8791e-19 0)
(0.00347017 -0.000210118 -6.40744e-18 -0.00120223 -8.59723e-19 0)
(0.00335442 -0.000228141 -2.43234e-18 -0.00115308 -6.37093e-19 0)
(0.00335524 -0.000167209 -3.86871e-18 -0.00113627 -6.23113e-19 0)
(0.00324424 -0.000188279 7.52058e-19 -0.00108988 3.88297e-19 0)
(0.00324803 -0.000131362 8.11898e-19 -0.00107772 7.60646e-19 0)
(0.00314232 -0.000155165 1.43001e-18 -0.00103397 3.18233e-19 0)
(0.00314793 -0.000101056 2.93109e-18 -0.00102521 1.00594e-18 0)
(0.00304767 -0.000126824 1.14168e-19 -0.000983654 3.23217e-19 0)
(0.00305452 -7.50247e-05 2.71847e-18 -0.000977562 6.64247e-19 0)
(0.0029596 -0.000102244 3.87825e-18 -0.00093803 -3.01114e-20 0)
(0.00296729 -5.24406e-05 2.72102e-18 -0.000934281 3.61205e-21 0)
(0.00287748 -8.07669e-05 -5.067e-19 -0.000896641 5.81363e-19 0)
(0.00288573 -3.27023e-05 -3.36054e-18 -0.000895017 -9.1603e-19 0)
(0.00280075 -6.18701e-05 -8.48946e-19 -0.000859109 -2.98057e-19 0)
(0.00280934 -1.53337e-05 -5.42954e-19 -0.000859408 5.26077e-19 0)
(0.00272891 -4.51293e-05 1.89738e-18 -0.00082507 3.06176e-19 0)
(0.00273769 4.70457e-08 1.80048e-18 -0.000827103 6.78849e-20 0)
(0.00266151 -3.02069e-05 6.04142e-19 -0.00079419 -2.20715e-19 0)
(0.00267037 1.37458e-05 1.75129e-18 -0.000797789 8.08875e-20 0)
(0.00259816 -1.68331e-05 -5.97218e-19 -0.000766172 2.02635e-19 0)
(0.00260701 2.60085e-05 -5.10387e-19 -0.000771185 4.38683e-19 0)
(0.00253851 -4.79032e-06 3.40787e-18 -0.00074075 3.85689e-19 0)
(0.00254731 3.70347e-05 4.59384e-18 -0.000747043 9.57474e-19 0)
(0.00248225 6.09899e-06 6.50682e-18 -0.000717687 1.38863e-18 0)
(0.00249095 4.6988e-05 2.33667e-18 -0.000725136 1.74789e-19 0)
(0.0024291 1.5981e-05 1.68803e-18 -0.000696769 3.16271e-19 0)
(0.00243768 5.60033e-05 5.94725e-19 -0.000705262 -1.51935e-19 0)
(0.00237879 2.49768e-05 2.47987e-18 -0.000677802 3.38796e-19 0)
(0.00238724 6.41927e-05 2.73217e-18 -0.000687241 8.25869e-19 0)
(0.00233111 3.31875e-05 2.11631e-18 -0.000660613 9.06441e-19 0)
(0.00233941 7.16496e-05 -1.04725e-18 -0.000670906 -4.73199e-19 0)
(0.00228584 4.06978e-05 -2.13695e-18 -0.000645044 -1.93252e-19 0)
(0.00229399 7.84528e-05 -2.16021e-18 -0.000656108 -2.255e-19 0)
(0.00224279 4.7579e-05 4.10249e-19 -0.000630953 -3.22256e-19 0)
(0.0022508 8.46686e-05 2.43227e-18 -0.000642712 5.97093e-19 0)
(0.00220178 5.38914e-05 -7.15596e-19 -0.000618209 -2.317e-20 0)
(0.00220965 9.03532e-05 9.78023e-19 -0.000630593 4.48216e-19 0)
(0.00216266 5.96857e-05 2.32312e-18 -0.000606694 5.40872e-19 0)
(0.0021704 9.55542e-05 1.36891e-18 -0.000619639 1.48734e-19 0)
(0.00212528 6.50049e-05 8.06607e-19 -0.000596303 2.17913e-19 0)
(0.00213291 0.000100313 9.37698e-19 -0.000609747 4.34497e-19 0)
(0.00208951 6.9885e-05 -1.15881e-18 -0.000586936 6.48247e-20 0)
(0.00209703 0.000104665 -1.58145e-18 -0.000600822 -5.38835e-19 0)
(0.00205522 7.43564e-05 -2.32296e-18 -0.000578505 -7.20423e-19 0)
(0.00206263 0.000108643 -3.84867e-18 -0.000592779 -1.23497e-18 0)
(0.00202229 7.84452e-05 -1.0349e-18 -0.000570927 -5.82642e-19 0)
(0.00202961 0.00011228 1.76842e-18 -0.000585539 8.34646e-19 0)
(0.00199061 8.21747e-05 2.96927e-18 -0.000564123 9.15167e-19 0)
(0.00199783 0.000115609 1.22989e-18 -0.000579029 1.60651e-19 0)
(0.00196006 8.55667e-05 1.90741e-18 -0.000558015 3.38714e-19 0)
(0.00196717 0.00011867 1.3474e-18 -0.000573179 3.46332e-19 0)
(0.0019305 8.8643e-05 8.43363e-19 -0.000552519 3.81319e-19 0)
(0.00193747 0.000121514 0 -0.00056792 0 0)
(0.00190177 9.14257e-05 4.6924e-19 -0.000547546 -5.86422e-20 0)
(0.00190856 0.000124204 1.44782e-18 -0.000563178 5.27046e-19 0)
(0.00187364 9.3937e-05 3.01458e-18 -0.000542969 5.81545e-19 0)
(0.00188018 0.000126821 3.54827e-18 -0.000558815 6.76842e-19 0)
(0.00184579 9.62011e-05 -7.56222e-19 -0.000538529 2.79462e-19 0)
(0.001852 0.000129467 -3.95803e-18 -0.00055449 -1.29496e-18 0)
(0.00181775 9.82433e-05 -4.33429e-18 -0.000533687 -1.14474e-18 0)
(0.00182353 0.000132263 -3.41346e-18 -0.000549635 -6.81421e-19 0)
(0.00178895 0.000100042 -1.39245e-18 -0.000528059 -5.50536e-19 0)
(0.00179102 0.000135318 9.20637e-19 -0.000546219 4.09835e-19 0)
(0.00470473 -0.000662729 -4.90597e-18 -0.0026219 5.8178e-20 1.67322e-33)
(0.00469018 -0.000627104 4.87504e-18 -0.0024381 1.22673e-19 0)
(0.00451491 -0.000616825 -1.64958e-18 -0.00234254 -2.64692e-18 0)
(0.00450986 -0.00058998 3.04076e-18 -0.00223342 6.9366e-19 0)
(0.00433948 -0.000581734 4.55022e-18 -0.00214328 2.42228e-18 0)
(0.0043367 -0.000553313 2.23808e-18 -0.00204732 1.1461e-18 0)
(0.00416683 -0.00054769 -1.40831e-18 -0.00194435 -7.92602e-19 0)
(0.00416472 -0.000515563 2.75733e-18 -0.00185593 -5.44661e-19 0)
(0.00399663 -0.000514599 -2.01862e-18 -0.00175081 -4.32196e-19 0)
(0.00399449 -0.000478461 -2.11169e-18 -0.00167055 -9.83014e-19 0)
(0.00382555 -0.000481244 -1.64219e-19 -0.00155878 -5.24092e-19 0)
(0.00382215 -0.000440402 1.41272e-19 -0.00147975 4.77157e-19 0)
(0.00365707 -0.000442334 -3.45976e-18 -0.00135129 -3.89192e-19 0)
(0.00364761 -0.000384873 -1.64906e-19 -0.00130245 -4.10739e-19 0)
(0.00354008 -0.000394055 -3.68104e-18 -0.0012634 -1.21833e-18 0)
(0.0035288 -0.000323247 0 -0.00125225 0 0)
(0.00342527 -0.000331335 -5.25953e-19 -0.00120206 4.62426e-19 0)
(0.00341815 -0.000265084 -4.00108e-18 -0.00118784 -7.4905e-19 0)
(0.0033168 -0.000276344 -1.75207e-18 -0.0011406 -7.58048e-19 0)
(0.00331439 -0.000215072 -3.4088e-18 -0.00112827 -1.51824e-18 0)
(0.00321482 -0.000230207 -4.4647e-18 -0.0010846 -7.13611e-19 0)
(0.00321597 -0.000172604 -5.82805e-18 -0.00107487 -8.05954e-19 0)
(0.00311914 -0.000190735 -4.18323e-18 -0.00103348 -4.03862e-19 0)
(0.00312275 -0.000136043 -5.77905e-18 -0.0010261 -1.15588e-18 0)
(0.00302947 -0.000156424 -4.22171e-18 -0.000986495 -7.53354e-19 0)
(0.00303479 -0.0001042 -2.59418e-18 -0.000981322 2.04481e-19 0)
(0.00294542 -0.00012636 1.15363e-18 -0.000943381 -5.45021e-19 0)
(0.00295194 -7.62627e-05 3.98925e-18 -0.000940278 5.1266e-19 0)
(0.00286656 -9.98549e-05 4.55373e-18 -0.000903928 1.08368e-18 0)
(0.00287394 -5.16054e-05 7.3964e-19 -0.000902746 3.97345e-20 0)
(0.00279249 -7.63455e-05 1.37435e-18 -0.000867878 6.15938e-19 0)
(0.00280048 -2.9721e-05 -1.22038e-18 -0.000868463 -3.60853e-19 0)
(0.00272285 -5.53756e-05 0 -0.000834964 0 0)
(0.00273125 -1.01974e-05 -1.30752e-18 -0.000837172 -6.11337e-19 0)
(0.00265727 -3.65772e-05 -4.71122e-18 -0.000804931 -8.70973e-19 0)
(0.00266596 7.30042e-06 -3.59655e-18 -0.000808627 -5.96726e-19 0)
(0.00259545 -1.96509e-05 -1.24672e-18 -0.000777543 -5.66123e-19 0)
(0.00260431 2.30472e-05 0 -0.000782603 0 0)
(0.00253709 -4.3505e-06 -1.06463e-18 -0.000752583 -3.11388e-19 0)
(0.00254605 3.72698e-05 1.19391e-18 -0.000758889 5.68327e-19 0)
(0.00248193 9.52782e-06 3.88188e-18 -0.000729848 4.49828e-19 0)
(0.00249093 5.01568e-05 5.08725e-18 -0.000737292 1.06422e-18 0)
(0.00242971 2.21541e-05 1.28994e-18 -0.000709153 7.54633e-19 0)
(0.00243871 6.18659e-05 -1.36467e-19 -0.000717634 -2.23447e-19 0)
(0.00238022 3.36709e-05 -5.11001e-18 -0.000690327 -1.18522e-18 0)
(0.00238918 7.25302e-05 -4.16083e-18 -0.000699753 -9.65238e-19 0)
(0.00233324 4.41985e-05 -1.08548e-18 -0.000673213 -5.05855e-19 0)
(0.00234215 8.22618e-05 -1.07363e-18 -0.0006835 -5.24653e-19 0)
(0.00228858 5.38389e-05 -2.13054e-18 -0.000657668 -3.24516e-19 0)
(0.00229743 9.11565e-05 -4.10905e-18 -0.000668735 -1.17682e-18 0)
(0.00224607 6.26791e-05 -4.89673e-18 -0.00064356 -1.37997e-18 0)
(0.00225484 9.9296e-05 -2.11514e-18 -0.000655336 -3.64983e-19 0)
(0.00220555 7.07933e-05 -1.0102e-18 -0.000630768 -4.79703e-19 0)
(0.00221425 0.000106751 -8.57708e-19 -0.000643185 -2.96054e-19 0)
(0.00216687 7.82454e-05 1.35401e-18 -0.000619182 2.09067e-19 0)
(0.00217548 0.000113581 1.51034e-18 -0.000632177 4.3661e-19 0)
(0.00212989 8.50906e-05 9.66619e-19 -0.0006087 4.65348e-19 0)
(0.00213843 0.000119841 0 -0.000622215 0 0)
(0.00209449 9.13771e-05 2.88585e-18 -0.00059923 7.39747e-19 0)
(0.00210294 0.000125579 3.33299e-18 -0.000613211 1.39567e-18 0)
(0.00206054 9.71472e-05 2.00824e-18 -0.000590683 1.09977e-18 0)
(0.00206891 0.000130837 -1.21596e-18 -0.000605082 -8.6201e-19 0)
(0.00202794 0.000102439 -6.46393e-18 -0.00058298 -1.99558e-18 0)
(0.00203622 0.000135659 -3.31293e-18 -0.000597749 -8.39542e-19 0)
(0.00199655 0.000107286 -5.63303e-19 -0.00057604 -6.65323e-19 0)
(0.00200475 0.000140088 1.38094e-18 -0.000591139 4.35595e-19 0)
(0.00196627 0.000111721 1.56345e-19 -0.000569781 1.88254e-19 0)
(0.00197437 0.000144171 7.17375e-19 -0.000585176 2.69132e-19 0)
(0.00193695 0.00011577 0 -0.000564119 0 0)
(0.00194493 0.000147962 1.52728e-19 -0.000579784 1.88138e-19 0)
(0.00190841 0.000119459 1.77175e-18 -0.000558961 3.86605e-19 0)
(0.00191625 0.000151522 1.63328e-18 -0.000574882 2.31606e-19 0)
(0.00188042 0.000122806 -2.9244e-18 -0.000554183 -6.86258e-19 0)
(0.00188808 0.000154926 -2.42683e-18 -0.000570334 -6.81504e-19 0)
(0.00185268 0.000125837 -3.47426e-18 -0.000549526 -8.5423e-19 0)
(0.00186009 0.000158272 -3.15372e-18 -0.000565824 -1.04298e-18 0)
(0.00182478 0.000128584 -2.84639e-18 -0.000544454 -1.24003e-18 0)
(0.00183185 0.000161673 -1.24714e-18 -0.000560833 -4.33045e-19 0)
(0.00179621 0.000131033 -7.87669e-19 -0.000538645 -4.12858e-19 0)
(0.0017996 0.000165314 9.3287e-19 -0.000557397 4.70134e-19 0)
(0.00460616 -0.000790715 1.23715e-18 -0.0025211 8.05027e-19 1.46612e-32)
(0.00457596 -0.000748225 -8.51063e-18 -0.00234113 2.10686e-18 0)
(0.00441872 -0.000734601 6.54539e-19 -0.00224541 -4.6679e-19 0)
(0.00439539 -0.00070234 5.27575e-18 -0.00213856 4.75236e-19 0)
(0.00424312 -0.000690908 2.3536e-18 -0.00204371 1.1893e-18 0)
(0.00422131 -0.000657375 0 -0.00195222 0 0)
(0.00406973 -0.000648229 2.6069e-18 -0.00184527 -4.51324e-19 0)
(0.00404934 -0.000611775 6.95819e-18 -0.00176335 1.1026e-18 0)
(0.0038973 -0.000606417 7.15679e-18 -0.00165224 4.13569e-19 0)
(0.00387974 -0.000568357 5.31632e-18 -0.00157566 4.64931e-19 0)
(0.00372461 -0.000562992 7.05291e-18 -0.00145183 1.11045e-18 0)
(0.00371026 -0.000519844 6.79332e-18 -0.00137527 6.71012e-19 0)
(0.00358405 -0.000518209 3.93767e-18 -0.00128769 1.32333e-18 0)
(0.00356799 -0.000443144 0 -0.0012783 0 0)
(0.00347439 -0.000446459 2.16779e-18 -0.00124028 -4.05018e-21 0)
(0.00346488 -0.000375057 4.33009e-18 -0.0012268 1.23604e-18 0)
(0.00337126 -0.00037834 8.03015e-18 -0.00118239 1.70809e-18 0)
(0.00336572 -0.00031311 4.49134e-18 -0.00117104 4.80014e-19 0)
(0.00327308 -0.000319967 -2.64486e-19 -0.00112788 7.16767e-19 0)
(0.00327076 -0.000259085 -2.28126e-18 -0.00111914 -4.36246e-19 0)
(0.00317944 -0.000269495 2.93723e-19 -0.001078 -6.60896e-19 0)
(0.00317991 -0.000211889 2.22285e-18 -0.00107102 4.52308e-19 0)
(0.00309051 -0.000225133 3.11233e-18 -0.00103159 1.16429e-18 0)
(0.00309329 -0.000170341 0 -0.00102615 0 0)
(0.00300635 -0.000185905 -5.22747e-19 -0.000988283 2.57683e-19 0)
(0.00301095 -0.000133589 -3.49856e-18 -0.000984471 -9.10039e-19 0)
(0.00292682 -0.000151107 -2.86829e-18 -0.000948056 -1.10497e-18 0)
(0.00293282 -0.000100954 1.49489e-18 -0.000945929 7.07816e-19 0)
(0.00285172 -0.000120115 -1.11089e-18 -0.00091087 -1.15419e-19 0)
(0.00285876 -7.18552e-05 1.28165e-18 -0.000910397 4.17632e-19 0)
(0.0027808 -9.23881e-05 2.31985e-18 -0.000876601 3.12934e-20 0)
(0.00278862 -4.58025e-05 2.52928e-18 -0.000877708 3.28018e-19 0)
(0.0027138 -6.74755e-05 1.36958e-18 -0.000845088 6.44463e-19 0)
(0.0027222 -2.23867e-05 0 -0.000847681 0 0)
(0.00265047 -4.50053e-05 -5.40897e-19 -0.000816159 1.38814e-19 0)
(0.00265929 -1.26697e-06 -1.87072e-18 -0.000820139 -5.09909e-19 0)
(0.00259057 -2.46678e-05 -2.93802e-18 -0.000789636 -8.60743e-19 0)
(0.00259969 1.78422e-05 -1.82862e-18 -0.000794905 -5.1343e-19 0)
(0.00253385 -6.20375e-06 3.70779e-19 -0.000765349 -3.44523e-19 0)
(0.00254319 3.51812e-05 7.15921e-19 -0.000771809 1.34121e-19 0)
(0.00248011 1.06054e-05 -8.75925e-19 -0.000743133 -1.22695e-19 0)
(0.00248959 5.09535e-05 -1.19252e-18 -0.000750692 -6.03677e-19 0)
(0.00242913 2.59448e-05 -1.70759e-18 -0.000722832 -4.97427e-19 0)
(0.00243869 6.53321e-05 -3.9853e-19 -0.000731401 2.9537e-19 0)
(0.00238072 3.99718e-05 2.65065e-18 -0.000704298 8.41625e-19 0)
(0.00239033 7.84648e-05 1.52313e-18 -0.000713793 3.03019e-19 0)
(0.00233469 5.28211e-05 0 -0.000687394 0 0)
(0.00234431 9.04784e-05 9.45853e-19 -0.000697736 3.58234e-19 0)
(0.00229087 6.46088e-05 -5.20581e-19 -0.00067199 4.6802e-20 0)
(0.00230049 0.000101482 -3.60369e-18 -0.000683107 -1.44026e-18 0)
(0.00224912 7.54346e-05 -3.27727e-19 -0.000657968 -4.19663e-19 0)
(0.00225871 0.000111571 1.20374e-18 -0.00066979 7.6407e-19 0)
(0.00220927 8.53855e-05 1.19802e-18 -0.000645217 7.35942e-19 0)
(0.00221883 0.000120828 7.11862e-19 -0.000657681 1.37287e-19 0)
(0.0021712 9.4537e-05 -1.85753e-18 -0.000633633 -8.39867e-19 0)
(0.00218071 0.000129324 -8.446e-19 -0.00064668 -3.38012e-19 0)
(0.00213477 0.000102956 -1.32474e-18 -0.000623122 -2.97258e-19 0)