/*--------------------------------*- C++ -*----------------------------------*\
| =========                 |                                                 |
| \\      /  F ield         | OpenFOAM: The Open Source CFD Toolbox           |
|  \\    /   O peration     | Version:  v2012                                 |
|   \\  /    A nd           | Website:  www.openfoam.com                      |
|    \\/     M anipulation  |                                                 |
\*---------------------------------------------------------------------------*/
FoamFile
{
    version     2.0;
    format      ascii;
    class       volScalarField;
    location    "6";
    object      epsilonEq;
}
// * * * * * * * * * * * * * * * * * * * * * * * * * * * * * * * * * * * * * //

dimensions      [0 0 0 0 0 0 0];


internalField   nonuniform List<scalar> 
32000
(
0.00479283
0.00440129
0.00440501
0.00417676
0.00414378
0.00398144
0.00391007
0.00378247
0.00368545
0.00358462
0.0034688
0.00339111
0.00325732
0.00319568
0.00303949
0.00300189
0.00288262
0.00287979
0.00275118
0.00275406
0.00263425
0.00264018
0.00253165
0.0025387
0.00243977
0.00244715
0.00235619
0.0023638
0.00227972
0.00228757
0.00220952
0.00221758
0.00214489
0.0021531
0.0020852
0.0020935
0.00202991
0.00203826
0.00197856
0.00198692
0.00193075
0.00193911
0.00188614
0.00189447
0.00184443
0.00185273
0.00180535
0.0018136
0.00176868
0.00177687
0.0017342
0.00174233
0.00170173
0.00170979
0.00167109
0.00167908
0.00164213
0.00165004
0.00161471
0.00162254
0.0015887
0.00159645
0.00156398
0.00157164
0.00154042
0.00154799
0.00151789
0.00152538
0.00149625
0.0015037
0.00147532
0.00148281
0.00145494
0.00146252
0.00143494
0.00144248
0.0014151
0.00142201
0.00139508
0.00139914
0.00435014
0.00438778
0.00416877
0.00417697
0.00399123
0.00397696
0.00379619
0.00377186
0.00359645
0.00356908
0.00339966
0.00337225
0.00320644
0.00317206
0.00300623
0.00298842
0.0028744
0.00286567
0.00274666
0.00274225
0.00263151
0.00263135
0.00252944
0.0025321
0.00243775
0.00244214
0.0023544
0.00236
0.00227815
0.00228473
0.00220815
0.0022155
0.00214364
0.00215164
0.00208403
0.00209254
0.00202878
0.00203771
0.00197744
0.00198671
0.00192963
0.00193918
0.00188501
0.00189479
0.00184328
0.00185326
0.00180418
0.00181431
0.00176748
0.00177774
0.00173296
0.00174333
0.00170045
0.00171091
0.00166977
0.00168029
0.00164076
0.00165134
0.00161329
0.00162391
0.00158721
0.00159786
0.0015624
0.00157308
0.00153875
0.00154943
0.00151613
0.0015268
0.00149445
0.00150505
0.0014736
0.00148405
0.00145347
0.00146363
0.00143379
0.00144345
0.00141394
0.00142286
0.00139304
0.00139973
0.00450124
0.00436302
0.00421096
0.00414481
0.00399392
0.00394037
0.00378507
0.00373493
0.00358033
0.00353505
0.00338162
0.00334093
0.00318449
0.0031414
0.00298738
0.00296488
0.00285811
0.00284318
0.00273503
0.00272548
0.00262463
0.00261981
0.00252579
0.00252438
0.00243617
0.00243723
0.00235428
0.00235726
0.00227913
0.00228367
0.00220997
0.00221578
0.00214611
0.00215298
0.002087
0.00209475
0.00203214
0.00204063
0.00198112
0.00199024
0.00193356
0.00194322
0.00188914
0.00189927
0.00184758
0.00185811
0.00180862
0.0018195
0.00177203
0.00178322
0.00173762
0.00174907
0.00170519
0.00171688
0.00167457
0.00168647
0.00164562
0.00165771
0.00161819
0.00163044
0.00159215
0.00160455
0.00156738
0.00157991
0.00154378
0.0015564
0.00152121
0.00153392
0.00149958
0.00151233
0.00147872
0.00149151
0.00145846
0.00147124
0.00143847
0.00145118
0.00141823
0.00143072
0.00139718
0.00140819
0.00441038
0.00431029
0.0041494
0.0040906
0.00393817
0.0038845
0.00372953
0.00367854
0.00352498
0.0034771
0.0033274
0.00327783
0.00312617
0.0030783
0.00295274
0.00292714
0.00283213
0.00281202
0.00271668
0.0027035
0.00261237
0.00260456
0.0025179
0.00251383
0.00243146
0.00243023
0.00235199
0.00235308
0.00227874
0.00228176
0.00221107
0.00221571
0.00214842
0.00215442
0.00209028
0.00209743
0.00203622
0.00204437
0.00198586
0.00199487
0.00193887
0.00194863
0.00189494
0.00190535
0.0018538
0.00186478
0.00181521
0.0018267
0.00177896
0.0017909
0.00174484
0.00175718
0.00171268
0.00172538
0.00168232
0.00169534
0.0016536
0.00166691
0.0016264
0.00163996
0.00160057
0.00161437
0.00157602
0.00159002
0.00155263
0.00156681
0.00153027
0.0015446
0.00150884
0.00152329
0.00148817
0.00150272
0.00146805
0.00148268
0.00144817
0.00146281
0.00142799
0.00144255
0.00140695
0.00142038
0.0043544
0.00424563
0.00408736
0.00402457
0.00387245
0.00381783
0.00366027
0.00360963
0.00345319
0.0034063
0.00324706
0.00319974
0.00303526
0.00299605
0.00291103
0.00288698
0.00279874
0.00277815
0.00269273
0.00267802
0.00259548
0.00258576
0.00250598
0.00250015
0.0024233
0.00242062
0.00234682
0.00234674
0.00227599
0.0022781
0.00221031
0.00221427
0.00214929
0.00215483
0.00209252
0.00209943
0.00203963
0.00204772
0.00199027
0.0019994
0.00194415
0.00195419
0.00190098
0.00191182
0.00186053
0.00187207
0.00182256
0.00183473
0.00178686
0.00179959
0.00175326
0.00176648
0.00172157
0.00173525
0.00169165
0.00170573
0.00166335
0.00167779
0.00163654
0.0016513
0.0016111
0.00162614
0.00158691
0.0016022
0.00156385
0.00157937
0.00154181
0.00155753
0.00152066
0.00153655
0.00150022
0.00151628
0.00148031
0.00149651
0.00146059
0.00147689
0.00144058
0.00145694
0.00141979
0.00143517
0.00427192
0.00415332
0.00400598
0.00393121
0.00378797
0.00372188
0.00357386
0.00351313
0.00336394
0.00330772
0.00315093
0.00309628
0.00297578
0.00294503
0.00286875
0.00284278
0.00276317
0.00274347
0.00266533
0.00265097
0.00257477
0.00256466
0.00249048
0.00248396
0.00241197
0.00240857
0.00233889
0.00233819
0.00227086
0.00227249
0.00220752
0.00221115
0.00214848
0.00215386
0.00209342
0.00210031
0.002042
0.00205023
0.00199394
0.00200334
0.00194897
0.0019594
0.00190683
0.00191818
0.00186731
0.00187946
0.00183018
0.00184306
0.00179526
0.00180878
0.00176237
0.00177647
0.00173135
0.00174596
0.00170204
0.00171712
0.00167432
0.00168981
0.00164806
0.00166391
0.00162312
0.00163931
0.0015994
0.00161588
0.00157679
0.00159353
0.00155515
0.00157213
0.00153436
0.00155156
0.00151426
0.00153167
0.00149466
0.00151226
0.00147524
0.00149301
0.00145553
0.00147346
0.00143509
0.00145217
0.00415183
0.00405726
0.00388839
0.00383134
0.00366979
0.00361736
0.00345605
0.00340558
0.00324385
0.00319106
0.00303415
0.00299207
0.00292457
0.00289545
0.00282416
0.00279851
0.00272725
0.00270757
0.00263662
0.00262209
0.0025518
0.00254145
0.00247234
0.00246552
0.00239795
0.00239422
0.00232839
0.00232737
0.00226337
0.00226474
0.00220262
0.00220608
0.00214583
0.00215114
0.00209274
0.00209968
0.00204307
0.00205145
0.00199657
0.00200623
0.001953
0.00196379
0.00191213
0.00192393
0.00187377
0.00188646
0.0018377
0.0018512
0.00180376
0.00181798
0.00177178
0.00178663
0.0017416
0.00175703
0.00171308
0.00172902
0.0016861
0.00170249
0.00166051
0.00167731
0.00163622
0.00165338
0.00161309
0.00163058
0.00159103
0.00160881
0.00156991
0.00158796
0.00154959
0.00156789
0.00152994
0.00154848
0.00151075
0.00152952
0.00149175
0.00151074
0.00147246
0.00149168
0.00145247
0.00147095
0.00405557
0.00393119
0.00377876
0.00370093
0.00355471
0.00348767
0.00333922
0.0032756
0.00311871
0.00306083
0.00296862
0.00293566
0.00287406
0.00284417
0.00277964
0.00275566
0.00269034
0.00267166
0.00260614
0.00259188
0.00252666
0.00251625
0.00245177
0.00244478
0.00238138
0.00237745
0.00231533
0.00231412
0.00225341
0.00225462
0.0021954
0.00219876
0.00214106
0.00214633
0.00209016
0.00209714
0.00204247
0.00205097
0.00199776
0.00200762
0.00195582
0.0019669
0.00191645
0.00192862
0.00187946
0.00189259
0.00184467
0.00185867
0.00181191
0.00182668
0.00178102
0.00179648
0.00175186
0.00176794
0.00172429
0.00174092
0.00169819
0.00171531
0.00167344
0.00169099
0.00164991
0.00166786
0.00162751
0.00164581
0.00160612
0.00162473
0.00158563
0.00160452
0.0015659
0.00158506
0.0015468
0.00156622
0.00152814
0.00154782
0.00150964
0.00152959
0.00149087
0.00151111
0.00147141
0.001491
0.00389628
0.00379383
0.00363177
0.00356752
0.00341294
0.00335677
0.00319434
0.00313912
0.00300191
0.00296828
0.00291428
0.00288297
0.00282338
0.00279619
0.00273591
0.00271362
0.00265289
0.00263504
0.00257404
0.00256015
0.00249931
0.00248902
0.00242869
0.00242169
0.00236215
0.00235813
0.00229958
0.00229825
0.0022408
0.00224189
0.00218564
0.00218892
0.00213389
0.00213914
0.00208536
0.00209238
0.00203984
0.00204844
0.00199713
0.00200716
0.00195704
0.00196834
0.00191938
0.00193182
0.00188397
0.00189743
0.00185065
0.00186502
0.00181925
0.00183445
0.00178964
0.00180556
0.00176167
0.00177825
0.00173521
0.00175237
0.00171015
0.00172782
0.00168636
0.00170449
0.00166374
0.00168228
0.00164218
0.00166109
0.00162159
0.00164081
0.00160183
0.00162135
0.0015828
0.0016026
0.00156436
0.00158442
0.00154632
0.00156667
0.00152843
0.00154906
0.00151026
0.00153123
0.00149141
0.00151182
0.00375611
0.00364375
0.00349275
0.00342079
0.00327465
0.0032077
0.00305756
0.00300172
0.00294877
0.00291462
0.00286153
0.00282938
0.00277507
0.00274858
0.00269281
0.00267133
0.0026146
0.0025973
0.00254023
0.00252666
0.0024697
0.00245958
0.00240304
0.00239609
0.00234018
0.00233614
0.00228101
0.00227963
0.00222539
0.00222644
0.00217316
0.00217641
0.00212413
0.00212938
0.00207812
0.00208518
0.00203495
0.00204364
0.00199442
0.00200458
0.00195636
0.00196784
0.00192059
0.00193325
0.00188695
0.00190067
0.00185528
0.00186995
0.00182543
0.00184095
0.00179726
0.00181353
0.00177063
0.00178758
0.00174544
0.00176298
0.00172155
0.00173963
0.00169887
0.00171741
0.00167728
0.00169624
0.00165669
0.00167602
0.001637
0.00165665
0.00161809
0.00163803
0.00159986
0.00162007
0.00158217
0.00160265
0.00156484
0.00158562
0.00154764
0.00156872
0.00153015
0.00155159
0.001512
0.00153295
0.0035905
0.00348936
0.00333886
0.00327269
0.0031189
0.00306171
0.00297658
0.00294234
0.00289268
0.0028592
0.00280772
0.00277838
0.00272638
0.00270152
0.00264877
0.00262806
0.00257473
0.00255786
0.00250432
0.00249104
0.00243765
0.00242771
0.00237469
0.00236785
0.00231536
0.00231139
0.00225956
0.00225822
0.00220712
0.0022082
0.00215788
0.00216118
0.00211168
0.00211699
0.00206833
0.00207547
0.00202765
0.00203645
0.00198947
0.00199976
0.00195361
0.00196525
0.0019199
0.00193275
0.0018882
0.00190213
0.00185834
0.00187323
0.00183018
0.00184595
0.0018036
0.00182014
0.00177847
0.00179569
0.00175467
0.00177249
0.0017321
0.00175044
0.00171064
0.00172945
0.0016902
0.00170942
0.00167068
0.00169026
0.00165199
0.00167189
0.00163403
0.00165421
0.00161668
0.00163713
0.00159982
0.00162054
0.00158329
0.00160429
0.00156684
0.00158816
0.00155011
0.00157181
0.00153274
0.00155398
0.0034397
0.00334134
0.00319347
0.00312548
0.00300569
0.00296875
0.00292406
0.00288779
0.00283798
0.0028055
0.00275541
0.00272762
0.00267738
0.00265374
0.00260325
0.00258335
0.00253278
0.00251646
0.00246602
0.00245312
0.00240297
0.0023933
0.00234357
0.00233694
0.00228771
0.0022839
0.00223525
0.00223406
0.00218602
0.00218724
0.00213986
0.00214329
0.00209658
0.00210203
0.002056
0.00206329
0.00201795
0.0020269
0.00198225
0.0019927
0.00194873
0.00196053
0.00191723
0.00193025
0.0018876
0.00190171
0.00185969
0.00187477
0.00183337
0.00184931
0.00180851
0.00182522
0.00178499
0.00180238
0.0017627
0.00178069
0.00174154
0.00176005
0.00172141
0.00174037
0.00170221
0.00172157
0.00168386
0.00170356
0.00166626
0.00168627
0.00164932
0.00166959
0.00163294
0.00165346
0.00161698
0.00163776
0.00160131
0.00162236
0.0015857
0.00160705
0.00156979
0.00159152
0.00155324
0.00157457
0.00329287
0.00319653
0.00305853
0.00300098
0.00295344
0.00291663
0.00286827
0.00283152
0.0027831
0.00275109
0.00270282
0.00267556
0.00262728
0.00260414
0.00255594
0.00253656
0.00248861
0.00247278
0.00242522
0.00241275
0.00236564
0.00235635
0.00230972
0.00230343
0.00225731
0.0022538
0.00220821
0.00220729
0.00216225
0.00216372
0.00211923
0.0021229
0.00207896
0.00208464
0.00204126
0.00204876
0.00200594
0.0020151
0.00197284
0.00198348
0.00194177
0.00195376
0.00191259
0.00192579
0.00188515
0.00189942
0.0018593
0.00187453
0.00183492
0.001851
0.00181188
0.00182872
0.00179007
0.00180757
0.00176939
0.00178746
0.00174974
0.00176831
0.00173102
0.00175002
0.00171314
0.00173252
0.00169603
0.00171573
0.00167959
0.00169956
0.00166373
0.00168396
0.00164837
0.00166882
0.00163338
0.00165406
0.00161863
0.00163956
0.00160389
0.00162512
0.00158885
0.00161046
0.0015732
0.00159441
0.00315148
0.00306332
0.00298457
0.00294591
0.00289872
0.00286028
0.00280987
0.00277481
0.00272589
0.00269522
0.00264775
0.00262128
0.00257467
0.00255212
0.00250615
0.00248732
0.00244195
0.00242666
0.0023819
0.00236996
0.00232576
0.00231698
0.00227334
0.00226751
0.00222439
0.00222132
0.0021787
0.00217819
0.00213606
0.00213791
0.00209625
0.00210026
0.00205907
0.00206506
0.00202432
0.00203211
0.00199182
0.00200124
0.0019614
0.00197228
0.00193287
0.00194508
0.0019061
0.00191948
0.00188092
0.00189536
0.00185722
0.00187258
0.00183485
0.00185104
0.00181371
0.00183062
0.00179369
0.00181123
0.00177468
0.00179277
0.00175659
0.00177515
0.00173934
0.00175831
0.00172285
0.00174215
0.00170702
0.00172662
0.00169179
0.00171164
0.00167708
0.00169713
0.00166278
0.00168303
0.0016488
0.00166925
0.001635
0.00165569
0.00162119
0.00164215
0.00160706
0.00162837
0.00159232
0.00161326
0.00304059
0.00298434
0.00293337
0.00289404
0.00284022
0.00280137
0.00274952
0.00271495
0.00266628
0.00263638
0.00258999
0.00256432
0.0025194
0.00249764
0.00245383
0.00243576
0.00239288
0.00237833
0.00233626
0.00232502
0.00228364
0.00227553
0.00223475
0.00222956
0.00218932
0.00218684
0.00214709
0.00214712
0.00210781
0.00211016
0.00207126
0.00207572
0.00203722
0.00204361
0.00200548
0.00201363
0.00197585
0.00198559
0.00194815
0.00195932
0.00192222
0.00193466
0.0018979
0.00191148
0.00187505
0.00188964
0.00185354
0.00186902
0.00183324
0.0018495
0.00181404
0.00183099
0.00179585
0.00181338
0.00177855
0.0017966
0.00176207
0.00178055
0.00174633
0.00176518
0.00173125
0.0017504
0.00171675
0.00173615
0.00170277
0.00172238
0.00168921
0.001709
0.00167601
0.00169596
0.00166307
0.00168319
0.00165025
0.00167057
0.00163738
0.00165795
0.00162418
0.00164507
0.00161039
0.00163091
0.00297479
0.00293606
0.00287727
0.00283677
0.0027778
0.00273968
0.00268617
0.00265262
0.00260412
0.0025752
0.00252992
0.00250522
0.00246202
0.00244122
0.00239954
0.00238241
0.00234195
0.0023283
0.00228882
0.00227844
0.00223977
0.00223247
0.00219446
0.00219002
0.00215257
0.00215079
0.00211381
0.00211449
0.00207792
0.00208085
0.00204465
0.00204964
0.00201376
0.00202063
0.00198504
0.00199361
0.00195831
0.0019684
0.00193337
0.00194483
0.00191005
0.00192274
0.00188821
0.00190199
0.0018677
0.00188244
0.0018484
0.00186398
0.00183019
0.0018465
0.00181295
0.00182989
0.0017966
0.00181408
0.00178104
0.00179898
0.00176619
0.00178452
0.00175197
0.00177062
0.00173831
0.00175723
0.00172516
0.00174428
0.00171243
0.00173172
0.00170005
0.00171949
0.00168796
0.00170752
0.00167606
0.00169575
0.00166424
0.00168409
0.00165233
0.00167239
0.00164007
0.00166042
0.00162723
0.00164721
0.00292121
0.00287612
0.00281744
0.00277303
0.00271394
0.00267474
0.0026216
0.00258826
0.00254067
0.00251244
0.00246859
0.00244475
0.00240342
0.00238355
0.00234406
0.00232789
0.00228984
0.00227713
0.00224021
0.00223075
0.00219472
0.00218829
0.00215298
0.00214936
0.00211462
0.0021136
0.00207932
0.0020807
0.0020468
0.00205037
0.00201679
0.00202236
0.00198905
0.00199642
0.00196335
0.00197236
0.00193949
0.00194996
0.0019173
0.00192907
0.00189659
0.00190952
0.00187722
0.00189118
0.00185905
0.0018739
0.00184195
0.00185759
0.00182581
0.00184213
0.00181054
0.00182743
0.00179602
0.0018134
0.00178219
0.00179998
0.00176896
0.00178709
0.00175626
0.00177466
0.00174403
0.00176264
0.00173221
0.00175099
0.00172073
0.00173963
0.00170953
0.00172853
0.00169854
0.00171763
0.00168769
0.00170687
0.00167686
0.00169616
0.0016659
0.00168538
0.00165459
0.00167432
0.00164271
0.00166205
0.00285594
0.00280758
0.00275167
0.00270431
0.00264756
0.00260683
0.00255582
0.00252197
0.00247644
0.00244832
0.00240662
0.00238325
0.00234421
0.00232503
0.00228797
0.0022726
0.00223708
0.00222523
0.00219093
0.00218233
0.00214897
0.00214338
0.00211075
0.00210795
0.00207588
0.00207563
0.00204401
0.0020461
0.00201482
0.00201904
0.00198804
0.00199418
0.0019634
0.00197128
0.00194068
0.00195012
0.00191967
0.0019305
0.00190018
0.00191225
0.00188204
0.0018952
0.00186511
0.00187922
0.00184924
0.00186419
0.00183432
0.00184998
0.00182024
0.00183651
0.00180689
0.00182368
0.00179418
0.00181141
0.00178205
0.00179963
0.00177042
0.00178829
0.00175922
0.00177731
0.00174839
0.00176665
0.00173789
0.00175626
0.00172764
0.0017461
0.00171761
0.00173611
0.00170771
0.00172626
0.00169788
0.00171649
0.00168804
0.00170672
0.00167803
0.00169684
0.00166765
0.00168666
0.0016567
0.00167532
0.0027829
0.00273242
0.00268047
0.00263102
0.00257791
0.00253584
0.00248811
0.00245355
0.00241103
0.00238271
0.00234387
0.00232068
0.00228445
0.0022657
0.00223142
0.00221666
0.00218392
0.00217277
0.00214123
0.00213339
0.00210278
0.00209796
0.00206806
0.002066
0.00203664
0.00203711
0.00200815
0.0020109
0.00198224
0.00198707
0.00195863
0.00196532
0.00193705
0.0019454
0.00191725
0.00192709
0.00189903
0.00191019
0.00188219
0.00189452
0.00186658
0.00187992
0.00185203
0.00186626
0.00183842
0.00185341
0.00182563
0.00184127
0.00181355
0.00182974
0.00180208
0.00181873
0.00179115
0.00180817
0.00178069
0.001798
0.00177061
0.00178816
0.00176088
0.00177859
0.00175142
0.00176926
0.0017422
0.00176011
0.00173316
0.0017511
0.00172426
0.00174221
0.00171543
0.00173338
0.00170661
0.00172457
0.00169772
0.00171572
0.00168863
0.00170672
0.00167917
0.00169741
0.00166914
0.00168697
0.00270381
0.0026519
0.00260449
0.00255357
0.00250484
0.00246174
0.00241803
0.00238284
0.00234401
0.00231541
0.00228003
0.00225687
0.00222391
0.00220544
0.00217432
0.00216
0.00213032
0.00211973
0.00209117
0.00208396
0.00205625
0.00205209
0.00202502
0.00202363
0.00199703
0.00199814
0.00197188
0.00197524
0.00194922
0.00195459
0.00192873
0.0019359
0.00191014
0.00191892
0.00189321
0.0019034
0.00187772
0.00188916
0.00186348
0.00187601
0.00185032
0.0018638
0.0018381
0.00185239
0.00182669
0.00184167
0.00181596
0.00183153
0.00180583
0.00182188
0.0017962
0.00181264
0.00178699
0.00180374
0.00177813
0.00179513
0.00176957
0.00178674
0.00176125
0.00177854
0.00175312
0.00177048
0.00174515
0.00176253
0.00173728
0.00175465
0.00172947
0.00174681
0.00172167
0.00173897
0.00171382
0.0017311
0.00170586
0.00172314
0.00169768
0.00171499
0.0016891
0.00170651
0.00167996
0.00169694
0.00261987
0.00256698
0.00252439
0.00247245
0.00242852
0.00238469
0.00234547
0.0023098
0.00227514
0.00224631
0.00221482
0.00219167
0.00216238
0.00214412
0.00211648
0.00210252
0.00207616
0.00206605
0.00204067
0.002034
0.00200935
0.00200576
0.00198165
0.00198084
0.0019571
0.00195876
0.00193528
0.00193916
0.00191582
0.00192167
0.00189841
0.001906
0.00188277
0.0018919
0.00186864
0.00187912
0.00185582
0.00186747
0.00184411
0.00185678
0.00183335
0.00184689
0.00182339
0.00183767
0.0018141
0.00182901
0.00180538
0.0018208
0.00179713
0.00181297
0.00178926
0.00180544
0.00178171
0.00179814
0.00177441
0.00179103
0.00176731
0.00178405
0.00176035
0.00177717
0.00175351
0.00177034
0.00174673
0.00176354
0.00173998
0.00175674
0.00173322
0.00174991
0.00172642
0.00174303
0.00171951
0.00173605
0.00171244
0.00172895
0.00170512
0.00172162
0.00169739
0.00171394
0.00168912
0.0017052
0.00253196
0.00247841
0.00244077
0.00238815
0.00234926
0.00230496
0.00227052
0.00223456
0.00220437
0.00217542
0.00214814
0.00212504
0.00209972
0.00208165
0.00205777
0.00204414
0.00202134
0.00201163
0.00198964
0.00198343
0.00196201
0.00195893
0.0019379
0.00193759
0.00191681
0.00191896
0.00189832
0.00190264
0.00188205
0.0018883
0.00186769
0.00187562
0.00185495
0.00186435
0.00184358
0.00185426
0.00183336
0.00184515
0.00182412
0.00183686
0.00181568
0.00182922
0.00180791
0.00182212
0.00180069
0.00181545
0.0017939
0.00180912
0.00178747
0.00180305
0.0017813
0.00179716
0.00177535
0.0017914
0.00176954
0.00178573
0.00176384
0.0017801
0.0017582
0.00177448
0.00175257
0.00176883
0.00174694
0.00176314
0.00174127
0.00175738
0.00173552
0.00175152
0.00172966
0.00174555
0.00172366
0.00173943
0.00171745
0.00173314
0.00171095
0.0017266
0.00170404
0.00171968
0.00169659
0.00171174
0.00244076
0.0023868
0.00235414
0.00230113
0.0022674
0.00222286
0.00219339
0.00215729
0.0021318
0.00210284
0.00207999
0.002057
0.00203588
0.00201804
0.00199812
0.00198481
0.00196576
0.00195644
0.001938
0.00193222
0.00191417
0.00191153
0.00189372
0.00189384
0.00187613
0.00187869
0.00186098
0.00186568
0.00184789
0.00185446
0.00183655
0.00184475
0.00182667
0.00183628
0.00181801
0.00182883
0.00181035
0.00182221
0.00180351
0.00181624
0.00179733
0.0018108
0.00179169
0.00180576
0.00178645
0.00180102
0.00178154
0.00179649
0.00177685
0.00179211
0.00177233
0.0017878
0.0017679
0.00178352
0.00176353
0.00177923
0.00175917
0.0017749
0.00175478
0.00177048
0.00175032
0.00176597
0.00174579
0.00176133
0.00174114
0.00175656
0.00173635
0.00175163
0.0017314
0.00174653
0.00172625
0.00174123
0.00172085
0.00173572
0.00171515
0.00172992
0.00170902
0.00172373
0.00170236
0.00171655
0.00234682
0.00229266
0.00226498
0.00221181
0.00218328
0.00213872
0.0021143
0.00207824
0.00205756
0.00202871
0.00201045
0.00198766
0.00197089
0.00195333
0.00193753
0.00192456
0.00190941
0.00190048
0.00188572
0.00188035
0.00186579
0.00186356
0.00184905
0.00184957
0.001835
0.00183792
0.00182321
0.00182822
0.00181331
0.00182014
0.00180497
0.00181336
0.00179792
0.00180766
0.00179191
0.0018028
0.00178675
0.00179861
0.00178226
0.00179492
0.00177829
0.00179161
0.0017747
0.00178857
0.00177139
0.00178569
0.00176828
0.00178291
0.00176528
0.00178015
0.00176232
0.00177736
0.00175937
0.0017745
0.00175637
0.00177154
0.00175328
0.00176844
0.00175009
0.00176518
0.00174675
0.00176174
0.00174326
0.00175812
0.00173959
0.00175428
0.00173572
0.00175024
0.00173163
0.00174597
0.00172729
0.00174145
0.00172267
0.00173668
0.00171771
0.00173159
0.00171232
0.00172609
0.00170641
0.00171962
0.0022506
0.00219642
0.00217368
0.00212055
0.00209725
0.00205283
0.00203351
0.00199764
0.00198186
0.00195324
0.00193965
0.00191715
0.00190484
0.00188762
0.00187605
0.00186346
0.00185231
0.00184378
0.0018328
0.00182784
0.00181686
0.00181501
0.00180389
0.00180476
0.00179341
0.00179665
0.00178499
0.00179027
0.00177826
0.00178529
0.0017729
0.00178144
0.00176865
0.00177846
0.00176526
0.00177615
0.00176255
0.00177434
0.00176035
0.00177287
0.00175851
0.00177164
0.00175692
0.00177052
0.00175548
0.00176945
0.0017541
0.00176835
0.00175272
0.00176715
0.00175128
0.00176583
0.00174973
0.00176433
0.00174804
0.00176264
0.00174618
0.00176072
0.00174413
0.00175856
0.00174186
0.00175616
0.00173936
0.00175349
0.00173661
0.00175056
0.00173361
0.00174736
0.00173034
0.00174387
0.00172677
0.0017401
0.00172289
0.00173603
0.00171864
0.00173161
0.00171396
0.00172676
0.00170875
0.00172097
0.0021525
0.00209847
0.00208061
0.00202771
0.00200961
0.0019655
0.0019513
0.00191574
0.00190489
0.00187663
0.00186777
0.00184565
0.00183785
0.00182104
0.00181377
0.0018016
0.00179452
0.00178642
0.00177929
0.00177473
0.00176739
0.00176592
0.00175825
0.00175945
0.00175136
0.00175487
0.00174631
0.0017518
0.00174274
0.00174992
0.00174034
0.00174895
0.00173884
0.00174866
0.00173803
0.00174885
0.00173772
0.00174937
0.00173775
0.00175007
0.00173799
0.00175085
0.00173834
0.00175161
0.00173869
0.00175228
0.00173899
0.0017528
0.00173917
0.00175311
0.00173918
0.00175319
0.00173898
0.001753
0.00173855
0.00175252
0.00173786
0.00175174
0.00173689
0.00175064
0.00173563
0.00174921
0.00173408
0.00174747
0.00173222
0.00174539
0.00173004
0.00174299
0.00172755
0.00174026
0.00172471
0.00173719
0.00172153
0.00173378
0.00171795
0.00173
0.00171393
0.00172577
0.0017094
0.00172061
0.00205289
0.00199916
0.00198611
0.00193359
0.00192065
0.001877
0.0018679
0.0018328
0.00182689
0.00179908
0.00179497
0.00177333
0.00177007
0.00175375
0.0017508
0.00173912
0.00173614
0.00172849
0.00172524
0.00172111
0.00171744
0.00171634
0.00171214
0.00171366
0.00170886
0.00171262
0.00170718
0.00171284
0.00170674
0.00171403
0.00170726
0.0017159
0.00170849
0.00171825
0.0017102
0.0017209
0.00171223
0.00172369
0.00171444
0.0017265
0.0017167
0.00172924
0.00171892
0.00173181
0.00172101
0.00173416
0.00172292
0.00173624
0.0017246
0.00173801
0.001726
0.00173944
0.0017271
0.0017405
0.00172787
0.00174119
0.00172829
0.00174149
0.00172836
0.0017414
0.00172808
0.00174091
0.00172742
0.00174004
0.00172641
0.00173879
0.00172502
0.00173715
0.00172326
0.00173513
0.00172112
0.00173274
0.00171859
0.00172996
0.00171566
0.00172678
0.00171227
0.00172313
0.00170837
0.00171858
0.0019521
0.0018988
0.00189047
0.0018385
0.00183066
0.00178761
0.00178357
0.00174906
0.00174806
0.00172083
0.00172146
0.00170039
0.00170168
0.00168591
0.0016873
0.00167615
0.00167728
0.00167012
0.00167077
0.00166707
0.00166708
0.00166636
0.00166564
0.00166746
0.00166595
0.00166993
0.00166761
0.00167343
0.00167029
0.00167763
0.00167368
0.00168231
0.00167757
0.00168725
0.00168176
0.00169229
0.00168607
0.00169729
0.00169039
0.00170215
0.00169461
0.00170678
0.00169864
0.00171111
0.00170242
0.00171508
0.00170588
0.00171867
0.001709
0.00172183
0.00171173
0.00172455
0.00171407
0.00172682
0.00171599
0.00172863
0.00171749
0.00172997
0.00171855
0.00173084
0.00171919
0.00173126
0.0017194
0.00173123
0.00171918
0.00173076
0.00171854
0.00172985
0.00171748
0.00172851
0.00171601
0.00172676
0.00171411
0.00172459
0.00171179
0.00172198
0.001709
0.00171887
0.0017057
0.00171489
0.00185042
0.00179767
0.00179398
0.0017427
0.00173988
0.00169758
0.00169854
0.00166476
0.00166863
0.00164209
0.00164743
0.00162703
0.00163284
0.00161771
0.00162341
0.00161285
0.00161807
0.00161145
0.00161597
0.00161274
0.00161641
0.00161607
0.00161881
0.00162093
0.00162269
0.00162688
0.00162766
0.00163359
0.00163339
0.00164077
0.00163962
0.00164819
0.00164612
0.00165566
0.00165271
0.00166303
0.00165925
0.00167018
0.00166562
0.00167702
0.00167173
0.00168348
0.0016775
0.0016895
0.00168289
0.00169504
0.00168785
0.00170007
0.00169235
0.00170458
0.00169637
0.00170854
0.00169989
0.00171196
0.00170292
0.00171484
0.00170544
0.00171718
0.00170745
0.00171898
0.00170898
0.00172027
0.00171001
0.00172104
0.00171056
0.00172132
0.00171064
0.00172111
0.00171025
0.00172043
0.00170941
0.00171929
0.00170811
0.00171769
0.00170636
0.00171562
0.00170414
0.00171304
0.00170142
0.00170959
0.00174814
0.00169605
0.00169689
0.00164644
0.00164858
0.00160716
0.00161306
0.00158012
0.00158881
0.00156308
0.00157308
0.00155344
0.00156374
0.00154932
0.0015593
0.00154939
0.00155867
0.00155262
0.00156098
0.00155823
0.00156553
0.00156558
0.00157174
0.00157415
0.00157915
0.00158354
0.00158738
0.00159341
0.00159612
0.00160349
0.0016051
0.00161358
0.00161414
0.00162351
0.00162307
0.00163313
0.00163176
0.00164236
0.00164011
0.00165112
0.00164804
0.00165934
0.00165549
0.00166698
0.00166243
0.00167402
0.00166882
0.00168044
0.00167465
0.00168623
0.0016799
0.00169139
0.00168456
0.00169592
0.00168864
0.00169983
0.00169214
0.00170312
0.00169507
0.00170582
0.00169744
0.00170794
0.00169926
0.00170948
0.00170055
0.00171048
0.00170132
0.00171095
0.00170157
0.0017109
0.00170133
0.00171034
0.00170061
0.00170929
0.00169942
0.00170774
0.00169774
0.00170566
0.00169556
0.00170272
0.00164549
0.00159418
0.00159946
0.00154996
0.00155697
0.00151656
0.00152734
0.00149537
0.00150882
0.00148401
0.00149862
0.00147984
0.00149456
0.00148095
0.00149514
0.00148594
0.00149922
0.00149379
0.00150593
0.00150369
0.00151456
0.00151501
0.00152454
0.00152724
0.00153542
0.00153999
0.00154684
0.00155295
0.00155851
0.00156586
0.00157018
0.00157854
0.00158168
0.00159084
0.00159287
0.00160264
0.00160362
0.00161387
0.00161387
0.00162445
0.00162355
0.00163436
0.00163262
0.00164356
0.00164104
0.00165204
0.0016488
0.00165979
0.00165589
0.00166681
0.00166231
0.00167311
0.00166806
0.00167869
0.00167315
0.00168359
0.00167759
0.00168781
0.0016814
0.00169136
0.00168459
0.00169428
0.00168717
0.00169657
0.00168917
0.00169827
0.0016906
0.00169939
0.00169148
0.00169994
0.00169183
0.00169996
0.00169166
0.00169944
0.00169099
0.00169839
0.00168983
0.00169677
0.00168817
0.00169431
0.00154272
0.00149228
0.0015019
0.00145349
0.00146528
0.00142602
0.0014416
0.00141073
0.00142887
0.00140509
0.00142424
0.00140644
0.00142551
0.00141278
0.00143111
0.00142269
0.0014399
0.00143513
0.00145097
0.00144927
0.00146362
0.0014645
0.00147731
0.00148031
0.0014916
0.00149634
0.00150613
0.0015123
0.00152063
0.00152794
0.00153491
0.00154312
0.00154878
0.0015577
0.00156213
0.00157159
0.00157488
0.00158472
0.00158694
0.00159706
0.00159829
0.00160857
0.00160888
0.00161925
0.00161872
0.00162909
0.00162778
0.0016381
0.00163607
0.00164629
0.00164361
0.00165368
0.0016504
0.00166028
0.00165645
0.00166612
0.0016618
0.00167122
0.00166644
0.0016756
0.00167042
0.00167929
0.00167374
0.00168231
0.00167642
0.00168469
0.0016785
0.00168644
0.00167998
0.00168759
0.0016809
0.00168816
0.00168127
0.00168816
0.00168113
0.00168759
0.00168047
0.00168643
0.00167931
0.00168444
0.00144005
0.00139058
0.00140443
0.00135724
0.00137372
0.00133575
0.00135605
0.00132641
0.00134917
0.00132656
0.00135017
0.00133344
0.00135678
0.00134501
0.00136741
0.00135983
0.00138086
0.0013768
0.00139625
0.00139513
0.00141287
0.00141418
0.00143019
0.00143349
0.00144778
0.0014527
0.00146533
0.00147154
0.00148258
0.00148982
0.00149935
0.00150739
0.0015155
0.00152415
0.00153092
0.00154003
0.00154555
0.00155497
0.00155934
0.00156897
0.00157227
0.001582
0.00158431
0.00159407
0.00159547
0.0016052
0.00160576
0.0016154
0.00161519
0.00162469
0.00162378
0.0016331
0.00163155
0.00164067
0.00163853
0.0016474
0.00164473
0.00165335
0.00165019
0.00165853
0.00165492
0.00166297
0.00165895
0.0016667
0.00166231
0.00166974
0.00166502
0.00167211
0.0016671
0.00167385
0.00166858
0.00167496
0.00166948
0.00167546
0.00166984
0.00167537
0.00166968
0.00167466
0.001669
0.00167313
0.00133767
0.00128927
0.00130725
0.00126141
0.00128251
0.00124596
0.0012709
0.00124264
0.00126994
0.00124862
0.00127661
0.00126106
0.00128858
0.00127787
0.00130421
0.00129755
0.0013223
0.001319
0.00134193
0.00134142
0.00136244
0.0013642
0.00138329
0.0013869
0.00140409
0.00140917
0.00142454
0.0014308
0.00144443
0.00145159
0.00146359
0.00147144
0.0014819
0.00149027