/*--------------------------------*- C++ -*----------------------------------*\
| =========                 |                                                 |
| \\      /  F ield         | OpenFOAM: The Open Source CFD Toolbox           |
|  \\    /   O peration     | Version:  v2012                                 |
|   \\  /    A nd           | Website:  www.openfoam.com                      |
|    \\/     M anipulation  |                                                 |
\*---------------------------------------------------------------------------*/
FoamFile
{
    version     2.0;
    format      ascii;
    class       volSymmTensorField;
    location    "6";
    object      sigma;
}
// * * * * * * * * * * * * * * * * * * * * * * * * * * * * * * * * * * * * * //

dimensions      [1 -1 -2 0 0 0 0];


internalField   nonuniform List<symmTensor> 
32000
(
(2.78457e+08 -3.85122e+06 -1.15357e-07 748180 7.33985e-09 1.05504e+08)
(2.79802e+08 -2.41844e+06 -2.17529e-07 2.86043e+06 3.22538e-08 1.02487e+08)
(2.81284e+08 -3.26483e+06 0 4.5411e+06 0 1.03199e+08)
(2.82378e+08 -2.69393e+06 7.50842e-08 6.07958e+06 4.8857e-08 1.0214e+08)
(2.84123e+08 -3.1816e+06 3.40962e-07 8.07817e+06 -3.36305e-08 1.02882e+08)
(2.85103e+08 -2.54054e+06 2.49798e-07 9.46974e+06 -1.81264e-08 1.02016e+08)
(2.86648e+08 -3.24408e+06 2.90475e-07 1.13335e+07 5.46535e-08 1.0242e+08)
(2.87629e+08 -2.25598e+06 1.36249e-07 1.28452e+07 -3.82715e-08 1.01204e+08)
(2.88914e+08 -3.38633e+06 0 1.44336e+07 0 1.01572e+08)
(2.89939e+08 -1.95611e+06 -7.87794e-09 1.61387e+07 2.90084e-08 1.00007e+08)
(2.90991e+08 -3.57857e+06 2.18056e-07 1.74353e+07 8.47778e-09 1.00489e+08)
(2.92074e+08 -1.68996e+06 5.12798e-08 1.93583e+07 -4.46446e-08 9.86174e+07)
(2.92907e+08 -3.78259e+06 1.37458e-07 2.03989e+07 -3.09786e-08 9.91148e+07)
(2.93982e+08 -1.46991e+06 1.29638e-07 2.25781e+07 2.19889e-08 9.66555e+07)
(2.94196e+08 -3.87657e+06 1.72014e-07 2.30746e+07 7.42726e-08 9.63968e+07)
(2.94219e+08 -813232 -1.69766e-07 2.48299e+07 -7.00572e-08 9.35138e+07)
(2.86117e+08 -3.96496e+06 -5.67458e-07 2.68699e+07 1.10617e-08 9.52206e+07)
(2.85346e+08 -309428 -4.89015e-07 2.69747e+07 1.57625e-08 9.26387e+07)
(2.76183e+08 -3.33479e+06 -2.8624e-07 2.9126e+07 -3.84156e-08 9.29369e+07)
(2.75542e+08 39145.9 -2.09302e-07 2.88179e+07 -9.19669e-09 9.03237e+07)
(2.66937e+08 -2.89564e+06 -7.58423e-08 3.08027e+07 -2.8917e-08 9.03481e+07)
(2.66489e+08 308650 -7.47759e-08 3.03197e+07 -2.87734e-08 8.80581e+07)
(2.58671e+08 -2.58616e+06 -1.91767e-07 3.20772e+07 -6.7924e-09 8.8075e+07)
(2.58319e+08 522692 -1.21231e-07 3.15215e+07 1.78697e-08 8.60431e+07)
(2.51136e+08 -2.32606e+06 0 3.30438e+07 0 8.6032e+07)
(2.50821e+08 702706 -1.40874e-07 3.24577e+07 -3.40507e-08 8.41617e+07)
(2.44148e+08 -2.09199e+06 -2.88923e-07 3.37663e+07 1.07498e-08 8.41053e+07)
(2.43861e+08 856857 -2.24405e-07 3.3161e+07 1.39767e-08 8.23561e+07)
(2.37627e+08 -1.88324e+06 -6.64728e-08 3.42872e+07 -2.26487e-08 8.22606e+07)
(2.37369e+08 988118 0 3.36655e+07 0 8.06191e+07)
(2.31526e+08 -1.69902e+06 1.02967e-07 3.46366e+07 -1.50962e-08 8.04927e+07)
(2.31296e+08 1.09969e+06 2.33263e-07 3.40012e+07 4.56933e-08 7.89499e+07)
(2.25804e+08 -1.53601e+06 2.88091e-07 3.48383e+07 4.72171e-08 7.87979e+07)
(2.25597e+08 1.19512e+06 3.82619e-08 3.41927e+07 -4.70392e-08 7.73445e+07)
(2.2042e+08 -1.39065e+06 -1.2228e-07 3.49123e+07 -3.90421e-08 7.71704e+07)
(2.20233e+08 1.27747e+06 1.71378e-09 3.42598e+07 1.34146e-08 7.57976e+07)
(2.1534e+08 -1.2601e+06 5.95934e-08 3.48754e+07 1.86764e-08 7.56043e+07)
(2.15171e+08 1.34913e+06 0 3.42187e+07 0 7.43045e+07)
(2.10536e+08 -1.14219e+06 -9.11039e-08 3.47418e+07 1.18591e-08 7.40948e+07)
(2.10382e+08 1.41194e+06 -1.47609e-07 3.40831e+07 3.62354e-09 7.28612e+07)
(2.05982e+08 -1.03521e+06 8.85609e-08 3.45234e+07 -1.12398e-08 7.26374e+07)
(2.05841e+08 1.46735e+06 9.0029e-08 3.38644e+07 -9.25048e-09 7.14643e+07)
(2.01655e+08 -937749 -8.61571e-08 3.42305e+07 1.06791e-08 7.12282e+07)
(2.01526e+08 1.51651e+06 -1.97457e-07 3.35726e+07 -2.5989e-08 7.01103e+07)
(1.97536e+08 -848657 -2.76294e-07 3.38718e+07 -1.16885e-08 6.98637e+07)
(1.97418e+08 1.56036e+06 -2.77921e-07 3.3216e+07 -1.71377e-08 6.87963e+07)
(1.93607e+08 -766975 -1.87942e-07 3.34546e+07 -2.12762e-08 6.85407e+07)
(1.93499e+08 1.59966e+06 -8.29737e-08 3.2802e+07 7.80445e-09 6.75197e+07)
(1.89854e+08 -691906 0 3.29858e+07 0 6.72563e+07)
(1.89753e+08 1.63505e+06 4.32278e-09 3.23369e+07 1.05687e-08 6.62779e+07)
(1.86261e+08 -622781 2.06395e-07 3.24708e+07 -3.22586e-09 6.60077e+07)
(1.86168e+08 1.66705e+06 1.57699e-07 3.18266e+07 -1.40978e-08 6.50687e+07)
(1.82816e+08 -559038 -7.58495e-08 3.19149e+07 8.55168e-09 6.47927e+07)
(1.8273e+08 1.69612e+06 -1.71178e-07 3.12757e+07 -1.3343e-08 6.38899e+07)
(1.79507e+08 -500208 -1.97161e-07 3.13224e+07 2.64407e-09 6.36088e+07)
(1.79427e+08 1.72264e+06 -6.31808e-08 3.06888e+07 2.26113e-08 6.27394e+07)
(1.76324e+08 -445899 1.44734e-07 3.06974e+07 -1.58706e-08 6.24541e+07)
(1.7625e+08 1.74695e+06 1.09651e-07 3.00698e+07 -7.45113e-09 6.16155e+07)
(1.73257e+08 -395780 4.72391e-08 3.00434e+07 1.31743e-08 6.13265e+07)
(1.73188e+08 1.76939e+06 5.53886e-09 2.94221e+07 9.42072e-09 6.05164e+07)
(1.70296e+08 -349557 1.15572e-07 2.93635e+07 5.47699e-09 6.0224e+07)
(1.70231e+08 1.79032e+06 2.40419e-08 2.87488e+07 -1.9474e-08 5.94405e+07)
(1.67433e+08 -306969 -1.80927e-07 2.86606e+07 1.73697e-09 5.91448e+07)
(1.67372e+08 1.81013e+06 -1.48925e-07 2.80527e+07 -7.28024e-09 5.83862e+07)
(1.64659e+08 -267827 -1.55855e-07 2.79376e+07 -1.78124e-08 5.80868e+07)
(1.64601e+08 1.82915e+06 -2.25783e-08 2.7336e+07 1.85778e-08 5.73519e+07)
(1.61964e+08 -232225 1.73703e-07 2.71971e+07 -1.36972e-09 5.70483e+07)
(1.61909e+08 1.84746e+06 6.2531e-08 2.66012e+07 -9.93967e-09 5.63356e+07)
(1.59338e+08 -201011 1.06803e-07 2.64421e+07 5.38546e-09 5.60279e+07)
(1.59287e+08 1.86443e+06 7.70527e-08 2.58509e+07 1.24837e-08 5.53343e+07)
(1.56768e+08 -176552 1.47414e-07 2.56749e+07 1.71545e-08 5.50254e+07)
(1.56727e+08 1.87853e+06 1.76817e-07 2.50899e+07 1.64052e-08 5.43438e+07)
(1.54241e+08 -163390 2.24452e-07 2.48971e+07 -7.10142e-09 5.40413e+07)
(1.54215e+08 1.88865e+06 2.74811e-07 2.43254e+07 1.99894e-08 5.3357e+07)
(1.51741e+08 -167551 1.23815e-07 2.41071e+07 3.42826e-08 5.3072e+07)
(1.51723e+08 1.89953e+06 -6.79903e-09 2.35657e+07 -8.33146e-09 5.23604e+07)
(1.49239e+08 -192655 -4.05828e-08 2.32983e+07 -1.1233e-08 5.20963e+07)
(1.49191e+08 1.93229e+06 3.3411e-08 2.28127e+07 3.95356e-09 5.13346e+07)
(1.46688e+08 -234090 -5.70627e-08 2.24589e+07 5.98424e-09 5.10787e+07)
(1.46464e+08 2.0594e+06 -7.35251e-08 2.20342e+07 -3.37914e-09 5.03995e+07)
(2.77936e+08 -8.16678e+06 3.98418e-08 875007 -1.76734e-08 1.03674e+08)
(2.7923e+08 -8.07017e+06 1.29747e-07 2.92478e+06 -4.56138e-08 1.01139e+08)
(2.80589e+08 -8.30456e+06 1.2871e-07 4.36348e+06 -4.40327e-08 1.02266e+08)
(2.81948e+08 -7.89963e+06 2.01523e-07 6.24343e+06 3.99406e-08 1.0106e+08)
(2.83305e+08 -8.3446e+06 1.15143e-07 7.62895e+06 2.82206e-08 1.02546e+08)
(2.84619e+08 -7.73318e+06 1.31751e-07 9.53164e+06 -3.91287e-08 1.01087e+08)
(2.85837e+08 -8.39271e+06 -1.29891e-07 1.08684e+07 3.70251e-08 1.02179e+08)
(2.87093e+08 -7.50853e+06 -1.32968e-07 1.2789e+07 3.56018e-08 1.00464e+08)
(2.8819e+08 -8.45669e+06 4.24659e-08 1.40807e+07 -4.84403e-08 1.01309e+08)
(2.89394e+08 -7.24675e+06 1.29533e-07 1.59848e+07 -3.33667e-09 9.95192e+07)
(2.9041e+08 -8.55481e+06 2.61685e-07 1.72739e+07 -3.12408e-08 1.00205e+08)
(2.91576e+08 -7.00568e+06 3.53969e-07 1.91462e+07 1.19887e-08 9.84569e+07)
(2.92497e+08 -8.65627e+06 1.30406e-07 2.04811e+07 2.81627e-08 9.87835e+07)
(2.93544e+08 -6.84007e+06 2.25893e-07 2.24159e+07 1.49465e-08 9.65335e+07)
(2.93692e+08 -8.64748e+06 9.11538e-08 2.34765e+07 3.87804e-08 9.55721e+07)
(2.92705e+08 -5.70143e+06 9.09441e-08 2.44764e+07 1.45511e-08 9.37598e+07)
(2.85092e+08 -7.64939e+06 8.69441e-08 2.70332e+07 1.25677e-08 9.45909e+07)
(2.83721e+08 -4.40293e+06 0 2.65616e+07 0 9.25587e+07)
(2.75478e+08 -6.34664e+06 0 2.92222e+07 0 9.22423e+07)
(2.7419e+08 -3.2485e+06 5.49641e-10 2.84329e+07 -2.05283e-08 9.02501e+07)
(2.66463e+08 -5.27205e+06 -3.20849e-07 3.08743e+07 1.31313e-09 8.97986e+07)
(2.65443e+08 -2.30087e+06 -2.44915e-07 2.99402e+07 -9.91059e-09 8.80452e+07)
(2.58316e+08 -4.42091e+06 -1.52876e-07 3.21607e+07 -5.93743e-08 8.76133e+07)
(2.57484e+08 -1.53682e+06 7.53199e-08 3.11315e+07 3.02847e-08 8.60582e+07)
(2.5085e+08 -3.71072e+06 1.13918e-07 3.31474e+07 4.73611e-09 8.56026e+07)
(2.50131e+08 -904110 1.13804e-07 3.20584e+07 -1.1036e-08 8.41896e+07)
(2.43919e+08 -3.09845e+06 -3.94053e-08 3.38876e+07 2.15869e-08 8.36929e+07)
(2.43284e+08 -367557 -1.11395e-07 3.27611e+07 -6.46292e-09 8.23967e+07)
(2.37449e+08 -2.56557e+06 1.41135e-07 3.44242e+07 -4.67463e-08 8.1865e+07)
(2.36885e+08 93162.4 2.16435e-07 3.32728e+07 1.36128e-08 8.06733e+07)
(2.31391e+08 -2.09947e+06 1.71253e-07 3.47895e+07 2.98449e-08 8.01141e+07)
(2.30889e+08 492060 4.16359e-08 3.36206e+07 -3.43375e-09 7.90169e+07)
(2.25703e+08 -1.68911e+06 1.26373e-07 3.50081e+07 3.18465e-08 7.84348e+07)
(2.25254e+08 840174 -6.13127e-08 3.3827e+07 -1.0183e-08 7.7423e+07)
(2.20346e+08 -1.32523e+06 -1.55143e-07 3.50997e+07 -3.95536e-10 7.6821e+07)
(2.19944e+08 1.14631e+06 -4.06787e-08 3.39106e+07 2.31588e-09 7.58866e+07)
(2.15289e+08 -1.00045e+06 -1.54219e-07 3.50807e+07 -1.42012e-08 7.52672e+07)
(2.14927e+08 1.41742e+06 -3.33074e-08 3.38869e+07 2.78854e-08 7.44032e+07)
(2.10503e+08 -708877 1.8487e-07 3.4965e+07 -2.952e-10 7.37688e+07)
(2.10176e+08 1.65899e+06 1.82552e-07 3.37691e+07 -9.3722e-09 7.29689e+07)
(2.05964e+08 -445781 0 3.47642e+07 0 7.23215e+07)
(2.05668e+08 1.87541e+06 5.762e-08 3.35684e+07 2.11832e-08 7.15803e+07)
(2.0165e+08 -207328 1.42393e-07 3.44885e+07 1.38391e-08 7.09215e+07)
(2.01382e+08 2.0702e+06 9.07632e-08 3.32944e+07 8.1208e-09 7.02341e+07)
(1.97542e+08 9625.37 5.54811e-08 3.41465e+07 1.87375e-08 6.95655e+07)
(1.97298e+08 2.24624e+06 -4.64136e-09 3.29555e+07 -1.14316e-08 6.89275e+07)
(1.93623e+08 207672 2.70568e-08 3.37458e+07 -2.27966e-08 6.82504e+07)
(1.93401e+08 2.40591e+06 9.17824e-08 3.2559e+07 1.94288e-08 6.76579e+07)
(1.89878e+08 388973 2.96357e-07 3.3293e+07 1.60497e-08 6.69734e+07)
(1.89676e+08 2.55115e+06 1.50094e-07 3.21113e+07 -1.29143e-08 6.64229e+07)
(1.86292e+08 555347 -2.54473e-08 3.27939e+07 2.11439e-08 6.57318e+07)
(1.86109e+08 2.68362e+06 -7.2661e-08 3.1618e+07 1.27334e-08 6.52202e+07)
(1.82854e+08 708332 1.56956e-07 3.22536e+07 3.31058e-09 6.45233e+07)
(1.82687e+08 2.80468e+06 1.52318e-07 3.10843e+07 -3.70827e-09 6.40478e+07)
(1.79551e+08 849241 1.39388e-08 3.16768e+07 1.59329e-08 6.33458e+07)
(1.79399e+08 2.91549e+06 -6.86278e-08 3.05148e+07 1.17421e-08 6.29038e+07)
(1.76373e+08 979187 1.07754e-07 3.10677e+07 -2.25215e-09 6.21971e+07)
(1.76235e+08 3.017e+06 2.42371e-07 2.99134e+07 3.22884e-08 6.17864e+07)
(1.73311e+08 1.09908e+06 2.66032e-07 3.04301e+07 1.7328e-08 6.10754e+07)
(1.73186e+08 3.10995e+06 2.66882e-07 2.9284e+07 2.35596e-08 6.06938e+07)
(1.70355e+08 1.20963e+06 2.52041e-08 2.97674e+07 3.36775e-08 5.9979e+07)
(1.70242e+08 3.19485e+06 -1.22495e-07 2.86304e+07 -2.55881e-08 5.96244e+07)
(1.67497e+08 1.31123e+06 -8.08227e-08 2.90829e+07 -1.65092e-08 5.89063e+07)
(1.67395e+08 3.27204e+06 -1.07445e-07 2.79561e+07 -6.39742e-09 5.85763e+07)
(1.64727e+08 1.40397e+06 0 2.83795e+07 0 5.78558e+07)
(1.64637e+08 3.3417e+06 1.31569e-08 2.72647e+07 1.8692e-08 5.75475e+07)
(1.62038e+08 1.48757e+06 1.70252e-07 2.76598e+07 6.6373e-09 5.68257e+07)
(1.61958e+08 3.40412e+06 2.08844e-07 2.65598e+07 1.71249e-08 5.6536e+07)
(1.59423e+08 1.5616e+06 1.40726e-08 2.69258e+07 1.8034e-08 5.58142e+07)
(1.59351e+08 3.46004e+06 -9.39874e-08 2.58444e+07 -4.09687e-08 5.554e+07)
(1.56874e+08 1.62586e+06 -1.81711e-07 2.6179e+07 -2.88529e-08 5.48187e+07)
(1.56804e+08 3.51135e+06 -1.67793e-07 2.51199e+07 -1.53656e-08 5.4558e+07)
(1.54379e+08 1.68114e+06 -7.7742e-08 2.54206e+07 -1.96736e-08 5.38354e+07)
(1.543e+08 3.56238e+06 7.05789e-09 2.43853e+07 8.88864e-09 5.35869e+07)
(1.51915e+08 1.73016e+06 1.35859e-07 2.46518e+07 1.80081e-08 5.28551e+07)
(1.51807e+08 3.622e+06 -8.58004e-09 2.36376e+07 -1.30092e-08 5.26138e+07)
(1.49425e+08 1.77746e+06 -2.4687e-08 2.38746e+07 6.57223e-09 5.18545e+07)
(1.49258e+08 3.70274e+06 -2.52446e-08 2.28776e+07 6.28402e-09 5.16098e+07)
(1.46833e+08 1.82405e+06 8.99598e-08 2.3093e+07 4.1796e-09 5.08172e+07)
(1.46519e+08 3.81366e+06 4.07252e-08 2.21316e+07 2.71471e-09 5.06549e+07)
(2.77325e+08 -1.39307e+07 -1.20341e-07 1.14798e+06 1.59162e-08 1.0372e+08)
(2.78889e+08 -1.32398e+07 -3.186e-08 3.44388e+06 2.64312e-08 1.00911e+08)
(2.80118e+08 -1.37492e+07 -2.95952e-07 4.80445e+06 -2.8398e-08 1.0204e+08)
(2.81543e+08 -1.31635e+07 -1.22099e-07 6.71288e+06 7.48608e-09 1.00763e+08)
(2.82894e+08 -1.37338e+07 -8.49638e-08 8.23346e+06 -5.02555e-08 1.01925e+08)
(2.84186e+08 -1.29957e+07 1.74146e-07 9.99105e+06 6.45748e-08 1.00666e+08)
(2.85425e+08 -1.37369e+07 3.40779e-07 1.1524e+07 -1.87425e-08 1.01394e+08)
(2.86637e+08 -1.27833e+07 3.43592e-07 1.32332e+07 1.08879e-08 9.99715e+07)
(2.87764e+08 -1.37553e+07 3.44334e-07 1.47423e+07 1.75419e-08 1.005e+08)
(2.88926e+08 -1.2531e+07 3.5104e-07 1.64099e+07 -1.21396e-08 9.90107e+07)
(2.89973e+08 -1.37823e+07 6.63558e-10 1.79092e+07 2.8537e-08 9.9488e+07)
(2.91092e+08 -1.22785e+07 -9.18054e-08 1.95494e+07 -1.68523e-08 9.79169e+07)
(2.91966e+08 -1.37592e+07 0 2.10031e+07 0 9.80451e+07)
(2.92787e+08 -1.18795e+07 9.28703e-08 2.24637e+07 1.6996e-08 9.58223e+07)
(2.91662e+08 -1.35133e+07 -3.79156e-08 2.40229e+07 3.37531e-08 9.49982e+07)
(2.90124e+08 -1.00807e+07 -4.09401e-08 2.4398e+07 3.26919e-08 9.33568e+07)
(2.82937e+08 -1.14856e+07 1.25968e-07 2.6932e+07 -1.51223e-08 9.37744e+07)
(2.81106e+08 -8.05132e+06 2.15077e-07 2.62669e+07 3.59637e-09 9.1772e+07)
(2.73651e+08 -9.43417e+06 -3.79267e-08 2.88135e+07 2.7831e-08 9.14529e+07)
(2.72021e+08 -6.25352e+06 -4.28641e-08 2.7922e+07 7.06129e-09 8.95228e+07)
(2.65047e+08 -7.75749e+06 -1.58784e-07 3.02799e+07 1.59796e-08 8.91645e+07)
(2.63715e+08 -4.75872e+06 -1.64313e-07 2.92881e+07 -4.34496e-09 8.74289e+07)
(2.57201e+08 -6.39292e+06 -2.73328e-07 3.14579e+07 -5.65758e-08 8.70948e+07)
(2.56083e+08 -3.52112e+06 -1.17933e-07 3.03932e+07 -1.07393e-08 8.55068e+07)
(2.49944e+08 -5.24346e+06 -7.68308e-08 3.23884e+07 -3.12504e-08 8.51553e+07)
(2.48976e+08 -2.4772e+06 -7.2415e-08 3.12691e+07 -1.48888e-08 8.36809e+07)
(2.43173e+08 -4.25584e+06 -3.64758e-08 3.31045e+07 1.93206e-08 8.32986e+07)
(2.42324e+08 -1.58316e+06 -1.80631e-07 3.19452e+07 -2.61425e-08 8.19268e+07)
(2.36832e+08 -3.39912e+06 -2.0579e-07 3.36358e+07 -5.39386e-08 8.15163e+07)
(2.36085e+08 -809684 7.04566e-08 3.24472e+07 2.9377e-08 8.02405e+07)
(2.30881e+08 -2.65003e+06 -1.60076e-07 3.40073e+07 7.12483e-09 7.98052e+07)
(2.30219e+08 -134881 2.33444e-08 3.27968e+07 1.49261e-08 7.86181e+07)
(2.2528e+08 -1.98988e+06 -3.21193e-08 3.42394e+07 -4.1649e-08 7.81605e+07)
(2.24692e+08 458337 -2.98243e-08 3.30128e+07 -4.21306e-08 7.7055e+07)
(2.19996e+08 -1.40393e+06 5.5059e-08 3.43493e+07 -2.42942e-09 7.6577e+07)
(2.19472e+08 983424 6.86903e-08 3.3111e+07 4.00429e-08 7.55464e+07)
(2.14999e+08 -880585 2.18118e-07 3.43518e+07 4.7479e-08 7.50501e+07)
(2.14531e+08 1.45103e+06 1.50487e-07 3.31052e+07 1.24701e-08 7.40883e+07)
(2.10265e+08 -410609 0 3.42594e+07 0 7.35755e+07)
(2.09845e+08 1.86966e+06 -5.58136e-08 3.30074e+07 -1.22869e-08 7.26772e+07)
(2.05769e+08 13454.8 -1.73945e-07 3.4083e+07 1.48658e-09 7.21496e+07)
(2.05393e+08 2.2462e+06 -1.80854e-07 3.2828e+07 -1.41798e-08 7.13098e+07)
(2.01493e+08 397687 5.86091e-08 3.38322e+07 -3.34803e-08 7.0769e+07)
(2.01155e+08 2.58625e+06 1.7651e-07 3.2576e+07 1.47284e-08 6.99832e+07)
(1.97417e+08 747084 1.07864e-07 3.35153e+07 3.21032e-08 6.94307e+07)
(1.97115e+08 2.89441e+06 1.07087e-07 3.22594e+07 3.45604e-08 6.86949e+07)
(1.93527e+08 1.06579e+06 3.72371e-08 3.31396e+07 2.04776e-09 6.81318e+07)
(1.93256e+08 3.1745e+06 1.36361e-07 3.18855e+07 2.47188e-08 6.74423e+07)
(1.89806e+08 1.35724e+06 -8.98214e-08 3.27116e+07 -8.28641e-09 6.68699e+07)
(1.89564e+08 3.42967e+06 9.56941e-08 3.14604e+07 2.20463e-08 6.62231e+07)
(1.86243e+08 1.62436e+06 3.01405e-08 3.22371e+07 -8.37117e-09 6.56425e+07)
(1.86027e+08 3.66257e+06 2.48731e-08 3.09897e+07 -1.88773e-08 6.50354e+07)
(1.82824e+08 1.86956e+06 2.31012e-08 3.17213e+07 -1.85896e-08 6.44474e+07)
(1.82633e+08 3.87542e+06 1.39735e-07 3.04787e+07 4.54603e-08 6.38772e+07)
(1.7954e+08 2.09489e+06 1.08463e-07 3.11689e+07 4.97303e-08 6.32828e+07)
(1.7937e+08 4.07005e+06 -1.00903e-07 2.99319e+07 -4.17055e-08 6.27467e+07)
(1.76379e+08 2.30205e+06 -2.43215e-07 3.05841e+07 -4.23546e-08 6.21466e+07)
(1.7623e+08 4.24799e+06 -2.00639e-07 2.93536e+07 -3.76237e-08 6.16422e+07)
(1.73332e+08 2.4924e+06 -2.09894e-07 2.99709e+07 -4.88686e-08 6.10374e+07)
(1.73203e+08 4.41049e+06 -1.12508e-07 2.87476e+07 -1.37094e-08 6.05621e+07)
(1.70391e+08 2.66702e+06 -2.77907e-08 2.93326e+07 6.45237e-09 5.99534e+07)
(1.7028e+08 4.55865e+06 -2.84542e-08 2.81176e+07 6.15907e-09 5.9505e+07)
(1.67548e+08 2.82675e+06 2.73441e-08 2.86724e+07 -6.15634e-09 5.88932e+07)
(1.67454e+08 4.69348e+06 2.00871e-07 2.74666e+07 5.29182e-08 5.84693e+07)
(1.64794e+08 2.97218e+06 8.04155e-08 2.7993e+07 2.1874e-08 5.78553e+07)
(1.64716e+08 4.81606e+06 6.63011e-08 2.67973e+07 4.05097e-09 5.74536e+07)
(1.62121e+08 3.10378e+06 -7.59945e-08 2.72969e+07 -1.66863e-08 5.68381e+07)
(1.62057e+08 4.92778e+06 -7.19058e-09 2.61117e+07 -9.58909e-09 5.64563e+07)
(1.59522e+08 3.22192e+06 -7.50274e-09 2.65861e+07 -9.41452e-09 5.58396e+07)
(1.59467e+08 5.03066e+06 0 2.54113e+07 0 5.54754e+07)
(1.56983e+08 3.32703e+06 6.18689e-08 2.58622e+07 2.93913e-09 5.48573e+07)
(1.56935e+08 5.12793e+06 6.96934e-08 2.46965e+07 1.37559e-08 5.45081e+07)
(1.5449e+08 3.41969e+06 1.28921e-07 2.51268e+07 1.52905e-08 5.3887e+07)
(1.54442e+08 5.22488e+06 1.44502e-07 2.39672e+07 3.68152e-08 5.35488e+07)
(1.52012e+08 3.50094e+06 1.17332e-07 2.4381e+07 3.84147e-08 5.29161e+07)
(1.5195e+08 5.32919e+06 5.22646e-08 2.32235e+07 -4.70675e-09 5.25815e+07)
(1.49499e+08 3.5721e+06 -6.60022e-08 2.36264e+07 -1.22607e-08 5.19163e+07)
(1.49402e+08 5.44785e+06 5.00622e-08 2.24672e+07 3.12402e-08 5.15778e+07)
(1.46899e+08 3.63228e+06 8.86782e-08 2.28651e+07 7.90906e-09 5.08657e+07)
(1.46687e+08 5.58216e+06 1.30675e-07 2.17009e+07 1.9125e-08 5.06262e+07)
(2.76683e+08 -1.92956e+07 1.77521e-07 1.90176e+06 1.46096e-10 1.03191e+08)
(2.78119e+08 -1.86717e+07 -9.40271e-08 3.99313e+06 1.63375e-08 1.00505e+08)
(2.79419e+08 -1.91321e+07 2.98861e-07 5.5017e+06 3.1234e-08 1.01499e+08)
(2.80782e+08 -1.85147e+07 3.46483e-08 7.28416e+06 -5.54917e-08 1.00215e+08)
(2.82162e+08 -1.90565e+07 -1.55289e-07 8.89381e+06 8.69158e-08 1.01333e+08)
(2.83419e+08 -1.82946e+07 -3.40799e-07 1.05638e+07 1.90965e-08 1.00009e+08)
(2.8468e+08 -1.90019e+07 -5.96529e-08 1.21966e+07 -9.73421e-08 1.00683e+08)
(2.8583e+08 -1.79951e+07 -1.49037e-07 1.37393e+07 -8.35425e-08 9.92641e+07)
(2.86998e+08 -1.89391e+07 -1.24694e-07 1.54135e+07 2.57322e-08 9.96861e+07)
(2.88073e+08 -1.76431e+07 -1.2588e-07 1.68207e+07 5.17779e-08 9.8301e+07)
(2.892e+08 -1.88445e+07 4.2271e-09 1.85897e+07 2.75207e-08 9.8565e+07)
(2.90211e+08 -1.73664e+07 -1.00761e-07 1.99982e+07 -6.99278e-08 9.69428e+07)
(2.91072e+08 -1.8671e+07 1.96123e-08 2.16991e+07 -8.57434e-08 9.65368e+07)
(2.9151e+08 -1.66715e+07 4.47943e-08 2.24534e+07 1.31516e-08 9.43594e+07)
(2.88185e+08 -1.79004e+07 4.21302e-07 2.48311e+07 9.23069e-08 9.40586e+07)
(2.86102e+08 -1.39955e+07 3.5066e-08 2.43276e+07 -3.00447e-08 9.26569e+07)
(2.7967e+08 -1.49353e+07 -1.54398e-07 2.6736e+07 3.70413e-08 9.25793e+07)
(2.775e+08 -1.1314e+07 -3.45016e-07 2.59097e+07 -4.62928e-08 9.0645e+07)
(2.70955e+08 -1.22845e+07 -1.30972e-07 2.82436e+07 -3.4305e-08 9.03324e+07)
(2.69144e+08 -9.00357e+06 -2.08315e-07 2.72935e+07 -3.35523e-08 8.84773e+07)
(2.62897e+08 -1.01381e+07 4.04954e-08 2.95207e+07 2.09083e-08 8.82065e+07)
(2.61407e+08 -7.07331e+06 4.37176e-08 2.84816e+07 4.09579e-08 8.65129e+07)
(2.55455e+08 -8.35501e+06 7.70006e-08 3.05774e+07 1.71356e-08 8.62526e+07)
(2.54181e+08 -5.44145e+06 1.57828e-07 2.94734e+07 5.41659e-08 8.46773e+07)
(2.485e+08 -6.829e+06 6.14749e-09 3.14284e+07 1.7404e-08 8.43943e+07)
(2.4739e+08 -4.03979e+06 1.46379e-07 3.02776e+07 3.57671e-08 8.29156e+07)
(2.41969e+08 -5.50544e+06 2.08829e-07 3.20965e+07 -1.62139e-09 8.26058e+07)
(2.40995e+08 -2.82372e+06 1.46517e-07 3.09104e+07 1.94495e-10 8.12178e+07)
(2.35825e+08 -4.34899e+06 -2.72839e-08 3.2603e+07 3.13042e-08 8.08837e+07)
(2.34968e+08 -1.76089e+06 -1.80952e-07 3.13891e+07 -4.93247e-08 7.95824e+07)
(2.30035e+08 -3.33147e+06 -4.57125e-08 3.29659e+07 -1.60492e-08 7.92256e+07)
(2.29278e+08 -825663 -2.9236e-08 3.173e+07 2.83272e-08 7.80058e+07)
(2.24569e+08 -2.43004e+06 1.02167e-07 3.32006e+07 1.64864e-08 7.76274e+07)
(2.23898e+08 2533.23 9.69491e-08 3.19475e+07 3.65534e-09 7.64838e+07)
(2.19397e+08 -1.62652e+06 3.25307e-08 3.3321e+07 -1.18846e-08 7.6085e+07)
(2.18801e+08 740158 9.43002e-08 3.20546e+07 4.35548e-09 7.50124e+07)
(2.14496e+08 -906396 -3.21579e-08 3.33393e+07 1.09111e-08 7.45947e+07)
(2.13966e+08 1.40046e+06 -2.74824e-08 3.20629e+07 2.36214e-08 7.35883e+07)
(2.09842e+08 -257940 1.83501e-07 3.32664e+07 2.07679e-08 7.3153e+07)
(2.09371e+08 1.99418e+06 2.47361e-07 3.19828e+07 5.15563e-08 7.22082e+07)
(2.05417e+08 328407 3.50367e-07 3.31122e+07 7.47726e-08 7.17568e+07)
(2.04998e+08 2.53012e+06 1.25821e-07 3.18235e+07 9.41174e-09 7.08693e+07)
(2.01201e+08 860515 9.08939e-08 3.28851e+07 1.703e-08 7.04034e+07)
(2.00829e+08 3.01556e+06 3.20236e-08 3.15935e+07 -8.1811e-09 6.95691e+07)
(1.97179e+08 1.34491e+06 1.33532e-07 3.25929e+07 1.82428e-08 6.90899e+07)
(1.96849e+08 3.45653e+06 1.47117e-07 3.13e+07 4.44699e-08 6.83052e+07)
(1.93335e+08 1.78702e+06 1.13955e-07 3.22425e+07 4.88083e-08 6.7814e+07)
(1.93044e+08 3.85806e+06 -5.63906e-08 3.09498e+07 -2.54799e-08 6.70755e+07)
(1.89657e+08 2.19142e+06 -1.15066e-07 3.18402e+07 -1.04059e-08 6.65733e+07)
(1.894e+08 4.22438e+06 -1.16319e-07 3.05488e+07 -1.21423e-08 6.58777e+07)
(1.86131e+08 2.56194e+06 2.20904e-08 3.13914e+07 -1.73522e-08 6.53658e+07)
(1.85907e+08 4.55908e+06 1.30968e-07 3.01026e+07 3.21512e-08 6.47102e+07)
(1.82747e+08 2.90184e+06 -3.85321e-08 3.09014e+07 -1.24762e-09 6.41895e+07)
(1.82552e+08 4.86517e+06 5.26628e-08 2.96161e+07 2.41347e-08 6.35711e+07)
(1.79494e+08 3.21385e+06 1.25091e-07 3.03745e+07 2.91239e-08 6.30426e+07)
(1.79327e+08 5.14523e+06 7.37104e-08 2.90936e+07 8.00873e-09 6.24588e+07)
(1.76362e+08 3.50027e+06 4.34327e-08 2.98149e+07 1.17338e-08 6.19235e+07)
(1.76221e+08 5.40146e+06 5.04915e-08 2.85392e+07 2.3396e-08 6.13718e+07)
(1.73343e+08 3.76304e+06 -6.23976e-08 2.92263e+07 3.49056e-09 6.08305e+07)
(1.73225e+08 5.6358e+06 -8.51549e-08 2.79566e+07 -2.90142e-08 6.03086e+07)
(1.70428e+08 4.0038e+06 -1.25082e-07 2.86119e+07 -3.8792e-08 5.97622e+07)
(1.70333e+08 5.85002e+06 -2.07236e-07 2.73489e+07 -6.64984e-08 5.92678e+07)
(1.67609e+08 4.22397e+06 -5.57254e-08 2.79748e+07 -3.1373e-08 5.8717e+07)
(1.67535e+08 6.04584e+06 9.52227e-08 2.6719e+07 4.49425e-08 5.8248e+07)
(1.6488e+08 4.42479e+06 1.59884e-07 2.73173e+07 4.92782e-08 5.76931e+07)
(1.64823e+08 6.22509e+06 6.62249e-08 2.60691e+07 8.65045e-09 5.72476e+07)
(1.6223e+08 4.60744e+06 1.02707e-07 2.66417e+07 1.82384e-08 5.66887e+07)
(1.62189e+08 6.38995e+06 7.25525e-08 2.54012e+07 1.86486e-08 5.62646e+07)
(1.59651e+08 4.77308e+06 4.54119e-08 2.59501e+07 2.05326e-08 5.57011e+07)
(1.59622e+08 6.54309e+06 0 2.47166e+07 0 5.52969e+07)
(1.57131e+08 4.92292e+06 2.52668e-08 2.52443e+07 -3.15766e-09 5.47276e+07)
(1.5711e+08 6.68793e+06 7.79595e-08 2.40165e+07 2.83794e-08 5.43415e+07)
(1.54652e+08 5.05815e+06 1.62324e-07 2.45263e+07 3.1314e-08 5.37631e+07)
(1.54633e+08 6.82884e+06 1.9106e-07 2.33024e+07 3.64454e-08 5.33924e+07)
(1.52185e+08 5.18006e+06 -4.07197e-08 2.37983e+07 1.50479e-08 5.2796e+07)
(1.52156e+08 6.9713e+06 -2.13124e-07 2.2576e+07 -6.97289e-08 5.24332e+07)
(1.49678e+08 5.29003e+06 -2.33385e-07 2.30626e+07 -6.16397e-08 5.17995e+07)
(1.49625e+08 7.12185e+06 -1.83802e-07 2.1839e+07 -3.66919e-08 5.14348e+07)
(1.47084e+08 5.38687e+06 -7.4978e-08 2.23221e+07 -2.96442e-08 5.0756e+07)
(1.4694e+08 7.28634e+06 4.95728e-08 2.10881e+07 2.20681e-08 5.04999e+07)
(2.75716e+08 -2.46611e+07 -1.8024e-07 2.77069e+06 2.17623e-09 1.02496e+08)
(2.77142e+08 -2.39873e+07 1.84333e-07 4.80991e+06 3.2335e-09 9.97537e+07)
(2.7844e+08 -2.44506e+07 -6.4065e-08 6.36584e+06 -1.06578e-07 1.00723e+08)
(2.79773e+08 -2.38006e+07 1.21432e-07 8.07369e+06 2.76764e-08 9.93793e+07)
(2.8116e+08 -2.4336e+07 1.88937e-07 9.75518e+06 1.01877e-07 1.00436e+08)
(2.82367e+08 -2.35173e+07 9.43491e-08 1.12928e+07 4.88627e-08 9.90932e+07)
(2.83636e+08 -2.42381e+07 -6.20624e-08 1.30381e+07 -3.52022e-08 9.96627e+07)
(2.84748e+08 -2.3156e+07 1.23578e-07 1.44321e+07 -2.49518e-08 9.82368e+07)
(2.85908e+08 -2.41401e+07 -9.45909e-08 1.62256e+07 -2.0232e-08 9.85841e+07)
(2.86978e+08 -2.27582e+07 -1.00298e-07 1.75068e+07 -4.68047e-08 9.71609e+07)
(2.88063e+08 -2.40099e+07 -8.19308e-09 1.9432e+07 -2.61476e-08 9.72015e+07)
(2.88959e+08 -2.22972e+07 7.15246e-09 2.05285e+07 2.41581e-08 9.54472e+07)
(2.89585e+08 -2.36085e+07 -1.84657e-07 2.22762e+07 -2.07722e-08 9.43979e+07)
(2.88943e+08 -2.07239e+07 -8.87954e-09 2.24013e+07 -2.21167e-08 9.25331e+07)
(2.83651e+08 -2.12184e+07 -1.9821e-07 2.50023e+07 -6.56025e-08 9.30316e+07)
(2.8143e+08 -1.74056e+07 0 2.39883e+07 0 9.14172e+07)
(2.75556e+08 -1.78411e+07 -2.83205e-08 2.63929e+07 2.48999e-08 9.1119e+07)
(2.73362e+08 -1.42738e+07 -2.15443e-07 2.53463e+07 -4.03335e-08 8.93071e+07)
(2.67603e+08 -1.48801e+07 -9.43421e-08 2.75896e+07 -4.08179e-08 8.90065e+07)
(2.65752e+08 -1.15808e+07 -1.83551e-07 2.65319e+07 -8.17512e-08 8.7285e+07)
(2.60171e+08 -1.23957e+07 -2.40407e-07 2.8664e+07 -3.84252e-08 8.70656e+07)
(2.58607e+08 -9.29407e+06 -3.13818e-07 2.75619e+07 -4.33975e-08 8.54393e+07)
(2.53189e+08 -1.02703e+07 -2.25251e-07 2.95863e+07 -2.17464e-08 8.52352e+07)
(2.51835e+08 -7.32537e+06 -3.1118e-07 2.84357e+07 -6.22397e-08 8.36874e+07)
(2.46593e+08 -8.42282e+06 -2.27323e-07 3.03485e+07 -4.05652e-08 8.34675e+07)
(2.45409e+08 -5.61076e+06 -1.39687e-07 2.91574e+07 1.10105e-08 8.19978e+07)
(2.40356e+08 -6.804e+06 6.21185e-08 3.0959e+07 -2.93473e-08 8.17565e+07)
(2.39317e+08 -4.10645e+06 2.14806e-07 2.97359e+07 2.76048e-08 8.03662e+07)
(2.34457e+08 -5.3768e+06 2.45201e-07 3.14303e+07 5.83521e-08 8.01033e+07)
(2.33541e+08 -2.77875e+06 3.98267e-08 3.01814e+07 2.13955e-09 7.87908e+07)
(2.28871e+08 -4.11091e+06 7.40033e-08 3.17743e+07 3.31659e-08 7.85062e+07)
(2.28063e+08 -1.60036e+06 -6.57129e-08 3.05047e+07 -1.94305e-08 7.72681e+07)
(2.23577e+08 -2.98176e+06 0 3.20024e+07 0 7.6962e+07)
(2.22862e+08 -549092 -7.04048e-08 3.07161e+07 -3.29181e-08 7.57946e+07)
(2.18552e+08 -1.96954e+06 -2.53681e-07 3.21254e+07 -4.68986e-08 7.54678e+07)
(2.17919e+08 393099 -1.93661e-07 3.08258e+07 -3.21314e-08 7.43673e+07)
(2.13776e+08 -1.05812e+06 -6.71313e-08 3.2153e+07 -3.04836e-08 7.40207e+07)
(2.13215e+08 1.241e+06 0 3.08431e+07 0 7.29833e+07)
(2.09231e+08 -234257 -5.7326e-08 3.20944e+07 -1.6767e-08 7.26181e+07)
(2.08735e+08 2.00683e+06 6.42873e-08 3.07768e+07 3.06022e-08 7.164e+07)
(2.049e+08 513037 2.09024e-07 3.19581e+07 2.42215e-08 7.12576e+07)
(2.04462e+08 2.70075e+06 2.73929e-07 3.06349e+07 5.73042e-08 7.03352e+07)
(2.00767e+08 1.19291e+06 6.94583e-08 3.17515e+07 4.06341e-08 6.99366e+07)
(2.00382e+08 3.33124e+06 -7.34825e-09 3.04247e+07 -1.20318e-08 6.90665e+07)
(1.96819e+08 1.81305e+06 -2.75155e-07 3.14817e+07 -6.38195e-08 6.86531e+07)
(1.9648e+08 3.90547e+06 -2.24045e-07 3.01529e+07 -5.19743e-08 6.7832e+07)
(1.93041e+08 2.37992e+06 -5.84488e-08 3.11549e+07 -2.72384e-08 6.74049e+07)
(1.92745e+08 4.42948e+06 -5.78108e-08 2.98258e+07 -2.82505e-08 6.66296e+07)
(1.89421e+08 2.89902e+06 -1.14721e-07 3.07771e+07 -1.74739e-08 6.619e+07)
(1.89165e+08 4.90843e+06 -2.21256e-07 2.94489e+07 -6.33673e-08 6.54577e+07)
(1.85949e+08 3.37503e+06 -2.6367e-07 3.03534e+07 -7.43062e-08 6.50066e+07)
(1.85729e+08 5.34671e+06 -1.13892e-07 2.90272e+07 -1.96529e-08 6.43145e+07)
(1.82614e+08 3.81195e+06 -5.43952e-08 2.98885e+07 -2.58302e-08 6.3853e+07)
(1.82427e+08 5.74811e+06 -4.61843e-08 2.85655e+07 -1.59413e-08 6.31985e+07)
(1.79405e+08 4.21321e+06 7.29081e-08 2.93869e+07 1.12574e-08 6.27275e+07)
(1.7925e+08 6.11591e+06 8.13262e-08 2.80679e+07 2.35098e-08 6.21082e+07)
(1.76315e+08 4.5818e+06 5.20487e-08 2.88523e+07 2.50572e-08 6.16285e+07)
(1.76188e+08 6.45299e+06 0 2.75383e+07 0 6.10422e+07)
(1.73335e+08 4.9203e+06 1.55392e-07 2.82884e+07 3.98325e-08 6.05546e+07)
(1.73234e+08 6.76193e+06 1.79469e-07 2.698e+07 7.51516e-08 5.99991e+07)
(1.70456e+08 5.231e+06 1.08136e-07 2.76982e+07 5.92182e-08 5.95043e+07)
(1.70381e+08 7.04508e+06 -6.54749e-08 2.63963e+07 -4.64159e-08 5.89776e+07)
(1.67672e+08 5.51594e+06 -3.48058e-07 2.70847e+07 -1.07454e-07 5.84759e+07)
(1.67619e+08 7.30473e+06 -1.78388e-07 2.57897e+07 -4.52061e-08 5.79762e+07)
(1.64975e+08 5.77695e+06 -3.03317e-08 2.64504e+07 -3.58251e-08 5.74679e+07)
(1.64941e+08 7.5432e+06 7.43586e-08 2.51627e+07 2.34551e-08 5.69932e+07)
(1.62355e+08 6.01573e+06 8.41855e-09 2.57978e+07 1.01368e-08 5.64783e+07)
(1.62339e+08 7.76305e+06 3.86279e-08 2.45173e+07 1.44917e-08 5.60268e+07)
(1.59802e+08 6.23379e+06 0 2.51291e+07 0 5.55047e+07)
(1.59802e+08 7.96716e+06 8.22381e-09 2.38556e+07 1.01305e-08 5.50747e+07)
(1.57305e+08 6.4324e+06 9.54018e-08 2.44467e+07 2.08172e-08 5.45446e+07)
(1.57317e+08 8.15886e+06 8.79461e-08 2.31791e+07 1.24711e-08 5.41342e+07)
(1.54847e+08 6.61266e+06 -1.57468e-07 2.37527e+07 -3.69524e-08 5.35933e+07)
(1.54865e+08 8.34217e+06 -1.30675e-07 2.24894e+07 -3.66964e-08 5.31997e+07)
(1.52399e+08 6.77582e+06 -1.87075e-07 2.30495e+07 -4.5997e-08 5.26393e+07)
(1.52414e+08 8.52232e+06 -1.69816e-07 2.17879e+07 -5.61604e-08 5.22553e+07)
(1.49913e+08 6.92377e+06 -1.53267e-07 2.23394e+07 -6.67708e-08 5.16561e+07)
(1.49912e+08 8.70548e+06 -6.71537e-08 2.10752e+07 -2.33178e-08 5.12739e+07)