/*--------------------------------*- C++ -*----------------------------------*\
| =========                 |                                                 |
| \\      /  F ield         | OpenFOAM: The Open Source CFD Toolbox           |
|  \\    /   O peration     | Version:  v2012                                 |
|   \\  /    A nd           | Website:  www.openfoam.com                      |
|    \\/     M anipulation  |                                                 |
\*---------------------------------------------------------------------------*/
FoamFile
{
    version     2.0;
    format      ascii;
    class       volScalarField;
    location    "6";
    object      sigmaHyd;
}
// * * * * * * * * * * * * * * * * * * * * * * * * * * * * * * * * * * * * * //

dimensions      [1 -1 -2 0 0 0 0];


internalField   nonuniform List<scalar> 
32000
(
1.28237e+08
1.28383e+08
1.29675e+08
1.30199e+08
1.31694e+08
1.32196e+08
1.33467e+08
1.33893e+08
1.34973e+08
1.35362e+08
1.36305e+08
1.36683e+08
1.37473e+08
1.37738e+08
1.37889e+08
1.37521e+08
1.36069e+08
1.34987e+08
1.32749e+08
1.31561e+08
1.29363e+08
1.28289e+08
1.26274e+08
1.25294e+08
1.23404e+08
1.2248e+08
1.20673e+08
1.19793e+08
1.18058e+08
1.17218e+08
1.15552e+08
1.14749e+08
1.13147e+08
1.12378e+08
1.10834e+08
1.10097e+08
1.08607e+08
1.07898e+08
1.06458e+08
1.05776e+08
1.04381e+08
1.03723e+08
1.02371e+08
1.01736e+08
1.00424e+08
9.981e+07
9.85343e+07
9.79401e+07
9.66986e+07
9.61227e+07
9.49131e+07
9.43544e+07
9.31745e+07
9.26318e+07
9.14795e+07
9.09519e+07
8.98253e+07
8.93118e+07
8.8209e+07
8.77088e+07
8.66279e+07
8.61402e+07
8.50796e+07
8.46036e+07
8.35612e+07
8.30962e+07
8.20699e+07
8.16151e+07
8.06026e+07
8.01575e+07
7.9156e+07
7.87203e+07
7.77264e+07
7.72991e+07
7.63068e+07
7.58831e+07
7.48779e+07
7.4446e+07
7.34084e+07
7.2966e+07
1.27495e+08
1.27765e+08
1.29073e+08
1.2975e+08
1.3116e+08
1.31746e+08
1.32961e+08
1.33448e+08
1.34527e+08
1.34966e+08
1.35963e+08
1.36393e+08
1.37254e+08
1.37498e+08
1.3758e+08
1.3698e+08
1.35572e+08
1.3428e+08
1.32314e+08
1.30958e+08
1.29045e+08
1.2781e+08
1.2603e+08
1.24891e+08
1.232e+08
1.22126e+08
1.205e+08
1.1948e+08
1.17913e+08
1.16944e+08
1.15432e+08
1.14509e+08
1.13048e+08
1.12168e+08
1.10756e+08
1.09914e+08
1.08546e+08
1.07739e+08
1.06412e+08
1.05638e+08
1.0435e+08
1.03606e+08
1.02353e+08
1.01637e+08
1.00418e+08
9.97271e+07
9.85398e+07
9.78728e+07
9.67147e+07
9.60701e+07
9.49393e+07
9.43156e+07
9.32102e+07
9.26063e+07
9.15245e+07
9.09392e+07
8.98794e+07
8.93117e+07
8.82722e+07
8.77212e+07
8.67005e+07
8.61656e+07
8.51619e+07
8.46424e+07
8.36541e+07
8.31496e+07
8.21747e+07
8.16847e+07
8.07211e+07
8.02451e+07
7.92905e+07
7.88272e+07
7.78783e+07
7.74242e+07
7.64738e+07
7.60193e+07
7.50513e+07
7.45817e+07
7.35811e+07
7.31018e+07
1.27398e+08
1.27748e+08
1.28987e+08
1.29673e+08
1.31018e+08
1.31614e+08
1.32781e+08
1.33281e+08
1.34335e+08
1.34782e+08
1.3579e+08
1.36186e+08
1.37005e+08
1.37024e+08
1.36894e+08
1.3596e+08
1.34548e+08
1.33048e+08
1.31306e+08
1.29822e+08
1.28164e+08
1.26811e+08
1.25251e+08
1.23994e+08
1.22496e+08
1.21309e+08
1.19859e+08
1.18732e+08
1.17328e+08
1.16257e+08
1.14898e+08
1.13878e+08
1.1256e+08
1.11587e+08
1.10307e+08
1.09376e+08
1.08134e+08
1.07241e+08
1.06033e+08
1.05177e+08
1.04001e+08
1.03177e+08
1.02031e+08
1.01238e+08
1.00121e+08
9.93564e+07
9.8266e+07
9.75278e+07
9.64626e+07
9.57492e+07
9.47075e+07
9.40174e+07
9.29977e+07
9.23295e+07
9.13305e+07
9.0683e+07
8.97032e+07
8.90753e+07
8.81134e+07
8.75043e+07
8.6559e+07
8.59677e+07
8.50377e+07
8.44633e+07
8.35474e+07
8.29889e+07
8.20855e+07
8.15416e+07
8.06491e+07
8.0118e+07
7.92342e+07
7.87133e+07
7.78345e+07
7.73192e+07
7.64364e+07
7.59182e+07
7.50138e+07
7.44824e+07
7.35433e+07
7.30046e+07
1.27259e+08
1.27539e+08
1.28807e+08
1.29427e+08
1.30796e+08
1.31331e+08
1.3252e+08
1.32945e+08
1.34033e+08
1.34398e+08
1.35451e+08
1.35718e+08
1.36436e+08
1.36108e+08
1.35692e+08
1.34362e+08
1.32995e+08
1.31352e+08
1.29844e+08
1.28305e+08
1.26875e+08
1.25467e+08
1.24095e+08
1.22777e+08
1.21441e+08
1.20194e+08
1.1889e+08
1.17708e+08
1.16437e+08
1.15313e+08
1.14076e+08
1.13005e+08
1.11799e+08
1.10776e+08
1.09601e+08
1.08623e+08
1.07476e+08
1.06539e+08
1.0542e+08
1.04521e+08
1.03429e+08
1.02563e+08
1.01496e+08
1.00664e+08
9.96205e+07
9.8818e+07
9.77972e+07
9.7023e+07
9.60234e+07
9.52756e+07
9.42961e+07
9.35732e+07
9.26126e+07
9.19132e+07
9.09703e+07
9.0293e+07
8.93668e+07
8.87105e+07
8.77998e+07
8.71635e+07
8.62673e+07
8.56498e+07
8.47671e+07
8.41672e+07
8.32967e+07
8.27132e+07
8.18535e+07
8.12849e+07
8.04342e+07
7.98786e+07
7.90342e+07
7.84894e+07
7.76471e+07
7.71093e+07
7.62596e+07
7.57218e+07
7.48468e+07
7.42996e+07
7.33874e+07
7.28425e+07
1.26994e+08
1.27235e+08
1.2851e+08
1.29075e+08
1.3045e+08
1.30918e+08
1.32112e+08
1.32472e+08
1.33573e+08
1.33882e+08
1.34899e+08
1.34978e+08
1.3542e+08
1.34626e+08
1.33895e+08
1.32278e+08
1.31023e+08
1.29338e+08
1.28066e+08
1.26523e+08
1.253e+08
1.23869e+08
1.2267e+08
1.21319e+08
1.20136e+08
1.18855e+08
1.17691e+08
1.16473e+08
1.1533e+08
1.14171e+08
1.13051e+08
1.11945e+08
1.10847e+08
1.09791e+08
1.08715e+08
1.07704e+08
1.0665e+08
1.05681e+08
1.04648e+08
1.03717e+08
1.02705e+08
1.01811e+08
1.00818e+08
9.99576e+07
9.89845e+07
9.8155e+07
9.72002e+07
9.64002e+07
9.54628e+07
9.46906e+07
9.37697e+07
9.30236e+07
9.21184e+07
9.1397e+07
9.05065e+07
8.98086e+07
8.8932e+07
8.82562e+07
8.73926e+07
8.67379e+07
8.58863e+07
8.52515e+07
8.4411e+07
8.37949e+07
8.29644e+07
8.23658e+07
8.15436e+07
8.09611e+07
8.01453e+07
7.95774e+07
7.87654e+07
7.821e+07
7.73976e+07
7.68515e+07
7.60293e+07
7.54857e+07
7.46363e+07
7.4087e+07
7.32008e+07
7.2657e+07
1.26626e+08
1.26807e+08
1.28094e+08
1.28586e+08
1.2997e+08
1.30359e+08
1.31573e+08
1.31867e+08
1.33e+08
1.33219e+08
1.3413e+08
1.33859e+08
1.33877e+08
1.32535e+08
1.31643e+08
1.29899e+08
1.2881e+08
1.2715e+08
1.26088e+08
1.24558e+08
1.23515e+08
1.22074e+08
1.21033e+08
1.19664e+08
1.18627e+08
1.17325e+08
1.16295e+08
1.15055e+08
1.14037e+08
1.12854e+08
1.11849e+08
1.10718e+08
1.09727e+08
1.08645e+08
1.07669e+08
1.06632e+08
1.05671e+08
1.04676e+08
1.03731e+08
1.02775e+08
1.01845e+08
1.00925e+08
1.00011e+08
9.91251e+07
9.82251e+07
9.73719e+07
9.64861e+07
9.56632e+07
9.47911e+07
9.39969e+07
9.31379e+07
9.23709e+07
9.15243e+07
9.0783e+07
8.99482e+07
8.92314e+07
8.84077e+07
8.77141e+07
8.69007e+07
8.62293e+07
8.54255e+07
8.4775e+07
8.39799e+07
8.33494e+07
8.25618e+07
8.195e+07
8.11685e+07
8.05742e+07
7.97968e+07
7.92185e+07
7.84428e+07
7.78787e+07
7.71005e+07
7.65474e+07
7.57578e+07
7.52093e+07
7.43914e+07
7.38393e+07
7.29843e+07
7.24388e+07
1.26136e+08
1.26295e+08
1.2756e+08
1.27996e+08
1.29353e+08
1.29686e+08
1.309e+08
1.3116e+08
1.3226e+08
1.32296e+08
1.32888e+08
1.32011e+08
1.31619e+08
1.29938e+08
1.29087e+08
1.27344e+08
1.26452e+08
1.2484e+08
1.23959e+08
1.22449e+08
1.2156e+08
1.20123e+08
1.19224e+08
1.17852e+08
1.16948e+08
1.15638e+08
1.14734e+08
1.13482e+08
1.12582e+08
1.11384e+08
1.1049e+08
1.09342e+08
1.08455e+08
1.07355e+08
1.06477e+08
1.0542e+08
1.04552e+08
1.03537e+08
1.02679e+08
1.01702e+08
1.00855e+08
9.99149e+07
9.90782e+07
9.81726e+07
9.73466e+07
9.64736e+07
9.56581e+07
9.4816e+07
9.40107e+07
9.31978e+07
9.24024e+07
9.16173e+07
9.08313e+07
9.00728e+07
8.92958e+07
8.85625e+07
8.77939e+07
8.70848e+07
8.63241e+07
8.5638e+07
8.48845e+07
8.42204e+07
8.34733e+07
8.28301e+07
8.20884e+07
8.14651e+07
8.07274e+07
8.01227e+07
7.93871e+07
7.87997e+07
7.8064e+07
7.74921e+07
7.67522e+07
7.61928e+07
7.54401e+07
7.48868e+07
7.41049e+07
7.35496e+07
7.27298e+07
7.21823e+07
1.25598e+08
1.25682e+08
1.2693e+08
1.27277e+08
1.28638e+08
1.28924e+08
1.30162e+08
1.3034e+08
1.31287e+08
1.30859e+08
1.30958e+08
1.2949e+08
1.289e+08
1.27142e+08
1.26414e+08
1.24748e+08
1.24022e+08
1.22464e+08
1.21727e+08
1.20242e+08
1.19484e+08
1.18061e+08
1.17286e+08
1.15922e+08
1.15137e+08
1.1383e+08
1.1304e+08
1.11786e+08
1.10994e+08
1.0979e+08
1.08999e+08
1.07843e+08
1.07053e+08
1.05942e+08
1.05157e+08
1.04088e+08
1.03308e+08
1.02279e+08
1.01505e+08
1.00515e+08
9.97471e+07
9.87925e+07
9.8032e+07
9.71115e+07
9.63582e+07
9.54702e+07
9.47242e+07
9.38671e+07
9.31283e+07
9.23007e+07
9.15689e+07
9.07695e+07
9.00445e+07
8.92721e+07
8.85536e+07
8.7807e+07
8.70945e+07
8.63727e+07
8.56658e+07
8.49677e+07
8.42659e+07
8.35906e+07
8.28932e+07
8.22397e+07
8.15456e+07
8.09129e+07
8.0221e+07
7.96079e+07
7.89164e+07
7.83216e+07
7.76283e+07
7.70501e+07
7.63512e+07
7.57868e+07
7.50739e+07
7.45169e+07
7.37739e+07
7.32165e+07
7.24348e+07
7.18865e+07
1.24903e+08
1.24938e+08
1.2617e+08
1.26483e+08
1.2784e+08
1.28106e+08
1.29272e+08
1.29179e+08
1.29713e+08
1.28593e+08
1.28301e+08
1.26602e+08
1.26035e+08
1.24337e+08
1.2375e+08
1.22162e+08
1.21564e+08
1.20052e+08
1.19429e+08
1.17974e+08
1.17325e+08
1.15924e+08
1.15257e+08
1.13909e+08
1.13229e+08
1.11932e+08
1.11243e+08
1.09995e+08
1.093e+08
1.08098e+08
1.074e+08
1.06242e+08
1.05543e+08
1.04428e+08
1.03729e+08
1.02654e+08
1.01957e+08
1.00921e+08
1.00226e+08
9.92267e+07
9.85358e+07
9.75714e+07
9.68845e+07
9.59536e+07
9.52711e+07
9.43723e+07
9.36943e+07
9.28263e+07
9.21529e+07
9.13144e+07
9.06456e+07
8.98353e+07
8.9171e+07
8.83879e+07
8.77278e+07
8.6971e+07
8.63148e+07
8.55832e+07
8.49306e+07
8.42233e+07
8.35739e+07
8.28899e+07
8.2243e+07
8.15815e+07
8.09363e+07
8.02963e+07
7.96516e+07
7.9032e+07
7.83862e+07
7.77858e+07
7.71368e+07
7.65539e+07
7.58981e+07
7.53299e+07
7.4659e+07
7.40996e+07
7.3398e+07
7.28396e+07
7.20987e+07
7.15508e+07
1.24127e+08
1.24125e+08
1.25355e+08
1.25632e+08
1.26985e+08
1.27107e+08
1.28014e+08
1.27316e+08
1.2735e+08
1.25779e+08
1.25358e+08
1.2366e+08
1.23186e+08
1.21589e+08
1.21113e+08
1.19594e+08
1.19093e+08
1.17625e+08
1.17093e+08
1.15672e+08
1.15115e+08
1.13741e+08
1.13166e+08
1.11839e+08
1.1125e+08
1.09968e+08
1.09368e+08
1.0813e+08
1.07522e+08
1.06327e+08
1.05714e+08
1.0456e+08
1.03943e+08
1.02829e+08
1.0221e+08
1.01134e+08
1.00514e+08
9.94748e+07
9.88557e+07
9.78516e+07
9.72336e+07
9.62635e+07
9.56472e+07
9.47098e+07
9.40956e+07
9.31897e+07
9.25779e+07
9.17023e+07
9.1093e+07
9.02467e+07
8.96398e+07
8.88218e+07
8.82174e+07
8.74266e+07
8.68246e+07
8.60601e+07
8.54603e+07
8.47213e+07
8.41233e+07
8.34089e+07
8.28125e+07
8.21219e+07
8.15264e+07
8.08587e+07
8.02634e+07
7.96178e+07
7.90216e+07
7.83971e+07
7.77984e+07
7.71938e+07
7.65906e+07
7.60044e+07
7.53933e+07
7.48227e+07
7.41958e+07
7.3635e+07
7.29769e+07
7.24184e+07
7.17209e+07
7.11741e+07
1.23283e+08
1.23266e+08
1.24484e+08
1.24734e+08
1.25933e+08
1.25666e+08
1.26062e+08
1.24747e+08
1.24478e+08
1.22823e+08
1.22424e+08
1.20828e+08
1.20439e+08
1.18926e+08
1.18525e+08
1.17059e+08
1.16629e+08
1.15202e+08
1.14744e+08
1.13357e+08
1.12878e+08
1.11532e+08
1.11035e+08
1.0973e+08
1.0922e+08
1.07955e+08
1.07434e+08
1.06209e+08
1.0568e+08
1.04494e+08
1.03958e+08
1.0281e+08
1.02269e+08
1.01159e+08
1.00614e+08
9.95396e+07
9.89931e+07
9.79535e+07
9.74057e+07
9.64e+07
9.58515e+07
9.48786e+07
9.43301e+07
9.33891e+07
9.28409e+07
9.19306e+07
9.13831e+07
9.05027e+07
8.99559e+07
8.91043e+07
8.85585e+07
8.77349e+07
8.71899e+07
8.63935e+07
8.58493e+07
8.50793e+07
8.45356e+07
8.37912e+07
8.3248e+07
8.25284e+07
8.19852e+07
8.12898e+07
8.07462e+07
8.0074e+07
7.95293e+07
7.88797e+07
7.83328e+07
7.77047e+07
7.71543e+07
7.65467e+07
7.59908e+07
7.54022e+07
7.48375e+07
7.42652e+07
7.3684e+07
7.31226e+07
7.25101e+07
7.19522e+07
7.13003e+07
7.07552e+07
1.22444e+08
1.22431e+08
1.23588e+08
1.23636e+08
1.24427e+08
1.23494e+08
1.23437e+08
1.21886e+08
1.21546e+08
1.19959e+08
1.19619e+08
1.18114e+08
1.17784e+08
1.1633e+08
1.1598e+08
1.14559e+08
1.14183e+08
1.12793e+08
1.12396e+08
1.11041e+08
1.10626e+08
1.09306e+08
1.08877e+08
1.07594e+08
1.07153e+08
1.05905e+08
1.05454e+08
1.04243e+08
1.03784e+08
1.02609e+08
1.02143e+08
1.01003e+08
1.00532e+08
9.94273e+07
9.89525e+07
9.78814e+07
9.74035e+07
9.63657e+07
9.58854e+07
9.48802e+07
9.43982e+07
9.34247e+07
9.29413e+07
9.19987e+07
9.15144e+07
9.06018e+07
9.01168e+07
8.92335e+07
8.87479e+07
8.78931e+07
8.7407e+07
8.658e+07
8.60934e+07
8.52934e+07
8.48063e+07
8.40325e+07
8.35448e+07
8.27967e+07
8.23081e+07
8.15849e+07
8.10952e+07
8.03963e+07
7.9905e+07
7.92296e+07
7.87361e+07
7.80836e+07
7.75869e+07
7.69563e+07
7.64552e+07
7.58454e+07
7.53379e+07
7.47477e+07
7.42307e+07
7.36575e+07
7.31235e+07
7.2562e+07
7.19968e+07
7.14401e+07
7.08358e+07
7.02927e+07
1.21605e+08
1.21516e+08
1.2244e+08
1.21974e+08
1.22225e+08
1.20884e+08
1.2061e+08
1.19057e+08
1.18726e+08
1.17231e+08
1.16932e+08
1.15494e+08
1.15197e+08
1.13788e+08
1.13475e+08
1.12089e+08
1.11758e+08
1.104e+08
1.10054e+08
1.08725e+08
1.08366e+08
1.07069e+08
1.067e+08
1.05435e+08
1.05056e+08
1.03824e+08
1.03436e+08
1.02238e+08
1.01843e+08
1.00678e+08
1.00278e+08
9.9146e+07
9.87408e+07
9.76416e+07
9.72323e+07
9.61656e+07
9.57527e+07
9.47179e+07
9.43021e+07
9.32986e+07
9.28803e+07
9.19075e+07
9.1487e+07
9.05443e+07
9.01219e+07
8.92085e+07
8.87844e+07
8.78998e+07
8.74741e+07
8.66175e+07
8.61902e+07
8.53611e+07
8.49323e+07
8.41299e+07
8.36995e+07
8.29233e+07
8.24912e+07
8.17406e+07
8.13066e+07
8.0581e+07
8.01448e+07
7.94435e+07
7.90049e+07
7.83273e+07
7.78855e+07
7.7231e+07
7.67851e+07
7.61528e+07
7.57017e+07
7.50906e+07
7.46324e+07
7.40412e+07
7.35729e+07
7.29994e+07
7.25139e+07
7.19528e+07
7.14364e+07
7.08811e+07
7.03261e+07
6.97854e+07
1.20626e+08
1.20332e+08
1.20814e+08
1.19855e+08
1.19679e+08
1.18244e+08
1.17868e+08
1.16388e+08
1.16058e+08
1.14629e+08
1.14343e+08
1.12946e+08
1.12667e+08
1.11288e+08
1.11003e+08
1.09644e+08
1.09351e+08
1.08015e+08
1.07714e+08
1.06406e+08
1.06097e+08
1.04818e+08
1.04502e+08
1.03252e+08
1.0293e+08
1.01711e+08
1.01383e+08
1.00195e+08
9.98614e+07
9.87051e+07
9.83665e+07
9.72417e+07
9.68987e+07
9.58053e+07
9.54583e+07
9.43961e+07
9.40456e+07
9.30141e+07
9.26603e+07
9.16593e+07
9.13025e+07
9.03313e+07
8.99718e+07
8.90299e+07
8.86678e+07
8.77547e+07
8.73901e+07
8.65052e+07
8.61383e+07
8.5281e+07
8.49117e+07
8.40815e+07
8.37097e+07
8.29062e+07
8.25319e+07
8.17544e+07
8.13775e+07
8.06254e+07
8.02459e+07
7.95187e+07
7.91361e+07
7.84334e+07
7.80475e+07
7.73686e+07
7.69787e+07
7.63229e+07
7.59284e+07
7.5295e+07
7.48945e+07
7.42825e+07
7.38744e+07
7.32827e+07
7.28641e+07
7.22905e+07
7.18546e+07
7.12941e+07
7.08278e+07
7.02742e+07
6.97699e+07
6.92315e+07
1.19361e+08
1.18779e+08
1.18826e+08
1.17623e+08
1.17191e+08
1.1574e+08
1.15293e+08
1.13849e+08
1.13505e+08
1.12101e+08
1.11818e+08
1.10437e+08
1.10173e+08
1.08809e+08
1.08551e+08
1.07206e+08
1.06949e+08
1.05628e+08
1.05369e+08
1.04074e+08
1.03813e+08
1.02545e+08
1.02281e+08
1.01042e+08
1.00774e+08
9.95648e+07
9.92932e+07
9.81136e+07
9.78381e+07
9.6689e+07
9.64097e+07
9.5291e+07
9.50079e+07
9.39196e+07
9.3633e+07
9.25749e+07
9.22848e+07
9.12567e+07
9.09632e+07
8.99647e+07
8.9668e+07
8.86987e+07
8.83989e+07
8.74583e+07
8.71553e+07
8.62431e+07
8.5937e+07
8.50526e+07
8.47434e+07
8.38863e+07
8.35741e+07
8.27437e+07
8.24284e+07
8.16244e+07
8.13058e+07
8.05277e+07
8.02058e+07
7.9453e+07
7.91277e+07
7.83997e+07
7.80707e+07
7.73671e+07
7.70341e+07
7.63544e+07
7.60168e+07
7.53602e+07
7.50173e+07
7.43832e+07
7.40339e+07
7.34214e+07
7.3064e+07
7.24721e+07
7.21039e+07
7.15304e+07
7.1145e+07
7.05852e+07
7.017e+07
6.96181e+07
6.91658e+07
6.86297e+07
1.17723e+08
1.16894e+08
1.16706e+08
1.15348e+08
1.14782e+08
1.13287e+08
1.128e+08
1.11343e+08
1.10993e+08
1.09582e+08
1.09308e+08
1.07924e+08
1.07682e+08
1.0632e+08
1.06092e+08
1.04752e+08
1.04533e+08
1.03217e+08
1.03003e+08
1.01714e+08
1.01502e+08
1.00241e+08
1.00028e+08
9.87957e+07
9.85822e+07
9.73788e+07
9.71633e+07
9.59895e+07
9.57714e+07
9.46275e+07
9.44065e+07
9.32925e+07
9.30684e+07
9.19842e+07
9.17568e+07
9.07023e+07
9.04715e+07
8.94465e+07
8.92122e+07
8.82163e+07
8.79786e+07
8.70114e+07
8.67701e+07
8.58312e+07
8.55865e+07
8.46755e+07
8.44271e+07
8.35436e+07
8.32916e+07
8.24351e+07
8.21794e+07
8.13495e+07
8.10901e+07
8.02862e+07
8.0023e+07
7.92448e+07
7.89777e+07
7.82247e+07
7.79535e+07
7.72252e+07
7.69497e+07
7.62458e+07
7.59657e+07
7.52855e+07
7.50003e+07
7.43434e+07
7.40524e+07
7.34179e+07
7.31201e+07
7.25074e+07
7.22011e+07
7.16091e+07
7.12919e+07
7.07185e+07
7.03843e+07
6.98253e+07
6.9462e+07
6.89117e+07
6.85124e+07
6.79785e+07
1.1563e+08
1.14608e+08
1.14382e+08
1.12886e+08
1.12302e+08
1.10738e+08
1.10264e+08
1.08767e+08
1.08442e+08
1.07005e+08
1.06762e+08
1.05361e+08
1.05156e+08
1.03784e+08
1.03599e+08
1.02254e+08
1.02081e+08
1.00764e+08
1.006e+08
9.93112e+07
9.91511e+07
9.78919e+07
9.77339e+07
9.65041e+07
9.63465e+07
9.51464e+07
9.49879e+07
9.38176e+07
9.36574e+07
9.2517e+07
9.23545e+07
9.12439e+07
9.10785e+07
8.99976e+07
8.98291e+07
8.87776e+07
8.86057e+07
8.75833e+07
8.74078e+07
8.64142e+07
8.6235e+07
8.52698e+07
8.50867e+07
8.41496e+07
8.39625e+07
8.3053e+07
8.28618e+07
8.19795e+07
8.17842e+07
8.09287e+07
8.07292e+07
7.99e+07
7.96962e+07
7.88929e+07
7.86847e+07
7.79069e+07
7.76943e+07
7.69415e+07
7.67242e+07
7.59961e+07
7.5774e+07
7.50701e+07
7.48429e+07
7.41626e+07
7.39299e+07
7.32728e+07
7.30338e+07
7.23993e+07
7.21531e+07
7.15402e+07
7.12855e+07
7.06934e+07
7.04276e+07
6.98544e+07
6.95719e+07
6.90135e+07
6.87028e+07
6.81539e+07
6.78084e+07
6.72764e+07
1.13104e+08
1.11942e+08
1.11774e+08
1.10176e+08
1.09648e+08
1.08021e+08
1.07603e+08
1.06064e+08
1.05793e+08
1.04326e+08
1.04136e+08
1.02714e+08
1.02562e+08
1.01176e+08
1.01045e+08
9.96907e+07
9.95732e+07
9.82508e+07
9.81424e+07
9.68513e+07
9.67484e+07
9.54883e+07
9.53882e+07
9.41588e+07
9.40597e+07
9.28609e+07
9.27613e+07
9.1593e+07
9.1492e+07
9.03539e+07
9.02506e+07
8.91425e+07
8.90364e+07
8.7958e+07
8.78486e+07
8.67997e+07
8.66866e+07
8.56667e+07
8.55498e+07
8.45585e+07
8.44374e+07
8.34744e+07
8.33491e+07
8.24138e+07
8.22841e+07
8.13763e+07
8.1242e+07
8.03612e+07
8.02223e+07
7.9368e+07
7.92243e+07
7.83962e+07
7.82478e+07
7.74453e+07
7.7292e+07
7.65149e+07
7.63565e+07
7.56043e+07
7.54408e+07
7.4713e+07
7.45443e+07
7.38406e+07
7.36662e+07
7.29861e+07
7.28058e+07
7.21488e+07
7.19619e+07
7.13273e+07
7.11329e+07
7.052e+07
7.03169e+07
6.97248e+07
6.95106e+07
6.89376e+07
6.8707e+07
6.81492e+07
6.78915e+07
6.73439e+07
6.70527e+07
6.65222e+07
1.10238e+08
1.08981e+08
1.08903e+08
1.07237e+08
1.06799e+08
1.05125e+08
1.04791e+08
1.03216e+08
1.03021e+08
1.01526e+08
1.01406e+08
9.99645e+07
9.98792e+07
9.84784e+07
9.84121e+07
9.7048e+07
9.69942e+07
9.56651e+07
9.56196e+07
9.43243e+07
9.42837e+07
9.30215e+07
9.29832e+07
9.17532e+07
9.17155e+07
9.05172e+07
9.04787e+07
8.93115e+07
8.92713e+07
8.81349e+07
8.8092e+07
8.6986e+07
8.69399e+07
8.58638e+07
8.5814e+07
8.47674e+07
8.47136e+07
8.3696e+07
8.36378e+07
8.26488e+07
8.2586e+07
8.16251e+07
8.15576e+07
8.06244e+07
8.05519e+07
7.9646e+07
7.95684e+07
7.86893e+07
7.86065e+07
7.77538e+07
7.76657e+07
7.6839e+07
7.67456e+07
7.59444e+07
7.58456e+07
7.50695e+07
7.49651e+07
7.42138e+07
7.41038e+07
7.33768e+07
7.32611e+07
7.25579e+07
7.24362e+07
7.17565e+07
7.16285e+07
7.09716e+07
7.08368e+07
7.02022e+07
7.00596e+07
6.94467e+07
6.92952e+07
6.87031e+07
6.85406e+07
6.79677e+07
6.77892e+07
6.72318e+07
6.70273e+07
6.64808e+07
6.62442e+07
6.5715e+07
1.07118e+08
1.05794e+08
1.05814e+08
1.04103e+08
1.0377e+08
1.02064e+08
1.01827e+08
1.00227e+08
1.00119e+08
9.86035e+07
9.85641e+07
9.71066e+07
9.70977e+07
9.56849e+07
9.56917e+07
9.43189e+07
9.43356e+07
9.30007e+07
9.30235e+07
9.17246e+07
9.17508e+07
9.04865e+07
9.05137e+07
8.92829e+07
8.93096e+07
8.81115e+07
8.81364e+07
8.69704e+07
8.69926e+07
8.58579e+07
8.58767e+07
8.47727e+07
8.47877e+07
8.37138e+07
8.37244e+07
8.26802e+07
8.2686e+07
8.16709e+07
8.16717e+07
8.06852e+07
8.06808e+07
7.97224e+07
7.97125e+07
7.87817e+07
7.87663e+07
7.78626e+07
7.78415e+07
7.69645e+07
7.69376e+07
7.60868e+07
7.60541e+07
7.52291e+07
7.51905e+07
7.43908e+07
7.43463e+07
7.35715e+07
7.3521e+07
7.27707e+07
7.27141e+07
7.19879e+07
7.19251e+07
7.12226e+07
7.11534e+07
7.04742e+07
7.03983e+07
6.97418e+07
6.96587e+07
6.90244e+07
6.89334e+07
6.83205e+07
6.82205e+07
6.76283e+07
6.75175e+07
6.69445e+07
6.68181e+07
6.62611e+07
6.61097e+07
6.55642e+07
6.53821e+07
6.48541e+07
1.038e+08
1.02427e+08
1.02544e+08
1.00806e+08
1.00582e+08
9.88566e+07
9.87228e+07
9.7106e+07
9.7092e+07
9.55633e+07
9.56113e+07
9.4143e+07
9.42166e+07
9.27957e+07
9.28811e+07
9.15026e+07
9.15946e+07
9.02558e+07
9.03512e+07
8.90501e+07
8.91465e+07
8.78813e+07
8.79769e+07
8.67463e+07
8.68396e+07
8.56426e+07
8.57327e+07
8.45683e+07
8.46545e+07
8.3522e+07
8.36037e+07
8.25022e+07
8.2579e+07
8.15079e+07
8.15793e+07
8.0538e+07
8.06039e+07
7.95917e+07
7.96517e+07
7.86681e+07
7.87221e+07
7.77666e+07
7.78144e+07
7.68864e+07
7.6928e+07
7.60269e+07
7.60622e+07
7.51876e+07
7.52165e+07
7.43679e+07
7.43904e+07
7.35674e+07
7.35833e+07
7.27855e+07
7.2795e+07
7.20218e+07
7.20248e+07
7.12759e+07
7.12723e+07
7.05473e+07
7.0537e+07
6.98355e+07
6.98184e+07
6.91399e+07
6.91158e+07
6.84598e+07
6.84282e+07
6.77941e+07
6.77544e+07
6.71417e+07
6.70929e+07
6.65007e+07
6.64412e+07
6.58682e+07
6.57936e+07
6.52368e+07
6.51385e+07
6.45938e+07
6.44662e+07
6.3939e+07
1.00321e+08
9.89105e+07
9.91234e+07
9.73697e+07
9.72565e+07
9.55218e+07
9.54928e+07
9.38683e+07
9.3951e+07
9.24154e+07
9.2554e+07
9.10804e+07
9.12398e+07
8.98153e+07
8.99825e+07
8.86018e+07
8.87721e+07
8.74324e+07
8.76031e+07
8.6302e+07
8.6471e+07
8.52068e+07
8.53727e+07
8.41438e+07
8.43055e+07
8.31107e+07
8.32675e+07
8.21058e+07
8.22571e+07
8.11276e+07
8.12731e+07
8.01749e+07
8.03142e+07
7.92465e+07
7.93793e+07
7.83415e+07
7.84677e+07
7.74591e+07
7.75785e+07
7.65984e+07
7.67109e+07
7.57588e+07
7.58643e+07
7.49395e+07
7.50379e+07
7.414e+07
7.42314e+07
7.33598e+07
7.34441e+07
7.25983e+07
7.26755e+07
7.18551e+07
7.19252e+07
7.11296e+07
7.11927e+07
7.04216e+07
7.04775e+07
6.97305e+07
6.97794e+07
6.90559e+07
6.90977e+07
6.83975e+07
6.8432e+07
6.77545e+07
6.77817e+07
6.71264e+07
6.71458e+07
6.65122e+07
6.65233e+07
6.59108e+07
6.59128e+07
6.53207e+07
6.5312e+07
6.47391e+07
6.47159e+07
6.41594e+07
6.41137e+07
6.35697e+07
6.34961e+07
6.29697e+07
9.67104e+07
9.5271e+07
9.55762e+07
9.38165e+07
9.38124e+07
9.20771e+07
9.21527e+07
9.05275e+07
9.07075e+07
8.91712e+07
8.94014e+07
8.79277e+07
8.81743e+07
8.67505e+07
8.70011e+07
8.56219e+07
8.58721e+07
8.45345e+07
8.47819e+07
8.34836e+07
8.37266e+07
8.24656e+07
8.27029e+07
8.14777e+07
8.17087e+07
8.05179e+07
8.0742e+07
7.95845e+07
7.98016e+07
7.86764e+07
7.88861e+07
7.77923e+07
7.79944e+07
7.69312e+07
7.71256e+07
7.60923e+07
7.62788e+07
7.52746e+07
7.54533e+07
7.44775e+07
7.46483e+07
7.37004e+07
7.38633e+07
7.29425e+07
7.30975e+07
7.22034e+07
7.23505e+07
7.14825e+07
7.16218e+07
7.07793e+07
7.09108e+07
7.00935e+07
7.02173e+07
6.94245e+07
6.95406e+07
6.87721e+07
6.88805e+07
6.81357e+07
6.82366e+07
6.7515e+07
6.76083e+07
6.69096e+07
6.69953e+07
6.63191e+07
6.6397e+07
6.57426e+07
6.58125e+07
6.51796e+07
6.52409e+07
6.46288e+07
6.4681e+07
6.40891e+07
6.41307e+07
6.35578e+07
6.35856e+07
6.30293e+07
6.30356e+07
6.24924e+07
6.24723e+07
6.19465e+07
9.29894e+07
9.1529e+07
9.19226e+07
9.01647e+07
9.02675e+07
8.85386e+07
8.87172e+07
8.70976e+07
8.73738e+07
8.58424e+07
8.61636e+07
8.46948e+07
8.50284e+07
8.36097e+07
8.39437e+07
8.25698e+07
8.29001e+07
8.1568e+07
8.18925e+07
8.05998e+07
8.09171e+07
7.96617e+07
7.9971e+07
7.87515e+07
7.90521e+07
7.78672e+07
7.8159e+07
7.70074e+07
7.72903e+07
7.6171e+07
7.64449e+07
7.53569e+07
7.56217e+07
7.45643e+07
7.48201e+07
7.37923e+07
7.40391e+07
7.30403e+07
7.3278e+07
7.23075e+07
7.25363e+07
7.15933e+07
7.18132e+07
7.08973e+07
7.11084e+07
7.02188e+07
7.04212e+07
6.95575e+07
6.97512e+07
6.89128e+07
6.9098e+07
6.82844e+07
6.84612e+07
6.76719e+07
6.78404e+07
6.70749e+07
6.72352e+07
6.64931e+07
6.66452e+07
6.59261e+07
6.60702e+07
6.53735e+07
6.55096e+07
6.4835e+07
6.49629e+07
6.43099e+07
6.44294e+07
6.37975e+07
6.39083e+07
6.32969e+07
6.33984e+07
6.28069e+07
6.28981e+07
6.23255e+07
6.24033e+07
6.18474e+07
6.19051e+07
6.13628e+07
6.13953e+07
6.08702e+07
8.91774e+07
8.77021e+07
8.81804e+07
8.64305e+07
8.66374e+07
8.49209e+07
8.52001e+07
8.35915e+07
8.39619e+07
8.24403e+07
8.28511e+07
8.13915e+07
8.18111e+07
8.04014e+07
8.08182e+07
7.9453e+07
7.9863e+07
7.85394e+07
7.89406e+07
7.76563e+07
7.80476e+07
7.68005e+07
7.71813e+07
7.59698e+07
7.63399e+07
7.51628e+07
7.5522e+07
7.4378e+07
7.47265e+07
7.36147e+07
7.39524e+07
7.28718e+07
7.3199e+07
7.21486e+07
7.24654e+07
7.14445e+07
7.17509e+07
7.07587e+07
7.1055e+07
7.00908e+07
7.0377e+07
6.94401e+07
6.97164e+07
6.88062e+07
6.90727e+07
6.81886e+07
6.84456e+07
6.75869e+07
6.78344e+07
6.70008e+07
6.7239e+07
6.64298e+07
6.66589e+07
6.58736e+07
6.60938e+07
6.5332e+07
6.55433e+07
6.48045e+07
6.50072e+07
6.42909e+07
6.4485e+07
6.37908e+07
6.39764e+07
6.33039e+07
6.3481e+07
6.28297e+07
6.2998e+07
6.23674e+07
6.25268e+07
6.19164e+07
6.20664e+07
6.14757e+07
6.16155e+07
6.10435e+07
6.11704e+07
6.06152e+07
6.07233e+07
6.01819e+07
6.02662e+07
5.97418e+07
8.52906e+07
8.38058e+07
8.43649e+07
8.26286e+07
8.29363e+07
8.12372e+07
8.16142e+07
8.00213e+07
8.04835e+07
7.89759e+07
7.94741e+07
7.80277e+07
7.85316e+07
7.71345e+07
7.76325e+07
7.62795e+07
7.67678e+07
7.54559e+07
7.59327e+07
7.46595e+07
7.51239e+07
7.38875e+07
7.4339e+07
7.31379e+07
7.35765e+07
7.24093e+07
7.28352e+07
7.17008e+07
7.21141e+07
7.10115e+07
7.14125e+07
7.03407e+07
7.07295e+07
6.96877e+07
7.00647e+07
6.9052e+07
6.94174e+07
6.8433e+07
6.8787e+07
6.78303e+07
6.81731e+07
6.72433e+07
6.75753e+07
6.66718e+07
6.6993e+07
6.61152e+07
6.6426e+07
6.55733e+07
6.58738e+07
6.50456e+07
6.53361e+07
6.4532e+07
6.48126e+07
6.4032e+07
6.4303e+07
6.35455e+07
6.3807e+07
6.30721e+07
6.33243e+07
6.26116e+07
6.28547e+07
6.21636e+07
6.23977e+07
6.17279e+07
6.19531e+07
6.1304e+07
6.15201e+07
6.08914e+07
6.10983e+07
6.04893e+07
6.06868e+07
6.00972e+07
6.02845e+07
5.97134e+07
5.98885e+07
5.93342e+07
5.94916e+07
5.89515e+07
5.90863e+07
5.8563e+07
8.13436e+07
7.98538e+07
8.049e+07
7.87719e+07
7.91771e+07
7.74998e+07
7.79715e+07
7.63982e+07
7.69494e+07
7.54596e+07
7.60428e+07
7.46131e+07
7.5199e+07
7.38178e+07
7.43951e+07
7.30572e+07
7.36222e+07
7.23246e+07
7.28755e+07
7.1616e+07
7.21521e+07
7.09288e+07
7.14498e+07
7.02612e+07
7.07672e+07
6.9612e+07
7.01034e+07
6.89805e+07
6.94575e+07
6.83659e+07
6.8829e+07
6.77677e+07
6.82172e+07
6.71854e+07
6.76217e+07
6.66185e+07
6.70419e+07
6.60666e+07
6.64774e+07
6.55293e+07
6.59279e+07
6.50063e+07
6.53929e+07
6.44972e+07
6.48721e+07
6.40016e+07
6.43652e+07
6.35194e+07
6.38718e+07
6.30501e+07
6.33917e+07
6.25937e+07
6.29247e+07
6.21497e+07
6.24704e+07
6.1718e+07
6.20286e+07
6.12983e+07
6.15991e+07
6.08905e+07
6.11815e+07
6.04942e+07
6.07758e+07
6.01092e+07
6.03814e+07
5.97351e+07
5.99979e+07
5.93715e+07
5.96248e+07
5.90178e+07
5.92615e+07
5.86735e+07
5.89072e+07
5.83375e+07
5.85594e+07
5.80066e+07
5.82119e+07
5.76735e+07
5.78576e+07
5.73356e+07
7.73492e+07
7.58588e+07
7.65683e+07
7.48725e+07
7.53715e+07
7.37199e+07
7.42828e+07
7.27329e+07
7.33698e+07
7.19013e+07
7.25665e+07
7.11568e+07
7.1822e+07
7.04597e+07
7.1114e+07
6.97941e+07
7.04335e+07
6.9153e+07
6.9776e+07
6.85327e+07
6.91387e+07
6.79308e+07
6.85196e+07
6.73456e+07
6.79175e+07
6.67763e+07
6.73317e+07
6.62221e+07
6.67615e+07
6.56826e+07
6.62065e+07
6.51573e+07
6.56662e+07
6.46459e+07
6.51402e+07
6.4148e+07
6.46281e+07
6.36633e+07
6.41297e+07
6.31915e+07
6.36446e+07
6.27324e+07
6.31725e+07
6.22856e+07
6.27131e+07
6.1851e+07
6.22662e+07
6.14283e+07
6.18315e+07
6.10172e+07
6.14089e+07
6.06177e+07
6.0998e+07
6.02294e+07
6.05987e+07
5.98522e+07
6.02107e+07
5.94859e+07
5.98339e+07
5.91303e+07
5.94681e+07
5.87852e+07
5.9113e+07
5.84504e+07
5.87683e+07
5.81256e+07
5.84337e+07
5.78104e+07
5.81088e+07
5.75043e+07
5.7793e+07
5.72072e+07
5.74858e+07
5.69181e+07
5.71855e+07
5.66347e+07
5.68866e+07
5.63505e+07
5.65823e+07
5.60621e+07
7.33195e+07
7.18322e+07
7.26112e+07
7.09413e+07
7.15306e+07
6.9908e+07
7.05586e+07
6.90352e+07
6.97545e+07
6.83102e+07
6.90544e+07
6.76674e+07
6.84092e+07
6.70686e+07
6.77971e+07
6.64977e+07
6.72092e+07
6.59482e+07
6.66411e+07
6.54163e+07
6.60901e+07
6.48997e+07
6.55544e+07
6.43971e+07
6.5033e+07
6.39076e+07
6.45254e+07
6.34308e+07
6.40311e+07
6.29664e+07
6.35496e+07
6.25141e+07
6.30809e+07
6.20735e+07
6.26245e+07
6.16446e+07
6.21801e+07
6.1227e+07
6.17477e+07
6.08206e+07
6.13269e+07
6.04253e+07
6.09176e+07
6.00407e+07
6.05194e+07
5.96667e+07
6.01323e+07
5.93033e+07
5.97561e+07
5.89501e+07
5.93905e+07
5.86071e+07
5.90355e+07
5.82742e+07
5.86908e+07
5.79511e+07
5.83563e+07
5.76377e+07
5.80318e+07
5.73339e+07
5.77172e+07
5.70395e+07
5.74122e+07
5.67543e+07
5.71167e+07
5.64782e+07
5.68304e+07
5.62107e+07
5.65528e+07
5.59517e+07
5.62839e+07
5.5701e+07
5.60232e+07
5.54581e+07
5.57695e+07
5.52213e+07
5.55184e+07
5.4985e+07
5.5263e+07
5.47452e+07
6.92653e+07
6.77846e+07
6.86293e+07
6.69886e+07
6.76643e+07
6.60738e+07
6.68084e+07
6.53143e+07
6.61126e+07
6.46952e+07
6.55151e+07
6.41535e+07
6.49687e+07
6.36522e+07
6.44521e+07
6.31757e+07
6.39566e+07
6.27173e+07
6.34776e+07
6.22733e+07
6.30126e+07
6.18418e+07
6.25602e+07
6.14214e+07
6.21194e+07
6.10116e+07
6.16899e+07
6.06121e+07
6.12712e+07
6.02225e+07
6.08633e+07
5.98429e+07
6.04659e+07
5.9473e+07
6.00789e+07
5.91127e+07
5.97021e+07
5.8762e+07
5.93354e+07
5.84207e+07
5.89787e+07
5.80887e+07
5.86318e+07
5.7766e+07
5.82946e+07
5.74523e+07
5.79669e+07
5.71478e+07
5.76488e+07
5.68521e+07
5.73399e+07
5.65653e+07
5.70403e+07
5.62872e+07
5.67498e+07
5.60178e+07
5.64683e+07
5.57568e+07
5.61957e+07
5.55043e+07
5.59318e+07
5.52601e+07
5.56764e+07
5.50241e+07
5.54295e+07
5.4796e+07
5.51908e+07
5.45758e+07
5.49601e+07
5.43631e+07
5.47373e+07
5.41581e+07
5.45223e+07
5.39608e+07
5.43146e+07
5.37698e+07
5.41103e+07
5.35806e+07
5.39029e+07
5.33882e+07
6.51967e+07
6.37258e+07
6.46325e+07
6.30238e+07
6.37821e+07
6.22262e+07
6.30412e+07
6.15789e+07
6.24526e+07
6.10645e+07
6.19568e+07
6.06228e+07
6.15083e+07
6.02181e+07
6.10865e+07
5.9835e+07
6.06826e+07
5.9467e+07
6.02921e+07
5.91104e+07
5.99127e+07
5.87632e+07
5.9543e+07
5.84246e+07
5.91824e+07
5.80939e+07
5.88305e+07
5.7771e+07
5.84871e+07
5.74559e+07
5.81522e+07
5.71485e+07
5.78258e+07
5.68487e+07
5.75078e+07
5.65567e+07
5.71981e+07
5.62723e+07
5.68968e+07
5.59956e+07
5.66037e+07
5.57266e+07
5.63188e+07
5.54652e+07
5.60421e+07
5.52115e+07
5.57736e+07
5.49653e+07
5.5513e+07
5.47266e+07