/*--------------------------------*- C++ -*----------------------------------*\
| =========                 |                                                 |
| \\      /  F ield         | OpenFOAM: The Open Source CFD Toolbox           |
|  \\    /   O peration     | Version:  v2012                                 |
|   \\  /    A nd           | Website:  www.openfoam.com                      |
|    \\/     M anipulation  |                                                 |
\*---------------------------------------------------------------------------*/
FoamFile
{
    version     2.0;
    format      ascii;
    class       pointSymmTensorField;
    location    "13";
    object      pEpsilon;
}
// * * * * * * * * * * * * * * * * * * * * * * * * * * * * * * * * * * * * * //

dimensions      [0 0 0 0 0 0 0];


internalField   nonuniform List<symmTensor> 
32562
(
(0.000914984 -2.42663e-05 -3.29597e-16 -0.00226157 0 0)
(0.00100819 -5.04145e-06 -2.15973e-15 -2.05277e-05 0 0)
(0.00121584 1.8052e-07 -3.34585e-15 -0.000521106 2.95147e-15 0)
(0.000532681 6.03572e-05 0 -0.000246326 7.91468e-16 0)
(0.0111255 -0.00028421 0 -0.0100035 -2.07018e-14 0)
(0.000184784 -2.18526e-05 -6.50521e-17 -0.000350967 0 0)
(0.00298424 0.000112321 0 -0.000553531 -4.08961e-15 0)
(0.00167977 -0.000356516 2.086e-15 -0.00108281 -4.40891e-15 0)
(0.00270498 -5.66906e-06 3.05311e-15 -0.00117037 1.94723e-15 0)
(0.00113349 -9.67969e-06 -3.90313e-16 -0.000325563 1.25578e-15 0)
(0.000134022 -0.000243894 3.03577e-16 4.80937e-05 8.45678e-17 0)
(0.000134022 -0.000243894 3.03577e-16 4.80937e-05 8.45678e-17 0)
(0.00167977 -0.000356516 2.086e-15 -0.00108281 -4.40891e-15 0)
(0.00298424 0.000112321 0 -0.000553531 -4.08961e-15 0)
(0.0111255 -0.00028421 0 -0.0100035 -2.07018e-14 0)
(0.000914984 -2.42663e-05 -3.29597e-16 -0.00226157 0 0)
(0.000184784 -2.18526e-05 -6.50521e-17 -0.000350967 0 0)
(0.00100819 -5.04145e-06 -2.15973e-15 -2.05277e-05 0 0)
(0.00113349 -9.67969e-06 -3.90313e-16 -0.000325563 1.25578e-15 0)
(0.00121584 1.8052e-07 -3.34585e-15 -0.000521106 2.95147e-15 0)
(0.00270498 -5.66906e-06 3.05311e-15 -0.00117037 1.94723e-15 0)
(0.000532681 6.03572e-05 0 -0.000246326 7.91468e-16 0)
(0.00295872 0.000101216 2.939e-15 -0.000597713 3.71014e-15 0)
(0.00297181 0.00019066 -8.56791e-16 -0.000639566 6.90854e-15 0)
(0.00299314 0.00026988 -9.51387e-17 -0.000705047 6.54858e-15 0)
(0.00302376 0.000327687 -4.61884e-15 -0.000794164 6.09755e-15 0)
(0.00307515 0.000367501 -7.09665e-15 -0.000918742 -6.22332e-16 0)
(0.00313923 0.000396324 3.35615e-15 -0.00105884 -2.09902e-15 0)
(0.00320928 0.000417101 2.95879e-15 -0.00120351 5.47956e-15 0)
(0.00327576 0.000429434 1.10995e-15 -0.00134294 -1.34658e-15 0)
(0.00333227 0.000433235 2.24972e-15 -0.00147097 -4.35849e-15 0)
(0.00337329 0.000428179 1.11375e-15 -0.0015822 -1.43332e-15 0)
(0.00339463 0.000414044 -5.11039e-15 -0.00167284 -6.31006e-15 0)
(0.00339364 0.000391342 1.02078e-15 -0.00174032 4.06793e-15 0)
(0.00336866 0.000360903 1.06957e-15 -0.00178301 -4.44523e-15 0)
(0.00331876 0.000323876 -6.60821e-16 -0.00179991 -1.5645e-15 0)
(0.00324372 0.000281735 -1.90061e-15 -0.00179073 -5.58906e-15 0)
(0.00314448 0.000236168 5.47414e-15 -0.00175643 -3.09973e-15 0)
(0.00302309 0.000189205 -1.65883e-16 -0.00169874 2.704e-15 0)
(0.00288355 0.000143879 5.08924e-15 -0.00162031 -2.97939e-15 0)
(0.00273477 0.000104813 1.11413e-14 -0.001527 -1.15034e-15 0)
(0.0025918 7.73407e-05 2.21719e-15 -0.00143006 -1.89735e-15 0)
(0.0024754 6.4373e-05 -8.33751e-16 -0.0013478 -8.25078e-16 0)
(0.00239776 5.94211e-05 -2.31152e-15 -0.00129832 -1.16443e-15 0)
(0.0023503 5.30575e-05 -6.67977e-15 -0.00127833 2.42861e-15 0)
(0.00231333 4.59411e-05 -5.36463e-15 -0.0012623 1.02132e-15 0)
(0.00227784 3.45303e-05 3.2461e-15 -0.00124637 -2.17816e-15 0)
(0.00224209 1.93067e-05 -3.46945e-16 -0.00123135 4.80302e-16 0)
(0.00220632 1.37984e-06 4.9071e-15 -0.00121762 -3.62124e-16 0)
(0.00217057 -1.85935e-05 3.57136e-15 -0.00120514 -2.07842e-15 0)
(0.00213476 -4.02065e-05 4.8518e-15 -0.00119374 -3.4792e-15 0)
(0.00209876 -6.3177e-05 9.07152e-15 -0.00118317 -2.35055e-15 0)
(0.00206239 -8.72887e-05 -1.73364e-15 -0.00117321 -1.84694e-15 0)
(0.00202552 -0.000112357 -2.37115e-15 -0.00116361 -3.68087e-15 0)
(0.00198801 -0.00013821 -3.0195e-15 -0.00115416 2.43512e-15 0)
(0.00194974 -0.000164677 1.01069e-14 -0.00114469 3.26941e-15 0)
(0.00191065 -0.000191576 -1.23816e-15 -0.00113505 -1.95102e-15 0)
(0.00187074 -0.000218686 -5.43185e-16 -0.00112518 -1.28803e-15 0)
(0.00183016 -0.000245654 3.56377e-15 -0.00111515 -3.32308e-15 0)
(0.00178947 -0.000271565 -2.2508e-15 -0.0011054 2.19551e-16 0)
(0.00175016 -0.000292324 -6.85541e-15 -0.00109778 1.4962e-15 0)
(0.00163047 -0.000383764 -1.71954e-15 -0.00103976 -4.61436e-15 0)
(0.00158669 -0.000407948 -8.06646e-16 -0.00103389 -2.07679e-15 0)
(0.00154049 -0.000430628 -1.52656e-15 -0.00102165 9.12356e-16 0)
(0.00149272 -0.000452129 1.21214e-15 -0.00100627 1.32083e-15 0)
(0.00144379 -0.000472375 4.84638e-15 -0.000988874 1.26852e-16 0)
(0.00139394 -0.000491214 1.17311e-15 -0.000969956 1.09965e-15 0)
(0.00134336 -0.000508491 -6.15827e-16 -0.000949795 4.55094e-16 0)
(0.00129221 -0.000524062 -2.75604e-15 -0.000928567 -1.56179e-15 0)
(0.00124063 -0.000537803 -9.32414e-16 -0.00090641 -2.00415e-15 0)
(0.00118877 -0.000549604 -1.48969e-15 -0.00088344 -3.82994e-16 0)
(0.00113678 -0.000559376 -6.80879e-16 -0.00085977 -1.40946e-16 0)
(0.0010848 -0.000567043 4.11997e-16 -0.000835507 1.45961e-15 0)
(0.00103297 -0.000572546 -9.12898e-16 -0.000810762 7.03105e-16 0)
(0.000981456 -0.000575839 3.10082e-16 -0.000785647 1.28993e-15 0)
(0.000930393 -0.000576889 -8.89046e-16 -0.000760273 1.15833e-15 0)
(0.000879935 -0.000575676 9.15067e-16 -0.000734755 1.17799e-15 0)
(0.000830228 -0.000572192 -2.38524e-17 -0.000709209 2.16027e-16 0)
(0.000781421 -0.000566442 3.16587e-16 -0.000683748 1.40946e-17 0)
(0.000733658 -0.000558441 1.19045e-15 -0.000658488 -6.53232e-17 0)
(0.000687082 -0.000548215 1.10589e-16 -0.000633543 7.07035e-16 0)
(0.00064183 -0.000535799 8.58688e-16 -0.000609025 5.84114e-17 0)
(0.00059804 -0.000521241 1.60462e-16 -0.000585045 -4.51028e-16 0)
(0.000555842 -0.000504596 -2.51535e-16 -0.00056171 3.55415e-16 0)
(0.000515364 -0.000485929 -2.9924e-16 -0.000539126 1.9807e-16 0)
(0.000476727 -0.000465314 -8.67362e-17 -0.000517394 2.76743e-16 0)
(0.00044005 -0.000442831 -2.38524e-17 -0.000496613 -1.84721e-16 0)
(0.000405443 -0.00041857 -8.67362e-18 -0.000476876 -5.24347e-16 0)
(0.000373013 -0.000392629 -6.93889e-17 -0.000458272 -9.26993e-17 0)
(0.000342859 -0.00036511 -2.08167e-16 -0.000440887 -1.10589e-16 0)
(0.000315075 -0.000336123 -2.08167e-16 -0.0004248 -7.2235e-17 0)
(0.00028975 -0.000305785 -5.63785e-17 -0.000410087 -2.19415e-16 0)
(0.000266963 -0.000274216 -9.97466e-17 -0.000396816 -1.36237e-16 0)
(0.000246791 -0.000241543 -1.34441e-16 -0.000385053 -1.12181e-16 0)
(0.000229303 -0.000207893 -8.0231e-17 -0.000374858 -2.74439e-18 0)
(0.000214565 -0.000173397 -1.30104e-17 -0.000366289 1.57887e-16 0)
(0.000202646 -0.000138175 -8.67362e-17 -0.000359408 1.3705e-16 0)
(0.000193639 -0.000102318 -4.33681e-17 -0.000354293 -3.90313e-17 0)
(0.000187717 -6.57853e-05 2.81893e-17 -0.000351073 5.00596e-17 0)
(0.000185411 -2.78484e-05 -4.77049e-17 -0.000349939 3.89635e-17 0)
(0.000879096 -2.64771e-05 -2.27249e-15 -0.00213143 0 0)
(0.000820195 -2.24281e-05 -5.48606e-16 -0.00202036 0 0)
(0.000764209 -2.05428e-05 -1.69136e-16 -0.00191769 0 0)
(0.000711292 -1.98018e-05 -8.67362e-16 -0.00182139 0 0)
(0.000661661 -1.96733e-05 -1.13408e-15 -0.00173066 0 0)
(0.000615393 -1.98711e-05 -1.00614e-15 -0.00164505 0 0)
(0.000572449 -2.02372e-05 2.4503e-16 -0.0015642 0 0)
(0.000532721 -2.06833e-05 2.53703e-16 -0.00148781 0 0)
(0.000496059 -2.11594e-05 4.77049e-17 -0.0014156 0 0)
(0.000462299 -2.1637e-05 9.32414e-17 -0.00134731 0 0)
(0.000431267 -2.21001e-05 8.99888e-16 -0.00128272 0 0)
(0.000402795 -2.25397e-05 5.31259e-16 -0.00122159 0 0)
(0.000376716 -2.29512e-05 4.6187e-16 -0.00116371 0 0)
(0.000352875 -2.33326e-05 -2.1684e-17 -0.00110888 0 0)
(0.000331121 -2.36832e-05 2.51535e-16 -0.00105694 0 0)
(0.000311316 -2.40033e-05 6.00648e-16 -0.00100769 0 0)
(0.000293328 -2.42937e-05 8.04478e-16 -0.000960987 0 0)
(0.000277035 -2.45555e-05 8.10983e-16 -0.000916678 0 0)
(0.000262322 -2.479e-05 7.22079e-16 -0.000874624 0 0)
(0.000249082 -2.49983e-05 3.29597e-16 -0.000834695 0 0)
(0.000237215 -2.51817e-05 4.2067e-16 -0.00079677 0 0)
(0.00022663 -2.53414e-05 4.92228e-16 -0.000760735 0 0)
(0.000217238 -2.54783e-05 4.53197e-16 -0.000726484 0 0)
(0.000208959 -2.55932e-05 4.74881e-16 -0.000693918 0 0)
(0.000201717 -2.56865e-05 4.18502e-16 -0.000662944 0 0)
(0.00019544 -2.57584e-05 3.10082e-16 -0.000633474 0 0)
(0.000190063 -2.58084e-05 1.92988e-16 -0.000605429 0 0)
(0.000185521 -2.58355e-05 1.30104e-16 -0.00057873 0 0)
(0.000181756 -2.58375e-05 2.71051e-16 -0.000553308 0 0)
(0.000178708 -2.58108e-05 1.6263e-16 -0.000529096 0 0)
(0.000176323 -2.57499e-05 1.01915e-16 -0.000506031 0 0)
(0.000174547 -2.56464e-05 2.1684e-18 -0.000484058 0 0)
(0.000173325 -2.54879e-05 2.81893e-17 -0.000463125 0 0)
(0.000172603 -2.52568e-05 1.43115e-16 -0.000443188 0 0)
(0.000172326 -2.4928e-05 1.60462e-16 -0.000424216 0 0)
(0.000172443 -2.44678e-05 5.63785e-17 -0.000406193 0 0)
(0.000172912 -2.38335e-05 1.73472e-17 -0.000389144 0 0)
(0.000173732 -2.29808e-05 -6.50521e-17 -0.000373171 0 0)
(0.000175022 -2.1894e-05 -1.23599e-16 -0.000358578 0 0)
(0.000194888 -2.08838e-05 -3.03577e-17 -0.000324394 0 0)
(0.00020074 -2.20716e-05 3.90313e-17 -0.000290924 0 0)
(0.000209307 -2.21551e-05 -2.60209e-17 -0.000261197 0 0)
(0.000219814 -2.178e-05 -2.60209e-17 -0.000234883 0 0)
(0.000231777 -2.12229e-05 -5.20417e-17 -0.000211613 0 0)
(0.000244875 -2.05997e-05 -8.89046e-17 -0.000191059 0 0)
(0.000258877 -1.99597e-05 4.11997e-17 -0.00017293 0 0)
(0.000273607 -1.93242e-05 0 -0.000156978 0 0)
(0.000288925 -1.87027e-05 -3.03577e-17 -0.000142984 0 0)
(0.000304717 -1.80992e-05 1.92988e-16 -0.00013076 0 0)
(0.000320886 -1.75155e-05 2.38524e-16 -0.000120136 0 0)
(0.000337354 -1.69522e-05 4.64039e-16 -0.000110967 0 0)
(0.000354051 -1.64095e-05 5.48606e-16 -0.000103121 0 0)
(0.00037092 -1.58869e-05 2.71051e-16 -9.64804e-05 0 0)
(0.000387911 -1.5384e-05 5.72459e-16 -9.09408e-05 0 0)
(0.000404981 -1.49003e-05 -5.20417e-17 -8.64077e-05 0 0)
(0.000422092 -1.44351e-05 -6.07153e-17 -8.27958e-05 0 0)
(0.000439213 -1.39878e-05 -2.86229e-16 -8.00274e-05 0 0)
(0.000456316 -1.35577e-05 3.70797e-16 -7.80321e-05 0 0)
(0.000473376 -1.31441e-05 5.11743e-16 -7.67451e-05 0 0)
(0.000490371 -1.27464e-05 4.33681e-16 -7.6107e-05 0 0)
(0.000507282 -1.2364e-05 2.21177e-16 -7.60633e-05 0 0)
(0.000524092 -1.19962e-05 2.60209e-16 -7.65631e-05 0 0)
(0.000540787 -1.16425e-05 1.23599e-16 -7.75594e-05 0 0)
(0.000557353 -1.13022e-05 2.1684e-16 -7.90083e-05 0 0)
(0.000573777 -1.09748e-05 7.87131e-16 -8.08687e-05 0 0)
(0.000590049 -1.06599e-05 4.33681e-18 -8.3102e-05 0 0)
(0.000606158 -1.03567e-05 -2.86229e-16 -8.56718e-05 0 0)
(0.000622095 -1.0065e-05 -8.67362e-17 -8.85435e-05 0 0)
(0.000637851 -9.78424e-06 -8.04478e-16 -9.16846e-05 0 0)
(0.000653419 -9.51395e-06 -8.76035e-16 -9.5064e-05 0 0)
(0.00066879 -9.25373e-06 -1.40079e-15 -9.86518e-05 0 0)
(0.000683958 -9.00321e-06 -8.13152e-16 -0.00010242 0 0)
(0.000698915 -8.76199e-06 -2.1684e-18 -0.00010634 0 0)
(0.000713654 -8.52972e-06 1.99493e-16 -0.000110387 0 0)
(0.00072817 -8.30606e-06 -3.27429e-16 -0.000114534 0 0)
(0.000742456 -8.09068e-06 8.23994e-17 -0.000118757 0 0)
(0.000756505 -7.88328e-06 -8.13152e-16 -0.000123032 0 0)
(0.000770312 -7.68356e-06 -2.50234e-15 -0.000127335 0 0)
(0.000783871 -7.49123e-06 -1.51138e-15 -0.000131644 0 0)
(0.000797174 -7.30603e-06 -1.25767e-16 -0.000135935 0 0)
(0.000810217 -7.12769e-06 -1.76725e-15 -0.000140187 0 0)
(0.000822992 -6.95597e-06 -2.23996e-15 -0.000144378 0 0)
(0.000835493 -6.79062e-06 -1.9082e-16 -0.000148486 0 0)
(0.000847713 -6.6314e-06 7.1991e-16 -0.000152489 0 0)
(0.000859646 -6.4781e-06 6.07153e-17 -0.000156366 0 0)
(0.000871285 -6.33048e-06 1.67834e-15 -0.000160097 0 0)
(0.000882621 -6.18834e-06 -8.67362e-18 -0.000163658 0 0)
(0.000893648 -6.05145e-06 3.03577e-16 -0.000167029 0 0)
(0.000904357 -5.91961e-06 6.98226e-16 -0.000170188 0 0)
(0.00091474 -5.7926e-06 -1.30104e-15 -0.000173113 0 0)
(0.000924787 -5.67023e-06 -3.27429e-16 -0.00017578 0 0)
(0.000934489 -5.55227e-06 -2.90566e-16 -0.000178169 0 0)
(0.000943835 -5.43853e-06 1.11022e-15 -0.000180254 0 0)
(0.000952815 -5.32878e-06 1.9971e-15 -0.000182013 0 0)
(0.000961418 -5.22282e-06 2.10986e-15 -0.000183419 0 0)
(0.00096963 -5.12043e-06 1.19696e-15 -0.000184449 0 0)
(0.000977439 -5.02139e-06 2.96855e-15 -0.000185075 0 0)
(0.000984829 -4.92547e-06 7.97973e-16 -0.00018527 0 0)
(0.000991787 -4.83243e-06 8.10983e-16 -0.000185005 0 0)
(0.000998294 -4.74205e-06 2.33754e-15 -0.00018425 0 0)
(0.00100433 -4.65407e-06 1.63498e-15 -0.000182975 0 0)
(0.00100989 -4.56825e-06 -1.06252e-15 -0.000181146 0 0)
(0.00101493 -4.48433e-06 1.4138e-15 -0.000178728 0 0)
(0.00101945 -4.40207e-06 3.05745e-15 -0.000175687 0 0)
(0.00102341 -4.32121e-06 1.17094e-15 -0.000171983 0 0)
(0.00102679 -4.24152e-06 -1.32923e-15 -0.000167576 0 0)
(0.00102957 -4.16277e-06 -1.89735e-15 -0.000162423 0 0)
(0.00103171 -4.08481e-06 -2.75171e-15 -0.000156481 0 0)
(0.00103319 -4.00756e-06 1.66967e-16 -0.0001497 0 0)
(0.00103396 -3.93112e-06 1.66967e-16 -0.000142032 0 0)
(0.00103401 -3.85592e-06 -2.1272e-15 -0.000133424 0 0)
(0.00103328 -3.78309e-06 -2.23346e-15 -0.000123821 0 0)
(0.00103176 -3.71522e-06 4.25007e-16 -0.000113166 0 0)
(0.0010294 -3.65816e-06 -7.58942e-17 -0.000101401 0 0)
(0.0010262 -3.62561e-06 -9.97466e-17 -8.84696e-05 0 0)
(0.00102219 -3.65106e-06 -2.42861e-16 -7.43149e-05 0 0)
(0.00101745 -3.82234e-06 -1.73039e-15 -5.88703e-05 0 0)
(0.00101228 -4.39588e-06 -8.76035e-16 -4.19161e-05 0 0)
(0.00100639 3.41139e-07 -3.20924e-15 -1.92575e-05 1.1489e-15 0)
(0.00100706 1.24797e-06 3.6169e-15 -2.07953e-05 2.74621e-17 0)
(0.00100772 1.16395e-06 2.78423e-15 -2.21727e-05 2.59378e-16 0)
(0.00100851 8.97648e-07 3.29597e-15 -2.38889e-05 1.87029e-16 0)
(0.00100949 5.82865e-07 1.56559e-15 -2.60477e-05 -6.16502e-16 0)
(0.00101065 2.53003e-07 -3.03577e-17 -2.86743e-05 2.18189e-16 0)
(0.001012 -8.18853e-08 1.11456e-15 -3.17719e-05 -9.71034e-16 0)
(0.00101354 -4.18571e-07 5.42101e-16 -3.53367e-05 -1.75539e-16 0)
(0.00101526 -7.55985e-07 -2.12504e-16 -3.93625e-05 6.80779e-16 0)
(0.00101717 -1.09374e-06 1.06685e-15 -4.38419e-05 6.99279e-16 0)
(0.00101927 -1.43164e-06 1.13191e-15 -4.87669e-05 -7.73235e-16 0)
(0.00102154 -1.76951e-06 -3.1225e-16 -5.4129e-05 -1.77405e-15 0)
(0.00102399 -2.10715e-06 4.0766e-16 -5.99191e-05 -1.28195e-15 0)
(0.0010266 -2.44432e-06 -1.53523e-15 -6.61275e-05 -2.54174e-15 0)
(0.00102939 -2.78075e-06 -7.89299e-16 -7.27439e-05 -1.64404e-15 0)
(0.00103234 -3.11615e-06 9.02056e-16 -7.97573e-05 -1.2939e-15 0)
(0.00103544 -3.45016e-06 -7.58942e-16 -8.71562e-05 2.28055e-16 0)
(0.0010387 -3.78243e-06 -1.79544e-15 -9.49283e-05 -2.51923e-15 0)
(0.0010421 -4.11256e-06 -1.07987e-15 -0.000103061 -9.98008e-16 0)
(0.00104565 -4.4401e-06 -4.59702e-16 -0.00011154 -8.40782e-16 0)
(0.00104932 -4.76461e-06 -7.80626e-17 -0.000120352 -2.50273e-16 0)
(0.00105313 -5.08558e-06 6.85216e-16 -0.000129482 -9.38275e-16 0)
(0.00105706 -5.40249e-06 -1.73472e-17 -0.000138914 -8.29499e-16 0)
(0.0010611 -5.71477e-06 1.51788e-16 -0.000148633 -7.05985e-16 0)
(0.00106525 -6.02183e-06 -2.57606e-15 -0.000158621 5.24042e-16 0)
(0.0010695 -6.32304e-06 6.41848e-16 -0.000168862 -3.12928e-16 0)
(0.00107385 -6.61775e-06 -8.23994e-16 -0.000179338 -1.51111e-16 0)
(0.00107828 -6.90527e-06 -3.46945e-16 -0.000190031 -6.41932e-16 0)
(0.00108279 -7.18492e-06 -3.85976e-16 -0.000200921 -8.85556e-16 0)
(0.00108736 -7.45603e-06 1.74557e-15 -0.00021199 -1.65873e-15 0)
(0.001092 -7.71803e-06 -2.52619e-15 -0.000223217 -1.00377e-15 0)
(0.00109669 -7.97047e-06 4.29344e-16 -0.000234584 -1.01556e-15 0)
(0.00110143 -8.2133e-06 -1.58294e-15 -0.000246068 -1.54465e-15 0)
(0.0011062 -8.44712e-06 -1.34007e-15 -0.000257651 -7.83912e-16 0)
(0.00111099 -8.67391e-06 -7.80626e-17 -0.000269311 9.53759e-16 0)
(0.00111579 -8.89838e-06 1.48536e-15 -0.000281032 3.51349e-16 0)
(0.00112059 -9.13118e-06 -1.23816e-15 -0.000292793 1.68119e-16 0)
(0.00112536 -9.39953e-06 -4.40186e-16 -0.000304574 -2.55194e-16 0)
(0.00112995 -9.8039e-06 -1.06252e-16 -0.00031629 -2.39609e-16 0)
(0.00113616 -9.36752e-06 1.60462e-16 -0.000332032 1.62088e-16 0)
(0.00113838 -9.59843e-06 5.85469e-16 -0.000337162 -5.93804e-16 0)
(0.00114055 -9.69712e-06 2.75387e-16 -0.00034229 -7.18148e-16 0)
(0.00114268 -9.73422e-06 -2.40693e-16 -0.000347409 -1.04009e-15 0)
(0.00114479 -9.73972e-06 -8.26162e-16 -0.000352511 -5.1093e-16 0)
(0.00114689 -9.72716e-06 -6.57027e-16 -0.00035759 -4.06982e-16 0)
(0.00114897 -9.70301e-06 -1.45283e-15 -0.000362643 -6.57907e-16 0)
(0.00115104 -9.67056e-06 -1.6263e-16 -0.000367666 -1.04151e-15 0)
(0.0011531 -9.63154e-06 -3.59955e-16 -0.000372656 -1.07858e-15 0)
(0.00115514 -9.58688e-06 3.31766e-16 -0.000377611 -8.07866e-16 0)
(0.00115717 -9.53706e-06 5.09575e-16 -0.000382528 -4.79082e-16 0)
(0.00115918 -9.48234e-06 -8.67362e-17 -0.000387405 -1.10175e-15 0)
(0.00116117 -9.42286e-06 3.25261e-17 -0.00039224 -1.61085e-15 0)
(0.00116315 -9.35864e-06 1.12757e-16 -0.000397031 -1.89783e-15 0)
(0.00116511 -9.28968e-06 -5.33427e-16 -0.000401774 -2.96089e-15 0)
(0.00116704 -9.21596e-06 -2.49366e-16 -0.000406469 -2.71186e-15 0)
(0.00116895 -9.13743e-06 -2.29851e-16 -0.000411112 -2.47855e-15 0)
(0.00117085 -9.05403e-06 1.2013e-15 -0.000415701 -3.00514e-15 0)
(0.00117272 -8.96572e-06 4.87891e-16 -0.000420234 -1.94452e-15 0)
(0.00117456 -8.87244e-06 2.60209e-16 -0.000424709 -1.59811e-15 0)
(0.00117638 -8.77414e-06 7.54605e-16 -0.000429123 -1.22278e-15 0)
(0.00117818 -8.67077e-06 1.99493e-16 -0.000433474 -6.2301e-16 0)
(0.00117994 -8.56228e-06 1.95156e-17 -0.000437759 -4.83757e-16 0)
(0.00118168 -8.44862e-06 2.79724e-16 -0.000441977 7.96346e-16 0)
(0.00118339 -8.32976e-06 6.31006e-16 -0.000446124 3.7676e-17 0)
(0.00118507 -8.20565e-06 -8.89046e-17 -0.000450198 -8.36462e-16 0)
(0.00118672 -8.07627e-06 -1.5851e-15 -0.000454197 -2.05321e-16 0)
(0.00118834 -7.94156e-06 -4.64039e-16 -0.000458118 -1.70084e-16 0)
(0.00118993 -7.80152e-06 -8.04478e-16 -0.00046196 2.63732e-16 0)
(0.00119148 -7.6561e-06 -5.11743e-16 -0.000465719 1.38154e-15 0)
(0.001193 -7.50529e-06 -7.15573e-16 -0.000469393 1.73581e-15 0)
(0.00119448 -7.34907e-06 -6.72205e-17 -0.00047298 1.6507e-15 0)
(0.00119592 -7.18742e-06 3.92481e-16 -0.000476477 1.23409e-15 0)
(0.00119733 -7.02032e-06 6.63532e-16 -0.000479882 4.79759e-16 0)
(0.0011987 -6.84779e-06 1.22298e-15 -0.000483193 -2.33375e-16 0)
(0.00120003 -6.6698e-06 3.88144e-16 -0.000486407 -1.15332e-16 0)
(0.00120132 -6.48637e-06 -2.47198e-16 -0.000489522 8.32532e-16 0)
(0.00120257 -6.29752e-06 -2.21177e-16 -0.000492536 1.00424e-15 0)
(0.00120378 -6.10325e-06 2.79724e-16 -0.000495446 2.23617e-16 0)
(0.00120494 -5.90359e-06 6.74374e-16 -0.00049825 5.379e-16 0)
(0.00120606 -5.69859e-06 2.81893e-16 -0.000500947 9.35938e-16 0)
(0.00120714 -5.48829e-06 7.22079e-16 -0.000503533 2.05131e-15 0)
(0.00120817 -5.27274e-06 7.71952e-16 -0.000506007 1.7911e-15 0)
(0.00120916 -5.05202e-06 2.60209e-16 -0.000508367 1.58809e-15 0)
(0.0012101 -4.82622e-06 7.80626e-17 -0.00051061 8.64787e-16 0)
(0.001211 -4.59545e-06 -4.42354e-16 -0.000512736 1.09328e-15 0)
(0.00121184 -4.35983e-06 -7.84962e-16 -0.000514742 1.07675e-15 0)
(0.00121264 -4.11951e-06 -7.93636e-16 -0.000516626 8.28602e-16 0)
(0.00121339 -3.87467e-06 7.52436e-16 -0.000518387 3.91939e-16 0)
(0.00121409 -3.62551e-06 -6.04985e-16 -0.000520024 -1.54092e-16 0)
(0.00121474 -3.37229e-06 -4.44523e-16 -0.000521535 6.08373e-16 0)
(0.00121534 -3.11529e-06 -6.26669e-16 -0.000522919 2.13994e-16 0)
(0.00121589 -2.85484e-06 4.33681e-18 -0.000524175 -5.94143e-16 0)
(0.00121639 -2.59135e-06 -5.63785e-17 -0.000525303 -9.73749e-16 0)
(0.00121684 -2.32526e-06 -5.18249e-16 -0.000526301 -5.09846e-16 0)
(0.00121724 -2.05713e-06 8.37004e-16 -0.000527171 -9.21301e-16 0)
(0.00121758 -1.78758e-06 1.64365e-15 -0.000527911 -8.74274e-16 0)
(0.00121788 -1.51735e-06 1.7846e-15 -0.000528522 -2.12775e-16 0)
(0.00121813 -1.24732e-06 1.37694e-15 -0.000529006 1.60462e-16 0)
(0.00121833 -9.78489e-07 1.03867e-15 -0.000529363 -4.99004e-16 0)
(0.00121848 -7.12069e-07 -2.25514e-16 -0.000529595 5.74898e-16 0)
(0.00121859 -4.49462e-07 -6.59195e-16 -0.000529706 1.52574e-15 0)
(0.00121865 -1.92324e-07 5.24754e-16 -0.000529697 1.22501e-15 0)
(0.00121866 5.74019e-08 -5.83301e-16 -0.000529573 1.80303e-15 0)
(0.00121863 2.97429e-07 -2.24213e-15 -0.000529339 1.0823e-15 0)
(0.00121856 5.25076e-07 -2.14238e-15 -0.000529001 1.17771e-15 0)
(0.00121845 7.372e-07 -8.65193e-16 -0.000528566 6.86842e-16 0)
(0.0012183 9.30137e-07 -1.30104e-15 -0.000528042 8.84709e-16 0)
(0.00121812 1.09964e-06 -1.41814e-15 -0.000527441 1.08962e-15 0)
(0.00121791 1.24081e-06 -2.47198e-16 -0.000526773 8.76849e-16 0)
(0.00121768 1.34809e-06 -9.2374e-16 -0.000526054 4.16063e-16 0)
(0.00121742 1.41532e-06 -1.50921e-15 -0.000525299 8.53538e-16 0)
(0.00121715 1.43579e-06 -1.21431e-16 -0.00052453 1.9353e-16 0)
(0.00121687 1.40269e-06 -1.45283e-16 -0.000523768 1.66181e-15 0)
(0.00121659 1.30969e-06 -1.12323e-15 -0.000523041 9.22114e-16 0)
(0.00121633 1.15224e-06 -1.72822e-15 -0.000522378 1.40919e-15 0)
(0.0012161 9.29893e-07 -1.15793e-15 -0.000521816 1.38642e-15 0)
(0.00121594 6.50404e-07 -2.31802e-15 -0.000521395 2.20391e-15 0)
(0.00121587 3.36858e-07 -1.43982e-15 -0.000521161 2.68096e-15 0)
(0.00121532 2.40787e-07 -2.09034e-15 -0.00052074 5.64598e-16 0)
(0.00121358 5.0156e-07 -1.76074e-15 -0.000520105 -5.00901e-16 0)
(0.00121136 5.91628e-07 -1.89302e-15 -0.000519403 7.17742e-16 0)
(0.00120943 5.64927e-07 -1.83447e-15 -0.000518844 -1.2097e-15 0)
(0.00120822 4.67683e-07 -1.44416e-15 -0.000518576 -2.33727e-15 0)
(0.00120799 3.27673e-07 2.75387e-16 -0.000518697 3.83265e-16 0)
(0.00120888 1.61404e-07 -6.91721e-16 -0.000519263 -6.71934e-16 0)
(0.00121096 -2.08942e-08 -4.70544e-16 -0.000520309 4.6702e-16 0)
(0.00121427 -2.12623e-07 6.15827e-16 -0.000521847 -1.79625e-15 0)
(0.0012188 -4.09417e-07 2.01662e-16 -0.000523881 -3.86518e-16 0)
(0.00122453 -6.08352e-07 6.15827e-16 -0.000526408 -6.04443e-17 0)
(0.00123143 -8.07465e-07 1.13191e-15 -0.000529417 4.21484e-16 0)
(0.00123948 -1.00546e-06 -9.80119e-16 -0.000532897 -1.80005e-15 0)
(0.00124863 -1.20149e-06 -3.23092e-16 -0.000536835 1.58375e-15 0)
(0.00125886 -1.39506e-06 -2.86229e-16 -0.000541217 1.18476e-15 0)
(0.00127011 -1.58589e-06 -6.96058e-16 -0.000546028 5.8818e-17 0)
(0.00128236 -1.77387e-06 1.7434e-15 -0.000551255 9.4434e-16 0)
(0.00129557 -1.95901e-06 1.20563e-15 -0.000556883 -2.5289e-16 0)
(0.00130971 -2.1414e-06 2.19226e-15 -0.0005629 -1.65097e-15 0)
(0.00132475 -2.32118e-06 2.21828e-15 -0.000569293 4.57804e-16 0)
(0.00134066 -2.49855e-06 6.61363e-16 -0.000576052 3.90313e-17 0)
(0.00135741 -2.67371e-06 1.71304e-15 -0.000583165 1.56776e-15 0)
(0.00137498 -2.84688e-06 -2.55872e-16 -0.000590622 2.00605e-15 0)
(0.00139334 -3.01826e-06 1.79978e-16 -0.000598414 -1.57697e-15 0)
(0.00141248 -3.18806e-06 -3.6646e-16 -0.000606532 -1.87974e-15 0)
(0.00143238 -3.35649e-06 -1.6675e-15 -0.000614969 -4.40457e-16 0)
(0.00145302 -3.52372e-06 -2.17274e-15 -0.000623717 -7.90925e-16 0)
(0.00147437 -3.6899e-06 -4.02673e-15 -0.000632769 -6.2179e-16 0)
(0.00149643 -3.85518e-06 -1.96891e-15 -0.000642118 -8.94467e-17 0)
(0.00151919 -4.01964e-06 -3.11383e-15 -0.000651757 -9.59519e-17 0)
(0.00154262 -4.18339e-06 -2.25297e-15 -0.000661682 -3.67545e-16 0)
(0.00156671 -4.34644e-06 -1.7022e-15 -0.000671885 -6.54045e-16 0)
(0.00159145 -4.50883e-06 1.29237e-15 -0.000682361 -2.03722e-15 0)
(0.00161682 -4.67052e-06 -2.19876e-15 -0.000693103 -8.59501e-16 0)
(0.00164281 -4.83144e-06 1.55691e-15 -0.000704105 2.34865e-15 0)
(0.00166941 -4.99151e-06 1.92554e-15 -0.000715361 -8.92027e-16 0)
(0.00169659 -5.15056e-06 2.93602e-15 -0.000726862 1.99873e-15 0)
(0.00172435 -5.30843e-06 -2.57173e-15 -0.000738603 5.58364e-17 0)
(0.00175266 -5.46486e-06 -3.96818e-16 -0.000750574 -5.65954e-16 0)
(0.00178149 -5.61959e-06 8.89046e-16 -0.000762767 1.94289e-15 0)
(0.00181084 -5.77229e-06 -3.48246e-15 -0.000775172 -7.54876e-16 0)
(0.00184068 -5.92257e-06 -4.42788e-15 -0.000787779 1.24683e-16 0)
(0.00187097 -6.07e-06 -9.90961e-16 -0.000800576 -2.3332e-15 0)
(0.00190169 -6.2141e-06 -1.43548e-15 -0.000813551 -1.23274e-15 0)
(0.00193281 -6.35432e-06 -4.79868e-15 -0.00082669 -2.53243e-15 0)
(0.00196429 -6.49006e-06 -2.5327e-15 -0.000839976 2.88479e-15 0)
(0.0019961 -6.62066e-06 4.19153e-15 -0.000853394 2.24023e-15 0)
(0.00202818 -6.74538e-06 -2.86229e-16 -0.000866925 -6.30464e-16 0)
(0.0020605 -6.86344e-06 -1.26852e-15 -0.000880549 9.49409e-15 0)
(0.00209299 -6.97398e-06 3.7882e-15 -0.000894245 -9.6494e-17 0)
(0.00212562 -7.07605e-06 5.60533e-15 -0.000907987 -8.29333e-15 0)
(0.00215831 -7.16865e-06 4.76398e-15 -0.000921751 -2.52538e-15 0)
(0.002191 -7.25067e-06 1.64148e-15 -0.000935507 3.02628e-15 0)
(0.00222361 -7.32093e-06 -6.50521e-16 -0.000949226 4.56991e-16 0)
(0.00225607 -7.3781e-06 2.13371e-15 -0.000962874 5.96691e-15 0)
(0.0022883 -7.42073e-06 3.80772e-15 -0.000976416 3.25315e-15 0)
(0.0023202 -7.44717e-06 6.80228e-15 -0.000989811 1.73689e-15 0)
(0.00235167 -7.45551e-06 5.85469e-17 -0.00100302 6.72856e-15 0)
(0.0023826 -7.4434e-06 -1.60787e-15 -0.00101599 2.02963e-15 0)
(0.00241286 -7.4078e-06 -1.57209e-16 -0.00102867 -2.31586e-15 0)
(0.00244233 -7.34449e-06 9.98984e-15 -0.00104101 -3.50631e-15 0)
(0.00247082 -7.24694e-06 -3.31115e-15 -0.00105293 2.50993e-15 0)
(0.00249815 -7.10446e-06 6.245e-16 -0.00106434 6.36318e-15 0)
(0.00252404 -6.89926e-06 -2.41018e-15 -0.00107515 2.29851e-15 0)
(0.00254813 -6.60625e-06 -6.61038e-15 -0.00108519 -3.33501e-15 0)
(0.00256978 -6.18332e-06 -6.43257e-15 -0.00109411 -4.47179e-15 0)
(0.00259008 -4.12064e-06 3.67002e-15 -0.00110547 -1.6263e-15 0)
(0.00261201 -2.77769e-06 -3.52799e-15 -0.00112035 1.66208e-15 0)
(0.00263838 -1.5846e-06 -1.09721e-15 -0.00114366 -5.75603e-15 0)
(0.0026674 -1.4979e-06 1.17853e-15 -0.00116869 1.61058e-15 0)
(0.00269648 -1.47492e-06 -1.04008e-14 -0.00119366 -1.63172e-16 0)
(0.00272321 -1.68574e-06 -4.94179e-15 -0.00121611 -7.10315e-15 0)
(0.00274574 -2.05262e-06 -5.53377e-15 -0.00123436 2.28441e-15 0)
(0.00276256 -2.58477e-06 -3.50956e-15 -0.00124697 1.41651e-15 0)
(0.00277257 -3.28922e-06 -5.29199e-15 -0.00125286 -6.84457e-15 0)
(0.00277487 -4.17176e-06 4.893e-15 -0.00125105 -5.1955e-15 0)
(0.00276853 -5.24382e-06 -6.14201e-15 -0.00124063 -6.35668e-15 0)
(0.00275287 -6.46369e-06 -2.12612e-15 -0.0012211 -1.10805e-15 0)
(0.00272824 -7.78681e-06 3.07697e-15 -0.00119301 4.58075e-15 0)
(0.00268585 -5.67956e-06 6.29379e-15 -0.00114645 -1.19045e-15 0)
(0.00266915 -2.30886e-06 2.60209e-17 -0.00113571 -6.68953e-16 0)
(0.00265844 1.20731e-06 5.64381e-15 -0.00113136 1.31514e-15 0)
(0.00264554 2.42987e-06 4.26634e-16 -0.00112534 2.83519e-15 0)
(0.0026281 3.2828e-06 -1.43819e-15 -0.00111785 -7.62194e-16 0)
(0.00260661 3.98708e-06 -6.08237e-16 -0.0011088 -5.17598e-15 0)
(0.00258114 4.65905e-06 6.23091e-15 -0.00109811 -1.80411e-15 0)
(0.00255157 5.34645e-06 -1.47668e-15 -0.00108571 3.10732e-15 0)
(0.00251769 6.07092e-06 1.73201e-15 -0.00107149 1.97216e-15 0)
(0.00247925 6.8432e-06 2.02529e-15 -0.00105537 9.57351e-16 0)
(0.00243598 7.66777e-06 5.2058e-15 -0.00103722 -1.73364e-15 0)
(0.00238761 8.54402e-06 9.61742e-15 -0.00101695 1.10047e-15 0)
(0.00233392 9.46621e-06 5.60695e-15 -0.000994462 -2.76688e-15 0)
(0.00227477 1.04232e-05 6.62773e-15 -0.000969712 7.30752e-16 0)
(0.00221013 1.13987e-05 3.56404e-15 -0.000942689 -2.85579e-15 0)
(0.00214009 1.23718e-05 9.94484e-16 -0.000913441 5.82217e-16 0)
(0.00206493 1.3319e-05 1.82254e-15 -0.000882082 3.76001e-15 0)
(0.00198506 1.42163e-05 -4.66207e-17 -0.000848791 1.66642e-15 0)
(0.0019011 1.50423e-05 -6.66784e-16 -0.000813811 2.13588e-16 0)
(0.00181375 1.57802e-05 8.09086e-16 -0.000777441 1.03541e-15 0)
(0.00172387 1.64197e-05 -2.75835e-15 -0.00074002 -2.3744e-16 0)
(0.00163232 1.69564e-05 -1.8323e-15 -0.000701907 -3.36103e-16 0)
(0.00154 1.73918e-05 -1.19181e-15 -0.000663473 1.77159e-15 0)
(0.0014478 1.77311e-05 -1.03541e-15 -0.00062508 9.75782e-17 0)
(0.00135654 1.79817e-05 -1.02877e-15 -0.000587074 -4.6187e-16 0)
(0.00126699 1.81517e-05 -6.11219e-16 -0.000549779 -2.12504e-16 0)
(0.00117986 1.82479e-05 -3.47351e-16 -0.000513497 2.62377e-16 0)
(0.0010958 1.82754e-05 -9.28822e-16 -0.000478509 -1.13408e-15 0)
(0.00101543 1.82364e-05 -5.04628e-16 -0.000445078 -5.91974e-16 0)
(0.000939313 1.81307e-05 -6.68885e-16 -0.000413455 8.73867e-16 0)
(0.000868021 1.79554e-05 -6.63125e-16 -0.000383884 7.39426e-16 0)
(0.000802101 1.77058e-05 -2.82773e-16 -0.000356601 4.74881e-16 0)
(0.000742097 1.73758e-05 2.27513e-16 -0.000331839 1.60462e-15 0)
(0.000688545 1.69582e-05 -1.94851e-16 -0.000309825 1.78243e-15 0)
(0.000641965 1.64448e-05 3.30343e-17 -0.000290773 1.10155e-15 0)
(0.00060285 1.58248e-05 -1.76776e-16 -0.00027488 1.35092e-15 0)
(0.000571636 1.50792e-05 -3.30275e-16 -0.000262303 3.77302e-16 0)
(0.00054854 1.4184e-05 -2.08014e-16 -0.000253031 -1.73472e-16 0)
(0.000531781 1.33715e-05 3.11873e-16 -0.000245669 7.15573e-16 0)
(0.000584686 6.08076e-05 0 -0.0002563 7.17742e-16 0)
(0.000634112 5.95575e-05 0 -0.000275062 5.22585e-16 0)
(0.000681787 5.85835e-05 0 -0.000292941 3.57787e-16 0)
(0.00072801 5.78394e-05 0 -0.000310071 1.14925e-16 0)
(0.00077297 5.72839e-05 0 -0.000326523 -1.95156e-16 0)
(0.000816791 5.6882e-05 0 -0.000342334 -4.0766e-16 0)
(0.000859563 5.66048e-05 0 -0.000357526 -6.44016e-16 0)
(0.000901353 5.64286e-05 0 -0.000372112 -9.08561e-16 0)
(0.000942212 5.63342e-05 0 -0.000386104 -1.39862e-15 0)
(0.000982185 5.63061e-05 0 -0.00039951 -1.18612e-15 0)
(0.00102131 5.63319e-05 0 -0.000412339 -7.58942e-16 0)
(0.00105962 5.64017e-05 0 -0.000424602 -6.1149e-16 0)
(0.00109715 5.65074e-05 0 -0.000436309 -1.99493e-16 0)
(0.00113392 5.66428e-05 0 -0.000447471 -4.59702e-16 0)