/*--------------------------------*- C++ -*----------------------------------*\
| =========                 |                                                 |
| \\      /  F ield         | OpenFOAM: The Open Source CFD Toolbox           |
|  \\    /   O peration     | Version:  v2012                                 |
|   \\  /    A nd           | Website:  www.openfoam.com                      |
|    \\/     M anipulation  |                                                 |
\*---------------------------------------------------------------------------*/
FoamFile
{
    version     2.0;
    format      ascii;
    class       pointVectorField;
    location    "13";
    object      pointD;
}
// * * * * * * * * * * * * * * * * * * * * * * * * * * * * * * * * * * * * * //

dimensions      [0 1 0 0 0 0 0];


internalField   nonuniform List<vector> 
32562
(
(0.0029993 0 0)
(0.00398369 0 0)
(0.00366521 -0.000290898 0)
(0 -0.00232817 0)
(0 -0.000952857 0)
(0.00308651 0 0)
(0 -0.00219816 0)
(0.00198747 -0.000606857 0)
(0.0009003 -0.00112512 0)
(0.00383702 -6.94719e-05 0)
(0.0023687 -0.00095152 0)
(0.0023687 -0.00095152 0)
(0.00198747 -0.000606857 0)
(0 -0.00219816 0)
(0 -0.000952857 0)
(0.0029993 0 0)
(0.00308651 0 0)
(0.00398369 0 0)
(0.00383702 -6.94719e-05 0)
(0.00366521 -0.000290898 0)
(0.0009003 -0.00112512 0)
(0 -0.00232817 0)
(4.33762e-05 -0.00219472 0)
(8.70263e-05 -0.0021855 0)
(0.00013112 -0.00217087 0)
(0.000175759 -0.00215109 0)
(0.000221493 -0.00212647 0)
(0.000268647 -0.00209708 0)
(0.000317492 -0.00206311 0)
(0.000368124 -0.00202483 0)
(0.000420515 -0.00198259 0)
(0.000474531 -0.00193688 0)
(0.000529943 -0.00188822 0)
(0.000586455 -0.00183725 0)
(0.000643714 -0.00178459 0)
(0.000701331 -0.00173091 0)
(0.000758886 -0.00167686 0)
(0.000815948 -0.00162307 0)
(0.000872087 -0.00157015 0)
(0.000926895 -0.00151862 0)
(0.000980031 -0.0014689 0)
(0.00103133 -0.00142112 0)
(0.00108094 -0.00137504 0)
(0.00112941 -0.00132999 0)
(0.00117758 -0.00128523 0)
(0.00122575 -0.0012405 0)
(0.00127394 -0.00119596 0)
(0.00132215 -0.00115177 0)
(0.00137034 -0.00110805 0)
(0.00141851 -0.00106488 0)
(0.00146663 -0.00102233 0)
(0.0015147 -0.000980467 0)
(0.00156268 -0.000939334 0)
(0.00161057 -0.000898976 0)
(0.00165834 -0.000859429 0)
(0.00170596 -0.000820728 0)
(0.00175341 -0.0007829 0)
(0.00180067 -0.000745967 0)
(0.00184772 -0.00070994 0)
(0.00189453 -0.000674817 0)
(0.00194111 -0.000640546 0)
(0.00203285 -0.000575517 0)
(0.00207795 -0.000544968 0)
(0.00212266 -0.000515312 0)
(0.00216692 -0.0004866 0)
(0.00221066 -0.00045886 0)
(0.00225384 -0.000432107 0)
(0.00229641 -0.00040635 0)
(0.00233832 -0.00038159 0)
(0.00237952 -0.000357825 0)
(0.00241998 -0.000335049 0)
(0.00245963 -0.000313254 0)
(0.00249845 -0.000292427 0)
(0.00253638 -0.000272555 0)
(0.00257338 -0.000253623 0)
(0.00260941 -0.000235611 0)
(0.00264442 -0.0002185 0)
(0.00267837 -0.000202268 0)
(0.00271121 -0.000186892 0)
(0.00274291 -0.000172346 0)
(0.00277343 -0.000158603 0)
(0.00280273 -0.000145635 0)
(0.00283077 -0.000133412 0)
(0.00285752 -0.000121903 0)
(0.00288293 -0.000111076 0)
(0.00290698 -0.000100896 0)
(0.00292963 -9.13289e-05 0)
(0.00295086 -8.2339e-05 0)
(0.00297064 -7.38891e-05 0)
(0.00298893 -6.59414e-05 0)
(0.00300572 -5.84569e-05 0)
(0.00302098 -5.13962e-05 0)
(0.00303469 -4.47187e-05 0)
(0.00304683 -3.83832e-05 0)
(0.00305738 -3.23481e-05 0)
(0.00306633 -2.65709e-05 0)
(0.00307367 -2.10086e-05 0)
(0.00307937 -1.56174e-05 0)
(0.00308344 -1.0353e-05 0)
(0.00308584 -5.16808e-06 0)
(0.00300499 0 0)
(0.0030103 0 0)
(0.00301526 0 0)
(0.00301987 0 0)
(0.00302417 0 0)
(0.00302817 0 0)
(0.00303188 0 0)
(0.00303534 0 0)
(0.00303856 0 0)
(0.00304155 0 0)
(0.00304435 0 0)
(0.00304696 0 0)
(0.0030494 0 0)
(0.00305168 0 0)
(0.00305382 0 0)
(0.00305582 0 0)
(0.00305771 0 0)
(0.0030595 0 0)
(0.00306118 0 0)
(0.00306278 0 0)
(0.0030643 0 0)
(0.00306575 0 0)
(0.00306714 0 0)
(0.00306847 0 0)
(0.00306975 0 0)
(0.00307099 0 0)
(0.0030722 0 0)
(0.00307337 0 0)
(0.00307452 0 0)
(0.00307564 0 0)
(0.00307675 0 0)
(0.00307785 0 0)
(0.00307893 0 0)
(0.00308001 0 0)
(0.00308109 0 0)
(0.00308217 0 0)
(0.00308324 0 0)
(0.00308433 0 0)
(0.00308541 0 0)
(0.00308954 0 0)
(0.00309263 0 0)
(0.00309584 0 0)
(0.00309919 0 0)
(0.00310273 0 0)
(0.00310646 0 0)
(0.00311041 0 0)
(0.00311458 0 0)
(0.00311899 0 0)
(0.00312364 0 0)
(0.00312854 0 0)
(0.0031337 0 0)
(0.00313912 0 0)
(0.0031448 0 0)
(0.00315075 0 0)
(0.00315696 0 0)
(0.00316344 0 0)
(0.00317019 0 0)
(0.0031772 0 0)
(0.00318449 0 0)
(0.00319204 0 0)
(0.00319985 0 0)
(0.00320793 0 0)
(0.00321627 0 0)
(0.00322486 0 0)
(0.00323372 0 0)
(0.00324283 0 0)
(0.0032522 0 0)
(0.00326181 0 0)
(0.00327167 0 0)
(0.00328178 0 0)
(0.00329213 0 0)
(0.00330272 0 0)
(0.00331354 0 0)
(0.00332459 0 0)
(0.00333587 0 0)
(0.00334738 0 0)
(0.00335911 0 0)
(0.00337105 0 0)
(0.00338321 0 0)
(0.00339558 0 0)
(0.00340816 0 0)
(0.00342093 0 0)
(0.00343391 0 0)
(0.00344707 0 0)
(0.00346043 0 0)
(0.00347396 0 0)
(0.00348768 0 0)
(0.00350157 0 0)
(0.00351563 0 0)
(0.00352986 0 0)
(0.00354425 0 0)
(0.00355878 0 0)
(0.00357347 0 0)
(0.0035883 0 0)
(0.00360327 0 0)
(0.00361837 0 0)
(0.00363359 0 0)
(0.00364893 0 0)
(0.00366438 0 0)
(0.00367994 0 0)
(0.00369559 0 0)
(0.00371134 0 0)
(0.00372717 0 0)
(0.00374307 0 0)
(0.00375903 0 0)
(0.00377506 0 0)
(0.00379113 0 0)
(0.00380724 0 0)
(0.00382337 0 0)
(0.00383953 0 0)
(0.00385569 0 0)
(0.00387184 0 0)
(0.00388797 0 0)
(0.00390408 0 0)
(0.00392013 0 0)
(0.00393613 0 0)
(0.00395207 0 0)
(0.00396792 0 0)
(0.00398347 -2.11924e-07 0)
(0.0039831 -4.49988e-07 0)
(0.00398252 -7.04508e-07 0)
(0.00398173 -9.78638e-07 0)
(0.00398072 -1.27801e-06 0)
(0.0039795 -1.60885e-06 0)
(0.00397806 -1.9775e-06 0)
(0.0039764 -2.39028e-06 0)
(0.00397454 -2.85339e-06 0)
(0.00397246 -3.37297e-06 0)
(0.00397018 -3.95504e-06 0)
(0.0039677 -4.60551e-06 0)
(0.00396501 -5.33016e-06 0)
(0.00396213 -6.13465e-06 0)
(0.00395906 -7.02452e-06 0)
(0.0039558 -8.00515e-06 0)
(0.00395236 -9.08178e-06 0)
(0.00394874 -1.02595e-05 0)
(0.00394495 -1.15432e-05 0)
(0.00394099 -1.29376e-05 0)
(0.00393687 -1.44473e-05 0)
(0.00393259 -1.60766e-05 0)
(0.00392817 -1.78297e-05 0)
(0.0039236 -1.97106e-05 0)
(0.0039189 -2.17229e-05 0)
(0.00391406 -2.38701e-05 0)
(0.00390911 -2.61557e-05 0)
(0.00390404 -2.85824e-05 0)
(0.00389886 -3.11533e-05 0)
(0.00389359 -3.38707e-05 0)
(0.00388822 -3.67369e-05 0)
(0.00388276 -3.9754e-05 0)
(0.00387723 -4.29236e-05 0)
(0.00387163 -4.62473e-05 0)
(0.00386597 -4.97262e-05 0)
(0.00386025 -5.33612e-05 0)
(0.00385449 -5.71532e-05 0)
(0.0038487 -6.11025e-05 0)
(0.00384287 -6.52093e-05 0)
(0.00383444 -7.14056e-05 0)
(0.00383185 -7.33695e-05 0)
(0.00382926 -7.53636e-05 0)
(0.00382667 -7.73878e-05 0)
(0.00382408 -7.9442e-05 0)
(0.00382149 -8.15262e-05 0)
(0.0038189 -8.36402e-05 0)
(0.00381632 -8.57839e-05 0)
(0.00381373 -8.7957e-05 0)
(0.00381115 -9.01593e-05 0)
(0.00380858 -9.23907e-05 0)
(0.00380601 -9.46509e-05 0)
(0.00380344 -9.69396e-05 0)
(0.00380089 -9.92566e-05 0)
(0.00379834 -0.000101602 0)
(0.00379579 -0.000103975 0)
(0.00379326 -0.000106375 0)
(0.00379073 -0.000108802 0)
(0.00378822 -0.000111257 0)
(0.00378571 -0.000113737 0)
(0.00378322 -0.000116244 0)
(0.00378074 -0.000118777 0)
(0.00377827 -0.000121335 0)
(0.00377581 -0.000123918 0)
(0.00377336 -0.000126526 0)
(0.00377093 -0.000129158 0)
(0.00376851 -0.000131813 0)
(0.00376611 -0.000134492 0)
(0.00376372 -0.000137194 0)
(0.00376135 -0.000139918 0)
(0.003759 -0.000142664 0)
(0.00375666 -0.000145431 0)
(0.00375434 -0.000148219 0)
(0.00375203 -0.000151027 0)
(0.00374975 -0.000153856 0)
(0.00374748 -0.000156703 0)
(0.00374523 -0.000159569 0)
(0.003743 -0.000162453 0)
(0.00374079 -0.000165354 0)
(0.00373859 -0.000168272 0)
(0.00373642 -0.000171207 0)
(0.00373427 -0.000174157 0)
(0.00373213 -0.000177121 0)
(0.00373002 -0.0001801 0)
(0.00372793 -0.000183093 0)
(0.00372586 -0.000186098 0)
(0.0037238 -0.000189115 0)
(0.00372177 -0.000192144 0)
(0.00371976 -0.000195184 0)
(0.00371777 -0.000198233 0)
(0.0037158 -0.000201292 0)
(0.00371385 -0.000204359 0)
(0.00371192 -0.000207435 0)
(0.00371001 -0.000210517 0)
(0.00370812 -0.000213605 0)
(0.00370625 -0.000216698 0)
(0.0037044 -0.000219797 0)
(0.00370256 -0.000222899 0)
(0.00370075 -0.000226005 0)
(0.00369895 -0.000229113 0)
(0.00369717 -0.000232222 0)
(0.0036954 -0.000235333 0)
(0.00369365 -0.000238444 0)
(0.00369191 -0.000241554 0)
(0.00369019 -0.000244664 0)
(0.00368848 -0.000247771 0)
(0.00368678 -0.000250876 0)
(0.00368509 -0.000253979 0)
(0.00368342 -0.000257078 0)
(0.00368175 -0.000260173 0)
(0.00368008 -0.000263264 0)
(0.00367843 -0.00026635 0)
(0.00367677 -0.000269432 0)
(0.00367512 -0.00027251 0)
(0.00367348 -0.000275583 0)
(0.00367183 -0.000278652 0)
(0.00367018 -0.000281717 0)
(0.00366853 -0.000284779 0)
(0.00366687 -0.000287839 0)
(0.00364288 -0.000296095 0)
(0.00362057 -0.000301305 0)
(0.0035983 -0.000306492 0)
(0.00357608 -0.000311615 0)
(0.00355389 -0.000316636 0)
(0.00353171 -0.000321524 0)
(0.00350953 -0.000326253 0)
(0.00348732 -0.000330805 0)
(0.00346505 -0.000335166 0)
(0.00344272 -0.000339325 0)
(0.00342028 -0.000343277 0)
(0.00339773 -0.000347019 0)
(0.00337503 -0.000350551 0)
(0.00335218 -0.000353876 0)
(0.00332914 -0.000356998 0)
(0.0033059 -0.000359923 0)
(0.00328244 -0.000362661 0)
(0.00325875 -0.000365221 0)
(0.0032348 -0.000367613 0)
(0.00321058 -0.000369849 0)
(0.00318607 -0.000371943 0)
(0.00316125 -0.000373909 0)
(0.00313612 -0.000375762 0)
(0.00311066 -0.000377517 0)
(0.00308484 -0.000379191 0)
(0.00305866 -0.000380802 0)
(0.00303211 -0.000382367 0)
(0.00300517 -0.000383906 0)
(0.00297783 -0.000385437 0)
(0.00295007 -0.000386981 0)
(0.00292188 -0.00038856 0)
(0.00289325 -0.000390193 0)
(0.00286417 -0.000391905 0)
(0.00283462 -0.000393717 0)
(0.0028046 -0.000395653 0)
(0.00277409 -0.000397738 0)
(0.00274309 -0.000399997 0)
(0.00271157 -0.000402456 0)
(0.00267954 -0.000405141 0)
(0.00264698 -0.000408081 0)
(0.00261387 -0.000411303 0)
(0.00258022 -0.000414836 0)
(0.00254602 -0.000418711 0)
(0.00251125 -0.000422958 0)
(0.00247591 -0.000427609 0)
(0.00243998 -0.000432695 0)
(0.00240348 -0.000438251 0)
(0.00236638 -0.000444309 0)
(0.00232869 -0.000450906 0)
(0.00229039 -0.000458076 0)
(0.0022515 -0.000465856 0)
(0.002212 -0.000474282 0)
(0.0021719 -0.000483392 0)
(0.00213119 -0.000493225 0)
(0.00208988 -0.000503819 0)
(0.00204798 -0.000515212 0)
(0.00200548 -0.000527445 0)
(0.0019624 -0.000540556 0)
(0.00191874 -0.000554586 0)
(0.00187451 -0.000569575 0)
(0.00182974 -0.000585561 0)
(0.00178443 -0.000602584 0)
(0.00173861 -0.000620682 0)
(0.0016923 -0.000639892 0)
(0.00164553 -0.000660248 0)
(0.00159834 -0.000681782 0)
(0.00155078 -0.000704536 0)
(0.00150285 -0.00072855 0)
(0.00145444 -0.000753899 0)
(0.0014055 -0.000780629 0)
(0.00135602 -0.000808773 0)
(0.00130601 -0.000838337 0)
(0.00125556 -0.000869305 0)
(0.00120477 -0.000901655 0)
(0.00115374 -0.000935365 0)
(0.00110261 -0.000970425 0)
(0.00105154 -0.00100686 0)
(0.00100068 -0.00104473 0)
(0.000950222 -0.00108412 0)
(0.000864464 -0.00115567 0)
(0.000828937 -0.00118707 0)
(0.000793569 -0.00121923 0)
(0.00075834 -0.00125211 0)
(0.000723322 -0.00128573 0)
(0.000688571 -0.00132007 0)
(0.000654142 -0.00135513 0)
(0.000620089 -0.00139089 0)
(0.000586468 -0.00142731 0)
(0.00055334 -0.00146437 0)
(0.000520767 -0.00150203 0)
(0.000488817 -0.00154023 0)
(0.000457561 -0.00157893 0)
(0.000427072 -0.00161803 0)
(0.000397424 -0.00165747 0)
(0.00036869 -0.00169713 0)
(0.000340942 -0.00173689 0)
(0.000314245 -0.00177664 0)
(0.000288657 -0.00181621 0)
(0.000264228 -0.00185546 0)
(0.000240996 -0.00189422 0)
(0.000218987 -0.00193231 0)
(0.000198215 -0.00196957 0)
(0.000178682 -0.00200582 0)
(0.000160378 -0.00204088 0)
(0.000143285 -0.00207459 0)
(0.000127371 -0.00210679 0)
(0.000112599 -0.00213732 0)
(9.89213e-05 -0.00216603 0)
(8.62834e-05 -0.00219278 0)
(7.46234e-05 -0.00221743 0)
(6.38716e-05 -0.00223986 0)
(5.39515e-05 -0.00225996 0)
(4.4779e-05 -0.00227762 0)
(3.62634e-05 -0.00229273 0)
(2.83069e-05 -0.00230523 0)
(2.08055e-05 -0.00231505 0)
(1.36497e-05 -0.00232213 0)
(6.73023e-06 -0.00232647 0)
(0 -0.0023274 0)
(0 -0.00232657 0)
(0 -0.00232568 0)
(0 -0.00232474 0)
(0 -0.00232374 0)
(0 -0.0023227 0)
(0 -0.0023216 0)
(0 -0.00232046 0)
(0 -0.00231928 0)
(0 -0.00231805 0)
(0 -0.00231678 0)
(0 -0.00231547 0)
(0 -0.00231413 0)
(0 -0.00231275 0)
(0 -0.00231133 0)
(0 -0.00230988 0)
(0 -0.00230841 0)
(0 -0.0023069 0)
(0 -0.00230536 0)
(0 -0.0023038 0)
(0 -0.00230222 0)
(0 -0.00230061 0)
(0 -0.00229897 0)
(0 -0.00229732 0)
(0 -0.00229565 0)
(0 -0.00229396 0)
(0 -0.00229225 0)
(0 -0.00229053 0)
(0 -0.00228879 0)
(0 -0.00228704 0)
(0 -0.00228528 0)
(0 -0.00228351 0)
(0 -0.00228172 0)
(0 -0.00227993 0)
(0 -0.00227812 0)
(0 -0.00227631 0)
(0 -0.0022745 0)
(0 -0.00227267 0)
(0 -0.00227085 0)
(0 -0.00226901 0)
(0 -0.00226718 0)
(0 -0.00226534 0)
(0 -0.0022635 0)
(0 -0.00226166 0)
(0 -0.00225982 0)
(0 -0.00225797 0)
(0 -0.00225613 0)
(0 -0.00225429 0)
(0 -0.00225245 0)
(0 -0.00225062 0)
(0 -0.00224879 0)
(0 -0.00224696 0)
(0 -0.00224513 0)
(0 -0.00224331 0)
(0 -0.0022415 0)
(0 -0.00223969 0)
(0 -0.00223788 0)
(0 -0.00223609 0)
(0 -0.00223429 0)
(0 -0.00223251 0)
(0 -0.00223073 0)
(0 -0.00222896 0)
(0 -0.0022272 0)
(0 -0.00222544 0)
(0 -0.0022237 0)
(0 -0.00222195 0)
(0 -0.00222022 0)
(0 -0.0022185 0)
(0 -0.00221678 0)
(0 -0.00221507 0)
(0 -0.00221336 0)
(0 -0.00221166 0)
(0 -0.00220997 0)
(0 -0.00220828 0)
(0 -0.00220659 0)
(0 -0.00220491 0)
(0 -0.00220322 0)
(0 -0.00220154 0)
(0 -0.00219985 0)
(0 -0.00219464 0)
(0 -0.002191 0)
(0 -0.00218694 0)
(0 -0.0021823 0)
(0 -0.00217696 0)
(0 -0.00217077 0)
(0 -0.00216358 0)
(0 -0.00215525 0)
(0 -0.00214565 0)
(0 -0.00213464 0)
(0 -0.00212211 0)
(0 -0.00210795 0)
(0 -0.00209207 0)
(0 -0.0020744 0)
(0 -0.00205486 0)
(0 -0.00203341 0)
(0 -0.00201001 0)
(0 -0.00198462 0)
(0 -0.00195723 0)
(0 -0.00192782 0)
(0 -0.00189639 0)
(0 -0.00186294 0)
(0 -0.00182748 0)
(0 -0.00179002 0)
(0 -0.00175059 0)
(0 -0.0017092 0)
(0 -0.00166588 0)
(0 -0.00162068 0)
(0 -0.00157362 0)
(0 -0.00152477 0)
(0 -0.00147417 0)
(0 -0.00142189 0)
(0 -0.00136798 0)
(0 -0.00131254 0)
(0 -0.00125564 0)
(0 -0.00119736 0)
(0 -0.00113781 0)
(0 -0.0010771 0)
(0 -0.00101538 0)
(0.0020184 -0.000571092 0)
(0.00204894 -0.000536802 0)
(0.00207913 -0.000504182 0)
(0.00210895 -0.000473282 0)
(0.00213839 -0.000444103 0)
(0.00216742 -0.00041662 0)
(0.00219606 -0.000390793 0)
(0.00222429 -0.000366576 0)
(0.00225213 -0.000343916 0)
(0.00227957 -0.000322755 0)
(0.00230662 -0.000303035 0)
(0.0023333 -0.000284696 0)
(0.00235961 -0.000267677 0)
(0.00238558 -0.000251918 0)
(0.0024112 -0.000237358 0)
(0.00243651 -0.000223941 0)
(0.00246151 -0.000211606 0)
(0.00248622 -0.0002003 0)
(0.00251065 -0.000189966 0)
(0.00253483 -0.000180552 0)
(0.00255877 -0.000172006 0)
(0.00258248 -0.00016428 0)
(0.00260598 -0.000157326 0)
(0.00262928 -0.000151097 0)
(0.00265241 -0.00014555 0)
(0.00267536 -0.000140641 0)
(0.00269817 -0.00013633 0)
(0.00272083 -0.000132577 0)
(0.00274336 -0.000129346 0)
(0.00276577 -0.000126598 0)
(0.00278808 -0.0001243 0)
(0.00281029 -0.000122418 0)
(0.00283241 -0.00012092 0)
(0.00285445 -0.000119774 0)
(0.00287642 -0.000118952 0)
(0.00289833 -0.000118423 0)
(0.00292018 -0.000118161 0)
(0.00294199 -0.000118139 0)
(0.00296374 -0.000118331 0)
(0.00298546 -0.000118713 0)
(0.00300715 -0.000119261 0)
(0.00302881 -0.000119951 0)
(0.00305043 -0.000120763 0)
(0.00307204 -0.000121674 0)
(0.00309363 -0.000122663 0)
(0.00311519 -0.000123711 0)
(0.00313674 -0.000124797 0)
(0.00315828 -0.000125904 0)
(0.0031798 -0.000127013 0)
(0.00320131 -0.000128105 0)
(0.00322281 -0.000129163 0)
(0.00324429 -0.000130171 0)
(0.00326576 -0.000131112 0)
(0.00328722 -0.000131968 0)
(0.00330867 -0.000132725 0)
(0.0033301 -0.000133366 0)
(0.00335151 -0.000133876 0)
(0.00337291 -0.000134239 0)
(0.00339429 -0.000134439 0)
(0.00341565 -0.000134461 0)
(0.00343699 -0.00013429 0)
(0.00345831 -0.000133909 0)
(0.0034796 -0.000133303 0)
(0.00350087 -0.000132455 0)
(0.00352211 -0.000131349 0)
(0.00354332 -0.000129967 0)
(0.0035645 -0.000128292 0)
(0.00358565 -0.000126305 0)
(0.00360677 -0.000123987 0)
(0.00362785 -0.000121316 0)
(0.0036489 -0.000118271 0)
(0.00366992 -0.000114829 0)
(0.0036909 -0.000110963 0)
(0.00371186 -0.000106647 0)
(0.00373278 -0.000101852 0)
(0.00375367 -9.65454e-05 0)
(0.00377454 -9.06929e-05 0)
(0.00379539 -8.42568e-05 0)
(0.00381621 -7.71968e-05 0)
(0.00197151 -0.000613397 0)
(0.00195566 -0.000619933 0)
(0.0019399 -0.000626466 0)
(0.00192424 -0.000632997 0)
(0.00190868 -0.000639529 0)
(0.0018932 -0.000646065 0)
(0.00187782 -0.000652605 0)
(0.00186253 -0.00065915 0)
(0.00184733 -0.000665702 0)
(0.00183222 -0.00067226 0)
(0.00181719 -0.000678824 0)
(0.00180226 -0.000685393 0)
(0.00178741 -0.000691967 0)
(0.00177265 -0.000698546 0)
(0.00175798 -0.000705129 0)
(0.00174339 -0.000711714 0)
(0.00172888 -0.000718301 0)
(0.00171446 -0.000724889 0)
(0.00170012 -0.000731478 0)
(0.00168586 -0.000738065 0)
(0.00167168 -0.000744651 0)
(0.00165758 -0.000751235 0)
(0.00164355 -0.000757815 0)
(0.0016296 -0.000764391 0)
(0.00161572 -0.000770962 0)
(0.00160192 -0.000777528 0)
(0.00158818 -0.000784087 0)
(0.00157452 -0.00079064 0)
(0.00156091 -0.000797185 0)
(0.00154738 -0.000803722 0)
(0.0015339 -0.000810251 0)
(0.00152049 -0.000816771 0)
(0.00150714 -0.000823282 0)
(0.00149384 -0.000829784 0)
(0.00148059 -0.000836276 0)
(0.0014674 -0.000842758 0)
(0.00145426 -0.00084923 0)
(0.00144117 -0.000855692 0)
(0.00142812 -0.000862144 0)
(0.00141512 -0.000868585 0)
(0.00140216 -0.000875016 0)
(0.00138924 -0.000881437 0)
(0.00137635 -0.000887848 0)
(0.00136351 -0.000894248 0)
(0.00135069 -0.000900639 0)
(0.00133791 -0.000907021 0)
(0.00132515 -0.000913393 0)
(0.00131242 -0.000919755 0)
(0.00129971 -0.00092611 0)
(0.00128703 -0.000932455 0)
(0.00127436 -0.000938793 0)
(0.00126171 -0.000945124 0)
(0.00124907 -0.000951449 0)
(0.00123643 -0.000957767 0)
(0.00122381 -0.000964081 0)
(0.00121119 -0.00097039 0)
(0.00119857 -0.000976696 0)
(0.00118595 -0.000983001 0)
(0.00117332 -0.000989305 0)
(0.00116068 -0.000995609 0)
(0.00114802 -0.00100192 0)
(0.00113535 -0.00100823 0)
(0.00112266 -0.00101454 0)
(0.00110995 -0.00102087 0)
(0.0010972 -0.0010272 0)
(0.00108443 -0.00103355 0)
(0.00107161 -0.00103991 0)
(0.00105876 -0.00104629 0)
(0.00104586 -0.00105269 0)
(0.00103292 -0.0010591 0)
(0.00101992 -0.00106555 0)
(0.00100686 -0.00107202 0)
(0.000993743 -0.00107851 0)
(0.000980562 -0.00108504 0)
(0.000967312 -0.0010916 0)
(0.00095399 -0.0010982 0)
(0.000940596 -0.00110482 0)
(0.000927126 -0.00111148 0)
(0.000913652 -0.00111822 0)
(0.000109217 -0.000957473 0)
(0.000217834 -0.000966739 0)
(0.000325528 -0.00098068 0)
(0.000431831 -0.000999202 0)
(0.000536239 -0.00102208 0)
(0.000638285 -0.00104897 0)
(0.000737563 -0.00107944 0)
(0.000833755 -0.001113 0)
(0.000926636 -0.00114904 0)
(0.00101605 -0.00118694 0)
(0.0011019 -0.00122597 0)
(0.00118409 -0.0012653 0)
(0.0012625 -0.001304 0)
(0.00133691 -0.00134094 0)
(0.00140706 -0.00137487 0)
(0.00147261 -0.00140436 0)
(0.00153321 -0.00142789 0)
(0.00158861 -0.00144403 0)
(0.00163875 -0.00145149 0)
(0.00168372 -0.00144932 0)
(0.0017239 -0.0014371 0)
(0.00176014 -0.00141588 0)
(0.00179463 -0.00138999 0)
(0.00182959 -0.00136438 0)
(0.00186484 -0.00133885 0)
(0.00190023 -0.00131329 0)
(0.00193564 -0.00128769 0)
(0.00197097 -0.00126202 0)
(0.00200616 -0.00123628 0)
(0.00204112 -0.00121047 0)
(0.00207582 -0.00118461 0)
(0.00211018 -0.00115871 0)
(0.00214416 -0.00113277 0)
(0.00217774 -0.00110682 0)
(0.00221086 -0.00108086 0)
(0.0022435 -0.00105492 0)
(0.00227563 -0.001029 0)
(0.00230722 -0.00100312 0)
(0.00233825 -0.000977287 0)
(0.00239855 -0.000925826 0)
(0.00242778 -0.000900215 0)
(0.00245638 -0.000874695 0)
(0.00248434 -0.000849274 0)
(0.00251163 -0.000823958 0)
(0.00253826 -0.000798751 0)
(0.00256421 -0.000773658 0)
(0.00258947 -0.000748682 0)
(0.00261404 -0.000723824 0)
(0.00263789 -0.000699085 0)
(0.00266104 -0.000674467 0)
(0.00268346 -0.000649969 0)
(0.00270516 -0.00062559 0)
(0.00272612 -0.000601329 0)
(0.00274634 -0.000577183 0)
(0.00276581 -0.00055315 0)
(0.00278453 -0.000529228 0)
(0.0028025 -0.000505413 0)
(0.0028197 -0.000481701 0)
(0.00283614 -0.00045809 0)
(0.00285181 -0.000434576 0)
(0.00286669 -0.000411153 0)
(0.0028808 -0.000387819 0)
(0.00289413 -0.000364567 0)
(0.00290667 -0.000341395 0)
(0.00291842 -0.000318298 0)
(0.00292937 -0.00029527 0)
(0.00293952 -0.000272307 0)
(0.00294888 -0.000249405 0)
(0.00295744 -0.000226558 0)
(0.00296519 -0.000203762 0)
(0.00297213 -0.000181013 0)
(0.00297827 -0.000158304 0)
(0.00298361 -0.000135633 0)
(0.00298813 -0.000112995 0)
(0.00299186 -9.03851e-05 0)
(0.00299479 -6.78004e-05 0)
(0.00299694 -4.52362e-05 0)
(0.00299836 -2.26774e-05 0)
(0.00235071 -0.000934754 0)
(0.00233346 -0.00091876 0)
(0.00231689 -0.000903489 0)
(0.00230098 -0.000888895 0)
(0.00228569 -0.000874939 0)
(0.00227099 -0.000861581 0)
(0.00225684 -0.000848787 0)
(0.00224323 -0.000836524 0)
(0.00223012 -0.000824763 0)
(0.00221749 -0.000813474 0)
(0.00220532 -0.000802633 0)
(0.00219359 -0.000792215 0)
(0.00218228 -0.000782196 0)
(0.00217136 -0.000772557 0)
(0.00216083 -0.000763276 0)
(0.00215066 -0.000754336 0)
(0.00214085 -0.000745718 0)
(0.00213137 -0.000737406 0)
(0.00212222 -0.000729384 0)
(0.00211338 -0.000721638 0)
(0.00210484 -0.000714153 0)
(0.00209658 -0.000706917 0)
(0.00208861 -0.000699916 0)
(0.0020809 -0.000693139 0)
(0.00207345 -0.000686574 0)
(0.00206625 -0.000680211 0)
(0.00205929 -0.00067404 0)
(0.00205256 -0.00066805 0)
(0.00204605 -0.000662232 0)
(0.00203977 -0.000656578 0)
(0.00203369 -0.000651078 0)
(0.00202782 -0.000645724 0)
(0.00202215 -0.000640507 0)
(0.00201667 -0.000635419 0)
(0.00201138 -0.00063045 0)
(0.00200627 -0.00062559 0)
(0.00200134 -0.000620827 0)
(0.00199657 -0.000616143 0)
(0.00199197 -0.00061151 0)
(0.00235071 -0.000934754 0)
(0.00233346 -0.00091876 0)
(0.00231689 -0.000903489 0)
(0.00230098 -0.000888895 0)
(0.00228569 -0.000874939 0)
(0.00227099 -0.000861581 0)
(0.00225684 -0.000848787 0)
(0.00224323 -0.000836524 0)
(0.00223012 -0.000824763 0)
(0.00221749 -0.000813474 0)
(0.00220532 -0.000802633 0)
(0.00219359 -0.000792215 0)
(0.00218228 -0.000782196 0)
(0.00217136 -0.000772557 0)
(0.00216083 -0.000763276 0)
(0.00215066 -0.000754336 0)
(0.00214085 -0.000745718 0)
(0.00213137 -0.000737406 0)
(0.00212222 -0.000729384 0)
(0.00211338 -0.000721638 0)
(0.00210484 -0.000714153 0)
(0.00209658 -0.000706917 0)
(0.00208861 -0.000699916 0)
(0.0020809 -0.000693139 0)
(0.00207345 -0.000686574 0)
(0.00206625 -0.000680211 0)
(0.00205929 -0.00067404 0)
(0.00205256 -0.00066805 0)
(0.00204605 -0.000662232 0)
(0.00203977 -0.000656578 0)
(0.00203369 -0.000651078 0)
(0.00202782 -0.000645724 0)
(0.00202215 -0.000640507 0)
(0.00201667 -0.000635419 0)
(0.00201138 -0.00063045 0)
(0.00200627 -0.00062559 0)
(0.00200134 -0.000620827 0)
(0.00199657 -0.000616143 0)
(0.00199197 -0.00061151 0)
(0.00194111 -0.000640546 0)
(0.00189453 -0.000674817 0)
(0.00184772 -0.00070994 0)
(0.00180067 -0.000745967 0)
(0.00175341 -0.0007829 0)
(0.00170596 -0.000820728 0)
(0.00165834 -0.000859429 0)
(0.00161057 -0.000898976 0)
(0.00156268 -0.000939334 0)
(0.0015147 -0.000980467 0)
(0.00146663 -0.00102233 0)
(0.00141851 -0.00106488 0)
(0.00137034 -0.00110805 0)
(0.00132215 -0.00115177 0)
(0.00127394 -0.00119596 0)
(0.00122575 -0.0012405 0)
(0.00117758 -0.00128523 0)
(0.00112941 -0.00132999 0)
(0.00108094 -0.00137504 0)
(0.00103133 -0.00142112 0)
(0.000980031 -0.0014689 0)
(0.000926895 -0.00151862 0)
(0.000872087 -0.00157015 0)
(0.000815948 -0.00162307 0)
(0.000758886 -0.00167686 0)
(0.000701331 -0.00173091 0)
(0.000643714 -0.00178459 0)
(0.000586455 -0.00183725 0)
(0.000529943 -0.00188822 0)
(0.000474531 -0.00193688 0)
(0.000420515 -0.00198259 0)
(0.000368124 -0.00202483 0)
(0.000317492 -0.00206311 0)
(0.000268647 -0.00209708 0)
(0.000221493 -0.00212647 0)
(0.000175759 -0.00215109 0)
(0.00013112 -0.00217087 0)
(8.70263e-05 -0.0021855 0)
(4.33762e-05 -0.00219472 0)
(0 -0.00219464 0)
(0 -0.002191 0)
(0 -0.00218694 0)
(0 -0.0021823 0)
(0 -0.00217696 0)
(0 -0.00217077 0)
(0 -0.00216358 0)
(0 -0.00215525 0)
(0 -0.00214565 0)
(0 -0.00213464 0)
(0 -0.00212211 0)
(0 -0.00210795 0)
(0 -0.00209207 0)
(0 -0.0020744 0)
(0 -0.00205486 0)
(0 -0.00203341 0)
(0 -0.00201001 0)
(0 -0.00198462 0)
(0 -0.00195723 0)
(0 -0.00192782 0)
(0 -0.00189639 0)
(0 -0.00186294 0)
(0 -0.00182748 0)
(0 -0.00179002 0)
(0 -0.00175059 0)
(0 -0.0017092 0)
(0 -0.00166588 0)
(0 -0.00162068 0)
(0 -0.00157362 0)
(0 -0.00152477 0)
(0 -0.00147417 0)
(0 -0.00142189 0)
(0 -0.00136798 0)
(0 -0.00131254 0)
(0 -0.00125564 0)
(0 -0.00119736 0)
(0 -0.00113781 0)
(0 -0.0010771 0)
(0 -0.00101538 0)
(0.000109217 -0.000957473 0)
(0.000217834 -0.000966739 0)
(0.000325528 -0.00098068 0)
(0.000431831 -0.000999202 0)
(0.000536239 -0.00102208 0)
(0.000638285 -0.00104897 0)
(0.000737563 -0.00107944 0)
(0.000833755 -0.001113 0)
(0.000926636 -0.00114904 0)
(0.00101605 -0.00118694 0)
(0.0011019 -0.00122597 0)
(0.00118409 -0.0012653 0)
(0.0012625 -0.001304 0)
(0.00133691 -0.00134094 0)
(0.00140706 -0.00137487 0)
(0.00147261 -0.00140436 0)
(0.00153321 -0.00142789 0)
(0.00158861 -0.00144403 0)
(0.00163875 -0.00145149 0)
(0.00168372 -0.00144932 0)
(0.0017239 -0.0014371 0)
(0.00176014 -0.00141588 0)
(0.00179463 -0.00138999 0)
(0.00182959 -0.00136438 0)
(0.00186484 -0.00133885 0)
(0.00190023 -0.00131329 0)
(0.00193564 -0.00128769 0)
(0.00197097 -0.00126202 0)
(0.00200616 -0.00123628 0)
(0.00204112 -0.00121047 0)
(0.00207582 -0.00118461 0)
(0.00211018 -0.00115871 0)
(0.00214416 -0.00113277 0)
(0.00217774 -0.00110682 0)
(0.00221086 -0.00108086 0)
(0.0022435 -0.00105492 0)
(0.00227563 -0.001029 0)
(0.00230722 -0.00100312 0)
(0.00233825 -0.000977287 0)
(0.00239855 -0.000925826 0)
(0.00242778 -0.000900215 0)
(0.00245638 -0.000874695 0)
(0.00248434 -0.000849274 0)
(0.00251163 -0.000823958 0)
(0.00253826 -0.000798751 0)
(0.00256421 -0.000773658 0)
(0.00258947 -0.000748682 0)
(0.00261404 -0.000723824 0)
(0.00263789 -0.000699085 0)
(0.00266104 -0.000674467 0)
(0.00268346 -0.000649969 0)
(0.00270516 -0.00062559 0)
(0.00272612 -0.000601329 0)
(0.00274634 -0.000577183 0)
(0.00276581 -0.00055315 0)
(0.00278453 -0.000529228 0)
(0.0028025 -0.000505413 0)
(0.0028197 -0.000481701 0)
(0.00283614 -0.00045809 0)
(0.00285181 -0.000434576 0)
(0.00286669 -0.000411153 0)
(0.0028808 -0.000387819 0)
(0.00289413 -0.000364567 0)
(0.00290667 -0.000341395 0)
(0.00291842 -0.000318298 0)
(0.00292937 -0.00029527 0)
(0.00293952 -0.000272307 0)
(0.00294888 -0.000249405 0)
(0.00295744 -0.000226558 0)
(0.00296519 -0.000203762 0)
(0.00297213 -0.000181013 0)
(0.00297827 -0.000158304 0)
(0.00298361 -0.000135633 0)
(0.00298813 -0.000112995 0)
(0.00299186 -9.03851e-05 0)
(0.00299479 -6.78004e-05 0)
(0.00299694 -4.52362e-05 0)
(0.00299836 -2.26774e-05 0)
(0.00300499 0 0)
(0.0030103 0 0)
(0.00301526 0 0)
(0.00301987 0 0)
(0.00302417 0 0)
(0.00302817 0 0)
(0.00303188 0 0)
(0.00303534 0 0)
(0.00303856 0 0)
(0.00304155 0 0)
(0.00304435 0 0)
(0.00304696 0 0)
(0.0030494 0 0)
(0.00305168 0 0)
(0.00305382 0 0)
(0.00305582 0 0)
(0.00305771 0 0)
(0.0030595 0 0)
(0.00306118 0 0)
(0.00306278 0 0)
(0.0030643 0 0)
(0.00306575 0 0)
(0.00306714 0 0)
(0.00306847 0 0)
(0.00306975 0 0)
(0.00307099 0 0)
(0.0030722 0 0)
(0.00307337 0 0)
(0.00307452 0 0)
(0.00307564 0 0)
(0.00307675 0 0)
(0.00307785 0 0)
(0.00307893 0 0)
(0.00308001 0 0)
(0.00308109 0 0)
(0.00308217 0 0)
(0.00308324 0 0)
(0.00308433 0 0)
(0.00308541 0 0)
(0.00308584 -5.16808e-06 0)
(0.00308344 -1.0353e-05 0)
(0.00307937 -1.56174e-05 0)
(0.00307367 -2.10086e-05 0)
(0.00306633 -2.65709e-05 0)
(0.00305738 -3.23481e-05 0)
(0.00304683 -3.83832e-05 0)
(0.00303469 -4.47187e-05 0)
(0.00302098 -5.13962e-05 0)
(0.00300572 -5.84569e-05 0)
(0.00298893 -6.59414e-05 0)
(0.00297064 -7.38891e-05 0)
(0.00295086 -8.2339e-05 0)
(0.00292963 -9.13289e-05 0)
(0.00290698 -0.000100896 0)
(0.00288293 -0.000111076 0)
(0.00285752 -0.000121903 0)
(0.00283077 -0.000133412 0)
(0.00280273 -0.000145635 0)
(0.00277343 -0.000158603 0)
(0.00274291 -0.000172346 0)
(0.00271121 -0.000186892 0)
(0.00267837 -0.000202268 0)
(0.00264442 -0.0002185 0)
(0.00260941 -0.000235611 0)
(0.00257338 -0.000253623 0)
(0.00253638 -0.000272555 0)
(0.00249845 -0.000292427 0)
(0.00245963 -0.000313254 0)
(0.00241998 -0.000335049 0)
(0.00237952 -0.000357825 0)
(0.00233832 -0.00038159 0)
(0.00229641 -0.00040635 0)
(0.00225384 -0.000432107 0)
(0.00221066 -0.00045886 0)
(0.00216692 -0.0004866 0)
(0.00212266 -0.000515312 0)
(0.00207795 -0.000544968 0)
(0.00203285 -0.000575517 0)
(0.00308954 0 0)
(0.00309263 0 0)
(0.00309584 0 0)
(0.00309919 0 0)
(0.00310273 0 0)
(0.00310646 0 0)
(0.00311041 0 0)
(0.00311458 0 0)
(0.00311899 0 0)
(0.00312364 0 0)
(0.00312854 0 0)
(0.0031337 0 0)
(0.00313912 0 0)
(0.0031448 0 0)
(0.00315075 0 0)
(0.00315696 0 0)
(0.00316344 0 0)
(0.00317019 0 0)
(0.0031772 0 0)
(0.00318449 0 0)
(0.00319204 0 0)
(0.00319985 0 0)
(0.00320793 0 0)
(0.00321627 0 0)
(0.00322486 0 0)
(0.00323372 0 0)
(0.00324283 0 0)
(0.0032522 0 0)
(0.00326181 0 0)
(0.00327167 0 0)
(0.00328178 0 0)
(0.00329213 0 0)
(0.00330272 0 0)
(0.00331354 0 0)
(0.00332459 0 0)
(0.00333587 0 0)
(0.00334738 0 0)
(0.00335911 0 0)
(0.00337105 0 0)
(0.00338321 0 0)
(0.00339558 0 0)
(0.00340816 0 0)
(0.00342093 0 0)
(0.00343391 0 0)
(0.00344707 0 0)
(0.00346043 0 0)
(0.00347396 0 0)
(0.00348768 0 0)
(0.00350157 0 0)
(0.00351563 0 0)
(0.00352986 0 0)
(0.00354425 0 0)
(0.00355878 0 0)
(0.00357347 0 0)
(0.0035883 0 0)
(0.00360327 0 0)
(0.00361837 0 0)
(0.00363359 0 0)
(0.00364893 0 0)
(0.00366438 0 0)
(0.00367994 0 0)
(0.00369559 0 0)
(0.00371134 0 0)
(0.00372717 0 0)
(0.00374307 0 0)
(0.00375903 0 0)
(0.00377506 0 0)
(0.00379113 0 0)
(0.00380724 0 0)
(0.00382337 0 0)
(0.00383953 0 0)
(0.00385569 0 0)
(0.00387184 0 0)
(0.00388797 0 0)
(0.00390408 0 0)
(0.00392013 0 0)
(0.00393613 0 0)
(0.00395207 0 0)
(0.00396792 0 0)
(0.00398347 -2.11924e-07 0)
(0.0039831 -4.49988e-07 0)
(0.00398252 -7.04508e-07 0)
(0.00398173 -9.78638e-07 0)
(0.00398072 -1.27801e-06 0)