/*--------------------------------*- C++ -*----------------------------------*\
| =========                 |                                                 |
| \\      /  F ield         | OpenFOAM: The Open Source CFD Toolbox           |
|  \\    /   O peration     | Version:  v2012                                 |
|   \\  /    A nd           | Website:  www.openfoam.com                      |
|    \\/     M anipulation  |                                                 |
\*---------------------------------------------------------------------------*/
FoamFile
{
    version     2.0;
    format      ascii;
    class       volScalarField;
    location    "1";
    object      epsilonPEq;
}
// * * * * * * * * * * * * * * * * * * * * * * * * * * * * * * * * * * * * * //

dimensions      [0 0 0 0 0 0 0];


internalField   nonuniform List<scalar> 
158760
(
0.000100521
8.10811e-05
8.10811e-05
8.10811e-05
8.86211e-05
8.07863e-05
8.86211e-05
9.64737e-05
8.92444e-05
0.000100025
8.70971e-05
8.70971e-05
9.0289e-05
8.80689e-05
8.80689e-05
9.55688e-05
9.61275e-05
9.61275e-05
5.91482e-05
4.80696e-05
6.71916e-05
4.80696e-05
5.18737e-05
5.61559e-05
5.11212e-05
5.54815e-05
5.96014e-05
5.79796e-05
5.26672e-05
5.56031e-05
5.49839e-05
5.44735e-05
5.43118e-05
5.50331e-05
7.58039e-05
7.3407e-05
5.82274e-05
4.58302e-05
4.58302e-05
4.58302e-05
5.0228e-05
4.58302e-05
4.90408e-05
5.28933e-05
4.90408e-05
5.1794e-05
5.06008e-05
5.45388e-05
5.06008e-05
5.29092e-05
5.37402e-05
5.29092e-05
7.12157e-05
5.142e-05
3.4791e-05
3.12656e-05
4.35159e-05
3.12656e-05
3.33011e-05
3.55268e-05
3.2238e-05
3.44018e-05
3.61063e-05
3.46961e-05
3.68632e-05
3.46302e-05
3.63448e-05
4.04072e-05
3.79328e-05
3.74208e-05
5.96366e-05
5.75981e-05
3.54176e-05
3.15463e-05
3.15463e-05
3.15463e-05
3.38251e-05
3.15463e-05
3.25961e-05
3.50571e-05
3.25961e-05
3.53992e-05
3.46001e-05
3.46001e-05
3.69032e-05
3.71442e-05
3.71442e-05
3.71442e-05
5.90025e-05
3.71442e-05
2.21535e-05
2.11148e-05
2.49624e-05
2.19979e-05
2.30326e-05
2.18787e-05
2.28939e-05
2.37381e-05
2.28185e-05
2.38923e-05
2.36838e-05
2.4255e-05
2.52167e-05
2.68023e-05
2.62138e-05
2.82146e-05
3.89584e-05
3.98227e-05
2.3447e-05
2.21896e-05
2.21896e-05
2.31236e-05
2.28762e-05
2.28762e-05
2.39656e-05
2.36044e-05
2.36044e-05
2.49898e-05
2.44722e-05
2.44722e-05
2.61886e-05
2.71765e-05
2.71765e-05
2.89408e-05
3.78987e-05
3.78987e-05
1.40669e-05
1.38728e-05
1.51109e-05
1.45649e-05
1.4358e-05
1.45807e-05
1.5144e-05
1.49058e-05
1.52148e-05
1.58576e-05
1.57635e-05
1.61973e-05
1.69246e-05
1.81712e-05
1.70459e-05
1.92484e-05
2.68517e-05
1.76562e-05
1.57242e-05
1.53973e-05
1.53973e-05
1.60949e-05
1.58099e-05
1.58099e-05
1.6615e-05
1.62435e-05
1.62435e-05
1.72416e-05
1.69096e-05
1.69096e-05
1.81762e-05
1.90201e-05
1.90201e-05
2.03481e-05
2.71694e-05
2.71694e-05
8.35211e-06
8.41258e-06
8.73287e-06
8.84013e-06
8.59392e-06
8.8898e-06
9.08045e-06
8.75218e-06
9.15558e-06
9.34336e-06
9.06367e-06
9.45848e-06
9.79549e-06
1.02954e-05
9.58466e-06
1.09221e-05
1.56739e-05
9.13407e-06
1.03554e-05
1.03387e-05
1.03387e-05
1.07514e-05
1.04617e-05
1.04617e-05
1.09438e-05
1.05168e-05
1.05168e-05
1.1128e-05
1.06414e-05
1.06414e-05
1.14533e-05
1.15746e-05
1.15746e-05
1.24541e-05
1.63904e-05
1.63904e-05
4.6183e-06
4.69031e-06
4.72805e-06
4.86288e-06
4.57876e-06
4.89537e-06
4.77435e-06
4.29485e-06
4.80219e-06
4.52883e-06
3.88041e-06
4.55184e-06
4.16419e-06
3.59705e-06
3.91664e-06
3.75427e-06
5.20386e-06
2.24261e-06
6.89428e-06
6.93963e-06
6.93963e-06
7.10135e-06
6.80511e-06
6.80511e-06
7.00007e-06
6.46624e-06
6.46624e-06
6.72527e-06
5.93337e-06
5.93337e-06
6.30983e-06
5.42079e-06
5.42079e-06
5.89241e-06
6.4114e-06
6.4114e-06
2.96192e-06
2.92131e-06
2.94787e-06
2.93335e-06
2.6247e-06
2.94565e-06
2.63099e-06
2.03654e-06
2.64728e-06
2.02722e-06
1.02481e-06
2.03226e-06
9.74214e-07
0
8.54806e-07
0
0
0
5.37128e-06
5.34163e-06
5.34163e-06
5.35637e-06
5.05117e-06
5.05117e-06
5.07314e-06
4.46236e-06
4.46236e-06
4.50125e-06
3.44088e-06
3.44088e-06
3.5254e-06
1.71392e-06
1.71392e-06
1.9239e-06
0
0
3.59581e-06
3.37011e-06
3.52195e-06
3.40583e-06
3.07892e-06
3.38959e-06
3.10898e-06
2.52379e-06
3.12147e-06
2.54078e-06
1.53339e-06
2.58228e-06
1.51868e-06
0
1.65045e-06
0
0
5.215e-07
5.90871e-06
5.72048e-06
5.72048e-06
5.75543e-06
5.42998e-06
5.42998e-06
5.47145e-06
4.86421e-06
4.86421e-06
4.92359e-06
3.8608e-06
3.8608e-06
3.97116e-06
2.13458e-06
2.13458e-06
2.48436e-06
0
0
6.37584e-06
5.93256e-06
6.25319e-06
6.16188e-06
5.78255e-06
6.09644e-06
6.03097e-06
5.50161e-06
6.00344e-06
5.78599e-06
5.04346e-06
5.82769e-06
5.38746e-06
4.62359e-06
5.68268e-06
5.14363e-06
6.0266e-06
6.53925e-06
8.43509e-06
8.02478e-06
8.02478e-06
8.23776e-06
7.84118e-06
7.84118e-06
8.08241e-06
7.50161e-06
7.50161e-06
7.80258e-06
6.95604e-06
6.95604e-06
7.37872e-06
6.37326e-06
6.37326e-06
7.15686e-06
7.23838e-06
7.23838e-06
1.08264e-05
1.01449e-05
1.06679e-05
1.0638e-05
1.01551e-05
1.05386e-05
1.06897e-05
1.02099e-05
1.06583e-05
1.08449e-05
1.04403e-05
1.09239e-05
1.12533e-05
1.15785e-05
1.16588e-05
1.27043e-05
1.67793e-05
1.4321e-05
1.25551e-05
1.19021e-05
1.19021e-05
1.23737e-05
1.18738e-05
1.18738e-05
1.2395e-05
1.18673e-05
1.18673e-05
1.25082e-05
1.19898e-05
1.19898e-05
1.28579e-05
1.2898e-05
1.2898e-05
1.42293e-05
1.75602e-05
1.75602e-05
1.65783e-05
1.56865e-05
1.6419e-05
1.64689e-05
1.58444e-05
1.63212e-05
1.66983e-05
1.62529e-05
1.66333e-05
1.72549e-05
1.72441e-05
1.73954e-05
1.85238e-05
1.99267e-05
1.9064e-05
2.16439e-05
2.86021e-05
2.34035e-05
1.80535e-05
1.71758e-05
1.71758e-05
1.7944e-05
1.72893e-05
1.72893e-05
1.81367e-05
1.76143e-05
1.76143e-05
1.86301e-05
1.84769e-05
1.84769e-05
1.98195e-05
2.0921e-05
2.0921e-05
2.28443e-05
2.91155e-05
2.91155e-05
2.38767e-05
2.28615e-05
2.37754e-05
2.39177e-05
2.31927e-05
2.38089e-05
2.43654e-05
2.38744e-05
2.42561e-05
2.52625e-05
2.55224e-05
2.53438e-05
2.72903e-05
2.96168e-05
2.78185e-05
3.1942e-05
4.15595e-05
3.37447e-05
2.51431e-05
2.41026e-05
2.41026e-05
2.51677e-05
2.44006e-05
2.44006e-05
2.55915e-05
2.50003e-05
2.50003e-05
2.64285e-05
2.64995e-05
2.64995e-05
2.83619e-05
3.034e-05
3.034e-05
3.29116e-05
4.1827e-05
4.1827e-05
3.40348e-05
3.28158e-05
3.38312e-05
3.40998e-05
3.33348e-05
3.40208e-05
3.47727e-05
3.42606e-05
3.47048e-05
3.59938e-05
3.63973e-05
3.60443e-05
3.8682e-05
4.15716e-05
3.90234e-05
4.46306e-05
5.61584e-05
4.59199e-05
3.51216e-05
3.37637e-05
3.37637e-05
3.51036e-05
3.42375e-05
3.42375e-05
3.57472e-05
3.5091e-05
3.5091e-05
3.69279e-05
3.70878e-05
3.70878e-05
3.95477e-05
4.19986e-05
4.19986e-05
4.54152e-05
5.61092e-05
5.61092e-05
5.47908e-05
5.00793e-05
5.12932e-05
5.15026e-05
4.97662e-05
5.04618e-05
5.14059e-05
5.02342e-05
5.06881e-05
5.23066e-05
5.20808e-05
5.16276e-05
5.49236e-05
5.72324e-05
5.42557e-05
6.09356e-05
7.21088e-05
6.02594e-05
5.57028e-05
5.05454e-05
5.05454e-05
5.2123e-05
5.01426e-05
5.01426e-05
5.19629e-05
5.05087e-05
5.05087e-05
5.28197e-05
5.21916e-05
5.21916e-05
5.53902e-05
5.70728e-05
5.70728e-05
6.13832e-05
7.15827e-05
7.15827e-05
9.7707e-05
0.000102166
9.80238e-05
0.000103321
0.000102523
0.000103632
0.000103863
0.000102249
0.000104093
0.000103972
0.000102942
0.000104246
0.000105376
0.000107981
0.000105676
0.000111373
0.000131852
0.000110901
7.84365e-05
9.52461e-05
7.9639e-05
9.5948e-05
8.1816e-05
8.15867e-05
8.36198e-05
7.65426e-05
7.58331e-05
7.9543e-05
8.19176e-05
8.41348e-05
8.49368e-05
8.20657e-05
8.27673e-05
8.62171e-05
9.38514e-05
7.53923e-05
6.31233e-05
6.43614e-05
6.33208e-05
6.44168e-05
5.78879e-05
6.6353e-05
5.92388e-05
5.60838e-05
5.83213e-05
5.80466e-05
5.85873e-05
6.13987e-05
6.02566e-05
6.09893e-05
6.14066e-05
6.22202e-05
5.78135e-05
6.8171e-05
6.20305e-05
6.34574e-05
5.44377e-05
6.41971e-05
5.70739e-05
5.72606e-05
5.88338e-05
5.50451e-05
5.52112e-05
5.74165e-05
5.76624e-05
5.44975e-05
5.98913e-05
5.97729e-05
5.79754e-05
6.16641e-05
5.65464e-05
5.5555e-05
4.24762e-05
4.14206e-05
4.9037e-05
4.23439e-05
4.04148e-05
4.49934e-05
4.15561e-05
4.03527e-05
4.19999e-05
4.18849e-05
4.12704e-05
4.38786e-05
4.31084e-05
4.42639e-05
4.56769e-05
4.52803e-05
4.16057e-05
4.73147e-05
4.32334e-05
4.18221e-05
3.90186e-05
4.29372e-05
4.06576e-05
4.06446e-05
4.20465e-05
4.05464e-05
4.09477e-05
4.2403e-05
4.13987e-05
4.10555e-05
4.36772e-05
4.43558e-05
4.3432e-05
4.58979e-05
4.08548e-05
4.8621e-05
2.87701e-05
2.78912e-05
3.212e-05
2.87867e-05
2.79806e-05
3.02377e-05
2.90417e-05
2.85599e-05
2.95659e-05
2.98369e-05
2.95206e-05
3.07553e-05
3.09634e-05
3.12321e-05
3.14888e-05
3.21971e-05
3.28109e-05
3.02825e-05
3.02113e-05
2.90682e-05
2.80745e-05
3.00639e-05
2.89987e-05
2.90454e-05
3.01922e-05
2.95213e-05
2.9517e-05
3.09716e-05
3.04197e-05
3.01555e-05
3.20918e-05
3.20732e-05
3.2043e-05
3.33613e-05
3.36845e-05
3.53681e-05
1.92151e-05
1.86978e-05
2.08588e-05
1.94022e-05
1.90333e-05
2.0091e-05
1.9824e-05
1.95393e-05
2.02771e-05
2.05038e-05
2.02742e-05
2.1185e-05
2.13767e-05
2.14232e-05
2.16668e-05
2.21259e-05
2.22198e-05
2.05853e-05
2.11372e-05
2.04422e-05
2.0116e-05
2.11807e-05
2.06447e-05
2.06609e-05
2.14859e-05
2.10219e-05
2.10218e-05
2.20677e-05
2.159e-05
2.15691e-05
2.28251e-05
2.25398e-05
2.2897e-05
2.34722e-05
2.3098e-05
2.51389e-05
1.2487e-05
1.21987e-05
1.32495e-05
1.26498e-05
1.23659e-05
1.29635e-05
1.28556e-05
1.25108e-05
1.31046e-05
1.31015e-05
1.27463e-05
1.34598e-05
1.34083e-05
1.30822e-05
1.3405e-05
1.34445e-05
1.26934e-05
1.17139e-05
1.48088e-05
1.44209e-05
1.43413e-05
1.48719e-05
1.45e-05
1.45187e-05
1.50028e-05
1.45268e-05
1.45703e-05
1.51577e-05
1.45763e-05
1.46674e-05
1.53353e-05
1.46645e-05
1.51389e-05
1.5255e-05
1.3986e-05
1.60589e-05
8.11996e-06
7.96889e-06
8.45427e-06
8.15671e-06
7.87008e-06
8.31715e-06
8.0604e-06
7.56933e-06
8.18051e-06
7.78463e-06
7.10086e-06
7.92356e-06
7.30968e-06
6.32536e-06
7.17492e-06
6.31816e-06
4.38455e-06
4.89118e-06
1.06924e-05
1.04983e-05
1.05096e-05
1.06829e-05
1.03671e-05
1.03802e-05
1.05675e-05
1.00146e-05
1.00597e-05
1.02685e-05
9.43853e-06
9.57144e-06
9.75213e-06
8.49584e-06
8.99336e-06
8.76102e-06
6.35718e-06
8.33282e-06
6.10905e-06
6.00781e-06
6.19649e-06
6.01947e-06
5.70766e-06
6.08686e-06
5.70162e-06
5.10685e-06
5.77472e-06
5.06903e-06
4.10316e-06
5.15064e-06
3.99335e-06
2.38452e-06
3.95646e-06
2.1091e-06
0
1.54767e-06
8.75989e-06
8.65006e-06
8.691e-06
8.66798e-06
8.36055e-06
8.36777e-06
8.37588e-06
7.77362e-06
7.79468e-06
7.7917e-06
6.77494e-06
6.86955e-06
6.80182e-06
5.0686e-06
5.43374e-06
5.13502e-06
1.82926e-06
3.35851e-06
6.62773e-06
6.46786e-06
6.54916e-06
6.48741e-06
6.14053e-06
6.46846e-06
6.15728e-06
5.57504e-06
6.19656e-06
5.5672e-06
4.61722e-06
5.66967e-06
4.55937e-06
3.00626e-06
4.76906e-06
2.86499e-06
4.50034e-07
3.44062e-06
9.11165e-06
8.98474e-06
9.03734e-06
9.00607e-06
8.68917e-06
8.70511e-06
8.71984e-06
8.14285e-06
8.16344e-06
8.18025e-06
7.18699e-06
7.24203e-06
7.2486e-06
5.57477e-06
5.7033e-06
5.73851e-06
2.96558e-06
3.44342e-06
9.51127e-06
9.24347e-06
9.32672e-06
9.4469e-06
9.07674e-06
9.34273e-06
9.32431e-06
8.82255e-06
9.28457e-06
9.10873e-06
8.35562e-06
9.15447e-06
8.67473e-06
7.68262e-06
9.01244e-06
7.94841e-06
7.08708e-06
9.17391e-06
1.17767e-05
1.15342e-05
1.16184e-05
1.17225e-05
1.1342e-05
1.13926e-05
1.15818e-05
1.10132e-05
1.10439e-05
1.13157e-05
1.04399e-05
1.04423e-05
1.08318e-05
9.64101e-06
9.52775e-06
1.01215e-05
8.8008e-06
8.42737e-06
1.44767e-05
1.40216e-05
1.4188e-05
1.44897e-05
1.39937e-05
1.42754e-05
1.45382e-05
1.40557e-05
1.44705e-05
1.471e-05
1.42054e-05
1.48392e-05
1.50246e-05
1.47015e-05
1.55308e-05
1.54685e-05
1.59502e-05
1.69835e-05
1.63658e-05
1.59102e-05
1.59973e-05
1.63554e-05
1.5835e-05
1.59258e-05
1.63636e-05
1.58589e-05
1.58953e-05
1.65145e-05
1.59596e-05
1.58594e-05
1.6815e-05
1.63132e-05
1.59609e-05
1.72239e-05
1.72652e-05
1.6399e-05
2.10854e-05
2.044e-05
2.08169e-05
2.11996e-05
2.05041e-05
2.08825e-05
2.13947e-05
2.08658e-05
2.11751e-05
2.19441e-05
2.17803e-05
2.21098e-05
2.30689e-05
2.35073e-05
2.38073e-05
2.47385e-05
2.6487e-05
2.66377e-05
2.26577e-05
2.20492e-05
2.20722e-05
2.27859e-05
2.20758e-05
2.21377e-05
2.2947e-05
2.23696e-05
2.24412e-05
2.34423e-05
2.32113e-05
2.31258e-05
2.45279e-05
2.48232e-05
2.44001e-05
2.61702e-05
2.75833e-05
2.64687e-05
2.98112e-05
2.88973e-05
2.94444e-05
2.98891e-05
2.91758e-05
2.97491e-05
3.04057e-05
2.98081e-05
3.01456e-05
3.12903e-05
3.12973e-05
3.12754e-05
3.30703e-05
3.39196e-05
3.35049e-05
3.55956e-05
3.83941e-05
3.74831e-05
3.11457e-05
3.03078e-05
3.03959e-05
3.12808e-05
3.06231e-05
3.06533e-05
3.18327e-05
3.12051e-05
3.1236e-05
3.26747e-05
3.25881e-05
3.25176e-05
3.43749e-05
3.50819e-05
3.48006e-05
3.68341e-05
3.93924e-05
3.86701e-05
4.26352e-05
4.08066e-05
4.1457e-05
4.19383e-05
4.11587e-05
4.16624e-05
4.26451e-05
4.2051e-05
4.24721e-05
4.38709e-05
4.38324e-05
4.36903e-05
4.6037e-05
4.71384e-05
4.62412e-05
4.92977e-05
5.2356e-05
5.00403e-05
4.37217e-05
4.22513e-05
4.56423e-05
4.33429e-05
4.26961e-05
4.37082e-05
4.41394e-05
4.3613e-05
4.43039e-05
4.53936e-05
4.53622e-05
4.60266e-05
4.75408e-05
4.85718e-05
4.93115e-05
5.07517e-05
5.34703e-05
5.45593e-05
6.45731e-05
6.30086e-05
6.09471e-05
6.39385e-05
6.30209e-05
6.25198e-05
6.46547e-05
6.35646e-05
6.32401e-05
6.55801e-05
6.51056e-05
6.4242e-05
6.76201e-05
6.8212e-05
6.61105e-05
7.06615e-05
7.23045e-05
6.82331e-05
6.75365e-05
6.62343e-05
6.5659e-05
6.73107e-05
6.67637e-05
6.6452e-05
6.78379e-05
6.71002e-05
6.6915e-05
6.84522e-05
6.8488e-05
6.82612e-05
7.01819e-05
7.1386e-05
7.10586e-05
7.29403e-05
7.53201e-05
7.47177e-05
8.9743e-05
8.7879e-05
8.94908e-05
8.768e-05
8.78438e-05
8.70101e-05
8.76901e-05
8.8187e-05
8.68838e-05
8.81686e-05
8.95962e-05
8.7507e-05
8.97354e-05
9.25365e-05
8.94261e-05
9.24091e-05
9.36223e-05
9.35214e-05
7.64231e-05
7.68569e-05
7.74131e-05
7.69139e-05
7.78325e-05
7.80957e-05
7.65727e-05
7.45877e-05
7.7898e-05
7.48833e-05
7.74729e-05
7.61268e-05
7.75866e-05
8.01719e-05
7.8526e-05
7.99307e-05
8.79656e-05
8.09742e-05
6.4022e-05
6.48772e-05
6.40212e-05
6.4572e-05
6.34776e-05
6.2425e-05
6.281e-05
6.12473e-05
6.01192e-05
6.09851e-05
6.17087e-05
6.06212e-05
6.13182e-05
6.27518e-05
6.19197e-05
6.18086e-05
5.9876e-05
5.87504e-05
6.29538e-05
6.35509e-05
5.69309e-05
6.4324e-05
6.19117e-05
5.93155e-05
6.30329e-05
5.94394e-05
5.90192e-05
6.12611e-05
5.98453e-05
5.78499e-05
6.18303e-05
6.10219e-05
5.84356e-05
6.23385e-05
5.85465e-05
5.63076e-05
4.66058e-05
4.60791e-05
5.21588e-05
4.69175e-05
4.54958e-05
5.04523e-05
4.65012e-05
4.48634e-05
4.87455e-05
4.61797e-05
4.51454e-05
4.84239e-05
4.6537e-05
4.53505e-05
4.86337e-05
4.6134e-05
4.24465e-05
4.84005e-05
4.74772e-05
4.67483e-05
4.34402e-05
4.773e-05
4.60543e-05
4.47068e-05
4.72331e-05
4.53324e-05
4.48799e-05
4.68807e-05
4.55824e-05
4.47136e-05
4.72509e-05
4.57818e-05
4.53227e-05
4.68237e-05
4.24787e-05
4.43989e-05
3.32808e-05
3.26173e-05
3.67054e-05
3.34044e-05
3.26055e-05
3.56566e-05
3.35224e-05
3.28128e-05
3.51705e-05
3.39231e-05
3.33092e-05
3.54807e-05
3.44625e-05
3.35112e-05
3.54867e-05
3.4141e-05
3.13881e-05
3.38868e-05
3.4908e-05
3.40215e-05
3.24695e-05
3.48986e-05
3.38442e-05
3.32714e-05
3.48756e-05
3.39192e-05
3.35766e-05
3.51819e-05
3.43551e-05
3.3788e-05
3.56914e-05
3.4551e-05
3.44042e-05
3.53808e-05
3.23528e-05
3.40747e-05
2.3203e-05
2.26476e-05
2.51475e-05
2.32631e-05
2.27897e-05
2.45032e-05
2.34934e-05
2.31196e-05
2.45307e-05
2.39441e-05
2.35578e-05
2.51077e-05
2.44012e-05
2.36316e-05
2.51588e-05
2.40383e-05
2.16662e-05
2.33009e-05
2.54129e-05
2.4684e-05
2.40271e-05
2.53377e-05
2.46562e-05
2.44608e-05
2.54149e-05
2.48097e-05
2.46939e-05
2.57161e-05
2.50818e-05
2.48886e-05
2.60392e-05
2.50038e-05
2.52416e-05
2.55679e-05
2.28451e-05
2.49647e-05
1.58914e-05
1.55001e-05
1.69506e-05
1.58923e-05
1.55045e-05
1.6507e-05
1.59409e-05
1.55268e-05
1.64376e-05
1.60133e-05
1.55237e-05
1.66299e-05
1.59877e-05
1.51332e-05
1.63515e-05
1.52825e-05
1.29487e-05
1.41662e-05
1.85358e-05
1.80404e-05
1.77851e-05
1.84401e-05
1.79417e-05
1.78848e-05
1.83983e-05
1.78306e-05
1.78544e-05
1.83614e-05
1.76426e-05
1.7718e-05
1.81928e-05
1.70261e-05
1.75329e-05
1.73396e-05
1.46119e-05
1.6842e-05
1.10836e-05
1.08552e-05
1.16435e-05
1.10128e-05
1.06651e-05
1.1357e-05
1.0826e-05
1.02911e-05
1.10769e-05
1.04427e-05
9.68045e-06
1.07117e-05
9.7685e-06
8.5429e-06
9.83247e-06
8.42425e-06
5.89304e-06
7.44257e-06
1.39564e-05
1.36729e-05
1.36106e-05
1.38335e-05
1.34416e-05
1.34416e-05
1.36186e-05
1.30182e-05
1.30837e-05
1.3212e-05
1.23152e-05
1.25005e-05
1.24976e-05
1.10376e-05
1.16633e-05
1.11174e-05
8.22801e-06
1.04294e-05
8.82741e-06
8.69343e-06
9.03383e-06
8.69608e-06
8.35631e-06
8.8519e-06
8.3353e-06
7.72486e-06
8.47688e-06
7.658e-06
6.71128e-06
7.81816e-06
6.55649e-06
5.04354e-06
6.61514e-06
4.75797e-06
2.13658e-06
4.31384e-06
1.1718e-05
1.15624e-05
1.16123e-05
1.15735e-05
1.12281e-05
1.12669e-05
1.12308e-05
1.06135e-05
1.06775e-05
1.06011e-05
9.61512e-06
9.78395e-06
9.57607e-06
7.94891e-06
8.4857e-06
7.89984e-06
4.98754e-06
6.83384e-06
9.29859e-06
9.15436e-06
9.23362e-06
9.16848e-06
8.8082e-06
9.15579e-06
8.80945e-06
8.2096e-06
8.85677e-06
8.1771e-06
7.29236e-06
8.31293e-06
7.2055e-06
5.85728e-06
7.42752e-06
5.66798e-06
3.52343e-06
5.94198e-06
1.19253e-05
1.1804e-05
1.19104e-05
1.18203e-05
1.15061e-05
1.15667e-05
1.15215e-05
1.09635e-05
1.10364e-05
1.09715e-05
1.0071e-05
1.02387e-05
1.00774e-05
8.60399e-06
8.96739e-06
8.62048e-06
6.09959e-06
7.20518e-06
1.22891e-05
1.2078e-05
1.20542e-05
1.22593e-05
1.19376e-05
1.21448e-05
1.21585e-05
1.17115e-05
1.2126e-05
1.19488e-05
1.12502e-05
1.1954e-05
1.15104e-05
1.0455e-05
1.17026e-05
1.05108e-05
8.80594e-06
1.11438e-05
1.46801e-05
1.45377e-05
1.47149e-05
1.47034e-05
1.44244e-05
1.45724e-05
1.46348e-05
1.41275e-05
1.42428e-05
1.43757e-05
1.3473e-05
1.36064e-05
1.3785e-05
1.24606e-05
1.25985e-05
1.26698e-05
1.05855e-05
1.09858e-05
1.76733e-05
1.73709e-05
1.72716e-05
1.78187e-05
1.73884e-05
1.7435e-05
1.78807e-05
1.74287e-05
1.77323e-05
1.79866e-05
1.7377e-05
1.81154e-05
1.80267e-05
1.73082e-05
1.85259e-05
1.78161e-05
1.63823e-05
1.8714e-05
1.97315e-05
1.94049e-05
1.95953e-05
1.9825e-05
1.92835e-05
1.95508e-05
1.97574e-05
1.92595e-05
1.94817e-05
1.98163e-05
1.92342e-05
1.92486e-05
1.99016e-05
1.91282e-05
1.8898e-05
1.97136e-05
1.79537e-05
1.75736e-05
2.49714e-05
2.45251e-05
2.46275e-05
2.522e-05
2.46096e-05
2.48658e-05
2.54423e-05
2.4669e-05
2.48569e-05
2.56655e-05
2.54267e-05
2.58223e-05
2.65313e-05
2.61139e-05
2.6969e-05
2.70841e-05
2.6752e-05
2.93165e-05
2.65666e-05
2.62276e-05
2.64909e-05
2.6889e-05
2.6252e-05
2.63873e-05
2.70516e-05
2.61932e-05
2.64643e-05
2.71625e-05
2.69626e-05
2.70761e-05
2.80618e-05
2.75373e-05
2.74339e-05
2.8559e-05
2.81818e-05
2.73245e-05
3.49126e-05
3.37748e-05
3.37684e-05
3.46781e-05
3.4114e-05
3.45854e-05
3.52312e-05
3.47474e-05
3.52582e-05
3.60971e-05
3.57369e-05
3.55782e-05
3.7211e-05
3.68683e-05
3.73163e-05
3.81119e-05
3.78951e-05
3.91868e-05
3.63823e-05
3.52788e-05
3.63372e-05
3.61382e-05
3.56664e-05
3.59063e-05
3.67353e-05
3.63253e-05
3.64961e-05
3.76262e-05
3.71448e-05
3.73835e-05
3.8589e-05
3.81963e-05
3.82219e-05
3.9446e-05
3.92386e-05
3.91535e-05
4.89867e-05
4.72798e-05
4.72515e-05
4.83248e-05
4.74841e-05
4.7635e-05
4.87609e-05
4.80496e-05
4.8172e-05
4.9643e-05
4.9128e-05
4.91894e-05
5.09185e-05
5.05952e-05
5.07687e-05
5.18429e-05
5.1528e-05
5.17731e-05
5.0306e-05
4.89025e-05
5.24673e-05
4.98479e-05
4.92395e-05
5.06063e-05
5.04027e-05
4.99946e-05
5.13777e-05
5.1447e-05
5.11035e-05
5.24429e-05
5.27487e-05
5.26078e-05
5.42181e-05
5.37634e-05
5.35374e-05
5.62206e-05
6.65621e-05
6.55387e-05
6.32832e-05
6.62206e-05
6.56232e-05
6.47888e-05
6.71551e-05
6.59726e-05
6.48528e-05
6.7702e-05
6.69834e-05
6.58258e-05
6.89185e-05
6.8338e-05
6.66782e-05
6.98147e-05
6.73603e-05
6.48554e-05
7.01899e-05
6.89973e-05
6.88516e-05
6.96668e-05
6.97808e-05
6.9483e-05
7.06581e-05
6.9679e-05
6.94883e-05
7.06542e-05
7.04138e-05
7.01732e-05
7.14182e-05
7.12797e-05
7.10441e-05
7.16806e-05
6.95098e-05
6.90424e-05
8.26838e-05
8.16727e-05
8.20536e-05
8.11894e-05
8.16724e-05
8.09634e-05
8.15191e-05
8.22422e-05
8.08732e-05
8.20874e-05
8.33693e-05
8.17282e-05
8.32111e-05
8.4161e-05
8.32445e-05
8.35996e-05
7.95021e-05
8.46311e-05
7.46104e-05
7.4907e-05
7.55655e-05
7.45824e-05
7.48446e-05
7.56914e-05
7.41712e-05
7.32802e-05
7.53244e-05
7.29984e-05
7.41507e-05
7.41474e-05
7.38773e-05
7.52555e-05
7.48036e-05
7.45563e-05
7.43538e-05
7.52179e-05
6.39093e-05
6.49516e-05
6.40797e-05
6.44764e-05
6.4289e-05
6.32418e-05
6.37008e-05
6.29774e-05
6.19063e-05
6.24644e-05
6.22621e-05
6.11873e-05
6.15988e-05
6.14252e-05
6.05305e-05
6.03962e-05
5.80573e-05
5.72715e-05
6.28945e-05
6.34277e-05
5.7874e-05
6.42034e-05
6.28942e-05
5.94102e-05
6.39264e-05
6.16917e-05
5.95052e-05
6.29584e-05
6.10387e-05
5.88244e-05
6.23926e-05
6.0474e-05
5.84023e-05
6.13511e-05
5.77549e-05
5.54572e-05
4.85328e-05
4.834e-05
5.34351e-05
4.90688e-05
4.81338e-05
5.29696e-05
4.89945e-05
4.77299e-05
5.21749e-05
4.87358e-05
4.73725e-05
5.15183e-05
4.83818e-05
4.64573e-05
5.04575e-05
4.69799e-05
4.31903e-05
4.90786e-05
4.94765e-05
4.91946e-05
4.58313e-05
5.0018e-05
4.89256e-05
4.67729e-05
4.99005e-05
4.84755e-05
4.69198e-05
4.96232e-05
4.81028e-05
4.66126e-05
4.92761e-05
4.72511e-05
4.62908e-05
4.79104e-05
4.38214e-05
4.41153e-05
3.59731e-05
3.55189e-05
3.92371e-05
3.61626e-05
3.55349e-05
3.88547e-05
3.62821e-05
3.56518e-05
3.87063e-05
3.6513e-05
3.57589e-05
3.88384e-05
3.65916e-05
3.51782e-05
3.82455e-05
3.55459e-05
3.22969e-05
3.61696e-05
3.77725e-05
3.71618e-05
3.53308e-05
3.78692e-05
3.70178e-05
3.59129e-05
3.78471e-05
3.69772e-05
3.6075e-05
3.79453e-05
3.69853e-05
3.59581e-05
3.79392e-05
3.63943e-05
3.57982e-05
3.68732e-05
3.34286e-05
3.4385e-05
2.59529e-05
2.54597e-05
2.79871e-05
2.59503e-05
2.54661e-05
2.75387e-05
2.60293e-05
2.56159e-05
2.75326e-05
2.62425e-05
2.5768e-05
2.79306e-05
2.63396e-05
2.53059e-05
2.76699e-05
2.54933e-05
2.2721e-05
2.54694e-05
2.84242e-05
2.77937e-05
2.68732e-05
2.83137e-05
2.76258e-05
2.71654e-05
2.82324e-05
2.75682e-05
2.72425e-05
2.82578e-05
2.75258e-05
2.71131e-05
2.81784e-05
2.6904e-05
2.6815e-05
2.71888e-05
2.41353e-05
2.56852e-05
1.84373e-05
1.8067e-05
1.97083e-05
1.83721e-05
1.79416e-05
1.92437e-05
1.82823e-05
1.77935e-05
1.9001e-05
1.81427e-05
1.75567e-05
1.89885e-05
1.78261e-05
1.67893e-05
1.85256e-05
1.67871e-05
1.43614e-05
1.63441e-05
2.1379e-05
2.09118e-05
2.04676e-05
2.12255e-05
2.06834e-05
2.0487e-05
2.10435e-05
2.03998e-05
2.03458e-05
2.0786e-05
1.99751e-05
1.99807e-05
2.03091e-05
1.8981e-05
1.93456e-05
1.90859e-05
1.63309e-05
1.8101e-05
1.34312e-05
1.31976e-05
1.41662e-05
1.33102e-05
1.29418e-05
1.38396e-05
1.30531e-05
1.24807e-05
1.34434e-05
1.25618e-05
1.17592e-05
1.2948e-05
1.17483e-05
1.04625e-05
1.19603e-05
1.02857e-05
8.04687e-06
9.78923e-06
1.65838e-05
1.62886e-05
1.61357e-05
1.6407e-05
1.5981e-05
1.5933e-05
1.611e-05
1.54713e-05
1.55256e-05
1.55907e-05
1.46703e-05
1.48499e-05
1.47339e-05
1.32504e-05
1.38326e-05
1.3206e-05
1.06509e-05
1.24718e-05
1.10767e-05
1.09266e-05
1.13749e-05
1.09187e-05
1.05716e-05
1.11641e-05
1.05351e-05
9.91071e-06
1.07304e-05
9.82385e-06
8.94133e-06
1.00654e-05
8.76785e-06
7.35685e-06
8.85489e-06
7.09518e-06
5.09824e-06
6.8662e-06
1.41799e-05
1.40071e-05
1.40615e-05
1.40076e-05
1.36438e-05
1.37165e-05
1.36297e-05
1.29874e-05
1.31101e-05
1.2947e-05
1.20157e-05
1.22274e-05
1.19316e-05
1.04416e-05
1.09899e-05
1.03309e-05
8.0402e-06
9.6304e-06
1.15654e-05
1.14307e-05
1.15095e-05
1.1445e-05
1.11058e-05
1.14545e-05
1.10935e-05
1.04319e-05
1.10788e-05
1.03835e-05
9.56959e-06
1.05321e-05
9.45054e-06
8.2445e-06
9.58997e-06
8.0561e-06
6.4701e-06
8.28119e-06
1.43158e-05
1.41765e-05
1.43671e-05
1.41912e-05
1.38667e-05
1.39864e-05
1.38676e-05
1.32828e-05
1.34096e-05
1.32663e-05
1.24658e-05
1.27134e-05
1.24174e-05
1.11866e-05
1.16904e-05
1.11193e-05
9.1416e-06
1.03693e-05
1.47157e-05
1.44672e-05
1.43781e-05
1.46487e-05
1.42926e-05
1.44972e-05
1.445e-05
1.40351e-05
1.44257e-05
1.42126e-05
1.36296e-05
1.42284e-05
1.37087e-05
1.29304e-05
1.37872e-05
1.28974e-05
1.10797e-05
1.29369e-05
1.70927e-05
1.69687e-05
1.72619e-05
1.71326e-05
1.69524e-05
1.72108e-05
1.71021e-05
1.68289e-05
1.70304e-05
1.70092e-05
1.60522e-05
1.63485e-05
1.61744e-05
1.49476e-05
1.53655e-05
1.50009e-05
1.24637e-05
1.35733e-05
2.02461e-05
2.01445e-05
1.98579e-05
2.05524e-05
2.01747e-05
1.99645e-05
2.05624e-05
2.01887e-05
2.00728e-05
1.98428e-05
2.03177e-05
2.01598e-05
1.94681e-05
1.99797e-05
2.01372e-05
1.89111e-05
1.68669e-05
1.90714e-05
2.24361e-05
2.23993e-05
2.27014e-05
2.27749e-05
2.21219e-05
2.24845e-05
2.24903e-05
2.18388e-05
2.24314e-05
2.27798e-05
2.21761e-05
2.17701e-05
2.3131e-05
2.18917e-05
2.19055e-05
2.33816e-05
1.87583e-05
2.09917e-05
2.81409e-05
2.77553e-05
2.73804e-05
2.76214e-05
2.84351e-05
2.77903e-05
2.77216e-05
2.92712e-05
2.81546e-05
2.89812e-05
2.80847e-05
2.89158e-05
2.90595e-05
2.77549e-05
2.89503e-05
2.91162e-05
2.30506e-05
2.40378e-05
2.96394e-05
2.93882e-05
3.03633e-05
3.01008e-05
3.00746e-05
2.93706e-05
3.04279e-05
3.10225e-05
2.96132e-05
3.1634e-05
3.06981e-05
3.08188e-05
3.17109e-05
3.03276e-05
3.0496e-05
3.19655e-05
2.51601e-05
3.02065e-05
3.85679e-05
3.84786e-05
3.7628e-05
3.8533e-05
3.78612e-05
3.85968e-05
3.82237e-05
3.83607e-05
3.91335e-05
3.89747e-05
3.85727e-05
3.9683e-05
3.95711e-05
3.82642e-05
3.9502e-05
3.97732e-05
3.24195e-05
3.37631e-05
4.00758e-05
4.02425e-05
4.18669e-05
4.09699e-05
4.03407e-05
4.03406e-05
4.05133e-05
4.05934e-05
3.97546e-05
4.11919e-05
4.09576e-05
4.03055e-05
4.20177e-05
4.07313e-05
4.08466e-05
4.21085e-05
3.5085e-05
4.10515e-05
5.21256e-05
5.19881e-05
5.00465e-05
5.20232e-05
5.05911e-05
5.13132e-05
5.15933e-05
5.10473e-05
5.09319e-05
5.23541e-05
5.14112e-05
5.15251e-05
5.28895e-05
5.10621e-05
5.15994e-05
5.22205e-05
4.6229e-05
4.82506e-05
5.3642e-05
5.38114e-05
5.70177e-05
5.43008e-05
5.28706e-05
5.36672e-05
5.29997e-05
5.28164e-05
5.50701e-05
5.40225e-05
5.35401e-05
5.54294e-05
5.46623e-05
5.36936e-05
5.60079e-05
5.41513e-05
5.03577e-05
5.52502e-05
6.63881e-05
6.64182e-05
6.29081e-05
6.7035e-05
6.49829e-05
6.48936e-05
6.59243e-05
6.57759e-05
6.35959e-05
6.70871e-05
6.62017e-05
6.47133e-05
6.75384e-05
6.61809e-05
6.47729e-05
6.69739e-05
6.35327e-05
6.24988e-05
6.98147e-05
6.95627e-05
6.95794e-05
6.99639e-05
6.82601e-05
6.77084e-05
6.87805e-05
6.90054e-05
6.87589e-05
6.95616e-05
6.92522e-05
6.8853e-05
6.95953e-05
6.87645e-05
6.83597e-05
6.84004e-05
6.5001e-05
6.47034e-05
7.86402e-05
7.82788e-05
7.82731e-05
7.78002e-05
7.81529e-05
7.7356e-05
7.77329e-05
7.85525e-05
7.7606e-05
7.82363e-05
7.89871e-05
7.82657e-05
7.85629e-05
7.82449e-05
7.89709e-05
7.74574e-05
7.30843e-05
7.8218e-05
7.29195e-05
7.33282e-05
7.38824e-05
7.28282e-05
7.32218e-05
7.39275e-05
7.26278e-05
7.22343e-05
7.37305e-05
7.17121e-05
7.1991e-05
7.27651e-05
7.13841e-05
7.13294e-05
7.2242e-05
7.04016e-05
6.82471e-05
7.09542e-05
6.28382e-05
6.41778e-05
6.32503e-05
6.35758e-05
6.42181e-05
6.31425e-05
6.3587e-05
6.34772e-05
6.24055e-05
6.28061e-05
6.23005e-05
6.1274e-05
6.14433e-05
6.04533e-05
5.95913e-05
5.93423e-05
5.6654e-05
5.59917e-05
6.19556e-05
6.26182e-05
5.77405e-05
6.32958e-05
6.28626e-05
5.90195e-05
6.37179e-05
6.23436e-05
5.92297e-05
6.32697e-05
6.14381e-05
5.87022e-05
6.22811e-05
5.99405e-05
5.78983e-05
6.04481e-05
5.69262e-05
5.48293e-05
4.90221e-05
4.90575e-05
5.3353e-05
4.96511e-05
4.92085e-05
5.35628e-05
4.99005e-05
4.9055e-05
5.36229e-05
4.97966e-05
4.85637e-05
5.31993e-05
4.9241e-05
4.71868e-05
5.16162e-05
4.74856e-05
4.40645e-05
4.97032e-05
5.00302e-05
5.00296e-05
4.68374e-05
5.06822e-05
5.01512e-05
4.75585e-05
5.09139e-05
4.99752e-05
4.76501e-05
5.08008e-05
4.94806e-05
4.72347e-05
5.02522e-05
4.82181e-05
4.66365e-05
4.85912e-05
4.50208e-05
4.44713e-05
3.73605e-05
3.70374e-05
4.03135e-05
3.75278e-05
3.70828e-05
4.03041e-05
3.76485e-05
3.7174e-05
4.05441e-05
3.77937e-05
3.71371e-05
4.0798e-05
3.76929e-05
3.63283e-05
4.00354e-05
3.65144e-05
3.35068e-05
3.77105e-05
3.92988e-05
3.8887e-05
3.69772e-05
3.94164e-05
3.87991e-05
3.73537e-05
3.94159e-05
3.87204e-05
3.73633e-05
3.94068e-05
3.85425e-05
3.70019e-05
3.91716e-05
3.76978e-05
3.65381e-05
3.7943e-05
3.48143e-05
3.50698e-05
2.76632e-05
2.72635e-05
2.96853e-05
2.76243e-05
2.71565e-05
2.93502e-05
2.75642e-05
2.71398e-05
2.93498e-05
2.7568e-05
2.71036e-05
2.96824e-05
2.74478e-05
2.64796e-05
2.93117e-05
2.65234e-05
2.40922e-05
2.71842e-05
3.03488e-05
2.98565e-05
2.87422e-05
3.02356e-05
2.96076e-05
2.89117e-05
3.00427e-05
2.93799e-05
2.88547e-05
2.98484e-05
2.91202e-05
2.84955e-05
2.9515e-05
2.83031e-05
2.7885e-05
2.84043e-05
2.57243e-05
2.65792e-05
2.01651e-05
1.98851e-05
2.1598e-05
2.00998e-05
1.97021e-05
2.11913e-05
1.99378e-05
1.94192e-05
2.08294e-05
1.96372e-05
1.90057e-05
2.06297e-05
1.91236e-05
1.81074e-05
2.00547e-05
1.80175e-05
1.59803e-05
1.81724e-05
2.33728e-05
2.30003e-05
2.24016e-05
2.3222e-05
2.27173e-05
2.23619e-05
2.29681e-05
2.23127e-05
2.21505e-05
2.2557e-05
2.17204e-05
2.16348e-05
2.18812e-05
2.05911e-05
2.08044e-05
2.0566e-05
1.82464e-05
1.9404e-05
1.51799e-05
1.49815e-05
1.60249e-05
1.50482e-05
1.46932e-05
1.57188e-05
1.47512e-05
1.42167e-05
1.52951e-05
1.42401e-05
1.34533e-05
1.47253e-05
1.33825e-05
1.21484e-05
1.36617e-05
1.19576e-05
1.01653e-05
1.18525e-05
1.85784e-05
1.83143e-05
1.80924e-05
1.83871e-05
1.79609e-05
1.78518e-05
1.80352e-05
1.74223e-05
1.74532e-05
1.74768e-05
1.66002e-05
1.67123e-05
1.65827e-05
1.52006e-05
1.57148e-05
1.5092e-05
1.30384e-05
1.4273e-05
1.28475e-05
1.2724e-05
1.32247e-05
1.27073e-05
1.23273e-05
1.2986e-05
1.22799e-05
1.17179e-05
1.2535e-05
1.16234e-05
1.084e-05
1.19393e-05
1.06716e-05
9.48171e-06
1.08073e-05
9.26501e-06
7.64263e-06
9.12487e-06
1.61114e-05
1.59644e-05
1.6026e-05
1.59547e-05
1.55885e-05
1.56593e-05
1.55591e-05
1.49505e-05
1.51941e-05
1.48915e-05
1.40467e-05
1.42473e-05
1.39411e-05
1.26552e-05
1.32227e-05
1.25313e-05
1.07495e-05
1.16833e-05
1.33335e-05
1.32802e-05
1.33357e-05
1.3292e-05
1.29956e-05
1.33284e-05
1.29734e-05
1.24762e-05
1.30141e-05
1.24153e-05
1.15922e-05
1.24662e-05
1.14585e-05
1.03916e-05
1.14649e-05
1.0239e-05
8.65485e-06
1.01032e-05
1.62345e-05
1.61056e-05
1.64563e-05
1.61162e-05
1.58198e-05
1.60335e-05
1.58054e-05
1.51988e-05
1.55266e-05
1.51598e-05
1.4469e-05
1.46249e-05
1.43821e-05