/*--------------------------------*- C++ -*----------------------------------*\
| =========                 |                                                 |
| \\      /  F ield         | OpenFOAM: The Open Source CFD Toolbox           |
|  \\    /   O peration     | Version:  v2012                                 |
|   \\  /    A nd           | Website:  www.openfoam.com                      |
|    \\/     M anipulation  |                                                 |
\*---------------------------------------------------------------------------*/
FoamFile
{
    version     2.0;
    format      ascii;
    class       volScalarField;
    location    "1";
    object      epsilonEq;
}
// * * * * * * * * * * * * * * * * * * * * * * * * * * * * * * * * * * * * * //

dimensions      [0 0 0 0 0 0 0];


internalField   nonuniform List<scalar> 
158760
(
0.000112902
9.3462e-05
9.3462e-05
9.3462e-05
0.000101002
9.31673e-05
0.000101002
0.000108855
0.000101625
0.000112406
9.94781e-05
9.94781e-05
0.00010267
0.00010045
0.00010045
0.00010795
0.000108508
0.000108508
7.15292e-05
6.04506e-05
7.95726e-05
6.04506e-05
6.42547e-05
6.85369e-05
6.35021e-05
6.78624e-05
7.19823e-05
7.03605e-05
6.50482e-05
6.79841e-05
6.73648e-05
6.68544e-05
6.66928e-05
6.7414e-05
8.81848e-05
8.57879e-05
7.06083e-05
5.82111e-05
5.82111e-05
5.82111e-05
6.2609e-05
5.82111e-05
6.14218e-05
6.52742e-05
6.14218e-05
6.4175e-05
6.29817e-05
6.69198e-05
6.29817e-05
6.52902e-05
6.61211e-05
6.52902e-05
8.35967e-05
6.3801e-05
4.71719e-05
4.36466e-05
5.58968e-05
4.36466e-05
4.5682e-05
4.79077e-05
4.4619e-05
4.67827e-05
4.84872e-05
4.7077e-05
4.92441e-05
4.70112e-05
4.87258e-05
5.27882e-05
5.03138e-05
4.98018e-05
7.20176e-05
6.99791e-05
4.77985e-05
4.39273e-05
4.39273e-05
4.39273e-05
4.6206e-05
4.39273e-05
4.49771e-05
4.74381e-05
4.49771e-05
4.77801e-05
4.6981e-05
4.6981e-05
4.92842e-05
4.95251e-05
4.95251e-05
4.95251e-05
7.13834e-05
4.95251e-05
3.45345e-05
3.34957e-05
3.73434e-05
3.43788e-05
3.54136e-05
3.42597e-05
3.52748e-05
3.61191e-05
3.51995e-05
3.62733e-05
3.60648e-05
3.66359e-05
3.75976e-05
3.91832e-05
3.85948e-05
4.05955e-05
5.13394e-05
5.22036e-05
3.5828e-05
3.45705e-05
3.45705e-05
3.55046e-05
3.52572e-05
3.52572e-05
3.63465e-05
3.59853e-05
3.59853e-05
3.73708e-05
3.68531e-05
3.68531e-05
3.85696e-05
3.95575e-05
3.95575e-05
4.13218e-05
5.02796e-05
5.02796e-05
2.64478e-05
2.62537e-05
2.74918e-05
2.69458e-05
2.6739e-05
2.69617e-05
2.75249e-05
2.72868e-05
2.75957e-05
2.82385e-05
2.81445e-05
2.85783e-05
2.93055e-05
3.05522e-05
2.94269e-05
3.16294e-05
3.92327e-05
3.00372e-05
2.81051e-05
2.77782e-05
2.77782e-05
2.84758e-05
2.81908e-05
2.81908e-05
2.89959e-05
2.86244e-05
2.86244e-05
2.96225e-05
2.92906e-05
2.92906e-05
3.05572e-05
3.1401e-05
3.1401e-05
3.27291e-05
3.95504e-05
3.95504e-05
2.07331e-05
2.07935e-05
2.11138e-05
2.12211e-05
2.09749e-05
2.12708e-05
2.14614e-05
2.11331e-05
2.15365e-05
2.17243e-05
2.14446e-05
2.18394e-05
2.21764e-05
2.26764e-05
2.19656e-05
2.33031e-05
2.80549e-05
2.1515e-05
2.27364e-05
2.27196e-05
2.27196e-05
2.31323e-05
2.28426e-05
2.28426e-05
2.33248e-05
2.28978e-05
2.28978e-05
2.35089e-05
2.30223e-05
2.30223e-05
2.38342e-05
2.39556e-05
2.39556e-05
2.4835e-05
2.87713e-05
2.87713e-05
1.69993e-05
1.70713e-05
1.7109e-05
1.72438e-05
1.69597e-05
1.72763e-05
1.71553e-05
1.66758e-05
1.71831e-05
1.69098e-05
1.62614e-05
1.69328e-05
1.65451e-05
1.5978e-05
1.62976e-05
1.61352e-05
1.75848e-05
1.46236e-05
1.92752e-05
1.93206e-05
1.93206e-05
1.94823e-05
1.91861e-05
1.91861e-05
1.9381e-05
1.88472e-05
1.88472e-05
1.91062e-05
1.83143e-05
1.83143e-05
1.86908e-05
1.78017e-05
1.78017e-05
1.82734e-05
1.87924e-05
1.87924e-05
1.53429e-05
1.53023e-05
1.53288e-05
1.53143e-05
1.50057e-05
1.53266e-05
1.50119e-05
1.44175e-05
1.50282e-05
1.44082e-05
1.34058e-05
1.44132e-05
1.33552e-05
1.16769e-05
1.32358e-05
1.14547e-05
8.95065e-06
1.08886e-05
1.77522e-05
1.77226e-05
1.77226e-05
1.77373e-05
1.74321e-05
1.74321e-05
1.74541e-05
1.68433e-05
1.68433e-05
1.68822e-05
1.58218e-05
1.58218e-05
1.59064e-05
1.40949e-05
1.40949e-05
1.43049e-05
1.1209e-05
1.1209e-05
1.59768e-05
1.57511e-05
1.59029e-05
1.57868e-05
1.54599e-05
1.57705e-05
1.54899e-05
1.49047e-05
1.55024e-05
1.49217e-05
1.39143e-05
1.49632e-05
1.38996e-05
1.21808e-05
1.40314e-05
1.21429e-05
9.49695e-06
1.29025e-05
1.82897e-05
1.81014e-05
1.81014e-05
1.81364e-05
1.78109e-05
1.78109e-05
1.78524e-05
1.72452e-05
1.72452e-05
1.73045e-05
1.62418e-05
1.62418e-05
1.63521e-05
1.45155e-05
1.45155e-05
1.48653e-05
1.16691e-05
1.16691e-05
1.87568e-05
1.83135e-05
1.86341e-05
1.85428e-05
1.81635e-05
1.84774e-05
1.84119e-05
1.78826e-05
1.83844e-05
1.81669e-05
1.74244e-05
1.82086e-05
1.77684e-05
1.70045e-05
1.80636e-05
1.75246e-05
1.84076e-05
1.89202e-05
2.0816e-05
2.04057e-05
2.04057e-05
2.06187e-05
2.02221e-05
2.02221e-05
2.04634e-05
1.98826e-05
1.98826e-05
2.01835e-05
1.9337e-05
1.9337e-05
1.97597e-05
1.87542e-05
1.87542e-05
1.95378e-05
1.96193e-05
1.96193e-05
2.32074e-05
2.25258e-05
2.30488e-05
2.3019e-05
2.2536e-05
2.29195e-05
2.30707e-05
2.25908e-05
2.30393e-05
2.32258e-05
2.28212e-05
2.33049e-05
2.36342e-05
2.39595e-05
2.40398e-05
2.50853e-05
2.91603e-05
2.6702e-05
2.4936e-05
2.4283e-05
2.4283e-05
2.47547e-05
2.42547e-05
2.42547e-05
2.47759e-05
2.42483e-05
2.42483e-05
2.48891e-05
2.43708e-05
2.43708e-05
2.52389e-05
2.52789e-05
2.52789e-05
2.66103e-05
2.99411e-05
2.99411e-05
2.89592e-05
2.80674e-05
2.88e-05
2.88498e-05
2.82254e-05
2.87022e-05
2.90792e-05
2.86338e-05
2.90142e-05
2.96359e-05
2.96251e-05
2.97764e-05
3.09048e-05
3.23076e-05
3.1445e-05
3.40248e-05
4.09831e-05
3.57845e-05
3.04345e-05
2.95567e-05
2.95567e-05
3.03249e-05
2.96703e-05
2.96703e-05
3.05177e-05
2.99953e-05
2.99953e-05
3.1011e-05
3.08579e-05
3.08579e-05
3.22005e-05
3.33019e-05
3.33019e-05
3.52252e-05
4.14964e-05
4.14964e-05
3.62577e-05
3.52425e-05
3.61564e-05
3.62986e-05
3.55737e-05
3.61899e-05
3.67464e-05
3.62553e-05
3.6637e-05
3.76435e-05
3.79034e-05
3.77248e-05
3.96713e-05
4.19978e-05
4.01994e-05
4.43229e-05
5.39405e-05
4.61256e-05
3.7524e-05
3.64836e-05
3.64836e-05
3.75486e-05
3.67816e-05
3.67816e-05
3.79724e-05
3.73812e-05
3.73812e-05
3.88095e-05
3.88805e-05
3.88805e-05
4.07428e-05
4.2721e-05
4.2721e-05
4.52925e-05
5.42079e-05
5.42079e-05
4.64157e-05
4.51968e-05
4.62122e-05
4.64808e-05
4.57158e-05
4.64017e-05
4.71537e-05
4.66415e-05
4.70857e-05
4.83747e-05
4.87783e-05
4.84252e-05
5.1063e-05
5.39525e-05
5.14044e-05
5.70116e-05
6.85394e-05
5.83008e-05
4.75025e-05
4.61447e-05
4.61447e-05
4.74845e-05
4.66185e-05
4.66185e-05
4.81282e-05
4.7472e-05
4.7472e-05
4.93089e-05
4.94688e-05
4.94688e-05
5.19287e-05
5.43795e-05
5.43795e-05
5.77962e-05
6.84902e-05
6.84902e-05
6.71718e-05
6.24603e-05
6.36741e-05
6.38835e-05
6.21471e-05
6.28427e-05
6.37869e-05
6.26152e-05
6.3069e-05
6.46875e-05
6.44617e-05
6.40085e-05
6.73045e-05
6.96134e-05
6.66366e-05
7.33165e-05
8.44898e-05
7.26403e-05
6.80837e-05
6.29264e-05
6.29264e-05
6.4504e-05
6.25235e-05
6.25235e-05
6.43439e-05
6.28897e-05
6.28897e-05
6.52006e-05
6.45726e-05
6.45726e-05
6.77712e-05
6.94537e-05
6.94537e-05
7.37642e-05
8.39636e-05
8.39636e-05
0.000110088
0.000114547
0.000110405
0.000115702
0.000114904
0.000116013
0.000116244
0.00011463
0.000116474
0.000116352
0.000115323
0.000116627
0.000117757
0.000120361
0.000118057
0.000123754
0.000144233
0.000123282
9.08174e-05
0.000107627
9.20199e-05
0.000108329
9.4197e-05
9.39677e-05
9.60007e-05
8.89236e-05
8.8214e-05
9.1924e-05
9.42985e-05
9.65158e-05
9.73178e-05
9.44467e-05
9.51482e-05
9.85981e-05
0.000106232
8.77732e-05
7.55043e-05
7.67424e-05
7.57018e-05
7.67978e-05
7.02689e-05
7.87339e-05
7.16197e-05
6.84648e-05
7.07023e-05
7.04275e-05
7.09682e-05
7.37796e-05
7.26376e-05
7.33702e-05
7.37876e-05
7.46012e-05
7.01945e-05
8.0552e-05
7.44114e-05
7.58384e-05
6.68187e-05
7.6578e-05
6.94549e-05
6.96416e-05
7.12147e-05
6.7426e-05
6.75921e-05
6.97975e-05
7.00434e-05
6.68784e-05
7.22722e-05
7.21538e-05
7.03563e-05
7.4045e-05
6.89274e-05
6.79359e-05
5.48572e-05
5.38015e-05
6.14179e-05
5.47248e-05
5.27957e-05
5.73744e-05
5.39371e-05
5.27336e-05
5.43808e-05
5.42658e-05
5.36513e-05
5.62595e-05
5.54893e-05
5.66449e-05
5.80579e-05
5.76613e-05
5.39866e-05
5.96956e-05
5.56143e-05
5.4203e-05
5.13996e-05
5.53181e-05
5.30386e-05
5.30256e-05
5.44275e-05
5.29274e-05
5.33286e-05
5.4784e-05
5.37797e-05
5.34365e-05
5.60582e-05
5.67367e-05
5.5813e-05
5.82789e-05
5.32357e-05
6.10019e-05
4.1151e-05
4.02721e-05
4.4501e-05
4.11677e-05
4.03615e-05
4.26187e-05
4.14227e-05
4.09408e-05
4.19469e-05
4.22178e-05
4.19016e-05
4.31362e-05
4.33444e-05
4.3613e-05
4.38698e-05
4.4578e-05
4.51918e-05
4.26635e-05
4.25923e-05
4.14491e-05
4.04554e-05
4.24449e-05
4.13796e-05
4.14263e-05
4.25731e-05
4.19023e-05
4.18979e-05
4.33526e-05
4.28006e-05
4.25364e-05
4.44727e-05
4.44542e-05
4.44239e-05
4.57422e-05
4.60655e-05
4.77491e-05
3.1596e-05
3.10788e-05
3.32397e-05
3.17832e-05
3.14143e-05
3.2472e-05
3.2205e-05
3.19202e-05
3.2658e-05
3.28848e-05
3.26551e-05
3.35659e-05
3.37577e-05
3.38041e-05
3.40477e-05
3.45069e-05
3.46007e-05
3.29663e-05
3.35182e-05
3.28231e-05
3.2497e-05
3.35616e-05
3.30257e-05
3.30419e-05
3.38669e-05
3.34029e-05
3.34027e-05
3.44487e-05
3.39709e-05
3.39501e-05
3.52061e-05
3.49207e-05
3.52779e-05
3.58532e-05
3.54789e-05
3.75198e-05
2.48679e-05
2.45796e-05
2.56305e-05
2.50308e-05
2.47469e-05
2.53444e-05
2.52366e-05
2.48918e-05
2.54856e-05
2.54824e-05
2.51273e-05
2.58407e-05
2.57892e-05
2.54631e-05
2.5786e-05
2.58255e-05
2.50744e-05
2.40949e-05
2.71898e-05
2.68018e-05
2.67222e-05
2.72528e-05
2.6881e-05
2.68997e-05
2.73837e-05
2.69077e-05
2.69512e-05
2.75386e-05
2.69572e-05
2.70483e-05
2.77162e-05
2.70454e-05
2.75199e-05
2.76359e-05
2.63669e-05
2.84399e-05
2.05009e-05
2.03498e-05
2.08352e-05
2.05377e-05
2.0251e-05
2.06981e-05
2.04413e-05
1.99503e-05
2.05615e-05
2.01656e-05
1.94818e-05
2.03045e-05
1.96906e-05
1.87063e-05
1.95559e-05
1.86991e-05
1.67655e-05
1.72721e-05
2.30734e-05
2.28793e-05
2.28906e-05
2.30638e-05
2.27481e-05
2.27612e-05
2.29484e-05
2.23956e-05
2.24407e-05
2.26495e-05
2.18195e-05
2.19524e-05
2.21331e-05
2.08768e-05
2.13743e-05
2.1142e-05
1.87381e-05
2.07138e-05
1.849e-05
1.83888e-05
1.85774e-05
1.84004e-05
1.80886e-05
1.84678e-05
1.80826e-05
1.74878e-05
1.81557e-05
1.745e-05
1.64841e-05
1.75316e-05
1.63743e-05
1.47655e-05
1.63374e-05
1.449e-05
1.1432e-05
1.39286e-05
2.11408e-05
2.1031e-05
2.10719e-05
2.10489e-05
2.07415e-05
2.07487e-05
2.07568e-05
2.01546e-05
2.01756e-05
2.01727e-05
1.91559e-05
1.92505e-05
1.91828e-05
1.74495e-05
1.78147e-05
1.7516e-05
1.42102e-05
1.57395e-05
1.90087e-05
1.88488e-05
1.89301e-05
1.88684e-05
1.85215e-05
1.88494e-05
1.85382e-05
1.7956e-05
1.85775e-05
1.79482e-05
1.69982e-05
1.80506e-05
1.69403e-05
1.53872e-05
1.715e-05
1.52459e-05
1.2831e-05
1.58216e-05
2.14926e-05
2.13657e-05
2.14183e-05
2.1387e-05
2.10701e-05
2.10861e-05
2.11008e-05
2.05238e-05
2.05444e-05
2.05612e-05
1.95679e-05
1.9623e-05
1.96296e-05
1.79557e-05
1.80843e-05
1.81195e-05
1.53465e-05
1.58244e-05
2.18922e-05
2.16244e-05
2.17077e-05
2.18279e-05
2.14577e-05
2.17237e-05
2.17053e-05
2.12035e-05
2.16655e-05
2.14897e-05
2.07366e-05
2.15354e-05
2.10557e-05
2.00636e-05
2.13934e-05
2.03294e-05
1.9468e-05
2.15549e-05
2.41577e-05
2.39151e-05
2.39993e-05
2.41034e-05
2.37229e-05
2.37735e-05
2.39627e-05
2.33942e-05
2.34248e-05
2.36966e-05
2.28208e-05
2.28232e-05
2.32127e-05
2.2022e-05
2.19087e-05
2.25025e-05
2.11818e-05
2.08083e-05
2.68576e-05
2.64026e-05
2.6569e-05
2.68706e-05
2.63746e-05
2.66563e-05
2.69191e-05
2.64367e-05
2.68514e-05
2.70909e-05
2.65864e-05
2.72201e-05
2.74056e-05
2.70824e-05
2.79117e-05
2.78494e-05
2.83312e-05
2.93644e-05
2.87468e-05
2.82912e-05
2.83783e-05
2.87364e-05
2.8216e-05
2.83067e-05
2.87445e-05
2.82399e-05
2.82762e-05
2.88955e-05
2.83405e-05
2.82404e-05
2.9196e-05
2.86941e-05
2.83419e-05
2.96048e-05
2.96461e-05
2.878e-05
3.34663e-05
3.2821e-05
3.31978e-05
3.35805e-05
3.28851e-05
3.32635e-05
3.37756e-05
3.32467e-05
3.3556e-05
3.43251e-05
3.41612e-05
3.44908e-05
3.54498e-05
3.58882e-05
3.61882e-05
3.71194e-05
3.8868e-05
3.90186e-05
3.50386e-05
3.44302e-05
3.44531e-05
3.51669e-05
3.44568e-05
3.45187e-05
3.5328e-05
3.47506e-05
3.48222e-05
3.58232e-05
3.55922e-05
3.55068e-05
3.69088e-05
3.72042e-05
3.67811e-05
3.85512e-05
3.99643e-05
3.88497e-05
4.21921e-05
4.12783e-05
4.18253e-05
4.22701e-05
4.15567e-05
4.21301e-05
4.27867e-05
4.2189e-05
4.25265e-05
4.36713e-05
4.36783e-05
4.36564e-05
4.54512e-05
4.63006e-05
4.58859e-05
4.79765e-05
5.07751e-05
4.9864e-05
4.35267e-05
4.26887e-05
4.27768e-05
4.36618e-05
4.30041e-05
4.30342e-05
4.42137e-05
4.35861e-05
4.36169e-05
4.50557e-05
4.4969e-05
4.48986e-05
4.67559e-05
4.74629e-05
4.71816e-05
4.9215e-05
5.17733e-05
5.1051e-05
5.50161e-05
5.31875e-05
5.38379e-05
5.43193e-05
5.35396e-05
5.40434e-05
5.50261e-05
5.4432e-05
5.48531e-05
5.62518e-05
5.62134e-05
5.60712e-05
5.8418e-05
5.95194e-05
5.86221e-05
6.16787e-05
6.47369e-05
6.24212e-05
5.61027e-05
5.46323e-05
5.80233e-05
5.57238e-05
5.50771e-05
5.60892e-05
5.65203e-05
5.5994e-05
5.66848e-05
5.77745e-05
5.77431e-05
5.84076e-05
5.99217e-05
6.09527e-05
6.16924e-05
6.31326e-05
6.58513e-05
6.69403e-05
7.6954e-05
7.53896e-05
7.33281e-05
7.63194e-05
7.54019e-05
7.49007e-05
7.70356e-05
7.59455e-05
7.5621e-05
7.7961e-05
7.74866e-05
7.6623e-05
8.00011e-05
8.05929e-05
7.84915e-05
8.30424e-05
8.46854e-05
8.06141e-05
7.99175e-05
7.86153e-05
7.80399e-05
7.96916e-05
7.91447e-05
7.8833e-05
8.02189e-05
7.94812e-05
7.9296e-05
8.08332e-05
8.08689e-05
8.06421e-05
8.25629e-05
8.3767e-05
8.34396e-05
8.53212e-05
8.7701e-05
8.70987e-05
0.000102124
0.00010026
0.000101872
0.000100061
0.000100225
9.9391e-05
0.000100071
0.000100568
9.92648e-05
0.00010055
0.000101977
9.98879e-05
0.000102116
0.000104917
0.000101807
0.00010479
0.000106003
0.000105902
8.8804e-05
8.92379e-05
8.97941e-05
8.92948e-05
9.02134e-05
9.04766e-05
8.89537e-05
8.69687e-05
9.0279e-05
8.72643e-05
8.98538e-05
8.85078e-05
8.99675e-05
9.25529e-05
9.09069e-05
9.23116e-05
0.000100347
9.33551e-05
7.6403e-05
7.72581e-05
7.64022e-05
7.6953e-05
7.58585e-05
7.4806e-05
7.51909e-05
7.36282e-05
7.25001e-05
7.33661e-05
7.40896e-05
7.30022e-05
7.36992e-05
7.51328e-05
7.43006e-05
7.41896e-05
7.2257e-05
7.11314e-05
7.53348e-05
7.59319e-05
6.93118e-05
7.67049e-05
7.42926e-05
7.16964e-05
7.54139e-05
7.18204e-05
7.14002e-05
7.3642e-05
7.22263e-05
7.02309e-05
7.42112e-05
7.34028e-05
7.08165e-05
7.47195e-05
7.09274e-05
6.86885e-05
5.89868e-05
5.84601e-05
6.45398e-05
5.92984e-05
5.78768e-05
6.28333e-05
5.88822e-05
5.72444e-05
6.11264e-05
5.85607e-05
5.75263e-05
6.08048e-05
5.89179e-05
5.77314e-05
6.10147e-05
5.8515e-05
5.48275e-05
6.07814e-05
5.98581e-05
5.91292e-05
5.58211e-05
6.01109e-05
5.84353e-05
5.70877e-05
5.9614e-05
5.77134e-05
5.72608e-05
5.92617e-05
5.79634e-05
5.70946e-05
5.96319e-05
5.81627e-05
5.77036e-05
5.92046e-05
5.48596e-05
5.67799e-05
4.56617e-05
4.49983e-05
4.90863e-05
4.57853e-05
4.49864e-05
4.80375e-05
4.59033e-05
4.51937e-05
4.75515e-05
4.63041e-05
4.56902e-05
4.78617e-05
4.68435e-05
4.58921e-05
4.78677e-05
4.6522e-05
4.37691e-05
4.62678e-05
4.7289e-05
4.64024e-05
4.48505e-05
4.72796e-05
4.62252e-05
4.56524e-05
4.72566e-05
4.63002e-05
4.59576e-05
4.75628e-05
4.67361e-05
4.6169e-05
4.80723e-05
4.6932e-05
4.67851e-05
4.77617e-05
4.47338e-05
4.64556e-05
3.55839e-05
3.50286e-05
3.75285e-05
3.56441e-05
3.51707e-05
3.68841e-05
3.58743e-05
3.55005e-05
3.69116e-05
3.6325e-05
3.59387e-05
3.74886e-05
3.67822e-05
3.60126e-05
3.75398e-05
3.64192e-05
3.40471e-05
3.56819e-05
3.77938e-05
3.7065e-05
3.64081e-05
3.77186e-05
3.70372e-05
3.68417e-05
3.77959e-05
3.71907e-05
3.70748e-05
3.80971e-05
3.74627e-05
3.72696e-05
3.84202e-05
3.73848e-05
3.76226e-05
3.79489e-05
3.52261e-05
3.73457e-05
2.82723e-05
2.78811e-05
2.93316e-05
2.82732e-05
2.78855e-05
2.8888e-05
2.83218e-05
2.79077e-05
2.88185e-05
2.83943e-05
2.79046e-05
2.90109e-05
2.83687e-05
2.75142e-05
2.87324e-05
2.76635e-05
2.53296e-05
2.65471e-05
3.09168e-05
3.04214e-05
3.01661e-05
3.0821e-05
3.03226e-05
3.02658e-05
3.07793e-05
3.02116e-05
3.02354e-05
3.07423e-05
3.00235e-05
3.00989e-05
3.05738e-05
2.94071e-05
2.99139e-05
2.97205e-05
2.69929e-05
2.92229e-05
2.34646e-05
2.32362e-05
2.40244e-05
2.33938e-05
2.3046e-05
2.3738e-05
2.32069e-05
2.26721e-05
2.34579e-05
2.28237e-05
2.20614e-05
2.30926e-05
2.21494e-05
2.09239e-05
2.22134e-05
2.08052e-05
1.8274e-05
1.98235e-05
2.63374e-05
2.60539e-05
2.59916e-05
2.62144e-05
2.58226e-05
2.58225e-05
2.59996e-05
2.53991e-05
2.54647e-05
2.5593e-05
2.46962e-05
2.48815e-05
2.48786e-05
2.34186e-05
2.40443e-05
2.34983e-05
2.0609e-05
2.28104e-05
2.12084e-05
2.10744e-05
2.14148e-05
2.1077e-05
2.07373e-05
2.12328e-05
2.07163e-05
2.01058e-05
2.08578e-05
2.0039e-05
1.90922e-05
2.01991e-05
1.89374e-05
1.74245e-05
1.89961e-05
1.71389e-05
1.45175e-05
1.66948e-05
2.40989e-05
2.39433e-05
2.39933e-05
2.39544e-05
2.3609e-05
2.36479e-05
2.36118e-05
2.29944e-05
2.30584e-05
2.2982e-05
2.19961e-05
2.21649e-05
2.1957e-05
2.03299e-05
2.08667e-05
2.02808e-05
1.73685e-05
1.92148e-05
2.16795e-05
2.15353e-05
2.16146e-05
2.15494e-05
2.11892e-05
2.15367e-05
2.11904e-05
2.05906e-05
2.12377e-05
2.05581e-05
1.96733e-05
2.06939e-05
1.95865e-05
1.82382e-05
1.98085e-05
1.80489e-05
1.59044e-05
1.83229e-05
2.43062e-05
2.4185e-05
2.42914e-05
2.42012e-05
2.38871e-05
2.39476e-05
2.39025e-05
2.33444e-05
2.34174e-05
2.33525e-05
2.2452e-05
2.26196e-05
2.24584e-05
2.09849e-05
2.13483e-05
2.10014e-05
1.84805e-05
1.95861e-05
2.46701e-05
2.4459e-05
2.44352e-05
2.46402e-05
2.43185e-05
2.45257e-05
2.45395e-05
2.40925e-05
2.4507e-05
2.43298e-05
2.36312e-05
2.43349e-05
2.38914e-05
2.2836e-05
2.40835e-05
2.28918e-05
2.11869e-05
2.35247e-05
2.70611e-05
2.69186e-05
2.70958e-05
2.70843e-05
2.68053e-05
2.69534e-05
2.70157e-05
2.65084e-05
2.66237e-05
2.67566e-05
2.58539e-05
2.59873e-05
2.61659e-05
2.48415e-05
2.49794e-05
2.50508e-05
2.29665e-05
2.33668e-05
3.00543e-05
2.97519e-05
2.96526e-05
3.01997e-05
2.97693e-05
2.98159e-05
3.02617e-05
2.98097e-05
3.01133e-05
3.03675e-05
2.9758e-05
3.04964e-05
3.04077e-05
2.96892e-05
3.09069e-05
3.0197e-05
2.87633e-05
3.10949e-05
3.21124e-05
3.17859e-05
3.19763e-05
3.2206e-05
3.16645e-05
3.19318e-05
3.21384e-05
3.16405e-05
3.18627e-05
3.21972e-05
3.16152e-05
3.16295e-05
3.22826e-05
3.15091e-05
3.1279e-05
3.20945e-05
3.03347e-05
2.99546e-05
3.73523e-05
3.69061e-05
3.70084e-05
3.76009e-05
3.69905e-05
3.72468e-05
3.78233e-05
3.705e-05
3.72379e-05
3.80465e-05
3.78077e-05
3.82033e-05
3.89123e-05
3.84948e-05
3.935e-05
3.9465e-05
3.9133e-05
4.16974e-05
3.89476e-05
3.86086e-05
3.88719e-05
3.927e-05
3.8633e-05
3.87682e-05
3.94326e-05
3.85742e-05
3.88453e-05
3.95435e-05
3.93436e-05
3.9457e-05
4.04428e-05
3.99183e-05
3.98148e-05
4.09399e-05
4.05628e-05
3.97054e-05
4.72935e-05
4.61558e-05
4.61494e-05
4.70591e-05
4.64949e-05
4.69664e-05
4.76121e-05
4.71284e-05
4.76391e-05
4.84781e-05
4.81179e-05
4.79591e-05
4.9592e-05
4.92492e-05
4.96972e-05
5.04928e-05
5.0276e-05
5.15678e-05
4.87632e-05
4.76597e-05
4.87182e-05
4.85192e-05
4.80473e-05
4.82872e-05
4.91162e-05
4.87062e-05
4.88771e-05
5.00072e-05
4.95258e-05
4.97645e-05
5.097e-05
5.05772e-05
5.06029e-05
5.1827e-05
5.16196e-05
5.15345e-05
6.13676e-05
5.96608e-05
5.96324e-05
6.07057e-05
5.9865e-05
6.0016e-05
6.11419e-05
6.04306e-05
6.0553e-05
6.20239e-05
6.1509e-05
6.15703e-05
6.32995e-05
6.29762e-05
6.31496e-05
6.42239e-05
6.39089e-05
6.41541e-05
6.2687e-05
6.12834e-05
6.48482e-05
6.22289e-05
6.16204e-05
6.29873e-05
6.27837e-05
6.23755e-05
6.37586e-05
6.3828e-05
6.34844e-05
6.48238e-05
6.51297e-05
6.49888e-05
6.65991e-05
6.61444e-05
6.59183e-05
6.86015e-05
7.89431e-05
7.79197e-05
7.56641e-05
7.86016e-05
7.80042e-05
7.71697e-05
7.95361e-05
7.83535e-05
7.72337e-05
8.0083e-05
7.93644e-05
7.82068e-05
8.12995e-05
8.0719e-05
7.90591e-05
8.21957e-05
7.97413e-05
7.72364e-05
8.25709e-05
8.13782e-05
8.12326e-05
8.20478e-05
8.21618e-05
8.18639e-05
8.30391e-05
8.20599e-05
8.18693e-05
8.30351e-05
8.27948e-05
8.25541e-05
8.37992e-05
8.36607e-05
8.34251e-05
8.40616e-05
8.18908e-05
8.14233e-05
9.50648e-05
9.40536e-05
9.44345e-05
9.35704e-05
9.40534e-05
9.33444e-05
9.39001e-05
9.46232e-05
9.32542e-05
9.44683e-05
9.57502e-05
9.41091e-05
9.55921e-05
9.6542e-05
9.56254e-05
9.59806e-05
9.1883e-05
9.7012e-05
8.69913e-05
8.72879e-05
8.79464e-05
8.69634e-05
8.72255e-05
8.80724e-05
8.65521e-05
8.56611e-05
8.77053e-05
8.53793e-05
8.65316e-05
8.65283e-05
8.62582e-05
8.76365e-05
8.71845e-05
8.69373e-05
8.67348e-05
8.75988e-05
7.62903e-05
7.73326e-05
7.64606e-05
7.68574e-05
7.667e-05
7.56227e-05
7.60817e-05
7.53584e-05
7.42872e-05
7.48453e-05
7.4643e-05
7.35682e-05
7.39797e-05
7.38062e-05
7.29115e-05
7.27771e-05
7.04383e-05
6.96525e-05
7.52755e-05
7.58087e-05
7.0255e-05
7.65843e-05
7.52751e-05
7.17911e-05
7.63074e-05
7.40727e-05
7.18861e-05
7.53394e-05
7.34196e-05
7.12053e-05
7.47735e-05
7.2855e-05
7.07833e-05
7.37321e-05
7.01359e-05
6.78382e-05
6.09137e-05
6.0721e-05
6.5816e-05
6.14498e-05
6.05148e-05
6.53506e-05
6.13755e-05
6.01109e-05
6.45559e-05
6.11168e-05
5.97534e-05
6.38993e-05
6.07627e-05
5.88382e-05
6.28385e-05
5.93608e-05
5.55712e-05
6.14595e-05
6.18574e-05
6.15756e-05
5.82123e-05
6.23989e-05
6.13065e-05
5.91539e-05
6.22814e-05
6.08565e-05
5.93008e-05
6.20041e-05
6.04837e-05
5.89936e-05
6.16571e-05
5.96321e-05
5.86718e-05
6.02913e-05
5.62024e-05
5.64962e-05
4.83541e-05
4.78999e-05
5.16181e-05
4.85436e-05
4.79158e-05
5.12357e-05
4.86631e-05
4.80327e-05
5.10872e-05
4.88939e-05
4.81398e-05
5.12193e-05
4.89725e-05
4.75592e-05
5.06265e-05
4.79269e-05
4.46779e-05
4.85505e-05
5.01534e-05
4.95427e-05
4.77117e-05
5.02502e-05
4.93987e-05
4.82939e-05
5.0228e-05
4.93581e-05
4.8456e-05
5.03262e-05
4.93663e-05
4.8339e-05
5.03201e-05
4.87753e-05
4.81791e-05
4.92541e-05
4.58095e-05
4.6766e-05
3.83338e-05
3.78406e-05
4.0368e-05
3.83313e-05
3.78471e-05
3.99196e-05
3.84103e-05
3.79968e-05
3.99135e-05
3.86235e-05
3.8149e-05
4.03116e-05
3.87206e-05
3.76868e-05
4.00509e-05
3.78742e-05
3.5102e-05
3.78504e-05
4.08052e-05
4.01747e-05
3.92542e-05
4.06947e-05
4.00068e-05
3.95464e-05
4.06134e-05
3.99491e-05
3.96235e-05
4.06387e-05
3.99068e-05
3.94941e-05
4.05593e-05
3.9285e-05
3.91959e-05
3.95697e-05
3.65162e-05
3.80661e-05
3.08182e-05
3.04479e-05
3.20892e-05
3.07531e-05
3.03226e-05
3.16247e-05
3.06633e-05
3.01744e-05
3.1382e-05
3.05236e-05
2.99376e-05
3.13694e-05
3.02071e-05
2.91702e-05
3.09066e-05
2.91681e-05
2.67423e-05
2.87251e-05
3.376e-05
3.32927e-05
3.28486e-05
3.36065e-05
3.30644e-05
3.28679e-05
3.34244e-05
3.27808e-05
3.27268e-05
3.3167e-05
3.23561e-05
3.23617e-05
3.26901e-05
3.13619e-05
3.17265e-05
3.14668e-05
2.87118e-05
3.04819e-05
2.58122e-05
2.55785e-05
2.65472e-05
2.56911e-05
2.53228e-05
2.62205e-05
2.5434e-05
2.48616e-05
2.58244e-05
2.49428e-05
2.41402e-05
2.53289e-05
2.41293e-05
2.28434e-05
2.43412e-05
2.26666e-05
2.04278e-05
2.21702e-05
2.89648e-05
2.86696e-05
2.85166e-05
2.8788e-05
2.8362e-05
2.8314e-05
2.84909e-05
2.78523e-05
2.79066e-05
2.79717e-05
2.70512e-05
2.72309e-05
2.71149e-05
2.56314e-05
2.62136e-05
2.5587e-05
2.30319e-05
2.48527e-05
2.34576e-05
2.33075e-05
2.37558e-05
2.32997e-05
2.29525e-05
2.3545e-05
2.2916e-05
2.22917e-05
2.31114e-05
2.22048e-05
2.13223e-05
2.24464e-05
2.11488e-05
1.97378e-05
2.12358e-05
1.94761e-05
1.74792e-05
1.92472e-05
2.65609e-05
2.63881e-05
2.64425e-05
2.63886e-05
2.60247e-05
2.60975e-05
2.60107e-05
2.53683e-05
2.54911e-05
2.5328e-05
2.43967e-05
2.46083e-05
2.43125e-05
2.28225e-05
2.33709e-05
2.27118e-05
2.04212e-05
2.20114e-05
2.39464e-05
2.38117e-05
2.38905e-05
2.3826e-05
2.34868e-05
2.38354e-05
2.34745e-05
2.28129e-05
2.34597e-05
2.27645e-05
2.19505e-05
2.2913e-05
2.18315e-05
2.06255e-05
2.19709e-05
2.0437e-05
1.88511e-05
2.06621e-05
2.66967e-05
2.65574e-05
2.67481e-05
2.65722e-05
2.62476e-05
2.63674e-05
2.62486e-05
2.56637e-05
2.57905e-05
2.56472e-05
2.48467e-05
2.50943e-05
2.47984e-05
2.35676e-05
2.40714e-05
2.35003e-05
2.15226e-05
2.27502e-05
2.70967e-05
2.68482e-05
2.6759e-05
2.70296e-05
2.66735e-05
2.68782e-05
2.6831e-05
2.6416e-05
2.68067e-05
2.65936e-05
2.60106e-05
2.66094e-05
2.60897e-05
2.53113e-05
2.61682e-05
2.52784e-05
2.34607e-05
2.53179e-05
2.94736e-05
2.93496e-05
2.96429e-05
2.95136e-05
2.93334e-05
2.95918e-05
2.9483e-05
2.92099e-05
2.94113e-05
2.93902e-05
2.84331e-05
2.87295e-05
2.85553e-05
2.73285e-05
2.77464e-05
2.73819e-05
2.48446e-05
2.59542e-05
3.2627e-05
3.25255e-05
3.22389e-05
3.29333e-05
3.25556e-05
3.23455e-05
3.29434e-05
3.25697e-05
3.24537e-05
3.22237e-05
3.26986e-05
3.25407e-05
3.1849e-05
3.23607e-05
3.25181e-05
3.12921e-05
2.92479e-05
3.14523e-05
3.48171e-05
3.47803e-05
3.50823e-05
3.51559e-05
3.45028e-05
3.48654e-05
3.48712e-05
3.42197e-05
3.48123e-05
3.51608e-05
3.4557e-05
3.4151e-05
3.5512e-05
3.42727e-05
3.42864e-05
3.57625e-05
3.11392e-05
3.33726e-05
4.05218e-05
4.01363e-05
3.97613e-05
4.00023e-05
4.0816e-05
4.01712e-05
4.01026e-05
4.16521e-05
4.05356e-05
4.13622e-05
4.04656e-05
4.12967e-05
4.14405e-05
4.01359e-05
4.13313e-05
4.14972e-05
3.54315e-05
3.64188e-05
4.20204e-05
4.17691e-05
4.27442e-05
4.24817e-05
4.24555e-05
4.17515e-05
4.28089e-05
4.34034e-05
4.19941e-05
4.40149e-05
4.3079e-05
4.31997e-05
4.40919e-05
4.27086e-05
4.28769e-05
4.43464e-05
3.7541e-05
4.25874e-05
5.09488e-05
5.08596e-05
5.0009e-05
5.09139e-05
5.02421e-05
5.09777e-05
5.06046e-05
5.07416e-05
5.15145e-05
5.13557e-05
5.09537e-05
5.2064e-05
5.19521e-05
5.06452e-05
5.18829e-05
5.21541e-05
4.48005e-05
4.61441e-05
5.24567e-05
5.26235e-05
5.42478e-05
5.33509e-05
5.27216e-05
5.27215e-05
5.28942e-05
5.29744e-05
5.21356e-05
5.35728e-05
5.33385e-05
5.26865e-05
5.43986e-05
5.31123e-05
5.32275e-05
5.44894e-05
4.74659e-05
5.34324e-05
6.45065e-05
6.43691e-05
6.24275e-05
6.44042e-05
6.2972e-05
6.36941e-05
6.39743e-05
6.34282e-05
6.33129e-05
6.47351e-05
6.37922e-05
6.3906e-05
6.52705e-05
6.3443e-05
6.39804e-05
6.46015e-05
5.861e-05
6.06315e-05
6.6023e-05
6.61924e-05
6.93987e-05
6.66818e-05
6.52516e-05
6.60482e-05
6.53807e-05
6.51973e-05
6.74511e-05
6.64034e-05
6.59211e-05
6.78103e-05
6.70433e-05
6.60746e-05
6.83888e-05
6.65323e-05
6.27386e-05
6.76311e-05
7.8769e-05
7.87991e-05
7.5289e-05
7.9416e-05
7.73639e-05
7.72746e-05
7.83053e-05
7.81569e-05
7.59769e-05
7.94681e-05
7.85826e-05
7.70943e-05
7.99193e-05
7.85618e-05
7.71539e-05
7.93549e-05
7.59137e-05
7.48798e-05
8.21957e-05
8.19436e-05
8.19603e-05
8.23448e-05
8.06411e-05
8.00893e-05
8.11615e-05
8.13864e-05
8.11399e-05
8.19426e-05
8.16332e-05
8.1234e-05
8.19763e-05
8.11454e-05
8.07406e-05
8.07813e-05
7.7382e-05
7.70844e-05
9.10211e-05
9.06597e-05
9.0654e-05
9.01811e-05
9.05338e-05
8.97369e-05
9.01139e-05
9.09334e-05
8.99869e-05
9.06172e-05
9.1368e-05
9.06466e-05
9.09439e-05
9.06258e-05
9.13519e-05
8.98384e-05
8.54653e-05
9.05989e-05
8.53004e-05
8.57091e-05
8.62634e-05
8.52091e-05
8.56027e-05
8.63084e-05
8.50087e-05
8.46153e-05
8.61114e-05
8.4093e-05
8.43719e-05
8.5146e-05
8.37651e-05
8.37104e-05
8.46229e-05
8.27826e-05
8.0628e-05
8.33351e-05
7.52192e-05
7.65587e-05
7.56313e-05
7.59568e-05
7.65991e-05
7.55235e-05
7.59679e-05
7.58581e-05
7.47864e-05
7.5187e-05
7.46815e-05
7.36549e-05
7.38243e-05
7.28342e-05
7.19722e-05
7.17233e-05
6.9035e-05
6.83726e-05
7.43366e-05
7.49992e-05
7.01215e-05
7.56768e-05
7.52435e-05
7.14005e-05
7.60989e-05
7.47245e-05
7.16106e-05
7.56506e-05
7.3819e-05
7.10832e-05
7.4662e-05
7.23215e-05
7.02793e-05
7.28291e-05
6.93072e-05
6.72102e-05
6.1403e-05
6.14385e-05
6.57339e-05
6.20321e-05
6.15894e-05
6.59437e-05
6.22814e-05
6.14359e-05
6.60039e-05
6.21776e-05
6.09446e-05
6.55803e-05
6.16219e-05
5.95677e-05
6.39971e-05
5.98665e-05
5.64455e-05
6.20841e-05
6.24112e-05
6.24105e-05
5.92184e-05
6.30631e-05
6.25322e-05
5.99394e-05
6.32948e-05
6.23561e-05
6.0031e-05
6.31817e-05
6.18615e-05
5.96157e-05
6.26331e-05
6.05991e-05
5.90175e-05
6.09721e-05
5.74018e-05
5.68522e-05
4.97415e-05
4.94183e-05
5.26945e-05
4.99087e-05
4.94637e-05
5.26851e-05
5.00295e-05
4.9555e-05
5.2925e-05
5.01746e-05
4.95181e-05
5.31789e-05
5.00739e-05
4.87092e-05
5.24163e-05
4.88954e-05
4.58878e-05
5.00915e-05
5.16797e-05
5.12679e-05
4.93582e-05
5.17974e-05
5.11801e-05
4.97346e-05
5.17968e-05
5.11014e-05
4.97442e-05
5.17878e-05
5.09235e-05
4.93829e-05
5.15525e-05
5.00787e-05
4.89191e-05
5.03239e-05
4.71952e-05
4.74508e-05
4.00442e-05
3.96444e-05
4.20662e-05
4.00052e-05
3.95374e-05
4.17312e-05
3.99451e-05
3.95207e-05
4.17308e-05
3.9949e-05
3.94845e-05
4.20634e-05
3.98287e-05
3.88605e-05
4.16927e-05
3.89044e-05
3.64731e-05
3.95651e-05
4.27297e-05
4.22374e-05
4.11231e-05
4.26166e-05
4.19885e-05
4.12927e-05
4.24236e-05
4.17609e-05
4.12357e-05
4.22294e-05
4.15012e-05
4.08765e-05
4.1896e-05
4.06841e-05
4.0266e-05
4.07852e-05
3.81053e-05
3.89602e-05
3.2546e-05
3.22661e-05
3.39789e-05
3.24808e-05
3.2083e-05
3.35722e-05
3.23188e-05
3.18002e-05
3.32104e-05
3.20181e-05
3.13866e-05
3.30106e-05
3.15046e-05
3.04884e-05
3.24356e-05
3.03985e-05
2.83613e-05
3.05534e-05
3.57538e-05
3.53813e-05
3.47825e-05
3.5603e-05
3.50982e-05
3.47429e-05
3.5349e-05
3.46936e-05
3.45315e-05
3.4938e-05
3.41014e-05
3.40157e-05
3.42622e-05
3.29721e-05
3.31854e-05
3.2947e-05
3.06274e-05
3.1785e-05
2.75609e-05
2.73625e-05
2.84058e-05
2.74291e-05
2.70742e-05
2.80998e-05
2.71322e-05
2.65976e-05
2.76761e-05
2.66211e-05
2.58342e-05
2.71063e-05
2.57635e-05
2.45293e-05
2.60426e-05
2.43385e-05
2.25463e-05
2.42335e-05
3.09594e-05
3.06952e-05
3.04733e-05
3.07681e-05
3.03419e-05
3.02328e-05
3.04161e-05
2.98033e-05
2.98341e-05
2.98577e-05
2.89812e-05
2.90933e-05
2.89636e-05
2.75816e-05
2.80957e-05
2.74729e-05
2.54193e-05
2.66539e-05
2.52284e-05
2.51049e-05
2.56056e-05
2.50883e-05
2.47082e-05
2.5367e-05
2.46608e-05
2.40989e-05
2.4916e-05
2.40043e-05
2.3221e-05
2.43203e-05
2.30526e-05
2.18627e-05
2.31882e-05
2.1646e-05
2.00236e-05
2.15058e-05
2.84923e-05
2.83454e-05
2.8407e-05
2.83357e-05
2.79694e-05
2.80403e-05
2.794e-05
2.73314e-05
2.7575e-05
2.72725e-05
2.64277e-05
2.66282e-05
2.6322e-05
2.50361e-05
2.56037e-05
2.49123e-05
2.31305e-05
2.40643e-05
2.57144e-05
2.56611e-05
2.57167e-05
2.5673e-05
2.53766e-05
2.57093e-05
2.53543e-05
2.48572e-05
2.53951e-05
2.47963e-05
2.39732e-05
2.48472e-05
2.38395e-05
2.27725e-05
2.38459e-05
2.26199e-05
2.10358e-05
2.24842e-05
2.86154e-05
2.84865e-05