/*--------------------------------*- C++ -*----------------------------------*\
| =========                 |                                                 |
| \\      /  F ield         | OpenFOAM: The Open Source CFD Toolbox           |
|  \\    /   O peration     | Version:  v2012                                 |
|   \\  /    A nd           | Website:  www.openfoam.com                      |
|    \\/     M anipulation  |                                                 |
\*---------------------------------------------------------------------------*/
FoamFile
{
    version     2.0;
    format      ascii;
    class       pointSymmTensorField;
    location    "1";
    object      pEpsilon;
}
// * * * * * * * * * * * * * * * * * * * * * * * * * * * * * * * * * * * * * //

dimensions      [0 0 0 0 0 0 0];


internalField   nonuniform List<symmTensor> 
32200
(
(-4.2926e-06 -9.86891e-09 -3.55587e-09 1.42834e-05 -8.04765e-10 -4.26857e-06)
(-5.57778e-06 4.88119e-08 2.21857e-09 1.47018e-05 1.72886e-08 -3.92868e-06)
(-5.29331e-05 -3.34593e-06 -1.17991e-08 1.17233e-05 6.86142e-07 1.49762e-05)
(0.000123588 -4.91593e-05 1.49303e-07 -1.11166e-05 -1.60892e-06 -2.05537e-06)
(-0.000125937 -5.8879e-05 3.50627e-06 -7.14475e-07 7.79272e-07 3.01548e-06)
(4.32161e-06 -2.89229e-07 1.66928e-07 4.03107e-06 -7.65329e-07 -1.44991e-05)
(3.63897e-06 -3.987e-07 9.62412e-08 2.13115e-06 -4.05535e-07 -1.0568e-05)
(6.69373e-06 7.07287e-07 -1.89115e-08 1.01178e-06 -9.51937e-07 -1.27672e-05)
(1.26189e-07 -2.15666e-07 -5.49012e-07 2.17928e-06 -6.71924e-07 -9.44477e-06)
(5.18575e-05 7.87267e-06 -1.29076e-06 -1.28926e-05 -7.85297e-07 -1.67891e-05)
(3.71245e-05 2.44764e-05 -9.51753e-07 3.90857e-06 -1.16713e-06 -1.86339e-05)
(6.31966e-05 -5.08977e-05 -1.80539e-07 4.24412e-05 7.91046e-07 -2.86839e-05)
(9.00152e-05 -0.000137729 -5.58324e-07 8.93601e-05 8.78548e-07 -2.96466e-05)
(1.73919e-06 1.44938e-05 1.23371e-07 2.2812e-05 -1.23301e-07 -1.51597e-05)
(-1.13381e-05 1.61087e-06 4.12784e-08 3.9894e-05 -1.04936e-06 -1.46692e-05)
(-2.75035e-05 -3.84841e-06 1.32145e-07 7.8042e-06 4.69004e-08 7.94119e-06)
(2.81222e-05 -5.67691e-06 -8.28144e-08 -7.20079e-06 -1.0128e-06 -7.37387e-06)
(-3.58727e-06 1.12128e-07 2.21549e-08 1.21018e-05 -1.67563e-09 -3.74783e-06)
(-1.63638e-06 4.26916e-08 -2.84482e-09 1.3539e-05 -3.74125e-08 -5.14066e-06)
(-2.78361e-05 -1.77521e-05 7.72951e-07 0.000133454 1.52076e-07 -2.38715e-05)
(1.02333e-05 -4.07781e-05 1.52232e-06 6.10574e-05 -8.72034e-07 -2.34358e-05)
(1.91195e-05 -2.56271e-07 -2.00387e-08 -7.00292e-06 -2.82649e-07 -4.96724e-06)
(0.000172812 -2.20605e-05 -1.45845e-06 -4.23979e-05 4.14486e-07 -2.61137e-05)
(7.41341e-05 -3.75011e-05 -1.61643e-06 8.17871e-06 8.56965e-07 -2.45047e-05)
(-5.90715e-05 -6.99527e-07 1.4671e-07 1.95298e-05 2.16693e-07 1.61474e-05)
(-0.000116025 -4.53437e-05 5.16094e-05 0 0 0)
(-2.66723e-05 -3.79477e-06 -8.32547e-07 7.85697e-06 -1.03659e-07 7.88823e-06)
(2.95914e-05 -6.56907e-06 1.166e-06 -7.26766e-06 -1.91522e-07 -8.40888e-06)
(0.000157422 -4.83808e-05 -5.11682e-05 -1.38955e-05 -1.45786e-06 0)
(4.90256e-06 9.87184e-07 1.329e-06 -1.47283e-06 -5.32379e-07 -3.19808e-06)
(4.83474e-05 1.55206e-06 -4.44646e-06 -2.13173e-05 -3.82384e-06 -1.24428e-05)
(-5.68235e-05 -1.14667e-06 7.81522e-07 1.77205e-05 3.34292e-07 1.62269e-05)
(6.15992e-05 -4.2708e-05 -7.31181e-06 8.57663e-06 5.81508e-06 -2.89523e-05)
(5.50613e-05 -3.87944e-05 7.58164e-06 2.85362e-05 1.59568e-06 -3.48389e-05)
(-5.38321e-05 -3.12452e-06 -2.40888e-07 1.25612e-05 8.85214e-07 1.63991e-05)
(2.10959e-05 -1.63636e-07 -1.39584e-07 -8.55702e-06 6.36194e-08 -5.27626e-06)
(1.20973e-05 -4.55744e-05 4.73156e-06 4.7585e-05 -9.57618e-06 -2.58749e-05)
(-1.79604e-06 4.6786e-08 -1.73896e-08 1.36572e-05 -4.14237e-08 -5.0974e-06)
(-1.58524e-05 4.06201e-07 -3.66862e-06 4.06053e-05 -4.40686e-06 -1.08352e-05)
(-3.61581e-06 1.1976e-07 4.07558e-09 1.22103e-05 6.26731e-08 -3.72252e-06)
(-2.32038e-06 3.7108e-07 -5.90915e-07 1.81677e-06 4.39552e-07 -1.93608e-06)
(-5.51376e-06 4.52114e-08 1.16333e-08 1.46725e-05 -5.5895e-09 -3.93494e-06)
(-4.28298e-06 -7.3801e-09 -2.08267e-09 1.42914e-05 -2.89392e-10 -4.28837e-06)
(2.7676e-05 1.86249e-05 -1.15001e-05 -5.49125e-07 -1.09625e-05 -1.34278e-05)
(4.57968e-07 -3.3508e-07 5.21505e-07 5.63052e-07 -7.36805e-07 -2.8544e-06)
(0.00014433 -2.21317e-05 -1.8462e-05 -3.73053e-05 3.46008e-06 -3.70286e-05)
(7.20337e-05 -0.000111294 4.56683e-06 7.769e-05 -1.35465e-07 -4.35713e-05)
(-2.81071e-05 -1.34473e-05 8.80012e-07 0.00011728 -1.89792e-05 -2.9393e-05)
(-2.53499e-06 1.23714e-05 -9.96993e-06 1.97515e-05 -8.22063e-06 -9.30111e-06)
(6.1423e-07 -2.29432e-07 -7.05611e-08 -1.9443e-07 4.52391e-07 -1.34382e-06)
(-4.29784e-06 -4.75881e-09 -1.59494e-09 1.4287e-05 5.64428e-09 -4.25706e-06)
(-4.3323e-06 8.81384e-09 -2.23593e-09 1.42933e-05 9.22783e-09 -4.24103e-06)
(-4.40947e-06 2.6611e-08 4.11273e-09 1.43225e-05 3.80432e-09 -4.22079e-06)
(-4.50227e-06 3.12597e-08 -5.87599e-09 1.43443e-05 5.39765e-09 -4.19852e-06)
(-4.64354e-06 4.05584e-08 5.30752e-09 1.4384e-05 2.73327e-09 -4.16524e-06)
(-4.77646e-06 4.63716e-08 6.36342e-09 1.44259e-05 1.77707e-09 -4.13521e-06)
(-4.91599e-06 4.35525e-08 9.83377e-09 1.44637e-05 1.21521e-09 -4.10122e-06)
(-5.05017e-06 4.40217e-08 9.93548e-09 1.45079e-05 1.17965e-09 -4.06804e-06)
(-5.17748e-06 3.72231e-08 1.15448e-08 1.45419e-05 6.22564e-10 -4.0364e-06)
(-5.28532e-06 3.34337e-08 7.99051e-09 1.45749e-05 -4.20072e-10 -4.01071e-06)
(-5.37104e-06 2.85061e-08 5.47533e-09 1.45987e-05 -6.92828e-10 -3.98891e-06)
(-5.43602e-06 2.29014e-08 4.69287e-09 1.46185e-05 4.60645e-10 -3.96828e-06)
(-5.4945e-06 1.34756e-08 5.57301e-09 1.4637e-05 3.60958e-09 -3.9501e-06)
(-5.52931e-06 7.66713e-09 8.12871e-09 1.46444e-05 1.61086e-08 -3.94133e-06)
(-5.50165e-06 5.04012e-08 -4.39618e-09 1.46859e-05 1.70742e-08 -3.96521e-06)
(-5.40401e-06 5.42885e-08 -3.11466e-09 1.46537e-05 1.10089e-08 -3.99463e-06)
(-5.295e-06 6.16018e-08 -3.95912e-09 1.46219e-05 7.73708e-09 -4.02734e-06)
(-5.19058e-06 6.65193e-08 -4.54025e-09 1.45979e-05 5.84425e-09 -4.06025e-06)
(-5.09572e-06 6.95714e-08 -4.56853e-09 1.458e-05 4.36097e-09 -4.09137e-06)
(-5.00924e-06 7.03181e-08 -4.17955e-09 1.45719e-05 2.78552e-09 -4.12165e-06)
(-4.92804e-06 7.17698e-08 -3.80339e-09 1.45674e-05 3.28625e-09 -4.15173e-06)
(-4.85004e-06 7.28472e-08 -3.75479e-09 1.45673e-05 2.73132e-09 -4.18473e-06)
(-4.77407e-06 7.32912e-08 -4.053e-09 1.45694e-05 2.51277e-09 -4.21838e-06)
(-4.70053e-06 7.35618e-08 -4.08388e-09 1.45717e-05 3.09605e-09 -4.25047e-06)
(-4.62813e-06 7.36521e-08 -4.09963e-09 1.45743e-05 3.97788e-09 -4.28231e-06)
(-4.55466e-06 7.37056e-08 -4.06834e-09 1.45744e-05 3.73111e-09 -4.31348e-06)
(-4.48127e-06 7.32371e-08 -4.09702e-09 1.45786e-05 2.5381e-09 -4.3468e-06)
(-4.40671e-06 7.30617e-08 -4.29334e-09 1.4582e-05 3.83287e-09 -4.38107e-06)
(-4.32982e-06 7.28821e-08 -4.21775e-09 1.45801e-05 4.1186e-09 -4.41431e-06)
(-4.24676e-06 7.1169e-08 -4.30302e-09 1.45777e-05 3.21023e-09 -4.44994e-06)
(-4.15571e-06 7.02197e-08 -4.62835e-09 1.45683e-05 4.60898e-09 -4.48626e-06)
(-4.06056e-06 6.97825e-08 -4.70478e-09 1.45556e-05 5.92054e-09 -4.52313e-06)
(-3.95736e-06 6.82952e-08 -3.78073e-09 1.45391e-05 6.77212e-09 -4.56222e-06)
(-3.84403e-06 6.78845e-08 -2.38963e-09 1.45154e-05 9.52377e-09 -4.60393e-06)
(-3.72534e-06 6.77919e-08 -2.85293e-09 1.44846e-05 1.19686e-08 -4.64525e-06)
(-3.59495e-06 6.64151e-08 -3.95276e-09 1.44424e-05 1.16362e-08 -4.68658e-06)
(-3.4489e-06 6.46558e-08 -4.44806e-09 1.4394e-05 1.08914e-08 -4.73115e-06)
(-3.28741e-06 6.41722e-08 -5.0511e-09 1.43358e-05 1.23745e-08 -4.77972e-06)
(-3.10883e-06 6.4088e-08 -5.50458e-09 1.42643e-05 1.19178e-08 -4.82987e-06)
(-2.91188e-06 6.37022e-08 -5.93273e-09 1.41856e-05 9.73731e-09 -4.88348e-06)
(-2.69322e-06 6.53565e-08 -6.6055e-09 1.40959e-05 8.47793e-09 -4.94273e-06)
(-2.44622e-06 6.87064e-08 -7.03249e-09 1.39927e-05 4.75799e-09 -5.00653e-06)
(-2.15477e-06 7.44227e-08 -9.92068e-09 1.38608e-05 1.38852e-08 -5.05019e-06)
(-8.01226e-07 -2.6428e-09 1.51317e-08 1.31224e-05 -2.86613e-08 -5.31226e-06)
(3.91826e-08 -3.1265e-08 1.73198e-08 1.26089e-05 -2.81001e-08 -5.45844e-06)
(9.97121e-07 -4.88295e-08 1.8685e-08 1.1965e-05 -3.76094e-08 -5.60069e-06)
(2.13534e-06 -7.41823e-08 1.83337e-08 1.11537e-05 -5.12474e-08 -5.75034e-06)
(3.45524e-06 -9.96931e-08 2.01368e-08 1.01588e-05 -6.49658e-08 -5.88809e-06)
(4.95742e-06 -1.29755e-07 2.16641e-08 8.96632e-06 -8.03185e-08 -6.01748e-06)
(6.6323e-06 -1.62291e-07 2.30276e-08 7.57063e-06 -9.47472e-08 -6.12925e-06)
(8.46032e-06 -1.88605e-07 2.35295e-08 5.95897e-06 -1.11357e-07 -6.21449e-06)
(1.03898e-05 -2.25869e-07 2.25585e-08 4.16143e-06 -1.32449e-07 -6.25982e-06)
(1.23565e-05 -2.54516e-07 2.05351e-08 2.21616e-06 -1.49613e-07 -6.2514e-06)
(1.42672e-05 -2.81392e-07 1.76308e-08 1.81604e-07 -1.63344e-07 -6.17424e-06)
(1.60079e-05 -3.05438e-07 1.20509e-08 -1.83347e-06 -1.63041e-07 -6.03587e-06)
(1.74725e-05 -2.7859e-07 1.63942e-09 -3.79017e-06 -1.48951e-07 -5.82712e-06)
(1.84681e-05 -3.32479e-07 -2.2344e-08 -5.30842e-06 -6.28475e-08 -5.56651e-06)
(-5.36056e-05 1.50626e-07 -4.86444e-07 1.56072e-05 8.22701e-07 1.56018e-05)
(-5.35784e-05 6.35165e-07 -4.89708e-07 1.53501e-05 7.60706e-07 1.6028e-05)
(-5.44026e-05 7.47009e-07 -4.37266e-07 1.53498e-05 6.00859e-07 1.64778e-05)
(-5.58016e-05 9.83677e-07 -4.81442e-07 1.56898e-05 4.77476e-07 1.68907e-05)
(-5.73557e-05 9.3501e-07 -5.36861e-07 1.62577e-05 4.99147e-07 1.72034e-05)
(-5.92104e-05 9.09308e-07 -6.36219e-07 1.69361e-05 4.46619e-07 1.75677e-05)
(-6.07992e-05 6.60678e-07 -6.05378e-07 1.76028e-05 3.3839e-07 1.79036e-05)
(-6.24466e-05 6.66299e-07 -6.20973e-07 1.81101e-05 1.78555e-07 1.8197e-05)
(-6.37116e-05 6.32445e-07 -4.95032e-07 1.84746e-05 6.96525e-08 1.83446e-05)
(-6.42925e-05 2.9162e-07 -3.9392e-07 1.87892e-05 -4.8177e-09 1.83627e-05)
(-6.4309e-05 -4.03764e-08 -3.19959e-07 1.90035e-05 -1.22324e-07 1.81264e-05)
(-6.35e-05 -3.73367e-07 -1.93333e-07 1.87234e-05 -1.85419e-07 1.7747e-05)
(-6.18597e-05 -6.93836e-07 9.37384e-08 1.83634e-05 -3.25887e-07 1.73048e-05)
(-6.01095e-05 -4.94973e-07 2.55965e-07 1.72459e-05 -6.65901e-07 1.67012e-05)
(3.17833e-05 -2.92197e-06 -2.70788e-07 -8.28259e-06 -3.19474e-07 -8.57734e-06)
(3.49313e-05 -3.29515e-06 -3.50768e-07 -9.70565e-06 -3.4472e-07 -9.39436e-06)
(3.80051e-05 -3.45418e-06 -4.6395e-07 -1.07727e-05 -3.187e-07 -1.02547e-05)
(4.10226e-05 -3.50918e-06 -5.55473e-07 -1.16943e-05 -3.03345e-07 -1.11295e-05)
(4.39998e-05 -3.51e-06 -6.32488e-07 -1.25496e-05 -2.99136e-07 -1.20072e-05)
(4.69459e-05 -3.48642e-06 -6.99939e-07 -1.33726e-05 -3.02137e-07 -1.28847e-05)
(4.98687e-05 -3.4536e-06 -7.60267e-07 -1.41798e-05 -3.0893e-07 -1.37623e-05)
(5.27755e-05 -3.41768e-06 -8.14161e-07 -1.49796e-05 -3.16327e-07 -1.46427e-05)
(5.56727e-05 -3.37922e-06 -8.60973e-07 -1.57753e-05 -3.18921e-07 -1.55298e-05)
(5.85645e-05 -3.3364e-06 -8.9919e-07 -1.65622e-05 -3.03103e-07 -1.64245e-05)
(6.14622e-05 -3.30435e-06 -9.25372e-07 -1.73082e-05 -2.46129e-07 -1.73165e-05)
(6.4486e-05 -3.17564e-06 -8.25632e-07 -1.81488e-05 -2.74927e-07 -1.82229e-05)
(6.73016e-05 -3.10286e-06 -7.91554e-07 -1.89562e-05 -3.95185e-07 -1.91381e-05)
(7.01076e-05 -3.0923e-06 -8.91163e-07 -1.97524e-05 -4.05178e-07 -2.00063e-05)
(7.29534e-05 -3.10493e-06 -9.61523e-07 -2.05669e-05 -3.85017e-07 -2.08595e-05)
(7.57889e-05 -3.19446e-06 -1.04438e-06 -2.14539e-05 -3.64148e-07 -2.15801e-05)
(7.85207e-05 -3.26948e-06 -1.10958e-06 -2.21969e-05 -4.21903e-07 -2.22009e-05)
(8.14392e-05 -3.27509e-06 -1.12948e-06 -2.30401e-05 -4.245e-07 -2.2864e-05)
(8.43823e-05 -3.33181e-06 -1.13514e-06 -2.39577e-05 -4.35434e-07 -2.34526e-05)
(8.73257e-05 -3.43785e-06 -1.13609e-06 -2.49244e-05 -4.4688e-07 -2.39013e-05)
(9.02649e-05 -3.61139e-06 -1.1346e-06 -2.5948e-05 -4.5693e-07 -2.41372e-05)
(9.32034e-05 -3.88859e-06 -1.13093e-06 -2.70478e-05 -4.65547e-07 -2.40719e-05)
(9.61554e-05 -4.32957e-06 -1.12392e-06 -2.82464e-05 -4.72537e-07 -2.35984e-05)
(9.9162e-05 -5.03704e-06 -1.10972e-06 -2.95663e-05 -4.75218e-07 -2.25911e-05)
(0.000102326 -6.20378e-06 -1.07797e-06 -3.10204e-05 -4.6845e-07 -2.0913e-05)
(0.00010588 -8.23615e-06 -1.01046e-06 -3.2598e-05 -4.60526e-07 -1.84192e-05)
(0.000110283 -1.21388e-05 -9.27311e-07 -3.41862e-05 -4.86366e-07 -1.48563e-05)
(0.000116513 -2.01735e-05 -7.87437e-07 -3.51702e-05 -6.7643e-07 -1.00261e-05)
(0.000123072 -3.44464e-05 3.08205e-07 -3.18921e-05 -1.89894e-06 -6.42203e-06)
(7.76842e-05 -2.8867e-05 -1.23217e-06 -2.68973e-06 -1.84592e-07 -2.11321e-06)
(5.5029e-05 -2.1064e-05 -6.13548e-07 -1.04726e-06 -2.08655e-07 -1.57991e-06)
(4.19824e-05 -1.80219e-05 -4.69243e-07 -5.35083e-07 -1.1471e-07 -1.24531e-06)
(3.14515e-05 -1.64381e-05 -3.70127e-07 -2.97631e-07 -6.92243e-08 -9.58885e-07)
(2.20734e-05 -1.55438e-05 -2.70039e-07 -1.69291e-07 -4.64403e-08 -6.79495e-07)
(1.33117e-05 -1.50269e-05 -1.67202e-07 -8.16719e-08 -2.96212e-08 -4.0081e-07)
(4.7966e-06 -1.47897e-05 -7.05135e-08 -1.83164e-08 -1.89801e-08 -1.32443e-07)
(-3.53724e-06 -1.47391e-05 1.93539e-08 3.65713e-08 -1.48147e-08 1.28387e-07)
(-1.20163e-05 -1.48639e-05 1.1418e-07 1.15826e-07 -1.43364e-08 3.89116e-07)
(-2.09865e-05 -1.52667e-05 2.25475e-07 2.6057e-07 -9.65302e-09 6.55149e-07)
(-3.09307e-05 -1.62006e-05 3.79027e-07 5.61574e-07 2.03479e-08 9.30084e-07)
(-4.28451e-05 -1.82479e-05 6.67053e-07 1.25613e-06 1.24354e-07 1.25648e-06)
(-5.9443e-05 -2.29451e-05 1.45954e-06 3.07328e-06 5.06514e-07 1.83114e-06)
(-8.68627e-05 -3.35359e-05 2.44803e-06 8.08618e-06 4.6793e-07 3.34092e-06)
(-0.000118891 -4.08853e-05 6.4723e-06 1.88987e-05 4.67659e-06 9.77854e-06)
(-0.000107505 -2.35529e-05 1.59819e-06 2.8648e-05 5.01995e-07 1.18429e-05)
(-0.000104877 -1.70305e-05 1.20617e-06 3.04408e-05 2.43933e-07 1.61878e-05)
(-0.00010188 -1.30046e-05 1.02979e-06 3.04495e-05 2.27035e-07 1.92283e-05)
(-9.88749e-05 -1.0433e-05 9.38056e-07 2.97152e-05 2.68575e-07 2.13771e-05)
(-9.59016e-05 -8.76735e-06 8.81963e-07 2.86812e-05 3.15353e-07 2.27979e-05)
(-9.29405e-05 -7.67947e-06 8.41623e-07 2.75493e-05 3.52298e-07 2.36208e-05)
(-8.99737e-05 -6.96214e-06 8.09452e-07 2.64117e-05 3.76333e-07 2.39662e-05)
(-8.69931e-05 -6.48156e-06 7.81927e-07 2.53087e-05 3.87741e-07 2.39414e-05)
(-8.39985e-05 -6.15067e-06 7.57078e-07 2.42535e-05 3.89119e-07 2.3638e-05)
(-8.09955e-05 -5.91122e-06 7.32994e-07 2.32456e-05 3.83399e-07 2.31298e-05)
(-7.79938e-05 -5.72518e-06 7.08426e-07 2.22818e-05 3.72802e-07 2.24747e-05)
(-7.50021e-05 -5.56882e-06 6.82886e-07 2.13545e-05 3.57895e-07 2.17194e-05)
(-7.2036e-05 -5.43086e-06 6.56788e-07 2.04608e-05 3.40081e-07 2.09054e-05)
(-6.91275e-05 -5.3264e-06 6.41708e-07 1.96035e-05 3.24881e-07 2.00891e-05)
(-6.63127e-05 -5.29838e-06 6.49403e-07 1.87879e-05 3.23677e-07 1.9301e-05)
(-6.34877e-05 -5.23057e-06 6.2738e-07 1.80454e-05 3.17588e-07 1.84731e-05)
(-6.05805e-05 -5.11359e-06 5.62747e-07 1.72594e-05 2.83202e-07 1.7597e-05)
(-5.76489e-05 -4.97494e-06 4.66187e-07 1.64635e-05 2.35206e-07 1.67065e-05)
(-5.47927e-05 -4.85731e-06 3.60491e-07 1.56397e-05 2.27636e-07 1.58561e-05)
(-5.20646e-05 -4.82454e-06 3.48162e-07 1.48526e-05 2.65422e-07 1.50235e-05)
(-4.92303e-05 -4.79182e-06 3.77638e-07 1.40612e-05 2.47312e-07 1.41506e-05)
(-4.63733e-05 -4.73915e-06 3.813e-07 1.32717e-05 2.27504e-07 1.32732e-05)
(-4.35212e-05 -4.66737e-06 3.66447e-07 1.24848e-05 2.08153e-07 1.24044e-05)
(-4.06816e-05 -4.58175e-06 3.38002e-07 1.16985e-05 1.89614e-07 1.15476e-05)
(-3.78568e-05 -4.48322e-06 2.981e-07 1.0911e-05 1.70346e-07 1.07045e-05)
(-3.50496e-05 -4.36914e-06 2.45241e-07 1.01197e-05 1.48298e-07 9.87932e-06)
(-3.2268e-05 -4.23894e-06 1.75033e-07 9.32252e-06 1.22028e-07 9.08739e-06)
(-2.98614e-05 -4.10093e-06 1.23662e-07 8.48757e-06 2.00386e-07 8.46433e-06)
(-2.51909e-05 -3.79004e-06 1.34104e-07 7.24503e-06 1.99445e-07 7.1337e-06)
(-2.33776e-05 -3.71157e-06 1.84024e-07 6.77213e-06 1.86103e-07 6.58536e-06)
(-2.14788e-05 -3.64805e-06 2.34121e-07 6.20283e-06 1.5443e-07 6.03892e-06)
(-1.96495e-05 -3.59725e-06 2.92513e-07 5.66722e-06 1.42227e-07 5.53582e-06)
(-1.78546e-05 -3.52938e-06 3.08009e-07 5.14526e-06 1.24985e-07 5.02383e-06)
(-1.6004e-05 -3.42764e-06 2.98493e-07 4.63658e-06 1.19697e-07 4.50552e-06)
(-1.41363e-05 -3.29839e-06 3.02303e-07 4.09823e-06 1.04016e-07 3.98824e-06)
(-1.23084e-05 -3.16765e-06 2.8082e-07 3.55056e-06 9.27305e-08 3.47483e-06)
(-1.04692e-05 -3.02345e-06 2.54065e-07 3.01108e-06 8.9136e-08 2.97127e-06)
(-8.66097e-06 -2.87842e-06 2.5725e-07 2.48001e-06 7.79651e-08 2.48178e-06)
(-6.90334e-06 -2.72871e-06 2.39484e-07 1.95513e-06 7.06335e-08 2.00057e-06)
(-5.14232e-06 -2.56987e-06 2.16281e-07 1.43776e-06 7.01356e-08 1.5305e-06)
(-3.41733e-06 -2.41355e-06 2.18966e-07 9.28415e-07 6.34384e-08 1.07157e-06)
(-1.73497e-06 -2.26101e-06 2.21383e-07 4.28063e-07 5.79414e-08 6.23962e-07)
(-9.91917e-08 -2.11925e-06 2.28491e-07 -6.02669e-08 5.25118e-08 1.9107e-07)
(1.50288e-06 -1.96244e-06 2.27849e-07 -5.12844e-07 5.00648e-08 -2.46564e-07)
(3.07792e-06 -1.80293e-06 2.2826e-07 -9.80411e-07 3.93238e-08 -6.87023e-07)
(4.57145e-06 -1.65141e-06 2.22395e-07 -1.43345e-06 3.41618e-08 -1.09986e-06)
(6.04231e-06 -1.47885e-06 2.10331e-07 -1.86919e-06 4.13859e-08 -1.51114e-06)
(7.414e-06 -1.36872e-06 2.55844e-07 -2.2805e-06 4.96929e-08 -1.94129e-06)
(8.75342e-06 -1.23822e-06 2.88416e-07 -2.68328e-06 4.56429e-08 -2.35534e-06)
(9.99793e-06 -1.08876e-06 2.91574e-07 -3.04972e-06 4.8664e-08 -2.75611e-06)
(1.11613e-05 -9.38938e-07 3.02869e-07 -3.38166e-06 5.14766e-08 -3.16755e-06)
(1.2251e-05 -7.86537e-07 3.25285e-07 -3.6765e-06 5.49102e-08 -3.60694e-06)
(1.3213e-05 -6.50212e-07 3.55339e-07 -3.94005e-06 5.66805e-08 -4.0687e-06)
(1.4039e-05 -5.17666e-07 3.73841e-07 -4.13863e-06 6.18572e-08 -4.5314e-06)
(1.47351e-05 -3.68409e-07 3.9707e-07 -4.26066e-06 7.0926e-08 -5.03962e-06)
(1.52617e-05 -2.23862e-07 4.2691e-07 -4.32534e-06 8.18275e-08 -5.61153e-06)
(1.55763e-05 -8.97263e-08 4.49665e-07 -4.29617e-06 9.40912e-08 -6.24254e-06)
(1.56335e-05 5.52742e-09 4.70907e-07 -4.18759e-06 8.93861e-08 -6.9079e-06)
(1.54085e-05 1.38579e-07 4.65906e-07 -3.77241e-06 8.32119e-08 -7.66459e-06)
(1.4833e-05 3.04271e-07 4.58353e-07 -3.31994e-06 4.67967e-08 -8.54938e-06)
(1.37587e-05 4.32993e-07 4.14245e-07 -2.57731e-06 -1.40587e-08 -9.51489e-06)
(1.2042e-05 5.613e-07 3.19443e-07 -1.62202e-06 -1.2179e-07 -1.06353e-05)
(9.82052e-06 9.47624e-07 4.26589e-07 -2.73036e-07 -1.47661e-07 -1.14311e-05)
(4.03312e-06 -1.93619e-07 1.61233e-07 4.18773e-06 -8.80437e-07 -1.39445e-05)
(4.38102e-06 -2.58606e-07 1.45593e-07 3.64134e-06 -7.76526e-07 -1.34741e-05)
(3.58239e-06 -2.15473e-07 6.43955e-08 8.34202e-07 -3.54656e-07 -1.0135e-05)
(3.27784e-06 -4.51803e-07 6.72401e-08 1.86343e-06 -3.51175e-07 -1.04294e-05)
(9.39792e-07 4.92322e-07 -4.28776e-07 4.05705e-06 -6.56269e-07 -8.37359e-06)
(4.45018e-08 4.84988e-07 -3.464e-07 5.58884e-06 -5.89214e-07 -7.52273e-06)
(-7.59852e-07 4.05029e-07 -2.74311e-07 6.83966e-06 -4.97474e-07 -6.76176e-06)
(-1.4293e-06 3.71981e-07 -2.30868e-07 7.88002e-06 -4.17632e-07 -6.12172e-06)
(-1.84663e-06 2.88889e-07 -2.07981e-07 8.5898e-06 -3.7755e-07 -5.568e-06)
(-2.16461e-06 1.88459e-07 -1.7578e-07 9.07757e-06 -3.29319e-07 -5.09155e-06)
(-2.50575e-06 1.32341e-07 -1.13334e-07 9.50656e-06 -2.66841e-07 -4.73118e-06)
(-2.78106e-06 9.28679e-08 -7.30435e-08 9.87829e-06 -2.14436e-07 -4.4405e-06)
(-2.93762e-06 4.78471e-08 -6.62382e-08 1.0144e-05 -1.92326e-07 -4.19277e-06)
(-3.05633e-06 -4.6775e-10 -6.71665e-08 1.03227e-05 -1.75442e-07 -3.9708e-06)
(-3.18327e-06 -3.01387e-08 -5.85778e-08 1.04973e-05 -1.55559e-07 -3.81387e-06)
(-3.26985e-06 -5.44154e-08 -4.11696e-08 1.06427e-05 -1.37133e-07 -3.70068e-06)
(-3.35129e-06 -8.23752e-08 -3.09028e-08 1.07657e-05 -1.15439e-07 -3.60398e-06)
(-3.41933e-06 -1.02604e-07 -2.59473e-08 1.08886e-05 -9.8577e-08 -3.55634e-06)
(-3.42905e-06 -1.15288e-07 -2.393e-08 1.09522e-05 -9.16251e-08 -3.50717e-06)
(-3.42785e-06 -1.4271e-07 -2.40429e-08 1.09685e-05 -8.58127e-08 -3.44911e-06)
(-3.45673e-06 -1.4585e-07 -1.45617e-08 1.1018e-05 -7.1115e-08 -3.42584e-06)
(-3.47039e-06 -1.37537e-07 3.01961e-09 1.10536e-05 -6.8668e-08 -3.41995e-06)
(-3.49844e-06 -1.2564e-07 7.79398e-10 1.11062e-05 -7.37265e-08 -3.41841e-06)
(-3.51055e-06 -1.17305e-07 -9.90455e-09 1.1172e-05 -7.66575e-08 -3.44153e-06)
(-3.52767e-06 -9.97891e-08 -1.06681e-08 1.12439e-05 -7.53989e-08 -3.47072e-06)
(-3.53752e-06 -9.06125e-08 -1.30048e-08 1.13093e-05 -7.45633e-08 -3.49759e-06)
(-3.54931e-06 -8.29952e-08 -1.07716e-08 1.13725e-05 -7.2258e-08 -3.52323e-06)
(-3.55822e-06 -7.47057e-08 -9.62547e-09 1.14315e-05 -6.9866e-08 -3.54782e-06)
(-3.56704e-06 -6.56685e-08 -7.95754e-09 1.14892e-05 -6.7386e-08 -3.5714e-06)
(-3.57349e-06 -5.27206e-08 -8.98168e-09 1.15453e-05 -6.47061e-08 -3.59449e-06)
(-3.57938e-06 -4.20873e-08 -1.02109e-08 1.16022e-05 -6.22746e-08 -3.6164e-06)
(-3.58539e-06 -2.66854e-08 -1.07686e-08 1.1661e-05 -5.80463e-08 -3.63683e-06)
(-3.58717e-06 -1.83928e-08 -1.03085e-08 1.1712e-05 -5.35657e-08 -3.65427e-06)
(-3.6009e-06 -7.96236e-09 -1.01454e-08 1.17704e-05 -4.7836e-08 -3.67138e-06)
(-3.61309e-06 1.14002e-08 -9.99617e-09 1.18377e-05 -4.26924e-08 -3.69417e-06)
(-3.62585e-06 3.33463e-08 -9.64183e-09 1.1911e-05 -3.73461e-08 -3.71704e-06)
(-3.6362e-06 5.85963e-08 -8.28158e-09 1.19881e-05 -3.21894e-08 -3.7386e-06)
(-3.63765e-06 9.07406e-08 -5.12099e-09 1.20656e-05 -2.73842e-08 -3.75758e-06)
(-3.62608e-06 1.24321e-07 1.70869e-08 1.21081e-05 -1.79139e-08 -3.7862e-06)
(-3.66497e-06 9.0384e-08 -2.96156e-09 1.22416e-05 2.72836e-08 -3.79426e-06)
(-3.72139e-06 1.12302e-07 -1.35793e-08 1.23124e-05 3.81289e-08 -3.80539e-06)
(-3.74944e-06 1.24639e-07 -1.3757e-08 1.2375e-05 4.66136e-08 -3.81447e-06)
(-3.77183e-06 1.32729e-07 -1.29647e-08 1.24408e-05 5.03423e-08 -3.8231e-06)
(-3.79153e-06 1.36259e-07 -1.15855e-08 1.25167e-05 5.13839e-08 -3.83511e-06)
(-3.81569e-06 1.39978e-07 -1.01945e-08 1.25975e-05 5.04267e-08 -3.84778e-06)
(-3.83924e-06 1.41474e-07 -8.88152e-09 1.26861e-05 4.87958e-08 -3.86284e-06)
(-3.86591e-06 1.43467e-07 -7.67028e-09 1.27765e-05 4.59308e-08 -3.87757e-06)
(-3.89155e-06 1.43332e-07 -5.95919e-09 1.28728e-05 4.30577e-08 -3.89506e-06)
(-3.91969e-06 1.44514e-07 -4.12846e-09 1.29693e-05 3.90288e-08 -3.91455e-06)
(-3.94665e-06 1.43703e-07 -3.03293e-09 1.30696e-05 3.75595e-08 -3.93822e-06)
(-3.97572e-06 1.40459e-07 -3.91098e-09 1.3176e-05 3.39485e-08 -3.9639e-06)
(-4.00389e-06 1.37497e-07 -2.55115e-09 1.32797e-05 3.00304e-08 -3.98807e-06)
(-4.03439e-06 1.33792e-07 -9.72424e-10 1.33842e-05 2.69964e-08 -4.01458e-06)
(-4.06283e-06 1.29595e-07 5.08459e-10 1.34854e-05 2.41894e-08 -4.03993e-06)
(-4.08999e-06 1.23552e-07 1.46883e-09 1.35834e-05 2.26578e-08 -4.0662e-06)
(-4.11751e-06 1.17078e-07 1.74126e-09 1.36786e-05 2.03191e-08 -4.09256e-06)
(-4.14396e-06 1.10265e-07 2.22984e-09 1.37692e-05 1.75137e-08 -4.11601e-06)
(-4.16844e-06 1.0245e-07 2.90077e-09 1.38534e-05 1.50649e-08 -4.13712e-06)
(-4.19136e-06 9.37657e-08 3.15636e-09 1.39325e-05 1.25338e-08 -4.15746e-06)
(-4.21224e-06 8.41494e-08 3.6467e-09 1.40052e-05 1.02944e-08 -4.17589e-06)
(-4.23139e-06 7.33458e-08 3.9712e-09 1.40709e-05 8.36921e-09 -4.19288e-06)
(-4.24882e-06 6.14914e-08 4.14374e-09 1.41294e-05 6.56486e-09 -4.20862e-06)
(-4.26479e-06 4.85661e-08 3.84924e-09 1.41798e-05 4.87987e-09 -4.22292e-06)
(-4.27809e-06 3.55093e-08 3.77621e-09 1.42201e-05 3.29458e-09 -4.23486e-06)
(-4.28809e-06 2.18871e-08 3.5154e-09 1.42504e-05 2.06887e-09 -4.24474e-06)
(-4.29517e-06 8.63299e-09 2.49119e-09 1.4271e-05 1.19645e-09 -4.25338e-06)
(-4.29873e-06 -2.43687e-09 1.15695e-09 1.42818e-05 4.37789e-10 -4.26061e-06)
(-4.29869e-06 -8.48177e-09 -1.13963e-09 1.42837e-05 -5.10168e-10 -4.26344e-06)
(-3.67879e-06 1.18889e-07 7.04605e-09 1.27262e-05 7.04693e-09 -3.92871e-06)
(-3.82951e-06 1.17199e-07 -9.08473e-09 1.31129e-05 1.96596e-09 -4.02288e-06)
(-3.88038e-06 7.10979e-08 -1.36954e-08 1.35292e-05 -9.87826e-09 -4.15787e-06)
(-3.87874e-06 -5.29246e-08 -1.29843e-08 1.3893e-05 -1.71315e-08 -4.29555e-06)
(-3.80269e-06 -2.21793e-07 -9.6383e-09 1.41665e-05 -2.16186e-08 -4.43089e-06)
(-3.65717e-06 -4.08314e-07 -6.99458e-09 1.43413e-05 -2.57954e-08 -4.55639e-06)
(-3.44911e-06 -5.84763e-07 -2.77952e-09 1.44144e-05 -2.5005e-08 -4.66433e-06)
(-3.18597e-06 -7.22982e-07 1.8121e-09 1.44047e-05 -2.35169e-08 -4.7677e-06)
(-2.89683e-06 -8.12966e-07 5.01052e-09 1.43281e-05 -2.03635e-08 -4.85636e-06)
(-2.60206e-06 -8.4362e-07 6.17245e-09 1.42068e-05 -1.82956e-08 -4.93051e-06)
(-2.32079e-06 -8.11983e-07 5.66808e-09 1.40596e-05 -1.50898e-08 -4.98896e-06)
(-2.06598e-06 -7.14412e-07 4.48134e-09 1.39106e-05 -1.05754e-08 -5.03949e-06)
(-1.85472e-06 -5.55909e-07 4.85832e-10 1.37837e-05 -9.26054e-09 -5.08182e-06)
(-1.71661e-06 -3.28369e-07 -1.46818e-08 1.37028e-05 -2.78315e-09 -5.1066e-06)
(-2.33382e-05 -7.19176e-06 3.57502e-07 6.9892e-06 5.06773e-08 6.58089e-06)
(-1.95367e-05 -1.1898e-05 -3.38713e-07 5.81564e-06 -2.06845e-08 5.54011e-06)
(-1.55766e-05 -1.65529e-05 -4.8393e-07 4.57442e-06 -5.2379e-08 4.39039e-06)
(-1.12427e-05 -2.04165e-05 -5.54945e-07 3.31564e-06 -9.43622e-08 3.18994e-06)
(-7.28457e-06 -2.33841e-05 -5.65783e-07 2.08904e-06 -1.3588e-07 2.01667e-06)
(-2.97245e-06 -2.53105e-05 -6.23667e-07 8.60032e-07 -1.84266e-07 7.67379e-07)
(1.23397e-06 -2.63575e-05 -5.5629e-07 -3.04012e-07 -2.13857e-07 -4.32173e-07)
(5.24149e-06 -2.64128e-05 -4.69708e-07 -1.40704e-06 -2.56786e-07 -1.62182e-06)
(9.43878e-06 -2.54918e-05 -4.48534e-07 -2.4839e-06 -2.84634e-07 -2.7912e-06)
(1.32821e-05 -2.36336e-05 -3.24835e-07 -3.51914e-06 -3.41942e-07 -3.84206e-06)
(1.72785e-05 -2.06816e-05 -2.0764e-07 -4.52532e-06 -3.97685e-07 -4.88444e-06)
(2.09944e-05 -1.68374e-05 2.45678e-08 -5.48621e-06 -4.29584e-07 -5.74178e-06)
(2.42912e-05 -1.20355e-05 2.73906e-07 -6.25511e-06 -5.03648e-07 -6.49732e-06)
(2.65047e-05 -7.42271e-06 -1.26964e-07 -6.6884e-06 -4.488e-07 -6.89055e-06)
(4.87801e-05 -1.49763e-06 -1.20446e-06 -1.5726e-05 -4.9153e-07 -1.54381e-05)
(4.54209e-05 -8.29501e-06 -9.49015e-07 -1.52128e-05 -2.72532e-07 -1.41094e-05)
(4.09708e-05 -1.2827e-05 -8.55135e-07 -1.34882e-05 -1.84348e-07 -1.25951e-05)
(3.62977e-05 -1.60673e-05 -7.6356e-07 -1.18273e-05 -1.23086e-07 -1.10727e-05)
(3.18866e-05 -1.83563e-05 -6.86904e-07 -1.02136e-05 -9.65897e-08 -9.72798e-06)
(2.79364e-05 -2.0064e-05 -5.98709e-07 -8.81993e-06 -5.94194e-08 -8.5173e-06)
(2.43354e-05 -2.14435e-05 -5.23137e-07 -7.61374e-06 -4.00643e-08 -7.3802e-06)
(2.10493e-05 -2.269e-05 -4.42595e-07 -6.57698e-06 -3.30881e-08 -6.34666e-06)
(1.81358e-05 -2.37239e-05 -3.77035e-07 -5.64785e-06 -3.49344e-08 -5.41787e-06)
(1.55215e-05 -2.46161e-05 -3.22077e-07 -4.85968e-06 -2.82263e-08 -4.59388e-06)
(1.31781e-05 -2.53625e-05 -2.83884e-07 -4.19081e-06 -2.37044e-08 -3.8405e-06)
(1.11267e-05 -2.59767e-05 -2.46758e-07 -3.62689e-06 -2.52799e-08 -3.18409e-06)
(9.29298e-06 -2.65057e-05 -2.17142e-07 -3.13524e-06 -2.60655e-08 -2.61716e-06)
(7.66252e-06 -2.69258e-05 -1.9208e-07 -2.70601e-06 -2.5874e-08 -2.11294e-06)
(6.25806e-06 -2.72188e-05 -1.63096e-07 -2.34604e-06 -2.04989e-08 -1.67295e-06)
(5.04434e-06 -2.73984e-05 -1.35313e-07 -2.05106e-06 -1.22827e-08 -1.29918e-06)
(4.0614e-06 -2.74337e-05 -1.12881e-07 -1.81159e-06 -1.62537e-08 -1.01329e-06)
(3.28778e-06 -2.73655e-05 -9.31365e-08 -1.63648e-06 -1.04788e-08 -8.12486e-07)
(2.73797e-06 -2.71665e-05 -6.75982e-08 -1.5224e-06 -2.81378e-09 -6.85822e-07)
(2.35394e-06 -2.68344e-05 -3.06733e-08 -1.47089e-06 3.25221e-09 -6.32262e-07)
(2.21469e-06 -2.63606e-05 -8.07669e-09 -1.47488e-06 -2.15268e-09 -6.39992e-07)
(2.28778e-06 -2.57778e-05 7.50606e-09 -1.55249e-06 -1.08209e-08 -7.11828e-07)
(2.56825e-06 -2.50697e-05 2.66085e-08 -1.70408e-06 -1.71036e-08 -8.35933e-07)
(3.04809e-06 -2.42288e-05 5.0013e-08 -1.92634e-06 -2.19989e-08 -1.01823e-06)
(3.73635e-06 -2.32657e-05 7.8143e-08 -2.21321e-06 -2.66711e-08 -1.2609e-06)
(4.63642e-06 -2.21842e-05 1.10047e-07 -2.56745e-06 -3.19915e-08 -1.56138e-06)
(5.74963e-06 -2.09886e-05 1.45437e-07 -2.98859e-06 -3.87158e-08 -1.91715e-06)
(7.07819e-06 -1.96837e-05 1.84413e-07 -3.47363e-06 -4.78617e-08 -2.32559e-06)
(8.63231e-06 -1.8274e-05 2.27955e-07 -4.0175e-06 -6.0753e-08 -2.78379e-06)
(1.04447e-05 -1.67646e-05 2.81839e-07 -4.61552e-06 -7.6839e-08 -3.2872e-06)
(1.24438e-05 -1.52018e-05 3.28904e-07 -5.25277e-06 -8.9565e-08 -3.84787e-06)
(1.46162e-05 -1.36072e-05 3.59612e-07 -5.88988e-06 -1.18977e-07 -4.46262e-06)
(1.70505e-05 -1.20169e-05 3.91068e-07 -6.5118e-06 -1.83698e-07 -5.12199e-06)
(1.9883e-05 -1.03911e-05 4.16376e-07 -7.09295e-06 -2.9198e-07 -5.83526e-06)
(2.32149e-05 -8.70486e-06 4.27738e-07 -7.56826e-06 -2.46093e-07 -6.22185e-06)
(3.96193e-05 1.83534e-05 -1.79724e-06 -2.46563e-06 -1.59705e-06 -1.80663e-05)
(4.62868e-05 1.1839e-05 -1.33098e-06 -9.86429e-06 -1.18021e-06 -1.75213e-05)
(6.92398e-05 -9.44792e-05 -8.34927e-07 5.35076e-05 2.63529e-06 -2.93752e-05)
(6.28418e-05 -6.56087e-05 -9.76812e-07 4.775e-05 1.46168e-06 -2.90703e-05)
(5.1405e-05 -3.22238e-05 -5.83411e-08 3.38114e-05 8.95141e-07 -2.73779e-05)
(4.46761e-05 -2.00339e-05 -3.40736e-07 2.82967e-05 8.76267e-07 -2.56873e-05)
(3.9098e-05 -1.3349e-05 -4.63589e-07 2.40859e-05 8.21711e-07 -2.37208e-05)
(3.40671e-05 -9.49184e-06 -4.69401e-07 2.07763e-05 7.6797e-07 -2.16235e-05)
(2.94344e-05 -6.95919e-06 -4.41427e-07 1.81027e-05 7.05197e-07 -1.95413e-05)
(2.55679e-05 -5.16978e-06 -4.03072e-07 1.58731e-05 6.00986e-07 -1.76659e-05)
(2.20206e-05 -3.92381e-06 -3.5908e-07 1.36445e-05 5.48154e-07 -1.55527e-05)
(1.86831e-05 -2.82967e-06 -3.36644e-07 1.18664e-05 4.78103e-07 -1.35702e-05)
(1.56094e-05 -1.91787e-06 -2.83793e-07 1.03411e-05 4.14829e-07 -1.17275e-05)
(1.26992e-05 -1.1867e-06 -2.51085e-07 8.92588e-06 3.97515e-07 -9.87951e-06)
(9.87935e-06 -5.50548e-07 -2.18915e-07 7.74701e-06 3.75619e-07 -8.17429e-06)
(7.13863e-06 -1.76233e-08 -2.02642e-07 6.76826e-06 3.70526e-07 -6.48301e-06)
(4.43269e-06 5.03789e-07 -1.83139e-07 6.00396e-06 3.70288e-07 -5.0227e-06)
(1.82334e-06 9.7997e-07 -1.73064e-07 5.40615e-06 3.94482e-07 -3.64372e-06)
(-8.69998e-07 1.3467e-06 -1.20338e-07 4.95295e-06 3.8222e-07 -2.21152e-06)
(-3.555e-06 1.6408e-06 -1.0222e-07 4.68625e-06 3.8435e-07 -8.74571e-07)
(-6.14753e-06 1.85934e-06 -6.7494e-08 4.62002e-06 3.81304e-07 3.39733e-07)