/*--------------------------------*- C++ -*----------------------------------*\
| =========                 |                                                 |
| \\      /  F ield         | OpenFOAM: The Open Source CFD Toolbox           |
|  \\    /   O peration     | Version:  v2012                                 |
|   \\  /    A nd           | Website:  www.openfoam.com                      |
|    \\/     M anipulation  |                                                 |
\*---------------------------------------------------------------------------*/
FoamFile
{
    version     2.0;
    format      ascii;
    class       volVectorField;
    location    "10";
    object      D_0;
}
// * * * * * * * * * * * * * * * * * * * * * * * * * * * * * * * * * * * * * //

dimensions      [0 1 0 0 0 0 0];


internalField   nonuniform List<vector> 
2000
(
(0.000266872 -0.00183571 0)
(0.00043526 -0.0018754 0)
(0.000224506 -0.00207479 0)
(0.000369299 -0.00213287 0)
(0.00020007 -0.00228484 0)
(0.000330404 -0.00234111 0)
(0.000181938 -0.00246225 0)
(0.000299788 -0.00250776 0)
(0.000165029 -0.00260593 0)
(0.000269106 -0.00263654 0)
(0.000146538 -0.00271518 0)
(0.000236511 -0.00272966 0)
(0.000126066 -0.00279124 0)
(0.000204493 -0.00279216 0)
(0.000105211 -0.00283993 0)
(0.000176175 -0.0028315 0)
(8.62902e-05 -0.00286914 0)
(0.000153202 -0.00285462 0)
(7.1562e-05 -0.00288634 0)
(0.00013818 -0.00287299 0)
(0.00066924 -0.00191033 0)
(0.000801542 -0.00200159 0)
(0.000660414 -0.00210803 0)
(0.000789139 -0.00218655 0)
(0.000641255 -0.00228947 0)
(0.000757686 -0.00234774 0)
(0.000610734 -0.00244287 0)
(0.000709788 -0.00247274 0)
(0.000566369 -0.00256024 0)
(0.000648608 -0.00256197 0)
(0.000510905 -0.00264343 0)
(0.000581077 -0.0026235 0)
(0.000451266 -0.00269989 0)
(0.000515001 -0.00266644 0)
(0.000394995 -0.00273841 0)
(0.000456587 -0.00269814 0)
(0.000347688 -0.00276609 0)
(0.000409555 -0.00272291 0)
(0.000312092 -0.00278767 0)
(0.00037377 -0.00274332 0)
(0.00115292 -0.00196877 0)
(0.00128159 -0.00205041 0)
(0.00111386 -0.00215352 0)
(0.00121992 -0.0022131 0)
(0.00106515 -0.00229982 0)
(0.00114925 -0.00232365 0)
(0.000998481 -0.00240216 0)
(0.00106497 -0.00239002 0)
(0.000915893 -0.00246655 0)
(0.000973021 -0.00242891 0)
(0.000826818 -0.00250772 0)
(0.000881611 -0.00245546 0)
(0.000741484 -0.0025378 0)
(0.000798192 -0.00247866 0)
(0.000666976 -0.0025636 0)
(0.00072753 -0.00250209 0)
(0.000606622 -0.00258799 0)
(0.000670819 -0.0025256 0)
(0.000559621 -0.0026105 0)
(0.000626358 -0.00254723 0)
(0.00156053 -0.00205576 0)
(0.00165092 -0.00210789 0)
(0.00149092 -0.00218175 0)
(0.00155682 -0.00219161 0)
(0.00140302 -0.0022546 0)
(0.00145136 -0.00222513 0)
(0.00130017 -0.00228799 0)
(0.00134158 -0.00223517 0)
(0.00119603 -0.00230341 0)
(0.00123888 -0.00224086 0)
(0.00109998 -0.00231522 0)
(0.00114816 -0.00224875 0)
(0.0010154 -0.00232871 0)
(0.00107025 -0.00226022 0)
(0.000942841 -0.00234504 0)
(0.00100353 -0.00227436 0)
(0.000881203 -0.00236327 0)
(0.000946543 -0.00229014 0)
(0.000828844 -0.00238196 0)
(0.000897526 -0.00230582 0)
(0.00189464 -0.00207886 0)
(0.00194475 -0.00206366 0)
(0.00177775 -0.0021158 0)
(0.00181178 -0.00206592 0)
(0.00165454 -0.00211618 0)
(0.00168756 -0.00205407 0)
(0.00154069 -0.00211293 0)
(0.00157878 -0.00204698 0)
(0.00144094 -0.0021111 0)
(0.00148483 -0.00204255 0)
(0.00135388 -0.00211163 0)
(0.00140327 -0.00204058 0)
(0.0012776 -0.00211461 0)
(0.00133181 -0.0020407 0)
(0.00121045 -0.00211979 0)
(0.00126959 -0.00204347 0)
(0.00115088 -0.00212637 0)
(0.00121556 -0.00204831 0)
(0.00109886 -0.00213501 0)
(0.00116798 -0.00205408 0)
(0.00213997 -0.0019865 0)
(0.00216759 -0.00192693 0)
(0.00200548 -0.00196269 0)
(0.00203727 -0.00189997 0)
(0.00188691 -0.00194311 0)
(0.00192345 -0.00187584 0)
(0.00178195 -0.00192755 0)
(0.00182362 -0.00185574 0)
(0.00168874 -0.00191527 0)
(0.00173593 -0.00184007 0)
(0.00160633 -0.00190589 0)
(0.00165899 -0.00182833 0)
(0.0015338 -0.00189898 0)
(0.00159165 -0.00181963 0)
(0.00147008 -0.00189414 0)
(0.00153262 -0.00181322 0)
(0.00141405 -0.00189097 0)
(0.00148065 -0.00180844 0)
(0.00136386 -0.00188882 0)
(0.00143438 -0.00180448 0)
(0.0023718 -0.00183566 0)
(0.0024014 -0.00176722 0)
(0.00223905 -0.0017979 0)
(0.00227298 -0.00172576 0)
(0.00212437 -0.00176596 0)
(0.00216374 -0.00169022 0)
(0.00202482 -0.00173856 0)
(0.00206988 -0.00166003 0)
(0.00193751 -0.00171532 0)
(0.00198822 -0.00163469 0)
(0.00186052 -0.0016958 0)
(0.00191661 -0.00161352 0)
(0.00179256 -0.0016794 0)
(0.00185364 -0.00159578 0)
(0.00173251 -0.00166549 0)
(0.00179817 -0.00158073 0)
(0.00167928 -0.00165337 0)
(0.00174919 -0.00156771 0)
(0.00163167 -0.0016424 0)
(0.00170572 -0.00155612 0)
(0.00260325 -0.00168354 0)
(0.00263448 -0.00160861 0)
(0.00247424 -0.00163128 0)
(0.00251072 -0.00155206 0)
(0.00236425 -0.00158667 0)
(0.00240676 -0.00150443 0)
(0.00226979 -0.0015479 0)
(0.00231832 -0.00146401 0)
(0.00218782 -0.00151431 0)
(0.00224208 -0.00142952 0)
(0.00211617 -0.00148521 0)
(0.00217571 -0.00139982 0)
(0.00205323 -0.00145985 0)
(0.00211757 -0.001374 0)
(0.00199779 -0.00143753 0)
(0.00206647 -0.00135137 0)
(0.00194874 -0.00141768 0)
(0.0020215 -0.00133141 0)
(0.00190493 -0.00139977 0)
(0.00198184 -0.00131359 0)
(0.00282678 -0.00153074 0)
(0.00285959 -0.00145141 0)
(0.00270514 -0.00146484 0)
(0.00274423 -0.00138126 0)
(0.00260215 -0.00140851 0)
(0.0026477 -0.00132265 0)
(0.00251418 -0.00135956 0)
(0.00256589 -0.00127298 0)
(0.00243833 -0.0013169 0)
(0.00249573 -0.00123038 0)
(0.00237246 -0.00127961 0)
(0.00243509 -0.00119326 0)
(0.00231484 -0.00124675 0)
(0.00238228 -0.00116037 0)
(0.00226394 -0.0012174 0)
(0.00233587 -0.00113073 0)
(0.00221858 -0.00119061 0)
(0.0022948 -0.00110386 0)
(0.00217811 -0.00116533 0)
(0.00225885 -0.00107992 0)
(0.00303839 -0.00137934 0)
(0.00307272 -0.00129772 0)
(0.00292778 -0.00130195 0)
(0.00296925 -0.00121653 0)
(0.00283413 -0.00123585 0)
(0.00288233 -0.00114892 0)
(0.00275409 -0.00117854 0)
(0.00280839 -0.00109169 0)
(0.00268516 -0.0011285 0)
(0.00274487 -0.00104254 0)
(0.00262565 -0.00108457 0)
(0.00269009 -0.000999793 0)
(0.00257431 -0.00104592 0)
(0.00264294 -0.000962179 0)
(0.00253008 -0.00101212 0)
(0.00260263 -0.000928682 0)
(0.00249191 -0.000983114 0)
(0.00256868 -0.000898461 0)
(0.00245852 -0.000959108 0)
(0.00254074 -0.000870792 0)
(0.00323509 -0.00123084 0)
(0.00327061 -0.00114899 0)
(0.00313855 -0.00114501 0)
(0.00318184 -0.00106025 0)
(0.00305656 -0.00107175 0)
(0.00310662 -0.000986414 0)
(0.00298624 -0.00100846 0)
(0.0030422 -0.000923924 0)
(0.00292546 -0.000953321 0)
(0.00298655 -0.000870128 0)
(0.00287278 -0.000904888 0)
(0.00293827 -0.000823085 0)
(0.00282735 -0.000862049 0)
(0.00289641 -0.000781393 0)
(0.00278918 -0.000824354 0)
(0.0028606 -0.000744152 0)
(0.00275933 -0.00079279 0)
(0.00283087 -0.000711366 0)
(0.0027381 -0.000770899 0)
(0.00280558 -0.000685391 0)
(0.00341474 -0.00108613 0)
(0.00345105 -0.00100587 0)
(0.00333431 -0.000995474 0)
(0.00337867 -0.000913457 0)
(0.00326564 -0.000918003 0)
(0.00331653 -0.000836475 0)
(0.00320646 -0.000851162 0)
(0.00326278 -0.000771311 0)
(0.00315531 -0.000793063 0)
(0.00321621 -0.000715258 0)
(0.00311124 -0.00074233 0)
(0.00317601 -0.000666332 0)
(0.00307358 -0.00069806 0)
(0.00314164 -0.000622886 0)
(0.00304195 -0.000659698 0)
(0.0031127 -0.000583369 0)
(0.00301618 -0.00062676 0)
(0.00308812 -0.000547009 0)
(0.0029947 -0.000598811 0)
(0.00306402 -0.000516027 0)
(0.0035756 -0.000945684 0)
(0.00361205 -0.000868691 0)
(0.00351241 -0.000854162 0)
(0.00355687 -0.000776639 0)
(0.00345798 -0.000775784 0)
(0.00350853 -0.000699733 0)
(0.00341061 -0.000708224 0)
(0.00346605 -0.000634488 0)
(0.00336943 -0.000649577 0)
(0.00342894 -0.00057824 0)
(0.00333394 -0.000598409 0)
(0.00339685 -0.000529022 0)
(0.00330388 -0.000553718 0)
(0.00336962 -0.000485193 0)
(0.00327921 -0.000514768 0)
(0.00334709 -0.000445295 0)
(0.00325962 -0.000481013 0)
(0.00332819 -0.000408779 0)
(0.00324297 -0.000453116 0)
(0.00330909 -0.000377337 0)
(0.00371614 -0.000809888 0)
(0.00375186 -0.0007376 0)
(0.00367033 -0.000721527 0)
(0.00371373 -0.000649855 0)
(0.00363023 -0.000645567 0)
(0.00367908 -0.0005762 0)
(0.0035947 -0.000580036 0)
(0.00364778 -0.000513492 0)
(0.00356353 -0.000523165 0)
(0.00362003 -0.000459298 0)
(0.00353665 -0.000473625 0)
(0.00359596 -0.000411826 0)
(0.00351406 -0.000430464 0)
(0.00357569 -0.000369585 0)
(0.0034958 -0.000392928 0)
(0.00355926 -0.000331254 0)
(0.00348158 -0.000360575 0)
(0.00354574 -0.000296259 0)
(0.00346947 -0.00033434 0)
(0.00353145 -0.000266059 0)
(0.00383537 -0.000678856 0)
(0.00386936 -0.000612392 0)
(0.00380622 -0.000597404 0)
(0.00384726 -0.000532605 0)
(0.00377985 -0.000527018 0)
(0.00382555 -0.000465191 0)
(0.00375568 -0.000466189 0)
(0.00380485 -0.000407534 0)
(0.00373403 -0.000413406 0)
(0.00378595 -0.000357576 0)
(0.00371526 -0.000367511 0)
(0.00376941 -0.000313806 0)
(0.00369958 -0.00032767 0)
(0.00375562 -0.000274931 0)
(0.00368717 -0.000293233 0)
(0.00374485 -0.000239735 0)
(0.0036778 -0.000263858 0)
(0.00373632 -0.000207587 0)
(0.00366966 -0.000240368 0)
(0.00372635 -0.0001796 0)
(0.00393293 -0.000552375 0)
(0.00396416 -0.00049246 0)
(0.00391886 -0.000481063 0)
(0.00395629 -0.000423751 0)
(0.00390499 -0.00041904 0)
(0.00394616 -0.000365208 0)
(0.00389116 -0.000365312 0)
(0.00393499 -0.00031484 0)
(0.00387816 -0.000318702 0)
(0.00392408 -0.000271059 0)
(0.00386669 -0.000278281 0)
(0.0039143 -0.000232694 0)
(0.00385716 -0.000243374 0)
(0.0039063 -0.000198681 0)
(0.00384988 -0.000213447 0)
(0.00390051 -0.00016794 0)
(0.00384472 -0.000188191 0)
(0.00389629 -0.000139794 0)
(0.00383995 -0.000168235 0)
(0.00389009 -0.000114944 0)
(0.00400893 -0.000429886 0)
(0.00403644 -0.000376899 0)
(0.00400768 -0.000371301 0)
(0.00404037 -0.000321716 0)
(0.00400449 -0.000319999 0)
(0.0040399 -0.000274187 0)
(0.00399949 -0.000275445 0)
(0.00403672 -0.000232961 0)
(0.00399389 -0.000236834 0)
(0.00403254 -0.000197003 0)
(0.00398864 -0.000203487 0)
(0.00402849 -0.000165519 0)
(0.00398435 -0.0001749 0)
(0.00402539 -0.000137678 0)
(0.00398139 -0.000150639 0)
(0.00402378 -0.00011254 0)
(0.00397972 -0.00013038 0)
(0.00402315 -8.93922e-05 0)
(0.0039777 -0.000114497 0)
(0.00402013 -6.84886e-05 0)
(0.00406378 -0.000310373 0)
(0.00408659 -0.000264532 0)
(0.0040724 -0.000266775 0)
(0.00409933 -0.000224773 0)
(0.00407758 -0.000228209 0)
(0.00410612 -0.00018994 0)
(0.00407955 -0.00019457 0)
(0.00410907 -0.000159318 0)
(0.00407985 -0.000165415 0)
(0.00411017 -0.000132494 0)
(0.00407967 -0.000140363 0)
(0.00411067 -0.000109065 0)
(0.00407968 -0.000119144 0)
(0.00411147 -8.84692e-05 0)
(0.0040803 -0.000101453 0)
(0.00411322 -6.99539e-05 0)
(0.0040815 -8.68881e-05 0)
(0.0041155 -5.27786e-05 0)
(0.00408177 -7.54299e-05 0)
(0.0041152 -3.66911e-05 0)
(0.00409688 -0.000192255 0)
(0.0041136 -0.000154121 0)
(0.0041126 -0.000166397 0)
(0.0041322 -0.000131721 0)
(0.00412379 -0.000142225 0)
(0.00414424 -0.000110842 0)
(0.00413103 -0.000120647 0)
(0.00415194 -9.17796e-05 0)
(0.00413602 -0.000101847 0)
(0.00415717 -7.48593e-05 0)
(0.00413992 -8.58049e-05 0)
(0.00416117 -6.00863e-05 0)
(0.00414348 -7.24957e-05 0)
(0.00416492 -4.72525e-05 0)
(0.00414723 -6.18122e-05 0)
(0.00416916 -3.5988e-05 0)
(0.0041512 -5.34168e-05 0)
(0.00417361 -2.5794e-05 0)
(0.00415396 -4.69241e-05 0)
(0.00417574 -1.60244e-05 0)
(0.00410441 -7.59318e-05 0)
(0.00411354 -4.70052e-05 0)
(0.00412673 -6.77464e-05 0)
(0.00413808 -4.20178e-05 0)
(0.00414348 -5.84921e-05 0)
(0.00415524 -3.48968e-05 0)
(0.00415586 -4.99013e-05 0)
(0.00416722 -2.76853e-05 0)
(0.00416551 -4.25591e-05 0)
(0.00417605 -2.12501e-05 0)
(0.00417343 -3.66313e-05 0)
(0.0041831 -1.57425e-05 0)
(0.00418031 -3.21158e-05 0)
(0.0041894 -1.10852e-05 0)
(0.00418672 -2.87531e-05 0)
(0.00419576 -7.09764e-06 0)
(0.00419299 -2.58022e-05 0)
(0.00420196 -3.44353e-06 0)
(0.0041985 -2.21986e-05 0)
(0.00420593 4.74731e-07 0)
(0.00420976 -5.74133e-06 0)
(0.00421117 -4.27214e-06 0)
(0.00418082 -1.98001e-05 0)
(0.00417565 -1.61606e-05 0)
(0.00412252 -3.95796e-05 0)
(0.00411162 -3.53544e-05 0)
(0.00403262 -6.75123e-05 0)
(0.0040162 -6.33153e-05 0)
(0.00390995 -0.00010762 0)
(0.00388836 -0.000103479 0)
(0.0037549 -0.000164162 0)
(0.00372914 -0.000159886 0)
(0.00356938 -0.000240914 0)
(0.00354088 -0.000236238 0)
(0.00335646 -0.000340823 0)
(0.00332689 -0.000335332 0)
(0.00312152 -0.000466532 0)
(0.00309185 -0.000459101 0)
(0.00287377 -0.00062886 0)
(0.00284372 -0.000615432 0)
(0.00421819 -5.4396e-06 0)
(0.00421795 -5.69675e-06 0)
(0.00419326 -1.82673e-05 0)
(0.004188 -1.86744e-05 0)
(0.00414086 -3.48431e-05 0)
(0.00413091 -3.60015e-05 0)
(0.00406 -5.77433e-05 0)
(0.00404605 -5.97663e-05 0)
(0.00395072 -8.96208e-05 0)
(0.00393345 -9.21969e-05 0)
(0.00381368 -0.000133897 0)
(0.00379377 -0.000136462 0)
(0.00365051 -0.000194458 0)
(0.00362869 -0.000196329 0)
(0.0034637 -0.000275783 0)
(0.00344086 -0.000276102 0)
(0.00325404 -0.000381805 0)
(0.00323178 -0.000379705 0)
(0.00301678 -0.000510098 0)
(0.00299684 -0.000505803 0)
(0.00423146 -4.32649e-06 0)
(0.00423452 -7.38186e-06 0)
(0.00420989 -1.5485e-05 0)
(0.00420847 -1.93521e-05 0)
(0.00416267 -2.89566e-05 0)
(0.00415739 -3.37979e-05 0)
(0.00408945 -4.72592e-05 0)
(0.00408095 -5.28633e-05 0)
(0.00399082 -7.25748e-05 0)
(0.00397984 -7.85826e-05 0)
(0.00386778 -0.000107577 0)
(0.00385498 -0.000113425 0)
(0.00372134 -0.000155496 0)
(0.00370732 -0.000160446 0)
(0.00355152 -0.000219294 0)
(0.00353695 -0.000222684 0)
(0.00335681 -0.000299891 0)
(0.00334242 -0.000301395 0)
(0.00314064 -0.000395524 0)
(0.00312665 -0.000394459 0)
(0.00425374 -2.45494e-06 0)
(0.00426043 -8.27335e-06 0)
(0.00423524 -1.15e-05 0)
(0.00423763 -1.77262e-05 0)
(0.00419246 -2.20951e-05 0)
(0.00419135 -2.90193e-05 0)
(0.0041258 -3.64039e-05 0)
(0.00412182 -4.38241e-05 0)
(0.00403596 -5.63052e-05 0)
(0.00402981 -6.38937e-05 0)
(0.00392371 -8.37873e-05 0)
(0.00391605 -9.1146e-05 0)
(0.00378944 -0.000120776 0)
(0.00378084 -0.00012751 0)
(0.00363328 -0.000168766 0)
(0.00362416 -0.000174559 0)
(0.00345717 -0.000229271 0)
(0.00344771 -0.000233514 0)
(0.00326602 -0.000304734 0)
(0.00325665 -0.000306378 0)
(0.00428378 -8.33132e-07 0)
(0.00429333 -8.4076e-06 0)
(0.00426791 -7.80718e-06 0)
(0.00427329 -1.53405e-05 0)
(0.00422905 -1.60596e-05 0)
(0.00423099 -2.39459e-05 0)
(0.00416802 -2.73585e-05 0)
(0.00416719 -3.55502e-05 0)
(0.00408559 -4.31186e-05 0)
(0.00408268 -5.14478e-05 0)
(0.00398245 -6.46741e-05 0)
(0.00397811 -7.29654e-05 0)
(0.00385928 -9.32977e-05 0)
(0.00385409 -0.000101369 0)
(0.00371748 -0.000130472 0)
(0.00371188 -0.000137975 0)
(0.00355976 -0.000178277 0)
(0.00355409 -0.000184509 0)
(0.00338937 -0.000238819 0)
(0.00338391 -0.000242821 0)
(0.00432021 7.83789e-08 0)
(0.00433202 -8.23686e-06 0)
(0.00430642 -5.41817e-06 0)
(0.00431423 -1.35537e-05 0)
(0.00427108 -1.20674e-05 0)
(0.00427549 -2.03963e-05 0)
(0.00421514 -2.13182e-05 0)
(0.0042168 -2.99024e-05 0)
(0.00413945 -3.42056e-05 0)
(0.00413907 -4.30281e-05 0)
(0.00404491 -5.17217e-05 0)
(0.00404318 -6.07338e-05 0)
(0.00393268 -7.49755e-05 0)
(0.00393025 -8.40281e-05 0)
(0.00380453 -0.000105331 0)
(0.00380198 -0.000114058 0)
(0.00366278 -0.000144288 0)
(0.00366049 -0.000152068 0)
(0.00351 -0.000193168 0)
(0.00350811 -0.000199147 0)
(0.00436252 3.50977e-07 0)
(0.00437636 -8.10892e-06 0)
(0.00435036 -4.50495e-06 0)
(0.00436036 -1.28708e-05 0)
(0.00431822 -1.03676e-05 0)
(0.00432491 -1.89552e-05 0)
(0.00426706 -1.84679e-05 0)
(0.00427106 -2.73724e-05 0)
(0.00419781 -2.96526e-05 0)
(0.00419984 -3.89111e-05 0)
(0.00411153 -4.47569e-05 0)
(0.00411234 -5.43463e-05 0)
(0.00400958 -6.47159e-05 0)
(0.00400986 -7.44901e-05 0)
(0.00389368 -9.05385e-05 0)
(0.00389402 -0.000100178 0)
(0.00376591 -0.0001232 0)
(0.00376669 -0.000132189 0)
(0.00362851 -0.000163585 0)
(0.00362985 -0.000171217 0)
(0.00441066 1.96235e-07 0)
(0.00442642 -8.17773e-06 0)
(0.00439981 -4.80041e-06 0)
(0.00441188 -1.32357e-05 0)
(0.00437059 -1.06441e-05 0)
(0.00437949 -1.94069e-05 0)
(0.00432393 -1.84049e-05 0)
(0.00433028 -2.75867e-05 0)
(0.00426079 -2.88367e-05 0)
(0.00426529 -3.84695e-05 0)
(0.00418228 -4.26627e-05 0)
(0.00418568 -5.27117e-05 0)
(0.00408977 -6.06342e-05 0)
(0.00409273 -7.09606e-05 0)
(0.00398489 -8.34787e-05 0)
(0.00398799 -9.38177e-05 0)
(0.00386955 -0.000111833 0)
(0.00387317 -0.00012178 0)
(0.00374575 -0.000146231 0)
(0.00375009 -0.00015523 0)
(0.0044646 -2.12135e-07 0)
(0.00448223 -8.45313e-06 0)
(0.00445486 -5.94435e-06 0)
(0.00446893 -1.43833e-05 0)
(0.0044283 -1.23831e-05 0)
(0.00443935 -2.1247e-05 0)
(0.00438581 -2.04614e-05 0)
(0.00439447 -2.98346e-05 0)
(0.00432835 -3.0862e-05 0)
(0.00433531 -4.0765e-05 0)
(0.00425702 -4.42106e-05 0)
(0.00426297 -5.45991e-05 0)
(0.00417314 -6.11155e-05 0)
(0.00417872 -7.18587e-05 0)
(0.00407825 -8.21347e-05 0)
(0.00408399 -9.30051e-05 0)
(0.00397408 -0.00010772 0)
(0.00398038 -0.000118393 0)
(0.00386244 -0.000138181 0)
(0.00386953 -0.000148235 0)
(0.00452421 -7.54652e-07 0)
(0.00454364 -8.87327e-06 0)
(0.00451543 -7.61011e-06 0)
(0.00453142 -1.60131e-05 0)
(0.0044913 -1.50611e-05 0)
(0.00450442 -2.39446e-05 0)
(0.00445264 -2.3923e-05 0)
(0.00446352 -3.33717e-05 0)
(0.00440039 -3.48161e-05 0)
(0.0044097 -4.48507e-05 0)
(0.00433561 -4.82838e-05 0)
(0.00434401 -5.88639e-05 0)
(0.00425957 -6.48173e-05 0)
(0.00426766 -7.58294e-05 0)
(0.00417372 -8.48401e-05 0)
(0.004182 -9.60882e-05 0)
(0.00407963 -0.000108684 0)
(0.0040885 -0.000119889 0)
(0.00397888 -0.000136553 0)
(0.00398857 -0.000147367 0)
(0.00458927 -1.34438e-06 0)
(0.00461041 -9.3538e-06 0)
(0.00458134 -9.51984e-06 0)
(0.00459915 -1.78427e-05 0)
(0.00455942 -1.82082e-05 0)
(0.00457449 -2.70189e-05 0)
(0.00452426 -2.81283e-05 0)
(0.00453722 -3.75201e-05 0)
(0.00447676 -3.9847e-05 0)
(0.00448827 -4.98513e-05 0)
(0.00441792 -5.38425e-05 0)
(0.00442861 -6.44311e-05 0)
(0.00434896 -7.05196e-05 0)
(0.00435939 -8.16017e-05 0)
(0.00427123 -9.01934e-05 0)
(0.00428191 -0.000101616 0)
(0.00418623 -0.000113083 0)
(0.00419753 -0.000124627 0)
(0.00409544 -0.000139351 0)
(0.00410763 -0.000150716 0)
(0.00465948 -1.91115e-06 0)
(0.00468222 -9.80758e-06 0)
(0.00465232 -1.14322e-05 0)
(0.00467183 -1.96121e-05 0)
(0.00463241 -2.14106e-05 0)
(0.00464928 -3.00363e-05 0)
(0.00460044 -3.249e-05 0)
(0.00461533 -4.16724e-05 0)
(0.00455723 -4.51943e-05 0)
(0.00457078 -5.49848e-05 0)
(0.00450377 -5.99459e-05 0)
(0.00451657 -7.0336e-05 0)
(0.0044412 -7.70867e-05 0)
(0.0044538 -8.80069e-05 0)
(0.00437081 -9.6884e-05 0)
(0.00438368 -0.000108205 0)
(0.00429397 -0.000119527 0)
(0.00430749 -0.000131064 0)
(0.00421202 -0.000145113 0)
(0.00422648 -0.000156638 0)
(0.00473446 -2.39381e-06 0)
(0.00475866 -1.01486e-05 0)
(0.00472802 -1.313e-05 0)
(0.00474906 -2.1078e-05 0)
(0.00470995 -2.42954e-05 0)
(0.00472847 -3.25963e-05 0)
(0.00468089 -3.64784e-05 0)
(0.00469752 -4.527e-05 0)
(0.00464159 -5.01723e-05 0)
(0.00465697 -5.95336e-05 0)
(0.00459298 -6.57608e-05 0)
(0.00460769 -7.57075e-05 0)
(0.00453615 -8.35375e-05 0)
(0.00455072 -9.40274e-05 0)
(0.00447234 -0.000103713 0)
(0.00448721 -0.000114652 0)
(0.00440282 -0.000126423 0)
(0.00441838 -0.000137665 0)
(0.00432885 -0.00015177 0)
(0.00434537 -0.000163111 0)
(0.00481378 -2.73569e-06 0)
(0.00483927 -1.02912e-05 0)
(0.00480804 -1.441e-05 0)
(0.00483044 -2.20046e-05 0)
(0.0047917 -2.65147e-05 0)
(0.00481165 -3.43156e-05 0)
(0.00476529 -3.96006e-05 0)
(0.00478347 -4.77826e-05 0)
(0.00472953 -5.41401e-05 0)
(0.00474654 -6.28162e-05 0)
(0.00468529 -7.04842e-05 0)
(0.00470169 -7.96982e-05 0)
(0.00463362 -8.88932e-05 0)
(0.00464992 -9.86283e-05 0)
(0.00457568 -0.000109548 0)
(0.00459232 -0.000119741 0)
(0.00451263 -0.000132525 0)
(0.00453001 -0.000143088 0)
(0.00444567 -0.000157771 0)
(0.0044641 -0.000168612 0)
(0.00489693 -2.87992e-06 0)
(0.00492352 -1.01484e-05 0)
(0.00489191 -1.50708e-05 0)
(0.00491546 -2.2154e-05 0)
(0.00487721 -2.77233e-05 0)
(0.0048984 -3.48099e-05 0)
(0.00485327 -4.13677e-05 0)
(0.00487277 -4.86774e-05 0)
(0.00482073 -5.64689e-05 0)
(0.00483914 -6.41511e-05 0)
(0.00478042 -7.33527e-05 0)
(0.00479827 -8.14847e-05 0)
(0.00473335 -9.22351e-05 0)
(0.00475115 -0.00010084 0)
(0.00468065 -0.000113257 0)
(0.00469883 -0.00012231 0)
(0.0046235 -0.000136524 0)
(0.00464243 -0.000145944 0)
(0.00456303 -0.000162129 0)
(0.00458301 -0.000171774 0)
(0.00498332 -2.76001e-06 0)
(0.0050108 -9.6249e-06 0)
(0.00497909 -1.48916e-05 0)
(0.00500356 -2.12694e-05 0)
(0.00496599 -2.75509e-05 0)
(0.0049882 -3.36726e-05 0)
(0.00494436 -4.12645e-05 0)
(0.00496497 -4.74004e-05 0)
(0.00491478 -5.65007e-05 0)
(0.00493435 -6.2831e-05 0)
(0.00487803 -7.35729e-05 0)
(0.00489708 -8.02032e-05 0)
(0.00483509 -9.2678e-05 0)
(0.00485411 -9.96714e-05 0)
(0.00478705 -0.000113934 0)
(0.0048065 -0.000121314 0)
(0.00473505 -0.000137401 0)
(0.00475531 -0.000145134 0)
(0.00468019 -0.000163097 0)
(0.00470155 -0.000171075 0)
(0.00507224 -2.28581e-06 0)
(0.00510035 -8.59592e-06 0)
(0.0050689 -1.3603e-05 0)
(0.00509408 -1.90451e-05 0)
(0.00505739 -2.55835e-05 0)
(0.00508042 -3.04527e-05 0)
(0.00503798 -3.87503e-05 0)
(0.00505947 -4.33648e-05 0)
(0.00501117 -5.35592e-05 0)
(0.00503165 -5.81245e-05 0)
(0.0049777 -7.03097e-05 0)
(0.00499768 -7.49528e-05 0)
(0.00493848 -8.92008e-05 0)
(0.00495846 -9.40167e-05 0)
(0.00489455 -0.000110333 0)
(0.00491498 -0.000115411 0)
(0.00484701 -0.000133696 0)
(0.00486832 -0.000139106 0)
(0.00479706 -0.000159221 0)
(0.00481955 -0.000164944 0)
(0.00516273 -1.35368e-06 0)
(0.00519122 -6.89174e-06 0)
(0.00516036 -1.09412e-05 0)
(0.00518607 -1.51502e-05 0)
(0.00515054 -2.1441e-05 0)
(0.00517416 -2.47142e-05 0)
(0.00513334 -3.32884e-05 0)
(0.00515544 -3.5975e-05 0)
(0.00510915 -4.68977e-05 0)
(0.00513029 -4.92195e-05 0)
(0.00507869 -6.2567e-05 0)
(0.00509938 -6.46859e-05 0)
(0.00504287 -8.052e-05 0)
(0.00506361 -8.25746e-05 0)
(0.00500268 -0.000100911 0)
(0.00502393 -0.000103021 0)
(0.00495913 -0.000123749 0)
(0.00498127 -0.000126056 0)
(0.00491335 -0.000148794 0)
(0.00493672 -0.00015152 0)
(0.00525334 -7.69084e-09 0)
(0.00528216 -4.49438e-06 0)
(0.00525213 -6.96958e-06 0)
(0.00527834 -9.55069e-06 0)
(0.00524418 -1.49004e-05 0)
(0.00526829 -1.6207e-05 0)
(0.00522917 -2.42093e-05 0)
(0.00525184 -2.45687e-05 0)
(0.00520745 -3.53944e-05 0)
(0.00522924 -3.49969e-05 0)
(0.00517979 -4.88543e-05 0)
(0.00520123 -4.79161e-05 0)
(0.00514712 -6.4842e-05 0)
(0.00516873 -6.36113e-05 0)
(0.00511049 -8.35022e-05 0)
(0.00513271 -8.21955e-05 0)
(0.00507096 -0.000104944 0)
(0.00509412 -0.000103669 0)
(0.00502954 -0.000129229 0)
(0.00505375 -0.000128025 0)
(0.00534198 9.03967e-07 0)
(0.00537167 -2.33049e-06 0)
(0.00534281 -2.18428e-06 0)
(0.00537031 -3.34332e-06 0)
(0.00533672 -5.44975e-06 0)
(0.00536245 -4.7824e-06 0)
(0.00532365 -1.01717e-05 0)
(0.00534804 -7.97128e-06 0)
(0.0053043 -1.71314e-05 0)
(0.00532783 -1.37028e-05 0)
(0.00527947 -2.68018e-05 0)
(0.00530261 -2.24528e-05 0)
(0.00525002 -3.95212e-05 0)
(0.00527325 -3.45726e-05 0)
(0.0052169 -5.54853e-05 0)
(0.0052407 -5.02854e-05 0)
(0.00518121 -7.46896e-05 0)
(0.00520604 -6.95769e-05 0)
(0.00514424 -9.68773e-05 0)
(0.00517024 -9.2128e-05 0)
(0.00264812 -0.0007907 0)
(0.00268245 -0.000727008 0)
(0.00255608 -0.000827436 0)
(0.00259387 -0.0007695 0)
(0.00247054 -0.000863396 0)
(0.00251052 -0.000807773 0)
(0.00238943 -0.000899147 0)
(0.00243103 -0.000843981 0)
(0.00231149 -0.000934798 0)
(0.00235449 -0.000879239 0)
(0.00223604 -0.000970343 0)
(0.00228037 -0.000914088 0)
(0.00216273 -0.00100572 0)
(0.00220834 -0.000948728 0)
(0.00209136 -0.00104083 0)
(0.0021382 -0.00098319 0)
(0.0020218 -0.00107561 0)
(0.00206977 -0.00101743 0)
(0.00195386 -0.00110998 0)
(0.00200288 -0.00105141 0)
(0.00188737 -0.00114393 0)
(0.00193734 -0.00108508 0)
(0.00182208 -0.00117744 0)
(0.00187294 -0.00111844 0)
(0.00175774 -0.00121053 0)
(0.00180946 -0.00115152 0)
(0.00169409 -0.00124325 0)
(0.00174667 -0.00118435 0)
(0.00163082 -0.00127568 0)
(0.00168433 -0.00121705 0)
(0.00156769 -0.00130794 0)
(0.00162221 -0.00124971 0)
(0.00150445 -0.00134017 0)
(0.00156015 -0.00128252 0)
(0.00144096 -0.00137262 0)
(0.001498 -0.00131575 0)
(0.00137717 -0.00140569 0)
(0.00143569 -0.00134981 0)
(0.00131319 -0.00143988 0)
(0.0013731 -0.00138469 0)
(0.0028196 -0.000619098 0)
(0.00285596 -0.000573814 0)
(0.00273718 -0.000653125 0)
(0.00277384 -0.000606431 0)
(0.00265722 -0.000687138 0)
(0.00269479 -0.000639736 0)
(0.00258008 -0.000720903 0)
(0.00261895 -0.000673304 0)
(0.00250571 -0.000754456 0)
(0.00254606 -0.000706892 0)
(0.00243388 -0.000787867 0)
(0.00247576 -0.000740364 0)
(0.00236431 -0.000821168 0)
(0.00240769 -0.000773653 0)
(0.00229672 -0.000854354 0)
(0.00234155 -0.000806737 0)
(0.00223089 -0.000887397 0)
(0.00227709 -0.000839619 0)
(0.00216661 -0.000920265 0)
(0.00221412 -0.000872312 0)
(0.0021037 -0.000952936 0)
(0.00215249 -0.000904839 0)
(0.002042 -0.000985404 0)
(0.00209204 -0.000937233 0)
(0.00198135 -0.00101769 0)
(0.00203266 -0.00096954 0)
(0.00192161 -0.00104983 0)
(0.00197423 -0.00100182 0)
(0.00186265 -0.00108192 0)
(0.00191665 -0.00103416 0)
(0.00180435 -0.00111405 0)
(0.00185984 -0.00106666 0)
(0.00174662 -0.00114639 0)
(0.00180373 -0.00109944 0)
(0.00168943 -0.00117912 0)
(0.00174829 -0.00113272 0)
(0.00163279 -0.00121258 0)
(0.0016935 -0.00116682 0)
(0.00157686 -0.00124705 0)
(0.00163931 -0.0012016 0)
(0.00296745 -0.000481251 0)
(0.00300424 -0.000450131 0)
(0.0028966 -0.000511489 0)
(0.00293341 -0.000479057 0)
(0.00282672 -0.000542266 0)
(0.00286403 -0.000508425 0)
(0.00275792 -0.000573348 0)
(0.00279612 -0.00053824 0)
(0.00269035 -0.000604609 0)
(0.00272971 -0.000568469 0)
(0.00262414 -0.00063596 0)
(0.00266486 -0.000599031 0)
(0.00255939 -0.000667336 0)
(0.00260158 -0.000629832 0)
(0.00249614 -0.0006987 0)
(0.00253984 -0.00066079 0)
(0.00243437 -0.000730029 0)
(0.00247962 -0.000691847 0)
(0.00237405 -0.000761317 0)
(0.00242084 -0.000722969 0)
(0.00231511 -0.000792565 0)
(0.00236343 -0.000754143 0)
(0.00225748 -0.00082379 0)
(0.00230735 -0.000785371 0)
(0.00220109 -0.000855021 0)
(0.00225254 -0.000816683 0)
(0.00214588 -0.000886306 0)
(0.00219897 -0.000848125 0)
(0.00209181 -0.000917714 0)
(0.0021466 -0.000879759 0)
(0.00203885 -0.000949328 0)
(0.00209542 -0.000911655 0)
(0.00198701 -0.000981251 0)
(0.00204543 -0.000943907 0)
(0.00193632 -0.00101363 0)
(0.00199664 -0.000976681 0)
(0.00188691 -0.0010467 0)
(0.00194912 -0.00101023 0)
(0.00183899 -0.00108071 0)
(0.00190287 -0.00104446 0)
(0.00311169 -0.000375148 0)
(0.00314798 -0.000353148 0)
(0.0030489 -0.000402428 0)
(0.00308514 -0.000379334 0)
(0.00298656 -0.000430191 0)
(0.00302331 -0.000405984 0)
(0.00292484 -0.000458328 0)
(0.00296248 -0.000433089 0)
(0.00286388 -0.000486814 0)
(0.00290266 -0.000460648 0)
(0.00280381 -0.000515607 0)
(0.00284392 -0.00048863 0)
(0.00274474 -0.000544653 0)
(0.00278631 -0.000516994 0)
(0.00268677 -0.000573902 0)
(0.0027299 -0.000545695 0)
(0.00262998 -0.000603325 0)
(0.00267473 -0.000574694 0)
(0.00257442 -0.00063291 0)
(0.00262082 -0.000603956 0)
(0.00252009 -0.00066265 0)
(0.00256816 -0.000633466 0)
(0.00246707 -0.000692508 0)
(0.00251685 -0.000663234 0)
(0.00241539 -0.00072251 0)
(0.00246694 -0.000693264 0)
(0.00236511 -0.000752697 0)
(0.00241847 -0.000723578 0)
(0.00231627 -0.000783122 0)
(0.00237151 -0.000754203 0)
(0.00226893 -0.000813852 0)
(0.0023261 -0.000785181 0)
(0.00222318 -0.000844962 0)
(0.0022823 -0.000816575 0)
(0.00217913 -0.000876563 0)
(0.00224021 -0.000848512 0)
(0.00213698 -0.000908848 0)
(0.00219993 -0.00088119 0)
(0.00209697 -0.000942012 0)
(0.00216153 -0.000914478 0)
(0.00325134 -0.00029657 0)
(0.00328709 -0.000282164 0)
(0.00319533 -0.000321187 0)
(0.00323107 -0.000305835 0)
(0.00313951 -0.000346293 0)
(0.00317577 -0.00033001 0)
(0.00308403 -0.000371791 0)
(0.00312121 -0.000354665 0)
(0.0030291 -0.000397708 0)
(0.00306744 -0.000379818 0)
(0.00297481 -0.000424039 0)
(0.00301449 -0.000405461 0)
(0.00292131 -0.000450769 0)
(0.00296246 -0.000431576 0)
(0.00286867 -0.00047787 0)
(0.00291139 -0.00045815 0)
(0.00281695 -0.000505292 0)
(0.00286139 -0.000485171 0)
(0.0027662 -0.000532928 0)
(0.00281256 -0.000512563 0)
(0.0027171 -0.000560983 0)
(0.00276506 -0.000540363 0)
(0.00266922 -0.000589362 0)
(0.0027189 -0.000568552 0)
(0.00262269 -0.000618031 0)
(0.00267417 -0.000597132 0)
(0.00257764 -0.000646996 0)
(0.00263099 -0.000626118 0)
(0.00253422 -0.000676292 0)
(0.00258949 -0.000655535 0)
(0.00249257 -0.000705966 0)
(0.00254981 -0.000685396 0)
(0.00245285 -0.000736066 0)
(0.00251207 -0.000715726 0)
(0.00241524 -0.000766673 0)
(0.0024764 -0.000746603 0)
(0.00237996 -0.000797931 0)
(0.00244294 -0.000778164 0)
(0.00234731 -0.000829971 0)
(0.00241182 -0.000810256 0)
(0.00338612 -0.000240563 0)
(0.00342161 -0.000232398 0)
(0.00333613 -0.000262767 0)
(0.00337161 -0.000253814 0)
(0.00328617 -0.000285506 0)
(0.00332212 -0.000275773 0)
(0.00323624 -0.000308876 0)
(0.00327312 -0.000298287 0)
(0.00318676 -0.000332422 0)
(0.00322479 -0.000321352 0)
(0.00313786 -0.000356365 0)
(0.00317722 -0.000344962 0)
(0.00308973 -0.000380672 0)
(0.00313057 -0.000369102 0)
(0.00304264 -0.000405314 0)
(0.00308501 -0.00039376 0)
(0.0029969 -0.000430318 0)
(0.00304075 -0.000418943 0)
(0.00295069 -0.000459224 0)
(0.00299647 -0.000444911 0)
(0.00290617 -0.00048534 0)
(0.00295377 -0.000471345 0)
(0.00286322 -0.000511944 0)
(0.00291266 -0.000498182 0)
(0.00282186 -0.000538985 0)
(0.00287321 -0.00052539 0)
(0.00278215 -0.000566423 0)
(0.00283513 -0.000552807 0)
(0.0027442 -0.00059441 0)
(0.00279915 -0.000580922 0)
(0.0027082 -0.000622834 0)
(0.00276512 -0.000609458 0)
(0.00267431 -0.000651738 0)
(0.00273315 -0.000638468 0)
(0.00264272 -0.000681162 0)
(0.00270343 -0.000668029 0)
(0.00261371 -0.000711197 0)
(0.00267611 -0.000698216 0)
(0.0025876 -0.000741906 0)
(0.00265138 -0.000728872 0)
(0.00351714 -0.00020305 0)
(0.00355251 -0.000199854 0)
(0.00347246 -0.000223215 0)
(0.00350798 -0.000219466 0)
(0.00342819 -0.000244328 0)
(0.00346387 -0.000239708 0)
(0.00338362 -0.000265562 0)
(0.00342024 -0.000260458 0)
(0.00333944 -0.000287299 0)
(0.00337717 -0.000281784 0)
(0.00329577 -0.000309587 0)
(0.00333478 -0.000303698 0)
(0.00325276 -0.000332435 0)
(0.00329319 -0.000326195 0)
(0.0032105 -0.000355834 0)