/*--------------------------------*- C++ -*----------------------------------*\
| =========                 |                                                 |
| \\      /  F ield         | OpenFOAM: The Open Source CFD Toolbox           |
|  \\    /   O peration     | Version:  v2012                                 |
|   \\  /    A nd           | Website:  www.openfoam.com                      |
|    \\/     M anipulation  |                                                 |
\*---------------------------------------------------------------------------*/
FoamFile
{
    version     2.0;
    format      ascii;
    class       volSymmTensorField;
    location    "10";
    object      epsilon;
}
// * * * * * * * * * * * * * * * * * * * * * * * * * * * * * * * * * * * * * //

dimensions      [0 0 0 0 0 0 0];


internalField   nonuniform List<symmTensor> 
2000
(
(0.0198374 -0.00208798 5.47103e-18 -0.0183175 -5.41402e-19 1.1292e-33)
(0.012165 -0.000872815 3.07602e-18 -0.00895899 -3.26465e-18 0)
(0.0149576 -0.00121037 -4.33667e-18 -0.0114188 -5.44193e-19 0)
(0.0113546 -0.000963968 -2.0436e-18 -0.00876698 1.74077e-18 0)
(0.0125539 -0.000845558 3.58164e-18 -0.00928489 3.53584e-19 0)
(0.0104665 -0.000865594 6.26885e-19 -0.00776867 -1.07071e-18 0)
(0.0108361 -0.000676616 -1.79273e-18 -0.00749673 6.19667e-19 0)
(0.00946617 -0.000695916 -3.83311e-18 -0.00649237 -1.39799e-18 0)
(0.00932523 -0.000591392 -6.297e-18 -0.00588414 -1.26468e-18 0)
(0.00830583 -0.00048396 -9.0902e-19 -0.00509633 1.11292e-18 0)
(0.00787961 -0.000519211 0 -0.00435613 0 0)
(0.00709145 -0.000253227 0 -0.00368838 0 0)
(0.00654504 -0.000429074 -9.76052e-19 -0.0030196 1.10296e-19 0)
(0.00599314 -4.21003e-05 -1.63553e-18 -0.00248851 -4.3641e-19 0)
(0.00541169 -0.000325369 -6.7847e-19 -0.00199189 -2.72476e-19 0)
(0.0051152 0.000131506 9.8903e-19 -0.00161484 3.66374e-19 0)
(0.00452281 -0.000221099 0 -0.00128487 0 0)
(0.00446565 0.000269329 0 -0.00103872 0 0)
(0.00389425 -0.000123042 0 -0.000923145 0 0)
(0.00395744 0.000383397 -3.48682e-19 -0.000791184 -1.35766e-19 0)
(0.00981885 -0.00214922 0 -0.00870041 0 0)
(0.0119333 -0.00258221 1.32125e-18 -0.00844327 8.73821e-19 0)
(0.0103744 -0.00206208 -7.08197e-20 -0.00795494 7.91073e-19 0)
(0.0108833 -0.00234639 1.27729e-18 -0.00782411 1.36902e-19 0)
(0.00977587 -0.00189579 4.80212e-19 -0.00715238 -9.32913e-19 0)
(0.00966755 -0.00198636 5.00964e-19 -0.00676843 -9.75429e-19 0)
(0.00870036 -0.0016269 -1.68103e-18 -0.00570608 9.90977e-19 0)
(0.00830571 -0.00151689 -3.26154e-18 -0.00537816 -8.95843e-19 0)
(0.00751069 -0.00130968 -6.11883e-18 -0.00424504 -1.83806e-18 0)
(0.00701006 -0.00102226 -4.11706e-18 -0.00403523 -5.51014e-19 0)
(0.00643802 -0.000976366 -1.06421e-18 -0.00309688 -5.56753e-19 0)
(0.00596217 -0.00057172 2.52822e-19 -0.00295998 2.15572e-19 0)
(0.00556959 -0.000653808 1.67146e-18 -0.00230613 7.92555e-19 0)
(0.00520845 -0.000190489 2.02674e-19 -0.00221406 3.59042e-20 0)
(0.00489881 -0.000358186 -1.83182e-18 -0.00179661 -9.8968e-19 0)
(0.00469088 0.000126802 -1.25447e-18 -0.0017479 -8.31965e-19 0)
(0.00439275 -9.41034e-05 5.73181e-19 -0.00147032 3.41909e-19 0)
(0.00432611 0.00038984 9.61403e-19 -0.00145488 6.62787e-19 0)
(0.00397948 0.000138077 1.30987e-18 -0.00122577 7.87763e-19 0)
(0.00396886 0.000570563 1.16264e-18 -0.00122249 8.37883e-19 0)
(0.0116932 -0.00464524 -1.99054e-18 -0.0103918 6.54123e-19 2.94975e-34)
(0.0104213 -0.00361073 -3.15098e-18 -0.00720414 6.34843e-19 0)
(0.00968757 -0.00339587 -1.36603e-19 -0.00683933 -6.81374e-19 0)
(0.00880273 -0.00299709 1.19301e-18 -0.00612099 6.60843e-19 0)
(0.00808131 -0.00262609 2.42697e-19 -0.00490592 4.45797e-19 0)
(0.00722867 -0.00223497 -2.48493e-18 -0.00469327 -1.5877e-18 0)
(0.00675809 -0.00194568 -2.99769e-18 -0.0033216 -7.5291e-19 0)
(0.00594195 -0.00151973 -2.52606e-18 -0.00339978 -4.30807e-19 0)
(0.00581291 -0.00138809 0 -0.00238048 0 0)
(0.00515 -0.000971761 0 -0.00258994 0 0)
(0.00519945 -0.000944796 -6.94199e-19 -0.00199692 -4.00342e-19 0)
(0.00477402 -0.000551994 -2.27751e-18 -0.00219677 -1.28064e-18 0)
(0.00480893 -0.000571991 -2.34276e-18 -0.00190504 -1.36492e-18 0)
(0.00462326 -0.000196562 -3.10467e-19 -0.00203832 -4.76899e-19 0)
(0.00454602 -0.000242328 1.47038e-18 -0.0019011 1.09673e-18 0)
(0.0045476 0.000124148 1.14628e-18 -0.00198097 8.78884e-19 0)
(0.00433158 4.80928e-05 5.55743e-19 -0.00188252 2.89721e-19 0)
(0.00445202 0.000404038 -2.27416e-19 -0.00191256 -1.40117e-19 0)
(0.00412702 0.000290408 -1.01165e-19 -0.00178946 1.67723e-20 0)
(0.0042527 0.000624717 1.57804e-18 -0.001792 1.35529e-18 0)
(0.00822891 -0.004687 2.88126e-18 -0.00647531 -1.14703e-18 7.49901e-34)
(0.00764594 -0.003648 1.61541e-18 -0.00501538 -1.2961e-18 0)
(0.0065899 -0.00319577 3.04424e-19 -0.0035988 7.66188e-19 0)
(0.00578696 -0.00249866 -1.12045e-18 -0.00352636 -1.15137e-19 0)
(0.00529039 -0.00216057 -3.78548e-19 -0.00207678 -1.17939e-19 0)
(0.00445996 -0.00157931 3.07932e-19 -0.00233543 1.13252e-19 0)
(0.00451172 -0.00146409 1.77932e-18 -0.00144085 1.01638e-18 0)
(0.003865 -0.00102682 1.53146e-18 -0.00173719 1.10404e-18 0)
(0.00422113 -0.000986316 2.21887e-18 -0.0014423 1.84875e-18 0)
(0.00377893 -0.000700094 1.33617e-18 -0.00162625 1.42844e-18 0)
(0.0042019 -0.000637738 2.7978e-18 -0.00162068 2.37236e-18 0)
(0.003894 -0.000444953 1.10219e-18 -0.00172597 1.084e-18 0)
(0.0042635 -0.000360057 1.28285e-18 -0.00180763 6.24313e-19 0)
(0.00403823 -0.000196977 1.42159e-18 -0.00187587 9.76254e-19 0)
(0.00430632 -0.000109466 1.00603e-18 -0.00195996 1.03141e-18 0)
(0.0041386 5.34459e-05 1.46593e-18 -0.00201292 1.45227e-18 0)
(0.00430877 0.000122741 6.73617e-19 -0.00207476 3.28818e-19 0)
(0.00420262 0.000284972 1.39536e-19 -0.00208638 6.55757e-20 0)
(0.00420768 0.000320532 -1.1928e-18 -0.00206581 -9.62657e-19 0)
(0.00413797 0.000480703 -4.59185e-19 -0.00202865 -4.1159e-19 0)
(0.00519722 -0.00370197 -1.20821e-18 -0.00277739 2.19807e-19 5.7492e-34)
(0.00445615 -0.00250905 1.60656e-18 -0.00231616 5.121e-19 0)
(0.00377904 -0.00218887 3.52408e-19 -0.00118458 -2.05409e-19 0)
(0.00334886 -0.00155834 -1.24339e-18 -0.00132772 -1.072e-18 0)
(0.00326273 -0.00144578 -2.99978e-19 -0.000933775 3.32704e-19 0)
(0.00312906 -0.00112489 4.28696e-19 -0.00119616 7.63761e-19 0)
(0.00326211 -0.00104237 -4.66615e-19 -0.00119358 -7.6641e-19 0)
(0.00322929 -0.00082798 -8.02495e-19 -0.00127955 -7.45242e-19 0)
(0.00340369 -0.000745445 -1.60019e-18 -0.00132734 -8.67566e-19 0)
(0.0033389 -0.000577715 3.03255e-19 -0.00138837 8.02259e-21 0)
(0.00353267 -0.00049698 -8.20574e-19 -0.00143344 -8.51353e-19 0)
(0.00341423 -0.000358502 -1.69474e-18 -0.00151276 -9.1018e-19 0)
(0.00366337 -0.000277024 -1.73783e-18 -0.00160784 -1.241e-18 0)
(0.00350114 -0.000177088 -5.53035e-19 -0.00162457 -7.08936e-19 0)
(0.00380393 -8.62777e-05 8.5736e-20 -0.00177713 2.80862e-19 0)
(0.0036366 -7.27842e-06 -6.65743e-19 -0.00179057 -2.10322e-19 0)
(0.00387817 9.14034e-05 -5.0739e-19 -0.00191347 -6.37327e-19 0)
(0.00371841 0.000156136 -4.76853e-19 -0.00189649 -8.43612e-19 0)
(0.00387943 0.000244377 8.52467e-19 -0.00196311 7.8665e-19 0)
(0.00372759 0.00031053 1.36891e-19 -0.00194433 2.69355e-19 0)
(0.00275781 -0.00208642 5.12847e-19 -0.00060189 -2.73293e-19 -5.82983e-35)
(0.00279631 -0.00168233 2.98997e-18 -0.000685601 1.00717e-19 0)
(0.00271029 -0.00158478 2.09777e-18 -0.000686225 9.64682e-19 0)
(0.00280442 -0.00132401 9.37553e-20 -0.000898424 9.49754e-19 0)
(0.00286209 -0.00123537 -1.60104e-18 -0.000842922 -1.14411e-18 0)
(0.00287447 -0.0010087 -1.52589e-18 -0.0010771 -1.18122e-18 0)
(0.00300488 -0.000933996 -3.72686e-19 -0.00104045 8.56852e-20 0)
(0.00296758 -0.000743229 1.61992e-18 -0.00122681 8.10583e-19 0)
(0.00312607 -0.000689207 8.90138e-19 -0.0012391 7.50599e-19 0)
(0.0030824 -0.000520715 2.04478e-18 -0.00135771 1.62883e-18 0)
(0.00324078 -0.00048928 1.45819e-18 -0.00140007 1.17652e-18 0)
(0.00319897 -0.000330442 1.13288e-18 -0.00147634 1.19154e-18 0)
(0.00333219 -0.000310325 0 -0.00153329 0 0)
(0.00329535 -0.00016129 5.27265e-19 -0.00157875 4.07734e-19 0)
(0.00338464 -0.000143038 9.21743e-20 -0.00164239 3.14488e-19 0)
(0.00334915 -2.22138e-05 3.19778e-19 -0.00165867 3.65783e-19 0)
(0.00339836 9.34987e-06 7.13877e-19 -0.00172025 4.46834e-19 0)
(0.00337145 9.2185e-05 2.16562e-19 -0.00171958 5.82858e-20 0)
(0.00347697 0.000143939 1.99608e-18 -0.00181381 2.10866e-18 0)
(0.00342995 0.000189284 2.23209e-18 -0.00180419 2.31382e-18 0)
(0.00219565 -0.00195486 5.67358e-19 -0.000239787 -3.76781e-19 -1.0321e-34)
(0.00230261 -0.00155713 -1.31535e-18 -0.000505492 -1.36073e-18 0)
(0.002347 -0.00148212 8.08708e-19 -0.000578566 4.33078e-19 0)
(0.0024095 -0.00118288 2.70147e-18 -0.000790667 1.10313e-18 0)
(0.00252656 -0.00110715 1.62829e-18 -0.000834966 1.19249e-18 0)
(0.00255802 -0.000875145 9.24763e-19 -0.00100437 1.46248e-18 0)
(0.00270404 -0.000828677 -3.48486e-19 -0.00105752 1.24793e-19 0)
(0.00270626 -0.000642793 -6.56081e-19 -0.0011909 -4.26588e-19 0)
(0.0028573 -0.000620383 -5.49463e-19 -0.00125584 -1.26841e-18 0)
(0.00284601 -0.000461717 -1.68699e-18 -0.00135217 -1.58954e-18 0)
(0.00298101 -0.000452384 -1.1568e-18 -0.00142548 -3.22673e-19 0)
(0.00297294 -0.000311251 0 -0.00148448 0 0)
(0.00307752 -0.000307409 -6.83261e-19 -0.00156157 -1.14827e-18 0)
(0.00308107 -0.000180818 -6.83877e-19 -0.00158471 -1.16567e-18 0)
(0.00315163 -0.000180421 2.21275e-19 -0.00166332 6.96228e-19 0)
(0.00316571 -7.06656e-05 3.14844e-18 -0.00165565 2.7046e-18 0)
(0.00321376 -7.342e-05 1.54876e-18 -0.00172952 1.15383e-18 0)
(0.00323099 2.0051e-05 1.07696e-18 -0.00170589 1.09669e-18 0)
(0.00324688 2.38695e-05 -8.83923e-19 -0.00177903 -7.45865e-19 0)
(0.00325636 9.0568e-05 -4.41222e-19 -0.00173608 -3.62228e-19 0)
(0.00162869 -0.00177344 -6.27969e-19 0.000120889 1.77727e-19 1.15904e-34)
(0.00173869 -0.00134457 -1.91758e-18 -0.000376108 3.65354e-19 0)
(0.00191745 -0.00133595 -3.05498e-18 -0.000422025 -1.65393e-18 0)
(0.00198455 -0.0010015 -3.96262e-18 -0.000713849 -2.84562e-18 0)
(0.00218522 -0.000993652 -1.83272e-18 -0.000791091 -1.53746e-18 0)
(0.0022246 -0.000740645 -3.90632e-19 -0.000963225 -1.53914e-18 0)
(0.00241343 -0.00075168 -6.67266e-19 -0.00107136 -4.3209e-19 0)
(0.00243462 -0.000555455 -9.17366e-19 -0.00116819 -2.9091e-19 0)
(0.00259896 -0.000578298 -2.94617e-19 -0.00129014 -3.43497e-19 0)
(0.0026125 -0.000418522 -1.46281e-18 -0.00133586 -1.20676e-18 0)
(0.00274695 -0.000444221 -1.47654e-18 -0.00146048 -1.1782e-18 0)
(0.00276029 -0.000308988 -6.26461e-19 -0.00146729 -8.42662e-19 0)
(0.00286172 -0.000333187 -9.96513e-20 -0.00159225 -3.99248e-19 0)
(0.00287848 -0.000216418 -2.34231e-18 -0.00156652 -1.47939e-18 0)
(0.00294878 -0.000238431 -2.98847e-18 -0.00169294 -2.2466e-18 0)
(0.00296783 -0.000137239 -1.96885e-18 -0.00164058 -1.88867e-18 0)
(0.00301732 -0.000157601 -2.23214e-19 -0.00176609 -1.06056e-21 0)
(0.00303274 -7.09048e-05 8.60552e-19 -0.00169262 3.78251e-19 0)
(0.00307618 -9.09784e-05 1.4927e-18 -0.00181122 1.09619e-18 0)
(0.00307408 -1.83732e-05 6.18428e-19 -0.00172129 6.95246e-19 0)
(0.00106773 -0.00142194 1.12943e-18 0.000309766 -7.39051e-19 2.75414e-34)
(0.00121508 -0.00105323 -1.16196e-19 -0.000299629 -1.40076e-18 0)
(0.00149557 -0.00110778 1.42625e-18 -0.000316896 1.83107e-18 0)
(0.00158023 -0.000792207 -4.69695e-19 -0.000670082 1.35305e-18 0)
(0.00184087 -0.000857037 7.2037e-19 -0.00075715 4.12798e-19 0)
(0.00189342 -0.000606416 2.63157e-19 -0.000939773 -1.99035e-19 0)
(0.00211539 -0.000684944 1.58111e-18 -0.00107465 1.17439e-18 0)
(0.00214912 -0.000482286 2.12012e-19 -0.00115044 4.07864e-19 0)
(0.00233136 -0.000562869 8.85122e-19 -0.00130678 2.57955e-19 0)
(0.00235577 -0.000394387 0 -0.00131607 0 0)
(0.00250328 -0.00046689 6.56139e-19 -0.00147559 8.49661e-19 0)
(0.00252205 -0.000327205 8.58933e-19 -0.00144215 7.61633e-19 0)
(0.00263869 -0.000384652 1.96579e-18 -0.00159768 1.49903e-18 0)
(0.00265562 -0.00027442 8.54574e-19 -0.00152912 7.41919e-19 0)
(0.00274092 -0.000312352 7.2482e-19 -0.0016871 3.24398e-19 0)
(0.00276519 -0.000234045 -4.97303e-19 -0.00157177 -3.46136e-19 0)
(0.00281766 -0.000253386 -1.12655e-18 -0.00175594 -1.08874e-18 0)
(0.00286361 -0.000205541 -8.40389e-19 -0.00155742 -6.95012e-19 0)
(0.00289601 -0.000218566 -6.50223e-19 -0.00181024 -3.40561e-19 0)
(0.00295259 -0.000183522 8.31376e-19 -0.00148441 4.16639e-19 0)
(0.000623944 -0.000981027 -5.55284e-19 0.000361098 6.37928e-19 -1.56687e-34)
(0.000784561 -0.000703807 2.27441e-18 -0.000304668 1.4773e-18 0)
(0.0011345 -0.00082863 -4.18982e-19 -0.000279562 -7.35418e-19 0)
(0.00122559 -0.000558944 -2.56413e-19 -0.000678059 2.77848e-19 0)
(0.00151904 -0.000700145 -1.69358e-18 -0.000745966 -4.75263e-19 0)
(0.00158107 -0.000469454 2.3315e-19 -0.000945336 -2.26912e-19 0)
(0.00181237 -0.000617102 -3.76743e-19 -0.00107321 -6.14059e-19 0)
(0.00186225 -0.000419253 -8.35868e-19 -0.00114234 -1.8014e-19 0)
(0.00203573 -0.00055964 -8.46576e-19 -0.00130372 -2.0428e-19 0)
(0.00208548 -0.000386643 0 -0.00128905 0 0)
(0.00221046 -0.000513262 -5.60293e-19 -0.00146545 -3.67543e-19 0)
(0.00226251 -0.000360038 0 -0.00140321 0 0)
(0.00235384 -0.000470628 1.43728e-19 -0.00157769 4.20983e-19 0)
(0.00240317 -0.000336148 1.52768e-18 -0.00150333 9.4611e-19 0)
(0.0024831 -0.000426011 8.9301e-19 -0.00165637 2.07868e-19 0)
(0.00252152 -0.000317605 -1.70717e-19 -0.00160504 4.69857e-20 0)
(0.00261918 -0.000372635 -1.87819e-19 -0.00172028 4.26185e-20 0)
(0.00263674 -0.000316639 1.08041e-18 -0.0017109 5.95239e-19 0)
(0.0027802 -0.000303385 8.43928e-19 -0.00179202 6.45492e-19 0)
(0.00271015 -0.000346536 2.10399e-19 -0.00186102 3.56745e-19 0)
(0.00032132 -0.000511137 4.69902e-19 0.000265221 -6.45843e-19 -1.61477e-34)
(0.000470107 -0.000332915 -4.49994e-19 -0.000406034 -1.15316e-18 0)
(0.000856188 -0.000529431 7.08229e-19 -0.000321718 3.32402e-19 0)
(0.000940616 -0.000315432 8.79272e-19 -0.000745683 2.72445e-20 0)
(0.00124148 -0.000533683 1.48711e-18 -0.000766215 1.70078e-18 0)
(0.00130367 -0.000328267 2.84033e-18 -0.000987414 2.1735e-18 0)
(0.00153237 -0.000546423 3.00095e-18 -0.00107239 2.05699e-18 0)
(0.001585 -0.000355901 8.61135e-19 -0.00116022 1.32441e-18 0)
(0.00175339 -0.00055594 1.46219e-18 -0.0012825 1.00428e-18 0)
(0.00180718 -0.00038322 2.73187e-19 -0.00128214 3.7935e-19 0)
(0.00192142 -0.000555415 1.41811e-18 -0.00142797 9.75168e-19 0)
(0.00198764 -0.000401556 3.06485e-19 -0.00136671 3.6087e-19 0)
(0.00204686 -0.000540607 -4.7411e-19 -0.00153121 -8.50759e-19 0)
(0.00214434 -0.000402227 -3.30701e-19 -0.00143432 -3.44713e-19 0)
(0.00213917 -0.000503829 -1.82411e-19 -0.00161271 8.31613e-20 0)
(0.00229005 -0.000375594 -6.03695e-19 -0.00153405 -2.19104e-19 0)
(0.00219329 -0.000438833 -1.43705e-18 -0.00170628 -1.25379e-18 0)
(0.00237962 -0.000336477 -8.53503e-19 -0.0017675 -9.79914e-19 0)
(0.00212838 -0.000382835 1.91362e-19 -0.00187711 3.2649e-19 0)
(0.00255617 -0.000475273 1.03918e-18 -0.0016467 7.845e-19 0)
(0.00016517 -6.56446e-05 0 3.23544e-05 0 0)
(0.000278845 2.3159e-05 0 -0.000601436 0 0)
(0.000670177 -0.000238702 0 -0.000448402 0 0)
(0.000735955 -8.0357e-05 -7.73254e-19 -0.000868281 1.4114e-20 0)
(0.00101602 -0.000365247 -8.16621e-19 -0.000828648 1.32199e-20 0)
(0.00107539 -0.000187336 8.93844e-19 -0.00105304 -2.12492e-19 0)
(0.00127615 -0.000466904 3.82975e-19 -0.00108477 -5.12865e-19 0)
(0.00133658 -0.000283181 0 -0.00117916 0 0)
(0.00147957 -0.000541097 -4.32043e-19 -0.00125437 1.94928e-19 0)
(0.00154361 -0.000360655 1.81937e-18 -0.00126863 1.18297e-18 0)
(0.00164514 -0.000588504 9.859e-19 -0.00136762 1.01393e-18 0)
(0.00171153 -0.000417698 3.17373e-19 -0.00134109 9.22492e-19 0)
(0.00178557 -0.000604941 3.09761e-19 -0.00144755 -1.19281e-19 0)
(0.00185529 -0.000448083 -1.1044e-18 -0.00141461 -9.25721e-19 0)
(0.00190452 -0.000578598 6.53081e-19 -0.00151715 6.40678e-19 0)
(0.00197924 -0.000440741 1.19949e-18 -0.00150246 8.07752e-19 0)
(0.00196375 -0.000516504 3.75509e-19 -0.00161085 -1.56965e-19 0)
(0.00202914 -0.000409422 -1.28113e-18 -0.0016076 -7.51033e-19 0)
(0.00183959 -0.000502457 -1.30397e-18 -0.00178321 -7.70041e-19 0)
(0.00225649 -0.000578605 -6.24819e-19 -0.00137297 -4.8931e-19 0)
(0.000141375 0.000313713 1.19491e-19 -0.000313078 -6.27405e-19 -2.90311e-34)
(0.000203519 0.000331726 -1.12649e-18 -0.000873137 -1.00422e-18 0)
(0.000574119 1.74931e-05 -1.29709e-18 -0.000645465 -8.80531e-19 0)
(0.000609516 0.000127814 -1.18485e-18 -0.00103701 -9.61676e-19 0)
(0.000849732 -0.000207519 -1.25894e-18 -0.000927971 -2.28038e-19 0)
(0.000896615 -5.60786e-05 6.33829e-19 -0.00114404 7.41016e-21 0)
(0.00105779 -0.000379123 1.30613e-18 -0.00111269 8.24478e-19 0)
(0.00111669 -0.00020685 -7.89021e-21 -0.00121022 7.6446e-19 0)
(0.0012259 -0.000501196 -1.42166e-18 -0.00123113 -1.25804e-18 0)
(0.00129506 -0.000323227 -2.90434e-19 -0.00125294 -9.82037e-19 0)
(0.00136733 -0.000580301 -3.12431e-19 -0.00130922 1.64895e-19 0)
(0.00144609 -0.000406406 1.17421e-18 -0.00128698 7.53712e-19 0)
(0.00149123 -0.000616845 7.7057e-19 -0.00136467 4.84037e-19 0)
(0.00158091 -0.000452381 8.57814e-20 -0.00132505 4.91683e-19 0)
(0.00159901 -0.000608783 -1.80075e-18 -0.00141154 -1.27901e-18 0)
(0.00169046 -0.000460426 -2.10342e-18 -0.00137955 -1.47027e-18 0)
(0.00165151 -0.000579773 -1.29573e-19 -0.00147268 8.30809e-20 0)
(0.00170942 -0.000469033 -3.71371e-19 -0.00147902 -2.09564e-19 0)
(0.00154586 -0.000598768 -5.6815e-19 -0.00160111 -5.24524e-19 0)
(0.00189548 -0.000666777 -2.54061e-19 -0.00124976 4.76705e-20 0)
(0.000224416 0.000596638 0 -0.000733947 0 0)
(0.000224778 0.000565849 0 -0.00119707 0 0)
(0.000553233 0.000220415 1.09156e-18 -0.000891662 1.88271e-18 0)
(0.00055032 0.000291928 1.54628e-18 -0.00123882 1.82251e-18 0)
(0.000734405 -7.05081e-05 1.16586e-18 -0.00105383 7.65584e-19 0)
(0.000765347 5.59803e-05 1.0713e-18 -0.00125259 8.16328e-19 0)
(0.000872508 -0.000288759 5.75216e-19 -0.00115118 -1.152e-20 0)
(0.000931137 -0.000130784 -8.28533e-20 -0.0012476 1.95866e-19 0)
(0.000992263 -0.000443681 -8.58762e-19 -0.00120621 -8.90558e-19 0)
(0.00106991 -0.000272595 -1.64128e-18 -0.00123653 -1.34567e-18 0)
(0.00110059 -0.000547211 -1.72919e-18 -0.0012385 -1.23043e-18 0)
(0.00119086 -0.00037478 -1.31338e-18 -0.00122998 -9.13244e-19 0)
(0.00120254 -0.000604143 -2.20364e-18 -0.00126122 -1.22124e-18 0)
(0.00130123 -0.000437392 -3.90097e-19 -0.00123637 -7.04863e-19 0)
(0.00129778 -0.000616666 1.35342e-18 -0.00128502 1.31202e-18 0)
(0.00139307 -0.000465379 2.18276e-18 -0.00126755 1.48965e-18 0)
(0.0013477 -0.000606164 1.69092e-18 -0.00133058 9.68807e-19 0)
(0.00140619 -0.000495341 1.57428e-18 -0.001355 9.83277e-19 0)
(0.00124192 -0.000632756 1.43263e-18 -0.00144352 7.076e-19 0)
(0.00156059 -0.0006926 9.66116e-19 -0.00111679 6.73948e-19 0)
(0.000381262 0.000763702 -8.72363e-20 -0.00118738 6.69343e-19 -2.3415e-34)
(0.000318601 0.000709502 3.73619e-19 -0.00154308 1.29904e-18 0)
(0.000590274 0.000355026 -1.47764e-18 -0.00116251 -1.59779e-18 0)
(0.000545427 0.000400692 -1.39048e-18 -0.0014566 -1.4064e-18 0)
(0.000665225 3.41375e-05 -1.46595e-18 -0.00119399 -6.16534e-19 0)
(0.000676193 0.000140455 -5.43778e-19 -0.00137225 -5.28688e-19 0)
(0.000724685 -0.000205386 -1.15468e-18 -0.00119709 -1.07591e-18 0)
(0.000778918 -6.21549e-05 -6.59772e-19 -0.00129338 -1.12107e-18 0)
(0.000789479 -0.000376023 5.43834e-19 -0.00118445 5.71929e-19 0)
(0.000871289 -0.000215288 5.15047e-19 -0.00122663 5.72565e-19 0)
(0.000859641 -0.000492961 1.27788e-18 -0.00116809 8.55941e-19 0)
(0.000957402 -0.000327323 9.05191e-19 -0.0011777 5.44038e-19 0)
(0.00093632 -0.000563349 1.13459e-18 -0.00115634 3.69477e-19 0)
(0.00104177 -0.000401393 -3.17302e-19 -0.00115254 -1.46411e-19 0)
(0.00101792 -0.000590127 1.8788e-19 -0.00115751 2.70044e-19 0)
(0.00111625 -0.000443724 8.558e-19 -0.00116234 4.84278e-19 0)
(0.00106291 -0.000591293 5.86312e-19 -0.00118903 3.20523e-19 0)
(0.00111973 -0.000484966 1.92454e-19 -0.00123346 2.54036e-19 0)
(0.000952234 -0.000618123 2.9683e-19 -0.00128842 1.54646e-19 0)
(0.0012357 -0.000667693 -4.02905e-19 -0.000983827 -6.0202e-20 0)
(0.000575733 0.000809427 1.05063e-19 -0.00163152 -5.36629e-19 -1.38314e-34)
(0.000456907 0.000757251 -1.03598e-19 -0.00188158 -6.59239e-19 0)
(0.000664663 0.000413584 3.21729e-19 -0.00143446 2.12272e-19 0)
(0.000579532 0.00044866 -1.9803e-21 -0.00167206 2.31998e-19 0)
(0.000633649 9.89534e-05 -4.92904e-19 -0.00133782 -4.15733e-19 0)
(0.000623264 0.000192053 -7.35537e-19 -0.00149256 -8.44627e-19 0)
(0.000614317 -0.000135601 8.06688e-19 -0.00124873 7.36082e-19 0)
(0.000661027 -5.72079e-06 7.60647e-19 -0.00134265 5.73277e-19 0)
(0.000623859 -0.00030368 -1.11383e-19 -0.00117057 -4.91506e-19 0)
(0.000705646 -0.000155204 -7.88415e-19 -0.00122269 -3.79652e-19 0)
(0.0006551 -0.000421391 -1.65396e-18 -0.00110755 -8.88024e-19 0)
(0.000755974 -0.000266382 -6.07595e-19 -0.00113339 -7.3292e-19 0)
(0.000704894 -0.000496118 1.08648e-18 -0.00106295 1.02382e-18 0)
(0.000813767 -0.000343572 1.07596e-18 -0.00107798 9.46912e-19 0)
(0.00076974 -0.00053041 -5.66357e-19 -0.0010421 -6.7188e-19 0)
(0.00086974 -0.000392377 -1.13298e-18 -0.00106539 -7.47292e-19 0)
(0.000805896 -0.00053847 -1.49878e-19 -0.00105801 1.66446e-19 0)
(0.000860765 -0.00043781 4.99443e-19 -0.00111637 2.24864e-19 0)
(0.000690852 -0.000561405 5.52784e-19 -0.00113956 2.04331e-19 0)
(0.000936716 -0.000598026 8.21384e-20 -0.000859379 2.15237e-20 0)
(0.000774026 0.000741384 8.78307e-20 -0.00203005 -1.10937e-18 -6.29452e-34)
(0.000610184 0.000713131 -9.60352e-19 -0.0021881 -1.64876e-18 0)
(0.000754136 0.000396297 -5.53648e-19 -0.0016837 -4.0169e-19 0)
(0.000635952 0.000436511 -1.79652e-19 -0.00186491 -6.70366e-19 0)
(0.000626246 0.000121029 -1.74943e-20 -0.00147381 -1.94219e-19 0)
(0.000597797 0.000210066 -4.11092e-19 -0.00159965 -2.94458e-20 0)
(0.00053541 -8.33099e-05 -1.31496e-18 -0.00130373 -9.5103e-19 0)
(0.000575381 3.71507e-05 -1.17082e-18 -0.00138783 -1.13642e-18 0)
(0.000495378 -0.000231287 -1.7889e-20 -0.00116839 1.29282e-19 0)
(0.000576287 -9.42455e-05 0 -0.00122282 0 0)
(0.000491429 -0.000337579 6.27275e-19 -0.00106382 4.7619e-19 0)
(0.000593434 -0.000194147 3.71138e-19 -0.00109939 2.74419e-19 0)
(0.000516101 -0.000407841 1.79342e-19 -0.000988626 1.20313e-19 0)
(0.000625617 -0.000266435 5.84719e-19 -0.001017 2.76756e-19 0)
(0.000563602 -0.000443533 1.25242e-18 -0.000945528 6.26566e-19 0)
(0.000662136 -0.000314988 9.18146e-19 -0.000981291 5.55379e-19 0)
(0.000588884 -0.000454424 7.96501e-19 -0.00094324 4.14682e-19 0)
(0.000639842 -0.000358535 9.01341e-19 -0.00100784 5.47295e-19 0)
(0.000470912 -0.00046969 6.40792e-19 -0.00100289 2.58744e-19 0)
(0.000681562 -0.000489458 5.25691e-19 -0.000746235 3.36225e-19 0)
(0.000945647 0.000574903 -1.90841e-20 -0.00235681 1.21426e-18 -5.08303e-34)
(0.000749239 0.000590748 4.76009e-19 -0.00244806 1.25668e-18 0)
(0.000832576 0.00031087 7.46645e-19 -0.00189143 1.19178e-18 0)
(0.000697066 0.000373144 5.58428e-19 -0.00201596 9.61731e-19 0)
(0.000625952 0.000104412 3.90099e-19 -0.00159164 8.76701e-20 0)
(0.000589627 0.000199992 3.91546e-19 -0.00168186 3.82779e-19 0)
(0.00048154 -4.78944e-05 2.93423e-19 -0.00135833 2.85882e-19 0)
(0.000519424 6.75787e-05 1.52126e-19 -0.00142542 3.69655e-19 0)
(0.00040435 -0.000161583 -7.79428e-19 -0.00117763 -7.07522e-19 0)
(0.000485504 -3.55433e-05 -5.27002e-19 -0.00122783 -5.39997e-19 0)
(0.000372084 -0.000246183 -8.2654e-19 -0.00103835 -4.46281e-19 0)
(0.000474565 -0.000116866 -2.63843e-19 -0.00107901 -2.33977e-19 0)
(0.000375247 -0.000304518 -5.823e-20 -0.000935838 1.37174e-19 0)
(0.00048286 -0.000178717 3.99391e-19 -0.00097586 2.94264e-19 0)
(0.000407046 -0.000336955 -2.67623e-19 -0.00087008 -2.84091e-19 0)
(0.000498634 -0.00022259 -2.61825e-19 -0.000919053 -1.91737e-19 0)
(0.000422483 -0.000348338 -6.02343e-19 -0.000844747 -3.22568e-19 0)
(0.000462688 -0.000259694 -2.73812e-19 -0.000915645 -1.52147e-19 0)
(0.000307142 -0.000354383 4.76293e-20 -0.000873645 2.16916e-19 0)
(0.000479335 -0.000356074 -5.24479e-20 -0.000646969 -3.14549e-20 0)
(0.0010659 0.000329015 1.37017e-20 -0.00259326 -2.81926e-19 1.12559e-35)
(0.000877042 0.000423111 0 -0.0026054 0 0)
(0.000886103 0.00017787 -3.85701e-19 -0.00203637 -9.2891e-19 0)
(0.000750071 0.000282716 -2.17035e-19 -0.00212944 -9.77586e-19 0)
(0.000641357 6.41628e-05 1.12628e-19 -0.00166942 1.77592e-19 0)
(0.000598525 0.00016715 -2.24312e-20 -0.00175665 2.44772e-20 0)
(0.000470394 -2.55237e-05 3.49675e-19 -0.00139298 4.66371e-19 0)
(0.000496881 7.51953e-05 3.35515e-19 -0.00146787 6.22466e-19 0)
(0.000365886 -9.78196e-05 4.16609e-19 -0.00118317 5.09455e-19 0)
(0.000433478 2.36242e-06 1.59533e-19 -0.0012416 2.41177e-19 0)
(0.000307022 -0.000153155 2.00329e-19 -0.00102237 1.43548e-19 0)
(0.000396997 -5.50512e-05 9.53079e-20 -0.00106727 1.31938e-19 0)
(0.000287428 -0.000192425 -4.81065e-19 -0.000901971 -4.50692e-19 0)
(0.000384581 -9.87428e-05 -3.33643e-19 -0.000941768 -3.89259e-19 0)
(0.000300515 -0.000216715 1.14276e-21 -0.000816796 3.27753e-20 0)
(0.000381612 -0.000129596 6.90163e-21 -0.000864567 2.46645e-20 0)
(0.000303982 -0.000228085 -8.87714e-20 -0.000762449 -7.01928e-20 0)
(0.000330365 -0.00015367 -8.41549e-20 -0.000837784 -1.07511e-19 0)
(0.000201452 -0.00022928 -3.55669e-19 -0.000743864 -2.81568e-19 0)
(0.000309297 -0.000217307 2.77408e-20 -0.000603364 2.24589e-20 0)
(0.00118083 3.4799e-05 -3.20186e-22 -0.00265517 -1.17412e-22 -4.99357e-40)
(0.000923513 0.000209578 -2.11263e-19 -0.00270057 4.66478e-19 0)
(0.00103382 3.7802e-05 -7.21776e-20 -0.00202367 5.40894e-19 0)
(0.000701247 0.000144748 1.76203e-19 -0.00226114 2.74269e-19 0)
(0.000744841 1.1012e-05 4.29507e-20 -0.0016497 -3.21029e-19 0)
(0.000521262 9.02078e-05 5.55714e-20 -0.00186024 -3.01121e-19 0)
(0.000529756 -2.17103e-05 -1.36272e-19 -0.00137567 -4.78953e-19 0)
(0.000405487 4.98432e-05 -1.80663e-19 -0.00153139 -6.0125e-19 0)
(0.000388631 -4.92224e-05 -3.52108e-20 -0.0011648 -1.14543e-19 0)
(0.000330251 1.97718e-05 8.17647e-21 -0.00127501 -2.1231e-19 0)
(0.000301891 -6.81453e-05 -1.50284e-19 -0.0010012 -3.46425e-19 0)
(0.000283087 -5.46655e-06 -1.31475e-19 -0.00108407 -3.9598e-19 0)
(0.000261117 -8.09615e-05 -5.3742e-20 -0.000877178 -8.30243e-20 0)
(0.000260485 -2.75078e-05 -5.81948e-20 -0.000947604 -3.37487e-19 0)
(0.00025757 -9.01861e-05 -1.89388e-19 -0.000783224 -3.36185e-19 0)
(0.000251197 -4.11863e-05 -1.10893e-19 -0.000846182 -4.42384e-19 0)
(0.000247191 -9.35852e-05 -1.88076e-19 -0.000703755 -2.97664e-19 0)
(0.000216183 -3.64421e-05 -1.09895e-19 -0.000750971 -3.85729e-19 0)
(0.000146714 -8.30013e-05 -1.47132e-19 -0.000623845 -2.08269e-19 0)
(0.000193476 -4.44479e-05 -4.54973e-20 -0.000528371 -1.58448e-19 0)
(0.000111422 -4.08372e-05 2.17938e-20 -0.000151144 -2.67361e-20 0)
(0.000243829 -0.000143178 -3.32237e-20 -0.000155284 -1.36189e-20 0)
(0.00024222 -0.000247938 1.08122e-19 -0.000162291 3.16255e-20 0)
(0.000343692 -0.000322887 -3.56531e-20 -0.000173235 -1.86992e-20 0)
(0.000379443 -0.000431121 -5.85829e-20 -0.00024918 -5.04445e-20 0)
(0.000488475 -0.000500365 4.58731e-20 -0.000235561 -2.97777e-20 0)
(0.000606214 -0.000602757 -5.63548e-20 -0.000347284 -2.49777e-20 0)
(0.000674248 -0.000669226 2.44878e-19 -0.000344548 3.55138e-20 0)
(0.000894192 -0.000740708 -8.75222e-20 -0.000475743 -1.2587e-20 0)
(0.000902216 -0.0008124 -4.63976e-19 -0.000490621 -1.02742e-19 0)
(0.00122131 -0.00083167 3.14297e-19 -0.000634161 -6.2901e-20 0)
(0.0011719 -0.000914583 2.82652e-19 -0.000660644 -1.44661e-19 0)
(0.00157127 -0.00086869 1.71083e-19 -0.000812437 -8.83942e-20 0)
(0.00147688 -0.000969416 1.04847e-19 -0.000841355 -1.9296e-19 0)
(0.00192786 -0.000847299 1.32896e-19 -0.000994189 6.47289e-20 0)
(0.00179758 -0.00097067 2.77168e-19 -0.00102059 -1.51901e-20 0)
(0.00227237 -0.000766702 -2.61174e-19 -0.00114968 5.76518e-20 0)
(0.00205407 -0.000882944 -7.76046e-20 -0.00123321 1.68996e-19 0)
(0.00254582 -0.000637074 5.25979e-19 -0.00127001 6.77145e-20 0)
(0.00236136 -0.000761515 1.99446e-19 -0.00152741 -1.61286e-19 0)
(9.33202e-05 -2.7965e-05 -7.58796e-21 -0.000164947 -3.89363e-20 0)
(0.000256025 -0.000151171 -4.18956e-20 -0.000167577 -2.25097e-20 0)
(0.000197422 -0.00023438 6.79206e-20 -0.000155348 1.79277e-20 0)
(0.000356589 -0.00033326 -4.63261e-20 -0.00021128 -1.35146e-20 0)
(0.000334511 -0.000424241 1.06374e-19 -0.000218745 2.56893e-20 0)
(0.000489303 -0.00050655 -8.06405e-20 -0.000296337 -2.97602e-20 0)
(0.000522805 -0.000596372 -9.83606e-20 -0.000313289 -2.38101e-20 0)
(0.000659133 -0.000660114 0 -0.000413317 0 0)
(0.000765158 -0.000739343 1.21245e-19 -0.000431243 2.36568e-20 0)
(0.000864944 -0.000784291 1.36035e-19 -0.000558329 2.57405e-20 0)
(0.00104829 -0.000842229 -2.99225e-19 -0.000572218 -4.87612e-20 0)
(0.00110022 -0.000869254 -1.33803e-19 -0.000724857 1.07837e-20 0)
(0.00135526 -0.000899671 3.55478e-19 -0.000730599 1.33501e-19 0)
(0.00135008 -0.000906484 -4.49659e-20 -0.000909077 -1.25242e-20 0)
(0.00167298 -0.000910903 -1.99268e-19 -0.000894837 -8.71137e-20 0)
(0.00160523 -0.000895327 -3.33767e-19 -0.0010973 -1.84687e-19 0)
(0.00199516 -0.000876744 -2.17045e-19 -0.00104988 -1.08354e-19 0)
(0.00190057 -0.000855428 2.06665e-19 -0.00123762 1.21097e-19 0)
(0.00227236 -0.00079796 3.9522e-19 -0.00121446 2.42231e-19 0)
(0.00218888 -0.000758249 2.97184e-19 -0.00138791 1.91826e-19 0)
(0.000252741 -3.45571e-05 -1.84208e-20 -0.000186125 -2.65534e-20 0)
(0.000390455 -0.000144391 7.55423e-21 -0.000189841 -7.78478e-21 0)
(0.000327828 -0.000215421 -2.55004e-21 -0.000202648 -1.16459e-20 0)
(0.000485449 -0.000317234 1.06117e-19 -0.000238492 1.69895e-20 0)
(0.000456601 -0.000385417 4.8962e-20 -0.000261044 1.97101e-21 0)
(0.000608879 -0.000475554 -6.46508e-20 -0.000323128 -3.05395e-20 0)
(0.000622754 -0.00053457 -3.23134e-20 -0.000347198 4.56425e-21 0)
(0.000762764 -0.000611034 1.55476e-19 -0.000430329 5.0847e-20 0)
(0.000826072 -0.000655792 0 -0.000452042 0 0)
(0.000944565 -0.000717021 -1.28779e-19 -0.000558454 -3.99586e-20 0)
(0.00106214 -0.000743436 -2.4245e-19 -0.000571775 -7.49713e-20 0)
(0.00114779 -0.000788302 1.12364e-19 -0.000704218 3.9816e-20 0)
(0.00131892 -0.000792758 2.40208e-19 -0.000702862 7.67443e-20 0)
(0.00136996 -0.000824834 1.36361e-19 -0.000856962 4.18123e-20 0)