/*--------------------------------*- C++ -*----------------------------------*\
| =========                 |                                                 |
| \\      /  F ield         | OpenFOAM: The Open Source CFD Toolbox           |
|  \\    /   O peration     | Version:  v2012                                 |
|   \\  /    A nd           | Website:  www.openfoam.com                      |
|    \\/     M anipulation  |                                                 |
\*---------------------------------------------------------------------------*/
FoamFile
{
    version     2.0;
    format      ascii;
    class       volScalarField;
    location    "10";
    object      epsilonEq;
}
// * * * * * * * * * * * * * * * * * * * * * * * * * * * * * * * * * * * * * //

dimensions      [0 0 0 0 0 0 0];


internalField   nonuniform List<scalar> 
2000
(
0.022166
0.0122841
0.0153378
0.0117023
0.0126933
0.0106136
0.0106715
0.00930162
0.00888202
0.00783131
0.00718633
0.00633302
0.0056675
0.00503454
0.00443977
0.00405984
0.00353173
0.00339131
0.00295581
0.00297092
0.0109827
0.012192
0.010877
0.011182
0.0100538
0.00981029
0.00858528
0.00815085
0.0070383
0.0065607
0.00572855
0.00528888
0.00473592
0.00440559
0.00402283
0.00384748
0.0035241
0.00350123
0.00314635
0.00320242
0.0138398
0.0110492
0.0103597
0.00932818
0.00815709
0.00739946
0.00634243
0.0057347
0.005124
0.00468575
0.00442633
0.00416432
0.00404957
0.00394793
0.00383545
0.0038678
0.00367983
0.00379959
0.00351964
0.00365686
0.0100848
0.00848228
0.00701531
0.00614857
0.00504612
0.00438401
0.00396445
0.00351716
0.00358421
0.00330258
0.0035473
0.00336367
0.00362342
0.00349716
0.00370357
0.0036221
0.00376268
0.00371345
0.0037102
0.00367126
0.00633416
0.0049184
0.00391773
0.0033139
0.00304301
0.00288759
0.00292265
0.00284833
0.00294632
0.00288388
0.00300661
0.00294361
0.00313586
0.00303162
0.0032938
0.00319324
0.00340896
0.00330308
0.00344471
0.00334746
0.0031754
0.00288269
0.00276574
0.00270395
0.00265773
0.00263069
0.00265458
0.00263392
0.00271671
0.0026951
0.00280621
0.00278594
0.00289463
0.00287768
0.00296449
0.00294577
0.00300773
0.00299233
0.00310898
0.0030779
0.00273815
0.00249403
0.00247575
0.00236018
0.00239143
0.00234938
0.00243583
0.00242253
0.00253721
0.00253123
0.00264841
0.00264541
0.00274865
0.00274753
0.00283151
0.00282994
0.00289781
0.00289538
0.0029428
0.00292847
0.0023003
0.00202672
0.00211011
0.00198591
0.00211784
0.00207258
0.00223638
0.00221728
0.00238284
0.00236879
0.00251949
0.00250411
0.00263434
0.00261528
0.00272633
0.00270185
0.00279894
0.00276573
0.002855
0.00280517
0.00176018
0.00152871
0.00169871
0.00161765
0.00183296
0.00180749
0.00203421
0.00201246
0.00222511
0.00219582
0.00238435
0.00234747
0.00250997
0.00246551
0.00260562
0.00254971
0.0026802
0.0026002
0.00275275
0.00261663
0.00118914
0.00103996
0.00128967
0.00128757
0.00155888
0.00157046
0.00182866
0.0018169
0.00204803
0.00201634
0.00221743
0.00217579
0.00234831
0.00230814
0.00245554
0.00242981
0.00255967
0.00255531
0.00268321
0.00268429
0.000622593
0.000635694
0.000931642
0.00104151
0.0013223
0.00138003
0.00163805
0.00164348
0.00187321
0.001846
0.00204398
0.0020021
0.00216489
0.00213089
0.00224977
0.0022641
0.00231344
0.00243422
0.00235594
0.00250622
0.000126336
0.000520169
0.000706052
0.000931887
0.00114719
0.00124776
0.00146721
0.00148974
0.00169926
0.00167871
0.00186974
0.00183141
0.00199624
0.001963
0.00208941
0.00207967
0.00215146
0.00215682
0.00217069
0.00221903
0.000450932
0.000763505
0.000704818
0.000972505
0.00105428
0.00118283
0.00132752
0.00136486
0.00153208
0.00151776
0.00168444
0.0016471
0.00179662
0.00175926
0.00187595
0.00185339
0.0019249
0.0019204
0.0019441
0.00198409
0.000899798
0.0010981
0.000879437
0.00111055
0.0010411
0.0011781
0.00121857
0.00127131
0.00137064
0.00136945
0.00149169
0.0014632
0.00158443
0.00154984
0.00165248
0.00162792
0.00169735
0.00169376
0.00171529
0.00174669
0.00129231
0.00141176
0.00110839
0.00128155
0.00108851
0.00121608
0.00114548
0.0012108
0.00122664
0.00124214
0.00130581
0.00129143
0.00137414
0.00134951
0.00142968
0.00141188
0.00146913
0.00146999
0.00148172
0.00149786
0.00161907
0.00167718
0.00132766
0.001446
0.00116778
0.0012749
0.00110735
0.00117894
0.00110882
0.00114075
0.00113805
0.00114033
0.00117651
0.00116535
0.00121557
0.00120738
0.00124568
0.00125134
0.00124876
0.00124613
0.00187859
0.00188808
0.00151209
0.00158324
0.00125277
0.00133415
0.00109651
0.00116615
0.00102194
0.0010664
0.000997305
0.00101682
0.00100066
0.00100552
0.00101866
0.00102171
0.00103526
0.0010447
0.00102451
0.000999712
0.00207301
0.00204781
0.00165131
0.00168298
0.00132566
0.00138049
0.00110311
0.00116537
0.0009672
0.0010205
0.000890638
0.000929162
0.000855301
0.000882541
0.000847875
0.000869279
0.000846693
0.000863704
0.000817228
0.00077138
0.00220605
0.00214781
0.00174245
0.00175552
0.00137943
0.00142662
0.0011193
0.00118281
0.000941718
0.00100392
0.000822936
0.000876729
0.000750259
0.000796176
0.000712997
0.000752306
0.000686884
0.000717601
0.000632974
0.000591795
0.00226894
0.00218802
0.00179635
0.00179542
0.00141507
0.00144933
0.00113594
0.00118096
0.000935177
0.000979109
0.000791545
0.000833285
0.000694849
0.000734821
0.000634531
0.000665589
0.000579889
0.00058766
0.00048208
0.000434492
0.000159309
0.000285134
0.000370428
0.000480944
0.000617598
0.000718102
0.000891585
0.000977349
0.00117327
0.00124317
0.00145194
0.00150457
0.00172167
0.00175764
0.00197489
0.00199266
0.00219711
0.00217173
0.00236126
0.00242721
0.000154424
0.000301915
0.000339005
0.000507859
0.000586083
0.00074297
0.000843864
0.000985442
0.00110379
0.00122712
0.0013588
0.00146063
0.001604
0.00167883
0.00183616
0.00187937
0.00205303
0.00207539
0.00224187
0.00225884
0.000257462
0.000380155
0.000396759
0.000561833
0.000611541
0.000774696
0.000838486
0.000992263
0.00106465
0.00120627
0.0012859
0.001412
0.00149755
0.00160917
0.00169524
0.00180757
0.00188117
0.00200175
0.00205853
0.00215086
0.000353205
0.000458137
0.000461617
0.000612226
0.000642357
0.00079946
0.000840141
0.00099379
0.00103879
0.00118654
0.00123298
0.00137604
0.00142138
0.00156549
0.00160796
0.00175472
0.00179676
0.00192848
0.00197624
0.00206316
0.000421239
0.000517287
0.000509955
0.0006498
0.000666659
0.000815667
0.000841962
0.000991743
0.0010215
0.00117024
0.00120099
0.00134959
0.00138148
0.00152873
0.00156465
0.0017007
0.00174309
0.00185457
0.00189866
0.00197776
0.000477446
0.00056729
0.000550988
0.000682357
0.000690515
0.000830742
0.000849912
0.000992068
0.00101672
0.00115864
0.00118738
0.00132676
0.00136048
0.00149184
0.00153145
0.00164689
0.00169021
0.00178486
0.00182656
0.00189952
0.000535099
0.000617792
0.000595664
0.000717105
0.000720087
0.000849552
0.000866334
0.000996963
0.00102213
0.00115094
0.00118245
0.00130605
0.00134298
0.00145675
0.00149767
0.00159719
0.00163953
0.00172228
0.00176279
0.00182976
0.000597627
0.000672094
0.000646916
0.000756496
0.000756303
0.00087325
0.000888949
0.00100628
0.00103235
0.00114666
0.00117991
0.00128814
0.00132629
0.00142523
0.00146625
0.00155295
0.00159475
0.00166722
0.00170744
0.00176669
0.000663547
0.000729634
0.000702982
0.000800085
0.000797331
0.000901321
0.000915262
0.00101952
0.00104483
0.00114579
0.00117875
0.0012736
0.00131148
0.0013976
0.00143829
0.00151341
0.00155509
0.00161765
0.00165854
0.00170938
0.000730333
0.000788533
0.000761068
0.000846315
0.000840954
0.000932656
0.000943831
0.00103606
0.00105901
0.00114819
0.00117927
0.00126256
0.00129899
0.00137398
0.00141359
0.00147844
0.00151929
0.00157333
0.00161346
0.00165858
0.000795654
0.000846705
0.000818662
0.000893295
0.000885177
0.000965832
0.000973531
0.00105505
0.00107453
0.00115339
0.00118129
0.0012547
0.00128835
0.00135409
0.00139138
0.00144783
0.00148705
0.00153337
0.00157306
0.00161093
0.000857471
0.000902118
0.000873588
0.000939023
0.000928079
0.000999161
0.00100297
0.00107523
0.00109053
0.00116052
0.00118435
0.00124932
0.0012792
0.00133703
0.00137095
0.00142021
0.00145653
0.00149671
0.00153396
0.00156697
0.000913903
0.000952781
0.000923812
0.000981431
0.000967715
0.00103073
0.00103052
0.00109495
0.00110569
0.00116818
0.00118739
0.0012452
0.00127077
0.00132184
0.00135199
0.00139493
0.00142809
0.00146229
0.00149721
0.00152466
0.000963105
0.00099667
0.000967329
0.00101839
0.0010021
0.00105845
0.00105434
0.00111233
0.00111842
0.0011747
0.00118897
0.00124083
0.0012615
0.00130708
0.00133262
0.00137091
0.00139995
0.00143062
0.00146204
0.00148559
0.00100316
0.00103162
0.00100211
0.00104766
0.00102926
0.00108011
0.00107257
0.00112525
0.0011269
0.00117819
0.00118739
0.00123468
0.0012501
0.00129147
0.00131203
0.00134629
0.00137096
0.00139761
0.00142541
0.00144533
0.00103189
0.00105508
0.00102606
0.00106667
0.00104732
0.00109327
0.00108341
0.00113142
0.00112937
0.00117644
0.00118089
0.00122455
0.00123479
0.00127304
0.00128859
0.00131984
0.00134007
0.00136351
0.00138719
0.0014041
0.00104646
0.0010635
0.00103688
0.001072
0.00105419
0.00109483
0.0010846
0.00112772
0.00112354
0.0011661
0.00116742
0.00120708
0.00121374
0.00124883
0.00126055
0.00128965
0.001306
0.00132745
0.00134802
0.00136132
0.00104309
0.00105154
0.00103187
0.00105926
0.00104688
0.00108016
0.00107283
0.0011089
0.00110617
0.00114201
0.00114426
0.00117782
0.00118521
0.00121523
0.00122722
0.00125323
0.00126866
0.00128989
0.00130805
0.00132115
0.00101933
0.00101463
0.00100977
0.00102671
0.00102364
0.00104578
0.00104659
0.00107146
0.00107629
0.00110225
0.00111116
0.00113706
0.00115
0.00117447
0.00119135
0.00121308
0.00123278
0.00125136
0.0012708
0.00128664
0.000984702
0.000978542
0.00098379
0.0009854
0.000997625
0.00100266
0.00101898
0.00102755
0.00104684
0.00105955
0.0010803
0.00109715
0.0011184
0.00113853
0.00116039
0.00118178
0.00120526
0.00122429
0.00124955
0.0012599
0.00247759
0.00243348
0.00248914
0.00246803
0.00249748
0.00248573
0.00250344
0.00249633
0.00251624
0.00250692
0.00253616
0.00251953
0.00256042
0.0025341
0.0025863
0.00255013
0.00261202
0.0025672
0.00263678
0.00258518
0.00266055
0.0026044
0.00268398
0.00262558
0.00270824
0.00264991
0.00273496
0.00267894
0.00276615
0.00271455
0.00280424
0.00275921
0.00285241
0.00281644
0.00291422
0.00288969
0.00298658
0.00297471
0.0031113
0.00314575
0.00240007
0.00231072
0.00241926
0.00232992
0.00242638
0.00234784
0.00243228
0.00236931
0.00244238
0.00239334
0.00245719
0.00241806
0.00247583
0.00244253
0.00249736
0.00246668
0.00252112
0.00249094
0.00254683
0.00251601
0.0025746
0.00254278
0.00260496
0.00257225
0.00263883
0.00260558
0.00267734
0.00264398
0.00272178
0.00268873
0.00277361
0.00274128
0.00283467
0.00280336
0.00290618
0.002876
0.00298223
0.0029575
0.00309081
0.0030827
0.00219466
0.00220326
0.00223075
0.00222998
0.00226496
0.0022542
0.00229803
0.00227884
0.00232986
0.00230451
0.00236044
0.00233124
0.0023903
0.002359
0.00242017
0.00238785
0.00245084
0.00241793
0.00248297
0.00244941
0.0025171
0.00248261
0.00255372
0.00251829
0.00259373
0.00255736
0.00263783
0.00260067
0.00268661
0.0026489
0.00274055
0.00270259
0.00280013
0.00276201
0.00286557
0.00282715
0.00293504
0.00289782
0.00299756
0.00297903
0.00209468
0.00210705
0.00212144
0.00213239
0.00215101
0.00215884
0.00218455
0.0021874
0.00222053
0.00221741
0.00225744
0.00224819
0.00229461
0.00227962
0.00233195
0.00231186
0.00236968
0.00234514
0.00240803
0.0023792
0.00244738
0.00241591
0.00248841
0.00245451
0.00253177
0.00249564
0.00257805
0.00253985
0.00262763
0.00258753
0.00268073
0.0026389
0.00273749
0.00269404
0.00279833
0.00275354
0.00286378
0.00281682
0.00292663
0.00289545
0.00200577
0.00201854
0.00203234
0.00204443
0.00206091
0.00207175
0.00209354
0.00210106
0.00212923
0.00213226
0.00216677
0.00216492
0.00220533
0.00219914
0.0022449
0.0022357
0.00228602
0.00227551
0.00232867
0.00231012
0.00236863
0.00234456
0.00241092
0.00238178
0.00245514
0.00242165
0.00250144
0.00246424
0.00255019
0.00250949
0.00260122
0.00255723
0.00265471
0.00260762
0.00271136
0.00266122
0.00277157
0.00271715
0.002827
0.00278433
0.0019246
0.00194038
0.00195147
0.0019667
0.00197931
0.0019957
0.00201134
0.0020257
0.00204661
0.00205764
0.00208438
0.00209001
0.00212384
0.00212173
0.00216458
0.00215178
0.0022061
0.00217913
0.00224832
0.00222581
0.00228835
0.00226558
0.00232934
0.00230435
0.00237202
0.00234316
0.0024151
0.00238157
0.00245963
0.00242287
0.00250691
0.00246573
0.00255589
0.00251013
0.00260698
0.00255622
0.00265926
0.00260257
0.00270584
0.00265702
0.0018549
0.00187256
0.00188308
0.0018974
0.00190731
0.00192229
0.00193991
0.00195327
0.00197527
0.00198588
0.00201186
0.00201951
0.00204897
0.00205461
0.00208607
0.00208588
0.00212316
0.00212069
0.00216555
0.00215499
0.00220637
0.002189
0.00224563
0.0022231
0.00228435
0.00225792
0.00232517
0.00229381
0.00236555
0.00233055
0.00240726
0.00236929
0.00245007
0.00240349
0.00249312
0.00244435
0.00253617
0.00247803
0.0025721
0.00252198
0.00179244
0.00180839
0.00181925
0.00183393
0.00184516
0.0018602
0.00187491
0.00188839
0.0019074
0.00191723
0.00194065
0.00194551
0.00197421
0.00198171
0.00201805
0.00201997
0.0020525
0.00205062
0.00208751
0.00208084
0.00212325
0.00211108
0.00215927
0.00214114
0.00219524
0.0021705
0.00223043
0.00219852
0.00226435
0.00222518
0.00229742
0.00226089
0.00234254
0.0022961
0.00237368
0.0023272
0.00241323
0.00235678
0.00243816
0.00238346
0.00173721
0.00175045
0.00176351
0.00177461
0.00178815
0.00179986
0.00181565
0.00182912
0.00184584
0.00185799
0.00187754
0.00188698
0.00191095
0.00191811
0.00194623
0.00194776
0.0019797
0.00197578
0.00201194
0.00200351
0.00204395
0.00203116
0.00207566
0.00205848
0.00210671
0.00208521
0.00213681
0.00211127
0.0021664
0.0021368
0.00219651
0.00216156
0.00222695
0.00218569
0.00225459
0.00220754
0.00228054
0.00222725
0.00230042
0.00224946
0.00168596
0.00169891
0.00171141
0.00172075
0.00173457
0.00174153
0.00176584
0.00177405
0.0017973
0.00179792
0.00182219
0.001822
0.00185483
0.0018559
0.00188735
0.00188173
0.00191289
0.00190679
0.00193951
0.00193153
0.00196662
0.00195555
0.00199349
0.00197856
0.00201973
0.00200051
0.00204529
0.00202161
0.00207035
0.00204214
0.00209475
0.0020614
0.00211746
0.00207865
0.00213783
0.00209339
0.00215492
0.00210461
0.0021668
0.00211814
0.00163899
0.0016494
0.00166289
0.00167151
0.00168459
0.0016939
0.00170739
0.00171807
0.00173493
0.00174227
0.00176135
0.00176656
0.0017874
0.00179169
0.00181633
0.00181555
0.00184308
0.00183816
0.00186817
0.00185962
0.00189199
0.00187991
0.00191468
0.00189909
0.00193636
0.00191717
0.00195703
0.00193408
0.00197659
0.00194963
0.00199469
0.00196341
0.00201084
0.00197491
0.00202449
0.00198354
0.00203481
0.00198843
0.00204072
0.00199434
0.00159401
0.00160326
0.0016171
0.00162392
0.00163825
0.00164473
0.00166028
0.00166606
0.00168318
0.0016879
0.0017069
0.00171059
0.0017307
0.00173338
0.0017542
0.00175252
0.00177677
0.00177254
0.00179841
0.00179103
0.00181879
0.00180809
0.00183785
0.00182382
0.00185566
0.00183824
0.00187212
0.00185117
0.001887
0.00186235
0.00189999
0.00187145
0.00191069
0.001878
0.00191853
0.00188136
0.00192271
0.00188075
0.00192293
0.00188008
0.00155095
0.00155906
0.00157279
0.00157974
0.0015926
0.00159852
0.001612
0.00161602
0.00163218
0.00163359
0.00165249
0.00165087
0.00167273
0.00167234
0.00169751
0.00169422
0.00171573
0.00171143
0.00173319
0.00172625
0.00174979
0.00173981
0.0017653
0.00175235
0.00177956
0.00176365
0.00179226
0.00177332
0.00180313
0.00178102
0.00181186
0.00178637
0.00181807
0.00178891
0.00182115
0.00178789
0.00182023
0.00178261
0.00181568
0.00177618
0.0015098
0.00151481
0.00152962
0.0015313
0.00154705
0.00154792
0.00156432
0.00156594
0.00158222
0.00158386
0.00160067
0.00160138
0.00161977
0.00161775
0.00163927
0.00163275
0.00165702
0.00164878
0.00167285
0.00166233
0.00168524
0.00167458
0.00169713
0.00168537
0.00170806
0.00169442
0.00171755
0.00170151
0.00172522
0.0017064
0.00173069
0.00170881
0.00173352
0.00170828
0.00173302
0.00170393
0.00172818
0.00169499
0.00171985
0.00168363
0.00146633
0.00147159
0.00148351
0.00148729
0.00150026
0.00150257
0.00151697
0.0015179
0.00153353
0.00153335
0.00154983
0.00154889
0.00156562
0.00156377
0.00158004
0.00157726
0.00159433
0.00159084
0.00160907
0.00160277
0.00162166
0.00161308
0.00163247
0.00162189
0.00164156
0.00162917
0.00164892
0.00163473
0.00165436
0.00163823
0.00165758
0.00163927
0.00165813
0.00163723
0.00165519
0.00163106
0.00164761
0.0016199
0.00163663
0.00160484
0.0014227
0.00142708
0.00143901
0.00144171
0.00145449
0.00145611
0.00147001
0.00147012
0.00148519
0.00148392
0.0015002
0.00149826
0.0015147
0.00151146
0.00152841
0.00152355
0.00154076
0.00153508
0.00155231
0.00154624
0.00156301
0.00155542
0.00157243
0.00156346
0.00158046
0.00157035
0.0015869
0.0015757
0.00159143
0.00157904
0.0015937
0.0015799
0.00159327
0.0015776
0.00158924
0.00157091
0.00158035
0.00155888
0.00156805
0.00154159
0.00137854
0.00138182
0.00139447
0.0013976
0.00140983
0.0014115
0.00142437
0.00142394
0.00143805
0.00143571
0.00145467
0.00145205
0.00147018
0.00146302
0.00148164
0.0014735
0.00149354
0.00148358
0.00150416
0.00149382
0.00151389
0.0015037
0.00152159
0.0015125
0.00152859
0.00151994
0.00153441
0.0015257
0.00153857
0.00152952
0.00154072
0.00153117
0.00154039
0.00153012
0.00153648
0.0015242
0.00152772
0.00151297
0.00151586
0.00149539
0.00133683
0.00133829
0.00135605
0.00135689
0.00137463
0.00137132
0.00138781
0.00138593
0.00140078
0.00139843
0.0014126
0.00141021
0.00142543
0.00142113
0.00143676
0.00143165
0.00144703
0.00144192
0.00145822
0.00145296
0.00146946
0.00146287
0.00147895
0.00147176
0.00148688
0.0014796
0.00149322
0.00148609
0.00149784
0.00149088
0.00150061
0.00149365
0.00150202
0.00149562
0.00150009
0.00149218
0.00149221
0.00148396
0.00148234
0.00147178
0.00129999
0.00130973
0.00131908
0.00133168
0.00133886
0.00134472
0.00135842
0.00136105
0.0013762
0.0013728
0.00138756
0.00138499
0.00139938
0.00139671
0.00141161
0.00140912
0.00142332
0.00142156
0.00143428
0.00143233
0.00144455
0.00144202
0.00145389
0.00145081
0.00146202
0.00145859
0.00146865
0.00146522
0.00147352
0.00147064
0.0014765
0.00147477
0.00147739
0.00147817
0.00147733
0.00147937
0.00147434
0.00147425
0.00146506
0.00146612
0.00127844
0.00127816
0.00130203
0.00131306
0.00132795
0.00132996
0.00134039
0.00134748
0.00135959
0.00137209
0.00137586
0.00138459
0.00138712
0.00139734
0.00140368
0.00141809
0.00141884
0.00142803
0.00142968
0.00143848
0.00143982
0.00144838
0.00144888
0.00145704
0.00145651
0.00146415
0.00146261
0.00146962
0.00146722
0.00147344
0.00147048
0.00147571
0.00147226
0.00147639
0.00147218
0.00147555
0.00146961
0.00147346
0.00146642
0.00147088
0.0027278
0.00278812
0.00262166
0.00271582
0.00254246
0.00264706
0.00247455
0.0025788
0.00240995
0.00250933
0.00234537
0.00243857
0.00227963
0.00236622
0.00221141
0.00229144
0.00213982
0.00221369
0.0020642
0.00213228
0.00198391
0.00204641
0.0018983
0.00195526
0.00180677
0.00185807
0.00170887
0.00175424
0.00160452
0.00164361
0.00149452
0.00152698
0.00138149
0.00140692
0.00127009
0.00128728
0.00116294
0.00117094
0.00106399
0.000985931
0.00295093
0.00298797
0.00284564
0.00296372
0.00275921
0.00291895
0.00267517
0.00285697
0.00259021
0.0027845
0.00250765
0.00270783
0.00242472
0.00262618
0.00234152
0.00254099
0.00225601
0.00245285
0.00216767
0.00236144
0.00207609
0.00226644
0.00198071
0.00216726
0.00188092
0.00206323
0.0017763
0.00195378
0.00166693
0.00183875
0.00155383
0.00171882
0.00143926
0.00159571
0.00132494
0.00147011
0.00120722
0.00134185
0.00109194
0.00116371
0.0033804
0.00342392
0.00323141
0.00336764
0.00310884
0.00326858
0.00298704
0.00317552
0.00290478
0.00308761
0.00281099
0.00298744
0.00271696
0.00291294
0.00262083
0.00282259
0.00252302
0.00272487
0.00242549
0.00262449
0.00232633
0.00252229
0.00222455
0.00241734
0.00211915
0.00230846
0.00200943
0.00219493
0.00189526
0.00207671
0.00177744
0.00195479
0.00165751
0.00183075
0.00153594
0.00170515
0.00141168
0.00158154
0.00130127
0.00143601
0.00365647
0.00355856
0.0035408
0.00355062
0.00345482
0.00350921
0.00334599
0.00343731
0.00323612
0.00333283
0.00309624
0.00322829
0.00296678
0.00311706
0.00286923
0.00299865
0.00276702
0.0029236
0.00266862
0.0028305
0.00257059
0.00273133
0.0024704
0.00262875
0.00236703
0.00252273
0.00226004
0.00241315
0.00214972
0.00230056
0.00203727
0.00218651
0.00192463
0.00207327
0.00181374
0.00196368
0.00170849
0.00186599
0.00162532
0.0017685
0.00348528
0.0033254
0.00343992
0.00336308
0.00342443
0.0033728
0.00338073
0.00335318
0.00331698
0.00330983
0.00324688
0.00325657
0.00314488
0.00317588
0.00300018
0.00307022
0.00292822
0.00299246
0.00285146
0.00293491
0.00277029
0.00286094
0.0026834
0.00277758
0.00259141
0.00268779
0.00249531
0.00259355
0.00239642
0.00249695
0.00229671
0.0024007
0.00219882
0.00230834
0.00210626
0.00222513
0.00202545
0.00216153
0.00196914
0.00211343
0.00315066
0.00307995
0.00315446
0.00310799
0.00317251
0.00312817
0.00317411
0.00313371
0.00315855
0.00312253
0.00312484
0.00309301
0.00307812
0.00304792
0.00301669
0.00300619
0.00298339
0.00298729
0.0029418
0.00295396
0.0028874
0.00290741
0.00282298
0.00285007
0.00275103
0.00278468
0.00267392
0.00271411
0.0025942
0.00264155
0.00251484
0.00257076
0.00243941
0.00250647
0.00237275
0.00245561
0.00232253
0.00242865
0.00229628
0.00242542
0.00296138
0.00294109
0.00297392
0.00295013
0.00298255
0.00295589
0.00298744
0.00295816
0.00298969
0.00295734
0.00298994
0.00295467
0.0029885
0.00295165
0.00298374
0.00294925
0.00297074
0.00293988
0.00294776
0.00292147
0.00291494
0.00289409
0.00287347
0.00285879
0.00282524
0.00281735
0.0027726
0.00277228
0.00271835
0.00272677
0.00266575
0.00268482
0.00261882
0.00265161
0.00258317
0.00263471
0.00256675
0.00264319
0.00257148
0.00267761
0.00287319
0.00283692
0.00289642
0.00285233
0.00291223
0.00285959
0.00292337
0.00286305
0.00293
0.00286536
0.00293231
0.00286778
0.00293092
0.00287025
0.00292615
0.00287151
0.00291764
0.00286942
0.00290485
0.00286242
0.00288747
0.00284995
0.00286565
0.00283246
0.00284014
0.00281134
0.00281237
0.00278882
0.00278449
0.00276792
0.00275938
0.00275247
0.00274095
0.0027476
0.00273501
0.00276076
0.00274902
0.00279887
0.00277991
0.00286232
0.00279503
0.00268474
0.00284416
0.00270696
0.00285696
0.00273744
0.00285524
0.00276448
0.00285122
0.00278469
0.00284876
0.00279813
0.00284837
0.00280608
0.00284928
0.00280976
0.00285014
0.00281001
0.0028496
0.00280732
0.0028467
0.00280216
0.00284114
0.00279524
0.00283346
0.00278777
0.00282501
0.00278166
0.00281788
0.00277951
0.00281488
0.00278472
0.00281977
0.00280195
0.00283811
0.00283766
0.00287553
0.0028953
0.00292318
0.00297345
0.00276938
0.00275393
0.00274729
0.00275293
0.00274383
0.00272287
0.00274627
0.00269721
0.00275371
0.00268377
0.00276384
0.00268057
0.00277425
0.00268365
0.00278341
0.00268971
0.00279063
0.00269661
0.00279593
0.00270323
0.00279971
0.00270938
0.00280271
0.00271557
0.00280603
0.00272304
0.00281113
0.00273366
0.00281991
0.00274997
0.00283471
0.00277522
0.00285872
0.00281393
0.00289667
0.0028717
0.00295165
0.00294749
0.00301658
0.00308088
)
;

boundaryField
{
    back
    {
        type            empty;
    }
    front
    {
        type            empty;
    }
    left
    {
        type            symmetry;
    }
    hole
    {
        type            calculated;
        value           nonuniform List<scalar> 
20
(
0.0231439
0.0113964
0.01417
0.0105147
0.00670499
0.00331651
0.00275351
0.00232812
0.00179532
0.00122535
0.000653176
0.000104657
0.000409783
0.000871179
0.00127219
0.00160676
0.00187359
0.0020751
0.00221348
0.00226993
)
;
    }
    down
    {
        type            symmetry;
    }
    right
    {
        type            calculated;
        value           nonuniform List<scalar> 
30
(
0.000981454
0.000993466
0.00100888
0.00103178
0.00106197
0.00109768
0.00113713
0.0011787
0.00122162
0.00126684
0.00129309
0.00130593
0.00132383
0.00134233
0.00135769
0.00137547
0.00139147
0.00140322
0.00141634
0.00142823
0.00143836
0.00144692
0.00145403
0.00145969
0.00146394
0.00146682
0.00146867
0.00147025
0.00147155
0.00147169
)
;
    }
    up
    {
        type            calculated;
        value           nonuniform List<scalar> 
30
(
0.00316286
0.00309136
0.00298708
0.00290228
0.0027901
0.00266101
0.00252336
0.00238583
0.00225012
0.00211788
0.00199328
0.00187849
0.00177437
0.00168185
0.00160324
0.00154034
0.00149463
0.00147236
0.00146581
0.00147082
0.00100938
0.00113542
0.00141767
0.00175834
0.00210902
0.00242535
0.00267935
0.00286412
0.00297561
0.00309092
)
;
    }
}


// ************************************************************************* //
