/*--------------------------------*- C++ -*----------------------------------*\
| =========                 |                                                 |
| \\      /  F ield         | OpenFOAM: The Open Source CFD Toolbox           |
|  \\    /   O peration     | Version:  v2012                                 |
|   \\  /    A nd           | Website:  www.openfoam.com                      |
|    \\/     M anipulation  |                                                 |
\*---------------------------------------------------------------------------*/
FoamFile
{
    version     2.0;
    format      ascii;
    class       volScalarField;
    location    "10";
    object      sigmaEq;
}
// * * * * * * * * * * * * * * * * * * * * * * * * * * * * * * * * * * * * * //

dimensions      [1 -1 -2 0 0 0 0];


internalField   nonuniform List<scalar> 
2000
(
2.43e+08
2.43e+08
2.43e+08
2.43e+08
2.43e+08
2.43e+08
2.43e+08
2.43e+08
2.43e+08
2.43e+08
2.43e+08
2.43e+08
2.43e+08
2.43e+08
2.43e+08
2.43e+08
2.43e+08
2.43e+08
2.38738e+08
2.39959e+08
2.43e+08
2.43e+08
2.43e+08
2.43e+08
2.43e+08
2.43e+08
2.43e+08
2.43e+08
2.43e+08
2.43e+08
2.43e+08
2.43e+08
2.43e+08
2.43e+08
2.43e+08
2.43e+08
2.43e+08
2.43e+08
2.43e+08
2.43e+08
2.43e+08
2.43e+08
2.43e+08
2.43e+08
2.43e+08
2.43e+08
2.43e+08
2.43e+08
2.43e+08
2.43e+08
2.43e+08
2.43e+08
2.43e+08
2.43e+08
2.43e+08
2.43e+08
2.43e+08
2.43e+08
2.43e+08
2.43e+08
2.43e+08
2.43e+08
2.43e+08
2.43e+08
2.43e+08
2.43e+08
2.43e+08
2.43e+08
2.43e+08
2.43e+08
2.43e+08
2.43e+08
2.43e+08
2.43e+08
2.43e+08
2.43e+08
2.43e+08
2.43e+08
2.43e+08
2.43e+08
2.43e+08
2.43e+08
2.43e+08
2.43e+08
2.43e+08
2.33228e+08
2.3606e+08
2.30058e+08
2.37972e+08
2.32929e+08
2.42842e+08
2.37753e+08
2.43e+08
2.43e+08
2.43e+08
2.43e+08
2.43e+08
2.43e+08
2.43e+08
2.43e+08
2.43e+08
2.32833e+08
2.23387e+08
2.18396e+08
2.14663e+08
2.12479e+08
2.14409e+08
2.1274e+08
2.19427e+08
2.17681e+08
2.26655e+08
2.25018e+08
2.33797e+08
2.32428e+08
2.3944e+08
2.37928e+08
2.42932e+08
2.41688e+08
2.43e+08
2.43e+08
2.21158e+08
2.01441e+08
1.99965e+08
1.9063e+08
1.93154e+08
1.89758e+08
1.9674e+08
1.95666e+08
2.04929e+08
2.04445e+08
2.1391e+08
2.13668e+08
2.22006e+08
2.21916e+08
2.28699e+08
2.28572e+08
2.34054e+08
2.33858e+08
2.37688e+08
2.3653e+08
1.85794e+08
1.63697e+08
1.70432e+08
1.60401e+08
1.71056e+08
1.67401e+08
1.80631e+08
1.79088e+08
1.9246e+08
1.91326e+08
2.03497e+08
2.02255e+08
2.12773e+08
2.11234e+08
2.20204e+08
2.18226e+08
2.26068e+08
2.23386e+08
2.30596e+08
2.26571e+08
1.42168e+08
1.23473e+08
1.37204e+08
1.30657e+08
1.48047e+08
1.4599e+08
1.64301e+08
1.62545e+08
1.7972e+08
1.77355e+08
1.92582e+08
1.89604e+08
2.02729e+08
1.99138e+08
2.10454e+08
2.05938e+08
2.16477e+08
2.10016e+08
2.22338e+08
2.11343e+08
9.60461e+07
8.39969e+07
1.04165e+08
1.03996e+08
1.25909e+08
1.26845e+08
1.47699e+08
1.4675e+08
1.65418e+08
1.62858e+08
1.791e+08
1.75737e+08
1.89672e+08
1.86427e+08
1.98332e+08
1.96254e+08
2.06742e+08
2.0639e+08
2.16721e+08
2.16808e+08
5.02864e+07
5.13445e+07
7.5248e+07
8.41223e+07
1.06801e+08
1.11464e+08
1.32304e+08
1.32742e+08
1.51298e+08
1.491e+08
1.65091e+08
1.61708e+08
1.74856e+08
1.7211e+08
1.81712e+08
1.8287e+08
1.86855e+08
1.9661e+08
1.90287e+08
2.02425e+08
1.0204e+07
4.20137e+07
5.70273e+07
7.52678e+07
9.26574e+07
1.00781e+08
1.18506e+08
1.20325e+08
1.37248e+08
1.35588e+08
1.51017e+08
1.47921e+08
1.61235e+08
1.5855e+08
1.6876e+08
1.67973e+08
1.73772e+08
1.74204e+08
1.75325e+08
1.7923e+08
3.64214e+07
6.16677e+07
5.69276e+07
7.85485e+07
8.51534e+07
9.55363e+07
1.07223e+08
1.10239e+08
1.23745e+08
1.22588e+08
1.36051e+08
1.33035e+08
1.45112e+08
1.42094e+08
1.51519e+08
1.49697e+08
1.55473e+08
1.55109e+08
1.57023e+08
1.60254e+08
7.2676e+07
8.8693e+07
7.10315e+07
8.9698e+07
8.40892e+07
9.5154e+07
9.8423e+07
1.02683e+08
1.10705e+08
1.10609e+08
1.20483e+08
1.18181e+08
1.27973e+08
1.2518e+08
1.33469e+08
1.31486e+08
1.37094e+08
1.36804e+08
1.38543e+08
1.41079e+08
1.04379e+08
1.14027e+08
8.95235e+07
1.0351e+08
8.7918e+07
9.82216e+07
9.25194e+07
9.7795e+07
9.90751e+07
1.00327e+08
1.0547e+08
1.04308e+08
1.10988e+08
1.08999e+08
1.15474e+08
1.14036e+08
1.18661e+08
1.1873e+08
1.19678e+08
1.20981e+08
1.30771e+08
1.35465e+08
1.07234e+08
1.16792e+08
9.43206e+07
1.02973e+08
8.94394e+07
9.52224e+07
8.95589e+07
9.21374e+07
9.1919e+07
9.21032e+07
9.5026e+07
9.41247e+07
9.81807e+07
9.75195e+07
1.00612e+08
1.0107e+08
1.00862e+08
1.00649e+08
1.51732e+08
1.52499e+08
1.22131e+08
1.27877e+08
1.01185e+08
1.07758e+08
8.85641e+07
9.41891e+07
8.25414e+07
8.61327e+07
8.05516e+07
8.21276e+07
8.08226e+07
8.12149e+07
8.22761e+07
8.25228e+07
8.36168e+07
8.43793e+07
8.27488e+07
8.0746e+07
1.67435e+08
1.654e+08
1.33375e+08
1.35933e+08
1.07073e+08
1.11502e+08
8.90974e+07
9.41263e+07
7.812e+07
8.24251e+07
7.19361e+07
7.50477e+07
6.9082e+07
7.12822e+07
6.84822e+07
7.0211e+07
6.83867e+07
6.97607e+07
6.60069e+07
6.23038e+07
1.78181e+08
1.73477e+08
1.40737e+08
1.41792e+08
1.11415e+08
1.15227e+08
9.04051e+07
9.55349e+07
7.60618e+07
8.10861e+07
6.64679e+07
7.08127e+07
6.05979e+07
6.43065e+07
5.75882e+07
6.07632e+07
5.54791e+07
5.79601e+07
5.11248e+07
4.77988e+07
1.83261e+08
1.76725e+08
1.45089e+08
1.45015e+08
1.14294e+08
1.17062e+08
9.17487e+07
9.53848e+07
7.55335e+07
7.90819e+07
6.39325e+07
6.73038e+07
5.61224e+07
5.93509e+07
5.12506e+07
5.37591e+07
4.68372e+07
4.74648e+07
3.89372e+07
3.50936e+07
1.28672e+07
2.303e+07
2.99192e+07
3.88455e+07
4.98829e+07
5.80005e+07
7.20126e+07
7.89397e+07
9.47641e+07
1.0041e+08
1.17272e+08
1.21523e+08
1.39058e+08
1.41963e+08
1.59511e+08
1.60946e+08
1.77459e+08
1.75409e+08
1.90717e+08
1.96044e+08
1.24727e+07
2.43854e+07
2.73812e+07
4.10194e+07
4.73375e+07
6.00091e+07
6.81583e+07
7.95934e+07
8.91522e+07
9.91138e+07
1.09749e+08
1.17974e+08
1.29554e+08
1.35598e+08
1.48305e+08
1.51796e+08
1.65822e+08
1.67628e+08
1.81074e+08
1.82445e+08
2.0795e+07
3.07048e+07
3.20459e+07
4.53788e+07
4.93937e+07
6.25716e+07
6.77239e+07
8.01443e+07
8.59912e+07
9.74292e+07
1.03861e+08
1.14046e+08
1.20956e+08
1.29971e+08
1.36923e+08
1.45996e+08
1.51941e+08
1.6168e+08
1.66266e+08
1.73723e+08
2.85281e+07
3.70034e+07
3.72844e+07
4.9449e+07
5.18827e+07
6.45718e+07
6.78575e+07
8.02677e+07
8.39019e+07
9.58357e+07
9.95868e+07
1.11142e+08
1.14804e+08
1.26444e+08
1.29874e+08
1.41727e+08
1.45123e+08
1.55762e+08
1.5962e+08
1.66639e+08
3.40232e+07
4.17809e+07
4.11887e+07
5.24838e+07
5.38456e+07
6.58808e+07
6.80046e+07
8.01023e+07
8.25059e+07
9.45192e+07
9.7003e+07
1.09006e+08
1.11581e+08
1.23474e+08
1.26376e+08
1.37365e+08
1.40788e+08
1.49792e+08
1.53353e+08
1.59742e+08
3.8563e+07
4.58196e+07
4.45029e+07
5.51135e+07
5.57723e+07
6.70984e+07
6.86467e+07
8.01286e+07
8.21195e+07
9.35825e+07
9.59037e+07
1.07161e+08
1.09885e+08
1.20495e+08
1.23694e+08
1.33018e+08
1.36517e+08
1.44162e+08
1.4753e+08
1.53423e+08
4.32196e+07
4.98986e+07
4.81113e+07
5.792e+07
5.81609e+07
6.86177e+07
6.99731e+07
8.05239e+07
8.25563e+07
9.29607e+07
9.55055e+07
1.05489e+08
1.08472e+08
1.17661e+08
1.20965e+08
1.29003e+08
1.32424e+08
1.39107e+08
1.42379e+08
1.47788e+08
4.82699e+07
5.42845e+07
5.22509e+07
6.11016e+07
6.1086e+07
7.05317e+07
7.17998e+07
8.12764e+07
8.33821e+07
9.26151e+07
9.53001e+07
1.04042e+08
1.07124e+08
1.15115e+08
1.18428e+08
1.25431e+08
1.28807e+08
1.3466e+08
1.37909e+08
1.42695e+08
5.35942e+07
5.89319e+07
5.67794e+07
6.46222e+07
6.43998e+07
7.2799e+07
7.3925e+07
8.23455e+07
8.43897e+07
9.25447e+07
9.52067e+07
1.02868e+08
1.05927e+08
1.12883e+08
1.1617e+08
1.22237e+08
1.25603e+08
1.30657e+08
1.33959e+08
1.38065e+08
5.89884e+07
6.36892e+07
6.14709e+07
6.83562e+07
6.79232e+07
7.53299e+07
7.62325e+07
8.36821e+07
8.55358e+07
9.27385e+07
9.52484e+07
1.01976e+08
1.04919e+08
1.10975e+08
1.14175e+08
1.19413e+08
1.22712e+08
1.27077e+08
1.30318e+08
1.33963e+08
6.42643e+07
6.83877e+07
6.61227e+07
7.21507e+07
7.14951e+07
7.80095e+07
7.86313e+07
8.52157e+07
8.6789e+07
9.31586e+07
9.54116e+07
1.01341e+08
1.04059e+08
1.09369e+08
1.12381e+08
1.1694e+08
1.20108e+08
1.23849e+08
1.27055e+08
1.30113e+08
6.92573e+07
7.28634e+07
7.0559e+07
7.58441e+07
7.49603e+07
8.07014e+07
8.10095e+07
8.68453e+07
8.8081e+07
9.37344e+07
9.5659e+07
1.00907e+08
1.0332e+08
1.07991e+08
1.10731e+08
1.1471e+08
1.17643e+08
1.20888e+08
1.23897e+08
1.26563e+08
7.38152e+07
7.69554e+07
7.46156e+07
7.92694e+07
7.81616e+07
8.3251e+07
8.32339e+07
8.84385e+07
8.93053e+07
9.4353e+07
9.59046e+07
1.00574e+08
1.02639e+08
1.06764e+08
1.09199e+08
1.12667e+08
1.15346e+08
1.18108e+08
1.20929e+08
1.23146e+08
7.77892e+07
8.05002e+07
7.81304e+07
8.22544e+07
8.09385e+07
8.54901e+07
8.51582e+07
8.98417e+07
9.03337e+07
9.48793e+07
9.60318e+07
1.00221e+08
1.01891e+08
1.05572e+08
1.07635e+08
1.10728e+08
1.13073e+08
1.1555e+08
1.18088e+08
1.1999e+08
8.10246e+07
8.33233e+07
8.09396e+07
8.46184e+07
8.31326e+07
8.72393e+07
8.66307e+07
9.08853e+07
9.10189e+07
9.51617e+07
9.59044e+07
9.97239e+07
1.0097e+08
1.04311e+08
1.05972e+08
1.08739e+08
1.10731e+08
1.12884e+08
1.15129e+08
1.16738e+08
8.33452e+07
8.52182e+07
8.28737e+07
8.61545e+07
8.45914e+07
8.83022e+07
8.75058e+07
9.13839e+07
9.12181e+07
9.502e+07
9.53798e+07
9.89063e+07
9.97329e+07
1.02823e+08
1.04078e+08
1.06602e+08
1.08237e+08
1.10129e+08
1.12042e+08
1.13408e+08
8.45218e+07
8.58981e+07
8.37476e+07
8.65845e+07
8.51457e+07
8.84287e+07
8.76024e+07
9.10855e+07
9.07475e+07
9.41851e+07
9.42917e+07
9.74945e+07
9.80326e+07
1.00867e+08
1.01813e+08
1.04164e+08
1.05485e+08
1.07217e+08
1.08878e+08
1.09952e+08
8.42495e+07
8.4932e+07
8.33433e+07
8.55552e+07
8.4556e+07
8.72438e+07
8.66517e+07
8.95653e+07
8.93443e+07
9.22395e+07
9.24213e+07
9.51313e+07
9.57283e+07
9.81535e+07
9.91215e+07
1.01222e+08
1.02469e+08
1.04183e+08
1.0565e+08
1.06708e+08
8.23303e+07
8.19508e+07
8.15583e+07
8.29267e+07
8.26784e+07
8.4467e+07
8.45321e+07
8.65407e+07
8.69312e+07
8.90283e+07
8.97479e+07
9.18391e+07
9.28849e+07
9.48614e+07
9.62246e+07
9.79794e+07
9.95707e+07
1.01072e+08
1.02642e+08
1.03921e+08
7.95336e+07
7.90361e+07
7.94599e+07
7.959e+07
8.05774e+07
8.09839e+07
8.23019e+07
8.29943e+07
8.45521e+07
8.55793e+07
8.72548e+07
8.86158e+07
9.03327e+07
9.19585e+07
9.3724e+07
9.54511e+07
9.73481e+07
9.8885e+07
1.00925e+08
1.01761e+08
2.00113e+08
1.96551e+08
2.01046e+08
1.99341e+08
2.01719e+08
2.00771e+08
2.02201e+08
2.01626e+08
2.03235e+08
2.02482e+08
2.04844e+08
2.035e+08
2.06803e+08
2.04678e+08
2.08893e+08
2.05972e+08
2.10971e+08
2.0735e+08
2.12971e+08
2.08803e+08
2.14891e+08
2.10355e+08
2.16783e+08
2.12066e+08
2.18742e+08
2.14031e+08
2.209e+08
2.16376e+08
2.2342e+08
2.19252e+08
2.26496e+08
2.22859e+08
2.30387e+08
2.27482e+08
2.35379e+08
2.33398e+08
2.41223e+08
2.40265e+08
2.43e+08
2.43e+08
1.93852e+08
1.86635e+08
1.95402e+08
1.88186e+08
1.95977e+08
1.89634e+08
1.96453e+08
1.91367e+08
1.97269e+08
1.93308e+08
1.98465e+08
1.95305e+08
1.99971e+08
1.97282e+08
2.0171e+08
1.99232e+08
2.03629e+08
2.01191e+08
2.05705e+08
2.03217e+08
2.07948e+08
2.05378e+08
2.10401e+08
2.07759e+08
2.13136e+08
2.10451e+08
2.16247e+08
2.13552e+08
2.19836e+08
2.17167e+08
2.24023e+08
2.21411e+08
2.28954e+08
2.26426e+08
2.3473e+08
2.32293e+08
2.40872e+08
2.38875e+08
2.43e+08
2.43e+08
1.77261e+08
1.77955e+08
1.80176e+08
1.80114e+08
1.82939e+08
1.8207e+08
1.8561e+08
1.8406e+08
1.88181e+08
1.86134e+08
1.90651e+08
1.88292e+08
1.93063e+08
1.90535e+08
1.95476e+08
1.92865e+08
1.97952e+08
1.95294e+08
2.00547e+08
1.97837e+08
2.03304e+08
2.00518e+08
2.06262e+08
2.034e+08
2.09493e+08
2.06556e+08
2.13056e+08
2.10054e+08
2.16996e+08
2.1395e+08
2.21352e+08
2.18286e+08
2.26164e+08
2.23085e+08
2.3145e+08
2.28347e+08
2.37061e+08
2.34055e+08
2.4211e+08
2.40614e+08
1.69186e+08
1.70185e+08
1.71347e+08
1.72232e+08
1.73735e+08
1.74368e+08
1.76445e+08
1.76674e+08
1.79351e+08
1.79098e+08
1.82332e+08
1.81585e+08
1.85334e+08
1.84123e+08
1.8835e+08
1.86727e+08
1.91397e+08
1.89415e+08
1.94495e+08
1.92167e+08
1.97673e+08
1.95131e+08
2.00987e+08
1.98249e+08
2.04489e+08
2.01571e+08
2.08227e+08
2.05142e+08
2.12231e+08
2.08993e+08
2.1652e+08
2.13142e+08
2.21105e+08
2.17596e+08
2.26019e+08
2.22402e+08
2.31305e+08
2.27513e+08
2.36382e+08
2.33863e+08
1.62005e+08
1.63036e+08
1.64151e+08
1.65127e+08
1.66458e+08
1.67334e+08
1.69093e+08
1.69701e+08
1.71976e+08
1.72221e+08
1.75008e+08
1.74859e+08
1.78123e+08
1.77623e+08
1.81319e+08
1.80576e+08
1.8464e+08
1.83791e+08
1.88085e+08
1.86586e+08
1.91312e+08
1.89369e+08
1.94728e+08
1.92375e+08
1.983e+08
1.95594e+08
2.02039e+08
1.99035e+08
2.05977e+08
2.0269e+08
2.10098e+08
2.06546e+08
2.14419e+08
2.10616e+08
2.18995e+08
2.14945e+08
2.23857e+08
2.19462e+08
2.28335e+08
2.24888e+08
1.55449e+08
1.56723e+08
1.57619e+08
1.58849e+08
1.59867e+08
1.61191e+08
1.62454e+08
1.63614e+08
1.65303e+08
1.66194e+08
1.68354e+08
1.68808e+08
1.71541e+08
1.7137e+08
1.74831e+08
1.73798e+08
1.78185e+08
1.76006e+08
1.81595e+08
1.79777e+08
1.84828e+08
1.82989e+08
1.88139e+08
1.8612e+08
1.91586e+08
1.89255e+08
1.95066e+08
1.92358e+08
1.98662e+08
1.95693e+08
2.02481e+08
1.99155e+08
2.06437e+08
2.02741e+08
2.10564e+08
2.06464e+08
2.14786e+08
2.10208e+08
2.18548e+08
2.14605e+08
1.49819e+08
1.51245e+08
1.52095e+08
1.53252e+08
1.54052e+08
1.55262e+08
1.56685e+08
1.57764e+08
1.59541e+08
1.60398e+08
1.62496e+08
1.63114e+08
1.65494e+08
1.65949e+08
1.6849e+08
1.68475e+08
1.71486e+08
1.71286e+08
1.74909e+08
1.74057e+08
1.78207e+08
1.76804e+08
1.81378e+08
1.79558e+08
1.84506e+08
1.8237e+08
1.87802e+08
1.85269e+08
1.91063e+08
1.88237e+08
1.94433e+08
1.91366e+08
1.9789e+08
1.94128e+08
2.01367e+08
1.97429e+08
2.04844e+08
2.00149e+08
2.07747e+08
2.03698e+08
1.44774e+08
1.46062e+08
1.46939e+08
1.48125e+08
1.49032e+08
1.50247e+08
1.51435e+08
1.52524e+08
1.54059e+08
1.54853e+08
1.56745e+08
1.57138e+08
1.59456e+08
1.60061e+08
1.62997e+08
1.63151e+08
1.65779e+08
1.65627e+08
1.68607e+08
1.68068e+08
1.71493e+08
1.7051e+08
1.74403e+08
1.72938e+08
1.77308e+08
1.7531e+08
1.8015e+08
1.77573e+08
1.8289e+08
1.79726e+08
1.85561e+08
1.82611e+08
1.89205e+08
1.85454e+08
1.9172e+08
1.87967e+08
1.94915e+08
1.90356e+08
1.96929e+08
1.9251e+08
1.40313e+08
1.41383e+08
1.42437e+08
1.43334e+08
1.44428e+08
1.45373e+08
1.46649e+08
1.47737e+08
1.49087e+08
1.50069e+08
1.51648e+08
1.5241e+08
1.54346e+08
1.54924e+08
1.57196e+08
1.57319e+08
1.59899e+08
1.59582e+08
1.62503e+08
1.61822e+08
1.65088e+08
1.64055e+08
1.6765e+08
1.66262e+08
1.70157e+08
1.68421e+08
1.72588e+08
1.70526e+08
1.74978e+08
1.72587e+08
1.7741e+08
1.74588e+08
1.79869e+08
1.76536e+08
1.82101e+08
1.78301e+08
1.84197e+08
1.79894e+08
1.85803e+08
1.81687e+08
1.36174e+08
1.37219e+08
1.38229e+08
1.38983e+08
1.401e+08
1.40662e+08
1.42625e+08
1.43288e+08
1.45167e+08
1.45216e+08
1.47177e+08
1.47161e+08
1.49813e+08
1.49899e+08
1.5244e+08
1.51986e+08
1.54503e+08
1.5401e+08
1.56653e+08
1.56008e+08
1.58842e+08
1.57948e+08
1.61013e+08
1.59807e+08
1.63132e+08
1.6158e+08
1.65197e+08
1.63284e+08
1.67221e+08
1.64942e+08
1.69191e+08
1.66497e+08
1.71026e+08
1.67891e+08
1.72671e+08
1.69082e+08
1.74051e+08
1.69988e+08
1.75011e+08
1.7108e+08
1.3238e+08
1.33221e+08
1.3431e+08
1.35007e+08
1.36063e+08
1.36815e+08
1.37904e+08
1.38767e+08
1.40129e+08
1.40722e+08
1.42263e+08
1.42683e+08
1.44367e+08
1.44714e+08
1.46704e+08
1.46641e+08
1.48864e+08
1.48467e+08
1.5089e+08
1.502e+08
1.52814e+08
1.51839e+08
1.54647e+08
1.53388e+08
1.56398e+08
1.54848e+08
1.58068e+08
1.56214e+08
1.59647e+08
1.5747e+08
1.61109e+08
1.58583e+08
1.62414e+08
1.59512e+08
1.63516e+08
1.60209e+08
1.6435e+08
1.60604e+08
1.64827e+08
1.61081e+08
1.28747e+08
1.29494e+08
1.30612e+08
1.31163e+08
1.3232e+08
1.32843e+08
1.34099e+08
1.34566e+08
1.35949e+08
1.3633e+08
1.37865e+08
1.38163e+08
1.39787e+08
1.40004e+08
1.41686e+08
1.41549e+08
1.43509e+08
1.43167e+08
1.45256e+08
1.4466e+08
1.46903e+08
1.46038e+08
1.48442e+08
1.47309e+08
1.4988e+08
1.48473e+08
1.51209e+08
1.49517e+08
1.52412e+08
1.50421e+08
1.53461e+08
1.51155e+08
1.54325e+08
1.51685e+08
1.54959e+08
1.51956e+08
1.55296e+08
1.51907e+08
1.55314e+08
1.51853e+08
1.25269e+08
1.25924e+08
1.27033e+08
1.27594e+08
1.28633e+08
1.29111e+08
1.302e+08
1.30525e+08
1.3183e+08
1.31944e+08
1.33471e+08
1.3334e+08
1.35105e+08
1.35074e+08
1.37106e+08
1.36841e+08
1.38578e+08
1.38231e+08
1.39988e+08
1.39428e+08
1.41329e+08
1.40523e+08
1.42582e+08
1.41536e+08
1.43734e+08
1.42448e+08
1.4476e+08
1.4323e+08
1.45637e+08
1.43851e+08
1.46342e+08
1.44283e+08
1.46844e+08
1.44489e+08
1.47093e+08
1.44407e+08
1.47019e+08
1.4398e+08
1.46651e+08
1.43461e+08
1.21946e+08
1.2235e+08
1.23546e+08
1.23682e+08
1.24954e+08
1.25024e+08
1.26349e+08
1.2648e+08
1.27795e+08
1.27927e+08
1.29285e+08
1.29342e+08
1.30827e+08
1.30664e+08
1.32402e+08
1.31876e+08
1.33836e+08
1.33171e+08
1.35115e+08
1.34265e+08
1.36116e+08
1.35254e+08
1.37076e+08
1.36126e+08
1.37959e+08
1.36857e+08
1.38726e+08
1.37429e+08
1.39345e+08
1.37825e+08
1.39786e+08
1.3802e+08
1.40015e+08
1.37977e+08
1.39974e+08
1.37625e+08
1.39583e+08
1.36903e+08
1.38911e+08
1.35986e+08
1.18434e+08
1.18859e+08
1.19822e+08
1.20127e+08
1.21175e+08
1.21362e+08
1.22524e+08
1.226e+08
1.23862e+08
1.23847e+08
1.25178e+08
1.25103e+08
1.26454e+08
1.26304e+08
1.27619e+08
1.27394e+08
1.28773e+08
1.28491e+08
1.29963e+08
1.29454e+08
1.3098e+08
1.30287e+08
1.31853e+08
1.30999e+08
1.32587e+08
1.31587e+08
1.33182e+08
1.32036e+08
1.33622e+08
1.32319e+08
1.33882e+08
1.32403e+08
1.33926e+08
1.32238e+08
1.33688e+08
1.31739e+08
1.33076e+08
1.30838e+08
1.3219e+08
1.29622e+08
1.14911e+08
1.15264e+08
1.16228e+08
1.16446e+08
1.17478e+08
1.17609e+08
1.18731e+08
1.1874e+08
1.19958e+08
1.19855e+08
1.2117e+08
1.21013e+08
1.22341e+08
1.2208e+08
1.23449e+08
1.23056e+08
1.24446e+08
1.23987e+08
1.25379e+08
1.24889e+08
1.26243e+08
1.2563e+08
1.27004e+08
1.2628e+08
1.27652e+08
1.26836e+08
1.28173e+08
1.27268e+08
1.28538e+08
1.27538e+08
1.28722e+08
1.27607e+08
1.28687e+08
1.27421e+08
1.28361e+08
1.26881e+08
1.27644e+08
1.2591e+08
1.2665e+08
1.24513e+08
1.11344e+08
1.11608e+08
1.12631e+08
1.12883e+08
1.13871e+08
1.14006e+08
1.15045e+08
1.15011e+08
1.1615e+08
1.15961e+08
1.17493e+08
1.17281e+08
1.18746e+08
1.18167e+08
1.19671e+08
1.19013e+08
1.20632e+08
1.19828e+08
1.2149e+08
1.20654e+08
1.22276e+08
1.21452e+08
1.22898e+08
1.22164e+08
1.23463e+08
1.22765e+08
1.23933e+08
1.23229e+08
1.2427e+08
1.23538e+08
1.24443e+08
1.23671e+08
1.24416e+08
1.23587e+08
1.241e+08
1.23108e+08
1.23393e+08
1.22202e+08
1.22435e+08
1.20782e+08
1.07975e+08
1.08092e+08
1.09527e+08
1.09595e+08
1.11028e+08
1.1076e+08
1.12092e+08
1.1194e+08
1.1314e+08
1.1295e+08
1.14095e+08
1.13901e+08
1.15131e+08
1.14783e+08
1.16046e+08
1.15633e+08
1.16876e+08
1.16463e+08
1.17779e+08
1.17354e+08
1.18687e+08
1.18155e+08
1.19454e+08
1.18873e+08
1.20094e+08
1.19506e+08
1.20606e+08
1.2003e+08
1.20979e+08
1.20417e+08
1.21203e+08
1.20641e+08
1.21317e+08
1.208e+08
1.21161e+08
1.20522e+08
1.20525e+08
1.19858e+08
1.19727e+08
1.18875e+08
1.04999e+08
1.05786e+08
1.06541e+08
1.07558e+08
1.08139e+08
1.08612e+08
1.09719e+08
1.09931e+08
1.11155e+08
1.1088e+08
1.12073e+08
1.11865e+08
1.13027e+08
1.12811e+08
1.14015e+08
1.13813e+08
1.14961e+08
1.14818e+08
1.15846e+08
1.15688e+08
1.16675e+08
1.16471e+08
1.1743e+08
1.17181e+08
1.18086e+08
1.17809e+08
1.18621e+08
1.18345e+08
1.19015e+08
1.18782e+08
1.19256e+08
1.19116e+08
1.19327e+08
1.1939e+08
1.19323e+08
1.19488e+08
1.19081e+08
1.19074e+08
1.18332e+08
1.18417e+08
1.03259e+08
1.03236e+08
1.05164e+08
1.06055e+08
1.07257e+08
1.0742e+08
1.08262e+08
1.08835e+08
1.09813e+08
1.10823e+08
1.11128e+08
1.11832e+08
1.12036e+08
1.12862e+08
1.13374e+08
1.14538e+08
1.14598e+08
1.15341e+08
1.15474e+08
1.16185e+08
1.16294e+08
1.16985e+08
1.17025e+08
1.17684e+08
1.17641e+08
1.18258e+08
1.18134e+08
1.187e+08
1.18506e+08
1.19009e+08
1.1877e+08
1.19192e+08
1.18914e+08
1.19247e+08
1.18907e+08
1.19179e+08
1.18699e+08
1.1901e+08
1.18441e+08
1.18802e+08
2.20322e+08
2.25194e+08
2.1175e+08
2.19355e+08
2.05353e+08
2.13801e+08
1.99867e+08
2.08288e+08
1.94649e+08
2.02677e+08
1.89434e+08
1.96962e+08
1.84124e+08
1.91118e+08
1.78614e+08
1.85078e+08
1.72831e+08
1.78798e+08
1.66724e+08
1.72222e+08
1.60239e+08
1.65287e+08
1.53325e+08
1.57925e+08
1.45931e+08
1.50075e+08
1.38024e+08
1.41689e+08
1.29596e+08
1.32753e+08
1.20711e+08
1.23333e+08
1.11582e+08
1.13636e+08
1.02584e+08
1.03973e+08
9.39295e+07
9.4576e+07
8.59381e+07
7.96329e+07
2.38344e+08
2.41336e+08
2.2984e+08
2.39378e+08
2.22859e+08
2.35761e+08
2.16071e+08
2.30755e+08
2.09209e+08
2.24902e+08
2.02541e+08
2.1871e+08
1.95843e+08
2.12115e+08
1.89122e+08
2.05234e+08
1.82216e+08
1.98115e+08
1.75081e+08
1.90732e+08
1.67684e+08
1.83058e+08
1.5998e+08
1.75048e+08
1.51921e+08
1.66646e+08
1.43471e+08
1.57806e+08
1.34637e+08
1.48514e+08
1.25502e+08
1.38828e+08
1.16248e+08
1.28884e+08
1.07015e+08
1.1874e+08
9.75065e+07
1.0838e+08
8.81953e+07
9.39922e+07
2.43e+08
2.43e+08
2.43e+08
2.43e+08
2.43e+08
2.43e+08
2.41261e+08
2.43e+08
2.34617e+08
2.43e+08
2.27042e+08
2.41293e+08
2.19447e+08
2.35276e+08
2.11682e+08
2.27978e+08
2.03782e+08
2.20086e+08
1.95905e+08
2.11978e+08
1.87896e+08
2.03723e+08
1.79675e+08
1.95246e+08
1.71162e+08
1.86453e+08
1.623e+08
1.77283e+08
1.53079e+08
1.67735e+08
1.43562e+08
1.57887e+08
1.33876e+08
1.47868e+08
1.24057e+08
1.37724e+08
1.1402e+08
1.2774e+08
1.05103e+08
1.15985e+08
2.43e+08
2.43e+08
2.43e+08
2.43e+08
2.43e+08
2.43e+08
2.43e+08
2.43e+08
2.43e+08
2.43e+08
2.43e+08
2.43e+08
2.39625e+08
2.43e+08
2.31745e+08
2.42199e+08
2.2349e+08
2.36137e+08
2.15543e+08
2.28617e+08
2.07624e+08
2.20607e+08
1.99532e+08
2.12322e+08
1.91183e+08
2.03759e+08
1.82542e+08
1.94908e+08
1.73631e+08
1.85815e+08
1.64549e+08
1.76603e+08
1.55451e+08
1.67457e+08
1.46494e+08
1.58605e+08
1.37994e+08
1.50714e+08
1.31276e+08
1.42841e+08
2.43e+08
2.43e+08
2.43e+08
2.43e+08
2.43e+08
2.43e+08
2.43e+08
2.43e+08
2.43e+08
2.43e+08
2.43e+08
2.43e+08
2.43e+08
2.43e+08
2.42322e+08
2.43e+08
2.3651e+08
2.41698e+08
2.30311e+08
2.37051e+08
2.23754e+08
2.31076e+08
2.16736e+08
2.24343e+08
2.09307e+08
2.17091e+08
2.01544e+08
2.09479e+08
1.93557e+08
2.01677e+08
1.85504e+08
1.93903e+08
1.77597e+08
1.86443e+08
1.70121e+08
1.79722e+08
1.63594e+08
1.74585e+08
1.59046e+08
1.707e+08
2.43e+08
2.43e+08
2.43e+08
2.43e+08
2.43e+08
2.43e+08
2.43e+08
2.43e+08
2.43e+08
2.43e+08
2.43e+08
2.43e+08
2.43e+08
2.43e+08
2.43e+08
2.42808e+08
2.40966e+08
2.41281e+08
2.37607e+08
2.38589e+08
2.33213e+08
2.34829e+08
2.2801e+08
2.30198e+08
2.22199e+08
2.24916e+08
2.15971e+08
2.19216e+08
2.09532e+08
2.13356e+08
2.03122e+08
2.07638e+08
1.97029e+08
2.02446e+08
1.91645e+08
1.98338e+08
1.87589e+08
1.9616e+08
1.85469e+08
1.95899e+08
2.39188e+08
2.37549e+08
2.40201e+08
2.3828e+08
2.40899e+08
2.38745e+08
2.41293e+08
2.38929e+08
2.41475e+08
2.38862e+08
2.41495e+08
2.38647e+08
2.41379e+08
2.38402e+08
2.40995e+08
2.38209e+08
2.39945e+08
2.37452e+08
2.38088e+08
2.35965e+08
2.35437e+08
2.33754e+08
2.32088e+08
2.30902e+08
2.28192e+08
2.27555e+08
2.23941e+08
2.23915e+08
2.19559e+08
2.20239e+08
2.15311e+08
2.16851e+08
2.1152e+08
2.14168e+08
2.08641e+08
2.12804e+08
2.07314e+08
2.13488e+08
2.07696e+08
2.16269e+08
2.32065e+08
2.29136e+08
2.33942e+08
2.3038e+08
2.35218e+08
2.30967e+08
2.36118e+08
2.31246e+08
2.36654e+08
2.31433e+08
2.36841e+08
2.31629e+08
2.36728e+08
2.31828e+08
2.36343e+08
2.3193e+08
2.35656e+08
2.31761e+08
2.34623e+08
2.31195e+08
2.33219e+08
2.30188e+08
2.31456e+08
2.28776e+08
2.29396e+08
2.2707e+08
2.27153e+08
2.25251e+08
2.24901e+08
2.23563e+08
2.22873e+08
2.22315e+08
2.21384e+08
2.21922e+08
2.20905e+08
2.22984e+08
2.22036e+08
2.26063e+08
2.24531e+08
2.31187e+08
2.25752e+08
2.16844e+08
2.29721e+08
2.18639e+08
2.30754e+08
2.21101e+08
2.30616e+08
2.23285e+08
2.30291e+08
2.24917e+08
2.30092e+08
2.26003e+08
2.30061e+08
2.26645e+08
2.30134e+08
2.26942e+08
2.30204e+08
2.26962e+08
2.3016e+08
2.26745e+08
2.29926e+08
2.26328e+08
2.29477e+08
2.25769e+08
2.28857e+08
2.25166e+08
2.28174e+08
2.24673e+08
2.27598e+08
2.24499e+08
2.27355e+08
2.2492e+08
2.2775e+08
2.26311e+08
2.29232e+08
2.29195e+08
2.32254e+08
2.33851e+08
2.36103e+08
2.40164e+08
2.23681e+08
2.22432e+08
2.21897e+08
2.22352e+08
2.21617e+08
2.19925e+08
2.21814e+08
2.17851e+08
2.22415e+08
2.16766e+08
2.23233e+08
2.16508e+08
2.24074e+08
2.16757e+08
2.24814e+08
2.17246e+08
2.25397e+08
2.17803e+08
2.25825e+08
2.18338e+08
2.2613e+08
2.18835e+08
2.26373e+08
2.19335e+08
2.26641e+08
2.19938e+08
2.27053e+08
2.20796e+08
2.27762e+08
2.22113e+08
2.28957e+08
2.24152e+08
2.30896e+08
2.27279e+08
2.33962e+08
2.31945e+08
2.38403e+08
2.38066e+08
2.43e+08
2.43e+08
)
;

boundaryField
{
    back
    {
        type            empty;
    }
    front
    {
        type            empty;
    }
    left
    {
        type            symmetry;
    }
    hole
    {
        type            calculated;
        value           nonuniform List<scalar> 
20
(
2.43e+08
2.43e+08
2.43e+08
2.43e+08
2.43e+08
2.43e+08
2.22399e+08
1.8804e+08
1.45006e+08
9.89708e+07
5.27565e+07
8.45303e+06
3.30979e+07
7.03644e+07
1.02754e+08
1.29777e+08
1.51328e+08
1.67604e+08
1.78781e+08
1.83341e+08
)
;
    }
    down
    {
        type            symmetry;
    }
    right
    {
        type            calculated;
        value           nonuniform List<scalar> 
30
(
7.92713e+07
8.02415e+07
8.14862e+07
8.33364e+07
8.57744e+07
8.86584e+07
9.18451e+07
9.52031e+07
9.86697e+07
1.02322e+08
1.04442e+08
1.05479e+08
1.06924e+08
1.08419e+08
1.0966e+08
1.11095e+08
1.12388e+08
1.13337e+08
1.14396e+08
1.15357e+08
1.16176e+08
1.16867e+08
1.17441e+08
1.17898e+08
1.18241e+08
1.18474e+08
1.18624e+08
1.18751e+08
1.18856e+08
1.18867e+08
)
;
    }
    up
    {
        type            calculated;
        value           nonuniform List<scalar> 
30
(
2.43e+08
2.43e+08
2.41264e+08
2.34415e+08
2.25354e+08
2.14928e+08
2.0381e+08
1.92701e+08
1.81741e+08
1.71059e+08
1.60996e+08
1.51724e+08
1.43314e+08
1.35842e+08
1.29493e+08
1.24412e+08
1.2072e+08
1.18922e+08
1.18393e+08
1.18797e+08
8.1527e+07
9.17074e+07
1.14504e+08
1.4202e+08
1.70344e+08
1.95894e+08
2.16409e+08
2.31332e+08
2.40338e+08
2.43e+08
)
;
    }
}


// ************************************************************************* //
