/*--------------------------------*- C++ -*----------------------------------*\
| =========                 |                                                 |
| \\      /  F ield         | OpenFOAM: The Open Source CFD Toolbox           |
|  \\    /   O peration     | Version:  v2012                                 |
|   \\  /    A nd           | Website:  www.openfoam.com                      |
|    \\/     M anipulation  |                                                 |
\*---------------------------------------------------------------------------*/
FoamFile
{
    version     2.0;
    format      ascii;
    class       volSymmTensorField;
    location    "14";
    object      epsilon;
}
// * * * * * * * * * * * * * * * * * * * * * * * * * * * * * * * * * * * * * //

dimensions      [0 0 0 0 0 0 0];


internalField   nonuniform List<symmTensor> 
500
(
(0.0084767 -0.001382 -2.10499e-14 -0.00754114 -7.57198e-14 0)
(0.00730757 -0.00166319 -1.66828e-14 -0.00605627 6.89336e-15 0)
(0.00743573 -0.000838702 7.23239e-15 -0.00579524 -4.35145e-14 0)
(0.00588646 -0.00140586 1.9438e-14 -0.0039559 4.862e-15 0)
(0.00607125 -0.00023075 5.05466e-15 -0.00392737 -7.31576e-15 0)
(0.00450458 -0.00101471 2.50908e-14 -0.00230081 2.00512e-14 0)
(0.00470625 0.000264617 9.3108e-15 -0.00234852 2.01427e-14 0)
(0.00347217 -0.000558697 2.2747e-14 -0.00144256 2.17257e-14 0)
(0.00364244 0.000526057 3.79856e-15 -0.00136515 9.07781e-15 0)
(0.00275886 -0.00020067 2.67192e-14 -0.000996875 -3.71101e-15 0)
(0.00663343 -0.00256725 -2.28452e-14 -0.00575298 3.1168e-14 0)
(0.00468104 -0.00218807 2.64355e-14 -0.00298899 -2.51925e-15 0)
(0.00499077 -0.00164721 2.92698e-14 -0.00385698 9.12703e-15 0)
(0.00337658 -0.001365 1.35959e-14 -0.00130578 -6.29661e-15 0)
(0.00374409 -0.00072767 2.05478e-14 -0.00237265 1.40573e-14 0)
(0.00284494 -0.000710497 -1.02075e-14 -0.00109464 4.22102e-15 0)
(0.00317633 -7.94277e-05 1.61974e-14 -0.00158696 1.78312e-14 0)
(0.00257223 -0.000269089 -4.43374e-15 -0.00111932 8.42729e-15 0)
(0.00286122 0.000327105 2.7203e-14 -0.00116663 3.53472e-15 0)
(0.00236249 2.40313e-05 1.50032e-14 -0.00109821 6.2025e-15 0)
(0.00339967 -0.00229819 1.5743e-14 -0.00278215 -1.11584e-14 0)
(0.00173257 -0.0011922 -5.56846e-16 -0.000254758 -1.49156e-14 0)
(0.00204908 -0.00104223 6.90203e-15 -0.00137538 -1.26862e-14 0)
(0.00181256 -0.000679564 -2.38737e-14 -0.00064621 -4.89886e-15 0)
(0.00202017 -0.000528321 -2.53343e-14 -0.00112596 -2.93038e-15 0)
(0.00196626 -0.000415202 -2.01397e-14 -0.000892851 -1.80758e-15 0)
(0.00218582 -0.000198177 -1.19882e-14 -0.00112461 3.23331e-15 0)
(0.00204744 -0.000211302 2.959e-15 -0.00103394 1.27068e-16 0)
(0.00228418 5.8259e-05 5.84775e-15 -0.00111219 9.20509e-15 0)
(0.00206042 -4.35663e-05 4.06879e-15 -0.00110141 1.61221e-15 0)
(0.000930821 -0.000836773 -1.0031e-14 -0.00040881 -1.17825e-14 0)
(0.00102931 -0.0006202 -9.00582e-15 -0.00021131 -1.65384e-15 0)
(0.00126987 -0.000553399 -2.09607e-14 -0.000633886 -2.76472e-15 0)
(0.00134611 -0.000472619 -1.61642e-14 -0.000566743 8.76686e-16 0)
(0.00155684 -0.000379253 -1.80053e-14 -0.000823192 -1.98311e-15 0)
(0.00156067 -0.000358933 -6.06459e-15 -0.000799677 -1.15121e-15 0)
(0.00176671 -0.000233376 2.56956e-16 -0.000938563 -2.36974e-15 0)
(0.00169576 -0.000260971 4.51549e-15 -0.000944203 2.23346e-16 0)
(0.00190404 -0.000106959 5.52856e-15 -0.000996209 -1.06176e-15 0)
(0.00176667 -0.000173342 6.98009e-15 -0.00102206 3.28296e-16 0)
(0.000490338 -0.000400776 -4.96651e-15 -0.000245649 8.18139e-16 0)
(0.000716621 -0.000326364 -4.55105e-15 -0.00022118 2.07191e-15 0)
(0.000941488 -0.000335912 -8.44637e-15 -0.000551807 1.23404e-15 0)
(0.001053 -0.00033282 -4.04928e-15 -0.000565209 1.73364e-16 0)
(0.00125287 -0.000289585 -6.43149e-15 -0.000737969 1.18395e-16 0)
(0.00128321 -0.000321322 3.75134e-15 -0.00076957 -1.15457e-15 0)
(0.00146932 -0.0002455 4.87327e-15 -0.000847156 -4.51245e-16 0)
(0.00144183 -0.000294243 7.6059e-15 -0.000885565 -1.33422e-15 0)
(0.00161479 -0.000200307 7.31056e-15 -0.000902711 7.33788e-16 0)
(0.00153553 -0.000250987 2.23085e-15 -0.000933209 1.22526e-15 0)
(0.0001179 4.20358e-06 -4.14859e-15 -0.000283593 1.62977e-15 0)
(0.000485946 -7.89618e-05 -1.8657e-15 -0.000320822 -4.2826e-17 0)
(0.000600865 -0.000137249 -5.80265e-16 -0.000504214 1.249e-16 0)
(0.000730459 -0.00025821 8.79505e-16 -0.000559237 -1.26917e-15 0)
(0.000903416 -0.000212527 3.51889e-15 -0.000607366 -1.65596e-15 0)
(0.00088839 -0.000368922 -1.02956e-15 -0.000681922 -2.43349e-15 0)
(0.00109483 -0.000249375 3.92828e-15 -0.000628307 -1.94067e-15 0)
(0.00099423 -0.00045028 -2.02876e-15 -0.00073069 -2.18749e-15 0)
(0.0012024 -0.000266617 1.46367e-15 -0.000568813 -1.82092e-16 0)
(0.00108371 -0.00054743 -5.70464e-15 -0.000727929 1.3996e-15 0)
(2.8488e-05 0.000325275 -1.09331e-15 -0.00056697 -1.10567e-15 0)
(0.000468726 7.3706e-05 -1.56125e-17 -0.000569826 -2.37885e-15 0)
(0.00039474 -4.17059e-07 6.85216e-17 -0.000632888 -1.66403e-15 0)
(0.000591198 -0.000217793 4.89192e-16 -0.000652891 -1.75142e-15 0)
(0.000632527 -0.000203923 -1.68702e-15 -0.000651412 -1.94419e-15 0)
(0.000684878 -0.000402401 -1.46844e-15 -0.000683391 -9.35992e-16 0)
(0.000794595 -0.000342 -4.13818e-15 -0.000650565 -2.09527e-15 0)
(0.000762689 -0.000524056 -1.33053e-15 -0.000690364 -1.21783e-15 0)
(0.000919771 -0.000456779 -4.67508e-15 -0.000666898 1.92148e-16 0)
(0.000833512 -0.000593905 -2.8276e-15 -0.000703023 1.1073e-15 0)
(0.000127441 0.00051392 -3.33934e-17 -0.000983189 -2.6332e-15 0)
(0.000531251 0.00010844 2.01054e-15 -0.00086884 -2.34518e-15 0)
(0.000309519 0.000104727 1.57339e-15 -0.000833872 -2.05668e-15 0)
(0.000501684 -0.000191936 2.03396e-15 -0.000769561 -9.3301e-16 0)
(0.000441869 -0.000152847 8.76035e-17 -0.000726916 -2.68692e-16 0)
(0.000505652 -0.000378184 3.98119e-16 -0.000692292 -6.26127e-17 0)
(0.000546126 -0.000321289 -2.42861e-16 -0.000652103 -6.42417e-16 0)
(0.000533835 -0.000489646 8.56953e-16 -0.000636186 6.22983e-16 0)
(0.000637723 -0.0004274 -6.83481e-16 -0.000602444 4.51868e-16 0)
(0.000574683 -0.00055367 4.30211e-16 -0.000597303 3.12955e-16 0)
(0.000320651 0.000519488 2.85102e-15 -0.00140417 -4.59479e-15 0)
(0.000586131 2.83949e-05 2.21958e-15 -0.00111812 -4.74797e-15 0)
(0.000303737 0.000156651 1.70957e-15 -0.00104026 -9.70822e-16 0)
(0.000405779 -0.000195411 -1.07987e-15 -0.000853833 1.2528e-15 0)
(0.000314323 -6.82878e-05 2.84928e-16 -0.000787522 6.77681e-16 0)
(0.000339332 -0.000309478 -5.61183e-16 -0.000673659 1.56434e-15 0)
(0.000349305 -0.000207462 6.85216e-16 -0.00062525 1.06409e-15 0)
(0.000332981 -0.000374612 -2.40259e-16 -0.000555309 1.18276e-15 0)
(0.000398352 -0.000294764 8.59122e-16 -0.000520738 3.61636e-16 0)
(0.000359795 -0.000417777 -1.8735e-16 -0.000475408 -2.77989e-16 0)
(0.000509215 0.00031943 1.52742e-15 -0.00172704 -5.04276e-15 0)
(0.000392402 -0.000186148 -1.93899e-15 -0.00118952 2.19551e-16 0)
(0.000305456 0.000143725 -2.06345e-15 -0.00113706 1.09217e-15 0)
(0.00024857 -0.000176656 -1.81105e-15 -0.000834425 5.19821e-16 0)
(0.000230717 4.33868e-05 -1.02002e-15 -0.000799679 1.53902e-15 0)
(0.000193193 -0.000169609 -1.01785e-15 -0.000617333 4.07796e-16 0)
(0.000222461 -2.26205e-05 -8.26596e-16 -0.000594377 9.1054e-16 0)
(0.000189203 -0.000162174 -1.07249e-15 -0.000484153 8.42154e-17 0)
(0.000250106 -7.19038e-05 -6.86083e-16 -0.000470321 5.66089e-17 0)
(0.000218479 -0.000154282 -9.4369e-16 -0.000409256 -6.88943e-17 0)
(0.00034668 -0.000149238 -5.52509e-16 -0.000409256 -8.32125e-17 0)
(0.000352518 -3.89104e-05 -2.6628e-16 -0.000164446 2.32832e-17 0)
(0.000346048 -0.000402069 -9.88792e-17 -0.000467073 -4.46901e-16 0)
(0.000514556 -0.000191534 -1.57947e-15 -0.000205053 -6.13794e-16 0)
(0.000502352 -0.000594659 -4.82253e-16 -0.000618849 -6.98111e-16 0)
(0.000751849 -0.000291515 2.36096e-15 -0.000281839 -3.65083e-15 0)
(0.000738366 -0.00069852 -2.09641e-15 -0.00079551 4.54538e-16 0)
(0.00101476 -0.000323068 8.90781e-16 -0.000365921 -3.79688e-15 0)
(0.00100588 -0.000699668 -5.8599e-15 -0.000931202 2.55861e-15 0)
(0.00126444 -0.000288052 4.38256e-15 -0.000431275 -3.02818e-16 0)
(0.000360035 -0.000145629 -1.85615e-16 -0.000179749 5.18723e-17 0)
(0.000409829 -7.81055e-05 -1.72865e-15 -9.0355e-05 5.30127e-16 0)
(0.000404629 -0.000369705 -1.58554e-15 -0.000277408 1.63652e-16 0)
(0.000551134 -0.000222754 -1.7061e-15 -0.000144098 6.78941e-16 0)
(0.000541132 -0.000552873 -6.9042e-16 -0.000447753 -1.52891e-15 0)
(0.000751861 -0.000319324 2.37744e-15 -0.000226795 3.07398e-15 0)
(0.000740554 -0.000660593 4.4899e-15 -0.00065365 -3.74643e-15 0)
(0.000973599 -0.000354984 -4.13905e-15 -0.000314998 -1.01633e-15 0)
(0.000966042 -0.000675741 1.14622e-15 -0.000846493 -3.79151e-15 0)
(0.00117871 -0.000334144 -2.59558e-15 -0.00038387 2.44569e-16 0)
(0.000442113 -0.000116029 -5.17381e-16 -9.5357e-05 2.4989e-16 0)
(0.000487583 -8.27328e-05 2.77556e-17 -7.89269e-05 5.8285e-16 0)
(0.000483499 -0.000311524 -1.66924e-15 -0.000176133 9.38065e-16 0)
(0.000596366 -0.000219062 1.32793e-15 -0.000126331 -8.97177e-18 0)
(0.000588425 -0.000480774 7.07333e-16 -0.000316197 2.02972e-15 0)
(0.000754328 -0.000317924 1.91774e-15 -0.000200091 1.8365e-15 0)
(0.000745056 -0.000597335 4.2067e-17 -0.000496244 3.99342e-15 0)
(0.000937485 -0.000367992 -4.54584e-15 -0.000284651 -1.10914e-16 0)
(0.000930953 -0.000644929 -6.72813e-15 -0.000685848 -1.39976e-15 0)
(0.00111756 -0.000370499 3.98466e-15 -0.00036147 7.92376e-16 0)
(0.000541096 -8.83558e-05 1.46714e-15 -7.9737e-05 1.85453e-16 0)
(0.000575023 -7.62631e-05 1.13277e-15 -9.69937e-05 1.95875e-16 0)
(0.000571835 -0.000254711 1.13581e-15 -0.000137858 1.91826e-16 0)
(0.000654437 -0.000200461 1.58207e-15 -0.000134721 -9.24716e-16 0)
(0.000648253 -0.00040393 2.04741e-15 -0.000241285 -5.05912e-16 0)
(0.000773211 -0.000297215 1.94202e-15 -0.000195696 2.05378e-15 0)
(0.000765861 -0.000518302 1.36609e-16 -0.00038091 1.41042e-15 0)
(0.000918369 -0.000356842 -7.6588e-16 -0.000270691 -1.38941e-16 0)
(0.000912964 -0.000585579 -1.80628e-15 -0.000539475 1.11131e-18 0)
(0.00107245 -0.000377823 -5.39933e-16 -0.000347733 1.86022e-16 0)
(0.000638113 -6.72353e-05 5.62484e-16 -9.62592e-05 1.3976e-17 0)
(0.00066216 -6.6106e-05 -9.62772e-16 -0.00012584 -4.87715e-16 0)
(0.000659651 -0.000206465 6.91721e-16 -0.000136618 -5.63507e-16 0)
(0.000718801 -0.000176211 6.01949e-16 -0.000155092 -1.24826e-15 0)
(0.000714013 -0.000333558 1.54347e-15 -0.00021021 -1.4182e-16 0)
(0.000805739 -0.000266318 3.12163e-15 -0.000204231 6.3602e-16 0)
(0.000800058 -0.000436891 2.11506e-15 -0.000312955 1.91381e-15 0)
(0.000916886 -0.000328335 1.32446e-15 -0.000268132 -6.76163e-16 0)
(0.000912632 -0.000508099 -8.38305e-16 -0.000435665 -1.07862e-15 0)
(0.00104309 -0.000359214 -3.0826e-15 -0.000339643 8.06782e-17 0)
(0.000725396 -5.20164e-05 -1.6675e-15 -0.000124783 -2.72125e-16 0)
(0.000742278 -5.46089e-05 1.47105e-15 -0.000153534 -1.14944e-15 0)
(0.000740266 -0.00016715 5.3603e-16 -0.000153167 -1.27361e-15 0)
(0.00078205 -0.000150185 2.25341e-15 -0.000176322 -9.01934e-16 0)
(0.000778322 -0.000272611 2.12764e-15 -0.000205664 -6.89451e-16 0)
(0.000844336 -0.000230724 1.57339e-15 -0.000216019 1.9591e-15 0)
(0.000840013 -0.000360397 2.6255e-15 -0.000280412 7.16529e-16 0)
(0.000926873 -0.000289478 -1.05124e-15 -0.000269846 3.07683e-15 0)
(0.000923669 -0.000424729 -1.04734e-15 -0.000372613 4.23367e-16 0)
(0.00102555 -0.00032281 -2.06302e-15 -0.000333457 2.65953e-15 0)
(0.000799064 -4.12724e-05 1.75641e-15 -0.000152707 -5.00092e-16 0)
(0.000810752 -4.23423e-05 8.95117e-16 -0.000171031 -4.05302e-16 0)
(0.000809094 -0.000135091 1.9919e-15 -0.000173563 -9.86068e-16 0)
(0.000837899 -0.000123499 -9.16801e-16 -0.000189036 -6.17941e-16 0)
(0.000834953 -0.000220231 7.04731e-16 -0.000212225 5.4738e-16 0)
(0.000881258 -0.000192722 -2.11723e-15 -0.000221961 1.99466e-16 0)
(0.000877985 -0.000290853 -1.05862e-15 -0.000267752 2.93324e-15 0)
(0.000940496 -0.000244474 -1.35308e-16 -0.000268166 1.10537e-15 0)
(0.000938168 -0.00034273 -1.15576e-15 -0.000337446 3.17965e-15 0)
(0.00101401 -0.000275096 1.06859e-15 -0.000324307 -3.66267e-15 0)
(0.00085636 -3.38932e-05 6.83481e-16 -0.000170633 2.24091e-17 0)
(0.000863491 -2.92408e-05 4.2067e-16 -0.000169489 -2.84196e-16 0)
(0.000862084 -0.000108039 -8.01876e-16 -0.000186828 -4.12417e-16 0)
(0.000880628 -9.53659e-05 2.47458e-15 -0.000183567 3.22428e-16 0)
(0.000878252 -0.000173495 -7.39426e-16 -0.000217051 -4.09191e-16 0)
(0.0009096 -0.000151486 7.1991e-17 -0.000213051 1.57155e-16 0)
(0.000907106 -0.000226354 -1.38778e-15 -0.000260716 -1.79435e-16 0)
(0.000950692 -0.000193699 -5.86337e-16 -0.000256014 4.11211e-16 0)
(0.000949037 -0.000263592 1.24423e-15 -0.000315746 -1.5345e-15 0)
(0.00100282 -0.000218593 -2.68709e-15 -0.000307739 2.03396e-15 0)
(0.000894446 -2.94667e-05 1.65146e-15 -0.000169506 -1.73564e-16 0)
(0.000894645 -1.52629e-05 4.45477e-15 -0.000136512 3.1927e-16 0)
(0.000893439 -8.29023e-05 3.48679e-15 -0.000182329 3.37516e-16 0)
(0.00090303 -6.21601e-05 7.73687e-16 -0.000146228 -1.62495e-16 0)
(0.000901081 -0.000126509 1.31622e-15 -0.000208769 3.39064e-16 0)
(0.000923442 -0.000101286 -1.41553e-15 -0.000180757 -9.13034e-16 0)
(0.000921467 -0.000160846 -9.90961e-16 -0.000247911 -1.41353e-16 0)
(0.000952335 -0.000132483 6.15827e-16 -0.000227795 2.83275e-16 0)
(0.000951142 -0.000183048 -1.65666e-15 -0.00029602 2.28402e-15 0)
(0.000988289 -0.000150793 -7.70217e-16 -0.000281947 2.57964e-15 0)
(0.000909873 -2.92845e-05 4.18589e-15 -0.000136755 2.73378e-16 0)
(0.000887762 -1.37555e-07 -4.79825e-15 -3.77605e-05 1.56087e-15 0)
(0.000886887 -4.95509e-05 -1.64105e-15 -0.000145569 6.88855e-16 0)
(0.000898385 -1.01933e-05 -2.31846e-15 -6.81242e-05 1.32529e-15 0)
(0.000896649 -6.79301e-05 -8.06646e-16 -0.000177884 -5.76796e-16 0)
(0.000917906 -2.95613e-05 1.97325e-15 -0.000115663 -1.83322e-15 0)
(0.000916178 -8.20505e-05 7.70217e-16 -0.000221793 -1.2281e-15 0)
(0.000943288 -4.81928e-05 3.42998e-15 -0.000179562 -1.90351e-15 0)
(0.000942317 -8.95625e-05 1.94809e-15 -0.000272736 5.56358e-16 0)
(0.000971111 -6.24549e-05 -2.97548e-15 -0.000252897 6.92439e-16 0)
(0.00126444 -0.000639541 6.68302e-16 -0.000991325 3.14429e-15 0)
(0.00143219 -0.00033209 2.6229e-15 -0.000709694 8.06646e-16 0)
(0.00143219 -0.000522185 8.95616e-15 -0.00100572 1.42518e-16 0)
(0.00155799 -0.000285602 1.18829e-15 -0.000756955 1.28261e-16 0)
(0.00155799 -0.000415884 1.85095e-15 -0.0010047 -4.17418e-17 0)
(0.00165656 -0.000227397 -6.59498e-15 -0.000790176 1.40339e-15 0)
(0.00165656 -0.000320557 -6.83655e-15 -0.000993088 3.66086e-15 0)
(0.00173649 -0.000166518 -3.50935e-15 -0.000811748 1.34441e-15 0)
(0.00173649 -0.000238322 2.00838e-15 -0.000973779 2.65424e-15 0)
(0.00180466 -0.000107883 1.54607e-15 -0.00082492 1.2284e-15 0)
(0.00180466 -0.000172147 2.63309e-15 -0.000950033 -1.73662e-15 0)
(0.00186804 -5.43768e-05 6.86604e-15 -0.000833594 2.25124e-15 0)
(0.00186804 -0.000124668 6.94019e-15 -0.000926418 -4.64608e-15 0)
(0.00193439 -7.40663e-06 8.56043e-15 -0.000842271 3.93479e-15 0)
(0.00193439 -9.70964e-05 9.62338e-15 -0.000909085 -7.26621e-15 0)
(0.00201219 3.31226e-05 -3.26171e-15 -0.000855911 -1.33357e-15 0)
(0.00201219 -8.78444e-05 -1.83555e-15 -0.00090587 -3.4778e-15 0)
(0.00210973 6.89734e-05 -5.56022e-15 -0.000879516 -4.07682e-15 0)
(0.00210973 -8.96689e-05 -4.87154e-15 -0.000926693 2.08741e-15 0)
(0.00223213 0.000103392 3.10429e-15 -0.000916933 -8.71699e-15 0)
(0.00117871 -0.000549029 1.9611e-15 -0.000709694 1.46801e-16 0)
(0.00128574 -0.000361192 -1.26722e-15 -0.000582142 -8.45027e-16 0)
(0.00128574 -0.00052191 -2.31412e-15 -0.000756955 3.78766e-16 0)
(0.00138988 -0.00033718 -3.03577e-16 -0.00062055 2.86229e-17 0)
(0.00138988 -0.000476188 -3.45514e-15 -0.000790176 1.0545e-15 0)
(0.00148653 -0.000303401 5.00468e-16 -0.000655161 -1.10979e-15 0)
(0.00148653 -0.000422711 -3.58285e-15 -0.000811748 -3.31441e-16 0)
(0.00157592 -0.000262668 -4.38451e-16 -0.0006855 -2.25189e-15 0)
(0.00157592 -0.00036769 -4.16334e-17 -0.00082492 6.64453e-16 0)
(0.00166048 -0.000217415 2.54614e-15 -0.000712405 -2.64795e-15 0)
(0.00166048 -0.00031481 7.55364e-15 -0.000833594 2.23698e-15 0)
(0.00174374 -0.0001692 3.44299e-15 -0.000737553 -1.84336e-15 0)
(0.00174374 -0.000265939 6.28837e-15 -0.000842271 4.90574e-15 0)
(0.00182986 -0.000118551 5.5264e-15 -0.000763136 1.43082e-15 0)
(0.00182986 -0.000221262 -1.5027e-15 -0.000855911 2.10156e-15 0)
(0.00192323 -6.48978e-05 6.63011e-15 -0.000791593 6.53123e-15 0)
(0.00192323 -0.000179345 -3.28166e-15 -0.000879516 -2.56734e-15 0)
(0.00202815 -6.54238e-06 1.40868e-14 -0.000825368 6.23026e-15 0)
(0.00202815 -0.000137833 7.92985e-15 -0.000916933 -7.73036e-15 0)
(0.0021491 5.94008e-05 2.25124e-14 -0.000866903 6.23145e-15 0)
(0.00111756 -0.000534315 3.98119e-16 -0.000582142 -3.89337e-16 0)
(0.00120249 -0.000387757 2.18922e-15 -0.000496536 9.34745e-16 0)
(0.00120249 -0.00051842 -4.11997e-18 -0.00062055 -2.47225e-16 0)
(0.00128818 -0.000370187 -9.17669e-16 -0.000531917 2.74737e-16 0)
(0.00128818 -0.000492052 1.19414e-15 -0.000655161 -1.05035e-15 0)
(0.00137293 -0.00034525 1.29237e-16 -0.000566277 -6.66947e-16 0)
(0.00137293 -0.000457289 6.17778e-16 -0.0006855 -2.30049e-15 0)
(0.00145617 -0.000313268 -3.72966e-16 -0.000599272 -3.40006e-16 0)
(0.00145617 -0.000416236 1.11066e-15 -0.000712405 -2.97405e-15 0)
(0.00153834 -0.000274676 -1.19176e-15 -0.000631017 -2.30198e-15 0)
(0.00153834 -0.000370363 9.42605e-16 -0.000737553 -3.54979e-15 0)
(0.00162054 -0.000229685 -1.56472e-15 -0.000661997 -7.8236e-16 0)
(0.00162054 -0.000320286 4.17808e-15 -0.000763136 1.44958e-16 0)
(0.00170426 -0.000178079 -7.34655e-16 -0.000692942 -7.88215e-17 0)
(0.00170426 -0.000265694 7.99014e-15 -0.000791593 6.11051e-15 0)
(0.00179112 -0.000119104 -1.20043e-15 -0.000724672 -3.64422e-15 0)
(0.00179112 -0.000205298 1.28326e-14 -0.000825368 6.18727e-15 0)
(0.00188258 -5.14232e-05 6.66047e-15 -0.000757942 -4.48697e-15 0)
(0.00188258 -0.000136575 2.20286e-14 -0.000866903 7.62037e-15 0)
(0.00197952 2.68728e-05 1.3536e-14 -0.000793209 7.10152e-17 0)
(0.00107245 -0.000510787 2.15886e-15 -0.000496536 1.46243e-15 0)
(0.00114398 -0.000389581 -1.17007e-15 -0.000438407 -1.10914e-15 0)
(0.00114398 -0.00049809 -9.89226e-16 -0.000531917 -4.63415e-16 0)
(0.00121597 -0.000375939 -7.90167e-16 -0.00047235 -5.25193e-15 0)
(0.00121597 -0.000477838 -7.70217e-16 -0.000566277 -1.65403e-15 0)
(0.00128796 -0.000355529 1.22298e-16 -0.000505721 -4.3779e-15 0)
(0.00128796 -0.000449958 2.68448e-16 -0.000599272 -3.8294e-16 0)
(0.00135959 -0.000328147 3.322e-15 -0.000538322 -1.29974e-15 0)
(0.00135959 -0.000414632 -7.25982e-16 -0.000631017 -1.32113e-15 0)
(0.00143072 -0.000293602 1.5014e-15 -0.000570029 8.27463e-16 0)
(0.00143072 -0.000371969 -1.69049e-15 -0.000661997 -5.74627e-18 0)
(0.00150139 -0.000251612 3.00975e-16 -0.000600795 2.33277e-15 0)
(0.00150139 -0.0003218 -2.34405e-15 -0.000692942 6.62719e-17 0)
(0.00157177 -0.000201726 -1.35655e-15 -0.000630618 1.77712e-15 0)
(0.00157177 -0.00026356 -3.62926e-15 -0.000724672 -5.13023e-15 0)
(0.001642 -0.000143263 1.14839e-15 -0.000659478 3.28405e-16 0)
(0.001642 -0.000196235 2.93082e-15 -0.000757942 -5.52255e-15 0)
(0.00171208 -7.53002e-05 -1.30451e-15 -0.000687269 -1.29465e-15 0)
(0.00171208 -0.000118422 6.21421e-15 -0.000793209 -3.30823e-15 0)
(0.00178177 3.30909e-06 -9.17582e-15 -0.000713734 -4.53977e-15 0)
(0.00104309 -0.000465672 -1.69049e-15 -0.000438407 -1.25431e-15 0)
(0.00110199 -0.000367541 -8.71699e-16 -0.00040107 -3.34943e-15 0)
(0.00110199 -0.000455582 -3.34802e-16 -0.00047235 -5.8097e-15 0)
(0.00116091 -0.000357034 2.54657e-15 -0.000432491 -2.40818e-15 0)
(0.00116091 -0.000438479 9.91394e-16 -0.000505721 -4.31336e-15 0)
(0.00121952 -0.000340019 3.86063e-15 -0.000463368 -1.22444e-15 0)
(0.00121952 -0.000414068 3.66027e-15 -0.000538322 -2.09191e-15 0)
(0.00127743 -0.000316283 1.65753e-15 -0.000493442 -5.72871e-15 0)
(0.00127743 -0.000382097 2.42948e-15 -0.000570029 -5.82461e-16 0)
(0.00133426 -0.000285577 2.72352e-16 -0.000522424 -5.85719e-15 0)
(0.00133426 -0.00034228 4.56232e-16 -0.000600795 9.39515e-16 0)
(0.00138959 -0.000247589 -1.62804e-15 -0.000549994 -1.95438e-15 0)
(0.00138959 -0.000294235 -9.88359e-16 -0.000630618 2.22408e-15 0)
(0.001443 -0.000201923 -3.21618e-15 -0.000575791 3.71231e-16 0)
(0.001443 -0.000237428 6.88252e-16 -0.000659478 2.41143e-15 0)
(0.00149397 -0.000148074 -1.8284e-15 -0.000599396 -2.75604e-16 0)
(0.00149397 -0.000171158 -2.57563e-15 -0.000687269 -7.2815e-16 0)
(0.00154193 -8.54256e-05 -6.86257e-15 -0.000620316 -5.05455e-16 0)
(0.00154193 -9.45499e-05 -1.25282e-14 -0.000713734 -3.46191e-15 0)
(0.00158615 -1.32607e-05 -6.75762e-15 -0.000637967 -1.00571e-15 0)
(0.00102555 -0.00040472 -1.65753e-15 -0.00040107 -1.73196e-15 0)
(0.00107163 -0.000328724 -1.17961e-16 -0.000376614 8.12013e-16 0)
(0.00107163 -0.000396674 2.89612e-15 -0.000432491 -1.1811e-15 0)
(0.00111745 -0.000320496 1.5413e-15 -0.000404473 5.13408e-15 0)
(0.00111745 -0.000381949 3.62037e-15 -0.000463368 1.4914e-15 0)
(0.00116261 -0.000306262 6.41848e-17 -0.000431841 6.28149e-15 0)
(0.00116261 -0.000360347 6.46184e-16 -0.000493442 -4.0521e-15 0)
(0.0012066 -0.000285921 8.32667e-17 -0.000458356 1.94809e-15 0)
(0.0012066 -0.000331642 3.5345e-16 -0.000522424 -6.25338e-15 0)
(0.00124884 -0.000259343 1.55084e-15 -0.000483597 1.94837e-15 0)
(0.00124884 -0.000295567 -1.0031e-15 -0.000549994 -1.67528e-15 0)
(0.00128869 -0.000226354 1.42854e-15 -0.000507077 4.0032e-15 0)
(0.00128869 -0.000251803 -2.55568e-15 -0.000575791 5.77771e-16 0)
(0.00132543 -0.000186724 2.97418e-15 -0.000528235 2.70498e-15 0)
(0.00132543 -0.000199956 -1.62934e-15 -0.000599396 -2.52836e-16 0)
(0.00135825 -0.000140144 3.30552e-15 -0.00054643 1.03053e-15 0)
(0.00135825 -0.000139543 -3.95734e-15 -0.000620316 2.36681e-16 0)
(0.00138628 -8.62117e-05 -1.33313e-15 -0.000560942 3.83905e-15 0)
(0.00138628 -6.99971e-05 -4.64646e-15 -0.000637967 1.45007e-15 0)
(0.00140857 -2.44174e-05 -5.55632e-15 -0.000570978 3.8616e-15 0)
(0.00101401 -0.00033521 -2.38524e-16 -0.000376614 4.93529e-16 0)
(0.0010479 -0.000279047 9.00321e-16 -0.00035697 -4.62179e-15 0)
(0.0010479 -0.00032832 6.05418e-16 -0.000404473 3.43849e-15 0)
(0.00108148 -0.000272078 -5.03937e-16 -0.000381309 -2.85904e-15 0)
(0.00108148 -0.000315422 -6.4922e-16 -0.000431841 5.80802e-15 0)
(0.00111425 -0.000259909 -2.35489e-15 -0.000405278 -2.00686e-15 0)
(0.00111425 -0.000296443 -5.43402e-16 -0.000458356 3.75625e-15 0)
(0.00114561 -0.000242586 -7.48533e-16 -0.000428438 -2.80808e-16 0)
(0.00114561 -0.000271288 1.45413e-15 -0.000483597 2.85544e-15 0)
(0.00117489 -0.00022016 -1.13624e-16 -0.000450276 7.03647e-16 0)
(0.00117489 -0.000239833 1.90169e-15 -0.000507077 3.94381e-15 0)
(0.00120127 -0.000192664 -2.15973e-15 -0.000470214 -1.21788e-15 0)
(0.00120127 -0.000201912 2.534e-15 -0.000528235 2.17074e-15 0)
(0.00122384 -0.000160101 -2.83714e-15 -0.00048758 -1.00679e-15 0)
(0.00122384 -0.000157299 3.14635e-15 -0.00054643 1.39325e-15 0)
(0.00124156 -0.000122413 -3.73486e-15 -0.000501591 -9.86949e-16 0)
(0.00124156 -0.000105689 -5.17815e-16 -0.000560942 2.66014e-15 0)
(0.00125328 -7.94309e-05 -5.11657e-15 -0.000511327 -2.76049e-15 0)
(0.00125328 -4.6671e-05 -5.93449e-15 -0.000570978 3.13508e-15 0)
(0.00125778 -3.08007e-05 -5.51382e-15 -0.000515735 -4.18936e-15 0)
(0.00100282 -0.000260779 1.17961e-16 -0.00035697 -3.95203e-15 0)
(0.00102635 -0.000220645 -5.6205e-16 -0.000336157 4.30791e-15 0)
(0.00102635 -0.000254185 -1.31405e-16 -0.000381309 -3.30318e-15 0)
(0.00104968 -0.000214037 -7.42462e-16 -0.000358511 3.93869e-15 0)
(0.00104968 -0.000242618 -2.48499e-15 -0.000405278 -2.50424e-15 0)
(0.00107229 -0.000203278 -8.72566e-16 -0.000380527 4.24384e-15 0)
(0.00107229 -0.000226121 -9.6494e-16 -0.000428438 1.41543e-16 0)
(0.00109356 -0.000188569 6.47052e-16 -0.000401623 3.23146e-15 0)
(0.00109356 -0.000204734 -3.3697e-16 -0.000450276 3.67517e-16 0)
(0.00111274 -0.000170085 -7.16441e-16 -0.000421311 2.45035e-15 0)
(0.00111274 -0.0001785 -2.79898e-15 -0.000470214 -1.30573e-15 0)
(0.00112901 -0.000148071 -1.97498e-15 -0.000439051 1.10599e-15 0)
(0.00112901 -0.000147453 -4.07356e-15 -0.00048758 -1.3996e-15 0)
(0.00114133 -0.00012285 -1.15186e-15 -0.000454196 9.97466e-17 0)
(0.00114133 -0.000111595 -4.32987e-15 -0.000501591 -1.18509e-15 0)
(0.00114843 -9.47889e-05 -5.1955e-16 -0.000465931 -4.99384e-16 0)
(0.00114843 -7.08438e-05 -4.41964e-15 -0.000511327 -3.68266e-15 0)
(0.00114877 -6.42242e-05 -2.15106e-16 -0.000473217 -1.68843e-15 0)
(0.00114877 -2.49513e-05 -3.68889e-15 -0.000515735 -5.2142e-15 0)
(0.00114051 -3.13192e-05 -1.5014e-15 -0.000474707 -2.49193e-15 0)
(0.000988289 -0.00017983 -1.46324e-15 -0.000336157 5.47864e-15 0)
(0.00100483 -0.000150334 9.08128e-16 -0.000313564 2.29732e-15 0)
(0.00100483 -0.000173256 5.00468e-16 -0.000358511 5.29467e-15 0)
(0.00102133 -0.000144164 1.21691e-15 -0.000337951 1.93319e-15 0)
(0.00102133 -0.000163166 -3.98986e-16 -0.000380527 4.86866e-15 0)
(0.00103701 -0.000135469 6.93889e-16 -0.000360732 1.01519e-15 0)
(0.00103701 -0.000149579 7.38559e-16 -0.000401623 3.17552e-15 0)
(0.0010514 -0.000123916 2.33407e-15 -0.000381924 1.81176e-15 0)
(0.0010514 -0.000132575 4.87457e-16 -0.000421311 3.1991e-15 0)
(0.00106399 -0.000109673 2.50234e-15 -0.000401243 9.11814e-17 0)
(0.00106399 -0.000112334 -6.64833e-16 -0.000439051 1.20154e-15 0)
(0.00107411 -9.31818e-05 1.64972e-15 -0.000418269 -4.62721e-15 0)
(0.00107411 -8.9127e-05 -1.95156e-17 -0.000454196 -1.20271e-15 0)
(0.00108085 -7.51101e-05 1.47191e-15 -0.000432483 -5.66127e-15 0)
(0.00108085 -6.32941e-05 8.26596e-16 -0.000465931 -1.14985e-15 0)
(0.00108295 -5.63771e-05 9.42822e-16 -0.000443256 -2.88864e-15 0)
(0.00108295 -3.51955e-05 8.03177e-16 -0.000473217 -6.39761e-16 0)
(0.00107863 -3.82197e-05 -1.21778e-15 -0.00044978 1.40664e-15 0)
(0.00107863 -5.10123e-06 -1.20216e-15 -0.000474707 -5.49853e-16 0)
(0.00106519 -2.23229e-05 -5.3603e-16 -0.000450928 3.9195e-15 0)
(0.000971111 -8.38727e-05 -9.57567e-16 -0.000313564 1.56773e-15 0)
(0.000987904 -5.5619e-05 -1.82883e-15 -0.000301167 -1.92343e-15 0)
(0.000987904 -7.90062e-05 1.83967e-15 -0.000337951 -3.91018e-16 0)
(0.0010022 -5.56705e-05 5.22152e-16 -0.000331877 -2.62369e-15 0)
(0.0010022 -7.25039e-05 6.00214e-16 -0.000360732 4.10371e-17 0)
(0.00101495 -5.25543e-05 -1.16053e-15 -0.000360749 2.72983e-15 0)
(0.00101495 -6.41014e-05 1.41814e-15 -0.000381924 2.37896e-15 0)
(0.00102628 -4.71736e-05 -4.17678e-15 -0.000386907 7.19398e-15 0)
(0.00102628 -5.38613e-05 1.33574e-15 -0.000401243 1.47522e-15 0)
(0.00103597 -4.0022e-05 -2.72482e-15 -0.00040951 6.86479e-15 0)
(0.00103597 -4.20117e-05 1.91513e-15 -0.000418269 -2.88804e-15 0)
(0.00104364 -3.15307e-05 2.377e-15 -0.000427778 7.37274e-15 0)
(0.00104364 -2.89291e-05 2.26034e-15 -0.000432483 -3.47969e-15 0)
(0.00104878 -2.22454e-05 1.18655e-15 -0.000441024 6.26739e-15 0)
(0.00104878 -1.51841e-05 4.69243e-16 -0.000443256 -2.05283e-15 0)
(0.00105076 -1.29632e-05 -2.62377e-16 -0.000448706 1.34002e-15 0)
(0.00105076 -1.64259e-06 -9.80119e-16 -0.00044978 9.63205e-16 0)
(0.00104877 -4.87557e-06 -5.77663e-16 -0.00045052 -3.85976e-15 0)
(0.00104877 1.03363e-05 -5.67255e-16 -0.000450928 2.61401e-15 0)
(0.00104189 2.75288e-07 -3.58437e-15 -0.000446576 -2.76065e-15 0)
(0.00288877 0.000633125 9.31725e-15 -0.000780891 -1.48939e-14 0)
(0.00249372 -6.87084e-05 2.02774e-14 -0.000951396 -1.2565e-14 0)
(0.00259055 0.0006208 8.70343e-16 -0.000600425 -1.4702e-14 0)
(0.00227738 3.27825e-05 4.54205e-15 -0.000891992 -7.18696e-15 0)
(0.00234751 0.000589534 1.31042e-15 -0.000564082 -3.73269e-15 0)
(0.00207486 6.95185e-05 3.13118e-15 -0.000817373 2.64589e-15 0)
(0.00212981 0.000561674 2.68882e-16 -0.000542948 6.85649e-15 0)
(0.00189521 0.000104682 -6.03196e-16 -0.000776009 5.74627e-16 0)
(0.00193693 0.000535411 -5.29172e-16 -0.000535131 -2.21437e-15 0)
(0.00172406 0.000115149 -1.54884e-15 -0.000735141 -7.3253e-15 0)
(0.00175657 0.000512525 -2.51562e-16 -0.000532649 -7.31294e-15 0)
(0.0015512 0.00010401 -2.14358e-15 -0.00069304 -9.41001e-15 0)
(0.00157707 0.000494015 -7.97241e-16 -0.000528156 -4.6419e-15 0)
(0.00136609 7.22424e-05 -2.71593e-15 -0.000645811 -9.69233e-15 0)
(0.00138667 0.000480413 -5.80536e-16 -0.000514322 -3.95669e-15 0)
(0.00115666 1.77778e-05 -2.50928e-15 -0.000588251 -6.68476e-15 0)
(0.00117211 0.000471932 -6.89851e-16 -0.000482824 -2.39479e-15 0)
(0.000907703 -6.53001e-05 -3.09857e-15 -0.000513744 -2.57346e-15 0)
(0.000916892 0.000468491 -8.89425e-16 -0.000423002 1.30321e-16 0)
(0.000598462 -0.000188772 -3.92001e-15 -0.000414039 -1.36783e-15 0)
(0.00259665 0.000535613 2.2992e-14 -0.000899093 -7.35089e-15 0)
(0.00231049 0.000179749 -7.33398e-15 -0.00109909 7.35653e-15 0)
(0.00250337 0.000651151 8.54893e-16 -0.000838701 -2.5945e-15 0)
(0.00221162 0.000268918 -7.18436e-15 -0.00107346 1.27979e-15 0)
(0.00236508 0.000692759 2.68047e-15 -0.000763779 -1.6675e-16 0)
(0.00210386 0.000327809 -3.2049e-16 -0.00102256 -1.92598e-15 0)
(0.00223139 0.000724646 -3.79471e-17 -0.000722787 -7.63061e-16 0)
(0.00198112 0.000363391 1.75099e-15 -0.000962951 -9.98767e-16 0)
(0.00208363 0.000729627 -9.00593e-16 -0.000682439 -4.76117e-15 0)
(0.00185391 0.000382979 4.34429e-15 -0.000908475 -2.12937e-15 0)
(0.00193124 0.000709956 -5.40366e-16 -0.000641118 -9.01644e-15 0)
(0.00171834 0.00037412 1.2677e-14 -0.000848364 -1.84878e-15 0)
(0.00177465 0.00066715 2.20267e-15 -0.000594902 -8.73347e-15 0)
(0.00157394 0.000334896 8.21739e-15 -0.000784969 -5.94143e-17 0)
(0.00161262 0.000599046 -2.69777e-15 -0.000538617 -5.99043e-15 0)
(0.00142018 0.000261803 -2.34751e-15 -0.000720193 -5.26922e-16 0)
(0.00144369 0.000498853 -3.68119e-15 -0.000465747 -2.66974e-15 0)
(0.00125798 0.000149576 -2.29948e-15 -0.0006565 -1.61026e-15 0)
(0.00126825 0.000352991 -4.02469e-15 -0.00036824 -2.23888e-15 0)
(0.0010927 -8.28754e-06 -2.88452e-15 -0.000598466 -2.43035e-15 0)
(0.00228566 0.000230258 -4.6638e-15 -0.00109205 8.96071e-15 0)
(0.00212227 0.000116691 -8.54048e-15 -0.00106466 -2.74954e-16 0)
(0.00230109 0.00035646 -1.31771e-14 -0.0010619 2.41777e-15 0)
(0.00210687 0.000201153 -2.10851e-14 -0.00106302 1.81409e-15 0)