/*--------------------------------*- C++ -*----------------------------------*\
| =========                 |                                                 |
| \\      /  F ield         | OpenFOAM: The Open Source CFD Toolbox           |
|  \\    /   O peration     | Version:  v2012                                 |
|   \\  /    A nd           | Website:  www.openfoam.com                      |
|    \\/     M anipulation  |                                                 |
\*---------------------------------------------------------------------------*/
FoamFile
{
    version     2.0;
    format      ascii;
    class       pointSymmTensorField;
    location    "14";
    object      pEpsilon;
}
// * * * * * * * * * * * * * * * * * * * * * * * * * * * * * * * * * * * * * //

dimensions      [0 0 0 0 0 0 0];


internalField   nonuniform List<symmTensor> 
572
(
(0.000407596 -0.000136759 -3.44776e-16 -0.00155935 0 0)
(0.000903463 -2.73279e-05 -1.97108e-15 -5.85573e-05 0 0)
(0.00104189 2.75288e-07 -8.57821e-15 -0.000446576 -4.77049e-16 0)
(0.00074888 0.000450875 0 -0.000422755 1.84531e-15 0)
(0.0084767 -0.001382 0 -0.00754114 -1.49717e-13 0)
(0.000282579 -0.00015176 -9.06393e-16 -0.000409256 0 0)
(0.00319949 0.000578571 0 -0.00106971 -1.48167e-14 0)
(0.00127643 -0.00046583 -3.78712e-15 -0.000852812 2.7742e-15 0)
(0.00218889 3.78645e-06 -7.4604e-15 -0.000882667 1.71087e-15 0)
(0.00097819 -5.78819e-05 -6.84348e-15 -0.000277898 1.55949e-15 0)
(0.000414223 -0.000220612 -5.4904e-15 -0.000234934 3.66081e-15 0)
(0.000414223 -0.000220612 -5.4904e-15 -0.000234934 3.66081e-15 0)
(0.00127643 -0.00046583 -3.78712e-15 -0.000852812 2.7742e-15 0)
(0.00319949 0.000578571 0 -0.00106971 -1.48167e-14 0)
(0.0084767 -0.001382 0 -0.00754114 -1.49717e-13 0)
(0.000407596 -0.000136759 -3.44776e-16 -0.00155935 0 0)
(0.000282579 -0.00015176 -9.06393e-16 -0.000409256 0 0)
(0.000903463 -2.73279e-05 -1.97108e-15 -5.85573e-05 0 0)
(0.00097819 -5.78819e-05 -6.84348e-15 -0.000277898 1.55949e-15 0)
(0.00104189 2.75288e-07 -8.57821e-15 -0.000446576 -4.77049e-16 0)
(0.00218889 3.78645e-06 -7.4604e-15 -0.000882667 1.71087e-15 0)
(0.00074888 0.000450875 0 -0.000422755 1.84531e-15 0)
(0.0026533 9.81416e-05 4.82017e-14 -0.00112985 -1.53631e-14 0)
(0.00229041 0.000115124 3.20924e-16 -0.00110449 1.45186e-14 0)
(0.00199534 -4.74212e-06 8.91756e-15 -0.00103379 -4.18285e-15 0)
(0.00172173 -0.000135656 3.38596e-15 -0.000956528 2.7555e-15 0)
(0.000953776 -0.000544798 -8.01442e-15 -0.00065644 4.18936e-15 0)
(0.000696973 -0.000513149 -2.51969e-15 -0.000584468 1.16674e-15 0)
(0.000473552 -0.000392171 1.08637e-15 -0.00048502 -1.35003e-15 0)
(0.000337792 -0.000189551 -4.90059e-16 -0.000417925 -3.26616e-16 0)
(0.00031958 -0.000170637 -3.22659e-15 -0.00103459 0 0)
(0.000221399 -0.000165051 -9.41087e-16 -0.000737528 0 0)
(0.000192644 -0.000159697 -1.17961e-15 -0.000556799 0 0)
(0.000205735 -0.000153452 -1.2425e-15 -0.000449606 0 0)
(0.000353233 -0.000129932 1.23599e-16 -0.000236797 0 0)
(0.000402388 -0.000112674 -6.39679e-16 -0.000116296 0 0)
(0.000490991 -8.81266e-05 2.35055e-15 -8.36061e-05 0 0)
(0.000587348 -6.75917e-05 9.95298e-16 -9.21731e-05 0 0)
(0.000678677 -5.22266e-05 -1.48319e-15 -0.000117739 0 0)
(0.000759048 -4.10901e-05 -1.72605e-15 -0.00014582 0 0)
(0.000824966 -3.31518e-05 5.22585e-15 -0.000166217 0 0)
(0.000873445 -2.78624e-05 -3.62557e-15 -0.000169783 0 0)
(0.000900905 -2.58921e-05 8.64543e-15 -0.000144807 0 0)
(0.000902522 -1.18347e-05 -9.8554e-15 -6.34193e-05 2.77377e-15 0)
(0.000916343 -2.45811e-05 1.35092e-15 -0.00010108 1.9361e-15 0)
(0.000935357 -4.06234e-05 4.59702e-15 -0.000154971 -4.55351e-15 0)
(0.000958531 -5.44017e-05 2.50668e-15 -0.000221363 -1.55983e-15 0)
(0.000994694 -5.50823e-05 5.44269e-16 -0.00031703 -6.29413e-15 0)
(0.00100766 -5.34772e-05 2.5804e-16 -0.000346655 -7.32108e-16 0)
(0.0010193 -4.92121e-05 -2.96421e-15 -0.00037402 6.96546e-15 0)
(0.00102952 -4.29712e-05 -9.03357e-15 -0.000398281 9.09971e-15 0)
(0.00103805 -3.52104e-05 7.6111e-16 -0.000418635 9.44354e-15 0)
(0.00104445 -2.64126e-05 3.87277e-15 -0.000434355 1.1749e-14 0)
(0.00104819 -1.72412e-05 -1.32273e-15 -0.000444826 6.65375e-15 0)
(0.00104862 -8.67669e-06 5.26922e-16 -0.000449617 -2.1272e-15 0)
(0.00104491 -2.16328e-06 -5.76796e-16 -0.000448604 -9.1714e-15 0)
(0.00105214 -5.09155e-07 2.09468e-15 -0.000456922 5.21799e-15 0)
(0.00109574 -1.07509e-05 -1.89302e-15 -0.000478911 -1.98328e-15 0)
(0.00118436 -1.99785e-05 -3.93565e-15 -0.000515603 -5.35054e-15 0)
(0.00130973 -2.81991e-05 -1.02652e-14 -0.00056515 3.56188e-15 0)
(0.00146477 -3.5755e-05 -6.41848e-16 -0.00062532 -1.58781e-15 0)
(0.00164229 -4.2382e-05 -1.66403e-14 -0.000693113 -5.66441e-15 0)
(0.00183119 -4.67967e-05 1.12724e-14 -0.000763583 -3.47812e-15 0)
(0.002011 -4.61363e-05 2.91065e-14 -0.000827946 1.49723e-14 0)
(0.00214295 -3.45494e-05 9.05417e-15 -0.000870201 -1.34219e-14 0)
(0.00209418 5.26719e-05 7.42245e-15 -0.000842636 -7.30644e-15 0)
(0.00183719 6.92414e-05 -1.07092e-15 -0.000758332 2.73869e-15 0)
(0.00144195 9.47156e-05 -3.61026e-15 -0.000623575 -1.68377e-15 0)
(0.000972296 0.000117203 -5.47251e-15 -0.000475167 -3.32416e-15 0)
(0.00103888 0.000464537 0 -0.000453746 -9.3133e-16 0)
(0.00127446 0.000470794 0 -0.000499773 -2.39934e-15 0)
(0.00147733 0.00048195 0 -0.000522869 -2.15648e-15 0)
(0.00166238 0.000497978 0 -0.000532484 -3.07046e-15 0)
(0.00184214 0.000518528 0 -0.000536409 -1.03769e-14 0)
(0.0020283 0.000542855 0 -0.000541941 6.08346e-15 0)
(0.00223277 0.000569593 0 -0.000556676 9.65699e-15 0)
(0.00246229 0.000598819 0 -0.000585884 -1.75001e-14 0)
(0.00273119 0.00062335 0 -0.000693649 -1.47441e-14 0)
(0.0040705 0.000412399 0 -0.00183641 2.46049e-14 0)
(0.00523951 7.43607e-05 0 -0.00309084 1.3249e-14 0)
(0.00658524 -0.000442541 0 -0.00480274 -3.59858e-14 0)
(0.00781037 -0.00100447 0 -0.00662232 -8.46784e-14 0)
(0.00122074 -0.000434261 6.95624e-15 -0.00064037 3.16587e-16 0)
(0.00114436 -0.000440146 -3.33067e-15 -0.000528504 1.04815e-15 0)
(0.0010918 -0.000441265 9.08128e-15 -0.000454032 9.1859e-16 0)
(0.00105595 -0.000419741 -3.31983e-15 -0.000404608 7.0446e-16 0)
(0.00103371 -0.000379243 -4.54064e-15 -0.000374164 1.82078e-16 0)
(0.00101997 -0.000326843 -1.02782e-15 -0.000355004 2.83316e-15 0)
(0.00100909 -0.000267044 1.02132e-15 -0.000339196 -8.11979e-15 0)
(0.000996451 -0.000199881 -4.19803e-15 -0.000320807 6.75424e-15 0)
(0.000980404 -0.00011951 -1.97542e-15 -0.000299079 1.84748e-15 0)
(0.00145537 -0.000497239 2.76688e-15 -0.00116714 4.9136e-15 0)
(0.0015926 -0.000378885 2.08817e-14 -0.00115028 -5.01498e-15 0)
(0.00169682 -0.00027143 -1.66794e-14 -0.00112339 4.28748e-15 0)
(0.00177782 -0.000176098 2.99565e-15 -0.00108888 5.1749e-15 0)
(0.00184259 -9.60003e-05 4.65014e-15 -0.00104895 1.7293e-16 0)
(0.00189825 -3.46461e-05 -1.64473e-15 -0.00100711 -5.29579e-15 0)
(0.00195327 5.39735e-06 1.50596e-14 -0.000968729 -9.14525e-15 0)
(0.00201815 2.38961e-05 6.01353e-15 -0.000941085 -1.20433e-14 0)
(0.00210608 2.51029e-05 -5.19441e-15 -0.000933417 6.74916e-15 0)
(0.00748192 -0.00214763 -8.29398e-14 -0.00617551 5.89204e-14 0)
(0.00480252 -0.00265288 1.0044e-14 -0.00307706 4.66207e-16 0)
(0.00187844 -0.00155839 -3.64184e-15 -0.00028537 -2.12547e-14 0)
(0.000786346 -0.000599573 -5.35162e-15 -0.000205321 -1.71846e-15 0)
(0.000209993 0.000104496 -2.02963e-15 -0.000424248 -7.11779e-16 0)
(0.000227762 0.000310813 -4.55365e-16 -0.000775877 -3.1721e-15 0)
(0.000354244 0.000359188 -1.14925e-16 -0.00117493 -1.04815e-15 0)
(0.000494764 0.000235732 5.41017e-15 -0.00150586 -1.26041e-14 0)
(0.000684147 -0.00019448 -4.05492e-15 -0.000390493 8.13152e-16 0)
(0.00100217 -0.000243273 3.77953e-15 -0.000607013 -6.76542e-16 0)
(0.00121388 -0.000257967 5.43836e-15 -0.000716172 -2.18792e-15 0)
(0.00134892 -0.000250456 8.30716e-15 -0.000745396 -1.37423e-15 0)
(0.000684147 -0.00019448 -4.05492e-15 -0.000390493 8.13152e-16 0)
(0.00100217 -0.000243273 3.77953e-15 -0.000607013 -6.76542e-16 0)
(0.00121388 -0.000257967 5.43836e-15 -0.000716172 -2.18792e-15 0)
(0.00134892 -0.000250456 8.30716e-15 -0.000745396 -1.37423e-15 0)
(0.00172173 -0.000135656 3.38596e-15 -0.000956528 2.7555e-15 0)
(0.00199534 -4.74212e-06 8.91756e-15 -0.00103379 -4.18285e-15 0)
(0.00229041 0.000115124 3.20924e-16 -0.00110449 1.45186e-14 0)
(0.0026533 9.81416e-05 4.82017e-14 -0.00112985 -1.53631e-14 0)
(0.0040705 0.000412399 0 -0.00183641 2.46049e-14 0)
(0.00523951 7.43607e-05 0 -0.00309084 1.3249e-14 0)
(0.00658524 -0.000442541 0 -0.00480274 -3.59858e-14 0)
(0.00781037 -0.00100447 0 -0.00662232 -8.46784e-14 0)
(0.00748192 -0.00214763 -8.29398e-14 -0.00617551 5.89204e-14 0)
(0.00480252 -0.00265288 1.0044e-14 -0.00307706 4.66207e-16 0)
(0.00187844 -0.00155839 -3.64184e-15 -0.00028537 -2.12547e-14 0)
(0.000786346 -0.000599573 -5.35162e-15 -0.000205321 -1.71846e-15 0)
(0.000209993 0.000104496 -2.02963e-15 -0.000424248 -7.11779e-16 0)
(0.000227762 0.000310813 -4.55365e-16 -0.000775877 -3.1721e-15 0)
(0.000354244 0.000359188 -1.14925e-16 -0.00117493 -1.04815e-15 0)
(0.000494764 0.000235732 5.41017e-15 -0.00150586 -1.26041e-14 0)
(0.00031958 -0.000170637 -3.22659e-15 -0.00103459 0 0)
(0.000221399 -0.000165051 -9.41087e-16 -0.000737528 0 0)
(0.000192644 -0.000159697 -1.17961e-15 -0.000556799 0 0)
(0.000205735 -0.000153452 -1.2425e-15 -0.000449606 0 0)
(0.000337792 -0.000189551 -4.90059e-16 -0.000417925 -3.26616e-16 0)
(0.000473552 -0.000392171 1.08637e-15 -0.00048502 -1.35003e-15 0)
(0.000696973 -0.000513149 -2.51969e-15 -0.000584468 1.16674e-15 0)
(0.000953776 -0.000544798 -8.01442e-15 -0.00065644 4.18936e-15 0)
(0.000353233 -0.000129932 1.23599e-16 -0.000236797 0 0)
(0.000402388 -0.000112674 -6.39679e-16 -0.000116296 0 0)
(0.000490991 -8.81266e-05 2.35055e-15 -8.36061e-05 0 0)
(0.000587348 -6.75917e-05 9.95298e-16 -9.21731e-05 0 0)
(0.000678677 -5.22266e-05 -1.48319e-15 -0.000117739 0 0)
(0.000759048 -4.10901e-05 -1.72605e-15 -0.00014582 0 0)
(0.000824966 -3.31518e-05 5.22585e-15 -0.000166217 0 0)
(0.000873445 -2.78624e-05 -3.62557e-15 -0.000169783 0 0)
(0.000900905 -2.58921e-05 8.64543e-15 -0.000144807 0 0)
(0.000902522 -1.18347e-05 -9.8554e-15 -6.34193e-05 2.77377e-15 0)
(0.000916343 -2.45811e-05 1.35092e-15 -0.00010108 1.9361e-15 0)
(0.000935357 -4.06234e-05 4.59702e-15 -0.000154971 -4.55351e-15 0)
(0.000958531 -5.44017e-05 2.50668e-15 -0.000221363 -1.55983e-15 0)
(0.000980404 -0.00011951 -1.97542e-15 -0.000299079 1.84748e-15 0)
(0.000996451 -0.000199881 -4.19803e-15 -0.000320807 6.75424e-15 0)
(0.00100909 -0.000267044 1.02132e-15 -0.000339196 -8.11979e-15 0)
(0.00101997 -0.000326843 -1.02782e-15 -0.000355004 2.83316e-15 0)
(0.00103371 -0.000379243 -4.54064e-15 -0.000374164 1.82078e-16 0)
(0.00105595 -0.000419741 -3.31983e-15 -0.000404608 7.0446e-16 0)
(0.0010918 -0.000441265 9.08128e-15 -0.000454032 9.1859e-16 0)
(0.00114436 -0.000440146 -3.33067e-15 -0.000528504 1.04815e-15 0)
(0.00122074 -0.000434261 6.95624e-15 -0.00064037 3.16587e-16 0)
(0.000994694 -5.50823e-05 5.44269e-16 -0.00031703 -6.29413e-15 0)
(0.00100766 -5.34772e-05 2.5804e-16 -0.000346655 -7.32108e-16 0)
(0.0010193 -4.92121e-05 -2.96421e-15 -0.00037402 6.96546e-15 0)
(0.00102952 -4.29712e-05 -9.03357e-15 -0.000398281 9.09971e-15 0)
(0.00103805 -3.52104e-05 7.6111e-16 -0.000418635 9.44354e-15 0)
(0.00104445 -2.64126e-05 3.87277e-15 -0.000434355 1.1749e-14 0)
(0.00104819 -1.72412e-05 -1.32273e-15 -0.000444826 6.65375e-15 0)
(0.00104862 -8.67669e-06 5.26922e-16 -0.000449617 -2.1272e-15 0)
(0.00104491 -2.16328e-06 -5.76796e-16 -0.000448604 -9.1714e-15 0)
(0.00105214 -5.09155e-07 2.09468e-15 -0.000456922 5.21799e-15 0)
(0.00109574 -1.07509e-05 -1.89302e-15 -0.000478911 -1.98328e-15 0)
(0.00118436 -1.99785e-05 -3.93565e-15 -0.000515603 -5.35054e-15 0)
(0.00130973 -2.81991e-05 -1.02652e-14 -0.00056515 3.56188e-15 0)
(0.00146477 -3.5755e-05 -6.41848e-16 -0.00062532 -1.58781e-15 0)
(0.00164229 -4.2382e-05 -1.66403e-14 -0.000693113 -5.66441e-15 0)
(0.00183119 -4.67967e-05 1.12724e-14 -0.000763583 -3.47812e-15 0)
(0.002011 -4.61363e-05 2.91065e-14 -0.000827946 1.49723e-14 0)
(0.00214295 -3.45494e-05 9.05417e-15 -0.000870201 -1.34219e-14 0)
(0.00210608 2.51029e-05 -5.19441e-15 -0.000933417 6.74916e-15 0)
(0.00201815 2.38961e-05 6.01353e-15 -0.000941085 -1.20433e-14 0)
(0.00195327 5.39735e-06 1.50596e-14 -0.000968729 -9.14525e-15 0)
(0.00189825 -3.46461e-05 -1.64473e-15 -0.00100711 -5.29579e-15 0)
(0.00184259 -9.60003e-05 4.65014e-15 -0.00104895 1.7293e-16 0)
(0.00177782 -0.000176098 2.99565e-15 -0.00108888 5.1749e-15 0)
(0.00169682 -0.00027143 -1.66794e-14 -0.00112339 4.28748e-15 0)
(0.0015926 -0.000378885 2.08817e-14 -0.00115028 -5.01498e-15 0)
(0.00145537 -0.000497239 2.76688e-15 -0.00116714 4.9136e-15 0)
(0.00209418 5.26719e-05 7.42245e-15 -0.000842636 -7.30644e-15 0)
(0.00183719 6.92414e-05 -1.07092e-15 -0.000758332 2.73869e-15 0)
(0.00144195 9.47156e-05 -3.61026e-15 -0.000623575 -1.68377e-15 0)
(0.000972296 0.000117203 -5.47251e-15 -0.000475167 -3.32416e-15 0)
(0.00103888 0.000464537 0 -0.000453746 -9.3133e-16 0)
(0.00127446 0.000470794 0 -0.000499773 -2.39934e-15 0)
(0.00147733 0.00048195 0 -0.000522869 -2.15648e-15 0)
(0.00166238 0.000497978 0 -0.000532484 -3.07046e-15 0)
(0.00184214 0.000518528 0 -0.000536409 -1.03769e-14 0)
(0.0020283 0.000542855 0 -0.000541941 6.08346e-15 0)
(0.00223277 0.000569593 0 -0.000556676 9.65699e-15 0)
(0.00246229 0.000598819 0 -0.000585884 -1.75001e-14 0)
(0.00273119 0.00062335 0 -0.000693649 -1.47441e-14 0)
(0.00621747 -0.00171458 2.98459e-14 -0.00480364 1.90006e-14 0)
(0.0048132 -0.00112257 2.18125e-14 -0.00308683 1.65612e-14 0)
(0.00375681 -0.000563816 4.19364e-14 -0.00196085 2.68991e-14 0)
(0.00307681 -0.00013187 1.78191e-14 -0.00136317 1.56201e-14 0)
(0.00345304 -0.00163818 3.83894e-14 -0.00212366 -1.84217e-14 0)
(0.00266422 -0.000873522 -1.27367e-14 -0.00126382 -9.18753e-15 0)
(0.00245867 -0.000401903 -3.70282e-14 -0.0011291 3.34368e-15 0)
(0.002373 -8.28176e-05 1.26228e-14 -0.00111447 9.11597e-15 0)
(0.00149527 -0.000816045 -2.20483e-14 -0.000517619 -7.30319e-15 0)
(0.00168464 -0.000496255 -3.19872e-14 -0.00075004 -2.97071e-16 0)
(0.001859 -0.000296113 -3.52366e-16 -0.00091505 -5.99889e-15 0)
(0.00196111 -0.000135499 7.66531e-16 -0.00100698 7.86047e-16 0)
(0.000991897 -0.000449363 -4.05383e-15 -0.000391403 1.90223e-15 0)
(0.00130441 -0.000356272 -1.73874e-14 -0.000660558 6.75458e-16 0)
(0.00151666 -0.000279474 6.77626e-16 -0.000826862 -5.25838e-17 0)
(0.001653 -0.000209827 9.90093e-15 -0.000921824 1.69136e-16 0)
(0.000475571 -1.28333e-05 -3.70797e-16 -0.000514789 8.13152e-19 0)
(0.000706846 -0.000208096 2.62377e-16 -0.000626706 -2.71809e-15 0)
(0.000860316 -0.000335444 -5.75928e-15 -0.000673208 -2.32128e-15 0)
(0.000971789 -0.000438848 -4.2067e-15 -0.000686665 -2.50071e-15 0)
(0.00043864 9.60821e-05 5.78964e-16 -0.000748042 -3.17265e-15 0)
(0.000556796 -0.00017589 5.46438e-16 -0.000717588 4.8247e-17 0)
(0.000650018 -0.000351043 -8.41341e-16 -0.000683846 -1.02809e-15 0)
(0.000730628 -0.000463632 -2.36356e-16 -0.000659014 -7.05138e-16 0)
(0.00047059 0.000116729 4.71845e-15 -0.000998888 -2.94524e-15 0)
(0.000455829 -0.000137822 5.76796e-16 -0.000810916 2.36492e-16 0)
(0.000472544 -0.000293863 9.34582e-16 -0.000679819 2.13046e-16 0)
(0.000508973 -0.000388635 1.36826e-15 -0.00059239 1.68986e-15 0)
(0.000482011 4.01213e-05 -2.07299e-15 -0.00117328 8.77729e-16 0)
(0.000364678 -0.00010022 -1.19479e-15 -0.000849891 2.17444e-15 0)
(0.000330844 -0.000179431 -8.45678e-16 -0.000648171 1.78202e-15 0)
(0.000342283 -0.000230469 -5.7029e-16 -0.000520661 3.83706e-16 0)
(0.000411282 -0.000190706 -3.59955e-16 -0.000218752 2.01611e-16 0)
(0.000560597 -0.000348441 -3.15286e-15 -0.000307603 -6.72612e-16 0)
(0.000775746 -0.000443568 5.96311e-15 -0.000427605 -6.31168e-15 0)
(0.00101465 -0.000462424 1.72822e-15 -0.000542794 -5.18452e-15 0)
(0.000471713 -0.000187118 -2.94686e-15 -0.000135339 9.61552e-16 0)
(0.000596245 -0.000335451 -5.7029e-16 -0.000223263 1.10019e-15 0)
(0.000772898 -0.000433175 2.28983e-15 -0.000340147 7.03139e-15 0)
(0.00097162 -0.00046831 -7.98623e-15 -0.000459721 -2.51847e-15 0)
(0.000548143 -0.00016526 2.40693e-16 -0.000111001 7.06544e-16 0)
(0.000642582 -0.000301939 2.61293e-15 -0.000182358 -7.9699e-16 0)
(0.000779992 -0.000401565 1.49837e-15 -0.000280976 1.05825e-15 0)
(0.000942214 -0.000453887 -5.68339e-15 -0.00039021 2.01052e-16 0)
(0.000630517 -0.000140405 1.63715e-15 -0.000118771 5.27109e-17 0)
(0.000699117 -0.000262178 1.1189e-15 -0.000173038 -1.44358e-15 0)
(0.00080208 -0.000357448 2.45897e-15 -0.000251104 3.91929e-15 0)
(0.000929926 -0.000417947 -4.33681e-16 -0.000343319 -1.83183e-15 0)
(0.000710481 -0.000117046 -1.95156e-15 -0.00014047 -1.01607e-15 0)
(0.000759236 -0.000222565 1.63281e-15 -0.000181245 -1.27758e-15 0)
(0.000834435 -0.000308588 4.05058e-15 -0.000241847 2.31172e-16 0)
(0.000931947 -0.000368498 7.82794e-16 -0.000316946 -6.59737e-16 0)
(0.000782139 -9.60232e-05 4.91577e-15 -0.000163415 -1.84845e-15 0)
(0.000816068 -0.000185183 1.17961e-15 -0.000194571 -2.51806e-16 0)
(0.000869624 -0.00025914 7.65447e-16 -0.000242105 3.71187e-15 0)
(0.000941597 -0.000312533 -2.54354e-15 -0.000303025 4.1569e-15 0)
(0.00084092 -7.6889e-05 -3.52149e-15 -0.000177611 8.19589e-17 0)
(0.00086345 -0.00014968 -5.05238e-16 -0.00020224 -1.15512e-15 0)
(0.000900283 -0.000209879 -4.14816e-15 -0.000241074 -5.99835e-16 0)
(0.000951569 -0.00025331 2.75821e-15 -0.000292023 7.47625e-16 0)
(0.000881938 -5.8547e-05 4.68375e-15 -0.000173097 -6.28498e-16 0)
(0.000894825 -0.000113321 2.66931e-15 -0.000193563 1.53659e-15 0)
(0.00091963 -0.000157786 5.52943e-16 -0.000228987 -2.4259e-16 0)
(0.000955648 -0.000189377 -2.57606e-15 -0.000275585 6.14201e-16 0)
(0.000895686 -3.78292e-05 1.91687e-15 -0.000134701 9.79831e-16 0)
(0.00090195 -6.81942e-05 -7.78457e-16 -0.000157352 -1.62928e-15 0)
(0.000921959 -9.43094e-05 -2.68665e-15 -0.000197712 -8.20368e-16 0)
(0.000949806 -0.000113079 3.89012e-15 -0.000248454 7.57722e-16 0)
(0.00136322 -0.000423287 -1.22732e-15 -0.000736133 -4.76236e-16 0)
(0.00147267 -0.000377861 -4.9071e-15 -0.000775375 2.80077e-15 0)
(0.00156775 -0.000322769 -3.86735e-15 -0.000802035 -1.02132e-15 0)
(0.00165139 -0.000265515 -5.90565e-15 -0.000818858 1.81712e-15 0)
(0.00172777 -0.000210437 6.77193e-15 -0.000829348 1.15386e-15 0)
(0.00180205 -0.000159977 1.04951e-14 -0.000837657 6.35668e-15 0)
(0.00188024 -0.000114974 4.15792e-15 -0.00084849 7.26849e-15 0)
(0.00196866 -7.46383e-05 -1.36165e-14 -0.000866834 -4.39752e-15 0)
(0.0020729 -3.66725e-05 1.33682e-15 -0.000897196 -8.30716e-15 0)
(0.00124847 -0.000438661 5.22585e-16 -0.000602523 -2.65521e-15 0)
(0.00134151 -0.000413332 8.92298e-16 -0.00063893 1.2219e-15 0)
(0.00143078 -0.000379159 1.97758e-15 -0.000671196 -3.18647e-15 0)
(0.00151635 -0.000338547 -2.74303e-16 -0.000699562 -3.13009e-15 0)
(0.00159966 -0.000293397 3.25261e-15 -0.000725318 -3.81043e-15 0)
(0.00168303 -0.000244755 6.67869e-16 -0.000750427 -3.53884e-15 0)
(0.00176925 -0.000192685 1.03455e-14 -0.000777228 3.34639e-15 0)
(0.00186127 -0.000136215 1.18167e-14 -0.000808184 1.38732e-14 0)
(0.00196206 -7.32581e-05 2.1387e-14 -0.000845732 5.60261e-15 0)
(0.00117644 -0.000442331 -3.14419e-15 -0.000514933 2.44515e-15 0)
(0.00125497 -0.000423412 2.75387e-16 -0.000549776 -2.01851e-15 0)
(0.001333 -0.000397082 -7.71952e-16 -0.000583369 1.56572e-15 0)
(0.00141027 -0.000363591 -6.50521e-17 -0.000615618 -8.44865e-16 0)
(0.00148704 -0.000323196 -4.03106e-15 -0.000646844 -2.94713e-15 0)
(0.00156392 -0.000275889 -3.41524e-16 -0.000677678 2.26137e-15 0)
(0.00164175 -0.00022125 -5.6964e-15 -0.000708914 -3.55293e-15 0)
(0.00172138 -0.000158358 -2.69316e-15 -0.000741359 -1.10244e-14 0)
(0.00180342 -8.57867e-05 8.70723e-15 -0.000775646 -2.97126e-15 0)
(0.00112595 -0.00042225 1.53306e-15 -0.000455894 -4.1773e-15 0)
(0.0011914 -0.000406933 -3.26345e-15 -0.000489515 -7.53995e-15 0)
(0.00125669 -0.000384597 3.4521e-15 -0.000522453 -4.08785e-15 0)
(0.00132151 -0.000355017 4.62087e-15 -0.000554549 9.49897e-16 0)
(0.00138563 -0.00031795 1.08203e-15 -0.000585727 2.29377e-15 0)
(0.00144891 -0.000273051 -1.19262e-16 -0.000615973 2.39663e-15 0)
(0.0015112 -0.000219811 -6.26669e-16 -0.000645288 3.45698e-15 0)
(0.00157232 -0.000157519 4.30428e-15 -0.000673619 2.32209e-15 0)
(0.00163193 -8.52587e-05 -1.03845e-14 -0.000700791 -3.76056e-15 0)
(0.00108972 -0.000382015 1.33574e-15 -0.000417138 -6.0943e-15 0)
(0.00114208 -0.000369435 6.02383e-15 -0.000448262 2.95594e-15 0)
(0.00119396 -0.000350161 2.14455e-15 -0.000478714 -3.68873e-15 0)
(0.00124493 -0.000323974 -4.33681e-18 -0.000508223 -1.02971e-14 0)
(0.00129452 -0.000290612 1.75641e-16 -0.000536487 -5.36938e-15 0)
(0.00134222 -0.000249756 -3.83157e-15 -0.000563169 -7.80083e-16 0)
(0.00138744 -0.000201001 -3.76001e-15 -0.000587884 9.26993e-17 0)
(0.00142955 -0.00014385 -2.69533e-15 -0.00061018 -1.68051e-15 0)
(0.00146778 -7.77042e-05 -9.03791e-15 -0.000629521 1.87865e-15 0)
(0.00106247 -0.000328651 6.93889e-17 -0.000390738 1.92215e-15 0)
(0.00110209 -0.000318075 9.62772e-16 -0.000418351 8.8521e-15 0)
(0.00114097 -0.00030145 -1.5851e-15 -0.000445296 8.18708e-15 0)
(0.00117857 -0.000278676 1.57643e-15 -0.000471183 1.59269e-15 0)
(0.00121426 -0.000249623 2.10118e-15 -0.000495559 5.3092e-15 0)
(0.00124733 -0.000214121 3.03577e-15 -0.000517904 4.85384e-15 0)
(0.00127696 -0.000171937 5.72676e-15 -0.000537618 1.91335e-15 0)
(0.00130224 -0.000122763 3.69062e-15 -0.000554023 1.38805e-15 0)
(0.00132217 -6.61949e-05 -2.51318e-15 -0.000566362 6.79984e-15 0)
(0.0010394 -0.000266896 1.14492e-15 -0.000369194 -4.28856e-15 0)
(0.00106772 -0.000257553 -2.56089e-15 -0.000393381 -6.48949e-15 0)
(0.00109525 -0.000243145 -2.48716e-15 -0.000416978 -2.33334e-15 0)
(0.0011214 -0.000223715 -1.88651e-16 -0.000439508 7.34005e-16 0)
(0.00114545 -0.000199305 -9.69277e-16 -0.000460428 -1.24236e-15 0)
(0.00116657 -0.000169943 -5.36463e-15 -0.000479117 -3.72681e-15 0)
(0.00118381 -0.000135629 -4.19369e-15 -0.000494851 1.56396e-16 0)
(0.00119604 -9.62896e-05 -6.42498e-15 -0.000506782 -2.97803e-15 0)
(0.00120197 -5.1721e-05 -5.05238e-15 -0.000513928 -6.55482e-15 0)
(0.00101713 -0.000197189 1.91036e-15 -0.000347339 5.75034e-15 0)
(0.00103689 -0.000188672 -2.30718e-15 -0.000369616 6.69969e-15 0)
(0.00105592 -0.000176376 1.06035e-15 -0.000391238 4.83635e-15 0)
(0.00107357 -0.00016041 6.37511e-16 -0.000411682 2.86812e-15 0)
(0.0010892 -0.000140941 -1.79761e-15 -0.000430438 3.62395e-15 0)
(0.00110206 -0.000118222 -7.15573e-16 -0.000446916 9.17235e-16 0)
(0.00111117 -9.25797e-05 -2.71051e-16 -0.000460387 -6.38595e-16 0)
(0.00111529 -6.43688e-05 1.72171e-15 -0.000469932 6.55942e-16 0)
(0.0011128 -3.38826e-05 1.0842e-16 -0.00047437 -1.71196e-15 0)
(0.000996301 -0.000114364 3.01191e-15 -0.000325947 1.25164e-15 0)
(0.00101208 -0.000107887 1.11456e-15 -0.000349659 5.4305e-16 0)
(0.00102635 -9.91299e-05 1.73472e-16 -0.000371785 -1.64528e-16 0)
(0.00103913 -8.80263e-05 4.93312e-15 -0.000392164 3.10082e-15 0)
(0.00105008 -7.48051e-05 2.1619e-15 -0.000410429 -4.01453e-15 0)
(0.00105866 -5.98901e-05 2.18575e-15 -0.000426099 -7.47449e-15 0)
(0.00106413 -4.39055e-05 1.57209e-15 -0.000438592 -6.16789e-15 0)
(0.00106543 -2.77344e-05 6.28837e-17 -0.000447187 -1.49701e-15 0)
(0.0010611 -1.26381e-05 -2.89048e-15 -0.000450922 5.247e-15 0)
(0.00246165 0.000258685 4.47532e-15 -0.000981523 -9.05634e-15 0)
(0.00229599 0.000332377 6.6982e-15 -0.000908336 -7.43763e-16 0)
(0.0021319 0.000370574 1.36569e-15 -0.000842454 2.44162e-15 0)
(0.00197423 0.00039424 -2.67161e-15 -0.000792793 -3.70797e-15 0)
(0.00181447 0.00039422 -1.26228e-15 -0.000742714 -9.1691e-15 0)
(0.00164917 0.000371866 -3.97482e-15 -0.00068935 -1.26656e-14 0)
(0.00147233 0.000326578 -2.87639e-15 -0.000628361 -1.06133e-14 0)
(0.00127645 0.00025419 -3.39681e-15 -0.000554074 -5.16948e-15 0)
(0.00105242 0.000145536 -4.35131e-15 -0.000459391 -9.8554e-16 0)
(0.00227698 0.000254938 -1.86461e-14 -0.00108913 8.61399e-15 0)
(0.00221414 0.00034203 -3.85109e-15 -0.00105282 -3.85868e-15 0)
(0.00212997 0.000402541 1.85941e-15 -0.000998918 -2.26056e-15 0)
(0.00203245 0.000441048 3.6581e-15 -0.000941796 1.28261e-15 0)
(0.00192549 0.000455578 7.49726e-15 -0.000883437 -1.79869e-15 0)
(0.00180882 0.000439397 2.48754e-14 -0.000819944 3.14527e-15 0)
(0.00168567 0.000389914 -1.014e-15 -0.000753594 2.14564e-15 0)
(0.0015595 0.000303246 -3.01652e-15 -0.000686677 -6.54858e-16 0)
(0.00143545 0.000174428 -6.62176e-16 -0.000622686 -2.76797e-15 0)
(0.00206566 0.000106173 -1.71044e-14 -0.00104871 -1.04192e-15 0)
(0.00207204 0.000188863 -3.11686e-14 -0.00104257 6.27645e-15 0)
(0.00205967 0.00025992 1.18953e-14 -0.00102188 2.0383e-16 0)
(0.00202984 0.000314028 7.01425e-15 -0.000988411 -3.78387e-16 0)
(0.00198451 0.000345474 1.36631e-14 -0.00094452 -1.03216e-15 0)
(0.00192975 0.000349309 -4.74501e-15 -0.000894735 -4.65014e-15 0)
(0.00187264 0.000321192 -2.07836e-14 -0.000844353 -1.38778e-16 0)
(0.00182128 0.000257114 -2.84766e-15 -0.000799449 -2.17816e-15 0)
(0.00178488 0.000153269 2.69424e-15 -0.000766989 3.48137e-15 0)
(0.00184273 -5.35928e-05 1.97303e-14 -0.000985511 -1.12107e-15 0)
(0.00190361 1.83865e-05 1.40654e-14 -0.000997613 7.67453e-15 0)
(0.00194315 8.60372e-05 -5.9024e-15 -0.000994642 9.9584e-15 0)
(0.0019638 0.000144599 -3.54859e-15 -0.000978365 7.19422e-15 0)
(0.00196991 0.000188231 -2.59612e-14 -0.000951704 1.08632e-14 0)
(0.00196796 0.000211316 -2.9165e-15 -0.000919216 5.83247e-15 0)
(0.00196655 0.000209121 -1.57779e-14 -0.000887114 6.95624e-15 0)
(0.00197619 0.000178 -2.53248e-14 -0.000863193 -1.61329e-15 0)
(0.00200943 0.000114898 -1.39293e-14 -0.000856894 3.50631e-15 0)
(0.00621747 -0.00171458 2.98459e-14 -0.00480364 1.90006e-14 0)
(0.0048132 -0.00112257 2.18125e-14 -0.00308683 1.65612e-14 0)
(0.00375681 -0.000563816 4.19364e-14 -0.00196085 2.68991e-14 0)
(0.00307681 -0.00013187 1.78191e-14 -0.00136317 1.56201e-14 0)
(0.00345304 -0.00163818 3.83894e-14 -0.00212366 -1.84217e-14 0)
(0.00266422 -0.000873522 -1.27367e-14 -0.00126382 -9.18753e-15 0)
(0.00245867 -0.000401903 -3.70282e-14 -0.0011291 3.34368e-15 0)
(0.002373 -8.28176e-05 1.26228e-14 -0.00111447 9.11597e-15 0)
(0.00149527 -0.000816045 -2.20483e-14 -0.000517619 -7.30319e-15 0)
(0.00168464 -0.000496255 -3.19872e-14 -0.00075004 -2.97071e-16 0)
(0.001859 -0.000296113 -3.52366e-16 -0.00091505 -5.99889e-15 0)
(0.00196111 -0.000135499 7.66531e-16 -0.00100698 7.86047e-16 0)
(0.000991897 -0.000449363 -4.05383e-15 -0.000391403 1.90223e-15 0)
(0.00130441 -0.000356272 -1.73874e-14 -0.000660558 6.75458e-16 0)
(0.00151666 -0.000279474 6.77626e-16 -0.000826862 -5.25838e-17 0)
(0.001653 -0.000209827 9.90093e-15 -0.000921824 1.69136e-16 0)
(0.000475571 -1.28333e-05 -3.70797e-16 -0.000514789 8.13152e-19 0)
(0.000706846 -0.000208096 2.62377e-16 -0.000626706 -2.71809e-15 0)
(0.000860316 -0.000335444 -5.75928e-15 -0.000673208 -2.32128e-15 0)
(0.000971789 -0.000438848 -4.2067e-15 -0.000686665 -2.50071e-15 0)
(0.00043864 9.60821e-05 5.78964e-16 -0.000748042 -3.17265e-15 0)
(0.000556796 -0.00017589 5.46438e-16 -0.000717588 4.8247e-17 0)
(0.000650018 -0.000351043 -8.41341e-16 -0.000683846 -1.02809e-15 0)
(0.000730628 -0.000463632 -2.36356e-16 -0.000659014 -7.05138e-16 0)
(0.00047059 0.000116729 4.71845e-15 -0.000998888 -2.94524e-15 0)
(0.000455829 -0.000137822 5.76796e-16 -0.000810916 2.36492e-16 0)
(0.000472544 -0.000293863 9.34582e-16 -0.000679819 2.13046e-16 0)
(0.000508973 -0.000388635 1.36826e-15 -0.00059239 1.68986e-15 0)
(0.000482011 4.01213e-05 -2.07299e-15 -0.00117328 8.77729e-16 0)
(0.000364678 -0.00010022 -1.19479e-15 -0.000849891 2.17444e-15 0)
(0.000330844 -0.000179431 -8.45678e-16 -0.000648171 1.78202e-15 0)
(0.000342283 -0.000230469 -5.7029e-16 -0.000520661 3.83706e-16 0)
(0.000411282 -0.000190706 -3.59955e-16 -0.000218752 2.01611e-16 0)
(0.000560597 -0.000348441 -3.15286e-15 -0.000307603 -6.72612e-16 0)
(0.000775746 -0.000443568 5.96311e-15 -0.000427605 -6.31168e-15 0)
(0.00101465 -0.000462424 1.72822e-15 -0.000542794 -5.18452e-15 0)
(0.000471713 -0.000187118 -2.94686e-15 -0.000135339 9.61552e-16 0)
(0.000596245 -0.000335451 -5.7029e-16 -0.000223263 1.10019e-15 0)
(0.000772898 -0.000433175 2.28983e-15 -0.000340147 7.03139e-15 0)
(0.00097162 -0.00046831 -7.98623e-15 -0.000459721 -2.51847e-15 0)
(0.000548143 -0.00016526 2.40693e-16 -0.000111001 7.06544e-16 0)
(0.000642582 -0.000301939 2.61293e-15 -0.000182358 -7.9699e-16 0)
(0.000779992 -0.000401565 1.49837e-15 -0.000280976 1.05825e-15 0)
(0.000942214 -0.000453887 -5.68339e-15 -0.00039021 2.01052e-16 0)
(0.000630517 -0.000140405 1.63715e-15 -0.000118771 5.27109e-17 0)
(0.000699117 -0.000262178 1.1189e-15 -0.000173038 -1.44358e-15 0)
(0.00080208 -0.000357448 2.45897e-15 -0.000251104 3.91929e-15 0)
(0.000929926 -0.000417947 -4.33681e-16 -0.000343319 -1.83183e-15 0)
(0.000710481 -0.000117046 -1.95156e-15 -0.00014047 -1.01607e-15 0)
(0.000759236 -0.000222565 1.63281e-15 -0.000181245 -1.27758e-15 0)
(0.000834435 -0.000308588 4.05058e-15 -0.000241847 2.31172e-16 0)
(0.000931947 -0.000368498 7.82794e-16 -0.000316946 -6.59737e-16 0)
(0.000782139 -9.60232e-05 4.91577e-15 -0.000163415 -1.84845e-15 0)
(0.000816068 -0.000185183 1.17961e-15 -0.000194571 -2.51806e-16 0)
(0.000869624 -0.00025914 7.65447e-16 -0.000242105 3.71187e-15 0)
(0.000941597 -0.000312533 -2.54354e-15 -0.000303025 4.1569e-15 0)
(0.00084092 -7.6889e-05 -3.52149e-15 -0.000177611 8.19589e-17 0)
(0.00086345 -0.00014968 -5.05238e-16 -0.00020224 -1.15512e-15 0)
(0.000900283 -0.000209879 -4.14816e-15 -0.000241074 -5.99835e-16 0)
(0.000951569 -0.00025331 2.75821e-15 -0.000292023 7.47625e-16 0)
(0.000881938 -5.8547e-05 4.68375e-15 -0.000173097 -6.28498e-16 0)
(0.000894825 -0.000113321 2.66931e-15 -0.000193563 1.53659e-15 0)
(0.00091963 -0.000157786 5.52943e-16 -0.000228987 -2.4259e-16 0)
(0.000955648 -0.000189377 -2.57606e-15 -0.000275585 6.14201e-16 0)
(0.000895686 -3.78292e-05 1.91687e-15 -0.000134701 9.79831e-16 0)
(0.00090195 -6.81942e-05 -7.78457e-16 -0.000157352 -1.62928e-15 0)
(0.000921959 -9.43094e-05 -2.68665e-15 -0.000197712 -8.20368e-16 0)
(0.000949806 -0.000113079 3.89012e-15 -0.000248454 7.57722e-16 0)