/*--------------------------------*- C++ -*----------------------------------*\
| =========                 |                                                 |
| \\      /  F ield         | OpenFOAM: The Open Source CFD Toolbox           |
|  \\    /   O peration     | Version:  v2012                                 |
|   \\  /    A nd           | Website:  www.openfoam.com                      |
|    \\/     M anipulation  |                                                 |
\*---------------------------------------------------------------------------*/
FoamFile
{
    version     2.0;
    format      ascii;
    class       volScalarField;
    location    "14";
    object      sigmaEq;
}
// * * * * * * * * * * * * * * * * * * * * * * * * * * * * * * * * * * * * * //

dimensions      [1 -1 -2 0 0 0 0];


internalField   nonuniform List<scalar> 
500
(
7.03555e+07
9.86239e+07
1.08841e+08
1.27696e+08
1.31502e+08
1.46655e+08
1.44842e+08
1.58227e+08
1.55138e+08
1.65839e+08
8.91921e+07
1.12632e+08
1.21777e+08
1.38673e+08
1.36275e+08
1.51397e+08
1.43926e+08
1.58252e+08
1.50615e+08
1.62991e+08
1.09496e+08
1.36268e+08
1.30742e+08
1.3472e+08
1.39078e+08
1.41812e+08
1.43963e+08
1.47581e+08
1.47835e+08
1.49741e+08
1.00947e+08
8.47212e+07
1.04107e+08
1.01685e+08
1.18149e+08
1.16856e+08
1.29944e+08
1.27111e+08
1.37797e+08
1.3257e+08
5.11706e+07
5.49259e+07
7.70756e+07
8.26455e+07
9.76748e+07
1.01256e+08
1.11685e+08
1.12944e+08
1.2041e+08
1.18592e+08
1.92506e+07
3.85923e+07
5.31619e+07
6.49473e+07
7.3619e+07
8.10984e+07
8.45896e+07
9.10164e+07
8.79276e+07
9.91736e+07
4.36064e+07
4.8991e+07
4.83475e+07
6.14901e+07
6.28229e+07
7.40243e+07
7.46589e+07
8.35697e+07
8.56487e+07
9.06334e+07
7.42324e+07
6.66902e+07
5.60142e+07
6.23432e+07
5.68566e+07
6.62566e+07
6.34677e+07
7.12031e+07
7.02447e+07
7.5191e+07
9.83242e+07
8.07966e+07
6.73396e+07
6.26726e+07
5.3319e+07
5.6085e+07
4.99487e+07
5.45192e+07
5.10246e+07
5.51792e+07
1.13301e+08
7.87639e+07
7.21518e+07
5.54141e+07
5.05943e+07
4.25347e+07
3.94415e+07
3.57461e+07
3.47671e+07
3.30199e+07
3.79367e+07
2.4899e+07
5.34276e+07
3.89178e+07
7.62844e+07
5.67702e+07
9.67612e+07
7.32007e+07
1.11453e+08
8.64739e+07
2.90107e+07
2.59053e+07
4.70337e+07
4.00345e+07
6.92213e+07
5.62983e+07
8.95999e+07
7.08612e+07
1.05481e+08
8.20891e+07
2.88519e+07
2.96391e+07
4.31138e+07
4.13921e+07
6.19983e+07
5.55219e+07
8.06169e+07
6.88097e+07
9.66737e+07
7.97826e+07
3.25628e+07
3.4616e+07
4.23802e+07
4.3584e+07
5.70958e+07
5.52409e+07
7.28272e+07
6.6979e+07
8.75851e+07
7.75129e+07
3.77476e+07
3.99598e+07
4.41344e+07
4.64876e+07
5.48565e+07
5.56535e+07
6.72761e+07
6.55472e+07
7.97723e+07
7.50912e+07
4.30905e+07
4.49692e+07
4.72085e+07
4.95926e+07
5.46772e+07
5.65169e+07
6.39265e+07
6.44675e+07
7.37783e+07
7.25934e+07
4.78278e+07
4.90743e+07
5.05103e+07
5.22601e+07
5.55657e+07
5.7313e+07
6.21315e+07
6.3437e+07
6.94386e+07
6.99848e+07
5.14234e+07
5.17389e+07
5.31462e+07
5.37961e+07
5.6458e+07
5.73758e+07
6.09442e+07
6.19887e+07
6.61336e+07
6.70878e+07
5.33861e+07
5.22572e+07
5.42484e+07
5.33182e+07
5.62599e+07
5.60392e+07
5.93925e+07
5.96801e+07
6.31259e+07
6.37814e+07
5.31299e+07
4.8851e+07
5.23231e+07
5.03181e+07
5.40869e+07
5.28877e+07
5.67808e+07
5.64328e+07
6.00431e+07
6.05454e+07
1.21148e+08
1.06366e+08
1.24209e+08
1.13261e+08
1.26521e+08
1.18372e+08
1.28373e+08
1.22399e+08
1.29958e+08
1.25831e+08
1.31485e+08
1.29124e+08
1.33263e+08
1.3278e+08
1.35743e+08
1.37356e+08
1.39538e+08
1.4342e+08
1.45374e+08
1.51364e+08
1.02645e+08
9.52921e+07
1.07914e+08
1.0103e+08
1.12107e+08
1.06188e+08
1.15631e+08
1.10886e+08
1.18824e+08
1.15355e+08
1.22001e+08
1.1988e+08
1.25485e+08
1.24772e+08
1.29612e+08
1.30353e+08
1.34727e+08
1.36951e+08
1.41143e+08
1.44923e+08
9.47276e+07
8.91421e+07
9.90468e+07
9.38632e+07
1.02999e+08
9.84171e+07
1.06655e+08
1.02825e+08
1.10156e+08
1.07176e+08
1.13673e+08
1.11599e+08
1.17392e+08
1.16247e+08
1.21506e+08
1.21289e+08
1.26213e+08
1.26892e+08
1.31715e+08
1.33209e+08
8.86731e+07
8.44155e+07
9.2396e+07
8.8479e+07
9.59128e+07
9.24075e+07
9.92463e+07
9.62206e+07
1.02454e+08
9.99573e+07
1.05618e+08
1.03674e+08
1.08836e+08
1.07442e+08
1.12215e+08
1.11339e+08
1.15872e+08
1.15452e+08
1.19927e+08
1.19871e+08
8.32107e+07
8.02739e+07
8.65014e+07
8.37523e+07
8.95751e+07
8.70553e+07
9.24503e+07
9.01945e+07
9.5156e+07
9.31848e+07
9.77317e+07
9.60462e+07
1.00227e+08
9.88038e+07
1.02702e+08
1.01489e+08
1.05227e+08
1.04143e+08
1.07885e+08
1.06818e+08
7.83147e+07
7.64916e+07
8.11444e+07
7.93648e+07
8.37452e+07
8.20443e+07
8.61265e+07
8.45276e+07
8.82997e+07
8.68106e+07
9.02792e+07
8.88876e+07
9.20833e+07
9.07518e+07
9.37365e+07
9.23983e+07
9.52728e+07
9.38273e+07
9.67413e+07
9.50522e+07
7.40073e+07
7.29051e+07
7.63194e+07
7.51814e+07
7.84304e+07
7.72843e+07
8.03371e+07
7.91988e+07
8.20355e+07
8.09046e+07
8.3519e+07
8.23752e+07
8.47789e+07
8.35769e+07
8.58057e+07
8.44677e+07
8.65916e+07
8.50005e+07
8.71384e+07
8.513e+07
7.01049e+07
6.93227e+07
7.19198e+07
7.11118e+07
7.35956e+07
7.27744e+07
7.51183e+07
7.42812e+07
7.64685e+07
7.56016e+07
7.76229e+07
7.66982e+07
7.8551e+07
7.75195e+07
7.92117e+07
7.79937e+07
7.95506e+07
7.80228e+07
7.95024e+07
7.74795e+07
6.63631e+07
6.57473e+07
6.78658e+07
6.73579e+07
6.93012e+07
6.88442e+07
7.06247e+07
7.01847e+07
7.18123e+07
7.13552e+07
7.28386e+07
7.23218e+07
7.36667e+07
7.30335e+07
7.42403e+07
7.34132e+07
7.44736e+07
7.33428e+07
7.42393e+07
7.26382e+07
6.2956e+07
6.31048e+07
6.46771e+07
6.49834e+07
6.62072e+07
6.67061e+07
6.75968e+07
6.8253e+07
6.8846e+07
6.9584e+07
6.99335e+07
7.06515e+07
7.08254e+07
7.14039e+07
7.14754e+07
7.17876e+07
7.18198e+07
7.17478e+07
7.17689e+07
7.1237e+07
1.63985e+08
1.66056e+08
1.68093e+08
1.52459e+08
1.54153e+08
1.39206e+08
1.41787e+08
1.28529e+08
1.31175e+08
1.18217e+08
1.21517e+08
1.07612e+08
1.12062e+08
9.60393e+07
1.02066e+08
8.28119e+07
9.07598e+07
6.7404e+07
7.73948e+07
5.06348e+07
1.57934e+08
1.6317e+08
1.61438e+08
1.58226e+08
1.64866e+08
1.51781e+08
1.58729e+08
1.44042e+08
1.50637e+08
1.36078e+08
1.4135e+08
1.26854e+08
1.30728e+08
1.16305e+08
1.1841e+08
1.04467e+08
1.03857e+08
9.17994e+07
8.65715e+07
7.9981e+07
1.52941e+08
1.51708e+08
1.55399e+08
1.51632e+08
1.582e+08
1.50268e+08
1.58132e+08
1.4778e+08
1.53564e+08
1.43848e+08
1.47084e+08
1.38618e+08
1.39006e+08
1.32317e+08
1.29671e+08
1.25348e+08
1.19664e+08
1.18461e+08
1.10232e+08
1.12986e+08
1.43604e+08
1.36541e+08
1.46987e+08
1.40124e+08
1.48873e+08
1.42297e+08
1.49141e+08
1.43136e+08
1.47661e+08
1.42759e+08
1.44663e+08
1.41381e+08
1.40566e+08
1.39367e+08
1.36018e+08
1.37297e+08
1.32018e+08
1.36034e+08
1.30078e+08
1.36767e+08
1.27382e+08
1.25885e+08
1.32889e+08
1.30694e+08
1.36682e+08
1.34032e+08
1.38853e+08
1.3636e+08
1.39587e+08
1.37936e+08
1.39225e+08
1.3903e+08
1.38293e+08
1.40048e+08
1.37558e+08
1.41629e+08
1.38114e+08
1.44759e+08
1.41517e+08
1.50963e+08
)
;

boundaryField
{
    back
    {
        type            empty;
    }
    front
    {
        type            empty;
    }
    left
    {
        type            calculated;
        value           nonuniform List<scalar> 
15
(
7.03555e+07
1.08841e+08
1.31502e+08
1.44842e+08
1.55138e+08
1.63985e+08
1.68093e+08
1.54153e+08
1.41787e+08
1.31175e+08
1.21517e+08
1.12062e+08
1.02066e+08
9.07598e+07
7.73948e+07
)
;
    }
    hole
    {
        type            calculated;
        value           nonuniform List<scalar> 10(7.03555e+07 8.91921e+07 1.09496e+08 1.00947e+08 5.11706e+07 1.92506e+07 4.36064e+07 7.42324e+07 9.83242e+07 1.13301e+08);
    }
    down
    {
        type            calculated;
        value           nonuniform List<scalar> 
15
(
7.87639e+07
5.54141e+07
4.25347e+07
3.57461e+07
3.30199e+07
3.79367e+07
2.90107e+07
2.88519e+07
3.25628e+07
3.77476e+07
4.30905e+07
4.78278e+07
5.14234e+07
5.33861e+07
5.31299e+07
)
;
    }
    right
    {
        type            calculated;
        value           nonuniform List<scalar> 
15
(
4.8851e+07
5.03181e+07
5.28877e+07
5.64328e+07
6.05454e+07
6.31048e+07
6.49834e+07
6.67061e+07
6.8253e+07
6.9584e+07
7.06515e+07
7.14039e+07
7.17876e+07
7.17478e+07
7.1237e+07
)
;
    }
    up
    {
        type            calculated;
        value           nonuniform List<scalar> 
15
(
1.51364e+08
1.44923e+08
1.33209e+08
1.19871e+08
1.06818e+08
9.50522e+07
8.513e+07
7.74795e+07
7.26382e+07
7.1237e+07
5.06348e+07
7.9981e+07
1.12986e+08
1.36767e+08
1.50963e+08
)
;
    }
}


// ************************************************************************* //
