/*--------------------------------*- C++ -*----------------------------------*\
| =========                 |                                                 |
| \\      /  F ield         | OpenFOAM: The Open Source CFD Toolbox           |
|  \\    /   O peration     | Version:  v2012                                 |
|   \\  /    A nd           | Website:  www.openfoam.com                      |
|    \\/     M anipulation  |                                                 |
\*---------------------------------------------------------------------------*/
FoamFile
{
    version     2.0;
    format      ascii;
    class       volScalarField;
    location    "6";
    object      epsilonEq;
}
// * * * * * * * * * * * * * * * * * * * * * * * * * * * * * * * * * * * * * //

dimensions      [0 0 0 0 0 0 0];


internalField   nonuniform List<scalar> 
470
(
0.000450023
0.000432856
0.000995085
0.000700994
0.000922488
0.000917047
0.000854643
0.000901573
0.0013502
0.000987298
0.00131596
0.00151426
0.00148506
0.000690365
0.00150191
0.00118071
0.000973593
0.00063415
0.000586863
0.000521809
0.0011891
0.000788027
0.00101534
0.000684773
0.00155739
0.000784001
0.00140702
0.00106398
0.000901746
0.000663623
0.000508756
0.0015897
0.000994321
0.00170321
0.000948859
0.00092157
0.00148565
0.000531035
0.00058906
0.000581369
0.00131998
0.000550496
0.00150053
0.00116741
0.00113607
0.00141898
0.00068538
0.00141142
0.00128741
0.00141912
0.00151601
0.00167709
0.0006711
0.0005799
0.000751369
0.000780174
0.0010437
0.000746747
0.00113361
0.00107753
0.000809716
0.00144994
0.00147351
0.00159413
0.000938506
0.001462
0.000670933
0.000818142
0.000978442
0.00112269
0.000352522
0.000960649
0.00174878
0.000947022
0.00159562
0.000745035
0.00091733
0.000902125
0.00103149
0.00141423
0.0012026
0.00170286
0.00102725
0.000866885
0.00138816
0.000780015
0.00156528
0.00128012
0.0014908
0.00160506
0.00164821
0.00149401
0.000951114
0.000901181
0.00145754
0.00147634
0.000819945
0.000881211
0.000938515
0.000954516
0.000767663
0.00130121
0.00170772
0.000724289
0.000711225
0.000872495
0.000856736
0.000837364
0.000669461
0.00178906
0.00146894
0.00184596
0.000731936
0.000903547
0.00103561
0.00104218
0.000678
0.001426
0.000827839
0.000446817
0.000936426
0.000728172
0.000659393
0.000675824
0.000861737
0.00112361
0.00111703
0.000780792
0.00148063
0.00071601
0.000762288
0.000804433
0.000864143
0.000764613
0.000795695
0.000982702
0.000963245
0.0014136
0.00147546
0.000887135
0.000897874
0.00163136
0.000811279
0.000851896
0.000856982
0.00054335
0.000695498
0.00153261
0.000793072
0.00154294
0.000615557
0.000677511
0.00101988
0.000746683
0.00194354
0.00117747
0.00103671
0.000761879
0.00079545
0.000958162
0.00205651
0.00140928
0.000993608
0.00158716
0.00129925
0.00127134
0.00122511
0.00145415
0.00103594
0.00128737
0.00123696
0.000862661
0.000879122
0.000906327
0.000870848
0.000817585
0.000627694
0.000397538
0.00147815
0.00111431
0.00114807
0.00142466
0.00096415
0.00111031
0.0011231
0.0013644
0.000915231
0.000273056
0.00123773
0.00071517
0.000892268
0.000765603
0.00105762
0.00101763
0.000495268
0.000633098
0.00103019
0.000954133
0.000966498
0.00345738
0.00041382
0.000313016
0.00236996
0.00133579
0.00110373
0.00113007
0.000564366
0.000586469
0.00141818
0.00124815
0.00076906
0.0010146
0.000680476
0.000677977
0.00139045
0.00127825
0.000806549
0.000683807
0.000739707
0.00136938
0.000750585
0.000610415
0.000926829
0.000700121
0.00142183
0.000924365
0.00134127
0.000474688
0.00151746
0.00140623
0.00132947
0.000757105
0.000676685
0.000872517
0.00112206
0.000886644
0.000889915
0.000846257
0.000834565
0.000717367
0.00071696
0.000698309
0.000868762
0.00177136
0.00151738
0.00119681
0.00121348
0.000831645
0.000522415
0.000921963
0.000900102
0.00105843
0.000646977
0.000886512
0.00122597
0.000505142
0.000634021
0.000684725
0.000868526
0.000405367
0.00102423
0.00152704
0.000291532
0.00058007
0.000596317
0.000674571
0.00088649
0.0006434
0.000657959
0.00116399
0.000995831
0.000898461
0.00159721
0.00109634
0.00102817
0.00142705
0.00150986
0.00104468
0.00140172
0.000826612
0.000952209
0.00119491
0.000837436
0.00121187
0.000682515
0.000709539
0.00120547
0.00124312
0.00075129
0.000688728
0.00101149
0.00112506
0.000586984
0.00133817
0.00129962
0.000772623
0.000757967
0.000941216
0.00126414
0.000671734
0.000825142
0.000698395
0.000820446
0.000820427
0.00157862
0.00109937
0.000857794
0.000834978
0.000848505
0.000917801
0.00159141
0.00155059
0.00295523
0.000837351
0.00118483
0.00150384
0.00115792
0.000602536
0.00134718
0.000736911
0.00131532
0.00069289
0.000782026
0.00071991
0.00130317
0.000615598
0.00103504
0.00112494
0.000895294
0.000864238
0.000734087
0.000560848
0.00112859
0.00114109
0.00070335
0.00104174
0.000503874
0.000736896
0.00139544
0.000889055
0.00066768
0.0018152
0.00142263
0.000548489
0.000824099
0.00126117
0.00140169
0.000792929
0.000664604
0.000880849
0.00049867
0.000908506
0.00118915
0.00123356
0.0012153
0.000296097
0.0011632
0.000937332
0.000671811
0.000307688
0.000678696
0.00070026
0.000834423
0.0010409
0.00218213
0.000887516
0.00066833
0.00129525
0.000350477
0.000879552
0.00071507
0.00092215
0.00105209
0.000706445
0.000603026
0.000784901
0.000448659
0.00086175
0.00224855
0.000729195
0.00109507
0.00163808
0.000731658
0.000735608
0.000803013
0.00244509
0.00134675
0.00132389
0.00118766
0.000715285
0.00176009
0.000646785
0.000978946
0.00175649
0.000875768
0.000685348
0.000683348
0.000881557
0.00146009
0.00106916
0.0014023
0.00214618
0.000973021
0.000603234
0.00164476
0.0012469
0.00154148
0.000948934
0.000654991
0.00062816
0.000879445
0.000885326
0.000595775
0.00106621
0.00097548
0.00153387
0.000760278
0.000830164
0.00138676
0.000451717
0.00100139
0.00049924
0.00103599
0.000732798
0.00100419
0.00170149
0.00135711
0.00133616
0.00148062
0.00107476
0.00143923
0.0015262
0.0011868
0.00127723
0.000434518
0.00059867
0.000698442
0.000891941
0.00084117
0.00119383
0.00144191
0.00146579
0.000709167
0.00137586
0.00123577
0.00157913
0.00146979
0.000938783
0.000432901
0.000842335
0.00106628
0.00133636
0.00125492
0.000827954
0.000806955
0.000764015
0.00128344
0.00128997
0.000816838
0.000707393
0.000992557
0.000984156
0.000654424
0.00129722
0.0012171
0.00126787
0.000757236
0.000724226
0.00119982
0.00125477
)
;

boundaryField
{
    back
    {
        type            empty;
    }
    front
    {
        type            empty;
    }
    down
    {
        type            calculated;
        value           nonuniform List<scalar> 
15
(
0.000550496
0.000352522
0.000678
0.000446817
0.000273056
0.000680476
0.000405367
0.000291532
0.0006434
0.000671734
0.00049867
0.000448659
0.000683348
0.000654991
0.000595775
)
;
    }
    right
    {
        type            calculated;
        value           nonuniform List<scalar> 10(0.000745035 0.000675824 0.000861737 0.000795695 0.000646977 0.000886512 0.00070026 0.000834423 0.00062816 0.000885326);
    }
    up
    {
        type            calculated;
        value           nonuniform List<scalar> 
20
(
0.0015897
0.00113607
0.00151601
0.000746747
0.000903547
0.00148063
0.000993608
0.00158716
0.000995831
0.00159721
0.000941216
0.00131532
0.00139544
0.00142263
0.00123356
0.0012153
0.000731658
0.000881557
0.000879445
0.00106621
)
;
    }
    left
    {
        type            calculated;
        value           nonuniform List<scalar> 5(0.0010437 0.00141423 0.00236996 0.00121348 0.0018152);
    }
    hole
    {
        type            calculated;
        value           nonuniform List<scalar> 8(0.00128012 0.00103671 0.00345738 0.00124815 0.000698395 0.00295523 0.00218213 0.000784901);
    }
}


// ************************************************************************* //
