/*--------------------------------*- C++ -*----------------------------------*\
| =========                 |                                                 |
| \\      /  F ield         | OpenFOAM: The Open Source CFD Toolbox           |
|  \\    /   O peration     | Version:  v2012                                 |
|   \\  /    A nd           | Website:  www.openfoam.com                      |
|    \\/     M anipulation  |                                                 |
\*---------------------------------------------------------------------------*/
FoamFile
{
    version     2.0;
    format      ascii;
    class       pointSymmTensorField;
    location    "6";
    object      pEpsilon;
}
// * * * * * * * * * * * * * * * * * * * * * * * * * * * * * * * * * * * * * //

dimensions      [0 0 0 0 0 0 0];


internalField   nonuniform List<symmTensor> 
530
(
(0.000348745 -9.15354e-05 0 -0.0013906 0 0)
(0.000901603 -1.57002e-05 0 -0.000109428 0 0)
(0.00104156 -1.99689e-06 0 -0.000447759 0 0)
(0.000959633 0.000140172 0 -0.00047939 0 0)
(0.00395009 -1.99377e-05 0 -0.00116777 -7.58942e-18 0)
(0.000348745 -9.15354e-05 0 -0.0013906 0 0)
(0.000901603 -1.57002e-05 0 -0.000109428 0 0)
(0.00104156 -1.99689e-06 0 -0.000447759 0 0)
(0.000959633 0.000140172 0 -0.00047939 0 0)
(0.00395009 -1.99377e-05 0 -0.00116777 -7.58942e-18 0)
(0.000271841 -9.58436e-05 0 -0.000688563 0 0)
(0.00022554 -0.000117031 0 -0.000347664 0 0)
(0.000265538 -8.67701e-05 0 -0.000193587 0 0)
(0.000362094 -8.70446e-05 0 -0.00014205 0 0)
(0.000470124 -7.85439e-05 0 -0.00014217 0 0)
(0.000547139 -5.66865e-05 0 -0.000143138 0 0)
(0.000624586 -5.05065e-05 0 -0.00014652 0 0)
(0.000686033 -3.69645e-05 0 -0.000166334 0 0)
(0.000756169 -3.11835e-05 0 -0.000182176 0 0)
(0.000807244 -2.36404e-05 0 -0.000205993 0 0)
(0.000858084 -2.62767e-05 0 -0.000212658 0 0)
(0.000889849 -3.40446e-05 0 -0.000215162 0 0)
(0.000908307 -2.26711e-05 0 -0.000202612 0 0)
(0.000911689 -1.30371e-05 0 -0.000163252 0 0)
(0.000927715 -8.16324e-06 0 -0.000125297 8.47033e-21 0)
(0.00092376 -1.42931e-05 0 -0.000148278 0 0)
(0.00094446 -2.75826e-05 0 -0.000191263 -3.38813e-20 0)
(0.000954969 -3.03599e-05 0 -0.000233636 0 0)
(0.000982288 -3.37158e-05 0 -0.000296426 0 0)
(0.00100471 -3.23616e-05 0 -0.00035367 0 0)
(0.00101575 -2.49087e-05 0 -0.000394076 0 0)
(0.00103389 -1.28857e-05 0 -0.00043191 0 0)
(0.00103572 -5.62027e-06 0 -0.000445489 0 0)
(0.00104437 -3.13657e-06 0 -0.000451061 0 0)
(0.00105786 -1.54299e-05 0 -0.000454592 0 0)
(0.00109442 -3.17696e-05 0 -0.000474065 0 0)
(0.00114517 -2.97904e-05 0 -0.000493111 0 0)
(0.00121967 -3.49318e-05 0 -0.00052301 0 0)
(0.00129033 -5.11079e-05 0 -0.000540807 0 0)
(0.00139323 -4.69988e-05 0 -0.000588397 0 0)
(0.00148352 -5.55291e-05 0 -0.000606571 0 0)
(0.00159882 -5.76929e-05 0 -0.000656532 0 0)
(0.00168283 -6.4775e-05 0 -0.000668856 0 0)
(0.00178677 -4.23155e-05 0 -0.000735232 0 0)
(0.00186462 -2.25074e-05 0 -0.000817934 0 0)
(0.00183426 4.1604e-06 0 -0.00071646 0 0)
(0.00181465 4.42767e-05 0 -0.000755988 0 0)
(0.00169649 8.8202e-05 0 -0.000716664 0 0)
(0.00154048 0.000117331 0 -0.000680883 0 0)
(0.00132142 0.000122684 0 -0.000615178 0 0)
(0.00106501 8.08121e-05 0 -0.000534645 0 0)
(0.00091663 9.07385e-05 -6.77626e-20 -0.000449491 0 0)
(0.00130991 0.000117294 0 -0.000503585 0 0)
(0.00162018 0.000118158 0 -0.000535994 0 0)
(0.00197947 9.80825e-05 0 -0.000632946 0 0)
(0.00265303 3.4071e-05 0 -0.000892665 -1.0842e-18 0)
(0.00363652 -0.000696752 -1.0842e-18 -0.00128674 0 0)
(0.00264327 -0.00101916 -2.71051e-18 -0.000730002 1.0842e-18 0)
(0.00159543 -0.000991855 -1.0842e-18 -0.000400715 0 0)
(0.000837743 -0.000523708 0 -0.000327869 0 0)
(0.000420424 -0.00017256 0 -0.000582316 2.71051e-19 0)
(0.000356813 9.25038e-05 0 -0.000946328 0 0)
(0.000379882 0.000133417 0 -0.00127572 -1.35525e-19 0)
(0.000271841 -9.58436e-05 0 -0.000688563 0 0)
(0.00022554 -0.000117031 0 -0.000347664 0 0)
(0.000265538 -8.67701e-05 0 -0.000193587 0 0)
(0.000362094 -8.70446e-05 0 -0.00014205 0 0)
(0.000470124 -7.85439e-05 0 -0.00014217 0 0)
(0.000547139 -5.66865e-05 0 -0.000143138 0 0)
(0.000624586 -5.05065e-05 0 -0.00014652 0 0)
(0.000686033 -3.69645e-05 0 -0.000166334 0 0)
(0.000756169 -3.11835e-05 0 -0.000182176 0 0)
(0.000807244 -2.36404e-05 0 -0.000205993 0 0)
(0.000858084 -2.62767e-05 0 -0.000212658 0 0)
(0.000889849 -3.40446e-05 0 -0.000215162 0 0)
(0.000908307 -2.26711e-05 0 -0.000202612 0 0)
(0.000911689 -1.30371e-05 0 -0.000163252 0 0)
(0.000927715 -8.16324e-06 0 -0.000125297 8.47033e-21 0)
(0.00092376 -1.42931e-05 0 -0.000148278 0 0)
(0.00094446 -2.75826e-05 0 -0.000191263 -3.38813e-20 0)
(0.000954969 -3.03599e-05 0 -0.000233636 0 0)
(0.000982288 -3.37158e-05 0 -0.000296426 0 0)
(0.00100471 -3.23616e-05 0 -0.00035367 0 0)
(0.00101575 -2.49087e-05 0 -0.000394076 0 0)
(0.00103389 -1.28857e-05 0 -0.00043191 0 0)
(0.00103572 -5.62027e-06 0 -0.000445489 0 0)
(0.00104437 -3.13657e-06 0 -0.000451061 0 0)
(0.00105786 -1.54299e-05 0 -0.000454592 0 0)
(0.00109442 -3.17696e-05 0 -0.000474065 0 0)
(0.00114517 -2.97904e-05 0 -0.000493111 0 0)
(0.00121967 -3.49318e-05 0 -0.00052301 0 0)
(0.00129033 -5.11079e-05 0 -0.000540807 0 0)
(0.00139323 -4.69988e-05 0 -0.000588397 0 0)
(0.00148352 -5.55291e-05 0 -0.000606571 0 0)
(0.00159882 -5.76929e-05 0 -0.000656532 0 0)
(0.00168283 -6.4775e-05 0 -0.000668856 0 0)
(0.00178677 -4.23155e-05 0 -0.000735232 0 0)
(0.00186462 -2.25074e-05 0 -0.000817934 0 0)
(0.00183426 4.1604e-06 0 -0.00071646 0 0)
(0.00181465 4.42767e-05 0 -0.000755988 0 0)
(0.00169649 8.8202e-05 0 -0.000716664 0 0)
(0.00154048 0.000117331 0 -0.000680883 0 0)
(0.00132142 0.000122684 0 -0.000615178 0 0)
(0.00106501 8.08121e-05 0 -0.000534645 0 0)
(0.00091663 9.07385e-05 -6.77626e-20 -0.000449491 0 0)
(0.00130991 0.000117294 0 -0.000503585 0 0)
(0.00162018 0.000118158 0 -0.000535994 0 0)
(0.00197947 9.80825e-05 0 -0.000632946 0 0)
(0.00265303 3.4071e-05 0 -0.000892665 -1.0842e-18 0)
(0.00363652 -0.000696752 -1.0842e-18 -0.00128674 0 0)
(0.00264327 -0.00101916 -2.71051e-18 -0.000730002 1.0842e-18 0)
(0.00159543 -0.000991855 -1.0842e-18 -0.000400715 0 0)
(0.000837743 -0.000523708 0 -0.000327869 0 0)
(0.000420424 -0.00017256 0 -0.000582316 2.71051e-19 0)
(0.000356813 9.25038e-05 0 -0.000946328 0 0)
(0.000379882 0.000133417 0 -0.00127572 -1.35525e-19 0)
(0.00115381 -0.000426418 0 -0.000609369 0 0)
(0.000985874 -0.000270535 0 -0.000348232 0 0)
(0.00171123 -2.7972e-05 0 -0.000926395 0 0)
(0.00120378 -0.000317877 0 -0.000504234 0 0)
(0.000812239 -0.000334509 0 -0.000292287 0 0)
(0.00105872 -0.000146766 0 -0.000403976 0 0)
(0.000928847 -0.00013785 0 -0.000263526 6.77626e-20 0)
(0.00184841 0.000294161 0 -0.000783573 0 0)
(0.00068143 -0.000477709 0 -0.000504382 -6.77626e-20 0)
(0.00153923 -0.000175066 0 -0.000730566 0 0)
(0.000832546 -0.000203886 0 -0.000239439 0 0)
(0.00117474 -0.000224356 0 -0.000487598 0 0)
(0.000627916 -0.000330553 0 -0.000248569 0 0)
(0.00122871 -0.000446831 0 -0.000796499 0 0)
(0.000989694 -0.000133293 0 -0.000320976 0 0)
(0.00143896 -0.000225251 0 -0.000633258 0 0)
(0.00100492 -0.000339729 0 -0.000386802 0 0)
(0.00103433 -0.000395631 0 -0.000437294 0 0)
(0.00172594 0.000229834 0 -0.000807143 0 0)
(0.0018829 -7.4379e-05 0 -0.000907737 0 0)
(0.000862527 -0.000112006 0 -0.000230123 0 0)
(0.00115022 -0.000127742 0 -0.000476169 0 0)
(0.000923174 -4.84693e-05 0 -0.000203448 0 0)
(0.00106091 -5.3119e-05 0 -0.000434459 0 0)
(0.00142093 -0.000306013 0 -0.000817067 0 0)
(0.00169832 3.73539e-05 0 -0.000797308 0 0)
(0.00133189 -0.000190362 0 -0.000570325 0 0)
(0.000711494 -0.000182854 0 -0.000192854 0 0)
(0.00100822 -0.000204258 0 -0.000349864 0 0)
(0.000917931 -0.000209678 0 -0.000283847 0 0)
(0.00150794 0.000237564 0 -0.000564953 1.0842e-18 0)
(0.00126543 -0.000340054 0 -0.000586035 0 0)
(0.000948937 -9.12862e-05 0 -0.000252606 0 0)
(0.00102486 -8.96872e-05 0 -0.000374019 0 0)
(0.00108773 -0.000222401 0 -0.000423375 0 0)
(0.0022468 5.75307e-05 2.71051e-19 -0.000755902 0 0)
(0.000870838 -0.000430313 0 -0.000404128 6.77626e-20 0)
(0.000605993 -0.000201583 0 -0.000170883 0 0)
(0.000414627 -0.000302925 0 -0.000271205 0 0)
(0.000342774 -0.000253429 0 -0.000524751 0 0)
(0.00105264 -0.000479133 0 -0.000645531 0 0)
(0.000716609 -0.000382982 0 -0.000686697 0 0)
(0.00111367 -0.000300024 0 -0.000442766 0 0)
(0.000849037 -0.000281755 0 -0.000270189 0 0)
(0.00163114 -0.000119161 0 -0.000728932 0 0)
(0.00156142 0.000294967 0 -0.000676433 0 0)
(0.00142756 -0.000179308 0 -0.000617946 0 0)
(0.000898256 -6.83583e-05 0 -0.00022503 0 0)
(0.00109324 -6.77186e-05 0 -0.000457412 0 0)
(0.00142977 -0.000375151 0 -0.000781853 0 0)
(0.000796566 -0.000104394 0 -0.000207404 0 0)
(0.00121545 -0.000135408 0 -0.000508862 0 0)
(0.000741344 -0.000460922 0 -0.000407499 0 0)
(0.00160354 -0.000133014 0 -0.000837438 0 0)
(0.00133859 -0.000333483 0 -0.000693407 0 0)
(0.00183421 0.000198404 0 -0.000887254 0 0)
(0.00170247 -2.88064e-05 0 -0.00076426 0 0)
(0.00214336 -0.000112478 0 -0.000812644 0 0)
(0.00096416 -0.000161709 0 -0.00029951 0 0)
(0.00107846 -0.000271275 0 -0.000413832 0 0)
(0.000919565 -0.000260167 0 -0.000298089 0 0)
(0.000467841 -0.000190214 0 -0.000169606 -8.47033e-21 0)
(0.000742769 -0.000361381 0 -0.000288744 0 0)
(0.00165036 -0.000177123 0 -0.000954267 0 0)
(0.000967243 -7.49804e-05 0 -0.000282821 0 0)
(0.00172376 0.000115537 0 -0.000779155 0 0)
(0.00144388 -0.000241497 0 -0.000671173 0 0)
(0.00179862 0.000111921 1.35525e-19 -0.000588777 0 0)
(0.00129395 -0.000121559 0 -0.000551061 0 0)
(0.000735998 -8.66179e-05 2.1684e-18 -0.000181957 0 0)
(0.00107567 -0.000358593 0 -0.000442584 0 0)
(0.0013035 -0.000301674 0 -0.000579394 0 0)
(0.000953751 -0.000363555 0 -0.000367144 0 0)
(0.000941699 -0.000399562 -1.0842e-18 -0.000691539 0 0)
(0.00101787 -0.00015933 0 -0.000362501 0 0)
(0.00103324 -4.92664e-05 0 -0.000405898 0 0)
(0.000931867 -5.14486e-05 0 -0.000205445 3.38813e-20 0)
(0.00172506 0.000104992 0 -0.000865808 0 0)
(0.00157808 -0.000125413 0 -0.000681315 0 0)
(0.00094392 -0.000480199 0 -0.000662777 0 0)
(0.000973165 -0.000228457 0 -0.00032524 0 0)
(0.000916241 -2.73708e-05 0 -0.000176788 0 0)
(0.00104633 -1.64021e-05 0 -0.000437783 0 0)
(0.00103115 -0.000304238 0 -0.000388164 0 0)
(0.000998851 -7.45615e-05 0 -0.000333139 0 0)
(0.000309146 -0.000216125 0 -0.000346142 0 0)
(0.000890743 -0.000394894 0 -0.000365963 0 0)
(0.00130955 -0.000261473 -1.0842e-18 -0.000559682 0 0)
(0.00122103 -0.000275936 0 -0.000500897 0 0)
(0.000626991 -0.000128009 0 -0.000160616 0 0)
(0.000695184 -0.000246508 0 -0.000211162 0 0)
(0.000868172 -0.0001801 0 -0.000250644 0 0)
(0.000791208 -0.000233662 0 -0.000232697 0 0)
(0.000907115 -0.000159617 0 -0.000259189 0 0)
(0.00112624 -0.000399853 0 -0.000524999 0 0)
(0.00116658 -0.000362718 0 -0.000511086 0 0)
(0.00103135 -0.000239032 0 -0.000374817 0 0)
(0.00104822 -9.85549e-05 0 -0.00040883 0 0)
(0.000931865 -9.43226e-05 0 -0.000237291 0 0)
(0.00161812 0.000230241 0 -0.000717733 0 0)
(0.00137435 0.000227612 0 -0.000577017 0 0)
(0.00151326 -0.000490537 0 -0.000635281 0 0)
(0.00109881 -0.000164623 0 -0.00043592 0 0)
(0.000828925 -5.53301e-05 0 -0.000212149 0 0)
(0.00126047 -0.000419422 0 -0.000781098 0 0)
(0.00118293 -7.21651e-05 0 -0.000503867 0 0)
(0.00175525 4.3728e-05 0 -0.000769787 0 0)
(0.00115123 -0.00019071 0 -0.00047053 0 0)
(0.000956631 -0.000462492 0 -0.000517631 0 0)
(0.000913003 -3.98677e-05 0 -0.000211059 -1.69407e-20 0)
(0.00107566 -3.555e-05 0 -0.000450002 0 0)
(0.000929323 -0.000298703 0 -0.000320295 0 0)
(0.00104867 -0.000193278 0 -0.000393764 0 0)
(0.00194483 0.000159528 0 -0.00086206 0 0)
(0.00171778 0.000303203 0 -0.000772449 0 0)
(0.00157386 -0.000205348 0 -0.000902548 0 0)
(0.00120136 0.000104205 0 -0.000455845 0 0)
(0.00142933 -0.00011393 0 -0.000607615 0 0)
(0.00179898 -1.88944e-06 0 -0.000966544 0 0)
(0.000444957 -0.000132908 0 -0.000761404 0 0)
(0.000960959 -0.000124198 0 -0.000287392 0 0)
(0.00121542 -0.000407937 0 -0.000665148 0 0)
(0.000945868 -0.000187582 0 -0.000293101 0 0)
(0.00260979 -0.000480773 -5.42101e-19 -0.00100753 -1.0842e-18 0)
(0.00182699 0.000281829 2.71051e-19 -0.00067895 0 0)
(0.00163041 -5.95342e-05 0 -0.000802789 0 0)
(0.0012532 -0.000214325 0 -0.000512558 0 0)
(0.000896299 -0.000119339 0 -0.000243136 0 0)
(0.00107787 -0.000113257 -2.1684e-18 -0.000433266 0 0)
(0.00291156 -0.000223838 2.43945e-18 -0.00104856 3.25261e-18 0)
(0.000512858 -0.000140478 0 -0.000150857 0 0)
(0.000609225 -0.000441804 0 -0.000398463 0 0)
(0.00038659 -0.000161412 0 -0.000185566 8.47033e-21 0)
(0.000332941 -4.76363e-05 0 -0.000841036 0 0)
(0.000538856 -0.000419871 0 -0.000550957 0 0)
(0.00155839 -0.00011127 0 -0.000662758 0 0)
(0.00125442 -0.000364488 0 -0.000611636 0 0)
(0.000672986 -8.57924e-05 0 -0.000161398 8.47033e-21 0)
(0.000458507 -0.00037488 0 -0.000406252 -6.77626e-20 0)
(0.00206545 0.000187881 0 -0.000783025 0 0)
(0.00111435 -0.000326959 0 -0.000451238 0 0)
(0.000946253 -5.01614e-05 0 -0.000230182 0 0)
(0.00101395 -4.89852e-05 0 -0.000372944 0 0)
(0.00112894 -6.41799e-05 0 -0.000477542 0 0)
(0.000856393 -0.000480742 0 -0.000518695 0 0)
(0.000868689 -4.85616e-05 0 -0.000218285 -1.69407e-20 0)
(0.00225507 -9.66246e-06 4.06576e-19 -0.000717019 0 0)
(0.00101276 -0.000120199 0 -0.000352216 0 0)
(0.00147234 9.61622e-05 6.77626e-20 -0.000478424 0 0)
(0.000493812 -0.000145221 0 -0.000641834 0 0)
(0.000883381 -0.000326881 0 -0.000310969 0 0)
(0.00163766 0.000323251 0 -0.000678916 0 0)
(0.00077694 -0.000161761 0 -0.000212672 0 0)
(0.000596294 -0.000262323 0 -0.000190788 0 0)
(0.00139265 -0.000237785 0 -0.000607716 0 0)
(0.00076301 -0.000420338 0 -0.000352871 0 0)
(0.00148465 -0.00024849 0 -0.000779079 0 0)
(0.000769855 -0.000277389 0 -0.000247497 0 0)
(0.0017776 0.000134241 0 -0.000901421 0 0)
(0.0010056 -0.000438625 0 -0.000494931 0 0)
(0.00175286 -6.10941e-05 0 -0.000778727 0 0)
(0.000464381 -0.000291345 0 -0.000224169 0 0)
(0.00115993 -0.000264289 0 -0.000468823 0 0)
(0.000232784 -0.000108024 0 -0.000490551 0 0)
(0.00167613 6.48074e-06 0 -0.000842409 0 0)
(0.00161545 -0.000107584 0 -0.000741383 0 0)
(0.00103221 -0.000125471 0 -0.000381158 0 0)
(0.00104359 -2.3527e-05 0 -0.000425894 0 0)
(0.00091764 -2.89508e-05 0 -0.000177277 1.69407e-20 0)
(0.00202144 -0.000631197 -5.42101e-19 -0.000729618 0 0)
(0.000995224 -0.000174132 0 -0.000331972 0 0)
(0.000917148 -8.83411e-05 0 -0.000232114 0 0)
(0.00138332 -0.000278537 0 -0.000637552 0 0)
(0.00137827 -9.69328e-05 0 -0.000597476 0 0)
(0.00167596 -0.000224246 0 -0.000909536 0 0)
(0.00113226 -0.000239644 0 -0.000451174 0 0)
(0.00152249 -0.000184158 0 -0.000688091 0 0)
(0.000885709 -0.000226941 0 -0.000272795 0 0)
(0.00111092 -0.000111604 0 -0.00045767 0 0)
(0.000863393 -0.000254823 0 -0.000268259 0 0)
(0.000944485 -0.00024199 0 -0.000304207 0 0)
(0.000972577 -0.000424248 0 -0.000442339 0 0)
(0.0014469 -0.000330073 0 -0.000904116 0 0)
(0.00148648 -0.00017818 0 -0.0006397 0 0)
(0.00148018 0.000197316 0 -0.000644799 0 0)
(0.000893269 -0.000399069 0 -0.000519325 0 0)
(0.000997925 -0.000455989 0 -0.000747895 0 0)
(0.000615958 -0.000387056 0 -0.000309571 -3.38813e-20 0)
(0.00118053 0.000161697 0 -0.000465754 0 0)
(0.00166123 0.000158681 0 -0.00072542 0 0)
(0.000832563 -0.000150694 0 -0.000227997 0 0)
(0.000786556 -5.30691e-05 0 -0.00019297 0 0)
(0.000292654 -0.000142361 0 -0.000233482 0 0)
(0.00167872 -6.32027e-05 0 -0.000723729 0 0)
(0.00142932 -0.000275712 0 -0.000722031 0 0)
(0.0012437 -7.59288e-05 0 -0.000530568 0 0)
(0.0010623 -0.000325339 0 -0.000421945 0 0)
(0.000975277 -0.000197457 0 -0.000322846 0 0)
(0.00122078 -0.000184438 0 -0.000509374 0 0)
(0.0014672 -0.000336989 0 -0.000906604 0 0)
(0.000912729 -2.58417e-05 0 -0.000191109 -8.47033e-21 0)
(0.00105162 -1.51242e-05 0 -0.000447328 0 0)
(0.00151033 -9.85812e-05 0 -0.00064426 0 0)
(0.000946343 -0.000125952 0 -0.000270066 0 0)
(0.000914058 -7.91962e-06 0 -0.000138923 1.27055e-20 0)
(0.00104229 -4.23743e-06 0 -0.00044567 0 0)
(0.00134662 -0.000307044 0 -0.00065175 0 0)
(0.00115381 -0.000426418 0 -0.000609369 0 0)
(0.000985874 -0.000270535 0 -0.000348232 0 0)
(0.00171123 -2.7972e-05 0 -0.000926395 0 0)
(0.00120378 -0.000317877 0 -0.000504234 0 0)
(0.000812239 -0.000334509 0 -0.000292287 0 0)
(0.00105872 -0.000146766 0 -0.000403976 0 0)
(0.000928847 -0.00013785 0 -0.000263526 6.77626e-20 0)
(0.00184841 0.000294161 0 -0.000783573 0 0)
(0.00068143 -0.000477709 0 -0.000504382 -6.77626e-20 0)
(0.00153923 -0.000175066 0 -0.000730566 0 0)
(0.000832546 -0.000203886 0 -0.000239439 0 0)
(0.00117474 -0.000224356 0 -0.000487598 0 0)
(0.000627916 -0.000330553 0 -0.000248569 0 0)
(0.00122871 -0.000446831 0 -0.000796499 0 0)
(0.000989694 -0.000133293 0 -0.000320976 0 0)
(0.00143896 -0.000225251 0 -0.000633258 0 0)
(0.00100492 -0.000339729 0 -0.000386802 0 0)
(0.00103433 -0.000395631 0 -0.000437294 0 0)
(0.00172594 0.000229834 0 -0.000807143 0 0)
(0.0018829 -7.4379e-05 0 -0.000907737 0 0)
(0.000862527 -0.000112006 0 -0.000230123 0 0)
(0.00115022 -0.000127742 0 -0.000476169 0 0)
(0.000923174 -4.84693e-05 0 -0.000203448 0 0)
(0.00106091 -5.3119e-05 0 -0.000434459 0 0)
(0.00142093 -0.000306013 0 -0.000817067 0 0)
(0.00169832 3.73539e-05 0 -0.000797308 0 0)
(0.00133189 -0.000190362 0 -0.000570325 0 0)
(0.000711494 -0.000182854 0 -0.000192854 0 0)
(0.00100822 -0.000204258 0 -0.000349864 0 0)
(0.000917931 -0.000209678 0 -0.000283847 0 0)
(0.00150794 0.000237564 0 -0.000564953 1.0842e-18 0)
(0.00126543 -0.000340054 0 -0.000586035 0 0)
(0.000948937 -9.12862e-05 0 -0.000252606 0 0)
(0.00102486 -8.96872e-05 0 -0.000374019 0 0)
(0.00108773 -0.000222401 0 -0.000423375 0 0)
(0.0022468 5.75307e-05 2.71051e-19 -0.000755902 0 0)
(0.000870838 -0.000430313 0 -0.000404128 6.77626e-20 0)
(0.000605993 -0.000201583 0 -0.000170883 0 0)
(0.000414627 -0.000302925 0 -0.000271205 0 0)
(0.000342774 -0.000253429 0 -0.000524751 0 0)
(0.00105264 -0.000479133 0 -0.000645531 0 0)
(0.000716609 -0.000382982 0 -0.000686697 0 0)
(0.00111367 -0.000300024 0 -0.000442766 0 0)
(0.000849037 -0.000281755 0 -0.000270189 0 0)
(0.00163114 -0.000119161 0 -0.000728932 0 0)
(0.00156142 0.000294967 0 -0.000676433 0 0)
(0.00142756 -0.000179308 0 -0.000617946 0 0)
(0.000898256 -6.83583e-05 0 -0.00022503 0 0)
(0.00109324 -6.77186e-05 0 -0.000457412 0 0)
(0.00142977 -0.000375151 0 -0.000781853 0 0)
(0.000796566 -0.000104394 0 -0.000207404 0 0)
(0.00121545 -0.000135408 0 -0.000508862 0 0)
(0.000741344 -0.000460922 0 -0.000407499 0 0)
(0.00160354 -0.000133014 0 -0.000837438 0 0)
(0.00133859 -0.000333483 0 -0.000693407 0 0)
(0.00183421 0.000198404 0 -0.000887254 0 0)
(0.00170247 -2.88064e-05 0 -0.00076426 0 0)
(0.00214336 -0.000112478 0 -0.000812644 0 0)
(0.00096416 -0.000161709 0 -0.00029951 0 0)
(0.00107846 -0.000271275 0 -0.000413832 0 0)
(0.000919565 -0.000260167 0 -0.000298089 0 0)
(0.000467841 -0.000190214 0 -0.000169606 -8.47033e-21 0)
(0.000742769 -0.000361381 0 -0.000288744 0 0)
(0.00165036 -0.000177123 0 -0.000954267 0 0)
(0.000967243 -7.49804e-05 0 -0.000282821 0 0)
(0.00172376 0.000115537 0 -0.000779155 0 0)
(0.00144388 -0.000241497 0 -0.000671173 0 0)
(0.00179862 0.000111921 1.35525e-19 -0.000588777 0 0)
(0.00129395 -0.000121559 0 -0.000551061 0 0)
(0.000735998 -8.66179e-05 2.1684e-18 -0.000181957 0 0)
(0.00107567 -0.000358593 0 -0.000442584 0 0)
(0.0013035 -0.000301674 0 -0.000579394 0 0)
(0.000953751 -0.000363555 0 -0.000367144 0 0)
(0.000941699 -0.000399562 -1.0842e-18 -0.000691539 0 0)
(0.00101787 -0.00015933 0 -0.000362501 0 0)
(0.00103324 -4.92664e-05 0 -0.000405898 0 0)
(0.000931867 -5.14486e-05 0 -0.000205445 3.38813e-20 0)
(0.00172506 0.000104992 0 -0.000865808 0 0)
(0.00157808 -0.000125413 0 -0.000681315 0 0)
(0.00094392 -0.000480199 0 -0.000662777 0 0)
(0.000973165 -0.000228457 0 -0.00032524 0 0)
(0.000916241 -2.73708e-05 0 -0.000176788 0 0)
(0.00104633 -1.64021e-05 0 -0.000437783 0 0)
(0.00103115 -0.000304238 0 -0.000388164 0 0)
(0.000998851 -7.45615e-05 0 -0.000333139 0 0)
(0.000309146 -0.000216125 0 -0.000346142 0 0)
(0.000890743 -0.000394894 0 -0.000365963 0 0)
(0.00130955 -0.000261473 -1.0842e-18 -0.000559682 0 0)
(0.00122103 -0.000275936 0 -0.000500897 0 0)
(0.000626991 -0.000128009 0 -0.000160616 0 0)
(0.000695184 -0.000246508 0 -0.000211162 0 0)
(0.000868172 -0.0001801 0 -0.000250644 0 0)
(0.000791208 -0.000233662 0 -0.000232697 0 0)
(0.000907115 -0.000159617 0 -0.000259189 0 0)
(0.00112624 -0.000399853 0 -0.000524999 0 0)
(0.00116658 -0.000362718 0 -0.000511086 0 0)
(0.00103135 -0.000239032 0 -0.000374817 0 0)
(0.00104822 -9.85549e-05 0 -0.00040883 0 0)
(0.000931865 -9.43226e-05 0 -0.000237291 0 0)
(0.00161812 0.000230241 0 -0.000717733 0 0)
(0.00137435 0.000227612 0 -0.000577017 0 0)
(0.00151326 -0.000490537 0 -0.000635281 0 0)
(0.00109881 -0.000164623 0 -0.00043592 0 0)
(0.000828925 -5.53301e-05 0 -0.000212149 0 0)
(0.00126047 -0.000419422 0 -0.000781098 0 0)
(0.00118293 -7.21651e-05 0 -0.000503867 0 0)
(0.00175525 4.3728e-05 0 -0.000769787 0 0)
(0.00115123 -0.00019071 0 -0.00047053 0 0)
(0.000956631 -0.000462492 0 -0.000517631 0 0)
(0.000913003 -3.98677e-05 0 -0.000211059 -1.69407e-20 0)
(0.00107566 -3.555e-05 0 -0.000450002 0 0)
(0.000929323 -0.000298703 0 -0.000320295 0 0)
(0.00104867 -0.000193278 0 -0.000393764 0 0)
(0.00194483 0.000159528 0 -0.00086206 0 0)
(0.00171778 0.000303203 0 -0.000772449 0 0)
(0.00157386 -0.000205348 0 -0.000902548 0 0)
(0.00120136 0.000104205 0 -0.000455845 0 0)
(0.00142933 -0.00011393 0 -0.000607615 0 0)
(0.00179898 -1.88944e-06 0 -0.000966544 0 0)
(0.000444957 -0.000132908 0 -0.000761404 0 0)
(0.000960959 -0.000124198 0 -0.000287392 0 0)
(0.00121542 -0.000407937 0 -0.000665148 0 0)
(0.000945868 -0.000187582 0 -0.000293101 0 0)
(0.00260979 -0.000480773 -5.42101e-19 -0.00100753 -1.0842e-18 0)
(0.00182699 0.000281829 2.71051e-19 -0.00067895 0 0)
(0.00163041 -5.95342e-05 0 -0.000802789 0 0)
(0.0012532 -0.000214325 0 -0.000512558 0 0)
(0.000896299 -0.000119339 0 -0.000243136 0 0)
(0.00107787 -0.000113257 -2.1684e-18 -0.000433266 0 0)
(0.00291156 -0.000223838 2.43945e-18 -0.00104856 3.25261e-18 0)
(0.000512858 -0.000140478 0 -0.000150857 0 0)
(0.000609225 -0.000441804 0 -0.000398463 0 0)
(0.00038659 -0.000161412 0 -0.000185566 8.47033e-21 0)
(0.000332941 -4.76363e-05 0 -0.000841036 0 0)
(0.000538856 -0.000419871 0 -0.000550957 0 0)
(0.00155839 -0.00011127 0 -0.000662758 0 0)
(0.00125442 -0.000364488 0 -0.000611636 0 0)
(0.000672986 -8.57924e-05 0 -0.000161398 8.47033e-21 0)
(0.000458507 -0.00037488 0 -0.000406252 -6.77626e-20 0)
(0.00206545 0.000187881 0 -0.000783025 0 0)
(0.00111435 -0.000326959 0 -0.000451238 0 0)
(0.000946253 -5.01614e-05 0 -0.000230182 0 0)
(0.00101395 -4.89852e-05 0 -0.000372944 0 0)
(0.00112894 -6.41799e-05 0 -0.000477542 0 0)
(0.000856393 -0.000480742 0 -0.000518695 0 0)
(0.000868689 -4.85616e-05 0 -0.000218285 -1.69407e-20 0)
(0.00225507 -9.66246e-06 4.06576e-19 -0.000717019 0 0)
(0.00101276 -0.000120199 0 -0.000352216 0 0)
(0.00147234 9.61622e-05 6.77626e-20 -0.000478424 0 0)
(0.000493812 -0.000145221 0 -0.000641834 0 0)
(0.000883381 -0.000326881 0 -0.000310969 0 0)
(0.00163766 0.000323251 0 -0.000678916 0 0)
(0.00077694 -0.000161761 0 -0.000212672 0 0)
(0.000596294 -0.000262323 0 -0.000190788 0 0)
(0.00139265 -0.000237785 0 -0.000607716 0 0)
(0.00076301 -0.000420338 0 -0.000352871 0 0)
(0.00148465 -0.00024849 0 -0.000779079 0 0)
(0.000769855 -0.000277389 0 -0.000247497 0 0)
(0.0017776 0.000134241 0 -0.000901421 0 0)
(0.0010056 -0.000438625 0 -0.000494931 0 0)
(0.00175286 -6.10941e-05 0 -0.000778727 0 0)
(0.000464381 -0.000291345 0 -0.000224169 0 0)
(0.00115993 -0.000264289 0 -0.000468823 0 0)
(0.000232784 -0.000108024 0 -0.000490551 0 0)
(0.00167613 6.48074e-06 0 -0.000842409 0 0)
(0.00161545 -0.000107584 0 -0.000741383 0 0)
(0.00103221 -0.000125471 0 -0.000381158 0 0)
(0.00104359 -2.3527e-05 0 -0.000425894 0 0)
(0.00091764 -2.89508e-05 0 -0.000177277 1.69407e-20 0)
(0.00202144 -0.000631197 -5.42101e-19 -0.000729618 0 0)
(0.000995224 -0.000174132 0 -0.000331972 0 0)
(0.000917148 -8.83411e-05 0 -0.000232114 0 0)
(0.00138332 -0.000278537 0 -0.000637552 0 0)
(0.00137827 -9.69328e-05 0 -0.000597476 0 0)
(0.00167596 -0.000224246 0 -0.000909536 0 0)
(0.00113226 -0.000239644 0 -0.000451174 0 0)
(0.00152249 -0.000184158 0 -0.000688091 0 0)
(0.000885709 -0.000226941 0 -0.000272795 0 0)
(0.00111092 -0.000111604 0 -0.00045767 0 0)
(0.000863393 -0.000254823 0 -0.000268259 0 0)
(0.000944485 -0.00024199 0 -0.000304207 0 0)
(0.000972577 -0.000424248 0 -0.000442339 0 0)
(0.0014469 -0.000330073 0 -0.000904116 0 0)
(0.00148648 -0.00017818 0 -0.0006397 0 0)
(0.00148018 0.000197316 0 -0.000644799 0 0)
(0.000893269 -0.000399069 0 -0.000519325 0 0)
(0.000997925 -0.000455989 0 -0.000747895 0 0)
(0.000615958 -0.000387056 0 -0.000309571 -3.38813e-20 0)
(0.00118053 0.000161697 0 -0.000465754 0 0)
(0.00166123 0.000158681 0 -0.00072542 0 0)
(0.000832563 -0.000150694 0 -0.000227997 0 0)
(0.000786556 -5.30691e-05 0 -0.00019297 0 0)
(0.000292654 -0.000142361 0 -0.000233482 0 0)
(0.00167872 -6.32027e-05 0 -0.000723729 0 0)
(0.00142932 -0.000275712 0 -0.000722031 0 0)
(0.0012437 -7.59288e-05 0 -0.000530568 0 0)
(0.0010623 -0.000325339 0 -0.000421945 0 0)
(0.000975277 -0.000197457 0 -0.000322846 0 0)
(0.00122078 -0.000184438 0 -0.000509374 0 0)
(0.0014672 -0.000336989 0 -0.000906604 0 0)
(0.000912729 -2.58417e-05 0 -0.000191109 -8.47033e-21 0)
(0.00105162 -1.51242e-05 0 -0.000447328 0 0)
(0.00151033 -9.85812e-05 0 -0.00064426 0 0)
(0.000946343 -0.000125952 0 -0.000270066 0 0)
(0.000914058 -7.91962e-06 0 -0.000138923 1.27055e-20 0)
(0.00104229 -4.23743e-06 0 -0.00044567 0 0)
(0.00134662 -0.000307044 0 -0.00065175 0 0)
)
;

boundaryField
{
    back
    {
        type            empty;
    }
    front
    {
        type            empty;
    }
    down
    {
        type            calculated;
    }
    right
    {
        type            calculated;
    }
    up
    {
        type            calculated;
    }
    left
    {
        type            calculated;
    }
    hole
    {
        type            calculated;
    }
}


// ************************************************************************* //
