/*--------------------------------*- C++ -*----------------------------------*\
| =========                 |                                                 |
| \\      /  F ield         | OpenFOAM: The Open Source CFD Toolbox           |
|  \\    /   O peration     | Version:  v2012                                 |
|   \\  /    A nd           | Website:  www.openfoam.com                      |
|    \\/     M anipulation  |                                                 |
\*---------------------------------------------------------------------------*/
FoamFile
{
    version     2.0;
    format      ascii;
    class       volScalarField;
    location    "6";
    object      sigmaHyd;
}
// * * * * * * * * * * * * * * * * * * * * * * * * * * * * * * * * * * * * * //

dimensions      [1 -1 -2 0 0 0 0];


internalField   nonuniform List<scalar> 
470
(
1.69179e+07
2.42407e+07
3.94231e+07
4.09849e+07
2.84731e+07
3.57975e+07
3.42135e+07
1.96092e+07
4.77307e+07
4.09083e+07
4.80117e+07
5.34995e+07
5.2339e+07
3.92586e+07
5.66358e+07
4.42755e+07
3.77154e+07
3.51526e+07
3.44809e+07
2.57807e+07
4.70649e+07
3.94981e+07
4.0645e+07
3.72406e+07
4.33513e+07
3.44718e+07
4.19564e+07
4.11958e+07
3.68203e+07
3.74058e+07
2.4822e+07
6.2136e+07
3.93926e+07
6.71115e+07
3.86769e+07
3.69346e+07
5.79715e+07
2.50849e+07
3.11138e+07
2.39951e+07
3.72358e+07
3.19643e+07
5.6846e+07
3.04701e+07
4.49374e+07
5.06131e+07
2.81591e+07
3.86052e+07
3.77542e+07
4.5698e+07
5.82842e+07
6.21661e+07
3.66009e+07
3.21975e+07
4.08237e+07
3.9247e+07
4.1995e+07
2.78371e+07
3.64447e+07
4.36969e+07
3.57279e+07
4.75279e+07
5.18744e+07
5.59879e+07
2.7756e+07
7.06302e+07
2.66193e+07
3.84189e+07
7.37486e+06
4.33645e+07
1.62372e+07
3.9444e+07
6.25463e+07
3.57015e+07
5.77417e+07
4.06999e+07
3.88018e+07
3.85123e+07
3.63955e+07
7.13745e+07
3.79628e+07
7.64745e+07
4.18517e+07
3.1626e+06
4.58502e+07
3.92815e+07
5.14802e+07
5.43671e+07
5.72365e+07
5.10608e+07
5.95584e+07
5.45425e+07
3.55473e+07
3.72941e+07
5.51297e+07
5.82768e+07
2.81842e+07
3.67712e+07
2.68466e+07
3.82509e+07
3.90919e+07
4.20247e+07
6.37328e+07
4.01755e+07
4.25419e+07
3.56722e+07
3.85181e+07
3.02219e+07
-1.9781e+07
7.85767e+07
5.41186e+07
8.2017e+07
4.18349e+07
3.62922e+07
1.73972e+07
3.95592e+07
4.01088e+07
5.61418e+07
3.20189e+07
2.57384e+07
3.29393e+07
4.08975e+07
3.67165e+07
4.41318e+07
3.57972e+07
3.95432e+07
4.12314e+07
3.8665e+07
5.85601e+07
3.80351e+07
2.53906e+07
2.26324e+07
3.50452e+07
3.85995e+07
3.9172e+07
3.88625e+07
3.75121e+07
4.90921e+07
5.56868e+07
3.51676e+07
3.67365e+07
4.74627e+07
3.9574e+07
3.69133e+07
3.88814e+07
2.59902e+07
4.28097e+07
4.53815e+07
3.7327e+07
4.79483e+07
3.42319e+07
4.1065e+07
1.89854e+07
3.94175e+07
7.37244e+07
4.30756e+07
-4.42356e+07
3.30595e+07
3.70068e+07
3.83666e+07
8.97039e+07
5.11191e+07
3.95572e+07
5.99776e+07
5.95687e+07
2.54704e+07
1.92181e+07
5.63971e+07
3.55595e+07
2.92667e+07
3.10742e+07
3.81296e+07
3.82456e+07
3.81914e+07
3.82122e+07
3.62061e+07
3.65773e+07
-56242.1
3.9759e+07
2.41166e+07
3.33327e+07
4.83718e+07
3.76119e+07
4.06301e+07
4.47098e+07
5.27439e+07
3.92986e+07
-637110
4.83692e+07
3.79837e+07
3.85152e+07
3.34287e+07
4.20555e+07
3.82424e+07
1.39884e+07
3.32347e+07
3.94058e+07
3.92107e+07
3.9207e+07
1.62698e+08
2.2049e+07
1.26296e+07
1.0659e+08
2.32125e+07
4.21418e+07
4.31723e+07
3.19462e+07
3.15552e+07
3.21246e+07
-6.06874e+07
4.01717e+07
3.86857e+07
-3.06624e+07
3.50908e+07
5.05368e+07
4.87295e+07
3.87214e+07
3.00452e+07
3.66412e+07
3.41894e+07
-2.11798e+07
2.09138e+07
3.69682e+07
3.722e+07
3.274e+07
3.59976e+07
4.26246e+07
-5.11038e+06
6.71598e+07
5.41275e+07
4.16017e+07
-1.4973e+06
4.34672e+07
3.56401e+07
4.47351e+07
3.72672e+07
2.41253e+07
3.60553e+07
3.71686e+07
4.18849e+07
4.2912e+07
4.21041e+07
3.70972e+07
8.58098e+07
8.21065e+07
6.04502e+07
5.78299e+07
3.77539e+07
3.01364e+07
3.86694e+07
3.787e+07
4.12837e+07
4.56257e+07
3.49842e+07
4.66748e+07
2.58431e+07
3.1297e+07
4.29674e+07
3.56326e+07
2.09709e+07
3.72803e+07
6.46038e+07
9.51508e+06
-8.1738e+06
2.69789e+07
4.32803e+07
3.57342e+07
3.65205e+07
3.33412e+07
4.57656e+07
3.91537e+07
6.17675e+06
6.18937e+07
1.63692e+07
4.46516e+07
4.01694e+07
4.59858e+07
4.14921e+07
4.97285e+07
3.75979e+07
3.70563e+07
4.31472e+07
3.28698e+07
4.2001e+07
3.85095e+07
4.20164e+07
4.88359e+07
4.46683e+07
3.78374e+07
1.55782e+07
1.14225e+07
1.29793e+07
1.05784e+07
5.15566e+07
4.75461e+07
3.63952e+07
3.82752e+07
3.66802e+07
4.3785e+07
3.91135e+07
3.94283e+07
1.10965e+07
3.93571e+07
3.70915e+07
6.34442e+07
2.64393e+07
3.82084e+07
3.91569e+07
1.02985e+07
1.84046e+07
5.30092e+07
3.85646e+07
1.38727e+08
3.82735e+07
1.29507e+07
5.21304e+07
1.6368e+07
5.28423e+06
5.21824e+07
3.58473e+07
5.1748e+07
3.2983e+07
3.73693e+07
3.85867e+07
4.86362e+07
3.46322e+07
4.08693e+07
2.36725e+07
2.19772e+07
-1.72011e+06
3.01827e+07
-1.11417e+07
3.29657e+07
3.93271e+07
4.02242e+06
3.40876e+07
3.03808e+07
3.67433e+07
5.34066e+07
3.63038e+07
3.39283e+07
8.7786e+07
5.63489e+07
-7.71125e+06
3.70302e+07
5.1698e+07
5.69241e+07
3.72565e+07
4.54114e+07
3.44647e+07
2.88329e+07
2.82011e+07
4.6653e+07
4.84077e+07
4.71263e+07
-1.16267e+07
4.87766e+07
3.68128e+07
4.39369e+07
5.81781e+06
4.27921e+07
4.26542e+07
3.74084e+07
4.18852e+07
1.03156e+08
3.47705e+07
3.43824e+07
4.69966e+07
277449
3.58647e+07
3.15642e+07
3.17036e+07
4.32319e+07
3.92149e+07
-1.16595e+07
-1.90661e+07
-1.37276e+07
3.65069e+07
1.10348e+08
-1.31331e+07
3.43361e+07
6.75347e+07
3.07085e+07
4.11571e+07
3.8046e+07
7.79402e+07
5.33025e+07
5.22311e+07
4.53079e+07
3.49503e+07
5.49527e+07
3.68986e+07
3.88667e+07
7.17087e+07
3.86439e+07
3.60907e+07
4.19174e+07
3.53182e+07
5.59089e+07
4.0969e+07
5.20967e+07
1.12781e+08
3.9313e+07
5.11632e+06
5.09464e+07
5.38939e+07
4.6534e+07
3.9375e+07
4.48188e+07
4.59808e+07
3.48267e+07
3.47597e+07
3.4153e+07
4.26166e+07
4.4186e+07
5.2345e+07
3.85548e+07
1.14868e+07
5.52443e+07
1.1888e+07
2.96504e+07
1.62617e+07
4.04243e+07
3.87121e+07
4.10703e+07
8.85467e+07
5.7298e+07
2.45355e+07
4.69096e+07
4.22386e+07
4.94684e+07
4.09088e+07
4.19698e+07
4.28953e+07
-1.79446e+07
-2.60806e+07
4.23453e+07
3.47921e+07
3.94075e+07
3.91272e+07
3.199e+07
5.65934e+07
4.06713e+07
3.35707e+07
4.62441e+07
4.31046e+07
3.33719e+07
3.90819e+07
8.29931e+06
3.70637e+07
4.35706e+07
5.33771e+07
4.76346e+07
3.88934e+07
3.80811e+07
1.26579e+07
3.8066e+07
5.04376e+07
2.36261e+07
1.80108e+07
3.98127e+07
3.14496e+07
2.1984e+07
5.18445e+07
4.66603e+07
4.87235e+07
3.40765e+07
3.6353e+07
3.80971e+07
4.37695e+07
)
;

boundaryField
{
    back
    {
        type            empty;
    }
    front
    {
        type            empty;
    }
    down
    {
        type            zeroGradient;
    }
    right
    {
        type            zeroGradient;
    }
    up
    {
        type            zeroGradient;
    }
    left
    {
        type            zeroGradient;
    }
    hole
    {
        type            zeroGradient;
    }
}


// ************************************************************************* //
