/*--------------------------------*- C++ -*----------------------------------*\
| =========                 |                                                 |
| \\      /  F ield         | OpenFOAM: The Open Source CFD Toolbox           |
|  \\    /   O peration     | Version:  v2012                                 |
|   \\  /    A nd           | Website:  www.openfoam.com                      |
|    \\/     M anipulation  |                                                 |
\*---------------------------------------------------------------------------*/
FoamFile
{
    version     2.0;
    format      ascii;
    class       volVectorField;
    location    "7";
    object      D_0;
}
// * * * * * * * * * * * * * * * * * * * * * * * * * * * * * * * * * * * * * //

dimensions      [0 1 0 0 0 0 0];


internalField   nonuniform List<vector> 
30465
(
(0.00227641 -0.000252797 0)
(0.00270708 -9.34012e-05 0)
(0.00100684 -0.000871827 0)
(0.00253834 -0.000257268 0)
(0.00282363 -0.000323691 0)
(0.00282818 -0.000327104 0)
(0.000949519 -0.000903122 0)
(0.00023741 -0.00158326 0)
(0.000564375 -0.00129734 0)
(0.00135335 -0.000602973 0)
(0.000190664 -0.00162746 0)
(0.00127014 -0.000645994 0)
(0.0022882 -0.000192964 0)
(0.00224627 -0.00015042 0)
(0.00185021 -0.000447654 0)
(0.000874247 -0.000980765 0)
(0.00280845 -0.000297795 0)
(0.00136479 -0.000648572 0)
(0.000575106 -0.00128691 0)
(0.00313456 -0.000231753 0)
(0.00267926 -2.73675e-05 0)
(0.00268406 -2.64517e-05 0)
(0.0023899 -7.58163e-05 0)
(0.000462261 -0.00138696 0)
(0.00238461 -7.78079e-05 0)
(0.00314425 -0.000126829 0)
(0.00313722 -0.00012959 0)
(0.00278221 -9.20285e-05 0)
(0.00296271 -6.9518e-05 0)
(0.000977325 -0.00099397 0)
(0.00195274 -0.000239055 0)
(0.0033088 -7.47935e-05 0)
(0.00226879 -0.000226785 0)
(0.00261967 -0.000224343 0)
(0.00230983 -0.000383657 0)
(0.00286942 -6.58519e-05 0)
(0.000549908 -0.00130733 0)
(0.00175849 -0.000800561 0)
(0.0027049 -0.000221049 0)
(0.00129188 -0.000637847 0)
(0.00257435 -6.22015e-05 0)
(0.00184583 -0.000407181 0)
(0.000449388 -0.00139851 0)
(0.00272277 -8.51644e-05 0)
(0.00273284 -8.38593e-05 0)
(0.000630408 -0.00124306 0)
(0.0014613 -0.000516577 0)
(0.00271485 -9.26187e-05 0)
(0.00323574 -0.000113054 0)
(0.00266471 -4.7111e-05 0)
(0.002662 -4.89189e-05 0)
(0.00252148 -0.000194618 0)
(0.000364685 -0.00144361 0)
(0.000352737 -0.00145718 0)
(0.000696731 -0.00128806 0)
(0.00258077 -0.000121712 0)
(0.000706036 -0.00128262 0)
(0.00297837 -0.000178779 0)
(0.00298998 -7.46805e-05 0)
(0.00335786 -2.51474e-05 0)
(0.00335563 -2.43465e-05 0)
(0.00122339 -0.000712327 0)
(0.00288811 -3.22034e-06 0)
(0.00224665 -0.00034181 0)
(0.00225063 -0.000337779 0)
(0.00247449 -1.39168e-05 0)
(0.00210061 -0.000383716 0)
(0.000491111 -0.00136579 0)
(0.0026712 -8.40636e-06 0)
(0.002803 -0.000165666 0)
(0.00237791 -9.78769e-05 0)
(0.00328425 -0.000134148 0)
(0.000819922 -0.000951461 0)
(0.0014021 -0.000554086 0)
(0.00226806 -0.000229886 0)
(0.00132353 -0.00062641 0)
(0.00310269 -3.45798e-05 0)
(0.00310447 -3.27077e-05 0)
(0.00194155 -0.000448652 0)
(0.000208606 -0.00161305 0)
(0.00065583 -0.00113711 0)
(0.00064063 -0.00114944 0)
(0.00278075 -0.000266906 0)
(0.00301655 -0.000125203 0)
(0.00239671 -0.000181728 0)
(0.00330123 -0.000108467 0)
(0.00299354 -7.62752e-05 0)
(0.00133472 -0.000618964 0)
(0.00285315 -0.000352719 0)
(0.00278368 -4.62696e-05 0)
(0.00334579 -6.4876e-05 0)
(0.00334339 -6.43612e-05 0)
(0.00281599 -0.000305187 0)
(0.00281845 -0.000300996 0)
(0.00134494 -0.000610357 0)
(0.00319269 -5.21443e-05 0)
(0.00298702 -8.47518e-05 0)
(0.0029956 -8.40776e-05 0)
(0.000265011 -0.00156504 0)
(0.00302738 -7.07062e-05 0)
(0.00264524 -0.000284056 0)
(0.0026284 -3.27979e-05 0)
(0.0026299 -3.38971e-05 0)
(0.00198145 -0.00026541 0)
(0.00228929 -0.000114579 0)
(0.0019598 -0.00044125 0)
(0.00197358 -0.000439369 0)
(0.00318021 -0.000146117 0)
(0.00236692 -0.000101004 0)
(0.00243974 -5.18941e-05 0)
(0.000922529 -0.000955134 0)
(0.00256566 -0.000297567 0)
(0.00222715 -0.000381502 0)
(0.00223641 -0.000382666 0)
(0.00215941 -0.000215975 0)
(0.00216446 -0.000211805 0)
(0.00256737 -9.72503e-06 0)
(0.00329612 -0.000133116 0)
(0.00323916 -1.81569e-05 0)
(0.000129345 -0.00152311 0)
(0.0011984 -0.000693471 0)
(0.00286363 -6.66801e-05 0)
(0.00244904 -0.000133204 0)
(0.00250653 -2.34871e-05 0)
(0.00274928 -8.64058e-05 0)
(0.0027469 -8.43691e-05 0)
(0.00264956 -1.24533e-05 0)
(0.00232786 -0.000338389 0)
(0.00324689 -0.000196604 0)
(0.00249044 -4.16686e-05 0)
(0.000384461 -0.0014431 0)
(0.00327615 -1.22847e-05 0)
(0.000905181 -0.0009694 0)
(0.000101096 -0.00161348 0)
(0.00311414 -0.000184901 0)
(0.0025405 -2.3295e-05 0)
(0.000838772 -0.000948484 0)
(0.00295537 -0.000121535 0)
(0.000482451 -0.00137229 0)
(0.000848208 -0.000939853 0)
(0.00240999 -0.000126898 0)
(0.000122678 -0.00164043 0)
(0.00252715 -1.15875e-05 0)
(0.0025716 -6.39894e-05 0)
(0.00294868 -4.31238e-05 0)
(0.00119679 -0.000745318 0)
(0.00337533 -5.77135e-05 0)
(0.00337055 -5.8023e-05 0)
(0.00191173 -0.000334334 0)
(0.00342735 -2.88653e-06 0)
(0.00315473 -0.00031378 0)
(0.00175091 -0.000347276 0)
(0.0032263 -9.20087e-05 0)
(0.00323117 -9.22866e-05 0)
(0.00266849 -0.000334898 0)
(0.00221561 -0.000153261 0)
(0.00202639 -0.000409263 0)
(0.0027338 -0.000235829 0)
(0.0016707 -0.000471941 0)
(0.00275808 -7.61325e-05 0)
(0.00276428 -7.44603e-05 0)
(0.0016625 -0.000478631 0)
(0.00194503 -0.00038075 0)
(0.00193849 -0.000385632 0)
(0.00254809 -1.38402e-05 0)
(0.00322954 -4.46936e-06 0)
(0.0030422 -8.10826e-05 0)
(0.000244585 -0.00153963 0)
(0.00296907 -0.00013454 0)
(0.00157131 -0.000448944 0)
(0.00224841 -0.00016375 0)
(0.00329207 -3.3519e-05 0)
(0.00316207 -6.16474e-05 0)
(0.00316915 -6.18673e-05 0)
(0.00293835 -0.000122726 0)
(0.00154032 -0.000468513 0)
(0.00234674 -0.000344708 0)
(0.00205945 -0.000218871 0)
(0.00255245 -1.15415e-05 0)
(0.000120991 -0.00164445 0)
(0.00106964 -0.000790672 0)
(0.00216002 -0.000268002 0)
(0.0021712 -0.000264665 0)
(0.00292491 -0.00035497 0)
(0.00322712 -0.000202736 0)
(0.00214736 -0.000157513 0)
(0.000421718 -0.00141749 0)
(0.00242146 -0.000146627 0)
(0.00324623 -1.79602e-05 0)
(0.00283275 -0.000295954 0)
(0.00156804 -0.000544348 0)
(0.00319656 -0.000133828 0)
(0.00251664 -4.50922e-05 0)
(0.000142225 -0.00163677 0)
(0.00278149 -0.00028965 0)
(0.00277655 -0.000287747 0)
(0.000962683 -0.000890979 0)
(0.00264994 -0.000188381 0)
(0.00282975 -0.000229951 0)
(0.00226554 -0.000256946 0)
(0.0032768 -2.83183e-05 0)
(0.00303494 -7.08162e-05 0)
(0.00339801 -2.00275e-05 0)
(0.00011075 -0.00159984 0)
(0.00206917 -0.00019971 0)
(0.00241276 -0.000123967 0)
(0.00250297 -2.37923e-05 0)
(0.000188828 -0.00156544 0)
(0.00199546 -0.00025097 0)
(0.00274505 -6.45229e-05 0)
(0.00101019 -0.000862898 0)
(0.00242601 -0.000117384 0)
(0.00264889 -4.39292e-06 0)
(0.00306375 -9.57688e-05 0)
(0.000643748 -0.00123185 0)
(0.00201295 -0.000410904 0)
(0.00200134 -0.000416488 0)
(0.0031198 -0.000138487 0)
(0.00312548 -0.000135477 0)
(0.0015775 -0.000537815 0)
(0.00241634 -0.000332647 0)
(0.0023408 -0.000211946 0)
(0.00324056 -8.63388e-05 0)
(0.00309865 -0.000186954 0)
(0.0021594 -0.00039835 0)
(0.00245616 -9.19833e-05 0)
(0.00123757 -0.00070084 0)
(0.00171799 -0.000362534 0)
(0.00278051 -4.49656e-05 0)
(0.00216203 -0.000148551 0)
(0.00121021 -0.000721776 0)
(0.00314357 -7.20339e-05 0)
(0.00314883 -7.27438e-05 0)
(0.002098 -0.000317012 0)
(0.00230259 -9.79378e-05 0)
(0.00255482 -1.70436e-05 0)
(0.00240132 -0.000360116 0)
(0.00241012 -0.000355924 0)
(0.000790522 -0.00103383 0)
(0.000809438 -0.00101618 0)
(0.00150068 -0.000495667 0)
(0.00217208 -0.000144141 0)
(0.00235397 -0.000157844 0)
(0.0020259 -0.000238469 0)
(0.00291019 -0.000102034 0)
(0.00185788 -0.000462646 0)
(0.00200223 -0.000249489 0)
(0.00223795 -0.000193662 0)
(0.000550051 -0.00131959 0)
(0.00229135 -0.00010231 0)
(0.00270176 -0.000193536 0)
(0.00248921 -4.58277e-05 0)
(0.00249093 -4.26648e-05 0)
(0.00122847 -0.00071348 0)
(0.00212198 -0.00021003 0)
(0.000398374 -0.00143308 0)
(0.00126598 -0.000892228 0)
(0.00128718 -0.000874465 0)
(0.00182793 -0.000332767 0)
(3.46776e-05 -0.00160643 0)
(0.00329171 -0.000131046 0)
(0.00226393 -0.000109542 0)
(0.00225133 -0.000114238 0)
(0.00246569 -6.11262e-05 0)
(0.00108902 -0.000846173 0)
(0.00110385 -0.000831543 0)
(0.00267662 -0.000176468 0)
(0.00149173 -0.000501478 0)
(0.00217724 -0.000206931 0)
(0.00270161 -0.000159273 0)
(0.00322854 -5.94764e-06 0)
(0.00304638 -0.000255565 0)
(0.00291084 -7.19723e-05 0)
(0.00281376 -0.000324298 0)
(0.00229726 -0.00011241 0)
(0.00167528 -0.000440022 0)
(0.00216377 -0.000322998 0)
(0.00226098 -0.000127888 0)
(0.000904379 -0.00101348 0)
(0.00265117 -2.48363e-05 0)
(0.000886984 -0.00102625 0)
(0.00251539 -0.000367787 0)
(0.00214913 -0.000323351 0)
(0.00290925 -0.000219958 0)
(0.00273872 -6.56924e-05 0)
(0.00291745 -0.000194512 0)
(0.00182524 -0.000361268 0)
(0.00314657 -0.000142703 0)
(0.00342531 -2.22744e-06 0)
(0.00315095 -0.000316987 0)
(0.00205814 -0.000203696 0)
(0.00213373 -0.000163879 0)
(0.00245784 -0.000131284 0)
(0.00119865 -0.000877144 0)
(0.00330298 -2.55388e-05 0)
(0.0031561 -0.00018819 0)
(0.00325812 -7.22342e-06 0)
(0.00261844 -1.0776e-05 0)
(0.00262194 -1.02011e-05 0)
(0.00306404 -5.07488e-05 0)
(0.00253461 -0.000347851 0)
(0.00254345 -0.000345615 0)
(0.000806224 -0.000961955 0)
(0.0027489 -3.94007e-05 0)
(0.00286994 -2.98589e-05 0)
(0.00140951 -0.00055202 0)
(0.00142524 -0.000541143 0)
(0.00327246 -3.18337e-05 0)
(0.00224284 -0.000183808 0)
(0.00204565 -0.000611031 0)
(0.00229901 -0.000197179 0)
(0.00229421 -0.000196085 0)
(0.000241052 -0.00157907 0)
(0.00322478 -0.000176921 0)
(0.000804082 -0.00110065 0)
(0.00195322 -0.000319258 0)
(5.72606e-05 -0.00160721 0)
(4.95528e-05 -0.00160467 0)
(0.00156859 -0.000469387 0)
(0.000540686 -0.00134803 0)
(0.00167653 -0.00038446 0)
(0.000521063 -0.00135717 0)
(0.00151221 -0.000488604 0)
(0.00249108 -3.38732e-05 0)
(0.00265494 -0.000101263 0)
(0.00265759 -9.87688e-05 0)
(0.00101325 -0.00113922 0)
(0.00181267 -0.000351263 0)
(0.00252981 -0.000143 0)
(0.000994899 -0.000901534 0)
(0.00256649 -6.65387e-07 0)
(0.00126898 -0.000657101 0)
(0.00248632 -3.61635e-05 0)
(0.000189901 -0.00161033 0)
(0.00234357 -0.000101796 0)
(0.0018164 -0.000431375 0)
(0.00334385 -7.94736e-05 0)
(0.00248363 -6.31251e-05 0)
(0.00249091 -6.21668e-05 0)
(0.00166417 -0.000393072 0)
(0.00185542 -0.000344268 0)
(0.00251585 -0.000198213 0)
(0.00106039 -0.000851456 0)
(0.003039 -7.96386e-05 0)
(0.00258877 -0.000129746 0)
(0.00167512 -0.00039425 0)
(0.00166999 -0.000398089 0)
(0.000941467 -0.000874778 0)
(0.00166848 -0.000425946 0)
(0.00339678 -5.34356e-05 0)
(0.00174173 -0.000365695 0)
(0.00285135 -4.40785e-05 0)
(0.00045433 -0.00136315 0)
(0.000180417 -0.00161765 0)
(0.00229623 -0.000162825 0)
(0.00193785 -0.000378572 0)
(0.0025353 -2.47119e-05 0)
(0.000779238 -0.00102182 0)
(0.00224856 -0.000146607 0)
(0.002332 -0.000240302 0)
(0.00167213 -0.000388059 0)
(0.00167599 -0.000385243 0)
(0.00317052 -0.00011456 0)
(0.00209752 -0.000307638 0)
(0.00232776 -0.000233855 0)
(0.00105852 -0.00080018 0)
(0.000218697 -0.00160467 0)
(0.00268131 -3.16122e-06 0)
(0.00250694 -4.98644e-05 0)
(0.0020028 -0.000222257 0)
(0.000715285 -0.00128548 0)
(0.00334516 -6.19611e-05 0)
(0.000537308 -0.00131841 0)
(0.00156455 -0.000576747 0)
(0.00157503 -0.000562516 0)
(0.00183007 -0.000389073 0)
(0.00298877 -0.00030639 0)
(0.00221073 -0.000280381 0)
(0.00297731 -0.00013442 0)
(0.00275059 -0.000299184 0)
(0.00198074 -0.000332143 0)
(0.00300924 -0.000256844 0)
(0.00309908 -0.000215292 0)
(0.00191459 -0.000400449 0)
(0.000447268 -0.00137257 0)
(0.00280569 -4.26375e-05 0)
(0.00249829 -3.12756e-05 0)
(0.00115696 -0.000724234 0)
(0.00117295 -0.000712582 0)
(0.00249758 -3.15624e-05 0)
(0.000806773 -0.00110108 0)
(0.0026021 -2.95027e-05 0)
(0.00275427 -3.94406e-05 0)
(0.00299277 -2.69159e-05 0)
(0.0022739 -0.000209522 0)
(0.00304883 -0.000285992 0)
(0.00252582 -2.02126e-05 0)
(0.00311651 -7.56619e-06 0)
(0.00304521 -0.000312815 0)
(0.00305115 -0.000308304 0)
(0.00338401 -4.29472e-05 0)
(0.00337561 -4.51521e-05 0)
(0.00197274 -0.00031097 0)
(0.00267166 -2.2471e-06 0)
(0.00234591 -0.000404212 0)
(0.00225953 -0.000160061 0)
(0.00196706 -0.000245314 0)
(0.00249202 -0.000285358 0)
(0.00295076 -0.000223279 0)
(0.00286875 -3.13178e-05 0)
(0.00314603 -0.000287124 0)
(0.00209729 -0.000418773 0)
(0.00275079 -7.56986e-05 0)
(0.00161187 -0.000423251 0)
(0.00265503 -0.000282072 0)
(0.00226437 -0.000266514 0)
(0.00281343 -6.24037e-05 0)
(0.00014284 -0.00153608 0)
(0.00128059 -0.000636269 0)
(0.00126961 -0.000643591 0)
(0.00265311 -6.16835e-05 0)
(0.000199522 -0.00158421 0)
(0.000837471 -0.00102912 0)
(0.00187938 -0.000275086 0)
(0.00313819 -1.61587e-05 0)
(0.0018917 -0.000268873 0)
(0.00078689 -0.0010643 0)
(0.00213338 -0.0001969 0)
(0.00252922 -0.00025759 0)
(0.00184818 -0.000291144 0)
(0.000731439 -0.00114627 0)
(0.00300604 -0.000102512 0)
(0.00201126 -0.000470235 0)
(0.00287731 -0.00031193 0)
(0.00287843 -0.000315148 0)
(0.0032016 -0.000299535 0)
(0.00346517 -3.06783e-06 0)
(0.00270427 -0.00036064 0)
(0.000894913 -0.00107922 0)
(0.00278515 -3.74594e-06 0)
(0.00104688 -0.000861513 0)
(0.00222553 -0.000147346 0)
(0.00277218 -0.000222201 0)
(0.00152694 -0.000477394 0)
(0.00338101 -3.5982e-05 0)
(0.00324493 -6.58415e-05 0)
(0.00207708 -0.000195529 0)
(0.00208733 -0.000191452 0)
(0.000791118 -0.00100602 0)
(0.00234023 -0.000180108 0)
(0.00227048 -0.000208074 0)
(0.00235536 -0.000133297 0)
(0.00246171 -5.62265e-05 0)
(0.0018626 -0.000335683 0)
(0.00234348 -0.000341325 0)
(0.0014058 -0.000557049 0)
(0.00279553 -0.000277973 0)
(0.00238794 -7.08047e-05 0)
(0.00239079 -7.07594e-05 0)
(0.00288153 -3.18984e-06 0)
(0.00310489 -0.000181097 0)
(0.00309703 -0.00018426 0)
(0.000134528 -0.00157486 0)
(0.00308337 -5.41834e-05 0)
(0.00269508 -8.46441e-05 0)
(0.00235661 -0.000403633 0)
(0.00292724 -0.000215634 0)
(0.00331542 -2.20707e-05 0)
(0.00265128 -0.000303593 0)
(0.00265772 -0.000299991 0)
(0.00072496 -0.0011312 0)
(0.000707462 -0.00114634 0)
(0.00275848 -0.000339952 0)
(0.00230083 -0.000129056 0)
(0.00331672 -9.7757e-05 0)
(0.00155627 -0.000549322 0)
(0.00322046 -5.91232e-05 0)
(0.00321409 -5.86853e-05 0)
(0.0025316 -1.37776e-05 0)
(0.00231814 -9.67461e-05 0)
(0.00261422 -0.00013171 0)
(0.00260999 -0.000129673 0)
(0.003157 -0.000189946 0)
(0.00234913 -0.000107983 0)
(0.00164667 -0.000402253 0)
(0.00278712 -9.00837e-05 0)
(0.00201703 -0.000429396 0)
(0.00200373 -0.000433372 0)
(0.00238264 -0.000145158 0)
(0.00186719 -0.000337123 0)
(0.00242339 -0.000140269 0)
(0.00327624 -9.18897e-07 0)
(0.00297666 -0.000355339 0)
(0.00151494 -0.00048578 0)
(0.0013122 -0.00068228 0)
(0.00134184 -0.000601055 0)
(0.00238531 -9.73198e-05 0)
(0.00313642 -8.85834e-05 0)
(0.00264409 -0.000160597 0)
(0.00244627 -0.000128379 0)
(0.000220448 -0.00154055 0)
(0.00323912 -0.000123979 0)
(0.00323176 -0.000126654 0)
(0.00117937 -0.00109265 0)
(0.00252999 -6.24855e-05 0)
(0.00234445 -0.00039525 0)
(2.30454e-05 -0.00173021 0)
(0.000910681 -0.000938607 0)
(0.00250487 -4.40595e-05 0)
(0.00100228 -0.000896936 0)
(0.0011372 -0.000811848 0)
(0.000776665 -0.00101893 0)
(0.00217894 -0.000163266 0)
(0.00331303 -7.47699e-05 0)
(0.00268326 -8.84757e-05 0)
(0.00267596 -8.82946e-05 0)
(0.00253103 -7.65991e-05 0)
(0.00251199 -2.34592e-05 0)
(0.00241712 -0.000174957 0)
(0.0018449 -0.000347374 0)
(0.000555999 -0.00133796 0)
(0.0020494 -0.00030526 0)
(0.00165111 -0.00040059 0)
(0.00264584 -0.000129733 0)
(0.00331766 -0.000123394 0)
(0.00204392 -0.000234534 0)
(0.000788819 -0.00107501 0)
(0.000406287 -0.00142565 0)
(0.00208464 -0.000233512 0)
(0.00199404 -0.000472234 0)
(0.00294702 -0.000120581 0)
(0.00250917 -4.23398e-05 0)
(0.00190897 -0.00045144 0)
(0.00264489 -1.2536e-05 0)
(0.00137544 -0.000593643 0)
(0.00297459 -1.37573e-05 0)
(0.00115144 -0.00109421 0)
(0.00306071 -9.43201e-05 0)
(7.46668e-05 -0.0017053 0)
(0.00169345 -0.000427681 0)
(0.00222563 -0.000129871 0)
(0.00196341 -0.000233997 0)
(0.00233998 -0.000209167 0)
(0.000133094 -0.00152654 0)
(0.000938661 -0.00111238 0)
(0.00170595 -0.000369309 0)
(0.0032419 -0.000156916 0)
(0.00323549 -0.000160237 0)
(0.00199843 -0.000421974 0)
(0.00292518 -0.000321873 0)
(0.00203676 -0.000302289 0)
(0.000785968 -0.00108412 0)
(0.00292365 -0.000335109 0)
(0.00274461 -0.000302697 0)
(0.00338557 -3.57383e-05 0)
(0.00186861 -0.000294993 0)
(0.00162335 -0.000649926 0)
(0.00321436 -5.02015e-05 0)
(0.00215396 -0.000152927 0)
(0.00172401 -0.000427951 0)
(0.00191939 -0.000458538 0)
(0.00256759 -4.98015e-05 0)
(0.00200081 -0.000227759 0)
(0.00103502 -0.00113788 0)
(0.000783959 -0.00117196 0)
(0.00237549 -7.43276e-05 0)
(0.00236504 -7.78652e-05 0)
(0.00275237 -8.24227e-05 0)
(0.00253077 -3.01885e-05 0)
(0.00253678 -2.84814e-05 0)
(0.0017363 -0.000350659 0)
(0.00256697 -0.000198834 0)
(0.00252922 -1.48213e-05 0)
(0.000261202 -0.00154816 0)
(0.00277194 -0.000269059 0)
(0.000245484 -0.00155855 0)
(0.00330883 -5.54914e-05 0)
(0.00330391 -5.75848e-05 0)
(0.00214745 -0.0004002 0)
(0.00255971 -0.000250014 0)
(0.00116028 -0.000732738 0)
(0.00295659 -0.000156554 0)
(0.0025989 -1.74467e-05 0)
(0.00280114 -4.40114e-05 0)
(0.00340359 -1.89044e-05 0)
(0.000182805 -0.00163391 0)
(0.00299574 -0.000305591 0)
(0.00298154 -0.00019355 0)
(0.00262501 -0.000141777 0)
(0.00263052 -0.000142815 0)
(0.00300412 -0.000230355 0)
(0.00249827 -1.43171e-05 0)
(0.00320665 -0.000300039 0)
(0.00347023 -2.60587e-06 0)
(0.00121726 -0.000720425 0)
(0.00281649 -0.000127438 0)
(0.00282506 -0.000127227 0)
(0.00190173 -0.000339326 0)
(0.00229113 -0.000389731 0)
(0.00233119 -8.63106e-05 0)
(0.00228414 -0.000290153 0)
(0.00251236 -6.09742e-05 0)
(0.00275181 -7.23016e-05 0)
(0.00251692 -6.12461e-05 0)
(0.000746264 -0.00113374 0)
(0.0029901 -2.83094e-05 0)
(0.00284863 -3.01554e-05 0)
(0.00285499 -3.01696e-05 0)
(0.0018365 -0.000355265 0)
(0.00234627 -0.000318532 0)
(0.00143653 -0.000569182 0)
(0.00141786 -0.000579864 0)
(0.000612838 -0.00112452 0)
(0.00292567 -0.000351431 0)
(0.000131266 -0.00151111 0)
(0.00218071 -0.000217086 0)
(0.000151635 -0.00156797 0)
(0.002554 -0.000253127 0)
(0.000110731 -0.0015166 0)
(0.00114695 -0.000756769 0)
(0.00305738 -5.70232e-05 0)
(0.00299436 -2.95411e-05 0)
(0.00210103 -0.000422876 0)
(0.00305781 -4.06824e-05 0)
(0.00249386 -3.53374e-05 0)
(0.000636915 -0.00124302 0)
(0.00291351 -7.00408e-05 0)
(0.00228966 -0.000137606 0)
(0.00307492 -6.46032e-05 0)
(0.0025531 -0.000280882 0)
(0.00268624 -1.11123e-05 0)
(0.0019471 -0.000368716 0)
(0.00151438 -0.000481743 0)
(0.00326296 -7.48874e-05 0)
(0.00325322 -7.67366e-05 0)
(0.00323361 -8.76402e-05 0)
(0.00199772 -0.000223654 0)
(0.00316799 -6.75204e-05 0)
(0.00250957 -2.39241e-05 0)
(0.00266192 -6.03956e-05 0)
(0.00221383 -0.000282772 0)
(0.00144433 -0.000949825 0)
(0.00245963 -8.60675e-05 0)
(0.00320979 -4.95578e-05 0)
(0.00251036 -6.84147e-05 0)
(0.00174152 -0.00034804 0)
(0.00188474 -0.000368794 0)
(0.00045884 -0.00139117 0)
(0.00305882 -5.02395e-05 0)
(0.00277387 -0.000218786 0)
(0.00295966 -0.000220438 0)
(0.000771624 -0.00118275 0)
(0.00250972 -5.02854e-05 0)
(0.00256721 -6.78178e-05 0)
(0.00231245 -0.000197557 0)
(0.00304847 -3.67184e-05 0)
(0.00232344 -8.86217e-05 0)
(0.00323061 -0.00015665 0)
(0.00299675 -0.000231706 0)
(0.00127162 -0.000646164 0)
(0.00262751 -2.80029e-05 0)
(0.00322057 -7.50159e-05 0)
(0.00322711 -7.32694e-05 0)
(0.00298888 -0.000190547 0)
(0.00345277 -1.68271e-05 0)
(0.00323654 -0.000232679 0)
(0.00263031 -0.00011208 0)
(0.00263877 -0.000110671 0)
(0.0024324 -8.68854e-05 0)
(0.000199426 -0.00156225 0)
(0.00320327 -0.000185246 0)
(0.00224858 -0.000163855 0)
(0.00266594 -2.18034e-06 0)
(0.000977504 -0.00108211 0)
(0.000865725 -0.00098465 0)
(0.00280867 -0.00030086 0)
(0.00290633 -0.000277687 0)
(4.99083e-05 -0.00158743 0)
(0.00302199 -8.26877e-05 0)
(0.00235846 -0.000102191 0)
(0.00192382 -0.000267423 0)
(0.00182804 -0.000429171 0)
(0.00301565 -0.000238897 0)
(0.00194775 -0.000241924 0)
(9.98423e-06 -0.00155472 0)
(0.000311954 -0.00149524 0)
(0.00319904 -0.000188337 0)
(0.00330808 -8.84879e-05 0)
(0.00330236 -9.11172e-05 0)
(0.000243955 -0.00156322 0)
(0.00240602 -0.000180618 0)
(0.00309622 -0.000193761 0)
(0.0021417 -0.000398165 0)
(0.00240746 -0.000334387 0)
(0.00306378 -5.71602e-05 0)
(0.00175457 -0.000359622 0)
(0.0032176 -4.22269e-05 0)
(0.00321719 -4.0651e-05 0)
(0.00096804 -0.000876913 0)
(0.00102023 -0.000898893 0)
(0.000962248 -0.0008794 0)
(0.00088655 -0.000938917 0)
(0.00227509 -0.000291353 0)
(0.00259619 -0.000150759 0)
(0.00260501 -0.000150075 0)
(0.000179248 -0.00155937 0)
(0.00199452 -0.000329519 0)
(0.000444248 -0.00140492 0)
(0.000342529 -0.00149601 0)
(0.0031145 -0.00014741 0)
(0.000336877 -0.00150055 0)
(0.00312543 -2.38978e-05 0)
(0.00313137 -2.22236e-05 0)
(0.0018901 -0.000317729 0)
(0.000892641 -0.000946259 0)
(0.00233939 -0.000165965 0)
(0.00102422 -0.000811016 0)
(0.00104156 -0.000798551 0)
(0.00213819 -0.000187723 0)
(0.0028216 -6.18793e-05 0)
(0.00139328 -0.00057239 0)
(0.0014118 -0.000562006 0)
(0.00169754 -0.000646386 0)
(0.00137678 -0.000570486 0)
(0.000664159 -0.0011505 0)
(0.00324064 -0.000108875 0)
(0.00244435 -0.000364565 0)
(0.000913581 -0.00106379 0)
(0.00193675 -0.000261693 0)
(0.00276515 -0.000246934 0)
(0.00270478 -8.01153e-05 0)
(0.00269659 -8.10437e-05 0)
(0.00195765 -0.000236924 0)
(0.000388987 -0.00142496 0)
(0.0019487 -0.0002409 0)
(0.000389295 -0.0014259 0)
(0.00333747 -4.02599e-05 0)
(0.00252051 -0.000364297 0)
(0.00183135 -0.000341091 0)
(0.00210587 -0.000185167 0)
(0.00246753 -6.63019e-05 0)
(0.00247512 -6.55722e-05 0)
(0.00287318 -1.29498e-05 0)
(0.00287992 -1.3288e-05 0)
(0.00165232 -0.000433712 0)
(0.000678101 -0.00125479 0)
(0.000954975 -0.00112175 0)
(0.00188202 -0.000355102 0)
(0.00154381 -0.00055194 0)
(0.00283412 -0.000341864 0)
(0.00222745 -0.000124401 0)
(0.00117407 -0.000721553 0)
(0.00119097 -0.000798866 0)
(0.0034093 -2.56413e-05 0)
(0.000499542 -0.00135956 0)
(0.00152291 -0.00048165 0)
(0.00140226 -0.000597602 0)
(0.00255322 -0.000138996 0)
(0.00188051 -0.000373064 0)
(0.00249416 -3.90349e-05 0)
(0.00216303 -0.000168976 0)
(0.00250054 -3.70724e-05 0)
(0.000455849 -0.00139291 0)
(0.00294209 -4.42765e-05 0)
(0.002347 -0.000163601 0)
(0.00186749 -0.000334108 0)
(0.00164562 -0.000637067 0)
(0.00285417 -2.41512e-05 0)
(0.00285426 -2.27338e-05 0)
(0.00312579 -3.20078e-05 0)
(0.00195597 -0.000246708 0)
(0.00196311 -0.000244597 0)
(0.00269703 -1.5183e-05 0)
(0.00274607 -0.000224704 0)
(0.00236642 -0.000134856 0)
(0.00294832 -0.000178248 0)
(0.00195726 -0.000409947 0)
(0.00195595 -0.000415199 0)
(0.00328331 -1.2842e-05 0)
(0.00118487 -0.00079891 0)
(0.00212313 -0.000167419 0)
(0.0030136 -3.75283e-05 0)
(0.00181859 -0.000473676 0)
(0.00333902 -7.80235e-05 0)
(0.00333249 -7.97274e-05 0)
(0.000267075 -0.00156353 0)
(0.00162475 -0.000881785 0)
(0.00304964 -0.000279695 0)
(0.00304504 -0.000283543 0)
(0.00211216 -0.000181911 0)
(0.00241876 -8.48336e-05 0)
(0.00241109 -8.64711e-05 0)
(0.00049944 -0.00135776 0)
(0.00322791 -8.99652e-05 0)
(0.00171972 -0.000363871 0)
(0.00304316 -0.000264939 0)
(0.00236224 -7.74727e-05 0)
(0.00232191 -0.000333993 0)
(0.00322859 -0.000199372 0)
(0.00286943 -4.16131e-05 0)
(0.00258134 -7.96188e-06 0)
(0.00206778 -0.000258723 0)
(0.00313132 -4.13814e-05 0)
(0.00312793 -4.32831e-05 0)
(0.00172571 -0.000391548 0)
(0.000676672 -0.00113465 0)
(0.00336939 -2.4371e-05 0)
(0.00183152 -0.000299078 0)
(0.00255151 -2.09951e-05 0)
(0.00265888 -9.4851e-07 0)
(0.00269143 -8.67075e-05 0)
(0.000651455 -0.00116337 0)
(0.00258913 -5.9651e-05 0)
(0.0029826 -7.49858e-05 0)
(0.00324643 -0.000125024 0)
(0.00324806 -0.000122809 0)
(0.00218633 -0.000329232 0)
(0.00295886 -0.000296169 0)
(0.00295002 -0.000298812 0)
(0.00287976 -2.19609e-05 0)
(0.00288667 -2.14515e-05 0)
(0.00262377 -1.25328e-05 0)
(0.0030132 -0.000167014 0)
(0.00301166 -0.0001694 0)
(0.00256601 -9.55819e-06 0)
(0.00236704 -7.77521e-05 0)
(0.000101454 -0.00161638 0)
(0.00308266 -0.000108222 0)
(0.00253539 -0.000140273 0)
(0.00308994 -0.000285456 0)
(0.00287318 -0.000295248 0)
(0.00287687 -8.07988e-06 0)
(0.00077211 -0.00102495 0)
(0.00166333 -0.000392361 0)
(0.000795802 -0.00106705 0)
(0.00223283 -0.000193106 0)
(0.00271211 -0.000360041 0)
(0.000849183 -0.0010191 0)
(0.00159006 -0.00046324 0)
(0.00157731 -0.000469345 0)
(0.000135112 -0.00163299 0)
(0.0024857 -3.96487e-05 0)
(7.67004e-05 -0.00170604 0)
(0.00213768 -0.000197505 0)
(0.00298549 -0.000209084 0)
(0.00298808 -0.000205614 0)
(0.00212349 -0.000187987 0)
(0.00222423 -0.000222179 0)
(0.00263415 -2.08456e-05 0)
(0.00111144 -0.000749663 0)
(0.00111439 -0.000747487 0)
(0.00209805 -0.000220683 0)
(0.000537285 -0.00133369 0)
(0.00229113 -0.000189789 0)
(0.00211149 -0.000212822 0)
(0.00037229 -0.00143616 0)
(0.00322797 -0.000177799 0)
(0.00138581 -0.000564363 0)
(0.00342497 -2.39719e-05 0)
(0.00248416 -3.76305e-05 0)
(0.00158487 -0.000476701 0)
(0.0029267 -4.56431e-06 0)
(0.000975653 -0.000839903 0)
(0.00297384 -0.000101376 0)
(0.00128518 -0.000631975 0)
(0.00192311 -0.000254917 0)
(0.00233075 -9.17862e-05 0)
(0.00135794 -0.000623468 0)
(0.00290918 -0.000265515 0)
(0.00235343 -0.000375496 0)
(0.00135895 -0.00058814 0)
(0.00296813 -0.000306867 0)
(0.00265434 -1.71969e-05 0)
(0.00135048 -0.000593513 0)
(0.00123482 -0.000690384 0)
(0.00297943 -0.000101945 0)
(0.00273559 -0.000105194 0)
(0.00272673 -0.00010529 0)
(0.00275166 -0.000106622 0)
(0.000491428 -0.00136591 0)
(0.0033106 -0.000126166 0)
(0.0026213 -6.4337e-05 0)
(0.00262883 -6.24199e-05 0)
(0.00301063 -0.000253967 0)
(0.00280095 -3.71252e-05 0)
(0.0030424 -6.91249e-05 0)
(0.00283192 -1.58223e-05 0)
(0.00265829 -0.000214724 0)
(0.00214189 -0.000157608 0)
(0.00291467 -0.000277243 0)
(0.00266847 -0.00017801 0)
(0.00279315 -0.000166354 0)
(0.00173495 -0.000411277 0)
(0.00159862 -0.000430713 0)
(0.00246182 -8.8131e-05 0)
(0.00236558 -0.000220639 0)
(0.00211758 -0.000427065 0)
(0.00231936 -0.000111786 0)
(0.00278992 -0.000281679 0)
(0.00309918 -1.75869e-05 0)
(0.000963612 -0.00108324 0)
(0.00192165 -0.000446269 0)
(0.00264152 -0.000190649 0)
(0.00282754 -0.000299203 0)
(0.00309277 -8.76088e-05 0)
(0.00280338 -7.01978e-05 0)
(0.000631872 -0.00120844 0)
(0.00282628 -0.000227213 0)
(0.000912779 -0.000974267 0)
(0.00267827 -0.000103319 0)
(8.21542e-05 -0.00155234 0)
(0.00249832 -4.21754e-05 0)
(0.00250557 -4.04999e-05 0)
(0.00249623 -3.17025e-05 0)
(0.00278462 -2.7206e-06 0)
(0.0022854 -0.0001402 0)
(0.00091669 -0.000992843 0)
(0.00173049 -0.000359805 0)
(0.00241959 -5.6966e-05 0)
(0.000902908 -0.00100229 0)
(0.00222655 -0.000224349 0)
(0.000860909 -0.000993461 0)
(0.00301137 -0.000294097 0)
(0.00128383 -0.000643851 0)
(0.00236063 -7.85493e-05 0)
(0.00199087 -0.00026068 0)
(0.00235666 -8.69955e-05 0)
(0.000536138 -0.00131294 0)
(0.00274607 -7.7579e-05 0)
(0.000989462 -0.000859648 0)
(0.00244091 -0.000288844 0)
(0.00100139 -0.000848371 0)
(0.00326005 -3.76031e-05 0)
(0.00154191 -0.000549088 0)
(0.00138714 -0.00058672 0)
(0.000753199 -0.00101182 0)
(0.0025808 -0.000124248 0)
(0.0032057 -0.000176006 0)
(0.00231936 -0.00010207 0)
(0.000681009 -0.00118234 0)
(0.00205282 -0.000236902 0)
(0.00290083 -0.000221866 0)
(0.000988512 -0.000887946 0)
(0.000668428 -0.00119307 0)
(0.00111283 -0.000855738 0)
(0.00118471 -0.000702572 0)
(0.00216703 -0.000393746 0)
(0.00235025 -0.000379433 0)
(0.00213594 -0.000165285 0)
(0.00196896 -0.000232525 0)
(0.00266089 -0.000337214 0)
(0.00309346 -1.72698e-05 0)
(0.00312324 -0.000139487 0)
(0.00165484 -0.000446486 0)
(0.00325314 -8.9536e-06 0)
(0.00223646 -0.000240921 0)
(0.00300438 -0.000104616 0)
(0.000488593 -0.00136717 0)
(0.00305853 -0.000328078 0)
(0.00334095 -5.9104e-06 0)
(0.00306073 -4.68565e-05 0)
(0.00305812 -4.51946e-05 0)
(0.00213916 -0.000381235 0)
(0.001604 -0.000493288 0)
(0.000696689 -0.0011514 0)
(0.00160399 -0.000487233 0)
(0.00265773 -0.000212214 0)
(0.00191454 -0.000273262 0)
(0.00252478 -3.13418e-05 0)
(0.00250249 -0.000158154 0)
(0.000357607 -0.00148273 0)
(0.0010006 -0.00107261 0)
(0.0024207 -0.000166148 0)
(0.002599 -3.09244e-05 0)
(0.00243559 -8.28745e-05 0)
(0.00252101 -0.000171377 0)
(0.00274447 -0.000108389 0)
(0.00245651 -8.37013e-05 0)
(0.00152232 -0.000477698 0)
(0.00289899 -7.13869e-06 0)
(0.00261778 -0.00031615 0)
(0.00230728 -0.00026858 0)
(0.00246598 -6.24351e-05 0)
(0.00314125 -8.16933e-05 0)
(0.00298708 -0.000187851 0)
(0.00282226 -0.000334124 0)
(1.13047e-05 -0.00159441 0)
(0.0033635 -2.50793e-05 0)
(0.00243713 -0.000367951 0)
(0.00020824 -0.0015694 0)
(0.00253349 -9.52029e-05 0)
(0.00307244 -0.000202194 0)
(0.00249445 -3.38142e-05 0)
(0.00266031 -9.94009e-06 0)
(0.00265908 -9.2146e-06 0)
(0.00193581 -0.00024698 0)
(0.00160749 -0.00074998 0)
(0.00112167 -0.000825911 0)
(0.00074988 -0.00125412 0)
(0.00157953 -0.000754715 0)
(0.00293427 -0.000230243 0)
(0.0016728 -0.000493035 0)
(0.00284281 -4.6351e-05 0)
(0.00269621 -0.000191234 0)
(0.00326917 -0.000122069 0)
(0.00224886 -0.000114419 0)
(0.00171705 -0.000361014 0)
(0.00173293 -0.000352184 0)
(0.00250638 -2.69945e-05 0)
(0.000863345 -0.00122897 0)
(0.00264951 -1.74547e-05 0)
(0.000832065 -0.00124096 0)
(0.0032501 -0.000110195 0)
(0.000245036 -0.00158149 0)
(0.00289893 -3.78616e-05 0)
(0.00290706 -3.78704e-05 0)
(0.000360529 -0.00144152 0)
(0.000345681 -0.00145361 0)
(0.00281255 -7.18634e-05 0)
(0.00188375 -0.00027749 0)
(0.00327031 -3.49064e-05 0)
(0.00134166 -0.000596275 0)
(0.00134397 -0.000595604 0)
(0.00308579 -0.000203265 0)
(0.00264208 -0.000158399 0)
(0.00157848 -0.000582991 0)
(0.00174727 -0.00035102 0)
(0.00295342 -0.000277569 0)
(0.00296197 -0.000276832 0)
(0.000500574 -0.00127078 0)
(0.00277598 -6.39517e-06 0)
(0.0031502 -6.00657e-05 0)
(0.000484115 -0.00128116 0)
(0.00241055 -5.9888e-05 0)
(0.00216549 -0.000362247 0)
(0.00249697 -3.20551e-05 0)
(0.000736152 -0.00128008 0)
(0.00271869 -0.000239674 0)
(0.00281502 -7.3189e-05 0)
(0.00267871 -0.000101178 0)
(0.00257343 -4.97201e-05 0)
(0.00215228 -0.000309394 0)
(0.00164186 -0.000406397 0)
(0.00189214 -0.000273817 0)
(0.00165606 -0.000397947 0)
(0.00305697 -0.000284787 0)
(0.00243317 -8.23315e-05 0)
(0.000629094 -0.00119076 0)