/*--------------------------------*- C++ -*----------------------------------*\
| =========                 |                                                 |
| \\      /  F ield         | OpenFOAM: The Open Source CFD Toolbox           |
|  \\    /   O peration     | Version:  v2012                                 |
|   \\  /    A nd           | Website:  www.openfoam.com                      |
|    \\/     M anipulation  |                                                 |
\*---------------------------------------------------------------------------*/
FoamFile
{
    version     2.0;
    format      ascii;
    class       volScalarField;
    location    "7";
    object      epsilonEq;
}
// * * * * * * * * * * * * * * * * * * * * * * * * * * * * * * * * * * * * * //

dimensions      [0 0 0 0 0 0 0];


internalField   nonuniform List<scalar> 
30465
(
0.00130593
0.00093287
0.00187249
0.00120458
0.00110742
0.00110004
0.00180903
0.0014844
0.00188568
0.00180516
0.00123113
0.00177442
0.00125029
0.0010353
0.00163732
0.00183989
0.00111232
0.00184761
0.0019042
0.00101132
0.000639743
0.000641876
0.000965645
0.0017371
0.000979671
0.000924901
0.000928117
0.000914228
0.000841149
0.00200661
0.00143299
0.000849769
0.00128733
0.00115153
0.00137628
0.000832707
0.00184661
0.000795829
0.00111749
0.00179221
0.000860697
0.00157958
0.00171395
0.000905503
0.000904376
0.00198761
0.00170642
0.000930415
0.000903103
0.000767716
0.000781606
0.00116035
0.0014005
0.00140149
0.00283467
0.00103428
0.00278569
0.00100249
0.000854097
0.000784344
0.000781833
0.00187844
0.000648824
0.00138233
0.00137271
0.00126524
0.00147513
0.00204188
0.000485303
0.00103667
0.00105631
0.000941555
0.00186204
0.00169772
0.0012901
0.00182216
0.000788673
0.000786904
0.0010382
0.00130695
0.00168098
0.00166569
0.00111428
0.00093924
0.00119235
0.000903684
0.000859884
0.001802
0.00108669
0.000757368
0.000836977
0.000833687
0.00110941
0.00110609
0.00181761
0.000827032
0.000875993
0.000873858
0.00144229
0.000849478
0.00117078
0.000681745
0.000691949
0.00141937
0.00100213
0.00159631
0.00159633
0.00094055
0.00106073
0.0007113
0.00190812
0.00120997
0.00141658
0.00140903
0.00132145
0.0013062
0.000371849
0.000946596
0.000792363
0.00246284
0.00181559
0.000833165
0.00110531
0.000503951
0.000905172
0.000898978
0.000493427
0.00134241
0.00100508
0.00069291
0.00202644
0.000787833
0.00190931
0.00163075
0.00098177
0.000556581
0.00180868
0.000942324
0.00187349
0.001803
0.00110972
0.00146035
0.000351345
0.000873809
0.000773044
0.00192346
0.000825482
0.000824464
0.00148827
0.000748849
0.00102844
0.00155353
0.00087684
0.000877211
0.00117057
0.00108978
0.00153761
0.00111512
0.00167965
0.000870697
0.000868841
0.00170183
0.00153077
0.00154331
0.000390915
0.000784592
0.000869341
0.00181397
0.000959481
0.0016833
0.00122293
0.000800867
0.000839142
0.00083729
0.000947383
0.00170411
0.00133257
0.00135186
0.000365381
0.00140948
0.00177585
0.00135638
0.00136016
0.00105364
0.00100241
0.0012241
0.00161315
0.000959715
0.000788784
0.00110042
0.00182088
0.00092846
0.000775974
0.00142376
0.00111828
0.00112176
0.0018072
0.00111093
0.00107819
0.00131177
0.000797614
0.000846713
0.000766623
0.00171109
0.00134094
0.00109993
0.000602236
0.00177068
0.00140422
0.000837877
0.00184591
0.00108216
0.000437112
0.000892808
0.00197817
0.0015423
0.00155103
0.000940037
0.00093565
0.00180225
0.00129608
0.00124875
0.000868738
0.000984367
0.00146587
0.000802685
0.00188009
0.00160283
0.000752869
0.0012171
0.00189252
0.000853937
0.000854076
0.00102252
0.00101439
0.000461633
0.00131283
0.00130093
0.0017614
0.00176025
0.00172871
0.00120621
0.00118081
0.0013445
0.000918344
0.00165665
0.00139534
0.00126861
0.00204525
0.00101577
0.00109445
0.000650743
0.000638582
0.00188649
0.00132222
0.00200808
0.00172808
0.00175808
0.00150632
0.00171073
0.000940141
0.00109998
0.00112675
0.000577703
0.00196266
0.00196167
0.00108846
0.00167439
0.0013012
0.00105968
0.000783962
0.00102968
0.000848474
0.00110647
0.000966736
0.00165066
0.000819833
0.0011596
0.00201297
0.000615877
0.00202527
0.0012512
0.000875717
0.0010489
0.000838853
0.00102947
0.00153197
0.000940436
0.000745494
0.00102765
0.00134432
0.00126709
0.00110209
0.00185887
0.00079278
0.000981679
0.000788269
0.000451075
0.000455268
0.000808938
0.00123587
0.00123333
0.00186282
0.000727188
0.000706503
0.00173204
0.00173415
0.000802763
0.000969192
0.000155398
0.0012451
0.00125115
0.0015322
0.000978701
0.00202332
0.00135914
0.00169295
0.00170927
0.0016431
0.00269823
0.00160049
0.00267148
0.00171716
0.000603758
0.000971374
0.000960307
0.00230476
0.00155059
0.00109414
0.00194033
0.000306511
0.00180569
0.000644311
0.00147414
0.000864172
0.00162108
0.000864366
0.000892711
0.000885501
0.00159857
0.00151298
0.00116954
0.00194089
0.000863655
0.00104756
0.00157834
0.00158834
0.00179378
0.00166461
0.000822188
0.00154418
0.000756156
0.00154892
0.00146519
0.00120965
0.00153249
0.000555359
0.0017378
0.00101314
0.000865787
0.00163465
0.00161627
0.00090764
0.00101844
0.000807683
0.00178084
0.00131468
0.000460752
0.000816924
0.00138168
0.00296005
0.000830289
0.0018213
0.00166291
0.00165927
0.00156502
0.00105125
0.00135401
0.00095757
0.00112991
0.00127186
0.00103828
0.00100261
0.00156695
0.00154022
0.000746007
0.000488962
0.00176526
0.00176891
0.000506332
0.002049
0.000652871
0.00072141
0.000745193
0.00126776
0.00103654
0.00043182
0.00076535
0.00104083
0.00103788
0.000797286
0.000803139
0.00132221
0.000448743
0.00135528
0.00121947
0.00141462
0.00123448
0.00103921
0.000711171
0.00102947
0.00151719
0.000875571
0.0016237
0.00116836
0.000784583
0.000821348
0.00219742
0.00174918
0.00175889
0.000839754
0.00165106
0.0018968
0.00148461
0.000775728
0.00148587
0.00183775
0.00131022
0.00120612
0.0014957
0.00196972
0.000907847
0.0007428
0.00108718
0.00108426
0.00103068
0.000723644
0.00114736
0.00205306
0.000573506
0.00194838
0.00108141
0.00109478
0.0017017
0.000789407
0.000843186
0.00132538
0.00132356
0.00174406
0.000783921
0.00127119
0.00114268
0.000859515
0.00148376
0.00133238
0.00171168
0.00110996
0.000939781
0.000932128
0.000649926
0.000977775
0.000983077
0.00185763
0.000819984
0.000912331
0.00135817
0.00104137
0.000787939
0.00117638
0.00117053
0.00185651
0.00184322
0.00112902
0.00115351
0.000890712
0.00180903
0.000834458
0.000834335
0.00035241
0.00105567
0.0010445
0.00104456
0.000980828
0.00108555
0.00163772
0.000908793
0.00156512
0.0015679
0.0011495
0.00149374
0.000873199
0.000784913
0.00103712
0.00165885
0.00188762
0.00174673
0.00104452
0.000877473
0.00107681
0.00109551
0.00188842
0.000916163
0.000919679
0.00227001
0.000877763
0.00135349
0.00093411
0.00180926
0.000778064
0.00194468
0.00196551
0.00174208
0.00124857
0.000852398
0.000925681
0.000929258
0.000936996
0.000403365
0.00131854
0.00151275
0.00253382
0.00143125
0.00160313
0.00103298
0.000940305
0.00130749
0.00188668
0.00153217
0.00121586
0.000823406
0.000945364
0.000754961
0.00162629
0.000502115
0.00181734
0.000714882
0.00225462
0.000889814
0.0010531
0.00165397
0.00118164
0.00141797
0.00124668
0.00236834
0.00212786
0.00161415
0.000958034
0.000961384
0.00156494
0.00106826
0.00143013
0.00192253
0.00106483
0.00113666
0.00078819
0.00150981
0.00136123
0.000822472
0.0012496
0.0015923
0.00108523
0.000805455
0.00138853
0.00236474
0.00215512
0.000951348
0.000974434
0.000894388
0.000640043
0.000624377
0.00158345
0.00115131
0.000367388
0.00168464
0.00111522
0.00168164
0.000825166
0.000825962
0.0014662
0.00118952
0.00179867
0.000987194
0.000524424
0.000747169
0.000766122
0.00119839
0.00105169
0.00101277
0.00106037
0.0010567
0.00102972
0.0007655
0.00103017
0.000722672
0.00190275
0.000979874
0.000978434
0.00149908
0.00138502
0.0010001
0.0013333
0.000877293
0.000863751
0.000872914
0.00197173
0.000744561
0.000703204
0.000701043
0.00152288
0.00132175
0.00178456
0.00178974
0.00171527
0.00105778
0.00263559
0.00131288
0.00184828
0.00119616
0.00268974
0.00185564
0.000823403
0.000752258
0.00151466
0.000789792
0.000709042
0.00201425
0.000843133
0.00116938
0.000838376
0.00120962
0.000518851
0.00152069
0.0016807
0.000852081
0.000858085
0.000872236
0.00139458
0.000845979
0.000445632
0.000836445
0.00135047
0.0015532
0.000751727
0.000821538
0.000905755
0.00158874
0.00152897
0.0017461
0.000810112
0.00109125
0.00103428
0.00212597
0.000812002
0.000887846
0.00124139
0.000781289
0.00101492
0.000956323
0.0010293
0.00178072
0.000645431
0.000854754
0.00085324
0.00100809
0.000741653
0.00102879
0.000998883
0.000997104
0.00099972
0.00180532
0.000981351
0.00100565
0.000450328
0.00207146
0.00182405
0.00110858
0.00107183
0.00186079
0.000870039
0.00107296
0.00143787
0.00161605
0.00103035
0.00143663
0.00219959
0.00192199
0.000984258
0.000872374
0.000875517
0.0012079
0.00119139
0.000987253
0.00147455
0.00129503
0.000820183
0.00154785
0.000813961
0.000810094
0.0017852
0.00198156
0.00178205
0.00177093
0.00133181
0.00108048
0.00107935
0.00185398
0.00121748
0.00174347
0.00155754
0.000948653
0.00151709
0.000777718
0.000781701
0.00148329
0.00178738
0.000806982
0.00180806
0.00181446
0.00129313
0.000819136
0.00172757
0.00173143
0.00119381
0.00171615
0.00169956
0.000897657
0.00128681
0.0020573
0.00143589
0.00110853
0.000897786
0.000900148
0.00142229
0.00244755
0.00144055
0.00235968
0.000800616
0.00124261
0.00153849
0.00131173
0.000914253
0.000901988
0.000658488
0.000657141
0.00169327
0.00225204
0.0021541
0.00141422
0.00182199
0.00109885
0.00115599
0.00180153
0.00194173
0.000767432
0.00207985
0.0016501
0.00182849
0.00107708
0.00154036
0.000715058
0.00118361
0.000698367
0.00201235
0.000771222
0.000769006
0.00150256
0.00134134
0.000682085
0.000672987
0.00079093
0.00142418
0.00141051
0.000551446
0.00110441
0.00113857
0.00100985
0.00155836
0.00156909
0.000787747
0.00193707
0.00127549
0.00077483
0.00129579
0.000858528
0.000861268
0.00143998
0.00122023
0.00103598
0.00103906
0.00129734
0.00100148
0.0010024
0.00191854
0.000874018
0.00156567
0.0010323
0.000967755
0.00115614
0.00100075
0.0007457
0.000380805
0.00138828
0.00080564
0.000805208
0.00157043
0.00170068
0.000777744
0.00151349
0.000530244
0.000431548
0.000921844
0.00170092
0.000847292
0.000856261
0.000918171
0.000916782
0.000765437
0.00106047
0.00106324
0.000685247
0.000684407
0.000484855
0.000985194
0.0009868
0.000371413
0.000972249
0.00158768
0.000909671
0.00108488
0.00103281
0.00108608
0.000651593
0.00174034
0.00163616
0.00189265
0.000972965
0.00114881
0.00189583
0.0017146
0.00173715
0.00146203
0.000501859
0.0010621
0.00130303
0.0010222
0.0010182
0.00130399
0.00130236
0.000572469
0.00180257
0.00180521
0.00121783
0.00211427
0.00123905
0.00122577
0.00233713
0.000979395
0.00171162
0.000762559
0.000552662
0.00172107
0.000677525
0.00192681
0.000909975
0.0017337
0.00144735
0.00094245
0.00184953
0.00106903
0.00134086
0.00175959
0.00105796
0.000545317
0.00176168
0.00192085
0.000907432
0.000954526
0.000957059
0.000955928
0.00207915
0.000940436
0.000858619
0.000852218
0.00103747
0.00072058
0.000846169
0.000641506
0.00112925
0.00125228
0.00107131
0.00109018
0.00103957
0.00159113
0.00162779
0.00092181
0.00124855
0.0015063
0.00092119
0.00111515
0.000764174
0.00206448
0.00162133
0.00111413
0.00110502
0.000877407
0.000845854
0.00176315
0.00108085
0.00195221
0.000968828
0.00216307
0.000743829
0.000744654
0.00056561
0.000568954
0.00118184
0.00200202
0.00155598
0.000786924
0.00199956
0.00129617
0.00184059
0.00104746
0.00181355
0.00090336
0.00140884
0.000876173
0.00175587
0.000878518
0.00179092
0.00126305
0.00178167
0.000807158
0.00181365
0.00180839
0.00179311
0.00104485
0.000974429
0.000945921
0.00189592
0.00137087
0.00105195
0.00187458
0.00188429
0.00196701
0.00182237
0.00145416
0.00134881
0.00123237
0.00142357
0.00117452
0.000765055
0.000940462
0.00166931
0.000784939
0.00131418
0.000911127
0.00190036
0.00103186
0.000778525
0.000804283
0.000796813
0.00145423
0.00171441
0.00181756
0.00169713
0.00112808
0.00147088
0.000646845
0.00112466
0.0016933
0.00201611
0.00119171
0.000668099
0.000985636
0.00113758
0.000958197
0.000982845
0.00166088
0.000663804
0.00119021
0.00130823
0.000598487
0.000866338
0.00100668
0.00110151
0.00179307
0.000782155
0.00129577
0.00108122
0.000993861
0.000998919
0.000634876
0.000491103
0.000473999
0.00144438
0.00117757
0.00194901
0.00257841
0.00129283
0.00104552
0.00172238
0.000762198
0.00109672
0.000918198
0.00110368
0.00158207
0.00157165
0.000435917
0.00282707
0.000552479
0.00282841
0.000898382
0.00142902
0.000745183
0.000743462
0.00139252
0.00135526
0.000851493
0.00146673
0.000805905
0.00172986
0.00172563
0.000997768
0.00107966
0.00163247
0.0015529
0.0010574
0.0010569
0.00155564
0.000569521
0.000835599
0.00152661
0.000798704
0.000764246
0.000595993
0.0030552
0.00112298
0.00085751
0.000960428
0.000797646
0.000881163
0.00164231
0.00149005
0.00163346
0.00103755
0.000988637
0.00169173
0.0012344
0.00116858
0.000841537
0.00125996
0.000581744
0.000783874
0.00103456
0.00183679
0.000871382
0.00197808
0.00151773
0.00180371
0.000867076
0.000861163
0.00101658
0.000449438
0.00105384
0.00105039
0.000461399
0.00211436
0.000766757
0.000940501
0.00171897
0.00123268
0.00123721
0.000777195
0.00141512
0.001889
0.00195047
0.00104872
0.00141115
0.000979339
0.00100203
0.00165797
0.00118283
0.0006686
0.000677577
0.00179419
0.00152143
0.00168244
0.000942316
0.000988158
0.00161061
0.000902983
0.00169123
0.00096295
0.00111387
0.00212527
0.000766296
0.000295417
0.000761206
0.00124861
0.000951104
0.000959566
0.000698387
0.000692786
0.000781005
0.000783431
0.00149478
0.00115086
0.000973434
0.000820878
0.000733696
0.00103277
0.00138583
0.000614657
0.00154085
0.00125923
0.0016171
0.000579475
0.00132937
0.00104504
0.000518072
0.000526674
0.00178168
0.00106765
0.00110744
0.00165266
0.000787833
0.000787274
0.00134771
0.00129112
0.0013413
0.00157351
0.00115692
0.000578278
0.00200374
0.000603371
0.00129265
0.00160702
0.00145161
0.00130318
0.0015696
0.000926117
0.000928618
0.000480759
0.000741443
0.000798883
0.00079487
0.000553454
0.000743522
0.00106413
0.000841986
0.000758174
0.00126181
0.000816069
0.00177476
0.0012624
0.0017733
0.00117253
0.000820739
0.000789513
0.000784795
0.0016972
0.00133679
0.00043859
0.000790066
0.00128809
0.00158969
0.00102481
0.00102224
0.000949618
0.00138853
0.00117123
0.0019146
0.00128137
0.00147744
0.00142098
0.000850558
0.00128309
0.000981344
0.00151268
0.000977213
0.000932935
0.000840536
0.00101561
0.000468691
0.00126436
0.00150737
0.00191601
0.000528124
0.000798209
0.000965847
0.0017678
0.0012032
0.00120117
0.00112414
0.00118557
0.000781973
0.000786962
0.000965832
0.0011429
0.00152052
0.00151144
0.000869162
0.00155334
0.00109598
0.00109946
0.00223108
0.000775276
0.00103185
0.000596135
0.00161774
0.00117937
0.00118525
0.000772064
0.00186356
0.00158114
0.000919906
0.000569482
0.00179844
0.000971753
0.00103288
0.000787707
0.000785614
0.00149769
0.000802502
0.00150947
0.00108677
0.00108875
0.00194752
0.00148831
0.000785586
0.00441948
0.00151219
0.000754619
0.00102507
0.000984634
0.000912558
0.00221945
0.00106344
0.00183112
0.00091188
0.00134283
0.00101486
0.000914801
0.0009062
0.00120582
0.000710605
0.00199093
0.00148923
0.00150083
0.00139583
0.000940735
0.00113185
0.00112888
0.00104044
0.00159337
0.00145492
0.00073983
0.000737455
0.00105133
0.00100774
0.000690364
0.00110148
0.0014947
0.00144814
0.000733343
0.00103072
0.00135917
0.000745973
0.00102645
0.0016781
0.00108742
0.00100016
0.00112319
0.000906185
0.000813221
0.000977441
0.00113138
0.00124698
0.0010411
0.00103679
0.00181166
0.000783469
0.000788435
0.00164586
0.00043207
0.00215545
0.00113143
0.00124766
0.00170017
0.00110075
0.00171413
0.000645409
0.000948385
0.00155569
0.00219466
0.00228127
0.000900389
0.0013131
0.000635264
0.00167078
0.0018948
0.000896466
0.000759684
0.00223443
0.000813715
0.00145702
0.000764505
0.002702
0.000439414
0.000802384
0.000425971
0.000684507
0.00066806
0.00183053
0.00179731
0.00077827
0.00265552
0.000332894
0.000936512
0.00252168
0.000296773
0.000788258
0.00069606
0.001132
0.000881686
0.00105329
0.00104764
0.00103724
0.00109406
0.00102262
0.00101403
0.000457347
0.00115146
0.00147109
0.000915755
0.00112451
0.00162875
0.00112191
0.00113985
0.00139265
0.000813774
0.00169271
0.000845552
0.00183358
0.000779966
0.00077571
0.000756637
0.00111522
0.000392112
0.00166664
0.000779555
0.000759945
0.000670407
0.00191566
0.00075648
0.00103075
0.000493445
0.000430442
0.000840587
0.00143847
0.000744956
0.00163198
0.000739108
0.00101242
0.00156133
0.00157302
0.000505785
0.00167907
0.000554041
0.000795368
0.00105404
0.00105753
0.00102765
0.00155971
0.000865796
0.000854133
0.00178582
0.000981646
0.00167469
0.000539827
0.000945707
0.000579452
0.000510723
0.00175294
0.00175169
0.000802481
0.000803183
0.00108021
0.00130335
0.000956742
0.00079997
0.00103194
0.00128937
0.00104091
0.00169058
0.00103967
0.000936286
0.00117834
0.00167359
0.000800463
0.000672983
0.00118848
0.000962203
0.000876526
0.000839797
0.000902299
0.000788611
0.00183904
0.00118517
0.000925681
0.000793857
0.00158459
0.00180626
0.00195628
0.00101785
0.00236189
0.00152609
0.00093356
0.00184977
0.000494838
0.00177442
0.000623697
0.00143371
0.000490712
0.000820284
0.000987891
0.00083365
0.000832528
0.00134411
0.00115711
0.00111726
0.0011082
0.00178436
0.00118151
0.000773693
0.00151747
0.00140354
0.00179138
0.000980492
0.000994852
0.00192185
0.000772247
0.00137296
0.00187591
0.000811748
0.00149629
0.00139399
0.000735015
0.000575166
0.000974673
0.0012675
0.00103582
0.00149437
0.00150817
0.000689681
0.000823329
0.00104625
0.00184066
0.00186807
0.000767861
0.000909297
0.000940582
0.00129407
0.00172124
0.00188371
0.00050492
0.00126031
0.00118343
0.00112395
0.000948936
0.000866038
0.00149144
0.00119144
0.000890262
0.000942818
0.00168647
0.00133
0.00100321
0.00122594
0.000748199
0.0011567
0.00159238
0.000798385
0.00170206
0.00103109
0.00136249
0.000815167
0.00175952
0.00127966
0.00136962
0.000805934
0.00126133
0.00108871
0.00190667
0.000961228
0.00096068
0.000749824
0.000767172
0.000685945
0.0017654
0.00131763
0.00117041
0.00114056
0.001194
0.00118789
0.00207314
0.000939624
0.000800375
0.00110832
0.00111844
0.00121404
0.000697904
0.0011818
0.000868232
0.00035803
0.000598653
0.00195461
0.000791612
0.00116642
0.00110507
0.00155759
0.00178949
0.00123268
0.000981487
0.00154314
0.00153002
0.000790468
0.0010392
0.00102681
0.00105445
0.00167397
0.00167116
0.000944093
0.000485323
0.0010209
0.00169181
0.00209191
0.00193374
0.000794956
0.000753286
0.00149951
0.00174053
0.00140455
0.00110962
0.00124715
0.000690922
0.00117957
0.000757832
0.000758631
0.00114105
0.00112806
0.00141758
0.00091047
0.00155184
0.00210433
0.000991143
0.00152253
0.00103973
0.00126111
0.000844899
0.000552941
0.00221712
0.00222785
0.000540942
0.00127116
0.000848226
0.00101816
0.0010116
0.00151715
0.00132711
0.00105605
0.000878836
0.000981552
0.002054
0.000823191
0.000994825
0.000945985
0.00163357
0.00096226
0.000750965
0.000667853
0.00181644
0.00204434
0.001769
0.00142947
0.000909798
0.00201848
0.00194689
0.000438419
0.000575048
0.000830384
0.000885814
0.00151692
0.000545493
0.00080963
0.00139695
0.00138805
0.00148514
0.00150031
0.0012404
0.00129098
0.00115843
0.000777406
0.00154179
0.000769407
0.000993606
0.000765845
0.00109923
0.000866545
0.00103858
0.00138863
0.00090619
0.00106148
0.00112715
0.000992712
0.000993856
0.000999319
0.00100082
0.000774748
0.000810306
0.00102227
0.0018552
0.00159592
0.000441845
0.000849191
0.00179523
0.00126085
0.00135131
0.00116998
0.00154738
0.000984184
0.000983119
0.0014026
0.000833053
0.00104701
0.000661504
0.00166785
0.0011027
0.000783716
0.00135459
0.00166731
0.000341343
0.0017348
0.000847669
0.00158711
0.00136754
0.00104058
0.00125708
0.000890924
0.00103217
0.000865942
0.000652998
0.00129588
0.000975871
0.00176721
0.0014332
0.00170285
0.00162289
0.00164699
0.000972058
0.00227121
0.00111411
0.00191479
0.000818087
0.00189338
0.000840239
0.00173342
0.000843824
0.00109788
0.00131195
0.000920127
0.000790367
0.000915971
0.00093259
0.00150867
0.000382375
0.00115518
0.0019282
0.000763499
0.000800128
0.00127131
0.00136082
0.000556321
0.000987904
0.00149672
0.0014451
0.00079244
0.00108116
0.00189499
0.00201223
0.00177103
0.00252654
0.000760719
0.00104877
0.00160443
0.00160625
0.00197342
0.000894831
0.000916939
0.000910174
0.00187462
0.000968492
0.00157712
0.00115152
0.00114566
0.00115066
0.00156871
0.00147303
0.00121014
0.000845233
0.00174169
0.000378029
0.001883
0.00110339
0.000691348
0.0013393
0.00155984
0.000685311
0.000767103
0.00183224
0.00112374
0.00126988
0.00100699
0.00100812
0.00117645
0.00104222
0.00079237
0.000791646
0.00155061
0.000900991
0.00119336
0.00187349
0.000818267
0.00139071
0.00143951
0.00161329
0.0010429
0.000786863
0.0012858
0.00176775
0.000834947
0.00279764
0.00170815
0.0028237
0.000983357
0.0017951
0.0016173
0.00161482
0.00158359
0.00154398
0.00117737
0.00110509
0.000979317
0.00129706
0.000599719
0.000833903
0.00131426
0.00174207
0.000820113
0.000824957
0.00100971
0.00148094
0.00190566
0.000455219
0.000447692
0.000704411
0.000708188
0.00164624
0.00176466
0.00119236
0.00136554
0.000606202
0.00146543
0.00160663
0.00164882
0.000956968
0.00110953
0.00241911
0.00160286
0.000937012
0.00077419
0.00103053
0.000738358
0.000533368
0.00171289
0.000823589
0.000989894
0.000789293
0.00114753
0.00148914
0.00177189
0.000858232
0.000472811
0.000690673
0.000599732
0.000935831
0.000773647
0.00184162
0.00132793
0.000812788
0.000815304
0.000471056
0.000788861
0.00103272
0.000622006
0.00045997
0.00124464
0.00099101
0.00175461
0.00186722
0.000783159
0.000778885
0.00182734
0.00173125
0.000889789
0.00105413
0.00187406
0.00161677
0.00244201
0.00101225
0.000712615
0.00152258
0.00154673
0.000777357
0.00174872
0.00123551
0.000899681
0.0017634
0.000919655
0.00104953
0.000337993
0.000905827
0.000543686
0.00105709
0.00101084
0.000839103
0.00115724
0.00175026
0.0012634
0.000830876
0.00126558
0.00180151
0.00142945
0.0017999
0.000995039
0.00145489
0.000984267
0.000908989
0.00109089
0.001508
0.00131258
0.000987168
0.00116101
0.000835644
0.0013775
0.00118433
0.00177481
0.00113907
0.00113992
0.00124437
0.00125723
0.000703998
0.000705341
0.00133059
0.000825027
0.000786594
0.00078431
0.000981007
0.000649697
0.000649552
0.000908286
0.00147996
0.00151135
0.000793274
0.00123402
0.00147432
0.00113226
0.000502229
0.000693828
0.00127952
0.00125323
0.000361937
0.00101449
0.0018709
0.00164871
0.00141984
0.000367936
0.000798908
0.00104246
0.00125026
0.00119229
0.0011918
0.00144085
0.00104735
0.00132242
0.00084803
0.00190532
0.00117649
0.000835465
0.00170582
0.00171973
0.0011231
0.00122486
0.000743435
0.000747658
0.000652495
0.00177259
0.00178663
0.00124224
0.00199208
0.00138386
0.00146161
0.000789212
0.00148838
0.000575623
0.00089996
0.000893607
0.00113461
0.00137249
0.00171763
0.00242669
0.000365416
0.000896978
0.00129632
0.00116362
0.000794642
0.00148107
0.000604202
0.00101638
0.00101778
0.00111198
0.000762093
0.00149543
0.000954404
0.00155485
0.00154403
0.000982446
0.00174479
0.00170832
0.00175543
0.00178183
0.000780894
0.000841112
0.00096934
0.00129439
0.00185129
0.000753232
0.00177874
0.00062861
0.000768884
0.00102451
0.000799417
0.00193474
0.000494193
0.000589112
0.000404986
0.000850252
0.00115265
0.00155871
0.000870071
0.000903219
0.000904602
0.000937471
0.00131969
0.000651619
0.000821894
0.00182071
0.0015338
0.00122306
0.00221746
0.00147052
0.00159886
0.000778936
0.00169134
0.00119742
0.00102786
0.000763925
0.00123808
0.00111108
0.00121058
0.000479151
0.00317841
0.000825715
0.00169746
0.00092451
0.00120826
0.00143933
0.00143079
0.00120259
0.00164958
0.00103207
0.00082431
0.000778929
0.00107681
0.000643244
0.00114089
0.00104638
0.00152042
0.000655319
0.000885807
0.00088472
0.000401595
0.00102709
0.000766707
0.00138227
0.00182143
0.000713322
0.00139154
0.00220358
0.00171466
0.000758201
0.0011124
0.000723136
0.000913532
0.00146764
0.00179423
0.00130274
0.00178735
0.00110563
0.00091978
0.000922141
0.0015979
0.00162112
0.0014744
0.000821855
0.000861096
0.000858825
0.00249279
0.000863612
0.00251186
0.000488717
0.000994682
0.00104214
0.00179253
0.00179054
0.00170729
0.00125965
0.000841517
0.00156471
0.00162923
0.00100607
0.00100714
0.00150182
0.000779692
0.00103852
0.00126475
0.00103166
0.000736441
0.00164804
0.00105082
0.00121247
0.000353511
0.00123599
0.00217719
0.000753483
0.000749653
0.000958876
0.000907074
0.000941687
0.000731822
0.000561363
0.000422116
0.00185057
0.00164631
0.00163701
0.00101128
0.00333016
0.000932755
0.00155367
0.000748037
0.00136728
0.0017263
0.00156099
0.00155934
0.000898545
0.0017165
0.00104507
0.00104119
0.00226667
0.0019231
0.00166255
0.0016418
0.000916253
0.00130028
0.00170305
0.00187229
0.000916145
0.000917755
0.00144588
0.000863492
0.00108437
0.00108607
0.00478444
0.000836515
0.000446126
0.00135437
0.000956296
0.00096881
0.000665894
0.000672863
0.000488916
0.00080309
0.0018059
0.00106904
0.00105892
0.00192878
0.00102356
0.00196163
0.000660116
0.000720656
0.00318573
0.00143786
0.0010593
0.000646579
0.0016013
0.00123288
0.000641067
0.000791376
0.000865511
0.00102281
0.00101901
0.00177072
0.0012869
0.00173688
0.000806348
0.000695815
0.00125733
0.000940189
0.00101214
0.00285656
0.00106993
0.00188661
0.00276035
0.00109291
0.00125558
0.00102955
0.00175683
0.000559097
0.0018102
0.00128582
0.00179675
0.00179411
0.00103369
0.000756042
0.000810208
0.00151431
0.00152187
0.000697032
0.000800094
0.00159569
0.00142316
0.00181245
0.00112152
0.00150831
0.00127014
0.00178678
0.0011603
0.00073333
0.00116043
0.00158898
0.00131074
0.00158435
0.00093577
0.00150628
0.00148918
0.000558201
0.00126674
0.00159228
0.00102184
0.00170151
0.000677282
0.00261504
0.00116496
0.00111355
0.00071745
0.00164837
0.00181677
0.000678549
0.000887046
0.000891295
0.00239258
0.000819316
0.000807912
0.00139579
0.00122698
0.0011982
0.00107835
0.00177144
0.00184985
0.00112071
0.00175406
0.00179121
0.000927974
0.00181211
0.000625036
0.000880752
0.00229403
0.00151931
0.00149881
0.0020819
0.00181193
0.00168268
0.00160854
0.00100175
0.000830667
0.000693852
0.00172269
0.000897659
0.00124912
0.00166742
0.00166664
0.000761212
0.00117745
0.000792318
0.00116541
0.0011721
0.00172726
0.00173026
0.00179302
0.00176634
0.00117126
0.0016916
0.000793253
0.00165551
0.000294752
0.00080832
0.000590487
0.00140119
0.000967417
0.000963522
0.00202503
0.00101589
0.000833583
0.00171989
0.000850809
0.00108484
0.000797287
0.0010232
0.00086801
0.00113457
0.00119195
0.00120104
0.0017915
0.00129413
0.000718023
0.0010518
0.00161112
0.000847663
0.00120331
0.000572609
0.00112399
0.0011149
0.00112623
0.00225057
0.00138453
0.00202308
0.00128294
0.00144047
0.00153157
0.000404355
0.00129154
0.00169824
0.00168175
0.00181923
0.000764624
0.000775017
0.00105447
0.00130641
0.000292803
0.000794054
0.000955244
0.000799051
0.000722887
0.00072719
0.000897669
0.00124601
0.00066137
0.00095295
0.00134712
0.00118743
0.000864171
0.00185938
0.00183965
0.000993876
0.000831039
0.000732133
0.000889467
0.000639017
0.00178509
0.00140731
0.00131156
0.000786072
0.00181233
0.000994451
0.000733239
0.00151711
0.000895295
0.000792646
0.000790042
0.000766933
0.00122153
0.000675128
0.00106074
0.000659907
0.000628516
0.000943194
0.000537725
0.000797693
0.00132157
0.000810147
0.00113115
0.00115013
0.00115207
0.00102592
0.00115247
0.00114667
0.000936155
0.00180729
0.00150117
0.000762214
0.00137531
0.000691815
0.00184262
0.00182249
0.0007864
0.000783973
0.00133012
0.000782166
0.000876238
0.0015695
0.00190919
0.00114095
0.000799006
0.000728945
0.000735075
0.00174882
0.00149029
0.000845237
0.000699189
0.00115498
0.000595266
0.000783688
0.00116904
0.00362994
0.00133383
0.00103751
0.00102803
0.000999505
0.00121064
0.00120725
0.000778098
0.000657307
0.000664501
0.00079741
0.000800206
0.00103505
0.000764835
0.000760765
0.00119154
0.0011521
0.00100932
0.00141986
0.000999478
0.0014563
0.00144375
0.00128422
0.00182201
0.00121567
0.00172194
0.00140768
0.00139489
0.00176262
0.000774048
0.000771071
0.0010171
0.00101758
0.00197048
0.00185528
0.00106851
0.00099895
0.00113541
0.00106327
0.00170634
0.00109169
0.00104662
0.00104419
0.00124032
0.000840348
0.00208614
0.00132509
0.00155819
0.00096818
0.00112628
0.000965493
0.00211326
0.000725328
0.00179199
0.00184922
0.00128219
0.000776632
0.00103445
0.00144942
0.000863605
0.000849004
0.00165448
0.00109548
0.00101117
0.00171338
0.0018411
0.00111336
0.00138468
0.0018944
0.000902948
0.00090433
0.00125188
0.00145774
0.001765
0.00176601
0.00076406
0.00171685
0.00135177
0.00106257
0.00105325
0.00103598
0.00103672
0.000828561
0.00127375
0.00152955
0.000873911
0.00118499
0.00133324
0.00205677
0.00117969
0.000864899
0.00256124
0.000720873
0.000764916
0.00158833
0.000958364
0.00131328
0.000942377
0.000572213
0.000625774
0.00113937
0.00104016
0.0017419
0.000828253
0.000892789
0.000466321
0.000778335
0.00101772
0.000784508
0.00103783
0.00053358
0.00100003
0.0010935
0.0010958
0.00163052
0.00166351
0.00107826
0.000556633
0.0016839
0.00182131
0.000909278
0.00143304
0.00094892
0.00155194
0.00063211
0.00205518
0.0010436
0.000783792
0.000823057
0.00174901
0.00165217
0.00100388
0.00100259
0.00114611
0.000671883
0.00170154
0.00130005
0.000996094
0.000959492
0.000780075
0.0010628
0.000492668
0.000800306
0.000338922
0.000824393
0.00140578
0.00164065
0.00133786
0.00133781
0.00172326
0.00126863
0.001234
0.00103028
0.000709744
0.00197801
0.000951509
0.00173586
0.00111498
0.00111654
0.000838592
0.000767772
0.00173491
0.00161613
0.000975574
0.00110397
0.000834867
0.000823445
0.000934754
0.000664914
0.000667659
0.00083507
0.00131209
0.00100383
0.00150986
0.000799953
0.000723988
0.00136266
0.00155565
0.00154727
0.00156459
0.00176362
0.00116458
0.00112224
0.000539758
0.0012067
0.0020668
0.00123922
0.00078184
0.000353652
0.00185383
0.000444178
0.00105124
0.000982034
0.000926968
0.000726795
0.000793781
0.000915818
0.00189344
0.00179019
0.00149969
0.000558372
0.000938758
0.0017655
0.00164476
0.000984348
0.000787574
0.0018402
0.00156079
0.000732458
0.00116118
0.000786326
0.000999196
0.00108421
0.0008719
0.00110041
0.000821095
0.00129854
0.00185185
0.001593
0.00184892
0.000523294
0.00187117
0.00106536
0.0013336
0.000667742
0.0012595
0.00129852
0.0008005
0.000904768
0.00112437
0.00171428
0.00112978
0.000829618
0.001628
0.00088605
0.000867366
0.00108107
0.000774745
0.000945971