/*--------------------------------*- C++ -*----------------------------------*\
| =========                 |                                                 |
| \\      /  F ield         | OpenFOAM: The Open Source CFD Toolbox           |
|  \\    /   O peration     | Version:  v2012                                 |
|   \\  /    A nd           | Website:  www.openfoam.com                      |
|    \\/     M anipulation  |                                                 |
\*---------------------------------------------------------------------------*/
FoamFile
{
    version     2.0;
    format      ascii;
    class       pointVectorField;
    location    "7";
    object      pointD;
}
// * * * * * * * * * * * * * * * * * * * * * * * * * * * * * * * * * * * * * //

dimensions      [0 1 0 0 0 0 0];


internalField   nonuniform List<vector> 
30930
(
(0.00253516 0 -3.71117e-22)
(0.00358096 0 0)
(0.00330193 -0.000321385 2.31552e-22)
(0 -0.00180958 1.98776e-21)
(0 -0.00133893 8.04514e-21)
(0.00253516 0 -3.71117e-22)
(0.00358096 0 0)
(0.00330193 -0.000321385 2.31552e-22)
(0 -0.00180958 1.98776e-21)
(0 -0.00133893 8.04514e-21)
(0.00254285 0 0)
(0.00255079 0 0)
(0.00255859 0 0)
(0.00256549 0 0)
(0.0025707 0 0)
(0.00257554 0 0)
(0.00258008 0 0)
(0.0025841 0 0)
(0.00258748 0 0)
(0.00259051 0 0)
(0.00259336 0 0)
(0.00259619 0 0)
(0.00259883 0 0)
(0.00260128 0 0)
(0.0026039 0 0)
(0.00260656 0 0)
(0.00260924 0 0)
(0.00261199 0 0)
(0.00261452 0 0)
(0.00261731 0 0)
(0.00262024 0 0)
(0.00262312 0 0)
(0.00262627 0 0)
(0.00262968 0 0)
(0.00263322 0 0)
(0.00263692 0 0)
(0.00264073 0 0)
(0.00264472 0 0)
(0.00264894 0 0)
(0.00265325 0 0)
(0.00265773 0 0)
(0.00266251 0 0)
(0.00266728 0 0)
(0.00267195 0 0)
(0.00267732 0 0)
(0.00268301 0 0)
(0.00268844 0 0)
(0.00269408 0 0)
(0.00270008 0 0)
(0.00270612 0 0)
(0.00271187 0 0)
(0.0027185 0 0)
(0.0027255 0 0)
(0.00273213 0 0)
(0.0027389 0 0)
(0.00274599 0 0)
(0.00275335 0 0)
(0.00276077 0 0)
(0.00276852 0 0)
(0.00277632 0 0)
(0.00278411 0 0)
(0.00279209 0 0)
(0.00280005 0 0)
(0.0028084 0 0)
(0.00281718 0 0)
(0.00282594 0 0)
(0.00283472 0 0)
(0.00284336 0 0)
(0.00285235 0 0)
(0.00286163 0 0)
(0.00287084 0 0)
(0.00288022 0 0)
(0.0028905 0 0)
(0.00290057 0 0)
(0.00291005 0 0)
(0.00291992 0 0)
(0.00292993 0 0)
(0.00293995 0 0)
(0.002951 0 0)
(0.00296199 0 0)
(0.00297214 0 0)
(0.00298262 0 0)
(0.0029929 0 0)
(0.00300429 0 0)
(0.00301596 0 0)
(0.00302685 0 0)
(0.00303805 0 0)
(0.00304919 0 0)
(0.00306021 0 0)
(0.00307224 0 0)
(0.00308409 0 0)
(0.00309619 0 0)
(0.00310854 0 0)
(0.00312012 0 0)
(0.00313207 0 0)
(0.0031443 0 0)
(0.00315656 0 0)
(0.00316815 0 0)
(0.00318093 0 0)
(0.00319428 0 0)
(0.0032068 0 0)
(0.00321903 0 0)
(0.00323068 0 0)
(0.00324356 0 0)
(0.00325702 0 0)
(0.0032696 0 0)
(0.00328217 0 0)
(0.00329527 0 0)
(0.003308 0 0)
(0.0033199 0 0)
(0.00333393 0 0)
(0.003348 0 0)
(0.00336046 0 0)
(0.00337365 0 0)
(0.00338693 0 0)
(0.00340003 0 0)
(0.00341351 0 0)
(0.00342684 0 0)
(0.00343958 0 0)
(0.00345269 0 0)
(0.00346585 0 0)
(0.00347941 0 0)
(0.003493 0 0)
(0.00350608 0 0)
(0.00351888 0 0)
(0.00353228 0 0)
(0.0035457 0 0)
(0.00355808 0 0)
(0.003571 0 0)
(0.00358411 -1.16173e-06 3.24338e-21)
(0.0035839 -2.14108e-06 1.41771e-21)
(0.00358346 -3.18295e-06 -4.56092e-21)
(0.00358283 -4.39074e-06 3.44932e-21)
(0.00358208 -5.49287e-06 1.08329e-20)
(0.00358113 -6.61827e-06 6.58615e-21)
(0.00358003 -7.78632e-06 3.21227e-21)
(0.00357872 -9.03571e-06 3.30897e-21)
(0.0035773 -1.03e-05 3.68586e-21)
(0.00357561 -1.16304e-05 -7.61454e-23)
(0.00357399 -1.28253e-05 -3.76428e-21)
(0.00357215 -1.4147e-05 -2.14123e-21)
(0.00356986 -1.5732e-05 -2.93316e-21)
(0.00356764 -1.72363e-05 -5.73323e-21)
(0.00356525 -1.87807e-05 -4.78739e-21)
(0.00356271 -2.03986e-05 -3.40433e-21)
(0.00356004 -2.20865e-05 -1.5215e-21)
(0.00355731 -2.37892e-05 -4.42467e-22)
(0.00355429 -2.56785e-05 -4.42467e-22)
(0.00355096 -2.77552e-05 -4.35153e-22)
(0.00354779 -2.97506e-05 1.82467e-21)
(0.00354464 -3.17156e-05 2.75349e-22)
(0.00354104 -3.39486e-05 -4.49157e-22)
(0.00353743 -3.62531e-05 2.09319e-21)
(0.00353403 -3.84483e-05 5.57875e-22)
(0.0035301 -4.09872e-05 1.24152e-21)
(0.00352598 -4.36815e-05 -1.78658e-21)
(0.00352213 -4.62712e-05 -1.57313e-21)
(0.0035183 -4.88677e-05 -7.41046e-22)
(0.00351383 -5.19297e-05 -1.04397e-21)
(0.00350929 -5.51347e-05 2.04684e-21)
(0.00350521 -5.80541e-05 1.56225e-21)
(0.00350042 -6.15611e-05 3.40369e-21)
(0.00349572 -6.50879e-05 3.9426e-21)
(0.0034915 -6.82907e-05 2.51244e-22)
(0.00348711 -7.17198e-05 -9.51172e-22)
(0.0034826 -7.53147e-05 2.68734e-22)
(0.00347801 -7.9068e-05 2.21745e-21)
(0.00347302 -8.32281e-05 3.15877e-21)
(0.00346814 -8.73874e-05 1.2061e-21)
(0.00346312 -9.17674e-05 -1.43945e-21)
(0.00345863 -9.56971e-05 -1.43945e-21)
(0.00345416 -9.98224e-05 -2.34096e-21)
(0.00344919 -0.000104521 1.94925e-21)
(0.00344424 -0.000109301 4.58539e-21)
(0.00343915 -0.000114362 2.95184e-22)
(0.00343455 -0.000119018 2.05551e-21)
(0.00342976 -0.00012399 -7.54204e-23)
(0.00342492 -0.000129193 -2.22401e-21)
(0.00342012 -0.00013446 4.20109e-21)
(0.00341543 -0.000139752 4.29417e-21)
(0.00341066 -0.000145295 -2.92347e-22)
(0.003406 -0.000150843 -1.52955e-21)
(0.00340116 -0.000156797 -2.45141e-21)
(0.00339643 -0.000162769 -1.98552e-21)
(0.0033923 -0.000168115 -3.72098e-21)
(0.00338823 -0.000173549 -4.45894e-21)
(0.0033838 -0.000179668 -5.82247e-22)
(0.00337944 -0.000185787 2.73667e-21)
(0.00337523 -0.00019189 1.80965e-21)
(0.00337066 -0.00019876 -2.84446e-21)
(0.00336647 -0.000205239 -5.52631e-21)
(0.00336268 -0.000211262 -1.46302e-21)
(0.0033589 -0.000217411 1.21883e-21)
(0.00335511 -0.000223769 -5.94744e-22)
(0.00335137 -0.000230205 -8.52626e-24)
(0.0033477 -0.000236678 4.49937e-21)
(0.00334371 -0.000243958 2.25786e-21)
(0.00334036 -0.000250155 3.02097e-21)
(0.00333719 -0.000256225 7.52034e-21)
(0.00333356 -0.000263291 2.84408e-21)
(0.0033303 -0.000269757 0)
(0.00332702 -0.000276374 5.90968e-22)
(0.00332379 -0.000282978 2.49851e-21)
(0.00332063 -0.000289517 -1.26382e-21)
(0.00331755 -0.000295941 -6.48622e-21)
(0.00331411 -0.000303146 -2.93349e-21)
(0.00331114 -0.000309368 -1.53795e-21)
(0.00330832 -0.00031525 -1.91932e-21)
(0.0032894 -0.00032545 -1.59668e-23)
(0.00327425 -0.000328586 -2.17361e-21)
(0.00325983 -0.000331574 -6.83126e-22)
(0.00324427 -0.000334796 1.54048e-22)
(0.0032288 -0.000337984 -2.05981e-21)
(0.00321409 -0.000340988 -1.5279e-21)
(0.00319909 -0.000344013 -5.57016e-22)
(0.00318356 -0.000347098 0)
(0.00316809 -0.000350108 -1.21223e-22)
(0.00315322 -0.00035294 -1.03428e-21)
(0.00313824 -0.000355718 -1.48958e-21)
(0.00312372 -0.000358338 -3.63293e-22)
(0.00310869 -0.000360982 1.94648e-21)
(0.00309302 -0.000363639 1.13592e-21)
(0.00307769 -0.000366157 -7.32356e-22)
(0.00306226 -0.000368603 -8.02668e-22)
(0.00304691 -0.00037093 -1.34098e-21)
(0.00303259 -0.000373025 -1.16688e-21)
(0.00301606 -0.000375354 -4.22443e-22)
(0.00299948 -0.000377598 1.51658e-21)
(0.00298519 -0.000379438 6.92036e-22)
(0.00296962 -0.000381365 -1.72811e-21)
(0.00295375 -0.000383233 -1.55625e-21)
(0.00293835 -0.000384964 1.43429e-22)
(0.00292279 -0.000386635 1.28819e-21)
(0.00290592 -0.000388357 -7.19435e-22)
(0.00288962 -0.000389966 -9.06278e-22)
(0.00287422 -0.000391399 -1.52068e-21)
(0.0028584 -0.000392794 -1.89702e-21)
(0.00284251 -0.00039415 -4.80654e-22)
(0.00282481 -0.000395609 -1.22152e-21)
(0.00280764 -0.000396956 -1.25576e-21)
(0.0027919 -0.000398125 1.32121e-21)
(0.00277497 -0.000399335 2.2636e-21)
(0.00275783 -0.000400519 -2.76949e-22)
(0.00274079 -0.000401656 -1.85256e-21)
(0.00272392 -0.000402751 1.51308e-21)
(0.00270576 -0.000403911 3.76396e-21)
(0.00268773 -0.000405022 -1.62051e-22)
(0.00266967 -0.000406115 -3.50973e-22)
(0.00265113 -0.000407238 1.23992e-21)
(0.00263373 -0.000408288 5.9527e-22)
(0.00261574 -0.000409354 -3.16323e-22)
(0.00259794 -0.000410396 -6.45229e-23)
(0.00258025 -0.00041145 1.82096e-21)
(0.00256062 -0.00041265 3.42437e-21)
(0.00254021 -0.000413933 1.84039e-21)
(0.00252142 -0.000415121 1.82186e-21)
(0.00250319 -0.000416288 8.31775e-22)
(0.00248355 -0.000417588 4.80064e-22)
(0.00246398 -0.000418925 4.28418e-21)
(0.00244595 -0.000420205 1.55926e-21)
(0.00242475 -0.000421783 -1.34145e-21)
(0.00240316 -0.000423451 -5.7574e-22)
(0.00238289 -0.000425097 -8.30491e-22)
(0.00236238 -0.000426816 -6.25446e-22)
(0.00234281 -0.000428521 -4.54076e-22)
(0.00232249 -0.000430386 1.32623e-21)
(0.00230165 -0.000432389 1.4834e-21)
(0.00227895 -0.000434699 -2.9691e-22)
(0.00225704 -0.000437033 0)
(0.00223462 -0.000439554 -1.20472e-21)
(0.00221207 -0.00044219 6.90255e-22)
(0.00218917 -0.000445011 3.43132e-21)
(0.00216596 -0.000448009 1.7299e-21)
(0.00214463 -0.000450909 1.29731e-21)
(0.00212244 -0.000454066 2.3219e-21)
(0.00210083 -0.000457261 3.97047e-21)
(0.00207613 -0.000461119 1.3474e-21)
(0.00205128 -0.000465184 -6.63563e-22)
(0.00202928 -0.00046896 3.64859e-21)
(0.00200622 -0.000473071 1.74963e-21)
(0.00198018 -0.000477952 2.70046e-22)
(0.00195486 -0.000482908 3.19145e-21)
(0.00192949 -0.000488123 2.27562e-21)
(0.00190687 -0.000492839 1.01756e-21)
(0.00188372 -0.000497926 5.05727e-22)
(0.0018572 -0.000504075 -7.62806e-22)
(0.00183116 -0.000510369 -7.95513e-22)
(0.00180428 -0.000517081 -1.50633e-22)
(0.00177888 -0.000523708 3.65683e-21)
(0.00175247 -0.000530842 8.90599e-21)
(0.00172529 -0.000538486 5.56482e-21)
(0.00169912 -0.000546139 3.07825e-22)
(0.00167367 -0.000553858 -4.59841e-22)
(0.00164734 -0.000562158 1.79097e-21)
(0.0016201 -0.000571061 3.48868e-21)
(0.00159061 -0.000581028 7.35979e-21)
(0.0015619 -0.000591107 7.97642e-21)
(0.00153568 -0.000600638 3.74166e-21)
(0.00150952 -0.000610437 3.93403e-21)
(0.00148258 -0.00062088 -3.19889e-21)
(0.00145445 -0.000632147 -5.14048e-21)
(0.00142639 -0.00064372 -1.83936e-21)
(0.00139927 -0.000655296 6.21336e-22)
(0.0013692 -0.00066857 2.52157e-22)
(0.00133952 -0.000682067 -2.51544e-22)
(0.00131063 -0.000695667 1.22455e-21)
(0.00128226 -0.000709369 4.44432e-21)
(0.00125422 -0.000723432 2.71483e-21)
(0.00122485 -0.000738579 2.74271e-22)
(0.00119734 -0.000753191 3.77304e-21)
(0.00116864 -0.000768843 2.6816e-21)
(0.00113909 -0.000785419 4.19913e-21)
(0.00111024 -0.000802072 1.0906e-21)
(0.00108126 -0.000819312 1.17646e-21)
(0.00105237 -0.000837049 3.93691e-21)
(0.00102432 -0.000854666 5.63727e-21)
(0.000995911 -0.000873036 4.38136e-21)
(0.000967623 -0.000891846 3.89836e-21)
(0.000939325 -0.000911127 3.62655e-21)
(0.000911531 -0.000930607 2.15312e-21)
(0.00088277 -0.000951243 6.16275e-21)
(0.000854467 -0.000972076 -1.81109e-21)
(0.000825283 -0.000994231 -5.82072e-21)
(0.000796407 -0.00101669 1.10643e-21)
(0.000767676 -0.00103958 4.30966e-21)
(0.000742477 -0.00106017 3.6211e-21)
(0.000718289 -0.00108064 -2.9054e-21)
(0.000691097 -0.00110386 2.61819e-21)
(0.000664234 -0.00112747 5.94146e-21)
(0.000636136 -0.00115263 1.43266e-21)
(0.000611372 -0.00117556 -2.31236e-21)
(0.00058721 -0.00119851 -5.36382e-21)
(0.000562094 -0.00122261 -1.6188e-21)
(0.000537612 -0.00124676 6.51561e-21)
(0.000513432 -0.00127114 -1.41274e-21)
(0.000490013 -0.00129527 -1.1035e-20)
(0.000467175 -0.00131932 1.81539e-21)
(0.000443993 -0.00134413 3.43774e-21)
(0.000422091 -0.00136809 -5.5477e-21)
(0.000401129 -0.0013913 -9.91046e-21)
(0.000379456 -0.00141582 -3.84864e-22)
(0.00035887 -0.00143968 8.61839e-22)
(0.000339951 -0.0014618 6.57944e-21)
(0.000320871 -0.00148445 8.49091e-21)
(0.000302069 -0.00150704 -4.33508e-21)
(0.000282197 -0.00153135 -4.43538e-21)
(0.000262923 -0.00155493 -5.49928e-21)
(0.000246753 -0.00157498 -2.71009e-21)
(0.000230815 -0.00159511 1.98709e-21)
(0.000214334 -0.00161558 6.60733e-21)
(0.000198995 -0.00163486 6.11975e-21)
(0.000184387 -0.00165311 -1.37928e-21)
(0.000170069 -0.00167069 -3.98748e-21)
(0.000156566 -0.00168708 1.16707e-21)
(0.000143072 -0.00170318 4.00735e-21)
(0.000129748 -0.00171881 -1.4113e-21)
(0.00011732 -0.00173289 1.57931e-21)
(0.000105241 -0.00174606 4.72221e-21)
(9.29437e-05 -0.00175874 0)
(8.17458e-05 -0.00176946 9.67385e-22)
(7.1394e-05 -0.00177845 -7.80701e-22)
(6.06588e-05 -0.00178682 -1.29713e-21)
(4.99359e-05 -0.00179418 9.71354e-22)
(3.95691e-05 -0.00180017 4.09126e-22)
(2.96756e-05 -0.00180478 1.32492e-21)
(1.99546e-05 -0.0018081 2.20679e-21)
(1.0507e-05 -0.00181009 2.75836e-21)
(0 -0.00180583 0)
(0 -0.00180159 0)
(0 -0.00179646 0)
(0 -0.00179024 0)
(0 -0.00178433 0)
(0 -0.00177804 0)
(0 -0.00177145 0)
(0 -0.00176491 0)
(0 -0.00175773 0)
(0 -0.00175062 0)
(0 -0.00174415 0)
(0 -0.00173709 0)
(0 -0.00172978 0)
(0 -0.00172256 0)
(0 -0.00171526 0)
(0 -0.00170783 0)
(0 -0.0017007 0)
(0 -0.00169366 0)
(0 -0.00168656 0)
(0 -0.00167899 0)
(0 -0.00167135 0)
(0 -0.00166438 0)
(0 -0.00165701 0)
(0 -0.00164916 0)
(0 -0.00164169 0)
(0 -0.00163414 0)
(0 -0.00162584 0)
(0 -0.00161712 0)
(0 -0.00160799 0)
(0 -0.00159824 0)
(0 -0.00158724 0)
(0 -0.00157495 0)
(0 -0.00156154 0)
(0 -0.00154261 0)
(0 -0.00151832 0)
(0 -0.00149043 0)
(0 -0.00145686 0)
(0 -0.00141811 0)
(0 -0.00137594 0)
(8.39964e-05 -0.00132384 8.04497e-21)
(0.000160235 -0.00132534 -6.4218e-21)
(0.000240153 -0.00132673 -3.87587e-21)
(0.000319993 -0.00132844 1.22663e-20)
(0.000397412 -0.00133072 1.53467e-20)
(0.000473074 -0.00133231 9.34183e-21)
(0.000546523 -0.00133284 -2.05581e-21)
(0.000618491 -0.00133202 -5.77132e-21)
(0.000687684 -0.00132859 0)
(0.000753493 -0.00132155 -5.45164e-21)
(0.000815211 -0.00131071 -3.02868e-21)
(0.000871786 -0.00129649 -1.1065e-20)
(0.000928812 -0.00127886 -8.92064e-21)
(0.000985519 -0.0012587 3.52154e-21)
(0.00104455 -0.00123683 2.97196e-21)
(0.00110138 -0.00121518 -1.12041e-21)
(0.00115269 -0.00119474 5.05661e-21)
(0.00120733 -0.00117257 1.01947e-20)
(0.00126273 -0.00114931 -2.78456e-21)
(0.00131777 -0.00112558 -9.28084e-21)
(0.00137007 -0.00110195 -3.46634e-21)
(0.00141999 -0.00107869 9.04305e-21)
(0.00146994 -0.00105442 -2.90535e-21)
(0.00152166 -0.00102829 -5.86097e-21)
(0.00157117 -0.00100417 -7.69624e-21)
(0.00161733 -0.000979686 -1.418e-20)
(0.0016637 -0.000953588 -3.42627e-21)
(0.00171126 -0.00092692 -2.2738e-21)
(0.00175772 -0.000899461 -1.64408e-21)
(0.00180028 -0.000873783 8.42791e-21)
(0.00184442 -0.000846532 8.66522e-22)
(0.00188684 -0.000818932 -6.76664e-21)
(0.00192553 -0.000792994 1.33078e-20)
(0.00196345 -0.000767019 9.14022e-21)
(0.00199945 -0.000741717 -4.00252e-21)
(0.00203802 -0.00071338 -7.44013e-25)
(0.00207559 -0.000684578 -4.24356e-21)
(0.00210881 -0.000658906 -4.69322e-21)
(0.00214032 -0.000632648 3.30576e-21)
(0.00217119 -0.000605943 5.37367e-21)
(0.0022016 -0.00057956 6.94366e-22)
(0.00223147 -0.000551654 -7.75191e-21)
(0.00225954 -0.000524969 -9.43205e-22)
(0.00228534 -0.000499163 9.26613e-21)
(0.00231094 -0.000471853 3.38056e-21)
(0.00233461 -0.000445488 3.43064e-24)
(0.00235617 -0.000420134 -2.93494e-21)
(0.0023779 -0.000392476 -7.08778e-21)
(0.00239921 -0.000363483 -4.78489e-21)
(0.00241806 -0.0003368 1.86262e-21)
(0.00243441 -0.000311618 3.54196e-21)
(0.00244918 -0.000286969 -3.51112e-21)
(0.00246319 -0.000261688 -4.55497e-21)
(0.00247659 -0.000234181 4.58776e-22)
(0.0024887 -0.000206924 4.61627e-22)
(0.0024988 -0.000181882 1.02877e-21)
(0.00250791 -0.000154679 1.49796e-21)
(0.00251522 -0.000128786 -2.55361e-21)
(0.00252093 -0.000104299 -2.96359e-21)
(0.0025256 -7.89453e-05 6.33989e-21)
(0.00252902 -5.32966e-05 5.63741e-21)
(0.00253115 -2.75064e-05 -1.01153e-21)
(0.00254285 0 0)
(0.00255079 0 0)
(0.00255859 0 0)
(0.00256549 0 0)
(0.0025707 0 0)
(0.00257554 0 0)
(0.00258008 0 0)
(0.0025841 0 0)
(0.00258748 0 0)
(0.00259051 0 0)
(0.00259336 0 0)
(0.00259619 0 0)
(0.00259883 0 0)
(0.00260128 0 0)
(0.0026039 0 0)
(0.00260656 0 0)
(0.00260924 0 0)
(0.00261199 0 0)
(0.00261452 0 0)
(0.00261731 0 0)
(0.00262024 0 0)
(0.00262312 0 0)
(0.00262627 0 0)
(0.00262968 0 0)
(0.00263322 0 0)
(0.00263692 0 0)
(0.00264073 0 0)
(0.00264472 0 0)
(0.00264894 0 0)
(0.00265325 0 0)
(0.00265773 0 0)
(0.00266251 0 0)
(0.00266728 0 0)
(0.00267195 0 0)
(0.00267732 0 0)
(0.00268301 0 0)
(0.00268844 0 0)
(0.00269408 0 0)
(0.00270008 0 0)
(0.00270612 0 0)
(0.00271187 0 0)
(0.0027185 0 0)
(0.0027255 0 0)
(0.00273213 0 0)
(0.0027389 0 0)
(0.00274599 0 0)
(0.00275335 0 0)
(0.00276077 0 0)
(0.00276852 0 0)
(0.00277632 0 0)
(0.00278411 0 0)
(0.00279209 0 0)
(0.00280005 0 0)
(0.0028084 0 0)
(0.00281718 0 0)
(0.00282594 0 0)
(0.00283472 0 0)
(0.00284336 0 0)
(0.00285235 0 0)
(0.00286163 0 0)
(0.00287084 0 0)
(0.00288022 0 0)
(0.0028905 0 0)
(0.00290057 0 0)
(0.00291005 0 0)
(0.00291992 0 0)
(0.00292993 0 0)
(0.00293995 0 0)
(0.002951 0 0)
(0.00296199 0 0)
(0.00297214 0 0)
(0.00298262 0 0)
(0.0029929 0 0)
(0.00300429 0 0)
(0.00301596 0 0)
(0.00302685 0 0)
(0.00303805 0 0)
(0.00304919 0 0)
(0.00306021 0 0)
(0.00307224 0 0)
(0.00308409 0 0)
(0.00309619 0 0)
(0.00310854 0 0)
(0.00312012 0 0)
(0.00313207 0 0)
(0.0031443 0 0)
(0.00315656 0 0)
(0.00316815 0 0)
(0.00318093 0 0)
(0.00319428 0 0)
(0.0032068 0 0)
(0.00321903 0 0)
(0.00323068 0 0)
(0.00324356 0 0)
(0.00325702 0 0)
(0.0032696 0 0)
(0.00328217 0 0)
(0.00329527 0 0)
(0.003308 0 0)
(0.0033199 0 0)
(0.00333393 0 0)
(0.003348 0 0)
(0.00336046 0 0)
(0.00337365 0 0)
(0.00338693 0 0)
(0.00340003 0 0)
(0.00341351 0 0)
(0.00342684 0 0)
(0.00343958 0 0)
(0.00345269 0 0)
(0.00346585 0 0)
(0.00347941 0 0)
(0.003493 0 0)
(0.00350608 0 0)
(0.00351888 0 0)
(0.00353228 0 0)
(0.0035457 0 0)
(0.00355808 0 0)
(0.003571 0 0)
(0.00358411 -1.16173e-06 3.24338e-21)
(0.0035839 -2.14108e-06 1.41771e-21)
(0.00358346 -3.18295e-06 -4.56092e-21)
(0.00358283 -4.39074e-06 3.44932e-21)
(0.00358208 -5.49287e-06 1.08329e-20)
(0.00358113 -6.61827e-06 6.58615e-21)
(0.00358003 -7.78632e-06 3.21227e-21)
(0.00357872 -9.03571e-06 3.30897e-21)
(0.0035773 -1.03e-05 3.68586e-21)
(0.00357561 -1.16304e-05 -7.61454e-23)
(0.00357399 -1.28253e-05 -3.76428e-21)
(0.00357215 -1.4147e-05 -2.14123e-21)
(0.00356986 -1.5732e-05 -2.93316e-21)
(0.00356764 -1.72363e-05 -5.73323e-21)
(0.00356525 -1.87807e-05 -4.78739e-21)
(0.00356271 -2.03986e-05 -3.40433e-21)
(0.00356004 -2.20865e-05 -1.5215e-21)
(0.00355731 -2.37892e-05 -4.42467e-22)
(0.00355429 -2.56785e-05 -4.42467e-22)
(0.00355096 -2.77552e-05 -4.35153e-22)
(0.00354779 -2.97506e-05 1.82467e-21)
(0.00354464 -3.17156e-05 2.75349e-22)
(0.00354104 -3.39486e-05 -4.49157e-22)
(0.00353743 -3.62531e-05 2.09319e-21)
(0.00353403 -3.84483e-05 5.57875e-22)
(0.0035301 -4.09872e-05 1.24152e-21)
(0.00352598 -4.36815e-05 -1.78658e-21)
(0.00352213 -4.62712e-05 -1.57313e-21)
(0.0035183 -4.88677e-05 -7.41046e-22)
(0.00351383 -5.19297e-05 -1.04397e-21)
(0.00350929 -5.51347e-05 2.04684e-21)
(0.00350521 -5.80541e-05 1.56225e-21)
(0.00350042 -6.15611e-05 3.40369e-21)
(0.00349572 -6.50879e-05 3.9426e-21)
(0.0034915 -6.82907e-05 2.51244e-22)
(0.00348711 -7.17198e-05 -9.51172e-22)
(0.0034826 -7.53147e-05 2.68734e-22)
(0.00347801 -7.9068e-05 2.21745e-21)
(0.00347302 -8.32281e-05 3.15877e-21)
(0.00346814 -8.73874e-05 1.2061e-21)
(0.00346312 -9.17674e-05 -1.43945e-21)
(0.00345863 -9.56971e-05 -1.43945e-21)
(0.00345416 -9.98224e-05 -2.34096e-21)
(0.00344919 -0.000104521 1.94925e-21)
(0.00344424 -0.000109301 4.58539e-21)
(0.00343915 -0.000114362 2.95184e-22)
(0.00343455 -0.000119018 2.05551e-21)
(0.00342976 -0.00012399 -7.54204e-23)
(0.00342492 -0.000129193 -2.22401e-21)
(0.00342012 -0.00013446 4.20109e-21)
(0.00341543 -0.000139752 4.29417e-21)
(0.00341066 -0.000145295 -2.92347e-22)
(0.003406 -0.000150843 -1.52955e-21)
(0.00340116 -0.000156797 -2.45141e-21)
(0.00339643 -0.000162769 -1.98552e-21)
(0.0033923 -0.000168115 -3.72098e-21)
(0.00338823 -0.000173549 -4.45894e-21)
(0.0033838 -0.000179668 -5.82247e-22)
(0.00337944 -0.000185787 2.73667e-21)
(0.00337523 -0.00019189 1.80965e-21)
(0.00337066 -0.00019876 -2.84446e-21)
(0.00336647 -0.000205239 -5.52631e-21)
(0.00336268 -0.000211262 -1.46302e-21)
(0.0033589 -0.000217411 1.21883e-21)
(0.00335511 -0.000223769 -5.94744e-22)
(0.00335137 -0.000230205 -8.52626e-24)
(0.0033477 -0.000236678 4.49937e-21)
(0.00334371 -0.000243958 2.25786e-21)
(0.00334036 -0.000250155 3.02097e-21)
(0.00333719 -0.000256225 7.52034e-21)
(0.00333356 -0.000263291 2.84408e-21)
(0.0033303 -0.000269757 0)
(0.00332702 -0.000276374 5.90968e-22)
(0.00332379 -0.000282978 2.49851e-21)
(0.00332063 -0.000289517 -1.26382e-21)
(0.00331755 -0.000295941 -6.48622e-21)
(0.00331411 -0.000303146 -2.93349e-21)
(0.00331114 -0.000309368 -1.53795e-21)
(0.00330832 -0.00031525 -1.91932e-21)
(0.0032894 -0.00032545 -1.59668e-23)
(0.00327425 -0.000328586 -2.17361e-21)
(0.00325983 -0.000331574 -6.83126e-22)
(0.00324427 -0.000334796 1.54048e-22)
(0.0032288 -0.000337984 -2.05981e-21)
(0.00321409 -0.000340988 -1.5279e-21)
(0.00319909 -0.000344013 -5.57016e-22)
(0.00318356 -0.000347098 0)
(0.00316809 -0.000350108 -1.21223e-22)
(0.00315322 -0.00035294 -1.03428e-21)
(0.00313824 -0.000355718 -1.48958e-21)
(0.00312372 -0.000358338 -3.63293e-22)
(0.00310869 -0.000360982 1.94648e-21)
(0.00309302 -0.000363639 1.13592e-21)
(0.00307769 -0.000366157 -7.32356e-22)
(0.00306226 -0.000368603 -8.02668e-22)
(0.00304691 -0.00037093 -1.34098e-21)
(0.00303259 -0.000373025 -1.16688e-21)
(0.00301606 -0.000375354 -4.22443e-22)
(0.00299948 -0.000377598 1.51658e-21)
(0.00298519 -0.000379438 6.92036e-22)
(0.00296962 -0.000381365 -1.72811e-21)
(0.00295375 -0.000383233 -1.55625e-21)
(0.00293835 -0.000384964 1.43429e-22)
(0.00292279 -0.000386635 1.28819e-21)
(0.00290592 -0.000388357 -7.19435e-22)
(0.00288962 -0.000389966 -9.06278e-22)
(0.00287422 -0.000391399 -1.52068e-21)
(0.0028584 -0.000392794 -1.89702e-21)
(0.00284251 -0.00039415 -4.80654e-22)
(0.00282481 -0.000395609 -1.22152e-21)
(0.00280764 -0.000396956 -1.25576e-21)
(0.0027919 -0.000398125 1.32121e-21)
(0.00277497 -0.000399335 2.2636e-21)
(0.00275783 -0.000400519 -2.76949e-22)
(0.00274079 -0.000401656 -1.85256e-21)
(0.00272392 -0.000402751 1.51308e-21)
(0.00270576 -0.000403911 3.76396e-21)
(0.00268773 -0.000405022 -1.62051e-22)
(0.00266967 -0.000406115 -3.50973e-22)
(0.00265113 -0.000407238 1.23992e-21)
(0.00263373 -0.000408288 5.9527e-22)
(0.00261574 -0.000409354 -3.16323e-22)
(0.00259794 -0.000410396 -6.45229e-23)
(0.00258025 -0.00041145 1.82096e-21)
(0.00256062 -0.00041265 3.42437e-21)
(0.00254021 -0.000413933 1.84039e-21)
(0.00252142 -0.000415121 1.82186e-21)
(0.00250319 -0.000416288 8.31775e-22)
(0.00248355 -0.000417588 4.80064e-22)
(0.00246398 -0.000418925 4.28418e-21)
(0.00244595 -0.000420205 1.55926e-21)
(0.00242475 -0.000421783 -1.34145e-21)
(0.00240316 -0.000423451 -5.7574e-22)
(0.00238289 -0.000425097 -8.30491e-22)
(0.00236238 -0.000426816 -6.25446e-22)
(0.00234281 -0.000428521 -4.54076e-22)
(0.00232249 -0.000430386 1.32623e-21)
(0.00230165 -0.000432389 1.4834e-21)
(0.00227895 -0.000434699 -2.9691e-22)
(0.00225704 -0.000437033 0)
(0.00223462 -0.000439554 -1.20472e-21)
(0.00221207 -0.00044219 6.90255e-22)
(0.00218917 -0.000445011 3.43132e-21)
(0.00216596 -0.000448009 1.7299e-21)
(0.00214463 -0.000450909 1.29731e-21)
(0.00212244 -0.000454066 2.3219e-21)
(0.00210083 -0.000457261 3.97047e-21)
(0.00207613 -0.000461119 1.3474e-21)
(0.00205128 -0.000465184 -6.63563e-22)
(0.00202928 -0.00046896 3.64859e-21)
(0.00200622 -0.000473071 1.74963e-21)
(0.00198018 -0.000477952 2.70046e-22)
(0.00195486 -0.000482908 3.19145e-21)
(0.00192949 -0.000488123 2.27562e-21)
(0.00190687 -0.000492839 1.01756e-21)
(0.00188372 -0.000497926 5.05727e-22)
(0.0018572 -0.000504075 -7.62806e-22)
(0.00183116 -0.000510369 -7.95513e-22)
(0.00180428 -0.000517081 -1.50633e-22)
(0.00177888 -0.000523708 3.65683e-21)
(0.00175247 -0.000530842 8.90599e-21)
(0.00172529 -0.000538486 5.56482e-21)
(0.00169912 -0.000546139 3.07825e-22)
(0.00167367 -0.000553858 -4.59841e-22)
(0.00164734 -0.000562158 1.79097e-21)
(0.0016201 -0.000571061 3.48868e-21)
(0.00159061 -0.000581028 7.35979e-21)
(0.0015619 -0.000591107 7.97642e-21)
(0.00153568 -0.000600638 3.74166e-21)
(0.00150952 -0.000610437 3.93403e-21)
(0.00148258 -0.00062088 -3.19889e-21)
(0.00145445 -0.000632147 -5.14048e-21)
(0.00142639 -0.00064372 -1.83936e-21)
(0.00139927 -0.000655296 6.21336e-22)
(0.0013692 -0.00066857 2.52157e-22)
(0.00133952 -0.000682067 -2.51544e-22)
(0.00131063 -0.000695667 1.22455e-21)
(0.00128226 -0.000709369 4.44432e-21)
(0.00125422 -0.000723432 2.71483e-21)
(0.00122485 -0.000738579 2.74271e-22)
(0.00119734 -0.000753191 3.77304e-21)
(0.00116864 -0.000768843 2.6816e-21)
(0.00113909 -0.000785419 4.19913e-21)
(0.00111024 -0.000802072 1.0906e-21)
(0.00108126 -0.000819312 1.17646e-21)
(0.00105237 -0.000837049 3.93691e-21)
(0.00102432 -0.000854666 5.63727e-21)
(0.000995911 -0.000873036 4.38136e-21)
(0.000967623 -0.000891846 3.89836e-21)
(0.000939325 -0.000911127 3.62655e-21)
(0.000911531 -0.000930607 2.15312e-21)
(0.00088277 -0.000951243 6.16275e-21)
(0.000854467 -0.000972076 -1.81109e-21)
(0.000825283 -0.000994231 -5.82072e-21)
(0.000796407 -0.00101669 1.10643e-21)
(0.000767676 -0.00103958 4.30966e-21)
(0.000742477 -0.00106017 3.6211e-21)
(0.000718289 -0.00108064 -2.9054e-21)
(0.000691097 -0.00110386 2.61819e-21)
(0.000664234 -0.00112747 5.94146e-21)
(0.000636136 -0.00115263 1.43266e-21)
(0.000611372 -0.00117556 -2.31236e-21)
(0.00058721 -0.00119851 -5.36382e-21)
(0.000562094 -0.00122261 -1.6188e-21)
(0.000537612 -0.00124676 6.51561e-21)
(0.000513432 -0.00127114 -1.41274e-21)
(0.000490013 -0.00129527 -1.1035e-20)
(0.000467175 -0.00131932 1.81539e-21)
(0.000443993 -0.00134413 3.43774e-21)
(0.000422091 -0.00136809 -5.5477e-21)
(0.000401129 -0.0013913 -9.91046e-21)
(0.000379456 -0.00141582 -3.84864e-22)
(0.00035887 -0.00143968 8.61839e-22)
(0.000339951 -0.0014618 6.57944e-21)
(0.000320871 -0.00148445 8.49091e-21)
(0.000302069 -0.00150704 -4.33508e-21)
(0.000282197 -0.00153135 -4.43538e-21)
(0.000262923 -0.00155493 -5.49928e-21)
(0.000246753 -0.00157498 -2.71009e-21)
(0.000230815 -0.00159511 1.98709e-21)
(0.000214334 -0.00161558 6.60733e-21)
(0.000198995 -0.00163486 6.11975e-21)
(0.000184387 -0.00165311 -1.37928e-21)
(0.000170069 -0.00167069 -3.98748e-21)
(0.000156566 -0.00168708 1.16707e-21)
(0.000143072 -0.00170318 4.00735e-21)
(0.000129748 -0.00171881 -1.4113e-21)
(0.00011732 -0.00173289 1.57931e-21)
(0.000105241 -0.00174606 4.72221e-21)
(9.29437e-05 -0.00175874 0)
(8.17458e-05 -0.00176946 9.67385e-22)
(7.1394e-05 -0.00177845 -7.80701e-22)
(6.06588e-05 -0.00178682 -1.29713e-21)
(4.99359e-05 -0.00179418 9.71354e-22)
(3.95691e-05 -0.00180017 4.09126e-22)
(2.96756e-05 -0.00180478 1.32492e-21)
(1.99546e-05 -0.0018081 2.20679e-21)
(1.0507e-05 -0.00181009 2.75836e-21)
(0 -0.00180583 0)
(0 -0.00180159 0)
(0 -0.00179646 0)
(0 -0.00179024 0)
(0 -0.00178433 0)
(0 -0.00177804 0)
(0 -0.00177145 0)
(0 -0.00176491 0)
(0 -0.00175773 0)
(0 -0.00175062 0)
(0 -0.00174415 0)
(0 -0.00173709 0)
(0 -0.00172978 0)
(0 -0.00172256 0)
(0 -0.00171526 0)
(0 -0.00170783 0)
(0 -0.0017007 0)
(0 -0.00169366 0)
(0 -0.00168656 0)
(0 -0.00167899 0)
(0 -0.00167135 0)
(0 -0.00166438 0)
(0 -0.00165701 0)
(0 -0.00164916 0)
(0 -0.00164169 0)
(0 -0.00163414 0)
(0 -0.00162584 0)
(0 -0.00161712 0)
(0 -0.00160799 0)
(0 -0.00159824 0)
(0 -0.00158724 0)
(0 -0.00157495 0)
(0 -0.00156154 0)
(0 -0.00154261 0)
(0 -0.00151832 0)
(0 -0.00149043 0)
(0 -0.00145686 0)
(0 -0.00141811 0)
(0 -0.00137594 0)
(8.39964e-05 -0.00132384 8.04497e-21)
(0.000160235 -0.00132534 -6.4218e-21)
(0.000240153 -0.00132673 -3.87587e-21)
(0.000319993 -0.00132844 1.22663e-20)
(0.000397412 -0.00133072 1.53467e-20)
(0.000473074 -0.00133231 9.34183e-21)
(0.000546523 -0.00133284 -2.05581e-21)
(0.000618491 -0.00133202 -5.77132e-21)
(0.000687684 -0.00132859 0)
(0.000753493 -0.00132155 -5.45164e-21)
(0.000815211 -0.00131071 -3.02868e-21)
(0.000871786 -0.00129649 -1.1065e-20)
(0.000928812 -0.00127886 -8.92064e-21)
(0.000985519 -0.0012587 3.52154e-21)
(0.00104455 -0.00123683 2.97196e-21)
(0.00110138 -0.00121518 -1.12041e-21)
(0.00115269 -0.00119474 5.05661e-21)
(0.00120733 -0.00117257 1.01947e-20)
(0.00126273 -0.00114931 -2.78456e-21)
(0.00131777 -0.00112558 -9.28084e-21)
(0.00137007 -0.00110195 -3.46634e-21)
(0.00141999 -0.00107869 9.04305e-21)
(0.00146994 -0.00105442 -2.90535e-21)
(0.00152166 -0.00102829 -5.86097e-21)
(0.00157117 -0.00100417 -7.69624e-21)
(0.00161733 -0.000979686 -1.418e-20)
(0.0016637 -0.000953588 -3.42627e-21)
(0.00171126 -0.00092692 -2.2738e-21)
(0.00175772 -0.000899461 -1.64408e-21)
(0.00180028 -0.000873783 8.42791e-21)
(0.00184442 -0.000846532 8.66522e-22)
(0.00188684 -0.000818932 -6.76664e-21)
(0.00192553 -0.000792994 1.33078e-20)
(0.00196345 -0.000767019 9.14022e-21)
(0.00199945 -0.000741717 -4.00252e-21)
(0.00203802 -0.00071338 -7.44013e-25)
(0.00207559 -0.000684578 -4.24356e-21)
(0.00210881 -0.000658906 -4.69322e-21)
(0.00214032 -0.000632648 3.30576e-21)
(0.00217119 -0.000605943 5.37367e-21)
(0.0022016 -0.00057956 6.94366e-22)
(0.00223147 -0.000551654 -7.75191e-21)
(0.00225954 -0.000524969 -9.43205e-22)
(0.00228534 -0.000499163 9.26613e-21)
(0.00231094 -0.000471853 3.38056e-21)
(0.00233461 -0.000445488 3.43064e-24)
(0.00235617 -0.000420134 -2.93494e-21)
(0.0023779 -0.000392476 -7.08778e-21)
(0.00239921 -0.000363483 -4.78489e-21)
(0.00241806 -0.0003368 1.86262e-21)
(0.00243441 -0.000311618 3.54196e-21)
(0.00244918 -0.000286969 -3.51112e-21)
(0.00246319 -0.000261688 -4.55497e-21)
(0.00247659 -0.000234181 4.58776e-22)
(0.0024887 -0.000206924 4.61627e-22)
(0.0024988 -0.000181882 1.02877e-21)
(0.00250791 -0.000154679 1.49796e-21)
(0.00251522 -0.000128786 -2.55361e-21)
(0.00252093 -0.000104299 -2.96359e-21)
(0.0025256 -7.89453e-05 6.33989e-21)
(0.00252902 -5.32966e-05 5.63741e-21)
(0.00253115 -2.75064e-05 -1.01153e-21)
(0.00213836 -0.000196037 0)
(0.00276964 -0.000137486 0)
(0.0013435 -0.000669843 0)
(0.00300788 -0.000216966 0)
(0.00317311 -8.43323e-05 0)
(0.0022859 -0.000233151 0)
(0.0026344 -6.3773e-05 0)
(0.000639052 -0.00129602 0)
(0.00235646 -0.000120715 0)
(0.00165368 -0.000448404 0)
(0.00266122 -0.000259014 0)
(0.00295528 -5.6921e-05 0)
(0.00256971 -4.20108e-05 0)
(0.00185437 -0.000394154 0)
(0.00322887 -0.000136032 0)
(0.00191365 -0.000368356 0)
(0.0025462 -0.00013231 0)
(0.00299344 -0.000143939 0)
(0.00336013 -4.20789e-05 0)
(0.00312177 -0.000268753 0)
(0.000886935 -0.00102502 0)
(0.00237582 -0.000304054 0)
(0.00282602 -3.35013e-05 0)
(0.00116121 -0.000902723 0)