/*--------------------------------*- C++ -*----------------------------------*\
| =========                 |                                                 |
| \\      /  F ield         | OpenFOAM: The Open Source CFD Toolbox           |
|  \\    /   O peration     | Version:  v2012                                 |
|   \\  /    A nd           | Website:  www.openfoam.com                      |
|    \\/     M anipulation  |                                                 |
\*---------------------------------------------------------------------------*/
FoamFile
{
    version     2.0;
    format      ascii;
    class       volSymmTensorField;
    location    "20";
    object      epsilon;
}
// * * * * * * * * * * * * * * * * * * * * * * * * * * * * * * * * * * * * * //

dimensions      [0 0 0 0 0 0 0];


internalField   nonuniform List<symmTensor> 
470
(
(-8.27942e-05 -1.59023e-05 9.34582e-17 4.82252e-05 6.78101e-17 0)
(-7.37793e-05 -3.9937e-06 3.43692e-17 4.93794e-05 8.84091e-17 0)
(2.16581e-05 -3.23341e-05 -1.52764e-16 -5.08362e-06 1.088e-16 0)
(-2.23789e-05 -5.81928e-06 3.58871e-17 4.26585e-05 6.11016e-17 0)
(-7.33073e-05 -3.79308e-05 3.44776e-17 4.27727e-05 3.25803e-17 0)
(6.49525e-06 -5.91424e-06 8.65193e-17 -3.30579e-06 2.19551e-18 0)
(-3.23439e-05 -5.98895e-05 -9.2374e-17 3.76312e-05 -1.75709e-17 0)
(-8.33794e-05 -3.6408e-05 -4.43439e-17 5.09144e-05 -2.96258e-17 0)
(8.91273e-05 -0.000112107 -1.71087e-16 -2.83028e-05 -3.01923e-16 0)
(1.46928e-05 -5.41979e-05 9.82287e-17 8.10054e-06 9.84456e-17 0)
(6.26717e-05 -8.84669e-05 4.30916e-16 -1.06275e-05 -2.80293e-16 0)
(0.000230755 -6.26815e-05 -6.1149e-17 -0.000112265 2.52789e-16 0)
(0.000184917 -0.000113353 -1.41109e-15 -0.000110962 3.66528e-17 0)
(-2.7194e-05 -1.17136e-05 -2.75387e-17 4.28916e-05 -4.4969e-18 0)
(0.000214137 -6.90905e-05 2.11962e-16 -0.000104286 2.04372e-17 0)
(6.019e-05 -6.27867e-05 -9.75782e-19 -2.1354e-05 -4.03594e-17 0)
(3.29168e-06 -5.89862e-05 9.45424e-17 7.57285e-06 6.1725e-17 0)
(-4.17532e-05 -1.44776e-05 -5.50775e-17 4.56826e-05 6.9433e-17 0)
(-4.83636e-05 -5.32194e-06 -1.27936e-17 5.0766e-05 1.65918e-16 0)
(-7.16349e-05 -1.89116e-05 -3.96818e-17 4.76367e-05 1.14659e-16 0)
(7.25998e-05 -3.8924e-05 -4.70977e-16 -2.73275e-05 -2.22607e-16 0)
(-1.05234e-05 -1.8926e-05 1.23599e-17 2.50295e-05 -6.15962e-18 0)
(2.89948e-05 -2.13152e-05 -2.52185e-16 -9.77464e-06 6.35614e-17 0)
(-3.15431e-05 -1.85341e-05 3.35018e-17 4.09036e-05 8.13626e-17 0)
(-6.71953e-06 -0.000102499 -5.68122e-17 4.80616e-06 7.46609e-17 0)
(-4.12618e-05 -4.79516e-05 -2.41777e-17 4.16765e-05 7.60974e-18 0)
(-7.12238e-05 -9.95515e-05 6.451e-17 2.78942e-05 1.91192e-17 0)
(3.86334e-05 -1.36008e-05 2.33429e-16 -1.81478e-05 1.77057e-16 0)
(4.85536e-06 -1.53446e-05 2.60209e-17 1.83668e-06 4.28531e-17 0)
(-3.26037e-05 -8.07129e-06 5.67038e-17 4.24096e-05 -1.27953e-17 0)
(-7.10551e-05 -2.02005e-05 -6.41848e-17 4.928e-05 1.2962e-16 0)
(0.000284855 -2.50525e-05 2.71164e-15 -0.000115595 -4.50781e-16 0)
(1.5616e-05 -4.86116e-05 -1.17853e-16 6.56813e-07 5.29904e-17 0)
(-0.000284234 -0.000101525 -8.04478e-17 5.42394e-07 1.72388e-17 0)
(1.52485e-05 -9.53954e-06 -1.05168e-17 -3.17075e-06 -3.31427e-17 0)
(8.85043e-06 -8.62964e-06 1.54824e-16 -2.16905e-06 1.70897e-17 0)
(0.000266309 -4.35036e-05 -1.43814e-15 -0.000123383 6.54479e-16 0)
(-7.44937e-05 -2.08612e-05 -5.61617e-17 5.30185e-05 1.3663e-16 0)
(-5.97657e-05 -2.2874e-05 -1.71304e-17 5.17506e-05 7.73443e-17 0)
(-7.30934e-05 -1.51214e-05 5.85469e-18 3.97958e-05 3.36374e-17 0)
(-6.7999e-05 -6.93676e-05 1.10047e-16 3.76982e-05 2.15079e-17 0)
(-5.55661e-05 -6.55547e-06 -2.38524e-18 5.19666e-05 5.08093e-17 0)
(0.000273482 -6.46081e-06 3.81964e-16 -0.000179443 4.62006e-16 0)
(-7.00765e-05 -8.33186e-05 3.01408e-17 4.99395e-05 5.57585e-17 0)
(5.64505e-05 -1.27963e-05 1.25767e-17 -2.27966e-05 1.19547e-16 0)
(0.000359359 5.8161e-05 1.29042e-15 -0.000246419 2.39121e-16 0)
(-6.92909e-05 -3.78392e-05 1.69136e-17 5.06301e-05 5.27227e-17 0)
(-2.03569e-06 -0.000113571 -1.80953e-16 1.85363e-05 5.62633e-17 0)
(-3.89834e-05 -0.000111011 -3.68629e-17 2.91028e-05 3.97801e-17 0)
(1.66715e-05 -9.69579e-05 -2.23562e-16 5.3519e-07 -7.77102e-17 0)
(0.000387168 -2.81099e-05 -3.41638e-15 -0.000171948 -5.80292e-16 0)
(-0.000501245 -1.56571e-05 -1.67455e-15 8.19993e-05 -6.45317e-16 0)
(-3.63295e-05 -2.08602e-05 -6.50521e-17 4.53664e-05 1.26631e-16 0)
(-5.29703e-05 -1.26803e-05 -3.85976e-17 4.94303e-05 1.99663e-16 0)
(-1.51181e-05 -1.79052e-05 -7.91468e-18 3.38264e-05 5.5772e-17 0)
(-1.28194e-05 -2.04254e-05 2.54788e-17 2.74049e-05 -4.21145e-17 0)
(0.000165266 0.000134097 -1.08576e-16 -4.27347e-05 3.91614e-16 0)
(-9.91442e-05 3.93606e-05 1.14932e-16 3.22027e-05 2.25297e-16 0)
(-7.55715e-06 -9.26609e-05 -1.96078e-16 2.76041e-05 4.59498e-17 0)
(4.48624e-05 -2.16884e-05 1.44524e-16 -1.46755e-05 1.81712e-16 0)
(-2.81416e-05 -4.94603e-05 -5.71375e-17 3.31748e-05 -5.39797e-17 0)
(8.98914e-06 -0.00013776 -6.17995e-17 -1.34485e-05 5.33116e-16 0)
(0.000166171 -9.33045e-05 -6.38649e-16 -6.83023e-05 2.97342e-17 0)
(0.000105996 -0.000147481 6.73506e-16 -0.000135888 -1.0388e-15 0)
(-0.000144859 0.000217759 -1.54857e-15 -2.20681e-05 4.24059e-16 0)
(0.000530313 -0.00015545 -1.88109e-16 -0.000232937 3.34346e-15 0)
(-6.7879e-05 -3.64869e-05 2.66714e-17 5.15383e-05 1.09711e-16 0)
(-7.38308e-06 -2.00366e-05 -7.32921e-17 1.92374e-05 -6.15149e-17 0)
(-7.75637e-05 2.71356e-05 7.80626e-17 1.85928e-06 -8.98736e-17 0)
(2.91519e-05 -7.23887e-05 4.69676e-16 -5.97312e-07 -9.6616e-17 0)
(-7.4724e-05 -6.92718e-06 4.8247e-17 3.42893e-05 -7.28618e-18 0)
(3.17625e-06 -5.88505e-05 1.35417e-16 1.67277e-05 2.49163e-17 0)
(2.51831e-05 -0.000183664 -7.86047e-16 -8.87164e-05 -1.16817e-15 0)
(-3.46634e-05 -6.7383e-05 -4.06576e-17 3.3256e-05 -2.00171e-17 0)
(0.000219465 -0.000258131 -1.16595e-15 -0.000364512 -1.03395e-15 0)
(-1.42325e-05 -6.89263e-06 -6.3209e-17 3.17925e-05 1.39584e-16 0)
(4.92768e-07 -4.66403e-05 1.56559e-16 1.33185e-05 6.85961e-17 0)
(-4.38524e-06 -5.07098e-05 1.17636e-16 2.02135e-05 -7.29668e-17 0)
(-3.3678e-05 -7.6252e-05 -1.01319e-16 3.24218e-05 8.50692e-17 0)
(0.000826079 8.6333e-05 -4.65258e-16 -0.000210425 4.60569e-16 0)
(-2.84521e-05 -8.52855e-05 9.43256e-18 3.51607e-05 8.64719e-17 0)
(0.000357525 -0.000111556 7.17742e-17 -0.000238736 4.75444e-15 0)
(3.08819e-05 -3.43965e-05 5.1608e-17 -6.98145e-06 1.3806e-16 0)
(-0.000102149 5.98479e-05 -2.55113e-16 -2.82795e-06 -3.4417e-16 0)
(6.04346e-05 -0.000137132 9.88576e-16 -1.97447e-05 8.12161e-17 0)
(-1.07575e-05 -8.34573e-06 -8.31583e-17 2.46997e-05 6.46591e-17 0)
(0.000312943 -5.92825e-05 1.70057e-16 -0.000263059 -3.34097e-16 0)
(-0.000298115 0.000253544 -3.64075e-15 -2.91345e-05 1.34986e-15 0)
(0.000369836 -3.51237e-06 8.72512e-16 -0.000346472 4.98516e-16 0)
(-6.86413e-05 -0.000222027 -5.36897e-16 -6.60819e-05 -1.59558e-15 0)
(0.000337123 -2.80724e-05 -6.02329e-16 -0.000241246 -8.68663e-16 0)
(0.000272578 -5.65485e-05 -1.62191e-15 -0.000112798 2.29282e-16 0)
(-2.24091e-05 -7.13362e-05 -4.54281e-17 3.35053e-05 -1.88583e-17 0)
(-1.04883e-05 -5.388e-05 1.06035e-16 1.91659e-05 -5.75034e-17 0)
(0.000189649 -0.000108046 -2.08178e-15 -9.64271e-05 2.28855e-16 0)
(0.000252467 -4.37762e-05 -7.37041e-16 -9.51734e-05 3.67606e-16 0)
(-5.75559e-05 -5.32968e-05 9.86624e-18 4.9535e-05 -5.23195e-17 0)
(-1.66662e-05 -5.7591e-05 2.30393e-17 2.89951e-05 -7.5474e-17 0)
(-7.94419e-05 -5.66189e-05 4.6946e-17 5.20834e-05 1.81807e-17 0)
(1.54211e-05 -1.76518e-05 -1.48536e-17 -4.18447e-06 -7.46744e-17 0)
(-1.70047e-05 -2.58618e-05 -4.26091e-17 3.18022e-05 8.25315e-17 0)
(1.39728e-05 -0.000109615 1.25225e-16 1.0261e-05 -1.19547e-16 0)
(-0.000287706 -0.000308864 -5.5587e-16 -8.65939e-05 3.08672e-16 0)
(-1.98806e-05 -1.57722e-05 -1.79978e-17 3.67796e-05 9.62772e-17 0)
(-1.85864e-05 -1.09532e-05 -7.41594e-17 4.2755e-05 2.23549e-17 0)
(-8.61252e-07 -1.12243e-05 1.7022e-17 3.77256e-06 3.95666e-17 0)
(5.95056e-08 -1.50436e-05 5.93601e-17 1.17272e-05 2.61089e-17 0)
(-6.53511e-05 -4.53083e-05 1.98409e-17 4.62666e-05 -2.38186e-17 0)
(4.47289e-05 5.39385e-05 -1.7293e-16 -0.000123249 8.87691e-18 0)
(7.59478e-05 -0.000545713 2.7478e-15 -0.0006846 1.43299e-15 0)
(0.000413097 8.909e-05 2.51267e-15 -0.000228925 7.73036e-16 0)
(0.000409123 -0.00017492 6.89119e-16 -0.000372123 5.17652e-15 0)
(-1.51783e-05 -7.07649e-06 -3.23092e-17 3.6778e-05 3.88077e-17 0)
(4.55539e-06 -4.92106e-06 -8.97719e-17 -2.77654e-07 -1.01983e-17 0)
(-0.000101142 2.44485e-05 -5.52943e-18 1.22199e-05 -4.34685e-17 0)
(-5.42843e-06 -7.4544e-05 1.53415e-16 1.89255e-05 6.67869e-17 0)
(-2.65463e-05 -4.97367e-06 2.02095e-16 4.39608e-05 3.0361e-17 0)
(0.000163384 -3.0734e-05 1.50574e-15 -6.26149e-05 1.33255e-16 0)
(-5.62156e-05 -5.42958e-05 3.22008e-17 4.45269e-05 -8.15998e-17 0)
(-7.15355e-05 -7.45415e-06 -2.07083e-17 5.31588e-05 4.80505e-17 0)
(-3.86181e-05 -6.81974e-05 3.25261e-19 4.13929e-05 -4.56788e-17 0)
(-1.95512e-05 -1.81942e-05 5.55112e-17 3.93579e-05 4.08964e-17 0)
(-3.5354e-05 -1.27754e-05 -7.07984e-17 4.41134e-05 1.1285e-17 0)
(-2.12352e-05 -4.28015e-06 -2.60209e-18 4.92389e-05 -2.47774e-17 0)
(-1.62491e-06 -3.74929e-06 7.67073e-17 4.44597e-06 -3.73101e-17 0)
(1.62771e-05 -8.73904e-05 2.83519e-16 1.26871e-05 6.44423e-18 0)
(1.70478e-06 -8.1193e-05 -4.58618e-17 1.3834e-05 -6.71867e-17 0)
(-1.5144e-05 -2.67909e-05 3.46945e-18 2.75851e-05 -8.6953e-17 0)
(0.00017803 -3.61828e-05 2.89883e-15 -7.48811e-05 7.67141e-16 0)
(-2.5831e-05 -2.17145e-05 5.78422e-17 3.74697e-05 3.23922e-17 0)
(-7.32877e-05 -2.99451e-05 -6.89553e-17 4.26837e-05 3.35899e-17 0)
(-7.71081e-05 -4.59098e-05 -9.75782e-18 5.40977e-05 4.3856e-17 0)
(-3.82206e-05 -5.87215e-05 -3.70797e-17 3.74266e-05 -2.70576e-17 0)
(-1.93906e-05 -2.96167e-05 4.8247e-17 3.23372e-05 -4.8989e-17 0)
(-7.91032e-06 -6.98316e-06 -4.67291e-17 2.08305e-05 -1.29427e-17 0)
(2.05041e-05 -1.75515e-05 -2.68665e-16 -7.41739e-06 -4.11455e-17 0)
(-1.60918e-05 -6.7589e-05 -8.79288e-17 2.43123e-05 -5.86689e-17 0)
(-0.000291085 0.000181578 -1.53556e-15 -2.89147e-06 3.60687e-16 0)
(0.000278247 -7.31795e-05 1.04842e-16 -0.000159419 6.87709e-16 0)
(1.18324e-06 -3.36178e-06 -4.27176e-17 1.22733e-07 7.31362e-17 0)
(4.71656e-06 -6.35541e-06 1.05547e-16 1.3299e-06 3.65105e-17 0)
(-8.07471e-05 -9.80245e-05 -2.52944e-16 1.06958e-05 -2.35394e-16 0)
(-9.52577e-06 -2.88693e-05 1.4203e-17 2.56227e-05 -6.84064e-17 0)
(-1.41016e-05 -4.65164e-05 5.29091e-17 2.22692e-05 -1.35573e-16 0)
(-7.79265e-06 -4.27764e-05 -2.86229e-17 2.35872e-05 -7.09e-17 0)
(-7.4966e-05 -1.96467e-05 -2.66714e-17 5.1569e-05 1.22244e-16 0)
(-2.03573e-05 -5.45627e-06 6.69495e-17 4.5325e-05 5.91475e-17 0)
(9.74039e-05 -0.000141151 -2.64925e-16 -5.55891e-05 6.33222e-16 0)
(-2.01101e-05 -3.83515e-05 1.69136e-17 3.06373e-05 -4.84401e-17 0)
(0.000162267 -0.000131077 3.17942e-16 -0.000131131 7.52572e-17 0)
(-4.76844e-05 -1.91774e-05 -5.01986e-17 5.03282e-05 1.30778e-16 0)
(-2.53794e-05 -7.7212e-06 -9.33498e-17 4.52196e-05 1.21909e-16 0)
(-0.000113864 -1.15744e-05 -9.20488e-17 4.67043e-05 -2.10829e-16 0)
(-1.677e-05 -1.47722e-05 3.00324e-17 3.11287e-05 2.45301e-17 0)
(-0.000218501 -2.53544e-05 -2.48174e-15 -0.000683787 -2.76921e-15 0)
(4.67446e-05 -8.39645e-05 1.74882e-16 -9.79356e-06 -2.87639e-16 0)
(2.31078e-05 9.94585e-05 -3.83808e-17 -0.000178989 7.54537e-17 0)
(-4.17411e-05 -4.77833e-05 -1.20346e-17 4.16327e-05 3.85976e-17 0)
(-2.84136e-05 -4.84803e-05 -6.87384e-17 3.96876e-05 1.59242e-18 0)
(7.00175e-06 -5.18121e-05 1.67401e-16 7.38612e-06 1.38039e-16 0)
(-0.000402306 -3.76412e-05 1.28565e-15 3.78972e-05 -1.04335e-15 0)
(0.000130483 -0.000107134 1.58836e-17 -5.89081e-05 7.27364e-17 0)
(0.000225614 0.000105849 2.01941e-15 -0.000111078 -4.23923e-17 0)
(0.000240864 -3.959e-05 3.37718e-15 -0.000118344 -6.3829e-17 0)
(0.000559144 -0.000117478 1.7458e-15 -0.000107004 -1.01091e-15 0)
(-0.000135964 1.35044e-05 -1.55041e-16 3.52062e-05 -1.05108e-16 0)
(-9.92818e-05 -2.23093e-05 -2.13263e-16 4.69678e-05 -1.87625e-16 0)
(0.000179875 -2.41474e-05 3.1148e-15 -7.49175e-05 5.20187e-16 0)
(-1.69008e-05 -8.2772e-05 -6.37511e-17 3.28978e-05 1.97054e-17 0)
(-8.09011e-05 -7.14835e-05 2.93819e-17 5.71471e-05 -7.92653e-18 0)
(-0.00011203 -3.238e-05 -2.74303e-17 4.48858e-05 -1.14893e-16 0)
(-4.3328e-06 -3.461e-05 -1.06252e-17 1.66708e-05 -1.95292e-17 0)
(-1.66758e-07 -3.13784e-05 -3.17671e-17 1.17138e-05 -1.48807e-17 0)
(4.6854e-07 -4.29889e-05 1.11944e-16 1.31769e-05 9.1134e-17 0)
(-5.10834e-06 -3.99094e-05 -2.1413e-17 1.68076e-05 1.68051e-18 0)
(-2.29445e-05 -4.6821e-05 2.35272e-17 3.12734e-05 -1.27001e-16 0)
(-4.06265e-05 -1.24551e-05 -2.1684e-17 4.92976e-05 1.96608e-16 0)
(-4.67605e-05 1.20194e-05 5.10659e-17 -4.34178e-05 1.33094e-17 0)
(-7.53287e-05 -0.000116442 -1.26852e-17 2.05968e-05 -2.44759e-17 0)
(-9.23738e-05 -5.13765e-05 6.87384e-17 5.66302e-05 -9.23147e-17 0)
(-6.70055e-05 -5.05613e-05 2.02204e-17 4.29872e-05 6.0014e-17 0)
(0.000338919 5.86886e-06 1.70084e-16 -0.000188962 7.52111e-16 0)
(-8.11443e-06 -6.82102e-05 3.95734e-17 2.36625e-05 -3.7012e-17 0)
(2.93951e-05 -7.46802e-05 2.09793e-16 -1.11545e-06 -6.75593e-18 0)
(4.54299e-05 -5.74732e-05 2.33103e-16 -1.02155e-05 -1.24236e-16 0)
(0.000124267 -7.21613e-05 -6.44016e-17 -4.30858e-05 3.82588e-17 0)
(8.78507e-06 -2.67067e-05 -7.22621e-17 6.19602e-06 -1.96037e-17 0)
(-4.61169e-05 -9.81213e-07 5.18249e-17 -1.17243e-05 -1.14705e-17 0)
(0.000333458 9.37878e-05 2.35481e-15 -0.000140331 2.30176e-16 0)
(-2.71733e-05 -2.32944e-05 -4.4886e-17 3.96541e-05 -1.30206e-17 0)
(5.55181e-06 -1.7233e-05 -5.20417e-18 6.41918e-06 5.29362e-17 0)
(-4.43292e-05 -4.86248e-05 3.29597e-17 4.63329e-05 -3.18484e-19 0)
(1.783e-05 -6.84499e-05 4.6946e-17 8.10019e-06 4.92092e-17 0)
(6.61157e-06 -6.79577e-05 -1.146e-16 8.21426e-06 -1.88922e-17 0)
(-8.40264e-05 -1.04629e-05 2.27682e-17 4.00721e-05 -3.3473e-17 0)
(-4.70719e-05 -2.04382e-05 -4.6187e-17 4.54624e-05 1.48952e-16 0)
(2.92195e-05 -1.98164e-05 7.63278e-17 -1.42103e-05 1.68553e-16 0)
(1.23542e-05 -3.94568e-05 5.09033e-17 3.94595e-06 6.51267e-17 0)
(1.6697e-05 -3.07281e-05 -1.76508e-16 -2.05091e-06 -4.58753e-18 0)
(0.00321262 -0.000610274 1.55161e-14 -0.00359246 -1.74498e-14 0)
(-7.48477e-05 -7.77583e-07 3.6646e-17 3.97782e-05 4.34765e-17 0)
(-7.82167e-05 5.61374e-06 1.00289e-16 2.31496e-05 -3.15012e-17 0)
(0.00262214 -0.00045289 3.83108e-15 -0.00322685 -2.48364e-15 0)
(-0.000142044 5.46421e-05 -1.71304e-17 4.1672e-05 1.40526e-16 0)
(3.97451e-05 -5.70102e-05 2.13479e-16 -1.00982e-05 -1.54228e-17 0)
(5.23828e-05 -3.59168e-05 9.21572e-17 -2.35016e-05 7.29939e-17 0)
(-5.70486e-05 -1.82432e-05 -2.26598e-17 5.29124e-05 6.68055e-17 0)
(-5.65785e-05 -1.89822e-05 -5.25838e-17 5.03758e-05 9.80763e-17 0)
(-0.000241007 0.000100829 -3.25694e-16 2.98114e-05 2.17125e-16 0)
(4.11469e-05 3.82358e-05 3.48029e-16 -0.000184668 -7.29397e-17 0)
(-1.47089e-05 -2.4625e-05 -1.06577e-16 3.22409e-05 3.31427e-17 0)
(2.16879e-05 -4.21015e-05 -1.32435e-16 -7.26037e-06 2.81689e-17 0)
(3.91408e-05 1.03259e-05 6.29054e-16 -0.000132119 5.18486e-17 0)
(-3.86618e-05 -2.68061e-05 -5.60533e-17 4.30924e-05 2.69628e-17 0)
(0.000127703 -8.05444e-05 3.998e-16 -4.88914e-05 -8.49066e-18 0)
(8.29401e-05 -7.43294e-05 6.90366e-16 -3.03853e-05 -1.61587e-16 0)
(-1.49998e-05 -3.7191e-05 1.38778e-17 2.88428e-05 -4.78675e-17 0)
(-5.60706e-05 -4.17021e-05 5.74627e-17 4.65364e-05 5.89094e-17 0)
(-2.86016e-05 -3.36112e-05 -4.90059e-17 3.75857e-05 -6.57128e-17 0)
(-0.00012079 -4.05557e-05 -1.81387e-16 4.35757e-05 1.21214e-16 0)
(-1.37904e-05 6.35247e-05 -2.04914e-16 -0.00011738 1.32174e-16 0)
(-8.06342e-05 -2.74822e-05 -3.95734e-17 4.96657e-05 6.8813e-17 0)
(7.93976e-06 -2.43092e-05 9.33498e-17 -5.52661e-07 -7.40917e-17 0)
(-3.19712e-05 -2.52255e-05 -7.48099e-17 4.13774e-05 -1.01407e-16 0)
(-6.65191e-05 -9.0767e-05 -4.98733e-18 3.9463e-05 1.19438e-16 0)
(7.48084e-06 -1.4126e-05 1.5065e-16 -3.46732e-06 -5.83436e-17 0)
(5.15765e-05 -0.000114009 4.54281e-16 -6.98663e-06 -1.33065e-16 0)
(-5.03849e-05 3.06656e-05 -4.94396e-17 -2.34627e-05 2.37e-18 0)
(0.000573293 0.000223874 -6.01244e-16 -0.000204265 4.2685e-16 0)
(0.000332766 -1.50012e-05 -2.07126e-15 -0.00015225 6.04443e-18 0)
(3.81452e-06 -9.38913e-05 1.15142e-16 9.17285e-06 4.61938e-17 0)
(-5.39702e-05 4.26999e-05 5.20417e-17 -5.21852e-05 -1.04764e-16 0)
(-2.21e-05 -4.54039e-06 6.40763e-17 4.85696e-05 5.53248e-17 0)
(-3.61121e-07 -1.99241e-06 -5.1608e-17 2.93474e-06 5.70832e-17 0)
(5.27682e-05 -3.81548e-05 2.74954e-16 -1.70022e-05 -1.00153e-17 0)
(-2.05385e-05 -5.7719e-05 -5.32343e-17 2.91166e-05 1.31731e-17 0)
(-0.000109086 0.000185038 -2.87639e-16 -8.91897e-05 -1.67184e-16 0)
(-4.35499e-06 -1.08713e-05 9.32414e-18 8.27607e-06 3.69035e-17 0)
(-4.39573e-06 -5.66408e-06 -8.13152e-18 1.16081e-05 -7.59619e-18 0)
(-1.74703e-05 -6.23339e-06 3.8706e-17 3.92249e-05 1.36609e-17 0)
(-1.68205e-05 -1.07378e-05 -2.81893e-17 4.17127e-05 -2.05863e-17 0)
(-2.08412e-05 -1.05317e-05 -1.29887e-16 4.32826e-05 5.56433e-17 0)
(6.73535e-07 -9.05962e-06 -5.43185e-17 6.42443e-06 1.69203e-17 0)
(0.00130625 -0.000400608 -3.44261e-15 -0.000633278 8.34196e-15 0)
(0.00123863 -0.000313183 -4.35632e-15 -0.000689393 5.76503e-15 0)
(0.0003789 8.99872e-05 2.30935e-15 1.87343e-05 -2.34838e-16 0)
(0.000413889 0.00010619 1.6902e-15 -4.45646e-05 -7.75205e-16 0)
(-5.51787e-06 -1.77116e-05 -1.03975e-16 1.48273e-05 -1.69203e-17 0)
(-6.16962e-05 -5.52396e-06 1.07336e-17 5.25498e-05 7.31684e-17 0)
(5.89796e-06 -3.70845e-05 9.74698e-17 6.97531e-06 6.60347e-17 0)
(2.81015e-06 -3.17342e-05 -4.8518e-17 8.36355e-06 -1.35051e-17 0)
(3.54768e-05 -3.51658e-05 4.44523e-17 -1.22698e-05 1.07505e-16 0)
(-2.42186e-05 -1.41257e-06 -6.7329e-17 5.65852e-05 -5.77473e-17 0)
(1.10767e-06 -8.49798e-07 4.59702e-17 -6.41255e-07 3.97292e-17 0)
(6.48859e-05 -7.89704e-05 2.80049e-16 -1.25742e-05 -1.73425e-16 0)
(-7.11981e-05 -1.83727e-05 -2.79724e-17 5.3056e-05 7.07196e-17 0)
(-5.41512e-05 -3.12258e-05 -1.68051e-17 4.963e-05 6.55875e-17 0)
(-2.13594e-05 -5.16263e-06 -1.62088e-16 4.64978e-05 -5.99361e-18 0)
(-9.91697e-07 -4.03914e-06 8.34836e-18 3.6254e-06 1.53618e-17 0)
(-7.47427e-05 -6.98032e-06 -3.57787e-18 4.582e-05 4.21628e-17 0)
(-1.68155e-06 -7.5474e-05 1.32815e-16 1.90035e-05 -6.87113e-18 0)
(0.000440209 -0.000129798 -1.66344e-15 -0.000287837 9.67054e-16 0)
(-6.34664e-05 -3.0916e-06 8.27246e-17 1.36071e-05 -1.92592e-17 0)
(-4.87152e-05 0.000149854 -1.34766e-16 -7.80725e-05 -3.18579e-16 0)
(-6.94309e-05 -3.15623e-05 4.80302e-17 5.20962e-05 3.86281e-17 0)
(-2.27449e-05 -4.73004e-06 3.37187e-17 4.88243e-05 2.35069e-17 0)
(1.98444e-06 -4.24851e-06 -8.03394e-17 1.01608e-06 4.11048e-17 0)
(-3.70116e-05 -4.91168e-06 -5.25838e-17 4.5196e-05 2.86695e-17 0)
(-5.20086e-05 -3.26821e-05 2.30935e-17 5.06188e-05 1.31493e-17 0)
(6.61564e-05 -1.54098e-05 -1.58619e-16 -2.81488e-05 1.4094e-16 0)
(2.2864e-05 -7.11929e-06 1.10914e-16 -9.70863e-06 -1.30131e-16 0)
(-6.22991e-05 0.00011419 -2.68557e-16 -7.93011e-05 -2.64965e-16 0)
(0.000353076 -4.2614e-05 -1.14546e-15 -0.000146573 6.54784e-16 0)
(-0.000140166 6.39651e-05 7.89299e-17 1.79235e-05 2.10877e-17 0)
(0.000181005 1.02848e-05 1.46493e-15 1.03722e-05 -1.64799e-17 0)
(-0.000310098 2.46666e-05 -2.06335e-15 5.77157e-05 3.56147e-16 0)
(-0.000212497 -3.92986e-05 -2.42796e-15 7.96729e-05 -2.83248e-16 0)
(2.58375e-05 -5.3778e-05 -9.84456e-17 -2.5741e-06 5.63446e-17 0)
(0.000100975 -8.68883e-05 5.27031e-16 -3.67065e-05 -8.09459e-17 0)
(-9.39469e-06 -2.82896e-05 7.14489e-17 1.90025e-05 -1.01779e-16 0)
(-5.90303e-06 -6.10433e-05 1.72063e-16 1.6663e-05 -6.76949e-18 0)
(3.61127e-05 -8.74708e-05 2.89265e-16 -1.00067e-05 6.02545e-17 0)
(-4.18055e-05 -5.75948e-05 -9.32414e-18 4.45709e-05 -6.71867e-17 0)
(3.43222e-05 -9.61732e-05 -9.20488e-17 7.23473e-06 1.41692e-17 0)
(-2.85753e-05 -1.22337e-05 2.17925e-17 4.1286e-05 3.00036e-17 0)
(-1.96527e-05 -8.73329e-06 -4.34765e-17 4.26145e-05 -1.87211e-17 0)
(7.88401e-05 -3.53556e-05 -1.29345e-16 -2.52927e-05 -1.90691e-16 0)
(0.000323658 0.00012024 2.2469e-15 -0.000185649 1.36013e-16 0)
(-2.4653e-05 -3.28261e-05 -3.79471e-18 3.56207e-05 -5.79404e-17 0)
(-7.8981e-05 2.5254e-06 -8.25078e-17 1.72136e-05 1.56295e-17 0)
(-0.000152801 0.000119848 -3.97035e-16 2.1442e-05 4.8762e-17 0)
(-0.000137265 0.000109675 -1.63389e-16 -6.26625e-06 -1.10453e-16 0)
(-7.76081e-05 -7.93782e-06 -6.5269e-17 3.12583e-05 -2.19127e-17 0)
(0.00011968 -3.4865e-05 -4.3444e-16 -5.62432e-05 1.01048e-16 0)
(8.26838e-05 -9.00897e-05 3.14093e-16 -1.70818e-05 -5.54298e-18 0)
(-2.72191e-05 -4.11356e-05 5.51859e-17 3.58311e-05 -1.90176e-17 0)
(-2.13644e-05 -2.97739e-05 3.28513e-17 3.43304e-05 -1.039e-16 0)
(1.0609e-05 -6.30034e-06 2.49366e-17 -5.28544e-06 -1.00119e-16 0)
(4.26193e-05 -0.000100562 3.5757e-16 -7.27688e-06 -5.84249e-17 0)
(-2.94527e-05 -5.27685e-06 -1.85399e-17 4.47789e-05 -2.52848e-17 0)
(-5.9697e-06 -2.56648e-05 1.06252e-17 2.10033e-05 -9.02531e-17 0)
(-0.000153663 0.000243308 -5.31693e-16 -9.44562e-05 4.11997e-18 0)
(-4.50727e-06 -1.37572e-05 -3.90313e-17 1.86333e-05 2.19348e-17 0)
(-6.80475e-06 -7.21288e-06 -5.19333e-17 1.38123e-05 1.35525e-19 0)
(0.000512932 0.000117306 5.34512e-17 -0.000288155 5.38957e-16 0)
(-6.26855e-05 -6.75288e-05 2.3744e-17 4.74444e-05 4.44455e-17 0)
(-2.50231e-06 -2.6275e-05 -2.42861e-17 1.42164e-05 -3.7676e-18 0)
(-7.20898e-06 -3.29713e-05 -4.34765e-17 2.18381e-05 -6.43067e-17 0)
(-8.50867e-05 5.02134e-06 1.48644e-16 3.14617e-05 3.94354e-17 0)
(-8.11832e-05 -5.75478e-06 -1.6263e-17 2.52542e-05 -6.35044e-17 0)
(5.52298e-05 -0.000123757 3.85217e-16 -4.99456e-05 -1.91904e-17 0)
(-0.000128003 -0.000107583 -1.04766e-15 5.01065e-05 -2.76187e-16 0)
(0.00166724 -0.00152911 7.76408e-15 -0.00156392 -1.60039e-14 0)
(-1.48822e-05 -4.64729e-05 4.51028e-17 2.93886e-05 -1.78067e-16 0)
(-0.000109573 6.57276e-05 -2.78206e-16 -6.88623e-06 -2.09427e-16 0)
(0.00012347 -8.90545e-05 -1.11879e-15 -6.06757e-05 5.44429e-16 0)
(-0.000110156 1.96956e-05 -2.98156e-17 1.74579e-05 -7.45931e-17 0)
(-6.1362e-05 1.93798e-05 -2.53703e-17 -2.34748e-05 -1.41675e-17 0)
(0.000120727 -5.78217e-05 1.67206e-15 -5.41385e-05 1.90853e-16 0)
(-3.97857e-05 -4.15214e-05 3.41524e-17 4.62042e-05 6.47608e-17 0)
(0.000106653 -2.00538e-05 -1.08127e-15 -4.41281e-05 -1.46713e-16 0)
(-4.6227e-05 -3.79143e-05 2.30935e-17 4.55218e-05 -5.46065e-17 0)
(-2.63742e-05 -4.22906e-05 2.17383e-17 3.66809e-05 -5.25601e-17 0)
(-2.54568e-05 -2.30269e-05 1.60462e-17 3.84555e-05 -1.92073e-17 0)
(9.74449e-05 -7.50634e-05 4.52329e-16 -3.21814e-05 -2.24132e-16 0)
(-4.37203e-05 -4.91618e-06 -1.92988e-17 4.6394e-05 1.41255e-16 0)
(3.30758e-05 -8.70305e-06 1.97704e-16 -1.39176e-05 1.55854e-17 0)
(-8.46477e-05 -2.34427e-05 1.08095e-16 3.30783e-05 -1.15779e-16 0)
(-9.77629e-05 -2.03373e-05 1.53957e-17 4.79532e-05 -6.38175e-17 0)
(-4.50129e-05 7.37041e-05 -1.38886e-16 -6.53985e-05 -1.86269e-16 0)
(-5.86276e-05 -4.63777e-05 1.60462e-17 4.62337e-05 -6.28702e-17 0)
(-3.24393e-05 5.81133e-05 1.56125e-17 -5.08061e-05 -1.04219e-17 0)
(-4.0965e-05 -8.87647e-05 -6.91721e-17 3.84945e-05 1.05466e-16 0)
(-2.36697e-05 -7.99396e-05 -1.70003e-16 2.7073e-05 5.3214e-17 0)
(-7.89704e-05 2.99476e-05 1.60679e-16 -3.75261e-06 -5.31886e-17 0)
(-3.33325e-05 -7.44855e-05 -1.47668e-16 3.99723e-05 1.81807e-17 0)
(-6.33359e-05 -6.0568e-06 -2.36356e-17 5.3211e-05 7.71156e-17 0)
(-3.08943e-05 -3.48891e-05 2.62377e-17 3.89306e-05 -9.48338e-18 0)
(0.000436622 1.68084e-05 -3.72659e-15 -0.000202329 -7.19287e-16 0)
(1.27093e-06 -2.11314e-05 -6.23416e-17 4.00639e-06 3.63208e-17 0)
(-4.38518e-05 -2.99947e-05 -1.84314e-17 4.62097e-05 2.11657e-17 0)
(0.00196602 -0.000226678 -3.83488e-15 -0.00181928 4.0496e-15 0)
(0.000146885 -2.69342e-05 -8.55056e-16 -5.81112e-05 2.02997e-16 0)
(-3.53909e-05 3.23745e-05 2.27682e-17 -7.15701e-05 2.97681e-17 0)
(-1.48603e-05 -3.93969e-05 -6.27753e-17 2.32215e-05 -1.44199e-17 0)
(9.80954e-05 -1.95168e-05 -1.10014e-15 -3.43975e-05 -4.30875e-16 0)
(0.000344247 -6.09619e-06 -9.95135e-16 -0.000162135 3.19379e-16 0)
(-2.21888e-05 -4.20628e-05 1.6263e-17 3.18534e-05 -8.75697e-17 0)
(-2.17675e-05 -1.20391e-06 1.05276e-16 5.38409e-05 -8.10653e-17 0)
(-5.75242e-07 -4.5623e-07 -4.83554e-17 -3.00769e-07 -2.54788e-18 0)
(-6.41957e-05 -5.82897e-06 5.74627e-18 5.33277e-05 2.73346e-17 0)
(-6.01822e-05 -6.44243e-05 -4.77049e-17 5.09693e-05 -7.21672e-17 0)
(6.41534e-05 -6.14924e-05 -2.68448e-16 -2.09436e-05 -1.20665e-16 0)
(8.17193e-05 -1.43693e-05 -4.36825e-16 -3.46179e-05 -4.08067e-17 0)
(0.000375077 6.26433e-05 7.0709e-16 -0.000180746 -3.7405e-16 0)
(-2.78226e-05 1.88205e-05 6.58111e-17 -4.75361e-05 1.5931e-17 0)
(0.000275777 0.000226287 1.14558e-15 -9.54657e-05 5.08599e-16 0)
(-1.26443e-05 -6.78385e-05 9.16151e-17 2.46407e-05 -8.97177e-18 0)
(-2.24782e-05 -4.86872e-07 -7.069e-17 5.0418e-05 3.39237e-17 0)
(-6.54729e-05 1.08855e-05 3.81639e-17 -8.25925e-06 -3.07251e-17 0)
(-2.27996e-05 -4.92733e-06 8.37546e-17 4.74261e-05 2.6136e-17 0)
(-1.89968e-05 -6.27498e-06 8.25078e-17 4.23499e-05 6.88977e-17 0)
(-3.78132e-06 -5.99771e-06 -1.40946e-18 1.12984e-05 -3.53653e-17 0)
(2.25106e-05 -6.34247e-05 -1.0224e-16 6.97124e-06 5.28481e-17 0)
(-0.000384728 6.76138e-05 -4.54161e-15 -2.23307e-05 -1.97596e-16 0)
(6.89789e-07 -3.81e-07 6.55942e-17 -7.20624e-07 -3.30072e-17 0)
(-4.56733e-05 -2.98102e-05 6.28837e-18 4.66288e-05 -3.79471e-19 0)
(0.000345343 7.0569e-05 -4.14165e-17 -0.00016564 -2.44108e-16 0)
(-5.81225e-05 1.02265e-05 3.77302e-17 -1.42995e-06 6.31971e-18 0)
(8.33012e-07 -2.60191e-06 -6.04985e-17 2.39386e-06 2.54855e-17 0)
(-5.39712e-05 -4.16648e-05 6.74374e-17 5.08526e-05 2.33544e-17 0)
(-5.47252e-05 -6.47025e-05 -8.64109e-17 4.1989e-05 -7.00733e-17 0)
(0.000204808 0.000148505 3.30214e-16 -9.2458e-05 3.20165e-16 0)
(-2.42424e-05 -1.63499e-05 2.59124e-17 3.87912e-05 -3.85231e-18 0)
(2.43853e-05 0.000111479 -7.22079e-17 -0.000123446 4.73796e-17 0)
(-3.39959e-05 0.00018259 -2.80808e-17 -0.000179955 -2.33686e-16 0)
(-3.43087e-06 6.57746e-06 2.7864e-16 -8.05259e-05 -3.05948e-18 0)
(-2.4176e-06 -1.82439e-05 4.43439e-17 8.1576e-06 5.58703e-17 0)
(0.00199425 -0.00107845 6.48071e-15 -0.000997774 2.47843e-15 0)
(-5.9966e-05 0.000109984 -3.04119e-16 -7.89201e-05 -2.23386e-16 0)
(-5.52485e-05 -6.43862e-05 -5.04154e-17 4.06834e-05 6.23823e-17 0)
(0.000199939 -0.00029664 -5.98371e-16 -0.000410801 1.88261e-15 0)
(-2.98688e-05 0.000101599 4.07253e-16 2.27753e-05 -5.65954e-17 0)
(-1.74178e-05 -1.74228e-05 -1.01915e-17 3.78457e-05 1.64944e-16 0)
(-1.49034e-05 -3.33704e-05 8.13152e-18 2.69081e-05 -9.77137e-18 0)
(0.0023132 -0.0011875 1.55196e-14 -0.00375308 -1.6194e-14 0)
(0.000356412 0.00012609 3.0427e-15 -0.000230354 7.56556e-16 0)
(0.00043256 0.000188327 3.04682e-15 -0.000220524 1.20834e-15 0)
(6.92993e-05 -1.9192e-05 -6.52961e-16 -3.40533e-05 -3.03163e-16 0)
(-3.70881e-05 -3.56581e-05 3.95734e-17 4.13203e-05 -1.12682e-16 0)
(-0.000236995 -7.16735e-05 -1.36924e-15 4.13484e-05 -7.55323e-16 0)
(-3.62325e-05 -4.71995e-06 -7.90383e-17 4.48564e-05 -5.38205e-18 0)
(2.07043e-05 -7.2724e-06 -1.46367e-17 -8.01009e-06 -1.08779e-16 0)
(0.000301366 -0.000100424 -1.37428e-15 -0.000263713 8.57333e-16 0)
(1.97834e-06 -2.33093e-05 -4.09828e-17 1.06862e-05 5.36816e-17 0)
(-3.81963e-05 -2.79614e-05 -2.50451e-17 4.45884e-05 -2.37779e-17 0)
(-2.3213e-05 -3.26141e-06 7.8171e-17 4.55533e-05 1.24261e-16 0)
(8.57737e-08 -1.11329e-06 2.60209e-18 1.37927e-06 2.4381e-17 0)
(0.000196387 -6.02739e-05 -2.96258e-16 -7.027e-05 -2.19551e-18 0)
(3.67382e-05 -3.79364e-05 8.66278e-17 -1.576e-05 4.99275e-17 0)
(0.000142354 -8.34838e-05 1.3314e-16 -6.52135e-05 2.03349e-16 0)
(0.00244458 -0.000563622 4.41108e-16 -0.00176423 3.32416e-15 0)
(1.4388e-05 -4.24793e-05 6.33174e-17 1.08057e-06 1.4077e-16 0)
(-7.84271e-05 7.79773e-06 -4.15249e-17 1.94972e-05 -2.49942e-17 0)
(0.000106729 -0.000153724 4.15033e-16 -9.20919e-05 -1.20805e-15 0)
(0.000329484 0.000221283 2.35227e-15 -7.17017e-05 -2.35272e-17 0)
(1.27201e-06 -0.000177999 5.2432e-16 -6.99023e-05 -3.54629e-16 0)
(1.45094e-05 -2.78416e-05 -2.43945e-17 1.21806e-06 -7.75001e-17 0)
(-2.39752e-05 -2.28225e-06 -4.90059e-17 5.43164e-05 -6.90332e-17 0)
(-2.67667e-05 -7.17509e-07 2.35272e-17 6.02374e-05 -6.61109e-17 0)
(-4.60027e-07 -3.47558e-08 -5.54027e-17 5.97957e-07 -2.45775e-17 0)
(4.43867e-07 7.81574e-08 -1.12757e-16 -5.31764e-07 2.24023e-17 0)
(-4.68953e-05 -4.98565e-06 -1.07336e-17 4.90575e-05 1.4335e-16 0)
(3.9477e-05 -1.10401e-05 4.35958e-16 -1.44956e-05 1.33858e-16 0)
(0.000154406 0.000183267 -1.11666e-16 1.25998e-05 2.13154e-16 0)
(-0.000292535 0.000241498 -3.26659e-15 -3.1368e-06 6.66324e-16 0)
(-1.73054e-05 -2.10425e-05 -6.06069e-17 2.97204e-05 7.81778e-17 0)
(-7.58459e-05 1.62855e-05 5.84385e-17 -4.64967e-06 3.82097e-17 0)
(0.000338343 6.62362e-05 1.72094e-15 -0.000159644 9.25367e-17 0)
(-8.01276e-05 5.54029e-06 2.55872e-17 1.97943e-05 -4.1386e-17 0)
(-5.88583e-05 -7.10865e-05 -9.96382e-17 4.79721e-05 2.24972e-18 0)
(-6.94525e-05 -8.25285e-06 7.47015e-17 2.69942e-05 -4.94007e-17 0)
(2.47932e-05 -5.25149e-05 -9.31872e-17 -1.89802e-06 3.20246e-17 0)
(-2.21304e-05 -2.23907e-05 -1.61546e-17 3.50806e-05 1.31612e-16 0)
(2.26027e-05 -4.53915e-05 -1.18503e-16 1.32001e-06 5.84317e-17 0)
(0.00133122 -0.000418337 1.42288e-15 -0.00164411 8.43412e-15 0)
(0.000402555 0.000131512 1.77451e-15 -0.000247069 1.30099e-15 0)
(-0.000111857 -2.70217e-05 -1.5439e-16 6.32894e-05 1.51843e-16 0)
(9.28186e-05 -0.000116088 7.12321e-16 -3.73879e-05 5.84439e-16 0)
(0.000221697 0.00012213 9.03974e-16 -9.32562e-05 1.40946e-17 0)
(0.000102527 -0.000127757 -2.62269e-16 -4.94498e-05 4.4004e-16 0)
(-0.000116665 -6.19646e-05 -1.55908e-16 3.1505e-05 6.70579e-17 0)
(7.68837e-06 -8.89959e-05 -8.45136e-17 9.97998e-06 -8.94467e-19 0)
(4.21726e-05 -0.000103035 3.29814e-16 1.13232e-06 1.58971e-17 0)
(1.5522e-06 3.50823e-05 -7.4051e-17 -7.14717e-05 5.72222e-17 0)
(1.40455e-06 2.95171e-05 1.75966e-16 -0.000117542 5.0224e-17 0)
(-2.05873e-05 -3.32287e-06 6.16911e-17 4.4418e-05 1.55406e-16 0)
(1.25416e-06 -2.56123e-06 2.21177e-17 -1.19075e-06 3.998e-17 0)
(-2.24596e-06 -2.05411e-05 -6.3209e-17 1.72147e-05 2.54178e-17 0)
(-3.01137e-05 -9.06376e-05 1.07987e-16 2.66298e-05 -1.26648e-17 0)