/*--------------------------------*- C++ -*----------------------------------*\
| =========                 |                                                 |
| \\      /  F ield         | OpenFOAM: The Open Source CFD Toolbox           |
|  \\    /   O peration     | Version:  v2012                                 |
|   \\  /    A nd           | Website:  www.openfoam.com                      |
|    \\/     M anipulation  |                                                 |
\*---------------------------------------------------------------------------*/
FoamFile
{
    version     2.0;
    format      ascii;
    class       volScalarField;
    location    "20";
    object      sigmaEq;
}
// * * * * * * * * * * * * * * * * * * * * * * * * * * * * * * * * * * * * * //

dimensions      [1 -1 -2 0 0 0 0];


internalField   nonuniform List<scalar> 
470
(
6.35566e+06
5.79259e+06
3.29365e+06
3.12902e+06
6.51855e+06
721465
6.47043e+06
7.17716e+06
1.19158e+07
5.10111e+06
9.04005e+06
1.73267e+07
1.74956e+07
3.47181e+06
1.64546e+07
7.05994e+06
5.5127e+06
4.29638e+06
4.64964e+06
5.87052e+06
6.03142e+06
2.45293e+06
2.73646e+06
3.80325e+06
9.57475e+06
5.91259e+06
1.04369e+07
2.98734e+06
1.44925e+06
3.58784e+06
5.94826e+06
1.93633e+07
4.60795e+06
1.80095e+07
1.27869e+06
971687
1.9013e+07
6.28304e+06
5.62496e+06
5.52314e+06
8.17399e+06
5.05254e+06
2.12806e+07
9.59161e+06
3.98769e+06
2.89251e+07
6.63166e+06
1.06447e+07
1.08325e+07
9.08578e+06
2.68372e+07
2.94833e+07
4.28459e+06
4.92035e+06
2.87256e+06
2.70213e+06
1.61671e+07
7.36474e+06
8.81267e+06
3.52992e+06
5.42888e+06
1.28912e+07
1.42204e+07
1.78064e+07
2.15742e+07
3.92566e+07
6.54092e+06
2.26603e+06
4.92709e+06
6.93508e+06
5.23877e+06
5.55084e+06
1.80153e+07
7.03752e+06
3.6557e+07
2.28978e+06
4.40651e+06
4.88516e+06
7.75093e+06
5.1728e+07
8.49115e+06
2.20797e+07
3.71787e+06
7.78425e+06
1.33698e+07
1.86564e+06
2.74562e+07
2.81801e+07
3.34105e+07
2.10228e+07
2.41488e+07
1.92165e+07
7.15205e+06
5.21711e+06
1.69058e+07
1.72455e+07
7.04934e+06
5.78737e+06
8.12674e+06
1.90725e+06
3.34012e+06
1.02455e+07
3.19263e+07
3.05809e+06
3.10633e+06
1.07177e+06
1.53793e+06
6.72397e+06
9.54642e+06
4.96498e+07
3.14636e+07
1.65048e+07
2.57757e+06
524120
6.23502e+06
7.0538e+06
3.35339e+06
1.12536e+07
6.91457e+06
5.87704e+06
7.37435e+06
3.27262e+06
3.89971e+06
3.39528e+06
456274
8.18933e+06
7.60501e+06
3.21335e+06
1.25775e+07
3.59346e+06
6.14207e+06
7.49347e+06
6.51443e+06
3.68372e+06
1.53017e+06
2.12108e+06
6.58291e+06
2.30225e+07
2.17567e+07
319352
634644
1.02625e+07
3.18178e+06
4.66325e+06
4.27063e+06
6.21058e+06
3.17682e+06
1.50156e+07
4.29816e+06
1.83668e+07
4.90855e+06
3.41209e+06
7.77813e+06
2.65266e+06
3.39042e+07
8.32247e+06
1.38734e+07
5.91405e+06
5.53363e+06
4.84776e+06
3.68642e+07
1.3474e+07
1.88009e+07
1.74671e+07
3.51168e+07
8.52395e+06
7.26804e+06
1.24188e+07
8.07289e+06
9.28963e+06
8.11976e+06
3.38952e+06
2.99465e+06
4.0695e+06
3.87271e+06
5.05083e+06
4.35753e+06
2.67871e+06
1.18371e+07
8.49502e+06
6.99738e+06
2.49511e+07
6.54528e+06
7.14948e+06
6.03024e+06
1.05344e+07
2.52611e+06
2.23732e+06
2.43245e+07
3.81368e+06
1.63972e+06
6.20022e+06
6.438e+06
6.35102e+06
5.9868e+06
4.71754e+06
2.77138e+06
3.72667e+06
3.02206e+06
2.08167e+08
5.42848e+06
4.98157e+06
9.11152e+07
1.0328e+07
5.85748e+06
4.93432e+06
5.40377e+06
5.29503e+06
1.67406e+07
1.177e+07
3.20791e+06
4.17026e+06
8.42455e+06
4.56055e+06
1.13466e+07
8.83095e+06
4.0435e+06
6.17145e+06
4.40582e+06
8.79638e+06
8.42065e+06
6.64714e+06
2.31009e+06
4.15911e+06
9.82941e+06
1.41704e+06
1.10435e+07
3.70253e+06
4.21403e+07
2.31759e+07
8.76724e+06
4.9025e+06
3.39814e+06
250902
4.91687e+06
5.86455e+06
1.8088e+07
1.17732e+06
934726
2.76962e+06
2.98368e+06
3.20489e+06
906840
3.59284e+07
4.427e+07
2.16131e+07
2.55735e+07
1.92135e+06
5.35805e+06
3.47635e+06
2.98616e+06
4.01302e+06
3.86975e+06
114414
8.32323e+06
6.062e+06
5.64953e+06
3.27152e+06
439651
5.71298e+06
7.1201e+06
3.62767e+07
3.84742e+06
1.44519e+07
6.403e+06
3.4389e+06
406898
3.86707e+06
5.6741e+06
4.73835e+06
1.69513e+06
1.13394e+07
2.42813e+07
1.00383e+07
9.5279e+06
1.85917e+07
1.4555e+07
5.22528e+06
1.04825e+07
2.96339e+06
5.79684e+06
8.46585e+06
6.71439e+06
9.12687e+06
3.46873e+06
3.07844e+06
6.04412e+06
2.6526e+07
4.16653e+06
4.78988e+06
1.42642e+07
1.25251e+07
5.27995e+06
8.98833e+06
9.76521e+06
4.8391e+06
3.81811e+06
956648
9.7099e+06
3.52065e+06
2.7341e+06
2.38154e+07
1.7191e+06
1.18847e+06
3.25439e+07
8.13682e+06
2.59082e+06
3.38316e+06
5.64286e+06
5.21448e+06
1.25418e+07
1.3193e+07
1.69531e+08
4.81666e+06
8.38679e+06
1.20656e+07
6.70943e+06
3.40665e+06
9.93924e+06
5.5772e+06
7.46797e+06
5.55059e+06
4.92744e+06
3.69015e+06
9.4147e+06
4.22777e+06
2.39314e+06
6.07009e+06
7.18114e+06
7.54926e+06
6.53693e+06
5.92722e+06
9.07023e+06
7.82254e+06
5.00643e+06
7.7444e+06
5.4709e+06
4.60834e+06
3.04964e+07
1.98003e+06
5.04655e+06
3.60788e+07
1.01688e+07
4.50065e+06
4.08717e+06
6.66538e+06
2.4124e+07
4.66993e+06
3.63172e+06
50304.7
5.51503e+06
7.9391e+06
7.07044e+06
5.73021e+06
2.70798e+07
2.83593e+06
2.77249e+07
6.56941e+06
3.48184e+06
3.47699e+06
3.37267e+06
2.9869e+06
921057
6.0121e+06
5.42052e+07
74760.3
5.12415e+06
2.51894e+07
3.23566e+06
267828
6.24506e+06
7.54135e+06
1.98277e+07
3.33447e+06
1.27567e+07
1.92224e+07
4.29073e+06
1.77826e+06
7.99876e+07
1.09536e+07
7.49835e+06
3.88528e+07
9.79025e+06
3.09582e+06
3.68676e+06
9.80161e+07
2.99749e+07
3.56171e+07
5.22804e+06
4.94385e+06
1.55211e+07
3.81396e+06
1.53941e+06
1.63678e+07
2.23766e+06
4.66188e+06
3.27678e+06
126391
1.40625e+07
4.3394e+06
1.25946e+07
5.48417e+07
4.03168e+06
4.88859e+06
1.70781e+07
2.87068e+07
1.703e+07
2.70294e+06
3.74722e+06
4.1566e+06
49581.7
46136.7
4.49896e+06
2.80127e+06
1.88703e+07
2.74368e+07
2.96176e+06
4.24573e+06
2.45067e+07
4.96156e+06
8.29808e+06
4.70391e+06
5.0909e+06
3.40586e+06
4.39563e+06
4.60087e+07
3.29492e+07
8.64686e+06
1.25026e+07
1.89052e+07
1.3937e+07
9.29492e+06
8.31445e+06
9.86735e+06
5.08379e+06
6.93698e+06
3.11395e+06
264691
2.15779e+06
8.85821e+06
1.09425e+07
1.34565e+07
3.37927e+06
1.17966e+07
6.77612e+06
1.19029e+07
1.21967e+07
1.99601e+06
3.52814e+06
2.48433e+06
4.72809e+06
9.11667e+06
7.60025e+06
3.71025e+06
3.60135e+06
5.91814e+06
1.04575e+07
7.40491e+06
6.00881e+06
6.61452e+06
5.92565e+06
7.24805e+06
5.24402e+06
7.88751e+06
7.75652e+06
8.52081e+06
5.33642e+06
5.12592e+06
9.41372e+06
8.94877e+06
)
;

boundaryField
{
    back
    {
        type            empty;
    }
    front
    {
        type            empty;
    }
    down
    {
        type            calculated;
        value           nonuniform List<scalar> 
15
(
5.05254e+06
5.23877e+06
3.35339e+06
5.87704e+06
2.23732e+06
8.42455e+06
5.71298e+06
3.84742e+06
3.86707e+06
3.52065e+06
5.51503e+06
4.29073e+06
3.27678e+06
3.74722e+06
4.49896e+06
)
;
    }
    right
    {
        type            calculated;
        value           nonuniform List<scalar> 10(2.28978e+06 3.39528e+06 456274 1.53017e+06 3.86975e+06 114414 2.9869e+06 921057 4.1566e+06 46136.7);
    }
    up
    {
        type            calculated;
        value           nonuniform List<scalar> 
20
(
1.93633e+07
3.98769e+06
2.68372e+07
7.36474e+06
524120
1.25775e+07
1.88009e+07
1.74671e+07
1.69513e+06
2.42813e+07
956648
7.46797e+06
3.04964e+07
1.01688e+07
5.73021e+06
2.70798e+07
9.79025e+06
126391
49581.7
2.80127e+06
)
;
    }
    left
    {
        type            calculated;
        value           nonuniform List<scalar> 5(1.61671e+07 5.1728e+07 9.11152e+07 2.55735e+07 3.60788e+07);
    }
    hole
    {
        type            calculated;
        value           nonuniform List<scalar> 8(2.81801e+07 1.38734e+07 2.08167e+08 1.177e+07 2.38154e+07 1.69531e+08 5.42052e+07 1.92224e+07);
    }
}


// ************************************************************************* //
