/*--------------------------------*- C++ -*----------------------------------*\
| =========                 |                                                 |
| \\      /  F ield         | OpenFOAM: The Open Source CFD Toolbox           |
|  \\    /   O peration     | Version:  v2012                                 |
|   \\  /    A nd           | Website:  www.openfoam.com                      |
|    \\/     M anipulation  |                                                 |
\*---------------------------------------------------------------------------*/
FoamFile
{
    version     2.0;
    format      ascii;
    class       volSymmTensorField;
    location    "20";
    object      sigma;
}
// * * * * * * * * * * * * * * * * * * * * * * * * * * * * * * * * * * * * * //

dimensions      [1 -1 -2 0 0 0 0];


internalField   nonuniform List<symmTensor> 
470
(
(-5.8542e+06 -856279 5.03237e-06 1.20069e+06 3.65131e-06 -1.39605e+06)
(-4.95811e+06 -215045 1.85065e-06 1.67351e+06 4.76049e-06 -985380)
(1.83556e+06 -1.74106e+06 -8.22576e-06 395620 5.85844e-06 669353)
(-386031 -313346 1.93238e-06 3.11598e+06 3.29008e-06 818986)
(-5.18044e+06 -2.04243e+06 1.85649e-06 1.07002e+06 1.75432e-06 -1.23313e+06)
(478550 -318459 4.65873e-06 -49198.8 1.1822e-07 128805)
(-1.52807e+06 -3.22482e+06 -4.97399e-06 2.23982e+06 -9.46123e-07 213524)
(-5.80075e+06 -1.96043e+06 -2.38775e-06 1.43046e+06 -1.59524e-06 -1.31109e+06)
(7.25553e+06 -6.03652e+06 -9.21238e-06 932371 -1.62574e-05 2.45637e+06)
(1.71165e+06 -2.91835e+06 5.28924e-06 1.35668e+06 5.30091e-06 920501)
(5.47641e+06 -4.7636e+06 2.32032e-05 1.52953e+06 -1.50927e-05 2.10178e+06)
(1.72104e+07 -3.37516e+06 -3.29264e-06 -1.25988e+06 1.36117e-05 4.78516e+06)
(1.29438e+07 -6.1036e+06 -7.59817e-05 -2.98818e+06 1.97361e-06 2.98668e+06)
(-830346 -630730 -1.48285e-06 2.94349e+06 -2.42141e-07 633945)
(1.59668e+07 -3.72026e+06 1.14133e-05 -1.17905e+06 1.10047e-06 4.43632e+06)
(4.80938e+06 -3.38082e+06 -5.25421e-08 418551 -2.1732e-06 1.56838e+06)
(616004 -3.17618e+06 5.09075e-06 846529 3.32365e-06 438760)
(-2.08956e+06 -779563 -2.96571e-06 2.61852e+06 3.7387e-06 158687)
(-2.50717e+06 -286566 -6.88885e-07 2.83057e+06 8.93403e-06 97018.7)
(-4.82642e+06 -1.01832e+06 -2.13671e-06 1.59589e+06 6.17397e-06 -969159)
(5.73752e+06 -2.09591e+06 -2.53603e-05 356820 -1.19865e-05 1.8283e+06)
(19174.5 -1.01909e+06 6.65533e-07 1.93356e+06 -3.31672e-07 585821)
(2.33746e+06 -1.14774e+06 -1.35792e-05 249873 3.42253e-06 776200)
(-1.32046e+06 -997991 1.80395e-06 2.58052e+06 4.38106e-06 378020)
(-439091 -5.51919e+06 -3.05912e-06 181522 4.0202e-06 -77270.6)
(-2.20504e+06 -2.58201e+06 -1.30188e-06 2.26087e+06 4.09755e-07 16748.3)
(-5.58498e+06 -5.36047e+06 3.47362e-06 -247854 1.0295e-06 -1.74985e+06)
(2.90757e+06 -732353 1.25692e-05 -149885 9.53384e-06 827304)
(531698 -826246 1.40112e-06 369154 2.30747e-06 270255)
(-1.35958e+06 -434608 3.05328e-06 2.6796e+06 -6.88977e-07 396005)
(-4.70542e+06 -1.08772e+06 -3.4561e-06 1.77416e+06 6.97953e-06 -879378)
(2.21738e+07 -1.34898e+06 0.000146012 611098 -2.42728e-05 6.83547e+06)
(1.49803e+06 -2.61755e+06 -6.34592e-06 692538 2.85333e-06 657171)
(-2.67617e+07 -5.46671e+06 -4.3318e-06 -1.14276e+07 9.28244e-07 -1.14568e+07)
(1.30883e+06 -513667 -5.66287e-07 317023 -1.78461e-06 487756)
(746386 -464673 8.33668e-06 153029 9.20217e-07 269825)
(2.01117e+07 -2.3425e+06 -7.74383e-05 -871649 3.52412e-05 5.77202e+06)
(-4.87847e+06 -1.12329e+06 -3.02409e-06 1.98758e+06 7.35699e-06 -867268)
(-3.54184e+06 -1.23168e+06 -9.22406e-07 2.46288e+06 4.16469e-06 -323688)
(-5.28051e+06 -814228 3.15253e-07 798141 1.81124e-06 -1.34471e+06)
(-4.88517e+06 -3.73518e+06 5.92558e-06 806212 1.15812e-06 -1.22369e+06)
(-3.13738e+06 -352987 -1.28436e-07 2.65284e+06 2.73588e-06 -145363)
(1.85236e+07 -347890 2.05673e-05 -5.86465e+06 2.48772e-05 3.79769e+06)
(-4.58657e+06 -4.48639e+06 1.62297e-06 1.87583e+06 3.00238e-06 -813223)
(4.39874e+06 -689029 6.77209e-07 131594 6.43714e-06 1.3591e+06)
(2.39112e+07 3.13174e+06 6.9484e-05 -8.70767e+06 1.28757e-05 4.56105e+06)
(-4.48466e+06 -2.03749e+06 9.1073e-07 1.97263e+06 2.83892e-06 -753609)
(556757 -6.11536e+06 -9.74364e-06 1.66448e+06 3.02956e-06 666372)
(-2.49813e+06 -5.97753e+06 -1.98492e-06 1.16805e+06 2.142e-06 -399023)
(1.59258e+06 -5.22081e+06 -1.2038e-05 723703 -4.18439e-06 694885)
(2.95391e+07 -1.51361e+06 -0.000183959 -567156 -3.12465e-05 8.69158e+06)
(-4.39212e+07 -843074 -9.01681e-05 -1.25157e+07 -3.47478e-05 -1.69311e+07)
(-1.59125e+06 -1.12324e+06 -3.50281e-06 2.80776e+06 6.81862e-06 364955)
(-2.99521e+06 -682786 -2.07833e-06 2.51867e+06 1.07511e-05 -142961)
(-58521.7 -964126 -4.26175e-07 2.57695e+06 3.00311e-06 755529)
(-101250 -1.09983e+06 1.37193e-06 2.06468e+06 -2.2677e-06 589028)
(1.38473e+07 7.2206e+06 -5.8464e-06 2.64727e+06 2.10869e-05 4.94837e+06)
(-8.04195e+06 2.11942e+06 6.18866e-06 -969422 1.21314e-05 -2.70341e+06)
(402663 -4.98943e+06 -1.0558e-05 2.29596e+06 2.47422e-06 809587)
(3.63475e+06 -1.16784e+06 7.78207e-06 428862 9.78451e-06 1.21908e+06)
(-1.31205e+06 -2.66325e+06 -3.07663e-06 1.9896e+06 -2.9066e-06 203264)
(303940 -7.41787e+06 -3.32767e-06 -904243 2.87062e-05 -180091)
(1.29e+07 -5.02409e+06 -3.43888e-05 274571 1.60107e-06 3.95239e+06)
(4.50032e+06 -7.94128e+06 3.62657e-05 -8.52425e+06 -5.59354e-05 -1.20718e+06)
(-1.45414e+07 1.17255e+07 -8.33843e-05 -7.92956e+06 2.28339e-05 -6.74127e+06)
(4.05647e+07 -8.37036e+06 -1.0129e-05 -533336 0.000180033 1.20094e+07)
(-4.31493e+06 -1.96468e+06 1.43615e-06 2.11523e+06 5.90752e-06 -659911)
(81179.4 -1.0789e+06 -3.9465e-06 1.51459e+06 -3.31234e-06 478730)
(-7.2338e+06 1.46115e+06 4.20337e-06 -2.95718e+06 -4.83935e-06 -3.05729e+06)
(2.72288e+06 -3.89785e+06 2.52903e-05 1.121e+06 -5.2024e-06 1.15316e+06)
(-5.65654e+06 -373002 2.59792e-06 213402 -3.92333e-07 -1.63294e+06)
(974842 -3.16888e+06 7.29168e-06 1.70454e+06 1.34165e-06 803814)
(-1.20975e+06 -9.88962e+06 -4.23256e-05 -7.3428e+06 -6.29017e-05 -2.56577e+06)
(-1.92333e+06 -3.62831e+06 -2.18925e-06 1.73387e+06 -1.07784e-06 -56837.1)
(5.95968e+06 -1.38994e+07 -6.2782e-05 -2.54852e+07 -5.56742e-05 -5.85767e+06)
(-57212.3 -371142 -3.40356e-06 2.42105e+06 7.51608e-06 709153)
(584298 -2.5114e+06 8.43009e-06 1.27492e+06 3.69364e-06 557764)
(403090 -2.73053e+06 6.33424e-06 1.72764e+06 -3.92898e-06 639219)
(-1.86416e+06 -4.10588e+06 -5.45562e-06 1.69506e+06 4.58065e-06 -50731.9)
(6.93441e+07 4.6487e+06 -2.50524e-05 1.35323e+07 2.47999e-05 2.48629e+07)
(-1.26111e+06 -4.5923e+06 5.07907e-07 2.1642e+06 4.65618e-06 270926)
(1.802e+07 -6.75875e+06 3.86213e-06 -3.57288e+06 0.000256008 6.34094e+06)
(2.62808e+06 -1.85212e+06 2.77889e-06 589285 7.43398e-06 965210)
(-9.73983e+06 3.22258e+06 -1.37368e-05 -4.39175e+06 -1.85322e-05 -4.23947e+06)
(4.89741e+06 -7.38402e+06 5.3231e-05 580071 4.37317e-06 1.64325e+06)
(-16202.6 -449386 -4.47775e-06 1.89303e+06 3.48164e-06 563048)
(1.88653e+07 -3.19214e+06 9.15692e-06 -1.21502e+07 -1.79898e-05 2.01453e+06)
(-2.92682e+07 1.36524e+07 -0.00019604 -1.47846e+07 7.26847e-05 -1.32159e+07)
(2.08578e+07 -189127 4.69814e-05 -1.77126e+07 2.68432e-05 943551)
(-9.13681e+06 -1.19553e+07 -2.89098e-05 -8.999e+06 -8.59158e-05 -5.44075e+06)
(2.00139e+07 -1.85894e+06 -3.24331e-05 -7.53013e+06 -4.67741e-05 4.29463e+06)
(2.11299e+07 -3.04492e+06 -8.73337e-05 378888 1.23459e-05 6.45264e+06)
(-758526 -3.84118e+06 -2.44613e-06 2.25225e+06 -1.01545e-06 448117)
(-214317 -2.90123e+06 5.70958e-06 1.38245e+06 -3.09634e-06 350440)
(1.39766e+07 -5.81788e+06 -0.000112096 -1.42749e+06 1.23229e-05 3.76474e+06)
(1.99466e+07 -2.35718e+06 -3.96868e-05 1.22753e+06 1.97941e-05 6.35225e+06)
(-3.42309e+06 -2.86983e+06 5.31259e-07 2.34335e+06 -2.81721e-06 -323922)
(-399514 -3.10106e+06 1.24058e-06 2.05917e+06 -4.06399e-06 497897)
(-5.38251e+06 -3.04871e+06 2.52786e-06 1.69963e+06 9.78962e-07 -1.10486e+06)
(1.28415e+06 -950482 -7.99808e-07 228470 -4.02093e-06 453787)
(-318045 -1.39256e+06 -2.29434e-06 2.31002e+06 4.444e-06 597592)
(1.73106e+06 -5.90237e+06 6.7429e-06 1.53119e+06 -6.43714e-06 978673)
(-3.06078e+07 -1.66311e+07 -2.99315e-05 -1.97787e+07 1.66208e-05 -1.5116e+07)
(-388037 -849270 -9.6911e-07 2.6629e+06 5.18415e-06 682459)
(-24764 -589786 -3.9932e-06 3.27824e+06 1.20373e-06 976042)
(71196.9 -604385 9.16568e-07 320710 2.13051e-06 117572)
(479207 -810038 3.19631e-06 1.10747e+06 1.40587e-06 476003)
(-4.28962e+06 -2.43968e+06 1.06836e-06 1.72056e+06 -1.28254e-06 -770719)
(-762539 2.90438e+06 -9.31163e-06 -9.80752e+06 4.77987e-07 -3.17102e+06)
(-4.00809e+07 -2.55913e+07 0.000147942 -4.55081e+07 7.71784e-05 -2.09251e+07)
(2.96814e+07 4.79716e+06 0.000135297 -4.88896e+06 4.1625e-05 7.43774e+06)
(-830016 -8.38337e+06 3.70974e-05 -65498.9 0.000278741 7.37061e+06)
(55006.7 -381042 -1.73973e-06 2.85265e+06 2.08964e-06 872297)
(418045 -264980 -4.83387e-06 157804 -5.49138e-07 172755)
(-9.03715e+06 1.31646e+06 -2.97739e-07 -2.93307e+06 -2.34061e-06 -3.59107e+06)
(252774 -4.01391e+06 8.26079e-06 1.56414e+06 3.59622e-06 545073)
(-726142 -267813 1.08821e-05 3.07039e+06 1.63483e-06 703275)
(1.28671e+07 -1.65491e+06 8.10783e-05 697939 7.17528e-06 4.06951e+06)
(-3.49904e+06 -2.92362e+06 1.73389e-06 1.92556e+06 -4.39383e-06 -472044)
(-4.59404e+06 -401377 -1.11506e-06 2.12026e+06 2.58733e-06 -742134)
(-1.96738e+06 -3.67217e+06 1.7514e-08 2.3409e+06 -2.45963e-06 112057)
(-252869 -979686 2.98906e-06 2.91916e+06 2.20212e-06 799887)
(-1.54994e+06 -687905 -3.81222e-06 2.72908e+06 6.07655e-07 353742)
(-12517.7 -230470 -1.40112e-07 3.78224e+06 -1.33417e-06 1.13092e+06)
(26432.1 -201885 4.13039e-06 353326 -2.00901e-06 113927)
(2.04617e+06 -4.70563e+06 1.52664e-05 1.85286e+06 3.46997e-07 1.16971e+06)
(719323 -4.37193e+06 -2.46948e-06 1.37243e+06 -3.61774e-06 627527)
(-313016 -1.44259e+06 1.86816e-07 1.98778e+06 -4.68209e-06 502429)
(1.37518e+07 -1.9483e+06 0.000156091 133555 4.13076e-05 4.16562e+06)
(-920881 -1.16924e+06 3.11458e-06 2.48762e+06 1.7442e-06 470022)
(-5.18219e+06 -1.61243e+06 -3.71298e-06 1.06242e+06 1.80869e-06 -1.23593e+06)
(-5.08124e+06 -2.47207e+06 -5.25421e-07 1.98369e+06 2.36148e-06 -929264)
(-2.0901e+06 -3.16193e+06 -1.9966e-06 1.98321e+06 -1.45695e-06 -32065.5)
(-521264 -1.59475e+06 2.59792e-06 2.26408e+06 -2.63787e-06 522845)
(95837.1 -376016 -2.51618e-06 1.64342e+06 -6.96913e-07 521777)
(1.63257e+06 -945083 -1.44666e-05 129104 -2.21553e-06 528502)
(-534499 -3.63941e+06 -4.73463e-06 1.64111e+06 -3.15909e-06 331982)
(-2.7546e+07 9.77726e+06 -8.26838e-05 -1.20278e+07 1.94216e-05 -1.18721e+07)
(1.97814e+07 -3.94044e+06 5.64536e-06 -3.78526e+06 3.70305e-05 4.79884e+06)
(116454 -181019 -2.30018e-06 59349.9 3.9381e-06 52741.2)
(498153 -342214 5.6833e-06 315794 1.96595e-06 244184)
(-7.17692e+06 -5.27824e+06 -1.36201e-05 -2.25307e+06 -1.26751e-05 -2.829e+06)
(137143 -1.5545e+06 7.6478e-07 2.02975e+06 -3.68342e-06 650069)
(-429470 -2.50473e+06 2.84895e-06 1.52896e+06 -7.30007e-06 329846)
(218252 -2.30334e+06 -1.54124e-06 1.90793e+06 -3.81769e-06 637856)
(-4.98151e+06 -1.0579e+06 -1.43615e-06 1.83192e+06 6.58236e-06 -944879)
(-87852.7 -293799 3.60497e-06 3.44889e+06 3.18486e-06 1.00831e+06)
(6.9335e+06 -7.60046e+06 -1.42652e-05 -1.30459e+06 3.40965e-05 1.68867e+06)
(-657720 -2.06508e+06 9.1073e-07 2.07483e+06 -2.60831e-06 425134)
(9.99491e+06 -7.058e+06 1.712e-05 -5.80348e+06 4.05231e-06 1.25743e+06)
(-2.46085e+06 -1.03263e+06 -2.703e-06 2.81675e+06 7.04192e-06 106770)
(-565344 -415757 -5.02653e-06 3.23614e+06 6.56434e-06 801239)
(-8.84333e+06 -623234 -4.95647e-06 -197358 -1.13523e-05 -2.71221e+06)
(-323129 -795424 1.61713e-06 2.25603e+06 1.32085e-06 579870)
(-6.88832e+07 7.83878e+06 -0.000133626 -5.56297e+07 -0.000149105 -3.33875e+07)
(4.00927e+06 -4.52116e+06 9.41671e-06 964909 -1.54882e-05 1.49225e+06)
(-5.05093e+06 5.35546e+06 -2.06666e-06 -1.59331e+07 4.06289e-06 -6.2952e+06)
(-2.25198e+06 -2.57295e+06 -6.48019e-07 2.23738e+06 2.07833e-06 -4377.98)
(-1.07466e+06 -2.61048e+06 -3.7013e-06 2.59232e+06 8.57458e-08 455299)
(958066 -2.78988e+06 9.01389e-06 978763 7.43288e-06 581048)
(-4.55348e+07 207338 6.92296e-05 -5.81768e+06 -5.61807e-05 -1.2419e+07)
(9.91657e+06 -5.76874e+06 8.55269e-07 -281439 3.91658e-06 2.89054e+06)
(1.6774e+07 5.69954e+06 0.000108737 -1.35563e+06 -2.28266e-06 4.6255e+06)
(1.79176e+07 -2.13177e+06 0.000181848 -1.42446e+06 -3.43695e-06 4.94793e+06)
(4.83673e+07 -6.32573e+06 9.40044e-05 1.24978e+07 -5.44336e-05 1.82595e+07)
(-1.13902e+07 727159 -8.34836e-06 -2.17334e+06 -5.65968e-06 -4.06906e+06)
(-7.45862e+06 -1.20127e+06 -1.14834e-05 416357 -1.01029e-05 -2.11268e+06)
(1.39242e+07 -1.30024e+06 0.00016772 204632 2.80101e-05 4.23865e+06)
(-264011 -4.45695e+06 -3.43275e-06 2.41745e+06 1.06106e-06 646032)
(-5.31551e+06 -3.84911e+06 1.5821e-06 2.11786e+06 -4.26813e-07 -959296)
(-8.74394e+06 -1.74354e+06 -1.47702e-06 -294648 -6.18656e-06 -2.71158e+06)
(264960 -1.86362e+06 -5.72125e-07 1.39592e+06 -1.05157e-06 498265)
(457344 -1.68961e+06 -1.71054e-06 1.09707e+06 -8.01267e-07 466323)
(576294 -2.31478e+06 6.02775e-06 1.26059e+06 4.90721e-06 551065)
(197407 -2.14897e+06 -1.15301e-06 1.3775e+06 9.04892e-08 472472)
(-899117 -2.52113e+06 1.26685e-06 2.02031e+06 -6.8385e-06 336358)
(-1.83741e+06 -670659 -1.1676e-06 3.00466e+06 1.05866e-05 350175)
(-6.15969e+06 647200 2.7497e-06 -5.9797e+06 7.16662e-07 -3.64182e+06)
(-6.26649e+06 -6.26995e+06 -6.83047e-07 -1.10127e+06 -1.31793e-06 -2.21033e+06)
(-6.41747e+06 -2.76643e+06 3.7013e-06 1.60583e+06 -4.97079e-06 -1.44349e+06)
(-4.57796e+06 -2.72253e+06 1.08879e-06 1.34473e+06 3.23152e-06 -969968)
(2.43054e+07 316016 9.15838e-06 -4.11894e+06 4.04983e-05 6.05595e+06)
(190971 -3.67286e+06 2.13087e-06 1.90204e+06 -1.99295e-06 627902)
(2.72488e+06 -4.02124e+06 1.12966e-05 1.082e+06 -3.63781e-07 1.14206e+06)
(3.86835e+06 -3.09471e+06 1.25517e-05 872053 -6.68963e-06 1.42212e+06)
(9.9698e+06 -3.88561e+06 -3.46778e-06 958476 2.06009e-06 3.27848e+06)
(1.07805e+06 -1.43805e+06 -3.89103e-06 938637 -1.05559e-06 605005)
(-4.81911e+06 -52834.5 2.79057e-06 -2.9672e+06 -6.17643e-07 -2.3359e+06)
(2.57548e+07 5.05011e+06 0.000126797 243103 1.23941e-05 7.79937e+06)
(-959141 -1.25432e+06 -2.41694e-06 2.63926e+06 -7.01109e-07 504035)
(782388 -927932 -2.80225e-07 829092 2.85041e-06 483444)
(-2.30604e+06 -2.61826e+06 1.77476e-06 2.57576e+06 -1.71492e-08 80918)
(2.00726e+06 -3.68577e+06 2.52786e-06 1.48334e+06 2.64973e-06 1.04718e+06)
(954743 -3.65926e+06 -6.17078e-06 1.04104e+06 -1.01727e-06 598736)
(-6.29958e+06 -563389 1.22598e-06 382652 -1.80239e-06 -1.77508e+06)
(-2.59964e+06 -1.10052e+06 -2.48699e-06 2.38298e+06 8.02052e-06 -64997.6)
(2.17949e+06 -1.06704e+06 4.10996e-06 -159033 9.07592e-06 606138)
(1.3235e+06 -2.1246e+06 2.74095e-06 870748 3.50682e-06 658274)
(1.49055e+06 -1.65459e+06 -9.50428e-06 481043 -2.47021e-07 591477)
(-1.59369e+08 1.78624e+07 0.000835428 4.8699e+07 -0.00093963 4.4198e+07)
(-5.44653e+06 -41869.9 1.97325e-06 725633 2.34104e-06 -1.41627e+06)
(-6.43554e+06 302278 5.40016e-06 -977348 -1.69622e-06 -2.22387e+06)
(-9.08009e+07 -1.5828e+07 0.000206247 -2.18107e+07 -0.00013382 6.78679e+06)
(-1.1702e+07 2.94227e+06 -9.22406e-07 -1.80962e+06 7.56679e-06 -4.0535e+06)
(3.3374e+06 -3.06978e+06 1.1495e-05 653533 -8.30457e-07 1.19728e+06)
(3.98697e+06 -1.93398e+06 4.96231e-06 -99112.3 3.93044e-06 1.16636e+06)
(-3.23888e+06 -982326 -1.22014e-06 2.68209e+06 3.59722e-06 -167036)
(-3.29703e+06 -1.02212e+06 -2.83144e-06 2.46205e+06 5.28103e-06 -250493)
(-2.15064e+07 5.42925e+06 -1.75374e-05 -6.92383e+06 1.16913e-05 -8.52906e+06)
(-3.58046e+06 2.05885e+06 1.874e-05 -1.57397e+07 -3.92752e-06 -5.79606e+06)
(-83997.5 -1.32596e+06 -5.73877e-06 2.44407e+06 1.78461e-06 708023)
(1.75046e+06 -2.267e+06 -7.13113e-06 191706 1.51679e-06 582649)
(-1.6473e+06 556012 3.38721e-05 -1.0869e+07 2.79185e-06 -3.75488e+06)
(-1.90286e+06 -1.4434e+06 -3.01825e-06 2.49928e+06 1.45184e-06 178927)
(1.00591e+07 -4.33701e+06 2.15277e-05 550167 -4.57189e-07 3.18278e+06)
(6.58841e+06 -4.00235e+06 3.71735e-05 486271 -8.70083e-06 2.1224e+06)
(-248636 -2.00259e+06 7.47265e-07 2.11212e+06 -2.57748e-06 559045)
(-3.40422e+06 -2.2455e+06 3.09415e-06 2.12077e+06 3.17205e-06 -385035)
(-1.17726e+06 -1.80983e+06 -2.63878e-06 2.38667e+06 -3.53838e-06 362822)
(-9.62236e+06 -2.18377e+06 -9.76699e-06 -771894 6.5269e-06 -3.11828e+06)
(-6.03984e+06 3.42056e+06 -1.10338e-05 -1.16178e+07 7.11708e-06 -5.29728e+06)
(-5.5925e+06 -1.47981e+06 -2.13087e-06 1.42365e+06 3.70531e-06 -1.25065e+06)
(725851 -1.30896e+06 5.02653e-06 268566 -3.98955e-06 298325)
(-1.34166e+06 -1.35829e+06 -4.02823e-06 2.60788e+06 -5.46037e-06 379868)
(-4.67445e+06 -4.88745e+06 -2.68549e-07 1.03228e+06 6.4313e-06 -1.09265e+06)
(564899 -760629 8.11192e-06 -24617.7 -3.14158e-06 162084)
(4.57794e+06 -6.13896e+06 2.44613e-05 1.42454e+06 -7.16506e-06 1.80075e+06)
(-5.69534e+06 1.65122e+06 -2.66213e-06 -4.24569e+06 1.27615e-07 -2.98231e+06)
(4.52156e+07 1.19256e+07 -3.23747e-05 4.31183e+06 2.29841e-05 1.50525e+07)
(2.52082e+07 -807759 -0.000111529 -908001 3.25469e-07 7.29007e+06)
(729888 -5.05568e+06 6.19997e-06 1.01841e+06 2.48736e-06 524490)
(-7.19313e+06 2.29922e+06 2.80225e-06 -7.09701e+06 -5.64116e-06 -4.28704e+06)
(-121032 -244482 3.45026e-06 3.68425e+06 2.97903e-06 1.06897e+06)
(84489.5 -107284 -2.77889e-06 261959 3.07371e-06 103934)
(4.28576e+06 -2.05449e+06 1.48052e-05 528890 -5.39286e-07 1.44439e+06)
(-759494 -3.10795e+06 -2.86646e-06 1.91424e+06 7.09318e-07 346424)
(-1.38811e+07 9.96358e+06 -1.54882e-05 -1.28098e+07 -9.00221e-06 -8.00728e+06)
(-76147.7 -585375 5.02069e-07 603986 1.98711e-06 158352)
(54575.6 -304989 -4.37851e-07 916320 -4.09026e-07 291269)
(-62155.7 -335644 2.08417e-06 2.99066e+06 7.35589e-07 878553)
(99540.4 -578188 -1.51788e-06 3.25133e+06 -1.10849e-06 1.00526e+06)
(-215929 -567094 -6.99394e-06 3.23689e+06 2.99618e-06 906288)
(322916 -487826 -2.92484e-06 632579 9.11095e-07 286648)
(4.19688e+07 -2.01042e+07 -0.000185431 3.33631e+07 0.000449163 4.24378e+07)
(5.42526e+07 -1.27812e+07 -0.0002346 9.98529e+06 0.000310418 3.18788e+07)
(3.64606e+07 4.84547e+06 0.00012435 1.70671e+07 -1.26451e-05 1.60583e+07)
(3.72014e+07 5.71793e+06 9.1011e-05 1.25154e+07 -4.17418e-05 1.4915e+07)
(78841 -953702 -5.59865e-06 1.17435e+06 -9.11095e-07 375957)
(-3.69148e+06 -297444 5.77963e-07 2.46023e+06 3.93984e-06 -369375)
(837465 -1.99686e+06 5.24837e-06 895476 3.55571e-06 519882)
(602561 -1.70876e+06 -2.61251e-06 901591 -7.27197e-07 451246)
(2.8475e+06 -1.89354e+06 2.39358e-06 276529 5.78875e-06 937209)
(3037.18 -76061.3 -3.62541e-06 4.35401e+06 -3.10947e-06 1.30711e+06)
(78480.2 -45758.4 2.47532e-06 -15693 2.13927e-06 18836.2)
(5.60645e+06 -4.25225e+06 1.50796e-05 1.43552e+06 -9.33826e-06 2.11259e+06)
(-4.56641e+06 -989300 -1.50621e-06 2.1242e+06 3.80798e-06 -732662)
(-3.09842e+06 -1.68139e+06 -9.04892e-07 2.4898e+06 3.53163e-06 -182589)
(-134919 -277988 -8.72783e-06 3.51893e+06 -3.22733e-07 1.0152e+06)
(52962 -217492 4.49527e-07 301575 8.27173e-07 106361)
(-5.19264e+06 -375863 -1.92654e-07 1.29919e+06 2.2703e-06 -1.16804e+06)
(608994 -4.06399e+06 7.15156e-06 1.7228e+06 -3.69984e-07 699540)
(2.98571e+07 -6.98911e+06 -8.95697e-05 -9.34545e+06 5.20721e-05 6.15348e+06)
(-5.43097e+06 -166471 4.4544e-06 -1.28086e+06 -1.03703e-06 -2.01355e+06)
(-7.7434e+06 8.06908e+06 -7.25665e-06 -9.32417e+06 -1.71543e-05 -5.12027e+06)
(-4.43864e+06 -1.69951e+06 2.58624e-06 2.10512e+06 2.07997e-06 -700056)
(-171522 -254694 1.81562e-06 3.6822e+06 1.26575e-06 1.0532e+06)
(228030 -228766 -4.32597e-06 175887 2.21334e-06 121175)
(-1.66241e+06 -264475 -2.83144e-06 2.76416e+06 1.54374e-06 330523)
(-2.85659e+06 -1.75981e+06 1.2435e-06 2.6695e+06 7.08041e-07 -56126.7)
(5.09719e+06 -829760 -8.54101e-06 19214.3 7.58905e-06 1.53492e+06)
(1.76241e+06 -383346 5.97229e-06 8502.5 -7.00707e-06 531275)
(-9.07303e+06 6.14869e+06 -1.44608e-05 -9.98853e+06 -1.42674e-05 -5.71847e+06)
(2.73513e+07 -2.2946e+06 -6.16786e-05 447112 3.52576e-05 8.33953e+06)
(-1.24841e+07 3.44428e+06 4.25007e-06 -3.97159e+06 1.13549e-06 -4.9367e+06)
(1.74751e+07 553798 7.8881e-05 8.28718e+06 -8.87378e-07 7.72868e+06)
(-2.68899e+07 1.3282e+06 -0.000111103 -7.08458e+06 1.91771e-05 -1.01923e+07)
(-1.68062e+07 -2.11608e+06 -0.000130736 -1.07398e+06 -1.52518e-05 -5.36405e+06)
(2.33074e+06 -2.89574e+06 -5.30091e-06 800880 3.03394e-06 939485)
(8.03254e+06 -4.6786e+06 2.83786e-05 618942 -4.35862e-06 2.59545e+06)
(-117858 -1.52329e+06 3.84725e-06 1.41122e+06 -5.48043e-06 388010)
(116683 -3.28695e+06 9.26492e-06 1.33178e+06 -3.64511e-07 434538)
(2.99881e+06 -4.70997e+06 1.55758e-05 515458 3.24448e-06 1.05428e+06)
(-2.13939e+06 -3.10126e+06 -5.02069e-07 2.51165e+06 -3.61774e-06 111678)
(3.52638e+06 -5.17856e+06 -4.95647e-06 2.06782e+06 7.62955e-07 1.67826e+06)
(-1.02535e+06 -658735 1.17344e-06 2.73641e+06 1.61558e-06 513320)
(-130917 -470254 -2.34104e-06 3.22193e+06 -1.00806e-06 927304)
(6.40772e+06 -1.90376e+06 -6.96475e-06 800572 -1.0268e-05 2.16249e+06)
(2.30012e+07 6.47446e+06 0.000120987 -4.42301e+06 7.32379e-06 5.57346e+06)
(-884545 -1.76756e+06 -2.0433e-07 2.36096e+06 -3.11987e-06 442924)
(-6.74728e+06 135983 -4.44273e-06 -1.56757e+06 8.41586e-07 -2.49446e+06)
(-1.35326e+07 6.45337e+06 -2.13788e-05 -4.1503e+06 2.62565e-06 -5.30487e+06)
(-1.31877e+07 5.90557e+06 -8.79788e-06 -6.13389e+06 -5.94747e-06 -5.79647e+06)
(-6.05072e+06 -427421 -3.51448e-06 -188684 -1.17992e-06 -1.87182e+06)
(9.00614e+06 -1.87735e+06 -2.33929e-05 -466629 5.44103e-06 2.56185e+06)
(7.10152e+06 -4.85098e+06 1.69127e-05 1.72952e+06 -2.98468e-07 2.64931e+06)
(-1.11786e+06 -2.21499e+06 2.97155e-06 2.27715e+06 -1.02402e-06 347790)
(-626766 -1.60321e+06 1.76892e-06 2.37219e+06 -5.59464e-06 523626)
(786242 -339249 1.34274e-06 -69611.3 -5.39104e-06 214989)
(3.72217e+06 -5.41488e+06 1.92538e-05 1.03546e+06 -3.14596e-06 1.42729e+06)
(-966974 -284138 -9.983e-07 3.03011e+06 -1.36149e-06 618941)
(285682 -1.38195e+06 5.72125e-07 1.73808e+06 -4.85978e-06 607127)
(-1.82944e+07 1.31012e+07 -2.86296e-05 -1.51063e+07 2.21844e-07 -1.00202e+07)
(327776 -740771 -2.10168e-06 1.57381e+06 1.1811e-06 570475)
(-83412 -388386 -2.79641e-06 1.02674e+06 7.29751e-09 282998)
(3.24488e+07 5.34551e+06 2.8791e-06 -3.19167e+06 2.90195e-05 1.00787e+07)
(-3.99088e+06 -3.63617e+06 1.27852e-06 1.93919e+06 2.39322e-06 -615505)
(338327 -1.41481e+06 -1.30771e-06 1.23856e+06 -2.02871e-07 473067)
(202615 -1.77538e+06 -2.34104e-06 1.76669e+06 -3.46267e-06 590791)
(-6.74722e+06 270380 8.00391e-06 -471538 2.12345e-06 -2.16563e+06)
(-6.63007e+06 -309873 -8.75702e-07 -898827 -3.41947e-06 -2.25867e+06)
(3.18731e+06 -6.66385e+06 2.07425e-05 -2.47598e+06 -1.03333e-06 213400)
(-1.00383e+07 -5.79292e+06 -5.64127e-05 -447767 -1.48716e-05 -3.14581e+06)
(-1.04784e+08 1.76495e+07 0.000418065 6.91419e+07 -0.000861748 5.37228e+07)
(-215516 -2.50239e+06 2.42861e-06 2.1683e+06 -9.5882e-06 585834)
(-1.06033e+07 3.53918e+06 -1.49803e-05 -5.07396e+06 -1.12768e-05 -4.70317e+06)
(9.18431e+06 -4.79524e+06 -6.02424e-05 -731229 2.93154e-05 2.53592e+06)
(-9.6751e+06 1.06053e+06 -1.60545e-06 -2.80355e+06 -4.01655e-06 -3.74359e+06)
(-6.73021e+06 1.04353e+06 -1.36609e-06 -4.69013e+06 -7.62864e-07 -3.4261e+06)
(9.1898e+06 -3.11348e+06 9.00338e-05 -226019 1.02767e-05 2.68913e+06)
(-1.8831e+06 -2.23577e+06 1.83897e-06 2.74713e+06 3.48712e-06 259208)
(8.26794e+06 -1.07982e+06 -5.82225e-05 148938 -7.89992e-06 2.52507e+06)
(-2.51763e+06 -2.04154e+06 1.2435e-06 2.4227e+06 -2.94035e-06 -28479.2)
(-1.00391e+06 -2.27718e+06 1.17052e-06 2.39136e+06 -2.83016e-06 416234)
(-845803 -1.23991e+06 8.64026e-07 2.59563e+06 -1.03424e-06 524948)
(7.88268e+06 -4.04188e+06 2.43562e-05 902800 -1.20686e-05 2.63564e+06)
(-2.24619e+06 -264717 -1.03917e-06 2.60612e+06 7.60602e-06 107977)
(2.5547e+06 -468626 1.06456e-05 24289.7 8.39214e-07 773698)
(-6.64057e+06 -1.2623e+06 5.8205e-06 -301471 -6.23426e-06 -2.08261e+06)
(-7.2757e+06 -1.09508e+06 8.28998e-07 570554 -3.43633e-06 -2.01154e+06)
(-6.88269e+06 3.96868e+06 -7.47849e-06 -7.98038e+06 -1.00299e-05 -4.45892e+06)
(-3.6574e+06 -2.49726e+06 8.64026e-07 1.98898e+06 -3.38532e-06 -500525)
(-5.10856e+06 3.12918e+06 8.40674e-07 -6.09755e+06 -5.61179e-07 -3.36183e+06)
(-2.30558e+06 -4.77964e+06 -3.72465e-06 1.97301e+06 5.67893e-06 -99770.1)
(-1.13708e+06 -4.30444e+06 -9.154e-06 1.59522e+06 2.86537e-06 137441)
(-7.59299e+06 1.61256e+06 8.65193e-06 -3.5428e+06 -2.864e-06 -3.34074e+06)
(-1.52668e+06 -4.01076e+06 -7.95137e-06 2.4205e+06 9.78962e-07 268149)
(-3.81929e+06 -326135 -1.27269e-06 2.45631e+06 4.15238e-06 -408892)
(-1.339e+06 -1.87864e+06 1.4128e-06 2.4208e+06 -5.10644e-07 324542)
(3.29723e+07 905070 -0.000200663 -1.43278e+06 -3.87308e-05 9.46185e+06)
(281557 -1.13784e+06 -3.35686e-06 428851 1.95573e-06 213123)
(-2.26603e+06 -1.6151e+06 -9.92462e-07 2.58344e+06 1.13969e-06 95223.2)
(3.19276e+06 -1.06709e+07 -0.000206561 -6.03121e+06 0.000218065 2.85184e+07)
(1.14943e+07 -1.4503e+06 -4.60415e-05 456042 1.09306e-05 3.58511e+06)
(-6.22525e+06 1.74324e+06 1.22598e-06 -8.17336e+06 1.6029e-06 -4.31958e+06)
(-462509 -2.12137e+06 -3.38021e-06 1.58805e+06 -7.76456e-07 337663)
(7.85447e+06 -1.05091e+06 -5.92383e-05 720240 -2.3201e-05 2.57241e+06)
(2.58909e+07 -328257 -5.35842e-05 -1.37582e+06 1.71973e-05 7.35453e+06)
(-804485 -2.26492e+06 8.75702e-07 2.10548e+06 -4.71529e-06 390299)
(123176 -64826 5.66871e-06 4.1944e+06 -4.36505e-06 1.29527e+06)
(-66351.9 -24566.2 -2.60375e-06 -51572.6 -1.37193e-07 -35377.4)
(-3.89559e+06 -313868 3.09415e-07 2.43259e+06 1.47186e-06 -438899)
(-3.61264e+06 -3.469e+06 -2.56873e-06 2.37244e+06 -3.88593e-06 -372058)
(5.19943e+06 -3.31113e+06 -1.44549e-05 617284 -6.49734e-06 1.74501e+06)
(6.30245e+06 -773732 -2.35213e-05 38135.2 -2.19728e-06 1.90217e+06)
(2.80444e+07 3.3731e+06 3.80741e-05 -1.88452e+06 -2.01411e-05 7.84798e+06)
(-4.54147e+06 1.01341e+06 3.54367e-06 -5.60297e+06 8.57823e-07 -3.04333e+06)
(2.21314e+07 1.21847e+07 6.16852e-05 2.14135e+06 2.73861e-05 7.28181e+06)
(-196379 -3.65284e+06 4.93312e-06 1.81128e+06 -4.83095e-07 484469)
(-82027.9 -26216.2 -3.80638e-06 3.84315e+06 1.82666e-06 1.12834e+06)
(-6.5031e+06 586141 2.05498e-06 -3.42237e+06 -1.65443e-06 -2.97764e+06)
(-233135 -265318 4.50986e-06 3.54825e+06 1.40733e-06 994534)
(-79803.2 -337884 4.44273e-06 3.22348e+06 3.70987e-06 943104)
(99965.6 -322953 -7.58942e-08 911951 -1.90429e-06 303575)
(2.40272e+06 -3.41518e+06 -5.50525e-06 1.56599e+06 2.84567e-06 1.19061e+06)
(-5.49261e+07 1.56189e+07 -0.000244546 -5.65233e+06 -1.06346e-05 -1.06569e+07)
(35897.2 -20515.4 3.532e-06 -40048.1 -1.77731e-06 -1245.27)
(-2.42075e+06 -1.60516e+06 3.38605e-07 2.54937e+06 -2.0433e-08 38587)
(2.58526e+07 3.79987e+06 -2.23012e-06 -1.66182e+06 -1.31443e-05 7.25724e+06)
(-5.53468e+06 550660 2.03163e-06 -2.482e+06 3.40292e-07 -2.405e+06)
(175171 -140103 -3.25761e-06 259217 1.3723e-06 130316)
(-3.03208e+06 -2.24349e+06 3.63124e-06 2.61227e+06 1.25754e-06 -125944)
(-3.46109e+06 -3.48398e+06 -4.6529e-06 1.7466e+06 -3.77318e-06 -514348)
(1.55654e+07 7.99643e+06 1.77808e-05 -441289 1.72396e-05 4.53722e+06)
(-717818 -880380 1.39528e-06 2.6763e+06 -2.07432e-07 587544)
(-2.68748e+06 6.00271e+06 -3.88812e-06 -1.06476e+07 2.55121e-06 -4.00053e+06)
(-1.04709e+07 9.83179e+06 -1.51205e-06 -1.83302e+07 -1.25831e-05 -8.64033e+06)
(-3.5753e+06 354171 1.50037e-05 -7.72657e+06 -1.64741e-07 -3.39056e+06)
(101629 -982365 2.38775e-06 671063 3.0084e-06 231808)
(1.38637e+07 -2.5615e+07 0.000348912 8.29167e+07 0.000133425 7.76032e+07)
(-8.8378e+06 5.92222e+06 -1.63756e-05 -9.8584e+06 -1.20285e-05 -5.60886e+06)
(-3.56312e+06 -3.46695e+06 -2.71468e-06 1.60244e+06 3.35905e-06 -588205)
(1.11056e+06 -1.59176e+07 -3.22202e-05 -2.97258e+07 0.000101371 -8.28561e+06)
(-1.89479e+06 5.47071e+06 2.1929e-05 939890 -3.04744e-06 -286470)
(-112907 -938153 -5.48773e-07 2.86282e+06 8.88162e-06 824974)
(-317683 -1.79687e+06 4.37851e-07 1.9337e+06 -5.26151e-07 484806)
(-1.47913e+08 -7.05069e+06 0.00083562 -6.14338e+07 -0.000871959 -4.26333e+07)
(2.42822e+07 6.78947e+06 0.000163838 -7.31287e+06 4.07376e-05 5.0908e+06)
(3.18547e+07 1.01407e+07 0.00016406 -3.3114e+06 6.50646e-05 8.56299e+06)
(5.1549e+06 -1.03342e+06 -3.51594e-05 -410245 -1.63242e-05 1.4234e+06)
(-1.82613e+06 -1.92005e+06 2.13087e-06 2.39586e+06 -6.06752e-06 170917)
(-2.06624e+07 -3.85934e+06 -7.37282e-05 -5.67466e+06 -4.06712e-05 -7.90112e+06)
(-1.60271e+06 -254151 -4.25591e-06 2.76362e+06 -2.89803e-07 348271)
(1.6275e+06 -391591 -7.88132e-07 81338 -5.85735e-06 512651)
(8.11079e+06 -6.548e+06 -7.4001e-05 -5.25414e+06 4.61667e-05 3.7327e+06)
(617979 -1.25512e+06 -2.20677e-06 1.08686e+06 2.89055e-06 511453)
(-1.79858e+06 -1.50562e+06 -1.34858e-06 2.65905e+06 -1.28035e-06 258142)
(-347723 -175614 4.20921e-06 3.35507e+06 6.691e-06 902206)
(63783.6 -59946.4 1.40112e-07 133433 1.31282e-06 59165.1)
(1.56679e+07 -3.24552e+06 -1.59524e-05 1.30942e+06 -1.1822e-07 5.09319e+06)
(2.82541e+06 -2.04273e+06 4.66457e-06 -1422.59 2.6884e-06 847195)
(1.07805e+07 -4.49528e+06 7.16908e-06 -396212 1.09496e-05 3.11528e+06)
(5.61881e+06 -6.35102e+06 2.36356e-05 4.71445e+07 0.00017902 6.62981e+07)
(1.39943e+06 -2.28735e+06 3.4094e-06 682877 7.57993e-06 624693)
(-6.60286e+06 419878 -2.23596e-06 -1.33001e+06 -1.34584e-06 -2.37986e+06)
(6.33802e+06 -8.27743e+06 2.23479e-05 -4.3677e+06 -6.50486e-05 591095)
(2.81519e+07 1.19152e+07 0.000126661 6.54956e+06 -1.26685e-06 1.04104e+07)
(-2.70311e+06 -9.58458e+06 2.82326e-05 -6.53557e+06 -1.90954e-05 -2.77161e+06)
(1.41642e+06 -1.49916e+06 -1.31355e-06 700733 -4.17308e-06 635145)
(-65654.7 -122891 -2.63878e-06 4.15004e+06 -3.71717e-06 1.22532e+06)
(-89585.6 -38635.1 1.26685e-06 4.59525e+06 -3.55982e-06 1.3517e+06)
(-19200.4 -1871.47 -2.98322e-06 37767.9 -1.3234e-06 5570.24)
(20350.9 4208.47 -6.07153e-06 -32183.1 1.20628e-06 -3549.67)
(-2.43781e+06 -268458 -5.77963e-07 2.72888e+06 7.71885e-06 87320.4)
(3.13455e+06 -594467 2.34746e-05 228332 7.20776e-06 1.00886e+06)
(1.50586e+07 9.86822e+06 -6.01279e-06 7.4229e+06 1.14775e-05 6.74445e+06)
(-2.76925e+07 1.30037e+07 -0.000175893 -1.21095e+07 3.5879e-05 -1.19406e+07)
(-430449 -1.13306e+06 -3.26345e-06 2.10171e+06 4.20957e-06 501378)
(-7.33479e+06 876914 3.14669e-06 -3.50115e+06 2.05744e-06 -3.25078e+06)