/*--------------------------------*- C++ -*----------------------------------*\
| =========                 |                                                 |
| \\      /  F ield         | OpenFOAM: The Open Source CFD Toolbox           |
|  \\    /   O peration     | Version:  v2012                                 |
|   \\  /    A nd           | Website:  www.openfoam.com                      |
|    \\/     M anipulation  |                                                 |
\*---------------------------------------------------------------------------*/
FoamFile
{
    version     2.0;
    format      ascii;
    class       volScalarField;
    location    "15";
    object      sigmaEq;
}
// * * * * * * * * * * * * * * * * * * * * * * * * * * * * * * * * * * * * * //

dimensions      [1 -1 -2 0 0 0 0];


internalField   nonuniform List<scalar> 
7666
(
1.48422e+07
4.69346e+07
8.5201e+07
6.31007e+07
9.29072e+07
1.12622e+08
5.13945e+07
6.51171e+07
1.37403e+08
4.90526e+07
4.53996e+07
6.20651e+07
6.33221e+07
5.43195e+07
4.8233e+07
7.96756e+07
6.35002e+07
1.21117e+08
6.73454e+07
4.56861e+07
3.13123e+07
8.74443e+07
5.70222e+07
6.0695e+07
1.11222e+08
4.7652e+07
1.11652e+08
4.09806e+07
6.29783e+07
5.9462e+07
6.17225e+07
1.17833e+08
3.19634e+07
5.77493e+07
3.56221e+07
4.28079e+07
4.11844e+07
6.09519e+07
1.0943e+08
4.99842e+07
6.93586e+07
1.32041e+08
1.42816e+08
5.09388e+07
1.46185e+08
5.01818e+07
1.23765e+08
6.78423e+07
8.04073e+07
2.15563e+07
3.97323e+07
8.46643e+07
5.25225e+07
1.37234e+08
2.59006e+07
7.94879e+07
2.38083e+07
2.36352e+07
1.07974e+08
1.14695e+08
3.19512e+07
6.03295e+07
5.9312e+07
6.02274e+07
2.66226e+07
7.99872e+07
4.57129e+07
2.51065e+07
9.62647e+07
1.07183e+08
9.82871e+07
4.10176e+07
4.07353e+07
5.90807e+07
5.92838e+07
5.17342e+07
1.089e+08
5.45479e+07
5.5906e+07
3.42439e+07
5.40889e+07
4.35493e+07
6.46043e+07
1.41676e+08
6.57963e+07
7.96642e+07
7.98993e+07
8.76272e+07
7.66745e+07
6.0707e+07
5.64654e+07
5.62488e+07
8.64171e+07
1.1527e+08
1.38503e+08
8.50484e+07
4.23376e+07
8.07039e+07
6.72674e+07
4.53473e+07
8.75572e+07
5.96567e+07
3.70316e+07
1.24287e+08
5.18008e+07
1.0737e+08
1.4271e+08
9.46237e+07
5.11581e+07
8.53439e+07
5.62348e+07
8.775e+07
4.76934e+07
3.18454e+07
4.29007e+07
9.87707e+07
4.01361e+07
4.62606e+07
6.18175e+07
6.2101e+07
1.25747e+08
5.87607e+07
5.93272e+07
4.77881e+07
5.98047e+07
1.99159e+07
9.4215e+07
8.35132e+07
7.02047e+07
6.0115e+07
7.60244e+07
7.2722e+07
3.85599e+07
9.7232e+07
5.95044e+07
1.05515e+08
5.35361e+07
5.07504e+07
5.46433e+07
5.81179e+07
7.03475e+07
4.30432e+07
4.19896e+07
4.19415e+07
4.5603e+07
5.03466e+07
5.08125e+07
4.29116e+07
2.05341e+07
6.56858e+07
4.90609e+07
7.68523e+07
3.45787e+07
6.40952e+07
4.32341e+07
4.32985e+07
6.83791e+07
7.48079e+07
6.34956e+07
5.57047e+07
1.3032e+08
1.06987e+08
8.64839e+07
1.37951e+08
1.20353e+08
1.20169e+08
6.38275e+07
2.21328e+07
2.46927e+07
1.33162e+08
4.74388e+07
4.17752e+07
8.07568e+07
7.41263e+07
7.66762e+07
2.62492e+07
8.87984e+07
1.33057e+08
6.43706e+07
6.33247e+07
8.48205e+07
4.96479e+07
7.78989e+07
4.39186e+07
8.02118e+07
8.90106e+07
4.06865e+07
5.93431e+07
1.06725e+08
5.64486e+07
4.85323e+07
5.20858e+07
5.16343e+07
5.35504e+07
9.23031e+07
1.3137e+08
5.17062e+07
5.22862e+07
5.07467e+07
7.50705e+07
9.05108e+07
4.00875e+07
6.39024e+07
1.07375e+08
3.74163e+07
1.38746e+08
4.50323e+07
5.64597e+07
3.72814e+07
3.81926e+07
1.2218e+08
3.5931e+07
4.19396e+07
4.36397e+07
4.25449e+07
3.80972e+07
5.40979e+07
1.19718e+08
3.70235e+07
9.30671e+07
1.4589e+08
1.36717e+08
6.12157e+07
4.21004e+07
7.62019e+07
7.70099e+07
1.45541e+08
1.0545e+08
3.0545e+07
6.49379e+07
6.4114e+07
5.78417e+07
7.37484e+07
7.9695e+07
4.01746e+07
5.92124e+07
1.49886e+08
8.44159e+07
4.43425e+07
5.80062e+07
4.2918e+07
7.6396e+07
5.90476e+07
2.95259e+07
4.93797e+07
4.41374e+07
8.04582e+07
4.71867e+07
1.2679e+08
9.06936e+07
8.9658e+07
3.76112e+07
9.90128e+07
7.34509e+07
4.15147e+07
5.94391e+07
1.01118e+08
8.61349e+07
9.20312e+07
4.87158e+07
7.37348e+07
1.07403e+08
1.0774e+08
8.8552e+07
4.9037e+07
7.98526e+07
5.67911e+07
1.06591e+08
1.35578e+08
1.97905e+07
5.13791e+07
5.01026e+07
5.85723e+07
8.34225e+07
1.98562e+07
4.60542e+07
1.32319e+08
1.27036e+08
7.82276e+07
7.80625e+07
5.27553e+07
1.08528e+08
5.4398e+07
5.93053e+07
4.98112e+07
5.63394e+07
8.77789e+07
1.01376e+08
5.55753e+07
4.37471e+07
4.40689e+07
1.32124e+08
1.21191e+08
5.25132e+07
5.55695e+07
1.26615e+08
4.31344e+07
2.42648e+07
2.36489e+07
6.77321e+07
4.31625e+07
4.39033e+07
4.9694e+07
3.95066e+07
5.94154e+07
3.49743e+07
3.07774e+07
7.71252e+07
6.46051e+07
2.98269e+07
3.12429e+07
2.1948e+07
2.20369e+07
1.94802e+07
4.21966e+07
6.84153e+07
4.19431e+07
6.05841e+07
6.80605e+07
4.33341e+07
7.2651e+07
7.47897e+07
1.3665e+08
7.10727e+07
5.54679e+07
4.28064e+07
1.57475e+07
6.1893e+07
2.76897e+07
5.38018e+07
5.12254e+07
8.59442e+07
7.74216e+07
5.63575e+07
1.36392e+08
1.37649e+08
9.53591e+07
3.70602e+07
4.10392e+07
5.95091e+07
5.31574e+07
8.98295e+07
3.41505e+07
4.52469e+07
8.15944e+07
6.94225e+07
4.10861e+07
9.58929e+07
3.92225e+07
3.98918e+07
5.93645e+07
1.44873e+08
1.00605e+08
3.08654e+07
1.07605e+08
1.3855e+08
6.25888e+07
4.28617e+07
1.05874e+08
5.21666e+07
6.74949e+07
1.27906e+08
8.33929e+07
1.4418e+08
4.33246e+07
1.31092e+08
1.01277e+08
1.02612e+08
5.1033e+07
1.29875e+08
6.23511e+07
7.17791e+07
7.12834e+07
6.73772e+07
4.7436e+07
6.07678e+07
7.44329e+07
1.00338e+08
3.02703e+07
1.41265e+08
1.21132e+08
4.45375e+07
1.26216e+07
7.27931e+07
1.00707e+08
7.08036e+07
8.08138e+07
1.33159e+08
1.20236e+08
5.9775e+07
5.97889e+07
2.70667e+07
2.49735e+07
1.1653e+08
1.32361e+08
1.23042e+08
5.06593e+07
5.83236e+07
4.53275e+07
4.11464e+07
1.0939e+08
7.26207e+07
4.40423e+07
3.28407e+07
9.7838e+07
7.14558e+07
7.25032e+07
1.0143e+08
1.05889e+08
1.24358e+08
1.22418e+08
5.9586e+07
3.97503e+07
1.05339e+08
1.20439e+08
8.98638e+07
9.01209e+07
4.93452e+07
4.44978e+07
1.41753e+08
4.25116e+07
5.62189e+07
5.54103e+07
5.88936e+07
3.87021e+07
5.60385e+07
4.92527e+07
1.01688e+08
6.59837e+07
9.88366e+07
4.57554e+07
8.16664e+07
6.16113e+07
5.95494e+07
3.85188e+07
4.39063e+07
4.76564e+07
5.44735e+07
6.13307e+07
6.32158e+07
8.19852e+07
2.32553e+07
5.37099e+07
5.31492e+07
4.57344e+07
5.95565e+07
6.39937e+07
5.28404e+07
5.31789e+07
4.84642e+07
1.73407e+07
3.85398e+07
7.37725e+07
1.42774e+08
4.11656e+07
8.62917e+07
5.16083e+07
5.96466e+07
5.29773e+07
8.00084e+07
1.19084e+08
6.17687e+07
1.13379e+08
1.43501e+08
3.49822e+07
5.00123e+07
4.98534e+07
8.854e+07
8.49813e+07
3.96442e+07
7.99372e+07
5.20571e+07
5.21117e+07
1.04515e+08
1.14682e+08
8.51443e+07
4.29214e+07
7.85988e+07
4.06601e+07
5.03703e+07
3.88679e+07
9.00223e+07
6.51885e+07
4.06783e+07
6.45728e+07
4.09246e+07
5.16828e+07
6.62823e+07
1.32848e+08
6.08904e+07
5.68479e+07
5.68888e+07
5.95119e+07
3.8392e+07
4.8323e+07
1.14434e+08
1.31078e+08
1.33049e+08
4.85158e+07
3.37159e+07
4.70497e+07
4.98677e+07
1.43944e+08
4.17491e+07
5.23548e+07
3.07738e+07
4.31036e+07
1.15836e+08
2.13136e+07
4.27117e+07
3.90226e+07
1.03867e+08
1.07099e+08
4.146e+07
4.17633e+07
5.9783e+07
5.97584e+07
6.0767e+07
7.39442e+07
3.00475e+07
3.07166e+07
1.30018e+08
9.72068e+07
5.61362e+07
6.69264e+07
6.76426e+07
4.28451e+07
1.04729e+08
3.24781e+07
4.09387e+07
5.9219e+07
1.02752e+08
1.0165e+08
3.56972e+07
1.19277e+08
4.18436e+07
1.12217e+08
9.50662e+07
5.87115e+07
5.81583e+07
1.47638e+08
1.0204e+08
1.48479e+08
6.9793e+07
9.3463e+07
1.19997e+08
1.25049e+08
1.36199e+08
7.61353e+07
4.67642e+07
1.03274e+08
5.17485e+07
9.1947e+07
1.47217e+08
6.86525e+07
4.54527e+07
5.55921e+07
1.53848e+07
1.00634e+08
7.83418e+07
9.58892e+07
1.05605e+08
5.8154e+07
6.19719e+07
5.84268e+07
2.5254e+07
3.93081e+07
4.17843e+07
1.10537e+08
5.47593e+07
6.70302e+07
4.50718e+07
8.0921e+07
4.40776e+07
7.84167e+07
2.88384e+07
1.18572e+08
1.17179e+08
1.18916e+08
1.06394e+08
1.30267e+08
4.72839e+07
4.07132e+07
4.57422e+07
7.83003e+07
1.26367e+08
1.11908e+08
4.42047e+07
5.54458e+07
1.0008e+08
5.98026e+07
1.14177e+08
7.66648e+07
4.5359e+07
4.32013e+07
3.81043e+07
6.1057e+07
4.20092e+07
6.0122e+07
5.71618e+07
4.91492e+07
1.30572e+08
9.51154e+07
9.72922e+07
2.36288e+07
4.77864e+07
7.56637e+07
3.71711e+07
8.67906e+07
1.47406e+08
1.14262e+08
1.3585e+08
1.53656e+07
5.02473e+07
4.50606e+07
5.60357e+07
4.11086e+07
4.17099e+07
5.88586e+07
5.90427e+07
5.0957e+07
1.6788e+07
1.13931e+08
4.12975e+07
4.98613e+07
4.9526e+07
5.96944e+07
2.37939e+07
6.88063e+07
1.20488e+08
5.92677e+07
1.3291e+08
4.99116e+07
1.02874e+08
7.30183e+07
3.91401e+07
6.65104e+07
5.01534e+07
7.07932e+07
3.97373e+07
8.60479e+07
5.11891e+07
1.69583e+07
4.46796e+07
3.74282e+07
5.94127e+07
3.77174e+07
1.57831e+07
1.22029e+08
3.50223e+07
1.03662e+08
1.12882e+08
6.80903e+07
6.82316e+07
1.24228e+08
1.05848e+08
9.73883e+07
9.75196e+07
4.27426e+07
4.23616e+07
3.67944e+07
1.09603e+08
6.68143e+07
1.4662e+08
4.47624e+07
6.79e+07
1.39029e+07
1.32731e+08
1.25481e+08
6.65268e+07
3.49717e+07
1.95729e+07
4.64626e+07
3.54695e+07
8.60357e+07
1.04701e+08
6.15789e+07
4.65418e+07
1.09741e+08
4.50969e+07
1.12922e+08
9.5349e+07
1.2274e+08
6.25624e+07
6.98053e+07
7.93243e+07
3.22839e+07
8.3929e+07
1.2091e+08
1.20118e+08
1.27339e+08
4.83826e+07
2.97668e+07
6.88254e+07
5.01266e+07
1.04893e+08
1.07445e+08
1.04121e+08
1.08629e+08
1.26135e+08
4.54681e+07
1.01087e+08
1.07476e+08
9.12966e+07
6.65233e+07
9.53799e+07
1.17811e+08
2.45773e+07
6.14211e+07
1.11064e+08
3.81908e+07
8.75061e+07
1.18167e+08
9.16259e+07
7.35395e+07
3.8254e+07
6.60093e+07
4.01869e+07
6.06793e+07
9.39703e+07
1.23046e+08
8.04647e+07
3.95966e+07
5.92643e+07
3.30439e+07
1.3613e+08
4.2282e+07
1.30894e+08
1.17649e+08
4.26977e+07
7.08281e+07
6.58034e+07
4.04953e+07
7.6653e+07
7.62225e+07
1.41836e+08
8.61668e+07
5.75834e+07
1.18359e+08
8.12042e+07
1.38005e+08
5.60195e+07
1.2937e+08
1.40004e+08
5.86427e+07
6.95021e+07
4.26727e+07
9.91538e+07
1.31968e+08
5.56452e+07
5.11169e+07
5.94115e+07
5.94514e+07
4.95296e+07
3.41865e+07
5.73359e+07
1.04861e+08
1.04725e+08
1.05273e+08
3.48609e+07
1.09608e+08
4.55002e+07
9.469e+07
7.55912e+07
1.17653e+08
3.62295e+07
3.37805e+07
1.16105e+08
4.87053e+07
9.95779e+07
7.13337e+07
1.19442e+08
6.06853e+07
4.22307e+07
4.23529e+07
4.27805e+07
7.81661e+07
5.18514e+07
4.79544e+07
4.75913e+07
4.69656e+07
9.83784e+07
4.11849e+07
6.21114e+07
5.36674e+07
5.28732e+07
4.86165e+07
1.05808e+08
8.51001e+07
1.24036e+08
1.13699e+08
5.41912e+07
5.90033e+07
5.88648e+07
1.18528e+08
6.06453e+07
1.14454e+08
3.19673e+07
3.524e+07
3.53511e+07
3.18168e+07
6.22553e+07
7.06456e+07
1.46412e+08
3.28306e+07
1.00476e+08
5.36721e+07
8.58533e+07
3.90831e+07
4.85451e+07
3.18025e+07
8.93842e+07
7.42696e+07
1.33812e+08
4.90123e+07
8.30612e+07
4.36673e+07
3.96102e+07
2.94904e+07
2.89956e+07
1.44155e+08
4.17253e+07
1.01379e+08
2.41203e+07
5.79475e+07
6.87463e+07
6.03366e+07
2.54741e+07
3.30822e+07
1.10211e+08
4.93475e+07
5.61981e+07
7.92337e+07
2.57769e+07
4.00256e+07
8.32059e+07
4.23619e+07
5.73515e+07
5.7256e+07
8.05951e+07
6.1638e+07
8.06078e+07
1.17769e+08
6.4828e+07
9.77608e+07
7.02045e+07
8.90153e+07
5.60866e+07
5.39887e+07
6.00632e+07
3.49515e+07
4.74636e+07
7.61829e+07
6.53247e+07
4.10347e+07
9.86104e+07
7.49413e+07
1.25886e+08
5.79438e+07
5.62737e+07
5.48215e+07
6.10839e+07
8.27671e+07
8.0229e+07
8.13304e+07
9.87882e+07
1.09493e+08
5.84396e+07
1.04307e+08
1.15559e+08
1.0125e+08
5.35335e+07
4.27067e+07
4.3091e+07
5.50276e+07
5.10491e+07
4.9578e+07
5.37126e+07
5.32201e+07
1.92379e+07
1.84698e+07
4.97801e+07
4.79913e+07
5.20495e+07
1.81208e+07
4.34995e+07
4.67916e+07
3.2404e+07
4.31257e+07
7.56103e+07
7.49845e+07
4.93255e+07
7.44566e+07
3.88211e+07
6.5193e+07
4.66423e+07
6.46397e+07
6.94482e+07
6.3881e+07
6.98367e+07
1.41782e+08
7.32557e+07
3.74586e+07
1.29067e+08
7.86259e+07
5.55976e+07
4.23253e+07
2.30182e+07
4.58935e+07
9.27617e+07
9.16209e+07
9.48395e+07
9.23766e+07
5.88175e+07
6.82881e+07
1.27189e+07
4.58876e+07
8.3943e+07
6.26648e+07
6.18826e+07
4.26371e+07
9.47864e+07
8.18328e+07
4.64244e+07
5.82414e+07
6.71882e+07
6.76081e+07
1.3695e+08
1.03707e+08
3.28565e+07
5.07966e+07
9.7123e+07
1.3724e+08
2.82128e+07
2.99556e+07
8.45441e+07
4.23065e+07
8.53007e+07
1.21863e+08
5.59028e+07
6.85002e+07
1.22725e+08
1.24628e+08
1.25309e+08
4.86755e+07
5.86828e+07
4.45868e+07
4.57998e+07
2.1419e+07
6.12881e+07
9.79099e+07
3.8455e+07
7.20055e+07
9.22528e+07
5.93303e+07
6.39696e+07
9.55222e+07
8.91004e+07
1.04449e+08
1.02944e+08
1.26023e+08
5.99258e+07
1.47843e+08
4.22794e+07
5.26246e+07
5.70984e+07
4.17469e+07
4.16667e+07
7.13215e+07
5.71413e+07
7.26049e+07
4.81006e+07
8.50126e+07
4.69474e+07
4.69651e+07
4.78432e+07
3.90301e+07
9.26891e+07
9.77429e+07
9.6735e+07
1.25547e+08
6.26873e+07
5.27721e+07
6.52518e+07
4.84469e+07
8.94101e+07
6.46585e+07
1.09082e+08
1.03118e+08
6.554e+07
8.26079e+07
1.21648e+08
1.43888e+08
1.08853e+08
7.72554e+07
1.03778e+08
1.80693e+07
1.33794e+08
9.7397e+07
4.93938e+07
9.05819e+07
7.12054e+07
6.53894e+07
4.00627e+07
8.73273e+07
6.04698e+07
1.0959e+08
6.56731e+07
6.58353e+07
1.46225e+08
4.52118e+07
8.20756e+07
6.50407e+07
4.31606e+07
1.49224e+08
7.4168e+07
3.81929e+07
1.32443e+08
1.38737e+08
6.61955e+07
6.44883e+07
4.14508e+07
7.77043e+07
2.66904e+07
1.09315e+08
7.30657e+07
2.535e+07
5.11701e+07
4.96015e+07
1.29614e+08
6.46225e+07
1.05515e+08
3.25541e+07
1.08224e+08
4.64227e+07
5.12958e+07
1.18653e+08
8.61111e+07
4.44243e+07
5.82873e+07
1.34566e+08
5.42857e+07
3.66436e+07
6.74579e+07
4.15657e+07
6.12498e+07
5.22168e+07
6.99776e+07
4.21721e+07
6.23318e+07
6.33742e+07
7.3003e+07
7.48332e+07
7.47198e+07
1.32335e+08
5.65763e+07
1.37854e+08
7.77862e+07
6.07188e+07
4.84384e+07
5.93937e+07
1.40489e+08
4.44597e+07
9.551e+07
1.45954e+08
4.16578e+07
3.49628e+07
1.34693e+07
6.59597e+07
4.12967e+07
3.33282e+07
6.36087e+07
3.99839e+07
1.02261e+08
1.78302e+07
1.15172e+08
1.1068e+08
1.0972e+08
1.10019e+08
7.15521e+07
4.55174e+07
9.45736e+07
8.36374e+07
5.3926e+07
1.08123e+08
1.39329e+08
5.42327e+07
5.4431e+07
4.63572e+07
5.6645e+07
5.80484e+07
6.15566e+07
1.07207e+08
6.98474e+07
6.64801e+07
9.73602e+07
8.09445e+07
4.25674e+07
6.87602e+07
8.31967e+07
6.04286e+07
6.01155e+07
6.31946e+07
4.74055e+07
6.04248e+07
4.20891e+07
4.64189e+07
8.73161e+07
1.67612e+07
7.24523e+07
4.3544e+07
1.11004e+08
8.12144e+07
5.57911e+07
5.82764e+07
4.51003e+07
2.66587e+07
4.75692e+07
4.40938e+07
5.19249e+07
2.13944e+07
2.74153e+07
5.91367e+07
6.51297e+07
7.82407e+07
6.71393e+07
6.8292e+07
5.51323e+07
8.9835e+07
1.48183e+08
5.29934e+07
1.27482e+08
1.21668e+08
6.30159e+07
8.87901e+07
2.12247e+07
9.45207e+07
8.92954e+07
9.10509e+07
7.54564e+07
6.11359e+07
5.20104e+07
5.23889e+07
8.88278e+07
7.81831e+07
7.59868e+07
6.81636e+07
5.75612e+07
1.102e+08
5.42774e+07
1.07613e+08
1.45413e+08
9.03059e+07
5.22846e+07
3.06192e+07
6.59412e+07
6.22213e+07
8.07637e+07
6.11808e+07
9.21675e+07
9.43784e+07
1.07032e+08
4.60425e+07
7.61309e+07
6.62825e+07
8.61529e+07
1.38899e+08
6.13071e+07
5.59032e+07
5.65346e+07
4.14345e+07
5.85052e+07
8.78915e+07
9.83336e+07
4.70766e+07
4.38665e+07
4.63536e+07
3.99759e+07
5.62968e+07
8.55914e+07
6.34511e+07
4.85372e+07
4.85135e+07
7.91711e+07
4.33198e+07
1.38434e+08
5.17851e+07
5.19895e+07
1.80835e+07
9.89678e+07
1.34015e+08
1.73243e+07
1.37472e+08
5.31699e+07
1.13798e+08
1.17696e+08
5.97889e+07
7.2905e+07
3.57381e+07
6.13759e+07
7.80296e+07
3.06759e+07
9.0338e+07
5.87259e+07
5.27781e+07
1.95582e+07
8.94982e+07
6.90941e+07
7.44306e+07
3.86527e+07
8.2828e+07
5.63993e+07
4.68564e+07
1.40612e+08
8.31349e+07
3.54242e+07
3.62756e+07
1.23842e+08
4.56031e+07
4.52516e+07
1.11338e+08
4.1167e+07
6.44069e+07
6.45378e+07
7.47007e+07
4.7576e+07
5.20313e+07
6.75507e+07
1.13631e+08
6.30715e+07
9.90233e+07
1.26276e+08
9.66921e+07
6.19698e+07
8.16133e+07
1.25247e+08
6.34967e+07
2.27852e+07
5.58957e+07
8.8666e+07
8.34714e+07
8.49728e+07
4.28629e+07
1.18321e+08
1.11496e+08
4.39988e+07
1.37941e+08
9.65007e+07
5.16948e+07
1.22017e+08
1.35955e+08
1.31516e+08
8.30727e+07
4.30445e+07
9.1113e+07
9.04422e+07
1.3456e+08
4.23377e+07
9.78903e+07
5.82907e+07
2.94632e+07
1.05295e+08
5.94755e+07
5.63214e+07
1.49955e+07
6.01277e+07
5.97726e+07
1.14479e+08
7.70126e+07
4.59668e+07
4.47246e+07
4.50862e+07
6.60404e+07
1.06704e+08
4.5456e+07
6.63326e+07
3.95565e+07
7.77759e+07
1.23895e+08
1.09167e+08
1.08294e+08
1.82824e+07
1.91617e+07
1.12898e+08
1.32501e+08
4.26366e+07
2.42796e+07
1.67537e+07
4.47813e+07
1.90811e+07
6.38941e+07
5.35555e+07
9.76643e+07
5.17827e+07
1.21384e+08
2.03774e+07
6.5763e+07
2.32968e+07
4.97858e+07
1.30408e+08
1.29857e+08
1.05256e+08
5.42429e+07
8.92923e+07
1.36911e+08
1.22035e+08
7.53913e+07
7.25055e+07
4.17008e+07
2.9673e+07
8.91732e+07
2.82018e+07
5.93178e+07
7.1047e+07
9.81414e+07
4.87087e+07
4.95008e+07
8.03772e+07
8.15917e+07
7.10686e+07
8.72224e+07
7.49828e+07
8.38632e+07
7.75103e+07
6.68883e+07
9.89355e+07
9.67674e+07
9.50954e+07
9.75796e+07
1.10004e+08
1.23066e+08
1.03558e+08
4.49107e+07
3.34547e+07
1.0596e+08
9.65847e+07
1.05373e+08
9.35903e+07
4.83315e+07
1.39985e+08
4.70877e+07
6.09238e+07
1.65328e+07
5.56726e+07
9.73847e+07
1.14346e+08
2.43648e+07
8.34625e+07
3.98581e+07
2.23508e+07
2.1676e+07
1.0906e+08
4.29349e+07
7.71377e+07
1.01886e+08
1.49526e+08
5.32363e+07
1.00438e+08
7.51035e+07
5.33944e+07
6.93075e+07
1.24914e+08
5.62603e+07
6.91447e+07
5.54827e+07
4.67873e+07
2.48013e+07
1.12958e+08
3.95135e+07
7.04787e+07
3.97549e+07
6.99099e+07
4.02946e+07
6.9207e+07
6.97821e+07
4.21533e+07
2.41313e+07
3.66937e+07
5.63584e+07
4.13962e+07
4.09843e+07
6.50958e+07
2.26489e+07
3.10126e+07
7.50743e+07
4.92367e+07
2.25119e+07
5.1285e+07
1.42805e+08
5.41444e+07
1.0768e+08
5.59993e+07
1.10674e+08
1.2281e+08
5.12055e+07
1.46735e+08
1.39313e+08
5.78352e+07
1.09902e+08
6.68531e+07
1.28464e+08
1.43212e+08
5.71125e+07
6.33923e+07
6.1769e+07
4.66752e+07
3.37892e+07
1.42843e+08
1.37829e+08
1.08328e+08
3.98383e+07
1.03685e+08
5.35772e+07
4.30628e+07
4.66818e+07
5.22176e+07
9.02615e+07
5.49422e+07
5.99065e+07
1.01408e+08
1.0129e+08
5.8139e+07
5.81179e+07
1.183e+08
9.75401e+07
1.25875e+08
6.78707e+07
1.64231e+07
3.84426e+07
5.31944e+07
7.91356e+07
7.86422e+07
4.37465e+07
4.93386e+07
4.95781e+07
7.38919e+07
4.74047e+07
4.89916e+07
4.86914e+07
7.82722e+07
4.93551e+07
3.49812e+07
6.55288e+07
8.51843e+07
5.76762e+07
5.70213e+07
7.4932e+07
3.47523e+07
5.79484e+07
5.82855e+07
1.12869e+08
6.04861e+07
4.20061e+07
5.24815e+07
2.75801e+07
3.38498e+07
5.59781e+07
6.9327e+07
1.11193e+08
8.40731e+07
3.34611e+07
1.4502e+08
8.90525e+07
6.78211e+07
4.22527e+07
6.76256e+07
4.19548e+07
5.26567e+07
4.89624e+07
1.10922e+08
7.36153e+07
3.56995e+07
7.34212e+07
8.95049e+07
1.25235e+08
9.12662e+07
1.10129e+08
1.12244e+08
1.08106e+08
4.93453e+07
2.90819e+07
6.52554e+07
1.31489e+08
1.26145e+08
8.29301e+07
1.15642e+08
2.67838e+07
5.72964e+07
5.12498e+07
5.12889e+07
3.56799e+07
5.17885e+07
4.32424e+07
1.26605e+08
7.84134e+07
6.39936e+07
6.5542e+07
1.00279e+08
4.42279e+07
5.53835e+07
6.77267e+07
4.15316e+07
1.44914e+08
1.27749e+08
5.85689e+07
2.0928e+07
1.12238e+08
1.06562e+08
7.74518e+07
1.35232e+08
2.59722e+07
1.35084e+08
1.11342e+08
4.58363e+07
7.94407e+07
6.14293e+07
1.14442e+08
3.53587e+07
3.61493e+07
1.19457e+08
5.844e+07
5.91002e+07
1.34308e+08
2.83181e+07
6.15296e+07
1.18408e+08
3.72016e+07
1.15417e+08
4.78685e+07
5.21529e+07
1.24115e+08
5.93068e+07
1.59145e+07
5.58509e+07
2.28112e+07
5.17638e+07
5.15774e+07
4.93061e+07
3.77321e+07
1.03799e+08
5.58848e+07
3.21879e+07
1.00996e+08
1.03968e+08
7.19257e+07
7.4313e+07
2.82901e+07
2.90301e+07
1.46564e+08
1.12178e+08
1.31194e+08
7.06956e+07
4.28216e+07
1.0552e+08
4.49366e+07
1.78129e+07
4.25921e+07
6.8007e+07
3.93217e+07
1.061e+08
5.57938e+07
6.15585e+07
6.42706e+07
8.52724e+07
1.29361e+08
1.11943e+08
4.40442e+07
8.14051e+07
6.57569e+07
4.02772e+07
1.23975e+08
6.56481e+07
4.74438e+07
7.66724e+07
4.89021e+07
8.49233e+07
8.40679e+07
1.39127e+08
3.35669e+07
4.63619e+07
4.605e+07
6.04087e+07
8.69865e+07
4.42368e+07
5.87421e+07
6.67559e+07
3.92268e+07
1.02983e+08
3.41573e+07
5.84939e+07
1.32491e+08
6.44719e+07
4.08053e+07
9.26915e+07
9.93269e+07
3.34868e+07
6.53487e+07
8.88206e+07
6.65059e+07
1.16443e+08
9.78227e+07
5.85782e+07
6.04639e+07
2.68726e+07
4.87131e+07
1.10995e+08
7.27954e+07
7.39605e+07
1.28801e+08
2.68807e+07
1.2269e+08
4.04528e+07
1.43668e+08
7.67305e+07
1.42576e+08
7.24933e+07
5.85893e+07
3.48178e+07
8.38989e+07
1.28386e+08
5.00238e+07
1.24488e+08
5.9638e+07
9.50815e+07
7.22585e+07
5.63603e+07
5.40635e+07
5.35916e+07
4.17558e+07
6.26104e+07
1.17105e+08
8.44417e+07
6.55514e+07
4.29676e+07
5.30792e+07
5.86734e+07
1.30767e+08
8.05273e+07
1.07569e+08
1.05853e+08
8.17773e+07
5.11683e+07
5.27084e+07
4.4126e+07
4.54109e+07
4.53157e+07
5.23592e+07
9.72029e+07
5.32977e+07
1.21079e+08
1.13933e+08
1.06042e+08
4.76187e+07
4.75781e+07
1.10029e+08
6.57594e+07
3.96891e+07
9.83117e+07
7.23656e+07
5.27582e+07
1.05992e+08
5.68523e+07
5.27851e+07
8.98695e+07
1.13501e+08
1.12064e+08
8.49192e+07
8.46533e+07
1.34513e+08
6.75936e+07
1.02855e+08
9.09251e+07
1.31646e+08
7.60627e+07
7.61007e+07
6.73299e+07
4.37827e+07
9.12647e+07
5.63685e+07
4.08775e+07
4.0671e+07
6.37844e+07
9.98275e+07
5.84873e+07
4.22486e+07
5.03593e+07
4.56344e+07
8.49648e+07
7.89769e+07
9.81362e+07
3.05072e+07
2.92831e+07
7.45624e+07
4.11709e+07
5.9442e+07
1.16774e+08
6.00324e+07
3.87027e+07
4.64951e+07
4.95799e+07
6.06092e+07
7.49629e+07
5.26238e+07
8.10504e+07
2.9372e+07
8.58062e+07
1.19544e+08
9.09745e+07
4.16869e+07
3.89966e+07
5.95076e+07
1.15905e+08
5.76068e+07
1.28977e+08
6.40852e+07
6.28611e+07
8.26919e+07
9.90923e+07
5.93447e+07
1.75892e+07
2.4031e+07
1.01354e+08
4.04631e+07
5.88492e+07
4.82899e+07
5.40734e+07
9.80789e+07
5.54915e+07
5.47951e+07
6.71085e+07
4.29177e+07
2.29802e+07
5.99248e+07
1.36257e+08
6.36417e+07
1.27888e+08
4.78673e+07
4.32607e+07
1.00802e+08
9.05682e+07
6.81253e+07
6.89006e+07
1.02757e+08
1.35984e+08
9.15863e+07
8.58205e+07
9.67432e+07
4.15237e+07
6.64793e+07
6.0552e+07
4.44529e+07
5.19662e+07
1.01554e+08
8.61323e+07
8.03406e+07
3.87274e+07
4.56563e+07
4.71194e+07
1.06199e+08
7.89421e+07
7.82081e+07
6.37196e+07
4.26313e+07
3.61384e+07
3.61261e+07
5.14183e+07
3.35739e+07
3.12907e+07
5.27762e+07
6.65215e+07
8.29463e+07
1.19037e+08
2.80722e+07
5.22046e+07
2.76561e+07
1.80074e+07
3.9956e+07
8.59354e+07
1.35062e+08
7.35398e+07
8.11998e+07
5.19622e+07
8.60374e+07
3.99358e+07
3.55685e+07
1.09725e+08
1.94555e+07
4.92627e+07
4.57468e+07
1.25126e+08
9.03138e+07
6.2358e+07
1.09776e+08
3.40301e+07
4.78484e+07
5.07933e+07
1.13775e+08
8.87832e+07
7.67888e+07
1.25627e+08
1.27943e+08
3.99938e+07
5.9074e+07
1.0763e+08
8.43136e+07
3.40345e+07
1.18942e+08
6.90562e+07
4.4849e+07
5.13695e+07
3.11168e+07
6.18758e+07
4.74102e+07
1.38445e+08
5.60414e+07
5.52399e+07
3.65699e+07
3.7012e+07
5.49472e+07
4.58965e+07
4.55243e+07
4.60639e+07
1.1544e+08
1.08662e+08
1.13555e+08
5.8079e+07
7.29578e+07
1.07057e+08
1.05193e+08
1.03961e+08
8.51798e+07
3.34509e+07
3.47193e+07
9.46046e+07
1.29101e+08
8.57048e+07
6.65789e+07
4.04545e+07
6.78689e+07
8.2004e+07
1.18029e+08
1.2278e+08
1.0426e+08
1.03649e+08
1.16823e+08
1.06352e+08
3.28229e+07
5.97604e+07
8.57204e+07
1.27806e+08
5.86011e+07
1.16085e+08
5.22965e+07
4.45619e+07
4.40616e+07
4.28431e+07
4.21493e+07
1.0353e+08
9.14318e+07
9.24447e+07
4.74226e+07
7.87699e+07
8.09911e+07
4.59599e+07
8.95043e+07
1.34808e+08
5.66581e+07
4.85589e+07
6.81797e+07
4.07049e+07
5.04613e+07
4.71704e+07
7.6757e+07
8.1344e+07
6.30674e+07
1.08097e+08
6.27565e+07
5.99667e+07
3.99276e+07
8.31052e+07
1.13325e+08
3.83027e+07
3.83204e+07
5.94119e+07
5.93756e+07
6.24434e+07
9.37664e+07
1.34613e+08
1.01472e+08
2.1799e+07
5.1424e+07
5.07955e+07
8.02672e+07
9.30953e+07
1.46356e+08
4.82759e+07
1.11809e+08
7.3199e+07
8.41066e+07
7.47579e+07
1.03354e+08
5.0523e+07
5.30192e+07
5.29163e+07
9.31441e+07
4.27336e+07
4.30155e+07
9.34464e+07
4.79886e+07
9.76327e+07
1.59688e+07
4.34634e+07
8.02906e+07
9.22948e+07
7.05554e+07
4.96247e+07
5.92838e+07
1.01539e+08
7.96942e+07
4.83454e+07
6.73817e+07
1.0139e+08
5.61714e+07
1.69326e+07
5.22261e+07
7.69042e+07
3.10379e+07
9.61317e+07
4.71336e+07
4.27185e+07
3.7348e+07
7.15254e+07
1.17088e+08
1.34917e+08
9.98382e+07
6.10359e+07
4.19348e+07
8.06231e+07
6.3798e+07
5.75287e+07
4.28573e+07
9.26696e+07
9.44664e+07
5.45913e+07
2.36673e+07
5.06709e+07
8.10956e+07
8.05228e+07
9.65066e+07
1.27235e+08
6.18672e+07
6.16302e+07
3.2417e+07
1.27177e+08
6.25595e+07
1.37052e+08
5.89651e+07
5.7637e+07
5.7626e+07
1.31474e+08
6.06536e+07
6.31807e+07
1.19363e+08
1.24767e+08
6.76285e+07
4.56928e+07
1.12259e+08
1.17038e+08
3.16254e+07
7.34104e+07
6.89369e+07
4.01749e+07
5.29004e+07
1.30135e+08
6.42579e+07
4.17269e+07
1.43732e+08
7.18395e+07
3.96732e+07
6.66297e+07
6.59176e+07
3.1192e+07
9.05313e+07
3.89553e+07
6.62963e+07
7.03685e+07
4.24405e+07
4.20832e+07
5.81289e+07
6.51551e+07
2.9017e+07
7.52095e+07
7.05991e+07
6.91362e+07
9.5446e+07
4.55636e+07
1.2729e+08
9.27243e+07
6.07213e+07
4.31366e+07
9.73919e+07
5.86147e+07
5.96197e+07
1.31289e+08
8.26518e+07
7.09032e+07
7.40619e+07
2.8225e+07
4.00901e+07
5.92985e+07
7.79272e+07
8.20527e+07
8.62037e+07
4.88466e+07
8.14848e+07
1.24351e+08
9.84178e+07
1.09543e+08
6.59309e+07
6.22067e+07
7.88526e+07
6.80699e+07
6.21018e+07
6.36092e+07
1.40221e+08
6.45229e+07
1.22603e+08
7.073e+07
3.73381e+07
6.01479e+07
4.10972e+07
1.37636e+08
7.88499e+07
4.6169e+07
7.05971e+07
8.22816e+07
5.63235e+07
8.21787e+07
1.2886e+08
6.33509e+07
8.20382e+07
8.40604e+07
4.19348e+07
3.41473e+07
6.50451e+07
1.28899e+08
5.78534e+07
7.43477e+07
3.12784e+07
8.35289e+07
1.03427e+08
4.96177e+07
9.72901e+07
5.94976e+07
8.61369e+07
6.02637e+07
8.13428e+07
8.81602e+07
6.52521e+07
4.07535e+07
6.55965e+07
5.2207e+07
3.37481e+07
1.09016e+08
9.11103e+07
5.82088e+07
2.97043e+07
7.43779e+07
4.73517e+07
1.40835e+08
9.0365e+07
1.39682e+08
8.71042e+07
9.39004e+07
4.81707e+07
9.98893e+07
5.96767e+07
6.59755e+07
7.12642e+07
8.58199e+07
1.12286e+08
4.23823e+07
5.04804e+07
6.10328e+07
4.1895e+07
4.60244e+07
1.31476e+08
5.53401e+07
5.29613e+07
3.69871e+07
7.06533e+07
4.78653e+07
5.48757e+07
1.32406e+08
4.97424e+07
8.1097e+07
5.78986e+07
5.01081e+07
7.45011e+07
1.02741e+08
3.75154e+07
1.35026e+08
8.55563e+07
7.40234e+07
5.41642e+07
8.95593e+07
5.15529e+07
3.92197e+07
5.94371e+07
3.8214e+07
5.94599e+07
1.0467e+08
4.61613e+07
1.01312e+08
8.20813e+07
5.73294e+07
5.35769e+07
1.21981e+08
7.19381e+07
1.00285e+08
5.07862e+07
6.1214e+07
5.11745e+07
7.1595e+07
4.09043e+07
5.20518e+07
7.29601e+07
3.85631e+07
8.63341e+07
7.13193e+07
7.3842e+07
3.88193e+07
5.14673e+07
4.81706e+07
1.15736e+08
1.06551e+08
1.14548e+08
1.24096e+08
4.69648e+07
9.50968e+07
1.21974e+08
5.85053e+07
5.80447e+07
6.18529e+07
6.1747e+07
7.91445e+07
6.45844e+07
5.19065e+07
1.15456e+08
5.68e+07
4.6536e+07
7.5434e+07
7.20771e+07
3.8301e+07
5.15653e+07
4.49589e+07
4.42508e+07
1.3191e+08
8.37144e+07
1.29735e+08
6.01149e+07
2.67837e+07
2.58218e+07
4.71038e+07
6.27387e+07
6.65642e+07
5.18409e+07
1.29153e+08
5.14373e+07
1.36596e+08
5.25291e+07
5.98671e+07
3.20385e+07
1.24658e+08
5.443e+07
2.72449e+07
7.83795e+07
8.00766e+07
1.25771e+08
1.38765e+08
8.14055e+07
8.31376e+07
2.9083e+07
3.16334e+07
1.36934e+08
1.08458e+08
1.26381e+08
6.92084e+07
4.00325e+07
5.92943e+07
8.60126e+07
5.16802e+07
5.766e+07
5.67691e+07
6.85606e+07
3.07398e+07
1.39503e+08
4.3757e+07
1.21466e+08
1.30431e+08
6.27566e+07
4.54801e+07
4.49445e+07
6.77404e+07
3.8874e+07
5.89614e+07
1.01813e+08
1.03952e+08
7.5762e+07
2.57622e+07
7.86579e+07
4.88985e+07
9.47538e+07
6.57737e+07
4.88335e+07
4.90046e+07
1.03447e+08
7.42741e+07
7.37391e+07
9.57898e+07
4.46906e+07
7.40351e+07
5.3043e+07
8.53988e+07
9.47943e+07
6.35274e+07
6.75229e+07
7.701e+07
5.20769e+07
6.63538e+07
6.71875e+07
8.39333e+07
4.42101e+07
8.48542e+07
1.11098e+08
6.77012e+07
6.89411e+07
1.16548e+08
5.60583e+07
1.34502e+08
6.15646e+07
6.48179e+07
1.3527e+08
1.3167e+07
5.53591e+07
2.51217e+07
4.20269e+07
3.1285e+07
3.708e+07
2.45561e+07
6.58602e+07
4.01034e+07
4.19451e+07
1.18864e+08
5.72117e+07
1.20399e+08
6.96217e+07
3.86379e+07
8.21777e+07
7.14712e+07
7.20457e+07
7.17358e+07
8.67843e+07
6.91596e+07
1.06298e+08
1.18904e+08
8.42391e+07
6.04335e+07
2.23978e+07
6.28228e+07
5.49583e+07
1.19972e+08
3.71596e+07
1.23321e+08
4.48402e+07
6.37761e+07
6.30905e+07
1.09835e+08
1.09684e+08
1.0963e+08
2.14135e+07
4.77868e+07
5.26058e+07
7.90826e+07
8.15e+07
1.01172e+08
5.61091e+07
5.60097e+07
5.5933e+07
6.03415e+07
1.29238e+08
3.10887e+07
1.04838e+08
5.25423e+07
5.27786e+07
2.8342e+07
9.22865e+07
4.22935e+07
4.19233e+07
6.35582e+07
5.95284e+07
7.56987e+07
8.00059e+07
5.12158e+07
5.38149e+07
3.33451e+07
5.69898e+07
1.25252e+08
6.98401e+07
4.40622e+07
6.57085e+07
6.55825e+07
5.12494e+07
5.05558e+07
8.21774e+07
5.62121e+07
1.21144e+08
1.10665e+08
7.54742e+07
5.98637e+07
5.12685e+07
5.49315e+07
5.07981e+07
4.47223e+07
6.41186e+07
8.51699e+07
7.24377e+07
7.97106e+07
7.39573e+07
7.2788e+07
5.19628e+07
5.7113e+07
4.51183e+07
1.44913e+08
7.7236e+07
8.77542e+07
1.57666e+07
1.17187e+08
3.28951e+07
4.97327e+07
6.87748e+07
3.88915e+07
7.06986e+07
3.75592e+07
1.10173e+08
5.90252e+07
7.22174e+07
9.63056e+07
6.79632e+07
6.36373e+07
1.09195e+08
1.28914e+08
5.97714e+07
2.16631e+07
1.00567e+08
6.53742e+07
1.14941e+08
7.67494e+07
5.29029e+07
9.90804e+07
7.29609e+07
7.32247e+07
3.88332e+07
5.8711e+07
1.16176e+08
1.3904e+08
5.40304e+07
2.88015e+07
1.14284e+08
6.36621e+07
2.42531e+07
8.53933e+07
3.17538e+07
6.92451e+07
3.91107e+07
6.26161e+07
9.59141e+07
5.14722e+07
6.30823e+07
1.19635e+08
7.3334e+07
4.70867e+07
6.11703e+07
5.46432e+07
1.30404e+08
1.15637e+08
6.80767e+07
1.36976e+08
7.70963e+07
5.4764e+07
3.30736e+07
7.6122e+07
8.43231e+07
1.18471e+08
1.05905e+08
1.39219e+08
1.31244e+08
9.31295e+07
5.02646e+07
5.96924e+07
4.35116e+07
5.85136e+07
4.47551e+07
4.50936e+07
1.71721e+07
7.1405e+07
4.10215e+07
1.23429e+08
1.10386e+08
1.10061e+08
1.39938e+08
1.01834e+08
4.58082e+07
6.03732e+07
7.2512e+07
4.84279e+07
4.01944e+07
5.91328e+07
6.02581e+07
7.04162e+07
1.40282e+08
6.7786e+07
3.86941e+07
7.06424e+07
3.49764e+07
9.03744e+07
5.92378e+07
3.99808e+07
1.0255e+08
2.7752e+07
4.09602e+07
6.83751e+07
6.41261e+07
4.21299e+07
3.73777e+07
1.26158e+08
4.05665e+07
5.94896e+07
5.02466e+07
7.53726e+07
9.5029e+07
6.80689e+07
4.77977e+07
5.44188e+07
8.98625e+07
1.06754e+08
6.42559e+07
3.42205e+07
5.51661e+07
4.68497e+07