/*--------------------------------*- C++ -*----------------------------------*\
| =========                 |                                                 |
| \\      /  F ield         | OpenFOAM: The Open Source CFD Toolbox           |
|  \\    /   O peration     | Version:  v2012                                 |
|   \\  /    A nd           | Website:  www.openfoam.com                      |
|    \\/     M anipulation  |                                                 |
\*---------------------------------------------------------------------------*/
FoamFile
{
    version     2.0;
    format      ascii;
    class       pointScalarField;
    location    "14";
    object      pEpsilonEq;
}
// * * * * * * * * * * * * * * * * * * * * * * * * * * * * * * * * * * * * * //

dimensions      [0 0 0 0 0 0 0];


internalField   nonuniform List<scalar> 
7900
(
0.00161894
0.00057857
0.000882384
0.000457256
0.0107716
0.00161894
0.00057857
0.000882384
0.000457256
0.0107716
0.00134358
0.00106901
0.000890566
0.000713734
0.000578597
0.000483384
0.000409265
0.000354784
0.000306648
0.000269052
0.00023481
0.000225674
0.00021366
0.000207003
0.000211298
0.000211203
0.000217224
0.00022687
0.00023555
0.000249609
0.000265848
0.000277004
0.000293478
0.00030664
0.000324521
0.000338547
0.000354466
0.000372409
0.000387266
0.000405295
0.000418975
0.000435545
0.00045259
0.000467067
0.000483097
0.00049716
0.000509758
0.000523183
0.000536838
0.000550524
0.000562636
0.000573869
0.00058282
0.000593371
0.000603549
0.000611246
0.000616727
0.000623598
0.000627917
0.000630541
0.000632824
0.000634102
0.000632555
0.00063046
0.000625411
0.000620725
0.00061056
0.000598512
0.000588075
0.000577633
0.000571696
0.000585569
0.000583846
0.000589944
0.000594502
0.000598902
0.000605942
0.000614998
0.000621278
0.000631801
0.000641834
0.000649696
0.000663758
0.000676133
0.000684893
0.000698848
0.000714723
0.000724826
0.000740801
0.000752877
0.000765027
0.000781386
0.000795282
0.000804654
0.000819133
0.000831055
0.000839258
0.000850181
0.000859055
0.000867554
0.00087253
0.000879412
0.000882262
0.000884676
0.000886287
0.00088474
0.000885508
0.000883582
0.000881057
0.000879479
0.000879213
0.00087786
0.000879084
0.000880988
0.000885909
0.000890001
0.000899656
0.000907036
0.000918928
0.00092818
0.000943104
0.00095393
0.000969595
0.000989232
0.00100743
0.00102206
0.00104306
0.0010632
0.00108735
0.00111046
0.00113303
0.00115611
0.00118491
0.00120605
0.00123748
0.00125943
0.0012928
0.00131788
0.00135163
0.00137588
0.00141667
0.00144297
0.00147867
0.00150423
0.0015432
0.00157001
0.00161203
0.00164379
0.00166747
0.00171122
0.00173427
0.00176433
0.00180323
0.00182823
0.00184582
0.00188183
0.00189506
0.00192653
0.00196261
0.00201823
0.00205853
0.00205845
0.00205849
0.00202289
0.00206583
0.0021031
0.00199694
0.00198401
0.00197244
0.00193824
0.00190089
0.0018509
0.00178997
0.00172247
0.00161895
0.00153567
0.00140555
0.00127147
0.00116821
0.00105426
0.000899084
0.000812872
0.000731429
0.000585196
0.000551462
0.000462874
0.00041707
0.000665652
0.000832495
0.00100515
0.00116458
0.00131704
0.00143747
0.00154474
0.00163692
0.00181063
0.00202306
0.00234683
0.00294198
0.00383329
0.00508687
0.0064857
0.00799523
0.0093089
0.0102152
0.0101372
0.0120371
0.011353
0.00987339
0.0086304
0.00818846
0.00686987
0.00453552
0.00290963
0.0017345
0.00126723
0.00114188
0.000976937
0.000781171
0.000606138
0.000435107
0.000242638
0.00018926
0.000222464
0.000406744
0.000557776
0.000718592
0.000878869
0.000969987
0.00112688
0.0012276
0.00135704
0.00141628
0.00146667
0.00152399
0.00156615
0.00156984
0.00134358
0.00106901
0.000890566
0.000713734
0.000578597
0.000483384
0.000409265
0.000354784
0.000306648
0.000269052
0.00023481
0.000225674
0.00021366
0.000207003
0.000211298
0.000211203
0.000217224
0.00022687
0.00023555
0.000249609
0.000265848
0.000277004
0.000293478
0.00030664
0.000324521
0.000338547
0.000354466
0.000372409
0.000387266
0.000405295
0.000418975
0.000435545
0.00045259
0.000467067
0.000483097
0.00049716
0.000509758
0.000523183
0.000536838
0.000550524
0.000562636
0.000573869
0.00058282
0.000593371
0.000603549
0.000611246
0.000616727
0.000623598
0.000627917
0.000630541
0.000632824
0.000634102
0.000632555
0.00063046
0.000625411
0.000620725
0.00061056
0.000598512
0.000588075
0.000577633
0.000571696
0.000585569
0.000583846
0.000589944
0.000594502
0.000598902
0.000605942
0.000614998
0.000621278
0.000631801
0.000641834
0.000649696
0.000663758
0.000676133
0.000684893
0.000698848
0.000714723
0.000724826
0.000740801
0.000752877
0.000765027
0.000781386
0.000795282
0.000804654
0.000819133
0.000831055
0.000839258
0.000850181
0.000859055
0.000867554
0.00087253
0.000879412
0.000882262
0.000884676
0.000886287
0.00088474
0.000885508
0.000883582
0.000881057
0.000879479
0.000879213
0.00087786
0.000879084
0.000880988
0.000885909
0.000890001
0.000899656
0.000907036
0.000918928
0.00092818
0.000943104
0.00095393
0.000969595
0.000989232
0.00100743
0.00102206
0.00104306
0.0010632
0.00108735
0.00111046
0.00113303
0.00115611
0.00118491
0.00120605
0.00123748
0.00125943
0.0012928
0.00131788
0.00135163
0.00137588
0.00141667
0.00144297
0.00147867
0.00150423
0.0015432
0.00157001
0.00161203
0.00164379
0.00166747
0.00171122
0.00173427
0.00176433
0.00180323
0.00182823
0.00184582
0.00188183
0.00189506
0.00192653
0.00196261
0.00201823
0.00205853
0.00205845
0.00205849
0.00202289
0.00206583
0.0021031
0.00199694
0.00198401
0.00197244
0.00193824
0.00190089
0.0018509
0.00178997
0.00172247
0.00161895
0.00153567
0.00140555
0.00127147
0.00116821
0.00105426
0.000899084
0.000812872
0.000731429
0.000585196
0.000551462
0.000462874
0.00041707
0.000665652
0.000832495
0.00100515
0.00116458
0.00131704
0.00143747
0.00154474
0.00163692
0.00181063
0.00202306
0.00234683
0.00294198
0.00383329
0.00508687
0.0064857
0.00799523
0.0093089
0.0102152
0.0101372
0.0120371
0.011353
0.00987339
0.0086304
0.00818846
0.00686987
0.00453552
0.00290963
0.0017345
0.00126723
0.00114188
0.000976937
0.000781171
0.000606138
0.000435107
0.000242638
0.00018926
0.000222464
0.000406744
0.000557776
0.000718592
0.000878869
0.000969987
0.00112688
0.0012276
0.00135704
0.00141628
0.00146667
0.00152399
0.00156615
0.00156984
0.00112592
0.000890268
0.00155907
0.000898519
0.000726245
0.0011767
0.000729857
0.00220689
0.000795183
0.00147548
0.00104596
0.000656422
0.001195
0.000592072
0.000786234
0.00141229
0.00100622
0.000661821
0.000888731
0.000841905
0.00178247
0.00153429
0.00119776
0.000541311
0.001659
0.00132797
0.000991607
0.000635226
0.00104748
0.0007576
0.00122977
0.00186404
0.00046486
0.000938591
0.000711697
0.000831994
0.000876106
0.00288818
0.000611414
0.00134457
0.000468219
0.00108262
0.000944039
0.000774155
0.00084066
0.00196132
0.00158891
0.00118091
0.000826344
0.00113433
0.000533309
0.00148623
0.00130914
0.00174981
0.00160061
0.000941544
0.00064177
0.000966988
0.000700225
0.00168836
0.000840515
0.001429
0.00106319
0.000572311
0.000379736
0.00178931
0.000631705
0.000884144
0.000780749
0.0024713
0.000736392
0.00137611
0.000679119
0.000890495
0.00106164
0.000873841
0.000426725
0.000784253
0.00165609
0.00102364
0.000665743
0.000853117
0.000918642
0.000679869
0.0008989
0.000773623
0.00127244
0.00147896
0.00110637
0.00115615
0.000658205
0.00110467
0.000638643
0.00130532
0.00101072
0.000791724
0.00183503
0.000405459
0.000876898
0.000337027
0.00122137
0.00165837
0.000964976
0.00117082
0.000463374
0.000864923
0.000643114
0.000906829
0.00134978
0.0011493
0.00177505
0.00097497
0.000848531
0.000846726
0.00160266
0.00141858
0.00189988
0.000555157
0.00120028
0.00122388
0.000709864
0.000720271
0.00158273
0.00155708
0.00179512
0.000985042
0.000613351
0.00124479
0.000875595
0.000672182
0.00223929
0.00103146
0.000625461
0.00075113
0.0010818
0.00078449
0.00635029
0.00278831
0.00059536
0.00121519
0.000812691
0.000734145
0.000986263
0.00214863
0.000334858
0.00178491
0.000948123
0.000681346
0.00076181
0.00165791
0.00133327
0.000544198
0.000918642
0.000697451
0.000710025
0.00209398
0.000808157
0.000604881
0.00139013
0.000946148
0.00368064
0.00158162
0.000813244
0.00172491
0.00157267
0.000631707
0.00086906
0.000991778
0.000706973
0.00142614
0.00146758
0.000715322
0.00144326
0.000501108
0.000306726
0.00111786
0.000526898
0.00132236
0.00126144
0.000836302
0.000819731
0.0010082
0.000981553
0.000684061
0.00108194
0.000588694
0.000779277
0.00137586
0.00177188
0.00115319
0.00056617
0.000501081
0.00133628
0.00184848
0.00107486
0.00102747
0.000582201
0.00127993
0.00126918
0.000950765
0.000652207
0.000853065
0.00100978
0.00129603
0.000819331
0.000676721
0.00089397
0.00103323
0.00148848
0.00173186
0.000744947
0.0016836
0.00133369
0.000355988
0.000994405
0.00048369
0.000749712
0.00187214
0.0018803
0.00117869
0.00145222
0.00128943
0.0011117
0.000822102
0.000927285
0.000633446
0.00061169
0.000883402
0.000666211
0.000868259
0.00238031
0.000413264
0.00125452
0.00122198
0.000917891
0.000658379
0.00146354
0.00175466
0.000943146
0.000924912
0.000728891
0.000743563
0.000831918
0.000831148
0.000771518
0.000277754
0.000761307
0.000877963
0.00169615
0.00186284
0.00165127
0.000801756
0.000969979
0.000860028
0.00182451
0.000880366
0.00147742
0.000633137
0.000892137
0.000875351
0.0014139
0.00138568
0.000927572
0.00142832
0.000449167
0.00179673
0.000986841
0.000661461
0.00150949
0.000737622
0.000756304
0.00175559
0.000646074
0.000954923
0.000622228
0.000648721
0.000880216
0.000468569
0.00109457
0.000606695
0.00162049
0.00157926
0.000855485
0.000999465
0.00110524
0.000690716
0.000797462
0.00149491
0.00123443
0.00115261
0.00068082
0.00105707
0.00113258
0.000877911
0.00158249
0.00102058
0.000604759
0.000302284
0.00220183
0.00129342
0.00106596
0.00120422
0.00196985
0.000737114
0.000470374
0.000803938
0.00112446
0.00122771
0.00131802
0.000815046
0.00107311
0.000550012
0.00100231
0.000674881
0.000713625
0.000432157
0.000269414
0.000613821
0.000878079
0.00167385
0.00141155
0.000613848
0.00115195
0.000654478
0.000600323
0.0029067
0.000784998
0.00120495
0.000763319
0.00111601
0.00124173
0.00210391
0.000798964
0.00105869
0.000702395
0.00188579
0.00137998
0.00084832
0.000727224
0.000618237
0.000971325
0.000638424
0.000856418
0.000849514
0.00256066
0.000894585
0.00170547
0.000908109
0.00621136
0.00100077
0.00128072
0.000926974
0.000907459
0.000793649
0.00115149
0.00068806
0.00091895
0.00194071
0.00094165
0.00137657
0.00129726
0.000717088
0.00086615
0.00080718
0.00114161
0.00151689
0.00095052
0.00048154
0.000371305
0.000496033
0.00116182
0.000905298
0.000661791
0.000712784
0.00104414
0.000917588
0.00275009
0.000527662
0.00134065
0.00102315
0.000513908
0.00601956
0.000834538
0.000325426
0.000650683
0.000896294
0.00109555
0.000561028
0.00153227
0.00117718
0.00140396
0.000658553
0.000760505
0.000742636
0.00179708
0.000588233
0.00130209
0.000987075
0.00164346
0.00153758
0.0011076
0.000719607
0.000874258
0.00188722
0.00183003
0.00103878
0.00133806
0.000858
0.000366133
0.00101931
0.00199233
0.000561838
0.000396194
0.000976293
0.000631169
0.00165189
0.00101606
0.00134004
0.00390438
0.000920837
0.000647635
0.000898467
0.000953623
0.00106287
0.00159942
0.00150947
0.00166199
0.00141621
0.00181774
0.00981867
0.000696141
0.00186897
0.00174733
0.000704831
0.000776851
0.00149144
0.000786723
0.00146076
0.000813509
0.00152904
0.00153848
0.00158945
0.000526552
0.000669536
0.000646462
0.00161913
0.000756435
0.000448647
0.000997416
0.000594858
0.00271003
0.000762488
0.000854306
0.00089666
0.00114337
0.000706374
0.00059246
0.0025353
0.00024389
0.00211642
0.00415645
0.000381372
0.00133818
0.000909556
0.000636233
0.00119106
0.00106406
0.000467341
0.00123112
0.0016131
0.00137824
0.00127481
0.00089357
0.000660819
0.00168232
0.000708033
0.00180753
0.000502721
0.00109224
0.00134766
0.00105889
0.000594956
0.000750445
0.00170828
0.00115748
0.000813008
0.00115162
0.000699323
0.00191648
0.00139222
0.00200847
0.00182349
0.00149149
0.00221035
0.000966392
0.00185007
0.00130595
0.000924695
0.00105338
0.000831651
0.00137737
0.000793494
0.000622592
0.000884138
0.00156107
0.000359391
0.000697929
0.00165285
0.000927142
0.00106823
0.00128008
0.000865478
0.00122794
0.00161839
0.000313274
0.000819697
0.00049616
0.00105067
0.000627145
0.000872635
0.00101479
0.000625718
0.000724317
0.00199706
0.000688463
0.00173757
0.00181405
0.00120774
0.000745817
0.000720261
0.00111834
0.000964136
0.000628628
0.00173684
0.000763718
0.00104563
0.00175952
0.000848316
0.00080357
0.000764656
0.00150053
0.000676329
0.00117628
0.000965023
0.000938923
0.000658122
0.000597865
0.000873451
0.00211174
0.00115416
0.000996914
0.00106179
0.000841267
0.000687465
0.000526959
0.000792531
0.0008201
0.00127307
0.000755178
0.000679977
0.00273505
0.000959401
0.00078632
0.000584463
0.000638753
0.000893703
0.000935636
0.000661755
0.000727168
0.00117183
0.000477871
0.00154974
0.000941498
0.0012857
0.000834031
0.00270801
0.00119749
0.000925355
0.000695278
0.00163505
0.00097496
0.000607065
0.000999439
0.000610306
0.0014364
0.00128004
0.000985279
0.000824119
0.000286851
0.000570828
0.00096382
0.000580285
0.000850592
0.00169575
0.000420465
0.00096887
0.00111253
0.000571354
0.000820302
0.00129361
0.00145185
0.00160007
0.000599482
0.00190896
0.00077458
0.00143404
0.000510995
0.000902208
0.000776533
0.0014385
0.00133747
0.0013334
0.000360725
0.00118748
0.00166498
0.00166636
0.000653814
0.000701578
0.000878452
0.00119414
0.000644262
0.000544875
0.000959665
0.000416816
0.00102377
0.000970977
0.000961829
0.00074266
0.000718075
0.00101989
0.000675676
0.00125072
0.000826866
0.00178849
0.00112182
0.000692099
0.00141518
0.00162262
0.000612822
0.000874233
0.00110833
0.000527504
0.00114067
0.000380298
0.00135132
0.00161853
0.00182473
0.000656223
0.00090558
0.00135256
0.000809739
0.00139695
0.00280486
0.00422943
0.000845152
0.00163499
0.000403801
0.000753792
0.00116096
0.000901885
0.00119465
0.0017224
0.00110777
0.000565677
0.00104569
0.00144129
0.00151459
0.000793754
0.00149243
0.000963795
0.00126592
0.00153839
0.000695033
0.000908533
0.00102909
0.000671212
0.0012285
0.00111803
0.000606101
0.000248752
0.00152171
0.000801869
0.00138352
0.000455367
0.000741499
0.000901405
0.00142613
0.000634071
0.000876986
0.000450326
0.00109089
0.00172211
0.000594493
0.000882655
0.000710341
0.000626442
0.000680593
0.00867872
0.000921587
0.00144903
0.000717532
0.000692366
0.00141714
0.000634472
0.000895687
0.000861683
0.000400613
0.00142314
0.000600365
0.000882358
0.00178049
0.00161839
0.000935141
0.000625335
0.00100977
0.00110351
0.00144179
0.000734981
0.000762954
0.00806799
0.00092494
0.00190982
0.00146216
0.00165251
0.000254389
0.00150188
0.000821125
0.00118621
0.00116354
0.00108684
0.00054769
0.00101554
0.000868196
0.000945035
0.000748875
0.000647059
0.00119028
0.000671591
0.00124883
0.00145765
0.00182252
0.000966092
0.000839208
0.000866215
0.00133361
0.00113646
0.000766954
0.00319627
0.00127702
0.000542133
0.000943093
0.000631155
0.000781722
0.000795146
0.00181434
0.00163277
0.00194589
0.000839283
0.00067576
0.00106359
0.00128162
0.00107501
0.00061564
0.000916099
0.00127319
0.00127279
0.000788058
0.000534892
0.000570229
0.00105171
0.000750782
0.000770809
0.0012424
0.000376455
0.00180989
0.00103782
0.00060151
0.000819717
0.000786588
0.000742997
0.000778017
0.000509929
0.0011351
0.000854718
0.000804542
0.000742224
0.000897425
0.00188645
0.00177482
0.00121193
0.00172526
0.00176986
0.000880794
0.000910026
0.000807888
0.000344166
0.00122582
0.000667537
0.0006415
0.000954613
0.00241786
0.00137779
0.000485895
0.00193685
0.000801865
0.00159016
0.00169788
0.00159016
0.00266973
0.00170717
0.000947707
0.00180105
0.00110024
0.00110973
0.00116816
0.00125044
0.000385892
0.00101653
0.00114096
0.00185056
0.00135542
0.000429332
0.000444445
0.00127368
0.000619273
0.000867551
0.000664455
0.00083891
0.00101697
0.000859447
0.000791308
0.000546424
0.00116597
0.000619093
0.000881497
0.00149486
0.000952075
0.000663609
0.000735712
0.00100481
0.000598514
0.00125948
0.00083077
0.000785061
0.000518883
0.000465598
0.000816146
0.00136008
0.0012926
0.000673435
0.00124727
0.000737645
0.00105711
0.000304542
0.00069464
0.00181698
0.00168714
0.000769181
0.00140878
0.00111352
0.000880326
0.00087614
0.00057956
0.00101965
0.00160224
0.000718481
0.000922318
0.000723254
0.00152123
0.00136566
0.000643159
0.000815956
0.00104101
0.000707469
0.00127151
0.000262129
0.000619918
0.00138619
0.00135207
0.00107044
0.000972016
0.00101547
0.00123625
0.00100586
0.000963169
0.000839932
0.000753681
0.00162431
0.00170154
0.000858828
0.000672507
0.000761149
0.000919543
0.000639492
0.000727936
0.000973333
0.00107107
0.000792239
0.000902402
0.000658764
0.00121855
0.00104559
0.00117544
0.00175658
0.000685489
0.000982758
0.000997444
0.000862846
0.000628508
0.000886885
0.000918679
0.000670854
0.00131089
0.00490615
0.00164495
0.00190789
0.00118644
0.00109473
0.000772905
0.00188729
0.00100842
0.000651589
0.0018118
0.0018634
0.00151674
0.000885042
0.00208693
0.000931179
0.00182742
0.00104702
0.00090017
0.00236118
0.00163129
0.00217316
0.000916571
0.000633569
0.000985369
0.000675543
0.000823521
0.000900786
0.000913594
0.00130237
0.00115267
0.000353499
0.000504474
0.000809751
0.000747542
0.000473951
0.000824006
0.00195592
0.00175715
0.000739701
0.000655108
0.0008541
0.00232318
0.00186292
0.0014407
0.00064964
0.000898004
0.000596065
0.000907653
0.000862858
0.000870347
0.000506175
0.000845919
0.001068
0.00146414
0.00119172
0.00111485
0.000555806
0.00141007
0.00061364
0.000881818
0.000236284
0.00211893
0.00145538
0.000629785
0.000886859
0.00108933
0.000830831
0.000766745
0.00129158
0.00152867
0.00138303
0.00140329
0.00118306
0.000655273
0.0006404
0.000886115
0.000220457
0.000475548
0.00163243
0.00154095
0.00172327
0.000934352
0.000796854
0.00106801
0.0011002
0.000752811
0.00132803
0.000908791
0.000648214
0.0014594
0.000579703
0.000388233
0.0017725
0.00118644
0.000663926
0.00107477
0.000867071
0.000810611
0.000576987
0.000859115
0.000924128
0.000774627
0.00108733
0.00161914
0.000838914
0.00242719
0.0020003
0.0010252
0.000647695
0.000456911
0.000843337
0.00172147
0.000991255
0.000695321
0.00123955
0.00113844
0.00125005
0.00204949
0.00168846
0.00154032
0.000675403
0.00072273
0.000978571
0.000546897
0.00136497
0.000638437
0.000901765
0.00062104
0.000440709
0.00155999
0.000711953
0.000995361
0.000543687
0.000726951
0.000856739
0.000930956
0.000639597
0.000597906
0.00239064
0.0011361
0.000453106
0.000633444
0.000658875
0.00134625
0.0005562
0.00111519
0.00160833
0.0005566
0.000874198
0.000291168
0.0014021
0.00076476
0.00174365
0.000917308
0.00133111
0.00122787
0.000298432
0.000388286
0.000664089
0.00108128
0.00123716
0.000634256
0.00158996
0.000866477
0.000684517
0.000930683
0.000829062
0.000944025
0.000711021
0.00293319
0.000972237
0.000646571
0.000514746
0.000838453
0.00139867
0.00191893
0.000857261
0.000773826
0.000910988
0.00170307
0.000913133
0.00112015
0.000997055
0.000641006
0.000318412
0.00108848
0.0018265
0.000739585
0.000939327
0.00187113
0.000898786
0.00176455
0.0014771
0.000882353
0.000957363
0.000615059
0.000977692
0.00093375
0.00226399
0.000923482
0.000507267
0.00091439
0.00106171
0.00132536
0.000533912
0.000836697
0.000401479
0.000695979
0.000838428
0.00130777
0.00182891
0.00088333
0.000510157
0.000262609
0.00128802
0.000966871
0.001162
0.00164545
0.000834899
0.000940473
0.00185455
0.000682758
0.000502312
0.000711475
0.000503945
0.000815042
0.000808306
0.00152876
0.00104581
0.000992786
0.00152921
0.000700191
0.000645281
0.00259096
0.000325577
0.000834222
0.00104522
0.00137756
0.00102071
0.000594452
0.00127994
0.00131795
0.00112336
0.000965069
0.00061973
0.000581846
0.000477791
0.0005858
0.00104143
0.00107273
0.000989578
0.000695068
0.000301685
0.000776624
0.00184937
0.00126859
0.00114313
0.000750713
0.00100392
0.000619468
0.000842539
0.000747852
0.00167163
0.000994815
0.00156451
0.00077488
0.00142683
0.000747578
0.00116721
0.000889109
0.00107674
0.00158025
0.000399921
0.00152084
0.00119886
0.0012535
0.00162475
0.000629959
0.000602125
0.000879698
0.000869849
0.000750551
0.00111693
0.000916232
0.000646592
0.00174544
0.00069684
0.000375122
0.00156864
0.00104417
0.00184934
0.000844767
0.00183586
0.000642403
0.000875452
0.000898969
0.0011678
0.00559168
0.00142311
0.00176027
0.00253385
0.000860365
0.000418453
0.00202283
0.00173768
0.000872497
0.000651184
0.00084713
0.00176196
0.000761695
0.00342958
0.000440801
0.00149165
0.00100766
0.00140498
0.000731566
0.000406546
0.00179593
0.00340068
0.000800052
0.000682432
0.00159347
0.00109326
0.000588358
0.00118869
0.000751779
0.00113132
0.00112066
0.00179006
0.000229857
0.000399937
0.00541772
0.0010575
0.000608639
0.00111705
0.00223414
0.0023059
0.000324523
0.00152861
0.000483537
0.000787871
0.000648368
0.00133573
0.000591864
0.000883556
0.000883294
0.00184565
0.000954766
0.000714319
0.000713683
0.00120828
0.000902616
0.000883914
0.00150235
0.00162424
0.00100726
0.000459345
0.00131309
0.00156101
0.00107006
0.00115072
0.000912231
0.000527649
0.00107504
0.000544983
0.00192897
0.00106314
0.000766386
0.00103216
0.00153108
0.00130965
0.000726494
0.000720448
0.000726193
0.000818378
0.00164792
0.00134535
0.00107705
0.000580904
0.00116792
0.00286812
0.00190973
0.00077369
0.00140955
0.000933248
0.00119862
0.00252961
0.00118614
0.00270368
0.00542771
0.00157044
0.000805383
0.00146363
0.000951107
0.000459259
0.00130255
0.000624832
0.000874629
0.000787353
0.000624441
0.000633471
0.000478112
0.000676846
0.000839089
0.00109007
0.0014875
0.000675995
0.000854162
0.00127531
0.000862917
0.000711131
0.000703949
0.000770193
0.00108263
0.000726916
0.00117027
0.000683858
0.00169118
0.00111376
0.000859808
0.00149346
0.00117472
0.00199297
0.000897311
0.00188221
0.0017147
0.000710512
0.00219957
0.000533885
0.000690084
0.00171606
0.0107685
0.00121781
0.000678096
0.00136444
0.000982216
0.00195987
0.0013046
0.000945488
0.00052816
0.000781683
0.000668673
0.00130872
0.00269134
0.000567316
0.00100247
0.00127203
0.00158312
0.00153656
0.00698736
0.00100751
0.000496447
0.00179137
0.00198261
0.000796637
0.000630839
0.000645518
0.000899468
0.000771208
0.00101766
0.000919249
0.000914355
0.00468004
0.00121618
0.000868911
0.00033306
0.00115065
0.00222697
0.00101855
0.000880744
0.00337933
0.000766516
0.00156812
0.000803223
0.000935846
0.00156169
0.00078549
0.00150178
0.00107272
0.000429653
0.000800375
0.000798071
0.000561785
0.00103774
0.000650194
0.000889618
0.000983006
0.000599182
0.000766417
0.00144664
0.00468534
0.000481126
0.000624254
0.000878615
0.000966628
0.00155787
0.000710972
0.00100711
0.000641592
0.00107287
0.000573889
0.000856919
0.00143751
0.00135614
0.00062085
0.000884653
0.000751659
0.00112803
0.00063649
0.000722766
0.0012487
0.0017519
0.000431424
0.00156401
0.00156991
0.00303342
0.00145473
0.000750008
0.000859377
0.00101745
0.0014806
0.00121345
0.00128475
0.00145817
0.000460741
0.00183804
0.000861827
0.000763334
0.00114198
0.00138271
0.00173595
0.00102836
0.000653913
0.0014937
0.000926208
0.00162308
0.00162996
0.000693524
0.000864242
0.000651382
0.000534816
0.00137908
0.00124214
0.000887727
0.000988841
0.00111382
0.000857187
0.000644988
0.00117376
0.000771689
0.000782178
0.00242459
0.000705264
0.000665246
0.00166511
0.00158506
0.00132542
0.00102922
0.00186969
0.000797493
0.000699626
0.000736024
0.00136308
0.000366214
0.000933502
0.000765734
0.00102814
0.000291054
0.00182583
0.000650272
0.000986347
0.000603377
0.000893894
0.000330769
0.00121203
0.00145428
0.00153869
0.000937209
0.000786535
0.00198538
0.000826129
0.000338954
0.0015394
0.000531116
0.00121417
0.00127779
0.000979919
0.00104119
0.00152967
0.000818993
0.000943521
0.00104405
0.00122458
0.000947671
0.00154335
0.00153522
0.000784739
0.00164789
0.000258095
0.00126079
0.000706256
0.00171738
0.000637973
0.00147745
0.00114265
0.000976303
0.000623265
0.00130631
0.000801892
0.000913791
0.00927938
0.0101455
0.000708377
0.000782617
0.000807502
0.00162021
0.000729494
0.00130483
0.00132636
0.000650768
0.00108783
0.00186926
0.000676387
0.000662777
0.000632717
0.000736739
0.00144397
0.0010402
0.000609261
0.00108415
0.00734855
0.00131355
0.00177212
0.000987075
0.000627782
0.000789442
0.00101566
0.000677503
0.00825656
0.000695352
0.00106445
0.00105119
0.000505878
0.000668196
0.000983828
0.000689736
0.00202237
0.000715614
0.000892832
0.00182118
0.000856119
0.00128039
0.000803264
0.0012612
0.00313367
0.00137065
0.00242882
0.00168814
0.000979624
0.00160839
0.00067814
0.000634085
0.000898784
0.00124089
0.000675864
0.000722745
0.00174769
0.00128992
0.000925469
0.00165599
0.00137668
0.000425629
0.000827987
0.00091579
0.00095474
0.000625735
0.00185643
0.00166019
0.000656303
0.000467383
0.000459589
0.000914674
0.00065428
0.00114104
0.0013703
0.00164605
0.000934998
0.00176552
0.00208832
0.00122705
0.00119639
0.00148615
0.00082009
0.000961756
0.00132117
0.00133481
0.000776436
0.00107565
0.000811703
0.0013556
0.00130084
0.00109274
0.00059568
0.000843892
0.00118063
0.00112225
0.000554834
0.00115875
0.00177165
0.000768243
0.00081386
0.000797727
0.000625961
0.000962019
0.000586847
0.000644542
0.00178857
0.0018616
0.000276612
0.000822665
0.00064939
0.00174765
0.000726514
0.000639751
0.00088414
0.00112283
0.000776107
0.000652033
0.00120038
0.00182643
0.00112993
0.000657582
0.000703094
0.00178452
0.0013634
0.000748985
0.00119533
0.00188481
0.00210911
0.00134094
0.00185357
0.00140501
0.00144862
0.00274187
0.000446802
0.00166827
0.00279602
0.00143525
0.00183277
0.000504903
0.000731698
0.000887863
0.00118684
0.00139928
0.000777156
0.00108515
0.00149453
0.000952702
0.000380193
0.000694042
0.000977484
0.00169695
0.000573191
0.000797729
0.000765713
0.000892665
0.00165091
0.000415767
0.000803392
0.00155265
0.000738239
0.00094031
0.00127985
0.00101822
0.00115823
0.000782127
0.00138956
0.00075986
0.00075572
0.00669241
0.00181169
0.00119921
0.000545393
0.000881628
0.000708244
0.000500427
0.00149906
0.000770623
0.00127013
0.00177224
0.000979472
0.00133345
0.00101003
0.000588513
0.00100229
0.00110329
0.000918235
0.00063826
0.00090291
0.000376295
0.00119648
0.000383942
0.000548842
0.000807364
0.000820253
0.000899302
0.000495833
0.00144857
0.000780707
0.00101596
0.000798981
0.00172483
0.00153261
0.000711897
0.000603338
0.000879932
0.000861664
0.000214027
0.00194746
0.0012632
0.00171037
0.00147092
0.000848795
0.000855918
0.000308846
0.000887211
0.000632422
0.000702994
0.000682441
0.00268458
0.00082461
0.000769359
0.0011723
0.00219264
0.00168363
0.00121658
0.000969006
0.00121781
0.0017764
0.00135711
0.00146771
0.00181151
0.00182893
0.00152507
0.000791855
0.000436834
0.00174362
0.000634262
0.0012165
0.00107015
0.00124923
0.000236042
0.00141112
0.0006799
0.000916341
0.000538638
0.000927916
0.00105427
0.000588238
0.000406089
0.000372079
0.00253252
0.00155889
0.00106521
0.00191829
0.000511486
0.000920486
0.0010684
0.000561734
0.00114032
0.00118969
0.000845673
0.00138622
0.001816
0.00109918
0.000367972
0.00068777
0.000636242
0.00170755
0.000746949
0.00121731
0.000750664
0.000999048
0.00117868
0.000883292
0.000593416
0.00183078
0.00100066
0.00147105
0.000569973
0.00200018
0.00162594
0.000704684
0.000683585
0.000826858
0.00163354
0.00128296
0.00141688
0.00111831
0.000691183
0.0008877
0.0014148
0.00179989
0.000848998
0.000837326
0.000936212
0.00168923
0.000695664
0.000889276
0.00117413
0.0015031
0.000905453
0.000829459
0.000734708
0.000661172
0.000533562
0.00110063
0.00151455
0.000623743
0.00088109
0.00124743
0.000908794
0.000841943
0.000642393
0.000865315
0.00107314
0.00119989
0.000932696
0.00189177
0.00148161
0.00101341
0.000588492
0.000874468
0.00146217
0.00095232
0.00103842
0.000679867
0.00132263
0.00082725
0.00160985
0.00118907
0.000580165
0.000532445
0.00100157
0.00036363
0.00103931
0.00104984
0.00148516
0.000680264
0.000804428
0.000896515
0.00172267
0.000809272
0.000941008
0.000620252
0.000456427
0.000467107
0.00135088
0.00135133
0.00144143
0.000654944
0.000959836
0.00130322
0.000391866
0.0022014
0.00184275
0.000463415
0.00135889
0.000248901
0.00103233
0.00164318
0.00063151
0.0015713
0.000630278
0.000873266
0.00063634
0.00184498
0.00189871
0.00138005
0.00119324
0.000945284
0.0006296
0.00124231
0.00092421
0.000628698
0.000488596
0.00324629
0.000954433
0.000950333
0.000719815
0.00080511
0.00503711
0.000670123
0.00112684
0.0012109
0.000522311
0.00184952
0.00120588
0.00135355
0.000751805
0.00385938
0.0018224
0.000752027
0.00114935
0.000894102
0.000613176
0.000588224
0.00175759
0.00156483
0.00087243
0.00162176
0.000788527
0.00353683
0.00167031
0.000725653
0.00117131
0.00115685
0.000734412
0.000688344
0.00126455
0.00129914
0.000906545
0.000633354
0.00165591
0.000440774
0.00177033
0.000828632
0.000476366
0.000623487
0.00109566
0.000532161
0.00112112
0.0012749
0.000638856
0.000967343
0.000731973
0.000437535
0.00193587
0.000302975
0.000836449
0.000632783
0.00089196
0.00140075
0.000648668
0.000632235
0.00161698
0.000624065
0.000688949
0.00039522
0.00160311
0.00178094
0.000659323
0.00201131
0.00276539
0.00116384
0.00159726
0.000608412
0.00087326
0.000801631
0.000582132
0.00103661
0.00153393
0.00142958
0.000529511
0.000975683
0.000735015
0.00107673
0.000569206
0.00103368
0.000958791
0.000723292
0.000897911
0.00105734
0.000561305
0.000824686
0.00169888
0.000897116
0.000858312
0.00154147
0.000995127
0.000715245
0.00119099
0.000644153
0.00164253
0.00072022
0.000637169
0.00103904
0.000628619
0.000941124
0.00106766
0.000609472
0.00101567
0.000616268
0.000704352
0.00149438
0.00130235
0.000869627
0.00118589
0.00140217
0.00113796
0.00705385
0.000951283
0.000633484
0.00133918
0.00113204
0.0016941
0.00157212
0.000583257
0.000988597
0.000742862
0.00101982
0.000661962
0.000985891
0.000699312
0.00190419
0.00195649
0.000611889
0.00116362
0.000422469
0.000493313
0.00109876
0.000772493
0.00138783
0.000832248
0.000561652
0.000868727
0.00124107
0.000979452
0.00171686
0.00203205
0.000556996
0.00105417
0.00170275
0.00105531
0.000633132
0.000416408
0.00173511
0.00126341
0.000417474
0.000703014
0.000676862
0.0010998
0.00033422
0.000602795
0.000880769
0.000315946
0.000629132
0.000888511
0.000982271
0.00135205
0.000703297
0.00023901
0.000619889
0.00137422
0.000749854
0.000511358
0.000846752
0.00167484
0.00073207
0.00100539
0.00135946
0.000675933
0.00141216
0.000669213
0.0010981
0.000575212
0.00160161
0.0012178
0.00477307