/*--------------------------------*- C++ -*----------------------------------*\
| =========                 |                                                 |
| \\      /  F ield         | OpenFOAM: The Open Source CFD Toolbox           |
|  \\    /   O peration     | Version:  v2012                                 |
|   \\  /    A nd           | Website:  www.openfoam.com                      |
|    \\/     M anipulation  |                                                 |
\*---------------------------------------------------------------------------*/
FoamFile
{
    version     2.0;
    format      ascii;
    class       volScalarField;
    location    "1";
    object      epsilonEq;
}
// * * * * * * * * * * * * * * * * * * * * * * * * * * * * * * * * * * * * * //

dimensions      [0 0 0 0 0 0 0];


internalField   nonuniform List<scalar> 
56
(
2.4037e-06
2.4037e-06
2.4037e-06
2.4037e-06
2.4037e-06
2.4037e-06
2.4037e-06
2.4037e-06
2.4037e-06
2.4037e-06
2.4037e-06
2.4037e-06
2.4037e-06
2.4037e-06
2.4037e-06
2.4037e-06
2.4037e-06
2.4037e-06
2.4037e-06
2.4037e-06
2.4037e-06
2.4037e-06
2.4037e-06
2.4037e-06
2.4037e-06
2.4037e-06
2.4037e-06
2.4037e-06
2.4037e-06
2.4037e-06
2.4037e-06
2.4037e-06
2.4037e-06
2.4037e-06
2.4037e-06
2.4037e-06
2.4037e-06
2.4037e-06
2.4037e-06
2.4037e-06
2.4037e-06
2.4037e-06
2.4037e-06
2.4037e-06
2.4037e-06
2.4037e-06
2.4037e-06
2.4037e-06
2.4037e-06
2.4037e-06
2.4037e-06
2.4037e-06
2.4037e-06
2.4037e-06
2.4037e-06
2.4037e-06
)
;

boundaryField
{
    boundary
    {
        type            calculated;
        value           nonuniform List<scalar> 
14
(
2.4037e-06
2.4037e-06
2.4037e-06
2.4037e-06
2.4037e-06
2.4037e-06
2.4037e-06
2.4037e-06
2.4037e-06
2.4037e-06
2.4037e-06
2.4037e-06
2.4037e-06
2.4037e-06
)
;
    }
    defaultFaces
    {
        type            empty;
    }
}


// ************************************************************************* //
