/*--------------------------------*- C++ -*----------------------------------*\
| =========                 |                                                 |
| \\      /  F ield         | OpenFOAM: The Open Source CFD Toolbox           |
|  \\    /   O peration     | Version:  v2012                                 |
|   \\  /    A nd           | Website:  www.openfoam.com                      |
|    \\/     M anipulation  |                                                 |
\*---------------------------------------------------------------------------*/
FoamFile
{
    version     2.0;
    format      ascii;
    class       volSymmTensorField;
    location    "1";
    object      sigma;
}
// * * * * * * * * * * * * * * * * * * * * * * * * * * * * * * * * * * * * * //

dimensions      [1 -1 -2 0 0 0 0];


internalField   nonuniform List<symmTensor> 5((1.23077e+06 615385 -1.56375e-09 1.84615e+06 0 923077) (1.23077e+06 615385 -1.30313e-09 1.84615e+06 3.12751e-09 923077) (1.23077e+06 615385 2.60626e-10 1.84615e+06 1.30313e-09 923077) (1.23077e+06 615385 -2.60626e-10 1.84615e+06 1.0425e-09 923077) (1.23077e+06 615385 0 1.84615e+06 3.12751e-09 923077));

boundaryField
{
    boundary
    {
        type            calculated;
        value           nonuniform List<symmTensor> 4((1.23077e+06 615385 -1.56375e-09 1.84615e+06 0 923077) (1.23077e+06 615385 -1.30313e-09 1.84615e+06 3.12751e-09 923077) (1.23077e+06 615385 2.60626e-10 1.84615e+06 1.30313e-09 923077) (1.23077e+06 615385 -2.60626e-10 1.84615e+06 1.0425e-09 923077));
    }
    defaultFaces
    {
        type            empty;
    }
}


// ************************************************************************* //
