/*--------------------------------*- C++ -*----------------------------------*\
| =========                 |                                                 |
| \\      /  F ield         | OpenFOAM: The Open Source CFD Toolbox           |
|  \\    /   O peration     | Version:  v2012                                 |
|   \\  /    A nd           | Website:  www.openfoam.com                      |
|    \\/     M anipulation  |                                                 |
\*---------------------------------------------------------------------------*/
FoamFile
{
    version     2.0;
    format      ascii;
    class       volScalarField;
    location    "14";
    object      sigmaHyd;
}
// * * * * * * * * * * * * * * * * * * * * * * * * * * * * * * * * * * * * * //

dimensions      [1 -1 -2 0 0 0 0];


internalField   nonuniform List<scalar> 
1000
(
5.09801e+07
6.9976e+07
9.07752e+07
1.0608e+08
1.22666e+08
1.31846e+08
1.40214e+08
1.40199e+08
1.39137e+08
1.31791e+08
5.35457e+07
7.23344e+07
9.23157e+07
1.05024e+08
1.17877e+08
1.22239e+08
1.25962e+08
1.22741e+08
1.19973e+08
1.13341e+08
5.83171e+07
7.40428e+07
9.13159e+07
9.85489e+07
1.03856e+08
1.02506e+08
1.01921e+08
9.77649e+07
9.63137e+07
9.26099e+07
6.4789e+07
7.00545e+07
8.14731e+07
7.95323e+07
8.07887e+07
7.84991e+07
7.87588e+07
7.74303e+07
7.80913e+07
7.66344e+07
6.43254e+07
5.97378e+07
6.34735e+07
5.73266e+07
6.23985e+07
6.30441e+07
6.63897e+07
6.44231e+07
6.49189e+07
6.28694e+07
5.72755e+07
4.82375e+07
5.02908e+07
4.95141e+07
5.36527e+07
5.30782e+07
5.61285e+07
5.42565e+07
5.51409e+07
5.40504e+07
4.80295e+07
4.62358e+07
4.71005e+07
4.49797e+07
4.71274e+07
4.55107e+07
4.78098e+07
4.62069e+07
4.88438e+07
4.80352e+07
3.92636e+07
3.66296e+07
3.84491e+07
3.73366e+07
4.00576e+07
3.9401e+07
4.2238e+07
4.15587e+07
4.43052e+07
4.39476e+07
2.70702e+07
2.705e+07
2.88805e+07
2.89589e+07
3.13213e+07
3.14146e+07
3.41087e+07
3.40849e+07
3.71201e+07
3.69253e+07
1.4199e+07
1.56564e+07
1.88777e+07
2.01038e+07
2.32779e+07
2.43652e+07
2.75025e+07
2.84612e+07
3.16387e+07
3.23054e+07
1.99339e+06
5.20652e+06
8.36655e+06
1.10407e+07
1.38549e+07
1.62222e+07
1.86883e+07
2.0911e+07
2.29524e+07
2.58016e+07
-1.00102e+07
-5.64386e+06
-1.57401e+06
1.96232e+06
5.36935e+06
8.35196e+06
1.11896e+07
1.37504e+07
1.60647e+07
1.94092e+07
-2.12658e+07
-1.53654e+07
-1.09822e+07
-6.14118e+06
-2.6215e+06
1.55443e+06
4.42809e+06
8.14829e+06
1.0546e+07
1.5071e+07
-3.11443e+07
-2.4519e+07
-1.95881e+07
-1.41353e+07
-1.0223e+07
-5.53807e+06
-2.42637e+06
1.74885e+06
4.23193e+06
9.20981e+06
-4.0155e+07
-3.25175e+07
-2.71666e+07
-2.08768e+07
-1.67134e+07
-1.13399e+07
-8.06943e+06
-3.35953e+06
-764999
4.37806e+06
-4.7471e+07
-3.94148e+07
-3.36607e+07
-2.70021e+07
-2.25024e+07
-1.6826e+07
-1.32794e+07
-8.32648e+06
-5.50483e+06
-412720
-5.36633e+07
-4.50643e+07
-3.89406e+07
-3.18429e+07
-2.7083e+07
-2.10734e+07
-1.73246e+07
-1.2146e+07
-9.14857e+06
-4.17307e+06
-5.81769e+07
-4.9363e+07
-4.29573e+07
-3.56751e+07
-3.0669e+07
-2.45177e+07
-2.05477e+07
-1.52712e+07
-1.20712e+07
-7.2563e+06
-6.13263e+07
-5.22847e+07
-4.56631e+07
-3.82007e+07
-3.30318e+07
-2.67513e+07
-2.26456e+07
-1.72898e+07
-1.39658e+07
-9.27068e+06
-6.28556e+07
-5.37476e+07
-4.70219e+07
-3.95045e+07
-3.42444e+07
-2.79239e+07
-2.37346e+07
-1.83539e+07
-1.4952e+07
-1.033e+07
-5.311e+06
-4.40966e+06
-2.67413e+06
20664.4
3.40722e+06
7.81666e+06
1.24923e+07
1.82756e+07
2.28367e+07
2.85806e+07
2.68245e+06
3.19825e+06
4.19769e+06
5.75059e+06
7.74792e+06
1.04062e+07
1.35175e+07
1.75054e+07
2.21918e+07
2.67966e+07
8.28049e+06
8.83383e+06
9.92264e+06
1.15391e+07
1.3617e+07
1.61044e+07
1.89235e+07
2.18398e+07
2.52022e+07
2.764e+07
1.33791e+07
1.36895e+07
1.43833e+07
1.53502e+07
1.68519e+07
1.857e+07
2.11076e+07
2.3579e+07
2.72825e+07
2.95688e+07
1.77857e+07
1.81155e+07
1.88423e+07
1.97822e+07
2.11807e+07
2.2591e+07
2.46074e+07
2.63688e+07
2.909e+07
3.09589e+07
2.11997e+07
2.14042e+07
2.19376e+07
2.2585e+07
2.37471e+07
2.49029e+07
2.67917e+07
2.84541e+07
3.099e+07
3.2745e+07
2.46098e+07
2.48035e+07
2.52875e+07
2.58479e+07
2.67983e+07
2.76994e+07
2.91202e+07
3.04256e+07
3.23465e+07
3.39227e+07
2.70431e+07
2.71822e+07
2.75672e+07
2.80123e+07
2.88284e+07
2.96374e+07
3.09036e+07
3.21266e+07
3.3777e+07
3.52073e+07
2.96774e+07
2.97896e+07
3.00907e+07
3.04328e+07
3.10367e+07
3.16477e+07
3.25693e+07
3.35496e+07
3.47997e+07
3.60392e+07
3.15275e+07
3.1615e+07
3.18538e+07
3.21405e+07
3.26378e+07
3.31807e+07
3.39423e+07
3.48096e+07
3.58215e+07
3.68782e+07
3.36217e+07
3.36764e+07
3.38316e+07
3.40133e+07
3.4338e+07
3.4703e+07
3.52248e+07
3.58606e+07
3.66051e+07
3.74365e+07
3.51334e+07
3.51713e+07
3.52775e+07
3.54128e+07
3.56413e+07
3.59291e+07
3.62959e+07
3.68072e+07
3.73223e+07
3.799e+07
3.69092e+07
3.69133e+07
3.69449e+07
3.69776e+07
3.70669e+07
3.71817e+07
3.7376e+07
3.76335e+07
3.79948e+07
3.83048e+07
3.82607e+07
3.82466e+07
3.8235e+07
3.82119e+07
3.82159e+07
3.82317e+07
3.82988e+07
3.84068e+07
3.8599e+07
3.87601e+07
3.99202e+07
3.9874e+07
3.9789e+07
3.96717e+07
3.9537e+07
3.94046e+07
3.92804e+07
3.92024e+07
3.91528e+07
3.91353e+07
4.12654e+07
4.11973e+07
4.10669e+07
4.08827e+07
4.06582e+07
4.04107e+07
4.01549e+07
3.99114e+07
3.96941e+07
3.94796e+07
4.30046e+07
4.29043e+07
4.26955e+07
4.24179e+07
4.20436e+07
4.16509e+07
4.1186e+07
4.07586e+07
4.02908e+07
3.98729e+07
4.45004e+07
4.43734e+07
4.41108e+07
4.3752e+07
4.32715e+07
4.27417e+07
4.21236e+07
4.15061e+07
4.08508e+07
4.02091e+07
4.65294e+07
4.6366e+07
4.60138e+07
4.55492e+07
4.48928e+07
4.41986e+07
4.33247e+07
4.25042e+07
4.15194e+07
4.06788e+07
4.83602e+07
4.81652e+07
4.77469e+07
4.71843e+07
4.63928e+07
4.55291e+07
4.44511e+07
4.33914e+07
4.21474e+07
4.10237e+07
3.10624e+07
3.27385e+07
3.51749e+07
3.75098e+07
4.02149e+07
4.2724e+07
4.51318e+07
4.78069e+07
4.99989e+07
5.26625e+07
5.48781e+07
5.75792e+07
5.98373e+07
6.26387e+07
6.49828e+07
6.79728e+07
7.04679e+07
7.37653e+07
7.64895e+07
7.84761e+07
3.22707e+07
3.49459e+07
3.8219e+07
4.00556e+07
4.24314e+07
4.4915e+07
4.71173e+07
4.96311e+07
5.18634e+07
5.42977e+07
5.64752e+07
5.90021e+07
6.11745e+07
6.38384e+07
6.60486e+07
6.89162e+07
7.11989e+07
7.43686e+07
7.6745e+07
7.77115e+07
3.14195e+07
3.38837e+07
3.60637e+07
3.88869e+07
4.06022e+07
4.32011e+07
4.51076e+07
4.92426e+07
4.96327e+07
5.21203e+07
5.42212e+07
5.67836e+07
5.89072e+07
6.15496e+07
6.37442e+07
6.64839e+07
6.87898e+07
7.16477e+07
7.41006e+07
7.63397e+07
3.27174e+07
3.56498e+07
3.73834e+07
3.99349e+07
4.17126e+07
4.41518e+07
4.59769e+07
4.83319e+07
5.00752e+07
5.25083e+07
5.43126e+07
5.67124e+07
5.85871e+07
6.09782e+07
6.29391e+07
6.53335e+07
6.74022e+07
6.97935e+07
7.19993e+07
7.43488e+07
3.33837e+07
3.59778e+07
3.72758e+07
3.97104e+07
4.10221e+07
4.34578e+07
4.47875e+07
4.72605e+07
4.85861e+07
5.09569e+07
5.24333e+07
5.47488e+07
5.63458e+07
5.86376e+07
6.03403e+07
6.26304e+07
6.44322e+07
6.67334e+07
6.86324e+07
7.09478e+07
3.48733e+07
3.71381e+07
3.8316e+07
4.0425e+07
4.16696e+07
4.37316e+07
4.50354e+07
4.7059e+07
4.8413e+07
5.04125e+07
5.18197e+07
5.38003e+07
5.52631e+07
5.7233e+07
5.87534e+07
6.07226e+07
6.23023e+07
6.42827e+07
6.59219e+07
6.79308e+07
3.56871e+07
3.7557e+07
3.84821e+07
4.03233e+07
4.13001e+07
4.31337e+07
4.41616e+07
4.59811e+07
4.7061e+07
4.88575e+07
4.99951e+07
5.17698e+07
5.2962e+07
5.47215e+07
5.59605e+07
5.77143e+07
5.89889e+07
6.07501e+07
6.20443e+07
6.37899e+07
3.68026e+07
3.83039e+07
3.91341e+07
4.06724e+07
4.15538e+07
4.30791e+07
4.40076e+07
4.5515e+07
4.64854e+07
4.79733e+07
4.89802e+07
5.04484e+07
5.1486e+07
5.29354e+07
5.39973e+07
5.54289e+07
5.65081e+07
5.79223e+07
5.90317e+07
6.04094e+07
3.73711e+07
3.85449e+07
3.92065e+07
4.04693e+07
4.11677e+07
4.24298e+07
4.31636e+07
4.44159e+07
4.51817e+07
4.64173e+07
4.72103e+07
4.84242e+07
4.92376e+07
5.04255e+07
5.12516e+07
5.24079e+07
5.32383e+07
5.47051e+07
5.51911e+07
5.63025e+07
3.80711e+07
3.89456e+07
3.95192e+07
4.05255e+07
4.11286e+07
4.21313e+07
4.27598e+07
4.37511e+07
4.44002e+07
4.53735e+07
4.60374e+07
4.69871e+07
4.76591e+07
4.85799e+07
4.92526e+07
5.01396e+07
5.08042e+07
5.16524e+07
5.2278e+07
5.31019e+07
3.83843e+07
3.90474e+07
3.94637e+07
4.02481e+07
4.06934e+07
4.14722e+07
4.19371e+07
4.27055e+07
4.31817e+07
4.39346e+07
4.44138e+07
4.51466e+07
4.56195e+07
4.63283e+07
4.67843e+07
4.74664e+07
4.78928e+07
4.85479e+07
4.89292e+07
4.95191e+07
3.87563e+07
3.9205e+07
3.95754e+07
4.01263e+07
4.04954e+07
4.10533e+07
4.14224e+07
4.19743e+07
4.23414e+07
4.2877e+07
4.32378e+07
4.37485e+07
4.40965e+07
4.45745e+07
4.49017e+07
4.53398e+07
4.56364e+07
4.60282e+07
4.62827e+07
4.66204e+07
3.89838e+07
3.95645e+07
3.94592e+07
3.97926e+07
4.00757e+07
4.04265e+07
4.06888e+07
4.10422e+07
4.12861e+07
4.16303e+07
4.18545e+07
4.21788e+07
4.23784e+07
4.26736e+07
4.28411e+07
4.30986e+07
4.32243e+07
4.34355e+07
4.35134e+07
4.36641e+07
3.91686e+07
3.9307e+07
3.94121e+07
3.96801e+07
3.97929e+07
4.00448e+07
4.01581e+07
4.03897e+07
4.0498e+07
4.07006e+07
4.08005e+07
4.09701e+07
4.10511e+07
4.11798e+07
4.12334e+07
4.13091e+07
4.13289e+07
4.13588e+07
4.13179e+07
4.12879e+07
3.93132e+07
3.93555e+07
3.93552e+07
3.94634e+07
3.94734e+07
3.95678e+07
3.95785e+07
3.96581e+07
3.9659e+07
3.9722e+07
3.97151e+07
3.97451e+07
3.97205e+07
3.97109e+07
3.96595e+07
3.96e+07
3.94639e+07
3.93889e+07
3.92001e+07
3.90531e+07
3.94712e+07
3.94094e+07
3.93296e+07
3.93276e+07
3.92376e+07
3.92419e+07
3.91362e+07
3.91493e+07
3.90164e+07
3.89404e+07
3.88666e+07
3.87902e+07
3.86715e+07
3.85823e+07
3.84116e+07
3.81357e+07
3.80608e+07
3.78797e+07
3.75899e+07
3.73292e+07
3.96587e+07
3.94837e+07
3.93019e+07
3.91655e+07
3.89955e+07
3.88484e+07
3.87019e+07
3.85336e+07
3.83733e+07
3.82141e+07
3.80609e+07
3.78785e+07
3.76992e+07
3.7509e+07
3.72924e+07
3.70803e+07
3.68582e+07
3.65584e+07
3.62675e+07
3.58993e+07
3.9823e+07
3.95435e+07
3.92763e+07
3.90218e+07
3.8773e+07
3.85115e+07
3.82952e+07
3.80217e+07
3.7828e+07
3.76438e+07
3.73748e+07
3.71817e+07
3.69266e+07
3.67194e+07
3.64631e+07
3.6226e+07
3.59506e+07
3.56796e+07
3.534e+07
3.50016e+07
3.99815e+07
3.96301e+07
3.91755e+07
3.88598e+07
3.83846e+07
3.81106e+07
3.78996e+07
3.74664e+07
3.72074e+07
3.68732e+07
3.66224e+07
3.63456e+07
3.61173e+07
3.58839e+07
3.5679e+07
3.54739e+07
3.52826e+07
3.50802e+07
3.48731e+07
3.46297e+07
4.01115e+07
3.96249e+07
3.90771e+07
3.86114e+07
3.80545e+07
3.77573e+07
3.73464e+07
3.68376e+07
3.65034e+07
3.61414e+07
3.58362e+07
3.55764e+07
3.53346e+07
3.51632e+07
3.49957e+07
3.49037e+07
3.48041e+07
3.47714e+07
3.47076e+07
3.46775e+07
1.25205e+08
1.17526e+08
1.10931e+08
1.04341e+08
9.86035e+07
9.27484e+07
8.72985e+07
8.17124e+07
7.64116e+07
7.0986e+07
6.57451e+07
6.03737e+07
5.50981e+07
4.96752e+07
4.4264e+07
3.86807e+07
3.30236e+07
2.71636e+07
2.11375e+07
1.48649e+07
1.10362e+08
1.07974e+08
1.0425e+08
9.95135e+07
9.48799e+07
8.98607e+07
8.48873e+07
8.02399e+07
7.53895e+07
7.07208e+07
6.59001e+07
6.11709e+07
5.63031e+07
5.14609e+07
4.64659e+07
4.14469e+07
3.62386e+07
3.09691e+07
2.54541e+07
1.98106e+07
9.18116e+07
9.18646e+07
9.14563e+07
9.10325e+07
9.04797e+07
8.91236e+07
8.52989e+07
8.08351e+07
7.64039e+07
7.21647e+07
6.78654e+07
6.37197e+07
5.94358e+07
5.52782e+07
5.09172e+07
4.66584e+07
4.21366e+07
3.76943e+07
3.29276e+07
2.81293e+07
7.63168e+07
7.76754e+07
7.77938e+07
7.84883e+07
7.85313e+07
7.91073e+07
7.92273e+07
7.90321e+07
7.58142e+07
7.24223e+07
6.9036e+07
6.57751e+07
6.23638e+07
5.91365e+07
5.56625e+07
5.23894e+07
4.88029e+07
4.54145e+07
4.16545e+07
3.79384e+07
6.17683e+07
6.33341e+07
6.35911e+07
6.48394e+07
6.53331e+07
6.67874e+07
6.7187e+07
6.87811e+07
6.92391e+07
6.86842e+07
6.68783e+07
6.57012e+07
6.36527e+07
6.22e+07
6.002e+07
5.8397e+07
5.61479e+07
5.44395e+07
5.21629e+07
5.02796e+07
5.30972e+07
5.49399e+07
5.52567e+07
5.64238e+07
5.7031e+07
5.85623e+07
5.94998e+07
6.13242e+07
6.18425e+07
6.30865e+07
6.29805e+07
6.34824e+07
6.30063e+07
6.30582e+07
6.23855e+07
6.22168e+07
6.1494e+07
6.12972e+07
6.06645e+07
6.04836e+07
4.87578e+07
5.10629e+07
5.18808e+07
5.29464e+07
5.38235e+07
5.5254e+07
5.63737e+07
5.81782e+07
5.95235e+07
6.10199e+07
6.19583e+07
6.3068e+07
6.36661e+07
6.45064e+07
6.49016e+07
6.56248e+07
6.59885e+07
6.67718e+07
6.73e+07
6.8254e+07
4.46926e+07
4.77072e+07
4.8995e+07
5.05726e+07
5.17785e+07
5.33563e+07
5.46115e+07
5.62629e+07
5.75428e+07
5.92043e+07
6.04206e+07
6.20079e+07
6.31506e+07
6.4673e+07
6.58005e+07
6.73345e+07
6.85533e+07
7.02201e+07
7.16642e+07
7.35689e+07
3.89405e+07
4.21734e+07
4.45993e+07
4.67878e+07
4.89366e+07
5.09867e+07
5.28954e+07
5.48835e+07
5.66266e+07
5.85474e+07
6.01642e+07
6.20178e+07
6.35486e+07
6.53633e+07
6.68778e+07
6.87043e+07
7.03061e+07
7.22004e+07
7.40201e+07
7.59945e+07
3.39877e+07
3.60663e+07
3.84046e+07
4.05336e+07
4.27564e+07
4.50474e+07
4.72165e+07
4.95708e+07
5.17163e+07
5.41003e+07
5.62304e+07
5.86468e+07
6.07978e+07
6.32665e+07
6.55044e+07
6.80611e+07
7.04844e+07
7.31657e+07
7.59079e+07
7.87175e+07
)
;

boundaryField
{
    back
    {
        type            empty;
    }
    left
    {
        type            symmetry;
    }
    hole
    {
        type            zeroGradient;
    }
    front
    {
        type            empty;
    }
    down
    {
        type            symmetry;
    }
    right
    {
        type            zeroGradient;
    }
    up
    {
        type            zeroGradient;
    }
}


// ************************************************************************* //
