/*--------------------------------*- C++ -*----------------------------------*\
| =========                 |                                                 |
| \\      /  F ield         | OpenFOAM: The Open Source CFD Toolbox           |
|  \\    /   O peration     | Version:  v2012                                 |
|   \\  /    A nd           | Website:  www.openfoam.com                      |
|    \\/     M anipulation  |                                                 |
\*---------------------------------------------------------------------------*/
FoamFile
{
    version     2.0;
    format      ascii;
    class       volScalarField;
    location    "1";
    object      epsilonEq;
}
// * * * * * * * * * * * * * * * * * * * * * * * * * * * * * * * * * * * * * //

dimensions      [0 0 0 0 0 0 0];


internalField   nonuniform List<scalar> 
6720
(
1.59514e-05
6.62682e-06
6.84118e-06
7.13908e-06
5.43017e-06
1.05497e-05
3.18038e-06
6.27853e-06
7.57785e-06
5.01319e-06
9.64935e-06
6.72069e-06
1.04341e-05
5.93868e-06
1.56801e-05
6.8487e-06
5.24122e-06
9.80872e-06
2.9806e-06
7.08752e-06
1.14667e-05
5.72745e-06
1.08521e-05
1.15096e-05
1.11464e-05
6.32568e-06
6.57505e-06
7.54689e-06
5.47775e-06
7.28192e-06
3.26435e-06
7.43676e-06
7.23076e-06
6.15606e-06
1.18818e-05
1.14801e-05
1.21335e-05
5.9105e-06
1.10287e-05
7.22606e-06
5.36384e-06
4.86806e-06
6.02875e-06
7.89918e-06
6.9089e-06
7.51925e-06
1.15664e-05
8.55255e-06
1.31316e-05
6.42134e-06
7.68226e-06
7.38993e-06
7.07052e-06
5.15944e-06
6.80022e-06
7.99892e-06
7.6437e-06
8.37631e-06
1.27412e-05
9.07356e-06
1.20566e-05
6.77469e-06
1.19946e-05
9.18697e-06
7.4481e-06
7.33554e-06
7.77226e-06
8.79333e-06
8.46637e-06
8.71602e-06
1.33959e-05
1.22318e-05
1.42622e-05
9.80272e-06
1.00061e-05
9.09899e-06
1.11802e-05
6.89214e-06
6.5129e-06
1.31498e-05
7.36491e-06
8.80584e-06
1.60115e-05
1.28202e-05
1.28004e-05
9.67692e-06
1.22381e-05
8.75157e-06
1.11899e-05
1.1804e-05
6.50628e-06
1.29271e-05
1.22545e-05
8.41329e-06
1.5327e-05
1.32597e-05
1.33541e-05
8.95292e-06
1.49799e-05
8.29177e-06
3.7253e-06
3.85031e-06
5.82606e-06
6.13251e-06
6.10958e-06
6.87204e-06
1.10433e-05
1.07296e-05
1.14729e-05
7.48081e-06
8.00463e-06
8.16937e-06
2.72654e-06
6.44834e-06
4.30034e-06
7.16508e-06
7.65595e-06
7.22512e-06
1.142e-05
7.40196e-06
1.2372e-05
6.33739e-06
7.92125e-06
7.05356e-06
3.44905e-06
8.01939e-06
4.77455e-06
7.649e-06
7.43431e-06
7.81523e-06
1.20975e-05
1.15649e-05
1.182e-05
7.30839e-06
1.12316e-05
7.95613e-06
5.24794e-06
5.01315e-06
5.73123e-06
7.33032e-06
6.42872e-06
6.67815e-06
1.20837e-05
8.00586e-06
1.26716e-05
7.71563e-06
8.51659e-06
8.26682e-06
4.70435e-06
8.18029e-06
5.06133e-06
8.02013e-06
1.01076e-05
7.49922e-06
1.36462e-05
1.16773e-05
1.11413e-05
6.98844e-06
1.04135e-05
9.34637e-06
7.97066e-06
7.67132e-06
7.97104e-06
1.04599e-05
7.49233e-06
8.58247e-06
1.31943e-05
9.81326e-06
1.32877e-05
9.97974e-06
9.74786e-06
9.41657e-06
1.17262e-05
7.3978e-06
6.50534e-06
1.37619e-05
7.92332e-06
8.9195e-06
1.64141e-05
1.24974e-05
1.23403e-05
9.53412e-06
1.20686e-05
8.94697e-06
1.18321e-05
1.24279e-05
6.53844e-06
1.35771e-05
1.27528e-05
8.31573e-06
1.48606e-05
1.29233e-05
1.34028e-05
7.86076e-06
1.43916e-05
8.71137e-06
3.62613e-06
4.86829e-06
3.26084e-06
7.26177e-06
8.75929e-06
7.22284e-06
1.45361e-05
8.54227e-06
1.23214e-05
7.37875e-06
7.92119e-06
7.14277e-06
3.27503e-06
1.06633e-05
4.08328e-06
8.10989e-06
5.89928e-06
6.04031e-06
1.14946e-05
1.07145e-05
1.33072e-05
7.14619e-06
7.99693e-06
7.47852e-06
3.80223e-06
5.72703e-06
4.46335e-06
6.52054e-06
6.36472e-06
6.34045e-06
1.15531e-05
9.9967e-06
1.17168e-05
6.89409e-06
1.11873e-05
7.73552e-06
5.51e-06
8.19776e-06
5.6505e-06
7.30904e-06
5.54607e-06
6.61727e-06
1.1187e-05
8.01144e-06
1.2425e-05
7.07103e-06
8.38466e-06
7.81555e-06
4.91581e-06
8.2847e-06
5.1338e-06
7.847e-06
9.37452e-06
7.28368e-06
1.26183e-05
1.09825e-05
1.09213e-05
7.00002e-06
1.00949e-05
9.40747e-06
8.26098e-06
7.63896e-06
8.40705e-06
1.00349e-05
7.13636e-06
8.14895e-06
1.21726e-05
9.22394e-06
1.31357e-05
1.00818e-05
9.72009e-06
9.35035e-06
1.22017e-05
7.4387e-06
6.68079e-06
1.39208e-05
7.49723e-06
8.68768e-06
1.56904e-05
1.18851e-05
1.22602e-05
9.87201e-06
1.213e-05
9.11334e-06
1.22369e-05
1.2587e-05
6.65158e-06
1.34118e-05
1.27872e-05
7.4617e-06
1.37741e-05
1.2113e-05
1.37478e-05
7.60287e-06
1.4592e-05
7.41514e-06
3.53577e-06
9.6703e-06
3.47043e-06
7.57667e-06
7.09628e-06
7.83839e-06
1.47244e-05
8.82218e-06
1.29524e-05
7.88264e-06
8.31283e-06
7.42652e-06
5.87143e-06
4.37328e-06
3.92562e-06
8.02383e-06
6.28738e-06
6.37984e-06
1.20487e-05
1.14737e-05
1.38635e-05
7.83338e-06
8.51434e-06
7.83442e-06
4.13483e-06
5.2557e-06
4.32248e-06
6.65493e-06
6.49537e-06
6.28362e-06
1.20363e-05
9.97405e-06
1.18028e-05
7.04088e-06
1.12132e-05
7.89671e-06
5.50517e-06
7.26127e-06
5.68727e-06
7.67684e-06
5.42349e-06
6.60054e-06
1.12029e-05
8.09828e-06
1.25017e-05
7.2194e-06
8.52787e-06
7.97653e-06
5.23402e-06
8.41327e-06
5.43927e-06
8.05442e-06
9.24026e-06
7.11025e-06
1.23282e-05
1.04431e-05
1.09308e-05
7.15983e-06
1.00841e-05
9.72345e-06
8.50342e-06
7.75399e-06
8.80041e-06
1.01628e-05
7.38764e-06
8.05338e-06
1.15892e-05
9.06187e-06
1.32457e-05
1.02576e-05
9.89898e-06
9.58991e-06
1.23038e-05
7.58416e-06
6.78971e-06
1.37972e-05
7.30219e-06
8.07431e-06
1.48861e-05
1.09865e-05
1.23127e-05
1.00712e-05
1.23931e-05
9.28358e-06
1.24517e-05
1.35402e-05
6.85922e-06
1.38717e-05
1.36001e-05
7.96281e-06
1.47385e-05
1.34e-05
1.40786e-05
7.59195e-06
1.46983e-05
7.30811e-06
3.21135e-06
9.09509e-06
3.4327e-06
7.74868e-06
6.79113e-06
8.16304e-06
1.47429e-05
9.17288e-06
1.3393e-05
8.03024e-06
8.49768e-06
7.54347e-06
5.46468e-06
4.56712e-06
3.77965e-06
7.82329e-06
6.4284e-06
6.6368e-06
1.24954e-05
1.20555e-05
1.41579e-05
8.14479e-06
8.84529e-06
7.95938e-06
3.97432e-06
5.652e-06
3.92567e-06
6.81297e-06
6.76402e-06
6.39124e-06
1.25138e-05
1.02311e-05
1.18656e-05
7.17916e-06
1.12753e-05
8.03476e-06
5.79688e-06
7.00284e-06
5.82051e-06
7.76357e-06
5.29992e-06
6.50953e-06
1.12927e-05
8.12864e-06
1.25961e-05
7.39041e-06
8.7228e-06
8.15223e-06
5.60419e-06
8.86199e-06
5.64036e-06
8.16947e-06
9.52846e-06
7.01086e-06
1.23261e-05
1.0351e-05
1.09193e-05
7.34056e-06
1.01161e-05
9.99576e-06
8.93822e-06
7.88143e-06
9.23141e-06
1.04679e-05
7.60942e-06
8.18154e-06
1.15837e-05
9.10888e-06
1.34406e-05
1.06981e-05
1.02085e-05
9.80901e-06
1.32737e-05
7.94775e-06
7.05586e-06
1.44892e-05
7.52665e-06
8.3104e-06
1.57837e-05
1.11665e-05
1.22857e-05
1.04178e-05
1.25466e-05
9.41528e-06
1.3415e-05
1.3713e-05
7.08295e-06
1.44543e-05
1.46768e-05
8.01947e-06
1.53538e-05
1.41247e-05
1.43728e-05
7.65733e-06
1.47925e-05
7.35922e-06
2.95222e-06
8.70178e-06
3.44212e-06
7.86667e-06
6.43861e-06
8.38656e-06
1.48906e-05
9.35155e-06
1.37634e-05
8.11914e-06
8.62762e-06
7.6622e-06
5.02594e-06
4.52821e-06
3.68872e-06
7.80487e-06
6.63907e-06
6.96543e-06
1.28786e-05
1.24785e-05
1.43553e-05
8.34925e-06
9.01597e-06
8.06228e-06
4.1631e-06
5.94605e-06
3.87697e-06
7.12478e-06
6.99547e-06
6.65219e-06
1.28441e-05
1.03401e-05
1.1859e-05
7.24861e-06
1.13497e-05
8.14285e-06
6.06498e-06
6.97739e-06
6.00255e-06
7.9474e-06
5.34529e-06
6.55339e-06
1.12814e-05
8.25377e-06
1.26223e-05
7.50135e-06
8.82432e-06
8.31022e-06
5.92125e-06
9.23032e-06
5.86663e-06
8.37544e-06
9.96021e-06
7.05644e-06
1.23217e-05
1.04128e-05
1.08681e-05
7.44122e-06
1.01275e-05
1.0271e-05
9.29738e-06
8.09872e-06
9.57952e-06
1.0794e-05
7.86383e-06
8.27507e-06
1.15236e-05
9.09172e-06
1.35584e-05
1.10572e-05
1.04193e-05
9.97794e-06
1.34394e-05
8.17613e-06
7.22713e-06
1.54268e-05
7.65022e-06
8.37241e-06
1.63246e-05
1.11354e-05
1.24268e-05
1.08192e-05
1.28163e-05
9.63112e-06
1.35204e-05
1.45234e-05
7.2598e-06
1.53879e-05
1.51094e-05
8.0579e-06
1.57021e-05
1.45345e-05
1.46782e-05
7.80692e-06
1.49233e-05
7.50004e-06
2.7966e-06
8.40306e-06
3.51079e-06
8.02489e-06
6.06425e-06
8.61678e-06
1.5158e-05
9.50942e-06
1.41425e-05
8.26612e-06
8.78849e-06
7.87467e-06
4.65813e-06
4.43662e-06
3.74954e-06
7.86415e-06
6.83417e-06
7.28929e-06
1.32824e-05
1.28772e-05
1.4562e-05
8.57047e-06
9.12015e-06
8.24927e-06
4.42014e-06
6.21031e-06
4.0392e-06
7.44718e-06
7.26634e-06
6.93316e-06
1.31328e-05
1.04888e-05
1.18132e-05
7.28555e-06
1.14735e-05
8.25288e-06
6.33071e-06
7.11559e-06
6.23866e-06
8.17766e-06
5.50354e-06
6.67628e-06
1.12837e-05
8.36308e-06
1.26134e-05
7.57838e-06
8.86991e-06
8.4656e-06
6.23813e-06
9.63189e-06
6.15115e-06
8.60135e-06
1.0318e-05
7.16011e-06
1.2309e-05
1.0467e-05
1.07513e-05
7.50524e-06
1.0149e-05
1.04938e-05
9.689e-06
8.35433e-06
9.91728e-06
1.10666e-05
8.13536e-06
8.39096e-06
1.13926e-05
9.05926e-06
1.36741e-05
1.14002e-05
1.06524e-05
1.01817e-05
1.42427e-05
8.4842e-06
7.38135e-06
1.57738e-05
7.78141e-06
8.43076e-06
1.65596e-05
1.10116e-05
1.24475e-05
1.10657e-05
1.29585e-05
9.75004e-06
1.4291e-05
1.49921e-05
7.39372e-06
1.57049e-05
1.55725e-05
8.11707e-06
1.59387e-05
1.48925e-05
1.50515e-05
8.05182e-06
1.5155e-05
7.7381e-06
2.79491e-06
8.19508e-06
3.63908e-06
8.23575e-06
5.71775e-06
8.85923e-06
1.5577e-05
9.68119e-06
1.45642e-05
8.5515e-06
9.02917e-06
8.20825e-06
4.38613e-06
4.4261e-06
4.035e-06
7.99024e-06
6.99766e-06
7.60837e-06
1.3831e-05
1.33648e-05
1.4847e-05
8.88931e-06
9.22737e-06
8.55495e-06
4.74201e-06
6.48818e-06
4.39177e-06
7.72646e-06
7.61827e-06
7.20903e-06
1.34689e-05
1.08119e-05
1.17716e-05
7.35386e-06
1.17006e-05
8.41093e-06
6.59623e-06
7.37464e-06
6.55825e-06
8.43786e-06
5.78361e-06
6.89206e-06
1.12843e-05
8.32658e-06
1.25924e-05
7.66837e-06
8.84427e-06
8.64419e-06
6.55012e-06
9.96816e-06
6.51474e-06
8.84176e-06
1.06971e-05
7.34395e-06
1.22689e-05
1.05931e-05
1.04683e-05
7.50724e-06
1.01779e-05
1.06532e-05
9.9986e-06
8.62743e-06
1.02567e-05
1.13398e-05
8.49231e-06
8.53397e-06
1.11779e-05
8.95213e-06
1.35814e-05
1.16201e-05
1.07713e-05
1.02958e-05
1.47059e-05
8.6921e-06
7.57522e-06
1.61564e-05
7.86314e-06
8.45051e-06
1.66671e-05
1.07632e-05
1.22507e-05
1.11878e-05
1.2866e-05
9.77506e-06
1.47157e-05
1.52555e-05
7.57234e-06
1.60604e-05
1.59372e-05
8.14586e-06
1.60447e-05
1.50782e-05
1.5643e-05
8.37599e-06
1.57701e-05
8.02957e-06
2.98725e-06
8.01278e-06
3.87895e-06
8.3798e-06
5.3132e-06
9.01464e-06
1.63272e-05
9.67145e-06
1.50513e-05
9.24449e-06
9.37668e-06
8.69317e-06
4.19844e-06
4.62147e-06
4.48379e-06
7.94251e-06
7.08072e-06
7.76682e-06
1.45696e-05
1.40456e-05
1.53171e-05
9.40862e-06
9.42128e-06
9.01627e-06
5.13632e-06
6.81842e-06
4.78248e-06
7.86109e-06
8.04208e-06
7.2843e-06
1.39696e-05
1.16138e-05
1.22273e-05
7.59706e-06
1.22212e-05
8.73464e-06
6.91057e-06
7.77684e-06
6.94151e-06
8.64482e-06
6.1398e-06
7.11577e-06
1.12499e-05
7.85838e-06
1.29873e-05
7.87008e-06
8.72507e-06
8.90896e-06
6.87243e-06
1.02452e-05
6.90179e-06
9.06025e-06
1.11057e-05
7.58106e-06
1.21934e-05
1.08486e-05
1.01291e-05
7.50299e-06
1.0722e-05
1.08608e-05
1.01693e-05
8.90884e-06
1.06441e-05
1.1529e-05
8.89549e-06
9.04304e-06
1.11158e-05
9.10943e-06
1.31697e-05
1.1625e-05
1.07282e-05
1.04345e-05
1.49701e-05
8.82199e-06
7.94811e-06
1.63961e-05
7.93348e-06
8.67891e-06
1.65123e-05
1.03186e-05
1.1505e-05
1.10868e-05
1.20936e-05
9.79644e-06
1.49555e-05
1.52962e-05
7.92564e-06
1.63084e-05
1.62337e-05
8.33629e-06
1.58364e-05
1.50301e-05
1.62239e-05
8.57057e-06
1.58522e-05
8.14293e-06
3.82264e-06
7.08178e-06
4.29505e-06
8.89309e-06
4.12294e-06
9.4004e-06
1.83206e-05
9.84797e-06
1.40751e-05
7.51292e-06
7.41922e-06
7.64679e-06
5.2158e-06
3.98978e-06
4.72091e-06
9.08792e-06
8.14568e-06
9.13269e-06
1.68123e-05
1.67724e-05
1.37199e-05
7.58685e-06
1.41274e-05
8.96715e-06
5.31807e-06
7.87011e-06
6.8876e-06
8.80989e-06
5.61704e-06
8.83299e-06
1.65242e-05
9.12664e-06
1.16372e-05
6.99482e-06
7.03335e-06
8.66279e-06
5.35987e-06
6.57001e-06
7.22444e-06
7.04351e-06
7.89174e-06
7.4039e-06
1.181e-05
1.1261e-05
1.18739e-05
7.25187e-06
1.17773e-05
1.12921e-05
6.86563e-06
8.59865e-06
1.06345e-05
9.09944e-06
7.94179e-06
9.53784e-06
1.28942e-05
9.09262e-06
1.17175e-05
6.55433e-06
9.48103e-06
1.12425e-05
6.96593e-06
1.06021e-05
1.08937e-05
8.65028e-06
1.13289e-05
9.21259e-06
1.06847e-05
1.10237e-05
1.32811e-05
8.68123e-06
1.25352e-05
1.04209e-05
8.06577e-06
1.65115e-05
8.07091e-06
1.03625e-05
1.75763e-05
8.69524e-06
1.39053e-05
1.61598e-05
1.43696e-05
1.27951e-05
1.24632e-05
1.62195e-05
1.50962e-05
1.11103e-05
1.54888e-05
1.58231e-05
1.00485e-05
1.23896e-05
1.36747e-05
1.00378e-05
1.43631e-05
7.7765e-06
8.35166e-06
8.68911e-06
4.00499e-06
4.30396e-06
3.76296e-06
7.25679e-06
2.2516e-05
6.31275e-06
1.01445e-05
1.97037e-05
1.4826e-05
7.9421e-06
1.3928e-05
8.85241e-06
5.50279e-06
8.36893e-06
5.45298e-06
9.13835e-06
2.48114e-05
8.6059e-06
1.62835e-05
2.9481e-05
1.4941e-05
7.22291e-06
7.87701e-06
8.20166e-06
4.73385e-06
4.10938e-06
4.75255e-06
8.27103e-06
7.41995e-06
8.22229e-06
1.29293e-05
1.24929e-05
1.51621e-05
8.44265e-06
1.53745e-05
9.33677e-06
4.19341e-06
8.52669e-06
4.64388e-06
8.77233e-06
6.10597e-06
8.71811e-06
1.51605e-05
1.08188e-05
1.56544e-05
7.98687e-06
8.88829e-06
8.9124e-06
4.06105e-06
3.30665e-06
4.89493e-06
8.92485e-06
7.82196e-06
9.21979e-06
1.48329e-05
1.43139e-05
1.64777e-05
8.2778e-06
1.52214e-05
9.30694e-06
3.72954e-06
8.74205e-06
4.57686e-06
9.8677e-06
7.01004e-06
1.03685e-05
1.76519e-05
1.31539e-05
1.71583e-05
8.36111e-06
9.6053e-06
9.30812e-06
3.21503e-06
2.51613e-06
5.01242e-06
1.00496e-05
8.33182e-06
1.0865e-05
1.74089e-05
1.65737e-05
1.79902e-05
8.72923e-06
1.77419e-05
9.72191e-06
2.52598e-06
8.72451e-06
4.49149e-06
9.73531e-06
6.74293e-06
1.05457e-05
1.80152e-05
1.22435e-05
9.70898e-06
6.2312e-06
1.7031e-05
6.38184e-06
4.43741e-06
1.55952e-05
4.7752e-06
7.897e-06
2.12995e-05
6.99809e-06
1.49807e-05
1.47829e-05
1.23512e-05
6.74511e-06
1.17007e-05
7.42406e-06
6.69026e-06
6.27004e-06
5.98267e-06
9.77486e-06
8.20754e-06
8.84139e-06
1.33085e-05
1.18551e-05
1.12952e-05
6.84551e-06
6.01908e-06
7.12854e-06
3.77144e-06
1.28546e-05
3.73201e-06
8.11269e-06
4.88508e-06
7.18467e-06
1.22014e-05
2.24384e-05
1.25322e-05
5.93867e-06
1.12037e-05
7.70074e-06
6.1636e-06
1.26259e-05
6.11183e-06
8.58422e-06
1.91482e-05
7.404e-06
1.25866e-05
9.69987e-06
1.26018e-05
5.54815e-06
7.3905e-06
5.79463e-06
3.46654e-06
1.40902e-05
5.20918e-06
7.42414e-06
6.31769e-06
7.98806e-06
1.36829e-05
1.10511e-05
1.2936e-05
8.04328e-06
1.29184e-05
9.7962e-06
7.30637e-06
1.60747e-05
6.37039e-06
1.0439e-05
1.69213e-05
9.14215e-06
1.49683e-05
1.30816e-05
1.34676e-05
7.29633e-06
8.53506e-06
7.24914e-06
6.7296e-06
6.4423e-06
1.90856e-06
9.64554e-06
3.96988e-06
7.54046e-06
1.42796e-05
9.40104e-06
1.3039e-05
8.97935e-06
1.90635e-05
7.19177e-06
8.47652e-06
8.13216e-06
5.52332e-06
1.23321e-05
1.12922e-05
1.0275e-05
1.73861e-05
1.5921e-05
1.15425e-05
6.42426e-06
1.67383e-05
6.94689e-06
5.41839e-06
1.4889e-05
4.84653e-06
9.41652e-06
1.25534e-05
8.89547e-06
1.41417e-05
1.20723e-05
1.2607e-05
7.66368e-06
9.71185e-06
8.75425e-06
6.95538e-06
7.55869e-06
6.40816e-06
9.38386e-06
8.43626e-06
8.25989e-06
1.3498e-05
1.16104e-05
1.18044e-05
6.4031e-06
7.73311e-06
7.16134e-06
5.33786e-06
6.60403e-06
3.89072e-06
7.65312e-06
4.76596e-06
6.06499e-06
1.25463e-05
8.51734e-06
1.28723e-05
6.92651e-06
1.10254e-05
8.47327e-06
7.48709e-06
7.36013e-06
6.29802e-06
1.01573e-05
9.45358e-06
8.52215e-06
1.30032e-05
1.24125e-05
1.25211e-05
7.62135e-06
7.56621e-06
8.44811e-06
4.17347e-06
1.46437e-05
3.96941e-06
8.29302e-06
1.86152e-05
7.75973e-06
1.3126e-05
2.01467e-05
1.35698e-05
7.49396e-06
1.23339e-05
1.07459e-05
6.1823e-06
8.62396e-06
8.15325e-06
8.48207e-06
8.06283e-06
8.8158e-06
1.34289e-05
1.10795e-05
1.35373e-05
6.58286e-06
7.44292e-06
7.57393e-06
6.09127e-06
1.67955e-05
6.14466e-06
9.38893e-06
1.49068e-05
1.0092e-05
1.48078e-05
1.2137e-05
1.43593e-05
1.10074e-05
1.84876e-05
1.00021e-05
9.35861e-06
1.13733e-05
6.79862e-06
1.20743e-05
1.24317e-05
1.08384e-05
1.78469e-05
1.01668e-05
1.2435e-05
7.96182e-06
1.51814e-05
8.39021e-06
5.72555e-06
6.61526e-06
6.23394e-06
8.30546e-06
7.77097e-06
7.44748e-06
1.38231e-05
1.27006e-05
1.28583e-05
7.78404e-06
9.82684e-06
9.33921e-06
7.12913e-06
8.91395e-06
7.12015e-06
9.60089e-06
8.31337e-06
8.43196e-06
1.49145e-05
1.06176e-05
1.17651e-05
6.71197e-06
8.1276e-06
7.85044e-06
5.78336e-06
4.80626e-06
6.09139e-06
8.89045e-06
7.08753e-06
8.372e-06
1.40576e-05
1.30798e-05
1.30077e-05
7.70914e-06
1.13973e-05
9.76722e-06
6.68779e-06
8.89263e-06
7.49827e-06
9.62893e-06
8.31911e-06
8.9848e-06
1.47673e-05
1.00625e-05
1.22727e-05
6.91505e-06
8.16633e-06
9.05308e-06
4.84305e-06
6.05163e-06
6.5797e-06
8.00019e-06
6.56742e-06
8.31934e-06
1.40351e-05
1.12928e-05
1.35445e-05
7.71814e-06
1.18714e-05
1.09263e-05
6.90022e-06
9.16345e-06
9.15941e-06
1.00878e-05
9.3965e-06
1.0036e-05
1.38899e-05
1.09298e-05
1.29803e-05
6.68212e-06
7.71815e-06
1.03277e-05
5.78795e-06
7.39283e-06
9.19739e-06
1.01838e-05
8.01623e-06
1.10892e-05
1.55838e-05
1.26436e-05
1.36986e-05
1.05381e-05
1.53337e-05
1.14794e-05
1.21941e-05
1.21885e-05
1.05141e-05
1.51517e-05
1.00634e-05
1.1206e-05
1.71798e-05
9.42159e-06
1.25672e-05
7.91821e-06
1.39092e-05
7.8632e-06
7.07561e-06
9.59749e-06
6.19181e-06
9.43832e-06
8.07011e-06
7.72037e-06
1.31656e-05
8.56882e-06
1.31606e-05
7.94289e-06
9.80243e-06
9.02334e-06
7.80991e-06
8.67674e-06
6.79885e-06
9.89582e-06
1.05909e-05
7.53082e-06
1.36037e-05
1.45013e-05
1.20514e-05
7.15045e-06
8.36949e-06
8.27543e-06
6.07218e-06
5.57549e-06
6.02699e-06
8.4968e-06
5.94259e-06
7.20026e-06
1.23245e-05
1.08618e-05
1.30882e-05
7.44596e-06
1.12573e-05
9.45874e-06
6.843e-06
8.71973e-06
7.56449e-06
9.00538e-06
8.21926e-06
8.12097e-06
1.35552e-05
9.94607e-06
1.24143e-05
6.74479e-06
8.41508e-06
8.89642e-06
5.35564e-06
6.34551e-06
6.73624e-06
8.24273e-06
5.80126e-06
7.86896e-06
1.25449e-05
1.09749e-05
1.35111e-05
7.3114e-06
1.14334e-05
1.09535e-05
7.30309e-06
8.95664e-06
8.66882e-06
1.11196e-05
8.09483e-06
9.29307e-06
1.35327e-05
1.04282e-05
1.27385e-05
6.65281e-06
7.60047e-06
1.04615e-05
7.58522e-06
7.31881e-06
6.37784e-06
1.05722e-05
1.34189e-05
9.87519e-06
1.43147e-05
1.19191e-05
1.34753e-05
1.10408e-05
1.38117e-05
1.1908e-05
1.33482e-05
1.21247e-05
1.06921e-05
1.50015e-05
9.9105e-06
1.0828e-05
1.62442e-05
8.75833e-06
1.28877e-05
8.39655e-06
1.31661e-05
8.208e-06
7.66915e-06
9.56646e-06
6.23664e-06
9.80235e-06
8.44304e-06
7.65136e-06
1.37042e-05
9.31885e-06
1.33404e-05
8.20503e-06
9.84954e-06
8.95458e-06
8.17241e-06
8.13919e-06
6.5126e-06
1.04177e-05
9.70099e-06
7.70146e-06
1.39981e-05
1.37081e-05
1.22229e-05
7.43345e-06
8.66208e-06
8.39554e-06
6.67589e-06
5.60276e-06
6.3791e-06
8.77002e-06
6.1174e-06
7.2126e-06
1.27234e-05
1.04468e-05
1.31062e-05
7.24992e-06
1.10763e-05
9.07516e-06
6.36167e-06
8.33283e-06
6.88232e-06
9.03674e-06
8.41898e-06
8.1615e-06
1.3392e-05
1.0235e-05
1.24463e-05
6.66541e-06
8.45171e-06
8.60077e-06
5.7566e-06
5.98826e-06
6.55364e-06
8.12445e-06
7.52874e-06
7.77318e-06
1.25263e-05
1.03652e-05
1.35538e-05
7.14405e-06
1.13149e-05
1.06594e-05
6.91777e-06
8.77624e-06
8.97076e-06
9.33428e-06
9.00193e-06
9.2066e-06
1.32833e-05
1.05678e-05
1.25668e-05
6.7309e-06
7.38427e-06
1.01352e-05
8.24637e-06
7.17322e-06
9.03226e-06
1.07001e-05
8.51794e-06
9.60458e-06
1.36181e-05
1.16697e-05
1.32621e-05
1.09936e-05
1.2635e-05
1.1439e-05
1.34425e-05
1.1101e-05
1.05749e-05
1.48695e-05
9.82544e-06
1.0307e-05
1.55886e-05
8.59132e-06
1.29669e-05
8.74927e-06
1.26142e-05
8.50863e-06
8.41786e-06
9.7903e-06
6.34228e-06
1.04431e-05
9.17046e-06
7.85678e-06
1.38798e-05
1.00831e-05
1.35399e-05
8.57854e-06
9.98808e-06
9.03648e-06
8.73642e-06
7.81557e-06
6.40765e-06
1.09455e-05
9.02459e-06
7.78724e-06
1.43304e-05
1.32267e-05
1.24043e-05
7.71015e-06
9.0028e-06
8.68544e-06
6.9248e-06
5.57615e-06
6.59503e-06
9.22269e-06
6.017e-06
7.47099e-06
1.30245e-05
1.0437e-05
1.3207e-05
7.25931e-06
1.10557e-05
8.93765e-06
5.80507e-06
8.35003e-06
6.57305e-06
8.86794e-06
8.51441e-06
8.10345e-06
1.34409e-05
1.03863e-05
1.26075e-05
6.92339e-06
8.66617e-06
8.65778e-06
5.72335e-06
5.73645e-06
6.52337e-06
8.50844e-06
5.62114e-06
7.73109e-06
1.28013e-05
1.02281e-05
1.34905e-05
6.93604e-06
1.11417e-05
1.02095e-05
6.11423e-06
8.25329e-06
8.4403e-06
8.76125e-06
8.56864e-06
8.977e-06
1.31563e-05
1.04988e-05
1.24507e-05
6.71977e-06
7.26343e-06
9.7275e-06
8.09149e-06
6.87434e-06
8.61965e-06
1.04003e-05
8.26963e-06
9.12489e-06
1.32547e-05
1.16066e-05
1.28418e-05
1.05479e-05
1.18317e-05
1.06414e-05
1.28049e-05
1.02657e-05
9.74311e-06
1.41914e-05
9.15082e-06
9.57898e-06
1.49621e-05
8.21297e-06
1.30114e-05
9.11439e-06
1.23672e-05
8.75098e-06
9.19218e-06
1.03558e-05
6.47593e-06
1.1107e-05
1.01227e-05
7.96529e-06
1.4082e-05
1.09204e-05
1.3957e-05
9.11248e-06
1.02554e-05
9.28994e-06
9.44819e-06
7.66188e-06
6.45705e-06
1.1665e-05
8.62991e-06
8.01701e-06
1.48878e-05
1.29701e-05
1.27197e-05
8.07237e-06
9.42844e-06
9.14778e-06
7.22403e-06
5.75145e-06
6.99797e-06
9.51203e-06
5.80812e-06
7.69628e-06
1.31666e-05
1.05107e-05
1.3297e-05
7.38445e-06
1.11289e-05
8.84637e-06
5.32656e-06
8.4052e-06
6.28897e-06
8.55054e-06
8.59339e-06
8.04357e-06
1.34233e-05
1.03744e-05
1.26323e-05
7.1428e-06
8.8469e-06
8.64976e-06
5.62618e-06
5.41266e-06
6.4629e-06
8.44161e-06
5.27373e-06
7.77562e-06
1.29969e-05
1.01958e-05
1.30907e-05
6.74141e-06
1.08281e-05
9.61989e-06
5.10402e-06
7.65922e-06
7.76507e-06
8.08812e-06
7.96831e-06
8.6994e-06
1.29408e-05
1.02608e-05
1.20611e-05
6.59453e-06
7.02975e-06
9.15582e-06
7.50737e-06
6.14458e-06
8.00818e-06
9.91674e-06
7.81541e-06
8.76838e-06
1.30117e-05
1.16401e-05
1.22199e-05
9.74353e-06
1.11255e-05
9.65998e-06
1.16267e-05
9.1889e-06
8.55863e-06
1.30461e-05
7.99708e-06
8.6098e-06
1.4123e-05
7.61611e-06
1.32862e-05
9.53771e-06
1.2513e-05
8.9676e-06
9.95263e-06
1.11809e-05
6.47448e-06
1.18548e-05
1.12419e-05
8.07294e-06
1.47096e-05
1.22679e-05
1.50312e-05
9.86886e-06
1.07244e-05
9.61324e-06
1.01893e-05
7.36564e-06
6.45092e-06
1.25495e-05
8.15574e-06
8.71906e-06
1.62986e-05
1.32977e-05
1.35749e-05
8.55894e-06
9.99244e-06
9.69348e-06
7.44325e-06
5.88825e-06
7.26249e-06
9.57867e-06
5.56584e-06
7.92045e-06
1.32925e-05
1.06746e-05
1.35313e-05
7.67212e-06
1.16688e-05
8.77777e-06
4.76924e-06
8.56591e-06
5.87093e-06
7.68617e-06
8.28923e-06
7.59512e-06
1.31987e-05
1.00466e-05
1.28604e-05
7.25031e-06
8.84113e-06
8.42614e-06
5.39632e-06
5.18455e-06
6.24632e-06
7.95834e-06
4.78119e-06
7.63133e-06
1.30208e-05
1.03292e-05
1.25724e-05
6.79647e-06
1.11267e-05
9.15629e-06
4.1597e-06
6.95596e-06
6.94532e-06
7.14194e-06
7.0643e-06
8.15176e-06
1.25715e-05
9.36763e-06
1.15561e-05
6.59528e-06
7.01086e-06
8.74903e-06
6.6545e-06
5.18939e-06
7.2011e-06
9.13746e-06
7.04428e-06
8.40867e-06
1.28968e-05
1.17062e-05
1.25164e-05
9.25283e-06
1.12125e-05
9.0772e-06
1.01411e-05
8.3063e-06
7.11843e-06
1.08817e-05
6.62362e-06
7.29182e-06
1.34814e-05
6.56693e-06
1.44176e-05
9.34305e-06
1.33811e-05
8.76271e-06
1.03608e-05
1.14134e-05
6.38395e-06
1.23778e-05
1.19966e-05
8.82316e-06
1.57946e-05
1.3804e-05
1.50443e-05
9.65682e-06
1.0508e-05
9.0743e-06
1.04664e-05
6.866e-06
6.37854e-06
1.25853e-05
7.3829e-06
9.24426e-06
1.57959e-05
1.27684e-05
1.36654e-05
7.79239e-06
1.28393e-05
7.49903e-06
7.15413e-06
8.72819e-06
4.25937e-06
9.37862e-06
8.42663e-06
7.31293e-06
1.33257e-05
1.02974e-05
1.34519e-05
7.07811e-06
8.57659e-06
7.00701e-06
7.11978e-06
4.91986e-06
4.31656e-06
8.18222e-06
7.7177e-06
7.14705e-06
1.23413e-05
1.13309e-05
1.29197e-05
6.81985e-06
1.24389e-05
6.47636e-06
5.44472e-06
7.02841e-06
3.29636e-06
7.943e-06
6.29043e-06
6.1215e-06
1.17467e-05
8.24991e-06
1.35817e-05
7.43601e-06
8.04305e-06
6.73176e-06
6.56848e-06
6.37124e-06
3.31204e-06
7.55516e-06
6.62561e-06
5.58111e-06
1.16405e-05
1.13086e-05
1.32505e-05
7.0564e-06
1.03199e-05
6.87195e-06
5.65017e-06
6.544e-06
4.09338e-06
7.16647e-06
6.87772e-06
6.01005e-06
1.12682e-05
1.12556e-05
1.17301e-05
7.94978e-06
7.8009e-06
8.61375e-06
8.4527e-06
7.5896e-06
4.60065e-06
8.33514e-06
4.47553e-06
5.58661e-06
1.00417e-05
5.37382e-06
1.45261e-05
7.84686e-06
8.32279e-06
8.72887e-06
4.29688e-06
5.4009e-06
4.3608e-06
7.27805e-06
6.95445e-06
6.54059e-06
1.02407e-05
9.94279e-06
1.2425e-05
7.10692e-06
1.22863e-05
7.71116e-06
6.55216e-06
8.88345e-06
5.98643e-06
7.91477e-06
5.42273e-06
6.58109e-06
1.09679e-05
7.68921e-06
9.27883e-06
6.27643e-06
9.71533e-06
7.35802e-06
4.87774e-06
8.6688e-06
6.1247e-06
7.43317e-06
8.56296e-06
6.46182e-06
1.15614e-05
7.92014e-06
1.04502e-05
6.43294e-06
8.87367e-06
8.30252e-06
5.91343e-06
9.00266e-06
6.67145e-06
7.75937e-06
9.55255e-06
6.8586e-06
1.10126e-05
1.17304e-05
1.05474e-05
6.52413e-06
1.14119e-05
8.22582e-06
5.48103e-06
9.12976e-06
6.89945e-06
8.39187e-06
9.16765e-06
7.68322e-06
1.27458e-05
9.38284e-06
1.12393e-05
6.85997e-06
9.68747e-06
9.62315e-06
6.21734e-06
9.60814e-06
7.35955e-06
8.39485e-06
1.00343e-05
7.57447e-06
1.18444e-05
1.22206e-05
1.20807e-05
8.39212e-06
1.18444e-05
1.05972e-05
6.25182e-06
1.02941e-05
7.73062e-06
8.50224e-06
9.6169e-06
7.87373e-06
1.34556e-05
1.0668e-05
1.17814e-05
6.44384e-06
9.78449e-06
9.94135e-06
6.56939e-06
6.98444e-06
8.3973e-06
9.18418e-06
1.07507e-05
8.37367e-06
1.25002e-05
1.26879e-05
1.23925e-05
7.41293e-06
1.19926e-05
8.9285e-06
6.87564e-06
9.06715e-06
9.12144e-06
9.65365e-06
1.00586e-05
9.02574e-06
1.30335e-05
1.11802e-05
1.21393e-05
6.5727e-06
1.1069e-05
9.5993e-06
6.54488e-06
9.85168e-06
8.71798e-06
9.49683e-06
1.11212e-05
8.86426e-06
1.28193e-05
1.26535e-05
1.2977e-05
8.09063e-06
1.21882e-05
1.03993e-05
7.26291e-06
9.55609e-06
9.5767e-06
1.00885e-05
1.04145e-05
9.52819e-06
1.3621e-05
1.18361e-05
1.25268e-05
6.68553e-06
1.13334e-05
1.01465e-05
6.8473e-06
1.07193e-05
9.2471e-06
9.94804e-06
1.13035e-05
9.43082e-06
1.33756e-05
1.28538e-05
1.34771e-05
8.27859e-06
1.21562e-05
1.11402e-05
7.82618e-06
9.9395e-06
1.01999e-05
1.06833e-05
1.08489e-05
1.01661e-05
1.42197e-05
1.2472e-05
1.296e-05
6.87505e-06
1.18161e-05
1.07778e-05
7.37942e-06
1.12134e-05
9.96567e-06
1.05599e-05
1.16559e-05
1.01415e-05
1.40057e-05
1.31263e-05
1.40492e-05
8.48167e-06
1.21817e-05
1.18643e-05
8.40836e-06
1.05179e-05
1.09126e-05
1.13393e-05
1.15007e-05
1.09008e-05
1.48681e-05
1.31998e-05
1.36153e-05
7.19126e-06
1.24143e-05
1.1552e-05
8.09195e-06
1.16805e-05
1.08947e-05
1.14015e-05
1.21448e-05
1.11388e-05
1.49529e-05
1.36703e-05
1.50448e-05
8.74315e-06
1.27707e-05
1.26333e-05
8.9976e-06
1.13241e-05
1.1724e-05
1.21051e-05
1.26254e-05
1.18364e-05
1.59512e-05
1.48584e-05
1.51527e-05
7.86355e-06
1.33273e-05
1.26469e-05
8.99596e-06
1.22453e-05
1.2127e-05
1.27583e-05
1.28143e-05
1.28091e-05
1.68711e-05
1.46672e-05
1.71758e-05
8.43279e-06
1.29108e-05
1.33585e-05
9.3092e-06
1.04438e-05
1.28428e-05
1.29292e-05
1.23996e-05
1.36791e-05
1.77542e-05
1.57182e-05
1.65337e-05
8.38058e-06
1.38044e-05
1.32992e-05
9.29152e-06
1.21211e-05
1.28117e-05
1.29188e-05
1.26366e-05
1.36979e-05
1.68033e-05
1.44774e-05
1.34198e-05
7.389e-06
8.16002e-06
7.94557e-06
5.77776e-06
7.23193e-06
5.2099e-06
7.91268e-06
7.84942e-06
6.81086e-06
1.16419e-05
1.0939e-05
1.2669e-05
7.62336e-06
1.19983e-05
8.61532e-06
7.7986e-06
7.74644e-06
7.09106e-06
8.95899e-06
6.42241e-06
7.18789e-06
1.16349e-05
8.02032e-06
1.0671e-05
6.49238e-06
1.12228e-05
8.84582e-06
6.01745e-06
9.18762e-06
7.50133e-06
8.14903e-06
8.71867e-06
6.97108e-06
1.12054e-05
8.89307e-06
1.11654e-05
6.61042e-06
9.47469e-06
9.31893e-06
6.35087e-06
9.37058e-06
7.87461e-06
8.33952e-06
9.94136e-06
7.5072e-06
1.12664e-05
1.16268e-05
1.14878e-05
6.67649e-06
1.1658e-05
9.64918e-06
6.67344e-06
9.77128e-06
8.28439e-06
8.92102e-06
9.19842e-06
7.93647e-06
1.2336e-05
1.0124e-05
1.15472e-05
6.45968e-06
1.0116e-05
9.65452e-06
7.30331e-06
9.96608e-06
8.94825e-06
8.97752e-06
1.07803e-05
8.25443e-06
1.19794e-05
1.21164e-05
1.21729e-05
7.10551e-06
1.21365e-05
1.03783e-05
6.51428e-06
9.21694e-06
9.59632e-06
9.66269e-06
9.74643e-06
8.82424e-06
1.28229e-05
1.10048e-05
1.23235e-05
7.02334e-06
1.11074e-05
1.05216e-05
6.4859e-06
1.1535e-05
9.08416e-06
9.62953e-06
1.09394e-05
8.94681e-06
1.28105e-05
1.25603e-05
1.29791e-05
7.88749e-06
1.20707e-05
1.12914e-05
7.22061e-06
9.81658e-06
9.86002e-06
1.04122e-05
1.0475e-05
9.52702e-06
1.34847e-05
1.20069e-05
1.27221e-05
6.88822e-06
1.17407e-05
1.07683e-05
7.12085e-06
1.12696e-05
9.75297e-06
1.00975e-05
1.14198e-05
9.60787e-06
1.34688e-05
1.27959e-05
1.34056e-05
7.86304e-06
1.19602e-05
1.16692e-05
8.13637e-06
9.95183e-06
1.06845e-05
1.09671e-05
1.09191e-05
1.02712e-05
1.41229e-05
1.27291e-05
1.31983e-05
7.04262e-06
1.22372e-05
1.1277e-05
7.54496e-06
1.16062e-05
1.03513e-05
1.06286e-05
1.1811e-05
1.03101e-05
1.41619e-05
1.30894e-05
1.39373e-05
8.11419e-06
1.1877e-05
1.22888e-05
8.69896e-06
1.02935e-05
1.13512e-05
1.15451e-05
1.14218e-05
1.10239e-05
1.48082e-05
1.34725e-05
1.3792e-05
7.33242e-06
1.27784e-05
1.19154e-05
8.07162e-06
1.20128e-05
1.10775e-05
1.1294e-05
1.22359e-05
1.11397e-05
1.49729e-05
1.35248e-05
1.45927e-05
8.47344e-06
1.19283e-05
1.29798e-05
9.23151e-06
1.0827e-05
1.20663e-05
1.21899e-05
1.213e-05
1.1858e-05
1.56383e-05
1.43159e-05
1.46422e-05
7.84546e-06
1.33568e-05
1.27454e-05
8.74739e-06
1.2469e-05
1.19966e-05
1.21702e-05
1.27736e-05
1.2215e-05
1.60318e-05
1.42215e-05
1.56122e-05
9.12716e-06
1.26667e-05
1.38583e-05
9.80618e-06
1.17495e-05
1.28976e-05
1.29768e-05
1.31721e-05
1.28974e-05
1.67287e-05
1.5644e-05
1.58104e-05
8.88349e-06
1.39333e-05
1.39359e-05
9.6116e-06
1.30716e-05
1.31846e-05
1.34367e-05
1.35375e-05
1.38039e-05
1.77978e-05
1.5425e-05
1.73916e-05
9.59186e-06
1.26164e-05
1.46157e-05
1.0126e-05
1.08651e-05
1.39555e-05
1.3779e-05
1.33681e-05
1.46888e-05
1.82265e-05
1.70314e-05
1.75239e-05
9.47072e-06
1.57621e-05
1.44406e-05
9.57721e-06
1.34813e-05
1.33673e-05
1.34697e-05
1.30966e-05
1.44463e-05
1.76333e-05
1.44114e-05
1.36052e-05
7.79906e-06
9.51823e-06
8.58578e-06
7.79118e-06
8.93825e-06
7.06727e-06
9.96926e-06
8.22667e-06
7.29204e-06
1.25582e-05
1.10451e-05
1.31577e-05
8.40472e-06
1.18546e-05
9.81445e-06
8.90648e-06
8.00186e-06
8.59612e-06
1.04722e-05
7.79621e-06
8.16145e-06
1.24996e-05
9.29199e-06
1.16043e-05
6.77703e-06
1.141e-05
1.02561e-05
6.94333e-06
9.74791e-06
8.966e-06
9.1145e-06
9.3873e-06
8.0948e-06
1.19502e-05
1.01117e-05
1.20046e-05
6.94194e-06
1.02338e-05
1.05583e-05
7.09844e-06
1.02119e-05
9.31609e-06
9.20883e-06
1.05929e-05
8.53739e-06
1.20461e-05
1.19134e-05
1.24137e-05
7.11005e-06
1.16882e-05
1.10229e-05