/*--------------------------------*- C++ -*----------------------------------*\
| =========                 |                                                 |
| \\      /  F ield         | OpenFOAM: The Open Source CFD Toolbox           |
|  \\    /   O peration     | Version:  v2012                                 |
|   \\  /    A nd           | Website:  www.openfoam.com                      |
|    \\/     M anipulation  |                                                 |
\*---------------------------------------------------------------------------*/
FoamFile
{
    version     2.0;
    format      ascii;
    class       pointScalarField;
    location    "1";
    object      pEpsilonEq;
}
// * * * * * * * * * * * * * * * * * * * * * * * * * * * * * * * * * * * * * //

dimensions      [0 0 0 0 0 0 0];


internalField   nonuniform List<scalar> 
1575
(
1.52889e-05
2.97661e-05
1.44309e-05
4.20821e-05
1.22706e-05
1.42117e-05
1.06441e-05
1.21713e-05
3.27281e-05
9.7301e-06
1.80432e-05
1.5194e-05
1.57914e-05
1.0183e-05
1.80656e-05
3.42767e-05
3.27608e-05
4.81113e-05
9.39179e-06
9.67186e-06
1.05767e-05
1.59557e-05
1.73937e-05
1.93073e-05
2.11748e-05
2.32547e-05
2.5292e-05
2.71582e-05
2.90655e-05
3.30385e-05
1.41613e-05
1.25678e-05
1.26925e-05
1.30229e-05
1.32582e-05
1.34842e-05
1.37619e-05
1.42192e-05
1.56069e-05
1.13674e-05
1.04358e-05
1.07124e-05
1.11247e-05
1.12974e-05
1.13731e-05
1.16125e-05
1.13391e-05
1.33662e-05
1.41619e-05
1.30758e-05
1.27848e-05
1.17312e-05
1.16845e-05
1.25311e-05
1.36832e-05
1.55611e-05
1.77194e-05
2.01753e-05
2.3151e-05
2.96836e-05
1.22411e-05
1.05742e-05
1.20193e-05
1.87203e-05
2.1432e-05
2.39436e-05
2.67046e-05
2.90805e-05
3.13613e-05
3.3785e-05
3.60929e-05
4.08363e-05
1.1727e-05
8.51316e-06
9.23085e-06
9.84166e-06
1.02077e-05
1.05823e-05
1.09392e-05
1.14364e-05
1.30182e-05
3.77704e-05
3.80432e-05
3.98951e-05
4.0421e-05
4.14308e-05
4.22261e-05
4.30078e-05
4.40866e-05
4.65813e-05
3.05039e-05
3.05177e-05
3.07858e-05
3.13307e-05
3.20657e-05
3.29231e-05
3.38274e-05
3.47597e-05
3.7139e-05
1.21021e-05
1.21282e-05
1.2287e-05
1.25542e-05
1.28458e-05
1.30922e-05
1.31745e-05
1.28441e-05
1.33927e-05
9.88984e-06
1.19121e-05
1.37967e-05
1.39755e-05
1.41113e-05
1.43393e-05
1.46906e-05
1.52999e-05
1.50282e-05
1.59637e-05
1.1733e-05
1.11441e-05
1.6257e-05
1.7622e-05
1.75406e-05
1.72546e-05
1.69279e-05
1.63052e-05
1.49462e-05
1.5272e-05
1.62004e-05
1.2517e-05
1.09064e-05
9.0854e-06
7.32348e-06
6.22011e-06
7.08149e-06
6.75063e-06
3.57737e-06
1.01689e-05
1.31959e-05
1.38184e-05
1.29891e-05
9.8744e-06
1.08981e-05
1.28674e-05
1.01046e-05
1.05752e-05
1.14714e-05
1.18175e-05
1.21411e-05
1.27338e-05
1.32984e-05
1.40774e-05
1.58803e-05
1.06752e-05
1.25722e-05
1.33696e-05
1.40061e-05
1.45995e-05
1.53931e-05
1.64838e-05
1.54754e-05
1.39064e-05
1.61148e-05
1.38625e-05
1.02985e-05
6.00395e-06
4.60752e-06
7.57653e-06
5.77438e-06
4.35426e-06
1.20807e-05
1.09128e-05
1.17687e-05
1.2854e-05
1.32942e-05
1.64405e-05
1.71105e-05
1.98808e-05
2.50039e-05
2.58431e-05
3.09016e-05
2.92357e-05
2.92062e-05
2.95692e-05
3.01186e-05
3.07737e-05
3.14667e-05
3.21361e-05
3.30069e-05
3.24701e-05
3.6451e-05
3.07011e-05
2.75166e-05
2.66193e-05
2.13216e-05
2.21088e-05
1.81144e-05
1.77748e-05
1.57492e-05
1.30817e-05
2.05806e-05
1.64205e-05
1.22906e-05
1.82831e-05
3.28276e-05
3.79641e-05
4.01784e-05
4.07383e-05
4.31007e-05
4.19493e-05
4.30531e-05
4.37368e-05
4.58379e-05
4.34062e-05
4.21087e-05
3.65651e-05
3.27445e-05
2.99925e-05
2.87798e-05
2.5256e-05
2.02896e-05
1.77944e-05
1.6095e-05
1.1878e-05
2.30154e-05
1.02816e-05
1.13679e-05
1.1455e-05
1.11696e-05
1.10486e-05
1.09263e-05
1.18648e-05
1.10236e-05
1.08844e-05
1.23285e-05
1.10962e-05
1.0951e-05
1.26639e-05
1.11214e-05
1.09757e-05
1.29681e-05
1.10969e-05
1.0978e-05
1.33048e-05
1.10498e-05
1.08764e-05
1.37169e-05
1.11617e-05
1.06261e-05
1.44329e-05
1.19823e-05
1.16131e-05
1.16681e-05
1.21097e-05
1.37937e-05
1.11267e-05
1.11492e-05
1.18612e-05
1.13734e-05
1.13964e-05
1.22116e-05
1.15847e-05
1.15387e-05
1.20225e-05
1.17345e-05
1.15369e-05
1.1853e-05
1.18378e-05
1.15982e-05
1.17022e-05
1.20457e-05
1.16727e-05
1.13927e-05
1.25614e-05
1.17128e-05
1.08698e-05
1.38292e-05
1.30314e-05
1.25293e-05
1.03039e-05
9.34379e-06
1.02144e-05
1.07416e-05
1.1293e-05
1.18353e-05
1.24847e-05
1.34652e-05
1.55609e-05
1.08979e-05
1.02858e-05
1.08835e-05
1.15974e-05
1.21591e-05
1.27973e-05
1.35773e-05
1.46158e-05
1.64141e-05
1.16891e-05
1.15305e-05
1.21832e-05
1.2856e-05
1.35044e-05
1.42391e-05
1.51156e-05
1.62069e-05
1.79125e-05
1.29453e-05
1.32705e-05
1.39361e-05
1.45982e-05
1.53022e-05
1.61058e-05
1.7047e-05
1.82017e-05
1.98818e-05
1.49066e-05
1.55076e-05
1.61243e-05
1.67657e-05
1.74916e-05
1.83253e-05
1.92808e-05
2.04144e-05
2.19692e-05
1.75198e-05
1.81757e-05
1.86703e-05
1.92574e-05
1.9965e-05
2.07904e-05
2.17198e-05
2.27592e-05
2.4029e-05
2.07527e-05
2.11433e-05
2.14265e-05
2.1914e-05
2.2571e-05
2.33608e-05
2.42327e-05
2.51085e-05
2.58188e-05
2.49256e-05
2.4576e-05
2.46089e-05
2.49782e-05
2.55732e-05
2.63021e-05
2.70801e-05
2.77666e-05
2.73117e-05
3.23978e-05
3.19423e-05
3.1904e-05
3.22168e-05
3.27377e-05
3.33586e-05
3.39777e-05
3.43931e-05
3.46685e-05
3.48965e-05
2.93728e-05
2.68884e-05
2.43606e-05
2.20681e-05
1.99605e-05
1.79795e-05
1.6485e-05
1.58414e-05
3.64095e-05
3.11777e-05
2.81845e-05
2.57107e-05
2.33068e-05
2.08739e-05
1.87693e-05
1.70523e-05
1.61593e-05
3.82054e-05
3.24985e-05
2.96617e-05
2.67532e-05
2.41608e-05
2.15542e-05
1.93192e-05
1.75678e-05
1.67595e-05
3.861e-05
3.30898e-05
3.03207e-05
2.76937e-05
2.50951e-05
2.2636e-05
2.04137e-05
1.8583e-05
1.76381e-05
3.93927e-05
3.392e-05
3.12113e-05
2.85965e-05
2.60763e-05
2.36226e-05
2.13391e-05
1.93233e-05
1.83493e-05
4.00957e-05
3.46471e-05
3.19573e-05
2.93333e-05
2.67684e-05
2.42835e-05
2.20142e-05
2.00474e-05
1.90385e-05
4.07963e-05
3.53538e-05
3.26539e-05
2.99908e-05
2.74001e-05
2.49259e-05
2.26142e-05
2.05428e-05
1.95135e-05
4.17641e-05
3.62522e-05
3.33413e-05
3.05346e-05
2.78729e-05
2.53397e-05
2.29267e-05
2.07279e-05
1.96297e-05
4.38765e-05
3.73629e-05
3.35929e-05
3.0494e-05
2.76861e-05
2.50158e-05
2.24664e-05
2.02051e-05
1.93852e-05
7.39685e-06
4.82294e-06
6.47329e-06
7.98868e-06
4.58578e-06
6.64817e-06
7.8213e-06
4.34825e-06
7.82917e-06
7.48485e-06
4.28949e-06
8.20565e-06
7.28688e-06
4.0392e-06
8.42216e-06
7.24204e-06
3.79225e-06
8.60257e-06
7.32079e-06
3.60387e-06
8.80504e-06
7.5135e-06
3.50375e-06
8.99683e-06
9.59519e-06
4.16208e-06
7.89265e-06
6.30095e-06
5.18542e-06
9.87701e-06
7.13742e-06
7.1272e-06
8.69821e-06
9.69675e-06
9.28007e-06
9.20557e-06
1.02399e-05
1.14151e-05
1.2841e-05
1.05648e-05
1.17729e-05
1.25609e-05
1.07705e-05
1.19309e-05
1.25267e-05
1.14194e-05
1.28185e-05
1.3513e-05
1.17053e-05
1.34153e-05
1.41583e-05
1.22535e-05
1.39174e-05
1.45796e-05
1.25517e-05
1.4362e-05
1.48977e-05
1.26638e-05
1.47002e-05
1.51605e-05
1.32079e-05
1.46484e-05
1.46454e-05
6.08825e-06
4.81776e-06
5.58862e-06
5.74844e-06
4.34618e-06
7.73111e-06
6.55054e-06
6.32925e-06
8.52047e-06
1.10242e-05
1.23577e-05
1.26593e-05
1.05083e-05
1.11975e-05
1.20229e-05
1.04534e-05
1.07806e-05
1.11954e-05
1.09381e-05
1.07358e-05
1.10621e-05
1.1354e-05
1.07442e-05
1.11371e-05
1.17176e-05
1.07457e-05
1.10819e-05
1.21059e-05
1.07517e-05
1.0953e-05
1.2603e-05
1.07696e-05
1.07232e-05
1.26489e-05
1.01743e-05
1.05266e-05
8.33805e-06
4.40571e-06
6.67743e-06
6.25644e-06
5.40915e-06
7.52717e-06
6.78345e-06
5.85752e-06
8.26509e-06
7.59528e-06
6.86375e-06
8.2718e-06
7.36132e-06
7.136e-06
8.96308e-06
7.8078e-06
7.66938e-06
9.49731e-06
8.32802e-06
8.37665e-06
1.01221e-05
8.96081e-06
9.22575e-06
1.09755e-05
1.00069e-05
1.0236e-05
1.21243e-05
7.96247e-06
6.7915e-06
7.25138e-06
8.37009e-06
8.52448e-06
9.06707e-06
9.02272e-06
9.62434e-06
9.9822e-06
9.61041e-06
1.03354e-05
1.05798e-05
9.7784e-06
1.04429e-05
1.08724e-05
9.38617e-06
9.80691e-06
1.09278e-05
9.12837e-06
8.4155e-06
1.05131e-05
8.33213e-06
7.36744e-06
9.79674e-06
9.51283e-06
4.15373e-06
7.28619e-06
5.66714e-06
4.40885e-06
1.09023e-05
5.45507e-06
5.02463e-06
9.7222e-06
5.55369e-06
4.36362e-06
7.38912e-06
1.25799e-05
1.37461e-05
1.39602e-05
1.15648e-05
1.14036e-05
1.48606e-05
1.3447e-05
1.30213e-05
1.38947e-05
1.23011e-05
1.25763e-05
1.29827e-05
1.19998e-05
1.21773e-05
1.22962e-05
1.21253e-05
1.21113e-05
1.1931e-05
1.224e-05
1.21189e-05
1.16587e-05
1.25076e-05
1.20816e-05
1.14283e-05
1.23124e-05
1.05501e-05
9.71306e-06
6.48551e-06
5.48736e-06
7.99307e-06
7.34441e-06
6.79549e-06
8.54821e-06
8.38285e-06
7.96737e-06
9.46068e-06
9.30798e-06
9.45723e-06
1.02219e-05
1.10948e-05
1.04328e-05
1.12982e-05
1.20894e-05
1.18003e-05
1.36939e-05
1.36623e-05
1.24821e-05
1.55875e-05
1.53897e-05
1.31575e-05
1.76491e-05
2.01142e-05
1.28196e-05
1.41395e-05
1.49971e-05
1.2504e-05
1.94705e-05
1.49357e-05
1.21254e-05
1.84841e-05
1.49259e-05
1.20521e-05
1.83932e-05
1.49527e-05
1.20049e-05
1.84592e-05
1.49996e-05
1.1955e-05
1.85835e-05
1.50774e-05
1.19161e-05
1.87401e-05
1.52149e-05
1.19275e-05
1.89243e-05
1.54631e-05
1.2046e-05
1.91337e-05
1.6349e-05
1.21667e-05
1.91611e-05
1.15977e-05
1.2133e-05
1.43107e-05
1.30553e-05
1.332e-05
1.47034e-05
1.48769e-05
1.36547e-05
1.70043e-05
1.52131e-05
1.5525e-05
1.654e-05
1.70457e-05
1.57122e-05
2.04451e-05
1.69787e-05
1.67051e-05
2.08683e-05
1.79874e-05
1.65098e-05
2.24226e-05
1.8351e-05
1.5263e-05
2.20848e-05
1.97703e-05
1.30839e-05
1.63458e-05
9.60103e-06
1.05317e-05
1.12232e-05
1.17773e-05
1.24349e-05
1.31429e-05
1.3956e-05
1.50803e-05
1.72179e-05
1.02375e-05
1.09232e-05
1.16833e-05
1.25198e-05
1.33148e-05
1.41538e-05
1.51072e-05
1.62923e-05
1.8326e-05
1.13735e-05
1.20252e-05
1.28378e-05
1.3745e-05
1.46218e-05
1.55676e-05
1.66314e-05
1.79132e-05
1.99236e-05
1.30125e-05
1.37192e-05
1.44933e-05
1.53955e-05
1.6325e-05
1.73392e-05
1.84857e-05
1.98606e-05
2.1893e-05
1.50065e-05
1.5823e-05
1.6582e-05
1.74451e-05
1.83867e-05
1.94357e-05
2.06216e-05
2.20141e-05
2.39145e-05
1.74042e-05
1.83875e-05
1.90942e-05
1.98892e-05
2.08137e-05
2.18709e-05
2.30624e-05
2.44413e-05
2.64324e-05
2.05395e-05
2.15531e-05
2.21358e-05
2.2853e-05
2.37589e-05
2.48109e-05
2.59725e-05
2.72421e-05
2.88836e-05
2.43808e-05
2.60657e-05
2.65546e-05
2.72221e-05
2.81089e-05
2.91307e-05
3.02186e-05
3.12574e-05
3.1796e-05
2.35779e-05
2.36806e-05
2.3843e-05
2.44799e-05
2.53276e-05
2.6324e-05
2.74146e-05
2.84526e-05
2.94019e-05
1.84378e-05
1.15342e-05
1.8589e-05
1.52957e-05
1.19745e-05
2.02962e-05
1.54833e-05
1.22685e-05
2.04219e-05
1.55516e-05
1.13719e-05
2.0491e-05
1.59016e-05
1.12108e-05
2.176e-05
1.58719e-05
1.15318e-05
2.11884e-05
1.61464e-05
1.13592e-05
2.11153e-05
1.61733e-05
1.14029e-05
2.1103e-05
1.42021e-05
1.17911e-05
2.27111e-05
1.45046e-05
1.35768e-05
1.40388e-05
1.53566e-05
1.41326e-05
1.54466e-05
1.70324e-05
1.52577e-05
1.71286e-05
1.87253e-05
1.52532e-05
2.05524e-05
1.87698e-05
1.63911e-05
2.10737e-05
1.98083e-05
1.6702e-05
2.25382e-05
2.07575e-05
1.64145e-05
2.38326e-05
2.09629e-05
1.52991e-05
2.39991e-05
2.14646e-05
1.26231e-05
1.99737e-05
3.11103e-05
3.5461e-05
3.19043e-05
2.87915e-05
2.60837e-05
2.31195e-05
2.02013e-05
2.03741e-05
1.70432e-05
3.88768e-05
3.43378e-05
2.98678e-05
2.66394e-05
2.89468e-05
2.58384e-05
2.08267e-05
1.79491e-05
1.69387e-05
3.41912e-05
3.71531e-05
3.8054e-05
3.18006e-05
2.53939e-05
2.65759e-05
2.31008e-05
2.05722e-05
1.60486e-05
4.2153e-05
3.84451e-05
3.39732e-05
3.26325e-05
2.74656e-05
2.44439e-05
2.24215e-05
2.03743e-05
1.75053e-05
3.78686e-05
3.64091e-05
3.55892e-05
3.24505e-05
2.93985e-05
2.66338e-05
2.4056e-05
2.16145e-05
1.84909e-05
4.3274e-05
3.95899e-05
3.42914e-05
3.16784e-05
2.91498e-05
2.66909e-05
2.43067e-05
2.19704e-05
1.89302e-05
4.07286e-05
3.87383e-05
3.57591e-05
3.28777e-05
3.01038e-05
2.7464e-05
2.49532e-05
2.2548e-05
1.94327e-05
4.08758e-05
3.8644e-05
3.58304e-05
3.30637e-05
3.03509e-05
2.77419e-05
2.52594e-05
2.28252e-05
1.96948e-05
4.03572e-05
3.67537e-05
3.50848e-05
3.28815e-05
3.05209e-05
2.81898e-05
2.57152e-05
2.31453e-05
2.06428e-05
5.83129e-06
4.49212e-06
7.98055e-06
6.19533e-06
4.98929e-06
8.51583e-06
8.27549e-06
6.97017e-06
8.39743e-06
6.21556e-06
3.82899e-06
6.23184e-06
7.2133e-06
5.01284e-06
7.03889e-06
8.30523e-06
7.21863e-06
8.23366e-06
7.24369e-06
3.70493e-06
5.83921e-06
7.15375e-06
5.19875e-06
6.97892e-06
8.43896e-06
7.50064e-06
7.99303e-06
7.59924e-06
3.72135e-06
5.94937e-06
7.30037e-06
5.4312e-06
6.97427e-06
8.67431e-06
7.83129e-06
8.05788e-06
7.82182e-06
3.65488e-06
6.19245e-06
7.42468e-06
5.66769e-06
7.05014e-06
8.87611e-06
8.1813e-06
8.2308e-06
8.0451e-06
3.71929e-06
6.4758e-06
7.52072e-06
5.92651e-06
7.19414e-06
9.0628e-06
8.48643e-06
8.36784e-06
8.34634e-06
3.92417e-06
6.76449e-06
7.62032e-06
6.21729e-06
7.39291e-06
9.19132e-06
8.78285e-06
8.49702e-06
8.77968e-06
4.28901e-06
7.00911e-06
7.7848e-06
6.5421e-06
7.62449e-06
9.23493e-06
9.04119e-06
8.67947e-06
1.0065e-05
5.51232e-06
6.63637e-06
9.1539e-06
7.5343e-06
7.65067e-06
1.0061e-05
9.7022e-06
9.03318e-06
8.5165e-06
4.5042e-06
6.45206e-06
7.75534e-06
3.95579e-06
7.44202e-06
8.11126e-06
3.56323e-06
7.60097e-06
7.22845e-06
4.83358e-06
6.97239e-06
7.57439e-06
5.47929e-06
6.40591e-06
6.9906e-06
6.05245e-06
1.05353e-05
7.05025e-06
6.28176e-06
9.76462e-06
7.14928e-06
6.18194e-06
9.27519e-06
8.46199e-06
7.08382e-06
9.24433e-06
8.17845e-06
6.41956e-06
7.94064e-06
7.9164e-06
6.39976e-06
8.43297e-06
8.30056e-06
7.81006e-06
9.08496e-06
8.21484e-06
6.46645e-06
7.75864e-06
7.67624e-06
6.52177e-06
8.13004e-06
8.40609e-06
7.94159e-06
9.73093e-06
8.28838e-06
6.48182e-06
7.93874e-06
7.57101e-06
6.19557e-06
8.14823e-06
8.28608e-06
7.78992e-06
8.81118e-06
8.49988e-06
6.57486e-06
8.06906e-06
7.53061e-06
5.84521e-06
8.00225e-06
7.97139e-06
7.11086e-06
8.33595e-06
8.82418e-06
6.68323e-06
8.18174e-06
7.53431e-06
5.42371e-06
7.68931e-06
7.57867e-06
6.23315e-06
7.72852e-06
1.01017e-05
6.90017e-06
7.72351e-06
9.19175e-06
5.66998e-06
6.27314e-06
9.30154e-06
6.15115e-06
6.0673e-06
7.53413e-06
5.83458e-06
6.30614e-06
6.91712e-06
6.13299e-06
7.36878e-06
8.13581e-06
7.30325e-06
8.00637e-06
7.39027e-06
7.34781e-06
8.84284e-06
8.22886e-06
7.90372e-06
9.40412e-06
8.64797e-06
8.52649e-06
1.0045e-05
9.15573e-06
9.22054e-06
1.07995e-05
9.83316e-06
1.00352e-05
1.17794e-05
1.08867e-05
1.11367e-05
1.32346e-05
8.10851e-06
6.94304e-06
7.27147e-06
7.64828e-06
7.30381e-06
8.11672e-06
8.07238e-06
8.06504e-06
8.89171e-06
8.67981e-06
8.34412e-06
9.61029e-06
8.9952e-06
8.93388e-06
1.02691e-05
9.44632e-06
9.51301e-06
1.09682e-05
1.00216e-05
1.01767e-05
1.17788e-05
1.0836e-05
1.09872e-05
1.27987e-05
1.18431e-05
1.20252e-05
1.41677e-05
8.81427e-06
7.98753e-06
8.42485e-06
8.55063e-06
8.4205e-06
9.19107e-06
9.03639e-06
9.04391e-06
9.94741e-06
9.50056e-06
9.48839e-06
1.06708e-05
9.91098e-06
9.96186e-06
1.13538e-05
1.0402e-05
1.04894e-05
1.20871e-05
1.10308e-05
1.11208e-05
1.29376e-05
1.19025e-05
1.1931e-05
1.39908e-05
1.28482e-05
1.29927e-05
1.54383e-05
9.64343e-06
9.1262e-06
9.77464e-06
9.64715e-06
9.53192e-06
1.05465e-05
1.01432e-05
1.01078e-05
1.12778e-05
1.05682e-05
1.05352e-05
1.1964e-05
1.09975e-05
1.09577e-05
1.26475e-05
1.15078e-05
1.14388e-05
1.33929e-05
1.21519e-05
1.20303e-05
1.42576e-05
1.30198e-05
1.28132e-05
1.53296e-05
1.39848e-05
1.38125e-05
1.66175e-05
1.08951e-05
1.02695e-05
1.12439e-05
1.09966e-05
1.06881e-05
1.21636e-05
1.14386e-05
1.11947e-05
1.28477e-05
1.18294e-05
1.15638e-05
1.34823e-05
1.22556e-05
1.19311e-05
1.41417e-05
1.2764e-05
1.23595e-05
1.4876e-05
1.33888e-05
1.28947e-05
1.57272e-05
1.42135e-05
1.36233e-05
1.67663e-05
1.50427e-05
1.47107e-05
1.81602e-05
1.24057e-05
1.13909e-05
1.31949e-05
1.2592e-05
1.18645e-05
1.40169e-05
1.2932e-05
1.22686e-05
1.46511e-05
1.32717e-05
1.25559e-05
1.52184e-05
1.36774e-05
1.2858e-05
1.58323e-05
1.41616e-05
1.32198e-05
1.6529e-05
1.47281e-05
1.36726e-05
1.73284e-05
1.54213e-05
1.42897e-05
1.82871e-05
1.61076e-05
1.51057e-05
1.94853e-05
1.43589e-05
1.24156e-05
1.50101e-05
1.43836e-05
1.29062e-05
1.6108e-05
1.45492e-05
1.31605e-05
1.66424e-05
1.48232e-05
1.33482e-05
1.71025e-05
1.51897e-05
1.35687e-05
1.76341e-05
1.5626e-05
1.38393e-05
1.82456e-05
1.61083e-05
1.41758e-05
1.89361e-05
1.66271e-05
1.46381e-05
1.97133e-05
1.69495e-05
1.52873e-05
2.0464e-05
1.66e-05
1.28897e-05
1.60269e-05
1.60802e-05
1.32095e-05
1.73569e-05
1.61133e-05
1.3323e-05
1.76627e-05
1.63234e-05
1.34182e-05
1.79651e-05
1.66319e-05
1.35475e-05
1.8339e-05
1.69954e-05
1.3707e-05
1.87759e-05
1.73799e-05
1.39086e-05
1.92779e-05
1.77295e-05
1.4206e-05
1.98557e-05
1.75805e-05
1.46857e-05
2.0388e-05
2.10874e-05
1.24235e-05
1.25615e-05
2.08814e-05
1.25252e-05
1.2883e-05
2.07632e-05
1.24828e-05
1.29935e-05
2.07699e-05
1.24599e-05
1.32375e-05
2.08466e-05
1.24438e-05
1.35438e-05
2.09465e-05
1.24383e-05
1.39198e-05
2.10357e-05
1.24684e-05
1.43937e-05
2.10646e-05
1.25957e-05
1.50098e-05
2.11553e-05
1.29328e-05
1.59977e-05
2.09763e-05
1.30063e-05
1.66975e-05
1.865e-05
1.49796e-05
2.06068e-05
1.7764e-05
1.61481e-05
2.24726e-05
1.81434e-05
1.61075e-05
2.06941e-05
1.53314e-05
1.52887e-05
1.88077e-05
1.544e-05
1.42715e-05
1.69092e-05
1.40367e-05
1.38018e-05
1.55015e-05
1.21319e-05
1.29267e-05
1.55441e-05
1.12364e-05
1.13407e-05
1.30745e-05
1.89365e-05
1.28364e-05
2.03271e-05
1.95929e-05
1.60395e-05
2.20194e-05
1.88227e-05
1.59787e-05
2.0255e-05
1.81375e-05
1.5196e-05
1.85347e-05
1.7177e-05
1.48698e-05
1.86311e-05
1.46019e-05
1.47223e-05
1.86e-05
1.41059e-05
1.34348e-05
1.55108e-05
1.27027e-05
1.24701e-05
1.41078e-05
1.12508e-05
1.18906e-05
1.29898e-05
2.04587e-05
1.22167e-05
1.74196e-05
2.22606e-05
1.4823e-05
2.23291e-05
2.09581e-05
1.68453e-05
2.30303e-05
1.68471e-05
1.62995e-05
2.23809e-05
1.66894e-05
1.51393e-05
1.85828e-05
1.52237e-05
1.42137e-05
1.80514e-05
1.39332e-05
1.37124e-05
1.60921e-05
1.27919e-05
1.29195e-05
1.46235e-05
1.15863e-05
1.16027e-05
1.2864e-05
1.98388e-05
1.21901e-05
2.01676e-05
2.10453e-05
1.47808e-05
2.2609e-05
2.042e-05
1.60486e-05
2.1642e-05
1.9106e-05
1.59349e-05
2.06133e-05
1.77241e-05
1.54332e-05
1.93392e-05
1.62755e-05
1.47456e-05
1.80032e-05
1.48684e-05
1.39967e-05
1.65767e-05
1.37645e-05
1.31041e-05
1.50716e-05
1.23303e-05
1.26665e-05
1.37521e-05
2.03941e-05
1.28026e-05
1.92666e-05
2.14473e-05
1.53263e-05
2.16103e-05
2.07594e-05
1.61126e-05
2.24531e-05
1.96458e-05
1.62269e-05
2.1612e-05
1.83641e-05
1.57818e-05
2.02961e-05
1.71682e-05
1.49448e-05
1.88276e-05
1.57731e-05
1.42737e-05
1.74413e-05
1.32117e-05
1.38911e-05
1.58921e-05
1.24436e-05
1.22393e-05
1.45517e-05
2.04767e-05
1.23572e-05
2.12494e-05
2.17438e-05
1.53124e-05
2.27439e-05
2.11427e-05
1.62581e-05
2.21343e-05
2.00563e-05
1.63229e-05
2.13331e-05
1.87801e-05
1.59284e-05
2.01798e-05
1.74038e-05
1.53022e-05
1.88905e-05
1.596e-05
1.46144e-05
1.75579e-05
1.46507e-05
1.38213e-05
1.6154e-05
1.29498e-05
1.30024e-05
1.49974e-05
2.06304e-05
1.27274e-05
2.0381e-05
2.20345e-05
1.54192e-05
2.25372e-05
2.14928e-05
1.64437e-05
2.26551e-05
2.04345e-05
1.65471e-05
2.18197e-05
1.91428e-05
1.61805e-05
2.06047e-05
1.77642e-05
1.55784e-05
1.92442e-05
1.63817e-05
1.48706e-05
1.78482e-05
1.49748e-05
1.41433e-05
1.64553e-05
1.32436e-05
1.3408e-05
1.53573e-05
2.06558e-05
1.27094e-05
2.03916e-05
2.23367e-05
1.54317e-05
2.2443e-05
2.18799e-05
1.64956e-05
2.2585e-05
2.07694e-05
1.66219e-05
2.18427e-05
1.94149e-05
1.62651e-05
2.07035e-05
1.80051e-05
1.56714e-05
1.93997e-05
1.65905e-05
1.49869e-05
1.80413e-05
1.51255e-05
1.43009e-05
1.66681e-05
1.33439e-05
1.36303e-05
1.5641e-05
2.05903e-05
1.25185e-05
2.05254e-05
2.39876e-05
1.55962e-05
2.17713e-05
2.27442e-05
1.6663e-05
2.22831e-05
2.1175e-05
1.67634e-05
2.18919e-05
1.96095e-05
1.63841e-05
2.10061e-05
1.81552e-05
1.58129e-05
1.98959e-05
1.66533e-05
1.52908e-05
1.86263e-05
1.50799e-05
1.46733e-05
1.72873e-05
1.32056e-05
1.41591e-05
1.65133e-05
)
;

boundaryField
{
    bottom
    {
        type            calculated;
    }
    inside
    {
        type            calculated;
    }
    symmx
    {
        type            calculated;
    }
    top
    {
        type            calculated;
    }
    symmy
    {
        type            calculated;
    }
    outside
    {
        type            calculated;
    }
}


// ************************************************************************* //
