/*--------------------------------*- C++ -*----------------------------------*\
| =========                 |                                                 |
| \\      /  F ield         | OpenFOAM: The Open Source CFD Toolbox           |
|  \\    /   O peration     | Version:  v2012                                 |
|   \\  /    A nd           | Website:  www.openfoam.com                      |
|    \\/     M anipulation  |                                                 |
\*---------------------------------------------------------------------------*/
FoamFile
{
    version     2.0;
    format      ascii;
    class       pointSymmTensorField;
    location    "1";
    object      pEpsilon;
}
// * * * * * * * * * * * * * * * * * * * * * * * * * * * * * * * * * * * * * //

dimensions      [0 0 0 0 0 0 0];


internalField   nonuniform List<symmTensor> 
1575
(
(-5.0314e-06 8.29597e-07 3.19026e-07 1.90498e-05 1.12632e-06 -2.2015e-06)
(-3.34164e-05 -8.58978e-07 1.5513e-05 6.31555e-07 4.93057e-07 3.58765e-06)
(1.77075e-05 -3.38703e-07 2.75628e-06 -9.70436e-07 6.63658e-07 -5.13928e-06)
(2.41136e-07 -4.4446e-07 4.31453e-07 -4.88236e-05 2.10758e-05 4.78287e-06)
(-3.71098e-06 9.06293e-07 1.57356e-06 1.44603e-05 2.60681e-06 -2.42618e-06)
(7.25289e-06 1.29763e-06 2.00139e-06 -1.31801e-05 6.23069e-06 -1.74711e-07)
(9.89648e-06 -6.69366e-06 2.03107e-06 1.5706e-06 -5.2811e-07 -1.70285e-06)
(1.46447e-06 -9.4954e-06 2.96856e-06 -1.31992e-06 3.12141e-06 1.23193e-06)
(-1.36323e-05 -1.76581e-05 1.03006e-05 -2.27624e-05 1.46237e-05 3.06831e-06)
(-8.81907e-06 6.00359e-06 1.63576e-06 9.83521e-07 -1.60366e-06 2.14843e-07)
(-2.28096e-05 4.34525e-07 -9.36607e-07 5.36419e-06 5.62472e-07 2.81142e-06)
(-5.42382e-06 1.08503e-06 1.05918e-06 1.48867e-05 5.04644e-06 -6.52679e-06)
(-2.26052e-06 1.27534e-05 1.88933e-06 2.98123e-06 3.0011e-06 -3.48625e-06)
(3.23256e-06 3.52921e-07 1.79733e-06 -1.28018e-05 9.05204e-07 5.03413e-07)
(7.43076e-06 6.90872e-07 -4.43516e-07 -2.19163e-05 -3.28421e-07 2.03298e-06)
(4.08284e-05 1.74478e-06 1.73585e-05 -1.39945e-06 1.20745e-06 0)
(1.30673e-05 1.74215e-05 1.11837e-05 2.31863e-05 1.5532e-05 0)
(-8.85015e-07 1.14112e-06 7.56417e-07 5.57976e-05 2.60698e-05 0)
(7.88636e-06 -6.21841e-06 1.90136e-06 9.58315e-07 -1.07124e-06 -1.24955e-06)
(5.67066e-06 -7.66807e-06 1.58173e-06 2.19592e-06 -6.02338e-07 -1.19936e-07)
(3.6127e-06 -8.89076e-06 1.87665e-06 1.42786e-06 7.99395e-08 1.89052e-06)
(-1.70341e-06 -1.15673e-05 3.64823e-06 -5.16738e-06 4.56361e-06 4.31077e-06)
(-3.12965e-06 -1.19157e-05 4.09004e-06 -6.9764e-06 5.49568e-06 5.08981e-06)
(-4.70794e-06 -1.26406e-05 4.58366e-06 -9.03818e-06 6.34395e-06 5.83702e-06)
(-6.21051e-06 -1.34106e-05 4.78382e-06 -1.15061e-05 6.85305e-06 6.59257e-06)
(-7.73789e-06 -1.42916e-05 5.05675e-06 -1.40512e-05 7.33423e-06 7.43678e-06)
(-9.25512e-06 -1.52519e-05 5.22807e-06 -1.66483e-05 7.75249e-06 7.97982e-06)
(-1.06735e-05 -1.60942e-05 5.28162e-06 -1.91467e-05 8.1287e-06 8.4713e-06)
(-1.21439e-05 -1.69992e-05 5.52884e-06 -2.14496e-05 8.93314e-06 8.45849e-06)
(-1.40513e-05 -1.85128e-05 8.08459e-06 -2.37908e-05 1.22572e-05 7.72206e-06)
(1.26113e-05 -7.85321e-06 2.0894e-06 1.57029e-06 -7.78746e-07 -5.55281e-06)
(1.25225e-05 -6.48349e-06 2.3166e-06 4.67698e-07 -3.50039e-07 -3.69425e-06)
(1.32594e-05 -6.15574e-06 2.11875e-06 3.30622e-07 -1.24879e-07 -3.68902e-06)
(1.41558e-05 -5.6946e-06 2.01405e-06 -3.1273e-08 -1.02999e-07 -3.94459e-06)
(1.49815e-05 -5.10889e-06 1.80108e-06 -4.76233e-07 -1.76375e-08 -4.07267e-06)
(1.57593e-05 -4.40537e-06 1.55116e-06 -9.22028e-07 9.51282e-08 -4.1975e-06)
(1.6528e-05 -3.54938e-06 1.26309e-06 -1.34294e-06 2.52758e-07 -4.40019e-06)
(1.73707e-05 -2.41941e-06 9.13424e-07 -1.69979e-06 5.24228e-07 -4.86347e-06)
(1.90112e-05 -1.42044e-06 8.75967e-07 -1.42327e-06 8.81646e-07 -6.17875e-06)
(8.59784e-06 -7.27942e-06 2.41185e-06 9.18886e-07 -8.39386e-07 -3.48662e-06)
(7.05059e-06 -6.92059e-06 3.24936e-06 2.15839e-06 -4.40774e-07 -2.54704e-06)
(6.07528e-06 -7.19109e-06 4.0414e-06 2.88635e-06 -1.35037e-06 -1.91979e-06)
(4.95715e-06 -7.48494e-06 4.57176e-06 3.83255e-06 -1.89617e-06 -1.6006e-06)
(3.90321e-06 -7.52206e-06 4.70854e-06 4.966e-06 -2.321e-06 -1.38857e-06)
(2.67768e-06 -7.5339e-06 4.37605e-06 6.32821e-06 -2.58309e-06 -1.26683e-06)
(1.45591e-06 -7.39797e-06 3.97332e-06 8.20752e-06 -2.84013e-06 -9.53973e-07)
(-5.83367e-07 -6.42215e-06 2.36474e-06 9.84731e-06 -3.35645e-06 -1.14647e-06)
(-3.00892e-06 -5.45174e-06 9.81667e-07 1.39806e-05 -3.18712e-06 -2.44934e-06)
(-4.61109e-06 8.58078e-07 5.95565e-07 1.73893e-05 1.5238e-06 -2.44299e-06)
(-3.81336e-06 9.43075e-07 9.49995e-07 1.60332e-05 1.75737e-06 -2.5297e-06)
(-3.55953e-06 9.1163e-07 1.38522e-06 1.56466e-05 1.24065e-06 -2.802e-06)
(-4.35692e-06 9.83661e-07 1.93723e-06 1.36143e-05 2.07374e-06 -1.72427e-06)
(-6.07212e-06 1.01264e-06 2.70672e-06 1.22606e-05 2.1611e-06 -9.12269e-07)
(-8.61861e-06 7.91962e-07 3.51979e-06 1.13376e-05 2.16351e-06 1.19257e-07)
(-1.15102e-05 5.87032e-07 4.00786e-06 1.03611e-05 1.88457e-06 1.0448e-06)
(-1.48726e-05 3.16e-07 4.87272e-06 9.24345e-06 1.81827e-06 2.40067e-06)
(-1.86728e-05 3.98211e-08 5.40084e-06 7.92834e-06 1.15819e-06 3.80341e-06)
(-2.26876e-05 -3.27474e-07 5.70949e-06 6.4178e-06 7.25362e-07 5.3114e-06)
(-2.70061e-05 -8.63553e-07 6.14727e-06 4.67882e-06 1.73797e-07 7.20174e-06)
(-3.46074e-05 -1.67426e-06 8.42816e-06 2.64088e-06 2.2989e-07 1.08544e-05)
(1.43433e-05 -4.44762e-07 2.59484e-06 -1.86833e-06 1.95483e-06 -4.14441e-06)
(1.12456e-05 -1.22837e-07 1.97446e-06 -4.54689e-06 2.70792e-06 -2.19929e-06)
(9.19072e-06 1.05429e-06 1.26745e-06 -9.30546e-06 4.44264e-06 9.90857e-07)
(6.93525e-06 4.0475e-07 5.71484e-07 -2.15187e-05 4.55085e-06 3.55687e-06)
(6.24423e-06 3.25712e-07 3.0973e-07 -2.47123e-05 5.82673e-06 5.33659e-06)
(5.63082e-06 3.3435e-07 3.97286e-07 -2.77296e-05 6.87254e-06 6.63465e-06)
(4.98253e-06 2.6923e-07 9.08421e-08 -3.11117e-05 7.68521e-06 8.14946e-06)
(4.26983e-06 1.82078e-07 -2.78093e-07 -3.43839e-05 8.00097e-06 9.22888e-06)
(3.51724e-06 2.30957e-08 -4.35807e-07 -3.75472e-05 8.47472e-06 1.00441e-05)
(2.72441e-06 -2.22186e-07 -5.25913e-07 -4.07361e-05 9.44019e-06 1.0714e-05)
(1.87595e-06 -5.81761e-07 -4.96122e-07 -4.37945e-05 1.09045e-05 1.07936e-05)
(1.01492e-06 -6.08252e-07 2.31363e-07 -4.88627e-05 1.46654e-05 1.12867e-05)
(-3.08279e-06 -1.17665e-06 8.74758e-07 1.39618e-05 -1.55765e-06 -3.38135e-06)
(-3.02883e-06 -3.22846e-06 1.59248e-06 8.55428e-06 -4.64501e-07 -2.02435e-06)
(-3.51237e-06 -3.93784e-06 2.07748e-06 8.75897e-06 6.98353e-07 -1.60155e-06)
(-3.92088e-06 -4.80785e-06 1.92225e-06 8.4727e-06 1.59354e-06 -1.5556e-06)
(-3.87955e-06 -5.91426e-06 1.88188e-06 7.33287e-06 2.2409e-06 -1.36013e-06)
(-3.43495e-06 -6.99267e-06 1.76145e-06 6.01224e-06 2.74672e-06 -1.24018e-06)
(-2.5954e-06 -7.94699e-06 1.6334e-06 4.37262e-06 3.20452e-06 -1.24648e-06)
(-1.48676e-06 -8.77276e-06 1.49812e-06 2.48916e-06 3.69736e-06 -1.44661e-06)
(2.79514e-07 -1.0195e-05 1.47887e-06 1.01468e-06 3.96771e-06 -3.26532e-06)
(-1.47468e-05 -2.06578e-05 1.02699e-05 -2.84548e-05 1.66318e-05 3.74559e-06)
(-1.25549e-05 -2.0271e-05 8.60543e-06 -3.15745e-05 1.63874e-05 4.85269e-06)
(-1.01484e-05 -1.95575e-05 8.09687e-06 -3.5952e-05 1.76017e-05 5.37776e-06)
(-7.8846e-06 -1.79127e-05 6.97472e-06 -3.91341e-05 1.8298e-05 5.31417e-06)
(-5.86572e-06 -1.61363e-05 6.11456e-06 -4.21623e-05 1.92996e-05 5.36872e-06)
(-4.06359e-06 -1.39684e-05 5.03036e-06 -4.48866e-05 2.00769e-05 5.38195e-06)
(-2.54982e-06 -1.15323e-05 3.91027e-06 -4.73372e-05 2.07424e-05 5.41645e-06)
(-1.25324e-06 -8.73763e-06 2.72623e-06 -5.02784e-05 2.1163e-05 5.46892e-06)
(2.86392e-07 -4.06947e-06 1.72583e-06 -5.49709e-05 2.15835e-05 6.36084e-06)
(-3.32165e-05 -4.20052e-06 1.59515e-05 -1.13202e-08 1.81859e-06 4.3733e-06)
(-3.20275e-05 -7.7079e-06 1.56153e-05 -1.40397e-06 3.44259e-06 4.42305e-06)
(-3.04046e-05 -1.06768e-05 1.53479e-05 -3.3155e-06 5.12307e-06 4.46384e-06)
(-2.85816e-05 -1.33035e-05 1.50228e-05 -5.75035e-06 6.78782e-06 4.54692e-06)
(-2.64965e-05 -1.55514e-05 1.46228e-05 -8.66483e-06 8.43397e-06 4.65869e-06)
(-2.41356e-05 -1.73422e-05 1.41471e-05 -1.1962e-05 1.00663e-05 4.77738e-06)
(-2.14785e-05 -1.85901e-05 1.36015e-05 -1.5508e-05 1.16901e-05 4.87713e-06)
(-1.8714e-05 -1.91744e-05 1.30327e-05 -1.9174e-05 1.33213e-05 5.0033e-06)
(-1.71032e-05 -2.01823e-05 1.25491e-05 -2.35059e-05 1.57876e-05 4.80589e-06)
(3.12788e-06 -8.9927e-06 2.91067e-06 -3.31688e-06 3.1188e-06 -1.18141e-06)
(4.18496e-06 -8.19007e-06 3.03769e-06 -5.48392e-06 3.2579e-06 -9.46234e-07)
(5.00167e-06 -7.4549e-06 2.78562e-06 -7.19486e-06 3.55904e-06 -7.61378e-07)
(5.51592e-06 -6.64884e-06 2.65531e-06 -8.63562e-06 4.07191e-06 -6.08123e-07)
(6.1541e-06 -5.57676e-06 2.54334e-06 -9.98109e-06 4.5082e-06 -3.81674e-07)
(6.56877e-06 -4.52912e-06 2.32453e-06 -1.11328e-05 4.78287e-06 -2.13481e-07)
(6.75763e-06 -3.41365e-06 2.06915e-06 -1.19024e-05 5.01091e-06 -7.34497e-08)
(6.63521e-06 -2.31907e-06 1.652e-06 -1.22049e-05 4.94114e-06 -6.32126e-08)
(8.0471e-06 5.96951e-07 1.34299e-06 -1.34664e-05 4.01636e-06 -1.45577e-06)
(-9.31129e-06 6.18081e-06 1.5293e-06 6.88487e-07 -7.38733e-07 3.59006e-07)
(-1.18012e-05 8.03203e-06 7.736e-07 -3.59205e-07 2.79846e-07 -1.02917e-06)
(-1.49309e-05 8.18623e-06 7.44579e-08 7.05598e-07 4.13923e-07 -5.29574e-07)
(-1.59107e-05 7.09971e-06 -2.54681e-10 2.07173e-06 3.37399e-07 -1.83769e-07)
(-1.67441e-05 5.97054e-06 -1.48738e-07 3.09326e-06 3.12341e-07 -7.29164e-08)
(-1.75483e-05 4.8569e-06 -3.66494e-07 3.86545e-06 2.87019e-07 3.63091e-08)
(-1.8376e-05 3.73256e-06 -5.6195e-07 4.49648e-06 2.31994e-07 1.53455e-07)
(-1.94128e-05 2.55503e-06 -4.53646e-07 5.10004e-06 7.74992e-08 3.14556e-07)
(-1.94535e-05 1.06156e-06 -7.96851e-07 5.67272e-06 5.67642e-07 -1.56006e-06)
(-2.0293e-05 9.15755e-07 -5.76911e-07 4.44037e-06 1.58444e-06 2.24927e-06)
(-1.37697e-05 1.4282e-06 -6.62452e-08 5.1891e-06 2.34351e-06 -1.00389e-07)
(-9.46869e-06 1.15944e-06 -5.18342e-08 8.687e-06 3.05941e-06 -6.88369e-07)
(-5.40115e-06 1.02885e-06 7.25484e-07 1.50252e-05 5.73786e-06 -8.53718e-06)
(-7.56006e-06 2.17204e-06 4.32027e-07 1.63216e-05 5.86155e-06 -7.99531e-06)
(-7.55906e-06 3.72589e-06 6.92117e-07 1.58163e-05 5.62373e-06 -7.89193e-06)
(-7.36961e-06 5.16114e-06 9.56377e-07 1.48846e-05 5.3323e-06 -7.66523e-06)
(-7.06285e-06 6.48937e-06 1.17072e-06 1.37293e-05 4.99942e-06 -7.39458e-06)
(-6.78482e-06 7.47728e-06 1.27892e-06 1.2265e-05 4.45615e-06 -6.94526e-06)
(-5.74034e-06 8.23593e-06 1.1932e-06 9.73656e-06 3.94062e-06 -6.28608e-06)
(-3.44801e-06 9.98068e-06 1.68874e-06 7.63483e-06 4.04088e-06 -6.63998e-06)
(-3.14711e-06 1.15049e-05 2.13549e-06 6.69909e-06 3.78247e-06 -6.23144e-06)
(-5.87614e-06 1.00948e-05 8.29496e-07 -1.12347e-06 1.34468e-06 1.23053e-06)
(-7.0641e-06 8.70129e-06 1.36299e-06 -8.658e-07 1.97884e-07 -1.51675e-06)
(-7.75735e-06 6.39643e-06 1.15547e-06 -1.33873e-07 -1.03306e-06 -4.54611e-07)
(4.20522e-06 -1.94964e-06 4.62553e-06 -9.25366e-07 -2.3566e-06 -1.30667e-06)
(-1.17357e-06 1.0112e-06 4.6121e-06 2.67908e-07 -2.49019e-06 -5.44438e-07)
(-5.88728e-06 3.64795e-06 2.59715e-06 1.0165e-06 -1.72077e-06 4.00765e-07)
(6.95371e-06 5.22811e-07 2.12261e-06 3.02252e-07 6.94476e-07 -3.69117e-06)
(-2.42946e-06 3.69353e-07 1.39768e-06 2.12666e-06 9.84466e-07 -2.16353e-06)
(-1.24451e-05 2.15945e-07 3.54473e-07 4.31496e-06 8.15365e-07 3.48212e-07)
(3.92562e-06 1.78886e-07 1.43806e-06 -6.49204e-06 1.00676e-05 -1.09761e-06)
(7.38906e-07 -2.13072e-07 1.2541e-06 1.29319e-06 1.15684e-05 -3.78634e-06)
(-2.77059e-06 -3.10482e-07 1.11657e-06 8.94181e-06 7.87201e-06 -6.2305e-06)
(3.22452e-07 -3.16349e-06 4.88626e-06 -3.79755e-07 6.25437e-06 -1.39888e-07)
(-4.1127e-07 2.86356e-06 5.26388e-06 1.52844e-06 7.10356e-06 -1.74395e-06)
(-1.40796e-06 8.93064e-06 3.4355e-06 2.79645e-06 4.90252e-06 -2.84078e-06)
(3.90974e-06 3.75373e-06 1.62147e-06 -1.11948e-05 7.20983e-07 -1.01468e-06)
(4.66217e-06 4.05066e-06 1.60497e-06 -1.11435e-05 1.11055e-06 -1.3404e-06)
(5.13596e-06 5.11855e-06 1.36414e-06 -1.12928e-05 1.11416e-06 -6.80442e-07)
(4.71938e-06 6.74994e-06 2.19788e-06 -9.74565e-06 1.3938e-06 -3.04919e-06)
(4.85244e-06 7.81205e-06 2.19991e-06 -7.65153e-06 2.15003e-06 -3.111e-06)
(4.45843e-06 9.01226e-06 1.96878e-06 -5.98254e-06 2.53376e-06 -3.68148e-06)
(3.6284e-06 1.00635e-05 1.83645e-06 -3.8767e-06 2.87741e-06 -4.23271e-06)
(2.48636e-06 1.10656e-05 1.92256e-06 -1.52788e-06 3.08627e-06 -4.69743e-06)
(1.70828e-06 1.19632e-05 2.39664e-06 1.12185e-06 3.23895e-06 -8.02389e-06)
(-7.97014e-06 7.10992e-06 2.92373e-06 1.45165e-06 -1.8892e-06 -1.90816e-06)
(-7.33751e-06 8.62772e-06 4.56224e-06 1.10992e-06 -2.3048e-06 -2.46186e-06)
(-6.13674e-06 9.32229e-06 5.41789e-06 4.58621e-07 -2.59037e-06 -2.03269e-06)
(-4.89965e-06 9.93726e-06 5.7151e-06 -3.91195e-07 -3.21247e-06 -1.67358e-06)
(-3.70631e-06 1.05264e-05 5.57361e-06 -1.30057e-06 -4.0015e-06 -1.24123e-06)
(-2.53721e-06 1.13712e-05 4.93143e-06 -2.48166e-06 -4.79619e-06 -7.06175e-07)
(-1.02668e-06 1.26311e-05 3.36548e-06 -4.26785e-06 -5.28494e-06 1.17674e-08)
(1.81503e-06 1.1351e-05 6.1325e-07 -9.42298e-06 -3.53941e-06 5.41326e-07)
(4.27756e-06 6.02702e-06 4.93725e-07 -1.53323e-05 -3.07895e-06 -2.60021e-06)
(6.64734e-06 4.08296e-07 -7.22778e-07 -1.95356e-05 2.42949e-09 1.8063e-06)
(5.10888e-06 2.95164e-07 -1.37174e-06 -1.71855e-05 4.28675e-07 1.25173e-06)
(3.59733e-06 4.24277e-07 3.12019e-07 -1.31969e-05 6.48788e-07 2.0049e-07)
(-1.5504e-06 6.9498e-07 3.03706e-06 5.08921e-06 1.89967e-06 -1.07609e-06)
(4.49978e-07 4.84299e-07 3.19941e-06 -3.49688e-06 1.14871e-06 -6.79822e-07)
(2.20803e-06 2.43746e-07 2.06765e-06 -9.33942e-06 9.67449e-07 8.65766e-08)
(-1.79929e-06 9.65719e-07 8.19556e-07 6.69469e-06 9.85304e-07 -1.18364e-06)
(2.31054e-06 1.03173e-06 1.11647e-06 -4.57221e-06 2.30893e-07 -9.38543e-07)
(5.48759e-06 8.65252e-07 6.85167e-07 -1.44557e-05 -1.58288e-07 6.48523e-07)
(4.29813e-06 4.84701e-07 1.43563e-06 -1.32616e-05 8.22529e-07 7.88242e-07)
(6.11025e-06 6.5137e-07 1.46081e-06 -1.33004e-05 5.44726e-07 9.3087e-07)
(9.07297e-06 8.09997e-07 2.09123e-06 -1.26057e-05 1.16142e-06 -1.37895e-06)
(1.08557e-05 9.73634e-07 2.37454e-06 -1.15205e-05 7.89345e-07 -1.04127e-06)
(1.58346e-05 1.14897e-06 2.48057e-06 -1.01656e-05 1.18359e-06 -5.79801e-06)
(1.79872e-05 1.20392e-06 2.11232e-06 -8.7251e-06 1.48486e-06 -5.33009e-06)
(2.23612e-05 1.61918e-06 2.36256e-06 -7.19375e-06 1.51227e-06 -6.65384e-06)
(2.88973e-05 2.08798e-06 3.83036e-06 -5.68468e-06 1.91253e-06 -9.40997e-06)
(3.1549e-05 1.3771e-06 9.02283e-06 -4.28414e-06 9.58741e-07 -3.30883e-06)
(3.65929e-05 5.87018e-06 1.52146e-05 5.31592e-07 1.66751e-06 -5.96661e-07)
(3.2314e-05 8.46347e-06 1.49464e-05 1.88517e-06 3.23536e-06 -5.70369e-07)
(3.03361e-05 1.09766e-05 1.46729e-05 3.64432e-06 4.81654e-06 -5.5901e-07)
(2.84266e-05 1.33669e-05 1.43296e-05 5.95221e-06 6.37078e-06 -5.4906e-07)
(2.6299e-05 1.54443e-05 1.39164e-05 8.72555e-06 7.89546e-06 -5.38576e-07)
(2.39079e-05 1.70753e-05 1.3454e-05 1.18335e-05 9.40282e-06 -5.27378e-07)
(2.12411e-05 1.81374e-05 1.29778e-05 1.51004e-05 1.09272e-05 -5.15584e-07)
(1.83913e-05 1.84792e-05 1.25558e-05 1.82624e-05 1.25399e-05 -5.01274e-07)
(1.57263e-05 1.83558e-05 1.1939e-05 2.10293e-05 1.43781e-05 -8.98281e-07)
(1.28451e-05 1.7919e-05 9.53521e-06 2.37771e-05 1.35154e-05 -4.01653e-06)
(1.45128e-05 2.09562e-05 5.36293e-06 2.63395e-05 8.18703e-06 -1.53478e-05)
(1.1492e-05 1.84719e-05 2.88333e-06 2.19792e-05 4.92146e-06 -1.35469e-05)
(9.27578e-06 1.71373e-05 2.65578e-06 1.85136e-05 4.37575e-06 -1.21812e-05)
(7.92774e-06 1.67948e-05 2.61715e-06 1.62644e-05 4.32905e-06 -1.27884e-05)
(5.2415e-06 1.49042e-05 2.39519e-06 1.23066e-05 4.1114e-06 -7.07243e-06)
(4.55782e-06 1.53777e-05 2.53475e-06 1.11601e-05 4.32721e-06 -8.94083e-06)
(2.14327e-06 1.38427e-05 1.93411e-06 7.79846e-06 3.67559e-06 -4.39375e-06)
(5.34679e-07 1.40054e-05 2.01131e-06 6.53041e-06 3.03674e-06 -3.92781e-06)
(-1.08832e-05 -3.71802e-07 1.19978e-05 -2.53665e-08 6.99984e-07 5.4086e-07)
(3.7607e-06 1.68593e-07 1.10476e-05 -3.99203e-07 7.43325e-07 -3.63046e-07)
(2.14738e-05 1.00545e-06 1.20302e-05 -9.3456e-07 9.33449e-07 -1.4176e-06)
(-4.78358e-06 -6.52671e-06 6.80005e-06 -8.90397e-06 9.52957e-06 5.71357e-07)
(4.51619e-07 1.89358e-07 6.16902e-06 -3.45431e-07 8.66211e-06 -1.24249e-07)
(6.36094e-06 7.89254e-06 7.3851e-06 9.65712e-06 1.01888e-05 -1.04835e-06)
(1.14992e-05 1.7229e-05 9.9265e-06 2.50422e-05 1.52439e-05 -1.8268e-06)
(1.08147e-05 1.78939e-05 1.13872e-05 2.92186e-05 2.03191e-05 0)
(9.40818e-06 1.88986e-05 9.17526e-06 3.61361e-05 2.02929e-05 -4.00544e-07)
(7.03638e-06 1.64286e-05 8.94373e-06 3.67296e-05 2.26286e-05 -1.8578e-07)
(5.26519e-06 1.55298e-05 7.20532e-06 4.28016e-05 2.32655e-05 -8.64264e-07)
(3.22937e-06 1.21089e-05 6.22175e-06 4.10926e-05 2.4746e-05 0)
(2.1656e-06 1.0552e-05 4.59874e-06 4.49514e-05 2.4691e-05 -3.40173e-07)
(1.20713e-06 8.33302e-06 3.19514e-06 4.72258e-05 2.50021e-05 -3.08929e-07)
(2.6978e-07 5.38803e-06 1.61802e-06 5.17371e-05 2.53268e-05 -8.5849e-07)
(-2.11633e-06 1.5896e-06 1.10425e-06 5.10585e-05 1.88236e-05 -7.84488e-06)
(-2.47847e-06 2.95997e-06 2.3187e-06 4.96858e-05 1.05161e-05 -1.60771e-05)
(-2.84534e-06 3.20468e-06 2.01083e-06 4.3342e-05 6.1099e-06 -1.51547e-05)
(-3.29e-06 3.21923e-06 1.86846e-06 3.84131e-05 4.92122e-06 -1.39643e-05)
(-3.76841e-06 3.10298e-06 1.97384e-06 3.43648e-05 5.10427e-06 -1.32439e-05)
(-4.24433e-06 3.03366e-06 2.0849e-06 3.18106e-05 4.93937e-06 -1.40522e-05)
(-4.67356e-06 2.91574e-06 7.96832e-07 2.81508e-05 4.28608e-06 -1.1598e-05)
(-4.8975e-06 2.60528e-06 4.62185e-07 2.29524e-05 4.52906e-06 -7.15885e-06)
(-4.48405e-06 1.95436e-06 6.12769e-07 1.95747e-05 4.75659e-06 -6.521e-06)
(-1.03788e-07 -4.28779e-07 4.36565e-07 -1.50047e-05 1.08701e-05 2.38376e-07)
(-2.42309e-07 -3.56096e-08 3.12596e-07 2.98416e-06 1.00772e-05 -7.95224e-07)
(-5.58765e-07 3.89754e-07 3.29351e-07 2.38681e-05 1.3354e-05 -2.78728e-06)
(8.71427e-06 -6.46817e-06 9.27735e-07 7.53413e-07 4.67695e-07 -3.1127e-06)
(6.76185e-06 -8.47379e-06 1.6641e-06 2.98916e-06 3.32609e-07 -2.61035e-06)
(4.73839e-06 -9.17184e-06 2.48226e-06 4.48706e-07 8.8582e-07 -2.75518e-07)
(1.00031e-05 -6.71455e-06 9.2916e-07 1.25396e-06 6.94275e-07 -3.53701e-06)
(7.5809e-06 -7.92872e-06 1.75787e-06 2.03739e-06 6.46514e-07 -2.43622e-06)
(5.61463e-06 -8.28057e-06 2.47677e-06 -1.18922e-06 1.26224e-06 -2.53432e-08)
(1.12483e-05 -6.73093e-06 1.08408e-06 1.0458e-06 6.74931e-07 -3.7456e-06)
(8.54501e-06 -7.47837e-06 1.69791e-06 1.10474e-06 8.85222e-07 -2.46371e-06)
(6.56636e-06 -7.67197e-06 2.3106e-06 -2.52452e-06 1.64809e-06 6.34775e-08)
(1.24408e-05 -6.4021e-06 1.13384e-06 4.9058e-07 7.24798e-07 -3.85332e-06)
(9.58049e-06 -6.95151e-06 1.60873e-06 1.7722e-07 1.12112e-06 -2.48405e-06)
(7.43036e-06 -7.03027e-06 2.11477e-06 -3.71646e-06 2.00164e-06 1.44401e-07)
(1.35431e-05 -5.80553e-06 1.09841e-06 -1.5511e-07 8.30399e-07 -3.95072e-06)
(1.05549e-05 -6.21985e-06 1.4946e-06 -7.28861e-07 1.34706e-06 -2.47588e-06)
(8.18933e-06 -6.198e-06 1.91958e-06 -4.82337e-06 2.29138e-06 2.68811e-07)
(1.45783e-05 -5.00324e-06 1.01597e-06 -7.74045e-07 9.69937e-07 -4.07951e-06)
(1.14068e-05 -5.27416e-06 1.34212e-06 -1.56115e-06 1.56609e-06 -2.47511e-06)
(8.82557e-06 -5.18352e-06 1.71074e-06 -5.83397e-06 2.5432e-06 4.03183e-07)
(1.55586e-05 -4.02797e-06 8.67431e-07 -1.28089e-06 1.15586e-06 -4.29235e-06)
(1.21021e-05 -4.14731e-06 1.10116e-06 -2.24998e-06 1.7847e-06 -2.51969e-06)
(9.20803e-06 -4.01134e-06 1.42235e-06 -6.65499e-06 2.73968e-06 5.13694e-07)
(1.64356e-05 -2.93796e-06 5.27023e-07 -1.53507e-06 1.41881e-06 -4.73033e-06)
(1.2748e-05 -2.9512e-06 5.60772e-07 -2.74248e-06 2.00657e-06 -2.81993e-06)
(9.31862e-06 -2.65095e-06 8.2522e-07 -7.27318e-06 2.83341e-06 4.04047e-07)
(1.69927e-05 -1.55521e-06 9.02402e-07 -1.64797e-06 1.68036e-06 -6.1088e-06)
(1.34152e-05 -1.36649e-06 7.68216e-07 -3.55238e-06 2.26011e-06 -4.25678e-06)
(1.032e-05 -5.78727e-07 3.10637e-07 -8.53785e-06 3.28819e-06 -8.40878e-07)
(-2.89275e-06 -2.14952e-06 1.09121e-06 1.35969e-05 -1.75272e-06 -3.35109e-06)
(-2.82505e-06 -3.31342e-06 1.0833e-06 1.37951e-05 -2.57607e-06 -2.66435e-06)
(-3.02074e-06 -4.67142e-06 7.43907e-07 1.48747e-05 -4.34248e-06 -2.08659e-06)
(-2.56797e-06 -5.56588e-06 1.92115e-06 1.01075e-05 -2.09091e-06 -2.62817e-06)
(-1.66922e-06 -5.75866e-06 2.46711e-06 1.00729e-05 -2.80307e-06 -1.71106e-06)
(-9.75415e-07 -6.20233e-06 2.43238e-06 1.03038e-05 -4.30432e-06 -1.02728e-06)
(-2.34013e-06 -6.38462e-06 2.39506e-06 9.71082e-06 -1.11831e-06 -2.54967e-06)
(-1.0043e-06 -6.67713e-06 3.13756e-06 9.45242e-06 -2.16412e-06 -1.51018e-06)
(4.38734e-07 -7.25555e-06 3.64211e-06 9.39511e-06 -3.94641e-06 -6.43401e-07)
(-2.61956e-06 -7.19474e-06 2.42607e-06 8.96295e-06 -1.85256e-07 -2.14735e-06)
(-6.58407e-07 -7.60573e-06 3.24207e-06 8.39268e-06 -1.49366e-06 -1.26683e-06)
(1.28561e-06 -7.81069e-06 3.84957e-06 7.96357e-06 -3.53615e-06 -5.50005e-07)
(-2.06133e-06 -8.14819e-06 2.23317e-06 7.77591e-06 3.79435e-07 -1.90398e-06)
(2.22845e-07 -8.27797e-06 3.14665e-06 7.22267e-06 -1.13768e-06 -1.13175e-06)
(2.32332e-06 -8.15947e-06 4.0108e-06 6.60823e-06 -3.20628e-06 -3.82595e-07)
(-1.05755e-06 -8.94386e-06 1.97667e-06 6.43735e-06 8.10669e-07 -1.72607e-06)
(1.34234e-06 -8.82081e-06 2.94184e-06 6.10154e-06 -7.864e-07 -1.22188e-06)
(3.44067e-06 -8.41712e-06 3.89894e-06 5.46222e-06 -2.75414e-06 -4.62607e-07)
(2.61824e-07 -9.63526e-06 1.74436e-06 4.99299e-06 1.13762e-06 -1.63361e-06)
(2.59921e-06 -9.18422e-06 2.63107e-06 5.04708e-06 -4.63003e-07 -1.43176e-06)
(4.65913e-06 -8.41544e-06 3.5023e-06 4.41878e-06 -2.19974e-06 -7.7305e-07)
(1.76618e-06 -1.0341e-05 1.38857e-06 3.68985e-06 1.35415e-06 -1.76167e-06)
(3.78546e-06 -9.33615e-06 1.92742e-06 4.29316e-06 -5.80627e-08 -1.94712e-06)
(5.74415e-06 -8.09932e-06 2.63768e-06 3.54468e-06 -1.30268e-06 -1.63692e-06)
(3.85203e-06 -1.11517e-05 1.61823e-06 2.80405e-06 5.57671e-07 -3.57205e-06)
(5.59031e-06 -9.67331e-06 1.55522e-06 3.86214e-06 -2.31691e-07 -4.85058e-06)
(7.8736e-06 -8.5673e-06 2.02151e-06 2.66491e-06 -3.72219e-07 -4.73051e-06)
(-3.90262e-06 -8.73063e-07 8.86685e-07 1.20647e-05 -8.73631e-07 -2.30126e-06)
(-4.71394e-06 -2.44038e-06 1.8922e-06 9.77405e-06 -1.40036e-07 -6.86531e-07)
(-5.39847e-06 -3.48971e-06 2.44833e-06 9.72564e-06 6.41419e-07 -5.64834e-07)
(-5.75187e-06 -4.97651e-06 2.53626e-06 8.80241e-06 1.30403e-06 9.58013e-08)
(-5.76129e-06 -6.48726e-06 2.61304e-06 7.35753e-06 1.91267e-06 4.03486e-07)
(-5.41914e-06 -7.9354e-06 2.58185e-06 5.41435e-06 2.42525e-06 7.64977e-07)
(-4.71306e-06 -9.25181e-06 2.49873e-06 2.97691e-06 2.99368e-06 1.11884e-06)
(-3.70857e-06 -1.0471e-05 2.33495e-06 4.12421e-08 3.72734e-06 1.39784e-06)
(-2.12567e-06 -1.23058e-05 2.58442e-06 -2.38035e-06 4.55873e-06 5.90134e-07)
(-6.29354e-06 -8.77152e-07 1.5486e-06 1.15835e-05 -7.273e-07 -1.40941e-06)
(-6.84257e-06 -3.11562e-06 2.50843e-06 9.03828e-06 1.24309e-07 1.74965e-07)
(-7.13892e-06 -4.36251e-06 2.87586e-06 8.46631e-06 8.07352e-07 5.73792e-07)
(-7.31379e-06 -5.92023e-06 3.17289e-06 7.26049e-06 1.53196e-06 9.36039e-07)
(-7.06344e-06 -7.4013e-06 3.21246e-06 5.56139e-06 2.12439e-06 1.31578e-06)
(-6.548e-06 -8.75812e-06 3.20774e-06 3.41142e-06 2.72848e-06 1.7145e-06)
(-5.75998e-06 -9.93704e-06 3.16453e-06 8.27454e-07 3.41372e-06 2.11539e-06)
(-4.69634e-06 -1.09289e-05 3.08462e-06 -2.17043e-06 4.26765e-06 2.42838e-06)
(-3.21856e-06 -1.2341e-05 3.33623e-06 -4.26718e-06 5.37444e-06 1.58875e-06)
(-8.85189e-06 -1.23926e-06 2.15101e-06 1.06888e-05 -6.11045e-07 -2.82191e-07)
(-9.22236e-06 -3.77448e-06 3.10529e-06 8.05513e-06 3.38084e-07 1.21863e-06)
(-9.36502e-06 -5.22173e-06 3.48031e-06 7.17355e-06 1.06394e-06 1.60421e-06)
(-9.2778e-06 -6.80447e-06 3.67736e-06 5.7567e-06 1.73553e-06 1.95972e-06)
(-8.85595e-06 -8.30827e-06 3.72885e-06 3.8612e-06 2.36755e-06 2.34236e-06)
(-8.18478e-06 -9.65222e-06 3.7177e-06 1.53528e-06 3.02241e-06 2.75548e-06)
(-7.27663e-06 -1.07814e-05 3.66592e-06 -1.19049e-06 3.75825e-06 3.17549e-06)
(-6.12888e-06 -1.16713e-05 3.57707e-06 -4.293e-06 4.66654e-06 3.51185e-06)
(-4.76481e-06 -1.29238e-05 3.83178e-06 -6.44215e-06 5.90815e-06 2.76174e-06)
(-1.17571e-05 -1.65834e-06 2.68031e-06 9.59531e-06 -4.94864e-07 1.05776e-06)
(-1.20243e-05 -4.45849e-06 3.71217e-06 6.95064e-06 5.47191e-07 2.39572e-06)
(-1.19793e-05 -6.07859e-06 4.06201e-06 5.82901e-06 1.2721e-06 2.74973e-06)
(-1.16449e-05 -7.74797e-06 4.21214e-06 4.2037e-06 1.9447e-06 3.09453e-06)
(-1.1023e-05 -9.31117e-06 4.24165e-06 2.12144e-06 2.60795e-06 3.47381e-06)
(-1.01666e-05 -1.06792e-05 4.2048e-06 -3.73364e-07 3.29816e-06 3.88957e-06)
(-9.09433e-06 -1.17952e-05 4.12604e-06 -3.24686e-06 4.06947e-06 4.32062e-06)
(-7.80887e-06 -1.26479e-05 4.01348e-06 -6.47254e-06 5.02647e-06 4.69398e-06)
(-6.45522e-06 -1.38063e-05 4.23867e-06 -8.83412e-06 6.39751e-06 4.04401e-06)
(-1.52386e-05 -2.14253e-06 3.25011e-06 8.33357e-06 -4.02064e-07 2.65361e-06)
(-1.5287e-05 -5.17103e-06 4.29951e-06 5.7473e-06 7.19393e-07 3.71735e-06)
(-1.49877e-05 -6.97286e-06 4.62817e-06 4.39347e-06 1.43811e-06 4.02671e-06)
(-1.43824e-05 -8.77035e-06 4.73906e-06 2.56684e-06 2.12913e-06 4.35163e-06)
(-1.3515e-05 -1.0422e-05 4.73474e-06 3.03979e-07 2.82048e-06 4.71719e-06)
(-1.24281e-05 -1.1834e-05 4.66433e-06 -2.35451e-06 3.53656e-06 5.12104e-06)
(-1.11409e-05 -1.29474e-05 4.55387e-06 -5.36669e-06 4.32684e-06 5.53573e-06)
(-9.6397e-06 -1.37513e-05 4.41564e-06 -8.7083e-06 5.29799e-06 5.89361e-06)
(-8.1632e-06 -1.47108e-05 4.60452e-06 -1.12819e-05 6.76572e-06 5.39393e-06)
(-1.92618e-05 -2.64733e-06 3.69178e-06 6.91359e-06 -3.6225e-07 4.52425e-06)
(-1.89972e-05 -5.88867e-06 4.81817e-06 4.442e-06 8.64506e-07 5.18594e-06)
(-1.83501e-05 -7.90064e-06 5.11935e-06 2.85052e-06 1.55582e-06 5.44333e-06)
(-1.74247e-05 -9.85627e-06 5.19066e-06 8.38221e-07 2.26295e-06 5.72918e-06)
(-1.62602e-05 -1.16143e-05 5.14946e-06 -1.59382e-06 2.97643e-06 6.06368e-06)
(-1.48951e-05 -1.30821e-05 5.04782e-06 -4.40366e-06 3.7118e-06 6.43757e-06)
(-1.33489e-05 -1.41959e-05 4.91767e-06 -7.53164e-06 4.51291e-06 6.81766e-06)
(-1.15857e-05 -1.49185e-05 4.77243e-06 -1.09363e-05 5.48357e-06 7.14885e-06)
(-9.91e-06 -1.55535e-05 4.92608e-06 -1.36191e-05 7.0343e-06 6.72427e-06)
(-2.3809e-05 -3.21525e-06 4.08584e-06 5.32389e-06 -2.75854e-07 6.60509e-06)
(-2.30431e-05 -6.59005e-06 5.18851e-06 3.01781e-06 9.36775e-07 6.80345e-06)
(-2.19409e-05 -8.84217e-06 5.43328e-06 1.19118e-06 1.59169e-06 6.97242e-06)
(-2.06392e-05 -1.09666e-05 5.46295e-06 -9.72673e-07 2.30594e-06 7.19776e-06)
(-1.91425e-05 -1.28359e-05 5.39452e-06 -3.55331e-06 3.03359e-06 7.48828e-06)
(-1.74665e-05 -1.43652e-05 5.28428e-06 -6.49733e-06 3.77965e-06 7.81563e-06)
(-1.56256e-05 -1.54828e-05 5.16344e-06 -9.71457e-06 4.58368e-06 8.13566e-06)
(-1.35903e-05 -1.61041e-05 5.03988e-06 -1.31074e-05 5.52112e-06 8.39128e-06)
(-1.1543e-05 -1.62208e-05 5.11236e-06 -1.56737e-05 7.04643e-06 8.07955e-06)
(-2.92955e-05 -4.0159e-06 4.30212e-06 3.4778e-06 -2.57218e-07 9.18694e-06)
(-2.75744e-05 -7.39962e-06 5.00884e-06 1.3649e-06 8.09627e-07 9.01627e-06)
(-2.59066e-05 -9.92715e-06 5.17854e-06 -6.02258e-07 1.41955e-06 9.11106e-06)
(-2.42031e-05 -1.22184e-05 5.19513e-06 -2.91607e-06 2.1159e-06 9.28067e-06)
(-2.23437e-05 -1.42109e-05 5.16865e-06 -5.6556e-06 2.82216e-06 9.51032e-06)
(-2.03021e-05 -1.58103e-05 5.12861e-06 -8.7492e-06 3.56016e-06 9.75647e-06)
(-1.80859e-05 -1.69352e-05 5.10116e-06 -1.20643e-05 4.37149e-06 9.96499e-06)
(-1.57476e-05 -1.74486e-05 5.10257e-06 -1.54036e-05 5.28982e-06 1.00994e-05)
(-1.28871e-05 -1.66036e-05 4.8266e-06 -1.74804e-05 6.51659e-06 1.00788e-05)
(-3.66474e-05 -4.70951e-06 8.32219e-06 1.43226e-06 2.1524e-07 1.40096e-05)
(-3.45835e-05 -8.47295e-06 8.50363e-06 -1.92169e-07 1.3349e-06 1.37726e-05)
(-3.25362e-05 -1.15997e-05 8.51699e-06 -2.33657e-06 2.32895e-06 1.36864e-05)
(-3.03678e-05 -1.43638e-05 8.51584e-06 -4.96977e-06 3.37178e-06 1.36508e-05)
(-2.79602e-05 -1.67057e-05 8.48695e-06 -8.08884e-06 4.45141e-06 1.36383e-05)
(-2.52947e-05 -1.85287e-05 8.4292e-06 -1.15771e-05 5.59015e-06 1.35924e-05)
(-2.23756e-05 -1.97514e-05 8.34786e-06 -1.52542e-05 6.81776e-06 1.34449e-05)
(-1.93606e-05 -2.01132e-05 8.29729e-06 -1.88249e-05 8.10861e-06 1.32161e-05)
(-1.6236e-05 -1.96723e-05 7.37836e-06 -2.22467e-05 9.9735e-06 1.32312e-05)
(-1.29533e-05 -1.98302e-05 4.86242e-06 -2.81168e-05 9.95804e-06 1.13929e-05)
(-1.01542e-05 -1.7554e-05 2.68603e-06 -2.44659e-05 5.52263e-06 1.00766e-05)
(-8.62026e-06 -1.65348e-05 2.64178e-06 -2.16237e-05 4.88203e-06 9.11148e-06)
(-7.12873e-06 -1.54757e-05 2.57237e-06 -1.86297e-05 4.42797e-06 8.06984e-06)
(-5.47641e-06 -1.45267e-05 2.49977e-06 -1.59668e-05 4.19964e-06 6.84221e-06)
(-3.79077e-06 -1.35945e-05 2.7484e-06 -1.33152e-05 4.24175e-06 5.4947e-06)
(-2.31639e-06 -1.27652e-05 2.60765e-06 -1.06737e-05 3.81566e-06 4.55137e-06)
(-5.02388e-07 -1.20924e-05 2.88359e-06 -8.64709e-06 3.45571e-06 3.31468e-06)
(2.74799e-07 -1.19308e-05 3.22289e-06 -6.81998e-06 2.42786e-06 3.8694e-06)
(-1.02616e-05 -1.94756e-05 3.99393e-06 -3.23687e-05 1.03911e-05 1.19489e-05)
(-7.76221e-06 -1.72812e-05 2.57102e-06 -2.86456e-05 6.2694e-06 1.05426e-05)
(-6.24213e-06 -1.59868e-05 2.42711e-06 -2.53182e-05 5.45574e-06 9.53205e-06)
(-4.89014e-06 -1.50015e-05 2.37742e-06 -2.23784e-05 5.04483e-06 8.49081e-06)
(-3.60125e-06 -1.40433e-05 2.22026e-06 -1.94505e-05 4.61383e-06 7.54044e-06)
(-2.31251e-06 -1.30787e-05 2.2531e-06 -1.65963e-05 4.41111e-06 6.05638e-06)
(-7.36865e-07 -1.2125e-05 2.58028e-06 -1.39831e-05 4.19365e-06 4.77535e-06)
(9.06525e-07 -1.12397e-05 2.9628e-06 -1.17763e-05 3.75799e-06 3.83438e-06)
(1.46504e-06 -1.11349e-05 3.13186e-06 -9.82364e-06 2.47487e-06 4.31707e-06)
(-7.98177e-06 -1.84879e-05 3.84678e-06 -3.65821e-05 1.13217e-05 1.25948e-05)
(-5.68305e-06 -1.61995e-05 2.56803e-06 -3.23424e-05 6.94903e-06 1.08432e-05)
(-4.51828e-06 -1.5195e-05 2.07623e-06 -2.90384e-05 5.52208e-06 1.02696e-05)
(-3.22112e-06 -1.40586e-05 1.99512e-06 -2.5865e-05 5.12236e-06 8.74342e-06)
(-1.82895e-06 -1.29266e-05 2.2146e-06 -2.27767e-05 5.06981e-06 7.47595e-06)
(-4.49714e-07 -1.18455e-05 2.33055e-06 -1.96601e-05 4.83637e-06 6.10429e-06)