/*--------------------------------*- C++ -*----------------------------------*\
| =========                 |                                                 |
| \\      /  F ield         | OpenFOAM: The Open Source CFD Toolbox           |
|  \\    /   O peration     | Version:  v2012                                 |
|   \\  /    A nd           | Website:  www.openfoam.com                      |
|    \\/     M anipulation  |                                                 |
\*---------------------------------------------------------------------------*/
FoamFile
{
    version     2.0;
    format      ascii;
    class       volScalarField;
    location    "1";
    object      sigmaEq;
}
// * * * * * * * * * * * * * * * * * * * * * * * * * * * * * * * * * * * * * //

dimensions      [1 -1 -2 0 0 0 0];


internalField   nonuniform List<scalar> 
6720
(
3.86514e+06
1.60573e+06
1.65767e+06
1.72985e+06
1.31577e+06
2.55628e+06
770631
1.52134e+06
1.83617e+06
1.21473e+06
2.33811e+06
1.62847e+06
2.52825e+06
1.43899e+06
3.79941e+06
1.65949e+06
1.26999e+06
2.37673e+06
722223
1.71736e+06
2.77847e+06
1.3878e+06
2.62954e+06
2.78886e+06
2.70086e+06
1.53276e+06
1.59319e+06
1.82867e+06
1.3273e+06
1.76447e+06
790977
1.80199e+06
1.75207e+06
1.49166e+06
2.87904e+06
2.78172e+06
2.94005e+06
1.43216e+06
2.67234e+06
1.75093e+06
1.2997e+06
1.17957e+06
1.46081e+06
1.91403e+06
1.67408e+06
1.82197e+06
2.80263e+06
2.07235e+06
3.18188e+06
1.55594e+06
1.86147e+06
1.79064e+06
1.71324e+06
1.25017e+06
1.64774e+06
1.9382e+06
1.85213e+06
2.02964e+06
3.08729e+06
2.19859e+06
2.92142e+06
1.64156e+06
2.90637e+06
2.22607e+06
1.80473e+06
1.77746e+06
1.88328e+06
2.13069e+06
2.05147e+06
2.11196e+06
3.24593e+06
2.96385e+06
3.45583e+06
2.37528e+06
2.42456e+06
2.20476e+06
2.70904e+06
1.67002e+06
1.57813e+06
3.18629e+06
1.78457e+06
2.13372e+06
3.87971e+06
3.10644e+06
3.10163e+06
2.34479e+06
2.96539e+06
2.12057e+06
2.71139e+06
2.8602e+06
1.57652e+06
3.13233e+06
2.96935e+06
2.0386e+06
3.71386e+06
3.21292e+06
3.23581e+06
2.16936e+06
3.62976e+06
2.00916e+06
902670
932960
1.4117e+06
1.48595e+06
1.4804e+06
1.66515e+06
2.67587e+06
2.59987e+06
2.77997e+06
1.81266e+06
1.93958e+06
1.9795e+06
660662
1.56248e+06
1.04201e+06
1.73615e+06
1.85509e+06
1.7507e+06
2.76716e+06
1.79355e+06
2.99784e+06
1.5356e+06
1.91938e+06
1.70913e+06
835732
1.94316e+06
1.15691e+06
1.85341e+06
1.80139e+06
1.89369e+06
2.93133e+06
2.80226e+06
2.86407e+06
1.77088e+06
2.7215e+06
1.92783e+06
1.27162e+06
1.21473e+06
1.38872e+06
1.77619e+06
1.55773e+06
1.61817e+06
2.92797e+06
1.93988e+06
3.07043e+06
1.86956e+06
2.06364e+06
2.00312e+06
1.1399e+06
1.98215e+06
1.2264e+06
1.94334e+06
2.44916e+06
1.81712e+06
3.30657e+06
2.8295e+06
2.69961e+06
1.69335e+06
2.52326e+06
2.2647e+06
1.93135e+06
1.85882e+06
1.93144e+06
2.53452e+06
1.81545e+06
2.0796e+06
3.19709e+06
2.37783e+06
3.21972e+06
2.41817e+06
2.36198e+06
2.28171e+06
2.84136e+06
1.79254e+06
1.57629e+06
3.33462e+06
1.91988e+06
2.16126e+06
3.97725e+06
3.02823e+06
2.99014e+06
2.31019e+06
2.92432e+06
2.16792e+06
2.86701e+06
3.01138e+06
1.58431e+06
3.28983e+06
3.0901e+06
2.01497e+06
3.60084e+06
3.13143e+06
3.24761e+06
1.90472e+06
3.48721e+06
2.11083e+06
878640
1.17962e+06
790126
1.75958e+06
2.12244e+06
1.75015e+06
3.52221e+06
2.06986e+06
2.98556e+06
1.78793e+06
1.91937e+06
1.73075e+06
793565
2.5838e+06
989409
1.96509e+06
1.42944e+06
1.46361e+06
2.78524e+06
2.59621e+06
3.22444e+06
1.73158e+06
1.93772e+06
1.8121e+06
921310
1.3877e+06
1.08151e+06
1.57998e+06
1.54222e+06
1.53634e+06
2.79941e+06
2.42228e+06
2.83906e+06
1.67049e+06
2.71077e+06
1.87438e+06
1.33512e+06
1.98638e+06
1.36916e+06
1.77104e+06
1.34386e+06
1.60342e+06
2.7107e+06
1.94123e+06
3.01066e+06
1.71336e+06
2.03167e+06
1.89377e+06
1.19114e+06
2.00745e+06
1.24396e+06
1.90139e+06
2.27152e+06
1.76489e+06
3.0575e+06
2.66115e+06
2.64631e+06
1.69616e+06
2.44607e+06
2.2795e+06
2.0017e+06
1.85098e+06
2.03709e+06
2.43154e+06
1.72919e+06
1.97455e+06
2.94953e+06
2.23503e+06
3.18288e+06
2.44289e+06
2.35525e+06
2.26566e+06
2.95657e+06
1.80245e+06
1.61881e+06
3.37311e+06
1.81664e+06
2.10509e+06
3.80191e+06
2.87984e+06
2.97075e+06
2.39206e+06
2.9392e+06
2.20823e+06
2.9651e+06
3.04992e+06
1.61173e+06
3.24978e+06
3.09845e+06
1.80803e+06
3.33758e+06
2.93506e+06
3.3312e+06
1.84223e+06
3.53576e+06
1.79675e+06
856743
2.34319e+06
840912
1.83589e+06
1.71948e+06
1.8993e+06
3.56785e+06
2.13768e+06
3.13847e+06
1.91002e+06
2.01426e+06
1.7995e+06
1.42269e+06
1.05968e+06
951208
1.94424e+06
1.52348e+06
1.54588e+06
2.91948e+06
2.78017e+06
3.35923e+06
1.89809e+06
2.06309e+06
1.89834e+06
1.0019e+06
1.2735e+06
1.04737e+06
1.61254e+06
1.57388e+06
1.52257e+06
2.91649e+06
2.41679e+06
2.8599e+06
1.70606e+06
2.71705e+06
1.91343e+06
1.33395e+06
1.75946e+06
1.37807e+06
1.86016e+06
1.31415e+06
1.59936e+06
2.71454e+06
1.96228e+06
3.02926e+06
1.74932e+06
2.06637e+06
1.93277e+06
1.26824e+06
2.0386e+06
1.31798e+06
1.95165e+06
2.23898e+06
1.72287e+06
2.98721e+06
2.53044e+06
2.64861e+06
1.73488e+06
2.44346e+06
2.35607e+06
2.06044e+06
1.87885e+06
2.13241e+06
2.46252e+06
1.79008e+06
1.9514e+06
2.80815e+06
2.19576e+06
3.20955e+06
2.4855e+06
2.3986e+06
2.32371e+06
2.9813e+06
1.8377e+06
1.6452e+06
3.34316e+06
1.76938e+06
1.95647e+06
3.60701e+06
2.66211e+06
2.98347e+06
2.44034e+06
3.00295e+06
2.24948e+06
3.01714e+06
3.28089e+06
1.66204e+06
3.36123e+06
3.29541e+06
1.92945e+06
3.57126e+06
3.24692e+06
3.41135e+06
1.83959e+06
3.56152e+06
1.77081e+06
778134
2.20381e+06
831771
1.87757e+06
1.64554e+06
1.97797e+06
3.57233e+06
2.22266e+06
3.24522e+06
1.94579e+06
2.05905e+06
1.82784e+06
1.32413e+06
1.10665e+06
915839
1.89564e+06
1.55765e+06
1.60815e+06
3.02773e+06
2.92114e+06
3.43057e+06
1.97354e+06
2.14328e+06
1.92862e+06
963009
1.36952e+06
951221
1.65083e+06
1.63897e+06
1.54865e+06
3.03218e+06
2.47908e+06
2.87512e+06
1.73957e+06
2.7321e+06
1.94689e+06
1.40463e+06
1.69684e+06
1.41036e+06
1.88117e+06
1.28421e+06
1.57731e+06
2.73631e+06
1.96963e+06
3.05212e+06
1.79075e+06
2.1136e+06
1.97535e+06
1.35794e+06
2.14733e+06
1.3667e+06
1.97952e+06
2.30882e+06
1.69878e+06
2.98671e+06
2.50812e+06
2.64583e+06
1.77867e+06
2.45121e+06
2.42205e+06
2.1658e+06
1.90973e+06
2.23684e+06
2.53646e+06
1.84382e+06
1.98245e+06
2.80683e+06
2.20715e+06
3.25675e+06
2.59224e+06
2.4736e+06
2.3768e+06
3.21631e+06
1.9258e+06
1.70969e+06
3.51084e+06
1.82376e+06
2.01367e+06
3.82451e+06
2.70572e+06
2.97692e+06
2.52431e+06
3.04014e+06
2.2814e+06
3.25056e+06
3.32276e+06
1.71625e+06
3.50239e+06
3.55631e+06
1.94318e+06
3.72034e+06
3.42253e+06
3.48263e+06
1.85543e+06
3.58433e+06
1.7832e+06
715346
2.10851e+06
834052
1.90615e+06
1.56012e+06
2.03213e+06
3.6081e+06
2.26595e+06
3.33498e+06
1.96733e+06
2.09054e+06
1.85661e+06
1.21782e+06
1.09722e+06
893805
1.89118e+06
1.6087e+06
1.68778e+06
3.12059e+06
3.02363e+06
3.4784e+06
2.02309e+06
2.18464e+06
1.95355e+06
1.00875e+06
1.44077e+06
939420
1.72639e+06
1.69506e+06
1.61188e+06
3.11222e+06
2.50549e+06
2.87354e+06
1.7564e+06
2.75012e+06
1.97308e+06
1.46959e+06
1.69068e+06
1.45446e+06
1.92572e+06
1.2952e+06
1.58794e+06
2.73357e+06
1.99995e+06
3.05849e+06
1.81763e+06
2.1382e+06
2.01363e+06
1.43477e+06
2.23658e+06
1.42153e+06
2.02943e+06
2.41344e+06
1.70983e+06
2.98564e+06
2.52309e+06
2.63341e+06
1.80306e+06
2.45397e+06
2.48874e+06
2.25283e+06
1.96238e+06
2.32119e+06
2.61548e+06
1.90547e+06
2.00511e+06
2.79225e+06
2.20299e+06
3.2853e+06
2.67925e+06
2.52467e+06
2.41773e+06
3.25647e+06
1.98114e+06
1.75119e+06
3.73804e+06
1.85371e+06
2.0287e+06
3.95557e+06
2.69819e+06
3.01111e+06
2.62159e+06
3.10548e+06
2.33369e+06
3.27609e+06
3.51912e+06
1.75911e+06
3.72861e+06
3.66113e+06
1.95249e+06
3.80473e+06
3.52181e+06
3.55665e+06
1.89168e+06
3.61604e+06
1.81732e+06
677637
2.03613e+06
850690
1.94449e+06
1.46941e+06
2.08791e+06
3.6729e+06
2.30421e+06
3.42684e+06
2.00295e+06
2.12952e+06
1.90809e+06
1.1287e+06
1.07503e+06
908542
1.90554e+06
1.65597e+06
1.76625e+06
3.21842e+06
3.12024e+06
3.52848e+06
2.07669e+06
2.20988e+06
1.99886e+06
1.07103e+06
1.50481e+06
978729
1.80451e+06
1.76069e+06
1.67996e+06
3.18218e+06
2.54152e+06
2.86243e+06
1.76534e+06
2.78011e+06
1.99974e+06
1.53398e+06
1.72416e+06
1.51168e+06
1.98151e+06
1.33355e+06
1.61771e+06
2.73413e+06
2.02644e+06
3.05632e+06
1.8363e+06
2.14925e+06
2.05128e+06
1.51155e+06
2.33388e+06
1.49047e+06
2.08417e+06
2.50014e+06
1.73495e+06
2.98257e+06
2.53624e+06
2.60511e+06
1.81858e+06
2.45917e+06
2.54274e+06
2.34772e+06
2.02432e+06
2.40303e+06
2.68152e+06
1.97126e+06
2.03319e+06
2.76051e+06
2.19513e+06
3.31333e+06
2.76236e+06
2.58115e+06
2.4671e+06
3.45112e+06
2.05579e+06
1.78856e+06
3.82211e+06
1.8855e+06
2.04284e+06
4.01251e+06
2.66819e+06
3.01613e+06
2.68131e+06
3.13995e+06
2.36251e+06
3.46283e+06
3.6327e+06
1.79156e+06
3.80541e+06
3.77333e+06
1.96683e+06
3.86207e+06
3.60857e+06
3.64709e+06
1.95102e+06
3.67217e+06
1.875e+06
677227
1.98573e+06
881777
1.99559e+06
1.38546e+06
2.14666e+06
3.77443e+06
2.34583e+06
3.52901e+06
2.07209e+06
2.18784e+06
1.98892e+06
1.06279e+06
1.07248e+06
977712
1.9361e+06
1.69559e+06
1.84357e+06
3.35135e+06
3.23839e+06
3.59754e+06
2.15395e+06
2.23586e+06
2.07293e+06
1.14903e+06
1.57214e+06
1.06416e+06
1.87218e+06
1.84596e+06
1.7468e+06
3.26361e+06
2.61982e+06
2.85236e+06
1.7819e+06
2.83515e+06
2.03803e+06
1.59832e+06
1.78693e+06
1.58911e+06
2.04456e+06
1.40141e+06
1.67e+06
2.73427e+06
2.0176e+06
3.05123e+06
1.8581e+06
2.14304e+06
2.09455e+06
1.58714e+06
2.41536e+06
1.57857e+06
2.14243e+06
2.59199e+06
1.77949e+06
2.97285e+06
2.5668e+06
2.53656e+06
1.81906e+06
2.46619e+06
2.58134e+06
2.42274e+06
2.09049e+06
2.48529e+06
2.74771e+06
2.05775e+06
2.06785e+06
2.70848e+06
2.16917e+06
3.29088e+06
2.81563e+06
2.60997e+06
2.49476e+06
3.56335e+06
2.10616e+06
1.83553e+06
3.91483e+06
1.9053e+06
2.04762e+06
4.03858e+06
2.608e+06
2.96843e+06
2.71089e+06
3.11754e+06
2.36857e+06
3.56572e+06
3.69652e+06
1.83484e+06
3.89155e+06
3.86171e+06
1.9738e+06
3.88775e+06
3.65357e+06
3.79042e+06
2.02957e+06
3.82121e+06
1.94563e+06
723833
1.94156e+06
939899
2.03049e+06
1.28743e+06
2.18432e+06
3.9562e+06
2.34347e+06
3.64705e+06
2.24001e+06
2.27204e+06
2.10642e+06
1.01731e+06
1.11982e+06
1.08646e+06
1.92453e+06
1.71571e+06
1.88196e+06
3.53033e+06
3.40336e+06
3.71145e+06
2.27978e+06
2.28285e+06
2.18471e+06
1.24457e+06
1.65216e+06
1.15883e+06
1.9048e+06
1.94866e+06
1.76504e+06
3.38495e+06
2.81412e+06
2.96277e+06
1.84083e+06
2.96128e+06
2.11647e+06
1.67448e+06
1.88439e+06
1.68198e+06
2.09471e+06
1.48772e+06
1.72421e+06
2.72595e+06
1.90415e+06
3.14692e+06
1.90698e+06
2.11415e+06
2.15871e+06
1.66524e+06
2.48248e+06
1.67236e+06
2.19537e+06
2.69101e+06
1.83695e+06
2.95456e+06
2.62871e+06
2.45437e+06
1.81803e+06
2.59801e+06
2.63166e+06
2.46411e+06
2.15868e+06
2.57916e+06
2.79356e+06
2.15545e+06
2.1912e+06
2.69345e+06
2.20729e+06
3.19113e+06
2.81682e+06
2.59953e+06
2.52837e+06
3.62736e+06
2.13763e+06
1.92589e+06
3.9729e+06
1.92234e+06
2.10297e+06
4.00105e+06
2.50029e+06
2.78775e+06
2.68641e+06
2.93038e+06
2.37375e+06
3.62384e+06
3.7064e+06
1.92044e+06
3.95165e+06
3.93356e+06
2.01995e+06
3.83728e+06
3.64191e+06
3.93117e+06
2.07671e+06
3.84111e+06
1.97309e+06
926255
1.71597e+06
1.04072e+06
2.15486e+06
999020
2.27779e+06
4.43923e+06
2.38624e+06
3.4105e+06
1.82044e+06
1.79774e+06
1.85288e+06
1.26383e+06
966755
1.14391e+06
2.20207e+06
1.97376e+06
2.21292e+06
4.07376e+06
4.06407e+06
3.32444e+06
1.83835e+06
3.42318e+06
2.17281e+06
1.28861e+06
1.90699e+06
1.66892e+06
2.13471e+06
1.36105e+06
2.1403e+06
4.00393e+06
2.21146e+06
2.81978e+06
1.6949e+06
1.70423e+06
2.09906e+06
1.29874e+06
1.59196e+06
1.75054e+06
1.7067e+06
1.91223e+06
1.79402e+06
2.86166e+06
2.72862e+06
2.87714e+06
1.75718e+06
2.85372e+06
2.73617e+06
1.66359e+06
2.08352e+06
2.57682e+06
2.20486e+06
1.92436e+06
2.31109e+06
3.12437e+06
2.20321e+06
2.83925e+06
1.58816e+06
2.29733e+06
2.72415e+06
1.6879e+06
2.56897e+06
2.63963e+06
2.09603e+06
2.74507e+06
2.23228e+06
2.58898e+06
2.67113e+06
3.21812e+06
2.10353e+06
3.03736e+06
2.52505e+06
1.9544e+06
4.00087e+06
1.95564e+06
2.51092e+06
4.25886e+06
2.10692e+06
3.36937e+06
3.91565e+06
3.48187e+06
3.10034e+06
3.01993e+06
3.93011e+06
3.65792e+06
2.6921e+06
3.75305e+06
3.83406e+06
2.43483e+06
3.0021e+06
3.31348e+06
2.43222e+06
3.4803e+06
1.88431e+06
2.02367e+06
2.10544e+06
970440
1.04288e+06
911793
1.75838e+06
5.4558e+06
1.52963e+06
2.4581e+06
4.77436e+06
3.59246e+06
1.92443e+06
3.37487e+06
2.14501e+06
1.33337e+06
2.02786e+06
1.3213e+06
2.21429e+06
6.01199e+06
2.08528e+06
3.94561e+06
7.14348e+06
3.62031e+06
1.75017e+06
1.90866e+06
1.98733e+06
1.14705e+06
995735
1.15158e+06
2.00413e+06
1.79791e+06
1.99232e+06
3.13287e+06
3.02713e+06
3.6739e+06
2.04572e+06
3.72535e+06
2.26237e+06
1.0161e+06
2.06608e+06
1.12525e+06
2.1256e+06
1.47952e+06
2.11246e+06
3.6735e+06
2.62148e+06
3.79318e+06
1.93528e+06
2.1537e+06
2.15954e+06
984024
801227
1.18608e+06
2.16256e+06
1.89532e+06
2.23403e+06
3.59413e+06
3.46838e+06
3.99267e+06
2.00578e+06
3.68827e+06
2.25514e+06
903696
2.11827e+06
1.10901e+06
2.39102e+06
1.69859e+06
2.51237e+06
4.27719e+06
3.18728e+06
4.15759e+06
2.02596e+06
2.32744e+06
2.25543e+06
779026
609678
1.21455e+06
2.43509e+06
2.01887e+06
2.63267e+06
4.21831e+06
4.01594e+06
4.35916e+06
2.11516e+06
4.29901e+06
2.35569e+06
612064
2.11402e+06
1.08832e+06
2.35894e+06
1.63386e+06
2.55531e+06
4.36521e+06
2.9667e+06
2.35256e+06
1.50987e+06
4.12674e+06
1.54637e+06
1.07522e+06
3.77885e+06
1.15707e+06
1.9135e+06
5.16104e+06
1.69569e+06
3.62994e+06
3.582e+06
2.9928e+06
1.63439e+06
2.83516e+06
1.79891e+06
1.6211e+06
1.51928e+06
1.44965e+06
2.36852e+06
1.98875e+06
2.14234e+06
3.22476e+06
2.87259e+06
2.73692e+06
1.65872e+06
1.45847e+06
1.7273e+06
913848
3.11478e+06
904294
1.96577e+06
1.18369e+06
1.7409e+06
2.95648e+06
5.43699e+06
3.03665e+06
1.43899e+06
2.71475e+06
1.86595e+06
1.49349e+06
3.05934e+06
1.48094e+06
2.08002e+06
4.63976e+06
1.79405e+06
3.04983e+06
2.35035e+06
3.05352e+06
1.34436e+06
1.79077e+06
1.40408e+06
839969
3.41417e+06
1.26223e+06
1.79893e+06
1.53083e+06
1.93557e+06
3.31548e+06
2.67777e+06
3.1345e+06
1.94895e+06
3.13022e+06
2.37369e+06
1.77039e+06
3.89503e+06
1.5436e+06
2.52945e+06
4.10015e+06
2.21521e+06
3.62693e+06
3.16976e+06
3.26331e+06
1.76796e+06
2.06811e+06
1.75652e+06
1.63063e+06
1.56102e+06
462459
2.33719e+06
961932
1.82711e+06
3.46007e+06
2.27794e+06
3.15945e+06
2.17577e+06
4.61923e+06
1.74262e+06
2.05393e+06
1.97049e+06
1.33834e+06
2.98816e+06
2.73618e+06
2.48972e+06
4.2128e+06
3.85778e+06
2.79683e+06
1.55665e+06
4.05582e+06
1.68329e+06
1.31292e+06
3.60772e+06
1.17435e+06
2.2817e+06
3.04178e+06
2.15544e+06
3.42665e+06
2.92521e+06
3.05477e+06
1.85697e+06
2.35326e+06
2.12122e+06
1.68534e+06
1.83153e+06
1.55275e+06
2.27378e+06
2.04417e+06
2.00143e+06
3.27066e+06
2.8133e+06
2.86029e+06
1.55152e+06
1.87379e+06
1.73525e+06
1.29341e+06
1.60021e+06
942751
1.85441e+06
1.15483e+06
1.46959e+06
3.04006e+06
2.06382e+06
3.11906e+06
1.67835e+06
2.67154e+06
2.05314e+06
1.81418e+06
1.78342e+06
1.52606e+06
2.4612e+06
2.29068e+06
2.06498e+06
3.15078e+06
3.00763e+06
3.03396e+06
1.84671e+06
1.83335e+06
2.04704e+06
1.01126e+06
3.54827e+06
961818
2.00946e+06
4.51061e+06
1.88024e+06
3.18053e+06
4.88169e+06
3.28806e+06
1.81585e+06
2.9886e+06
2.60382e+06
1.49802e+06
2.08965e+06
1.97559e+06
2.05527e+06
1.95369e+06
2.13614e+06
3.25392e+06
2.68465e+06
3.2802e+06
1.59508e+06
1.80348e+06
1.83522e+06
1.47596e+06
4.06968e+06
1.4889e+06
2.27501e+06
3.61204e+06
2.44537e+06
3.58803e+06
2.94088e+06
3.47938e+06
2.66717e+06
4.47968e+06
2.42358e+06
2.26766e+06
2.75583e+06
1.64736e+06
2.92569e+06
3.0123e+06
2.62622e+06
4.32445e+06
2.4635e+06
3.01309e+06
1.92921e+06
3.67857e+06
2.03301e+06
1.38734e+06
1.60293e+06
1.51053e+06
2.01248e+06
1.88297e+06
1.80458e+06
3.34944e+06
3.07745e+06
3.11566e+06
1.88613e+06
2.38112e+06
2.26296e+06
1.72744e+06
2.15992e+06
1.72527e+06
2.32637e+06
2.01439e+06
2.04313e+06
3.6139e+06
2.57273e+06
2.85077e+06
1.62636e+06
1.96938e+06
1.90222e+06
1.40135e+06
1.16459e+06
1.47599e+06
2.15422e+06
1.71736e+06
2.0286e+06
3.40626e+06
3.16934e+06
3.15186e+06
1.86798e+06
2.76165e+06
2.36667e+06
1.6205e+06
2.15475e+06
1.81689e+06
2.33316e+06
2.01578e+06
2.17709e+06
3.57822e+06
2.43823e+06
2.97377e+06
1.67557e+06
1.97876e+06
2.19363e+06
1.17351e+06
1.46636e+06
1.59431e+06
1.93851e+06
1.59134e+06
2.01584e+06
3.40081e+06
2.73634e+06
3.28193e+06
1.87017e+06
2.87652e+06
2.64753e+06
1.67198e+06
2.22037e+06
2.2194e+06
2.44436e+06
2.27684e+06
2.43179e+06
3.36564e+06
2.64837e+06
3.14523e+06
1.61913e+06
1.87017e+06
2.50247e+06
1.40246e+06
1.79134e+06
2.2286e+06
2.46761e+06
1.94239e+06
2.687e+06
3.77607e+06
3.06365e+06
3.31927e+06
2.55346e+06
3.71548e+06
2.78155e+06
2.95472e+06
2.95336e+06
2.54764e+06
3.67137e+06
2.43845e+06
2.71529e+06
4.16279e+06
2.28292e+06
3.04512e+06
1.91864e+06
3.3703e+06
1.90531e+06
1.71447e+06
2.32554e+06
1.50032e+06
2.28698e+06
1.95545e+06
1.87071e+06
3.19012e+06
2.07629e+06
3.18891e+06
1.92462e+06
2.37521e+06
2.18643e+06
1.8924e+06
2.10244e+06
1.64741e+06
2.39783e+06
2.56626e+06
1.82477e+06
3.29628e+06
3.51378e+06
2.92014e+06
1.73261e+06
2.02799e+06
2.0052e+06
1.47134e+06
1.35098e+06
1.46039e+06
2.05884e+06
1.43994e+06
1.74468e+06
2.98632e+06
2.63191e+06
3.17138e+06
1.80421e+06
2.72773e+06
2.29193e+06
1.65811e+06
2.11286e+06
1.83293e+06
2.18207e+06
1.99159e+06
1.96777e+06
3.28453e+06
2.41001e+06
3.00808e+06
1.63431e+06
2.03904e+06
2.15567e+06
1.29771e+06
1.53757e+06
1.63224e+06
1.99728e+06
1.40569e+06
1.90671e+06
3.03972e+06
2.65929e+06
3.27383e+06
1.77161e+06
2.7704e+06
2.65411e+06
1.76959e+06
2.17026e+06
2.10052e+06
2.69437e+06
1.96144e+06
2.25178e+06
3.27909e+06
2.52684e+06
3.08664e+06
1.61203e+06
1.84165e+06
2.5349e+06
1.83796e+06
1.7734e+06
1.5454e+06
2.56172e+06
3.2515e+06
2.39283e+06
3.46857e+06
2.88808e+06
3.26516e+06
2.67527e+06
3.34669e+06
2.8854e+06
3.23438e+06
2.93792e+06
2.59078e+06
3.63497e+06
2.40139e+06
2.62371e+06
3.9361e+06
2.12221e+06
3.12279e+06
2.03455e+06
3.19025e+06
1.98886e+06
1.85829e+06
2.31803e+06
1.51119e+06
2.37518e+06
2.04581e+06
1.85398e+06
3.32064e+06
2.25803e+06
3.23247e+06
1.98814e+06
2.38662e+06
2.16976e+06
1.98024e+06
1.97219e+06
1.57805e+06
2.5243e+06
2.35062e+06
1.86612e+06
3.39185e+06
3.32158e+06
2.9617e+06
1.80118e+06
2.09889e+06
2.0343e+06
1.61762e+06
1.35759e+06
1.54571e+06
2.12504e+06
1.48229e+06
1.74767e+06
3.08298e+06
2.53135e+06
3.17574e+06
1.75671e+06
2.68386e+06
2.19898e+06
1.54148e+06
2.01911e+06
1.66764e+06
2.18967e+06
2.03998e+06
1.9776e+06
3.24499e+06
2.48002e+06
3.01584e+06
1.61508e+06
2.04791e+06
2.08403e+06
1.39487e+06
1.451e+06
1.588e+06
1.96862e+06
1.82427e+06
1.8835e+06
3.03522e+06
2.51156e+06
3.2842e+06
1.73106e+06
2.74169e+06
2.58285e+06
1.67623e+06
2.12655e+06
2.17368e+06
2.26177e+06
2.18124e+06
2.23083e+06
3.21865e+06
2.56065e+06
3.04502e+06
1.63095e+06
1.78926e+06
2.45583e+06
1.99816e+06
1.73813e+06
2.18859e+06
2.59273e+06
2.06396e+06
2.32726e+06
3.29976e+06
2.82766e+06
3.21351e+06
2.66384e+06
3.06156e+06
2.77175e+06
3.25721e+06
2.68986e+06
2.56239e+06
3.603e+06
2.38078e+06
2.49747e+06
3.77723e+06
2.08174e+06
3.14199e+06
2.12001e+06
3.05652e+06
2.06171e+06
2.03971e+06
2.37226e+06
1.53678e+06
2.53043e+06
2.22207e+06
1.90376e+06
3.36318e+06
2.44321e+06
3.28083e+06
2.07865e+06
2.42019e+06
2.18961e+06
2.1169e+06
1.89377e+06
1.55262e+06
2.65218e+06
2.18673e+06
1.88691e+06
3.47236e+06
3.20494e+06
3.00566e+06
1.86823e+06
2.18145e+06
2.10455e+06
1.67793e+06
1.35115e+06
1.59803e+06
2.23473e+06
1.45797e+06
1.81028e+06
3.15594e+06
2.52897e+06
3.20016e+06
1.75899e+06
2.67887e+06
2.16566e+06
1.40661e+06
2.02328e+06
1.5927e+06
2.14877e+06
2.06311e+06
1.96353e+06
3.25683e+06
2.51667e+06
3.0549e+06
1.67759e+06
2.09988e+06
2.09785e+06
1.38681e+06
1.38998e+06
1.58066e+06
2.06166e+06
1.36205e+06
1.8733e+06
3.10186e+06
2.47835e+06
3.26885e+06
1.68066e+06
2.69972e+06
2.47384e+06
1.48153e+06
1.99984e+06
2.04515e+06
2.12292e+06
2.07625e+06
2.1752e+06
3.18787e+06
2.54393e+06
3.01691e+06
1.62825e+06
1.75999e+06
2.35705e+06
1.96063e+06
1.6657e+06
2.08861e+06
2.52008e+06
2.0038e+06
2.21103e+06
3.21172e+06
2.81236e+06
3.11166e+06
2.55583e+06
2.86692e+06
2.57849e+06
3.10273e+06
2.48747e+06
2.36083e+06
3.43868e+06
2.21732e+06
2.32106e+06
3.62543e+06
1.99007e+06
3.15277e+06
2.20849e+06
2.99666e+06
2.12043e+06
2.22734e+06
2.50929e+06
1.56917e+06
2.6913e+06
2.4528e+06
1.93005e+06
3.41217e+06
2.6461e+06
3.38188e+06
2.20803e+06
2.48496e+06
2.25102e+06
2.28937e+06
1.85653e+06
1.56459e+06
2.82652e+06
2.09109e+06
1.94258e+06
3.60742e+06
3.14275e+06
3.08207e+06
1.956e+06
2.28458e+06
2.21658e+06
1.75044e+06
1.39362e+06
1.69566e+06
2.30484e+06
1.40735e+06
1.86487e+06
3.19037e+06
2.54682e+06
3.22196e+06
1.78931e+06
2.69662e+06
2.14354e+06
1.29067e+06
2.03664e+06
1.52386e+06
2.07186e+06
2.08224e+06
1.94902e+06
3.25257e+06
2.51381e+06
3.0609e+06
1.73075e+06
2.14367e+06
2.0959e+06
1.36327e+06
1.31153e+06
1.56601e+06
2.04547e+06
1.27786e+06
1.88409e+06
3.14925e+06
2.47051e+06
3.17199e+06
1.6335e+06
2.62372e+06
2.33097e+06
1.23674e+06
1.85589e+06
1.88154e+06
1.95981e+06
1.93078e+06
2.10793e+06
3.13566e+06
2.48626e+06
2.92249e+06
1.5979e+06
1.70336e+06
2.21853e+06
1.81909e+06
1.48888e+06
1.94044e+06
2.4029e+06
1.89373e+06
2.12465e+06
3.15284e+06
2.82049e+06
2.96097e+06
2.36093e+06
2.69579e+06
2.34069e+06
2.81724e+06
2.22654e+06
2.07382e+06
3.16118e+06
1.93775e+06
2.08622e+06
3.42212e+06
1.84544e+06
3.21936e+06
2.31106e+06
3.03199e+06
2.17292e+06
2.4116e+06
2.70921e+06
1.56882e+06
2.87251e+06
2.724e+06
1.95614e+06
3.56425e+06
2.97261e+06
3.64218e+06
2.3913e+06
2.5986e+06
2.32936e+06
2.46894e+06
1.78475e+06
1.56311e+06
3.04085e+06
1.9762e+06
2.1127e+06
3.94927e+06
3.22213e+06
3.28929e+06
2.0739e+06
2.42124e+06
2.3488e+06
1.80356e+06
1.42677e+06
1.75976e+06
2.32099e+06
1.34865e+06
1.91919e+06
3.22088e+06
2.58654e+06
3.27873e+06
1.85901e+06
2.82743e+06
2.12692e+06
1.15562e+06
2.07559e+06
1.42257e+06
1.86242e+06
2.00855e+06
1.84036e+06
3.19815e+06
2.43437e+06
3.11618e+06
1.7568e+06
2.14227e+06
2.04172e+06
1.30757e+06
1.25626e+06
1.51353e+06
1.92837e+06
1.15852e+06
1.84913e+06
3.15503e+06
2.50285e+06
3.04638e+06
1.64684e+06
2.69609e+06
2.21864e+06
1.00793e+06
1.68548e+06
1.68291e+06
1.73055e+06
1.71173e+06
1.97523e+06
3.04617e+06
2.26985e+06
2.80014e+06
1.59809e+06
1.69879e+06
2.11996e+06
1.61244e+06
1.25743e+06
1.74488e+06
2.21408e+06
1.70688e+06
2.03748e+06
3.12499e+06
2.83649e+06
3.03282e+06
2.24203e+06
2.71689e+06
2.19948e+06
2.45726e+06
2.01268e+06
1.72485e+06
2.63673e+06
1.60495e+06
1.76686e+06
3.26664e+06
1.59122e+06
3.4935e+06
2.26389e+06
3.24234e+06
2.12327e+06
2.51051e+06
2.76556e+06
1.54688e+06
2.99923e+06
2.90688e+06
2.13792e+06
3.82714e+06
3.34482e+06
3.64534e+06
2.33992e+06
2.54617e+06
2.19877e+06
2.5361e+06
1.66369e+06
1.54557e+06
3.04951e+06
1.78893e+06
2.23995e+06
3.82747e+06
3.09387e+06
3.31124e+06
1.88816e+06
3.11106e+06
1.81707e+06
1.7335e+06
2.11491e+06
1.03208e+06
2.27251e+06
2.04184e+06
1.77198e+06
3.22891e+06
2.49513e+06
3.2595e+06
1.71508e+06
2.07817e+06
1.69785e+06
1.72518e+06
1.19212e+06
1.04594e+06
1.98261e+06
1.87006e+06
1.73178e+06
2.9904e+06
2.74556e+06
3.13054e+06
1.6525e+06
3.01404e+06
1.56927e+06
1.3193e+06
1.70304e+06
798733
1.92465e+06
1.52422e+06
1.48329e+06
2.84631e+06
1.99902e+06
3.29096e+06
1.8018e+06
1.94889e+06
1.63116e+06
1.59159e+06
1.5438e+06
802533
1.83067e+06
1.60544e+06
1.35235e+06
2.82058e+06
2.74015e+06
3.2107e+06
1.70982e+06
2.50059e+06
1.66513e+06
1.36908e+06
1.58566e+06
991857
1.73649e+06
1.66653e+06
1.45628e+06
2.73036e+06
2.72732e+06
2.84228e+06
1.92629e+06
1.89022e+06
2.08718e+06
2.04815e+06
1.83902e+06
1.11477e+06
2.01967e+06
1.08446e+06
1.35368e+06
2.43319e+06
1.30212e+06
3.51979e+06
1.90135e+06
2.01668e+06
2.11507e+06
1.04117e+06
1.30868e+06
1.05666e+06
1.76353e+06
1.68512e+06
1.58484e+06
2.4814e+06
2.40921e+06
3.01068e+06
1.72206e+06
2.97707e+06
1.86847e+06
1.58764e+06
2.15253e+06
1.45056e+06
1.91781e+06
1.31397e+06
1.59465e+06
2.65762e+06
1.86315e+06
2.24833e+06
1.52083e+06
2.3541e+06
1.78291e+06
1.18191e+06
2.10052e+06
1.48406e+06
1.80111e+06
2.07487e+06
1.56575e+06
2.80143e+06
1.91911e+06
2.53215e+06
1.55875e+06
2.15016e+06
2.01177e+06
1.43287e+06
2.18141e+06
1.61654e+06
1.88016e+06
2.31466e+06
1.66189e+06
2.66843e+06
2.84237e+06
2.55572e+06
1.58085e+06
2.76518e+06
1.99318e+06
1.3281e+06
2.21221e+06
1.67179e+06
2.03341e+06
2.22139e+06
1.8617e+06
3.0884e+06
2.27353e+06
2.72338e+06
1.66222e+06
2.34735e+06
2.33176e+06
1.50651e+06
2.32813e+06
1.78327e+06
2.03414e+06
2.43138e+06
1.83535e+06
2.86999e+06
2.96113e+06
2.92724e+06
2.03348e+06
2.87e+06
2.56779e+06
1.51487e+06
2.49433e+06
1.87319e+06
2.06016e+06
2.33025e+06
1.90786e+06
3.2604e+06
2.58494e+06
2.85474e+06
1.56139e+06
2.37086e+06
2.40886e+06
1.59181e+06
1.69238e+06
2.03473e+06
2.2254e+06
2.60497e+06
2.02901e+06
3.02889e+06
3.07437e+06
3.00279e+06
1.79621e+06
2.9059e+06
2.16344e+06
1.66602e+06
2.19704e+06
2.21019e+06
2.33915e+06
2.43728e+06
2.18701e+06
3.15812e+06
2.70905e+06
2.94144e+06
1.59262e+06
2.6821e+06
2.32598e+06
1.58587e+06
2.38714e+06
2.11243e+06
2.30115e+06
2.69476e+06
2.14788e+06
3.10621e+06
3.06603e+06
3.14442e+06
1.96042e+06
2.95329e+06
2.51983e+06
1.75986e+06
2.31551e+06
2.32051e+06
2.44453e+06
2.52352e+06
2.30875e+06
3.30048e+06
2.86798e+06
3.03535e+06
1.61996e+06
2.74618e+06
2.45857e+06
1.65915e+06
2.59737e+06
2.24064e+06
2.41049e+06
2.73893e+06
2.28516e+06
3.24101e+06
3.11457e+06
3.26562e+06
2.00597e+06
2.94554e+06
2.69935e+06
1.89634e+06
2.40842e+06
2.47151e+06
2.58864e+06
2.62877e+06
2.46332e+06
3.44553e+06
3.02205e+06
3.1403e+06
1.66588e+06
2.86312e+06
2.61154e+06
1.78809e+06
2.7171e+06
2.41476e+06
2.55874e+06
2.8243e+06
2.45736e+06
3.3937e+06
3.18061e+06
3.40424e+06
2.05517e+06
2.95172e+06
2.8748e+06
2.03741e+06
2.54857e+06
2.64421e+06
2.74759e+06
2.78671e+06
2.64135e+06
3.60265e+06
3.19842e+06
3.2991e+06
1.7425e+06
3.00807e+06
2.79913e+06
1.96074e+06
2.83028e+06
2.63988e+06
2.76268e+06
2.94278e+06
2.69901e+06
3.62321e+06
3.31242e+06
3.64547e+06
2.11853e+06
3.09443e+06
3.06114e+06
2.18019e+06
2.74391e+06
2.84083e+06
2.93316e+06
3.05924e+06
2.86806e+06
3.86509e+06
3.60029e+06
3.67161e+06
1.9054e+06
3.22932e+06
3.06445e+06
2.17979e+06
2.96712e+06
2.93847e+06
3.09143e+06
3.10501e+06
3.10375e+06
4.08799e+06
3.55396e+06
4.16184e+06
2.04333e+06
3.1284e+06
3.23686e+06
2.25569e+06
2.53062e+06
3.11192e+06
3.13286e+06
3.00452e+06
3.31455e+06
4.30199e+06
3.80863e+06
4.00624e+06
2.03068e+06
3.34492e+06
3.2225e+06
2.25141e+06
2.93705e+06
3.10436e+06
3.13033e+06
3.06195e+06
3.31912e+06
4.07157e+06
3.50797e+06
3.25173e+06
1.79041e+06
1.97724e+06
1.92527e+06
1.4e+06
1.75235e+06
1.2624e+06
1.9173e+06
1.90197e+06
1.65032e+06
2.82091e+06
2.65061e+06
3.0698e+06
1.8472e+06
2.90728e+06
2.08756e+06
1.88966e+06
1.87702e+06
1.71822e+06
2.17083e+06
1.5562e+06
1.74168e+06
2.81923e+06
1.94338e+06
2.58567e+06
1.57315e+06
2.71938e+06
2.14341e+06
1.45807e+06
2.22623e+06
1.81763e+06
1.97457e+06
2.1126e+06
1.68915e+06
2.71516e+06
2.15486e+06
2.70547e+06
1.60176e+06
2.29579e+06
2.25805e+06
1.53886e+06
2.27056e+06
1.90808e+06
2.02073e+06
2.40887e+06
1.81905e+06
2.72994e+06
2.81726e+06
2.78357e+06
1.61777e+06
2.82483e+06
2.33807e+06
1.61702e+06
2.36766e+06
2.00737e+06
2.16163e+06
2.22885e+06
1.92307e+06
2.9891e+06
2.45313e+06
2.79798e+06
1.56523e+06
2.4512e+06
2.33937e+06
1.76965e+06
2.41486e+06
2.16823e+06
2.17532e+06
2.61214e+06
2.00011e+06
2.9027e+06
2.9359e+06
2.94959e+06
1.72172e+06
2.94076e+06
2.51475e+06
1.57846e+06
2.23333e+06
2.32526e+06
2.34134e+06
2.36163e+06
2.13818e+06
3.10709e+06
2.66656e+06
2.98608e+06
1.70181e+06
2.69142e+06
2.54946e+06
1.57158e+06
2.79503e+06
2.20116e+06
2.33331e+06
2.6507e+06
2.16788e+06
3.10409e+06
3.04345e+06
3.14493e+06
1.9112e+06
2.92482e+06
2.736e+06
1.74961e+06
2.37863e+06
2.38916e+06
2.52296e+06
2.53817e+06
2.30847e+06
3.26744e+06
2.90936e+06
3.08267e+06
1.66907e+06
2.84487e+06
2.60924e+06
1.72544e+06
2.73071e+06
2.36322e+06
2.44671e+06
2.7671e+06
2.32806e+06
3.26358e+06
3.10056e+06
3.24829e+06
1.90528e+06
2.89805e+06
2.82754e+06
1.9715e+06
2.41141e+06
2.58894e+06
2.65741e+06
2.64578e+06
2.48878e+06
3.42209e+06
3.08437e+06
3.19804e+06
1.70648e+06
2.96517e+06
2.73249e+06
1.8282e+06
2.81226e+06
2.50819e+06
2.5754e+06
2.8619e+06
2.49822e+06
3.43154e+06
3.17165e+06
3.37712e+06
1.96613e+06
2.8779e+06
2.97767e+06
2.10783e+06
2.49419e+06
2.75049e+06
2.79747e+06
2.76759e+06
2.67117e+06
3.58814e+06
3.26449e+06
3.3419e+06
1.7767e+06
3.0963e+06
2.8872e+06
1.95582e+06
2.91081e+06
2.68417e+06
2.73662e+06
2.96486e+06
2.69924e+06
3.62806e+06
3.27716e+06
3.53593e+06
2.05318e+06
2.89032e+06
3.14509e+06
2.23687e+06
2.62347e+06
2.92375e+06
2.95371e+06
2.93919e+06
2.87329e+06
3.78927e+06
3.46885e+06
3.54792e+06
1.90102e+06
3.23646e+06
3.0883e+06
2.11956e+06
3.02134e+06
2.90686e+06
2.94893e+06
3.09514e+06
2.9598e+06
3.88464e+06
3.44598e+06
3.78295e+06
2.21158e+06
3.06924e+06
3.35797e+06
2.37611e+06
2.847e+06
3.12518e+06
3.14439e+06
3.19171e+06
3.12513e+06
4.05349e+06
3.79065e+06
3.83098e+06
2.15254e+06
3.37615e+06
3.37678e+06
2.32896e+06
3.16736e+06
3.19473e+06
3.25582e+06
3.28024e+06
3.3448e+06
4.31254e+06
3.73759e+06
4.21412e+06
2.32418e+06
3.05706e+06
3.54149e+06
2.45362e+06
2.6327e+06
3.38152e+06
3.33877e+06
3.2392e+06
3.55922e+06
4.41642e+06
4.12684e+06
4.24617e+06
2.29483e+06
3.81928e+06
3.49906e+06
2.32063e+06
3.26662e+06
3.23899e+06
3.26381e+06
3.17342e+06
3.50045e+06
4.27268e+06
3.49199e+06
3.29666e+06
1.88977e+06
2.30634e+06
2.0804e+06
1.88786e+06
2.16581e+06
1.71245e+06
2.41563e+06
1.99339e+06
1.76692e+06
3.04294e+06
2.67631e+06
3.18821e+06
2.03653e+06
2.87245e+06
2.37812e+06
2.15811e+06
1.93891e+06
2.08291e+06
2.53749e+06
1.88908e+06
1.97758e+06
3.02876e+06
2.25152e+06
2.81182e+06
1.64213e+06
2.76472e+06
2.48513e+06
1.68242e+06
2.36199e+06
2.17253e+06
2.20851e+06
2.27461e+06
1.96143e+06
2.89562e+06
2.45013e+06
2.90881e+06
1.68208e+06
2.47973e+06
2.55837e+06
1.72001e+06
2.47443e+06
2.25736e+06
2.23137e+06
2.56673e+06
2.06867e+06
2.91887e+06
2.8867e+06
3.00794e+06
1.72282e+06
2.83213e+06
2.67093e+06
1.8573e+06
2.3444e+06
2.39044e+06
2.37597e+06
2.40194e+06
2.16064e+06
3.08303e+06
2.69336e+06
3.0425e+06
1.69753e+06
2.70671e+06
2.68317e+06
1.82065e+06
2.69661e+06
2.4328e+06
2.38135e+06
2.76577e+06
2.2378e+06
3.10748e+06