/*--------------------------------*- C++ -*----------------------------------*\
| =========                 |                                                 |
| \\      /  F ield         | OpenFOAM: The Open Source CFD Toolbox           |
|  \\    /   O peration     | Version:  v2012                                 |
|   \\  /    A nd           | Website:  www.openfoam.com                      |
|    \\/     M anipulation  |                                                 |
\*---------------------------------------------------------------------------*/
FoamFile
{
    version     2.0;
    format      ascii;
    class       volVectorField;
    location    "6";
    object      D_0;
}
// * * * * * * * * * * * * * * * * * * * * * * * * * * * * * * * * * * * * * //

dimensions      [0 1 0 0 0 0 0];


internalField   nonuniform List<vector> 
1000
(
(8.86118e-05 -0.00115714 0)
(7.69308e-05 -0.00120305 0)
(6.99519e-05 -0.00122581 0)
(6.47879e-05 -0.00125369 0)
(6.06196e-05 -0.00127049 0)
(5.77313e-05 -0.00128965 0)
(5.5288e-05 -0.00130365 0)
(5.34584e-05 -0.00131876 0)
(5.19369e-05 -0.00133147 0)
(5.06078e-05 -0.00134474 0)
(0.000262582 -0.00114274 0)
(0.000230773 -0.00118141 0)
(0.000210384 -0.00120397 0)
(0.000195474 -0.0012288 0)
(0.000183399 -0.00124521 0)
(0.00017487 -0.00126287 0)
(0.00016776 -0.00127623 0)
(0.000162392 -0.00129028 0)
(0.000157968 -0.00130223 0)
(0.000154158 -0.00131449 0)
(0.000424627 -0.0011145 0)
(0.000381957 -0.00114299 0)
(0.000350747 -0.00116331 0)
(0.000327613 -0.00118337 0)
(0.000308804 -0.00119794 0)
(0.000294911 -0.00121283 0)
(0.000283536 -0.00122448 0)
(0.000274735 -0.00123643 0)
(0.000267554 -0.0012467 0)
(0.000261444 -0.00125698 0)
(0.000579106 -0.00107338 0)
(0.000530298 -0.00109356 0)
(0.000491328 -0.00110779 0)
(0.000461771 -0.00112238 0)
(0.000437678 -0.00113286 0)
(0.000419405 -0.00114392 0)
(0.000404508 -0.0011525 0)
(0.000392945 -0.00116139 0)
(0.000383493 -0.00116906 0)
(0.000375717 -0.00117654 0)
(0.000732505 -0.0010237 0)
(0.000677094 -0.00103456 0)
(0.000631986 -0.0010409 0)
(0.000597461 -0.00104902 0)
(0.000569216 -0.00105423 0)
(0.000547586 -0.0010606 0)
(0.000529914 -0.00106534 0)
(0.000516234 -0.00107047 0)
(0.000504991 -0.00107502 0)
(0.000496068 -0.00107916 0)
(0.000881923 -0.000964767 0)
(0.000822274 -0.00096555 0)
(0.000773146 -0.000963555 0)
(0.000735551 -0.000964825 0)
(0.000704494 -0.000964375 0)
(0.000680789 -0.000965757 0)
(0.000661205 -0.000966347 0)
(0.000646325 -0.000967538 0)
(0.000633915 -0.000968796 0)
(0.000624579 -0.000969541 0)
(0.00102624 -0.00090177 0)
(0.000964521 -0.000892036 0)
(0.000913379 -0.000881643 0)
(0.00087415 -0.000875849 0)
(0.000841585 -0.000869667 0)
(0.000816721 -0.000865945 0)
(0.000796083 -0.000862387 0)
(0.00078055 -0.000859594 0)
(0.000767501 -0.000857661 0)
(0.000758063 -0.000855069 0)
(0.00116495 -0.000832485 0)
(0.00110411 -0.000812951 0)
(0.00105318 -0.000794616 0)
(0.00101418 -0.000782215 0)
(0.000981361 -0.000770541 0)
(0.000956621 -0.000762132 0)
(0.000935664 -0.000754618 0)
(0.000920419 -0.000748329 0)
(0.000907247 -0.000743475 0)
(0.000898376 -0.000738113 0)
(0.00129512 -0.000763592 0)
(0.0012374 -0.000735142 0)
(0.00118866 -0.000709747 0)
(0.0011512 -0.000691415 0)
(0.00111956 -0.000674866 0)
(0.00109556 -0.000662382 0)
(0.00107536 -0.000651401 0)
(0.00106052 -0.000642192 0)
(0.00104796 -0.000634853 0)
(0.00103946 -0.000627279 0)
(0.00141925 -0.000690839 0)
(0.00136682 -0.000655164 0)
(0.001322 -0.000623845 0)
(0.00128764 -0.000600595 0)
(0.00125818 -0.000579791 0)
(0.00123619 -0.000563962 0)
(0.00121725 -0.000549775 0)
(0.00120394 -0.000538441 0)
(0.00119233 -0.00052858 0)
(0.0011852 -0.000520056 0)
(0.00153191 -0.000620779 0)
(0.00148637 -0.000579716 0)
(0.00144699 -0.000544054 0)
(0.00141639 -0.000517318 0)
(0.0013905 -0.000493325 0)
(0.00137016 -0.000475509 0)
(0.00135411 -0.000458868 0)
(0.00134072 -0.000446809 0)
(0.00133244 -0.00043494 0)
(0.00132338 -0.00042675 0)
(0.00163811 -0.000549436 0)
(0.00160044 -0.000504854 0)
(0.00156748 -0.000466567 0)
(0.00154169 -0.000437302 0)
(0.00152001 -0.000411567 0)
(0.00150256 -0.000391796 0)
(0.00148947 -0.000374097 0)
(0.00147766 -0.000360218 0)
(0.00147159 -0.000347869 0)
(0.00146307 -0.000337358 0)
(0.00173186 -0.000480172 0)
(0.00170295 -0.000434409 0)
(0.00167704 -0.000395262 0)
(0.00165662 -0.000365018 0)
(0.00163962 -0.000338514 0)
(0.00162544 -0.000317974 0)
(0.00161565 -0.000299666 0)
(0.00160578 -0.000285121 0)
(0.00160218 -0.000272426 0)
(0.00159479 -0.000261142 0)
(0.00181692 -0.0004119 0)
(0.00179669 -0.000366846 0)
(0.0017779 -0.000328628 0)
(0.00176299 -0.000298634 0)
(0.00175063 -0.000272829 0)
(0.00173995 -0.00025227 0)
(0.00173322 -0.000234614 0)
(0.00172563 -0.000219896 0)
(0.00172398 -0.000207931 0)
(0.0017183 -0.000196508 0)
(0.00188946 -0.000345173 0)
(0.00187786 -0.000303127 0)
(0.00186596 -0.000267591 0)
(0.00185663 -0.000239423 0)
(0.00184872 -0.000215426 0)
(0.00184176 -0.000195987 0)
(0.00183783 -0.000179682 0)
(0.00183287 -0.000165646 0)
(0.00183281 -0.000154836 0)
(0.00182925 -0.000143842 0)
(0.00195147 -0.000280134 0)
(0.00194761 -0.000242789 0)
(0.00194198 -0.000211416 0)
(0.00193777 -0.000186271 0)
(0.00193391 -0.000165155 0)
(0.00193044 -0.00014772 0)
(0.00192904 -0.00013351 0)
(0.00192666 -0.000120883 0)
(0.00192797 -0.000111666 0)
(0.00192662 -0.000101813 0)
(0.00200091 -0.000216186 0)
(0.00200383 -0.000185368 0)
(0.00200359 -0.000159544 0)
(0.00200392 -0.000138707 0)
(0.00200351 -0.00012135 0)
(0.00200322 -0.000106834 0)
(0.0020039 -9.52262e-05 0)
(0.00200391 -8.46532e-05 0)
(0.00200629 -7.72435e-05 0)
(0.00200701 -6.89462e-05 0)
(0.00203864 -0.000153698 0)
(0.00204688 -0.000130623 0)
(0.00205089 -0.000111365 0)
(0.00205483 -9.57248e-05 0)
(0.00205714 -8.28146e-05 0)
(0.00205941 -7.18991e-05 0)
(0.00206175 -6.33231e-05 0)
(0.00206374 -5.53699e-05 0)
(0.00206696 -4.9976e-05 0)
(0.00206942 -4.37485e-05 0)
(0.00206369 -9.17321e-05 0)
(0.00207564 -7.75163e-05 0)
(0.00208261 -6.56563e-05 0)
(0.00208907 -5.5999e-05 0)
(0.00209326 -4.80515e-05 0)
(0.00209734 -4.129e-05 0)
(0.00210081 -3.6022e-05 0)
(0.0021042 -3.10735e-05 0)
(0.00210798 -2.77805e-05 0)
(0.00211168 -2.38844e-05 0)
(0.00207637 -3.06303e-05 0)
(0.0020902 -2.57924e-05 0)
(0.00209867 -2.17735e-05 0)
(0.00210642 -1.84884e-05 0)
(0.00211158 -1.58024e-05 0)
(0.00211659 -1.35079e-05 0)
(0.00212064 -1.17372e-05 0)
(0.00212476 -1.00664e-05 0)
(0.00212884 -8.97111e-06 0)
(0.00213318 -7.66615e-06 0)
(0.0021414 -6.37028e-06 0)
(0.00212164 -1.97731e-05 0)
(0.00208282 -3.64158e-05 0)
(0.00202531 -5.75815e-05 0)
(0.00195116 -8.54817e-05 0)
(0.00186083 -0.000121387 0)
(0.00175754 -0.000166828 0)
(0.00164128 -0.000223346 0)
(0.00151587 -0.000291791 0)
(0.00138124 -0.000372568 0)
(0.00215685 -4.76138e-06 0)
(0.00213906 -1.45884e-05 0)
(0.00210416 -2.75485e-05 0)
(0.00205224 -4.40769e-05 0)
(0.00198541 -6.68972e-05 0)
(0.00190367 -9.57713e-05 0)
(0.00181069 -0.000133493 0)
(0.00170621 -0.000178006 0)
(0.00159504 -0.000234128 0)
(0.00147708 -0.000295057 0)
(0.0021758 -3.86395e-06 0)
(0.00216064 -1.14699e-05 0)
(0.00213091 -2.17771e-05 0)
(0.0020865 -3.4341e-05 0)
(0.00202916 -5.23686e-05 0)
(0.00195843 -7.45812e-05 0)
(0.00187698 -0.000105412 0)
(0.0017841 -0.000140992 0)
(0.00168281 -0.000188915 0)
(0.00157405 -0.000238735 0)
(0.0021978 -3.72015e-06 0)
(0.00218399 -1.06475e-05 0)
(0.00215692 -2.01802e-05 0)
(0.00211658 -3.08914e-05 0)
(0.00206459 -4.64853e-05 0)
(0.00200092 -6.41322e-05 0)
(0.00192792 -8.93689e-05 0)
(0.00184585 -0.000116357 0)
(0.00175623 -0.00015486 0)
(0.00166079 -0.000193526 0)
(0.00222479 -3.40551e-06 0)
(0.00221288 -9.44419e-06 0)
(0.0021894 -1.79807e-05 0)
(0.00215439 -2.70469e-05 0)
(0.00210878 -4.07307e-05 0)
(0.00205271 -5.55529e-05 0)
(0.0019873 -7.75124e-05 0)
(0.00191352 -0.00010003 0)
(0.00183173 -0.000132441 0)
(0.00174491 -0.000163859 0)
(0.00225328 -3.68947e-06 0)
(0.00224239 -1.00633e-05 0)
(0.0022209 -1.87125e-05 0)
(0.00218911 -2.71822e-05 0)
(0.00214769 -3.95727e-05 0)
(0.00209744 -5.20415e-05 0)
(0.00203876 -7.05286e-05 0)
(0.00197338 -8.88079e-05 0)
(0.00190036 -0.000115487 0)
(0.00182311 -0.000141278 0)
(0.00228738 -3.73923e-06 0)
(0.00227781 -1.01729e-05 0)
(0.00225874 -1.87626e-05 0)
(0.00223059 -2.70139e-05 0)
(0.00219347 -3.88239e-05 0)
(0.00214846 -5.04648e-05 0)
(0.00209525 -6.72003e-05 0)
(0.0020361 -8.34176e-05 0)
(0.00196966 -0.00010619 0)
(0.0018997 -0.000128038 0)
(0.00232218 -4.09406e-06 0)
(0.00231344 -1.12066e-05 0)
(0.00229599 -2.01835e-05 0)
(0.00227045 -2.85605e-05 0)
(0.00223674 -3.98611e-05 0)
(0.00219627 -5.07334e-05 0)
(0.00214832 -6.57453e-05 0)
(0.00209539 -8.02877e-05 0)
(0.0020356 -0.000100031 0)
(0.00197285 -0.000119174 0)
(0.00236224 -4.32621e-06 0)
(0.0023544 -1.20061e-05 0)
(0.00233865 -2.13547e-05 0)
(0.00231565 -3.01768e-05 0)
(0.00228506 -4.14926e-05 0)
(0.00224838 -5.24385e-05 0)
(0.00220473 -6.66686e-05 0)
(0.00215665 -8.05126e-05 0)
(0.00210231 -9.82572e-05 0)
(0.00204543 -0.000115622 0)
(0.00240286 -4.6553e-06 0)
(0.00239571 -1.30799e-05 0)
(0.00238132 -2.29068e-05 0)
(0.00236041 -3.22022e-05 0)
(0.0023326 -4.3528e-05 0)
(0.00229943 -5.45295e-05 0)
(0.00225992 -6.81691e-05 0)
(0.00221655 -8.15879e-05 0)
(0.00216743 -9.8057e-05 0)
(0.00211622 -0.000114347 0)
(0.00244791 -4.92653e-06 0)
(0.00244141 -1.40386e-05 0)
(0.0024283 -2.4352e-05 0)
(0.00240926 -3.4268e-05 0)
(0.00238389 -4.58682e-05 0)
(0.00235364 -5.72771e-05 0)
(0.00231761 -7.07604e-05 0)
(0.00227812 -8.41852e-05 0)
(0.0022335 -9.98982e-05 0)
(0.00218703 -0.000115673 0)
(0.00249361 -5.18149e-06 0)
(0.00248768 -1.49178e-05 0)
(0.0024757 -2.56616e-05 0)
(0.00245835 -3.60928e-05 0)
(0.00243525 -4.79238e-05 0)
(0.00240776 -5.96779e-05 0)
(0.00237506 -7.31398e-05 0)
(0.00233928 -8.6687e-05 0)
(0.00229888 -0.000102088 0)
(0.00225699 -0.000117655 0)
(0.00254281 -5.37742e-06 0)
(0.00253738 -1.56354e-05 0)
(0.00252642 -2.67483e-05 0)
(0.00251055 -3.7673e-05 0)
(0.00248943 -4.9789e-05 0)
(0.0024643 -6.19409e-05 0)
(0.00243448 -7.553e-05 0)
(0.00240188 -8.93002e-05 0)
(0.00236519 -0.000104616 0)
(0.00232721 -0.000120207 0)
(0.00259266 -5.49461e-06 0)
(0.0025877 -1.60812e-05 0)
(0.00257769 -2.74094e-05 0)
(0.0025632 -3.86389e-05 0)
(0.00254396 -5.09266e-05 0)
(0.00252108 -6.33454e-05 0)
(0.00249398 -7.70557e-05 0)
(0.00246437 -9.10362e-05 0)
(0.00243121 -0.000106417 0)
(0.00239676 -0.000122132 0)
(0.00264513 -5.50577e-06 0)
(0.00264059 -1.62208e-05 0)
(0.00263143 -2.75754e-05 0)
(0.00261817 -3.89523e-05 0)
(0.00260058 -5.12697e-05 0)
(0.00257969 -6.38565e-05 0)
(0.002555 -7.75859e-05 0)
(0.00252808 -9.17476e-05 0)
(0.002498 -0.000107124 0)
(0.00246694 -0.000123024 0)
(0.00269804 -5.39362e-06 0)
(0.00269389 -1.59518e-05 0)
(0.00268554 -2.70982e-05 0)
(0.00267346 -3.83517e-05 0)
(0.00265745 -5.05098e-05 0)
(0.00263844 -6.30342e-05 0)
(0.00261604 -7.66797e-05 0)
(0.00259161 -9.08507e-05 0)
(0.00256445 -0.000106226 0)
(0.00253639 -0.000122201 0)
(0.00275274 -5.09406e-06 0)
(0.00274896 -1.51304e-05 0)
(0.00274135 -2.57071e-05 0)
(0.00273034 -3.65034e-05 0)
(0.00271577 -4.81744e-05 0)
(0.00269848 -6.03573e-05 0)
(0.00267814 -7.364e-05 0)
(0.00265601 -8.76128e-05 0)
(0.00263147 -0.000102781 0)
(0.00260623 -0.000118693 0)
(0.0028073 -4.62319e-06 0)
(0.00280388 -1.37575e-05 0)
(0.002797 -2.34329e-05 0)
(0.00278705 -3.3407e-05 0)
(0.00277388 -4.4295e-05 0)
(0.00275827 -5.5806e-05 0)
(0.00273993 -6.84874e-05 0)
(0.00271999 -8.19875e-05 0)
(0.00269794 -9.67684e-05 0)
(0.00267531 -0.000112429 0)
(0.00286283 -3.83508e-06 0)
(0.00285975 -1.14299e-05 0)
(0.00285356 -1.95822e-05 0)
(0.00284461 -2.81296e-05 0)
(0.00283277 -3.76529e-05 0)
(0.00281875 -4.79639e-05 0)
(0.00280228 -5.95372e-05 0)
(0.00278443 -7.21737e-05 0)
(0.0027647 -8.61761e-05 0)
(0.00274453 -0.000101397 0)
(0.00291713 -2.80922e-06 0)
(0.00291441 -8.35015e-06 0)
(0.00290894 -1.45113e-05 0)
(0.00290104 -2.11268e-05 0)
(0.00289058 -2.88437e-05 0)
(0.00287822 -3.74733e-05 0)
(0.00286369 -4.75514e-05 0)
(0.00284799 -5.88841e-05 0)
(0.00283065 -7.18125e-05 0)
(0.00281298 -8.62063e-05 0)
(0.00128843 -0.000430755 0)
(0.00124809 -0.000451366 0)
(0.00120954 -0.000473519 0)
(0.00117275 -0.000494598 0)
(0.00113771 -0.000516218 0)
(0.00110408 -0.000537246 0)
(0.00107191 -0.000558299 0)
(0.00104091 -0.000578845 0)
(0.00101106 -0.000599186 0)
(0.000981978 -0.000619027 0)
(0.000953721 -0.000638546 0)
(0.000925918 -0.000657611 0)
(0.000898511 -0.000676307 0)
(0.000871249 -0.000694651 0)
(0.000843919 -0.000712646 0)
(0.000816412 -0.000730461 0)
(0.000788354 -0.000748003 0)
(0.000759788 -0.00076563 0)
(0.000730166 -0.000783115 0)
(0.000699708 -0.000801066 0)
(0.00139755 -0.000343664 0)
(0.00136076 -0.000363136 0)
(0.00132506 -0.00038387 0)
(0.00128967 -0.000404237 0)
(0.00125708 -0.000424247 0)
(0.00122442 -0.000444424 0)
(0.00119344 -0.000464185 0)
(0.00116302 -0.000483942 0)
(0.00113365 -0.000503299 0)
(0.00110495 -0.000522571 0)
(0.00107699 -0.000541381 0)
(0.00104956 -0.000560113 0)
(0.00102256 -0.000578408 0)
(0.000995886 -0.000596668 0)
(0.000969332 -0.000614561 0)
(0.000942872 -0.000632538 0)
(0.000916223 -0.00065025 0)
(0.000889431 -0.000668262 0)
(0.000862162 -0.000686139 0)
(0.000834539 -0.00070465 0)
(0.00150007 -0.000280503 0)
(0.00146504 -0.00029784 0)
(0.00143164 -0.000317058 0)
(0.00139891 -0.000334837 0)
(0.00136711 -0.000354052 0)
(0.00133646 -0.000371946 0)
(0.00130622 -0.000390958 0)
(0.00127753 -0.00040882 0)
(0.00124954 -0.000427208 0)
(0.00122173 -0.000445233 0)
(0.00119492 -0.000463282 0)
(0.00116853 -0.000481101 0)
(0.00114273 -0.00049884 0)
(0.00111736 -0.000516499 0)
(0.00109232 -0.000534042 0)
(0.00106762 -0.000551697 0)
(0.00104309 -0.000569251 0)
(0.00101878 -0.000587177 0)
(0.000994534 -0.000605056 0)
(0.000970395 -0.000623657 0)
(0.0015945 -0.000228529 0)
(0.00156279 -0.000243949 0)
(0.00153247 -0.000261336 0)
(0.0015021 -0.000277463 0)
(0.00147297 -0.000294953 0)
(0.00144406 -0.000311513 0)
(0.00141618 -0.000328981 0)
(0.0013887 -0.00034579 0)
(0.00136213 -0.000363129 0)
(0.00133606 -0.000380006 0)
(0.0013107 -0.000397237 0)
(0.00128591 -0.000414167 0)
(0.00126171 -0.000431294 0)
(0.00123805 -0.000448319 0)
(0.00121492 -0.000465437 0)
(0.0011923 -0.000482682 0)
(0.00117018 -0.000499967 0)
(0.00114852 -0.00051765 0)
(0.00112739 -0.00053536 0)
(0.0011067 -0.000553798 0)
(0.00168461 -0.000192889 0)
(0.00165553 -0.00020668 0)
(0.00162759 -0.00022222 0)
(0.00159963 -0.000236758 0)
(0.00157252 -0.000252574 0)
(0.00154579 -0.000267655 0)
(0.00151976 -0.000283644 0)
(0.00149428 -0.000299123 0)
(0.00146952 -0.000315217 0)
(0.00144526 -0.000330994 0)
(0.00142175 -0.000347166 0)
(0.00139878 -0.000363202 0)
(0.00137655 -0.000379476 0)
(0.00135491 -0.000395792 0)
(0.001334 -0.000412246 0)
(0.00131372 -0.000428935 0)
(0.00129422 -0.000445703 0)
(0.00127538 -0.000462928 0)
(0.00125745 -0.000480204 0)
(0.00124022 -0.000498204 0)
(0.00176873 -0.000165606 0)
(0.00174273 -0.000177975 0)
(0.00171746 -0.00019195 0)
(0.00169212 -0.000205137 0)
(0.00166751 -0.00021953 0)
(0.00164305 -0.000233389 0)
(0.00161931 -0.000248107 0)
(0.0015959 -0.000262508 0)
(0.00157321 -0.000277491 0)
(0.00155099 -0.000292328 0)
(0.0015295 -0.000307564 0)
(0.00150857 -0.000322794 0)
(0.00148842 -0.000338295 0)
(0.00146892 -0.000353927 0)
(0.00145027 -0.000369743 0)
(0.00143234 -0.000385838 0)
(0.00141538 -0.000402059 0)
(0.00139922 -0.000418732 0)
(0.0013842 -0.000435488 0)
(0.00137008 -0.000452908 0)
(0.00185037 -0.00014861 0)
(0.00182695 -0.000159895 0)
(0.00180399 -0.000172506 0)
(0.00178103 -0.000184595 0)
(0.0017586 -0.000197717 0)
(0.00173636 -0.000210501 0)
(0.00171471 -0.000224071 0)
(0.00169341 -0.000237454 0)
(0.00167276 -0.000251426 0)
(0.00165259 -0.000265339 0)
(0.00163313 -0.000279687 0)
(0.00161428 -0.000294093 0)
(0.00159622 -0.000308818 0)
(0.00157888 -0.000323713 0)
(0.00156245 -0.000338841 0)
(0.00154684 -0.000354259 0)
(0.0015323 -0.000369841 0)
(0.0015187 -0.000385853 0)
(0.00150639 -0.000401961 0)
(0.00149509 -0.000418666 0)
(0.00192831 -0.000136972 0)
(0.0019075 -0.000147415 0)
(0.00188684 -0.000158939 0)
(0.00186628 -0.000170178 0)
(0.00184607 -0.000182282 0)
(0.00182606 -0.000194238 0)
(0.00180655 -0.000206866 0)
(0.00178736 -0.000219467 0)
(0.00176878 -0.000232576 0)
(0.00175065 -0.000245762 0)
(0.00173323 -0.000259324 0)
(0.00171638 -0.000273058 0)
(0.00170037 -0.000287062 0)
(0.00168505 -0.000301329 0)
(0.00167072 -0.000315777 0)
(0.0016572 -0.000330582 0)
(0.00164486 -0.000345499 0)
(0.00163341 -0.000360854 0)
(0.00162342 -0.000376286 0)
(0.00161445 -0.000392247 0)
(0.00200512 -0.000131404 0)
(0.00198651 -0.000141218 0)
(0.00196786 -0.000151896 0)
(0.0019494 -0.000162457 0)
(0.00193117 -0.000173743 0)
(0.00191318 -0.000184996 0)
(0.0018956 -0.000196849 0)
(0.00187835 -0.00020874 0)
(0.00186165 -0.000221126 0)
(0.00184542 -0.000233606 0)
(0.00182986 -0.0002465 0)
(0.0018149 -0.000259531 0)
(0.00180073 -0.000272917 0)
(0.00178732 -0.000286469 0)
(0.00177481 -0.000300341 0)
(0.00176327 -0.000314394 0)
(0.00175269 -0.000328756 0)
(0.00174337 -0.000343295 0)
(0.00173541 -0.000357995 0)
(0.00172836 -0.000373171 0)
(0.0020798 -0.000128781 0)
(0.00206327 -0.000138132 0)
(0.00204649 -0.000148165 0)
(0.00203002 -0.000158225 0)
(0.00201364 -0.00016887 0)
(0.00199755 -0.000179599 0)
(0.00198177 -0.000190822 0)
(0.00196636 -0.000202176 0)
(0.00195142 -0.000213948 0)
(0.00193696 -0.000225884 0)
(0.00192311 -0.000238176 0)
(0.00190987 -0.000250656 0)
(0.00189738 -0.000263438 0)
(0.00188563 -0.000276428 0)
(0.00187479 -0.000289673 0)
(0.00186484 -0.000303148 0)
(0.00185597 -0.00031682 0)
(0.00184812 -0.000330765 0)
(0.00184157 -0.000344814 0)
(0.00183615 -0.000359184 0)
(0.00215413 -0.000129195 0)
(0.0021393 -0.000138216 0)
(0.00212419 -0.000147777 0)
(0.00210939 -0.000157434 0)
(0.00209465 -0.000167591 0)
(0.00208019 -0.000177873 0)
(0.00206601 -0.000188596 0)
(0.00205218 -0.000199475 0)
(0.00203879 -0.000210736 0)
(0.00202586 -0.000222178 0)
(0.00201351 -0.000233946 0)
(0.00200174 -0.000245913 0)
(0.0019907 -0.000258152 0)
(0.00198036 -0.000270604 0)
(0.0019709 -0.000283275 0)
(0.00196229 -0.00029617 0)
(0.00195473 -0.000309224 0)
(0.00194813 -0.000322514 0)
(0.00194284 -0.000335893 0)
(0.00193855 -0.000349522 0)
(0.00222722 -0.000130694 0)
(0.00221409 -0.000139449 0)
(0.0022003 -0.000148633 0)
(0.00218707 -0.000158 0)
(0.00217372 -0.000167751 0)
(0.00216076 -0.000177704 0)
(0.00214797 -0.000188004 0)
(0.00213556 -0.000198514 0)
(0.00212353 -0.000209337 0)
(0.00211195 -0.000220373 0)
(0.00210091 -0.000231684 0)
(0.00209041 -0.000243207 0)
(0.00208059 -0.000254964 0)
(0.00207142 -0.000266931 0)
(0.00206309 -0.000279084 0)
(0.00205553 -0.000291441 0)
(0.00204898 -0.00030393 0)
(0.0020433 -0.000316614 0)
(0.00203883 -0.000329365 0)
(0.00203533 -0.000342292 0)
(0.0023003 -0.000132911 0)
(0.00228831 -0.000141495 0)
(0.00227595 -0.000150445 0)
(0.0022639 -0.000159505 0)
(0.00225184 -0.000168955 0)
(0.00224008 -0.000178589 0)
(0.0022285 -0.000188546 0)
(0.00221727 -0.00019871 0)
(0.00220639 -0.000209158 0)
(0.00219592 -0.000219815 0)
(0.00218595 -0.000230721 0)
(0.00217648 -0.00024183 0)
(0.00216765 -0.000253151 0)
(0.00215941 -0.000264662 0)
(0.00215196 -0.000276342 0)
(0.0021452 -0.000288193 0)
(0.00213938 -0.000300161 0)
(0.00213435 -0.000312273 0)
(0.00213044 -0.000324448 0)
(0.0021274 -0.000336727 0)
(0.00237261 -0.00013478 0)
(0.00236148 -0.000143131 0)
(0.00235035 -0.000151813 0)
(0.00233933 -0.000160686 0)
(0.00232839 -0.000169862 0)
(0.00231767 -0.000179243 0)
(0.00230714 -0.000188904 0)
(0.00229691 -0.000198769 0)
(0.00228701 -0.000208893 0)
(0.00227748 -0.000219211 0)
(0.0022684 -0.000229762 0)
(0.00225978 -0.000240497 0)
(0.00225173 -0.000251431 0)
(0.00224422 -0.000262527 0)
(0.00223741 -0.000273784 0)
(0.00223122 -0.000285173 0)
(0.00222585 -0.00029667 0)
(0.00222122 -0.000308272 0)
(0.00221755 -0.000319925 0)
(0.00221468 -0.000331622 0)
(0.002445 -0.000135564 0)
(0.00243492 -0.000143749 0)
(0.00242451 -0.000152224 0)
(0.00241443 -0.000160869 0)
(0.00240429 -0.000169809 0)
(0.00239444 -0.000178921 0)
(0.00238471 -0.000188314 0)
(0.0023753 -0.00019788 0)
(0.00236615 -0.000207704 0)
(0.00235735 -0.000217694 0)
(0.00234897 -0.000227922 0)
(0.00234098 -0.000238298 0)
(0.00233352 -0.000248884 0)
(0.00232651 -0.000259592 0)
(0.00232017 -0.000270474 0)
(0.00231429 -0.000281447 0)
(0.00230926 -0.000292538 0)
(0.00230476 -0.000303672 0)
(0.00230116 -0.000314879 0)
(0.00229821 -0.000326064 0)
(0.00251658 -0.000134668 0)
(0.00250717 -0.00014266 0)
(0.00249754 -0.000150896 0)
(0.00248815 -0.000159349 0)
(0.00247876 -0.000168016 0)
(0.0024696 -0.000176922 0)
(0.00246058 -0.000186014 0)
(0.00245183 -0.000195355 0)
(0.00244332 -0.000204862 0)
(0.00243515 -0.000214604 0)
(0.00242733 -0.000224482 0)
(0.00241986 -0.0002346 0)
(0.00241287 -0.000244815 0)
(0.00240624 -0.000255245 0)
(0.00240025 -0.000265742 0)
(0.00239456 -0.000276405 0)
(0.0023895 -0.000287143 0)
(0.00238507 -0.000297896 0)
(0.00238127 -0.000308718 0)
(0.00237804 -0.000319476 0)
(0.00258823 -0.000131043 0)
(0.00257941 -0.000138819 0)
(0.00257034 -0.000146868 0)
(0.00256156 -0.000155076 0)
(0.0025527 -0.00016356 0)
(0.00254414 -0.000172187 0)
(0.00253563 -0.0001811 0)
(0.00252748 -0.000190143 0)
(0.00251938 -0.000199455 0)
(0.00251158 -0.000208965 0)
(0.00250425 -0.000218567 0)
(0.00249715 -0.00022842 0)
(0.00249047 -0.000238352 0)
(0.00248416 -0.000248492 0)
(0.00247824 -0.000258699 0)
(0.0024728 -0.000269048 0)
(0.0024677 -0.000279458 0)
(0.00246311 -0.000289927 0)
(0.002459 -0.00030042 0)
(0.00245532 -0.000310864 0)
(0.00265897 -0.000124565 0)
(0.00265062 -0.000132129 0)
(0.00264202 -0.00013996 0)
(0.0026337 -0.000147962 0)
(0.00262532 -0.000156233 0)
(0.00261719 -0.000164655 0)
(0.00260921 -0.000173357 0)
(0.00260136 -0.000182189 0)
(0.00259384 -0.000191278 0)
(0.00258644 -0.000200499 0)
(0.00257941 -0.000209956 0)
(0.00257261 -0.000219512 0)
(0.00256619 -0.000229285 0)
(0.00256005 -0.000239134 0)
(0.00255429 -0.000249164 0)
(0.00254883 -0.00025924 0)
(0.00254374 -0.000269442 0)
(0.00253897 -0.000279657 0)
(0.00253454 -0.000289935 0)
(0.0025304 -0.000300144 0)
(0.00272972 -0.00011319 0)
(0.00272174 -0.000120628 0)
(0.00271353 -0.000128251 0)
(0.00270559 -0.000136187 0)
(0.00269756 -0.000144272 0)
(0.00268983 -0.000152651 0)
(0.00268216 -0.0001612 0)
(0.00267469 -0.000170045 0)
(0.00266742 -0.000178987 0)
(0.00266037 -0.000188207 0)
(0.00265359 -0.00019753 0)
(0.00264707 -0.000207073 0)
(0.00264083 -0.00021672 0)
(0.00263488 -0.000226527 0)
(0.0026292 -0.000236431 0)
(0.0026238 -0.000246433 0)
(0.00261864 -0.000256513 0)
(0.00261371 -0.000266629 0)
(0.00260895 -0.000276788 0)
(0.00260435 -0.000286911 0)
(0.00279969 -9.76036e-05 0)
(0.00279206 -0.000104872 0)
(0.00278419 -0.000112376 0)
(0.00277663 -0.00012022 0)
(0.00276874 -0.000128261 0)
(0.00276149 -0.000136625 0)
(0.00275456 -0.000145413 0)
(0.00274709 -0.000154121 0)
(0.00274021 -0.000163284 0)
(0.00273335 -0.000172463 0)
(0.00272682 -0.000181974 0)
(0.0027205 -0.000191525 0)
(0.00271445 -0.00020132 0)
(0.00270864 -0.000211148 0)
(0.00270308 -0.000221146 0)
(0.00269777 -0.000231158 0)
(0.00269266 -0.000241273 0)
(0.00268774 -0.00025138 0)
(0.00268293 -0.000261533 0)
(0.00267817 -0.000271657 0)
(4.93185e-05 -0.00135395 0)
(4.76705e-05 -0.00136047 0)
(4.61483e-05 -0.00136669 0)
(4.46312e-05 -0.00137308 0)
(4.31712e-05 -0.00137926 0)
(4.17252e-05 -0.00138554 0)
(4.02916e-05 -0.00139167 0)
(3.88674e-05 -0.00139783 0)
(3.74256e-05 -0.0014039 0)
(3.59807e-05 -0.00140992 0)
(3.44962e-05 -0.00141588 0)
(3.29921e-05 -0.00142171 0)
(3.1429e-05 -0.00142749 0)
(2.98286e-05 -0.00143304 0)
(2.81487e-05 -0.00143856 0)
(2.64143e-05 -0.00144374 0)
(2.45751e-05 -0.00144888 0)
(2.26669e-05 -0.00145354 0)
(2.06205e-05 -0.00145816 0)
(1.84943e-05 -0.00146211 0)
(0.000150324 -0.00132366 0)
(0.000145378 -0.00133097 0)
(0.000140772 -0.00133802 0)
(0.000136238 -0.00134513 0)
(0.000131853 -0.00135207 0)
(0.00012755 -0.00135901 0)
(0.000123272 -0.00136584 0)
(0.000119051 -0.00137262 0)
(0.000114769 -0.00137933 0)
(0.000110499 -0.00138593 0)
(0.000106106 -0.00139248 0)
(0.000101668 -0.00139885 0)
(9.70504e-05 -0.00140519 0)
(9.23288e-05 -0.00141127 0)
(8.73658e-05 -0.00141732 0)
(8.22437e-05 -0.001423 0)
(7.68027e-05 -0.00142865 0)
(7.11551e-05 -0.00143381 0)
(6.50855e-05 -0.00143893 0)
(5.87733e-05 -0.00144338 0)
(0.000254949 -0.00126597 0)
(0.000246521 -0.00127471 0)
(0.000238541 -0.00128327 0)
(0.00023083 -0.00129171 0)
(0.000223285 -0.00130004 0)
(0.000215989 -0.00130823 0)
(0.000208681 -0.00131635 0)
(0.000201549 -0.0013243 0)
(0.000194285 -0.00133221 0)
(0.000187096 -0.00133991 0)
(0.000179685 -0.00134759 0)
(0.000172236 -0.001355 0)
(0.00016448 -0.00136241 0)
(0.000156574 -0.00136948 0)
(0.000148263 -0.00137655 0)
(0.000139698 -0.00138321 0)
(0.0001306 -0.00138985 0)
(0.000121157 -0.00139596 0)
(0.000111011 -0.00140206 0)
(0.000100451 -0.00140749 0)
(0.000366629 -0.0011852 0)
(0.000354645 -0.00119578 0)
(0.000343032 -0.00120632 0)
(0.000332108 -0.00121651 0)
(0.000321248 -0.0012267 0)
(0.000310967 -0.00123652 0)
(0.000300566 -0.00124638 0)
(0.000290571 -0.00125585 0)
(0.000280338 -0.00126538 0)
(0.000270312 -0.00127451 0)
(0.000259955 -0.00128369 0)
(0.000249608 -0.00129248 0)
(0.000238827 -0.0013013 0)
(0.000227873 -0.00130969 0)
(0.000216356 -0.00131811 0)
(0.000204503 -0.00132605 0)
(0.000191911 -0.001334 0)
(0.000178843 -0.00134141 0)
(0.000164797 -0.00134881 0)
(0.000150162 -0.00135554 0)
(0.000484347 -0.00108744 0)
(0.000468602 -0.0011001 0)
(0.00045291 -0.00111296 0)
(0.000438574 -0.00112514 0)
(0.000424046 -0.00113754 0)
(0.000410597 -0.00114925 0)
(0.000396841 -0.00116119 0)
(0.000383832 -0.00117246 0)
(0.000370456 -0.00118393 0)
(0.000357492 -0.00119479 0)
(0.000344096 -0.0012058 0)
(0.000330801 -0.00121624 0)
(0.000316972 -0.00122678 0)
(0.00030297 -0.00123677 0)
(0.000288271 -0.00124682 0)
(0.00027316 -0.00125633 0)
(0.000257118 -0.00126587 0)
(0.000240457 -0.00127484 0)
(0.000222546 -0.00128382 0)
(0.000203839 -0.00129217 0)
(0.000610349 -0.00097748 0)
(0.000590784 -0.000992265 0)
(0.000570722 -0.00100756 0)
(0.000552956 -0.00102178 0)
(0.000534637 -0.00103649 0)
(0.000518053 -0.00105013 0)
(0.000500959 -0.00106422 0)
(0.000485018 -0.00107733 0)
(0.00046861 -0.00109079 0)
(0.000452827 -0.00110338 0)
(0.00043656 -0.00111622 0)
(0.000420474 -0.00112832 0)
(0.000403803 -0.00114058 0)
(0.000386949 -0.00115219 0)
(0.00036932 -0.00116389 0)
(0.000351205 -0.00117501 0)
(0.000332033 -0.00118617 0)
(0.000312116 -0.00119677 0)
(0.000290757 -0.00120739 0)
(0.00026843 -0.00121746 0)
(0.000741249 -0.00086277 0)
(0.000717551 -0.000879562 0)
(0.000692621 -0.000897303 0)
(0.000671025 -0.000913524 0)
(0.000648506 -0.000930627 0)
(0.000628378 -0.000946268 0)
(0.000607664 -0.000962635 0)
(0.000588474 -0.000977703 0)
(0.000568905 -0.000993288 0)
(0.000550149 -0.00100778 0)
(0.00053104 -0.00102259 0)
(0.000512185 -0.00103651 0)
(0.000492841 -0.00105058 0)
(0.000473308 -0.00106394 0)
(0.000453015 -0.00107734 0)
(0.000432165 -0.00109015 0)
(0.000410173 -0.00110296 0)
(0.0003873 -0.00111526 0)
(0.000362785 -0.00112756 0)
(0.000337091 -0.00113941 0)
(0.000879198 -0.000745686 0)
(0.000851385 -0.000764135 0)
(0.000821713 -0.000784002 0)
(0.000796293 -0.000801903 0)
(0.000769902 -0.000821026 0)
(0.000746253 -0.000838352 0)
(0.000722245 -0.000856574 0)
(0.000699826 -0.000873324 0)
(0.000677319 -0.000890624 0)
(0.000655599 -0.000906785 0)
(0.000633779 -0.000923211 0)
(0.00061218 -0.000938771 0)
(0.000590271 -0.000954399 0)
(0.000568149 -0.000969362 0)
(0.000545363 -0.000984286 0)
(0.000521992 -0.000998695 0)
(0.0004975 -0.00101303 0)
(0.000472074 -0.00102698 0)
(0.000444969 -0.00104087 0)
(0.000416597 -0.00105451 0)
(0.00101794 -0.00063481 0)
(0.000985024 -0.000654726 0)
(0.000950314 -0.000676547 0)
(0.000919958 -0.000696244 0)
(0.000889374 -0.000717308 0)
(0.000861445 -0.000736589 0)
(0.000834019 -0.000756611 0)
(0.000808107 -0.00077526 0)
(0.000782803 -0.000794178 0)
(0.000758266 -0.000812061 0)
(0.0007341 -0.000829933 0)
(0.000710175 -0.000847029 0)
(0.000686219 -0.000863979 0)
(0.000662079 -0.000880352 0)
(0.000637421 -0.000896541 0)
(0.000612192 -0.00091232 0)
(0.000585891 -0.000927939 0)
(0.000558634 -0.000943313 0)
(0.000529667 -0.000958597 0)
(0.000499358 -0.000973824 0)
(0.00116236 -0.00052691 0)
(0.00112511 -0.000547115 0)
(0.00108703 -0.000569201 0)
(0.0010519 -0.000589775 0)
(0.00101785 -0.00061149 0)
(0.000985454 -0.000632144 0)
(0.000954482 -0.000653244 0)
(0.000924686 -0.000673557 0)
(0.000896063 -0.000693873 0)
(0.000868273 -0.00071353 0)
(0.000841242 -0.000732936 0)
(0.000814668 -0.000751766 0)
(0.000788343 -0.000770232 0)
(0.000762065 -0.000788219 0)
(0.000735471 -0.000805828 0)
(0.000708486 -0.000823101 0)
(0.000680571 -0.000840061 0)
(0.000651817 -0.000856899 0)
(0.000621459 -0.000873561 0)
(0.000589821 -0.000890414 0)
)
;

boundaryField
{
    back
    {
        type            empty;
    }
    left
    {
        type            symmetry;
    }
    hole
    {
        type            calculated;
        value           nonuniform List<vector> 
20
(
(9.41305e-05 -0.00112912 -7.14281e-21)
(0.000278271 -0.00111927 0)
(0.000448611 -0.00109813 -7.2233e-21)
(0.000609835 -0.0010631 -2.35417e-22)
(0.000768616 -0.00101938 1.20925e-21)
(0.000921237 -0.000966943 3.43606e-21)
(0.0010669 -0.000910512 -1.70098e-20)
(0.00120485 -0.000847292 -2.58632e-21)
(0.00133283 -0.000783744 1.26308e-20)
(0.00145331 -0.000715291 6.97127e-21)
(0.00156141 -0.000648272 -2.14858e-23)
(0.00166249 -0.000578909 4.76927e-22)
(0.00175061 -0.000510053 -6.08539e-21)
(0.00183011 -0.000441051 5.47845e-21)
(0.00189723 -0.000372186 -6.91175e-21)
(0.00195437 -0.000303979 1.4085e-21)
(0.0019996 -0.000235798 -1.54725e-21)
(0.00203403 -0.000168329 -4.38314e-21)
(0.0020568 -0.000100741 3.51758e-21)
(0.0020683 -3.36857e-05 -4.261e-21)
)
;
    }
    front
    {
        type            empty;
    }
    down
    {
        type            symmetry;
    }
    right
    {
        type            calculated;
        value           nonuniform List<vector> 
30
(
(0.00294429 -2.03872e-06 6.35175e-21)