/*--------------------------------*- C++ -*----------------------------------*\
| =========                 |                                                 |
| \\      /  F ield         | OpenFOAM: The Open Source CFD Toolbox           |
|  \\    /   O peration     | Version:  v2012                                 |
|   \\  /    A nd           | Website:  www.openfoam.com                      |
|    \\/     M anipulation  |                                                 |
\*---------------------------------------------------------------------------*/
FoamFile
{
    version     2.0;
    format      ascii;
    class       volSymmTensorField;
    location    "6";
    object      epsilon;
}
// * * * * * * * * * * * * * * * * * * * * * * * * * * * * * * * * * * * * * //

dimensions      [0 0 0 0 0 0 0];


internalField   nonuniform List<symmTensor> 
1000
(
(0.00464036 -0.000285874 -5.49605e-20 -0.00231652 -1.60193e-19 8.91468e-35)
(0.00388497 -0.000185129 -3.80678e-19 -0.0015728 -2.44013e-19 0)
(0.00333671 -0.00010351 -2.20475e-19 -0.00109379 1.25027e-19 0)
(0.00294538 -3.82291e-05 2.22957e-19 -0.000940452 2.49862e-20 0)
(0.00263945 -1.87051e-06 1.9143e-19 -0.000758081 2.29283e-20 0)
(0.00241255 2.50097e-05 1.64071e-20 -0.000700627 9.58102e-20 0)
(0.00222241 3.98663e-05 -1.48806e-19 -0.000612865 -2.04901e-20 0)
(0.0020717 5.29938e-05 -1.9967e-20 -0.000590272 -1.61023e-19 0)
(0.00194253 5.97089e-05 -1.37745e-19 -0.000550281 -1.68507e-19 0)
(0.00183057 6.64042e-05 1.44937e-20 -0.000543037 9.96286e-20 0)
(0.00421482 -0.000766855 0 -0.00193013 0 0)
(0.00360754 -0.000495342 3.20966e-19 -0.00137539 7.46051e-20 0)
(0.00320628 -0.000276465 -3.7236e-19 -0.00106603 -1.93996e-19 0)
(0.00288623 -0.000118306 5.33691e-20 -0.000961185 -1.82315e-19 0)
(0.00262048 -2.19799e-05 6.0378e-20 -0.000800147 9.4553e-20 0)
(0.00241305 5.58479e-05 1.42141e-19 -0.000745164 2.72081e-19 0)
(0.00223673 0.000100896 -1.51624e-19 -0.00066379 -5.25728e-20 0)
(0.00209311 0.000141008 2.16926e-19 -0.000637693 -4.47944e-20 0)
(0.00196885 0.0001634 -1.72612e-19 -0.000597414 -1.89243e-19 0)
(0.0018611 0.000184411 -2.02393e-20 -0.000587059 -6.89635e-20 0)
(0.00363273 -0.00103686 -1.48671e-19 -0.00145583 -1.29126e-19 1.70338e-34)
(0.00328718 -0.000704556 2.86283e-19 -0.00120153 8.21819e-20 0)
(0.00301636 -0.000418651 6.9137e-19 -0.00104099 3.01641e-19 0)
(0.00277501 -0.000210235 -1.27027e-19 -0.000952904 -1.0099e-19 0)
(0.00256691 -7.05254e-05 -9.85617e-20 -0.000846673 -1.62422e-21 0)
(0.00239268 4.68452e-05 5.07484e-19 -0.000795068 3.33154e-19 0)
(0.00224226 0.000122332 1.97999e-19 -0.000732444 3.18583e-20 0)
(0.00211546 0.000186553 4.52235e-20 -0.000706085 -5.30769e-20 0)
(0.00200309 0.000227348 2.8513e-25 -0.000669457 4.33998e-25 0)
(0.0019056 0.000262088 -1.52717e-19 -0.000657363 -1.34476e-19 0)
(0.00315201 -0.00118739 -1.43852e-20 -0.00111025 -9.35524e-22 1.2979e-37)
(0.00297117 -0.00084054 -5.53491e-19 -0.00104104 -2.06412e-19 0)
(0.00278378 -0.000536193 2.46049e-19 -0.000970604 1.08484e-19 0)
(0.0026168 -0.000300766 3.91872e-19 -0.000919746 1.89417e-19 0)
(0.00246865 -0.000127506 -1.25998e-19 -0.000862867 -6.31845e-20 0)
(0.00233851 1.28078e-05 -7.72853e-21 -0.000833181 -4.52955e-21 0)
(0.00222185 0.000113347 2.38819e-19 -0.000791848 1.55458e-19 0)
(0.00212106 0.000194684 -1.48633e-19 -0.000775625 -1.02601e-19 0)
(0.00202743 0.000251943 -1.37966e-19 -0.000745559 -1.00384e-19 0)
(0.00194592 0.000297659 -1.25557e-19 -0.000736614 -9.54825e-20 0)
(0.0027113 -0.00131123 -2.47194e-20 -0.000852615 4.62689e-20 -1.3604e-35)
(0.00262214 -0.000926208 -2.92692e-19 -0.000873957 -4.84722e-20 0)
(0.00252065 -0.000612378 -2.22395e-19 -0.000870148 -3.986e-20 0)
(0.0024299 -0.000369428 -7.84617e-21 -0.000876957 -1.64621e-21 0)
(0.00233944 -0.000181232 2.93657e-19 -0.000862006 6.82004e-20 0)
(0.00225879 -3.21334e-05 -6.53867e-20 -0.000863516 -9.38933e-20 0)
(0.00217801 8.11231e-05 8.37546e-20 -0.000843648 9.67769e-20 0)
(0.00210763 0.000170552 -3.16633e-19 -0.000842189 -2.41747e-19 0)
(0.00203632 0.000238077 2.10169e-21 -0.00082068 9.06711e-22 0)
(0.00197329 0.00028973 -1.83991e-19 -0.000816993 -1.37541e-19 0)
(0.00222482 -0.00134915 3.28114e-19 -0.000586019 -7.38908e-20 3.51264e-35)
(0.00224669 -0.000962505 5.2909e-24 -0.000704487 -7.64868e-26 0)
(0.00223521 -0.000658438 5.17824e-19 -0.000766894 2.94191e-19 0)
(0.0022197 -0.000422211 -5.05393e-19 -0.000829547 -4.37868e-19 0)
(0.00218619 -0.000236563 0 -0.000852551 0 0)
(0.00215299 -8.9763e-05 6.41705e-20 -0.000884296 1.34171e-19 0)
(0.00210906 2.56826e-05 5.53198e-19 -0.000884564 2.81151e-19 0)
(0.0020687 0.000116156 2.51218e-19 -0.000898695 1.38588e-19 0)
(0.00202154 0.000188048 8.58855e-20 -0.000885912 1.19161e-19 0)
(0.00197718 0.000242336 -3.62109e-19 -0.000889022 -2.54929e-19 0)
(0.0017288 -0.00128694 -8.54641e-19 -0.000343178 8.57134e-20 1.88986e-34)
(0.00186687 -0.0009425 -9.75703e-19 -0.000550262 1.75406e-19 0)
(0.00194289 -0.000672429 -1.60918e-20 -0.00067543 -4.01701e-19 0)
(0.00199671 -0.000460426 1.94419e-19 -0.000785481 -2.26277e-19 0)
(0.00201601 -0.000290258 -7.71191e-19 -0.000842476 -2.43396e-19 0)
(0.00202681 -0.000156747 -3.33391e-19 -0.00089998 -1.24941e-19 0)
(0.00201671 -4.70773e-05 -4.75007e-19 -0.000918125 -2.62971e-19 0)
(0.00200474 3.64246e-05 7.47721e-20 -0.00094548 -1.20811e-20 0)
(0.00198058 0.000107549 1.32575e-19 -0.000940964 -2.59312e-20 0)
(0.00195356 0.000159365 2.06933e-19 -0.000949589 5.21691e-20 0)
(0.00126447 -0.00113672 -3.72313e-19 -0.000146055 1.85115e-19 2.9319e-35)
(0.00149425 -0.000868735 -5.40037e-24 -0.00041564 1.84438e-24 0)
(0.00164487 -0.000652875 2.9357e-19 -0.000588463 -1.01055e-19 0)
(0.00175583 -0.000481896 9.13154e-19 -0.000733438 3.96468e-19 0)
(0.00182335 -0.000339631 1.35942e-20 -0.000817769 -4.76981e-21 0)
(0.00187053 -0.000228692 -1.27346e-19 -0.000894378 4.46016e-20 0)
(0.00189363 -0.000132952 3.00883e-19 -0.000928247 9.62878e-20 0)
(0.00190548 -6.13045e-05 -7.38357e-20 -0.000966163 2.90283e-20 0)
(0.00190478 3.43033e-06 -2.26973e-19 -0.000969518 -9.77644e-20 0)
(0.00189395 5.09598e-05 2.02367e-19 -0.000985103 9.67537e-20 0)
(0.000871055 -0.000929492 4.10183e-20 -1.93825e-05 2.98845e-19 -1.37044e-34)
(0.00116481 -0.000753505 -6.46064e-19 -0.000324269 6.21413e-19 0)
(0.00136737 -0.000607094 -2.83209e-20 -0.000528942 2.97769e-19 0)
(0.00152173 -0.000486584 8.51576e-19 -0.000694625 1.09879e-19 0)
(0.00162447 -0.000382135 3.65928e-19 -0.000798995 6.95687e-20 0)
(0.00170174 -0.000299924 -5.80564e-20 -0.000887095 2.7955e-19 0)
(0.00174968 -0.000223737 7.57208e-20 -0.000933781 2.00251e-19 0)
(0.00178242 -0.000169763 5.83814e-19 -0.000977132 1.18649e-19 0)
(0.00180073 -0.000113333 -1.01164e-19 -0.000988876 -1.67624e-19 0)
(0.00180192 -7.78211e-05 2.59548e-19 -0.00100539 2.71977e-19 0)
(0.000554902 -0.00067257 1.31564e-19 3.03302e-05 7.76077e-20 -7.78751e-36)
(0.00087829 -0.000598866 2.65917e-19 -0.000275876 -1.84288e-19 0)
(0.00111194 -0.000528019 -2.22571e-19 -0.000487965 -1.63411e-19 0)
(0.00128905 -0.000464287 -4.4291e-20 -0.000654755 -2.72056e-19 0)
(0.00141871 -0.000402978 -5.93392e-20 -0.000767495 -2.49657e-19 0)
(0.00151048 -0.000351961 -1.179e-19 -0.000853035 8.72562e-20 0)
(0.00158406 -0.000302065 -3.66843e-19 -0.0009101 -2.58847e-19 0)
(0.00162377 -0.000262882 -9.95971e-20 -0.000946885 -1.83662e-19 0)
(0.00167022 -0.000226518 -3.83262e-19 -0.000973539 -1.74142e-19 0)
(0.00167466 -0.00019186 -7.92429e-20 -0.000982505 9.27064e-20 0)
(0.000332813 -0.000416505 7.45426e-21 3.35543e-06 -6.27483e-21 -5.79975e-39)
(0.000656162 -0.000435851 -7.14461e-19 -0.000277987 -8.2969e-20 0)
(0.000890192 -0.000444838 2.21455e-19 -0.000477996 1.49104e-19 0)
(0.00107665 -0.000433412 1.13875e-19 -0.000633 -4.33958e-19 0)
(0.00121013 -0.000425159 4.12125e-19 -0.000741745 2.56781e-19 0)
(0.00131618 -0.000399403 -2.97968e-19 -0.0008226 -2.19687e-20 0)
(0.00139083 -0.000388888 -1.82402e-19 -0.000879382 -1.15215e-19 0)
(0.00145125 -0.000353653 1.84688e-20 -0.000917954 -3.16915e-19 0)
(0.00148982 -0.000350356 1.64842e-19 -0.00094485 9.87389e-20 0)
(0.00153533 -0.000319016 -1.61429e-20 -0.000956671 2.41586e-19 0)
(0.000200359 -0.000158766 4.72755e-19 -0.000103396 -5.84243e-19 1.03346e-35)
(0.000501398 -0.000265467 9.4053e-21 -0.000339381 -1.1106e-20 0)
(0.000718373 -0.000341733 -5.99178e-19 -0.000504478 -7.11023e-20 0)
(0.000900686 -0.00038238 -2.05638e-19 -0.000637008 -1.25416e-19 0)
(0.0010267 -0.000414252 2.98748e-19 -0.000724528 -3.13609e-21 0)
(0.00114024 -0.000420097 3.63303e-19 -0.00079786 -1.10419e-19 0)
(0.00120831 -0.000431624 2.69668e-21 -0.000837772 -3.45792e-21 0)
(0.00128468 -0.000416864 -2.13886e-19 -0.000879621 -2.48984e-20 0)
(0.00130966 -0.000420043 2.23023e-19 -0.000885871 3.24676e-19 0)
(0.00137606 -0.000412584 -1.83279e-19 -0.00090134 -1.03811e-19 0)
(0.000145364 6.218e-05 -8.98244e-20 -0.000267091 -9.09088e-20 -1.69078e-36)
(0.000398319 -0.000111491 3.50999e-19 -0.00043342 -9.9232e-20 0)
(0.000576599 -0.000241995 -5.22857e-20 -0.000547645 -3.4049e-19 0)
(0.000738758 -0.000323575 -2.9157e-19 -0.000641814 4.29527e-20 0)
(0.00084505 -0.000388472 -3.55849e-19 -0.000700462 1.61113e-19 0)
(0.00095372 -0.000420345 1.66167e-19 -0.000752421 1.06789e-19 0)
(0.00101139 -0.000450405 2.73411e-19 -0.000775153 -9.59429e-20 0)
(0.00109123 -0.000455333 3.45816e-19 -0.000804303 9.12616e-20 0)
(0.00111017 -0.000465751 -3.03883e-20 -0.00079917 6.73213e-20 0)
(0.0011794 -0.00047889 -1.57617e-19 -0.000801187 -1.64594e-20 0)
(0.000159907 0.000237257 7.99269e-20 -0.000478426 8.79401e-20 1.52213e-36)
(0.000349822 1.56453e-05 -1.78904e-19 -0.000565122 -1.27086e-19 0)
(0.000478822 -0.000151291 2.67816e-19 -0.000617112 -7.43902e-20 0)
(0.000609296 -0.000265127 1.70457e-19 -0.000666044 1.02787e-19 0)
(0.000688308 -0.000352501 -6.55625e-20 -0.000687034 1.33953e-19 0)
(0.000782892 -0.000407215 -4.66275e-19 -0.000713803 -2.60622e-19 0)
(0.000825601 -0.000449709 1.07643e-19 -0.000713436 1.71834e-19 0)
(0.000900854 -0.000472774 1.38616e-19 -0.000728696 7.79779e-20 0)
(0.000913778 -0.000488149 -1.12859e-19 -0.000711378 -1.32034e-19 0)
(0.000979446 -0.00051526 -1.1367e-19 -0.000703461 -1.18823e-19 0)
(0.000222775 0.000352787 1.27578e-19 -0.00071422 -6.16733e-19 -1.51931e-34)
(0.000339092 0.000108028 6.97689e-20 -0.00071213 -2.33629e-19 0)
(0.000411624 -7.60271e-05 9.21895e-20 -0.000697277 2.87542e-19 0)
(0.000502451 -0.000208024 2.95038e-19 -0.000694175 1.90045e-19 0)
(0.000551249 -0.000306324 2.27294e-19 -0.000676593 -1.69637e-19 0)
(0.000624822 -0.000376433 1.08952e-19 -0.000672305 1.683e-19 0)
(0.000653018 -0.000424666 7.96119e-20 -0.000650419 2.4464e-19 0)
(0.000716746 -0.000462052 4.21949e-20 -0.000646409 -2.18932e-19 0)
(0.000725914 -0.00047871 -1.16606e-19 -0.000619082 -5.86525e-20 0)
(0.000781906 -0.000514558 -4.87818e-20 -0.000599687 5.53384e-20 0)
(0.000316596 0.000403797 -5.18237e-20 -0.000953831 2.15596e-19 -1.49212e-35)
(0.000357472 0.000160646 7.38745e-20 -0.00086548 5.19014e-19 0)
(0.000373882 -2.15082e-05 9.87835e-20 -0.000785141 2.66073e-19 0)
(0.000421817 -0.000156786 -9.47381e-22 -0.000730347 5.67463e-21 0)
(0.000440522 -0.000255411 -1.21444e-19 -0.000674694 -6.63821e-20 0)
(0.000489351 -0.000331083 1.14477e-19 -0.000638824 7.29985e-20 0)
(0.00050399 -0.000379977 -1.10449e-19 -0.000596361 -5.46895e-20 0)
(0.000552367 -0.000424106 1.10081e-19 -0.000572091 -7.5602e-20 0)
(0.000559921 -0.000441168 9.90289e-20 -0.000536602 -9.85204e-21 0)
(0.000603933 -0.000479315 7.22509e-21 -0.000506028 4.44933e-20 0)
(0.000420704 0.000392328 1.54443e-20 -0.00117696 -1.72246e-19 -1.59424e-35)
(0.000390743 0.000174265 -1.99745e-19 -0.00100854 -2.1907e-19 0)
(0.000355014 1.18708e-05 -2.0048e-19 -0.00086854 -1.78635e-19 0)
(0.000361514 -0.000111904 -1.00224e-19 -0.00076499 -2.99143e-19 0)
(0.000352343 -0.000200287 -1.90232e-19 -0.000675112 -2.23902e-19 0)
(0.000376168 -0.000271827 -1.82989e-19 -0.000608756 -3.63658e-20 0)
(0.000378356 -0.000315563 9.36405e-20 -0.00054812 1.71479e-19 0)
(0.00041035 -0.00035931 -9.20827e-20 -0.00050388 -9.16685e-20 0)
(0.000416296 -0.000374116 6.99622e-20 -0.000461173 -1.09809e-20 0)
(0.000448436 -0.00040939 -1.44201e-20 -0.000420617 7.78935e-21 0)
(0.00051703 0.00032472 -3.60272e-20 -0.00136306 -2.81402e-19 -5.36398e-35)
(0.000427791 0.000152677 6.81891e-20 -0.00112922 9.48054e-20 0)
(0.000349338 2.48864e-05 1.17861e-19 -0.000940594 2.76425e-19 0)
(0.000320559 -7.40768e-05 -7.14669e-20 -0.000796873 -6.82079e-20 0)
(0.000288641 -0.000144055 1.24656e-19 -0.000679089 4.25215e-20 0)
(0.000290629 -0.000202402 1.77178e-19 -0.000587274 2.60951e-19 0)
(0.000282944 -0.000237228 1.42605e-19 -0.000511997 1.28409e-19 0)
(0.000300146 -0.000273881 -3.24161e-20 -0.000450658 -7.88114e-20 0)
(0.000305277 -0.000285752 5.86855e-20 -0.00040241 2.90303e-20 0)
(0.000326924 -0.000314062 0 -0.000353395 0 0)
(0.000590437 0.000213549 4.65635e-20 -0.00149717 2.22734e-19 -4.10944e-35)
(0.00045836 0.000103449 1.18479e-19 -0.00121613 1.60518e-19 0)
(0.000349116 2.20667e-05 -7.39702e-20 -0.000992731 -1.15675e-19 0)
(0.000294556 -4.17025e-05 -3.30278e-20 -0.00081984 -5.29124e-20 0)
(0.000246176 -8.62748e-05 9.33906e-20 -0.000682169 1.39674e-19 0)
(0.00023198 -0.00012427 2.4503e-20 -0.000571738 3.74967e-20 0)
(0.000217063 -0.000146366 -3.87069e-20 -0.000486052 -3.37624e-20 0)
(0.000223192 -0.000170556 -4.23975e-20 -0.000412185 -4.69488e-20 0)
(0.000227561 -0.000177919 -5.75387e-20 -0.000359971 -4.41045e-20 0)
(0.000241655 -0.0001961 -1.79089e-20 -0.000305049 -1.15118e-20 0)
(0.000629943 7.43375e-05 -8.57982e-20 -0.00156704 -5.9125e-20 -9.71646e-35)
(0.00047554 3.64879e-05 -1.13715e-19 -0.00126166 -3.40348e-19 0)
(0.000350434 8.42509e-06 4.78314e-20 -0.00102036 -2.01365e-19 0)
(0.000282387 -1.36147e-05 5.36544e-20 -0.000832411 8.05777e-20 0)
(0.000225559 -2.9075e-05 -4.51237e-20 -0.000684499 -6.43615e-20 0)
(0.00020283 -4.23032e-05 -1.56133e-21 -0.000564399 -6.74701e-20 0)
(0.000184246 -5.00426e-05 1.09035e-20 -0.000473367 -2.2017e-20 0)
(0.000184458 -5.85373e-05 -6.22552e-20 -0.000392901 -4.15796e-20 0)
(0.000188514 -6.11933e-05 -1.2414e-20 -0.000338679 -2.12614e-20 0)
(0.000198581 -6.7502e-05 5.78252e-20 -0.000280621 1.28251e-20 0)
(0.000231445 -6.78239e-05 3.03379e-20 -0.000229728 4.03459e-20 0)
(0.000272258 -0.000196259 5.37659e-20 -0.000255563 2.90648e-20 0)
(0.000353184 -0.000314318 -1.89389e-20 -0.000306522 -8.85421e-21 0)
(0.000467483 -0.000408208 2.05128e-20 -0.000376276 9.55245e-21 0)
(0.000614112 -0.000477336 3.46274e-20 -0.000464149 2.0571e-20 0)
(0.000779637 -0.000509523 1.53378e-19 -0.000557306 5.03948e-20 0)
(0.000965693 -0.000510249 -1.28251e-19 -0.000660101 -7.33112e-20 0)
(0.00115337 -0.000469623 -1.25547e-19 -0.000754092 -6.25227e-20 0)
(0.00134345 -0.000409504 -2.24029e-19 -0.000852538 -1.61644e-19 0)
(0.0015176 -0.000325318 3.73705e-19 -0.000938717 2.27798e-19 0)
(0.000288742 -6.33004e-05 -4.20327e-20 -0.000170732 -1.25204e-20 0)
(0.000322776 -0.000182767 1.20488e-21 -0.000195496 2.09926e-22 0)
(0.00039007 -0.000295886 -9.10898e-20 -0.000243828 -2.93429e-20 0)
(0.000485482 -0.000387913 -9.72731e-20 -0.000311887 -3.06947e-20 0)
(0.000607062 -0.000463755 1.58359e-19 -0.00039621 5.52971e-20 0)
(0.000744905 -0.00050574 9.16681e-20 -0.000489325 3.43255e-20 0)
(0.000896594 -0.000527531 -5.76942e-20 -0.000584993 -1.9024e-20 0)
(0.0010524 -0.000502383 0 -0.000677681 0 0)
(0.00120949 -0.000457597 1.20429e-19 -0.000754794 7.44346e-20 0)
(0.00136589 -0.000363385 -5.1349e-21 -0.000835224 -2.83118e-20 0)
(0.000341576 -5.74098e-05 8.74871e-21 -0.000136003 8.13392e-21 0)
(0.000370836 -0.000165265 6.83416e-20 -0.00015667 2.08598e-20 0)
(0.000428367 -0.000268285 -4.15843e-20 -0.000196327 -1.23487e-20 0)
(0.000512109 -0.000351894 -1.64259e-19 -0.000254854 -4.42869e-20 0)
(0.00061861 -0.000422795 -3.23133e-20 -0.000326641 -4.70237e-21 0)
(0.000745287 -0.000464347 1.234e-21 -0.00041409 1.94872e-21 0)
(0.000882726 -0.00049253 -9.56741e-20 -0.000503085 -3.64113e-20 0)
(0.00103181 -0.000487433 -1.60637e-19 -0.000605402 -6.80008e-20 0)
(0.00116906 -0.000470898 1.77401e-19 -0.00068433 8.12852e-20 0)
(0.00130137 -0.000421663 3.71448e-19 -0.000772574 1.91601e-19 0)
(0.000407571 -5.34254e-05 -3.90379e-20 -0.000128152 -1.55753e-20 0)
(0.000430748 -0.000154223 2.71185e-20 -0.00014605 1.01654e-21 0)
(0.000475305 -0.000252122 1.23883e-19 -0.000178715 2.52272e-20 0)
(0.000541361 -0.00033403 8.07601e-20 -0.000228787 1.75526e-20 0)
(0.000623011 -0.000405707 1.26213e-19 -0.000285748 3.62011e-20 0)
(0.000723432 -0.000451774 -1.14574e-19 -0.00035896 -3.93363e-20 0)
(0.000830813 -0.000481849 -2.99354e-19 -0.000426798 -1.04614e-19 0)
(0.000956706 -0.00048227 4.98118e-20 -0.000514525 2.14331e-20 0)
(0.00108004 -0.000463369 4.9399e-20 -0.000582721 2.28807e-20 0)
(0.00120936 -0.000427352 -5.47108e-20 -0.000672743 -2.76292e-20 0)
(0.000460434 -4.65367e-05 -7.31692e-21 -0.000115048 -6.92464e-21 0)
(0.000481122 -0.000135035 -7.1725e-20 -0.000130732 -8.51612e-21 0)
(0.000520242 -0.000220871 -6.15746e-20 -0.00015849 -1.02274e-20 0)
(0.000579945 -0.000294961 3.37287e-20 -0.000203753 1.70481e-21 0)
(0.000652374 -0.000360838 1.62011e-19 -0.00025406 2.47027e-20 0)
(0.000743237 -0.000410244 1.19633e-19 -0.000322846 1.53859e-20 0)
(0.000836874 -0.00044662 1.23717e-19 -0.00038451 3.26742e-20 0)
(0.000944577 -0.000465498 -5.03392e-20 -0.000464671 -1.07597e-20 0)
(0.00104589 -0.000463099 1.05919e-19 -0.000523833 2.86454e-20 0)
(0.00114972 -0.000445484 6.68843e-20 -0.000598175 1.48959e-20 0)
(0.000518892 -4.33093e-05 0 -0.000123904 0 0)
(0.000534693 -0.000126738 -1.09302e-20 -0.000136435 8.47805e-21 0)
(0.000564078 -0.000206838 -1.02163e-21 -0.000157555 -9.62914e-21 0)
(0.000610066 -0.000277655 -1.54613e-19 -0.000193472 -3.47557e-20 0)
(0.000665754 -0.000338659 1.94684e-21 -0.000231708 -1.04014e-22 0)
(0.000738345 -0.000386562 -4.15497e-20 -0.000286932 -2.11355e-21 0)
(0.000815858 -0.00041866 2.08946e-21 -0.000336777 -4.77079e-23 0)
(0.000908857 -0.000439392 4.428e-20 -0.000405438 6.44447e-21 0)
(0.00100139 -0.000439974 -2.2905e-19 -0.000460897 -7.20116e-20 0)
(0.00109621 -0.000434494 2.77681e-19 -0.000529439 9.49198e-20 0)
(0.000570624 -3.7671e-05 3.16558e-20 -0.000125893 -1.99436e-22 0)
(0.000584924 -0.000111576 -3.37156e-20 -0.000137272 -1.65322e-20 0)
(0.000611337 -0.000182182 1.03316e-20 -0.000156316 -1.01411e-20 0)
(0.000652456 -0.000247541 3.56933e-20 -0.000188927 1.12895e-20 0)
(0.000701617 -0.000304506 9.67972e-21 -0.000223498 1.33362e-20 0)
(0.000764096 -0.00035424 -4.29877e-20 -0.000272382 -4.85707e-22 0)
(0.000829735 -0.000389579 -1.08031e-19 -0.000316192 -2.11964e-20 0)
(0.000905878 -0.000417644 7.60722e-20 -0.000373565 2.3113e-20 0)
(0.000982556 -0.000425375 -3.81395e-20 -0.000420871 -2.1516e-20 0)
(0.00106116 -0.000427651 -3.51093e-20 -0.000477658 1.50648e-20 0)
(0.000619586 -3.47741e-05 5.85584e-21 -0.000139266 8.50241e-21 0)
(0.00063049 -0.000103903 1.37215e-20 -0.000148108 9.01137e-21 0)
(0.000650812 -0.000168719 -9.70113e-20 -0.000162744 -7.35242e-21 0)
(0.0006829 -0.000229566 -1.07443e-19 -0.000188393 -8.51401e-21 0)
(0.000722479 -0.00028098 4.65337e-21 -0.000216035 1.37733e-20 0)
(0.000773665 -0.000327198 8.02385e-20 -0.000255906 -1.3425e-21 0)
(0.000830163 -0.000359322 -1.02105e-19 -0.000293789 -1.77882e-20 0)
(0.000895923 -0.000387661 -1.84796e-19 -0.000343057 -4.24421e-20 0)
(0.000964341 -0.000398422 5.33257e-21 -0.000386621 -1.73554e-22 0)
(0.0010333 -0.000406984 1.26291e-19 -0.000436383 8.42132e-20 0)
(0.000667567 -3.07388e-05 -3.70303e-20 -0.000149424 2.68381e-22 0)
(0.000677223 -9.28794e-05 3.74826e-20 -0.000157421 -8.32354e-22 0)
(0.000695354 -0.000150979 2.31051e-20 -0.000170938 1.02706e-20 0)
(0.00072312 -0.000207363 -2.0699e-21 -0.000193699 1.24547e-22 0)
(0.000757424 -0.000255566 -2.00467e-19 -0.000218659 -3.55486e-20 0)
(0.000800098 -0.000300818 8.96647e-20 -0.000252717 -3.38358e-21 0)
(0.000847583 -0.000333442 1.08097e-19 -0.000285837 3.38697e-20 0)
(0.000901483 -0.000362941 2.06171e-26 -0.000326752 -2.29875e-28 0)
(0.000959079 -0.000376575 -2.35002e-20 -0.000364704 2.05915e-20 0)
(0.00101734 -0.000387989 2.67463e-20 -0.000406948 2.35356e-20 0)
(0.000708626 -2.81294e-05 3.42728e-20 -0.00016314 -1.03575e-20 0)
(0.000716166 -8.54353e-05 4.15454e-20 -0.000169502 -9.63968e-22 0)
(0.000730714 -0.000138354 3.82657e-20 -0.000180517 -1.26939e-21 0)
(0.000752974 -0.000189976 1.13612e-19 -0.000198996 8.22696e-21 0)
(0.000781592 -0.000233608 -8.33824e-20 -0.000220182 -1.09106e-20 0)
(0.000817223 -0.000275088 -8.25404e-20 -0.000248861 -2.96681e-20 0)
(0.000858328 -0.000305373 9.40551e-20 -0.000278281 1.4893e-20 0)
(0.000904643 -0.000333871 4.60131e-20 -0.000313824 -1.35717e-21 0)
(0.00095502 -0.000348557 1.60014e-19 -0.000348163 1.96474e-20 0)
(0.00100536 -0.000362425 1.17393e-19 -0.000385184 2.32578e-20 0)
(0.000750557 -2.52344e-05 4.16315e-20 -0.0001754 -2.48221e-22 0)
(0.000757021 -7.71078e-05 4.18798e-20 -0.000181094 -8.26139e-22 0)
(0.000769663 -0.000125052 4.23471e-20 -0.000191235 -1.24014e-21 0)
(0.000788387 -0.000172549 5.42136e-20 -0.000207469 2.51225e-20 0)
(0.000812723 -0.000213125 4.93508e-20 -0.000226538 -1.71659e-20 0)
(0.000842064 -0.000252136 -7.58921e-20 -0.000251111 -3.02385e-20 0)
(0.00087661 -0.000281305 4.54251e-20 -0.000277172 1.65931e-20 0)
(0.00091474 -0.000308602 -1.00737e-19 -0.00030737 -1.63445e-20 0)
(0.000957551 -0.000323928 6.28586e-20 -0.000338082 2.01773e-20 0)
(0.00100031 -0.000337922 -5.20712e-20 -0.000370264 1.43569e-20 0)
(0.000784706 -2.28974e-05 -4.33131e-21 -0.000186862 -1.16694e-20 0)
(0.000789895 -7.00691e-05 -4.19363e-20 -0.000191633 6.93094e-22 0)
(0.000800335 -0.000113494 -2.76445e-20 -0.000200417 1.35133e-20 0)
(0.000815669 -0.000156479 0 -0.000214248 0 0)
(0.000836247 -0.00019328 1.36249e-20 -0.000231172 -1.57819e-20 0)
(0.000860902 -0.000228618 2.03479e-21 -0.000252607 -6.78253e-23 0)
(0.000890577 -0.000255637 8.5285e-20 -0.000276177 3.35268e-20 0)
(0.000923106 -0.000280941 -4.91631e-20 -0.00030296 1.98083e-21 0)
(0.000959841 -0.000295844 1.12371e-19 -0.000330769 4.02553e-20 0)
(0.000996528 -0.000310182 7.12934e-20 -0.000359607 4.34593e-22 0)
(0.000819028 -2.06115e-05 4.00942e-21 -0.000196412 1.23355e-20 0)
(0.000823366 -6.31609e-05 5.44154e-20 -0.000200732 1.2067e-20 0)
(0.000832174 -0.000102466 -1.67979e-20 -0.000208823 -1.30496e-20 0)
(0.000844865 -0.000141489 4.77551e-20 -0.000221221 -1.13386e-21 0)
(0.000862019 -0.000175225 -3.07842e-20 -0.000236557 -1.46577e-20 0)
(0.000882258 -0.000207499 -1.24507e-19 -0.000255592 -1.28411e-20 0)
(0.000906991 -0.000232616 7.84065e-20 -0.000276752 3.4255e-20 0)
(0.000933619 -0.000255836 -4.76225e-20 -0.000300494 -1.86069e-20 0)
(0.000965001 -0.000270144 -4.57065e-20 -0.000325796 -2.02262e-20 0)
(0.000994192 -0.000283523 3.30973e-19 -0.000350876 8.02064e-20 0)
(0.000845989 -1.84176e-05 -7.37573e-21 -0.00020271 -2.56061e-20 0)
(0.000849549 -5.64575e-05 9.69141e-20 -0.000206586 -5.20968e-22 0)
(0.000856874 -9.15648e-05 1.24596e-20 -0.000213953 1.34913e-20 0)
(0.000867408 -0.000126406 -4.56876e-20 -0.000225176 5.66757e-22 0)
(0.000881815 -0.000156592 5.16414e-20 -0.000239231 3.01791e-20 0)
(0.000898832 -0.000185457 -9.68188e-20 -0.000256645 1.54032e-21 0)
(0.000919722 -0.00020817 -4.59414e-20 -0.000276082 8.58629e-22 0)
(0.000942312 -0.000228957 4.58929e-20 -0.000297975 -9.82877e-22 0)
(0.000968845 -0.000242572 -9.14748e-20 -0.000321177 -1.95294e-20 0)
(0.000994554 -0.000253769 -4.76791e-20 -0.000345025 9.9491e-22 0)
(0.000871226 -1.63227e-05 -1.00025e-19 -0.000205206 -1.31233e-20 0)
(0.000874169 -5.00436e-05 -1.34789e-19 -0.00020886 1.3109e-20 0)
(0.000880272 -8.12316e-05 7.42639e-20 -0.000215919 2.75984e-20 0)
(0.000888925 -0.000112205 -1.45189e-19 -0.000226423 -3.88799e-22 0)
(0.000900848 -0.000139128 -4.8423e-20 -0.000239771 -1.78054e-22 0)
(0.000914757 -0.000164838 4.83811e-20 -0.000255921 1.32025e-22 0)
(0.00093201 -0.000185052 1.47346e-20 -0.000274262 -1.75808e-20 0)
(0.000950538 -0.000203542 1.2052e-20 -0.000294448 -1.89515e-20 0)
(0.000972402 -0.00021524 4.12919e-20 -0.000316234 2.07067e-20 0)
(0.000994145 -0.000225299 4.2867e-20 -0.000338528 2.21601e-20 0)
(0.000889553 -1.40506e-05 -5.24044e-20 -0.000202624 -1.31298e-20 0)
(0.000892029 -4.30692e-05 -7.27411e-20 -0.000206172 -4.007e-20 0)
(0.000897177 -6.99382e-05 6.46079e-20 -0.000213059 1.46192e-20 0)
(0.000904465 -9.66036e-05 8.16111e-20 -0.000223271 2.97444e-20 0)
(0.000914513 -0.000119885 -4.36138e-20 -0.000236262 -3.0634e-20 0)
(0.000926187 -0.000142026 -3.21428e-21 -0.000251934 -3.1415e-20 0)
(0.000940666 -0.000159661 -4.74796e-20 -0.000269666 -1.44251e-21 0)
(0.000956033 -0.000175444 3.28125e-20 -0.000289097 1.90484e-20 0)
(0.000974332 -0.000185819 4.80761e-20 -0.000309984 1.56802e-21 0)
(0.000991983 -0.000193929 1.92363e-19 -0.000331101 3.52843e-20 0)
(0.000903321 -1.17805e-05 1.47547e-19 -0.000192954 -1.13319e-20 0)
(0.000905456 -3.61331e-05 4.34783e-20 -0.000196582 -1.16337e-20 0)
(0.000909881 -5.86904e-05 -4.99902e-20 -0.000203703 -1.64694e-21 0)
(0.000916125 -8.11187e-05 6.62291e-20 -0.000214104 1.61381e-20 0)
(0.000924665 -0.000100694 -9.34745e-22 -0.000227445 -9.29323e-23 0)
(0.000934589 -0.000119335 -2.41192e-20 -0.000243321 1.32542e-20 0)
(0.000946689 -0.000134086 -5.10528e-20 -0.000261313 -3.52738e-21 0)
(0.000959689 -0.000147268 -9.03434e-20 -0.000280905 -5.6494e-20 0)
(0.000974613 -0.000155659 -1.7519e-20 -0.000301646 -3.74401e-20 0)
(0.000989602 -0.000162098 1.45097e-19 -0.000322971 9.96051e-20 0)
(0.000910038 -9.02913e-06 1.03389e-19 -0.000176202 1.25344e-20 0)
(0.000911994 -2.76939e-05 5.65206e-20 -0.000180076 1.33303e-20 0)
(0.000916016 -4.50133e-05 1.0835e-20 -0.000187688 1.22425e-20 0)
(0.000921689 -6.2268e-05 1.41769e-20 -0.000198782 1.29953e-20 0)
(0.000929351 -7.7369e-05 4.99114e-20 -0.000212993 4.4979e-21 0)
(0.000938202 -9.18251e-05 -2.19312e-20 -0.000229847 -1.53791e-20 0)
(0.000948831 -0.000103236 2.49637e-20 -0.000248859 -1.10693e-20 0)
(0.000960078 -0.000113584 2.10442e-20 -0.000269428 -1.2485e-20 0)
(0.00097287 -0.000119896 -4.7237e-20 -0.000291072 -5.81535e-21 0)
(0.000985341 -0.000125019 -1.11053e-19 -0.000313034 3.72675e-21 0)
(0.000907851 -6.09219e-06 -1.00705e-19 -0.000146971 -1.66585e-21 0)
(0.000909818 -1.87285e-05 1.06625e-19 -0.000151348 1.47952e-20 0)
(0.000913819 -3.04413e-05 9.34908e-21 -0.000160031 1.04493e-20 0)
(0.000919496 -4.21962e-05 1.00046e-19 -0.000172579 1.0801e-20 0)
(0.000927073 -5.24539e-05 -4.97809e-20 -0.000188857 -6.60454e-21 0)
(0.000935826 -6.23999e-05 1.18513e-19 -0.000207934 2.90804e-20 0)
(0.000946217 -7.01308e-05 -1.20643e-19 -0.000229847 -3.22294e-20 0)
(0.00095709 -7.72812e-05 -2.36021e-20 -0.000253036 -1.69549e-20 0)
(0.00096931 -8.13744e-05 4.03981e-21 -0.000278121 2.88654e-20 0)
(0.000980957 -8.46868e-05 2.6992e-20 -0.000302517 2.0632e-20 0)
(0.00089741 -2.19e-06 -5.24552e-20 -0.000107787 -2.33537e-20 -2.32695e-35)
(0.000899574 -6.71166e-06 2.24197e-20 -0.000112872 -3.9463e-21 -5.00632e-36)
(0.000903925 -1.09439e-05 4.15685e-21 -0.000122974 7.99001e-21 9.25619e-39)
(0.000910151 -1.51773e-05 3.65657e-20 -0.000137616 2.54375e-20 -7.84391e-36)
(0.000918359 -1.89379e-05 -4.94855e-20 -0.000156679 -1.83452e-20 -2.12619e-35)
(0.000927873 -2.25483e-05 2.46927e-20 -0.0001791 1.066e-20 -5.23297e-36)
(0.000939013 -2.54391e-05 -1.48018e-20 -0.00020497 1.69257e-21 -3.10152e-36)
(0.00095062 -2.80131e-05 -4.51608e-20 -0.000232394 -4.28222e-20 -8.92389e-36)
(0.000963432 -2.95712e-05 0 -0.000262142 0 0)
(0.000975611 -3.065e-05 3.94766e-20 -0.000291083 3.95514e-20 -7.51082e-36)
(0.00160181 -0.000268682 -1.81269e-19 -0.000974608 -8.47885e-20 0)
(0.00160962 -0.000213057 -3.2337e-19 -0.000953337 -1.3164e-19 0)
(0.00164886 -0.00016699 0 -0.000962336 0 0)
(0.00166559 -0.000124211 4.10455e-20 -0.000949783 -1.09897e-20 0)
(0.00169375 -7.99917e-05 -4.89271e-19 -0.000947724 -3.40927e-19 0)
(0.00170681 -4.35078e-05 4.54151e-20 -0.000934499 6.17864e-20 0)
(0.0017202 -6.44217e-06 4.13315e-19 -0.000923302 2.72817e-19 0)
(0.00172744 2.43317e-05 -2.23145e-19 -0.000907168 -1.76174e-19 0)
(0.00173205 5.21447e-05 -1.64182e-19 -0.000891211 -1.10203e-19 0)
(0.00173415 7.41511e-05 2.72275e-20 -0.000872768 2.06772e-20 0)
(0.00173498 9.32883e-05 2.91162e-19 -0.000855278 2.13652e-19 0)
(0.00173531 0.000105752 -2.13266e-19 -0.000836817 -1.73474e-19 0)
(0.00173632 0.000114803 -7.31847e-20 -0.000820575 -3.50387e-20 0)
(0.00173877 0.000116913 9.62791e-20 -0.000804723 5.08462e-20 0)
(0.00174426 0.000115157 -2.12452e-20 -0.000792702 -1.65351e-20 0)
(0.00175314 0.000106308 -3.42812e-19 -0.000782334 -2.15524e-19 0)
(0.0017678 9.34261e-05 1.21538e-19 -0.000777813 9.73942e-20 0)
(0.00178791 7.32451e-05 6.54391e-19 -0.000776158 4.11641e-19 0)
(0.00181707 4.92045e-05 -3.35671e-20 -0.000782976 -2.56571e-20 0)
(0.00185384 1.75724e-05 -4.9504e-19 -0.000793807 -1.50716e-19 1.78012e-34)
(0.00148986 -0.000281041 -2.87125e-19 -0.000880822 -1.43959e-19 0)
(0.00152631 -0.000259003 -2.36511e-19 -0.000885144 -1.30771e-19 0)
(0.00156902 -0.000211526 4.63466e-19 -0.000891657 2.63467e-19 0)
(0.00159157 -0.000187696 -2.84687e-33 -0.000889141 -1.9162e-33 0)
(0.00161469 -0.000149173 -6.0582e-20 -0.000885146 -2.27704e-20 0)
(0.00163588 -0.000120478 -1.54472e-19 -0.000879743 -1.10095e-19 0)
(0.00164978 -8.86261e-05 2.00566e-19 -0.000870646 1.28629e-19 0)
(0.00166634 -6.15013e-05 2.74037e-19 -0.000861862 1.83957e-19 0)
(0.00167964 -3.56476e-05 -1.24219e-34 -0.000851335 -8.97175e-35 0)
(0.00168892 -1.37024e-05 -1.85185e-19 -0.00083939 -1.24011e-19 0)
(0.00169936 5.49573e-06 -3.85482e-28 -0.000827612 -2.60333e-28 0)
(0.00170957 2.05922e-05 8.07157e-20 -0.000816364 5.87978e-20 0)
(0.00172115 3.23572e-05 -8.12624e-20 -0.000806099 -5.9119e-20 0)
(0.00173471 3.98263e-05 8.19026e-20 -0.000797345 5.93511e-20 0)
(0.00175114 4.38377e-05 8.26781e-20 -0.000791233 5.95042e-20 0)
(0.00177118 4.34914e-05 -2.19892e-33 -0.00078734 -1.60848e-33 0)
(0.0017963 3.99282e-05 -5.18768e-19 -0.000788223 -3.52023e-19 0)
(0.00182655 3.21986e-05 1.55876e-33 -0.000791982 1.05655e-33 0)
(0.00186467 2.18174e-05 5.34519e-19 -0.000803127 3.55977e-19 0)