/*--------------------------------*- C++ -*----------------------------------*\
| =========                 |                                                 |
| \\      /  F ield         | OpenFOAM: The Open Source CFD Toolbox           |
|  \\    /   O peration     | Version:  v2012                                 |
|   \\  /    A nd           | Website:  www.openfoam.com                      |
|    \\/     M anipulation  |                                                 |
\*---------------------------------------------------------------------------*/
FoamFile
{
    version     2.0;
    format      ascii;
    class       pointVectorField;
    location    "6";
    object      pointD;
}
// * * * * * * * * * * * * * * * * * * * * * * * * * * * * * * * * * * * * * //

dimensions      [0 1 0 0 0 0 0];


internalField   nonuniform List<vector> 
2142
(
(0.00214794 0 -2.16139e-21)
(0.00303538 0 3.35174e-21)
(0.00279322 -0.00027881 2.20753e-21)
(0 -0.00151868 -5.27705e-22)
(0 -0.00118196 -3.96917e-21)
(0.00221478 0 0)
(0 -0.00140176 0)
(0.00131036 -0.000475477 0)
(0.000648149 -0.000886794 3.37664e-21)
(0.00294166 -8.26469e-05 -3.9724e-21)
(0.00156389 -0.000706513 3.59641e-21)
(0.00156389 -0.000706513 3.59641e-21)
(0.00131036 -0.000475477 0)
(0 -0.00140176 0)
(0 -0.00118196 -3.96917e-21)
(0.00214794 0 -2.16139e-21)
(0.00221478 0 0)
(0.00303538 0 3.35174e-21)
(0.00294166 -8.26469e-05 -3.9724e-21)
(0.00279322 -0.00027881 2.20753e-21)
(0.000648149 -0.000886794 3.37664e-21)
(0 -0.00151868 -5.27705e-22)
(0.000104824 -0.00138571 0)
(0.000212964 -0.0013393 0)
(0.000326863 -0.00126663 0)
(0.00044764 -0.00117334 0)
(0.000575838 -0.00106511 0)
(0.000710774 -0.000948282 0)
(0.000851817 -0.000827854 0)
(0.000996731 -0.000709562 0)
(0.00114475 -0.0005962 0)
(0.00146736 -0.000373936 0)
(0.00160585 -0.000291524 0)
(0.00173535 -0.000221914 0)
(0.00185378 -0.000164476 0)
(0.00195864 -0.000118369 0)
(0.00204798 -8.20528e-05 0)
(0.00211963 -5.40127e-05 0)
(0.00217213 -3.23435e-05 0)
(0.00220408 -1.50636e-05 0)
(0.0021592 0 0)
(0.00217075 0 0)
(0.00217915 0 0)
(0.00218584 0 0)
(0.0021911 0 0)
(0.00219579 0 0)
(0.00220001 0 0)
(0.00220424 0 0)
(0.00220858 0 0)
(0.00222727 0 0)
(0.00224502 0 0)
(0.00226613 0 0)
(0.00229142 0 0)
(0.00232006 0 0)
(0.00235238 0 0)
(0.00238796 0 0)
(0.00242663 0 0)
(0.00246831 0 0)
(0.00251258 0 0)
(0.00255949 0 0)
(0.00260854 0 0)
(0.00265974 0 0)
(0.00271264 0 0)
(0.00276712 0 0)
(0.00282276 0 0)
(0.00287926 0 0)
(0.00293618 0 0)
(0.00299297 0 0)
(0.00304782 -4.12717e-06 1.87551e-21)
(0.00304383 -8.55572e-06 -1.67212e-21)
(0.00303732 -1.35815e-05 -2.60286e-21)
(0.0030284 -1.94762e-05 8.71282e-22)
(0.00301732 -2.6499e-05 1.58129e-21)
(0.00300429 -3.48556e-05 -6.33345e-22)
(0.00298967 -4.47465e-05 4.10441e-21)
(0.00297374 -5.62743e-05 3.10805e-21)
(0.0029569 -6.95725e-05 -2.8573e-21)
(0.00293167 -9.18623e-05 -3.05208e-21)
(0.00292384 -9.95275e-05 -2.52658e-22)
(0.00291603 -0.00010748 7.04078e-21)
(0.00290821 -0.000115813 5.50875e-21)
(0.00290055 -0.000124798 -3.33233e-21)
(0.0028934 -0.000133963 8.67025e-23)
(0.00288609 -0.000142953 3.44115e-21)
(0.0028788 -0.000152465 -3.34027e-21)
(0.00287183 -0.000162343 -3.11125e-21)
(0.00286502 -0.000172369 8.62209e-21)
(0.00285847 -0.000182634 8.1322e-21)
(0.00285216 -0.000193041 -1.73045e-21)
(0.0028461 -0.000203603 -1.42e-21)
(0.00284028 -0.000214257 -1.30192e-21)
(0.0028347 -0.000224987 5.04178e-22)
(0.00282933 -0.000235737 3.61363e-21)
(0.00282416 -0.000246477 3.61541e-21)
(0.00281912 -0.000257145 1.80788e-21)
(0.00281417 -0.00026769 2.46199e-21)
(0.00273279 -0.000293831 2.36316e-22)
(0.00265662 -0.00030861 -8.80155e-22)
(0.00257992 -0.0003211 -7.04726e-22)
(0.00250147 -0.000331256 1.83043e-21)
(0.00242049 -0.00033932 8.81588e-22)
(0.00233616 -0.000345849 8.10894e-22)
(0.00224785 -0.000351648 7.69281e-22)
(0.00215496 -0.000357485 -4.16129e-23)
(0.00205698 -0.000364454 -9.76631e-22)
(0.00195344 -0.00037357 -7.91975e-22)
(0.00184398 -0.000386208 2.37732e-21)
(0.00172831 -0.000403731 2.37039e-21)
(0.00160639 -0.000427691 1.77717e-22)
(0.00147845 -0.00045949 -6.21686e-22)
(0.00134478 -0.000501031 -6.21686e-22)
(0.00120646 -0.000553572 4.90533e-22)
(0.00106459 -0.000618751 4.90533e-22)
(0.000921402 -0.000696974 -1.4186e-21)
(0.000779021 -0.000788826 2.12067e-21)
(0.000546957 -0.0009734 -8.4434e-22)
(0.000458187 -0.00105754 -8.4848e-22)
(0.000375335 -0.00114259 -6.42748e-25)
(0.00030011 -0.00122643 -2.2551e-21)
(0.00023287 -0.00130517 -2.29897e-21)
(0.000173609 -0.00137648 4.75213e-22)
(0.000122281 -0.00143614 -2.30056e-22)
(7.73288e-05 -0.00148167 -1.81419e-21)
(3.74137e-05 -0.00151001 -1.62876e-21)
(0 -0.0015157 0)
(0 -0.00151129 0)
(0 -0.00150651 0)
(0 -0.00150146 0)
(0 -0.00149614 0)
(0 -0.00149063 0)
(0 -0.00148492 0)
(0 -0.00147907 0)
(0 -0.00147308 0)
(0 -0.00146701 0)
(0 -0.00146084 0)
(0 -0.00145461 0)
(0 -0.00144832 0)
(0 -0.00144199 0)
(0 -0.00143561 0)
(0 -0.00142921 0)
(0 -0.00142276 0)
(0 -0.00141629 0)
(0 -0.00140975 0)
(0 -0.00139018 0)
(0 -0.00137695 0)
(0 -0.00136273 0)
(0 -0.00134794 0)
(0 -0.00133097 0)
(0 -0.00131256 0)
(0 -0.0012896 0)
(0 -0.00126277 0)
(0 -0.00122391 0)
(0.00143284 -0.000376674 0)
(0.00153759 -0.000302043 0)
(0.00163657 -0.000245325 0)
(0.00172875 -0.000202552 0)
(0.00181615 -0.000172382 0)
(0.00189926 -0.000151271 0)
(0.00197952 -0.000137957 0)
(0.00205741 -0.000130115 0)
(0.00213388 -0.00012668 0)
(0.0022092 -0.000126063 0)
(0.00228391 -0.000127413 0)
(0.00235812 -0.000129552 0)
(0.00243204 -0.000131796 0)
(0.00250576 -0.000133241 0)
(0.00257927 -0.00013326 0)
(0.00265248 -0.000130996 0)
(0.0027254 -0.000125863 0)
(0.00279791 -0.000116768 0)
(0.00287006 -0.000102976 0)
(0.00124912 -0.000507931 0)
(0.00120903 -0.00052998 0)
(0.00117033 -0.000552298 0)
(0.00113362 -0.000574341 0)
(0.00109842 -0.000596425 0)
(0.00106478 -0.000618177 0)
(0.0010325 -0.000639734 0)
(0.00100144 -0.000660889 0)
(0.000971418 -0.000681697 0)
(0.000942228 -0.000702046 0)
(0.000913696 -0.000721979 0)
(0.000885578 -0.000741446 0)
(0.000857686 -0.000760503 0)
(0.000829752 -0.000779146 0)
(0.000801577 -0.00079746 0)
(0.000772876 -0.00081548 0)
(0.000743444 -0.00083333 0)
(0.000712976 -0.000851081 0)
(0.000681268 -0.000868913 0)
(0.000197964 -0.00116289 -4.05298e-21)
(0.00038457 -0.00114958 -3.91382e-21)
(0.00055685 -0.00112137 -4.03465e-21)
(0.000720835 -0.00108041 5.28041e-22)
(0.000880493 -0.00103005 2.41568e-21)
(0.00103413 -0.000973352 -7.02205e-21)
(0.00118032 -0.000911134 -1.01198e-20)
(0.00131755 -0.0008453 5.2089e-21)
(0.00144583 -0.000776795 1.01472e-20)
(0.00167196 -0.000635795 2.29412e-22)
(0.00176972 -0.000564136 -2.90756e-21)
(0.00185634 -0.000492687 -3.13991e-22)
(0.00193213 -0.000421244 -7.45234e-22)
(0.00199635 -0.000350226 -2.84882e-21)
(0.00204926 -0.000279571 -7.14778e-23)
(0.00209044 -0.000209307 -3.07082e-21)
(0.00212001 -0.000139354 -4.47921e-22)
(0.00213773 -6.96202e-05 -3.86014e-22)
(0.0015057 -0.000659738 0)
(0.00145856 -0.00062248 0)
(0.00141992 -0.000592138 0)
(0.00138872 -0.000567531 0)
(0.00136336 -0.000547154 0)
(0.00134325 -0.000530394 0)
(0.00132718 -0.00051629 0)
(0.00131501 -0.000504547 0)
(0.00130555 -0.000494534 0)
(0.0015057 -0.000659738 0)
(0.00145856 -0.00062248 0)
(0.00141992 -0.000592138 0)
(0.00138872 -0.000567531 0)
(0.00136336 -0.000547154 0)
(0.00134325 -0.000530394 0)
(0.00132718 -0.00051629 0)
(0.00131501 -0.000504547 0)
(0.00130555 -0.000494534 0)
(0.00114475 -0.0005962 0)
(0.000996731 -0.000709562 0)
(0.000851817 -0.000827854 0)
(0.000710774 -0.000948282 0)
(0.000575838 -0.00106511 0)
(0.00044764 -0.00117334 0)
(0.000326863 -0.00126663 0)
(0.000212964 -0.0013393 0)
(0.000104824 -0.00138571 0)
(0 -0.00139018 0)
(0 -0.00137695 0)
(0 -0.00136273 0)
(0 -0.00134794 0)
(0 -0.00133097 0)
(0 -0.00131256 0)
(0 -0.0012896 0)
(0 -0.00126277 0)
(0 -0.00122391 0)
(0.000197964 -0.00116289 -4.05298e-21)
(0.00038457 -0.00114958 -3.91382e-21)
(0.00055685 -0.00112137 -4.03465e-21)
(0.000720835 -0.00108041 5.28041e-22)
(0.000880493 -0.00103005 2.41568e-21)
(0.00103413 -0.000973352 -7.02205e-21)
(0.00118032 -0.000911134 -1.01198e-20)
(0.00131755 -0.0008453 5.2089e-21)
(0.00144583 -0.000776795 1.01472e-20)
(0.00167196 -0.000635795 2.29412e-22)
(0.00176972 -0.000564136 -2.90756e-21)
(0.00185634 -0.000492687 -3.13991e-22)
(0.00193213 -0.000421244 -7.45234e-22)
(0.00199635 -0.000350226 -2.84882e-21)
(0.00204926 -0.000279571 -7.14778e-23)
(0.00209044 -0.000209307 -3.07082e-21)
(0.00212001 -0.000139354 -4.47921e-22)
(0.00213773 -6.96202e-05 -3.86014e-22)
(0.0021592 0 0)
(0.00217075 0 0)
(0.00217915 0 0)
(0.00218584 0 0)
(0.0021911 0 0)
(0.00219579 0 0)
(0.00220001 0 0)
(0.00220424 0 0)
(0.00220858 0 0)
(0.00220408 -1.50636e-05 0)
(0.00217213 -3.23435e-05 0)
(0.00211963 -5.40127e-05 0)
(0.00204798 -8.20528e-05 0)
(0.00195864 -0.000118369 0)
(0.00185378 -0.000164476 0)
(0.00173535 -0.000221914 0)
(0.00160585 -0.000291524 0)
(0.00146736 -0.000373936 0)
(0.00222727 0 0)
(0.00224502 0 0)
(0.00226613 0 0)
(0.00229142 0 0)
(0.00232006 0 0)
(0.00235238 0 0)
(0.00238796 0 0)
(0.00242663 0 0)
(0.00246831 0 0)
(0.00251258 0 0)
(0.00255949 0 0)
(0.00260854 0 0)
(0.00265974 0 0)
(0.00271264 0 0)
(0.00276712 0 0)
(0.00282276 0 0)
(0.00287926 0 0)
(0.00293618 0 0)
(0.00299297 0 0)
(0.00304782 -4.12717e-06 1.87551e-21)
(0.00304383 -8.55572e-06 -1.67212e-21)
(0.00303732 -1.35815e-05 -2.60286e-21)
(0.0030284 -1.94762e-05 8.71282e-22)
(0.00301732 -2.6499e-05 1.58129e-21)
(0.00300429 -3.48556e-05 -6.33345e-22)
(0.00298967 -4.47465e-05 4.10441e-21)
(0.00297374 -5.62743e-05 3.10805e-21)
(0.0029569 -6.95725e-05 -2.8573e-21)
(0.00287006 -0.000102976 0)
(0.00279791 -0.000116768 0)
(0.0027254 -0.000125863 0)
(0.00265248 -0.000130996 0)
(0.00257927 -0.00013326 0)
(0.00250576 -0.000133241 0)
(0.00243204 -0.000131796 0)
(0.00235812 -0.000129552 0)
(0.00228391 -0.000127413 0)
(0.0022092 -0.000126063 0)
(0.00213388 -0.00012668 0)
(0.00205741 -0.000130115 0)
(0.00197952 -0.000137957 0)
(0.00189926 -0.000151271 0)
(0.00181615 -0.000172382 0)
(0.00172875 -0.000202552 0)
(0.00163657 -0.000245325 0)
(0.00153759 -0.000302043 0)
(0.00143284 -0.000376674 0)
(0.00293167 -9.18623e-05 -3.05208e-21)
(0.00292384 -9.95275e-05 -2.52658e-22)
(0.00291603 -0.00010748 7.04078e-21)
(0.00290821 -0.000115813 5.50875e-21)
(0.00290055 -0.000124798 -3.33233e-21)
(0.0028934 -0.000133963 8.67025e-23)
(0.00288609 -0.000142953 3.44115e-21)
(0.0028788 -0.000152465 -3.34027e-21)
(0.00287183 -0.000162343 -3.11125e-21)
(0.00286502 -0.000172369 8.62209e-21)
(0.00285847 -0.000182634 8.1322e-21)
(0.00285216 -0.000193041 -1.73045e-21)
(0.0028461 -0.000203603 -1.42e-21)
(0.00284028 -0.000214257 -1.30192e-21)
(0.0028347 -0.000224987 5.04178e-22)
(0.00282933 -0.000235737 3.61363e-21)
(0.00282416 -0.000246477 3.61541e-21)
(0.00281912 -0.000257145 1.80788e-21)
(0.00281417 -0.00026769 2.46199e-21)
(0.00273279 -0.000293831 2.36316e-22)
(0.00265662 -0.00030861 -8.80155e-22)
(0.00257992 -0.0003211 -7.04726e-22)
(0.00250147 -0.000331256 1.83043e-21)
(0.00242049 -0.00033932 8.81588e-22)
(0.00233616 -0.000345849 8.10894e-22)
(0.00224785 -0.000351648 7.69281e-22)
(0.00215496 -0.000357485 -4.16129e-23)
(0.00205698 -0.000364454 -9.76631e-22)
(0.00195344 -0.00037357 -7.91975e-22)
(0.00184398 -0.000386208 2.37732e-21)
(0.00172831 -0.000403731 2.37039e-21)
(0.00160639 -0.000427691 1.77717e-22)
(0.00147845 -0.00045949 -6.21686e-22)
(0.00134478 -0.000501031 -6.21686e-22)
(0.00120646 -0.000553572 4.90533e-22)
(0.00106459 -0.000618751 4.90533e-22)
(0.000921402 -0.000696974 -1.4186e-21)
(0.000779021 -0.000788826 2.12067e-21)
(0.000681268 -0.000868913 0)
(0.000712976 -0.000851081 0)
(0.000743444 -0.00083333 0)
(0.000772876 -0.00081548 0)
(0.000801577 -0.00079746 0)
(0.000829752 -0.000779146 0)
(0.000857686 -0.000760503 0)
(0.000885578 -0.000741446 0)
(0.000913696 -0.000721979 0)
(0.000942228 -0.000702046 0)
(0.000971418 -0.000681697 0)
(0.00100144 -0.000660889 0)
(0.0010325 -0.000639734 0)
(0.00106478 -0.000618177 0)
(0.00109842 -0.000596425 0)
(0.00113362 -0.000574341 0)
(0.00117033 -0.000552298 0)
(0.00120903 -0.00052998 0)
(0.00124912 -0.000507931 0)
(0.000546957 -0.0009734 -8.4434e-22)
(0.000458187 -0.00105754 -8.4848e-22)
(0.000375335 -0.00114259 -6.42748e-25)
(0.00030011 -0.00122643 -2.2551e-21)
(0.00023287 -0.00130517 -2.29897e-21)
(0.000173609 -0.00137648 4.75213e-22)
(0.000122281 -0.00143614 -2.30056e-22)
(7.73288e-05 -0.00148167 -1.81419e-21)
(3.74137e-05 -0.00151001 -1.62876e-21)
(0 -0.0015157 0)
(0 -0.00151129 0)
(0 -0.00150651 0)
(0 -0.00150146 0)
(0 -0.00149614 0)
(0 -0.00149063 0)
(0 -0.00148492 0)
(0 -0.00147907 0)
(0 -0.00147308 0)
(0 -0.00146701 0)
(0 -0.00146084 0)
(0 -0.00145461 0)
(0 -0.00144832 0)
(0 -0.00144199 0)
(0 -0.00143561 0)
(0 -0.00142921 0)
(0 -0.00142276 0)
(0 -0.00141629 0)
(0 -0.00140975 0)
(0.000175948 -0.00121544 0)
(0.000156199 -0.00125097 0)
(0.000142009 -0.00127656 0)
(0.000131673 -0.00129882 0)
(0.000124039 -0.00131678 0)
(0.00011832 -0.00133332 0)
(0.000113818 -0.00134775 0)
(0.000110325 -0.00136158 0)
(0.000107394 -0.00137441 0)
(0.000343759 -0.00118947 0)
(0.00030897 -0.00121804 0)
(0.000283949 -0.00124055 0)
(0.000264926 -0.00126033 0)
(0.000250431 -0.00127672 0)
(0.000239387 -0.00129168 0)
(0.000230623 -0.00130485 0)
(0.000223762 -0.00131733 0)
(0.000218047 -0.00132887 0)
(0.000503364 -0.00114792 0)
(0.000459415 -0.00116908 0)
(0.000426314 -0.00118684 0)
(0.000400515 -0.00120234 0)
(0.000380341 -0.00121559 0)
(0.000364691 -0.00122764 0)
(0.000352218 -0.00123832 0)
(0.000342363 -0.00124842 0)
(0.000334244 -0.00125769 0)
(0.000658564 -0.00109545 0)
(0.000608584 -0.00110845 0)
(0.000569303 -0.00111957 0)
(0.000538341 -0.00112949 0)
(0.000513804 -0.00113812 0)
(0.000494526 -0.00114615 0)
(0.000479139 -0.00115329 0)
(0.000466921 -0.00116015 0)
(0.000456974 -0.00116637 0)
(0.000811473 -0.00103381 0)
(0.000756746 -0.00103768 0)
(0.00071312 -0.00104111 0)
(0.000678519 -0.00104469 0)
(0.000650918 -0.00104793 0)
(0.00062909 -0.00105132 0)
(0.000611667 -0.00105436 0)
(0.000597827 -0.00105753 0)
(0.000586701 -0.00106033 0)
(0.000961262 -0.000965156 0)
(0.000903598 -0.000959422 0)
(0.00085741 -0.000954901 0)
(0.000820663 -0.000951901 0)
(0.000791244 -0.000949518 0)
(0.000767906 -0.000948104 0)
(0.000749299 -0.000946903 0)
(0.000734547 -0.000946305 0)
(0.00072284 -0.000945649 0)
(0.00110692 -0.000891222 0)
(0.00104865 -0.000876056 0)
(0.00100178 -0.000863781 0)
(0.000964354 -0.000854337 0)
(0.000934325 -0.000846492 0)
(0.000910453 -0.00084042 0)
(0.000891463 -0.000835153 0)
(0.000876468 -0.000831007 0)
(0.000864718 -0.00082716 0)
(0.00124674 -0.000814696 0)
(0.0011902 -0.000790843 0)
(0.0011445 -0.000771459 0)
(0.00110786 -0.000756095 0)
(0.00107838 -0.000743292 0)
(0.00105492 -0.00073302 0)
(0.00103628 -0.000724155 0)
(0.00102164 -0.000716932 0)
(0.0010103 -0.000710377 0)
(0.00138023 -0.000737057 0)
(0.00132749 -0.000705696 0)
(0.00128463 -0.000680166 0)
(0.00125012 -0.000659647 0)
(0.00122228 -0.000642566 0)
(0.00120011 -0.000628646 0)
(0.00118254 -0.000616743 0)
(0.00116885 -0.000606911 0)
(0.0011584 -0.000598232 0)
(0.00162259 -0.000584135 0)
(0.00158235 -0.000542786 0)
(0.00154902 -0.000509101 0)
(0.00152208 -0.000481676 0)
(0.00149993 -0.000459013 0)
(0.00148254 -0.000440334 0)
(0.0014684 -0.000424668 0)
(0.00145808 -0.000411626 0)
(0.00144972 -0.000400457 0)
(0.00173022 -0.000510037 0)
(0.00169778 -0.000466585 0)
(0.00167058 -0.000431104 0)
(0.00164859 -0.000402135 0)
(0.00163036 -0.000378129 0)
(0.0016162 -0.000358323 0)
(0.00160461 -0.000341589 0)
(0.00159643 -0.000327697 0)
(0.00158974 -0.000315518 0)
(0.00182714 -0.000438642 0)
(0.00180288 -0.000395097 0)
(0.00178217 -0.000359456 0)
(0.00176542 -0.000330291 0)
(0.00175136 -0.000306073 0)
(0.00174062 -0.000286084 0)
(0.00173179 -0.000269152 0)
(0.00172586 -0.000255149 0)
(0.00172107 -0.00024284 0)
(0.00191308 -0.000369651 0)
(0.00189692 -0.000328011 0)
(0.00188271 -0.00029385 0)
(0.00187119 -0.000265881 0)
(0.00186136 -0.000242606 0)
(0.00185402 -0.000223428 0)
(0.00184798 -0.000207155 0)
(0.00184426 -0.000193779 0)
(0.00184138 -0.000182041 0)
(0.00198686 -0.000303377 0)
(0.00197834 -0.00026551 0)
(0.00197031 -0.000234383 0)
(0.00196376 -0.00020889 0)
(0.00195801 -0.000187644 0)
(0.00195392 -0.000170175 0)
(0.00195061 -0.000155343 0)
(0.00194901 -0.000143227 0)
(0.00194803 -0.000132613 0)
(0.00204822 -0.000239458 0)
(0.00204648 -0.000207014 0)
(0.00204397 -0.000180302 0)
(0.00204186 -0.000158431 0)
(0.00203977 -0.000140185 0)
(0.00203861 -0.000125212 0)
(0.00203779 -0.0001125 0)
(0.00203811 -0.000102167 0)
(0.00203888 -9.31391e-05 0)
(0.00209641 -0.000177653 0)
(0.00210029 -0.000152039 0)
(0.00210238 -0.000130926 0)
(0.00210398 -0.000113644 0)
(0.00210498 -9.92144e-05 0)
(0.00210627 -8.73937e-05 0)
(0.00210756 -7.73562e-05 0)
(0.00210951 -6.92289e-05 0)
(0.00211176 -6.21357e-05 0)
(0.0021312 -0.00011748 0)
(0.00213928 -9.97777e-05 0)
(0.00214482 -8.51744e-05 0)
(0.0021492 -7.32239e-05 0)
(0.00215252 -6.32417e-05 0)
(0.00215567 -5.50743e-05 0)
(0.00215855 -4.81398e-05 0)
(0.00216175 -4.25402e-05 0)
(0.00216514 -3.76585e-05 0)
(0.00215215 -5.84514e-05 0)
(0.00216283 -4.94121e-05 0)
(0.00217051 -4.19518e-05 0)
(0.00217662 -3.58478e-05 0)
(0.00218138 -3.07476e-05 0)
(0.00218568 -2.65775e-05 0)
(0.00218956 -2.30366e-05 0)
(0.00219353 -2.01816e-05 0)
(0.00219763 -1.76932e-05 0)
(0.00221764 -1.17394e-05 0)
(0.00218889 -2.53751e-05 0)
(0.00214157 -4.27379e-05 0)
(0.00207687 -6.55606e-05 0)
(0.00199598 -9.53486e-05 0)
(0.0019008 -0.000133543 0)
(0.00179303 -0.000180993 0)
(0.00167487 -0.000239262 0)
(0.00154848 -0.000307769 0)
(0.00223659 -8.94017e-06 0)
(0.00221139 -1.94318e-05 0)
(0.00216982 -3.29215e-05 0)
(0.00211287 -5.0954e-05 0)
(0.0020414 -7.46432e-05 0)
(0.00195691 -0.000105527 0)
(0.00186079 -0.000143856 0)
(0.00175475 -0.000191454 0)
(0.00164113 -0.000246853 0)
(0.00225874 -7.65573e-06 0)
(0.00223657 -1.65185e-05 0)
(0.00219998 -2.76264e-05 0)
(0.00214982 -4.22974e-05 0)
(0.00208682 -6.12161e-05 0)
(0.00201216 -8.59519e-05 0)
(0.00192704 -0.000116492 0)
(0.00183245 -0.000154939 0)
(0.00173032 -0.000200055 0)
(0.00228488 -7.00422e-06 0)
(0.00226517 -1.49955e-05 0)
(0.00223264 -2.47393e-05 0)
(0.00218794 -3.7385e-05 0)
(0.00213176 -5.32953e-05 0)
(0.002065 -7.3848e-05 0)
(0.00198891 -9.87807e-05 0)
(0.00190423 -0.000129832 0)
(0.00181276 -0.000166213 0)
(0.00231426 -6.84911e-06 0)
(0.00229674 -1.44716e-05 0)
(0.00226785 -2.34095e-05 0)
(0.00222807 -3.46423e-05 0)
(0.00217809 -4.83825e-05 0)
(0.00211851 -6.58336e-05 0)
(0.00205046 -8.67773e-05 0)
(0.00197442 -0.00011252 0)
(0.00189194 -0.000142556 0)
(0.0023472 -7.11954e-06 0)
(0.00233143 -1.48549e-05 0)
(0.00230544 -2.35997e-05 0)
(0.00226963 -3.4143e-05 0)
(0.00222469 -4.65947e-05 0)
(0.0021711 -6.18834e-05 0)
(0.00210996 -7.98672e-05 0)
(0.00204166 -0.000101488 0)
(0.0019675 -0.000126557 0)
(0.00238333 -7.52174e-06 0)
(0.00236915 -1.55333e-05 0)
(0.00234582 -2.43391e-05 0)
(0.00231362 -3.45731e-05 0)
(0.0022732 -4.63301e-05 0)
(0.00222492 -6.03066e-05 0)
(0.00216977 -7.64345e-05 0)
(0.00210812 -9.53114e-05 0)
(0.00204112 -0.000116881 0)
(0.00242246 -8.14695e-06 0)
(0.00240958 -1.66771e-05 0)
(0.00238844 -2.58306e-05 0)
(0.00235925 -3.60887e-05 0)
(0.00232267 -4.75465e-05 0)
(0.00227901 -6.07015e-05 0)
(0.00222918 -7.55726e-05 0)
(0.00217351 -9.25426e-05 0)
(0.00211303 -0.000111653 0)
(0.00246455 -8.77746e-06 0)
(0.00245287 -1.78671e-05 0)
(0.00243372 -2.74782e-05 0)
(0.00240725 -3.79805e-05 0)
(0.00237408 -4.94792e-05 0)
(0.00233449 -6.23179e-05 0)
(0.00228931 -7.65472e-05 0)
(0.00223888 -9.23939e-05 0)
(0.00218414 -0.000109922 0)
(0.00250917 -9.459e-06 0)
(0.00249852 -1.91695e-05 0)
(0.00248107 -2.93152e-05 0)
(0.00245697 -4.01768e-05 0)
(0.0024268 -5.18719e-05 0)
(0.00239085 -6.46413e-05 0)
(0.00234986 -7.8571e-05 0)
(0.00230416 -9.37897e-05 0)
(0.00225462 -0.000110383 0)
(0.00255638 -1.00709e-05 0)
(0.00254666 -2.03584e-05 0)
(0.00253076 -3.10354e-05 0)
(0.0025088 -4.23229e-05 0)
(0.00248132 -5.43442e-05 0)
(0.00244859 -6.72671e-05 0)
(0.00241133 -8.11854e-05 0)
(0.00236984 -9.61703e-05 0)
(0.00232497 -0.0001123 0)
(0.0026057 -1.06011e-05 0)
(0.00259682 -2.13925e-05 0)
(0.00258229 -3.25381e-05 0)
(0.00256225 -4.42216e-05 0)
(0.00253719 -5.65693e-05 0)
(0.00250739 -6.97146e-05 0)
(0.00247351 -8.375e-05 0)
(0.00243586 -9.87262e-05 0)
(0.00239523 -0.000114706 0)
(0.00265715 -1.09831e-05 0)
(0.00264903 -2.2146e-05 0)
(0.00263574 -3.36494e-05 0)
(0.00261744 -4.56588e-05 0)
(0.00259457 -5.8297e-05 0)
(0.00256741 -7.16813e-05 0)
(0.00253658 -8.58939e-05 0)
(0.00250239 -0.000100981 0)
(0.00246556 -0.000116995 0)
(0.00271027 -1.11676e-05 0)
(0.00270284 -2.25113e-05 0)
(0.0026907 -3.41942e-05 0)
(0.00267398 -4.6373e-05 0)
(0.00265312 -5.91763e-05 0)
(0.00262838 -7.27101e-05 0)
(0.00260034 -8.70613e-05 0)
(0.00256933 -0.000102266 0)
(0.002536 -0.000118378 0)
(0.00276495 -1.11076e-05 0)
(0.00275817 -2.23968e-05 0)
(0.00274708 -3.40386e-05 0)
(0.00273182 -4.61906e-05 0)
(0.00271279 -5.89874e-05 0)
(0.00269027 -7.25334e-05 0)
(0.00266478 -8.69167e-05 0)
(0.00263667 -0.000102172 0)
(0.00260653 -0.000118349 0)
(0.00282077 -1.0718e-05 0)
(0.00281459 -2.16295e-05 0)
(0.00280448 -3.2919e-05 0)
(0.00279058 -4.4753e-05 0)
(0.00277327 -5.72777e-05 0)
(0.0027528 -7.06035e-05 0)
(0.00272968 -8.48226e-05 0)
(0.00270424 -9.9976e-05 0)
(0.00267704 -0.000116103 0)
(0.00287745 -9.95003e-06 0)
(0.00287183 -2.01117e-05 0)
(0.00286265 -3.06886e-05 0)
(0.00285004 -4.18626e-05 0)
(0.00283434 -5.37956e-05 0)
(0.0028158 -6.66099e-05 0)
(0.00279489 -8.04052e-05 0)
(0.00277193 -9.5232e-05 0)
(0.00274746 -0.000111123 0)
(0.00293454 -8.66498e-06 0)
(0.00292948 -1.75659e-05 0)
(0.0029212 -2.6932e-05 0)
(0.00290982 -3.6967e-05 0)
(0.00289567 -4.78588e-05 0)
(0.00287898 -5.97456e-05 0)
(0.00286017 -7.27526e-05 0)
(0.00283956 -8.69316e-05 0)
(0.00281765 -0.000102343 0)
(0.0029915 -6.79481e-06 0)
(0.00298698 -1.3855e-05 0)
(0.0029796 -2.14411e-05 0)
(0.00296946 -2.97852e-05 0)
(0.00295684 -3.91093e-05 0)
(0.00294198 -4.95759e-05 0)
(0.00292525 -6.1347e-05 0)
(0.00290695 -7.44853e-05 0)
(0.00288754 -8.90883e-05 0)
(0.00137281 -0.000411117 0)
(0.00133354 -0.000432565 0)
(0.00129555 -0.000454372 0)
(0.00125927 -0.000475855 0)
(0.0012245 -0.000497282 0)
(0.00119089 -0.000518499 0)
(0.00115854 -0.000539488 0)
(0.0011272 -0.000560191 0)
(0.0010968 -0.00058059 0)
(0.00106718 -0.000600637 0)
(0.00103822 -0.000620347 0)
(0.00100973 -0.000639712 0)
(0.000981581 -0.000658772 0)
(0.000953568 -0.000677548 0)
(0.000925549 -0.000696116 0)
(0.000897322 -0.000714522 0)
(0.00086874 -0.000732891 0)
(0.000839599 -0.00075129 0)
(0.00080976 -0.000769906 0)
(0.00148359 -0.000332392 0)
(0.00144704 -0.000352235 0)
(0.00141145 -0.000372427 0)
(0.00137707 -0.000392432 0)
(0.00134393 -0.000412421 0)
(0.00131161 -0.000432295 0)
(0.00128038 -0.000452055 0)
(0.00125014 -0.000471553 0)
(0.00122057 -0.00049097 0)
(0.00119167 -0.00051016 0)
(0.00116347 -0.000529161 0)
(0.00113578 -0.00054795 0)
(0.00110856 -0.000566579 0)
(0.00108164 -0.000585055 0)
(0.00105497 -0.00060346 0)
(0.0010284 -0.000621823 0)
(0.00100185 -0.000640268 0)
(0.000975221 -0.000658842 0)
(0.000948428 -0.000677723 0)
(0.00158672 -0.000271665 0)
(0.00155289 -0.000289594 0)
(0.00151999 -0.000307823 0)
(0.00148782 -0.000326079 0)
(0.00145656 -0.00034448 0)
(0.00142603 -0.000362823 0)
(0.00139638 -0.000381226 0)
(0.00136764 -0.000399437 0)
(0.00133949 -0.00041771 0)
(0.00131197 -0.000435869 0)
(0.00128514 -0.000453992 0)
(0.00125887 -0.00047201 0)
(0.00123317 -0.000490014 0)
(0.00120794 -0.000507966 0)
(0.00118316 -0.000525978 0)
(0.00115878 -0.000544038 0)
(0.00113475 -0.000562284 0)
(0.00111105 -0.000580726 0)
(0.00108766 -0.00059954 0)
(0.00168366 -0.00022534 0)
(0.0016528 -0.0002414 0)
(0.00162256 -0.00025784 0)
(0.00159285 -0.000274378 0)
(0.00156384 -0.000291171 0)
(0.00153542 -0.000308005 0)
(0.0015077 -0.000325008 0)
(0.00148064 -0.000342007 0)
(0.00145426 -0.000359104 0)
(0.00142852 -0.000376194 0)
(0.00140345 -0.000393368 0)
(0.00137901 -0.000410543 0)
(0.00135521 -0.000427818 0)
(0.00133203 -0.000445139 0)
(0.00130947 -0.000462616 0)
(0.00128755 -0.000480219 0)
(0.00126625 -0.000498077 0)
(0.00124562 -0.000516178 0)
(0.00122566 -0.000534677 0)
(0.00177522 -0.000191945 0)
(0.00174715 -0.000206335 0)
(0.00171954 -0.000221131 0)
(0.00169231 -0.000236108 0)
(0.00166562 -0.000251402 0)
(0.00163943 -0.000266825 0)
(0.00161385 -0.000282494 0)
(0.00158886 -0.00029826 0)
(0.00156449 -0.000314219 0)
(0.00154076 -0.000330264 0)
(0.0015177 -0.000346481 0)
(0.00149532 -0.000362794 0)
(0.00147366 -0.000379286 0)
(0.00145272 -0.000395908 0)
(0.00143255 -0.000412748 0)
(0.00141319 -0.000429776 0)
(0.00139466 -0.000447094 0)
(0.00137704 -0.000464683 0)
(0.00136038 -0.000482668 0)
(0.0018624 -0.000168355 0)
(0.00183709 -0.00018134 0)
(0.00181206 -0.000194745 0)
(0.00178734 -0.000208393 0)
(0.00176304 -0.000222395 0)
(0.00173916 -0.000236599 0)
(0.0017158 -0.0002511 0)
(0.00169296 -0.000265774 0)
(0.00167073 -0.000280701 0)
(0.00164911 -0.000295792 0)
(0.00162818 -0.000311114 0)
(0.00160795 -0.000326604 0)
(0.00158849 -0.000342326 0)
(0.00156984 -0.000358235 0)
(0.00155205 -0.000374402 0)
(0.00153518 -0.000390792 0)
(0.0015193 -0.000407487 0)
(0.0015045 -0.000424457 0)
(0.00149084 -0.000441802 0)
(0.00194626 -0.000153029 0)
(0.00192349 -0.000164882 0)
(0.0019009 -0.000177151 0)
(0.00187856 -0.000189702 0)
(0.00185656 -0.000202621 0)
(0.00183493 -0.000215792 0)
(0.00181376 -0.000229286 0)
(0.00179309 -0.00024301 0)
(0.00177299 -0.000257025 0)
(0.00175349 -0.000271255 0)
(0.00173467 -0.000285757 0)
(0.00171658 -0.00030047 0)
(0.00169928 -0.000315451 0)
(0.00168284 -0.000330652 0)
(0.00166731 -0.000346129 0)
(0.00165279 -0.000361846 0)
(0.00163933 -0.00037786 0)
(0.00162706 -0.000394144 0)
(0.00161603 -0.000410766 0)
(0.00202753 -0.000143741 0)
(0.00200712 -0.000154714 0)
(0.00198682 -0.000166088 0)
(0.00196674 -0.00017777 0)
(0.00194693 -0.000189819 0)
(0.00192746 -0.00020215 0)
(0.0019084 -0.000214814 0)
(0.00188981 -0.000227742 0)
(0.00187175 -0.000240975 0)
(0.00185429 -0.000254458 0)
(0.0018375 -0.000268227 0)
(0.00182143 -0.000282238 0)
(0.00180616 -0.000296524 0)
(0.00179175 -0.000311051 0)
(0.0017783 -0.000325848 0)
(0.00176586 -0.000340894 0)
(0.00175454 -0.000356209 0)
(0.00174451 -0.000371746 0)
(0.00173571 -0.000387606 0)
(0.00210698 -0.000139227 0)
(0.00208869 -0.000149533 0)
(0.00207045 -0.000160217 0)
(0.00205243 -0.000171217 0)
(0.00203462 -0.00018257 0)
(0.00201714 -0.000194221 0)
(0.00200003 -0.0002062 0)
(0.00198336 -0.000218459 0)
(0.00196721 -0.000231023 0)
(0.00195163 -0.000243853 0)
(0.00193669 -0.000256968 0)
(0.00192247 -0.000270338 0)
(0.00190904 -0.000283976 0)
(0.00189647 -0.00029786 0)
(0.00188485 -0.000312001 0)
(0.00187423 -0.000326379 0)
(0.00186475 -0.000341006 0)
(0.00185654 -0.000355818 0)
(0.00184955 -0.000370906 0)
(0.00218502 -0.000137887 0)
(0.00216863 -0.0001477 0)
(0.00215226 -0.000157862 0)
(0.00213609 -0.000168336 0)
(0.0021201 -0.000179146 0)
(0.00210442 -0.000190254 0)
(0.00208908 -0.000201679 0)
(0.00207416 -0.000213385 0)
(0.00205971 -0.000225389 0)
(0.00204582 -0.000237659 0)
(0.00203255 -0.000250207 0)
(0.00201997 -0.000263004 0)
(0.00200815 -0.00027606 0)
(0.00199717 -0.000289348 0)
(0.00198709 -0.000302877 0)
(0.00197803 -0.000316616 0)
(0.00197003 -0.00033058 0)
(0.00196322 -0.000344725 0)
(0.00195764 -0.000359069 0)
(0.00226214 -0.000138737 0)
(0.00224741 -0.000148177 0)
(0.00223265 -0.00015794 0)
(0.00221811 -0.000168004 0)
(0.00220372 -0.000178383 0)
(0.00218962 -0.000189051 0)
(0.00217583 -0.000200018 0)
(0.00216245 -0.000211261 0)
(0.00214951 -0.000222786 0)
(0.00213709 -0.000234569 0)
(0.00212526 -0.000246615 0)
(0.00211408 -0.000258899 0)
(0.00210362 -0.000271424 0)
(0.00209396 -0.000284164 0)
(0.00208516 -0.00029712 0)
(0.00207731 -0.000310262 0)
(0.00207048 -0.000323592 0)
(0.00206477 -0.000337074 0)
(0.00206022 -0.000350707 0)
(0.00233847 -0.000140559 0)
(0.00232519 -0.000149728 0)
(0.00231186 -0.000159179 0)
(0.00229873 -0.000168906 0)
(0.00228573 -0.000178935 0)
(0.00227301 -0.000189237 0)
(0.00226057 -0.000199821 0)
(0.00224851 -0.000210668 0)
(0.00223686 -0.000221779 0)
(0.0022257 -0.000233136 0)
(0.00221507 -0.000244737 0)
(0.00220507 -0.000256561 0)
(0.00219572 -0.000268604 0)
(0.00218713 -0.000280843 0)
(0.00217933 -0.000293271 0)
(0.00217241 -0.000305862 0)
(0.00216644 -0.000318604 0)
(0.00216149 -0.000331469 0)
(0.00215763 -0.000344439 0)
(0.00241419 -0.000142582 0)
(0.00240211 -0.000151517 0)
(0.00239004 -0.000160711 0)
(0.00237811 -0.000170162 0)
(0.00236632 -0.000179894 0)
(0.00235476 -0.000189882 0)
(0.00234348 -0.000200134 0)
(0.00233253 -0.000210633 0)
(0.00232196 -0.000221378 0)
(0.00231184 -0.000232352 0)
(0.00230222 -0.000243551 0)
(0.00229316 -0.000254958 0)
(0.0022847 -0.000266562 0)
(0.00227693 -0.000278343 0)
(0.00226988 -0.000290288 0)
(0.00226362 -0.000302371 0)
(0.00225822 -0.000314576 0)
(0.00225376 -0.000326875 0)
(0.00225027 -0.000339242 0)
(0.00248952 -0.000143862 0)
(0.00247844 -0.00015257 0)
(0.00246739 -0.000161533 0)
(0.00245646 -0.000170745 0)
(0.00244567 -0.00018021 0)
(0.00243509 -0.000189918 0)
(0.00242475 -0.000199869 0)
(0.00241473 -0.000210051 0)
(0.00240504 -0.000220462 0)
(0.00239577 -0.000231088 0)
(0.00238694 -0.000241922 0)
(0.00237862 -0.000252947 0)
(0.00237084 -0.000264153 0)
(0.00236367 -0.000275519 0)
(0.00235713 -0.000287031 0)
(0.00235131 -0.000298658 0)
(0.00234625 -0.000310383 0)
(0.00234201 -0.000322177 0)
(0.00233862 -0.00033401 0)
(0.00256443 -0.000143719 0)
(0.00255419 -0.000152219 0)
(0.00254395 -0.000160958 0)
(0.00253384 -0.00016993 0)
(0.00252385 -0.00017914 0)
(0.00251407 -0.000188577 0)
(0.00250451 -0.000198245 0)
(0.00249522 -0.000208133 0)
(0.00248625 -0.000218234 0)
(0.00247766 -0.000228536 0)
(0.00246945 -0.000239036 0)
(0.00246171 -0.000249716 0)
(0.00245443 -0.000260563 0)
(0.0024477 -0.000271559 0)
(0.00244151 -0.000282685 0)
(0.00243589 -0.000293928 0)
(0.00243097 -0.000305235 0)
(0.00242674 -0.000316595 0)
(0.00242322 -0.000327968 0)
(0.00263883 -0.000141276 0)