/*--------------------------------*- C++ -*----------------------------------*\
| =========                 |                                                 |
| \\      /  F ield         | OpenFOAM: The Open Source CFD Toolbox           |
|  \\    /   O peration     | Version:  v2012                                 |
|   \\  /    A nd           | Website:  www.openfoam.com                      |
|    \\/     M anipulation  |                                                 |
\*---------------------------------------------------------------------------*/
FoamFile
{
    version     2.0;
    format      ascii;
    class       volScalarField;
    location    "6";
    object      sigmaHyd;
}
// * * * * * * * * * * * * * * * * * * * * * * * * * * * * * * * * * * * * * //

dimensions      [1 -1 -2 0 0 0 0];


internalField   nonuniform List<scalar> 
1000
(
1.35557e+08
1.34876e+08
1.30837e+08
1.16954e+08
1.09746e+08
9.98619e+07
9.38899e+07
8.64164e+07
8.12145e+07
7.51059e+07
1.33274e+08
1.30209e+08
1.24848e+08
1.12294e+08
1.06186e+08
9.72931e+07
9.17549e+07
8.48994e+07
8.00005e+07
7.43188e+07
1.26986e+08
1.21663e+08
1.1523e+08
1.06289e+08
1.00347e+08
9.31942e+07
8.80724e+07
8.22137e+07
7.77954e+07
7.28139e+07
1.19103e+08
1.12591e+08
1.05768e+08
9.89951e+07
9.36707e+07
8.78107e+07
8.34166e+07
7.84835e+07
7.47758e+07
7.05428e+07
1.08423e+08
1.01977e+08
9.62792e+07
9.05885e+07
8.61838e+07
8.13907e+07
7.7838e+07
7.38174e+07
7.09122e+07
6.74505e+07
9.5597e+07
8.99621e+07
8.56515e+07
8.10921e+07
7.77954e+07
7.40069e+07
7.14288e+07
6.82503e+07
6.62449e+07
6.34759e+07
8.08281e+07
7.68022e+07
7.39354e+07
7.06549e+07
6.84562e+07
6.57317e+07
6.40841e+07
6.17899e+07
6.0644e+07
5.8565e+07
6.52407e+07
6.29186e+07
6.16239e+07
5.96396e+07
5.86588e+07
5.69422e+07
5.63139e+07
5.47937e+07
5.45567e+07
5.30161e+07
4.96809e+07
4.90314e+07
4.89086e+07
4.82476e+07
4.81527e+07
4.75211e+07
4.75941e+07
4.69754e+07
4.73579e+07
4.64642e+07
3.41385e+07
3.51409e+07
3.63984e+07
3.70007e+07
3.79875e+07
3.83508e+07
3.93141e+07
3.94849e+07
4.06399e+07
4.03757e+07
1.96098e+07
2.20602e+07
2.40448e+07
2.58793e+07
2.73223e+07
2.87921e+07
2.98345e+07
3.11087e+07
3.17899e+07
3.37549e+07
5.65619e+06
9.45099e+06
1.24772e+07
1.53812e+07
1.76266e+07
1.9972e+07
2.16145e+07
2.36282e+07
2.4721e+07
2.76918e+07
-7.10077e+06
-2.04758e+06
1.68898e+06
5.65509e+06
8.43433e+06
1.17425e+07
1.37806e+07
1.67376e+07
1.81418e+07
2.20623e+07
-1.85803e+07
-1.25592e+07
-8.06694e+06
-3.3103e+06
74281.9
4.03015e+06
6.54295e+06
1.00425e+07
1.18067e+07
1.60991e+07
-2.86676e+07
-2.17605e+07
-1.66631e+07
-1.11839e+07
-7.31176e+06
-2.76984e+06
151598
4.10295e+06
6.23183e+06
1.06295e+07
-3.71721e+07
-2.96338e+07
-2.39901e+07
-1.79976e+07
-1.366e+07
-8.71929e+06
-5.38834e+06
-1.15056e+06
1.36024e+06
5.71113e+06
-4.41149e+07
-3.60382e+07
-2.99557e+07
-2.35361e+07
-1.88282e+07
-1.35677e+07
-9.90292e+06
-5.4559e+06
-2.61784e+06
1.62282e+06
-4.93516e+07
-4.09165e+07
-3.44899e+07
-2.7785e+07
-2.27761e+07
-1.73043e+07
-1.33615e+07
-8.77984e+06
-5.66609e+06
-1.54415e+06
-5.28928e+07
-4.42031e+07
-3.75442e+07
-3.06416e+07
-2.54329e+07
-1.98192e+07
-1.5691e+07
-1.10246e+07
-7.72387e+06
-3.69796e+06
-5.46638e+07
-4.58569e+07
-3.90791e+07
-3.20847e+07
-2.67715e+07
-2.10916e+07
-1.68654e+07
-1.21592e+07
-8.75966e+06
-4.78567e+06
100175
973894
2.72191e+06
5.3204e+06
8.74785e+06
1.29693e+07
1.78262e+07
2.32911e+07
2.86367e+07
3.37684e+07
6.88392e+06
7.4247e+06
8.53077e+06
1.01263e+07
1.22997e+07
1.49088e+07
1.81767e+07
2.18586e+07
2.65237e+07
3.09553e+07
1.19917e+07
1.2493e+07
1.35357e+07
1.50066e+07
1.70316e+07
1.93198e+07
2.21457e+07
2.48738e+07
2.82757e+07
3.08464e+07
1.62994e+07
1.66073e+07
1.73011e+07
1.82335e+07
1.96737e+07
2.12609e+07
2.35675e+07
2.57939e+07
2.90105e+07
3.13029e+07
2.01475e+07
2.04394e+07
2.11022e+07
2.19445e+07
2.3235e+07
2.45228e+07
2.63879e+07
2.79945e+07
3.04532e+07
3.21736e+07
2.3041e+07
2.32317e+07
2.37139e+07
2.43013e+07
2.53194e+07
2.63324e+07
2.79464e+07
2.93661e+07
3.15286e+07
3.30614e+07
2.59427e+07
2.6113e+07
2.65429e+07
2.70392e+07
2.78903e+07
2.86834e+07
2.99567e+07
3.10516e+07
3.2765e+07
3.40376e+07
2.80186e+07
2.8139e+07
2.84706e+07
2.88462e+07
2.95425e+07
3.02026e+07
3.12884e+07
3.22505e+07
3.37003e+07
3.48199e+07
3.0225e+07
3.03218e+07
3.05909e+07
3.08829e+07
3.14279e+07
3.19305e+07
3.27685e+07
3.3526e+07
3.46719e+07
3.56065e+07
3.182e+07
3.18888e+07
3.20948e+07
3.23154e+07
3.27489e+07
3.31544e+07
3.38361e+07
3.44645e+07
3.54e+07
3.61771e+07
3.35508e+07
3.35957e+07
3.37416e+07
3.38869e+07
3.41941e+07
3.44723e+07
3.49672e+07
3.54299e+07
3.61357e+07
3.67528e+07
3.48742e+07
3.48986e+07
3.49952e+07
3.50829e+07
3.52961e+07
3.54839e+07
3.584e+07
3.61752e+07
3.66959e+07
3.71537e+07
3.63193e+07
3.63203e+07
3.63622e+07
3.63792e+07
3.64853e+07
3.65555e+07
3.6764e+07
3.69323e+07
3.72869e+07
3.75267e+07
3.75246e+07
3.75062e+07
3.75037e+07
3.74635e+07
3.7484e+07
3.74609e+07
3.75457e+07
3.75863e+07
3.77806e+07
3.78892e+07
3.88511e+07
3.88097e+07
3.87539e+07
3.8646e+07
3.85628e+07
3.84321e+07
3.83686e+07
3.82719e+07
3.82765e+07
3.82443e+07
4.00709e+07
4.00083e+07
3.99069e+07
3.97363e+07
3.95646e+07
3.93314e+07
3.91417e+07
3.89046e+07
3.87536e+07
3.85515e+07
4.14381e+07
4.1351e+07
4.11937e+07
4.09512e+07
4.06711e+07
4.0324e+07
3.99802e+07
3.95957e+07
3.92564e+07
3.88868e+07
4.28071e+07
4.26952e+07
4.24858e+07
4.21696e+07
4.17876e+07
4.13207e+07
4.08317e+07
4.02879e+07
3.97715e+07
3.92179e+07
4.43847e+07
4.42441e+07
4.3971e+07
4.35702e+07
4.30626e+07
4.24604e+07
4.17883e+07
4.10698e+07
4.03193e+07
3.95757e+07
4.60614e+07
4.5891e+07
4.55555e+07
4.50645e+07
4.44313e+07
4.36784e+07
4.28192e+07
4.18965e+07
4.09086e+07
3.99308e+07
3.65865e+07
3.82829e+07
4.0047e+07
4.17551e+07
4.3518e+07
4.50513e+07
4.64857e+07
4.78493e+07
4.90488e+07
5.02472e+07
5.1316e+07
5.2412e+07
5.34185e+07
5.44862e+07
5.55075e+07
5.66306e+07
5.77494e+07
5.90191e+07
6.03221e+07
6.18353e+07
3.55272e+07
3.74013e+07
3.95127e+07
4.09752e+07
4.25565e+07
4.41077e+07
4.54493e+07
4.69279e+07
4.83179e+07
4.95559e+07
5.08517e+07
5.21039e+07
5.33781e+07
5.46798e+07
5.59944e+07
5.7391e+07
5.88045e+07
6.03499e+07
6.19236e+07
6.3682e+07
3.40063e+07
3.59673e+07
3.76102e+07
3.96845e+07
4.09609e+07
4.27693e+07
4.40901e+07
4.57229e+07
4.70536e+07
4.85779e+07
4.99198e+07
5.14076e+07
5.27695e+07
5.4272e+07
5.56907e+07
5.72623e+07
5.87799e+07
6.04778e+07
6.21398e+07
6.40235e+07
3.3948e+07
3.60603e+07
3.73961e+07
3.92308e+07
4.0605e+07
4.22489e+07
4.36595e+07
4.51538e+07
4.63955e+07
4.7997e+07
4.92905e+07
5.08375e+07
5.21856e+07
5.37367e+07
5.51543e+07
5.67605e+07
5.82698e+07
5.99785e+07
6.16056e+07
6.34638e+07
3.42902e+07
3.61929e+07
3.73138e+07
3.90317e+07
4.01899e+07
4.18034e+07
4.29927e+07
4.45353e+07
4.57489e+07
4.7235e+07
4.8493e+07
4.99594e+07
5.1265e+07
5.27465e+07
5.41097e+07
5.56397e+07
5.70743e+07
5.86858e+07
6.02075e+07
6.1933e+07
3.48887e+07
3.65434e+07
3.75379e+07
3.90576e+07
4.01176e+07
4.15528e+07
4.26568e+07
4.40371e+07
4.51678e+07
4.65264e+07
4.76886e+07
4.90428e+07
5.02416e+07
5.1612e+07
5.2854e+07
5.42619e+07
5.55557e+07
5.70215e+07
5.83772e+07
5.99189e+07
3.5582e+07
3.69614e+07
3.78167e+07
3.91266e+07
4.00442e+07
4.13036e+07
4.22691e+07
4.34928e+07
4.44973e+07
4.56998e+07
4.67391e+07
4.79354e+07
4.90077e+07
5.02128e+07
5.13177e+07
5.25463e+07
5.36842e+07
5.49502e+07
5.61204e+07
5.74357e+07
3.61742e+07
3.72965e+07
3.80483e+07
3.91533e+07
3.9958e+07
4.10307e+07
4.1875e+07
4.29257e+07
4.37992e+07
4.48385e+07
4.57341e+07
4.67722e+07
4.7684e+07
4.87312e+07
4.96529e+07
5.07205e+07
5.16433e+07
5.27443e+07
5.37486e+07
5.48034e+07
3.67461e+07
3.76378e+07
3.82737e+07
3.91782e+07
3.98573e+07
4.07427e+07
4.14558e+07
4.23257e+07
4.30655e+07
4.39238e+07
4.46843e+07
4.55344e+07
4.63111e+07
4.71558e+07
4.79454e+07
4.87861e+07
4.95863e+07
5.03495e+07
5.12292e+07
5.20667e+07
3.71595e+07
3.78421e+07
3.83818e+07
3.9104e+07
3.96742e+07
4.03859e+07
4.0979e+07
4.16805e+07
4.22901e+07
4.29819e+07
4.36025e+07
4.42843e+07
4.49121e+07
4.55824e+07
4.6215e+07
4.68701e+07
4.75077e+07
4.81401e+07
4.86925e+07
4.93842e+07
3.75263e+07
3.80624e+07
3.84726e+07
3.90406e+07
3.94813e+07
4.00379e+07
4.04983e+07
4.10442e+07
4.15156e+07
4.20505e+07
4.25256e+07
4.30486e+07
4.35204e+07
4.40298e+07
4.44913e+07
4.49851e+07
4.54286e+07
4.59043e+07
4.63207e+07
4.67743e+07
3.77859e+07
3.81444e+07
3.84857e+07
3.88903e+07
3.92395e+07
3.96425e+07
3.99963e+07
4.0393e+07
4.07469e+07
4.11333e+07
4.14824e+07
4.18545e+07
4.21929e+07
4.2547e+07
4.2868e+07
4.32e+07
4.34955e+07
4.38021e+07
4.40611e+07
4.43392e+07
3.80165e+07
3.85183e+07
3.84817e+07
3.8744e+07
3.90014e+07
3.92681e+07
3.95172e+07
3.97803e+07
4.00205e+07
4.02739e+07
4.05023e+07
4.07401e+07
4.09515e+07
4.11685e+07
4.13559e+07
4.15471e+07
4.17018e+07
4.18629e+07
4.19788e+07
4.21012e+07
3.81816e+07
3.83212e+07
3.84541e+07
3.86271e+07
3.87624e+07
3.8928e+07
3.90612e+07
3.92158e+07
3.93426e+07
3.948e+07
3.95973e+07
3.97142e+07
3.98144e+07
3.99044e+07
3.9981e+07
4.0035e+07
4.00832e+07
4.01055e+07
4.01056e+07
4.00849e+07
3.83645e+07
3.84247e+07
3.84495e+07
3.85223e+07
3.85563e+07
3.86184e+07
3.86535e+07
3.87045e+07
3.87324e+07
3.8771e+07
3.87932e+07
3.88069e+07
3.88161e+07
3.87986e+07
3.87894e+07
3.87303e+07
3.86449e+07
3.85844e+07
3.84604e+07
3.83415e+07
3.85304e+07
3.84882e+07
3.84433e+07
3.84203e+07
3.83696e+07
3.835e+07
3.82889e+07
3.82752e+07
3.81942e+07
3.81244e+07
3.80772e+07
3.8007e+07
3.79259e+07
3.78463e+07
3.7724e+07
3.75242e+07
3.74517e+07
3.73012e+07
3.70849e+07
3.68709e+07
3.87097e+07
3.85767e+07
3.84459e+07
3.83239e+07
3.82002e+07
3.80731e+07
3.79652e+07
3.78242e+07
3.76882e+07
3.75716e+07
3.74548e+07
3.73067e+07
3.71673e+07
3.70148e+07
3.68428e+07
3.6676e+07
3.65088e+07
3.62622e+07
3.60363e+07
3.57361e+07
3.88926e+07
3.86686e+07
3.8455e+07
3.82411e+07
3.80382e+07
3.7824e+07
3.76441e+07
3.74255e+07
3.72616e+07
3.71009e+07
3.68928e+07
3.67255e+07
3.65294e+07
3.63509e+07
3.6155e+07
3.59523e+07
3.57425e+07
3.551e+07
3.52514e+07
3.49613e+07
3.90433e+07
3.87347e+07
3.83908e+07
3.81088e+07
3.77393e+07
3.75074e+07
3.73358e+07
3.69859e+07
3.67691e+07
3.65008e+07
3.62925e+07
3.60687e+07
3.58809e+07
3.56905e+07
3.55235e+07
3.53547e+07
3.52004e+07
3.50329e+07
3.48668e+07
3.46665e+07
3.92075e+07
3.87883e+07
3.83472e+07
3.79569e+07
3.74887e+07
3.72535e+07
3.68899e+07
3.65072e+07
3.61955e+07
3.59194e+07
3.5649e+07
3.54424e+07
3.5237e+07
3.50933e+07
3.49577e+07
3.48738e+07
3.47999e+07
3.47628e+07
3.47235e+07
3.46904e+07
7.1594e+07
6.88475e+07
6.65198e+07
6.39515e+07
6.16471e+07
5.91879e+07
5.69007e+07
5.44997e+07
5.22155e+07
4.98309e+07
4.75312e+07
4.51258e+07
4.27898e+07
4.03283e+07
3.79329e+07
3.53802e+07
3.29004e+07
3.022e+07
2.76279e+07
2.47786e+07
7.09988e+07
6.84861e+07
6.62504e+07
6.38679e+07
6.16489e+07
5.9346e+07
5.71389e+07
5.48738e+07
5.26667e+07
5.04036e+07
4.81805e+07
4.58868e+07
4.36288e+07
4.12731e+07
3.89588e+07
3.65094e+07
3.41146e+07
3.15386e+07
2.90368e+07
2.62852e+07
6.98277e+07
6.77491e+07
6.56839e+07
6.36505e+07
6.15923e+07
5.95919e+07
5.75396e+07
5.55431e+07
5.34894e+07
5.14703e+07
4.94034e+07
4.73369e+07
4.5241e+07
4.31032e+07
4.09595e+07
3.87263e+07
3.65134e+07
3.41596e+07
3.18536e+07
2.932e+07
6.80094e+07
6.65376e+07
6.46962e+07
6.31378e+07
6.12866e+07
5.97005e+07
5.78482e+07
5.62176e+07
5.43649e+07
5.26757e+07
5.08165e+07
4.90559e+07
4.71782e+07
4.53334e+07
4.34209e+07
4.14781e+07
3.95109e+07
3.7454e+07
3.54097e+07
3.31687e+07
6.53999e+07
6.47091e+07
6.31263e+07
6.21711e+07
6.0575e+07
5.95171e+07
5.79266e+07
5.67633e+07
5.51833e+07
5.39149e+07
5.23406e+07
5.09696e+07
4.93901e+07
4.79194e+07
4.63212e+07
4.47533e+07
4.31223e+07
4.14583e+07
3.97803e+07
3.79523e+07
6.19363e+07
6.21655e+07
6.08631e+07
6.0574e+07
5.92564e+07
5.87566e+07
5.74555e+07
5.67706e+07
5.54984e+07
5.46602e+07
5.34154e+07
5.24535e+07
5.12271e+07
5.01657e+07
4.89453e+07
4.78019e+07
4.65747e+07
4.53616e+07
4.41155e+07
4.27694e+07
5.75403e+07
5.87594e+07
5.7807e+07
5.82452e+07
5.73255e+07
5.74324e+07
5.65566e+07
5.63871e+07
5.55431e+07
5.51572e+07
5.43305e+07
5.37849e+07
5.29661e+07
5.23095e+07
5.14965e+07
5.07692e+07
4.99662e+07
4.92035e+07
4.84207e+07
4.75872e+07
5.25613e+07
5.47195e+07
5.41772e+07
5.51818e+07
5.46869e+07
5.52103e+07
5.47761e+07
5.49734e+07
5.45858e+07
5.45753e+07
5.42189e+07
5.40834e+07
5.37511e+07
5.35496e+07
5.32451e+07
5.30236e+07
5.276e+07
5.25592e+07
5.23568e+07
5.2165e+07
4.67065e+07
4.9581e+07
4.99247e+07
5.14808e+07
5.18515e+07
5.28148e+07
5.30923e+07
5.36682e+07
5.38394e+07
5.41735e+07
5.42737e+07
5.44748e+07
5.4545e+07
5.46909e+07
5.47708e+07
5.49212e+07
5.50498e+07
5.52577e+07
5.54773e+07
5.57673e+07
4.10357e+07
4.32463e+07
4.42789e+07
4.57595e+07
4.67575e+07
4.79894e+07
4.88933e+07
4.99037e+07
5.0704e+07
5.15397e+07
5.22476e+07
5.29808e+07
5.36408e+07
5.43411e+07
5.50112e+07
5.57486e+07
5.64927e+07
5.73391e+07
5.8224e+07
5.9244e+07
)
;

boundaryField
{
    back
    {
        type            empty;
    }
    left
    {
        type            symmetry;
    }
    hole
    {
        type            zeroGradient;
    }
    front
    {
        type            empty;
    }
    down
    {
        type            symmetry;
    }
    right
    {
        type            zeroGradient;
    }
    up
    {
        type            zeroGradient;
    }
}


// ************************************************************************* //
