/*--------------------------------*- C++ -*----------------------------------*\
| =========                 |                                                 |
| \\      /  F ield         | OpenFOAM: The Open Source CFD Toolbox           |
|  \\    /   O peration     | Version:  v2012                                 |
|   \\  /    A nd           | Website:  www.openfoam.com                      |
|    \\/     M anipulation  |                                                 |
\*---------------------------------------------------------------------------*/
FoamFile
{
    version     2.0;
    format      ascii;
    class       volVectorField;
    location    "6";
    object      D_0;
}
// * * * * * * * * * * * * * * * * * * * * * * * * * * * * * * * * * * * * * //

dimensions      [0 1 0 0 0 0 0];


internalField   nonuniform List<vector> 
470
(
(0.00220444 -1.26518e-05 0)
(0.00227342 -9.67207e-06 0)
(0.00223714 -0.000247549 0)
(0.00271332 -1.48661e-05 0)
(0.00196637 -8.48111e-05 0)
(0.00245542 -0.00028086 0)
(0.00220182 -8.8685e-05 0)
(0.00195906 -8.19488e-05 0)
(0.00136357 -0.000380459 0)
(0.0021931 -0.000179164 0)
(0.0014442 -0.000335399 0)
(0.000803143 -0.00077632 0)
(0.000901897 -0.0006901 0)
(0.00262351 -2.72212e-05 0)
(0.0010789 -0.00055482 0)
(0.00182965 -0.000264415 0)
(0.00215822 -0.000169878 0)
(0.00253125 -2.28394e-05 0)
(0.00245689 -8.81725e-06 0)
(0.0022267 -1.85481e-05 0)
(0.00182256 -0.000290277 0)
(0.00272421 -0.000104096 0)
(0.0022422 -0.000273001 0)
(0.00262468 -3.64291e-05 0)
(0.00120004 -0.000477136 0)
(0.00224756 -7.52191e-05 0)
(0.00132575 -0.000389293 0)
(0.00208135 -0.000319053 0)
(0.0024982 -0.000236444 0)
(0.00266796 -1.39386e-05 0)
(0.00225918 -1.35186e-05 0)
(0.00108533 -0.000563608 0)
(0.00216232 -0.000201059 0)
(0.000801697 -0.000928857 0)
(0.00240368 -0.000291182 0)
(0.00251242 -0.000254046 0)
(0.000811106 -0.000735999 0)
(0.00226699 -2.21366e-05 0)
(0.00229136 -2.17801e-05 0)
(0.00216757 -2.32057e-05 0)
(0.00155295 -0.000255821 0)
(0.00242326 -3.60928e-06 0)
(0.000607659 -0.000975385 0)
(0.00165297 -0.000208174 0)
(0.002015 -0.00032959 0)
(0.000516617 -0.00106351 0)
(0.00217772 -4.44718e-05 0)
(0.00136671 -0.000353865 0)
(0.00147841 -0.000300929 0)
(0.00134143 -0.000382768 0)
(0.00068862 -0.000827279 0)
(0.000997788 -0.000807387 0)
(0.00249999 -3.05128e-05 0)
(0.00246097 -1.47728e-05 0)
(0.00274337 -7.89558e-05 0)
(0.00270963 -9.45842e-05 0)
(2.50785e-05 -0.00148973 0)
(4.87245e-05 -0.00148549 0)
(0.00180751 -0.000169949 0)
(0.00211823 -0.000289988 0)
(0.00231968 -9.38484e-05 0)
(0.00113696 -0.000517602 0)
(0.00109314 -0.000537608 0)
(0.000790024 -0.000824712 0)
(0.00138426 -0.000618991 0)
(0.00028055 -0.00128343 0)
(0.00218715 -3.82705e-05 0)
(0.00267737 -0.000123754 0)
(0.00188721 -0.000128229 0)
(0.0018399 -0.000212748 0)
(0.00221073 -2.12283e-06 0)
(0.00219184 -0.000148774 0)
(0.000753575 -0.00089681 0)
(0.00201872 -0.00011338 0)
(0.000636907 -0.000988671 0)
(0.00284332 -6.79127e-05 0)
(0.00231412 -0.000159479 0)
(0.00231649 -0.00013777 0)
(0.00188499 -0.000142561 0)
(5.6088e-05 -0.00138782 0)
(0.00166506 -0.000202296 0)
(0.000393312 -0.0012083 0)
(0.00217651 -0.00024625 0)
(0.00184413 -0.000171247 0)
(0.00125963 -0.000431679 0)
(0.00279203 -9.01791e-05 0)
(0.000675566 -0.000925465 0)
(0.00131134 -0.000763164 0)
(0.000486578 -0.00111295 0)
(0.000865619 -0.000782167 0)
(0.000611934 -0.00100077 0)
(0.000892186 -0.000679706 0)
(0.00207863 -0.000108887 0)
(0.00226299 -0.000129887 0)
(0.00100823 -0.000600505 0)
(0.000980241 -0.000609945 0)
(0.00211821 -6.0508e-05 0)
(0.00227048 -0.000109165 0)
(0.00191157 -0.000106821 0)
(0.00234946 -0.00026444 0)
(0.00264435 -7.61923e-05 0)
(0.00141754 -0.000336641 0)
(0.000749649 -0.000934849 0)
(0.00277935 -5.34983e-05 0)
(0.0027931 -4.0789e-05 0)
(0.00261034 -0.000199018 0)
(0.00264073 -0.000175303 0)
(0.00205922 -6.32862e-05 0)
(0.00206491 -0.000136507 0)
(0.000507061 -0.0011378 0)
(0.000463666 -0.00112279 0)
(0.000505828 -0.0011121 0)
(0.00283783 -6.15748e-05 0)
(0.00248416 -0.000296557 0)
(0.00186638 -0.000134976 0)
(0.00193112 -0.000159708 0)
(0.00274553 -4.21444e-06 0)
(0.00143809 -0.000407225 0)
(0.00210802 -7.3863e-05 0)
(0.00230441 -4.60859e-07 0)
(0.00203443 -9.25186e-05 0)
(0.00269546 -5.22696e-05 0)
(0.00258192 -1.97728e-05 0)
(0.00290101 -2.85563e-05 0)
(0.0027484 -0.000164996 0)
(0.00184898 -0.000188663 0)
(0.00178585 -0.000193738 0)
(0.00265002 -9.74171e-05 0)
(0.00137352 -0.00044868 0)
(0.00266162 -4.93766e-05 0)
(0.00209489 -4.71151e-05 0)
(0.0020476 -6.46953e-05 0)
(0.00214147 -9.26378e-05 0)
(0.00259704 -8.02521e-05 0)
(0.00280838 -9.68299e-05 0)
(0.0023016 -0.000279805 0)
(0.00206401 -0.000133595 0)
(0.00132819 -0.00059811 0)
(0.000697202 -0.000861943 0)
(0.00259536 -0.000248445 0)
(0.00255291 -0.000255162 0)
(0.0010919 -0.00058339 0)
(0.00260905 -0.000109652 0)
(0.00238399 -0.000119195 0)
(0.00243531 -0.000125563 0)
(0.00222 -2.66962e-05 0)
(0.00282666 -1.88255e-05 0)
(0.0010287 -0.000599006 0)
(0.00249073 -8.77281e-05 0)
(0.00084051 -0.000758899 0)
(0.00243093 -2.12681e-05 0)
(0.00279204 -1.74228e-05 0)
(0.00179278 -0.000158174 0)
(0.00279386 -6.64904e-05 0)
(0.000771938 -0.00102502 0)
(0.00177027 -0.000242932 0)
(0.00200475 -0.000228716 0)
(0.00229978 -6.89331e-05 0)
(0.00232814 -7.6499e-05 0)
(0.0022622 -0.000177705 0)
(0.000725978 -0.0010009 0)
(0.00118642 -0.000481349 0)
(0.000230072 -0.00130481 0)
(0.00120727 -0.000511164 0)
(9.46224e-05 -0.00140451 0)
(0.0016245 -0.000252183 0)
(0.00168748 -0.000204721 0)
(0.0012846 -0.000469355 0)
(0.00194278 -0.000135968 0)
(0.00156187 -0.000258587 0)
(0.00165602 -0.000213522 0)
(0.00249426 -0.000146974 0)
(0.00249634 -0.000166369 0)
(0.00238053 -0.000162003 0)
(0.00243059 -0.00014701 0)
(0.00236756 -9.34198e-05 0)
(0.00250849 -1.52716e-05 0)
(0.00214283 -1.52211e-05 0)
(0.00119038 -0.000500304 0)
(0.00175001 -0.000162717 0)
(0.00175868 -0.000155112 0)
(0.000612534 -0.000943435 0)
(0.00210546 -0.000130044 0)
(0.0019126 -0.000206856 0)
(0.00191077 -0.000234521 0)
(0.00136345 -0.000388681 0)
(0.00245174 -0.000205815 0)
(0.00215918 -7.47511e-06 0)
(0.000313709 -0.00122551 0)
(0.0025857 -4.56525e-05 0)
(0.00254348 -0.000215091 0)
(0.00224533 -5.54308e-05 0)
(0.00198227 -0.000182187 0)
(0.00204659 -0.000169443 0)
(0.00215203 -2.3761e-05 0)
(0.0024478 -3.09452e-05 0)
(0.00218813 -0.000292721 0)
(0.00231831 -0.000203551 0)
(0.00230956 -0.000228582 0)
(0.000251691 -0.00120114 0)
(0.00222633 -1.26826e-05 0)
(0.00219235 -7.52926e-06 0)
(0.000103876 -0.00127665 0)
(0.00148393 -0.000386646 0)
(0.00197536 -0.000235704 0)
(0.00194745 -0.000292513 0)
(0.00236763 -1.78909e-05 0)
(0.00238239 -2.41964e-05 0)
(0.00142498 -0.000448393 0)
(0.00208503 -9.18761e-05 0)
(0.00266241 -8.51148e-05 0)
(0.00216968 -0.000228357 0)
(0.00212144 -3.27271e-05 0)
(0.0025041 -4.1585e-05 0)
(0.001433 -0.000370168 0)
(0.00151888 -0.000330281 0)
(0.00250836 -9.89394e-05 0)
(0.0022875 -5.06223e-05 0)
(0.00250883 -6.13631e-05 0)
(0.00148598 -0.000309955 0)
(0.00204603 -0.000109955 0)
(0.00213789 -3.60253e-05 0)
(0.00241796 -0.000225612 0)
(0.00253649 -4.80161e-05 0)
(0.00138719 -0.000368086 0)
(0.00239498 -0.0002629 0)
(0.00145566 -0.000320372 0)
(0.00208263 -5.51601e-05 0)
(0.000253818 -0.00132191 0)
(0.00064722 -0.000879044 0)
(0.00149091 -0.000292167 0)
(0.00202303 -8.72881e-05 0)
(0.00289772 -1.53813e-05 0)
(0.00268991 -0.000222062 0)
(0.0019928 -0.000268216 0)
(0.00220846 -0.000106557 0)
(0.00164398 -0.000445509 0)
(0.00269465 -0.00015692 0)
(0.00274122 -0.000151626 0)
(0.00286604 -4.11906e-05 0)
(0.00281607 -5.29022e-05 0)
(0.00283858 -2.99452e-05 0)
(0.00264918 -0.000204393 0)
(0.000223752 -0.00129386 0)
(9.7127e-05 -0.00135223 0)
(0.000171252 -0.00137498 0)
(3.63349e-05 -0.00144674 0)
(0.00267937 -0.000136699 0)
(0.00238757 -7.71725e-06 0)
(0.00238359 -0.00018543 0)
(0.0024386 -0.000185777 0)
(0.00210949 -0.000270639 0)
(0.00292348 -1.58487e-05 0)
(0.00273151 -0.000202382 0)
(0.00169316 -0.000256471 0)
(0.00232913 -9.92836e-06 0)
(0.00234852 -3.34936e-05 0)
(0.00288769 -2.7127e-05 0)
(0.00270989 -0.000187857 0)
(0.00225179 1.00149e-06 0)
(0.00198782 -0.000153665 0)
(0.000440299 -0.00115421 0)
(0.00218014 -4.90886e-06 0)
(0.00172179 -0.000392017 0)
(0.00227189 -3.59759e-05 0)
(0.00284653 -2.28612e-05 0)
(0.00263338 -0.000226076 0)
(0.00256741 -4.47464e-06 0)
(0.00230563 -3.59794e-05 0)
(0.00195724 -0.000318392 0)
(0.00225212 -0.000321557 0)
(0.00176438 -0.000308915 0)
(0.000854489 -0.000699429 0)
(0.00159557 -0.000324686 0)
(6.7434e-05 -0.00144627 0)
(0.00120138 -0.000620834 0)
(0.00103925 -0.000701926 0)
(0.00204545 -0.000213749 0)
(0.00126754 -0.000424331 0)
(0.00259422 -0.000125947 0)
(0.00215524 -0.000138517 0)
(0.00166371 -0.000254876 0)
(0.00215305 -6.95538e-05 0)
(0.00170554 -0.000226538 0)
(0.00271612 -2.69483e-05 0)
(0.00275805 -2.90288e-05 0)
(0.00187143 -0.000296786 0)
(0.000367494 -0.0011924 0)
(0.00252853 -7.23589e-05 0)
(0.00206613 -4.52485e-05 0)
(0.00144467 -0.000496617 0)
(0.00170335 -0.00029291 0)
(0.0021033 -3.33494e-05 0)
(0.00151738 -0.0003787 0)
(0.00156367 -0.000293515 0)
(0.00243659 -7.61288e-05 0)
(0.00258128 -6.87623e-05 0)
(0.00236175 -0.000313486 0)
(0.00153529 -0.000293267 0)
(0.00264578 -4.93888e-06 0)
(0.00261806 -0.000131271 0)
(0.00161525 -0.000596522 0)
(0.00271364 -0.00013568 0)
(0.00276747 -0.000119098 0)
(0.000411868 -0.00118564 0)
(0.0018293 -0.000132735 0)
(0.00254344 -0.000163521 0)
(0.00253286 -0.000133424 0)
(0.00194392 -8.98487e-05 0)
(0.00195836 -8.04904e-05 0)
(0.000973735 -0.000648717 0)
(0.00110384 -0.000597071 0)
(0.000623706 -0.00110221 0)
(0.00239938 -0.000104581 0)
(0.00175067 -0.000221654 0)
(0.00100388 -0.00061065 0)
(0.0016494 -0.000256678 0)
(0.00209549 -4.21227e-05 0)
(0.00140041 -0.000398962 0)
(0.00232131 -5.47175e-05 0)
(0.00171641 -0.000368849 0)
(0.00236133 -5.04819e-05 0)
(0.00239605 -7.86126e-05 0)
(0.00261153 -5.61826e-05 0)
(0.00157161 -0.000319298 0)
(0.00252753 -7.45623e-06 0)
(0.00219764 -0.000314236 0)
(0.00183382 -0.00012927 0)
(0.00191017 -9.95895e-05 0)
(0.00192758 -0.000165969 0)
(0.00220888 -5.76335e-05 0)
(0.00200683 -0.000117886 0)
(0.00175573 -0.000173844 0)
(0.00174873 -0.000181474 0)
(0.00197887 -9.49764e-05 0)
(0.0019137 -0.000121632 0)
(0.00233136 -1.02848e-05 0)
(0.00246098 -6.35061e-05 0)
(0.000513322 -0.000982559 0)
(0.0025157 -0.000198102 0)
(0.00242299 -3.75859e-05 0)
(5.31584e-05 -0.00135174 0)
(0.00157608 -0.000393067 0)
(0.00210319 -5.05944e-05 0)
(0.00248447 -0.000114813 0)
(0.00177143 -0.000342747 0)
(0.000511848 -0.00101815 0)
(0.00244681 -8.87094e-05 0)
(0.00290668 -9.77969e-06 0)
(0.00268796 -0.000238951 0)
(0.00236077 -1.68765e-06 0)
(0.00200059 -8.78672e-05 0)
(0.00176346 -0.000263816 0)
(0.00188023 -0.000346004 0)
(0.000343715 -0.00116392 0)
(0.00213518 -2.00649e-05 0)
(0.000229792 -0.00133917 0)
(0.00216205 -0.000126868 0)
(0.00286498 -6.27692e-06 0)
(0.00216618 -8.23244e-06 0)
(0.00286172 -1.00776e-05 0)
(0.00288339 -4.33568e-05 0)
(0.00278794 -0.000125645 0)
(0.00207329 -0.000186183 0)
(0.00100991 -0.000942593 0)
(0.00262399 -0.000271111 0)
(0.00237937 -4.0392e-05 0)
(0.000438617 -0.00108716 0)
(0.00213141 -2.32443e-05 0)
(0.00263146 -0.00025509 0)
(0.00222691 -4.00053e-05 0)
(0.00199074 -9.60392e-05 0)
(0.00016741 -0.00139621 0)
(0.00274909 -3.90695e-05 0)
(0.00192414 -0.000266196 0)
(0.00185035 -0.00039241 0)
(0.00214528 -1.16804e-05 0)
(0.00260602 -0.000169052 0)
(0.000380486 -0.00118495 0)
(0.00187371 -0.00023644 0)
(0.00182162 -0.000144768 0)
(0.000597813 -0.00104835 0)
(0.000123416 -0.0014222 0)
(0.00272805 -6.38158e-05 0)
(0.00255896 -9.45951e-05 0)
(0.000406735 -0.00119452 0)
(0.00037213 -0.00121389 0)
(0.000298389 -0.00128249 0)
(0.00183502 -0.000331137 0)
(0.0024356 -5.45109e-05 0)
(0.00100816 -0.000700267 0)
(0.00259769 -1.02758e-05 0)
(0.00230697 -0.000307297 0)
(0.000555074 -0.00106842 0)
(0.00254948 -0.000181368 0)
(0.002452 -4.51838e-05 0)
(0.00282307 -1.83754e-06 0)
(0.00257143 -0.000287972 0)
(0.00119248 -0.000481018 0)
(0.00206156 -0.00025861 0)
(0.00127797 -0.000440243 0)
(0.00013759 -0.00128379 0)
(0.00226325 -0.000196996 0)
(0.00205731 -5.20556e-05 0)
(0.000872384 -0.000749431 0)
(0.000155094 -0.00140413 0)
(0.000992825 -0.000654502 0)
(0.00235972 -0.000232803 0)
(0.00291252 -2.28815e-06 0)
(0.00293949 -4.30933e-06 0)
(0.00267345 -0.000268165 0)
(0.00271431 -0.000246742 0)
(0.00249553 -2.78008e-06 0)
(0.00213797 -0.000330556 0)
(0.000112697 -0.00144089 0)
(0.00108045 -0.000843531 0)
(0.00271438 -7.48104e-05 0)
(0.00200228 -7.42313e-05 0)
(0.000453133 -0.00110736 0)
(0.00214435 -2.42769e-05 0)
(0.00188814 -0.000122767 0)
(0.00216869 -1.54531e-05 0)
(0.00209934 -0.00021498 0)
(0.00268534 -6.44708e-05 0)
(0.00220261 -0.000209723 0)
(0.000239056 -0.00128901 0)
(0.000313783 -0.00126925 0)
(0.00150712 -0.000309738 0)
(0.00116583 -0.000492473 0)
(0.000200597 -0.00136034 0)
(0.00108673 -0.000547328 0)
(0.00129997 -0.000431378 0)
(0.00165303 -0.000232937 0)
(0.00158402 -0.000265811 0)
(0.00210437 -5.63529e-05 0)
(0.00211372 -4.08651e-05 0)
(0.00278603 -1.04851e-05 0)
(0.00253572 -0.000282654 0)
(0.00262643 -0.000153108 0)
(0.00161944 -0.000234653 0)
(0.00131728 -0.000440251 0)
(0.00130282 -0.000441401 0)
(0.00267581 -3.62556e-05 0)
(0.00125613 -0.000523832 0)
(0.00175171 -0.00031904 0)
(0.00123184 -0.000519799 0)
(0.0014374 -0.000380006 0)
(0.00243942 -0.000242001 0)
(0.00214791 -2.27139e-05 0)
(0.00259198 -0.000150301 0)
(0.00210261 -0.000234845 0)
(0.0015715 -0.000345412 0)
(0.00165334 -0.000320682 0)
(0.0025253 -0.000119372 0)
(0.00256648 -0.000106703 0)
(0.00201629 -6.30061e-05 0)
(0.00155336 -0.00026634 0)
(0.00164965 -0.000366609 0)
(0.00202497 -5.92654e-05 0)
(0.00207062 -4.70584e-05 0)
(0.00209778 -0.000151271 0)
(0.00194145 -9.7692e-05 0)
(0.00211018 -3.59849e-05 0)
(0.00168256 -0.000331451 0)
(0.00164868 -0.000289921 0)
(0.00169271 -0.000292009 0)
(0.00237583 -6.97534e-05 0)
(0.00239232 -5.75665e-05 0)
(0.00167055 -0.000217917 0)
(0.001539 -0.000278249 0)
)
;

boundaryField
{
    back
    {
        type            empty;
    }
    front
    {
        type            empty;
    }
    down
    {
        type            symmetry;
    }
    right
    {
        type            calculated;
        value           nonuniform List<vector> 10((0.002877 -5.56809e-05 -3.9915e-21) (0.00293042 -2.02526e-05 3.84233e-21) (0.00278123 -0.00015409 -4.42761e-21) (0.00284195 -8.41916e-05 3.23139e-21) (0.00294587 -1.22029e-05 2.06643e-21) (0.00275695 -0.000196526 -4.43082e-21) (0.00290538 -3.69746e-05 -4.25529e-21) (0.00281089 -0.000118448 3.29443e-21) (0.00295567 -3.16784e-06 -1.55771e-21) (0.00273287 -0.000242738 -6.0781e-21));
    }
    up
    {
        type            calculated;
        value           nonuniform List<vector> 
20
(
(0.00106395 -0.000583726 0)
(0.00201456 -0.000348849 0)
(0.000633379 -0.000852874 -2.0404e-20)
(2.92237e-05 -0.00149828 -3.37357e-21)
(0.00248063 -0.000310834 1.11349e-21)
(0.00135826 -0.000465981 6.90809e-21)
(0.000187271 -0.00131985 -2.02438e-21)
(0.00118678 -0.000530281 0)
(0.00225098 -0.000334007 -2.39061e-21)
(0.000819342 -0.00071995 3.63037e-21)
(0.00235949 -0.000325464 -4.39276e-21)
(0.00171089 -0.000382617 2.32937e-21)
(0.00047339 -0.000998383 7.09686e-21)
(0.00156917 -0.000409979 2.04451e-21)
(0.00187726 -0.000360122 2.18695e-21)
(0.000308703 -0.00117747 -2.75731e-21)
(0.000102305 -0.0014328 2.54734e-21)
(0.00256768 -0.000296609 -1.17535e-21)
(0.00266953 -0.000276141 -2.35613e-21)
(0.00213608 -0.000340994 1.34798e-21)
)
;
    }
    left
    {
        type            symmetry;
    }
    hole
    {
        type            calculated;
        value           nonuniform List<vector> 8((0.0014135 -0.00082152 -1.33293e-21) (0.00200794 -0.000281114 5.60741e-21) (0.000283758 -0.00115578 -1.25592e-20) (0.00207126 -0.000111203 -3.37449e-21) (0.00166984 -0.000659885 7.63429e-21) (0.000691676 -0.00108725 -1.28048e-20) (0.00107932 -0.000953208 0) (0.00187482 -0.000442546 -1.33358e-20));
    }
}


// ************************************************************************* //
