/*--------------------------------*- C++ -*----------------------------------*\
| =========                 |                                                 |
| \\      /  F ield         | OpenFOAM: The Open Source CFD Toolbox           |
|  \\    /   O peration     | Version:  v2012                                 |
|   \\  /    A nd           | Website:  www.openfoam.com                      |
|    \\/     M anipulation  |                                                 |
\*---------------------------------------------------------------------------*/
FoamFile
{
    version     2.0;
    format      ascii;
    class       volScalarField;
    location    "6";
    object      sigmaEq;
}
// * * * * * * * * * * * * * * * * * * * * * * * * * * * * * * * * * * * * * //

dimensions      [1 -1 -2 0 0 0 0];


internalField   nonuniform List<scalar> 
470
(
4.13569e+07
3.45375e+07
8.24643e+07
5.33722e+07
7.39711e+07
7.52852e+07
6.75786e+07
7.28121e+07
1.11804e+08
7.95206e+07
1.08765e+08
1.25548e+08
1.24004e+08
5.28505e+07
1.26721e+08
9.69928e+07
8.01846e+07
5.19138e+07
4.49137e+07
3.89027e+07
9.97922e+07
6.34634e+07
8.14584e+07
5.60062e+07
1.18866e+08
6.50399e+07
1.19282e+08
9.06377e+07
7.39896e+07
5.51547e+07
3.62748e+07
1.25517e+08
8.32858e+07
1.49072e+08
7.53541e+07
7.30183e+07
1.28132e+08
4.54089e+07
4.19023e+07
4.02716e+07
1.045e+08
4.35552e+07
1.20411e+08
1.03105e+08
9.08109e+07
1.21814e+08
5.86416e+07
1.10466e+08
1.1426e+08
1.14115e+08
1.20781e+08
1.24865e+08
5.09689e+07
4.76344e+07
6.07901e+07
6.2195e+07
6.45583e+07
7.54387e+07
8.90291e+07
8.67253e+07
6.75607e+07
1.27458e+08
1.19118e+08
1.32885e+08
9.06322e+07
1.3773e+08
5.02928e+07
6.53425e+07
7.22726e+07
9.38611e+07
2.56894e+07
7.74611e+07
1.31682e+08
8.05518e+07
1.36562e+08
6.00435e+07
7.54895e+07
7.27583e+07
8.82864e+07
1.11164e+08
9.49795e+07
1.35685e+08
8.28946e+07
8.05624e+07
1.18311e+08
6.21556e+07
1.32953e+08
8.44571e+07
1.28679e+08
1.45687e+08
1.28802e+08
1.21604e+08
7.48359e+07
7.45875e+07
1.24689e+08
1.26912e+08
6.2852e+07
6.98418e+07
8.32845e+07
7.7486e+07
6.07746e+07
1.10965e+08
1.44583e+08
5.77487e+07
5.63108e+07
7.0687e+07
6.89392e+07
6.88227e+07
7.79513e+07
1.72567e+08
1.17271e+08
1.33927e+08
5.8728e+07
7.34696e+07
7.78159e+07
8.72116e+07
5.45859e+07
1.15271e+08
6.92814e+07
3.49833e+07
7.44974e+07
5.81184e+07
5.216e+07
5.5344e+07
6.8871e+07
8.98881e+07
9.46638e+07
6.35015e+07
1.19233e+08
5.79614e+07
5.65967e+07
6.64607e+07
7.27206e+07
6.22662e+07
6.39771e+07
7.99073e+07
8.02031e+07
9.12448e+07
1.22079e+08
7.20942e+07
7.222e+07
1.28466e+08
6.44253e+07
6.99756e+07
6.86453e+07
4.66726e+07
5.38977e+07
1.24782e+08
6.38057e+07
1.28651e+08
4.63784e+07
5.46909e+07
9.51121e+07
5.97422e+07
1.82224e+08
9.76234e+07
5.33626e+07
6.35699e+07
6.28167e+07
7.78496e+07
1.4186e+08
1.19305e+08
8.86954e+07
1.24819e+08
1.06544e+08
1.03042e+08
9.67037e+07
1.24548e+08
8.3111e+07
1.06551e+08
1.00099e+08
6.98516e+07
7.06533e+07
7.32893e+07
7.15187e+07
6.69895e+07
4.771e+07
2.15909e+07
1.30811e+08
9.54722e+07
9.02998e+07
1.21672e+08
7.79655e+07
9.04736e+07
9.2763e+07
1.13519e+08
7.36752e+07
2.53182e+07
9.27136e+07
5.58005e+07
7.15078e+07
5.86183e+07
8.6591e+07
8.42506e+07
4.54383e+07
5.16922e+07
8.43615e+07
7.77693e+07
7.88146e+07
2.33472e+08
3.00989e+07
2.71699e+07
2.31637e+08
1.04414e+08
9.09608e+07
9.49679e+07
4.13933e+07
4.75594e+07
9.44327e+07
7.46249e+07
6.23415e+07
8.34938e+07
7.81916e+07
5.47071e+07
1.1127e+08
1.10195e+08
6.49759e+07
5.86769e+07
5.83662e+07
1.12199e+08
4.347e+07
5.52941e+07
7.58849e+07
5.68246e+07
1.16143e+08
7.78289e+07
1.0702e+08
5.06788e+07
1.08e+08
1.22636e+08
1.07567e+08
4.97733e+07
5.20616e+07
7.13909e+07
8.96901e+07
7.33685e+07
3.90127e+07
6.77551e+07
6.85652e+07
5.5187e+07
5.76504e+07
5.57517e+07
6.98233e+07
1.26249e+08
1.34151e+08
1.14913e+08
9.01311e+07
6.61672e+07
4.23228e+07
7.44621e+07
7.3697e+07
8.7288e+07
5.30855e+07
7.03302e+07
9.83274e+07
4.21967e+07
5.04458e+07
5.3785e+07
6.99396e+07
2.83451e+07
8.38801e+07
1.41068e+08
2.29625e+07
5.08298e+07
5.126e+07
5.47997e+07
7.07792e+07
4.97897e+07
5.11643e+07
9.47435e+07
8.13968e+07
6.63495e+07
1.24945e+08
9.80708e+07
9.73816e+07
1.19378e+08
1.326e+08
8.6462e+07
1.14768e+08
6.67315e+07
7.74224e+07
1.01635e+08
6.58372e+07
9.60082e+07
5.58453e+07
5.50907e+07
9.43693e+07
1.06569e+08
6.14395e+07
5.18655e+07
1.06198e+08
8.31174e+07
4.79199e+07
1.16047e+08
1.03161e+08
6.20555e+07
5.98643e+07
7.65657e+07
1.07152e+08
5.21335e+07
6.67468e+07
4.55122e+07
6.5652e+07
6.50868e+07
1.23497e+08
8.62766e+07
7.022e+07
6.78735e+07
7.33175e+07
6.67743e+07
1.28219e+08
1.33501e+08
2.05362e+08
6.72589e+07
7.61872e+07
1.24964e+08
1.00776e+08
3.8694e+07
1.19143e+08
5.69769e+07
1.05768e+08
5.63257e+07
6.30278e+07
5.87172e+07
1.06228e+08
4.89925e+07
8.35811e+07
8.15421e+07
7.88178e+07
6.12753e+07
6.31476e+07
5.83579e+07
9.51176e+07
9.45294e+07
6.8783e+07
8.10216e+07
3.67685e+07
5.94868e+07
1.1301e+08
7.24113e+07
5.17314e+07
1.56113e+08
1.11992e+08
3.07058e+07
6.72136e+07
1.02015e+08
1.09312e+08
6.45822e+07
5.19323e+07
7.11731e+07
3.81666e+07
7.49886e+07
9.94033e+07
9.85049e+07
1.00349e+08
4.18021e+07
9.32102e+07
7.58326e+07
5.3151e+07
2.6022e+07
5.30007e+07
5.73811e+07
6.63729e+07
8.43793e+07
1.52249e+08
7.15859e+07
5.32976e+07
1.09593e+08
4.08055e+07
7.18515e+07
5.48599e+07
7.81687e+07
9.09479e+07
5.6661e+07
6.4718e+07
2.54142e+07
4.24289e+07
6.93896e+07
1.56484e+08
6.57201e+07
8.88688e+07
1.51282e+08
7.8041e+07
5.92359e+07
6.30305e+07
2.2688e+08
1.08797e+08
1.05001e+08
1.02149e+08
5.68007e+07
1.31531e+08
5.18851e+07
7.92177e+07
1.31542e+08
7.03996e+07
5.51665e+07
5.33445e+07
7.20558e+07
1.18062e+08
8.96172e+07
1.20782e+08
1.52949e+08
7.89198e+07
5.55217e+07
1.35122e+08
8.99979e+07
1.37752e+08
7.69751e+07
5.17011e+07
5.20291e+07
7.14315e+07
7.09792e+07
4.67323e+07
8.62202e+07
6.64008e+07
1.30932e+08
5.95207e+07
5.76151e+07
1.07358e+08
3.85586e+07
8.56599e+07
3.10206e+07
8.52778e+07
5.97192e+07
8.03055e+07
1.75546e+08
1.17558e+08
1.09598e+08
1.19424e+08
7.91828e+07
1.20885e+08
1.2259e+08
1.00606e+08
1.00069e+08
5.58407e+07
4.07221e+07
5.41189e+07
7.2684e+07
6.80436e+07
1.03908e+08
1.25183e+08
1.18306e+08
5.54592e+07
1.29698e+08
1.04621e+08
1.26008e+08
1.12721e+08
7.41389e+07
2.90878e+07
6.81015e+07
8.56733e+07
1.07541e+08
1.07633e+08
6.74874e+07
6.52917e+07
6.61045e+07
1.04428e+08
1.10823e+08
6.28027e+07
6.03299e+07
8.06038e+07
7.76095e+07
4.90116e+07
1.05237e+08
1.0697e+08
9.99787e+07
6.13153e+07
5.83562e+07
9.56146e+07
1.06109e+08
)
;

boundaryField
{
    back
    {
        type            empty;
    }
    front
    {
        type            empty;
    }
    down
    {
        type            symmetry;
    }
    right
    {
        type            calculated;
        value           nonuniform List<scalar> 10(6.005e+07 5.47408e+07 6.87413e+07 6.35289e+07 5.36217e+07 6.99277e+07 5.73374e+07 6.62804e+07 5.22535e+07 7.09903e+07);
    }
    up
    {
        type            calculated;
        value           nonuniform List<scalar> 
20
(
1.26432e+08
9.15658e+07
1.21302e+08
7.38314e+07
7.37471e+07
1.19179e+08
8.7566e+07
1.25379e+08
8.15497e+07
1.23106e+08
7.71361e+07
1.06302e+08
1.13631e+08
1.12035e+08
9.79903e+07
9.83571e+07
7.7709e+07
7.23803e+07
7.14953e+07
8.6849e+07
)
;
    }
    left
    {
        type            symmetry;
    }
    hole
    {
        type            calculated;
        value           nonuniform List<scalar> 8(8.42161e+07 5.57921e+07 2.3469e+08 7.44733e+07 5.03453e+07 2.05606e+08 1.4787e+08 2.57332e+07);
    }
}


// ************************************************************************* //
