/*--------------------------------*- C++ -*----------------------------------*\
| =========                 |                                                 |
| \\      /  F ield         | OpenFOAM: The Open Source CFD Toolbox           |
|  \\    /   O peration     | Version:  v2012                                 |
|   \\  /    A nd           | Website:  www.openfoam.com                      |
|    \\/     M anipulation  |                                                 |
\*---------------------------------------------------------------------------*/
FoamFile
{
    version     2.0;
    format      ascii;
    class       volSymmTensorField;
    location    "20";
    object      epsilon;
}
// * * * * * * * * * * * * * * * * * * * * * * * * * * * * * * * * * * * * * //

dimensions      [0 0 0 0 0 0 0];


internalField   nonuniform List<symmTensor> 
7666
(
(-9.02371e-05 7.23498e-07 -1.0842e-19 2.01986e-05 -5.0822e-21 0)
(-5.79061e-05 -5.70963e-05 -2.1684e-19 5.83632e-05 0 0)
(0.000672067 -0.000964292 4.1655e-16 -0.00128365 7.34439e-16 0)
(-3.72411e-05 -8.3531e-05 -2.1684e-19 4.33764e-05 -2.71051e-20 0)
(-3.74931e-05 -0.000130861 5.74627e-18 3.79534e-05 -3.67612e-19 0)
(0.000192434 -0.000158594 1.10589e-17 -7.72994e-05 4.45878e-18 0)
(-1.20011e-05 -1.24176e-05 0 2.87334e-05 1.35525e-20 0)
(-1.7996e-05 -8.12381e-05 0 3.1636e-05 -1.35525e-20 0)
(0.000519016 -2.48159e-05 4.55365e-18 -0.000230315 5.00088e-18 0)
(-1.80573e-05 -2.27597e-05 1.0842e-19 3.86309e-05 2.03288e-20 0)
(-8.97784e-05 -5.02586e-05 3.25261e-19 6.58421e-05 0 0)
(6.92456e-06 -3.21256e-05 0 5.13989e-06 2.71051e-20 0)
(-2.48072e-05 -8.14231e-05 1.0842e-19 3.5955e-05 0 0)
(-3.35124e-05 -6.36947e-05 1.0842e-19 4.48361e-05 2.03288e-20 0)
(-1.71009e-05 -8.67527e-06 2.1684e-19 3.85036e-05 0 0)
(-0.000338116 7.29558e-05 6.35342e-17 6.53628e-05 1.60733e-17 0)
(-1.81901e-05 -7.97269e-05 0 3.30173e-05 -6.77626e-21 0)
(0.000250332 -3.34898e-05 7.58942e-19 -0.000106942 2.57498e-19 0)
(1.65548e-05 -5.21824e-05 0 3.14037e-06 6.77626e-21 0)
(-3.96161e-05 -4.07256e-05 3.25261e-19 5.12775e-05 0 0)
(-7.24795e-05 -1.58069e-05 -4.33681e-19 6.6776e-05 -5.0822e-21 0)
(7.5078e-05 -8.98819e-05 1.0842e-19 -2.1879e-05 0 0)
(-2.58706e-05 -6.64699e-05 2.1684e-19 3.91385e-05 0 0)
(-6.22174e-05 -8.30597e-05 0 5.73934e-05 -1.35525e-20 0)
(9.36891e-05 -0.000172031 5.12828e-17 -5.64244e-05 1.38846e-17 0)
(-1.72614e-05 -8.48385e-06 -3.25261e-19 4.03662e-05 -2.03288e-20 0)
(9.07191e-05 -0.000160692 6.10406e-17 -5.40942e-05 1.67238e-17 0)
(-0.000104518 -1.8212e-05 7.58942e-19 4.84806e-05 -3.38813e-20 0)
(-2.04883e-05 -8.09526e-05 1.0842e-19 3.5429e-05 -1.35525e-20 0)
(2.34515e-06 -3.86069e-06 3.25261e-19 6.31659e-07 -6.77626e-21 0)
(6.02247e-06 -4.07259e-06 3.25261e-19 -2.57591e-06 -1.35525e-20 0)
(0.000251895 -4.97965e-05 6.50521e-19 -0.000105532 2.64274e-19 0)
(-7.96215e-05 1.78473e-05 -2.1684e-19 -6.763e-06 -4.82809e-20 0)
(-1.92606e-06 -1.26441e-05 1.0842e-19 8.35761e-06 0 0)
(-4.36201e-05 5.38758e-05 2.1684e-19 -8.06152e-05 -5.75982e-20 0)
(-5.69079e-05 -4.30692e-05 0 5.86457e-05 1.01644e-20 0)
(-5.76636e-05 -3.90464e-05 1.0842e-19 5.96953e-05 3.38813e-21 0)
(4.80756e-06 -9.97334e-06 -1.0842e-19 5.42762e-07 1.35525e-20 0)
(0.000181008 -0.000120618 1.19262e-18 -7.07129e-05 4.20128e-19 0)
(-1.7628e-05 -2.96498e-05 1.0842e-19 3.68844e-05 6.77626e-21 0)
(-0.000159792 7.77585e-05 2.38524e-18 2.04206e-05 -1.35525e-18 0)
(0.00129642 -0.000249916 -1.03834e-14 -0.00103099 -4.09243e-15 0)
(0.00141425 2.38532e-06 -6.09505e-16 -0.00033681 -1.62847e-16 0)
(-0.000102466 -3.86482e-05 1.0842e-19 5.81025e-05 -5.75982e-20 0)
(0.000763255 0.000337682 -5.33156e-16 -0.000162982 -4.09395e-16 0)
(-1.34969e-05 -9.62593e-06 -1.0842e-19 2.99524e-05 0 0)
(0.000297328 -0.000113455 5.58364e-18 -0.000118604 3.58803e-18 0)
(-0.000157442 6.92623e-05 1.95156e-18 1.24121e-05 -1.36881e-18 0)
(-0.000158899 -1.95181e-05 4.11997e-18 6.19999e-05 -1.65341e-18 0)
(-9.38543e-05 -1.09043e-05 1.0842e-19 6.50488e-05 1.69407e-21 0)
(-0.000103628 -1.84252e-05 2.1684e-19 4.79551e-05 -3.38813e-20 0)
(7.81803e-05 -4.69157e-05 -2.1684e-19 -3.21084e-05 0 0)
(-9.94502e-06 -7.33252e-06 -1.0842e-19 2.40826e-05 -6.77626e-21 0)
(0.000478777 -3.13219e-05 4.44523e-18 -0.000229096 4.40457e-18 0)
(-8.03467e-05 -8.36541e-06 3.25261e-19 6.89172e-05 8.47033e-22 0)
(-0.000354007 7.8547e-05 5.99564e-17 8.54157e-05 2.1684e-17 0)
(-9.31109e-05 -1.68785e-05 1.0842e-19 6.54059e-05 -3.38813e-21 0)
(-9.684e-05 -1.39891e-05 -1.0842e-19 6.67994e-05 3.38813e-21 0)
(-8.78128e-05 -0.000148342 1.41272e-16 -9.19841e-06 5.00088e-18 0)
(0.000198433 -0.000143295 9.97466e-18 -7.60489e-05 4.25211e-18 0)
(-8.50221e-05 -3.15028e-05 5.42101e-19 6.77205e-05 6.77626e-21 0)
(5.23621e-06 -9.55817e-06 4.33681e-19 9.38452e-07 2.03288e-20 0)
(-3.28685e-05 -7.45151e-05 3.25261e-19 4.24301e-05 6.77626e-21 0)
(-3.2123e-05 -7.69263e-05 2.1684e-19 4.10664e-05 1.35525e-20 0)
(-9.80759e-05 -1.78878e-05 2.1684e-19 6.3925e-05 3.38813e-21 0)
(-0.000138113 -4.27235e-05 3.25261e-18 6.31724e-05 -1.27733e-18 0)
(-2.78509e-05 -2.35486e-05 -7.58942e-19 4.91818e-05 -2.03288e-20 0)
(-9.36237e-05 -1.99197e-05 1.0842e-19 6.47094e-05 0 0)
(-0.000300281 -6.8173e-05 1.4962e-16 4.82245e-05 1.1357e-17 0)
(-5.6499e-05 -0.000140807 1.25551e-16 -1.46856e-05 5.6243e-18 0)
(-0.000243679 -0.000101913 1.91579e-16 4.04804e-05 1.78351e-17 0)
(-2.88386e-05 -3.90845e-06 0 6.62443e-05 -5.0822e-21 0)
(-2.8253e-05 -4.28678e-06 1.0842e-19 6.43825e-05 3.38813e-21 0)
(2.98361e-07 -1.78112e-06 1.0842e-19 1.20989e-06 -2.03288e-20 0)
(1.09037e-07 -1.72821e-06 -4.33681e-19 1.377e-06 0 0)
(-1.0781e-05 -2.36347e-06 5.42101e-19 2.51788e-05 2.03288e-20 0)
(0.000481426 0.000286279 -5.35122e-17 -0.000114477 -1.56776e-16 0)
(-3.86914e-05 -6.729e-05 0 4.75456e-05 -6.77626e-21 0)
(-3.92064e-05 -6.92771e-05 0 4.57426e-05 -2.71051e-20 0)
(-8.60601e-05 -3.23619e-05 -2.1684e-19 6.75618e-05 6.77626e-21 0)
(-8.78161e-06 -2.43769e-05 -2.1684e-19 2.39461e-05 -1.35525e-20 0)
(-2.68175e-05 -1.11988e-05 2.1684e-19 5.76745e-05 3.38813e-21 0)
(-0.000109231 -5.19757e-05 4.33681e-19 6.37561e-05 -1.11808e-19 0)
(0.0010077 -1.36864e-05 -7.5882e-16 -0.000211655 -1.75424e-16 0)
(1.70055e-05 -2.58836e-05 4.33681e-19 -4.4609e-06 6.77626e-21 0)
(6.5217e-05 -1.01543e-05 1.0842e-19 -2.72002e-05 2.03288e-20 0)
(6.15501e-05 -1.54675e-05 3.25261e-19 -2.70234e-05 1.35525e-20 0)
(9.06688e-05 -6.40772e-05 -1.0842e-19 -3.11262e-05 -6.77626e-21 0)
(-0.000156304 -7.45722e-07 3.68629e-18 5.72254e-05 -1.484e-18 0)
(4.72783e-06 -6.03882e-06 -3.25261e-19 -1.03115e-06 -1.35525e-20 0)
(-1.44564e-05 -5.14047e-05 0 2.92395e-05 -1.35525e-20 0)
(-1.25017e-05 -4.99837e-05 4.33681e-19 2.96653e-05 2.03288e-20 0)
(9.01182e-05 -4.31781e-06 2.1684e-19 -3.78351e-05 6.77626e-21 0)
(-9.6518e-05 -0.000204477 6.29271e-16 -9.67235e-05 9.94755e-17 0)
(0.000643071 -1.10965e-05 3.30682e-18 -0.000275423 7.88757e-18 0)
(-0.000222617 2.09716e-05 2.22261e-17 5.29708e-05 -5.14996e-18 0)
(-2.78237e-06 5.37255e-05 2.1684e-19 -0.000129246 -2.71051e-20 0)
(0.000711753 -0.00124904 3.53016e-16 -0.0013167 6.48624e-16 0)
(1.92593e-05 -4.93068e-05 2.1684e-19 1.45702e-06 6.77626e-21 0)
(-4.26043e-05 -3.87066e-05 -2.1684e-19 5.18137e-05 -6.77626e-21 0)
(9.22134e-05 -5.37717e-06 1.0842e-19 -4.05349e-05 6.77626e-21 0)
(8.9395e-07 -2.63187e-06 -1.0842e-19 1.06937e-06 -2.03288e-20 0)
(-9.61534e-05 8.08929e-06 -4.33681e-19 1.52694e-05 -5.32043e-20 0)
(0.000410228 -0.000452704 2.51524e-15 -0.0004868 3.27635e-15 0)
(-0.00010738 3.50165e-05 0 6.96768e-06 -2.5411e-19 0)
(0.000158851 -0.000105709 8.67362e-19 -6.14213e-05 1.89735e-19 0)
(0.00120564 0.00013564 -2.19052e-15 -0.000635553 -9.15067e-16 0)
(2.38219e-05 -0.000138988 2.27682e-18 1.2169e-05 8.80914e-20 0)
(-1.2546e-05 -8.47853e-06 4.33681e-19 2.83161e-05 2.03288e-20 0)
(7.82185e-05 -3.21849e-05 1.0842e-19 -3.33245e-05 6.77626e-21 0)
(-4.81248e-05 -7.4023e-05 1.0842e-19 5.14588e-05 -1.35525e-20 0)
(1.02961e-05 -0.000131163 4.33681e-19 2.16426e-05 0 0)
(-7.22924e-05 -5.90213e-05 3.25261e-19 6.27297e-05 1.35525e-20 0)
(-8.72981e-05 -2.8133e-05 -1.0842e-19 6.80817e-05 -6.77626e-21 0)
(-9.41426e-05 -4.48936e-05 0 6.5272e-05 -6.77626e-21 0)
(-4.53677e-06 -0.000151588 7.48099e-18 1.98728e-05 2.42251e-19 0)
(-0.000100722 -2.88346e-05 6.50521e-19 5.61125e-05 -6.77626e-21 0)
(-1.70315e-05 7.63831e-05 0 -0.000110096 -4.06576e-20 0)
(9.01153e-06 -1.55262e-05 2.1684e-19 -5.28098e-07 -1.35525e-20 0)
(8.37157e-06 -1.75053e-05 4.33681e-19 1.02783e-06 6.77626e-21 0)
(0.000351525 -8.16717e-05 3.1984e-18 -0.000140541 2.0278e-18 0)
(-1.17809e-06 -9.12984e-07 0 2.75808e-06 -6.77626e-21 0)
(3.32375e-07 -3.57459e-05 2.1684e-19 1.48995e-05 1.35525e-20 0)
(-1.74221e-05 -1.19858e-05 -2.1684e-19 4.09415e-05 0 0)
(-6.58647e-05 -7.73104e-05 0 5.76072e-05 -6.77626e-21 0)
(-9.5138e-05 -2.71162e-06 2.1684e-19 6.55628e-05 4.23516e-22 0)
(2.89854e-05 -0.000142711 1.40946e-18 1.23772e-05 6.77626e-20 0)
(1.8342e-05 -0.000118242 4.33681e-19 1.62614e-05 -1.35525e-20 0)
(-6.27596e-05 -9.27529e-05 0 5.41094e-05 -2.03288e-20 0)
(-1.19285e-05 -6.32539e-05 -1.0842e-19 2.76908e-05 -3.38813e-20 0)
(-0.00040874 9.16337e-05 6.77626e-17 8.58125e-05 3.34747e-17 0)
(3.91137e-05 -3.70993e-05 1.0842e-19 -1.28805e-05 6.77626e-21 0)
(-5.46773e-05 -2.39942e-05 1.0842e-19 5.97229e-05 -1.69407e-21 0)
(0.000385006 0.000148003 -1.61038e-17 -3.21175e-05 -3.91397e-17 0)
(8.47068e-07 -3.45593e-05 -1.0842e-19 1.26116e-05 -2.03288e-20 0)
(0.000166868 -0.000105995 4.33681e-19 -6.30086e-05 1.42302e-19 0)
(-9.72667e-06 -2.41154e-05 -3.25261e-19 2.4231e-05 -1.35525e-20 0)
(-1.73256e-05 -2.95548e-05 -1.0842e-19 3.59883e-05 1.35525e-20 0)
(-2.67624e-05 -5.69695e-05 0 3.83328e-05 -6.77626e-21 0)
(-6.42137e-05 -7.52666e-05 1.0842e-19 5.70671e-05 -2.71051e-20 0)
(-5.4478e-05 -9.68099e-05 0 5.3266e-05 -6.09864e-20 0)
(-2.66339e-05 -9.75997e-06 0 5.88045e-05 -1.01644e-20 0)
(-3.22328e-05 -5.39059e-06 0 5.57508e-05 -8.47033e-22 0)
(-3.10937e-05 -5.53297e-06 -1.0842e-19 5.57076e-05 1.69407e-21 0)
(-2.62497e-05 -2.42561e-05 -4.33681e-19 4.83965e-05 -1.01644e-20 0)
(-2.58703e-05 -4.11366e-05 -3.25261e-19 4.15838e-05 -2.03288e-20 0)
(-1.29831e-05 -1.30278e-05 -5.42101e-19 2.87443e-05 -4.74338e-20 0)
(-2.56435e-05 -8.75586e-06 -1.0842e-19 5.80007e-05 1.01644e-20 0)
(-9.35819e-05 -1.06176e-08 -4.33681e-19 2.75486e-05 -1.05879e-20 0)
(1.13557e-06 -6.93612e-05 -1.0842e-19 1.66362e-05 -6.77626e-21 0)
(-1.71992e-05 -2.04137e-05 -2.1684e-19 3.98978e-05 -1.35525e-20 0)
(-0.000182767 3.21771e-05 5.52943e-18 4.731e-05 -2.29715e-18 0)
(-8.29124e-05 -3.64478e-05 1.0842e-19 6.71485e-05 6.77626e-21 0)
(-0.00014772 7.20315e-05 1.0842e-18 7.11853e-06 -9.41901e-19 0)
(-3.55985e-05 -2.43983e-05 1.0842e-19 5.26822e-05 0 0)
(-3.60225e-05 -2.38257e-05 -1.0842e-19 5.21463e-05 3.38813e-21 0)
(-0.00014705 5.6726e-05 1.84314e-18 2.42572e-05 -1.17229e-18 0)
(-4.95589e-05 -0.000104356 1.0842e-19 5.01422e-05 -4.06576e-20 0)
(-5.37778e-05 -8.45256e-05 -3.25261e-19 5.24218e-05 -2.71051e-20 0)
(-4.71169e-06 -1.14814e-05 4.33681e-19 1.48567e-05 0 0)
(0.000549578 -0.000336945 5.44606e-15 -0.000583688 3.47216e-15 0)
(0.000473329 5.10965e-05 -2.15214e-17 -0.000206643 -5.72459e-17 0)
(6.85442e-05 -8.8619e-05 1.0842e-19 -1.82431e-05 6.77626e-21 0)
(0.00116351 -6.84209e-05 -2.87265e-15 -0.000712361 -1.08333e-15 0)
(-0.00020228 -0.000620055 1.2837e-15 -0.000287703 1.99184e-15 0)
(0.000118326 -0.000425441 1.43299e-15 -0.000169923 2.25606e-15 0)
(-4.81192e-05 -8.95237e-05 0 5.1746e-05 1.35525e-20 0)
(-9.6082e-05 -1.50673e-05 2.1684e-19 6.36486e-05 0 0)
(-9.83119e-05 -1.53613e-05 1.0842e-19 6.50701e-05 0 0)
(0.000547468 -0.000269633 5.88418e-15 -0.00065898 4.73753e-15 0)
(-6.64234e-05 -5.69043e-05 -1.0842e-19 6.09789e-05 2.03288e-20 0)
(-9.39191e-05 -3.92202e-05 0 6.34562e-05 0 0)
(5.33421e-05 -8.06729e-05 -1.0842e-19 -1.20134e-05 -6.77626e-21 0)
(4.30364e-05 -3.1042e-05 1.0842e-19 -1.76901e-05 1.35525e-20 0)
(-0.000176326 3.39331e-05 5.63785e-18 4.45036e-05 -2.31748e-18 0)
(-8.47762e-05 -7.9023e-06 1.0842e-19 6.90193e-05 1.69407e-21 0)
(3.28165e-05 -0.000131602 5.42101e-19 1.02219e-05 4.06576e-20 0)
(0.000660513 5.44655e-06 -1.70762e-18 -0.000284931 2.54788e-18 0)
(1.37955e-05 -1.05013e-05 -3.25261e-19 -5.31765e-06 -2.03288e-20 0)
(-3.22071e-05 -8.61936e-05 0 4.19765e-05 -6.77626e-21 0)
(5.55692e-05 -9.91937e-05 0 -9.33824e-06 2.03288e-20 0)
(2.49649e-05 2.9228e-05 2.1684e-19 -0.000163838 -6.77626e-21 0)
(4.95737e-05 -6.64107e-05 2.1684e-19 -1.24965e-05 0 0)
(-4.18384e-06 5.80613e-05 -1.0842e-19 -0.000121472 -2.71051e-20 0)
(-0.000139629 -4.58408e-05 3.14419e-18 6.71552e-05 -1.10623e-18 0)
(-0.000215112 -8.76878e-06 2.5804e-17 6.3562e-05 -5.86824e-18 0)
(-2.85121e-05 -1.00229e-06 0 6.43951e-05 -2.11758e-21 0)
(1.23886e-08 1.89441e-07 1.0842e-19 1.73749e-08 -6.77626e-21 0)
(-8.57189e-05 -0.00014809 1.01156e-16 1.07242e-06 1.73472e-18 0)
(-4.19241e-06 -1.7422e-05 1.0842e-19 1.36623e-05 0 0)
(-6.40785e-05 -6.14045e-05 2.1684e-19 6.04649e-05 1.35525e-20 0)
(-1.95598e-05 -3.96092e-05 -1.0842e-19 3.5657e-05 -6.77626e-21 0)
(-1.93788e-05 -3.87885e-05 -1.0842e-19 3.77338e-05 -6.77626e-21 0)
(-2.67273e-05 -5.41298e-05 0 3.86058e-05 -1.35525e-20 0)
(-9.46404e-06 -0.000141207 1.95156e-18 2.81024e-05 -6.09864e-20 0)
(0.000450437 -2.11338e-05 3.16587e-17 -0.000256775 2.77827e-17 0)
(-4.95582e-05 -6.46194e-05 3.25261e-19 5.31906e-05 6.77626e-21 0)
(-1.01598e-05 -2.83164e-06 -1.0842e-19 2.33607e-05 -2.71051e-20 0)
(-1.34542e-05 -1.30865e-05 3.25261e-19 3.2667e-05 6.77626e-21 0)
(5.24363e-05 0.00012202 -7.58942e-19 -0.000206149 1.35525e-19 0)
(3.54266e-05 -0.00012509 4.33681e-19 5.32468e-06 4.74338e-20 0)
(-0.000104496 -2.50005e-05 6.50521e-19 5.57116e-05 -2.37169e-20 0)
(1.41992e-05 -1.09275e-05 -2.1684e-19 -4.90771e-06 0 0)
(0.000185751 -0.000106681 5.42101e-19 -7.02887e-05 2.23617e-19 0)
(-5.50402e-05 -1.67614e-05 0 6.01432e-05 -1.69407e-21 0)
(0.00100124 7.79234e-06 -1.29779e-16 -0.000868951 -2.01239e-15 0)
(-3.16807e-05 -2.70133e-05 3.25261e-19 5.03076e-05 1.01644e-20 0)
(-0.000111402 9.63286e-05 9.75782e-19 -2.79372e-05 -5.6243e-19 0)
(-0.000101081 -2.72018e-05 3.25261e-19 5.81673e-05 -1.01644e-20 0)
(-4.64161e-05 5.10163e-05 0 -6.35932e-05 -6.09864e-20 0)
(0.00024147 -0.000139488 1.27285e-16 -0.000170928 6.67055e-17 0)
(-9.84191e-05 -3.0301e-05 0 6.0348e-05 -1.01644e-20 0)
(-3.34888e-05 -5.74967e-06 -1.0842e-19 5.57029e-05 8.47033e-22 0)
(-2.69732e-05 -1.20729e-05 2.1684e-19 5.66461e-05 3.38813e-21 0)
(-2.52873e-05 -8.58616e-06 -4.33681e-19 5.80911e-05 -1.01644e-20 0)
(-8.89845e-05 -4.009e-05 0 6.60185e-05 -1.01644e-20 0)
(-5.2108e-05 -7.0838e-05 -1.0842e-19 5.3825e-05 -2.03288e-20 0)
(0.000300499 -0.000122453 6.28837e-18 -0.000119606 3.6253e-18 0)
(-9.29944e-05 -3.6825e-05 -2.1684e-19 6.69822e-05 1.01644e-20 0)
(0.000106596 -1.6261e-05 -1.0842e-19 -4.71416e-05 0 0)
(0.000938343 0.000293431 -3.2499e-16 -0.000564981 -1.05916e-15 0)
(0.00119894 -0.000118997 -4.8312e-15 -0.00100893 -3.904e-15 0)
(6.41811e-06 -3.58907e-06 4.33681e-19 -2.29307e-06 1.35525e-20 0)
(-3.23376e-05 -3.13283e-06 -3.25261e-19 5.64508e-05 -2.5411e-21 0)
(5.16966e-05 -3.80769e-05 5.42101e-19 -1.90325e-05 3.38813e-20 0)
(-3.0111e-05 -0.000109745 2.1684e-19 3.97393e-05 -4.74338e-20 0)
(0.00109986 0.0002421 -1.0784e-15 -0.0006942 -1.27318e-15 0)
(0.000481888 0.000200945 -5.2123e-17 -9.31968e-05 -9.69277e-17 0)
(-7.14433e-05 -1.91098e-06 1.0842e-19 6.65943e-05 -6.35275e-22 0)
(-4.14557e-05 -9.08417e-05 4.33681e-19 4.70374e-05 2.03288e-20 0)
(-4.60402e-05 -8.63415e-05 1.0842e-19 4.82478e-05 -1.35525e-20 0)
(-4.66406e-08 -1.89512e-05 0 1.06963e-05 6.77626e-21 0)
(-0.000155346 1.30962e-05 3.25261e-18 4.47396e-05 -1.40269e-18 0)
(-0.000234785 6.01737e-05 1.81062e-17 4.82937e-05 -4.10642e-18 0)
(-2.88648e-05 -3.67975e-07 3.25261e-19 6.68138e-05 0 0)
(-4.48158e-07 4.13092e-07 -2.1684e-19 2.92763e-07 -6.77626e-21 0)
(0.000880534 0.000255357 -7.57207e-16 -0.000330587 -5.30392e-16 0)
(8.1365e-05 -4.05996e-05 -4.33681e-19 -3.253e-05 -6.77626e-21 0)
(-5.20899e-06 7.55707e-05 -3.25261e-19 -0.000135238 -2.71051e-20 0)
(-3.67705e-07 -1.42307e-05 1.0842e-19 9.20922e-06 1.35525e-20 0)
(-3.31491e-05 -1.54517e-05 3.25261e-19 5.36031e-05 1.69407e-21 0)
(2.08748e-05 -9.05344e-05 1.0842e-19 6.82845e-06 3.38813e-20 0)
(-3.8917e-05 -7.57242e-05 0 4.53673e-05 -1.35525e-20 0)
(-9.67645e-05 -2.41525e-05 6.50521e-19 6.07173e-05 6.77626e-21 0)
(-7.33462e-05 -6.10341e-05 -7.58942e-19 6.22047e-05 -6.77626e-21 0)
(-7.49957e-05 -5.18664e-05 -4.33681e-19 6.33179e-05 -2.03288e-20 0)
(6.52244e-05 5.56379e-05 3.25261e-19 -0.00021022 1.69407e-20 0)
(-7.59676e-05 -5.62339e-05 3.25261e-19 6.27461e-05 0 0)
(-3.30979e-05 -0.000442952 3.00617e-15 -0.000256355 1.75521e-15 0)
(2.28114e-05 -0.000136492 5.42101e-19 1.46872e-05 2.03288e-20 0)
(1.1564e-05 -0.000128611 1.19262e-18 1.84887e-05 2.03288e-20 0)
(-8.12177e-05 -4.16957e-05 3.25261e-19 6.67475e-05 0 0)
(1.11139e-05 -0.000147433 9.21572e-18 1.40806e-05 4.81115e-19 0)
(4.33643e-05 -3.20364e-05 2.1684e-19 -1.54265e-05 3.38813e-20 0)
(-2.93363e-05 -1.52547e-06 4.33681e-19 6.29008e-05 0 0)
(7.3719e-07 -7.57344e-07 -3.25261e-19 -1.31694e-07 -6.77626e-21 0)
(0.000418158 0.000105754 -3.04254e-17 -2.16388e-05 -4.85723e-17 0)
(7.89829e-05 -7.97537e-05 2.1684e-19 -2.39106e-05 -6.77626e-21 0)
(5.59939e-06 -0.000134376 1.95156e-18 2.22735e-05 -2.03288e-20 0)
(-7.87632e-05 0.000149466 2.1684e-19 -9.96901e-05 -1.0842e-19 0)
(-0.000109323 -6.33526e-05 1.19262e-18 6.34782e-05 -3.32037e-19 0)
(3.5544e-05 -0.000166037 3.39355e-17 -1.57236e-05 5.51927e-18 0)
(0.000174586 -0.00011669 1.30104e-18 -6.38731e-05 3.86247e-19 0)
(8.33882e-05 -6.82972e-05 2.1684e-19 -3.16347e-05 -6.77626e-21 0)
(-1.57582e-05 -1.48245e-05 1.0842e-19 3.81275e-05 -1.35525e-20 0)
(6.98349e-05 4.57724e-05 -4.33681e-19 -0.000204304 2.71051e-20 0)
(-5.00961e-05 -7.38333e-05 -7.58942e-19 5.14475e-05 -1.35525e-20 0)
(0.000122579 -0.000152821 3.79471e-18 -3.94274e-05 1.07065e-18 0)
(0.00193764 2.48266e-05 -1.9292e-16 -0.00101835 -2.41994e-16 0)
(-6.87297e-05 8.35516e-06 4.33681e-19 -1.76404e-05 -1.27055e-20 0)
(-1.18849e-05 -2.78911e-06 -2.1684e-19 2.82742e-05 -1.35525e-20 0)
(-1.3683e-05 -9.26534e-06 -3.25261e-19 3.46963e-05 -2.03288e-20 0)
(1.34746e-06 -1.91805e-05 5.42101e-19 9.12488e-06 1.35525e-20 0)
(8.19732e-05 -3.99316e-05 1.0842e-19 -3.19443e-05 6.77626e-21 0)
(-6.84743e-05 1.34257e-05 -3.25261e-19 -2.94422e-05 -1.48231e-20 0)
(-7.12444e-05 -5.74765e-05 5.42101e-19 6.30273e-05 2.03288e-20 0)
(0.000561956 0.000339517 -8.18844e-17 -0.000230349 -3.80555e-16 0)
(0.000505309 0.000250719 -3.59413e-17 -0.00025483 -1.2631e-16 0)
(-5.20755e-05 -0.000110223 9.75782e-19 5.07698e-05 -4.06576e-20 0)
(-4.28138e-05 -0.000107411 4.33681e-19 4.66058e-05 -7.45389e-20 0)
(-9.28545e-06 -7.71606e-06 -4.33681e-19 2.16944e-05 0 0)
(0.000177086 -5.04734e-05 3.25261e-19 -7.68377e-05 4.74338e-20 0)
(-7.16337e-05 -6.76827e-05 -1.0842e-19 6.12162e-05 -6.77626e-21 0)
(2.87175e-06 -8.62966e-06 3.25261e-19 2.63235e-06 -6.77626e-21 0)
(-0.000112877 -1.23846e-05 -2.1684e-19 4.59134e-05 -9.14796e-20 0)
(-0.00011573 2.59472e-05 2.1684e-19 2.13334e-05 -3.35425e-19 0)
(7.30545e-05 -8.16982e-05 1.0842e-19 -2.40308e-05 6.77626e-21 0)
(-0.000180651 -9.52755e-05 9.45424e-17 3.13647e-05 -6.31548e-18 0)
(-0.000119872 3.18055e-05 4.33681e-19 1.7619e-05 -2.94767e-19 0)
(-2.61066e-05 -1.40532e-05 0 5.42235e-05 0 0)
(-2.68348e-05 -1.57564e-05 2.1684e-19 5.30752e-05 3.38813e-21 0)
(0.000327741 -0.000258716 2.60274e-15 -0.000471616 8.75927e-16 0)
(0.000270037 -0.000129334 1.07878e-17 -0.000115382 6.36969e-18 0)
(-0.000108363 -3.41731e-05 2.1684e-19 5.77833e-05 -5.75982e-20 0)
(-5.10693e-05 -7.04479e-05 0 5.19072e-05 6.77626e-21 0)
(2.82933e-05 -0.000411941 2.76341e-15 -0.000241212 1.49305e-15 0)
(-2.64365e-05 -1.23442e-05 -1.0842e-19 5.51192e-05 0 0)
(-0.000100557 -1.02677e-05 0 4.79481e-05 -6.77626e-21 0)
(-9.8306e-05 -1.15814e-05 -1.0842e-19 4.76348e-05 -5.92923e-21 0)
(2.08573e-05 -4.17759e-05 1.0842e-19 -2.06182e-06 -6.77626e-21 0)
(-4.14002e-05 -3.16292e-05 0 5.34581e-05 6.77626e-21 0)
(-7.03228e-05 -5.27649e-05 3.25261e-19 6.34894e-05 0 0)
(-2.62587e-05 -4.09818e-05 2.1684e-19 4.27414e-05 6.77626e-21 0)
(-3.0507e-05 -2.31583e-06 0 7.03933e-05 0 0)
(1.36119e-07 9.96988e-08 -2.1684e-19 5.27435e-08 6.77626e-21 0)
(-9.56469e-05 -3.15037e-05 -1.0842e-19 6.49687e-05 -1.35525e-20 0)
(-6.94259e-05 -2.24616e-06 0 6.62957e-05 0 0)
(-0.000194745 5.05827e-05 6.72205e-18 4.50848e-05 -2.61564e-18 0)
(-7.26886e-05 -8.32791e-05 1.0842e-19 6.05731e-05 -1.35525e-20 0)
(-8.11319e-05 -2.48222e-05 -2.1684e-19 6.81281e-05 -3.38813e-21 0)
(-9.22304e-05 9.043e-06 -5.42101e-19 1.32884e-05 -3.40931e-20 0)
(-9.73626e-05 -1.02662e-05 1.0842e-19 6.37907e-05 -8.47033e-22 0)
(-0.000100439 -1.26171e-05 1.0842e-19 5.8107e-05 -5.0822e-21 0)
(-9.78847e-05 -9.65065e-06 2.1684e-19 5.46901e-05 -1.69407e-21 0)
(-7.23875e-05 -4.91361e-05 -2.1684e-19 6.42015e-05 -6.77626e-21 0)
(2.27827e-05 -3.79145e-05 2.1684e-19 -5.05042e-06 1.35525e-20 0)
(-4.2342e-05 -2.80701e-05 0 5.48631e-05 -6.77626e-21 0)
(-0.000104843 -4.74682e-05 1.0842e-19 6.03928e-05 -1.0842e-19 0)
(2.24482e-05 -4.31063e-05 -3.25261e-19 -2.66329e-06 -2.71051e-20 0)
(-4.33312e-05 -3.24356e-05 1.0842e-19 5.3772e-05 0 0)
(-1.70053e-05 -0.000103461 -1.0842e-19 3.42639e-05 -3.38813e-20 0)
(-1.70838e-05 -0.000104044 3.25261e-19 3.23896e-05 4.74338e-20 0)
(0.000594448 -7.51346e-06 5.42101e-19 -0.000259721 5.39391e-18 0)
(2.49043e-05 -6.55882e-05 2.1684e-19 2.11709e-06 2.71051e-20 0)
(-5.96335e-06 -9.80503e-06 0 1.3206e-05 2.03288e-20 0)
(-7.55533e-05 -4.89545e-05 -3.25261e-19 6.42607e-05 3.38813e-21 0)
(-9.90354e-05 -2.59345e-06 1.0842e-19 5.51146e-05 0 0)
(8.90445e-06 -3.07063e-05 -2.1684e-19 5.73148e-06 1.35525e-20 0)
(-9.60376e-05 -2.02463e-05 -2.1684e-19 6.52711e-05 0 0)
(-0.000113512 -2.05954e-05 1.0842e-19 5.18354e-05 -9.99499e-20 0)
(-0.000107852 -1.49118e-05 2.1684e-19 4.38549e-05 -9.48677e-20 0)
(6.43838e-05 -8.90901e-05 1.0842e-19 -1.82618e-05 -2.03288e-20 0)
(0.00154338 -0.00203352 4.07443e-16 -0.00200765 6.26127e-16 0)
(-2.85922e-06 -1.66344e-05 2.1684e-19 1.30467e-05 -1.35525e-20 0)
(0.00044528 -6.64771e-05 4.39102e-18 -0.000196784 4.77049e-18 0)
(0.000481138 -3.97571e-05 4.01155e-18 -0.000206105 4.2826e-18 0)
(-0.000101328 -0.00011549 1.88651e-17 5.03856e-05 -2.0837e-18 0)
(-0.000101206 4.77257e-07 3.25261e-19 2.91039e-05 -3.72694e-20 0)
(-2.94493e-05 -2.39073e-06 0 6.53902e-05 8.47033e-22 0)
(3.19034e-07 -3.86471e-07 2.1684e-19 4.91078e-07 0 0)
(-9.74874e-05 -5.04691e-05 -3.25261e-19 6.2712e-05 -4.40457e-20 0)
(-0.000173901 -4.18275e-05 1.87567e-17 6.28186e-05 -4.66207e-18 0)
(-9.99799e-05 -5.20865e-06 0 3.4435e-05 -3.13402e-20 0)
(-0.000249238 0.000262174 9.6494e-18 -4.57646e-05 9.86624e-18 0)
(5.52461e-05 -8.09793e-05 -1.0842e-19 -1.21303e-05 -2.03288e-20 0)
(3.0616e-05 -3.8462e-05 -4.33681e-19 -7.32234e-06 0 0)
(-4.85067e-05 -2.71394e-05 -2.1684e-19 5.62952e-05 -6.77626e-21 0)
(-8.93759e-05 -0.00010988 1.66967e-17 4.55162e-05 -1.48061e-18 0)
(-6.4499e-05 5.90659e-05 4.33681e-19 -5.65014e-05 -1.21973e-19 0)
(-3.02376e-05 -1.33478e-06 1.0842e-19 6.9649e-05 -1.69407e-21 0)
(4.14642e-07 7.9944e-08 -5.42101e-19 2.08512e-09 -4.06576e-20 0)
(0.00060073 0.000242555 -6.25856e-17 -0.000355904 -2.85687e-16 0)
(-0.000150006 -0.000103333 8.22909e-17 3.17216e-05 -6.74916e-18 0)
(-7.06365e-05 -1.31499e-05 -3.25261e-19 6.73336e-05 -5.0822e-21 0)
(-7.69668e-05 -0.000140613 1.70111e-16 -1.70373e-05 8.29415e-18 0)
(0.000596086 0.000319089 -1.48956e-16 -0.000203368 -4.17309e-16 0)
(-6.18129e-05 -8.34944e-05 1.0842e-19 5.50165e-05 1.35525e-20 0)
(-3.33604e-05 -1.55936e-05 -3.25261e-19 5.38032e-05 -3.38813e-21 0)
(0.000134421 -0.00015046 4.77049e-18 -4.05361e-05 1.3417e-18 0)
(2.79681e-05 2.34312e-05 1.0842e-19 -0.000155321 -2.5411e-21 0)
(1.31302e-05 -6.54199e-05 0 9.93874e-06 1.35525e-20 0)
(0.000596853 0.00032401 -1.0529e-16 -0.000217519 -3.46511e-16 0)
(7.24185e-05 -3.87965e-05 -4.33681e-19 -2.96774e-05 -1.35525e-20 0)
(0.000584148 0.000277253 -8.66278e-17 -0.000304184 -3.92698e-16 0)
(-2.85058e-05 -1.16083e-05 1.0842e-19 5.61273e-05 0 0)
(0.000381841 -6.06856e-05 3.46945e-18 -0.000153864 2.74439e-18 0)
(8.18347e-05 -0.000149916 4.11997e-18 -1.59161e-05 5.82759e-19 0)
(0.000114702 -0.000133066 9.75782e-19 -3.66865e-05 2.23617e-19 0)
(-1.40405e-05 -2.27004e-05 -1.0842e-19 3.10418e-05 -6.77626e-21 0)
(0.000491511 -1.96548e-06 2.20635e-17 -0.000298761 1.96783e-17 0)
(1.01591e-05 -3.37588e-05 -2.1684e-19 5.42943e-06 -2.03288e-20 0)
(2.4651e-05 -6.39714e-05 2.1684e-19 -4.17071e-07 -6.77626e-21 0)
(5.99745e-05 3.28197e-05 -1.0842e-19 -0.00019241 0 0)
(1.07485e-05 -6.44691e-05 -7.58942e-19 9.95096e-06 -1.35525e-20 0)
(-1.81384e-05 -2.46286e-06 0 4.23142e-05 1.35525e-20 0)
(4.55949e-05 2.48056e-05 -2.1684e-19 -0.0001873 6.77626e-21 0)
(2.06715e-05 -9.03315e-05 4.33681e-19 1.0246e-05 4.74338e-20 0)
(-0.000212358 -0.000760661 6.12791e-16 -5.86049e-05 9.8001e-16 0)
(-8.53659e-05 1.28776e-05 -1.0842e-19 6.77578e-07 -4.23516e-20 0)
(0.000910773 0.000113996 -9.90961e-17 -0.000757302 -1.33899e-15 0)
(0.000244089 -0.000149753 1.07336e-16 -0.000174642 5.55383e-17 0)
(-5.39667e-05 8.66657e-05 2.1684e-19 -8.21395e-05 -1.21973e-19 0)
(-8.92873e-05 1.5452e-06 1.0842e-19 1.9894e-05 -2.11758e-21 0)
(-0.000183898 7.11288e-05 5.96311e-18 2.6305e-05 -2.33103e-18 0)
(0.00013442 -0.000118089 5.42101e-19 -4.20508e-05 1.28749e-19 0)
(2.34204e-05 -5.98948e-05 -1.0842e-19 -2.78054e-07 0 0)
(-0.000239429 6.36706e-05 1.68051e-17 5.4318e-05 -3.27971e-18 0)
(0.000481965 1.3393e-06 3.36103e-17 -0.000332533 2.36898e-17 0)
(-0.000403112 -0.000578601 1.2645e-15 -9.77782e-05 1.84314e-15 0)
(2.80249e-06 -6.02728e-06 -1.0842e-19 1.62647e-06 6.77626e-21 0)
(1.58479e-06 -4.7983e-06 0 1.32454e-06 2.71051e-20 0)
(-9.96806e-05 -1.3484e-05 1.0842e-19 4.66407e-05 -1.69407e-20 0)
(-9.88812e-05 -8.72691e-06 4.33681e-19 4.25888e-05 -1.69407e-21 0)
(0.000481524 0.000217963 -7.88079e-17 -2.5152e-05 -9.83371e-17 0)
(0.000494009 2.88031e-05 2.09793e-17 -0.000277371 1.60462e-17 0)
(0.00163882 -0.00082942 -4.35475e-15 -0.00144136 -2.01618e-15 0)
(-5.15148e-05 -6.11267e-05 -2.1684e-19 5.39634e-05 -6.77626e-21 0)
(-7.88951e-07 -2.46705e-06 -1.0842e-19 2.36502e-06 6.77626e-21 0)
(-8.52708e-05 -5.0701e-05 -1.0842e-19 6.44943e-05 -1.35525e-20 0)
(-2.76628e-05 7.39405e-05 3.25261e-19 -0.000110547 -5.42101e-20 0)
(0.000200771 -8.78139e-05 0 -8.26656e-05 1.76183e-19 0)
(-6.40072e-05 -9.60501e-05 2.1684e-19 5.62471e-05 -4.74338e-20 0)
(-8.79493e-05 -4.7766e-05 -1.0842e-19 6.62072e-05 -6.77626e-21 0)
(-8.73492e-05 1.88262e-05 3.25261e-19 -4.40362e-06 -4.78574e-20 0)
(0.00439154 -0.00134817 1.23924e-16 -0.00464001 -9.83913e-17 0)
(1.36502e-05 -8.2598e-05 1.0842e-19 1.1705e-05 0 0)
(1.56073e-05 -8.0133e-05 2.1684e-19 8.91199e-06 -6.77626e-21 0)
(7.2484e-05 -0.000152497 3.25261e-18 -1.30644e-05 4.5401e-19 0)
(8.38863e-05 -0.000166518 9.43256e-18 -2.32235e-05 2.00555e-18 0)
(0.000328631 -0.000125628 2.35272e-17 -0.000162549 1.73608e-17 0)
(0.000157742 -0.000156158 3.47487e-16 -0.000170474 1.24927e-16 0)
(1.07139e-06 -6.99364e-06 5.42101e-19 2.70094e-06 0 0)
(-6.06683e-05 5.09021e-05 0 -4.58041e-05 -8.80914e-20 0)
(0.000104428 -0.000153317 7.80626e-18 -2.89974e-05 1.87789e-18 0)
(0.000165613 -0.000167441 2.79616e-16 -0.000178089 1.00289e-16 0)
(7.83139e-05 -0.000107028 -2.1684e-19 -1.75007e-05 0 0)
(6.63447e-05 -0.000106563 1.0842e-19 -1.62263e-05 2.03288e-20 0)
(-2.83858e-05 -3.94778e-05 2.1684e-19 4.34324e-05 3.38813e-21 0)
(-2.81432e-05 -1.72139e-05 4.33681e-19 5.28294e-05 6.77626e-21 0)
(0.00105383 0.00016591 -1.61573e-15 -0.000710528 -1.60321e-15 0)
(-7.33008e-05 5.60467e-05 2.1684e-19 -4.11917e-05 -1.38913e-19 0)
(-1.88695e-05 -5.55988e-05 2.1684e-19 3.33269e-05 -1.35525e-20 0)
(-5.96922e-06 -4.65188e-06 0 1.26255e-05 0 0)
(-1.55913e-05 -6.26164e-05 -1.0842e-19 3.13052e-05 1.35525e-20 0)
(-8.34483e-05 -4.08574e-05 4.33681e-19 6.64347e-05 -3.38813e-21 0)
(-1.56713e-05 -5.19294e-05 1.0842e-19 3.02718e-05 0 0)
(-0.000110404 -3.7827e-06 1.0842e-19 3.59817e-05 -9.74088e-20 0)
(0.000150358 -5.77342e-05 5.42101e-19 -6.14748e-05 2.71051e-20 0)
(2.12036e-05 -2.74602e-05 -2.1684e-19 -4.0974e-06 0 0)
(-0.000276164 -0.000114397 2.63461e-16 3.14843e-05 5.14183e-17 0)
(-0.0002315 0.000274793 8.67362e-18 -3.91783e-05 1.26581e-17 0)
(0.00215199 -0.0018067 4.22622e-16 -0.00298928 5.98859e-16 0)
(-5.45245e-05 -8.48982e-05 3.25261e-19 5.42805e-05 6.77626e-21 0)
(3.60581e-07 5.15938e-07 -1.0842e-19 -4.76001e-07 0 0)
(-3.22398e-05 3.90588e-07 -2.1684e-19 7.43784e-05 -2.5411e-21 0)
(-2.6675e-05 -1.37928e-05 1.0842e-19 5.4303e-05 3.38813e-21 0)
(-0.000106135 -1.95004e-05 2.1684e-19 4.7291e-05 -6.94567e-20 0)
(-3.85785e-05 -6.42137e-05 0 4.52288e-05 0 0)
(-1.0044e-05 -6.49977e-05 -3.25261e-19 2.57577e-05 -6.77626e-21 0)
(-5.18167e-06 -6.88587e-05 2.1684e-19 2.41438e-05 0 0)
(-0.000270194 5.43822e-05 3.69713e-17 5.41414e-05 -2.08709e-18 0)
(-9.36037e-05 -2.33929e-06 4.33681e-19 2.58518e-05 -1.60936e-20 0)
(-3.78916e-05 -6.16885e-05 -1.0842e-19 4.50383e-05 -1.35525e-20 0)
(-3.35291e-05 -6.09822e-05 -1.0842e-19 4.51299e-05 -1.35525e-20 0)
(-2.29662e-05 -1.56551e-05 -3.25261e-19 4.90705e-05 -6.77626e-21 0)
(-3.5176e-05 -7.91236e-05 -1.0842e-19 4.46195e-05 0 0)
(1.70887e-05 0.000144912 4.33681e-19 -0.000182013 1.6263e-19 0)
(-2.42939e-05 -4.82338e-05 2.1684e-19 3.90498e-05 1.35525e-20 0)
(-2.3186e-05 -5.01186e-05 0 3.75305e-05 6.77626e-21 0)
(-1.62386e-05 -1.2597e-05 0 3.7163e-05 2.71051e-20 0)
(-9.07139e-05 1.22615e-06 2.1684e-19 1.8911e-05 -7.6233e-21 0)
(-2.1184e-05 4.63088e-05 1.0842e-19 -9.20642e-05 -4.06576e-20 0)
(-7.27107e-05 -9.29022e-05 0 5.81471e-05 -9.48677e-20 0)
(0.000591526 0.000302796 -1.06875e-16 -0.000262321 -4.60678e-16 0)
(-8.65406e-05 -4.62374e-05 1.0842e-19 6.56158e-05 -3.38813e-21 0)
(3.75662e-05 -0.000113664 6.50521e-19 1.9335e-06 2.03288e-20 0)
(-1.35754e-05 -2.47679e-05 -2.1684e-19 3.30947e-05 -2.71051e-20 0)
(-8.71796e-05 -6.54264e-05 1.0842e-19 6.17066e-05 -4.06576e-20 0)
(-3.26639e-05 -5.79825e-05 1.0842e-19 4.36795e-05 1.35525e-20 0)