/*--------------------------------*- C++ -*----------------------------------*\
| =========                 |                                                 |
| \\      /  F ield         | OpenFOAM: The Open Source CFD Toolbox           |
|  \\    /   O peration     | Version:  v2012                                 |
|   \\  /    A nd           | Website:  www.openfoam.com                      |
|    \\/     M anipulation  |                                                 |
\*---------------------------------------------------------------------------*/
FoamFile
{
    version     2.0;
    format      ascii;
    class       volScalarField;
    location    "20";
    object      epsilonEq;
}
// * * * * * * * * * * * * * * * * * * * * * * * * * * * * * * * * * * * * * //

dimensions      [0 0 0 0 0 0 0];


internalField   nonuniform List<scalar> 
7666
(
6.7905e-05
9.40896e-05
0.00159885
0.000107116
0.000157259
0.000243436
2.81035e-05
9.819e-05
0.000444126
4.25309e-05
0.000107257
3.7327e-05
0.00010042
8.64277e-05
3.43783e-05
0.000263871
9.68177e-05
0.00021524
6.11044e-05
7.05721e-05
8.24669e-05
0.000119246
8.55528e-05
0.000118195
0.000217083
3.55283e-05
0.000203884
9.27038e-05
9.90193e-05
4.67296e-06
6.93387e-06
0.000219707
5.49846e-05
1.59063e-05
7.77257e-05
8.32135e-05
8.13899e-05
1.19108e-05
0.000204624
4.69455e-05
0.000145071
0.00137722
0.00107287
0.000103944
0.000691409
2.79806e-05
0.000279961
0.000135463
0.000133479
9.30992e-05
9.19573e-05
8.50009e-05
2.19056e-05
0.000418644
8.68008e-05
0.000283912
9.40265e-05
9.63699e-05
0.000180129
0.000232714
9.55682e-05
1.1498e-05
9.64544e-05
9.84106e-05
9.64589e-05
0.000128697
5.26113e-05
9.47545e-05
0.000231822
0.000166076
0.00021296
5.6475e-05
5.50453e-05
2.18164e-06
2.18256e-06
2.1483e-05
0.000492546
9.23305e-05
9.38578e-05
9.64415e-05
3.42768e-05
5.15038e-05
0.000117501
0.000752507
3.26247e-05
5.60807e-05
5.53763e-05
0.000103986
0.000127631
7.82284e-06
6.46838e-05
6.29014e-05
7.60653e-05
0.000244739
0.00054442
0.000170589
0.000105434
0.00186878
5.82655e-05
7.05593e-05
7.87993e-05
3.11034e-06
7.03741e-05
0.000736292
8.43423e-05
0.00017924
0.00109116
0.000161078
2.60778e-05
7.58444e-05
0.000103018
0.000151969
0.000103595
9.5624e-05
0.00010607
0.00017568
9.76152e-05
0.000111633
1.89671e-05
2.08896e-05
0.000307489
2.55993e-06
4.24288e-05
3.72619e-05
0.000114274
9.33554e-05
0.000165642
0.000137026
0.000126617
7.67175e-05
0.00032297
5.30353e-05
7.16445e-05
0.000317869
4.07273e-05
0.000183828
3.4397e-05
4.63767e-05
7.58597e-05
0.000111634
0.000127929
5.17228e-05
5.17742e-05
5.11823e-05
5.19262e-05
6.16475e-05
2.88841e-05
5.05042e-05
7.33168e-05
8.08073e-05
4.12257e-05
0.000145136
9.64622e-05
0.000130791
5.85146e-05
5.81121e-05
0.00012549
0.000133543
0.000115264
1.77437e-05
0.000761316
0.000406822
0.000115165
0.00109628
0.000736025
0.000518965
0.000118372
9.4468e-05
9.66194e-05
0.000763865
9.86469e-05
0.000102028
0.000101445
5.0847e-05
0.000140433
8.94158e-05
0.000153193
0.000560061
1.66371e-05
0.000108401
0.000121495
0.000123143
8.55423e-05
0.00010409
0.000132811
0.00016894
5.49696e-05
2.18991e-07
0.00018041
2.28238e-05
0.000100991
5.60084e-05
5.59534e-05
7.31109e-05
0.000164606
0.0004141
9.53317e-05
2.01145e-05
3.12795e-05
0.00021158
0.000146116
9.8251e-05
1.7044e-05
0.000196235
6.92812e-05
0.0010807
5.70281e-05
0.000129814
9.82065e-05
7.00945e-05
0.00028842
9.89322e-05
5.24464e-05
5.12143e-05
5.03506e-05
0.000101045
0.000102135
0.000287155
0.00010205
9.28639e-05
0.00094001
0.00128366
6.66038e-06
5.20143e-05
6.09854e-05
0.000133023
0.00108135
0.000425283
7.9743e-05
0.000116691
0.000113595
2.30204e-05
0.000122199
0.000188158
5.66715e-05
6.42805e-07
0.000780696
8.23819e-05
0.000124267
1.75863e-05
5.36048e-05
0.00010526
0.00010009
9.58593e-05
0.000105382
9.98943e-05
0.000178194
0.000103197
0.000536221
0.000158171
0.000148899
9.81794e-05
0.000170457
5.10616e-05
5.44442e-05
1.02818e-06
0.000311216
0.000111117
0.00015574
0.000182951
0.000124653
0.000194106
0.000196142
0.000104532
3.62837e-05
0.000172781
0.000103468
0.000201634
0.00173417
4.23318e-05
2.40375e-05
3.07198e-05
2.28664e-05
8.20358e-05
4.25847e-05
0.000102088
0.000612506
0.000532342
0.000140445
0.000134349
2.04061e-05
0.000161263
0.000109558
1.01331e-05
9.54334e-05
9.02767e-05
0.000110943
0.000171939
9.38709e-05
5.00214e-05
5.03593e-05
0.000551848
0.000272904
0.000105085
0.000100757
0.000505478
5.01168e-05
8.83142e-05
8.69695e-05
5.04114e-05
6.59499e-05
9.84172e-05
6.2101e-05
5.98126e-05
1.39762e-07
0.000100135
7.84088e-05
0.000158345
0.00012322
9.09202e-05
6.71779e-05
9.44592e-05
9.37568e-05
8.99509e-05
9.71877e-05
4.7009e-05
6.49431e-05
0.000111017
5.22611e-05
6.75121e-05
0.000123213
0.000123594
0.000505694
7.73948e-05
1.60156e-05
9.86182e-05
9.02444e-05
3.58375e-05
9.65672e-05
0.000100506
9.17783e-05
0.000114437
0.00312103
2.15593e-05
0.000387516
0.000409813
0.000160452
7.8982e-05
5.61188e-05
5.30974e-07
0.000109933
0.000149608
8.08454e-05
0.000339289
0.00010229
5.01248e-05
6.81905e-05
0.00014959
7.93714e-05
5.91671e-05
2.90778e-07
0.000624622
0.000163707
8.10988e-05
0.000168943
0.000604927
0.000117686
5.38808e-05
0.000203389
0.000117186
7.59531e-05
0.000614029
7.53949e-05
0.000611756
5.14978e-05
0.000326106
0.000183396
0.000178674
3.7372e-05
0.000460771
3.94208e-05
7.57045e-05
0.0001569
7.47629e-05
3.59333e-05
0.000145367
0.000104986
0.000887418
5.9041e-05
0.000973362
0.000298131
0.000111074
6.71696e-05
0.000155672
0.00017298
7.09217e-05
0.000194872
0.000472884
0.000710862
7.14688e-06
5.62684e-06
8.7702e-05
8.44091e-05
0.0004148
0.000452397
0.00202091
9.32265e-05
3.42154e-06
0.000104652
0.000108176
0.000196495
0.000130874
0.000104957
6.08382e-05
0.00544242
9.57562e-05
9.29703e-05
0.000183954
0.000202987
0.000323307
0.000261611
8.22685e-06
6.9195e-05
0.000194699
0.000277085
0.00013691
0.000133014
6.18259e-05
5.14618e-05
0.00104281
7.73852e-05
7.10846e-05
1.22078e-05
7.7384e-05
9.8723e-05
6.57482e-05
8.81895e-05
0.000142407
3.53738e-05
0.000235903
0.000348068
0.00363882
0.000116432
7.67915e-07
6.31399e-05
5.02422e-05
9.34784e-05
8.85663e-05
7.80233e-05
8.15392e-05
0.000210224
7.26214e-05
8.58608e-05
8.38797e-05
4.61763e-05
0.000102371
0.000210322
6.68107e-05
6.78297e-05
3.47966e-05
6.76811e-05
7.71947e-05
0.000131298
0.000614253
0.000103036
0.000133502
3.98284e-05
0.000114755
8.02427e-05
0.00013087
0.00048578
0.000121698
0.00399559
0.000864768
6.14063e-05
4.93161e-05
5.00654e-05
0.000144262
0.000114999
6.98112e-05
0.000122682
2.84031e-05
2.96561e-05
0.000167669
0.000251046
0.000134051
5.0149e-05
8.62457e-05
5.74006e-05
0.000300767
6.75217e-05
0.00015768
1.85852e-05
5.67864e-05
1.70157e-05
5.51784e-05
0.000267081
0.000121821
0.000590967
5.37661e-05
3.81325e-05
0.000111127
7.82702e-07
6.54555e-05
7.66101e-05
0.000234903
0.000815337
0.00112482
6.16165e-05
0.000323826
9.87761e-05
0.000108821
0.000679591
0.000284776
0.000111768
9.32163e-05
4.98537e-05
0.00320132
3.40658e-05
6.2526e-05
8.93811e-05
0.000182303
0.000182557
5.29976e-05
5.26933e-05
2.4579e-06
1.2164e-06
6.77715e-05
0.000127662
9.72534e-05
9.55222e-05
0.00217139
0.000168204
0.000119809
4.25628e-05
0.000202832
5.08405e-05
0.00522467
8.08546e-05
5.73382e-05
5.43594e-07
0.000215301
0.000180477
9.8406e-05
0.000293602
9.22783e-05
0.00043185
0.000151576
5.31696e-05
5.4046e-05
0.000687523
0.000194619
0.0008597
9.077e-05
0.000155896
0.000255622
0.000296811
0.000459638
6.41884e-05
4.68835e-05
0.000196722
0.000186709
0.000158108
0.000794916
0.000100089
0.000118582
8.68238e-05
7.20879e-05
0.00043648
0.000133982
0.000168731
0.000378764
8.62261e-05
0.000115644
0.000146383
7.60261e-05
9.00761e-05
5.32466e-05
0.00281776
8.9212e-05
5.66525e-05
6.83593e-05
5.99163e-05
4.71964e-05
0.000126134
6.62258e-05
0.000269594
0.000267542
0.000253862
0.000188343
0.000501346
0.000107742
5.9611e-05
0.000105397
7.79067e-05
0.000361507
0.000187094
5.05584e-05
1.37094e-05
0.000159972
7.8769e-06
0.000233684
0.000102738
0.000102045
8.09217e-05
7.30767e-05
5.17394e-05
5.26756e-05
2.74571e-06
4.6365e-05
0.000160787
0.000401808
0.00012106
0.000122232
9.03212e-05
9.58123e-05
0.000101796
8.95926e-05
0.00020446
0.000870229
0.000209985
0.000445859
7.90593e-05
0.000139651
8.30282e-05
2.43275e-05
5.475e-05
5.44626e-05
4.54951e-06
3.83746e-06
3.89315e-05
8.22452e-05
0.000444732
0.000113841
4.27807e-05
8.17229e-05
0.000118057
4.27171e-05
0.000101956
0.000294299
2.81358e-05
0.00187035
8.17889e-05
0.000427997
0.000226281
0.000101889
3.65334e-05
0.00017059
4.7104e-05
6.63542e-05
0.000139834
8.31018e-05
5.65241e-05
0.000100316
7.91076e-05
5.97766e-06
8.76527e-05
5.29934e-05
0.000480619
8.07006e-05
0.00018243
0.0004188
9.33121e-05
9.19468e-05
0.000323514
0.000166594
0.000168341
0.00016687
5.08034e-05
5.09659e-05
6.68999e-05
0.00020078
0.000112542
0.000875653
8.27365e-05
0.000108863
6.70566e-05
0.0021062
0.000296154
3.9072e-05
7.29886e-05
6.18846e-05
0.000104457
9.93375e-05
0.000121221
0.000294665
3.37127e-05
3.72888e-05
0.000186182
0.000105854
0.0001937
0.000134899
0.00031092
1.91156e-05
7.39104e-05
0.000132069
7.46895e-05
0.000141752
0.000268608
0.000270405
0.000322939
7.68739e-05
9.35933e-05
7.72126e-05
4.69027e-05
0.00017867
0.00021491
0.000180054
0.000207428
0.000278485
5.38046e-05
0.000324686
0.00020009
0.000100394
0.000120585
0.000113696
0.00453842
3.85727e-05
8.133e-05
0.000196656
8.52377e-05
0.000148944
0.00211338
9.42094e-05
5.88783e-05
7.42655e-05
1.89599e-05
5.58211e-05
0.00011598
0.000105919
0.000541349
0.000133946
6.21489e-05
9.97426e-07
9.84249e-05
0.000841735
5.11949e-05
0.000464218
0.000307411
5.31799e-05
0.000190988
2.19727e-05
5.77475e-05
5.61058e-05
5.35891e-05
0.000623308
0.000117916
4.48143e-05
0.00227144
0.000131873
0.000867229
0.00652345
0.000502863
0.000567336
7.96352e-05
0.000194446
5.24657e-05
0.000180758
0.00186956
7.24341e-05
0.000108106
5.17311e-05
5.02008e-05
0.000105744
9.75537e-05
1.74878e-05
0.000188821
0.000191894
0.00017896
9.78617e-05
0.000183394
5.79049e-05
0.000113643
5.07691e-05
0.00023264
6.98095e-05
8.17119e-05
0.000242382
3.79273e-05
0.000189604
0.000124531
0.000238696
9.28505e-06
5.07979e-05
5.31012e-05
9.56846e-05
0.000304717
0.000109904
4.48922e-05
4.50261e-05
4.60446e-05
0.000423776
8.01565e-05
2.25028e-05
7.13732e-05
7.25772e-05
0.000123311
0.000161077
0.000313643
0.00363019
0.00043993
9.17803e-05
8.76719e-06
8.13134e-06
0.000276608
6.61604e-05
0.000453997
7.91147e-05
8.12268e-05
8.04259e-05
8.5597e-05
9.81979e-05
7.5132e-05
0.000777753
9.34831e-05
0.00013893
7.65269e-05
9.51585e-05
9.49121e-05
4.82196e-05
9.12788e-05
0.00014637
0.000132165
0.000451165
3.66949e-05
0.000135986
4.63735e-05
5.75539e-05
8.82847e-05
8.59261e-05
0.00112535
5.32309e-05
0.000164815
9.56382e-05
1.09375e-05
7.54775e-05
1.57281e-05
4.45961e-05
8.79706e-05
0.000218367
0.000648895
9.82674e-05
8.19086e-05
5.99494e-05
7.79587e-05
0.000116483
5.16358e-05
3.66694e-05
3.53929e-05
9.10419e-05
8.93474e-06
0.000131055
0.0049952
9.98724e-05
0.000135811
0.000149521
0.000153166
0.000100923
6.1759e-05
0.00022813
8.58748e-05
9.57228e-05
0.000187265
0.000117529
8.7709e-05
0.000208807
4.91102e-05
0.000709222
1.84606e-05
2.76155e-05
6.00297e-05
6.34982e-05
6.42195e-05
0.000136035
0.000144168
0.000196022
0.000432503
9.0537e-06
0.00017105
0.0002325
0.000173945
0.000177498
8.05535e-05
7.81978e-05
0.000181011
0.00010584
0.000107308
6.89745e-05
7.06677e-05
9.41652e-05
9.22447e-05
0.000204216
0.000106161
3.83479e-05
6.61929e-05
7.51642e-05
8.64134e-05
9.18561e-05
5.75334e-05
0.000117817
0.000117965
9.86045e-05
6.39519e-05
7.67067e-05
0.000120271
9.83723e-05
0.000118927
9.72337e-05
0.000120855
9.9271e-05
0.00104018
5.40185e-05
7.22429e-05
0.000448497
7.43174e-05
6.57061e-05
5.77234e-05
9.13612e-05
5.46873e-05
0.000106486
0.000107277
0.000165248
0.000100196
0.000100224
0.000126571
5.51442e-05
6.39907e-05
0.000195507
0.00835192
0.000200103
5.2343e-05
0.000168669
0.000170896
5.48931e-05
1.23417e-05
0.000159149
7.83114e-05
0.000616604
0.000243434
7.74799e-05
6.22651e-05
0.000143335
0.000576929
0.000464173
7.90601e-05
9.43444e-05
0.000469506
0.000135182
0.00389582
0.000111912
7.40766e-05
0.000257689
0.000261275
0.000241854
3.90574e-05
0.000100015
8.74255e-05
0.000416227
7.88123e-05
8.08394e-06
0.000159438
6.99644e-05
5.0962e-05
0.00022265
2.61782e-05
0.00811994
0.000108698
0.000102532
0.000161214
0.000165933
0.000545324
1.94072e-05
0.000823444
8.96491e-05
6.47013e-05
0.000155773
5.34339e-05
9.09731e-05
0.00012643
0.000116404
0.000131482
9.26119e-05
0.000150604
6.13086e-05
6.31786e-05
0.000109487
7.00913e-05
0.000106298
0.000159559
0.000155969
0.000288149
0.000119454
0.000138725
0.00012113
0.000144379
0.000103929
0.000109327
0.00282019
0.000257583
0.000177438
5.97809e-05
0.00038984
0.000672453
0.000196469
0.000128119
0.000175436
6.25463e-05
0.000549121
0.000172807
8.47129e-05
0.000375562
0.000128453
1.53394e-05
5.54845e-05
0.000427526
0.000164025
0.000189625
9.66039e-05
9.47604e-05
0.000657136
4.5249e-05
6.20376e-05
3.49841e-05
4.93855e-05
0.00068922
6.12959e-05
7.62409e-05
0.00126436
0.000654344
9.67444e-05
1.94542e-05
5.5362e-05
0.000135439
9.09975e-05
0.00256163
0.000202025
8.85144e-05
8.4435e-05
0.000111009
0.000414281
0.000114798
0.000193759
5.68698e-05
0.000209105
4.70015e-05
2.3463e-05
0.00450988
0.000140521
7.80042e-05
2.1372e-05
0.00117735
6.22143e-05
8.76906e-05
3.90536e-05
6.13686e-05
0.000120073
6.58591e-05
5.79856e-05
7.10176e-05
0.000118344
3.77485e-05
0.000127775
0.000134913
0.000127775
0.00050706
4.01324e-05
0.000458739
5.10716e-05
0.000138197
0.000181229
2.17269e-05
0.000498659
8.04403e-05
0.000227999
0.000620695
5.27972e-05
6.239e-05
6.0532e-05
7.88143e-05
9.07247e-05
8.75402e-05
3.51127e-05
9.17456e-05
0.000174916
9.3099e-05
0.000244849
0.000164389
0.000167778
0.000189875
9.204e-05
5.21032e-05
0.000104172
0.000101441
0.00012925
0.000172365
0.00113651
1.74038e-05
1.49442e-05
8.50235e-05
7.17557e-05
2.4248e-05
0.000119984
0.00018994
7.88242e-05
0.000124369
0.000174221
9.22073e-05
5.93274e-05
0.000129873
0.000100136
2.92193e-05
2.82358e-05
0.000117875
0.000124944
1.68857e-06
5.16535e-05
8.19698e-05
0.000152546
9.02907e-05
0.00696119
0.000100006
0.000225515
0.000134796
0.000113901
4.98132e-05
9.67768e-05
9.54945e-05
0.000125817
9.40127e-05
8.48752e-05
4.10229e-05
9.30867e-05
4.55054e-05
2.13468e-05
5.5349e-05
0.000124766
0.000152888
9.44539e-05
0.00014923
0.000863165
1.83669e-05
0.00042531
0.000231747
5.39139e-05
0.000103107
6.87078e-05
0.000151938
0.000177122
0.000146702
0.000120726
0.000114953
6.76642e-05
6.9001e-05
0.000158509
0.000127538
0.000127419
7.21196e-05
2.09213e-05
0.000210769
0.000110109
0.000197774
0.000624691
0.000155929
6.33065e-05
9.71697e-05
9.86713e-05
0.000106302
6.25009e-05
8.04689e-05
0.000555723
0.000126829
0.000158818
0.000102353
0.000241825
6.25951e-05
7.63053e-05
0.000503579
8.31381e-06
9.13838e-05
0.000113755
0.000463198
9.52236e-06
0.000119582
0.000133934
8.14959e-05
0.000400572
0.000287118
9.60255e-05
2.87276e-05
0.000239309
0.000119921
5.23985e-05
5.38541e-05
0.00013666
5.22728e-05
0.00116971
2.49871e-05
2.31806e-05
7.41195e-05
0.000120442
0.000557918
7.83739e-05
0.000487665
0.0069614
0.000234866
0.0002281
7.86884e-05
3.46476e-05
6.72652e-05
6.43632e-05
0.00013576
5.06278e-05
0.000212548
2.39877e-05
0.00017234
9.41293e-05
0.000143019
7.14052e-05
6.62544e-05
7.86907e-05
0.000107384
0.000181969
8.26693e-05
0.000468716
6.71492e-05
7.47019e-05
7.32455e-05
0.00112529
4.08461e-05
4.29118e-05
0.000178327
5.27474e-05
2.89283e-05
3.13097e-05
0.00700847
7.89679e-05
8.7964e-05
7.33558e-05
0.000218403
2.20483e-05
0.000158445
0.000315159
0.000112602
4.70446e-05
0.000135327
0.000305618
0.000166511
0.000510594
2.53548e-05
0.000204914
8.44291e-05
0.00026735
0.000105026
0.000463711
0.000188847
0.000105448
0.00115315
0.000138351
8.68083e-05
0.000229128
0.000361978
0.000590708
0.00014226
0.000100218
9.43759e-05
0.000100415
0.00244435
5.22119e-05
0.000156855
9.87123e-05
8.68588e-05
0.000170757
1.57876e-05
6.85223e-05
5.96622e-05
3.56381e-06
3.36375e-06
0.000204145
0.000132338
8.07173e-05
5.22957e-05
4.63448e-05
0.00015526
0.000173614
8.19076e-05
1.64283e-05
5.75832e-05
8.12166e-05
0.000334053
0.000213116
0.000173636
7.36007e-05
8.2731e-05
0.000219544
0.000387009
5.09272e-05
3.83487e-05
7.72812e-05
5.68386e-05
9.22321e-05
0.000170387
6.01759e-05
0.000145488
2.68962e-05
0.00049721
9.27604e-05
0.000120583
9.37409e-05
4.40885e-05
0.000302645
0.000332572
0.000169496
0.000614317
0.000207959
0.00137521
0.000259794
0.000128771
0.000117673
5.39152e-05
9.37827e-05
0.000150272
9.46939e-05
4.70282e-05
7.28208e-05
0.000121088
6.19578e-05
0.000261939
0.000135476
0.00013718
0.000113567
0.000299786
0.000126492
7.77737e-05
0.000112553
6.99147e-05
0.000177784
0.000166234
0.000157569
0.000165104
0.000193711
0.000231325
0.000197946
9.84186e-05
9.47403e-05
0.000206743
0.000154822
0.00130508
0.000160317
3.64511e-05
0.000931456
6.39654e-05
1.35999e-05
5.52943e-05
2.2043e-05
0.000156721
0.000421523
9.17302e-05
0.000188143
0.000100291
9.2246e-05
9.43465e-05
0.00062558
5.26833e-05
0.000128403
0.000164779
0.000769555
9.76079e-05
0.000172032
9.57303e-05
9.00316e-05
0.000125757
0.000272695
9.67543e-05
0.000123598
9.87764e-05
0.000106937
4.04318e-05
0.00022303
0.000101063
0.000228236
6.47046e-05
4.33873e-05
6.50511e-05
4.27794e-05
5.59791e-05
7.0828e-05
9.14974e-05
0.000100333
2.03625e-05
5.6008e-05
5.4778e-05
8.03193e-05
4.52036e-05
5.02778e-05
9.89862e-05
4.78502e-05
4.42458e-05
0.000106815
0.000896883
8.91449e-05
0.000513366
9.58354e-05
0.000192487
0.000279604
0.00010421
0.00058254
0.000558129
3.7785e-05
0.000208832
7.75821e-05
0.00042751
0.000599446
3.83845e-05
8.30509e-05
8.27071e-05
8.07736e-05
7.33929e-05
0.000638755
0.000486453
0.000186956
0.000201369
0.000193862
0.00011335
9.06036e-05
5.41008e-05
5.90571e-05
0.000151317
0.000111183
0.000118462
0.000162805
0.000155926
0.000114618
6.47752e-05
0.000334814
0.0001204
0.000297418
7.08369e-05
9.02796e-05
0.000100176
9.30068e-05
0.000140084
0.000110685
0.000102609
4.50768e-05
4.48322e-05
0.000126313
3.88954e-05
8.72353e-05
5.70325e-05
0.000134001
2.79499e-05
9.86514e-05
3.62331e-05
0.000117124
6.03301e-05
6.10289e-05
4.21909e-05
7.00045e-05
2.95597e-06
4.31605e-05
0.00534409
3.73471e-06
5.16419e-05
8.21316e-05
8.50573e-05
8.9597e-05
6.23577e-05
0.000257342
0.000185788
0.000232986
7.55051e-05
0.000970097
9.59919e-05
4.58147e-05
6.51608e-05
4.33031e-05
6.35116e-05
9.1376e-05
5.55473e-05
0.000182487
4.25727e-05
6.97583e-05
0.000261416
0.000145343
0.000565792
0.000157321
0.000197813
0.000222356
0.000203329
8.99955e-05
9.01522e-05
0.00611692
0.0011563
0.000365724
0.000210513
0.000207579
9.22136e-05
8.7122e-05
4.3558e-05
4.46277e-05
8.29915e-05
0.000108859
6.0028e-05
0.00329503
0.000243714
0.000115963
3.87805e-05
0.00017732
4.43801e-05
6.49506e-05
4.07549e-05
6.23335e-05
0.000912778
0.000510205
6.65335e-06
9.4966e-05
0.000218764
0.000147095
0.000188443
0.000470174
9.28928e-05
0.00135603
0.000218495
4.88411e-05
0.000126769
3.83484e-05
0.000249707
9.42652e-05
9.74119e-05
0.000487685
1.1662e-05
1.06181e-05
0.000511518
4.99783e-05
1.01107e-05
0.000261947
8.88492e-05
0.000246126
0.000101601
3.24683e-05
0.000516497
2.93154e-05
8.95351e-05
0.000140324
3.94248e-05
6.13703e-05
6.06899e-05
4.9663e-05
0.000100551
0.000187216
0.000109163
8.14828e-05
0.000141592
0.000138645
0.000200046
0.000223592
8.37626e-05
9.72103e-05
0.000888212
0.000235589
0.00044253
0.000125722
7.15355e-05
0.000381666
8.35554e-05
9.29283e-05
8.16984e-05
2.7215e-05
5.93933e-05
0.000199829
6.99357e-05
0.000103062
0.000111071
7.39457e-05
0.000579945
0.000240217
5.04061e-05
6.25747e-05
0.000152226
8.52263e-05
0.000230424
0.00010902
3.76741e-05
0.000137203
5.40552e-05
0.000108684
0.000108407
0.0017502
0.000100033
4.48084e-05
4.54033e-05
0.0047576
0.00621799
5.03764e-05
4.5339e-06
1.97835e-05
5.86762e-05
0.000171534
0.000100539
4.77971e-05
0.000573527
1.40247e-05
5.37722e-05
0.000156725
0.000163179
9.87977e-05
0.000103788
0.000157209
0.000100731
0.000232996
0.00600095
0.000115827
9.9132e-05
9.26794e-05
2.59695e-05
0.000205881
0.000117491
0.000113891
0.000409787
5.82616e-05
0.000310943
8.3279e-05
0.000546658
0.000111827
0.000623142
0.000120472
0.00010812
7.5135e-05
0.000308737
0.000445976
0.000109943
0.000331619
0.000104977
0.000155545
0.000210509
9.12756e-05
2.06787e-05
1.78974e-05
5.25568e-05
2.1055e-05
0.000259264
0.000227153
0.000123159
7.1884e-05
0.000111721
2.84086e-06
0.00043771
6.83665e-05
0.00017271
0.000166631
8.90373e-05
5.35416e-05
0.000108251
0.000108442
5.36378e-05
5.37086e-05
0.000109251
0.000183023
6.02447e-05
0.000224774
0.000195235
0.000161465
4.88243e-05
4.96999e-05
0.000217911
1.52564e-05
5.64128e-05
0.000254588
0.000115308
2.64591e-05
0.000161716
5.80541e-05
5.31558e-05
0.000446467
0.000205164
0.000220591
0.000102814
9.7685e-05
0.00110862
0.000121786
0.000173503
0.000154915
0.000952067
9.80187e-05
9.55515e-05
5.00614e-05
6.52287e-05
0.000100717
0.000592211
5.56615e-05
5.62482e-05
0.000109877
0.000168044
0.000109129
5.1014e-05
0.000115429
8.537e-05
0.00736197
0.000108142
0.000170548
8.40436e-05
8.24803e-05
0.000128009
5.46434e-05
5.6337e-07
0.00154619
1.21142e-05
9.45873e-05
9.7433e-05
0.000107728
0.000148571
5.41555e-05
4.59179e-05
0.000141074
9.652e-05
0.000254537
0.000222932
0.000151942
9.64883e-05
6.04886e-05
1.32699e-07
0.000210573
2.00127e-05
0.00034009
7.85556e-05
7.74198e-05
0.00084271
0.000161746
8.57231e-05
9.28335e-05
4.28007e-05
0.00206698
5.74757e-05
2.49828e-06
5.53882e-05
3.5969e-05
0.000176145
0.000110695
0.000198499
0.000121259
8.38808e-05
3.92439e-05
7.55404e-05
0.000493837
0.000149842
0.000526823
3.46515e-05
5.0654e-05
0.000176365
9.42881e-05
0.000106168
0.000843797
0.000362431
0.000474955
0.000147542
0.000144294
0.000205258
8.47484e-05
6.00648e-05
8.54907e-05
8.96897e-05
5.86027e-05
0.000169803
8.13586e-05
0.000140039
8.44842e-05
0.000103684
4.93507e-05
0.000184367
6.52318e-05
6.46176e-05
0.000101365
5.00782e-05
8.38369e-05
8.42271e-05
9.81105e-05
7.18332e-05
5.18598e-05
0.000161149
0.00012349
0.000104036
0.00278954
4.48092e-05
9.24468e-05
5.12227e-05
9.14302e-05
5.97725e-05
0.0005073
0.000558725
7.67945e-05
0.000117154
7.84076e-05
0.000862999
6.43321e-05
7.32291e-05
0.000183196
3.50553e-05
0.000143696
6.1844e-05
0.000355724
0.000155436
0.00026641
0.000536664
7.23174e-05
8.85933e-05
5.33033e-05
0.000213108
0.00015819
0.000136404
0.000355115
0.00191059
5.86418e-05
1.22653e-06
0.000212933
0.000106824
5.61375e-05
0.000230217
6.98784e-05
4.42067e-05
0.000187062
5.26767e-05
0.000105035
3.30561e-05
0.000494997
7.73863e-05
7.70074e-05
8.98105e-05
9.77097e-05
1.9019e-05
5.63919e-05
5.57002e-05
9.78567e-05
0.000226592
0.000157937
0.000232495
0.000138141
0.00012839
0.000185769
0.000149321
0.00014928
8.25777e-05
8.00611e-05
8.68641e-05
0.00016441
0.000418422
0.000144773
2.55896e-05
5.89908e-05
0.000163898
0.00013435
0.000273779
0.00291633
0.000182616
0.000170275
0.000501021
0.000190372
7.77391e-05
3.04907e-05
8.9002e-05
0.000447048
4.14556e-05
0.000252163
4.4711e-05
9.76789e-05
9.64397e-05
9.57808e-05
9.78138e-05
0.000146185
0.00013458
0.000133189
5.10956e-05
0.000661805
0.000113834
6.44034e-05
0.000155306
0.000537284
6.98605e-05
0.000107912
3.87386e-05
6.30831e-05
0.000139797
0.000158596
0.000561626
0.000119328
0.000113597
0.000185104
7.66273e-05
3.18467e-05
9.18189e-05
0.000137022
0.0002325
6.58195e-05
6.28645e-05
1.95328e-07
1.93702e-07
7.51855e-05
0.000157046
0.000541184
0.00016519
9.51503e-05
6.69392e-05
6.68361e-05
6.69085e-05
0.000142875
0.000847775
0.000198666
0.000218872
0.000126954
0.000112837
0.000130145
0.000183857
2.85929e-05
3.27712e-05
3.04824e-05
0.000687311
5.05111e-05
5.21266e-05
0.000879861
0.000102628
0.000226491
6.69167e-05
5.20896e-05
0.000141845
0.000772811
0.000115867
4.71688e-05
1.72613e-05
0.000700139
0.000131684
8.98519e-05
0.00053143
0.00016485
0.000109033
8.89614e-05
8.57674e-05
5.69345e-05
9.85268e-05
0.00688561
4.75738e-05
5.25114e-05
6.95457e-05
0.000307387
0.00114788
0.000842409
0.000176154
2.75105e-06
5.1714e-05
9.86755e-05
0.000740304
4.97997e-05
5.21718e-05
0.00016413
0.000112234
5.88497e-05
6.02916e-05
0.000121189
7.88539e-05
7.86215e-05
0.000108224
0.000350997
6.70517e-05
6.58468e-05
9.29701e-05
0.000393205
4.11149e-05
0.000619139
0.000116416
6.41048e-05
0.000116819
0.000635076
2.80131e-05
3.96051e-05
0.000259765
0.000598618
6.28377e-05
7.22645e-05
0.000415297
0.000230027
6.4407e-05
0.000129282
3.99415e-05
6.2854e-05
8.35871e-05
0.00242821
1.93077e-05
5.45234e-05
0.000610718
5.72029e-05
7.29171e-05
5.58955e-05
5.70939e-05
7.97442e-05
0.000156735
7.1633e-05
0.000109262
5.93572e-05
7.19764e-05
5.1562e-05
8.43932e-05
2.40123e-05
8.44708e-05
0.000128832
9.26609e-05
0.000240753
0.000137501
0.00010564
0.00280898
0.000155235
0.000112437
5.21228e-05
0.000158656
0.000112755
1.80864e-05
0.00178946
0.000219018
0.000124465
0.000124388
9.40898e-05
5.63186e-05
2.4475e-06
0.00013128
0.000142369
0.000142353
0.00014726
0.000110676
0.000317584
0.000112172
0.000216986
0.000120773
1.74733e-05
0.000135909
0.000131201
4.85606e-05
4.84985e-05
0.000541873
0.000104518
0.000327199
3.08209e-05
6.30734e-05
1.37507e-05
5.85746e-05
0.00101191
0.000126444
4.89887e-05
8.81727e-05
0.000137385
0.00013382
0.000140551
0.000385864
3.46211e-05
0.000116825
9.39978e-05
5.0805e-05
7.42098e-05
0.000119661
0.000415826
7.41044e-05
0.00011168
7.73876e-05
0.000359547
0.000156971
2.95055e-05
0.000161888
0.000113012
0.00028707
6.82161e-06
6.59447e-05
0.000139587
1.87393e-05
5.51592e-05
0.000101117
9.57903e-05
9.83561e-05
0.000172746
0.000152871
7.28275e-06
0.000341302
0.000130724
8.72687e-05
0.000832921
0.000151548
0.00076624
0.000189261
0.000145727
6.15159e-05
0.000174688
2.47992e-05
3.142e-05
0.000113374
0.000144497
0.000478774
5.22271e-05
4.54138e-05
4.78624e-06
5.19707e-05
6.01271e-05
0.000292326
2.40307e-05
4.28707e-05
6.38679e-05
2.89752e-05
0.000124905
0.000142227
0.000467959
3.2598e-05
0.00013681
9.61367e-05
9.27688e-05
0.0001145
0.000197065
0.000103105
0.000378975
8.92872e-05
0.000121186
9.53766e-05
0.000143574
4.78412e-05
5.91042e-05
1.05069e-06
6.33346e-05
3.53593e-07
0.00016969
3.93269e-05
0.000184143
0.000169981
0.000108095
0.000100207
0.00028369
0.000315971
0.000175753
7.29899e-05
1.61832e-05
0.000303555
6.16392e-05
7.48218e-05
3.75183e-05
5.5811e-05
7.17857e-05
0.0001677
0.000127658
6.24348e-05
7.59554e-05
8.18795e-05
0.000106399
0.000221076
0.000188319
0.000229225
0.000292693
7.64177e-05
0.00018765
0.000224719
4.45963e-05
4.60197e-05
5.29217e-05
5.14814e-05
0.000137575
0.000103569
7.04734e-05
0.000258882
3.48472e-05
7.4118e-05
5.45106e-05
4.80491e-05
6.95854e-05
8.86076e-05
5.53081e-05
5.4538e-05
0.000470962
7.17339e-05
0.00196624
1.75267e-05
8.84052e-05
8.70263e-05
7.28793e-05
0.000111728
6.40074e-05
4.92998e-05
0.000374106
0.000116433
0.000474781
2.82583e-05
3.50995e-05
9.46249e-05
0.000474102
0.000105568
8.63851e-05
4.78002e-05
0.000110229
0.000455569
0.00152917
8.33831e-05
8.0337e-05
5.46294e-05
0.000393075
0.000511287
0.000208898
0.000359292
0.000114026
6.77451e-05
0.000113415
0.000147196
5.00516e-05
0.000110743
0.00011185
0.00316213
5.98949e-05
0.000515443
0.00010084
0.000293861
0.0007647
5.16003e-05
5.17238e-05
5.02816e-05
2.05493e-05
5.84748e-05
0.000189853
0.00018356
0.000159006
0.000131187
9.07034e-05
0.000132548
3.02549e-05
0.000123758
7.09671e-05
5.97682e-05
6.02572e-05
0.000190596
7.73349e-05
0.000127797
0.000137825
4.44643e-05
0.000177102
0.00010754
0.000226425
0.000134811
4.34619e-05
2.58977e-05
4.40265e-05
3.35541e-05
9.42858e-05
9.04798e-05
0.000146529
0.000103943
0.000143782
0.000217936
9.08895e-05
8.86522e-05
0.000219358
0.000143041
0.00140288
7.60463e-05
3.29394e-05
0.00160959
0.000429978
0.000107645
8.98409e-05
5.3796e-05
7.66776e-05
6.99537e-05
8.87095e-05
1.75659e-05
5.70941e-05
6.03615e-05
0.000289712
1.81152e-05
0.000278917
3.24178e-05
6.24898e-05
8.00061e-05
7.83184e-05
0.00012574
0.000122712
0.000143958
0.000111635
0.000184721
0.000279999
6.69857e-05
5.4419e-06
9.06918e-05
0.000115714
6.1406e-05
0.000273838
8.68644e-05
0.00337789
6.35792e-05
4.51192e-05
4.71508e-05
0.000184115
0.000215029
0.000155037
8.31866e-05
5.97043e-05
4.85063e-05
0.000132091
0.000150956
0.00020558
0.000118728
3.21421e-05
3.09778e-05
0.000307576
0.00301751
9.53969e-05
0.000181192
5.63261e-05
5.81582e-05
0.000381898
0.000110139
5.21596e-05
5.11232e-05
5.37835e-05
1.10821e-05
0.000131318
0.000135421
0.000251181
0.000120522
7.16539e-05
0.000382976
0.0011769
6.50541e-05
7.46374e-05
0.00011837
0.000115701
4.84924e-05
0.000108257
0.000138431
0.000230101
0.000276918
0.000186516
0.000120737
2.31581e-05
6.45696e-05
3.63391e-05
7.16683e-05
4.82665e-05
3.73405e-05
0.000192195
0.000125316
0.000119755
9.99696e-05
0.000121432
3.04631e-05
7.28031e-05
4.86464e-05
0.000965208
0.000136741
0.000151974
0.00039732
0.001244
8.50092e-05
0.000108682
2.92527e-05
6.10333e-05
3.50154e-05
6.53503e-05
0.00345251
0.000383424
0.000849894
0.000172146
0.0001255
5.00402e-05
0.000209705
0.00109021
3.34352e-05
9.30812e-05
0.000122327
0.0002983
0.00378455
0.000106321
2.58922e-05
0.000165311
0.000157468
5.71276e-05
7.27331e-05
0.000108439
0.000269409
0.000668645
3.01588e-05
8.29146e-05
0.00364676
3.22308e-05
9.37896e-05
0.000143715
8.81229e-05
3.51166e-05
6.3283e-05
0.000114024
0.000151212
7.73029e-05
0.00015251
0.000263894
9.83968e-05
7.67697e-05
0.000134266
2.1025e-05
0.00198144
0.000260399
0.000108821
0.000417673
5.18677e-05
3.4921e-05
7.51174e-05
4.58147e-05
0.0001381
0.000214467
0.000202313
0.000829038
0.000470152
0.000147368
0.000233749
0.000101027
0.00010076
0.000112523
4.83606e-05
4.8048e-05
9.10095e-05
5.87121e-05
7.22156e-05
0.00309305
0.000200732
0.000204638
0.00114217
0.00019415
6.21707e-05
6.54793e-05
0.00012692
4.12329e-05
5.87432e-05
1.07813e-06
6.38704e-05
9.19145e-05
0.000470661
1.99605e-05
5.94987e-05
0.000110302
8.28832e-05
0.000110262
8.89647e-07
5.90274e-05
0.00016107
9.49514e-05
8.43795e-05
0.000128766
0.000122776
9.09933e-05
7.15178e-05
0.000329956
5.74588e-05
4.05858e-07
8.16142e-05
0.000105892
0.000104614
0.000117605
4.06715e-05
7.40252e-05
0.000150656
0.000446226
0.000109028
0.000296742
3.15717e-05
0.000116008
0.000228126
6.60784e-05
6.335e-07
0.00015548
0.000146238
0.000166283
3.78651e-05
6.86529e-05
4.99311e-05