/*--------------------------------*- C++ -*----------------------------------*\
| =========                 |                                                 |
| \\      /  F ield         | OpenFOAM: The Open Source CFD Toolbox           |
|  \\    /   O peration     | Version:  v2012                                 |
|   \\  /    A nd           | Website:  www.openfoam.com                      |
|    \\/     M anipulation  |                                                 |
\*---------------------------------------------------------------------------*/
FoamFile
{
    version     2.0;
    format      ascii;
    class       volSymmTensorField;
    location    "20";
    object      sigma;
}
// * * * * * * * * * * * * * * * * * * * * * * * * * * * * * * * * * * * * * //

dimensions      [1 -1 -2 0 0 0 0];


internalField   nonuniform List<symmTensor> 
7666
(
(-7.6874e+06 38957.6 -5.83801e-09 -1.74086e+06 -2.73657e-10 -2.82848e+06)
(-3.09956e+06 -3.07442e+06 -1.1676e-08 3.16109e+06 0 18459.6)
(-1.02783e+08 -2.01167e+06 2.24241e-05 -2.84143e+06 3.95661e-05 -1.40245e+06)
(-1.75752e+06 -4.49782e+06 -1.1676e-08 2.58342e+06 -1.4595e-09 247770)
(-2.00026e+06 -7.04639e+06 3.09415e-07 2.06224e+06 -1.97945e-08 18592.1)
(1.50115e+07 -8.53967e+06 5.95477e-07 487386 2.40088e-07 4.64966e+06)
(29512.9 -668640 0 2.22291e+06 7.29751e-10 675727)
(-418173 -4.37436e+06 0 2.25432e+06 -7.29751e-10 550844)
(3.85266e+07 -1.347e+06 2.45196e-07 86283.6 2.69278e-07 1.19098e+07)
(-141457 -1.22552e+06 5.83801e-09 2.91098e+06 1.09463e-09 830857)
(-5.80088e+06 -2.70623e+06 1.7514e-08 2.57869e+06 0 -966657)
(860079 -1.72984e+06 0 763982 1.4595e-09 487218)
(-885570 -4.38432e+06 5.83801e-09 2.38624e+06 0 450202)
(-1.34721e+06 -3.42971e+06 5.83801e-09 2.87155e+06 1.09463e-09 457303)
(-56472.4 -467130 1.1676e-08 2.93762e+06 0 864343)
(-2.92212e+07 3.92839e+06 3.42107e-06 -7.49548e+06 8.65485e-07 -1.1015e+07)
(-380677 -4.29299e+06 0 2.37665e+06 -3.64876e-10 598791)
(1.92702e+07 -1.8033e+06 4.08661e-08 32358.7 1.38653e-08 5.79077e+06)
(1.6868e+06 -2.80982e+06 0 964480 3.64876e-10 795384)
(-1.66223e+06 -2.19291e+06 1.7514e-08 3.23204e+06 0 470942)
(-4.13307e+06 -851139 -2.3352e-08 3.36529e+06 -2.73657e-10 -230334)
(6.19108e+06 -4.83979e+06 5.83801e-09 970321 0 2.14842e+06)
(-857210 -3.57915e+06 1.1676e-08 2.64328e+06 0 535821)
(-3.54498e+06 -4.47244e+06 0 2.8956e+06 -7.29751e-10 -194816)
(6.54972e+06 -9.2632e+06 2.76138e-06 -1.53332e+06 7.4763e-07 1.50492e+06)
(3617.26 -456823 -1.7514e-08 3.10664e+06 -1.09463e-09 933078)
(6.36395e+06 -8.65264e+06 3.2868e-06 -1.43369e+06 9.00513e-07 1.47908e+06)
(-7.89093e+06 -980646 4.08661e-08 347449 -1.82438e-09 -2.26304e+06)
(-499837 -4.35899e+06 5.83801e-09 2.51109e+06 -7.29751e-10 603377)
(246495 -207883 1.7514e-08 154230 -3.64876e-10 120217)
(463475 -219293 1.7514e-08 485.446 -7.29751e-10 139188)
(1.94744e+07 -2.68135e+06 3.50281e-08 228300 1.42302e-08 5.9108e+06)
(-7.77592e+06 961010 -1.1676e-08 -3.85277e+06 -2.59974e-09 -3.48861e+06)
(156024 -680835 5.83801e-09 709761 0 259736)
(-7.36596e+06 2.90101e+06 1.1676e-08 -9.35801e+06 -3.10144e-09 -5.01719e+06)
(-2.99409e+06 -2.31911e+06 0 3.22802e+06 5.47314e-10 70178.8)
(-3.02292e+06 -2.1025e+06 5.83801e-09 3.29641e+06 1.82438e-10 82046.7)
(474939 -537026 -5.83801e-09 245296 7.29751e-10 216071)
(1.42008e+07 -6.49479e+06 6.42181e-08 646609 2.26223e-08 4.45423e+06)
(-171540 -1.59653e+06 5.83801e-09 2.76375e+06 3.64876e-10 777662)
(-1.42326e+07 4.187e+06 1.28436e-07 -4.52889e+06 -7.29751e-08 -5.62846e+06)
(2.92381e+07 -1.49017e+07 -0.000559123 -5.32364e+06 -0.000220346 2.25361e+07)
(8.80632e+07 -946752 -3.27955e-05 4.68549e+07 -8.7681e-06 5.36331e+07)
(-7.30902e+06 -2.08105e+06 5.83801e-09 1.33699e+06 -3.10144e-09 -1.79161e+06)
(6.53401e+07 1.81829e+07 -2.87084e-05 1.54658e+07 -2.20443e-05 2.42418e+07)
(-62212.4 -518319 -5.83801e-09 2.27737e+06 0 664546)
(2.32277e+07 -6.10912e+06 3.00658e-07 831351 1.93202e-07 7.21771e+06)
(-1.43346e+07 3.72951e+06 1.05084e-07 -5.18862e+06 -7.37049e-08 -5.85696e+06)
(-1.24694e+07 -1.05097e+06 2.21844e-07 -574788 -8.90297e-08 -3.91325e+06)
(-6.21699e+06 -587152 5.83801e-09 2.33933e+06 9.12189e-11 -1.1633e+06)
(-7.82827e+06 -992126 1.1676e-08 333878 -1.82438e-09 -2.24832e+06)
(6.0703e+06 -2.52623e+06 -1.1676e-08 131685 0 1.8606e+06)
(35441.7 -394828 -5.83801e-09 1.8677e+06 -3.64876e-10 570943)
(3.48237e+07 -1.68303e+06 2.39047e-07 -1.45537e+06 2.37637e-07 1.03259e+07)
(-4.78793e+06 -450445 1.7514e-08 3.24935e+06 4.56095e-11 -461574)
(-2.99088e+07 4.22945e+06 3.22842e-06 -6.24764e+06 1.1676e-06 -1.08469e+07)
(-6.13252e+06 -908843 5.83801e-09 2.403e+06 -1.82438e-10 -1.11886e+06)
(-6.42764e+06 -753257 -5.83801e-09 2.38371e+06 1.82438e-10 -1.21318e+06)
(-8.64615e+06 -7.98767e+06 7.60693e-06 -4.41306e+06 2.69278e-07 -3.91776e+06)
(1.56273e+07 -7.71591e+06 5.37097e-07 847476 2.2896e-07 4.94242e+06)
(-5.27684e+06 -1.69631e+06 2.91901e-08 2.94777e+06 3.64876e-10 -698721)
(531311 -514671 2.3352e-08 299893 1.09463e-09 249361)
(-1.3837e+06 -4.01235e+06 1.7514e-08 2.67084e+06 3.64876e-10 386143)
(-1.36853e+06 -4.14218e+06 1.1676e-08 2.57244e+06 7.29751e-10 361175)
(-6.66019e+06 -963191 1.1676e-08 2.06294e+06 1.82438e-10 -1.37917e+06)
(-1.04633e+07 -2.3005e+06 1.7514e-07 375157 -6.87791e-08 -3.02643e+06)
(-638221 -1.268e+06 -4.08661e-08 3.50969e+06 -1.09463e-09 861440)
(-6.20897e+06 -1.0726e+06 5.83801e-09 2.31666e+06 0 -1.16769e+06)
(-2.63482e+07 -3.67085e+06 8.05646e-06 -7.58252e+06 6.11532e-07 -1.01792e+07)
(-5.91701e+06 -7.58189e+06 6.76042e-06 -3.66552e+06 3.02847e-07 -2.87476e+06)
(-2.13273e+07 -5.48765e+06 1.03158e-05 -6.02641e+06 9.60353e-07 -8.20612e+06)
(-42236.7 -210455 0 5.07762e+06 -2.73657e-10 1.51061e+06)
(-62236.5 -230827 5.83801e-09 4.92583e+06 1.82438e-10 1.45908e+06)
(76975.8 -95906.4 5.83801e-09 126058 -1.09463e-09 60910.2)
(65884.2 -93057.7 -2.3352e-08 134159 0 60013)
(934.057 -127264 2.91901e-08 1.93723e+06 1.09463e-09 581450)
(4.07421e+07 1.5415e+07 -2.88142e-06 8.65501e+06 -8.44176e-06 1.48191e+07)
(-1.72581e+06 -3.62331e+06 0 2.91772e+06 -3.64876e-10 357572)
(-1.84715e+06 -3.73031e+06 0 2.72702e+06 -1.4595e-09 263962)
(-5.38105e+06 -1.74256e+06 -1.1676e-08 2.89089e+06 3.64876e-10 -747048)
(139554 -1.3126e+06 -1.1676e-08 1.90181e+06 -7.29751e-10 612410)
(-197876 -603012 1.1676e-08 4.35169e+06 1.82438e-10 1.24615e+06)
(-7.71814e+06 -2.79869e+06 2.3352e-08 1.59654e+06 -6.02045e-09 -1.83648e+06)
(7.93558e+07 -985960 -4.08447e-05 2.55481e+07 -9.44988e-06 3.44037e+07)
(1.42229e+06 -1.39373e+06 2.3352e-08 266408 3.64876e-10 506610)
(5.04697e+06 -546772 5.83801e-09 70661.3 1.09463e-09 1.53529e+06)
(4.70858e+06 -832864 1.7514e-08 -60760.3 7.29751e-10 1.39435e+06)
(7.28677e+06 -3.45031e+06 -5.83801e-09 728575 -3.64876e-10 2.4046e+06)
(-1.24177e+07 -40154.3 1.98492e-07 -919897 -7.99078e-08 -4.00126e+06)
(403864 -325167 -1.7514e-08 93765.9 -7.29751e-10 149289)
(-181409 -2.76795e+06 0 2.17145e+06 -7.29751e-10 597012)
(19979.1 -2.69143e+06 2.3352e-08 2.29051e+06 1.09463e-09 693147)
(6.96395e+06 -232498 1.1676e-08 74154.6 3.64876e-10 2.11143e+06)
(-1.30011e+07 -1.10103e+07 3.38838e-05 -1.30122e+07 5.35638e-06 -7.80398e+06)
(4.94742e+07 -597503 1.78059e-07 16887.1 4.24715e-07 1.48473e+07)
(-1.88382e+07 1.12924e+06 1.19679e-06 -3.99883e+06 -2.77306e-07 -6.85111e+06)
(-5.48173e+06 2.89291e+06 1.1676e-08 -1.22913e+07 -1.4595e-09 -5.33191e+06)
(-1.14931e+08 1.08127e+07 1.9156e-05 5.56797e+06 3.49681e-05 3.49611e+06)
(1.87366e+06 -2.65498e+06 1.1676e-08 915077 3.64876e-10 836622)
(-1.92216e+06 -2.0842e+06 -1.1676e-08 3.16189e+06 -3.64876e-10 371920)
(7.05235e+06 -289540 5.83801e-09 -95635.8 3.64876e-10 2.08702e+06)
(127424 -141716 -5.83801e-09 136869 -1.09463e-09 79287.7)
(-8.44396e+06 435577 -2.3352e-08 -2.44427e+06 -2.86484e-09 -3.26647e+06)
(-7.69473e+06 -2.1475e+07 0.000135441 -8.85146e+06 0.000176435 3.14615e+06)
(-9.8371e+06 1.8855e+06 0 -3.67993e+06 -1.36828e-08 -4.05511e+06)
(1.24882e+07 -5.692e+06 4.67041e-08 627367 1.02165e-08 3.93467e+06)
(5.54536e+07 2.46537e+06 -0.000117921 1.26412e+07 -4.92682e-05 3.16703e+07)
(2.7362e+06 -7.48399e+06 1.22598e-07 2.10874e+06 4.74338e-09 1.45348e+06)
(-38689 -456536 2.3352e-08 2.16158e+06 1.09463e-09 636867)
(6.02479e+06 -1.73303e+06 5.83801e-09 18630.3 3.64876e-10 1.81303e+06)
(-2.4567e+06 -3.98586e+06 5.83801e-09 2.9055e+06 -7.29751e-10 134642)
(1.84424e+06 -7.06263e+06 2.3352e-08 2.4552e+06 0 1.28983e+06)
(-4.27885e+06 -3.17807e+06 1.7514e-08 2.99157e+06 7.29751e-10 -386185)
(-5.47672e+06 -1.51485e+06 -5.83801e-09 2.88989e+06 -3.64876e-10 -776048)
(-6.23514e+06 -2.41735e+06 0 2.34872e+06 -3.64876e-10 -1.16593e+06)
(375051 -8.16246e+06 4.02823e-07 1.68941e+06 1.30443e-08 619338)
(-7.22505e+06 -1.55263e+06 3.50281e-08 1.21989e+06 -3.64876e-10 -1.80155e+06)
(-6.05108e+06 4.11294e+06 0 -1.10623e+07 -2.18925e-09 -5.134e+06)
(827837 -836027 1.1676e-08 314164 -7.29751e-10 342600)
(830368 -942594 2.3352e-08 434936 3.64876e-10 379591)
(2.74488e+07 -4.39771e+06 1.72221e-07 952954 1.09189e-07 8.52053e+06)
(371.499 -49160.7 0 212319 -3.64876e-10 63807.1)
(633032 -1.92478e+06 1.1676e-08 1.41742e+06 7.29751e-10 615135)
(11709.7 -645390 -1.1676e-08 3.15437e+06 0 949823)
(-3.88004e+06 -4.16287e+06 0 2.76845e+06 -3.64876e-10 -333478)
(-6.3172e+06 -146010 1.1676e-08 2.33592e+06 2.28047e-11 -1.19438e+06)
(3.23117e+06 -7.68445e+06 7.58942e-08 2.33687e+06 3.64876e-09 1.67041e+06)
(2.38509e+06 -6.36688e+06 2.3352e-08 2.27306e+06 -7.29751e-10 1.39744e+06)
(-3.72869e+06 -4.99438e+06 0 2.56425e+06 -1.09463e-09 -349333)
(-5747.67 -3.40598e+06 -5.83801e-09 2.1276e+06 -1.82438e-09 636556)
(-3.50504e+07 4.93412e+06 3.64876e-06 -8.42063e+06 1.80249e-06 -1.30413e+07)
(3.16554e+06 -1.99766e+06 5.83801e-09 365853 3.64876e-10 1.05942e+06)
(-2.7404e+06 -1.292e+06 5.83801e-09 3.41961e+06 -9.12189e-11 203763)
(3.49823e+07 7.9694e+06 -8.67127e-07 1.25219e+07 -2.10752e-06 1.42513e+07)
(589136 -1.86088e+06 -5.83801e-09 1.22261e+06 -1.09463e-09 543525)
(1.31796e+07 -5.7074e+06 2.3352e-08 801574 7.66239e-09 4.19434e+06)
(62008.6 -1.29852e+06 -1.7514e-08 1.8905e+06 -7.29751e-10 585753)
(-179229 -1.59141e+06 -5.83801e-09 2.69152e+06 7.29751e-10 753687)
(-973790 -3.06759e+06 0 2.53134e+06 -3.64876e-10 467265)
(-3.74628e+06 -4.05282e+06 5.83801e-09 2.78423e+06 -1.4595e-09 -288614)
(-2.98238e+06 -5.21284e+06 0 2.81922e+06 -3.28388e-09 -48948.3)
(-134936 -525537 0 4.4656e+06 -5.47314e-10 1.2992e+06)
(-785844 -290263 0 3.95173e+06 -4.56095e-11 949767)
(-680248 -297929 -5.83801e-09 3.99367e+06 9.12189e-11 994026)
(-519056 -1.3061e+06 -2.3352e-08 3.50036e+06 -5.47314e-10 894390)
(-758432 -2.21505e+06 -1.7514e-08 2.87371e+06 -1.09463e-09 634584)
(-62583.8 -701498 -2.91901e-08 2.18428e+06 -2.55413e-09 636508)
(-74069.5 -471469 -5.83801e-09 4.42985e+06 5.47314e-10 1.30673e+06)
(-7.70575e+06 -571.717 -2.3352e-08 -1.18334e+06 -5.70118e-10 -2.66673e+06)
(778854 -3.73483e+06 -5.83801e-09 1.61351e+06 -3.64876e-10 717708)
(-9435.21 -1.0992e+06 -1.1676e-08 3.06502e+06 -7.29751e-10 916674)
(-1.53117e+07 1.73261e+06 2.97739e-07 -2.92291e+06 -1.23693e-07 -5.47037e+06)
(-5.10113e+06 -1.96257e+06 5.83801e-09 2.97907e+06 3.64876e-10 -636619)
(-1.36323e+07 3.87862e+06 5.83801e-08 -5.29484e+06 -5.07177e-08 -5.67815e+06)
(-1.22692e+06 -1.31375e+06 5.83801e-09 3.52666e+06 0 689922)
(-1.28852e+06 -1.28292e+06 -5.83801e-09 3.45903e+06 1.82438e-10 651154)
(-1.2877e+07 3.05448e+06 9.92462e-08 -3.65277e+06 -6.31235e-08 -4.95893e+06)
(-2.645e+06 -5.61917e+06 5.83801e-09 2.72352e+06 -2.18925e-09 23553.2)
(-2.95049e+06 -4.55138e+06 -1.7514e-08 2.76795e+06 -1.4595e-09 -54762.8)
(155997 -618227 2.3352e-08 1.20968e+06 0 409703)
(6.97084e+06 -1.83042e+07 0.000293254 -1.60182e+07 0.000186952 3.07817e+06)
(3.6257e+07 2.75135e+06 -1.15885e-06 -356913 -3.08247e-06 1.077e+07)
(5.72223e+06 -4.77179e+06 5.83801e-09 1.04907e+06 3.64876e-10 2.03139e+06)
(5.13166e+07 -6.01972e+06 -0.000154654 1.67542e+06 -5.83462e-05 2.59598e+07)
(-4.87674e+07 -2.93734e+07 6.9125e-05 -2.14428e+07 0.000107259 -1.55368e+07)
(-1.12036e+07 -2.01271e+07 7.7163e-05 296602 0.000121483 1.8775e+06)
(-2.44457e+06 -4.82051e+06 0 2.93279e+06 7.29751e-10 146466)
(-6.48346e+06 -811318 1.1676e-08 2.11742e+06 0 -1.30981e+06)
(-6.63618e+06 -827149 5.83801e-09 2.16132e+06 0 -1.34246e+06)
(1.27074e+06 -1.6035e+07 0.000316834 -2.10093e+07 0.000255112 223838)
(-3.79652e+06 -3.06408e+06 -5.83801e-09 3.0636e+06 1.09463e-09 -219875)
(-6.28741e+06 -2.11186e+06 0 2.18664e+06 0 -1.23023e+06)
(4.54131e+06 -4.34392e+06 -5.83801e-09 1.02217e+06 -3.64876e-10 1.66904e+06)
(3.34094e+06 -1.67149e+06 5.83801e-09 71059.7 7.29751e-10 1.0236e+06)
(-1.48181e+07 1.82717e+06 3.03577e-07 -2.92726e+06 -1.24788e-07 -5.32361e+06)
(-5.20121e+06 -425509 5.83801e-09 3.08008e+06 9.12189e-11 -636338)
(3.50513e+06 -7.08628e+06 2.91901e-08 2.2885e+06 2.18925e-09 1.73809e+06)
(5.07338e+07 293276 -9.19487e-08 -174743 1.37193e-07 1.51677e+07)
(1.08521e+06 -565455 -1.7514e-08 56038.6 -1.09463e-09 342373)
(-1.3397e+06 -4.64119e+06 0 2.6548e+06 -3.64876e-10 394531)
(4.8592e+06 -5.3412e+06 0 1.36419e+06 1.09463e-09 1.86702e+06)
(-4.26409e+06 1.57382e+06 1.1676e-08 -1.44304e+07 -3.64876e-10 -5.60835e+06)
(4.1667e+06 -3.57596e+06 1.1676e-08 824462 0 1.49735e+06)
(-5.29985e+06 3.12638e+06 -5.83801e-09 -1.16154e+07 -1.4595e-09 -5.07457e+06)
(-1.04453e+07 -2.46835e+06 1.69302e-07 689207 -5.9566e-08 -2.92684e+06)
(-1.77032e+07 -472165 1.38945e-06 -2.69772e+06 -3.15982e-07 -6.12029e+06)
(-86150 -53969.7 0 4.91655e+06 -1.14024e-10 1.44912e+06)
(1869.07 10200.7 5.83801e-09 2137.56 -3.64876e-10 1201.99)
(-8.03405e+06 -7.97408e+06 5.44686e-06 -3.36067e+06 9.34082e-08 -3.41841e+06)
(156692 -938107 5.83801e-09 1.1181e+06 0 382437)
(-3.59632e+06 -3.3064e+06 1.1676e-08 3.10987e+06 7.29751e-10 -145935)
(-403136 -2.1328e+06 -5.83801e-09 2.57007e+06 -3.64876e-10 650081)
(-302217 -2.08861e+06 -5.83801e-09 2.77308e+06 -3.64876e-10 741258)
(-959452 -2.91468e+06 0 2.55849e+06 -7.29751e-10 479710)
(243103 -7.60348e+06 1.05084e-07 2.26591e+06 -3.28388e-09 752705)
(3.20753e+07 -1.13798e+06 1.7047e-06 -6.00538e+06 1.49599e-06 7.82096e+06)
(-2.52182e+06 -3.47951e+06 1.7514e-08 3.01081e+06 3.64876e-10 146696)
(-13950.5 -152473 -5.83801e-09 1.79099e+06 -1.4595e-09 533113)
(51443.8 -704656 1.7514e-08 2.53489e+06 3.64876e-10 775901)
(-3.38414e+06 6.57032e+06 -4.08661e-08 -1.7308e+07 7.29751e-09 -6.20763e+06)
(3.55331e+06 -6.7356e+06 2.3352e-08 1.93244e+06 2.55413e-09 1.64572e+06)
(-7.59682e+06 -1.34618e+06 3.50281e-08 1.02973e+06 -1.27707e-09 -1.97013e+06)
(1.13981e+06 -588406 -1.1676e-08 110973 0 375234)
(1.46649e+07 -5.74439e+06 2.91901e-08 878137 1.20409e-08 4.66291e+06)
(-2.75762e+06 -902536 0 3.44456e+06 -9.12189e-11 206082)
(2.54644e+07 -5.4994e+06 -7.00763e-06 -1.44576e+07 -0.000108365 1.21446e+07)
(-953640 -1.45456e+06 1.7514e-08 3.46111e+06 5.47314e-10 752242)
(-1.16257e+07 5.18693e+06 5.25421e-08 -7.13147e+06 -3.02847e-08 -5.62715e+06)
(-7.17586e+06 -1.46471e+06 1.7514e-08 1.39903e+06 -5.47314e-10 -1.73305e+06)
(-6.94201e+06 2.74703e+06 0 -7.86693e+06 -3.28388e-09 -4.44268e+06)
(1.5851e+07 -7.51091e+06 6.85383e-06 -6.35503e+06 3.59184e-06 2.84879e+06)
(-6.83697e+06 -1.63159e+06 0 1.71203e+06 -5.47314e-10 -1.53748e+06)
(-906134 -309597 -5.83801e-09 3.8965e+06 4.56095e-11 897109)
(-254078 -650080 1.1676e-08 4.2485e+06 1.82438e-10 1.19833e+06)
(-36858.8 -462332 -2.3352e-08 4.45275e+06 -5.47314e-10 1.32477e+06)
(-5.71894e+06 -2.15869e+06 0 2.62737e+06 -5.47314e-10 -927473)
(-2.73647e+06 -3.81435e+06 -5.83801e-09 2.96761e+06 -1.09463e-09 69342.4)
(2.3486e+07 -6.5936e+06 3.38605e-07 864998 1.95209e-07 7.30531e+06)
(-6.05788e+06 -1.98289e+06 -1.1676e-08 2.55624e+06 5.47314e-10 -1.05049e+06)
(8.14081e+06 -875591 -5.83801e-09 -137357 0 2.40104e+06)
(4.75693e+07 1.0691e+07 -1.74969e-05 -1.44874e+06 -5.70286e-05 1.92179e+07)
(2.33114e+07 -1.06889e+07 -0.000259227 -8.30657e+06 -0.000210016 1.82473e+07)
(512179 -193257 2.3352e-08 43115.5 7.29751e-10 166588)
(-767453 -168691 -1.7514e-08 4.01346e+06 -1.36828e-10 973803)
(4.10279e+06 -2.05029e+06 2.91901e-08 294298 1.82438e-09 1.31913e+06)
(-1.23253e+06 -5.90932e+06 1.1676e-08 2.52864e+06 -2.55413e-09 388833)
(4.93075e+07 7.43712e+06 -5.80618e-05 -928523 -6.8543e-05 2.26122e+07)
(4.1645e+07 1.08201e+07 -2.80662e-06 1.06789e+07 -5.21918e-06 1.56971e+07)
(-4.04277e+06 -102899 5.83801e-09 3.39003e+06 -3.42071e-11 -195822)
(-2.00681e+06 -4.89148e+06 2.3352e-08 2.7582e+06 1.09463e-09 225416)
(-2.38993e+06 -4.64916e+06 5.83801e-09 2.68711e+06 -7.29751e-10 89153.3)
(427572 -1.02045e+06 0 1.00604e+06 3.64876e-10 430084)
(-1.28316e+07 705178 1.7514e-07 -2.05773e+06 -7.55293e-08 -4.46679e+06)
(-2.01737e+07 3.24012e+06 9.74948e-07 -4.93096e+06 -2.21115e-07 -7.53138e+06)
(-21706.3 -19814 1.7514e-08 5.13022e+06 0 1.53255e+06)
(-30407.2 22243.4 -1.1676e-08 9488.56 -3.64876e-10 -6275.59)
(6.62892e+07 1.30988e+07 -4.07701e-05 6.81773e+06 -2.85605e-05 2.31339e+07)
(6.35337e+06 -2.18613e+06 -2.3352e-08 220567 -3.64876e-10 1.97218e+06)
(-5.9524e+06 4.06919e+06 -1.7514e-08 -1.2954e+07 -1.4595e-09 -5.67191e+06)
(337262 -766270 5.83801e-09 852942 7.29751e-10 357061)
(-958928 -832015 1.7514e-08 3.71234e+06 9.12189e-11 826025)
(2.24281e+06 -4.87493e+06 5.83801e-09 1.48647e+06 1.82438e-09 1.11879e+06)
(-1.83504e+06 -4.07746e+06 0 2.70335e+06 -7.29751e-10 260493)
(-6.66614e+06 -1.30052e+06 3.50281e-08 1.81364e+06 3.64876e-10 -1.45575e+06)
(-4.39935e+06 -3.28645e+06 -4.08661e-08 2.89954e+06 -3.64876e-10 -449943)
(-4.50983e+06 -2.79281e+06 -2.3352e-08 2.93782e+06 -1.09463e-09 -471603)
(-2.34349e+06 2.99589e+06 1.7514e-08 -1.71751e+07 9.12189e-10 -5.85558e+06)
(-4.62451e+06 -3.02798e+06 1.7514e-08 2.84469e+06 0 -533948)
(-1.73059e+07 -2.35948e+07 0.000161871 -2.24892e+07 9.45127e-05 -1.08591e+07)
(2.74267e+06 -7.34955e+06 2.91901e-08 2.30521e+06 1.09463e-09 1.51436e+06)
(1.83635e+06 -6.92523e+06 6.42181e-08 2.20922e+06 1.09463e-09 1.21367e+06)
(-4.95763e+06 -2.24515e+06 1.7514e-08 3.00972e+06 0 -584374)
(1.61591e+06 -7.93873e+06 4.96231e-07 1.77565e+06 2.59062e-08 1.01747e+06)
(3.46326e+06 -1.72504e+06 1.1676e-08 297600 1.82438e-09 1.12826e+06)
(-224156 -82140.9 2.3352e-08 4.74246e+06 0 1.35549e+06)
(64147.5 -40780 -1.7514e-08 17361.5 -3.64876e-10 24452.7)
(3.85295e+07 5.69443e+06 -1.63829e-06 1.48481e+07 -2.61543e-06 1.60133e+07)
(6.477e+06 -4.29443e+06 1.1676e-08 936579 -3.64876e-10 2.22407e+06)
(1.42714e+06 -7.23562e+06 1.05084e-07 2.32498e+06 -1.09463e-09 1.12564e+06)
(-1.14479e+07 8.04815e+06 1.1676e-08 -1.25747e+07 -5.83801e-09 -7.20677e+06)
(-7.73803e+06 -3.41129e+06 6.42181e-08 1.56664e+06 -1.78789e-08 -1.85142e+06)
(2.71435e+06 -8.94043e+06 1.8273e-06 -46214 2.97191e-07 800441)
(1.38719e+07 -6.28332e+06 7.00561e-08 1.03178e+06 2.07979e-08 4.4711e+06)
(6.58018e+06 -3.67754e+06 1.1676e-08 386642 -3.64876e-10 2.09005e+06)
(54853.4 -798243 5.83801e-09 2.95639e+06 -7.29751e-10 903373)
(-1.67016e+06 2.46467e+06 -2.3352e-08 -1.64315e+07 1.4595e-09 -5.43049e+06)
(-2.6429e+06 -3.97564e+06 -4.08661e-08 2.82483e+06 -7.29751e-10 54577)
(9.95848e+06 -8.22885e+06 2.0433e-07 1.23504e+06 5.76504e-08 3.35806e+06)
(6.8591e+07 -748216 -1.0365e-05 3.43315e+07 -1.29726e-05 5.79517e+07)
(-7.18886e+06 449893 2.3352e-08 -4.43789e+06 -6.84142e-10 -3.48802e+06)
(21921.8 -150183 -1.1676e-08 2.18433e+06 -7.29751e-10 661876)
(111839 -498903 -1.7514e-08 2.71688e+06 -1.09463e-09 848614)
(495477 -1.0328e+06 2.91901e-08 914261 7.29751e-10 422921)
(6.43434e+06 -2.15017e+06 5.83801e-09 300320 3.64876e-10 2.0204e+06)
(-7.6414e+06 722923 -1.7514e-08 -5.53967e+06 -7.98166e-10 -3.95432e+06)
(-4.16808e+06 -3.09489e+06 2.91901e-08 3.06193e+06 1.09463e-09 -331844)
(4.3651e+07 1.82817e+07 -4.40916e-06 988384 -2.04914e-05 1.33918e+07)
(3.73244e+07 1.35002e+07 -1.9353e-06 -3.60611e+06 -6.80128e-06 1.01155e+07)
(-2.8568e+06 -5.9351e+06 5.25421e-08 2.68103e+06 -2.18925e-09 -52731.2)
(-2.15222e+06 -5.78366e+06 2.3352e-08 2.66268e+06 -4.01363e-09 153140)
(1143.47 -415480 -2.3352e-08 1.66929e+06 0 501129)
(1.35838e+07 -2.7178e+06 1.7514e-08 -88946.3 2.55413e-09 4.04847e+06)
(-4.27791e+06 -3.64445e+06 -5.83801e-09 2.87555e+06 -3.64876e-10 -420708)
(376913 -464674 1.7514e-08 364022 -3.64876e-10 222281)
(-8.78229e+06 -666862 -1.1676e-08 -232038 -4.92582e-09 -2.7043e+06)
(-1.00438e+07 1.39716e+06 1.1676e-08 -2.66345e+06 -1.80613e-08 -3.81217e+06)
(5.91351e+06 -4.39914e+06 5.83801e-09 685838 3.64876e-10 1.9798e+06)
(-1.57562e+07 -5.13022e+06 5.09075e-06 -4.34001e+06 -3.40064e-07 -6.02888e+06)
(-1.05841e+07 1.7126e+06 2.3352e-08 -3.18072e+06 -1.58721e-08 -4.12944e+06)
(-270248 -756711 0 4.05522e+06 0 1.13549e+06)
(-385245 -848422 1.1676e-08 3.9176e+06 1.82438e-10 1.05971e+06)
(5.75782e+06 -1.44932e+07 0.000140146 -2.6264e+07 4.71707e-05 -4.67194e+06)
(2.07861e+07 -6.96414e+06 5.80882e-07 32757.4 3.42983e-07 6.24565e+06)
(-7.8776e+06 -1.84009e+06 1.1676e-08 1.06875e+06 -3.10144e-09 -2.04265e+06)
(-2.71605e+06 -3.79335e+06 0 2.82884e+06 3.64876e-10 33838.7)
(-7.07516e+06 -2.21814e+07 0.000148799 -2.1587e+07 8.03953e-05 -8.59865e+06)
(-265167 -664686 -5.83801e-09 4.1263e+06 0 1.15834e+06)
(-7.53923e+06 -552877 0 457218 -3.64876e-10 -2.1246e+06)
(-7.33974e+06 -623611 -5.83801e-09 518616 -3.19266e-10 -2.04634e+06)
(1.88214e+06 -2.24947e+06 5.83801e-09 648028 -3.64876e-10 759049)
(-1.74229e+06 -1.70311e+06 0 3.36547e+06 3.64876e-10 486954)
(-4.06258e+06 -2.84119e+06 1.7514e-08 3.1427e+06 0 -275965)
(-748278 -2.20671e+06 1.1676e-08 2.96711e+06 3.64876e-10 665650)
(-31892.8 -124698 0 5.4012e+06 0 1.61079e+06)
(14956.6 5368.4 -1.1676e-08 10467.2 3.64876e-10 7627.15)
(-6.38915e+06 -1.69635e+06 -5.83801e-09 2.25939e+06 -7.29751e-10 -1.23893e+06)
(-3.86473e+06 -120947 0 3.44336e+06 0 -126412)
(-1.65303e+07 2.72368e+06 3.61957e-07 -3.61634e+06 -1.40842e-07 -6.04398e+06)
(-4.40328e+06 -4.48426e+06 5.83801e-09 2.77235e+06 -7.29751e-10 -489280)
(-4.89379e+06 -1.33658e+06 -1.1676e-08 3.14328e+06 -1.82438e-10 -525152)
(-8.15429e+06 486931 -2.91901e-08 -2.47251e+06 -1.83578e-09 -3.18804e+06)
(-6.59839e+06 -552798 5.83801e-09 2.0791e+06 -4.56095e-11 -1.35579e+06)
(-7.11784e+06 -679383 5.83801e-09 1.41926e+06 -2.73657e-10 -1.70957e+06)
(-7.01511e+06 -519650 1.1676e-08 1.20045e+06 -9.12189e-11 -1.7444e+06)
(-4.22838e+06 -2.64579e+06 -1.1676e-08 3.12641e+06 -3.64876e-10 -330589)
(1.94287e+06 -2.04155e+06 1.1676e-08 444166 7.29751e-10 716112)
(-1.77429e+06 -1.51147e+06 0 3.45983e+06 -3.64876e-10 505661)
(-7.44051e+06 -2.55598e+06 5.83801e-09 1.45681e+06 -5.83801e-09 -1.79511e+06)
(2.00776e+06 -2.32111e+06 -1.7514e-08 655599 -1.4595e-09 799007)
(-1.91157e+06 -1.74653e+06 5.83801e-09 3.31706e+06 0 421645)
(-218687 -5.57097e+06 -5.83801e-09 2.54196e+06 -1.82438e-09 696982)
(-301782 -5.60239e+06 1.7514e-08 2.36217e+06 2.55413e-09 618117)
(4.55266e+07 -404571 2.91901e-08 -467188 2.90441e-07 1.35178e+07)
(2.43225e+06 -3.53167e+06 1.1676e-08 1.20525e+06 1.4595e-09 1.09125e+06)
(-28612.8 -527963 0 1.00358e+06 1.09463e-09 292491)
(-4.52431e+06 -2.63601e+06 -1.7514e-08 3.00414e+06 1.82438e-10 -456050)
(-7.10639e+06 -139647 5.83801e-09 1.19399e+06 0 -1.77372e+06)
(1.07054e+06 -1.65342e+06 -1.1676e-08 899684 7.29751e-10 591066)
(-6.41375e+06 -1.09019e+06 -1.1676e-08 2.2721e+06 0 -1.24249e+06)
(-8.60299e+06 -1.10898e+06 5.83801e-09 300339 -5.38192e-09 -2.4908e+06)
(-8.39195e+06 -802946 1.1676e-08 -223094 -5.10826e-09 -2.58451e+06)
(5.32944e+06 -4.79716e+06 5.83801e-09 879296 -1.09463e-09 1.86262e+06)
(-1.23254e+08 -7.14318e+06 2.18651e-05 2.21456e+07 3.37769e-05 1.98602e+07)
(257461 -895700 1.1676e-08 1.11394e+06 -7.29751e-10 411419)
(3.4012e+07 -3.57953e+06 2.36439e-07 -560632 2.56873e-07 1.00354e+07)
(3.70145e+07 -2.14077e+06 2.16006e-07 9095.05 2.30601e-07 1.11071e+07)
(-7.51346e+06 -6.21871e+06 1.01581e-06 655759 -1.12199e-07 -2.05731e+06)
(-8.36138e+06 25698.5 1.7514e-08 -1.34469e+06 -2.00682e-09 -2.91182e+06)
(-134277 -128732 0 4.97246e+06 4.56095e-11 1.45146e+06)
(49894.9 -20810 1.1676e-08 59158.8 0 32716.1)
(-6.65371e+06 -2.71757e+06 -1.7514e-08 1.97241e+06 -2.37169e-09 -1.40439e+06)
(-1.38499e+07 -2.25225e+06 1.00998e-06 -1.10347e+06 -2.51035e-07 -4.48602e+06)
(-8.03054e+06 -280466 0 -792819 -1.68755e-09 -2.64701e+06)
(-2.5334e+07 1.41171e+07 5.19583e-07 -1.43778e+07 5.31259e-07 -1.19135e+07)
(4.716e+06 -4.36042e+06 -5.83801e-09 1.08805e+06 -1.09463e-09 1.74121e+06)
(2.58926e+06 -2.07103e+06 -2.3352e-08 546426 0 940706)
(-2.29736e+06 -1.46135e+06 -1.1676e-08 3.34582e+06 -3.64876e-10 314539)
(-6.58381e+06 -5.91663e+06 8.99054e-07 679615 -7.97253e-08 -1.77126e+06)
(-8.35957e+06 3.18047e+06 2.3352e-08 -7.92894e+06 -6.56776e-09 -4.88655e+06)
(-36566.5 -71872.8 5.83801e-09 5.34195e+06 -9.12189e-11 1.59161e+06)
(39156.3 4304.68 -2.91901e-08 16941.7 -2.18925e-09 16829.4)
(4.22343e+07 1.30606e+07 -3.36999e-06 -9.2768e+06 -1.53832e-05 9.88724e+06)
(-1.28541e+07 -5.5641e+06 4.43105e-06 -3.06879e+06 -3.63416e-07 -4.77688e+06)
(-3.93689e+06 -708069 -1.7514e-08 3.49227e+06 -2.73657e-10 -133385)
(-7.94068e+06 -7.57145e+06 9.15984e-06 -4.71371e+06 4.46608e-07 -3.79632e+06)
(4.79568e+07 1.71817e+07 -8.0207e-06 4.90921e+06 -2.24705e-05 1.58598e+07)
(-3.60286e+06 -4.49585e+06 5.83801e-09 2.68796e+06 7.29751e-10 -274472)
(-970750 -839654 -1.7514e-08 3.72267e+06 -1.82438e-10 825577)
(1.10296e+07 -8.10171e+06 2.56873e-07 1.60881e+06 7.22454e-08 3.79152e+06)
(-3.63714e+06 1.26168e+06 5.83801e-09 -1.35066e+07 -1.36828e-10 -5.14311e+06)
(1.63864e+06 -3.52261e+06 0 1.46679e+06 7.29751e-10 931631)
(4.74575e+07 1.74467e+07 -5.66944e-06 3.60674e+06 -1.86583e-05 1.53193e+07)
(5.62554e+06 -2.08904e+06 -2.3352e-08 128066 -7.29751e-10 1.72608e+06)
(4.27604e+07 1.4929e+07 -4.66457e-06 -5.07287e+06 -2.11453e-05 1.13063e+07)
(-419445 -625063 5.83801e-09 4.13772e+06 0 1.11548e+06)
(2.97674e+07 -3.26768e+06 1.86816e-07 921784 1.47775e-07 9.20676e+06)
(7.06858e+06 -8.07239e+06 2.21844e-07 1.80508e+06 3.13793e-08 2.6621e+06)
(9.32689e+06 -7.16508e+06 5.25421e-08 1.1752e+06 1.20409e-08 3.15062e+06)
(-69435.1 -1.22233e+06 -5.83801e-09 2.35807e+06 -3.64876e-10 686592)
(3.42501e+07 -105833 1.18804e-06 -8.30303e+06 1.0596e-06 7.78411e+06)
(1.17656e+06 -1.81778e+06 -1.1676e-08 921890 -1.09463e-09 629536)
(2.30604e+06 -3.44461e+06 1.1676e-08 956222 -3.64876e-10 978680)
(-2.11894e+06 1.76722e+06 -5.83801e-09 -1.57089e+07 0 -5.34834e+06)
(1.4147e+06 -3.47141e+06 -4.08661e-08 1.37176e+06 -7.29751e-10 835938)
(-354.148 -132616 0 3.25478e+06 7.29751e-10 976329)
(-3.2676e+06 1.33568e+06 -1.1676e-08 -1.58081e+07 3.64876e-10 -5.72271e+06)
(2.36168e+06 -4.864e+06 2.3352e-08 1.8003e+06 2.55413e-09 1.24859e+06)
(-6.17769e+07 -2.34358e+07 3.29906e-05 1.45551e+07 5.27922e-05 -196720)
(-8.01673e+06 693407 -5.83801e-09 -3.38362e+06 -2.28047e-09 -3.42011e+06)
(3.36854e+07 1.36832e+06 -5.33066e-06 -1.73902e+07 -7.21031e-05 1.05622e+07)
(1.59479e+07 -8.06361e+06 5.77963e-06 -6.59919e+06 2.99052e-06 2.8046e+06)
(-8.4025e+06 4.66661e+06 1.1676e-08 -9.91949e+06 -6.56776e-09 -5.4966e+06)
(-7.6102e+06 83202.9 5.83801e-09 -1.7312e+06 -1.14024e-10 -2.80242e+06)
(-1.62666e+07 3.83001e+06 3.21091e-07 -4.94792e+06 -1.25517e-07 -6.36434e+06)
(1.09683e+07 -6.35864e+06 2.91901e-08 1.46602e+06 6.93264e-09 3.7303e+06)
(2.19569e+06 -3.2251e+06 -5.83801e-09 919621 0 934593)
(-2.0368e+07 3.42842e+06 9.04892e-07 -4.55082e+06 -1.766e-07 -7.47564e+06)
(3.19867e+07 72116.2 1.80978e-06 -1.18709e+07 1.27561e-06 6.03475e+06)
(-4.19343e+07 -3.11554e+07 6.80887e-05 -2.54932e+07 9.92462e-05 -2.02283e+07)
(329765 -324546 -5.83801e-09 266441 3.64876e-10 178862)
(202827 -258370 0 188814 1.4595e-09 117492)
(-7.50942e+06 -726059 5.83801e-09 369426 -9.12189e-10 -2.142e+06)
(-7.59772e+06 -469911 2.3352e-08 19893.1 -9.12189e-11 -2.27335e+06)
(4.43587e+07 1.17364e+07 -4.2435e-06 1.70761e+07 -5.29508e-06 1.84304e+07)
(3.53493e+07 1.55094e+06 1.12966e-06 -6.18655e+06 8.64026e-07 8.74883e+06)
(6.1393e+06 -3.16535e+07 -0.000234511 -182113 -0.000108568 2.85999e+07)
(-2.67499e+06 -3.29144e+06 -1.1676e-08 3.00461e+06 -3.64876e-10 98886.3)
(21167 -132841 -5.83801e-09 190996 3.64876e-10 63649)
(-5.43056e+06 -2.73005e+06 -5.83801e-09 2.63372e+06 -7.29751e-10 -839053)
(-7.07109e+06 3.98141e+06 1.7514e-08 -1.15341e+07 -2.91901e-09 -5.58155e+06)
(1.55804e+07 -4.72844e+06 0 318429 9.48677e-09 4.76965e+06)
(-3.75994e+06 -5.17193e+06 1.1676e-08 2.7153e+06 -2.55413e-09 -313392)
(-5.61378e+06 -2.57202e+06 -5.83801e-09 2.68695e+06 -3.64876e-10 -878047)
(-8.40882e+06 1.01372e+06 1.7514e-08 -3.94252e+06 -2.57693e-09 -3.7054e+06)
(-7.94484e+07 -8.73065e+06 6.59829e-06 563045 -5.47134e-06 3.54028e+07)
(1.75897e+06 -4.44758e+06 5.83801e-09 1.65423e+06 0 1.02396e+06)
(1.83059e+06 -4.31485e+06 1.1676e-08 1.47008e+06 -3.64876e-10 990200)
(6.30262e+06 -8.21139e+06 1.7514e-07 1.69617e+06 2.44467e-08 2.39964e+06)
(6.9668e+06 -8.96633e+06 5.07907e-07 1.19935e+06 1.07991e-07 2.44984e+06)
(2.44027e+07 -6.7646e+06 1.26685e-06 -2.04546e+06 9.34812e-07 6.70716e+06)
(7.97958e+06 -8.40849e+06 1.87108e-05 -9.6936e+06 6.72685e-06 -514206)
(210034 -376581 2.91901e-08 297780 0 152344)
(-7.56661e+06 2.74088e+06 0 -6.76623e+06 -4.74338e-09 -4.29985e+06)
(8.6693e+06 -8.25552e+06 4.20337e-07 1.48484e+06 1.01117e-07 3.04624e+06)
(8.41382e+06 -9.01606e+06 1.50562e-05 -1.00932e+07 5.40016e-06 -503813)
(6.67282e+06 -5.76304e+06 -1.1676e-08 1.51358e+06 0 2.45592e+06)
(5.59643e+06 -5.73801e+06 5.83801e-09 1.15029e+06 1.09463e-09 2.02402e+06)
(-920819 -2.12573e+06 1.1676e-08 2.94631e+06 1.82438e-10 607648)
(-518455 -926900 2.3352e-08 3.84161e+06 3.64876e-10 996946)
(4.70498e+07 4.27666e+06 -8.69869e-05 -6.45871e+06 -8.63224e-05 1.94863e+07)
(-8.57071e+06 3.0179e+06 1.1676e-08 -6.84176e+06 -7.47995e-09 -4.62374e+06)
(-432190 -2.99378e+06 1.1676e-08 2.37838e+06 -7.29751e-10 583858)
(-52607.9 -250486 0 948647 0 268812)
(-204930 -3.37165e+06 -5.83801e-09 2.32027e+06 7.29751e-10 634601)
(-5.18045e+06 -2.20001e+06 2.3352e-08 2.89017e+06 -1.82438e-10 -687084)
(-254203 -2.7962e+06 5.83801e-09 2.21966e+06 0 589636)
(-8.95033e+06 -203684 5.83801e-09 -1.06803e+06 -5.24509e-09 -3.00551e+06)
(1.16857e+07 -3.10876e+06 2.91901e-08 279334 1.4595e-09 3.58952e+06)
(1.83256e+06 -1.47862e+06 -1.1676e-08 470197 0 690826)