/*--------------------------------*- C++ -*----------------------------------*\
| =========                 |                                                 |
| \\      /  F ield         | OpenFOAM: The Open Source CFD Toolbox           |
|  \\    /   O peration     | Version:  v2012                                 |
|   \\  /    A nd           | Website:  www.openfoam.com                      |
|    \\/     M anipulation  |                                                 |
\*---------------------------------------------------------------------------*/
FoamFile
{
    version     2.0;
    format      ascii;
    class       volScalarField;
    location    "20";
    object      sigmaHyd;
}
// * * * * * * * * * * * * * * * * * * * * * * * * * * * * * * * * * * * * * //

dimensions      [1 -1 -2 0 0 0 0];


internalField   nonuniform List<scalar> 
7666
(
-4.08558e+06
26663.9
-3.56758e+07
357891
26855.3
6.71617e+06
976050
795663
1.68409e+07
1.20013e+06
-1.39628e+06
703760
650291
660549
1.2485e+06
-1.59106e+07
864921
8.36444e+06
1.14889e+06
680250
-332705
3.10327e+06
773964
-281401
2.17377e+06
1.34778e+06
2.13645e+06
-3.26884e+06
871544
173647
201050
8.53782e+06
-5.0391e+06
375174
-7.24705e+06
101369
118512
312102
6.43389e+06
1.12329e+06
-8.13e+06
1.54835e+07
6.28504e+07
-2.58788e+06
3.50159e+07
959900
1.04256e+07
-8.46006e+06
-5.65247e+06
-1.68032e+06
-3.24757e+06
2.68753e+06
824695
1.45648e+07
-666718
-1.56678e+07
-1.61613e+06
-1.75237e+06
-5.65899e+06
7.13905e+06
-1.00926e+06
360188
557762
521698
-1.99214e+06
-4.37151e+06
1.2443e+06
-1.68667e+06
-1.47033e+07
-4.15243e+06
-1.18533e+07
2.182e+06
2.10756e+06
87981.4
86685.4
839872
2.14054e+07
516493
381278
-1.07907e+06
884593
1.79999e+06
-2.65269e+06
4.64359e+07
731770
2.21764e+06
2.01405e+06
3.47332e+06
-5.7796e+06
215640
862351
1.00121e+06
3.04984e+06
-1.12724e+07
2.14462e+07
-9.89604e+06
-7.70165e+06
-3.52888e+07
1.20845e+06
537218
3.01458e+06
114527
-4.71824e+06
-4.46668e+06
-5.85738e+06
5.68341e+06
3.3255e+07
2.09947e+06
919919
2.61882e+06
194483
1.86309e+06
-557822
-1.12096e+06
-1.68412e+06
894600
-2.60223e+06
-7.41578e+06
494867
548299
1.23074e+07
92165.8
888528
1.37197e+06
-481691
-1.72522e+06
2.41282e+06
2.01853e+06
-504593
919470
-1.88374e+07
1.53027e+06
294325
2.05852e+07
785091
6.05849e+06
846087
1.08866e+06
674938
-416887
-70703.1
1.87662e+06
1.37188e+06
1.43582e+06
1.2919e+06
916621
919401
1.88751e+06
-3.85194e+06
1.03669e+06
1.32409e+06
-7.90165e+06
-919561
-8.20177e+06
996555
940556
-7.1629e+06
34021.4
-79101.9
591793
-1.98973e+06
1.55567e+07
2.93423e+06
2.63173e+07
-2.85823e+07
-3.00984e+06
211561
-1.89195e+06
-1.93911e+06
-6.50492e+06
-317598
-1.777e+06
2.41084e+06
1.47854e+06
-7.68966e+06
-919154
2.51058e+06
2.19089e+07
494539
569878
2.6968e+06
-8.10095e+06
2.16284e+06
-7.32993e+06
-4.22766e+06
-8.84042e+06
2.09317e+06
1736.21
-4.93771e+06
552409
-210795
939006
1.07071e+06
692914
1.08724e+06
1.12969e+07
211894
770053
1.12075e+06
-8.96658e+06
2.37716e+06
-2.84574e+06
542005
6.73532e+06
297674
7.71711e+06
1.08657e+06
-8.12811e+06
-2.50329e+06
-6.41721e+06
4.11492e+06
-2.22081e+06
1.29582e+06
1.73092e+06
1.91355e+06
-1.33968e+06
100161
1.05521e+07
-1.51738e+06
3.46816e+06
2.17795e+07
1.1084e+07
240628
1.4066e+06
1.9054e+06
561647
2.36637e+07
2.26736e+07
-282854
325601
128777
621232
-6.45203e+06
-1.08787e+07
2.21369e+06
-9064.74
3.20803e+07
2.84871e+06
-8.19276e+06
515755
1.19315e+06
1.61602e+06
376268
-2.10275e+06
-649918
-681204
-8.45806e+06
-771259
-1.68847e+07
2.18741e+06
1.75308e+06
-844096
1.46968e+06
1.62971e+06
1.95793e+06
35320.6
2.31303e+07
3.21255e+06
1.62592e+06
-1.04098e+07
-2.67427e+06
1.15619e+06
6.45825e+06
3.01896e+06
1.30487e+06
-7.84405e+06
78833.5
4.85053e+06
5.36248e+07
-5.03826e+06
956043
1.22578e+06
610886
2.91835e+06
-5.7118e+06
-479330
1.93437e+07
1.46113e+07
-76167.3
221202
723853
5.84779e+06
-607689
321072
-3.90621e+06
-5.50646e+06
2.85972e+06
-8.70838e+06
-5.96474e+06
1.64015e+06
1.53069e+06
-8.3927e+06
9.0215e+06
-2.9505e+06
48878.1
-1.24203e+07
1.67316e+06
-3.06887e+06
-2.95582e+06
1.0964e+06
703379
-398616
961495
2.3267e+06
11017
-1.78956e+06
-182595
-8.7302e+06
-706737
-758553
-4.60495e+06
-1.95836e+06
-2.46938e+06
-2.51968e+06
-477518
1.03438e+06
730399
-2.59293e+06
1.15412e+06
609043
1.00675e+06
892836
1.95257e+07
1.57625e+06
422486
-658739
-2.56204e+06
853763
-1.79471e+06
-3.59782e+06
-3.73318e+06
2.69045e+06
-2.70828e+07
594272
1.44956e+07
1.60435e+07
-2.97167e+06
-4.20596e+06
2.09655e+06
47256.6
-2.02857e+06
-6.4798e+06
-3.82346e+06
-1.72085e+07
2.51509e+06
1.3588e+06
454334
-2.55848e+06
-7.05836e+06
2.299e+06
24309.1
1.42816e+07
-6.89993e+06
-192667
-5.48357e+06
2.29086e+07
-396459
1.1925e+06
5.47664e+06
-7.42894e+06
1.34569e+06
2.21279e+07
2.49323e+06
1.63313e+07
1.61125e+06
1.32987e+07
3.84525e+06
4.5509e+06
991744
1.12437e+07
909330
1.41365e+06
-7.72538e+06
1.20747e+06
1.41025e+06
-8.26614e+06
1.80352e+06
-1.58062e+07
-4.94015e+06
8.95246e+06
4.0511e+06
-7.93953e+06
-4.04794e+06
-9.19294e+06
5.38821e+06
1.34997e+06
-1.07981e+07
8.71686e+06
-2.92186e+07
258356
169711
-3.094e+06
-3.28373e+06
2.66217e+07
1.26372e+07
1.1519e+07
142836
91937.5
-1.21197e+06
-8.06224e+06
6.8895e+06
-452678
-1.26829e+06
-5.35225e+06
-1.44942e+07
1.47905e+06
1.43029e+06
3.46614e+06
3.53866e+06
9.68813e+06
-742742
220053
-6.21089e+06
4.40013e+06
-727729
3.54744e+06
2.92358e+06
877714
1.44003e+06
2.00258e+07
-6.67873e+06
843350
388284
916646
-992455
851696
-4.34129e+06
5.18486e+06
997860
-1.4273e+07
-1.57896e+07
-4.88415e+07
-14236.4
-6732.83
2.45808e+06
1.61163e+06
-3.43254e+06
387933
916630
1.10613e+06
-1.2603e+07
-3.9522e+06
416887
676712
1.52275e+06
550869
-9.62057e+06
860763
836760
1.22059e+06
-4.1885e+06
-6.60614e+06
-849547
1.92036e+07
-1.22061e+06
2.30415e+06
1.13862e+06
-1.48593e+06
642575
1.51106e+06
2.64661e+07
-1.36923e+06
4.13199e+06
1.02907e+07
-6.22274e+06
1.14966e+06
1.13366e+06
2.10721e+06
2.45278e+06
-4.86715e+06
2.11259e+06
845163
982871
-272737
8.88745e+06
2.62811e+06
1.76944e+06
1.99356e+06
960521
-1.58776e+07
-6.33568e+06
-7.91427e+06
682287
927343
549018
1.05075e+06
-1.28809e+07
50118.6
-9.54966e+06
876744
807024
-116104
-33542
2.55259e+06
464701
-9.40018e+06
-1.18729e+06
-1.60959e+06
942709
-1.58924e+07
-403012
-988387
2.03772e+07
-1.25421e+07
-1.08463e+06
-1.00183e+06
1.88701e+06
1.33809e+07
-5.72684e+06
755790
-393405
6.0951e+06
6.5484e+06
1.90902e+06
1.88208e+06
84419.8
53394.9
892887
-2.56291e+06
-1.48229e+06
-1.33374e+06
4.75266e+07
-452344
-8.27947e+06
1.01058e+06
-9.62211e+06
1.74026e+06
-1.41433e+07
-238761
2.12855e+06
-13833.3
-1.33194e+07
5.519e+06
-1.19906e+06
1.07823e+07
-7.61709e+06
1.53344e+07
3.65636e+06
836802
995377
1.24297e+07
-1.03636e+07
2.81735e+07
1.40916e+06
3.66954e+06
9.16413e+06
1.19822e+07
1.50222e+07
1.86728e+06
1.48058e+06
4.69753e+06
-9.70529e+06
-1.09767e+06
2.20647e+07
989479
-7.90043e+06
490867
-3.83111e+06
1.48283e+07
1.18452e+06
-106827
2.13876e+07
638842
-2.15897e+06
-9.32704e+06
-3.87652e+06
-197419
2.0469e+06
-2.24607e+07
480848
1.13911e+06
677356
2.41518e+06
1.78088e+06
-4.7298e+06
-4.45383e+06
9.92078e+06
-9.66164e+06
8.70979e+06
-20383.4
1.93828e+07
-1.85816e+06
765719
-7.62256e+06
2.33574e+06
9.86748e+06
-2.48843e+06
1.63662e+06
531013
-2.80795e+06
220607
4.89818e+06
1.81673e+06
-2.79976e+06
283412
-6.90928e+06
952668
1.77475e+06
103366
958193
-9.48674e+06
1.50255e+07
4.61788e+06
4.39309e+06
-1.053e+06
-158606
1.86028e+06
-303789
-1.14899e+07
2.88347e+07
-2.51191e+06
1.40218e+07
-3.45747e+06
-8.28853e+06
162716
712543
2.05623e+06
2.0698e+06
136098
144398
1.15923e+06
-3.2601e+06
1.16245e+07
-8.16514e+06
1.28763e+06
-5.71588e+06
-1.64266e+06
-6.37443e+06
1.26471e+06
1.06025e+07
665939
4.74874e+07
-5.14209e+06
1.33727e+07
-9.54504e+06
-1.61891e+06
801091
-9.45239e+06
1.14185e+06
615581
2.39632e+06
520706
-4.59451e+06
-6.98773e+06
-4.0056e+06
203639
-3.60283e+06
-4.5891e+06
2.29119e+07
-3.86587e+06
5.27747e+06
1.76864e+07
1.3224e+06
1.10905e+06
-1.62571e+06
-3.34604e+06
3.47296e+06
4.25645e+06
1.92383e+06
1.99298e+06
-6.30454e+06
-235433
-6.23521e+06
1.30268e+07
289319
-5.56511e+06
-4.08622e+06
3.93701e+07
1.50348e+06
1.00166e+06
180681
-4.37861e+06
-925946
-1.66103e+06
2.63649e+06
-1.75288e+07
656501
1.47826e+06
-7.01378e+06
-979982
-7.71798e+06
4.44645e+06
1.21252e+07
508748
1.53311e+06
-3.40634e+06
85182.4
-198059
9.26328e+06
9.22841e+06
1.23799e+07
612457
-1.08033e+06
1.38149e+06
1.19888e+06
1.52055e+06
5.37882e+06
-1.02936e+07
5.76011e+06
1.02523e+07
1.18573e+06
1.48881e+07
-9.86186e+06
3.32984e+06
169984
3.99448e+06
2.81773e+07
-5.61483e+06
1.04007e+06
7.12104e+06
-3.64029e+06
713624
2.5764e+07
3.39182e+06
1.61668e+06
260271
554175
1.02278e+06
-1.84533e+06
3.66021e+06
2.70296e+07
-2.7337e+06
2.44976e+06
-31613.7
-1.33262e+06
1.30598e+06
1.76963e+06
1.66276e+07
-1.16695e+07
1.2232e+06
-1.08585e+07
806799
827181
1.96107e+06
1.89935e+06
1.85297e+06
2.80281e+06
789138
-1.12379e+07
-3.3593e+06
-2.01149e+06
-9.19029e+07
1.85275e+07
4.46138e+06
792409
-1.13143e+07
1.77842e+06
3.22905e+06
2.54614e+07
824599
-2.45436e+06
874353
940875
-2.13331e+06
-1.31381e+06
510154
4.99043e+06
6.11112e+06
5.1567e+06
-1.45725e+06
6.20258e+06
963208
4.4165e+06
1.627e+06
-1.18732e+06
367850
-268599
8.80959e+06
1.35697e+06
-1.01154e+07
4.49855e+06
-1.19472e+06
315147
1.67478e+06
1.25603e+06
-367117
-1.69536e+07
-1.69452e+06
1.35897e+06
1.38987e+06
1.37395e+06
1.67872e+07
159179
540424
876576
831819
-8.38661e+06
6.28933e+06
-1.87911e+07
3.4757e+07
1.55087e+07
316893
273690
268743
-1.14609e+07
1.05801e+06
1.52085e+07
-142153
-130499
-104710
-390804
6.13998e+06
1.32065e+06
2.1655e+07
-2.91758e+06
4.92206e+06
793693
2.70522e+06
-637522
1.23686e+06
-815442
-1.31696e+06
-253887
-2.58537e+06
1.16055e+06
1.51762e+06
1.82068e+06
914088
-734795
-494829
2.98408e+07
1.95642e+06
-4.22269e+06
-1.99675e+06
346188
1.17245e+06
416996
-6.34411e+06
-538625
2.58326e+06
-2.81813e+07
366073
2.0562e+06
-4.59799e+06
-4.31669e+06
2.65391e+06
1.96782e+06
760246
807470
2.49752e+06
303241
1.77548e+06
1.44804e+07
962704
4.2344e+06
-8.60241e+06
1.2595e+06
145311
908909
-1.24857e+07
-7.41781e+06
-187623
-1.14012e+07
-158557
-6.89219e+06
-8.81634e+06
1.71699e+06
-2.15905e+07
413497
746780
998465
896063
2.55241e+06
-1.0446e+06
-698212
-1.19885e+07
1.71595e+07
298084
5.71194e+06
7.39707e+06
5.42082e+06
-1.01342e+07
141410
378297
-9.89827e+06
-645734
-668286
867252
787364
-2.20071e+06
-2.0189e+06
-1.07082e+07
-1.88058e+06
962501
-4.13538e+06
-6.55409e+06
-4.22319e+06
-2.79464e+06
963838
1.52053e+06
1.33405e+06
-120806
1.5638e+06
224724
-640859
-2.78258e+06
-297186
1.05202e+06
-363275
1.35509e+06
1.66443e+07
1.52178e+06
343461
1.3813e+07
1.96919e+06
962200
986595
-1.17657e+06
1.17769e+06
3.57328e+06
4.125e+06
1.93606e+06
4.00875e+06
-6.33305e+06
8616.02
-4.61463e+06
740918
-1.09715e+07
-6.85024e+07
-1.09898e+07
1.69623e+06
1.35456e+06
-9.34451e+06
1.11531e+06
343479
-9.6265e+06
1.16109e+06
1.72036e+07
-1.25583e+07
-7.45715e+06
867779
4.74922e+06
1.44732e+07
-1.82116e+07
-158258
3.10101e+06
-2.27042e+07
1.93037e+06
3.55916e+07
-273374
1.43513e+06
1.01052e+07
1.0582e+07
8.98007e+06
1.20456e+06
373569
-6.80635e+06
-1.8824e+07
-3.64068e+06
243154
-1.03433e+06
422034
1.40359e+06
-9.49461e+06
578863
-6.71045e+07
3.95078e+06
3.71781e+06
5.18362e+06
5.99288e+06
1.55268e+07
447797
2.6905e+07
-3.43629e+06
893643
-8.63212e+06
1.90963e+06
-3.59473e+06
72666.6
-876283
258023
58012.9
119967
982520
784389
-4.4379e+06
-5.12653e+06
4.10612e+06
-2.78934e+06
-3.73299e+06
1.08468e+07
-1.05594e+06
-8.78216e+06
-1.39394e+06
-9.17163e+06
3.1646e+06
-3.90115e+06
1.22617e+07
-1.48533e+07
-1.05529e+07
2.32195e+06
-1.2887e+07
2.05538e+07
2.77434e+06
-6.08499e+06
5.07693e+06
-4.44934e+06
-3.18124e+06
-8.224e+06
-4.62463e+06
-1.96429e+07
-489390
508576
1.02779e+06
-2.37642e+07
-9.95962e+06
700919
869281
1.12936e+06
3.92986e+07
1.66972e+06
2.23535e+06
939803
1.75768e+06
2.04294e+07
1.77068e+06
116655
6.3485e+06
4.1657e+07
1.10528e+06
633428
997158
483274
-934788
-1.9043e+07
7.42173e+06
-857290
442891
-1.72175e+06
1.34534e+07
3.5305e+06
3.97923e+06
-5.62746e+06
3.97633e+06
1.47285e+06
826242
2.40783e+07
2.16592e+06
426034
458972
5.92867e+06
968553
-7.57959e+06
995627
769288
-1.00271e+06
831535
1.26496e+06
550081
-1.23484e+06
749707
-1.54898e+06
-1.1657e+06
991149
1.92578e+07
850910
-2.20461e+06
1.84468e+06
-7.73591e+06
-9.94313e+06
580575
1.90401e+07
201421
-8.95906e+06
4.51471e+07
2.05778e+06
-6.28941e+06
-4.3084e+06
1.19392e+06
-6.90751e+06
-399457
3.20108e+06
-446565
4.28807e+06
-2.4302e+06
8.77155e+06
6.09817e+06
6.58078e+06
-5.04394e+06
1.59378e+06
1.33449e+06
4.06994e+06
2.56303e+06
-7.90554e+06
6.6204e+06
3.95167e+07
705181
478816
206191
-1.80981e+06
555568
-736961
1.76799e+06
1.41287e+06
-1.74662e+06
3.17383e+06
2.22604e+06
865471
2.74754e+06
2.89578e+06
705268
597034
13266.2
-8.0205e+06
61447
1.54075e+06
359770
535710
-2.42649e+06
-5.40986e+07
-614833
5.39489e+06
1.74117e+06
-671857
871775
-3.36971e+06
-1.54213e+06
-8.26091e+06
-3.12827e+06
-4.73995e+06
-6.02707e+06
-1.17201e+06
916059
614590
2.05103e+06
-297734
-7.99927e+06
-6.45494e+06
-6.21812e+06
3.40596e+07
747912
-1.12807e+07
8.9399e+06
1.02749e+06
3.5689e+06
-4.17302e+06
-6.64808e+06
-1.00946e+07
2.6294e+06
1.25779e+06
-1.99121e+06
865639
812504
847028
1.06112e+06
1.22291e+06
1.17078e+06
464168
5.79166e+06
-2.34738e+06
6.10755e+06
1.58381e+07
823693
911102
-2.32288e+06
903435
525250
2.36169e+06
847146
-3.05243e+07
3.85249e+06
6.33571e+06
-731987
-1.33059e+07
1.18743e+06
2.79438e+06
1.94059e+07
243822
514307
-1.08992e+06
-1.91453e+07
244024
3.14797e+06
4.36863e+06
-6.52772e+06
-1.87565e+07
-1.32949e+07
-563638
619901
5.77272e+06
-1.90457e+06
1.21848e+06
1.05559e+06
652048
1.37581e+06
4.9442e+07
973960
823360
-3.82605e+06
4.77048e+06
-7.60732e+06
-3.58059e+06
1.91906e+07
-8.61559e+07
2.5018e+06
8.17891e+06
857780
1.36212e+06
369181
1.07888e+06
-2.04833e+06
-6.01676e+06
-1.29793e+07
533679
-9.32081e+06
-1.86777e+06
-5.66577e+06
1.18677e+06
1.86813e+06
47626.7
2.39794e+06
-8.73232e+06
351822
1.79772e+07
2.40151e+06
145588
158950
-791300
1.50569e+06
1.72852e+06
-4.35258e+06
1.22422e+06
741218
784792
-4.78737e+07
-5.21367e+06
-4.84171e+06
1.32512e+06
8.16552e+06
623104
-6.83407e+06
-7.33173e+06
4.12666e+06
938899
1.26047e+06
-5.92302e+06
-8.30892e+06
-2.29631e+07
587532
-1.24894e+07
2.87945e+06
-1.6457e+07
-1.47403e+06
1.31348e+07
-6.4219e+06
-1.1369e+06
3.75823e+07
4.37928e+06
-6.17541e+06
8.9089e+06
1.3457e+07
-1.37323e+07
-6.51704e+06
-656560
3.79872e+06
3.79453e+06
6.54313e+07
1.32593e+06
4.34895e+06
590466
-567163
-2.27668e+06
411046
883516
-4.37642e+06
139956
118156
-6.35167e+06
911807
285810
1.29291e+06
1.66193e+06
-9.09659e+06
6.25216e+06
-4.53593e+06
642266
858737
2.30058e+06
1.17327e+07
7.01854e+06
-1.73218e+06
-3.81619e+06
-3.35163e+06
6.70274e+06
1.46638e+07
1.49697e+06
-5.8696e+06
-3.55368e+06
999950
-1.8e+06
-9.62542e+06
944913
4.39386e+06
926570
-1.09108e+07
-1.58975e+06
-2.23177e+06
-2.09294e+06
1.13139e+06
1.18897e+07
1.31377e+07
-3.26052e+06
-2.3865e+07
-1.22118e+07
6.35004e+07
9.29856e+06
573030
-4.24088e+06
1.1374e+06
-2.52905e+06
2.82453e+06
-2.33274e+06
836561
1.53439e+06
4.65181e+06
844695
-1.1058e+07
-2.23714e+06
-4.95778e+06
-4.12583e+06
1.17603e+07
-3.25266e+06
3.03289e+06
1.62428e+06
1.24168e+06
4.24064e+06
3.58671e+06
3.55269e+06
3.67927e+06
-2.3392e+06
8.99991e+06
-1.10827e+07
-2.57866e+06
-818279
5.85704e+06
-7.74759e+06
-2.61038e+06
-466792
1.30212e+06
8.06845e+06
868721
398808
-4.67423e+06
516722
4.19059e+06
1.44415e+07
-1.15903e+06
-1.11393e+07
-7.68432e+06
-2.32837e+06
-2.19439e+06
-2.76017e+07
1.3163e+06
-2.66856e+06
-7.19338e+06
2.51312e+07
211646
126922
1.82823e+06
-4.30144e+06
-2.04817e+06
9.8085e+06
-4.42951e+06
-1.81649e+06
234489
-7.21147e+06
-5.25379e+06
6.72022e+06
-1.45777e+06
-1.05843e+07
658639
1.09312e+06
534804
1.26147e+06
1.36447e+06
430110
-1.11256e+06
-1.97072e+06
572031
981132
1.06086e+06
1.14681e+06
-5.69013e+06
-5.31725e+06
1.71629e+06
1.26301e+06
-5.01668e+06
-7.6466e+06
1.15476e+07
-5.37612e+06
-2.08571e+07
353641
6.20689e+06
-9.20488e+06
-7.40619e+06
1.04286e+07
1.81698e+07
866273
7.17424e+06
1.28754e+06
1.36485e+07
1.09073e+07
800926
902132
881233
-6.36639e+06
-6.95602e+06
3.50404e+07
1.60996e+07
-2.78288e+06
-7.19042e+06
1.75626e+06
-812507
-7.04191e+06
1.20278e+06
960374
1.21296e+06
3.49896e+06
-1.28298e+06
5.6256e+06
4.78182e+06
-1.26118e+06
912998
-1.22566e+07
4.79611e+06
1.19111e+07
1.2182e+06
-2.43695e+06
-2.27869e+06
227860
-610849
2.23389e+06
-842559
1.21472e+06
1.27902e+06
-6.40324e+06
1.3651e+06
171516
1.02796e+06
758692
1.0882e+06
-2.67791e+06
798314
2.88921e+06
864056
999860
1.50902e+06
301293
106637
916685
1.34061e+07
139096
1.48692e+06
563067
-573040
-617773
863066
-1.37258e+07
-3.41657e+06
4.87056e+06
-56952.9
3.38298e+07
3.31027e+06
1.20903e+06
605748
1.02605e+06
760794
459707
1.01945e+06
-1.42239e+06
1.61356e+06
239900
-1.48775e+07
-2.2531e+06
1.87978e+07
-1.68891e+06
-1.35138e+06
4.08975e+06
5.10357e+06
-4.00489e+06
-3.05706e+06
-6.14949e+07
-4.24008e+06
306356
-8.80421e+06
-5.16436e+06
-1.06973e+06
555076
1.16789e+06
1.03261e+06
-7.22607e+06
-840709
837907
5.92296e+07
-1.45595e+07
-2.39695e+06
1.01797e+06
-7.61929e+06
1.74814e+06
826187
1.03141e+06
753808
2.37429e+07
1.24845e+07
205914
-1.84497e+06
2.66136e+06
5.66659e+06
-1.0609e+07
1.74118e+07
-1.1747e+06
1.11374e+07
4.71501e+06
1.49552e+06
1.39984e+06
842482
6.06182e+06
-854847
-1.05865e+06
1.48831e+07
373884
281764
1.94518e+07
-6.01356e+06
305244
9.71899e+06
-414206
6.9022e+06
-3.00308e+06
1.01569e+06
1.60672e+07
592250
-2.71788e+06
-8.16731e+06
-6.16247e+06
1.01298e+06
906472
1.16453e+06
-1.09032e+06
2.00929e+06
-2.71273e+06
-182958
5.44947e+06
5.03866e+06
5.0443e+06
5.51305e+06
-480387
-1.58094e+06
4.74555e+07
8.05056e+06
1.55194e+07
269291
-6.13586e+06
-1.65856e+07
-4.39549e+06
-2.12072e+06
-4.12007e+06
865803
796129
1.87775e+06
934007
-4.23277e+06
-3.89037e+06
2.75699e+06
1.8116e+07
7.78163e+06
1.49001e+06
2.54188e+06
-8.93547e+06
-3.9438e+06
9.11952e+06
-4.00145e+06
1.45898e+06
-747208
1.18588e+06
2.57574e+06
2.97237e+06
6.17048e+07
-1.53416e+06
1.42526e+06
1.59503e+06
-7.45763e+07
-3.12413e+07
1.41107e+06
167690
792482
783632
1.33071e+06
-1.64406e+06
860673
1.66206e+07
445908
1.13469e+06
1.35746e+06
-6.05007e+06
-2.24182e+06
803690
-7.36589e+06
905288
7.48444e+06
-1.76746e+07
-393745
686445
-2.86689e+06
1.4633e+06
3.63568e+06
1.29403e+06
1.27793e+06
1.34128e+07
-5.02879e+06
350953
-4.0387e+06
4.68489e+06
1.8994e+06
9.62136e+06
-4.8866e+06
-7.20285e+06
-14365.3
1.05225e+07
-9.85517e+06
-1.49708e+06
7.71017e+06
-6.76868e+06
-3.76551e+06
7.24516e+06
-4.71261e+06
718839
586279
1.99535e+06
525207
8.56129e+06
1.21495e+07
-85100.2
-6.00086e+06
-2.099e+06
76700
1.5524e+07
2.1679e+06
6.31706e+06
-6.94993e+06
2.29846e+06
1.11663e+06
-475722
-7.55285e+06
1.21254e+06
1.20887e+06
-626475
-9.64969e+06
884475
8.14003e+06
7.72185e+06
5.64816e+06
1.36284e+06
1.23576e+06
5.48369e+06
582506
947394
-1.61452e+07
926812
783356
5.74783e+06
1.79778e+06
1.07226e+06
-2.1232e+07
-6.63843e+06
4.99487e+06
3.08944e+06
2.666e+06
-886009
-185029
5.58944e+06
2.32687e+06
5.24256e+06
1.99394e+06
1.69378e+06
1.06307e+06
696254
3.99286e+06
-2.81224e+07
2.12312e+06
2.22121e+06
-3.54033e+06
-9.36359e+06
-124461
1.4759e+06
-7.07033e+06
-7.03193e+06
-3.06571e+07
1.82993e+06
1.78299e+06
-480335
-356033
594777
1.99435e+06
-2450.69
-1.51409e+07
330695
-589871
-150991
-2.28797e+06
-7.89562e+06
1.8371e+06
1.07937e+06
586076
-1.70507e+06
-1.57511e+07
9.04566e+06
3.17585e+06
-601988
2.37594e+06
-939.796
8.05494e+06
570125
2.7935e+06
1.03607e+06
1.04824e+06
-3.34876e+07
-2.92703e+06
866933
-2.26404e+06
-6.20387e+06
-3.24321e+07
2.23307e+06
81648.8
1.11997e+06
904344
1.42711e+06
-593934
-9.44168e+06
-7.22232e+06
96181.8
-6.015e+06
908108
7.56248e+06
-7.77249e+06
1.37058e+07
1.40929e+06
1.64308e+06
2.36901e+06
3.62187e+06
1.06345e+06
-3.63851e+07
1.35227e+07
1.18442e+07
-4.21442e+06
-7.45276e+06
-1.15525e+07
-6.89025e+06
1.16219e+06
726826
-7.35685e+06
982395
4.55859e+06
3.29026e+06
821078
-7.54807e+06
-1.89204e+06
1.35423e+06
5.38398e+06
2.04021e+06
2.12549e+06
810959
1.84983e+06
-120479
-262758
68881
209418
-6.03878e+06
-8.53245e+06
-568425
2.55862e+06
3.93215e+06
-5.85425e+06
-4.47571e+06
-6.51651e+06
-2.59673e+06
682797
-2.44599e+07
-5.85035e+06
1.82016e+06
2.38904e+06
572534
-4.17559e+07
-5.60678e+06
-4.45539e+06
6.66049e+06
-5.98485e+06
-8.22192e+06
818299
-1.25118e+07
93129
-1.4961e+07
-2.1917e+07
105430
77827.6
1.02288e+06
7.14468e+06
667481
9399.42
8.10762e+06
2.35059e+07
2.32628e+06
18980.5
4.52507e+06
2.57759e+06
-5.95264e+06
8.97643e+06
1.45375e+06
1.74848e+06
-9.86813e+06
-5.84516e+06
-4.19012e+06
1.26205e+06
1.69893e+07
713398
852319
-3.33994e+06
-989215
527782
1.13733e+06
1.06373e+06
-1.58816e+06
7.30754e+06
6.17414e+06
8.11213e+06
-7.93961e+06
388080
-9.17722e+06
5.7177e+06
5.87144e+06
3.19733e+06
-186224
-458800
2.05263e+06
1.06165e+07
-6.10765e+06
893658
780884
1.75815e+06
-6.47428e+06
9.01102e+06
3.44349e+07
-1.0242e+06
6.10892e+06
4.14079e+07
3.53694e+06
-92658.5
712434
3.14445e+06
-1.11661e+07
771408
8.90222e+06
990197
-471791
-298973
-2.87753e+06
-2.98016e+06
5.11013e+06
3.61032e+06
4.01007e+06
1.22245e+06
-3.05237e+07
2.02328e+06
859834
1.95362e+06
1.37738e+07
826536
-1.16702e+06
1.14948e+06
615869
-9.13348e+06
-9.51884e+06
-2.67765e+07
1.95434e+06
-3.15156e+06
6.63669e+06
929249
667642
-271742
1.53368e+06
6.71602e+06
2.62666e+06
2.48224e+06
-5272.42
-5357.33
1.10651e+06
-1.6698e+06
1.20272e+07
-5.8799e+06
-1.86137e+06
764913
893384
2.37733e+06
3.40386e+06
2.11267e+07
-1.08293e+07
6.80505e+06
497222
2.85245e+06
-1.13009e+06
-9.4333e+06
1.12046e+06
882804
892548
-3.53696e+07
1.67935e+06
1.68035e+06
-4.41375e+07
-2.45735e+06
2.03141e+07
-4.01688e+06
1.34261e+06
199395
-3.41815e+07
1.10656e+06
1.18293e+06
403885
-3.38979e+07
-2.86308e+06
257777
-2.82443e+07
4.57219e+06
-2.41325e+06
-2.5679e+06
566344
1.78307e+06
-1.81623e+06
-4.95691e+06
1.3338e+06
1.89831e+06
421574
-1.6172e+07
8.255e+06
-5.53768e+06
4.84274e+06
90974.5
1.44002e+06
2.14614e+06
-2.91287e+07
954612
1.3008e+06
709576
4.02984e+06
880783
-4.61275e+06
-7.8675e+06
2.37267e+06
2.49476e+06
4.28779e+06
1.09908e+07
1.08299e+06
885046
-791836
1.13095e+07
787224
1.73278e+07
-1.63088e+06
958869
-1.32785e+06
3.38276e+07
564665
906337
3.91704e+06
-4.67721e+06
1.3044e+06
470433
1.23682e+07
8.49834e+06
-4.63655e+06
-2.00502e+06
985238
757411
447153
3.41581e+07
558836
1.09547e+06
4.75224e+07
1.6022e+06
259215
1.03225e+06
1.17366e+06
-289687
1.21173e+06
-6.77315e+06
-4.40543e+06
1.23265e+06
513219
1.95855e+06
811117
794614
-520210
-3.01089e+06
1.4395e+06
-1.25978e+07
4.02667e+06
-1.34578e+06
2.79883e+07
-876691
-2.92055e+06
1.82297e+06
-4.02712e+06
-2.50391e+06
494860
1.87568e+07
-1.29707e+07
-1.86958e+06
-4.22433e+06
-2.58978e+06
2.18014e+06
85233.6
-2.59312e+06
-7.30225e+06
-1.64974e+06
-8.67325e+06
2.53096e+06
5.52247e+06
4.18113e+06
7.12792e+06
-1.90794e+06
503045
880553
1.51536e+06
835061
857956
1.66892e+07
705508
7.56802e+06
1.0512e+06
614287
375201
933610
5.69902e+06
-3.82694e+06
1.37857e+06
1.32583e+06
-3.62769e+06
-8.70146e+06
-2.28837e+06
1.38981e+07
704958
2.27176e+06
2.9372e+06
1.54974e+06
-6.79191e+06
-501332
1.39006e+07
841562
1.27629e+06
-57993.7
-2.10482e+07
5.85554e+06
1.1605e+06
668535
-70735.2
-1.62266e+07
252261
2.53199e+06
-3.24365e+06
572950
1.05679e+06
974347
82741.4
-2.12115e+06
6.59621e+06
-3.28541e+06
185046
-1.43485e+07
-521612
309562
2.35371e+06
847721
2.08047e+06
-8.60967e+06
3.80486e+06
933786
3.48517e+06
631132
935431
1.16131e+06
1.37836e+06
1.46829e+07
1.35533e+06
1.21532e+06
182737
1.3807e+06
1.00187e+06
1.12192e+07
714505
1.02255e+06
529203
1.12948e+06
-3.77938e+06
-7.92123e+06
4.71618e+07
1.08312e+06
-1.12059e+06
-4.81603e+06
221535
1.51977e+06
-7.63444e+06
-1.6311e+06
1.50047e+07
2.93684e+06
1.19886e+06
275039
-2.39585e+06
1.08658e+06
2.29384e+06
38372.8
2.45512e+06
-11106
-895239
1.50183e+06
1.26438e+06
-7.94668e+06
58694.9
-17.4789
-3.04637e+06
-1.8062e+07
2.37491e+06
-2.73554e+06
446746
-1.3964e+07
1.64463e+06
206892
1.03299e+06
1.45068e+06
379986
-8.62927e+06
28580.8
1.61321e+06
236306
575535
-7.51351e+06
7.41685e+06
-8.85287e+06
8.54844e+06
3.1658e+06
605655
-1.12006e+07
8.41649e+06
784507
933591
1.03552e+06
858925
-608724
796365
775438
8.02109e+06
713707
575219
1.63328e+06
1.48105e+06
318966
450676
1.09987e+06
1.18466e+06
1.76903e+07
2.42935e+06
3.71155e+07
469557
-850881
-725442
602711
-2.82899e+06
1.10494e+06
1.09086e+06
1.27556e+07
-1.70406e+06
1.63333e+07
833950
711816
-2.44095e+06
1.54011e+07
-225084
-696078
1.76134e+06
1.95954e+06
1.63298e+07
4.35538e+07
2.71272e+06
2.44551e+06
-6.33925e+06
-1.64818e+07
-500626
3.4916e+06
6.65499e+06
1.06247e+06
-6.31565e+06
-7.33932e+06
-1.45347e+06
1.00107e+06
-502458
-533249
-4.79802e+07
-4.94782e+06
-1.93899e+06
-2.70612e+06
8.80673e+06
-1.35894e+07
860029
1.35987e+06
1.40763e+06
755296
809196
-1.10019e+07
1.23609e+06
-4.63029e+06
1.04372e+06
-2.69892e+06
1.08813e+06
1.1886e+06
4.33306e+06
1.07917e+06
918575
1.01876e+06
3.03907e+06
1.61674e+06
288589
4.76013e+06
1.68359e+06
-1.0512e+07
-243824
-1.40156e+07
4.21181e+06
930278
778843
1.59685e+06
897397
1.11807e+06
1.14343e+06
1.45551e+06
-1.59475e+06
1.70627e+06
7.63376e+06
1.33537e+06
1.17961e+06
7.92383e+06
3.41788e+06
3.78451e+07
1.03827e+06
714816
2.84606e+07
-1.82184e+07
-2.2508e+06
-983649
2.08382e+06
-48115.3
-4.57128e+06
-871577
716285
859884
804530
8.77293e+06
435793
7.06453e+06
992764
679720
2.74175e+06
1.43336e+06
462979
777603
1.86028e+06
730827
420881
6.68438e+06
2.46382e+06
150041
-2.48406e+06
-21700.2
855463
5.14515e+06
-3.52953e+06
3.84361e+07
861160
845930
1.0176e+06
-4.28376e+06
6.82384e+06
5.88035e+06
-3.25436e+06
962898
1.04552e+06
-2.1603e+06
-8.15187e+06
-8.03772e+06
-7.62021e+06
692671
823463
-1.55423e+07
4.48616e+07
-2.25723e+06
-1.55422e+06
1.02552e+06
949537
-1.83495e+07
3.71419e+06
1.50944e+06
1.62825e+06
973474
278731
486470
962228
-1.18997e+07
-8.01709e+06
-4.21894e+06
-1.98696e+07
627672
1.34411e+06
470902
43402.2
356991
1.05339e+06
-916657
1.78141e+06
-1.00365e+07
1.05906e+07
7.40584e+06
-4.08784e+06
494367
807022
900010
664588
1.57338e+06
763366
-8.40255e+06
-2.13178e+06
1.70851e+06
1.49332e+06
701587
887538
869489
1.54709e+06
1.80401e+07
-1.18671e+06
1.41572e+06
-1.58279e+07
-6.17538e+06
-276086
-1.14694e+06
944367
708582
1.34371e+06
424924
-1.22877e+07
-1.93171e+07
-3.42066e+07
1.96121e+06
-1.02243e+06
1.04547e+06
5.97878e+06
-805182
730861
-1.46338e+06
4.71465e+06
-1.65505e+07
2.11567e+07
1.97921e+06
874281
-5.47713e+06
-8.74226e+06
1.48073e+06
308932
-42552.8
7.32531e+06
-901921
849102
-438321
8.45187e+06
796104
-1.3399e+06
1.46434e+06
-605068
1.18752e+06
565774
249069
-5.23114e+06
730279
-9.01777e+06
7.2008e+06
1.50711e+06
-6.01591e+06
-8.62443e+06
718927
3.86953e+07
8.92049e+06
829131
1.59508e+07
2.03341e+06
793436
-43243
1.65329e+06
2.11267e+06
8.68169e+06
2.75648e+06
4.8833e+06
1.74602e+07
4.00495e+06
-1.26227e+07
-4.54853e+06
-2.44899e+06
-98433.7
1.61863e+06
1.66255e+06
-2.21754e+06
1.28117e+06
486827
3.04762e+07
6.73589e+06
6.66091e+06
3.47792e+07
-8.02086e+06
939855
890074
-2.49111e+06
1.247e+06
2.29874e+06
39060.3
1.03782e+06
1.23019e+06
1.89416e+07
743825
765859
969834
-128190
3.335e+06
-34412.4
2.25034e+06
5.19049e+06
-2.43902e+06
81905.2
-7.78195e+06
-621195
-6.86647e+06
227571
-3.35713e+06
2.17242e+06
46950.3
403224
1.46994e+06
4.08433e+06
-6.43404e+06
1.31124e+06
870631
-2.96228e+06
-2.35712e+07
-3.54686e+06
-1.44542e+07
833930
-7.53499e+06
5.3291e+06
2.58219e+06
-11736.5
-3.6479e+06
-2.04035e+06
652184
1.49975e+06
292015
1.23776e+06
1.40411e+06
-142195
-7.03704e+06
-2.46421e+06
-1.83362e+07
-4.57058e+07
817416
1.03044e+06
-1.4881e+06
9.436e+06
1.4123e+06
-7.15158e+06
1.26215e+06
946943
996605
406925
3.70687e+07
3.59268e+06
634750
-283387
-20304.3
2.37978e+06
126917
201592
5.67548e+06
555806
791265
1.12781e+07
-1.05319e+06
1.53435e+06
-5.22272e+06
-4.37965e+06
4.36891e+06
869566
1.7017e+06
1.49821e+07
3.84619e+06
3.7259e+06
995983
1.38288e+06
7.33651e+06
1.28464e+07
-8.77429e+06
4.34481e+06
6.02775e+06
1.36946e+06
103339
2.12357e+06
3.51226e+06
7.69287e+06
-1.47873e+07
889167
-7.6213e+06
-337111
-8.14899e+06
1.31166e+06
1.45243e+06
-1.43951e+07
734354
510105
-4.47364e+06
1.34023e+07
851944
1.01223e+06
1.81797e+06
-8.95137e+06
6.3188e+06
3.66917e+06
514943
-1.23726e+07
1.57049e+07
2.60739e+06
2.62366e+06
-2.66841e+06
-195228
1.06071e+06
872720
181446
246683
1.64163e+06
1.11606e+06
168161
-559256
190002
-6.73112e+06
-5.35572e+06
1.16444e+06
-30338.6
8.1782e+06
-3.57196e+06
1.03941e+07
-8.26731e+07
8.15015e+06
-1.0519e+06
-1.73664e+06
1.08148e+06
1.73768e+06
-4.88834e+06
-7.70302e+06
2.99259e+06
2.89338e+06
204488
-3.56831e+06
-5.7944e+06
-4.58413e+06
4.05068e+06
-5.38204e+06
-1.31963e+07
-102833
526408
2.04431e+06
2.71235e+06
954880
-1.30655e+07
-1.30504e+07
2.27147e+06
198193
560191
2.39749e+06
-6.08906e+06
-389107
-3.3045e+07
3.94805e+06
1.59316e+06
3.99982e+06
-8.63918e+06
2.71611e+06
1.83966e+07
649701
753627
-3.20274e+07
-7091.79
-3.89588e+06
-3.54618e+06
1.32074e+06
444539
-2.19951e+07
1.78223e+06
-3.56303e+06
1.00146e+06
-1.88296e+07
1.49149e+06
-401356
564731
5.0154e+06
899902
827662
1.33575e+07
-325866
-220430
2.70564e+06
-7.94357e+06
3.23183e+06
-4.37512e+06
1.3765e+06
-2.81396e+06
949423
740625
7.84173e+06
-524599
510665
-4.03667e+06
-2.90448e+06
-4.67357e+06
715836
6.84533e+06
-1.14605e+07
-2.59733e+06
1.21181e+06
-823112
-2.78613e+06
885298
1.70819e+07
-8.22541e+06
531433
-1.69544e+06
-1.42238e+06
1.21208e+07
-76098.2
44180.7
1.32164e+07
5.55283e+06
-1.44837e+07
766096
171581
642426
-74676.6
-3.54894e+06
857252
2.17429e+07
1.12414e+06
-43422.7
1.06796e+07
-6.77528e+06
1.32359e+06
449312
-5.29948e+06
2.28394e+07
9.45507e+06
-8.59018e+06
3.16993e+06
440912
1.68501e+06
204593
-6.00963e+06
933549
5.60966e+07
1.64133e+06
-7.0248e+06
1.25687e+06
448853
8.58737e+06
8.26122e+06
-1.36191e+07
1.12859e+07
-6.3892e+06
1.51348e+06
2.05061e+06
287190
5.09583e+06
1.7459e+06
-1.08525e+07
1.32225e+07
1.52005e+07
-2.26178e+06
2.34596e+06
1.72964e+06
-8.39058e+07
1.85973e+07