/*--------------------------------*- C++ -*----------------------------------*\
| =========                 |                                                 |
| \\      /  F ield         | OpenFOAM: The Open Source CFD Toolbox           |
|  \\    /   O peration     | Version:  v2012                                 |
|   \\  /    A nd           | Website:  www.openfoam.com                      |
|    \\/     M anipulation  |                                                 |
\*---------------------------------------------------------------------------*/
FoamFile
{
    version     2.0;
    format      ascii;
    class       volVectorField;
    location    "16";
    object      D_0;
}
// * * * * * * * * * * * * * * * * * * * * * * * * * * * * * * * * * * * * * //

dimensions      [0 1 0 0 0 0 0];


internalField   nonuniform List<vector> 
1000
(
(0.000184388 -0.000536092 0)
(0.000189601 -0.000762966 0)
(0.000189326 -0.000958785 0)
(0.000179113 -0.00113977 0)
(0.000163737 -0.00127649 0)
(0.000143524 -0.00139117 0)
(0.000122309 -0.00146483 0)
(0.000102173 -0.00152036 0)
(8.40846e-05 -0.00154885 0)
(6.99565e-05 -0.00156756 0)
(0.000546823 -0.0006234 0)
(0.000559748 -0.00084192 0)
(0.000553075 -0.00101359 0)
(0.000519991 -0.00116525 0)
(0.000472174 -0.00126896 0)
(0.000415002 -0.00135437 0)
(0.000355056 -0.00140452 0)
(0.000300439 -0.00144424 0)
(0.000251589 -0.00146454 0)
(0.000215637 -0.00148209 0)
(0.000864821 -0.000785334 0)
(0.000868131 -0.000967931 0)
(0.000838671 -0.00107726 0)
(0.000778754 -0.00116645 0)
(0.000703794 -0.00121254 0)
(0.000622113 -0.00125306 0)
(0.00053972 -0.00127345 0)
(0.000468708 -0.00129722 0)
(0.000407125 -0.00131375 0)
(0.000365363 -0.00133587 0)
(0.00109807 -0.000940702 0)
(0.00107514 -0.00104745 0)
(0.00101305 -0.00106893 0)
(0.000941918 -0.00109568 0)
(0.000859795 -0.0010911 0)
(0.000784169 -0.00110282 0)
(0.000708381 -0.00110551 0)
(0.000647251 -0.00112332 0)
(0.000592532 -0.00113919 0)
(0.000553105 -0.00116212 0)
(0.00122245 -0.0009985 0)
(0.00116619 -0.00102043 0)
(0.00109278 -0.000992871 0)
(0.00102949 -0.000994529 0)
(0.00095902 -0.000975006 0)
(0.000904257 -0.000981139 0)
(0.00084452 -0.000974297 0)
(0.000800919 -0.000987415 0)
(0.000753449 -0.000991662 0)
(0.000717832 -0.00100487 0)
(0.0012969 -0.000939713 0)
(0.00123845 -0.00092378 0)
(0.00117312 -0.000902827 0)
(0.00112382 -0.000896191 0)
(0.00106326 -0.000880943 0)
(0.0010193 -0.000878944 0)
(0.000967881 -0.000869617 0)
(0.000932336 -0.000870941 0)
(0.000888835 -0.000865287 0)
(0.000858956 -0.000867289 0)
(0.00135979 -0.000870454 0)
(0.00131059 -0.000850721 0)
(0.00125329 -0.000827427 0)
(0.00120863 -0.000813204 0)
(0.00115616 -0.000793542 0)
(0.00111752 -0.000784562 0)
(0.00107239 -0.000770487 0)
(0.0010405 -0.000764891 0)
(0.00100315 -0.000755168 0)
(0.000976549 -0.000750805 0)
(0.00144512 -0.000789756 0)
(0.0013954 -0.000762794 0)
(0.00134499 -0.000735416 0)
(0.00130586 -0.000716163 0)
(0.00126126 -0.00069429 0)
(0.00122903 -0.000680636 0)
(0.00119045 -0.000663887 0)
(0.00116356 -0.000653467 0)
(0.00113076 -0.000640554 0)
(0.00110773 -0.000631223 0)
(0.00151394 -0.000718512 0)
(0.00147039 -0.000687558 0)
(0.00142509 -0.00065753 0)
(0.0013909 -0.000634558 0)
(0.001352 -0.000610504 0)
(0.00132398 -0.000592967 0)
(0.00129101 -0.000574104 0)
(0.0012676 -0.000559873 0)
(0.00124003 -0.000545331 0)
(0.00121982 -0.000532645 0)
(0.00159775 -0.000640097 0)
(0.00155811 -0.000604987 0)
(0.00151888 -0.000571662 0)
(0.00148883 -0.000546146 0)
(0.00145599 -0.000519787 0)
(0.00143207 -0.000500488 0)
(0.00140463 -0.000479514 0)
(0.00138474 -0.00046396 0)
(0.0013624 -0.000447462 0)
(0.00134479 -0.00043377 0)
(0.00166148 -0.000570569 0)
(0.00162896 -0.000533515 0)
(0.00159617 -0.000498588 0)
(0.00157072 -0.000471856 0)
(0.00154412 -0.0004441 0)
(0.00152291 -0.000424177 0)
(0.00150204 -0.00040171 0)
(0.00148332 -0.000386393 0)
(0.00146818 -0.000368136 0)
(0.0014509 -0.000356066 0)
(0.00173534 -0.000500295 0)
(0.00170831 -0.000461347 0)
(0.00168174 -0.000425746 0)
(0.00166035 -0.000397771 0)
(0.00163909 -0.000370398 0)
(0.00162104 -0.000349315 0)
(0.00160453 -0.000327921 0)
(0.00158835 -0.000311074 0)
(0.00157634 -0.000294267 0)
(0.00156117 -0.000279914 0)
(0.00179165 -0.000433102 0)
(0.00177237 -0.000395111 0)
(0.00175257 -0.000360249 0)
(0.00173645 -0.000332984 0)
(0.00172088 -0.000306047 0)
(0.00170662 -0.000285527 0)
(0.00169524 -0.00026438 0)
(0.00168191 -0.00024797 0)
(0.00167458 -0.000231382 0)
(0.00166154 -0.000217191 0)
(0.00185067 -0.000370171 0)
(0.00183735 -0.000333032 0)
(0.00182358 -0.00029994 0)
(0.00181153 -0.000273158 0)
(0.00180078 -0.000248189 0)
(0.00178945 -0.000227912 0)
(0.00178193 -0.000208779 0)
(0.00177093 -0.000192548 0)
(0.00176668 -0.000177882 0)
(0.00175583 -0.000164158 0)
(0.00189619 -0.000307103 0)
(0.00188988 -0.000273602 0)
(0.00188195 -0.000243722 0)
(0.00187489 -0.00021948 0)
(0.00186849 -0.000197044 0)
(0.00186096 -0.000178552 0)
(0.00185668 -0.000161556 0)
(0.0018488 -0.000146553 0)
(0.00184686 -0.000133798 0)
(0.00183876 -0.000120874 0)
(0.00193887 -0.000249485 0)
(0.00193795 -0.000219632 0)
(0.00193499 -0.000193666 0)
(0.00193178 -0.000171913 0)
(0.00192905 -0.000152769 0)
(0.00192452 -0.000136128 0)
(0.00192293 -0.000121947 0)
(0.00191766 -0.000108527 0)
(0.00191757 -9.81643e-05 0)
(0.00191204 -8.68353e-05 0)
(0.0019707 -0.000190494 0)
(0.00197504 -0.000166457 0)
(0.0019763 -0.000145519 0)
(0.00197699 -0.000127937 0)
(0.00197715 -0.000112596 0)
(0.00197575 -9.90235e-05 0)
(0.00197603 -8.77832e-05 0)
(0.00197352 -7.66813e-05 0)
(0.00197449 -6.86078e-05 0)
(0.00197155 -5.90866e-05 0)
(0.00199654 -0.00013633 0)
(0.00200463 -0.000118135 0)
(0.00200911 -0.000102622 0)
(0.00201259 -8.92446e-05 0)
(0.002015 -7.80291e-05 0)
(0.0020159 -6.77069e-05 0)
(0.00201767 -5.96389e-05 0)
(0.00201724 -5.12645e-05 0)
(0.00201908 -4.56037e-05 0)
(0.00201818 -3.85375e-05 0)
(0.00201288 -8.00884e-05 0)
(0.00202379 -6.91647e-05 0)
(0.00203047 -5.97507e-05 0)
(0.0020361 -5.17027e-05 0)
(0.00203994 -4.49032e-05 0)
(0.00204263 -3.86335e-05 0)
(0.00204524 -3.37496e-05 0)
(0.00204644 -2.85791e-05 0)
(0.00204866 -2.51657e-05 0)
(0.00204932 -2.07149e-05 0)
(0.00202154 -2.76463e-05 0)
(0.00203378 -2.37526e-05 0)
(0.00204158 -2.05254e-05 0)
(0.00204823 -1.76509e-05 0)
(0.00205282 -1.53533e-05 0)
(0.00205637 -1.31437e-05 0)
(0.00205945 -1.15292e-05 0)
(0.00206143 -9.75956e-06 0)
(0.00206391 -8.6627e-06 0)
(0.00206534 -7.2013e-06 0)
(0.00206956 -5.63203e-06 0)
(0.00205476 -1.56217e-05 0)
(0.00202616 -2.96254e-05 0)
(0.00198275 -4.54069e-05 0)
(0.00192747 -6.75633e-05 0)
(0.00185822 -9.48789e-05 0)
(0.00177951 -0.000130642 0)
(0.00168842 -0.000175226 0)
(0.00158921 -0.000231122 0)
(0.00148268 -0.000296456 0)
(0.00207394 -3.9143e-06 0)
(0.00205997 -9.40232e-06 0)
(0.00203308 -1.99143e-05 0)
(0.00199229 -3.0591e-05 0)
(0.00194079 -4.88237e-05 0)
(0.00187642 -6.89043e-05 0)
(0.00180459 -9.90806e-05 0)
(0.00172201 -0.000130627 0)
(0.00163491 -0.000177074 0)
(0.00154138 -0.000219965 0)
(0.00208443 -2.55342e-06 0)
(0.00207258 -4.49359e-06 0)
(0.00204986 -1.16099e-05 0)
(0.00201489 -1.72771e-05 0)
(0.00197043 -3.06902e-05 0)
(0.0019139 -4.37231e-05 0)
(0.00184911 -6.84582e-05 0)
(0.00177382 -9.14827e-05 0)
(0.00168989 -0.000132835 0)
(0.00160194 -0.000165514 0)
(0.00209112 -2.5237e-06 0)
(0.00207989 -2.86299e-06 0)
(0.00205833 -9.61689e-06 0)
(0.0020256 -1.24579e-05 0)
(0.00198421 -2.42718e-05 0)
(0.00193288 -3.14697e-05 0)
(0.00187442 -5.18678e-05 0)
(0.0018088 -6.48133e-05 0)
(0.00173531 -9.80798e-05 0)
(0.00165907 -0.000119399 0)
(0.00210804 -1.91518e-06 0)
(0.00209846 -4.83341e-07 0)
(0.00207971 -5.89529e-06 0)
(0.0020514 -6.63296e-06 0)
(0.00201434 -1.68671e-05 0)
(0.00196863 -2.16392e-05 0)
(0.00191409 -3.978e-05 0)
(0.00185369 -4.9776e-05 0)
(0.00178361 -7.77267e-05 0)
(0.00171251 -9.42897e-05 0)
(0.0021186 -2.24898e-06 0)
(0.00210966 -4.49728e-07 0)
(0.00209196 -6.05819e-06 0)
(0.00206602 -5.39276e-06 0)
(0.00203187 -1.43647e-05 0)
(0.00199129 -1.59847e-05 0)
(0.00194248 -3.06652e-05 0)
(0.00189004 -3.62269e-05 0)
(0.0018282 -5.86259e-05 0)
(0.00176562 -7.05316e-05 0)
(0.00214139 -2.15414e-06 0)
(0.0021336 -2.3873e-07 0)
(0.00211763 -5.65805e-06 0)
(0.00209464 -5.02387e-06 0)
(0.00206312 -1.3608e-05 0)
(0.00202625 -1.53442e-05 0)
(0.00198031 -2.85312e-05 0)
(0.00193179 -3.3631e-05 0)
(0.00187382 -5.19842e-05 0)
(0.00181605 -6.19242e-05 0)
(0.0021571 -2.37545e-06 0)
(0.00214997 -7.27574e-07 0)
(0.00213515 -6.1884e-06 0)
(0.00211443 -5.27741e-06 0)
(0.00208575 -1.28579e-05 0)
(0.00205316 -1.36631e-05 0)
(0.00201211 -2.46358e-05 0)
(0.00196951 -2.85154e-05 0)
(0.00191787 -4.36525e-05 0)
(0.00186669 -5.19673e-05 0)
(0.00218467 -2.55152e-06 0)
(0.00217826 -1.81547e-06 0)
(0.00216456 -7.60193e-06 0)
(0.00214573 -7.7561e-06 0)
(0.00211893 -1.53856e-05 0)
(0.00208887 -1.72419e-05 0)
(0.00205038 -2.73684e-05 0)
(0.00201091 -3.17517e-05 0)
(0.001963 -4.46368e-05 0)
(0.00191597 -5.24522e-05 0)
(0.002206 -2.62696e-06 0)
(0.00220019 -2.45534e-06 0)
(0.00218768 -8.16045e-06 0)
(0.00217078 -8.68359e-06 0)
(0.00214657 -1.56997e-05 0)
(0.00211984 -1.77583e-05 0)
(0.00208536 -2.67694e-05 0)
(0.00205032 -3.1261e-05 0)
(0.00200735 -4.26452e-05 0)
(0.00196559 -5.01997e-05 0)
(0.00223742 -2.89466e-06 0)
(0.00223208 -3.96702e-06 0)
(0.0022204 -1.01687e-05 0)
(0.00220477 -1.19743e-05 0)
(0.00218211 -1.92733e-05 0)
(0.00215728 -2.2485e-05 0)
(0.00212511 -3.12792e-05 0)
(0.00209268 -3.65078e-05 0)
(0.00205299 -4.70142e-05 0)
(0.00201473 -5.47464e-05 0)
(0.0022641 -2.88653e-06 0)
(0.00225928 -4.52509e-06 0)
(0.00224868 -1.06198e-05 0)
(0.00223461 -1.29609e-05 0)
(0.00221417 -1.99716e-05 0)
(0.0021919 -2.37303e-05 0)
(0.00216297 -3.2102e-05 0)
(0.00213391 -3.78821e-05 0)
(0.00209821 -4.78704e-05 0)
(0.0020641 -5.59795e-05 0)
(0.00229867 -3.10836e-06 0)
(0.00229418 -5.83169e-06 0)
(0.00228427 -1.23463e-05 0)
(0.00227115 -1.57438e-05 0)
(0.00225207 -2.30736e-05 0)
(0.00223134 -2.77367e-05 0)
(0.00220446 -3.62421e-05 0)
(0.00217763 -4.26295e-05 0)
(0.00214468 -5.25399e-05 0)
(0.00211357 -6.0944e-05 0)
(0.00232995 -3.03194e-06 0)
(0.00232589 -6.06231e-06 0)
(0.00231689 -1.2421e-05 0)
(0.00230503 -1.61468e-05 0)
(0.00228774 -2.33431e-05 0)
(0.00226903 -2.83813e-05 0)
(0.00224474 -3.68292e-05 0)
(0.0022205 -4.36193e-05 0)
(0.0021909 -5.35639e-05 0)
(0.00216268 -6.23284e-05 0)
(0.00236696 -3.08228e-06 0)
(0.00236317 -6.73242e-06 0)
(0.00235476 -1.31852e-05 0)
(0.00234372 -1.75196e-05 0)
(0.00232761 -2.4781e-05 0)
(0.00231025 -3.03779e-05 0)
(0.00228771 -3.88386e-05 0)
(0.00226546 -4.61049e-05 0)
(0.00223812 -5.60059e-05 0)
(0.00221261 -6.51594e-05 0)
(0.00240177 -2.87474e-06 0)
(0.00239833 -6.36019e-06 0)
(0.00239068 -1.24326e-05 0)
(0.00238066 -1.66591e-05 0)
(0.00236601 -2.36429e-05 0)
(0.00235026 -2.92357e-05 0)
(0.00232981 -3.75622e-05 0)
(0.00230961 -4.49499e-05 0)
(0.00228494 -5.48378e-05 0)
(0.00226178 -6.42431e-05 0)
(0.00244034 -2.63364e-06 0)
(0.00243715 -5.98127e-06 0)
(0.00243004 -1.15846e-05 0)
(0.00242076 -1.57112e-05 0)
(0.00240717 -2.22644e-05 0)
(0.00239265 -2.78201e-05 0)
(0.00237374 -3.57864e-05 0)
(0.00235524 -4.32032e-05 0)
(0.00233255 -5.28553e-05 0)
(0.00231156 -6.23091e-05 0)
(0.00247729 -2.17476e-06 0)
(0.0024744 -4.62954e-06 0)
(0.00246793 -9.36697e-06 0)
(0.00245954 -1.26878e-05 0)
(0.00244716 -1.85226e-05 0)
(0.00243402 -2.34318e-05 0)
(0.00241681 -3.08934e-05 0)
(0.00240007 -3.78654e-05 0)
(0.00237947 -4.72402e-05 0)
(0.00236054 -5.64651e-05 0)
(0.00251619 -1.49565e-06 0)
(0.00251356 -2.65637e-06 0)
(0.00250762 -6.06921e-06 0)
(0.00249996 -8.19761e-06 0)
(0.00248861 -1.28097e-05 0)
(0.00247664 -1.67388e-05 0)
(0.00246088 -2.31451e-05 0)
(0.00244569 -2.94692e-05 0)
(0.00242689 -3.79995e-05 0)
(0.00240981 -4.70182e-05 0)
(0.00255339 -5.98119e-07 0)
(0.00255104 2.53458e-07 0)
(0.00254571 -1.42182e-06 0)
(0.00253887 -1.66098e-06 0)
(0.00252868 -4.7089e-06 0)
(0.002518 -6.99689e-06 0)
(0.00250386 -1.2125e-05 0)
(0.00249031 -1.71725e-05 0)
(0.00247349 -2.48046e-05 0)
(0.00245829 -3.29901e-05 0)
(0.00139936 -0.000346188 0)
(0.00135914 -0.000358245 0)
(0.00131739 -0.000373893 0)
(0.00127768 -0.00038716 0)
(0.00123685 -0.000402591 0)
(0.00119792 -0.000416852 0)
(0.00115805 -0.000432371 0)
(0.00111988 -0.000447267 0)
(0.00108104 -0.00046307 0)
(0.00104362 -0.000478308 0)
(0.00100582 -0.000494184 0)
(0.000969177 -0.000509849 0)
(0.000932338 -0.000525699 0)
(0.000896434 -0.000541845 0)
(0.000860432 -0.000557681 0)
(0.000825084 -0.000574444 0)
(0.000789803 -0.000590443 0)
(0.000754687 -0.000608118 0)
(0.00072012 -0.000624705 0)
(0.000684705 -0.000643793 0)
(0.00147418 -0.000260426 0)
(0.0014379 -0.000271638 0)
(0.00140208 -0.000286557 0)
(0.00136496 -0.00029949 0)
(0.00133024 -0.000313516 0)
(0.00129446 -0.000326997 0)
(0.00125901 -0.000341187 0)
(0.0012248 -0.00035518 0)
(0.00118873 -0.000369511 0)
(0.0011546 -0.000384046 0)
(0.00111974 -0.000398493 0)
(0.00108612 -0.000413613 0)
(0.00105231 -0.000428206 0)
(0.00101944 -0.000444006 0)
(0.000986689 -0.000458828 0)
(0.000954755 -0.000475485 0)
(0.000923145 -0.000490719 0)
(0.000892387 -0.000508501 0)
(0.000862109 -0.000524511 0)
(0.000832969 -0.000543769 0)
(0.00153593 -0.000201051 0)
(0.00150064 -0.000210303 0)
(0.00146607 -0.000224786 0)
(0.00143197 -0.000234723 0)
(0.00139771 -0.000249263 0)
(0.00136434 -0.000259912 0)
(0.0013307 -0.00027427 0)
(0.00129815 -0.000285901 0)
(0.00126561 -0.000300554 0)
(0.00123378 -0.000312733 0)
(0.00120233 -0.000327249 0)
(0.0011716 -0.000340487 0)
(0.00114141 -0.000355107 0)
(0.00111198 -0.000369305 0)
(0.00108324 -0.000384222 0)
(0.00105538 -0.000399417 0)
(0.00102831 -0.000414838 0)
(0.00100246 -0.000431161 0)
(0.000977315 -0.000447333 0)
(0.000954245 -0.000464986 0)
(0.00160172 -0.000148662 0)
(0.00157021 -0.000156637 0)
(0.00154089 -0.000169936 0)
(0.00150941 -0.00017901 0)
(0.00148038 -0.000192423 0)
(0.00144909 -0.000202513 0)
(0.00142066 -0.000216049 0)
(0.0013894 -0.000227091 0)
(0.0013622 -0.000240789 0)
(0.00133266 -0.000252715 0)
(0.0013055 -0.00026666 0)
(0.00127749 -0.000279452 0)
(0.00125108 -0.000293728 0)
(0.00122466 -0.000307402 0)
(0.00119952 -0.000322121 0)
(0.0011749 -0.000336719 0)
(0.0011515 -0.000352014 0)
(0.00112905 -0.000367607 0)
(0.00110786 -0.000383599 0)
(0.0010881 -0.000400285 0)
(0.00165895 -0.000117832 0)
(0.00162979 -0.000125 0)
(0.00160207 -0.000136723 0)
(0.00157333 -0.000144787 0)
(0.00154573 -0.000156853 0)
(0.00151765 -0.000165801 0)
(0.00149053 -0.000178213 0)
(0.0014633 -0.000188015 0)
(0.00143703 -0.000200909 0)
(0.00141087 -0.000211441 0)
(0.00138573 -0.000224681 0)
(0.00136091 -0.000236122 0)
(0.0013372 -0.000249709 0)
(0.00131402 -0.000262142 0)
(0.00129205 -0.000276141 0)
(0.00127083 -0.000289617 0)
(0.00125093 -0.000304124 0)
(0.00123204 -0.000318691 0)
(0.00121461 -0.000333808 0)
(0.00119838 -0.000349517 0)
(0.00171808 -9.00104e-05 0)
(0.00169254 -9.63135e-05 0)
(0.00166848 -0.000107029 0)
(0.0016429 -0.000114329 0)
(0.00161908 -0.000125536 0)
(0.00159381 -0.000133843 0)
(0.0015705 -0.000145476 0)
(0.00154586 -0.000154776 0)
(0.00152333 -0.000166811 0)
(0.00149977 -0.000177076 0)
(0.00147819 -0.000189522 0)
(0.00145605 -0.000200731 0)
(0.00143573 -0.000213614 0)
(0.00141533 -0.000225754 0)
(0.00139665 -0.00023911 0)
(0.00137833 -0.000252186 0)
(0.00136172 -0.000266059 0)
(0.00134587 -0.000280088 0)
(0.0013318 -0.00029453 0)
(0.00131883 -0.000309536 0)
(0.00177212 -7.7666e-05 0)
(0.00174904 -8.36551e-05 0)
(0.00172668 -9.30664e-05 0)
(0.00170364 -9.99194e-05 0)
(0.00168154 -0.000109903 0)
(0.0016589 -0.00011763 0)
(0.00163735 -0.000128154 0)
(0.00161545 -0.000136753 0)
(0.00159475 -0.000147798 0)
(0.00157391 -0.000157265 0)
(0.00155438 -0.000168803 0)
(0.00153493 -0.000179158 0)
(0.00151689 -0.00019117 0)
(0.00149916 -0.000202431 0)
(0.00148297 -0.000214918 0)
(0.00146733 -0.000227095 0)
(0.00145337 -0.000240076 0)
(0.0014402 -0.000253159 0)
(0.00142887 -0.000266684 0)
(0.00141863 -0.000280627 0)
(0.00182735 -6.52707e-05 0)
(0.00180738 -7.0927e-05 0)
(0.00178769 -7.94981e-05 0)
(0.00176758 -8.6038e-05 0)
(0.00174824 -9.52404e-05 0)
(0.00172836 -0.000102678 0)
(0.00170961 -0.000112463 0)
(0.00169032 -0.000120796 0)
(0.00167241 -0.000131127 0)
(0.00165409 -0.000140343 0)
(0.00163729 -0.000151197 0)
(0.00162029 -0.000161273 0)
(0.00160493 -0.000172634 0)
(0.00158963 -0.000183543 0)
(0.00157602 -0.000195403 0)
(0.00156285 -0.000207114 0)
(0.00155132 -0.000219463 0)
(0.00154079 -0.000231946 0)
(0.00153165 -0.000244767 0)
(0.00152383 -0.00025798 0)
(0.00187984 -6.37352e-05 0)
(0.00186194 -6.92933e-05 0)
(0.00184387 -7.70369e-05 0)
(0.00182586 -8.33682e-05 0)
(0.00180817 -9.17505e-05 0)
(0.00179041 -9.88647e-05 0)
(0.00177335 -0.000107855 0)
(0.0017562 -0.000115755 0)
(0.00174002 -0.000125321 0)
(0.00172382 -0.000134004 0)
(0.00170881 -0.000144113 0)
(0.00169391 -0.000153569 0)
(0.00168037 -0.000164182 0)
(0.00166711 -0.000174398 0)
(0.00165537 -0.000185466 0)
(0.00164411 -0.000196427 0)
(0.00163455 -0.000207873 0)
(0.00162564 -0.000219576 0)
(0.00161854 -0.000231552 0)
(0.0016125 -0.000243732 0)
(0.00193304 -6.02949e-05 0)
(0.00191763 -6.57539e-05 0)
(0.00190152 -7.29464e-05 0)
(0.00188595 -7.91644e-05 0)
(0.00187027 -8.69916e-05 0)
(0.00185485 -9.39711e-05 0)
(0.00183982 -0.000102406 0)
(0.00182489 -0.00011014 0)
(0.00181074 -0.000119152 0)
(0.00179664 -0.000127622 0)
(0.00178363 -0.000137179 0)
(0.00177069 -0.000146359 0)
(0.0017591 -0.00015642 0)
(0.00174764 -0.000166274 0)
(0.00173778 -0.000176796 0)
(0.00172812 -0.000187276 0)
(0.00172035 -0.000198207 0)
(0.00171276 -0.000209248 0)
(0.0017075 -0.000220534 0)
(0.00170278 -0.00023206 0)
(0.00198496 -6.39353e-05 0)
(0.00197113 -6.93799e-05 0)
(0.00195644 -7.61128e-05 0)
(0.00194245 -8.22063e-05 0)
(0.0019282 -8.95375e-05 0)
(0.00191437 -9.63011e-05 0)
(0.00190077 -0.000104203 0)
(0.00188743 -0.000111639 0)
(0.0018747 -0.000120081 0)
(0.00186218 -0.000128176 0)
(0.00185055 -0.000137124 0)
(0.00183915 -0.000145852 0)
(0.00182889 -0.000155263 0)
(0.00181894 -0.000164585 0)
(0.00181033 -0.000174411 0)
(0.00180215 -0.000184271 0)
(0.00179547 -0.000194462 0)
(0.0017894 -0.00020478 0)
(0.00178496 -0.000215296 0)
(0.00178138 -0.000225953 0)
(0.0020372 -6.472e-05 0)
(0.00202532 -7.01424e-05 0)
(0.00201196 -7.65223e-05 0)
(0.00199984 -8.25924e-05 0)
(0.00198701 -8.95341e-05 0)
(0.00197496 -9.62335e-05 0)
(0.00196281 -0.000103734 0)
(0.00195115 -0.000111045 0)
(0.00193986 -0.000119082 0)
(0.00192888 -0.000126981 0)
(0.00191865 -0.000135518 0)
(0.00190867 -0.000143971 0)
(0.00189971 -0.000152961 0)
(0.00189102 -0.000161922 0)
(0.00188358 -0.000171303 0)
(0.00187648 -0.000180711 0)
(0.00187081 -0.000190412 0)
(0.00186562 -0.000200187 0)
(0.00186198 -0.000210123 0)
(0.00185906 -0.000220167 0)
(0.00208885 -6.94029e-05 0)
(0.00207809 -7.482e-05 0)
(0.00206608 -8.10482e-05 0)
(0.00205495 -8.69041e-05 0)
(0.00204331 -9.3586e-05 0)
(0.00203236 -0.000100062 0)
(0.00202131 -0.000107218 0)
(0.00201078 -0.000114272 0)
(0.00200051 -0.000121899 0)
(0.00199064 -0.00012949 0)
(0.00198136 -0.000137565 0)
(0.00197243 -0.000145648 0)
(0.00196434 -0.00015413 0)
(0.0019566 -0.000162652 0)
(0.00194992 -0.000171484 0)
(0.00194364 -0.000180374 0)
(0.00193859 -0.000189484 0)
(0.00193406 -0.000198652 0)
(0.00193087 -0.000207949 0)
(0.00192838 -0.000217291 0)
(0.00214077 -7.08244e-05 0)
(0.00213078 -7.60953e-05 0)
(0.00212006 -8.20696e-05 0)
(0.00211005 -8.78813e-05 0)
(0.00209963 -9.43354e-05 0)
(0.00208979 -0.000100683 0)
(0.00207988 -0.000107607 0)
(0.00207042 -0.00011447 0)
(0.0020612 -0.000121847 0)
(0.00205234 -0.000129194 0)
(0.00204401 -0.000136986 0)
(0.00203597 -0.00014478 0)
(0.0020287 -0.000152944 0)
(0.00202172 -0.000161125 0)
(0.00201567 -0.0001696 0)
(0.00200998 -0.000178096 0)
(0.00200535 -0.000186789 0)
(0.00200119 -0.000195519 0)
(0.00199817 -0.000204346 0)
(0.00199577 -0.00021318 0)
(0.00219236 -7.35423e-05 0)
(0.00218342 -7.87351e-05 0)
(0.00217323 -8.45288e-05 0)
(0.00216418 -9.01858e-05 0)
(0.00215437 -9.64205e-05 0)
(0.00214544 -0.000102554 0)
(0.00213615 -0.000109217 0)
(0.00212754 -0.00011582 0)
(0.00211893 -0.00012289 0)
(0.0021108 -0.000129938 0)
(0.00210306 -0.000137388 0)
(0.00209565 -0.000144839 0)
(0.00208888 -0.000152625 0)
(0.00208239 -0.000160423 0)
(0.00207675 -0.000168486 0)
(0.00207132 -0.000176559 0)
(0.00206701 -0.000184816 0)
(0.00206297 -0.00019306 0)
(0.00205999 -0.000201412 0)
(0.0020575 -0.000209712 0)
(0.00224356 -7.25477e-05 0)
(0.00223525 -7.76473e-05 0)
(0.00222595 -8.31978e-05 0)
(0.00221755 -8.87846e-05 0)
(0.0022086 -9.47273e-05 0)
(0.00220031 -0.000100789 0)
(0.00219185 -0.000107127 0)
(0.00218385 -0.00011364 0)
(0.00217599 -0.000120375 0)
(0.00216846 -0.000127297 0)
(0.00216133 -0.000134383 0)
(0.00215444 -0.00014169 0)
(0.00214815 -0.000149107 0)
(0.00214205 -0.000156719 0)
(0.00213672 -0.000164429 0)
(0.00213155 -0.000172247 0)
(0.00212717 -0.000180152 0)
(0.00212317 -0.000188096 0)
(0.00211993 -0.000196099 0)
(0.00211713 -0.00020403 0)
(0.00229475 -7.05261e-05 0)
(0.00228701 -7.54334e-05 0)
(0.00227816 -8.08557e-05 0)
(0.00227038 -8.61939e-05 0)
(0.00226184 -9.20205e-05 0)
(0.00225419 -9.77781e-05 0)
(0.00224608 -0.000104001 0)
(0.00223877 -0.000110179 0)
(0.00223114 -0.00011677 0)
(0.00222399 -0.000123481 0)
(0.00221729 -0.000130274 0)
(0.00221079 -0.000137328 0)
(0.00220473 -0.000144437 0)
(0.002199 -0.000151771 0)
(0.00219367 -0.00015915 0)
(0.00218881 -0.000166681 0)
(0.00218424 -0.000174259 0)
(0.00218018 -0.000181894 0)
(0.00217658 -0.000189558 0)
(0.0021734 -0.000197166 0)
(0.00234518 -6.45505e-05 0)
(0.00233787 -6.92628e-05 0)
(0.00232955 -7.45315e-05 0)
(0.00232218 -7.96835e-05 0)
(0.00231419 -8.53608e-05 0)
(0.00230688 -9.09327e-05 0)
(0.00229943 -9.70121e-05 0)
(0.00229227 -0.000102995 0)
(0.00228535 -0.000109425 0)
(0.00227858 -0.000115805 0)
(0.00227221 -0.000122579 0)
(0.00226597 -0.000129292 0)
(0.0022602 -0.000136357 0)
(0.00225459 -0.000143364 0)
(0.00224945 -0.00015066 0)
(0.0022445 -0.000157899 0)
(0.00224 -0.000165339 0)
(0.00223572 -0.000172729 0)
(0.00223181 -0.000180223 0)
(0.00222813 -0.000187622 0)
(0.00239565 -5.46291e-05 0)
(0.0023887 -5.93512e-05 0)
(0.0023807 -6.43259e-05 0)
(0.00237373 -6.9553e-05 0)
(0.00236602 -7.4945e-05 0)
(0.00235914 -8.06138e-05 0)
(0.0023519 -8.64257e-05 0)
(0.00234517 -9.256e-05 0)
(0.00233842 -9.87302e-05 0)
(0.00233201 -0.000105236 0)
(0.00232581 -0.000111762 0)
(0.00231988 -0.000118572 0)
(0.00231423 -0.000125413 0)
(0.00230884 -0.000132463 0)
(0.00230373 -0.000139558 0)
(0.00229888 -0.000146779 0)
(0.00229425 -0.000154051 0)
(0.00228985 -0.000161368 0)
(0.00228561 -0.000168721 0)
(0.00228152 -0.000176037 0)
(0.00244539 -4.03089e-05 0)
(0.00243877 -4.48507e-05 0)
(0.00243112 -4.97748e-05 0)
(0.00242449 -5.48921e-05 0)
(0.00241696 -6.03056e-05 0)
(0.00241045 -6.59276e-05 0)
(0.00240404 -7.2053e-05 0)
(0.00239719 -7.79983e-05 0)
(0.00239094 -8.44732e-05 0)
(0.00238464 -9.08715e-05 0)
(0.00237874 -9.76743e-05 0)
(0.00237296 -0.000104426 0)
(0.00236751 -0.000111494 0)
(0.00236225 -0.000118511 0)
(0.00235726 -0.000125764 0)
(0.00235247 -0.000132959 0)
(0.0023479 -0.000140311 0)
(0.00234349 -0.000147604 0)
(0.00233919 -0.000154977 0)
(0.00233493 -0.000162297 0)
(6.21636e-05 -0.0015729 0)
(5.76786e-05 -0.00157832 0)
(5.36345e-05 -0.00158168 0)
(5.0225e-05 -0.00158649 0)
(4.6882e-05 -0.00158992 0)
(4.39708e-05 -0.00159461 0)
(4.09405e-05 -0.00159838 0)
(3.83816e-05 -0.001603 0)
(3.55315e-05 -0.00160703 0)
(3.30913e-05 -0.00161152 0)
(3.02803e-05 -0.00161573 0)
(2.77826e-05 -0.00162002 0)
(2.48721e-05 -0.00162424 0)
(2.21685e-05 -0.00162819 0)
(1.9017e-05 -0.00163222 0)
(1.59622e-05 -0.00163562 0)
(1.24148e-05 -0.00163917 0)
(8.84407e-06 -0.0016417 0)
(4.7201e-06 -0.00164436 0)
(4.24998e-07 -0.0016456 0)
(0.000194745 -0.00149202 0)
(0.000180979 -0.0015011 0)
(0.000168696 -0.00150847 0)
(0.000159538 -0.00151627 0)
(0.000150887 -0.00152325 0)
(0.000144077 -0.00153047 0)
(0.000136143 -0.00153707 0)
(0.000129393 -0.00154373 0)
(0.000121622 -0.00155019 0)
(0.000114812 -0.00155639 0)
(0.000107 -0.00156263 0)
(9.99033e-05 -0.00156837 0)
(9.1755e-05 -0.00157429 0)
(8.40693e-05 -0.0015795 0)
(7.52283e-05 -0.00158496 0)
(6.65848e-05 -0.00158949 0)
(5.66381e-05 -0.00159428 0)
(4.65881e-05 -0.0015979 0)
(3.50534e-05 -0.0016017 0)
(2.30409e-05 -0.00160408 0)
(0.000335709 -0.00135367 0)
(0.000314345 -0.00137099 0)
(0.000294548 -0.00138744 0)
(0.000278384 -0.00140183 0)
(0.000262221 -0.0014153 0)
(0.000247666 -0.00142626 0)
(0.000232442 -0.00143683 0)
(0.000220353 -0.00144665 0)
(0.000206211 -0.00145611 0)
(0.000194084 -0.00146485 0)
(0.000180267 -0.00147355 0)
(0.000167773 -0.00148146 0)
(0.000153672 -0.00148952 0)
(0.000140359 -0.00149669 0)
(0.000125348 -0.00150412 0)
(0.00011065 -0.00151051 0)
(9.40525e-05 -0.00151719 0)
(7.72773e-05 -0.00152268 0)
(5.8333e-05 -0.00152839 0)
(3.86437e-05 -0.00153275 0)
(0.000516184 -0.0011814 0)
(0.000486547 -0.00120386 0)
(0.000455886 -0.00122552 0)
(0.000429627 -0.0012453 0)
(0.000403394 -0.00126451 0)
(0.000380283 -0.00128115 0)
(0.000358063 -0.00129767 0)
(0.000336876 -0.00131104 0)
(0.000315555 -0.0013243 0)
(0.000296818 -0.00133616 0)
(0.000277069 -0.00134803 0)
(0.00025919 -0.00135866 0)
(0.000239712 -0.00136946 0)
(0.000221467 -0.00137906 0)
(0.000201166 -0.00138893 0)
(0.000181456 -0.00139761 0)
(0.000159274 -0.00140659 0)
(0.000136973 -0.00141436 0)
(0.000111774 -0.00142238 0)
(8.5604e-05 -0.00142919 0)
(0.000678202 -0.00101599 0)
(0.000644894 -0.00103759 0)
(0.000608539 -0.00105837 0)
(0.000577195 -0.0010798 0)
(0.000543678 -0.00110068 0)
(0.000514158 -0.00112064 0)
(0.000482992 -0.00114019 0)
(0.000455225 -0.00115767 0)
(0.000425903 -0.00117491 0)
(0.000399457 -0.00118964 0)
(0.000372676 -0.00120547 0)
(0.00034841 -0.00121895 0)
(0.00032285 -0.00123342 0)
(0.000298975 -0.00124572 0)
(0.000273133 -0.00125887 0)
(0.000248089 -0.00127013 0)
(0.000220494 -0.00128205 0)
(0.000192753 -0.00129246 0)
(0.000161848 -0.00130327 0)
(0.000129714 -0.00131302 0)
(0.000820986 -0.000871807 0)
(0.000789907 -0.000890296 0)
(0.000752458 -0.000908584 0)
(0.000721485 -0.000927353 0)
(0.000685178 -0.000946709 0)
(0.000653781 -0.000964791 0)
(0.000618347 -0.000984096 0)
(0.000586653 -0.00100092 0)
(0.000552181 -0.0010193 0)
(0.000522345 -0.0010355 0)
(0.000490637 -0.00105324 0)
(0.000462232 -0.0010686 0)
(0.000432086 -0.00108514 0)
(0.000403956 -0.00109949 0)
(0.00037395 -0.00111469 0)
(0.000344802 -0.00112809 0)
(0.000313434 -0.00114202 0)
(0.000281856 -0.00115468 0)
(0.00024754 -0.00116762 0)
(0.000211949 -0.0011799 0)
(0.000941893 -0.00075358 0)
(0.000909599 -0.00077033 0)
(0.000869908 -0.000786402 0)
(0.000837437 -0.000803084 0)
(0.000798799 -0.000820163 0)
(0.000765848 -0.00083683 0)
(0.000728256 -0.000854595 0)
(0.000695038 -0.000871303 0)
(0.000658887 -0.00088947 0)
(0.000626059 -0.000906223 0)
(0.000591556 -0.000924207 0)
(0.000559434 -0.000940613 0)
(0.000526051 -0.000957891 0)
(0.000494159 -0.000973651 0)
(0.000460907 -0.000989951 0)
(0.000428277 -0.00100498 0)
(0.000393911 -0.0010203 0)
(0.00035929 -0.00103476 0)
(0.000322431 -0.00104936 0)
(0.000284408 -0.00106373 0)
(0.00107433 -0.000632796 0)
(0.0010404 -0.000648197 0)
(0.000999164 -0.000664494 0)
(0.000965399 -0.000679862 0)
(0.000926052 -0.000696867 0)
(0.000892025 -0.000712274 0)
(0.000853939 -0.000729602 0)
(0.000819548 -0.000745192 0)
(0.000782343 -0.000762635 0)
(0.000747958 -0.000778483 0)
(0.000711649 -0.000795875 0)
(0.000677459 -0.000811817 0)
(0.000641804 -0.000828876 0)
(0.000607553 -0.000844696 0)
(0.000571959 -0.000861214 0)
(0.000537001 -0.000876822 0)
(0.000500623 -0.000892792 0)
(0.000464078 -0.000908331 0)
(0.000425973 -0.000924019 0)
(0.000386948 -0.000939929 0)
(0.00118798 -0.000533929 0)
(0.00115117 -0.000548332 0)
(0.00110797 -0.000564759 0)
(0.00107083 -0.000579624 0)
(0.00102952 -0.000596554 0)
(0.00099249 -0.000611891 0)
(0.000952846 -0.000629001 0)
(0.000916121 -0.00064472 0)
(0.000877783 -0.000661867 0)
(0.000841458 -0.000677876 0)
(0.000804158 -0.000694942 0)
(0.000768242 -0.00071112 0)
(0.000731636 -0.000727974 0)
(0.000695881 -0.000744193 0)
(0.000659445 -0.000760771 0)
(0.000623317 -0.000776995 0)
(0.000586364 -0.000793387 0)
(0.000549138 -0.000809769 0)
(0.000510917 -0.000826248 0)
(0.000471885 -0.000843183 0)
(0.00131626 -0.000434732 0)
(0.00127813 -0.000447674 0)
(0.00123617 -0.000463465 0)
(0.00119722 -0.000477079 0)
(0.00115622 -0.000493102 0)
(0.00111721 -0.000507504 0)
(0.00107689 -0.000523701 0)
(0.00103825 -0.000538794 0)
(0.000998529 -0.000555133 0)
(0.000960387 -0.000570746 0)
(0.000921384 -0.000587213 0)
(0.000883779 -0.000603216 0)
(0.000845427 -0.000619738 0)
(0.000808198 -0.000636029 0)
(0.000770222 -0.000652576 0)
(0.000732937 -0.000669157 0)
(0.000694894 -0.000685848 0)
(0.000656869 -0.000702917 0)
(0.000618272 -0.000720077 0)
(0.000578608 -0.000738115 0)
)
;

boundaryField
{
    back
    {
        type            empty;
    }
    left
    {
        type            symmetry;
    }
    hole
    {
        type            calculated;
        value           nonuniform List<vector> 
20
(
(0.000179704 -0.000421732 -3.13653e-20)
(0.00053355 -0.000512234 0)
(0.000851378 -0.000689367 -5.51904e-20)
(0.00109768 -0.000879703 -7.73211e-22)
(0.00124094 -0.000979947 -4.39286e-21)
(0.00132377 -0.000946453 1.28048e-21)
(0.00138942 -0.00088273 -1.20416e-20)
(0.00147437 -0.000805763 -7.4266e-22)
(0.00154116 -0.000737642 1.10108e-20)
(0.00162213 -0.00066191 5.62078e-21)
(0.00168186 -0.000593532 4.44628e-24)
(0.00175207 -0.00052448 -9.43193e-22)
(0.00180382 -0.000456656 -4.56113e-21)
(0.00185891 -0.000392985 4.10135e-21)
(0.00190033 -0.00032773 -5.96531e-21)
(0.00193958 -0.000267635 1.42662e-21)
(0.00196834 -0.000205195 -1.46998e-21)
(0.00199187 -0.000147307 -3.57685e-21)
(0.00200657 -8.67672e-05 2.89899e-21)
(0.00201442 -2.99461e-05 -3.75113e-21)
)
;
    }
    front
    {
        type            empty;
    }
    down
    {
        type            symmetry;
    }
    right
    {
        type            calculated;
        value           nonuniform List<vector> 
30
(
(0.00257209 7.39228e-08 4.41725e-21)