/*--------------------------------*- C++ -*----------------------------------*\
| =========                 |                                                 |
| \\      /  F ield         | OpenFOAM: The Open Source CFD Toolbox           |
|  \\    /   O peration     | Version:  v2012                                 |
|   \\  /    A nd           | Website:  www.openfoam.com                      |
|    \\/     M anipulation  |                                                 |
\*---------------------------------------------------------------------------*/
FoamFile
{
    version     2.0;
    format      ascii;
    class       volScalarField;
    location    "16";
    object      epsilonEq;
}
// * * * * * * * * * * * * * * * * * * * * * * * * * * * * * * * * * * * * * //

dimensions      [0 0 0 0 0 0 0];


internalField   nonuniform List<scalar> 
1000
(
0.0103605
0.00990563
0.00912731
0.00799016
0.00668842
0.00538419
0.00415203
0.00315614
0.00233902
0.00180502
0.00991064
0.00913954
0.00799591
0.00673758
0.00545765
0.00434924
0.00337231
0.00267468
0.00215138
0.00189073
0.00837886
0.00702701
0.00542488
0.00431154
0.00338564
0.00285196
0.00246516
0.00231862
0.00225024
0.00225436
0.00541677
0.00370675
0.00238121
0.00191185
0.00162686
0.00176419
0.00189271
0.00215105
0.00227481
0.00231258
0.0023026
0.00119001
0.000859975
0.000933229
0.00104085
0.00130614
0.00147744
0.00171101
0.00175165
0.00179936
0.000687033
0.000561556
0.000717837
0.00082779
0.000949763
0.00105746
0.00114148
0.00122207
0.00126181
0.00132183
0.000534876
0.000549639
0.00065715
0.000707906
0.000822076
0.00091795
0.000998952
0.00107714
0.00112403
0.00117486
0.000411531
0.000424319
0.000547698
0.000637849
0.000750269
0.000841742
0.000915614
0.000983887
0.00101725
0.00107011
0.000276142
0.000380851
0.000511605
0.000601436
0.000700448
0.000777689
0.000844465
0.000904937
0.000942785
0.000984338
0.000143921
0.000302549
0.00046821
0.000564445
0.000673411
0.000737767
0.000810016
0.000853646
0.000899622
0.00093422
0.000169272
0.000285355
0.000423461
0.000517646
0.000608694
0.000671941
0.000731166
0.000776357
0.000816081
0.000856564
0.000314525
0.000346632
0.000435545
0.000519828
0.000591827
0.0006573
0.000697844
0.00074808
0.000763895
0.000804336
0.00046468
0.000426333
0.000444419
0.000499675
0.000544202
0.000600409
0.000629478
0.000675307
0.000685836
0.000723029
0.000603063
0.000520858
0.000483374
0.000505892
0.000517512
0.00056171
0.000572522
0.000614049
0.000615418
0.000650895
0.000735082
0.000613019
0.000528912
0.000512557
0.000491498
0.000516168
0.000509824
0.000543185
0.000534971
0.000565501
0.000839765
0.00069194
0.000576072
0.000526828
0.000477849
0.000479038
0.000458405
0.000478215
0.000466107
0.000487679
0.000933394
0.000761001
0.00062136
0.00054116
0.000468626
0.00044274
0.000406188
0.000408022
0.00038786
0.00039805
0.000999126
0.000811891
0.000657143
0.000555185
0.000466391
0.00041607
0.000367742
0.000348253
0.000323272
0.000318094
0.00104738
0.000848055
0.000683345
0.000565033
0.000465044
0.000394665
0.000335503
0.000294852
0.000261993
0.000239145
0.00106988
0.000865584
0.000696427
0.000570649
0.000465556
0.000384697
0.000320295
0.000265914
0.000228585
0.000190846
0.000157274
0.000215606
0.000306721
0.000389664
0.000485178
0.000558156
0.00064652
0.000710138
0.000792759
0.000883709
0.000137051
0.000199698
0.000294627
0.000379714
0.000479231
0.000552634
0.000640633
0.000693191
0.000756824
0.000804471
0.000119554
0.000178798
0.000268978
0.000348222
0.000443327
0.000520778
0.000610735
0.000692041
0.000758114
0.000828932
0.00014322
0.000196392
0.000279209
0.000356043
0.000440661
0.000511129
0.000578867
0.000646923
0.000699483
0.000769533
0.000149633
0.000194243
0.000264306
0.00033956
0.000418297
0.000500284
0.000569862
0.000651356
0.000701748
0.000761821
0.000179004
0.000217291
0.000276003
0.000344018
0.000408155
0.000479311
0.000534594
0.000607023
0.000658899
0.000721178
0.00020231
0.000233922
0.000281903
0.000347307
0.000406991
0.000481198
0.000535896
0.000606201
0.000652865
0.000707253
0.000227915
0.000253859
0.000292394
0.000347907
0.000397041
0.000460801
0.000509588
0.000573617
0.000621929
0.000675658
0.000259911
0.000281391
0.000313533
0.000363599
0.000408695
0.000467892
0.000513603
0.000570499
0.000613736
0.000661032
0.000281287
0.000298325
0.00032436
0.000365346
0.000404013
0.000454513
0.000497009
0.000548601
0.000590875
0.00063607
0.000314458
0.000328484
0.000350547
0.000385574
0.000419881
0.00046363
0.000501615
0.00054584
0.000583447
0.000622443
0.000331912
0.000342973
0.000361288
0.000389722
0.000419748
0.000456835
0.000491984
0.000531242
0.000566543
0.000602786
0.000360837
0.000369842
0.000385222
0.000408717
0.0004344
0.000465327
0.000495683
0.000528412
0.000559728
0.000588938
0.000373509
0.000380763
0.00039361
0.000413037
0.000435205
0.000461791
0.000488845
0.000517873
0.000546552
0.000572975
0.000394331
0.000400163
0.000410815
0.000426576
0.000445093
0.000466943
0.000489638
0.000513923
0.000537796
0.000560845
0.000400114
0.000404896
0.000413909
0.000427057
0.000443133
0.000461744
0.000482098
0.000502843
0.000525085
0.000544279
0.000409146
0.000412977
0.000420527
0.000431178
0.000444751
0.000460149
0.000477414
0.000495153
0.000513784
0.000531156
0.000404549
0.000407788
0.000414451
0.000423601
0.000435823
0.000449373
0.000465279
0.000481247
0.000498728
0.000514713
0.000397117
0.000399853
0.000405927
0.0004138
0.000425274
0.000437302
0.000452886
0.000467524
0.000485466
0.000500568
0.000377147
0.000379785
0.000385943
0.000393685
0.000405656
0.000417862
0.000434735
0.000450104
0.000470206
0.00048678
0.000922431
0.000902942
0.000945705
0.000954948
0.000995165
0.00101418
0.00104601
0.00107299
0.0010974
0.00112114
0.00114933
0.00117248
0.00120361
0.00122896
0.00126485
0.00129668
0.00134118
0.00138597
0.0014442
0.00152599
0.000863362
0.000890802
0.000935113
0.00094396
0.00097102
0.000994271
0.00101987
0.00104372
0.00107482
0.00109456
0.00112578
0.00114904
0.00118275
0.00121036
0.00124886
0.00128342
0.00132898
0.00137537
0.00142986
0.00151919
0.000856712
0.00087285
0.000895075
0.000909644
0.000934922
0.000943341
0.00097754
0.00102499
0.00102364
0.00103489
0.00107439
0.00109362
0.0011315
0.00115735
0.00119709
0.00122983
0.00127393
0.00131457
0.00136515
0.00142089
0.000814268
0.000841987
0.000873002
0.000889685
0.0009204
0.000936804
0.000969117
0.000984388
0.00100995
0.00103362
0.00106201
0.00108592
0.00111665
0.00114293
0.00117633
0.00120613
0.00124295
0.00127631
0.0013177
0.0013525
0.000796626
0.000821774
0.000840601
0.00086112
0.000880702
0.000900973
0.000921107
0.000944919
0.000963099
0.000983479
0.00100795
0.00102856
0.00105701
0.00107986
0.0011116
0.00113784
0.00117296
0.00120312
0.00124209
0.00127598
0.000761481
0.000787914
0.000811172
0.000832344
0.000856128
0.000875424
0.000899336
0.000917934
0.000941234
0.00096069
0.000984529
0.00100461
0.00102964
0.00105079
0.00107758
0.0011005
0.00112973
0.00115533
0.00118775
0.00121753
0.00074276
0.000766135
0.000783597
0.000804668
0.000821842
0.000841613
0.0008589
0.000877848
0.000895635
0.000913708
0.000932936
0.000950742
0.000971725
0.000990115
0.00101295
0.00103298
0.00105759
0.00108079
0.00110672
0.00113153
0.000713635
0.000734979
0.00075473
0.000774863
0.00079411
0.000812682
0.000831507
0.000848889
0.000867375
0.000884013
0.000902398
0.00091868
0.000937232
0.000953635
0.000972685
0.000989765
0.00100986
0.00102811
0.00104988
0.00107002
0.000695396
0.00071367
0.000730255
0.000748589
0.000764119
0.000781154
0.000796002
0.000811819
0.000826325
0.000841034
0.00085555
0.000869292
0.000884181
0.000897011
0.000912775
0.000924436
0.000941957
0.000965422
0.000972345
0.000986088
0.000670481
0.000686485
0.000703835
0.000720623
0.000736846
0.000752384
0.000767514
0.000781901
0.000796096
0.000809393
0.000822873
0.000835165
0.000848167
0.000859613
0.000872359
0.000883258
0.000895855
0.000906796
0.000919404
0.000930936
0.000653551
0.000667137
0.000681788
0.000696435
0.000710006
0.000723385
0.000735895
0.000748051
0.000759583
0.000770564
0.000781226
0.000791133
0.000801018
0.000810073
0.000819214
0.000827899
0.000836194
0.000845505
0.000852544
0.000860291
0.000631095
0.000643539
0.000659327
0.000671378
0.000685111
0.000696869
0.00070893
0.000719918
0.000730585
0.000740496
0.00074996
0.000758645
0.000766994
0.000774418
0.000781688
0.000787928
0.000794157
0.000799437
0.000804751
0.000809229
0.000616911
0.000629341
0.000638504
0.000647902
0.000660704
0.000669827
0.000680722
0.000689284
0.00069851
0.000706243
0.000713955
0.000720667
0.000726944
0.000732505
0.000737324
0.000741687
0.000744985
0.000748132
0.000750151
0.000751775
0.000598275
0.000605269
0.000616375
0.000626806
0.000637181
0.000646417
0.000655688
0.000663874
0.000671898
0.000678822
0.00068567
0.00069137
0.00069676
0.000701017
0.000704853
0.000707198
0.000709611
0.000710598
0.00071074
0.000709936
0.000581072
0.000588259
0.000597778
0.000605941
0.000614817
0.000622176
0.000630215
0.000636714
0.000643775
0.000649263
0.000654976
0.000659477
0.000663806
0.00066693
0.000669743
0.000671076
0.000671381
0.000671183
0.000669374
0.000666505
0.000562977
0.000568483
0.000578039
0.000584784
0.00059334
0.000599916
0.000607347
0.000613912
0.000619774
0.000624605
0.000630279
0.000634806
0.000638374
0.000642218
0.000643404
0.000641984
0.000644494
0.000644154
0.000640484
0.000636418
0.000546192
0.000551636
0.000559311
0.000565588
0.000572625
0.000578452
0.000585228
0.000590288
0.000596646
0.000600778
0.000605475
0.000609528
0.000612756
0.000615901
0.000617245
0.000618949
0.000618508
0.000617333
0.000613741
0.000609128
0.000528447
0.000533931
0.000541269
0.000547363
0.000554215
0.0005598
0.000566643
0.000571168
0.000577623
0.000582891
0.000587189
0.000591339
0.000595
0.000597838
0.000600328
0.000601143
0.000601962
0.000600742
0.000597958
0.000593115
0.000514353
0.000520154
0.000527518
0.000533898
0.000539638
0.000546213
0.000554849
0.000558793
0.000564784
0.000569547
0.000573991
0.000578486
0.000581722
0.000585342
0.000587341
0.000589592
0.000590101
0.000590324
0.000588617
0.000585781
0.000501908
0.000508986
0.000517498
0.000524811
0.000531772
0.000541677
0.000549544
0.000553313
0.000561039
0.000565529
0.000571217
0.000575148
0.000579301
0.000582129
0.000584912
0.000586436
0.000587902
0.000588122
0.000588205
0.000586938
0.00155491
0.00145834
0.00136569
0.00130402
0.00124021
0.00119639
0.00113809
0.00109462
0.00103598
0.00099013
0.000928827
0.000877348
0.00080991
0.000748884
0.000670896
0.000595533
0.000501578
0.000405846
0.000289281
0.000165441
0.00173208
0.00165355
0.0015827
0.00153933
0.00147877
0.00141704
0.00134069
0.00128855
0.00121868
0.00116322
0.00109337
0.00103205
0.000957493
0.000887125
0.000803203
0.000719716
0.000621479
0.00052011
0.000402901
0.000279983
0.00214822
0.00211259
0.00201745
0.00191531
0.00178034
0.00165703
0.00158792
0.00150799
0.00141889
0.00134937
0.00127027
0.00120253
0.00112382
0.00105083
0.000965745
0.000882074
0.000785579
0.000687476
0.00057778
0.000466177
0.00221179
0.00220659
0.00211992
0.00205398
0.00195257
0.00187984
0.00177024
0.00165193
0.00158081
0.00150892
0.00143542
0.00136637
0.0012899
0.00121724
0.00113502
0.00105431
0.000964219
0.00087402
0.000778339
0.000683989
0.00174763
0.00184763
0.00185139
0.00188059
0.00184334
0.00182375
0.0017505
0.00169657
0.00161347
0.00157594
0.00152937
0.00148056
0.00142234
0.00136093
0.00129524
0.00122474
0.00115524
0.00108172
0.00101751
0.000954334
0.00132022
0.00147115
0.00148649
0.00153764
0.00152337
0.00154139
0.00151254
0.00150562
0.00150223
0.00150826
0.00149065
0.00146715
0.00143471
0.00139411
0.00135391
0.0013061
0.0012661
0.00122255
0.00119607
0.0011729
0.00117784
0.00124725
0.00125369
0.00129338
0.00130329
0.00133975
0.00135564
0.00139069
0.00141144
0.00142714
0.00143243
0.00142792
0.00141896
0.00140049
0.0013831
0.00135908
0.00134278
0.00132517
0.00132495
0.00133023
0.00106484
0.00112795
0.00114305
0.00117497
0.00119164
0.00121536
0.00123654
0.00125713
0.00128096
0.00129872
0.00131746
0.00132719
0.00133857
0.0013412
0.00134847
0.00134969
0.00136066
0.00137021
0.00139665
0.0014269
0.000995351
0.00104091
0.00107874
0.00110473
0.00113907
0.00115967
0.00118948
0.00120897
0.00123538
0.00125298
0.00127547
0.00128987
0.00130818
0.0013205
0.00133715
0.00135128
0.00137207
0.00139361
0.00142698
0.00146007
0.000944568
0.000958484
0.000997371
0.00101599
0.0010538
0.00107503
0.0011094
0.00113172
0.00116235
0.00118536
0.00121312
0.00123557
0.00126138
0.00128418
0.00131088
0.00133746
0.00137054
0.00140597
0.00145382
0.00150171
)
;

boundaryField
{
    back
    {
        type            empty;
    }
    left
    {
        type            symmetry;
    }
    hole
    {
        type            calculated;
        value           nonuniform List<scalar> 
20
(
0.0103888
0.00994207
0.00841719
0.00547723
0.00234366
0.000683406
0.000523579
0.000406968
0.000245592
5.50602e-05
0.000114088
0.000293247
0.000459483
0.000605125
0.000742616
0.000850726
0.000946667
0.00101397
0.00106311
0.00108607
)
;
    }
    front
    {
        type            empty;
    }
    down
    {
        type            symmetry;
    }
    right
    {
        type            calculated;
        value           nonuniform List<scalar> 
30
(
0.000377944
0.000380507
0.000386499
0.00039405
0.000405745
0.000417738
0.000434309
0.000449554
0.000469422
0.000486041
0.000501067
0.000508324
0.000516994
0.000524353
0.000532027
0.000540177
0.000547819
0.000553171
0.000560156
0.000565214
0.000570685
0.000574802
0.000578909
0.000581782
0.00058457
0.000586107
0.000587644
0.000587962
0.000588383
0.000587678
)
;
    }
    up
    {
        type            calculated;
        value           nonuniform List<scalar> 
30
(
0.00152856
0.00152273
0.00142239
0.00135274
0.00127676
0.00121809
0.00113228
0.00107045
0.000986617
0.000931057
0.000860539
0.000809257
0.000751807
0.000709885
0.000666512
0.000636411
0.00060903
0.000593161
0.000585758
0.000587019
0.000164627
0.00027757
0.000463546
0.000681195
0.0009529
0.00117266
0.00133046
0.00142766
0.00146023
0.00150178
)
;
    }
}


// ************************************************************************* //
