/*--------------------------------*- C++ -*----------------------------------*\
| =========                 |                                                 |
| \\      /  F ield         | OpenFOAM: The Open Source CFD Toolbox           |
|  \\    /   O peration     | Version:  v2012                                 |
|   \\  /    A nd           | Website:  www.openfoam.com                      |
|    \\/     M anipulation  |                                                 |
\*---------------------------------------------------------------------------*/
FoamFile
{
    version     2.0;
    format      ascii;
    class       volSymmTensorField;
    location    "16";
    object      sigma;
}
// * * * * * * * * * * * * * * * * * * * * * * * * * * * * * * * * * * * * * //

dimensions      [1 -1 -2 0 0 0 0];


internalField   nonuniform List<symmTensor> 
1000
(
(-3.68228e+07 -40891 3.09929e-09 -850735 -3.32586e-09 4.50526e+07)
(1.24494e+07 -4.04436e+06 6.40942e-09 1.57688e+06 -7.03137e-09 6.33601e+07)
(5.72321e+07 -7.32202e+06 9.27646e-10 9.24156e+06 1.17967e-08 8.30433e+07)
(9.18897e+07 -9.77048e+06 -3.13301e-10 1.76833e+07 -1.13188e-09 9.59314e+07)
(1.25095e+08 -1.06817e+07 1.24755e-09 2.92746e+07 -6.58422e-10 1.08231e+08)
(1.48879e+08 -1.07539e+07 1.75625e-09 3.7961e+07 1.0238e-08 1.11434e+08)
(1.70256e+08 -8.81001e+06 -4.04686e-09 4.78386e+07 -5.68858e-10 1.11099e+08)
(1.81747e+08 -5.9614e+06 -6.65639e-09 5.18119e+07 -1.38822e-08 1.02419e+08)
(1.90215e+08 -1.79034e+06 -1.35621e-08 5.57885e+07 -1.14784e-08 9.16193e+07)
(1.90575e+08 3.28402e+06 4.67201e-09 5.2779e+07 4.56173e-09 7.8199e+07)
(-2.89215e+07 -987756 0 164035 0 4.74767e+07)
(1.77463e+07 -1.22291e+07 -4.84483e-09 4.92397e+06 -5.20055e-09 6.48813e+07)
(6.06964e+07 -2.06113e+07 5.30155e-09 1.33694e+07 -5.74883e-09 8.27533e+07)
(9.17014e+07 -2.66836e+07 -2.39252e-10 2.1e+07 -2.48007e-08 9.18982e+07)
(1.21191e+08 -2.82483e+07 3.35979e-09 2.99259e+07 9.5958e-09 9.90793e+07)
(1.40159e+08 -2.6876e+07 2.01407e-08 3.38309e+07 2.61726e-08 9.70792e+07)
(1.56502e+08 -2.10446e+07 -4.62156e-09 3.84776e+07 -2.38625e-09 9.28368e+07)
(1.64215e+08 -1.29546e+07 -8.80609e-09 3.69041e+07 -2.52094e-09 8.35373e+07)
(1.68534e+08 -2.47886e+06 -2.63135e-08 3.70948e+07 -1.30535e-08 7.53629e+07)
(1.67791e+08 8.40521e+06 -8.0129e-09 3.18564e+07 -3.44401e-09 6.71003e+07)
(-1.41664e+07 -5.27779e+06 2.47789e-08 3.30663e+06 -1.80638e-08 5.11692e+07)
(2.56127e+07 -2.13229e+07 -3.64038e-09 9.69607e+06 -9.6071e-09 6.35601e+07)
(6.4633e+07 -3.15892e+07 -4.77704e-09 1.91404e+07 -7.26036e-10 7.53193e+07)
(8.96305e+07 -3.78773e+07 -4.64707e-09 2.36361e+07 -8.24436e-09 7.63908e+07)
(1.11844e+08 -3.59144e+07 6.93983e-09 2.53687e+07 4.89751e-09 7.4749e+07)
(1.23992e+08 -3.17127e+07 4.02031e-08 2.18059e+07 1.88191e-08 6.92558e+07)
(1.34155e+08 -2.22724e+07 -1.85605e-08 1.90219e+07 4.48658e-09 6.52001e+07)
(1.38075e+08 -1.26602e+07 -2.3777e-08 1.2896e+07 -1.19978e-09 6.08498e+07)
(1.41504e+08 -1.60547e+06 8.52219e-14 1.08904e+07 2.80279e-14 5.93102e+07)
(1.4262e+08 7.16832e+06 -1.49017e-08 6.31644e+06 -1.05612e-08 5.67442e+07)
(7.68954e+06 -1.13808e+07 7.9553e-10 9.86823e+06 -3.94976e-10 5.21719e+07)
(3.2248e+07 -2.84376e+07 6.73034e-09 1.34233e+07 -1.49954e-09 4.97877e+07)
(6.41252e+07 -3.7615e+07 1.91074e-09 2.30908e+07 -5.4084e-10 4.98368e+07)
(8.01869e+07 -3.78621e+07 2.07861e-08 1.56749e+07 5.96074e-09 4.31404e+07)
(9.5954e+07 -3.10189e+07 -1.89237e-08 1.14687e+07 -3.55439e-10 4.09291e+07)
(1.043e+08 -2.60053e+07 -1.4316e-09 2.62676e+06 -9.74694e-11 4.08161e+07)
(1.11647e+08 -1.82835e+07 2.22928e-08 -1.38669e+06 9.33929e-09 4.26721e+07)
(1.16383e+08 -1.28953e+07 -6.25955e-09 -6.74848e+06 -6.49605e-09 4.44657e+07)
(1.21337e+08 -5.21639e+06 -6.29334e-09 -7.94514e+06 -6.16666e-09 4.63154e+07)
(1.24145e+08 -558991 -5.77588e-09 -1.02142e+07 -5.76887e-09 4.5862e+07)
(2.70937e+07 -2.0657e+07 1.73692e-09 1.59768e+07 -5.19774e-09 3.80647e+07)
(4.03701e+07 -3.07216e+07 -1.3799e-08 1.17929e+07 9.30293e-10 2.33634e+07)
(5.75298e+07 -3.25487e+07 -1.91498e-08 1.36559e+07 3.72828e-09 2.13557e+07)
(6.40702e+07 -2.73552e+07 -8.38606e-10 -2.09125e+06 1.17063e-10 1.85937e+07)
(7.92664e+07 -2.48888e+07 3.69797e-08 -2.14815e+06 -4.2575e-09 2.31355e+07)
(9.236e+07 -2.21867e+07 9.29577e-09 -1.07762e+07 -7.97531e-09 2.58454e+07)
(1.00964e+08 -1.82727e+07 -5.66273e-09 -1.03224e+07 6.35166e-09 3.03438e+07)
(1.03638e+08 -1.42674e+07 -1.41812e-08 -1.59107e+07 -1.25374e-08 3.16607e+07)
(1.07076e+08 -8.76165e+06 3.64941e-10 -1.61697e+07 7.26678e-11 3.28105e+07)
(1.0869e+08 -5.17465e+06 -1.638e-08 -1.94667e+07 -8.58636e-09 3.21266e+07)
(4.49277e+07 -2.45529e+07 1.3496e-08 1.16094e+07 -4.92291e-09 1.7568e+07)
(3.61763e+07 -2.04231e+07 3.01737e-13 4.79134e+06 -9.40566e-14 1.22903e+07)
(4.80052e+07 -2.32189e+07 1.44574e-08 1.13453e+06 1.5339e-08 1.47419e+07)
(5.70081e+07 -2.16563e+07 -6.65347e-09 -5.79702e+06 -2.63798e-08 1.53633e+07)
(6.84613e+07 -2.35939e+07 0 -5.05839e+06 0 1.90209e+07)
(7.71823e+07 -1.97013e+07 -6.65253e-09 -1.19647e+07 8.84958e-09 1.95653e+07)
(8.67481e+07 -1.73242e+07 4.01882e-08 -1.24418e+07 1.12126e-08 2.22919e+07)
(9.13082e+07 -1.22152e+07 2.00729e-08 -1.87496e+07 6.15913e-09 2.17676e+07)
(9.56427e+07 -8.58202e+06 -3.80165e-09 -1.94433e+07 7.45389e-09 2.28598e+07)
(9.86321e+07 -5.16765e+06 -2.90468e-08 -2.26682e+07 -1.334e-08 2.28292e+07)
(4.07386e+07 -1.7526e+07 -2.51325e-08 6.99975e+06 1.31936e-10 1.43215e+07)
(4.19629e+07 -1.68597e+07 -4.61698e-08 4.90043e+06 1.88423e-08 1.4059e+07)
(4.95582e+07 -1.80743e+07 1.27726e-08 1.48957e+06 -2.59527e-08 1.53143e+07)
(5.2647e+07 -1.61747e+07 2.17185e-08 -3.79027e+06 -1.78772e-08 1.4657e+07)
(6.18221e+07 -1.63931e+07 -4.2519e-08 -6.28757e+06 -5.9933e-09 1.66604e+07)
(6.69205e+07 -1.41812e+07 -2.00492e-08 -1.28872e+07 -3.69147e-09 1.621e+07)
(7.45809e+07 -1.27454e+07 -2.65317e-08 -1.39292e+07 -1.0723e-08 1.81955e+07)
(7.82416e+07 -9.54204e+06 9.12984e-09 -1.94484e+07 -2.00695e-09 1.76379e+07)
(8.41718e+07 -7.89711e+06 1.89653e-08 -1.83425e+07 -4.14196e-09 1.97488e+07)
(8.6835e+07 -5.54666e+06 2.33474e-08 -2.11125e+07 1.91319e-11 1.97168e+07)
(3.12635e+07 -1.46994e+07 -1.4941e-08 8.34774e+06 9.14303e-09 1.18834e+07)
(3.30304e+07 -1.18185e+07 -2.41412e-13 2.36166e+06 1.34105e-13 1.06176e+07)
(4.30428e+07 -1.07506e+07 1.46057e-08 -2.32815e+06 -7.77676e-09 1.22144e+07)
(4.74107e+07 -1.02741e+07 3.51424e-08 -7.65629e+06 1.65146e-08 1.19263e+07)
(5.63019e+07 -1.0763e+07 9.09966e-10 -9.39081e+06 -4.28968e-10 1.40733e+07)
(6.09731e+07 -9.9438e+06 -9.90312e-09 -1.41983e+07 4.33537e-09 1.40324e+07)
(6.80324e+07 -9.86186e+06 1.76804e-08 -1.41143e+07 2.11841e-09 1.61754e+07)
(7.1466e+07 -8.31612e+06 -7.77585e-09 -1.79245e+07 3.10026e-09 1.60625e+07)
(7.63669e+07 -7.77153e+06 -1.51214e-08 -1.61868e+07 -2.66055e-09 1.8054e+07)
(7.93213e+07 -6.28505e+06 1.41663e-08 -1.86915e+07 2.892e-09 1.81889e+07)
(2.06232e+07 -9.07484e+06 -3.65086e-09 3.19894e+06 1.72956e-08 7.14663e+06)
(2.73684e+07 -8.64141e+06 -2.99787e-08 -3.15522e+06 3.42409e-08 7.26395e+06)
(3.62798e+07 -8.6334e+06 -4.87135e-09 -7.70871e+06 1.60932e-08 8.57134e+06)
(4.11054e+07 -8.59592e+06 3.60299e-08 -1.18586e+07 1.02296e-09 8.77402e+06)
(4.84757e+07 -9.27858e+06 1.6649e-08 -1.36411e+07 1.11306e-09 1.04504e+07)
(5.26506e+07 -9.00824e+06 -1.08196e-08 -1.71261e+07 1.71895e-08 1.06574e+07)
(5.88164e+07 -9.38623e+06 -2.00198e-09 -1.70618e+07 1.14141e-08 1.25264e+07)
(6.20519e+07 -8.80492e+06 3.55776e-08 -1.99131e+07 -6.25284e-10 1.26417e+07)
(6.7111e+07 -9.06071e+06 5.67195e-10 -1.81844e+07 -9.6059e-09 1.4678e+07)
(6.93334e+07 -8.55359e+06 6.25257e-09 -2.01439e+07 1.41503e-08 1.47568e+07)
(9.44584e+06 -1.79672e+06 2.92726e-09 -3.4116e+06 5.1529e-09 1.81027e+06)
(1.80345e+07 -3.07791e+06 1.07129e-08 -9.43114e+06 -9.46548e-09 2.581e+06)
(2.88863e+07 -4.49617e+06 -7.11546e-09 -1.37008e+07 -7.91843e-09 4.55566e+06)
(3.4416e+07 -5.57222e+06 1.33109e-09 -1.68736e+07 -1.43023e-08 5.26273e+06)
(4.25703e+07 -7.08655e+06 9.48998e-10 -1.83587e+07 -1.32965e-08 7.26348e+06)
(4.66257e+07 -7.68324e+06 -7.41892e-09 -2.01648e+07 5.91454e-09 7.93829e+06)
(5.30263e+07 -8.90328e+06 -1.36673e-08 -1.99933e+07 -1.16633e-08 9.90991e+06)
(5.61512e+07 -9.01051e+06 -3.66298e-10 -2.09703e+07 -1.0172e-08 1.05543e+07)
(6.12626e+07 -1.009e+07 -1.90925e-08 -1.96068e+07 -5.55628e-09 1.24967e+07)
(6.39119e+07 -9.84249e+06 -1.03304e-08 -2.03668e+07 7.85294e-09 1.30635e+07)
(864705 4.61098e+06 2.4472e-10 -1.1702e+07 -2.87213e-10 -3.25119e+06)
(1.0566e+07 1.22303e+06 -2.42775e-08 -1.59061e+07 -4.17527e-09 -1.60204e+06)
(1.98551e+07 -2.4304e+06 7.21439e-09 -1.93382e+07 6.93299e-09 155050)
(2.64032e+07 -4.12796e+06 8.04045e-09 -2.11481e+07 -2.2213e-08 1.57653e+06)
(3.28024e+07 -7.15102e+06 1.43576e-08 -2.208e+07 1.13293e-08 3.21671e+06)
(3.78635e+07 -7.67155e+06 -1.29555e-08 -2.27976e+07 8.64367e-10 4.51979e+06)
(4.24549e+07 -1.02025e+07 -6.69267e-09 -2.2448e+07 -4.92602e-09 6.00209e+06)
(4.68218e+07 -9.91544e+06 8.58729e-09 -2.25907e+07 -1.93283e-08 7.26933e+06)
(5.01689e+07 -1.19982e+07 6.5225e-09 -2.1762e+07 4.00167e-09 8.52207e+06)
(5.47334e+07 -1.16496e+07 -1.03421e-08 -2.1289e+07 1.69053e-08 1.00333e+07)
(-5.20851e+06 1.14136e+07 1.73843e-08 -2.24855e+07 -2.37129e-08 -8.30819e+06)
(4.6127e+06 5.70849e+06 3.53569e-10 -2.52545e+07 -4.99745e-10 -6.19255e+06)
(1.3505e+07 346896 -2.13587e-08 -2.69903e+07 -3.18463e-09 -4.04557e+06)
(2.02305e+07 -2.85722e+06 -7.04952e-09 -2.78804e+07 -5.70297e-09 -2.29498e+06)
(2.60775e+07 -6.65321e+06 1.20925e-08 -2.74899e+07 -1.2402e-09 -423726)
(3.12757e+07 -8.37211e+06 1.67737e-08 -2.769e+07 -7.77135e-09 1.07571e+06)
(3.50572e+07 -1.10858e+07 1.78381e-10 -2.60988e+07 -2.1062e-10 2.68753e+06)
(3.94178e+07 -1.18064e+07 -1.01007e-08 -2.61627e+07 5.75536e-10 3.97652e+06)
(4.17412e+07 -1.36519e+07 3.575e-09 -2.39347e+07 1.72976e-08 5.34193e+06)
(4.60569e+07 -1.43438e+07 -7.26043e-09 -2.3053e+07 -4.22734e-09 6.90115e+06)
(-9.43812e+06 1.69461e+07 -2.29046e-09 -3.44717e+07 -4.95685e-09 -1.31729e+07)
(-181304 9.66211e+06 1.18531e-08 -3.40216e+07 -3.73719e-09 -1.02609e+07)
(6.86017e+06 2.89684e+06 -9.77255e-10 -3.37102e+07 -1.53469e-08 -8.05501e+06)
(1.37855e+07 -1.07858e+06 -1.07531e-08 -3.25639e+07 2.39316e-09 -5.63351e+06)
(1.83787e+07 -5.55864e+06 -1.47129e-08 -3.10567e+07 8.85358e-09 -3.80339e+06)
(2.40792e+07 -7.73852e+06 5.76236e-09 -2.97204e+07 4.70766e-09 -1.69235e+06)
(2.70782e+07 -1.07526e+07 1.29367e-08 -2.7549e+07 -6.87794e-09 -141236)
(3.20171e+07 -1.19739e+07 1.42895e-08 -2.62191e+07 2.30944e-09 1.73939e+06)
(3.39278e+07 -1.39287e+07 -2.86913e-09 -2.3602e+07 4.3433e-09 3.09775e+06)
(3.86756e+07 -1.54288e+07 -7.8896e-09 -2.11457e+07 9.55904e-10 5.25895e+06)
(-1.09425e+07 2.06193e+07 2.1808e-09 -4.67899e+07 4.68011e-09 -1.73197e+07)
(-3.2736e+06 1.21526e+07 -5.9419e-09 -4.38982e+07 -5.90831e-09 -1.41515e+07)
(1.9988e+06 4.64398e+06 9.45524e-09 -4.11778e+07 -3.04634e-09 -1.17537e+07)
(8.14909e+06 -178118 5.85032e-09 -3.85074e+07 4.63957e-09 -9.1075e+06)
(1.15418e+07 -4.96354e+06 -3.14701e-09 -3.537e+07 6.54556e-09 -7.14848e+06)
(1.68609e+07 -7.76918e+06 -1.65006e-08 -3.30297e+07 -1.13969e-08 -4.85063e+06)
(1.89793e+07 -1.0807e+07 2.70287e-09 -2.97827e+07 8.45708e-09 -3.24102e+06)
(2.37748e+07 -1.25081e+07 4.98496e-09 -2.77332e+07 3.36883e-09 -1.18753e+06)
(2.51043e+07 -1.43625e+07 -2.83733e-09 -2.45869e+07 -6.72438e-09 155211)
(2.9843e+07 -1.62645e+07 -2.6976e-09 -2.13738e+07 -6.36444e-09 2.54078e+06)
(-1.10395e+07 2.26505e+07 4.62158e-09 -5.98251e+07 -2.46729e-08 -2.12594e+07)
(-5.08826e+06 1.36516e+07 2.08572e-09 -5.3466e+07 -9.51724e-09 -1.75663e+07)
(-1.811e+06 6.01113e+06 3.00243e-09 -4.82351e+07 1.25111e-08 -1.50138e+07)
(3.54781e+06 729801 1.0038e-08 -4.33411e+07 8.55906e-09 -1.1938e+07)
(5.72375e+06 -3.93639e+06 8.94162e-09 -3.87842e+07 -8.24072e-09 -9.91813e+06)
(1.06766e+07 -7.21782e+06 3.27466e-09 -3.49059e+07 7.92848e-09 -7.2688e+06)
(1.20539e+07 -9.9942e+06 1.11019e-09 -3.08697e+07 1.22628e-08 -5.64475e+06)
(1.6626e+07 -1.22004e+07 4.31151e-09 -2.76964e+07 -1.22751e-08 -3.32112e+06)
(1.75107e+07 -1.37225e+07 -4.22263e-09 -2.41284e+07 -2.4804e-09 -1.98532e+06)
(2.18701e+07 -1.5891e+07 -3.60771e-09 -2.02175e+07 4.08739e-09 495775)
(-9.70337e+06 2.22305e+07 -1.6219e-09 -7.13997e+07 8.21244e-09 -2.43309e+07)
(-5.97605e+06 1.35584e+07 3.24219e-09 -6.23685e+07 2.15876e-08 -2.05034e+07)
(-4.52067e+06 6.41285e+06 3.44257e-09 -5.48598e+07 1.15313e-08 -1.78142e+07)
(-460097 1.18362e+06 -3.45012e-11 -4.82316e+07 2.50471e-10 -1.46075e+07)
(752136 -3.11715e+06 -4.24015e-09 -4.23192e+07 -2.96794e-09 -1.24701e+07)
(4.87129e+06 -6.47263e+06 3.99317e-09 -3.72312e+07 3.29132e-09 -9.70796e+06)
(5.84642e+06 -8.96187e+06 -3.9458e-09 -3.24775e+07 -2.37403e-09 -7.98931e+06)
(9.82107e+06 -1.13055e+07 5.32487e-09 -2.83831e+07 -4.7033e-09 -5.5686e+06)
(1.06871e+07 -1.2623e+07 4.42765e-09 -2.45566e+07 -1.23574e-09 -4.16084e+06)
(1.4457e+07 -1.47637e+07 -6.75105e-10 -2.01137e+07 2.80284e-09 -1.69703e+06)
(-7.80591e+06 1.99483e+07 2.45069e-10 -8.23251e+07 -6.45799e-09 -2.70393e+07)
(-6.0949e+06 1.21918e+07 -6.60164e-09 -7.03675e+07 -9.95303e-09 -2.29387e+07)
(-6.23726e+06 6.07483e+06 -6.73192e-09 -6.07475e+07 -8.15382e-09 -2.00954e+07)
(-3.4095e+06 1.29866e+06 -3.68913e-09 -5.21529e+07 -1.30802e-08 -1.66687e+07)
(-3.05373e+06 -2.25465e+06 -6.44991e-09 -4.50813e+07 -1.01597e-08 -1.44405e+07)
(239466 -5.41186e+06 -6.62198e-09 -3.86107e+07 -1.46273e-09 -1.15114e+07)
(827708 -7.34497e+06 2.52118e-09 -3.32773e+07 8.36935e-09 -9.73489e+06)
(4.1902e+06 -9.60374e+06 -2.83607e-09 -2.81896e+07 -4.50577e-09 -7.19981e+06)
(4.96324e+06 -1.05175e+07 3.17507e-09 -2.41306e+07 -1.1032e-09 -5.75022e+06)
(8.18766e+06 -1.24185e+07 -8.61444e-10 -1.92848e+07 6.58558e-10 -3.32913e+06)
(-5.79997e+06 1.56907e+07 -1.44629e-09 -9.06643e+07 -1.15314e-08 -2.89393e+07)
(-5.94513e+06 9.65194e+06 2.21408e-09 -7.66362e+07 4.35303e-09 -2.47744e+07)
(-7.33035e+06 4.96103e+06 4.70583e-09 -6.54288e+07 1.17761e-08 -2.18277e+07)
(-5.68523e+06 1.1816e+06 -2.44984e-09 -5.54463e+07 -3.15035e-09 -1.83395e+07)
(-5.8964e+06 -1.54365e+06 4.29878e-09 -4.74954e+07 2.04294e-09 -1.60175e+07)
(-3.44008e+06 -4.08468e+06 5.97139e-09 -4.00228e+07 1.22036e-08 -1.30389e+07)
(-2.98883e+06 -5.56505e+06 4.77831e-09 -3.4268e+07 6.06286e-09 -1.11771e+07)
(-276217 -7.40947e+06 -4.50511e-10 -2.84088e+07 -4.14791e-09 -8.60549e+06)
(612606 -8.10937e+06 2.11468e-09 -2.42118e+07 1.27976e-09 -7.07977e+06)
(3.27874e+06 -9.58912e+06 0 -1.90603e+07 0 -4.73447e+06)
(-4.17172e+06 1.00404e+07 1.90259e-09 -9.68768e+07 9.2296e-09 -3.03146e+07)
(-5.64188e+06 6.15016e+06 5.48299e-09 -8.11576e+07 6.24354e-09 -2.60398e+07)
(-7.89051e+06 3.23145e+06 -3.36739e-09 -6.87717e+07 -4.68752e-09 -2.29987e+07)
(-7.11814e+06 781803 -1.45527e-09 -5.76257e+07 -2.2308e-09 -1.94231e+07)
(-7.74339e+06 -858676 3.45038e-09 -4.90491e+07 6.33299e-09 -1.70378e+07)
(-5.91089e+06 -2.52166e+06 8.52012e-10 -4.07436e+07 1.74226e-09 -1.39963e+07)
(-5.59061e+06 -3.36066e+06 -1.36349e-09 -3.46997e+07 -1.57391e-09 -1.20871e+07)
(-3.351e+06 -4.57659e+06 -1.00362e-09 -2.8235e+07 -2.45636e-09 -9.47579e+06)
(-2.42701e+06 -4.92617e+06 -1.69729e-09 -2.39421e+07 -2.18984e-09 -7.91072e+06)
(-128778 -5.86806e+06 -3.88096e-10 -1.85955e+07 -6.64515e-10 -5.61728e+06)
(-3.27593e+06 3.45592e+06 -3.78655e-09 -9.99231e+07 -2.24272e-09 -3.09597e+07)
(-5.46463e+06 2.14141e+06 -4.61349e-09 -8.34217e+07 -1.51586e-08 -2.66659e+07)
(-8.14672e+06 1.1292e+06 2.56279e-09 -7.04686e+07 -9.43356e-09 -2.35846e+07)
(-7.8474e+06 289888 2.19339e-09 -5.87916e+07 3.69023e-09 -1.99917e+07)
(-8.65604e+06 -303404 -1.72156e-09 -4.99109e+07 -3.00563e-09 -1.75701e+07)
(-7.16845e+06 -878052 -3.1675e-11 -4.12172e+07 -3.19811e-09 -1.45157e+07)
(-6.87586e+06 -1.20471e+06 2.71923e-10 -3.50336e+07 -1.03148e-09 -1.25728e+07)
(-4.90763e+06 -1.62557e+06 -1.79547e-09 -2.82695e+07 -2.01814e-09 -9.95314e+06)
(-3.92454e+06 -1.78418e+06 -4.44206e-10 -2.39337e+07 -9.79516e-10 -8.35747e+06)
(-1.84304e+06 -2.10321e+06 1.21844e-09 -1.84884e+07 7.32754e-10 -6.09943e+06)
(648952 -2.3194e+06 1.1291e-09 -1.29721e+07 1.6318e-09 -3.69695e+06)
(2.27567e+06 -6.30645e+06 2.12271e-09 -1.31812e+07 1.08577e-09 -3.27166e+06)
(5.61241e+06 -1.04241e+07 -4.51501e-10 -1.38816e+07 -4.99121e-10 -2.48076e+06)
(1.0265e+07 -1.33874e+07 6.24888e-10 -1.42905e+07 4.78488e-10 -1.20766e+06)
(1.64773e+07 -1.60637e+07 8.99463e-10 -1.53866e+07 1.12628e-09 327202)
(2.35327e+07 -1.72076e+07 6.48801e-09 -1.54797e+07 1.30535e-09 2.41589e+06)
(3.16679e+07 -1.79331e+07 -4.22787e-09 -1.66787e+07 -3.42804e-09 4.49676e+06)
(4.04196e+07 -1.69494e+07 -5.00575e-09 -1.62027e+07 -2.40394e-09 7.26508e+06)
(4.82539e+07 -1.62209e+07 -7.04488e-09 -1.78116e+07 -7.73135e-09 9.13267e+06)
(5.83281e+07 -1.44781e+07 1.58593e-08 -1.82801e+07 9.38631e-09 1.20144e+07)
(6.30688e+06 -2.34815e+06 -1.05453e-09 -5.57986e+06 -4.87002e-10 218106)
(7.60554e+06 -6.31197e+06 2.329e-11 -6.08356e+06 1.73567e-11 456593)
(1.01827e+07 -1.06238e+07 -2.85356e-09 -7.22766e+06 -1.40845e-09 886503)
(1.3892e+07 -1.36985e+07 -4.1369e-09 -8.51339e+06 -8.43128e-10 1.61357e+06)
(1.86463e+07 -1.69666e+07 6.10379e-09 -1.03806e+07 2.0591e-09 2.47971e+06)
(2.42924e+07 -1.83507e+07 3.61208e-09 -1.17788e+07 1.23822e-09 3.75409e+06)
(3.05084e+07 -2.01458e+07 -2.75002e-09 -1.34334e+07 -3.70311e-10 5.12247e+06)
(3.77158e+07 -1.91311e+07 0 -1.411e+07 0 7.08174e+06)
(4.48695e+07 -1.89659e+07 3.5752e-09 -1.42348e+07 3.54269e-09 9.1904e+06)
(5.27086e+07 -1.58889e+07 1.99045e-09 -1.46882e+07 -2.53231e-09 1.14061e+07)
(9.90726e+06 -2.23966e+06 3.2687e-10 -46380.5 1.81118e-10 2.95826e+06)
(1.11636e+07 -5.87575e+06 2.27103e-09 -403631 6.22465e-10 3.22798e+06)
(1.36245e+07 -1.00189e+07 -1.56726e-09 -1.19271e+06 -3.54482e-10 3.72953e+06)
(1.72914e+07 -1.28579e+07 -5.64032e-09 -2.23659e+06 -1.79806e-09 4.51645e+06)
(2.18831e+07 -1.61166e+07 -3.20573e-11 -3.66803e+06 -8.70561e-10 5.46453e+06)
(2.76449e+07 -1.76116e+07 9.67239e-10 -5.40028e+06 -5.93389e-10 6.67337e+06)
(3.35302e+07 -1.97469e+07 -3.80352e-09 -7.05644e+06 -1.31457e-09 7.94213e+06)
(4.07102e+07 -1.99436e+07 -7.0995e-09 -9.51819e+06 -2.23078e-09 9.35759e+06)
(4.6489e+07 -2.06741e+07 7.69369e-09 -1.02515e+07 2.80097e-09 1.08712e+07)
(5.26567e+07 -2.00734e+07 1.55468e-08 -1.27662e+07 7.45641e-09 1.19671e+07)
(1.50495e+07 -2.25133e+06 -1.16909e-09 3.20133e+06 -2.84557e-10 5.47524e+06)
(1.59958e+07 -5.94503e+06 6.51436e-10 2.75315e+06 1.10784e-10 5.6247e+06)
(1.77024e+07 -1.01699e+07 4.19585e-09 2.09866e+06 7.4685e-10 5.94031e+06)
(2.04961e+07 -1.31646e+07 2.80271e-09 873068 6.37578e-10 6.41074e+06)
(2.37355e+07 -1.65361e+07 5.03429e-09 -41101.7 1.01706e-09 7.10833e+06)
(2.83199e+07 -1.8216e+07 -4.95335e-09 -1.80738e+06 -1.06197e-09 7.95374e+06)
(3.29471e+07 -2.00967e+07 -1.2437e-08 -2.39957e+06 -3.07197e-09 9.16425e+06)
(3.92538e+07 -2.02977e+07 2.42648e-09 -4.66059e+06 5.19105e-10 1.0378e+07)
(4.54842e+07 -2.0221e+07 2.56603e-09 -4.83632e+06 4.96884e-10 1.21944e+07)
(5.15389e+07 -1.981e+07 -2.77913e-09 -7.43088e+06 -7.39796e-10 1.32324e+07)
(1.87671e+07 -1.9528e+06 -2.79129e-10 6.73297e+06 -5.53477e-11 7.65003e+06)
(1.97555e+07 -5.25948e+06 -2.0737e-09 6.28829e+06 -2.20565e-10 7.81312e+06)
(2.14506e+07 -8.95944e+06 -2.03973e-09 5.72947e+06 -2.38063e-10 8.15401e+06)
(2.43287e+07 -1.18482e+07 9.15229e-10 4.39387e+06 1.74992e-10 8.61677e+06)
(2.74493e+07 -1.49611e+07 5.26439e-09 3.45615e+06 1.03034e-09 9.27164e+06)
(3.1886e+07 -1.72039e+07 3.56517e-09 1.31911e+06 1.00342e-09 9.96153e+06)
(3.59501e+07 -1.93139e+07 4.59004e-09 425296 1.21116e-09 1.09126e+07)
(4.1273e+07 -2.0814e+07 -1.5605e-09 -2.032e+06 -5.82026e-10 1.17723e+07)
(4.61124e+07 -2.13254e+07 3.33265e-09 -2.49725e+06 1.43664e-09 1.30845e+07)
(5.09403e+07 -2.16398e+07 1.54861e-09 -4.37155e+06 9.66803e-10 1.39706e+07)
(2.28716e+07 -1.91003e+06 0 8.30141e+06 0 9.35191e+06)
(2.35861e+07 -5.30288e+06 -3.24243e-11 7.92568e+06 8.15599e-11 9.45354e+06)
(2.47375e+07 -8.85902e+06 -4.35257e-10 7.62535e+06 -1.22995e-10 9.70885e+06)
(2.68977e+07 -1.17836e+07 -5.89851e-09 6.54173e+06 -6.97614e-10 1.00318e+07)
(2.92359e+07 -1.45482e+07 4.7612e-11 6.08626e+06 1.2517e-12 1.05966e+07)
(3.28554e+07 -1.66892e+07 -1.22132e-09 4.39115e+06 -1.45562e-10 1.1174e+07)
(3.65085e+07 -1.82487e+07 5.0036e-11 3.84395e+06 6.98814e-12 1.21057e+07)
(4.13562e+07 -1.96047e+07 1.40996e-09 1.75058e+06 3.10229e-10 1.2932e+07)
(4.63549e+07 -1.99779e+07 -9.00487e-09 962986 -2.48158e-09 1.41954e+07)
(5.10434e+07 -2.05576e+07 1.09033e-08 -912750 3.32339e-09 1.50392e+07)
(2.66581e+07 -1.6174e+06 8.66882e-10 1.01234e+07 -7.17509e-12 1.10344e+07)
(2.73879e+07 -4.74924e+06 -1.36813e-09 9.71535e+06 -1.71622e-10 1.1131e+07)
(2.85483e+07 -7.82661e+06 -5.10878e-11 9.31967e+06 -1.30158e-10 1.13604e+07)
(3.06377e+07 -1.07657e+07 1.50042e-09 8.15837e+06 2.11775e-10 1.16388e+07)
(3.28084e+07 -1.33544e+07 8.35442e-10 7.49437e+06 2.52933e-10 1.20908e+07)
(3.59639e+07 -1.59139e+07 -1.32098e-09 5.83232e+06 -5.67484e-11 1.25389e+07)
(3.89904e+07 -1.76393e+07 -4.08438e-09 5.08127e+06 -6.37652e-10 1.32215e+07)
(4.28753e+07 -1.95127e+07 3.19842e-09 3.38751e+06 6.82891e-10 1.38788e+07)
(4.68082e+07 -2.01259e+07 -2.02595e-09 2.56749e+06 -5.94876e-10 1.48127e+07)
(5.08068e+07 -2.08993e+07 -2.92223e-10 1.21386e+06 3.12793e-10 1.56062e+07)
(2.98348e+07 -1.52115e+06 2.26073e-10 1.10333e+07 7.431e-11 1.22604e+07)
(3.03659e+07 -4.61728e+06 5.86159e-10 1.07405e+07 9.55665e-11 1.23319e+07)
(3.12295e+07 -7.43573e+06 -3.09578e-09 1.05026e+07 -1.92316e-11 1.25196e+07)
(3.28392e+07 -1.02351e+07 -3.58087e-09 9.65536e+06 -7.02755e-11 1.27484e+07)
(3.46604e+07 -1.24393e+07 6.16001e-10 9.16906e+06 2.68572e-10 1.31488e+07)
(3.73339e+07 -1.47514e+07 2.4854e-09 7.88029e+06 -5.9804e-11 1.35643e+07)
(4.0199e+07 -1.61505e+07 -3.80921e-09 7.09118e+06 -4.48206e-10 1.4187e+07)
(4.37581e+07 -1.7875e+07 -7.24929e-09 5.62833e+06 -1.15972e-09 1.48159e+07)
(4.75223e+07 -1.85333e+07 1.60361e-10 4.55917e+06 1.36487e-12 1.56245e+07)
(5.12203e+07 -1.94611e+07 6.62314e-09 3.28852e+06 2.49535e-09 1.63526e+07)
(3.34518e+07 -1.31741e+06 -1.10379e-09 1.17314e+07 9.17743e-12 1.3555e+07)
(3.39472e+07 -4.23504e+06 1.12652e-09 1.14262e+07 -3.53181e-11 1.3612e+07)
(3.47679e+07 -6.73944e+06 9.55365e-10 1.10764e+07 1.56361e-10 1.37533e+07)
(3.61803e+07 -9.51797e+06 -6.27409e-11 1.02453e+07 4.56394e-12 1.39277e+07)
(3.77649e+07 -1.16237e+07 -7.54656e-09 9.6092e+06 -6.62985e-10 1.42122e+07)
(3.99324e+07 -1.40583e+07 2.85756e-09 8.4896e+06 -1.72442e-10 1.45266e+07)
(4.22462e+07 -1.55219e+07 4.61074e-09 7.63301e+06 8.54197e-10 1.49638e+07)
(4.50871e+07 -1.73211e+07 6.79394e-16 6.49976e+06 -2.22887e-17 1.54761e+07)
(4.81131e+07 -1.80551e+07 -1.53298e-10 5.45908e+06 6.07999e-10 1.60716e+07)
(5.12777e+07 -1.89897e+07 1.55625e-09 4.45112e+06 7.21875e-10 1.67186e+07)
(3.59684e+07 -1.20117e+06 9.97565e-10 1.23473e+07 -1.43055e-10 1.44947e+07)
(3.63443e+07 -3.95031e+06 1.26559e-09 1.21289e+07 -4.82637e-11 1.4542e+07)
(3.70221e+07 -6.1925e+06 1.17353e-09 1.18339e+07 -5.7252e-11 1.46568e+07)
(3.81592e+07 -8.72942e+06 3.84353e-09 1.12108e+07 2.00909e-11 1.4811e+07)
(3.95744e+07 -1.05542e+07 -2.98856e-09 1.05917e+07 -1.55931e-10 1.50498e+07)
(4.14633e+07 -1.27161e+07 -3.51189e-09 9.67279e+06 -6.4798e-10 1.53408e+07)
(4.36168e+07 -1.40115e+07 3.53579e-09 8.72843e+06 3.21163e-10 1.57036e+07)
(4.61961e+07 -1.56595e+07 1.53299e-09 7.69862e+06 -8.71521e-11 1.61684e+07)
(4.89328e+07 -1.64036e+07 5.94992e-09 6.54946e+06 4.98192e-10 1.66447e+07)
(5.17734e+07 -1.73896e+07 4.58117e-09 5.57627e+06 6.32557e-10 1.72049e+07)
(3.92159e+07 -1.07897e+06 1.31439e-09 1.25193e+07 -8.21656e-12 1.55205e+07)
(3.95313e+07 -3.66821e+06 1.32749e-09 1.23019e+07 -4.48556e-11 1.555e+07)
(4.01144e+07 -5.72276e+06 1.34963e-09 1.19487e+07 -5.74612e-11 1.56189e+07)
(4.10279e+07 -8.16517e+06 2.3117e-09 1.13617e+07 5.06934e-10 1.57169e+07)
(4.218e+07 -9.91313e+06 1.26878e-09 1.0695e+07 -4.76428e-10 1.58625e+07)
(4.36413e+07 -1.20197e+07 -3.30146e-09 9.89274e+06 -7.13269e-10 1.60602e+07)
(4.53561e+07 -1.32956e+07 1.94975e-09 8.96719e+06 4.22572e-10 1.6297e+07)
(4.73782e+07 -1.4869e+07 -3.87723e-09 8.09611e+06 -3.5496e-10 1.66423e+07)
(4.96205e+07 -1.55962e+07 2.65023e-09 6.99348e+06 5.68201e-10 1.69842e+07)
(5.19519e+07 -1.65148e+07 -1.51733e-09 6.13613e+06 5.45402e-10 1.74264e+07)
(4.12682e+07 -962506 -1.6756e-10 1.3032e+07 -2.03347e-10 1.629e+07)
(4.15197e+07 -3.3147e+06 -1.33889e-09 1.28573e+07 3.91662e-11 1.63131e+07)
(4.2027e+07 -5.13364e+06 -7.17882e-10 1.25086e+07 2.8722e-10 1.63607e+07)
(4.27886e+07 -7.31238e+06 0 1.20144e+07 0 1.64409e+07)
(4.38262e+07 -8.85239e+06 1.59774e-10 1.13163e+07 -3.92364e-10 1.65427e+07)
(4.51042e+07 -1.07089e+07 6.76858e-11 1.05913e+07 -4.31669e-12 1.67086e+07)
(4.66458e+07 -1.18691e+07 3.60115e-09 9.58857e+06 8.55396e-10 1.68703e+07)
(4.84412e+07 -1.32797e+07 -1.67146e-09 8.75603e+06 1.19685e-10 1.71592e+07)
(5.03686e+07 -1.39776e+07 4.7189e-09 7.57457e+06 1.14827e-09 1.73829e+07)
(5.24407e+07 -1.48699e+07 2.53538e-09 6.73174e+06 -7.39627e-11 1.77517e+07)
(4.40525e+07 -885615 1.58436e-10 1.31514e+07 2.51772e-10 1.71612e+07)
(4.42422e+07 -3.0688e+06 1.89682e-09 1.29775e+07 2.28016e-10 1.71659e+07)
(4.46324e+07 -4.76164e+06 -7.1137e-10 1.26117e+07 -2.82375e-10 1.71732e+07)
(4.51961e+07 -6.79137e+06 1.58571e-09 1.21315e+07 -7.12882e-11 1.71983e+07)
(4.59804e+07 -8.2547e+06 -1.29789e-09 1.1441e+07 -3.49012e-10 1.72264e+07)
(4.69211e+07 -9.96941e+06 -4.51607e-09 1.0748e+07 -2.06813e-10 1.73007e+07)
(4.81113e+07 -1.10759e+07 3.36646e-09 9.80221e+06 9.10364e-10 1.73741e+07)
(4.94433e+07 -1.23507e+07 -2.02503e-09 8.99025e+06 -5.06179e-10 1.75301e+07)
(5.10533e+07 -1.30011e+07 -1.98158e-09 7.88213e+06 -5.91874e-10 1.76806e+07)
(5.24895e+07 -1.38125e+07 1.31793e-08 7.04993e+06 2.2013e-09 1.78618e+07)
(4.57299e+07 -771678 -2.89214e-10 1.37552e+07 -5.16741e-10 1.78455e+07)
(4.58868e+07 -2.70163e+06 3.20054e-09 1.35877e+07 -4.00632e-11 1.78424e+07)
(4.62217e+07 -4.17406e+06 5.49828e-10 1.3214e+07 2.90746e-10 1.78307e+07)
(4.66996e+07 -5.9581e+06 -1.52249e-09 1.27363e+07 3.76837e-11 1.78308e+07)
(4.73781e+07 -7.23513e+06 2.20191e-09 1.20243e+07 7.24722e-10 1.78207e+07)
(4.81881e+07 -8.74148e+06 -3.27714e-09 1.13033e+07 1.08457e-10 1.78474e+07)
(4.92063e+07 -9.72911e+06 -1.56821e-09 1.03358e+07 5.2718e-11 1.78626e+07)
(5.03441e+07 -1.08463e+07 1.57987e-09 9.46031e+06 -6.59926e-11 1.79413e+07)
(5.17003e+07 -1.14761e+07 -3.53428e-09 8.35066e+06 -5.40665e-10 1.80153e+07)
(5.2962e+07 -1.21123e+07 -1.67154e-09 7.41681e+06 7.55228e-11 1.81136e+07)
(4.80217e+07 -704473 -3.39197e-09 1.41972e+07 -2.89616e-10 1.86657e+07)
(4.81248e+07 -2.45498e+06 -4.45798e-09 1.4026e+07 3.12311e-10 1.86452e+07)
(4.83492e+07 -3.80291e+06 2.76982e-09 1.36326e+07 6.29354e-10 1.85945e+07)
(4.86655e+07 -5.42065e+06 -4.9265e-09 1.31484e+07 3.31822e-11 1.85442e+07)
(4.9124e+07 -6.58774e+06 -1.65118e-09 1.2414e+07 7.50758e-12 1.84614e+07)
(4.96764e+07 -7.94638e+06 1.65743e-09 1.16881e+07 -1.77382e-11 1.84094e+07)
(5.03868e+07 -8.82376e+06 2.16832e-10 1.07019e+07 -5.04615e-10 1.83266e+07)
(5.12028e+07 -9.82536e+06 9.52892e-11 9.81918e+06 -5.68252e-10 1.83066e+07)
(5.21776e+07 -1.03282e+07 1.77542e-09 8.68642e+06 6.19564e-10 1.82592e+07)
(5.31455e+07 -1.09068e+07 1.8513e-09 7.73054e+06 6.7976e-10 1.82628e+07)
(4.93314e+07 -589762 -1.78605e-09 1.51338e+07 -2.7853e-10 1.93396e+07)
(4.94146e+07 -2.07076e+06 -2.69809e-09 1.49487e+07 -8.55251e-10 1.9309e+07)
(4.95983e+07 -3.20096e+06 2.30462e-09 1.45286e+07 3.41878e-10 1.92381e+07)
(4.98524e+07 -4.57086e+06 3.11497e-09 1.40008e+07 7.03687e-10 1.91559e+07)
(5.02264e+07 -5.55769e+06 -1.88961e-09 1.32151e+07 -7.58526e-10 1.90325e+07)
(5.06592e+07 -6.71111e+06 -5.9639e-10 1.24211e+07 -7.99262e-10 1.89241e+07)
(5.12342e+07 -7.46959e+06 -1.64006e-09 1.13664e+07 -5.61393e-11 1.87802e+07)
(5.18437e+07 -8.3103e+06 1.42997e-09 1.04144e+07 5.46164e-10 1.86774e+07)
(5.26345e+07 -8.76884e+06 1.68394e-09 9.1977e+06 5.62396e-11 1.85496e+07)
(5.3319e+07 -9.21587e+06 7.19728e-09 8.20638e+06 1.09747e-09 1.84576e+07)
(5.10955e+07 -509640 5.02685e-09 1.62668e+07 -2.06322e-10 2.02087e+07)
(5.11371e+07 -1.77994e+06 1.41063e-09 1.60666e+07 -2.23843e-10 2.01611e+07)
(5.12302e+07 -2.75614e+06 -1.71419e-09 1.5598e+07 -6.82797e-11 2.00485e+07)
(5.13634e+07 -3.92905e+06 2.44023e-09 1.50276e+07 4.08808e-10 1.99173e+07)
(5.15591e+07 -4.77661e+06 -3.28334e-11 1.41565e+07 -3.05117e-12 1.97147e+07)
(5.18073e+07 -5.75588e+06 -5.99883e-10 1.32953e+07 3.02073e-10 1.95308e+07)
(5.21214e+07 -6.39523e+06 -1.77684e-09 1.21375e+07 -1.40616e-10 1.92777e+07)
(5.25111e+07 -7.09102e+06 -3.9876e-09 1.10897e+07 -1.62295e-09 1.90802e+07)
(5.29567e+07 -7.45969e+06 -1.1879e-09 9.78792e+06 -1.09865e-09 1.88234e+07)
(5.34373e+07 -7.79427e+06 6.46248e-09 8.65591e+06 3.0912e-09 1.8628e+07)
(5.19664e+07 -380662 3.54086e-09 1.78652e+07 2.51032e-10 2.09495e+07)
(5.19966e+07 -1.3296e+06 2.00092e-09 1.76341e+07 2.87156e-10 2.08892e+07)
(5.20646e+07 -2.06129e+06 4.74814e-10 1.71089e+07 2.40284e-10 2.0752e+07)
(5.21573e+07 -2.944e+06 6.39883e-10 1.64488e+07 2.73583e-10 2.05818e+07)
(5.22944e+07 -3.585e+06 1.71903e-09 1.54729e+07 2.01854e-10 2.03302e+07)
(5.24545e+07 -4.33484e+06 -9.76495e-10 1.44754e+07 -3.83066e-10 2.0079e+07)
(5.26651e+07 -4.81969e+06 6.3353e-10 1.31826e+07 -1.97681e-10 1.97543e+07)
(5.2897e+07 -5.37073e+06 4.73764e-10 1.19742e+07 -2.59677e-10 1.94613e+07)
(5.31912e+07 -5.6323e+06 -1.65494e-09 1.05289e+07 -2.61481e-10 1.9116e+07)
(5.34505e+07 -5.92301e+06 -3.63078e-09 9.24106e+06 -1.16419e-10 1.88075e+07)
(5.30959e+07 -264217 -3.45228e-09 2.01521e+07 -7.18758e-11 2.19744e+07)
(5.30989e+07 -927626 3.72772e-09 1.98851e+07 3.55127e-10 2.18952e+07)
(5.31077e+07 -1.43443e+06 4.21615e-10 1.9259e+07 1.61818e-10 2.171e+07)
(5.31217e+07 -2.05348e+06 3.44568e-09 1.84953e+07 4.84855e-10 2.14851e+07)
(5.31457e+07 -2.49318e+06 -1.72089e-09 1.73204e+07 -2.9481e-10 2.11398e+07)
(5.3184e+07 -3.02157e+06 4.31779e-09 1.61654e+07 9.97356e-10 2.08048e+07)
(5.3234e+07 -3.34444e+06 -4.42675e-09 1.45812e+07 -1.14568e-09 2.03446e+07)