/*--------------------------------*- C++ -*----------------------------------*\
| =========                 |                                                 |
| \\      /  F ield         | OpenFOAM: The Open Source CFD Toolbox           |
|  \\    /   O peration     | Version:  v2012                                 |
|   \\  /    A nd           | Website:  www.openfoam.com                      |
|    \\/     M anipulation  |                                                 |
\*---------------------------------------------------------------------------*/
FoamFile
{
    version     2.0;
    format      ascii;
    class       volSymmTensorField;
    location    "15";
    object      epsilon;
}
// * * * * * * * * * * * * * * * * * * * * * * * * * * * * * * * * * * * * * //

dimensions      [0 0 0 0 0 0 0];


internalField   nonuniform List<symmTensor> 
2000
(
(0.016906 -0.00189787 4.48477e-18 -0.0169277 -4.68551e-19 1.01028e-33)
(0.00906569 -0.000732196 2.29858e-18 -0.00787004 -2.89622e-18 0)
(0.0122719 -0.0010299 -3.56872e-18 -0.0105023 -5.69004e-19 0)
(0.00862221 -0.000822628 -1.5444e-18 -0.00775164 1.54865e-18 0)
(0.0100494 -0.000678339 2.8718e-18 -0.00857012 3.60538e-19 0)
(0.00797578 -0.000778564 4.65064e-19 -0.00692171 -9.60205e-19 0)
(0.00850345 -0.000535934 -1.40146e-18 -0.00687329 5.63855e-19 0)
(0.00712664 -0.000672708 -2.92524e-18 -0.00578501 -1.20486e-18 0)
(0.00713626 -0.000469236 -4.82769e-18 -0.00530497 -1.1219e-18 0)
(0.00605899 -0.000519974 -5.9169e-19 -0.00447808 9.92078e-19 0)
(0.00580723 -0.000399396 0 -0.00380285 0 0)
(0.00490331 -0.00034652 0 -0.00312685 0 0)
(0.00458091 -0.000298039 -6.81135e-19 -0.00248078 9.81174e-20 0)
(0.00385445 -0.000194364 -1.07023e-18 -0.00197428 -3.63579e-19 0)
(0.00356942 -0.000177709 -4.43444e-19 -0.00145595 -1.97626e-19 0)
(0.00304621 -8.24604e-05 6.28797e-19 -0.00115462 2.9764e-19 0)
(0.00283424 -5.91273e-05 0 -0.000741893 0 0)
(0.00253128 -1.00151e-05 0 -0.000636475 0 0)
(0.00240891 4.95918e-05 0 -0.000336795 0 0)
(0.00225508 4.42143e-05 -2.17707e-19 -0.000367676 -1.09482e-19 0)
(0.00676073 -0.00160018 0 -0.00745659 0 0)
(0.008965 -0.00215452 9.10804e-19 -0.00738902 7.07776e-19 0)
(0.00778539 -0.00169895 -1.0781e-19 -0.00685215 6.96504e-19 0)
(0.00822178 -0.002031 9.45752e-19 -0.00686654 5.6562e-20 0)
(0.007431 -0.001638 3.78749e-19 -0.00624844 -8.47561e-19 0)
(0.00722599 -0.00177454 3.86583e-19 -0.00591928 -8.96364e-19 0)
(0.00650041 -0.00143595 -1.20874e-18 -0.00496853 9.18372e-19 0)
(0.00601243 -0.00139393 -2.399e-18 -0.00460352 -6.44992e-19 0)
(0.00541556 -0.00116671 -4.53571e-18 -0.00361879 -1.53726e-18 0)
(0.00480741 -0.000980132 -2.77348e-18 -0.00330663 -3.45215e-19 0)
(0.00443941 -0.000873408 -8.2786e-19 -0.00253988 -4.67802e-19 0)
(0.0038175 -0.000612308 2.26737e-19 -0.00226595 1.649e-19 0)
(0.0036737 -0.00058983 1.15176e-18 -0.00178965 6.88993e-19 0)
(0.00312082 -0.000320031 -9.23708e-20 -0.00155725 8.17738e-20 0)
(0.00311536 -0.000336759 -1.2119e-18 -0.00130355 -8.57981e-19 0)
(0.00268935 -9.37104e-05 -6.01393e-19 -0.00113846 -7.12256e-19 0)
(0.00272986 -0.000119393 3.17694e-19 -0.000997244 3.12042e-19 0)
(0.00246005 9.26588e-05 6.32745e-19 -0.000913752 5.13866e-19 0)
(0.00243494 6.87877e-05 8.85132e-19 -0.000755448 6.37975e-19 0)
(0.00226976 0.000234466 7.0428e-19 -0.000733108 6.66445e-19 0)
(0.00889494 -0.00379391 -1.57173e-18 -0.00932344 5.85339e-19 3.11567e-34)
(0.00761882 -0.00294111 -2.248e-18 -0.00620326 8.17751e-19 0)
(0.0071785 -0.00279048 -6.63602e-20 -0.00594025 -6.1263e-19 0)
(0.00628668 -0.00249329 7.89236e-19 -0.00521438 4.96912e-19 0)
(0.00577168 -0.00219779 1.78089e-19 -0.00412843 3.89214e-19 0)
(0.00487827 -0.00188548 -1.71498e-18 -0.00389803 -1.23251e-18 0)
(0.00460127 -0.00165365 -2.06555e-18 -0.00262564 -4.88013e-19 0)
(0.0036889 -0.00129872 -1.43582e-18 -0.00266828 -1.93496e-19 0)
(0.00377663 -0.00119922 0 -0.00173413 0 0)
(0.00296523 -0.000863282 0 -0.00188421 0 0)
(0.0032651 -0.000839968 -4.81479e-19 -0.00137815 -3.17792e-19 0)
(0.00265815 -0.000548784 -1.72488e-18 -0.00150096 -9.52917e-19 0)
(0.00296514 -0.000544122 -1.72873e-18 -0.00130019 -1.06359e-18 0)
(0.00259596 -0.000293446 -9.86526e-21 -0.00135457 -4.28606e-19 0)
(0.00278853 -0.000289639 9.83026e-19 -0.00131535 8.8496e-19 0)
(0.0026327 -6.40635e-05 7.86242e-19 -0.00131939 6.86226e-19 0)
(0.00266405 -7.27352e-05 4.88042e-19 -0.00133138 2.03996e-19 0)
(0.0026651 0.000144442 -2.05302e-19 -0.00128928 -9.54628e-20 0)
(0.00256204 0.000109617 -1.69888e-19 -0.00127205 3.42673e-20 0)
(0.00259415 0.000316714 1.06356e-18 -0.00119488 1.03945e-18 0)
(0.00566892 -0.00361503 2.19101e-18 -0.00559824 -1.0484e-18 9.65259e-34)
(0.00511925 -0.00280256 1.17629e-18 -0.00417478 -1.39914e-18 0)
(0.00430789 -0.00245368 1.66129e-19 -0.00276489 7.09175e-19 0)
(0.00344939 -0.00187784 -6.69055e-19 -0.00271998 4.38655e-20 0)
(0.00317574 -0.00165394 -2.81803e-19 -0.00133985 -8.17786e-20 0)
(0.00222719 -0.00115313 2.32701e-19 -0.00158817 8.02111e-20 0)
(0.00251353 -0.00113017 1.10448e-18 -0.000749437 7.08906e-19 0)
(0.00170207 -0.00076229 8.26129e-19 -0.00102371 7.86791e-19 0)
(0.0023018 -0.000785811 1.28709e-18 -0.000759016 1.39475e-18 0)
(0.00168154 -0.00056958 5.87618e-19 -0.000917756 1.08209e-18 0)
(0.00233734 -0.000543881 1.69683e-18 -0.000938531 1.81356e-18 0)
(0.00187103 -0.000426754 5.65734e-19 -0.00101618 8.19888e-19 0)
(0.00244719 -0.000351584 9.82597e-19 -0.00113634 4.30929e-19 0)
(0.00209292 -0.000274734 9.73549e-19 -0.0011718 7.00228e-19 0)
(0.00255221 -0.000173872 5.7926e-19 -0.00132086 8.10612e-19 0)
(0.00227315 -0.000108519 8.22975e-19 -0.00132551 1.10501e-18 0)
(0.00262967 -9.63932e-06 5.7142e-19 -0.00146313 2.28134e-19 0)
(0.00242982 5.55811e-05 1.27683e-19 -0.00142049 4.19329e-20 0)
(0.00261252 0.000133975 -8.58607e-19 -0.0014851 -7.27264e-19 0)
(0.00246039 0.000194821 -3.11846e-19 -0.00136977 -3.04937e-19 0)
(0.00301301 -0.00248763 -6.70642e-19 -0.0021448 9.4679e-20 3.94812e-34)
(0.00225389 -0.00154856 8.24571e-19 -0.00164518 2.08679e-19 0)
(0.00175346 -0.00132572 2.89769e-19 -0.000534313 -1.61434e-19 0)
(0.0012742 -0.000864908 -5.32247e-19 -0.000618216 -7.39711e-19 0)
(0.00132312 -0.000859475 -2.90755e-19 -0.000274978 2.7622e-19 0)
(0.00112625 -0.000658152 9.10703e-20 -0.000483611 5.59191e-19 0)
(0.00136059 -0.000663864 -1.47427e-19 -0.00052108 -5.5706e-19 0)
(0.00126803 -0.000537347 -3.90696e-19 -0.000559866 -5.10092e-19 0)
(0.00151877 -0.000518622 -1.00106e-18 -0.000629482 -5.56016e-19 0)
(0.001396 -0.000423783 2.35582e-19 -0.000663978 -1.64075e-20 0)
(0.00166224 -0.000381998 -4.19047e-19 -0.000715705 -6.02332e-19 0)
(0.00147563 -0.000315308 -1.10306e-18 -0.000784184 -5.63333e-19 0)
(0.00184348 -0.000248981 -1.09239e-18 -0.000900227 -8.40448e-19 0)
(0.00158711 -0.000233444 -2.28408e-19 -0.000873669 -4.99777e-19 0)
(0.00205942 -0.000136781 -1.0523e-20 -0.0010635 2.14454e-19 0)
(0.00178821 -0.000144896 -5.40273e-19 -0.00105063 -1.08949e-19 0)
(0.00220351 -2.68666e-05 -2.58764e-19 -0.00120732 -4.66272e-19 0)
(0.00193849 -4.34957e-05 -1.10313e-19 -0.00116678 -6.09709e-19 0)
(0.00227593 7.24863e-05 5.50087e-19 -0.0012826 5.62315e-19 0)
(0.00202684 5.91906e-05 2.18557e-20 -0.00121369 1.99546e-19 0)
(0.000967021 -0.000812428 3.38538e-19 -0.000223901 -1.87948e-19 -5.04116e-35)
(0.00096222 -0.000694103 1.76225e-18 -0.000176269 -6.18582e-20 0)
(0.000964883 -0.000682986 1.09231e-18 -0.000173498 6.0411e-19 0)
(0.00103197 -0.000620688 -1.12671e-19 -0.000299985 6.91079e-19 0)
(0.00112015 -0.000622099 -8.25746e-19 -0.000256401 -7.36508e-19 0)
(0.001115 -0.000534487 -7.86845e-19 -0.000434579 -7.62673e-19 0)
(0.00125425 -0.000527726 -2.67166e-19 -0.000392461 8.34835e-20 0)
(0.0011964 -0.000438256 9.58205e-19 -0.000546595 4.83975e-19 0)
(0.0013684 -0.000429626 4.80754e-19 -0.000538113 4.8757e-19 0)
(0.00129016 -0.000340811 1.11798e-18 -0.000644506 1.03758e-18 0)
(0.00148247 -0.000339165 8.22147e-19 -0.000662391 7.59722e-19 0)
(0.00138485 -0.000251124 5.64117e-19 -0.000724628 7.83804e-19 0)
(0.00157801 -0.00025002 0 -0.000778942 0 0)
(0.00147862 -0.000169154 3.07098e-19 -0.000807207 2.57479e-19 0)
(0.00164849 -0.000158724 -7.93962e-21 -0.000883923 2.25863e-19 0)
(0.00155133 -0.000101076 1.56231e-19 -0.000884076 2.42902e-19 0)
(0.0016974 -7.07572e-05 4.71062e-19 -0.000967054 2.77394e-19 0)
(0.00160612 -4.66064e-05 1.68634e-19 -0.000949947 2.54522e-20 0)
(0.00183995 8.5772e-06 1.11954e-18 -0.00107995 1.40646e-18 0)
(0.00172584 1.03841e-06 1.23111e-18 -0.00103283 1.52181e-18 0)
(0.00079226 -0.0007229 3.68865e-19 -0.000130949 -2.53245e-19 -7.51928e-35)
(0.000864792 -0.00061892 -6.13449e-19 -0.000149086 -9.20386e-19 0)
(0.000893104 -0.000593479 4.18888e-19 -0.000193983 2.74885e-19 0)
(0.000922093 -0.000517335 1.49647e-18 -0.00030322 6.64218e-19 0)
(0.0010056 -0.000487338 8.48103e-19 -0.00030765 7.57226e-19 0)
(0.00101096 -0.000415679 3.85543e-19 -0.000434702 9.63302e-19 0)
(0.00112342 -0.000397756 -2.39803e-19 -0.000439043 1.0379e-19 0)
(0.00110295 -0.00032892 -3.66619e-19 -0.000551777 -2.62843e-19 0)
(0.00123225 -0.00032346 -1.71063e-19 -0.000570705 -8.61671e-19 0)
(0.00119334 -0.000254476 -8.82703e-19 -0.000652918 -1.01575e-18 0)
(0.00132707 -0.000258681 -7.51597e-19 -0.000692344 -1.58218e-19 0)
(0.00128122 -0.000189136 0 -0.000739247 0 0)
(0.00141195 -0.000199684 -2.731e-19 -0.000796098 -7.74697e-19 0)
(0.00136713 -0.000128156 -2.55646e-19 -0.000810701 -7.85733e-19 0)
(0.00149028 -0.000145225 1.89989e-20 -0.000880617 4.82675e-19 0)
(0.00144668 -7.53671e-05 1.7794e-18 -0.000871328 1.71302e-18 0)
(0.00157074 -9.91379e-05 9.40279e-19 -0.000943696 7.16445e-19 0)
(0.00152115 -3.5073e-05 5.75491e-19 -0.000919269 7.08895e-19 0)
(0.00163364 -5.57453e-05 -5.26579e-19 -0.00100209 -4.69189e-19 0)
(0.00158839 -7.71709e-06 -2.62964e-19 -0.000953077 -2.26576e-19 0)
(0.00063332 -0.000683217 -3.14535e-19 4.99445e-05 6.8273e-20 6.79953e-35)
(0.000665216 -0.000507196 -1.11723e-18 -0.00015074 2.74867e-19 0)
(0.000760622 -0.000516972 -1.62612e-18 -0.000185715 -1.06781e-18 0)
(0.000785685 -0.000393066 -2.10878e-18 -0.00031906 -1.81783e-18 0)
(0.000898059 -0.000394258 -9.58873e-19 -0.000358639 -9.88566e-19 0)
(0.000907958 -0.000301938 -9.05922e-20 -0.000453717 -1.02242e-18 0)
(0.00102562 -0.000308843 -3.6941e-19 -0.000505706 -2.70304e-19 0)
(0.00101853 -0.000235196 -5.50552e-19 -0.000566261 -1.61264e-19 0)
(0.00113469 -0.000248718 -1.48804e-19 -0.000631745 -2.24344e-19 0)
(0.00111653 -0.000184845 -8.04385e-19 -0.000657441 -7.62016e-19 0)
(0.00122472 -0.000202408 -8.25731e-19 -0.000738728 -7.48028e-19 0)
(0.00120356 -0.000142867 -2.97255e-19 -0.000728798 -5.56529e-19 0)
(0.00129844 -0.000163481 -3.91898e-21 -0.000829651 -2.78147e-19 0)
(0.00127949 -0.00010395 -1.40188e-18 -0.000784513 -8.93337e-19 0)
(0.00136214 -0.000129806 -1.74676e-18 -0.000907618 -1.41196e-18 0)
(0.00134457 -6.6875e-05 -1.06469e-18 -0.000833085 -1.2138e-18 0)
(0.001426 -0.000102016 -1.65783e-19 -0.000973757 1.36863e-20 0)
(0.0014011 -3.49648e-05 5.60446e-19 -0.000881717 2.03385e-19 0)
(0.00149874 -8.33454e-05 8.99331e-19 -0.00102526 6.78814e-19 0)
(0.0014588 -1.62439e-05 3.15679e-19 -0.000919173 4.51339e-19 0)
(0.000415714 -0.000527753 6.41568e-19 0.000133493 -4.27147e-19 1.43098e-34)
(0.000456775 -0.000365307 -1.5438e-21 -0.000174359 -9.16669e-19 0)
(0.000619227 -0.000404452 7.2666e-19 -0.000164494 1.1897e-18 0)
(0.000636874 -0.000269056 -3.51247e-19 -0.000350693 8.95613e-19 0)
(0.000790289 -0.000310749 3.98722e-19 -0.000385078 2.61082e-19 0)
(0.000793739 -0.00020241 1.72605e-19 -0.000483127 -1.38339e-19 0)
(0.000931492 -0.000250129 8.73736e-19 -0.000552824 7.47666e-19 0)
(0.000922932 -0.000160684 9.58808e-20 -0.00058854 2.68674e-19 0)
(0.0010465 -0.000209195 5.34613e-19 -0.000679453 1.43153e-19 0)
(0.00102909 -0.000133981 0 -0.000672596 0 0)
(0.0011399 -0.00017643 3.32577e-19 -0.000774754 5.66766e-19 0)
(0.00111793 -0.000116014 4.7689e-19 -0.000735695 4.9202e-19 0)
(0.00121244 -0.000145546 1.13368e-18 -0.000848759 9.6493e-19 0)
(0.00119524 -0.000103977 4.82181e-19 -0.000773244 4.81779e-19 0)
(0.0012645 -0.000115655 4.61635e-19 -0.000912093 1.88642e-19 0)
(0.00126989 -9.68098e-05 -2.99529e-19 -0.000774369 -2.16754e-19 0)
(0.00130684 -9.32328e-05 -6.19824e-19 -0.000975331 -7.32905e-19 0)
(0.00135964 -9.5302e-05 -4.90531e-19 -0.000717885 -4.47081e-19 0)
(0.00137979 -9.5163e-05 -4.1699e-19 -0.0010424 -2.06844e-19 0)
(0.00147263 -9.68076e-05 5.42565e-19 -0.000600305 2.1757e-19 0)
(0.000238722 -0.000314176 -3.3848e-19 0.000137009 3.92602e-19 -1.02598e-34)
(0.000280613 -0.000191923 1.22978e-18 -0.00022235 9.48678e-19 0)
(0.000489814 -0.000265494 -2.15508e-19 -0.000177159 -4.70968e-19 0)
(0.000503074 -0.000142182 -1.58788e-19 -0.000396451 1.80279e-19 0)
(0.000677188 -0.00022577 -9.66491e-19 -0.000413418 -2.90718e-19 0)
(0.000678361 -0.000115089 1.50343e-19 -0.000520551 -1.52638e-19 0)
(0.000819518 -0.000204559 -1.91239e-19 -0.00058353 -4.01523e-19 0)
(0.000816732 -0.000103673 -4.98862e-19 -0.000611281 -9.72727e-20 0)
(0.000927584 -0.000192064 -5.10765e-19 -0.000704626 -1.11271e-19 0)
(0.000927481 -9.87367e-05 0 -0.000681419 0 0)
(0.00101173 -0.000181404 -3.24935e-19 -0.000790477 -2.33212e-19 0)
(0.00101654 -9.55383e-05 0 -0.000744791 0 0)
(0.00108071 -0.000168054 4.42764e-20 -0.00085313 2.98241e-19 0)
(0.00109119 -9.26007e-05 9.10908e-19 -0.00081696 6.00989e-19 0)
(0.00114623 -0.000146652 5.89636e-19 -0.000907223 9.15129e-20 0)
(0.00116809 -9.11393e-05 -1.28735e-19 -0.000912199 4.70968e-20 0)
(0.00123163 -0.000110647 -1.42356e-19 -0.000976776 4.85236e-20 0)
(0.00127304 -0.000101982 6.84513e-19 -0.00103642 3.86819e-19 0)
(0.00136907 -5.3957e-05 4.97986e-19 -0.00109498 4.4499e-19 0)
(0.00131768 -0.000129332 8.66845e-20 -0.00131524 2.62792e-19 0)
(0.000121668 -7.99623e-05 2.79366e-19 5.89071e-05 -3.89543e-19 -1.00806e-34)
(0.0001501 -8.58522e-06 -2.25218e-19 -0.000303466 -7.1539e-19 0)
(0.000388432 -0.000118338 3.90994e-19 -0.000221401 2.10322e-19 0)
(0.000392634 -1.66337e-05 4.98601e-19 -0.000451921 1.45715e-20 0)
(0.000572932 -0.000142732 8.07933e-19 -0.00044284 1.0785e-18 0)
(0.000570662 -3.39118e-05 1.57089e-18 -0.000554627 1.3587e-18 0)
(0.000711229 -0.000165212 1.69259e-18 -0.000596385 1.29847e-18 0)
(0.000707479 -5.39108e-05 4.45031e-19 -0.000623109 8.57381e-19 0)
(0.000817339 -0.000180101 8.34694e-19 -0.000701558 6.38061e-19 0)
(0.000818845 -7.03994e-05 1.41919e-19 -0.000666306 2.50168e-19 0)
(0.000899866 -0.000183668 8.18772e-19 -0.00077578 6.25528e-19 0)
(0.000917659 -7.7308e-05 1.62817e-19 -0.000693951 2.40893e-19 0)
(0.000966133 -0.000169614 -2.26455e-19 -0.000834396 -6.00074e-19 0)
(0.00102002 -6.2728e-05 -1.78822e-19 -0.000730759 -2.32499e-19 0)
(0.00102448 -0.0001219 -1.30284e-19 -0.000898777 7.88581e-20 0)
(0.00113323 -9.8593e-06 -3.58885e-19 -0.000846233 -1.21546e-19 0)
(0.00105315 -2.17991e-05 -8.15279e-19 -0.00101733 -9.09264e-19 0)
(0.00117229 6.59039e-05 -4.36952e-19 -0.00118705 -7.07755e-19 0)
(0.00088952 8.47949e-05 7.40967e-20 -0.00129322 2.70557e-19 0)
(0.00134894 -0.000113492 5.49849e-19 -0.000936135 4.78521e-19 0)
(7.20866e-05 0.000139685 0 -9.13413e-05 0 0)
(7.38584e-05 0.000161902 0 -0.00041968 0 0)
(0.000319337 2.27355e-05 0 -0.000298631 0 0)
(0.000309219 9.61451e-05 -4.32201e-19 -0.000523077 9.87352e-21 0)
(0.000474336 -6.17601e-05 -4.64401e-19 -0.000478325 1.45346e-20 0)
(0.000473833 3.62229e-05 5.18945e-19 -0.000591482 -1.4742e-19 0)
(0.000588147 -0.000125644 2.42638e-19 -0.000599906 -3.40669e-19 0)
(0.000598715 -1.27507e-05 0 -0.000636341 0 0)
(0.000678562 -0.000168661 -2.69793e-19 -0.000680611 1.45605e-19 0)
(0.000698683 -4.99451e-05 1.02329e-18 -0.000675097 7.32223e-19 0)
(0.000757201 -0.000189782 5.37122e-19 -0.00073865 6.68693e-19 0)
(0.000783094 -7.34649e-05 1.2805e-19 -0.000727872 6.36755e-19 0)
(0.000834311 -0.000178764 2.05018e-19 -0.000791348 -1.07274e-19 0)
(0.000863182 -7.17628e-05 -6.09325e-19 -0.000812816 -6.23768e-19 0)
(0.000910727 -0.000117126 3.5892e-19 -0.000858605 4.5853e-19 0)
(0.000932786 -2.58882e-05 6.84225e-19 -0.000929455 5.61718e-19 0)
(0.00093088 -2.1562e-05 2.63281e-19 -0.000969181 -1.69061e-19 0)
(0.000905612 4.71017e-05 -7.61758e-19 -0.00103273 -5.3641e-19 0)
(0.000734901 -2.71771e-05 -7.87868e-19 -0.001162 -5.48534e-19 0)
(0.00114026 -0.000172802 -3.3898e-19 -0.000617989 -3.18983e-19 0)
(8.61773e-05 0.000316582 8.39575e-20 -0.000291205 -3.7585e-19 -1.61925e-34)
(5.36909e-05 0.000302216 -5.85874e-19 -0.000564176 -5.94174e-19 0)
(0.000289386 0.000140999 -6.94845e-19 -0.000401736 -5.25203e-19 0)
(0.000257942 0.000188225 -6.32509e-19 -0.000612158 -5.697e-19 0)
(0.000400579 8.79023e-06 -6.97981e-19 -0.000520951 -1.27449e-19 0)
(0.000392835 9.24597e-05 3.5613e-19 -0.000643032 -4.11216e-21 0)
(0.00048352 -8.74194e-05 7.24961e-19 -0.000601648 4.95737e-19 0)
(0.000495724 1.92233e-05 -3.29357e-20 -0.00066329 4.90674e-19 0)
(0.000554937 -0.000149623 -7.80979e-19 -0.000657109 -7.88228e-19 0)
(0.000582623 -3.26482e-05 -1.22433e-19 -0.00068475 -6.48483e-19 0)
(0.000622122 -0.000178984 -1.98688e-19 -0.000702604 1.30628e-19 0)
(0.000663682 -6.04492e-05 6.58184e-19 -0.000718391 4.78156e-19 0)
(0.000691045 -0.000169411 4.39493e-19 -0.000749682 3.14244e-19 0)
(0.000744859 -5.32728e-05 1.78028e-20 -0.000770286 3.64148e-19 0)
(0.000756454 -0.000118034 -1.02243e-18 -0.000806034 -8.88235e-19 0)
(0.000800793 -9.21879e-06 -1.18553e-18 -0.000838474 -1.04278e-18 0)
(0.000761232 -6.58836e-05 -9.22965e-20 -0.000884987 8.33904e-20 0)
(0.000736599 1.16726e-05 -2.18894e-19 -0.000936653 -1.48829e-19 0)
(0.000589665 -0.000110907 -3.05082e-19 -0.00103009 -4.06749e-19 0)
(0.000905785 -0.000237178 -1.62907e-19 -0.000564899 7.2487e-20 0)
(0.000150177 0.000435044 0 -0.000518461 0 0)
(8.00063e-05 0.000401231 0 -0.000726393 0 0)
(0.000294442 0.000227546 5.72388e-19 -0.000526603 1.07929e-18 0)
(0.000239358 0.00025528 8.01029e-19 -0.00071027 1.04654e-18 0)
(0.000352596 6.84541e-05 6.25458e-19 -0.000576706 4.41877e-19 0)
(0.000336758 0.000137268 5.71141e-19 -0.000695519 4.73745e-19 0)
(0.000397842 -4.53711e-05 3.23804e-19 -0.000610461 -2.20128e-20 0)
(0.000413889 5.07902e-05 -5.26699e-20 -0.000683435 1.2526e-19 0)
(0.000444425 -0.00011841 -4.61367e-19 -0.000635506 -5.54279e-19 0)
(0.000483186 -8.06633e-06 -8.88724e-19 -0.000681425 -8.32063e-19 0)
(0.000494984 -0.000155495 -9.58633e-19 -0.000661694 -7.75195e-19 0)
(0.000549056 -3.94896e-05 -7.22804e-19 -0.000695739 -5.82716e-19 0)
(0.000552315 -0.000155973 -1.25215e-18 -0.000695171 -7.78343e-19 0)
(0.000612658 -3.82397e-05 -1.90472e-19 -0.000727546 -5.12096e-19 0)
(0.000610649 -0.00012321 7.37052e-19 -0.000739025 9.59831e-19 0)
(0.000654012 -1.1229e-05 1.22257e-18 -0.000777943 1.06657e-18 0)
(0.000618049 -9.11761e-05 9.81878e-19 -0.000806551 6.83235e-19 0)
(0.00059491 -1.07193e-05 9.06496e-19 -0.000869957 7.27092e-19 0)
(0.000449699 -0.000139799 8.73933e-19 -0.000937098 4.93417e-19 0)
(0.000730213 -0.000240848 5.0145e-19 -0.000505951 4.34636e-19 0)
(0.000243369 0.000489796 -5.56269e-20 -0.000752645 3.70343e-19 -1.21768e-34)
(0.000138456 0.000453138 1.77766e-19 -0.000890054 7.03955e-19 0)
(0.000323578 0.000278182 -7.51385e-19 -0.000659277 -8.88627e-19 0)
(0.000245373 0.000294614 -7.0259e-19 -0.000808391 -7.8156e-19 0)
(0.000325459 0.0001134 -7.68502e-19 -0.00063852 -3.35317e-19 0)
(0.000300561 0.00016878 -2.80947e-19 -0.00074749 -2.99468e-19 0)
(0.000330569 -3.99463e-06 -6.09967e-19 -0.000623934 -6.25576e-19 0)
(0.000347795 7.82265e-05 -3.33251e-19 -0.000703822 -6.7185e-19 0)
(0.000350171 -8.03615e-05 2.87612e-19 -0.000617016 3.50506e-19 0)
(0.000395365 1.6881e-05 2.69552e-19 -0.000679154 3.55213e-19 0)
(0.000382572 -0.000122984 7.00096e-19 -0.000621791 5.29573e-19 0)
(0.000443788 -1.8144e-05 4.94637e-19 -0.00067515 3.39107e-19 0)
(0.000428627 -0.0001337 6.49103e-19 -0.000640374 2.03163e-19 0)
(0.000493096 -2.57146e-05 -1.77791e-19 -0.000692056 -9.27851e-20 0)
(0.000482852 -0.000115802 9.71765e-20 -0.000674583 2.07185e-19 0)
(0.00052619 -1.32406e-05 4.84323e-19 -0.000733044 3.39509e-19 0)
(0.00049103 -9.63513e-05 3.40441e-19 -0.000734723 2.27396e-19 0)
(0.000467644 -2.06337e-05 9.28745e-20 -0.000815293 2.16289e-19 0)
(0.000319994 -0.000141011 1.79153e-19 -0.000850491 1.11506e-19 0)
(0.000563392 -0.000216595 -2.28075e-19 -0.000449119 7.87086e-21 0)
(0.000346054 0.000481582 5.02262e-20 -0.000970419 -2.68587e-19 -7.21823e-35)
(0.000213842 0.000456765 -4.82189e-20 -0.00103916 -3.41486e-19 0)
(0.00036547 0.000291438 1.54401e-19 -0.000786256 1.1564e-19 0)
(0.000266287 0.000304483 -2.21004e-21 -0.000898875 1.24889e-19 0)
(0.000314563 0.000140268 -2.47959e-19 -0.000699788 -2.25618e-19 0)
(0.000279623 0.00018417 -3.66373e-19 -0.000796537 -4.65507e-19 0)
(0.000282377 3.17198e-05 4.14979e-19 -0.000640838 4.15113e-19 0)
(0.0002975 9.76028e-05 3.91895e-19 -0.000725076 3.21723e-19 0)
(0.000277111 -4.10507e-05 -4.76919e-20 -0.000604994 -3.14892e-19 0)
(0.000323825 3.77355e-05 -4.19115e-19 -0.000680751 -2.12997e-19 0)
(0.000292651 -8.56942e-05 -8.97731e-19 -0.000590703 -5.20297e-19 0)
(0.000355752 4.34706e-07 -3.15767e-19 -0.000661352 -4.82185e-19 0)
(0.000327482 -0.000104165 5.83434e-19 -0.000596524 7.03514e-19 0)
(0.000392521 -1.42233e-05 5.80088e-19 -0.000665793 6.60406e-19 0)
(0.000374839 -9.85188e-05 -3.04489e-19 -0.000621933 -5.12878e-19 0)
(0.000417806 -1.12955e-05 -6.36573e-19 -0.000695908 -5.45419e-19 0)
(0.000378624 -8.91525e-05 -1.04124e-19 -0.000672116 1.65616e-19 0)
(0.000356197 -2.08295e-05 3.02945e-19 -0.000762361 1.54611e-19 0)
(0.000205122 -0.000126877 3.48756e-19 -0.000765935 1.31308e-19 0)
(0.000412717 -0.000177789 4.49017e-20 -0.00039636 5.37328e-21 0)
(0.000442221 0.000417989 4.73799e-20 -0.00115076 -5.53017e-19 -3.03722e-34)
(0.000291651 0.000415274 -4.05755e-19 -0.00116186 -8.60708e-19 0)
(0.000410492 0.000268701 -2.43339e-19 -0.000896187 -2.15739e-19 0)
(0.000294485 0.000284708 -8.30379e-20 -0.000973592 -3.49305e-19 0)
(0.000314499 0.000147051 -9.79501e-21 -0.000757003 -1.07899e-19 0)
(0.000270583 0.000181238 -2.0137e-19 -0.000837774 -5.13715e-21 0)
(0.000250571 5.79594e-05 -6.54969e-19 -0.000663243 -5.0394e-19 0)
(0.000262926 0.000105721 -5.81763e-19 -0.000745006 -6.29492e-19 0)
(0.000224314 -5.14556e-06 -1.19261e-20 -0.000604928 8.60925e-20 0)
(0.000270857 5.12098e-05 0 -0.0006866 0 0)
(0.00022543 -4.83739e-05 3.29067e-19 -0.000574836 2.90211e-19 0)
(0.000287953 1.38646e-05 1.96481e-19 -0.000656007 1.71062e-19 0)
(0.000249662 -7.23153e-05 9.7078e-20 -0.000568107 7.80244e-20 0)
(0.00031202 -5.5268e-06 3.24226e-19 -0.000649299 1.74659e-19 0)
(0.000288071 -7.73037e-05 7.05412e-19 -0.000581652 4.11839e-19 0)
(0.00032652 -8.83015e-06 5.27712e-19 -0.000665078 3.98276e-19 0)
(0.000284143 -7.66645e-05 4.65273e-19 -0.000615251 2.92907e-19 0)
(0.00025914 -1.66833e-05 5.46026e-19 -0.000708051 4.14409e-19 0)
(0.000110733 -0.000105019 4.05799e-19 -0.000678513 1.67765e-19 0)
(0.000284589 -0.000131172 2.64228e-19 -0.000344506 2.2803e-19 0)
(0.000519981 0.000310671 -2.18873e-20 -0.00128056 6.07103e-19 -2.25929e-34)
(0.000357484 0.000335293 1.91578e-19 -0.00125876 6.28236e-19 0)
(0.00044682 0.000212895 3.19711e-19 -0.000981749 6.08249e-19 0)
(0.000322291 0.000236106 2.38706e-19 -0.00102757 4.90034e-19 0)
(0.000316462 0.000132934 1.62346e-19 -0.000808088 2.61861e-20 0)
(0.00026815 0.000157867 1.81627e-19 -0.000867598 1.92832e-19 0)
(0.00022935 7.17901e-05 1.38983e-19 -0.000692342 1.50705e-19 0)
(0.000241227 9.86734e-05 7.16084e-20 -0.000761743 2.10511e-19 0)
(0.000187077 2.34091e-05 -3.83335e-19 -0.000618834 -3.96736e-19 0)
(0.000234786 5.27498e-05 -2.67271e-19 -0.00069509 -3.11704e-19 0)
(0.000176122 -1.47388e-05 -4.23951e-19 -0.000575385 -2.3802e-19 0)
(0.000238358 1.78139e-05 -1.39657e-19 -0.000658178 -1.4552e-19 0)
(0.000190842 -4.14371e-05 -3.24322e-20 -0.000554372 1.13552e-19 0)
(0.000247806 -4.13277e-06 2.22842e-19 -0.000644047 1.96892e-19 0)
(0.000220532 -5.54248e-05 -1.47256e-19 -0.000549627 -2.1211e-19 0)
(0.000246623 -1.15376e-05 -1.54838e-19 -0.000645058 -1.39811e-19 0)
(0.000209987 -6.28025e-05 -3.51023e-19 -0.000555175 -2.17742e-19 0)
(0.000171263 -1.52573e-05 -1.81667e-19 -0.000656179 -1.02195e-19 0)
(4.62154e-05 -8.1743e-05 -4.28061e-21 -0.00057295 2.01247e-19 0)
(0.000173472 -8.67911e-05 -2.87892e-20 -0.000298242 -1.91622e-20 0)
(0.000568655 0.000169982 1.33891e-20 -0.00135879 -1.54939e-19 2.83261e-36)
(0.000416281 0.000234376 0 -0.00131572 0 0)
(0.000464914 0.000131521 -1.44923e-19 -0.00103512 -4.67466e-19 0)
(0.000342891 0.000166856 -7.77921e-20 -0.00107786 -4.97226e-19 0)
(0.000324075 0.000101211 5.75811e-20 -0.000842268 9.83604e-20 0)
(0.000268789 0.000109328 -8.53491e-21 -0.000904687 1.03463e-20 0)
(0.000226332 7.13734e-05 1.53862e-19 -0.00071717 2.31272e-19 0)
(0.0002263 6.30695e-05 1.71193e-19 -0.000785803 3.35532e-19 0)
(0.000169741 4.13923e-05 1.95181e-19 -0.000637752 2.84681e-19 0)
(0.000204154 2.68273e-05 8.66659e-20 -0.00070621 1.38354e-19 0)
(0.000144802 1.36588e-05 9.76764e-20 -0.000586776 7.13467e-20 0)
(0.000193837 1.36931e-07 5.29684e-20 -0.000656295 8.30316e-20 0)
(0.000147782 -1.02313e-05 -2.41716e-19 -0.000552849 -2.8625e-19 0)
(0.000190666 -1.5249e-05 -1.96169e-19 -0.00062876 -2.65353e-19 0)
(0.000166518 -2.9351e-05 1.30351e-21 -0.000524918 2.83891e-20 0)
(0.000175445 -1.72709e-05 -2.37446e-22 -0.000613962 2.34084e-20 0)
(0.000149985 -4.47951e-05 -4.92352e-20 -0.00048996 -4.70327e-20 0)
(9.15785e-05 -1.14493e-05 -4.45471e-20 -0.000600643 -9.44704e-20 0)
(1.07378e-05 -5.97197e-05 -2.08372e-19 -0.000443734 -1.80185e-19 0)
(5.2803e-05 -4.96006e-05 1.6616e-20 -0.000303794 1.45497e-20 0)
(0.000607584 7.41687e-06 -1.60734e-22 -0.00135601 -9.32174e-23 -2.54438e-40)
(0.000447393 0.000117182 -1.12046e-19 -0.00135041 2.38358e-19 0)
(0.000550037 4.74586e-05 -6.65801e-20 -0.00100031 2.71375e-19 0)
(0.000324006 7.33593e-05 8.13899e-20 -0.00114052 1.36391e-19 0)
(0.000389341 5.53444e-05 3.77721e-20 -0.000824886 -1.55599e-19 0)
(0.000236027 3.46357e-05 1.91688e-20 -0.000952095 -1.56687e-19 0)
(0.000265498 5.13024e-05 -5.38251e-20 -0.000718084 -2.51645e-19 0)
(0.000185817 6.25898e-06 -9.33494e-20 -0.00080957 -3.11864e-19 0)
(0.000184025 4.3401e-05 -1.45399e-20 -0.000649348 -6.22725e-20 0)
(0.000154772 -1.40768e-05 -3.93892e-22 -0.000714621 -1.30377e-19 0)
(0.000137598 3.34038e-05 -6.55197e-20 -0.000601997 -2.0897e-19 0)
(0.000132988 -2.9351e-05 -6.46059e-20 -0.000659625 -2.2703e-19 0)
(0.000123281 1.93183e-05 -2.46861e-20 -0.000563089 -5.89971e-20 0)
(0.000115929 -3.79214e-05 -3.07349e-20 -0.000627764 -2.31414e-19 0)
(0.000129375 5.55819e-07 -8.94998e-20 -0.000516116 -2.20993e-19 0)
(9.02553e-05 -3.2075e-05 -6.40004e-20 -0.000589511 -3.08934e-19 0)
(0.000106282 -1.77234e-05 -9.70595e-20 -0.000440464 -1.85766e-19 0)
(2.06439e-05 -3.52625e-06 -7.66756e-20 -0.000508073 -2.6004e-19 0)
(-1.73176e-05 -2.53256e-05 -8.42183e-20 -0.000323563 -1.07617e-19 0)
(-4.10063e-05 7.01717e-06 -2.973e-20 -0.00026273 -8.09807e-20 0)
(-8.42077e-05 -1.06166e-05 -1.69812e-20 0.000150933 7.36338e-21 0)
(-4.45586e-05 -7.78074e-05 -1.56788e-20 0.000144356 1.18989e-20 0)
(-1.16708e-06 -0.00010474 4.56282e-20 0.00014048 -1.59536e-20 0)
(2.84488e-05 -0.000150966 -2.43339e-21 0.000162631 -7.22444e-21 0)
(5.49339e-05 -0.000195526 1.79525e-20 8.00743e-05 -3.66494e-20 0)
(0.00013711 -0.000228635 3.36383e-20 0.000159072 -3.51388e-20 0)
(0.00018091 -0.000297469 -1.97246e-20 2.73792e-05 -6.25085e-21 0)
(0.000257676 -0.000318676 1.06949e-19 0.000124545 -2.50498e-20 0)
(0.000352084 -0.00039159 -4.42196e-20 -4.18038e-05 2.39941e-21 0)
(0.000389707 -0.000412853 -2.1257e-19 6.23371e-05 1.29443e-20 0)
(0.000547224 -0.000464585 1.83567e-19 -0.000133259 -6.22305e-20 0)
(0.000542713 -0.000497541 1.52216e-19 -1.80112e-05 -1.19023e-19 0)
(0.000756689 -0.000508317 1.09512e-19 -0.000242353 -6.46438e-20 0)
(0.000725398 -0.000565834 6.98177e-20 -0.000106132 -1.26487e-19 0)
(0.000971847 -0.000514195 7.1872e-20 -0.000357163 2.91698e-20 0)
(0.000924723 -0.000606216 1.5788e-19 -0.00019447 -4.22099e-20 0)
(0.00118093 -0.000476509 -1.64626e-19 -0.00044405 5.69459e-20 0)
(0.00100823 -0.00054772 -6.42442e-20 -0.000361872 1.1104e-19 0)
(0.0013582 -0.000407947 3.19003e-19 -0.000468308 -6.85324e-21 0)
(0.00118972 -0.000462626 1.78037e-19 -0.00070379 -1.5194e-19 0)
(-0.000195229 -9.22998e-06 -1.08147e-20 9.52208e-05 2.19367e-20 0)
(-7.51929e-05 -7.01727e-05 -4.23975e-20 0.000109411 2.46055e-20 0)
(-0.000103458 -0.000115904 1.08437e-20 0.000122765 -1.17076e-20 0)
(-7.67592e-06 -0.000157368 -1.05577e-20 8.00855e-05 -1.72138e-21 0)
(-2.47611e-05 -0.000217978 5.16415e-20 8.71317e-05 -1.01123e-20 0)
(8.3408e-05 -0.000242952 -8.61876e-21 3.80813e-05 -1.46588e-20 0)
(8.39539e-05 -0.000322862 -3.72877e-20 3.93193e-05 4.53693e-21 0)
(0.000191006 -0.000324459 0 -2.11241e-05 0 0)
(0.000230973 -0.000423468 6.81469e-20 -1.55489e-05 5.56664e-21 0)
(0.000309464 -0.000398534 7.48025e-20 -0.00010114 -1.62513e-21 0)
(0.000405258 -0.000508118 -1.68258e-19 -8.35879e-05 -1.41711e-20 0)
(0.000434308 -0.000456553 -9.13787e-20 -0.000199877 1.91421e-20 0)
(0.000593123 -0.000569981 1.73994e-19 -0.000165494 3.03675e-20 0)
(0.000550467 -0.000486066 -2.42623e-20 -0.000323209 -3.71929e-21 0)
(0.000789391 -0.000607105 -1.02879e-19 -0.000255086 -2.74104e-20 0)
(0.000654942 -0.000485188 -1.57811e-19 -0.000463313 -9.32435e-20 0)
(0.000999897 -0.000619364 -1.1667e-19 -0.00034428 -4.0105e-20 0)
(0.000834142 -0.000487577 1.06662e-19 -0.000535548 6.61709e-20 0)
(0.00114858 -0.0006056 2.12669e-19 -0.00047148 1.02612e-19 0)
(0.00103496 -0.000426896 1.58342e-19 -0.00062691 1.08866e-19 0)
(-8.37924e-05 -2.40515e-05 1.67245e-21 6.13158e-06 2.43764e-21 0)
(2.32678e-05 -5.41906e-05 -8.58361e-21 3.24811e-05 6.98177e-21 0)
(-9.22581e-06 -0.000110509 -1.11071e-20 1.10759e-05 -1.48992e-21 0)
(9.46163e-05 -0.000136601 2.67471e-20 -1.05419e-05 1.03956e-20 0)
(7.98481e-05 -0.000197608 8.0561e-21 -2.36396e-05 -6.9135e-21 0)
(0.000180323 -0.000213062 -4.1088e-20 -6.93706e-05 -2.55905e-21 0)
(0.000188251 -0.000277689 -2.86789e-21 -7.3786e-05 1.13821e-20 0)
(0.000278827 -0.000276894 7.31478e-20 -0.000135315 1.5161e-20 0)
(0.000314429 -0.0003459 0 -0.000129385 0 0)