/*--------------------------------*- C++ -*----------------------------------*\
| =========                 |                                                 |
| \\      /  F ield         | OpenFOAM: The Open Source CFD Toolbox           |
|  \\    /   O peration     | Version:  v2012                                 |
|   \\  /    A nd           | Website:  www.openfoam.com                      |
|    \\/     M anipulation  |                                                 |
\*---------------------------------------------------------------------------*/
FoamFile
{
    version     2.0;
    format      ascii;
    class       pointVectorField;
    location    "11";
    object      pointD;
}
// * * * * * * * * * * * * * * * * * * * * * * * * * * * * * * * * * * * * * //

dimensions      [0 1 0 0 0 0 0];


internalField   nonuniform List<vector> 
572
(
(0.00350982 0 0)
(0.00486009 0 0)
(0.00447536 -0.000403066 0)
(0 -0.00259401 0)
(0 -0.00120996 0)
(0.00360312 0 0)
(0 -0.00239051 0)
(0.00229675 -0.000667193 0)
(0.00112879 -0.00131921 0)
(0.00467967 -0.00011902 0)
(0.00269831 -0.0010467 0)
(0.00269831 -0.0010467 0)
(0.00229675 -0.000667193 0)
(0 -0.00239051 0)
(0 -0.00120996 0)
(0.00350982 0 0)
(0.00360312 0 0)
(0.00486009 0 0)
(0.00467967 -0.00011902 0)
(0.00447536 -0.000403066 0)
(0.00112879 -0.00131921 0)
(0 -0.00259401 0)
(0.000446051 -0.00220503 0)
(0.000895426 -0.00182774 0)
(0.00135996 -0.00141095 0)
(0.00183025 -0.00101835 0)
(0.00270257 -0.000453268 0)
(0.00306733 -0.000281425 0)
(0.00335808 -0.000156195 0)
(0.00354546 -6.96822e-05 0)
(0.0035377 0 0)
(0.00355568 0 0)
(0.00357032 0 0)
(0.00358536 0 0)
(0.00367161 0 0)
(0.00374432 0 0)
(0.00383279 0 0)
(0.00393942 0 0)
(0.00406351 0 0)
(0.00420314 0 0)
(0.00435579 0 0)
(0.00451854 0 0)
(0.00468797 0 0)
(0.00484739 -9.87434e-06 0)
(0.00482205 -2.42977e-05 0)
(0.00478353 -4.58373e-05 0)
(0.00473475 -7.69413e-05 0)
(0.00465591 -0.000140848 0)
(0.00463201 -0.000164709 0)
(0.00460851 -0.000190481 0)
(0.00458582 -0.000217984 0)
(0.00456424 -0.000246984 0)
(0.00454399 -0.000277193 0)
(0.00452513 -0.000308281 0)
(0.00450762 -0.00033988 0)
(0.0044912 -0.000371602 0)
(0.00424566 -0.000452709 0)
(0.0040111 -0.000488592 0)
(0.00376097 -0.000512182 0)
(0.00348669 -0.000530861 0)
(0.00318153 -0.00055538 0)
(0.00284036 -0.000599213 0)
(0.00246009 -0.000678564 0)
(0.00204129 -0.000812146 0)
(0.00159112 -0.00101982 0)
(0.00080247 -0.00159809 0)
(0.000511912 -0.00190903 0)
(0.000275206 -0.00221933 0)
(0.000106655 -0.00247362 0)
(0 -0.00257803 0)
(0 -0.00256006 0)
(0 -0.00254094 0)
(0 -0.00252124 0)
(0 -0.00250126 0)
(0 -0.0024811 0)
(0 -0.00246064 0)
(0 -0.00243954 0)
(0 -0.00241739 0)
(0 -0.00230616 0)
(0 -0.00217079 0)
(0 -0.00195247 0)
(0 -0.00163272 0)
(0.00258601 -0.000454156 0)
(0.0028522 -0.000310606 0)
(0.00310242 -0.000229423 0)
(0.00334124 -0.000193138 0)
(0.00357272 -0.000184432 0)
(0.00379985 -0.000188722 0)
(0.00402418 -0.000194205 0)
(0.00424597 -0.000190942 0)
(0.00446463 -0.000169479 0)
(0.002148 -0.000736873 0)
(0.00201006 -0.000806926 0)
(0.00188185 -0.00087633 0)
(0.00176224 -0.0009444 0)
(0.00164985 -0.00101067 0)
(0.00154292 -0.0010749 0)
(0.0014394 -0.00113715 0)
(0.0013371 -0.0011979 0)
(0.001234 -0.00125806 0)
(0.000833565 -0.00138189 0)
(0.00152919 -0.00152382 0)
(0.00201858 -0.00150364 0)
(0.00237594 -0.00128044 0)
(0.00296622 -0.00082522 0)
(0.00318427 -0.000613051 0)
(0.00334827 -0.00040673 0)
(0.00345441 -0.000203875 0)
(0.00255937 -0.000921962 0)
(0.00245914 -0.000833153 0)
(0.0023868 -0.000766852 0)
(0.00233488 -0.000714105 0)
(0.00255937 -0.000921962 0)
(0.00245914 -0.000833153 0)
(0.0023868 -0.000766852 0)
(0.00233488 -0.000714105 0)
(0.00183025 -0.00101835 0)
(0.00135996 -0.00141095 0)
(0.000895426 -0.00182774 0)
(0.000446051 -0.00220503 0)
(0 -0.00230616 0)
(0 -0.00217079 0)
(0 -0.00195247 0)
(0 -0.00163272 0)
(0.000833565 -0.00138189 0)
(0.00152919 -0.00152382 0)
(0.00201858 -0.00150364 0)
(0.00237594 -0.00128044 0)
(0.00296622 -0.00082522 0)
(0.00318427 -0.000613051 0)
(0.00334827 -0.00040673 0)
(0.00345441 -0.000203875 0)
(0.0035377 0 0)
(0.00355568 0 0)
(0.00357032 0 0)
(0.00358536 0 0)
(0.00354546 -6.96822e-05 0)
(0.00335808 -0.000156195 0)
(0.00306733 -0.000281425 0)
(0.00270257 -0.000453268 0)
(0.00367161 0 0)
(0.00374432 0 0)
(0.00383279 0 0)
(0.00393942 0 0)
(0.00406351 0 0)
(0.00420314 0 0)
(0.00435579 0 0)
(0.00451854 0 0)
(0.00468797 0 0)
(0.00484739 -9.87434e-06 0)
(0.00482205 -2.42977e-05 0)
(0.00478353 -4.58373e-05 0)
(0.00473475 -7.69413e-05 0)
(0.00446463 -0.000169479 0)
(0.00424597 -0.000190942 0)
(0.00402418 -0.000194205 0)
(0.00379985 -0.000188722 0)
(0.00357272 -0.000184432 0)
(0.00334124 -0.000193138 0)
(0.00310242 -0.000229423 0)
(0.0028522 -0.000310606 0)
(0.00258601 -0.000454156 0)
(0.00465591 -0.000140848 0)
(0.00463201 -0.000164709 0)
(0.00460851 -0.000190481 0)
(0.00458582 -0.000217984 0)
(0.00456424 -0.000246984 0)
(0.00454399 -0.000277193 0)
(0.00452513 -0.000308281 0)
(0.00450762 -0.00033988 0)
(0.0044912 -0.000371602 0)
(0.00424566 -0.000452709 0)
(0.0040111 -0.000488592 0)
(0.00376097 -0.000512182 0)
(0.00348669 -0.000530861 0)
(0.00318153 -0.00055538 0)
(0.00284036 -0.000599213 0)
(0.00246009 -0.000678564 0)
(0.00204129 -0.000812146 0)
(0.00159112 -0.00101982 0)
(0.001234 -0.00125806 0)
(0.0013371 -0.0011979 0)
(0.0014394 -0.00113715 0)
(0.00154292 -0.0010749 0)
(0.00164985 -0.00101067 0)
(0.00176224 -0.0009444 0)
(0.00188185 -0.00087633 0)
(0.00201006 -0.000806926 0)
(0.002148 -0.000736873 0)
(0.00080247 -0.00159809 0)
(0.000511912 -0.00190903 0)
(0.000275206 -0.00221933 0)
(0.000106655 -0.00247362 0)
(0 -0.00257803 0)
(0 -0.00256006 0)
(0 -0.00254094 0)
(0 -0.00252124 0)
(0 -0.00250126 0)
(0 -0.0024811 0)
(0 -0.00246064 0)
(0 -0.00243954 0)
(0 -0.00241739 0)
(0.000784026 -0.00172634 0)
(0.000697767 -0.00194785 0)
(0.000596304 -0.00207469 0)
(0.000510246 -0.0021524 0)
(0.00138923 -0.00169546 0)
(0.0012241 -0.00175005 0)
(0.00108417 -0.00177948 0)
(0.000976463 -0.00180483 0)
(0.00181029 -0.00146739 0)
(0.00165056 -0.00144088 0)
(0.00152777 -0.00142507 0)
(0.00143315 -0.00141616 0)
(0.00219591 -0.00118965 0)
(0.00206299 -0.00112607 0)
(0.00196341 -0.00108037 0)
(0.00188804 -0.00104604 0)
(0.00287555 -0.000689188 0)
(0.00280855 -0.000594182 0)
(0.00275966 -0.000526979 0)
(0.00272501 -0.000480422 0)
(0.00314319 -0.000486253 0)
(0.00311128 -0.000399928 0)
(0.00308825 -0.000341642 0)
(0.00307367 -0.000303995 0)
(0.00335018 -0.000307593 0)
(0.0033488 -0.000241756 0)
(0.00334819 -0.000198907 0)
(0.00335086 -0.000171925 0)
(0.00348529 -0.000145753 0)
(0.00350274 -0.000110957 0)
(0.00351584 -8.90555e-05 0)
(0.00352925 -7.58626e-05 0)
(0.00361723 -3.23202e-05 0)
(0.00346579 -8.327e-05 0)
(0.00322934 -0.000166926 0)
(0.00292779 -0.000290742 0)
(0.00370058 -1.92367e-05 0)
(0.00357995 -5.20396e-05 0)
(0.00338909 -0.000108064 0)
(0.00314079 -0.000193717 0)
(0.00379851 -1.71404e-05 0)
(0.00370197 -4.3142e-05 0)
(0.00354758 -8.44051e-05 0)
(0.0033439 -0.000145787 0)
(0.00391238 -1.99179e-05 0)
(0.0038342 -4.54828e-05 0)
(0.0037084 -8.08589e-05 0)
(0.00354136 -0.00012945 0)
(0.00404191 -2.4342e-05 0)
(0.00397783 -5.24238e-05 0)
(0.0038745 -8.70426e-05 0)
(0.00373728 -0.000130558 0)
(0.00418573 -2.84723e-05 0)
(0.00413271 -5.96825e-05 0)
(0.00404727 -9.57185e-05 0)
(0.00393435 -0.000138349 0)
(0.0043417 -3.09152e-05 0)
(0.00429756 -6.41041e-05 0)
(0.0042266 -0.000101433 0)
(0.00413359 -0.000144468 0)
(0.004507 -3.03663e-05 0)
(0.00447004 -6.27453e-05 0)
(0.00441101 -9.92904e-05 0)
(0.00433453 -0.000141726 0)
(0.00467781 -2.50301e-05 0)
(0.00464651 -5.16445e-05 0)
(0.00459785 -8.35855e-05 0)
(0.0045356 -0.000122592 0)
(0.00246926 -0.000505146 0)
(0.00235455 -0.00055889 0)
(0.0022438 -0.000614402 0)
(0.00213776 -0.00067089 0)
(0.00203656 -0.000727797 0)
(0.00193992 -0.000784842 0)
(0.00184742 -0.000842049 0)
(0.00175862 -0.000899773 0)
(0.00167321 -0.000958709 0)
(0.0027566 -0.000352636 0)
(0.00266195 -0.000397006 0)
(0.00256942 -0.000443398 0)
(0.00247993 -0.000491487 0)
(0.00239421 -0.000541025 0)
(0.00231279 -0.000591893 0)
(0.00223618 -0.000644133 0)
(0.00216491 -0.000697962 0)
(0.00209964 -0.000753776 0)
(0.00302392 -0.000265278 0)
(0.00294621 -0.000303359 0)
(0.00287019 -0.00034355 0)
(0.00279675 -0.000385726 0)
(0.00272676 -0.000429784 0)
(0.00266109 -0.000475668 0)
(0.0026006 -0.000523383 0)
(0.00254623 -0.000573005 0)
(0.002499 -0.000624671 0)
(0.00327728 -0.000224753 0)
(0.00321403 -0.000258544 0)
(0.00315233 -0.000294443 0)
(0.00309303 -0.000332379 0)
(0.00303704 -0.000372277 0)
(0.00298526 -0.000414074 0)
(0.00293866 -0.000457712 0)
(0.00289824 -0.000503145 0)
(0.00286509 -0.000550329 0)
(0.00352081 -0.000213304 0)
(0.00346951 -0.000244211 0)
(0.00341961 -0.000277102 0)
(0.00337194 -0.000311911 0)
(0.00332731 -0.000348559 0)
(0.0032866 -0.000386952 0)
(0.00325071 -0.000426978 0)
(0.00322056 -0.000468503 0)
(0.00319715 -0.000511368 0)
(0.00375738 -0.000215799 0)
(0.00371544 -0.000244692 0)
(0.00367472 -0.000275362 0)
(0.00363596 -0.000307746 0)
(0.00359988 -0.000341756 0)
(0.00356723 -0.000377277 0)
(0.00353878 -0.000414159 0)
(0.00351531 -0.000452213 0)
(0.00349766 -0.000491208 0)
(0.00398868 -0.000219872 0)
(0.00395362 -0.000247133 0)
(0.0039196 -0.000275962 0)
(0.00388724 -0.000306301 0)
(0.00385713 -0.000338063 0)
(0.00382986 -0.000371122 0)
(0.00380602 -0.000405311 0)
(0.00378619 -0.000440413 0)
(0.00377096 -0.000476151 0)
(0.00421532 -0.000215163 0)
(0.00418505 -0.000240855 0)
(0.00415568 -0.000267994 0)
(0.00412768 -0.000296518 0)
(0.00410151 -0.000326335 0)
(0.00407758 -0.000357317 0)
(0.00405626 -0.000389292 0)
(0.0040379 -0.000422038 0)
(0.00402276 -0.000455265 0)
(0.00443739 -0.000192159 0)
(0.00441053 -0.000216451 0)
(0.0043844 -0.000242247 0)
(0.00435936 -0.000269442 0)
(0.00433578 -0.000297911 0)
(0.00431394 -0.000327505 0)
(0.00429402 -0.000358036 0)
(0.00427609 -0.00038928 0)
(0.00426007 -0.000420956 0)
(0.000401422 -0.00223978 0)
(0.000364434 -0.00227265 0)
(0.000331278 -0.00230329 0)
(0.000301608 -0.0023326 0)
(0.00027378 -0.00236058 0)
(0.00024628 -0.00238718 0)
(0.000217624 -0.00241224 0)
(0.000186201 -0.0024354 0)
(0.000150071 -0.00245613 0)
(0.000820596 -0.00187568 0)
(0.00075368 -0.00192242 0)
(0.000692621 -0.00196723 0)
(0.00063563 -0.00200987 0)
(0.00058142 -0.00205048 0)
(0.000527924 -0.00208891 0)
(0.000472975 -0.00212505 0)
(0.000414254 -0.00215882 0)
(0.000349238 -0.00219022 0)
(0.00125975 -0.00146765 0)
(0.00116731 -0.00152386 0)
(0.00108158 -0.00157897 0)
(0.00100122 -0.00163249 0)
(0.000924451 -0.00168402 0)
(0.000849186 -0.00173327 0)
(0.000773066 -0.00178018 0)
(0.000693464 -0.00182485 0)
(0.00060748 -0.0018676 0)
(0.00170581 -0.00108078 0)
(0.00159041 -0.00114371 0)
(0.00148299 -0.00120625 0)
(0.00138225 -0.00126765 0)
(0.00128653 -0.00132733 0)
(0.00119384 -0.00138492 0)
(0.00110186 -0.00144034 0)
(0.00100798 -0.00149382 0)
(0.000909289 -0.00154602 0)
(0.000784026 -0.00172634 0)
(0.000697767 -0.00194785 0)
(0.000596304 -0.00207469 0)
(0.000510246 -0.0021524 0)
(0.00138923 -0.00169546 0)
(0.0012241 -0.00175005 0)
(0.00108417 -0.00177948 0)
(0.000976463 -0.00180483 0)
(0.00181029 -0.00146739 0)
(0.00165056 -0.00144088 0)
(0.00152777 -0.00142507 0)
(0.00143315 -0.00141616 0)
(0.00219591 -0.00118965 0)
(0.00206299 -0.00112607 0)
(0.00196341 -0.00108037 0)
(0.00188804 -0.00104604 0)
(0.00287555 -0.000689188 0)
(0.00280855 -0.000594182 0)
(0.00275966 -0.000526979 0)
(0.00272501 -0.000480422 0)
(0.00314319 -0.000486253 0)
(0.00311128 -0.000399928 0)
(0.00308825 -0.000341642 0)
(0.00307367 -0.000303995 0)
(0.00335018 -0.000307593 0)
(0.0033488 -0.000241756 0)
(0.00334819 -0.000198907 0)
(0.00335086 -0.000171925 0)
(0.00348529 -0.000145753 0)
(0.00350274 -0.000110957 0)
(0.00351584 -8.90555e-05 0)
(0.00352925 -7.58626e-05 0)
(0.00361723 -3.23202e-05 0)
(0.00346579 -8.327e-05 0)
(0.00322934 -0.000166926 0)
(0.00292779 -0.000290742 0)
(0.00370058 -1.92367e-05 0)
(0.00357995 -5.20396e-05 0)
(0.00338909 -0.000108064 0)
(0.00314079 -0.000193717 0)
(0.00379851 -1.71404e-05 0)
(0.00370197 -4.3142e-05 0)
(0.00354758 -8.44051e-05 0)
(0.0033439 -0.000145787 0)
(0.00391238 -1.99179e-05 0)
(0.0038342 -4.54828e-05 0)
(0.0037084 -8.08589e-05 0)
(0.00354136 -0.00012945 0)
(0.00404191 -2.4342e-05 0)
(0.00397783 -5.24238e-05 0)
(0.0038745 -8.70426e-05 0)
(0.00373728 -0.000130558 0)
(0.00418573 -2.84723e-05 0)
(0.00413271 -5.96825e-05 0)
(0.00404727 -9.57185e-05 0)
(0.00393435 -0.000138349 0)
(0.0043417 -3.09152e-05 0)
(0.00429756 -6.41041e-05 0)
(0.0042266 -0.000101433 0)
(0.00413359 -0.000144468 0)
(0.004507 -3.03663e-05 0)
(0.00447004 -6.27453e-05 0)
(0.00441101 -9.92904e-05 0)
(0.00433453 -0.000141726 0)
(0.00467781 -2.50301e-05 0)
(0.00464651 -5.16445e-05 0)
(0.00459785 -8.35855e-05 0)
(0.0045356 -0.000122592 0)
(0.00246926 -0.000505146 0)
(0.00235455 -0.00055889 0)
(0.0022438 -0.000614402 0)
(0.00213776 -0.00067089 0)
(0.00203656 -0.000727797 0)
(0.00193992 -0.000784842 0)
(0.00184742 -0.000842049 0)
(0.00175862 -0.000899773 0)
(0.00167321 -0.000958709 0)
(0.0027566 -0.000352636 0)
(0.00266195 -0.000397006 0)
(0.00256942 -0.000443398 0)
(0.00247993 -0.000491487 0)
(0.00239421 -0.000541025 0)
(0.00231279 -0.000591893 0)
(0.00223618 -0.000644133 0)
(0.00216491 -0.000697962 0)
(0.00209964 -0.000753776 0)
(0.00302392 -0.000265278 0)
(0.00294621 -0.000303359 0)
(0.00287019 -0.00034355 0)
(0.00279675 -0.000385726 0)
(0.00272676 -0.000429784 0)
(0.00266109 -0.000475668 0)
(0.0026006 -0.000523383 0)
(0.00254623 -0.000573005 0)
(0.002499 -0.000624671 0)
(0.00327728 -0.000224753 0)
(0.00321403 -0.000258544 0)
(0.00315233 -0.000294443 0)
(0.00309303 -0.000332379 0)
(0.00303704 -0.000372277 0)
(0.00298526 -0.000414074 0)
(0.00293866 -0.000457712 0)
(0.00289824 -0.000503145 0)
(0.00286509 -0.000550329 0)
(0.00352081 -0.000213304 0)
(0.00346951 -0.000244211 0)
(0.00341961 -0.000277102 0)
(0.00337194 -0.000311911 0)
(0.00332731 -0.000348559 0)
(0.0032866 -0.000386952 0)
(0.00325071 -0.000426978 0)
(0.00322056 -0.000468503 0)
(0.00319715 -0.000511368 0)
(0.00375738 -0.000215799 0)
(0.00371544 -0.000244692 0)
(0.00367472 -0.000275362 0)
(0.00363596 -0.000307746 0)
(0.00359988 -0.000341756 0)
(0.00356723 -0.000377277 0)
(0.00353878 -0.000414159 0)
(0.00351531 -0.000452213 0)
(0.00349766 -0.000491208 0)
(0.00398868 -0.000219872 0)
(0.00395362 -0.000247133 0)
(0.0039196 -0.000275962 0)
(0.00388724 -0.000306301 0)
(0.00385713 -0.000338063 0)
(0.00382986 -0.000371122 0)
(0.00380602 -0.000405311 0)
(0.00378619 -0.000440413 0)
(0.00377096 -0.000476151 0)
(0.00421532 -0.000215163 0)
(0.00418505 -0.000240855 0)
(0.00415568 -0.000267994 0)
(0.00412768 -0.000296518 0)
(0.00410151 -0.000326335 0)
(0.00407758 -0.000357317 0)
(0.00405626 -0.000389292 0)
(0.0040379 -0.000422038 0)
(0.00402276 -0.000455265 0)
(0.00443739 -0.000192159 0)
(0.00441053 -0.000216451 0)
(0.0043844 -0.000242247 0)
(0.00435936 -0.000269442 0)
(0.00433578 -0.000297911 0)
(0.00431394 -0.000327505 0)
(0.00429402 -0.000358036 0)
(0.00427609 -0.00038928 0)
(0.00426007 -0.000420956 0)
(0.000401422 -0.00223978 0)
(0.000364434 -0.00227265 0)
(0.000331278 -0.00230329 0)
(0.000301608 -0.0023326 0)
(0.00027378 -0.00236058 0)
(0.00024628 -0.00238718 0)
(0.000217624 -0.00241224 0)
(0.000186201 -0.0024354 0)
(0.000150071 -0.00245613 0)
(0.000820596 -0.00187568 0)
(0.00075368 -0.00192242 0)
(0.000692621 -0.00196723 0)
(0.00063563 -0.00200987 0)
(0.00058142 -0.00205048 0)
(0.000527924 -0.00208891 0)
(0.000472975 -0.00212505 0)
(0.000414254 -0.00215882 0)
(0.000349238 -0.00219022 0)
(0.00125975 -0.00146765 0)
(0.00116731 -0.00152386 0)
(0.00108158 -0.00157897 0)
(0.00100122 -0.00163249 0)
(0.000924451 -0.00168402 0)
(0.000849186 -0.00173327 0)
(0.000773066 -0.00178018 0)
(0.000693464 -0.00182485 0)
(0.00060748 -0.0018676 0)
(0.00170581 -0.00108078 0)
(0.00159041 -0.00114371 0)
(0.00148299 -0.00120625 0)
(0.00138225 -0.00126765 0)
(0.00128653 -0.00132733 0)
(0.00119384 -0.00138492 0)
(0.00110186 -0.00144034 0)
(0.00100798 -0.00149382 0)
(0.000909289 -0.00154602 0)
)
;

boundaryField
{
    back
    {
        type            empty;
    }
    front
    {
        type            empty;
    }
    left
    {
        type            pointFixedDisplacementZeroShear;
    }
    hole
    {
        type            pointSolidTraction;
        traction        uniform (0 0 0);
        pressure        uniform 0;
    }
    down
    {
        type            pointFixedDisplacementZeroShear;
    }
    right
    {
        type            pointSolidTraction;
        tractionSeries  
{
        fileName        "$FOAM_CASE/constant/timeVsTraction";
        outOfBounds     clamp;
}
        pressure        uniform 0;
    }
    up
    {
        type            pointSolidTraction;
        traction        uniform (0 0 0);
        pressure        uniform 0;
    }
}


// ************************************************************************* //
