/*--------------------------------*- C++ -*----------------------------------*\
| =========                 |                                                 |
| \\      /  F ield         | OpenFOAM: The Open Source CFD Toolbox           |
|  \\    /   O peration     | Version:  v2012                                 |
|   \\  /    A nd           | Website:  www.openfoam.com                      |
|    \\/     M anipulation  |                                                 |
\*---------------------------------------------------------------------------*/
FoamFile
{
    version     2.0;
    format      ascii;
    class       volScalarField;
    location    "11";
    object      sigmaHyd;
}
// * * * * * * * * * * * * * * * * * * * * * * * * * * * * * * * * * * * * * //

dimensions      [1 -1 -2 0 0 0 0];


internalField   nonuniform List<scalar> 
500
(
1.28443e+08
1.28537e+08
1.58521e+08
1.61519e+08
1.78952e+08
1.71948e+08
1.84159e+08
1.57091e+08
1.73395e+08
1.37319e+08
1.23465e+08
1.50215e+08
1.26367e+08
1.65878e+08
1.31786e+08
1.42134e+08
1.38005e+08
1.20706e+08
1.38907e+08
1.0632e+08
9.42029e+07
1.30064e+08
9.07376e+07
1.06056e+08
9.82123e+07
9.65341e+07
1.03547e+08
9.00244e+07
1.06335e+08
8.45712e+07
7.0703e+07
8.13485e+07
7.62552e+07
7.45328e+07
8.0244e+07
7.06746e+07
8.3939e+07
6.8318e+07
8.68504e+07
6.67204e+07
3.60039e+07
5.13135e+07
4.82313e+07
4.82183e+07
5.71689e+07
4.85924e+07
6.40484e+07
5.07573e+07
6.93518e+07
5.33229e+07
-4.34957e+06
2.10312e+07
1.8296e+07
2.00695e+07
3.45514e+07
2.19728e+07
4.78319e+07
2.59967e+07
6.06582e+07
3.32111e+07
-3.97176e+07
-3.67395e+06
-1.3418e+07
-1.21196e+06
5.22901e+06
3.50861e+06
1.86759e+07
9.05501e+06
2.73451e+07
1.36772e+07
-6.92062e+07
-2.53768e+07
-4.00586e+07
-1.98806e+07
-1.93626e+07
-1.32683e+07
-4.16249e+06
-6.31135e+06
7.5963e+06
303437
-9.01709e+07
-4.30219e+07
-5.96312e+07
-3.5966e+07
-3.67387e+07
-2.63103e+07
-1.9805e+07
-1.68066e+07
-6.79096e+06
-7.78197e+06
-1.02343e+08
-6.62985e+07
-6.84966e+07
-4.79798e+07
-4.56701e+07
-3.40027e+07
-2.87082e+07
-2.28732e+07
-1.5767e+07
-1.392e+07
-2.68566e+06
1.80313e+07
-7.56322e+06
2.8775e+07
-7.08329e+06
4.28566e+07
-1.76442e+06
5.83541e+07
9.92754e+06
7.40433e+07
1.77086e+07
2.90643e+07
1.3095e+07
3.67031e+07
1.01734e+07
4.68903e+07
9.71224e+06
5.82809e+07
1.27711e+07
6.97238e+07
3.15325e+07
3.65079e+07
2.80769e+07
4.18007e+07
2.50124e+07
4.89926e+07
2.30147e+07
5.73218e+07
2.28102e+07
6.59204e+07
4.09884e+07
4.22821e+07
3.85869e+07
4.58408e+07
3.62221e+07
5.07393e+07
3.43099e+07
5.66279e+07
3.33519e+07
6.30105e+07
4.76115e+07
4.71238e+07
4.59701e+07
4.9442e+07
4.42883e+07
5.26259e+07
4.28289e+07
5.65726e+07
4.19498e+07
6.10901e+07
5.2446e+07
5.14706e+07
5.128e+07
5.28982e+07
5.00289e+07
5.47925e+07
4.88957e+07
5.71832e+07
4.81531e+07
6.00749e+07
5.62166e+07
5.56914e+07
5.52962e+07
5.64563e+07
5.42062e+07
5.73304e+07
5.31427e+07
5.8415e+07
5.23352e+07
5.98459e+07
5.94696e+07
6.01808e+07
5.85925e+07
6.04369e+07
5.74162e+07
6.04003e+07
5.61788e+07
6.02503e+07
5.50888e+07
6.02835e+07
6.2715e+07
6.54797e+07
6.15685e+07
6.53718e+07
6.00113e+07
6.42102e+07
5.84594e+07
6.2717e+07
5.69384e+07
6.12183e+07
6.6703e+07
7.30642e+07
6.40772e+07
7.14364e+07
6.2217e+07
6.91298e+07
6.02077e+07
6.59581e+07
5.81661e+07
6.22089e+07
2.8268e+07
6.41832e+07
4.05075e+07
6.99819e+07
5.05307e+07
7.4716e+07
5.91203e+07
7.88912e+07
6.67454e+07
8.28097e+07
7.3715e+07
8.67254e+07
8.02496e+07
9.08995e+07
8.65101e+07
9.56117e+07
9.25838e+07
1.01133e+08
9.83848e+07
1.07597e+08
4.23242e+07
6.18477e+07
4.72994e+07
6.69041e+07
5.30654e+07
7.1624e+07
5.90852e+07
7.60854e+07
6.51332e+07
8.043e+07
7.11062e+07
8.48197e+07
7.69469e+07
8.94231e+07
8.26112e+07
9.44078e+07
8.80662e+07
9.99357e+07
9.33496e+07
1.06186e+08
4.71152e+07
6.15716e+07
5.09954e+07
6.553e+07
5.52083e+07
6.94626e+07
5.96536e+07
7.33657e+07
6.42219e+07
7.72769e+07
6.88184e+07
8.12578e+07
7.33634e+07
8.53809e+07
7.7788e+07
8.97202e+07
8.20304e+07
9.43429e+07
8.60161e+07
9.92929e+07
5.0258e+07
6.12958e+07
5.32642e+07
6.43325e+07
5.63832e+07
6.73968e+07
5.96014e+07
7.04832e+07
6.28788e+07
7.35981e+07
6.61646e+07
7.67571e+07
6.94054e+07
7.99808e+07
7.25493e+07
8.32899e+07
7.55487e+07
8.67002e+07
7.8368e+07
9.022e+07
5.26146e+07
6.08003e+07
5.46906e+07
6.30154e+07
5.68149e+07
6.52401e+07
5.89747e+07
6.74686e+07
6.11472e+07
6.96965e+07
6.33024e+07
7.19216e+07
6.54069e+07
7.41424e+07
6.74264e+07
7.63575e+07
6.93293e+07
7.85634e+07
7.10885e+07
8.07529e+07
5.42908e+07
6.02708e+07
5.55133e+07
6.1727e+07
5.67626e+07
6.31645e+07
5.80234e+07
6.4574e+07
5.92772e+07
6.59457e+07
6.05022e+07
6.72692e+07
6.1674e+07
6.85338e+07
6.27666e+07
6.97288e+07
6.37541e+07
7.0844e+07
6.46122e+07
7.187e+07
5.54093e+07
5.99264e+07
5.59185e+07
6.06776e+07
5.64447e+07
6.1391e+07
5.69754e+07
6.20556e+07
5.7496e+07
6.2658e+07
5.7989e+07
6.31816e+07
5.84338e+07
6.36075e+07
5.88069e+07
6.39161e+07
5.90816e+07
6.40898e+07
5.92279e+07
6.41166e+07
5.61539e+07
5.98737e+07
5.60965e+07
5.99508e+07
5.6055e+07
5.99966e+07
5.60221e+07
6.0007e+07
5.59869e+07
5.99639e+07
5.59373e+07
5.98425e+07
5.58581e+07
5.96123e+07
5.57288e+07
5.9237e+07
5.55205e+07
5.86758e+07
5.51925e+07
5.78887e+07
5.67084e+07
5.99774e+07
5.62369e+07
5.93266e+07
5.57899e+07
5.87413e+07
5.53522e+07
5.81811e+07
5.49243e+07
5.76273e+07
5.4508e+07
5.706e+07
5.41016e+07
5.64474e+07
5.36969e+07
5.57382e+07
5.32756e+07
5.48515e+07
5.28006e+07
5.366e+07
5.71821e+07
5.96208e+07
5.65616e+07
5.82708e+07
5.58675e+07
5.69448e+07
5.51773e+07
5.57245e+07
5.45239e+07
5.46617e+07
5.39241e+07
5.3789e+07
5.33889e+07
5.31216e+07
5.29282e+07
5.26511e+07
5.25556e+07
5.23372e+07
5.22978e+07
5.20958e+07
1.59053e+08
1.20399e+08
1.49827e+08
1.0941e+08
1.35512e+08
1.00142e+08
1.21854e+08
9.02503e+07
1.08898e+08
8.077e+07
9.6362e+07
7.11706e+07
8.3959e+07
6.10277e+07
7.13923e+07
4.98969e+07
5.83319e+07
3.72217e+07
4.43866e+07
2.21866e+07
1.36551e+08
9.88361e+07
1.32537e+08
9.33781e+07
1.26799e+08
8.88503e+07
1.1941e+08
8.38978e+07
1.11223e+08
7.82975e+07
1.02876e+08
7.24236e+07
9.46193e+07
6.60862e+07
8.66813e+07
5.91209e+07
7.93667e+07
5.14245e+07
7.32051e+07
4.30504e+07
1.06957e+08
8.75881e+07
1.07999e+08
8.64157e+07
1.07636e+08
8.50542e+07
1.06092e+08
8.36454e+07
1.03543e+08
8.19481e+07
1.00379e+08
7.99782e+07
9.69806e+07
7.7717e+07
9.36827e+07
7.51332e+07
9.07713e+07
7.21865e+07
8.84415e+07
6.88087e+07
8.45321e+07
7.51484e+07
8.81296e+07
7.76631e+07
9.0856e+07
7.98485e+07
9.26533e+07
8.17297e+07
9.36347e+07
8.33634e+07
9.40417e+07
8.48081e+07
9.41843e+07
8.61269e+07
9.44065e+07
8.73853e+07
9.50743e+07
8.86262e+07
9.65777e+07
8.97761e+07
6.5831e+07
5.70252e+07
7.20315e+07
6.38891e+07
7.70743e+07
6.99076e+07
8.10938e+07
7.51953e+07
8.43012e+07
7.98913e+07
8.6979e+07
8.41749e+07
8.94558e+07
8.82778e+07
9.20944e+07
9.25082e+07
9.53105e+07
9.73203e+07
9.9675e+07
1.03521e+08
)
;

boundaryField
{
    back
    {
        type            empty;
    }
    front
    {
        type            empty;
    }
    left
    {
        type            zeroGradient;
    }
    hole
    {
        type            zeroGradient;
    }
    down
    {
        type            zeroGradient;
    }
    right
    {
        type            zeroGradient;
    }
    up
    {
        type            zeroGradient;
    }
}


// ************************************************************************* //
