/*--------------------------------*- C++ -*----------------------------------*\
| =========                 |                                                 |
| \\      /  F ield         | OpenFOAM: The Open Source CFD Toolbox           |
|  \\    /   O peration     | Version:  v2012                                 |
|   \\  /    A nd           | Website:  www.openfoam.com                      |
|    \\/     M anipulation  |                                                 |
\*---------------------------------------------------------------------------*/
FoamFile
{
    version     2.0;
    format      ascii;
    class       volSymmTensorField;
    location    "7";
    object      epsilon;
}
// * * * * * * * * * * * * * * * * * * * * * * * * * * * * * * * * * * * * * //

dimensions      [0 0 0 0 0 0 0];


internalField   nonuniform List<symmTensor> 
2000
(
(0.00640493 -0.000388725 1.24683e-18 -0.00403083 1.82146e-17 0)
(0.00569619 -0.000744299 -3.1984e-18 -0.00353359 3.38271e-17 0)
(0.00573734 -0.000212775 -3.68629e-18 -0.0031394 1.47451e-17 0)
(0.00496847 -0.000647501 -1.02457e-17 -0.00264366 8.23994e-18 0)
(0.00501522 -4.53968e-05 -5.09575e-18 -0.00227711 4.33681e-19 0)
(0.00422108 -0.000539952 -1.57209e-18 -0.00180092 -8.67362e-18 0)
(0.00427152 0.000107917 3.25261e-18 -0.00149448 -8.67362e-19 0)
(0.00353331 -0.000409921 5.63785e-18 -0.00114353 -1.21431e-17 0)
(0.00358219 0.000215445 1.35525e-18 -0.000970724 -6.93889e-18 0)
(0.00311018 -0.000197982 2.22261e-18 -0.000969473 -1.04083e-17 0)
(0.0031427 0.000219189 5.14996e-19 -0.000797046 -5.20417e-18 0)
(0.00280779 -9.70565e-05 8.13152e-19 -0.000838185 -6.50521e-18 0)
(0.00283176 0.000210555 1.35525e-19 -0.000702761 -3.03577e-18 0)
(0.00257831 -4.09468e-05 4.87891e-19 -0.000748742 -3.90313e-18 0)
(0.00259711 0.000200304 1.0842e-19 -0.000650891 -2.60209e-18 0)
(0.00239603 -6.39136e-06 1.6263e-19 -0.000690294 -3.46945e-18 0)
(0.00241148 0.000191533 -2.71051e-20 -0.000623946 -1.73472e-18 0)
(0.00224522 1.61758e-05 0 -0.000653225 -3.03577e-18 0)
(0.00225843 0.000185096 -2.71051e-20 -0.000612358 -2.60209e-18 0)
(0.00211482 3.08815e-05 -5.42101e-20 -0.000630083 -2.1684e-18 0)
(0.00597402 -0.000891074 6.01732e-18 -0.00351221 5.76796e-17 0)
(0.00502956 -0.00121221 4.33681e-17 -0.00283323 3.59955e-17 0)
(0.00515371 -0.000676309 2.07083e-17 -0.00264027 4.33681e-18 0)
(0.00425126 -0.000983356 4.90059e-17 -0.00189724 -2.34188e-17 0)
(0.00438024 -0.000433826 1.2902e-17 -0.00181861 -2.12504e-17 0)
(0.00357176 -0.000749039 2.75387e-17 -0.001174 -2.29851e-17 0)
(0.00370687 -0.000178671 1.06252e-17 -0.001181 -1.64799e-17 0)
(0.00328942 -0.000442788 9.6494e-18 -0.00109047 -1.12757e-17 0)
(0.00340762 6.11942e-05 4.01155e-18 -0.00101211 -1.0842e-17 0)
(0.00301361 -0.000221554 3.03577e-18 -0.000991048 -4.33681e-18 0)
(0.00310797 0.0001834 1.35525e-18 -0.000884189 -4.77049e-18 0)
(0.00277762 -7.37312e-05 1.40946e-18 -0.000900656 -3.46945e-18 0)
(0.00285298 0.000250796 2.71051e-19 -0.000796365 -3.03577e-18 0)
(0.00258043 2.59196e-05 4.33681e-19 -0.000828375 -8.67362e-19 0)
(0.00264164 0.000289812 3.79471e-19 -0.000738439 -3.03577e-18 0)
(0.00241476 9.43459e-05 -2.1684e-19 -0.000774043 8.67362e-19 0)
(0.00246542 0.000312678 -1.0842e-19 -0.00070126 -2.60209e-18 0)
(0.00227336 0.000141732 -1.0842e-19 -0.00073455 4.33681e-19 0)
(0.00231595 0.000325016 0 -0.000677627 -1.30104e-18 0)
(0.00215086 0.000174144 -5.42101e-20 -0.000706597 -8.67362e-19 0)
(0.00517962 -0.00131053 6.74374e-17 -0.00280585 2.55872e-17 0)
(0.00409496 -0.00146 7.41594e-17 -0.00188524 -2.1684e-18 0)
(0.00430241 -0.000941206 6.98226e-17 -0.00191188 -1.34441e-17 0)
(0.00340573 -0.00108491 4.38018e-17 -0.00111647 -3.46945e-18 0)
(0.00360273 -0.000600209 3.41524e-17 -0.00122192 -1.47451e-17 0)
(0.00324883 -0.000752499 2.12504e-17 -0.00109858 -4.33681e-19 0)
(0.0034362 -0.000286007 1.2902e-17 -0.00114382 -6.50521e-18 0)
(0.00306917 -0.000471887 9.6494e-18 -0.00105881 4.33681e-19 0)
(0.00323803 -4.67708e-05 5.09575e-18 -0.00105204 -3.03577e-18 0)
(0.00288623 -0.000248442 3.68629e-18 -0.00100736 4.33681e-19 0)
(0.00303111 0.000119614 1.6263e-18 -0.00096826 0 0)
(0.00271554 -7.86393e-05 2.49366e-18 -0.000954405 -4.33681e-19 0)
(0.00283766 0.000233671 9.75782e-19 -0.000900637 -8.67362e-19 0)
(0.00256225 4.81398e-05 6.50521e-19 -0.000906318 -4.33681e-19 0)
(0.00266489 0.000311828 1.0842e-19 -0.000849209 -4.33681e-19 0)
(0.00242625 0.00014218 5.42101e-19 -0.000865441 -1.30104e-18 0)
(0.00251281 0.000365148 1.0842e-19 -0.000811328 8.67362e-19 0)
(0.00230542 0.000211519 1.0842e-19 -0.000831778 4.33681e-19 0)
(0.00237891 0.000400977 -3.25261e-19 -0.000784171 8.67362e-19 0)
(0.0021969 0.000262074 2.1684e-19 -0.000804216 0 0)
(0.0041 -0.00148631 4.96565e-17 -0.0018729 4.77049e-18 0)
(0.00313033 -0.00145216 2.9924e-17 -0.00100091 6.07153e-18 0)
(0.00339338 -0.00100726 3.49113e-17 -0.00115304 7.37257e-18 0)
(0.00304983 -0.00109583 2.08167e-17 -0.00100973 4.77049e-18 0)
(0.00330126 -0.000668717 2.12504e-17 -0.00114183 5.42101e-18 0)
(0.00295447 -0.000778043 1.30104e-17 -0.00101766 2.60209e-18 0)
(0.00318789 -0.000377389 1.04083e-17 -0.00111103 4.33681e-18 0)
(0.00284735 -0.000506882 7.80626e-18 -0.00101704 1.73472e-18 0)
(0.00305812 -0.000140556 5.42101e-18 -0.00106907 1.73472e-18 0)
(0.00273451 -0.000283602 3.46945e-18 -0.00100674 2.1684e-18 0)
(0.00292005 4.28319e-05 2.49366e-18 -0.00102452 2.1684e-18 0)
(0.00262246 -0.000104924 1.95156e-18 -0.000989465 3.03577e-18 0)
(0.00278336 0.00018125 1.6263e-18 -0.000982977 2.1684e-19 0)
(0.00251524 3.55405e-05 6.50521e-19 -0.000968586 1.30104e-18 0)
(0.00265376 0.000284183 5.42101e-19 -0.000946737 -6.50521e-19 0)
(0.00241463 0.000144698 6.50521e-19 -0.000946512 4.33681e-19 0)
(0.00253349 0.000359705 4.33681e-19 -0.000916076 2.1684e-19 0)
(0.0023209 0.000228653 2.1684e-19 -0.000924546 -8.67362e-19 0)
(0.00242273 0.000414019 2.1684e-19 -0.00089019 -2.1684e-19 0)
(0.00223356 0.000292299 3.25261e-19 -0.000903169 4.33681e-19 0)
(0.00310181 -0.00146106 1.79978e-17 -0.000992116 1.73472e-18 0)
(0.00270548 -0.00148798 1.4962e-17 -0.000793534 0 0)
(0.00304037 -0.00107615 1.4962e-17 -0.00102153 3.25261e-18 0)
(0.00268288 -0.0011161 1.0842e-17 -0.000849945 1.30104e-18 0)
(0.00298714 -0.000739877 1.12757e-17 -0.00104591 1.95156e-18 0)
(0.00265397 -0.000800808 7.37257e-18 -0.000910198 3.03577e-18 0)
(0.00292835 -0.000456295 6.93889e-18 -0.00105846 2.60209e-18 0)
(0.00261319 -0.000537562 4.55365e-18 -0.000957848 2.1684e-18 0)
(0.00285876 -0.000223389 3.46945e-18 -0.00105898 4.33681e-19 0)
(0.00256169 -0.000320563 3.03577e-18 -0.000989839 8.67362e-19 0)
(0.00277942 -3.6633e-05 1.0842e-18 -0.00105041 1.30104e-18 0)
(0.00250286 -0.000143915 1.30104e-18 -0.00100773 0 0)
(0.00269439 0.000110429 1.51788e-18 -0.00103616 0 0)
(0.00244001 -1.62435e-06 1.30104e-18 -0.00101446 -4.33681e-19 0)
(0.0026075 0.00022458 8.67362e-19 -0.00101878 -1.30104e-18 0)
(0.00237566 0.000111953 6.50521e-19 -0.00101289 4.33681e-19 0)
(0.00252141 0.000311902 2.1684e-19 -0.000999812 8.67362e-19 0)
(0.00231151 0.000201728 2.1684e-19 -0.00100529 1.73472e-18 0)
(0.00243767 0.00037738 4.33681e-19 -0.000980006 0 0)
(0.00224861 0.00027172 6.50521e-19 -0.000993326 0 0)
(0.00264868 -0.00151762 9.75782e-18 -0.000759234 8.67362e-19 0)
(0.00223649 -0.00147339 6.93889e-18 -0.000521393 0 0)
(0.00264305 -0.00110812 7.80626e-18 -0.000849725 4.33681e-19 0)
(0.00230435 -0.00109946 6.07153e-18 -0.000676222 -4.33681e-19 0)
(0.00265461 -0.000777902 6.28837e-18 -0.000929283 8.67362e-19 0)
(0.00234961 -0.000799581 4.55365e-18 -0.000802347 8.67362e-19 0)
(0.00265765 -0.000508614 3.68629e-18 -0.000989459 1.0842e-18 0)
(0.00237243 -0.000555199 3.25261e-18 -0.000899416 4.33681e-19 0)
(0.00264557 -0.000289125 3.25261e-18 -0.00103027 4.33681e-19 0)
(0.00237597 -0.000355014 2.60209e-18 -0.000970268 1.30104e-18 0)
(0.00261855 -0.000111349 1.0842e-18 -0.00105456 6.50521e-19 0)
(0.0023643 -0.000191123 2.60209e-18 -0.00101899 0 0)
(0.00257946 3.14554e-05 0 -0.00106579 0 0)
(0.00234133 -5.73804e-05 1.51788e-18 -0.00104981 -4.33681e-19 0)
(0.00253171 0.000145107 4.33681e-19 -0.00106712 1.30104e-18 0)
(0.00231046 5.12355e-05 6.50521e-19 -0.00106655 1.30104e-18 0)
(0.00247828 0.00023452 4.33681e-19 -0.00106106 8.67362e-19 0)
(0.00227446 0.000138836 4.33681e-19 -0.00107245 0 0)
(0.00242158 0.000303692 6.50521e-19 -0.00104949 6.50521e-19 0)
(0.00223555 0.000208706 4.33681e-19 -0.0010701 0 0)
(0.00208977 -0.00146699 5.63785e-18 -0.000489832 -1.30104e-18 0)
(0.00176941 -0.00136821 3.90313e-18 -0.000282911 -6.50521e-19 0)
(0.00221505 -0.00107964 4.33681e-18 -0.000673233 0 0)
(0.00193366 -0.0010363 3.46945e-18 -0.000528163 -2.1684e-19 0)
(0.00231266 -0.000778131 3.25261e-18 -0.000814613 8.67362e-19 0)
(0.00205105 -0.00077424 3.03577e-18 -0.000713498 4.33681e-19 0)
(0.00238151 -0.000537093 3.68629e-18 -0.000920223 4.33681e-19 0)
(0.00213151 -0.000562559 1.73472e-18 -0.000852427 8.67362e-19 0)
(0.00242371 -0.00034189 4.33681e-19 -0.000996036 1.0842e-18 0)
(0.0021828 -0.000389403 1.73472e-18 -0.000954494 4.33681e-19 0)
(0.00244306 -0.000183106 1.0842e-18 -0.00104761 -2.1684e-19 0)
(0.00221127 -0.000246917 1.30104e-18 -0.00102715 8.67362e-19 0)
(0.00244386 -5.40146e-05 4.33681e-19 -0.00107986 2.1684e-19 0)
(0.00222218 -0.000129461 8.67362e-19 -0.00107642 6.50521e-19 0)
(0.00243026 5.05556e-05 6.50521e-19 -0.00109696 2.1684e-19 0)
(0.00221991 -3.27172e-05 1.30104e-18 -0.00110723 -6.50521e-19 0)
(0.0024059 0.000134704 0 -0.00110236 1.30104e-18 0)
(0.00220817 4.67236e-05 6.50521e-19 -0.0011237 -2.1684e-19 0)
(0.00237389 0.000201648 4.33681e-19 -0.00109883 2.1684e-19 0)
(0.00219025 0.000111519 4.33681e-19 -0.00112925 2.1684e-19 0)
(0.00152487 -0.00131474 2.60209e-18 -0.000256615 -6.50521e-19 0)
(0.00133892 -0.00118664 2.60209e-18 -0.000101963 -6.50521e-19 0)
(0.00178049 -0.000995917 3.03577e-18 -0.000520146 -1.0842e-18 0)
(0.00158448 -0.000931941 1.30104e-18 -0.000413651 8.67362e-19 0)
(0.00196566 -0.000747227 2.1684e-18 -0.000714538 -8.67362e-19 0)
(0.00176305 -0.000727968 8.67362e-19 -0.000643607 0 0)
(0.00209848 -0.000548385 1.30104e-18 -0.000857395 4.33681e-19 0)
(0.0018918 -0.000561442 4.33681e-19 -0.000813651 -6.50521e-19 0)
(0.00219075 -0.000386835 6.50521e-19 -0.000960629 4.33681e-19 0)
(0.00198263 -0.00042376 4.33681e-19 -0.00093832 -2.1684e-19 0)
(0.00225117 -0.00025442 1.73472e-18 -0.00103294 -1.0842e-18 0)
(0.00204417 -0.000309104 1.73472e-18 -0.00102789 0 0)
(0.00228655 -0.000145467 1.73472e-18 -0.00108097 -8.67362e-19 0)
(0.00208293 -0.000213291 4.33681e-19 -0.00108998 2.1684e-19 0)
(0.00230241 -5.57417e-05 -4.33681e-19 -0.00111 8.67362e-19 0)
(0.00210395 -0.000133096 8.67362e-19 -0.00113045 0 0)
(0.00230326 1.80986e-05 2.1684e-19 -0.00112433 2.1684e-19 0)
(0.00211156 -6.58757e-05 0 -0.00115409 -4.33681e-19 0)
(0.00229294 7.87e-05 2.1684e-19 -0.00112759 -4.33681e-19 0)
(0.00211018 -9.47877e-06 4.33681e-19 -0.00116518 0 0)
(0.00101572 -0.00107604 1.30104e-18 -9.20672e-05 -8.67362e-19 0)
(0.000971984 -0.000949832 1.73472e-18 5.14795e-06 -6.50521e-19 0)
(0.00136941 -0.000859555 -4.33681e-19 -0.000405306 4.33681e-19 0)
(0.00127054 -0.000793501 4.33681e-19 -0.000339489 -2.1684e-19 0)
(0.00162547 -0.000684521 1.73472e-18 -0.000634113 -1.51788e-18 0)
(0.00149154 -0.000661497 -4.33681e-19 -0.000592833 4.33681e-19 0)
(0.00181165 -0.000540706 -8.67362e-19 -0.000801476 6.50521e-19 0)
(0.00165533 -0.000549085 0 -0.000779668 0 0)
(0.00194601 -0.000421139 -4.33681e-19 -0.000922802 6.50521e-19 0)
(0.00177598 -0.000452766 1.30104e-18 -0.000916695 -8.67362e-19 0)
(0.002041 -0.000321021 8.67362e-19 -0.0010089 -6.50521e-19 0)
(0.00186346 -0.000369987 8.67362e-19 -0.00101563 0 0)
(0.00210562 -0.000236902 -8.67362e-19 -0.00106765 -4.33681e-19 0)
(0.00192487 -0.000298805 -4.33681e-19 -0.00108492 6.50521e-19 0)
(0.00214662 -0.000166088 8.67362e-19 -0.00110503 0 0)
(0.00196511 -0.00023754 8.67362e-19 -0.0011308 0 0)
(0.00216921 -0.000106181 1.51788e-18 -0.00112596 -4.33681e-19 0)
(0.00198769 -0.000184421 -4.33681e-19 -0.00115808 2.1684e-19 0)
(0.0021778 -5.47684e-05 6.50521e-19 -0.00113506 0 0)
(0.00199691 -0.000137406 1.30104e-18 -0.00117153 0 0)
(0.000599461 -0.000779611 1.73472e-18 -1.38774e-05 -6.50521e-19 0)
(0.000684471 -0.00068429 4.33681e-19 3.22357e-05 0 0)
(0.00100725 -0.000681314 8.67362e-19 -0.000339066 -4.33681e-19 0)
(0.00100218 -0.000632511 -4.33681e-19 -0.000309462 2.1684e-19 0)
(0.00130695 -0.00059159 0 -0.0005776 4.33681e-19 0)
(0.00124215 -0.000577866 1.30104e-18 -0.000562163 -6.50521e-19 0)
(0.00152868 -0.000510877 0 -0.00075255 0 0)
(0.00142422 -0.000523347 -8.67362e-19 -0.000748922 0 0)
(0.00169273 -0.000438696 -4.33681e-19 -0.000880005 2.1684e-19 0)
(0.00156278 -0.000470379 -4.33681e-19 -0.000885973 4.33681e-19 0)
(0.00181333 -0.000374399 -4.33681e-19 -0.00097152 6.50521e-19 0)
(0.00166846 -0.000419612 -8.67362e-19 -0.000984994 -2.1684e-19 0)
(0.00190072 -0.00031737 -4.33681e-19 -0.00103559 2.1684e-19 0)
(0.00174909 -0.000371175 4.33681e-19 -0.00105443 -2.1684e-19 0)
(0.00196245 -0.00026695 8.67362e-19 -0.00107863 0 0)
(0.00180981 -0.000324517 6.50521e-19 -0.00110014 -1.0842e-19 0)
(0.00200418 -0.00022203 -8.67362e-19 -0.00110587 2.1684e-19 0)
(0.00185137 -0.000277345 0 -0.00112522 -2.1684e-19 0)
(0.00203068 -0.000179731 0 -0.00112387 0 0)
(0.00186272 -0.000221456 -8.67362e-19 -0.00112784 2.1684e-19 0)
(0.000294716 -0.000459853 4.33681e-19 -2.68844e-05 0 0)
(0.000481374 -0.000417071 4.33681e-19 -1.73247e-05 0 0)
(0.000711422 -0.000478308 8.67362e-19 -0.000327113 -2.1684e-19 0)
(0.00078455 -0.000465396 4.33681e-19 -0.000324941 -2.1684e-19 0)
(0.00102363 -0.00047562 0 -0.000548135 0 0)
(0.00101643 -0.000487912 4.33681e-19 -0.000553527 -4.33681e-19 0)
(0.00125825 -0.000460281 0 -0.000709077 -3.25261e-19 0)
(0.00119331 -0.000493494 1.30104e-18 -0.000721798 -2.1684e-19 0)
(0.00143429 -0.000437252 8.67362e-19 -0.000823739 -3.25261e-19 0)
(0.00132731 -0.000488088 8.67362e-19 -0.000843548 -2.1684e-19 0)
(0.00156538 -0.000409617 8.67362e-19 -0.000901908 -7.58942e-19 0)
(0.00142743 -0.000475969 4.33681e-19 -0.000928846 -3.25261e-19 0)
(0.00166125 -0.000379408 4.33681e-19 -0.000950127 -1.0842e-19 0)
(0.00150043 -0.000460684 -8.67362e-19 -0.000984912 1.0842e-19 0)
(0.00172848 -0.000348102 4.33681e-19 -0.000971644 0 0)
(0.00155189 -0.000446273 -4.33681e-19 -0.00101667 0 0)
(0.00177017 -0.000317135 -8.67362e-19 -0.000964434 2.1684e-19 0)
(0.00158858 -0.000440234 4.33681e-19 -0.00102694 0 0)
(0.00178285 -0.000288884 -4.33681e-19 -0.000913124 -3.25261e-19 0)
(0.0016268 -0.000463049 8.67362e-19 -0.00101651 -2.1684e-19 0)
(0.000108403 -0.00014946 4.33681e-19 -0.000132687 0 0)
(0.000368741 -0.000171065 8.67362e-19 -0.000140844 2.1684e-19 0)
(0.000495955 -0.000272801 0 -0.000380309 -1.0842e-19 0)
(0.00063401 -0.000305804 -4.33681e-19 -0.000391626 0 0)
(0.000792578 -0.000352488 8.67362e-19 -0.000563778 -4.33681e-19 0)
(0.000841013 -0.000397021 4.33681e-19 -0.000578648 -3.25261e-19 0)
(0.0010196 -0.000402111 4.33681e-19 -0.000697664 0 0)
(0.00100237 -0.000457538 -4.33681e-19 -0.000716323 3.25261e-19 0)
(0.00119304 -0.000431046 -1.30104e-18 -0.000793049 0 0)
(0.0011279 -0.000496641 -4.33681e-19 -0.000815708 6.50521e-19 0)
(0.00132484 -0.000446032 -4.33681e-19 -0.000858307 -1.0842e-19 0)
(0.00122536 -0.000521297 8.67362e-19 -0.000885271 -1.0842e-19 0)
(0.00142405 -0.000452268 -1.30104e-18 -0.000899913 0 0)
(0.00130118 -0.000537023 4.33681e-19 -0.000931662 2.1684e-19 0)
(0.00149784 -0.000454382 -4.33681e-19 -0.000923579 3.25261e-19 0)
(0.00136118 -0.00054832 -2.1684e-18 -0.000960621 5.42101e-19 0)
(0.00155306 -0.000457787 0 -0.000937127 1.0842e-19 0)
(0.00141101 -0.000557748 -8.67362e-19 -0.000978592 4.33681e-19 0)
(0.00160065 -0.000471607 4.33681e-19 -0.000960632 2.1684e-19 0)
(0.00145415 -0.000559012 4.33681e-19 -0.000996802 2.1684e-19 0)
(2.78373e-05 0.000128085 -8.67362e-19 -0.000318517 3.25261e-19 0)
(0.000334392 3.58478e-05 1.30104e-18 -0.000325042 -3.25261e-19 0)
(0.00035967 -8.05756e-05 8.67362e-19 -0.000491911 -2.1684e-19 0)
(0.000542812 -0.000165428 -8.67362e-19 -0.000501734 0 0)
(0.000618769 -0.000228888 1.73472e-18 -0.000620451 1.0842e-19 0)
(0.000709639 -0.000310276 4.33681e-19 -0.000633073 -6.50521e-19 0)
(0.000821182 -0.000333651 1.73472e-18 -0.000714111 -4.33681e-19 0)
(0.00084342 -0.000413989 -1.73472e-18 -0.000729247 2.1684e-19 0)
(0.000979382 -0.000407125 -8.67362e-19 -0.000780775 0 0)
(0.000951008 -0.000487824 1.30104e-18 -0.000798252 -2.1684e-19 0)
(0.00110309 -0.000458387 2.1684e-18 -0.000826813 -2.1684e-19 0)
(0.00103799 -0.000540063 8.67362e-19 -0.000846484 -2.1684e-19 0)
(0.00120007 -0.000494308 -8.67362e-19 -0.000857703 -1.0842e-19 0)
(0.00110902 -0.000576666 4.33681e-19 -0.000879298 0 0)
(0.00127692 -0.000520104 -2.1684e-18 -0.000878674 4.33681e-19 0)
(0.00116794 -0.000601451 0 -0.000901519 0 0)
(0.00133964 -0.000539065 8.67362e-19 -0.000894806 -3.25261e-19 0)
(0.00121762 -0.000616024 -1.30104e-18 -0.000917527 2.1684e-19 0)
(0.00139302 -0.000549561 -4.33681e-19 -0.000907019 1.0842e-19 0)
(0.00125958 -0.00062176 -4.33681e-19 -0.000929052 1.0842e-19 0)
(3.55349e-05 0.000353612 -2.60209e-18 -0.00056629 2.1684e-19 0)
(0.000361752 0.00018988 8.67362e-19 -0.000552192 0 0)
(0.000293033 8.36769e-05 4.33681e-19 -0.000649593 2.1684e-19 0)
(0.000500072 -5.42686e-05 8.67362e-19 -0.000643107 0 0)
(0.000498637 -0.000114505 1.73472e-18 -0.000710125 -1.0842e-19 0)
(0.00061567 -0.000234015 1.73472e-18 -0.000709117 -1.0842e-19 0)
(0.000663311 -0.000259781 1.73472e-18 -0.000752918 -2.1684e-19 0)
(0.000712596 -0.000366018 -1.73472e-18 -0.000755944 2.1684e-19 0)
(0.000795701 -0.000366066 -8.67362e-19 -0.000782062 5.42101e-20 0)
(0.00079425 -0.000462498 0 -0.000788127 0 0)
(0.000902704 -0.000443617 1.30104e-18 -0.000800993 -1.6263e-19 0)
(0.000863505 -0.000532367 1.73472e-18 -0.000809363 -1.6263e-19 0)
(0.000989917 -0.00049991 -8.67362e-19 -0.000812656 -1.0842e-19 0)
(0.000922758 -0.000582013 8.67362e-19 -0.000822717 -5.42101e-20 0)
(0.00106194 -0.000540111 -8.67362e-19 -0.000819436 2.71051e-19 0)
(0.000973897 -0.000615914 0 -0.000830622 1.0842e-19 0)
(0.00112237 -0.000567337 4.33681e-19 -0.000822779 -5.42101e-20 0)
(0.00101827 -0.000637345 0 -0.000834634 -2.1684e-19 0)
(0.0011736 -0.000583939 0 -0.000823535 -5.42101e-20 0)
(0.00105681 -0.000648774 0 -0.000835716 -1.6263e-19 0)
(0.000110741 0.000512944 -8.67362e-19 -0.00085344 1.0842e-19 0)
(0.000431188 0.000282292 0 -0.000801082 1.0842e-19 0)
(0.000282205 0.000208936 0 -0.000837054 -2.1684e-19 0)
(0.000492617 2.11043e-05 2.60209e-18 -0.000800648 1.0842e-19 0)
(0.00042423 -1.74752e-05 8.67362e-19 -0.000821685 -5.42101e-20 0)
(0.000551134 -0.000173182 8.67362e-19 -0.000796724 5.42101e-20 0)
(0.000542499 -0.000186136 3.03577e-18 -0.000806832 -5.96311e-19 0)
(0.000605964 -0.000317487 0 -0.000790169 0 0)
(0.000641564 -0.000311602 1.30104e-18 -0.000792308 -2.1684e-19 0)
(0.000656863 -0.000424156 -8.67362e-19 -0.000781733 -1.0842e-19 0)
(0.000725143 -0.000404542 3.03577e-18 -0.00077816 -1.6263e-19 0)
(0.000703907 -0.000502226 8.67362e-19 -0.000772097 1.0842e-19 0)
(0.000796282 -0.000472726 4.33681e-19 -0.000764529 -1.0842e-19 0)
(0.000747307 -0.000558341 -8.67362e-19 -0.000761823 0 0)
(0.000857415 -0.000521766 1.30104e-18 -0.000751501 0 0)
(0.000787268 -0.000597443 -8.67362e-19 -0.000751283 0 0)
(0.000910368 -0.000555812 -4.33681e-19 -0.00073906 1.89735e-19 0)
(0.000823954 -0.000623248 -8.67362e-19 -0.000740668 2.1684e-19 0)
(0.000956473 -0.000577983 2.1684e-18 -0.000727097 -1.0842e-19 0)
(0.000857499 -0.000638588 -8.67362e-19 -0.000730031 -1.0842e-19 0)
(0.000230638 0.000597508 0 -0.00115419 -1.0842e-19 0)
(0.000521764 0.00031022 0 -0.00104867 2.1684e-19 0)
(0.000311498 0.000288494 -4.33681e-19 -0.00103608 5.42101e-20 0)
(0.000506772 5.81876e-05 -8.67362e-19 -0.000958323 1.0842e-19 0)
(0.000385874 5.6607e-05 -4.33681e-19 -0.000943035 3.25261e-19 0)
(0.000507982 -0.000130421 8.67362e-19 -0.000885401 1.6263e-19 0)
(0.000453861 -0.000117639 1.30104e-18 -0.000868604 -5.42101e-20 0)
(0.000519856 -0.00027139 0 -0.000825731 0 0)
(0.00051581 -0.000248405 0 -0.000808221 5.42101e-20 0)
(0.000538739 -0.000376184 1.73472e-18 -0.00077631 -1.0842e-19 0)
(0.000572245 -0.000346079 4.33681e-19 -0.000758658 1.35525e-19 0)
(0.000562217 -0.00045326 1.73472e-18 -0.000734978 -1.0842e-19 0)
(0.000623744 -0.000418349 1.73472e-18 -0.000717594 2.71051e-20 0)
(0.00058853 -0.000509048 2.60209e-18 -0.000700128 -1.0842e-19 0)
(0.000670819 -0.000470971 4.33681e-19 -0.000683233 2.71051e-20 0)
(0.000616339 -0.000548421 -8.67362e-19 -0.000670467 2.71051e-20 0)
(0.00071387 -0.000508287 1.30104e-18 -0.000654128 -2.71051e-20 0)
(0.00064461 -0.000575048 -8.67362e-19 -0.000644925 2.71051e-20 0)
(0.000753201 -0.00053359 8.67362e-19 -0.000629115 -1.89735e-19 0)
(0.000672559 -0.000591675 0 -0.000622621 -2.71051e-20 0)
(0.000371544 0.000605163 0 -0.00144125 2.1684e-19 0)
(0.000613026 0.00027731 -8.67362e-19 -0.00127229 5.42101e-20 0)
(0.000365076 0.000320117 -1.30104e-18 -0.00122842 -5.42101e-20 0)
(0.000529704 5.84972e-05 0 -0.00110109 0 0)
(0.000373826 0.000104807 8.67362e-19 -0.00106257 5.42101e-20 0)
(0.000478547 -0.000106226 8.67362e-19 -0.000965613 -1.6263e-19 0)
(0.000392347 -5.79841e-05 1.73472e-18 -0.000931545 0 0)
(0.000450324 -0.000229668 -8.67362e-19 -0.000857186 8.13152e-20 0)
(0.00041709 -0.000180758 1.30104e-18 -0.000826955 -1.35525e-19 0)
(0.000439368 -0.000321051 8.67362e-19 -0.000769812 -5.42101e-20 0)
(0.000445848 -0.00027286 4.33681e-19 -0.000743144 0 0)
(0.000441052 -0.000388067 8.67362e-19 -0.000699135 0 0)
(0.000477025 -0.00034143 0 -0.000675691 -1.0842e-19 0)
(0.000451716 -0.000436645 1.73472e-18 -0.00064168 2.71051e-20 0)
(0.000509396 -0.000391886 2.1684e-18 -0.000621021 -8.13152e-20 0)
(0.000468531 -0.000471225 0 -0.00059461 -5.42101e-20 0)
(0.000542002 -0.000428308 -8.67362e-19 -0.000576246 2.71051e-20 0)
(0.000489298 -0.00049507 0 -0.000555614 2.71051e-20 0)
(0.000574106 -0.000453749 -8.67362e-19 -0.000539052 -1.35525e-20 0)
(0.000512267 -0.000510478 0 -0.000522848 5.42101e-20 0)
(0.0005106 0.000540559 -1.73472e-18 -0.00168825 5.42101e-20 0)
(0.000687237 0.000193582 8.67362e-19 -0.00145258 -5.42101e-20 0)
(0.000428284 0.000305346 -8.67362e-19 -0.00139787 1.35525e-19 0)
(0.000549713 2.59882e-05 -1.73472e-18 -0.00121645 0 0)
(0.000378835 0.000125965 -4.33681e-19 -0.00116991 5.42101e-20 0)
(0.000452638 -0.000100922 8.67362e-19 -0.00102837 -5.42101e-20 0)
(0.000352274 -9.74686e-06 0 -0.000988123 -5.42101e-20 0)
(0.000391508 -0.000192827 -8.67362e-19 -0.000878624 -2.71051e-20 0)
(0.000343182 -0.000111767 2.60209e-18 -0.000844464 -5.42101e-20 0)
(0.000357219 -0.000259513 2.60209e-18 -0.00075981 -1.0842e-19 0)
(0.000346991 -0.000188335 1.73472e-18 -0.000731089 -1.35525e-20 0)
(0.000342351 -0.000307976 -3.46945e-18 -0.00066541 1.35525e-20 0)
(0.000360004 -0.000245684 2.1684e-18 -0.000641326 -9.48677e-20 0)
(0.000341417 -0.000343086 -8.67362e-19 -0.000590079 1.35525e-20 0)
(0.000379336 -0.000288437 3.46945e-18 -0.000569839 -5.42101e-20 0)
(0.000350375 -0.000368372 -1.73472e-18 -0.000529522 0 0)
(0.000402746 -0.000320005 0 -0.000512353 8.13152e-20 0)
(0.000366153 -0.000386469 1.73472e-18 -0.000480231 4.06576e-20 0)
(0.00042846 -0.000342842 0 -0.00046534 4.06576e-20 0)
(0.000386195 -0.000399189 1.73472e-18 -0.000439275 1.35525e-20 0)
(0.000628247 0.000413239 0 -0.00187473 -2.71051e-20 0)
(0.000733236 7.18841e-05 1.73472e-18 -0.0015782 -5.42101e-20 0)
(0.000488179 0.000245368 -1.73472e-18 -0.0015337 1.35525e-20 0)
(0.000537643 -4.19494e-05 8.67362e-19 -0.00128908 -5.42101e-20 0)
(0.000388137 0.000120142 -4.33681e-19 -0.00124862 2.71051e-20 0)
(0.000414495 -0.000109475 1.73472e-18 -0.00106075 -4.06576e-20 0)
(0.000325345 2.77947e-05 -1.73472e-18 -0.00102701 -1.35525e-20 0)
(0.000337372 -0.000155722 0 -0.000882951 1.35525e-20 0)
(0.000290523 -4.14045e-05 -4.33681e-19 -0.000855234 1.35525e-20 0)
(0.000291844 -0.000188823 -2.60209e-18 -0.000744022 0 0)
(0.000275911 -9.38065e-05 0 -0.000721307 -1.15196e-19 0)
(0.000268793 -0.000212711 -8.67362e-19 -0.000634904 2.71051e-20 0)
(0.000275753 -0.000133717 -4.33681e-19 -0.000616302 -4.06576e-20 0)
(0.000262046 -0.000229916 8.67362e-19 -0.000548818 -3.38813e-20 0)
(0.000285825 -0.000164272 4.33681e-19 -0.000533612 0 0)
(0.000267288 -0.000242446 -1.73472e-18 -0.000480585 2.03288e-20 0)
(0.000302944 -0.000187881 -1.30104e-18 -0.000468169 4.74338e-20 0)
(0.000281421 -0.000252306 -2.60209e-18 -0.000425916 2.03288e-20 0)
(0.000324511 -0.000206334 -8.67362e-19 -0.000415637 2.03288e-20 0)
(0.000302051 -0.000262256 -1.73472e-18 -0.000380336 2.03288e-20 0)
(0.000713749 0.000212932 0 -0.00201651 -1.35525e-20 0)
(0.000608882 -0.000121672 0 -0.00160285 -2.71051e-20 0)
(0.000509773 0.000146625 8.67362e-19 -0.00158161 -5.42101e-20 0)
(0.000462363 -0.000110817 -4.33681e-19 -0.00128972 1.35525e-20 0)
(0.000382594 0.000101544 8.67362e-19 -0.00127291 -1.35525e-20 0)
(0.000360646 -0.000106734 8.67362e-19 -0.00105263 0 0)
(0.000303551 6.52847e-05 1.73472e-18 -0.00103902 -2.71051e-20 0)
(0.0002924 -0.000105114 -1.73472e-18 -0.000868728 -6.77626e-21 0)
(0.000257225 3.55854e-05 -8.67362e-19 -0.000857618 0 0)
(0.000249756 -0.000104048 4.33681e-19 -0.000724561 6.77626e-21 0)
(0.000233999 1.15089e-05 8.67362e-19 -0.000715456 2.03288e-20 0)
(0.000226606 -0.000102691 0 -0.000610963 6.77626e-21 0)
(0.000227421 -7.79014e-06 0 -0.000603507 6.77626e-21 0)
(0.000218198 -0.000100679 -1.73472e-18 -0.000521382 2.03288e-20 0)
(0.000233001 -2.32521e-05 8.67362e-19 -0.00051532 6.77626e-21 0)
(0.000220959 -9.78839e-05 0 -0.000451158 6.77626e-21 0)
(0.000247518 -3.61138e-05 0 -0.000446345 0 0)
(0.000232494 -9.43557e-05 -1.30104e-18 -0.00039732 -6.77626e-21 0)
(0.000268492 -4.85193e-05 -1.73472e-18 -0.000393774 6.77626e-21 0)
(0.000251943 -9.04582e-05 -2.1684e-18 -0.000358974 3.38813e-21 0)
(0.000327867 -8.89667e-05 0 -0.000358974 6.77626e-21 0)
(0.00032408 -3.75786e-05 -8.67362e-19 -0.000241182 0 0)
(0.000322089 -0.000252515 -4.33681e-19 -0.000378311 6.77626e-21 0)
(0.000387476 -0.000163323 0 -0.000258787 1.35525e-20 0)
(0.000383215 -0.00040237 1.73472e-18 -0.000440423 0 0)
(0.000496314 -0.000275802 -8.67362e-19 -0.000301586 0 0)
(0.000489921 -0.000531364 0 -0.000532852 0 0)
(0.00064117 -0.000365716 -8.67362e-19 -0.000364005 0 0)
(0.000633103 -0.00063225 0 -0.000647188 -2.71051e-20 0)
(0.000813359 -0.000427733 0 -0.000440089 -5.42101e-20 0)
(0.000804372 -0.000699355 8.67362e-19 -0.000774769 -5.42101e-20 0)
(0.0010037 -0.000458853 -8.67362e-19 -0.000523677 0 0)
(0.000994772 -0.000728802 4.33681e-19 -0.000905895 -2.71051e-20 0)
(0.00120258 -0.000458236 -8.67362e-19 -0.000608651 0 0)
(0.00119478 -0.000718559 1.30104e-18 -0.00102948 -5.42101e-20 0)
(0.00140036 -0.000427036 0 -0.000689343 -2.1684e-19 0)
(0.00139468 -0.000668386 0 -0.00113229 -1.0842e-19 0)
(0.00158819 -0.000367938 -8.67362e-19 -0.000761069 1.0842e-19 0)
(0.00158532 -0.000579056 4.33681e-19 -0.00119554 0 0)
(0.00175926 -0.000283858 -8.67362e-19 -0.000820672 3.25261e-19 0)
(0.000356927 -9.04359e-05 1.73472e-18 -0.000245193 -3.38813e-21 0)
(0.000372309 -5.26916e-05 1.73472e-18 -0.000180565 -3.38813e-21 0)
(0.000370583 -0.000238917 1.30104e-18 -0.000275651 5.0822e-21 0)
(0.000430593 -0.000172639 2.60209e-18 -0.000202817 6.77626e-21 0)
(0.000426888 -0.000380414 -4.33681e-19 -0.000338785 1.35525e-20 0)
(0.000526791 -0.000280631 8.67362e-19 -0.000246571 0 0)
(0.000521192 -0.000504334 4.33681e-19 -0.000429855 -1.35525e-20 0)
(0.000654562 -0.00036842 -1.73472e-18 -0.000308148 8.13152e-20 0)
(0.000647446 -0.00060343 3.03577e-18 -0.00054303 -1.0842e-19 0)
(0.000806835 -0.000430749 1.73472e-18 -0.000382484 -2.71051e-20 0)
(0.000798844 -0.000672209 8.67362e-19 -0.00067131 -1.0842e-19 0)
(0.000975778 -0.000464508 1.73472e-18 -0.000463887 0 0)
(0.000967761 -0.000706835 0 -0.000806494 5.42101e-20 0)
(0.00115299 -0.000468603 8.67362e-19 -0.000546425 1.0842e-19 0)
(0.0011459 -0.000705092 4.33681e-19 -0.000939202 5.42101e-20 0)
(0.00132975 -0.000443856 8.67362e-19 -0.000624274 1.0842e-19 0)
(0.00132452 -0.000666111 2.1684e-18 -0.00105869 -1.6263e-19 0)
(0.00149724 -0.00039279 1.73472e-18 -0.000691994 1.0842e-19 0)
(0.00149458 -0.000589212 4.33681e-19 -0.0011514 5.42101e-20 0)
(0.00164633 -0.000319216 -4.33681e-19 -0.000744536 1.0842e-19 0)
(0.000411772 -8.1233e-05 0 -0.000182654 3.38813e-21 0)
(0.000429899 -5.60867e-05 8.67362e-19 -0.000149179 -3.38813e-21 0)
(0.000428401 -0.000217618 -4.33681e-19 -0.000212465 1.69407e-21 0)
(0.000480675 -0.000169118 1.73472e-18 -0.000170854 -6.77626e-21 0)
(0.000477476 -0.000348431 -8.67362e-19 -0.00026944 2.37169e-20 0)
(0.000562679 -0.000271441 -8.67362e-19 -0.000211131 2.71051e-20 0)
(0.000557828 -0.000465137 -1.73472e-18 -0.000351251 5.42101e-20 0)
(0.000671823 -0.000356615 0 -0.000267323 0 0)
(0.000665619 -0.000561344 -1.30104e-18 -0.000453863 1.35525e-20 0)
(0.000802828 -0.00041996 -8.67362e-19 -0.000335437 2.71051e-20 0)
(0.000795802 -0.000632111 -4.33681e-19 -0.000572048 -1.35525e-20 0)
(0.000949566 -0.000458449 -8.67362e-19 -0.000410762 1.6263e-19 0)
(0.000942435 -0.000673843 1.73472e-18 -0.000699507 -5.42101e-20 0)
(0.00110528 -0.000470698 0 -0.00048823 1.0842e-19 0)
(0.00109887 -0.000684265 0 -0.000828915 5.42101e-20 0)
(0.00126277 -0.000456964 0 -0.000562693 1.6263e-19 0)
(0.00125794 -0.000662268 -2.1684e-18 -0.000951848 2.71051e-20 0)
(0.00141455 -0.000419047 1.73472e-18 -0.00062916 0 0)
(0.00141199 -0.000607243 8.67362e-19 -0.00105808 1.0842e-19 0)
(0.0015527 -0.000360092 8.67362e-19 -0.000682843 0 0)
(0.000475396 -7.04158e-05 8.67362e-19 -0.000150203 0 0)
(0.000491748 -5.49528e-05 -8.67362e-19 -0.000136034 -3.38813e-21 0)
(0.00049045 -0.000194892 -1.30104e-18 -0.000176215 -1.69407e-21 0)
(0.000534611 -0.000159977 -8.67362e-19 -0.000155372 0 0)
(0.000531855 -0.000314413 -8.67362e-19 -0.000224939 2.03288e-20 0)
(0.000603189 -0.000255827 -8.67362e-19 -0.000190701 1.35525e-20 0)
(0.000599007 -0.000422733 -2.1684e-18 -0.000295066 3.38813e-20 0)
(0.000694796 -0.000337523 -8.67362e-19 -0.000239989 1.35525e-20 0)
(0.000689426 -0.000514612 4.33681e-19 -0.000383872 -1.35525e-20 0)