/*--------------------------------*- C++ -*----------------------------------*\
| =========                 |                                                 |
| \\      /  F ield         | OpenFOAM: The Open Source CFD Toolbox           |
|  \\    /   O peration     | Version:  v2012                                 |
|   \\  /    A nd           | Website:  www.openfoam.com                      |
|    \\/     M anipulation  |                                                 |
\*---------------------------------------------------------------------------*/
FoamFile
{
    version     2.0;
    format      ascii;
    class       volScalarField;
    location    "7";
    object      epsilonEq;
}
// * * * * * * * * * * * * * * * * * * * * * * * * * * * * * * * * * * * * * //

dimensions      [0 0 0 0 0 0 0];


internalField   nonuniform List<scalar> 
250
(
0.0048269
0.00322276
0.00241184
0.00208387
0.00175835
0.00353571
0.00275415
0.00234464
0.00214259
0.00195687
0.0025883
0.00232315
0.00218831
0.00210767
0.00203518
0.00192289
0.00189829
0.00195639
0.00199562
0.0019919
0.00116736
0.00146468
0.00165777
0.00182568
0.00183867
0.000579258
0.0011084
0.00137699
0.00156953
0.00164679
0.00051339
0.000897423
0.0011695
0.00128959
0.00140754
0.000875973
0.000815893
0.00091783
0.000967986
0.0010557
0.00119001
0.000849148
0.000731829
0.000686514
0.000705569
0.00135763
0.000894713
0.000612061
0.000480147
0.000380382
0.000367194
0.00068665
0.00100908
0.0013414
0.00162922
0.000394024
0.000641285
0.000910892
0.00115632
0.00136258
0.000452303
0.000619216
0.000858403
0.00107613
0.00128989
0.000528709
0.000637069
0.000808667
0.000964712
0.00114017
0.00061557
0.000690148
0.00082504
0.000953313
0.00108587
0.000672941
0.000722287
0.000813229
0.000913897
0.00102021
0.000743374
0.000778841
0.000843124
0.000918102
0.000992402
0.000769109
0.00079371
0.000838424
0.000896669
0.000954753
0.000786232
0.000804801
0.000838383
0.000882185
0.000928992
0.000754516
0.000770901
0.000798867
0.000840903
0.000884476
0.00174233
0.00169281
0.00173728
0.00172949
0.00174678
0.00174035
0.00175519
0.00176587
0.00181107
0.00187088
0.00151452
0.00155722
0.0015977
0.00162069
0.00165071
0.00167267
0.00171052
0.00174862
0.00181391
0.00188827
0.0013818
0.00141535
0.00145376
0.00148179
0.00152137
0.00155165
0.00159939
0.0016427
0.00170931
0.00177772
0.0012493
0.00129501
0.00134293
0.00138096
0.00142402
0.00145935
0.00150413
0.00154431
0.00159818
0.00165152
0.00117377
0.00121293
0.00125228
0.00128656
0.00132132
0.0013518
0.00138558
0.00141621
0.00145278
0.00148798
0.00109983
0.00113448
0.0011712
0.00120291
0.00123305
0.0012594
0.00128478
0.00130656
0.00132889
0.00134817
0.00105422
0.00107869
0.00110827
0.00113129
0.00115382
0.00117242
0.00118813
0.0012018
0.00121144
0.00121783
0.00100535
0.00102414
0.00104535
0.00106636
0.00108365
0.00109967
0.00111035
0.0011171
0.00112066
0.00111803
0.000964427
0.000971734
0.000999452
0.00101649
0.00102979
0.00104254
0.00104522
0.00105772
0.00105858
0.00105557
0.000918137
0.000938963
0.000958775
0.000974036
0.000990332
0.00100208
0.00101476
0.00102238
0.00102507
0.00102524
0.00166552
0.00155841
0.00148827
0.00140274
0.00132235
0.00123533
0.00113513
0.00102664
0.000891965
0.000740587
0.00187591
0.00178962
0.0017091
0.00162885
0.00153694
0.00144694
0.00133985
0.00122834
0.00109974
0.000960002
0.00198793
0.00194752
0.00187094
0.00180689
0.00172094
0.00163914
0.001548
0.00144974
0.00135337
0.0012459
0.00199298
0.00200613
0.00196924
0.00192865
0.00187435
0.00180167
0.00173669
0.00165063
0.0015877
0.00151648
0.00185665
0.00188171
0.00190231
0.00188459
0.00188153
0.00184037
0.00181927
0.00177639
0.0017683
0.00176903
)
;

boundaryField
{
    back
    {
        type            empty;
    }
    left
    {
        type            symmetry;
    }
    hole
    {
        type            calculated;
        value           nonuniform List<scalar> 10(0.00502496 0.00363728 0.00260906 0.0018955 0.00108058 0.000367973 0.000305516 0.000834935 0.00119745 0.00138393);
    }
    front
    {
        type            empty;
    }
    down
    {
        type            symmetry;
    }
    right
    {
        type            calculated;
        value           nonuniform List<scalar> 
15
(
0.000756923
0.000772677
0.000799241
0.000840446
0.0008822
0.000917176
0.000936065
0.000956052
0.000972625
0.000988777
0.00100194
0.00101351
0.00102182
0.00102626
0.00102778
)
;
    }
    up
    {
        type            calculated;
        value           nonuniform List<scalar> 
15
(
0.00187291
0.00189009
0.00177945
0.00165239
0.00148835
0.00134819
0.00121769
0.00111786
0.00105527
0.00102531
0.000741067
0.000959352
0.00124606
0.00151667
0.00176967
)
;
    }
}


// ************************************************************************* //
