/*--------------------------------*- C++ -*----------------------------------*\
| =========                 |                                                 |
| \\      /  F ield         | OpenFOAM: The Open Source CFD Toolbox           |
|  \\    /   O peration     | Version:  v2012                                 |
|   \\  /    A nd           | Website:  www.openfoam.com                      |
|    \\/     M anipulation  |                                                 |
\*---------------------------------------------------------------------------*/
FoamFile
{
    version     2.0;
    format      ascii;
    class       volScalarField;
    location    "7";
    object      sigmaHyd;
}
// * * * * * * * * * * * * * * * * * * * * * * * * * * * * * * * * * * * * * //

dimensions      [1 -1 -2 0 0 0 0];


internalField   nonuniform List<scalar> 
250
(
1.50844e+08
1.42305e+08
1.3169e+08
1.06349e+08
9.63742e+07
1.34627e+08
1.24529e+08
1.12027e+08
9.74366e+07
8.80749e+07
1.08628e+08
1.01408e+08
9.23559e+07
8.51439e+07
7.83293e+07
7.93943e+07
7.58948e+07
7.12756e+07
6.86273e+07
6.46023e+07
4.58657e+07
4.80218e+07
4.90361e+07
5.06045e+07
4.99155e+07
1.61314e+07
2.05644e+07
2.62973e+07
2.85552e+07
3.51868e+07
-1.2251e+07
-3.25833e+06
6.10211e+06
1.13118e+07
2.05327e+07
-3.44833e+07
-2.2413e+07
-9.22817e+06
-2.28836e+06
8.91575e+06
-4.993e+07
-3.58556e+07
-2.09987e+07
-1.26394e+07
-1.20834e+06
-5.78574e+07
-4.26265e+07
-2.67257e+07
-1.76858e+07
-6.30906e+06
3.93885e+06
7.67749e+06
1.5332e+07
2.51483e+07
3.61353e+07
1.64896e+07
1.80181e+07
2.10738e+07
2.679e+07
3.33269e+07
2.5382e+07
2.68947e+07
2.94555e+07
3.33844e+07
3.67109e+07
3.10901e+07
3.18941e+07
3.32561e+07
3.62292e+07
3.89275e+07
3.64947e+07
3.70657e+07
3.79049e+07
3.95909e+07
4.11351e+07
3.97036e+07
3.998e+07
4.04268e+07
4.14774e+07
4.25562e+07
4.34781e+07
4.34835e+07
4.34291e+07
4.36334e+07
4.38425e+07
4.60068e+07
4.58109e+07
4.54504e+07
4.51252e+07
4.47572e+07
4.97616e+07
4.9269e+07
4.83826e+07
4.72387e+07
4.60103e+07
5.28303e+07
5.20712e+07
5.08223e+07
4.88875e+07
4.70482e+07
4.2505e+07
4.59016e+07
4.96513e+07
5.36785e+07
5.6695e+07
6.02704e+07
6.30438e+07
6.66639e+07
6.97566e+07
7.40152e+07
4.1851e+07
4.61976e+07
4.95316e+07
5.3381e+07
5.63963e+07
6.0091e+07
6.31228e+07
6.69685e+07
7.03203e+07
7.46529e+07
4.14845e+07
4.53001e+07
4.76682e+07
5.13448e+07
5.38186e+07
5.7364e+07
5.99792e+07
6.35921e+07
6.64371e+07
7.03272e+07
4.25718e+07
4.55818e+07
4.74742e+07
5.03879e+07
5.23787e+07
5.52076e+07
5.72874e+07
6.01294e+07
6.23093e+07
6.52574e+07
4.35291e+07
4.54955e+07
4.67585e+07
4.87855e+07
5.01183e+07
5.21083e+07
5.34775e+07
5.54401e+07
5.68137e+07
5.87529e+07
4.4103e+07
4.53238e+07
4.61117e+07
4.74147e+07
4.82158e+07
4.94677e+07
5.02446e+07
5.14136e+07
5.21219e+07
5.31801e+07
4.45835e+07
4.50819e+07
4.54185e+07
4.60016e+07
4.63038e+07
4.68551e+07
4.70817e+07
4.75613e+07
4.76892e+07
4.80023e+07
4.48542e+07
4.48817e+07
4.46958e+07
4.49013e+07
4.47185e+07
4.48635e+07
4.46196e+07
4.45403e+07
4.42801e+07
4.40351e+07
4.52422e+07
4.43386e+07
4.43101e+07
4.391e+07
4.34838e+07
4.30883e+07
4.24694e+07
4.23267e+07
4.1967e+07
4.15311e+07
4.53646e+07
4.47053e+07
4.38145e+07
4.30173e+07
4.23513e+07
4.16907e+07
4.13107e+07
4.09082e+07
4.05697e+07
4.03839e+07
8.34044e+07
7.91476e+07
7.15544e+07
6.69075e+07
6.00345e+07
5.4978e+07
4.82809e+07
4.26855e+07
3.57101e+07
2.93004e+07
8.00181e+07
7.67836e+07
7.11411e+07
6.76792e+07
6.21723e+07
5.83943e+07
5.28436e+07
4.86437e+07
4.28668e+07
3.80028e+07
7.40538e+07
7.39921e+07
6.97722e+07
6.85881e+07
6.43372e+07
6.25927e+07
5.84278e+07
5.62621e+07
5.21069e+07
4.94479e+07
6.3799e+07
6.75729e+07
6.57655e+07
6.71831e+07
6.51282e+07
6.53249e+07
6.31876e+07
6.27818e+07
6.072e+07
6.0112e+07
5.12359e+07
5.60628e+07
5.70245e+07
5.98941e+07
6.08305e+07
6.30576e+07
6.40471e+07
6.61361e+07
6.74631e+07
6.99439e+07
)
;

boundaryField
{
    back
    {
        type            empty;
    }
    left
    {
        type            symmetry;
    }
    hole
    {
        type            zeroGradient;
    }
    front
    {
        type            empty;
    }
    down
    {
        type            symmetry;
    }
    right
    {
        type            zeroGradient;
    }
    up
    {
        type            zeroGradient;
    }
}


// ************************************************************************* //
