/*--------------------------------*- C++ -*----------------------------------*\
| =========                 |                                                 |
| \\      /  F ield         | OpenFOAM: The Open Source CFD Toolbox           |
|  \\    /   O peration     | Version:  v2012                                 |
|   \\  /    A nd           | Website:  www.openfoam.com                      |
|    \\/     M anipulation  |                                                 |
\*---------------------------------------------------------------------------*/
FoamFile
{
    version     2.0;
    format      ascii;
    class       volScalarField;
    location    "7";
    object      sigmaEq;
}
// * * * * * * * * * * * * * * * * * * * * * * * * * * * * * * * * * * * * * //

dimensions      [1 -1 -2 0 0 0 0];


internalField   nonuniform List<scalar> 
250
(
2.43e+08
2.43e+08
1.94803e+08
1.68313e+08
1.42021e+08
2.43e+08
2.22451e+08
1.89375e+08
1.73055e+08
1.58055e+08
2.09055e+08
1.87639e+08
1.76748e+08
1.70235e+08
1.6438e+08
1.5531e+08
1.53324e+08
1.58016e+08
1.61184e+08
1.60884e+08
9.42865e+07
1.18301e+08
1.33897e+08
1.47459e+08
1.48508e+08
4.67862e+07
8.95243e+07
1.11218e+08
1.2677e+08
1.3301e+08
4.14661e+07
7.24841e+07
9.44599e+07
1.04159e+08
1.13686e+08
7.07517e+07
6.5899e+07
7.41324e+07
7.81835e+07
8.52678e+07
9.61165e+07
6.85851e+07
5.91093e+07
5.54492e+07
5.69883e+07
1.09655e+08
7.22653e+07
4.94357e+07
3.87811e+07
3.07232e+07
2.9658e+07
5.54602e+07
8.15027e+07
1.08344e+08
1.31591e+08
3.1825e+07
5.17961e+07
7.35721e+07
9.33952e+07
1.10055e+08
3.65322e+07
5.00136e+07
6.93325e+07
8.6918e+07
1.04183e+08
4.27034e+07
5.14556e+07
6.53154e+07
7.79191e+07
9.20904e+07
4.97191e+07
5.57427e+07
6.66379e+07
7.69983e+07
8.77052e+07
5.4353e+07
5.83386e+07
6.56839e+07
7.38148e+07
8.24018e+07
6.00417e+07
6.29064e+07
6.80985e+07
7.41544e+07
8.01556e+07
6.21204e+07
6.41074e+07
6.77189e+07
7.24232e+07
7.71147e+07
6.35033e+07
6.50031e+07
6.77156e+07
7.12534e+07
7.5034e+07
6.09417e+07
6.22651e+07
6.45238e+07
6.79191e+07
7.14385e+07
1.40726e+08
1.36727e+08
1.40319e+08
1.3969e+08
1.41086e+08
1.40567e+08
1.41765e+08
1.42628e+08
1.46279e+08
1.5111e+08
1.22327e+08
1.25776e+08
1.29045e+08
1.30902e+08
1.33327e+08
1.351e+08
1.38158e+08
1.41234e+08
1.46508e+08
1.52514e+08
1.11607e+08
1.14317e+08
1.17419e+08
1.19683e+08
1.2288e+08
1.25326e+08
1.29181e+08
1.32679e+08
1.38059e+08
1.43585e+08
1.00905e+08
1.04597e+08
1.08467e+08
1.11539e+08
1.15017e+08
1.17871e+08
1.21487e+08
1.24733e+08
1.29084e+08
1.33392e+08
9.48044e+07
9.7967e+07
1.01146e+08
1.03915e+08
1.06722e+08
1.09184e+08
1.11912e+08
1.14386e+08
1.1734e+08
1.20183e+08
8.88326e+07
9.1631e+07
9.45969e+07
9.71581e+07
9.95921e+07
1.0172e+08
1.03771e+08
1.05529e+08
1.07334e+08
1.0889e+08
8.51481e+07
8.71252e+07
8.95145e+07
9.13735e+07
9.31931e+07
9.46951e+07
9.59644e+07
9.70681e+07
9.78474e+07
9.83634e+07
8.12015e+07
8.27187e+07
8.44322e+07
8.6129e+07
8.75259e+07
8.88198e+07
8.96819e+07
9.02275e+07
9.05152e+07
9.03023e+07
7.7896e+07
7.84862e+07
8.0725e+07
8.21011e+07
8.31752e+07
8.42052e+07
8.44215e+07
8.5431e+07
8.55006e+07
8.52576e+07
7.41572e+07
7.58393e+07
7.74395e+07
7.86721e+07
7.99884e+07
8.09374e+07
8.19615e+07
8.25768e+07
8.27944e+07
8.28079e+07
1.34523e+08
1.25872e+08
1.20206e+08
1.13298e+08
1.06805e+08
9.9777e+07
9.16837e+07
8.29207e+07
7.20433e+07
5.98167e+07
1.51516e+08
1.44546e+08
1.38043e+08
1.31561e+08
1.24138e+08
1.16868e+08
1.08218e+08
9.92122e+07
8.88252e+07
7.75386e+07
1.60564e+08
1.573e+08
1.51114e+08
1.45941e+08
1.38999e+08
1.32392e+08
1.25031e+08
1.17094e+08
1.09311e+08
1.0063e+08
1.60972e+08
1.62033e+08
1.59054e+08
1.55775e+08
1.5139e+08
1.45519e+08
1.40271e+08
1.3332e+08
1.28238e+08
1.22485e+08
1.4996e+08
1.51984e+08
1.53648e+08
1.52217e+08
1.5197e+08
1.48645e+08
1.46941e+08
1.43477e+08
1.42824e+08
1.42883e+08
)
;

boundaryField
{
    back
    {
        type            empty;
    }
    left
    {
        type            symmetry;
    }
    hole
    {
        type            calculated;
        value           nonuniform List<scalar> 10(2.43e+08 2.43e+08 2.10732e+08 1.53098e+08 8.72778e+07 2.97209e+07 2.46763e+07 6.74371e+07 9.67169e+07 1.11779e+08);
    }
    front
    {
        type            empty;
    }
    down
    {
        type            symmetry;
    }
    right
    {
        type            calculated;
        value           nonuniform List<scalar> 
15
(
6.11361e+07
6.24085e+07
6.45541e+07
6.78822e+07
7.12546e+07
7.40796e+07
7.56053e+07
7.72196e+07
7.85581e+07
7.98627e+07
8.0926e+07
8.18608e+07
8.25315e+07
8.28906e+07
8.30131e+07
)
;
    }
    up
    {
        type            calculated;
        value           nonuniform List<scalar> 
15
(
1.51274e+08
1.52661e+08
1.43725e+08
1.33463e+08
1.20213e+08
1.08893e+08
9.83518e+07
9.02889e+07
8.52333e+07
8.28136e+07
5.98554e+07
7.74861e+07
1.00643e+08
1.225e+08
1.42935e+08
)
;
    }
}


// ************************************************************************* //
