/*--------------------------------*- C++ -*----------------------------------*\
| =========                 |                                                 |
| \\      /  F ield         | OpenFOAM: The Open Source CFD Toolbox           |
|  \\    /   O peration     | Version:  v2012                                 |
|   \\  /    A nd           | Website:  www.openfoam.com                      |
|    \\/     M anipulation  |                                                 |
\*---------------------------------------------------------------------------*/
FoamFile
{
    version     2.0;
    format      ascii;
    class       pointSymmTensorField;
    location    "1";
    object      pEpsilon;
}
// * * * * * * * * * * * * * * * * * * * * * * * * * * * * * * * * * * * * * //

dimensions      [0 0 0 0 0 0 0];


internalField   nonuniform List<symmTensor> 
1662
(
(-4.36937e-06 3.53428e-08 -2.36344e-09 1.42792e-05 8.01513e-10 -4.2332e-06)
(-5.45655e-06 1.85414e-07 0 1.46207e-05 2.82315e-08 -3.99821e-06)
(-5.11047e-05 -3.60326e-06 0 1.25782e-05 -9.46013e-07 1.41896e-05)
(0.00010871 -5.44206e-05 0 0 0 0)
(-0.000105746 -5.11522e-05 0 0 0 0)
(7.34528e-06 1.08723e-06 4.03175e-07 9.78592e-07 -6.06779e-07 -1.21947e-05)
(1.4291e-06 1.1904e-07 -1.09311e-07 4.09315e-06 2.19758e-07 -1.0102e-05)
(1.13534e-05 1.46259e-06 5.32013e-07 -1.05488e-06 -4.64939e-07 -1.0655e-05)
(2.10161e-07 6.16367e-07 1.93552e-08 6.7515e-06 3.345e-07 -8.87155e-06)
(4.32505e-05 -2.33758e-07 3.07359e-07 -1.44612e-05 -7.00819e-07 -1.39709e-05)
(4.97294e-05 1.34708e-05 1.40602e-07 -7.55151e-06 -8.3719e-07 -1.53738e-05)
(5.18748e-05 -5.62507e-05 -3.15275e-07 3.55798e-05 -7.68339e-07 -2.81569e-05)
(9.95583e-05 -0.000130105 -7.27166e-07 8.31138e-05 -1.29592e-06 -3.11265e-05)
(-7.12745e-06 7.60327e-06 -2.98417e-07 3.8199e-05 -4.09299e-08 -1.37642e-05)
(-1.02452e-05 -4.74657e-07 -1.88082e-07 3.54065e-05 1.34055e-07 -1.29142e-05)
(-2.65065e-05 -8.62115e-06 3.82294e-07 6.17446e-06 4.80883e-07 6.32144e-06)
(2.69485e-05 -9.63873e-06 -3.87926e-07 -6.23375e-06 4.02382e-07 -6.66862e-06)
(-3.81778e-06 1.51177e-07 6.22195e-08 1.23742e-05 5.11027e-08 -3.96118e-06)
(-1.54042e-06 5.3256e-09 0 1.33273e-05 6.64837e-08 -5.1322e-06)
(-1.28663e-05 -4.03596e-05 -4.97114e-07 0.000131912 -6.66567e-07 -2.22252e-05)
(1.27756e-06 -4.02058e-05 -2.95326e-07 6.00773e-05 -2.8918e-07 -2.12842e-05)
(1.79956e-05 -9.3612e-07 0 -5.79346e-06 -3.00622e-07 -4.80516e-06)
(0.000173049 -4.36141e-05 -3.6816e-07 -2.72036e-05 -1.29803e-06 -2.52768e-05)
(7.88519e-05 -4.26864e-05 -2.00981e-08 -6.79506e-06 -9.04147e-07 -2.31712e-05)
(-5.49627e-05 -2.19086e-06 -2.65979e-07 1.65278e-05 -1.23499e-06 1.38244e-05)
(-0.00011176 -4.67041e-05 2.93494e-05 0 0 0)
(-2.63904e-05 -9.46066e-06 -1.11273e-06 6.4143e-06 -7.7379e-08 6.066e-06)
(2.68366e-05 -1.08725e-05 1.28396e-06 -6.72678e-06 -8.12235e-08 -6.41859e-06)
(0.000115445 -4.97534e-05 -3.21793e-05 0 0 0)
(1.06951e-05 1.17754e-06 -9.75822e-07 -2.0785e-06 -8.83404e-07 -7.74949e-06)
(4.20593e-05 -1.57723e-06 -6.61818e-06 -1.67012e-05 -4.39758e-06 -1.21449e-05)
(-5.43688e-05 -2.62073e-06 8.53147e-07 1.66803e-05 2.97996e-07 1.34196e-05)
(6.9904e-05 -4.49243e-05 -1.41794e-05 -5.95718e-06 6.52758e-06 -2.60156e-05)
(4.81335e-05 -4.89552e-05 8.97084e-06 2.96052e-05 5.24084e-06 -3.17106e-05)
(-5.11665e-05 -3.29724e-06 -8.29202e-07 1.24808e-05 5.07991e-07 1.37628e-05)
(1.93662e-05 -9.66513e-07 2.35799e-07 -6.95398e-06 2.83714e-07 -4.77375e-06)
(1.31969e-06 -4.34664e-05 3.9927e-06 5.30903e-05 -1.45061e-05 -2.23531e-05)
(-1.65657e-06 -2.19368e-09 -6.20002e-08 1.33888e-05 -1.06247e-07 -5.13629e-06)
(-1.24044e-05 -1.52855e-06 -4.2901e-06 3.46792e-05 -5.72973e-06 -1.11285e-05)
(-3.82427e-06 2.39472e-07 -2.26576e-08 1.25508e-05 8.86514e-08 -4.02505e-06)
(-7.16177e-07 4.76049e-07 -8.35129e-07 6.46756e-06 -8.87252e-07 -6.40659e-06)
(-5.44219e-06 1.91986e-07 1.37306e-08 1.4628e-05 -7.36123e-09 -4.00621e-06)
(-4.37011e-06 4.66009e-08 1.04279e-08 1.42806e-05 5.14677e-09 -4.24531e-06)
(4.69326e-05 1.10095e-05 -1.03301e-05 -1.07314e-05 -8.24863e-06 -1.3239e-05)
(6.26228e-06 6.23733e-07 -1.064e-06 -3.283e-07 -1.48597e-06 -8.49621e-06)
(0.000159486 -4.76214e-05 -3.00859e-05 -2.47554e-05 6.11605e-06 -3.07472e-05)
(9.46121e-05 -0.000117832 1.32136e-05 7.47568e-05 3.51499e-06 -3.93337e-05)
(-1.17085e-05 -4.52208e-05 3.6718e-06 0.000119983 -2.96156e-05 -2.49314e-05)
(-1.00466e-05 5.67341e-06 -7.71589e-06 3.60765e-05 -9.18363e-06 -1.16241e-05)
(2.88577e-07 -2.1036e-07 -1.32946e-06 3.33345e-06 -1.01781e-06 -7.00594e-06)
(-4.49633e-06 7.45933e-08 -1.24425e-09 1.43181e-05 2.85672e-09 -4.20279e-06)
(-4.80643e-06 1.06617e-07 -7.2449e-10 1.44261e-05 1.07495e-08 -4.13894e-06)
(-5.14169e-06 8.76654e-08 -7.4286e-10 1.45302e-05 1.95535e-08 -4.06851e-06)
(-5.37518e-06 4.64031e-08 -5.30869e-10 1.4598e-05 2.59415e-08 -4.01684e-06)
(-5.14522e-06 1.91082e-07 0 1.45878e-05 2.81344e-08 -4.06161e-06)
(-4.89232e-06 1.94989e-07 0 1.45433e-05 2.86476e-08 -4.13836e-06)
(-4.67142e-06 1.97841e-07 0 1.45297e-05 3.04165e-08 -4.22405e-06)
(-4.45765e-06 1.9963e-07 0 1.45259e-05 3.30987e-08 -4.31571e-06)
(-4.22635e-06 1.99575e-07 0 1.45124e-05 3.6588e-08 -4.41382e-06)
(-3.95145e-06 1.96064e-07 0 1.44698e-05 4.09376e-08 -4.52096e-06)
(-3.60383e-06 1.86495e-07 0 1.43758e-05 4.62223e-08 -4.64086e-06)
(-3.14969e-06 1.6701e-07 0 1.42034e-05 5.24586e-08 -4.77806e-06)
(-2.54915e-06 1.32179e-07 0 1.39191e-05 5.94906e-08 -4.93865e-06)
(1.76848e-06 2.05806e-09 0 1.17461e-05 7.34175e-08 -5.53884e-06)
(5.75536e-06 -1.75409e-07 0 8.71729e-06 5.34713e-08 -5.91046e-06)
(1.07992e-05 -4.40827e-07 0 4.18186e-06 -5.94048e-09 -6.11552e-06)
(1.56741e-05 -7.24468e-07 0 -1.24148e-06 -1.22962e-07 -5.8678e-06)
(-5.46314e-05 2.9525e-06 -5.67713e-08 1.42634e-05 -1.04326e-06 1.5334e-05)
(-5.85063e-05 3.18637e-06 -9.7011e-08 1.59014e-05 -1.21558e-06 1.62446e-05)
(-6.2404e-05 2.45247e-06 -1.52246e-07 1.77577e-05 -1.33435e-06 1.65598e-05)
(-6.22371e-05 4.42328e-07 -2.12748e-07 1.83043e-05 -1.35016e-06 1.58557e-05)
(3.50012e-05 -9.46771e-06 -3.86773e-07 -9.22564e-06 5.48814e-07 -8.59225e-06)
(4.2817e-05 -9.34266e-06 -3.85067e-07 -1.12974e-05 6.90008e-07 -1.04737e-05)
(5.04414e-05 -9.01525e-06 -3.74097e-07 -1.32797e-05 8.25512e-07 -1.23682e-05)
(5.79885e-05 -8.44525e-06 -3.43252e-07 -1.534e-05 9.62973e-07 -1.43578e-05)
(6.69483e-05 -7.519e-06 -2.7379e-07 -1.78719e-05 1.11354e-06 -1.65816e-05)
(7.96835e-05 -6.71327e-06 -8.06761e-08 -2.13988e-05 1.28467e-06 -1.92366e-05)
(9.4631e-05 -7.94401e-06 2.10302e-07 -2.63784e-05 1.45697e-06 -2.20005e-05)
(0.000107041 -1.4425e-05 4.28333e-07 -3.06597e-05 1.42006e-06 -2.29119e-05)
(0.00011038 -3.31313e-05 1.66347e-07 -2.82251e-05 7.82766e-07 -1.77697e-05)
(5.04942e-05 -2.61954e-05 0 0 0 0)
(1.59122e-05 -2.09901e-05 0 0 0 0)
(-1.24848e-05 -2.08275e-05 0 0 0 0)
(-4.6768e-05 -2.55057e-05 0 0 0 0)
(-0.000106212 -3.0782e-05 -1.12303e-07 2.56465e-05 7.40283e-07 1.61668e-05)
(-0.000101493 -1.37413e-05 -3.77197e-07 2.77091e-05 1.32168e-06 2.07579e-05)
(-8.88839e-05 -8.27698e-06 -1.79244e-07 2.37089e-05 1.37504e-06 1.99179e-05)
(-7.42696e-05 -7.34482e-06 7.5382e-08 1.95219e-05 1.22743e-06 1.75522e-05)
(-6.31211e-05 -8.16588e-06 2.5478e-07 1.6429e-05 1.10529e-06 1.53437e-05)
(-5.54167e-05 -8.72523e-06 3.1278e-07 1.41782e-05 9.69347e-07 1.33566e-05)
(-4.79521e-05 -8.95322e-06 3.42414e-07 1.21587e-05 8.41412e-07 1.14983e-05)
(-4.05274e-05 -9.03816e-06 3.59147e-07 1.01969e-05 7.17354e-07 9.7172e-06)
(-3.31236e-05 -9.02424e-06 3.71894e-07 8.22759e-06 5.97911e-07 7.99599e-06)
(-2.1206e-05 -8.26832e-06 3.92131e-07 4.62418e-06 3.97586e-07 5.09579e-06)
(-1.64236e-05 -7.79501e-06 4.06706e-07 3.28918e-06 3.17243e-07 3.89908e-06)
(-1.15985e-05 -7.13221e-06 4.2384e-07 2.01296e-06 2.40592e-07 2.7038e-06)
(-6.74511e-06 -6.35761e-06 4.45305e-07 7.43306e-07 1.67175e-07 1.49083e-06)
(-1.91624e-06 -5.5076e-06 4.72993e-07 -5.24371e-07 9.75972e-08 2.5371e-07)
(2.80281e-06 -4.60126e-06 5.08379e-07 -1.7695e-06 3.32464e-08 -1.00754e-06)
(7.28977e-06 -3.64924e-06 5.51996e-07 -2.94988e-06 -2.44985e-08 -2.29409e-06)
(1.13664e-05 -2.65349e-06 6.0197e-07 -3.99193e-06 -7.57238e-08 -3.61813e-06)
(1.47468e-05 -1.5987e-06 6.5091e-07 -4.76318e-06 -1.24783e-07 -5.01694e-06)
(1.68835e-05 -4.29348e-07 6.80456e-07 -5.00414e-06 -1.85181e-07 -6.57136e-06)
(1.64552e-05 1.0265e-06 6.5485e-07 -4.14616e-06 -2.857e-07 -8.41643e-06)
(-2.1417e-06 6.70866e-07 1.64129e-07 1.04657e-05 4.43016e-07 -7.14088e-06)
(-3.22236e-06 9.32637e-08 2.21131e-07 1.18226e-05 4.59376e-07 -5.92857e-06)
(-3.68169e-06 -1.95239e-07 2.27512e-07 1.2179e-05 4.20357e-07 -5.15146e-06)
(-3.85644e-06 -3.28384e-07 2.11171e-07 1.22108e-05 3.59453e-07 -4.66614e-06)
(-3.89978e-06 -3.69295e-07 1.87026e-07 1.21463e-05 2.95368e-07 -4.36603e-06)
(-3.88675e-06 -3.53201e-07 1.62007e-07 1.20721e-05 2.36783e-07 -4.18199e-06)
(-3.85548e-06 -3.01684e-07 1.38895e-07 1.20236e-05 1.86838e-07 -4.07106e-06)
(-3.82511e-06 -2.28775e-07 1.18524e-07 1.20142e-05 1.45908e-07 -4.00687e-06)
(-3.80446e-06 -1.4382e-07 1.00922e-07 1.20471e-05 1.13134e-07 -3.97296e-06)
(-3.79666e-06 -5.29223e-08 8.58627e-08 1.212e-05 8.72198e-08 -3.95862e-06)
(-3.80163e-06 4.01333e-08 7.30999e-08 1.22282e-05 6.68497e-08 -3.9564e-06)
(-3.85783e-06 2.12466e-07 5.00787e-08 1.25495e-05 3.50137e-08 -3.97364e-06)
(-3.91596e-06 2.74146e-07 3.99031e-08 1.27558e-05 2.37126e-08 -3.99812e-06)
(-3.98389e-06 3.08706e-07 3.10043e-08 1.29976e-05 1.58252e-08 -4.03176e-06)
(-4.05586e-06 3.19552e-07 2.30393e-08 1.32557e-05 1.04294e-08 -4.07095e-06)
(-4.12822e-06 3.09638e-07 1.58823e-08 1.35133e-05 6.86228e-09 -4.11203e-06)
(-4.1984e-06 2.80649e-07 9.55506e-09 1.37558e-05 4.61197e-09 -4.1515e-06)
(-4.26387e-06 2.32978e-07 4.19786e-09 1.39689e-05 3.24387e-09 -4.18608e-06)
(-4.32081e-06 1.66749e-07 8.15035e-11 1.41375e-05 2.36031e-09 -4.2128e-06)
(-4.36163e-06 8.49427e-08 -2.33497e-09 1.4244e-05 1.59818e-09 -4.22908e-06)
(-3.79493e-06 -1.51008e-08 5.74292e-08 1.37656e-05 4.98317e-08 -4.23258e-06)
(-3.47255e-06 -4.9421e-07 4.75792e-08 1.44075e-05 6.16295e-08 -4.58336e-06)
(-2.70601e-06 -8.27542e-07 3.30223e-08 1.43029e-05 6.98378e-08 -4.85862e-06)
(-1.94496e-06 -6.7024e-07 1.61758e-08 1.38786e-05 6.9814e-08 -5.03416e-06)
(-1.5692e-05 -1.57483e-05 3.57498e-07 4.48712e-06 5.02214e-07 4.29583e-06)
(-4.3506e-06 -2.33843e-05 1.47783e-07 1.1497e-06 5.16288e-07 1.30148e-06)
(7.50269e-06 -2.33034e-05 -1.10693e-07 -1.78722e-06 4.94103e-07 -1.97406e-06)
(1.96451e-05 -1.5993e-05 -3.43735e-07 -4.50316e-06 4.40329e-07 -4.93827e-06)
(3.64039e-05 -1.24027e-05 4.68808e-07 -1.22932e-05 -5.93662e-07 -1.05071e-05)
(2.5993e-05 -1.87408e-05 4.82991e-07 -8.36963e-06 -5.1964e-07 -7.38659e-06)
(1.73549e-05 -2.23143e-05 4.06175e-07 -5.50432e-06 -4.51455e-07 -4.86628e-06)
(1.08492e-05 -2.44961e-05 2.85794e-07 -3.62439e-06 -3.77938e-07 -2.95806e-06)
(6.16588e-06 -2.56878e-05 1.49038e-07 -2.42975e-06 -2.96184e-07 -1.6369e-06)
(3.10645e-06 -2.59945e-05 1.07811e-08 -1.75324e-06 -2.07888e-07 -8.81455e-07)
(1.62545e-06 -2.54454e-05 -1.20174e-07 -1.53701e-06 -1.16909e-07 -6.78544e-07)
(1.80572e-06 -2.40654e-05 -2.37001e-07 -1.80019e-06 -2.71781e-08 -1.01611e-06)
(3.83834e-06 -2.18997e-05 -3.31713e-07 -2.61912e-06 6.0664e-08 -1.86821e-06)
(8.01678e-06 -1.90214e-05 -3.92318e-07 -4.11725e-06 1.55203e-07 -3.1718e-06)
(1.47538e-05 -1.5525e-05 -4.04387e-07 -6.45409e-06 2.76769e-07 -4.80642e-06)
(3.6471e-05 -1.65954e-05 -3.05864e-07 2.41131e-05 -7.34874e-07 -2.21954e-05)
(2.43396e-05 -7.34628e-06 -3.92789e-07 1.56769e-05 -8.57659e-07 -1.61434e-05)
(1.47963e-05 -3.85303e-06 -4.41062e-07 1.06293e-05 -9.70962e-07 -1.07103e-05)
(6.57963e-06 -1.89918e-06 -4.31133e-07 7.55902e-06 -1.03904e-06 -6.05923e-06)
(-1.13026e-06 -6.10129e-07 -3.79288e-07 5.93899e-06 -1.06793e-06 -2.10306e-06)
(-8.75394e-06 2.12383e-07 -3.05076e-07 5.47773e-06 -1.07068e-06 1.29493e-06)
(-1.64687e-05 5.97005e-07 -2.23596e-07 5.96389e-06 -1.05779e-06 4.24804e-06)
(-2.42788e-05 5.33566e-07 -1.45627e-07 7.19966e-06 -1.03661e-06 6.83112e-06)
(-3.20476e-05 2.01664e-08 -7.95523e-08 8.95978e-06 -1.01276e-06 9.08582e-06)
(-3.95222e-05 -9.09483e-07 -3.32995e-08 1.09591e-05 -9.90808e-07 1.10327e-05)
(-4.63845e-05 -2.15877e-06 -1.33754e-08 1.28198e-05 -9.71938e-07 1.26939e-05)
(-8.24201e-06 -8.15072e-06 -1.13358e-07 3.18442e-05 3.00075e-07 -1.08622e-05)
(-5.15188e-06 -1.0254e-05 -7.83352e-08 2.56782e-05 3.30909e-07 -9.23785e-06)
(-2.939e-06 -1.00384e-05 -5.70079e-08 2.0791e-05 2.99335e-07 -8.06619e-06)
(-1.48935e-06 -8.99269e-06 -4.14477e-08 1.7327e-05 2.47988e-07 -7.23741e-06)
(-5.75249e-07 -7.64286e-06 -2.83168e-08 1.49459e-05 1.97155e-07 -6.65204e-06)
(-5.97097e-08 -6.20933e-06 -1.67223e-08 1.33826e-05 1.54867e-07 -6.23626e-06)
(1.39974e-07 -4.80567e-06 -6.81522e-09 1.24538e-05 1.23039e-07 -5.93715e-06)
(8.0818e-08 -3.50192e-06 9.12173e-10 1.20255e-05 1.00793e-07 -5.71629e-06)
(-1.89244e-07 -2.34679e-06 5.84418e-09 1.19865e-05 8.60966e-08 -5.54504e-06)
(-6.21765e-07 -1.3753e-06 7.21121e-09 1.22318e-05 7.64758e-08 -5.40172e-06)
(-1.16403e-06 -6.0975e-07 4.31881e-09 1.2654e-05 6.95841e-08 -5.26938e-06)
(1.1626e-05 3.22397e-06 3.96628e-07 6.67876e-08 -6.43402e-07 -1.22786e-05)
(1.70845e-05 7.19322e-06 3.56105e-07 -1.72082e-06 -6.86174e-07 -1.26663e-05)
(2.53801e-05 1.07024e-05 2.94153e-07 -3.61653e-06 -7.31741e-07 -1.33338e-05)
(3.6419e-05 1.28935e-05 2.2001e-07 -5.62323e-06 -7.80765e-07 -1.42491e-05)
(5.08972e-05 -4.26215e-06 2.38116e-07 -1.63546e-05 -7.49904e-07 -1.53521e-05)
(5.97386e-05 -1.07561e-05 1.59711e-07 -1.84639e-05 -7.87059e-07 -1.69304e-05)
(7.06176e-05 -2.15307e-05 7.86611e-08 -1.94885e-05 -8.15785e-07 -1.87673e-05)
(7.76442e-05 -3.32164e-05 2.68871e-08 -1.57168e-05 -8.66365e-07 -2.09441e-05)
(4.29277e-05 -5.65899e-05 -3.44259e-07 4.30872e-05 -6.66335e-07 -2.76485e-05)
(3.40117e-05 -5.61427e-05 -3.49109e-07 4.96011e-05 -5.61649e-07 -2.66242e-05)
(2.36273e-05 -5.371e-05 -3.37073e-07 5.49086e-05 -4.61137e-07 -2.51397e-05)
(1.22097e-05 -4.86513e-05 -3.20487e-07 5.86209e-05 -3.70734e-07 -2.32884e-05)
(-4.957e-06 7.69841e-06 -2.58032e-07 2.69514e-05 4.11373e-08 -1.25978e-05)
(-2.94601e-06 6.14449e-06 -2.18649e-07 1.82385e-05 1.12992e-07 -1.16202e-05)
(-1.17716e-06 3.69894e-06 -1.79666e-07 1.19851e-05 1.7189e-07 -1.08619e-05)
(5.31128e-07 1.28311e-06 -1.41839e-07 7.79614e-06 2.11464e-07 -1.03492e-05)
(1.54851e-05 3.29267e-06 5.2788e-07 -2.31641e-06 -5.09473e-07 -1.07324e-05)
(2.13075e-05 5.41173e-06 4.91638e-07 -5.19522e-06 -5.57191e-07 -1.11352e-05)
(2.84175e-05 5.31364e-06 4.36737e-07 -8.73375e-06 -6.04442e-07 -1.18335e-05)
(3.57199e-05 3.13601e-06 3.73314e-07 -1.19721e-05 -6.51752e-07 -1.27913e-05)
(6.60787e-05 1.29693e-05 6.19017e-08 -1.01725e-05 -9.09295e-07 -1.66608e-05)
(9.19881e-05 9.44356e-06 -1.03059e-07 -1.53339e-05 -9.41505e-07 -1.81288e-05)
(0.000125037 -1.21601e-06 -2.26474e-07 -2.23572e-05 -1.01529e-06 -2.01497e-05)
(0.000153771 -1.92935e-05 -3.02943e-07 -2.82371e-05 -1.14453e-06 -2.26394e-05)
(6.72772e-05 -0.000124761 -7.42783e-07 0.000109764 -1.18564e-06 -3.03298e-05)
(3.73211e-05 -0.000111035 -7.26314e-07 0.000130609 -1.05685e-06 -2.89281e-05)
(1.25725e-05 -9.00265e-05 -6.71405e-07 0.000142423 -9.22707e-07 -2.69785e-05)
(-4.29175e-06 -6.505e-05 -5.84276e-07 0.000142781 -7.94767e-07 -2.46511e-05)
(-8.19148e-06 2.24071e-06 -1.47635e-07 2.85278e-05 1.92658e-07 -1.16808e-05)
(-5.68879e-06 3.65978e-06 -1.07179e-07 2.21118e-05 2.47173e-07 -1.06245e-05)
(-3.05202e-06 3.4848e-06 -6.51925e-08 1.6084e-05 2.94427e-07 -9.78306e-06)
(-8.41039e-07 1.887e-06 -2.15797e-08 1.09991e-05 3.27585e-07 -9.19057e-06)
(1.96378e-05 -3.305e-05 -3.02635e-07 2.99676e-05 -8.85193e-08 -1.91681e-05)
(2.3752e-05 -2.74258e-05 -3.67639e-07 1.69041e-05 -1.50958e-08 -1.66119e-05)
(2.41311e-05 -2.24724e-05 -4.24505e-07 9.45974e-06 -1.87459e-08 -1.4148e-05)
(2.34243e-05 -1.848e-05 -4.49843e-07 4.63022e-06 -5.95527e-08 -1.19731e-05)
(2.24363e-05 -1.51861e-05 -4.42558e-07 1.27395e-06 -1.12013e-07 -1.01382e-05)
(2.14432e-05 -1.23749e-05 -4.09132e-07 -1.13781e-06 -1.62924e-07 -8.63187e-06)
(2.05396e-05 -9.90175e-06 -3.57256e-07 -2.88624e-06 -2.06623e-07 -7.42047e-06)
(1.97545e-05 -7.67058e-06 -2.93498e-07 -4.1364e-06 -2.41392e-07 -6.46755e-06)
(1.90944e-05 -5.61348e-06 -2.22823e-07 -4.99226e-06 -2.6735e-07 -5.74294e-06)
(1.85617e-05 -3.67757e-06 -1.48879e-07 -5.52299e-06 -2.85384e-07 -5.22712e-06)
(1.81615e-05 -1.81582e-06 -7.43275e-08 -5.77729e-06 -2.96525e-07 -4.91323e-06)
(-4.55137e-05 -4.64475e-06 -2.9111e-07 1.53689e-05 -1.22548e-06 1.17675e-05)
(-3.73132e-05 -8.55902e-06 -2.76976e-07 1.35913e-05 -1.21065e-06 9.49799e-06)
(-3.00527e-05 -1.19446e-05 -2.39282e-07 1.27636e-05 -1.21019e-06 7.01697e-06)
(-2.34621e-05 -1.48966e-05 -1.85476e-07 1.26917e-05 -1.21754e-06 4.37008e-06)
(-1.72907e-05 -1.75082e-05 -1.20262e-07 1.32252e-05 -1.22326e-06 1.57223e-06)
(-1.12833e-05 -1.98844e-05 -4.74217e-08 1.42559e-05 -1.21835e-06 -1.39525e-06)
(-5.14303e-06 -2.21602e-05 2.86443e-08 1.56941e-05 -1.19388e-06 -4.57261e-06)
(1.53515e-06 -2.45259e-05 1.00715e-07 1.74214e-05 -1.14122e-06 -8.00439e-06)
(9.4228e-06 -2.72545e-05 1.55523e-07 1.91759e-05 -1.05536e-06 -1.17123e-05)
(1.99171e-05 -3.06625e-05 1.70128e-07 2.01874e-05 -9.44854e-07 -1.56475e-05)
(3.69282e-05 -3.48297e-05 1.1228e-07 1.74354e-05 -8.55231e-07 -1.96124e-05)
(0.000180141 -7.02795e-05 -4.50592e-07 -1.82827e-05 -1.40182e-06 -2.76772e-05)
(0.000174491 -9.56683e-05 -5.39446e-07 -8.59956e-07 -1.45246e-06 -2.95797e-05)
(0.000156892 -0.000115809 -6.24104e-07 2.39598e-05 -1.44586e-06 -3.08122e-05)
(0.000130516 -0.000127535 -6.89765e-07 5.31893e-05 -1.38769e-06 -3.13124e-05)
(-1.55013e-05 -1.99995e-05 -4.54862e-07 0.000112226 -5.15781e-07 -1.99592e-05)
(-1.3691e-05 -5.45408e-06 -4.41523e-07 8.59741e-05 -3.41238e-07 -1.8005e-05)
(-1.08475e-05 2.17791e-06 -3.8587e-07 6.47795e-05 -2.33443e-07 -1.6519e-05)
(-9.19914e-06 5.66342e-06 -3.40537e-07 5.11818e-05 -1.32602e-07 -1.50854e-05)
(7.74117e-05 -4.93343e-05 -6.83508e-08 3.35189e-06 -9.19601e-07 -2.51629e-05)
(7.36765e-05 -5.33494e-05 -1.24733e-07 1.27887e-05 -9.1488e-07 -2.67205e-05)
(6.81537e-05 -5.56208e-05 -1.89095e-07 2.09207e-05 -8.92422e-07 -2.774e-05)
(6.07334e-05 -5.63582e-05 -2.58145e-07 2.80504e-05 -8.45694e-07 -2.82039e-05)
(-6.92989e-06 -2.93363e-05 -2.95832e-07 5.86418e-05 -1.8653e-07 -1.93374e-05)
(-1.11341e-05 -1.84482e-05 -2.96918e-07 5.42795e-05 -8.54088e-08 -1.75178e-05)
(-1.19353e-05 -1.03847e-05 -2.65992e-07 4.88251e-05 -3.58184e-09 -1.58503e-05)
(-1.16636e-05 -4.52577e-06 -2.28601e-07 4.24263e-05 6.99883e-08 -1.43046e-05)
(-4.07277e-05 -3.96845e-06 -3.09674e-07 1.24544e-05 -9.84352e-07 1.05018e-05)
(-2.25859e-05 -4.13518e-06 -3.33029e-07 7.34974e-06 -6.35903e-07 6.24456e-06)
(-3.59617e-06 -3.11494e-06 -3.27055e-07 2.44021e-06 -2.398e-07 1.56528e-06)
(1.5883e-05 -1.56617e-06 -3.24042e-07 -1.97436e-06 1.13234e-07 -2.91357e-06)
(1.51773e-05 -1.07887e-06 0 -7.33246e-06 -5.13451e-07 -2.62743e-06)
(5.96966e-06 -1.25745e-06 0 -4.85778e-06 -7.13734e-07 7.50046e-07)
(-8.73978e-06 -1.53411e-06 0 7.90604e-07 -8.59709e-07 5.09408e-06)
(-2.65625e-05 -1.80681e-06 0 7.38779e-06 -9.48673e-07 9.80888e-06)
(-0.000108085 -2.63856e-05 1.43843e-05 2.55233e-05 -3.52744e-06 2.29657e-05)
(-9.82154e-05 -1.16957e-05 -7.55517e-07 2.6834e-05 -1.69524e-06 2.26469e-05)
(-8.52842e-05 -8.63489e-06 -3.13387e-06 2.34567e-05 -7.11323e-07 1.95239e-05)
(-7.22223e-05 -8.38267e-06 -2.53003e-06 1.98762e-05 -2.83112e-07 1.65372e-05)
(-6.23217e-05 -9.20553e-06 -1.70781e-06 1.69544e-05 -2.2628e-07 1.44827e-05)
(-5.51243e-05 -9.70815e-06 -1.36759e-06 1.47137e-05 -2.12666e-07 1.2738e-05)
(-4.78329e-05 -9.89022e-06 -1.24592e-06 1.26382e-05 -1.90031e-07 1.10247e-05)
(-4.04638e-05 -9.94029e-06 -1.16984e-06 1.06044e-05 -1.60786e-07 9.32816e-06)
(-3.30484e-05 -9.88733e-06 -1.08622e-06 8.55571e-06 -1.25015e-07 7.66264e-06)
(-1.55635e-05 -1.69226e-05 -6.56377e-07 4.7504e-06 -3.50782e-07 4.36743e-06)
(-4.22963e-06 -2.49898e-05 -1.40026e-07 1.2636e-06 -6.70939e-07 1.35426e-06)
(7.61998e-06 -2.5e-05 3.62647e-07 -2.0279e-06 -6.9914e-07 -1.8818e-06)
(1.97928e-05 -1.74157e-05 8.44394e-07 -4.96054e-06 -3.76933e-07 -4.98483e-06)
(3.50125e-05 -1.06125e-05 1.32189e-06 -9.64439e-06 -1.38363e-07 -8.3717e-06)
(4.28207e-05 -1.03765e-05 1.23209e-06 -1.17391e-05 -1.53347e-07 -1.01504e-05)
(5.03973e-05 -1.00356e-05 1.26116e-06 -1.37806e-05 -1.7334e-07 -1.1907e-05)
(5.77671e-05 -9.52854e-06 1.45474e-06 -1.58902e-05 -1.82632e-07 -1.36817e-05)
(6.60445e-05 -8.74074e-06 2.05586e-06 -1.83826e-05 -1.90969e-07 -1.56316e-05)
(7.72974e-05 -7.94302e-06 3.12012e-06 -2.16237e-05 -3.37093e-07 -1.82113e-05)
(9.0613e-05 -8.40873e-06 3.5471e-06 -2.59193e-05 -8.5481e-07 -2.16852e-05)
(0.000103441 -1.21966e-05 6.95193e-07 -2.95266e-05 -1.89825e-06 -2.49702e-05)
(0.000112504 -2.84115e-05 -1.5877e-05 -2.79864e-05 -3.95317e-06 -2.51361e-05)
(5.48197e-05 -2.17669e-05 -1.96156e-05 0 0 0)
(1.7824e-05 -1.65347e-05 -6.73806e-06 0 0 0)
(-1.38356e-05 -1.64095e-05 5.22312e-06 0 0 0)
(-5.05927e-05 -2.11807e-05 1.78442e-05 0 0 0)
(-0.000106082 -5.00418e-05 1.21251e-05 0 0 0)
(-2.64701e-05 -8.81572e-06 -3.70042e-07 6.20646e-06 1.40432e-07 6.19372e-06)
(2.69691e-05 -9.87361e-06 4.53363e-07 -6.25459e-06 1.20721e-07 -6.5436e-06)
(0.000109209 -5.32464e-05 -1.33272e-05 0 0 0)
(-2.10468e-05 -9.09107e-06 -1.09829e-06 4.79206e-06 -5.05809e-08 4.80339e-06)
(-1.62153e-05 -8.57302e-06 -9.93173e-07 3.3906e-06 -4.75491e-08 3.66705e-06)
(-1.13268e-05 -7.86694e-06 -9.87776e-07 2.04879e-06 -4.42713e-08 2.52e-06)
(-6.39976e-06 -7.04759e-06 -9.96217e-07 7.17439e-07 -3.91744e-08 1.33676e-06)
(-1.487e-06 -6.14083e-06 -9.88564e-07 -6.08017e-07 -3.45039e-08 1.19529e-07)
(3.32938e-06 -5.15682e-06 -9.52648e-07 -1.91015e-06 -3.35063e-08 -1.1201e-06)
(7.92581e-06 -4.1006e-06 -8.85568e-07 -3.15322e-06 -4.10338e-08 -2.36468e-06)
(1.21055e-05 -2.97452e-06 -7.95232e-07 -4.27447e-06 -6.50762e-08 -3.59066e-06)
(1.55258e-05 -1.77657e-06 -7.07545e-07 -5.15786e-06 -1.19214e-07 -4.76704e-06)
(1.75167e-05 -4.94194e-07 -6.77985e-07 -5.56466e-06 -2.27649e-07 -5.85471e-06)
(1.65852e-05 9.3712e-07 -8.15379e-07 -4.93399e-06 -4.39581e-07 -6.81788e-06)
(1.48884e-05 2.95129e-06 -1.35285e-06 -3.42036e-06 -1.72196e-06 -7.98802e-06)
(2.07258e-05 4.97754e-06 -2.22683e-06 -6.53522e-06 -3.10096e-06 -8.59296e-06)
(2.77872e-05 4.68626e-06 -3.48538e-06 -1.0426e-05 -3.97972e-06 -9.50744e-06)
(3.49097e-05 2.19803e-06 -4.96603e-06 -1.39987e-05 -4.37519e-06 -1.06966e-05)
(3.67102e-05 -1.38374e-05 -3.61342e-06 -1.4737e-05 -1.35637e-06 -9.61179e-06)
(2.68505e-05 -2.04699e-05 -2.01613e-06 -1.04523e-05 -2.12755e-07 -7.05178e-06)
(1.82321e-05 -2.42278e-05 -1.14867e-06 -7.11975e-06 1.50997e-07 -4.78798e-06)
(1.15737e-05 -2.64955e-05 -6.40425e-07 -4.84213e-06 2.25509e-07 -2.97895e-06)
(6.70589e-06 -2.77115e-05 -3.14284e-07 -3.35213e-06 1.90132e-07 -1.66739e-06)
(3.4732e-06 -2.80041e-05 -7.8963e-08 -2.47509e-06 1.04996e-07 -8.63627e-07)
(1.83637e-06 -2.74118e-05 1.13608e-07 -2.14022e-06 -1.12621e-08 -5.72905e-07)
(1.87094e-06 -2.59607e-05 2.897e-07 -2.3553e-06 -1.51948e-07 -8.01688e-07)
(3.75567e-06 -2.36936e-05 4.64625e-07 -3.17914e-06 -3.05854e-07 -1.55658e-06)
(7.77355e-06 -2.06809e-05 6.47714e-07 -4.69598e-06 -4.3637e-07 -2.83569e-06)
(1.43604e-05 -1.70068e-05 8.35938e-07 -7.01308e-06 -4.27173e-07 -4.5836e-06)
(1.07067e-05 1.05908e-06 -8.65234e-07 -1.56088e-06 -3.66073e-07 -9.20223e-06)
(4.21251e-05 -7.0138e-07 -2.98605e-06 -1.45101e-05 -1.99342e-06 -1.30579e-05)
(1.57738e-05 -2.39865e-06 1.46925e-06 -2.60361e-06 4.23574e-07 -2.86357e-06)
(-3.63975e-06 -3.97716e-06 1.70942e-06 1.93977e-06 5.39986e-07 1.71224e-06)
(-2.23694e-05 -4.95072e-06 1.62647e-06 7.03379e-06 4.68795e-07 6.19211e-06)
(-4.0275e-05 -4.63627e-06 1.34204e-06 1.24012e-05 3.68664e-07 1.0241e-05)
(-4.48773e-05 -5.24296e-06 7.13181e-07 1.56377e-05 7.96856e-07 1.18977e-05)
(-3.67867e-05 -9.42758e-06 5.69905e-07 1.40495e-05 1.46284e-06 9.56081e-06)
(-2.97415e-05 -1.30138e-05 4.34978e-07 1.33173e-05 1.69435e-06 7.00529e-06)
(-2.3452e-05 -1.61367e-05 3.00327e-07 1.32568e-05 1.81204e-06 4.37026e-06)
(-1.76649e-05 -1.8914e-05 1.50335e-07 1.37352e-05 1.94849e-06 1.66476e-06)
(-1.21363e-05 -2.14673e-05 -3.95682e-08 1.46335e-05 2.17379e-06 -1.14586e-06)
(-6.59445e-06 -2.39401e-05 -3.11642e-07 1.58279e-05 2.5364e-06 -4.11851e-06)
(-6.73797e-07 -2.65181e-05 -7.45619e-07 1.71641e-05 3.07536e-06 -7.33091e-06)
(6.23922e-06 -2.94477e-05 -1.50539e-06 1.83931e-05 3.81825e-06 -1.08909e-05)
(1.54521e-05 -3.29942e-05 -2.9642e-06 1.89414e-05 4.77617e-06 -1.49621e-05)
(3.07385e-05 -3.73581e-05 -6.09293e-06 1.61755e-05 5.89934e-06 -1.98361e-05)
(7.28153e-05 -3.79022e-05 -1.66675e-05 -1.72461e-05 1.89759e-06 -2.27564e-05)
(6.82091e-05 -2.59996e-05 -1.53307e-05 -2.25337e-05 -1.61361e-06 -1.90075e-05)
(5.7525e-05 -1.33792e-05 -1.14618e-05 -2.15885e-05 -3.57061e-06 -1.61396e-05)
(4.93829e-05 -6.13795e-06 -8.72302e-06 -1.90941e-05 -4.13754e-06 -1.3899e-05)
(-5.489e-05 -2.27482e-06 3.15045e-07 1.64875e-05 -1.85292e-07 1.3622e-05)
(7.82431e-05 -4.2198e-05 -5.73714e-06 -5.52878e-06 1.16584e-06 -2.45934e-05)
(6.66296e-05 -4.85787e-05 -9.50708e-06 4.95947e-06 9.95313e-06 -2.86804e-05)
(6.26435e-05 -4.93586e-05 -3.76265e-06 1.35517e-05 1.13935e-05 -3.04869e-05)
(5.85552e-05 -4.92219e-05 1.59703e-06 1.97101e-05 1.08264e-05 -3.15123e-05)
(5.39405e-05 -4.89482e-05 5.89631e-06 2.43847e-05 8.63335e-06 -3.18855e-05)
(3.3038e-05 -1.31392e-05 4.76829e-06 1.85502e-05 3.65515e-06 -2.28719e-05)
(2.20293e-05 -4.74276e-06 3.07274e-06 1.13665e-05 3.03705e-06 -1.5739e-05)
(1.34873e-05 -1.60577e-06 1.83926e-06 7.45641e-06 2.28601e-06 -1.02481e-05)
(5.9819e-06 8.12518e-08 1.0437e-06 5.23479e-06 1.7501e-06 -5.82457e-06)
(-1.27853e-06 1.12109e-06 5.4529e-07 4.20582e-06 1.41543e-06 -2.10084e-06)
(-8.64426e-06 1.71127e-06 2.29486e-07 4.15731e-06 1.21538e-06 1.13136e-06)
(-1.62327e-05 1.88486e-06 1.91353e-08 4.94595e-06 1.0917e-06 3.99074e-06)
(-2.40078e-05 1.62775e-06 -1.3429e-07 6.41761e-06 1.00235e-06 6.54492e-06)
(-3.18111e-05 9.26808e-07 -2.61448e-07 8.36918e-06 9.17874e-07 8.83221e-06)
(-3.93846e-05 -1.98584e-07 -3.90626e-07 1.05261e-05 8.12816e-07 1.08706e-05)
(-4.64118e-05 -1.66298e-06 -5.89627e-07 1.25343e-05 6.38952e-07 1.26251e-05)
(-5.44872e-05 3.24353e-06 -6.92699e-07 1.42063e-05 5.33197e-07 1.50978e-05)
(-5.80984e-05 3.43181e-06 -5.00743e-07 1.58892e-05 3.99972e-07 1.57707e-05)
(-6.18341e-05 2.55591e-06 -2.30446e-07 1.78476e-05 3.42705e-07 1.60347e-05)
(-6.16025e-05 2.93106e-07 2.63769e-07 1.85147e-05 2.95859e-07 1.5366e-05)
(5.23535e-05 -5.46482e-05 2.56171e-06 3.59062e-05 8.3568e-07 -2.99338e-05)
(-5.10274e-05 -3.53992e-06 -3.56108e-07 1.25708e-05 -1.42821e-07 1.39762e-05)
(-2.59982e-05 -1.74031e-06 -3.47051e-07 7.15892e-06 6.52771e-07 9.66704e-06)
(-7.64104e-06 -1.49883e-06 -2.76092e-07 1.73108e-07 8.49367e-07 4.83252e-06)
(7.39965e-06 -1.23139e-06 -3.71346e-08 -5.87032e-06 7.14312e-07 5.83124e-07)
(1.66992e-05 -1.07623e-06 1.64223e-07 -8.55585e-06 4.97415e-07 -2.66187e-06)
(1.95475e-05 -1.92207e-06 2.0398e-07 -6.96648e-06 2.9223e-07 -4.88838e-06)
(1.99698e-05 -3.90273e-06 3.64553e-07 -6.78012e-06 2.72083e-07 -5.20858e-06)
(2.05069e-05 -5.97832e-06 5.08002e-07 -6.35789e-06 2.33115e-07 -5.70375e-06)
(2.11486e-05 -8.20367e-06 6.73269e-07 -5.65667e-06 1.7283e-07 -6.37646e-06)
(2.18763e-05 -1.06404e-05 8.88061e-07 -4.61786e-06 8.04425e-08 -7.24348e-06)
(2.26534e-05 -1.33654e-05 1.17833e-06 -3.15353e-06 -6.56652e-08 -8.33126e-06)
(2.34097e-05 -1.64801e-05 1.5704e-06 -1.12111e-06 -3.06372e-07 -9.67571e-06)
(2.40064e-05 -2.01243e-05 2.08677e-06 1.73e-06 -7.20933e-07 -1.13236e-05)
(2.41471e-05 -2.44873e-05 2.73082e-06 5.88631e-06 -1.47197e-06 -1.33342e-05)
(2.31076e-05 -2.97737e-05 3.44649e-06 1.2423e-05 -2.92587e-06 -1.57805e-05)
(1.86168e-05 -3.56912e-05 4.03e-06 2.41956e-05 -6.05154e-06 -1.87467e-05)
(1.36913e-05 -4.99593e-05 7.81802e-06 4.92793e-05 -1.26928e-05 -2.54118e-05)
(2.52989e-05 -5.19562e-05 1.05402e-05 4.38922e-05 -8.59052e-06 -2.79308e-05)
(3.43045e-05 -5.14589e-05 1.15451e-05 3.92504e-05 -3.59282e-06 -2.98132e-05)
(4.12887e-05 -5.01061e-05 1.09871e-05 3.47111e-05 1.20956e-06 -3.10067e-05)
(1.83104e-05 -9.44796e-07 1.14426e-07 -6.08633e-06 -3.04195e-09 -4.78945e-06)
(1.87659e-06 -3.95161e-05 8.46575e-07 5.88998e-05 -5.71006e-06 -2.18186e-05)
(1.67195e-05 -7.745e-07 1.83323e-07 -2.12532e-06 1.06862e-07 -5.84451e-06)
(1.1458e-05 -4.8837e-07 8.10283e-08 3.64531e-06 -1.30059e-08 -6.12259e-06)
(6.06628e-06 -2.09153e-07 -1.17431e-09 8.47189e-06 -6.85337e-08 -5.92887e-06)
(1.81939e-06 -1.81993e-08 -4.72913e-08 1.16944e-05 -8.35164e-08 -5.54852e-06)
(-1.28626e-06 -6.67395e-07 -5.11756e-08 1.2668e-05 -9.70914e-08 -5.27925e-06)
(-7.57977e-07 -1.49756e-06 -5.96208e-08 1.22279e-05 -9.3614e-08 -5.41008e-06)
(-3.6612e-07 -2.54704e-06 -7.05679e-08 1.19904e-05 -1.04755e-07 -5.55097e-06)
(-1.64713e-07 -3.79519e-06 -8.42146e-08 1.20642e-05 -1.28835e-07 -5.72042e-06)
(-2.07988e-07 -5.20873e-06 -1.02091e-07 1.25594e-05 -1.71006e-07 -5.94003e-06)
(-5.53712e-07 -6.73949e-06 -1.28137e-07 1.35935e-05 -2.42298e-07 -6.23573e-06)
(-1.27247e-06 -8.31472e-06 -1.70772e-07 1.53058e-05 -3.64189e-07 -6.63895e-06)
(-2.46255e-06 -9.81112e-06 -2.49132e-07 1.7875e-05 -5.78721e-07 -7.1875e-06)
(-4.27125e-06 -1.09853e-05 -4.11694e-07 2.15311e-05 -9.68036e-07 -7.92301e-06)
(-6.90641e-06 -1.12686e-05 -7.9287e-07 2.64952e-05 -1.69107e-06 -8.87406e-06)
(-1.03351e-05 -9.12748e-06 -1.75921e-06 3.22917e-05 -3.08108e-06 -9.99214e-06)
(-1.3995e-05 -6.03753e-06 -3.93235e-06 4.10331e-05 -7.34747e-06 -1.27457e-05)
(-1.42483e-05 -1.23455e-05 -3.2076e-06 4.64039e-05 -9.09164e-06 -1.46057e-05)
(-1.32135e-05 -2.11725e-05 -2.04546e-06 5.06444e-05 -1.12219e-05 -1.67378e-05)
(-8.39664e-06 -3.2786e-05 3.55659e-07 5.33602e-05 -1.35252e-05 -1.93488e-05)
(-1.56272e-06 3.50847e-09 -2.93216e-08 1.33418e-05 -1.77265e-08 -5.13424e-06)
(-1.03037e-05 -8.20109e-07 -1.79961e-06 3.4315e-05 -2.77064e-06 -1.20214e-05)
(-2.04814e-06 -6.6288e-07 -3.49901e-08 1.40125e-05 -4.89593e-08 -5.02282e-06)
(-2.80076e-06 -7.87296e-07 -4.58572e-08 1.44807e-05 -4.11201e-08 -4.86835e-06)
(-3.53821e-06 -4.10512e-07 -7.53515e-08 1.46037e-05 -2.91605e-08 -4.60717e-06)