/*--------------------------------*- C++ -*----------------------------------*\
| =========                 |                                                 |
| \\      /  F ield         | OpenFOAM: The Open Source CFD Toolbox           |
|  \\    /   O peration     | Version:  v2012                                 |
|   \\  /    A nd           | Website:  www.openfoam.com                      |
|    \\/     M anipulation  |                                                 |
\*---------------------------------------------------------------------------*/
FoamFile
{
    version     2.0;
    format      ascii;
    class       volScalarField;
    location    "1";
    object      sigmaHyd;
}
// * * * * * * * * * * * * * * * * * * * * * * * * * * * * * * * * * * * * * //

dimensions      [1 -1 -2 0 0 0 0];


internalField   nonuniform List<scalar> 
980
(
-3.33862e+06
-3.31712e+06
-1.41707e+06
-1.40665e+06
83928.3
87722.2
1.58549e+06
1.57994e+06
3.42423e+06
3.40731e+06
-2.28882e+06
-2.02491e+06
-1.22372e+06
-1.06866e+06
76204.3
69592
1.39565e+06
1.22264e+06
2.35609e+06
2.07025e+06
-1.84032e+06
-1.69658e+06
-965396
-856604
65060.5
60306.2
1.08774e+06
969749
1.8741e+06
1.72005e+06
-1.54627e+06
-1.48858e+06
-773744
-712301
55837.1
53756.5
881729
815857
1.61087e+06
1.54722e+06
-1.28035e+06
-1.265e+06
-643201
-607578
49817.5
49324.8
737256
701493
1.3695e+06
1.35358e+06
-1.16076e+06
-1.15547e+06
-553951
-528622
45863.1
46037.6
637765
614415
1.20737e+06
1.20683e+06
-1.02199e+06
-1.01742e+06
-479413
-458763
43878
43963.9
560375
541061
1.08359e+06
1.08191e+06
-876628
-872854
-407604
-390381
43784.7
43518.8
490442
473045
943493
939565
-729911
-726680
-336943
-322045
45076.8
45247.3
424760
409497
799814
794035
-585282
-580483
-269398
-252559
45532
51786.7
365037
356463
662199
656176
-427436
-423819
-230222
-220809
-34957.7
-36528.1
189812
173166
521830
502466
-351927
-349788
-190876
-183453
-44044.8
-43001.3
111269
103459
309237
300443
-263190
-259866
-144427
-137890
-40061
-38190.4
59341.4
56230.5
168120
167109
-166693
-162395
-88124.8
-82363.6
-21167.7
-18756.5
34152.4
33908.4
82243.1
84319.8
-65777.4
-60729
-21707.3
-16604.8
14103.5
17052.2
35773.3
37452.7
42640.4
45291.4
36831.3
42967.5
54020.9
58973.2
66300.7
70021.3
64214.8
67418.5
44561.9
46982.8
137930
146302
137286
143258
134984
140112
119255
124044
85509.2
87930
232770
245690
224716
233906
218315
226177
200082
207019
164175
167407
313399
334928
309797
326029
311686
324821
304308
314673
279705
284802
365215
401998
379426
409016
403875
426900
424535
440875
430113
438102
357811
419737
405306
457751
467735
508209
533701
560775
602176
613992
205926
302993
315286
399796
431423
496636
549026
590600
658654
672729
853449
829649
1.05684e+06
984493
1.32675e+06
1.19017e+06
1.76419e+06
1.56836e+06
2.23187e+06
1.94722e+06
642465
614283
803513
753946
1.01029e+06
925343
1.2645e+06
1.14166e+06
1.54291e+06
1.38418e+06
449785
422927
564078
532147
714285
666313
893588
825492
1.07778e+06
990513
287016
264536
368278
348030
476095
449421
604072
568189
730674
686311
161674
143833
211827
198757
282199
267799
367654
350393
450081
430580
75546.6
61850.8
90776.7
81721.4
121969
114489
165993
159585
208323
203438
29985.4
19644.1
3051.44
-4315.07
-10883.9
-14549
-12071.7
-11763.3
-10960.4
-6535.18
27287
18970.8
-51585.2
-59325.1
-119705
-121405
-173559
-168457
-218493
-206956
71474.2
62827.4
-71758.1
-82173.3
-205758
-206785
-323061
-313844
-422280
-403955
169469
156831
-54775.3
-70610.8
-268552
-270188
-463463
-450572
-629156
-603890
333293
313681
2253.6
-20778.5
-305860
-309659
-595681
-581499
-845169
-816040
582986
569322
97503.5
76299.5
-313827
-320546
-716574
-712412
-1.0734e+06
-1.06028e+06
-1.31229e+06
-1.29528e+06
-1.39089e+06
-1.37761e+06
-1.34142e+06
-1.33575e+06
-1.25022e+06
-1.24841e+06
-1.22676e+06
-1.23822e+06
-1.02246e+06
-985400
-1.10987e+06
-1.07411e+06
-1.11949e+06
-1.09126e+06
-1.08875e+06
-1.06892e+06
-1.06741e+06
-1.06942e+06
-756230
-723980
-840258
-808043
-883736
-856455
-897899
-877951
-898933
-904532
-507295
-483423
-581546
-556901
-642936
-621069
-688082
-672356
-714688
-726050
-266966
-251092
-327795
-310653
-396946
-381160
-462641
-452314
-511766
-529096
-26308.3
-18702.9
-71386.9
-62299.4
-141774
-133093
-220574
-216919
-287867
-311616
224773
221486
197542
195519
130323
128602
43420.9
37291.9
-38422.2
-70616.8
499791
479097
493519
472967
433054
413262
341184
318168
246783
200582
819859
768940
840796
786890
791703
738199
697087
642189
590057
516944
1.22236e+06
1.11809e+06
1.28456e+06
1.16978e+06
1.25642e+06
1.13908e+06
1.1632e+06
1.0461e+06
1.04199e+06
914116
1.7824e+06
1.58558e+06
1.92002e+06
1.69651e+06
1.93797e+06
1.70238e+06
1.86138e+06
1.6243e+06
1.73124e+06
1.49328e+06
2.67009e+06
2.31509e+06
2.97738e+06
2.57161e+06
3.12517e+06
2.68807e+06
3.13192e+06
2.68654e+06
3.04334e+06
2.61386e+06
2.97815e+06
2.56887e+06
2.94481e+06
2.54592e+06
2.81127e+06
2.44628e+06
2.55769e+06
2.23777e+06
2.19726e+06
1.94431e+06
1.7701e+06
1.55191e+06
1.85813e+06
1.65025e+06
1.88199e+06
1.68495e+06
1.81462e+06
1.63587e+06
1.65646e+06
1.50398e+06
1.10526e+06
995093
1.2468e+06
1.14548e+06
1.33864e+06
1.23961e+06
1.35655e+06
1.26246e+06
1.29252e+06
1.20894e+06
675989
618553
844849
798193
976486
929958
1.04466e+06
997930
1.03744e+06
993714
354985
322519
550422
530808
712804
693309
817454
796196
850604
829145
92052.4
71655.9
316453
310280
507792
501927
643203
635260
708601
699216
-135560
-149562
120037
120945
340566
341596
504441
503340
597781
594817
-339253
-349054
-50955.3
-45648.6
199520
204328
391011
393550
509896
510428
-525558
-531672
-203550
-194691
77792.4
85170.1
296673
301494
439699
442414
-699552
-701903
-342152
-329933
-28835.3
-19319.9
217345
223992
383580
388056
-867578
-867520
-469310
-455138
-122648
-112212
150271
158065
338767
344736
-1.03973e+06
-1.04942e+06
-584176
-577747
-203145
-198579
94118.4
99123.4
302958
308623
1.8059e+06
1.60341e+06
1.46571e+06
1.32254e+06
1.20926e+06
1.12407e+06
1.00564e+06
967250
839218
837760
1.44327e+06
1.32312e+06
1.2238e+06
1.13731e+06
1.03043e+06
974877
872811
841794
747227
733062
1.16686e+06
1.09865e+06
1.01752e+06
966923
876097
841872
757560
735262
665393
648228
967193
930053
864972
836488
760465
740140
670132
654925
599045
583586
820035
800746
752195
736696
674889
663054
604943
594749
548634
535995
709045
699706
667859
659761
611401
604608
556760
549953
511207
501312
624060
620177
604489
600562
564466
560663
521476
516960
483752
476193
558725
557900
557247
555729
530303
528333
495999
493073
463636
457946
508938
510040
522970
522980
506280
505519
477913
476144
448543
444291
471944
474573
499598
500764
490502
490635
465176
464305
436349
433174
445823
449878
485905
488125
481531
482405
455849
455681
425094
422660
429309
434326
481477
484816
478107
479658
447858
447846
413243
410855
605130
633953
468991
521857
328235
402209
191869
281590
65757.5
161099
655492
678863
546942
586014
433590
487720
317394
383737
207467
277171
601335
617124
540132
566250
457942
494624
362890
409060
265248
313608
550705
560853
513771
531348
454771
479587
377132
409171
290105
323396
510541
516631
486982
498954
442869
459873
378289
400813
299929
323005
479839
483179
463779
472047
429324
441165
374278
390416
302868
319086
456702
458285
444713
450522
416649
425038
368685
380489
302956
314547
439299
439822
429378
433545
405651
411693
363122
371930
302225
310649
425976
425920
417104
420169
396458
400869
358282
364960
301677
307879
415219
414950
407158
409511
388919
392189
354419
359544
301766
306361
405623
405504
398799
400811
382740
385308
351581
355622
302651
306081
395954
396457
391220
393509
377442
380094
349690
353379
304290
307067
307479
307992
311055
311417
317932
317971
326611
326202
333476
332903
316436
317325
318534
319221
322344
322633
326899
326654
331500
330983
324528
325103
325264
325707
326403
326604
327473
327354
328759
328393
332159
332473
331648
331892
330354
330494
328057
328109
325295
325129
339795
339957
338107
338239
334458
334595
328695
328971
321307
321388
347852
347924
345014
345088
338988
339165
329563
330112
317052
317425
356707
356707
352725
352765
344235
344479
330898
331766
312813
313523
366726
366643
361619
361633
350511
350853
332957
334198
308911
310009
378264
378089
372145
372191
358143
358657
335943
337644
305713
307265
391550
391442
384903
385529
367404
368433
339832
342141
303674
305744
-215275
-90362.1
-87559.5
20789.7
63316.8
145573
266092
315303
527403
538123
873380
838882
1.28083e+06
1.18524e+06
1.90168e+06
1.71943e+06
2.60927e+06
2.35247e+06
3.09176e+06
2.67276e+06
3.52886e+06
3.02965e+06
3.84808e+06
3.28324e+06
4.06029e+06
3.46048e+06
4.15403e+06
3.54208e+06
4.10475e+06
3.5131e+06
4.02522e+06
3.45055e+06
3.93056e+06
3.3572e+06
3.70805e+06
3.17339e+06
3.38438e+06
2.90994e+06
2.96002e+06
2.60295e+06
2.44719e+06
2.16384e+06
1.87323e+06
1.68142e+06
1.32293e+06
1.21778e+06
1.00365e+06
944114
664207
651678
355671
380538
135154
191088
-25759.6
56188.1
-140329
-39103.2
-235906
-125137
)
;

boundaryField
{
    symmz
    {
        type            zeroGradient;
    }
    tractionFree
    {
        type            zeroGradient;
    }
    fixed
    {
        type            zeroGradient;
    }
    front
    {
        type            zeroGradient;
    }
    symmx
    {
        type            zeroGradient;
    }
    loading
    {
        type            zeroGradient;
    }
}


// ************************************************************************* //
