/*--------------------------------*- C++ -*----------------------------------*\
| =========                 |                                                 |
| \\      /  F ield         | OpenFOAM: The Open Source CFD Toolbox           |
|  \\    /   O peration     | Version:  v2012                                 |
|   \\  /    A nd           | Website:  www.openfoam.com                      |
|    \\/     M anipulation  |                                                 |
\*---------------------------------------------------------------------------*/
FoamFile
{
    version     2.0;
    format      ascii;
    class       volScalarField;
    location    "1";
    object      sigmaEq;
}
// * * * * * * * * * * * * * * * * * * * * * * * * * * * * * * * * * * * * * //

dimensions      [1 -1 -2 0 0 0 0];


internalField   nonuniform List<scalar> 
980
(
4.5e+06
4.5e+06
2.46337e+06
2.49928e+06
1.58519e+06
1.3635e+06
2.64495e+06
2.72388e+06
4.5e+06
4.5e+06
4.5e+06
4.5e+06
3.06769e+06
3.00507e+06
2.19479e+06
2.04359e+06
3.31449e+06
3.26057e+06
4.5e+06
4.5e+06
4.5e+06
4.5e+06
3.1459e+06
3.09751e+06
2.46868e+06
2.41076e+06
3.35992e+06
3.30956e+06
4.5e+06
4.5e+06
4.5e+06
4.47967e+06
3.02189e+06
3.01817e+06
2.54968e+06
2.56366e+06
3.22675e+06
3.2178e+06
4.5e+06
4.5e+06
3.86588e+06
3.84208e+06
2.82763e+06
2.85962e+06
2.53657e+06
2.5907e+06
3.0234e+06
3.05191e+06
4.18095e+06
4.15041e+06
3.42151e+06
3.42133e+06
2.6476e+06
2.69921e+06
2.49837e+06
2.57011e+06
2.8264e+06
2.87711e+06
3.64479e+06
3.64434e+06
3.01378e+06
3.02471e+06
2.4975e+06
2.55808e+06
2.46523e+06
2.54311e+06
2.66152e+06
2.72287e+06
3.22942e+06
3.24233e+06
2.62165e+06
2.63775e+06
2.37011e+06
2.43411e+06
2.44137e+06
2.52085e+06
2.52261e+06
2.58934e+06
2.83645e+06
2.85659e+06
2.24204e+06
2.26028e+06
2.26243e+06
2.32713e+06
2.42577e+06
2.50535e+06
2.4001e+06
2.47091e+06
2.45284e+06
2.47919e+06
1.87568e+06
1.89525e+06
2.17435e+06
2.23889e+06
2.42104e+06
2.50006e+06
2.28992e+06
2.36401e+06
2.06968e+06
2.10491e+06
1.51987e+06
1.54176e+06
2.06894e+06
2.13664e+06
2.39225e+06
2.47492e+06
2.2183e+06
2.2988e+06
1.85062e+06
1.89625e+06
1.27905e+06
1.30038e+06
1.9378e+06
2.00235e+06
2.36703e+06
2.44755e+06
2.31979e+06
2.40332e+06
1.87955e+06
1.94691e+06
1.04289e+06
1.06527e+06
1.79912e+06
1.86104e+06
2.31352e+06
2.39178e+06
2.39855e+06
2.48325e+06
2.04803e+06
2.12704e+06
820287
845218
1.65263e+06
1.7121e+06
2.23064e+06
2.30632e+06
2.43648e+06
2.52091e+06
2.23702e+06
2.3217e+06
640434
669808
1.50513e+06
1.56207e+06
2.12089e+06
2.1936e+06
2.42707e+06
2.51019e+06
2.38491e+06
2.47201e+06
562496
595769
1.37101e+06
1.42502e+06
1.99186e+06
2.0612e+06
2.37185e+06
2.4529e+06
2.46765e+06
2.55544e+06
632060
664510
1.27286e+06
1.32315e+06
1.85853e+06
1.92402e+06
2.28067e+06
2.35913e+06
2.48355e+06
2.57109e+06
806719
836170
1.23773e+06
1.28322e+06
1.74599e+06
1.8071e+06
2.17467e+06
2.25009e+06
2.44851e+06
2.53527e+06
1.01708e+06
1.04253e+06
1.28345e+06
1.32257e+06
1.68959e+06
1.74513e+06
2.09085e+06
2.16236e+06
2.39908e+06
2.48428e+06
1.21194e+06
1.22757e+06
1.40107e+06
1.42944e+06
1.72404e+06
1.77005e+06
2.08263e+06
2.14672e+06
2.39929e+06
2.47959e+06
1.33763e+06
1.32645e+06
1.54634e+06
1.55071e+06
1.8547e+06
1.87892e+06
2.1974e+06
2.24173e+06
2.53285e+06
2.59519e+06
1.30298e+06
1.22921e+06
1.62016e+06
1.57021e+06
2.00629e+06
1.98059e+06
2.40388e+06
2.39978e+06
2.77637e+06
2.79033e+06
3.1836e+06
3.21876e+06
3.57364e+06
3.63213e+06
4.03648e+06
4.11244e+06
4.5e+06
4.5e+06
4.5e+06
4.5e+06
2.85434e+06
2.94485e+06
3.20768e+06
3.30461e+06
3.55059e+06
3.64949e+06
3.81612e+06
3.92639e+06
3.86212e+06
3.93639e+06
2.66173e+06
2.77316e+06
2.94181e+06
3.06101e+06
3.19608e+06
3.31716e+06
3.35781e+06
3.47214e+06
3.3226e+06
3.40391e+06
2.6052e+06
2.72067e+06
2.80345e+06
2.92944e+06
2.97529e+06
3.10472e+06
3.05246e+06
3.17373e+06
2.94462e+06
3.03745e+06
2.59481e+06
2.70784e+06
2.72699e+06
2.85157e+06
2.83083e+06
2.9599e+06
2.84269e+06
2.96492e+06
2.68218e+06
2.78079e+06
2.56414e+06
2.67293e+06
2.65275e+06
2.77248e+06
2.712e+06
2.83563e+06
2.68589e+06
2.80291e+06
2.50534e+06
2.60149e+06
2.47235e+06
2.57662e+06
2.53728e+06
2.65107e+06
2.58011e+06
2.69565e+06
2.55287e+06
2.65991e+06
2.39866e+06
2.48461e+06
2.29725e+06
2.39665e+06
2.34899e+06
2.45639e+06
2.40618e+06
2.51188e+06
2.42622e+06
2.51935e+06
2.35969e+06
2.42916e+06
2.03442e+06
2.12743e+06
2.06347e+06
2.16348e+06
2.16843e+06
2.26196e+06
2.30072e+06
2.37591e+06
2.3979e+06
2.44674e+06
1.7118e+06
1.79399e+06
1.66159e+06
1.75165e+06
1.85233e+06
1.92937e+06
2.18707e+06
2.23962e+06
2.53252e+06
2.55955e+06
1.44844e+06
1.50791e+06
1.13426e+06
1.2088e+06
1.45889e+06
1.5112e+06
2.11961e+06
2.14489e+06
2.78885e+06
2.79597e+06
1.5547e+06
1.57486e+06
546192
588991
1.04797e+06
1.06332e+06
2.16371e+06
2.16022e+06
3.19573e+06
3.18355e+06
3.88673e+06
3.87004e+06
4.10804e+06
4.08902e+06
3.96583e+06
3.94773e+06
3.6916e+06
3.67972e+06
3.48767e+06
3.48249e+06
3.25923e+06
3.25566e+06
3.4356e+06
3.42746e+06
3.37218e+06
3.36411e+06
3.20018e+06
3.19624e+06
3.03361e+06
3.03127e+06
2.77356e+06
2.78105e+06
2.85668e+06
2.85429e+06
2.80496e+06
2.80092e+06
2.67994e+06
2.6788e+06
2.53995e+06
2.53647e+06
2.42018e+06
2.44296e+06
2.37209e+06
2.37832e+06
2.27839e+06
2.27939e+06
2.15818e+06
2.16035e+06
2.02802e+06
2.02523e+06
2.19808e+06
2.23874e+06
1.99616e+06
2.01408e+06
1.81241e+06
1.82021e+06
1.65738e+06
1.66423e+06
1.51775e+06
1.51882e+06
2.10822e+06
2.16433e+06
1.7572e+06
1.78555e+06
1.44461e+06
1.45717e+06
1.20922e+06
1.21894e+06
1.0319e+06
1.03956e+06
2.149e+06
2.21258e+06
1.69076e+06
1.72007e+06
1.24804e+06
1.25277e+06
894474
891795
635799
644265
2.31685e+06
2.3765e+06
1.81679e+06
1.83132e+06
1.30818e+06
1.28243e+06
887129
837745
589458
559348
2.6124e+06
2.65726e+06
2.12812e+06
2.11501e+06
1.63108e+06
1.5624e+06
1.23881e+06
1.13672e+06
1.00106e+06
923766
3.04945e+06
3.07441e+06
2.61637e+06
2.57451e+06
2.1694e+06
2.06537e+06
1.82821e+06
1.69203e+06
1.63322e+06
1.52384e+06
3.66859e+06
3.68139e+06
3.31785e+06
3.26577e+06
2.94673e+06
2.83748e+06
2.66085e+06
2.52533e+06
2.49635e+06
2.38311e+06
4.5e+06
4.5e+06
4.5e+06
4.5e+06
4.37922e+06
4.29615e+06
4.23223e+06
4.119e+06
4.12719e+06
4.02578e+06
4.13095e+06
4.04887e+06
4.2716e+06
4.21319e+06
4.3937e+06
4.38593e+06
4.44956e+06
4.48938e+06
4.38317e+06
4.45543e+06
2.64555e+06
2.554e+06
2.9657e+06
2.89695e+06
3.28331e+06
3.25338e+06
3.52535e+06
3.5348e+06
3.61403e+06
3.65233e+06
1.79479e+06
1.71292e+06
2.19168e+06
2.13134e+06
2.58662e+06
2.56394e+06
2.89625e+06
2.9095e+06
3.03901e+06
3.07827e+06
1.15047e+06
1.10172e+06
1.60298e+06
1.57232e+06
2.06014e+06
2.06096e+06
2.42082e+06
2.44939e+06
2.59995e+06
2.64707e+06
626769
614195
1.1238e+06
1.12495e+06
1.64374e+06
1.66899e+06
2.05157e+06
2.09601e+06
2.25829e+06
2.31329e+06
299073
316745
716501
745064
1.30446e+06
1.34875e+06
1.75989e+06
1.81629e+06
1.98894e+06
2.04946e+06
521756
521012
366892
420440
1.02017e+06
1.07703e+06
1.52603e+06
1.58976e+06
1.77492e+06
1.83838e+06
945399
930583
184946
238231
776122
839842
1.33556e+06
1.40278e+06
1.60429e+06
1.66868e+06
1.39426e+06
1.3747e+06
413503
408011
564687
630253
1.17774e+06
1.24569e+06
1.46855e+06
1.5326e+06
1.84516e+06
1.82711e+06
727694
706610
389491
450500
1.04455e+06
1.1114e+06
1.36188e+06
1.42483e+06
2.28155e+06
2.27008e+06
1.05012e+06
1.02677e+06
281128
322717
929984
994639
1.28074e+06
1.34213e+06
2.68094e+06
2.67485e+06
1.37238e+06
1.34686e+06
298355
297122
829420
892009
1.22393e+06
1.28384e+06
4.14777e+06
4.21418e+06
3.79273e+06
3.83962e+06
3.38208e+06
3.4093e+06
3.00958e+06
3.03184e+06
2.63928e+06
2.65675e+06
3.50637e+06
3.55879e+06
3.24362e+06
3.29756e+06
2.9139e+06
2.96604e+06
2.58585e+06
2.63716e+06
2.28322e+06
2.33417e+06
2.98045e+06
3.0336e+06
2.76572e+06
2.8232e+06
2.48059e+06
2.53793e+06
2.19233e+06
2.24818e+06
1.93298e+06
1.98763e+06
2.56897e+06
2.62453e+06
2.37986e+06
2.43632e+06
2.12211e+06
2.17575e+06
1.86529e+06
1.91508e+06
1.6432e+06
1.69006e+06
2.2415e+06
2.29839e+06
2.0638e+06
2.11664e+06
1.82302e+06
1.86942e+06
1.59234e+06
1.63246e+06
1.40449e+06
1.44046e+06
1.97652e+06
2.03324e+06
1.79953e+06
1.84754e+06
1.56845e+06
1.60663e+06
1.36163e+06
1.39161e+06
1.20938e+06
1.2347e+06
1.75966e+06
1.81507e+06
1.57492e+06
1.61778e+06
1.34856e+06
1.37874e+06
1.16663e+06
1.18726e+06
1.055e+06
1.07117e+06
1.58144e+06
1.63491e+06
1.38242e+06
1.42037e+06
1.1581e+06
1.18099e+06
1.00555e+06
1.01806e+06
941643
950586
1.4359e+06
1.48727e+06
1.21819e+06
1.25175e+06
995791
1.01223e+06
880372
886169
870220
874032
1.31985e+06
1.36919e+06
1.08157e+06
1.11136e+06
864108
875000
795270
795984
838961
839794
1.2325e+06
1.27986e+06
974813
1.00142e+06
768766
775179
753216
750868
841089
840928
1.17525e+06
1.22066e+06
902609
926424
716448
719887
751502
748655
865311
866055
2.27675e+06
2.28401e+06
1.94217e+06
1.93981e+06
1.58301e+06
1.56592e+06
1.22682e+06
1.18831e+06
920149
856661
2.07453e+06
2.11554e+06
1.8465e+06
1.88197e+06
1.57756e+06
1.60406e+06
1.28068e+06
1.29417e+06
997891
997301
1.80296e+06
1.84994e+06
1.68305e+06
1.72823e+06
1.49713e+06
1.53786e+06
1.26062e+06
1.29388e+06
1.01087e+06
1.03708e+06
1.56372e+06
1.60535e+06
1.51866e+06
1.5612e+06
1.40145e+06
1.44264e+06
1.21822e+06
1.25532e+06
999837
1.03372e+06
1.36368e+06
1.397e+06
1.37227e+06
1.40824e+06
1.3092e+06
1.3457e+06
1.17136e+06
1.20566e+06
981485
1.01448e+06
1.20113e+06
1.2262e+06
1.2483e+06
1.27715e+06
1.22733e+06
1.25781e+06
1.12727e+06
1.15655e+06
962728
991543
1.07493e+06
1.09285e+06
1.1477e+06
1.17014e+06
1.15835e+06
1.18304e+06
1.08895e+06
1.11296e+06
946522
970361
984639
996836
1.07044e+06
1.08756e+06
1.10291e+06
1.12263e+06
1.05748e+06
1.07677e+06
934026
953161
928911
936946
1.01563e+06
1.02864e+06
1.06071e+06
1.07639e+06
1.03295e+06
1.04831e+06
925505
940606
903977
909414
981330
991369
1.03068e+06
1.04326e+06
1.01486e+06
1.0271e+06
920746
932574
903279
907539
964441
972483
1.01121e+06
1.02145e+06
1.0023e+06
1.01215e+06
919272
928541
918497
922709
961053
967627
1.00031e+06
1.00857e+06
994125
1.00197e+06
920472
927699
1.03974e+06
1.03977e+06
1.03408e+06
1.03417e+06
1.02344e+06
1.02365e+06
1.01042e+06
1.01076e+06
1.00109e+06
1.00142e+06
1.02988e+06
1.0302e+06
1.02608e+06
1.02643e+06
1.01817e+06
1.01853e+06
1.00688e+06
1.00718e+06
997071
997252
1.02409e+06
1.02485e+06
1.02143e+06
1.02217e+06
1.01458e+06
1.01523e+06
1.00268e+06
1.00309e+06
989730
989933
1.02027e+06
1.02142e+06
1.01848e+06
1.0196e+06
1.01201e+06
1.01299e+06
998334
998980
980207
980598
1.01672e+06
1.01829e+06
1.01597e+06
1.01751e+06
1.00992e+06
1.01131e+06
994040
995032
969302
970028
1.01194e+06
1.01398e+06
1.01282e+06
1.01486e+06
1.00785e+06
1.00976e+06
989914
991377
957709
958916
1.00444e+06
1.00699e+06
1.00802e+06
1.01063e+06
1.00541e+06
1.00795e+06
986146
988217
946145
947988
992617
995685
1.00055e+06
1.00381e+06
1.00236e+06
1.00568e+06
983093
985940
935440
938108
974782
978307
989445
993427
998718
1.00299e+06
981452
985292
926648
930394
949287
952958
973861
978367
995037
1.00038e+06
982613
987719
921169
926350
926526
754199
1.12562e+06
986957
1.49516e+06
1.40016e+06
1.955e+06
1.88961e+06
2.45541e+06
2.40626e+06
3.05536e+06
3.01292e+06
3.78361e+06
3.77812e+06
4.5e+06
4.5e+06
4.5e+06
4.5e+06
4.5e+06
4.5e+06
4.5e+06
4.5e+06
4.5e+06
4.5e+06
4.5e+06
4.5e+06
4.5e+06
4.5e+06
4.5e+06
4.5e+06
4.5e+06
4.5e+06
4.5e+06
4.5e+06
4.5e+06
4.5e+06
4.5e+06
4.5e+06
4.5e+06
4.5e+06
4.5e+06
4.5e+06
4.5e+06
4.5e+06
3.63569e+06
3.60993e+06
3.031e+06
2.99916e+06
2.43158e+06
2.40079e+06
1.8965e+06
1.86001e+06
1.46438e+06
1.41236e+06
1.09696e+06
1.01359e+06
840658
713985
730096
583168
)
;

boundaryField
{
    symmz
    {
        type            calculated;
        value           nonuniform List<scalar> 
490
(
4.5e+06
2.46337e+06
1.58519e+06
2.64495e+06
4.5e+06
4.5e+06
3.06769e+06
2.19479e+06
3.31449e+06
4.5e+06
4.5e+06
3.1459e+06
2.46868e+06
3.35992e+06
4.5e+06
4.5e+06
3.02189e+06
2.54968e+06
3.22675e+06
4.5e+06
3.86588e+06
2.82763e+06
2.53657e+06
3.0234e+06
4.18095e+06
3.42151e+06
2.6476e+06
2.49837e+06
2.8264e+06
3.64479e+06
3.01378e+06
2.4975e+06
2.46523e+06
2.66152e+06
3.22942e+06
2.62165e+06
2.37011e+06
2.44137e+06
2.52261e+06
2.83645e+06
2.24204e+06
2.26243e+06
2.42577e+06
2.4001e+06
2.45284e+06
1.87568e+06
2.17435e+06
2.42104e+06
2.28992e+06
2.06968e+06
1.51987e+06
2.06894e+06
2.39225e+06
2.2183e+06
1.85062e+06
1.27905e+06
1.9378e+06
2.36703e+06
2.31979e+06
1.87955e+06
1.04289e+06
1.79912e+06
2.31352e+06
2.39855e+06
2.04803e+06
820287
1.65263e+06
2.23064e+06
2.43648e+06
2.23702e+06
640434
1.50513e+06
2.12089e+06
2.42707e+06
2.38491e+06
562496
1.37101e+06
1.99186e+06
2.37185e+06
2.46765e+06
632060
1.27286e+06
1.85853e+06
2.28067e+06
2.48355e+06
806719
1.23773e+06
1.74599e+06
2.17467e+06
2.44851e+06
1.01708e+06
1.28345e+06
1.68959e+06
2.09085e+06
2.39908e+06
1.21194e+06
1.40107e+06
1.72404e+06
2.08263e+06
2.39929e+06
1.33763e+06
1.54634e+06
1.8547e+06
2.1974e+06
2.53285e+06
1.30298e+06
1.62016e+06
2.00629e+06
2.40388e+06
2.77637e+06
3.1836e+06
3.57364e+06
4.03648e+06
4.5e+06
4.5e+06
2.85434e+06
3.20768e+06
3.55059e+06
3.81612e+06
3.86212e+06
2.66173e+06
2.94181e+06
3.19608e+06
3.35781e+06
3.3226e+06
2.6052e+06
2.80345e+06
2.97529e+06
3.05246e+06
2.94462e+06
2.59481e+06
2.72699e+06
2.83083e+06
2.84269e+06
2.68218e+06
2.56414e+06
2.65275e+06
2.712e+06
2.68589e+06
2.50534e+06
2.47235e+06
2.53728e+06
2.58011e+06
2.55287e+06
2.39866e+06
2.29725e+06
2.34899e+06
2.40618e+06
2.42622e+06
2.35969e+06
2.03442e+06
2.06347e+06
2.16843e+06
2.30072e+06
2.3979e+06
1.7118e+06
1.66159e+06
1.85233e+06
2.18707e+06
2.53252e+06
1.44844e+06
1.13426e+06
1.45889e+06
2.11961e+06
2.78885e+06
1.5547e+06
546192
1.04797e+06
2.16371e+06
3.19573e+06
3.88673e+06
4.10804e+06
3.96583e+06
3.6916e+06
3.48767e+06
3.25923e+06
3.4356e+06
3.37218e+06
3.20018e+06
3.03361e+06
2.77356e+06
2.85668e+06
2.80496e+06
2.67994e+06
2.53995e+06
2.42018e+06
2.37209e+06
2.27839e+06
2.15818e+06
2.02802e+06
2.19808e+06
1.99616e+06
1.81241e+06
1.65738e+06
1.51775e+06
2.10822e+06
1.7572e+06
1.44461e+06
1.20922e+06
1.0319e+06
2.149e+06
1.69076e+06
1.24804e+06
894474
635799
2.31685e+06
1.81679e+06
1.30818e+06
887129
589458
2.6124e+06
2.12812e+06
1.63108e+06
1.23881e+06
1.00106e+06
3.04945e+06
2.61637e+06
2.1694e+06
1.82821e+06
1.63322e+06
3.66859e+06
3.31785e+06
2.94673e+06
2.66085e+06
2.49635e+06
4.5e+06
4.5e+06
4.37922e+06
4.23223e+06
4.12719e+06
4.13095e+06
4.2716e+06
4.3937e+06
4.44956e+06
4.38317e+06
2.64555e+06
2.9657e+06
3.28331e+06
3.52535e+06
3.61403e+06
1.79479e+06
2.19168e+06
2.58662e+06
2.89625e+06
3.03901e+06
1.15047e+06
1.60298e+06
2.06014e+06
2.42082e+06
2.59995e+06
626769
1.1238e+06
1.64374e+06
2.05157e+06
2.25829e+06
299073
716501
1.30446e+06
1.75989e+06
1.98894e+06
521756
366892
1.02017e+06
1.52603e+06
1.77492e+06
945399
184946
776122
1.33556e+06
1.60429e+06
1.39426e+06
413503
564687
1.17774e+06
1.46855e+06
1.84516e+06
727694
389491
1.04455e+06
1.36188e+06
2.28155e+06
1.05012e+06
281128
929984
1.28074e+06
2.68094e+06
1.37238e+06
298355
829420
1.22393e+06
4.14777e+06
3.79273e+06
3.38208e+06
3.00958e+06
2.63928e+06
3.50637e+06
3.24362e+06
2.9139e+06
2.58585e+06
2.28322e+06
2.98045e+06
2.76572e+06
2.48059e+06
2.19233e+06
1.93298e+06
2.56897e+06
2.37986e+06
2.12211e+06
1.86529e+06
1.6432e+06
2.2415e+06
2.0638e+06
1.82302e+06
1.59234e+06
1.40449e+06
1.97652e+06
1.79953e+06
1.56845e+06
1.36163e+06
1.20938e+06
1.75966e+06
1.57492e+06
1.34856e+06
1.16663e+06
1.055e+06
1.58144e+06
1.38242e+06
1.1581e+06
1.00555e+06
941643
1.4359e+06
1.21819e+06
995791
880372
870220
1.31985e+06
1.08157e+06
864108
795270
838961
1.2325e+06
974813
768766
753216
841089
1.17525e+06
902609
716448
751502
865311
2.27675e+06
1.94217e+06
1.58301e+06
1.22682e+06
920149
2.07453e+06
1.8465e+06
1.57756e+06
1.28068e+06
997891
1.80296e+06
1.68305e+06
1.49713e+06
1.26062e+06
1.01087e+06
1.56372e+06
1.51866e+06
1.40145e+06
1.21822e+06
999837
1.36368e+06
1.37227e+06
1.3092e+06
1.17136e+06
981485
1.20113e+06
1.2483e+06
1.22733e+06
1.12727e+06
962728
1.07493e+06
1.1477e+06
1.15835e+06
1.08895e+06
946522
984639
1.07044e+06
1.10291e+06
1.05748e+06
934026
928911
1.01563e+06
1.06071e+06
1.03295e+06
925505
903977
981330
1.03068e+06
1.01486e+06
920746
903279
964441
1.01121e+06
1.0023e+06
919272
918497
961053
1.00031e+06
994125
920472
1.03974e+06
1.03408e+06
1.02344e+06
1.01042e+06
1.00109e+06
1.02988e+06
1.02608e+06
1.01817e+06
1.00688e+06
997071
1.02409e+06
1.02143e+06
1.01458e+06
1.00268e+06
989730
1.02027e+06
1.01848e+06
1.01201e+06
998334
980207
1.01672e+06
1.01597e+06
1.00992e+06
994040
969302
1.01194e+06
1.01282e+06
1.00785e+06
989914
957709
1.00444e+06
1.00802e+06
1.00541e+06
986146
946145
992617
1.00055e+06
1.00236e+06
983093
935440
974782
989445
998718
981452
926648
949287
973861
995037
982613
921169
926526
1.12562e+06
1.49516e+06
1.955e+06
2.45541e+06
3.05536e+06
3.78361e+06
4.5e+06
4.5e+06
4.5e+06
4.5e+06
4.5e+06
4.5e+06
4.5e+06
4.5e+06
4.5e+06
4.5e+06
4.5e+06
4.5e+06
4.5e+06
4.5e+06
4.5e+06
3.63569e+06
3.031e+06
2.43158e+06
1.8965e+06
1.46438e+06
1.09696e+06
840658
730096
)
;
    }
    tractionFree
    {
        type            calculated;
        value           nonuniform List<scalar> 
192
(
4.5e+06
4.5e+06
4.5e+06
4.5e+06
4.5e+06
4.5e+06
4.5e+06
4.5e+06
4.5e+06
4.5e+06
4.5e+06
4.5e+06
4.5e+06
4.47967e+06
4.5e+06
4.5e+06
3.86588e+06
3.84208e+06
4.18095e+06
4.15041e+06
3.42151e+06
3.42133e+06
3.64479e+06
3.64434e+06
3.01378e+06
3.02471e+06
3.22942e+06
3.24233e+06
2.62165e+06
2.63775e+06
2.83645e+06
2.85659e+06
2.24204e+06
2.26028e+06
2.45284e+06
2.47919e+06
1.87568e+06
1.89525e+06
2.06968e+06
2.10491e+06
1.51987e+06
1.54176e+06
1.27905e+06
1.30038e+06
1.04289e+06
1.06527e+06
820287
845218
640434
669808
562496
595769
632060
664510
806719
836170
1.01708e+06
1.04253e+06
1.21194e+06
1.22757e+06
1.33763e+06
1.32645e+06
1.30298e+06
1.22921e+06
1.5547e+06
1.57486e+06
546192
588991
1.04797e+06
1.06332e+06
2.16371e+06
2.16022e+06
3.19573e+06
3.18355e+06
3.88673e+06
3.87004e+06
4.10804e+06
4.08902e+06
3.96583e+06
3.94773e+06
3.6916e+06
3.67972e+06
3.48767e+06
3.48249e+06
920149
856661
997891
997301
1.01087e+06
1.03708e+06
999837
1.03372e+06
981485
1.01448e+06
962728
991543
946522
970361
934026
953161
925505
940606
920746
932574
919272
928541
920472
927699
1.00109e+06
1.00142e+06
997071
997252
989730
989933
980207
980598
969302
970028
957709
958916
946145
947988
935440
938108
926648
930394
921169
926350
926526
926526
754199
754199
1.12562e+06
986957
1.49516e+06
1.40016e+06
1.955e+06
1.88961e+06
2.45541e+06
2.40626e+06
3.05536e+06
3.01292e+06
3.78361e+06
3.77812e+06
4.5e+06
4.5e+06
4.5e+06
4.5e+06
4.5e+06
4.5e+06
4.5e+06
4.5e+06
4.5e+06
4.5e+06
4.5e+06
4.5e+06
4.5e+06
4.5e+06
4.5e+06
4.5e+06
4.5e+06
4.5e+06
4.5e+06
4.5e+06
4.5e+06
4.5e+06
4.5e+06
4.5e+06
4.5e+06
4.5e+06
4.5e+06
4.5e+06
4.5e+06
4.5e+06
3.63569e+06
3.60993e+06
3.031e+06
2.99916e+06
2.43158e+06
2.40079e+06
1.8965e+06
1.86001e+06
1.46438e+06
1.41236e+06
1.09696e+06
1.01359e+06
840658
713985
730096
730096
583168
583168
)
;
    }
    fixed
    {
        type            calculated;
        value           nonuniform List<scalar> 10(4.5e+06 4.5e+06 2.46337e+06 2.49928e+06 1.58519e+06 1.3635e+06 2.64495e+06 2.72388e+06 4.5e+06 4.5e+06);
    }
    front
    {
        type            calculated;
        value           nonuniform List<scalar> 
490
(
4.5e+06
2.49928e+06
1.3635e+06
2.72388e+06
4.5e+06
4.5e+06
3.00507e+06
2.04359e+06
3.26057e+06
4.5e+06
4.5e+06
3.09751e+06
2.41076e+06
3.30956e+06
4.5e+06
4.47967e+06
3.01817e+06
2.56366e+06
3.2178e+06
4.5e+06
3.84208e+06
2.85962e+06
2.5907e+06
3.05191e+06
4.15041e+06
3.42133e+06
2.69921e+06
2.57011e+06
2.87711e+06
3.64434e+06
3.02471e+06
2.55808e+06
2.54311e+06
2.72287e+06
3.24233e+06
2.63775e+06
2.43411e+06
2.52085e+06
2.58934e+06
2.85659e+06
2.26028e+06
2.32713e+06
2.50535e+06
2.47091e+06
2.47919e+06
1.89525e+06
2.23889e+06
2.50006e+06
2.36401e+06
2.10491e+06
1.54176e+06
2.13664e+06
2.47492e+06
2.2988e+06
1.89625e+06
1.30038e+06
2.00235e+06
2.44755e+06
2.40332e+06
1.94691e+06
1.06527e+06
1.86104e+06
2.39178e+06
2.48325e+06
2.12704e+06
845218
1.7121e+06
2.30632e+06
2.52091e+06
2.3217e+06
669808
1.56207e+06
2.1936e+06
2.51019e+06
2.47201e+06
595769
1.42502e+06
2.0612e+06
2.4529e+06
2.55544e+06
664510
1.32315e+06
1.92402e+06
2.35913e+06
2.57109e+06
836170
1.28322e+06
1.8071e+06
2.25009e+06
2.53527e+06
1.04253e+06
1.32257e+06
1.74513e+06
2.16236e+06
2.48428e+06
1.22757e+06
1.42944e+06
1.77005e+06
2.14672e+06
2.47959e+06
1.32645e+06
1.55071e+06
1.87892e+06
2.24173e+06
2.59519e+06
1.22921e+06
1.57021e+06
1.98059e+06
2.39978e+06
2.79033e+06
3.21876e+06
3.63213e+06
4.11244e+06
4.5e+06
4.5e+06
2.94485e+06
3.30461e+06
3.64949e+06
3.92639e+06
3.93639e+06
2.77316e+06
3.06101e+06
3.31716e+06
3.47214e+06
3.40391e+06
2.72067e+06
2.92944e+06
3.10472e+06
3.17373e+06
3.03745e+06
2.70784e+06
2.85157e+06
2.9599e+06
2.96492e+06
2.78079e+06
2.67293e+06
2.77248e+06
2.83563e+06
2.80291e+06
2.60149e+06
2.57662e+06
2.65107e+06
2.69565e+06
2.65991e+06
2.48461e+06
2.39665e+06
2.45639e+06
2.51188e+06
2.51935e+06
2.42916e+06
2.12743e+06
2.16348e+06
2.26196e+06
2.37591e+06
2.44674e+06
1.79399e+06
1.75165e+06
1.92937e+06
2.23962e+06
2.55955e+06
1.50791e+06
1.2088e+06
1.5112e+06
2.14489e+06
2.79597e+06
1.57486e+06
588991
1.06332e+06
2.16022e+06
3.18355e+06
3.87004e+06
4.08902e+06
3.94773e+06
3.67972e+06
3.48249e+06
3.25566e+06
3.42746e+06
3.36411e+06
3.19624e+06
3.03127e+06
2.78105e+06
2.85429e+06
2.80092e+06
2.6788e+06
2.53647e+06
2.44296e+06
2.37832e+06
2.27939e+06
2.16035e+06
2.02523e+06
2.23874e+06
2.01408e+06
1.82021e+06
1.66423e+06
1.51882e+06
2.16433e+06
1.78555e+06
1.45717e+06
1.21894e+06
1.03956e+06
2.21258e+06
1.72007e+06
1.25277e+06
891795
644265
2.3765e+06
1.83132e+06
1.28243e+06
837745
559348
2.65726e+06
2.11501e+06
1.5624e+06
1.13672e+06
923766
3.07441e+06
2.57451e+06
2.06537e+06
1.69203e+06
1.52384e+06
3.68139e+06
3.26577e+06
2.83748e+06
2.52533e+06
2.38311e+06
4.5e+06
4.5e+06
4.29615e+06
4.119e+06
4.02578e+06
4.04887e+06
4.21319e+06
4.38593e+06
4.48938e+06
4.45543e+06
2.554e+06
2.89695e+06
3.25338e+06
3.5348e+06
3.65233e+06
1.71292e+06
2.13134e+06
2.56394e+06
2.9095e+06
3.07827e+06
1.10172e+06
1.57232e+06
2.06096e+06
2.44939e+06
2.64707e+06
614195
1.12495e+06
1.66899e+06
2.09601e+06
2.31329e+06
316745
745064
1.34875e+06
1.81629e+06
2.04946e+06
521012
420440
1.07703e+06
1.58976e+06
1.83838e+06
930583
238231
839842
1.40278e+06
1.66868e+06
1.3747e+06
408011
630253
1.24569e+06
1.5326e+06
1.82711e+06
706610
450500
1.1114e+06
1.42483e+06
2.27008e+06
1.02677e+06
322717
994639
1.34213e+06
2.67485e+06
1.34686e+06
297122
892009
1.28384e+06
4.21418e+06
3.83962e+06
3.4093e+06
3.03184e+06
2.65675e+06
3.55879e+06
3.29756e+06
2.96604e+06
2.63716e+06
2.33417e+06
3.0336e+06
2.8232e+06
2.53793e+06
2.24818e+06
1.98763e+06
2.62453e+06
2.43632e+06
2.17575e+06
1.91508e+06
1.69006e+06
2.29839e+06
2.11664e+06
1.86942e+06
1.63246e+06
1.44046e+06
2.03324e+06
1.84754e+06
1.60663e+06
1.39161e+06
1.2347e+06
1.81507e+06
1.61778e+06
1.37874e+06
1.18726e+06
1.07117e+06
1.63491e+06
1.42037e+06
1.18099e+06
1.01806e+06
950586
1.48727e+06
1.25175e+06
1.01223e+06
886169
874032
1.36919e+06
1.11136e+06
875000
795984
839794
1.27986e+06
1.00142e+06
775179
750868
840928
1.22066e+06
926424
719887
748655
866055
2.28401e+06
1.93981e+06
1.56592e+06
1.18831e+06
856661
2.11554e+06
1.88197e+06
1.60406e+06
1.29417e+06
997301
1.84994e+06
1.72823e+06
1.53786e+06
1.29388e+06
1.03708e+06
1.60535e+06
1.5612e+06
1.44264e+06
1.25532e+06
1.03372e+06
1.397e+06
1.40824e+06
1.3457e+06
1.20566e+06
1.01448e+06
1.2262e+06
1.27715e+06
1.25781e+06
1.15655e+06
991543
1.09285e+06
1.17014e+06
1.18304e+06
1.11296e+06
970361
996836
1.08756e+06
1.12263e+06
1.07677e+06
953161
936946
1.02864e+06
1.07639e+06
1.04831e+06
940606
909414
991369
1.04326e+06
1.0271e+06
932574
907539
972483
1.02145e+06
1.01215e+06
928541
922709
967627
1.00857e+06
1.00197e+06
927699
1.03977e+06
1.03417e+06
1.02365e+06
1.01076e+06
1.00142e+06
1.0302e+06
1.02643e+06
1.01853e+06
1.00718e+06
997252
1.02485e+06
1.02217e+06
1.01523e+06
1.00309e+06
989933
1.02142e+06
1.0196e+06
1.01299e+06
998980
980598
1.01829e+06
1.01751e+06
1.01131e+06
995032
970028
1.01398e+06
1.01486e+06
1.00976e+06
991377
958916
1.00699e+06
1.01063e+06
1.00795e+06
988217
947988
995685
1.00381e+06
1.00568e+06
985940
938108
978307
993427
1.00299e+06
985292
930394
952958
978367
1.00038e+06
987719
926350
754199
986957
1.40016e+06
1.88961e+06
2.40626e+06
3.01292e+06
3.77812e+06
4.5e+06
4.5e+06
4.5e+06
4.5e+06
4.5e+06
4.5e+06
4.5e+06
4.5e+06
4.5e+06
4.5e+06
4.5e+06
4.5e+06
4.5e+06
4.5e+06
4.5e+06
3.60993e+06
2.99916e+06
2.40079e+06
1.86001e+06
1.41236e+06
1.01359e+06
713985
583168
)
;
    }
    symmx
    {
        type            calculated;
        value           nonuniform List<scalar> 
40
(
2.68094e+06
2.67485e+06
1.37238e+06
1.34686e+06
298355
297122
829420
892009
1.22393e+06
1.28384e+06
1.17525e+06
1.22066e+06
902609
926424
716448
719887
751502
748655
865311
866055
1.03974e+06
1.03977e+06
1.02988e+06
1.0302e+06
1.02409e+06
1.02485e+06
1.02027e+06
1.02142e+06
1.01672e+06
1.01829e+06
1.01194e+06
1.01398e+06
1.00444e+06
1.00699e+06
992617
995685
974782
978307
949287
952958
)
;
    }
    loading
    {
        type            calculated;
        value           nonuniform List<scalar> 10(1.03974e+06 1.03977e+06 1.03408e+06 1.03417e+06 1.02344e+06 1.02365e+06 1.01042e+06 1.01076e+06 1.00109e+06 1.00142e+06);
    }
}


// ************************************************************************* //
