/*--------------------------------*- C++ -*----------------------------------*\
| =========                 |                                                 |
| \\      /  F ield         | OpenFOAM: The Open Source CFD Toolbox           |
|  \\    /   O peration     | Version:  v2012                                 |
|   \\  /    A nd           | Website:  www.openfoam.com                      |
|    \\/     M anipulation  |                                                 |
\*---------------------------------------------------------------------------*/
FoamFile
{
    version     2.0;
    format      ascii;
    class       volSymmTensorField;
    location    "1";
    object      sigma;
}
// * * * * * * * * * * * * * * * * * * * * * * * * * * * * * * * * * * * * * //

dimensions      [1 -1 -2 0 0 0 0];


internalField   nonuniform List<symmTensor> 
980
(
(-5.88345e+06 -1.35211e+06 211719 -1.92598e+06 -12997.5 -2.20641e+06)
(-5.86282e+06 -1.1953e+06 673770 -1.97143e+06 -39020.3 -2.11711e+06)
(-2.58212e+06 -994228 124062 -856034 -19265.5 -813052)
(-2.64458e+06 -868209 415232 -847569 -54613.5 -727804)
(151208 -913096 -8213.67 53792 -19697.8 46784.7)
(161385 -782666 -26642.1 56922 -48272.7 44859)
(2.89222e+06 -1.01491e+06 -141874 958752 -19536.3 905500)
(2.97234e+06 -887197 -473119 954551 -55937.3 812941)
(5.95711e+06 -1.36686e+06 -220151 2.01146e+06 -14231.9 2.30411e+06)
(5.93731e+06 -1.20619e+06 -697713 2.06641e+06 -43031.5 2.2182e+06)
(-5.15409e+06 -727696 58084.4 -612455 -17951.2 -1.0999e+06)
(-4.91883e+06 -658269 92113.4 -420502 -48046 -735392)
(-2.70651e+06 -1.21764e+06 45225.9 -521017 -41461.3 -443617)
(-2.57238e+06 -1.1349e+06 86652.1 -408957 -101442 -224646)
(165724 -1.26399e+06 -3785.04 38782 -44268.9 24106.9)
(160030 -1.17336e+06 -7700.15 35807 -94810.5 12939.3)
(3.08686e+06 -1.22866e+06 -54275.1 599476 -42543.6 500609)
(2.93546e+06 -1.14402e+06 -106332 478534 -103754 253940)
(5.22372e+06 -718254 -60987.7 672270 -19645.1 1.17227e+06)
(4.9665e+06 -647915 -100940 461016 -53599.7 783232)
(-4.765e+06 -543113 -16069.8 -179420 -5038.06 -576542)
(-4.62398e+06 -537544 -64298.8 -60649.4 -933.723 -405111)
(-2.46232e+06 -1.27136e+06 -3010.28 -239026 -38222.2 -194842)
(-2.33692e+06 -1.2437e+06 -22357.2 -153134 -77739.7 -79758.9)
(164599 -1.42198e+06 -417.834 21695.9 -44064.3 8886.69)
(157007 -1.38696e+06 136.898 20596.7 -80660.3 3314.73)
(2.79262e+06 -1.2571e+06 2286.53 269683 -39710.5 200912)
(2.65284e+06 -1.23155e+06 21102.5 182200 -79880.9 74207.4)
(4.80623e+06 -509891 16145.1 203935 -6577 612128)
(4.6549e+06 -505443 62352.4 77660.3 -5834.14 427590)
(-4.47744e+06 -530213 -38026.4 72907 6197.5 -234285)
(-4.39799e+06 -552180 -91023.2 129245 29292 -197006)
(-2.1579e+06 -1.26732e+06 -16900.7 -80550.4 -25444.9 -82779.5)
(-2.07831e+06 -1.27777e+06 -41581.7 -21781.7 -49715.3 -36808.1)
(158116 -1.46903e+06 811.283 7636.15 -32649 1759.45)
(152928 -1.47651e+06 2022.87 7970.24 -57617.2 370.679)
(2.47076e+06 -1.25527e+06 19310.9 95587.4 -26533.5 78837.1)
(2.38051e+06 -1.26903e+06 47159.6 36954.9 -51409.1 30109.4)
(4.55413e+06 -476687 40647.6 -15639.2 4878.84 294105)
(4.48215e+06 -502978 98640.9 -82569.3 24262.8 242081)
(-3.78463e+06 -514910 -29026.1 81307 11296.2 -137724)
(-3.74342e+06 -540658 -55955.8 103773 37349.8 -155371)
(-1.87406e+06 -1.23623e+06 -14790.5 -13346.3 -15009.2 -42197.7)
(-1.82925e+06 -1.26643e+06 -29720.8 29922.5 -31724.8 -23408.7)
(153281 -1.46158e+06 1011.54 -3786.04 -21854.9 -42.1353)
(151036 -1.4926e+06 2067.47 -3199.05 -40252.1 137.861)
(2.16889e+06 -1.22843e+06 17873.3 6517.68 -15300.3 36360)
(2.12038e+06 -1.26163e+06 36298.5 -35397.3 -31697.5 19496.9)
(4.09289e+06 -499373 35278.7 -108058 11361.9 123686)
(4.04596e+06 -529417 70903.4 -128983 37312.8 143772)
(-3.35376e+06 -536049 -20006.9 21950.3 12025.4 -150467)
(-3.33761e+06 -563220 -35213.8 39889.5 34807 -168706)
(-1.62737e+06 -1.21326e+06 -10144.1 -2153.95 -9413.83 -32329.6)
(-1.60007e+06 -1.2514e+06 -17819 33696.2 -23266.1 -19494.8)
(149680 -1.43954e+06 716.694 -12462.8 -14910 371.827)
(149644 -1.48083e+06 1288.53 -12193.4 -29732.2 662.575)
(1.90792e+06 -1.20499e+06 11911.3 -22917.9 -9016 28296)
(1.88217e+06 -1.24559e+06 20876.8 -57194.2 -21869.4 18264.7)
(3.56008e+06 -517489 22780.8 -59887.4 12333 121917)
(3.54837e+06 -547638 39352.4 -74540.3 36043.2 146678)
(-2.92699e+06 -547880 -15228.7 3516.2 11017.9 -142501)
(-2.91846e+06 -574361 -26594.4 20346.3 30525.5 -154138)
(-1.40156e+06 -1.2005e+06 -6967.36 -7387.74 -6758.29 -29295.8)
(-1.38245e+06 -1.24115e+06 -11742.5 23466.3 -19040 -17305.5)
(147103 -1.42041e+06 482.337 -17226.5 -11081.1 1757.78)
(148191 -1.46527e+06 774.401 -17600.3 -23692.9 1300.4)
(1.67646e+06 -1.19421e+06 7705.19 -25143.6 -6321.96 29807.7)
(1.66047e+06 -1.2368e+06 12386.7 -55791.9 -17685.5 18504.2)
(3.14027e+06 -545434 15972.8 -22540.2 11207.9 133038)
(3.13602e+06 -573982 26062.3 -37850 31194.2 147569)
(-2.50158e+06 -553792 -12452.5 -3176.56 9662.93 -125123)
(-2.49641e+06 -579531 -22124.1 11377.2 26242.6 -133529)
(-1.18445e+06 -1.19154e+06 -4900.21 -13077.2 -5287.24 -25280.5)
(-1.16946e+06 -1.23257e+06 -8080.94 13070.7 -15973.4 -14758.2)
(145880 -1.40668e+06 697.586 -18634.3 -8922.22 4108.76)
(147816 -1.45243e+06 1393.87 -19686.8 -19833.9 2427.32)
(1.45974e+06 -1.18987e+06 5810.99 -20403.3 -5208.5 31989.2)
(1.44836e+06 -1.23289e+06 9552.77 -48202.7 -15347.4 18973.2)
(2.71596e+06 -566326 13035.1 -10562.2 9598.98 125082)
(2.71321e+06 -594388 22036.5 -25971 26356 131456)
(-2.07848e+06 -556009 -10492.2 -7761.37 8273.39 -103497)
(-2.07398e+06 -580868 -18607 4379.37 22194 -110438)
(-972364 -1.18463e+06 -3253.57 -18679.1 -4191.45 -19785.9)
(-958507 -1.2252e+06 -4520.78 3302.16 -13082.7 -10931.3)
(145267 -1.39775e+06 1490.86 -17850.9 -7498.67 7814.03)
(149360 -1.44349e+06 4002.95 -19032.3 -16829.6 5414.62)
(1.25052e+06 -1.18666e+06 5492.54 -11447.6 -4758.67 35208.8)
(1.24307e+06 -1.22999e+06 10313.1 -36303.9 -13632.2 21719.4)
(2.28842e+06 -583224 12309.3 -673.586 7848.71 111700)
(2.28575e+06 -612186 22093 -16258 21723.5 112610)
(-1.65851e+06 -554694 -9146.88 -16351.4 6803.42 -80984.9)
(-1.65165e+06 -578494 -14457.6 -5382.9 18476.3 -84413.6)
(-764458 -1.17986e+06 -2278.12 -28726.3 -3244.43 -15010.2)
(-747112 -1.21956e+06 693.272 -8091.76 -9653.57 -2473.19)
(142393 -1.39518e+06 2163.36 -17377.6 -6380.47 11580.3)
(153808 -1.44051e+06 10574.5 -14830.8 -13562.6 16382.4)
(1.04436e+06 -1.18383e+06 5854.34 8429.73 -4710.73 42316.9)
(1.04491e+06 -1.22738e+06 15998.9 -10673.2 -12374.7 35154.3)
(1.85826e+06 -594354 12798.3 25764.3 6084.1 102572)
(1.85706e+06 -626144 27024.3 8722.39 16850.3 102742)
(-1.24156e+06 -521996 -9712.03 -3138.19 5267.69 -37609.4)
(-1.23464e+06 -546038 -19075 4887.19 14606.5 -41708.2)
(-628265 -1.14359e+06 -4267.92 -44450.1 -2653.86 -17952.1)
(-621657 -1.18363e+06 -8283.91 -31361 -7431.13 -9409.6)
(-14600.1 -1.38094e+06 -299.216 -62145.9 -5489.22 -28127)
(-19394.3 -1.42863e+06 1663.45 -65275.9 -11463.8 -24914.2)
(632540 -1.22191e+06 3843.95 -44358.1 -4987.01 -18746.6)
(614037 -1.27084e+06 9527.21 -67836.8 -13062.1 -26703.3)
(1.42261e+06 -729520 12325.6 45244.9 2758.65 97638.2)
(1.40034e+06 -769205 29409.8 16770.1 8004.15 90293.2)
(-988183 -491519 -8807 -28796.7 4053 -38800.2)
(-981006 -514186 -14587 -23652.8 11196.7 -44704.4)
(-509408 -1.08409e+06 -4212.89 -49501.8 -2058.64 -13719.4)
(-501893 -1.12253e+06 -7862.85 -39995.2 -5963.06 -8470.84)
(-57611 -1.36641e+06 -1029.05 -57044.9 -4399.03 -17478.4)
(-56823.2 -1.41283e+06 -2712.3 -58657.9 -9433.16 -13522.8)
(392281 -1.31696e+06 3076.27 -42567.9 -4788.5 -15905.5)
(384965 -1.36574e+06 4499.33 -58553.3 -12260.9 -16035.2)
(900849 -956288 9149.23 -8884.96 -908.073 35747.7)
(892029 -999615 22971.4 -30595.5 133.318 39895.4)
(-719888 -453898 -8272.18 -37756.5 2803.53 -31925.8)
(-710274 -475247 -13862.9 -33562.4 7721.36 -35762.4)
(-364308 -1.02084e+06 -4155.27 -57983 -1759.81 -10989.7)
(-355072 -1.05761e+06 -8138.3 -51455.9 -5284.82 -7141.55)
(-45228.2 -1.33543e+06 -1708.56 -63894.8 -3511.91 -11060)
(-40400.2 -1.38057e+06 -4870.36 -65849.2 -7648.5 -8321.79)
(244799 -1.3753e+06 1511.27 -54054.9 -4074.76 -12720.1)
(245374 -1.42402e+06 510.317 -65942.8 -9311.45 -10739.8)
(540546 -1.13731e+06 5735.35 -42485.5 -2816.52 6298.36)
(542867 -1.18347e+06 14398.9 -58250.7 -2556.92 16709.1)
(-438926 -410562 -8018.85 -39477.1 1625.38 -21676.7)
(-426745 -430655 -14073.4 -36314.4 4564.48 -24124.8)
(-191033 -949534 -4204.34 -65334.3 -1674.68 -8007.64)
(-179840 -984414 -8674.63 -61848.7 -4867.37 -5402.01)
(19559.2 -1.28692e+06 -2279.39 -75622.9 -2884.86 -7439.26)
(28123.5 -1.3304e+06 -6349.13 -78801.3 -6298.95 -5591.76)
(183075 -1.40046e+06 -25.1782 -69987.2 -3283.71 -10630.3)
(189823 -1.44871e+06 -2666.89 -79987.1 -6747.41 -8110.88)
(318335 -1.27493e+06 2631.65 -64509.3 -3099.25 -7096.9)
(327427 -1.32317e+06 6582.54 -77458.7 -3314.28 2991.17)
(-148587 -362402 -7699.6 -37807.7 545.352 -10937.7)
(-133792 -381066 -14019.4 -35725.8 1727.79 -12669)
(10070.2 -867921 -4267.33 -70374.3 -1774.52 -4817.76)
(23502.9 -900521 -9160.62 -69932.4 -4707.81 -3384.8)
(135411 -1.21928e+06 -2833.29 -87650 -2544.15 -5450.75)
(147824 -1.26059e+06 -7684.64 -92703.4 -5437.67 -3963.68)
(202561 -1.39329e+06 -1456.21 -85437.5 -2738.77 -9803.88)
(214715 -1.44041e+06 -5423.9 -95358 -5068.36 -6998.76)
(219768 -1.36797e+06 -6.32659 -78464.1 -2821.45 -13382.7)
(233323 -1.41726e+06 79.719 -91175.7 -3529.15 -6272.91)
(146550 -310039 -7105.53 -34266.6 -464.176 -1789.39)
(164472 -326859 -13164.4 -32963.1 -831.841 -2605.89)
(237163 -774673 -4298.05 -73004.4 -2143.67 -2096.02)
(253503 -804379 -9441.87 -75321.9 -5003.9 -1261.27)
(301268 -1.13089e+06 -3486.66 -97751.5 -2585.05 -4614.08)
(318003 -1.16933e+06 -9141.28 -105136 -5193.18 -2803.58)
(300601 -1.35328e+06 -2938.34 -97880.8 -2592.64 -10075.3)
(318117 -1.39847e+06 -8207.16 -109199 -4258.31 -6662.08)
(235820 -1.41462e+06 -2377.09 -85296.5 -2584.83 -16838.2)
(253367 -1.46386e+06 -5433.91 -99653.6 -3678.09 -12764.5)
(439861 -253932 -6246.61 -29525.4 -1489.73 3454.83)
(462080 -268306 -11344.2 -28258.8 -3155.23 5086.08)
(486623 -668725 -4393.52 -73601.1 -2969.56 -1164.12)
(507098 -694708 -9548.12 -77983.8 -6076.06 659.358)
(515600 -1.01989e+06 -4459.29 -105476 -3221.15 -5171.03)
(537543 -1.05457e+06 -11027.2 -115385 -5879.96 -1823.05)
(476026 -1.27908e+06 -4808.21 -106853 -3011.64 -11406.8)
(499429 -1.32139e+06 -11611.4 -120766 -4359.36 -6531.42)
(361837 -1.41337e+06 -4967.29 -85842.6 -2697.9 -19466.7)
(384101 -1.46141e+06 -10768.4 -103302 -3907.66 -17009.4)
(721258 -194347 -5461.21 -24059.8 -2716.03 1112.31)
(749621 -205579 -8797.81 -21500.1 -5297.87 8948.29)
(751766 -548733 -4909.29 -72962.7 -4572.65 -4655.33)
(778212 -570027 -9792.69 -78122.3 -8398.25 1629.85)
(775230 -883636 -6208.01 -111816 -4858.96 -8468.31)
(803636 -913456 -13910 -124018 -8138.03 -1086.12)
(728604 -1.16805e+06 -7691.02 -114048 -4361.21 -14309.7)
(758725 -1.20628e+06 -16595.4 -131493 -5812.96 -6174.74)
(597645 -1.36252e+06 -8636.09 -82728.8 -3499.01 -22390.9)
(625875 -1.40809e+06 -17321.6 -104653 -4505.85 -19001.9)
(974275 -131136 -5642.68 -18501 -4500.96 -15575.7)
(1.01108e+06 -138635 -6432.75 -12444.1 -7365.59 6144.39)
(1.01988e+06 -412399 -6668.65 -72508.6 -7484.15 -17980.3)
(1.05455e+06 -428105 -11005.2 -76219.3 -12710.1 -247.043)
(1.07242e+06 -717509 -9637.97 -119226 -8216.36 -18135.5)
(1.10864e+06 -741316 -18876.3 -132703 -13194.7 -1472.49)
(1.05724e+06 -1.01448e+06 -12719.8 -123649 -7420.99 -20667.1)
(1.09463e+06 -1.04726e+06 -24833.1 -145149 -9941.34 -5464.41)
(947916 -1.25802e+06 -14850.4 -82092.3 -5701.97 -26709.3)
(982785 -1.29958e+06 -27566.9 -110029 -6580.67 -18351)
(1.16934e+06 -63196.4 -8581.88 -14078.1 -7481.02 -59612.9)
(1.2166e+06 -66918.1 -6308.97 -983.147 -9607.38 -9620.54)
(1.26542e+06 -255327 -11288.1 -74813.6 -12557.7 -52324.4)
(1.31025e+06 -265109 -14963.6 -73333.1 -20285.9 -9874.34)
(1.38712e+06 -513058 -16410.9 -132356 -14466.2 -43135.1)
(1.43174e+06 -530075 -27925.4 -144587 -23377.4 -6458.03)
(1.45286e+06 -805713 -21840.6 -143031 -13655.3 -36225)
(1.49649e+06 -831790 -39202.4 -168096 -19921.8 -5769.35)
(1.42033e+06 -1.08708e+06 -26050.2 -95396.5 -10868.8 -34594.9)
(1.45964e+06 -1.12298e+06 -45979 -131022 -13583.9 -14317)
(1.24529e+06 12834.9 -17092.5 -14551.3 -12656.5 -157302)
(1.3029e+06 11250.4 -12068.7 11013.8 -12807.3 -54699.4)
(1.43219e+06 -69016.9 -21358.2 -85067.7 -21057.1 -131202)
(1.48669e+06 -74336 -24928.6 -72447 -33707.4 -40990.5)
(1.66738e+06 -255005 -29132.5 -159621 -25338.1 -104557)
(1.71783e+06 -266056 -44582.2 -165523 -43273.1 -27677.5)
(1.86904e+06 -516949 -37922.2 -187396 -25459.8 -80541.6)
(1.91329e+06 -536357 -64234.7 -213069 -42613.5 -17896)
(2.004e+06 -812490 -45786.6 -142084 -22116.3 -55393)
(2.03791e+06 -841980 -80239.6 -186080 -34970.7 -9853.63)
(1.04508e+06 103729 -32444.6 -53906.4 -21380.6 -373397)
(1.10706e+06 97981 -27776.2 -9621.42 -19866.3 -188456)
(1.37355e+06 152925 -38255.3 -119076 -34598.6 -308616)
(1.42898e+06 145865 -44831 -88494.9 -58865.9 -141095)
(1.7638e+06 75350.7 -49184.1 -215955 -43215.6 -253576)
(1.80737e+06 64728.2 -73759.9 -208747 -83212 -108717)
(2.14271e+06 -117294 -62476.8 -286573 -46602.3 -209059)
(2.16936e+06 -134584 -107689 -307464 -93587.1 -90098.3)
(2.45142e+06 -384212 -75788.6 -296839 -45200.1 -178621)
(2.45461e+06 -410682 -141951 -347012 -92763.6 -89404.3)
(2.85361e+06 -606165 -86776.2 -184816 -38986.7 -108451)
(2.82674e+06 -644103 -168353 -282754 -77564.5 -55035.4)
(3.20338e+06 -888043 -102457 17198.8 -31167.4 -50066.7)
(3.12999e+06 -943118 -221802 -132572 -66675.9 -43943.3)
(3.58785e+06 -1.24839e+06 -118806 350121 -17882 42265.6)
(3.43883e+06 -1.32479e+06 -283778 155330 -37386.7 -23662.9)
(4.00906e+06 -1.6718e+06 -132626 1.03907e+06 4537.43 244427)
(3.72978e+06 -1.73605e+06 -335377 833149 22209.8 142153)
(4.13082e+06 -1.85764e+06 -124508 2.04256e+06 36111 522223)
(3.73941e+06 -1.91259e+06 -311261 1.80722e+06 120374 295025)
(2.08706e+06 -1.07143e+06 -49679.9 -82613.7 -13118.4 -77048.1)
(2.0823e+06 -1.12451e+06 -76736.8 -182435 -7396.62 -57022.2)
(2.32031e+06 -1.3007e+06 -60770.3 138247 -4728.58 -48020.6)
(2.28333e+06 -1.36855e+06 -110813 14872.5 7.1195 -36367.6)
(2.51348e+06 -1.5608e+06 -71319.3 516102 9074.55 1276.23)
(2.42413e+06 -1.64228e+06 -144995 366102 23320.2 -14202.1)
(2.603e+06 -1.79818e+06 -77002.3 1.11521e+06 29034.3 75301.2)
(2.45404e+06 -1.8974e+06 -169300 948234 64448.6 22707.9)
(2.55929e+06 -1.85327e+06 -72225.3 1.90337e+06 53265.8 166067)
(2.33256e+06 -1.9368e+06 -162775 1.74537e+06 122165 74609.4)
(1.42159e+06 -1.28539e+06 -26661 -18002.8 -2964.13 -54235.7)
(1.42183e+06 -1.34661e+06 -31472.8 -101286 13004.9 -51759.6)
(1.57691e+06 -1.45014e+06 -33215.8 164150 4856.57 -48825.1)
(1.56094e+06 -1.52426e+06 -53499.9 71972.9 16879.1 -36469.3)
(1.67738e+06 -1.62461e+06 -40349.2 493613 16126.9 -28142)
(1.62897e+06 -1.70982e+06 -75145.7 391389 32634.3 -21417.4)
(1.6768e+06 -1.74635e+06 -43924.7 997489 31892 6473.35)
(1.58349e+06 -1.83769e+06 -88699.5 892531 61034 458.045)
(1.56684e+06 -1.69676e+06 -40124.8 1.61898e+06 50174.2 47502.7)
(1.42169e+06 -1.77421e+06 -83732.6 1.52209e+06 98433.9 27764.6)
(909165 -1.40414e+06 -13529.7 -7753.51 892.725 -40362.5)
(909772 -1.46784e+06 -10232.7 -71581.7 16301.5 -44582)
(1.00674e+06 -1.51829e+06 -16877.5 141349 7464.13 -43255.8)
(1.00096e+06 -1.59279e+06 -24253.2 75341.2 18216.9 -32209.3)
(1.04608e+06 -1.62947e+06 -21578.8 417405 15852.6 -35198.8)
(1.02037e+06 -1.71223e+06 -38558.1 349956 28422.9 -22066.4)
(992359 -1.6758e+06 -24150.3 837855 27523.9 -17998.6)
(936272 -1.76017e+06 -47497.3 775533 47703.9 -7238.98)
(850800 -1.55919e+06 -21664.4 1.33862e+06 40828.2 2601.59)
(760289 -1.62978e+06 -44003.8 1.28796e+06 72626.4 10685.5)
(531735 -1.4634e+06 -6271.45 -16147.9 1910.13 -30563.9)
(531306 -1.52681e+06 -714.414 -63435 14122 -36371.8)
(570224 -1.54197e+06 -7498.57 101264 7180.58 -36006.2)
(569062 -1.61421e+06 -9039.41 54442.8 15310.6 -27232.3)
(551033 -1.60753e+06 -10423.9 328239 13243.7 -32674)
(538709 -1.68562e+06 -18418.1 284503 21859.4 -19815.5)
(448014 -1.60173e+06 -12300.2 677635 21622.2 -22686.2)
(416333 -1.67898e+06 -24653.3 643330 34748.2 -8484.28)
(275089 -1.44e+06 -10919.2 1.08565e+06 31021.2 -10493.9)
(221134 -1.50348e+06 -22605.6 1.0655e+06 51329.9 5103.33)
(274367 -1.47036e+06 -2322.92 -25054.2 1438.78 -22673)
(272590 -1.53227e+06 3015.99 -59736.5 9822.43 -27300.9)
(240890 -1.52536e+06 -2065.39 60727.2 5751.18 -29287.4)
(241273 -1.59448e+06 -680.07 26817 11547.4 -22925.6)
(151764 -1.55971e+06 -3660.73 241906 10289.3 -27764.2)
(147401 -1.63273e+06 -6578.02 213514 16110.2 -17448.5)
(-10650.8 -1.51836e+06 -5035.94 529181 16336.9 -20551.9)
(-25894.1 -1.58886e+06 -11118.1 512604 24893.6 -7953.84)
(-225658 -1.32648e+06 -4534.07 862221 22920.5 -11594)
(-254207 -1.38331e+06 -10382.4 861076 36067.8 3443.97)
(131762 -1.42467e+06 -137.548 -26832.4 -25.6637 -14973.3)
(128519 -1.4845e+06 3906.1 -52755.6 4057.09 -16830.8)
(5154.13 -1.46467e+06 1336.97 27706.9 3857.78 -23706.7)
(5113 -1.53051e+06 4588.34 1498.31 7587.27 -19556.5)
(-174398 -1.47984e+06 795.285 165446 7651.59 -23700)
(-174032 -1.54802e+06 1239.78 146426 11612.7 -16041.4)
(-414926 -1.41688e+06 -243.835 396636 12226.1 -17924.9)
(-418497 -1.48128e+06 -2289.73 391066 18212.7 -7858.76)
(-688878 -1.20763e+06 -502.584 666402 16917.3 -10405.2)
(-698703 -1.25852e+06 -2813.17 676968 26227.4 2130.08)
(107023 -1.3245e+06 1241.28 -19829.5 -2234.29 -5332.45)
(101838 -1.38171e+06 3546.31 -40931.5 -3228.66 -3994.45)
(-141333 -1.3539e+06 3919.03 5334.73 1778.54 -18757.2)
(-143429 -1.41629e+06 8876.08 -17692.1 3259.71 -16854.2)
(-439675 -1.35987e+06 4268.87 102226 5411.99 -21665.9)
(-436635 -1.42331e+06 7434.65 88314.2 7877.7 -15894)
(-784471 -1.28829e+06 3412.35 281834 9108.43 -18039.8)
(-779158 -1.34699e+06 4411.9 283149 13795.6 -9362.5)
(-1.13961e+06 -1.07464e+06 2392.87 496420 12555.4 -12291.5)
(-1.13456e+06 -1.12015e+06 2554.51 514648 20337.2 -957.167)
(210723 -1.16833e+06 2510.89 -6149.06 -4698.94 9848.29)
(202360 -1.22209e+06 3018.42 -26805.5 -11788.8 12927.3)
(-196129 -1.18645e+06 6501.2 -6382.03 -158.362 -12763.2)
(-202004 -1.24466e+06 13510.6 -30450 -1529.07 -14066.3)
(-649418 -1.1909e+06 7626.18 53770.7 3482.5 -21625.6)
(-645208 -1.24911e+06 13468.5 41730.7 4215.65 -16878.8)
(-1.13248e+06 -1.12341e+06 6797.2 186200 6453.75 -22906.8)
(-1.11998e+06 -1.17623e+06 10595.3 191856 10278.8 -13409.5)
(-1.59728e+06 -919925 4915.07 351785 8914 -21342.4)
(-1.57956e+06 -960140 7201.87 375631 16352.5 -7933.95)
(461187 -955342 4411.88 9758.93 -6135.82 37461)
(447560 -1.00414e+06 3492.76 -14874.9 -19961.8 37807.8)
(-151864 -955566 9762.97 -10106.8 -1156.9 -2354.94)
(-163426 -1.0078e+06 19503.6 -38926.7 -5936.84 -9479.68)
(-803690 -963501 11500.4 20354.6 1907.54 -22321.3)
(-799734 -1.01485e+06 20380.7 7551.98 195.804 -18383.1)
(-1.46782e+06 -912390 10503.9 111495 3612.55 -34066.7)
(-1.44964e+06 -958156 17433.6 119398 5887.74 -21468.3)
(-2.07913e+06 -736184 7571.77 233748 4782.77 -42082.7)
(-2.05057e+06 -770484 12167.5 261497 11300.1 -22598.8)
(886949 -684242 8067.4 22400.3 -4116.08 90529)
(867023 -725066 7103.53 -7808.67 -22509.2 81829.9)
(794.565 -654535 14536.4 -11888.8 308.603 17855.1)
(-17502.1 -696888 27884.3 -46507.7 -6676.05 1674.36)
(-897842 -668001 16571.9 910.078 1182.19 -20648.2)
(-895838 -708991 29225.2 -14416.8 -3742.24 -18723.3)
(-1.79526e+06 -644158 15060.4 60400.3 243.735 -52179.6)
(-1.77452e+06 -680180 25976.4 67241.1 -1794.93 -37221.5)
(-2.6017e+06 -515404 10778.5 146056 -855.632 -79864.8)
(-2.5667e+06 -542124 18292.5 173184 217.055 -54601.8)
(1.53323e+06 -348683 14983.9 26277.1 2033.93 189447)
(1.51976e+06 -374772 19516.8 2638.48 -5220.78 185569)
(265068 -276389 22483.6 -24512.9 5060.14 51955.6)
(246544 -300204 40162.1 -55021.8 5422.46 37376)
(-922729 -295649 24405.1 -7891.83 2525.55 -10861.3)
(-924283 -318906 41801.6 -24441.3 -5145.55 -12912.6)
(-2.11339e+06 -306032 21599.3 37654.5 -2093.9 -73990.9)
(-2.10008e+06 -326692 37306.8 35400.1 -16426.5 -72559.4)
(-3.18013e+06 -247851 15286.3 97372.2 -6387.11 -137440)
(-3.15565e+06 -263422 26187.1 108385 -26304.3 -133586)
(-3.89443e+06 -111145 6402.84 128746 -8832.35 -171177)
(-3.86497e+06 -119276 9282.79 146395 -31994.1 -167267)
(-4.12518e+06 27469.9 -2478.12 107520 -8821.7 -155006)
(-4.09848e+06 26984.3 -7839.98 121333 -32159.3 -155681)
(-3.98138e+06 91479.5 -8584.29 62808.8 -6993.32 -105697)
(-3.96288e+06 96415.3 -18635.2 67547.7 -28523.1 -111928)
(-3.70892e+06 80003.4 -11586.2 25435.6 -3848.4 -67157.5)
(-3.69858e+06 87619.4 -22114.2 24128.3 -23658.7 -70786.8)
(-3.55149e+06 -1921.37 -12311.6 -29964.6 -746.496 -98833)
(-3.55919e+06 6122.22 -31542.9 -41775.6 -9724.78 -113708)
(-3.16497e+06 -278243 4516.58 192500 -1707.15 -94897.8)
(-3.12271e+06 -291942 6833.24 230784 1022.08 -64273.2)
(-3.39549e+06 -30894.8 -1861.56 157120 -2243.83 -91229.8)
(-3.35403e+06 -31193.9 -4826.36 193554 -301.591 -61852.8)
(-3.36161e+06 119656 -6466.55 77952.1 -2257.02 -74808.7)
(-3.32721e+06 129367 -12616.8 103510 -2953.31 -50068.6)
(-3.21491e+06 147726 -9128.02 11620.4 -562.939 -62962.1)
(-3.19097e+06 163382 -16320.7 24305.9 -3355.55 -40100.9)
(-3.0878e+06 73936 -10454.7 -34221.2 1241.23 -80198.3)
(-3.08712e+06 91385.7 -27844.7 -42019.5 8004.57 -79130.1)
(-2.52433e+06 -434811 3386.9 302387 5259.79 -46745.2)
(-2.49022e+06 -452584 5315.61 341679 14127.7 -23398.1)
(-2.73179e+06 -114653 -979.408 259143 4865.39 -48121.7)
(-2.69706e+06 -115155 -1629 297539 12886.9 -24609.2)
(-2.7466e+06 103423 -4649.16 143546 4231.04 -48157.2)
(-2.71537e+06 116138 -7319.46 171759 9123.79 -25754.1)
(-2.67168e+06 180139 -7609.46 30863.7 5097.44 -52877.4)
(-2.64807e+06 200901 -12655.1 44698.4 7689.07 -30480.7)
(-2.58466e+06 137534 -8998.2 -43151.3 5373.81 -68985.6)
(-2.58475e+06 161598 -26380.3 -55828.9 18091.5 -73019.4)
(-1.94972e+06 -580238 2527.95 448857 10261.3 -21021.4)
(-1.92907e+06 -601459 4083.72 483874 19767.3 -5074.23)
(-2.12406e+06 -212199 -54.883 404094 10115.8 -24667.9)
(-2.10174e+06 -213113 1002.06 438700 18762.4 -7665.37)
(-2.15126e+06 56976.6 -2856.33 255180 9311.48 -32724.6)
(-2.12873e+06 72027.8 -2973.96 279976 15138.4 -14455.5)
(-2.10951e+06 179908 -6008.74 91436 9693.27 -46170.6)
(-2.09097e+06 204983 -9654.5 100574 14021.4 -26672.2)
(-2.05102e+06 176646 -7471.15 -29630.9 8645.32 -63410.8)
(-2.05434e+06 206274 -25230 -50806.6 24478.6 -72999.1)
(-1.41973e+06 -715301 1634.52 628785 14684.5 -9951.36)
(-1.41481e+06 -739816 2673.43 657940 24326.5 3595.85)
(-1.55864e+06 -316569 754.634 590195 14822.2 -14942.8)
(-1.55151e+06 -317993 3058.59 619112 23511.6 439.903)
(-1.57791e+06 -9436.92 -1065.79 414126 13865.4 -27058.7)
(-1.56723e+06 7831.79 825.779 432917 19833.2 -9168.24)
(-1.544e+06 152901 -4079.75 200751 13654.2 -44673.8)
(-1.53346e+06 182206 -6531.74 202154 18807.5 -25636.7)
(-1.49857e+06 188282 -5467.47 25319.1 11219 -62043.4)
(-1.50657e+06 223159 -23265.8 -6400.58 29214.3 -74322.6)
(-914076 -842263 374.176 842563 20105.4 -7412.48)
(-927754 -870257 518.935 863986 31571.9 7659.7)
(-1.02018e+06 -424381 1368.65 819627 20660.4 -13607.5)
(-1.0318e+06 -426382 4618.18 840767 31088.3 4137.51)
(-1.02172e+06 -88947.2 891.705 624710 19406.2 -28312.5)
(-1.02685e+06 -69296.9 4693.29 634939 26768.5 -7366.51)
(-980427 105112 -1481.57 366693 18186.5 -47986.2)
(-981486 138936 -2442.84 357518 24866.8 -26787.5)
(-935428 173676 -2497.82 136271 13973.9 -64444.4)
(-950203 213898 -19456.8 91817.7 34270 -76462.7)
(-411167 -965364 -1768.77 1.09355e+06 27757.1 -8063.39)
(-448465 -997250 -3335.94 1.10303e+06 44171.5 9894.63)
(-490302 -535695 1642.62 1.09844e+06 29048.7 -15514.6)
(-526646 -538374 5530.4 1.10724e+06 44582.6 5964)
(-471316 -178113 3262.41 895083 27371.4 -32799.2)
(-498584 -155833 9275.8 891885 39128.7 -7493.93)
(-414855 41145.5 2316.1 599482 24600.3 -54364.3)
(-433242 79907.4 3769.31 574909 35117 -29790.6)
(-362134 135535 2146.54 316969 18015.1 -70101.6)
(-387688 181388 -12348 255657 42050.7 -79819.3)
(116014 -1.09179e+06 -5709.03 1.38831e+06 38379.5 -4947.4)
(46506.3 -1.12801e+06 -10727.2 1.37771e+06 64311.7 13070.9)
(56141.2 -654811 1145.14 1.43768e+06 40976 -13264)
(-14938 -658267 5019.16 1.42513e+06 66860 8709.91)
(93773.8 -277849 6178.83 1.23937e+06 38904.4 -33985)
(33884.6 -252740 15028 1.21331e+06 60202.6 -7408.03)
(167806 -37367.4 7939.02 914872 34078.8 -59124.6)
(122407 6644.55 13618.4 865683 52888.1 -33584.6)
(232213 75867.5 9435.89 584547 24499.4 -76409.8)
(188273 127551 299.633 497963 55621 -84491)
(708060 -1.23337e+06 -13122.4 1.73683e+06 51828.1 14690.4)
(592152 -1.27395e+06 -25385.7 1.69273e+06 93648.4 21939.9)
(659395 -792670 -1224.8 1.85531e+06 56579.6 7686.33)
(537133 -796655 834.964 1.80593e+06 100639 17609.1)
(710728 -396458 9281.1 1.6817e+06 54396.9 -17319.6)
(600831 -368210 21610 1.61606e+06 93486.1 -2289.91)
(800713 -135269 15787.6 1.34006e+06 47213.6 -49509)
(711634 -85845 28709.1 1.24948e+06 81970.2 -34545.9)
(877292 -7755.49 20410.3 966547 34221.1 -73668.8)
(800665 49702.6 21661.3 838716 78603.9 -88550.8)
(1.4388e+06 -1.40893e+06 -27071.3 2.15069e+06 66073.3 77606.6)
(1.25348e+06 -1.45245e+06 -55230.6 2.05375e+06 132465 47045.9)
(1.39659e+06 -972690 -7949.45 2.37777e+06 74031.6 79326)
(1.19634e+06 -975556 -12735.5 2.26786e+06 147837 45149.6)
(1.45511e+06 -558651 10898.8 2.26238e+06 72266.1 51752.8)
(1.26627e+06 -525816 26254.5 2.1302e+06 142047 20761.4)
(1.55564e+06 -274980 25159.7 1.92534e+06 62716.1 8637.64)
(1.39394e+06 -219255 49617.6 1.76505e+06 125793 -20696.3)
(1.64096e+06 -133965 35336.3 1.51627e+06 46324 -31268.9)
(1.50508e+06 -70354.2 55355.8 1.31944e+06 113846 -82170.5)
(2.47693e+06 -1.64161e+06 -53134.1 2.6272e+06 75369.7 243073)
(2.18528e+06 -1.68338e+06 -117510 2.45559e+06 177917 115866)
(2.4543e+06 -1.2451e+06 -24209.8 3.03011e+06 87494.5 275646)
(2.13274e+06 -1.2415e+06 -49370.2 2.8295e+06 207625 127282)
(2.51499e+06 -836978 6326.07 3.04109e+06 86647.2 257839)
(2.1994e+06 -793699 19645.3 2.80504e+06 206118 102699)
(2.6127e+06 -541047 32143.9 2.7653e+06 74811.8 206145)
(2.32861e+06 -473367 72748.8 2.49306e+06 183712 51247.9)
(2.69483e+06 -390831 51331.7 2.35509e+06 55242.1 143811)
(2.45231e+06 -316019 103369 2.04723e+06 157083 -19693.2)
(4.27586e+06 -1.87193e+06 -99483.7 3.00635e+06 66772.1 728061)
(3.80802e+06 -1.90048e+06 -241790 2.73564e+06 214816 401608)
(4.41892e+06 -1.74815e+06 -61146.9 3.71404e+06 87233.3 799190)
(3.90978e+06 -1.7427e+06 -135050 3.41097e+06 276199 394066)
(4.51492e+06 -1.53167e+06 -15424.6 4.03961e+06 88466.4 820975)
(3.98908e+06 -1.4605e+06 -14186.3 3.6728e+06 274986 402339)
(4.5586e+06 -1.34861e+06 26413.7 4.037e+06 72766.5 800161)
(4.06795e+06 -1.24213e+06 87803.5 3.61437e+06 232214 377302)
(4.54423e+06 -1.25534e+06 58950 3.8443e+06 47252 741504)
(4.12603e+06 -1.1402e+06 160064 3.38503e+06 170551 330510)
(4.50909e+06 -1.28468e+06 80396.1 3.72037e+06 20352.9 704989)
(4.13258e+06 -1.18151e+06 241770 3.26034e+06 73550.7 313678)
(4.49776e+06 -1.44924e+06 97168.6 3.6392e+06 -16498.8 697475)
(4.17048e+06 -1.36781e+06 280423 3.14354e+06 -13926.1 323728)
(4.23427e+06 -1.67249e+06 99891.9 3.55091e+06 -56410.7 648646)
(3.97414e+06 -1.63705e+06 289493 3.05479e+06 -118184 309889)
(3.64744e+06 -1.87929e+06 86708.8 3.4828e+06 -93583.3 542844)
(3.43477e+06 -1.90078e+06 254951 3.02392e+06 -219836 254610)
(2.77101e+06 -1.95086e+06 60315.1 3.43802e+06 -118193 382740)
(2.58726e+06 -2.02045e+06 178067 3.07447e+06 -292765 171199)
(3.016e+06 -447729 69428.3 2.12814e+06 34069.6 166160)
(2.78929e+06 -384721 177857 1.84998e+06 76588.8 16456.4)
(3.33792e+06 -655285 84107.8 2.04171e+06 12094.6 194744)
(3.15007e+06 -607519 198924 1.73736e+06 33096.3 63319.4)
(3.45272e+06 -973757 89175.2 1.98356e+06 -13895.5 209695)
(3.29762e+06 -955344 207926 1.66672e+06 -24276 90506.9)
(3.24613e+06 -1.33365e+06 83052.7 2.00364e+06 -40501.7 194086)
(3.11475e+06 -1.35395e+06 193526 1.70055e+06 -86023.1 92324.5)
(2.70129e+06 -1.59649e+06 66407.1 2.12298e+06 -61573.7 145097)
(2.57981e+06 -1.65277e+06 153074 1.86341e+06 -134693 68725.6)
(2.0024e+06 -170221 51450.7 1.31827e+06 28392.1 -4886.11)
(1.88234e+06 -118467 115021 1.14941e+06 53345.8 -46463.5)
(2.45868e+06 -334970 64731 1.25973e+06 16346.6 21984.7)
(2.36908e+06 -295301 129572 1.06845e+06 36731.6 -1086.69)
(2.75198e+06 -619082 70482.6 1.21832e+06 899.009 45612)
(2.68333e+06 -604444 141618 1.01025e+06 6792.28 25240.9)
(2.76315e+06 -973613 68128.3 1.25272e+06 -16770.7 53782.2)
(2.70557e+06 -991775 139519 1.04659e+06 -31518.2 35221.5)
(2.44244e+06 -1.27452e+06 57308.7 1.39438e+06 -32305.4 40754.3)
(2.38477e+06 -1.32348e+06 117733 1.21418e+06 -65951.7 27871.7)
(1.25658e+06 -35400.7 34519.6 816471 19042.5 -45087.8)
(1.19977e+06 10864.3 71129.8 708902 30529.6 -53010.6)
(1.78728e+06 -161280 45513.8 776285 13200.7 -29016.4)
(1.75711e+06 -124785 80613.3 652757 27995.3 -15284.2)
(2.19212e+06 -401334 50893.2 746446 5011.87 -9108.76)
(2.17787e+06 -386011 92418.4 606268 13822.4 5737.35)
(2.34769e+06 -724738 50822.6 783252 -5938.52 3051.5)
(2.33919e+06 -737554 96006 639236 -9541.26 15359.3)
(2.18487e+06 -1.02475e+06 44279.2 925752 -16675.3 1702.63)
(2.17149e+06 -1.06454e+06 84807 796881 -33464 12766.3)
(638768 49051.6 22019.4 472955 11324.5 -46767.4)
(616903 90466 43826.4 399907 14411.5 -49252.4)
(1.24304e+06 -50384.5 30412 444199 8960.52 -35971.9)
(1.24585e+06 -16736.8 48697.7 361337 18912.1 -14761)
(1.73678e+06 -253010 34780.4 422143 5248.55 -20507.5)
(1.75339e+06 -236821 58469.8 324522 13350.1 2019.17)
(2.00223e+06 -542113 35848.1 459653 -1199.37 -9524.56)
(2.02277e+06 -549615 64076.2 355715 -798.209 10101)
(1.95971e+06 -827001 32202 599909 -8417.53 -7807.1)
(1.97385e+06 -857812 58867.4 504584 -17414.3 9004.82)
(83812.7 104571 13856.6 232554 6066.72 -40209.5)
(80438.8 141132 27984.4 179800 4358.37 -45270.9)
(772719 25111.2 19852.1 206365 5582.87 -29725.4)
(792813 55421 28970.1 148678 12415.7 -10652)
(1.35231e+06 -146093 23004.4 187511 4421.49 -16446.2)
(1.38499e+06 -129889 36288.4 117058 11259.3 3732.33)
(1.71222e+06 -401594 24459.4 224633 753.146 -7238.71)
(1.74837e+06 -404901 42110.4 146892 2540.72 10519.8)
(1.76841e+06 -664697 22625.7 362732 -4096.13 -5343.79)