/*--------------------------------*- C++ -*----------------------------------*\
| =========                 |                                                 |
| \\      /  F ield         | OpenFOAM: The Open Source CFD Toolbox           |
|  \\    /   O peration     | Version:  v2012                                 |
|   \\  /    A nd           | Website:  www.openfoam.com                      |
|    \\/     M anipulation  |                                                 |
\*---------------------------------------------------------------------------*/
FoamFile
{
    version     2.0;
    format      ascii;
    class       volScalarField;
    location    "20";
    object      epsilonEq;
}
// * * * * * * * * * * * * * * * * * * * * * * * * * * * * * * * * * * * * * //

dimensions      [0 0 0 0 0 0 0];


internalField   nonuniform List<scalar> 
8000
(
0.0121629
0.00797178
0.00973643
0.00798097
0.00894739
0.00787157
0.00837905
0.00763567
0.00790311
0.00732493
0.00743564
0.00693346
0.00693986
0.00647722
0.00640616
0.00596567
0.00583638
0.00541292
0.0052333
0.004824
0.00460297
0.00420829
0.00395735
0.00358267
0.00331465
0.00296855
0.00269578
0.00238847
0.00212581
0.00186741
0.00162698
0.00142571
0.00121548
0.00107564
0.000898471
0.000818264
0.000669585
0.00064374
0.000566039
0.000551017
0.00714189
0.00782364
0.00762102
0.0079061
0.00786307
0.00780483
0.00773615
0.00755288
0.00744192
0.00721675
0.00704557
0.0068077
0.00657067
0.00632904
0.00603604
0.00579353
0.00544788
0.00520349
0.00482245
0.00457454
0.00417862
0.00392611
0.00353774
0.00328186
0.00292712
0.00267095
0.0023718
0.00212217
0.00188826
0.00165485
0.0014842
0.00127795
0.00116036
0.000992977
0.000912715
0.000793292
0.000728161
0.000664887
0.00061002
0.000560302
0.0088042
0.00749242
0.00786316
0.00746587
0.00761119
0.00732167
0.00731607
0.00705365
0.00697065
0.00671696
0.00655779
0.00630436
0.00607186
0.00581657
0.00551563
0.00525542
0.00490388
0.0046364
0.00426212
0.00398655
0.00362554
0.00334388
0.00302884
0.00274649
0.00249887
0.00222403
0.00204913
0.00179229
0.00168089
0.00145317
0.00138757
0.0011985
0.00115851
0.00101501
0.000981505
0.00088516
0.000840695
0.000785887
0.000710954
0.000678159
0.00759904
0.00700373
0.00709633
0.00689836
0.00691686
0.0067012
0.00660871
0.00638873
0.00622243
0.00600337
0.00576042
0.00553679
0.00522135
0.00498744
0.00462132
0.00437303
0.00399455
0.00373131
0.00338734
0.00311414
0.00284124
0.00256792
0.00238097
0.00212043
0.00201373
0.0017786
0.0017325
0.00153248
0.00152134
0.00136186
0.00136009
0.00124199
0.00123026
0.00115068
0.00111881
0.00107093
0.00100581
0.000985093
0.000886888
0.000860581
0.00717571
0.00645567
0.00646944
0.00623666
0.00614601
0.00592758
0.00571586
0.00549436
0.00520404
0.00497848
0.00462316
0.00438785
0.00399997
0.00375199
0.00338279
0.00312264
0.00282669
0.00256124
0.00237149
0.00211386
0.00202798
0.00179265
0.00178719
0.00158421
0.0016296
0.00146274
0.00152962
0.00139722
0.00146119
0.00135917
0.00140155
0.00132483
0.00134028
0.00128476
0.00126814
0.00123362
0.00118428
0.00116094
0.00107863
0.00104703
0.00643313
0.00583193
0.0056394
0.00543114
0.00514132
0.00492769
0.00451991
0.00428848
0.00383031
0.00358715
0.00313649
0.00288554
0.00251048
0.00226077
0.00201567
0.00178079
0.00167717
0.00147002
0.00147543
0.00130195
0.00137845
0.00123702
0.00135359
0.00123743
0.00136633
0.00126791
0.00138826
0.00130241
0.00140169
0.00132735
0.00139918
0.00133519
0.00138094
0.00132842
0.00134233
0.00129992
0.0012908
0.00125902
0.00122757
0.00118094
0.00563477
0.00503571
0.00460903
0.00438278
0.00384948
0.00362445
0.00302549
0.00278508
0.00224518
0.00199856
0.00161866
0.00138506
0.00120668
0.00102627
0.000990165
0.000873041
0.000897426
0.000820751
0.000893559
0.000832066
0.000953075
0.000890823
0.00103967
0.000971536
0.00112738
0.00105291
0.00120371
0.00112734
0.00126298
0.00118805
0.00130137
0.00123002
0.00131637
0.0012518
0.00131716
0.00126201
0.00130847
0.00125707
0.00128085
0.0012198
0.00451644
0.00392069
0.00324945
0.00300042
0.0023025
0.00207273
0.00147855
0.00125134
0.000954141
0.000798447
0.00079625
0.000755988
0.000728967
0.000753974
0.000640295
0.000699911
0.000575608
0.000642561
0.000573369
0.000615981
0.000627695
0.000627386
0.000714172
0.000671923
0.000816977
0.000744108
0.000919504
0.000825797
0.00100621
0.00090079
0.00107012
0.000961185
0.00112455
0.00101722
0.00116976
0.00106517
0.00120165
0.00109857
0.00120473
0.00110176
0.00298586
0.0023898
0.00163495
0.00136546
0.000827576
0.000667177
0.000730597
0.000733423
0.000860589
0.000878691
0.000794486
0.000803776
0.000702068
0.000726346
0.000629035
0.00066339
0.00056723
0.000612104
0.000510362
0.000570835
0.000465063
0.000542123
0.000463763
0.00052099
0.000505133
0.000524371
0.000571508
0.000547254
0.000638529
0.000579419
0.000718263
0.00063197
0.000799596
0.000694703
0.000869458
0.000752113
0.000923775
0.000799003
0.000961191
0.000837221
0.00109172
0.000651171
0.000426128
0.00056021
0.00087942
0.000956226
0.000880083
0.000877135
0.00077788
0.000775577
0.000695956
0.000708458
0.000627712
0.000652523
0.000570407
0.000601413
0.000522807
0.000556578
0.000484448
0.000518276
0.000454819
0.000482823
0.000431471
0.000457814
0.000412455
0.000440575
0.000397183
0.000430834
0.000403214
0.000430817
0.000439309
0.000445862
0.000486501
0.000467369
0.000534985
0.000493067
0.000588073
0.000525703
0.000636939
0.000566025
0.000721313
0.000902713
0.00104771
0.000994174
0.000899904
0.000851829
0.000792363
0.000766973
0.000708752
0.000702629
0.00063775
0.00064528
0.000574993
0.000593105
0.000519763
0.000545945
0.00047252
0.000504068
0.000433898
0.000467305
0.00040382
0.000434688
0.000381689
0.00040765
0.000367198
0.000386753
0.000360224
0.000372041
0.000357104
0.000363257
0.000356391
0.000360993
0.000358322
0.000364248
0.00036365
0.000372514
0.000384345
0.000392629
0.000412254
0.000414591
0.00109411
0.000983071
0.000941014
0.000858182
0.000815411
0.000767139
0.000723942
0.000696438
0.000649921
0.000638445
0.000584944
0.000586918
0.000526443
0.000539569
0.0004742
0.000496094
0.000428701
0.000456521
0.000390475
0.000420853
0.000359768
0.000389671
0.00033643
0.000363504
0.000320072
0.000342636
0.000309838
0.000326816
0.000304586
0.000315623
0.000303565
0.00030924
0.00030686
0.000307446
0.000314671
0.000310059
0.00032425
0.0003171
0.000334414
0.000328672
0.00089992
0.000857086
0.000815801
0.000760663
0.000729839
0.000686137
0.000657924
0.000629264
0.000594607
0.000580433
0.000536337
0.000535185
0.000482404
0.000492427
0.000433262
0.00045225
0.000389633
0.000414987
0.000352176
0.000381041
0.000321303
0.000350946
0.000297082
0.000325094
0.00027923
0.000303686
0.000267157
0.000286748
0.000260144
0.00027436
0.000257522
0.000266442
0.000258694
0.000262419
0.000262881
0.000261187
0.000269497
0.000262594
0.000278651
0.000267481
0.000784824
0.000750454
0.000720833
0.000680926
0.000654954
0.000621507
0.000597166
0.000572775
0.000543719
0.000529953
0.000492647
0.000489895
0.000443982
0.000451495
0.000398563
0.000414766
0.000357355
0.000380161
0.000321168
0.000348252
0.000290521
0.000319525
0.000265591
0.000294283
0.000246233
0.00027268
0.000232048
0.000254812
0.000222519
0.00024078
0.000217136
0.000230633
0.000215459
0.000224325
0.000217197
0.000221768
0.000222465
0.000223026
0.000231822
0.000228059
0.000693406
0.000667304
0.000646724
0.00061403
0.000594696
0.000567202
0.000546465
0.000526429
0.000500343
0.000488876
0.000455331
0.000452851
0.000411653
0.000417851
0.000370158
0.000384052
0.000331837
0.000351946
0.000297559
0.000322112
0.000267921
0.000295016
0.000243182
0.00027091
0.000223256
0.000249827
0.000207788
0.000231686
0.000196301
0.00021643
0.000188383
0.00020417
0.000183861
0.000195329
0.000182964
0.000190733
0.00018642
0.000191324
0.000194666
0.000196754
0.000622071
0.000601655
0.000586449
0.00055993
0.000544862
0.000522296
0.0005044
0.000488192
0.000464436
0.000455674
0.000424674
0.000423624
0.000385516
0.000391842
0.000347774
0.000360661
0.000312376
0.000330662
0.000280185
0.000302495
0.000251877
0.000276739
0.000227854
0.000253761
0.000208178
0.000233621
0.000192556
0.000216052
0.000180426
0.00020059
0.000171179
0.000186835
0.000164472
0.000174817
0.000160577
0.000165343
0.000160559
0.000160146
0.00016546
0.00016088
0.00056722
0.000549729
0.000538046
0.000516172
0.000503756
0.000485497
0.000469491
0.000456968
0.000434928
0.000429145
0.000399991
0.000401173
0.0003651
0.000372919
0.000330982
0.000344701
0.000298443
0.000317043
0.000268246
0.000290552
0.000241053
0.000265852
0.000217387
0.00024352
0.00019757
0.000223956
0.000181614
0.000207168
0.000169101
0.000192598
0.000159181
0.000179164
0.00015081
0.000165678
0.000143405
0.000151653
0.000137985
0.000138686
0.000138429
0.000131879
0.000524676
0.000508095
0.000499051
0.000480265
0.000469882
0.000454979
0.000440584
0.000431277
0.000410789
0.000407881
0.000380381
0.000384026
0.0003497
0.000359597
0.000319361
0.000334886
0.000290024
0.000310352
0.000262265
0.000286462
0.000236535
0.000263644
0.000213185
0.000242317
0.000192521
0.000222974
0.000174831
0.000206199
0.000160299
0.000192471
0.000148754
0.000181688
0.000139311
0.000172697
0.000130349
0.000163583
0.000120866
0.000153429
0.000114738
0.00014432
0.000491039
0.000473614
0.000467185
0.000449816
0.000441615
0.00042872
0.000416311
0.000409139
0.000390679
0.000389754
0.000364455
0.000369775
0.000337866
0.000349054
0.000311441
0.000327859
0.000285775
0.000306634
0.000261381
0.000285846
0.000238599
0.000265872
0.000217546
0.000246904
0.000198113
0.000228928
0.000180057
0.000211847
0.000163234
0.000195858
0.000147979
0.000182021
0.000135402
0.000172863
0.000126836
0.000173071
0.000120851
0.000190486
0.000108561
0.000224983
0.000463237
0.000443653
0.000440235
0.000422758
0.000417116
0.000404848
0.000394854
0.000388544
0.000372616
0.000372434
0.000349976
0.000355679
0.000327043
0.00033809
0.000304245
0.00031987
0.000282101
0.000301382
0.000261098
0.000283011
0.000241649
0.000265104
0.000224075
0.000247934
0.00020856
0.000231616
0.000195058
0.00021594
0.000183125
0.000200095
0.00017174
0.00018232
0.000159003
0.000159513
0.000141239
0.000127847
0.000111927
9.74593e-05
7.74111e-05
0.000179803
0.000438688
0.000416532
0.000416207
0.000397758
0.000394629
0.000382151
0.00037441
0.000368228
0.000354582
0.000354525
0.000334612
0.000340174
0.000314518
0.000324948
0.000294647
0.000309016
0.000275444
0.000292703
0.000257314
0.00027635
0.000240551
0.000260216
0.000225317
0.000244425
0.000211622
0.00022893
0.000199299
0.000213483
0.000187921
0.000197466
0.000176624
0.000179324
0.000163958
0.00015613
0.000149586
0.000132632
0.000145197
0.00015953
0.000172805
6.63611e-05
0.000415779
0.000391647
0.000393738
0.000374352
0.00037304
0.000360279
0.000354009
0.000347974
0.000335701
0.000335992
0.000317531
0.000323454
0.000299432
0.000310096
0.000281666
0.000296031
0.000264604
0.000281536
0.000248595
0.000266908
0.000233873
0.000252359
0.000220488
0.000237917
0.00020823
0.000223324
0.000196585
0.000208004
0.000184864
0.000191269
0.000172817
0.000173266
0.000162691
0.000158292
0.000163698
0.000160132
0.00018247
0.000183008
0.000185863
0.000104141
0.000394104
0.000369032
0.00037236
0.00035261
0.000352125
0.000339438
0.000333755
0.000328212
0.000316436
0.000317537
0.000299561
0.000306505
0.000282983
0.000294793
0.00026687
0.000282443
0.000251502
0.000269653
0.00023714
0.000256633
0.000223958
0.00024352
0.000212014
0.000230333
0.000201255
0.000217016
0.000191624
0.000203586
0.000183367
0.00019055
0.00017775
0.000179999
0.000178136
0.000177604
0.000188152
0.000188683
0.000197349
0.00019707
0.000184443
0.000118492
0.000374054
0.000348738
0.000352262
0.000332636
0.000332211
0.000319873
0.000314279
0.000309374
0.000297774
0.000299775
0.00028205
0.000290103
0.000266875
0.00027994
0.00025234
0.000269244
0.000238672
0.000258151
0.000226117
0.000246852
0.000214882
0.000235535
0.000205112
0.000224374
0.000196915
0.000213579
0.000190469
0.000203566
0.000186264
0.000195382
0.000185503
0.000191426
0.000190157
0.000195291
0.00020029
0.000205817
0.000205475
0.000206822
0.000189309
0.000123129
0.000356033
0.000330512
0.000333726
0.000314291
0.00031361
0.000301581
0.000296016
0.000291569
0.000280321
0.000282889
0.000265797
0.000274473
0.000252119
0.000265808
0.000239306
0.000256778
0.00022754
0.000247479
0.000217041
0.000238098
0.000208015
0.000228867
0.000200628
0.000220042
0.000195015
0.000211957
0.000191353
0.000205165
0.00019001
0.000200713
0.000191761
0.000200398
0.000197778
0.000206038
0.000207711
0.000215312
0.000211935
0.000214419
0.000195004
0.000129181
0.000339978
0.000313867
0.00031675
0.000297225
0.00029632
0.000284335
0.000278966
0.000274647
0.000264068
0.00026676
0.000250773
0.000259503
0.000238643
0.00025227
0.000227609
0.000244872
0.000217777
0.000237352
0.000209309
0.000229869
0.000202359
0.000222648
0.000197051
0.000215965
0.000193486
0.000210179
0.000191791
0.000205832
0.000192238
0.000203804
0.00019544
0.000205429
0.000202428
0.00021201
0.000212859
0.00022136
0.000217156
0.000220416
0.000199576
0.000134779
0.000325404
0.00029829
0.000301032
0.000281055
0.000280096
0.000267853
0.000262863
0.000258375
0.00024868
0.000251166
0.000236546
0.00024495
0.000225893
0.000239028
0.00021654
0.000233133
0.000208499
0.000227241
0.000201851
0.000221465
0.000196686
0.000216001
0.000193085
0.000211114
0.000191118
0.000207156
0.000190897
0.000204627
0.000192667
0.000204286
0.000197016
0.000207302
0.000204957
0.00021491
0.000216101
0.000225016
0.000220744
0.000224616
0.000202827
0.000139364
0.000311709
0.000283377
0.000286176
0.000265485
0.000264639
0.000251905
0.000247425
0.000242553
0.00023384
0.000235908
0.000222738
0.000230592
0.000213417
0.000225818
0.00020558
0.000221238
0.000199136
0.000216761
0.000194078
0.000212447
0.000190436
0.00020846
0.000188254
0.000205049
0.00018759
0.000202554
0.00018856
0.000201452
0.000191421
0.000202457
0.000196765
0.000206698
0.000205583
0.000215393
0.000217398
0.000226416
0.000222427
0.000226756
0.00020456
0.000142928
0.000298406
0.000268866
0.000271845
0.000250334
0.000249715
0.000236359
0.000232462
0.000227062
0.000219369
0.000220863
0.000209165
0.000216297
0.000201025
0.000212491
0.000194532
0.000209022
0.000189488
0.000205733
0.000185801
0.000202635
0.000183446
0.000199864
0.000182439
0.000197656
0.00018284
0.000196351
0.000184781
0.000196419
0.000188542
0.000198571
0.000194721
0.000203921
0.000204268
0.000213638
0.000216612
0.000225524
0.000221997
0.000226676
0.00020454
0.000145282
0.000285216
0.00025463
0.00025784
0.000235528
0.000235189
0.000221167
0.000217877
0.000211862
0.000205196
0.000205993
0.000195779
0.000202023
0.000188681
0.000199006
0.000183366
0.000196443
0.000179525
0.000194116
0.000176988
0.000191996
0.00017568
0.000190195
0.000175605
0.000188946
0.000176834
0.000188595
0.000179525
0.000189625
0.000183985
0.000192749
0.00019081
0.000199058
0.000200901
0.000209651
0.000213595
0.000222263
0.000219272
0.000224248
0.000202567
0.000146168
0.000272051
0.000240661
0.000244092
0.00022108
0.000221015
0.000206347
0.000203639
0.000196968
0.00019131
0.000191316
0.000182587
0.000187798
0.000176409
0.000185394
0.000172108
0.000183536
0.000169264
0.000181949
0.000167635
0.000180567
0.000167117
0.000179491
0.000167713
0.000178959
0.000169519
0.000179334
0.000172724
0.000181116
0.000177662
0.000185023
0.000184925
0.00019211
0.000195349
0.000203386
0.000208198
0.000216547
0.000214094
0.00021936
0.000198477
0.000145369
0.000258977
0.000227054
0.000230641
0.00020707
0.000207209
0.000191957
0.000189753
0.000182431
0.00017772
0.000176885
0.000169617
0.000173682
0.000164245
0.000171729
0.000160788
0.000170382
0.000158718
0.000169311
0.000157737
0.000168424
0.000157732
0.000167821
0.000158723
0.000167759
0.000160838
0.000168621
0.000164307
0.000170932
0.000169487
0.000175408
0.000176959
0.000183059
0.000187496
0.000194794
0.000200298
0.000208304
0.000206328
0.000211919
0.000192141
0.000142754
0.000246174
0.000213996
0.0002176
0.000193632
0.000193821
0.000178085
0.000176236
0.000168313
0.000164452
0.000162763
0.000156909
0.000159751
0.00015223
0.000158096
0.000149434
0.000157073
0.000147896
0.000156302
0.00014729
0.000155674
0.000147512
0.000155298
0.000148618
0.000155452
0.000150776
0.000156555
0.000154253
0.000159151
0.000159429
0.000163953
0.000166872
0.000171916
0.000177281
0.000183845
0.000189807
0.00019746
0.000195842
0.000201826
0.000183439
0.000138291
0.000233916
0.000201753
0.000205124
0.000180943
0.000180909
0.000164836
0.000163116
0.000154684
0.000151549
0.000149003
0.000144516
0.00014605
0.000140402
0.000144542
0.000138059
0.000143671
0.000136803
0.000143012
0.000136309
0.000142443
0.000136504
0.000142081
0.000137479
0.000142229
0.000139439
0.000143332
0.000142684
0.000145956
0.000147612
0.000150803
0.000154766
0.000158766
0.000164762
0.000170543
0.000176697
0.000183926
0.000182485
0.00018893
0.000172193
0.000132002
0.000222546
0.000190658
0.000193371
0.000169233
0.000168518
0.000152345
0.000150439
0.000141619
0.000139091
0.000135643
0.0001325
0.000132578
0.000128765
0.000131035
0.000126635
0.000130145
0.000125431
0.000129451
0.000124861
0.000128817
0.000124872
0.000128351
0.000125571
0.000128357
0.000127179
0.000129288
0.000130009
0.000131714
0.000134456
0.00013631
0.000141025
0.000143891
0.000150219
0.000155033
0.000161052
0.00016764
0.000166065
0.000173003
0.000158048
0.000123844
0.000212467
0.000181121
0.000182437
0.000158766
0.000156671
0.000140809
0.000138334
0.000129328
0.00012725
0.00012286
0.00012093
0.000119394
0.000117269
0.000117484
0.000115078
0.000116293
0.000113773
0.000115398
0.000113088
0.000114653
0.000112953
0.000114124
0.000113431
0.00011406
0.000114701
0.00011486
0.000117048
0.000117042
0.000120831
0.000121201
0.000126469
0.000128012
0.000134298
0.000137874
0.000143172
0.000148836
0.000146384
0.000153936
0.000140388
0.000113669
0.000204125
0.000173742
0.000172294
0.000149852
0.000145493
0.000130832
0.00012724
0.000118696
0.000116425
0.000111472
0.000109944
0.00010694
0.000105863
0.000103867
0.000103307
0.000101711
0.000101843
0.000100226
0.000101204
9.92967e-05
0.000101214
9.89072e-05
0.000101795
9.91655e-05
0.000102993
0.000100315
0.000104982
0.000102691
0.000108012
0.000106654
0.000112342
0.000112548
0.000118035
0.000120407
0.000123668
0.000128432
0.000123428
0.000132108
0.000118562
0.000101594
0.000198019
0.000168941
0.000162778
0.000143495
0.000135675
0.000124282
0.000118136
0.000111829
0.000107207
0.00010315
9.98005e-05
9.63635e-05
9.46885e-05
9.08765e-05
9.14504e-05
8.66386e-05
8.98035e-05
8.3718e-05
8.9433e-05
8.21435e-05
8.99975e-05
8.18874e-05
9.11942e-05
8.29228e-05
9.28315e-05
8.52652e-05
9.48471e-05
8.89172e-05
9.72432e-05
9.37494e-05
9.9969e-05
9.94072e-05
0.000102652
0.000105089
0.000103449
0.000108824
9.76224e-05
0.000109161
9.27365e-05
8.85051e-05
0.000194354
0.00016383
0.000153513
0.000142331
0.000128415
0.000124287
0.000111668
0.000110744
9.97458e-05
9.95628e-05
9.08922e-05
8.98362e-05
8.45469e-05
8.15228e-05
8.04546e-05
7.48195e-05
7.84142e-05
6.99558e-05
7.81844e-05
6.71309e-05
7.94137e-05
6.64575e-05
8.16403e-05
6.79259e-05
8.43583e-05
7.13757e-05
8.70773e-05
7.64177e-05
8.93155e-05
8.23232e-05
9.04962e-05
8.7983e-05
8.96117e-05
9.18605e-05
8.42227e-05
9.20106e-05
7.09016e-05
8.98832e-05
6.71792e-05
7.94662e-05
0.000188051
0.000160351
0.000148635
0.000140796
0.000123304
0.000120651
0.000106156
0.000104299
9.39957e-05
9.18151e-05
8.4817e-05
8.23192e-05
7.78194e-05
7.49791e-05
7.28025e-05
6.93092e-05
6.98418e-05
6.51944e-05
6.9071e-05
6.27729e-05
7.04798e-05
6.22873e-05
7.37632e-05
6.39483e-05
7.82503e-05
6.77825e-05
8.28958e-05
7.34187e-05
8.63207e-05
7.98215e-05
8.68906e-05
8.49877e-05
8.26885e-05
8.5585e-05
7.11522e-05
7.76393e-05
5.15723e-05
6.61925e-05
5.64494e-05
7.6703e-05
0.000138307
0.000150561
0.000131057
0.000161296
0.000135314
0.000167771
0.000141452
0.000173799
0.000144117
0.000179527
0.000144635
0.00018492
0.000144718
0.000189892
0.000144982
0.000194462
0.000145363
0.000198675
0.000145661
0.000202588
0.00014579
0.000206285
0.000145792
0.000209862
0.000145771
0.000213377
0.000145795
0.000216803
0.000145815
0.000219924
0.000145562
0.000222316
0.000144416
0.000224532
0.000142047
0.000227559
0.000141893
0.000210645
0.000153024
0.000146802
0.000185622
0.000180562
0.00018086
0.000180657
0.000180123
0.000181259
0.000183627
0.000182806
0.000188197
0.000184942
0.000191838
0.000187484
0.000194386
0.00019022
0.000196248
0.000192914
0.000197824
0.000195408
0.000199409
0.000197668
0.00020121
0.000199768
0.000203367
0.000201829
0.000205961
0.000203961
0.000209002
0.000206212
0.000212456
0.000208526
0.000216269
0.000210396
0.000220246
0.000210293
0.00022345
0.000207657
0.00022391
0.000203442
0.000224755
0.000171711
0.000173516
0.000169849
0.000168545
0.000163227
0.000163749
0.000158215
0.000159924
0.000155218
0.000158783
0.000153732
0.000159259
0.000153233
0.000160071
0.000153304
0.0001606
0.000153638
0.000160778
0.000154038
0.000160807
0.00015442
0.000160965
0.0001548
0.000161492
0.000155263
0.000162533
0.000155943
0.000164097
0.00015707
0.00016603
0.000159028
0.00016799
0.000162002
0.000169467
0.000163971
0.00016982
0.000159558
0.000168804
0.000154456
0.000172127
0.000152515
0.000148356
0.000148582
0.000141044
0.000139765
0.000135633
0.000131896
0.000129565
0.000126251
0.000125124
0.000122797
0.000122825
0.000120967
0.000121977
0.000120131
0.000121708
0.000119809
0.000121523
0.000119724
0.000121328
0.00011977
0.000121262
0.000119967
0.000121541
0.000120457
0.000122394
0.000121552
0.00012412
0.000123684
0.00012718
0.000126853
0.000132047
0.000129311
0.000137941
0.00012787
0.00014112
0.00012352
0.000139854
0.000123106
0.000141055
0.00013154
0.000129737
0.000130892
0.000119784
0.000121298
0.000113931
0.000112584
0.000108345
0.000106078
0.000103849
0.000101907
0.000101047
9.96161e-05
9.98698e-05
9.85918e-05
9.97651e-05
9.82907e-05
0.000100159
9.83543e-05
0.000100747
9.86353e-05
0.000101523
9.9177e-05
0.000102695
0.000100169
0.000104638
0.000101799
0.000107843
0.000103855
0.000112572
0.000105276
0.000117843
0.000104865
0.000120721
0.000103555
0.000119639
0.000103923
0.00011932
0.000107839
0.000124793
0.000117817
0.000119745
0.000119927
0.000108578
0.000109611
0.000101899
0.000100532
9.69086e-05
9.37987e-05
9.32935e-05
8.93217e-05
9.09769e-05
8.6636e-05
8.99165e-05
8.52188e-05
8.98661e-05
8.46105e-05
9.04494e-05
8.4486e-05
9.13811e-05
8.46909e-05
9.26064e-05
8.52139e-05
9.43002e-05
8.60564e-05
9.67261e-05
8.70166e-05
9.98904e-05
8.76177e-05
0.000103029
8.76053e-05
0.000104595
8.77623e-05
0.000104004
8.94289e-05
0.000103816
9.30502e-05
0.000107325
9.87304e-05
0.000114687
0.000108352
0.000115911
0.000114634
0.000104859
0.000103769
9.72155e-05
9.43723e-05
9.20947e-05
8.74136e-05
8.88207e-05
8.25837e-05
8.67645e-05
7.93544e-05
8.56128e-05
7.7271e-05
8.51931e-05
7.59848e-05
8.53431e-05
7.52546e-05
8.59298e-05
7.49334e-05
8.69097e-05
7.49145e-05
8.82935e-05
7.50481e-05
8.99616e-05
7.51497e-05
9.14469e-05
7.52454e-05
9.20638e-05
7.58691e-05
9.17429e-05
7.78058e-05
9.18759e-05
8.13525e-05
9.43698e-05
8.62663e-05
9.97898e-05
9.24662e-05
0.000107755
0.000101467
0.000115792
0.000113186
0.000105618
0.00010225
9.71974e-05
9.27495e-05
9.14868e-05
8.56155e-05
8.78618e-05
8.04289e-05
8.55164e-05
7.66348e-05
8.39504e-05
7.38333e-05
8.29332e-05
7.17622e-05
8.23749e-05
7.02517e-05
8.2234e-05
6.91843e-05
8.24512e-05
6.84619e-05
8.28709e-05
6.80194e-05
8.31946e-05
6.7926e-05
8.3122e-05
6.84845e-05
8.276e-05
7.0111e-05
8.29494e-05
7.30237e-05
8.4845e-05
7.71577e-05
8.89695e-05
8.23901e-05
9.50627e-05
8.87999e-05
0.000102786
9.73295e-05
0.000117575
0.000113946
0.000108687
0.000103493
9.99132e-05
9.42667e-05
9.36428e-05
8.71964e-05
8.94102e-05
8.18442e-05
8.64561e-05
7.76683e-05
8.4265e-05
7.43216e-05
8.25704e-05
7.16121e-05
8.12601e-05
6.94378e-05
8.0278e-05
6.77498e-05
7.95359e-05
6.65425e-05
7.88773e-05
6.58799e-05
7.8162e-05
6.59272e-05
7.74811e-05
6.69135e-05
7.7331e-05
6.89991e-05
7.84696e-05
7.21574e-05
8.14549e-05
7.62033e-05
8.63244e-05
8.10575e-05
9.27127e-05
8.7099e-05
0.000100207
9.51249e-05
0.000119951
0.000115645
0.000112567
0.000106121
0.000103944
9.75406e-05
9.74329e-05
9.0829e-05
9.27316e-05
8.5584e-05
8.91932e-05
8.13066e-05
8.63727e-05
7.77035e-05
8.40254e-05
7.46443e-05
8.20195e-05
7.20921e-05
8.02696e-05
7.00659e-05
7.87015e-05
6.86287e-05
7.72749e-05
6.78858e-05
7.60744e-05
6.79735e-05
7.53987e-05
6.90163e-05
7.57215e-05
7.10634e-05
7.74815e-05
7.40473e-05
8.08438e-05
7.77948e-05
8.56355e-05
8.20925e-05
9.15044e-05
8.68948e-05
9.81291e-05
9.30486e-05
0.000122063
0.000117413
0.000116257
0.00010909
0.000108222
0.000101423
0.000101851
9.53087e-05
9.69847e-05
9.04103e-05
9.30934e-05
8.62896e-05
8.98136e-05
8.27062e-05
8.69488e-05
7.95785e-05
8.43869e-05
7.69134e-05
8.20599e-05
7.47667e-05
7.9949e-05
7.3223e-05
7.81232e-05
7.23834e-05
7.67802e-05
7.23509e-05
7.62403e-05
7.3204e-05
7.68544e-05
7.49536e-05
7.88548e-05
7.74955e-05
8.22347e-05
8.06161e-05
8.67401e-05
8.41457e-05
9.19993e-05
8.82334e-05
9.77694e-05
9.36304e-05
0.000123452
0.000118726
0.00011918
0.000111727
0.000112029
0.000105122
0.000106112
9.97579e-05
0.000101379
9.53719e-05
9.74095e-05
9.15928e-05
9.39115e-05
8.82265e-05
9.07383e-05
8.52237e-05
8.78217e-05
8.26126e-05
8.51432e-05
8.04608e-05
8.27456e-05
7.88558e-05
8.07563e-05
7.78931e-05
7.93925e-05
7.76601e-05
7.89242e-05
7.82086e-05
7.95916e-05
7.95171e-05
8.15028e-05
8.14731e-05
8.45675e-05
8.3919e-05
8.85298e-05
8.67641e-05
9.31071e-05
9.01274e-05
9.8126e-05
9.4415e-05
0.000123938
0.000119327
0.000121075
0.000113663
0.000114964
0.000108176
0.000109705
0.000103637
0.00010533
9.98567e-05
0.000101514
9.65283e-05
9.80236e-05
9.34945e-05
9.47595e-05
9.07251e-05
9.16981e-05
8.82576e-05
8.88699e-05
8.61629e-05
8.63617e-05
8.45288e-05
8.4322e-05
8.34477e-05
8.295e-05
8.29973e-05
8.24567e-05
8.32114e-05
8.30006e-05
8.4056e-05
8.4622e-05
8.54352e-05
8.72141e-05
8.72335e-05
9.05625e-05
8.93661e-05
9.44217e-05
9.18383e-05
9.85782e-05
9.50322e-05
0.000123505
0.000119128
0.000121886
0.000114739
0.00011686
0.000110358
0.000112366
0.000106661
0.00010849
0.000103523
0.000104987
0.000100695
0.000101679
9.80493e-05
9.85036e-05
9.55684e-05
9.54731e-05
9.32952e-05
9.26516e-05
9.13024e-05
9.01492e-05
8.96772e-05
8.8117e-05
8.85079e-05
8.67307e-05
8.78644e-05
8.61556e-05
8.77755e-05
8.64975e-05
8.82114e-05
8.77598e-05
8.90812e-05
8.98352e-05
9.02571e-05
9.25373e-05
9.16552e-05
9.5649e-05
9.33728e-05
9.89886e-05
9.58366e-05
0.000122214
0.000118137
0.000121665
0.000114921
0.000117697
0.000111591
0.000114002
0.000108713
0.000110697
0.000106215
0.000107606
0.000103899
0.000104597
0.000101661
0.000101639
9.94957e-05
9.87663e-05
9.74495e-05
9.60639e-05
9.55966e-05
9.36499e-05
9.40224e-05
9.16694e-05
9.28103e-05
9.02772e-05
9.20239e-05
8.96081e-05
9.16887e-05
8.97385e-05
9.1779e-05
9.06537e-05
9.22185e-05
9.22384e-05
9.28932e-05
9.43002e-05
9.36868e-05
9.66257e-05
9.46037e-05
9.90518e-05
9.61348e-05
0.000120163
0.000116412
0.000120516
0.00011425
0.000117539
0.000111888
0.00011463
0.000109783
0.000111921
0.0001079
0.000109293
0.000106083
0.000106653
0.000104255
0.000103991
0.000102416
0.00010136
0.000100619
9.88527e-05
9.89364e-05
9.65871e-05
9.74518e-05
9.46996e-05
9.62427e-05
9.33268e-05
9.53672e-05
9.25802e-05
9.48475e-05
9.25163e-05
9.46572e-05
9.31123e-05
9.47194e-05
9.42623e-05
9.49231e-05
9.57985e-05
9.51796e-05
9.75372e-05
9.55294e-05
9.9353e-05
9.63953e-05
0.000117456
0.000114035
0.000118564
0.000112803
0.000116493
0.000111319
0.000114331
0.000109927
0.000112213
0.000108619
0.000110065
0.00010728
0.000107826
0.000105849
0.000105505
0.000104338
0.000103164
0.000102801
0.000100896
0.000101311
9.88191e-05
9.99445e-05
9.7057e-05
9.87738e-05
9.57308e-05
9.785e-05
9.4934e-05
9.71901e-05
9.47075e-05
9.67659e-05
9.50214e-05
9.65078e-05
9.57765e-05
9.63332e-05
9.68299e-05
9.62003e-05
9.80391e-05
9.61876e-05
9.93207e-05
9.6689e-05
0.000114202
0.0001111
0.000115937
0.00011068
0.000114685
0.000109981
0.000113219
0.000109237
0.000111668
0.000108462
0.000109995
0.000107569
0.000108165
0.000106518
0.0001062
0.000105327
0.000104168
0.000104051
0.000102163
0.000102763
0.000100295
0.000101532
9.86773e-05
0.000100423
9.74151e-05
9.94796e-05
9.65871e-05
9.87151e-05
9.62243e-05
9.81104e-05
9.62987e-05
9.76178e-05
9.67285e-05
9.71777e-05
9.74036e-05
9.67458e-05
9.82196e-05
9.63556e-05
9.91118e-05
9.63245e-05
0.000110509
0.000107708
0.000112766
0.000107991
0.000112248
0.000107987
0.000111421
0.000107828
0.000110404
0.000107538
0.000109185
0.000107059
0.000107752
0.000106363
0.000106138
0.000105476
0.000104416
0.000104455
0.000102678
0.000103368
0.000101025
0.000102281
9.95599e-05
0.00010125
9.83731e-05
0.000100311
9.75319e-05
9.94801e-05
9.70651e-05
9.8749e-05
9.6954e-05
9.80894e-05
9.71355e-05
9.74591e-05
9.75136e-05
9.68249e-05
9.79828e-05
9.62177e-05
9.84775e-05
9.59502e-05
0.00010648
0.000103957
0.000109173
0.000104846
0.000109311
0.000105457
0.000109068
0.000105821
0.000108543
0.000105969
0.000107748
0.000105866
0.00010669
0.000105499
0.00010541
0.000104896
0.000103984
0.000104116
0.000102504
0.000103224
0.000101062
0.000102281
9.97512e-05
0.000101338
9.86489e-05
0.000100429
9.78141e-05
9.95689e-05
9.72748e-05
9.87559e-05
9.70221e-05
9.79724e-05
9.701e-05
9.71927e-05
9.71631e-05
9.64013e-05
9.73952e-05
9.56358e-05
9.76442e-05
9.51121e-05
0.000102213
9.99445e-05
0.000105275
0.000101358
0.000106001
0.000102508
0.000106285
0.000103336
0.000106209
0.000103876
0.000105802
0.000104111
0.000105086
0.000104042
0.000104115
0.000103701
0.000102965
0.000103145
0.000101726
0.000102437
0.000100485
0.000101635
9.93251e-05
0.000100787
9.83141e-05
9.99253e-05
9.75033e-05
9.90662e-05
9.69182e-05
9.82069e-05
9.65549e-05
9.73347e-05
9.63788e-05
9.6434e-05
9.63295e-05
9.54918e-05
9.63356e-05
9.45164e-05
9.63426e-05
9.36881e-05
9.78043e-05
9.57662e-05
0.00010118
9.7631e-05
0.000102433
9.92545e-05
0.000103193
0.00010049
0.00010352
0.000101375
0.00010346
0.00010191
0.000103052
0.000102105
0.000102357
0.000102001
0.000101458
0.000101652
0.00010044
0.000101118
9.93859e-05
0.000100452
9.83683e-05
9.96985e-05
9.74491e-05
9.88922e-05
9.66733e-05
9.80521e-05
9.60624e-05
9.71764e-05
9.56126e-05
9.62477e-05