/*--------------------------------*- C++ -*----------------------------------*\
| =========                 |                                                 |
| \\      /  F ield         | OpenFOAM: The Open Source CFD Toolbox           |
|  \\    /   O peration     | Version:  v2012                                 |
|   \\  /    A nd           | Website:  www.openfoam.com                      |
|    \\/     M anipulation  |                                                 |
\*---------------------------------------------------------------------------*/
FoamFile
{
    version     2.0;
    format      ascii;
    class       volSymmTensorField;
    location    "1";
    object      epsilon;
}
// * * * * * * * * * * * * * * * * * * * * * * * * * * * * * * * * * * * * * //

dimensions      [0 0 0 0 0 0 0];


internalField   nonuniform List<symmTensor> 
8000
(
(0.000757385 -7.51202e-06 1.12476e-15 -0.000321776 4.65963e-15 0)
(0.000699804 -4.54173e-05 4.91781e-16 -0.000303634 5.01687e-15 0)
(0.000701527 -1.34e-06 -6.34604e-16 -0.000281477 5.45402e-15 0)
(0.000650016 -3.78327e-05 -1.96274e-16 -0.000269949 4.5009e-15 0)
(0.000651595 2.56786e-06 4.3567e-16 -0.000248161 4.30146e-15 0)
(0.000606167 -3.14559e-05 8.63513e-16 -0.000240958 3.57624e-15 0)
(0.000607592 5.02179e-06 3.89798e-16 -0.000220677 3.36325e-15 0)
(0.000567615 -2.62482e-05 2.09029e-15 -0.000216131 2.83064e-15 0)
(0.000568898 6.59161e-06 1.58998e-15 -0.000197903 1.17002e-15 0)
(0.000533667 -2.19666e-05 3.4812e-15 -0.000194986 6.64074e-16 0)
(0.000534823 7.62216e-06 1.71779e-15 -0.000178949 -1.0089e-15 0)
(0.000503686 -1.84021e-05 3.07827e-15 -0.000177044 -2.30285e-16 0)
(0.00050473 8.31674e-06 1.20588e-15 -0.000163124 -1.54163e-15 0)
(0.000477119 -1.53997e-05 1.6043e-15 -0.000161862 -7.06466e-16 0)
(0.000478065 8.79606e-06 3.20121e-16 -0.000149887 -8.39172e-16 0)
(0.00045349 -1.28468e-05 6.9643e-17 -0.000149043 -4.63605e-16 0)
(0.00045435 9.13338e-06 -2.48665e-16 -0.000138808 -1.94777e-16 0)
(0.000432394 -1.066e-05 -7.28936e-16 -0.000138242 -2.94795e-16 0)
(0.000433178 9.37445e-06 -4.34955e-16 -0.00012954 5.28657e-16 0)
(0.000413484 -8.77657e-06 -5.87444e-16 -0.000129161 3.07588e-16 0)
(0.000414201 9.54883e-06 -1.19171e-16 -0.000121799 7.81493e-16 0)
(0.000396463 -7.14763e-06 -1.02369e-16 -0.000121547 3.01517e-16 0)
(0.000397122 9.67645e-06 2.19991e-17 -0.00011535 7.18934e-16 0)
(0.000381077 -5.73452e-06 -3.55449e-17 -0.000115181 3.17346e-16 0)
(0.000381684 9.77135e-06 -5.43761e-17 -0.000109998 8.50719e-16 0)
(0.000367105 -4.50583e-06 6.62346e-17 -0.000109878 3.22171e-16 0)
(0.000367667 9.84403e-06 1.14251e-16 -0.000105576 1.02191e-15 0)
(0.000354357 -3.43555e-06 4.19068e-16 -0.000105479 3.85434e-16 0)
(0.00035488 9.90295e-06 2.72628e-16 -0.000101946 9.43852e-16 0)
(0.000342666 -2.50166e-06 2.31531e-16 -0.000101846 1.78731e-16 0)
(0.000343155 9.95554e-06 -5.53214e-17 -9.89899e-05 4.74447e-16 0)
(0.000331885 -1.68523e-06 -6.45033e-17 -9.88599e-05 -9.9855e-17 0)
(0.000332343 1.0009e-05 -4.6248e-18 -9.66069e-05 -2.85687e-17 0)
(0.000321881 -9.70066e-07 7.88283e-17 -9.64145e-05 -1.83447e-16 0)
(0.000322314 1.00714e-05 7.62262e-17 -9.47109e-05 -2.48499e-16 0)
(0.000312533 -3.43546e-07 1.97454e-16 -9.44146e-05 -1.59595e-16 0)
(0.000312944 1.01522e-05 1.04305e-16 -9.32267e-05 -5.10009e-16 0)
(0.000303715 1.99134e-07 2.66397e-16 -9.27694e-05 -2.42211e-16 0)
(0.00030411 1.02638e-05 1.38536e-16 -9.20843e-05 -4.89138e-16 0)
(0.00029528 6.40312e-07 1.64016e-16 -9.13845e-05 -1.00614e-16 0)
(0.000750332 -3.8384e-05 1.15369e-16 -0.000304264 5.1737e-15 0)
(0.000688235 -7.84156e-05 -1.53114e-15 -0.000294613 5.50986e-15 0)
(0.000693812 -3.04244e-05 -6.65504e-16 -0.000270599 4.41232e-15 0)
(0.00064017 -6.57898e-05 6.06069e-17 -0.000261789 3.61695e-15 0)
(0.000645176 -2.27564e-05 9.45987e-16 -0.000241702 3.033e-15 0)
(0.000598127 -5.46798e-05 6.67875e-16 -0.000234192 1.68572e-15 0)
(0.00060263 -1.59915e-05 2.24664e-15 -0.000216991 1.79143e-15 0)
(0.000561137 -4.50237e-05 2.15571e-15 -0.000210827 1.3468e-15 0)
(0.000565193 -1.01983e-05 3.83064e-15 -0.000195959 1.89063e-15 0)
(0.000528474 -3.66867e-05 3.98813e-15 -0.000191 8.07243e-16 0)
(0.000532132 -5.28925e-06 4.8761e-15 -0.000178118 2.91379e-16 0)
(0.000499537 -2.95044e-05 4.08933e-15 -0.000174171 -3.09811e-16 0)
(0.000502844 -1.14071e-06 2.5752e-15 -0.000163022 -5.43185e-17 0)
(0.000473819 -2.3316e-05 2.13255e-15 -0.000159899 3.21032e-16 0)
(0.000476815 2.36748e-06 8.44241e-16 -0.000150275 -2.21719e-17 0)
(0.000450885 -1.79771e-05 1.52452e-16 -0.000147812 -5.37764e-17 0)
(0.000453606 5.34044e-06 -1.09721e-15 -0.000139532 -5.98046e-16 0)
(0.000430359 -1.33634e-05 -1.46527e-15 -0.000137593 -2.87259e-16 0)
(0.000432839 7.86639e-06 -1.18764e-15 -0.000130499 -1.65124e-16 0)
(0.000411922 -9.3695e-06 -9.30645e-16 -0.000128972 -1.82309e-16 0)
(0.000414188 1.00182e-05 -2.76804e-16 -0.000122923 -1.28532e-16 0)
(0.000395295 -5.90699e-06 -1.24555e-16 -0.000121717 -4.31621e-16 0)
(0.000397372 1.18558e-05 -1.57209e-18 -0.000116588 -3.25803e-16 0)
(0.000380237 -2.9019e-06 7.1415e-17 -0.00011563 -5.408e-16 0)
(0.000382148 1.34283e-05 1.47106e-16 -0.000111311 -3.31115e-16 0)
(0.00036654 -2.9239e-07 2.65392e-16 -0.000110538 -6.37077e-16 0)
(0.000368305 1.47762e-05 4.71692e-16 -0.000106932 -5.01172e-16 0)
(0.00035402 1.97311e-06 4.20325e-16 -0.000106296 -6.26831e-16 0)
(0.000355656 1.59325e-05 3.18661e-16 -0.000103315 -3.8847e-16 0)
(0.000342517 3.9374e-06 3.74063e-16 -0.000102772 -4.45282e-16 0)
(0.00034404 1.69243e-05 2.48784e-16 -0.000100341 -3.79091e-16 0)
(0.000331889 5.63549e-06 6.83332e-16 -9.98573e-05 -4.57479e-16 0)
(0.000333314 1.77722e-05 3.96588e-16 -9.79049e-05 -2.99186e-16 0)
(0.00032201 7.09513e-06 7.77075e-16 -9.74522e-05 -3.62937e-16 0)
(0.000323348 1.8489e-05 5.20908e-16 -9.59111e-05 -1.51029e-16 0)
(0.00031277 8.33678e-06 8.10306e-16 -9.54723e-05 -2.60859e-16 0)
(0.000314033 1.90734e-05 5.87814e-16 -9.42685e-05 -2.3744e-17 0)
(0.000304085 9.37398e-06 6.18531e-16 -9.38483e-05 -4.43439e-17 0)
(0.000305275 1.94914e-05 2.84495e-16 -9.28812e-05 8.35378e-17 0)
(0.000295926 1.02188e-05 2.38047e-16 -9.25393e-05 6.98768e-17 0)
(0.000737114 -7.48701e-05 -2.40711e-15 -0.000295474 3.70672e-15 0)
(0.000672488 -0.000111612 -3.06165e-15 -0.00028272 8.44865e-16 0)
(0.000682492 -5.98527e-05 -1.38947e-15 -0.000262985 2.03087e-15 0)
(0.000626612 -9.26029e-05 -6.13265e-16 -0.000252115 -5.26163e-16 0)
(0.000635481 -4.67723e-05 5.99198e-16 -0.000235668 -9.54098e-17 0)
(0.000586622 -7.63023e-05 2.90265e-15 -0.000226433 -1.03411e-15 0)
(0.000594541 -3.54176e-05 2.81573e-15 -0.000212546 4.2788e-16 0)
(0.00055151 -6.22492e-05 4.3597e-15 -0.000204778 -1.043e-16 0)
(0.000558613 -2.56082e-05 3.80682e-15 -0.00019293 -1.62739e-16 0)
(0.000520517 -5.01115e-05 4.12219e-15 -0.000186463 -7.84312e-16 0)
(0.000526909 -1.71596e-05 3.55573e-15 -0.000176284 -3.48192e-16 0)
(0.000493037 -3.96168e-05 1.85915e-15 -0.000170945 -3.87765e-16 0)
(0.000498807 -9.89334e-06 2.02145e-15 -0.000162167 3.3014e-17 0)
(0.000468578 -3.05331e-05 8.45793e-16 -0.000157791 -3.39138e-16 0)
(0.000473801 -3.64599e-06 3.00548e-16 -0.00015021 -6.22874e-17 0)
(0.000446723 -2.26618e-05 -9.53949e-16 -0.000146644 -9.74806e-16 0)
(0.000451464 1.72715e-06 -1.44502e-15 -0.000140099 -6.26235e-16 0)
(0.000427123 -1.5833e-05 -1.37747e-15 -0.000137206 -9.5155e-16 0)
(0.000431439 6.35144e-06 -1.13725e-15 -0.000131567 -5.84006e-16 0)
(0.000409477 -9.90256e-06 -4.31512e-16 -0.000129228 -9.94918e-16 0)
(0.000413417 1.03341e-05 -8.12067e-17 -0.000124386 -8.37112e-16 0)
(0.000393527 -4.74788e-06 4.83012e-16 -0.000122496 -9.12844e-16 0)
(0.000397134 1.3766e-05 4.73647e-16 -0.000118358 -6.84674e-16 0)
(0.00037905 -2.65412e-07 8.42425e-16 -0.000116828 -4.19153e-16 0)
(0.000382363 1.67238e-05 5.09189e-16 -0.000113315 -5.75169e-16 0)
(0.000365852 3.63227e-06 7.79494e-16 -0.00011207 -4.56503e-16 0)
(0.000368904 1.9272e-05 4.6204e-16 -0.000109111 -6.46781e-16 0)
(0.000353763 7.01873e-06 7.94835e-16 -0.000108086 -3.45264e-16 0)
(0.000356585 2.1464e-05 7.71105e-16 -0.000105618 -3.89933e-16 0)
(0.000342635 9.95559e-06 1.18027e-15 -0.000104761 -2.78369e-16 0)
(0.000345253 2.33438e-05 1.1396e-15 -0.000102727 -4.19153e-16 0)
(0.000332338 1.24942e-05 1.06098e-15 -0.000101992 -1.75099e-16 0)
(0.000334775 2.49467e-05 9.33342e-16 -0.000100341 -2.8856e-16 0)
(0.000322758 1.46769e-05 6.73079e-16 -9.96936e-05 2.67798e-17 0)
(0.000325035 2.63005e-05 7.94178e-16 -9.83758e-05 -1.73256e-16 0)
(0.000313798 1.65393e-05 4.80728e-16 -9.77903e-05 2.05998e-16 0)
(0.000315933 2.74283e-05 5.40509e-16 -9.67635e-05 7.41594e-17 0)
(0.000305374 1.81127e-05 1.58714e-16 -9.6218e-05 6.03304e-16 0)
(0.000307386 2.83636e-05 2.08045e-16 -9.54663e-05 4.21158e-16 0)
(0.000297399 1.94286e-05 -2.8562e-16 -9.49167e-05 1.01308e-15 0)
(0.000715953 -0.00011086 -2.73993e-15 -0.000283507 -6.8424e-16 0)
(0.000650618 -0.000142847 -8.29591e-16 -0.000267077 -9.26451e-16 0)
(0.000665304 -8.88226e-05 -4.43574e-16 -0.000253552 -1.80764e-15 0)
(0.000608324 -0.00011789 2.33147e-15 -0.000239894 -2.00577e-15 0)
(0.00062132 -7.01123e-05 4.30805e-15 -0.000228384 -1.57751e-15 0)
(0.000571323 -9.66204e-05 3.81046e-15 -0.000216984 -1.03704e-15 0)
(0.000582897 -5.41022e-05 3.89065e-15 -0.000207146 -9.7421e-16 0)
(0.000538773 -7.83778e-05 2.20414e-15 -0.000197637 -1.3533e-15 0)
(0.00054913 -4.03531e-05 3.0735e-15 -0.000189173 -1.04051e-15 0)
(0.000509992 -6.26662e-05 1.66382e-15 -0.000181266 -4.04624e-16 0)
(0.000519297 -2.85225e-05 1.15305e-15 -0.000173939 -1.9803e-16 0)
(0.000484427 -4.90945e-05 8.32017e-16 -0.000167392 3.34097e-16 0)
(0.000492816 -1.83286e-05 4.43141e-16 -0.00016102 -2.43024e-16 0)
(0.000461622 -3.73446e-05 2.29092e-16 -0.000155625 5.01064e-16 0)
(0.000469209 -9.53516e-06 -5.8986e-16 -0.000150066 -5.2741e-16 0)
(0.000441198 -2.71533e-05 -4.63252e-16 -0.000145642 5.72459e-17 0)
(0.000448079 -1.94242e-06 -8.0975e-16 -0.000140788 -7.5081e-16 0)
(0.000422833 -1.83002e-05 -4.55013e-16 -0.000137177 -8.80372e-17 0)
(0.000429092 4.61891e-06 -3.71705e-16 -0.00013294 -7.28313e-16 0)
(0.000406254 -1.06003e-05 8.68988e-17 -0.000130004 -3.54426e-16 0)
(0.000411963 1.02922e-05 5.62091e-16 -0.000126314 -7.27012e-16 0)
(0.000391227 -3.89762e-06 5.67675e-16 -0.000123935 -5.68014e-16 0)
(0.000396448 1.51989e-05 8.44255e-16 -0.000120733 -5.02907e-16 0)
(0.000377549 1.93958e-06 7.2773e-16 -0.000118806 -8.98695e-16 0)
(0.000382338 1.94415e-05 9.79902e-16 -0.000116043 -6.73181e-16 0)
(0.000365046 7.02249e-06 6.05161e-16 -0.000114481 -1.1016e-15 0)
(0.00036945 2.31065e-05 7.29194e-16 -0.000112114 -5.54244e-16 0)
(0.000353564 1.1445e-05 2.37508e-16 -0.00011084 -6.38649e-16 0)
(0.000357625 2.62667e-05 7.46846e-16 -0.000108832 -3.03143e-16 0)
(0.000342969 1.52865e-05 3.86681e-16 -0.00010778 -4.06684e-16 0)
(0.000346726 2.8983e-05 7.9886e-16 -0.000106097 -1.41326e-16 0)
(0.000333145 1.86137e-05 -7.57315e-17 -0.000105213 -5.87095e-17 0)
(0.00033663 3.13067e-05 1.72049e-17 -0.000103825 1.99222e-16 0)
(0.000323988 2.14831e-05 -7.73592e-16 -0.000103062 1.20346e-16 0)
(0.00032723 3.32816e-05 -2.97871e-16 -0.000101942 2.99836e-16 0)
(0.000315407 2.39431e-05 -6.76203e-16 -0.000101258 1.27014e-16 0)
(0.000318434 3.49462e-05 -1.74516e-16 -0.000100386 5.50829e-16 0)
(0.000307317 2.60348e-05 -5.16568e-16 -9.97424e-05 2.49638e-16 0)
(0.000310153 3.6333e-05 -6.04761e-16 -9.90969e-05 9.00376e-16 0)
(0.000299643 2.77927e-05 -3.35594e-16 -9.84608e-05 1.99873e-16 0)
(0.00068774 -0.000144263 2.82527e-15 -0.000267559 -9.90364e-16 0)
(0.000622904 -0.000171007 4.34643e-15 -0.000247973 -1.28885e-15 0)
(0.000642301 -0.000116102 3.23804e-15 -0.000241312 -1.42887e-15 0)
(0.000585302 -0.00014093 4.73254e-15 -0.000225103 -1.56635e-15 0)
(0.000602499 -9.22489e-05 3.29569e-15 -0.000219151 -1.61085e-15 0)
(0.000552196 -0.00011528 3.09864e-15 -0.000205714 -2.04632e-15 0)
(0.000567515 -7.19129e-05 1.99522e-15 -0.000200406 -1.79847e-15 0)
(0.000522925 -9.3297e-05 2.1255e-15 -0.000189267 -1.74123e-15 0)
(0.000536632 -5.44956e-05 9.86624e-16 -0.000184523 -6.48407e-16 0)
(0.000496934 -7.43787e-05 -3.54087e-16 -0.000175303 -1.47235e-16 0)
(0.000509245 -3.95279e-05 9.40681e-17 -0.000171045 6.05473e-16 0)
(0.000473757 -5.80438e-05 -1.10972e-15 -0.000163437 3.52691e-16 0)
(0.000484853 -2.66322e-05 -4.9399e-16 -0.000159601 7.88866e-16 0)
(0.000453004 -4.39011e-05 -1.11554e-15 -0.000153346 1.2696e-16 0)
(0.000463037 -1.54997e-05 -2.3393e-16 -0.000149882 3.9465e-16 0)
(0.000434348 -3.16289e-05 -2.03681e-16 -0.000144763 3.11491e-16 0)
(0.000443447 -5.87417e-06 -1.14939e-16 -0.00014163 5.74031e-16 0)
(0.00041751 -2.09605e-05 1.37883e-16 -0.000137461 5.69369e-16 0)
(0.000425784 2.45812e-06 2.17261e-16 -0.000134631 2.08329e-16 0)
(0.000402252 -1.16729e-05 8.23506e-16 -0.000131253 8.33209e-17 0)
(0.000409796 9.67659e-06 6.73506e-16 -0.0001287 -3.63912e-16 0)
(0.00038837 -3.57905e-06 9.42687e-16 -0.000125977 -2.94198e-16 0)
(0.000395266 1.59322e-05 7.12646e-16 -0.000123683 -8.98424e-16 0)
(0.000375689 3.4784e-06 7.89977e-16 -0.000121496 -4.54877e-16 0)
(0.000382007 2.13522e-05 4.47491e-16 -0.000119446 -8.95172e-16 0)
(0.000364054 9.63238e-06 2.08167e-16 -0.000117693 -2.1787e-16 0)
(0.000369857 2.6044e-05 -7.94991e-17 -0.000115873 -5.39174e-16 0)
(0.000353332 1.49952e-05 6.00512e-17 -0.000114468 -2.63407e-16 0)
(0.000358675 3.00983e-05 6.5418e-17 -0.000112866 -4.7152e-16 0)
(0.000343407 1.96619e-05 -9.23334e-17 -0.000111733 -3.20382e-16 0)
(0.000348338 3.35916e-05 -5.66143e-16 -0.000110339 -1.65124e-16 0)
(0.000334175 2.37129e-05 -8.23262e-16 -0.000109413 -1.42735e-16 0)
(0.000338736 3.65889e-05 -1.04466e-15 -0.000108217 -9.08561e-17 0)
(0.000325546 2.72165e-05 -7.09082e-16 -0.000107441 -2.58257e-16 0)
(0.000329774 3.91453e-05 -7.84962e-16 -0.000106434 -1.73581e-16 0)
(0.000317437 3.02304e-05 -5.40217e-16 -0.00010576 -4.56395e-16 0)
(0.000321366 4.13069e-05 -7.43817e-16 -0.000104933 -3.70092e-16 0)
(0.000309775 3.28031e-05 -1.70111e-16 -0.000104318 -6.5372e-16 0)
(0.000313436 4.31124e-05 2.7635e-16 -0.00010366 -5.94685e-16 0)
(0.000302493 3.49749e-05 5.40868e-16 -0.000103069 -7.76939e-16 0)
(0.000653359 -0.000174022 5.54637e-15 -0.000247978 -1.34257e-15 0)
(0.000590071 -0.000195364 4.60837e-15 -0.000225974 -1.69157e-15 0)
(0.000614035 -0.000140789 4.85015e-15 -0.000226296 -1.75868e-15 0)
(0.000557986 -0.000161134 4.76515e-15 -0.000208069 -2.11295e-15 0)
(0.000579289 -0.000112565 4.40706e-15 -0.000207866 -2.32448e-15 0)
(0.000529498 -0.000131872 2.64036e-15 -0.000192774 -1.49305e-15 0)
(0.00054851 -8.84828e-05 1.47072e-15 -0.000192194 -1.18492e-15 0)
(0.000504121 -0.000106759 -2.10552e-16 -0.000179713 -4.3509e-16 0)
(0.000521154 -6.78509e-05 -7.91888e-16 -0.000178858 -5.21935e-16 0)
(0.000481435 -8.51273e-05 -1.35207e-15 -0.000168557 -3.60985e-16 0)
(0.000496748 -5.01155e-05 -2.02467e-15 -0.000167501 -1.98355e-16 0)
(0.000461077 -6.64363e-05 -2.15942e-15 -0.000159026 2.33646e-17 0)
(0.00047489 -3.48274e-05 -1.77976e-15 -0.000157822 -4.61328e-17 0)
(0.000442742 -5.02415e-05 -1.31403e-15 -0.000150879 8.5923e-17 0)
(0.000455239 -2.16187e-05 -5.81227e-16 -0.000149571 1.89247e-16 0)
(0.000426164 -3.61768e-05 -4.62548e-16 -0.000143913 2.49638e-16 0)
(0.000437503 -1.01859e-05 1.764e-16 -0.000142539 3.81205e-16 0)
(0.000411119 -2.39384e-05 3.89093e-17 -0.000137955 -8.73867e-17 0)
(0.000421434 -2.76351e-07 6.05554e-16 -0.000136546 1.68051e-18 0)
(0.000397413 -1.32726e-05 1.64717e-16 -0.000132858 3.10624e-17 0)
(0.00040682 8.32113e-06 6.80635e-16 -0.000131441 1.59432e-16 0)
(0.000384877 -3.96658e-06 4.23042e-16 -0.000128497 -9.35666e-17 0)
(0.000393476 1.57837e-05 7.81195e-16 -0.000127095 -1.5233e-16 0)
(0.000373366 4.15861e-06 4.53915e-16 -0.000124764 -3.90909e-16 0)
(0.000381244 2.22606e-05 2.34011e-16 -0.000123397 -5.48606e-17 0)
(0.000362754 1.12541e-05 2.09644e-16 -0.000121566 -2.18196e-16 0)
(0.000369986 2.78776e-05 3.03319e-16 -0.000120252 -1.2696e-16 0)
(0.000352929 1.74475e-05 3.26535e-16 -0.000118824 -1.99656e-16 0)
(0.00035958 3.27411e-05 -8.82947e-17 -0.000117576 -2.03776e-16 0)
(0.000343793 2.28472e-05 -5.06363e-16 -0.000116467 -1.07119e-16 0)
(0.000349921 3.6941e-05 -7.58006e-16 -0.000115298 -2.07191e-16 0)
(0.00033526 2.75448e-05 -5.34105e-16 -0.000114436 -1.11727e-16 0)
(0.000340917 4.05535e-05 -3.10082e-16 -0.000113355 -2.12233e-16 0)
(0.000327253 3.1618e-05 2.37007e-16 -0.000112677 -1.39428e-16 0)
(0.000332483 4.36425e-05 -5.75982e-18 -0.000111691 -4.66695e-16 0)
(0.000319704 3.51323e-05 3.21317e-16 -0.000111144 -4.32868e-16 0)
(0.000324545 4.62619e-05 2.64207e-16 -0.000110256 -6.96058e-16 0)
(0.000312551 3.8143e-05 6.98267e-16 -0.000109795 -4.19478e-16 0)
(0.000317039 4.84567e-05 4.82185e-16 -0.000109008 -5.74302e-16 0)
(0.00030574 4.06961e-05 2.18616e-16 -0.000108594 -2.31965e-16 0)
(0.000613735 -0.000199437 3.22008e-15 -0.000225383 -2.34963e-15 0)
(0.000552979 -0.000215407 2.60073e-15 -0.00020175 -2.32334e-15 0)
(0.000581209 -0.000162245 3.98417e-15 -0.000208874 -1.9964e-15 0)
(0.000526996 -0.000178066 3.31156e-15 -0.000189255 -1.28879e-15 0)
(0.000552167 -0.000130549 2.41015e-15 -0.000194716 -6.38758e-16 0)
(0.000503658 -0.000146054 1.69499e-15 -0.000178456 -9.12898e-17 0)
(0.00052618 -0.000103438 2.84874e-16 -0.000182578 -2.59829e-16 0)
(0.000482645 -0.000118516 5.63379e-16 -0.000169132 -1.25551e-16 0)
(0.000502865 -8.01691e-05 -5.36436e-16 -0.000172173 -1.60137e-16 0)
(0.000463671 -9.47517e-05 -7.15573e-18 -0.000161089 -2.93331e-16 0)
(0.000481884 -6.01364e-05 -1.0446e-15 -0.00016325 -2.70129e-16 0)
(0.000446487 -7.41845e-05 -1.16931e-16 -0.00015415 -1.96349e-16 0)
(0.000462942 -4.28438e-05 -8.62239e-16 -0.000155595 2.30447e-16 0)
(0.000430872 -5.63378e-05 -1.91958e-16 -0.000148164 2.29309e-16 0)
(0.000445781 -2.78824e-05 -5.56928e-16 -0.000149026 1.4203e-16 0)
(0.000416635 -4.08166e-05 -1.2883e-16 -0.000142997 2.46927e-16 0)
(0.000430181 -1.49138e-05 -1.62901e-16 -0.000143387 -9.98008e-17 0)
(0.000403611 -2.72916e-05 -1.07959e-16 -0.000138534 -7.28042e-17 0)
(0.000415947 -3.65601e-06 -3.03184e-16 -0.000138544 -2.78098e-17 0)
(0.000391655 -1.54875e-05 -1.23707e-16 -0.000134676 -3.01408e-17 0)
(0.000402915 6.12677e-06 1.31012e-16 -0.000134383 -2.0963e-16 0)
(0.000380638 -5.17298e-06 5.53567e-16 -0.000131336 -3.99691e-16 0)
(0.000390939 1.46325e-05 5.29199e-16 -0.000130806 -5.00088e-16 0)
(0.000370451 3.84699e-06 6.67774e-16 -0.000128438 -4.03215e-16 0)
(0.000379891 2.2028e-05 5.41058e-16 -0.000127727 -4.3547e-16 0)
(0.000360995 1.17371e-05 4.7713e-16 -0.000125919 -1.64636e-16 0)
(0.000369662 2.8454e-05 1.59459e-16 -0.000125073 -2.19009e-17 0)
(0.000352184 1.86367e-05 2.74032e-17 -0.000123719 1.48319e-16 0)
(0.000360154 3.40293e-05 -2.2031e-16 -0.000122779 3.97902e-17 0)
(0.000343943 2.46641e-05 -1.34983e-17 -0.000121791 2.21611e-16 0)
(0.00035128 3.88548e-05 -1.32788e-16 -0.00012079 1.36772e-16 0)
(0.000336202 2.99197e-05 3.46443e-16 -0.00012009 1.97162e-16 0)
(0.000342966 4.30155e-05 4.27298e-16 -0.000119055 -9.6494e-18 0)
(0.000328902 3.44883e-05 7.85925e-16 -0.000118577 -5.33427e-17 0)
(0.000335143 4.65831e-05 8.52115e-16 -0.000117532 -1.7911e-16 0)
(0.000321989 3.8442e-05 6.12805e-16 -0.000117219 -1.0468e-16 0)
(0.000327751 4.96182e-05 4.86224e-16 -0.000116181 -1.32652e-16 0)
(0.000315415 4.18414e-05 3.32281e-16 -0.000115985 -4.8247e-17 0)
(0.000320737 5.21711e-05 3.00378e-16 -0.000114968 -4.19586e-17 0)
(0.000309136 4.47376e-05 2.66267e-16 -0.000114848 -1.29887e-16 0)
(0.000569855 -0.000220007 1.80428e-15 -0.000200497 -1.67981e-15 0)
(0.000512549 -0.000230792 2.987e-15 -0.000176018 -8.11363e-16 0)
(0.000544603 -0.000180012 3.13164e-15 -0.000189558 -8.14019e-16 0)
(0.000493034 -0.000191424 2.94231e-15 -0.000169184 -9.81745e-17 0)
(0.000521708 -0.000145806 2.40701e-15 -0.000180031 -6.79795e-17 0)
(0.000475192 -0.000157567 1.77132e-15 -0.000163116 -3.07913e-16 0)
(0.000500926 -0.00011646 1.29259e-15 -0.000171746 -1.93422e-16 0)
(0.00045886 -0.000128362 1.0027e-15 -0.000157748 -2.02366e-16 0)
(0.000482029 -9.12062e-05 7.39995e-16 -0.000164549 -2.63949e-16 0)
(0.000443888 -0.000103097 5.50422e-16 -0.000153013 -4.78133e-16 0)
(0.000464809 -6.94149e-05 6.51904e-16 -0.000158298 -4.21917e-16 0)
(0.000430132 -8.11814e-05 2.93331e-16 -0.00014884 4.27718e-17 0)
(0.000449078 -5.05645e-05 1.38941e-16 -0.000152868 2.65955e-16 0)
(0.000417466 -6.21253e-05 -8.93654e-17 -0.000145167 2.84061e-16 0)
(0.000434669 -3.42229e-05 -1.72659e-17 -0.00014815 3.43475e-16 0)
(0.000405773 -4.55197e-05 3.27863e-16 -0.000141931 3.33988e-16 0)
(0.000421432 -2.00306e-05 2.40232e-16 -0.000144047 2.4362e-16 0)
(0.000394948 -3.10225e-05 4.66017e-16 -0.000139077 8.0231e-17 0)
(0.000409235 -7.68679e-06 2.51155e-16 -0.000140475 -2.40639e-16 0)
(0.000384899 -1.83464e-05 6.09267e-16 -0.000136555 -2.41669e-16 0)
(0.00039796 3.06048e-06 6.16992e-16 -0.000137358 -2.15973e-16 0)
(0.000375542 -7.24906e-06 7.19178e-16 -0.000134319 -2.75279e-16 0)
(0.000387506 1.24234e-05 7.7927e-16 -0.000134633 -3.76001e-16 0)
(0.000366801 2.47387e-06 2.79697e-16 -0.000132329 -2.98969e-16 0)
(0.000377779 2.05808e-05 1.29915e-16 -0.000132242 -7.00395e-17 0)
(0.000358612 1.09956e-05 -3.85895e-16 -0.000130548 1.55583e-17 0)
(0.000368699 2.7684e-05 -1.25334e-16 -0.000130136 8.37004e-17 0)
(0.000350914 1.84631e-05 -3.26914e-16 -0.000128944 9.40003e-17 0)
(0.000360194 3.38612e-05 3.85976e-17 -0.000128272 3.33013e-16 0)
(0.000343654 2.50012e-05 2.15485e-17 -0.000127488 1.44199e-16 0)
(0.0003522 3.92208e-05 4.28558e-16 -0.000126609 9.51387e-17 0)
(0.000336784 3.07158e-05 4.04624e-16 -0.000126154 -1.24792e-16 0)
(0.00034466 4.38546e-05 6.75932e-16 -0.000125114 -5.3397e-17 0)
(0.000330262 3.56971e-05 2.08411e-16 -0.000124919 -5.9089e-17 0)
(0.000337522 4.78405e-05 1.38737e-16 -0.000123756 5.63785e-18 0)
(0.000324049 4.00215e-05 -3.47324e-16 -0.000123763 -8.0231e-17 0)
(0.000330742 5.12438e-05 4.68511e-17 -0.000122508 -1.09992e-16 0)
(0.00031811 4.37538e-05 -3.11844e-16 -0.000122667 -9.92045e-17 0)
(0.000324278 5.41198e-05 -5.94956e-18 -0.000121345 -1.19371e-16 0)
(0.000312416 4.69486e-05 7.37257e-17 -0.000121614 -2.05511e-16 0)
(0.000522763 -0.000235402 3.40686e-15 -0.000174101 -5.62972e-16 0)
(0.000469729 -0.000241327 3.51512e-15 -0.000149517 -5.13858e-16 0)
(0.000505039 -0.000193778 2.8965e-15 -0.000168921 -7.11779e-17 0)
(0.000456842 -0.000201021 2.1934e-15 -0.000148406 3.86518e-16 0)
(0.000488545 -0.000158051 1.63704e-15 -0.000164212 1.00722e-16 0)
(0.000444664 -0.000166241 8.27653e-16 -0.000147146 2.58474e-16 0)
(0.000473214 -0.000127296 7.09475e-16 -0.000159957 -1.76942e-16 0)
(0.000433183 -0.000136144 2.53622e-16 -0.000145818 3.80772e-16 0)
(0.000458971 -0.000100749 3.88117e-16 -0.000156131 1.1048e-16 0)
(0.000422374 -0.000110031 1.33574e-16 -0.000144478 2.5392e-16 0)
(0.000445733 -7.77765e-05 -2.97885e-17 -0.0001527 9.10188e-17 0)
(0.000412204 -8.73184e-05 3.09838e-16 -0.000143158 -9.76324e-17 0)
(0.000433418 -5.78523e-05 3.9568e-16 -0.000149628 -1.09233e-16 0)
(0.000402631 -6.75191e-05 3.52989e-16 -0.000141879 -3.67219e-16 0)
(0.000421946 -4.05367e-05 1.90792e-16 -0.000146877 5.35054e-17 0)
(0.000393615 -5.0224e-05 -4.39102e-18 -0.00014065 -2.05239e-16 0)
(0.00041124 -2.54623e-05 3.68764e-16 -0.000144411 -5.93059e-17 0)
(0.000385112 -3.50896e-05 1.40648e-16 -0.000139474 -4.06196e-16 0)
(0.000401231 -1.23205e-05 5.98425e-16 -0.000142195 -2.53107e-16 0)
(0.000377082 -2.18261e-05 6.5437e-16 -0.00013835 -2.05023e-16 0)
(0.00039185 -8.51822e-07 7.6214e-16 -0.000140198 -2.53324e-16 0)
(0.000369485 -1.01884e-05 5.34159e-16 -0.000137275 -1.97054e-16 0)
(0.00038304 9.16302e-06 2.01391e-17 -0.00013839 -1.54824e-16 0)
(0.000362284 3.09853e-08 5.13099e-17 -0.000136242 -1.77538e-16 0)
(0.000374744 1.79094e-05 -1.90142e-16 -0.000136744 -2.31098e-16 0)
(0.000355444 9.00851e-06 -3.8641e-16 -0.000135245 -1.81766e-16 0)
(0.000366912 2.55445e-05 -7.59972e-16 -0.000135234 9.05309e-17 0)
(0.000348935 1.68941e-05 -1.02988e-15 -0.000134276 2.33049e-16 0)
(0.000359498 3.22016e-05 -5.40881e-16 -0.00013384 5.54569e-17 0)
(0.000342725 2.38156e-05 -4.59105e-16 -0.000133328 1.81766e-16 0)
(0.000352463 3.79939e-05 1.36528e-16 -0.000132539 4.71086e-17 0)
(0.000336788 2.98817e-05 -1.79707e-16 -0.000132393 3.3117e-16 0)
(0.000345768 4.30175e-05 -3.0523e-16 -0.000131313 1.22352e-16 0)
(0.000331099 3.51852e-05 -6.57542e-16 -0.000131465 3.79525e-16 0)
(0.00033938 4.73539e-05 -5.5625e-16 -0.000130147 8.27788e-17 0)
(0.000325636 3.98048e-05 -5.29036e-16 -0.000130537 1.70599e-16 0)
(0.000333268 5.10723e-05 -6.28973e-16 -0.000129023 -3.90313e-18 0)
(0.000320377 4.38078e-05 -4.26742e-16 -0.000129602 2.64003e-17 0)
(0.000327405 5.42307e-05 -2.49366e-18 -0.000127929 -1.65178e-16 0)
(0.000315306 4.72508e-05 -8.14778e-17 -0.000128654 -1.77809e-16 0)
(0.000473529 -0.000245449 2.99213e-15 -0.000146993 -4.00558e-16 0)
(0.000425471 -0.000246963 2.17301e-15 -0.000122978 2.60751e-17 0)
(0.000463369 -0.00020336 2.04429e-15 -0.000147568 3.50035e-16 0)
(0.000419176 -0.000206781 1.33067e-15 -0.000127473 7.4604e-16 0)
(0.00045334 -0.000167094 7.1121e-16 -0.000147697 9.07477e-16 0)
(0.00041266 -0.000171979 2.52158e-16 -0.000130948 8.32288e-16 0)
(0.000443548 -0.000135761 -5.25567e-17 -0.000147512 6.9557e-16 0)
(0.000406055 -0.000141757 -2.83085e-16 -0.00013362 6.75458e-16 0)
(0.000434059 -0.000108622 -1.97081e-16 -0.000147108 4.80139e-16 0)
(0.000399454 -0.000115449 -3.22089e-16 -0.000135658 3.59196e-16 0)
(0.00042491 -8.50614e-05 3.55076e-16 -0.000146553 -6.00648e-17 0)
(0.000392923 -9.24948e-05 5.87882e-16 -0.000137189 -1.76237e-16 0)
(0.00041612 -6.45643e-05 4.87593e-16 -0.000145895 -4.60949e-16 0)
(0.000386505 -7.24251e-05 2.865e-16 -0.000138314 -2.69804e-16 0)
(0.000407693 -4.66986e-05 -3.91126e-17 -0.000145167 -4.18394e-16 0)
(0.000380228 -5.48438e-05 4.52817e-16 -0.000139109 -6.16803e-16 0)
(0.000399623 -3.11013e-05 2.51101e-16 -0.000144392 -7.13134e-16 0)
(0.000374111 -3.94167e-05 3.66813e-16 -0.000139633 -7.4089e-16 0)
(0.000391899 -1.74661e-05 3.20734e-16 -0.000143584 -3.61961e-16 0)
(0.000368162 -2.58603e-05 2.89211e-17 -0.000139932 -5.43511e-16 0)
(0.000384505 -5.53422e-06 1.82878e-16 -0.000142753 -3.13172e-16 0)
(0.000362386 -1.39343e-05 -3.62151e-16 -0.000140043 -6.03304e-16 0)
(0.000377425 4.91361e-06 5.07136e-17 -0.000141905 -4.79651e-16 0)
(0.000356782 -3.4341e-06 -2.04887e-16 -0.000139993 -7.55038e-16 0)
(0.000370639 1.40635e-05 -3.91343e-16 -0.000141042 -3.69117e-16 0)
(0.000351346 5.81466e-06 -8.92759e-16 -0.000139806 -3.00432e-16 0)
(0.000364129 2.20737e-05 -1.13416e-15 -0.000140165 4.87349e-17 0)
(0.000346075 1.39607e-05 -1.11901e-15 -0.000139497 -9.4163e-17 0)
(0.000357875 2.90789e-05 -8.98099e-16 -0.000139273 2.25894e-16 0)
(0.000340963 2.11311e-05 -8.57631e-16 -0.000139082 1.76074e-16 0)
(0.000351861 3.51938e-05 -6.63613e-16 -0.000138364 4.02239e-16 0)
(0.000336002 2.74343e-05 -9.55236e-16 -0.000138571 -1.27394e-17 0)
(0.000346068 4.05159e-05 -7.66341e-16 -0.000137436 1.84802e-16 0)
(0.000331186 3.29632e-05 -1.10448e-15 -0.000137973 -7.62736e-17 0)
(0.000340481 4.51284e-05 -9.23551e-16 -0.000136485 2.20201e-16 0)
(0.000326508 3.77968e-05 -1.12166e-15 -0.000137294 -1.5168e-16 0)
(0.000335084 4.91019e-05 -4.88731e-16 -0.00013551 -1.53415e-16 0)
(0.000321962 4.20027e-05 -5.5812e-16 -0.000136542 -2.5392e-16 0)
(0.000329864 5.24962e-05 -5.29551e-16 -0.000134505 -7.78457e-17 0)
(0.000317541 4.56383e-05 -4.41975e-16 -0.000135719 -2.8379e-16 0)
(0.000423216 -0.000250135 1.61272e-15 -0.000119964 1.69678e-17 0)
(0.000380701 -0.000247787 1.39542e-15 -9.71077e-05 3.27429e-17 0)
(0.000420447 -0.000208696 1.28009e-15 -0.000126105 4.39265e-16 0)
(0.000380779 -0.000208731 8.22909e-16 -0.000106929 4.32542e-16 0)
(0.000416773 -0.000172839 4.28531e-16 -0.000130941 6.80771e-16 0)
(0.000379771 -0.000174764 -6.98226e-17 -0.000114927 3.49818e-16 0)
(0.000412455 -0.000141735 -4.61491e-16 -0.000134737 4.9998e-16 0)
(0.000377935 -0.000145152 -6.76569e-16 -0.000121441 4.23273e-16 0)
(0.000407691 -0.000114693 -5.98452e-16 -0.000137697 4.83554e-16 0)
(0.000375472 -0.000119279 -5.12909e-16 -0.00012674 4.88433e-16 0)
(0.00040263 -9.1131e-05 2.43403e-17 -0.000139985 2.27954e-16 0)
(0.000372537 -9.66232e-05 3.20328e-16 -0.000131038 -2.34188e-17 0)
(0.000397381 -7.05614e-05 6.87574e-16 -0.000141724 -2.53758e-16 0)
(0.000369252 -7.67472e-05 5.61806e-16 -0.000134507 -3.39843e-16 0)
(0.000392028 -5.25726e-05 6.18049e-16 -0.000143015 -5.5213e-16 0)
(0.000365709 -5.92787e-05 5.92327e-16 -0.000137285 -5.79072e-16 0)
(0.000386632 -3.68169e-05 5.24158e-16 -0.000143934 -6.75675e-16 0)
(0.000361983 -4.39019e-05 4.04082e-16 -0.000139483 -2.96746e-16 0)
(0.000381237 -2.29995e-05 -4.07931e-17 -0.000144545 -5.49691e-16 0)
(0.000358128 -3.0348e-05 -4.17824e-16 -0.000141191 -4.00071e-16 0)
(0.000375877 -1.08702e-05 -8.43076e-16 -0.000144896 -6.75621e-16 0)
(0.000354191 -1.83878e-05 -9.39163e-16 -0.000142481 -5.79777e-16 0)
(0.000370574 -2.16202e-07 -6.52175e-16 -0.000145025 -7.73632e-16 0)
(0.000350205 -7.82561e-06 -7.22648e-16 -0.000143415 -7.57315e-16 0)
(0.000365346 9.14399e-06 -7.46365e-16 -0.000144966 -6.49058e-16 0)
(0.000346197 1.50608e-06 -8.45407e-16 -0.000144042 -4.92553e-16 0)
(0.000360205 1.73651e-05 -9.92262e-16 -0.000144742 -2.543e-16 0)
(0.000342189 9.75072e-06 -7.906e-16 -0.000144404 -9.73071e-17 0)
(0.000355156 2.45794e-05 -8.88043e-16 -0.000144374 3.13334e-17 0)
(0.000338198 1.70313e-05 -8.55652e-16 -0.000144533 3.68737e-16 0)
(0.000350206 3.08998e-05 -1.09892e-15 -0.000143879 1.0262e-16 0)
(0.000334237 2.34531e-05 -7.71193e-16 -0.000144459 2.11745e-16 0)
(0.000345356 3.64227e-05 -9.64506e-16 -0.00014327 -1.63281e-16 0)
(0.000330317 2.91065e-05 -5.9379e-16 -0.000144207 1.03216e-16 0)
(0.000340608 4.12304e-05 -9.57676e-16 -0.000142558 -1.70979e-16 0)
(0.000326446 3.40687e-05 -2.05131e-16 -0.000143796 -5.02365e-16 0)
(0.000335962 4.53932e-05 -4.71899e-16 -0.000141753 -5.49257e-16 0)
(0.000322631 3.84059e-05 -8.85522e-17 -0.000143243 -7.60514e-16 0)
(0.000331418 4.89709e-05 -1.29779e-16 -0.00014086 -6.10948e-16 0)
(0.000318878 4.21745e-05 1.85155e-16 -0.000142564 -7.55906e-16 0)
(0.000372848 -0.000249594 1.31769e-15 -9.37733e-05 -2.1104e-16 0)