/*--------------------------------*- C++ -*----------------------------------*\
| =========                 |                                                 |
| \\      /  F ield         | OpenFOAM: The Open Source CFD Toolbox           |
|  \\    /   O peration     | Version:  v2012                                 |
|   \\  /    A nd           | Website:  www.openfoam.com                      |
|    \\/     M anipulation  |                                                 |
\*---------------------------------------------------------------------------*/
FoamFile
{
    version     2.0;
    format      ascii;
    class       volScalarField;
    location    "1";
    object      sigmaEq;
}
// * * * * * * * * * * * * * * * * * * * * * * * * * * * * * * * * * * * * * //

dimensions      [1 -1 -2 0 0 0 0];


internalField   nonuniform List<scalar> 
8000
(
5.16769e+07
4.81793e+07
4.72141e+07
4.42443e+07
4.33413e+07
4.08141e+07
4.00067e+07
3.78323e+07
3.71315e+07
3.52404e+07
3.46436e+07
3.29842e+07
3.24824e+07
3.10156e+07
3.05977e+07
2.92931e+07
2.8948e+07
2.77813e+07
2.74985e+07
2.64499e+07
2.62204e+07
2.52732e+07
2.50891e+07
2.42294e+07
2.40839e+07
2.32997e+07
2.31872e+07
2.2468e+07
2.23838e+07
2.17202e+07
2.16606e+07
2.10441e+07
2.10064e+07
2.04289e+07
2.0411e+07
1.98647e+07
1.98655e+07
1.93415e+07
1.93608e+07
1.88482e+07
5.07497e+07
4.76066e+07
4.64802e+07
4.37092e+07
4.28125e+07
4.0354e+07
3.96339e+07
3.74495e+07
3.68722e+07
3.49271e+07
3.44681e+07
3.27307e+07
3.23708e+07
3.08133e+07
3.05363e+07
2.91347e+07
2.89273e+07
2.76609e+07
2.75117e+07
2.63628e+07
2.62621e+07
2.52154e+07
2.51553e+07
2.41974e+07
2.41712e+07
2.32904e+07
2.32925e+07
2.24785e+07
2.25043e+07
2.1748e+07
2.17936e+07
2.10867e+07
2.11489e+07
2.04841e+07
2.05599e+07
1.99311e+07
2.00173e+07
1.94202e+07
1.95123e+07
1.89485e+07
5.00872e+07
4.69317e+07
4.58543e+07
4.30739e+07
4.22512e+07
3.97767e+07
3.91557e+07
3.6941e+07
3.6481e+07
3.44908e+07
3.41606e+07
3.23659e+07
3.21408e+07
3.05169e+07
3.0377e+07
2.89027e+07
2.88319e+07
2.74888e+07
2.74738e+07
2.62459e+07
2.62761e+07
2.51492e+07
2.52157e+07
2.41776e+07
2.42731e+07
2.33128e+07
2.34315e+07
2.25393e+07
2.26763e+07
2.18436e+07
2.19949e+07
2.1214e+07
2.13764e+07
2.06403e+07
2.08111e+07
2.01142e+07
2.02911e+07
1.96282e+07
1.98106e+07
1.91753e+07
4.91392e+07
4.5994e+07
4.50276e+07
4.22352e+07
4.15295e+07
3.90326e+07
3.85369e+07
3.62912e+07
3.59641e+07
3.39348e+07
3.37427e+07
3.19017e+07
3.18174e+07
3.01412e+07
3.01424e+07
2.86113e+07
2.86799e+07
2.72768e+07
2.73981e+07
2.61082e+07
2.62703e+07
2.50804e+07
2.52736e+07
2.41724e+07
2.43888e+07
2.33659e+07
2.35994e+07
2.26458e+07
2.28913e+07
2.19987e+07
2.22523e+07
2.14133e+07
2.1672e+07
2.08799e+07
2.11413e+07
2.039e+07
2.06525e+07
1.9936e+07
2.01985e+07
1.95114e+07
4.78904e+07
4.47828e+07
4.39504e+07
4.11699e+07
4.0603e+07
3.81017e+07
3.77494e+07
3.54878e+07
3.53073e+07
3.32534e+07
3.32095e+07
3.13371e+07
3.14005e+07
2.96876e+07
2.98344e+07
2.82625e+07
2.8473e+07
2.70262e+07
2.72846e+07
2.59491e+07
2.62424e+07
2.50061e+07
2.53238e+07
2.41759e+07
2.451e+07
2.34408e+07
2.37847e+07
2.27857e+07
2.31342e+07
2.21976e+07
2.2547e+07
2.16656e+07
2.20129e+07
2.11803e+07
2.15233e+07
2.07336e+07
2.10708e+07
2.03183e+07
2.06487e+07
1.99284e+07
4.6359e+07
4.33149e+07
4.26258e+07
3.98837e+07
3.94664e+07
3.69847e+07
3.67857e+07
3.45298e+07
3.45042e+07
3.24456e+07
3.2556e+07
3.06709e+07
3.08861e+07
2.91545e+07
2.94488e+07
2.78538e+07
2.82063e+07
2.67332e+07
2.71268e+07
2.57628e+07
2.61838e+07
2.49177e+07
2.53554e+07
2.4177e+07
2.46228e+07
2.35233e+07
2.39705e+07
2.29417e+07
2.33853e+07
2.242e+07
2.28563e+07
2.19476e+07
2.23738e+07
2.15158e+07
2.19299e+07
2.1117e+07
2.15176e+07
2.07447e+07
2.11308e+07
2.03933e+07
4.45695e+07
4.16135e+07
4.10717e+07
3.83935e+07
3.813e+07
3.56929e+07
3.56512e+07
3.34246e+07
3.35569e+07
3.15157e+07
3.1782e+07
2.99052e+07
3.0272e+07
2.85417e+07
2.89818e+07
2.73827e+07
2.78736e+07
2.63924e+07
2.69163e+07
2.55413e+07
2.60838e+07
2.48047e+07
2.53548e+07
2.41622e+07
2.47112e+07
2.35968e+07
2.41383e+07
2.30946e+07
2.36236e+07
2.26438e+07
2.31569e+07
2.22348e+07
2.27294e+07
2.18595e+07
2.23338e+07
2.15111e+07
2.19639e+07
2.11838e+07
2.16143e+07
2.08728e+07
4.25486e+07
3.97041e+07
3.93103e+07
3.67201e+07
3.66111e+07
3.42424e+07
3.43581e+07
3.21842e+07
3.24733e+07
3.04722e+07
3.08919e+07
2.9045e+07
2.95595e+07
2.78511e+07
2.84314e+07
2.68478e+07
2.74702e+07
2.59995e+07
2.66454e+07
2.5277e+07
2.59319e+07
2.46562e+07
2.53089e+07
2.41175e+07
2.47595e+07
2.36448e+07
2.42699e+07
2.3225e+07
2.38287e+07
2.28474e+07
2.34266e+07
2.25033e+07
2.30557e+07
2.21855e+07
2.27096e+07
2.1888e+07
2.23831e+07
2.16061e+07
2.20715e+07
2.13356e+07
4.03253e+07
3.76133e+07
3.73663e+07
3.48861e+07
3.49298e+07
3.26521e+07
3.29222e+07
3.08234e+07
3.12652e+07
2.9326e+07
2.98934e+07
2.80977e+07
2.87526e+07
2.70864e+07
2.77981e+07
2.62493e+07
2.69933e+07
2.55512e+07
2.63083e+07
2.49634e+07
2.57191e+07
2.44627e+07
2.52062e+07
2.40307e+07
2.47539e+07
2.36523e+07
2.43495e+07
2.33158e+07
2.39829e+07
2.30115e+07
2.36459e+07
2.27318e+07
2.33319e+07
2.24708e+07
2.30354e+07
2.22235e+07
2.27521e+07
2.19859e+07
2.24783e+07
2.17549e+07
3.79292e+07
3.53686e+07
3.52654e+07
3.29153e+07
3.31077e+07
3.09418e+07
3.13612e+07
2.93586e+07
2.99463e+07
2.809e+07
2.87966e+07
2.70724e+07
2.78576e+07
2.62531e+07
2.70848e+07
2.55892e+07
2.64423e+07
2.5046e+07
2.59014e+07
2.45959e+07
2.54393e+07
2.42169e+07
2.50381e+07
2.38918e+07
2.46834e+07
2.36072e+07
2.43642e+07
2.33527e+07
2.40718e+07
2.31201e+07
2.37992e+07
2.29031e+07
2.35412e+07
2.2697e+07
2.32934e+07
2.24978e+07
2.30525e+07
2.23028e+07
2.28157e+07
2.21095e+07
3.53903e+07
3.29971e+07
3.30337e+07
3.08313e+07
3.11675e+07
2.91321e+07
2.96942e+07
2.78071e+07
2.85321e+07
2.67779e+07
2.76133e+07
2.59793e+07
2.68828e+07
2.53579e+07
2.62964e+07
2.48708e+07
2.58191e+07
2.44843e+07
2.54236e+07
2.41719e+07
2.50888e+07
2.39135e+07
2.47985e+07
2.36935e+07
2.45403e+07
2.35003e+07
2.43048e+07
2.33251e+07
2.40848e+07
2.31613e+07
2.3875e+07
2.30042e+07
2.36712e+07
2.28501e+07
2.34706e+07
2.26965e+07
2.32706e+07
2.25415e+07
2.30696e+07
2.23837e+07
3.27384e+07
3.05258e+07
3.06971e+07
2.8658e+07
2.91318e+07
2.72438e+07
2.79407e+07
2.61865e+07
2.70388e+07
2.54043e+07
2.63565e+07
2.48297e+07
2.58379e+07
2.44088e+07
2.54393e+07
2.40991e+07
2.51272e+07
2.38681e+07
2.48759e+07
2.36912e+07
2.46665e+07
2.35501e+07
2.44847e+07
2.34316e+07
2.43202e+07
2.33258e+07
2.41655e+07
2.3226e+07
2.40153e+07
2.31272e+07
2.38656e+07
2.30263e+07
2.37139e+07
2.29209e+07
2.35582e+07
2.28098e+07
2.33975e+07
2.2692e+07
2.32309e+07
2.25672e+07
3.00021e+07
2.79807e+07
2.82812e+07
2.64186e+07
2.70232e+07
2.52975e+07
2.61205e+07
2.45148e+07
2.54834e+07
2.39841e+07
2.504e+07
2.36356e+07
2.47336e+07
2.34147e+07
2.45216e+07
2.32801e+07
2.4372e+07
2.32009e+07
2.42616e+07
2.3155e+07
2.41736e+07
2.31265e+07
2.40964e+07
2.31044e+07
2.40217e+07
2.30812e+07
2.39441e+07
2.3052e+07
2.38601e+07
2.30138e+07
2.37674e+07
2.29648e+07
2.36648e+07
2.29044e+07
2.35518e+07
2.28323e+07
2.34283e+07
2.27488e+07
2.32944e+07
2.26543e+07
2.72086e+07
2.53865e+07
2.58105e+07
2.41354e+07
2.48641e+07
2.33137e+07
2.42534e+07
2.281e+07
2.38831e+07
2.25327e+07
2.36781e+07
2.24093e+07
2.35816e+07
2.23852e+07
2.35523e+07
2.24208e+07
2.35604e+07
2.24877e+07
2.35855e+07
2.25666e+07
2.36137e+07
2.26444e+07
2.36357e+07
2.27127e+07
2.3646e+07
2.27664e+07
2.3641e+07
2.28026e+07
2.36192e+07
2.282e+07
2.35799e+07
2.28187e+07
2.35233e+07
2.27991e+07
2.34503e+07
2.27624e+07
2.33617e+07
2.271e+07
2.32587e+07
2.26433e+07
2.43832e+07
2.27663e+07
2.33082e+07
2.18304e+07
2.26761e+07
2.13124e+07
2.23594e+07
2.10901e+07
2.22552e+07
2.10653e+07
2.22856e+07
2.11632e+07
2.2394e+07
2.13301e+07
2.2541e+07
2.15287e+07
2.27e+07
2.17341e+07
2.28537e+07
2.19303e+07
2.29914e+07
2.21072e+07
2.31067e+07
2.22594e+07
2.31964e+07
2.23839e+07
2.32592e+07
2.248e+07
2.32952e+07
2.25482e+07
2.33054e+07
2.25898e+07
2.32916e+07
2.26069e+07
2.32555e+07
2.26018e+07
2.31994e+07
2.25772e+07
2.31254e+07
2.25355e+07
2.15493e+07
2.0142e+07
2.07967e+07
1.95243e+07
2.04806e+07
1.93136e+07
2.04579e+07
1.93732e+07
2.06171e+07
1.95974e+07
2.08772e+07
1.99101e+07
2.11829e+07
2.02594e+07
2.14977e+07
2.06118e+07
2.1799e+07
2.09464e+07
2.20731e+07
2.12511e+07
2.23128e+07
2.15193e+07
2.25147e+07
2.17484e+07
2.26779e+07
2.19377e+07
2.28033e+07
2.20885e+07
2.28928e+07
2.22026e+07
2.29488e+07
2.22829e+07
2.29742e+07
2.23324e+07
2.29722e+07
2.23549e+07
2.2946e+07
2.23544e+07
2.28989e+07
2.23349e+07
1.87285e+07
1.75338e+07
1.82972e+07
1.7238e+07
1.82986e+07
1.73375e+07
1.85689e+07
1.76776e+07
1.89863e+07
1.81447e+07
1.94679e+07
1.86625e+07
1.99606e+07
1.9183e+07
2.04325e+07
1.96777e+07
2.08656e+07
2.01306e+07
2.12506e+07
2.0534e+07
2.15838e+07
2.0885e+07
2.1865e+07
2.11838e+07
2.20959e+07
2.14322e+07
2.2279e+07
2.1633e+07
2.24179e+07
2.17893e+07
2.25162e+07
2.19047e+07
2.25778e+07
2.19831e+07
2.26071e+07
2.20291e+07
2.26084e+07
2.20484e+07
2.25863e+07
2.20476e+07
1.59404e+07
1.49609e+07
1.58305e+07
1.49923e+07
1.61517e+07
1.54056e+07
1.67128e+07
1.60227e+07
1.73809e+07
1.67232e+07
1.80725e+07
1.74333e+07
1.87393e+07
1.81108e+07
1.93551e+07
1.87337e+07
1.99076e+07
1.92921e+07
2.03924e+07
1.9783e+07
2.08098e+07
2.02074e+07
2.11625e+07
2.05684e+07
2.14547e+07
2.08702e+07
2.16909e+07
2.1117e+07
2.18758e+07
2.13131e+07
2.20141e+07
2.14622e+07
2.21102e+07
2.15682e+07
2.21691e+07
2.1635e+07
2.21963e+07
2.16691e+07
2.21981e+07
2.16818e+07
1.32031e+07
1.2442e+07
1.34177e+07
1.28104e+07
1.40633e+07
1.35416e+07
1.4912e+07
1.44299e+07
1.582e+07
1.53504e+07
1.67068e+07
1.62359e+07
1.75313e+07
1.70528e+07
1.82751e+07
1.77873e+07
1.89323e+07
1.84359e+07
1.95038e+07
1.90008e+07
1.9994e+07
1.9487e+07
2.04089e+07
1.99008e+07
2.07551e+07
2.02487e+07
2.10391e+07
2.0537e+07
2.12669e+07
2.07712e+07
2.14441e+07
2.09555e+07
2.15754e+07
2.10928e+07
2.16657e+07
2.11837e+07
2.17206e+07
2.12287e+07
2.17498e+07
2.12406e+07
1.05333e+07
9.99634e+06
1.10826e+07
1.07199e+07
1.20612e+07
1.17747e+07
1.31924e+07
1.2924e+07
1.43253e+07
1.40461e+07
1.5388e+07
1.50855e+07
1.63503e+07
1.60207e+07
1.72029e+07
1.6847e+07
1.79472e+07
1.75677e+07
1.85893e+07
1.819e+07
1.91378e+07
1.87226e+07
1.96016e+07
1.91746e+07
1.99898e+07
1.95553e+07
2.03113e+07
1.98731e+07
2.05741e+07
2.01362e+07
2.07857e+07
2.03515e+07
2.09528e+07
2.0524e+07
2.10809e+07
2.06527e+07
2.11763e+07
2.07179e+07
2.1255e+07
2.06375e+07
7.94633e+06
7.64716e+06
8.85607e+06
8.75914e+06
1.01814e+07
1.01421e+07
1.15857e+07
1.15351e+07
1.29225e+07
1.28333e+07
1.41368e+07
1.40007e+07
1.52132e+07
1.50303e+07
1.6153e+07
1.5927e+07
1.69645e+07
1.67003e+07
1.76586e+07
1.73615e+07
1.82465e+07
1.79215e+07
1.87389e+07
1.83906e+07
1.91456e+07
1.87778e+07
1.94748e+07
1.90911e+07
1.97332e+07
1.93368e+07
1.99249e+07
1.95197e+07
2.00506e+07
1.96436e+07
2.01033e+07
1.97136e+07
2.0056e+07
1.9747e+07
1.98199e+07
1.98224e+07
5.45885e+06
5.43294e+06
6.78775e+06
6.98958e+06
8.47554e+06
8.69412e+06
1.01321e+07
1.02985e+07
1.16416e+07
1.17377e+07
1.29775e+07
1.30027e+07
1.41424e+07
1.41023e+07
1.51489e+07
1.50509e+07
1.6012e+07
1.58641e+07
1.6747e+07
1.65566e+07
1.7368e+07
1.71423e+07
1.7888e+07
1.76334e+07
1.8318e+07
1.8041e+07
1.8668e+07
1.83748e+07
1.89464e+07
1.86441e+07
1.91607e+07
1.88581e+07
1.93182e+07
1.90274e+07
1.94295e+07
1.91666e+07
1.95217e+07
1.92955e+07
1.96903e+07
1.94241e+07
3.103e+06
3.45673e+06
4.97926e+06
5.5217e+06
7.02104e+06
7.49778e+06
8.87976e+06
9.25249e+06
1.05129e+07
1.07823e+07
1.19303e+07
1.21062e+07
1.31528e+07
1.32467e+07
1.42022e+07
1.42255e+07
1.50993e+07
1.50625e+07
1.58627e+07
1.57753e+07
1.65087e+07
1.63795e+07
1.70519e+07
1.68888e+07
1.75052e+07
1.73157e+07
1.78803e+07
1.76713e+07
1.81878e+07
1.79662e+07
1.84386e+07
1.82108e+07
1.86448e+07
1.84151e+07
1.88217e+07
1.85887e+07
1.89861e+07
1.8737e+07
1.91332e+07
1.88602e+07
1.12246e+06
2.14527e+06
3.67734e+06
4.55153e+06
5.93561e+06
6.63728e+06
7.88669e+06
8.43721e+06
9.56783e+06
9.9883e+06
1.10141e+07
1.13233e+07
1.22564e+07
1.24705e+07
1.33213e+07
1.34547e+07
1.4232e+07
1.42969e+07
1.50085e+07
1.50159e+07
1.56683e+07
1.56277e+07
1.62268e+07
1.61466e+07
1.66976e+07
1.65852e+07
1.7093e+07
1.69548e+07
1.74242e+07
1.72655e+07
1.77022e+07
1.75266e+07
1.79369e+07
1.77456e+07
1.81367e+07
1.79284e+07
1.83056e+07
1.80787e+07
1.84456e+07
1.8199e+07
1.81293e+06
2.50263e+06
3.33789e+06
4.30951e+06
5.3632e+06
6.19217e+06
7.21325e+06
7.88736e+06
8.83651e+06
9.37312e+06
1.02457e+07
1.06635e+07
1.14632e+07
1.17792e+07
1.25119e+07
1.27408e+07
1.34128e+07
1.35675e+07
1.41848e+07
1.42763e+07
1.48444e+07
1.48824e+07
1.54066e+07
1.53993e+07
1.58843e+07
1.58389e+07
1.62895e+07
1.62117e+07
1.66323e+07
1.65269e+07
1.69221e+07
1.67921e+07
1.71664e+07
1.7014e+07
1.7371e+07
1.71977e+07
1.75403e+07
1.73472e+07
1.76774e+07
1.74658e+07
3.78126e+06
3.96256e+06
4.06225e+06
4.8023e+06
5.38265e+06
6.1881e+06
6.9006e+06
7.61957e+06
8.34149e+06
8.94677e+06
9.63815e+06
1.0133e+07
1.07812e+07
1.11762e+07
1.17788e+07
1.20858e+07
1.26442e+07
1.28744e+07
1.33917e+07
1.35554e+07
1.40351e+07
1.41414e+07
1.45873e+07
1.46439e+07
1.50597e+07
1.50735e+07
1.54628e+07
1.54392e+07
1.58057e+07
1.57493e+07
1.60961e+07
1.60107e+07
1.63405e+07
1.62292e+07
1.65445e+07
1.64097e+07
1.67124e+07
1.65566e+07
1.6848e+07
1.66733e+07
5.73489e+06
5.62887e+06
5.33361e+06
5.75999e+06
5.90916e+06
6.56407e+06
6.94325e+06
7.62099e+06
8.08953e+06
8.70789e+06
9.1986e+06
9.7328e+06
1.02159e+07
1.0663e+07
1.11258e+07
1.14906e+07
1.19284e+07
1.22185e+07
1.26304e+07
1.28538e+07
1.32406e+07
1.34049e+07
1.37686e+07
1.38808e+07
1.42236e+07
1.42899e+07
1.46139e+07
1.46397e+07
1.49474e+07
1.49372e+07
1.52307e+07
1.51886e+07
1.54697e+07
1.53992e+07
1.56694e+07
1.55736e+07
1.58341e+07
1.57159e+07
1.59677e+07
1.58296e+07
7.59379e+06
7.2786e+06
6.76914e+06
6.92117e+06
6.75655e+06
7.20406e+06
7.2825e+06
7.84929e+06
8.06561e+06
8.64177e+06
8.92527e+06
9.45842e+06
9.76915e+06
1.02387e+07
1.05555e+07
1.0956e+07
1.12681e+07
1.16009e+07
1.19033e+07
1.21728e+07
1.24633e+07
1.2675e+07
1.29532e+07
1.31126e+07
1.3379e+07
1.34914e+07
1.3747e+07
1.38172e+07
1.40632e+07
1.40958e+07
1.43331e+07
1.4332e+07
1.45619e+07
1.45307e+07
1.47539e+07
1.46959e+07
1.49132e+07
1.48314e+07
1.50434e+07
1.49405e+07
9.34061e+06
8.85212e+06
8.21422e+06
8.13782e+06
7.76036e+06
7.99358e+06
7.83104e+06
8.24521e+06
8.23432e+06
8.72202e+06
8.80632e+06
9.29911e+06
9.43862e+06
9.89972e+06
1.00692e+07
1.04815e+07
1.06659e+07
1.10229e+07
1.12135e+07
1.15148e+07
1.17067e+07
1.19543e+07
1.2145e+07
1.23425e+07
1.25307e+07
1.2682e+07
1.28674e+07
1.29764e+07
1.3159e+07
1.32299e+07
1.34097e+07
1.34461e+07
1.36237e+07
1.36289e+07
1.38045e+07
1.37819e+07
1.39557e+07
1.39081e+07
1.40804e+07
1.40106e+07
1.09668e+07
1.03259e+07
9.60562e+06
9.33494e+06
8.81452e+06
8.84654e+06
8.50374e+06
8.74817e+06
8.54846e+06
8.91517e+06
8.82076e+06
9.23884e+06
9.21715e+06
9.63959e+06
9.66635e+06
1.00655e+07
1.01241e+07
1.04855e+07
1.05649e+07
1.0882e+07
1.09753e+07
1.12462e+07
1.1349e+07
1.15744e+07
1.16839e+07
1.1866e+07
1.19805e+07
1.21219e+07
1.22405e+07
1.23444e+07
1.24664e+07
1.25359e+07
1.26609e+07
1.2699e+07
1.28268e+07
1.28365e+07
1.29669e+07
1.29509e+07
1.30838e+07
1.30447e+07
1.24659e+07
1.16872e+07
1.09129e+07
1.04726e+07
9.85646e+06
9.70501e+06
9.23305e+06
9.30602e+06
8.95917e+06
9.18604e+06
8.9415e+06
9.25808e+06
9.09303e+06
9.44931e+06
9.34404e+06
9.70549e+06
9.64456e+06
9.98945e+06
9.9615e+06
1.02773e+07
1.02743e+07
1.05545e+07
1.05708e+07
1.08128e+07
1.08445e+07
1.1048e+07
1.10924e+07
1.12586e+07
1.13138e+07
1.14444e+07
1.1509e+07
1.16063e+07
1.16793e+07
1.17458e+07
1.18265e+07
1.18646e+07
1.19523e+07
1.19644e+07
1.20587e+07
1.20472e+07
1.38325e+07
1.29274e+07
1.2119e+07
1.15275e+07
1.08488e+07
1.0531e+07
9.97027e+06
9.87787e+06
9.42298e+06
9.50192e+06
9.1393e+06
9.33581e+06
9.05103e+06
9.31795e+06
9.09707e+06
9.39734e+06
9.22808e+06
9.53507e+06
9.40737e+06
9.70335e+06
9.6093e+06
9.88326e+06
9.81686e+06
1.00625e+07
1.00193e+07
1.02336e+07
1.021e+07
1.0392e+07
1.03855e+07
1.05354e+07
1.05441e+07
1.06631e+07
1.06854e+07
1.0775e+07
1.08097e+07
1.08718e+07
1.09178e+07
1.09542e+07
1.10107e+07
1.10236e+07
1.50614e+07
1.40402e+07
1.32126e+07
1.2485e+07
1.17682e+07
1.12994e+07
1.06816e+07
1.04332e+07
9.9045e+06
9.83464e+06
9.38602e+06
9.45139e+06
9.07389e+06
9.23339e+06
8.91807e+06
9.13604e+06
8.8744e+06
9.12233e+06
8.90667e+06
9.16331e+06
8.987e+06
9.2375e+06
9.09503e+06
9.32957e+06
9.21643e+06
9.42897e+06
9.34152e+06
9.52869e+06
9.46397e+06
9.62425e+06
9.57986e+06
9.71293e+06
9.6869e+06
9.79327e+06
9.78397e+06
9.86462e+06
9.87069e+06
9.92689e+06
9.94719e+06
9.98037e+06
1.61478e+07
1.50201e+07
1.41859e+07
1.33349e+07
1.25994e+07
1.19931e+07
1.13435e+07
1.09496e+07
1.03763e+07
1.01611e+07
9.65666e+06
9.58568e+06
9.14373e+06
9.18293e+06
8.79781e+06
8.91553e+06
8.58188e+06
8.75056e+06
8.46329e+06
8.66041e+06
8.41477e+06
8.62294e+06
8.41462e+06
8.62114e+06
8.44629e+06
8.64231e+06
8.49755e+06
8.67726e+06
8.55966e+06
8.71948e+06
8.6265e+06
8.76449e+06
8.69392e+06
8.80927e+06
8.75922e+06
8.85186e+06
8.82071e+06
8.89107e+06
8.87747e+06
8.92628e+06
1.7087e+07
1.58627e+07
1.5033e+07
1.40705e+07
1.33321e+07
1.26006e+07
1.19399e+07
1.14107e+07
1.08177e+07
1.04627e+07
9.92981e+06
9.72126e+06
9.243e+06
9.15351e+06
8.72548e+06
8.72857e+06
8.34721e+06
8.41831e+06
8.08049e+06
8.19794e+06
7.90073e+06
8.04639e+06
7.78697e+06
7.94638e+06
7.72201e+06
7.88414e+06
7.69219e+06
7.849e+06
7.68698e+06
7.83287e+06
7.69843e+06
7.82971e+06
7.72064e+06
7.83504e+06
7.74934e+06
7.84558e+06
7.78147e+06
7.85895e+06
7.81493e+06
7.87348e+06
1.78746e+07
1.65646e+07
1.57499e+07
1.46874e+07
1.39595e+07
1.31137e+07
1.24593e+07
1.18035e+07
1.12123e+07
1.07228e+07
1.01868e+07
9.84142e+06
9.35441e+06
9.13144e+06
8.68878e+06
8.56671e+06
8.16518e+06
8.12323e+06
7.76051e+06
7.77939e+06
7.45369e+06
7.51615e+06
7.22589e+06
7.31719e+06
7.06082e+06
7.16882e+06
6.94473e+06
7.05984e+06
6.86631e+06
6.98124e+06
6.81645e+06
6.92589e+06
6.78793e+06
6.88816e+06
6.77509e+06
6.8636e+06
6.77351e+06
6.84861e+06
6.77984e+06
6.84028e+06
1.85064e+07
1.71245e+07
1.63348e+07
1.51835e+07
1.44775e+07
1.35245e+07
1.28919e+07
1.21131e+07
1.15447e+07
1.09236e+07
1.04093e+07
9.92876e+06
9.46052e+06
9.10256e+06
8.67449e+06
8.4211e+06
8.02928e+06
7.863e+06
7.5049e+06
7.40924e+06
7.08329e+06
7.04303e+06
6.74822e+06
6.74968e+06
6.48528e+06
6.51655e+06
6.28184e+06
6.33285e+06
6.12702e+06
6.18956e+06
6.01157e+06
6.07921e+06
5.92767e+06
5.99561e+06
5.8688e+06
5.93354e+06
5.82939e+06
5.88843e+06
5.80475e+06
5.8559e+06
1.89799e+07
1.75464e+07
1.679e+07
1.55554e+07
1.48814e+07
1.3808e+07
1.32199e+07
1.23138e+07
1.17938e+07
1.10437e+07
1.05778e+07
9.96664e+06
9.54498e+06
9.05504e+06
8.67082e+06
8.28545e+06
7.93398e+06
7.63783e+06
7.31598e+06
7.09496e+06
6.80077e+06
6.64195e+06
6.37428e+06
6.26589e+06
6.02415e+06
5.95559e+06
5.73949e+06
5.70144e+06
5.51076e+06
5.49519e+06
5.3296e+06
5.32985e+06
5.18867e+06
5.19953e+06
5.08146e+06
5.09913e+06
5.0019e+06
5.02393e+06
4.94389e+06
4.96855e+06
1.93057e+07
1.78556e+07
1.71258e+07
1.57076e+07
1.5123e+07
1.39052e+07
1.3404e+07
1.23754e+07
1.19352e+07
1.10683e+07
1.06775e+07
9.94799e+06
9.59867e+06
8.98657e+06
8.67285e+06
8.16164e+06
7.87901e+06
7.45458e+06
7.19963e+06
6.84968e+06
6.61994e+06
6.33356e+06
6.12735e+06
5.89475e+06
5.71105e+06
5.52345e+06
5.36174e+06
5.21124e+06
5.07136e+06
4.95098e+06
4.83295e+06
4.73667e+06
4.64044e+06
4.56342e+06
4.48849e+06
4.4273e+06
4.37197e+06
4.32508e+06
4.28453e+06
4.25316e+06
1.96291e+07
1.74833e+07
1.71021e+07
1.5494e+07
1.51015e+07
1.37878e+07
1.34157e+07
1.2305e+07
1.19677e+07
1.10138e+07
1.07157e+07
9.89019e+06
9.6306e+06
8.91346e+06
8.68968e+06
8.06547e+06
7.87401e+06
7.33023e+06
7.16765e+06
6.69379e+06
6.55705e+06
6.144e+06
6.03059e+06
5.67032e+06
5.5784e+06
5.26366e+06
5.19202e+06
4.91618e+06
4.86429e+06
4.62113e+06
4.58918e+06
4.37276e+06
4.36171e+06
4.1664e+06
4.17804e+06
3.99883e+06
4.03567e+06
3.86957e+06
3.93405e+06
3.78446e+06
4.0252e+06
3.58688e+06
4.32678e+06
3.91786e+06
5.02203e+06
4.56215e+06
5.92506e+06
5.39234e+06
6.93939e+06
6.3237e+06
8.01003e+06
7.30633e+06
9.10447e+06
8.31081e+06
1.02024e+07
9.31906e+06
1.12904e+07
1.03193e+07
1.23587e+07
1.13035e+07
1.34002e+07
1.22659e+07
1.4409e+07
1.32022e+07
1.538e+07
1.41091e+07
1.63087e+07
1.4984e+07
1.71901e+07
1.58245e+07
1.8019e+07
1.66287e+07
1.87886e+07
1.73948e+07
1.94892e+07
1.81216e+07
2.01049e+07
1.88093e+07
2.0601e+07
1.94623e+07
3.79596e+06
3.51296e+06
4.15213e+06
3.86644e+06
4.84051e+06
4.50794e+06
5.72702e+06
5.32467e+06
6.72072e+06
6.23706e+06
7.76848e+06
7.19744e+06
8.83897e+06
8.17746e+06
9.91264e+06
9.1595e+06
1.09765e+07
1.0132e+07
1.20212e+07
1.10869e+07
1.304e+07
1.20186e+07
1.40273e+07
1.29227e+07
1.49784e+07
1.37959e+07
1.58894e+07
1.46355e+07
1.6756e+07
1.54391e+07
1.75739e+07
1.62044e+07
1.83377e+07
1.69289e+07
1.90402e+07
1.76095e+07
1.96695e+07
1.82406e+07
2.02002e+07
1.88098e+07
3.72442e+06
3.54197e+06
4.08375e+06
3.89436e+06
4.74105e+06
4.5109e+06
5.58755e+06
5.29358e+06
6.54015e+06
6.16958e+06
7.54774e+06
7.09347e+06
8.57957e+06
8.03755e+06
9.61633e+06
8.9843e+06
1.06451e+07
9.92211e+06
1.16569e+07
1.08429e+07
1.26449e+07
1.17409e+07
1.36039e+07
1.26118e+07
1.45295e+07
1.34521e+07
1.54179e+07
1.42593e+07
1.62658e+07
1.50312e+07
1.70694e+07
1.57655e+07
1.78246e+07
1.646e+07
1.85258e+07
1.7112e+07
1.91647e+07
1.77168e+07
1.97248e+07
1.82656e+07
3.7613e+06
3.64674e+06
4.09814e+06
3.98204e+06
4.70881e+06
4.55972e+06
5.50074e+06
5.29566e+06
6.39911e+06
6.12424e+06
7.35522e+06
7.00247e+06
8.33875e+06
7.90314e+06
9.3303e+06
8.80868e+06
1.03169e+07
9.70726e+06
1.12894e+07
1.05906e+07
1.22411e+07
1.14528e+07
1.31668e+07
1.22893e+07
1.40623e+07
1.30969e+07
1.49242e+07
1.38728e+07
1.57494e+07
1.46149e+07
1.65349e+07
1.53213e+07
1.72772e+07
1.59901e+07
1.79724e+07
1.6619e+07
1.86144e+07
1.72048e+07
1.91927e+07
1.77416e+07
3.87312e+06
3.80534e+06
4.17633e+06
4.11482e+06
4.73199e+06
4.64623e+06
5.46143e+06
5.32849e+06
6.29795e+06
6.10326e+06
7.19568e+06
6.93022e+06
8.12483e+06
7.7828e+06
9.06589e+06
8.64333e+06
1.00056e+07
9.49975e+06
1.09347e+07
1.03435e+07
1.18463e+07
1.11685e+07
1.27353e+07
1.197e+07
1.35975e+07
1.27446e+07
1.44297e+07
1.34897e+07
1.5229e+07
1.42031e+07
1.59928e+07
1.48831e+07
1.67185e+07
1.5528e+07
1.74029e+07
1.6136e+07
1.80417e+07
1.67048e+07
1.8628e+07
1.72305e+07
4.0362e+06
4.00116e+06
4.3029e+06
4.28141e+06
4.80094e+06
4.76394e+06
5.46476e+06
5.38971e+06
6.23582e+06
6.10761e+06
7.0715e+06
6.88032e+06
7.94282e+06
7.68215e+06
8.83025e+06
8.49545e+06
9.72031e+06
9.30794e+06
1.06034e+07
1.01108e+07
1.14726e+07
1.08977e+07
1.23226e+07
1.16638e+07
1.31492e+07
1.24055e+07
1.39494e+07
1.31201e+07
1.47204e+07
1.38054e+07
1.54598e+07
1.44598e+07
1.61655e+07
1.50817e+07
1.68351e+07
1.56698e+07
1.74654e+07
1.62223e+07
1.80518e+07
1.67365e+07
4.23384e+06
4.22211e+06
4.46551e+06
4.47303e+06
4.90732e+06
4.90731e+06
5.50592e+06
5.4767e+06
6.21086e+06
6.13713e+06
6.98319e+06
6.85457e+06
7.79517e+06
7.60449e+06
8.62744e+06
8.36951e+06
9.46636e+06
9.13723e+06
1.03021e+07
9.89863e+06
1.11275e+07
1.06471e+07
1.19372e+07
1.13776e+07
1.27269e+07
1.20865e+07
1.34935e+07
1.27709e+07
1.42344e+07
1.34286e+07
1.49475e+07
1.40579e+07
1.56307e+07
1.46575e+07
1.62823e+07
1.52261e+07
1.68999e+07
1.57624e+07
1.74804e+07
1.62647e+07
4.4544e+06
4.45955e+06
4.65444e+06
4.68281e+06
5.04383e+06
5.07145e+06
5.58002e+06
5.58658e+06
6.22034e+06
6.1907e+06
6.92986e+06
6.85331e+06
7.68247e+06
7.55136e+06
8.45926e+06
8.26796e+06
9.24659e+06
8.99074e+06
1.00345e+07
9.71056e+06
1.08156e+07
1.04206e+07
1.15843e+07
1.11157e+07
1.23363e+07
1.1792e+07
1.30685e+07
1.24465e+07
1.37783e+07
1.3077e+07
1.44636e+07
1.36817e+07
1.51226e+07
1.42594e+07
1.57539e+07
1.4809e+07
1.63557e+07
1.53292e+07
1.69258e+07
1.5819e+07
4.68977e+06
4.70734e+06
4.86216e+06
4.9054e+06
5.20413e+06
5.25207e+06
5.68222e+06
5.71625e+06
6.26094e+06
6.26649e+06
6.90953e+06
6.87581e+06
7.60388e+06
7.52294e+06
8.32583e+06
8.19171e+06
9.06192e+06
8.86995e+06
9.80212e+06
9.54851e+06
1.05389e+07
1.02204e+07
1.12666e+07
1.08804e+07
1.19808e+07
1.15245e+07
1.26782e+07
1.21495e+07
1.33563e+07
1.27532e+07
1.4013e+07
1.33338e+07
1.46467e+07
1.389e+07
1.5256e+07
1.44207e+07
1.58397e+07
1.4925e+07
1.63961e+07
1.5402e+07
4.93424e+06
4.96108e+06
5.08291e+06
5.13666e+06
5.38281e+06
5.44542e+06
5.80788e+06
5.86265e+06
6.329e+06
6.3622e+06
6.91955e+06
6.92059e+06
7.55763e+06
7.51845e+06
8.22611e+06
8.14056e+06
8.91193e+06
8.77513e+06
9.60514e+06
9.41308e+06
1.02981e+07
1.00474e+07
1.09851e+07
1.06729e+07
1.16617e+07
1.12852e+07
1.23244e+07
1.18812e+07
1.29706e+07
1.24585e+07
1.35983e+07
1.30153e+07
1.4206e+07
1.35503e+07
1.47923e+07
1.40623e+07
1.53563e+07
1.45507e+07
1.58968e+07
1.50147e+07
5.18378e+06
5.2176e+06
5.31226e+06
5.37334e+06
5.57531e+06
5.64826e+06
5.95271e+06
6.02278e+06
6.42079e+06
6.47532e+06
6.95682e+06
6.98566e+06
7.54126e+06
7.53643e+06
8.15824e+06
8.1135e+06
8.79526e+06
8.70561e+06
9.44259e+06
9.30393e+06
1.00927e+07
9.90151e+06
1.07397e+07
1.0493e+07
1.13791e+07
1.1074e+07
1.20073e+07
1.16415e+07
1.26218e+07
1.21929e+07
1.32205e+07
1.27263e+07
1.38018e+07
1.32403e+07
1.43645e+07
1.37339e+07
1.49078e+07
1.42064e+07
1.54308e+07
1.46572e+07
5.43548e+06
5.47456e+06
5.54685e+06
5.61291e+06
5.77785e+06
5.85784e+06
6.11281e+06
6.19386e+06
6.5326e+06
6.60325e+06
7.01804e+06
7.06873e+06
7.55193e+06
7.57495e+06
8.1198e+06
8.10894e+06
8.70988e+06
8.66013e+06
9.31278e+06
9.21999e+06
9.9211e+06
9.78174e+06
1.0529e+07
1.034e+07
1.11319e+07
1.08905e+07
1.17263e+07
1.143e+07
1.23095e+07
1.19558e+07
1.28792e+07
1.24662e+07
1.34341e+07
1.29595e+07
1.3973e+07
1.34348e+07
1.44949e+07
1.38914e+07
1.49993e+07
1.43287e+07
5.68719e+06
5.73021e+06
5.78407e+06
5.85333e+06
5.98731e+06
6.07181e+06
6.28474e+06
6.37334e+06
6.66094e+06
6.74342e+06
7.09988e+06
7.1674e+06
7.58659e+06
7.63181e+06
8.10804e+06
8.12494e+06
8.65332e+06
8.63695e+06
9.21352e+06
9.15975e+06
9.78146e+06
9.68676e+06
1.03514e+07
1.02127e+07
1.09187e+07
1.07333e+07
1.148e+07
1.12454e+07
1.20323e+07
1.17462e+07
1.25735e+07
1.22337e+07
1.31021e+07
1.27066e+07
1.3617e+07
1.31637e+07
1.41172e+07
1.36043e+07
1.46023e+07
1.40279e+07
5.93728e+06
5.98318e+06
6.02187e+06
6.09297e+06
6.2011e+06
6.28816e+06
6.46548e+06
6.55892e+06
6.80259e+06
6.89339e+06
7.1991e+06
7.27921e+06
7.64211e+06
7.70468e+06
8.12003e+06
8.15931e+06
8.62287e+06
8.63405e+06
9.14229e+06
9.12132e+06
9.6714e+06
9.61483e+06
1.02046e+07
1.01094e+07
1.07375e+07
1.0601e+07
1.12663e+07
1.10862e+07
1.17884e+07
1.15623e+07
1.23016e+07
1.20275e+07
1.28043e+07
1.24801e+07
1.32952e+07
1.2919e+07
1.37736e+07
1.33436e+07
1.42389e+07
1.37533e+07
6.18445e+06
6.23234e+06
6.25859e+06
6.33047e+06
6.41706e+06
6.50515e+06
6.6524e+06
6.74852e+06
6.95461e+06
7.05086e+06
7.31262e+06
7.40179e+06
7.71542e+06
7.79119e+06
8.15278e+06
8.20974e+06
8.61567e+06
8.64924e+06
9.09637e+06
9.10262e+06
9.58836e+06
9.56395e+06
1.00863e+07
1.00283e+07
1.05857e+07
1.04916e+07
1.10832e+07
1.09505e+07
1.15759e+07
1.14026e+07
1.20615e+07
1.18456e+07
1.25386e+07
1.22781e+07
1.30058e+07
1.2699e+07
1.34623e+07
1.31073e+07
1.39076e+07
1.35028e+07
6.42765e+06
6.47677e+06
6.49289e+06
6.56467e+06
6.63337e+06
6.72128e+06
6.84321e+06
6.94029e+06
7.11434e+06
7.21372e+06
7.43759e+06
7.53286e+06
7.80356e+06
7.88899e+06
8.20334e+06
8.27391e+06
8.62883e+06
8.68023e+06
9.07295e+06
9.10144e+06
9.52961e+06
9.53199e+06
9.99372e+06
9.96717e+06
1.0461e+07
1.04031e+07
1.09281e+07
1.08365e+07
1.13921e+07
1.12649e+07
1.18509e+07
1.16862e+07
1.23029e+07
1.20988e+07
1.27466e+07
1.25016e+07
1.31814e+07
1.28937e+07
1.36066e+07
1.32747e+07
6.66598e+06
6.71564e+06
6.72359e+06
6.79453e+06
6.84847e+06
6.93521e+06
7.03592e+06
7.13255e+06
7.27941e+06
7.37999e+06
7.57134e+06
7.67023e+06
7.90373e+06
7.9958e+06
8.26884e+06
8.34949e+06
8.65949e+06
8.7247e+06
9.06921e+06
9.11549e+06
9.49241e+06
9.51671e+06
9.92426e+06
9.92393e+06
1.03607e+07
1.03334e+07
1.07985e+07
1.07421e+07
1.12348e+07
1.11474e+07
1.16674e+07
1.15473e+07
1.20947e+07
1.19402e+07
1.25155e+07
1.2325e+07
1.29287e+07
1.27007e+07
1.33338e+07
1.30669e+07
6.89863e+06
6.94819e+06
6.94968e+06
7.01914e+06
7.06098e+06
7.14572e+06
7.22876e+06
7.32377e+06
7.44768e+06
7.54787e+06
7.71144e+06
7.81189e+06
8.01331e+06
8.10944e+06
8.34656e+06
8.43422e+06
8.70485e+06
8.78036e+06
9.08237e+06
9.1425e+06
9.47398e+06
9.51587e+06
9.8752e+06
9.89634e+06
1.02822e+07
1.02804e+07
1.06918e+07
1.0665e+07
1.11012e+07
1.10478e+07
1.15085e+07
1.14267e+07
1.19118e+07
1.18002e+07
1.23098e+07
1.2167e+07
1.27018e+07
1.25263e+07
1.30869e+07
1.28775e+07
7.12483e+06
7.1737e+06
7.17024e+06
7.23762e+06
7.26968e+06
7.3517e+06
7.42013e+06
7.51255e+06
7.61721e+06
7.71568e+06
7.85568e+06
7.95593e+06
8.12983e+06
8.22783e+06
8.43388e+06
8.52592e+06
8.76223e+06
8.84498e+06
9.10971e+06
9.18019e+06
9.47162e+06
9.5272e+06
9.84382e+06
9.88217e+06
1.02227e+07
1.02418e+07
1.06053e+07
1.06032e+07
1.09889e+07
1.09641e+07
1.13715e+07
1.13224e+07
1.17514e+07
1.16767e+07
1.21274e+07
1.20257e+07
1.24983e+07
1.23685e+07
1.28637e+07
1.27045e+07
7.34385e+06
7.39144e+06
7.38437e+06
7.44911e+06
7.47345e+06
7.55209e+06
7.6086e+06
7.69758e+06
7.78625e+06
7.88185e+06
8.002e+06
8.10055e+06
8.25104e+06
8.34902e+06
8.52836e+06
8.6225e+06
8.8291e+06
8.91639e+06
9.14861e+06
9.22636e+06
9.48267e+06
9.54847e+06
9.82748e+06
9.87919e+06
1.01797e+07
1.02154e+07
1.05364e+07
1.05545e+07
1.08952e+07
1.08941e+07
1.1254e+07
1.12323e+07
1.16113e+07
1.15678e+07
1.19656e+07
1.18991e+07
1.2316e+07
1.22254e+07
1.26617e+07
1.25461e+07
7.55496e+06
7.6007e+06
7.59124e+06
7.65281e+06
7.67121e+06
7.74588e+06
7.79284e+06
7.87762e+06
7.95316e+06
8.04491e+06
8.14852e+06
8.24408e+06
8.3748e+06
8.47114e+06
8.62772e+06
8.72195e+06
8.90301e+06
8.99248e+06
9.19657e+06
9.27886e+06
9.50459e+06
9.57753e+06
9.8236e+06
9.88523e+06
1.01505e+07
1.01991e+07
1.04826e+07
1.05166e+07
1.08176e+07
1.08357e+07
1.11536e+07
1.11544e+07
1.14888e+07
1.14713e+07
1.18221e+07
1.17852e+07
1.21523e+07
1.20951e+07
1.24789e+07
1.24004e+07
7.75741e+06
7.80072e+06
7.78999e+06
7.84785e+06
7.86194e+06
7.93208e+06
7.97158e+06
8.05148e+06
8.11645e+06
8.20347e+06
8.29346e+06