/*--------------------------------*- C++ -*----------------------------------*\
| =========                 |                                                 |
| \\      /  F ield         | OpenFOAM: The Open Source CFD Toolbox           |
|  \\    /   O peration     | Version:  v2012                                 |
|   \\  /    A nd           | Website:  www.openfoam.com                      |
|    \\/     M anipulation  |                                                 |
\*---------------------------------------------------------------------------*/
FoamFile
{
    version     2.0;
    format      ascii;
    class       volScalarField;
    location    "13";
    object      epsilonEq;
}
// * * * * * * * * * * * * * * * * * * * * * * * * * * * * * * * * * * * * * //

dimensions      [0 0 0 0 0 0 0];


internalField   nonuniform List<scalar> 
7666
(
0.000298988
0.00083437
0.00428607
0.00107168
0.00163547
0.00190307
0.000897931
0.00110183
0.00225398
0.000861992
0.000786087
0.00106941
0.00108277
0.000946639
0.000846512
0.00153684
0.00109639
0.00196355
0.00115227
0.000810259
0.000570114
0.00148236
0.000991049
0.00106412
0.00189093
0.000841533
0.00189744
0.000720452
0.00108963
0.00103763
0.00106462
0.00197087
0.000565941
0.00100023
0.000662896
0.000750628
0.000730064
0.00105022
0.00181878
0.000883869
0.00119429
0.00320503
0.00284702
0.000918375
0.00223637
0.000886659
0.00198831
0.00127832
0.00141387
0.000425486
0.0007079
0.0014347
0.000915213
0.00224569
0.000504136
0.0014332
0.00046341
0.000422672
0.00185838
0.00189205
0.000595409
0.00105065
0.00101835
0.00103011
0.00046394
0.0014526
0.000801808
0.0004872
0.00174195
0.00189371
0.00176842
0.00072489
0.000732856
0.00102635
0.0010254
0.000905986
0.00182563
0.000952092
0.000960692
0.000598554
0.000941868
0.000761446
0.00109637
0.00242465
0.0011263
0.00136009
0.00134836
0.00149199
0.0013502
0.00105352
0.00097825
0.000979792
0.00147835
0.00200006
0.0022136
0.00157984
0.000711545
0.00474371
0.0011589
0.000789863
0.00148678
0.00103018
0.000685204
0.00264416
0.00098053
0.00175201
0.00287674
0.00160133
0.000894595
0.00142398
0.000975748
0.00152339
0.00084551
0.000563528
0.000758994
0.00167471
0.000737105
0.00071161
0.00107357
0.00106833
0.0020836
0.00101392
0.00102416
0.000842827
0.00102885
0.000383092
0.00160017
0.00143349
0.0011821
0.00103711
0.00145043
0.00124389
0.00068347
0.00159225
0.00102982
0.0017759
0.000936349
0.000886485
0.000941862
0.000987228
0.00123037
0.000756763
0.000747591
0.000752059
0.00081281
0.000875982
0.000895529
0.000761166
0.000346446
0.00112513
0.000858485
0.00140015
0.000639632
0.00119234
0.000771085
0.00076862
0.00119481
0.0013113
0.00107992
0.00096771
0.00259189
0.0016462
0.0014582
0.00283047
0.00242664
0.00239921
0.00111986
0.000434314
0.000434922
0.00263288
0.000824285
0.000725939
0.00138067
0.00126475
0.00137321
0.000479695
0.00152689
0.00211802
0.00110588
0.00110141
0.001441
0.000883525
0.00133315
0.000719846
0.00139326
0.00155937
0.000732012
0.00103011
0.00183611
0.000979936
0.000854361
0.000906323
0.000900099
0.000928629
0.00157502
0.00207548
0.00090171
0.000914946
0.000881913
0.00116559
0.00151485
0.000676037
0.00110547
0.00182056
0.000664002
0.00289733
0.00079624
0.00104623
0.000653102
0.000644055
0.0020306
0.000656859
0.000743066
0.000765497
0.000763564
0.00068724
0.000946039
0.00200238
0.000637012
0.00154468
0.00264476
0.00315471
0.00106565
0.000743461
0.00130485
0.00129788
0.00279689
0.00177362
0.000555555
0.00112253
0.00108832
0.00100669
0.0013611
0.00149985
0.000723552
0.00102718
0.00238339
0.00143692
0.000809436
0.00100516
0.000759443
0.00128824
0.00100944
0.000553391
0.000850809
0.00077237
0.00127266
0.000813973
0.00220791
0.00154083
0.00151117
0.000681274
0.00172285
0.00125989
0.000733189
0.00103411
0.00161245
0.00147343
0.00158489
0.000942802
0.00132172
0.00181726
0.0018055
0.00147865
0.000859893
0.00127206
0.000974877
0.00177542
0.00359974
0.000333856
0.000893499
0.000871898
0.00101742
0.00144074
0.000377337
0.000826692
0.00207441
0.00200821
0.00134161
0.0013501
0.000925823
0.00178372
0.000945508
0.0010348
0.000850808
0.00104125
0.00146209
0.00179779
0.000962407
0.000777851
0.000781236
0.00231769
0.00196446
0.000907137
0.000948444
0.00215388
0.000773156
0.000427683
0.000456966
0.00115844
0.00076859
0.000784434
0.000872604
0.000706402
0.00102954
0.000608746
0.00056626
0.00135237
0.00112185
0.000562995
0.000523675
0.000398929
0.000395869
0.000392225
0.000749701
0.00116632
0.000751827
0.00110451
0.00116761
0.00076258
0.00126308
0.00126008
0.00209919
0.00122063
0.000966319
0.000743337
0.000316148
0.00107245
0.000491669
0.000925569
0.000925825
0.00144632
0.00598896
0.000985659
0.00217481
0.0022118
0.00167874
0.000625883
0.000725206
0.0010299
0.000925189
0.00160945
0.000626009
0.000996019
0.00138691
0.00120121
0.000722114
0.00168837
0.000741014
0.000709527
0.00103092
0.00219633
0.00178098
0.000571
0.00191545
0.00203553
0.00106647
0.000758781
0.00179993
0.000803054
0.0011638
0.00206287
0.0014007
0.00213845
0.000761569
0.00210402
0.00173247
0.00170138
0.000898636
0.0020933
0.00108302
0.00122011
0.00113438
0.00115336
0.000827826
0.00107071
0.00128494
0.00280164
0.000580706
0.0026999
0.00202718
0.000828003
0.000275023
0.00137752
0.00171616
0.00120454
0.00142117
0.00212831
0.00209789
0.0010371
0.00103265
0.000501851
0.000463805
0.00172952
0.00208755
0.00392312
0.000877985
0.00101686
0.000799913
0.000759926
0.00185003
0.00127158
0.000751028
0.000569654
0.00812185
0.001226
0.00122836
0.00170253
0.00178282
0.00201622
0.00205143
0.00102683
0.000692808
0.00179943
0.00204362
0.00153817
0.00150208
0.000857429
0.000780025
0.0027453
0.000802627
0.000971148
0.000964494
0.00101543
0.000677815
0.000974269
0.000853525
0.00169565
0.0011428
0.00182105
0.000764995
0.00647696
0.00107981
0.00103218
0.000688423
0.000776734
0.000870652
0.00093413
0.00105335
0.00108872
0.00155786
0.000426098
0.000920953
0.000930238
0.000803287
0.00103814
0.00100788
0.00091261
0.000926732
0.000858457
0.000349387
0.000592746
0.00125457
0.00209192
0.000747095
0.00144964
0.000898094
0.00105891
0.000920367
0.0013612
0.00188484
0.00106538
0.00619776
0.00260632
0.000681819
0.000875182
0.000872341
0.00148836
0.00141869
0.00074804
0.00137444
0.000906659
0.000908663
0.00181685
0.0019343
0.00145771
0.000769088
0.00133026
0.000733144
0.000996219
0.000637668
0.00163188
0.00113068
0.000715811
0.00112037
0.000726892
0.000914074
0.00113733
0.00238959
0.00104876
0.000985013
0.000996173
0.00103344
0.000676694
0.000835758
0.00198162
0.00264427
0.00293732
0.000856412
0.00066996
0.000810348
0.000892534
0.00229242
0.000620477
0.000896995
0.00054389
0.000765513
0.00559719
0.000358713
0.000754361
0.000680935
0.0017613
0.0017914
0.00074238
0.000743887
0.00103942
0.001032
0.00104347
0.00127137
0.000548236
0.000561282
0.00406902
0.00167927
0.00104259
0.00114951
0.00107975
0.00076406
0.00777459
0.000582111
0.000717565
0.00102686
0.00182504
0.00173049
0.000621243
0.00200362
0.000775739
0.00167811
0.00159199
0.00101635
0.00101029
0.00231047
0.00180924
0.00249813
0.0011958
0.00159771
0.00194544
0.00207755
0.00234229
0.00130202
0.000817234
0.00175478
0.000801118
0.00157161
0.0024038
0.0011618
0.0007705
0.000953106
0.000255926
0.00168234
0.00134394
0.00162091
0.0016476
0.000997695
0.00112172
0.00104282
0.000429772
0.00070848
0.00074097
0.00508333
0.000942659
0.00114785
0.000798984
0.00137175
0.000776732
0.00143015
0.000555307
0.00198598
0.00203101
0.00193765
0.00180256
0.00205972
0.000815207
0.000716777
0.000732579
0.00135232
0.00206044
0.00195441
0.000775977
0.000964306
0.0017613
0.0010413
0.00189437
0.00130068
0.000786007
0.000766114
0.000649279
0.00105565
0.000743052
0.00103791
0.000992595
0.00087887
0.0021348
0.00162464
0.00163402
0.000452107
0.000830653
0.00129838
0.000675698
0.00154585
0.00252523
0.00193294
0.00228125
0.000305959
0.000862578
0.000779542
0.000973632
0.00073494
0.000737314
0.00102497
0.00102136
0.000886572
0.000307826
0.00172254
0.000790923
0.000867543
0.000918204
0.00103999
0.000418254
0.00118783
0.00200706
0.00102281
0.00374985
0.00085236
0.00169219
0.00103307
0.000673781
0.00113263
0.000857632
0.00119443
0.00072339
0.00147047
0.000890407
0.000292221
0.00069764
0.000698521
0.00103194
0.000647914
0.000289484
0.00181975
0.000636814
0.00173377
0.0016811
0.00117504
0.00116084
0.00207895
0.00186054
0.00163397
0.00165821
0.00075497
0.000755073
0.000575393
0.00187531
0.00124032
0.00253118
0.000795129
0.00118284
0.000239971
0.00401247
0.00207167
0.00114926
0.000637164
0.000330172
0.000811332
0.000654218
0.00143879
0.00186015
0.00106097
0.000822042
0.00194358
0.000803524
0.00193964
0.00161418
0.00204651
0.00107554
0.0012035
0.0013856
0.000598643
0.00143747
0.00195532
0.00196038
0.00208756
0.000858826
0.000562202
0.00118424
0.000873149
0.00179741
0.00183021
0.00186728
0.00182412
0.00202146
0.000807962
0.00151856
0.00185678
0.00152557
0.00116117
0.00158419
0.0067541
0.000383086
0.00106398
0.00184363
0.000714843
0.00151222
0.00426882
0.00152709
0.00125793
0.000687185
0.00112671
0.000726325
0.00105263
0.00156757
0.00192831
0.00142337
0.000693568
0.00103339
0.000599774
0.00265061
0.00075815
0.0020632
0.00200902
0.000752901
0.00124794
0.00114506
0.000711876
0.00131715
0.0013061
0.0023868
0.00144831
0.000998029
0.00429912
0.00144439
0.00265275
0.0101742
0.00200495
0.002309
0.00100918
0.00133733
0.000750381
0.00167821
0.0038574
0.000965309
0.000876327
0.00102531
0.00103223
0.00089868
0.000610226
0.000995079
0.00175377
0.00178302
0.00172178
0.000629207
0.0017939
0.000799802
0.00160735
0.00128365
0.00201615
0.000660192
0.000599484
0.00192675
0.000854426
0.00174481
0.0010823
0.00200096
0.00105077
0.000760646
0.000755802
0.000764642
0.00151899
0.000931296
0.000840273
0.000839844
0.000830642
0.0016603
0.000732249
0.00107608
0.000933783
0.000923437
0.000858123
0.00177916
0.00155767
0.00582191
0.00181393
0.000927746
0.00102793
0.00102097
0.00205396
0.0010493
0.00181653
0.000591956
0.000632374
0.000634515
0.000589497
0.00118181
0.0011998
0.00243399
0.000572944
0.00168879
0.000937191
0.00144097
0.000686902
0.000857157
0.000566821
0.00159669
0.00126563
0.00220481
0.000862872
0.00139224
0.000777928
0.000724312
0.000529655
0.000548815
0.00288743
0.000742965
0.00176457
0.000456409
0.00100966
0.00117098
0.00103872
0.000419664
0.000587447
0.00186654
0.00113227
0.000970416
0.00133483
0.000436673
0.000689805
0.00142307
0.000753278
0.000997907
0.000992188
0.00137494
0.00106744
0.00138259
0.00733224
0.00113124
0.00161533
0.00128134
0.00149823
0.00096391
0.000934626
0.00113368
0.000639969
0.000822536
0.00143037
0.00110964
0.0006151
0.00179429
0.00127914
0.00236436
0.00100522
0.000978879
0.000953969
0.00104973
0.00141598
0.00139108
0.00140522
0.00180153
0.00175912
0.00101217
0.00173527
0.00187957
0.00172625
0.00095184
0.000754508
0.00076842
0.000978856
0.000881957
0.000873381
0.000930944
0.000926381
0.000348433
0.000375551
0.00093166
0.000850461
0.000909939
0.000330913
0.000716904
0.000848693
0.000585927
0.000758166
0.00129296
0.00127844
0.00085665
0.00126
0.000699182
0.00112694
0.000842967
0.00111305
0.00117459
0.00109204
0.00120074
0.00281064
0.00125495
0.000677971
0.00207019
0.00132478
0.000964377
0.000757072
0.000439163
0.000805427
0.00154571
0.00156341
0.00164525
0.00158491
0.00102698
0.00120004
0.000274684
0.000802769
0.00149194
0.0118666
0.00116077
0.000747861
0.00160537
0.00146215
0.000817686
0.00100055
0.00126327
0.00115586
0.00213894
0.00186592
0.000617073
0.000886913
0.00165657
0.00207454
0.000548492
0.000564544
0.00145327
0.000997401
0.00142606
0.00600318
0.000982297
0.00118096
0.00201056
0.00207525
0.00202462
0.000857333
0.00100522
0.000761518
0.00099971
0.000368211
0.00105414
0.00168606
0.000693818
0.00123232
0.00167872
0.00102851
0.0116616
0.00160615
0.00152563
0.00171518
0.00174877
0.00196668
0.00103325
0.00243098
0.000782185
0.000914124
0.000960281
0.00074236
0.00070446
0.00124107
0.0010077
0.00125756
0.000840128
0.00146474
0.000828477
0.000820929
0.000762402
0.000673847
0.00158064
0.0017249
0.00168688
0.00202696
0.00107828
0.000989348
0.00115508
0.000858251
0.00149616
0.00114488
0.00522336
0.0018102
0.00120387
0.00138812
0.0020682
0.00224088
0.00186794
0.00137209
0.00172534
0.000357944
0.00236502
0.00169142
0.000917169
0.00165893
0.00120996
0.00112175
0.000722918
0.00173109
0.0011603
0.00188591
0.00112445
0.00113199
0.00221086
0.000801732
0.0013893
0.00112776
0.00077627
0.00225136
0.00127151
0.000677311
0.00307737
0.00224045
0.00114109
0.00111958
0.000730059
0.00131818
0.000513308
0.00478262
0.00120191
0.000476681
0.000889711
0.000860202
0.00205905
0.0011013
0.00180881
0.000600805
0.00180392
0.000817813
0.0009012
0.00671859
0.00145793
0.000787659
0.00101102
0.00306298
0.000946834
0.000681491
0.00115516
0.000741899
0.001075
0.000908999
0.00119231
0.000756161
0.00107994
0.00108409
0.0012783
0.0012895
0.00129751
0.0021011
0.000980319
0.00223779
0.00131577
0.00100688
0.000891515
0.00102869
0.00218778
0.000776129
0.0014678
0.00221066
0.000743988
0.000557464
0.000236015
0.00113216
0.000648524
0.000611655
0.000960187
0.000693415
0.00169633
0.000321016
0.00193544
0.00182005
0.00184563
0.00190601
0.00123122
0.000796841
0.00158031
0.00141266
0.000911251
0.00183032
0.00294327
0.000941968
0.000952633
0.000809921
0.000841821
0.00100005
0.00108011
0.00186769
0.00119874
0.00113241
0.00168493
0.00136745
0.000747862
0.00114589
0.00142531
0.00104539
0.00104015
0.00110819
0.00084495
0.00104042
0.000745879
0.000822244
0.00148488
0.000350545
0.0101497
0.000777787
0.00189639
0.00139497
0.000960027
0.00100732
0.000780518
0.000507264
0.000791769
0.000810053
0.000965197
0.000412114
0.000490774
0.00102194
0.00111668
0.00133533
0.00118694
0.00114141
0.000951273
0.0015759
0.00252051
0.000923839
0.00215574
0.00202487
0.00108776
0.00150985
0.000402665
0.00172665
0.00162779
0.00152176
0.00127886
0.00107913
0.000909317
0.000910064
0.00153694
0.00131156
0.00131516
0.00116222
0.000999696
0.00180821
0.000967337
0.00178986
0.00225074
0.00159127
0.000913538
0.000531129
0.00112851
0.00107461
0.00137514
0.00104981
0.00173769
0.00157074
0.00181537
0.000785159
0.00138485
0.00113657
0.00145304
0.00213839
0.00106598
0.000969608
0.000970319
0.000762519
0.00101151
0.00148574
0.00163407
0.000776123
0.000849358
0.000716376
0.000712708
0.000979666
0.00129238
0.0010781
0.000852739
0.000848606
0.00137612
0.000757882
0.00292713
0.0009001
0.000909587
0.000324158
0.00168944
0.00236615
0.000338741
0.00215808
0.0110146
0.0019214
0.00192435
0.0010317
0.00124831
0.000644872
0.00106266
0.00137136
0.000489738
0.00164718
0.00102131
0.000879747
0.000367341
0.00163882
0.00118055
0.00128265
0.000681428
0.00139205
0.000823408
0.000823997
0.00223616
0.00140144
0.000639537
0.000649728
0.00301741
0.000808172
0.000798838
0.00192919
0.000744065
0.00111313
0.00110815
0.0101536
0.000894953
0.000882024
0.00116042
0.00190457
0.00109047
0.00178192
0.00211943
0.00160841
0.00106657
0.00137405
0.00209925
0.00099297
0.000730507
0.000973513
0.00162756
0.00142763
0.00155911
0.000730108
0.00181099
0.00190911
0.000795882
0.00292067
0.00160966
0.000952855
0.00205895
0.00220305
0.00230394
0.00145486
0.000766718
0.00154602
0.00153766
0.00443357
0.000759419
0.0016438
0.00101412
0.000537238
0.00183521
0.00103557
0.000975917
0.000298855
0.00103816
0.00103894
0.00196387
0.00133929
0.000797278
0.000797894
0.000801096
0.00113145
0.00179571
0.000830471
0.00113793
0.000707198
0.00134039
0.00203637
0.00184456
0.00188353
0.000373115
0.000341048
0.00184438
0.00209046
0.000766779
0.000371621
0.000321244
0.00078881
0.000388065
0.00111975
0.00093469
0.00163755
0.000905667
0.00224887
0.000398212
0.0011128
0.000426678
0.000871378
0.0020791
0.00214139
0.00182999
0.00117793
0.0016038
0.0031962
0.00197249
0.00129246
0.00127564
0.000732757
0.000528374
0.00153364
0.000531342
0.00102902
0.00122411
0.001644
0.000978647
0.000775272
0.00142943
0.00142085
0.00129563
0.0014247
0.00133256
0.0014442
0.0013063
0.00114893
0.00168282
0.00162537
0.00161099
0.00165095
0.00190086
0.0020036
0.00186876
0.000807305
0.000615131
0.00179756
0.00176492
0.00338418
0.00158194
0.000846318
0.00268578
0.00082488
0.00105545
0.000347934
0.000970686
0.00163779
0.00173815
0.000445004
0.00157288
0.000731015
0.000420815
0.000410609
0.00188781
0.000755706
0.00135696
0.00182899
0.00239709
0.000927834
0.00176583
0.00128212
0.000980498
0.00118159
0.00205167
0.000972702
0.00123581
0.000957175
0.000743526
0.000404515
0.00184785
0.000727106
0.00124629
0.000722318
0.00118633
0.000711173
0.00119392
0.00120009
0.000738773
0.000466509
0.000671666
0.000976249
0.000735101
0.000738564
0.00111991
0.000428088
0.000514482
0.00127189
0.000857004
0.000383253
0.00095764
0.00259387
0.00094614
0.00197876
0.000964928
0.00181273
0.00205551
0.000863156
0.00226496
0.00235891
0.00100206
0.00184121
0.00114619
0.00208255
0.00223955
0.000993823
0.00108364
0.00106128
0.0007949
0.000559434
0.00216226
0.00233068
0.00185823
0.000569963
0.00178542
0.000935284
0.000740621
0.000819894
0.000914472
0.00153959
0.0010621
0.00102434
0.00171769
0.00168033
0.00102802
0.0010069
0.00206882
0.00166647
0.00204601
0.0011588
0.000331904
0.000662857
0.000913473
0.00135147
0.00135249
0.000759843
0.000867124
0.000864671
0.00129712
0.000830058
0.000844562
0.000848415
0.00135869
0.000871153
0.000804563
0.00112162
0.00144484
0.000994161
0.000988596
0.00127006
0.000636515
0.00101087
0.00100659
0.00769428
0.00105505
0.000745595
0.00090997
0.000511395
0.000597912
0.000968584
0.00127224
0.00191217
0.00127736
0.000594537
0.0026977
0.00148983
0.00117477
0.000739022
0.00116041
0.000748718
0.000922201
0.000855173
0.00192
0.0012678
0.000638001
0.00134095
0.0015806
0.00194572
0.00157061
0.00188744
0.00187057
0.00180709
0.000903019
0.000506844
0.00965754
0.00297314
0.00210922
0.00134513
0.00201035
0.000506074
0.000983394
0.000891926
0.000893743
0.000619639
0.0009088
0.000762435
0.00536157
0.00148184
0.00115757
0.00113648
0.00174001
0.000784252
0.000955875
0.00116529
0.00073828
0.00257343
0.00193772
0.00101849
0.000379161
0.00193642
0.00176093
0.00132839
0.0021495
0.000465927
0.00324778
0.00184268
0.000808211
0.00134536
0.00106563
0.00194226
0.000622293
0.000653167
0.00190579
0.0010172
0.00101838
0.00203001
0.000513262
0.00106392
0.0019813
0.00064996
0.00190473
0.000822703
0.000906879
0.0018569
0.00102739
0.000302724
0.000912355
0.000384373
0.000903977
0.000897783
0.000858016
0.000664605
0.00174476
0.00096559
0.00059692
0.00171469
0.00171083
0.00122863
0.00120323
0.000523307
0.000534829
0.00257774
0.00190026
0.00207619
0.00120517
0.000809746
0.00190037
0.000768444
0.000347736
0.000793118
0.00116516
0.000709965
0.00181116
0.000970885
0.00113157
0.00113526
0.00143656
0.00202
0.00189642
0.000786426
0.00139924
0.00120283
0.000688787
0.00204269
0.00120512
0.000828218
0.00131099
0.000857272
0.00142727
0.00144055
0.00362755
0.000588199
0.000818992
0.000812508
0.00848024
0.00907269
0.000793519
0.00101398
0.00115585
0.000699903
0.00176441
0.000609193
0.00101361
0.00202451
0.00110384
0.000736146
0.00159403
0.00174082
0.0005796
0.00112349
0.00156704
0.00112901
0.00189272
0.00875653
0.00101851
0.00105034
0.000459984
0.000984686
0.00187429
0.00125357
0.00125644
0.00205181
0.000489694
0.00205601
0.000739954
0.0022673
0.00131541
0.00231933
0.00128095
0.00110389
0.000621313
0.00144844
0.00224083
0.000857303
0.00205581
0.00103079
0.00169084
0.00121467
0.0010408
0.000939697
0.000941572
0.000747897
0.00108474
0.00194179
0.00138217
0.00114379
0.000725971
0.000915272
0.00101873
0.00203807
0.00136276
0.00178555
0.00188683
0.00137389
0.000893381
0.000935078
0.000759921
0.000794747
0.00079307
0.000909191
0.00170188
0.0009222
0.00195982
0.00189356
0.00174155
0.000834349
0.000835499
0.00187438
0.00112867
0.00071517
0.00175414
0.00121909
0.000927082
0.00176956
0.000996302
0.00091609
0.00169576
0.00197123
0.00190708
0.00145876
0.00142238
0.00292632
0.00114419
0.001741
0.00156448
0.00286238
0.00130765
0.00128404
0.0011494
0.000773968
0.00156138
0.00121951
0.000727175
0.000725226
0.00113433
0.00181563
0.00100485
0.000756866
0.000774211
0.000861354
0.0102464
0.00132674
0.00170111
0.000547625
0.000551906
0.00125986
0.000732604
0.00102712
0.00361668
0.00103662
0.000685777
0.000822937
0.000843798
0.000947444
0.00128676
0.000915044
0.0013713
0.000539051
0.00164736
0.00200682
0.00155836
0.000714174
0.000702244
0.00102916
0.00195311
0.000999673
0.00209224
0.00109705
0.0010814
0.00168356
0.00172468
0.00103042
0.000334496
0.000475236
0.00440058
0.000718987
0.00102287
0.000852515
0.000946862
0.00166782
0.00094099
0.000804801
0.0011798
0.000752269
0.000428917
0.00103174
0.00216628
0.00102404
0.00192866
0.000840783
0.000768763
0.00175453
0.00153507
0.00116992
0.00156073
0.00160078
0.00212984
0.00162167
0.00157692
0.00173419
0.000675925
0.00114109
0.00103568
0.000792415
0.000900875
0.0016905
0.00147822
0.00136014
0.00071828
0.000802416
0.000832263
0.00175062
0.00133745
0.00133035
0.00109402
0.000767903
0.000660907
0.000635118
0.000899823
0.000621742
0.000492214
0.000822649
0.00116833
0.0014055
0.00483884
0.000438405
0.000901141
0.000536108
0.000321482
0.000707316
0.00165349
0.0023271
0.00126486
0.00139026
0.000895921
0.00172192
0.000753412
0.0005989
0.00182031
0.000352147
0.000784612
0.000804214
0.00211694
0.00153455
0.00120127
0.00201212
0.000612549
0.000827542
0.000885318
0.00187105
0.00154654
0.00130087
0.0020466
0.00394088
0.000712434
0.00102422
0.00180614
0.00142108
0.00056623
0.00199611
0.00118813
0.000784246
0.00085447
0.000591646
0.00105893
0.000843909
0.00229595
0.00096616
0.000960036
0.00062564
0.000642822
0.000958421
0.000804287
0.000802148
0.000825019
0.00187849
0.00183916
0.0019076
0.00093883
0.00124123
0.00192628
0.00174869
0.00176042
0.00146297
0.000599052
0.00062017
0.00163161
0.00208091
0.00148879
0.00115525
0.000708856
0.00100678
0.00150548
0.00196507
0.00510131
0.00181104
0.00176108
0.00205416
0.00181511
0.000603579
0.0010326
0.00145737
0.00221967
0.00101494
0.00193601
0.00091265
0.000769088
0.000775991
0.00077792
0.000717164
0.00170506
0.00154875
0.00158121
0.000829113
0.00152377
0.00136372
0.000811225
0.00155458
0.00211161
0.000976895
0.000870239
0.00118091
0.00071446
0.000918739
0.000878116
0.00156338
0.00136975
0.0010739
0.0018141
0.00107228
0.00103993
0.000717522
0.00141392
0.00191069
0.00067652
0.000691012
0.00102991
0.00102905
0.00108144
0.00160408
0.00205422
0.00177597
0.000402929
0.000892345
0.000887297
0.00136952
0.00155581
0.00250982
0.000881566
0.00184787
0.00126326
0.00143528
0.0013049
0.00179904
0.0008803
0.00092626
0.000923839
0.00185435
0.000765425
0.000752794
0.00195495
0.000871717
0.00147365
0.000273343
0.000765128
0.00135641
0.00181491
0.00121899
0.000869167
0.00102597
0.00182495
0.00138879
0.000854415
0.00142563
0.00167748
0.00102006
0.00035867
0.000914328
0.00130368
0.000567998
0.00963655
0.00083527
0.000751001
0.000677224
0.00131899
0.00319268
0.0026814
0.00170492
0.00104923
0.000745173
0.00135578
0.00140857
0.000998168
0.000765963
0.00158215
0.00158467
0.000948655
0.000464227
0.000908117
0.00137573
0.00138003
0.00162877
0.00204071
0.00107001
0.0010576
0.000584992
0.00207105
0.00107464
0.00216543
0.00101053
0.000993192
0.00101634
0.00213841
0.00104909
0.00109216
0.00197417
0.00237374
0.0011641
0.000798661
0.00170492
0.00194589
0.000607829
0.00125838
0.00117416
0.000727367
0.000908232
0.00436287
0.00110363
0.000742278
0.00220936
0.00123821
0.000702404
0.00113734
0.00113547
0.00056101
0.00153358
0.000713752
0.00114041
0.0011968
0.000753276
0.000756458
0.0010076
0.00113168
0.000523667
0.00129007
0.00120968
0.00120108
0.00159901
0.000811797
0.00475419
0.00165484
0.00103706
0.000755808
0.00171749
0.00104777
0.00103012
0.00365357
0.00150051
0.00126811
0.00128678
0.000516511
0.000725107
0.00102085
0.00139529
0.00151523
0.00152563
0.000803732
0.00139753
0.00202737
0.0016261
0.0018503
0.0011721
0.00107986
0.00133095
0.00108338
0.0010708
0.00108708
0.00236485
0.00110772
0.00204369
0.00120104
0.000681469
0.00104568
0.000741366
0.0027861
0.00143132
0.000813775
0.00119848
0.00141293
0.000987419
0.00141604
0.002072
0.00108962
0.00138516
0.00143098
0.000755444
0.000570879
0.00111913
0.00209677
0.00100371
0.00125472
0.00058068
0.00157683
0.00175254
0.000867361
0.00167252
0.0010285
0.00163179
0.00104294
0.0013894
0.00159131
0.00111794
0.000732046
0.00113153
0.000898445
0.000622709
0.00180664
0.00157721
0.00101163
0.000473238
0.00126864
0.000838845
0.00260697
0.00154439
0.00251633
0.00149656
0.00158295
0.000840612
0.00167975
0.00103852
0.00114394
0.00122311
0.00147675
0.00182725
0.000747547
0.000883699
0.00106254
0.000742921
0.000812457
0.00219052
0.000962764
0.000924451
0.000667166
0.00121216
0.00071756
0.000862867
0.00198655
0.000872648
0.00142722
0.00100778
0.000877705
0.00128505
0.00160591
0.000662178
0.00224017
0.00144389
0.001274
0.000937514
0.00160905
0.000904006
0.00070851
0.00102479
0.000687393
0.00103037
0.00184967
0.000808693
0.00171588
0.0012911
0.000999898
0.00091925
0.0020511
0.00138968
0.00173669
0.000844475
0.00105535
0.000897768
0.00123488
0.000718674
0.000910576
0.00123676
0.000702233
0.00150929
0.00121038
0.00125606
0.000700371
0.000899848
0.000854804
0.00188781
0.00185069
0.00192504
0.00205427
0.000830041
0.0017577
0.00202049
0.00101268
0.0010057
0.00107236
0.00106171
0.00138261
0.00110661
0.000903731
0.00194734
0.000986768
0.000819645
0.00128019
0.00123597
0.000678807
0.000906097
0.000789448
0.00078426
0.00202781
0.00140918
0.00381275
0.00104625
0.000484337
0.000491411
0.000824881
0.00113615
0.00114199
0.000904664
0.00206523
0.000833655
0.00234426
0.000918834
0.00103838
0.000599164
0.00197645
0.000936978
0.00049918
0.00131472
0.00134062
0.00191767
0.00335608
0.00140323
0.00139934
0.000467731
0.00047203
0.00231754
0.00181563
0.00206142
0.00119714
0.000738254
0.00103086
0.00150227
0.000905468
0.00100297
0.000975657
0.00630384
0.000511482
0.00223456
0.000739131
0.0019831
0.00258212
0.00107646
0.000794729
0.000799959
0.00115315
0.00070432
0.00110939
0.00173477
0.00185618
0.00131577
0.000486625
0.00134356
0.000857819
0.00161083
0.00112686
0.000854766
0.000861119
0.00180135
0.00125932
0.00124872
0.00164032
0.000786567
0.00140964
0.00093079
0.00160517
0.00160507
0.00109138
0.00115135
0.00129914
0.000914579
0.00114133
0.00114666
0.00145543
0.000769473
0.00144343
0.0018775
0.00116962
0.00117164
0.00190669
0.00108032
0.00322284
0.00106262
0.00111431
0.00344919
0.000377749
0.000979093
0.000462669
0.000740278
0.000579985
0.000659314
0.000474011
0.00113491
0.000711016
0.000741756
0.00199686
0.00099487
0.00196628
0.00119067
0.000693463
0.00140923
0.00121851
0.00122628
0.00124025
0.00145773
0.0011687
0.00186398
0.00199624
0.00141991
0.00104334
0.000431832
0.00107357
0.00095228
0.00197299
0.000676709
0.00545196
0.000799123
0.00109555
0.00109288
0.00187274
0.00184674
0.00180827
0.000418843
0.000843065
0.000916061
0.00138575
0.00147764
0.00156149
0.0009802
0.000971737
0.000972303
0.00113414
0.0051032
0.000576709
0.00179989
0.000916049
0.000917352
0.000718964
0.00155061
0.000743332
0.000752009
0.00109593
0.00102592
0.00132451
0.00136882
0.000872733
0.000897776
0.000632004
0.00109188
0.00319441
0.00119076
0.000782448
0.00111934
0.00113441
0.000891931
0.000865702
0.00141901
0.000801415
0.00203006
0.00186133
0.00136535
0.00103274
0.000888597
0.000958381
0.000877955
0.000797357
0.00110292
0.00145671
0.00130159
0.00134282
0.00125856
0.00122643
0.000917516
0.000988651
0.000795518
0.00271281
0.0013201
0.00147271
0.00027544
0.00341173
0.00060646
0.000849467
0.00117731
0.000699059
0.00122382
0.000665441
0.00568189
0.00119203
0.0015917
0.00162769
0.00115659
0.00109884
0.00181266
0.00306316
0.0010302
0.000407655
0.00168742
0.00123639
0.00612017
0.00131044
0.000920983
0.00172334
0.00128301
0.00124091
0.000698875
0.00100205
0.00196873
0.00241336
0.000941232
0.00053043
0.00590234
0.0010978
0.000442992
0.00145126
0.000570718
0.00119485
0.000692652
0.00108813
0.00174381
0.00090237
0.00108359
0.00194969
0.00124638
0.000881626
0.00107169
0.000950813
0.00390413
0.00194757
0.00116159
0.00225297
0.00132955
0.000952696
0.000591501
0.00129556
0.00144916
0.00199231
0.00181507
0.00263016
0.00207007
0.00159071
0.000968768
0.00103307
0.000799717
0.00103166
0.00078869
0.000793431
0.000355944
0.00121305
0.000735484
0.00525867
0.00182589
0.00183717
0.00296791
0.00161328
0.000812464
0.00103757
0.0012424
0.000852862
0.000712128
0.00102801
0.00104375
0.00119357
0.00220881
0.00115979
0.000695308
0.00119856
0.000631654
0.00151964
0.0010245
0.000709504
0.00169744
0.00048067
0.000734176
0.00125921
0.00111623
0.000627488
0.000663313
0.00209653
0.000718185
0.0010301
0.000868529
0.00127198
0.00161863
0.00122356
0.000840495
0.000944426
0.0015458
0.00188772
0.00113804
0.000682074
0.000958488
0.000732383
0.00187883
0.000673626
0.00103256
0.00164353
0.00157119
0.00167647
0.00126394
0.000635399
0.000862996
0.00289776
0.000812055
0.000901055
0.00105239
0.000512385
0.00849678
0.00083341
0.00104851
0.000489325
0.00306723
0.00129184
0.000901987
0.000817126
0.00111516
0.00110828
0.000854139
0.0020998
0.00150706
0.00127831
0.000587974
0.000616231
0.00137232
0.000850983
0.00102031
0.0017371
0.000968211
0.000976607
0.00212274
0.00136731
0.000748478
0.00159193
0.00029604
0.0022135
0.000949978
0.00185508
0.00193506
0.00156001
0.0015595
0.00177101
0.00122296
0.00190804
0.00184601
0.00140783
0.00173389
0.00192413
0.00131374
0.000829314
0.00073642
0.00196163
0.00191082
0.00200725
0.00102925
0.00110144
0.00209858
0.00149873
0.000833638
0.000833997
0.000843243
0.000961106
0.000937079
0.0016647
0.00152541
0.00107108
0.00107327
0.00132355
0.000915027
0.00201547
0.00156441
0.000862371
0.000826705
0.00204772
0.0014141
0.00139789
0.000404378
0.00125876
0.000809334
0.00080197
0.00101021
0.00100025
0.000746477
0.000839726
0.000639178
0.000511011
0.000823355
0.00238424
0.0016471
0.000796623
0.001751
0.00200584
0.00200443
0.00209608
0.00895759
0.00199181
0.00111679
0.0013583
0.000847216
0.00131386
0.000292072
0.00113397
0.00145079
0.00144896
0.000998726
0.00153303
0.00034344
0.000241075
0.00160143
0.000332898
0.00205011
0.000658074
0.000950683
0.000736404
0.00142287
0.00113731
0.00212733
0.00100272
0.00157549
0.000885957
0.00104303
0.00157251
0.00188314
0.000580217
0.00287819
0.00161419
0.0012479