/*--------------------------------*- C++ -*----------------------------------*\
| =========                 |                                                 |
| \\      /  F ield         | OpenFOAM: The Open Source CFD Toolbox           |
|  \\    /   O peration     | Version:  v2012                                 |
|   \\  /    A nd           | Website:  www.openfoam.com                      |
|    \\/     M anipulation  |                                                 |
\*---------------------------------------------------------------------------*/
FoamFile
{
    version     2.0;
    format      ascii;
    class       pointSymmTensorField;
    location    "13";
    object      pEpsilon;
}
// * * * * * * * * * * * * * * * * * * * * * * * * * * * * * * * * * * * * * //

dimensions      [0 0 0 0 0 0 0];


internalField   nonuniform List<symmTensor> 
7900
(
(0.000858005 1.19383e-05 4.03106e-15 -0.00225217 0 0)
(0.0010109 -5.72238e-06 1.48319e-15 -2.65677e-05 0 0)
(0.00121574 8.00123e-07 -4.03106e-15 -0.000521711 -1.07065e-15 0)
(0.000629941 7.89642e-05 0 -0.00032222 -1.69786e-15 0)
(0.01089 -0.000190688 0 -0.00876007 2.53009e-14 0)
(0.000858005 1.19383e-05 4.03106e-15 -0.00225217 0 0)
(0.0010109 -5.72238e-06 1.48319e-15 -2.65677e-05 0 0)
(0.00121574 8.00123e-07 -4.03106e-15 -0.000521711 -1.07065e-15 0)
(0.000629941 7.89642e-05 0 -0.00032222 -1.69786e-15 0)
(0.01089 -0.000190688 0 -0.00876007 2.53009e-14 0)
(0.000708444 -5.0204e-06 -1.49837e-15 -0.00186774 0 0)
(0.000539853 -1.75681e-05 1.75424e-15 -0.00149958 0 0)
(0.000421637 -3.67532e-05 -1.24683e-15 -0.0012672 0 0)
(0.000317036 -4.11042e-05 1.09504e-15 -0.0010287 0 0)
(0.000245501 -2.85519e-05 3.36103e-16 -0.000842853 0 0)
(0.000209383 -2.62486e-05 2.53703e-16 -0.000702511 0 0)
(0.000188046 -2.74349e-05 4.33681e-17 -0.000588992 0 0)
(0.000181602 -2.77573e-05 -6.93889e-17 -0.000499664 0 0)
(0.000179047 -3.12918e-05 1.51788e-16 -0.000417614 0 0)
(0.000181139 -4.46134e-05 1.60462e-16 -0.000347514 0 0)
(0.000187282 -3.36894e-05 2.05998e-16 -0.000285015 0 0)
(0.000214078 -3.40083e-05 1.19262e-16 -0.00024637 0 0)
(0.00022965 -4.1704e-05 5.85469e-17 -0.000207616 0 0)
(0.000250787 -3.14069e-05 1.73472e-17 -0.000177284 0 0)
(0.00027746 -3.83362e-05 -4.98733e-17 -0.000155833 0 0)
(0.000299007 -2.88192e-05 -1.45283e-16 -0.000134893 0 0)
(0.000326528 -2.29194e-05 9.1073e-17 -0.000116277 0 0)
(0.000353943 -2.59668e-05 1.99493e-16 -0.000102889 0 0)
(0.000378714 -2.20113e-05 1.27936e-16 -9.16223e-05 0 0)
(0.000407614 -2.48566e-05 1.71304e-16 -8.57355e-05 0 0)
(0.000438525 -2.44527e-05 -4.64039e-16 -8.30832e-05 0 0)
(0.000461304 -2.26441e-05 -8.5652e-16 -7.91505e-05 0 0)
(0.000491567 -2.23937e-05 -4.77049e-16 -7.73958e-05 0 0)
(0.000514805 -2.17711e-05 -7.54605e-16 -7.75974e-05 0 0)
(0.000544655 -2.02904e-05 -7.17742e-16 -8.04229e-05 0 0)
(0.000568694 -1.6691e-05 -5.5728e-16 -8.19458e-05 0 0)
(0.000594304 -1.90165e-05 -3.29597e-16 -8.52593e-05 0 0)
(0.000623142 -1.73717e-05 -3.05745e-16 -8.94997e-05 0 0)
(0.000645311 -1.71228e-05 -5.48606e-16 -9.57062e-05 0 0)
(0.000673104 -1.6865e-05 -6.5269e-16 -0.000101529 0 0)
(0.000693311 -1.58311e-05 -1.25984e-15 -0.00010749 0 0)
(0.000718628 -1.59983e-05 -9.34582e-16 -0.000113036 0 0)
(0.000743729 -1.39716e-05 -2.07733e-15 -0.000120444 0 0)
(0.000763857 -1.24649e-05 -1.11022e-15 -0.000128595 0 0)
(0.000788288 -1.21609e-05 3.07913e-16 -0.000133914 0 0)
(0.000808328 -9.5601e-06 -1.6263e-16 -0.000140966 0 0)
(0.000826036 -8.29339e-06 1.56342e-15 -0.000147545 0 0)
(0.000845942 -9.95172e-06 1.34441e-15 -0.000152694 0 0)
(0.000865323 -1.1574e-05 1.57643e-15 -0.000159296 0 0)
(0.000884886 -1.14412e-05 -1.40946e-15 -0.000165767 0 0)
(0.00090224 -9.80232e-06 -8.0231e-16 -0.000171474 0 0)
(0.000919228 -8.84794e-06 3.18755e-16 -0.00017528 0 0)
(0.000932364 -9.73506e-06 2.79074e-15 -0.000178857 0 0)
(0.000948379 -1.06531e-05 3.43258e-15 -0.000182232 0 0)
(0.000964151 -9.46152e-06 -2.37223e-15 -0.000185055 0 0)
(0.000976554 -7.09241e-06 9.1073e-17 -0.000186457 0 0)
(0.000986234 -6.8138e-06 -4.25007e-16 -0.000186013 0 0)
(0.0009984 -7.27916e-06 1.32923e-15 -0.000185401 0 0)
(0.00100751 -8.321e-06 -2.13371e-15 -0.000182589 0 0)
(0.00101485 -7.01558e-06 -1.63281e-15 -0.000177969 0 0)
(0.00102203 -7.64063e-06 -3.79471e-16 -0.000172564 0 0)
(0.00102799 -7.48524e-06 -1.56125e-16 -0.000166306 0 0)
(0.00103111 -6.00866e-06 -8.82541e-16 -0.0001567 0 0)
(0.00103373 -5.47608e-06 -1.13191e-15 -0.000146215 0 0)
(0.00103377 -4.86383e-06 -5.20417e-17 -0.000131374 0 0)
(0.0010339 -5.62188e-06 -6.50521e-17 -0.000117172 0 0)
(0.00102807 -8.48611e-06 -4.53197e-16 -9.65975e-05 0 0)
(0.00101997 -4.90527e-06 1.65232e-15 -7.40263e-05 0 0)
(0.00101441 -4.11679e-06 2.32887e-15 -5.11273e-05 0 0)
(0.00101008 -2.04456e-06 2.4156e-15 -2.51068e-05 9.09388e-16 0)
(0.00100086 -2.71293e-06 3.98553e-15 -2.32727e-05 -7.37521e-16 0)
(0.00101899 -3.45352e-06 2.2031e-15 -3.41454e-05 1.63027e-15 0)
(0.00101507 -2.87298e-06 2.42428e-15 -3.60171e-05 -1.77718e-16 0)
(0.00101965 -3.3691e-06 1.81712e-15 -4.72087e-05 2.62136e-17 0)
(0.00102298 -8.47114e-06 -1.51788e-16 -5.54378e-05 -2.85356e-15 0)
(0.00102603 -5.49229e-06 -3.16587e-15 -6.39042e-05 -4.33617e-16 0)
(0.00103091 -8.27559e-06 -2.22478e-15 -7.69734e-05 1.42624e-15 0)
(0.00103921 -9.94916e-06 -1.40079e-15 -8.9931e-05 -2.35856e-16 0)
(0.00104285 -5.3416e-06 -3.48246e-15 -0.000102793 1.07351e-15 0)
(0.00104989 -6.4087e-06 -2.7452e-15 -0.000122005 -9.03039e-16 0)
(0.00105718 -1.0135e-05 -1.30972e-15 -0.000138865 -7.9699e-16 0)
(0.00106197 -7.64574e-06 -3.29597e-16 -0.00015367 -8.10373e-16 0)
(0.00107236 -9.60116e-06 5.11743e-16 -0.000176456 -2.47927e-16 0)
(0.00108113 -1.26435e-05 9.15067e-16 -0.000196652 -1.48609e-15 0)
(0.00108578 -1.16833e-05 -2.83627e-15 -0.000213408 -1.25232e-15 0)
(0.00109534 -1.29777e-05 -3.30031e-15 -0.00023619 -2.17315e-16 0)
(0.00110759 -1.51609e-05 -7.58942e-16 -0.000259535 1.18835e-15 0)
(0.00111295 -1.2186e-05 -3.20707e-15 -0.000278137 -5.31259e-16 0)
(0.00112468 -1.12167e-05 -3.9942e-15 -0.000302125 2.82807e-16 0)
(0.00113164 -1.10909e-05 5.85469e-16 -0.000322813 7.31091e-16 0)
(0.00113842 -1.30247e-05 2.9989e-15 -0.000343655 9.92113e-16 0)
(0.00115062 -1.32048e-05 7.76289e-16 -0.000367132 1.16457e-15 0)
(0.00115995 -1.28404e-05 3.5345e-15 -0.000388349 1.29149e-15 0)
(0.00116453 -1.02839e-05 3.29381e-15 -0.000405023 3.13124e-15 0)
(0.00117488 -8.86376e-06 3.72966e-16 -0.000425982 -1.56816e-15 0)
(0.0011819 -7.32e-06 5.81132e-16 -0.000445155 1.11795e-15 0)
(0.00118619 -8.35567e-06 1.52873e-15 -0.000458964 1.27841e-15 0)
(0.00119367 -6.66682e-06 -2.01662e-16 -0.000474947 2.06269e-16 0)
(0.00119915 -7.02541e-06 1.94723e-15 -0.000488627 -2.43674e-16 0)
(0.00120496 -5.17875e-06 2.51969e-15 -0.000500982 -9.85269e-16 0)
(0.00120734 -4.5988e-06 2.06649e-15 -0.00050954 1.92256e-15 0)
(0.00121254 -3.13809e-06 1.13624e-15 -0.000518844 3.87196e-16 0)
(0.00121419 -3.68836e-06 4.85723e-16 -0.000523342 2.52592e-15 0)
(0.00121621 -7.45211e-07 2.92301e-15 -0.00052637 6.52554e-16 0)
(0.00121739 2.13005e-07 3.27212e-15 -0.000528598 4.29209e-16 0)
(0.00121608 7.97998e-07 -4.21538e-15 -0.000526723 -5.5484e-16 0)
(0.00121831 1.47824e-06 -2.5804e-15 -0.000525617 -1.00533e-15 0)
(0.00121679 1.04133e-06 -3.31332e-15 -0.000523134 2.18738e-16 0)
(0.00121418 1.12299e-06 -2.75171e-15 -0.000520664 7.0446e-16 0)
(0.00121191 1.62985e-06 -2.10986e-15 -0.000519952 -3.8706e-16 0)
(0.0012107 6.54444e-07 -5.23453e-15 -0.000520939 -1.63172e-16 0)
(0.00120912 1.02095e-08 -3.75134e-16 -0.000519871 -8.74951e-16 0)
(0.00121008 -1.39207e-06 1.5786e-15 -0.000521498 -3.91858e-15 0)
(0.00121287 -1.1604e-06 7.78457e-16 -0.000522314 -1.53116e-15 0)
(0.00121891 -3.47533e-06 2.27682e-16 -0.00052592 3.20924e-16 0)
(0.00122541 -4.49686e-06 3.75568e-15 -0.000526977 1.04083e-15 0)
(0.00123722 -6.10536e-06 1.16443e-15 -0.000534037 -2.88127e-16 0)
(0.00124751 -6.64972e-06 2.38958e-15 -0.000537814 8.84709e-16 0)
(0.00126239 -7.88751e-06 2.40042e-15 -0.000546061 1.18178e-15 0)
(0.00127674 -7.24252e-06 -2.01662e-16 -0.000548919 1.28749e-15 0)
(0.00129534 -9.41876e-06 7.04731e-16 -0.000559348 -1.27285e-15 0)
(0.00131132 -8.87905e-06 1.92121e-15 -0.000563708 -6.966e-16 0)
(0.00133312 -1.09345e-05 3.26128e-15 -0.000571649 -6.89824e-16 0)
(0.00135823 -1.32262e-05 1.73039e-15 -0.000584505 1.34821e-15 0)
(0.00138249 -1.45902e-05 5.25404e-15 -0.000595149 -3.8191e-16 0)
(0.00140364 -1.26409e-05 2.28983e-15 -0.000601633 6.68682e-16 0)
(0.00143171 -1.39768e-05 3.07263e-15 -0.000613771 8.39986e-16 0)
(0.00145938 -1.65648e-05 -4.10262e-15 -0.000624395 -1.69515e-15 0)
(0.00149092 -1.70998e-05 2.82977e-15 -0.00063933 -1.00804e-15 0)
(0.0015228 -1.75511e-05 1.9082e-15 -0.00065141 3.31766e-16 0)
(0.00155288 -2.37874e-05 -3.56269e-15 -0.000664218 3.06694e-15 0)
(0.00158419 -1.60788e-05 -5.2367e-15 -0.000677274 -1.53957e-15 0)
(0.00162212 -1.47037e-05 -3.2461e-15 -0.000694656 -6.91721e-16 0)
(0.00165295 -1.84592e-05 1.58294e-15 -0.000703285 -1.37396e-15 0)
(0.00169303 -1.78207e-05 -2.7929e-15 -0.000723829 -2.48824e-16 0)
(0.00172544 -2.18229e-05 -1.04517e-15 -0.000732208 9.87979e-16 0)
(0.00176757 -1.87751e-05 6.59412e-15 -0.000754604 1.45175e-15 0)
(0.0018045 -2.22616e-05 -1.12757e-16 -0.000764173 3.41063e-15 0)
(0.00184716 -1.77892e-05 -2.49583e-15 -0.00078677 5.32804e-15 0)
(0.00188291 -2.09505e-05 -9.94213e-15 -0.000795898 3.34151e-15 0)
(0.0019338 -2.01188e-05 -5.99997e-15 -0.000823684 5.79858e-15 0)
(0.00197086 -2.94206e-05 -5.69206e-15 -0.000835535 -5.95769e-16 0)
(0.0020173 -2.29503e-05 6.16911e-15 -0.000857325 -4.658e-15 0)
(0.00205637 -2.62347e-05 4.50161e-15 -0.000864683 -4.26091e-15 0)
(0.00210407 -2.53148e-05 2.83844e-15 -0.000892243 5.30554e-15 0)
(0.00214177 -2.72878e-05 -4.30428e-15 -0.000904104 -6.63261e-16 0)
(0.00219454 -1.9727e-05 -5.25404e-15 -0.00093174 2.52321e-15 0)
(0.00223781 -2.20475e-05 -9.39353e-15 -0.0009477 -1.56992e-15 0)
(0.00227319 -2.67981e-05 -8.39389e-15 -0.000954694 -2.50722e-15 0)
(0.00232674 -1.98255e-05 -4.90493e-15 -0.000984766 1.56288e-15 0)
(0.00236039 -2.79176e-05 -1.379e-14 -0.000992106 7.0446e-15 0)
(0.00239819 -2.47693e-05 4.54281e-16 -0.00101086 4.526e-15 0)
(0.00244809 -1.48705e-05 -1.61394e-14 -0.00103336 4.87837e-15 0)
(0.0024809 -2.80275e-05 -1.23924e-15 -0.00104609 -1.05547e-15 0)
(0.00250572 -1.76101e-05 -9.12248e-15 -0.00105195 2.189e-15 0)
(0.00254939 -8.32917e-06 1.33877e-14 -0.0010754 3.94433e-15 0)
(0.00256828 -1.61696e-05 1.59204e-14 -0.00107936 2.04481e-15 0)
(0.00260263 2.29836e-06 -7.73145e-15 -0.00110092 2.95825e-15 0)
(0.00264475 4.68206e-06 -1.32164e-14 -0.00112123 9.39732e-15 0)
(0.00269718 1.39579e-05 -3.14419e-15 -0.00116783 5.81674e-16 0)
(0.0027318 -1.39877e-05 -6.84674e-15 -0.00120441 6.66839e-15 0)
(0.00273248 -1.43717e-05 -4.26091e-16 -0.0011994 -8.3863e-15 0)
(0.00273481 -7.06568e-06 1.05276e-14 -0.00119144 -9.2309e-15 0)
(0.0027143 -6.14151e-06 1.63172e-15 -0.00113724 -5.67038e-15 0)
(0.00273687 7.44705e-06 4.49185e-15 -0.0011923 3.76327e-15 0)
(0.00275684 7.95263e-10 -7.19314e-15 -0.00123908 3.19948e-15 0)
(0.00267863 -1.90037e-05 7.0484e-15 -0.00110828 7.04731e-17 0)
(0.00264605 1.00933e-05 7.71952e-16 -0.0011141 -1.12432e-15 0)
(0.00262422 1.10703e-05 -1.15733e-14 -0.00110865 -4.17526e-15 0)
(0.0025765 2.6552e-05 -6.4407e-15 -0.00108538 3.47378e-15 0)
(0.00252197 3.77285e-05 -1.56667e-16 -0.00106492 -2.5533e-15 0)
(0.00245094 5.17409e-05 -7.02346e-15 -0.00103514 3.02926e-15 0)
(0.00237211 6.28678e-05 -3.40439e-16 -0.000998492 7.96889e-16 0)
(0.0022741 5.8472e-05 -2.17735e-15 -0.000969794 3.87711e-15 0)
(0.00213752 7.47498e-05 -1.15034e-15 -0.000912804 3.89662e-15 0)
(0.00201762 9.62526e-05 -7.10884e-15 -0.000880802 -7.95804e-16 0)
(0.00185358 9.1349e-05 -5.9314e-15 -0.000806988 -4.91144e-16 0)
(0.00167753 8.54219e-05 1.99751e-15 -0.000740303 -1.89735e-16 0)
(0.00153213 0.000110706 3.19148e-15 -0.000699167 -1.9082e-15 0)
(0.00138661 9.99519e-05 -1.64799e-15 -0.000639948 -1.25767e-16 0)
(0.00119424 7.42379e-05 1.16823e-16 -0.000555706 1.44416e-15 0)
(0.00106825 0.000106116 -4.46895e-16 -0.000521855 9.1073e-16 0)
(0.000964713 6.93231e-05 2.77691e-15 -0.000490017 1.51788e-17 0)
(0.000791797 4.10368e-05 4.0128e-15 -0.000400604 -9.73614e-16 0)
(0.000730265 7.67397e-05 1.66174e-15 -0.000397406 1.03216e-15 0)
(0.000636505 -5.33227e-06 3.47233e-16 -0.000341137 -1.50704e-15 0)
(0.00057865 3.68209e-05 1.41155e-15 -0.000312591 -1.9082e-15 0)
(0.000927977 5.66443e-05 0 -0.000405405 6.93889e-17 0)
(0.00117964 3.55471e-05 0 -0.000449355 1.50487e-15 0)
(0.00142411 8.05652e-05 0 -0.000505477 2.90133e-15 0)
(0.00165886 7.48811e-05 0 -0.00055386 2.48065e-15 0)
(0.00188613 0.000105831 0 -0.00058882 -5.07407e-15 0)
(0.00208192 8.77552e-05 0 -0.000602133 6.50521e-16 0)
(0.00226776 8.03482e-05 0 -0.000593658 9.45424e-16 0)
(0.00243988 9.48394e-05 0 -0.000562189 6.42498e-15 0)
(0.00269526 0.000128794 0 -0.000599501 4.51462e-15 0)
(0.00298722 7.49421e-05 0 -0.000683666 -6.72205e-17 0)
(0.00338601 7.56784e-05 0 -0.000856418 -9.04008e-15 0)
(0.00398893 0.000122771 0 -0.0013351 -6.2385e-15 0)
(0.00475936 0.000101185 0 -0.00219751 2.06432e-15 0)
(0.00594355 4.30862e-05 0 -0.00324807 7.23163e-15 0)
(0.00707215 2.86736e-05 0 -0.00463205 -5.91758e-15 0)
(0.00826033 -0.000135349 0 -0.00614412 -1.02978e-14 0)
(0.00943014 -0.000283718 0 -0.00732449 1.16335e-15 0)
(0.0100942 -0.000312548 0 -0.00833223 -4.01372e-15 0)
(0.00987898 -0.000441601 0 -0.00854197 -1.59345e-14 0)
(0.0112502 -0.00131287 -9.90549e-14 -0.0104719 -2.37798e-14 0)
(0.0104825 -0.00244114 2.86663e-15 -0.00961156 -5.02636e-15 0)
(0.00921727 -0.00300867 5.53865e-15 -0.00781307 -2.50136e-14 0)
(0.00801756 -0.00311032 1.36609e-15 -0.00658562 6.54208e-15 0)
(0.00752283 -0.00332401 3.73074e-15 -0.0060166 -9.85323e-15 0)
(0.00598804 -0.00381925 -2.12395e-15 -0.00420726 1.6585e-14 0)
(0.0040123 -0.00298979 -7.03105e-15 -0.00215656 -9.99526e-15 0)
(0.00291561 -0.00197989 -4.3444e-15 -0.00120469 1.89085e-15 0)
(0.00188362 -0.00143141 -1.26754e-14 -0.000301415 -1.44199e-15 0)
(0.00139917 -0.00109134 -1.3262e-14 -0.000263615 -8.26813e-15 0)
(0.00121009 -0.00101804 -5.88939e-15 -0.000183008 -3.83482e-15 0)
(0.000970406 -0.000910972 3.75134e-16 -9.65803e-05 -2.05239e-15 0)
(0.000751731 -0.000754248 6.53557e-15 -5.78813e-05 5.04154e-16 0)
(0.000547987 -0.000614947 2.42644e-15 -2.29521e-05 2.50776e-15 0)
(0.000421594 -0.000434398 -2.84061e-16 -7.08265e-05 1.48536e-16 0)
(0.000266459 -0.000239495 6.72205e-17 -8.67665e-05 6.03901e-16 0)
(0.000192535 -8.38945e-05 -2.4503e-16 -0.00018397 2.64003e-16 0)
(6.95975e-05 0.000100865 -8.23994e-17 -0.000212568 3.80013e-16 0)
(2.71983e-05 0.000290722 8.45678e-17 -0.000345741 5.06865e-16 0)
(7.49346e-05 0.000384683 7.37257e-17 -0.000549891 1.89193e-16 0)
(0.000118154 0.000510485 3.1225e-16 -0.000708856 4.73796e-16 0)
(0.000176181 0.00061403 1.46584e-15 -0.0009025 8.98261e-16 0)
(0.000244198 0.000608447 -6.28837e-16 -0.00109962 -4.46691e-16 0)
(0.000348871 0.00068708 9.75782e-17 -0.00128147 -1.04111e-15 0)
(0.000422888 0.000687843 -1.30104e-16 -0.00145949 1.36745e-15 0)
(0.000537941 0.000681017 -6.5269e-16 -0.00166634 1.0159e-15 0)
(0.00064307 0.000541336 -4.35199e-15 -0.00183927 -5.32452e-15 0)
(0.000680007 0.000507251 9.47593e-16 -0.00193845 2.33103e-15 0)
(0.000765145 0.000371377 -4.72495e-15 -0.0020624 5.7479e-15 0)
(0.000817758 0.000305627 1.93205e-15 -0.00213045 2.82252e-15 0)
(0.000807099 0.000158765 -1.25984e-15 -0.00218576 -6.23135e-15 0)
(0.000708444 -5.0204e-06 -1.49837e-15 -0.00186774 0 0)
(0.000539853 -1.75681e-05 1.75424e-15 -0.00149958 0 0)
(0.000421637 -3.67532e-05 -1.24683e-15 -0.0012672 0 0)
(0.000317036 -4.11042e-05 1.09504e-15 -0.0010287 0 0)
(0.000245501 -2.85519e-05 3.36103e-16 -0.000842853 0 0)
(0.000209383 -2.62486e-05 2.53703e-16 -0.000702511 0 0)
(0.000188046 -2.74349e-05 4.33681e-17 -0.000588992 0 0)
(0.000181602 -2.77573e-05 -6.93889e-17 -0.000499664 0 0)
(0.000179047 -3.12918e-05 1.51788e-16 -0.000417614 0 0)
(0.000181139 -4.46134e-05 1.60462e-16 -0.000347514 0 0)
(0.000187282 -3.36894e-05 2.05998e-16 -0.000285015 0 0)
(0.000214078 -3.40083e-05 1.19262e-16 -0.00024637 0 0)
(0.00022965 -4.1704e-05 5.85469e-17 -0.000207616 0 0)
(0.000250787 -3.14069e-05 1.73472e-17 -0.000177284 0 0)
(0.00027746 -3.83362e-05 -4.98733e-17 -0.000155833 0 0)
(0.000299007 -2.88192e-05 -1.45283e-16 -0.000134893 0 0)
(0.000326528 -2.29194e-05 9.1073e-17 -0.000116277 0 0)
(0.000353943 -2.59668e-05 1.99493e-16 -0.000102889 0 0)
(0.000378714 -2.20113e-05 1.27936e-16 -9.16223e-05 0 0)
(0.000407614 -2.48566e-05 1.71304e-16 -8.57355e-05 0 0)
(0.000438525 -2.44527e-05 -4.64039e-16 -8.30832e-05 0 0)
(0.000461304 -2.26441e-05 -8.5652e-16 -7.91505e-05 0 0)
(0.000491567 -2.23937e-05 -4.77049e-16 -7.73958e-05 0 0)
(0.000514805 -2.17711e-05 -7.54605e-16 -7.75974e-05 0 0)
(0.000544655 -2.02904e-05 -7.17742e-16 -8.04229e-05 0 0)
(0.000568694 -1.6691e-05 -5.5728e-16 -8.19458e-05 0 0)
(0.000594304 -1.90165e-05 -3.29597e-16 -8.52593e-05 0 0)
(0.000623142 -1.73717e-05 -3.05745e-16 -8.94997e-05 0 0)
(0.000645311 -1.71228e-05 -5.48606e-16 -9.57062e-05 0 0)
(0.000673104 -1.6865e-05 -6.5269e-16 -0.000101529 0 0)
(0.000693311 -1.58311e-05 -1.25984e-15 -0.00010749 0 0)
(0.000718628 -1.59983e-05 -9.34582e-16 -0.000113036 0 0)
(0.000743729 -1.39716e-05 -2.07733e-15 -0.000120444 0 0)
(0.000763857 -1.24649e-05 -1.11022e-15 -0.000128595 0 0)
(0.000788288 -1.21609e-05 3.07913e-16 -0.000133914 0 0)
(0.000808328 -9.5601e-06 -1.6263e-16 -0.000140966 0 0)
(0.000826036 -8.29339e-06 1.56342e-15 -0.000147545 0 0)
(0.000845942 -9.95172e-06 1.34441e-15 -0.000152694 0 0)
(0.000865323 -1.1574e-05 1.57643e-15 -0.000159296 0 0)
(0.000884886 -1.14412e-05 -1.40946e-15 -0.000165767 0 0)
(0.00090224 -9.80232e-06 -8.0231e-16 -0.000171474 0 0)
(0.000919228 -8.84794e-06 3.18755e-16 -0.00017528 0 0)
(0.000932364 -9.73506e-06 2.79074e-15 -0.000178857 0 0)
(0.000948379 -1.06531e-05 3.43258e-15 -0.000182232 0 0)
(0.000964151 -9.46152e-06 -2.37223e-15 -0.000185055 0 0)
(0.000976554 -7.09241e-06 9.1073e-17 -0.000186457 0 0)
(0.000986234 -6.8138e-06 -4.25007e-16 -0.000186013 0 0)
(0.0009984 -7.27916e-06 1.32923e-15 -0.000185401 0 0)
(0.00100751 -8.321e-06 -2.13371e-15 -0.000182589 0 0)
(0.00101485 -7.01558e-06 -1.63281e-15 -0.000177969 0 0)
(0.00102203 -7.64063e-06 -3.79471e-16 -0.000172564 0 0)
(0.00102799 -7.48524e-06 -1.56125e-16 -0.000166306 0 0)
(0.00103111 -6.00866e-06 -8.82541e-16 -0.0001567 0 0)
(0.00103373 -5.47608e-06 -1.13191e-15 -0.000146215 0 0)
(0.00103377 -4.86383e-06 -5.20417e-17 -0.000131374 0 0)
(0.0010339 -5.62188e-06 -6.50521e-17 -0.000117172 0 0)
(0.00102807 -8.48611e-06 -4.53197e-16 -9.65975e-05 0 0)
(0.00101997 -4.90527e-06 1.65232e-15 -7.40263e-05 0 0)
(0.00101441 -4.11679e-06 2.32887e-15 -5.11273e-05 0 0)
(0.00101008 -2.04456e-06 2.4156e-15 -2.51068e-05 9.09388e-16 0)
(0.00100086 -2.71293e-06 3.98553e-15 -2.32727e-05 -7.37521e-16 0)
(0.00101899 -3.45352e-06 2.2031e-15 -3.41454e-05 1.63027e-15 0)
(0.00101507 -2.87298e-06 2.42428e-15 -3.60171e-05 -1.77718e-16 0)
(0.00101965 -3.3691e-06 1.81712e-15 -4.72087e-05 2.62136e-17 0)
(0.00102298 -8.47114e-06 -1.51788e-16 -5.54378e-05 -2.85356e-15 0)
(0.00102603 -5.49229e-06 -3.16587e-15 -6.39042e-05 -4.33617e-16 0)
(0.00103091 -8.27559e-06 -2.22478e-15 -7.69734e-05 1.42624e-15 0)
(0.00103921 -9.94916e-06 -1.40079e-15 -8.9931e-05 -2.35856e-16 0)
(0.00104285 -5.3416e-06 -3.48246e-15 -0.000102793 1.07351e-15 0)
(0.00104989 -6.4087e-06 -2.7452e-15 -0.000122005 -9.03039e-16 0)
(0.00105718 -1.0135e-05 -1.30972e-15 -0.000138865 -7.9699e-16 0)
(0.00106197 -7.64574e-06 -3.29597e-16 -0.00015367 -8.10373e-16 0)
(0.00107236 -9.60116e-06 5.11743e-16 -0.000176456 -2.47927e-16 0)
(0.00108113 -1.26435e-05 9.15067e-16 -0.000196652 -1.48609e-15 0)
(0.00108578 -1.16833e-05 -2.83627e-15 -0.000213408 -1.25232e-15 0)
(0.00109534 -1.29777e-05 -3.30031e-15 -0.00023619 -2.17315e-16 0)
(0.00110759 -1.51609e-05 -7.58942e-16 -0.000259535 1.18835e-15 0)
(0.00111295 -1.2186e-05 -3.20707e-15 -0.000278137 -5.31259e-16 0)
(0.00112468 -1.12167e-05 -3.9942e-15 -0.000302125 2.82807e-16 0)
(0.00113164 -1.10909e-05 5.85469e-16 -0.000322813 7.31091e-16 0)
(0.00113842 -1.30247e-05 2.9989e-15 -0.000343655 9.92113e-16 0)
(0.00115062 -1.32048e-05 7.76289e-16 -0.000367132 1.16457e-15 0)
(0.00115995 -1.28404e-05 3.5345e-15 -0.000388349 1.29149e-15 0)
(0.00116453 -1.02839e-05 3.29381e-15 -0.000405023 3.13124e-15 0)
(0.00117488 -8.86376e-06 3.72966e-16 -0.000425982 -1.56816e-15 0)
(0.0011819 -7.32e-06 5.81132e-16 -0.000445155 1.11795e-15 0)
(0.00118619 -8.35567e-06 1.52873e-15 -0.000458964 1.27841e-15 0)
(0.00119367 -6.66682e-06 -2.01662e-16 -0.000474947 2.06269e-16 0)
(0.00119915 -7.02541e-06 1.94723e-15 -0.000488627 -2.43674e-16 0)
(0.00120496 -5.17875e-06 2.51969e-15 -0.000500982 -9.85269e-16 0)
(0.00120734 -4.5988e-06 2.06649e-15 -0.00050954 1.92256e-15 0)
(0.00121254 -3.13809e-06 1.13624e-15 -0.000518844 3.87196e-16 0)
(0.00121419 -3.68836e-06 4.85723e-16 -0.000523342 2.52592e-15 0)
(0.00121621 -7.45211e-07 2.92301e-15 -0.00052637 6.52554e-16 0)
(0.00121739 2.13005e-07 3.27212e-15 -0.000528598 4.29209e-16 0)
(0.00121608 7.97998e-07 -4.21538e-15 -0.000526723 -5.5484e-16 0)
(0.00121831 1.47824e-06 -2.5804e-15 -0.000525617 -1.00533e-15 0)
(0.00121679 1.04133e-06 -3.31332e-15 -0.000523134 2.18738e-16 0)
(0.00121418 1.12299e-06 -2.75171e-15 -0.000520664 7.0446e-16 0)
(0.00121191 1.62985e-06 -2.10986e-15 -0.000519952 -3.8706e-16 0)
(0.0012107 6.54444e-07 -5.23453e-15 -0.000520939 -1.63172e-16 0)
(0.00120912 1.02095e-08 -3.75134e-16 -0.000519871 -8.74951e-16 0)
(0.00121008 -1.39207e-06 1.5786e-15 -0.000521498 -3.91858e-15 0)
(0.00121287 -1.1604e-06 7.78457e-16 -0.000522314 -1.53116e-15 0)
(0.00121891 -3.47533e-06 2.27682e-16 -0.00052592 3.20924e-16 0)
(0.00122541 -4.49686e-06 3.75568e-15 -0.000526977 1.04083e-15 0)
(0.00123722 -6.10536e-06 1.16443e-15 -0.000534037 -2.88127e-16 0)
(0.00124751 -6.64972e-06 2.38958e-15 -0.000537814 8.84709e-16 0)
(0.00126239 -7.88751e-06 2.40042e-15 -0.000546061 1.18178e-15 0)
(0.00127674 -7.24252e-06 -2.01662e-16 -0.000548919 1.28749e-15 0)
(0.00129534 -9.41876e-06 7.04731e-16 -0.000559348 -1.27285e-15 0)
(0.00131132 -8.87905e-06 1.92121e-15 -0.000563708 -6.966e-16 0)
(0.00133312 -1.09345e-05 3.26128e-15 -0.000571649 -6.89824e-16 0)
(0.00135823 -1.32262e-05 1.73039e-15 -0.000584505 1.34821e-15 0)
(0.00138249 -1.45902e-05 5.25404e-15 -0.000595149 -3.8191e-16 0)
(0.00140364 -1.26409e-05 2.28983e-15 -0.000601633 6.68682e-16 0)
(0.00143171 -1.39768e-05 3.07263e-15 -0.000613771 8.39986e-16 0)
(0.00145938 -1.65648e-05 -4.10262e-15 -0.000624395 -1.69515e-15 0)
(0.00149092 -1.70998e-05 2.82977e-15 -0.00063933 -1.00804e-15 0)
(0.0015228 -1.75511e-05 1.9082e-15 -0.00065141 3.31766e-16 0)
(0.00155288 -2.37874e-05 -3.56269e-15 -0.000664218 3.06694e-15 0)
(0.00158419 -1.60788e-05 -5.2367e-15 -0.000677274 -1.53957e-15 0)
(0.00162212 -1.47037e-05 -3.2461e-15 -0.000694656 -6.91721e-16 0)
(0.00165295 -1.84592e-05 1.58294e-15 -0.000703285 -1.37396e-15 0)
(0.00169303 -1.78207e-05 -2.7929e-15 -0.000723829 -2.48824e-16 0)
(0.00172544 -2.18229e-05 -1.04517e-15 -0.000732208 9.87979e-16 0)
(0.00176757 -1.87751e-05 6.59412e-15 -0.000754604 1.45175e-15 0)
(0.0018045 -2.22616e-05 -1.12757e-16 -0.000764173 3.41063e-15 0)
(0.00184716 -1.77892e-05 -2.49583e-15 -0.00078677 5.32804e-15 0)
(0.00188291 -2.09505e-05 -9.94213e-15 -0.000795898 3.34151e-15 0)
(0.0019338 -2.01188e-05 -5.99997e-15 -0.000823684 5.79858e-15 0)
(0.00197086 -2.94206e-05 -5.69206e-15 -0.000835535 -5.95769e-16 0)
(0.0020173 -2.29503e-05 6.16911e-15 -0.000857325 -4.658e-15 0)
(0.00205637 -2.62347e-05 4.50161e-15 -0.000864683 -4.26091e-15 0)
(0.00210407 -2.53148e-05 2.83844e-15 -0.000892243 5.30554e-15 0)
(0.00214177 -2.72878e-05 -4.30428e-15 -0.000904104 -6.63261e-16 0)
(0.00219454 -1.9727e-05 -5.25404e-15 -0.00093174 2.52321e-15 0)
(0.00223781 -2.20475e-05 -9.39353e-15 -0.0009477 -1.56992e-15 0)
(0.00227319 -2.67981e-05 -8.39389e-15 -0.000954694 -2.50722e-15 0)
(0.00232674 -1.98255e-05 -4.90493e-15 -0.000984766 1.56288e-15 0)
(0.00236039 -2.79176e-05 -1.379e-14 -0.000992106 7.0446e-15 0)
(0.00239819 -2.47693e-05 4.54281e-16 -0.00101086 4.526e-15 0)
(0.00244809 -1.48705e-05 -1.61394e-14 -0.00103336 4.87837e-15 0)
(0.0024809 -2.80275e-05 -1.23924e-15 -0.00104609 -1.05547e-15 0)
(0.00250572 -1.76101e-05 -9.12248e-15 -0.00105195 2.189e-15 0)
(0.00254939 -8.32917e-06 1.33877e-14 -0.0010754 3.94433e-15 0)
(0.00256828 -1.61696e-05 1.59204e-14 -0.00107936 2.04481e-15 0)
(0.00260263 2.29836e-06 -7.73145e-15 -0.00110092 2.95825e-15 0)
(0.00264475 4.68206e-06 -1.32164e-14 -0.00112123 9.39732e-15 0)
(0.00269718 1.39579e-05 -3.14419e-15 -0.00116783 5.81674e-16 0)
(0.0027318 -1.39877e-05 -6.84674e-15 -0.00120441 6.66839e-15 0)
(0.00273248 -1.43717e-05 -4.26091e-16 -0.0011994 -8.3863e-15 0)
(0.00273481 -7.06568e-06 1.05276e-14 -0.00119144 -9.2309e-15 0)
(0.0027143 -6.14151e-06 1.63172e-15 -0.00113724 -5.67038e-15 0)
(0.00273687 7.44705e-06 4.49185e-15 -0.0011923 3.76327e-15 0)
(0.00275684 7.9522e-10 -7.19314e-15 -0.00123908 3.19948e-15 0)
(0.00267863 -1.90037e-05 7.0484e-15 -0.00110828 7.04731e-17 0)
(0.00264605 1.00933e-05 7.71952e-16 -0.0011141 -1.12432e-15 0)
(0.00262422 1.10703e-05 -1.15733e-14 -0.00110865 -4.17526e-15 0)
(0.0025765 2.6552e-05 -6.4407e-15 -0.00108538 3.47378e-15 0)
(0.00252197 3.77285e-05 -1.56667e-16 -0.00106492 -2.5533e-15 0)
(0.00245094 5.17409e-05 -7.02346e-15 -0.00103514 3.02926e-15 0)
(0.00237211 6.28678e-05 -3.40439e-16 -0.000998492 7.96889e-16 0)
(0.0022741 5.8472e-05 -2.17735e-15 -0.000969794 3.87711e-15 0)
(0.00213752 7.47498e-05 -1.15034e-15 -0.000912804 3.89662e-15 0)
(0.00201762 9.62526e-05 -7.10884e-15 -0.000880802 -7.95804e-16 0)
(0.00185358 9.1349e-05 -5.9314e-15 -0.000806988 -4.91144e-16 0)
(0.00167753 8.54219e-05 1.99751e-15 -0.000740303 -1.89735e-16 0)
(0.00153213 0.000110706 3.19148e-15 -0.000699167 -1.9082e-15 0)
(0.00138661 9.99519e-05 -1.64799e-15 -0.000639948 -1.25767e-16 0)
(0.00119424 7.42379e-05 1.16823e-16 -0.000555706 1.44416e-15 0)
(0.00106825 0.000106116 -4.46895e-16 -0.000521855 9.1073e-16 0)
(0.000964713 6.93231e-05 2.77691e-15 -0.000490017 1.51788e-17 0)
(0.000791797 4.10368e-05 4.0128e-15 -0.000400604 -9.73614e-16 0)
(0.000730265 7.67397e-05 1.66174e-15 -0.000397406 1.03216e-15 0)
(0.000636505 -5.33227e-06 3.47233e-16 -0.000341137 -1.50704e-15 0)
(0.00057865 3.68209e-05 1.41155e-15 -0.000312591 -1.9082e-15 0)
(0.000927977 5.66443e-05 0 -0.000405405 6.93889e-17 0)
(0.00117964 3.55471e-05 0 -0.000449355 1.50487e-15 0)
(0.00142411 8.05652e-05 0 -0.000505477 2.90133e-15 0)
(0.00165886 7.48811e-05 0 -0.00055386 2.48065e-15 0)
(0.00188613 0.000105831 0 -0.00058882 -5.07407e-15 0)
(0.00208192 8.77552e-05 0 -0.000602133 6.50521e-16 0)
(0.00226776 8.03482e-05 0 -0.000593658 9.45424e-16 0)
(0.00243988 9.48394e-05 0 -0.000562189 6.42498e-15 0)
(0.00269526 0.000128794 0 -0.000599501 4.51462e-15 0)
(0.00298722 7.49421e-05 0 -0.000683666 -6.72205e-17 0)
(0.00338601 7.56784e-05 0 -0.000856418 -9.04008e-15 0)
(0.00398893 0.000122771 0 -0.0013351 -6.2385e-15 0)
(0.00475936 0.000101185 0 -0.00219751 2.06432e-15 0)
(0.00594355 4.30862e-05 0 -0.00324807 7.23163e-15 0)
(0.00707215 2.86736e-05 0 -0.00463205 -5.91758e-15 0)
(0.00826033 -0.000135349 0 -0.00614412 -1.02978e-14 0)
(0.00943014 -0.000283718 0 -0.00732449 1.16335e-15 0)
(0.0100942 -0.000312548 0 -0.00833223 -4.01372e-15 0)
(0.00987898 -0.000441601 0 -0.00854197 -1.59345e-14 0)
(0.0112502 -0.00131287 -9.90549e-14 -0.0104719 -2.37798e-14 0)
(0.0104825 -0.00244114 2.86663e-15 -0.00961156 -5.02636e-15 0)
(0.00921727 -0.00300867 5.53865e-15 -0.00781307 -2.50136e-14 0)
(0.00801756 -0.00311032 1.36609e-15 -0.00658562 6.54208e-15 0)
(0.00752283 -0.00332401 3.73074e-15 -0.0060166 -9.85323e-15 0)
(0.00598804 -0.00381925 -2.12395e-15 -0.00420726 1.6585e-14 0)
(0.0040123 -0.00298979 -7.03105e-15 -0.00215656 -9.99526e-15 0)
(0.00291561 -0.00197989 -4.3444e-15 -0.00120469 1.89085e-15 0)
(0.00188362 -0.00143141 -1.26754e-14 -0.000301415 -1.44199e-15 0)
(0.00139917 -0.00109134 -1.3262e-14 -0.000263615 -8.26813e-15 0)
(0.00121009 -0.00101804 -5.88939e-15 -0.000183008 -3.83482e-15 0)
(0.000970406 -0.000910972 3.75134e-16 -9.65803e-05 -2.05239e-15 0)
(0.000751731 -0.000754248 6.53557e-15 -5.78813e-05 5.04154e-16 0)
(0.000547987 -0.000614947 2.42644e-15 -2.29521e-05 2.50776e-15 0)
(0.000421594 -0.000434398 -2.84061e-16 -7.08265e-05 1.48536e-16 0)
(0.000266459 -0.000239495 6.72205e-17 -8.67665e-05 6.03901e-16 0)
(0.000192535 -8.38945e-05 -2.4503e-16 -0.00018397 2.64003e-16 0)
(6.95975e-05 0.000100865 -8.23994e-17 -0.000212568 3.80013e-16 0)
(2.71983e-05 0.000290722 8.45678e-17 -0.000345741 5.06865e-16 0)
(7.49346e-05 0.000384683 7.37257e-17 -0.000549891 1.89193e-16 0)
(0.000118154 0.000510485 3.1225e-16 -0.000708856 4.73796e-16 0)
(0.000176181 0.00061403 1.46584e-15 -0.0009025 8.98261e-16 0)
(0.000244198 0.000608447 -6.28837e-16 -0.00109962 -4.46691e-16 0)
(0.000348871 0.00068708 9.75782e-17 -0.00128147 -1.04111e-15 0)
(0.000422888 0.000687843 -1.30104e-16 -0.00145949 1.36745e-15 0)
(0.000537941 0.000681017 -6.5269e-16 -0.00166634 1.0159e-15 0)
(0.00064307 0.000541336 -4.35199e-15 -0.00183927 -5.32452e-15 0)
(0.000680007 0.000507251 9.47593e-16 -0.00193845 2.33103e-15 0)
(0.000765145 0.000371377 -4.72495e-15 -0.0020624 5.7479e-15 0)
(0.000817758 0.000305627 1.93205e-15 -0.00213045 2.82252e-15 0)
(0.000807099 0.000158765 -1.25984e-15 -0.00218576 -6.23135e-15 0)
(0.00125631 -0.000605909 1.19479e-15 -0.000639126 9.32414e-16 0)
(0.00114004 -0.000422374 -2.98589e-15 -0.000382052 1.00919e-15 0)
(0.00198578 -0.000167685 4.38451e-15 -0.00110835 -1.05764e-15 0)
(0.00123492 -0.000239353 -2.51535e-16 -0.000455137 -8.00277e-16 0)
(0.00106035 -0.000224533 5.26922e-16 -0.000266582 3.92549e-16 0)
(0.00147478 -0.000490264 2.39609e-15 -0.000613262 1.00234e-15 0)
(0.000830439 -0.000472287 -4.85723e-16 -0.000259385 7.54063e-16 0)
(0.0027109 0.000193896 -1.19631e-14 -0.00150221 7.01912e-15 0)
(0.000648006 -0.000540099 1.72822e-15 -0.000570142 -1.14519e-16 0)