/*--------------------------------*- C++ -*----------------------------------*\
| =========                 |                                                 |
| \\      /  F ield         | OpenFOAM: The Open Source CFD Toolbox           |
|  \\    /   O peration     | Version:  v2012                                 |
|   \\  /    A nd           | Website:  www.openfoam.com                      |
|    \\/     M anipulation  |                                                 |
\*---------------------------------------------------------------------------*/
FoamFile
{
    version     2.0;
    format      ascii;
    class       volSymmTensorField;
    location    "10";
    object      epsilon;
}
// * * * * * * * * * * * * * * * * * * * * * * * * * * * * * * * * * * * * * //

dimensions      [0 0 0 0 0 0 0];


internalField   nonuniform List<symmTensor> 
1896
(
(0.0015296 -0.000116171 3.46945e-18 -0.000298759 -2.71051e-20 0)
(0.0017366 -0.00010698 -1.73472e-18 -0.000692016 2.1684e-19 0)
(0.00146113 -5.1368e-05 1.73472e-18 -0.000280631 1.01644e-20 0)
(0.00349707 0.000128868 2.60209e-18 -0.00175318 -1.30104e-18 0)
(0.00151923 -0.000138359 5.20417e-18 -0.000316827 -4.06576e-20 0)
(0.00149395 -0.000144076 1.73472e-18 -0.000309809 -1.35525e-20 0)
(0.00342369 0.000244835 1.73472e-18 -0.00190926 -4.33681e-19 0)
(0.0013838 -0.000244512 -1.73472e-18 -0.000329874 1.35525e-20 0)
(0.0015239 -0.000885498 0 -0.00108067 5.42101e-20 0)
(0.00133651 -0.00019372 1.73472e-18 -0.000298241 -2.03288e-20 0)
(0.00150791 -1.56725e-05 -3.46945e-18 -0.000243343 1.35525e-20 0)
(0.000953164 -0.000452489 2.60209e-18 -0.000263459 -1.35525e-20 0)
(0.000901083 -0.000305002 1.73472e-18 -0.000198407 -6.77626e-21 0)
(0.000878018 -0.000439139 2.60209e-18 -0.000240132 0 0)
(0.00323686 0.000284594 -8.67362e-19 -0.00164601 2.60209e-18 0)
(0.00248445 0.000235329 1.0842e-19 -0.00107666 -8.67362e-19 0)
(0.00197423 -0.000244469 -8.67362e-19 -0.000815519 1.0842e-19 0)
(0.00473865 -0.0011395 3.90313e-18 -0.0017784 -1.73472e-18 0)
(0.00205833 -0.000417268 8.67362e-19 -0.000833369 0 0)
(0.00107347 -0.000635277 1.73472e-18 -0.000544034 -1.30104e-18 0)
(0.000844854 0.000638041 -8.67362e-19 -0.00242966 -5.42101e-20 0)
(0.00169963 -0.000315842 0 -0.000606395 -5.42101e-20 0)
(0.00311508 -0.000120175 8.67362e-19 -0.00135565 -6.50521e-19 0)
(0.00327412 -7.30523e-05 4.33681e-19 -0.00144945 6.50521e-19 0)
(0.00178811 -0.000202612 0 -0.000695681 -2.1684e-19 0)
(0.00176725 -0.000194509 0 -0.000693577 2.1684e-19 0)
(0.000949433 -0.000215159 0 -0.00018079 0 0)
(0.000963506 -0.000187471 -3.46945e-18 -0.000192221 1.35525e-20 0)
(0.00149965 -0.000105471 3.46945e-18 -0.000262351 -4.06576e-20 0)
(0.00222781 -0.000548629 2.60209e-18 -0.000922873 -1.0842e-19 0)
(0.00211283 -0.000548473 -1.73472e-18 -0.000887799 4.33681e-19 0)
(0.00174903 -3.23352e-05 0 -0.000736861 2.1684e-19 0)
(0.00064695 -0.000373841 8.67362e-19 -0.000288905 -1.35525e-20 0)
(0.0017612 -9.12627e-05 -3.46945e-18 -0.000709595 1.0842e-19 0)
(0.0029743 -6.87978e-05 0 -0.00126288 0 0)
(0.00151256 -7.702e-05 1.73472e-18 -0.000232543 -1.35525e-20 0)
(0.00207491 -0.000529763 1.73472e-18 -0.000853034 -1.0842e-19 0)
(0.00167226 -0.000113018 3.46945e-18 -0.000589159 -5.42101e-20 0)
(0.00440596 -0.000514644 8.67362e-19 -0.00212173 1.30104e-18 0)
(0.00227745 -0.00056423 -2.60209e-18 -0.000957331 4.33681e-19 0)
(0.00175102 -5.74099e-06 -3.46945e-18 -0.000753062 1.0842e-19 0)
(0.00226899 -0.000709121 -1.73472e-18 -0.00103061 -4.33681e-19 0)
(0.00177321 -0.000702052 0 -0.000707972 -1.6263e-19 0)
(0.00269533 -0.000381995 0 -0.0016277 -4.33681e-19 0)
(0.000981206 -0.000167922 -8.67362e-19 -0.00017167 1.69407e-20 0)
(0.000868645 -0.000162459 1.73472e-18 -0.000171715 6.77626e-21 0)
(0.00328275 0.000305442 4.33681e-19 -0.00176737 4.33681e-19 0)
(0.00150953 -5.08161e-05 -1.73472e-18 -0.000249384 -2.03288e-20 0)
(0.00283634 -0.00018583 1.73472e-18 -0.00154101 2.1684e-19 0)
(0.00326948 0.000500417 1.0842e-18 -0.00163817 -1.30104e-18 0)
(0.00149062 -8.29597e-05 5.20417e-18 -0.000304176 0 0)
(0.00145394 -0.000199289 1.73472e-18 -0.000327701 1.35525e-20 0)
(0.00140461 -0.000215349 3.46945e-18 -0.0003328 -1.35525e-20 0)
(0.00171874 -0.000299383 -1.73472e-18 -0.000595923 1.6263e-19 0)
(0.00156827 -0.000807896 8.67362e-19 -0.0010177 -5.42101e-20 0)
(0.0018504 -3.79066e-05 3.46945e-18 -0.000788789 -2.1684e-19 0)
(0.0021964 -0.000641683 -2.60209e-18 -0.00127391 0 0)
(0.00153854 -8.524e-05 1.73472e-18 -0.000283203 2.71051e-20 0)
(0.0016538 -5.15283e-05 -5.20417e-18 -0.000522127 5.42101e-20 0)
(0.00235876 -9.11911e-05 1.73472e-18 -0.000984576 -4.33681e-19 0)
(0.00136605 -0.000190871 0 -0.000304162 -4.06576e-20 0)
(0.00323486 0.000445745 -1.30104e-18 -0.00156914 0 0)
(0.00319107 0.000378107 -1.30104e-18 -0.00161636 1.73472e-18 0)
(0.00154794 -0.000273043 5.20417e-18 -0.000403069 -1.0842e-19 0)
(0.00105643 -0.000796995 1.73472e-18 -0.00018686 -4.33681e-19 0)
(0.00174749 -1.58294e-05 8.67362e-19 -0.000742124 -1.0842e-19 0)
(0.00301719 -0.000241503 8.67362e-19 -0.00132597 -4.33681e-19 0)
(0.00117061 -0.000642725 -8.67362e-19 -0.000397583 2.71051e-20 0)
(0.00164967 -0.000171507 2.60209e-18 -0.000538361 -5.42101e-20 0)
(0.00301016 -0.000233889 0 -0.00131561 -2.1684e-19 0)
(0.000514629 -7.99332e-05 -2.60209e-18 -0.00017053 3.38813e-21 0)
(0.00312584 0.000242607 -1.73472e-18 -0.00156665 2.1684e-18 0)
(0.00167198 -0.000163731 1.73472e-18 -0.000563286 0 0)
(0.00179984 -2.57191e-05 -2.60209e-18 -0.000768151 0 0)
(0.00313479 -8.22876e-05 8.67362e-19 -0.00134818 -4.33681e-19 0)
(0.00174691 -0.000161881 0 -0.000676918 1.0842e-19 0)
(0.0017645 -0.000135359 4.33681e-18 -0.000703322 1.0842e-19 0)
(0.00156901 -0.000200391 1.73472e-18 -0.000389975 1.35525e-19 0)
(0.00159517 -0.000209423 0 -0.000426713 -2.71051e-20 0)
(0.00169284 -0.000513361 0 -0.000575254 1.6263e-19 0)
(0.0023332 -0.000918258 8.67362e-19 -0.000798531 4.33681e-19 0)
(0.00319596 -0.000167325 -1.73472e-18 -0.00141105 4.33681e-19 0)
(0.00114613 -0.000114415 -3.46945e-18 -0.000213707 1.52466e-20 0)
(0.00133137 -0.000352621 -2.60209e-18 -0.000325155 5.42101e-20 0)
(0.00128566 -0.000299398 -2.60209e-18 -0.000305606 4.06576e-20 0)
(0.0018435 -0.000493078 5.20417e-18 -0.000695055 -1.6263e-19 0)
(0.0013911 -0.000603918 2.60209e-18 -0.000435153 0 0)
(0.00132265 -0.000634003 0 -0.000421972 -5.42101e-20 0)
(0.0020486 -0.000704954 8.67362e-19 -0.00127052 -1.0842e-19 0)
(0.00154747 -0.00072088 -1.73472e-18 -0.000585344 1.6263e-19 0)
(0.00152613 -0.000547321 -4.33681e-18 -0.000474368 1.0842e-19 0)
(0.0119442 -0.000953203 -6.83047e-18 -0.00898245 3.03577e-18 0)
(0.00118626 -0.000877088 8.67362e-19 -0.000786977 0 0)
(0.00286307 -0.000710777 1.73472e-18 -0.00131699 4.33681e-19 0)
(0.00327646 -8.31051e-05 4.33681e-19 -0.00141856 6.50521e-19 0)
(0.00175707 -0.000270464 -8.67362e-19 -0.00064541 -5.42101e-20 0)
(0.00170911 -2.95576e-05 1.73472e-18 -0.000671195 -1.0842e-19 0)
(0.00149664 -1.72109e-05 -1.73472e-18 -0.000186681 2.71051e-20 0)
(0.0017253 -1.50997e-05 -1.73472e-18 -0.000716718 2.1684e-19 0)
(0.00138245 -0.000760597 -2.60209e-18 -0.000546551 -2.71051e-20 0)
(0.00142248 -0.000728854 1.73472e-18 -0.000552478 -2.71051e-20 0)
(0.00105075 -0.000658002 -8.67362e-19 -0.000396079 0 0)
(0.00155044 -0.000269705 0 -0.000398652 0 0)
(0.00123841 -0.00081419 0 -0.000743637 -5.42101e-20 0)
(0.00171879 -0.000812208 8.67362e-19 -0.000946026 -1.0842e-19 0)
(0.00175191 -0.000732168 2.60209e-18 -0.000683079 0 0)
(0.00180656 -0.000483827 -1.73472e-18 -0.000694057 1.6263e-19 0)
(0.00281567 -0.000187075 -2.60209e-18 -0.00160437 1.51788e-18 0)
(0.00283835 -0.000263193 0 -0.00133122 -2.1684e-19 0)
(0.0098966 -0.00067623 -3.36103e-18 -0.00731014 9.97466e-18 0)
(0.00148711 -2.3949e-05 -1.73472e-18 -0.000165653 0 0)
(0.00172806 -1.87e-05 1.73472e-18 -0.000715136 0 0)
(0.00256587 -0.000448509 -2.60209e-18 -0.00122946 4.33681e-19 0)
(0.00214734 -0.000752232 -8.67362e-19 -0.00128934 1.0842e-19 0)
(0.00511669 -0.00214451 -4.33681e-19 -0.00356444 -1.30104e-18 0)
(0.00141915 -0.000670711 8.67362e-19 -0.000489922 0 0)
(0.00118282 -6.56937e-05 -3.46945e-18 -0.000218764 3.38813e-21 0)
(0.00153586 -0.000612926 2.60209e-18 -0.000504923 -5.42101e-20 0)
(0.00237074 -0.000546381 8.67362e-19 -0.00144496 -2.1684e-19 0)
(0.00217115 -0.000544622 -8.67362e-19 -0.000889734 0 0)
(0.00242993 -0.000380649 -8.67362e-19 -0.00145766 2.1684e-19 0)
(0.00136577 -0.000883879 -8.67362e-19 -0.0010354 -2.1684e-19 0)
(0.00168163 -0.000118872 3.46945e-18 -0.000587374 -5.42101e-20 0)
(0.00116331 -0.000258558 -3.46945e-18 -0.000253519 0 0)
(0.00119203 -0.000218358 1.73472e-18 -0.000251756 0 0)
(0.00190694 -0.000823451 -3.46945e-18 -0.0013149 -1.0842e-19 0)
(0.00278561 -0.000269885 8.67362e-19 -0.00165445 -6.50521e-19 0)
(0.00136199 -0.000249491 -1.73472e-18 -0.000316604 -2.71051e-20 0)
(0.00214316 -0.000254205 1.73472e-18 -0.000906747 -4.33681e-19 0)
(0.00143382 -0.000818752 -2.60209e-18 -0.000630172 5.42101e-20 0)
(0.00152125 -0.000801667 -3.46945e-18 -0.000664939 1.6263e-19 0)
(0.00154277 -0.000532382 -5.20417e-18 -0.000499898 0 0)
(0.00268525 -0.000435515 1.73472e-18 -0.00132726 -4.33681e-19 0)
(0.00294012 -0.000879864 3.03577e-18 -0.00105384 -1.73472e-18 0)
(0.00202778 -0.000409074 3.46945e-18 -0.000826909 -5.42101e-19 0)
(0.00320012 0.000410441 -1.30104e-18 -0.00150382 4.33681e-19 0)
(0.00312423 -9.41153e-05 8.67362e-19 -0.00165067 4.33681e-19 0)
(0.00318715 -0.000133405 0 -0.00164059 1.30104e-18 0)
(0.00176019 -2.33546e-05 1.73472e-18 -0.000749312 -3.25261e-19 0)
(0.00237369 -0.000591512 3.46945e-18 -0.00103076 -4.33681e-19 0)
(0.00167743 -0.000214685 3.46945e-18 -0.000558746 -1.6263e-19 0)
(0.00260998 -0.000392364 8.67362e-19 -0.0014883 2.1684e-19 0)
(0.00224452 -0.000554362 -3.46945e-18 -0.000950619 3.25261e-19 0)
(0.00331579 0.000670385 -1.0842e-19 -0.00131489 1.73472e-18 0)
(0.0014296 -0.000453309 3.46945e-18 -0.000403394 -1.6263e-19 0)
(0.00190561 -0.000368414 -8.67362e-19 -0.000739393 -1.0842e-19 0)
(0.00184804 -0.000349074 -2.60209e-18 -0.000743452 2.1684e-19 0)
(0.00216016 -0.000257765 -2.60209e-18 -0.000918908 3.25261e-19 0)
(0.00314475 -1.97269e-05 -8.67362e-19 -0.00146448 -4.33681e-19 0)
(0.00146312 -0.000640991 -8.67362e-19 -0.000491862 8.13152e-20 0)
(0.00102601 -0.000299811 -1.73472e-18 -0.000205002 0 0)
(0.00171877 -7.43023e-05 0 -0.000676062 -1.0842e-19 0)
(0.00167202 -0.000235587 -5.20417e-18 -0.000580515 0 0)
(0.00158757 -0.000293187 1.73472e-18 -0.000465443 2.71051e-20 0)
(0.00157789 -0.000331281 0 -0.00047466 0 0)
(0.00249048 -0.000528539 8.67362e-19 -0.00133202 -1.0842e-19 0)
(0.00108818 -6.51155e-05 -1.73472e-18 -0.000217896 3.38813e-21 0)
(0.00240206 -0.000574877 2.60209e-18 -0.00134521 -4.33681e-19 0)
(0.00909453 -0.00503362 3.03577e-18 -0.00591662 1.73472e-18 0)
(0.00143602 -0.00013674 -1.73472e-18 -0.00031274 3.38813e-20 0)
(0.00144044 -0.000190753 -3.46945e-18 -0.000333091 6.77626e-20 0)
(0.00334695 -6.68538e-05 1.73472e-18 -0.00144283 -4.33681e-19 0)
(0.0014997 -0.000755235 2.60209e-18 -0.00110517 -4.33681e-19 0)
(0.00164197 -0.000103938 -5.20417e-18 -0.000490585 5.42101e-20 0)
(0.00460605 0.0001136 4.66207e-18 -0.0019075 -2.60209e-18 0)
(0.00131232 -0.000198996 -1.73472e-18 -0.00028503 -1.35525e-20 0)
(0.00259831 0.000236578 -1.6263e-19 -0.000833812 8.67362e-19 0)
(0.00151965 -9.19839e-05 3.46945e-18 -0.000274569 -4.06576e-20 0)
(0.00151138 -6.64169e-05 3.46945e-18 -0.000223272 2.71051e-20 0)
(0.00171993 -7.59024e-05 -8.67362e-18 -0.000673867 2.1684e-19 0)
(0.00173088 -5.67165e-05 -1.73472e-18 -0.000708381 0 0)
(0.00176493 -4.47419e-05 0 -0.000749327 0 0)
(0.000700226 -0.000468338 -3.46945e-18 -0.00028065 2.71051e-20 0)
(0.000755415 -0.000481847 0 -0.000277469 2.03288e-20 0)
(0.00326896 9.11151e-05 2.1684e-18 -0.00171447 -1.73472e-18 0)
(0.00322158 0.000135154 1.73472e-18 -0.00172347 -4.33681e-19 0)
(0.00293721 -8.66021e-05 1.30104e-18 -0.00156233 0 0)
(0.00176351 -0.000241735 -3.46945e-18 -0.000677671 3.25261e-19 0)
(0.00147976 -3.37699e-05 1.73472e-18 -0.000206259 1.35525e-20 0)
(0.00148842 -0.00083503 -8.67362e-19 -0.000858463 1.6263e-19 0)
(0.00060259 -0.000501814 8.67362e-19 -0.000281016 -1.35525e-20 0)
(0.00233884 -0.000226013 -1.73472e-18 -0.00097666 3.25261e-19 0)
(0.00160951 -0.000274106 6.07153e-18 -0.000451521 -3.52366e-19 0)
(0.00300634 -6.23347e-06 -2.60209e-18 -0.00148262 6.50521e-19 0)
(0.00321564 0.000154921 -1.73472e-18 -0.00170186 4.33681e-19 0)
(0.00582986 6.36442e-05 3.79471e-18 -0.00209399 -1.73472e-18 0)
(0.00133596 -0.000697267 0 -0.000491439 2.71051e-20 0)
(0.00309909 0.00074887 -8.67362e-19 -0.00141135 1.73472e-18 0)
(0.00105367 0.00026546 0 -0.00302924 -2.71051e-20 0)
(0.000443894 -0.000432127 0 -0.000777845 5.42101e-20 0)
(0.00302072 -0.000124407 0 -0.00165437 4.33681e-19 0)
(0.00148788 -5.94864e-05 1.73472e-18 -0.000212012 -2.03288e-20 0)
(0.00262758 -0.00040809 -1.73472e-18 -0.00153322 4.33681e-19 0)
(0.00350203 4.53432e-05 1.73472e-18 -0.00151399 -8.67362e-19 0)
(0.00157784 -0.00103203 8.67362e-19 -0.000371293 4.33681e-19 0)
(0.000934113 -0.000559171 0 -0.00033554 1.35525e-20 0)
(0.00180306 -0.000716269 0 -0.000714356 -1.0842e-19 0)
(0.00252882 -0.000382565 -8.67362e-19 -0.0015015 -2.1684e-19 0)
(0.000907915 -0.000589451 1.73472e-18 -0.000308741 -2.71051e-20 0)
(0.00110282 -0.000161315 1.73472e-18 -0.000220701 1.35525e-20 0)
(0.00130982 -0.000623891 -8.67362e-19 -0.000425398 0 0)
(0.00184642 -0.000626497 8.67362e-19 -0.000967719 -1.30104e-18 0)
(0.00150677 -7.74699e-05 0 -0.000262564 -1.35525e-20 0)
(0.00160625 -0.000308339 1.73472e-18 -0.000456426 -1.6263e-19 0)
(0.00348152 0.00064059 2.1684e-19 -0.00164313 -8.67362e-19 0)
(0.00157501 -0.000308759 3.46945e-18 -0.000431364 0 0)
(0.00284836 -0.000192646 8.67362e-19 -0.0015627 -4.33681e-19 0)
(0.00277159 -0.000353372 -8.67362e-19 -0.00120248 4.33681e-19 0)
(0.000791148 -8.94801e-05 0 -0.00212806 0 0)
(0.0018321 -5.85059e-05 4.33681e-18 -0.000795161 -3.25261e-19 0)
(0.00315955 -5.79087e-05 0 -0.0013557 -4.33681e-19 0)
(0.00206608 -0.000531387 -8.67362e-19 -0.000853332 1.0842e-19 0)
(0.00184746 -0.000211423 -1.73472e-18 -0.000769631 -1.0842e-19 0)
(0.00187673 -0.000189388 0 -0.000761426 0 0)
(0.00102103 -0.000542795 1.73472e-18 -0.000301249 0 0)
(0.00147582 -0.000883973 1.73472e-18 -0.000851453 1.0842e-19 0)
(0.00205836 -0.000726426 2.60209e-18 -0.00104587 -2.1684e-19 0)
(0.0026503 -0.000203941 1.73472e-18 -0.00111702 -2.1684e-19 0)
(0.00248268 -0.000225932 1.73472e-18 -0.0010798 -1.0842e-19 0)
(0.00215967 -0.000557381 -3.46945e-18 -0.000917434 2.1684e-19 0)
(0.000664635 -0.000519585 8.67362e-19 -0.000996389 5.42101e-20 0)
(0.00159864 -0.000348403 0 -0.000464835 1.0842e-19 0)
(0.00343788 1.48609e-05 4.33681e-19 -0.00149674 -8.67362e-19 0)
(0.00289338 -0.000288132 -2.60209e-18 -0.00136424 0 0)
(0.00170963 -2.65915e-05 3.46945e-18 -0.00068121 0 0)
(0.00222761 -0.000609094 8.67362e-19 -0.000968004 0 0)
(0.00290502 -0.00027954 2.1684e-18 -0.00152604 -1.30104e-18 0)
(0.00181511 -0.000394811 -4.33681e-18 -0.000705311 3.25261e-19 0)
(0.00270442 0.000487372 -3.25261e-19 -0.000791884 -8.67362e-19 0)
(0.00175791 -4.24664e-05 -3.46945e-18 -0.00073216 0 0)
(0.00269772 0.000432094 -1.0842e-19 -0.00103257 -3.46945e-18 0)
(0.00143149 -0.000178926 1.73472e-18 -0.000320745 -1.35525e-20 0)
(0.00138867 -0.000147488 3.46945e-18 -0.000307128 -1.35525e-20 0)
(0.00146536 -9.91591e-06 3.46945e-18 -0.000109223 6.77626e-21 0)
(0.0017419 -3.13119e-06 1.73472e-18 -0.000750594 0 0)
(0.00147828 -0.000304712 -1.73472e-18 -0.000368077 -2.71051e-20 0)
(0.00105836 -0.000647433 8.67362e-19 -0.000367127 -1.35525e-20 0)
(0.00258179 -0.000338644 1.73472e-18 -0.00153426 -4.33681e-19 0)
(0.00363853 0.000701876 -8.67362e-19 -0.00129679 -4.33681e-18 0)
(0.00223821 -9.83452e-05 -8.67362e-19 -0.000983655 0 0)
(0.00294107 -0.000325503 4.33681e-19 -0.00150602 4.33681e-19 0)
(0.00290481 -0.000118519 -4.33681e-19 -0.00160777 2.1684e-19 0)
(0.0011168 -0.00051 0 -0.000302384 2.71051e-20 0)
(0.00419073 0.000634246 -1.30104e-18 -0.00178631 8.67362e-19 0)
(0.00169992 -0.000319544 3.46945e-18 -0.000566057 -5.42101e-20 0)
(0.000870691 -0.000482828 -3.46945e-18 -0.00026608 2.03288e-20 0)
(0.00164253 -3.7395e-05 3.46945e-18 -0.000539518 -1.0842e-19 0)
(0.000801907 -0.000460105 2.60209e-18 -0.000263329 1.35525e-20 0)
(0.00083399 -0.000419221 1.73472e-18 -0.000242602 -2.03288e-20 0)
(0.00261305 -0.000366044 8.67362e-19 -0.00113539 -1.0842e-19 0)
(0.0017604 -0.000569563 3.46945e-18 -0.00132688 -4.33681e-19 0)
(0.00186317 -0.00073168 0 -0.000767628 0 0)
(0.00174549 -5.90224e-05 1.73472e-18 -0.000709112 1.0842e-19 0)
(0.00149043 -1.59448e-05 -3.46945e-18 -0.000179052 6.77626e-21 0)
(0.00173952 -3.13609e-06 0 -0.000743341 0 0)
(0.00162846 -0.000399593 0 -0.000537108 -1.0842e-19 0)
(0.000938569 -0.00081313 -3.46945e-18 -0.000672951 1.6263e-19 0)
(0.00351435 0.000870092 6.50521e-19 -0.0013529 -2.60209e-18 0)
(0.00321301 0.000350322 -8.67362e-19 -0.00158247 1.30104e-18 0)
(0.00295184 -0.000227564 8.67362e-19 -0.00126275 -2.1684e-19 0)
(0.00213863 -0.000172325 0 -0.000906968 -3.25261e-19 0)
(0.000747285 0.00035934 0 -0.00158315 2.1684e-19 0)
(0.000538097 0.000269843 -1.73472e-18 -0.00160779 -1.0842e-19 0)
(0.00119966 -0.000579139 0 -0.000367216 2.71051e-20 0)
(0.00197701 -0.000238457 1.73472e-18 -0.000839243 -3.25261e-19 0)
(0.00186538 -0.000851692 0 -0.00108576 -1.6263e-19 0)
(0.00228968 -6.98988e-06 -1.0842e-19 -0.00085039 -8.67362e-19 0)
(0.00121738 -0.000793584 1.73472e-18 -0.00054007 2.71051e-20 0)
(0.00229038 -0.000141539 0 -0.000991458 -2.1684e-19 0)
(0.00161958 -0.000385402 -8.67362e-19 -0.00049382 -1.0842e-19 0)
(0.00132341 -0.000757368 2.60209e-18 -0.000539964 -8.13152e-20 0)
(0.000333092 1.86867e-05 0 -0.000966158 -1.35525e-20 0)
(0.00332656 9.52832e-05 4.33681e-19 -0.00143754 0 0)
(0.00081553 -0.00034926 -4.33681e-18 -0.000192937 2.03288e-20 0)
(0.00193991 -0.000307536 8.67362e-19 -0.000801053 1.0842e-19 0)
(0.000818577 -0.000650379 1.73472e-18 -0.000567224 -1.0842e-19 0)
(0.00278289 -0.000363244 -1.73472e-18 -0.00131727 0 0)
(0.00158663 -4.743e-05 3.46945e-18 -0.000364739 0 0)
(0.00164755 -0.000449092 3.46945e-18 -0.000525728 -2.1684e-19 0)
(0.00147354 -2.37369e-05 0 -0.000243552 -3.38813e-21 0)
(0.00177828 -2.69638e-05 0 -0.000760032 -3.25261e-19 0)
(0.00274925 -0.000322273 0 -0.00118293 4.33681e-19 0)
(0.000734349 -0.000546438 0 -0.000447742 -2.71051e-20 0)
(0.00172884 -4.9471e-06 -1.73472e-18 -0.000736696 1.0842e-19 0)
(0.00180164 -0.00039282 1.73472e-18 -0.000671272 -1.0842e-19 0)
(0.00248302 0.000580605 1.0842e-19 -0.00105991 8.67362e-19 0)
(0.00173566 -0.000542482 3.46945e-18 -0.000628116 -1.6263e-19 0)
(0.00149731 -0.000634306 -3.46945e-18 -0.000494851 1.35525e-19 0)
(0.00164894 -0.000534109 -3.46945e-18 -0.000578377 5.42101e-20 0)
(0.00148112 -2.03898e-05 1.73472e-18 -0.000208405 8.47033e-21 0)
(0.00208478 0.000266343 2.1684e-19 -0.000862195 -8.67362e-19 0)
(0.00203344 -0.000475088 -4.33681e-18 -0.000819602 3.25261e-19 0)
(0.00204763 -0.000582097 0 -0.000827774 3.25261e-19 0)
(0.00177378 -0.000549641 -1.73472e-18 -0.000658312 0 0)
(0.00411681 0.000314152 7.04731e-19 -0.00104086 8.67362e-19 0)
(0.000627452 -8.86597e-05 1.73472e-18 -0.000170209 -6.77626e-21 0)
(0.00244757 0.000227642 -1.0842e-19 -0.00107441 0 0)
(0.00139422 -0.000666266 -1.73472e-18 -0.000459977 1.0842e-19 0)
(0.00377838 0.000689705 2.1684e-19 -0.00172656 0 0)
(0.000624703 -0.000415128 0 -0.00105954 -1.0842e-19 0)
(0.00338959 0.000866791 2.1684e-19 -0.00141597 1.73472e-18 0)
(0.00201476 -0.000597639 -3.46945e-18 -0.000835035 1.0842e-19 0)
(0.00308947 -1.79911e-05 1.73472e-18 -0.00142086 -8.67362e-19 0)
(0.00350739 0.000381465 2.1684e-18 -0.00174167 0 0)
(0.00164417 -0.00032729 -1.73472e-18 -0.000540981 -5.42101e-20 0)
(0.00147426 -0.000389187 -1.73472e-18 -0.000396762 8.13152e-20 0)
(0.00143494 -0.000401862 1.73472e-18 -0.000396766 -1.0842e-19 0)
(0.000571895 -0.000565702 0 -0.000371199 4.06576e-20 0)
(0.000747266 -0.000549135 -2.60209e-18 -0.000374419 5.42101e-20 0)
(0.00161756 -0.000436514 -1.73472e-18 -0.000530816 1.6263e-19 0)
(0.00162649 -0.00012755 1.73472e-18 -0.000514411 5.42101e-20 0)
(0.00158523 -0.000717622 -8.67362e-19 -0.000585923 1.0842e-19 0)
(0.000748526 -0.000411147 4.33681e-18 -0.000237955 -6.77626e-21 0)
(0.00149417 -6.43918e-05 -5.20417e-18 -0.000217672 3.38813e-20 0)
(0.00173155 -4.37149e-05 0 -0.000694087 2.1684e-19 0)
(0.00214855 -0.000319998 3.46945e-18 -0.000891471 -1.0842e-19 0)
(0.00126588 -3.42909e-05 0 -0.000260336 0 0)
(0.00166196 -0.000117011 1.73472e-18 -0.000544006 -1.6263e-19 0)
(0.00189773 -0.000712567 4.33681e-18 -0.000767518 0 0)
(0.00162339 -0.000179302 -5.20417e-18 -0.000460097 5.42101e-20 0)
(0.00142528 -0.000462613 5.20417e-18 -0.000398164 -2.71051e-20 0)
(0.00310761 0.000396398 1.30104e-18 -0.00134052 -1.73472e-18 0)
(0.00294417 0.000450643 -8.67362e-19 -0.00135651 1.73472e-18 0)
(0.00191334 -0.000755707 0 -0.000821939 5.42101e-20 0)
(0.000742404 -0.000716742 1.73472e-18 -0.000503317 2.71051e-20 0)
(0.00163728 -0.000733421 3.46945e-18 -0.000648315 -1.0842e-19 0)
(0.00180422 -0.000757287 2.60209e-18 -0.000763357 -5.42101e-20 0)
(0.000717939 -0.000569826 -1.73472e-18 -0.00035951 0 0)
(0.00153133 -0.000170729 0 -0.000335957 0 0)
(0.00172631 -0.000143912 0 -0.00063476 0 0)
(0.000545291 9.21833e-05 3.46945e-18 -0.00154079 -1.0842e-19 0)
(0.00210846 -5.29291e-05 8.67362e-19 -0.0009047 -3.25261e-19 0)
(0.00147968 -3.9209e-05 1.73472e-18 -0.000164442 3.04932e-20 0)
(0.00174309 -1.49671e-05 3.46945e-18 -0.000736095 -1.0842e-19 0)
(0.00132233 -0.000129563 0 -0.000282544 -3.38813e-20 0)
(0.00088353 0.00040841 -8.67362e-19 -0.00191691 0 0)
(0.0010594 -0.000532196 0 -0.000307249 -2.71051e-20 0)
(0.00314836 3.13832e-06 -4.33681e-19 -0.00137782 8.67362e-19 0)
(0.00153761 -0.00014353 -1.73472e-18 -0.000314085 1.35525e-20 0)
(0.00172128 -0.000127143 3.46945e-18 -0.00067149 -3.25261e-19 0)
(0.0020106 -0.00078034 -8.67362e-19 -0.000975043 -5.42101e-20 0)
(0.000660446 -0.000210069 -1.73472e-18 -0.00138915 0 0)
(0.00208095 -0.000666394 -2.60209e-18 -0.000899711 -5.42101e-20 0)
(0.00162459 -0.000901405 2.60209e-18 -0.000986277 -5.42101e-20 0)
(0.00104192 -0.000289413 2.60209e-18 -0.000224577 -1.35525e-20 0)
(0.00207216 -0.000415114 -2.60209e-18 -0.000872653 0 0)
(0.00199625 -0.000532399 -3.46945e-18 -0.000806921 3.25261e-19 0)
(0.00324214 -0.000787842 1.73472e-18 -0.00137213 -1.73472e-18 0)
(0.00138134 -0.000710628 0 -0.000490886 1.35525e-19 0)
(0.000675003 -3.63147e-05 8.67362e-19 -0.00178793 5.42101e-20 0)
(0.000610118 -0.000500369 1.73472e-18 -0.000702942 -1.35525e-19 0)
(0.00155709 -0.000179118 5.20417e-18 -0.000363908 -2.71051e-20 0)
(0.00190277 -0.000674148 8.67362e-19 -0.00131451 -2.1684e-19 0)
(0.00178589 -0.000565411 -1.73472e-18 -0.000658136 -1.0842e-19 0)
(0.00201776 -0.000329905 -8.67362e-19 -0.000815392 3.25261e-19 0)
(0.00214537 -0.000405921 8.67362e-19 -0.000875831 2.1684e-19 0)
(0.000400875 0.000157672 -8.67362e-19 -0.000662364 -2.1684e-19 0)
(0.00392607 -0.000141017 2.38524e-18 -0.0019361 -1.30104e-18 0)
(0.00148184 -0.000665413 0 -0.000500919 5.42101e-20 0)
(0.00249126 -0.000498265 0 -0.00156952 0 0)
(0.00195493 -0.000800444 -8.67362e-19 -0.0013921 1.0842e-19 0)
(0.00384028 4.07628e-05 8.67362e-19 -0.00100958 -1.73472e-18 0)
(0.00459915 -0.000318489 1.73472e-18 -0.00197175 0 0)
(0.000867765 -0.000409574 0 -0.00130114 3.25261e-19 0)
(0.00173336 -0.000183859 3.46945e-18 -0.000645331 1.0842e-19 0)
(0.00193663 -0.000315599 2.60209e-18 -0.000772404 -1.0842e-19 0)
(0.00244438 -0.000547139 8.67362e-19 -0.00109277 -3.25261e-19 0)
(0.00232083 -0.000617234 8.67362e-19 -0.00105685 -3.25261e-19 0)
(0.00167236 -0.000607536 1.73472e-18 -0.000580493 2.1684e-19 0)
(0.00179151 0.000131083 0 -0.000753754 0 0)
(0.00330864 0.000429488 1.73472e-18 -0.00163642 -1.73472e-18 0)
(0.000840008 -0.000334159 -1.73472e-18 -0.000201038 1.35525e-20 0)
(0.00147953 -1.426e-05 -1.73472e-18 -0.000154994 1.35525e-20 0)
(0.0017373 -2.77875e-06 1.73472e-18 -0.000741096 -2.1684e-19 0)
(0.00173562 -0.00016112 -3.46945e-18 -0.000662444 3.25261e-19 0)
(0.0011332 -0.000841834 -8.67362e-19 -0.000651385 0 0)
(0.00483691 -0.0019312 2.1684e-18 -0.00156892 -1.73472e-18 0)
(0.00207696 -0.000751903 0 -0.00131441 2.1684e-19 0)
(0.00142589 -0.000582005 2.60209e-18 -0.000438063 -2.71051e-20 0)
(0.0013888 -0.000689469 -2.60209e-18 -0.000495283 1.6263e-19 0)
(0.00126019 -0.000652953 3.46945e-18 -0.00040702 -5.42101e-20 0)
(0.00173862 -8.43927e-06 -4.33681e-18 -0.000734328 -1.0842e-19 0)
(0.000742238 -0.000571326 2.60209e-18 -0.000863049 -1.0842e-19 0)
(0.0016088 -0.000195519 3.46945e-18 -0.000476903 0 0)
(0.00112782 -0.000774341 -4.33681e-18 -0.000628387 0 0)
(0.00156851 -4.08829e-05 1.73472e-18 -0.000362892 0 0)
(0.00416444 5.90431e-06 1.73472e-18 -0.00193469 -3.03577e-18 0)
(0.00171222 -0.000166482 3.46945e-18 -0.000658434 -1.0842e-19 0)
(0.00150042 -3.27663e-05 8.67362e-18 -0.000207892 -6.77626e-21 0)
(0.00427746 0.000124263 1.51788e-18 -0.00188532 -3.46945e-18 0)
(0.00139174 -0.000302675 -2.60209e-18 -0.000334936 2.71051e-20 0)
(0.00152853 -0.000160897 3.46945e-18 -0.000336389 0 0)
(0.00304478 0.000150832 2.1684e-19 -0.00131027 0 0)
(0.00285543 -0.00143379 2.60209e-18 -0.0011299 0 0)
(0.00149399 -0.000333848 -3.46945e-18 -0.000401672 8.13152e-20 0)
(0.000617916 -0.000672223 3.46945e-18 -0.0006586 -5.42101e-20 0)
(0.00238293 -0.000361089 -1.73472e-18 -0.000990482 5.42101e-19 0)
(0.00250234 -0.000526949 0 -0.00111583 -1.0842e-19 0)
(0.00168676 -0.000381566 2.60209e-18 -0.000572789 -2.1684e-19 0)
(0.00166753 -0.000395664 0 -0.000555971 5.42101e-20 0)
(0.0016731 -0.000599777 1.73472e-18 -0.000609246 -5.42101e-20 0)
(0.001852 0.000408644 1.89735e-19 -0.000710259 -8.67362e-19 0)
(0.00210822 -0.000122781 -8.67362e-19 -0.000916849 1.0842e-19 0)
(0.000534362 -8.61467e-05 0 -0.000197994 0 0)
(0.00228022 -0.000422568 -8.67362e-19 -0.00097407 -1.0842e-19 0)
(0.00170026 -0.000682019 -4.33681e-18 -0.00129104 1.0842e-19 0)
(0.00169408 -0.000519391 2.60209e-18 -0.00061203 -2.1684e-19 0)
(0.00343661 1.0388e-05 4.33681e-19 -0.00150119 -4.33681e-19 0)
(0.000758258 -0.000233733 2.60209e-18 -0.000176202 3.38813e-21 0)
(0.00278699 0.000246751 -2.1684e-19 -0.00116992 -8.67362e-19 0)
(0.0017362 -0.000784615 5.20417e-18 -0.000789475 -2.71051e-19 0)
(0.00118856 -0.000322119 -8.67362e-19 -0.000260038 0 0)
(0.00112017 -0.000333474 -3.46945e-18 -0.000253663 2.71051e-20 0)
(0.00296985 0.000875758 0 -0.00108794 -8.67362e-19 0)
(0.00250694 -0.00049411 -1.73472e-18 -0.001115 3.25261e-19 0)
(0.00263122 -0.000413085 2.60209e-18 -0.00111664 -2.1684e-19 0)
(0.00157425 -0.000364474 -3.46945e-18 -0.000472748 0 0)
(0.00731228 -0.000886939 4.06576e-18 -0.0032042 0 0)
(0.00179778 -0.000830432 1.73472e-18 -0.000857513 -1.0842e-19 0)
(0.00139168 -0.000351303 1.73472e-18 -0.00036287 0 0)
(0.00184711 -0.000779299 -1.73472e-18 -0.00112927 2.1684e-19 0)
(0.00147314 -9.98711e-06 -1.73472e-18 -0.000133889 1.01644e-20 0)
(0.00173694 2.55139e-06 1.73472e-18 -0.0007438 -2.1684e-19 0)
(0.00317911 0.000167019 4.33681e-19 -0.00166437 4.33681e-19 0)
(0.00228 -0.000616199 -8.67362e-19 -0.000980211 -1.0842e-19 0)
(0.00152138 -0.000745634 2.60209e-18 -0.000574084 2.71051e-20 0)
(0.000641183 -0.000639403 0 -0.000901762 5.42101e-20 0)
(0.00236832 -7.40483e-05 2.60209e-18 -0.00102969 -2.1684e-19 0)
(0.00326447 2.26494e-06 1.73472e-18 -0.00175086 -1.73472e-18 0)
(0.00371016 -2.57096e-05 1.73472e-18 -0.00175115 4.33681e-19 0)
(0.000866089 -0.000235735 1.73472e-18 -0.00126047 -1.0842e-19 0)
(0.00179455 -0.000788491 -3.46945e-18 -0.00133222 -2.1684e-19 0)
(0.00182395 -0.000796026 1.73472e-18 -0.000810053 -2.71051e-19 0)
(0.00182682 -0.000321735 1.73472e-18 -0.00069034 -1.0842e-19 0)
(0.00219433 -0.000659078 2.60209e-18 -0.00101789 1.0842e-19 0)
(0.00216167 -0.000736193 0 -0.00105581 0 0)
(0.00179071 -5.48034e-05 0 -0.000765301 0 0)
(0.00858944 -0.000285234 3.14419e-18 -0.00544222 8.67362e-18 0)
(0.0021362 -0.000652384 -8.67362e-19 -0.00146254 -4.33681e-19 0)
(0.00164304 -0.000101016 0 -0.00055745 -1.0842e-19 0)
(0.00192149 -0.000674932 8.67362e-19 -0.00136368 2.1684e-19 0)
(0.00237914 -0.000266605 -2.60209e-18 -0.000986356 4.33681e-19 0)
(0.00155885 -0.00033911 3.46945e-18 -0.000434558 -5.42101e-20 0)
(0.00367088 0.000812393 1.0842e-19 -0.00131014 -1.73472e-18 0)
(0.0014679 -1.89802e-05 0 -0.000135841 9.31736e-21 0)
(0.00174174 -1.95482e-06 1.73472e-18 -0.000743256 -1.0842e-19 0)
(0.00152298 -0.000435661 8.67362e-19 -0.000439847 -5.42101e-20 0)
(0.00146203 -0.000293548 -6.93889e-18 -0.000375716 2.71051e-20 0)
(0.00154268 -3.56497e-05 0 -0.000302923 1.35525e-20 0)
(0.002098 -0.000176704 -2.60209e-18 -0.000887705 1.0842e-19 0)
(0.00333331 0.00010612 4.33681e-19 -0.00142257 0 0)
(0.00180045 -0.000446239 0 -0.000658774 -5.42101e-20 0)
(0.00175835 -0.00046775 0 -0.000654776 0 0)
(0.00152262 -0.000317122 1.73472e-18 -0.000405981 0 0)
(0.00174308 -0.000530588 8.67362e-19 -0.000625412 -5.42101e-20 0)
(0.00120934 -0.000308687 3.46945e-18 -0.000273713 -2.71051e-20 0)
(0.00154673 -0.000345802 -1.73472e-18 -0.000428443 0 0)
(0.00188448 -0.000771328 0 -0.000896446 2.1684e-19 0)
(0.000675447 0.000297154 -1.73472e-18 -0.00133081 4.33681e-19 0)
(0.00123792 -0.000471666 8.67362e-19 -0.000336715 -1.35525e-20 0)
(0.00279838 -0.00024775 -8.67362e-19 -0.00163691 0 0)
(0.00166648 -0.00030731 3.46945e-18 -0.000524528 -2.71051e-19 0)
(0.00229048 -0.000600104 3.46945e-18 -0.00102188 0 0)
(0.00219303 -0.000453718 -8.67362e-19 -0.000915689 -3.25261e-19 0)
(0.00200951 -0.000522437 1.73472e-18 -0.000801284 -3.25261e-19 0)
(0.00310787 0.00035002 1.0842e-18 -0.00141185 0 0)
(0.00248567 -0.000489921 1.73472e-18 -0.0010545 -1.0842e-19 0)
(0.00240409 -0.000538787 -8.67362e-19 -0.00105821 -3.25261e-19 0)
(0.00148298 -4.50252e-05 6.93889e-18 -0.000268587 -2.03288e-20 0)
(0.00335625 -0.00145098 0 -0.00128535 0 0)
(0.00152858 -0.000219668 0 -0.000364024 -5.42101e-20 0)
(0.00111341 -0.00047211 -1.73472e-18 -0.000292027 4.06576e-20 0)
(0.00185819 -0.000413945 -8.67362e-19 -0.000699993 1.0842e-19 0)
(0.00167071 -0.000304566 -6.93889e-18 -0.000569078 5.42101e-20 0)