/*--------------------------------*- C++ -*----------------------------------*\
| =========                 |                                                 |
| \\      /  F ield         | OpenFOAM: The Open Source CFD Toolbox           |
|  \\    /   O peration     | Version:  v2012                                 |
|   \\  /    A nd           | Website:  www.openfoam.com                      |
|    \\/     M anipulation  |                                                 |
\*---------------------------------------------------------------------------*/
FoamFile
{
    version     2.0;
    format      ascii;
    class       volScalarField;
    location    "10";
    object      sigmaEq;
}
// * * * * * * * * * * * * * * * * * * * * * * * * * * * * * * * * * * * * * //

dimensions      [1 -1 -2 0 0 0 0];


internalField   nonuniform List<scalar> 
1896
(
9.21134e+07
1.17117e+08
8.73507e+07
2.43e+08
9.24398e+07
9.09501e+07
2.43e+08
8.78132e+07
1.47358e+08
8.31812e+07
8.84895e+07
7.31058e+07
6.16103e+07
6.84916e+07
2.33207e+08
1.71741e+08
1.35709e+08
2.43e+08
1.44172e+08
9.69685e+07
1.69346e+08
1.15316e+08
2.14087e+08
2.25784e+08
1.20985e+08
1.19721e+08
6.00725e+07
6.03446e+07
8.92058e+07
1.59496e+08
1.5259e+08
1.1912e+08
5.66841e+07
1.18951e+08
2.02991e+08
8.86658e+07
1.48881e+08
1.09919e+08
2.43e+08
1.63666e+08
1.19823e+08
1.70765e+08
1.36003e+08
2.06724e+08
6.00879e+07
5.41781e+07
2.40697e+08
8.8888e+07
2.07807e+08
2.37658e+08
8.99172e+07
9.0374e+07
8.83184e+07
1.15516e+08
1.42964e+08
1.26396e+08
1.74318e+08
9.17729e+07
1.06053e+08
1.60462e+08
8.48551e+07
2.32217e+08
2.30864e+08
9.93772e+07
9.71318e+07
1.19219e+08
2.08804e+08
9.68199e+07
1.07525e+08
2.07961e+08
3.40915e+07
2.23957e+08
1.09495e+08
1.22953e+08
2.1465e+08
1.17614e+08
1.19243e+08
9.84989e+07
1.01295e+08
1.19934e+08
1.74267e+08
2.20697e+08
6.90301e+07
8.82189e+07
8.35593e+07
1.30706e+08
1.05297e+08
1.03456e+08
1.69463e+08
1.22813e+08
1.10046e+08
2.43e+08
1.23588e+08
2.10054e+08
2.24714e+08
1.18674e+08
1.14495e+08
8.60706e+07
1.17078e+08
1.16748e+08
1.16838e+08
9.28911e+07
9.92742e+07
1.20359e+08
1.47014e+08
1.35589e+08
1.28573e+08
2.09408e+08
2.00136e+08
2.43e+08
8.49164e+07
1.17163e+08
1.85386e+08
1.76462e+08
2.43e+08
1.11643e+08
7.05904e+07
1.14432e+08
1.86758e+08
1.55382e+08
1.86575e+08
1.39328e+08
1.10391e+08
7.44762e+07
7.47564e+07
1.69483e+08
2.10785e+08
8.63757e+07
1.47979e+08
1.24751e+08
1.2851e+08
1.11027e+08
1.94929e+08
2.09764e+08
1.42204e+08
2.27305e+08
2.26341e+08
2.29284e+08
1.20166e+08
1.71914e+08
1.10372e+08
1.96913e+08
1.61513e+08
2.31172e+08
9.92822e+07
1.31832e+08
1.2864e+08
1.49369e+08
2.19655e+08
1.1211e+08
6.75701e+07
1.15359e+08
1.11265e+08
1.04047e+08
1.04872e+08
1.87553e+08
6.55388e+07
1.84985e+08
2.43e+08
8.79054e+07
8.96953e+07
2.2925e+08
1.40817e+08
1.04615e+08
2.43e+08
8.15957e+07
1.684e+08
9.05411e+07
8.82291e+07
1.15343e+08
1.17151e+08
1.20463e+08
6.42468e+07
6.71195e+07
2.3628e+08
2.34438e+08
2.13216e+08
1.19674e+08
8.58315e+07
1.35388e+08
6.29533e+07
1.60291e+08
1.04224e+08
2.13312e+08
2.33355e+08
2.43e+08
1.09579e+08
2.26235e+08
1.99229e+08
7.03628e+07
2.21395e+08
8.65701e+07
1.99908e+08
2.39991e+08
1.36312e+08
8.05284e+07
1.38212e+08
1.93288e+08
8.06309e+07
6.78203e+07
1.02471e+08
1.45585e+08
8.93413e+07
1.05058e+08
2.43e+08
1.02621e+08
2.09362e+08
1.9291e+08
1.41054e+08
1.25774e+08
2.16151e+08
1.48512e+08
1.26984e+08
1.2786e+08
8.20996e+07
1.37322e+08
1.62135e+08
1.81463e+08
1.71664e+08
1.56239e+08
9.18021e+07
1.06051e+08
2.35976e+08
2.04538e+08
1.14904e+08
1.63044e+08
2.11551e+08
1.26738e+08
1.76917e+08
1.19422e+08
1.841e+08
8.85968e+07
8.53844e+07
8.20081e+07
1.19256e+08
9.54684e+07
9.17119e+07
1.96555e+08
2.43e+08
1.54265e+08
2.13119e+08
2.13595e+08
8.43974e+07
2.43e+08
1.13955e+08
7.14338e+07
1.06056e+08
6.72248e+07
6.55943e+07
1.82489e+08
1.53897e+08
1.43447e+08
1.17943e+08
8.54965e+07
1.18847e+08
1.11581e+08
1.07003e+08
2.43e+08
2.30222e+08
2.02841e+08
1.46725e+08
1.15929e+08
1.07127e+08
9.35866e+07
1.36675e+08
1.60277e+08
1.5147e+08
1.11923e+08
1.57538e+08
1.09193e+08
1.1395e+08
6.29627e+07
2.2808e+08
5.96115e+07
1.34536e+08
8.88886e+07
1.98146e+08
9.68615e+07
1.13742e+08
8.66774e+07
1.21526e+08
1.90538e+08
7.54677e+07
1.18036e+08
1.24765e+08
1.78034e+08
1.24896e+08
1.13395e+08
1.18743e+08
8.59362e+07
1.43477e+08
1.43986e+08
1.48341e+08
1.28032e+08
2.43e+08
4.00438e+07
1.6968e+08
1.09408e+08
2.43e+08
8.83433e+07
2.43e+08
1.47566e+08
2.15077e+08
2.43e+08
1.10441e+08
9.88511e+07
9.73749e+07
6.88978e+07
7.38897e+07
1.12028e+08
1.04904e+08
1.24314e+08
6.14449e+07
8.71178e+07
1.16581e+08
1.48771e+08
7.62129e+07
1.07736e+08
1.44185e+08
1.03442e+08
9.92799e+07
2.15999e+08
2.09318e+08
1.48662e+08
8.87942e+07
1.29412e+08
1.41807e+08
7.37691e+07
9.41885e+07
1.14744e+08
1.01269e+08
1.44284e+08
8.45303e+07
1.18755e+08
8.08114e+07
1.38848e+08
8.32777e+07
2.16381e+08
9.33831e+07
1.15713e+08
1.59556e+08
9.95173e+07
1.55543e+08
1.4895e+08
6.85626e+07
1.46285e+08
1.4345e+08
2.3288e+08
1.12203e+08
1.18744e+08
7.70274e+07
9.66209e+07
1.6344e+08
1.29197e+08
1.39461e+08
1.49833e+08
5.21928e+07
2.43e+08
1.14445e+08
1.96555e+08
1.73676e+08
2.38685e+08
2.43e+08
1.08741e+08
1.16e+08
1.33445e+08
1.76451e+08
1.71116e+08
1.22928e+08
1.22547e+08
2.38342e+08
6.01992e+07
8.41611e+07
1.18645e+08
1.16472e+08
1.15143e+08
2.43e+08
1.74211e+08
1.05872e+08
1.11502e+08
1.01392e+08
1.18449e+08
9.19429e+07
1.03542e+08
1.10014e+08
9.58117e+07
2.43e+08
1.15183e+08
8.69848e+07
2.43e+08
8.99426e+07
9.39056e+07
2.08859e+08
2.33619e+08
9.82276e+07
8.64593e+07
1.65184e+08
1.79656e+08
1.15188e+08
1.14054e+08
1.236e+08
1.29127e+08
1.45119e+08
3.62336e+07
1.60684e+08
1.53704e+08
1.2149e+08
2.36084e+08
5.11822e+07
1.90977e+08
1.40982e+08
7.80426e+07
7.49389e+07
2.12235e+08
1.79039e+08
1.83553e+08
1.05578e+08
2.43e+08
1.48227e+08
9.2385e+07
1.57861e+08
8.31673e+07
1.18732e+08
2.30042e+08
1.66255e+08
1.22617e+08
9.37139e+07
1.6265e+08
2.37399e+08
2.43e+08
1.02127e+08
1.63776e+08
1.46095e+08
1.24959e+08
1.64983e+08
1.67667e+08
1.22454e+08
2.43e+08
1.79425e+08
1.0711e+08
1.66302e+08
1.63262e+08
1.0275e+08
2.43e+08
8.29593e+07
1.18958e+08
1.04304e+08
9.45993e+07
9.23701e+07
1.43939e+08
2.2788e+08
1.2581e+08
1.24293e+08
9.93316e+07
1.24711e+08
7.90329e+07
1.02129e+08
1.50664e+08
9.91569e+07
8.89692e+07
2.1045e+08
1.10479e+08
1.67802e+08
1.54882e+08
1.4357e+08
2.18111e+08
1.75572e+08
1.72932e+08
8.808e+07
2.43e+08
9.58745e+07
8.19943e+07
1.29204e+08
1.1223e+08
1.11529e+08
1.05152e+08
1.5124e+08
7.59103e+07
1.17286e+08
1.17609e+08
1.14361e+08
8.1104e+07
1.06699e+08
9.71692e+07
1.03429e+08
2.43e+08
8.00049e+07
1.61975e+08
1.2023e+08
1.52901e+08
1.74074e+08
1.24026e+08
1.49062e+08
9.52587e+07
2.43e+08
2.43e+08
1.1889e+08
1.30275e+08
7.34837e+07
1.35736e+08
1.1467e+08
1.20969e+08
9.12937e+07
1.99046e+08
9.08649e+07
5.94186e+07
7.22559e+07
1.95776e+08
1.27989e+08
1.70319e+08
1.26433e+08
1.58596e+08
5.34728e+07
9.54184e+07
1.35679e+08
2.02725e+08
6.80076e+07
1.19503e+08
1.00859e+08
1.00283e+08
8.86353e+07
1.12727e+08
2.1369e+08
9.16602e+07
2.20346e+08
1.05413e+08
1.08291e+08
2.27676e+08
1.13837e+08
1.11565e+08
8.85646e+07
1.07753e+08
6.88472e+07
1.50006e+08
9.98357e+07
7.44468e+07
1.22856e+08
9.43238e+07
1.25084e+08
2.00254e+08
2.43e+08
4.15105e+07
1.58786e+08
9.51948e+07
9.22664e+07
1.23241e+08
1.85958e+08
8.50593e+07
1.04942e+08
1.03255e+08
8.67251e+07
2.19667e+08
1.7454e+08
1.57984e+08
6.42911e+07
1.99098e+08
1.53314e+08
1.88724e+08
1.18213e+08
1.91479e+08
1.97095e+08
1.1457e+08
1.30826e+08
2.10103e+08
1.08618e+08
2.43e+08
5.09747e+07
1.30103e+08
1.80875e+08
1.14026e+08
1.25908e+08
6.94645e+07
5.87373e+07
2.43e+08
1.81742e+08
2.23706e+08
9.64024e+07
1.46529e+08
1.77751e+08
9.77077e+07
1.14918e+08
1.98915e+08
1.22635e+08
1.04489e+08
1.76051e+08
1.71607e+08
3.90562e+07
4.1195e+07
6.03154e+07
2.0868e+08
2.24286e+08
2.43e+08
1.85931e+08
4.74882e+07
2.43e+08
5.85009e+07
1.16891e+08
1.66745e+08
1.87035e+08
1.19193e+08
1.67294e+08
2.23853e+08
1.49122e+08
2.43e+08
2.14532e+08
2.40553e+08
1.92643e+08
1.93826e+08
7.4178e+07
8.87009e+07
1.05025e+08
6.9114e+07
9.13297e+07
2.43e+08
5.05629e+07
1.08564e+08
9.32551e+07
2.43e+08
1.8625e+08
6.37736e+07
5.33641e+07
1.87582e+08
1.32397e+08
2.23259e+08
6.70048e+07
1.08428e+08
2.27873e+08
2.30647e+08
8.02536e+07
1.19893e+08
5.45504e+07
2.43e+08
1.39556e+08
2.03217e+08
1.70162e+08
1.01359e+08
1.02328e+08
1.38275e+08
1.99981e+08
1.01458e+08
9.09398e+07
8.9632e+07
2.29184e+08
2.43e+08
1.27927e+08
1.39481e+08
1.60612e+08
8.96279e+07
2.26666e+08
1.3084e+08
1.53436e+08
8.77269e+07
1.8441e+08
1.46279e+08
2.19297e+08
1.08255e+08
1.98718e+08
1.3914e+08
1.61982e+08
1.9123e+08
1.23767e+08
1.16926e+08
1.24861e+08
1.77208e+08
1.88259e+08
1.87823e+08
1.14141e+08
9.035e+07
1.57048e+08
1.4247e+08
1.37644e+08
1.0219e+08
1.5861e+08
1.57937e+08
1.19716e+08
2.43e+08
2.06374e+08
2.43e+08
5.03329e+07
9.49311e+07
1.1933e+08
1.34957e+08
2.1424e+08
9.10067e+07
1.29263e+08
1.33275e+08
1.31584e+08
9.08692e+07
2.40416e+08
1.38159e+08
1.36462e+08
2.10234e+08
1.33998e+08
2.43e+08
1.21556e+08
1.20041e+08
1.23608e+08
1.27509e+08
2.43e+08
1.2288e+08
8.8859e+07
1.37872e+08
1.40986e+08
1.39646e+08
1.36436e+08
1.63551e+08
1.2255e+08
2.18109e+08
5.43898e+07
2.17419e+08
1.72105e+08
8.23617e+07
1.74497e+08
1.47835e+08
2.233e+08
8.86186e+07
2.03009e+08
2.43e+08
2.07275e+08
1.29408e+08
1.07778e+08
1.27717e+08
2.24912e+08
4.22764e+07
2.08555e+08
4.74692e+07
8.07375e+07
1.19438e+08
1.26167e+08
2.04278e+08
1.32339e+08
5.56789e+07
1.03582e+08
6.14647e+07
1.35484e+08
2.23527e+08
1.17228e+08
1.42919e+08
1.43074e+08
5.52455e+07
1.29639e+08
1.81146e+08
8.50413e+07
4.81779e+07
8.83374e+07
9.61339e+07
1.1526e+08
2.43e+08
1.61794e+08
1.03362e+08
1.98089e+08
1.33837e+08
1.88109e+08
1.33889e+08
6.14889e+07
1.50703e+08
2.18071e+08
1.12634e+08
2.22367e+08
2.43e+08
1.53781e+08
2.19153e+08
1.41531e+08
5.32885e+07
1.50087e+08
1.84502e+08
1.99314e+08
2.29201e+08
2.19326e+08
4.35798e+07
1.49426e+08
2.23449e+08
2.27349e+08
1.48011e+08
1.181e+08
1.45813e+08
1.47696e+08
9.061e+07
1.98573e+08
9.2514e+07
1.8138e+08
1.80167e+08
2.32995e+08
1.00746e+08
9.6618e+07
7.6183e+07
7.37031e+07
1.09772e+08
2.43e+08
1.14403e+08
2.23524e+08
1.85971e+08
9.60875e+07
5.40021e+07
8.34709e+07
9.92389e+07
1.77257e+08
1.40727e+08
4.45751e+07
1.01576e+08
1.11667e+08
1.03968e+08
8.11873e+07
1.04737e+08
7.97507e+07
9.2169e+07
1.60659e+08
1.69058e+08
1.66927e+08
4.47003e+07
1.34084e+08
6.56153e+07
9.00792e+07
1.27875e+08
1.14955e+08
2.43e+08
8.76924e+07
1.39291e+08
9.29331e+07
2.3375e+08
1.74139e+08
9.01155e+07
1.77687e+08
2.26857e+08
1.25883e+08
9.66967e+07
8.68818e+07
1.20231e+08
1.75222e+08
9.69972e+07
6.35005e+07
6.70893e+07
2.28641e+08
7.02349e+07
1.23071e+08
1.59288e+08
7.5957e+07
1.23672e+08
1.85509e+08
1.1992e+08
1.14717e+08
1.20453e+08
1.30481e+08
1.25629e+08
1.63747e+08
1.08356e+08
1.22281e+08
9.37049e+07
2.2493e+08
3.89226e+07
1.24249e+08
1.21638e+08
9.76516e+07
1.09925e+08
1.40611e+08
2.9763e+07
2.43e+08
1.05134e+08
1.38959e+08
3.78397e+07
1.25436e+08
2.1748e+08
2.2872e+08
2.24966e+08
1.32385e+08
1.07897e+08
1.02844e+08
1.08601e+08
1.92846e+08
1.17882e+08
1.27069e+08
1.99485e+08
1.40802e+08
1.67481e+08
1.18902e+08
1.16215e+08
8.70454e+07
2.40893e+08
1.13028e+08
1.49864e+08
1.5324e+08
2.04874e+08
9.93947e+07
1.57977e+08
8.60119e+07
9.65536e+07
2.43e+08
6.45212e+07
2.36189e+08
1.48674e+08
1.49302e+08
2.23394e+08
8.52593e+07
8.53144e+07
1.17517e+08
1.17561e+08
8.62417e+07
5.18261e+07
9.75565e+07
9.80068e+07
6.73218e+07
6.93104e+07
1.20858e+08
1.80464e+08
2.19423e+08
1.06819e+08
1.3561e+08
1.28748e+08
1.64127e+08
2.05468e+08
1.77978e+08
1.05459e+08
1.71477e+08
2.03907e+08
2.43e+08
1.71523e+08
1.72895e+08
8.63394e+07
2.06809e+08
7.96189e+07
8.40934e+07
1.71203e+08
2.08121e+08
1.23184e+08
1.39387e+08
2.02269e+08
9.19722e+07
7.49936e+07
1.11471e+08
9.28163e+07
8.53973e+07
2.43e+08
1.30601e+08
1.57677e+08
1.22293e+08
1.20186e+08
8.71659e+07
2.01011e+08
1.90449e+08
2.04685e+08
1.52435e+08
1.94257e+08
1.6286e+08
1.39659e+08
1.1431e+08
1.19204e+08
1.36978e+08
1.61574e+08
1.95392e+08
1.16885e+08
2.43e+08
1.48534e+08
1.8516e+08
1.49442e+08
1.92348e+08
1.85332e+08
7.317e+07
1.93755e+08
7.38194e+07
1.29516e+08
1.45857e+08
1.75343e+08
9.50522e+07
2.43e+08
2.27001e+08
1.45773e+08
2.35191e+08
9.81961e+07
9.60861e+07
1.9897e+08
9.05516e+07
9.38424e+07
2.13824e+08
8.4712e+07
5.50298e+07
1.81421e+08
1.18573e+08
9.92215e+07
1.25343e+08
9.28622e+07
1.56141e+08
1.55654e+08
2.43e+08
8.839e+07
1.68154e+08
1.99968e+08
9.58954e+07
1.02052e+08
2.37229e+08
2.43e+08
1.32244e+08
1.07177e+08
1.53937e+08
1.57347e+08
1.29956e+08
1.6557e+08
1.95008e+08
8.80314e+07
1.24353e+08
1.33669e+08
2.33674e+08
8.83959e+07
1.40637e+08
8.86914e+07
1.82628e+08
3.619e+07
2.43e+08
7.50888e+07
2.43e+08
1.21523e+08
9.10907e+07
9.19694e+07
2.30605e+08
1.38174e+08
1.16794e+08
1.90306e+08
1.67546e+08
1.56969e+08
9.9318e+07
2.0807e+08
7.51317e+07
3.51985e+07
7.82409e+07
9.13758e+07
2.1967e+08
9.90748e+07
9.81331e+07
8.096e+07
1.3876e+08
1.29302e+08
2.15581e+08
9.62051e+07
1.98046e+08
1.21001e+08
1.80459e+08
1.7828e+08
2.2517e+08
2.28829e+08
8.72786e+07
1.17839e+08
1.39407e+08
2.13125e+08
1.27372e+08
9.42685e+07
1.14392e+08
1.1311e+08
2.02235e+08
2.43e+08
8.77009e+07
1.17978e+08
1.67053e+08
8.33499e+07
1.36535e+08
2.20607e+08
1.14926e+08
1.12715e+08
1.48457e+08
1.46352e+08
1.34058e+08
2.43e+08
1.12077e+08
4.81335e+07
9.00442e+07
2.43e+08
1.09419e+08
1.18209e+08
1.61923e+08
8.74805e+07
1.0861e+08
1.93043e+08
2.03174e+08
2.16423e+08
1.73507e+08
1.61727e+08
2.01924e+08
1.53941e+08
1.58796e+08
1.64685e+08
7.91486e+07
7.72036e+07
1.00994e+08
9.91335e+07
1.87517e+08
2.00315e+08
1.66203e+08
2.43e+08
9.40338e+07
5.92231e+07
1.20842e+08
1.99327e+08
8.15555e+07
7.91468e+07
1.94325e+08
4.21475e+07
1.13595e+08
1.37977e+08
1.38734e+08
2.43e+08
1.97205e+08
9.09196e+07
2.36869e+08
1.85777e+08
8.40158e+07
8.24139e+07
1.96004e+08
1.89629e+08
1.02006e+08
1.6944e+08
2.06509e+08
2.43e+08
7.52451e+07
1.24792e+08
1.70148e+08
9.49022e+07
9.37227e+07
8.20615e+07
1.00042e+08
2.43e+08
1.23093e+08
9.57939e+07
1.23992e+08
8.17743e+07
1.55446e+08
9.22005e+07
1.79457e+08
2.43e+08
9.84774e+07
9.82145e+07
7.30755e+07
2.26812e+08
1.11659e+08
2.15168e+08
2.03502e+08
1.97213e+08
8.66192e+07
7.29545e+07
6.26501e+07
8.17537e+07
1.20174e+08
4.59373e+07
1.37054e+08
1.86064e+08
1.89409e+08
7.45574e+07
7.80219e+07
1.71849e+08
5.6534e+07
7.82467e+07
2.19001e+08
1.32882e+08
1.21343e+08
4.79531e+07
9.3358e+07
8.7575e+07
3.42884e+07
2.0338e+08
1.03582e+08
1.26118e+08
2.14061e+08
7.88121e+07
1.02485e+08
1.1242e+08
2.16799e+08
2.16095e+08
2.2741e+08
2.26593e+08
8.5324e+07
2.0871e+08
8.30207e+07
1.32245e+08
5.32838e+07
1.75896e+08
1.32117e+08
1.85035e+08
1.56746e+08
1.66084e+08
1.21158e+08
9.08242e+07
1.61415e+08
1.22403e+08
1.33968e+08
1.32621e+08
9.99955e+07
1.4123e+08
7.74455e+07
1.15391e+08
8.678e+07
1.54615e+08
7.24331e+07
7.19857e+07
1.67261e+08
1.24888e+08
1.30223e+08
1.72725e+08
1.94106e+08
1.67497e+08
2.20302e+08
1.13814e+08
1.14966e+08
2.20319e+08
1.32355e+08
1.31213e+08
1.94624e+08
8.85002e+07
8.90635e+07
2.37165e+08
4.5167e+07
5.51634e+07
1.88399e+08
1.84129e+08
1.1334e+08
1.15377e+08
1.02272e+08
9.90743e+07
6.80501e+07
1.63569e+08
1.04667e+08
1.04434e+08
3.69475e+07
6.16597e+07
1.11477e+08
1.0799e+08
1.04972e+08
1.09517e+08
1.78681e+08
1.13255e+08
1.31687e+08
1.69001e+08
1.26137e+08
8.73911e+07
1.12486e+08
9.53293e+07
9.00258e+07
1.00438e+08
8.55973e+07
4.06191e+07
7.82213e+07
7.95432e+07
1.12159e+08
2.43e+08
1.25383e+08
1.32639e+08
2.09511e+08
1.3992e+08
2.17958e+08
2.31893e+08
1.42931e+08
1.28167e+08
7.68307e+07
8.86567e+07
1.09521e+08
4.38155e+07
4.20801e+07
1.18183e+08
4.41134e+07
7.91508e+07
1.04356e+08
7.87199e+07
1.09112e+08
1.15677e+08
2.43e+08
1.19048e+08
2.43e+08
2.24002e+08
1.89886e+08
1.98647e+08
9.38077e+07
9.30418e+07
9.16437e+07
1.32462e+08
1.0881e+08
7.98692e+07
9.8581e+07
2.14478e+08
1.99735e+08
2.22145e+08
2.07706e+08
1.48863e+08
1.84592e+08
1.858e+08
2.25054e+08
1.19343e+08
1.13837e+08
1.74228e+08
9.45441e+07
1.15567e+08
1.95818e+08
1.15738e+08
1.08295e+08
1.11189e+08
1.02992e+08
8.07783e+07
9.2575e+07
9.71546e+07
1.41395e+08
1.17982e+08
2.43e+08
1.78679e+08
1.79002e+08
2.24093e+08
1.48891e+08
6.09297e+07
6.55116e+07
1.27676e+08
2.19836e+08
8.38294e+07
1.67996e+08
1.27032e+08
1.17483e+08
1.42933e+08
1.45015e+08
2.43e+08
1.10431e+08
1.82125e+08
8.96873e+07
1.11961e+08
8.75381e+07
4.57835e+07
8.83656e+07
1.00093e+08
1.06246e+08
2.21802e+08
1.75059e+08
6.5782e+07
2.43e+08
1.00504e+08
1.99564e+08
8.95954e+07
8.46893e+07
1.26186e+08
1.37208e+08
1.31226e+08
1.69056e+08
1.51202e+08
8.26119e+07
1.18862e+08
1.09943e+08
2.37662e+08
2.43e+08
1.0613e+08
5.75329e+07
2.01129e+08
2.00764e+08
1.81198e+08
1.1224e+08
1.55019e+08
1.47506e+08
6.93983e+07
1.09578e+08
1.57481e+08
1.45001e+08
2.03423e+08
1.4497e+08
5.26717e+07
1.22414e+08
8.4528e+07
8.17343e+07
2.28926e+08
2.43e+08
8.68791e+07
8.85612e+07
1.01806e+08
4.02676e+07
9.28717e+07
9.07235e+07
1.55137e+08
9.6458e+07
1.11563e+08
9.61985e+07
9.00593e+07
2.15347e+08
2.16003e+08
1.44734e+08
5.06014e+07
3.39564e+07
1.38663e+08
4.8942e+07
1.8845e+08
1.91729e+08
1.84959e+08
1.13276e+08
1.28886e+08
9.35501e+07
9.09628e+07
2.25189e+08
1.33015e+08
1.0518e+08
1.19534e+08
1.31311e+08
2.43e+08
5.35812e+07
1.10837e+08
6.37094e+07
1.40673e+08
1.0904e+08
2.40017e+08
1.35659e+08
1.56978e+08
1.14155e+08
1.56482e+08
1.50148e+08
1.12155e+08
5.74876e+07
1.18099e+08
4.84369e+07
1.06666e+08
1.08375e+08
2.13261e+08
1.93847e+08
9.31932e+07
1.81185e+08
2.17489e+08
1.94571e+08
2.26013e+08
1.34939e+08
1.33725e+08
8.2891e+07
7.98922e+07
1.18563e+08
1.18945e+08
8.42499e+07
2.23003e+08
1.97213e+08
7.18305e+07
1.04107e+08
1.9334e+08
1.1066e+08
2.18948e+08
9.94913e+07
1.09251e+08
2.09669e+08
1.36896e+08
1.35142e+08
2.15526e+08
1.69748e+08
1.39614e+08
1.47434e+08
2.03067e+08
1.60964e+08
3.82062e+07
1.51002e+08
2.42368e+08
1.2858e+08
1.23138e+08
1.00018e+08
1.02329e+08
1.41466e+08
2.15992e+08
1.15625e+08
1.79131e+08
1.69803e+08
2.00614e+08
8.45126e+07
1.19431e+08
1.16229e+08
1.64931e+08
1.55928e+08
1.60419e+08
1.16602e+08
2.43e+08
1.67526e+08
9.35981e+07
1.96146e+08
6.10665e+07
6.54123e+07
1.36296e+08
1.31551e+08
2.1213e+08
2.03967e+08
2.1369e+08
1.06048e+08
1.40441e+08
2.06155e+08
1.50389e+08
8.1114e+07
1.39558e+08
5.71264e+07
8.74876e+07
2.10931e+08
1.26488e+08
1.18435e+08
7.25923e+07
1.70015e+08
2.28348e+08
3.69194e+07
1.0438e+08
8.01746e+07
7.79915e+07
2.1038e+08
1.33306e+08
1.20311e+08
2.06507e+08
9.11136e+07
1.61841e+08
1.13939e+08
1.21289e+08
1.13668e+08
2.27588e+08
1.66921e+08
1.14754e+08
1.64028e+08
7.42445e+07
1.55872e+08
1.31533e+08
1.37366e+08
1.3908e+08
2.19944e+08
1.63457e+08
9.58376e+07
9.15452e+07
1.03359e+08
2.17338e+08
2.20885e+08
1.77377e+08
1.19126e+08
1.1886e+08
2.14824e+08
2.08244e+08
1.57813e+08
8.54324e+07
1.14544e+08
1.96143e+08
1.70749e+08
2.11358e+08
1.7875e+08
1.12673e+08
1.69951e+08
2.21275e+08
2.24316e+08
1.81935e+08
1.35778e+08
1.35871e+08
1.33983e+08
2.17732e+08
1.04034e+08
1.03492e+08
1.01626e+08
1.01911e+08
1.3399e+08
1.33531e+08
1.83882e+08
6.17785e+07
9.67379e+07
1.75682e+08
2.31966e+08
9.83653e+07
9.8371e+07
1.84049e+08
1.34483e+08
1.27466e+08
7.89986e+07
7.85339e+07
8.74705e+07
2.43e+08
1.02796e+08
8.92844e+07
8.77592e+07
1.24208e+08
2.10608e+08
2.13934e+08
8.72636e+07
9.04456e+07
1.29663e+08
1.34363e+08
1.1852e+08
1.69986e+08
1.32918e+08
1.99937e+08
1.02115e+08
1.02322e+08
1.89228e+08
9.47589e+07
1.33797e+08
1.7065e+08
2.08231e+08
1.67373e+08
2.36664e+08
1.02508e+08
2.23503e+08
1.50336e+08
1.32674e+08
2.27659e+08
8.46415e+07
8.66734e+07
9.30463e+07
1.61219e+08
1.0551e+08
1.05628e+08
1.90334e+08
1.03233e+08
1.95825e+08
1.3064e+08
1.31209e+08
1.27818e+08
1.29065e+08
1.98729e+08
9.64737e+07
1.93632e+08
6.92697e+07
7.43995e+07
1.43063e+08
1.25738e+08
5.80506e+07
1.03674e+08
9.79097e+07
8.71867e+07
2.43e+08
1.0231e+08
5.38999e+07
1.1694e+08
1.02314e+08
1.501e+08
8.83422e+07
1.05415e+08
8.32832e+07
5.72788e+07
4.90783e+07
3.76173e+07
4.62639e+07
1.00973e+08
4.28727e+07
9.75992e+07
1.52015e+08
1.11914e+08
1.21473e+08
1.2043e+08
2.43e+08
1.8875e+08
1.89156e+08
2.24812e+08
1.94417e+08
2.06318e+08
8.48971e+07
1.18006e+08
2.20915e+08
3.10529e+07
1.9113e+08
1.02008e+08
9.57356e+07
1.30966e+08
1.2895e+08
9.06682e+07
9.08601e+07
1.57426e+08
1.0482e+08
9.64225e+07
1.20814e+08
1.64555e+08
1.61234e+08
2.34345e+08
2.36388e+08
1.69514e+08
1.29593e+08
2.43e+08
8.95463e+07
8.76535e+07
1.939e+08
9.44134e+07
2.2365e+08
1.21059e+08
2.0993e+08
1.26721e+08
1.35145e+08
9.59365e+07
2.18508e+08
8.31027e+07
1.21907e+08
9.37284e+07
9.37373e+07
1.49003e+08
1.5109e+08
2.06011e+08
9.3854e+07
9.47466e+07
7.96551e+07
1.32425e+08
1.34135e+08
1.21068e+08
8.29782e+07
2.15488e+08
1.23203e+08
7.82681e+07
8.22299e+07
1.39471e+08
1.98709e+08
2.11349e+08
2.27617e+08
9.60002e+07
2.21369e+08
2.21645e+08
1.72931e+08
1.18866e+08
1.17252e+08
1.16585e+08
1.17001e+08
1.53397e+08
2.13174e+08
1.20423e+08
1.03736e+08
1.31756e+08
1.28553e+08
3.18311e+07
1.9109e+08
1.83519e+08
1.46904e+08
1.00716e+08
1.52381e+08
1.24775e+08
8.09379e+07
1.50543e+08
1.03954e+08
1.25792e+08
1.3652e+08
1.65813e+08
2.06993e+08
1.25075e+08
1.27059e+08
1.25592e+08
1.95509e+08
2.43e+08
1.69168e+08
2.17446e+08
2.43e+08
2.25186e+08
9.52104e+07
2.09777e+08
1.05447e+08
8.49608e+07
1.50975e+08
9.69446e+07
9.96759e+07
9.18228e+07
1.27554e+08
1.30049e+08
2.21458e+08
1.34776e+08
1.89346e+08
1.24303e+08
1.43787e+08
1.4245e+08
2.19492e+08
7.9117e+07
1.79645e+08
7.27125e+07
9.34609e+07
1.38462e+08
2.1677e+08
9.46828e+07
1.83355e+08
1.12273e+08
8.71567e+07
9.35901e+07
9.55989e+07
8.85585e+07
1.65665e+08
1.27718e+08
1.74389e+08
1.32733e+08
1.76881e+08
1.23517e+08
2.43e+08
2.2974e+08
1.68214e+08
9.42805e+07
1.26328e+08
2.43e+08
1.5596e+08
2.43e+08
1.06814e+08
1.39449e+08
1.19966e+08
1.06277e+08
6.36646e+07
9.27978e+07
1.07322e+08
1.29092e+08
1.18291e+08
1.22023e+08
1.22882e+08
1.0905e+08
1.16254e+08
1.2656e+08
1.43148e+08
1.3854e+08
1.55043e+08
4.42891e+07
9.27195e+07
2.15325e+08
1.39031e+08
9.74012e+07
8.09343e+07
7.82417e+07
9.90439e+07
1.01723e+08
1.22563e+08
1.28496e+08
2.26264e+08
1.60878e+08
1.42223e+08
9.80624e+07
1.27216e+08
9.59649e+07
2.22273e+08
2.2602e+08
6.47375e+07
6.71919e+07
9.08284e+07
1.16392e+08
9.43027e+07
1.30311e+08
1.01031e+08
9.97375e+07
1.53391e+08
1.64146e+08
8.31986e+07
1.83807e+08
1.23745e+08
1.25079e+08
1.08333e+08
1.6553e+08
1.23683e+08
1.87169e+08
1.79317e+08
1.96881e+08
1.37749e+08
1.51338e+08
2.09037e+08
2.0603e+08
1.0006e+08
1.00839e+08
1.10759e+08
1.17865e+08
1.2507e+08
9.72402e+07
8.71088e+07
8.04687e+07
1.10418e+08
7.26268e+07
1.31806e+08
2.01243e+08
1.23197e+08
1.43595e+08
1.4145e+08
1.59683e+08
1.41996e+08
1.0129e+08
1.37741e+08
1.06546e+08
1.05783e+08
1.16148e+08
1.90402e+08
1.48123e+08
1.48369e+08
5.36071e+07
1.97192e+08
1.89571e+08
1.8674e+08
1.62505e+08
1.25164e+08
8.51522e+07
1.18593e+08
1.18685e+08
8.36355e+07
1.55659e+08
1.26117e+08
8.96312e+07
8.91645e+07
9.78952e+07
1.5375e+08
1.48462e+08
2.20583e+08
2.2486e+08
1.49435e+08
1.54674e+08
1.55024e+08
1.43109e+08
1.38149e+08
1.61241e+08
2.11678e+08
2.0354e+08
1.21199e+08
1.20692e+08
1.3599e+08
1.4594e+08
1.4506e+08
1.63145e+08
9.05508e+07
7.68219e+07
6.95254e+07
2.29622e+08
2.25633e+08
1.49715e+08
1.44307e+08
1.4934e+08
1.50349e+08
8.7414e+07
)
;

boundaryField
{
    back
    {
        type            empty;
    }
    front
    {
        type            empty;
    }
    down
    {
        type            calculated;
        value           nonuniform List<scalar> 
30
(
1.41054e+08
8.59362e+07
7.62129e+07
3.62336e+07
7.59103e+07
5.34728e+07
4.15105e+07
6.9114e+07
6.14889e+07
8.839e+07
3.51985e+07
8.24139e+07
3.42884e+07
8.85002e+07
4.5167e+07
8.55973e+07
4.06191e+07
7.95432e+07
6.5782e+07
5.26717e+07
8.2891e+07
8.42499e+07
3.82062e+07
1.06048e+08
7.25923e+07
5.80506e+07
8.71867e+07
4.90783e+07
8.48971e+07
3.10529e+07
)
;
    }
    right
    {
        type            calculated;
        value           nonuniform List<scalar> 
20
(
8.49164e+07
1.17163e+08
1.14904e+08
8.20081e+07
1.19256e+08
1.06056e+08
9.58117e+07
9.23701e+07
8.07375e+07
1.19438e+08
8.74805e+07
8.26119e+07
1.18862e+08
1.1224e+08
1.09578e+08
7.98922e+07
1.18945e+08
9.94913e+07
1.02796e+08
8.92844e+07
)
;
    }
    up
    {
        type            calculated;
        value           nonuniform List<scalar> 
40
(
1.22953e+08
2.1465e+08
2.2925e+08
2.39991e+08
1.18036e+08
1.43477e+08
1.6968e+08
1.44284e+08
2.08859e+08
1.6265e+08
2.43e+08
9.43238e+07
1.8441e+08
2.40416e+08
1.33998e+08
2.07275e+08
1.29408e+08
2.24912e+08
1.98573e+08
1.20453e+08
2.43e+08
1.55654e+08
1.38734e+08
1.75896e+08
2.37165e+08
2.24093e+08
1.18563e+08
7.18305e+07
2.43e+08
1.50389e+08
1.70015e+08
1.13939e+08
6.17785e+07
1.1852e+08
2.36664e+08
1.90334e+08
1.93632e+08
1.25738e+08
2.43e+08
1.18006e+08
)
;
    }
    left
    {
        type            calculated;
        value           nonuniform List<scalar> 10(2.43e+08 1.684e+08 2.43e+08 2.43e+08 1.49122e+08 2.1424e+08 1.89886e+08 2.43e+08 2.43e+08 9.67379e+07);
    }
    hole
    {
        type            calculated;
        value           nonuniform List<scalar> 
16
(
1.69346e+08
9.71318e+07
2.43e+08
2.43e+08
1.99229e+08
5.21928e+07
1.25084e+08
1.99314e+08
5.40021e+07
2.43e+08
1.49864e+08
8.53973e+07
1.56141e+08
1.99968e+08
2.43e+08
2.43e+08
)
;
    }
}


// ************************************************************************* //
