/*--------------------------------*- C++ -*----------------------------------*\
| =========                 |                                                 |
| \\      /  F ield         | OpenFOAM: The Open Source CFD Toolbox           |
|  \\    /   O peration     | Version:  v2012                                 |
|   \\  /    A nd           | Website:  www.openfoam.com                      |
|    \\/     M anipulation  |                                                 |
\*---------------------------------------------------------------------------*/
FoamFile
{
    version     2.0;
    format      ascii;
    class       pointSymmTensorField;
    location    "1";
    object      pEpsilon;
}
// * * * * * * * * * * * * * * * * * * * * * * * * * * * * * * * * * * * * * //

dimensions      [0 0 0 0 0 0 0];


internalField   nonuniform List<symmTensor> 
2142
(
(8.75723e-05 -1.31489e-05 5.06051e-16 -0.000264231 0 0)
(0.000151642 -2.15611e-06 -4.79217e-16 -1.66305e-05 0 0)
(0.000173239 2.41633e-07 -4.56449e-16 -7.42894e-05 9.31059e-17 0)
(0.000129929 1.60345e-05 0 -6.04619e-05 8.08002e-16 0)
(0.000751611 -1.2178e-05 0 -0.000317411 9.87125e-15 0)
(4.23931e-05 -1.28477e-05 6.23416e-18 -5.05812e-05 0 0)
(0.000305024 1.99265e-05 0 -9.34466e-05 -6.34258e-17 0)
(0.000253527 -5.20201e-05 -9.29703e-17 -0.000158373 -1.91904e-16 0)
(0.000300921 2.56444e-06 -1.53652e-15 -0.000126387 -1.10887e-15 0)
(0.000164076 -4.4624e-06 -1.68593e-16 -5.06717e-05 2.10776e-16 0)
(7.28845e-05 -9.755e-05 1.36609e-16 6.64764e-06 4.21484e-16 0)
(7.28845e-05 -9.755e-05 1.36609e-16 6.64764e-06 4.21484e-16 0)
(0.000253527 -5.20201e-05 -9.29703e-17 -0.000158373 -1.91904e-16 0)
(0.000305024 1.99265e-05 0 -9.34466e-05 -6.34258e-17 0)
(0.000751611 -1.2178e-05 0 -0.000317411 9.87125e-15 0)
(8.75723e-05 -1.31489e-05 5.06051e-16 -0.000264231 0 0)
(4.23931e-05 -1.28477e-05 6.23416e-18 -5.05812e-05 0 0)
(0.000151642 -2.15611e-06 -4.79217e-16 -1.66305e-05 0 0)
(0.000164076 -4.4624e-06 -1.68593e-16 -5.06717e-05 2.10776e-16 0)
(0.000173239 2.41633e-07 -4.56449e-16 -7.42894e-05 9.31059e-17 0)
(0.000300921 2.56444e-06 -1.53652e-15 -0.000126387 -1.10887e-15 0)
(0.000129929 1.60345e-05 0 -6.04619e-05 8.08002e-16 0)
(0.000300123 1.64881e-05 5.3485e-16 -0.000101486 -2.88398e-16 0)
(0.00030411 3.14288e-05 2.21801e-15 -0.000107323 3.36103e-16 0)
(0.000309644 4.19246e-05 -8.41002e-16 -0.000116179 2.83112e-16 0)
(0.000315238 4.62144e-05 -4.42897e-16 -0.000127124 -6.62583e-16 0)
(0.000318968 4.36055e-05 -1.22515e-16 -0.000138693 -3.20517e-16 0)
(0.000319006 3.44298e-05 -1.05052e-15 -0.000149272 -8.76849e-17 0)
(0.000313978 1.9899e-05 -2.01174e-15 -0.000157417 -8.73189e-16 0)
(0.000303212 1.95875e-06 2.4152e-15 -0.000162172 -7.46202e-16 0)
(0.000286978 -1.61397e-05 5.10524e-16 -0.000163658 4.51706e-16 0)
(0.000225182 -7.29616e-05 -1.78622e-16 -0.000140363 -2.1684e-16 0)
(0.00019762 -8.3835e-05 2.62648e-16 -0.000132823 2.29512e-16 0)
(0.000168414 -8.93809e-05 -1.71846e-16 -0.000120442 -2.16637e-16 0)
(0.000139238 -8.94214e-05 7.02021e-17 -0.000105795 -1.52652e-16 0)
(0.000111639 -8.40014e-05 2.70779e-16 -9.06088e-05 -1.99239e-16 0)
(8.70661e-05 -7.34419e-05 -1.02457e-16 -7.63135e-05 -3.89381e-17 0)
(6.6867e-05 -5.83311e-05 -5.96311e-17 -6.41741e-05 -7.72494e-17 0)
(5.23095e-05 -3.94862e-05 -9.48677e-18 -5.53468e-05 -7.00157e-17 0)
(4.47674e-05 -1.76979e-05 8.13152e-19 -5.09382e-05 -5.81276e-17 0)
(7.49747e-05 -1.54543e-05 4.7732e-16 -0.000207063 0 0)
(5.75403e-05 -1.45767e-05 -2.46656e-17 -0.000166936 0 0)
(4.5779e-05 -1.43108e-05 1.51517e-16 -0.000136455 0 0)
(3.8247e-05 -1.42312e-05 -9.62229e-17 -0.000112847 0 0)
(3.39157e-05 -1.41509e-05 -9.40545e-17 -9.44044e-05 0 0)
(3.19986e-05 -1.39898e-05 -1.41759e-16 -7.99502e-05 0 0)
(3.1898e-05 -1.37176e-05 -7.64363e-17 -6.86454e-05 0 0)
(3.31865e-05 -1.33321e-05 -2.24972e-17 -5.99159e-05 0 0)
(3.56261e-05 -1.28651e-05 2.03288e-17 -5.34576e-05 0 0)
(4.9681e-05 -1.14387e-05 3.79471e-17 -3.89679e-05 0 0)
(5.60756e-05 -1.07401e-05 2.49366e-17 -2.86028e-05 0 0)
(6.46508e-05 -9.44702e-06 -3.57787e-17 -2.32078e-05 0 0)
(7.3862e-05 -8.16042e-06 -2.23888e-16 -2.08056e-05 0 0)
(8.30384e-05 -7.03588e-06 6.36969e-17 -2.02785e-05 0 0)
(9.18826e-05 -6.092e-06 8.86335e-17 -2.09478e-05 0 0)
(0.000100266 -5.30823e-06 6.77626e-18 -2.23766e-05 0 0)
(0.000108134 -4.65694e-06 2.24972e-16 -2.4265e-05 0 0)
(0.000115464 -4.11302e-06 -2.19551e-17 -2.63913e-05 0 0)
(0.000122244 -3.656e-06 -4.58889e-16 -2.85786e-05 0 0)
(0.00012846 -3.26968e-06 2.26056e-16 -3.06736e-05 0 0)
(0.00013409 -2.94128e-06 -6.76271e-16 -3.25345e-05 0 0)
(0.000139105 -2.66059e-06 -2.97885e-16 -3.40209e-05 0 0)
(0.000143459 -2.41939e-06 1.30104e-17 -3.49861e-05 0 0)
(0.000147092 -2.21159e-06 1.63579e-15 -3.5268e-05 0 0)
(0.000149921 -2.03468e-06 -5.97666e-16 -3.46794e-05 0 0)
(0.000151846 -1.89515e-06 -4.13894e-16 -3.29948e-05 0 0)
(0.000152759 -1.82503e-06 -8.14778e-16 -2.99277e-05 0 0)
(0.000152576 -1.93786e-06 -7.58942e-18 -2.50468e-05 0 0)
(0.00015113 -2.09064e-07 5.17707e-16 -1.64327e-05 -1.58853e-16 0)
(0.000151828 -3.60412e-07 -1.01698e-15 -1.80628e-05 -1.93287e-16 0)
(0.000152746 -9.28919e-07 -1.5233e-16 -2.02944e-05 2.26893e-16 0)
(0.000153923 -1.56525e-06 -8.94467e-16 -2.32674e-05 -2.2638e-16 0)
(0.000155341 -2.20636e-06 -9.35666e-16 -2.69383e-05 -9.28983e-17 0)
(0.000156965 -2.82694e-06 3.6375e-16 -3.1216e-05 -4.07122e-16 0)
(0.000158753 -3.40732e-06 -9.06935e-16 -3.59849e-05 -3.74956e-16 0)
(0.00016065 -3.92945e-06 -7.62194e-16 -4.111e-05 -6.82336e-16 0)
(0.000162565 -4.39467e-06 -5.33427e-16 -4.64165e-05 5.48954e-16 0)
(0.000165267 -4.33846e-06 1.7022e-16 -5.36344e-05 3.823e-16 0)
(0.000166231 -4.39884e-06 -1.6263e-18 -5.59497e-05 5.64192e-16 0)
(0.000167143 -4.35342e-06 -5.60533e-16 -5.82143e-05 8.50675e-16 0)
(0.000168015 -4.24067e-06 -1.59107e-16 -6.04083e-05 3.8457e-16 0)
(0.000168849 -4.07647e-06 -2.17925e-16 -6.25124e-05 2.01662e-16 0)
(0.000169641 -3.86778e-06 4.07118e-16 -6.45082e-05 -1.34882e-16 0)
(0.000170387 -3.6181e-06 2.87856e-16 -6.6378e-05 -2.35102e-16 0)
(0.000171081 -3.32972e-06 2.29309e-16 -6.81047e-05 -7.23485e-16 0)
(0.000171717 -3.00488e-06 2.95987e-16 -6.96721e-05 -7.07865e-16 0)
(0.000172289 -2.64642e-06 -1.68051e-17 -7.10646e-05 -9.8886e-16 0)
(0.000172792 -2.25847e-06 7.1205e-16 -7.22681e-05 -6.85792e-16 0)
(0.000173218 -1.84704e-06 6.07424e-16 -7.32703e-05 -6.71765e-16 0)
(0.000173562 -1.42084e-06 2.91379e-16 -7.40613e-05 -6.3026e-16 0)
(0.000173816 -9.92353e-07 2.92735e-17 -7.46345e-05 -4.64276e-16 0)
(0.000173973 -5.79163e-07 -1.22515e-16 -7.49885e-05 4.00138e-17 0)
(0.000174024 -2.05722e-07 -1.54499e-17 -7.51281e-05 -1.77877e-16 0)
(0.000173961 9.45816e-08 6.42932e-16 -7.50678e-05 -2.90126e-16 0)
(0.000173776 2.77422e-07 3.39084e-16 -7.48359e-05 -6.97955e-18 0)
(0.000173469 2.87155e-07 2.0112e-16 -7.44824e-05 2.7532e-16 0)
(0.000173227 2.65351e-07 7.71139e-16 -7.4474e-05 -1.15705e-16 0)
(0.000173711 -3.87536e-08 -3.07913e-16 -7.49909e-05 -3.16113e-16 0)
(0.00017611 -4.17163e-07 4.09286e-17 -7.61904e-05 5.82759e-18 0)
(0.000180473 -7.88963e-07 -8.75493e-17 -7.80987e-05 -1.74929e-16 0)
(0.000186603 -1.13399e-06 -6.29379e-16 -8.06692e-05 -5.37629e-16 0)
(0.000194277 -1.4539e-06 -1.13841e-16 -8.3836e-05 -3.41558e-16 0)
(0.000203302 -1.75404e-06 2.77285e-16 -8.75327e-05 -1.52256e-15 0)
(0.000213509 -2.03774e-06 -8.73325e-16 -9.16949e-05 6.55976e-16 0)
(0.000224738 -2.30429e-06 -1.0552e-15 -9.62566e-05 8.09967e-16 0)
(0.000236812 -2.54799e-06 -7.94991e-16 -0.000101142 -1.78893e-16 0)
(0.000249511 -2.75725e-06 1.30673e-15 -0.000106255 -1.17771e-16 0)
(0.000262541 -2.91388e-06 1.06523e-15 -0.000111469 1.37829e-16 0)
(0.000275505 -2.99233e-06 -2.95066e-15 -0.000116616 4.20061e-16 0)
(0.000287872 -2.95924e-06 2.05998e-17 -0.000121476 -3.93972e-16 0)
(0.000298954 -2.77354e-06 -4.19451e-16 -0.00012577 1.22759e-15 0)
(0.000307886 -2.38748e-06 -2.42997e-16 -0.000129153 -4.37137e-16 0)
(0.000313626 -1.74916e-06 -7.90519e-16 -0.000131219 1.04754e-15 0)
(0.00031497 -8.04869e-07 1.47451e-15 -0.000131509 -8.14304e-16 0)
(0.000310511 5.25936e-07 -6.62041e-16 -0.000129477 -1.04436e-15 0)
(0.000287334 3.7476e-06 9.45357e-16 -0.000120902 8.14507e-17 0)
(0.00027026 4.13148e-06 -9.92045e-16 -0.000114567 -2.02976e-15 0)
(0.000250324 4.38149e-06 -1.37538e-15 -0.000106978 9.58706e-16 0)
(0.00022822 4.56528e-06 -8.25315e-16 -9.84292e-05 -7.8442e-16 0)
(0.00020509 4.67031e-06 7.26788e-16 -8.94038e-05 -4.40593e-16 0)
(0.000182396 4.67798e-06 1.52195e-16 -8.05225e-05 7.31836e-18 0)
(0.000161799 4.56031e-06 5.11608e-18 -7.24947e-05 5.92381e-16 0)
(0.000144966 4.27909e-06 2.00493e-17 -6.60119e-05 -4.42761e-16 0)
(0.000132938 3.85005e-06 1.21769e-16 -6.13512e-05 2.43674e-16 0)
(0.000143248 1.63317e-05 0 -6.28085e-05 7.28313e-16 0)
(0.000155295 1.61831e-05 0 -6.70221e-05 1.0224e-15 0)
(0.000166382 1.611e-05 0 -7.06184e-05 9.38106e-16 0)
(0.000176669 1.61007e-05 0 -7.36902e-05 1.2551e-15 0)
(0.00018628 1.61453e-05 0 -7.63082e-05 1.37978e-15 0)
(0.000195317 1.62361e-05 0 -7.85298e-05 1.53781e-15 0)
(0.000203866 1.63669e-05 0 -8.04049e-05 1.31717e-15 0)
(0.000212004 1.65333e-05 0 -8.19782e-05 9.87844e-16 0)
(0.000219804 1.67322e-05 0 -8.32917e-05 1.15047e-15 0)
(0.00022733 1.69614e-05 0 -8.43849e-05 1.44727e-15 0)
(0.000234649 1.72194e-05 0 -8.52965e-05 1.72849e-15 0)
(0.000241821 1.75057e-05 0 -8.60645e-05 1.3249e-15 0)
(0.000248911 1.78198e-05 0 -8.67269e-05 1.35268e-15 0)
(0.000255979 1.81616e-05 0 -8.73224e-05 1.48265e-15 0)
(0.000263092 1.85312e-05 0 -8.78914e-05 1.44429e-15 0)
(0.000270316 1.89283e-05 0 -8.84765e-05 1.8426e-15 0)
(0.000277726 1.93522e-05 0 -8.91237e-05 1.0163e-15 0)
(0.000285399 1.9801e-05 0 -8.98847e-05 1.08014e-16 0)
(0.000293427 2.0271e-05 0 -9.08183e-05 4.3097e-17 0)
(0.000322968 1.93991e-05 0 -9.71244e-05 -6.43338e-16 0)
(0.000343459 1.9014e-05 0 -0.000101223 2.46114e-16 0)
(0.0003675 1.85231e-05 0 -0.00010764 1.15901e-15 0)
(0.000396307 1.7781e-05 0 -0.000117288 1.94275e-15 0)
(0.000431434 1.65653e-05 0 -0.000131421 1.82918e-15 0)
(0.000474918 1.45123e-05 0 -0.000151802 9.85946e-16 0)
(0.000529464 1.10015e-05 0 -0.000180961 -3.70933e-16 0)
(0.00059863 4.95175e-06 0 -0.000222568 -3.26629e-15 0)
(0.000686831 -5.4741e-06 0 -0.000281866 3.40738e-15 0)
(0.000245406 -5.25004e-05 1.18273e-15 -0.000141501 -6.28092e-16 0)
(0.000229898 -5.6472e-05 1.15386e-15 -0.000128242 1.05368e-15 0)
(0.000216783 -6.08602e-05 1.23626e-15 -0.000116032 5.18079e-16 0)
(0.000205407 -6.40671e-05 4.71086e-16 -0.000104545 5.81674e-16 0)
(0.00019587 -6.56867e-05 3.03577e-17 -9.42779e-05 4.58618e-16 0)
(0.000188199 -6.57767e-05 -2.39609e-16 -8.55713e-05 -3.79742e-16 0)
(0.000182272 -6.45711e-05 -8.90672e-16 -7.85183e-05 -2.93344e-16 0)
(0.000177864 -6.23471e-05 5.29904e-16 -7.30242e-05 1.46638e-16 0)
(0.000174701 -5.93628e-05 6.47811e-16 -6.8881e-05 -2.19534e-16 0)
(0.0001725 -5.58319e-05 1.75099e-16 -6.58268e-05 -1.01014e-15 0)
(0.000170994 -5.19167e-05 -2.97071e-16 -6.35869e-05 4.33223e-16 0)
(0.000169949 -4.77289e-05 1.60191e-16 -6.18989e-05 -1.35288e-16 0)
(0.000169165 -4.33339e-05 4.96022e-16 -6.05285e-05 -5.30852e-16 0)
(0.000168481 -3.87522e-05 2.96258e-16 -5.92803e-05 3.62005e-16 0)
(0.000167776 -3.39585e-05 8.5652e-17 -5.80068e-05 6.42051e-18 0)
(0.000166974 -2.88731e-05 4.45878e-16 -5.66195e-05 2.86297e-16 0)
(0.00016605 -2.33433e-05 3.071e-16 -5.51035e-05 4.86875e-17 0)
(0.000165037 -1.71101e-05 1.81604e-16 -5.35346e-05 4.55568e-16 0)
(0.000164041 -9.76322e-06 -6.46456e-16 -5.21144e-05 1.57802e-16 0)
(0.000264557 -4.86781e-05 4.75829e-16 -0.000183099 -5.35596e-16 0)
(0.000272243 -3.77047e-05 1.27556e-15 -0.000179865 -1.03867e-15 0)
(0.000277895 -2.76262e-05 -2.5167e-16 -0.000176465 -1.0142e-15 0)
(0.000282008 -1.84076e-05 1.64528e-15 -0.00017291 -5.99157e-16 0)
(0.000284893 -1.00475e-05 1.40201e-15 -0.000169192 -3.29326e-16 0)
(0.00028678 -2.55898e-06 1.01264e-15 -0.000165313 9.26383e-16 0)
(0.000287859 4.03849e-06 -6.50657e-16 -0.000161295 1.51165e-15 0)
(0.000288301 9.72374e-06 -1.4054e-16 -0.000157177 1.06503e-15 0)
(0.000288264 1.44756e-05 1.64392e-15 -0.000153011 1.11768e-15 0)
(0.000287899 1.82739e-05 1.16836e-15 -0.000148865 5.47929e-16 0)
(0.000287356 2.1099e-05 6.63261e-16 -0.000144811 2.70237e-16 0)
(0.000286781 2.29322e-05 8.53809e-16 -0.000140932 7.42001e-17 0)
(0.000286325 2.37549e-05 9.70361e-16 -0.000137316 7.87537e-16 0)
(0.000286142 2.3549e-05 9.5857e-16 -0.000134061 -1.93395e-16 0)
(0.000286392 2.22967e-05 9.33905e-16 -0.000131273 1.14722e-15 0)
(0.000287249 1.99834e-05 4.64581e-16 -0.000129071 1.63593e-15 0)
(0.000288907 1.66026e-05 7.57315e-16 -0.00012759 8.92569e-16 0)
(0.000291588 1.21724e-05 -1.25144e-15 -0.00012699 -2.80402e-16 0)
(0.000295581 6.78368e-06 -4.44455e-16 -0.000127474 5.26245e-16 0)
(0.000715335 -6.95013e-05 2.95218e-15 -0.000278896 -4.88474e-15 0)
(0.000674827 -0.000125885 -1.23504e-15 -0.000251437 1.38229e-14 0)
(0.000613588 -0.000176784 3.69442e-16 -0.000215775 -1.76102e-15 0)
(0.000534803 -0.000212859 -5.69443e-15 -0.000171969 -3.83401e-15 0)
(0.000445727 -0.000230883 -3.47256e-15 -0.000124732 -2.79087e-15 0)
(0.000353837 -0.000230451 -2.11175e-15 -7.93189e-05 3.10488e-16 0)
(0.000265925 -0.000213228 2.2546e-15 -4.0492e-05 1.61207e-15 0)
(0.000187502 -0.000182423 1.55854e-16 -1.19586e-05 -8.20334e-16 0)
(0.000122442 -0.000142283 1.13841e-17 3.99133e-06 -4.49266e-16 0)
(3.95543e-05 -5.2761e-05 1.0571e-16 -3.54701e-06 2.03898e-16 0)
(2.17378e-05 -1.17129e-05 -3.25261e-17 -2.55696e-05 1.28749e-17 0)
(1.71185e-05 2.27511e-05 3.87602e-17 -5.7171e-05 -1.7686e-17 0)
(2.2862e-05 4.84509e-05 1.93259e-16 -9.54313e-05 -2.70373e-17 0)
(3.57873e-05 6.39795e-05 1.86212e-16 -0.0001369 -1.59513e-16 0)
(5.25559e-05 6.88225e-05 2.98156e-16 -0.000177817 5.20078e-17 0)
(6.99136e-05 6.34507e-05 -3.57787e-17 -0.000214431 -2.66375e-16 0)
(8.50685e-05 4.92447e-05 -6.01732e-17 -0.00024352 -9.95094e-17 0)
(9.69297e-05 2.70989e-05 6.62448e-16 -0.000264467 -8.12643e-17 0)
(0.000104414 -8.67473e-05 2.98698e-16 -2.0982e-05 4.80776e-16 0)
(0.000150128 -8.20733e-05 6.97142e-16 -6.20359e-05 3.72491e-16 0)
(0.000184331 -7.61135e-05 5.63379e-16 -9.21837e-05 1.22786e-16 0)
(0.000209872 -6.96103e-05 7.42678e-16 -0.000114054 -7.09e-16 0)
(0.000228856 -6.29842e-05 3.20382e-16 -0.000129568 -6.55875e-16 0)
(0.000242833 -5.6465e-05 -4.2704e-16 -0.000140113 4.72035e-16 0)
(0.000252909 -5.0157e-05 -5.61752e-16 -0.000146624 6.83996e-16 0)
(0.000259701 -4.40461e-05 -2.74303e-16 -0.000149533 5.96853e-16 0)
(0.000262931 -3.78898e-05 9.36886e-16 -0.000148353 -3.63479e-16 0)
(0.000104414 -8.67473e-05 2.98698e-16 -2.0982e-05 4.80776e-16 0)
(0.000150128 -8.20733e-05 6.97142e-16 -6.20359e-05 3.72491e-16 0)
(0.000184331 -7.61135e-05 5.63379e-16 -9.21837e-05 1.22786e-16 0)
(0.000209872 -6.96103e-05 7.42678e-16 -0.000114054 -7.09e-16 0)
(0.000228856 -6.29842e-05 3.20382e-16 -0.000129568 -6.55875e-16 0)
(0.000242833 -5.6465e-05 -4.2704e-16 -0.000140113 4.72035e-16 0)
(0.000252909 -5.0157e-05 -5.61752e-16 -0.000146624 6.83996e-16 0)
(0.000259701 -4.40461e-05 -2.74303e-16 -0.000149533 5.96853e-16 0)
(0.000262931 -3.78898e-05 9.36886e-16 -0.000148353 -3.63479e-16 0)
(0.000286978 -1.61397e-05 5.10524e-16 -0.000163658 4.51706e-16 0)
(0.000303212 1.95875e-06 2.4152e-15 -0.000162172 -7.46202e-16 0)
(0.000313978 1.9899e-05 -2.01174e-15 -0.000157417 -8.73189e-16 0)
(0.000319006 3.44298e-05 -1.05052e-15 -0.000149272 -8.76849e-17 0)
(0.000318968 4.36055e-05 -1.22515e-16 -0.000138693 -3.20517e-16 0)
(0.000315238 4.62144e-05 -4.42897e-16 -0.000127124 -6.62583e-16 0)
(0.000309644 4.19246e-05 -8.41002e-16 -0.000116179 2.83112e-16 0)
(0.00030411 3.14288e-05 2.21801e-15 -0.000107323 3.36103e-16 0)
(0.000300123 1.64881e-05 5.3485e-16 -0.000101486 -2.88398e-16 0)
(0.000322968 1.93991e-05 0 -9.71244e-05 -6.43338e-16 0)
(0.000343459 1.9014e-05 0 -0.000101223 2.46114e-16 0)
(0.0003675 1.85231e-05 0 -0.00010764 1.15901e-15 0)
(0.000396307 1.7781e-05 0 -0.000117288 1.94275e-15 0)
(0.000431434 1.65653e-05 0 -0.000131421 1.82918e-15 0)
(0.000474918 1.45123e-05 0 -0.000151802 9.85946e-16 0)
(0.000529464 1.10015e-05 0 -0.000180961 -3.70933e-16 0)
(0.00059863 4.95175e-06 0 -0.000222568 -3.26629e-15 0)
(0.000686831 -5.4741e-06 0 -0.000281866 3.40738e-15 0)
(0.000715335 -6.95013e-05 2.95218e-15 -0.000278896 -4.88474e-15 0)
(0.000674827 -0.000125885 -1.23504e-15 -0.000251437 1.38229e-14 0)
(0.000613588 -0.000176784 3.69442e-16 -0.000215775 -1.76102e-15 0)
(0.000534803 -0.000212859 -5.69443e-15 -0.000171969 -3.83401e-15 0)
(0.000445727 -0.000230883 -3.47256e-15 -0.000124732 -2.79087e-15 0)
(0.000353837 -0.000230451 -2.11175e-15 -7.93189e-05 3.10488e-16 0)
(0.000265925 -0.000213228 2.2546e-15 -4.0492e-05 1.61207e-15 0)
(0.000187502 -0.000182423 1.55854e-16 -1.19586e-05 -8.20334e-16 0)
(0.000122442 -0.000142283 1.13841e-17 3.99133e-06 -4.49266e-16 0)
(3.95543e-05 -5.2761e-05 1.0571e-16 -3.54701e-06 2.03898e-16 0)
(2.17378e-05 -1.17129e-05 -3.25261e-17 -2.55696e-05 1.28749e-17 0)
(1.71185e-05 2.27511e-05 3.87602e-17 -5.7171e-05 -1.7686e-17 0)
(2.2862e-05 4.84509e-05 1.93259e-16 -9.54313e-05 -2.70373e-17 0)
(3.57873e-05 6.39795e-05 1.86212e-16 -0.0001369 -1.59513e-16 0)
(5.25559e-05 6.88225e-05 2.98156e-16 -0.000177817 5.20078e-17 0)
(6.99136e-05 6.34507e-05 -3.57787e-17 -0.000214431 -2.66375e-16 0)
(8.50685e-05 4.92447e-05 -6.01732e-17 -0.00024352 -9.95094e-17 0)
(9.69297e-05 2.70989e-05 6.62448e-16 -0.000264467 -8.12643e-17 0)
(7.49747e-05 -1.54543e-05 4.7732e-16 -0.000207063 0 0)
(5.75403e-05 -1.45767e-05 -2.46656e-17 -0.000166936 0 0)
(4.5779e-05 -1.43108e-05 1.51517e-16 -0.000136455 0 0)
(3.8247e-05 -1.42312e-05 -9.62229e-17 -0.000112847 0 0)
(3.39157e-05 -1.41509e-05 -9.40545e-17 -9.44044e-05 0 0)
(3.19986e-05 -1.39898e-05 -1.41759e-16 -7.99502e-05 0 0)
(3.1898e-05 -1.37176e-05 -7.64363e-17 -6.86454e-05 0 0)
(3.31865e-05 -1.33321e-05 -2.24972e-17 -5.99159e-05 0 0)
(3.56261e-05 -1.28651e-05 2.03288e-17 -5.34576e-05 0 0)
(4.47674e-05 -1.76979e-05 8.13152e-19 -5.09382e-05 -5.81276e-17 0)
(5.23095e-05 -3.94862e-05 -9.48677e-18 -5.53468e-05 -7.00157e-17 0)
(6.6867e-05 -5.83311e-05 -5.96311e-17 -6.41741e-05 -7.72494e-17 0)
(8.70661e-05 -7.34419e-05 -1.02457e-16 -7.63135e-05 -3.89381e-17 0)
(0.000111639 -8.40014e-05 2.70779e-16 -9.06088e-05 -1.99239e-16 0)
(0.000139238 -8.94214e-05 7.02021e-17 -0.000105795 -1.52652e-16 0)
(0.000168414 -8.93809e-05 -1.71846e-16 -0.000120442 -2.16637e-16 0)
(0.00019762 -8.3835e-05 2.62648e-16 -0.000132823 2.29512e-16 0)
(0.000225182 -7.29616e-05 -1.78622e-16 -0.000140363 -2.1684e-16 0)
(4.9681e-05 -1.14387e-05 3.79471e-17 -3.89679e-05 0 0)
(5.60756e-05 -1.07401e-05 2.49366e-17 -2.86028e-05 0 0)
(6.46508e-05 -9.44702e-06 -3.57787e-17 -2.32078e-05 0 0)
(7.3862e-05 -8.16042e-06 -2.23888e-16 -2.08056e-05 0 0)
(8.30384e-05 -7.03588e-06 6.36969e-17 -2.02785e-05 0 0)
(9.18826e-05 -6.092e-06 8.86335e-17 -2.09478e-05 0 0)
(0.000100266 -5.30823e-06 6.77626e-18 -2.23766e-05 0 0)
(0.000108134 -4.65694e-06 2.24972e-16 -2.4265e-05 0 0)
(0.000115464 -4.11302e-06 -2.19551e-17 -2.63913e-05 0 0)
(0.000122244 -3.656e-06 -4.58889e-16 -2.85786e-05 0 0)
(0.00012846 -3.26968e-06 2.26056e-16 -3.06736e-05 0 0)
(0.00013409 -2.94128e-06 -6.76271e-16 -3.25345e-05 0 0)
(0.000139105 -2.66059e-06 -2.97885e-16 -3.40209e-05 0 0)
(0.000143459 -2.41939e-06 1.30104e-17 -3.49861e-05 0 0)
(0.000147092 -2.21159e-06 1.63579e-15 -3.5268e-05 0 0)
(0.000149921 -2.03468e-06 -5.97666e-16 -3.46794e-05 0 0)
(0.000151846 -1.89515e-06 -4.13894e-16 -3.29948e-05 0 0)
(0.000152759 -1.82503e-06 -8.14778e-16 -2.99277e-05 0 0)
(0.000152576 -1.93786e-06 -7.58942e-18 -2.50468e-05 0 0)
(0.00015113 -2.09064e-07 5.17707e-16 -1.64327e-05 -1.58853e-16 0)
(0.000151828 -3.60412e-07 -1.01698e-15 -1.80628e-05 -1.93287e-16 0)
(0.000152746 -9.28919e-07 -1.5233e-16 -2.02944e-05 2.26893e-16 0)
(0.000153923 -1.56525e-06 -8.94467e-16 -2.32674e-05 -2.2638e-16 0)
(0.000155341 -2.20636e-06 -9.35666e-16 -2.69383e-05 -9.28983e-17 0)
(0.000156965 -2.82694e-06 3.6375e-16 -3.1216e-05 -4.07122e-16 0)
(0.000158753 -3.40732e-06 -9.06935e-16 -3.59849e-05 -3.74956e-16 0)
(0.00016065 -3.92945e-06 -7.62194e-16 -4.111e-05 -6.82336e-16 0)
(0.000162565 -4.39467e-06 -5.33427e-16 -4.64165e-05 5.48954e-16 0)
(0.000164041 -9.76322e-06 -6.46456e-16 -5.21144e-05 1.57802e-16 0)
(0.000165037 -1.71101e-05 1.81604e-16 -5.35346e-05 4.55568e-16 0)
(0.00016605 -2.33433e-05 3.071e-16 -5.51035e-05 4.86875e-17 0)
(0.000166974 -2.88731e-05 4.45878e-16 -5.66195e-05 2.86297e-16 0)
(0.000167776 -3.39585e-05 8.5652e-17 -5.80068e-05 6.42051e-18 0)
(0.000168481 -3.87522e-05 2.96258e-16 -5.92803e-05 3.62005e-16 0)
(0.000169165 -4.33339e-05 4.96022e-16 -6.05285e-05 -5.30852e-16 0)
(0.000169949 -4.77289e-05 1.60191e-16 -6.18989e-05 -1.35288e-16 0)
(0.000170994 -5.19167e-05 -2.97071e-16 -6.35869e-05 4.33223e-16 0)
(0.0001725 -5.58319e-05 1.75099e-16 -6.58268e-05 -1.01014e-15 0)
(0.000174701 -5.93628e-05 6.47811e-16 -6.8881e-05 -2.19534e-16 0)
(0.000177864 -6.23471e-05 5.29904e-16 -7.30242e-05 1.46638e-16 0)
(0.000182272 -6.45711e-05 -8.90672e-16 -7.85183e-05 -2.93344e-16 0)
(0.000188199 -6.57767e-05 -2.39609e-16 -8.55713e-05 -3.79742e-16 0)
(0.00019587 -6.56867e-05 3.03577e-17 -9.42779e-05 4.58618e-16 0)
(0.000205407 -6.40671e-05 4.71086e-16 -0.000104545 5.81674e-16 0)
(0.000216783 -6.08602e-05 1.23626e-15 -0.000116032 5.18079e-16 0)
(0.000229898 -5.6472e-05 1.15386e-15 -0.000128242 1.05368e-15 0)
(0.000245406 -5.25004e-05 1.18273e-15 -0.000141501 -6.28092e-16 0)
(0.000165267 -4.33846e-06 1.7022e-16 -5.36344e-05 3.823e-16 0)
(0.000166231 -4.39884e-06 -1.6263e-18 -5.59497e-05 5.64192e-16 0)
(0.000167143 -4.35342e-06 -5.60533e-16 -5.82143e-05 8.50675e-16 0)
(0.000168015 -4.24067e-06 -1.59107e-16 -6.04083e-05 3.8457e-16 0)
(0.000168849 -4.07647e-06 -2.17925e-16 -6.25124e-05 2.01662e-16 0)
(0.000169641 -3.86778e-06 4.07118e-16 -6.45082e-05 -1.34882e-16 0)
(0.000170387 -3.6181e-06 2.87856e-16 -6.6378e-05 -2.35102e-16 0)
(0.000171081 -3.32972e-06 2.29309e-16 -6.81047e-05 -7.23485e-16 0)
(0.000171717 -3.00488e-06 2.95987e-16 -6.96721e-05 -7.07865e-16 0)
(0.000172289 -2.64642e-06 -1.68051e-17 -7.10646e-05 -9.8886e-16 0)
(0.000172792 -2.25847e-06 7.1205e-16 -7.22681e-05 -6.85792e-16 0)
(0.000173218 -1.84704e-06 6.07424e-16 -7.32703e-05 -6.71765e-16 0)
(0.000173562 -1.42084e-06 2.91379e-16 -7.40613e-05 -6.3026e-16 0)
(0.000173816 -9.92353e-07 2.92735e-17 -7.46345e-05 -4.64276e-16 0)
(0.000173973 -5.79163e-07 -1.22515e-16 -7.49885e-05 4.00138e-17 0)
(0.000174024 -2.05722e-07 -1.54499e-17 -7.51281e-05 -1.77877e-16 0)
(0.000173961 9.45816e-08 6.42932e-16 -7.50678e-05 -2.90126e-16 0)
(0.000173776 2.77422e-07 3.39084e-16 -7.48359e-05 -6.97955e-18 0)
(0.000173469 2.87155e-07 2.0112e-16 -7.44824e-05 2.7532e-16 0)
(0.000173227 2.65351e-07 7.71139e-16 -7.4474e-05 -1.15705e-16 0)
(0.000173711 -3.87536e-08 -3.07913e-16 -7.49909e-05 -3.16113e-16 0)
(0.00017611 -4.17163e-07 4.09286e-17 -7.61904e-05 5.82759e-18 0)
(0.000180473 -7.88963e-07 -8.75493e-17 -7.80987e-05 -1.74929e-16 0)
(0.000186603 -1.13399e-06 -6.29379e-16 -8.06692e-05 -5.37629e-16 0)
(0.000194277 -1.4539e-06 -1.13841e-16 -8.3836e-05 -3.41558e-16 0)
(0.000203302 -1.75404e-06 2.77285e-16 -8.75327e-05 -1.52256e-15 0)
(0.000213509 -2.03774e-06 -8.73325e-16 -9.16949e-05 6.55976e-16 0)
(0.000224738 -2.30429e-06 -1.0552e-15 -9.62566e-05 8.09967e-16 0)
(0.000236812 -2.54799e-06 -7.94991e-16 -0.000101142 -1.78893e-16 0)
(0.000249511 -2.75725e-06 1.30673e-15 -0.000106255 -1.17771e-16 0)
(0.000262541 -2.91388e-06 1.06523e-15 -0.000111469 1.37829e-16 0)
(0.000275505 -2.99233e-06 -2.95066e-15 -0.000116616 4.20061e-16 0)
(0.000287872 -2.95924e-06 2.05998e-17 -0.000121476 -3.93972e-16 0)
(0.000298954 -2.77354e-06 -4.19451e-16 -0.00012577 1.22759e-15 0)
(0.000307886 -2.38748e-06 -2.42997e-16 -0.000129153 -4.37137e-16 0)
(0.000313626 -1.74916e-06 -7.90519e-16 -0.000131219 1.04754e-15 0)
(0.00031497 -8.04869e-07 1.47451e-15 -0.000131509 -8.14304e-16 0)
(0.000310511 5.25936e-07 -6.62041e-16 -0.000129477 -1.04436e-15 0)
(0.000295581 6.78368e-06 -4.44455e-16 -0.000127474 5.26245e-16 0)
(0.000291588 1.21724e-05 -1.25144e-15 -0.00012699 -2.80402e-16 0)
(0.000288907 1.66026e-05 7.57315e-16 -0.00012759 8.92569e-16 0)
(0.000287249 1.99834e-05 4.64581e-16 -0.000129071 1.63593e-15 0)
(0.000286392 2.22967e-05 9.33905e-16 -0.000131273 1.14722e-15 0)
(0.000286142 2.3549e-05 9.5857e-16 -0.000134061 -1.93395e-16 0)
(0.000286325 2.37549e-05 9.70361e-16 -0.000137316 7.87537e-16 0)
(0.000286781 2.29322e-05 8.53809e-16 -0.000140932 7.42001e-17 0)
(0.000287356 2.1099e-05 6.63261e-16 -0.000144811 2.70237e-16 0)
(0.000287899 1.82739e-05 1.16836e-15 -0.000148865 5.47929e-16 0)
(0.000288264 1.44756e-05 1.64392e-15 -0.000153011 1.11768e-15 0)
(0.000288301 9.72374e-06 -1.4054e-16 -0.000157177 1.06503e-15 0)
(0.000287859 4.03849e-06 -6.50657e-16 -0.000161295 1.51165e-15 0)
(0.00028678 -2.55898e-06 1.01264e-15 -0.000165313 9.26383e-16 0)
(0.000284893 -1.00475e-05 1.40201e-15 -0.000169192 -3.29326e-16 0)
(0.000282008 -1.84076e-05 1.64528e-15 -0.00017291 -5.99157e-16 0)
(0.000277895 -2.76262e-05 -2.5167e-16 -0.000176465 -1.0142e-15 0)
(0.000272243 -3.77047e-05 1.27556e-15 -0.000179865 -1.03867e-15 0)
(0.000264557 -4.86781e-05 4.75829e-16 -0.000183099 -5.35596e-16 0)
(0.000287334 3.7476e-06 9.45357e-16 -0.000120902 8.14507e-17 0)
(0.00027026 4.13148e-06 -9.92045e-16 -0.000114567 -2.02976e-15 0)
(0.000250324 4.38149e-06 -1.37538e-15 -0.000106978 9.58706e-16 0)
(0.00022822 4.56528e-06 -8.25315e-16 -9.84292e-05 -7.8442e-16 0)
(0.00020509 4.67031e-06 7.26788e-16 -8.94038e-05 -4.40593e-16 0)
(0.000182396 4.67798e-06 1.52195e-16 -8.05225e-05 7.31836e-18 0)
(0.000161799 4.56031e-06 5.11608e-18 -7.24947e-05 5.92381e-16 0)
(0.000144966 4.27909e-06 2.00493e-17 -6.60119e-05 -4.42761e-16 0)
(0.000132938 3.85005e-06 1.21769e-16 -6.13512e-05 2.43674e-16 0)
(0.000143248 1.63317e-05 0 -6.28085e-05 7.28313e-16 0)
(0.000155295 1.61831e-05 0 -6.70221e-05 1.0224e-15 0)
(0.000166382 1.611e-05 0 -7.06184e-05 9.38106e-16 0)
(0.000176669 1.61007e-05 0 -7.36902e-05 1.2551e-15 0)
(0.00018628 1.61453e-05 0 -7.63082e-05 1.37978e-15 0)
(0.000195317 1.62361e-05 0 -7.85298e-05 1.53781e-15 0)
(0.000203866 1.63669e-05 0 -8.04049e-05 1.31717e-15 0)
(0.000212004 1.65333e-05 0 -8.19782e-05 9.87844e-16 0)
(0.000219804 1.67322e-05 0 -8.32917e-05 1.15047e-15 0)
(0.00022733 1.69614e-05 0 -8.43849e-05 1.44727e-15 0)
(0.000234649 1.72194e-05 0 -8.52965e-05 1.72849e-15 0)
(0.000241821 1.75057e-05 0 -8.60645e-05 1.3249e-15 0)
(0.000248911 1.78198e-05 0 -8.67269e-05 1.35268e-15 0)
(0.000255979 1.81616e-05 0 -8.73224e-05 1.48265e-15 0)
(0.000263092 1.85312e-05 0 -8.78914e-05 1.44429e-15 0)
(0.000270316 1.89283e-05 0 -8.84765e-05 1.8426e-15 0)
(0.000277726 1.93522e-05 0 -8.91237e-05 1.0163e-15 0)
(0.000285399 1.9801e-05 0 -8.98847e-05 1.08014e-16 0)
(0.000293427 2.0271e-05 0 -9.08183e-05 4.3097e-17 0)
(0.000635127 -6.37755e-05 1.47096e-16 -0.000252969 -8.75629e-16 0)
(0.000558403 -4.10191e-05 -5.6635e-15 -0.00020708 -1.88461e-15 0)
(0.000498617 -2.41623e-05 1.13333e-15 -0.00017379 -8.71021e-16 0)
(0.000451266 -1.17083e-05 1.28993e-15 -0.000149688 -3.82859e-16 0)
(0.000413207 -2.46347e-06 1.67853e-15 -0.000132351 -2.47903e-15 0)
(0.000382149 4.43797e-06 1.16469e-15 -0.000120001 -1.28044e-15 0)
(0.000356378 9.60818e-06 -1.13841e-16 -0.000111309 -3.21601e-16 0)
(0.000334581 1.34695e-05 1.32157e-15 -0.000105268 2.69289e-16 0)
(0.000315719 1.62867e-05 -2.82773e-16 -0.000101089 3.60768e-16 0)
(0.000599456 -0.000109599 -1.57087e-15 -0.000229141 5.97612e-15 0)
(0.000533663 -7.10851e-05 6.71429e-15 -0.000192443 2.03857e-15 0)
(0.000481999 -4.23163e-05 3.25782e-15 -0.000165977 8.86606e-16 0)
(0.000440687 -2.06728e-05 -4.59024e-16 -0.000146799 5.2367e-16 0)
(0.000407109 -4.30747e-06 -1.69539e-15 -0.000132906 -3.94243e-16 0)
(0.000379374 8.10317e-06 -1.63037e-16 -0.000122874 -8.25078e-16 0)
(0.000356079 1.75098e-05 -3.60125e-16 -0.000115664 5.20553e-16 0)
(0.000336164 2.45928e-05 -4.11455e-16 -0.000110505 5.81539e-16 0)
(0.000318842 2.98396e-05 8.38292e-16 -0.000106834 -3.02221e-16 0)
(0.000548437 -0.00014789 2.05375e-15 -0.000199214 -2.56712e-15 0)
(0.000498378 -9.64758e-05 1.50148e-15 -0.000175256 -2.0383e-16 0)
(0.000458142 -5.8161e-05 1.19384e-15 -0.000157714 -1.11131e-16 0)
(0.000425283 -2.92959e-05 7.28448e-17 -0.000144815 -1.28261e-15 0)
(0.000398025 -7.38529e-06 -3.6253e-17 -0.000135296 -1.86469e-15 0)
(0.000375058 9.32037e-06 -2.06618e-15 -0.000128242 -9.67921e-16 0)
(0.000355401 2.20669e-05 -3.95859e-15 -0.000122985 -4.86265e-16 0)
(0.000338306 3.17503e-05 5.04425e-16 -0.000119026 -1.31554e-15 0)
(0.000323187 3.90203e-05 4.60007e-16 -0.000115985 -6.57433e-16 0)
(0.000484515 -0.000174743 -1.0163e-15 -0.000163871 3.95463e-16 0)
(0.000453652 -0.000115946 -1.933e-15 -0.000155191 -2.35136e-16 0)
(0.000427415 -7.18346e-05 5.51249e-16 -0.000148323 -2.99104e-16 0)
(0.000404914 -3.8405e-05 1.63227e-15 -0.000142889 -9.12085e-17 0)
(0.000385414 -1.28756e-05 1.6177e-15 -0.000138551 -1.39591e-17 0)
(0.000368322 6.71824e-06 9.53962e-16 -0.000135029 -4.9548e-16 0)
(0.000353162 2.17825e-05 -2.8257e-16 -0.000132098 -6.00377e-17 0)
(0.000339556 3.33321e-05 1.93605e-15 -0.000129576 -1.27394e-16 0)
(0.000327196 4.21007e-05 -2.71593e-16 -0.000127315 -1.96512e-17 0)
(0.00041269 -0.000188121 -3.3327e-15 -0.000126402 -9.12356e-16 0)
(0.000402075 -0.000128134 1.5805e-15 -0.000133485 -1.43711e-15 0)
(0.000390862 -8.25948e-05 2.87408e-15 -0.000137799 -6.83589e-16 0)
(0.000379625 -4.77195e-05 2.62946e-15 -0.000140275 -1.00533e-15 0)
(0.000368649 -2.08229e-05 -6.19893e-16 -0.000141483 -2.05998e-17 0)
(0.000358069 2.29508e-08 -2.40422e-16 -0.000141785 1.27394e-17 0)
(0.000347937 1.62157e-05 -5.35596e-16 -0.000141412 2.87314e-16 0)
(0.000338264 2.87744e-05 -1.02281e-15 -0.00014052 5.60126e-16 0)
(0.000329042 3.84413e-05 -3.14825e-16 -0.000139211 -1.146e-15 0)
(0.000338446 -0.000187728 -7.81439e-16 -9.06022e-05 -5.97531e-16 0)
(0.000346891 -0.000132364 -2.20337e-15 -0.000111996 3.55347e-16 0)
(0.000350138 -8.96578e-05 5.41017e-16 -0.000126672 4.72983e-16 0)