/*--------------------------------*- C++ -*----------------------------------*\
| =========                 |                                                 |
| \\      /  F ield         | OpenFOAM: The Open Source CFD Toolbox           |
|  \\    /   O peration     | Version:  v2012                                 |
|   \\  /    A nd           | Website:  www.openfoam.com                      |
|    \\/     M anipulation  |                                                 |
\*---------------------------------------------------------------------------*/
FoamFile
{
    version     2.0;
    format      ascii;
    class       pointVectorField;
    location    "6";
    object      pointD;
}
// * * * * * * * * * * * * * * * * * * * * * * * * * * * * * * * * * * * * * //

dimensions      [0 1 0 0 0 0 0];


internalField   nonuniform List<vector> 
2142
(
(0.00211772 0 0)
(0.00303352 0 0)
(0.00279894 -0.000281599 0)
(0 -0.00148757 0)
(0 -0.00109989 0)
(0.00218451 0 0)
(0 -0.00136758 0)
(0.0012912 -0.0004612 0)
(0.000649504 -0.000874472 0)
(0.00292558 -8.96813e-05 0)
(0.00154052 -0.000680162 0)
(0.00154052 -0.000680162 0)
(0.0012912 -0.0004612 0)
(0 -0.00136758 0)
(0 -0.00109989 0)
(0.00211772 0 0)
(0.00218451 0 0)
(0.00303352 0 0)
(0.00292558 -8.96813e-05 0)
(0.00279894 -0.000281599 0)
(0.000649504 -0.000874472 0)
(0 -0.00148757 0)
(0.000105486 -0.00135052 0)
(0.000214182 -0.00130401 0)
(0.000328267 -0.00123188 0)
(0.000449053 -0.00113948 0)
(0.000576964 -0.0010327 0)
(0.000711643 -0.000917344 0)
(0.000852066 -0.000798758 0)
(0.000996697 -0.000681479 0)
(0.0011437 -0.000568809 0)
(0.00143169 -0.000376721 0)
(0.00156835 -0.000300181 0)
(0.00169797 -0.000233099 0)
(0.0018175 -0.000176054 0)
(0.0019241 -0.000128919 0)
(0.00201522 -9.09771e-05 0)
(0.00208859 -6.1009e-05 0)
(0.00214233 -3.73555e-05 0)
(0.00217486 -1.79319e-05 0)
(0.00213061 0 0)
(0.0021404 0 0)
(0.00214804 0 0)
(0.00215425 0 0)
(0.00215958 0 0)
(0.00216444 0 0)
(0.00216915 0 0)
(0.00217394 0 0)
(0.00217901 0 0)
(0.00220234 0 0)
(0.00222181 0 0)
(0.00224428 0 0)
(0.00227018 0 0)
(0.00229959 0 0)
(0.0023324 0 0)
(0.00236847 0 0)
(0.0024076 0 0)
(0.00244959 0 0)
(0.00249423 0 0)
(0.00254132 0 0)
(0.00259063 0 0)
(0.00264194 0 0)
(0.00269501 0 0)
(0.00274958 0 0)
(0.00280535 0 0)
(0.00286201 0 0)
(0.00291919 0 0)
(0.00297649 0 0)
(0.00303127 -4.56597e-06 0)
(0.00302715 -9.59618e-06 0)
(0.00302073 -1.52255e-05 0)
(0.00301205 -2.16994e-05 0)
(0.00300127 -2.92618e-05 0)
(0.00298863 -3.81315e-05 0)
(0.00297442 -4.84923e-05 0)
(0.00295894 -6.04862e-05 0)
(0.00294256 -7.42075e-05 0)
(0.00291816 -9.70479e-05 0)
(0.00291069 -0.000104747 0)
(0.00290322 -0.000112774 0)
(0.0028958 -0.000121118 0)
(0.00288846 -0.00012977 0)
(0.00288123 -0.000138715 0)
(0.00287413 -0.000147935 0)
(0.0028672 -0.000157413 0)
(0.00286045 -0.000167125 0)
(0.0028539 -0.000177048 0)
(0.00284756 -0.000187157 0)
(0.00284144 -0.000197422 0)
(0.00283554 -0.000207815 0)
(0.00282986 -0.000218304 0)
(0.00282439 -0.000228859 0)
(0.0028191 -0.000239447 0)
(0.00281396 -0.000250039 0)
(0.00280893 -0.000260608 0)
(0.00280395 -0.000271132 0)
(0.00272256 -0.000297467 0)
(0.00264635 -0.000311907 0)
(0.00256945 -0.000324183 0)
(0.00249091 -0.000334163 0)
(0.00240988 -0.000342127 0)
(0.00232562 -0.000348615 0)
(0.00223747 -0.000354342 0)
(0.00214489 -0.000360159 0)
(0.00204736 -0.000367037 0)
(0.00194448 -0.000376062 0)
(0.00183592 -0.000388438 0)
(0.00172144 -0.000405484 0)
(0.001601 -0.000428621 0)
(0.00147475 -0.000459347 0)
(0.00134311 -0.00049918 0)
(0.0012069 -0.000549572 0)
(0.00106734 -0.000611775 0)
(0.00092621 -0.000686652 0)
(0.00078589 -0.000774432 0)
(0.000554815 -0.000952428 0)
(0.000465477 -0.00103395 0)
(0.000382497 -0.00111669 0)
(0.000306744 -0.00119803 0)
(0.00023877 -0.00127503 0)
(0.000178682 -0.00134447 0)
(0.000126044 -0.00140309 0)
(7.98166e-05 -0.00144787 0)
(3.83843e-05 -0.00147636 0)
(0 -0.0014831 0)
(0 -0.00147827 0)
(0 -0.00147315 0)
(0 -0.00146778 0)
(0 -0.0014622 0)
(0 -0.00145643 0)
(0 -0.00145052 0)
(0 -0.00144448 0)
(0 -0.00143834 0)
(0 -0.00143212 0)
(0 -0.00142584 0)
(0 -0.0014195 0)
(0 -0.00141312 0)
(0 -0.00140671 0)
(0 -0.00140027 0)
(0 -0.0013938 0)
(0 -0.00138731 0)
(0 -0.00138078 0)
(0 -0.00137421 0)
(0 -0.00135375 0)
(0 -0.00133957 0)
(0 -0.00132475 0)
(0 -0.0013089 0)
(0 -0.00129143 0)
(0 -0.00127143 0)
(0 -0.00124751 0)
(0 -0.00121718 0)
(0 -0.00116889 0)
(0.0014029 -0.000378439 0)
(0.00150727 -0.000309053 0)
(0.00160558 -0.000253846 0)
(0.00169854 -0.000211617 0)
(0.00178689 -0.000180581 0)
(0.00187147 -0.000158838 0)
(0.00195306 -0.000144575 0)
(0.00203239 -0.000136146 0)
(0.00211006 -0.000132092 0)
(0.00218658 -0.000131135 0)
(0.00226228 -0.000132159 0)
(0.00233744 -0.00013418 0)
(0.0024122 -0.000136328 0)
(0.00248665 -0.000137809 0)
(0.00256078 -0.000137884 0)
(0.00263458 -0.000135832 0)
(0.00270799 -0.000130906 0)
(0.00278097 -0.000122277 0)
(0.00285348 -0.000108953 0)
(0.00124744 -0.000485285 0)
(0.00120588 -0.000509208 0)
(0.00116644 -0.000532886 0)
(0.00112898 -0.000556258 0)
(0.00109338 -0.000579276 0)
(0.00105947 -0.000601892 0)
(0.00102711 -0.000624071 0)
(0.000996091 -0.000645781 0)
(0.000966226 -0.000667002 0)
(0.000937305 -0.000687723 0)
(0.000909113 -0.000707945 0)
(0.000881425 -0.000727681 0)
(0.00085401 -0.000746957 0)
(0.000826631 -0.000765813 0)
(0.000799047 -0.000784303 0)
(0.000771011 -0.000802499 0)
(0.000742275 -0.000820491 0)
(0.000712593 -0.000838387 0)
(0.000681731 -0.000856325 0)
(0.000196955 -0.00111421 0)
(0.000380987 -0.00110789 0)
(0.000551892 -0.00108329 0)
(0.000712238 -0.0010422 0)
(0.000868821 -0.000993963 0)
(0.00101978 -0.000939225 0)
(0.00116345 -0.000879146 0)
(0.00129868 -0.000815095 0)
(0.00142458 -0.000748372 0)
(0.00164604 -0.00061149 0)
(0.00174117 -0.000542827 0)
(0.00182587 -0.000474372 0)
(0.00190001 -0.000406163 0)
(0.0019634 -0.000338173 0)
(0.00201584 -0.000270369 0)
(0.00205715 -0.000202745 0)
(0.00208728 -0.000135329 0)
(0.00210659 -6.81023e-05 0)
(0.00148494 -0.000635081 0)
(0.00143972 -0.00059898 0)
(0.00140307 -0.000569784 0)
(0.00137351 -0.000545935 0)
(0.00134988 -0.000526233 0)
(0.00133121 -0.000509737 0)
(0.0013167 -0.000495683 0)
(0.00130567 -0.000483412 0)
(0.00129746 -0.000472246 0)
(0.00148494 -0.000635081 0)
(0.00143972 -0.00059898 0)
(0.00140307 -0.000569784 0)
(0.00137351 -0.000545935 0)
(0.00134988 -0.000526233 0)
(0.00133121 -0.000509737 0)
(0.0013167 -0.000495683 0)
(0.00130567 -0.000483412 0)
(0.00129746 -0.000472246 0)
(0.0011437 -0.000568809 0)
(0.000996697 -0.000681479 0)
(0.000852066 -0.000798758 0)
(0.000711643 -0.000917344 0)
(0.000576964 -0.0010327 0)
(0.000449053 -0.00113948 0)
(0.000328267 -0.00123188 0)
(0.000214182 -0.00130401 0)
(0.000105486 -0.00135052 0)
(0 -0.00135375 0)
(0 -0.00133957 0)
(0 -0.00132475 0)
(0 -0.0013089 0)
(0 -0.00129143 0)
(0 -0.00127143 0)
(0 -0.00124751 0)
(0 -0.00121718 0)
(0 -0.00116889 0)
(0.000196955 -0.00111421 0)
(0.000380987 -0.00110789 0)
(0.000551892 -0.00108329 0)
(0.000712238 -0.0010422 0)
(0.000868821 -0.000993963 0)
(0.00101978 -0.000939225 0)
(0.00116345 -0.000879146 0)
(0.00129868 -0.000815095 0)
(0.00142458 -0.000748372 0)
(0.00164604 -0.00061149 0)
(0.00174117 -0.000542827 0)
(0.00182587 -0.000474372 0)
(0.00190001 -0.000406163 0)
(0.0019634 -0.000338173 0)
(0.00201584 -0.000270369 0)
(0.00205715 -0.000202745 0)
(0.00208728 -0.000135329 0)
(0.00210659 -6.81023e-05 0)
(0.00213061 0 0)
(0.0021404 0 0)
(0.00214804 0 0)
(0.00215425 0 0)
(0.00215958 0 0)
(0.00216444 0 0)
(0.00216915 0 0)
(0.00217394 0 0)
(0.00217901 0 0)
(0.00217486 -1.79319e-05 0)
(0.00214233 -3.73555e-05 0)
(0.00208859 -6.1009e-05 0)
(0.00201522 -9.09771e-05 0)
(0.0019241 -0.000128919 0)
(0.0018175 -0.000176054 0)
(0.00169797 -0.000233099 0)
(0.00156835 -0.000300181 0)
(0.00143169 -0.000376721 0)
(0.00220234 0 0)
(0.00222181 0 0)
(0.00224428 0 0)
(0.00227018 0 0)
(0.00229959 0 0)
(0.0023324 0 0)
(0.00236847 0 0)
(0.0024076 0 0)
(0.00244959 0 0)
(0.00249423 0 0)
(0.00254132 0 0)
(0.00259063 0 0)
(0.00264194 0 0)
(0.00269501 0 0)
(0.00274958 0 0)
(0.00280535 0 0)
(0.00286201 0 0)
(0.00291919 0 0)
(0.00297649 0 0)
(0.00303127 -4.56597e-06 0)
(0.00302715 -9.59618e-06 0)
(0.00302073 -1.52255e-05 0)
(0.00301205 -2.16994e-05 0)
(0.00300127 -2.92618e-05 0)
(0.00298863 -3.81315e-05 0)
(0.00297442 -4.84923e-05 0)
(0.00295894 -6.04862e-05 0)
(0.00294256 -7.42075e-05 0)
(0.00285348 -0.000108953 0)
(0.00278097 -0.000122277 0)
(0.00270799 -0.000130906 0)
(0.00263458 -0.000135832 0)
(0.00256078 -0.000137884 0)
(0.00248665 -0.000137809 0)
(0.0024122 -0.000136328 0)
(0.00233744 -0.00013418 0)
(0.00226228 -0.000132159 0)
(0.00218658 -0.000131135 0)
(0.00211006 -0.000132092 0)
(0.00203239 -0.000136146 0)
(0.00195306 -0.000144575 0)
(0.00187147 -0.000158838 0)
(0.00178689 -0.000180581 0)
(0.00169854 -0.000211617 0)
(0.00160558 -0.000253846 0)
(0.00150727 -0.000309053 0)
(0.0014029 -0.000378439 0)
(0.00291816 -9.70479e-05 0)
(0.00291069 -0.000104747 0)
(0.00290322 -0.000112774 0)
(0.0028958 -0.000121118 0)
(0.00288846 -0.00012977 0)
(0.00288123 -0.000138715 0)
(0.00287413 -0.000147935 0)
(0.0028672 -0.000157413 0)
(0.00286045 -0.000167125 0)
(0.0028539 -0.000177048 0)
(0.00284756 -0.000187157 0)
(0.00284144 -0.000197422 0)
(0.00283554 -0.000207815 0)
(0.00282986 -0.000218304 0)
(0.00282439 -0.000228859 0)
(0.0028191 -0.000239447 0)
(0.00281396 -0.000250039 0)
(0.00280893 -0.000260608 0)
(0.00280395 -0.000271132 0)
(0.00272256 -0.000297467 0)
(0.00264635 -0.000311907 0)
(0.00256945 -0.000324183 0)
(0.00249091 -0.000334163 0)
(0.00240988 -0.000342127 0)
(0.00232562 -0.000348615 0)
(0.00223747 -0.000354342 0)
(0.00214489 -0.000360159 0)
(0.00204736 -0.000367037 0)
(0.00194448 -0.000376062 0)
(0.00183592 -0.000388438 0)
(0.00172144 -0.000405484 0)
(0.001601 -0.000428621 0)
(0.00147475 -0.000459347 0)
(0.00134311 -0.00049918 0)
(0.0012069 -0.000549572 0)
(0.00106734 -0.000611775 0)
(0.00092621 -0.000686652 0)
(0.00078589 -0.000774432 0)
(0.000681731 -0.000856325 0)
(0.000712593 -0.000838387 0)
(0.000742275 -0.000820491 0)
(0.000771011 -0.000802499 0)
(0.000799047 -0.000784303 0)
(0.000826631 -0.000765813 0)
(0.00085401 -0.000746957 0)
(0.000881425 -0.000727681 0)
(0.000909113 -0.000707945 0)
(0.000937305 -0.000687723 0)
(0.000966226 -0.000667002 0)
(0.000996091 -0.000645781 0)
(0.00102711 -0.000624071 0)
(0.00105947 -0.000601892 0)
(0.00109338 -0.000579276 0)
(0.00112898 -0.000556258 0)
(0.00116644 -0.000532886 0)
(0.00120588 -0.000509208 0)
(0.00124744 -0.000485285 0)
(0.000554815 -0.000952428 0)
(0.000465477 -0.00103395 0)
(0.000382497 -0.00111669 0)
(0.000306744 -0.00119803 0)
(0.00023877 -0.00127503 0)
(0.000178682 -0.00134447 0)
(0.000126044 -0.00140309 0)
(7.98166e-05 -0.00144787 0)
(3.83843e-05 -0.00147636 0)
(0 -0.0014831 0)
(0 -0.00147827 0)
(0 -0.00147315 0)
(0 -0.00146778 0)
(0 -0.0014622 0)
(0 -0.00145643 0)
(0 -0.00145052 0)
(0 -0.00144448 0)
(0 -0.00143834 0)
(0 -0.00143212 0)
(0 -0.00142584 0)
(0 -0.0014195 0)
(0 -0.00141312 0)
(0 -0.00140671 0)
(0 -0.00140027 0)
(0 -0.0013938 0)
(0 -0.00138731 0)
(0 -0.00138078 0)
(0 -0.00137421 0)
(0.000179431 -0.00117061 0)
(0.000157241 -0.00120633 0)
(0.000142146 -0.00123392 0)
(0.000131722 -0.00125679 0)
(0.000124148 -0.0012763 0)
(0.000118474 -0.00129347 0)
(0.000114124 -0.00130903 0)
(0.000110704 -0.00132351 0)
(0.000107914 -0.00133726 0)
(0.000343266 -0.00114862 0)
(0.000308392 -0.00117618 0)
(0.000283134 -0.00119973 0)
(0.000264389 -0.00121985 0)
(0.000250223 -0.0012373 0)
(0.000239363 -0.00125278 0)
(0.00023092 -0.00126684 0)
(0.000224234 -0.00127988 0)
(0.000218792 -0.0012922 0)
(0.000498764 -0.00110857 0)
(0.00045663 -0.00112986 0)
(0.000423993 -0.00114817 0)
(0.000398758 -0.00116406 0)
(0.000379187 -0.00117802 0)
(0.000363933 -0.00119053 0)
(0.000351955 -0.00120192 0)
(0.000342437 -0.00121249 0)
(0.000334723 -0.00122243 0)
(0.000651801 -0.00105802 0)
(0.000603481 -0.00107138 0)
(0.000565248 -0.00108303 0)
(0.000535128 -0.00109335 0)
(0.000511427 -0.00110263 0)
(0.000492763 -0.0011111 0)
(0.000478018 -0.0011189 0)
(0.000466293 -0.00112619 0)
(0.000456844 -0.00113303 0)
(0.000802324 -0.000998689 0)
(0.000749288 -0.00100297 0)
(0.000707089 -0.00100708 0)
(0.000673584 -0.0010111 0)
(0.000647023 -0.00101502 0)
(0.000625988 -0.00101885 0)
(0.000609325 -0.00102255 0)
(0.000596095 -0.00102611 0)
(0.000585525 -0.00102951 0)
(0.000949691 -0.000932123 0)
(0.000893891 -0.000926917 0)
(0.000849407 -0.000923228 0)
(0.00081396 -0.000920719 0)
(0.000785754 -0.000919102 0)
(0.000763355 -0.000918136 0)
(0.000745604 -0.000917624 0)
(0.00073156 -0.000917405 0)
(0.000720453 -0.000917347 0)
(0.00109286 -0.000860451 0)
(0.00103654 -0.000845955 0)
(0.000991544 -0.00083466 0)
(0.00095559 -0.000825811 0)
(0.000926913 -0.000818826 0)
(0.000904112 -0.000813246 0)
(0.000886057 -0.000808709 0)
(0.000871835 -0.000804925 0)
(0.000860705 -0.000801666 0)
(0.00123061 -0.000785823 0)
(0.00117606 -0.00076279 0)
(0.00113231 -0.000744487 0)
(0.00109725 -0.000729801 0)
(0.00106924 -0.000717891 0)
(0.00104697 -0.000708105 0)
(0.00102936 -0.000699933 0)
(0.00101555 -0.00069297 0)
(0.00100484 -0.000686897 0)
(0.00136171 -0.000710159 0)
(0.00131099 -0.000679806 0)
(0.00127011 -0.00065544 0)
(0.00123726 -0.00063568 0)
(0.00121098 -0.000619479 0)
(0.00119012 -0.000606034 0)
(0.0011737 -0.00059471 0)
(0.00116091 -0.000584997 0)
(0.00115109 -0.000576472 0)
(0.00159917 -0.000561847 0)
(0.00156064 -0.000521877 0)
(0.00152912 -0.000489452 0)
(0.00150351 -0.000462949 0)
(0.0014829 -0.00044112 0)
(0.0014665 -0.000423001 0)
(0.00145367 -0.000407855 0)
(0.00144384 -0.000395154 0)
(0.00143659 -0.000384647 0)
(0.00170387 -0.000490954 0)
(0.00167284 -0.000449055 0)
(0.0016472 -0.000415028 0)
(0.00162621 -0.000387255 0)
(0.00160924 -0.000364491 0)
(0.00159573 -0.00034579 0)
(0.00158521 -0.000330443 0)
(0.00157731 -0.000317952 0)
(0.00157176 -0.000307987 0)
(0.00179848 -0.000422573 0)
(0.00177532 -0.000380675 0)
(0.00175597 -0.000346645 0)
(0.00174002 -0.000318914 0)
(0.00172709 -0.000296273 0)
(0.00171687 -0.000277791 0)
(0.00170906 -0.00026275 0)
(0.00170343 -0.000250589 0)
(0.00169979 -0.000240837 0)
(0.00188238 -0.000356674 0)
(0.00186706 -0.00031663 0)
(0.00185403 -0.000284116 0)
(0.0018432 -0.000257652 0)
(0.00183444 -0.000236091 0)
(0.00182763 -0.000218538 0)
(0.00182265 -0.000204281 0)
(0.00181938 -0.000192748 0)
(0.00181769 -0.000183469 0)
(0.00195494 -0.000293103 0)
(0.00194703 -0.000256641 0)
(0.00194 -0.000227047 0)
(0.00193406 -0.000202983 0)
(0.00192931 -0.000183402 0)
(0.0019258 -0.000167479 0)
(0.00192354 -0.000154555 0)
(0.00192253 -0.000144098 0)
(0.00192273 -0.000135672 0)
(0.00201552 -0.000231622 0)
(0.00201421 -0.000200286 0)
(0.00201256 -0.000174876 0)
(0.002011 -0.00015424 0)
(0.00200985 -0.000137476 0)
(0.0020093 -0.000123863 0)
(0.0020095 -0.000112827 0)
(0.00201053 -0.000103907 0)
(0.00201243 -9.67275e-05 0)
(0.00206358 -0.000171913 0)
(0.00206775 -0.00014701 0)
(0.00207055 -0.000126871 0)
(0.00207263 -0.000110574 0)
(0.00207444 -9.73697e-05 0)
(0.00207634 -8.66692e-05 0)
(0.00207857 -7.80129e-05 0)
(0.00208129 -7.10377e-05 0)
(0.00208461 -6.54512e-05 0)
(0.00209873 -0.000113558 0)
(0.002107 -9.61198e-05 0)
(0.00211305 -8.22056e-05 0)
(0.00211774 -7.1013e-05 0)
(0.00212169 -6.19639e-05 0)
(0.00212536 -5.46391e-05 0)
(0.00212906 -4.87259e-05 0)
(0.00213303 -4.39881e-05 0)
(0.00213742 -4.0246e-05 0)
(0.00212117 -5.59522e-05 0)
(0.00213152 -4.71001e-05 0)
(0.00213922 -4.01432e-05 0)
(0.00214528 -3.45421e-05 0)
(0.0021504 -2.99971e-05 0)
(0.00215505 -2.63066e-05 0)
(0.0021596 -2.33258e-05 0)
(0.0021643 -2.09551e-05 0)
(0.00216934 -1.91455e-05 0)
(0.0021926 -1.22744e-05 0)
(0.00216384 -2.63255e-05 0)
(0.00211661 -4.41027e-05 0)
(0.00205202 -6.73279e-05 0)
(0.00197155 -9.74677e-05 0)
(0.00187699 -0.000135687 0)
(0.00177041 -0.000182786 0)
(0.00165412 -0.00023914 0)
(0.00153068 -0.000304614 0)
(0.002213 -9.19971e-06 0)
(0.0021877 -1.99881e-05 0)
(0.00214625 -3.38595e-05 0)
(0.00208945 -5.22125e-05 0)
(0.00201844 -7.62892e-05 0)
(0.00193463 -0.000107131 0)
(0.00183967 -0.000145528 0)
(0.00173539 -0.000191972 0)
(0.00162383 -0.000246588 0)
(0.00223652 -7.62155e-06 0)
(0.00221427 -1.65502e-05 0)
(0.00217779 -2.79467e-05 0)
(0.00212772 -4.29266e-05 0)
(0.00206494 -6.251e-05 0)
(0.00199056 -8.75858e-05 0)
(0.0019059 -0.000118875 0)
(0.00181241 -0.000156893 0)
(0.00171171 -0.000201901 0)
(0.00226338 -6.95887e-06 0)
(0.00224373 -1.49551e-05 0)
(0.00221149 -2.48917e-05 0)
(0.00216715 -3.7646e-05 0)
(0.00211143 -5.40364e-05 0)
(0.00204525 -7.4795e-05 0)
(0.00196964 -0.000100542 0)
(0.00188578 -0.000131758 0)
(0.00179495 -0.000168752 0)
(0.0022936 -6.87148e-06 0)
(0.00227616 -1.45527e-05 0)
(0.00224749 -2.37453e-05 0)
(0.00220803 -3.51337e-05 0)
(0.00215837 -4.93629e-05 0)
(0.00209926 -6.70196e-05 0)
(0.00203157 -8.86148e-05 0)
(0.00195624 -0.000114565 0)
(0.00187432 -0.000145169 0)
(0.0023271 -7.14859e-06 0)
(0.00231153 -1.49257e-05 0)
(0.0022859 -2.38768e-05 0)
(0.0022506 -3.45333e-05 0)
(0.00220612 -4.73982e-05 0)
(0.00215313 -6.29328e-05 0)
(0.00209234 -8.15445e-05 0)
(0.00202456 -0.000103575 0)
(0.00195064 -0.000129284 0)
(0.00236374 -7.65215e-06 0)
(0.00234976 -1.57935e-05 0)
(0.00232674 -2.48495e-05 0)
(0.00229499 -3.52335e-05 0)
(0.00225499 -4.73358e-05 0)
(0.0022073 -6.1515e-05 0)
(0.00215255 -7.80887e-05 0)
(0.00209144 -9.73262e-05 0)
(0.0020247 -0.00011944 0)
(0.00240336 -8.28585e-06 0)
(0.00239075 -1.69564e-05 0)
(0.00236997 -2.63468e-05 0)
(0.00234131 -3.67806e-05 0)
(0.00230519 -4.85621e-05 0)
(0.00226212 -6.19689e-05 0)
(0.00221268 -7.72458e-05 0)
(0.00215749 -9.45996e-05 0)
(0.00209717 -0.000114194 0)
(0.00244577 -8.97762e-06 0)
(0.00243436 -1.82636e-05 0)
(0.00241552 -2.81262e-05 0)
(0.00238955 -3.88229e-05 0)
(0.00235684 -5.05938e-05 0)
(0.00231784 -6.36558e-05 0)
(0.00227309 -7.81972e-05 0)
(0.00222316 -9.43749e-05 0)
(0.00216862 -0.000112311 0)
(0.00249078 -9.66942e-06 0)
(0.00248042 -1.95929e-05 0)
(0.0024633 -2.9991e-05 0)
(0.00243971 -4.10738e-05 0)
(0.00240999 -5.30354e-05 0)
(0.0023746 -6.60486e-05 0)
(0.00233403 -8.02606e-05 0)
(0.00228881 -9.57909e-05 0)
(0.00223948 -0.000112729 0)
(0.00253819 -1.03111e-05 0)
(0.00252876 -2.08394e-05 0)
(0.00251318 -3.17726e-05 0)
(0.00249169 -4.32884e-05 0)
(0.00246466 -5.55494e-05 0)
(0.00243249 -6.8698e-05 0)
(0.00239566 -8.28534e-05 0)
(0.00235467 -9.81087e-05 0)
(0.00231004 -0.00011453 0)
(0.0025878 -1.08563e-05 0)
(0.00257921 -2.19065e-05 0)
(0.00256499 -3.33173e-05 0)
(0.0025454 -4.52458e-05 0)
(0.00252077 -5.78346e-05 0)
(0.0024915 -7.1207e-05 0)
(0.00245804 -8.54639e-05 0)
(0.00242088 -0.000100682 0)
(0.00238052 -0.000116912 0)
(0.00263938 -1.12597e-05 0)
(0.00263154 -2.27004e-05 0)
(0.00261857 -3.44772e-05 0)
(0.00260069 -4.67363e-05 0)
(0.00257824 -5.96094e-05 0)
(0.00255159 -7.32093e-05 0)
(0.00252119 -8.76265e-05 0)
(0.00248751 -0.000102928 0)
(0.00245101 -0.000119155 0)
(0.0026927 -1.14739e-05 0)
(0.00268555 -2.3124e-05 0)
(0.0026737 -3.51013e-05 0)
(0.00265739 -4.75487e-05 0)
(0.00263691 -6.05952e-05 0)
(0.00261266 -7.43499e-05 0)
(0.00258505 -8.88989e-05 0)
(0.00255453 -0.000104304 0)
(0.00252157 -0.000120602 0)
(0.0027475 -1.14473e-05 0)
(0.00274098 -2.30709e-05 0)
(0.00273016 -3.50248e-05 0)
(0.00271528 -4.74565e-05 0)
(0.00269663 -6.04992e-05 0)
(0.00267457 -7.42643e-05 0)
(0.00264951 -8.88379e-05 0)
(0.00262188 -0.00010428 0)
(0.00259215 -0.000120625 0)
(0.00280348 -1.112e-05 0)
(0.00279754 -2.24175e-05 0)
(0.00278768 -3.40569e-05 0)
(0.00277412 -4.62e-05 0)
(0.00275715 -5.89922e-05 0)
(0.00273712 -7.25527e-05 0)
(0.00271442 -8.69704e-05 0)
(0.00268946 -0.000102305 0)
(0.0026627 -0.000118589 0)
(0.00286032 -1.04203e-05 0)
(0.00285491 -2.10111e-05 0)
(0.00284592 -3.19614e-05 0)
(0.00283361 -4.34624e-05 0)
(0.00281822 -5.56814e-05 0)
(0.0028001 -6.87482e-05 0)
(0.0027796 -8.27574e-05 0)
(0.00275713 -9.77705e-05 0)
(0.00273311 -0.000113818 0)
(0.00291762 -9.25616e-06 0)
(0.00291266 -1.86465e-05 0)
(0.00290451 -2.84246e-05 0)
(0.00289339 -3.88394e-05 0)
(0.00287953 -5.00754e-05 0)
(0.00286324 -6.22753e-05 0)
(0.00284484 -7.55446e-05 0)
(0.00282472 -8.99519e-05 0)
(0.00280328 -0.000105529 0)
(0.00297488 -7.4831e-06 0)
(0.00297028 -1.49951e-05 0)
(0.00296296 -2.30248e-05 0)
(0.00295304 -3.18083e-05 0)
(0.0029407 -4.15429e-05 0)
(0.00292621 -5.23952e-05 0)
(0.00290988 -6.44956e-05 0)
(0.00289205 -7.79333e-05 0)
(0.00287312 -9.27528e-05 0)
(0.00136351 -0.000399248 0)
(0.0013252 -0.000420384 0)
(0.00128819 -0.000441696 0)
(0.00125254 -0.000463055 0)
(0.00121824 -0.00048435 0)
(0.00118524 -0.000505491 0)
(0.00115344 -0.000526408 0)
(0.00112275 -0.000547048 0)
(0.00109302 -0.000567372 0)
(0.00106413 -0.000587357 0)
(0.00103593 -0.000606997 0)
(0.00100824 -0.000626298 0)
(0.000980925 -0.000645281 0)
(0.000953804 -0.000663984 0)
(0.000926713 -0.000682458 0)
(0.000899484 -0.000700772 0)
(0.000871952 -0.000719014 0)
(0.000843952 -0.000737287 0)
(0.000815324 -0.000755715 0)
(0.00147126 -0.00032793 0)
(0.00143604 -0.000347089 0)
(0.0014017 -0.000366454 0)
(0.0013683 -0.000385944 0)
(0.00133586 -0.000405483 0)
(0.00130439 -0.000425002 0)
(0.00127386 -0.000444443 0)
(0.0012442 -0.000463758 0)
(0.00121537 -0.000482913 0)
(0.00118727 -0.000501887 0)
(0.00115982 -0.000520671 0)
(0.00113293 -0.000539269 0)
(0.0011065 -0.000557699 0)
(0.00108042 -0.000575994 0)
(0.0010546 -0.0005942 0)
(0.00102894 -0.000612379 0)
(0.00100334 -0.000630609 0)
(0.000977734 -0.000648986 0)
(0.000952039 -0.000667621 0)
(0.00157262 -0.000270938 0)
(0.00154024 -0.000288303 0)
(0.0015085 -0.00030589 0)
(0.00147745 -0.000323647 0)
(0.00144712 -0.000341524 0)
(0.00141753 -0.000359471 0)
(0.00138868 -0.000377447 0)
(0.00136056 -0.000395416 0)
(0.00133315 -0.000413354 0)
(0.00130642 -0.000431243 0)
(0.00128032 -0.000449077 0)
(0.00125481 -0.000466861 0)
(0.00122985 -0.000484609 0)
(0.0012054 -0.00050235 0)
(0.0011814 -0.000520124 0)
(0.00115783 -0.000537982 0)
(0.00113464 -0.000555991 0)
(0.00111183 -0.000574229 0)
(0.00108939 -0.000592788 0)
(0.00166847 -0.00022702 0)
(0.00163881 -0.000242716 0)
(0.00160962 -0.000258667 0)
(0.00158095 -0.000274835 0)
(0.00155285 -0.000291183 0)
(0.00152533 -0.000307676 0)
(0.00149843 -0.000324283 0)
(0.00147216 -0.00034098 0)
(0.00144653 -0.000357748 0)
(0.00142154 -0.000374574 0)
(0.00139718 -0.000391456 0)
(0.00137346 -0.000408397 0)
(0.00135036 -0.000425409 0)
(0.0013279 -0.000442516 0)
(0.00130606 -0.000459749 0)
(0.00128486 -0.000477148 0)
(0.00126431 -0.000494766 0)
(0.00124443 -0.000512661 0)
(0.00122528 -0.000530903 0)
(0.00175958 -0.000194461 0)
(0.00173256 -0.000208663 0)
(0.00170588 -0.000223156 0)
(0.0016796 -0.000237909 0)
(0.00165376 -0.000252894 0)
(0.00162843 -0.000268086 0)
(0.00160362 -0.000283461 0)
(0.00157938 -0.000299001 0)
(0.00155573 -0.000314692 0)
(0.0015327 -0.000330525 0)
(0.00151031 -0.000346498 0)
(0.0014886 -0.000362612 0)
(0.00146758 -0.000378878 0)
(0.00144728 -0.000395312 0)
(0.00142775 -0.000411936 0)
(0.00140901 -0.000428781 0)
(0.00139111 -0.000445882 0)
(0.00137411 -0.000463282 0)
(0.00135809 -0.00048103 0)
(0.00184678 -0.000171417 0)
(0.00182228 -0.000184339 0)
(0.00179803 -0.00019758 0)
(0.0017741 -0.000211116 0)
(0.00175054 -0.000224924 0)
(0.0017274 -0.000238986 0)
(0.00170473 -0.000253284 0)
(0.00168258 -0.000267802 0)
(0.001661 -0.00028253 0)
(0.00164003 -0.000297461 0)
(0.00161971 -0.000312591 0)
(0.00160008 -0.000327921 0)
(0.0015812 -0.000343456 0)
(0.00156311 -0.000359206 0)
(0.00154587 -0.000375187 0)
(0.00152953 -0.000391417 0)
(0.00151417 -0.000407918 0)
(0.00149986 -0.00042472 0)
(0.00148669 -0.000441852 0)
(0.00193082 -0.00015609 0)
(0.00190871 -0.000167959 0)
(0.00188679 -0.000180164 0)
(0.00186512 -0.000192686 0)
(0.00184376 -0.000205508 0)
(0.00182277 -0.000218614 0)
(0.00180222 -0.000231991 0)
(0.00178215 -0.000245626 0)
(0.00176262 -0.000259511 0)
(0.00174369 -0.000273637 0)
(0.00172542 -0.000288 0)
(0.00170785 -0.0003026 0)
(0.00169106 -0.000317437 0)
(0.00167509 -0.000332515 0)
(0.00166003 -0.000347842 0)
(0.00164594 -0.000363427 0)
(0.00163291 -0.000379283 0)
(0.00162101 -0.000395423 0)
(0.00161034 -0.000411864 0)
(0.00201242 -0.000146824 0)
(0.00199253 -0.000157856 0)
(0.00197278 -0.000169229 0)
(0.00195324 -0.000180929 0)
(0.00193397 -0.000192942 0)
(0.00191503 -0.000205256 0)
(0.0018965 -0.000217861 0)
(0.00187842 -0.000230745 0)
(0.00186086 -0.000243899 0)
(0.00184389 -0.000257318 0)
(0.00182756 -0.000270993 0)
(0.00181194 -0.000284923 0)
(0.0017971 -0.000299104 0)
(0.0017831 -0.000313535 0)
(0.00177003 -0.000328217 0)
(0.00175796 -0.000343152 0)
(0.00174697 -0.000358343 0)
(0.00173716 -0.000373792 0)
(0.00172862 -0.000389505 0)
(0.00209215 -0.00014213 0)
(0.00207429 -0.000152515 0)
(0.00205654 -0.000163236 0)
(0.00203896 -0.000174282 0)
(0.00202163 -0.000185643 0)
(0.0020046 -0.000197311 0)
(0.00198794 -0.000209274 0)
(0.00197171 -0.000221525 0)
(0.00195598 -0.000234054 0)
(0.00194081 -0.000246853 0)
(0.00192627 -0.000259917 0)
(0.00191243 -0.000273237 0)
(0.00189936 -0.000286809 0)
(0.00188713 -0.000300628 0)
(0.00187581 -0.000314687 0)
(0.00186549 -0.000328983 0)
(0.00185625 -0.000343512 0)
(0.00184818 -0.000358268 0)
(0.00184137 -0.000373245 0)
(0.0021705 -0.000140696 0)
(0.00215446 -0.000150588 0)
(0.0021385 -0.000160803 0)
(0.0021227 -0.000171335 0)
(0.00210712 -0.000182175 0)
(0.00209182 -0.000193316 0)
(0.00207686 -0.000204749 0)
(0.00206231 -0.000216466 0)
(0.00204823 -0.000228459 0)
(0.00203469 -0.000240719 0)
(0.00202175 -0.000253238 0)
(0.00200949 -0.000266008 0)
(0.00199796 -0.000279019 0)
(0.00198725 -0.000292264 0)
(0.00197743 -0.000305732 0)
(0.00196857 -0.000319415 0)
(0.00196076 -0.000333301 0)
(0.00195408 -0.00034738 0)
(0.00194863 -0.000361638 0)
(0.00224783 -0.000141364 0)
(0.00223339 -0.00015088 0)
(0.00221903 -0.000160704 0)
(0.0022048 -0.000170829 0)
(0.00219078 -0.000181249 0)
(0.00217701 -0.000191959 0)
(0.00216356 -0.000202949 0)
(0.00215049 -0.000214214 0)
(0.00213787 -0.000225744 0)
(0.00212575 -0.000237531 0)
(0.0021142 -0.000249565 0)
(0.00210328 -0.000261837 0)
(0.00209307 -0.000274335 0)
(0.00208363 -0.000287048 0)
(0.00207504 -0.000299962 0)
(0.00206736 -0.000313065 0)
(0.00206067 -0.000326342 0)
(0.00205505 -0.000339775 0)
(0.00205059 -0.000353346 0)
(0.00232439 -0.000143115 0)
(0.00231134 -0.000152339 0)
(0.00229837 -0.000161851 0)
(0.00228551 -0.000171646 0)
(0.00227284 -0.00018172 0)
(0.0022604 -0.000192067 0)
(0.00224826 -0.000202681 0)
(0.00223648 -0.000213555 0)
(0.0022251 -0.000224681 0)
(0.00221419 -0.000236048 0)
(0.00220382 -0.000247648 0)
(0.00219404 -0.000259468 0)
(0.00218491 -0.000271497 0)
(0.00217649 -0.00028372 0)
(0.00216886 -0.000296121 0)
(0.00216208 -0.000308685 0)
(0.00215622 -0.000321392 0)
(0.00215135 -0.000334222 0)
(0.00214755 -0.000347153 0)
(0.00240034 -0.000145042 0)
(0.00238849 -0.000154025 0)
(0.00237669 -0.000163275 0)
(0.00236501 -0.00017279 0)
(0.0023535 -0.000182566 0)
(0.0023422 -0.000192598 0)
(0.00233117 -0.000202881 0)
(0.00232047 -0.000213408 0)
(0.00231014 -0.000224171 0)
(0.00230025 -0.000235161 0)
(0.00229084 -0.000246367 0)
(0.00228198 -0.000257776 0)
(0.00227371 -0.000269376 0)
(0.00226609 -0.000281151 0)
(0.00225918 -0.000293082 0)
(0.00225305 -0.000305152 0)
(0.00224774 -0.000317337 0)
(0.00224334 -0.000329615 0)
(0.00223989 -0.00034196 0)
(0.00247579 -0.000146325 0)
(0.00246493 -0.000155091 0)
(0.00245413 -0.000164105 0)
(0.00244344 -0.000173366 0)
(0.00243289 -0.000182871 0)
(0.00242255 -0.000192617 0)
(0.00241245 -0.000202598 0)
(0.00240265 -0.000212808 0)
(0.00239319 -0.00022324 0)
(0.00238412 -0.000233883 0)
(0.00237549 -0.000244728 0)
(0.00236735 -0.000255762 0)
(0.00235974 -0.00026697 0)
(0.00235271 -0.000278336 0)
(0.00234632 -0.000289841 0)
(0.0023406 -0.000301464 0)
(0.00233562 -0.000313181 0)
(0.00233143 -0.000324966 0)
(0.00232807 -0.000336787 0)
(0.00255075 -0.000146203 0)
(0.00254072 -0.000154756 0)
(0.00253074 -0.000163542 0)
(0.00252086 -0.00017256 0)
(0.00251112 -0.000181808 0)
(0.00250156 -0.000191283 0)
(0.00249223 -0.000200981 0)
(0.00248316 -0.000210894 0)
(0.00247441 -0.000221017 0)
(0.002466 -0.00023134 0)
(0.00245799 -0.000241852 0)
(0.0024504 -0.000252542 0)
(0.00244329 -0.000263394 0)
(0.00243668 -0.000274392 0)
(0.00243062 -0.000285517 0)
(0.00242514 -0.000296744 0)
(0.00242029 -0.00030805 0)
(0.0024161 -0.000319405 0)
(0.00241262 -0.000330776 0)
(0.00262522 -0.000143942 0)
(0.00261587 -0.000152276 0)
(0.00260656 -0.000160833 0)
(0.00259734 -0.000169613 0)
(0.00258826 -0.000178613 0)
(0.00257934 -0.000187831 0)
(0.00257063 -0.000197261 0)
(0.00256216 -0.000206898 0)
(0.00255397 -0.000216736 0)
(0.00254609 -0.000226765 0)
(0.00253856 -0.000236976 0)
(0.0025314 -0.000247356 0)
(0.00252465 -0.000257891 0)
(0.00251833 -0.000268564 0)
(0.00251247 -0.000279356 0)
(0.0025071 -0.000290244 0)
(0.00250223 -0.000301202 0)
(0.00249789 -0.000312198 0)
(0.00249411 -0.000323199 0)
(0.00269918 -0.000138795 0)
(0.00269037 -0.000146906 0)
(0.00268161 -0.000155239 0)
(0.00267294 -0.000163792 0)
(0.00266438 -0.000172564 0)
(0.00265598 -0.000181549 0)
(0.00264778 -0.000190743 0)
(0.00263979 -0.00020014 0)
(0.00263205 -0.000209731 0)
(0.0026246 -0.000219509 0)
(0.00261745 -0.000229464 0)
(0.00261062 -0.000239582 0)
(0.00260415 -0.000249851 0)
(0.00259803 -0.000260255 0)
(0.00259229 -0.000270774 0)
(0.00258694 -0.000281387 0)
(0.00258197 -0.000292068 0)
(0.00257741 -0.000302785 0)
(0.00257323 -0.000313505 0)
(0.0027726 -0.000129943 0)
(0.00276425 -0.000137846 0)
(0.00275595 -0.000145984 0)
(0.00274772 -0.000154352 0)
(0.00273961 -0.000162946 0)
(0.00273164 -0.000171759 0)
(0.00272385 -0.000180784 0)
(0.00271625 -0.000190013 0)
(0.00270889 -0.000199437 0)
(0.00270178 -0.000209047 0)
(0.00269493 -0.000218829 0)
(0.00268838 -0.000228773 0)
(0.00268212 -0.000238863 0)
(0.00267617 -0.000249083 0)
(0.00267052 -0.000259415 0)
(0.00266516 -0.000269839 0)
(0.0026601 -0.000280331 0)
(0.00265529 -0.000290863 0)
(0.00265072 -0.000301402 0)
(0.00284554 -0.000116424 0)
(0.00283762 -0.000124175 0)
(0.00282972 -0.000132192 0)
(0.0028219 -0.000140468 0)
(0.00281417 -0.000148993 0)
(0.00280657 -0.000157758 0)