/*--------------------------------*- C++ -*----------------------------------*\
| =========                 |                                                 |
| \\      /  F ield         | OpenFOAM: The Open Source CFD Toolbox           |
|  \\    /   O peration     | Version:  v2012                                 |
|   \\  /    A nd           | Website:  www.openfoam.com                      |
|    \\/     M anipulation  |                                                 |
\*---------------------------------------------------------------------------*/
FoamFile
{
    version     2.0;
    format      ascii;
    class       volSymmTensorField;
    location    "6";
    object      sigma;
}
// * * * * * * * * * * * * * * * * * * * * * * * * * * * * * * * * * * * * * //

dimensions      [1 -1 -2 0 0 0 0];


internalField   nonuniform List<symmTensor> 
2000
(
(2.82745e+08 -9.09242e+06 -1.40226e-06 6.15162e+06 -4.04102e-07 1.06727e+08)
(2.7033e+08 -2.41412e+07 -1.57976e-06 -1.82934e+06 -2.27436e-07 9.24467e+07)
(2.95815e+08 -2.76974e+06 -2.01926e-08 2.18285e+07 9.64797e-08 1.06626e+08)
(2.78241e+08 -2.59751e+07 1.86963e-07 1.04728e+07 1.15054e-07 8.73466e+07)
(2.94361e+08 5.48283e+06 2.10168e-07 3.28184e+07 3.26929e-07 9.81537e+07)
(2.48228e+08 -1.59954e+07 3.12334e-07 1.96691e+07 3.26929e-07 8.03691e+07)
(2.58261e+08 7.09687e+06 5.54611e-08 3.70777e+07 1.98492e-07 8.86016e+07)
(2.2339e+08 -9.75363e+06 9.77867e-08 2.35099e+07 2.80225e-07 7.40701e+07)
(2.31374e+08 7.53019e+06 2.0433e-08 3.76485e+07 1.7514e-07 8.07066e+07)
(2.04219e+08 -6.04911e+06 3.79471e-08 2.56351e+07 1.63464e-07 6.89561e+07)
(2.10336e+08 7.5668e+06 8.75702e-09 3.63714e+07 3.50281e-08 7.40122e+07)
(1.88696e+08 -3.62092e+06 2.18925e-08 2.62111e+07 9.34082e-08 6.44723e+07)
(1.93304e+08 7.47748e+06 7.29751e-09 3.40767e+07 1.05084e-07 6.82143e+07)
(1.75707e+08 -1.92832e+06 2.3352e-08 2.56221e+07 -2.3352e-08 6.03988e+07)
(1.79129e+08 7.36465e+06 1.02165e-08 3.11881e+07 3.50281e-08 6.30953e+07)
(1.64537e+08 -705908 1.7514e-08 2.42091e+07 4.67041e-08 5.66238e+07)
(1.67029e+08 7.27152e+06 1.4595e-09 2.79425e+07 3.50281e-08 5.84913e+07)
(1.54675e+08 187538 1.1676e-08 2.22351e+07 2.3352e-08 5.30731e+07)
(1.56425e+08 7.22061e+06 1.4595e-09 2.44823e+07 2.3352e-08 5.42723e+07)
(1.45703e+08 820834 4.37851e-09 1.98944e+07 0 4.96791e+07)
(2.87335e+08 -2.32686e+07 -1.89783e-06 1.55141e+07 -7.53229e-07 1.06595e+08)
(2.66397e+08 -4.27395e+07 -2.57356e-07 5.18031e+06 -6.02525e-07 8.68652e+07)
(2.94339e+08 -2.09375e+07 1.20373e-07 2.58276e+07 1.53114e-07 9.95861e+07)
(2.61866e+08 -3.69909e+07 3.21091e-07 1.95211e+07 3.26929e-07 8.44162e+07)
(2.75843e+08 -8.29826e+06 4.34932e-07 2.96288e+07 4.43689e-07 9.16417e+07)
(2.37066e+08 -2.30255e+07 2.62711e-07 2.04676e+07 1.86816e-07 7.72601e+07)
(2.49847e+08 -312856 1.40112e-07 3.25858e+07 2.45196e-07 8.47299e+07)
(2.16732e+08 -1.36114e+07 1.10922e-07 2.19395e+07 9.34082e-08 7.16014e+07)
(2.27576e+08 4.53268e+06 6.12991e-08 3.31414e+07 1.1676e-07 7.82153e+07)
(1.99961e+08 -7.05339e+06 5.25421e-08 2.27551e+07 1.40112e-07 6.68147e+07)
(2.08921e+08 7.66652e+06 4.08661e-08 3.22312e+07 8.17322e-08 7.23455e+07)
(1.85906e+08 -2.3543e+06 5.25421e-08 2.27251e+07 0 6.25893e+07)
(1.93237e+08 9.77709e+06 3.21091e-08 3.04069e+07 7.00561e-08 6.70931e+07)
(1.7391e+08 1.07862e+06 2.91901e-08 2.1959e+07 4.67041e-08 5.87607e+07)
(1.79892e+08 1.12296e+07 3.21091e-08 2.80208e+07 3.50281e-08 6.23737e+07)
(1.63474e+08 3.61005e+06 5.83801e-09 2.06293e+07 7.00561e-08 5.5231e+07)
(1.6836e+08 1.22262e+07 1.1676e-08 2.53166e+07 1.1676e-08 5.81031e+07)
(1.54226e+08 5.47011e+06 1.1676e-08 1.88994e+07 1.1676e-07 5.19375e+07)
(1.58238e+08 1.28659e+07 1.1676e-08 2.24875e+07 4.67041e-08 5.42177e+07)
(1.45917e+08 6.80635e+06 1.1676e-08 1.69053e+07 2.3352e-08 4.88468e+07)
(2.82473e+08 -4.25749e+07 -3.22817e-07 2.20262e+07 -5.93391e-07 9.99354e+07)
(2.57563e+08 -5.97441e+07 -1.28436e-07 1.65992e+07 -2.56873e-07 8.22486e+07)
(2.7583e+08 -3.27028e+07 9.92462e-08 2.32547e+07 3.50281e-08 8.97253e+07)
(2.3987e+08 -4.25008e+07 1.05084e-07 1.92134e+07 -3.03577e-07 7.77251e+07)
(2.5701e+08 -1.75721e+07 1.98492e-07 2.61076e+07 4.67041e-08 8.49354e+07)
(2.22256e+08 -2.80543e+07 5.83801e-08 1.94181e+07 -1.63464e-07 7.25022e+07)
(2.3769e+08 -6.80215e+06 1.22598e-07 2.73729e+07 3.50281e-08 7.95189e+07)
(2.06609e+08 -1.69282e+07 4.67041e-08 1.92997e+07 0 6.77726e+07)
(2.20069e+08 849032 7.58942e-08 2.73416e+07 -1.1676e-08 7.42231e+07)
(1.93027e+08 -8.50857e+06 2.3352e-08 1.8832e+07 2.3352e-08 6.35576e+07)
(2.04591e+08 6.33259e+06 2.91901e-08 2.63723e+07 9.34082e-08 6.92889e+07)
(1.81251e+08 -2.14703e+06 2.3352e-08 1.7996e+07 -4.67041e-08 5.9774e+07)
(1.91121e+08 1.02936e+07 1.1676e-08 2.47634e+07 -1.1676e-08 6.47652e+07)
(1.70964e+08 2.66832e+06 5.83801e-09 1.68373e+07 -7.00561e-08 5.63403e+07)
(1.79366e+08 1.31609e+07 1.7514e-08 2.27423e+07 -4.67041e-08 6.06326e+07)
(1.61876e+08 6.31287e+06 3.50281e-08 1.54305e+07 -2.3352e-08 5.31921e+07)
(1.69022e+08 1.52213e+07 5.83801e-09 2.0474e+07 1.1676e-07 5.68489e+07)
(1.53745e+08 9.05636e+06 1.7514e-08 1.38531e+07 7.00561e-08 5.02794e+07)
(1.59813e+08 1.66748e+07 2.91901e-09 1.8059e+07 9.34082e-08 5.33617e+07)
(1.46354e+08 1.10942e+07 1.7514e-08 1.21732e+07 -2.3352e-08 4.75581e+07)
(2.68785e+08 -5.9869e+07 1.15027e-07 2.39557e+07 -4.256e-07 8.85768e+07)
(2.3116e+08 -6.68048e+07 2.91901e-07 2.30304e+07 -3.15253e-07 7.62572e+07)
(2.52582e+08 -4.11588e+07 3.50281e-08 2.31041e+07 -3.73633e-07 8.27058e+07)
(2.17794e+08 -4.76472e+07 1.1676e-08 2.15159e+07 -7.00561e-08 7.17929e+07)
(2.37123e+08 -2.51255e+07 2.3352e-08 2.30126e+07 -1.98492e-07 7.80407e+07)
(2.05317e+08 -3.21396e+07 7.00561e-08 1.91587e+07 -9.34082e-08 6.73427e+07)
(2.22727e+08 -1.26977e+07 6.42181e-08 2.24545e+07 -8.17322e-08 7.35544e+07)
(1.93967e+08 -1.99051e+07 5.25421e-08 1.6834e+07 -9.34082e-08 6.32402e+07)
(2.09496e+08 -3.27371e+06 4.08661e-08 2.14141e+07 -2.3352e-08 6.92731e+07)
(1.83782e+08 -1.03695e+07 -1.1676e-08 1.47056e+07 0 5.95463e+07)
(1.97529e+08 3.819e+06 0 1.9991e+07 -3.50281e-08 6.52559e+07)
(1.74676e+08 -2.97147e+06 -5.83801e-09 1.27584e+07 4.67041e-08 5.62303e+07)
(1.86783e+08 9.13983e+06 3.50281e-08 1.83024e+07 -9.34082e-08 6.15256e+07)
(1.66515e+08 2.75712e+06 0 1.09565e+07 2.3352e-08 5.32413e+07)
(1.77141e+08 1.31144e+07 -5.83801e-09 1.64523e+07 -2.3352e-08 5.8078e+07)
(1.59157e+08 7.18214e+06 -2.3352e-08 9.27693e+06 -2.3352e-08 5.05301e+07)
(1.68456e+08 1.60562e+07 5.83801e-09 1.45252e+07 1.1676e-08 5.48945e+07)
(1.5247e+08 1.05805e+07 -1.1676e-08 7.71032e+06 0 4.80541e+07)
(1.60584e+08 1.81914e+07 1.1676e-08 1.25939e+07 -4.67041e-08 5.19534e+07)
(1.46337e+08 1.31567e+07 -1.7514e-08 6.25705e+06 4.67041e-08 4.57782e+07)
(2.39472e+08 -6.87297e+07 3.85309e-07 2.77139e+07 -1.1676e-07 8.01557e+07)
(2.01887e+08 -7.0824e+07 2.10168e-07 3.04706e+07 -8.17322e-08 6.97072e+07)
(2.26156e+08 -4.73672e+07 7.00561e-08 2.40727e+07 0 7.50686e+07)
(1.93917e+08 -5.06052e+07 8.17322e-08 2.40629e+07 -5.83801e-08 6.53938e+07)
(2.1545e+08 -3.05214e+07 7.00561e-08 2.10134e+07 -4.67041e-08 7.0939e+07)
(1.8637e+08 -3.47243e+07 7.00561e-08 1.84448e+07 -4.67041e-08 6.14446e+07)
(2.05779e+08 -1.73602e+07 5.83801e-08 1.83557e+07 -5.83801e-08 6.72404e+07)
(1.79216e+08 -2.22172e+07 4.67041e-08 1.378e+07 2.3352e-08 5.78989e+07)
(1.96754e+08 -7.15754e+06 2.91901e-08 1.59709e+07 -4.67041e-08 6.38174e+07)
(1.72489e+08 -1.23694e+07 3.50281e-08 9.9922e+06 -1.1676e-08 5.47444e+07)
(1.88312e+08 713177 -1.7514e-08 1.37889e+07 4.67041e-08 6.06303e+07)
(1.66205e+08 -4.61814e+06 -1.1676e-08 6.93414e+06 1.1676e-08 5.19417e+07)
(1.80447e+08 6.76166e+06 0 1.1776e+07 -1.1676e-08 5.76668e+07)
(1.60356e+08 1.47948e+06 1.1676e-08 4.46378e+06 4.67041e-08 4.9446e+07)
(1.73139e+08 1.13858e+07 0 9.91995e+06 0 5.49178e+07)
(1.54921e+08 6.26683e+06 0 2.46625e+06 1.1676e-08 4.72161e+07)
(1.66358e+08 1.48877e+07 -2.3352e-08 8.22048e+06 2.3352e-08 5.23734e+07)
(1.4987e+08 1.0006e+07 -2.3352e-08 854945 3.50281e-08 4.52173e+07)
(1.60059e+08 1.7492e+07 -1.1676e-08 6.68417e+06 0 5.00231e+07)
(1.45172e+08 1.28935e+07 0 -433482 -3.50281e-08 4.34216e+07)
(2.01491e+08 -7.21559e+07 1.7514e-07 3.20622e+07 -3.50281e-08 7.0066e+07)
(1.70489e+08 -7.0358e+07 1.40112e-07 3.649e+07 -3.50281e-08 6.20937e+07)
(1.9644e+08 -5.05059e+07 1.1676e-07 2.46362e+07 -1.1676e-08 6.63229e+07)
(1.68556e+08 -5.09439e+07 1.1676e-07 2.52445e+07 0 5.814e+07)
(1.91813e+08 -3.38426e+07 5.83801e-08 1.88282e+07 3.50281e-08 6.31923e+07)
(1.6595e+08 -3.5844e+07 3.50281e-08 1.65259e+07 2.3352e-08 5.47428e+07)
(1.87106e+08 -2.08723e+07 4.67041e-08 1.42504e+07 2.3352e-08 6.04068e+07)
(1.6287e+08 -2.39551e+07 4.67041e-08 9.77285e+06 -8.17322e-08 5.17929e+07)
(1.82224e+08 -1.07364e+07 2.3352e-08 1.06066e+07 -1.1676e-08 5.78492e+07)
(1.59501e+08 -1.45329e+07 3.50281e-08 4.57059e+06 -1.1676e-08 4.92216e+07)
(1.77232e+08 -2.80808e+06 -2.3352e-08 7.68085e+06 3.50281e-08 5.54738e+07)
(1.5599e+08 -7.03877e+06 1.1676e-08 590582 0 4.69742e+07)
(1.72223e+08 3.38752e+06 -1.1676e-08 5.31836e+06 3.50281e-08 5.32625e+07)
(1.52444e+08 -1.06812e+06 1.1676e-08 -2.42539e+06 -2.3352e-08 4.50057e+07)
(1.67281e+08 8.21293e+06 0 3.40897e+06 1.1676e-08 5.12069e+07)
(1.48944e+08 3.68702e+06 1.1676e-08 -4.67693e+06 0 4.32801e+07)
(1.62466e+08 1.19434e+07 -1.1676e-08 1.87434e+06 2.3352e-08 4.93021e+07)
(1.4555e+08 7.46108e+06 4.67041e-08 -6.31695e+06 -3.50281e-08 4.177e+07)
(1.57822e+08 1.47849e+07 -2.3352e-08 659494 2.3352e-08 4.75444e+07)
(1.42311e+08 1.04301e+07 -1.1676e-08 -7.46261e+06 -1.1676e-08 4.04545e+07)
(1.60245e+08 -7.01937e+07 1.51788e-07 3.42733e+07 -4.67041e-08 5.83554e+07)
(1.38782e+08 -6.54896e+07 7.00561e-08 3.97701e+07 1.1676e-08 5.35655e+07)
(1.64408e+08 -5.04711e+07 8.17322e-08 2.36815e+07 0 5.64267e+07)
(1.42674e+08 -4.87515e+07 5.83801e-08 2.46828e+07 -2.3352e-08 5.02069e+07)
(1.66371e+08 -3.52864e+07 7.00561e-08 1.56924e+07 -3.50281e-08 5.46189e+07)
(1.44702e+08 -3.56208e+07 0 1.34566e+07 0 4.74475e+07)
(1.66739e+08 -2.34254e+07 3.50281e-08 9.64066e+06 -1.1676e-08 5.29138e+07)
(1.45393e+08 -2.51913e+07 1.1676e-08 5.05439e+06 -1.1676e-08 4.51343e+07)
(1.65931e+08 -1.40809e+07 -3.50281e-08 5.05252e+06 0 5.12951e+07)
(1.45132e+08 -1.6839e+07 -2.3352e-08 -1.22298e+06 4.67041e-08 4.31727e+07)
(1.64276e+08 -6.68482e+06 -4.67041e-08 1.58591e+06 0 4.97584e+07)
(1.442e+08 -1.01152e+07 2.3352e-08 -5.87381e+06 2.3352e-08 4.14979e+07)
(1.62029e+08 -819868 -2.3352e-08 -1.00997e+06 3.50281e-08 4.83056e+07)
(1.42807e+08 -4.68591e+06 1.1676e-08 -9.26428e+06 2.3352e-08 4.00629e+07)
(1.59388e+08 3.82793e+06 3.50281e-08 -2.92232e+06 -1.1676e-08 4.69396e+07)
(1.41118e+08 -296276 7.00561e-08 -1.16685e+07 -2.3352e-08 3.88349e+07)
(1.56503e+08 7.49682e+06 -4.67041e-08 -4.29326e+06 0 4.5663e+07)
(1.3927e+08 3.24967e+06 1.1676e-08 -1.32952e+07 0 3.77924e+07)
(1.53494e+08 1.03652e+07 0 -5.2303e+06 1.1676e-08 4.44791e+07)
(1.37386e+08 6.09987e+06 1.1676e-08 -1.43061e+07 0 3.6924e+07)
(1.19677e+08 -6.30791e+07 0 3.35323e+07 3.50281e-08 4.59627e+07)
(1.08646e+08 -5.69295e+07 4.67041e-08 3.95911e+07 0 4.4471e+07)
(1.31944e+08 -4.72365e+07 8.17322e-08 2.0843e+07 0 4.5836e+07)
(1.17381e+08 -4.42751e+07 -4.67041e-08 2.21406e+07 1.1676e-08 4.18564e+07)
(1.39979e+08 -3.4803e+07 8.17322e-08 1.14516e+07 0 4.54292e+07)
(1.23335e+08 -3.40907e+07 4.67041e-08 9.34669e+06 -2.3352e-08 3.98046e+07)
(1.45065e+08 -2.49317e+07 -2.3352e-08 4.4919e+06 -2.3352e-08 4.48672e+07)
(1.2727e+08 -2.58224e+07 0 -68771.4 -1.1676e-08 3.81605e+07)
(1.48041e+08 -1.70298e+07 -4.67041e-08 -640885 0 4.42199e+07)
(1.29722e+08 -1.90675e+07 0 -6.97604e+06 2.3352e-08 3.68238e+07)
(1.49486e+08 -1.06716e+07 7.00561e-08 -4.37872e+06 -5.83801e-08 4.35321e+07)
(1.31073e+08 -1.35264e+07 -1.1676e-08 -1.19865e+07 -1.1676e-08 3.57261e+07)
(1.49817e+08 -5.54028e+06 8.17322e-08 -7.03828e+06 -1.1676e-08 4.28338e+07)
(1.31603e+08 -8.96919e+06 2.3352e-08 -1.55428e+07 -2.3352e-08 3.4818e+07)
(1.49341e+08 -1.39298e+06 1.1676e-08 -8.86021e+06 0 4.21442e+07)
(1.31521e+08 -5.21361e+06 3.50281e-08 -1.79738e+07 0 3.40641e+07)
(1.48283e+08 1.9611e+06 0 -1.00366e+07 1.7514e-08 4.1474e+07)
(1.31009e+08 -2.11085e+06 2.3352e-08 -1.95309e+07 -1.1676e-08 3.34434e+07)
(1.46822e+08 4.66982e+06 1.1676e-08 -1.07255e+07 -5.83801e-09 4.08289e+07)
(1.3027e+08 457861 0 -2.04133e+07 -3.50281e-08 3.29571e+07)
(8.25118e+07 -5.18234e+07 2.3352e-08 2.92461e+07 -2.3352e-08 3.35274e+07)
(8.15693e+07 -4.57614e+07 4.67041e-08 3.55998e+07 -3.50281e-08 3.51507e+07)
(1.00895e+08 -4.11549e+07 -9.34082e-08 1.58855e+07 3.50281e-08 3.50342e+07)
(9.37013e+07 -3.79778e+07 4.67041e-08 1.74872e+07 -2.3352e-08 3.33566e+07)
(1.13782e+08 -3.24143e+07 3.50281e-08 6.07526e+06 -4.67041e-08 3.59573e+07)
(1.02569e+08 -3.13423e+07 4.67041e-08 4.27187e+06 -1.1676e-08 3.20522e+07)
(1.22782e+08 -2.52193e+07 -3.50281e-08 -1.11071e+06 5.83801e-09 3.65014e+07)
(1.09026e+08 -2.56924e+07 4.67041e-08 -5.37314e+06 0 3.10959e+07)
(1.28976e+08 -1.92755e+07 -5.83801e-08 -6.32224e+06 3.50281e-08 3.67962e+07)
(1.13684e+08 -2.08841e+07 7.00561e-08 -1.2361e+07 -3.50281e-08 3.03969e+07)
(1.33115e+08 -1.4355e+07 -2.3352e-08 -1.00255e+07 -2.91901e-08 3.69269e+07)
(1.16977e+08 -1.67954e+07 -2.3352e-08 -1.73404e+07 0 2.98909e+07)
(1.3573e+08 -1.02776e+07 -2.3352e-08 -1.25622e+07 -5.83801e-09 3.69505e+07)
(1.19206e+08 -1.33221e+07 0 -2.07855e+07 -2.3352e-08 2.95261e+07)
(1.37205e+08 -6.89474e+06 2.3352e-08 -1.41931e+07 -1.1676e-08 3.69036e+07)
(1.20566e+08 -1.03695e+07 0 -2.30545e+07 -1.1676e-08 2.92535e+07)
(1.37816e+08 -4.07313e+06 3.50281e-08 -1.514e+07 -5.83801e-09 3.68027e+07)
(1.21182e+08 -7.83925e+06 -4.67041e-08 -2.44315e+07 0 2.9025e+07)
(1.37766e+08 -1.68363e+06 3.50281e-08 -1.56301e+07 -1.1676e-08 3.66407e+07)
(1.21249e+08 -5.62423e+06 0 -2.51611e+07 0 2.88262e+07)
(5.05278e+07 -3.78779e+07 2.3352e-08 2.12005e+07 -4.67041e-08 2.15185e+07)
(5.84814e+07 -3.32586e+07 0 2.78613e+07 -1.1676e-08 2.59028e+07)
(7.27147e+07 -3.29265e+07 4.67041e-08 8.7411e+06 0 2.44367e+07)
(7.23712e+07 -3.05049e+07 0 1.07684e+07 0 2.49419e+07)
(8.88793e+07 -2.83423e+07 4.67041e-08 -385866 0 2.6548e+07)
(8.29483e+07 -2.76102e+07 7.00561e-08 -1.7076e+06 -1.1676e-08 2.43722e+07)
(1.00703e+08 -2.42048e+07 0 -7.011e+06 2.3352e-08 2.81077e+07)
(9.10495e+07 -2.47507e+07 -2.3352e-08 -1.07449e+07 0 2.40914e+07)
(1.09343e+08 -2.05222e+07 0 -1.17456e+07 2.3352e-08 2.92792e+07)
(9.73034e+07 -2.20119e+07 -5.83801e-08 -1.7179e+07 2.3352e-08 2.40373e+07)
(1.15614e+08 -1.72738e+07 -2.3352e-08 -1.50453e+07 1.1676e-08 3.01706e+07)
(1.02187e+08 -1.94301e+07 1.1676e-08 -2.16112e+07 0 2.41727e+07)
(1.20104e+08 -1.44278e+07 -2.3352e-08 -1.72531e+07 1.1676e-08 3.08551e+07)
(1.06055e+08 -1.70088e+07 0 -2.44767e+07 -2.3352e-08 2.44734e+07)
(1.23235e+08 -1.19438e+07 2.3352e-08 -1.8634e+07 -2.3352e-08 3.13803e+07)
(1.09126e+08 -1.47157e+07 0 -2.60906e+07 -1.1676e-08 2.49107e+07)
(1.25306e+08 -9.75807e+06 2.3352e-08 -1.94249e+07 0 3.17643e+07)
(1.11356e+08 -1.24352e+07 2.3352e-08 -2.66917e+07 -1.1676e-08 2.53993e+07)
(1.2649e+08 -7.7243e+06 -2.3352e-08 -2e+07 -1.1676e-08 3.1947e+07)
(1.11906e+08 -9.77506e+06 -2.3352e-08 -2.6531e+07 0 2.56126e+07)
(2.4749e+07 -2.28641e+07 2.3352e-08 9.62107e+06 -3.50281e-08 1.0311e+07)
(3.97949e+07 -2.06863e+07 4.67041e-08 1.68246e+07 1.1676e-08 1.69858e+07)
(4.83999e+07 -2.34565e+07 2.3352e-08 -502500 5.83801e-09 1.43692e+07)
(5.37411e+07 -2.26803e+07 2.3352e-08 2.06733e+06 0 1.67425e+07)
(6.61866e+07 -2.30402e+07 -2.3352e-08 -7.79601e+06 5.83801e-09 1.75172e+07)
(6.45868e+07 -2.34644e+07 2.3352e-08 -8.69992e+06 -1.1676e-08 1.67661e+07)
(7.96306e+07 -2.20406e+07 7.00561e-08 -1.28765e+07 -5.83801e-09 2.00262e+07)
(7.30177e+07 -2.34716e+07 2.3352e-08 -1.64222e+07 -5.83801e-09 1.69787e+07)
(8.98223e+07 -2.071e+07 -2.3352e-08 -1.62074e+07 -1.1676e-08 2.20844e+07)
(7.95522e+07 -2.29916e+07 2.3352e-08 -2.18032e+07 -1.1676e-08 1.73247e+07)
(9.75586e+07 -1.92032e+07 0 -1.81172e+07 -2.3352e-08 2.38324e+07)
(8.45835e+07 -2.22296e+07 2.3352e-08 -2.53584e+07 0 1.77675e+07)
(1.03431e+08 -1.76179e+07 2.3352e-08 -1.88067e+07 -5.83801e-09 2.53872e+07)
(8.84204e+07 -2.13513e+07 -4.67041e-08 -2.74512e+07 5.83801e-09 1.82908e+07)
(1.07883e+08 -1.60212e+07 4.67041e-08 -1.83191e+07 -5.83801e-09 2.68691e+07)
(9.13516e+07 -2.05411e+07 0 -2.82982e+07 0 1.8916e+07)
(1.11252e+08 -1.44745e+07 2.3352e-08 -1.63907e+07 0 2.84583e+07)
(9.38306e+07 -2.01401e+07 0 -2.79036e+07 0 1.97781e+07)
(1.13802e+08 -1.30797e+07 2.3352e-08 -1.1903e+07 -1.7514e-08 3.05696e+07)
(9.71429e+07 -2.1086e+07 2.3352e-08 -2.57739e+07 -1.1676e-08 2.14107e+07)
(5.52036e+06 -8.29426e+06 0 -5.37608e+06 0 43283.9)
(2.59989e+07 -9.1072e+06 4.67041e-08 2.92496e+06 -1.1676e-08 8.67717e+06)
(2.85621e+07 -1.38247e+07 7.00561e-08 -1.22321e+07 0 4.89901e+06)
(3.8865e+07 -1.51735e+07 2.3352e-08 -8.4888e+06 5.83801e-09 9.11285e+06)
(4.6376e+07 -1.73089e+07 7.00561e-08 -1.70195e+07 -5.83801e-09 8.80694e+06)
(4.91777e+07 -1.92094e+07 4.67041e-08 -1.67188e+07 -1.7514e-08 9.73767e+06)
(6.01835e+07 -1.93934e+07 2.3352e-08 -2.01773e+07 -5.83801e-09 1.20019e+07)
(5.74654e+07 -2.18216e+07 -7.00561e-08 -2.24905e+07 0 1.04925e+07)
(7.09084e+07 -2.05264e+07 -4.67041e-08 -2.2049e+07 1.7514e-08 1.46578e+07)
(6.41481e+07 -2.34495e+07 -7.00561e-08 -2.63608e+07 5.83801e-09 1.13362e+07)
(7.92465e+07 -2.10293e+07 0 -2.29005e+07 5.83801e-09 1.69038e+07)
(6.9568e+07 -2.44218e+07 4.67041e-08 -2.87517e+07 -1.7514e-08 1.22449e+07)
(8.57233e+07 -2.11471e+07 -2.3352e-08 -2.29457e+07 2.3352e-08 1.88333e+07)
(7.40213e+07 -2.49969e+07 0 -2.99854e+07 -1.1676e-08 1.32108e+07)
(9.07357e+07 -2.10948e+07 -2.3352e-08 -2.24004e+07 1.1676e-08 2.05006e+07)
(7.7785e+07 -2.53841e+07 -4.67041e-08 -3.03306e+07 2.91901e-08 1.42363e+07)
(9.45793e+07 -2.1121e+07 2.3352e-08 -2.16583e+07 0 2.18763e+07)
(8.10996e+07 -2.57028e+07 -2.3352e-08 -3.0115e+07 -1.1676e-08 1.52954e+07)
(9.74525e+07 -2.16442e+07 0 -2.19543e+07 -2.91901e-09 2.26495e+07)
(8.38641e+07 -2.56671e+07 0 -3.01238e+07 0 1.61221e+07)
(-7.80467e+06 4.74261e+06 -7.00561e-08 -2.31961e+07 1.1676e-08 -9.30024e+06)
(1.65319e+07 649358 2.3352e-08 -1.31805e+07 -1.1676e-08 1.00542e+06)
(1.32533e+07 -4.79136e+06 1.1676e-07 -2.59524e+07 0 -3.80974e+06)
(2.737e+07 -8.54591e+06 2.3352e-08 -2.0524e+07 0 2.05379e+06)
(2.99178e+07 -1.15108e+07 -4.67041e-08 -2.75798e+07 5.83801e-09 701400)
(3.63798e+07 -1.51148e+07 4.67041e-08 -2.56081e+07 -1.1676e-08 3.23151e+06)
(4.31421e+07 -1.62033e+07 4.67041e-08 -2.83274e+07 -1.1676e-08 4.4444e+06)
(4.39034e+07 -1.97735e+07 -2.3352e-08 -2.89587e+07 1.7514e-08 4.48341e+06)
(5.36683e+07 -1.94456e+07 -2.3352e-08 -2.84005e+07 5.83801e-09 7.58034e+06)
(5.02225e+07 -2.30497e+07 -4.67041e-08 -3.09859e+07 -1.1676e-08 5.77096e+06)
(6.20717e+07 -2.16646e+07 2.3352e-08 -2.79781e+07 -2.91901e-09 1.02281e+07)
(5.5572e+07 -2.53318e+07 7.00561e-08 -3.20159e+07 -1.1676e-08 7.06684e+06)
(6.88015e+07 -2.31828e+07 -7.00561e-08 -2.72351e+07 5.83801e-09 1.24699e+07)
(6.01472e+07 -2.68992e+07 -4.67041e-08 -3.2324e+07 -5.83801e-09 8.34696e+06)
(7.42185e+07 -2.42442e+07 -7.00561e-08 -2.63674e+07 1.7514e-08 1.43553e+07)
(6.40973e+07 -2.79312e+07 0 -3.21699e+07 -2.91901e-09 9.57822e+06)
(7.86402e+07 -2.50031e+07 1.40112e-07 -2.55789e+07 2.91901e-09 1.59184e+07)
(6.75064e+07 -2.85043e+07 0 -3.18116e+07 5.83801e-09 1.07084e+07)
(8.24283e+07 -2.53874e+07 -2.3352e-08 -2.47834e+07 0 1.72935e+07)
(7.04407e+07 -2.86825e+07 -2.3352e-08 -3.13414e+07 -2.91901e-09 1.17298e+07)
(-1.60485e+07 1.536e+07 -4.67041e-08 -4.29786e+07 1.1676e-08 -1.77081e+07)
(1.06416e+07 7.94591e+06 2.3352e-08 -3.06286e+07 0 -5.99611e+06)
(2.08313e+06 2.95199e+06 -2.3352e-08 -4.09966e+07 -5.83801e-09 -1.1674e+07)
(1.87787e+07 -3.26878e+06 4.67041e-08 -3.34236e+07 -1.1676e-08 -4.39348e+06)
(1.67601e+07 -6.11694e+06 0 -3.89566e+07 1.1676e-08 -6.65895e+06)
(2.59153e+07 -1.14899e+07 7.00561e-08 -3.49682e+07 -1.1676e-08 -2.71585e+06)
(2.86961e+07 -1.27259e+07 7.00561e-08 -3.68837e+07 -8.75702e-09 -2.4563e+06)
(3.21827e+07 -1.7494e+07 2.3352e-08 -3.55835e+07 2.91901e-09 -1.02025e+06)
(3.84525e+07 -1.7525e+07 0 -3.48082e+07 -2.91901e-09 1.09329e+06)
(3.77009e+07 -2.18518e+07 -4.67041e-08 -3.55187e+07 8.75702e-09 654655)
(4.64734e+07 -2.09943e+07 7.00561e-08 -3.27687e+07 -1.4595e-08 4.11141e+06)
(4.25773e+07 -2.49796e+07 1.1676e-07 -3.49744e+07 -2.91901e-09 2.28087e+06)
(5.31157e+07 -2.34837e+07 -9.34082e-08 -3.08097e+07 -2.91901e-09 6.69181e+06)
(4.69024e+07 -2.71762e+07 0 -3.41171e+07 -2.91901e-09 3.83561e+06)
(5.86745e+07 -2.52354e+07 -2.3352e-08 -2.89663e+07 2.91901e-09 8.91245e+06)
(5.0748e+07 -2.86511e+07 2.3352e-08 -3.30805e+07 0 5.30023e+06)
(6.33969e+07 -2.63961e+07 9.34082e-08 -2.72325e+07 -1.7514e-08 1.08493e+07)
(5.41713e+07 -2.95572e+07 0 -3.1947e+07 -1.1676e-08 6.66731e+06)
(6.74512e+07 -2.70757e+07 0 -2.55965e+07 0 1.25564e+07)
(5.72181e+07 -3.00093e+07 2.3352e-08 -3.07644e+07 -2.91901e-09 7.93611e+06)
(-2.01288e+07 2.29026e+07 -4.67041e-08 -6.36134e+07 1.7514e-08 -2.51227e+07)
(7.458e+06 1.23793e+07 0 -4.83806e+07 0 -1.22768e+07)
(-5.5299e+06 8.89027e+06 -4.67041e-08 -5.65239e+07 0 -1.86161e+07)
(1.2535e+07 350373 7.00561e-08 -4.64179e+07 -8.75702e-09 -1.01649e+07)
(6.61862e+06 -1.51534e+06 -2.3352e-08 -5.05279e+07 -5.83801e-09 -1.31728e+07)
(1.74793e+07 -8.57109e+06 4.67041e-08 -4.42572e+07 5.83801e-09 -8.03339e+06)
(1.67949e+07 -9.23767e+06 1.63464e-07 -4.53859e+07 -5.83801e-09 -8.57729e+06)
(2.21989e+07 -1.51724e+07 0 -4.19937e+07 -2.91901e-09 -5.93846e+06)
(2.53761e+07 -1.49549e+07 1.40112e-07 -4.09234e+07 -8.75702e-09 -4.66419e+06)
(2.66494e+07 -2.00285e+07 -7.00561e-08 -3.96961e+07 1.1676e-08 -3.91402e+06)
(3.26645e+07 -1.91648e+07 9.34082e-08 -3.70148e+07 -1.4595e-08 -1.30509e+06)
(3.08152e+07 -2.35607e+07 2.3352e-08 -3.74173e+07 5.83801e-09 -1.98065e+06)
(3.89054e+07 -2.22301e+07 0 -3.35661e+07 1.4595e-09 1.60177e+06)
(3.46954e+07 -2.60788e+07 0 -3.51965e+07 2.91901e-09 -150332)
(4.42965e+07 -2.44131e+07 -7.00561e-08 -3.05006e+07 -1.4595e-09 4.13876e+06)
(3.8296e+07 -2.78133e+07 -2.3352e-08 -3.30582e+07 2.91901e-09 1.57134e+06)
(4.89901e+07 -2.59075e+07 -2.3352e-08 -2.77544e+07 -2.91901e-09 6.37069e+06)
(4.16253e+07 -2.89374e+07 -9.34082e-08 -3.10139e+07 8.75702e-09 3.18341e+06)
(5.31013e+07 -2.68589e+07 7.00561e-08 -2.5274e+07 -8.75702e-09 8.3482e+06)
(4.4694e+07 -2.95828e+07 -2.3352e-08 -2.90653e+07 -1.4595e-09 4.68861e+06)
(-2.10122e+07 2.69747e+07 2.3352e-08 -8.38029e+07 -1.7514e-08 -3.14445e+07)
(6.07406e+06 1.38184e+07 -2.3352e-08 -6.52959e+07 -2.91901e-09 -1.77665e+07)
(-1.02404e+07 1.27109e+07 4.67041e-08 -7.16025e+07 -2.91901e-09 -2.45529e+07)
(8.07859e+06 2.19447e+06 -2.3352e-08 -5.86805e+07 2.91901e-09 -1.51806e+07)
(-886472 2.0295e+06 -7.00561e-08 -6.16496e+07 0 -1.87608e+07)
(1.07771e+07 -6.48474e+06 -4.67041e-08 -5.29021e+07 8.75702e-09 -1.26375e+07)
(7.28135e+06 -5.97504e+06 -2.3352e-08 -5.34173e+07 5.83801e-09 -1.38408e+07)
(1.38661e+07 -1.2953e+07 0 -4.78136e+07 -2.91901e-09 -1.01843e+07)
(1.44513e+07 -1.19616e+07 -2.3352e-08 -4.65222e+07 -1.4595e-09 -9.62128e+06)
(1.71545e+07 -1.77435e+07 4.67041e-08 -4.32983e+07 2.91901e-09 -7.84315e+06)
(2.07795e+07 -1.64137e+07 -4.67041e-08 -4.06839e+07 5.83801e-09 -5.97133e+06)
(2.05224e+07 -2.125e+07 2.3352e-08 -3.92651e+07 -5.83801e-09 -5.62279e+06)
(2.63959e+07 -1.96897e+07 4.67041e-08 -3.56943e+07 -7.29751e-09 -2.78953e+06)
(2.38845e+07 -2.37718e+07 9.34082e-08 -3.56453e+07 -5.83801e-09 -3.52823e+06)
(3.14065e+07 -2.20579e+07 -2.3352e-08 -3.13905e+07 -2.91901e-09 4814.01)
(2.71782e+07 -2.55358e+07 2.3352e-08 -3.23817e+07 -1.4595e-09 -1.56105e+06)
(3.58965e+07 -2.37204e+07 -7.00561e-08 -2.76419e+07 -7.29751e-09 2.4764e+06)
(3.03584e+07 -2.67127e+07 7.00561e-08 -2.94245e+07 -2.91901e-09 280174)
(3.99334e+07 -2.48308e+07 2.3352e-08 -2.43441e+07 -2.91901e-09 4.67679e+06)
(3.33935e+07 -2.74304e+07 0 -2.67307e+07 1.4595e-09 1.99885e+06)
(-1.9679e+07 2.7479e+07 -2.3352e-08 -1.02157e+08 8.75702e-09 -3.65509e+07)
(5.61194e+06 1.24335e+07 -2.3352e-08 -8.02477e+07 5.83801e-09 -2.23907e+07)
(-1.2708e+07 1.431e+07 4.67041e-08 -8.53021e+07 -5.83801e-09 -2.9403e+07)
(4.88502e+06 2.33361e+06 7.00561e-08 -6.9437e+07 -2.91901e-09 -1.93656e+07)
(-6.152e+06 4.37912e+06 0 -7.17187e+07 0 -2.33612e+07)
(5.51361e+06 -5.2554e+06 9.34082e-08 -6.03947e+07 -8.75702e-09 -1.64643e+07)
(-30672 -3.11351e+06 -4.67041e-08 -6.06113e+07 -4.37851e-09 -1.81926e+07)
(7.05069e+06 -1.09289e+07 -2.3352e-08 -5.27376e+07 1.4595e-09 -1.37061e+07)
(5.66084e+06 -8.74911e+06 -4.67041e-08 -5.14214e+07 -1.4595e-09 -1.37282e+07)
(9.24508e+06 -1.51158e+07 1.40112e-07 -4.6176e+07 -1.4595e-09 -1.10793e+07)
(1.09412e+07 -1.29623e+07 2.3352e-08 -4.37666e+07 -5.83801e-09 -9.84763e+06)
(1.18734e+07 -1.81738e+07 2.3352e-08 -4.05176e+07 -1.4595e-09 -8.59328e+06)
(1.58361e+07 -1.60853e+07 2.3352e-08 -3.73435e+07 0 -6.4522e+06)
(1.47607e+07 -2.03782e+07 2.3352e-08 -3.5608e+07 -5.83801e-09 -6.2542e+06)
(2.0372e+07 -1.83702e+07 9.34082e-08 -3.19052e+07 -2.91901e-09 -3.45994e+06)
(1.77772e+07 -2.19355e+07 2.3352e-08 -3.1316e+07 -1.4595e-09 -4.06165e+06)
(2.45733e+07 -2.00069e+07 -2.3352e-08 -2.72513e+07 -7.29751e-10 -803405)
(2.08261e+07 -2.29974e+07 4.67041e-08 -2.75315e+07 0 -2.01164e+06)
(2.84621e+07 -2.11373e+07 4.67041e-08 -2.32205e+07 -1.4595e-09 1.57246e+06)
(2.38308e+07 -2.36709e+07 0 -2.41666e+07 0 -100732)
(-1.70727e+07 2.46324e+07 -4.67041e-08 -1.17334e+08 5.83801e-09 -4.0322e+07)
(5.30132e+06 8.6901e+06 2.3352e-08 -9.22824e+07 1.4595e-09 -2.60943e+07)
(-1.35644e+07 1.37596e+07 0 -9.68171e+07 -1.4595e-09 -3.31145e+07)
(2.43616e+06 951999 2.3352e-08 -7.80791e+07 -2.91901e-09 -2.26929e+07)
(-9.57418e+06 5.47917e+06 4.67041e-08 -8.02145e+07 -4.37851e-09 -2.69366e+07)
(1.17398e+06 -4.89784e+06 4.67041e-08 -6.63586e+07 0 -1.95554e+07)
(-5.34609e+06 -774520 2.3352e-08 -6.65549e+07 -5.10826e-09 -2.15703e+07)
(1.48266e+06 -9.12537e+06 -9.34082e-08 -5.64891e+07 2.91901e-09 -1.65019e+07)
(-1.03947e+06 -5.46529e+06 7.00561e-08 -5.53712e+07 -3.64876e-09 -1.69232e+07)
(2.88189e+06 -1.21841e+07 9.34082e-08 -4.81851e+07 -2.91901e-09 -1.3591e+07)
(3.24882e+06 -8.97571e+06 1.1676e-07 -4.6185e+07 -5.10826e-09 -1.28808e+07)
(4.99739e+06 -1.43985e+07 -4.67041e-08 -4.11756e+07 1.4595e-09 -1.08535e+07)
(7.45179e+06 -1.15954e+07 1.63464e-07 -3.85838e+07 -4.37851e-09 -9.33959e+06)
(7.57064e+06 -1.59943e+07 4.67041e-08 -3.52182e+07 -7.29751e-10 -8.29428e+06)
(1.15223e+07 -1.35391e+07 1.86816e-07 -3.2235e+07 -5.10826e-09 -6.21383e+06)
(1.04242e+07 -1.71354e+07 -4.67041e-08 -3.01057e+07 -1.4595e-09 -5.90447e+06)
(1.54282e+07 -1.49653e+07 2.3352e-08 -2.68709e+07 3.64876e-10 -3.43281e+06)
(1.34316e+07 -1.79439e+07 0 -2.56612e+07 1.4595e-09 -3.66889e+06)
(1.91496e+07 -1.59883e+07 2.3352e-08 -2.22679e+07 -1.09463e-09 -935479)
(1.64887e+07 -1.85041e+07 4.67041e-08 -2.17369e+07 0 -1.57448e+06)
(-1.40704e+07 1.88795e+07 -2.3352e-08 -1.28349e+08 0 -4.27259e+07)
(4.62718e+06 3.18571e+06 7.00561e-08 -1.00866e+08 -4.37851e-09 -2.88715e+07)
(-1.34891e+07 1.11176e+07 -4.67041e-08 -1.05723e+08 -7.29751e-10 -3.57636e+07)
(-1.09113e+06 -2.06616e+06 0 -8.43762e+07 -1.4595e-09 -2.56402e+07)
(-1.16194e+07 5.33356e+06 -7.00561e-08 -8.62498e+07 1.4595e-09 -2.93607e+07)
(-3.06739e+06 -5.17904e+06 1.1676e-07 -7.02955e+07 -3.64876e-09 -2.20089e+07)
(-8.94661e+06 1.07388e+06 -7.00561e-08 -7.06203e+07 7.29751e-10 -2.38701e+07)
(-3.07985e+06 -7.30667e+06 4.67041e-08 -5.87039e+07 -7.29751e-10 -1.85351e+07)
(-5.74911e+06 -2.11209e+06 -1.40112e-07 -5.80499e+07 -1.09463e-09 -1.91397e+07)
(-1.89125e+06 -8.82484e+06 -1.40112e-07 -4.91566e+07 2.55413e-09 -1.53143e+07)
(-2.23887e+06 -4.51882e+06 7.00561e-08 -4.78366e+07 -3.64876e-10 -1.50226e+07)
(74712.8 -9.91582e+06 -9.34082e-08 -4.12356e+07 3.64876e-10 -1.23483e+07)
(1.42844e+06 -6.34611e+06 9.34082e-08 -3.94565e+07 -2.91901e-09 -1.14084e+07)
(2.55369e+06 -1.06971e+07 4.67041e-08 -3.4606e+07 -1.82438e-09 -9.61569e+06)
(5.14106e+06 -7.73956e+06 7.00561e-08 -3.25207e+07 0 -8.2139e+06)
(5.37592e+06 -1.12614e+07 -9.34082e-08 -2.89986e+07 -3.64876e-10 -7.08682e+06)
(8.81805e+06 -8.81091e+06 -7.00561e-08 -2.67294e+07 1.09463e-09 -5.37339e+06)
(8.4394e+06 -1.17013e+07 -4.67041e-08 -2.41745e+07 1.82438e-09 -4.72052e+06)
(1.24005e+07 -9.64333e+06 -4.67041e-08 -2.18223e+07 1.09463e-09 -2.82655e+06)
(1.17047e+07 -1.21428e+07 -4.67041e-08 -1.98572e+07 0 -2.44576e+06)
(-1.20887e+07 9.75617e+06 0 -1.36838e+08 -1.4595e-09 -4.46781e+07)
(-6.25757e+06 -5.628e+06 0 -1.07171e+08 -7.29751e-10 -3.40286e+07)
(-1.34301e+07 6.68567e+06 4.67041e-08 -1.08853e+08 -7.29751e-10 -3.66848e+07)
(-7.19397e+06 -5.12873e+06 -2.3352e-08 -8.70431e+07 7.29751e-10 -2.82711e+07)
(-1.29418e+07 4.59794e+06 7.00561e-08 -8.84066e+07 -7.29751e-10 -3.04045e+07)
(-7.14054e+06 -4.94003e+06 7.00561e-08 -7.15076e+07 0 -2.35945e+07)
(-1.1162e+07 2.92114e+06 4.67041e-08 -7.2343e+07 0 -2.50515e+07)
(-6.22607e+06 -4.86394e+06 -4.67041e-08 -5.91114e+07 0 -1.96012e+07)
(-8.56426e+06 1.55008e+06 0 -5.939e+07 0 -2.03863e+07)
(-4.62205e+06 -4.81294e+06 -2.3352e-08 -4.90367e+07 3.64876e-10 -1.60976e+07)
(-5.46703e+06 440658 9.34082e-08 -4.88076e+07 0 -1.62824e+07)
(-2.5058e+06 -4.74848e+06 -4.67041e-08 -4.07533e+07 0 -1.29777e+07)
(-2.07883e+06 -446811 9.34082e-08 -4.00877e+07 -1.09463e-09 -1.26499e+07)
(-34963.1 -4.65414e+06 -1.1676e-07 -3.38952e+07 7.29751e-10 -1.01791e+07)
(1.461e+06 -1.15617e+06 2.3352e-08 -3.28631e+07 0 -9.42062e+06)
(2.6631e+06 -4.52425e+06 4.67041e-08 -2.82084e+07 0 -7.6636e+06)
(5.05043e+06 -1.74455e+06 -2.3352e-08 -2.68761e+07 3.64876e-10 -6.54769e+06)
(5.49792e+06 -4.36135e+06 -2.3352e-08 -2.35344e+07 -1.82438e-10 -5.41093e+06)
(8.58717e+06 -2.3101e+06 -4.67041e-08 -2.19839e+07 0 -4.01901e+06)
(8.43091e+06 -4.18223e+06 -9.34082e-08 -1.98279e+07 1.82438e-10 -3.41911e+06)
(1.45738e+07 -4.11327e+06 -2.3352e-08 -1.71953e+07 3.64876e-10 -786426)
(1.83049e+07 -1.78364e+06 -4.67041e-08 -8.02215e+06 1.82438e-10 3.08482e+06)
(1.34862e+07 -1.16887e+07 -7.00561e-08 -1.89597e+07 7.29751e-10 -1.64205e+06)
(2.28536e+07 -7.61364e+06 0 -7.26901e+06 7.29751e-10 4.67537e+06)