/*--------------------------------*- C++ -*----------------------------------*\
| =========                 |                                                 |
| \\      /  F ield         | OpenFOAM: The Open Source CFD Toolbox           |
|  \\    /   O peration     | Version:  v2012                                 |
|   \\  /    A nd           | Website:  www.openfoam.com                      |
|    \\/     M anipulation  |                                                 |
\*---------------------------------------------------------------------------*/
FoamFile
{
    version     2.0;
    format      ascii;
    class       volVectorField;
    location    "16";
    object      D_0;
}
// * * * * * * * * * * * * * * * * * * * * * * * * * * * * * * * * * * * * * //

dimensions      [0 1 0 0 0 0 0];


internalField   nonuniform List<vector> 
8000
(
(8.59064e-05 -0.000519913 0)
(0.000153786 -0.000550052 0)
(7.91948e-05 -0.000639306 0)
(0.000140849 -0.000673901 0)
(7.54782e-05 -0.000752413 0)
(0.000134559 -0.000788099 0)
(7.32964e-05 -0.00085914 0)
(0.000130695 -0.000893848 0)
(7.161e-05 -0.000959271 0)
(0.000127462 -0.00099226 0)
(7.00172e-05 -0.00105291 0)
(0.000124012 -0.00108364 0)
(6.82015e-05 -0.00113971 0)
(0.000120015 -0.00116783 0)
(6.61018e-05 -0.00121928 0)
(0.000115324 -0.00124456 0)
(6.36295e-05 -0.0012913 0)
(0.00010992 -0.00131358 0)
(6.08295e-05 -0.0013555 0)
(0.000103799 -0.00137465 0)
(5.77075e-05 -0.00141169 0)
(9.69765e-05 -0.00142758 0)
(5.42423e-05 -0.00145973 0)
(8.95595e-05 -0.00147235 0)
(5.04432e-05 -0.00149968 0)
(8.17827e-05 -0.00150911 0)
(4.64219e-05 -0.00153179 0)
(7.39318e-05 -0.00153829 0)
(4.22588e-05 -0.00155662 0)
(6.63429e-05 -0.00156056 0)
(3.80677e-05 -0.00157501 0)
(5.93459e-05 -0.00157685 0)
(3.39967e-05 -0.00158799 0)
(5.32043e-05 -0.00158819 0)
(3.01956e-05 -0.00159674 0)
(4.80535e-05 -0.00159564 0)
(2.67316e-05 -0.00160238 0)
(4.38216e-05 -0.00159998 0)
(2.34815e-05 -0.00160581 0)
(4.10526e-05 -0.00160321 0)
(0.000248983 -0.000551597 0)
(0.000308703 -0.000598321 0)
(0.000255074 -0.000657846 0)
(0.000316189 -0.000702758 0)
(0.000257926 -0.000764269 0)
(0.000318242 -0.000806658 0)
(0.000258312 -0.000867187 0)
(0.000316899 -0.000906258 0)
(0.000256499 -0.000964547 0)
(0.0003129 -0.00100019 0)
(0.000252622 -0.00105564 0)
(0.00030648 -0.00108766 0)
(0.000246884 -0.00113995 0)
(0.000297768 -0.00116808 0)
(0.000239339 -0.00121697 0)
(0.000286889 -0.00124096 0)
(0.000230181 -0.00128632 0)
(0.000273941 -0.00130589 0)
(0.000219482 -0.00134763 0)
(0.000259102 -0.00136258 0)
(0.000207359 -0.00140068 0)
(0.000242658 -0.00141096 0)
(0.000194063 -0.00144543 0)
(0.000225028 -0.0014512 0)
(0.000179894 -0.00148213 0)
(0.000206776 -0.00148379 0)
(0.000165252 -0.0015113 0)
(0.000188591 -0.00150955 0)
(0.000150641 -0.0015338 0)
(0.000171154 -0.00152942 0)
(0.000136593 -0.00155067 0)
(0.000155052 -0.00154444 0)
(0.000123585 -0.00156307 0)
(0.000140719 -0.00155564 0)
(0.000111985 -0.00157214 0)
(0.0001284 -0.00156391 0)
(0.000101988 -0.00157885 0)
(0.000118104 -0.00156987 0)
(9.35416e-05 -0.00158392 0)
(0.000109732 -0.00157439 0)
(0.000432113 -0.000582366 0)
(0.000494318 -0.000630407 0)
(0.000437346 -0.000689218 0)
(0.00049694 -0.00073688 0)
(0.000441075 -0.000792593 0)
(0.000498454 -0.000837775 0)
(0.000441814 -0.00089112 0)
(0.000496788 -0.000932329 0)
(0.000438944 -0.000983565 0)
(0.000491295 -0.00102033 0)
(0.000432508 -0.00106955 0)
(0.00048183 -0.00110144 0)
(0.000422571 -0.00114855 0)
(0.00046842 -0.0011751 0)
(0.000409299 -0.00122002 0)
(0.00045119 -0.00124078 0)
(0.000392829 -0.00128341 0)
(0.000430383 -0.00129802 0)
(0.000373406 -0.00133836 0)
(0.00040645 -0.00134669 0)
(0.000351375 -0.00138475 0)
(0.000380085 -0.00138708 0)
(0.000327363 -0.00142289 0)
(0.000352221 -0.00141992 0)
(0.00030218 -0.00145348 0)
(0.000323927 -0.00144623 0)
(0.000276762 -0.00147758 0)
(0.000296248 -0.00146719 0)
(0.000252067 -0.00149636 0)
(0.000270111 -0.00148396 0)
(0.000228962 -0.001511 0)
(0.000246257 -0.00149753 0)
(0.000208166 -0.00152252 0)
(0.000225195 -0.0015087 0)
(0.000190176 -0.00153177 0)
(0.000207172 -0.00151801 0)
(0.000175206 -0.00153938 0)
(0.000192182 -0.00152575 0)
(0.000163085 -0.00154556 0)
(0.00017977 -0.00153173 0)
(0.000596457 -0.000638426 0)
(0.000654223 -0.00069165 0)
(0.0006056 -0.000739734 0)
(0.000661006 -0.000790684 0)
(0.000611022 -0.000836907 0)
(0.000663843 -0.000884176 0)
(0.000612082 -0.000928595 0)
(0.000661958 -0.000970761 0)
(0.000608316 -0.00101358 0)
(0.00065487 -0.00104991 0)
(0.00059948 -0.00109142 0)
(0.000642223 -0.00112113 0)
(0.000585449 -0.00116153 0)
(0.000623873 -0.00118385 0)
(0.000566203 -0.00122327 0)
(0.000599966 -0.00123766 0)
(0.000541991 -0.00127618 0)
(0.000571081 -0.00128256 0)
(0.000513403 -0.00132023 0)
(0.000538251 -0.00131917 0)
(0.000481443 -0.00135599 0)
(0.00050285 -0.0013486 0)
(0.000447405 -0.00138455 0)
(0.00046638 -0.00137228 0)
(0.000412718 -0.0014073 0)
(0.000430286 -0.00139167 0)
(0.000378773 -0.00142568 0)
(0.000395822 -0.00140803 0)
(0.00034679 -0.00144092 0)
(0.000363939 -0.00142232 0)
(0.000317674 -0.00145398 0)
(0.000335227 -0.00143512 0)
(0.000291962 -0.00146547 0)
(0.000309966 -0.00144676 0)
(0.000269816 -0.00147572 0)
(0.000288129 -0.00145735 0)
(0.000251114 -0.00148481 0)
(0.000269397 -0.00146675 0)
(0.000235556 -0.00149263 0)
(0.000253496 -0.00147471 0)
(0.000750149 -0.000707615 0)
(0.000803927 -0.00076273 0)
(0.000760124 -0.000803154 0)
(0.000810573 -0.000855203 0)
(0.000765836 -0.000892821 0)
(0.000812758 -0.000940011 0)
(0.000766318 -0.000975539 0)
(0.000809278 -0.001016 0)
(0.000760779 -0.00105004 0)
(0.000799295 -0.00108255 0)
(0.000748609 -0.00111574 0)
(0.000782219 -0.00113921 0)
(0.000729439 -0.0011721 0)
(0.000757946 -0.00118587 0)
(0.000703355 -0.00121886 0)
(0.000727037 -0.00122303 0)
(0.000671092 -0.0012564 0)
(0.000690764 -0.00125198 0)
(0.000634013 -0.00128584 0)
(0.000650891 -0.00127455 0)
(0.000593958 -0.00130892 0)
(0.000609336 -0.00129267 0)
(0.000552896 -0.00132748 0)
(0.000567903 -0.00130803 0)
(0.000512595 -0.00134315 0)
(0.000528072 -0.00132192 0)
(0.000474434 -0.00135712 0)
(0.000490854 -0.00133508 0)
(0.000439314 -0.00137014 0)
(0.000456831 -0.00134784 0)
(0.000407692 -0.00138256 0)
(0.000426157 -0.00136021 0)
(0.000379621 -0.00139439 0)
(0.000398805 -0.0013721 0)
(0.000354935 -0.00140554 0)
(0.000374501 -0.00138331 0)
(0.000333394 -0.00141588 0)
(0.000352985 -0.00139366 0)
(0.000314512 -0.00142508 0)
(0.000333797 -0.0014028 0)
(0.00088955 -0.000786718 0)
(0.000937508 -0.000841621 0)
(0.000898721 -0.000874693 0)
(0.000942464 -0.000924799 0)
(0.000902689 -0.00095448 0)
(0.000941705 -0.000997652 0)
(0.000900337 -0.00102493 0)
(0.000934031 -0.00105888 0)
(0.000890631 -0.00108461 0)
(0.000918645 -0.00110797 0)
(0.000872907 -0.00113307 0)
(0.0008953 -0.00114528 0)
(0.000847104 -0.00117055 0)
(0.000864564 -0.00117215 0)
(0.000813962 -0.00119826 0)
(0.000827783 -0.00119086 0)
(0.000775098 -0.00121831 0)
(0.000786914 -0.00120423 0)
(0.000732771 -0.0012333 0)
(0.00074408 -0.00121477 0)
(0.000689276 -0.00124553 0)
(0.000701208 -0.00122435 0)
(0.000646474 -0.00125665 0)
(0.000659727 -0.00123404 0)
(0.000605657 -0.00126763 0)
(0.000620509 -0.00124426 0)
(0.000567544 -0.00127886 0)
(0.000583973 -0.00125503 0)
(0.00053244 -0.00129036 0)
(0.000550253 -0.00126618 0)
(0.000500413 -0.00130198 0)
(0.000519332 -0.00127746 0)
(0.000471357 -0.00131348 0)
(0.000491134 -0.00128866 0)
(0.000445132 -0.00132465 0)
(0.000465415 -0.00129948 0)
(0.000421421 -0.0013352 0)
(0.00044197 -0.00130974 0)
(0.000400022 -0.00134496 0)
(0.000420653 -0.00131923 0)
(0.00101539 -0.000868 0)
(0.00105615 -0.00091853 0)
(0.00102036 -0.000945727 0)
(0.00105552 -0.00098877 0)
(0.00101901 -0.00101191 0)
(0.00104797 -0.00104501 0)
(0.00101008 -0.00106538 0)
(0.00103259 -0.00108666 0)
(0.000992907 -0.0011053 0)
(0.00100934 -0.00111454 0)
(0.00096751 -0.00113245 0)
(0.000979002 -0.00113091 0)
(0.000934809 -0.00114902 0)
(0.000943153 -0.00113908 0)
(0.00089669 -0.00115846 0)
(0.000903856 -0.00114297 0)
(0.000855605 -0.00116437 0)
(0.000863115 -0.0011456 0)
(0.000813691 -0.00116933 0)
(0.000822496 -0.00114874 0)
(0.000772417 -0.0011748 0)
(0.000782986 -0.00115312 0)
(0.000732613 -0.00118135 0)
(0.00074506 -0.00115883 0)
(0.00069468 -0.00118904 0)
(0.000708936 -0.00116575 0)
(0.000658834 -0.00119769 0)
(0.000674776 -0.00117367 0)
(0.000625242 -0.0012071 0)
(0.000642686 -0.00118238 0)
(0.000593968 -0.00121701 0)
(0.000612673 -0.00119158 0)
(0.000564962 -0.00122712 0)
(0.000584642 -0.00120097 0)
(0.000538097 -0.00123716 0)
(0.00055855 -0.00121035 0)
(0.000513299 -0.001247 0)
(0.000534355 -0.00121962 0)
(0.000490362 -0.0012564 0)
(0.000511853 -0.00122845 0)
(0.00112585 -0.00094228 0)
(0.00115756 -0.000982851 0)
(0.00112302 -0.00100487 0)
(0.00114774 -0.00103446 0)
(0.00111251 -0.00105207 0)
(0.00113024 -0.00106912 0)
(0.00109371 -0.00108388 0)
(0.00110506 -0.00108833 0)
(0.00106691 -0.00110138 0)
(0.00107334 -0.00109519 0)
(0.00103337 -0.00110789 0)
(0.00103702 -0.0010946 0)
(0.000995831 -0.0011082 0)
(0.000999044 -0.00109157 0)
(0.00095735 -0.00110657 0)
(0.00096145 -0.00108865 0)
(0.000919379 -0.00110527 0)
(0.000924988 -0.0010867 0)
(0.000882349 -0.0011052 0)
(0.000889691 -0.00108599 0)
(0.000846338 -0.00110659 0)
(0.000855416 -0.00108656 0)
(0.000811401 -0.00110943 0)
(0.000822232 -0.0010885 0)
(0.000777577 -0.00111359 0)
(0.000790228 -0.00109178 0)
(0.000745144 -0.001119 0)
(0.000759556 -0.00109629 0)
(0.000714241 -0.00112543 0)
(0.000730242 -0.00110175 0)
(0.000684897 -0.00113258 0)
(0.000702239 -0.00110783 0)
(0.000657068 -0.00114017 0)
(0.000675646 -0.00111443 0)
(0.000630828 -0.00114809 0)
(0.000650517 -0.00112144 0)
(0.000606138 -0.00115618 0)
(0.000626791 -0.00112868 0)
(0.000582852 -0.0011642 0)
(0.000604196 -0.00113573 0)
(0.00121813 -0.000998136 0)
(0.00123936 -0.00102244 0)
(0.0012046 -0.00103919 0)
(0.00121843 -0.00105019 0)
(0.00118275 -0.00106278 0)
(0.00119016 -0.00106089 0)
(0.00115284 -0.00107151 0)
(0.00115549 -0.0010593 0)
(0.00111672 -0.00106974 0)
(0.0011178 -0.00105266 0)
(0.00107863 -0.00106388 0)
(0.00108054 -0.00104629 0)
(0.00104167 -0.00105859 0)
(0.00104468 -0.00104096 0)
(0.00100624 -0.0010541 0)
(0.0010103 -0.00103645 0)
(0.000972342 -0.00105059 0)
(0.000977357 -0.00103272 0)
(0.00093985 -0.00104813 0)
(0.000945793 -0.0010298 0)
(0.000908527 -0.00104668 0)
(0.000915737 -0.001028 0)
(0.000878119 -0.00104604 0)
(0.000887046 -0.00102714 0)
(0.000848901 -0.00104679 0)
(0.000859534 -0.00102729 0)
(0.000820662 -0.00104868 0)
(0.000832923 -0.0010283 0)
(0.000793366 -0.00105154 0)
(0.000806977 -0.00103 0)
(0.000766923 -0.00105514 0)
(0.000781976 -0.00103255 0)
(0.000741544 -0.0010595 0)
(0.000758023 -0.00103591 0)
(0.000717299 -0.0010645 0)
(0.000735048 -0.00103985 0)
(0.000694059 -0.0010699 0)
(0.000712922 -0.00104415 0)
(0.00067168 -0.00107547 0)
(0.00069155 -0.00104853 0)
(0.00128857 -0.00102387 0)
(0.00129906 -0.00102736 0)
(0.00126342 -0.0010391 0)
(0.00126786 -0.00103033 0)
(0.00123058 -0.00103912 0)
(0.0012316 -0.00102226 0)
(0.00119342 -0.00103066 0)
(0.00119474 -0.00101309 0)
(0.00115691 -0.00102254 0)
(0.00115913 -0.00100493 0)
(0.00112192 -0.00101533 0)
(0.00112492 -0.00099758 0)
(0.001088 -0.00100908 0)
(0.00109187 -0.000991072 0)
(0.00105517 -0.00100373 0)
(0.00105999 -0.000985475 0)
(0.00102352 -0.000999246 0)
(0.00102935 -0.000980784 0)
(0.000993128 -0.000995538 0)
(0.00100001 -0.000976943 0)
(0.000964027 -0.000992519 0)
(0.00097196 -0.000973888 0)
(0.000936353 -0.000990256 0)
(0.000945243 -0.000971544 0)
(0.000909982 -0.000988712 0)
(0.000919744 -0.000969747 0)
(0.000884735 -0.000987829 0)
(0.000895247 -0.000968305 0)
(0.000860357 -0.000987536 0)
(0.000872143 -0.000967681 0)
(0.00083699 -0.000988017 0)
(0.000850196 -0.0009677 0)
(0.000814636 -0.000989368 0)
(0.000829087 -0.000968232 0)
(0.000792982 -0.00099129 0)
(0.000808563 -0.00096913 0)
(0.000771885 -0.000993624 0)
(0.000788607 -0.000970398 0)
(0.000751357 -0.000996337 0)
(0.000769175 -0.000971919 0)
(0.00133585 -0.00101283 0)
(0.00133829 -0.000998694 0)
(0.00130229 -0.00100526 0)
(0.00130345 -0.000987569 0)
(0.00126691 -0.000994506 0)
(0.0012687 -0.000977103 0)
(0.00123279 -0.000984686 0)
(0.00123501 -0.000967159 0)
(0.00119941 -0.000975804 0)
(0.00120226 -0.000957889 0)
(0.0011669 -0.000967752 0)
(0.00117052 -0.000949479 0)
(0.00113535 -0.00096055 0)
(0.00113983 -0.000941975 0)
(0.0011048 -0.000954199 0)
(0.00111022 -0.000935355 0)
(0.0010753 -0.000948661 0)
(0.00108171 -0.000929581 0)
(0.00104687 -0.000943881 0)
(0.00105429 -0.000924607 0)
(0.00101953 -0.000939807 0)
(0.00102798 -0.000920366 0)
(0.000993356 -0.000936357 0)
(0.00100278 -0.000916789 0)
(0.000968389 -0.000933478 0)
(0.000978723 -0.000913808 0)
(0.000944627 -0.000931139 0)
(0.000955833 -0.000911353 0)
(0.000922006 -0.000929317 0)
(0.000934029 -0.000909397 0)
(0.000900454 -0.000928002 0)
(0.000913234 -0.000907866 0)
(0.000879811 -0.000927141 0)
(0.00089332 -0.00090664 0)
(0.000859881 -0.000926668 0)
(0.000874107 -0.000905597 0)
(0.000840463 -0.000926519 0)
(0.000855738 -0.000904904 0)
(0.000821787 -0.000926967 0)
(0.000838088 -0.000904501 0)
(0.00137189 -0.000973601 0)
(0.00137318 -0.000956341 0)
(0.00133922 -0.000961508 0)
(0.00134106 -0.000944397 0)
(0.00130652 -0.000950123 0)
(0.00130884 -0.000932541 0)
(0.00127438 -0.000939493 0)
(0.00127724 -0.000921412 0)
(0.00124309 -0.000929669 0)
(0.00124659 -0.000911154 0)
(0.0012127 -0.000920656 0)
(0.00121696 -0.000901782 0)
(0.00118323 -0.000912451 0)
(0.00118836 -0.000893281 0)
(0.0011547 -0.000905039 0)
(0.00116076 -0.000885624 0)
(0.00112714 -0.000898391 0)
(0.00113416 -0.00087877 0)
(0.00110056 -0.000892467 0)
(0.00110856 -0.000872669 0)
(0.00107499 -0.000887233 0)
(0.00108395 -0.000867266 0)
(0.00105044 -0.000882639 0)
(0.00106033 -0.000862504 0)
(0.00102692 -0.000878631 0)
(0.0010377 -0.000858325 0)
(0.00100439 -0.000875148 0)
(0.00101604 -0.000854676 0)
(0.000982844 -0.000872123 0)
(0.000995321 -0.000851484 0)
(0.000962244 -0.00086949 0)
(0.000975505 -0.000848682 0)
(0.000942547 -0.000867206 0)
(0.000956548 -0.000846216 0)
(0.000923698 -0.000865257 0)
(0.000938411 -0.000844044 0)
(0.000905624 -0.000863654 0)
(0.000921024 -0.000842136 0)
(0.000888189 -0.000862359 0)
(0.000904288 -0.000840416 0)
(0.00141113 -0.000931517 0)
(0.0014134 -0.000913343 0)
(0.00137887 -0.000918531 0)
(0.00138142 -0.000900438 0)
(0.00134755 -0.000906229 0)
(0.00135052 -0.000887885 0)
(0.0013172 -0.000894666 0)
(0.00132071 -0.00087592 0)
(0.00128777 -0.000883863 0)
(0.00129195 -0.000864718 0)
(0.00125924 -0.000873835 0)
(0.00126421 -0.000854353 0)
(0.00123162 -0.000864583 0)
(0.00123744 -0.000844834 0)
(0.0012049 -0.000856093 0)
(0.00121164 -0.000836134 0)
(0.0011791 -0.000848338 0)
(0.00118677 -0.000828209 0)
(0.00115421 -0.000841288 0)
(0.00116282 -0.00082101 0)
(0.00113025 -0.000834903 0)
(0.00113978 -0.000814482 0)
(0.00110723 -0.000829134 0)
(0.00111765 -0.000808571 0)
(0.00108512 -0.000823928 0)
(0.0010964 -0.000803216 0)
(0.00106391 -0.000819229 0)
(0.00107602 -0.000798358 0)
(0.00104358 -0.000814982 0)
(0.00105647 -0.00079394 0)
(0.00102408 -0.000811135 0)
(0.00103772 -0.000789905 0)
(0.00100536 -0.000807634 0)
(0.00101973 -0.000786205 0)
(0.000987373 -0.000804425 0)
(0.00100244 -0.000782792 0)
(0.000970072 -0.000801446 0)
(0.000985829 -0.000779612 0)
(0.000953415 -0.000798634 0)
(0.000969828 -0.000776611 0)
(0.00145221 -0.000890195 0)
(0.00145512 -0.000871636 0)
(0.00142066 -0.000876195 0)
(0.00142385 -0.00085734 0)
(0.00139036 -0.000862854 0)
(0.00139401 -0.000843622 0)
(0.0013613 -0.000850223 0)
(0.00136553 -0.000830635 0)
(0.00133336 -0.000838354 0)
(0.00133828 -0.000818464 0)
(0.00130643 -0.000827267 0)
(0.00131212 -0.000807132 0)
(0.00128044 -0.000816955 0)
(0.00128698 -0.000796627 0)
(0.00125536 -0.000807394 0)
(0.00126278 -0.000786918 0)
(0.00123116 -0.000798554 0)
(0.00123948 -0.000777961 0)
(0.00120784 -0.0007904 0)
(0.00121706 -0.000769706 0)
(0.00118539 -0.00078289 0)
(0.0011955 -0.000762099 0)
(0.00116381 -0.000775977 0)
(0.00117477 -0.000755082 0)
(0.00114307 -0.00076961 0)
(0.00115485 -0.000748599 0)
(0.00112315 -0.000763737 0)
(0.00113571 -0.000742592 0)
(0.00110401 -0.000758303 0)
(0.00111733 -0.000737006 0)
(0.00108563 -0.000753252 0)
(0.00109966 -0.000731787 0)
(0.00106794 -0.000748529 0)
(0.00108267 -0.000726885 0)
(0.0010509 -0.000744078 0)
(0.0010663 -0.000722256 0)
(0.00103447 -0.000739839 0)
(0.00105051 -0.000717862 0)
(0.00101858 -0.00073575 0)
(0.00103526 -0.000713669 0)
(0.00149431 -0.00084949 0)
(0.00149782 -0.000830457 0)
(0.00146354 -0.000834233 0)
(0.00146736 -0.000814731 0)
(0.00143428 -0.00081977 0)
(0.0014386 -0.000799794 0)
(0.00140641 -0.000806063 0)
(0.00141133 -0.000785717 0)
(0.00137976 -0.000793139 0)
(0.00138539 -0.000772535 0)
(0.00135421 -0.000781007 0)
(0.00136062 -0.000760232 0)
(0.00132966 -0.000769654 0)
(0.0013369 -0.00074877 0)
(0.00130605 -0.000759054 0)
(0.00131414 -0.0007381 0)
(0.00128332 -0.00074917 0)
(0.00129228 -0.00072817 0)
(0.00126146 -0.000739964 0)
(0.00127127 -0.000718925 0)
(0.00124043 -0.000731391 0)
(0.00125108 -0.000710311 0)
(0.00122021 -0.000723402 0)
(0.00123167 -0.000702271 0)
(0.00120078 -0.000715946 0)
(0.00121302 -0.00069475 0)
(0.00118211 -0.000708973 0)
(0.00119509 -0.000687691 0)
(0.00116416 -0.00070243 0)
(0.00117787 -0.000681042 0)
(0.00114691 -0.000696265 0)
(0.0011613 -0.000674752 0)
(0.0011303 -0.00069043 0)
(0.00114535 -0.000668776 0)
(0.00111427 -0.000684872 0)
(0.00112997 -0.000663076 0)
(0.00109878 -0.000679541 0)
(0.00111511 -0.000657623 0)
(0.00108376 -0.000674381 0)
(0.00110072 -0.00065239 0)
(0.00153688 -0.000809309 0)
(0.0015409 -0.000789836 0)
(0.00150699 -0.000792712 0)
(0.00151143 -0.000772645 0)
(0.00147879 -0.000777066 0)
(0.00148377 -0.000756474 0)
(0.00145209 -0.00076227 0)
(0.0014577 -0.000741307 0)
(0.00142667 -0.00074831 0)
(0.001433 -0.00072712 0)
(0.0014024 -0.000735172 0)
(0.0014095 -0.000713864 0)
(0.00137917 -0.000722827 0)
(0.00138708 -0.000701478 0)
(0.00135691 -0.00071124 0)
(0.00136564 -0.000689898 0)
(0.00133556 -0.000700374 0)
(0.00134511 -0.000679059 0)
(0.00131505 -0.000690185 0)
(0.00132542 -0.000668901 0)
(0.00129537 -0.000680626 0)
(0.00130652 -0.000659365 0)
(0.00127645 -0.000671648 0)
(0.00128838 -0.000650393 0)
(0.00125829 -0.000663197 0)
(0.00127094 -0.000641934 0)
(0.00124083 -0.000655222 0)
(0.00125419 -0.000633935 0)
(0.00122405 -0.000647673 0)
(0.00123808 -0.000626348 0)
(0.00120792 -0.000640503 0)
(0.0012226 -0.000619129 0)
(0.00119241 -0.000633669 0)
(0.00120773 -0.000612238 0)
(0.00117747 -0.000627134 0)
(0.00119341 -0.000605642 0)
(0.00116306 -0.000620867 0)
(0.00117961 -0.000599319 0)
(0.0011491 -0.000614842 0)
(0.00116629 -0.000593239 0)
(0.00157935 -0.000769603 0)
(0.00158384 -0.000749766 0)
(0.00155054 -0.000751685 0)
(0.00155554 -0.000731173 0)
(0.00152349 -0.000734871 0)
(0.00152909 -0.000713808 0)
(0.00149797 -0.000719013 0)
(0.00150424 -0.000697586 0)
(0.00147378 -0.000704056 0)
(0.00148077 -0.000682432 0)
(0.00145075 -0.000689961 0)
(0.0014585 -0.000668264 0)
(0.00142879 -0.000676681 0)
(0.00143732 -0.000655002 0)
(0.00140781 -0.000664171 0)
(0.00141713 -0.000642566 0)
(0.00138774 -0.000652388 0)
(0.00139785 -0.000630885 0)
(0.00136854 -0.000641286 0)
(0.00137942 -0.000619889 0)
(0.00135015 -0.000630819 0)
(0.00136177 -0.000609513 0)
(0.00133251 -0.000620935 0)
(0.00134486 -0.000599694 0)
(0.00131557 -0.000611581 0)
(0.00132862 -0.000590377 0)
(0.0012993 -0.0006027 0)
(0.00131301 -0.000581513 0)
(0.00128366 -0.00059424 0)
(0.00129799 -0.000573063 0)
(0.00126861 -0.000586151 0)
(0.00128355 -0.000564995 0)
(0.00125416 -0.000578398 0)
(0.00126968 -0.000557283 0)
(0.00124028 -0.000570953 0)
(0.00125639 -0.000549904 0)
(0.00122696 -0.000563799 0)
(0.00124366 -0.000542837 0)
(0.00121415 -0.000556923 0)
(0.00123148 -0.000536064 0)
(0.00162128 -0.000730396 0)
(0.00162617 -0.000710303 0)
(0.00159376 -0.000711245 0)
(0.00159927 -0.000690431 0)
(0.00156798 -0.000693335 0)
(0.00157416 -0.000671963 0)
(0.00154372 -0.000676483 0)
(0.0015506 -0.000654759 0)
(0.00152076 -0.000660601 0)
(0.00152838 -0.000638703 0)
(0.00149897 -0.00064562 0)
(0.00150734 -0.000623686 0)
(0.00147824 -0.00063148 0)
(0.00148736 -0.000609608 0)
(0.00145849 -0.000618124 0)
(0.00146836 -0.000596381 0)
(0.00143965 -0.0006055 0)
(0.00145027 -0.000583924 0)
(0.00142168 -0.000593558 0)
(0.00143302 -0.000572163 0)
(0.00140451 -0.000582253 0)
(0.00141656 -0.000561028 0)
(0.00138811 -0.000571537 0)
(0.00140085 -0.00055045 0)
(0.0013724 -0.000561361 0)
(0.00138582 -0.00054036 0)
(0.00135733 -0.000551669 0)
(0.00137139 -0.000530691 0)
(0.0013428 -0.000542396 0)
(0.00135751 -0.000521387 0)
(0.00132878 -0.000533471 0)
(0.00134409 -0.000512413 0)
(0.00131524 -0.000524831 0)
(0.00133111 -0.000503769 0)
(0.00130222 -0.000516445 0)
(0.0013186 -0.000495491 0)
(0.00128977 -0.000508335 0)
(0.00130666 -0.000487627 0)
(0.00127785 -0.000500538 0)
(0.00129533 -0.000480199 0)
(0.00166229 -0.000691759 0)
(0.00166754 -0.00067153 0)
(0.00163626 -0.000671516 0)
(0.00164224 -0.00065055 0)
(0.0016119 -0.000652628 0)
(0.00161861 -0.000631111 0)
(0.00158897 -0.00063489 0)
(0.00159642 -0.000613036 0)
(0.00156731 -0.000618184 0)
(0.00157549 -0.000596177 0)
(0.00154677 -0.000602421 0)
(0.00155569 -0.000580403 0)
(0.00152726 -0.000587526 0)
(0.00153691 -0.000565603 0)
(0.00150869 -0.000573434 0)
(0.00151907 -0.000551675 0)
(0.00149101 -0.000560085 0)
(0.00150209 -0.000538532 0)
(0.00147417 -0.000547423 0)
(0.00148594 -0.000526096 0)
(0.00145812 -0.000535396 0)
(0.00147055 -0.000514296 0)
(0.00144282 -0.000523955 0)
(0.0014559 -0.000503067 0)
(0.00142824 -0.00051306 0)
(0.00144194 -0.000492347 0)
(0.00141432 -0.000502679 0)
(0.00142865 -0.000482067 0)
(0.00140098 -0.000492782 0)
(0.00141596 -0.000472141 0)
(0.00138809 -0.000483326 0)
(0.00140377 -0.000462462 0)
(0.00137546 -0.000474217 0)
(0.0013919 -0.000452915 0)
(0.00136292 -0.000465285 0)
(0.00138015 -0.000443433 0)
(0.0013504 -0.000456261 0)
(0.00136839 -0.0004341 0)
(0.00133811 -0.000446809 0)
(0.00135687 -0.000425279 0)
(0.00170209 -0.00065378 0)
(0.00170765 -0.000633537 0)
(0.00167775 -0.000632624 0)
(0.00168414 -0.000611654 0)
(0.00165493 -0.000612909 0)
(0.0016621 -0.00059141 0)
(0.00163344 -0.000594422 0)
(0.00164137 -0.000572608 0)
(0.00161312 -0.000577026 0)
(0.0016218 -0.000555079 0)
(0.00159386 -0.000560614 0)
(0.00160326 -0.00053868 0)
(0.00157557 -0.000545103 0)
(0.00158568 -0.000523288 0)
(0.00155818 -0.00053042 0)
(0.00156897 -0.000508799 0)
(0.00154163 -0.000516505 0)
(0.00155309 -0.000495118 0)
(0.00152586 -0.000503303 0)
(0.00153797 -0.000482165 0)
(0.00151084 -0.000490759 0)
(0.00152357 -0.000469865 0)
(0.00149651 -0.000478824 0)
(0.00150984 -0.000458152 0)
(0.00148284 -0.000467447 0)
(0.00149674 -0.000446968 0)
(0.0014698 -0.000456584 0)
(0.00148424 -0.000436269 0)
(0.00145738 -0.000446211 0)
(0.00147234 -0.000426021 0)
(0.00144559 -0.000436345 0)
(0.00146105 -0.000416205 0)
(0.00143444 -0.000427076 0)
(0.00145039 -0.0004068 0)
(0.00142386 -0.000418585 0)
(0.00144039 -0.000397768 0)
(0.00141366 -0.000411168 0)
(0.00143101 -0.000389045 0)
(0.00140349 -0.000405251 0)
(0.00142204 -0.000380511 0)
(0.00174048 -0.000616533 0)
(0.00174631 -0.000596385 0)
(0.00171798 -0.000594655 0)
(0.00172471 -0.00057382 0)
(0.00169683 -0.000574284 0)
(0.0017044 -0.00055296 0)
(0.00167687 -0.000555207 0)
(0.00168522 -0.000533601 0)
(0.00165797 -0.000537271 0)
(0.00166706 -0.000515563 0)
(0.00164004 -0.000520362 0)
(0.00164984 -0.000498694 0)
(0.001623 -0.000504386 0)
(0.00163348 -0.000482867 0)
(0.0016068 -0.000489271 0)
(0.00161792 -0.000467975 0)
(0.00159139 -0.000474953 0)
(0.00160312 -0.000453925 0)
(0.00157671 -0.000461376 0)
(0.00158903 -0.000440637 0)
(0.00156273 -0.000448492 0)
(0.00157561 -0.00042804 0)
(0.00154941 -0.000436258 0)
(0.00156282 -0.000416072 0)
(0.00153671 -0.000424641 0)
(0.00155062 -0.00040468 0)
(0.0015246 -0.000413616 0)
(0.00153899 -0.000393822 0)
(0.00151305 -0.000403171 0)
(0.00152788 -0.00038347 0)
(0.00150208 -0.000393311 0)
(0.00151728 -0.00037362 0)
(0.00149175 -0.00038409 0)
(0.00150726 -0.000364298 0)
(0.00148232 -0.000375673 0)
(0.001498 -0.000355558 0)
(0.00147417 -0.000368462 0)
(0.00148975 -0.000347538 0)
(0.00146738 -0.000363216 0)
(0.0014823 -0.00034075 0)
(0.00177732 -0.000580048 0)
(0.00178338 -0.000560082 0)
(0.00175677 -0.000557639 0)
(0.00176381 -0.000537057 0)
(0.0017374 -0.000536787 0)
(0.00174531 -0.00051578 0)
(0.00171906 -0.000517282 0)
(0.00172776 -0.000496045 0)
(0.00170166 -0.000498962 0)
(0.0017111 -0.000477663 0)
(0.00168513 -0.000481701 0)
(0.00169525 -0.000460481 0)
(0.00166941 -0.000465403 0)
(0.00168018 -0.000444369 0)
(0.00165446 -0.000449991 0)
(0.00166583 -0.000429219 0)
(0.00164024 -0.000435402 0)
(0.00165217 -0.000414939 0)
(0.00162671 -0.00042158 0)
(0.00163917 -0.000401449 0)
(0.00161383 -0.000408476 0)
(0.00162679 -0.000388679 0)
(0.00160158 -0.00039605 0)
(0.00161501 -0.000376573 0)
(0.00158994 -0.000384272 0)
(0.0016038 -0.000365081 0)
(0.0015789 -0.000373124 0)
(0.00159316 -0.000354163 0)
(0.00156845 -0.000362612 0)
(0.00158308 -0.000343779 0)
(0.00155859 -0.000352764 0)
(0.00157358 -0.00033388 0)
(0.00154936 -0.000343621 0)
(0.0015647 -0.000324375 0)
(0.00154083 -0.000335201 0)
(0.00155646 -0.000315136 0)
(0.00153308 -0.000327414 0)
(0.00154875 -0.000306232 0)
(0.00152573 -0.000320019 0)
(0.0015408 -0.000298483 0)
(0.00181252 -0.000544302 0)
(0.0018188 -0.000524591 0)
(0.00179401 -0.000521558 0)
(0.00180131 -0.000501324 0)
(0.00177649 -0.000500403 0)
(0.00178468 -0.000479829 0)
(0.00175985 -0.000480635 0)
(0.00176884 -0.000459896 0)
(0.00174402 -0.00046208 0)
(0.00175373 -0.000441332 0)
(0.00172895 -0.000444607 0)
(0.00173933 -0.00042398 0)
(0.00171461 -0.000428113 0)
(0.0017256 -0.000407712 0)
(0.00170097 -0.000412522 0)
(0.00171252 -0.000392419 0)
(0.001688 -0.000397767 0)
(0.00170007 -0.00037801 0)
(0.00167566 -0.000383793 0)
(0.00168822 -0.000364403 0)
(0.00166394 -0.000370552 0)
(0.00167695 -0.000351527 0)
(0.00165281 -0.000358006 0)
(0.00166624 -0.00033932 0)
(0.00164225 -0.000346121 0)
(0.00165608 -0.000327722 0)
(0.00163226 -0.000334875 0)
(0.00164646 -0.000316679 0)
(0.00162282 -0.000324253 0)
(0.00163736 -0.000306132 0)
(0.00161397 -0.000314249 0)
(0.0016288 -0.000296013 0)
(0.00160577 -0.000304859 0)
(0.00162083 -0.000286223 0)
(0.00159833 -0.00029605 0)
(0.0016135 -0.000276681 0)
(0.00159162 -0.000287753 0)
(0.00160663 -0.000267571 0)
(0.00158513 -0.000280151 0)
(0.00159946 -0.000259648 0)
(0.00184601 -0.000509254 0)
(0.00185248 -0.000489866 0)
(0.00182957 -0.000486381 0)
(0.0018371 -0.000466575 0)
(0.00181395 -0.00046511 0)
(0.00182238 -0.000445058 0)
(0.00179905 -0.000445246 0)
(0.00180828 -0.000425103 0)
(0.00178483 -0.00042661 0)
(0.00179477 -0.000406512 0)
(0.00177127 -0.000409064 0)
(0.00178184 -0.00038913 0)
(0.00175834 -0.000392504 0)
(0.0017695 -0.000372828 0)
(0.00174604 -0.00037685 0)
(0.00175772 -0.0003575 0)
(0.00173433 -0.000362036 0)
(0.00174649 -0.000343053 0)
(0.0017232 -0.000348008 0)
(0.00173581 -0.000329407 0)
(0.00171263 -0.000334715 0)
(0.00172565 -0.000316489 0)
(0.00170261 -0.000322117 0)
(0.00171601 -0.000304232 0)
(0.00169313 -0.000310179 0)
(0.00170688 -0.000292574 0)
(0.00168419 -0.000298877 0)
(0.00169826 -0.000281457 0)
(0.00167579 -0.000288198 0)
(0.00169013 -0.000270822 0)
(0.00166797 -0.000278135 0)
(0.00168252 -0.000260605 0)
(0.00166078 -0.000268673 0)
(0.00167547 -0.000250721 0)
(0.00165428 -0.000259757 0)
(0.00166902 -0.000241111 0)
(0.00164843 -0.000251355 0)
(0.001663 -0.000231964 0)
(0.00164273 -0.000243766 0)
(0.00165663 -0.000224061 0)
(0.00187767 -0.000474868 0)
(0.00188428 -0.000455878 0)
(0.00186333 -0.000452087 0)
(0.00187104 -0.000432785 0)
(0.00184963 -0.000430896 0)
(0.00185824 -0.000411444 0)
(0.00183649 -0.000411112 0)
(0.00184588 -0.000391642 0)
(0.00182389 -0.000392554 0)
(0.00183398 -0.000373182 0)
(0.00181184 -0.000375081 0)
(0.00182254 -0.00035591 0)
(0.00180033 -0.000358589 0)
(0.00181157 -0.000339703 0)
(0.00178935 -0.000342997 0)
(0.00180109 -0.000324456 0)
(0.0017789 -0.000328241 0)
(0.00179108 -0.000310081 0)
(0.00176897 -0.000314265 0)
(0.00178156 -0.000296496 0)
(0.00175956 -0.000301022 0)
(0.0017725 -0.000283632 0)
(0.00175064 -0.000288473 0)
(0.00176392 -0.000271422 0)
(0.00174223 -0.000276587 0)
(0.0017558 -0.000259808 0)
(0.00173432 -0.000265343 0)
(0.00174815 -0.000248735 0)
(0.00172693 -0.000254729 0)
(0.00174097 -0.000238147 0)
(0.00172009 -0.000244738 0)
(0.00173429 -0.000227984 0)
(0.00171384 -0.000235348 0)
(0.00172815 -0.000218164 0)
(0.00170822 -0.000226509 0)
(0.00172259 -0.000208622 0)
(0.00170318 -0.000218209 0)
(0.00171741 -0.000199539 0)
(0.00169822 -0.000210743 0)
(0.00171176 -0.000191691 0)
(0.00190739 -0.000441124 0)
(0.0019141 -0.00042261 0)
(0.00189515 -0.000418667 0)
(0.00190298 -0.000399946 0)
(0.00188337 -0.00039776 0)
(0.00189209 -0.00037898 0)
(0.00187198 -0.000378237 0)
(0.00188147 -0.000359507 0)
(0.00186099 -0.000359921 0)
(0.00187115 -0.000341338 0)
(0.00185043 -0.000342671 0)
(0.00186117 -0.000324324 0)
(0.00184032 -0.000326385 0)
(0.00185157 -0.000308347 0)
(0.00183066 -0.000310986 0)
(0.00184237 -0.000293309 0)
(0.00182146 -0.000296411 0)
(0.00183356 -0.000279125 0)
(0.00181271 -0.000282607 0)
(0.00182517 -0.00026572 0)
(0.00180442 -0.000269533 0)
(0.0018172 -0.000253025 0)
(0.00179658 -0.000257151 0)
(0.00180964 -0.000240982 0)
(0.00178921 -0.000245435 0)
(0.00180251 -0.000229532 0)
(0.0017823 -0.000234368 0)
(0.00179582 -0.000218624 0)
(0.00177588 -0.000223939 0)
(0.00178956 -0.000208206 0)
(0.00176996 -0.000214137 0)
(0.00178377 -0.000198216 0)
(0.00176459 -0.000204941 0)
(0.0017785 -0.000188571 0)
(0.0017598 -0.000196304 0)
(0.00177379 -0.000179204 0)
(0.00175553 -0.000188216 0)
(0.0017694 -0.000170287 0)
(0.00175127 -0.000180951 0)
(0.00176445 -0.000162569 0)
(0.00193506 -0.000408015 0)
(0.00194181 -0.000390054 0)
(0.00192491 -0.000386112 0)
(0.00193278 -0.000368046 0)
(0.00191502 -0.000365692 0)
(0.00192378 -0.000347654 0)
(0.00190535 -0.000346612 0)
(0.00191485 -0.000328688 0)