/*--------------------------------*- C++ -*----------------------------------*\
| =========                 |                                                 |
| \\      /  F ield         | OpenFOAM: The Open Source CFD Toolbox           |
|  \\    /   O peration     | Version:  v2012                                 |
|   \\  /    A nd           | Website:  www.openfoam.com                      |
|    \\/     M anipulation  |                                                 |
\*---------------------------------------------------------------------------*/
FoamFile
{
    version     2.0;
    format      ascii;
    class       pointVectorField;
    location    "1";
    object      pointD;
}
// * * * * * * * * * * * * * * * * * * * * * * * * * * * * * * * * * * * * * //

dimensions      [0 1 0 0 0 0 0];


internalField   nonuniform List<vector> 
78489
(
(2.27321e-05 0 -8.72763e-05)
(1.09584e-06 0 -9.99036e-07)
(0 3.18372e-05 -0.000174582)
(0 6.18404e-07 -5.28877e-07)
(2.24316e-05 0 -7.89068e-05)
(0 2.52325e-05 -4.96906e-05)
(1.65314e-05 2.8198e-05 -0.000157264)
(1.67446e-05 2.22632e-05 -6.53127e-05)
(2.37893e-07 3.27572e-07 -2.78776e-07)
(-1.72172e-05 -3.05551e-05 -0.000158601)
(0 -3.74823e-05 -0.000177107)
(0 -2.66823e-05 -5.10076e-05)
(-1.72052e-05 -2.30554e-05 -6.64178e-05)
(-2.44968e-05 0 -7.99757e-05)
(-2.50067e-05 0 -8.82704e-05)
(-9.81498e-07 0 -1.0986e-06)
(-2.99003e-07 -4.06581e-07 -3.63506e-07)
(0 -5.7491e-07 -5.86167e-07)
(1.75702e-05 2.87767e-05 -0.000153438)
(1.79868e-05 2.83097e-05 -0.000148452)
(1.83299e-05 2.78611e-05 -0.000143106)
(1.85795e-05 2.74282e-05 -0.000137645)
(1.87495e-05 2.70179e-05 -0.000132098)
(1.88498e-05 2.66273e-05 -0.000126469)
(1.88871e-05 2.62528e-05 -0.000120758)
(1.8867e-05 2.58887e-05 -0.000114965)
(1.87942e-05 2.55294e-05 -0.000109091)
(1.86703e-05 2.5166e-05 -0.000103138)
(1.8497e-05 2.47899e-05 -9.71095e-05)
(1.8274e-05 2.4393e-05 -9.10116e-05)
(1.79994e-05 2.39627e-05 -8.48516e-05)
(1.76707e-05 2.34901e-05 -7.86402e-05)
(1.72785e-05 2.29594e-05 -7.23884e-05)
(1.6376e-05 2.17942e-05 -6.10459e-05)
(1.60917e-05 2.14235e-05 -5.79661e-05)
(1.58014e-05 2.10423e-05 -5.49838e-05)
(1.55022e-05 2.06453e-05 -5.20986e-05)
(1.51896e-05 2.02275e-05 -4.93091e-05)
(1.48774e-05 1.98122e-05 -4.66919e-05)
(1.45354e-05 1.93547e-05 -4.40044e-05)
(1.41893e-05 1.88939e-05 -4.15022e-05)
(1.38383e-05 1.84277e-05 -3.90962e-05)
(1.34801e-05 1.79481e-05 -3.67819e-05)
(1.31162e-05 1.74569e-05 -3.4557e-05)
(1.27391e-05 1.69495e-05 -3.24186e-05)
(1.23667e-05 1.64502e-05 -3.04223e-05)
(1.1964e-05 1.59079e-05 -2.83914e-05)
(1.15601e-05 1.53644e-05 -2.6512e-05)
(1.1153e-05 1.48176e-05 -2.47203e-05)
(1.07415e-05 1.42638e-05 -2.30094e-05)
(1.03245e-05 1.37014e-05 -2.13785e-05)
(9.90324e-06 1.31328e-05 -1.98249e-05)
(9.4767e-06 1.25567e-05 -1.83479e-05)
(9.04694e-06 1.19762e-05 -1.69441e-05)
(8.61129e-06 1.1389e-05 -1.56122e-05)
(8.17242e-06 1.07984e-05 -1.43507e-05)
(7.73013e-06 1.02033e-05 -1.31571e-05)
(7.28181e-06 9.60147e-06 -1.20277e-05)
(6.84516e-06 9.01845e-06 -1.0986e-05)
(6.38246e-06 8.40129e-06 -9.94577e-06)
(5.92502e-06 7.78974e-06 -8.99527e-06)
(5.46618e-06 7.1785e-06 -8.1049e-06)
(5.0077e-06 6.57079e-06 -7.2655e-06)
(4.54594e-06 5.96115e-06 -6.47262e-06)
(4.08133e-06 5.34885e-06 -5.72347e-06)
(3.61479e-06 4.73483e-06 -5.01486e-06)
(3.14818e-06 4.12392e-06 -4.33994e-06)
(2.6758e-06 3.50898e-06 -3.68933e-06)
(2.19663e-06 2.8878e-06 -3.05629e-06)
(1.71259e-06 2.26133e-06 -2.42504e-06)
(1.22727e-06 1.63031e-06 -1.76435e-06)
(7.56278e-07 1.01996e-06 -1.03137e-06)
(1.63466e-05 2.84718e-05 -0.000157463)
(1.58743e-05 2.83465e-05 -0.000158048)
(1.54776e-05 2.84648e-05 -0.000158837)
(1.50975e-05 2.86064e-05 -0.000159635)
(1.47207e-05 2.87639e-05 -0.000160429)
(1.43452e-05 2.89321e-05 -0.000161216)
(1.3969e-05 2.9108e-05 -0.000161994)
(1.35911e-05 2.92888e-05 -0.000162759)
(1.32107e-05 2.94725e-05 -0.00016351)
(1.28277e-05 2.96571e-05 -0.000164245)
(1.24418e-05 2.98414e-05 -0.000164963)
(1.20532e-05 3.0024e-05 -0.000165663)
(1.16615e-05 3.02037e-05 -0.000166343)
(1.12667e-05 3.03795e-05 -0.000167002)
(1.0869e-05 3.05502e-05 -0.000167641)
(1.0468e-05 3.07147e-05 -0.000168257)
(1.00628e-05 3.08718e-05 -0.000168851)
(9.64323e-06 3.10348e-05 -0.00016943)
(9.23759e-06 3.11891e-05 -0.000169971)
(8.82062e-06 3.13537e-05 -0.000170528)
(8.40509e-06 3.15032e-05 -0.000171042)
(7.98408e-06 3.16345e-05 -0.000171513)
(7.56069e-06 3.17586e-05 -0.000171961)
(7.13567e-06 3.18744e-05 -0.000172384)
(6.7088e-06 3.19817e-05 -0.000172782)
(6.28003e-06 3.20803e-05 -0.000173152)
(5.84941e-06 3.21695e-05 -0.000173496)
(5.41704e-06 3.2249e-05 -0.000173812)
(4.98304e-06 3.23183e-05 -0.0001741)
(4.54756e-06 3.23766e-05 -0.000174359)
(4.11073e-06 3.24233e-05 -0.000174589)
(3.67267e-06 3.24572e-05 -0.000174789)
(3.23351e-06 3.24768e-05 -0.000174959)
(2.79157e-06 3.24801e-05 -0.0001751)
(2.33727e-06 3.24785e-05 -0.000175221)
(1.90044e-06 3.24666e-05 -0.0001753)
(1.44842e-06 3.24334e-05 -0.000175353)
(9.95976e-07 3.23835e-05 -0.00017539)
(5.45167e-07 3.25547e-05 -0.000175232)
(1.71953e-05 2.78401e-05 -0.000155145)
(1.75721e-05 2.71188e-05 -0.00015337)
(1.80932e-05 2.66156e-05 -0.000151671)
(1.86009e-05 2.60839e-05 -0.000149923)
(1.90976e-05 2.55286e-05 -0.000148106)
(1.95942e-05 2.49182e-05 -0.00014616)
(2.00383e-05 2.43624e-05 -0.000144339)
(2.04806e-05 2.37921e-05 -0.00014242)
(2.09002e-05 2.31948e-05 -0.000140465)
(2.13004e-05 2.25798e-05 -0.000138472)
(2.16805e-05 2.1947e-05 -0.000136446)
(2.20381e-05 2.12995e-05 -0.000134388)
(2.23736e-05 2.06359e-05 -0.000132305)
(2.26857e-05 1.99547e-05 -0.000130197)
(2.29743e-05 1.92605e-05 -0.000128069)
(2.32403e-05 1.85559e-05 -0.000125925)
(2.34829e-05 1.78442e-05 -0.000123771)
(2.37017e-05 1.71247e-05 -0.000121616)
(2.38948e-05 1.63922e-05 -0.000119462)
(2.40601e-05 1.56462e-05 -0.000117309)
(2.41966e-05 1.48871e-05 -0.00011516)
(2.43076e-05 1.40956e-05 -0.000112993)
(2.43814e-05 1.32133e-05 -0.000110694)
(2.44482e-05 1.24763e-05 -0.00010872)
(2.45049e-05 1.17152e-05 -0.000106681)
(2.45304e-05 1.09456e-05 -0.000104681)
(2.45322e-05 1.0171e-05 -0.000102727)
(2.45066e-05 9.38683e-06 -0.000100831)
(2.44599e-05 8.59876e-06 -9.90003e-05)
(2.43952e-05 7.81045e-06 -9.72515e-05)
(2.43113e-05 7.02199e-06 -9.55931e-05)
(2.42186e-05 6.23686e-06 -9.40424e-05)
(2.4118e-05 5.45792e-06 -9.26121e-05)
(2.40039e-05 4.68715e-06 -9.13175e-05)
(2.38838e-05 3.92303e-06 -9.01733e-05)
(2.37577e-05 3.16765e-06 -8.91944e-05)
(2.36407e-05 2.4245e-06 -8.84131e-05)
(2.35221e-05 1.69503e-06 -8.78283e-05)
(2.35189e-05 1.02745e-06 -8.74349e-05)
(2.29634e-05 0 -8.69112e-05)
(2.29338e-05 0 -8.64531e-05)
(2.29046e-05 0 -8.59795e-05)
(2.28827e-05 0 -8.54953e-05)
(2.28604e-05 0 -8.50015e-05)
(2.28404e-05 0 -8.44976e-05)
(2.28216e-05 0 -8.39827e-05)
(2.28028e-05 0 -8.34572e-05)
(2.27883e-05 0 -8.29206e-05)
(2.27714e-05 0 -8.23716e-05)
(2.27562e-05 0 -8.1811e-05)
(2.27419e-05 0 -8.12385e-05)
(2.2727e-05 0 -8.06541e-05)
(2.27064e-05 0 -8.00599e-05)
(2.2851e-05 0 -7.95011e-05)
(2.263e-05 0 -7.75858e-05)
(2.25903e-05 0 -7.59474e-05)
(2.25374e-05 0 -7.42603e-05)
(2.24757e-05 0 -7.25324e-05)
(2.24106e-05 0 -7.07615e-05)
(2.23365e-05 0 -6.89487e-05)
(2.22381e-05 0 -6.70966e-05)
(2.21289e-05 0 -6.52512e-05)
(2.20047e-05 0 -6.3259e-05)
(2.18665e-05 0 -6.12957e-05)
(2.1715e-05 0 -5.93055e-05)
(2.1545e-05 0 -5.72826e-05)
(2.13571e-05 0 -5.52272e-05)
(2.11373e-05 0 -5.31381e-05)
(2.08975e-05 0 -5.10661e-05)
(2.06287e-05 0 -4.88489e-05)
(2.03424e-05 0 -4.66772e-05)
(2.0028e-05 0 -4.44919e-05)
(1.96846e-05 0 -4.22899e-05)
(1.93121e-05 0 -4.00711e-05)
(1.89069e-05 0 -3.78382e-05)
(1.84664e-05 0 -3.55959e-05)
(1.79885e-05 0 -3.3349e-05)
(1.74708e-05 0 -3.11022e-05)
(1.69106e-05 0 -2.88606e-05)
(1.63044e-05 0 -2.66296e-05)
(1.56407e-05 0 -2.44109e-05)
(1.49351e-05 0 -2.22518e-05)
(1.41403e-05 0 -2.00058e-05)
(1.33094e-05 0 -1.78869e-05)
(1.24161e-05 0 -1.58314e-05)
(1.14575e-05 0 -1.38366e-05)
(1.04296e-05 0 -1.19122e-05)
(9.32867e-06 0 -1.00683e-05)
(8.14517e-06 0 -8.31391e-06)
(6.87326e-06 0 -6.66591e-06)
(5.50838e-06 0 -5.12152e-06)
(4.03471e-06 0 -3.65932e-06)
(2.58752e-06 0 -2.32391e-06)
(0 3.24459e-05 -0.000168428)
(0 3.23779e-05 -0.000161391)
(0 3.23076e-05 -0.000154129)
(0 3.22139e-05 -0.00014667)
(0 3.21025e-05 -0.000139043)
(0 3.1967e-05 -0.000131236)
(0 3.17894e-05 -0.00012326)
(0 3.15568e-05 -0.000115127)
(0 3.1256e-05 -0.000106837)
(0 3.08521e-05 -9.84208e-05)
(0 3.03389e-05 -8.99062e-05)
(0 2.96844e-05 -8.13057e-05)
(0 2.88625e-05 -7.26797e-05)
(0 2.78412e-05 -6.41019e-05)
(0 2.69327e-05 -5.64512e-05)
(0 2.50229e-05 -4.72372e-05)
(0 2.45508e-05 -4.49804e-05)
(0 2.40375e-05 -4.27034e-05)
(0 2.35029e-05 -4.04952e-05)
(0 2.29556e-05 -3.83611e-05)
(0 2.2395e-05 -3.63004e-05)
(0 2.18195e-05 -3.43165e-05)
(0 2.12353e-05 -3.2412e-05)
(0 2.06422e-05 -3.05798e-05)
(0 2.00401e-05 -2.88209e-05)
(0 1.94304e-05 -2.71322e-05)
(0 1.88132e-05 -2.55137e-05)
(0 1.81904e-05 -2.39617e-05)
(0 1.75585e-05 -2.24752e-05)
(0 1.69224e-05 -2.10567e-05)
(0 1.6282e-05 -1.96997e-05)
(0 1.56361e-05 -1.84053e-05)
(0 1.49888e-05 -1.71718e-05)
(0 1.43387e-05 -1.59951e-05)
(0 1.36864e-05 -1.48742e-05)
(0 1.30324e-05 -1.38073e-05)
(0 1.23772e-05 -1.27926e-05)
(0 1.17211e-05 -1.1828e-05)
(0 1.10645e-05 -1.09115e-05)
(0 1.04077e-05 -1.00411e-05)
(0 9.75099e-06 -9.2144e-06)
(0 9.09442e-06 -8.42915e-06)
(0 8.43807e-06 -7.68289e-06)
(0 7.78182e-06 -6.97302e-06)
(0 7.12543e-06 -6.29672e-06)
(0 6.46848e-06 -5.65095e-06)
(0 5.81034e-06 -5.0323e-06)
(0 5.15022e-06 -4.43685e-06)
(0 4.48857e-06 -3.85941e-06)
(0 3.82042e-06 -3.29217e-06)
(0 3.14473e-06 -2.73422e-06)
(0 2.46471e-06 -2.17458e-06)
(0 1.78159e-06 -1.59666e-06)
(0 1.22669e-06 -1.08745e-06)
(2.36765e-05 5.88554e-07 -7.87146e-05)
(2.38035e-05 1.13041e-06 -7.86601e-05)
(2.39057e-05 1.72305e-06 -7.86767e-05)
(2.40065e-05 2.33016e-06 -7.87043e-05)
(2.41063e-05 2.94504e-06 -7.87317e-05)
(2.4206e-05 3.56793e-06 -7.87512e-05)
(2.43006e-05 4.19968e-06 -7.87547e-05)
(2.4385e-05 4.83847e-06 -7.87394e-05)
(2.44533e-05 5.48521e-06 -7.87034e-05)
(2.45008e-05 6.13702e-06 -7.86399e-05)
(2.45271e-05 6.79412e-06 -7.85481e-05)
(2.45327e-05 7.45514e-06 -7.84251e-05)
(2.45116e-05 8.11485e-06 -7.82701e-05)
(2.44658e-05 8.77254e-06 -7.80842e-05)
(2.4391e-05 9.42951e-06 -7.78673e-05)
(2.42924e-05 1.00837e-05 -7.76188e-05)
(2.41707e-05 1.07319e-05 -7.73422e-05)
(2.40271e-05 1.13706e-05 -7.70355e-05)
(2.38616e-05 1.19825e-05 -7.6712e-05)
(2.36598e-05 1.26364e-05 -7.63385e-05)
(2.34459e-05 1.32491e-05 -7.59389e-05)
(2.32128e-05 1.38503e-05 -7.55155e-05)
(2.29622e-05 1.4438e-05 -7.50713e-05)
(2.2694e-05 1.50117e-05 -7.46077e-05)
(2.24083e-05 1.55722e-05 -7.41214e-05)
(2.21082e-05 1.61183e-05 -7.36166e-05)
(2.17942e-05 1.66482e-05 -7.30952e-05)
(2.14661e-05 1.71634e-05 -7.25564e-05)
(2.11234e-05 1.76634e-05 -7.2003e-05)
(2.07697e-05 1.81479e-05 -7.1435e-05)
(2.04076e-05 1.86212e-05 -7.08545e-05)
(2.00374e-05 1.90768e-05 -7.02649e-05)
(1.96572e-05 1.95172e-05 -6.96652e-05)
(1.92692e-05 1.99419e-05 -6.90612e-05)
(1.8874e-05 2.03458e-05 -6.8449e-05)
(1.84782e-05 2.07282e-05 -6.78573e-05)
(1.80545e-05 2.11276e-05 -6.72269e-05)
(1.76422e-05 2.14987e-05 -6.66013e-05)
(1.72317e-05 2.18578e-05 -6.59892e-05)
(3.64399e-07 5.00956e-07 -4.85875e-07)
(3.8525e-07 5.51895e-07 -5.3336e-07)
(3.76439e-07 5.60388e-07 -5.39035e-07)
(3.70058e-07 5.72869e-07 -5.36816e-07)
(3.57923e-07 5.73329e-07 -5.35173e-07)
(3.51473e-07 5.84624e-07 -5.38639e-07)
(3.49181e-07 6.07078e-07 -5.4513e-07)
(3.29026e-07 6.03047e-07 -5.3567e-07)
(3.22101e-07 6.011e-07 -5.34526e-07)
(3.14244e-07 6.13398e-07 -5.35914e-07)
(2.99967e-07 6.15329e-07 -5.34768e-07)
(2.87191e-07 6.17751e-07 -5.35341e-07)
(2.78293e-07 6.23095e-07 -5.36958e-07)
(2.75137e-07 6.38988e-07 -5.47193e-07)
(2.55293e-07 6.36649e-07 -5.37236e-07)
(2.51222e-07 6.37824e-07 -5.27239e-07)
(2.41476e-07 6.37341e-07 -5.29868e-07)
(2.32561e-07 6.46857e-07 -5.30333e-07)
(2.22089e-07 6.53705e-07 -5.30769e-07)
(2.09877e-07 6.50846e-07 -5.30418e-07)
(2.02671e-07 6.59121e-07 -5.30825e-07)
(1.93299e-07 6.63611e-07 -5.3176e-07)
(1.82564e-07 6.65557e-07 -5.29899e-07)
(1.72706e-07 6.69166e-07 -5.31866e-07)
(1.62746e-07 6.72091e-07 -5.30367e-07)
(1.53459e-07 6.76846e-07 -5.31325e-07)
(1.44679e-07 6.92832e-07 -5.41846e-07)
(1.23838e-07 6.79582e-07 -5.31577e-07)
(1.2046e-07 6.78148e-07 -5.23039e-07)
(1.10019e-07 6.78277e-07 -5.26081e-07)
(1.00435e-07 6.82482e-07 -5.25939e-07)
(9.04103e-08 6.85939e-07 -5.26738e-07)
(8.00449e-08 6.87233e-07 -5.26561e-07)
(6.92256e-08 6.88307e-07 -5.25675e-07)
(5.87003e-08 6.89767e-07 -5.27277e-07)
(4.85647e-08 6.91841e-07 -5.28543e-07)
(3.87376e-08 6.93578e-07 -5.28015e-07)
(2.85933e-08 6.97493e-07 -5.27123e-07)
(1.53156e-08 7.69368e-07 -5.73943e-07)
(9.21341e-07 3.74984e-08 -7.75327e-07)
(9.16227e-07 5.48533e-08 -7.73276e-07)
(9.09523e-07 7.60533e-08 -7.69979e-07)
(9.02513e-07 9.82251e-08 -7.67264e-07)
(8.96786e-07 1.2016e-07 -7.64356e-07)
(8.87401e-07 1.40911e-07 -7.59747e-07)
(8.7879e-07 1.62342e-07 -7.55937e-07)
(8.69175e-07 1.83378e-07 -7.51965e-07)
(8.61168e-07 2.04918e-07 -7.49599e-07)
(8.52323e-07 2.25259e-07 -7.46101e-07)
(8.41418e-07 2.44804e-07 -7.42482e-07)
(8.31089e-07 2.64177e-07 -7.38666e-07)
(8.1915e-07 2.82486e-07 -7.34864e-07)
(8.08396e-07 3.00946e-07 -7.30927e-07)
(7.93274e-07 3.17093e-07 -7.24634e-07)
(7.80034e-07 3.34934e-07 -7.2063e-07)
(7.68345e-07 3.52662e-07 -7.17186e-07)
(7.54864e-07 3.68518e-07 -7.12597e-07)
(7.40641e-07 3.83665e-07 -7.07743e-07)
(7.25968e-07 3.98067e-07 -7.02593e-07)
(7.1091e-07 4.11737e-07 -6.97172e-07)
(6.95501e-07 4.24682e-07 -6.9149e-07)
(6.79773e-07 4.36904e-07 -6.85548e-07)
(6.63756e-07 4.48402e-07 -6.7934e-07)
(6.47482e-07 4.59176e-07 -6.7286e-07)
(6.30984e-07 4.69225e-07 -6.661e-07)
(6.14294e-07 4.78551e-07 -6.59055e-07)
(5.97447e-07 4.87161e-07 -6.51721e-07)
(5.80479e-07 4.95062e-07 -6.44094e-07)
(5.63424e-07 5.02267e-07 -6.36172e-07)
(5.46323e-07 5.08791e-07 -6.27956e-07)
(5.29223e-07 5.14654e-07 -6.19458e-07)
(5.12221e-07 5.19893e-07 -6.10828e-07)
(4.9591e-07 5.25093e-07 -6.02497e-07)
(4.78246e-07 5.27655e-07 -5.91658e-07)
(4.60318e-07 5.30256e-07 -5.8121e-07)
(4.44257e-07 5.34951e-07 -5.72841e-07)
(4.28023e-07 5.38904e-07 -5.62065e-07)
(4.02473e-07 5.36372e-07 -5.3649e-07)
(1.62151e-05 2.26686e-05 -6.45289e-05)
(1.57871e-05 2.29722e-05 -6.39057e-05)
(1.53568e-05 2.32595e-05 -6.32844e-05)
(1.49253e-05 2.35329e-05 -6.26651e-05)
(1.44969e-05 2.37882e-05 -6.20533e-05)
(1.40873e-05 2.40174e-05 -6.1478e-05)
(1.36297e-05 2.42522e-05 -6.08515e-05)
(1.31882e-05 2.44634e-05 -6.02669e-05)
(1.2749e-05 2.46651e-05 -5.96886e-05)
(1.23106e-05 2.48553e-05 -5.91202e-05)
(1.18741e-05 2.50361e-05 -5.85608e-05)
(1.14445e-05 2.52054e-05 -5.80152e-05)
(1.1038e-05 2.53529e-05 -5.75102e-05)
(1.05843e-05 2.54997e-05 -5.69655e-05)
(1.01482e-05 2.56311e-05 -5.64674e-05)
(9.71201e-06 2.57561e-05 -5.59813e-05)
(9.28886e-06 2.5873e-05 -5.55229e-05)
(8.84685e-06 2.59857e-05 -5.50594e-05)
(8.41844e-06 2.60853e-05 -5.46107e-05)
(7.99387e-06 2.61774e-05 -5.41838e-05)
(7.57328e-06 2.62623e-05 -5.37766e-05)
(7.15543e-06 2.63404e-05 -5.33887e-05)
(6.74015e-06 2.64125e-05 -5.302e-05)
(6.3278e-06 2.64796e-05 -5.26706e-05)
(5.92327e-06 2.65414e-05 -5.23431e-05)
(5.54358e-06 2.65911e-05 -5.20541e-05)
(5.11633e-06 2.66354e-05 -5.17541e-05)
(4.7064e-06 2.66708e-05 -5.14939e-05)
(4.29848e-06 2.67057e-05 -5.12509e-05)
(3.8948e-06 2.67395e-05 -5.10299e-05)
(3.49437e-06 2.67699e-05 -5.08321e-05)
(3.095e-06 2.67961e-05 -5.06586e-05)
(2.69419e-06 2.6817e-05 -5.05085e-05)
(2.30154e-06 2.68362e-05 -5.03879e-05)
(1.88827e-06 2.685e-05 -5.02807e-05)
(1.49011e-06 2.68536e-05 -5.01875e-05)
(1.08853e-06 2.68524e-05 -5.01222e-05)
(6.85736e-07 2.68201e-05 -5.00749e-05)
(3.32639e-07 2.67069e-05 -4.99156e-05)
(-1.68707e-05 -3.06342e-05 -0.000159215)
(-1.65366e-05 -3.08982e-05 -0.000160096)
(-1.61787e-05 -3.11672e-05 -0.000160975)
(-1.58126e-05 -3.14403e-05 -0.000161841)
(-1.5441e-05 -3.17133e-05 -0.00016269)
(-1.50639e-05 -3.19842e-05 -0.000163521)
(-1.46813e-05 -3.22519e-05 -0.000164335)
(-1.42931e-05 -3.25153e-05 -0.000165129)
(-1.38995e-05 -3.27744e-05 -0.000165903)
(-1.34999e-05 -3.30417e-05 -0.000166669)
(-1.30986e-05 -3.32878e-05 -0.000167422)
(-1.26889e-05 -3.35238e-05 -0.000168137)
(-1.22744e-05 -3.37539e-05 -0.00016882)
(-1.18568e-05 -3.39778e-05 -0.000169483)
(-1.14343e-05 -3.41968e-05 -0.000170127)
(-1.10078e-05 -3.44102e-05 -0.000170751)
(-1.05777e-05 -3.46174e-05 -0.000171353)
(-1.01442e-05 -3.48183e-05 -0.000171933)
(-9.70688e-06 -3.5012e-05 -0.000172489)
(-9.26563e-06 -3.51978e-05 -0.000173021)
(-8.82111e-06 -3.53759e-05 -0.000173528)
(-8.37357e-06 -3.55464e-05 -0.00017401)
(-7.92317e-06 -3.57091e-05 -0.000174467)
(-7.46998e-06 -3.58641e-05 -0.000174899)
(-7.0141e-06 -3.60112e-05 -0.000175305)
(-6.55562e-06 -3.61504e-05 -0.000175686)
(-6.09467e-06 -3.62818e-05 -0.000176042)
(-5.63135e-06 -3.64054e-05 -0.000176371)
(-5.16575e-06 -3.65212e-05 -0.000176675)
(-4.69796e-06 -3.66294e-05 -0.000176952)
(-4.22799e-06 -3.67304e-05 -0.000177204)
(-3.75564e-06 -3.68248e-05 -0.00017743)
(-3.27732e-06 -3.69167e-05 -0.000177632)
(-2.7113e-06 -3.68636e-05 -0.000177884)
(-2.27047e-06 -3.72643e-05 -0.000177856)
(-1.84609e-06 -3.71296e-05 -0.000178027)
(-1.35616e-06 -3.71984e-05 -0.000178103)
(-8.63665e-07 -3.72601e-05 -0.000178119)
(-2.73526e-07 -3.72159e-05 -0.00017811)
(0 -3.70889e-05 -0.00017195)
(0 -3.63656e-05 -0.00016421)
(0 -3.63163e-05 -0.000156599)
(0 -3.55495e-05 -0.00014928)
(0 -3.55689e-05 -0.000141382)
(0 -3.50543e-05 -0.000134374)
(0 -3.44322e-05 -0.000125805)
(0 -3.44133e-05 -0.000117443)
(0 -3.37792e-05 -0.000110043)
(0 -3.29456e-05 -0.000101026)
(0 -3.23703e-05 -9.16253e-05)
(0 -3.15357e-05 -8.30109e-05)
(0 -3.08682e-05 -7.50356e-05)
(0 -2.95911e-05 -6.73199e-05)
(0 -2.78108e-05 -5.81757e-05)
(-3.63054e-07 -2.72789e-05 -5.12603e-05)
(-8.08208e-07 -2.73475e-05 -5.11265e-05)
(-1.22291e-06 -2.74048e-05 -5.11749e-05)
(-1.64038e-06 -2.74343e-05 -5.1228e-05)
(-2.0041e-06 -2.74501e-05 -5.13061e-05)
(-2.42636e-06 -2.74588e-05 -5.14272e-05)
(-2.86217e-06 -2.74578e-05 -5.1573e-05)
(-3.27405e-06 -2.74477e-05 -5.17331e-05)
(-3.68469e-06 -2.74301e-05 -5.19132e-05)
(-4.0943e-06 -2.74038e-05 -5.21137e-05)
(-4.50871e-06 -2.73728e-05 -5.23368e-05)
(-4.92384e-06 -2.73366e-05 -5.25905e-05)
(-5.34766e-06 -2.72946e-05 -5.28665e-05)
(-5.77152e-06 -2.7248e-05 -5.31568e-05)
(-6.19256e-06 -2.71969e-05 -5.34669e-05)
(-6.61473e-06 -2.71393e-05 -5.37981e-05)
(-7.03874e-06 -2.7075e-05 -5.41498e-05)
(-7.4648e-06 -2.70045e-05 -5.45212e-05)
(-7.89364e-06 -2.69293e-05 -5.49104e-05)
(-8.31964e-06 -2.68408e-05 -5.53136e-05)
(-8.751e-06 -2.67459e-05 -5.57336e-05)
(-9.18372e-06 -2.66422e-05 -5.61716e-05)
(-9.61128e-06 -2.65281e-05 -5.6632e-05)
(-1.00457e-05 -2.64125e-05 -5.71192e-05)
(-1.04874e-05 -2.62898e-05 -5.76239e-05)
(-1.09365e-05 -2.6154e-05 -5.81296e-05)
(-1.13777e-05 -2.60044e-05 -5.86412e-05)
(-1.18109e-05 -2.58444e-05 -5.91758e-05)
(-1.2254e-05 -2.56777e-05 -5.97301e-05)
(-1.26979e-05 -2.54986e-05 -6.03017e-05)
(-1.3147e-05 -2.53036e-05 -6.08795e-05)
(-1.35967e-05 -2.50963e-05 -6.14543e-05)
(-1.40469e-05 -2.48849e-05 -6.20393e-05)
(-1.44936e-05 -2.46694e-05 -6.26463e-05)
(-1.48964e-05 -2.44601e-05 -6.31976e-05)
(-1.53103e-05 -2.42239e-05 -6.37639e-05)
(-1.58076e-05 -2.39394e-05 -6.44525e-05)
(-1.6248e-05 -2.3678e-05 -6.50613e-05)
(-1.67256e-05 -2.33821e-05 -6.57258e-05)
(-1.76391e-05 -2.37022e-05 -7.23962e-05)
(-1.80219e-05 -2.43099e-05 -7.86117e-05)
(-1.83843e-05 -2.49255e-05 -8.51775e-05)
(-1.86914e-05 -2.5474e-05 -9.16401e-05)
(-1.8916e-05 -2.59403e-05 -9.74579e-05)
(-1.91178e-05 -2.6421e-05 -0.000103785)
(-1.92421e-05 -2.6855e-05 -0.000109472)
(-1.93272e-05 -2.73093e-05 -0.000115646)
(-1.93465e-05 -2.76922e-05 -0.00012083)
(-1.93166e-05 -2.81423e-05 -0.000126551)
(-1.92213e-05 -2.86032e-05 -0.00013219)
(-1.90382e-05 -2.91319e-05 -0.000138097)
(-1.87517e-05 -2.96907e-05 -0.0001442)
(-1.83808e-05 -3.02125e-05 -0.000149628)
(-1.78682e-05 -3.07049e-05 -0.000155188)
(1.43261e-05 2.48009e-05 -0.000157879)
(1.20338e-05 2.11101e-05 -0.000158086)
(9.80122e-06 1.73768e-05 -0.00015828)
(7.6371e-06 1.3589e-05 -0.000158449)
(5.52767e-06 9.78068e-06 -0.00015859)
(3.45867e-06 5.96534e-06 -0.00015872)
(1.41324e-06 2.14916e-06 -0.000158836)
(-6.40582e-07 -1.663e-06 -0.000158932)
(-2.69021e-06 -5.49402e-06 -0.000159013)
(-4.74048e-06 -9.32428e-06 -0.000159083)
(-6.80794e-06 -1.31354e-05 -0.000159144)
(-8.92109e-06 -1.69216e-05 -0.000159193)
(-1.10922e-05 -2.07005e-05 -0.000159225)
(-1.33329e-05 -2.4465e-05 -0.000159231)
(-1.56486e-05 -2.82105e-05 -0.000159143)
(0 2.83062e-05 -0.000175709)
(0 2.39171e-05 -0.00017603)
(0 1.94731e-05 -0.000176319)
(0 1.49946e-05 -0.000176569)
(0 1.04961e-05 -0.000176785)
(0 5.98637e-06 -0.000176973)
(0 1.47066e-06 -0.000177134)
(0 -3.04955e-06 -0.000177275)
(0 -7.5782e-06 -0.000177397)
(0 -1.21157e-05 -0.000177499)
(0 -1.66592e-05 -0.000177578)
(0 -2.1207e-05 -0.000177634)
(0 -2.57579e-05 -0.000177664)
(0 -3.02998e-05 -0.000177662)
(0 -3.48246e-05 -0.000177502)
(0 2.2173e-05 -4.95743e-05)
(0 1.86044e-05 -4.94523e-05)
(0 1.51466e-05 -4.93415e-05)
(0 1.17988e-05 -4.92546e-05)
(0 8.53924e-06 -4.92008e-05)
(0 5.34451e-06 -4.91845e-05)
(0 2.19414e-06 -4.92081e-05)
(0 -9.36041e-07 -4.92734e-05)
(0 -4.07056e-06 -4.93808e-05)
(0 -7.23371e-06 -4.95296e-05)
(0 -1.04491e-05 -4.97186e-05)
(0 -1.37385e-05 -4.99459e-05)
(0 -1.71218e-05 -5.02082e-05)
(0 -2.06145e-05 -5.0501e-05)
(0 -2.4211e-05 -5.08126e-05)
(1.38756e-05 1.84012e-05 -6.52653e-05)
(1.16841e-05 1.54505e-05 -6.52487e-05)
(9.54103e-06 1.25783e-05 -6.52397e-05)
(7.43969e-06 9.77332e-06 -6.52414e-05)
(5.37256e-06 7.02209e-06 -6.52574e-05)
(3.33065e-06 4.31122e-06 -6.52903e-05)
(1.30449e-06 1.62585e-06 -6.53423e-05)
(-7.15366e-07 -1.04888e-06 -6.54144e-05)
(-2.73873e-06 -3.72811e-06 -6.55067e-05)
(-4.77575e-06 -6.4269e-06 -6.56188e-05)
(-6.83557e-06 -9.16044e-06 -6.5749e-05)
(-8.92855e-06 -1.1944e-05 -6.58951e-05)
(-1.10649e-05 -1.47936e-05 -6.60542e-05)
(-1.3256e-05 -1.77265e-05 -6.62227e-05)
(-1.55155e-05 -2.07638e-05 -6.64095e-05)
(-2.48642e-05 -6.74234e-07 -7.99223e-05)
(-2.48941e-05 -1.37187e-06 -7.99189e-05)
(-2.49688e-05 -1.95527e-06 -7.99406e-05)
(-2.50659e-05 -2.65931e-06 -7.99764e-05)
(-2.51624e-05 -3.29783e-06 -8.0005e-05)
(-2.5262e-05 -4.00906e-06 -8.00311e-05)
(-2.53572e-05 -4.66095e-06 -8.0038e-05)
(-2.54334e-05 -5.3146e-06 -8.00368e-05)
(-2.54916e-05 -6.09617e-06 -7.9993e-05)
(-2.55387e-05 -6.76623e-06 -7.99213e-05)
(-2.55622e-05 -7.42336e-06 -7.98341e-05)
(-2.55503e-05 -8.11734e-06 -7.97155e-05)
(-2.55156e-05 -8.89576e-06 -7.95385e-05)
(-2.54563e-05 -9.55612e-06 -7.93546e-05)
(-2.53637e-05 -1.02853e-05 -7.91106e-05)
(-2.52646e-05 -1.09359e-05 -7.88646e-05)
(-2.51159e-05 -1.16398e-05 -7.85486e-05)
(-2.49451e-05 -1.23388e-05 -7.82095e-05)
(-2.47709e-05 -1.29109e-05 -7.78945e-05)
(-2.45638e-05 -1.34884e-05 -7.75382e-05)
(-2.43298e-05 -1.40971e-05 -7.71492e-05)
(-2.40736e-05 -1.47017e-05 -7.67386e-05)
(-2.37954e-05 -1.52966e-05 -7.63006e-05)
(-2.35013e-05 -1.58763e-05 -7.58379e-05)
(-2.31912e-05 -1.64431e-05 -7.53519e-05)
(-2.2867e-05 -1.69946e-05 -7.48429e-05)
(-2.25294e-05 -1.75287e-05 -7.43158e-05)
(-2.21736e-05 -1.80453e-05 -7.37664e-05)
(-2.18079e-05 -1.85387e-05 -7.32032e-05)
(-2.14397e-05 -1.90209e-05 -7.26361e-05)
(-2.10561e-05 -1.94851e-05 -7.20569e-05)
(-2.0665e-05 -1.9934e-05 -7.1466e-05)
(-2.0264e-05 -2.03755e-05 -7.08675e-05)
(-1.98123e-05 -2.08403e-05 -7.01812e-05)
(-1.94129e-05 -2.12182e-05 -6.95875e-05)
(-1.90239e-05 -2.15757e-05 -6.90107e-05)
(-1.86012e-05 -2.19459e-05 -6.83945e-05)
(-1.81671e-05 -2.23079e-05 -6.7784e-05)
(-1.76741e-05 -2.27032e-05 -6.70815e-05)
(-1.7536e-05 -2.98301e-05 -0.000157027)
(-1.8447e-05 -2.97523e-05 -0.000155385)
(-1.88208e-05 -2.89503e-05 -0.000153719)
(-1.95976e-05 -2.86361e-05 -0.00015182)
(-1.99579e-05 -2.79898e-05 -0.000150225)
(-2.04363e-05 -2.72127e-05 -0.000148199)
(-2.11687e-05 -2.68126e-05 -0.000146179)
(-2.14101e-05 -2.59509e-05 -0.00014428)
(-2.21023e-05 -2.55037e-05 -0.000142196)
(-2.22911e-05 -2.4622e-05 -0.000140213)
(-2.29414e-05 -2.41259e-05 -0.000138068)
(-2.31506e-05 -2.33964e-05 -0.000136203)
(-2.35085e-05 -2.26863e-05 -0.000134082)
(-2.384e-05 -2.19562e-05 -0.000131935)
(-2.40667e-05 -2.10513e-05 -0.000129573)
(-2.4506e-05 -2.02716e-05 -0.000127144)
(-2.48657e-05 -1.96412e-05 -0.000125135)
(-2.49457e-05 -1.88534e-05 -0.000123159)
(-2.51471e-05 -1.80559e-05 -0.000120954)
(-2.53233e-05 -1.7243e-05 -0.000118755)
(-2.54794e-05 -1.64213e-05 -0.000116568)
(-2.56037e-05 -1.55936e-05 -0.000114399)
(-2.57133e-05 -1.47625e-05 -0.00011225)
(-2.57823e-05 -1.39234e-05 -0.000110145)
(-2.58465e-05 -1.30859e-05 -0.00010808)
(-2.58734e-05 -1.22232e-05 -0.000106034)
(-2.58685e-05 -1.1367e-05 -0.000104056)
(-2.58585e-05 -1.05233e-05 -0.000102148)
(-2.58405e-05 -9.66405e-06 -0.000100297)
(-2.57774e-05 -8.78169e-06 -9.85132e-05)
(-2.57037e-05 -7.90866e-06 -9.6829e-05)
(-2.56179e-05 -7.04777e-06 -9.52759e-05)
(-2.55346e-05 -6.18339e-06 -9.38374e-05)
(-2.53225e-05 -5.19552e-06 -9.24165e-05)
(-2.54473e-05 -4.35713e-06 -9.12631e-05)
(-2.51719e-05 -3.53903e-06 -9.03536e-05)
(-2.50674e-05 -2.67847e-06 -8.95573e-05)
(-2.50024e-05 -1.80958e-06 -8.89621e-05)
(-2.48809e-05 -8.21284e-07 -8.85377e-05)
(-2.48613e-05 0 -8.79322e-05)
(-2.50358e-05 0 -8.74937e-05)
(-2.4895e-05 0 -8.71024e-05)
(-2.47578e-05 0 -8.65739e-05)
(-2.49267e-05 0 -8.60894e-05)
(-2.47802e-05 0 -8.56609e-05)
(-2.46445e-05 0 -8.50877e-05)
(-2.46981e-05 0 -8.44961e-05)
(-2.47789e-05 0 -8.40337e-05)
(-2.4634e-05 0 -8.35654e-05)
(-2.4492e-05 0 -8.29416e-05)
(-2.46609e-05 0 -8.23776e-05)
(-2.44068e-05 0 -8.18093e-05)
(-2.45838e-05 0 -8.12297e-05)
(-2.42581e-05 0 -8.06114e-05)
(1.99486e-05 0 -7.90531e-05)
(1.68411e-05 0 -7.92133e-05)
(1.37656e-05 0 -7.93576e-05)
(1.0606e-05 0 -7.94822e-05)
(7.62379e-06 0 -7.95792e-05)
(4.66175e-06 0 -7.967e-05)
(1.7213e-06 0 -7.97471e-05)
(-1.0937e-06 0 -7.98164e-05)
(-4.04495e-06 0 -7.98868e-05)
(-7.01129e-06 0 -7.99395e-05)
(-1.00021e-05 0 -7.99755e-05)
(-1.30254e-05 0 -7.99979e-05)
(-1.60843e-05 0 -8.00067e-05)
(-1.91696e-05 0 -8.00007e-05)
(-2.22702e-05 0 -7.99787e-05)
(1.99679e-05 0 -8.75094e-05)
(1.68472e-05 0 -8.7663e-05)
(1.37383e-05 0 -8.77996e-05)
(1.06511e-05 0 -8.79161e-05)
(7.5858e-06 0 -8.80154e-05)
(4.54026e-06 0 -8.81015e-05)
(1.50992e-06 0 -8.81797e-05)
(-1.51543e-06 0 -8.82534e-05)
(-4.54723e-06 0 -8.83194e-05)
(-7.59379e-06 0 -8.83765e-05)
(-1.06629e-05 0 -8.84235e-05)
(-1.376e-05 0 -8.84539e-05)
(-1.6884e-05 0 -8.84587e-05)
(-2.00272e-05 0 -8.84268e-05)
(-2.3134e-05 0 -8.8344e-05)
(-2.41112e-05 0 -7.86811e-05)
(-2.43224e-05 0 -7.69846e-05)
(-2.4133e-05 0 -7.5494e-05)
(-2.39282e-05 0 -7.35683e-05)
(-2.40618e-05 0 -7.18104e-05)
(-2.37155e-05 0 -6.99786e-05)
(-2.38296e-05 0 -6.81425e-05)
(-2.35822e-05 0 -6.64589e-05)
(-2.34198e-05 0 -6.45309e-05)
(-2.31146e-05 0 -6.2345e-05)
(-2.30235e-05 0 -6.01491e-05)
(-2.29737e-05 0 -5.83677e-05)
(-2.25105e-05 0 -5.62945e-05)
(-2.25078e-05 0 -5.4239e-05)
(-2.21391e-05 0 -5.23478e-05)
(-2.16951e-05 0 -4.99649e-05)
(-2.14556e-05 0 -4.75876e-05)
(-2.12773e-05 0 -4.56642e-05)
(-2.08155e-05 0 -4.36771e-05)
(-2.03975e-05 0 -4.14495e-05)
(-1.99472e-05 0 -3.922e-05)
(-1.94641e-05 0 -3.69845e-05)
(-1.89448e-05 0 -3.47444e-05)
(-1.83862e-05 0 -3.25036e-05)
(-1.77852e-05 0 -3.02673e-05)
(-1.71392e-05 0 -2.80411e-05)
(-1.64457e-05 0 -2.58317e-05)
(-1.57048e-05 0 -2.36487e-05)
(-1.49136e-05 0 -2.14985e-05)
(-1.40585e-05 0 -1.93787e-05)
(-1.31355e-05 0 -1.72934e-05)
(-1.21474e-05 0 -1.52634e-05)
(-1.10873e-05 0 -1.32994e-05)
(-9.76076e-06 0 -1.12001e-05)
(-8.72335e-06 0 -9.46399e-06)
(-7.47197e-06 0 -7.85127e-06)
(-6.06923e-06 0 -6.16132e-06)
(-4.53237e-06 0 -4.51423e-06)
(-2.5382e-06 0 -2.62155e-06)
(-6.10873e-07 -3.93744e-08 -6.17889e-07)
(-5.51809e-07 -3.48507e-08 -5.5455e-07)
(-6.36401e-07 -5.46401e-08 -6.40129e-07)
(-5.45017e-07 -5.77857e-08 -5.46427e-07)
(-5.75699e-07 -7.63358e-08 -5.78906e-07)
(-5.7269e-07 -8.99295e-08 -5.76583e-07)
(-5.69874e-07 -1.04613e-07 -5.7639e-07)
(-6.13954e-07 -1.30021e-07 -6.23344e-07)
(-5.25839e-07 -1.23439e-07 -5.34366e-07)
(-6.00766e-07 -1.59005e-07 -6.14283e-07)
(-5.15214e-07 -1.47991e-07 -5.27444e-07)
(-5.87787e-07 -1.86743e-07 -6.06801e-07)
(-5.42502e-07 -1.85682e-07 -5.62641e-07)
(-4.9626e-07 -1.84167e-07 -5.15507e-07)
(-5.65731e-07 -2.26274e-07 -5.92973e-07)
(-5.21693e-07 -2.21956e-07 -5.51343e-07)
(-5.12679e-07 -2.34027e-07 -5.46094e-07)
(-5.04743e-07 -2.45148e-07 -5.41418e-07)
(-4.96825e-07 -2.56098e-07 -5.36843e-07)
(-4.88592e-07 -2.6671e-07 -5.32203e-07)
(-4.80211e-07 -2.7698e-07 -5.27407e-07)
(-4.71687e-07 -2.86938e-07 -5.22511e-07)
(-4.63021e-07 -2.96594e-07 -5.17501e-07)
(-4.54222e-07 -3.05941e-07 -5.12369e-07)
(-4.45308e-07 -3.14981e-07 -5.07115e-07)
(-4.36295e-07 -3.23718e-07 -5.01741e-07)
(-4.27198e-07 -3.32157e-07 -4.9625e-07)
(-4.18034e-07 -3.40306e-07 -4.90647e-07)
(-4.08819e-07 -3.48175e-07 -4.84938e-07)
(-3.99567e-07 -3.55776e-07 -4.79129e-07)
(-3.90285e-07 -3.63118e-07 -4.73228e-07)
(-3.80927e-07 -3.7021e-07 -4.67246e-07)
(-3.71069e-07 -3.77089e-07 -4.60949e-07)
(-3.4289e-07 -3.61488e-07 -4.19917e-07)
(-3.81063e-07 -4.21622e-07 -4.76183e-07)
(-3.44592e-07 -3.97592e-07 -4.43521e-07)
(-3.34805e-07 -4.029e-07 -4.3659e-07)
(-3.2397e-07 -4.07874e-07 -4.2911e-07)
(-3.01314e-07 -3.89174e-07 -3.90665e-07)
(-8.56765e-07 -1.13575e-06 -1.18782e-06)
(-1.47999e-06 -1.92913e-06 -2.19397e-06)
(-1.98837e-06 -2.58124e-06 -2.98529e-06)
(-2.47811e-06 -3.21064e-06 -3.72305e-06)
(-2.9136e-06 -3.77164e-06 -4.37758e-06)
(-3.39478e-06 -4.39473e-06 -5.11799e-06)
(-3.90861e-06 -5.06328e-06 -5.93432e-06)
(-4.37651e-06 -5.67214e-06 -6.71185e-06)
(-4.84311e-06 -6.2803e-06 -7.52277e-06)
(-5.3064e-06 -6.88719e-06 -8.37241e-06)
(-5.76652e-06 -7.49199e-06 -9.26591e-06)
(-6.22361e-06 -8.09546e-06 -1.02049e-05)
(-6.67968e-06 -8.6991e-06 -1.11918e-05)
(-7.13312e-06 -9.3017e-06 -1.22324e-05)
(-7.58518e-06 -9.90443e-06 -1.33311e-05)
(-8.0366e-06 -1.05065e-05 -1.449e-05)
(-8.48637e-06 -1.11078e-05 -1.5712e-05)
(-8.93317e-06 -1.17041e-05 -1.70006e-05)