/*--------------------------------*- C++ -*----------------------------------*\
| =========                 |                                                 |
| \\      /  F ield         | OpenFOAM: The Open Source CFD Toolbox           |
|  \\    /   O peration     | Version:  v2012                                 |
|   \\  /    A nd           | Website:  www.openfoam.com                      |
|    \\/     M anipulation  |                                                 |
\*---------------------------------------------------------------------------*/
FoamFile
{
    version     2.0;
    format      ascii;
    class       pointVectorField;
    location    "14";
    object      pointD;
}
// * * * * * * * * * * * * * * * * * * * * * * * * * * * * * * * * * * * * * //

dimensions      [0 1 0 0 0 0 0];


internalField   nonuniform List<vector> 
530
(
(0.0026897 0 -1.88614e-21)
(0.0034751 0 -7.58211e-22)
(0.00319009 -0.000232689 -4.44235e-21)
(0 -0.00216281 -4.66874e-21)
(0 -0.00115794 -5.49859e-20)
(0.0026897 0 -1.88614e-21)
(0.0034751 0 -7.58211e-22)
(0.00319009 -0.000232689 -4.44235e-21)
(0 -0.00216281 -4.66874e-21)
(0 -0.00115794 -5.49859e-20)
(0.00273285 0 0)
(0.00275148 0 0)
(0.00276263 0 0)
(0.00278044 0 0)
(0.0028086 0 0)
(0.00284751 0 0)
(0.0028946 0 0)
(0.00294744 0 0)
(0.00300932 0 0)
(0.0030776 0 0)
(0.00315047 0 0)
(0.00323763 0 0)
(0.00332507 0 0)
(0.00340893 0 0)
(0.00349058 -6.85402e-08 2.46363e-22)
(0.00347525 -1.12711e-06 2.91809e-21)
(0.00345035 -7.33337e-06 -3.6351e-22)
(0.00341747 -2.05056e-05 -4.11742e-21)
(0.00337834 -4.01143e-05 -2.31349e-23)
(0.00333752 -6.98913e-05 3.50514e-21)
(0.00330026 -0.000104541 -6.2184e-22)
(0.00326745 -0.000144896 -4.60495e-21)
(0.00323829 -0.000191066 -5.48325e-21)
(0.00310357 -0.000263469 -1.86182e-21)
(0.0030067 -0.000284261 -1.95844e-23)
(0.00289866 -0.000301078 -1.68774e-21)
(0.00277795 -0.00031421 -3.52148e-21)
(0.00265955 -0.000322153 -5.34422e-22)
(0.0025331 -0.000329259 7.1141e-22)
(0.0023923 -0.000338702 1.21789e-21)
(0.00222339 -0.000356331 2.50554e-21)
(0.00205097 -0.0003839 2.39457e-21)
(0.00184726 -0.000432387 5.10141e-21)
(0.00162291 -0.000505435 3.99449e-21)
(0.00145003 -0.000575566 0)
(0.00122114 -0.000693107 2.41803e-21)
(0.000942468 -0.00086876 -1.10369e-20)
(0.000705033 -0.00106268 -8.35452e-21)
(0.000460763 -0.00131844 2.39478e-21)
(0.000239813 -0.00160533 -4.02358e-21)
(9.81463e-05 -0.00186956 2.77402e-21)
(1.47248e-05 -0.00207589 -5.76813e-22)
(0 -0.00214659 0)
(0 -0.00207827 0)
(0 -0.00195039 0)
(0 -0.00169712 0)
(0.00101489 -0.0010688 -6.40498e-20)
(0.0015896 -0.00128534 -9.3351e-21)
(0.00188236 -0.00113073 -3.12074e-22)
(0.00216509 -0.000922325 4.21726e-21)
(0.00237926 -0.000668261 -3.03787e-21)
(0.00253668 -0.000429083 -4.80042e-21)
(0.00263065 -0.000229639 8.89945e-22)
(0.00273285 0 0)
(0.00275148 0 0)
(0.00276263 0 0)
(0.00278044 0 0)
(0.0028086 0 0)
(0.00284751 0 0)
(0.0028946 0 0)
(0.00294744 0 0)
(0.00300932 0 0)
(0.0030776 0 0)
(0.00315047 0 0)
(0.00323763 0 0)
(0.00332507 0 0)
(0.00340893 0 0)
(0.00349058 -6.85402e-08 2.46363e-22)
(0.00347525 -1.12711e-06 2.91809e-21)
(0.00345035 -7.33337e-06 -3.6351e-22)
(0.00341747 -2.05056e-05 -4.11742e-21)
(0.00337834 -4.01143e-05 -2.31349e-23)
(0.00333752 -6.98913e-05 3.50514e-21)
(0.00330026 -0.000104541 -6.2184e-22)
(0.00326745 -0.000144896 -4.60495e-21)
(0.00323829 -0.000191066 -5.48325e-21)
(0.00310357 -0.000263469 -1.86182e-21)
(0.0030067 -0.000284261 -1.95844e-23)
(0.00289866 -0.000301078 -1.68774e-21)
(0.00277795 -0.00031421 -3.52148e-21)
(0.00265955 -0.000322153 -5.34422e-22)
(0.0025331 -0.000329259 7.1141e-22)
(0.0023923 -0.000338702 1.21789e-21)
(0.00222339 -0.000356331 2.50554e-21)
(0.00205097 -0.0003839 2.39457e-21)
(0.00184726 -0.000432387 5.10141e-21)
(0.00162291 -0.000505435 3.99449e-21)
(0.00145003 -0.000575566 0)
(0.00122114 -0.000693107 2.41803e-21)
(0.000942468 -0.00086876 -1.10369e-20)
(0.000705033 -0.00106268 -8.35452e-21)
(0.000460763 -0.00131844 2.39478e-21)
(0.000239813 -0.00160533 -4.02358e-21)
(9.81463e-05 -0.00186956 2.77402e-21)
(1.47248e-05 -0.00207589 -5.76813e-22)
(0 -0.00214659 0)
(0 -0.00207827 0)
(0 -0.00195039 0)
(0 -0.00169712 0)
(0.00101489 -0.0010688 -6.40498e-20)
(0.0015896 -0.00128534 -9.3351e-21)
(0.00188236 -0.00113073 -3.12074e-22)
(0.00216509 -0.000922325 4.21726e-21)
(0.00237926 -0.000668261 -3.03787e-21)
(0.00253668 -0.000429083 -4.80042e-21)
(0.00263065 -0.000229639 8.89945e-22)
(0.00225912 -0.000150872 0)
(0.00284288 -8.9492e-05 0)
(0.00152383 -0.000622448 0)
(0.00238945 -0.000153734 0)
(0.00270467 -3.57331e-05 0)
(0.00299345 -0.000162612 0)
(0.00316983 -4.99391e-05 0)
(0.000861117 -0.0013515 0)
(0.0025198 -0.000115857 0)
(0.00177861 -0.000364113 0)
(0.00294424 -3.26566e-05 0)
(0.00262107 -0.000192488 0)
(0.00268868 -2.51531e-05 0)
(0.00211134 -0.000369892 0)
(0.00316882 -9.19015e-05 0)
(0.00203382 -0.000265345 0)
(0.00264312 -8.60772e-05 0)
(0.00247021 -8.89022e-05 0)
(0.00100272 -0.00100204 0)
(0.00141222 -0.000983575 0)
(0.0031004 -2.50997e-05 0)
(0.00277816 -0.000233835 0)
(0.00333977 -1.90355e-05 0)
(0.00306413 -0.000208358 0)
(0.00194807 -0.000325841 0)
(0.00133201 -0.000647568 0)
(0.00235528 -0.000243901 0)
(0.00287739 -1.41105e-05 0)
(0.00299191 -0.000110366 0)
(0.00300472 -5.76169e-05 0)
(0.000321335 -0.00186534 0)
(0.00219714 -0.000175744 0)
(0.00329042 -4.79369e-05 0)
(0.00316301 -0.000130409 0)
(0.00281149 -0.000158037 0)
(0.000782754 -0.00161346 0)
(0.00252453 -6.44389e-05 0)
(0.00280705 -1.11813e-05 0)
(0.00269441 -3.53079e-05 0)
(0.00265934 -9.67577e-05 0)
(0.0022905 -0.000179569 0)
(0.00240563 -0.000280692 0)
(0.00260591 -0.000132316 0)
(0.00281232 -4.09158e-05 0)
(0.00173228 -0.000399074 0)
(0.000602871 -0.00143201 0)
(0.00216996 -0.000273912 0)
(0.00321272 -1.97877e-05 0)
(0.00293164 -0.000240992 0)
(0.00190453 -0.000654091 0)
(0.00302333 -1.48063e-05 0)
(0.00264494 -0.00024984 0)
(0.00253871 -7.0457e-05 0)
(0.00168439 -0.000451575 0)
(0.00205022 -0.000238391 0)
(0.00114323 -0.00103549 0)
(0.00142463 -0.000558512 0)
(0.00120186 -0.00126758 0)
(0.00313225 -7.51236e-05 0)
(0.00273382 -0.00013259 0)
(0.00288025 -6.15354e-05 0)
(0.00276662 -9.07404e-06 0)
(0.00266896 -3.29562e-05 0)
(0.00171734 -0.000576966 0)
(0.00329973 -5.84258e-05 0)
(0.00103271 -0.000865968 0)
(0.00194715 -0.000276425 0)
(0.000311065 -0.00191457 0)
(0.00249267 -0.000272731 0)
(0.00296715 -8.51801e-06 0)
(0.00249939 -0.000104442 0)
(0.00221042 -0.000195729 0)
(0.00260711 -6.51197e-05 0)
(0.00219186 -0.000468579 0)
(0.00306008 -0.000124096 0)
(0.00318407 -0.000150782 0)
(0.0033751 -2.41305e-05 0)
(0.00128264 -0.000743428 0)
(0.00189033 -0.000346985 0)
(0.0023319 -0.000219579 0)
(0.00296521 -8.53681e-05 0)
(0.00340598 -8.99982e-06 0)
(0.00313691 -0.00021402 0)
(0.00270872 -0.000100749 0)
(0.00324824 -9.08027e-05 0)
(0.00271088 -4.10283e-05 0)
(0.00258159 -5.48168e-05 0)
(0.00228659 -0.000209031 0)
(0.00245827 -0.000175882 0)
(0.00285774 -5.80393e-06 0)
(0.00278884 -1.88063e-05 0)
(0.00301721 -3.82464e-05 0)
(0.00287267 -2.87597e-05 0)
(0.00309145 -4.49715e-05 0)
(0.00233266 -0.000124486 0)
(0.0023498 -0.000134422 0)
(0.00287814 -0.000119491 0)
(0.00307299 -0.000167033 0)
(0.00326873 -3.92364e-05 0)
(0.000702592 -0.00123851 0)
(0.000364539 -0.00168367 0)
(0.00179164 -0.000870643 0)
(0.00287111 -0.000188398 0)
(0.00309686 -9.09764e-06 0)
(0.00212763 -0.000276503 0)
(0.00271896 -0.000280685 0)
(0.0011912 -0.000711848 0)
(0.00271568 -0.000200315 0)
(0.00240809 -0.000107979 0)
(0.0032937 -1.22299e-05 0)
(0.00299506 -0.000252268 0)
(0.00278779 -6.49195e-05 0)
(0.00293618 -0.000144196 0)
(0.00110953 -0.00119423 0)
(0.000835525 -0.0012542 0)
(0.00176586 -0.000465818 0)
(0.000118389 -0.00206249 0)
(0.00224406 -0.000294413 0)
(0.00146267 -0.000776322 0)
(0.00257579 -0.000221008 0)
(0.00321729 -6.78914e-05 0)
(0.00216946 -0.000206678 0)
(0.00306728 -6.68144e-05 0)
(0.00123901 -0.00141939 0)
(0.000597307 -0.00163648 0)
(0.00155477 -0.000496738 0)
(0.00250912 -0.000213253 0)
(0.00316858 -3.41363e-05 0)
(0.00296693 -0.000199833 0)
(0.000649519 -0.00157633 0)
(0.00281034 -5.86856e-06 0)
(0.0025852 -6.89208e-05 0)
(0.00275421 -1.27896e-05 0)
(0.00268708 -9.53439e-05 0)
(0.00253952 -0.000152682 0)
(0.00201618 -0.000338029 0)
(0.00217344 -0.00017994 0)
(0.00291274 -4.43357e-06 0)
(0.00263011 -7.82083e-05 0)
(0.00091469 -0.00139135 0)
(0.00253415 -0.000123628 0)
(0.00336843 -3.30705e-05 0)
(0.00324673 -0.000110372 0)
(0.00283111 -0.000269691 0)
(0.00245031 -0.000117536 0)
(0.00316564 -1.12275e-05 0)
(0.000366763 -0.00183287 0)
(0.00314517 -0.000116998 0)
(0.000157231 -0.00203675 0)
(0.00242724 -0.000390613 0)
(0.00272571 -4.9338e-05 0)
(0.000587505 -0.00155646 0)
(0.00294655 -2.03858e-05 0)
(0.00275381 -1.5111e-05 0)
(0.00214823 -0.000241296 0)
(0.00258426 -5.11273e-05 0)
(0.00187207 -0.000326556 0)
(0.00279897 -2.72302e-05 0)
(0.00129589 -0.000815622 0)
(0.0024018 -9.9789e-05 0)
(0.0015515 -0.00049779 0)
(0.00271545 -2.19604e-05 0)
(0.00259776 -0.00016785 0)
(0.00271937 -4.4715e-05 0)
(0.00146999 -0.000586038 0)
(0.00165071 -0.000428279 0)
(0.0030846 -0.000141347 0)
(0.00317703 -0.000181751 0)
(0.00341605 -1.20051e-05 0)
(0.00152658 -0.00116416 0)
(0.00307745 -9.96161e-05 0)
(0.0032467 -2.87624e-05 0)
(0.00206006 -0.000233963 0)
(0.00233996 -0.000296882 0)
(0.0016856 -0.000718562 0)
(0.00269917 -0.000168374 0)
(0.00186829 -0.000323171 0)
(0.00294515 -4.9005e-05 0)
(0.00287526 -0.000225636 0)
(0.00287842 -4.41972e-05 0)
(0.00292972 -6.87489e-05 0)
(0.0024698 -7.95502e-05 0)
(0.00193665 -0.000413592 0)
(0.00204464 -0.000289806 0)
(0.000483343 -0.00144367 0)
(0.00208602 -0.000679293 0)
(0.00225869 -0.000323736 0)
(0.00263722 -4.14238e-05 0)
(0.000187556 -0.0019344 0)
(0.00078377 -0.00108347 0)
(0.0030053 -2.57058e-05 0)
(0.00303823 -6.38551e-06 0)
(0.00274282 -1.69212e-05 0)
(0.00172737 -0.000428696 0)
(0.00193828 -0.000281773 0)
(0.00260835 -0.000291919 0)
(0.0026258 -0.000108509 0)
(0.00304465 -8.7659e-05 0)
(0.00258997 -0.000224659 0)
(0.00191506 -0.000526392 0)
(0.00336458 -7.09861e-06 0)
(0.00306908 -0.000245955 0)
(0.00213436 -0.000326977 0)
(0.00321446 -5.68245e-05 0)
(0.00344007 -3.11345e-06 0)
(0.00315776 -0.000230132 0)
(0.00206143 -0.000226109 0)
(0.00225912 -0.000150872 0)
(0.00284288 -8.9492e-05 0)
(0.00152383 -0.000622448 0)
(0.00238945 -0.000153734 0)
(0.00270467 -3.57331e-05 0)
(0.00299345 -0.000162612 0)
(0.00316983 -4.99391e-05 0)
(0.000861117 -0.0013515 0)
(0.0025198 -0.000115857 0)
(0.00177861 -0.000364113 0)
(0.00294424 -3.26566e-05 0)
(0.00262107 -0.000192488 0)
(0.00268868 -2.51531e-05 0)
(0.00211134 -0.000369892 0)
(0.00316882 -9.19015e-05 0)
(0.00203382 -0.000265345 0)
(0.00264312 -8.60772e-05 0)
(0.00247021 -8.89022e-05 0)
(0.00100272 -0.00100204 0)
(0.00141222 -0.000983575 0)
(0.0031004 -2.50997e-05 0)
(0.00277816 -0.000233835 0)
(0.00333977 -1.90355e-05 0)
(0.00306413 -0.000208358 0)
(0.00194807 -0.000325841 0)
(0.00133201 -0.000647568 0)
(0.00235528 -0.000243901 0)
(0.00287739 -1.41105e-05 0)
(0.00299191 -0.000110366 0)
(0.00300472 -5.76169e-05 0)
(0.000321335 -0.00186534 0)
(0.00219714 -0.000175744 0)
(0.00329042 -4.79369e-05 0)
(0.00316301 -0.000130409 0)
(0.00281149 -0.000158037 0)
(0.000782754 -0.00161346 0)
(0.00252453 -6.44389e-05 0)
(0.00280705 -1.11813e-05 0)
(0.00269441 -3.53079e-05 0)
(0.00265934 -9.67577e-05 0)
(0.0022905 -0.000179569 0)
(0.00240563 -0.000280692 0)
(0.00260591 -0.000132316 0)
(0.00281232 -4.09158e-05 0)
(0.00173228 -0.000399074 0)
(0.000602871 -0.00143201 0)
(0.00216996 -0.000273912 0)
(0.00321272 -1.97877e-05 0)
(0.00293164 -0.000240992 0)
(0.00190453 -0.000654091 0)
(0.00302333 -1.48063e-05 0)
(0.00264494 -0.00024984 0)
(0.00253871 -7.0457e-05 0)
(0.00168439 -0.000451575 0)
(0.00205022 -0.000238391 0)
(0.00114323 -0.00103549 0)
(0.00142463 -0.000558512 0)
(0.00120186 -0.00126758 0)
(0.00313225 -7.51236e-05 0)
(0.00273382 -0.00013259 0)
(0.00288025 -6.15354e-05 0)
(0.00276662 -9.07404e-06 0)
(0.00266896 -3.29562e-05 0)
(0.00171734 -0.000576966 0)
(0.00329973 -5.84258e-05 0)
(0.00103271 -0.000865968 0)
(0.00194715 -0.000276425 0)
(0.000311065 -0.00191457 0)
(0.00249267 -0.000272731 0)
(0.00296715 -8.51801e-06 0)
(0.00249939 -0.000104442 0)
(0.00221042 -0.000195729 0)
(0.00260711 -6.51197e-05 0)
(0.00219186 -0.000468579 0)
(0.00306008 -0.000124096 0)
(0.00318407 -0.000150782 0)
(0.0033751 -2.41305e-05 0)
(0.00128264 -0.000743428 0)
(0.00189033 -0.000346985 0)
(0.0023319 -0.000219579 0)
(0.00296521 -8.53681e-05 0)
(0.00340598 -8.99982e-06 0)
(0.00313691 -0.00021402 0)
(0.00270872 -0.000100749 0)
(0.00324824 -9.08027e-05 0)
(0.00271088 -4.10283e-05 0)
(0.00258159 -5.48168e-05 0)
(0.00228659 -0.000209031 0)
(0.00245827 -0.000175882 0)
(0.00285774 -5.80393e-06 0)
(0.00278884 -1.88063e-05 0)
(0.00301721 -3.82464e-05 0)
(0.00287267 -2.87597e-05 0)
(0.00309145 -4.49715e-05 0)
(0.00233266 -0.000124486 0)
(0.0023498 -0.000134422 0)
(0.00287814 -0.000119491 0)
(0.00307299 -0.000167033 0)
(0.00326873 -3.92364e-05 0)
(0.000702592 -0.00123851 0)
(0.000364539 -0.00168367 0)
(0.00179164 -0.000870643 0)
(0.00287111 -0.000188398 0)
(0.00309686 -9.09764e-06 0)
(0.00212763 -0.000276503 0)
(0.00271896 -0.000280685 0)
(0.0011912 -0.000711848 0)
(0.00271568 -0.000200315 0)
(0.00240809 -0.000107979 0)
(0.0032937 -1.22299e-05 0)
(0.00299506 -0.000252268 0)
(0.00278779 -6.49195e-05 0)
(0.00293618 -0.000144196 0)
(0.00110953 -0.00119423 0)
(0.000835525 -0.0012542 0)
(0.00176586 -0.000465818 0)
(0.000118389 -0.00206249 0)
(0.00224406 -0.000294413 0)
(0.00146267 -0.000776322 0)
(0.00257579 -0.000221008 0)
(0.00321729 -6.78914e-05 0)
(0.00216946 -0.000206678 0)
(0.00306728 -6.68144e-05 0)
(0.00123901 -0.00141939 0)
(0.000597307 -0.00163648 0)
(0.00155477 -0.000496738 0)
(0.00250912 -0.000213253 0)
(0.00316858 -3.41363e-05 0)
(0.00296693 -0.000199833 0)
(0.000649519 -0.00157633 0)
(0.00281034 -5.86856e-06 0)
(0.0025852 -6.89208e-05 0)
(0.00275421 -1.27896e-05 0)
(0.00268708 -9.53439e-05 0)
(0.00253952 -0.000152682 0)
(0.00201618 -0.000338029 0)
(0.00217344 -0.00017994 0)
(0.00291274 -4.43357e-06 0)
(0.00263011 -7.82083e-05 0)
(0.00091469 -0.00139135 0)
(0.00253415 -0.000123628 0)
(0.00336843 -3.30705e-05 0)
(0.00324673 -0.000110372 0)
(0.00283111 -0.000269691 0)
(0.00245031 -0.000117536 0)
(0.00316564 -1.12275e-05 0)
(0.000366763 -0.00183287 0)
(0.00314517 -0.000116998 0)
(0.000157231 -0.00203675 0)
(0.00242724 -0.000390613 0)
(0.00272571 -4.9338e-05 0)
(0.000587505 -0.00155646 0)
(0.00294655 -2.03858e-05 0)
(0.00275381 -1.5111e-05 0)
(0.00214823 -0.000241296 0)
(0.00258426 -5.11273e-05 0)
(0.00187207 -0.000326556 0)
(0.00279897 -2.72302e-05 0)
(0.00129589 -0.000815622 0)
(0.0024018 -9.9789e-05 0)
(0.0015515 -0.00049779 0)
(0.00271545 -2.19604e-05 0)
(0.00259776 -0.00016785 0)
(0.00271937 -4.4715e-05 0)
(0.00146999 -0.000586038 0)
(0.00165071 -0.000428279 0)
(0.0030846 -0.000141347 0)
(0.00317703 -0.000181751 0)
(0.00341605 -1.20051e-05 0)
(0.00152658 -0.00116416 0)
(0.00307745 -9.96161e-05 0)
(0.0032467 -2.87624e-05 0)
(0.00206006 -0.000233963 0)
(0.00233996 -0.000296882 0)
(0.0016856 -0.000718562 0)
(0.00269917 -0.000168374 0)
(0.00186829 -0.000323171 0)
(0.00294515 -4.9005e-05 0)
(0.00287526 -0.000225636 0)
(0.00287842 -4.41972e-05 0)
(0.00292972 -6.87489e-05 0)
(0.0024698 -7.95502e-05 0)
(0.00193665 -0.000413592 0)
(0.00204464 -0.000289806 0)
(0.000483343 -0.00144367 0)
(0.00208602 -0.000679293 0)
(0.00225869 -0.000323736 0)
(0.00263722 -4.14238e-05 0)
(0.000187556 -0.0019344 0)
(0.00078377 -0.00108347 0)
(0.0030053 -2.57058e-05 0)
(0.00303823 -6.38551e-06 0)
(0.00274282 -1.69212e-05 0)
(0.00172737 -0.000428696 0)
(0.00193828 -0.000281773 0)
(0.00260835 -0.000291919 0)
(0.0026258 -0.000108509 0)
(0.00304465 -8.7659e-05 0)
(0.00258997 -0.000224659 0)
(0.00191506 -0.000526392 0)
(0.00336458 -7.09861e-06 0)
(0.00306908 -0.000245955 0)
(0.00213436 -0.000326977 0)
(0.00321446 -5.68245e-05 0)
(0.00344007 -3.11345e-06 0)
(0.00315776 -0.000230132 0)
(0.00206143 -0.000226109 0)
)
;

boundaryField
{
    back
    {
        type            empty;
    }
    front
    {
        type            empty;
    }
    down
    {
        type            symmetry;
    }
    right
    {
        type            calculated;
    }
    up
    {
        type            calculated;
    }
    left
    {
        type            symmetry;
    }
    hole
    {
        type            calculated;
    }
}


// ************************************************************************* //
