/*--------------------------------*- C++ -*----------------------------------*\
| =========                 |                                                 |
| \\      /  F ield         | OpenFOAM: The Open Source CFD Toolbox           |
|  \\    /   O peration     | Version:  v2012                                 |
|   \\  /    A nd           | Website:  www.openfoam.com                      |
|    \\/     M anipulation  |                                                 |
\*---------------------------------------------------------------------------*/
FoamFile
{
    version     2.0;
    format      ascii;
    class       volVectorField;
    location    "2";
    object      D;
}
// * * * * * * * * * * * * * * * * * * * * * * * * * * * * * * * * * * * * * //

dimensions      [0 1 0 0 0 0 0];


internalField   nonuniform List<vector> 
4000
(
(1.44896e-05 -0.000390501 0)
(1.3749e-05 -0.000397844 0)
(1.309e-05 -0.00040398 0)
(1.2522e-05 -0.000409748 0)
(1.20119e-05 -0.000414704 0)
(1.15764e-05 -0.000419358 0)
(1.1183e-05 -0.000423468 0)
(1.08438e-05 -0.000427336 0)
(1.05389e-05 -0.00043084 0)
(1.02724e-05 -0.000434154 0)
(1.00339e-05 -0.000437225 0)
(9.82322e-06 -0.000440151 0)
(9.63465e-06 -0.000442915 0)
(9.46629e-06 -0.000445572 0)
(9.31491e-06 -0.000448123 0)
(9.17781e-06 -0.000450596 0)
(9.0535e-06 -0.000453001 0)
(8.93798e-06 -0.00045535 0)
(8.83261e-06 -0.000457657 0)
(8.72955e-06 -0.000459926 0)
(4.34776e-05 -0.000389396 0)
(4.12601e-05 -0.000396588 0)
(3.93049e-05 -0.000402591 0)
(3.75969e-05 -0.000408243 0)
(3.60932e-05 -0.000413093 0)
(3.47704e-05 -0.00041765 0)
(3.36059e-05 -0.00042168 0)
(3.25763e-05 -0.000425469 0)
(3.16686e-05 -0.000428906 0)
(3.08632e-05 -0.000432154 0)
(3.01511e-05 -0.000435166 0)
(2.95168e-05 -0.000438035 0)
(2.8953e-05 -0.000440746 0)
(2.84479e-05 -0.000443351 0)
(2.79955e-05 -0.000445851 0)
(2.75852e-05 -0.000448275 0)
(2.72141e-05 -0.000450631 0)
(2.68694e-05 -0.000452932 0)
(2.65554e-05 -0.000455192 0)
(2.62487e-05 -0.000457411 0)
(7.23472e-05 -0.000387178 0)
(6.86957e-05 -0.000394068 0)
(6.54573e-05 -0.000399813 0)
(6.2652e-05 -0.000405235 0)
(6.01382e-05 -0.000409881 0)
(5.79892e-05 -0.000414265 0)
(5.60546e-05 -0.000418127 0)
(5.43719e-05 -0.000421772 0)
(5.28705e-05 -0.000425069 0)
(5.15473e-05 -0.000428193 0)
(5.03711e-05 -0.000431083 0)
(4.93262e-05 -0.000433841 0)
(4.83957e-05 -0.000436444 0)
(4.75629e-05 -0.000438946 0)
(4.68166e-05 -0.000441347 0)
(4.61406e-05 -0.000443673 0)
(4.55295e-05 -0.000445934 0)
(4.49627e-05 -0.000448139 0)
(4.44469e-05 -0.000450306 0)
(4.39449e-05 -0.000452429 0)
(0.000101109 -0.000383911 0)
(9.6078e-05 -0.000390363 0)
(9.16358e-05 -0.000395721 0)
(8.77533e-05 -0.000400813 0)
(8.43286e-05 -0.000405148 0)
(8.13195e-05 -0.000409239 0)
(7.86633e-05 -0.000412877 0)
(7.63179e-05 -0.000416288 0)
(7.42461e-05 -0.000419394 0)
(7.24095e-05 -0.000422324 0)
(7.07837e-05 -0.000425046 0)
(6.9337e-05 -0.000427636 0)
(6.8051e-05 -0.000430083 0)
(6.69002e-05 -0.000432434 0)
(6.58704e-05 -0.000434689 0)
(6.49388e-05 -0.000436872 0)
(6.40977e-05 -0.000438994 0)
(6.33197e-05 -0.00044106 0)
(6.26128e-05 -0.00044309 0)
(6.19283e-05 -0.000445073 0)
(0.000129657 -0.000379584 0)
(0.000123325 -0.000385456 0)
(0.00011771 -0.00039032 0)
(0.000112835 -0.000394962 0)
(0.000108372 -0.000398894 0)
(0.000104725 -0.000402686 0)
(0.000101356 -0.000405987 0)
(9.8421e-05 -0.000409131 0)
(9.58074e-05 -0.000411961 0)
(9.34899e-05 -0.000414655 0)
(9.14389e-05 -0.000417144 0)
(8.96106e-05 -0.000419522 0)
(8.7988e-05 -0.000421764 0)
(8.6535e-05 -0.00042392 0)
(8.5237e-05 -0.000425987 0)
(8.40639e-05 -0.000427986 0)
(8.30069e-05 -0.000429929 0)
(8.20323e-05 -0.000431816 0)
(8.11483e-05 -0.000433673 0)
(8.0298e-05 -0.000435477 0)
(0.000157964 -0.000374267 0)
(0.000150446 -0.000379442 0)
(0.000143793 -0.00038373 0)
(0.000137972 -0.000387826 0)
(0.000132823 -0.000391337 0)
(0.00012828 -0.000394682 0)
(0.000124287 -0.000397606 0)
(0.000120744 -0.000400406 0)
(0.000117621 -0.000402908 0)
(0.000114845 -0.000405309 0)
(0.000112391 -0.000407516 0)
(0.000110206 -0.000409636 0)
(0.000108266 -0.00041163 0)
(0.000106532 -0.000413551 0)
(0.000104983 -0.000415391 0)
(0.000103587 -0.000417169 0)
(0.000102331 -0.000418898 0)
(0.000101178 -0.000420572 0)
(0.000100134 -0.000422222 0)
(9.9138e-05 -0.000423814 0)
(0.000185955 -0.000368071 0)
(0.000177364 -0.000372457 0)
(0.000169777 -0.00037605 0)
(0.000163086 -0.000379526 0)
(0.00015734 -0.000382519 0)
(0.000151983 -0.000385318 0)
(0.000147409 -0.000387813 0)
(0.00014331 -0.000390185 0)
(0.000139712 -0.000392333 0)
(0.000136516 -0.000394386 0)
(0.000133687 -0.000396284 0)
(0.000131173 -0.000398104 0)
(0.000128939 -0.000399821 0)
(0.000126947 -0.000401473 0)
(0.000125168 -0.000403058 0)
(0.00012357 -0.000404586 0)
(0.000122133 -0.000406074 0)
(0.000120821 -0.000407508 0)
(0.000119635 -0.000408926 0)
(0.000118515 -0.000410282 0)
(0.000213593 -0.000360997 0)
(0.000204048 -0.000364505 0)
(0.000195589 -0.000367318 0)
(0.000188155 -0.000370124 0)
(0.000181593 -0.000372458 0)
(0.000175788 -0.000374728 0)
(0.000170657 -0.000376744 0)
(0.000166111 -0.000378663 0)
(0.000162087 -0.000380414 0)
(0.000158518 -0.000382083 0)
(0.000155354 -0.000383637 0)
(0.000152543 -0.000385125 0)
(0.000150046 -0.000386535 0)
(0.00014782 -0.000387889 0)
(0.000145835 -0.000389193 0)
(0.000144055 -0.000390446 0)
(0.000142459 -0.000391671 0)
(0.00014101 -0.000392843 0)
(0.000139702 -0.00039401 0)
(0.00013848 -0.00039511 0)
(0.000240842 -0.000353119 0)
(0.000230491 -0.000355671 0)
(0.000221314 -0.00035767 0)
(0.000213222 -0.000359718 0)
(0.000206101 -0.000361423 0)
(0.000199739 -0.000363108 0)
(0.000194154 -0.000364581 0)
(0.000189171 -0.000366019 0)
(0.000184779 -0.000367318 0)
(0.000180869 -0.00036858 0)
(0.00017741 -0.00036975 0)
(0.000174333 -0.000370883 0)
(0.000171602 -0.000371957 0)
(0.00016917 -0.000372993 0)
(0.000167004 -0.000373994 0)
(0.000165067 -0.000374955 0)
(0.000163334 -0.000375901 0)
(0.000161768 -0.000376797 0)
(0.000160359 -0.0003777 0)
(0.000159058 -0.000378533 0)
(0.00026761 -0.000344534 0)
(0.000256601 -0.000346089 0)
(0.00024681 -0.000347212 0)
(0.000238188 -0.000348479 0)
(0.000230547 -0.00034948 0)
(0.000223779 -0.000350541 0)
(0.000217785 -0.000351451 0)
(0.000212463 -0.000352373 0)
(0.000207748 -0.000353207 0)
(0.00020356 -0.000354034 0)
(0.000199845 -0.000354807 0)
(0.000196544 -0.000355565 0)
(0.000193614 -0.00035629 0)
(0.000191007 -0.000356994 0)
(0.000188687 -0.000357682 0)
(0.000186619 -0.00035834 0)
(0.000184771 -0.000358997 0)
(0.000183112 -0.000359609 0)
(0.000181622 -0.000360242 0)
(0.000180263 -0.000360803 0)
(0.000293902 -0.000335303 0)
(0.000282386 -0.000335827 0)
(0.000272127 -0.000336056 0)
(0.000263076 -0.00033651 0)
(0.000255047 -0.000336801 0)
(0.000247917 -0.000337213 0)
(0.000241604 -0.000337538 0)
(0.000235986 -0.000337928 0)
(0.00023101 -0.000338274 0)
(0.000226583 -0.000338652 0)
(0.000222659 -0.00033901 0)
(0.000219169 -0.000339381 0)
(0.000216073 -0.000339745 0)
(0.000213321 -0.000340108 0)
(0.000210875 -0.000340473 0)
(0.0002087 -0.000340822 0)
(0.00020676 -0.000341186 0)
(0.00020503 -0.000341513 0)
(0.000203478 -0.000341874 0)
(0.000202081 -0.000342165 0)
(0.000319627 -0.000325514 0)
(0.000307759 -0.000324998 0)
(0.00029716 -0.000324316 0)
(0.000287801 -0.000323946 0)
(0.000279476 -0.000323506 0)
(0.000272087 -0.000323254 0)
(0.000265525 -0.000322985 0)
(0.000259689 -0.00032283 0)
(0.000254509 -0.000322681 0)
(0.000249901 -0.000322603 0)
(0.000245812 -0.000322542 0)
(0.000242177 -0.000322521 0)
(0.000238951 -0.000322522 0)
(0.000236088 -0.000322541 0)
(0.000233544 -0.000322585 0)
(0.000231289 -0.000322627 0)
(0.000229281 -0.000322701 0)
(0.000227501 -0.000322747 0)
(0.000225908 -0.000322842 0)
(0.000224493 -0.000322871 0)
(0.000344785 -0.00031524 0)
(0.000332712 -0.000313688 0)
(0.000321907 -0.000312102 0)
(0.000312351 -0.000310909 0)
(0.000303837 -0.000309743 0)
(0.000296268 -0.000308826 0)
(0.000289538 -0.000307961 0)
(0.000283546 -0.00030726 0)
(0.000278222 -0.000306615 0)
(0.000273483 -0.00030608 0)
(0.000269275 -0.000305598 0)
(0.000265535 -0.000305187 0)
(0.000262215 -0.000304825 0)
(0.000259271 -0.000304504 0)
(0.000256658 -0.00030423 0)
(0.000254348 -0.000303969 0)
(0.000252293 -0.000303759 0)
(0.000250484 -0.000303531 0)
(0.000248866 -0.000303368 0)
(0.00024745 -0.000303145 0)
(0.000369304 -0.000304552 0)
(0.000357174 -0.000301989 0)
(0.000346291 -0.000299515 0)
(0.000336654 -0.000297513 0)
(0.000328047 -0.000295629 0)
(0.00032039 -0.000294057 0)
(0.000313568 -0.000292605 0)
(0.00030749 -0.000291364 0)
(0.000302082 -0.000290231 0)
(0.000297267 -0.000289245 0)
(0.000292987 -0.000288351 0)
(0.000289184 -0.000287557 0)
(0.000285807 -0.000286842 0)
(0.000282816 -0.000286191 0)
(0.000280162 -0.000285609 0)
(0.000277823 -0.000285058 0)
(0.000275746 -0.000284576 0)
(0.000273929 -0.000284089 0)
(0.000272306 -0.000283683 0)
(0.000270906 -0.000283226 0)
(0.000393174 -0.000293525 0)
(0.000381124 -0.000289988 0)
(0.000370286 -0.000286659 0)
(0.000360674 -0.000283874 0)
(0.000352072 -0.000281297 0)
(0.00034441 -0.000279089 0)
(0.000337572 -0.000277067 0)
(0.000331474 -0.000275302 0)
(0.000326041 -0.000273696 0)
(0.0003212 -0.000272272 0)
(0.000316895 -0.000270979 0)
(0.000313069 -0.000269815 0)
(0.000309671 -0.000268758 0)
(0.000306664 -0.000267788 0)
(0.000303998 -0.000266911 0)
(0.000301654 -0.000266083 0)
(0.000299574 -0.000265342 0)
(0.000297767 -0.00026461 0)
(0.000296152 -0.000263975 0)
(0.00029478 -0.000263299 0)
(0.000416343 -0.000282214 0)
(0.000404504 -0.000277755 0)
(0.000393827 -0.000273615 0)
(0.000384345 -0.000270085 0)
(0.00037584 -0.000266846 0)
(0.000368255 -0.000264031 0)
(0.000361473 -0.000261464 0)
(0.00035542 -0.000259199 0)
(0.000350019 -0.000257139 0)
(0.000345205 -0.000255298 0)
(0.000340919 -0.000253624 0)
(0.00033711 -0.000252108 0)
(0.000333726 -0.000250728 0)
(0.000330737 -0.00024946 0)
(0.000328084 -0.000248306 0)
(0.000325762 -0.000247221 0)
(0.000323701 -0.000246241 0)
(0.000321925 -0.000245287 0)
(0.000320338 -0.000244444 0)
(0.000319012 -0.000243575 0)
(0.000438794 -0.000270689 0)
(0.000427284 -0.000265373 0)
(0.000416876 -0.000260476 0)
(0.000407619 -0.000256251 0)
(0.000399297 -0.000252393 0)
(0.000391866 -0.000249008 0)
(0.00038521 -0.000245931 0)
(0.000379262 -0.000243196 0)
(0.000373949 -0.000240712 0)
(0.00036921 -0.000238481 0)
(0.000364987 -0.00023645 0)
(0.000361234 -0.000234607 0)
(0.000357899 -0.000232925 0)
(0.000354955 -0.00023138 0)
(0.000352344 -0.000229968 0)
(0.000350064 -0.000228647 0)
(0.000348042 -0.000227447 0)
(0.00034631 -0.000226287 0)
(0.000344762 -0.000225254 0)
(0.000343487 -0.000224206 0)
(0.000460492 -0.00025899 0)
(0.000449421 -0.000252891 0)
(0.000439379 -0.000247301 0)
(0.000430437 -0.000242436 0)
(0.000422377 -0.000238008 0)
(0.000415173 -0.000234097 0)
(0.000408707 -0.000230547 0)
(0.000402924 -0.000227378 0)
(0.00039775 -0.0002245 0)
(0.000393133 -0.000221907 0)
(0.000389014 -0.000219546 0)
(0.000385355 -0.000217401 0)
(0.0003821 -0.00021544 0)
(0.000379234 -0.000213642 0)
(0.000376687 -0.000211994 0)
(0.000374479 -0.000210463 0)
(0.000372512 -0.000209061 0)
(0.00037085 -0.000207728 0)
(0.000369357 -0.000206527 0)
(0.000368157 -0.000205337 0)
(0.000481412 -0.00024718 0)
(0.000470876 -0.000240381 0)
(0.000461288 -0.000234172 0)
(0.00045274 -0.000228732 0)
(0.000445015 -0.000223793 0)
(0.000438102 -0.00021941 0)
(0.000431885 -0.000215436 0)
(0.000426319 -0.000211878 0)
(0.000421332 -0.000208647 0)
(0.000416877 -0.000205733 0)
(0.000412901 -0.000203078 0)
(0.000409365 -0.000200668 0)
(0.000406223 -0.000198461 0)
(0.000403451 -0.000196445 0)
(0.000400999 -0.00019459 0)
(0.000398864 -0.00019288 0)
(0.000396978 -0.00019131 0)
(0.000395382 -0.000189827 0)
(0.000393963 -0.000188486 0)
(0.000392822 -0.000187171 0)
(0.000501536 -0.000235281 0)
(0.00049162 -0.000227871 0)
(0.000482564 -0.000221121 0)
(0.000474483 -0.000215177 0)
(0.000467158 -0.000209786 0)
(0.000460598 -0.000204985 0)
(0.000454684 -0.000200636 0)
(0.000449387 -0.00019673 0)
(0.000444632 -0.000193184 0)
(0.000440384 -0.000189981 0)
(0.000436588 -0.000187061 0)
(0.000433216 -0.00018441 0)
(0.000430216 -0.000181979 0)
(0.00042758 -0.000179766 0)
(0.00042524 -0.000177715 0)
(0.00042324 -0.000175862 0)
(0.000421433 -0.000174098 0)
(0.000419948 -0.000172503 0)
(0.000418618 -0.000171003 0)
(0.00041759 -0.000169634 0)
(0.000520831 -0.000223347 0)
(0.000511607 -0.000215422 0)
(0.000503149 -0.000208216 0)
(0.000495594 -0.000201845 0)
(0.000488725 -0.000196074 0)
(0.000482566 -0.00019092 0)
(0.000477001 -0.000186253 0)
(0.00047201 -0.000182056 0)
(0.000467524 -0.000178247 0)
(0.00046351 -0.000174804 0)
(0.000459922 -0.000171666 0)
(0.000456725 -0.000168823 0)
(0.000453889 -0.000166212 0)
(0.000451379 -0.000163847 0)
(0.000449179 -0.000161648 0)
(0.00044724 -0.000159675 0)
(0.000445588 -0.000157808 0)
(0.000444115 -0.000156153 0)
(0.00044297 -0.000154547 0)
(0.000441842 -0.000153165 0)
(0.000539294 -0.000211389 0)
(0.000530821 -0.000203049 0)
(0.000523017 -0.000195475 0)
(0.000516042 -0.000188755 0)
(0.000509679 -0.000182673 0)
(0.00050397 -0.000177227 0)
(0.000498799 -0.000172298 0)
(0.000494159 -0.000167857 0)
(0.000489983 -0.000163828 0)
(0.000486245 -0.000160182 0)
(0.000482905 -0.000156859 0)
(0.000479928 -0.000153845 0)
(0.000477296 -0.000151081 0)
(0.000474956 -0.000148569 0)
(0.000472933 -0.000146249 0)
(0.000471112 -0.000144127 0)
(0.000469637 -0.000142175 0)
(0.000468259 -0.000140393 0)
(0.000467267 -0.000138708 0)
(0.000466185 -0.000137157 0)
(0.000556887 -0.000199447 0)
(0.000549212 -0.000190794 0)
(0.000542106 -0.000182943 0)
(0.00053575 -0.000175959 0)
(0.000529929 -0.00016964 0)
(0.000524703 -0.000163971 0)
(0.000519956 -0.00015884 0)
(0.000515694 -0.000154213 0)
(0.000511852 -0.000150013 0)
(0.000508409 -0.000146212 0)
(0.000505336 -0.000142745 0)
(0.000502591 -0.000139603 0)
(0.000500175 -0.000136716 0)
(0.000498021 -0.000134104 0)
(0.000496177 -0.000131675 0)
(0.000494516 -0.000129488 0)
(0.000493178 -0.000127428 0)
(0.000491914 -0.00012557 0)
(0.000491065 -0.000123811 0)
(0.000490061 -0.000122182 0)
(0.00057361 -0.000187531 0)
(0.000566767 -0.000178669 0)
(0.000560392 -0.000170634 0)
(0.000554689 -0.000163469 0)
(0.000549442 -0.000156988 0)
(0.000544729 -0.000151165 0)
(0.000540435 -0.000145896 0)
(0.000536578 -0.000141136 0)
(0.000533095 -0.000136819 0)
(0.000529974 -0.000132906 0)
(0.000527187 -0.000129341 0)
(0.000524697 -0.000126104 0)
(0.000522513 -0.000123137 0)
(0.00052056 -0.000120443 0)
(0.000518905 -0.000117951 0)
(0.000517403 -0.000115692 0)
(0.000516228 -0.000113584 0)
(0.000515085 -0.000111668 0)
(0.000514371 -0.00010988 0)
(0.000513465 -0.000108202 0)
(0.00058943 -0.000175662 0)
(0.000583442 -0.000166696 0)
(0.000577819 -0.000158571 0)
(0.000572789 -0.000151311 0)
(0.000568136 -0.000144745 0)
(0.000563955 -0.000138837 0)
(0.000560131 -0.000133492 0)
(0.000556695 -0.000128659 0)
(0.000553586 -0.000124274 0)
(0.0005508 -0.000120299 0)
(0.000548312 -0.000116677 0)
(0.00054609 -0.000113389 0)
(0.000544146 -0.000110376 0)
(0.000542409 -0.000107641 0)
(0.000540948 -0.000105114 0)
(0.00053962 -0.000102825 0)
(0.000538601 -0.000100693 0)
(0.0005376 -9.87528e-05 0)
(0.000537013 -9.69615e-05 0)
(0.000536229 -9.52654e-05 0)
(0.000604345 -0.000163852 0)
(0.000599222 -0.000154886 0)
(0.000594362 -0.000146763 0)
(0.000590019 -0.000139493 0)
(0.000585971 -0.00013292 0)
(0.000582335 -0.000126997 0)
(0.000578993 -0.000121639 0)
(0.000575991 -0.000116791 0)
(0.000573268 -0.000112393 0)
(0.000570828 -0.000108403 0)
(0.000568649 -0.000104771 0)
(0.000566704 -0.00010147 0)
(0.000565009 -9.845e-05 0)
(0.000563495 -9.57052e-05 0)
(0.000562235 -9.31783e-05 0)
(0.000561088 -9.08823e-05 0)
(0.000560231 -8.87595e-05 0)
(0.00055938 -8.68175e-05 0)
(0.000558922 -8.50464e-05 0)
(0.000558272 -8.33548e-05 0)
(0.000618329 -0.000152109 0)
(0.00061407 -0.000143245 0)
(0.000609976 -0.000135217 0)
(0.00060632 -0.000128021 0)
(0.000602881 -0.000121516 0)
(0.000599793 -0.000115648 0)
(0.000596938 -0.00011034 0)
(0.000594374 -0.000105533 0)
(0.000592041 -0.000101175 0)
(0.000589953 -9.72177e-05 0)
(0.000588088 -9.36172e-05 0)
(0.000586426 -9.03445e-05 0)
(0.000584983 -8.73535e-05 0)
(0.000583698 -8.46342e-05 0)
(0.000582642 -8.21366e-05 0)
(0.000581683 -7.98648e-05 0)
(0.000580989 -7.77745e-05 0)
(0.000580296 -7.58561e-05 0)
(0.000579965 -7.41235e-05 0)
(0.000579458 -7.24559e-05 0)
(0.000631377 -0.00014044 0)
(0.00062797 -0.000131778 0)
(0.000624632 -0.000123934 0)
(0.000621657 -0.000116895 0)
(0.000618822 -0.000110533 0)
(0.00061628 -0.000104788 0)
(0.00061391 -9.9592e-05 0)
(0.000611783 -9.48834e-05 0)
(0.00060984 -9.06147e-05 0)
(0.000608103 -8.67378e-05 0)
(0.000606552 -8.32122e-05 0)
(0.000605175 -8.00062e-05 0)
(0.000603986 -7.70798e-05 0)
(0.000602932 -7.44175e-05 0)
(0.00060208 -7.19785e-05 0)
(0.000601312 -6.97566e-05 0)
(0.000600782 -6.77223e-05 0)
(0.000600251 -6.58489e-05 0)
(0.000600047 -6.41721e-05 0)
(0.000599686 -6.25464e-05 0)
(0.000643471 -0.000128847 0)
(0.000640895 -0.000120483 0)
(0.000638294 -0.000112911 0)
(0.000635984 -0.000106108 0)
(0.000633741 -9.9959e-05 0)
(0.000631732 -9.44035e-05 0)
(0.000629838 -8.93784e-05 0)
(0.000628141 -8.48225e-05 0)
(0.000626582 -8.0693e-05 0)
(0.000625193 -7.69413e-05 0)
(0.000623952 -7.35311e-05 0)
(0.000622856 -7.04294e-05 0)
(0.000621918 -6.76011e-05 0)
(0.000621094 -6.50271e-05 0)
(0.000620445 -6.2674e-05 0)
(0.000619866 -6.05279e-05 0)
(0.0006195 -5.85713e-05 0)
(0.000619129 -5.67638e-05 0)
(0.000619052 -5.51586e-05 0)
(0.000618836 -5.3592e-05 0)
(0.000654603 -0.000117333 0)
(0.000652824 -0.000109359 0)
(0.000650933 -0.00010214 0)
(0.000649265 -9.56501e-05 0)
(0.000647592 -8.97838e-05 0)
(0.0006461 -8.44803e-05 0)
(0.000644667 -7.96835e-05 0)
(0.000643387 -7.53327e-05 0)
(0.000642201 -7.13897e-05 0)
(0.000641149 -6.78066e-05 0)
(0.00064021 -6.45509e-05 0)
(0.000639388 -6.15893e-05 0)
(0.000638695 -5.8891e-05 0)
(0.000638096 -5.64347e-05 0)
(0.000637645 -5.41927e-05 0)
(0.000637253 -5.21467e-05 0)
(0.000637045 -5.0287e-05 0)
(0.000636834 -4.85653e-05 0)
(0.000636879 -4.70462e-05 0)
(0.000636807 -4.55547e-05 0)
(0.00066476 -0.000105894 0)
(0.000663738 -9.83965e-05 0)
(0.000662521 -9.16105e-05 0)
(0.000661462 -8.55042e-05 0)
(0.000660333 -7.99853e-05 0)
(0.000659333 -7.49931e-05 0)
(0.000658339 -7.0478e-05 0)
(0.000657458 -6.63813e-05 0)
(0.000656628 -6.26691e-05 0)
(0.000655899 -5.9295e-05 0)
(0.00065525 -5.62302e-05 0)
(0.000654692 -5.34421e-05 0)
(0.000654234 -5.09036e-05 0)
(0.000653851 -4.85927e-05 0)
(0.000653592 -4.64866e-05 0)
(0.000653379 -4.45631e-05 0)
(0.000653325 -4.2821e-05 0)
(0.000653267 -4.12032e-05 0)
(0.000653431 -3.97863e-05 0)
(0.000653499 -3.83844e-05 0)
(0.000673932 -9.45298e-05 0)
(0.000673617 -8.75895e-05 0)
(0.00067303 -8.13088e-05 0)
(0.000672541 -7.56537e-05 0)
(0.000671922 -7.05428e-05 0)
(0.000671383 -6.59177e-05 0)
(0.000670802 -6.17349e-05 0)
(0.000670295 -5.79386e-05 0)
(0.0006698 -5.4499e-05 0)
(0.000669375 -5.13723e-05 0)
(0.000668999 -4.85332e-05 0)
(0.000668689 -4.59502e-05 0)
(0.000668454 -4.35996e-05 0)
(0.000668276 -4.14602e-05 0)
(0.000668196 -3.9511e-05 0)
(0.000668156 -3.7733e-05 0)
(0.000668244 -3.61204e-05 0)
(0.000668335 -3.46279e-05 0)
(0.000668607 -3.33168e-05 0)
(0.000668804 -3.2016e-05 0)
(0.00068211 -8.32335e-05 0)
(0.000682445 -7.6925e-05 0)
(0.000682437 -7.12167e-05 0)
(0.000682474 -6.60742e-05 0)
(0.000682323 -6.14269e-05 0)
(0.00068221 -5.72197e-05 0)
(0.000682009 -5.34148e-05 0)
(0.000681848 -4.99607e-05 0)
(0.000681662 -4.68313e-05 0)
(0.00068152 -4.39863e-05 0)
(0.000681397 -4.1403e-05 0)
(0.000681317 -3.90532e-05 0)
(0.00068129 -3.69149e-05 0)
(0.0006813 -3.497e-05 0)
(0.000681392 -3.3198e-05 0)
(0.000681505 -3.15836e-05 0)
(0.000681738 -3.01224e-05 0)
(0.000681954 -2.87685e-05 0)
(0.000682345 -2.75973e-05 0)
(0.000682658 -2.64125e-05 0)
(0.000689286 -7.20007e-05 0)
(0.000690204 -6.63914e-05 0)
(0.000690718 -6.13163e-05 0)
(0.000691228 -5.67422e-05 0)
(0.0006915 -5.26089e-05 0)
(0.000691771 -4.88657e-05 0)
(0.000691913 -4.54809e-05 0)
(0.000692064 -4.24072e-05 0)
(0.000692159 -3.96233e-05 0)
(0.00069227 -3.70914e-05 0)
(0.000692375 -3.47944e-05 0)
(0.000692503 -3.27033e-05 0)
(0.000692662 -3.08038e-05 0)
(0.000692841 -2.9074e-05 0)
(0.000693087 -2.75009e-05 0)
(0.000693339 -2.60718e-05 0)
(0.000693698 -2.4766e-05 0)
(0.000694035 -2.35982e-05 0)
(0.000694525 -2.2501e-05 0)
(0.000694979 -2.14001e-05 0)
(0.000695452 -6.08243e-05 0)
(0.000696884 -5.59737e-05 0)
(0.000697856 -5.15854e-05 0)
(0.000698782 -4.76291e-05 0)
(0.000699425 -4.40541e-05 0)
(0.000700034 -4.08158e-05 0)
(0.00070048 -3.78877e-05 0)
(0.000700906 -3.52282e-05 0)
(0.000701247 -3.282e-05 0)
(0.000701584 -3.0629e-05 0)
(0.00070189 -2.86425e-05 0)
(0.000702205 -2.68322e-05 0)
(0.000702525 -2.5191e-05 0)
(0.000702864 -2.36907e-05 0)
(0.000703233 -2.23357e-05 0)
(0.000703628 -2.10865e-05 0)
(0.000704073 -1.99729e-05 0)
(0.000704543 -1.89228e-05 0)
(0.00070509 -1.80171e-05 0)
(0.000705637 -1.71196e-05 0)
(0.0007006 -4.96967e-05 0)
(0.000702469 -4.56562e-05 0)
(0.000703831 -4.20011e-05 0)
(0.000705111 -3.87049e-05 0)
(0.000706071 -3.57265e-05 0)
(0.000706968 -3.30281e-05 0)
(0.000707672 -3.05882e-05 0)
(0.000708333 -2.83721e-05 0)
(0.000708885 -2.63651e-05 0)
(0.000709415 -2.45398e-05 0)
(0.000709894 -2.28839e-05 0)
(0.000710367 -2.13769e-05 0)
(0.00071083 -2.0008e-05 0)
(0.000711299 -1.87617e-05 0)
(0.000711788 -1.76293e-05 0)
(0.000712288 -1.65962e-05 0)
(0.000712834 -1.56624e-05 0)
(0.00071339 -1.47974e-05 0)
(0.000714017 -1.40431e-05 0)
(0.000714638 -1.32842e-05 0)
(0.000704727 -3.861e-05 0)
(0.00070695 -3.54223e-05 0)
(0.00070863 -3.25388e-05 0)
(0.000710198 -2.99379e-05 0)
(0.000711416 -2.7588e-05 0)
(0.000712547 -2.54585e-05 0)
(0.000713461 -2.35332e-05 0)
(0.000714313 -2.17841e-05 0)
(0.000715037 -2.02004e-05 0)
(0.000715724 -1.87593e-05 0)
(0.000716343 -1.7453e-05 0)
(0.000716945 -1.62627e-05 0)
(0.000717523 -1.51834e-05 0)
(0.000718099 -1.41978e-05 0)
(0.000718681 -1.33067e-05 0)
(0.000719272 -1.24878e-05 0)
(0.000719894 -1.17562e-05 0)
(0.000720526 -1.10698e-05 0)
(0.000721215 -1.04819e-05 0)
(0.000721907 -9.89053e-06 0)
(0.000707826 -2.75553e-05 0)
(0.000710319 -2.52541e-05 0)
(0.00071224 -2.31725e-05 0)
(0.000714027 -2.12948e-05 0)
(0.000715441 -1.95982e-05 0)
(0.000716751 -1.80607e-05 0)
(0.000717824 -1.66706e-05 0)
(0.000718822 -1.54077e-05 0)
(0.000719677 -1.42642e-05 0)
(0.000720483 -1.3224e-05 0)
(0.00072121 -1.22806e-05 0)
(0.000721911 -1.14217e-05 0)
(0.000722577 -1.06422e-05 0)
(0.000723234 -9.93166e-06 0)
(0.000723889 -9.28772e-06 0)
(0.000724547 -8.69791e-06 0)
(0.000725228 -8.16917e-06 0)
(0.000725918 -7.67443e-06 0)
(0.000726652 -7.25035e-06 0)
(0.000727399 -6.82189e-06 0)
(0.000709894 -1.65238e-05 0)
(0.000712569 -1.51333e-05 0)
(0.000714651 -1.38756e-05 0)
(0.000716586 -1.27409e-05 0)
(0.000718132 -1.17156e-05 0)
(0.000719561 -1.07864e-05 0)
(0.000720742 -9.94636e-06 0)
(0.000721838 -9.18305e-06 0)
(0.000722782 -8.49196e-06 0)
(0.000723668 -7.86311e-06 0)
(0.000724467 -7.29305e-06 0)
(0.000725234 -6.77371e-06 0)
(0.000725959 -6.30285e-06 0)
(0.000726671 -5.87301e-06 0)
(0.000727375 -5.48446e-06 0)
(0.000728079 -5.12753e-06 0)
(0.000728799 -4.80902e-06 0)
(0.00072953 -4.50988e-06 0)
(0.000730294 -4.25468e-06 0)
(0.000731078 -3.99658e-06 0)
(0.000710929 -5.50641e-06 0)
(0.000713695 -5.04127e-06 0)
(0.000715859 -4.62057e-06 0)
(0.000717867 -4.24102e-06 0)
(0.000719479 -3.89808e-06 0)
(0.00072097 -3.58729e-06 0)
(0.000722205 -3.30629e-06 0)
(0.00072335 -3.05102e-06 0)
(0.000724338 -2.81985e-06 0)
(0.000725265 -2.60961e-06 0)
(0.0007261 -2.41889e-06 0)
(0.0007269 -2.24533e-06 0)
(0.000727656 -2.08774e-06 0)
(0.000728395 -1.94414e-06 0)
(0.000729123 -1.814e-06 0)
(0.000729851 -1.69475e-06 0)
(0.00073059 -1.58798e-06 0)
(0.000731341 -1.4879e-06 0)
(0.000732121 -1.40235e-06 0)
(0.000732923 -1.31577e-06 0)
(0.000734395 -1.17453e-06 0)
(0.000732611 -3.57113e-06 0)
(0.000729054 -6.10665e-06 0)
(0.000723741 -8.87489e-06 0)
(0.000716714 -1.19638e-05 0)
(0.000707984 -1.54647e-05 0)
(0.000697665 -1.94454e-05 0)
(0.000685798 -2.39754e-05 0)
(0.000672371 -2.91979e-05 0)
(0.00065755 -3.51025e-05 0)
(0.000641382 -4.18035e-05 0)
(0.000623965 -4.93283e-05 0)
(0.000605397 -5.7741e-05 0)
(0.000585768 -6.70725e-05 0)
(0.000565195 -7.73597e-05 0)
(0.000543765 -8.86267e-05 0)
(0.000521609 -0.000100888 0)
(0.000498775 -0.000114186 0)
(0.000475413 -0.000128506 0)
(0.000451486 -0.000143896 0)
(0.00073675 -9.87385e-07 0)
(0.00073508 -3.00852e-06 0)
(0.00073175 -5.15111e-06 0)
(0.000726778 -7.511e-06 0)
(0.000720195 -1.01527e-05 0)
(0.000712032 -1.31824e-05 0)
(0.000702346 -1.66503e-05 0)
(0.000691153 -2.06571e-05 0)
(0.00067857 -2.52308e-05 0)
(0.000664623 -3.04894e-05 0)
(0.000649408 -3.64461e-05 0)
(0.000632993 -4.31865e-05 0)
(0.00061547 -5.07397e-05 0)
(0.000596919 -5.91534e-05 0)
(0.000577451 -6.84562e-05 0)
(0.000557134 -7.86594e-05 0)
(0.00053613 -8.97846e-05 0)
(0.000514468 -0.000101785 0)
(0.000492402 -0.000114746 0)
(0.000469845 -0.000128487 0)
(0.000739373 -8.58073e-07 0)
(0.000737815 -2.61427e-06 0)
(0.000734711 -4.48017e-06 0)
(0.00073007 -6.53614e-06 0)
(0.000723931 -8.84661e-06 0)
(0.000716308 -1.14918e-05 0)
(0.000707268 -1.4529e-05 0)
(0.000696848 -1.80321e-05 0)
(0.000685074 -2.20734e-05 0)
(0.000672046 -2.66899e-05 0)
(0.000657805 -3.19625e-05 0)
(0.000642435 -3.79176e-05 0)
(0.000626011 -4.4626e-05 0)
(0.000608599 -5.21061e-05 0)
(0.000590302 -6.04277e-05 0)
(0.000571156 -6.95801e-05 0)
(0.000551303 -7.96605e-05 0)
(0.000530726 -9.05619e-05 0)
(0.000509647 -0.000102472 0)
(0.000487982 -0.000115049 0)
(0.000742317 -7.57462e-07 0)
(0.000740859 -2.30905e-06 0)
(0.000737951 -3.95871e-06 0)
(0.000733605 -5.7798e-06 0)
(0.000727849 -7.8313e-06 0)
(0.000720704 -1.01836e-05 0)
(0.000712215 -1.2896e-05 0)
(0.000702414 -1.60232e-05 0)
(0.000691365 -1.96266e-05 0)
(0.000679103 -2.37631e-05 0)
(0.000665707 -2.84775e-05 0)
(0.000651221 -3.38171e-05 0)
(0.000635735 -3.98282e-05 0)
(0.000619295 -4.65288e-05 0)
(0.000602013 -5.3984e-05 0)
(0.000583922 -6.216e-05 0)
(0.000565171 -7.11786e-05 0)
(0.000545745 -8.09083e-05 0)
(0.000525852 -9.16086e-05 0)
(0.000505363 -0.000102937 0)
(0.00074556 -6.83526e-07 0)
(0.000744196 -2.08193e-06 0)
(0.000741477 -3.56754e-06 0)
(0.000737413 -5.20251e-06 0)
(0.00073203 -7.04116e-06 0)
(0.000725348 -9.14303e-06 0)
(0.000717407 -1.1562e-05 0)
(0.000708241 -1.43512e-05 0)
(0.000697889 -1.75662e-05 0)
(0.000686408 -2.12467e-05 0)
(0.000673845 -2.5455e-05 0)
(0.000660256 -3.02132e-05 0)
(0.000645708 -3.55929e-05 0)
(0.000630245 -4.15887e-05 0)
(0.000613959 -4.82969e-05 0)
(0.000596869 -5.56511e-05 0)
(0.000579108 -6.38141e-05 0)
(0.000560655 -7.2585e-05 0)
(0.00054171 -8.22928e-05 0)
(0.000522198 -9.24667e-05 0)
(0.000749132 -6.33563e-07 0)
(0.000747852 -1.9284e-06 0)
(0.000745299 -3.3015e-06 0)
(0.000741483 -4.80727e-06 0)
(0.000736425 -6.49613e-06 0)
(0.000730146 -8.41807e-06 0)
(0.000722679 -1.06249e-05 0)
(0.000714053 -1.31574e-05 0)
(0.000704316 -1.60698e-05 0)
(0.000693501 -1.93956e-05 0)
(0.000681669 -2.31882e-05 0)
(0.000668857 -2.74666e-05 0)
(0.000655139 -3.22957e-05 0)
(0.00064055 -3.76607e-05 0)
(0.000625182 -4.36659e-05 0)
(0.000609055 -5.02261e-05 0)
(0.000592285 -5.75383e-05 0)
(0.000574861 -6.53738e-05 0)
(0.000556927 -7.41151e-05 0)
(0.000538443 -8.32554e-05 0)
(0.000753019 -5.966e-07 0)
(0.000751818 -1.8136e-06 0)
(0.000749423 -3.0998e-06 0)
(0.000745844 -4.50192e-06 0)
(0.000741099 -6.06538e-06 0)
(0.000735208 -7.8338e-06 0)
(0.000728199 -9.85358e-06 0)
(0.000720103 -1.21624e-05 0)
(0.000710956 -1.48087e-05 0)
(0.000700796 -1.78198e-05 0)
(0.000689668 -2.12523e-05 0)
(0.000677613 -2.51132e-05 0)
(0.000664689 -2.94779e-05 0)
(0.000650931 -3.43144e-05 0)
(0.000636412 -3.97412e-05 0)
(0.000621159 -4.56492e-05 0)
(0.000605266 -5.22505e-05 0)
(0.000588744 -5.92902e-05 0)
(0.000571703 -6.71684e-05 0)
(0.000554154 -7.53681e-05 0)
(0.000757222 -5.77237e-07 0)
(0.000756091 -1.75247e-06 0)
(0.000753836 -2.98945e-06 0)
(0.000750465 -4.32861e-06 0)
(0.000745996 -5.8113e-06 0)
(0.000740445 -7.4743e-06 0)
(0.00073384 -9.36041e-06 0)
(0.000726208 -1.14996e-05 0)
(0.000717583 -1.3938e-05 0)
(0.000707999 -1.66955e-05 0)
(0.000697502 -1.98255e-05 0)
(0.000686125 -2.33281e-05 0)
(0.000673926 -2.72784e-05 0)
(0.000660937 -3.16362e-05 0)
(0.000647225 -3.65268e-05 0)
(0.000632819 -4.18304e-05 0)
(0.000617788 -4.77743e-05 0)
(0.000602163 -5.40889e-05 0)
(0.000586006 -6.1189e-05 0)
(0.000569368 -6.85494e-05 0)
(0.000761739 -5.65355e-07 0)
(0.000760675 -1.71402e-06 0)
(0.000758552 -2.91724e-06 0)
(0.00075538 -4.21004e-06 0)
(0.000751172 -5.62948e-06 0)
(0.000745946 -7.20761e-06 0)
(0.000739726 -8.98307e-06 0)
(0.000732536 -1.0982e-05 0)
(0.000724409 -1.32468e-05 0)
(0.000715374 -1.57927e-05 0)
(0.000705472 -1.86726e-05 0)
(0.000694735 -2.18794e-05 0)
(0.000683211 -2.549e-05 0)
(0.000670935 -2.94552e-05 0)
(0.000657958 -3.39016e-05 0)
(0.00064432 -3.87024e-05 0)
(0.00063007 -4.40796e-05 0)
(0.000615262 -4.97737e-05 0)
(0.000599919 -5.61669e-05 0)
(0.000584137 -6.27975e-05 0)
(0.000766556 -5.65351e-07 0)
(0.000765551 -1.71166e-06 0)
(0.000763546 -2.90637e-06 0)
(0.00076055 -4.17975e-06 0)
(0.000756576 -5.56514e-06 0)
(0.000751639 -7.08968e-06 0)
(0.000745763 -8.78847e-06 0)
(0.00073897 -1.06825e-05 0)
(0.00073129 -1.28115e-05 0)
(0.000722752 -1.51852e-05 0)
(0.000713391 -1.7854e-05 0)
(0.000703242 -2.08068e-05 0)
(0.000692345 -2.41182e-05 0)
(0.000680738 -2.7737e-05 0)
(0.00066846 -3.17865e-05 0)
(0.000655557 -3.6144e-05 0)
(0.000642059 -4.10193e-05 0)
(0.000628031 -4.61718e-05 0)
(0.000613472 -5.19497e-05 0)
(0.000598495 -5.79354e-05 0)
(0.000771675 -5.70395e-07 0)
(0.000770727 -1.72476e-06 0)
(0.000768833 -2.92195e-06 0)
(0.000766003 -4.18827e-06 0)
(0.000762249 -5.55361e-06 0)
(0.000757586 -7.04144e-06 0)
(0.000752034 -8.68357e-06 0)
(0.000745614 -1.04976e-05 0)
(0.000738354 -1.25202e-05 0)
(0.000730281 -1.47579e-05 0)
(0.000721427 -1.72583e-05 0)
(0.000711824 -2.00068e-05 0)
(0.000701507 -2.30749e-05 0)
(0.000690514 -2.64098e-05 0)