/*--------------------------------*- C++ -*----------------------------------*\
| =========                 |                                                 |
| \\      /  F ield         | OpenFOAM: The Open Source CFD Toolbox           |
|  \\    /   O peration     | Version:  v2012                                 |
|   \\  /    A nd           | Website:  www.openfoam.com                      |
|    \\/     M anipulation  |                                                 |
\*---------------------------------------------------------------------------*/
FoamFile
{
    version     2.0;
    format      ascii;
    class       pointVectorField;
    location    "2";
    object      pointD;
}
// * * * * * * * * * * * * * * * * * * * * * * * * * * * * * * * * * * * * * //

dimensions      [0 1 0 0 0 0 0];


internalField   nonuniform List<vector> 
8282
(
(0.000710191 0 7.06862e-22)
(0.00101012 0 -8.91011e-24)
(0.000930943 -9.33621e-05 6.58026e-22)
(0 -0.000500179 1.69533e-22)
(0 -0.000388556 3.07985e-21)
(0.000733644 0 0)
(0 -0.000460769 0)
(0.000431665 -0.000158569 0)
(0.000214474 -0.000295563 6.52879e-24)
(0.000976922 -2.85392e-05 3.36919e-22)
(0.000516608 -0.000233739 1.99707e-21)
(0.000516608 -0.000233739 1.99707e-21)
(0.000431665 -0.000158569 0)
(0 -0.000460769 0)
(0 -0.000388556 3.07985e-21)
(0.000710191 0 7.06862e-22)
(0.000733644 0 0)
(0.00101012 0 -8.91011e-24)
(0.000976922 -2.85392e-05 3.36919e-22)
(0.000930943 -9.33621e-05 6.58026e-22)
(0.000214474 -0.000295563 6.52879e-24)
(0 -0.000500179 1.69533e-22)
(1.73785e-05 -0.000459509 0)
(3.48761e-05 -0.000455753 0)
(5.2607e-05 -0.000449571 0)
(7.06763e-05 -0.000441078 0)
(8.91758e-05 -0.000430429 0)
(0.000108181 -0.00041781 0)
(0.00012775 -0.000403434 0)
(0.000147921 -0.000387536 0)
(0.000168714 -0.000370359 0)
(0.000190127 -0.000352153 0)
(0.000212145 -0.000333165 0)
(0.000234732 -0.000313636 0)
(0.000257842 -0.000293796 0)
(0.000281411 -0.000273856 0)
(0.00030537 -0.000254016 0)
(0.00032963 -0.000234456 0)
(0.000354114 -0.000215326 0)
(0.000378695 -0.000196799 0)
(0.000403349 -0.000178927 0)
(0.000458283 -0.000141 0)
(0.000482192 -0.000125792 0)
(0.000505593 -0.000111617 0)
(0.000528415 -9.84669e-05 0)
(0.000550546 -8.63446e-05 0)
(0.000571886 -7.52275e-05 0)
(0.000592322 -6.50967e-05 0)
(0.000611747 -5.5923e-05 0)
(0.000630054 -4.76712e-05 0)
(0.000647144 -4.02957e-05 0)
(0.000662918 -3.37443e-05 0)
(0.000677294 -2.79566e-05 0)
(0.000690185 -2.28526e-05 0)
(0.000701496 -1.8392e-05 0)
(0.00071119 -1.44848e-05 0)
(0.000719211 -1.10232e-05 0)
(0.000725498 -7.93747e-06 0)
(0.000730016 -5.13294e-06 0)
(0.000732737 -2.51881e-06 0)
(0.000712312 0 0)
(0.000714777 0 0)
(0.000716863 0 0)
(0.000718673 0 0)
(0.000720225 0 0)
(0.000721587 0 0)
(0.000722778 0 0)
(0.000723844 0 0)
(0.000724801 0 0)
(0.000725683 0 0)
(0.0007265 0 0)
(0.000727278 0 0)
(0.000728025 0 0)
(0.000728759 0 0)
(0.000729487 0 0)
(0.000730221 0 0)
(0.000730966 0 0)
(0.000731731 0 0)
(0.000732522 0 0)
(0.000735573 0 0)
(0.000738062 0 0)
(0.000740845 0 0)
(0.000743939 0 0)
(0.000747346 0 0)
(0.000751075 0 0)
(0.00075512 0 0)
(0.00075948 0 0)
(0.000764147 0 0)
(0.000769115 0 0)
(0.000774377 0 0)
(0.000779923 0 0)
(0.000785746 0 0)
(0.000791836 0 0)
(0.000798186 0 0)
(0.000804786 0 0)
(0.000811629 0 0)
(0.000818704 0 0)
(0.000826004 0 0)
(0.000833519 0 0)
(0.000841241 0 0)
(0.00084916 0 0)
(0.000857267 0 0)
(0.000865553 0 0)
(0.000874008 0 0)
(0.000882621 0 0)
(0.000891383 0 0)
(0.000900281 0 0)
(0.000909305 0 0)
(0.000918442 0 0)
(0.000927677 0 0)
(0.000936999 0 0)
(0.000946389 0 0)
(0.000955835 0 0)
(0.000965312 0 0)
(0.000974807 0 0)
(0.000984288 0 0)
(0.000993742 0 0)
(0.00100313 0 0)
(0.00101232 -7.22163e-07 5.34581e-22)
(0.00101199 -1.45679e-06 1.10393e-21)
(0.00101145 -2.21624e-06 1.07963e-21)
(0.00101069 -3.01274e-06 -1.50123e-24)
(0.00100973 -3.85824e-06 -1.13682e-21)
(0.00100856 -4.76437e-06 -9.18935e-23)
(0.0010072 -5.74232e-06 1.178e-21)
(0.00100565 -6.80288e-06 1.32548e-21)
(0.00100391 -7.95613e-06 1.39427e-22)
(0.00100202 -9.2117e-06 -5.32346e-22)
(0.000999958 -1.05783e-05 5.38721e-22)
(0.000997754 -1.20641e-05 3.38407e-22)
(0.000995418 -1.36761e-05 1.31387e-23)
(0.000992961 -1.5421e-05 7.61751e-22)
(0.0009904 -1.73037e-05 -1.59138e-22)
(0.000987747 -1.9329e-05 6.51257e-22)
(0.000985019 -2.14998e-05 3.19378e-21)
(0.00098223 -2.38185e-05 1.45331e-22)
(0.000979398 -2.62862e-05 -1.93283e-21)
(0.000975262 -3.0109e-05 1.13964e-21)
(0.000973985 -3.13491e-05 -6.00406e-22)
(0.000972708 -3.26177e-05 -1.17106e-21)
(0.000971432 -3.39153e-05 -5.75674e-22)
(0.000970159 -3.5241e-05 -5.75674e-22)
(0.00096889 -3.65948e-05 1.31796e-23)
(0.000967626 -3.7976e-05 -5.67308e-22)
(0.000966369 -3.93844e-05 -1.16888e-21)
(0.00096512 -4.08192e-05 -4.84492e-24)
(0.000963879 -4.22799e-05 5.74595e-22)
(0.000962648 -4.3766e-05 -8.95356e-24)
(0.000961429 -4.52766e-05 -2.30578e-23)
(0.000960222 -4.6811e-05 -6.12266e-22)
(0.000959028 -4.83685e-05 -1.10185e-21)
(0.000957848 -4.99481e-05 6.70879e-22)
(0.000956684 -5.15489e-05 5.90563e-22)
(0.000955536 -5.317e-05 5.95234e-22)
(0.000954404 -5.48104e-05 5.93015e-22)
(0.00095329 -5.64689e-05 1.01861e-24)
(0.000952194 -5.81444e-05 2.1984e-21)
(0.000951117 -5.98358e-05 5.10782e-22)
(0.000950059 -6.15418e-05 -1.09142e-21)
(0.00094902 -6.32612e-05 1.07431e-21)
(0.000948001 -6.49926e-05 4.74023e-22)
(0.000947001 -6.67347e-05 -1.65707e-21)
(0.000946021 -6.8486e-05 -1.05678e-21)
(0.00094506 -7.02451e-05 -6.01888e-22)
(0.000944118 -7.20107e-05 3.87672e-25)
(0.000943194 -7.37812e-05 4.19908e-22)
(0.000942288 -7.5555e-05 -1.82368e-22)
(0.000941399 -7.73308e-05 -1.00785e-21)
(0.000940524 -7.91071e-05 -1.00785e-21)
(0.000939664 -8.08823e-05 -9.95497e-22)
(0.000938816 -8.26552e-05 -3.92307e-22)
(0.000937977 -8.44241e-05 4.79885e-26)
(0.000937146 -8.61879e-05 -9.38253e-26)
(0.00093632 -8.79451e-05 7.62304e-22)
(0.000935494 -8.96942e-05 1.59256e-22)
(0.000934665 -9.14343e-05 6.02442e-22)
(0.000921071 -9.58057e-05 2.57992e-22)
(0.000908357 -9.8403e-05 1.80723e-22)
(0.000895673 -0.000100893 2.55195e-22)
(0.000882977 -0.000103233 8.42401e-22)
(0.000870231 -0.000105389 8.10234e-22)
(0.000857387 -0.000107348 2.34181e-22)
(0.000844406 -0.00010911 2.40478e-22)
(0.000831248 -0.000110681 -4.22739e-24)
(0.000817878 -0.000112078 4.89682e-24)
(0.000804262 -0.000113321 2.76018e-22)
(0.000790369 -0.000114436 -1.49975e-23)
(0.00077617 -0.000115452 -3.09204e-22)
(0.000761639 -0.0001164 7.10984e-24)
(0.00074675 -0.000117317 3.14842e-22)
(0.000731479 -0.00011824 3.44673e-22)
(0.000715804 -0.00011921 6.56537e-22)
(0.000699703 -0.00012027 3.2539e-22)
(0.000683158 -0.000121467 -2.03666e-23)
(0.000666149 -0.000122848 -2.03666e-23)
(0.000648661 -0.000124466 3.90988e-22)
(0.000630679 -0.000126375 1.17004e-21)
(0.000612193 -0.00012863 7.39457e-22)
(0.000593208 -0.000131289 -3.95975e-23)
(0.000573692 -0.000134421 1.21022e-21)
(0.000553653 -0.000138088 1.27405e-21)
(0.000533102 -0.000142353 1.059e-21)
(0.000512041 -0.000147287 1.69144e-21)
(0.000490494 -0.00015296 5.93419e-23)
(0.000468483 -0.000159436 -6.36939e-22)
(0.000446041 -0.000166782 4.58515e-22)
(0.000423212 -0.000175061 -6.58822e-24)
(0.000400048 -0.000184325 -1.0907e-21)
(0.000376616 -0.000194627 -1.09976e-21)
(0.000352992 -0.000205999 -7.62265e-22)
(0.000329261 -0.000218471 -4.93086e-22)
(0.000305534 -0.000232052 -9.00617e-22)
(0.000281914 -0.000246717 -1.39671e-21)
(0.000258541 -0.000262442 -4.48748e-22)
(0.000235531 -0.000279136 -1.99976e-22)
(0.000197315 -0.000309847 4.45656e-22)
(0.000181935 -0.000323299 4.42826e-22)
(0.000166991 -0.000337008 5.34085e-22)
(0.000152544 -0.000350874 -2.42284e-22)
(0.000138631 -0.000364809 8.28915e-22)
(0.000125297 -0.000378709 1.98345e-21)
(0.000112575 -0.000392455 2.54595e-22)
(0.00010049 -0.000405932 -1.06181e-21)
(8.90604e-05 -0.000419006 2.34428e-22)
(7.82911e-05 -0.00043155 8.48049e-22)
(6.81802e-05 -0.000443423 -3.99612e-22)
(5.8708e-05 -0.000454495 -4.55668e-23)
(4.98481e-05 -0.000464631 3.18244e-22)
(4.15564e-05 -0.000473708 -1.5406e-22)
(3.37807e-05 -0.000481608 3.37424e-22)
(2.6454e-05 -0.000488226 1.24565e-22)
(1.95013e-05 -0.000493472 -4.11871e-22)
(1.28367e-05 -0.000497274 -4.54828e-23)
(6.36868e-06 -0.000499576 3.25772e-22)
(0 -0.000499684 0)
(0 -0.000498989 0)
(0 -0.000498259 0)
(0 -0.000497502 0)
(0 -0.000496715 0)
(0 -0.000495904 0)
(0 -0.000495067 0)
(0 -0.000494209 0)
(0 -0.000493329 0)
(0 -0.000492431 0)
(0 -0.000491514 0)
(0 -0.000490581 0)
(0 -0.000489633 0)
(0 -0.000488671 0)
(0 -0.000487695 0)
(0 -0.000486708 0)
(0 -0.00048571 0)
(0 -0.000484702 0)
(0 -0.000483685 0)
(0 -0.00048266 0)
(0 -0.000481627 0)
(0 -0.000480587 0)
(0 -0.000479541 0)
(0 -0.000478488 0)
(0 -0.000477431 0)
(0 -0.000476368 0)
(0 -0.000475301 0)
(0 -0.000474229 0)
(0 -0.000473153 0)
(0 -0.000472073 0)
(0 -0.000470989 0)
(0 -0.000469902 0)
(0 -0.00046881 0)
(0 -0.000467714 0)
(0 -0.000466615 0)
(0 -0.000465511 0)
(0 -0.000464402 0)
(0 -0.000463288 0)
(0 -0.000462168 0)
(0 -0.000458791 0)
(0 -0.000456504 0)
(0 -0.000454175 0)
(0 -0.000451798 0)
(0 -0.000449359 0)
(0 -0.000446847 0)
(0 -0.000444244 0)
(0 -0.000441533 0)
(0 -0.000438688 0)
(0 -0.00043569 0)
(0 -0.000432497 0)
(0 -0.000429088 0)
(0 -0.000425402 0)
(0 -0.000421413 0)
(0 -0.000417031 0)
(0 -0.000412226 0)
(0 -0.000406864 0)
(0 -0.000400912 0)
(0 -0.000394172 0)
(0.000452625 -0.000141294 0)
(0.000471304 -0.000126453 0)
(0.000489407 -0.000113316 0)
(0.000506862 -0.000101666 0)
(0.000523727 -9.14846e-05 0)
(0.000540024 -8.26094e-05 0)
(0.00055579 -7.49579e-05 0)
(0.000571075 -6.83939e-05 0)
(0.000585918 -6.28363e-05 0)
(0.000600369 -5.81606e-05 0)
(0.000614477 -5.42779e-05 0)
(0.00062828 -5.1101e-05 0)
(0.000641824 -4.85486e-05 0)
(0.000655143 -4.6548e-05 0)
(0.000668274 -4.50268e-05 0)
(0.000681246 -4.39202e-05 0)
(0.000694085 -4.31704e-05 0)
(0.000706816 -4.27214e-05 0)
(0.000719457 -4.25226e-05 0)
(0.000732027 -4.2526e-05 0)
(0.000744539 -4.2687e-05 0)
(0.000757005 -4.29636e-05 0)
(0.000769436 -4.33174e-05 0)
(0.000781835 -4.37118e-05 0)
(0.000794208 -4.41106e-05 0)
(0.000806561 -4.44805e-05 0)
(0.000818892 -4.47903e-05 0)
(0.000831205 -4.50084e-05 0)
(0.000843498 -4.51051e-05 0)
(0.00085577 -4.50498e-05 0)
(0.000868019 -4.48132e-05 0)
(0.000880242 -4.43635e-05 0)
(0.000892436 -4.36702e-05 0)
(0.0009046 -4.26967e-05 0)
(0.000916731 -4.141e-05 0)
(0.00092883 -3.9762e-05 0)
(0.000940895 -3.77164e-05 0)
(0.000952931 -3.52017e-05 0)
(0.000964939 -3.21799e-05 0)
(0.00042095 -0.000164333 0)
(0.000413918 -0.0001681 0)
(0.000407036 -0.000171889 0)
(0.000400325 -0.000175674 0)
(0.000393773 -0.000179468 0)
(0.000387378 -0.000183255 0)
(0.000381138 -0.000187039 0)
(0.000375049 -0.000190812 0)
(0.000369102 -0.000194569 0)
(0.000363297 -0.000198305 0)
(0.000357632 -0.000202019 0)
(0.000352097 -0.000205707 0)
(0.000346686 -0.000209365 0)
(0.000341391 -0.000212991 0)
(0.000336204 -0.000216581 0)
(0.000331117 -0.000220135 0)
(0.000326123 -0.00022365 0)
(0.000321211 -0.000227126 0)
(0.000316373 -0.000230562 0)
(0.0003116 -0.000233957 0)
(0.000306883 -0.000237312 0)
(0.000302212 -0.000240625 0)
(0.000297577 -0.000243899 0)
(0.00029297 -0.000247134 0)
(0.00028838 -0.000250331 0)
(0.000283796 -0.000253492 0)
(0.00027921 -0.000256618 0)
(0.00027461 -0.000259711 0)
(0.000269987 -0.000262775 0)
(0.000265329 -0.000265811 0)
(0.000260627 -0.000268823 0)
(0.000255869 -0.000271814 0)
(0.000251045 -0.000274789 0)
(0.000246143 -0.000277751 0)
(0.000241153 -0.000280707 0)
(0.000236062 -0.00028366 0)
(0.00023086 -0.000286617 0)
(0.000225533 -0.000289583 0)
(0.000220073 -0.000292567 0)
(2.98435e-05 -0.00038608 5.22431e-21)
(5.96178e-05 -0.000384547 4.49427e-21)
(8.92493e-05 -0.000382016 3.52955e-21)
(0.00011868 -0.000378509 6.71551e-22)
(0.000147826 -0.000374047 7.84512e-22)
(0.000176622 -0.000368712 4.0166e-21)
(0.000205016 -0.000362551 2.80695e-21)
(0.000232961 -0.000355592 -1.78703e-21)
(0.000260382 -0.000347909 -4.61166e-21)
(0.000287237 -0.00033957 -3.15746e-21)
(0.000313481 -0.000330638 2.92438e-21)
(0.00033907 -0.000321184 6.22478e-21)
(0.000363971 -0.00031127 2.75546e-21)
(0.000388147 -0.000300959 -1.83907e-21)
(0.000411572 -0.00029031 -4.63409e-22)
(0.000434218 -0.000279378 1.62391e-21)
(0.000456063 -0.000268212 -8.48859e-22)
(0.000477087 -0.000256858 -2.47948e-21)
(0.000497275 -0.000245356 -4.43067e-22)
(0.000535075 -0.000222039 1.20409e-21)
(0.000552663 -0.000210279 -1.21016e-21)
(0.00056936 -0.000198482 1.03766e-21)
(0.000585156 -0.000186664 1.08409e-21)
(0.00060004 -0.000174842 -3.13345e-21)
(0.000614005 -0.000163026 9.11297e-23)
(0.000627041 -0.000151225 2.97192e-21)
(0.000639142 -0.000139446 -3.18859e-22)
(0.000650301 -0.000127693 -1.8019e-21)
(0.000660512 -0.000115968 1.56096e-22)
(0.000669769 -0.000104271 7.54056e-23)
(0.000678067 -9.26039e-05 -9.30212e-22)
(0.000685401 -8.09634e-05 2.33018e-22)
(0.000691767 -6.93481e-05 1.03376e-21)
(0.000697161 -5.77548e-05 -1.90828e-22)
(0.000701579 -4.61806e-05 -9.03605e-22)
(0.000705018 -3.46217e-05 2.03394e-22)
(0.000707477 -2.30746e-05 1.50743e-23)
(0.000708952 -1.15353e-05 3.32921e-22)
(0.000506399 -0.00022548 0)
(0.000497235 -0.000218158 0)
(0.000488948 -0.00021159 0)
(0.00048149 -0.000205721 0)
(0.000474762 -0.000200442 0)
(0.000468712 -0.000195699 0)
(0.000463271 -0.000191419 0)
(0.000458388 -0.000187554 0)
(0.000454013 -0.000184054 0)
(0.000450101 -0.000180878 0)
(0.000446613 -0.00017799 0)
(0.000443512 -0.000175356 0)
(0.000440766 -0.000172951 0)
(0.000438345 -0.000170744 0)
(0.000436225 -0.000168725 0)
(0.000434375 -0.000166861 0)
(0.000432771 -0.000165141 0)
(0.000431413 -0.000163551 0)
(0.000430255 -0.000162087 0)
(0.000506399 -0.00022548 0)
(0.000497235 -0.000218158 0)
(0.000488948 -0.00021159 0)
(0.00048149 -0.000205721 0)
(0.000474762 -0.000200442 0)
(0.000468712 -0.000195699 0)
(0.000463271 -0.000191419 0)
(0.000458388 -0.000187554 0)
(0.000454013 -0.000184054 0)
(0.000450101 -0.000180878 0)
(0.000446613 -0.00017799 0)
(0.000443512 -0.000175356 0)
(0.000440766 -0.000172951 0)
(0.000438345 -0.000170744 0)
(0.000436225 -0.000168725 0)
(0.000434375 -0.000166861 0)
(0.000432771 -0.000165141 0)
(0.000431413 -0.000163551 0)
(0.000430255 -0.000162087 0)
(0.000403349 -0.000178927 0)
(0.000378695 -0.000196799 0)
(0.000354114 -0.000215326 0)
(0.00032963 -0.000234456 0)
(0.00030537 -0.000254016 0)
(0.000281411 -0.000273856 0)
(0.000257842 -0.000293796 0)
(0.000234732 -0.000313636 0)
(0.000212145 -0.000333165 0)
(0.000190127 -0.000352153 0)
(0.000168714 -0.000370359 0)
(0.000147921 -0.000387536 0)
(0.00012775 -0.000403434 0)
(0.000108181 -0.00041781 0)
(8.91758e-05 -0.000430429 0)
(7.06763e-05 -0.000441078 0)
(5.2607e-05 -0.000449571 0)
(3.48761e-05 -0.000455753 0)
(1.73785e-05 -0.000459509 0)
(0 -0.000458791 0)
(0 -0.000456504 0)
(0 -0.000454175 0)
(0 -0.000451798 0)
(0 -0.000449359 0)
(0 -0.000446847 0)
(0 -0.000444244 0)
(0 -0.000441533 0)
(0 -0.000438688 0)
(0 -0.00043569 0)
(0 -0.000432497 0)
(0 -0.000429088 0)
(0 -0.000425402 0)
(0 -0.000421413 0)
(0 -0.000417031 0)
(0 -0.000412226 0)
(0 -0.000406864 0)
(0 -0.000400912 0)
(0 -0.000394172 0)
(2.98435e-05 -0.00038608 5.22431e-21)
(5.96178e-05 -0.000384547 4.49427e-21)
(8.92493e-05 -0.000382016 3.52955e-21)
(0.00011868 -0.000378509 6.71551e-22)
(0.000147826 -0.000374047 7.84512e-22)
(0.000176622 -0.000368712 4.0166e-21)
(0.000205016 -0.000362551 2.80695e-21)
(0.000232961 -0.000355592 -1.78703e-21)
(0.000260382 -0.000347909 -4.61166e-21)
(0.000287237 -0.00033957 -3.15746e-21)
(0.000313481 -0.000330638 2.92438e-21)
(0.00033907 -0.000321184 6.22478e-21)
(0.000363971 -0.00031127 2.75546e-21)
(0.000388147 -0.000300959 -1.83907e-21)
(0.000411572 -0.00029031 -4.63409e-22)
(0.000434218 -0.000279378 1.62391e-21)
(0.000456063 -0.000268212 -8.48859e-22)
(0.000477087 -0.000256858 -2.47948e-21)
(0.000497275 -0.000245356 -4.43067e-22)
(0.000535075 -0.000222039 1.20409e-21)
(0.000552663 -0.000210279 -1.21016e-21)
(0.00056936 -0.000198482 1.03766e-21)
(0.000585156 -0.000186664 1.08409e-21)
(0.00060004 -0.000174842 -3.13345e-21)
(0.000614005 -0.000163026 9.11297e-23)
(0.000627041 -0.000151225 2.97192e-21)
(0.000639142 -0.000139446 -3.18859e-22)
(0.000650301 -0.000127693 -1.8019e-21)
(0.000660512 -0.000115968 1.56096e-22)
(0.000669769 -0.000104271 7.54056e-23)
(0.000678067 -9.26039e-05 -9.30212e-22)
(0.000685401 -8.09634e-05 2.33018e-22)
(0.000691767 -6.93481e-05 1.03376e-21)
(0.000697161 -5.77548e-05 -1.90828e-22)
(0.000701579 -4.61806e-05 -9.03605e-22)
(0.000705018 -3.46217e-05 2.03394e-22)
(0.000707477 -2.30746e-05 1.50743e-23)
(0.000708952 -1.15353e-05 3.32921e-22)
(0.000712312 0 0)
(0.000714777 0 0)
(0.000716863 0 0)
(0.000718673 0 0)
(0.000720225 0 0)
(0.000721587 0 0)
(0.000722778 0 0)
(0.000723844 0 0)
(0.000724801 0 0)
(0.000725683 0 0)
(0.0007265 0 0)
(0.000727278 0 0)
(0.000728025 0 0)
(0.000728759 0 0)
(0.000729487 0 0)
(0.000730221 0 0)
(0.000730966 0 0)
(0.000731731 0 0)
(0.000732522 0 0)
(0.000732737 -2.51881e-06 0)
(0.000730016 -5.13294e-06 0)
(0.000725498 -7.93747e-06 0)
(0.000719211 -1.10232e-05 0)
(0.00071119 -1.44848e-05 0)
(0.000701496 -1.8392e-05 0)
(0.000690185 -2.28526e-05 0)
(0.000677294 -2.79566e-05 0)
(0.000662918 -3.37443e-05 0)
(0.000647144 -4.02957e-05 0)
(0.000630054 -4.76712e-05 0)
(0.000611747 -5.5923e-05 0)
(0.000592322 -6.50967e-05 0)
(0.000571886 -7.52275e-05 0)
(0.000550546 -8.63446e-05 0)
(0.000528415 -9.84669e-05 0)
(0.000505593 -0.000111617 0)
(0.000482192 -0.000125792 0)
(0.000458283 -0.000141 0)
(0.000735573 0 0)
(0.000738062 0 0)
(0.000740845 0 0)
(0.000743939 0 0)
(0.000747346 0 0)
(0.000751075 0 0)
(0.00075512 0 0)
(0.00075948 0 0)
(0.000764147 0 0)
(0.000769115 0 0)
(0.000774377 0 0)
(0.000779923 0 0)
(0.000785746 0 0)
(0.000791836 0 0)
(0.000798186 0 0)
(0.000804786 0 0)
(0.000811629 0 0)
(0.000818704 0 0)
(0.000826004 0 0)
(0.000833519 0 0)
(0.000841241 0 0)
(0.00084916 0 0)
(0.000857267 0 0)
(0.000865553 0 0)
(0.000874008 0 0)
(0.000882621 0 0)
(0.000891383 0 0)
(0.000900281 0 0)
(0.000909305 0 0)
(0.000918442 0 0)
(0.000927677 0 0)
(0.000936999 0 0)
(0.000946389 0 0)
(0.000955835 0 0)
(0.000965312 0 0)
(0.000974807 0 0)
(0.000984288 0 0)
(0.000993742 0 0)
(0.00100313 0 0)
(0.00101232 -7.22163e-07 5.34581e-22)
(0.00101199 -1.45679e-06 1.10393e-21)
(0.00101145 -2.21624e-06 1.07963e-21)
(0.00101069 -3.01274e-06 -1.50123e-24)
(0.00100973 -3.85824e-06 -1.13682e-21)
(0.00100856 -4.76437e-06 -9.18935e-23)
(0.0010072 -5.74232e-06 1.178e-21)
(0.00100565 -6.80288e-06 1.32548e-21)
(0.00100391 -7.95613e-06 1.39427e-22)
(0.00100202 -9.2117e-06 -5.32346e-22)
(0.000999958 -1.05783e-05 5.38721e-22)
(0.000997754 -1.20641e-05 3.38407e-22)
(0.000995418 -1.36761e-05 1.31387e-23)
(0.000992961 -1.5421e-05 7.61751e-22)
(0.0009904 -1.73037e-05 -1.59138e-22)
(0.000987747 -1.9329e-05 6.51257e-22)
(0.000985019 -2.14998e-05 3.19378e-21)
(0.00098223 -2.38185e-05 1.45331e-22)
(0.000979398 -2.62862e-05 -1.93283e-21)
(0.000964939 -3.21799e-05 0)
(0.000952931 -3.52017e-05 0)
(0.000940895 -3.77164e-05 0)
(0.00092883 -3.9762e-05 0)
(0.000916731 -4.141e-05 0)
(0.0009046 -4.26967e-05 0)
(0.000892436 -4.36702e-05 0)
(0.000880242 -4.43635e-05 0)
(0.000868019 -4.48132e-05 0)
(0.00085577 -4.50498e-05 0)
(0.000843498 -4.51051e-05 0)
(0.000831205 -4.50084e-05 0)
(0.000818892 -4.47903e-05 0)
(0.000806561 -4.44805e-05 0)
(0.000794208 -4.41106e-05 0)
(0.000781835 -4.37118e-05 0)
(0.000769436 -4.33174e-05 0)
(0.000757005 -4.29636e-05 0)
(0.000744539 -4.2687e-05 0)
(0.000732027 -4.2526e-05 0)
(0.000719457 -4.25226e-05 0)
(0.000706816 -4.27214e-05 0)
(0.000694085 -4.31704e-05 0)
(0.000681246 -4.39202e-05 0)
(0.000668274 -4.50268e-05 0)
(0.000655143 -4.6548e-05 0)
(0.000641824 -4.85486e-05 0)
(0.00062828 -5.1101e-05 0)
(0.000614477 -5.42779e-05 0)
(0.000600369 -5.81606e-05 0)
(0.000585918 -6.28363e-05 0)
(0.000571075 -6.83939e-05 0)
(0.00055579 -7.49579e-05 0)
(0.000540024 -8.26094e-05 0)
(0.000523727 -9.14846e-05 0)
(0.000506862 -0.000101666 0)
(0.000489407 -0.000113316 0)
(0.000471304 -0.000126453 0)
(0.000452625 -0.000141294 0)
(0.000975262 -3.0109e-05 1.13964e-21)
(0.000973985 -3.13491e-05 -6.00406e-22)
(0.000972708 -3.26177e-05 -1.17106e-21)
(0.000971432 -3.39153e-05 -5.75674e-22)
(0.000970159 -3.5241e-05 -5.75674e-22)
(0.00096889 -3.65948e-05 1.31796e-23)
(0.000967626 -3.7976e-05 -5.67308e-22)
(0.000966369 -3.93844e-05 -1.16888e-21)
(0.00096512 -4.08192e-05 -4.84492e-24)
(0.000963879 -4.22799e-05 5.74595e-22)
(0.000962648 -4.3766e-05 -8.95356e-24)
(0.000961429 -4.52766e-05 -2.30578e-23)
(0.000960222 -4.6811e-05 -6.12266e-22)
(0.000959028 -4.83685e-05 -1.10185e-21)
(0.000957848 -4.99481e-05 6.70879e-22)
(0.000956684 -5.15489e-05 5.90563e-22)
(0.000955536 -5.317e-05 5.95234e-22)
(0.000954404 -5.48104e-05 5.93015e-22)
(0.00095329 -5.64689e-05 1.01861e-24)
(0.000952194 -5.81444e-05 2.1984e-21)
(0.000951117 -5.98358e-05 5.10782e-22)
(0.000950059 -6.15418e-05 -1.09142e-21)
(0.00094902 -6.32612e-05 1.07431e-21)
(0.000948001 -6.49926e-05 4.74023e-22)
(0.000947001 -6.67347e-05 -1.65707e-21)
(0.000946021 -6.8486e-05 -1.05678e-21)
(0.00094506 -7.02451e-05 -6.01888e-22)
(0.000944118 -7.20107e-05 3.87672e-25)
(0.000943194 -7.37812e-05 4.19908e-22)
(0.000942288 -7.5555e-05 -1.82368e-22)
(0.000941399 -7.73308e-05 -1.00785e-21)
(0.000940524 -7.91071e-05 -1.00785e-21)
(0.000939664 -8.08823e-05 -9.95497e-22)
(0.000938816 -8.26552e-05 -3.92307e-22)
(0.000937977 -8.44241e-05 4.79885e-26)
(0.000937146 -8.61879e-05 -9.38253e-26)
(0.00093632 -8.79451e-05 7.62304e-22)
(0.000935494 -8.96942e-05 1.59256e-22)
(0.000934665 -9.14343e-05 6.02442e-22)
(0.000921071 -9.58057e-05 2.57992e-22)
(0.000908357 -9.8403e-05 1.80723e-22)
(0.000895673 -0.000100893 2.55195e-22)
(0.000882977 -0.000103233 8.42401e-22)
(0.000870231 -0.000105389 8.10234e-22)
(0.000857387 -0.000107348 2.34181e-22)
(0.000844406 -0.00010911 2.40478e-22)
(0.000831248 -0.000110681 -4.22739e-24)
(0.000817878 -0.000112078 4.89682e-24)
(0.000804262 -0.000113321 2.76018e-22)
(0.000790369 -0.000114436 -1.49975e-23)
(0.00077617 -0.000115452 -3.09204e-22)
(0.000761639 -0.0001164 7.10984e-24)
(0.00074675 -0.000117317 3.14842e-22)
(0.000731479 -0.00011824 3.44673e-22)
(0.000715804 -0.00011921 6.56537e-22)
(0.000699703 -0.00012027 3.2539e-22)
(0.000683158 -0.000121467 -2.03666e-23)
(0.000666149 -0.000122848 -2.03666e-23)
(0.000648661 -0.000124466 3.90988e-22)
(0.000630679 -0.000126375 1.17004e-21)
(0.000612193 -0.00012863 7.39457e-22)
(0.000593208 -0.000131289 -3.95975e-23)
(0.000573692 -0.000134421 1.21022e-21)
(0.000553653 -0.000138088 1.27405e-21)
(0.000533102 -0.000142353 1.059e-21)
(0.000512041 -0.000147287 1.69144e-21)
(0.000490494 -0.00015296 5.93419e-23)
(0.000468483 -0.000159436 -6.36939e-22)
(0.000446041 -0.000166782 4.58515e-22)
(0.000423212 -0.000175061 -6.58822e-24)
(0.000400048 -0.000184325 -1.0907e-21)
(0.000376616 -0.000194627 -1.09976e-21)
(0.000352992 -0.000205999 -7.62265e-22)
(0.000329261 -0.000218471 -4.93086e-22)
(0.000305534 -0.000232052 -9.00617e-22)
(0.000281914 -0.000246717 -1.39671e-21)
(0.000258541 -0.000262442 -4.48748e-22)
(0.000235531 -0.000279136 -1.99976e-22)
(0.000220073 -0.000292567 0)
(0.000225533 -0.000289583 0)
(0.00023086 -0.000286617 0)
(0.000236062 -0.00028366 0)
(0.000241153 -0.000280707 0)
(0.000246143 -0.000277751 0)
(0.000251045 -0.000274789 0)
(0.000255869 -0.000271814 0)
(0.000260627 -0.000268823 0)
(0.000265329 -0.000265811 0)
(0.000269987 -0.000262775 0)
(0.00027461 -0.000259711 0)
(0.00027921 -0.000256618 0)
(0.000283796 -0.000253492 0)
(0.00028838 -0.000250331 0)
(0.00029297 -0.000247134 0)
(0.000297577 -0.000243899 0)
(0.000302212 -0.000240625 0)
(0.000306883 -0.000237312 0)
(0.0003116 -0.000233957 0)
(0.000316373 -0.000230562 0)
(0.000321211 -0.000227126 0)
(0.000326123 -0.00022365 0)
(0.000331117 -0.000220135 0)
(0.000336204 -0.000216581 0)
(0.000341391 -0.000212991 0)
(0.000346686 -0.000209365 0)
(0.000352097 -0.000205707 0)
(0.000357632 -0.000202019 0)
(0.000363297 -0.000198305 0)
(0.000369102 -0.000194569 0)
(0.000375049 -0.000190812 0)
(0.000381138 -0.000187039 0)
(0.000387378 -0.000183255 0)
(0.000393773 -0.000179468 0)
(0.000400325 -0.000175674 0)
(0.000407036 -0.000171889 0)
(0.000413918 -0.0001681 0)
(0.00042095 -0.000164333 0)
(0.000197315 -0.000309847 4.45656e-22)
(0.000181935 -0.000323299 4.42826e-22)
(0.000166991 -0.000337008 5.34085e-22)
(0.000152544 -0.000350874 -2.42284e-22)
(0.000138631 -0.000364809 8.28915e-22)
(0.000125297 -0.000378709 1.98345e-21)
(0.000112575 -0.000392455 2.54595e-22)
(0.00010049 -0.000405932 -1.06181e-21)
(8.90604e-05 -0.000419006 2.34428e-22)
(7.82911e-05 -0.00043155 8.48049e-22)
(6.81802e-05 -0.000443423 -3.99612e-22)
(5.8708e-05 -0.000454495 -4.55668e-23)
(4.98481e-05 -0.000464631 3.18244e-22)
(4.15564e-05 -0.000473708 -1.5406e-22)
(3.37807e-05 -0.000481608 3.37424e-22)
(2.6454e-05 -0.000488226 1.24565e-22)
(1.95013e-05 -0.000493472 -4.11871e-22)
(1.28367e-05 -0.000497274 -4.54828e-23)
(6.36868e-06 -0.000499576 3.25772e-22)
(0 -0.000499684 0)
(0 -0.000498989 0)
(0 -0.000498259 0)
(0 -0.000497502 0)
(0 -0.000496715 0)
(0 -0.000495904 0)
(0 -0.000495067 0)
(0 -0.000494209 0)
(0 -0.000493329 0)
(0 -0.000492431 0)
(0 -0.000491514 0)
(0 -0.000490581 0)
(0 -0.000489633 0)
(0 -0.000488671 0)
(0 -0.000487695 0)
(0 -0.000486708 0)
(0 -0.00048571 0)
(0 -0.000484702 0)
(0 -0.000483685 0)
(0 -0.00048266 0)
(0 -0.000481627 0)
(0 -0.000480587 0)
(0 -0.000479541 0)
(0 -0.000478488 0)
(0 -0.000477431 0)
(0 -0.000476368 0)
(0 -0.000475301 0)
(0 -0.000474229 0)
(0 -0.000473153 0)
(0 -0.000472073 0)
(0 -0.000470989 0)
(0 -0.000469902 0)
(0 -0.00046881 0)
(0 -0.000467714 0)
(0 -0.000466615 0)
(0 -0.000465511 0)
(0 -0.000464402 0)
(0 -0.000463288 0)
(0 -0.000462168 0)
(2.82441e-05 -0.000393582 0)
(2.6851e-05 -0.000400251 0)
(2.56285e-05 -0.000406141 0)
(2.45561e-05 -0.000411447 0)
(2.3613e-05 -0.000416201 0)
(2.27839e-05 -0.000420539 0)
(2.20523e-05 -0.000424488 0)
(2.14069e-05 -0.000428138 0)
(2.08358e-05 -0.000431514 0)
(2.03302e-05 -0.000434675 0)
(1.98813e-05 -0.000437644 0)
(1.94819e-05 -0.000440462 0)
(1.91255e-05 -0.000443146 0)
(1.88061e-05 -0.000445724 0)
(1.85183e-05 -0.000448211 0)
(1.82577e-05 -0.000450626 0)
(1.80187e-05 -0.000452978 0)
(1.77988e-05 -0.000455283 0)
(1.75916e-05 -0.000457546 0)
(5.64452e-05 -0.000391807 0)
(5.36796e-05 -0.000398265 0)
(5.12529e-05 -0.00040397 0)
(4.91201e-05 -0.000409113 0)
(4.72478e-05 -0.000413722 0)
(4.56051e-05 -0.000417931 0)
(4.41522e-05 -0.000421762 0)
(4.28718e-05 -0.000425304 0)
(4.17374e-05 -0.00042858 0)
(4.07332e-05 -0.000431649 0)
(3.98413e-05 -0.000434531 0)
(3.90479e-05 -0.000437266 0)
(3.83399e-05 -0.000439872 0)
(3.77057e-05 -0.000442374 0)
(3.71345e-05 -0.000444786 0)
(3.66174e-05 -0.000447128 0)
(3.61439e-05 -0.000449409 0)
(3.57086e-05 -0.000451642 0)
(3.5299e-05 -0.000453834 0)
(8.45575e-05 -0.00038888 0)
(8.04668e-05 -0.000394991 0)
(7.68747e-05 -0.000400395 0)
(7.37181e-05 -0.000405269 0)
(7.0944e-05 -0.000409633 0)
(6.85067e-05 -0.000413627 0)
(6.6352e-05 -0.000417266 0)
(6.44516e-05 -0.000420631 0)
(6.27684e-05 -0.000423745 0)
(6.12779e-05 -0.000426661 0)
(5.99545e-05 -0.000429401 0)
(5.87775e-05 -0.000432001 0)
(5.77275e-05 -0.000434477 0)
(5.67875e-05 -0.000436854 0)
(5.59416e-05 -0.000439145 0)
(5.51767e-05 -0.000441368 0)
(5.44774e-05 -0.000443532 0)
(5.38356e-05 -0.000445649 0)
(5.32332e-05 -0.000447724 0)
(0.000112542 -0.000384828 0)
(0.000107187 -0.000390465 0)
(0.000102484 -0.000395454 0)
(9.83225e-05 -0.000399954 0)
(9.46864e-05 -0.000403992 0)
(9.15159e-05 -0.000407697 0)
(8.86896e-05 -0.000411071 0)
(8.61982e-05 -0.000414193 0)
(8.39883e-05 -0.000417084 0)
(8.20305e-05 -0.000419792 0)
(8.02926e-05 -0.000422337 0)
(7.87467e-05 -0.000424751 0)
(7.73686e-05 -0.00042705 0)
(7.61357e-05 -0.000429257 0)
(7.50276e-05 -0.000431383 0)
(7.40268e-05 -0.000433445 0)
(7.31142e-05 -0.000435449 0)
(7.22783e-05 -0.00043741 0)
(7.14968e-05 -0.000439328 0)
(0.000140348 -0.000379687 0)
(0.000133819 -0.000384737 0)
(0.000128078 -0.00038921 0)
(0.000123001 -0.000393255 0)
(0.00011855 -0.0003969 0)
(0.000114662 -0.00040024 0)
(0.000111202 -0.000403282 0)
(0.000108148 -0.000406101 0)
(0.000105441 -0.000408708 0)
(0.000103041 -0.000411156 0)
(0.000100912 -0.000413454 0)
(9.90177e-05 -0.000415638 0)
(9.73303e-05 -0.000417716 0)
(9.58219e-05 -0.000419712 0)
(9.4468e-05 -0.000421633 0)
(9.32474e-05 -0.000423495 0)
(9.21372e-05 -0.000425303 0)
(9.11232e-05 -0.00042707 0)
(9.01796e-05 -0.000428796 0)
(0.000167933 -0.000373559 0)
(0.000160345 -0.00037792 0)
(0.000153657 -0.000381783 0)
(0.000147805 -0.000385302 0)
(0.000142606 -0.000388464 0)
(0.00013799 -0.000391355 0)
(0.000133938 -0.000394002 0)
(0.000130347 -0.000396458 0)
(0.000127173 -0.000398734 0)
(0.00012436 -0.000400874 0)
(0.000121864 -0.000402885 0)
(0.000119646 -0.000404798 0)
(0.000117671 -0.000406619 0)
(0.000115908 -0.000408368 0)
(0.000114327 -0.000410051 0)
(0.000112905 -0.000411682 0)
(0.000111616 -0.000413263 0)
(0.000110442 -0.000414807 0)
(0.000109356 -0.000416311 0)
(0.00019524 -0.000366508 0)
(0.000186695 -0.000370083 0)
(0.000179152 -0.000373254 0)
(0.000172543 -0.000376157 0)
(0.000166676 -0.000378756 0)
(0.000161459 -0.000381151 0)
(0.000156872 -0.000383351 0)
(0.000152805 -0.000385399 0)
(0.000149208 -0.000387304 0)
(0.000146019 -0.000389098 0)
(0.000143189 -0.000390788 0)
(0.000140675 -0.000392396 0)
(0.000138438 -0.000393929 0)
(0.000136443 -0.000395403 0)
(0.000134657 -0.00039682 0)
(0.000133054 -0.000398194 0)
(0.000131606 -0.000399524 0)
(0.000130292 -0.000400822 0)
(0.000129083 -0.000402082 0)
(0.000222244 -0.000358573 0)
(0.000212861 -0.000361291 0)
(0.00020457 -0.000363708 0)
(0.000197268 -0.000365931 0)
(0.000190805 -0.000367929 0)
(0.000185085 -0.00036979 0)
(0.000180023 -0.000371502 0)
(0.000175537 -0.000373103 0)
(0.000171564 -0.000374599 0)
(0.000168038 -0.000376013 0)
(0.00016491 -0.000377349 0)
(0.000162131 -0.000378625 0)
(0.000159659 -0.000379843 0)
(0.000157457 -0.000381017 0)
(0.000155491 -0.000382147 0)
(0.000153729 -0.000383243 0)
(0.000152143 -0.000384303 0)
(0.00015071 -0.000385337 0)
(0.0001494 -0.000386338 0)
(0.000248886 -0.000349853 0)