/*--------------------------------*- C++ -*----------------------------------*\
| =========                 |                                                 |
| \\      /  F ield         | OpenFOAM: The Open Source CFD Toolbox           |
|  \\    /   O peration     | Version:  v2012                                 |
|   \\  /    A nd           | Website:  www.openfoam.com                      |
|    \\/     M anipulation  |                                                 |
\*---------------------------------------------------------------------------*/
FoamFile
{
    version     2.0;
    format      ascii;
    class       volScalarField;
    location    "2";
    object      sigmaEq;
}
// * * * * * * * * * * * * * * * * * * * * * * * * * * * * * * * * * * * * * //

dimensions      [1 -1 -2 0 0 0 0];


internalField   nonuniform List<scalar> 
30465
(
2.99726e+07
2.15563e+07
4.26479e+07
2.76932e+07
2.55122e+07
2.53503e+07
4.10796e+07
3.32892e+07
4.1885e+07
4.15733e+07
2.80184e+07
4.03385e+07
2.87426e+07
2.41527e+07
3.73863e+07
4.16763e+07
2.56173e+07
4.29206e+07
4.23315e+07
2.33453e+07
1.49359e+07
1.49755e+07
2.23771e+07
3.86237e+07
2.26995e+07
2.13897e+07
2.1463e+07
2.11342e+07
1.94952e+07
4.63547e+07
3.31575e+07
1.9694e+07
2.9561e+07
2.64908e+07
3.15618e+07
1.93057e+07
4.10738e+07
1.97899e+07
2.5727e+07
4.07018e+07
1.99439e+07
3.60894e+07
3.80823e+07
2.09469e+07
2.0903e+07
4.42491e+07
3.9219e+07
2.15101e+07
2.08953e+07
1.78286e+07
1.81405e+07
2.66896e+07
3.15117e+07
3.15204e+07
6.87496e+07
2.3863e+07
6.80889e+07
2.31336e+07
1.97863e+07
1.82177e+07
1.8159e+07
4.31985e+07
1.51672e+07
3.16987e+07
3.14798e+07
2.87897e+07
3.37659e+07
4.47732e+07
1.14255e+07
2.38988e+07
2.44187e+07
2.17688e+07
4.18639e+07
3.88193e+07
2.96257e+07
4.13759e+07
1.83172e+07
1.82785e+07
2.44252e+07
2.96141e+07
3.78331e+07
3.74683e+07
2.56632e+07
2.17069e+07
2.74232e+07
2.09177e+07
1.99157e+07
4.09467e+07
2.50521e+07
1.75977e+07
1.9406e+07
1.93245e+07
2.55504e+07
2.54842e+07
4.18368e+07
1.9181e+07
2.02819e+07
2.02301e+07
3.23602e+07
1.96813e+07
2.69275e+07
1.58791e+07
1.61133e+07
3.26048e+07
2.3337e+07
3.64968e+07
3.64873e+07
2.17429e+07
2.45205e+07
1.65495e+07
4.33482e+07
2.78218e+07
3.24664e+07
3.23009e+07
3.03635e+07
3.00305e+07
8.75305e+06
2.18713e+07
1.84002e+07
5.33588e+07
4.11718e+07
1.93067e+07
2.54583e+07
1.14834e+07
2.09375e+07
2.07977e+07
1.16138e+07
3.07986e+07
2.32061e+07
1.57038e+07
4.42138e+07
1.82985e+07
4.33461e+07
3.72466e+07
2.26734e+07
1.30097e+07
4.07526e+07
2.17779e+07
4.13664e+07
4.06209e+07
2.55851e+07
3.32962e+07
8.1355e+06
2.02397e+07
1.79603e+07
4.4267e+07
1.915e+07
1.91206e+07
3.40837e+07
1.7409e+07
2.37334e+07
3.5732e+07
2.03047e+07
2.03152e+07
2.69294e+07
2.53991e+07
3.51821e+07
2.56758e+07
3.83057e+07
2.01592e+07
2.01067e+07
3.87987e+07
3.49971e+07
3.52922e+07
9.16684e+06
1.8231e+07
2.01268e+07
4.02149e+07
2.2165e+07
3.88328e+07
2.81743e+07
1.85936e+07
1.94512e+07
1.94126e+07
2.18929e+07
3.92726e+07
3.05681e+07
3.1112e+07
8.58304e+06
3.21738e+07
4.03696e+07
3.11245e+07
3.1186e+07
2.43004e+07
2.31423e+07
2.84556e+07
3.59992e+07
2.17228e+07
1.83209e+07
2.53504e+07
4.1442e+07
2.1468e+07
1.80344e+07
3.23961e+07
2.57525e+07
2.58381e+07
4.105e+07
2.55702e+07
2.48478e+07
3.01068e+07
1.85189e+07
1.96206e+07
1.78175e+07
3.89324e+07
3.09266e+07
2.53634e+07
1.36708e+07
3.96483e+07
3.22874e+07
1.94138e+07
4.20346e+07
2.49666e+07
1.03114e+07
2.06653e+07
4.41246e+07
3.52771e+07
3.5475e+07
2.17282e+07
2.16315e+07
4.10374e+07
2.97499e+07
2.86735e+07
2.01261e+07
2.27324e+07
3.35771e+07
1.82121e+07
4.32445e+07
3.70476e+07
1.74959e+07
2.82815e+07
4.34964e+07
1.97835e+07
1.97897e+07
2.39214e+07
2.35877e+07
1.0836e+07
3.01348e+07
2.98711e+07
3.97823e+07
3.97971e+07
3.98657e+07
2.80233e+07
2.71922e+07
3.13368e+07
2.12271e+07
3.78305e+07
3.2083e+07
2.91717e+07
4.50697e+07
2.36259e+07
2.52053e+07
1.48019e+07
1.44739e+07
4.34221e+07
3.04108e+07
4.38688e+07
4.11135e+07
4.18858e+07
3.45259e+07
3.93564e+07
2.17371e+07
2.55122e+07
2.61366e+07
1.33193e+07
4.51062e+07
4.51247e+07
2.50756e+07
3.82671e+07
2.99131e+07
2.44148e+07
1.82115e+07
2.37563e+07
1.96544e+07
2.54957e+07
2.2525e+07
3.84744e+07
1.88852e+07
2.67953e+07
4.59208e+07
1.43779e+07
4.61078e+07
2.87585e+07
2.04251e+07
2.41865e+07
1.94359e+07
2.37434e+07
3.50602e+07
2.17493e+07
1.73363e+07
2.3716e+07
3.09945e+07
2.93107e+07
2.53918e+07
4.37681e+07
1.84107e+07
2.26739e+07
1.83091e+07
1.06245e+07
1.07101e+07
1.87744e+07
2.84046e+07
2.83482e+07
4.18746e+07
1.69099e+07
1.64565e+07
3.97931e+07
3.98293e+07
1.86358e+07
2.26074e+07
2.56372e+06
2.8621e+07
2.87623e+07
3.43159e+07
2.26036e+07
4.57817e+07
3.17904e+07
3.89007e+07
3.9295e+07
3.75265e+07
6.15332e+07
3.68434e+07
6.08254e+07
3.95787e+07
1.40818e+07
2.24261e+07
2.2173e+07
5.62444e+07
3.61359e+07
2.52052e+07
4.42573e+07
7.25327e+06
4.14119e+07
1.50143e+07
3.32583e+07
2.01278e+07
3.70192e+07
2.0023e+07
2.06929e+07
2.05155e+07
3.67537e+07
3.46398e+07
2.69018e+07
4.44466e+07
2.00073e+07
2.41518e+07
3.6222e+07
3.64278e+07
4.0554e+07
3.86842e+07
1.90743e+07
3.54146e+07
1.75716e+07
3.47535e+07
3.31231e+07
2.78497e+07
3.50574e+07
1.29839e+07
3.9207e+07
2.36347e+07
1.95887e+07
3.7745e+07
3.73307e+07
2.09987e+07
2.37751e+07
1.83911e+07
4.04714e+07
2.97271e+07
1.08767e+07
1.8961e+07
3.18875e+07
7.41698e+07
1.92483e+07
4.04855e+07
3.89715e+07
3.89105e+07
3.57781e+07
2.42499e+07
3.10565e+07
2.21158e+07
2.6019e+07
2.9776e+07
2.395e+07
2.31474e+07
3.58093e+07
3.45216e+07
1.7354e+07
1.13735e+07
4.0201e+07
4.02962e+07
1.17975e+07
4.64142e+07
1.52166e+07
1.67884e+07
1.73349e+07
2.9131e+07
2.39179e+07
1.00955e+07
1.77983e+07
2.40073e+07
2.39473e+07
1.85055e+07
1.86452e+07
3.09019e+07
1.05996e+07
3.11041e+07
2.80876e+07
3.2603e+07
2.8366e+07
2.39686e+07
1.65676e+07
2.37559e+07
3.4725e+07
2.02533e+07
3.73131e+07
2.68767e+07
1.79947e+07
1.90442e+07
4.86968e+07
3.98056e+07
4.00167e+07
1.94569e+07
3.70136e+07
4.29142e+07
3.4356e+07
1.80336e+07
3.43893e+07
4.14836e+07
3.01664e+07
2.77239e+07
3.45359e+07
4.42508e+07
2.09964e+07
1.74654e+07
2.50605e+07
2.49922e+07
2.37848e+07
1.68396e+07
2.64181e+07
4.74193e+07
1.34649e+07
4.45644e+07
2.52073e+07
2.52181e+07
3.92002e+07
1.83278e+07
1.9547e+07
3.05802e+07
3.05407e+07
3.93326e+07
1.80337e+07
2.9206e+07
2.63358e+07
1.99539e+07
3.46127e+07
3.05774e+07
3.9034e+07
2.5565e+07
2.1797e+07
2.16271e+07
1.5188e+07
2.25871e+07
2.27015e+07
4.18784e+07
1.90273e+07
2.10937e+07
3.11724e+07
2.40202e+07
1.82999e+07
2.70639e+07
2.69235e+07
4.17827e+07
4.14363e+07
2.59993e+07
2.66172e+07
2.06119e+07
4.11766e+07
1.93486e+07
1.93473e+07
8.21992e+06
2.44519e+07
2.40795e+07
2.4085e+07
2.26575e+07
2.50866e+07
3.77992e+07
2.10148e+07
3.58041e+07
3.58612e+07
2.64699e+07
3.48504e+07
1.97981e+07
1.82335e+07
2.39335e+07
3.79791e+07
4.37666e+07
3.97532e+07
2.41407e+07
2.03146e+07
2.48155e+07
2.52508e+07
4.19054e+07
2.11931e+07
2.12784e+07
5.57232e+07
2.03203e+07
3.10579e+07
2.2065e+07
4.1049e+07
1.80615e+07
4.43931e+07
4.53036e+07
3.92847e+07
2.88006e+07
1.97505e+07
2.13946e+07
2.14866e+07
2.16677e+07
9.3221e+06
2.97485e+07
3.46398e+07
5.71406e+07
3.27978e+07
3.6867e+07
2.38194e+07
2.17368e+07
3.04816e+07
4.25721e+07
3.43022e+07
2.8386e+07
1.93489e+07
2.18371e+07
1.75313e+07
3.71573e+07
1.1809e+07
4.19235e+07
1.66587e+07
5.53681e+07
2.05903e+07
2.45146e+07
3.85635e+07
2.73627e+07
3.2795e+07
2.86523e+07
5.18777e+07
5.02819e+07
3.73155e+07
2.21427e+07
2.22238e+07
3.57779e+07
2.46343e+07
3.27754e+07
4.33778e+07
2.4556e+07
2.61724e+07
1.83031e+07
3.50731e+07
3.22538e+07
1.90811e+07
2.89397e+07
3.71822e+07
2.54966e+07
1.86908e+07
3.22694e+07
5.82565e+07
4.9375e+07
2.20744e+07
2.26249e+07
2.06908e+07
1.49175e+07
1.45598e+07
3.65886e+07
2.64874e+07
8.55063e+06
3.74341e+07
2.56866e+07
3.74656e+07
1.91436e+07
1.9156e+07
3.35862e+07
2.73522e+07
4.10954e+07
2.27894e+07
1.2289e+07
1.7371e+07
1.78024e+07
2.73311e+07
2.42605e+07
2.33755e+07
2.44352e+07
2.4356e+07
2.37569e+07
1.73752e+07
2.37723e+07
1.68155e+07
4.37605e+07
2.26263e+07
2.25819e+07
3.43154e+07
3.17672e+07
2.32166e+07
3.05915e+07
2.03414e+07
1.99936e+07
2.02152e+07
4.43467e+07
1.73254e+07
1.63802e+07
1.63287e+07
3.48609e+07
3.03331e+07
4.05998e+07
4.06851e+07
3.84394e+07
2.44086e+07
5.60954e+07
3.01707e+07
4.15661e+07
2.75014e+07
5.69668e+07
4.25005e+07
1.91008e+07
1.74951e+07
3.46667e+07
1.83425e+07
1.60871e+07
4.48489e+07
1.953e+07
2.69679e+07
1.94343e+07
2.78059e+07
1.22004e+07
3.47859e+07
3.86413e+07
1.97406e+07
1.98789e+07
2.0203e+07
3.21884e+07
1.96095e+07
1.02301e+07
1.93843e+07
3.09762e+07
3.80129e+07
1.70736e+07
1.90584e+07
2.09733e+07
3.67003e+07
3.49717e+07
3.87461e+07
1.88001e+07
2.51352e+07
2.38571e+07
4.85818e+07
1.88494e+07
2.05471e+07
2.85362e+07
1.81544e+07
2.35572e+07
2.2103e+07
2.37557e+07
4.04522e+07
1.50488e+07
1.98029e+07
1.97733e+07
2.32662e+07
1.72482e+07
2.37416e+07
2.30442e+07
2.30156e+07
2.31114e+07
4.03139e+07
2.26688e+07
2.34515e+07
1.06244e+07
4.89803e+07
4.13131e+07
2.55382e+07
2.47103e+07
4.24708e+07
2.01449e+07
2.47997e+07
3.31049e+07
3.69144e+07
2.37695e+07
3.32229e+07
4.91574e+07
4.21656e+07
2.27353e+07
2.02067e+07
2.0277e+07
2.74299e+07
2.74022e+07
2.2804e+07
3.37732e+07
2.97316e+07
1.90335e+07
3.55005e+07
1.88894e+07
1.88006e+07
4.0508e+07
4.54056e+07
4.04283e+07
4.0083e+07
3.05578e+07
2.48885e+07
2.48596e+07
4.14598e+07
2.85032e+07
3.86979e+07
3.47775e+07
2.19305e+07
3.39036e+07
1.80715e+07
1.81618e+07
3.39996e+07
4.05045e+07
1.86572e+07
4.09189e+07
4.1057e+07
2.97936e+07
1.89929e+07
3.93347e+07
3.94332e+07
2.84889e+07
3.92763e+07
3.82582e+07
2.07792e+07
2.95606e+07
4.75297e+07
3.30555e+07
2.55343e+07
2.07681e+07
2.08192e+07
3.29478e+07
5.31483e+07
3.33588e+07
5.14822e+07
1.85829e+07
2.8562e+07
3.58578e+07
3.02647e+07
2.11844e+07
2.08945e+07
1.53772e+07
1.53546e+07
3.93738e+07
5.09402e+07
5.13632e+07
3.30658e+07
4.14492e+07
2.53215e+07
2.67929e+07
4.11331e+07
4.50746e+07
1.78359e+07
4.57343e+07
3.77609e+07
4.23422e+07
2.48154e+07
3.52335e+07
1.66381e+07
2.75803e+07
1.62753e+07
4.40644e+07
1.79199e+07
1.77272e+07
3.44109e+07
3.17919e+07
1.59089e+07
1.57054e+07
1.83625e+07
3.28424e+07
3.25113e+07
1.29294e+07
2.54344e+07
2.62425e+07
2.33034e+07
3.56481e+07
3.58837e+07
1.82939e+07
4.48898e+07
2.95122e+07
1.80049e+07
3.04475e+07
1.98954e+07
1.9959e+07
3.23083e+07
2.99072e+07
2.39054e+07
2.39753e+07
2.99417e+07
2.31719e+07
2.31947e+07
4.23456e+07
2.02429e+07
3.60055e+07
2.38309e+07
2.24584e+07
2.61282e+07
2.31225e+07
1.73475e+07
8.99702e+06
3.18663e+07
1.87015e+07
1.86914e+07
3.59329e+07
3.82936e+07
1.80665e+07
3.49685e+07
1.24148e+07
1.02002e+07
2.13019e+07
3.82814e+07
1.96338e+07
1.9837e+07
2.12407e+07
2.12114e+07
1.76155e+07
2.44536e+07
2.45182e+07
1.59855e+07
1.5967e+07
1.14122e+07
2.27429e+07
2.27831e+07
8.76137e+06
2.25428e+07
3.62994e+07
2.10381e+07
2.50014e+07
2.38318e+07
2.50328e+07
1.52244e+07
3.92366e+07
3.77517e+07
4.27136e+07
2.26835e+07
2.64508e+07
4.29182e+07
3.97917e+07
4.02728e+07
3.32648e+07
1.1645e+07
2.46816e+07
2.99817e+07
2.35849e+07
2.34978e+07
3.00565e+07
2.99112e+07
1.33896e+07
4.0865e+07
4.09102e+07
2.83985e+07
4.65286e+07
2.8496e+07
2.86137e+07
5.05734e+07
2.26248e+07
3.91793e+07
1.77232e+07
1.2856e+07
3.99982e+07
1.5814e+07
4.34597e+07
2.10445e+07
3.95056e+07
3.3403e+07
2.1946e+07
4.27689e+07
2.46403e+07
3.07633e+07
4.04134e+07
2.43954e+07
1.27852e+07
4.04153e+07
4.35264e+07
2.099e+07
2.20508e+07
2.2113e+07
2.20791e+07
4.55109e+07
2.17516e+07
1.98851e+07
1.97474e+07
2.39339e+07
1.67648e+07
1.96062e+07
1.49871e+07
2.59904e+07
2.89889e+07
2.46976e+07
2.51061e+07
2.39661e+07
3.6359e+07
3.73905e+07
2.09521e+07
2.8688e+07
3.44951e+07
2.14546e+07
2.56885e+07
1.77677e+07
4.85582e+07
3.7043e+07
2.56494e+07
2.54527e+07
2.03135e+07
1.95975e+07
3.95837e+07
2.49004e+07
4.4384e+07
2.23647e+07
4.83544e+07
1.73155e+07
1.73188e+07
1.32189e+07
1.33452e+07
2.72436e+07
4.56523e+07
3.57628e+07
1.83212e+07
4.54863e+07
2.97718e+07
4.16835e+07
2.41622e+07
4.11683e+07
2.10026e+07
3.23613e+07
2.03763e+07
3.91923e+07
2.03284e+07
4.0655e+07
2.90141e+07
4.04635e+07
1.87361e+07
4.12715e+07
4.17382e+07
4.02546e+07
2.40888e+07
2.25052e+07
2.20219e+07
4.25145e+07
3.15079e+07
2.42538e+07
4.26693e+07
4.21987e+07
4.54724e+07
4.13145e+07
3.33074e+07
3.09448e+07
2.8662e+07
3.28904e+07
2.70268e+07
1.77897e+07
2.174e+07
3.88837e+07
1.82317e+07
3.01699e+07
2.10718e+07
4.19538e+07
2.38126e+07
1.80887e+07
1.86672e+07
1.85028e+07
3.33059e+07
3.99919e+07
4.08799e+07
3.95405e+07
2.59638e+07
3.41858e+07
1.50776e+07
2.58899e+07
3.75434e+07
4.79235e+07
2.70865e+07
1.55608e+07
2.28012e+07
2.61819e+07
2.21375e+07
2.27346e+07
3.80873e+07
1.55045e+07
2.73768e+07
3.00242e+07
1.38122e+07
2.00685e+07
2.32334e+07
2.53874e+07
4.12271e+07
1.81687e+07
2.97577e+07
2.46715e+07
2.29535e+07
2.30654e+07
1.48037e+07
1.15521e+07
1.11764e+07
3.3415e+07
2.82801e+07
4.49136e+07
6.10611e+07
3.11602e+07
2.41147e+07
3.92886e+07
1.77052e+07
2.52571e+07
2.12401e+07
2.56303e+07
3.64806e+07
3.62415e+07
9.9895e+06
7.11833e+07
1.29467e+07
7.12976e+07
2.07896e+07
3.21122e+07
1.73377e+07
1.72943e+07
3.13454e+07
3.05273e+07
1.97204e+07
3.38081e+07
1.87044e+07
3.94204e+07
3.93127e+07
2.30351e+07
2.48642e+07
3.83244e+07
3.57064e+07
2.4385e+07
2.43796e+07
3.49257e+07
1.33681e+07
1.93729e+07
3.42227e+07
1.85854e+07
1.75706e+07
1.38951e+07
7.73399e+07
2.58494e+07
1.98522e+07
2.21791e+07
1.85146e+07
2.04663e+07
3.79118e+07
3.4575e+07
3.77258e+07
2.39402e+07
2.28691e+07
3.80431e+07
2.86465e+07
2.75195e+07
1.9506e+07
2.89465e+07
1.35343e+07
1.82109e+07
2.38748e+07
4.20433e+07
2.01748e+07
4.52793e+07
3.48717e+07
4.05552e+07
2.00802e+07
1.99461e+07
2.3451e+07
1.05213e+07
2.43057e+07
2.4229e+07
1.08458e+07
4.72883e+07
1.78265e+07
2.17314e+07
3.91646e+07
2.83404e+07
2.8443e+07
1.80649e+07
3.26643e+07
4.2911e+07
4.48095e+07
2.4193e+07
3.25443e+07
2.28442e+07
2.31364e+07
3.81359e+07
2.81549e+07
1.55798e+07
1.57942e+07
4.12691e+07
3.47951e+07
3.86444e+07
2.17903e+07
2.28544e+07
3.74534e+07
2.08844e+07
3.93061e+07
2.22627e+07
2.56564e+07
5.06288e+07
1.77883e+07
6.891e+06
1.76961e+07
2.86819e+07
2.19772e+07
2.21723e+07
1.6279e+07
1.6151e+07
1.81521e+07
1.82e+07
3.42595e+07
2.64777e+07
2.24944e+07
1.90421e+07
1.7066e+07
2.38317e+07
3.17663e+07
1.42333e+07
3.57175e+07
2.8935e+07
3.69409e+07
1.33821e+07
3.05022e+07
2.41074e+07
1.2207e+07
1.23819e+07
4.02718e+07
2.46048e+07
2.5511e+07
3.77533e+07
1.83012e+07
1.829e+07
3.10303e+07
2.97214e+07
3.08737e+07
3.66408e+07
2.7e+07
1.31097e+07
4.39874e+07
1.40786e+07
2.96818e+07
3.68042e+07
3.2593e+07
2.99172e+07
3.58669e+07
2.14235e+07
2.14744e+07
1.13378e+07
1.79981e+07
1.85457e+07
1.84581e+07
1.30057e+07
1.78556e+07
2.4595e+07
1.95136e+07
1.79754e+07
2.89838e+07
1.89201e+07
4.01444e+07
2.91196e+07
4.01066e+07
2.69758e+07
1.9042e+07
1.8342e+07
1.82287e+07
3.8715e+07
3.14296e+07
1.03833e+07
1.83434e+07
2.95728e+07
3.64916e+07
2.36473e+07
2.35938e+07
2.19528e+07
3.27179e+07
2.69409e+07
4.19459e+07
2.99824e+07
3.38979e+07
3.25568e+07
1.96959e+07
2.94537e+07
2.2672e+07
3.41799e+07
2.26046e+07
2.15585e+07
1.94791e+07
2.34847e+07
1.10413e+07
2.90043e+07
3.46109e+07
4.34014e+07
1.24198e+07
1.85333e+07
2.22974e+07
4.00232e+07
2.76604e+07
2.76163e+07
2.589e+07
2.73e+07
1.81624e+07
1.8266e+07
2.25051e+07
2.62946e+07
3.48061e+07
3.48883e+07
2.01208e+07
3.56578e+07
2.52433e+07
2.53217e+07
5.10659e+07
1.80137e+07
2.3811e+07
1.3957e+07
3.70695e+07
2.7128e+07
2.72542e+07
1.79481e+07
4.26124e+07
3.63198e+07
2.13677e+07
1.33734e+07
4.0158e+07
2.24338e+07
2.38184e+07
1.82977e+07
1.82515e+07
3.42702e+07
1.8632e+07
3.45352e+07
2.5048e+07
2.50967e+07
4.42931e+07
3.46178e+07
1.8251e+07
8.34228e+07
3.45944e+07
1.75429e+07
2.36563e+07
2.2722e+07
2.12492e+07
4.86089e+07
2.4519e+07
4.19992e+07
2.10989e+07
3.12141e+07
2.35878e+07
2.11656e+07
2.09794e+07
2.77906e+07
1.65632e+07
4.48535e+07
3.41672e+07
3.444e+07
3.19977e+07
2.17392e+07
2.6282e+07
2.59861e+07
2.40066e+07
3.65847e+07
3.3649e+07
1.72164e+07
1.71674e+07
2.42372e+07
2.28254e+07
1.60758e+07
2.53668e+07
3.44385e+07
3.33849e+07
1.70645e+07
2.37844e+07
3.11685e+07
1.73457e+07
2.36879e+07
3.76037e+07
2.50609e+07
2.30939e+07
2.58566e+07
2.09602e+07
1.87398e+07
2.25738e+07
2.60544e+07
2.88795e+07
2.40078e+07
2.39279e+07
4.10933e+07
1.81977e+07
1.83113e+07
3.79242e+07
1.02066e+07
4.75223e+07
2.60413e+07
2.94004e+07
3.93675e+07
2.53571e+07
3.96875e+07
1.5082e+07
2.19252e+07
3.56199e+07
4.96021e+07
5.45622e+07
2.08322e+07
3.02597e+07
1.48555e+07
3.85156e+07
4.34968e+07
2.07458e+07
1.76561e+07
5.28497e+07
1.88787e+07
3.29709e+07
1.77556e+07
6.68863e+07
1.03363e+07
1.86306e+07
1.00335e+07
1.5947e+07
1.55715e+07
4.10923e+07
4.0703e+07
1.80807e+07
6.50236e+07
7.69277e+06
2.18207e+07
5.47025e+07
6.97942e+06
1.83407e+07
1.62316e+07
2.62528e+07
2.04122e+07
2.42855e+07
2.41545e+07
2.39211e+07
2.52123e+07
2.35859e+07
2.3388e+07
1.06331e+07
2.66856e+07
3.36884e+07
2.12029e+07
2.61597e+07
3.71883e+07
2.59355e+07
2.64938e+07
3.27141e+07
1.89258e+07
3.88777e+07
1.96504e+07
4.19275e+07
1.81261e+07
1.80296e+07
1.76006e+07
2.56963e+07
9.28681e+06
3.73192e+07
1.81091e+07
1.7672e+07
1.56464e+07
4.39518e+07
1.76075e+07
2.39664e+07
1.15488e+07
9.9441e+06
1.94885e+07
3.34117e+07
1.73228e+07
3.72493e+07
1.71876e+07
2.34308e+07
3.49829e+07
3.5262e+07
1.19151e+07
3.72622e+07
1.28648e+07
1.85185e+07
2.43119e+07
2.43817e+07
2.37032e+07
3.58354e+07
2.01314e+07
1.97853e+07
4.06596e+07
2.26762e+07
3.8606e+07
1.25084e+07
2.18844e+07
1.31071e+07
1.20158e+07
3.95239e+07
3.9487e+07
1.86289e+07
1.86445e+07
2.50642e+07
3.00707e+07
2.21379e+07
1.85694e+07
2.38115e+07
2.9592e+07
2.40625e+07
3.89352e+07
2.40308e+07
2.16477e+07
2.72e+07
3.85796e+07
1.8587e+07
1.57006e+07
2.73601e+07
2.22204e+07
2.02905e+07
1.94702e+07
2.08835e+07
1.78786e+07
4.29627e+07
2.73686e+07
2.14228e+07
1.84383e+07
3.66467e+07
4.0577e+07
4.28222e+07
2.3494e+07
5.78025e+07
3.50949e+07
2.15846e+07
4.30733e+07
1.16227e+07
4.03173e+07
1.45521e+07
3.26506e+07
1.15574e+07
1.90264e+07
2.2813e+07
1.93254e+07
1.93056e+07
3.08446e+07
2.66556e+07
2.57265e+07
2.55302e+07
4.03104e+07
2.71808e+07
1.7986e+07
3.48475e+07
3.15351e+07
4.16781e+07
2.21786e+07
2.31515e+07
4.41031e+07
1.79326e+07
3.14984e+07
4.26219e+07
1.8837e+07
3.53434e+07
3.13693e+07
1.67716e+07
1.3438e+07
2.2638e+07
2.91002e+07
2.38914e+07
3.42293e+07
3.45364e+07
1.6059e+07
1.87051e+07
2.41289e+07
4.35651e+07
4.42003e+07
1.7413e+07
2.1035e+07
2.1739e+07
2.98356e+07
3.92491e+07
4.36873e+07
1.1873e+07
2.89509e+07
2.72187e+07
2.58763e+07
2.19235e+07
2.00587e+07
3.41442e+07
2.74411e+07
2.06061e+07
2.17891e+07
3.79263e+07
3.05105e+07
2.31457e+07
2.82182e+07
1.68987e+07
2.67009e+07
3.71849e+07
1.85373e+07
3.83235e+07
2.37919e+07
3.1372e+07
1.89086e+07
4.04144e+07
2.93751e+07
3.21688e+07
1.8706e+07
2.91078e+07
2.47663e+07
4.39638e+07
2.22114e+07
2.22e+07
1.74121e+07
1.78334e+07
1.59954e+07
4.01663e+07
3.03099e+07
2.7186e+07
2.62526e+07
2.74659e+07
2.73211e+07
4.66728e+07
2.17289e+07
1.85876e+07
2.5519e+07
2.57457e+07
2.79186e+07
1.62456e+07
2.65816e+07
2.01073e+07
8.39545e+06
1.40328e+07
4.47576e+07
1.83803e+07
2.68294e+07
2.54489e+07
3.60015e+07
4.073e+07
2.83486e+07
2.26692e+07
3.5593e+07
3.52645e+07
1.83562e+07
2.39727e+07
2.37386e+07
2.43152e+07
3.84329e+07
3.83861e+07
2.18253e+07
1.14301e+07
2.35634e+07
3.88734e+07
4.84171e+07
4.38019e+07
1.84559e+07
1.75017e+07
3.46985e+07
3.96609e+07
3.21832e+07
2.55631e+07
2.86489e+07
1.61052e+07
2.7147e+07
1.76187e+07
1.76333e+07
2.62948e+07
2.60255e+07
3.29426e+07
2.1055e+07
3.54722e+07
4.69029e+07
2.28777e+07
3.48329e+07
2.40568e+07
2.86408e+07
1.95817e+07
1.2983e+07
4.89592e+07
4.86788e+07
1.26404e+07
2.92005e+07
1.96592e+07
2.34917e+07
2.3352e+07
3.40927e+07
3.04512e+07
2.43327e+07
2.04622e+07
2.26755e+07
4.52901e+07
1.90968e+07
2.29678e+07
2.19068e+07
3.77836e+07
2.22263e+07
1.74715e+07
1.55561e+07
4.12009e+07
4.51809e+07
3.91534e+07
3.27645e+07
2.10904e+07
4.92446e+07
4.74499e+07
1.0351e+07
1.34516e+07
1.92588e+07
2.0518e+07
3.39692e+07
1.28135e+07
1.85588e+07
3.20613e+07
3.18551e+07
3.33148e+07
3.43441e+07
2.87253e+07
2.97396e+07
2.66813e+07
1.80423e+07
3.45363e+07
1.78774e+07
2.29356e+07
1.78089e+07
2.53326e+07
2.00682e+07
2.39584e+07
3.23054e+07
2.09646e+07
2.44747e+07
2.60538e+07
2.29259e+07
2.29481e+07
2.30792e+07
2.31125e+07
1.8008e+07
1.88069e+07
2.36568e+07
4.25477e+07
3.67522e+07
1.0439e+07
2.00589e+07
4.106e+07
2.92021e+07
3.10059e+07
2.71465e+07
3.47097e+07
2.27297e+07
2.2706e+07
3.21447e+07
1.96647e+07
2.42064e+07
1.54439e+07
3.80717e+07
2.54126e+07
1.82108e+07
3.10864e+07
3.80552e+07
7.89459e+06
3.99139e+07
1.96759e+07
3.67243e+07
3.13609e+07
2.40085e+07
2.88919e+07
2.0629e+07
2.38186e+07
2.00484e+07
1.52504e+07
2.97606e+07
2.25306e+07
3.91858e+07
3.28397e+07
3.82417e+07
3.68549e+07
3.75971e+07
2.24581e+07
5.00992e+07
2.56567e+07
4.38197e+07
1.89728e+07
4.35635e+07
1.94803e+07
4.02497e+07
1.95445e+07
2.52891e+07
3.01322e+07
2.12867e+07
1.83595e+07
2.11957e+07
2.15773e+07
3.45309e+07
9.00097e+06
2.66859e+07
4.4214e+07
1.77528e+07
1.85736e+07
2.87862e+07
3.12012e+07
1.29986e+07
2.2941e+07
3.47579e+07
3.39254e+07
1.83991e+07
2.52077e+07
4.38181e+07
4.52483e+07
4.05101e+07
5.43029e+07
1.76708e+07
2.41917e+07
3.68353e+07
3.68789e+07
4.54706e+07
2.07191e+07
2.12182e+07
2.10639e+07
4.27415e+07
2.23661e+07
3.61895e+07
2.6495e+07
2.63639e+07
2.61482e+07
3.60149e+07
3.44153e+07
2.80897e+07
1.95835e+07
3.999e+07
8.94723e+06
4.31934e+07
2.54212e+07
1.60886e+07
3.08859e+07
3.53808e+07
1.59778e+07
1.78278e+07
4.15231e+07
2.60945e+07
2.92585e+07
2.32485e+07
2.32712e+07
2.70577e+07
2.4035e+07
1.83997e+07
1.83841e+07
3.55963e+07
2.09535e+07
2.71017e+07
4.15263e+07
1.89768e+07
3.1902e+07
3.32727e+07
3.78884e+07
2.40607e+07
1.82814e+07
2.95178e+07
4.01896e+07
1.935e+07
5.95079e+07
3.92434e+07
5.93934e+07
2.27042e+07
4.10397e+07
3.73084e+07
3.71934e+07
3.66207e+07
3.54892e+07
2.70944e+07
2.54595e+07
2.27134e+07
3.04054e+07
1.40574e+07
1.93352e+07
3.07859e+07
3.96525e+07
1.90174e+07
1.9137e+07
2.33044e+07
3.39681e+07
4.34966e+07
1.06544e+07
1.04578e+07
1.64247e+07
1.65069e+07
3.77099e+07
4.03604e+07
2.74798e+07
3.1327e+07
1.4168e+07
3.35546e+07
3.58439e+07
3.84603e+07
2.2112e+07
2.55378e+07
5.92559e+07
3.68727e+07
2.16621e+07
1.80277e+07
2.37794e+07
1.71743e+07
1.2317e+07
3.94713e+07
1.91026e+07
2.28968e+07
1.83305e+07
2.64543e+07
3.40979e+07
4.06867e+07
1.98756e+07
1.10606e+07
1.60812e+07
1.40157e+07
2.16362e+07
1.79741e+07
4.1579e+07
3.09646e+07
1.88605e+07
1.89137e+07
1.09115e+07
1.8316e+07
2.38329e+07
1.45518e+07
1.06726e+07
2.86087e+07
2.28662e+07
4.02643e+07
4.12218e+07
1.81944e+07
1.80944e+07
4.1049e+07
3.97366e+07
2.05987e+07
2.42898e+07
4.36659e+07
3.7779e+07
5.4574e+07
2.33688e+07
1.66037e+07
3.45471e+07
3.56037e+07
1.80648e+07
4.0163e+07
2.84185e+07
2.08128e+07
3.93668e+07
2.12711e+07
2.42134e+07
7.92791e+06
2.09633e+07
1.2758e+07
2.43606e+07
2.33325e+07
1.94458e+07
2.66197e+07
4.00331e+07
2.86795e+07
1.92699e+07
2.90695e+07
4.14193e+07
3.27534e+07
4.13725e+07
2.30838e+07
3.34697e+07
2.283e+07
2.1024e+07
2.51323e+07
3.37368e+07
3.03281e+07
2.27996e+07
2.69334e+07
1.93658e+07
3.16335e+07
2.72509e+07
4.03212e+07
2.62091e+07
2.6226e+07
2.88664e+07
2.91945e+07
1.63882e+07
1.64102e+07
3.05298e+07
1.913e+07
1.82644e+07
1.82204e+07
2.28811e+07
1.51537e+07
1.51681e+07
2.10102e+07
3.31789e+07
3.39391e+07
1.84239e+07
2.83541e+07
3.37624e+07
2.60689e+07
1.18387e+07
1.61486e+07
2.94512e+07
2.83713e+07
8.53665e+06
2.34137e+07
4.30828e+07
3.76246e+07
3.28229e+07
8.64725e+06
1.85494e+07
2.45549e+07
2.82798e+07
2.741e+07
2.73978e+07
3.31194e+07
2.41617e+07
3.06642e+07
1.97765e+07
4.36382e+07
2.70738e+07
1.93663e+07
3.88615e+07
3.91779e+07
2.61073e+07
2.81918e+07
1.72839e+07
1.73698e+07
1.49303e+07
3.99395e+07
3.94148e+07
2.85585e+07
4.36483e+07
3.17529e+07
3.31162e+07
1.8327e+07
3.4077e+07
1.3419e+07
2.08156e+07
2.067e+07
2.61207e+07
3.14808e+07
3.9478e+07
5.25007e+07
8.60891e+06
2.07648e+07
2.97812e+07
2.67898e+07
1.84565e+07
3.36312e+07
1.40822e+07
2.34642e+07
2.34931e+07
2.56185e+07
1.77155e+07
3.47294e+07
2.23141e+07
3.55678e+07
3.53221e+07
2.26907e+07
3.86865e+07
3.79246e+07
3.99414e+07
4.02247e+07
1.81432e+07
1.94817e+07
2.23856e+07
2.97958e+07
4.0946e+07
1.75276e+07
4.00196e+07
1.42492e+07
1.78664e+07
2.36448e+07
1.85538e+07
4.28347e+07
1.1629e+07
1.38044e+07
9.49905e+06
1.97043e+07
2.69079e+07
3.56431e+07
2.01512e+07
2.09041e+07
2.09371e+07
2.1663e+07
3.09994e+07
1.49259e+07
1.90581e+07
4.19047e+07
3.52743e+07
2.81563e+07
5.064e+07
3.30905e+07
3.70142e+07
1.80927e+07
3.78976e+07
2.79042e+07
2.37208e+07
1.7753e+07
2.84428e+07
2.57216e+07
2.78313e+07
1.12695e+07
6.2638e+07
1.91523e+07
3.93558e+07
2.13657e+07
2.77895e+07
3.30057e+07
3.27998e+07
2.76616e+07
3.81314e+07
2.38137e+07
1.91086e+07
1.80862e+07
2.48831e+07
1.50373e+07
2.62648e+07
2.41306e+07
3.4766e+07
1.53149e+07
2.05034e+07
2.04666e+07
9.46461e+06
2.37048e+07
1.78204e+07
3.31307e+07
4.12688e+07
1.66197e+07
3.30408e+07
4.98843e+07
3.91699e+07
1.7638e+07
2.56315e+07
1.68363e+07
2.11331e+07
3.36118e+07
4.07544e+07
3.02328e+07
4.06093e+07
2.54817e+07
2.12754e+07
2.13301e+07
3.73522e+07
3.78692e+07
3.41199e+07
1.90596e+07
1.99485e+07
1.99029e+07
5.83739e+07
2.00006e+07
5.79997e+07
1.14597e+07
2.30055e+07
2.4033e+07
4.04523e+07
4.04228e+07
3.90467e+07
2.91347e+07
1.95007e+07
3.58218e+07
3.6618e+07
2.32262e+07
2.32493e+07
3.48472e+07
1.81168e+07
2.3961e+07
2.89975e+07
2.38063e+07
1.71281e+07
3.81168e+07
2.42257e+07
2.78694e+07
8.3291e+06
2.83999e+07
4.96359e+07
1.75264e+07
1.74404e+07
2.2147e+07
2.09846e+07
2.19327e+07
1.70351e+07
1.3e+07
9.96937e+06
4.12001e+07
3.75661e+07
3.74108e+07
2.33397e+07
6.33061e+07
2.15614e+07
3.55458e+07
1.67612e+07
3.13754e+07
3.9624e+07
3.59608e+07
3.59083e+07
2.08983e+07
3.94056e+07
2.41082e+07
2.40225e+07
5.49028e+07
4.37678e+07
3.82672e+07
3.69168e+07
2.11915e+07
2.98427e+07
3.83634e+07
4.14952e+07
2.11944e+07
2.12281e+07
3.31236e+07
2.05218e+07
2.49878e+07
2.50273e+07
8.89274e+07
1.93984e+07
1.05356e+07
3.10764e+07
2.20886e+07
2.2363e+07
1.55456e+07
1.57099e+07
1.15054e+07
1.86377e+07
4.23672e+07
2.46489e+07
2.44225e+07
4.36035e+07
2.3601e+07
4.53164e+07
1.54037e+07
1.67707e+07
6.27719e+07
3.33398e+07
2.4434e+07
1.50741e+07
3.6575e+07
2.83236e+07
1.49461e+07
1.83616e+07
2.0047e+07
2.36005e+07
2.35173e+07
4.03481e+07
2.95408e+07
3.88762e+07
1.87103e+07
1.62197e+07
2.91365e+07
2.17214e+07
2.33563e+07
6.62306e+07
2.49497e+07
4.26661e+07
6.30835e+07
2.51938e+07
2.88426e+07
2.37388e+07
3.88348e+07
1.30802e+07
4.18308e+07
2.97544e+07
4.08129e+07
4.14435e+07
2.38359e+07
1.67187e+07
1.87978e+07
3.3945e+07
3.4158e+07
1.62498e+07
1.85743e+07
3.64515e+07
3.26189e+07
4.17727e+07
2.58718e+07
3.52853e+07
2.97172e+07
4.03809e+07
2.6717e+07
1.70764e+07
2.63792e+07
3.55582e+07
3.01177e+07
3.62082e+07
2.18627e+07
3.44759e+07
3.41245e+07
1.30816e+07
2.9297e+07
3.69607e+07
2.35563e+07
3.79944e+07
1.5807e+07
6.07041e+07
2.68242e+07
2.56458e+07
1.67053e+07
3.76255e+07
4.12142e+07
1.58313e+07
2.05413e+07
2.06333e+07
5.19009e+07
1.90653e+07
1.88115e+07
3.20877e+07
2.82074e+07
2.75866e+07
2.48439e+07
4.003e+07
4.23937e+07
2.59138e+07
3.99094e+07
4.06515e+07
2.14437e+07
4.16201e+07
1.46178e+07
2.03878e+07
5.42151e+07
3.47337e+07
3.431e+07
4.80457e+07
4.15598e+07
3.92092e+07
3.68331e+07
2.3115e+07
1.92571e+07
1.57321e+07
3.88399e+07
2.09047e+07
2.86893e+07
3.80698e+07
3.80531e+07
1.76888e+07
2.70939e+07
1.83895e+07
2.68231e+07
2.69584e+07
3.89071e+07
3.89685e+07
4.08861e+07
4.02174e+07
2.69367e+07
3.74844e+07
1.84109e+07
3.86597e+07
6.9047e+06
1.87556e+07
1.37355e+07
3.26601e+07
2.24019e+07
2.23104e+07
4.52361e+07
2.34466e+07
1.93373e+07
3.92813e+07
1.97625e+07
2.49776e+07
1.85108e+07
2.36188e+07
2.00974e+07
2.58966e+07
2.74689e+07
2.769e+07
4.08358e+07
2.97196e+07
1.67127e+07
2.45152e+07
3.68001e+07
1.96023e+07
2.77034e+07
1.33237e+07
2.58669e+07
2.56675e+07
2.59456e+07
5.12683e+07
3.21941e+07
4.51065e+07
2.94634e+07
3.33912e+07
3.51328e+07
9.25504e+06
3.08985e+07
4.00508e+07
3.91449e+07
4.07173e+07
1.77554e+07
1.80117e+07
2.43042e+07
3.03352e+07
6.87063e+06
1.84355e+07
2.20794e+07
1.85517e+07
1.68359e+07
1.69344e+07
2.07756e+07
2.86246e+07
1.54176e+07
2.20164e+07
3.08939e+07
2.7306e+07
2.0015e+07
4.09792e+07
4.04926e+07
2.29379e+07
1.92717e+07
1.70328e+07
2.05911e+07
1.49422e+07
3.99336e+07
3.1642e+07
3.01029e+07
1.82525e+07
4.16177e+07
2.29624e+07
1.68688e+07
3.46972e+07
2.07254e+07
1.84077e+07
1.83466e+07
1.78187e+07
2.83728e+07
1.57373e+07
2.44649e+07
1.53945e+07
1.46436e+07
2.1793e+07
1.24131e+07
1.85199e+07
3.03588e+07
1.87937e+07
2.6038e+07
2.6467e+07
2.65063e+07
2.37039e+07
2.65286e+07
2.63952e+07
2.16807e+07
4.09667e+07
3.43578e+07
1.77257e+07
3.15287e+07
1.61197e+07
4.0832e+07
4.01851e+07
1.82715e+07
1.8209e+07
3.0848e+07
1.81706e+07
2.02853e+07
3.51912e+07
4.30703e+07
2.62507e+07
1.85507e+07
1.69728e+07
1.71132e+07
3.98068e+07
3.51204e+07
1.95933e+07
1.5874e+07
2.65744e+07
1.39444e+07
1.82088e+07
2.69132e+07
6.65217e+07
3.06018e+07
2.3915e+07
2.37055e+07
2.30632e+07
2.78443e+07
2.77706e+07
1.81057e+07
1.5582e+07
1.5977e+07
1.85136e+07
1.85746e+07
2.38751e+07
1.77623e+07
1.7669e+07
2.73947e+07
2.65081e+07
2.34434e+07
3.25637e+07
2.32372e+07
3.36269e+07
3.33169e+07
2.94732e+07
4.07739e+07
2.7953e+07
4.00824e+07
3.2256e+07
3.19672e+07
4.08235e+07
1.79832e+07
1.79164e+07
2.34744e+07
2.34883e+07
4.5189e+07
4.11767e+07
2.46211e+07
2.30658e+07
2.61284e+07
2.46858e+07
3.78195e+07
2.51592e+07
2.41233e+07
2.40634e+07
2.85115e+07
1.94705e+07
4.80308e+07
3.04938e+07
3.56444e+07
2.25472e+07
2.59223e+07
2.2479e+07
4.86083e+07
1.68844e+07
4.01137e+07
4.27987e+07
2.94731e+07
1.80426e+07
2.38708e+07
3.40284e+07
2.00027e+07
1.96691e+07
3.71313e+07
2.52465e+07
2.33268e+07
3.98817e+07
4.28981e+07
2.565e+07
3.17437e+07
4.4796e+07
2.08896e+07
2.09196e+07
2.88731e+07
3.33848e+07
4.01325e+07
4.0161e+07
1.77591e+07
3.95023e+07
3.06518e+07
2.44873e+07
2.48038e+07
2.38881e+07
2.39067e+07
1.92197e+07
2.92743e+07
3.58567e+07
2.0224e+07
2.72706e+07
3.13691e+07
4.59532e+07
2.74757e+07
2.00277e+07
6.17483e+07
1.67705e+07
1.77806e+07
3.65596e+07
2.21402e+07
3.03044e+07
2.17802e+07
1.31807e+07
1.45927e+07
2.62158e+07
2.39974e+07
3.96505e+07
1.92076e+07
2.06727e+07
1.0991e+07
1.80805e+07
2.34908e+07
1.82248e+07