/*--------------------------------*- C++ -*----------------------------------*\
| =========                 |                                                 |
| \\      /  F ield         | OpenFOAM: The Open Source CFD Toolbox           |
|  \\    /   O peration     | Version:  v2012                                 |
|   \\  /    A nd           | Website:  www.openfoam.com                      |
|    \\/     M anipulation  |                                                 |
\*---------------------------------------------------------------------------*/
FoamFile
{
    version     2.0;
    format      ascii;
    class       volVectorField;
    location    "18";
    object      D_0;
}
// * * * * * * * * * * * * * * * * * * * * * * * * * * * * * * * * * * * * * //

dimensions      [0 1 0 0 0 0 0];


internalField   nonuniform List<vector> 
1000
(
(0.000155616 -0.000139703 0)
(0.000163386 -0.000353395 0)
(0.000165159 -0.000539901 0)
(0.000156494 -0.00071215 0)
(0.000142369 -0.000842292 0)
(0.000123131 -0.000950574 0)
(0.000102684 -0.00101897 0)
(8.32103e-05 -0.00106934 0)
(6.55972e-05 -0.00109316 0)
(5.1995e-05 -0.00110731 0)
(0.000462974 -0.000231698 0)
(0.000483372 -0.000438089 0)
(0.000482754 -0.000601262 0)
(0.000454193 -0.000744855 0)
(0.000410016 -0.000842548 0)
(0.000355678 -0.000922047 0)
(0.000297927 -0.000967386 0)
(0.000245194 -0.00100233 0)
(0.000197682 -0.00101836 0)
(0.000163162 -0.00103172 0)
(0.000724037 -0.000403388 0)
(0.000739334 -0.000575816 0)
(0.000719551 -0.000678202 0)
(0.000666939 -0.000760561 0)
(0.000597855 -0.000801669 0)
(0.000520774 -0.000837181 0)
(0.00044195 -0.000853534 0)
(0.000373997 -0.000873291 0)
(0.000314595 -0.000886224 0)
(0.000275117 -0.000904884 0)
(0.00090369 -0.000571945 0)
(0.000896425 -0.000671312 0)
(0.000847085 -0.000688027 0)
(0.000785546 -0.000709753 0)
(0.000711179 -0.000701662 0)
(0.000641599 -0.000709681 0)
(0.000570509 -0.000709465 0)
(0.000513348 -0.000724337 0)
(0.000461478 -0.000737552 0)
(0.000424881 -0.000758026 0)
(0.000973069 -0.000647227 0)
(0.000935413 -0.000665073 0)
(0.000877141 -0.000635323 0)
(0.000825375 -0.000634107 0)
(0.000764213 -0.00061276 0)
(0.000716724 -0.000616782 0)
(0.000662682 -0.000608214 0)
(0.000623795 -0.000619743 0)
(0.000579808 -0.000622248 0)
(0.0005474 -0.00063427 0)
(0.00099684 -0.000607967 0)
(0.000958641 -0.000591562 0)
(0.000910037 -0.000571266 0)
(0.000873354 -0.000564115 0)
(0.000823194 -0.000549004 0)
(0.000787197 -0.000546574 0)
(0.000742175 -0.000536985 0)
(0.000711706 -0.000538034 0)
(0.000672107 -0.000531827 0)
(0.000645514 -0.000533775 0)
(0.00100819 -0.000560824 0)
(0.000980223 -0.0005443 0)
(0.000940439 -0.000524534 0)
(0.000909191 -0.000512229 0)
(0.000867733 -0.000494598 0)
(0.000837595 -0.000486946 0)
(0.000799299 -0.000473918 0)
(0.000772771 -0.000469449 0)
(0.000739621 -0.000460123 0)
(0.000716313 -0.00045691 0)
(0.00104695 -0.000503472 0)
(0.00101801 -0.000483112 0)
(0.000985112 -0.000462005 0)
(0.000959201 -0.000446938 0)
(0.000925802 -0.000429016 0)
(0.000901916 -0.000418274 0)
(0.000870385 -0.00040398 0)
(0.000848642 -0.000395847 0)
(0.000820186 -0.000384404 0)
(0.000800164 -0.000377133 0)
(0.0010693 -0.000456094 0)
(0.0010457 -0.000434884 0)
(0.00101721 -0.000413603 0)
(0.000995919 -0.000396886 0)
(0.000967827 -0.00037847 0)
(0.00094809 -0.000365254 0)
(0.000921895 -0.000350023 0)
(0.000903631 -0.000339083 0)
(0.000880181 -0.000326831 0)
(0.000862894 -0.000316947 0)
(0.00111153 -0.000402624 0)
(0.00108981 -0.000379679 0)
(0.00106604 -0.000357119 0)
(0.00104766 -0.000339511 0)
(0.00102496 -0.000320264 0)
(0.00100847 -0.000306397 0)
(0.000987517 -0.000290185 0)
(0.000972059 -0.000278601 0)
(0.000953681 -0.00026531 0)
(0.000938347 -0.00025467 0)
(0.00113519 -0.000356971 0)
(0.00111844 -0.000334037 0)
(0.00109926 -0.000311461 0)
(0.0010844 -0.000293853 0)
(0.00106666 -0.000274395 0)
(0.00105255 -0.000260536 0)
(0.00103704 -0.000243782 0)
(0.00102312 -0.00023258 0)
(0.00101053 -0.000218357 0)
(0.000996675 -0.000209083 0)
(0.00117329 -0.000311546 0)
(0.00115916 -0.000287836 0)
(0.00114392 -0.000265434 0)
(0.00113138 -0.000247413 0)
(0.00111747 -0.000228905 0)
(0.00110549 -0.000214552 0)
(0.00109324 -0.000199207 0)
(0.0010813 -0.000187126 0)
(0.001071 -0.000174472 0)
(0.00105905 -0.000163772 0)
(0.0011965 -0.000267707 0)
(0.00118726 -0.000245492 0)
(0.00117638 -0.000224185 0)
(0.00116741 -0.000207301 0)
(0.00115758 -0.000189528 0)
(0.00114841 -0.000176072 0)
(0.00114012 -0.000161196 0)
(0.00113053 -0.000149851 0)
(0.00112401 -0.00013753 0)
(0.00111395 -0.000127339 0)
(0.00122666 -0.000228757 0)
(0.00122029 -0.000207054 0)
(0.00121294 -0.000187128 0)
(0.00120609 -0.000170598 0)
(0.00119942 -0.000154491 0)
(0.00119195 -0.000141275 0)
(0.00118644 -0.000128132 0)
(0.00117835 -0.000117037 0)
(0.00117423 -0.00010633 0)
(0.00116575 -9.66803e-05 0)
(0.00124677 -0.0001881 0)
(0.00124452 -0.000169125 0)
(0.00124066 -0.000151515 0)
(0.00123694 -0.000137015 0)
(0.00123311 -0.000122819 0)
(0.00122821 -0.000111112 0)
(0.00122501 -9.96252e-05 0)
(0.00121916 -8.96231e-05 0)
(0.00121687 -8.04053e-05 0)
(0.00121038 -7.14942e-05 0)
(0.00126827 -0.00015338 0)
(0.00126869 -0.00013635 0)
(0.00126762 -0.000121166 0)
(0.00126593 -0.000108062 0)
(0.00126441 -9.61166e-05 0)
(0.00126122 -8.55389e-05 0)
(0.0012599 -7.61056e-05 0)
(0.00125568 -6.718e-05 0)
(0.00125484 -5.97747e-05 0)
(0.00125006 -5.20509e-05 0)
(0.00128289 -0.00011587 0)
(0.00128627 -0.000102504 0)
(0.00128758 -9.04559e-05 0)
(0.00128824 -8.01308e-05 0)
(0.00128845 -7.0706e-05 0)
(0.00128729 -6.22653e-05 0)
(0.00128718 -5.48888e-05 0)
(0.00128484 -4.76256e-05 0)
(0.0012848 -4.19061e-05 0)
(0.00128181 -3.54827e-05 0)
(0.00129579 -8.36949e-05 0)
(0.00130105 -7.3427e-05 0)
(0.00130412 -6.45149e-05 0)
(0.00130628 -5.65358e-05 0)
(0.00130785 -4.96921e-05 0)
(0.00130803 -4.31941e-05 0)
(0.00130891 -3.79513e-05 0)
(0.00130788 -3.24423e-05 0)
(0.00130851 -2.84637e-05 0)
(0.00130685 -2.3711e-05 0)
(0.00130344 -4.82976e-05 0)
(0.00131024 -4.23159e-05 0)
(0.00131453 -3.698e-05 0)
(0.00131795 -3.23215e-05 0)
(0.00132033 -2.82215e-05 0)
(0.00132165 -2.43709e-05 0)
(0.00132304 -2.12264e-05 0)
(0.0013231 -1.78806e-05 0)
(0.00132399 -1.54952e-05 0)
(0.0013234 -1.2524e-05 0)
(0.00130774 -1.73353e-05 0)
(0.00131522 -1.50808e-05 0)
(0.00132011 -1.32237e-05 0)
(0.00132409 -1.1463e-05 0)
(0.00132691 -1.00663e-05 0)
(0.00132873 -8.64439e-06 0)
(0.00133042 -7.60433e-06 0)
(0.00133098 -6.4248e-06 0)
(0.00133206 -5.65997e-06 0)
(0.00133198 -4.67542e-06 0)
(0.00133341 -3.46817e-06 0)
(0.00132538 -8.64676e-06 0)
(0.00131007 -1.69986e-05 0)
(0.00128637 -2.53589e-05 0)
(0.00125651 -3.80266e-05 0)
(0.00121825 -5.29372e-05 0)
(0.00117507 -7.31638e-05 0)
(0.00112395 -9.8309e-05 0)
(0.0010681 -0.000130584 0)
(0.00100788 -0.000168227 0)
(0.00133234 -2.3371e-06 0)
(0.00132456 -4.37808e-06 0)
(0.00130978 -1.05199e-05 0)
(0.00128704 -1.54267e-05 0)
(0.00125869 -2.58141e-05 0)
(0.00122264 -3.58963e-05 0)
(0.00118296 -5.30144e-05 0)
(0.00113636 -6.92984e-05 0)
(0.00108762 -9.63117e-05 0)
(0.00103452 -0.000118369 0)
(0.00133635 -1.2457e-06 0)
(0.00132969 -4.96439e-07 0)
(0.00131711 -4.10519e-06 0)
(0.00129733 -5.41458e-06 0)
(0.0012725 -1.26318e-05 0)
(0.00124022 -1.80238e-05 0)
(0.00120343 -3.20795e-05 0)
(0.00116011 -4.28567e-05 0)
(0.00111109 -6.76182e-05 0)
(0.00106071 -8.30858e-05 0)
(0.0013354 -1.26939e-06 0)
(0.00132897 8.83641e-07 0)
(0.00131681 -2.63022e-06 0)
(0.0012981 -1.69176e-06 0)
(0.00127473 -8.16128e-06 0)
(0.00124541 -9.23407e-06 0)
(0.00121219 -2.0969e-05 0)
(0.00117481 -2.46045e-05 0)
(0.00113219 -4.46578e-05 0)
(0.00108877 -5.25868e-05 0)
(0.00134296 -7.7211e-07 0)
(0.00133745 2.7856e-06 0)
(0.00132671 2.68654e-07 0)
(0.00131037 2.69307e-06 0)
(0.00128893 -2.83098e-06 0)
(0.00126245 -2.45579e-06 0)
(0.0012304 -1.29972e-05 0)
(0.00119541 -1.51779e-05 0)
(0.00115344 -3.19654e-05 0)
(0.00111235 -3.76115e-05 0)
(0.00134374 -1.00821e-06 0)
(0.00133858 3.13679e-06 0)
(0.00132835 4.42633e-07 0)
(0.00131342 4.15738e-06 0)
(0.00129362 -6.3004e-07 0)
(0.00127038 2.15866e-06 0)
(0.00124184 -6.26874e-06 0)
(0.0012119 -5.39681e-06 0)
(0.00117522 -1.87549e-05 0)
(0.00113922 -2.15757e-05 0)
(0.00135463 -9.12487e-07 0)
(0.00135011 3.29823e-06 0)
(0.00134065 7.56384e-07 0)
(0.00132731 4.32368e-06 0)
(0.0013085 -2.50371e-07 0)
(0.00128709 2.13389e-06 0)
(0.00125942 -5.34184e-06 0)
(0.00123128 -4.72838e-06 0)
(0.00119613 -1.53225e-05 0)
(0.0011625 -1.75981e-05 0)
(0.00135845 -1.00858e-06 0)
(0.00135435 3.2712e-06 0)
(0.00134558 8.06673e-07 0)
(0.0013337 4.7738e-06 0)
(0.00131668 9.66513e-07 0)
(0.00129805 4.07323e-06 0)
(0.00127354 -1.87406e-06 0)
(0.00124916 -5.56223e-07 0)
(0.00121814 -9.05891e-06 0)
(0.00118855 -1.05618e-05 0)
(0.00137202 -1.12197e-06 0)
(0.0013683 2.37346e-06 0)
(0.00135998 -3.07912e-07 0)
(0.00134905 2.70479e-06 0)
(0.00133272 -1.13269e-06 0)
(0.00131528 9.27586e-07 0)
(0.00129177 -4.40667e-06 0)
(0.00126886 -3.86489e-06 0)
(0.00123961 -1.07601e-05 0)
(0.00121217 -1.24397e-05 0)
(0.00137949 -1.07312e-06 0)
(0.00137616 2.19182e-06 0)
(0.00136862 -2.34645e-07 0)
(0.00135895 2.62762e-06 0)
(0.00134434 -6.08377e-07 0)
(0.00132906 1.30036e-06 0)
(0.0013082 -3.1447e-06 0)
(0.00128809 -2.83683e-06 0)
(0.00126207 -8.68164e-06 0)
(0.00123791 -1.04528e-05 0)
(0.00139519 -1.26272e-06 0)
(0.00139209 9.29172e-07 0)
(0.00138488 -1.84565e-06 0)
(0.0013758 -1.02045e-07 0)
(0.00136183 -3.52305e-06 0)
(0.00134741 -2.66335e-06 0)
(0.00132759 -6.92722e-06 0)
(0.00130876 -7.38795e-06 0)
(0.00128439 -1.25957e-05 0)
(0.00126213 -1.47534e-05 0)
(0.00140626 -1.1492e-06 0)
(0.0014035 7.47753e-07 0)
(0.00139702 -1.74428e-06 0)
(0.00138896 -3.18641e-07 0)
(0.00137647 -3.3578e-06 0)
(0.00136369 -2.90487e-06 0)
(0.00134602 -6.74525e-06 0)
(0.0013293 -7.70837e-06 0)
(0.00130752 -1.24923e-05 0)
(0.00128779 -1.51097e-05 0)
(0.00142369 -1.31767e-06 0)
(0.00142107 -3.87609e-07 0)
(0.0014149 -3.19258e-06 0)
(0.00140725 -2.70597e-06 0)
(0.00139538 -5.96805e-06 0)
(0.00138332 -6.32765e-06 0)
(0.00136665 -1.02407e-05 0)
(0.00135106 -1.17784e-05 0)
(0.0013307 -1.64835e-05 0)
(0.00131266 -1.94229e-05 0)
(0.00143792 -1.18205e-06 0)
(0.00143557 -4.00353e-07 0)
(0.00143001 -2.94231e-06 0)
(0.00142317 -2.64548e-06 0)
(0.00141249 -5.69195e-06 0)
(0.00140169 -6.31595e-06 0)
(0.00138671 -1.01171e-05 0)
(0.0013727 -1.19754e-05 0)
(0.00135449 -1.66904e-05 0)
(0.00133818 -1.99393e-05 0)
(0.00145667 -1.24378e-06 0)
(0.00145445 -1.08707e-06 0)
(0.00144917 -3.74028e-06 0)
(0.0014427 -4.04112e-06 0)
(0.0014326 -7.1605e-06 0)
(0.00142246 -8.31021e-06 0)
(0.00140837 -1.21303e-05 0)
(0.00139541 -1.44105e-05 0)
(0.00137837 -1.90953e-05 0)
(0.00136358 -2.26646e-05 0)
(0.00147336 -1.05969e-06 0)
(0.00147136 -7.50343e-07 0)
(0.00146656 -3.06772e-06 0)
(0.00146074 -3.27017e-06 0)
(0.00145156 -6.14631e-06 0)
(0.00144241 -7.29433e-06 0)
(0.00142962 -1.09943e-05 0)
(0.00141788 -1.3389e-05 0)
(0.00140251 -1.80478e-05 0)
(0.00138907 -2.18557e-05 0)
(0.00149294 -9.3704e-07 0)
(0.00149106 -7.03438e-07 0)
(0.00148654 -2.77578e-06 0)
(0.00148108 -3.06238e-06 0)
(0.00147245 -5.69729e-06 0)
(0.00146392 -6.94132e-06 0)
(0.00145195 -1.04207e-05 0)
(0.00144111 -1.29173e-05 0)
(0.0014268 -1.74179e-05 0)
(0.00141455 -2.1294e-05 0)
(0.00151117 -6.31587e-07 0)
(0.00150947 2.21894e-07 0)
(0.00150534 -1.27947e-06 0)
(0.0015004 -1.01247e-06 0)
(0.00149252 -3.18789e-06 0)
(0.00148479 -3.99692e-06 0)
(0.00147385 -7.17259e-06 0)
(0.00146402 -9.38037e-06 0)
(0.00145095 -1.37354e-05 0)
(0.00143987 -1.74739e-05 0)
(0.00153084 -2.36521e-07 0)
(0.00152927 1.36717e-06 0)
(0.00152544 6.42574e-07 0)
(0.00152088 1.60066e-06 0)
(0.00151357 1.59771e-07 0)
(0.00150646 -8.64908e-08 0)
(0.00149631 -2.60039e-06 0)
(0.00148731 -4.45519e-06 0)
(0.00147523 -8.23948e-06 0)
(0.00146515 -1.19147e-05 0)
(0.00154935 3.08694e-07 0)
(0.00154794 3.24206e-06 0)
(0.00154447 3.57081e-06 0)
(0.00154037 5.77362e-06 0)
(0.00153374 5.27546e-06 0)
(0.00152735 6.10505e-06 0)
(0.00151816 4.35479e-06 0)
(0.00151006 3.33192e-06 0)
(0.00149913 7.81913e-08 0)
(0.00149007 -3.05754e-06 0)
(0.000956707 -0.000197746 0)
(0.000930296 -0.000202741 0)
(0.000901801 -0.000210693 0)
(0.000874696 -0.000216725 0)
(0.000845784 -0.000224649 0)
(0.000818436 -0.000231692 0)
(0.000789449 -0.000239914 0)
(0.000761976 -0.00024776 0)
(0.000733199 -0.000256535 0)
(0.000705814 -0.000264958 0)
(0.00067754 -0.000274098 0)
(0.000650484 -0.000283218 0)
(0.000622912 -0.000292619 0)
(0.000596383 -0.000302472 0)
(0.000569662 -0.000312105 0)
(0.000543755 -0.000322757 0)
(0.000518043 -0.000332716 0)
(0.000492724 -0.000344342 0)
(0.000468297 -0.000354916 0)
(0.000443333 -0.000367844 0)
(0.000994658 -0.000142089 0)
(0.000971028 -0.000146554 0)
(0.000947418 -0.000154349 0)
(0.000922517 -0.000160248 0)
(0.000898902 -0.00016738 0)
(0.000874452 -0.000173879 0)
(0.000849504 -0.000181274 0)
(0.000825921 -0.000188439 0)
(0.000799743 -0.000196114 0)
(0.000775578 -0.000203998 0)
(0.000750183 -0.000211979 0)
(0.000726045 -0.000220642 0)
(0.000701413 -0.000228946 0)
(0.000677742 -0.000238459 0)
(0.000654035 -0.00024713 0)
(0.000631212 -0.000257601 0)
(0.000608695 -0.00026675 0)
(0.000587149 -0.000278337 0)
(0.000566201 -0.000288207 0)
(0.000546547 -0.000301103 0)
(0.00102004 -0.000104276 0)
(0.000996859 -0.000107527 0)
(0.000973628 -0.000115398 0)
(0.000950889 -0.000119174 0)
(0.000927447 -0.000127107 0)
(0.000904669 -0.000131557 0)
(0.000881325 -0.000139363 0)
(0.000858656 -0.000144826 0)
(0.000835612 -0.000153189 0)
(0.000813374 -0.000159103 0)
(0.000791025 -0.000167427 0)
(0.000769385 -0.000174496 0)
(0.000747971 -0.000183023 0)
(0.000727264 -0.000191123 0)
(0.000707059 -0.000200011 0)
(0.000687683 -0.000209119 0)
(0.00066899 -0.000218507 0)
(0.00065149 -0.000228658 0)
(0.000634647 -0.000238685 0)
(0.000619868 -0.000249941 0)
(0.00105422 -6.98336e-05 0)
(0.00103358 -7.24657e-05 0)
(0.00101469 -7.97947e-05 0)
(0.000993608 -8.32871e-05 0)
(0.000974619 -9.06885e-05 0)
(0.000953182 -9.50457e-05 0)
(0.000934402 -0.000102583 0)
(0.00091244 -0.000107803 0)
(0.000894507 -0.000115552 0)
(0.000873834 -0.000121635 0)
(0.000855463 -0.00012967 0)
(0.000835921 -0.000136608 0)
(0.000817858 -0.00014501 0)
(0.000799537 -0.000152802 0)
(0.000782349 -0.000161651 0)
(0.000765504 -0.000170298 0)
(0.00074969 -0.000179664 0)
(0.0007347 -0.000189164 0)
(0.000720752 -0.000199075 0)
(0.000708113 -0.000209416 0)
(0.00107944 -5.11983e-05 0)
(0.0010603 -5.3576e-05 0)
(0.00104213 -5.99623e-05 0)
(0.00102302 -6.29746e-05 0)
(0.00100468 -6.96207e-05 0)
(0.000985795 -7.33203e-05 0)
(0.000967574 -8.02687e-05 0)
(0.000949103 -8.46757e-05 0)
(0.000931289 -9.20943e-05 0)
(0.000913464 -9.71093e-05 0)
(0.000896355 -0.000104855 0)
(0.000879426 -0.00011069 0)
(0.000863308 -0.000118743 0)
(0.000847564 -0.000125484 0)
(0.000832732 -0.000133877 0)
(0.000818486 -0.000141551 0)
(0.000805254 -0.000150329 0)
(0.000792832 -0.000158932 0)
(0.00078154 -0.000168125 0)
(0.000771237 -0.000177629 0)
(0.00111041 -3.27749e-05 0)
(0.00109377 -3.47466e-05 0)
(0.00107843 -4.07092e-05 0)
(0.00106151 -4.33925e-05 0)
(0.00104621 -4.97074e-05 0)
(0.00102927 -5.31619e-05 0)
(0.00101419 -5.97971e-05 0)
(0.000997522 -6.40557e-05 0)
(0.00098287 -7.10055e-05 0)
(0.000966876 -7.60816e-05 0)
(0.000952756 -8.33547e-05 0)
(0.000937745 -8.92465e-05 0)
(0.000924412 -9.68592e-05 0)
(0.00091067 -0.000103558 0)
(0.000898444 -0.000111525 0)
(0.000886272 -0.000119017 0)
(0.000875508 -0.000127347 0)
(0.000865221 -0.000135612 0)
(0.000856306 -0.00014431 0)
(0.000848208 -0.000153316 0)
(0.00113549 -2.63155e-05 0)
(0.00112045 -2.83657e-05 0)
(0.00110596 -3.34661e-05 0)
(0.0010908 -3.6099e-05 0)
(0.00107639 -4.16048e-05 0)
(0.00106138 -4.48656e-05 0)
(0.00104725 -5.07675e-05 0)
(0.00103265 -5.46872e-05 0)
(0.00101904 -6.09812e-05 0)
(0.0010051 -6.55823e-05 0)
(0.000992257 -7.22405e-05 0)
(0.00097925 -7.75632e-05 0)
(0.000967422 -8.45607e-05 0)
(0.000955618 -9.0632e-05 0)
(0.000945082 -9.79541e-05 0)
(0.000934768 -0.000104777 0)
(0.000925807 -0.000112423 0)
(0.000917294 -0.000119966 0)
(0.000910187 -0.000127967 0)
(0.000903825 -0.000136143 0)
(0.00116456 -1.78452e-05 0)
(0.00115171 -1.98228e-05 0)
(0.00113917 -2.44943e-05 0)
(0.00112609 -2.70803e-05 0)
(0.00111374 -3.21872e-05 0)
(0.0011007 -3.54218e-05 0)
(0.00108871 -4.09348e-05 0)
(0.00107596 -4.48427e-05 0)
(0.0010645 -5.07391e-05 0)
(0.00105235 -5.53294e-05 0)
(0.00104162 -6.1592e-05 0)
(0.00103036 -6.6859e-05 0)
(0.00102055 -7.34734e-05 0)
(0.00101049 -7.93996e-05 0)
(0.00100183 -8.63498e-05 0)
(0.000993327 -9.29092e-05 0)
(0.000986036 -0.000100172 0)
(0.000979518 -0.000107338 0)
(0.00097376 -0.000114871 0)
(0.000969051 -0.000122581 0)
(0.00118989 -1.83579e-05 0)
(0.00117837 -2.04794e-05 0)
(0.0011667 -2.45852e-05 0)
(0.00115501 -2.72222e-05 0)
(0.00114358 -3.17605e-05 0)
(0.00113199 -3.49408e-05 0)
(0.00112097 -3.98953e-05 0)
(0.00110971 -4.36411e-05 0)
(0.00109928 -4.89901e-05 0)
(0.00108862 -5.33166e-05 0)
(0.00107897 -5.90312e-05 0)
(0.00106916 -6.39475e-05 0)
(0.00106052 -6.99883e-05 0)
(0.00105182 -7.54978e-05 0)
(0.00104443 -8.18068e-05 0)
(0.00103707 -8.79116e-05 0)
(0.00103121 -9.43942e-05 0)
(0.00102543 -0.000101109 0)
(0.00102106 -0.00010804 0)
(0.00101745 -0.000114972 0)
(0.00121794 -1.56598e-05 0)
(0.00120818 -1.78313e-05 0)
(0.00119789 -2.16222e-05 0)
(0.00118794 -2.43104e-05 0)
(0.00117794 -2.85257e-05 0)
(0.00116802 -3.17484e-05 0)
(0.00115846 -3.63713e-05 0)
(0.00114879 -4.01371e-05 0)
(0.00113983 -4.51467e-05 0)
(0.00113065 -4.94547e-05 0)
(0.00112246 -5.48253e-05 0)
(0.00111401 -5.96644e-05 0)
(0.00110678 -6.53647e-05 0)
(0.00109929 -7.07121e-05 0)
(0.00109323 -7.67055e-05 0)
(0.00108691 -8.25228e-05 0)
(0.00108227 -8.87698e-05 0)
(0.00107726 -9.49944e-05 0)
(0.00107435 -0.00010146 0)
(0.00107147 -0.000108039 0)
(0.00124367 -1.93519e-05 0)
(0.00123491 -2.16359e-05 0)
(0.00122542 -2.51075e-05 0)
(0.00121649 -2.78293e-05 0)
(0.00120731 -3.16912e-05 0)
(0.00119843 -3.48706e-05 0)
(0.0011897 -3.91071e-05 0)
(0.00118109 -4.27546e-05 0)
(0.00117297 -4.73447e-05 0)
(0.00116486 -5.14603e-05 0)
(0.00115749 -5.63775e-05 0)
(0.00115011 -6.09503e-05 0)
(0.00114367 -6.61623e-05 0)
(0.00113723 -7.11687e-05 0)
(0.00113189 -7.66399e-05 0)
(0.00112664 -8.20398e-05 0)
(0.00112258 -8.7738e-05 0)
(0.00111875 -9.34663e-05 0)
(0.00111613 -9.93812e-05 0)
(0.00111402 -0.000105329 0)
(0.0012712 -1.94169e-05 0)
(0.00126377 -2.17724e-05 0)
(0.00125522 -2.50274e-05 0)
(0.00124761 -2.78234e-05 0)
(0.00123941 -3.14441e-05 0)
(0.0012318 -3.46708e-05 0)
(0.00122408 -3.86606e-05 0)
(0.00121666 -4.231e-05 0)
(0.00120954 -4.66554e-05 0)
(0.00120252 -5.07156e-05 0)
(0.00119612 -5.53912e-05 0)
(0.00118971 -5.98428e-05 0)
(0.00118417 -6.48136e-05 0)
(0.00117859 -6.96263e-05 0)
(0.00117406 -7.48486e-05 0)
(0.00116951 -7.99798e-05 0)
(0.00116614 -8.54011e-05 0)
(0.00116286 -9.07953e-05 0)
(0.00116078 -9.63542e-05 0)
(0.00115906 -0.000101945 0)
(0.0012972 -2.35578e-05 0)
(0.00129054 -2.5969e-05 0)
(0.00128278 -2.91356e-05 0)
(0.00127578 -3.18345e-05 0)
(0.00126828 -3.52899e-05 0)
(0.00126136 -3.84059e-05 0)
(0.00125428 -4.21608e-05 0)
(0.0012476 -4.56724e-05 0)
(0.00124107 -4.97258e-05 0)
(0.00123479 -5.36089e-05 0)
(0.00122894 -5.79469e-05 0)
(0.00122324 -6.21722e-05 0)
(0.0012182 -6.67692e-05 0)
(0.00121326 -7.12987e-05 0)
(0.00120916 -7.61183e-05 0)
(0.00120518 -8.09029e-05 0)
(0.00120215 -8.58968e-05 0)
(0.00119934 -9.08751e-05 0)
(0.00119749 -9.59796e-05 0)
(0.00119605 -0.000101081 0)
(0.00132455 -2.41268e-05 0)
(0.00131844 -2.64794e-05 0)
(0.0013115 -2.94922e-05 0)
(0.00130531 -3.2207e-05 0)
(0.00129863 -3.55305e-05 0)
(0.00129249 -3.86088e-05 0)
(0.00128619 -4.22357e-05 0)
(0.00128025 -4.56654e-05 0)
(0.00127445 -4.95843e-05 0)
(0.00126886 -5.3345e-05 0)
(0.00126366 -5.75315e-05 0)
(0.00125858 -6.15991e-05 0)
(0.00125408 -6.60238e-05 0)
(0.00124967 -7.03593e-05 0)
(0.00124598 -7.49787e-05 0)
(0.0012424 -7.95342e-05 0)
(0.00123964 -8.42818e-05 0)
(0.00123705 -8.90078e-05 0)
(0.0012353 -9.38305e-05 0)
(0.00123389 -9.86363e-05 0)
(0.00135083 -2.67782e-05 0)
(0.00134537 -2.9109e-05 0)
(0.00133874 -3.20046e-05 0)
(0.00133317 -3.465e-05 0)
(0.00132682 -3.78218e-05 0)
(0.00132129 -4.0787e-05 0)
(0.00131532 -4.4228e-05 0)
(0.00130995 -4.75104e-05 0)
(0.00130447 -5.1207e-05 0)
(0.00129937 -5.4795e-05 0)
(0.0012945 -5.87243e-05 0)
(0.00128983 -6.25866e-05 0)
(0.00128564 -6.67256e-05 0)
(0.00128153 -7.08226e-05 0)
(0.0012781 -7.51342e-05 0)
(0.00127465 -7.94142e-05 0)
(0.0012721 -8.38481e-05 0)
(0.00126959 -8.82465e-05 0)
(0.00126786 -9.27329e-05 0)
(0.0012664 -9.71704e-05 0)
(0.00137763 -2.59079e-05 0)
(0.00137258 -2.82187e-05 0)
(0.00136656 -3.09557e-05 0)
(0.00136142 -3.35976e-05 0)
(0.00135569 -3.65769e-05 0)
(0.00135056 -3.95411e-05 0)
(0.0013452 -4.27683e-05 0)
(0.00134021 -4.6038e-05 0)
(0.00133529 -4.95187e-05 0)
(0.00133056 -5.30609e-05 0)
(0.00132612 -5.67647e-05 0)
(0.00132179 -6.05646e-05 0)
(0.00131791 -6.44856e-05 0)
(0.00131408 -6.84832e-05 0)
(0.0013108 -7.26042e-05 0)
(0.0013076 -7.6727e-05 0)
(0.00130498 -8.09343e-05 0)
(0.00130248 -8.51785e-05 0)
(0.00130056 -8.94582e-05 0)
(0.00129886 -9.3686e-05 0)
(0.00140388 -2.52956e-05 0)
(0.00139919 -2.7488e-05 0)
(0.00139343 -3.0157e-05 0)
(0.00138869 -3.26344e-05 0)
(0.00138316 -3.55546e-05 0)
(0.00137849 -3.83078e-05 0)
(0.00137327 -4.14766e-05 0)
(0.0013688 -4.45018e-05 0)
(0.00136392 -4.79053e-05 0)
(0.00135945 -5.13243e-05 0)
(0.00135526 -5.48093e-05 0)
(0.00135122 -5.84475e-05 0)
(0.00134744 -6.21396e-05 0)
(0.0013439 -6.59579e-05 0)
(0.00134059 -6.98247e-05 0)
(0.00133764 -7.37727e-05 0)
(0.0013348 -7.77644e-05 0)
(0.00133233 -8.17784e-05 0)
(0.00133014 -8.58243e-05 0)
(0.00132823 -8.98237e-05 0)
(0.00143007 -2.14218e-05 0)
(0.00142567 -2.34941e-05 0)
(0.00142027 -2.60887e-05 0)
(0.00141579 -2.84536e-05 0)
(0.00141065 -3.13036e-05 0)
(0.00140617 -3.39476e-05 0)
(0.00140142 -3.70496e-05 0)
(0.001397 -3.99662e-05 0)
(0.00139262 -4.32835e-05 0)
(0.00138843 -4.64672e-05 0)
(0.00138445 -5.00001e-05 0)
(0.00138058 -5.34039e-05 0)
(0.00137701 -5.71171e-05 0)
(0.00137351 -6.07173e-05 0)
(0.00137036 -6.45696e-05 0)
(0.00136729 -6.83282e-05 0)
(0.00136454 -7.22577e-05 0)
(0.00136189 -7.61283e-05 0)
(0.00135952 -8.00836e-05 0)
(0.00135726 -8.3967e-05 0)
(0.00145602 -1.55065e-05 0)
(0.00145185 -1.76278e-05 0)
(0.00144664 -1.99997e-05 0)
(0.00144243 -2.24582e-05 0)
(0.00143745 -2.50837e-05 0)
(0.00143327 -2.78363e-05 0)
(0.00142862 -3.0717e-05 0)
(0.00142449 -3.37796e-05 0)
(0.0014202 -3.68797e-05 0)
(0.00141624 -4.01912e-05 0)
(0.00141236 -4.35089e-05 0)
(0.00140868 -4.70174e-05 0)
(0.00140517 -5.05336e-05 0)
(0.00140183 -5.41941e-05 0)
(0.00139868 -5.78726e-05 0)
(0.00139568 -6.16397e-05 0)
(0.00139284 -6.54322e-05 0)
(0.00139014 -6.92561e-05 0)
(0.00138754 -7.31023e-05 0)
(0.00138503 -7.69241e-05 0)
(0.00148169 -6.48655e-06 0)
(0.00147772 -8.49595e-06 0)
(0.00147275 -1.08505e-05 0)
(0.00146874 -1.32462e-05 0)
(0.0014639 -1.58968e-05 0)
(0.0014599 -1.8629e-05 0)
(0.00145584 -2.17275e-05 0)
(0.0014516 -2.46707e-05 0)
(0.00144767 -2.79844e-05 0)
(0.00144376 -3.12239e-05 0)
(0.00144009 -3.47439e-05 0)
(0.0014365 -3.82108e-05 0)
(0.00143312 -4.18987e-05 0)
(0.00142986 -4.55346e-05 0)
(0.00142679 -4.93386e-05 0)
(0.00142383 -5.30893e-05 0)
(0.00142102 -5.69532e-05 0)
(0.00141831 -6.07686e-05 0)
(0.00141567 -6.46422e-05 0)
(0.00141305 -6.8477e-05 0)
(4.45973e-05 -0.00110933 0)
(4.07264e-05 -0.0011125 0)
(3.71709e-05 -0.00111363 0)
(3.43305e-05 -0.00111624 0)
(3.14529e-05 -0.00111748 0)
(2.90833e-05 -0.00112001 0)
(2.65093e-05 -0.00112161 0)
(2.44799e-05 -0.0011241 0)
(2.20898e-05 -0.00112601 0)
(2.01809e-05 -0.00112842 0)
(1.78456e-05 -0.00113054 0)
(1.58934e-05 -0.00113282 0)
(1.34876e-05 -0.00113503 0)
(1.13552e-05 -0.00113706 0)
(8.75119e-06 -0.00113917 0)
(6.3045e-06 -0.00114077 0)
(3.36306e-06 -0.00114254 0)
(4.48958e-07 -0.00114345 0)
(-2.99402e-06 -0.00114451 0)
(-6.57053e-06 -0.00114437 0)
(0.00014343 -0.00103842 0)
(0.000131455 -0.001045 0)
(0.00012065 -0.00104991 0)
(0.000113142 -0.00105526 0)
(0.000105902 -0.00105984 0)
(0.000100655 -0.00106466 0)
(9.41068e-05 -0.00106891 0)
(8.88821e-05 -0.00107322 0)
(8.25075e-05 -0.00107737 0)
(7.72288e-05 -0.00108128 0)
(7.08603e-05 -0.00108526 0)
(6.53413e-05 -0.00108879 0)
(5.8721e-05 -0.00109253 0)
(5.26974e-05 -0.00109564 0)
(4.55108e-05 -0.00109901 0)
(3.865e-05 -0.00110158 0)
(3.05308e-05 -0.00110441 0)
(2.24235e-05 -0.00110625 0)
(1.29403e-05 -0.00110828 0)
(3.07646e-06 -0.00110912 0)
(0.000247442 -0.000919543 0)
(0.000229128 -0.0009339 0)
(0.000211886 -0.000947408 0)
(0.000198526 -0.000958921 0)
(0.000184787 -0.000969526 0)
(0.000172878 -0.000977682 0)
(0.000160017 -0.000985462 0)
(0.000150499 -0.00099256 0)
(0.000138724 -0.0009993 0)
(0.000129165 -0.0010054 0)
(0.000117783 -0.00101145 0)
(0.000107922 -0.00101681 0)
(9.63893e-05 -0.00102232 0)
(8.58427e-05 -0.00102706 0)
(7.36061e-05 -0.00103205 0)
(6.18722e-05 -0.00103616 0)
(4.83329e-05 -0.00104053 0)
(3.47915e-05 -0.00104392 0)
(1.92759e-05 -0.00104752 0)
(3.17269e-06 -0.00105002 0)
(0.000390749 -0.000774322 0)
(0.000365375 -0.000793215 0)
(0.000338456 -0.000811272 0)
(0.000316082 -0.000827611 0)
(0.000293382 -0.000843326 0)
(0.000273907 -0.000856646 0)
(0.00025511 -0.000869781 0)
(0.000237435 -0.000879939 0)
(0.000219514 -0.000889926 0)
(0.000204278 -0.000898685 0)
(0.000187994 -0.000907398 0)
(0.000173712 -0.000915039 0)
(0.000157856 -0.000922799 0)
(0.000143403 -0.000929536 0)
(0.000126984 -0.000936509 0)
(0.000111354 -0.000942475 0)
(9.3433e-05 -0.000948713 0)
(7.56017e-05 -0.000953959 0)
(5.51693e-05 -0.000959426 0)
(3.39768e-05 -0.000963923 0)
(0.00051149 -0.000642375 0)
(0.000483716 -0.000659799 0)
(0.000452527 -0.00067605 0)
(0.000426217 -0.000693456 0)
(0.000397504 -0.000709966 0)
(0.00037269 -0.000726055 0)
(0.000346097 -0.000741404 0)
(0.000322864 -0.000755147 0)
(0.000298008 -0.000768352 0)
(0.000276065 -0.000779466 0)
(0.000253772 -0.000791444 0)
(0.000234111 -0.000801415 0)
(0.0002132 -0.000812218 0)
(0.000194156 -0.000821137 0)
(0.000173274 -0.000830794 0)
(0.00015342 -0.000838833 0)
(0.000131262 -0.000847447 0)
(0.000109215 -0.000854802 0)
(8.43991e-05 -0.000862518 0)
(5.8636e-05 -0.000869405 0)
(0.00061213 -0.000535439 0)
(0.000587867 -0.000549011 0)
(0.000557056 -0.000561952 0)
(0.000532269 -0.000576009 0)
(0.000502045 -0.000590215 0)
(0.000476414 -0.000603777 0)
(0.000446679 -0.000618148 0)
(0.000420523 -0.000630627 0)
(0.00039154 -0.000644298 0)
(0.000367182 -0.000656305 0)
(0.000340933 -0.000669555 0)
(0.0003181 -0.00068086 0)
(0.000293569 -0.000693138 0)
(0.000271256 -0.000703579 0)
(0.000247213 -0.000714716 0)
(0.000224287 -0.000724348 0)
(0.000199431 -0.000734423 0)
(0.000174661 -0.000743467 0)
(0.00014762 -0.000752747 0)
(0.000119639 -0.000761589 0)
(0.000687237 -0.00045679 0)
(0.000663111 -0.000467994 0)
(0.000631866 -0.000477731 0)
(0.000606805 -0.000489089 0)
(0.0005758 -0.000500044 0)
(0.000549745 -0.000511596 0)
(0.000519166 -0.000523499 0)
(0.000492529 -0.000535277 0)
(0.00046299 -0.000547878 0)
(0.000436608 -0.000559868 0)
(0.000408555 -0.000572589 0)
(0.000382918 -0.000584388 0)
(0.000356072 -0.000596697 0)
(0.000330893 -0.000608 0)
(0.000304518 -0.000619603 0)
(0.000279037 -0.00063032 0)
(0.000252151 -0.00064118 0)
(0.000225354 -0.000651474 0)
(0.000196857 -0.000661826 0)
(0.00016761 -0.00067214 0)
(0.000773211 -0.000375906 0)
(0.000748791 -0.000385193 0)
(0.000717666 -0.000394456 0)
(0.000692596 -0.000403914 0)
(0.000662226 -0.000414138 0)
(0.000636324 -0.000423831 0)
(0.000606366 -0.000434702 0)
(0.000579719 -0.000444748 0)
(0.000550095 -0.000456083 0)
(0.000523241 -0.000466549 0)
(0.000494265 -0.000478174 0)
(0.000467569 -0.000488896 0)
(0.000439284 -0.000500501 0)
(0.000412689 -0.000511266 0)
(0.000384789 -0.000522604 0)
(0.000357886 -0.000533316 0)
(0.000329817 -0.000544334 0)
(0.000301996 -0.000555113 0)
(0.000273126 -0.000566019 0)
(0.000243805 -0.000577261 0)
(0.000838366 -0.000315407 0)
(0.000812789 -0.000323163 0)
(0.0007815 -0.000331829 0)
(0.000754707 -0.000340143 0)
(0.000723838 -0.000349586 0)
(0.000696369 -0.000358511 0)
(0.000666029 -0.000368525 0)
(0.000638224 -0.000378023 0)
(0.000608427 -0.000388496 0)
(0.000580578 -0.000398509 0)
(0.000551423 -0.000409303 0)
(0.000523772 -0.000419717 0)
(0.000495257 -0.000430654 0)
(0.000467824 -0.000441324 0)
(0.000439749 -0.000452277 0)
(0.000412291 -0.000463131 0)
(0.000384294 -0.000474119 0)
(0.000356412 -0.000485251 0)
(0.000328087 -0.000496464 0)
(0.000299433 -0.000508182 0)
(0.000917701 -0.000253132 0)
(0.000892349 -0.000259269 0)
(0.000863499 -0.000267301 0)
(0.000836626 -0.000273982 0)
(0.000807236 -0.000282386 0)
(0.00077943 -0.000289812 0)
(0.000749564 -0.000298634 0)
(0.000721273 -0.000306841 0)
(0.000691173 -0.000316113 0)
(0.000662687 -0.000325036 0)
(0.000632768 -0.000334782 0)
(0.00060438 -0.000344356 0)
(0.000574901 -0.000354502 0)
(0.000546756 -0.000364639 0)
(0.000517782 -0.00037512 0)
(0.000489793 -0.000385782 0)
(0.000461239 -0.00039664 0)
(0.000433087 -0.000407934 0)
(0.000404844 -0.000419371 0)
(0.000376013 -0.000431627 0)
)
;

boundaryField
{
    back
    {
        type            empty;
    }
    left
    {
        type            symmetry;
    }
    hole
    {
        type            calculated;
        value           nonuniform List<vector> 
20
(
(0.000149211 -3.28248e-05 -2.93925e-20)
(0.000444557 -0.00012733 0)
(0.000702461 -0.000312918 -5.27583e-20)
(0.000892651 -0.000514653 -6.9045e-22)
(0.000979074 -0.000630247 -4.79154e-21)
(0.00101012 -0.000614017 8.04342e-23)
(0.00102376 -0.000570107 -6.16088e-21)
(0.00106244 -0.000514418 1.58114e-22)
(0.00108348 -0.000468272 6.64997e-21)
(0.00112419 -0.000416053 3.22616e-21)
(0.00114536 -0.000370438 1.19862e-23)
(0.00118162 -0.000325606 -1.11531e-21)
(0.00120218 -0.000280941 -2.4576e-21)
(0.00123037 -0.000241542 2.216e-21)
(0.0012482 -0.0001994 -3.58833e-21)
(0.00126798 -0.00016332 9.43303e-22)
(0.00128097 -0.000123802 -9.39675e-22)
(0.0012927 -8.96322e-05 -2.06815e-21)
(0.0012995 -5.18668e-05 1.68767e-21)
(0.00130339 -1.85844e-05 -2.2851e-21)
)
;
    }
    front
    {