/*--------------------------------*- C++ -*----------------------------------*\
| =========                 |                                                 |
| \\      /  F ield         | OpenFOAM: The Open Source CFD Toolbox           |
|  \\    /   O peration     | Version:  v2012                                 |
|   \\  /    A nd           | Website:  www.openfoam.com                      |
|    \\/     M anipulation  |                                                 |
\*---------------------------------------------------------------------------*/
FoamFile
{
    version     2.0;
    format      ascii;
    class       pointVectorField;
    location    "18";
    object      pointD;
}
// * * * * * * * * * * * * * * * * * * * * * * * * * * * * * * * * * * * * * //

dimensions      [0 1 0 0 0 0 0];


internalField   nonuniform List<vector> 
2142
(
(0.00123437 0 -1.04719e-21)
(0.00145322 0 1.02496e-21)
(0.00132728 -5.77657e-05 5.64442e-22)
(0 -0.00109417 3.48102e-23)
(0 -4.8096e-05 -1.42957e-20)
(0.00125918 0 0)
(0 -0.00106213 0)
(0.000918381 -0.000203112 0)
(0.000374001 -0.000377997 2.23742e-21)
(0.00140053 4.90858e-06 -1.74168e-21)
(0.00108305 -0.0003698 1.49963e-21)
(0.00108305 -0.0003698 1.49963e-21)
(0.000918381 -0.000203112 0)
(0 -0.00106213 0)
(0 -4.8096e-05 -1.42957e-20)
(0.00123437 0 -1.04719e-21)
(0.00125918 0 0)
(0.00145322 0 1.02496e-21)
(0.00140053 4.90858e-06 -1.74168e-21)
(0.00132728 -5.77657e-05 5.64442e-22)
(0.000374001 -0.000377997 2.23742e-21)
(0 -0.00109417 3.48102e-23)
(9.73637e-05 -0.00102594 0)
(0.000200363 -0.000929179 0)
(0.00032412 -0.000796827 0)
(0.000454296 -0.00066276 0)
(0.000560629 -0.000550452 0)
(0.000642314 -0.000463601 0)
(0.000716839 -0.00038837 0)
(0.000786397 -0.000322034 0)
(0.000852501 -0.000264335 0)
(0.000981945 -0.000157711 0)
(0.00103605 -0.000122082 0)
(0.00108549 -9.28364e-05 0)
(0.00112965 -6.91005e-05 0)
(0.0011679 -5.03914e-05 0)
(0.00120014 -3.55031e-05 0)
(0.00122559 -2.39005e-05 0)
(0.00124419 -1.45929e-05 0)
(0.00125536 -6.91128e-06 0)
(0.00123986 0 0)
(0.00124566 0 0)
(0.00124982 0 0)
(0.001253 0 0)
(0.00125514 0 0)
(0.00125674 0 0)
(0.00125773 0 0)
(0.00125841 0 0)
(0.00125876 0 0)
(0.00125899 0 0)
(0.00125986 0 0)
(0.00126068 0 0)
(0.00126314 0 0)
(0.00126635 0 0)
(0.0012711 0 0)
(0.00127727 0 0)
(0.00128467 0 0)
(0.0012938 0 0)
(0.0013039 0 0)
(0.00131572 0 0)
(0.00132833 0 0)
(0.00134245 0 0)
(0.00135718 0 0)
(0.00137308 0 0)
(0.00138936 0 0)
(0.00140638 0 0)
(0.00142343 0 0)
(0.00144062 0 0)
(0.0014567 2.82498e-06 6.24324e-22)
(0.00145451 5.50593e-06 -5.16242e-22)
(0.00145112 7.81463e-06 -1.01291e-21)
(0.00144631 9.70802e-06 1.02154e-22)
(0.00144049 1.08962e-05 4.78428e-22)
(0.00143352 1.14476e-05 -3.2557e-22)
(0.00142581 1.10349e-05 1.45278e-21)
(0.00141734 9.84271e-06 1.27788e-21)
(0.00140846 7.53364e-06 -1.14565e-21)
(0.00139514 2.62474e-06 -1.59276e-21)
(0.00139104 6.83808e-07 -8.30384e-22)
(0.00138693 -1.45704e-06 2.62897e-21)
(0.00138286 -3.75911e-06 2.88188e-21)
(0.00137881 -6.45169e-06 -1.36314e-21)
(0.00137513 -9.27189e-06 -2.73913e-22)
(0.00137131 -1.19622e-05 1.78878e-21)
(0.00136756 -1.49537e-05 -1.3971e-21)
(0.00136395 -1.81304e-05 -1.93641e-21)
(0.00136046 -2.14006e-05 3.12475e-21)
(0.00135711 -2.47942e-05 3.51813e-21)
(0.00135389 -2.82695e-05 -5.60504e-22)
(0.00135082 -3.18251e-05 -7.20288e-22)
(0.00134789 -3.54291e-05 -6.53641e-22)
(0.00134509 -3.90735e-05 -5.06368e-23)
(0.0013424 -4.27216e-05 1.20689e-21)
(0.00133983 -4.63655e-05 1.2077e-21)
(0.00133732 -4.99604e-05 6.03812e-22)
(0.00133486 -5.34888e-05 6.31351e-22)
(0.00130692 -6.47952e-05 1.16918e-22)
(0.00128172 -7.20602e-05 -3.11366e-22)
(0.0012561 -7.81399e-05 -2.30771e-22)
(0.00122974 -8.27469e-05 6.48024e-22)
(0.0012017 -8.62659e-05 3.1095e-22)
(0.00117217 -8.8669e-05 2.9896e-22)
(0.00114 -9.06002e-05 2.87864e-22)
(0.00110567 -9.22602e-05 -1.10959e-23)
(0.0010678 -9.43702e-05 -3.85681e-22)
(0.00102724 -9.73636e-05 -3.19077e-22)
(0.000982252 -0.000102018 9.68718e-22)
(0.000934438 -0.000108999 9.76045e-22)
(0.000881031 -0.000119101 7.39306e-23)
(0.000824051 -0.00013374 -2.92305e-22)
(0.000761183 -0.000153431 -2.92305e-22)
(0.000694498 -0.000180062 2.56488e-22)
(0.0006221 -0.000214505 2.56488e-22)
(0.000544244 -0.000258475 -9.17844e-22)
(0.000458721 -0.000314834 1.42734e-21)
(0.000305611 -0.000443269 -8.42723e-22)
(0.000242072 -0.000512781 -8.46266e-22)
(0.000178439 -0.000591389 -2.34199e-25)
(0.000118694 -0.000680054 -1.84304e-21)
(6.6866e-05 -0.000775236 -6.85131e-22)
(2.74891e-05 -0.000873116 1.91736e-21)
(4.00475e-06 -0.000960636 -3.98556e-22)
(-6.85491e-06 -0.00103112 -1.9741e-21)
(-6.89659e-06 -0.00107694 -7.8244e-22)
(0 -0.00109439 0)
(0 -0.00109408 0)
(0 -0.00109325 0)
(0 -0.00109208 0)
(0 -0.00109058 0)
(0 -0.00108891 0)
(0 -0.00108703 0)
(0 -0.0010851 0)
(0 -0.00108306 0)
(0 -0.00108107 0)
(0 -0.00107901 0)
(0 -0.00107706 0)
(0 -0.00107507 0)
(0 -0.00107324 0)
(0 -0.00107139 0)
(0 -0.00106973 0)
(0 -0.00106802 0)
(0 -0.00106637 0)
(0 -0.00106444 0)
(0 -0.00105444 0)
(0 -0.00103591 0)
(0 -0.00099931 0)
(0 -0.000940451 0)
(0 -0.000852693 0)
(0 -0.000734129 0)
(0 -0.0005837 0)
(0 -0.000405225 0)
(0 -0.00020625 0)
(0.000949531 -0.000146209 0)
(0.000975191 -0.000103379 0)
(0.00100034 -7.04897e-05 0)
(0.00102526 -4.66854e-05 0)
(0.00104897 -3.06369e-05 0)
(0.00107293 -1.97244e-05 0)
(0.00109611 -1.37287e-05 0)
(0.00111967 -1.04705e-05 0)
(0.00114281 -1.00879e-05 0)
(0.00116634 -1.08007e-05 0)
(0.00118967 -1.29349e-05 0)
(0.00121329 -1.50195e-05 0)
(0.00123681 -1.73935e-05 0)
(0.00126056 -1.89364e-05 0)
(0.00128416 -1.99027e-05 0)
(0.00130778 -1.92611e-05 0)
(0.00133122 -1.72355e-05 0)
(0.00135455 -1.27422e-05 0)
(0.00137765 -5.8572e-06 0)
(0.000882571 -0.000212344 0)
(0.000856633 -0.000218421 0)
(0.000830005 -0.000224925 0)
(0.00080313 -0.000231482 0)
(0.000775851 -0.000238508 0)
(0.000748423 -0.000245693 0)
(0.000720751 -0.000253302 0)
(0.000693066 -0.000261153 0)
(0.000665281 -0.000269351 0)
(0.000637668 -0.000277762 0)
(0.000610112 -0.000286528 0)
(0.00058285 -0.000295468 0)
(0.000555754 -0.000304744 0)
(0.000529013 -0.000314171 0)
(0.000502462 -0.000323933 0)
(0.000476292 -0.000333877 0)
(0.000450243 -0.00034422 0)
(0.000424625 -0.000354861 0)
(0.000398961 -0.000366056 0)
(0.000290909 -4.13887e-05 -1.45976e-20)
(0.000561614 -0.000182056 -2.62575e-20)
(0.000779858 -0.000376712 -2.65986e-20)
(0.000912519 -0.000536712 -2.7568e-21)
(0.000965822 -0.000588026 -2.43546e-21)
(0.000982976 -0.000559809 -2.80611e-21)
(0.00100422 -0.000512064 -2.66231e-21)
(0.00102948 -0.00046331 3.23109e-21)
(0.00105605 -0.0004164 4.60031e-21)
(0.00110814 -0.000326923 -5.59886e-22)
(0.0011333 -0.000284545 -1.68992e-21)
(0.00115476 -0.000244884 -1.09965e-22)
(0.00117525 -0.000206482 -6.61655e-22)
(0.00119191 -0.000169728 -1.22784e-21)
(0.00120653 -0.000134275 4.17e-24)
(0.00121751 -9.97634e-05 -1.40201e-21)
(0.00122579 -6.61206e-05 -1.75378e-22)
(0.00123054 -3.29124e-05 -2.86007e-22)
(0.00106396 -0.000346437 0)
(0.00104518 -0.000324919 0)
(0.00102741 -0.000305833 0)
(0.00101002 -0.000288164 0)
(0.0009931 -0.000272227 0)
(0.000976991 -0.000257604 0)
(0.000961057 -0.00024413 0)
(0.000946365 -0.000231938 0)
(0.000931632 -0.000220408 0)
(0.00106396 -0.000346437 0)
(0.00104518 -0.000324919 0)
(0.00102741 -0.000305833 0)
(0.00101002 -0.000288164 0)
(0.0009931 -0.000272227 0)
(0.000976991 -0.000257604 0)
(0.000961057 -0.00024413 0)
(0.000946365 -0.000231938 0)
(0.000931632 -0.000220408 0)
(0.000852501 -0.000264335 0)
(0.000786397 -0.000322034 0)
(0.000716839 -0.00038837 0)
(0.000642314 -0.000463601 0)
(0.000560629 -0.000550452 0)
(0.000454296 -0.00066276 0)
(0.00032412 -0.000796827 0)
(0.000200363 -0.000929179 0)
(9.73637e-05 -0.00102594 0)
(0 -0.00105444 0)
(0 -0.00103591 0)
(0 -0.00099931 0)
(0 -0.000940451 0)
(0 -0.000852693 0)
(0 -0.000734129 0)
(0 -0.0005837 0)
(0 -0.000405225 0)
(0 -0.00020625 0)
(0.000290909 -4.13887e-05 -1.45976e-20)
(0.000561614 -0.000182056 -2.62575e-20)
(0.000779858 -0.000376712 -2.65986e-20)
(0.000912519 -0.000536712 -2.7568e-21)
(0.000965822 -0.000588026 -2.43546e-21)
(0.000982976 -0.000559809 -2.80611e-21)
(0.00100422 -0.000512064 -2.66231e-21)
(0.00102948 -0.00046331 3.23109e-21)
(0.00105605 -0.0004164 4.60031e-21)
(0.00110814 -0.000326923 -5.59886e-22)
(0.0011333 -0.000284545 -1.68992e-21)
(0.00115476 -0.000244884 -1.09965e-22)
(0.00117525 -0.000206482 -6.61655e-22)
(0.00119191 -0.000169728 -1.22784e-21)
(0.00120653 -0.000134275 4.17e-24)
(0.00121751 -9.97634e-05 -1.40201e-21)
(0.00122579 -6.61206e-05 -1.75378e-22)
(0.00123054 -3.29124e-05 -2.86007e-22)
(0.00123986 0 0)
(0.00124566 0 0)
(0.00124982 0 0)
(0.001253 0 0)
(0.00125514 0 0)
(0.00125674 0 0)
(0.00125773 0 0)
(0.00125841 0 0)
(0.00125876 0 0)
(0.00125536 -6.91128e-06 0)
(0.00124419 -1.45929e-05 0)
(0.00122559 -2.39005e-05 0)
(0.00120014 -3.55031e-05 0)
(0.0011679 -5.03914e-05 0)
(0.00112965 -6.91005e-05 0)
(0.00108549 -9.28364e-05 0)
(0.00103605 -0.000122082 0)
(0.000981945 -0.000157711 0)
(0.00125899 0 0)
(0.00125986 0 0)
(0.00126068 0 0)
(0.00126314 0 0)
(0.00126635 0 0)
(0.0012711 0 0)
(0.00127727 0 0)
(0.00128467 0 0)
(0.0012938 0 0)
(0.0013039 0 0)
(0.00131572 0 0)
(0.00132833 0 0)
(0.00134245 0 0)
(0.00135718 0 0)
(0.00137308 0 0)
(0.00138936 0 0)
(0.00140638 0 0)
(0.00142343 0 0)
(0.00144062 0 0)
(0.0014567 2.82498e-06 6.24324e-22)
(0.00145451 5.50593e-06 -5.16242e-22)
(0.00145112 7.81463e-06 -1.01291e-21)
(0.00144631 9.70802e-06 1.02154e-22)
(0.00144049 1.08962e-05 4.78428e-22)
(0.00143352 1.14476e-05 -3.2557e-22)
(0.00142581 1.10349e-05 1.45278e-21)
(0.00141734 9.84271e-06 1.27788e-21)
(0.00140846 7.53364e-06 -1.14565e-21)
(0.00137765 -5.8572e-06 0)
(0.00135455 -1.27422e-05 0)
(0.00133122 -1.72355e-05 0)
(0.00130778 -1.92611e-05 0)
(0.00128416 -1.99027e-05 0)
(0.00126056 -1.89364e-05 0)
(0.00123681 -1.73935e-05 0)
(0.00121329 -1.50195e-05 0)
(0.00118967 -1.29349e-05 0)
(0.00116634 -1.08007e-05 0)
(0.00114281 -1.00879e-05 0)
(0.00111967 -1.04705e-05 0)
(0.00109611 -1.37287e-05 0)
(0.00107293 -1.97244e-05 0)
(0.00104897 -3.06369e-05 0)
(0.00102526 -4.66854e-05 0)
(0.00100034 -7.04897e-05 0)
(0.000975191 -0.000103379 0)
(0.000949531 -0.000146209 0)
(0.00139514 2.62474e-06 -1.59276e-21)
(0.00139104 6.83808e-07 -8.30384e-22)
(0.00138693 -1.45704e-06 2.62897e-21)
(0.00138286 -3.75911e-06 2.88188e-21)
(0.00137881 -6.45169e-06 -1.36314e-21)
(0.00137513 -9.27189e-06 -2.73913e-22)
(0.00137131 -1.19622e-05 1.78878e-21)
(0.00136756 -1.49537e-05 -1.3971e-21)
(0.00136395 -1.81304e-05 -1.93641e-21)
(0.00136046 -2.14006e-05 3.12475e-21)
(0.00135711 -2.47942e-05 3.51813e-21)
(0.00135389 -2.82695e-05 -5.60504e-22)
(0.00135082 -3.18251e-05 -7.20288e-22)
(0.00134789 -3.54291e-05 -6.53641e-22)
(0.00134509 -3.90735e-05 -5.06368e-23)
(0.0013424 -4.27216e-05 1.20689e-21)
(0.00133983 -4.63655e-05 1.2077e-21)
(0.00133732 -4.99604e-05 6.03812e-22)
(0.00133486 -5.34888e-05 6.31351e-22)
(0.00130692 -6.47952e-05 1.16918e-22)
(0.00128172 -7.20602e-05 -3.11366e-22)
(0.0012561 -7.81399e-05 -2.30771e-22)
(0.00122974 -8.27469e-05 6.48024e-22)
(0.0012017 -8.62659e-05 3.1095e-22)
(0.00117217 -8.8669e-05 2.9896e-22)
(0.00114 -9.06002e-05 2.87864e-22)
(0.00110567 -9.22602e-05 -1.10959e-23)
(0.0010678 -9.43702e-05 -3.85681e-22)
(0.00102724 -9.73636e-05 -3.19077e-22)
(0.000982252 -0.000102018 9.68718e-22)
(0.000934438 -0.000108999 9.76045e-22)
(0.000881031 -0.000119101 7.39306e-23)
(0.000824051 -0.00013374 -2.92305e-22)
(0.000761183 -0.000153431 -2.92305e-22)
(0.000694498 -0.000180062 2.56488e-22)
(0.0006221 -0.000214505 2.56488e-22)
(0.000544244 -0.000258475 -9.17844e-22)
(0.000458721 -0.000314834 1.42734e-21)
(0.000398961 -0.000366056 0)
(0.000424625 -0.000354861 0)
(0.000450243 -0.00034422 0)
(0.000476292 -0.000333877 0)
(0.000502462 -0.000323933 0)
(0.000529013 -0.000314171 0)
(0.000555754 -0.000304744 0)
(0.00058285 -0.000295468 0)
(0.000610112 -0.000286528 0)
(0.000637668 -0.000277762 0)
(0.000665281 -0.000269351 0)
(0.000693066 -0.000261153 0)
(0.000720751 -0.000253302 0)
(0.000748423 -0.000245693 0)
(0.000775851 -0.000238508 0)
(0.00080313 -0.000231482 0)
(0.000830005 -0.000224925 0)
(0.000856633 -0.000218421 0)
(0.000882571 -0.000212344 0)
(0.000305611 -0.000443269 -8.42723e-22)
(0.000242072 -0.000512781 -8.46266e-22)
(0.000178439 -0.000591389 -2.34199e-25)
(0.000118694 -0.000680054 -1.84304e-21)
(6.6866e-05 -0.000775236 -6.85131e-22)
(2.74891e-05 -0.000873116 1.91736e-21)
(4.00475e-06 -0.000960636 -3.98556e-22)
(-6.85491e-06 -0.00103112 -1.9741e-21)
(-6.89659e-06 -0.00107694 -7.8244e-22)
(0 -0.00109439 0)
(0 -0.00109408 0)
(0 -0.00109325 0)
(0 -0.00109208 0)
(0 -0.00109058 0)
(0 -0.00108891 0)
(0 -0.00108703 0)
(0 -0.0010851 0)
(0 -0.00108306 0)
(0 -0.00108107 0)
(0 -0.00107901 0)
(0 -0.00107706 0)
(0 -0.00107507 0)
(0 -0.00107324 0)
(0 -0.00107139 0)
(0 -0.00106973 0)
(0 -0.00106802 0)
(0 -0.00106637 0)
(0 -0.00106444 0)
(0.000310954 -0.000250644 0)
(0.00031874 -0.000442016 0)
(0.00031008 -0.000607535 0)
(0.000286474 -0.000742728 0)
(0.000253723 -0.000846014 0)
(0.000215949 -0.000920841 0)
(0.000178485 -0.000970103 0)
(0.00014426 -0.00100092 0)
(0.000116041 -0.00101733 0)
(0.000591681 -0.000372969 0)
(0.00059639 -0.000533134 0)
(0.00057169 -0.000655258 0)
(0.000523618 -0.000745807 0)
(0.000462872 -0.000808715 0)
(0.000396204 -0.000852401 0)
(0.000332154 -0.000881058 0)
(0.000275465 -0.00090156 0)
(0.000230415 -0.000916419 0)
(0.000799803 -0.000517616 0)
(0.000785789 -0.000614624 0)
(0.000740957 -0.000669833 0)
(0.000677323 -0.000703607 0)
(0.000605401 -0.000722313 0)
(0.00053173 -0.000736841 0)
(0.000463353 -0.000749184 0)
(0.000404557 -0.000764048 0)
(0.000357971 -0.000780064 0)
(0.000905823 -0.000602589 0)
(0.000869249 -0.000628186 0)
(0.000815245 -0.00062968 0)
(0.000753993 -0.000627121 0)
(0.0006916 -0.00062249 0)
(0.000631643 -0.000623045 0)
(0.000576822 -0.000627218 0)
(0.000529222 -0.000637526 0)
(0.000488313 -0.000649378 0)
(0.000939496 -0.000593693 0)
(0.000895585 -0.000581395 0)
(0.000848151 -0.000566664 0)
(0.000799307 -0.000555333 0)
(0.000751475 -0.000546507 0)
(0.000706523 -0.000542255 0)
(0.000664962 -0.000540761 0)
(0.000627157 -0.000542878 0)
(0.000591855 -0.000545356 0)
(0.000954434 -0.000544166 0)
(0.000917691 -0.000526092 0)
(0.000880115 -0.00051135 0)
(0.000841416 -0.000498391 0)
(0.000802922 -0.000487759 0)
(0.000766303 -0.000479627 0)
(0.000731814 -0.000473158 0)
(0.000699842 -0.000468438 0)
(0.000669545 -0.000464261 0)
(0.000976909 -0.000493379 0)
(0.000946442 -0.000474431 0)
(0.00091552 -0.000457766 0)
(0.000883739 -0.000442338 0)
(0.000852493 -0.000429105 0)
(0.0008223 -0.00041787 0)
(0.000793383 -0.000408061 0)
(0.000766391 -0.000399851 0)
(0.000740527 -0.000392164 0)
(0.00100387 -0.000442369 0)
(0.00097727 -0.000422163 0)
(0.000951629 -0.000404255 0)
(0.000925661 -0.000387726 0)
(0.000900346 -0.000373071 0)
(0.000875772 -0.000360033 0)
(0.00085194 -0.000348175 0)
(0.000829431 -0.000337716 0)
(0.000807487 -0.000327719 0)
(0.00103349 -0.000393876 0)
(0.00101085 -0.000372913 0)
(0.000989288 -0.000354212 0)
(0.000967814 -0.000336888 0)
(0.000946973 -0.000321263 0)
(0.000926853 -0.000307085 0)
(0.000907207 -0.000293984 0)
(0.000888761 -0.000282286 0)
(0.000870481 -0.000271053 0)
(0.00109282 -0.000303217 0)
(0.00107784 -0.000281685 0)
(0.00106349 -0.000262647 0)
(0.00104962 -0.000245155 0)
(0.00103592 -0.000229358 0)
(0.00102303 -0.000214894 0)
(0.00101009 -0.000201564 0)
(0.000998235 -0.000189451 0)
(0.000986334 -0.000178103 0)
(0.00112177 -0.000261218 0)
(0.00111048 -0.000240253 0)
(0.00109947 -0.000221776 0)
(0.00108889 -0.000204938 0)
(0.00107827 -0.00018971 0)
(0.00106831 -0.000175856 0)
(0.00105818 -0.000162997 0)
(0.00104885 -0.000151353 0)
(0.00103937 -0.000140287 0)
(0.00114715 -0.000222696 0)
(0.0011395 -0.000202856 0)
(0.00113168 -0.000185377 0)
(0.00112415 -0.00016952 0)
(0.00111633 -0.000155185 0)
(0.00110907 -0.000142172 0)
(0.0011015 -0.000130118 0)
(0.00109461 -0.000119212 0)
(0.00108747 -0.000108901 0)
(0.00117117 -0.000185991 0)
(0.00116675 -0.000167822 0)
(0.00116178 -0.000151815 0)
(0.00115689 -0.00013741 0)
(0.0011515 -0.000124376 0)
(0.00114647 -0.000112621 0)
(0.00114101 -0.00010173 0)
(0.00113604 -9.19151e-05 0)
(0.00113079 -8.26832e-05 0)
(0.0011912 -0.00015167 0)
(0.00118979 -0.00013573 0)
(0.00118748 -0.000121666 0)
(0.001185 -0.000109075 0)
(0.00118184 -9.76753e-05 0)
(0.00117881 -8.74514e-05 0)
(0.00117528 -7.79831e-05 0)
(0.00117203 -6.9495e-05 0)
(0.00116846 -6.15334e-05 0)
(0.00120862 -0.00011908 0)
(0.00120969 -0.000105751 0)
(0.00120958 -9.39748e-05 0)
(0.00120906 -8.35005e-05 0)
(0.00120772 -7.40109e-05 0)
(0.00120631 -6.55488e-05 0)
(0.00120434 -5.77227e-05 0)
(0.00120246 -5.07353e-05 0)
(0.00120027 -4.42177e-05 0)
(0.00122197 -8.79781e-05 0)
(0.0012251 -7.76814e-05 0)
(0.00122684 -6.85686e-05 0)
(0.00122793 -6.04987e-05 0)
(0.0012281 -5.31779e-05 0)
(0.001228 -4.66793e-05 0)
(0.00122731 -4.06664e-05 0)
(0.00122655 -3.53172e-05 0)
(0.00122546 -3.0335e-05 0)
(0.00123194 -5.80356e-05 0)
(0.00123653 -5.09997e-05 0)
(0.00123959 -4.47649e-05 0)
(0.00124182 -3.92658e-05 0)
(0.00124307 -3.42756e-05 0)
(0.00124391 -2.98617e-05 0)
(0.00124414 -2.57826e-05 0)
(0.00124417 -2.21628e-05 0)
(0.00124388 -1.88036e-05 0)
(0.00123777 -2.88176e-05 0)
(0.00124328 -2.52609e-05 0)
(0.00124718 -2.21065e-05 0)
(0.00125013 -1.933e-05 0)
(0.00125205 -1.68079e-05 0)
(0.00125346 -1.45816e-05 0)
(0.00125426 -1.25224e-05 0)
(0.00125478 -1.06978e-05 0)
(0.00125496 -9.00428e-06 0)
(0.00125536 -4.29005e-06 0)
(0.00124484 -9.2451e-06 0)
(0.0012273 -1.55698e-05 0)
(0.00120331 -2.38812e-05 0)
(0.00117291 -3.48264e-05 0)
(0.00113684 -4.91442e-05 0)
(0.00109535 -6.70635e-05 0)
(0.00104883 -9.03558e-05 0)
(0.000998613 -0.000117402 0)
(0.00125655 -1.79583e-06 0)
(0.00124697 -4.18628e-06 0)
(0.00123091 -7.69428e-06 0)
(0.00120892 -1.30246e-05 0)
(0.00118096 -2.04479e-05 0)
(0.00114758 -3.10802e-05 0)
(0.00110922 -4.42702e-05 0)
(0.00106574 -6.24532e-05 0)
(0.00101931 -8.27687e-05 0)
(0.00125766 -2.66713e-07 0)
(0.00124894 -1.02496e-06 0)
(0.00123436 -2.49849e-06 0)
(0.00121438 -5.52866e-06 0)
(0.00118907 -9.85882e-06 0)
(0.00115869 -1.711e-05 0)
(0.00112394 -2.59973e-05 0)
(0.00108406 -3.95411e-05 0)
(0.00104116 -5.49703e-05 0)
(0.0012604 6.51406e-07 0)
(0.00125236 8.47446e-07 0)
(0.00123898 5.19066e-07 0)
(0.00122052 -1.20974e-06 0)
(0.00119727 -3.83665e-06 0)
(0.00116921 -8.88331e-06 0)
(0.00113737 -1.50643e-05 0)
(0.00110092 -2.46216e-05 0)
(0.00106174 -3.60324e-05 0)
(0.00126388 1.2683e-06 0)
(0.00125656 2.1465e-06 0)
(0.00124448 2.69335e-06 0)
(0.00122769 2.03023e-06 0)
(0.00120665 7.36181e-07 0)
(0.00118108 -2.61677e-06 0)
(0.00115203 -6.95424e-06 0)
(0.00111871 -1.39211e-05 0)
(0.00108254 -2.25775e-05 0)
(0.00126889 1.36903e-06 0)
(0.00126208 2.41203e-06 0)
(0.00125097 3.21374e-06 0)
(0.00123545 3.05547e-06 0)
(0.00121615 2.4134e-06 0)
(0.00119272 2.73382e-07 0)
(0.0011662 -2.75678e-06 0)
(0.001136 -7.56579e-06 0)
(0.00110314 -1.40458e-05 0)
(0.00127528 1.4153e-06 0)
(0.00126905 2.55781e-06 0)
(0.00125897 3.48833e-06 0)
(0.00124479 3.63069e-06 0)
(0.0012272 3.30363e-06 0)
(0.00120578 1.8135e-06 0)
(0.00118147 -5.3293e-07 0)
(0.00115388 -4.14859e-06 0)
(0.00112377 -9.17693e-06 0)
(0.0012829 1.14918e-06 0)
(0.0012771 2.09455e-06 0)
(0.00126784 2.8511e-06 0)
(0.00125477 3.03874e-06 0)
(0.00123864 2.7857e-06 0)
(0.00121908 1.72674e-06 0)
(0.00119692 -1.5914e-07 0)
(0.0011719 -2.91893e-06 0)
(0.0011446 -6.96613e-06 0)
(0.00129218 8.8693e-07 0)
(0.00128685 1.60893e-06 0)
(0.00127838 2.12018e-06 0)
(0.00126639 2.184e-06 0)
(0.00125159 1.78405e-06 0)
(0.00123366 7.82642e-07 0)
(0.00121333 -9.92965e-07 0)
(0.00119046 -3.40362e-06 0)
(0.00116557 -6.89075e-06 0)
(0.00130245 5.09916e-07 0)
(0.00129751 9.00615e-07 0)
(0.00128972 1.08337e-06 0)
(0.0012787 9.42658e-07 0)
(0.00126514 3.4891e-07 0)
(0.00124875 -6.89958e-07 0)
(0.00123021 -2.45665e-06 0)
(0.00120942 -4.71896e-06 0)
(0.00118686 -7.93058e-06 0)
(0.00131438 1.53784e-07 0)
(0.00130982 2.07844e-07 0)
(0.00130265 3.75333e-08 0)
(0.00129249 -3.98443e-07 0)
(0.00128 -1.29156e-06 0)
(0.00126493 -2.54283e-06 0)
(0.00124792 -4.47357e-06 0)
(0.00122889 -6.80695e-06 0)
(0.00120835 -9.97669e-06 0)
(0.00132712 -1.73984e-07 0)
(0.00132291 -4.28618e-07 0)
(0.0013163 -9.07269e-07 0)
(0.00130696 -1.60737e-06 0)
(0.0012955 -2.75397e-06 0)
(0.0012817 -4.21832e-06 0)
(0.00126617 -6.32078e-06 0)
(0.00124882 -8.80346e-06 0)
(0.0012302 -1.20382e-05 0)
(0.00134132 -4.53513e-07 0)
(0.00133742 -9.8529e-07 0)
(0.00133131 -1.74313e-06 0)
(0.00132267 -2.71676e-06 0)
(0.00131208 -4.12166e-06 0)
(0.00129937 -5.84088e-06 0)
(0.00128508 -8.1495e-06 0)
(0.00126919 -1.08409e-05 0)
(0.00125218 -1.42133e-05 0)
(0.00135615 -6.05142e-07 0)
(0.00135254 -1.28757e-06 0)
(0.00134691 -2.19934e-06 0)
(0.00133895 -3.3293e-06 0)
(0.00132921 -4.89038e-06 0)
(0.00131754 -6.77889e-06 0)
(0.00130446 -9.24401e-06 0)
(0.00128995 -1.2111e-05 0)
(0.00127447 -1.56318e-05 0)
(0.00137212 -6.62016e-07 0)
(0.00136877 -1.40735e-06 0)
(0.00136355 -2.38654e-06 0)
(0.00135617 -3.60057e-06 0)
(0.00134716 -5.24765e-06 0)
(0.00133638 -7.24432e-06 0)
(0.00132433 -9.815e-06 0)
(0.00131099 -1.28043e-05 0)
(0.00129683 -1.64474e-05 0)
(0.00138848 -5.02841e-07 0)
(0.00138539 -1.09653e-06 0)
(0.00138057 -1.93904e-06 0)
(0.00137377 -3.03863e-06 0)
(0.00136547 -4.59737e-06 0)
(0.00135555 -6.53875e-06 0)
(0.00134448 -9.08366e-06 0)
(0.00133226 -1.20835e-05 0)
(0.00131932 -1.57577e-05 0)
(0.00140556 -1.77377e-07 0)
(0.00140269 -4.55866e-07 0)
(0.00139824 -9.99275e-07 0)
(0.00139193 -1.82932e-06 0)
(0.00138426 -3.14609e-06 0)
(0.00137509 -4.89094e-06 0)
(0.00136488 -7.27033e-06 0)
(0.00135364 -1.01613e-05 0)
(0.00134177 -1.37489e-05 0)
(0.00142268 4.72759e-07 0)
(0.00142005 8.32088e-07 0)
(0.00141596 8.96474e-07 0)
(0.00141017 6.38861e-07 0)
(0.00140313 -1.64936e-07 0)
(0.0013947 -1.44871e-06 0)
(0.00138534 -3.4535e-06 0)
(0.00137504 -6.02491e-06 0)
(0.00136418 -9.40104e-06 0)
(0.00143994 1.4004e-06 0)
(0.00143752 2.67558e-06 0)
(0.00143378 3.62213e-06 0)
(0.00142847 4.21083e-06 0)
(0.00142202 4.18403e-06 0)
(0.00141431 3.61786e-06 0)
(0.00140575 2.2253e-06 0)
(0.00139634 1.88969e-07 0)
(0.00138644 -2.78626e-06 0)
(0.000917726 -0.000158599 0)
(0.000893487 -0.000164186 0)
(0.000868716 -0.000170378 0)
(0.000843778 -0.000176408 0)
(0.000818845 -0.000182842 0)
(0.000793519 -0.000189425 0)
(0.000768339 -0.000196383 0)
(0.000742868 -0.000203559 0)
(0.000717241 -0.000211069 0)
(0.000691911 -0.00021876 0)
(0.000666647 -0.00022683 0)
(0.000641735 -0.000235059 0)
(0.00061706 -0.000243693 0)
(0.000592825 -0.000252487 0)
(0.000568958 -0.000261728 0)
(0.000545649 -0.000271175 0)
(0.000522817 -0.000281146 0)
(0.000500719 -0.00029145 0)
(0.000479206 -0.0003024 0)
(0.000946495 -0.000114037 0)
(0.000924289 -0.000119221 0)
(0.000901847 -0.000124883 0)
(0.00087931 -0.000130401 0)
(0.000856834 -0.000136237 0)
(0.000834022 -0.000142113 0)
(0.000811418 -0.000148411 0)
(0.000788547 -0.000154929 0)
(0.000765615 -0.000161741 0)
(0.000743031 -0.000168628 0)
(0.000720579 -0.000176005 0)
(0.000698536 -0.000183521 0)
(0.000676827 -0.000191513 0)
(0.000655642 -0.000199692 0)
(0.000634993 -0.000208365 0)
(0.000615018 -0.000217285 0)
(0.00059583 -0.000226741 0)
(0.000577501 -0.000236534 0)
(0.00056033 -0.00024692 0)
(0.000973579 -7.94633e-05 0)
(0.000953213 -8.41358e-05 0)
(0.000932815 -8.91445e-05 0)
(0.000912318 -9.41863e-05 0)
(0.000891689 -9.96079e-05 0)
(0.000871114 -0.000105034 0)
(0.000850404 -0.000110926 0)
(0.00082995 -0.000117019 0)
(0.000809909 -0.000123438 0)
(0.00078991 -0.000129922 0)
(0.00077032 -0.00013691 0)
(0.000751022 -0.000144045 0)
(0.000732245 -0.000151651 0)
(0.000713972 -0.000159462 0)
(0.000696387 -0.000167736 0)
(0.000679511 -0.000176263 0)
(0.000663556 -0.000185258 0)
(0.000648519 -0.000194543 0)
(0.000634741 -0.000204303 0)
(0.00100106 -5.42433e-05 0)
(0.000982867 -5.83886e-05 0)
(0.000964554 -6.28949e-05 0)
(0.000946159 -6.74814e-05 0)
(0.000927704 -7.2447e-05 0)
(0.000909313 -7.75216e-05 0)
(0.00089087 -8.29825e-05 0)
(0.000872719 -8.86154e-05 0)
(0.000855031 -9.46123e-05 0)
(0.000837387 -0.000100763 0)
(0.000820228 -0.000107329 0)
(0.000803372 -0.000114065 0)
(0.000787098 -0.000121238 0)
(0.000771342 -0.000128605 0)
(0.00075631 -0.000136415 0)
(0.000742001 -0.000144446 0)
(0.000728591 -0.000152915 0)
(0.000716111 -0.000161615 0)
(0.000704727 -0.000170739 0)
(0.00102709 -3.6654e-05 0)
(0.0010107 -4.03483e-05 0)
(0.000994231 -4.43653e-05 0)
(0.000977716 -4.85299e-05 0)
(0.00096123 -5.30483e-05 0)
(0.000944816 -5.77187e-05 0)
(0.000928553 -6.27584e-05 0)
(0.000912477 -6.7992e-05 0)
(0.000896712 -7.3575e-05 0)
(0.000881235 -7.93183e-05 0)
(0.000866205 -8.54647e-05 0)
(0.000851598 -9.17699e-05 0)
(0.00083758 -9.84977e-05 0)
(0.000824136 -0.000105395 0)
(0.000811435 -0.000112716 0)
(0.000799472 -0.000120219 0)
(0.000788409 -0.000128138 0)
(0.000778264 -0.000136243 0)
(0.000769164 -0.000144746 0)
(0.00105324 -2.49159e-05 0)
(0.0010387 -2.82538e-05 0)
(0.00102405 -3.1901e-05 0)
(0.00100942 -3.573e-05 0)
(0.000994808 -3.98967e-05 0)
(0.000980311 -4.42364e-05 0)
(0.000965965 -4.89316e-05 0)
(0.000951837 -5.37983e-05 0)
(0.000938025 -5.90311e-05 0)
(0.000924516 -6.44307e-05 0)
(0.000911462 -7.02069e-05 0)
(0.000898837 -7.61475e-05 0)
(0.000886804 -8.24694e-05 0)
(0.000875345 -8.89548e-05 0)
(0.000864622 -9.58182e-05 0)
(0.000854627 -0.000102846 0)
(0.000845522 -0.000110237 0)
(0.000837307 -0.0001178 0)
(0.00083014 -0.000125694 0)
(0.00107846 -1.79591e-05 0)
(0.00106548 -2.10133e-05 0)
(0.00105242 -2.43514e-05 0)
(0.00103941 -2.78906e-05 0)
(0.00102643 -3.17365e-05 0)
(0.0010136 -3.5775e-05 0)
(0.00100094 -4.01356e-05 0)
(0.00098852 -4.46829e-05 0)
(0.000976397 -4.95613e-05 0)
(0.000964624 -5.46154e-05 0)
(0.000953284 -6.00101e-05 0)
(0.000942407 -6.55706e-05 0)
(0.000932105 -7.14745e-05 0)
(0.000922386 -7.75359e-05 0)
(0.000913398 -8.39349e-05 0)
(0.000905111 -9.04847e-05 0)
(0.000897737 -9.73569e-05 0)
(0.00089117 -0.000104376 0)
(0.000885551 -0.000111679 0)
(0.00110383 -1.43092e-05 0)
(0.00109236 -1.7162e-05 0)
(0.00108079 -2.02824e-05 0)
(0.00106932 -2.36098e-05 0)
(0.00105787 -2.72229e-05 0)
(0.0010466 -3.10324e-05 0)
(0.00103548 -3.51404e-05 0)
(0.00102462 -3.94345e-05 0)
(0.00101405 -4.40341e-05 0)
(0.00100383 -4.88085e-05 0)
(0.000994022 -5.38902e-05 0)
(0.000984675 -5.91332e-05 0)
(0.000975877 -6.46806e-05 0)
(0.000967651 -7.03705e-05 0)
(0.00096012 -7.63593e-05 0)
(0.000953278 -8.24605e-05 0)
(0.000947292 -8.88578e-05 0)
(0.000942018 -9.54282e-05 0)
(0.000937698 -0.000102177 0)
(0.00112864 -1.34138e-05 0)
(0.00111844 -1.61172e-05 0)
(0.00110814 -1.9066e-05 0)
(0.00109798 -2.22187e-05 0)
(0.00108783 -2.56292e-05 0)
(0.00107788 -2.92359e-05 0)
(0.00106807 -3.31088e-05 0)
(0.00105854 -3.71679e-05 0)
(0.00104927 -4.14976e-05 0)
(0.00104037 -4.60002e-05 0)
(0.00103184 -5.07737e-05 0)
(0.00102378 -5.57025e-05 0)
(0.00101621 -6.08982e-05 0)
(0.00100921 -6.62257e-05 0)
(0.00100281 -7.18115e-05 0)
(0.000997121 -7.74955e-05 0)
(0.000992112 -8.34262e-05 0)
(0.000987865 -8.95185e-05 0)
(0.000984656 -9.57436e-05 0)
(0.00115363 -1.39982e-05 0)
(0.00114459 -1.65999e-05 0)
(0.00113547 -1.94289e-05 0)
(0.00112649 -2.24512e-05 0)
(0.00111752 -2.57104e-05 0)
(0.00110877 -2.91554e-05 0)
(0.00110014 -3.28427e-05 0)
(0.00109179 -3.67057e-05 0)
(0.00108368 -4.08116e-05 0)
(0.00107593 -4.50805e-05 0)
(0.00106852 -4.95876e-05 0)
(0.00106156 -5.42423e-05 0)
(0.00105505 -5.91241e-05 0)
(0.00104908 -6.41362e-05 0)
(0.00104367 -6.93564e-05 0)
(0.0010389 -7.46896e-05 0)
(0.00103479 -8.01995e-05 0)
(0.00103142 -8.58122e-05 0)
(0.00102898 -9.15619e-05 0)
(0.00117826 -1.58943e-05 0)
(0.00117019 -1.84205e-05 0)
(0.00116204 -2.11558e-05 0)
(0.00115404 -2.407e-05 0)
(0.00114605 -2.71961e-05 0)
(0.00113828 -3.04984e-05 0)
(0.00113062 -3.40135e-05 0)
(0.00112324 -3.76968e-05 0)
(0.00111608 -4.15906e-05 0)
(0.00110927 -4.564e-05 0)
(0.00110277 -4.9893e-05 0)
(0.00109669 -5.42855e-05 0)
(0.00109104 -5.8869e-05 0)
(0.00108589 -6.35727e-05 0)
(0.00108126 -6.84476e-05 0)
(0.00107721 -7.34226e-05 0)
(0.00107381 -7.85395e-05 0)
(0.00107105 -8.37399e-05 0)
(0.00106907 -8.90395e-05 0)
(0.00120301 -1.79703e-05 0)
(0.00119585 -2.04608e-05 0)
(0.00118856 -2.31244e-05 0)
(0.00118142 -2.59428e-05 0)
(0.00117429 -2.8963e-05 0)
(0.00116738 -3.21412e-05 0)
(0.00116057 -3.55148e-05 0)
(0.00115403 -3.9043e-05 0)
(0.00114768 -4.27583e-05 0)
(0.00114166 -4.66189e-05 0)
(0.00113592 -5.0655e-05 0)
(0.00113058 -5.48222e-05 0)
(0.00112562 -5.91486e-05 0)
(0.00112112 -6.35868e-05 0)
(0.00111709 -6.81624e-05 0)
(0.00111358 -7.28257e-05 0)
(0.00111066 -7.75985e-05 0)
(0.00110832 -8.2429e-05 0)
(0.00110667 -8.73362e-05 0)
(0.00122749 -2.02581e-05 0)
(0.00122102 -2.26951e-05 0)
(0.00121444 -2.52864e-05 0)
(0.001208 -2.80194e-05 0)
(0.00120158 -3.0938e-05 0)
(0.00119536 -3.39989e-05 0)
(0.00118923 -3.72378e-05 0)
(0.00118335 -4.06161e-05 0)
(0.00117765 -4.4162e-05 0)
(0.00117226 -4.78382e-05 0)
(0.00116712 -5.16693e-05 0)
(0.00116234 -5.56178e-05 0)
(0.0011579 -5.97029e-05 0)
(0.00115387 -6.38863e-05 0)
(0.00115027 -6.81832e-05 0)
(0.00114714 -7.2551e-05 0)
(0.00114452 -7.70061e-05 0)
(0.00114242 -8.15042e-05 0)
(0.00114092 -8.60511e-05 0)
(0.00125209 -2.18062e-05 0)
(0.00124618 -2.41632e-05 0)
(0.00124021 -2.66811e-05 0)
(0.00123437 -2.93375e-05 0)
(0.00122856 -3.21564e-05 0)
(0.00122292 -3.51103e-05 0)
(0.00121737 -3.82235e-05 0)
(0.00121206 -4.14657e-05 0)
(0.00120689 -4.48598e-05 0)
(0.001202 -4.83717e-05 0)
(0.00119734 -5.20221e-05 0)
(0.001193 -5.57779e-05 0)
(0.00118896 -5.96536e-05 0)
(0.00118529 -6.36157e-05 0)
(0.00118197 -6.76738e-05 0)
(0.00117908 -7.17905e-05 0)
(0.00117664 -7.59765e-05 0)
(0.00117464 -8.01919e-05 0)
(0.00117316 -8.4436e-05 0)
(0.0012764 -2.26919e-05 0)
(0.00127095 -2.49764e-05 0)
(0.00126545 -2.74147e-05 0)
(0.00126009 -2.99748e-05 0)
(0.00125473 -3.26876e-05 0)
(0.00124956 -3.55221e-05 0)
(0.00124445 -3.85047e-05 0)
(0.00123957 -4.16072e-05 0)
(0.00123481 -4.48474e-05 0)
(0.00123031 -4.81947e-05 0)
(0.00122601 -5.16686e-05 0)
(0.00122199 -5.52432e-05 0)
(0.00121823 -5.89203e-05 0)