/*--------------------------------*- C++ -*----------------------------------*\
| =========                 |                                                 |
| \\      /  F ield         | OpenFOAM: The Open Source CFD Toolbox           |
|  \\    /   O peration     | Version:  v2012                                 |
|   \\  /    A nd           | Website:  www.openfoam.com                      |
|    \\/     M anipulation  |                                                 |
\*---------------------------------------------------------------------------*/
FoamFile
{
    version     2.0;
    format      ascii;
    class       volScalarField;
    location    "1";
    object      epsilonEq;
}
// * * * * * * * * * * * * * * * * * * * * * * * * * * * * * * * * * * * * * //

dimensions      [0 0 0 0 0 0 0];


internalField   nonuniform List<scalar> 
15946
(
1.01793e-05
1.06522e-05
1.64668e-05
2.37562e-05
2.23297e-05
9.28852e-06
1.72864e-05
1.11524e-05
1.17018e-05
8.82882e-06
1.20702e-05
1.05467e-05
6.09846e-06
1.60843e-05
1.36886e-05
1.14438e-05
1.07102e-05
1.45342e-05
1.14315e-05
1.14572e-05
1.1014e-05
1.02676e-05
1.03723e-05
1.02668e-05
1.23586e-05
1.57037e-05
1.72928e-05
1.44123e-05
1.02015e-05
1.11529e-05
1.02464e-05
5.45512e-06
1.15033e-05
1.29179e-05
1.03297e-05
1.48491e-05
1.56384e-05
1.16101e-05
1.148e-05
1.07549e-05
1.30323e-05
1.8022e-05
9.63955e-06
9.36571e-06
1.01397e-05
8.9621e-06
1.21584e-05
2.07586e-05
1.3283e-05
2.0564e-05
7.96069e-06
1.24557e-05
1.17028e-05
8.29455e-06
1.76876e-05
1.21835e-05
1.38101e-05
1.45298e-05
1.17851e-05
1.39847e-05
1.09809e-05
1.07508e-05
1.08842e-05
1.07197e-05
1.09532e-05
1.07677e-05
5.2425e-06
5.07032e-06
8.66097e-06
1.10183e-05
1.286e-05
9.52419e-06
1.2033e-05
1.7702e-05
1.81074e-05
1.38126e-05
7.73146e-06
1.66258e-05
1.18654e-05
9.8021e-06
9.87886e-06
9.54768e-06
1.25744e-05
1.09836e-05
1.7195e-05
1.65233e-05
1.20496e-05
1.14246e-05
8.36494e-06
1.53461e-05
1.29211e-05
1.61655e-05
1.47528e-05
1.32426e-05
1.28974e-05
1.10182e-05
9.0996e-06
1.27073e-05
1.01953e-05
9.59562e-06
1.13592e-05
9.59789e-06
1.08936e-05
1.19929e-05
1.21223e-05
1.1008e-05
8.77773e-06
1.37718e-05
1.26717e-05
1.12934e-05
9.41599e-06
1.40374e-05
1.45385e-05
1.24195e-05
9.41239e-06
8.7366e-06
1.07506e-05
1.49199e-05
1.19767e-05
1.27587e-05
7.91097e-06
8.78485e-06
1.25226e-05
1.15714e-05
1.36401e-05
2.46313e-05
1.32695e-05
8.90761e-06
1.55395e-05
1.64274e-05
1.24976e-05
1.00352e-05
1.05964e-05
7.77351e-06
1.2108e-05
1.05596e-05
8.85136e-06
1.14688e-05
7.87649e-06
2.14821e-05
8.56267e-06
1.07119e-05
1.72022e-05
9.80926e-06
1.62802e-05
9.50722e-06
2.30655e-05
1.02183e-05
9.80606e-06
1.17388e-05
1.01928e-05
1.3491e-05
1.26155e-05
1.09609e-05
9.31814e-06
1.10786e-05
1.62317e-05
2.28358e-05
2.19016e-05
8.99146e-06
1.10047e-05
1.72468e-05
1.10436e-05
6.44025e-06
1.25131e-05
1.63487e-05
1.72926e-05
1.34498e-05
1.0278e-05
5.91729e-06
1.13042e-05
6.17519e-06
1.26463e-05
1.49972e-05
9.98756e-06
8.60999e-06
1.62329e-05
1.57864e-05
1.6411e-05
1.35979e-05
1.08979e-05
6.51928e-06
2.58145e-05
2.63456e-05
1.0088e-05
1.08494e-05
1.23256e-05
1.88451e-05
1.17919e-05
9.66231e-06
7.6465e-06
2.61895e-05
1.33629e-05
1.24367e-05
9.9021e-06
1.16985e-05
2.16929e-05
8.84491e-06
1.28095e-05
2.43727e-05
1.32175e-05
7.97775e-06
1.45023e-05
2.62363e-05
1.48835e-05
1.09038e-05
1.89198e-05
9.65962e-06
1.08766e-05
9.87443e-06
2.63456e-05
2.58145e-05
1.96672e-05
2.03766e-05
8.85942e-06
1.02047e-05
1.01818e-05
9.50977e-06
1.48835e-05
1.45023e-05
6.54608e-06
1.22911e-05
2.66892e-05
1.18074e-05
2.888e-05
8.05392e-06
1.83486e-05
1.73925e-05
1.86625e-05
1.92999e-05
9.50342e-06
8.25922e-06
1.01714e-05
8.6694e-06
2.18841e-05
2.1516e-05
8.14312e-06
2.7657e-05
1.25135e-05
2.81084e-05
1.05164e-05
6.95902e-06
1.59728e-05
1.47944e-05
1.07119e-05
1.65957e-05
2.37133e-05
8.36015e-06
9.27439e-06
1.58469e-05
2.53674e-05
9.50722e-06
1.10786e-05
1.56734e-05
8.91777e-06
2.5278e-05
2.38101e-05
1.69251e-05
8.97766e-06
1.10047e-05
1.47944e-05
1.31875e-05
1.33478e-05
9.71367e-06
8.89257e-06
1.15479e-05
2.59693e-05
1.93396e-05
1.44795e-05
1.59728e-05
1.28594e-05
1.32917e-05
1.9824e-05
2.53718e-05
9.59025e-06
8.09354e-06
7.37128e-06
6.49993e-06
6.54785e-06
5.46809e-06
1.08789e-05
1.08989e-05
7.1543e-06
8.88333e-06
5.74538e-06
9.11299e-06
6.46246e-06
8.10265e-06
4.12309e-06
9.1921e-06
6.74309e-06
4.55559e-06
1.14583e-05
9.18576e-06
9.83803e-06
5.30396e-06
6.07045e-06
5.91297e-06
1.20014e-05
1.09923e-05
1.04056e-05
5.86492e-06
8.12041e-06
4.62955e-06
8.91297e-06
1.25857e-05
7.25156e-06
6.85688e-06
4.81473e-06
6.10946e-06
5.60457e-06
7.08915e-06
9.10995e-06
8.18232e-06
1.04242e-05
8.30584e-06
9.50993e-06
6.96379e-06
8.30076e-06
8.10247e-06
9.25381e-06
1.3029e-05
6.68251e-06
4.24774e-06
9.71278e-06
6.6531e-06
6.62105e-06
5.66557e-06
1.02225e-05
1.03811e-05
1.03038e-05
6.97825e-06
1.0292e-05
4.78601e-06
1.08069e-05
9.61993e-06
5.35571e-06
7.90172e-06
1.48744e-05
1.0545e-05
9.14939e-06
8.60448e-06
7.41699e-06
5.88825e-06
9.96238e-06
8.64457e-06
9.07758e-06
1.02184e-05
9.58265e-06
1.14563e-05
4.5665e-06
5.56455e-06
5.31127e-06
4.88287e-06
4.86617e-06
1.04773e-05
8.8418e-06
1.0405e-05
8.48099e-06
8.18354e-06
9.7401e-06
9.7984e-06
6.88624e-06
8.60891e-06
9.83833e-06
5.07655e-06
5.17431e-06
1.03864e-05
1.02863e-05
4.82732e-06
1.04502e-05
8.48065e-06
9.86842e-06
5.17735e-06
1.08882e-05
5.73226e-06
5.64004e-06
8.94942e-06
1.32049e-05
7.95613e-06
9.37171e-06
8.62979e-06
7.50536e-06
9.64957e-06
7.53194e-06
4.47967e-06
1.08918e-05
7.15297e-06
4.32045e-06
4.73048e-06
1.05446e-05
7.38777e-06
4.2296e-06
1.00514e-05
7.38511e-06
1.40664e-05
9.10604e-06
5.52056e-06
8.41917e-06
4.36677e-06
9.78783e-06
1.13757e-05
1.0555e-05
1.01953e-05
5.08758e-06
6.61096e-06
6.64558e-06
6.76917e-06
1.05417e-05
1.24992e-05
1.13674e-05
6.03904e-06
1.01735e-05
5.23929e-06
9.00504e-06
9.03577e-06
8.17995e-06
8.954e-06
4.98919e-06
5.02529e-06
7.22543e-06
1.09242e-05
6.58714e-06
1.05042e-05
1.02336e-05
1.04874e-05
8.35193e-06
4.88542e-06
1.02166e-05
6.45243e-06
6.47042e-06
5.46587e-06
5.05695e-06
5.83848e-06
5.38956e-06
4.01062e-06
1.12627e-05
6.23347e-06
8.47756e-06
4.92747e-06
5.20243e-06
1.00956e-05
3.0137e-06
1.05039e-05
8.14548e-06
4.7839e-06
1.06258e-05
5.5844e-06
4.9476e-06
6.56574e-06
9.86361e-06
5.55162e-06
4.08287e-06
1.04342e-05
5.96934e-06
9.99645e-06
8.36487e-06
3.95203e-06
8.09851e-06
7.19007e-06
1.00907e-05
1.00956e-05
9.97995e-06
1.02551e-05
5.10436e-06
5.29341e-06
1.11705e-05
3.17924e-06
1.03539e-05
8.15093e-06
9.76841e-06
4.31294e-06
8.83677e-06
7.74388e-06
7.14257e-06
1.31681e-05
8.80599e-06
8.39173e-06
9.43696e-06
1.00645e-05
1.03261e-05
7.79377e-06
4.76794e-06
1.29745e-05
7.67501e-06
5.77783e-06
5.77147e-06
4.57912e-06
8.77885e-06
9.78993e-06
1.0955e-05
4.36561e-06
8.67352e-06
6.78955e-06
6.58359e-06
6.19331e-06
7.79647e-06
4.54881e-06
4.43768e-06
6.50212e-06
1.26667e-05
1.02172e-05
6.03634e-06
9.74505e-06
1.03657e-05
5.10692e-06
5.3957e-06
4.7039e-06
8.26713e-06
1.17772e-05
9.80767e-06
5.66511e-06
6.152e-06
8.12748e-06
1.08741e-05
9.72893e-06
8.17923e-06
5.26971e-06
5.94502e-06
1.01228e-05
5.4988e-06
8.14772e-06
4.73351e-06
1.03888e-05
7.01273e-06
8.79523e-06
4.82094e-06
5.54925e-06
6.53069e-06
1.19962e-05
4.80049e-06
4.87192e-06
8.15094e-06
9.99223e-06
1.21332e-05
1.18009e-05
6.47651e-06
5.19708e-06
6.21267e-06
2.40034e-06
6.01039e-06
3.73686e-06
5.03735e-06
6.06213e-06
6.94289e-06
5.5495e-06
6.77817e-06
5.37328e-06
1.21448e-05
1.18317e-05
1.01704e-05
5.96387e-06
8.54933e-06
8.18222e-06
7.79828e-06
6.69267e-06
5.05678e-06
1.01484e-05
8.84328e-06
5.34672e-06
7.39107e-06
9.16198e-06
8.75319e-06
6.03638e-06
6.49375e-06
5.07493e-06
1.1071e-05
6.7237e-06
6.73201e-06
5.59853e-06
8.75619e-06
7.67515e-06
9.64076e-06
9.98506e-06
1.01879e-05
6.97033e-06
8.79445e-06
5.03234e-06
8.54969e-06
9.26032e-06
9.71039e-06
1.2692e-05
1.18575e-05
8.28064e-06
8.65898e-06
4.72688e-06
1.29276e-05
1.03082e-05
8.31408e-06
7.93119e-06
4.53679e-06
7.64006e-06
7.13553e-06
5.58846e-06
9.29026e-06
8.03746e-06
1.26829e-05
6.51479e-06
6.58238e-06
4.81414e-06
7.53926e-06
4.77668e-06
3.86303e-06
7.82743e-06
4.26097e-06
9.00763e-06
6.81241e-06
4.38121e-06
1.02898e-05
6.62876e-06
9.61205e-06
5.19298e-06
1.18693e-05
8.74368e-06
1.12466e-05
9.81346e-06
9.70967e-06
4.22366e-06
1.20805e-05
8.07797e-06
1.00379e-05
5.66635e-06
5.3242e-06
1.01184e-05
9.692e-06
8.84066e-06
8.54879e-06
6.3138e-06
7.57692e-06
9.13958e-06
3.13002e-06
5.12696e-06
9.18093e-06
9.04661e-06
8.52339e-06
6.17232e-06
4.66381e-06
6.36613e-06
1.10389e-05
5.42512e-06
7.56453e-06
6.40659e-06
5.94646e-06
4.59374e-06
4.93105e-06
4.65429e-06
4.70076e-06
1.06935e-05
9.86023e-06
5.1319e-06
1.35435e-05
6.37304e-06
4.97321e-06
6.0978e-06
1.2189e-05
6.397e-06
4.73205e-06
9.47736e-06
8.56355e-06
9.29811e-06
8.94566e-06
4.127e-06
8.18067e-06
8.69944e-06
7.86527e-06
1.09288e-05
5.28197e-06
7.90077e-06
7.3469e-06
7.35369e-06
4.61423e-06
5.65808e-06
6.09189e-06
5.73898e-06
5.6508e-06
8.03166e-06
8.76156e-06
4.90842e-06
7.65468e-06
1.09307e-05
1.06368e-05
5.35448e-06
7.02564e-06
2.45582e-06
5.40238e-06
4.2323e-06
4.41016e-06
9.23035e-06
5.9368e-06
4.82875e-06
1.78399e-06
7.67256e-06
7.72532e-06
1.18397e-05
6.35183e-06
8.51568e-06
1.09243e-05
4.62783e-06
1.25393e-05
8.88745e-06
8.13591e-06
5.70292e-06
4.68653e-06
8.27154e-06
1.20821e-05
4.04466e-06
1.02357e-05
1.056e-05
4.80039e-06
7.208e-06
6.73634e-06
4.53412e-06
4.28634e-06
8.42804e-06
6.32068e-06
1.20225e-05
4.51653e-06
4.80136e-06
8.11701e-06
1.05535e-05
3.65902e-06
9.13619e-06
1.34646e-05
4.07843e-06
7.31609e-06
6.29878e-06
8.66763e-06
6.4211e-06
1.30663e-05
1.22668e-05
6.82032e-06
9.99483e-06
9.99575e-06
1.02447e-05
1.23379e-05
1.02461e-05
6.09132e-06
1.34763e-05
6.93996e-06
6.93751e-06
1.18893e-05
4.45402e-06
4.27403e-06
4.16076e-06
8.06172e-06
8.39409e-06
1.13596e-05
3.31371e-06
3.84959e-06
1.09598e-05
9.38513e-06
3.95012e-06
3.77155e-06
1.34313e-05
7.52002e-06
6.32712e-06
9.62051e-06
7.70458e-06
6.14684e-06
9.37586e-06
3.58448e-06
8.64159e-06
5.14935e-06
1.1306e-05
1.31973e-05
9.53816e-06
9.92191e-06
4.4713e-06
4.98902e-06
4.51511e-06
8.65953e-06
9.23405e-06
1.06403e-05
9.44052e-06
7.50404e-06
9.6999e-06
7.99155e-06
8.19623e-06
8.5854e-06
1.12597e-05
8.43791e-06
1.06752e-05
5.85745e-06
1.0639e-05
8.19427e-06
1.07293e-05
8.14716e-06
7.61831e-06
4.50031e-06
5.93435e-06
1.17724e-05
1.13386e-05
9.22664e-06
9.34742e-06
1.0649e-05
9.44129e-06
8.59935e-06
7.37906e-06
5.75415e-06
7.81044e-06
8.74387e-06
1.13679e-05
8.50266e-06
3.14186e-06
8.13321e-06
1.1929e-05
6.44895e-06
8.44949e-06
5.00806e-06
9.83163e-06
3.71606e-06
7.12489e-06
1.09392e-05
8.50491e-06
1.07025e-05
4.94854e-06
8.23353e-06
8.43138e-06
9.72616e-06
1.07561e-05
7.07438e-06
1.24467e-05
7.28457e-06
6.30666e-06
8.24717e-06
1.00094e-05
6.53366e-06
6.88628e-06
4.0358e-06
1.07571e-05
3.3158e-06
1.17599e-05
1.02813e-05
8.69769e-06
6.3053e-06
3.90895e-06
9.07672e-06
5.05907e-06
4.5757e-06
9.02535e-06
5.16677e-06
1.00372e-05
1.09153e-05
1.37018e-05
7.92393e-06
9.96683e-06
1.39193e-05
1.27897e-05
1.06924e-05
1.18967e-05
1.00099e-05
8.76163e-06
9.92267e-06
4.51472e-06
8.93124e-06
1.07556e-05
5.31833e-06
6.48962e-06
4.55054e-06
5.8081e-06
1.04952e-05
9.77336e-06
1.33929e-05
9.47352e-06
1.0475e-05
1.01155e-05
9.26384e-06
4.9258e-06
1.06067e-05
5.50927e-06
7.06085e-06
1.04021e-05
4.40353e-06
4.83323e-06
5.50882e-06
1.07725e-05
1.09613e-05
4.68198e-06
4.25088e-06
9.60528e-06
4.23994e-06
5.42099e-06
3.57056e-06
8.70864e-06
7.68846e-06
9.54303e-06
8.53309e-06
7.57132e-06
5.16885e-06
6.4069e-06
7.13034e-06
5.21366e-06
6.38475e-06
6.47256e-06
5.34724e-06
3.51744e-06
6.4812e-06
4.19066e-06
6.61657e-06
9.76057e-06
8.5434e-06
7.10239e-06
7.4269e-06
7.69914e-06
4.30557e-06
1.33897e-05
1.22368e-05
7.93001e-06
2.59315e-06
9.78909e-06
7.70751e-06
1.26251e-05
4.23953e-06
3.17966e-06
7.07501e-06
9.75378e-06
4.51314e-06
9.88342e-06
5.1462e-06
8.33589e-06
9.1631e-06
1.11079e-05
9.73972e-06
5.9652e-06
1.17927e-05
8.31949e-06
8.67625e-06
1.20891e-05
8.64919e-06
1.05158e-05
1.16416e-05
5.85136e-06
5.79189e-06
9.8021e-06
1.0125e-05
8.54141e-06
1.25167e-05
5.76725e-06
1.05796e-05
4.25516e-06
9.54921e-06
1.12884e-05
1.11155e-05
1.19273e-05
5.5178e-06
1.02474e-05
1.14172e-05
5.40427e-06
9.04559e-06
1.21636e-05
3.92963e-06
1.13545e-05
1.05272e-05
9.6465e-06
9.95129e-06
7.71177e-06
7.2748e-06
1.08802e-05
3.14529e-06
6.00829e-06
9.57886e-06
5.71507e-06
9.10426e-06
8.57971e-06
4.9361e-06
4.78838e-06
1.06861e-05
5.36081e-06
4.84072e-06
9.58336e-06
4.62282e-06
1.30755e-05
3.70909e-06
6.0882e-06
5.72168e-06
5.88836e-06
1.1542e-05
9.74614e-06
1.26311e-05
8.65103e-06
1.03246e-05
4.91679e-06
6.84959e-06
1.10433e-05
1.18411e-05
6.67793e-06
3.7196e-06
6.5649e-06
1.15492e-05
1.42069e-05
3.59385e-06
7.38746e-06
4.3678e-06
7.6382e-06
4.66035e-06
8.47451e-06
7.95e-06
4.15837e-06
5.89588e-06
5.74957e-06
4.0111e-06
1.05291e-05
7.77396e-06
1.1809e-05
1.42994e-05
6.83559e-06
1.14418e-05
1.20233e-05
6.42598e-06
7.13959e-06
6.19831e-06
7.00041e-06
9.26192e-06
8.2037e-06
6.86308e-06
7.11357e-06
6.42684e-06
1.01933e-05
6.05304e-06
9.63414e-06
9.6263e-06
1.11341e-05
5.41385e-06
4.61179e-06
3.50431e-06
5.59592e-06
5.72933e-06
8.31411e-06
1.06956e-05
7.04302e-06
8.68783e-06
4.41885e-06
3.28372e-06
1.0078e-05
1.0166e-05
1.1837e-05
4.38785e-06
5.01065e-06
8.56313e-06
6.28721e-06
5.39542e-06
1.09212e-05
3.89589e-06
1.16769e-05
3.61533e-06
1.06399e-05
8.65287e-06
6.01206e-06
1.15096e-05
8.65763e-06
9.72986e-06
1.1485e-05
1.18583e-05
1.1977e-05
6.27554e-06
5.37847e-06
9.36836e-06
5.55067e-06
9.59423e-06
9.48553e-06
6.83771e-06
1.15455e-05
4.95954e-06
1.20449e-05
1.0486e-05
7.56905e-06
1.26903e-05
6.56248e-06
6.80804e-06
4.68291e-06
1.2672e-05
4.82216e-06
1.08706e-05
4.67819e-06
7.67579e-06
9.16977e-06
8.68525e-06
8.57642e-06
9.62157e-06
1.16858e-05
4.51381e-06
1.35591e-05
4.29284e-06
9.89009e-06
1.08005e-05
5.76798e-06
3.9128e-06
6.40332e-06
9.33866e-06
4.73017e-06
1.10297e-05
1.29244e-05
6.21693e-06
3.64085e-06
7.10791e-06
1.0831e-05
9.97668e-06
5.10157e-06
1.27602e-05
4.08169e-06
1.31582e-05
7.14003e-06
1.32703e-05
4.6371e-06
8.47115e-06
9.73515e-06
4.2162e-06
1.02165e-05
1.06828e-05
1.71218e-06
1.01309e-05
3.91038e-06
4.4632e-06
8.06375e-06
1.06122e-05
8.91985e-06
8.9223e-06
1.00438e-05
4.1126e-06
8.56412e-06
2.93082e-06
1.02019e-05
3.98161e-06
7.03416e-06
8.92713e-06
9.73946e-06
9.61018e-06
1.04422e-05
9.90138e-06
8.34561e-06
4.99228e-06
4.06127e-06
9.8275e-06
9.29645e-06
1.04091e-05
4.89453e-06
1.03849e-05
1.02476e-05
1.22685e-05
4.60101e-06
4.13261e-06
4.45781e-06
1.22546e-05
1.08211e-05
3.95316e-06
7.52966e-06
4.60699e-06
1.18372e-05
5.03527e-06
5.1613e-06
5.53463e-06
1.17294e-05
1.07019e-05
4.15812e-06
1.14008e-05
1.07697e-05
4.04108e-06
5.53421e-06
5.24872e-06
5.48663e-06
4.61846e-06
1.02572e-05
9.66856e-06
5.37106e-06
1.31589e-05
5.8046e-06
3.756e-06
1.16805e-05
3.4525e-06
3.36971e-06
1.22334e-05
1.19913e-05
1.0808e-05
9.73273e-06
1.00078e-05
8.0558e-06
8.81765e-06
1.15362e-05
1.02964e-05
4.85151e-06
7.82378e-06
6.5343e-06
4.48925e-06
1.22761e-05
1.06431e-05
1.14348e-05
4.25842e-06
8.07795e-06
6.34769e-06
3.91943e-06
1.05966e-05
9.07615e-06
4.9717e-06
1.16642e-05
1.13047e-05
6.09437e-06
1.15945e-05
6.32773e-06
1.10303e-05
8.50694e-06
1.13538e-05
4.02792e-06
4.19244e-06
7.02881e-06
1.14018e-05
1.11093e-05
1.11462e-05
4.96096e-06
5.53374e-06
6.99834e-06
7.74053e-06
4.46896e-06
6.10873e-06
4.89715e-06
1.20062e-05
9.84698e-06
3.90355e-06
8.29329e-06
1.0803e-05
1.09588e-05
1.40318e-05
3.5806e-06
1.02525e-05
8.64942e-06
1.17628e-05
4.48219e-06
6.777e-06
4.97229e-06
5.4987e-06
6.0614e-06
4.62686e-06
1.23967e-05
1.1314e-05
1.14946e-05
1.03853e-05
7.31221e-06
6.68213e-06
7.41091e-06
1.06565e-05
3.18318e-06
1.3041e-05
5.41019e-06
1.06914e-05
9.81573e-06
5.39677e-06
6.25331e-06
3.57451e-06
6.71051e-06
5.93869e-06
1.20845e-05
1.07232e-05
1.06307e-05
7.29543e-06
6.94209e-06
9.5828e-06
1.24675e-05
1.09758e-05
2.99432e-06
1.2168e-05
1.40028e-05
3.36753e-06
1.08754e-05
1.00617e-05
1.31596e-05
1.054e-05
7.30409e-06
4.08783e-06
1.06265e-05
1.14665e-05
6.57408e-06
9.86786e-06
1.37935e-05
7.04708e-06
3.63022e-06
1.17646e-05
4.87299e-06
7.14599e-06
1.18323e-05
1.2363e-05
9.03174e-06
4.2887e-06
9.62834e-06
1.00327e-05
1.04836e-05
1.36528e-05
1.06014e-05
1.04754e-05
7.15898e-06
1.14816e-05
1.08581e-05
7.21283e-06
5.012e-06
9.59815e-06
1.3501e-05
4.30847e-06
7.74718e-06
8.36883e-06
1.27772e-05
1.11423e-05
1.38549e-05
1.33298e-05
8.39919e-06
3.99614e-06
1.32878e-05
3.12982e-06
3.20905e-06
1.06818e-05
1.35656e-05
7.79299e-06
1.3299e-05
8.42352e-06
1.29067e-05
1.06893e-05
5.03994e-06
7.16518e-06
6.57249e-06
6.09509e-06
1.09647e-05
1.09542e-05
9.9424e-06
3.67592e-06
1.05967e-05
2.75352e-06
1.14345e-05
5.76394e-06
1.01047e-05
1.04149e-05
7.08209e-06
9.83194e-06
8.21883e-06
3.20751e-06
2.80863e-06
1.3721e-05
4.04427e-06
1.00466e-05
1.16349e-05
8.25729e-06
6.62969e-06
4.56261e-06
1.28287e-05
4.73905e-06
3.89527e-06
1.1326e-05
7.18206e-06
3.91679e-06
6.9008e-06
1.24934e-05
1.07741e-05
4.07521e-06
9.78388e-06
4.14052e-06
4.25588e-06
5.93504e-06
5.21088e-06
4.59378e-06
9.15533e-06
1.01353e-05
6.72538e-06
8.54183e-06
1.03937e-05
4.34622e-06
1.16365e-05
1.078e-05
2.08301e-06
4.4041e-06
4.36364e-06
1.03014e-05
3.07274e-06
1.03459e-05
1.08511e-05
1.10658e-05
3.90527e-06
2.89613e-06
1.15293e-05
5.63161e-06
1.11643e-05
1.10563e-05
1.26956e-05
3.65248e-06
3.55395e-06
1.05205e-05
7.0791e-06
4.62709e-06
1.30516e-05
1.09187e-05
1.11964e-05
1.12629e-05
8.45022e-06
1.24648e-05
8.47239e-06
1.10954e-05
6.12722e-06
1.15929e-05
8.90253e-06
4.14039e-06
1.10622e-05
6.88856e-06
4.62643e-06
1.09089e-05
9.33248e-06
2.76901e-06
1.2115e-05
9.21737e-06
1.12342e-05
5.06063e-06
1.05966e-05
1.05141e-05
1.05645e-05
5.33774e-06
4.95578e-06
4.98162e-06
1.24339e-05
9.15431e-06
1.37064e-05
1.27548e-05
1.06618e-05
4.82364e-06
4.65898e-06
1.06411e-05
1.27896e-05
1.28293e-05
8.71493e-06
9.72927e-06
9.72934e-06
1.23022e-05
3.26405e-06
3.20935e-06
1.0542e-05
6.36739e-06
1.04335e-05
3.56335e-06
8.40919e-06
1.06841e-05
7.40822e-06
1.07573e-05
9.83014e-06
1.38382e-05
7.14022e-06
6.58276e-06
1.2378e-05
1.26365e-05
1.316e-05
6.14252e-06
4.02511e-06
1.10023e-05
6.42949e-06
1.12746e-05
4.62967e-06
1.11367e-05
7.61192e-06
1.09502e-05
1.89145e-06
1.33216e-05
1.00623e-05
1.61195e-05
9.6115e-06
1.00336e-05
2.92539e-06
1.25438e-05
8.39687e-06
1.3537e-05
3.26104e-06
9.77219e-06
9.14681e-06
1.06742e-05
9.21475e-06
1.28127e-05
7.872e-06
6.34274e-06
9.38461e-06
1.06014e-05
1.2157e-05
3.82676e-06
1.00742e-05
4.10183e-06
6.25356e-06
3.27859e-06
7.42916e-06
8.85149e-06
9.71355e-06
1.0458e-05
9.62094e-06
6.78685e-06
7.40875e-06
4.53727e-06
2.74192e-06
1.09637e-05
7.07473e-06
9.84321e-06
1.05023e-05
1.10593e-05
1.12637e-05
7.31677e-06
9.58852e-06
8.24397e-06
1.01952e-05
3.87649e-06
1.32738e-05
8.18585e-06
7.60146e-06
7.91961e-06
1.92679e-06
1.13512e-05
9.36656e-06
1.05889e-05
1.315e-05
8.82523e-06
2.71665e-06
1.05954e-05
2.86534e-06
7.66491e-06
1.31769e-05
1.24769e-05
1.01864e-05
9.31886e-06
3.97984e-06
8.3186e-06
7.32371e-06
4.24393e-06
4.74252e-06
5.0086e-06
5.78001e-06
4.2955e-06
8.10022e-06
4.15617e-06
6.22321e-06
1.05764e-05
3.16378e-06
2.68187e-06
2.49282e-06
1.04294e-05
8.88836e-06
3.1015e-06
1.3056e-05
9.35559e-06
1.06927e-05
8.56866e-06
7.63699e-06
4.96552e-06
9.28009e-06
9.56553e-06
1.01143e-05
1.04715e-05
1.34768e-05
7.04482e-06
1.25617e-05
1.10299e-05
8.12294e-06
1.22361e-05
1.10022e-05
1.03972e-05
1.04314e-05
9.90786e-06
2.13264e-06
1.03052e-05
3.52045e-06
9.46886e-06
1.34564e-05
4.15912e-06
1.06466e-05
3.94955e-06
1.25489e-05
1.00991e-05
5.54682e-06
9.86353e-06
9.08156e-06
3.37191e-06
2.78154e-06
9.69478e-06
9.66238e-06
5.03938e-06
6.62258e-06
7.60424e-06
1.13341e-05
8.78114e-06
7.98173e-06
1.15889e-05
4.58548e-06
1.15481e-05
5.43192e-06
9.66527e-06
2.8752e-06
9.69988e-06
8.70218e-06
2.83748e-06
3.13999e-06
2.26358e-06
3.96694e-06
8.76861e-06
1.12443e-05
5.13702e-06
1.27723e-05
3.75185e-06
1.31826e-05
1.03094e-05
1.32538e-05
1.34866e-05
2.06067e-06
9.67094e-06
1.37736e-05
1.20516e-05
3.52743e-06
8.93748e-06
1.37163e-05
1.08517e-05
5.36509e-06
1.31873e-05
1.08138e-05
9.22999e-06
3.34263e-06
1.88742e-06
7.99075e-06
1.09406e-05
1.15751e-05
1.05062e-05
4.80553e-06
8.87154e-06
1.26623e-05
1.38144e-05
3.13954e-06
4.20932e-06
1.05375e-05
1.09762e-05
5.03515e-06
1.26476e-05
1.35298e-05
6.6526e-06
3.04613e-06
2.86765e-06
1.29147e-05
1.24844e-05
1.25106e-05
1.17469e-05
3.6411e-06
1.16151e-05
3.60166e-06
1.39269e-05
7.45139e-06
9.59987e-06
4.77633e-06
3.72984e-06
1.28844e-05
1.69089e-06
6.63847e-06
7.89324e-06
1.11884e-05
1.13454e-05
4.6836e-06
8.62328e-06
1.13411e-05
1.06283e-05
1.11579e-05
6.17791e-06
8.51501e-06
5.46782e-06
6.80368e-06
8.24464e-06
8.00168e-06
5.26841e-06
6.72335e-06
5.01224e-06
8.11557e-06
8.80997e-06
1.26071e-05
1.31504e-05
5.90689e-06
9.60009e-06
1.01405e-05
2.04418e-06
4.22772e-06
3.96868e-06
3.94332e-06
6.40958e-06
6.01603e-06
6.3919e-06
8.22826e-06
9.95608e-06
5.54993e-06
1.0635e-05
1.96185e-06
9.48594e-06
2.2997e-06
5.05654e-06
1.15867e-05
3.71539e-06
5.26615e-06
3.99772e-06
4.96897e-06
7.39141e-06
4.72143e-06
7.1243e-06
1.60828e-06
1.05755e-05
1.05268e-05
1.0205e-05
1.20826e-05
7.3885e-06
8.77588e-06
1.18649e-05
7.63996e-06
2.60145e-06
1.04721e-05
1.02853e-05
1.26896e-05
9.68002e-06
1.31787e-06
1.42878e-05
9.46607e-06
7.08061e-06
1.09415e-05
4.95791e-06
7.83721e-06
4.07166e-06
3.03378e-06
5.19256e-06
2.75793e-06
4.44031e-06
7.7061e-06
9.91529e-06
5.03173e-06
4.89874e-06
1.19251e-05
6.0371e-06
1.06922e-05
1.03485e-05
1.20063e-05
1.37253e-05
4.13179e-06
1.25336e-05
1.0569e-05
6.88686e-06
1.17466e-05
7.64669e-06
1.06621e-05
1.02167e-05
4.04509e-06
2.16182e-06
1.26099e-05
1.02055e-05
1.102e-05
3.09681e-06
2.87497e-06
9.02394e-06
1.27973e-05
1.25635e-05
7.03494e-06
5.23469e-06
3.12128e-06
8.42021e-06
2.60444e-06
1.10179e-05
3.5207e-06
8.53301e-06
1.18694e-05
7.21127e-06
1.05102e-05
5.62627e-06
9.46795e-06
1.0075e-06
2.77018e-06
3.84441e-06
1.02012e-05
2.0182e-06
5.20889e-06
3.51117e-06
1.20352e-05
4.06702e-06
1.07093e-05
7.90941e-06
8.58957e-06
1.30908e-05
1.22925e-05
1.32355e-05
1.11158e-05
1.20868e-05
9.6727e-06
9.35046e-06
1.20738e-05
7.1676e-06
3.96179e-06
6.31862e-06
1.13822e-05
4.00823e-06
1.01348e-05
5.88034e-06
9.9609e-06
1.33978e-05
1.17133e-05
3.56925e-06
1.37402e-05
7.60915e-06
5.59409e-06
8.34385e-06
1.13005e-05
6.78058e-06
1.39437e-05
1.07721e-05
2.87937e-06
1.31643e-05
4.63923e-06
9.96797e-06
1.10088e-05
1.07642e-05
9.13635e-06
5.55292e-06
1.35562e-05
8.5256e-06
8.32276e-06
1.31746e-05
1.3496e-05
5.19706e-06
3.32844e-06
9.04636e-06
4.15207e-06
9.9062e-06
1.02017e-05
1.01123e-05
4.57192e-06
3.6353e-06
1.02973e-05
8.81915e-06
9.81972e-06
9.9275e-06
1.1576e-05
3.46156e-06
1.22428e-05
6.44106e-06
9.58161e-06
8.7843e-06
4.77144e-06
3.3985e-06
4.22882e-06
2.58668e-06
1.2992e-05
9.8165e-06
1.06312e-05
1.02708e-05
1.11594e-05
9.73867e-06
1.15032e-05
1.87378e-06
1.17298e-05
1.39781e-05
1.09474e-05
1.28158e-05
1.00743e-05
1.20392e-05
1.05343e-05
2.13169e-06
3.86155e-06
4.70498e-06
9.18251e-06
1.15073e-05
6.83789e-06
3.5571e-06
9.84957e-06
3.032e-06
1.41506e-05
1.29465e-05
1.37333e-05
1.36693e-05
9.90557e-06
1.07469e-05
1.32386e-05
1.03339e-05
4.23386e-06
7.25315e-06
7.65976e-06
4.38695e-06
4.98087e-06
1.19035e-05
4.16325e-06
7.02095e-06
9.51323e-06
7.89549e-06
8.22285e-06
1.12127e-05
4.14369e-06
1.38373e-05
2.04198e-06
3.17355e-06
1.36618e-05
3.09344e-06
2.5749e-06
3.57915e-06
1.22789e-05
1.42584e-05
1.37815e-05
4.1266e-06
6.58593e-06
4.99067e-06
7.77834e-06
1.39454e-05
4.21561e-06
8.44566e-06
3.53689e-06
4.71938e-06
1.01661e-05
1.28798e-05
3.66634e-06
4.34997e-06
3.66275e-06
3.95165e-06
1.34882e-05
4.21193e-06
1.22163e-05
1.29213e-05
1.78921e-06
1.20042e-05
4.36674e-06
7.1897e-06
1.04078e-05
9.34374e-06
6.36553e-06
7.07575e-06
6.41528e-06
1.30321e-05
2.14517e-06
4.61835e-06
8.6144e-06
1.30978e-05
1.10061e-05
6.64832e-06
4.86585e-06
9.70315e-06
4.8143e-06
1.36765e-05
1.02263e-05
1.32742e-05
1.28336e-05
1.19692e-05
4.60904e-06
4.52521e-06
1.36449e-05
1.41688e-05
3.54062e-06
1.01656e-05
1.4454e-05
3.99371e-06
1.1053e-05
1.13092e-05
3.41181e-06
1.03885e-05
7.15445e-06
1.1036e-05
2.5037e-06
9.76438e-06
3.26045e-06
1.50625e-06
1.13504e-05
3.97978e-06
1.10581e-05
4.21477e-06
8.30581e-06
7.8438e-06
1.23425e-05
4.98694e-06
8.10592e-06
8.50644e-06
6.16578e-06
4.23627e-06
1.87612e-06
3.5522e-06
2.75986e-06
4.08228e-06
2.19773e-06
2.71179e-06
2.55401e-06
1.31803e-05
1.35989e-05
8.87401e-06
2.7463e-06
4.10496e-06
1.99674e-06
5.93758e-06
1.15252e-05
2.27617e-06
4.3894e-06
8.09452e-06
1.75659e-06
5.16285e-06
1.33455e-05
1.1704e-05
7.83434e-06
2.71115e-06
4.81172e-06
4.07631e-06
9.42224e-06
1.08575e-05
3.8021e-06
8.02611e-06
1.02971e-05
9.96604e-06
1.08678e-05
1.23796e-05
8.62177e-06
1.03469e-05
1.10875e-05
2.36726e-06
1.04566e-05
8.24792e-06
7.56484e-06
4.20979e-06
3.59865e-06
9.77872e-06
5.18294e-06
5.91814e-06
2.48367e-06
1.29194e-05
3.61129e-06
8.16622e-06
9.88593e-06
1.08065e-05
9.30098e-06
3.52878e-06
4.78629e-06
4.56145e-06
4.30439e-06
6.46068e-06
1.46382e-05
8.782e-06
1.1436e-05
1.13883e-05
1.44013e-05
9.72161e-06
4.05944e-06
2.22122e-06
6.79186e-06
1.16937e-05
1.45665e-05
1.28309e-05
7.21445e-06
3.66462e-06
1.30689e-05
9.19156e-06
7.58874e-06
4.00576e-06
4.71076e-06
5.03915e-06
1.19558e-05
1.12459e-05
1.09355e-05
1.2e-05
3.25172e-06
1.02753e-05
6.50933e-06
1.40602e-05
3.25484e-06
4.13874e-06
8.29034e-06
9.12671e-06
1.12521e-05
4.94806e-06
1.04324e-05
4.31454e-06
1.01869e-05
2.22265e-06
2.06181e-06
6.92642e-06
1.02162e-05
1.10443e-05
3.92516e-06
1.31962e-05
1.04468e-05
1.7954e-06
1.28193e-05
6.67719e-06
4.07982e-06
6.84071e-06
7.0251e-06
3.41939e-06
1.06219e-05
4.35827e-06
1.03623e-05
1.15246e-05
4.44702e-06
1.45501e-05
2.72106e-06
6.67683e-06
3.52885e-06
3.41375e-06
1.16626e-05
2.19104e-06
3.81624e-06
4.38392e-06
1.37048e-05
1.74075e-06
1.20726e-06
3.04193e-06
4.60768e-06
3.73175e-06
1.34728e-05
2.06399e-06
8.42304e-06
1.33226e-05
6.6561e-06
6.43376e-06
6.84983e-06
1.09825e-05
9.22803e-06
4.59677e-06
5.37856e-06
1.0265e-05
4.58103e-06
5.4143e-06
8.97064e-06
8.25436e-06
9.62272e-06
9.98765e-06
8.7695e-06
9.36067e-06
6.70683e-06
6.23224e-06
5.41876e-06
4.62609e-06
5.56139e-06
5.0465e-06
1.16598e-05
1.29305e-05
6.53436e-06
5.64248e-06
4.96399e-06
4.4075e-06
1.10487e-05
1.07277e-05
3.98715e-06
5.1792e-06
4.83829e-06
5.19303e-06
4.72974e-06
4.92882e-06
1.13165e-05
9.36678e-06
1.04274e-05
9.53575e-06
8.26475e-06
8.33736e-06
1.07467e-05
1.15187e-05
1.05948e-05
1.11776e-05
9.00825e-06
9.15818e-06
8.89531e-06
1.00207e-05
1.03333e-05
1.09614e-05
8.64421e-06
8.81498e-06
1.03489e-05
1.01317e-05
1.09733e-05
1.20863e-05
1.20914e-05
1.218e-05
9.75301e-06
1.03431e-05
4.03139e-06
3.65412e-06
5.50181e-06
5.48168e-06
6.55028e-06
6.83877e-06
1.11231e-05
1.07893e-05
7.39226e-06
7.20579e-06
7.4375e-06
6.85035e-06
7.61792e-06
6.96717e-06
1.1358e-05
9.44673e-06
1.0448e-05
9.90711e-06
6.58512e-06
6.92428e-06
6.16845e-06
6.3359e-06
5.98879e-06
7.41824e-06
4.47594e-06
4.19461e-06
1.23014e-05
1.45811e-05
3.41009e-06
3.00131e-06
2.92574e-06
2.58262e-06
2.94079e-06
2.62648e-06
1.8687e-06
2.2871e-06
1.32064e-05
1.46098e-05
1.09463e-05
1.1012e-05
9.87891e-06
1.09294e-05
9.81251e-06
9.79818e-06
1.2232e-05
1.18399e-05
9.26285e-06
9.11505e-06
8.21462e-06
8.26961e-06
7.45204e-06
7.39946e-06
7.75011e-06
8.7114e-06
7.31817e-06
8.32788e-06
1.29148e-05
1.30946e-05
4.36538e-06
4.54417e-06
1.02775e-05
1.0276e-05
1.03943e-05
1.04814e-05
4.1681e-06
4.80653e-06
1.83378e-06
1.65266e-06
1.53012e-05
1.94758e-05
1.05054e-05
1.05619e-05
1.00443e-05
1.29754e-05
1.7949e-05
1.94192e-05
1.03009e-05
1.43936e-05
1.05037e-05
1.47807e-05
1.18265e-05
1.2922e-05
1.24627e-05
1.12946e-05
1.57114e-05
2.00879e-05
1.46684e-05
1.06713e-05
1.1076e-05
1.35667e-05
1.09453e-05
1.58773e-05
1.65435e-05
1.0705e-05
1.94062e-05
1.46826e-05
1.16607e-05
1.30835e-05
1.22751e-05
1.36592e-05
1.80762e-05
1.21755e-05
1.8097e-05
1.18062e-05
1.18659e-05
1.54895e-05
1.20194e-05
1.56868e-05
1.73407e-05
1.08377e-05
1.64496e-05
1.41676e-05
1.20087e-05
1.06082e-05
1.34789e-05
1.52e-05
1.10774e-05
1.35554e-05
1.57301e-05
1.19723e-05
1.58493e-05
1.47311e-05
1.33383e-05
1.26316e-05
1.57882e-05
1.20083e-05
1.29647e-05
9.13811e-06
1.58607e-05
1.15285e-05
9.35003e-06
1.52517e-05
1.28792e-05
1.38199e-05
1.34587e-05
1.30583e-05
1.16599e-05
1.38769e-05
1.4092e-05
1.37419e-05
1.33382e-05
1.29354e-05
1.09114e-05
1.47361e-05
1.37856e-05
1.66756e-05
1.67619e-05
1.0807e-05
1.3697e-05
1.11282e-05
1.55448e-05
9.99745e-06
1.4702e-05
1.14168e-05
1.23901e-05
1.04771e-05
1.03641e-05
1.44976e-05
1.17258e-05
1.10642e-05
1.08008e-05
1.18911e-05
1.14501e-05
1.14159e-05
1.46334e-05
1.82552e-05
1.71354e-05
1.07965e-05
1.63194e-05
1.23285e-05
1.23339e-05
1.82172e-05
1.26616e-05
1.39796e-05
8.65223e-06
1.13701e-05
1.4009e-05
1.47847e-05
1.22287e-05
1.43856e-05
1.28131e-05
1.47732e-05
1.22179e-05
1.37565e-05
1.20104e-05
1.0955e-05
1.82098e-05
1.17831e-05
1.38294e-05
1.45121e-05
1.25483e-05
1.64423e-05
1.6956e-05
1.22968e-05
1.32285e-05
1.74423e-05
1.56635e-05
1.39387e-05
1.56858e-05
1.32765e-05
1.21825e-05
1.44359e-05
1.66633e-05
1.23738e-05
1.41013e-05
1.37158e-05
1.9583e-05
1.06508e-05
1.36452e-05
1.42303e-05
1.32426e-05
1.34138e-05
1.15094e-05
1.39985e-05
1.14768e-05
8.12359e-06
1.26632e-05
1.44169e-05
1.13038e-05
1.8942e-05
1.35332e-05
1.50021e-05
1.1226e-05
1.14899e-05
1.52376e-05
1.39235e-05
1.14959e-05
9.91961e-06
1.37143e-05
1.92922e-05
1.6661e-05
1.3737e-05
1.46716e-05
1.55357e-05
1.71456e-05
1.18431e-05
1.09121e-05
1.60522e-05
1.44743e-05
1.59875e-05
1.94904e-05
1.46263e-05
1.48469e-05
1.13399e-05
1.26071e-05
1.57411e-05
1.8417e-05
1.49585e-05
1.38186e-05
1.4686e-05
1.18485e-05
1.31089e-05
8.80227e-06
1.10009e-05
1.10351e-05
2.17666e-05
7.99518e-06
7.95337e-06
1.47924e-05
1.53201e-05
1.75536e-05
1.51526e-05
1.69377e-05
1.24425e-05
1.7325e-05
1.78305e-05
1.29851e-05
1.21008e-05
2.02208e-05
1.37726e-05
1.57498e-05
1.09996e-05
1.65437e-05
1.04073e-05
1.1196e-05
1.3408e-05
1.49624e-05
1.19263e-05
1.12331e-05
1.78008e-05
1.77948e-05
1.48554e-05
1.75905e-05
1.31227e-05
6.52887e-06
1.63954e-05
1.68731e-05
1.57675e-05
1.96231e-05
1.01261e-05
2.09316e-05
1.44606e-05
1.13948e-05
1.5629e-05
8.99645e-06