/*--------------------------------*- C++ -*----------------------------------*\
| =========                 |                                                 |
| \\      /  F ield         | OpenFOAM: The Open Source CFD Toolbox           |
|  \\    /   O peration     | Version:  v2012                                 |
|   \\  /    A nd           | Website:  www.openfoam.com                      |
|    \\/     M anipulation  |                                                 |
\*---------------------------------------------------------------------------*/
FoamFile
{
    version     2.0;
    format      ascii;
    class       pointScalarField;
    location    "1";
    object      pEpsilonEq;
}
// * * * * * * * * * * * * * * * * * * * * * * * * * * * * * * * * * * * * * //

dimensions      [0 0 0 0 0 0 0];


internalField   nonuniform List<scalar> 
3693
(
4.11463e-06
4.29291e-06
1.4493e-05
2.43619e-05
2.32309e-05
4.10732e-06
3.21186e-06
3.85955e-06
2.71408e-06
1.39427e-05
1.34574e-05
2.57841e-05
5.32159e-05
9.65853e-06
1.09871e-05
7.87114e-06
8.68536e-06
3.64071e-06
3.83068e-06
3.45318e-05
2.20061e-05
5.34351e-06
4.27179e-05
2.41057e-05
1.39325e-05
2.40724e-05
7.89858e-06
8.97513e-06
2.43438e-05
2.068e-06
1.49735e-05
1.42911e-05
2.31199e-05
2.2838e-05
1.41769e-05
5.76806e-06
2.21097e-05
3.859e-06
1.20651e-05
3.68597e-06
1.04685e-06
4.28616e-06
4.1166e-06
1.28598e-05
3.83299e-07
3.87003e-05
4.83959e-05
3.15999e-05
8.97836e-06
1.90752e-07
4.1487e-06
4.18485e-06
4.23621e-06
4.27941e-06
4.24876e-06
4.21697e-06
4.1653e-06
4.06729e-06
3.40257e-06
2.96791e-06
3.19659e-06
4.46717e-06
1.43896e-05
1.5299e-05
1.48705e-05
1.65028e-05
1.33237e-05
1.6398e-05
2.02002e-05
2.5959e-05
1.29446e-05
9.15538e-06
9.00587e-06
1.29786e-05
2.37063e-05
1.96361e-05
1.54555e-05
1.27755e-05
4.375e-06
1.93054e-06
1.1031e-06
2.61219e-06
3.58322e-06
4.07054e-06
4.51759e-06
4.48424e-06
4.27444e-06
4.05967e-06
3.88354e-06
2.89063e-06
2.6323e-06
2.69204e-06
2.90507e-06
3.17108e-06
3.18431e-06
3.30167e-06
3.45287e-06
3.48405e-06
3.50989e-06
3.57392e-06
3.71786e-06
3.84363e-06
3.99055e-06
4.07023e-06
3.95971e-06
4.0724e-06
4.03922e-06
3.90709e-06
7.66251e-06
9.61781e-06
9.67165e-06
8.37531e-06
1.35085e-05
1.31002e-05
1.24798e-05
1.17057e-05
1.11797e-05
1.06216e-05
1.02035e-05
1.02729e-05
1.04506e-05
1.04673e-05
1.03827e-05
1.00764e-05
8.9193e-06
7.68412e-06
6.79333e-06
1.27407e-05
3.45872e-05
1.88644e-05
1.58011e-05
1.38837e-05
1.15695e-05
9.72222e-06
8.16821e-06
6.51261e-06
4.72814e-06
3.02548e-06
1.76399e-06
2.05807e-06
3.56064e-06
6.07246e-06
8.46401e-06
1.14705e-05
9.75049e-06
1.08972e-05
1.04248e-05
1.01694e-05
9.40353e-06
8.77512e-06
8.19652e-06
7.43855e-06
6.81056e-06
6.09902e-06
5.44001e-06
4.7856e-06
4.23307e-06
3.76642e-06
3.61731e-06
3.63547e-06
4.19211e-06
5.45482e-06
8.06732e-06
1.65996e-05
1.88378e-05
2.08434e-05
2.21001e-05
2.36084e-05
2.48466e-05
2.37986e-05
2.23757e-05
5.6115e-06
4.02143e-06
3.37104e-06
5.1621e-06
6.7412e-06
8.90493e-06
1.1083e-05
1.99947e-05
2.75907e-05
3.43546e-05
5.08396e-05
4.96349e-05
4.09627e-05
8.51234e-06
6.69549e-06
4.91119e-06
3.7668e-06
2.50914e-05
1.91561e-05
1.74175e-05
1.53845e-05
1.3574e-05
1.19145e-05
1.03394e-05
8.90429e-06
7.68648e-06
6.60035e-06
5.73109e-06
2.98481e-05
1.01118e-05
8.98531e-06
8.91168e-06
9.86274e-06
1.07404e-05
1.24865e-05
1.42416e-05
1.60546e-05
1.77648e-05
1.9963e-05
4.77938e-05
5.54985e-05
5.37921e-05
2.73322e-05
2.05868e-05
1.45342e-05
2.37474e-05
2.49169e-05
2.49942e-05
2.37401e-05
1.97978e-05
1.81145e-05
1.60658e-05
1.36283e-05
1.10641e-05
6.35714e-06
2.99188e-06
4.72634e-06
4.88443e-06
2.07632e-06
3.88583e-06
9.64547e-06
2.50163e-05
1.90745e-05
1.54707e-05
1.19853e-05
8.03036e-06
1.02533e-05
1.01312e-05
8.59377e-06
1.36388e-05
1.65487e-05
2.10908e-05
2.55083e-05
1.39512e-05
8.20605e-06
7.66164e-06
1.2519e-05
2.58145e-05
7.91616e-06
9.51919e-06
2.63456e-05
4.55845e-06
2.06229e-06
1.67461e-06
2.73597e-06
3.90915e-06
4.54359e-06
4.94842e-06
4.54435e-06
3.96873e-06
2.97314e-06
4.21847e-06
6.34028e-06
9.29135e-06
1.22192e-05
1.48157e-05
1.44937e-05
1.3918e-05
1.3071e-05
1.23825e-05
1.18034e-05
1.13887e-05
1.13121e-05
1.14269e-05
1.14388e-05
1.13161e-05
1.09425e-05
9.79142e-06
8.31468e-06
7.07939e-06
3.8885e-06
3.81304e-06
3.636e-06
3.5675e-06
3.51092e-06
3.13559e-06
2.71497e-06
2.07655e-06
1.49484e-06
1.41669e-06
1.27283e-06
1.35982e-05
1.39459e-05
1.41907e-05
1.37033e-05
1.34266e-05
1.31118e-05
1.30749e-05
1.32119e-05
1.31564e-05
1.29952e-05
1.36001e-05
4.9261e-06
3.76545e-06
6.72058e-06
1.11855e-05
1.11865e-05
9.56158e-06
9.44848e-06
1.05399e-05
1.1274e-05
1.28927e-05
1.45175e-05
1.64696e-05
1.82397e-05
1.95219e-05
2.26904e-05
2.13851e-05
2.01925e-05
1.81992e-05
1.50381e-05
2.33358e-05
2.27693e-05
2.24611e-05
2.36109e-05
2.29338e-05
2.33669e-05
2.33025e-05
2.35549e-05
2.30962e-05
2.20933e-05
2.22423e-05
2.22724e-05
2.2869e-05
2.25799e-05
2.09071e-05
1.56507e-05
1.31852e-05
1.09403e-05
9.25664e-06
7.88578e-06
6.3153e-06
5.40563e-06
3.89885e-06
2.6784e-06
1.68179e-06
2.03387e-06
3.64567e-06
5.8023e-06
8.36812e-06
1.14592e-05
1.44026e-05
1.53296e-05
1.46912e-05
1.60441e-05
2.4691e-05
2.49027e-05
2.4463e-05
2.48048e-05
2.43496e-05
2.53276e-05
2.46159e-05
2.6622e-05
2.51581e-05
2.39634e-05
2.36603e-05
1.49361e-05
9.69691e-06
3.78264e-06
2.39844e-06
5.33568e-06
6.23221e-06
7.11963e-06
8.13133e-06
9.5239e-06
1.08928e-05
1.28406e-05
1.44067e-05
1.63104e-05
1.78197e-05
1.95293e-05
2.24658e-05
2.31487e-05
2.26659e-05
2.1448e-05
5.63058e-06
2.1737e-05
2.12039e-05
2.07804e-05
2.17168e-05
2.08067e-05
2.1102e-05
2.17766e-05
2.20521e-05
2.08504e-05
2.08688e-05
2.11156e-05
4.88004e-06
3.40038e-06
2.99865e-06
3.34624e-06
3.64361e-06
3.64229e-06
3.81556e-06
4.35041e-06
4.99406e-06
5.75186e-06
6.59592e-06
7.36526e-06
8.02458e-06
9.01265e-06
9.87333e-06
1.06248e-05
1.1513e-05
1.18584e-05
1.21794e-05
1.51799e-05
1.73946e-05
1.88841e-05
2.09177e-05
3.82299e-06
1.06143e-05
1.06712e-05
1.03451e-05
1.04904e-05
1.10281e-05
1.01856e-05
1.02184e-05
9.98217e-06
1.00199e-05
1.05023e-05
1.07563e-05
3.94911e-06
4.09305e-06
4.13992e-06
3.99814e-06
3.62138e-06
3.57835e-06
3.72921e-06
3.82436e-06
3.93101e-06
3.82792e-06
3.75899e-06
2.99664e-06
2.4883e-06
1.62305e-06
2.81281e-06
4.58404e-06
6.83429e-06
9.52516e-06
3.58254e-06
2.85923e-06
2.79341e-06
2.66805e-06
2.61062e-06
2.38226e-06
2.08864e-06
1.75985e-06
1.34081e-06
9.85255e-07
8.66846e-07
5.92349e-07
4.24751e-06
4.21793e-06
4.19305e-06
4.10019e-06
3.7478e-06
3.86351e-06
3.9967e-06
4.06944e-06
4.15795e-06
4.19481e-06
4.23025e-06
4.27941e-06
4.32804e-06
4.11588e-06
1.27037e-05
7.45112e-06
4.02687e-06
1.41269e-06
8.46021e-07
1.35494e-05
1.49499e-05
1.51394e-05
1.45622e-05
1.46072e-05
1.4216e-05
1.25926e-05
1.42925e-05
1.54803e-05
1.35369e-05
1.19813e-05
4.05668e-06
4.32417e-06
4.23848e-06
3.73881e-06
3.76423e-06
3.57393e-06
3.04858e-06
2.52212e-06
2.29398e-06
1.63009e-06
7.41059e-07
2.62854e-05
3.07092e-05
2.5157e-05
1.89622e-05
4.68475e-05
4.46207e-05
4.42505e-05
3.90714e-05
4.30317e-05
4.30567e-05
3.77041e-05
3.89838e-05
4.25077e-05
4.104e-05
4.22877e-05
2.92936e-05
4.70679e-05
4.83508e-05
4.20135e-05
5.06517e-05
5.78757e-05
5.74213e-05
5.64045e-05
5.79701e-05
5.68875e-05
5.24709e-05
5.46451e-05
5.62641e-05
5.41943e-05
4.83362e-05
2.29961e-05
3.65335e-05
4.35228e-05
4.40882e-05
3.68589e-05
3.69141e-05
3.79357e-05
3.2608e-05
3.58572e-05
3.61854e-05
3.33825e-05
3.21639e-05
3.47798e-05
3.35283e-05
3.40745e-05
1.00253e-05
1.37558e-05
1.87965e-05
2.39541e-05
1.02581e-05
1.02125e-05
1.10538e-05
1.02434e-05
1.06556e-05
1.053e-05
1.02284e-05
1.01884e-05
9.71287e-06
9.215e-06
8.11769e-06
3.60008e-07
8.10353e-07
2.57325e-06
4.93586e-06
3.24457e-06
3.12556e-06
3.01968e-06
2.8885e-06
2.71316e-06
2.41351e-06
2.203e-06
1.89862e-06
1.61577e-06
9.66723e-07
4.41389e-07
1.03175e-05
1.05272e-05
1.02184e-05
1.40371e-05
1.25586e-05
8.08001e-06
1.29335e-05
9.92444e-06
1.30145e-05
1.00956e-05
9.47966e-06
1.76906e-05
1.65021e-05
9.6767e-06
1.06261e-05
1.0276e-05
1.01953e-05
9.62988e-06
1.30057e-05
1.96546e-05
1.33319e-05
9.79897e-06
1.0736e-05
9.22936e-06
1.81235e-05
8.20863e-06
6.37739e-06
7.02309e-06
9.86663e-06
8.57059e-06
1.00897e-05
6.2168e-06
7.73878e-06
4.69644e-06
5.82464e-06
5.75676e-06
8.15368e-06
9.87594e-06
9.42192e-06
3.50428e-06
8.93218e-06
5.51974e-06
4.30999e-06
7.82496e-06
1.01656e-05
9.03117e-06
7.13495e-06
8.05129e-06
7.02332e-06
6.07117e-06
9.64917e-06
5.10209e-06
9.59957e-06
1.12288e-05
5.09264e-06
8.42722e-06
1.00803e-05
3.44478e-06
9.93601e-06
7.47618e-06
1.13555e-05
6.21204e-06
1.00205e-05
2.62466e-06
9.09028e-06
8.72077e-06
5.09782e-06
9.95326e-06
8.71846e-06
4.67441e-06
5.01065e-06
6.68216e-06
6.21539e-06
9.37987e-06
6.49678e-06
5.11018e-06
9.66035e-06
7.91809e-06
5.40594e-06
9.24509e-06
4.84361e-06
3.18468e-06
3.94463e-06
5.30597e-06
1.01944e-05
9.88602e-06
4.85794e-06
9.78793e-06
1.08345e-05
8.5847e-06
1.23282e-05
4.61845e-06
8.90145e-06
1.05417e-05
1.0309e-05
4.44768e-06
1.23872e-05
1.91702e-06
7.33678e-06
1.55245e-05
1.23809e-05
1.04149e-05
9.60157e-06
1.3515e-05
1.62064e-05
1.86206e-05
1.13285e-05
1.07547e-05
1.384e-05
8.62139e-06
1.21531e-05
1.42588e-05
1.08548e-05
9.54575e-06
1.12166e-05
1.66453e-05
1.18751e-05
1.8121e-05
5.34424e-06
7.32986e-06
1.43216e-05
8.88515e-06
1.3017e-05
1.15764e-05
1.08903e-05
1.48258e-05
1.19389e-05
1.55241e-05
2.0159e-05
1.68002e-05
1.03905e-05
1.06588e-05
1.3136e-05
1.16469e-05
1.40467e-05
1.10716e-05
8.68294e-06
1.00717e-05
1.05603e-05
1.45142e-05
1.74915e-05
1.08442e-05
5.30873e-06
1.31072e-05
1.18327e-05
1.66093e-05
1.55954e-05
1.77041e-05
1.97482e-05
1.04832e-05
1.09695e-05
1.09581e-05
9.40423e-06
7.39977e-06
1.03416e-05
8.88035e-06
1.23088e-05
1.32116e-05
1.06709e-05
1.51034e-05
1.57585e-05
6.97922e-06
1.29388e-05
1.25658e-05
1.45041e-05
1.93072e-05
1.10265e-05
1.22211e-05
1.00849e-05
2.13385e-05
1.5165e-05
9.26035e-06
9.35763e-06
1.35128e-05
7.42845e-06
5.82418e-06
6.83533e-06
1.03372e-05
1.68942e-05
1.78572e-05
4.65093e-06
6.9121e-06
1.1213e-05
9.40279e-06
7.60002e-06
1.28743e-05
3.86128e-06
7.85895e-06
5.37372e-06
1.53724e-05
9.92947e-06
1.89066e-05
1.28683e-05
1.23857e-05
1.11081e-05
8.77171e-06
9.00476e-06
5.85751e-06
3.59751e-06
1.36228e-05
8.70907e-06
1.93897e-05
2.06145e-05
1.65951e-05
4.02973e-06
8.93053e-06
1.13469e-05
6.06592e-06
1.45457e-05
5.5391e-06
6.90964e-06
8.17467e-06
5.51985e-06
1.18639e-05
1.68349e-05
2.87004e-06
1.20378e-05
1.1523e-05
7.99569e-06
1.57108e-05
1.2924e-05
2.04867e-05
2.10849e-05
1.2411e-05
7.01923e-06
4.38632e-06
7.76067e-06
9.68976e-06
6.57413e-06
8.79227e-06
1.05279e-05
9.18767e-06
2.78406e-06
1.4842e-05
1.51101e-05
9.98594e-06
1.24841e-05
9.07478e-06
1.67032e-05
1.83663e-05
4.06435e-06
1.00196e-05
4.24673e-06
2.24159e-05
2.1818e-05
8.20485e-06
1.32646e-05
1.47287e-05
9.36221e-06
5.0718e-06
1.04452e-06
1.11989e-05
1.77788e-05
1.81448e-05
6.11472e-06
7.71863e-06
1.24664e-05
5.24511e-06
8.90154e-06
1.413e-05
2.92655e-06
6.86535e-06
6.29963e-06
1.58367e-05
1.0491e-05
1.94302e-05
2.47628e-06
2.64119e-06
1.28168e-05
3.72161e-06
1.08031e-05
7.73458e-06
4.48139e-06
1.40683e-05
9.46245e-06
1.89983e-05
2.00656e-05
1.73382e-05
7.7563e-07
9.27614e-06
1.20268e-05
7.71277e-06
1.53353e-05
6.41473e-06
2.40925e-06
7.91713e-06
2.97034e-06
1.29193e-05
1.69345e-05
3.10457e-06
6.52599e-06
1.2078e-05
9.17961e-06
1.62872e-05
1.40025e-05
2.02952e-05
2.05227e-05
5.36946e-06
7.78829e-06
4.66135e-06
5.75925e-06
4.9928e-06
6.82904e-06
6.08835e-06
1.06567e-05
1.05063e-05
1.38103e-06
1.58104e-05
1.49291e-05
1.44418e-06
1.33715e-05
9.94682e-06
1.69144e-05
1.81948e-05
4.49909e-06
1.0767e-05
1.28525e-06
2.10352e-05
2.1819e-05
7.00109e-06
4.25748e-06
1.33472e-05
9.76569e-06
5.97697e-06
4.20389e-06
1.10636e-05
1.42829e-05
1.68676e-05
7.35569e-06
8.21054e-06
1.23568e-05
5.31184e-06
9.13516e-06
1.20568e-05
5.71161e-06
6.9266e-06
7.83193e-06
1.50876e-05
1.06541e-05
1.57807e-05
3.11703e-06
3.75689e-06
1.20685e-05
4.67303e-06
1.07172e-05
8.62478e-06
6.59554e-06
1.32228e-05
9.46106e-06
1.286e-05
1.84001e-05
1.48686e-05
4.88001e-06
9.13473e-06
1.06494e-05
8.60591e-06
1.1864e-05
7.27118e-06
3.7549e-06
7.99672e-06
5.13344e-06
1.21154e-05
1.64495e-05
5.98688e-06
3.31417e-06
1.20962e-05
9.58726e-06
1.51023e-05
1.35945e-05
1.50763e-05
1.72161e-05
5.23872e-06
8.22114e-06
6.32846e-06
5.89704e-06
3.43481e-06
7.07044e-06
6.06016e-06
1.12945e-05
1.09599e-05
5.33321e-06
1.31512e-05
1.44172e-05
3.56473e-06
1.07608e-05
1.01907e-05
1.21296e-05
1.83038e-05
6.41861e-06
9.8318e-06
4.31718e-06
1.99172e-05
1.20571e-05
7.02723e-06
4.39765e-06
6.44453e-06
5.77555e-06
4.61021e-06
4.46809e-06
7.3205e-06
7.9371e-06
4.50875e-06
5.64402e-06
4.58629e-06
5.03867e-06
4.06419e-06
6.72857e-06
8.06099e-06
5.22825e-06
4.01429e-06
6.60751e-06
4.10283e-06
4.27269e-06
5.74706e-06
4.06132e-06
4.22991e-06
6.10062e-06
4.35926e-06
6.08118e-06
5.26896e-06
6.17786e-06
4.10616e-06
7.67246e-06
8.87321e-06
3.64936e-06
6.68742e-06
4.76542e-06
3.98083e-06
8.33354e-06
6.02327e-06
9.00643e-06
4.96212e-06
4.17498e-06
3.81881e-06
4.72266e-06
7.19554e-06
3.51046e-06
5.69397e-06
3.86549e-06
4.03675e-06
4.83191e-06
5.19413e-06
4.85598e-06
7.39625e-06
4.72806e-06
3.82607e-06
7.45529e-06
5.13547e-06
4.1765e-06
3.90145e-06
4.37538e-06
3.76655e-06
3.51311e-06
5.12335e-06
5.28477e-06
7.80728e-06
3.47668e-06
4.22479e-06
9.0917e-06
6.99798e-06
9.72931e-06
3.14983e-06
5.658e-06
8.3564e-06
4.522e-06
3.09961e-06
9.65906e-06
3.7497e-06
4.15118e-06
4.15788e-06
4.02806e-06
4.13448e-06
4.23382e-06
4.1125e-06
4.02709e-06
4.18842e-06
4.13725e-06
4.1977e-06
3.8976e-06
4.26694e-06
4.04075e-06
4.11269e-06
4.15169e-06
4.17556e-06
4.18516e-06
4.1492e-06
4.25787e-06
4.06237e-06
4.05148e-06
4.12943e-06
3.85546e-06
4.05673e-06
4.24206e-06
4.15685e-06
7.82364e-06
5.24412e-06
9.49055e-06
4.21566e-06
6.90609e-06
1.06717e-05
4.60381e-06
5.75593e-06
1.92357e-05
2.39112e-05
1.60038e-05
3.01573e-05
1.97044e-05
1.61548e-05
2.46184e-05
2.32977e-05
3.5476e-05
3.41557e-05
4.15367e-05
3.71041e-05
2.86165e-05
2.95006e-05
2.8859e-05
4.31265e-05
3.36439e-05
3.08696e-05
4.03878e-05
3.16473e-05
2.71229e-05
2.93409e-05
2.60186e-05
3.90752e-05
1.51262e-05
2.08007e-05
1.20166e-05
2.42914e-05
1.69955e-05
1.29718e-05
2.10361e-05
1.82616e-05
5.77052e-06
4.00123e-06
7.02833e-06
3.32292e-06
4.83638e-06
8.03402e-06
3.48459e-06
4.16284e-06
2.27678e-05
1.57524e-05
1.48131e-05
1.03397e-05
2.45299e-05
9.38569e-06
1.06093e-05
9.60836e-06
8.54698e-06
7.15114e-06
1.50458e-05
1.68624e-05
2.47261e-05
2.41042e-05
1.16964e-05
1.19826e-05
7.40659e-06
1.26466e-05
1.83112e-05
1.75809e-05
1.03369e-05
1.25709e-05
1.23912e-05
1.12893e-05
9.80425e-06
1.19706e-05
1.03475e-05
7.36416e-06
1.39429e-05
1.60656e-05
1.65271e-05
1.09327e-05
8.59689e-06
1.06944e-05
1.07767e-05
1.01009e-05
9.8411e-06
9.94627e-06
2.00737e-05
1.26042e-05
9.66708e-06
9.90467e-06
1.78383e-05
1.41289e-05
9.51196e-06
4.4193e-06
4.22388e-06
3.53198e-06
3.76293e-06
4.08594e-06
4.38029e-06
1.71612e-06
3.99814e-06
4.62828e-06
4.42895e-06
3.70929e-06
3.50778e-06
3.44659e-06
4.02944e-06
4.04195e-06
4.0223e-06
3.56096e-06
4.45748e-06
3.82477e-06
4.12645e-06
3.42229e-06
2.8558e-06
2.19998e-06
4.07891e-06
3.35559e-06
3.96648e-06
2.11844e-06
2.72367e-06
4.59616e-06
4.01351e-06
4.5168e-06
4.39491e-06
4.67192e-06
4.29951e-06
4.58724e-06
4.0634e-06
4.49458e-06
4.61173e-06
5.02502e-06
3.96754e-06
4.48482e-06
1.41945e-06
1.37413e-06
2.46201e-06
2.52422e-06
3.32106e-06
4.71775e-06
3.89182e-06
2.91839e-06
4.50804e-06
4.57361e-06
4.00269e-06
3.87396e-06
5.39853e-06
4.19966e-06
3.66198e-06
3.84953e-06
2.97106e-06
4.87162e-06
2.38713e-06
4.13037e-06
3.95627e-06
4.32637e-06
2.15163e-06
4.64729e-06
3.32868e-06
3.26532e-06
4.30256e-06
3.85452e-06
3.72501e-06
4.07623e-06
2.16226e-06
6.91781e-06
6.60292e-06
7.18862e-06
6.58755e-06
6.07077e-06
1.01576e-05
9.70219e-06
9.66867e-06
5.97113e-06
4.46554e-06
9.23128e-06
8.90089e-06
5.21604e-06
4.71239e-06
1.05679e-05
4.93753e-06
4.32891e-06
1.13344e-05
1.03009e-05
3.69464e-06
7.55743e-06
7.10839e-06
3.07861e-06
1.05277e-05
7.86353e-06
1.11253e-05
6.60866e-06
6.78718e-06
4.52486e-06
7.66873e-06
8.24803e-06
1.17174e-05
4.46097e-06
3.94384e-06
4.5469e-06
1.15224e-05
3.04549e-06
1.13981e-05
1.17158e-05
4.3522e-06
1.08878e-05
1.08786e-05
1.13851e-05
1.12965e-05
2.31064e-06
2.88271e-06
6.36352e-06
7.74571e-06
8.47027e-06
5.22908e-06
7.36065e-06
5.93511e-06
3.68871e-06
8.9802e-06
8.26767e-06
9.51666e-06
9.70889e-06
5.94336e-06
5.11399e-06
9.41275e-06
4.53664e-06
4.98747e-06
2.50446e-06
6.43396e-06
5.07959e-06
1.16688e-05
1.24901e-05
1.0355e-05
1.30669e-05
1.07696e-05
1.08769e-05
1.23208e-05
1.12632e-05
1.18861e-05
1.33242e-05
1.07987e-05
1.36208e-05
1.30361e-05
1.31871e-05
1.02918e-05
1.09109e-05
1.07596e-05
1.04288e-05
1.29506e-05
9.77302e-06
1.14858e-05
1.08427e-05
1.22975e-05
1.31457e-05
1.21013e-05
1.36257e-05
1.16845e-05
7.8582e-06
1.16194e-05
1.39503e-05
1.10488e-05
1.0611e-05
1.3688e-05
1.17522e-05
1.0473e-05
1.08697e-05
1.34707e-05
1.08965e-05
1.13642e-05
1.09704e-05
1.10456e-05
1.16951e-05
6.5047e-06
1.25315e-05
1.03964e-05
1.35508e-05
1.01097e-05
1.36322e-05
1.22848e-05
1.10866e-05
1.09371e-05
1.27258e-05
1.33912e-05
1.2789e-05
1.06658e-05
1.02518e-05
1.29698e-05
1.28288e-05
1.02623e-05
1.08254e-05
1.31919e-05
1.27583e-05
1.03325e-05
1.24541e-05
1.10155e-05
1.15664e-05
1.02775e-05
1.34464e-05
1.06087e-05
1.10968e-05
1.1641e-05
1.27176e-05
1.10116e-05
9.36321e-06
9.1404e-06
1.14813e-05
1.28442e-05
1.04003e-05
7.65838e-06
1.10484e-05
1.34841e-05
1.17524e-05
1.20221e-05
7.53015e-06
1.35673e-05
1.20947e-05
1.22141e-05
1.03792e-05
1.03778e-05
1.3891e-05
1.09182e-05
1.13967e-05
9.8508e-06
1.38355e-05
1.12448e-05
1.11707e-05
1.08077e-05
9.74682e-06
9.94302e-06
1.35436e-05
1.36182e-05
1.06836e-05
1.3079e-05
1.31183e-05
1.37179e-05
7.08984e-06
7.39348e-06
1.46326e-05
8.70778e-06
7.11755e-06
7.51722e-06
1.04939e-05
9.74306e-06
1.08702e-05
6.23316e-06
8.47227e-06
4.95507e-06
6.49244e-06
6.21572e-06
8.91517e-06
1.09891e-05
1.01472e-05
3.96674e-06
1.00307e-05
6.10313e-06
4.74723e-06
8.13849e-06
1.07996e-05
9.31549e-06
7.87325e-06
8.64654e-06
7.82946e-06
6.7339e-06
1.03243e-05
5.6666e-06
1.06453e-05
1.21458e-05
4.2841e-06
8.86026e-06
1.07492e-05
3.7646e-06
1.12234e-05
8.13353e-06
1.23922e-05
6.70057e-06
1.08231e-05
3.05572e-06
9.58673e-06
9.28622e-06
5.00699e-06
1.08327e-05
9.15376e-06
5.0958e-06
5.50727e-06
6.89258e-06
6.93736e-06
1.0022e-05
6.07164e-06
5.53659e-06
1.06956e-05
8.65876e-06
5.92314e-06
9.91916e-06
5.32433e-06
3.38326e-06
4.53598e-06
5.89721e-06
1.10326e-05
1.06263e-05
5.17705e-06
1.01981e-05
1.2432e-05
9.46824e-06
1.31041e-05
4.16409e-06
9.68357e-06
1.16037e-05
1.10772e-05
2.98491e-06
1.39966e-05
2.19613e-06
7.62797e-06
5.49782e-06
4.22147e-06
9.34543e-06
6.00367e-06
1.2083e-05
1.36257e-05
1.62749e-05
9.69898e-06
1.63377e-05
1.84921e-05
1.28644e-05
8.88824e-06
1.19769e-05
1.35547e-05
1.82062e-05
1.78831e-05
1.85723e-05
7.96839e-06
1.88969e-05
1.59161e-05
1.24957e-05
1.07127e-05
1.51031e-05
1.67253e-05
1.5378e-05
1.0411e-05
1.91749e-05
9.29242e-06
2.00584e-05
2.0927e-05
2.04913e-05
9.52746e-06
1.93725e-05
1.42548e-05
2.05348e-05
1.40859e-05
1.33413e-05
1.67645e-05
1.82458e-05
1.32988e-05
1.17783e-05
1.33602e-05
1.25165e-05
1.16313e-05
1.74453e-05
1.67707e-05
8.62229e-06
9.50454e-06
2.04451e-05
9.52925e-06
1.00748e-05
1.43115e-05
1.97916e-05
2.08936e-05
1.46101e-05
1.73221e-05
1.21679e-05
1.08318e-05
1.15733e-05
1.78642e-05
1.73563e-05
2.14247e-05
9.83935e-06
1.35515e-05
2.10034e-05
1.19009e-05
1.53064e-05
1.81535e-05
8.88623e-06
1.40827e-05
9.62723e-06
8.81651e-06
1.66336e-05
1.80469e-05
1.82657e-05
2.1286e-05
2.123e-05
1.88336e-05
1.93582e-05
1.94764e-05
1.88852e-05
1.84198e-05
2.07531e-05
1.66075e-05
1.79196e-05
1.81474e-05
2.08301e-05
2.16794e-05
1.80077e-05
2.2708e-05
2.17249e-05
2.16523e-05
1.65192e-05
1.61614e-05
2.23241e-05
1.62315e-05
2.27255e-05
1.96912e-05
1.93042e-05
2.14114e-05
1.62691e-05
1.66344e-05
1.9929e-05
1.90445e-05
1.88997e-05
1.65904e-05
2.03508e-05
2.22005e-05
1.85529e-05
1.82415e-05
2.19083e-05
1.59306e-05
2.17572e-05
1.5778e-05
2.28562e-05
1.59591e-05
2.0838e-05
1.60144e-05
1.61026e-05
2.285e-05
1.53806e-05
2.19537e-05
2.23006e-05
1.81142e-05
1.76092e-05
1.83382e-05
2.11414e-05
2.02474e-05
1.96576e-05
2.32063e-05
1.82402e-05
1.7039e-05
1.84625e-05
2.13022e-05
1.77412e-05
2.10978e-05
2.07337e-05
2.16066e-05
2.13549e-05
2.1696e-05
2.10449e-05
1.73969e-05
1.36995e-05
1.10782e-05
1.01177e-05
1.47941e-05
1.74331e-05
1.96491e-05
1.25487e-05
1.24173e-05
1.49159e-05
9.01856e-06
1.34234e-05
1.60579e-05
1.17716e-05
9.63422e-06
1.22692e-05
1.72256e-05
1.25062e-05
1.91565e-05
5.92727e-06
7.76896e-06
1.55816e-05
9.44623e-06
1.43569e-05
1.32285e-05
1.19135e-05
1.51647e-05
1.33696e-05
1.67947e-05
2.03268e-05
1.82805e-05
1.11969e-05
1.20109e-05
1.44942e-05
1.31834e-05
1.58449e-05
1.2301e-05
9.40646e-06
1.08332e-05
1.13235e-05
1.60108e-05
1.87938e-05
1.18044e-05
5.64928e-06
1.36163e-05
1.31385e-05
1.83751e-05
1.68691e-05
1.86605e-05
2.05783e-05
1.09861e-05
1.21994e-05
1.19589e-05
1.0112e-05
8.21905e-06
1.12513e-05
9.24598e-06
1.30432e-05
1.41673e-05
1.15013e-05
1.70531e-05
1.59286e-05
7.50262e-06
1.47016e-05
1.40048e-05
1.58138e-05
1.91662e-05
1.20547e-05
1.34749e-05
1.08765e-05
2.16998e-05
1.67322e-05
1.00985e-05
9.31034e-06
2.54915e-05
2.37254e-05
2.34201e-05
2.62678e-05
2.30152e-05
2.69525e-05
2.66148e-05
2.41054e-05
2.37997e-05
2.18794e-05
2.34088e-05
2.45927e-05
2.34453e-05
2.2976e-05
2.63918e-05
2.41292e-05
2.44088e-05
2.63188e-05
2.56914e-05
2.49564e-05
2.4943e-05
2.31527e-05
2.53778e-05
2.57777e-05
2.35013e-05
2.66935e-05
2.56339e-05
2.51119e-05
2.45839e-05
2.55227e-05
2.3876e-05
2.55808e-05
2.38372e-05
2.4211e-05
2.38988e-05
2.42272e-05
2.32461e-05
2.29375e-05
2.51423e-05
2.42477e-05
2.38978e-05
2.38334e-05
2.61437e-05
2.63542e-05
2.34776e-05
2.47641e-05
2.36789e-05
2.53652e-05
2.25859e-05
2.59072e-05
2.48592e-05
2.31781e-05
2.47345e-05
2.27124e-05
2.68637e-05
2.53423e-05
2.21083e-05
2.44691e-05
2.23174e-05
2.41123e-05
2.46784e-05
2.382e-05
2.46553e-05
2.51412e-05
2.35695e-05
1.17188e-05
1.3477e-05
5.55841e-06
1.43032e-05
9.3524e-06
2.22777e-06
1.55747e-05
7.58619e-06
1.03613e-05
1.62867e-05
2.09826e-06
1.57288e-05
1.69193e-05
1.77176e-05
6.51885e-06
3.502e-06
7.84598e-06
3.53066e-06
1.26288e-05
4.58932e-06
1.12893e-05
5.15562e-06
1.2486e-05
1.78697e-05
1.26515e-05
1.89723e-05
1.30907e-05
8.12474e-06
7.56717e-06
1.92311e-05
1.50412e-06
1.57474e-06
1.72726e-05
1.13689e-05
2.3178e-06
9.31518e-06
1.8013e-05
8.96501e-06
2.39197e-06
6.09542e-06
1.00665e-05
1.21181e-05
1.13478e-05
1.51121e-05
4.85278e-06
1.25281e-05
3.85347e-06
2.06904e-05
1.00081e-05
7.35742e-06
7.81474e-06
1.52895e-05
2.13329e-05
1.5936e-05
3.17896e-06
3.36537e-06
1.95606e-05
1.47216e-05
7.48383e-06
6.41034e-06
2.15376e-05
1.32851e-05
2.33216e-06
1.43803e-05
2.1878e-06
1.07027e-05
5.04992e-06
2.0508e-05
4.787e-06
4.03152e-06
1.28142e-05
1.63939e-05
9.5621e-06
6.76163e-06
6.50898e-06
1.21708e-05
1.09352e-05
3.6263e-06
1.34896e-05
1.00584e-05
1.72504e-05
1.08908e-05
1.19867e-05
1.37523e-05
2.0601e-05
1.36823e-05
8.70537e-06
6.19107e-06
8.15005e-06
1.46043e-05
1.77442e-06
8.92299e-06
6.21652e-06
2.26829e-05
4.91451e-06
3.04443e-06
2.93667e-06
4.85802e-06
4.63318e-06
2.02438e-05
1.76273e-05
8.27893e-06
1.58023e-05
1.67485e-05
2.12553e-05
9.2801e-06
9.241e-06
1.96685e-05
1.58011e-05
1.48799e-05
1.36927e-05
1.49323e-05
1.54986e-05
1.2351e-05
7.4574e-06
6.09805e-06
6.86647e-06
8.91583e-06
1.4785e-05
1.66777e-05
4.0821e-06
6.42424e-06
1.09702e-05
9.43989e-06
6.47252e-06
1.12967e-05
3.71761e-06
7.96864e-06
4.63223e-06
1.44226e-05
1.00414e-05
1.71249e-05
1.28044e-05
1.25945e-05
1.03497e-05
8.77994e-06
8.39987e-06
5.91293e-06
2.89073e-06
1.34728e-05
7.59728e-06
1.76273e-05
2.00854e-05
1.48171e-05
3.79548e-06
9.13194e-06
9.49843e-06
5.6822e-06
1.31185e-05
5.80098e-06
6.8253e-06
8.31148e-06
5.68135e-06
1.05852e-05
1.68626e-05
2.67886e-06
1.223e-05
1.15859e-05
8.13025e-06
1.50661e-05
1.2082e-05
1.79259e-05
1.90609e-05
1.25032e-05
5.75246e-06
4.32345e-06
7.65495e-06
9.6092e-06
6.58547e-06
9.07573e-06
1.09557e-05
8.99914e-06
2.85995e-06
1.30948e-05
1.46948e-05
1.01797e-05
1.09119e-05
7.9634e-06
1.50858e-05
1.83302e-05
3.40006e-06
8.50903e-06
4.45763e-06
2.18798e-05
1.93898e-05
8.75269e-06
1.28774e-05
6.47952e-06
4.27014e-06
1.50362e-06
1.11129e-05
5.32679e-06
1.37775e-05
1.53069e-05
9.55986e-06
1.62331e-05
1.70246e-05
1.28888e-05
7.77871e-06
1.1225e-05
1.35014e-05
1.67745e-05
1.71139e-05
1.80112e-05
5.98762e-06
1.84635e-05
1.53002e-05
1.17795e-05
1.04379e-05
1.43491e-05
1.62222e-05
1.45193e-05
9.52177e-06
1.87683e-05
8.38903e-06
1.90289e-05
1.90587e-05
1.90563e-05
8.447e-06
1.88676e-05
1.37205e-05
1.93736e-05
1.41606e-05
1.277e-05
1.5968e-05
1.74675e-05
1.29786e-05
1.16468e-05
1.34463e-05
1.2321e-05
5.69813e-06
1.70322e-05
1.59768e-05
7.32601e-06
7.09207e-06
1.92722e-05
8.51568e-06
9.52351e-06
1.42693e-05
1.88723e-05
2.01307e-05
1.48401e-05
1.70485e-05
1.13554e-05
1.04554e-05
5.41206e-06
1.69434e-05
1.72444e-05
1.98808e-05
9.46782e-06
1.34079e-05
1.95843e-05
1.1558e-05
1.46583e-05
1.76679e-05
6.96345e-06
1.35504e-05
6.53043e-06
5.97238e-06
1.65218e-05
1.75468e-05
1.73179e-05
1.98409e-05
2.06202e-05
2.28886e-05
2.27205e-05
2.44504e-05
2.31169e-05
2.36906e-05
2.22438e-05
2.62305e-05
2.61032e-05
2.40458e-05
2.13859e-05
2.25945e-05
2.51315e-05
2.371e-05
2.26906e-05
2.37227e-05
2.45515e-05
2.51848e-05
2.45051e-05
2.45734e-05
2.36407e-05
2.27707e-05
2.42903e-05
2.36203e-05
2.64116e-05
2.5787e-05
2.37418e-05
2.37728e-05
2.38741e-05
2.52774e-05
2.33374e-05
2.34608e-05
2.34552e-05
2.33988e-05
2.32849e-05
2.27665e-05
2.25968e-05
2.4477e-05
2.33105e-05
2.54499e-05
2.33225e-05
2.51964e-05
2.36749e-05
2.33648e-05
2.34206e-05
2.24158e-05
2.24544e-05
2.39248e-05
2.42258e-05
2.32919e-05
2.51749e-05
2.27647e-05
2.33518e-05
2.3598e-05
2.38551e-05
2.59073e-05
2.23051e-05
2.19972e-05
2.46771e-05
2.27588e-05
2.45573e-05
2.44181e-05
2.32742e-05
2.23466e-05
2.26651e-05
1.3849e-05
9.44507e-06
5.39127e-06
1.43904e-06
1.0671e-05
1.64091e-05
1.78332e-05
5.93351e-06
8.24052e-06
1.24989e-05
5.76032e-06
8.66475e-06
1.31558e-05
3.27665e-06
7.33244e-06
6.1026e-06
1.47672e-05
1.12367e-05
1.83899e-05
2.4329e-06
3.09932e-06
1.2258e-05
4.35877e-06
1.03969e-05
8.00636e-06
4.01754e-06
1.41924e-05
8.60562e-06
1.80759e-05
2.03724e-05
1.70128e-05
1.24015e-06
9.63435e-06
1.07683e-05
7.62378e-06
1.40829e-05
6.87121e-06
2.53343e-06
8.40516e-06
3.72847e-06
1.23232e-05
1.7116e-05
3.0111e-06
6.90326e-06
1.28566e-05
9.60847e-06
1.63675e-05
1.37783e-05
1.90046e-05
1.9987e-05
5.81939e-06
7.18313e-06
4.77369e-06
6.37251e-06
5.02949e-06
7.10545e-06
6.76321e-06
1.19417e-05
1.07156e-05
1.48007e-06
1.49367e-05
1.47892e-05
1.70386e-06
1.19759e-05
9.7964e-06
1.58213e-05
1.84934e-05
4.57919e-06
9.53917e-06
1.54429e-06
2.17521e-05
1.96689e-05
7.55991e-06
4.59416e-06
4.04184e-06
3.16948e-06
3.00195e-06
4.99701e-06
3.53019e-06
9.42852e-06
9.9969e-06
7.33064e-06
1.01356e-05
8.73739e-06
5.65832e-06
1.00145e-05
8.36007e-06
9.6524e-06
1.08999e-05
4.83965e-06
1.07677e-05
1.13651e-05
1.08417e-05
7.92966e-06
6.46041e-06
8.49202e-06
6.57858e-06
1.03842e-05
3.93076e-06
9.33049e-06
7.63495e-06
9.45042e-06
1.0801e-05
1.00134e-05
1.07859e-05
1.01287e-05
3.63414e-06
9.06288e-06
1.08073e-05
5.16269e-06
5.32277e-06
1.12507e-05
9.6379e-06
6.03469e-06
8.9375e-06
1.08684e-05
8.52333e-06
5.89565e-06
8.09772e-06
8.99321e-06
9.95629e-06
3.65876e-06
1.03922e-05
6.87807e-06
1.10391e-05
6.64709e-06
1.06418e-05
9.8567e-06
7.88269e-06
8.21423e-06
1.04745e-05
1.11623e-05
9.94263e-06
4.26144e-06
4.30344e-06
1.04888e-05
1.02643e-05
7.94247e-06
7.809e-06
1.02684e-05
1.04571e-05
4.80063e-06
1.00834e-05
4.65358e-06
9.04773e-06
7.21683e-06
1.06118e-05
7.28174e-06
7.25017e-06
9.93577e-06
1.03585e-05
8.86335e-06
3.71154e-06
3.74074e-06
9.60409e-06
6.38889e-06
1.05479e-05
3.73114e-06
9.15786e-06
1.03661e-05
9.23436e-06
1.03492e-05
3.71908e-06
1.06226e-05
9.93669e-06
9.72855e-06
8.35966e-06
7.8187e-06
1.12268e-05
5.29614e-06
7.40144e-06
9.12851e-06
1.08336e-05
6.70822e-06
6.31477e-06
3.88902e-06
3.95071e-06
7.68677e-06
1.08185e-05
1.11306e-05
8.34693e-06
1.0492e-05
1.08532e-05
1.08627e-05
3.61609e-06
3.61325e-06
1.18266e-05
1.53292e-05
1.64307e-05
1.5968e-05
1.64702e-05
1.88846e-05
1.50086e-05
1.95267e-05
1.89247e-05
1.78427e-05
1.45194e-05
1.86219e-05
1.40125e-05
1.45252e-05
1.4062e-05
1.42235e-05
1.95777e-05
1.97068e-05
1.40334e-05
1.83339e-05
1.25386e-05
1.71309e-05
1.69565e-05
1.32247e-05
2.00665e-05
2.00586e-05
1.62741e-05
1.61092e-05
1.57412e-05
1.9835e-05
1.58145e-05
1.29579e-05
1.90354e-05
1.74103e-05
1.30133e-05
2.01806e-05
1.25615e-05
1.30497e-05
1.97935e-05
2.05592e-05
1.26493e-05
1.9555e-05
1.96606e-05
2.00579e-05
1.2277e-05
1.21796e-05
1.1834e-05
1.83587e-05
1.70972e-05
1.85058e-05
1.46506e-05
1.55775e-05
1.70236e-05
1.24657e-05
1.8739e-05
1.46368e-05
1.56216e-05
1.84863e-05
1.51087e-05
1.90399e-05
1.41563e-05
1.42004e-05
1.25712e-05
1.38259e-05
1.43078e-05
1.05023e-05
6.26552e-06
4.46564e-06
1.21359e-05
1.47649e-05
1.77305e-05
7.85234e-06
8.98349e-06
1.29742e-05
5.62296e-06
9.76585e-06
1.33928e-05
6.03279e-06
7.17295e-06
8.24341e-06
1.61215e-05
1.10144e-05
1.67312e-05
3.10895e-06
3.80178e-06
1.31928e-05
4.8983e-06
1.18204e-05
9.2938e-06
7.37753e-06
1.42791e-05
1.04702e-05
1.40102e-05
1.92726e-05
1.57139e-05
5.0516e-06
9.88946e-06
1.19389e-05
9.26468e-06
1.30802e-05
7.79653e-06
3.79036e-06
8.55737e-06
5.53838e-06
1.33429e-05
1.74276e-05
6.43458e-06
3.31432e-06
1.29403e-05
9.93864e-06
1.65644e-05
1.42388e-05
1.56935e-05
1.86705e-05
5.51454e-06
8.76608e-06
6.79046e-06
6.24707e-06
3.43413e-06
7.63356e-06
6.50836e-06
1.24276e-05
1.18113e-05
5.52557e-06
1.45088e-05
1.5093e-05
3.60937e-06
1.21396e-05
1.11248e-05
1.32636e-05
1.83138e-05
6.84469e-06
1.08369e-05
4.60655e-06
2.1389e-05
1.36377e-05
7.49651e-06
4.54138e-06
4.13983e-06
4.05651e-06
3.90455e-06
3.9233e-06
3.83355e-06
3.26468e-06
2.89232e-06
3.57832e-06
2.25663e-06
2.44909e-06
3.08108e-06
3.49766e-06
3.58439e-06
3.35521e-06
2.79424e-06
1.89796e-06
1.86989e-06
3.57865e-06
2.55321e-06
2.73283e-06
3.28545e-06
3.13918e-06
3.08744e-06
2.19172e-06
2.61466e-06
3.51409e-06
1.43989e-06
3.58955e-06
2.72777e-06
1.85265e-06
2.53483e-06