/*--------------------------------*- C++ -*----------------------------------*\
| =========                 |                                                 |
| \\      /  F ield         | OpenFOAM: The Open Source CFD Toolbox           |
|  \\    /   O peration     | Version:  v2012                                 |
|   \\  /    A nd           | Website:  www.openfoam.com                      |
|    \\/     M anipulation  |                                                 |
\*---------------------------------------------------------------------------*/
FoamFile
{
    version     2.0;
    format      ascii;
    class       volScalarField;
    location    "1";
    object      sigmaEq;
}
// * * * * * * * * * * * * * * * * * * * * * * * * * * * * * * * * * * * * * //

dimensions      [1 -1 -2 0 0 0 0];


internalField   nonuniform List<scalar> 
15946
(
2.46653e+06
2.58112e+06
3.99004e+06
5.75631e+06
5.41065e+06
2.25068e+06
4.18863e+06
2.70232e+06
2.83544e+06
2.13929e+06
2.9247e+06
2.55554e+06
1.4777e+06
3.89734e+06
3.31686e+06
2.77291e+06
2.59517e+06
3.52174e+06
2.76994e+06
2.77618e+06
2.66877e+06
2.48791e+06
2.51328e+06
2.48772e+06
2.99459e+06
3.80514e+06
4.19019e+06
3.49221e+06
2.4719e+06
2.70244e+06
2.48279e+06
1.32182e+06
2.78735e+06
3.13011e+06
2.50296e+06
3.59805e+06
3.78931e+06
2.81323e+06
2.78169e+06
2.606e+06
3.15783e+06
4.36686e+06
2.33574e+06
2.26938e+06
2.45692e+06
2.17159e+06
2.94607e+06
5.02996e+06
3.21858e+06
4.98282e+06
1.92894e+06
3.01811e+06
2.83568e+06
2.00983e+06
4.28583e+06
2.95216e+06
3.34629e+06
3.52069e+06
2.85562e+06
3.38859e+06
2.66075e+06
2.60501e+06
2.63732e+06
2.59746e+06
2.65405e+06
2.60909e+06
1.2703e+06
1.22858e+06
2.09862e+06
2.66982e+06
3.11608e+06
2.30778e+06
2.91569e+06
4.28933e+06
4.38756e+06
3.34691e+06
1.87339e+06
4.02856e+06
2.87508e+06
2.37512e+06
2.39372e+06
2.31348e+06
3.04688e+06
2.6614e+06
4.16649e+06
4.00372e+06
2.9197e+06
2.76828e+06
2.02689e+06
3.71847e+06
3.13087e+06
3.91703e+06
3.57472e+06
3.20878e+06
3.12514e+06
2.66978e+06
2.2049e+06
3.07907e+06
2.47039e+06
2.32509e+06
2.75241e+06
2.32564e+06
2.63959e+06
2.90598e+06
2.93734e+06
2.66733e+06
2.12691e+06
3.33702e+06
3.07046e+06
2.73649e+06
2.28157e+06
3.40138e+06
3.52278e+06
3.00933e+06
2.28069e+06
2.11695e+06
2.60495e+06
3.61521e+06
2.90204e+06
3.09153e+06
1.91689e+06
2.12864e+06
3.03431e+06
2.80385e+06
3.3051e+06
5.96836e+06
3.21531e+06
2.15838e+06
3.76534e+06
3.98048e+06
3.02827e+06
2.4316e+06
2.56758e+06
1.88358e+06
2.93387e+06
2.55868e+06
2.14475e+06
2.77899e+06
1.90853e+06
5.20529e+06
2.0748e+06
2.59558e+06
4.16823e+06
2.37686e+06
3.94482e+06
2.30367e+06
5.58896e+06
2.47598e+06
2.37608e+06
2.84441e+06
2.46979e+06
3.26897e+06
3.05682e+06
2.6559e+06
2.25786e+06
2.68444e+06
3.93308e+06
5.53328e+06
5.30694e+06
2.1787e+06
2.66653e+06
4.17902e+06
2.67595e+06
1.56052e+06
3.03201e+06
3.96142e+06
4.19013e+06
3.25899e+06
2.49045e+06
1.4338e+06
2.7391e+06
1.4963e+06
3.0643e+06
3.63394e+06
2.42006e+06
2.08627e+06
3.93337e+06
3.82518e+06
3.97651e+06
3.29487e+06
2.64064e+06
1.57967e+06
6.25506e+06
6.38374e+06
2.4444e+06
2.62888e+06
2.98658e+06
4.56631e+06
2.85728e+06
2.34125e+06
1.85281e+06
6.34592e+06
3.23793e+06
3.01351e+06
2.39936e+06
2.83464e+06
5.25636e+06
2.14319e+06
3.10384e+06
5.90569e+06
3.20271e+06
1.93307e+06
3.51402e+06
6.35726e+06
3.60638e+06
2.64208e+06
4.58442e+06
2.3406e+06
2.63549e+06
2.39265e+06
6.38374e+06
6.25506e+06
4.76551e+06
4.93741e+06
2.14671e+06
2.47267e+06
2.46714e+06
2.30429e+06
3.60638e+06
3.51402e+06
1.58617e+06
2.97824e+06
6.46699e+06
2.86103e+06
6.99785e+06
1.95153e+06
4.44602e+06
4.21434e+06
4.52207e+06
4.67652e+06
2.30275e+06
2.00127e+06
2.46462e+06
2.10066e+06
5.3027e+06
5.21348e+06
1.97314e+06
6.7015e+06
3.03212e+06
6.81088e+06
2.54819e+06
1.68622e+06
3.87033e+06
3.5848e+06
2.59558e+06
4.02127e+06
5.7459e+06
2.02573e+06
2.24726e+06
3.83982e+06
6.14671e+06
2.30367e+06
2.68444e+06
3.79778e+06
2.16085e+06
6.12505e+06
5.76938e+06
4.10108e+06
2.17536e+06
2.66653e+06
3.5848e+06
3.19542e+06
3.23428e+06
2.3537e+06
2.15474e+06
2.79815e+06
6.29257e+06
4.68612e+06
3.5085e+06
3.87033e+06
3.11593e+06
3.22069e+06
4.8035e+06
6.14778e+06
2.32379e+06
1.96113e+06
1.78612e+06
1.57498e+06
1.5866e+06
1.32496e+06
2.63604e+06
2.64088e+06
1.73354e+06
2.1525e+06
1.39215e+06
2.20815e+06
1.5659e+06
1.96333e+06
999055
2.22732e+06
1.6339e+06
1.10385e+06
2.77644e+06
2.22578e+06
2.38383e+06
1.28519e+06
1.47092e+06
1.43276e+06
2.90803e+06
2.66351e+06
2.52136e+06
1.42111e+06
1.96764e+06
1.12178e+06
2.15968e+06
3.04961e+06
1.75711e+06
1.66147e+06
1.16665e+06
1.48037e+06
1.35803e+06
1.71776e+06
2.20741e+06
1.98264e+06
2.52588e+06
2.01257e+06
2.30433e+06
1.68738e+06
2.01134e+06
1.96329e+06
2.24227e+06
3.15702e+06
1.61922e+06
1.02926e+06
2.35348e+06
1.6121e+06
1.60433e+06
1.37281e+06
2.47699e+06
2.51542e+06
2.4967e+06
1.69088e+06
2.49384e+06
1.15969e+06
2.61859e+06
2.33098e+06
1.29773e+06
1.91465e+06
3.60418e+06
2.55514e+06
2.21697e+06
2.08493e+06
1.79719e+06
1.42677e+06
2.41396e+06
2.09465e+06
2.19957e+06
2.47599e+06
2.32195e+06
2.77595e+06
1.1065e+06
1.34833e+06
1.28696e+06
1.18316e+06
1.17911e+06
2.53872e+06
2.14244e+06
2.5212e+06
2.05501e+06
1.98293e+06
2.3601e+06
2.37423e+06
1.66859e+06
2.08601e+06
2.3839e+06
1.23009e+06
1.25378e+06
2.51671e+06
2.49244e+06
1.1697e+06
2.53215e+06
2.05493e+06
2.39119e+06
1.25451e+06
2.63828e+06
1.38897e+06
1.36662e+06
2.16851e+06
3.19964e+06
1.92783e+06
2.27084e+06
2.09106e+06
1.81861e+06
2.33816e+06
1.82505e+06
1.08546e+06
2.63916e+06
1.73322e+06
1.04688e+06
1.14623e+06
2.55504e+06
1.79011e+06
1.02486e+06
2.43554e+06
1.78947e+06
3.40839e+06
2.20646e+06
1.33767e+06
2.04003e+06
1.0581e+06
2.37167e+06
2.75642e+06
2.55755e+06
2.47041e+06
1.23276e+06
1.60189e+06
1.61027e+06
1.64022e+06
2.55433e+06
3.02864e+06
2.75442e+06
1.46331e+06
2.46512e+06
1.26952e+06
2.18199e+06
2.18944e+06
1.98207e+06
2.16962e+06
1.20892e+06
1.21767e+06
1.75078e+06
2.64702e+06
1.59612e+06
2.54525e+06
2.47969e+06
2.54117e+06
2.02374e+06
1.18377e+06
2.47555e+06
1.56347e+06
1.56783e+06
1.32442e+06
1.22534e+06
1.41471e+06
1.30593e+06
971804
2.72904e+06
1.51042e+06
2.05418e+06
1.19396e+06
1.26059e+06
2.44624e+06
730243
2.54518e+06
1.97371e+06
1.15918e+06
2.57471e+06
1.35314e+06
1.19884e+06
1.59093e+06
2.39003e+06
1.3452e+06
989310
2.52828e+06
1.44642e+06
2.42222e+06
2.02687e+06
957606
1.96233e+06
1.74221e+06
2.44504e+06
2.44623e+06
2.41822e+06
2.48488e+06
1.23683e+06
1.28263e+06
2.70671e+06
770353
2.50884e+06
1.97503e+06
2.36696e+06
1.04506e+06
2.14122e+06
1.8764e+06
1.7307e+06
3.19073e+06
2.13376e+06
2.03338e+06
2.28665e+06
2.43871e+06
2.5021e+06
1.88849e+06
1.15531e+06
3.14381e+06
1.85972e+06
1.40001e+06
1.39847e+06
1.10956e+06
2.12718e+06
2.37217e+06
2.65448e+06
1.05782e+06
2.10166e+06
1.64516e+06
1.59525e+06
1.50069e+06
1.88914e+06
1.10221e+06
1.07528e+06
1.57551e+06
3.06923e+06
2.4757e+06
1.46265e+06
2.3613e+06
2.51169e+06
1.23745e+06
1.30742e+06
1.13979e+06
2.00319e+06
2.85371e+06
2.37647e+06
1.3727e+06
1.49068e+06
1.96935e+06
2.63487e+06
2.35739e+06
1.98189e+06
1.27689e+06
1.44052e+06
2.45284e+06
1.3324e+06
1.97426e+06
1.14697e+06
2.51729e+06
1.69924e+06
2.13115e+06
1.16815e+06
1.34463e+06
1.58244e+06
2.90678e+06
1.16319e+06
1.1805e+06
1.97504e+06
2.4212e+06
2.93997e+06
2.85946e+06
1.56931e+06
1.25929e+06
1.50538e+06
581622
1.45636e+06
905471
1.22059e+06
1.4689e+06
1.68232e+06
1.34469e+06
1.6424e+06
1.30199e+06
2.94277e+06
2.86691e+06
2.46438e+06
1.44509e+06
2.07157e+06
1.98261e+06
1.88958e+06
1.62169e+06
1.2253e+06
2.45903e+06
2.14279e+06
1.29555e+06
1.79091e+06
2.22002e+06
2.12096e+06
1.46266e+06
1.57348e+06
1.22969e+06
2.6826e+06
1.6292e+06
1.63122e+06
1.35657e+06
2.12169e+06
1.85975e+06
2.33603e+06
2.41946e+06
2.4686e+06
1.68896e+06
2.13096e+06
1.21938e+06
2.07166e+06
2.24385e+06
2.3529e+06
3.07536e+06
2.87316e+06
2.00646e+06
2.09814e+06
1.14536e+06
3.13246e+06
2.49776e+06
2.01457e+06
1.92179e+06
1.0993e+06
1.85124e+06
1.72899e+06
1.35413e+06
2.2511e+06
1.94754e+06
3.07316e+06
1.57858e+06
1.59496e+06
1.1665e+06
1.82682e+06
1.15743e+06
936042
1.89665e+06
1.03247e+06
2.18262e+06
1.6507e+06
1.0616e+06
2.49329e+06
1.6062e+06
2.32907e+06
1.2583e+06
2.87601e+06
2.11866e+06
2.72513e+06
2.37788e+06
2.35273e+06
1.02342e+06
2.9272e+06
1.95735e+06
2.43225e+06
1.373e+06
1.29009e+06
2.45176e+06
2.34845e+06
2.14216e+06
2.07144e+06
1.52988e+06
1.83595e+06
2.21459e+06
758428
1.2423e+06
2.22461e+06
2.19206e+06
2.06528e+06
1.4956e+06
1.13008e+06
1.54256e+06
2.67481e+06
1.31455e+06
1.83294e+06
1.55237e+06
1.44087e+06
1.1131e+06
1.19483e+06
1.12777e+06
1.13903e+06
2.59112e+06
2.38921e+06
1.2435e+06
3.2817e+06
1.54424e+06
1.20505e+06
1.47754e+06
2.95348e+06
1.55004e+06
1.14661e+06
2.29644e+06
2.07501e+06
2.253e+06
2.1676e+06
1e+06
1.98224e+06
2.10794e+06
1.90582e+06
2.64813e+06
1.27986e+06
1.91442e+06
1.78021e+06
1.78185e+06
1.11806e+06
1.371e+06
1.47611e+06
1.3906e+06
1.36923e+06
1.94613e+06
2.12299e+06
1.18935e+06
1.85479e+06
2.6486e+06
2.57738e+06
1.29743e+06
1.70237e+06
595063
1.30904e+06
1.02552e+06
1.06862e+06
2.23658e+06
1.43853e+06
1.17004e+06
432275
1.85912e+06
1.8719e+06
2.86884e+06
1.5391e+06
2.06341e+06
2.64704e+06
1.12136e+06
3.03838e+06
2.1535e+06
1.97139e+06
1.38186e+06
1.13558e+06
2.00426e+06
2.9276e+06
980052
2.4802e+06
2.55876e+06
1.16317e+06
1.74655e+06
1.63227e+06
1.09865e+06
1.03861e+06
2.04218e+06
1.53155e+06
2.91314e+06
1.09439e+06
1.16341e+06
1.96681e+06
2.5572e+06
886609
2.21377e+06
3.26259e+06
988234
1.77274e+06
1.52624e+06
2.10023e+06
1.55588e+06
3.16607e+06
2.97233e+06
1.65262e+06
2.42182e+06
2.42205e+06
2.48237e+06
2.98956e+06
2.4827e+06
1.47597e+06
3.26542e+06
1.6816e+06
1.68101e+06
2.88086e+06
1.07924e+06
1.03563e+06
1.00818e+06
1.95342e+06
2.03395e+06
2.75251e+06
802937
932786
2.65564e+06
2.27409e+06
957144
913877
3.25451e+06
1.82216e+06
1.53311e+06
2.33112e+06
1.86688e+06
1.48943e+06
2.27184e+06
868548
2.09392e+06
1.24773e+06
2.73954e+06
3.19781e+06
2.31117e+06
2.40416e+06
1.08343e+06
1.20888e+06
1.09404e+06
2.09827e+06
2.23748e+06
2.57822e+06
2.28751e+06
1.81829e+06
2.35036e+06
1.93641e+06
1.98601e+06
2.08031e+06
2.7283e+06
2.04457e+06
2.58668e+06
1.4193e+06
2.5779e+06
1.98553e+06
2.59978e+06
1.97412e+06
1.84597e+06
1.09046e+06
1.43794e+06
2.85254e+06
2.74742e+06
2.23569e+06
2.26495e+06
2.58035e+06
2.2877e+06
2.08369e+06
1.788e+06
1.39427e+06
1.89253e+06
2.11871e+06
2.75453e+06
2.06026e+06
761298
1.97074e+06
2.89048e+06
1.56263e+06
2.04738e+06
1.21349e+06
2.38228e+06
900430
1.72642e+06
2.65066e+06
2.0608e+06
2.59329e+06
1.19907e+06
1.99505e+06
2.04299e+06
2.35672e+06
2.60629e+06
1.71418e+06
3.01593e+06
1.76511e+06
1.52815e+06
1.99835e+06
2.42535e+06
1.58316e+06
1.6686e+06
977904
2.60652e+06
803444
2.84952e+06
2.49125e+06
2.10752e+06
1.52782e+06
947170
2.19936e+06
1.22585e+06
1.10873e+06
2.18691e+06
1.25195e+06
2.43209e+06
2.64487e+06
3.32006e+06
1.92003e+06
2.41504e+06
3.37275e+06
3.09905e+06
2.59085e+06
2.88266e+06
2.42549e+06
2.12301e+06
2.40434e+06
1.09395e+06
2.16411e+06
2.60616e+06
1.28867e+06
1.57248e+06
1.10263e+06
1.40735e+06
2.54306e+06
2.36816e+06
3.24519e+06
2.29551e+06
2.53817e+06
2.45107e+06
2.2447e+06
1.19356e+06
2.57008e+06
1.33494e+06
1.7109e+06
2.52052e+06
1.06701e+06
1.17113e+06
1.33483e+06
2.61026e+06
2.656e+06
1.13448e+06
1.03002e+06
2.32743e+06
1.02737e+06
1.31355e+06
865174
2.11017e+06
1.86297e+06
2.31235e+06
2.06763e+06
1.83459e+06
1.25245e+06
1.55244e+06
1.72774e+06
1.26331e+06
1.54707e+06
1.56835e+06
1.29568e+06
852304
1.57045e+06
1.01543e+06
1.60325e+06
2.36506e+06
2.07013e+06
1.72096e+06
1.79959e+06
1.86556e+06
1.04327e+06
3.24442e+06
2.96508e+06
1.9215e+06
628339
2.37197e+06
1.86759e+06
3.05915e+06
1.02727e+06
770456
1.71433e+06
2.36342e+06
1.09357e+06
2.39483e+06
1.24696e+06
2.01985e+06
2.22029e+06
2.69153e+06
2.36001e+06
1.44541e+06
2.85747e+06
2.01588e+06
2.10232e+06
2.92929e+06
2.09576e+06
2.54805e+06
2.82084e+06
1.41783e+06
1.40342e+06
2.37513e+06
2.45337e+06
2.06965e+06
3.03289e+06
1.39745e+06
2.56353e+06
1.03106e+06
2.31385e+06
2.73527e+06
2.69337e+06
2.89009e+06
1.33701e+06
2.48302e+06
2.76647e+06
1.3095e+06
2.19182e+06
2.94734e+06
952179
2.75128e+06
2.55083e+06
2.33742e+06
2.41127e+06
1.86862e+06
1.76274e+06
2.63635e+06
762129
1.45586e+06
2.32103e+06
1.3848e+06
2.20603e+06
2.07893e+06
1.19605e+06
1.16026e+06
2.58934e+06
1.29897e+06
1.17294e+06
2.32212e+06
1.12014e+06
3.16829e+06
898741
1.47522e+06
1.38641e+06
1.4268e+06
2.79672e+06
2.36156e+06
3.06061e+06
2.09621e+06
2.50174e+06
1.19138e+06
1.65971e+06
2.67589e+06
2.8692e+06
1.61811e+06
901288
1.59073e+06
2.79845e+06
3.44244e+06
870819
1.79004e+06
1.05835e+06
1.85079e+06
1.12924e+06
2.05344e+06
1.92635e+06
1.00761e+06
1.42862e+06
1.39317e+06
971920
2.55128e+06
1.88369e+06
2.8614e+06
3.46486e+06
1.65631e+06
2.77243e+06
2.91333e+06
1.55706e+06
1.72998e+06
1.5019e+06
1.69625e+06
2.24424e+06
1.98782e+06
1.66298e+06
1.72367e+06
1.55727e+06
2.46993e+06
1.4667e+06
2.33443e+06
2.33253e+06
2.69788e+06
1.31182e+06
1.11747e+06
849121
1.35593e+06
1.38826e+06
2.01457e+06
2.59162e+06
1.70658e+06
2.10513e+06
1.07072e+06
795670
2.44197e+06
2.46331e+06
2.86819e+06
1.06321e+06
1.21412e+06
2.07491e+06
1.52344e+06
1.30735e+06
2.6463e+06
944003
2.82941e+06
876023
2.57813e+06
2.09666e+06
1.45677e+06
2.78886e+06
2.09781e+06
2.35762e+06
2.78291e+06
2.87336e+06
2.90212e+06
1.52061e+06
1.30325e+06
2.27002e+06
1.34497e+06
2.32476e+06
2.29842e+06
1.65683e+06
2.79756e+06
1.20173e+06
2.91858e+06
2.54084e+06
1.83404e+06
3.07495e+06
1.59014e+06
1.64964e+06
1.1347e+06
3.07053e+06
1.16845e+06
2.63404e+06
1.13356e+06
1.8599e+06
2.22191e+06
2.1045e+06
2.07813e+06
2.33138e+06
2.83155e+06
1.09373e+06
3.28548e+06
1.04019e+06
2.39644e+06
2.61704e+06
1.39763e+06
948102
1.55157e+06
2.26283e+06
1.14616e+06
2.67259e+06
3.13168e+06
1.50641e+06
882206
1.7223e+06
2.62443e+06
2.41743e+06
1.23615e+06
3.0919e+06
989025
3.18834e+06
1.73008e+06
3.2155e+06
1.1236e+06
2.05263e+06
2.3589e+06
1.02162e+06
2.47554e+06
2.58853e+06
414874
2.45478e+06
947514
1.08147e+06
1.95391e+06
2.57142e+06
2.16135e+06
2.16194e+06
2.43368e+06
996514
2.07515e+06
710160
2.47201e+06
964776
1.70443e+06
2.16311e+06
2.35995e+06
2.32862e+06
2.53023e+06
2.39918e+06
2.02221e+06
1.20967e+06
984076
2.38128e+06
2.2526e+06
2.52221e+06
1.18598e+06
2.51634e+06
2.48308e+06
2.97276e+06
1.11486e+06
1.00136e+06
1.08016e+06
2.96939e+06
2.62203e+06
957880
1.8245e+06
1.11631e+06
2.86824e+06
1.22008e+06
1.25062e+06
1.34108e+06
2.84213e+06
2.59315e+06
1.00754e+06
2.7625e+06
2.60959e+06
979184
1.34098e+06
1.27181e+06
1.32945e+06
1.11909e+06
2.48539e+06
2.34277e+06
1.30145e+06
3.18849e+06
1.4065e+06
910107
2.83028e+06
836568
816507
2.96424e+06
2.90558e+06
2.61887e+06
2.35832e+06
2.42496e+06
1.95198e+06
2.13658e+06
2.7953e+06
2.49489e+06
1.17556e+06
1.89576e+06
1.58331e+06
1.08778e+06
2.97459e+06
2.57891e+06
2.77075e+06
1.03185e+06
1.95735e+06
1.53809e+06
949707
2.56764e+06
2.19922e+06
1.20468e+06
2.82633e+06
2.73922e+06
1.47671e+06
2.80944e+06
1.53326e+06
2.67273e+06
2.0613e+06
2.75111e+06
975997
1.01586e+06
1.70313e+06
2.76274e+06
2.69186e+06
2.70081e+06
1.20208e+06
1.34087e+06
1.69575e+06
1.87559e+06
1.08286e+06
1.48019e+06
1.18662e+06
2.90919e+06
2.386e+06
945860
2.00953e+06
2.61764e+06
2.65539e+06
3.40002e+06
867606
2.48426e+06
2.09582e+06
2.85021e+06
1.08607e+06
1.64212e+06
1.20482e+06
1.33238e+06
1.46872e+06
1.12112e+06
3.00383e+06
2.74147e+06
2.78524e+06
2.51644e+06
1.7718e+06
1.61913e+06
1.79572e+06
2.58215e+06
771310
3.15993e+06
1.31093e+06
2.59061e+06
2.37843e+06
1.30768e+06
1.51522e+06
866131
1.62601e+06
1.43899e+06
2.92817e+06
2.59832e+06
2.57589e+06
1.76774e+06
1.68212e+06
2.32199e+06
3.02097e+06
2.65951e+06
725546
2.94841e+06
3.39299e+06
815978
2.6352e+06
2.43803e+06
3.18867e+06
2.55392e+06
1.76984e+06
990512
2.57489e+06
2.77841e+06
1.59295e+06
2.39106e+06
3.34228e+06
1.70756e+06
879631
2.85066e+06
1.18076e+06
1.73153e+06
2.86707e+06
2.99565e+06
2.18846e+06
1.03919e+06
2.33302e+06
2.43101e+06
2.54026e+06
3.30819e+06
2.56879e+06
2.53826e+06
1.73468e+06
2.78209e+06
2.63099e+06
1.74772e+06
1.21445e+06
2.32571e+06
3.27139e+06
1.04397e+06
1.8772e+06
2.02783e+06
3.096e+06
2.69986e+06
3.35714e+06
3.22992e+06
2.03519e+06
968296
3.21973e+06
758379
777577
2.58827e+06
3.28706e+06
1.8883e+06
3.22245e+06
2.04108e+06
3.1274e+06
2.59009e+06
1.22122e+06
1.73618e+06
1.59256e+06
1.47689e+06
2.65684e+06
2.65428e+06
2.40912e+06
890703
2.56767e+06
667199
2.77066e+06
1.39665e+06
2.44844e+06
2.5236e+06
1.71604e+06
2.38235e+06
1.99149e+06
777204
680553
3.3247e+06
979957
2.43436e+06
2.81923e+06
2.00081e+06
1.60643e+06
1.10555e+06
3.10849e+06
1.14831e+06
943855
2.74437e+06
1.74027e+06
949067
1.67212e+06
3.02724e+06
2.61064e+06
987455
2.37071e+06
1.00328e+06
1.03123e+06
1.43811e+06
1.26264e+06
1.11311e+06
2.21841e+06
2.45587e+06
1.62961e+06
2.06975e+06
2.51848e+06
1.05312e+06
2.81962e+06
2.61207e+06
504729
1.06715e+06
1.05734e+06
2.49612e+06
744549
2.50689e+06
2.62929e+06
2.68132e+06
946277
701754
2.79365e+06
1.36458e+06
2.7052e+06
2.67903e+06
3.07624e+06
885023
861149
2.54919e+06
1.71532e+06
1.12118e+06
3.1625e+06
2.64568e+06
2.71296e+06
2.72908e+06
2.04755e+06
3.02031e+06
2.05293e+06
2.68851e+06
1.48467e+06
2.80906e+06
2.15715e+06
1.00325e+06
2.68045e+06
1.66915e+06
1.12102e+06
2.6433e+06
2.26133e+06
670953
2.93557e+06
2.23344e+06
2.72212e+06
1.22623e+06
2.56765e+06
2.54766e+06
2.55985e+06
1.29338e+06
1.20082e+06
1.20708e+06
3.01284e+06
2.21816e+06
3.32116e+06
3.09059e+06
2.58344e+06
1.16881e+06
1.12891e+06
2.57841e+06
3.09901e+06
3.10864e+06
2.1117e+06
2.35748e+06
2.35749e+06
2.98093e+06
790905
777651
2.55441e+06
1.54287e+06
2.52813e+06
863428
2.03761e+06
2.58883e+06
1.79507e+06
2.60659e+06
2.38192e+06
3.35311e+06
1.73013e+06
1.59505e+06
2.99929e+06
3.06191e+06
3.18877e+06
1.48838e+06
975314
2.66595e+06
1.55792e+06
2.73193e+06
1.1218e+06
2.6985e+06
1.84443e+06
2.65333e+06
458312
3.22792e+06
2.43818e+06
3.90588e+06
2.32894e+06
2.43121e+06
708844
3.03947e+06
2.03463e+06
3.28011e+06
790176
2.36788e+06
2.21634e+06
2.58644e+06
2.23281e+06
3.10462e+06
1.90745e+06
1.5369e+06
2.27396e+06
2.56879e+06
2.94574e+06
927254
2.44105e+06
993905
1.51529e+06
794429
1.80014e+06
2.14479e+06
2.35367e+06
2.53406e+06
2.33123e+06
1.64451e+06
1.7952e+06
1.09942e+06
664388
2.6566e+06
1.71426e+06
2.38509e+06
2.54479e+06
2.67975e+06
2.72929e+06
1.77291e+06
2.32337e+06
1.99758e+06
2.47039e+06
939302
3.21634e+06
1.98349e+06
1.84189e+06
1.91898e+06
466876
2.75048e+06
2.26959e+06
2.56578e+06
3.18633e+06
2.13842e+06
658264
2.56735e+06
694293
1.85727e+06
3.19288e+06
3.02324e+06
2.46824e+06
2.25803e+06
964347
2.01566e+06
1.77459e+06
1.02834e+06
1.14915e+06
1.21362e+06
1.40054e+06
1.04083e+06
1.96275e+06
1.00707e+06
1.50793e+06
2.56274e+06
766609
649837
604029
2.52713e+06
2.15372e+06
751516
3.16357e+06
2.26693e+06
2.59092e+06
2.07625e+06
1.8505e+06
1.20318e+06
2.24864e+06
2.3178e+06
2.45078e+06
2.53732e+06
3.26553e+06
1.70701e+06
3.0438e+06
2.67263e+06
1.96825e+06
2.96491e+06
2.66591e+06
2.51933e+06
2.52762e+06
2.40075e+06
516754
2.49704e+06
853032
2.29438e+06
3.26059e+06
1.00779e+06
2.57974e+06
957006
3.0407e+06
2.44709e+06
1.34404e+06
2.39001e+06
2.20053e+06
817039
673988
2.34912e+06
2.34127e+06
1.22108e+06
1.6047e+06
1.84257e+06
2.74635e+06
2.12774e+06
1.93404e+06
2.80808e+06
1.1111e+06
2.7982e+06
1.3162e+06
2.34197e+06
696682
2.35036e+06
2.1086e+06
687544
760843
548483
961219
2.1247e+06
2.72459e+06
1.24474e+06
3.09482e+06
909103
3.19425e+06
2.49805e+06
3.21151e+06
3.2679e+06
499317
2.34334e+06
3.33745e+06
2.92019e+06
854724
2.16562e+06
3.32357e+06
2.62945e+06
1.3e+06
3.19539e+06
2.62028e+06
2.2365e+06
809946
457336
1.93622e+06
2.65099e+06
2.80474e+06
2.54574e+06
1.16442e+06
2.14964e+06
3.06817e+06
3.34733e+06
760734
1.01995e+06
2.55331e+06
2.65962e+06
1.22006e+06
3.06462e+06
3.27836e+06
1.61198e+06
738102
694854
3.12932e+06
3.02506e+06
3.03142e+06
2.84637e+06
882267
2.81443e+06
872709
3.37459e+06
1.80553e+06
2.32612e+06
1.15734e+06
903768
3.12199e+06
409716
1.60855e+06
1.91259e+06
2.71103e+06
2.74908e+06
1.13487e+06
2.08949e+06
2.74804e+06
2.57531e+06
2.70365e+06
1.49696e+06
2.06325e+06
1.3249e+06
1.64858e+06
1.99774e+06
1.93887e+06
1.27658e+06
1.62912e+06
1.2145e+06
1.96647e+06
2.13472e+06
3.0548e+06
3.18645e+06
1.43128e+06
2.32617e+06
2.45712e+06
495322
1.02441e+06
961642
955496
1.55309e+06
1.45773e+06
1.54881e+06
1.99377e+06
2.41243e+06
1.34479e+06
2.57693e+06
475372
2.29852e+06
557234
1.22524e+06
2.80754e+06
900267
1.27603e+06
968678
1.20402e+06
1.79099e+06
1.14404e+06
1.72627e+06
389698
2.56253e+06
2.55073e+06
2.47276e+06
2.92771e+06
1.79029e+06
2.12646e+06
2.87495e+06
1.85122e+06
630351
2.53747e+06
2.4922e+06
3.0748e+06
2.34554e+06
319331
3.46204e+06
2.2937e+06
1.71569e+06
2.65122e+06
1.20134e+06
1.89902e+06
986596
735108
1.2582e+06
668268
1.07592e+06
1.86725e+06
2.40255e+06
1.21923e+06
1.187e+06
2.88953e+06
1.46284e+06
2.5908e+06
2.50751e+06
2.90921e+06
3.32574e+06
1.00117e+06
3.03699e+06
2.56096e+06
1.66874e+06
2.84628e+06
1.85285e+06
2.58352e+06
2.47559e+06
980157
523825
3.05548e+06
2.47287e+06
2.67024e+06
750381
696628
2.18657e+06
3.10089e+06
3.04422e+06
1.70462e+06
1.26841e+06
756310
2.04028e+06
631077
2.66971e+06
853092
2.06761e+06
2.87605e+06
1.74735e+06
2.54671e+06
1.36329e+06
2.29416e+06
244125
671236
931530
2.47184e+06
489024
1.26215e+06
850784
2.91622e+06
985470
2.59494e+06
1.91651e+06
2.08132e+06
3.17199e+06
2.97857e+06
3.20706e+06
2.69345e+06
2.92873e+06
2.34377e+06
2.26569e+06
2.92558e+06
1.73676e+06
959973
1.53105e+06
2.758e+06
971226
2.45573e+06
1.42485e+06
2.4136e+06
3.2464e+06
2.83822e+06
864856
3.32935e+06
1.84376e+06
1.35549e+06
2.02178e+06
2.7382e+06
1.64299e+06
3.37866e+06
2.61017e+06
697694
3.18981e+06
1.12412e+06
2.41531e+06
2.66753e+06
2.60825e+06
2.21381e+06
1.34551e+06
3.28477e+06
2.06582e+06
2.01667e+06
3.19231e+06
3.27019e+06
1.25929e+06
806506
2.192e+06
1.00608e+06
2.40035e+06
2.47196e+06
2.45028e+06
1.10781e+06
880861
2.49511e+06
2.13695e+06
2.37939e+06
2.40551e+06
2.80495e+06
838764
2.96653e+06
1.56072e+06
2.3217e+06
2.1285e+06
1.15616e+06
823484
1.02468e+06
626773
3.14805e+06
2.37861e+06
2.57602e+06
2.4887e+06
2.70401e+06
2.35975e+06
2.78732e+06
454030
2.84222e+06
3.38699e+06
2.65265e+06
3.10536e+06
2.44107e+06
2.91719e+06
2.55254e+06
516526
935683
1.14005e+06
2.22499e+06
2.7883e+06
1.65687e+06
861913
2.38663e+06
734678
3.42879e+06
3.13704e+06
3.32769e+06
3.31218e+06
2.4002e+06
2.60407e+06
3.20782e+06
2.50398e+06
1.0259e+06
1.75749e+06
1.85602e+06
1.06299e+06
1.2069e+06
2.8843e+06
1.00879e+06
1.70123e+06
2.30513e+06
1.91314e+06
1.99246e+06
2.71693e+06
1.00405e+06
3.35287e+06
494788
768976
3.31036e+06
749563
623918
867255
2.97528e+06
3.45492e+06
3.33935e+06
999907
1.59582e+06
1.20928e+06
1.88475e+06
3.37909e+06
1.02147e+06
2.04645e+06
857015
1.14354e+06
2.46332e+06
3.12086e+06
888383
1.05403e+06
887513
957516
3.26829e+06
1.02058e+06
2.9601e+06
3.13094e+06
433540
2.90872e+06
1.05809e+06
1.74212e+06
2.52189e+06
2.26406e+06
1.54242e+06
1.71451e+06
1.55447e+06
3.15777e+06
519791
1.11906e+06
2.08734e+06
3.17371e+06
2.66685e+06
1.61094e+06
1.17903e+06
2.35115e+06
1.16654e+06
3.31392e+06
2.47792e+06
3.21644e+06
3.10968e+06
2.90022e+06
1.11681e+06
1.09649e+06
3.30627e+06
3.43321e+06
857919
2.46321e+06
3.50231e+06
967705
2.67823e+06
2.7403e+06
826708
2.51721e+06
1.73358e+06
2.6741e+06
606665
2.36599e+06
790033
364976
2.75028e+06
964331
2.67947e+06
1.02127e+06
2.01256e+06
1.90061e+06
2.99068e+06
1.20837e+06
1.96413e+06
2.06118e+06
1.49402e+06
1.02648e+06
454599
860725
668734
989167
532526
657087
618855
3.1937e+06
3.29511e+06
2.15024e+06
665450
994664
483824
1.43872e+06
2.79264e+06
551534
1.06358e+06
1.96136e+06
425636
1.251e+06
3.23373e+06
2.83598e+06
1.89832e+06
656932
1.16592e+06
987720
2.28308e+06
2.63085e+06
921277
1.94479e+06
2.49505e+06
2.41485e+06
2.63334e+06
2.99967e+06
2.08912e+06
2.50714e+06
2.68659e+06
573605
2.53372e+06
1.99853e+06
1.83302e+06
1.02006e+06
871982
2.36946e+06
1.25587e+06
1.43401e+06
601812
3.13047e+06
875044
1.97874e+06
2.39544e+06
2.6185e+06
2.2537e+06
855050
1.15975e+06
1.10527e+06
1.04299e+06
1.56547e+06
3.54694e+06
2.12795e+06
2.77103e+06
2.75947e+06
3.48955e+06
2.35562e+06
983634
538219
1.64572e+06
2.83348e+06
3.52957e+06
3.10902e+06
1.74812e+06
887967
3.1667e+06
2.22718e+06
1.83881e+06
970626
1.14145e+06
1.22102e+06
2.89698e+06
2.72497e+06
2.64975e+06
2.9077e+06
787916
2.48979e+06
1.57726e+06
3.4069e+06
788672
1.00285e+06
2.00881e+06
2.21147e+06
2.72646e+06
1.19895e+06
2.52786e+06
1.04545e+06
2.46837e+06
538566
499594
1.67833e+06
2.47546e+06
2.67612e+06
951097
3.19755e+06
2.53134e+06
435039
3.10621e+06
1.61793e+06
988571
1.65756e+06
1.70224e+06
828546
2.57376e+06
1.05604e+06
2.51087e+06
2.79249e+06
1.07755e+06
3.52561e+06
659334
1.61785e+06
855067
827177
2.82594e+06
530905
924704
1.06226e+06
3.32077e+06
421798
292528
737084
1.11648e+06
904233
3.26456e+06
500120
2.04097e+06
3.22817e+06
1.61282e+06
1.55895e+06
1.65977e+06
2.66114e+06
2.23602e+06
1.11383e+06
1.30327e+06
2.48728e+06
1.11002e+06
1.31193e+06
2.17366e+06
2.00009e+06
2.33166e+06
2.42008e+06
2.12492e+06
2.26816e+06
1.62512e+06
1.51012e+06
1.31301e+06
1.12094e+06
1.34757e+06
1.22281e+06
2.82526e+06
3.13316e+06
1.58332e+06
1.36722e+06
1.20281e+06
1.06797e+06
2.67719e+06
2.5994e+06
966117
1.25496e+06
1.17235e+06
1.25831e+06
1.14605e+06
1.19429e+06
2.74207e+06
2.26964e+06
2.52664e+06
2.31058e+06
2.00261e+06
2.02021e+06
2.604e+06
2.79108e+06
2.5672e+06
2.70841e+06
2.18277e+06
2.2191e+06
2.1554e+06
2.4281e+06
2.50383e+06
2.65602e+06
2.09456e+06
2.13594e+06
2.50762e+06
2.45499e+06
2.65892e+06
2.9286e+06
2.92985e+06
2.9513e+06
2.36323e+06
2.5062e+06
976838
885422
1.33313e+06
1.32825e+06
1.58718e+06
1.65709e+06
2.69522e+06
2.61434e+06
1.7912e+06
1.74602e+06
1.80216e+06
1.65989e+06
1.84588e+06
1.6882e+06
2.75212e+06
2.28901e+06
2.53164e+06
2.40057e+06
1.59562e+06
1.67781e+06
1.49466e+06
1.53524e+06
1.45113e+06
1.7975e+06
1.08455e+06
1.01639e+06
2.98072e+06
3.53312e+06
826290
727239
708930
625788
712577
636417
452800
554182
3.20002e+06
3.54008e+06
2.65236e+06
2.6683e+06
2.39374e+06
2.64828e+06
2.37765e+06
2.37417e+06
2.96392e+06
2.8689e+06
2.24446e+06
2.20865e+06
1.99047e+06
2.00379e+06
1.80569e+06
1.79295e+06
1.87791e+06
2.11084e+06
1.77325e+06
2.01791e+06
3.12935e+06
3.17291e+06
1.05776e+06
1.10109e+06
2.49031e+06
2.48994e+06
2.51862e+06
2.53973e+06
1.00996e+06
1.16466e+06
444339
400453
3.70761e+06
4.71915e+06
2.54553e+06
2.55922e+06
2.43382e+06
3.14403e+06
4.34918e+06
4.70542e+06
2.49599e+06
3.48769e+06
2.54513e+06
3.58148e+06
2.86566e+06
3.13109e+06
3.0198e+06
2.73676e+06
3.807e+06
4.86746e+06
3.55428e+06
2.58575e+06
2.6838e+06
3.28732e+06
2.65212e+06
3.8472e+06
4.00862e+06
2.59391e+06
4.70228e+06
3.5577e+06
2.82547e+06
3.17024e+06
2.97435e+06
3.30972e+06
4.38e+06
2.95022e+06
4.38503e+06
2.86072e+06
2.87519e+06
3.75323e+06
2.91239e+06
3.80103e+06
4.20179e+06
2.62607e+06
3.98586e+06
3.43292e+06
2.90979e+06
2.57045e+06
3.26603e+06
3.68308e+06
2.68413e+06
3.28458e+06
3.81151e+06
2.90098e+06
3.8404e+06
3.56945e+06
3.23196e+06
3.06073e+06
3.82559e+06
2.9097e+06
3.14144e+06
2.21423e+06
3.84316e+06
2.79345e+06
2.26558e+06
3.69559e+06
3.12072e+06
3.34866e+06
3.26116e+06
3.16412e+06
2.82529e+06
3.36247e+06
3.4146e+06
3.32976e+06
3.23194e+06
3.13434e+06
2.64393e+06
3.57068e+06
3.34036e+06
4.04063e+06
4.06153e+06
2.61862e+06
3.3189e+06
2.69646e+06
3.76664e+06
2.42246e+06
3.56241e+06
2.76637e+06
3.00223e+06
2.53868e+06
2.51131e+06
3.51289e+06
2.84126e+06
2.68093e+06
2.61712e+06
2.88131e+06
2.77446e+06
2.76616e+06
3.54579e+06
4.42337e+06
4.15203e+06
2.61608e+06
3.95431e+06
2.98729e+06
2.98859e+06
4.41417e+06
3.068e+06
3.38736e+06
2.0965e+06
2.75506e+06
3.39449e+06
3.58246e+06
2.96312e+06
3.48574e+06
3.10472e+06
3.57967e+06
2.96049e+06
3.33331e+06
2.91022e+06
2.65449e+06
4.41239e+06
2.85513e+06
3.35096e+06
3.51639e+06
3.04055e+06
3.98409e+06
4.10857e+06
2.97962e+06
3.20537e+06
4.2264e+06
3.79538e+06
3.37746e+06
3.8008e+06
3.21699e+06
2.95191e+06
3.49793e+06
4.03765e+06
2.99826e+06
3.41684e+06
3.32343e+06
4.74512e+06
2.58078e+06
3.30634e+06
3.44812e+06
3.20879e+06
3.25026e+06
2.78883e+06
3.39194e+06
2.78091e+06
1.96841e+06
3.06839e+06
3.49332e+06
2.739e+06
4.58978e+06
3.27919e+06
3.63512e+06
2.72015e+06
2.78409e+06
3.6922e+06
3.37378e+06
2.78556e+06
2.4036e+06
3.32308e+06
4.67464e+06
4.03708e+06
3.32857e+06
3.55505e+06
3.76442e+06
4.1545e+06
2.86968e+06
2.64408e+06
3.88958e+06
3.50724e+06
3.87389e+06
4.72267e+06
3.54406e+06
3.59752e+06
2.74773e+06
3.0548e+06
3.81419e+06
4.46259e+06
3.62455e+06
3.34834e+06
3.55853e+06
2.87097e+06
3.17639e+06
2.13286e+06
2.6656e+06
2.6739e+06
5.27421e+06
1.93729e+06
1.92716e+06
3.58432e+06
3.71217e+06
4.25338e+06
3.67158e+06
4.10413e+06
3.0149e+06
4.19799e+06
4.32047e+06
3.14638e+06
2.93211e+06
4.89966e+06
3.3372e+06
3.81629e+06
2.66528e+06
4.00867e+06
2.52178e+06
2.71287e+06
3.24886e+06
3.62549e+06
2.88984e+06
2.72187e+06
4.31327e+06
4.31182e+06
3.59957e+06
4.26232e+06
3.17974e+06
1.58199e+06
3.97274e+06
4.08847e+06
3.82058e+06
4.75482e+06
2.45363e+06
5.07189e+06
3.50392e+06
2.76104e+06
3.78702e+06
2.17991e+06
2.1943e+06
3.51796e+06
2.23668e+06
4.24442e+06
4.10197e+06
2.74485e+06
4.15181e+06
2.94625e+06
2.90069e+06
3.09855e+06
3.79374e+06
3.65214e+06
4.08238e+06
2.16327e+06
3.5258e+06
3.7117e+06
3.18102e+06
3.95604e+06
2.15461e+06
2.6349e+06
4.49269e+06
3.27239e+06
4.21207e+06
4.26933e+06
3.32909e+06
2.64834e+06
3.27014e+06
3.76904e+06
3.42448e+06
2.9235e+06
2.83498e+06
3.57246e+06
1.98291e+06
4.20215e+06
2.7815e+06
3.01441e+06
3.15905e+06
3.24256e+06
2.7025e+06
1.32613e+06
3.17303e+06
3.72896e+06
2.89434e+06
2.87471e+06
3.00599e+06
4.20901e+06
2.51325e+06
3.93256e+06
4.38078e+06
3.40186e+06
4.27227e+06
2.64057e+06
3.10205e+06
3.4702e+06
3.11448e+06
3.03368e+06
4.48123e+06
3.08937e+06
3.50572e+06
4.1924e+06
3.80285e+06
3.30251e+06
3.29195e+06
4.31258e+06
5.86051e+06
3.42817e+06
3.69127e+06
5.64785e+06
2.45506e+06
3.36831e+06
2.11346e+06
3.68715e+06
5.03371e+06
4.47739e+06
5.30807e+06
3.41804e+06
3.34813e+06
4.41827e+06
3.0845e+06
3.7861e+06
2.53935e+06
4.37109e+06
4.27618e+06
4.47377e+06
3.94466e+06
3.0162e+06
3.45663e+06
3.29459e+06
2.71876e+06
2.48114e+06
2.60081e+06
3.54749e+06
5.1161e+06
2.65564e+06
4.41425e+06
3.50896e+06