/*--------------------------------*- C++ -*----------------------------------*\
| =========                 |                                                 |
| \\      /  F ield         | OpenFOAM: The Open Source CFD Toolbox           |
|  \\    /   O peration     | Version:  v2012                                 |
|   \\  /    A nd           | Website:  www.openfoam.com                      |
|    \\/     M anipulation  |                                                 |
\*---------------------------------------------------------------------------*/
FoamFile
{
    version     2.0;
    format      ascii;
    class       volScalarField;
    location    "1";
    object      sigmaHyd;
}
// * * * * * * * * * * * * * * * * * * * * * * * * * * * * * * * * * * * * * //

dimensions      [1 -1 -2 0 0 0 0];


internalField   nonuniform List<scalar> 
15946
(
-550151
1.18509e+06
1.73166e+06
-2.04205e+06
2.20161e+06
490171
-1.93823e+06
-1.29618e+06
-803296
-101792
-79167.4
162821
47000.5
1.43238e+06
825557
-894888
-375779
1.00283e+06
920620
947971
-411166
-636710
444392
132934
-1.03914e+06
-894824
-1.46325e+06
-923133
314930
667916
-257682
-274302
-520784
-1.02057e+06
1.19178e+06
974460
-1.1129e+06
-1.24406e+06
706326
388216
-728747
1.34511e+06
143279
-829396
-240821
778394
497687
-1.45035e+06
-714587
-2.3158e+06
399403
1.23109e+06
-1.15714e+06
-524940
1.97576e+06
613829
997100
1.53415e+06
1.11768e+06
1.05091e+06
-1.0588e+06
-545646
1.02278e+06
467983
-188140
31444
3147.1
-23715.8
351030
511565
1.35459e+06
-518966
-659613
-2.07334e+06
1.86314e+06
-1.38496e+06
254569
1.36627e+06
-650942
6710.42
-618318
-620220
-1.14887e+06
775636
-1.83335e+06
1.69906e+06
-753959
1.21428e+06
615001
-1.14153e+06
-1.19384e+06
-1.71588e+06
-1.03812e+06
-943155
-561193
-37451.7
-105247
-90728.5
1495.45
174723
202587
-121007
-20857.5
503385
797789
202004
211813
337497
671452
-351342
-338668
-837004
-442179
41434.1
45296.6
-211799
-266646
-1.46659e+06
-925682
802501
654227
-592442
-778496
694991
1.28963e+06
2.83727e+06
-1.37393e+06
682545
2.13846e+06
-2.27489e+06
-638356
-413181
-298141
117314
82389.9
-1845.97
-102433
-192172
-226553
2.25923e+06
293357
-1.44337e+06
-1.96905e+06
-288579
1.8014e+06
1.41113e+06
-2.12487e+06
206676
348199
587090
-366013
-367719
467547
419591
-441635
1.57526e+06
1.79827e+06
-2.35337e+06
2.21934e+06
428508
-1.82889e+06
-1.9398e+06
-151372
-726313
558715
1.29166e+06
-1.32295e+06
-535700
22264
1.13843e+06
52374.3
695588
525109
1.05899e+06
-305930
326444
-1.33583e+06
1.02442e+06
-1.33318e+06
-718378
-159565
-1.33176e+06
5.52296e+06
-5.7126e+06
1.0921e+06
-1.08642e+06
-2.20669e+06
906579
-778005
420231
5227.84
-2.44928e+06
1.16721e+06
2.07029e+06
-572865
833890
-1.54939e+06
-666543
1.30826e+06
2.66816e+06
-1.34101e+06
501929
2.61607e+06
-2.75076e+06
-2.80409e+06
-360233
-785288
817728
-1.09912e+06
1.14409e+06
-5.7126e+06
5.52296e+06
3.06801e+06
-3.15732e+06
662998
-789102
-37055.6
-110836
-2.80409e+06
2.61607e+06
632112
-803357
3.42942e+06
663900
-3.40546e+06
-726976
1.34312e+06
1.32167e+06
-1.48616e+06
-1.42515e+06
14486.6
-62038.4
-738359
711165
-3.59972e+06
3.16202e+06
-793942
-3.61878e+06
-768680
3.45811e+06
668788
582692
-3.1147e+06
2.92816e+06
-1.44337e+06
-1.45919e+06
2.18693e+06
253657
-423285
1.34012e+06
-2.14425e+06
1.41113e+06
1.57526e+06
1.3936e+06
-527110
-2.36976e+06
2.02905e+06
-1.44218e+06
348541
-1.82889e+06
2.92816e+06
2.49937e+06
1.14681e+06
824690
-566555
-648599
-2.79351e+06
-1.46396e+06
-2.67638e+06
-3.1147e+06
-920114
-1.2935e+06
984621
2.21099e+06
420529
532889
-425755
-407583
-162552
-326226
-477218
-640945
-455686
-520900
-406841
-256106
-175537
-378202
-20479.9
-387006
-459845
23132.9
-680067
-439141
-457287
-409921
-401747
-278599
-593849
-973884
-541752
-368155
-358685
-375371
-501036
-1.08832e+06
-214427
-292604
-263235
-121116
-31877.4
-507533
-521572
-457552
-524098
-511988
-402413
-336567
-516426
-413290
-345552
-882373
-243131
-304367
-579456
-331852
-538560
-225861
-580022
-57208.4
-34274.7
-551418
-146806
-224103
-103857
-368872
-347722
-124535
-1.3976e+06
-584096
-332086
-120671
-353682
-198151
-834901
-539760
-441528
-180353
-269239
-700966
-205693
-350448
-251271
-218080
-348867
-382120
-332905
-278434
-368989
-276522
-291208
-250230
-293752
-514088
-381937
-417700
-281268
-463578
-598122
-355451
-594369
-214831
-459069
-162245
-648729
-384912
-295014
-382265
-932385
-332811
-718588
-441575
-310004
83674.5
-217497
-359248
-687295
-382071
-256646
-382412
-56071.5
-91947.9
-201107
-613200
-329740
-1.31234e+06
-449169
-386853
-209906
-288888
-503098
-571927
-398649
-612277
-147776
-282564
-222349
-191320
-752799
-601596
-648623
-246145
-733607
-410914
-792653
-224723
-597757
-200972
-344392
-164590
-353899
-813474
-351362
64020.6
-62759.5
-562446
-577906
-361195
-734941
110106
110660
-418467
-436225
-326796
-290291
-96503.9
-1.03531e+06
-471981
-402956
-387738
113195
-67463.9
-196870
-518237
-304238
75485
-63731.3
-338506
-423367
-358053
-120260
-415986
-247140
-603449
-501034
-410803
-492818
-398473
-444773
-361137
-101515
-127657
-683124
-750073
-379222
-331765
-494489
-159863
-108954
-481837
-610557
-245192
-397834
-611128
-427104
-1.22313e+06
-578929
-431159
-588967
-146571
-588963
-85490.7
-215908
-1.04771e+06
-229646
-427479
-97908.4
-350828
-560714
-647425
-311959
-350249
-368551
-356777
-265315
-204582
-557563
-312841
-241369
-394980
-896302
-71100.6
51262.2
-153408
-623180
-211734
-284281
-230467
-369341
-662429
-821213
-344911
-381548
-398627
-878687
-836993
-445971
-439910
-465858
-618556
-1197.2
-466629
-277530
-598193
-314737
-383370
-321752
-132909
-393806
-923520
-364084
158804
-521443
-398161
-899970
-746408
-109626
-426216
-124853
-98840.1
-233854
-120815
-210105
-239297
-289219
-460563
-240114
-279245
-858750
-924203
-58351
-250314
-477941
-554243
-530303
-342253
-412026
-439923
-523369
-390003
-441188
-760123
-751781
-353133
-355211
-335987
-743666
-499178
-156431
-287747
-578118
-456549
163599
-413590
-856174
-398292
-598794
-395822
-418704
-525601
-670197
-717465
-785271
-614713
-344361
-93851.5
-1.31676e+06
-519372
-431298
-271461
-18366.7
-486168
-815631
-292523
-626372
-556322
-1.01197e+06
-393534
-459911
-291735
-466042
-339325
-225713
-458777
-245595
-196127
-375541
48705.1
-720998
-432384
-140369
-446318
-780244
-198541
-579314
-706242
-738236
-23710.7
-763232
-436424
-156365
-73252.2
-314060
-796272
-251325
-534787
-356340
-401617
-507127
-325687
-221317
-359410
-591743
-531572
-103956
-342588
-445167
-507788
-138489
-456819
-392518
-320304
-236913
-268205
-365353
-223477
-4197.74
-888383
-35731.3
-302002
-1.09823e+06
-69703.8
-148218
-152064
-855201
-203265
-1706.34
-505710
-12962.2
-39770.9
-289576
-281665
-619082
-593197
-247094
-602286
-252186
-373451
63798.7
74904.4
42666
-109798
43437.2
-237826
-257641
-466075
-442973
-372221
-77044.7
-680887
-679196
-257210
-225091
-99724.8
-222580
-12330.1
-242058
-263249
-149725
-358305
72453
-302396
-228257
-842967
-509328
-404810
-221400
-140695
-1.06042e+06
-120798
-494246
-110905
68398.8
-157148
-927172
207727
-236928
-875232
-212098
-313357
-132293
-64024.2
-414838
-221128
-148794
-775062
206810
-376505
-210555
-578494
53896.1
-586754
-704863
-56992.2
-499845
-437353
-490393
-473141
-686637
-684613
-313422
-110666
-108162
-63183.9
-945823
-52476.7
-293409
-826167
-67868.7
-58690.6
-926377
-265347
-311217
-126924
-151992
-582993
-753377
-146081
-3769.28
-469059
-335916
423323
-281330
-1.28518e+06
-425166
-467976
-616206
-422154
-82943.5
-577013
-216089
-173713
-263280
-406829
-1.16078e+06
-816887
-156618
-223799
-132342
-62724.9
-374695
-509684
-303965
-1149.41
-153051
-475463
-495140
-30420.9
-16055.1
-767592
-271033
-984597
-149489
-560854
-556239
-491078
-578466
-521781
-388355
-214216
-737946
-609122
-380919
-430118
-617548
-621228
-236536
-349771
-376103
-373753
-382409
-586827
-628586
-255901
179330
-883214
-273336
213204
-212344
-565917
-235881
-400876
-798679
-404691
-272104
-31079.9
-186444
-452539
-67666.1
-378574
-137801
-824216
-112872
-246938
-193447
-538509
92138.4
62057.1
-225929
-18223.9
-206336
-647828
-27159.2
-313576
-339950
-209625
-644303
-280962
-386659
-343314
-178059
-84648.6
-79309.1
-1.06004e+06
-206506
-100977
-1.21617e+06
-850902
-838812
-696036
-111077
-416746
-689302
-455056
-484399
-776224
-244008
-430847
-64754.3
-303696
-77322.8
-479888
-1.03069e+06
-154971
-18079
9573.88
-296732
-287902
-444430
-225978
-139932
-211642
-290748
-230861
-79851.6
-687973
-556646
1565.95
-124666
-143956
2244.53
-308224
-2109.41
-428865
-444053
-622229
-367212
-422252
-229134
-190222
-228823
-256489
-249868
-363289
-41887.8
-319247
-264661
23775
-572694
-579504
-203789
-369647
-262509
-373510
-329851
-1.13683e+06
-786812
-470767
-94321.2
-727086
-297626
-894584
-338733
-125984
-331930
-693617
-96090.8
171038
-284507
-367333
-610340
-601740
-758111
-354538
-630178
-265121
-435385
-637390
-663414
-601676
-584878
-295472
-330933
-139995
-50988.9
-569778
-954999
-454186
-500677
-309259
-112778
-426717
-786770
-831761
-105525
-420935
-685211
-166782
-222920
-954559
-303513
-555940
-409383
-436951
-505430
-390250
-329582
-588710
169641
-308855
-568118
-253200
-603369
-611821
-231795
-355299
-605430
-207294
-175297
-875137
-218489
-714156
-247930
-520483
-91390.5
-252676
-660350
-94844.5
-967666
-476998
-503106
-305482
-425199
-635816
-665654
-570635
-195655
-115455
-665828
-1.30181e+06
-232390
-338773
-307620
-404180
-299094
-230531
-451159
-300375
-190445
-277578
448812
-486338
-445881
-842672
-1.2715e+06
-501647
-860648
-739822
-343656
-355113
-303734
-263722
-271027
-427370
-90471
-29697.1
-155026
-475692
-366528
-187281
-217079
-699489
-279810
347414
-333574
-187913
-131572
-208044
-572255
-260393
-346788
-198972
-268320
-687632
-628427
-666291
-331867
-249217
-349704
-512858
-230841
-558089
37729
-773423
-233861
-353350
-577462
-123316
-764243
-223870
-109816
-813907
-772415
-932707
-379942
-296158
-89692.4
-220688
-322637
-351363
-440253
-686509
-21806.1
-810359
-595821
-600872
-746495
199598
166376
-172093
-845195
-248187
-524494
-377796
-454810
-341485
250559
220701
-169730
-644153
-230143
-1.11226e+06
448320
-683454
-644439
-424153
-12479
-438470
-443093
-108303
-528619
-985213
-142379
-82367.5
-44168.7
-560870
-125354
-335790
-1.10772e+06
19169.9
-1.22279e+06
-456878
-1.05419e+06
29738.6
-389788
-763086
-265733
-122842
-764460
-10689.4
-136784
-235789
-185154
-302998
-745396
-619089
-686822
-616440
-378428
-472088
-232151
-528343
-66811.9
-380305
-685276
-468009
-123435
-247750
-143265
-128712
-398628
-327675
-738130
-534254
-264449
-343658
-28096.9
-547405
-899124
-140286
-298104
-225829
-910509
-252218
4531.97
-193049
-328198
-803021
-341201
25906.5
-200849
-594360
-851969
-245109
-261459
-89791.3
75085.2
-146160
-148072
-284881
-106367
-584171
-52850.5
-261283
-1.02838e+06
-429815
-280859
-823306
-248757
-165926
-897714
-853766
-292197
9232.39
-48723.3
-436590
-251943
-613371
-367180
-321938
-32539.3
-520657
-308709
-910983
-438654
-695712
-261071
-600488
-244783
-430.254
-507891
-475294
-452648
-1.02528e+06
-788425
-147361
-749382
-111744
-613943
-352744
-242437
-155685
-138328
-545238
-747976
-601170
-503966
-314887
-309736
-733041
-495618
-79733.9
-157100
-220258
-714936
-526598
-203366
-374846
-447121
-733227
-1.24154e+06
-189363
-62732
-661044
-726062
-95295.9
-405331
-362049
-106447
-91744.1
-368002
-857059
-835861
-821707
-556657
102519
118743
-75015.1
-478323
171424
-843094
-175032
-641372
-497698
-59294.9
-535226
-11398.2
-512134
-155275
-737469
-535448
-478786
-203523
-253330
-126476
-588148
-155689
-187058
-943772
-1.20895e+06
-174341
-160857
-795107
-942348
-606280
-529315
-118193
-691540
-594549
-413365
-627635
-999802
-376120
-237346
-684434
-364044
-303603
-871611
-1.10204e+06
-360839
227445
-411419
-364741
-505093
-1.06139e+06
-302842
-789185
-117500
-803965
-614927
-128607
-382934
-311842
-1.01399e+06
-348196
-455524
-677244
-968691
-549797
-1.18385e+06
-1.13648e+06
-495411
-33985.4
-1.08079e+06
-76905.5
-101143
-479033
-1.09669e+06
-601056
-1.04082e+06
-488120
-1.04318e+06
-773616
-38556.3
-168783
150406
144199
-711993
-554327
-586979
29021
-50294
177883
-635927
-308050
-60416.7
-6404.87
-57414.3
-667057
-328281
-129512
-129496
-1.07695e+06
164710
-486267
-511358
-292848
-434089
-100988
-958794
-353879
-260932
-781416
-592487
-174740
-218399
-955439
-445631
121492
-115209
-8993.9
-76535.2
-389250
-28339.8
-388169
-313130
-410638
-553299
-403287
-529573
150883
-532770
-679881
-104972
305583
-4747.26
-271627
-150701
-65825.9
-104616
-722779
-221099
-165689
-778535
-272936
-514982
-86421.8
-908978
-225463
-96718.2
-98457.2
-451739
-438049
-847780
-351166
-216647
-702649
-233422
-744907
-348464
-505701
264207
-741505
-679417
-245728
-939665
-364909
-260386
-175864
-588016
-161262
-766620
-415601
-454167
-335734
182249
-724433
-57923.5
313368
293404
-187820
-833785
-602418
-1.02274e+06
-884347
-574608
-131403
-81089.2
-115111
-949265
-972145
-523734
-10091.6
-36053.9
-825237
-119537
-176543
-393139
-402054
-281808
-91816
-235305
-431545
-414087
-202019
-509016
-1.12588e+06
261257
253226
-944838
-925191
-1.19639e+06
341186
-288332
-478100
-306415
-63776.5
-384233
-374792
-417450
191959
-60009.5
-1.14224e+06
-401812
-1.73327e+06
11637
-16035.6
224024
-910283
-194233
-1.11958e+06
154480
-340522
-146287
-362154
-249150
-803812
-270902
-251907
-182124
-60975.1
-779296
-221017
-285356
119225
-450089
-262389
-89712.4
-78212.1
-644807
-633229
-247913
-114523
-158364
-356092
-183282
-741436
-512178
-247374
-73292.5
-615232
-547758
-509009
-272406
-359436
-694742
-208246
-1.02441e+06
-450213
-357322
-644969
2808.23
-532522
-458617
-387166
-946958
-406189
-96202.5
-454616
-187449
-434946
-983262
-985380
-96456.8
-354983
11490.8
-209889
-448765
-9624.49
30421.9
-308718
-288906
-280363
-500206
-371408
-399673
-516739
-270882
35369.7
-29163.1
-851666
-335120
-358864
-868923
-146309
-279495
-246802
-206219
-460605
-208158
-62873.1
-57458.7
-524271
-1.09813e+06
-480597
-1.05512e+06
-8970.63
-456083
-837995
8502.36
-40644.4
-92756.8
-95132.4
-92764.6
-138105
126038
196488
-1.11875e+06
111106
-676458
125339
-790977
-107915
-444544
-80693.9
-581065
-163575
-214940
-555635
-520459
-411097
-393107
-374685
-110681
98562
93138.7
-510637
21371.1
-719377
-298313
-677029
-180841
47191.1
-497937
-158259
-92009.3
-135563
7860.9
-522330
-695456
-100904
-896334
-82800
-1.03066e+06
-64861.1
-907695
-1.10986e+06
35793.3
93361.8
-1.12745e+06
-803175
-113281
-355887
-816629
-233010
-381708
-1.06782e+06
-730377
-334309
-177130
-45930.8
-318806
-181931
-651005
-149517
-121730
-429869
-597620
-1.3272e+06
-233198
-358510
-159447
-238441
-389819
-1.05847e+06
-1.09462e+06
-445668
-139677
-153042
-782340
-962403
-713379
-575927
52428.4
-710450
-258892
-963545
-153472
-252979
-404004
-251216
-907576
-1713.88
-284728
-336966
-514484
-65569.9
-235065
-549975
-76728.4
-740247
-711398
-200252
128446
-357269
-472236
-395047
41135.6
-340722
-449358
-184380
81590.5
52778.4
-863520
-847267
-173252
-76835.9
-68270.4
-109748
-366039
99385.6
-248765
-506153
-32556.4
-17774.3
-407769
-79636
-251981
-42207.1
-140141
-731944
-179488
-408362
-789643
92216.4
-332570
-228450
-376928
-368478
-217335
-356029
79924.8
-196480
-302110
-561925
-854837
-289295
-600820
-766768
16710.3
-208438
-480374
-416083
-911017
-546750
-32462.4
-763532
-509890
-457419
-170545
-292933
-639405
-313794
-205136
-404399
-192090
-222895
-378719
-481393
-209760
-247455
-900493
-198371
-528023
-716155
-666435
-813828
-273306
-826383
-147974
-566107
-736835
-412401
-137703
-75774.3
-270510
-65124.6
-759863
-93717.9
-68372.1
-313921
-82328.4
-330367
-851209
-848021
-80875
-345289
107492
-330204
-116927
-563816
-152801
-247974
-663053
-369642
-307716
-1481.05
-139560
19046.1
-148846
-251794
-483064
-93572
-469236
-11452.1
-553718
-422134
-209731
-358164
-613026
-850371
-837581
-950339
-629305
-623490
111878
177425
-801121
-520577
2570.84
-280829
-648837
143145
-461431
-381747
-146258
-1.15466e+06
-178016
-207809
-885126
513258
-364821
-333348
-95854.7
-447183
-1.14305e+06
-211998
-36662.6
-983332
-291592
-72057.9
-59683.6
-8507.79
-182236
66885.6
-1.05617e+06
-190957
-498606
-911627
-1.08072e+06
943.323
-92415.8
-507583
-303182
-627052
107942
-509256
-172771
-280202
-557221
-442872
-423367
-597547
-524011
-169666
-766052
-503243
-576068
-393862
-218979
-215104
-191130
-154244
-945146
-218911
-106285
-85178.2
-60345.7
23435.1
-410959
48610.3
-640398
-1.17654e+06
52063.2
-871614
-79751.2
-774541
7743.36
-6004.86
18114.6
-135209
-198823
-639999
595136
888.699
-456922
20526.6
-952630
-518061
-1.2016e+06
-1.05666e+06
-35625.3
-19982.6
-1.02188e+06
-61220.1
-194509
-394751
-385774
63164.6
-276690
-578237
123611
-515722
-460826
-509714
-379292
-40459.3
-285128
-1.10382e+06
-157582
-186982
-1.06439e+06
34212.2
177773
-200696
-848126
-971506
-1.05725e+06
72461.5
-137261
-241898
-420551
-1.25041e+06
-232766
-385053
-263394
-351262
-404740
-951733
187533
-160673
3175.55
-185066
-1.18537e+06
135027
-709761
-872859
-101825
-897545
106355
537557
-444564
-264735
586973
1513.45
-489355
-876551
-149836
-335512
-633818
-866686
-491650
-340841
-348172
-587511
-363243
-1.23545e+06
-606806
-1.0196e+06
-662746
-838257
261860
-307476
-1.06169e+06
-956108
-170413
-647734
-952051
-318690
-304650
-733597
10481.3
-153193
133210
-708868
273391
2832.19
-125168
-60828.8
-131551
-249035
-637451
-299260
-61815.7
-391204
-911749
-273397
459029
-240311
-527309
-199323
-28310.8
-222300
185290
56023
-5554.12
-157478
206258
-897651
-1.12624e+06
27467.3
-73346.7
34363.8
-151962
-420817
-258195
-164663
9552.72
-451661
-76950.7
-458538
-986253
-922449
-384885
-74442
223022
123542
300976
-662079
27881.8
-388652
-468703
-92593.3
-91438.3
-850914
194894
-122070
-50733.2
24068
-258759
-80571.4
-126842
-326251
-210534
247846
-408313
225654
225907
-984230
-205441
-636504
-24047.8
22699.1
-275320
-309808
48094.9
-272756
-358594
444453
-1.10858e+06
211553
-482266
-412668
-926130
-100826
202862
-143579
-259715
-570836
-985398
-728496
-124973
-267585
-947257
-127593
-576646
-39041.8
-119390
-361052
-194087
-250160
-171771
-869627
90089.7
-89822.9
230484
-1.20377e+06
-243300
-128548
-79181.9
-29186.8
-68025.8
-64742.3
-331574
-229048
-507679
78411.8
-48671.9
700865
-103695
-80604.4
-258867
-966681
-581737
-153825
-916487
505767
-308430
-577176
-320928
315392
-155527
-35365.9
-538226
-648777
-333749
-915792
12077.1
618397
-271032
-258628
-724902
-172506
124517
-172416
-911278
-7007.64
37440.8
278663
-328529
179690
-984127
16167
-374702
-963725
-293905
-268718
-218855
-471256
-383599
-278082
-390439
-534055
-115082
-295084
-476466
-267377
-290316
-485185
-16849.4
-131529
-357835
-310486
-248225
-43343.8
-165880
-69241.4
-646986
-819036
-426712
-220822
-270014
-234794
-500940
-456146
-221468
-419838
-346392
-380631
-358860
-359586
-443521
-350683
-424295
-175465
-403469
-575529
-606755
-669917
-661763
-718774
-666738
-667746
-519749
-877550
-513168
-626638
-493176
-560818
-614746
-604131
-523747
-734032
-926700
-889326
-410730
-608475
-254886
-179220
-219677
-209743
-435805
-502913
-580728
-548466
-512039
-550086
-540619
-443540
-243626
-257995
-913634
-468323
-394382
-162306
-433620
-256859
-241720
-153948
-98409
-425722
206979
284957
-712153
-1.36928e+06
-119147
240244
-98744.7
316063
-31390.9
-135487
-92005.7
-130315
-1.14949e+06
-1.16685e+06
-578514
-549492
-50841.5
-70183.6
-185164
44880.7
-917598
-876554
-425169
-492668
-504035
-498764
-344064
-472627
95706.4
-631083
34125.8
-736050
-1.13052e+06
-1.03197e+06
-368993
-350434
-91254.5
-111760
-84200.6
-74404.6
-159060
-291045
-23586.8
-16660
-1.29816e+06
-1.97439e+06
-413022
-365380
-90994.4
-906741
-1.41726e+06
-2.26639e+06
-168037
-1.134e+06
-228826
-723431
-84806.1
-334830
-332538
-484787
-1.17232e+06
-1.97681e+06
-762513
-312209
-92782.6
-868314
-562914
-1.20178e+06
-1.30888e+06
-175442
-1.97414e+06
-991419
-587028
-855076
-577188
-834658
-1.3378e+06
-502565
-1.48708e+06
-643443
-127076
-1.01075e+06
-623810
-1.15246e+06
-1.79174e+06
-139488
-1.24104e+06
-755075
-599924
-77671.5
-859171
-927455
-613196
-768169
-1.20586e+06
-358656
-1.35297e+06
-1.33418e+06
-751590
-319999
-1.07706e+06
-882687
-296425
172461
-1.10397e+06
-434057
218764
-1.08031e+06
-828533
-836115
-604894
-861936
-687297
-948921
-715728
-953051
-925553
-822690
-381029
-1.11301e+06
-954885
-1.63366e+06
-976920
-674787
-954486
-460824
-1.28998e+06
-396388
-995258
-295238
-580357
-11625.3
-3900.25
-979252
-257450
-664954
-95521.5
-631153
-75738.1
-167884
-999468
-1.57633e+06
-1.25187e+06
-164325
-893930
-494702
-434487
-2.11481e+06
-600553
-954341
126275
-56989.4
-954770
-1.17254e+06
-706763
-659235
-683717
-1.18418e+06
-548354
-817798
-541047
-150328
-1.75416e+06
-644526
-801881
-1.19387e+06
-666026
-1.40484e+06
-1.13544e+06
-466375
-957036
-1.96227e+06
-1.2464e+06
-1.18211e+06
-1.27469e+06
-679073
-447111
-1.08928e+06
-1.35806e+06
-483811
-1.00978e+06
-979344
-1.97609e+06
-322150
-709205
-1.14034e+06
-981239
-745023
-218760
-908265
-829439
18423.2
-809120
-931455
-110224
-1.73025e+06
-737282
-800018
-283652
-399401
-1.03271e+06
-943636
-559434
215412
-1.19471e+06
-1.56621e+06
-1.35064e+06
-977024
-914185
-1.34492e+06
-1.63657e+06
-830275
-454449
-1.35897e+06
-789322
-1.23238e+06
-2.01723e+06
-1.07475e+06
-865074
-405833
-450716
-1.26072e+06
-1.72243e+06
-899280
-638681
-980643
-349820
-712693
575361
48413.9
-294807
-2.71623e+06
340385
377097
-1.3176e+06
-1.15082e+06
-1.53135e+06
-819015
-1.71312e+06
-457500
-1.20076e+06
-1.6507e+06
-641418
-754441
-2.09851e+06
-939328
-1.49e+06
-62271.3
-1.29836e+06
-76505.5
-289695
-1.13927e+06
-1.15817e+06
-761494
-104085
-1.76527e+06
-1.83805e+06
-1.06417e+06
-1.75465e+06
-962050
408181
-1.38105e+06
-1.62846e+06
-1.23301e+06
-2.31159e+06
-343010
-2.30119e+06
-1.1331e+06
-570778
-1.58198e+06
145449
56218.8
-1.09163e+06
214168
-1.55396e+06
-1.88689e+06
-212710
-1.84949e+06
-533628
-46223.4
-681013
-1.55792e+06
-569521
-1.48408e+06
276556
-980585
-1.23824e+06
-808878
-1.50835e+06
290728
-208156
-1.53613e+06
-1.10401e+06
-1.76784e+06
-1.24761e+06
-832146
-449491
-1.06868e+06
-1.0688e+06
-995604
-546333
-408303
-1.10287e+06
290770
-1.97426e+06
-452713
-828967
-774075
-661652
-241415
-245171
-885016
-1.0885e+06
-523600
-605467
-665898
-1.89448e+06
-190468
-1.51131e+06
-1.82775e+06
-831685
-1.62415e+06
-190303
-661791
-770865
-412680
-688669
-1.96485e+06
-727578
-972584
-1.55432e+06
-1.22327e+06
-739707
-854847
-1.67853e+06
-3.06752e+06
-912559
-1.06525e+06
-2.34768e+06
-219286
-1.15971e+06
-51180.4
-1.12548e+06
-2.07948e+06
-1.44687e+06
-2.391e+06
-1.30846e+06
-935789
-1.65631e+06
-515510
-788128
-399251
-1.68473e+06
-1.37881e+06
-1.20657e+06
-1.59691e+06
-485214
-1.12099e+06
-688364
-407773
-111492
-335414
-1.19306e+06
-2.67486e+06
-342941
-1.30985e+06
-944744
-207812
-735136
-33540.8
-619532
-1.18727e+06
-881943
-3.26801e+06
-1.40445e+06
-2.00338e+06
-879686
-1.03769e+06
-1.76731e+06
-2.0939e+06
28821.6
-621478
-557398
-1.21311e+06
-1.34951e+06
-1.81545e+06
-789436
-2.9468e+06
-1.45733e+06
-1.14585e+06
-1.1018e+06
-1.32735e+06
-1.94344e+06
-1.61599e+06
-881135
-446337
-1.17039e+06
-1.02155e+06
-1.29287e+06
-1.31845e+06
-1.31467e+06
-1.18143e+06
-980532
-1.52708e+06
-729034
-1.2109e+06
-1.10832e+06
-1.52695e+06
-776578
-877349
-1.23934e+06
-1.18615e+06
-1.47762e+06
-1.26981e+06
-571915
-1.83746e+06
-1.50829e+06
-876367
-890035
-661978
-2.2901e+06
-261078
-599412
-1.65989e+06
-534100
-548515
-1.45883e+06
-344516
-1.79478e+06
-139865
-1.56027e+06
-1.25301e+06
-1.1433e+06
-1.17385e+06
-968686
-725791
-1.63371e+06
-1.76775e+06
-96275.9
-1.45668e+06
-542413
-706609
-1.70464e+06
-625724
-489207
-945686
-2.41382e+06
-1.47313e+06
-1.99362e+06
-2.19098e+06
-1.3436e+06
-648202
-282164
-1.74479e+06
-756986
-1.14233e+06
-2.30478e+06
-2.86156e+06
-595071
-31947.8
-1.36001e+06
-1.46984e+06
-493653
-1.70236e+06
-1.67834e+06
-1.2843e+06
414377
-706006
-1.38173e+06
-121681
-754397
-804868
-351572
-1.1915e+06
-734532
-156296
-173251
-478457
-494346
-1.23631e+06
-1.33886e+06
-1.14692e+06
-1.13947e+06
260552
123167
106627
-535775
-2.06827e+06
-1.68294e+06
-647940
-1.31787e+06
-1.04461e+06
-1.28722e+06
-1.62548e+06
-414865
-1.60125e+06
-409415
-1.22409e+06
-1.05247e+06
-541556
-2.25098e+06
-1.7612e+06
-1.40568e+06
-2.05978e+06
-90109
-1.58487e+06
-1.05077e+06
-919702
-241769
-993710
-1.31496e+06
-1.50534e+06
-37083.2
106670
-709680
-803991
-161877
-1.46784e+06
-1.22117e+06
-2.10033e+06
-475437
-1.27806e+06
-1.26156e+06
-889311
-612215
-1.55437e+06
-443147
-1.62246e+06
-2.05053e+06
-1.14669e+06
-1.51147e+06
-1.78638e+06
-1.11566e+06
-799933
-2.38035e+06
-521184
-1.51147e+06
-823624
-2.14639e+06
-414043
-1.25971e+06
-886991
-540677
-847069
-634002
-1.2767e+06
58115.2
50706.4
113370
-977844
-1.45434e+06
124532
-1.14225e+06
-2.02244e+06
81079.1
107678
-2.44122e+06
-1.13646e+06
-657525
-1.74106e+06
-1.51007e+06
-1.62126e+06
-654373
-445249
-416230
-1.48711e+06
-1.19256e+06
-199615
-706419
-538604
-567801
-443443
334027
-294005
-1.66951e+06
-1.97907e+06
-491356
-1.12255e+06
-1.37692e+06
-349092
-914907
-974973
-285975
-1.50688e+06
-1.53306e+06
-708443
-280333
-888651
-303832
-1.10459e+06
-1.69191e+06
-223346
-1.29199e+06
-1.73631e+06
-1.46959e+06
-1.25167e+06
-2.42954e+06
-111846
-1.79212e+06
-1.13603e+06
136319
-1.2433e+06
-744600
-2.45606e+06
-5281.05
85476.3
-681061
-1.79505e+06
-1.41751e+06
-701672
-1.04705e+06
-1.94101e+06
-1.0053e+06
-1.57322e+06
-1.34775e+06
-1.06489e+06
-1.59775e+06
-1.03946e+06
-578050
-375794
-2.00927e+06
205416
510103
626443
-890722
-1.63192e+06
-2.42182e+06
-998699
-431324
-612744
-1.36858e+06
-264064
-421559
-1.70107e+06
-881035
-378607
-1.39635e+06
-2.60388e+06
-63671.6
-1.04463e+06
-741090
-1.25653e+06
192539
185658
-37507.9
-537709
-2.21789e+06
-427897
-732290
126956
-463061
-976460
-713272
-1.3753e+06
-57334.7
-2.16737e+06
-375757
-15732.1
-484617
-20747.5
-2.78939e+06
-91486.5
-939284
-811616
-626327
89203.9
-175578
-913594
-352489
-331719
-33077
-874748
-2.0158e+06
-1.38294e+06
-1.71346e+06
-198611
-1.48621e+06
-135886
-475089
-186850
-123964
-182671
-220901
-1.97861e+06
-271747
-1.38225e+06
-761862
-1.8637e+06
-64489.4
-455045
-1.0669e+06
-2.61438e+06
-62203.4
-1.97335e+06
-329480
-687928
-44966.3
-710293
-1.52516e+06
-558016
-1.48283e+06
-1.12516e+06
-1.24281e+06
-1.95206e+06
-592153
-1.1871e+06
-1.49797e+06
-420539
-1.37587e+06
-1.12979e+06
-311677
-1.30003e+06
-358892
-639728
-378134
-989615
-884239
-1.00182e+06
-330271
-585892
-544790
-2.4789e+06
-888858
-939209
248441
-2.48387e+06
-881641
-2.16125e+06
-485279
-862888
-2.46855e+06
-880186
-1.26493e+06
-845380
-829023
-955858
-842779
-1.62767e+06
-2.32244e+06
-2.00073e+06
-3407.48
-1.26692e+06
-1.36653e+06
-1.19321e+06
-1.64701e+06
-993762
-944225
-168358
-1.76778e+06
-545537
-496390
-2.2999e+06
-725113
-334683
-975664
247442
-423931
-208010
-754334
-663701
-1.68572e+06
-878980
-286499
-546659
-873053
-567084
-439531
-136914
-1.35009e+06
-1.33622e+06
-1.94574e+06
-2.10767e+06
-2.46959e+06
-421926
-1.08815e+06
-1.09827e+06
-1.16317e+06
-1.44277e+06
-1.31675e+06
-685947
-896819
-1.39044e+06
-664842
-40597.3
-1.1127e+06
106160
-389819
-263824
-1.36266e+06
-896972
-1.70844e+06
-648692
-810159
-902259
-785839
-2.27226e+06
-1.19807e+06
-1.15729e+06
-719567
-471317
-516535
286754
74705.1
-1.96256e+06
-2.76942e+06
-788831
-2.1101e+06
-950406
255071
-1.55566e+06
-1.91752e+06
-662211
-1.25164e+06
-1.87688e+06
-817090
-184605
-1.17451e+06
-21977.8
124698
-29073.4
-1.81346e+06
-864483
-2.46518e+06
-1.39367e+06
103552
-2.0928e+06
-1.02041e+06
-360810
-200980
113106
557720
-1.26049e+06
-111970
-1.78085e+06
-2.01947e+06
-1.06617e+06
-831885
-1.11344e+06
-792627
-2.83194e+06
-818489
-850490
-1.39614e+06
-1.51054e+06
-1.17011e+06
-702995
-1.57364e+06
-830262
-2.62399e+06
-424998
-467613
-1.26963e+06
-622859
-1.68062e+06
-117952
-421639
-1.29775e+06
-2.50656e+06
70069.7
-23735.5
-2.1901e+06
-1.1103e+06
-2.45608e+06
-232475
-194031
-848789
-1.5916e+06
-1.44962e+06
-926084
-1.16678e+06
-1.9348e+06
336223
-2.44493e+06
-637564
312654
278129
-495084
-949174
-1.76437e+06
-800370
-349408
836819
-630160
846545
-2.09251e+06
-237373
-4626.97
-2.63691e+06
-1.8591e+06
-1.08261e+06
-951271
-1.08711e+06
-2.35064e+06
214630
-1.11824e+06
-2.26624e+06
55917.1
-669679
-1.80198e+06
-1.00599e+06
-1.33608e+06
-695202
-939759
-601926
-2.28153e+06
-507171
-1.71697e+06
-207480
-1.38953e+06
-1.39166e+06
-1.44052e+06
-1.83549e+06
-1.30019e+06
-1.8379e+06
-796610
177033
-829395
-559672
-1.08572e+06
-113936
-1.09544e+06
-973333
-1.69714e+06
-984294
-893361
-807742
-1.16128e+06
-1.71533e+06
-1.92867e+06
-922806
-1.1079e+06
-526556
4274.33
-145767
-2.11326e+06
-14903.4
-112541
-1.49157e+06
-2.3762e+06
-208109
-4896.36
-1.27903e+06
-1.00938e+06
-516509
-99450
-934356
-700065
-630650
-2.12441e+06
-1.71183e+06
-1.12397e+06
-613361
-347954
-167204
-2.00665e+06
-553784
-138559
-1.6447e+06
-2.72447e+06
-47718.4
-945583
156846
-1.29958e+06
-999416
-1.809e+06
-3.16141e+06
-155408
-1.42007e+06
-874106
-1.42164e+06
-381504
109709
181972
-972541
-2.43381e+06
-1.52412e+06
-147402
131433
49945.3
-1.21711e+06
-623751
-631566
-143742
-890939
465245
-2.01174e+06
-375398
-1.44445e+06
-1.04762e+06
-411762
-150703
57256.8
-744637
-2.62671e+06
-2.32711e+06
-1.08364e+06
-1.99264e+06
-1.38241e+06
-647292
-1.5782e+06
-136210
-711613
-1.6507e+06
-1.85476e+06
-1.49511e+06
-775209
-997374
-780714
-836682
317929
-191738
-1.34093e+06
-2.2475e+06
-519828
-1.13043e+06
-771476
-3.26049e+06
-1.92583e+06
-2.12276e+06
-170076
-1.08043e+06
-2.25129e+06
-1.34939e+06
-533640
98781.7
203028
-1.19147e+06
-356637
-560174
598262
-632651
-746560
-1.16852e+06
-567201
-2.67584e+06
-289461
856241
-1.17321e+06
-70723
-352799
-2.16086e+06
-1.56965e+06
-918054
-227171
-1.98308e+06
-1.79593e+06
-689505
-1.28073e+06
-1.08102e+06
-670651
-681811
-863452
-797572
-1.90697e+06
-865416
-1.27869e+06
-1.66794e+06
-941188
-2.06397e+06
-733100
-1.88815e+06
-810735
-1.41637e+06
165604
-212324
-381729
-2.4458e+06
-2.36e+06
-806757
-1.10594e+06
-1.60454e+06
-960631
-673072
-848735
-124234
-1.83078e+06
-1.94626e+06