/*--------------------------------*- C++ -*----------------------------------*\
| =========                 |                                                 |
| \\      /  F ield         | OpenFOAM: The Open Source CFD Toolbox           |
|  \\    /   O peration     | Version:  v2012                                 |
|   \\  /    A nd           | Website:  www.openfoam.com                      |
|    \\/     M anipulation  |                                                 |
\*---------------------------------------------------------------------------*/
FoamFile
{
    version     2.0;
    format      ascii;
    class       volSymmTensorField;
    location    "1";
    object      sigma;
}
// * * * * * * * * * * * * * * * * * * * * * * * * * * * * * * * * * * * * * //

dimensions      [1 -1 -2 0 0 0 0];


internalField   nonuniform List<symmTensor> 
15946
(
(1.30522e+06 -1.26364e+06 47063 193383 29979.9 151846)
(-2.19825e+06 -1.17481e+06 195248 -819728 112290 -537288)
(-4.35521e+06 -294747 -107626 -207502 31296 -632263)
(5.74651e+06 -792382 -117396 -130342 92979.9 509999)
(-5.63984e+06 -883944 -158961 -192872 42767.6 -772134)
(-1.0424e+06 -1.20498e+06 56137.1 -279303 20648.3 -148806)
(4.70995e+06 -221943 757.26 363364 37330.6 741375)
(2.40781e+06 -1.21184e+06 -99848.1 896936 66032.1 583799)
(1.58038e+06 -1.46843e+06 -238186 301371 -33820 528136)
(237477 -1.22639e+06 75097.1 25418.2 -44280.7 42479.1)
(224636 -1.67873e+06 109715 -13950 -69447.7 26816.2)
(57469.2 -1.46114e+06 -22230.6 -204113 -18680.4 -341819)
(136712 -811178 -34973.5 68318.4 20049.2 -346031)
(-4.00701e+06 -240697 -108901 -50605.1 113165 -239516)
(-2.74287e+06 -941337 -63360.3 271096 -30995.4 -4899.75)
(2.1634e+06 -1.16261e+06 -48263.9 215340 11188 305921)
(1.13357e+06 -1.34606e+06 14087.3 -37565.5 -31740.4 31329.9)
(-2.98778e+06 -1.07307e+06 -5716.35 -76516.9 -152689 55800.3)
(-2.56988e+06 -709910 -6657.76 -120153 113488 -71831.3)
(-1.6315e+06 -1.44941e+06 -329910 -528131 -53961.2 -684280)
(692513 -1.46584e+06 229616 284323 -336338 256661)
(911078 -1.33812e+06 319304 586245 326697 412807)
(-506290 -1.35603e+06 319431 -491238 -394636 -335648)
(-121855 -1.3854e+06 272769 -156923 262232 -120023)
(2.85244e+06 -709508 40610.3 144888 -133910 120079)
(3.0516e+06 -1.14783e+06 80529.3 -83950.5 60631.3 -283178)
(4.2433e+06 -210315 19658.9 37358.9 -100833 109096)
(2.99019e+06 -915430 -16749.9 -259426 11956 38640.5)
(-900320 -1.33341e+06 -24608.2 -17333.7 33761.7 -27135.6)
(-1.85444e+06 -1.16535e+06 1141.97 30192 -97353.5 -179505)
(218901 -1.42914e+06 13456.1 185163 50573.6 368981)
(249933 -732790 -68522.4 99653.4 -73286.8 473320)
(1.48212e+06 -1.37448e+06 34163.1 45542 -79049 34694.3)
(2.58472e+06 -1.19053e+06 -11176.2 225815 115347 251191)
(-2.68188e+06 -629985 -48351.9 -378559 -138238 -514904)
(-2.77059e+06 -1.35604e+06 -1473.71 129044 121259 -281837)
(3.03155e+06 -1.37553e+06 33711.7 -7949.08 -325712 315111)
(2.95127e+06 -647701 -30047.6 245482 103543 535421)
(-2.01675e+06 -1.1261e+06 63819.2 -6020.77 -130989 -96205.7)
(-1.1673e+06 -1.34046e+06 24487.4 -38760.4 97433.4 41409.9)
(2.7005e+06 -611363 85195 -418859 30380.1 -95401.4)
(-4.19486e+06 -443953 8539.3 339790 30362.7 -180262)
(-804586 -1.21271e+06 48984.2 282675 -91679.8 92073.6)
(2.17374e+06 -537927 -115968 55648.8 -219370 258799)
(1.08452e+06 -1.20382e+06 41389.6 -299195 115882 -62858.5)
(-1.98769e+06 -638536 194567 -92009 151218 -255484)
(-2.31495e+06 -615431 -9343.24 600509 38916.9 221377)
(4.74261e+06 -438372 -125153 -491865 93748.9 100317)
(2.44666e+06 -1.08663e+06 46378.7 -198316 -133881 -104576)
(5.49206e+06 -826909 -126117 755853 95900.4 699475)
(-1.09042e+06 -935387 -7314.86 -22761.6 -78507.7 -85027.4)
(-2.32643e+06 -1.45223e+06 35162.8 -798557 114108 -568278)
(2.36253e+06 -1.2348e+06 -6066.95 622765 -247371 486119)
(1.391e+06 -876074 36906.1 49999.2 115370 133822)
(-4.71656e+06 -679587 -37699.7 -593142 -159409 -617593)
(-2.17454e+06 -1.03099e+06 -27491.4 192379 117661 140670)
(-2.97014e+06 -884053 -116675 122487 -4410.09 -143645)
(-3.84594e+06 -281697 -159310 -249315 -45876.7 -507188)
(-2.85099e+06 -663420 -72708.4 -267918 138634 -234139)
(-2.81687e+06 -1.18694e+06 -105380 -152517 -261527 -183359)
(2.25602e+06 -1.08912e+06 -50455.4 209957 -183043 710419)
(1.24561e+06 -1.36492e+06 27450.9 57553.6 108287 333780)
(-2.10192e+06 -1.17572e+06 39291.8 -274779 133314 -691653)
(-978446 -1.42154e+06 -51228.9 -86145.9 -118696 -339357)
(270676 -1.52785e+06 36238.3 183773 -76671.2 109969)
(118657 -1.49671e+06 34094.5 -148041 95825.5 -64947.6)
(77609.5 -718508 26768.1 -100996 112787 13945.2)
(96206.9 -693634 28480.5 -23776.5 -130876 -1282.95)
(-1.12369e+06 -998769 115901 -49274.6 46731.5 119880)
(-1.76496e+06 -1.07286e+06 -93831.2 221524 -163001 8740.21)
(-2.79749e+06 -1.24727e+06 166987 -908435 -125809 -357848)
(1.62686e+06 -916513 54840.9 10390.7 -98272.2 -80351.3)
(2.22976e+06 -981427 -33473 -267947 -9958.28 17019.4)
(4.636e+06 -1.07306e+06 -144454 783899 -187024 800123)
(-4.53093e+06 -1.01255e+06 -80224.1 -348574 121403 -709922)
(2.88878e+06 -1.39078e+06 79842.9 942542 37273.3 323550)
(-1.39728e+06 -381388 -67161.9 229867 -181662 403706)
(-3.95805e+06 -505360 -134231 225173 -105008 -365933)
(2.39526e+06 -643349 -45206.9 -453455 -59149.3 11016.4)
(-670425 -1.24017e+06 -56408.5 292039 87833.7 358255)
(2.02613e+06 -563540 -276084 36023.1 122175 -207201)
(1.68069e+06 -968174 50356.8 76440.7 23138.4 103534)
(2.6633e+06 -1.16843e+06 19479.8 443290 -78103.1 340008)
(-2.11287e+06 -977947 -188910 12769.3 -115964 -226804)
(4.38251e+06 -852514 -192311 303656 -289894 813881)
(-4.07863e+06 -986023 -202719 -235078 89367.5 -783485)
(2.27217e+06 -1.0299e+06 -30047.6 -206417 103543 196123)
(-2.38353e+06 -1.20977e+06 57501.8 -811432 -170854 -447864)
(-1.46087e+06 -903808 24487.4 -268541 97433.4 -115595)
(3.15786e+06 -1.23475e+06 -107757 117007 152680 149719)
(3.12126e+06 -678412 9503.31 257839 -141917 202425)
(4.30283e+06 -252763 -115310 302059 59088.1 542767)
(3.19469e+06 -867947 -40866.7 -167165 16738.4 86820.6)
(2.663e+06 -1.09135e+06 -97516.4 -31124.9 -8221.92 197593)
(1.84971e+06 -1.40868e+06 -57295.6 -228797 37619.6 62669.7)
(-327484 -1.47346e+06 250007 21122.3 -54032 418717)
(-160970 -1.22477e+06 214558 93672 18871.5 383038)
(784935 -1.66254e+06 67176.8 -316655 163013 -196095)
(751682 -1.22896e+06 103435 -451955 -286900 -304213)
(-90252.9 -1.32537e+06 -66786.3 -145253 -174519 -288664)
(-140447 -1.57898e+06 -76802.9 -109567 88844.6 -357747)
(634987 -1.2488e+06 183508 -29890.8 -17320.2 -242074)
(552168 -1.4187e+06 243889 -48675 9920.53 -440920)
(-1.57911e+06 -1.38939e+06 -73809.1 107273 -76647.9 -38322.4)
(-2.34993e+06 -1.02309e+06 -56941.8 116091 -12939.3 -159526)
(-343233 -1.52955e+06 54658.6 -139359 118416 -123421)
(-348951 -1.21489e+06 10764.3 -127379 -132232 -159109)
(-1.66868e+06 -1.53424e+06 -94812.6 350197 139640 305990)
(-2.3933e+06 -935917 -70804.1 305122 -157083 73823.2)
(569614 -1.54651e+06 -47098.4 115011 -224254 369400)
(485097 -1.30271e+06 -45059.6 179135 112110 351773)
(2.7803e+06 -991004 -113496 -208185 154156 -61107.3)
(1.95814e+06 -1.54474e+06 -20125.5 -312615 -162577 -318991)
(-536518 -1.66297e+06 75487.5 194911 -252100 217304)
(-622648 -1.20182e+06 79370.8 250915 181992 235843)
(503608 -1.19045e+06 34045.5 29134.5 101309 102655)
(518853 -1.47754e+06 -16100.5 120061 -174390 161024)
(3.24813e+06 -1.38486e+06 97948 447578 -179640 704049)
(2.23503e+06 -1.2196e+06 51628.2 160069 138202 381950)
(-1.33449e+06 -1.70221e+06 -87984.6 -676791 -220563 -396223)
(-1.09444e+06 -1.01893e+06 -78931.7 -532622 159116 -335616)
(1.17299e+06 -1.11183e+06 -22888.1 373564 -125713 230770)
(1.40679e+06 -1.64587e+06 -88136.4 607236 189459 321464)
(-1.76951e+06 -1.31075e+06 -7272.73 -67857.8 -168477 -247608)
(-2.88989e+06 -1.29102e+06 111423 -353376 151431 -625616)
(-6.60808e+06 -1.00685e+06 69857.1 -519412 62236.9 -1.38432e+06)
(3.46769e+06 -350768 33168.6 142549 5077.29 511544)
(-1.71027e+06 -869930 20189.4 -227732 -5638.33 -109631)
(-4.04653e+06 -1.36346e+06 193080 -1.46832e+06 135910 -900525)
(4.31381e+06 -1.41872e+06 -219532 1.57119e+06 53164.6 939655)
(1.97323e+06 -1.29033e+06 196866 94567.7 -37162.7 -152728)
(1.20741e+06 -1.21352e+06 17016.8 4995.77 157376 27141.7)
(992011 -1.32833e+06 89678.6 -6330.15 -249184 -91257.2)
(252776 -1.02225e+06 -51199.2 -306007 179670 -298712)
(210990 -1.65866e+06 -40179.7 -236000 -227691 -222160)
(60698.5 -1.47573e+06 -12978.2 -31729.9 -41534.9 -23430.7)
(143360 -1.23295e+06 -31366.9 107037 -101467 56900.6)
(34478.9 -1.59148e+06 -27296.2 291684 147027 250352)
(-12097.1 -1.03427e+06 -84008.2 396113 -303583 295645)
(-5.67738e+06 -469557 206254 -488028 43993.3 -612271)
(-609914 -1.16594e+06 -9197.98 -143270 -14243.6 -126886)
(2.3316e+06 -1.28607e+06 4.70387e-11 999259 -9.08098e-11 999259)
(4.7311e+06 -255040 30501.9 620835 51379 555209)
(797082 -1.29856e+06 -49822.5 12496.1 -1545.57 56160)
(-4.4036e+06 -314542 -90686.7 -507027 37296.9 -493560)
(-2.27951e+06 -1.04882e+06 321524 -976934 0 -976934)
(5.80573e+06 -458607 177744 277925 92785.7 290945)
(-798364 -1.3208e+06 64660 54217.5 176105 124119)
(-1.00795e+06 -1.23191e+06 -1270.41 -25755 -194438 -10891.4)
(-1.76663e+06 -1.27226e+06 160304 -92350.4 -3763.32 97715.5)
(1.25575e+06 -1.1777e+06 -151310 -85261.4 172172 -72455.4)
(1.49602e+06 -1.55841e+06 -299865 -192075 -297819 -200785)
(-1.54253e+06 -1.45825e+06 -217901 70781.5 272116 69102.3)
(-1.35351e+06 -1.26647e+06 -172029 75048.9 -250594 19688.5)
(1.01425e+06 -1.2024e+06 75504.2 118602 -24020.6 192058)
(-2.54465e+06 -1.3028e+06 1.70094e-11 -1.09057e+06 3.04794e-11 -1.09057e+06)
(-4.40156e+06 -251774 -70806.5 -557607 37157.1 -435633)
(5.96068e+06 -551282 -328581 367521 -34125.9 731907)
(-5.65356e+06 -627016 -384723 -470744 17651.2 -533717)
(-884088 -1.19113e+06 73761.3 -236536 32614.6 -164900)
(2.95436e+06 -1.13725e+06 -356042 1.26616e+06 1.04808e-10 1.26616e+06)
(4.71117e+06 -245853 -19773.3 557509 13673.1 550721)
(333246 -1.5295e+06 85291.4 58967.2 -124249 61903.7)
(1.09533e+06 -754545 371592 580779 25982.2 502832)
(-2.33424e+06 -690391 -472478 319632 6306.01 338459)
(-3.90854e+06 -234548 -134782 9699.34 147233 23857)
(4.09374e+06 -267711 -87534.7 -21094.2 -115727 -103789)
(2.49922e+06 -669184 -442533 -375217 9782.98 -516908)
(-53964.8 -1.42984e+06 137341 3577.53 57265.9 -16404.8)
(-1.27279e+06 -496414 546207 -980420 -344538 -1.16207e+06)
(-112599 -1.57413e+06 -108540 12430.7 -85537.8 -56954.6)
(-1.07992e+06 -669660 -431722 -525286 14575 -481561)
(-2.39581e+06 -579407 385544 265935 12461.2 554546)
(-3.42749e+06 -393132 59801.8 20546.2 -159408 229966)
(1.64649e+06 -764804 28708.6 -500858 5533.29 -227837)
(-1.4356e+06 -716956 13085.7 319370 -75116.4 136901)
(3.89952e+06 -321867 -236504 -181561 -112837 289541)
(-3.51089e+06 -275844 201994 566900 48726.6 -129266)
(3.93597e+06 -393564 103713 28361.9 155836 35190.4)
(2.75726e+06 -595215 380656 -265926 22967.6 -336203)
(398998 -1.50472e+06 -80526.9 -29780.4 76135.5 109477)
(1.71348e+06 -468355 -606041 951356 -316129 1.33044e+06)
(-8.92171e+06 -2.06212e+06 354894 -3.82359e+06 2.19784e-10 -3.82359e+06)
(9.22804e+06 -2.02428e+06 -466458 3.95488e+06 -2.48579e-11 3.95488e+06)
(-2.67543e+06 -304137 -57067.9 -326586 -122752 -274295)
(2.78467e+06 -370077 -11974.7 231098 -59226.4 243504)
(3.87879e+06 -816644 415844 1.21357e+06 -108452 1.52771e+06)
(-3.77608e+06 -772338 -335136 699919 191233 356419)
(2.62004e+06 -324066 -262099 -92955.5 -17121.7 -193074)
(-1.11548e+06 -1.20018e+06 133717 -4289.64 40591.4 -140924)
(538018 -953948 -104934 -320546 4719.12 -233155)
(6.67242e+06 -162029 106154 323740 -98173.8 351671)
(-3.24875e+06 -468382 -113996 -72864.5 99312.6 -180004)
(-3.66868e+06 -986534 -314432 -1.10892e+06 -111979 -1.43328e+06)
(1.56654e+06 -1.07798e+06 -75252.5 -23113.9 30092.3 175175)
(-2.67194e+06 -319800 199319 42226.3 -27318.8 128042)
(4.93721e+06 -694377 105455 -455200 109456 166157)
(1.72659e+06 -825991 75340.8 146870 -16068.7 126163)
(-3.3619e+06 -211191 40050.1 -314946 29868.7 -247944)
(-6.46573e+06 -770333 327231 -461789 120368 -1.07696e+06)
(3.45512e+06 -249431 -63273.6 308942 13007.9 258967)
(-1.29909e+06 -873566 -75528.1 -103110 -12814.8 -103586)
(-4.22595e+06 -1.47387e+06 0 -1.81112e+06 0 -1.81112e+06)
(6.84175e+06 -852265 -276190 397090 147726 1.01344e+06)
(4.52968e+06 -1.44986e+06 -9.6029e-11 1.94129e+06 1.07579e-10 1.94129e+06)
(1.37702e+06 -1.22749e+06 -135812 -239896 -133756 -56419.8)
(3.65407e+06 -823780 272991 -612602 -280624 -685601)
(-2.31884e+06 -341993 -115922 -109234 -63068.5 -25115)
(2.80246e+06 -357813 68681.7 255412 80154.7 239480)
(-2.69906e+06 -302826 52865.4 -377552 13297.9 -355648)
(9.22804e+06 -2.02428e+06 -466458 3.95488e+06 -3.72868e-11 3.95488e+06)
(-8.92171e+06 -2.06212e+06 354894 -3.82359e+06 2.83689e-11 -3.82359e+06)
(-5.88048e+06 -1.09718e+06 -458069 -1.53576e+06 -456091 -1.78779e+06)
(6.11661e+06 -1.06587e+06 402640 1.61141e+06 -505324 1.74393e+06)
(-1.95068e+06 -512358 134780 -40749.8 -106692 2434.34)
(2.32102e+06 -504542 -137010 14142.6 -67406.3 32144.6)
(158394 -1.4143e+06 19063.2 -49170.6 -128970 1943.55)
(179043 -1.32907e+06 6.2544e-12 76732.7 -1.62497e-10 76732.7)
(4.52968e+06 -1.44986e+06 -1.15235e-10 1.94129e+06 1.29095e-10 1.94129e+06)
(-4.22595e+06 -1.47387e+06 -8.95901e-11 -1.81112e+06 -1.09361e-10 -1.81112e+06)
(-1.57233e+06 -410811 57831.3 -173243 58338.2 -150768)
(2.6702e+06 -574516 -43201 -175350 93945.3 -84776.1)
(-7.62539e+06 -762267 72499.7 -961081 112089 -1.70178e+06)
(-2.43376e+06 -600067 -1610.44 265664 130890 176394)
(7.9663e+06 -730389 -158925 776270 204874 1.47381e+06)
(1.93359e+06 -412473 -40781.8 131414 75433.4 115924)
(-4.23363e+06 -446044 -38292.2 216038 330659 -11770.6)
(-4.02633e+06 -554834 -171048 135690 -292712 -74356.3)
(4.41893e+06 -509538 -21968.2 -101554 301143 141102)
(4.46217e+06 -511841 63374.5 -222595 -299386 35874)
(66522.8 -1.32269e+06 50085.6 -98962.1 93240.6 -11020.4)
(100216 -1.1549e+06 12083.5 42949.7 1.3118e-10 42949.7)
(2.22282e+06 -562863 206919 -74562.9 86218.1 66820.2)
(-1.95339e+06 -538321 -149528 -52803.8 -7152.28 -127303)
(6.56625e+06 -1.10409e+06 -1.15317e+06 1.85077e+06 391466 2.38215e+06)
(-6.08961e+06 -1.06021e+06 1.0718e+06 -1.38286e+06 509705 -2.01358e+06)
(1.95494e+06 -512107 116892 168767 -94396.3 258120)
(7.88679e+06 -763771 -774149 1.23726e+06 -253421 1.73231e+06)
(2.63156e+06 -663297 83278.2 -240452 -94356.3 -85068.6)
(-7.89368e+06 -544238 583458 -1.0207e+06 -148786 -1.45995e+06)
(-2.19769e+06 -613357 -94000.6 100100 -161909 91225)
(-1.56651e+06 -459977 -9786.02 -105111 -99922.6 -76457.4)
(5.03143e+06 -1.38293e+06 -570315 2.15633e+06 -9.90176e-11 2.15633e+06)
(-4.7301e+06 -1.25589e+06 520650 -2.02719e+06 3.72749e-11 -2.02719e+06)
(2.3316e+06 -1.28607e+06 -2.93992e-11 999259 5.67561e-11 999259)
(4.05971e+06 -532858 72113.5 39341.4 121376 278515)
(-5.97917e+06 -295251 119433 -51636.1 246275 -529977)
(-732917 -1.09018e+06 24629.7 -2451.47 79769.3 -25603.4)
(1.11346e+06 -1.14942e+06 36698.5 48631.4 -52307.4 107765)
(-3.81821e+06 -544503 -27217.6 374.8 -39138.8 -202516)
(6.21618e+06 -349206 96105.5 -28748.1 -92683.3 245313)
(-2.27951e+06 -1.04882e+06 321524 -976934 4.41462e-11 -976934)
(-2.54465e+06 -1.3028e+06 -3.18926e-11 -1.09057e+06 -5.71488e-11 -1.09057e+06)
(-3.85318e+06 -498756 -74708.5 -68182.1 84192 -259453)
(1.33519e+06 -1.02913e+06 5103.05 102645 84444.1 143498)
(6.39384e+06 -389794 -201347 -18659.8 162341 734108)
(-5.81149e+06 -407416 -329519 77630.6 -210003 -353294)
(4.10192e+06 -518781 -65569.3 -32081.2 -79573 256694)
(-963454 -1.1346e+06 44745.4 -43654.2 -66831.6 -38515.4)
(2.95436e+06 -1.13725e+06 -356042 1.26616e+06 1.40492e-10 1.26616e+06)
(-4.7301e+06 -1.25589e+06 520650 -2.02719e+06 4.36441e-11 -2.02719e+06)
(-4.16868e+06 -545316 950549 -1.33316e+06 -52691.5 -1.99625e+06)
(-3.22973e+06 -410307 -160392 60778.3 106127 -271478)
(-2.31507e+06 -379449 -111750 49034 -87880.2 -208039)
(1.54054e+06 -904011 122009 69694.3 62606.8 89425.7)
(1.95886e+06 -1.14459e+06 39691.6 -22457.1 -101886 9394.75)
(6.85953e+06 -742360 -394385 480652 120361 1.04036e+06)
(4.27329e+06 -1.12293e+06 -163920 -259645 -105416 378246)
(4.50631e+06 -774460 -922013 1.38707e+06 -40965.2 2.13574e+06)
(5.03143e+06 -1.38293e+06 -570315 2.15633e+06 1.06209e-10 2.15633e+06)
(2.92948e+06 -381567 239973 -32101.1 47197.1 -137040)
(3.40725e+06 -314852 86355.9 244174 559.104 229075)
(-4.06653e+06 -698862 165682 548713 -227359 563950)
(-6.20236e+06 -763772 -188660 -275947 -165849 -154672)
(-1.18117e+06 -1.15979e+06 -65264.2 75922.3 -56670.6 -156335)
(-1.37229e+06 -860166 116387 -123785 -4665.9 -102597)
(1.58931e+06 -201629 -3424.38 -199915 -73635.7 -112126)
(1.41922e+06 -235701 -49544.2 -134036 -1701.97 -62438.6)
(947575 -609298 11291.9 -302329 -17049.9 -157589)
(1.20612e+06 5338.36 9630.23 -87078 -60715.1 -140361)
(1.45784e+06 -1.26189e+06 2903.07 -64204.5 6554.42 38018.3)
(2.06683e+06 -887394 63455.3 -145751 -54323.6 1752.02)
(1.58367e+06 -209463 -3355.14 -145906 -46463.9 -70707.5)
(1.94025e+06 39197.4 66067.1 -90384.8 -133832 -287168)
(1.23618e+06 -359761 -13478.9 -25550.1 -15855.6 9894.56)
(1.54074e+06 605906 -18460 -474085 -111373 -298337)
(950355 -600175 -10699.5 -290748 -23409.6 -132996)
(1.49915e+06 -575387 -76882.1 -244134 -41241.8 -120405)
(617529 140195 -132781 -113112 -29420.5 -442977)
(1.49369e+06 -851709 16992.5 -257063 -33931.8 -75611)
(1.5179e+06 -217092 -39467.8 -108028 -8172.71 -30341)
(619629 161645 -164622 -165594 -105192 -523434)
(2.45692e+06 370366 -160131 -258576 -190520 -158141)
(1.92178e+06 29668.4 -32870.2 -310940 -25618.1 -293422)
(1.40276e+06 -1.09799e+06 -123711 -68900.4 -5850.86 37998.3)
(1.26605e+06 -6798.71 -6482.06 -8647.53 -26096.2 -27635.6)
(1.34474e+06 -231594 -22504.6 -65217.4 10445.2 -74281.4)
(725258 -723899 81039.1 -6438.17 15213.3 116977)
(2.36597e+06 -644465 -5884.19 -511691 -4885.25 -72732.3)
(2.73625e+06 153841 -54480.4 138091 -81426.1 47314.5)
(2.11814e+06 -227918 -439368 -348154 535.248 -144732)
(1.27379e+06 -223025 -52065.1 -155085 -25405.8 -14241.5)
(1.60553e+06 299088 -146866 -242039 -114106 -287440)
(1.12179e+06 -21396.8 16230 -27429.6 -2627.62 31751.5)
(1.93092e+06 102905 -27036.4 -186981 -96236.9 -240833)
(3.02152e+06 -519083 -155423 69978.1 -28188.4 173451)
(1.02338e+06 -722874 -92927.8 -273270 -15342.9 -106828)
(1.08366e+06 -667823 17684.7 -157423 -39670.6 -48420.3)
(1.03892e+06 10868.6 2043.21 -79995.8 -17735 -169215)
(543595 -770752 16761.1 -131912 -23380.1 -48333.3)
(401975 -712170 -25074.1 -213908 -22711.5 -92434.7)
(1.62511e+06 -205853 27200 -112173 -2889.92 9665.71)
(1.86784e+06 -502268 1875.07 -243901 -63946.3 -59223.3)
(1.752e+06 -213727 -22453.2 -271133 -27858.7 -108207)
(1.62051e+06 -1.10246e+06 -78334.4 -63398.7 44662.1 15187.3)
(1.42528e+06 -848113 -37665.1 -5917.88 -9805.86 116598)
(1.58763e+06 -838622 5753.4 -304333 -8165.73 -76063.9)
(1.13342e+06 -680761 -66064.3 -124071 34355.2 349.158)
(1.83225e+06 -185766 -120329 -171084 8744.06 -111892)
(1.48819e+06 -590256 -249226 -212252 -2077.69 -36068.5)
(1.82641e+06 -157112 -52710.5 -448421 -29776.3 -341334)
(2.78618e+06 -764473 -25361.6 -192278 -61284.2 53214.4)
(1.25482e+06 302425 -26919.4 -147149 -28105.2 -378274)
(984164 23707.5 -1783.58 30287.6 40431 -101351)
(1.92909e+06 -688305 5299.93 -174677 8386.98 -16047.6)
(1.27245e+06 363459 -168428 65261.9 -27929.1 -342152)
(1.36268e+06 -584358 26255.4 49251 -21067.5 203745)
(1.10859e+06 109680 -10690 -41254.7 -35805.6 -389757)
(2.16686e+06 -392870 43866.7 -228336 11056.7 -198462)
(232797 -1.44318e+06 -24693.4 -80417.1 -11673 19245.2)
(187054 -1.43427e+06 -7486.47 -98294.3 334.37 14064)
(1.39806e+06 -618196 -167107 58389.1 -21682.1 197799)
(533992 -1.39844e+06 -8994.73 -116644 6900.28 23069.2)
(970196 115152 -96128.8 -60331.3 -21152.6 -237556)
(453192 -1.47965e+06 16625.6 -132785 -25660.8 -8836.09)
(1.15543e+06 -1.15548e+06 44865.6 -122283 20975.8 73471.5)
(1.17537e+06 -213960 -24378.7 -100255 -8708.29 -31948.6)
(1.36612e+06 225573 15760.2 -404116 -78682.5 -588396)
(3.7603e+06 -230559 -272107 177840 -120799 254663)
(1.71675e+06 -1.09966e+06 22900.8 -46297.6 -13299.1 81831.8)
(1.26658e+06 -987741 -82033.2 -161967 16782 -108350)
(659952 -1.10633e+06 53892.4 -210816 -12686.3 -87122.8)
(1.53102e+06 -181641 -22766.8 -275197 -43779.8 -194776)
(553188 -730040 -183264 -39651.8 -117634 80916.1)
(2.42598e+06 137516 -114089 36790.9 -108760 41934.7)
(1.76206e+06 -582378 -6207.47 -124297 2045.26 -18479.2)
(1.85043e+06 294810 -114276 -111182 -30829.5 -414664)
(561156 -1.38942e+06 -14319.8 -73494.8 -5028.96 53397.5)
(1.5298e+06 -763632 -94962.4 -473500 -24358.8 -248582)
(2.46806e+06 355348 -166296 -238249 -263910 -126914)
(925528 67538.4 -28162.9 -35371.4 -2983.72 -273079)
(1.24441e+06 -2766.06 -27377 -20159.3 -5524.76 -172909)
(1.0606e+06 -242921 21028.5 -186605 16709 -120178)
(591507 -600979 -9767.93 27701.4 27369.9 35030.8)
(1.13296e+06 23001.8 40321 -53596.1 8457.03 -32760.5)
(1.0462e+06 -1.34264e+06 -99306.1 -20188.7 11832.6 120353)
(1.69999e+06 310611 -71509.5 -200173 -63995.1 -501099)
(1.14342e+06 -1.24617e+06 56138.1 -193781 -1673.64 -114335)
(1.52314e+06 -632501 -12567.3 -295766 -27249.8 -120404)
(1.44095e+06 507479 -91723.6 -140919 -25767.9 -470462)
(1.3199e+06 -1.0227e+06 48852 -343124 -18729.6 -103152)
(1.0139e+06 -1.1973e+06 -2826.74 -219254 -19243.4 -43950.4)
(1.34895e+06 278018 11151.2 -111478 -24231 -356217)
(1.73294e+06 -577756 10420 -143319 -7631.49 -47358.3)
(1.23051e+06 -1.1576e+06 -92324.5 -113174 26476.4 28472.1)
(1.23443e+06 -59813.8 6365.01 -6027.09 -15148.1 24695.7)
(1.11402e+06 -1002.09 -37814.7 -89397.6 -18931.6 -180818)
(1.38159e+06 -1.21288e+06 -28865.6 -80824.3 -4173.14 89970.9)
(2.25643e+06 77043.2 -17435.3 -194845 -26674.1 -267223)
(1.13303e+06 -23176.8 10541.1 -70727 -23446.1 4054.71)
(2.19235e+06 -450672 -112154 -280235 -26596.4 -129010)
(1.42382e+06 513632 -83004.7 -195842 -55348.9 -583484)
(1.80812e+06 -730509 -37754.9 -282468 -37703 -148446)
(903999 232719 126588 -5044.7 17877.4 -412220)
(1.77669e+06 -1.1683e+06 -23450.9 65236.4 10084.6 104259)
(1.29172e+06 150435 57762.3 -86168.3 8766.99 -50812.9)
(1.17327e+06 138840 -75388.8 -33222.2 -82434.9 -255007)
(1.82133e+06 116391 15881.3 -344909 -21285.7 -329622)
(3.00862e+06 -388929 -116305 -148106 -113612 -63360.3)
(767520 -1.04505e+06 44953 61599.4 8623.39 169314)
(2.05244e+06 -615288 -45628.3 -10287.8 5715.74 113613)
(1.80783e+06 -199585 -120545 -279423 -41523.9 -203683)
(1.45517e+06 -338083 -34948.5 -316812 -20577.5 -208346)
(-209994 -1.34439e+06 8425.76 -31123.7 53035.3 -9905.74)
(580448 -1.00164e+06 -55603.7 -34980.9 -6890.8 107024)
(1.0758e+06 58298.5 28030.7 8497 -58468.1 -6549.29)
(2.40429e+06 193738 -179799 -226732 -194205 -115677)
(1.50748e+06 -206570 -89780.7 -159430 -16006.1 -201839)
(951676 -44909.7 -4637.98 -62424.1 -13043 -119315)
(1.14426e+06 10337.7 26873.2 -39658.8 10921.4 42635.4)
(367085 -1.44863e+06 -7879.15 -169289 7344.84 -29581.3)
(1.2468e+06 226466 95388.6 -403892 -29475.8 -567062)
(883946 -7482.12 -4980.94 -123798 -7759.31 -156827)
(2.1411e+06 308749 -294402 -339820 -93192.4 38323.7)
(1.03818e+06 -826886 -30944.1 -79464.3 -57126.1 30505.7)
(3.53126e+06 -404744 -106743 220858 -64106.4 184886)
(1.50271e+06 -886115 -673.754 -147910 15051.2 -7290.26)
(1.21311e+06 212045 -110352 137942 -17882.9 -190496)
(1.40006e+06 529440 -82367.2 -193749 -33910.5 -576597)
(991292 -45663.7 -22595.4 -43966.1 -15263 -80661.6)
(1.55593e+06 -1.01848e+06 24949.5 -83563.5 -45155.4 36925.6)
(2.24605e+06 -606970 -60427.7 -503210 -42886.4 -27062.2)
(2.08601e+06 -65361.8 -164277 -513832 -94755.1 -376227)
(2.17491e+06 -430414 43612.5 -273943 69091.2 -64140.6)
(929926 147003 -87760.3 -135522 -82574.4 -351076)
(1.28503e+06 299675 -11207.4 -117602 -38625.9 -319740)
(1.23501e+06 -306507 -15494.5 -312762 -13974.1 -255205)
(1.22143e+06 284155 -6700.09 -191418 -51296.7 -456054)
(2.43471e+06 -122166 -175776 -162827 -43163 -13481.9)
(2.59917e+06 -129389 -9957.07 -523050 -179340 -271329)
(2.45911e+06 -168181 -111811 -413562 -71613.2 -99678.9)
(753990 -716684 24721.6 -82993.1 -20462.3 67436.9)
(2.35538e+06 150759 -133933 -6500.25 -85514.1 -148060)
(1.25584e+06 20392.4 25333.7 -35405.9 13117.4 12305)
(2.16027e+06 -411553 37547.3 280.056 -40934.4 217409)
(871251 -1.12878e+06 -90852.4 -139360 -17825.4 -57722.4)
(1.73657e+06 -573735 -6309.47 -57915.5 -14010.1 114612)
(1.00906e+06 -1.03191e+06 -101601 -266437 -13065.2 -139703)
(1.14967e+06 -11145.6 -10002.4 -53821.9 -23687.3 -62672.8)
(919397 133533 -116793 -24587 -5924.51 -401040)
(1.47587e+06 -275718 -13325.5 -244801 -1067.68 -169374)
(2.14964e+06 -991761 -102400 95349.4 -360.407 195436)
(927685 -769802 62108.6 6530.93 -20479.2 119869)
(-211271 -1.46385e+06 -9485.66 15507.9 -13276.9 3700.82)
(356192 -1.40612e+06 -2033.85 -169920 -22047.3 2006.09)
(1.60022e+06 -1.15814e+06 44967.6 5206.08 -2618.45 81913)
(1.8256e+06 385556 -150094 98011.1 -75547.2 -189895)
(1.14694e+06 -31060.8 53931.3 -34574.1 -13475.9 -28778.2)
(2.33552e+06 -345630 -21016 -91834.9 -28135.4 -38864.6)
(-280488 -885404 -64555 -90787.3 -24432.5 40958.2)
(-280261 -885335 81198.6 -91280 55702.1 39560.3)
(1.3001e+06 28252.1 -15401.9 -13281 -24872.8 -31421.7)
(1.25235e+06 -14578.5 1952.5 22377 26226.2 33946.4)
(1.25781e+06 90931.9 59763.2 -183505 -56522.7 -93917)
(999507 -427722 73364.9 -109796 -29138.4 -18837.7)
(488608 -441078 -49827.5 -139812 28952 -59284.4)
(2.82157e+06 142313 -217200 163346 -147000 121002)
(1.47168e+06 85953.3 -46537.5 -35457.4 -35987.6 -20280.1)
(1.72186e+06 289463 -57398.5 -135247 -11158.7 -377749)
(1.17419e+06 -96088.6 -38979.6 17739.3 -2824 -28718.4)
(-30965.5 -721959 58030.4 -156709 -5110.87 -151911)
(361235 -1.38778e+06 22028.3 -135241 20850.7 -23602.7)
(591961 -240800 39178 -1985.82 34022.6 635.421)
(2.19125e+06 -182771 -125864 -388449 -76865.5 -248095)
(1.61735e+06 51151.4 -237.927 -402997 -11110.1 -301642)
(-174323 -662988 -28338.1 -39703.7 -5199.35 -12428.6)
(443484 -1.44644e+06 -12716.1 -221719 -8291.27 -30571.1)
(1.20809e+06 -193345 -26731.5 -159406 -33385.9 -33170)
(1.21053e+06 -117373 6772.85 48823.1 -13246.3 10752.6)
(1.29308e+06 342100 -124665 87659.8 -128642 -306581)
(135269 -1.3786e+06 40798.7 94231.3 37084.9 131280)
(1.26996e+06 176022 -59829.7 130706 -39799.1 -152714)
(895361 72341.2 16845.7 -2999.39 -10614 -150942)
(2.2622e+06 141976 -141173 -355182 -101681 -96674.3)
(1.45796e+06 97527.8 26996.6 14216.2 16677.1 30923.9)
(1.92132e+06 -487538 -68598.2 -387808 -13488 -301105)
(1.83584e+06 99674.8 20254.1 -104300 -27316.3 -253086)
(989699 -202976 37159.8 73766.6 9069.46 131954)
(1.31984e+06 -825774 155311 -38945.1 33323.3 53419.5)
(1.47428e+06 -282989 22957.1 -237625 -7386.39 -153248)
(319992 -1.39688e+06 -28816.2 -69139.1 32816.1 53691.5)
(338127 -1.39689e+06 68507.4 -51036.6 -8502.44 95880.4)
(2.29231e+06 65282.3 -50082.4 -135804 -13096.5 -107136)
(2.40191e+06 -28381 -102897 -90155.4 -13957 -61535.1)
(1.20288e+06 3779.1 26902.1 -48999.5 -10039.7 -16210.5)
(1.16557e+06 106555 -31867 33132.7 -24552.8 -203408)
(1.38751e+06 -1.35619e+06 -47156.4 418.647 -14862 95535.8)
(603922 -217516 40794.7 -91304.3 9848.68 -33027.9)
(465598 -1.41298e+06 -22918.9 -144348 -4745.67 5612.26)
(1.59211e+06 -602509 -40339.7 -139378 -81974.6 -7217.71)
(2.17492e+06 -167905 54856.1 -165930 -28871.5 -177322)
(939330 -38216.3 -17297.1 -73106.3 -9447.42 -130650)
(1.77059e+06 -51783.1 -330842 -299721 51494 -277372)
(1.67183e+06 -569518 -10992.7 9685.64 -16863.6 151868)
(1.11169e+06 -802864 -15981.4 41216.4 -14212.6 128408)
(3.30749e+06 -295316 -195345 99703.2 -56435.3 262187)
(1.98187e+06 -97223.8 -22229.1 -299345 15766.9 54260.1)
(1.73843e+06 285413 -48262 -111723 -21186.6 -333226)
(2.05518e+06 -360227 4878.8 -172366 -1478 -115911)
(573966 -1.35825e+06 -4731.18 -90792.9 -292.413 -43459.3)
(2.03572e+06 -710584 -18477.9 -242383 -8567.94 -26451.1)
(1.3031e+06 207236 -120606 -425582 -99131.6 -621044)
(929396 -248810 -5474.12 -164615 -24750.6 -117057)
(3.07658e+06 -397179 -124545 -60562.8 -158857 127127)
(1.41333e+06 -299122 57140.5 -449094 -41468.7 -275302)
(1.34391e+06 -151708 -11734.8 -13821.5 4797.21 -47651.2)
(906608 274888 -54100.7 -18899.4 -15513.8 -593983)
(1.07449e+06 -131288 8477.6 -27905 -3787.92 5901.55)
(1.88402e+06 419775 48650.9 23207 -30996.3 -225084)
(1.98552e+06 599974 -382179 122311 -78200.7 -165556)
(1.87363e+06 -659388 234119 -495014 -171347 -442741)
(1.04439e+06 -105532 -11581.8 -5578.26 -16396.4 11929.4)
(1.72544e+06 276286 39208.5 -193628 -9036.74 -426157)
(1.40645e+06 221987 -122988 -62024.5 -13323.7 -274094)
(1.28275e+06 229604 -70753.3 -126850 -24159.7 -359958)
(817196 -677748 28102.4 -195576 16549.4 -7875.51)
(1.81073e+06 60935.1 13574.6 -44203.2 -85326.5 -93842.8)
(1.04117e+06 44003 -39843.9 -958.325 -32365.6 -101691)
(945032 55434 -28474.9 -11882.5 -21309.3 -209043)
(1.34083e+06 336467 -108730 -2505.37 -160380 -153381)
(2.78721e+06 -650726 -158585 -101711 -84014.1 3409.24)
(-148080 -1.4141e+06 -8656.37 264135 -16951.6 97246.3)
(375718 -752576 90670.7 -288903 -34747 -240601)
(1.66544e+06 -219955 -278602 -710160 79629.3 -495054)
(2.06419e+06 -723865 -138109 -146471 -3405.98 -48174.7)
(997503 201946 -21649.4 -180495 -78093 -181807)
(1.13378e+06 107489 -30603.7 -13784.3 -1555.21 -267155)
(958588 73910.2 -103264 2325.64 -28655.7 -269513)
(1.66717e+06 69106.3 -241034 -266792 -106217 -292355)
(2.28832e+06 -849279 -96370.1 -182763 -18057.9 -118267)
(2.36224e+06 -306454 -81916.2 22915.1 -8220.96 78482.5)
(1.19379e+06 274018 -68589.3 -56656.5 -85689.4 -102398)
(1.36827e+06 51038.1 19493.4 -168619 -65361.2 -55012.6)
(1.52245e+06 524683 -205388 -70514.7 -139507 -256055)
(2.57089e+06 373147 -86796.6 136024 -95057.7 -70857.2)
(2.38763e+06 -205166 -32013.3 -8782.1 -31557.8 132131)
(1.72334e+06 -267905 -8385.59 -309667 -5112.44 -75756.2)
(1.28881e+06 -5388.88 -47487.6 41388.9 -7695.61 -10466.1)
(1.41445e+06 -123777 18538.6 -34531.1 -21966 17651.2)
(2.1224e+06 -541530 13200.7 -225644 -85892.8 -41085.7)
(496216 -633714 -8435.41 -322418 -22902.2 -170207)
(1.60303e+06 -573461 -5682.3 -141456 -13934.2 -61686.4)