/*--------------------------------*- C++ -*----------------------------------*\
| =========                 |                                                 |
| \\      /  F ield         | OpenFOAM: The Open Source CFD Toolbox           |
|  \\    /   O peration     | Version:  v2012                                 |
|   \\  /    A nd           | Website:  www.openfoam.com                      |
|    \\/     M anipulation  |                                                 |
\*---------------------------------------------------------------------------*/
FoamFile
{
    version     2.0;
    format      ascii;
    class       volScalarField;
    location    "1";
    object      epsilonEq;
}
// * * * * * * * * * * * * * * * * * * * * * * * * * * * * * * * * * * * * * //

dimensions      [0 0 0 0 0 0 0];


internalField   nonuniform List<scalar> 
32000
(
0.000625719
0.000622487
0.000601011
0.000599141
0.00057523
0.000573948
0.000550723
0.000549885
0.000528217
0.000527641
0.000507493
0.000507069
0.000488268
0.000487963
0.000470374
0.000470185
0.000453705
0.000453631
0.000438171
0.000438204
0.000423685
0.000423814
0.000410164
0.000410381
0.000397534
0.00039783
0.000385726
0.000386093
0.000374678
0.000375108
0.000364332
0.000364819
0.000354635
0.000355172
0.000345539
0.000346121
0.000336999
0.000337622
0.000328974
0.000329633
0.000321427
0.000322117
0.000314322
0.000315039
0.000307626
0.000308369
0.000301311
0.000302075
0.000295349
0.000296131
0.000289713
0.000290511
0.00028438
0.000285192
0.000279328
0.000280152
0.000274537
0.00027537
0.000269986
0.000270828
0.000265658
0.000266506
0.000261537
0.00026239
0.000257606
0.000258462
0.00025385
0.000254709
0.000250252
0.000251115
0.000246794
0.000247667
0.000243458
0.000244346
0.000240224
0.000241114
0.000237066
0.000237883
0.000233945
0.000234408
0.000625548
0.000621498
0.000601227
0.000597447
0.000575402
0.000572181
0.000550769
0.000548237
0.000528118
0.000526111
0.000507279
0.000505633
0.000487981
0.00048661
0.000470044
0.000468914
0.000453351
0.00045244
0.000437801
0.000437094
0.000423304
0.000422785
0.000409777
0.000409431
0.000397143
0.000396956
0.000385334
0.000385293
0.000374287
0.000374379
0.000363942
0.000364158
0.000354249
0.000354576
0.000345157
0.000345588
0.000336621
0.000337147
0.000328602
0.000329214
0.000321059
0.000321752
0.00031396
0.000314726
0.00030727
0.000308103
0.00030096
0.000301855
0.000295003
0.000295955
0.000289372
0.000290376
0.000284043
0.000285095
0.000278995
0.00028009
0.000274206
0.000275341
0.000269657
0.000270828
0.00026533
0.000266534
0.000261207
0.000262441
0.000257272
0.000258533
0.000253511
0.000254794
0.00024991
0.000251209
0.000246459
0.000247764
0.000243151
0.000244444
0.000239962
0.000241211
0.000236818
0.000237979
0.000233578
0.000234502
0.000623495
0.000619475
0.000599393
0.000595313
0.000573815
0.000570135
0.000549402
0.000546363
0.000526875
0.000524406
0.000506102
0.00050408
0.000486852
0.000485194
0.000468966
0.000467625
0.00045233
0.000451271
0.000436842
0.00043604
0.000422409
0.000421843
0.000408948
0.000408598
0.000396381
0.000396228
0.000384638
0.000384667
0.000373655
0.000373853
0.000363376
0.000363727
0.000353745
0.000354239
0.000344715
0.000345339
0.000336241
0.000336985
0.00032828
0.000329135
0.000320795
0.000321752
0.00031375
0.000314802
0.000307114
0.000308252
0.000300856
0.000302074
0.000294947
0.00029624
0.000289363
0.000290724
0.00028408
0.000285504
0.000279074
0.000280556
0.000274325
0.000275861
0.000269814
0.0002714
0.000265522
0.000267153
0.000261432
0.000263106
0.000257528
0.000259242
0.000253796
0.000255546
0.00025022
0.000252004
0.000246788
0.000248605
0.000243486
0.000245331
0.000240283
0.000242138
0.000237103
0.000238944
0.000233844
0.000235552
0.000620802
0.000616366
0.000596671
0.000592286
0.00057121
0.000567295
0.000547025
0.000543753
0.000524729
0.000522024
0.000504152
0.000501913
0.000485068
0.000483228
0.000467331
0.000465847
0.000450832
0.000449672
0.000435476
0.000434612
0.000421172
0.000420577
0.000407836
0.000407489
0.000395392
0.000395271
0.000383769
0.000383856
0.000372905
0.000373182
0.000362739
0.000363193
0.00035322
0.000353836
0.000344298
0.000345063
0.000335928
0.000336831
0.000328068
0.000329098
0.000320681
0.000321828
0.000313732
0.000314986
0.000307187
0.00030854
0.000301016
0.000302462
0.000295192
0.000296723
0.00028969
0.000291298
0.000284484
0.000286164
0.000279552
0.0002813
0.000274875
0.000276684
0.000270432
0.000272299
0.000266206
0.000268125
0.000262179
0.000264148
0.000258337
0.000260351
0.000254664
0.00025672
0.000251148
0.000253243
0.000247778
0.000249906
0.00024454
0.00024669
0.0002414
0.000243553
0.000238279
0.000240415
0.000235058
0.000237091
0.000617135
0.000612235
0.000593088
0.000588309
0.000567774
0.000563562
0.00054381
0.0005403
0.000521763
0.000518851
0.000501431
0.000499008
0.00048258
0.000480581
0.00046506
0.000463446
0.000448766
0.000447507
0.000433604
0.000432671
0.000419487
0.000418853
0.000406331
0.000405972
0.000394061
0.000393953
0.000382607
0.000382731
0.000371905
0.000372243
0.000361899
0.000362432
0.000352533
0.000353247
0.00034376
0.00034464
0.000335533
0.000336567
0.000327813
0.000328987
0.000320559
0.000321864
0.000313739
0.000315163
0.000307318
0.000308853
0.000301267
0.000302903
0.000295558
0.000297288
0.000290165
0.000291982
0.000285065
0.000286961
0.000280235
0.000282205
0.000275655
0.000277692
0.000271305
0.000273405
0.000267169
0.000269326
0.000263228
0.000265438
0.000259468
0.000261728
0.000255875
0.000258179
0.000252434
0.00025478
0.000249136
0.000251518
0.000245964
0.000248372
0.000242883
0.000245301
0.000239813
0.000242229
0.000236641
0.000238984
0.000612475
0.00060713
0.000588592
0.000583419
0.00056349
0.000558971
0.000539793
0.000536037
0.000518029
0.000514916
0.000497982
0.000495392
0.000479407
0.000477272
0.000462155
0.000460435
0.000446119
0.000444782
0.000431205
0.000430222
0.000417327
0.000416669
0.000404401
0.000404043
0.000392354
0.000392272
0.000381115
0.000381286
0.000370621
0.000371026
0.000360816
0.000361435
0.000351644
0.000352462
0.000343059
0.000344058
0.000335013
0.00033618
0.000327467
0.000328788
0.000320383
0.000321844
0.000313724
0.000315315
0.000307458
0.00030917
0.000301557
0.000303378
0.000295991
0.000297914
0.000290736
0.000292752
0.000285767
0.000287869
0.000281064
0.000283243
0.000276604
0.000278856
0.000272369
0.000274688
0.000268343
0.000270722
0.000264507
0.000266943
0.000260847
0.000263335
0.000257349
0.000259884
0.000253999
0.000256577
0.000250786
0.000253402
0.000247694
0.000250339
0.000244688
0.000247347
0.000241687
0.000244356
0.000238581
0.000241204
0.000606845
0.000601078
0.000583192
0.000577642
0.000558369
0.000553551
0.000534995
0.000530998
0.000513564
0.000510255
0.000493845
0.000491098
0.000475592
0.000473335
0.000458654
0.000456843
0.000442923
0.000441524
0.000428305
0.000427287
0.000414713
0.000414046
0.000402065
0.000401721
0.000390285
0.000390239
0.000379305
0.000379532
0.000369061
0.000369541
0.000359497
0.000360209
0.000350559
0.000351483
0.000342198
0.000343318
0.00033437
0.000335669
0.000327032
0.000328497
0.000320148
0.000321764
0.000313682
0.000315437
0.000307602
0.000309484
0.000301878
0.000303877
0.000296482
0.000298588
0.000291389
0.000293594
0.000286577
0.00028887
0.000282021
0.000284397
0.000277704
0.000280155
0.000273605
0.000276125
0.000269707
0.00027229
0.000265994
0.000268634
0.000262451
0.000265144
0.000259064
0.000261804
0.000255819
0.000258603
0.000252705
0.000255528
0.000249707
0.00025256
0.00024679
0.00024966
0.000243874
0.000246763
0.000240849
0.000243715
0.000600273
0.000594103
0.000576905
0.000570998
0.000552424
0.000547322
0.000529432
0.000525205
0.000508387
0.000504892
0.000489046
0.000486152
0.000471162
0.000468793
0.000454584
0.000452693
0.000439203
0.000437754
0.000424927
0.000423884
0.000411665
0.000410998
0.000399337
0.000399016
0.000387867
0.000387864
0.000377186
0.000377476
0.000367233
0.000367791
0.000357948
0.000358753
0.00034928
0.000350311
0.000341178
0.000342418
0.0003336
0.00033503
0.000326503
0.000328107
0.00031985
0.000321613
0.000313605
0.000315515
0.000307737
0.00030978
0.000302216
0.000304381
0.000297015
0.000299291
0.000292108
0.000294486
0.000287473
0.000289942
0.000283087
0.00028564
0.00027893
0.00028156
0.000274985
0.000277684
0.000271233
0.000273995
0.000267659
0.000270478
0.000264247
0.000267119
0.000260985
0.000263903
0.000257859
0.000260819
0.000254857
0.000257855
0.000251965
0.000254991
0.000249148
0.000252193
0.000246329
0.0002494
0.000243397
0.000246466
0.000592787
0.000586231
0.000569757
0.000563511
0.000545677
0.000540307
0.000523123
0.00051868
0.000502515
0.000498847
0.000483602
0.000480572
0.000466135
0.000463664
0.000449963
0.000448001
0.000434977
0.000433485
0.000421085
0.000420026
0.000408196
0.000407536
0.000396229
0.000395936
0.000385108
0.000385153
0.000374766
0.00037512
0.000365139
0.000365777
0.00035617
0.000357068
0.000347805
0.000348941
0.000339996
0.00034135
0.000332698
0.000334252
0.00032587
0.000327607
0.000319476
0.000321378
0.000313479
0.000315532
0.000307848
0.000310039
0.000302554
0.00030487
0.000297569
0.000299998
0.000292869
0.000295401
0.00028843
0.000291055
0.000284231
0.000286941
0.000280253
0.000283039
0.000276476
0.000279331
0.000272885
0.000275801
0.000269464
0.000272435
0.000266197
0.000269218
0.000263072
0.000266137
0.000260075
0.000263181
0.000257196
0.000260336
0.00025442
0.000257586
0.000251713
0.000254898
0.000249
0.000252217
0.000246172
0.000249404
0.000584418
0.000577494
0.000561776
0.000555209
0.000538151
0.00053253
0.000516089
0.000511444
0.00049597
0.00049214
0.000477533
0.000474378
0.000460529
0.000457966
0.000444807
0.000442784
0.00043026
0.000428734
0.000416793
0.000415724
0.000404317
0.00040367
0.00039275
0.00039249
0.000382017
0.000382111
0.000372049
0.000372469
0.000362783
0.0003635
0.000354161
0.000355151
0.000346131
0.000347369
0.000338644
0.000340109
0.000331655
0.000333327
0.000325124
0.000326984
0.000319013
0.000321043
0.000313288
0.000315472
0.000307916
0.000310241
0.000302869
0.000305321
0.00029812
0.000300686
0.000293645
0.000296313
0.000289419
0.000292181
0.000285424
0.000288268
0.000281638
0.000284556
0.000278045
0.000281029
0.000274627
0.000277671
0.00027137
0.000274466
0.000268259
0.000271401
0.00026528
0.000268463
0.000262423
0.000265642
0.000259675
0.000262925
0.000257024
0.000260296
0.000254435
0.000257725
0.000251836
0.000255161
0.00024912
0.000252474
0.000575199
0.000567925
0.000552991
0.000546124
0.000529875
0.00052402
0.000508355
0.000503524
0.000488773
0.000484796
0.000470859
0.00046759
0.000454362
0.000451718
0.000439134
0.000437058
0.000425066
0.000423514
0.000412065
0.000410994
0.00040004
0.000399411
0.00038891
0.000388686
0.000378599
0.000378746
0.000369039
0.000369525
0.000360166
0.000360962
0.000351923
0.000353001
0.000344256
0.000345591
0.000337118
0.000338687
0.000330464
0.000332245
0.000324253
0.000326226
0.000318448
0.000320594
0.000313015
0.000315318
0.000307922
0.000310366
0.000303141
0.000305712
0.000298645
0.000301329
0.000294409
0.000297195
0.000290412
0.000293288
0.000286633
0.000289589
0.000283052
0.00028608
0.000279653
0.000282743
0.00027642
0.000279565
0.000273336
0.000276529
0.000270389
0.000273624
0.000267567
0.000270837
0.000264856
0.000268158
0.000262247
0.000265574
0.000259726
0.000263072
0.000257262
0.000260623
0.000254784
0.000258181
0.000252187
0.000255626
0.000565166
0.000557562
0.000543437
0.000536289
0.000520879
0.000514808
0.000499949
0.000494948
0.000480951
0.000476839
0.000463602
0.000460234
0.000447656
0.000444941
0.000432962
0.000430843
0.000419413
0.000417842
0.000406915
0.000405847
0.000395378
0.000394771
0.000384719
0.000384534
0.000374863
0.000375064
0.000365742
0.000366294
0.000357291
0.000358163
0.000349454
0.000350616
0.000342177
0.000343603
0.000335413
0.000337077
0.000329116
0.000330996
0.000323247
0.000325322
0.000317768
0.000320018
0.000312645
0.000315052
0.000307848
0.000310395
0.000303348
0.00030602
0.000299119
0.000301903
0.000295137
0.000298019
0.00029138
0.000294349
0.000287828
0.000290874
0.000284463
0.000287575
0.000281267
0.000284438
0.000278225
0.000281446
0.000275323
0.000278587
0.000272548
0.000275848
0.000269887
0.000273217
0.000267329
0.000270684
0.000264864
0.000268239
0.000262479
0.000265867
0.000260144
0.000263543
0.000257791
0.000261228
0.000255319
0.000258805
0.000554356
0.000546444
0.000533147
0.00052574
0.000511194
0.000504927
0.000490901
0.000485746
0.000472529
0.000468298
0.000455788
0.000452332
0.000440432
0.000437658
0.000426311
0.000424159
0.000413319
0.000411737
0.000401359
0.0004003
0.000390343
0.000389763
0.000380188
0.000380044
0.000370817
0.000371072
0.000362163
0.000362779
0.000354162
0.000355106
0.000346756
0.000347998
0.000339892
0.000341403
0.000333523
0.000335275
0.000327604
0.000329574
0.000322094
0.00032426
0.000316959
0.000319299
0.000312162
0.000314658
0.000307675
0.000310309
0.000303469
0.000306226
0.000299519
0.000302383
0.000295801
0.00029876
0.000292294
0.000295335
0.000288978
0.000292091
0.000285835
0.00028901
0.00028285
0.000286078
0.000280007
0.000283279
0.000277292
0.000280601
0.000274693
0.000278032
0.000272199
0.000275561
0.000269797
0.000273179
0.00026748
0.000270875
0.000265234
0.000268637
0.000263031
0.000266441
0.000260807
0.000264253
0.000258464
0.000261964
0.00054281
0.000534612
0.000522161
0.000514517
0.000500857
0.000494413
0.000481243
0.00047595
0.000463537
0.000459202
0.000447443
0.000443912
0.000432715
0.000429892
0.000419203
0.000417026
0.000406801
0.000405216
0.000395413
0.000394369
0.000384949
0.000384399
0.000375327
0.000375226
0.00036647
0.000366778
0.000358309
0.000358988
0.000350781
0.000351795
0.000343829
0.000345144
0.000337399
0.000338986
0.000331444
0.000333275
0.000325919
0.000327969
0.000320786
0.00032303
0.000316008
0.000318425
0.000311551
0.000314121
0.000307386
0.00031009
0.000303484
0.000306308
0.000299822
0.000302749
0.000296376
0.000299393
0.000293126
0.00029622
0.000290053
0.000293212
0.000287139
0.000290354
0.00028437
0.000287631
0.000281729
0.000285029
0.000279206
0.000282535
0.000276787
0.00028014
0.000274461
0.000277831
0.000272219
0.000275601
0.000270052
0.00027344
0.000267947
0.000271337
0.000265878
0.000269271
0.000263784
0.000267211
0.000261572
0.000265057
0.000530571
0.000522109
0.000510517
0.00050266
0.000489903
0.000483302
0.000471007
0.000465594
0.000454006
0.000449581
0.000438595
0.000435001
0.000424529
0.000421669
0.00041166
0.000409467
0.00039988
0.000398298
0.000389094
0.00038807
0.000379211
0.000378695
0.000370149
0.000370093
0.00036183
0.000362192
0.000354186
0.000354925
0.000347153
0.000348231
0.000340674
0.000342057
0.000334696
0.000336353
0.000329171
0.000331072
0.000324057
0.000326174
0.000319313
0.000321623
0.000314904
0.000317383
0.000310796
0.000313425
0.000306962
0.000309721
0.000303373
0.000306246
0.000300007
0.000302977
0.000296839
0.000299894
0.000293852
0.000296977
0.000291025
0.00029421
0.000288344
0.000291578
0.000285793
0.000289067
0.000283359
0.000286664
0.000281029
0.000284357
0.000278791
0.000282136
0.000276636
0.000279991
0.000274555
0.000277914
0.000272538
0.000275898
0.000270575
0.00027393
0.000268641
0.000271993
0.000266678
0.000270061
0.000264599
0.00026804
0.000517681
0.000508979
0.000498257
0.000490208
0.000478371
0.000471632
0.000460228
0.000454713
0.000443966
0.000439466
0.000429272
0.000425628
0.0004159
0.000413013
0.000403705
0.000401505
0.000392577
0.000391006
0.000382421
0.000381421
0.000373145
0.000372665
0.000364667
0.000364656
0.000356909
0.000357322
0.000349802
0.000350597
0.000343283
0.000344421
0.000337294
0.000338738
0.000331783
0.0003335
0.000326703
0.000328663
0.00032201
0.000324184
0.000317666
0.000320029
0.000313635
0.000316164
0.000309885
0.000312558
0.000306389
0.000309187
0.000303119
0.000306024
0.000300052
0.000303049
0.000297167
0.000300242
0.000294446
0.000297584
0.000291869
0.00029506
0.000289423
0.000292656
0.000287092
0.000290358
0.000284865
0.000288154
0.000282728
0.000286034
0.000280673
0.000283988
0.000278689
0.000282008
0.000276768
0.000280084
0.000274902
0.000278211
0.00027308
0.000276379
0.000271281
0.000274571
0.000269449
0.000272766
0.000267502
0.000270876
0.000504186
0.000495267
0.000485421
0.000477204
0.000466297
0.000459441
0.000448943
0.000443342
0.000433451
0.000428891
0.000419503
0.000415823
0.000406856
0.000403953
0.000395362
0.000393165
0.000384913
0.000383359
0.000375412
0.000374442
0.000366767
0.000366325
0.000358894
0.00035893
0.000351716
0.000352181
0.000345165
0.000346014
0.000339175
0.000340368
0.000333691
0.00033519
0.00032866
0.00033043
0.000324035
0.000326045
0.000319773
0.000321994
0.000315837
0.000318241
0.000312192
0.000314756
0.000308806
0.000311509
0.000305652
0.000308473
0.000302704
0.000305626
0.000299941
0.000302947
0.000297341
0.000300418
0.000294886
0.00029802
0.000292561
0.00029574
0.000290349
0.000293563
0.000288239
0.000291479
0.000286218
0.000289474
0.000284275
0.000287541
0.000282401
0.000285669
0.000280587
0.000283851
0.000278826
0.00028208
0.000277109
0.00028035
0.000275428
0.000278652
0.000273761
0.000276972
0.000272059
0.000275292
0.000270244
0.00027353
0.00049013
0.000481018
0.000472053
0.000463692
0.000453723
0.00044677
0.000437186
0.000431517
0.000422494
0.000417889
0.000409321
0.000405616
0.000397424
0.000394516
0.000386658
0.000384471
0.000376912
0.000375381
0.000368088
0.000367151
0.000360094
0.000359694
0.000352845
0.000352927
0.000346265
0.000346779
0.000340284
0.000341183
0.000334838
0.00033608
0.00032987
0.000331416
0.000325328
0.000327143
0.000321167
0.000323217
0.000317344
0.000319599
0.000313822
0.000316255
0.000310566
0.000313153
0.000307547
0.000310266
0.000304738
0.000307568
0.000302115
0.000305038
0.000299656
0.000302656
0.000297341
0.000300404
0.000295154
0.000298266
0.000293078
0.000296229
0.000291101
0.00029428
0.00028921
0.000292407
0.000287395
0.0002906
0.000285644
0.000288852
0.000283949
0.000287153
0.000282303
0.000285496
0.000280699
0.000283876
0.00027913
0.000282287
0.000277587
0.000280721
0.000276052
0.000279167
0.000274478
0.00027761
0.000272793
0.000275972
0.00047556
0.000466279
0.000458196
0.000449713
0.000440688
0.000433658
0.000424996
0.000419275
0.000411128
0.000406493
0.000398755
0.00039504
0.000387634
0.000384731
0.000377618
0.00037545
0.000368596
0.000367095
0.000360469
0.00035957
0.000353144
0.000352787
0.000346536
0.000346665
0.000340568
0.000341129
0.00033517
0.000336116
0.000330277
0.000331564
0.000325835
0.000327422
0.000321791
0.000323641
0.000318099
0.000320179
0.000314719
0.000316998
0.000311614
0.000314064
0.000308751
0.000311347
0.000306101
0.000308821
0.000303638
0.000306462
0.000301339
0.000304249
0.000299183
0.000302162
0.000297152
0.000300187
0.000295231
0.000298307
0.000293404
0.000296511
0.000291659
0.000294786
0.000289985
0.000293123
0.000288372
0.000291512
0.00028681
0.000289946
0.000285293
0.000288418
0.000283812
0.00028692
0.000282363
0.000285448
0.000280938
0.000283998
0.000279531
0.000282562
0.000278125
0.000281132
0.000276676
0.000279694
0.000275119
0.000278177
0.000460521
0.000451096
0.000443893
0.000435312
0.000427232
0.000420145
0.000412409
0.000406655
0.00039939
0.00039474
0.000387839
0.000384125
0.000377514
0.000374628
0.000368268
0.000366128
0.000359989
0.000358525
0.000352577
0.00035172
0.000345937
0.000345625
0.000339983
0.000340158
0.000334639
0.000335245
0.000329833
0.000330822
0.000325503
0.000326828
0.000321592
0.000323213
0.00031805
0.000319928
0.000314832
0.000316933
0.000311898
0.00031419
0.000309212
0.000311667
0.000306741
0.000309335
0.00030446
0.00030717
0.000302341
0.000305147
0.000300365
0.000303248
0.00029851
0.000301455
0.000296761
0.000299754
0.000295103
0.00029813
0.000293522
0.000296571
0.000292006
0.000295068
0.000290545
0.000293612
0.000289132
0.000292194
0.000287756
0.000290807
0.000286412
0.000289445
0.000285094
0.000288104
0.000283795
0.000286778
0.000282512
0.000285463
0.000281238
0.000284155
0.000279957
0.000282845
0.000278631
0.000281523
0.000277199
0.000280124
0.000445061
0.000435515
0.000429187
0.000420531
0.000413396
0.000406272
0.000399463
0.000393692
0.000387313
0.000382662
0.000376604
0.000372904
0.000367095
0.000364234
0.000358637
0.000356533
0.000351117
0.000349695
0.000344434
0.000343623
0.000338491
0.000338226
0.000333203
0.000333424
0.000328491
0.000329141
0.000324285
0.000325313
0.000320523
0.000321882
0.000317149
0.000318796
0.000314112
0.000316009
0.000311369
0.000313481
0.000308881
0.000311176
0.000306612
0.000309063
0.000304534
0.000307114
0.000302618
0.000305306
0.000300842
0.000303617
0.000299185
0.000302029
0.000297629
0.000300527
0.000296158
0.000299095
0.000294758
0.000297722
0.000293418
0.000296398
0.000292128
0.000295113
0.000290877
0.00029386
0.000289658
0.00029263
0.000288465
0.000291419
0.00028729
0.000290221
0.00028613
0.000289032
0.000284979
0.000287848
0.000283834
0.000286666
0.000282689
0.000285483
0.00028153
0.000284291
0.000280323
0.000283082
0.000279014
0.000281794
0.000429223
0.00041958
0.000414122
0.000405413
0.000399219
0.000392077
0.000386195
0.000380425
0.000374932
0.000370296
0.000365083
0.000361409
0.000356405
0.000353582
0.000348751
0.000346691
0.000342005
0.000340631
0.000336062
0.000335301
0.000330827
0.000330612
0.000326213
0.00032648
0.00032214
0.000322832
0.00031854
0.000319603
0.000315349
0.000316736
0.000312513
0.00031418
0.000309982
0.00031189
0.000307713
0.000309828
0.000305669
0.000307958
0.000303816
0.000306251
0.000302126
0.000304682
0.000300573
0.000303228
0.000299135
0.000301868
0.000297793
0.000300587
0.00029653
0.00029937
0.000295333
0.000298204
0.000294187
0.000297078
0.000293084
0.000295983
0.000292013
0.000294912
0.000290967
0.000293856
0.000289939
0.000292812
0.000288923
0.000291772
0.000287914
0.000290734
0.000286907
0.000289694
0.0002859
0.000288648
0.000284889
0.000287596
0.000283869
0.000286533
0.000282828
0.000285455
0.000281738
0.000284355
0.000280547
0.000283176
0.000413054
0.000403337
0.000398739
0.000390001
0.000384742
0.000377602
0.000372643
0.00036689
0.000362283
0.000357675
0.000353308
0.000349674
0.000345477
0.000342701
0.000338639
0.000336631
0.000332677
0.000331358
0.000327486
0.000326779
0.000322966
0.000322802
0.000319032
0.000319345
0.000315603
0.000316334
0.00031261
0.000313705
0.000309992
0.000311402
0.000307693
0.000309374
0.000305666
0.000307579
0.000303869
0.000305978
0.000302266
0.00030454
0.000300825
0.000303235
0.000299519
0.00030204
0.000298323
0.000300934
0.000297218
0.000299899
0.000296185
0.000298919
0.00029521
0.000297981
0.00029428
0.000297075
0.000293384
0.000296191
0.000292511
0.00029532
0.000291655
0.000294457
0.000290809
0.000293595
0.000289966
0.00029273
0.000289122
0.000291858
0.000288273
0.000290975
0.000287416
0.000290079
0.000286547
0.000289168
0.000285666
0.000288241
0.000284767
0.000287296
0.000283841
0.000286329
0.000282863
0.000285334
0.000281787
0.000284258
0.000396598
0.000386829
0.000383081
0.000374334
0.000370004
0.000362885
0.000358844
0.000353124
0.000349399
0.000344835
0.000341312
0.000337729
0.000334339
0.000331621
0.000328329
0.000326382
0.000323161
0.000321902
0.000318727
0.000318078
0.00031493
0.000314818
0.000311679
0.000312037
0.000308896
0.000309664
0.000306511
0.000307634
0.000304463
0.000305892
0.0003027
0.000304389
0.000301173
0.000303083
0.000299844
0.00030194
0.000298677
0.000300927
0.000297641
0.000300018
0.000296713
0.000299191
0.000295868
0.000298426
0.000295089
0.000297708
0.000294359
0.000297023
0.000293666
0.000296359
0.000292997
0.000295706
0.000292342
0.000295057
0.000291695
0.000294405
0.000291047
0.000293744
0.000290394
0.00029307
0.000289731
0.00029238
0.000289055
0.00029167
0.000288361
0.000290938
0.000287648
0.000290182
0.000286914
0.000289402
0.000286158
0.000288597
0.000285376
0.000287765
0.000284561
0.000286905
0.000283691
0.000286012
0.000282727
0.000285035
0.000379896
0.000370099
0.000367188
0.000358455
0.000355043
0.000347964
0.000344833
0.000339164
0.000336316
0.00033181
0.000329127
0.000325609
0.000323023
0.000320373
0.000317849
0.000315971
0.000313482
0.000312289
0.000309812
0.000309224
0.000306739
0.000306681
0.000304173
0.000304577
0.000302035
0.000302839
0.000300256
0.000301404
0.000298776
0.000300219
0.000297543
0.000299235
0.000296512
0.000298413
0.000295644
0.000297719
0.000294906
0.000297124
0.000294269
0.000296604
0.000293711
0.000296137
0.00029321
0.000295707
0.000292749
0.000295298
0.000292315
0.0002949
0.000291896
0.000294502
0.00029148
0.000294096
0.000291061
0.000293676
0.000290632
0.000293236
0.000290186
0.000292772
0.000289721
0.00029228
0.000289232
0.000291759
0.000288717
0.000291206
0.000288173
0.00029062
0.000287599
0.000290001
0.000286995
0.000289347
0.000286359
0.000288659
0.000285691
0.000287938
0.000284983
0.000287181
0.000284217
0.000286386
0.00028336
0.000285502
0.000362993
0.000353188
0.0003511
0.000342402
0.000339897
0.000332876
0.000330647
0.000325045
0.000323067
0.000318634
0.000316785
0.000313345
0.000311558
0.000308987
0.000307227
0.000305427
0.000303667
0.000302547
0.000300764
0.000300241
0.000298416
0.000298415
0.000296534
0.000296984
0.000295039
0.000295877
0.000293862
0.000295032
0.000292945
0.000294397
0.000292236
0.000293925
0.000291693
0.000293579
0.000291278
0.000293326
0.000290961
0.000293141
0.000290715
0.000293
0.000290518
0.000292884
0.000290352
0.00029278
0.000290202
0.000292673
0.000290055
0.000292554
0.000289901
0.000292414
0.000289731
0.000292247
0.00028954
0.000292049
0.000289322
0.000291814
0.000289072
0.00029154
0.000288787
0.000291225
0.000288466
0.000290867
0.000288107
0.000290466
0.000287708
0.000290021
0.000287268
0.000289533
0.000286789
0.000289001
0.00028627
0.000288428
0.000285709
0.000287813
0.000285104
0.000287155
0.000284439
0.000286454
0.000283686
0.00028566
0.000345927
0.000336136
0.000334855
0.000326213
0.000324602
0.000317658
0.00031632
0.000310802
0.000309686
0.00030534
0.00030432
0.000300969
0.000299976
0.000297495
0.000296494
0.000294779
0.000293742
0.000292701
0.000291607
0.000291154
0.000289984
0.000290041
0.000288784
0.000289279
0.000287927
0.000288797
0.000287346
0.000288535
0.000286984
0.00028844
0.000286791
0.000288471
0.000286727
0.000288591
0.000286756
0.00028877
0.00028685
0.000288984
0.000286984
0.000289213
0.000287139
0.000289439
0.000287298
0.00028965
0.000287449
0.000289836
0.00028758
0.000289987
0.000287683
0.000290097
0.000287752
0.000290162
0.000287781
0.000290177
0.000287766
0.00029014
0.000287704
0.00029005
0.000287595
0.000289905
0.000287435
0.000289706
0.000287225
0.000289451
0.000286965
0.000289143
0.000286655
0.000288781
0.000286296
0.000288367
0.000285888
0.000287903
0.000285433
0.000287391
0.000284926
0.000286829
0.000284357
0.000286217
0.000283705
0.000285509
0.000328738
0.000318981
0.000318492
0.000309925
0.000309195
0.000302346
0.000301888
0.000296469
0.000296205
0.000291963
0.000291762
0.000288514
0.000288307
0.000285926
0.000285676
0.000284056
0.000283736
0.00028278
0.000282367
0.000281988
0.000281466
0.000281583
0.000280942
0.000281483
0.000280716
0.000281618
0.000280723
0.000281928
0.000280907
0.000282365
0.00028122
0.000282887
0.000281624
0.000283462
0.000282087
0.000284062
0.000282581
0.000284664
0.000283085
0.000285251
0.000283581
0.000285809
0.000284055
0.000286326
0.000284497
0.000286793
0.000284897
0.000287205
0.000285248
0.000287557
0.000285546
0.000287844
0.000285786
0.000288066
0.000285967
0.00028822
0.000286087
0.000288307
0.000286145
0.000288326
0.000286141
0.000288278
0.000286075
0.000288165
0.000285949
0.000287987
0.000285763
0.000287747
0.000285519
0.000287447
0.000285218
0.000287089
0.000284863
0.000286675
0.000284451
0.000286206
0.000283975
0.00028568
0.00028342
0.000285052
0.000311463
0.000301759
0.000302045
0.000293574
0.00029371
0.000286973
0.000287383
0.000282082
0.000282659
0.000278534
0.000279143
0.000276011
0.000276581
0.000274311
0.000274804
0.000273286
0.000273674
0.000272809
0.000273069
0.000272767
0.000272884
0.000273064
0.000273029
0.000273617
0.000273427
0.000274358
0.000274011
0.00027523
0.00027473
0.000276186
0.000275538
0.000277188
0.000276399
0.000278205
0.000277282
0.000279213
0.000278164
0.000280191
0.000279026
0.000281124
0.000279852
0.000282001
0.00028063
0.000282813
0.000281352
0.000283552
0.00028201
0.000284215
0.000282599
0.000284798
0.000283117
0.0002853
0.000283561
0.00028572
0.00028393
0.000286057
0.000284223
0.000286314
0.000284442
0.00028649
0.000284587
0.000286589
0.00028466
0.000286611
0.000284661
0.00028656
0.000284595
0.000286437
0.000284461
0.000286247
0.000284264
0.00028599
0.000284005
0.000285671
0.000283684
0.000285291
0.000283297
0.000284848
0.000282834
0.000284297
0.000294138
0.000284507
0.000285549
0.000277194
0.00027818
0.000271575
0.00027284
0.000267671
0.000269079
0.000265087
0.000266495
0.000263493
0.000264829
0.000262682
0.000263906
0.0002625
0.000263584
0.000262817
0.000263739
0.000263519
0.000264264
0.000264508
0.000265069
0.000265703
0.000266078
0.000267038
0.000267229
0.000268459
0.00026847
0.00026992
0.000269759
0.000271388
0.000271062
0.000272833
0.000272353
0.000274234
0.00027361
0.000275575
0.000274817
0.000276842
0.00027596
0.000278026
0.00027703
0.00027912
0.00027802
0.00028012
0.000278926
0.000281024
0.000279744
0.000281829
0.000280472
0.000282536
0.00028111
0.000283145
0.000281659
0.000283658
0.000282119
0.000284078
0.000282492
0.000284405
0.00028278
0.000284644
0.000282985
0.000284797
0.000283109
0.000284867
0.000283157
0.000284857
0.000283129
0.000284771
0.000283031
0.000284613
0.000282864
0.000284385
0.000282631
0.00028409
0.000282329
0.000283726
0.000281955
0.000283248
0.000276797
0.000267257
0.000269038
0.000260817
0.000262638
0.000256183
0.000258289
0.000253272
0.000255498
0.000251654
0.00025385
0.000250991
0.000253082
0.000251069
0.000253012
0.000251727
0.000253494
0.000252832
0.000254402
0.000254268
0.000255627
0.000255938
0.000257081
0.000257763
0.00025869
0.000259678
0.000260393
0.000261632
0.000262142
0.000263584
0.000263897
0.000265501
0.000265629
0.000267359
0.000267313
0.00026914
0.00026893
0.000270828
0.000270467
0.000272415
0.000271914
0.000273893
0.000273263
0.000275257
0.00027451
0.000276506
0.000275652
0.000277639
0.000276688