/*--------------------------------*- C++ -*----------------------------------*\
| =========                 |                                                 |
| \\      /  F ield         | OpenFOAM: The Open Source CFD Toolbox           |
|  \\    /   O peration     | Version:  v2012                                 |
|   \\  /    A nd           | Website:  www.openfoam.com                      |
|    \\/     M anipulation  |                                                 |
\*---------------------------------------------------------------------------*/
FoamFile
{
    version     2.0;
    format      ascii;
    class       volScalarField;
    location    "1";
    object      sigmaHyd;
}
// * * * * * * * * * * * * * * * * * * * * * * * * * * * * * * * * * * * * * //

dimensions      [1 -1 -2 0 0 0 0];


internalField   nonuniform List<scalar> 
32000
(
2.47831e+07
2.47456e+07
2.45257e+07
2.43812e+07
2.40221e+07
2.38445e+07
2.34704e+07
2.33005e+07
2.29479e+07
2.27898e+07
2.24559e+07
2.23055e+07
2.19847e+07
2.18397e+07
2.15298e+07
2.13898e+07
2.10904e+07
2.09551e+07
2.06658e+07
2.05351e+07
2.02554e+07
2.01289e+07
1.98583e+07
1.97358e+07
1.94737e+07
1.9355e+07
1.91009e+07
1.89858e+07
1.87393e+07
1.86277e+07
1.83883e+07
1.828e+07
1.80474e+07
1.79421e+07
1.77161e+07
1.76137e+07
1.73937e+07
1.72942e+07
1.708e+07
1.69831e+07
1.67743e+07
1.668e+07
1.64764e+07
1.63845e+07
1.61858e+07
1.60962e+07
1.59022e+07
1.58148e+07
1.56251e+07
1.55398e+07
1.53542e+07
1.5271e+07
1.50893e+07
1.5008e+07
1.483e+07
1.47505e+07
1.45759e+07
1.44982e+07
1.43269e+07
1.42508e+07
1.40826e+07
1.40081e+07
1.38428e+07
1.37698e+07
1.36071e+07
1.35355e+07
1.33754e+07
1.33051e+07
1.31472e+07
1.30783e+07
1.29223e+07
1.28548e+07
1.27005e+07
1.26343e+07
1.2481e+07
1.24157e+07
1.22617e+07
1.21959e+07
1.20385e+07
1.19726e+07
2.4792e+07
2.47366e+07
2.45145e+07
2.43475e+07
2.40065e+07
2.38124e+07
2.34628e+07
2.32772e+07
2.29465e+07
2.27723e+07
2.24575e+07
2.22911e+07
2.19877e+07
2.18274e+07
2.1534e+07
2.13792e+07
2.10954e+07
2.0946e+07
2.06715e+07
2.05272e+07
2.02617e+07
2.01222e+07
1.9865e+07
1.97301e+07
1.94809e+07
1.93503e+07
1.91086e+07
1.89821e+07
1.87475e+07
1.86249e+07
1.8397e+07
1.82781e+07
1.80566e+07
1.79412e+07
1.77257e+07
1.76137e+07
1.74039e+07
1.72951e+07
1.70907e+07
1.69849e+07
1.67856e+07
1.66827e+07
1.64882e+07
1.63881e+07
1.61981e+07
1.61007e+07
1.59151e+07
1.58202e+07
1.56386e+07
1.55461e+07
1.53683e+07
1.52782e+07
1.5104e+07
1.50161e+07
1.48453e+07
1.47596e+07
1.4592e+07
1.45083e+07
1.43436e+07
1.42619e+07
1.41001e+07
1.40203e+07
1.3861e+07
1.37831e+07
1.36263e+07
1.35501e+07
1.33955e+07
1.33211e+07
1.31686e+07
1.30959e+07
1.29453e+07
1.28745e+07
1.27255e+07
1.26565e+07
1.25083e+07
1.24401e+07
1.22906e+07
1.22213e+07
1.20691e+07
1.20007e+07
2.47352e+07
2.46559e+07
2.44449e+07
2.426e+07
2.3936e+07
2.37268e+07
2.33979e+07
2.31968e+07
2.2887e+07
2.26966e+07
2.24019e+07
2.22195e+07
2.19355e+07
2.17594e+07
2.14846e+07
2.13145e+07
2.10487e+07
2.08843e+07
2.06272e+07
2.04684e+07
2.02196e+07
2.0066e+07
1.9825e+07
1.96764e+07
1.94429e+07
1.92989e+07
1.90724e+07
1.8933e+07
1.87131e+07
1.85779e+07
1.83644e+07
1.82332e+07
1.80256e+07
1.78983e+07
1.76964e+07
1.75728e+07
1.73761e+07
1.7256e+07
1.70644e+07
1.69477e+07
1.67608e+07
1.66473e+07
1.64649e+07
1.63544e+07
1.61763e+07
1.60688e+07
1.58946e+07
1.57899e+07
1.56196e+07
1.55175e+07
1.53507e+07
1.52512e+07
1.50878e+07
1.49908e+07
1.48305e+07
1.47359e+07
1.45785e+07
1.44862e+07
1.43316e+07
1.42414e+07
1.40895e+07
1.40014e+07
1.38519e+07
1.37659e+07
1.36186e+07
1.35346e+07
1.33894e+07
1.33073e+07
1.31642e+07
1.30839e+07
1.29426e+07
1.28641e+07
1.27246e+07
1.26475e+07
1.25087e+07
1.2432e+07
1.22914e+07
1.22136e+07
1.207e+07
1.19921e+07
2.46249e+07
2.45312e+07
2.43313e+07
2.41339e+07
2.38232e+07
2.36028e+07
2.3289e+07
2.30769e+07
2.27825e+07
2.25815e+07
2.2302e+07
2.21091e+07
2.18398e+07
2.16536e+07
2.1393e+07
2.1213e+07
2.09609e+07
2.07869e+07
2.05431e+07
2.03749e+07
2.01388e+07
1.99762e+07
1.97475e+07
1.95902e+07
1.93685e+07
1.92161e+07
1.9001e+07
1.88534e+07
1.86446e+07
1.85015e+07
1.82986e+07
1.81599e+07
1.79625e+07
1.78279e+07
1.76358e+07
1.75052e+07
1.7318e+07
1.71912e+07
1.70088e+07
1.68855e+07
1.67075e+07
1.65878e+07
1.64139e+07
1.62975e+07
1.61276e+07
1.60143e+07
1.58482e+07
1.57379e+07
1.55753e+07
1.5468e+07
1.53086e+07
1.52041e+07
1.50478e+07
1.4946e+07
1.47926e+07
1.46934e+07
1.45427e+07
1.4446e+07
1.42979e+07
1.42036e+07
1.40578e+07
1.39658e+07
1.38223e+07
1.37325e+07
1.3591e+07
1.35034e+07
1.33639e+07
1.32784e+07
1.31406e+07
1.30571e+07
1.2921e+07
1.28395e+07
1.27048e+07
1.2625e+07
1.24906e+07
1.24113e+07
1.22746e+07
1.21944e+07
1.2054e+07
1.19748e+07
2.44761e+07
2.43696e+07
2.4182e+07
2.39728e+07
2.36757e+07
2.34451e+07
2.31458e+07
2.29244e+07
2.26446e+07
2.24347e+07
2.21693e+07
2.19679e+07
2.17123e+07
2.15178e+07
2.12705e+07
2.10825e+07
2.08431e+07
2.06615e+07
2.04299e+07
2.02543e+07
2.00301e+07
1.98603e+07
1.9643e+07
1.94787e+07
1.9268e+07
1.9109e+07
1.89044e+07
1.87505e+07
1.85518e+07
1.84026e+07
1.82094e+07
1.80648e+07
1.78769e+07
1.77367e+07
1.75536e+07
1.74176e+07
1.72392e+07
1.71072e+07
1.69332e+07
1.6805e+07
1.66351e+07
1.65106e+07
1.63446e+07
1.62237e+07
1.60613e+07
1.59438e+07
1.57848e+07
1.56706e+07
1.55148e+07
1.54038e+07
1.5251e+07
1.5143e+07
1.49931e+07
1.48879e+07
1.47407e+07
1.46383e+07
1.44935e+07
1.43939e+07
1.42514e+07
1.41544e+07
1.40141e+07
1.39196e+07
1.37813e+07
1.36892e+07
1.35527e+07
1.34631e+07
1.33282e+07
1.32408e+07
1.31075e+07
1.30224e+07
1.28906e+07
1.28077e+07
1.2677e+07
1.2596e+07
1.24653e+07
1.2385e+07
1.22516e+07
1.2171e+07
1.20337e+07
1.19546e+07
2.42894e+07
2.41699e+07
2.39961e+07
2.37755e+07
2.34937e+07
2.32532e+07
2.29696e+07
2.27393e+07
2.24749e+07
2.22565e+07
2.2006e+07
2.17964e+07
2.15552e+07
2.13527e+07
2.11193e+07
2.09237e+07
2.06977e+07
2.05087e+07
2.029e+07
2.01074e+07
1.98956e+07
1.9719e+07
1.95136e+07
1.93428e+07
1.91436e+07
1.89783e+07
1.87849e+07
1.86248e+07
1.84368e+07
1.82819e+07
1.8099e+07
1.79488e+07
1.77708e+07
1.76252e+07
1.74518e+07
1.73106e+07
1.71415e+07
1.70046e+07
1.68394e+07
1.67066e+07
1.65453e+07
1.64164e+07
1.62586e+07
1.61335e+07
1.59791e+07
1.58576e+07
1.57063e+07
1.55882e+07
1.54399e+07
1.53252e+07
1.51797e+07
1.50682e+07
1.49252e+07
1.48169e+07
1.46763e+07
1.4571e+07
1.44326e+07
1.43302e+07
1.41939e+07
1.40943e+07
1.39599e+07
1.3863e+07
1.37304e+07
1.36362e+07
1.35051e+07
1.34135e+07
1.32839e+07
1.31948e+07
1.30666e+07
1.29799e+07
1.28529e+07
1.27687e+07
1.26426e+07
1.25604e+07
1.24341e+07
1.2353e+07
1.22238e+07
1.21425e+07
1.20094e+07
1.19299e+07
2.40644e+07
2.39323e+07
2.37732e+07
2.35418e+07
2.32764e+07
2.30267e+07
2.276e+07
2.25211e+07
2.22731e+07
2.20465e+07
2.18119e+07
2.15944e+07
2.13683e+07
2.11583e+07
2.09394e+07
2.07365e+07
2.05246e+07
2.03286e+07
2.01234e+07
1.9934e+07
1.97353e+07
1.95522e+07
1.93594e+07
1.91823e+07
1.89952e+07
1.88239e+07
1.86422e+07
1.84764e+07
1.82996e+07
1.81391e+07
1.79671e+07
1.78116e+07
1.76441e+07
1.74934e+07
1.733e+07
1.7184e+07
1.70246e+07
1.68831e+07
1.67274e+07
1.65901e+07
1.64379e+07
1.63047e+07
1.61557e+07
1.60265e+07
1.58806e+07
1.57552e+07
1.56122e+07
1.54905e+07
1.53501e+07
1.5232e+07
1.50941e+07
1.49794e+07
1.48438e+07
1.47324e+07
1.4599e+07
1.44908e+07
1.43593e+07
1.42543e+07
1.41247e+07
1.40226e+07
1.38947e+07
1.37955e+07
1.36691e+07
1.35728e+07
1.34478e+07
1.33543e+07
1.32305e+07
1.31397e+07
1.30171e+07
1.29289e+07
1.28073e+07
1.27217e+07
1.26009e+07
1.25176e+07
1.23963e+07
1.23143e+07
1.219e+07
1.2108e+07
1.19797e+07
1.18997e+07
2.38018e+07
2.36579e+07
2.35139e+07
2.32726e+07
2.30244e+07
2.27661e+07
2.2517e+07
2.22703e+07
2.20394e+07
2.18052e+07
2.15869e+07
2.13621e+07
2.11517e+07
2.09347e+07
2.0731e+07
2.05213e+07
2.03239e+07
2.01214e+07
1.99302e+07
1.97345e+07
1.95493e+07
1.93601e+07
1.91804e+07
1.89975e+07
1.8823e+07
1.86461e+07
1.84765e+07
1.83052e+07
1.81402e+07
1.79745e+07
1.78138e+07
1.76533e+07
1.74967e+07
1.73413e+07
1.71885e+07
1.70379e+07
1.68887e+07
1.67427e+07
1.65969e+07
1.64554e+07
1.63127e+07
1.61756e+07
1.60359e+07
1.59028e+07
1.57659e+07
1.56369e+07
1.55025e+07
1.53773e+07
1.52453e+07
1.51239e+07
1.49942e+07
1.48764e+07
1.47487e+07
1.46344e+07
1.45086e+07
1.43977e+07
1.42736e+07
1.4166e+07
1.40436e+07
1.39392e+07
1.38181e+07
1.37169e+07
1.35972e+07
1.34989e+07
1.33804e+07
1.32851e+07
1.31676e+07
1.30752e+07
1.29587e+07
1.28691e+07
1.27534e+07
1.26666e+07
1.25515e+07
1.24671e+07
1.23514e+07
1.22686e+07
1.21496e+07
1.20672e+07
1.19441e+07
1.18638e+07
2.3503e+07
2.33477e+07
2.32192e+07
2.29687e+07
2.27384e+07
2.24723e+07
2.22415e+07
2.19876e+07
2.17743e+07
2.15333e+07
2.13318e+07
2.11004e+07
2.09062e+07
2.06827e+07
2.04945e+07
2.02786e+07
2.00963e+07
1.98877e+07
1.9711e+07
1.95095e+07
1.93382e+07
1.91435e+07
1.89772e+07
1.87889e+07
1.86274e+07
1.84453e+07
1.82881e+07
1.8112e+07
1.7959e+07
1.77885e+07
1.76395e+07
1.74744e+07
1.73291e+07
1.71692e+07
1.70274e+07
1.68725e+07
1.67339e+07
1.65839e+07
1.64483e+07
1.6303e+07
1.61702e+07
1.60293e+07
1.58992e+07
1.57627e+07
1.5635e+07
1.55026e+07
1.53772e+07
1.52489e+07
1.51257e+07
1.50013e+07
1.488e+07
1.47594e+07
1.46399e+07
1.45229e+07
1.44051e+07
1.42917e+07
1.41754e+07
1.40655e+07
1.39505e+07
1.3844e+07
1.37303e+07
1.3627e+07
1.35144e+07
1.34144e+07
1.33027e+07
1.32058e+07
1.3095e+07
1.30012e+07
1.28911e+07
1.28003e+07
1.26909e+07
1.2603e+07
1.2494e+07
1.24088e+07
1.2299e+07
1.22155e+07
1.21024e+07
1.20195e+07
1.19022e+07
1.18217e+07
2.31692e+07
2.30031e+07
2.28903e+07
2.26315e+07
2.24196e+07
2.21465e+07
2.19344e+07
2.16741e+07
2.14789e+07
2.12316e+07
2.10475e+07
2.081e+07
2.06324e+07
2.04031e+07
2.02308e+07
2.00093e+07
1.98423e+07
1.96283e+07
1.94664e+07
1.92597e+07
1.91026e+07
1.89029e+07
1.87503e+07
1.85572e+07
1.84089e+07
1.82221e+07
1.80778e+07
1.78971e+07
1.77565e+07
1.75817e+07
1.74446e+07
1.72754e+07
1.71416e+07
1.69778e+07
1.68471e+07
1.66884e+07
1.65606e+07
1.6407e+07
1.62819e+07
1.6133e+07
1.60104e+07
1.58662e+07
1.5746e+07
1.56063e+07
1.54882e+07
1.53528e+07
1.52367e+07
1.51055e+07
1.49913e+07
1.48642e+07
1.47516e+07
1.46285e+07
1.45175e+07
1.43981e+07
1.42886e+07
1.4173e+07
1.40647e+07
1.39527e+07
1.38456e+07
1.37371e+07
1.3631e+07
1.3526e+07
1.34208e+07
1.33191e+07
1.32147e+07
1.31164e+07
1.30126e+07
1.29174e+07
1.28143e+07
1.27223e+07
1.26196e+07
1.25308e+07
1.24283e+07
1.23423e+07
1.22389e+07
1.21548e+07
1.20481e+07
1.19647e+07
1.18537e+07
1.1773e+07
2.28016e+07
2.26254e+07
2.25285e+07
2.22622e+07
2.20691e+07
2.17899e+07
2.15969e+07
2.13308e+07
2.11541e+07
2.09013e+07
2.07348e+07
2.04919e+07
2.03312e+07
2.00967e+07
1.99407e+07
1.97142e+07
1.95628e+07
1.9344e+07
1.91972e+07
1.89858e+07
1.88432e+07
1.8639e+07
1.85004e+07
1.83029e+07
1.81682e+07
1.79772e+07
1.7846e+07
1.76612e+07
1.75333e+07
1.73545e+07
1.72297e+07
1.70567e+07
1.69348e+07
1.67673e+07
1.66481e+07
1.6486e+07
1.63693e+07
1.62123e+07
1.6098e+07
1.5946e+07
1.58339e+07
1.56866e+07
1.55765e+07
1.54339e+07
1.53257e+07
1.51875e+07
1.5081e+07
1.49473e+07
1.48423e+07
1.47128e+07
1.46093e+07
1.44838e+07
1.43816e+07
1.42601e+07
1.41591e+07
1.40415e+07
1.39416e+07
1.38277e+07
1.37287e+07
1.36185e+07
1.35204e+07
1.34137e+07
1.33163e+07
1.32131e+07
1.31163e+07
1.30166e+07
1.29203e+07
1.28239e+07
1.2728e+07
1.26349e+07
1.25394e+07
1.24496e+07
1.23541e+07
1.22672e+07
1.21707e+07
1.2086e+07
1.19861e+07
1.19023e+07
1.17981e+07
1.17172e+07
2.24018e+07
2.2216e+07
2.21352e+07
2.18623e+07
2.16881e+07
2.14037e+07
2.123e+07
2.09591e+07
2.0801e+07
2.05435e+07
2.03948e+07
2.01473e+07
2.00037e+07
1.97647e+07
1.96252e+07
1.93942e+07
1.92588e+07
1.90357e+07
1.89042e+07
1.86886e+07
1.85609e+07
1.83526e+07
1.82283e+07
1.80269e+07
1.79059e+07
1.77112e+07
1.75933e+07
1.74049e+07
1.72899e+07
1.71077e+07
1.69953e+07
1.6819e+07
1.67091e+07
1.65384e+07
1.64309e+07
1.62657e+07
1.61604e+07
1.60004e+07
1.58971e+07
1.57422e+07
1.56408e+07
1.54909e+07
1.53912e+07
1.52459e+07
1.51478e+07
1.50072e+07
1.49106e+07
1.47744e+07
1.46791e+07
1.45473e+07
1.44531e+07
1.43255e+07
1.42325e+07
1.4109e+07
1.40169e+07
1.38973e+07
1.38061e+07
1.36905e+07
1.36e+07
1.34881e+07
1.33983e+07
1.32901e+07
1.32008e+07
1.30963e+07
1.30074e+07
1.29064e+07
1.28178e+07
1.27203e+07
1.2632e+07
1.2538e+07
1.24499e+07
1.23592e+07
1.2271e+07
1.21835e+07
1.20942e+07
1.20088e+07
1.19161e+07
1.1832e+07
1.1735e+07
1.16539e+07
2.19713e+07
2.17766e+07
2.17118e+07
2.1433e+07
2.12782e+07
2.09892e+07
2.08352e+07
2.05602e+07
2.0421e+07
2.01594e+07
2.00287e+07
1.97772e+07
1.96509e+07
1.9408e+07
1.92852e+07
1.90504e+07
1.8931e+07
1.87042e+07
1.85882e+07
1.83691e+07
1.82563e+07
1.80445e+07
1.79347e+07
1.77299e+07
1.76229e+07
1.74249e+07
1.73205e+07
1.7129e+07
1.7027e+07
1.68417e+07
1.6742e+07
1.65627e+07
1.64652e+07
1.62916e+07
1.6196e+07
1.60281e+07
1.59343e+07
1.57717e+07
1.56796e+07
1.55222e+07
1.54317e+07
1.52793e+07
1.51902e+07
1.50427e+07
1.49549e+07
1.48121e+07
1.47255e+07
1.45873e+07
1.45017e+07
1.43679e+07
1.42834e+07
1.41539e+07
1.40701e+07
1.39448e+07
1.38619e+07
1.37407e+07
1.36584e+07
1.35411e+07
1.34594e+07
1.33461e+07
1.32647e+07
1.31552e+07
1.30743e+07
1.29685e+07
1.28878e+07
1.27857e+07
1.27052e+07
1.26066e+07
1.25262e+07
1.24313e+07
1.23509e+07
1.22594e+07
1.21789e+07
1.20906e+07
1.20089e+07
1.1923e+07
1.18378e+07
1.17533e+07
1.16639e+07
1.15826e+07
2.15116e+07
2.13087e+07
2.12598e+07
2.09761e+07
2.08407e+07
2.05481e+07
2.04138e+07
2.01354e+07
2.00151e+07
1.97502e+07
1.96377e+07
1.93829e+07
1.9274e+07
1.90278e+07
1.89217e+07
1.86838e+07
1.85806e+07
1.83507e+07
1.82503e+07
1.80282e+07
1.79304e+07
1.77157e+07
1.76204e+07
1.74128e+07
1.73199e+07
1.71191e+07
1.70283e+07
1.6834e+07
1.67453e+07
1.65574e+07
1.64705e+07
1.62886e+07
1.62035e+07
1.60275e+07
1.5944e+07
1.57736e+07
1.56916e+07
1.55267e+07
1.5446e+07
1.52864e+07
1.52069e+07
1.50524e+07
1.49741e+07
1.48246e+07
1.47473e+07
1.46025e+07
1.45262e+07
1.43861e+07
1.43106e+07
1.4175e+07
1.41002e+07
1.3969e+07
1.38948e+07
1.37679e+07
1.36943e+07
1.35716e+07
1.34984e+07
1.33798e+07
1.3307e+07
1.31923e+07
1.31198e+07
1.30091e+07
1.29367e+07
1.28298e+07
1.27575e+07
1.26544e+07
1.25821e+07
1.24827e+07
1.24104e+07
1.23146e+07
1.22422e+07
1.215e+07
1.20774e+07
1.19884e+07
1.19145e+07
1.18281e+07
1.17508e+07
1.1666e+07
1.15845e+07
1.15029e+07
2.10244e+07
2.0814e+07
2.0781e+07
2.04931e+07
2.03772e+07
2.00817e+07
1.99672e+07
1.96862e+07
1.95849e+07
1.93174e+07
1.9223e+07
1.89655e+07
1.88741e+07
1.86253e+07
1.85361e+07
1.82956e+07
1.82086e+07
1.79762e+07
1.78914e+07
1.76668e+07
1.75842e+07
1.7367e+07
1.72864e+07
1.70764e+07
1.69977e+07
1.67945e+07
1.67175e+07
1.65209e+07
1.64455e+07
1.62553e+07
1.61814e+07
1.59974e+07
1.59248e+07
1.57467e+07
1.56753e+07
1.55029e+07
1.54327e+07
1.52659e+07
1.51967e+07
1.50352e+07
1.4967e+07
1.48106e+07
1.47433e+07
1.45919e+07
1.45253e+07
1.43789e+07
1.43129e+07
1.41712e+07
1.41058e+07
1.39687e+07
1.39038e+07
1.37712e+07
1.37067e+07
1.35784e+07
1.35143e+07
1.33903e+07
1.33264e+07
1.32065e+07
1.31428e+07
1.3027e+07
1.29634e+07
1.28516e+07
1.2788e+07
1.26801e+07
1.26165e+07
1.25124e+07
1.24487e+07
1.23483e+07
1.22844e+07
1.21878e+07
1.21237e+07
1.20308e+07
1.19663e+07
1.18767e+07
1.18109e+07
1.17239e+07
1.16547e+07
1.15695e+07
1.14963e+07
1.14144e+07
2.05114e+07
2.02942e+07
2.0277e+07
1.99857e+07
1.98892e+07
1.95918e+07
1.9497e+07
1.92141e+07
1.91318e+07
1.88623e+07
1.8786e+07
1.85266e+07
1.84526e+07
1.82018e+07
1.81294e+07
1.78869e+07
1.78161e+07
1.75817e+07
1.75127e+07
1.72861e+07
1.72187e+07
1.69996e+07
1.69336e+07
1.67217e+07
1.66571e+07
1.64521e+07
1.63889e+07
1.61905e+07
1.61284e+07
1.59364e+07
1.58754e+07
1.56897e+07
1.56296e+07
1.54498e+07
1.53907e+07
1.52167e+07
1.51584e+07
1.49899e+07
1.49323e+07
1.47692e+07
1.47123e+07
1.45544e+07
1.44981e+07
1.43453e+07
1.42894e+07
1.41415e+07
1.40861e+07
1.3943e+07
1.38879e+07
1.37494e+07
1.36946e+07
1.35607e+07
1.35061e+07
1.33766e+07
1.33221e+07
1.31969e+07
1.31425e+07
1.30215e+07
1.29671e+07
1.28502e+07
1.27957e+07
1.2683e+07
1.26283e+07
1.25195e+07
1.24647e+07
1.23597e+07
1.23047e+07
1.22035e+07
1.21482e+07
1.20508e+07
1.19952e+07
1.19015e+07
1.18454e+07
1.17552e+07
1.16977e+07
1.16102e+07
1.15494e+07
1.14638e+07
1.1399e+07
1.13168e+07
1.99745e+07
1.97512e+07
1.97494e+07
1.94556e+07
1.93785e+07
1.90798e+07
1.90046e+07
1.87206e+07
1.86571e+07
1.83863e+07
1.83281e+07
1.80673e+07
1.80107e+07
1.77585e+07
1.77028e+07
1.74589e+07
1.74043e+07
1.71685e+07
1.71151e+07
1.68871e+07
1.68348e+07
1.66143e+07
1.6563e+07
1.63496e+07
1.62993e+07
1.60928e+07
1.60433e+07
1.58435e+07
1.57948e+07
1.56015e+07
1.55534e+07
1.53663e+07
1.53188e+07
1.51377e+07
1.50908e+07
1.49155e+07
1.48691e+07
1.46993e+07
1.46534e+07
1.4489e+07
1.44434e+07
1.42843e+07
1.4239e+07
1.4085e+07
1.404e+07
1.38909e+07
1.3846e+07
1.37018e+07
1.36571e+07
1.35175e+07
1.34728e+07
1.33379e+07
1.32931e+07
1.31626e+07
1.31178e+07
1.29917e+07
1.29468e+07
1.28249e+07
1.27799e+07
1.26621e+07
1.26169e+07
1.25032e+07
1.24577e+07
1.2348e+07
1.23021e+07
1.21964e+07
1.21502e+07
1.20483e+07
1.20017e+07
1.19036e+07
1.18566e+07
1.17622e+07
1.17146e+07
1.16238e+07
1.15747e+07
1.14868e+07
1.14344e+07
1.13485e+07
1.12923e+07
1.12098e+07
1.94155e+07
1.91866e+07
1.92001e+07
1.89046e+07
1.88466e+07
1.85474e+07
1.84917e+07
1.82072e+07
1.81624e+07
1.7891e+07
1.78507e+07
1.75891e+07
1.75497e+07
1.72967e+07
1.72577e+07
1.7013e+07
1.69744e+07
1.67377e+07
1.66999e+07
1.64709e+07
1.64337e+07
1.62122e+07
1.61755e+07
1.59612e+07
1.59249e+07
1.57175e+07
1.56817e+07
1.5481e+07
1.54455e+07
1.52512e+07
1.52161e+07
1.5028e+07
1.49931e+07
1.4811e+07
1.47764e+07
1.46e+07
1.45656e+07
1.43948e+07
1.43605e+07
1.41952e+07
1.41609e+07
1.40009e+07
1.39667e+07
1.38118e+07
1.37775e+07
1.36276e+07
1.35933e+07
1.34482e+07
1.34137e+07
1.32734e+07
1.32388e+07
1.3103e+07
1.30682e+07
1.29369e+07
1.29019e+07
1.2775e+07
1.27396e+07
1.2617e+07
1.25814e+07
1.24629e+07
1.24269e+07
1.23125e+07
1.22761e+07
1.21658e+07
1.21289e+07
1.20225e+07
1.19852e+07
1.18826e+07
1.18448e+07
1.17461e+07
1.17077e+07
1.16128e+07
1.15738e+07
1.14824e+07
1.14419e+07
1.13534e+07
1.13098e+07
1.12234e+07
1.1176e+07
1.10931e+07
1.88361e+07
1.86025e+07
1.86308e+07
1.83343e+07
1.82953e+07
1.79963e+07
1.79598e+07
1.76756e+07
1.76492e+07
1.73778e+07
1.73551e+07
1.70935e+07
1.7071e+07
1.68179e+07
1.67952e+07
1.65502e+07
1.65276e+07
1.62906e+07
1.62681e+07
1.60388e+07
1.60164e+07
1.57945e+07
1.57722e+07
1.55574e+07
1.55351e+07
1.53272e+07
1.5305e+07
1.51037e+07
1.50815e+07
1.48865e+07
1.48643e+07
1.46755e+07
1.46532e+07
1.44704e+07
1.4448e+07
1.4271e+07
1.42484e+07
1.40771e+07
1.40543e+07
1.38883e+07
1.38654e+07
1.37047e+07
1.36815e+07
1.3526e+07
1.35025e+07
1.33519e+07
1.33282e+07
1.31824e+07
1.31584e+07
1.30174e+07
1.29929e+07
1.28565e+07
1.28317e+07
1.26997e+07
1.26745e+07
1.25469e+07
1.25212e+07
1.2398e+07
1.23718e+07
1.22527e+07
1.2226e+07
1.21111e+07
1.20838e+07
1.19729e+07
1.19451e+07
1.18381e+07
1.18097e+07
1.17066e+07
1.16776e+07
1.15783e+07
1.15487e+07
1.14532e+07
1.14229e+07
1.13309e+07
1.12991e+07
1.12101e+07
1.11752e+07
1.10884e+07
1.10499e+07
1.09666e+07
1.82382e+07
1.80004e+07
1.80433e+07
1.77465e+07
1.77263e+07
1.74281e+07
1.74106e+07
1.71272e+07
1.7119e+07
1.68482e+07
1.68429e+07
1.65817e+07
1.6576e+07
1.63232e+07
1.63168e+07
1.6072e+07
1.60651e+07
1.58282e+07
1.58209e+07
1.55917e+07
1.5584e+07
1.53621e+07
1.53541e+07
1.51393e+07
1.51309e+07
1.49229e+07
1.49141e+07
1.47126e+07
1.47035e+07
1.45084e+07
1.44988e+07
1.43099e+07
1.42999e+07
1.41169e+07
1.41065e+07
1.39292e+07
1.39184e+07
1.37467e+07
1.37355e+07
1.35692e+07
1.35574e+07
1.33964e+07
1.33842e+07
1.32282e+07
1.32155e+07
1.30645e+07
1.30513e+07
1.29051e+07
1.28914e+07
1.27499e+07
1.27356e+07
1.25987e+07
1.25839e+07
1.24515e+07
1.2436e+07
1.2308e+07
1.22919e+07
1.21681e+07
1.21514e+07
1.20319e+07
1.20145e+07
1.1899e+07
1.1881e+07
1.17696e+07
1.17509e+07
1.16433e+07
1.16239e+07
1.15203e+07
1.15002e+07
1.14004e+07
1.13796e+07
1.12835e+07
1.12619e+07
1.11694e+07
1.11463e+07
1.10568e+07
1.10307e+07
1.09435e+07
1.09139e+07
1.08302e+07
1.76236e+07
1.73824e+07
1.74394e+07
1.71431e+07
1.71411e+07
1.68446e+07
1.68456e+07
1.65637e+07
1.65732e+07
1.63038e+07
1.63154e+07
1.60553e+07
1.60661e+07
1.58142e+07
1.58236e+07
1.55797e+07
1.55881e+07
1.5352e+07
1.53596e+07
1.51309e+07
1.51377e+07
1.49163e+07
1.49224e+07
1.47079e+07
1.47132e+07
1.45055e+07
1.451e+07
1.43087e+07
1.43125e+07
1.41176e+07
1.41206e+07
1.39318e+07
1.39341e+07
1.37511e+07
1.37527e+07
1.35754e+07
1.35763e+07
1.34045e+07
1.34047e+07
1.32383e+07
1.32377e+07
1.30765e+07
1.30752e+07
1.29191e+07
1.29171e+07
1.27659e+07
1.27632e+07
1.26168e+07
1.26133e+07
1.24716e+07
1.24673e+07
1.23302e+07
1.23252e+07
1.21925e+07
1.21868e+07
1.20584e+07
1.20519e+07
1.19278e+07
1.19206e+07
1.18006e+07
1.17926e+07
1.16767e+07
1.16679e+07
1.1556e+07
1.15464e+07
1.14384e+07
1.1428e+07
1.13239e+07
1.13126e+07
1.12124e+07
1.12003e+07
1.11038e+07
1.10909e+07
1.09979e+07
1.09834e+07
1.08935e+07
1.08761e+07
1.07886e+07
1.07679e+07
1.06838e+07
1.69941e+07
1.67502e+07
1.68209e+07
1.65256e+07
1.65416e+07
1.62473e+07
1.62665e+07
1.59867e+07
1.60136e+07
1.57459e+07
1.57742e+07
1.55157e+07
1.55425e+07
1.5292e+07
1.53171e+07
1.50744e+07
1.5098e+07
1.4863e+07
1.48852e+07
1.46576e+07
1.46786e+07
1.44581e+07
1.4478e+07
1.42643e+07
1.4283e+07
1.4076e+07
1.40936e+07
1.3893e+07
1.39095e+07
1.37151e+07
1.37305e+07
1.35421e+07
1.35565e+07
1.33739e+07
1.33873e+07
1.32103e+07
1.32227e+07
1.30512e+07
1.30626e+07
1.28964e+07
1.29068e+07
1.27458e+07
1.27553e+07
1.25993e+07
1.26078e+07
1.24567e+07
1.24643e+07
1.23179e+07
1.23245e+07
1.21828e+07
1.21885e+07
1.20513e+07
1.20561e+07
1.19233e+07
1.19272e+07
1.17988e+07
1.18017e+07
1.16775e+07
1.16795e+07
1.15594e+07
1.15605e+07
1.14444e+07
1.14447e+07
1.13326e+07
1.13319e+07
1.12236e+07
1.12221e+07
1.11176e+07
1.11152e+07
1.10145e+07
1.10112e+07
1.09142e+07
1.09099e+07
1.08165e+07
1.08107e+07
1.07203e+07
1.07117e+07
1.06237e+07
1.06119e+07
1.05275e+07
1.63516e+07
1.61054e+07
1.61894e+07
1.58959e+07
1.59293e+07
1.56378e+07
1.56747e+07
1.53976e+07
1.54414e+07
1.51761e+07
1.52207e+07
1.49642e+07
1.50068e+07
1.47582e+07
1.47985e+07
1.45576e+07
1.45959e+07
1.43625e+07
1.43991e+07
1.41729e+07
1.42079e+07
1.39887e+07
1.40221e+07
1.38096e+07
1.38415e+07
1.36356e+07
1.36659e+07
1.34663e+07
1.34953e+07
1.33018e+07
1.33294e+07
1.31417e+07
1.3168e+07
1.29861e+07
1.30111e+07
1.28347e+07
1.28584e+07
1.26875e+07
1.271e+07
1.25443e+07
1.25655e+07
1.24049e+07
1.2425e+07
1.22693e+07
1.22882e+07
1.21374e+07
1.21552e+07
1.20091e+07
1.20257e+07
1.18842e+07
1.18997e+07
1.17626e+07
1.17771e+07
1.16444e+07
1.16578e+07
1.15293e+07
1.15417e+07
1.14174e+07
1.14287e+07
1.13085e+07
1.13187e+07
1.12025e+07
1.12117e+07
1.10995e+07
1.11077e+07
1.09992e+07
1.10064e+07
1.09018e+07
1.0908e+07
1.0807e+07
1.08123e+07
1.0715e+07
1.07192e+07
1.06254e+07
1.06282e+07
1.05373e+07
1.05374e+07
1.04491e+07
1.04461e+07
1.03613e+07
1.56977e+07
1.545e+07
1.55466e+07
1.52555e+07
1.5306e+07
1.50178e+07
1.5072e+07
1.4798e+07
1.48583e+07
1.45958e+07
1.46562e+07
1.44023e+07
1.44602e+07
1.4214e+07
1.42691e+07
1.40304e+07
1.40831e+07
1.38517e+07
1.39023e+07
1.3678e+07
1.37266e+07
1.35091e+07
1.35557e+07
1.33449e+07
1.33896e+07
1.31851e+07
1.3228e+07
1.30297e+07
1.30709e+07
1.28786e+07
1.29181e+07
1.27316e+07
1.27695e+07
1.25886e+07
1.26249e+07
1.24495e+07
1.24843e+07
1.23142e+07
1.23475e+07
1.21826e+07
1.22144e+07
1.20545e+07
1.2085e+07
1.19299e+07
1.19591e+07
1.18088e+07
1.18365e+07
1.16909e+07
1.17174e+07
1.15762e+07
1.16014e+07
1.14647e+07
1.14886e+07
1.13562e+07
1.13789e+07
1.12507e+07
1.12722e+07
1.11481e+07
1.11684e+07
1.10483e+07
1.10675e+07
1.09514e+07
1.09694e+07
1.08571e+07
1.08741e+07
1.07655e+07
1.07814e+07
1.06765e+07
1.06913e+07
1.05902e+07
1.06039e+07
1.05063e+07
1.0519e+07
1.04249e+07
1.04361e+07
1.03449e+07
1.03536e+07
1.0265e+07
1.02706e+07
1.01854e+07
1.50342e+07
1.47855e+07
1.48944e+07
1.46062e+07
1.46731e+07
1.43889e+07
1.44597e+07
1.41894e+07
1.42657e+07
1.40065e+07
1.40822e+07
1.38314e+07
1.3904e+07
1.36607e+07
1.37302e+07
1.34941e+07
1.35609e+07
1.33319e+07
1.33961e+07
1.31741e+07
1.32359e+07
1.30205e+07
1.308e+07
1.28711e+07
1.29283e+07
1.27257e+07
1.27808e+07
1.25842e+07
1.26373e+07
1.24465e+07
1.24976e+07
1.23126e+07
1.23618e+07
1.21822e+07
1.22296e+07
1.20554e+07
1.21011e+07
1.19321e+07
1.1976e+07
1.18121e+07
1.18544e+07
1.16953e+07
1.1736e+07
1.15818e+07
1.16209e+07
1.14713e+07
1.15089e+07
1.13639e+07
1.14001e+07
1.12595e+07
1.12942e+07
1.11579e+07
1.11912e+07
1.10592e+07
1.10911e+07
1.09632e+07
1.09938e+07
1.087e+07
1.08993e+07
1.07794e+07
1.08074e+07
1.06914e+07
1.07181e+07
1.06059e+07
1.06315e+07
1.05229e+07
1.05473e+07
1.04424e+07
1.04656e+07
1.03643e+07
1.03864e+07
1.02886e+07
1.03096e+07
1.02152e+07
1.02346e+07
1.01432e+07
1.01603e+07
1.00714e+07
1.00856e+07
1.00001e+07
1.43628e+07
1.41136e+07
1.42341e+07
1.39494e+07
1.40323e+07
1.37524e+07
1.38394e+07
1.35732e+07
1.3665e+07
1.34095e+07
1.35001e+07
1.32527e+07
1.33397e+07
1.30996e+07
1.31831e+07
1.295e+07
1.30304e+07
1.28042e+07
1.28816e+07
1.26622e+07
1.27369e+07
1.2524e+07
1.25959e+07
1.23893e+07
1.24588e+07
1.22582e+07
1.23253e+07
1.21306e+07
1.21953e+07
1.20064e+07
1.20689e+07
1.18855e+07
1.19458e+07
1.17678e+07
1.1826e+07
1.16533e+07
1.17095e+07
1.15419e+07
1.15962e+07
1.14335e+07
1.1486e+07
1.13281e+07
1.13787e+07
1.12255e+07
1.12744e+07
1.11258e+07
1.1173e+07
1.10289e+07
1.10744e+07
1.09346e+07
1.09786e+07
1.0843e+07
1.08855e+07
1.0754e+07
1.0795e+07
1.06676e+07
1.0707e+07
1.05836e+07
1.06217e+07
1.05021e+07
1.05388e+07
1.0423e+07
1.04583e+07
1.03463e+07
1.03802e+07
1.02718e+07
1.03045e+07
1.01997e+07
1.02311e+07
1.01298e+07
1.01601e+07
1.00621e+07
1.00912e+07
9.99664e+06
1.00242e+07
9.93261e+06
9.95787e+06
9.86884e+06
9.89139e+06
9.80556e+06
1.3685e+07
1.34359e+07
1.35675e+07
1.32868e+07
1.3385e+07
1.311e+07
1.32126e+07
1.29509e+07
1.30576e+07
1.28062e+07
1.29111e+07
1.26676e+07
1.27685e+07
1.2532e+07
1.26289e+07
1.23993e+07
1.24927e+07
1.22698e+07
1.236e+07
1.21436e+07
1.22306e+07
1.20205e+07
1.21046e+07
1.19006e+07
1.19819e+07
1.17838e+07
1.18624e+07
1.167e+07
1.1746e+07
1.15592e+07
1.16327e+07
1.14513e+07
1.15223e+07
1.13462e+07
1.1415e+07
1.1244e+07
1.13105e+07
1.11445e+07
1.12089e+07
1.10477e+07
1.111e+07
1.09535e+07
1.10138e+07
1.08619e+07
1.09203e+07
1.07729e+07
1.08294e+07
1.06864e+07
1.07411e+07
1.06023e+07
1.06553e+07
1.05206e+07
1.05719e+07
1.04413e+07
1.04909e+07
1.03643e+07
1.04123e+07
1.02895e+07
1.03361e+07
1.0217e+07
1.02621e+07
1.01468e+07
1.01904e+07
1.00787e+07
1.01208e+07
1.00127e+07
1.00535e+07
9.94882e+06
9.98832e+06
9.88706e+06
9.92529e+06
9.82738e+06
9.86436e+06
9.76969e+06
9.80518e+06
9.71346e+06
9.74673e+06
9.6576e+06
9.68828e+06
9.60225e+06
1.30024e+07
1.27538e+07
1.28961e+07
1.26197e+07
1.27327e+07
1.24629e+07
1.25805e+07
1.23238e+07
1.24448e+07
1.2198e+07
1.23166e+07
1.20773e+07
1.21916e+07
1.1959e+07
1.2069e+07
1.18431e+07
1.19492e+07
1.17298e+07
1.18323e+07
1.16192e+07
1.17183e+07
1.15113e+07
1.16071e+07
1.1406e+07
1.14987e+07
1.13034e+07
1.13931e+07
1.12033e+07
1.12902e+07
1.11058e+07
1.11899e+07
1.10108e+07
1.10923e+07
1.09183e+07
1.09973e+07
1.08283e+07
1.09048e+07
1.07406e+07
1.08148e+07
1.06553e+07
1.07272e+07
1.05723e+07
1.06421e+07
1.04916e+07
1.05593e+07
1.04132e+07
1.04789e+07
1.0337e+07
1.04007e+07
1.0263e+07
1.03248e+07
1.01912e+07
1.02511e+07
1.01215e+07
1.01797e+07
1.00538e+07
1.01103e+07
9.98826e+06
1.00431e+07
9.92472e+06
9.97795e+06
9.86318e+06
9.91486e+06
9.80363e+06
9.85379e+06
9.74602e+06
9.79473e+06
9.69034e+06
9.73764e+06
9.63658e+06
9.68254e+06
9.58474e+06
9.6294e+06
9.53476e+06
9.57792e+06
9.4862e+06
9.52724e+06
9.4381e+06
9.47668e+06
9.39053e+06
1.23164e+07
1.20689e+07
1.22212e+07
1.19497e+07
1.20768e+07
1.18127e+07
1.19446e+07
1.16932e+07
1.18279e+07
1.1586e+07
1.17178e+07
1.14831e+07
1.16102e+07
1.13819e+07
1.15044e+07
1.12826e+07
1.14009e+07
1.11853e+07
1.12997e+07
1.10902e+07
1.12008e+07
1.09972e+07
1.11044e+07
1.09065e+07
1.10102e+07
1.08179e+07
1.09184e+07
1.07315e+07
1.08288e+07
1.06472e+07
1.07416e+07
1.0565e+07
1.06565e+07
1.04849e+07
1.05737e+07
1.04069e+07
1.04931e+07
1.0331e+07
1.04147e+07
1.02571e+07
1.03383e+07
1.01853e+07
1.02641e+07
1.01154e+07
1.0192e+07
1.00475e+07
1.01219e+07
9.98157e+06
1.00539e+07
9.91756e+06
9.98787e+06
9.85546e+06
9.92381e+06
9.79524e+06
9.8617e+06
9.73689e+06
9.80152e+06
9.68038e+06
9.74324e+06
9.62568e+06
9.68684e+06
9.57279e+06
9.63229e+06
9.52168e+06
9.57958e+06
9.47233e+06
9.52868e+06
9.42472e+06
9.47958e+06
9.37885e+06
9.4323e+06
9.33473e+06
9.38681e+06
9.29232e+06
9.3429e+06
9.25129e+06
9.29986e+06
9.21082e+06
9.25703e+06
9.17087e+06
1.16285e+07
1.13825e+07
1.15443e+07
1.12779e+07
1.14187e+07
1.11605e+07
1.13062e+07
1.10604e+07
1.12082e+07
1.09715e+07
1.1116e+07
1.08861e+07
1.10255e+07
1.08019e+07
1.09363e+07
1.07188e+07
1.08488e+07
1.06373e+07
1.07631e+07
1.05575e+07
1.06793e+07
1.04794e+07
1.05974e+07
1.0403e+07
1.05174e+07
1.03283e+07
1.04392e+07
1.02554e+07
1.03629e+07
1.01841e+07
1.02885e+07
1.01146e+07
1.02159e+07
1.00469e+07
1.01452e+07
9.98084e+06
1.00763e+07
9.91653e+06
1.00093e+07
9.85395e+06
9.94413e+06
9.79308e+06
9.88075e+06
9.73391e+06
9.81917e+06
9.67643e+06
9.75937e+06
9.62064e+06
9.70134e+06
9.56652e+06
9.64506e+06
9.51405e+06
9.59051e+06
9.46323e+06
9.53768e+06
9.41405e+06
9.48655e+06
9.36648e+06
9.43711e+06
9.32052e+06
9.38934e+06
9.27616e+06
9.34323e+06
9.23337e+06
9.29875e+06
9.19216e+06
9.2559e+06
9.1525e+06
9.21467e+06
9.11439e+06
9.17507e+06
9.07786e+06
9.13711e+06
9.04289e+06
9.10064e+06
9.00925e+06
9.06509e+06
8.97626e+06
9.02982e+06
8.94376e+06
1.094e+07
1.06959e+07
1.08667e+07
1.06059e+07
1.07595e+07
1.05076e+07
1.06664e+07
1.04266e+07
1.05869e+07
1.03557e+07
1.05122e+07
1.02875e+07
1.04386e+07
1.02199e+07
1.03658e+07
1.0153e+07
1.02941e+07
1.00871e+07
1.02238e+07
1.00223e+07
1.01548e+07
9.95882e+06
1.00872e+07
9.89656e+06
1.00211e+07
9.83558e+06
9.95638e+06
9.77591e+06
9.89316e+06
9.71757e+06
9.83142e+06
9.66059e+06
9.77118e+06
9.60498e+06
9.71245e+06
9.55076e+06
9.65523e+06
9.49793e+06
9.59952e+06
9.44651e+06
9.54533e+06
9.39649e+06
9.49265e+06
9.34789e+06
9.44149e+06
9.3007e+06
9.39184e+06
9.25492e+06
9.34369e+06
9.21055e+06
9.29704e+06