/*--------------------------------*- C++ -*----------------------------------*\
| =========                 |                                                 |
| \\      /  F ield         | OpenFOAM: The Open Source CFD Toolbox           |
|  \\    /   O peration     | Version:  v2012                                 |
|   \\  /    A nd           | Website:  www.openfoam.com                      |
|    \\/     M anipulation  |                                                 |
\*---------------------------------------------------------------------------*/
FoamFile
{
    version     2.0;
    format      ascii;
    class       volSymmTensorField;
    location    "11";
    object      epsilonP;
}
// * * * * * * * * * * * * * * * * * * * * * * * * * * * * * * * * * * * * * //

dimensions      [0 0 0 0 0 0 0];


internalField   nonuniform List<symmTensor> 
32000
(
(0.00996982 -0.000229685 -4.70308e-19 -0.00919719 4.69515e-18 -0.000772629)
(0.00986178 -0.00030817 -1.11932e-18 -0.00910854 4.30581e-18 -0.000753242)
(0.00982486 -0.000204239 -7.07855e-19 -0.00903005 5.05938e-18 -0.000794803)
(0.00969388 -0.000302178 -1.42792e-18 -0.00892619 6.96918e-18 -0.000767683)
(0.00965019 -0.000178481 -6.02933e-19 -0.00883479 5.5315e-18 -0.000815402)
(0.0095085 -0.000291383 -1.33327e-18 -0.00872808 7.27289e-18 -0.000780422)
(0.00945665 -0.000156047 -6.10199e-19 -0.00862237 6.66025e-18 -0.000834279)
(0.00930792 -0.000281188 -1.26343e-18 -0.0085154 8.40878e-18 -0.000792518)
(0.00924795 -0.000137093 -5.78941e-19 -0.00839647 7.32771e-18 -0.000851479)
(0.00909344 -0.000272494 -1.16361e-18 -0.00828931 9.7556e-18 -0.000804135)
(0.00902589 -0.000121021 -5.07242e-19 -0.00815877 8.97522e-18 -0.000867127)
(0.00886593 -0.000265258 -1.27676e-18 -0.00805074 8.41213e-18 -0.000815196)
(0.00879147 -0.000107159 -8.70034e-19 -0.00791022 9.34679e-18 -0.000881252)
(0.00862628 -0.000259044 -9.08398e-19 -0.00780071 1.00599e-17 -0.000825575)
(0.00854558 -9.49422e-05 -8.30161e-20 -0.00765171 1.1644e-17 -0.000893875)
(0.00837536 -0.00025348 -8.64591e-20 -0.00754023 1.05606e-17 -0.000835136)
(0.00828907 -8.39349e-05 -6.36312e-21 -0.00738408 1.38889e-17 -0.000904984)
(0.0081141 -0.000248265 2.03024e-18 -0.00727032 1.17576e-17 -0.000843789)
(0.00802278 -7.38218e-05 1.95765e-18 -0.00710825 1.55661e-17 -0.000914522)
(0.00784329 -0.000243214 2.97039e-18 -0.00699196 9.78059e-18 -0.000851335)
(0.00774749 -6.43098e-05 9.28881e-19 -0.00682494 1.38627e-17 -0.000922554)
(0.00756379 -0.00023816 8.49108e-19 -0.00670621 7.12572e-18 -0.000857588)
(0.007464 -5.52922e-05 -6.10143e-20 -0.00653515 1.05936e-17 -0.000928841)
(0.00727652 -0.000232908 -4.5729e-20 -0.00641412 2.23769e-18 -0.000862399)
(0.00717317 -4.6657e-05 -9.2995e-20 -0.00623992 7.29437e-18 -0.000933249)
(0.0069824 -0.000227383 1.21747e-18 -0.00611666 9.94426e-19 -0.000865738)
(0.00687586 -3.83054e-05 1.27269e-18 -0.0059402 -2.91021e-18 -0.000935659)
(0.00668209 -0.000221546 -1.09099e-19 -0.00581484 -4.83336e-18 -0.000867245)
(0.00657278 -3.01655e-05 -1.37492e-18 -0.00563675 -7.35079e-18 -0.000936032)
(0.00637632 -0.000215321 -2.87516e-18 -0.00550964 -6.57795e-18 -0.00086669)
(0.00626462 -2.23009e-05 -1.43929e-18 -0.00533066 -8.86492e-18 -0.000933956)
(0.00606578 -0.000208675 -2.90764e-18 -0.00520173 -5.81659e-18 -0.000864048)
(0.005952 -1.46498e-05 -1.47012e-18 -0.00502284 -2.92472e-18 -0.000929163)
(0.005751 -0.000201588 -1.53439e-18 -0.004892 -4.76821e-19 -0.000858995)
(0.00563553 -7.06064e-06 -5.38513e-20 -0.0047137 -2.79535e-19 -0.000921826)
(0.00543246 -0.000194008 -8.50095e-19 -0.00458141 -2.29924e-18 -0.000851057)
(0.00531568 2.68285e-07 -8.40105e-19 -0.00440447 -1.7978e-18 -0.00091121)
(0.00511087 -0.000185821 -2.88784e-19 -0.00427065 -1.51368e-18 -0.000840217)
(0.0049931 7.34795e-06 5.29418e-19 -0.00409615 -7.71899e-19 -0.000896952)
(0.00478677 -0.000177026 1.66247e-18 -0.00396064 3.5025e-19 -0.000826135)
(0.00466846 1.4342e-05 1.10429e-18 -0.00378905 8.69267e-19 -0.000879407)
(0.00446079 -0.000167545 1.07059e-18 -0.00365267 5.64152e-19 -0.000808119)
(0.0043424 2.08735e-05 -7.03677e-20 -0.00348487 1.61337e-19 -0.000857528)
(0.00413386 -0.000157349 4.58249e-19 -0.00334746 2.04252e-19 -0.000786399)
(0.00401581 2.69619e-05 5.04799e-19 -0.00318468 -7.46792e-20 -0.000831131)
(0.00380682 -0.000146458 1.01563e-18 -0.00304648 -3.68651e-19 -0.000760342)
(0.0036897 3.2602e-05 5.10152e-19 -0.00288918 2.46565e-19 -0.000800515)
(0.00348076 -0.000134821 5.60436e-19 -0.00275143 -3.89189e-20 -0.000729336)
(0.00336524 3.73606e-05 3.35138e-20 -0.00260062 9.68946e-19 -0.000764625)
(0.00315725 -0.000122576 -3.28501e-19 -0.00246291 2.72848e-19 -0.000694344)
(0.00304387 4.13758e-05 -3.61963e-19 -0.00231985 2.2221e-18 -0.000724017)
(0.0028376 -0.000109824 1.05104e-19 -0.00218359 1.71982e-18 -0.000654005)
(0.00272717 4.42917e-05 4.22891e-19 -0.00204869 1.39073e-18 -0.000678478)
(0.00252376 -9.66503e-05 6.29627e-19 -0.00191476 8.40804e-19 -0.000609002)
(0.00241708 4.58749e-05 2.00094e-19 -0.00178946 -7.12598e-19 -0.000627621)
(0.00221787 -8.33132e-05 2.38899e-19 -0.00165801 7.04846e-19 -0.00055986)
(0.00211569 4.64396e-05 3.81224e-20 -0.00154232 -7.40892e-20 -0.000573368)
(0.00192199 -7.00727e-05 5.79798e-19 -0.00141601 3.47105e-19 -0.000505981)
(0.00182525 4.5408e-05 5.05066e-19 -0.00131061 -7.3714e-19 -0.000514632)
(0.00163876 -5.7281e-05 5.11067e-19 -0.00118881 -6.9256e-19 -0.00044995)
(0.00154802 4.3213e-05 8.21632e-21 -0.00109453 -4.01664e-19 -0.000453484)
(0.00137024 -4.52377e-05 1.01533e-19 -0.000979469 5.59271e-19 -0.000390769)
(0.00128629 3.96956e-05 1.03654e-19 -0.000895903 1.55212e-20 -0.000390386)
(0.00111872 -3.42498e-05 2.39872e-19 -0.000787879 -3.31029e-20 -0.000330845)
(0.00104215 3.51094e-05 1.25768e-19 -0.000715595 -4.65928e-20 -0.000326556)
(0.000886162 -2.45732e-05 2.72799e-19 -0.000615296 -5.42579e-19 -0.000270866)
(0.000817367 2.97851e-05 1.33167e-19 -0.000553368 -1.89963e-19 -0.000263999)
(0.000673979 -1.64478e-05 2.70613e-19 -0.000461959 6.15743e-20 -0.000212019)
(0.000613449 2.38232e-05 1.10155e-19 -0.000410382 -1.0819e-19 -0.000203066)
(0.000483443 -9.92719e-06 1.41573e-19 -0.000327052 -3.15156e-19 -0.000156391)
(0.000431243 1.77583e-05 4.31335e-20 -0.000285021 -4.12348e-20 -0.000146222)
(0.000314951 -5.12165e-06 2.61595e-20 -0.000210795 -3.09699e-20 -0.000104156)
(0.000271338 1.16983e-05 -1.50115e-20 -0.000177582 1.51797e-19 -9.37559e-05)
(0.000168562 -1.94928e-06 4.65066e-21 -0.000111723 2.00455e-20 -5.68389e-05)
(0.00013356 5.97257e-06 9.35951e-21 -8.67804e-05 1.49752e-19 -4.67796e-05)
(4.3582e-05 -2.55159e-07 9.43511e-21 -2.856e-05 1.25801e-20 -1.5022e-05)
(1.70974e-05 7.87278e-07 2.40956e-21 -1.10035e-05 -4.97458e-21 -6.09384e-06)
(0 0 0 0 0 0)
(0 0 0 0 0 0)
(0 0 0 0 0 0)
(0.0099035 -0.000542522 -2.16783e-18 -0.00912081 5.532e-18 -0.000782689)
(0.0097726 -0.000639529 -3.16789e-18 -0.00902279 5.3145e-18 -0.000749809)
(0.00973759 -0.000539134 -2.78928e-18 -0.00894015 5.32089e-18 -0.000797435)
(0.00959451 -0.000636229 -3.39524e-18 -0.00882739 6.2854e-18 -0.000767117)
(0.00956038 -0.000523615 -2.78216e-18 -0.00874685 8.97388e-18 -0.000813531)
(0.0094056 -0.000626107 -3.24184e-18 -0.00862345 8.32751e-18 -0.000782153)
(0.00936961 -0.000503559 -2.39768e-18 -0.00854006 7.96824e-18 -0.00082955)
(0.00920449 -0.000612991 -3.01765e-18 -0.0084087 7.971e-18 -0.000795791)
(0.00916523 -0.000481683 -2.30065e-18 -0.00832026 8.61712e-18 -0.000844972)
(0.0089909 -0.000598517 -2.77927e-18 -0.00818257 7.01811e-18 -0.000808335)
(0.00894758 -0.00045924 -2.38791e-18 -0.00808806 8.91998e-18 -0.000859517)
(0.00876519 -0.000583356 -6.07033e-18 -0.00794528 1.09343e-17 -0.000819901)
(0.00871735 -0.000436688 -4.77514e-18 -0.0078443 1.02393e-17 -0.00087305)
(0.00852778 -0.000567828 -7.49624e-18 -0.00769731 1.23165e-17 -0.000830471)
(0.00847525 -0.000414267 -3.50354e-18 -0.00758987 1.21967e-17 -0.00088538)
(0.0082794 -0.000551921 -3.29829e-18 -0.00743938 1.3768e-17 -0.000840015)
(0.00822212 -0.00039206 1.98679e-18 -0.00732573 1.27662e-17 -0.000896394)
(0.00802066 -0.000535739 -1.76685e-18 -0.00717215 6.35953e-18 -0.000848504)
(0.00795875 -0.000370121 -8.60134e-19 -0.00705281 2.90478e-18 -0.000905937)
(0.0077524 -0.000519261 -4.34872e-18 -0.00689656 -8.89983e-19 -0.000855842)
(0.00768603 -0.0003484 -5.14184e-19 -0.00677212 -2.60075e-18 -0.000913917)
(0.00747544 -0.000502414 -2.17075e-18 -0.00661359 -1.32369e-18 -0.000861849)
(0.0074049 -0.000326803 -5.17351e-19 -0.00648469 -2.7094e-18 -0.000920213)
(0.0071906 -0.000485036 2.75434e-18 -0.00632423 -5.53381e-18 -0.000866368)
(0.00711619 -0.000305297 4.49094e-18 -0.00619155 -4.95446e-18 -0.000924641)
(0.00689858 -0.000467123 6.80272e-18 -0.00602928 -5.21137e-18 -0.000869302)
(0.00682063 -0.000283888 2.1078e-18 -0.00589366 -3.0592e-18 -0.000926971)
(0.00660013 -0.000448599 -2.65179e-19 -0.00572962 -3.30348e-18 -0.000870505)
(0.00651906 -0.00026245 -3.95185e-18 -0.0055919 -3.75573e-18 -0.000927163)
(0.00629565 -0.000429556 -4.28914e-18 -0.00542604 -8.39942e-19 -0.000869605)
(0.00621192 -0.000240975 -4.58924e-18 -0.00528701 -2.425e-18 -0.000924906)
(0.00598582 -0.000409714 -4.28841e-18 -0.00511943 -1.75619e-18 -0.00086639)
(0.00589985 -0.000219489 -2.67635e-18 -0.00497997 -2.10797e-18 -0.000919885)
(0.00567124 -0.000389189 -8.48487e-19 -0.00481039 -6.35761e-19 -0.000860856)
(0.00558347 -0.000197886 -4.72208e-19 -0.00467154 -1.71267e-18 -0.000911932)
(0.00535236 -0.000367853 -3.74636e-19 -0.0045 -3.14949e-19 -0.000852361)
(0.00526332 -0.000176139 -2.31232e-19 -0.00436248 -6.81493e-19 -0.000900838)
(0.00502981 -0.000345522 9.60734e-19 -0.00418927 -8.99324e-19 -0.000840542)
(0.00493996 -0.000154391 2.02993e-18 -0.00405389 -8.55328e-19 -0.000886065)
(0.00470444 -0.000322329 8.08666e-19 -0.0038789 2.66185e-18 -0.000825539)
(0.00461422 -0.000132596 5.89851e-19 -0.00374674 1.27095e-18 -0.000867478)
(0.00437682 -0.00029821 -5.70557e-20 -0.00357035 3.35732e-18 -0.000806467)
(0.00428679 -0.000110934 9.80637e-19 -0.0034419 7.32405e-19 -0.000844883)
(0.004048 -0.000273113 1.45244e-18 -0.00326502 1.73692e-18 -0.000782987)
(0.00395859 -8.97169e-05 1.53014e-18 -0.00314104 2.53877e-19 -0.000817548)
(0.0037194 -0.000247233 1.21845e-18 -0.00296392 2.28509e-18 -0.000755482)
(0.00363111 -6.89777e-05 8.4973e-19 -0.00284528 1.13211e-19 -0.000785828)
(0.00339198 -0.000220867 5.44928e-19 -0.00266918 1.28296e-18 -0.000722795)
(0.00330525 -4.91844e-05 -1.09299e-19 -0.00255601 9.87341e-19 -0.00074924)
(0.00306768 -0.000194077 3.90539e-19 -0.00238236 1.05295e-18 -0.000685325)
(0.00298291 -3.07969e-05 6.37543e-19 -0.00227552 3.89907e-19 -0.000707391)
(0.00274856 -0.000167261 1.19926e-18 -0.00210533 1.00842e-18 -0.000643233)
(0.00266623 -1.39419e-05 8.81072e-19 -0.00200483 6.73337e-19 -0.000661397)
(0.00243653 -0.000140957 5.8689e-19 -0.00184062 3.14565e-19 -0.000595913)
(0.00235692 7.20496e-07 4.05598e-19 -0.00174659 1.43429e-19 -0.000610333)
(0.00213444 -0.000115534 3.26445e-19 -0.00158909 -7.3486e-20 -0.000545354)
(0.0020579 1.30612e-05 6.97235e-19 -0.00150218 8.66296e-19 -0.000555718)
(0.00184429 -9.17131e-05 3.66842e-19 -0.00135365 1.9353e-18 -0.000490633)
(0.00177104 2.26517e-05 2.99535e-19 -0.00127332 9.78497e-19 -0.000497725)
(0.00156877 -6.98758e-05 -8.79582e-20 -0.00113497 1.51249e-18 -0.000433796)
(0.00149918 2.93674e-05 2.20638e-19 -0.00106188 1.09889e-18 -0.000437293)
(0.00130994 -5.06337e-05 3.19521e-19 -0.000934646 7.82474e-19 -0.000375297)
(0.00124429 3.31854e-05 3.11133e-19 -0.000868223 -7.23279e-20 -0.000376071)
(0.00106964 -3.42535e-05 3.03754e-19 -0.000753126 1.25043e-19 -0.000316516)
(0.00100829 3.41893e-05 3.40938e-19 -0.000693916 -2.50117e-19 -0.000314372)
(0.000849412 -2.09695e-05 3.23276e-19 -0.00059046 -4.21625e-19 -0.000258953)
(0.000792728 3.27385e-05 3.24895e-19 -0.000538027 1.11511e-19 -0.000254701)
(0.000649928 -1.09397e-05 2.64948e-19 -0.000446814 5.68924e-20 -0.000203114)
(0.000598264 2.90803e-05 2.18723e-19 -0.000401271 -4.54283e-19 -0.000196994)
(0.000471976 -3.86157e-06 1.57112e-19 -0.000320853 -3.0268e-19 -0.000151123)
(0.000425602 2.38602e-05 7.3668e-20 -0.000282188 -3.42423e-19 -0.000143414)
(0.000315361 2.10162e-07 3.16155e-20 -0.000212508 2.39609e-19 -0.000102853)
(0.000274522 1.73031e-05 1.81944e-20 -0.000180247 -2.3146e-20 -9.42744e-05)
(0.000180313 1.83107e-06 3.4585e-20 -0.000120523 1.67213e-20 -5.97902e-05)
(0.000144797 1.01073e-05 3.83557e-20 -9.4369e-05 -9.01383e-20 -5.04277e-05)
(6.76126e-05 1.419e-06 1.93958e-20 -4.48129e-05 -3.87917e-20 -2.27997e-05)
(4.36127e-05 3.38465e-06 9.85856e-21 -2.82593e-05 0 -1.53534e-05)
(0 0 0 0 0 0)
(0 0 0 0 0 0)
(0 0 0 0 0 0)
(0.00981072 -0.000878767 -4.31424e-18 -0.00902542 7.03857e-18 -0.000785303)
(0.00964993 -0.00097965 -5.7516e-18 -0.00890036 8.05205e-18 -0.000749566)
(0.00962465 -0.000871971 -5.40319e-18 -0.0088269 7.55848e-18 -0.000797751)
(0.00945693 -0.000967147 -5.99819e-18 -0.00868968 1.05631e-17 -0.000767251)
(0.00943508 -0.000855812 -4.67374e-18 -0.0086236 9.38631e-18 -0.000811476)
(0.00925757 -0.000950685 -3.9704e-18 -0.00847439 8.69705e-18 -0.000783175)
(0.00923693 -0.000833858 -3.38516e-18 -0.00841143 8.68327e-18 -0.000825499)
(0.00904939 -0.000931234 -3.90828e-18 -0.00825179 9.9892e-18 -0.000797606)
(0.00902843 -0.000808181 -3.91291e-18 -0.00818912 8.99352e-18 -0.000839312)
(0.00883153 -0.00090958 -6.56877e-18 -0.00802079 8.43605e-18 -0.000810741)
(0.00880909 -0.000779987 -9.08169e-18 -0.0079565 1.10197e-17 -0.000852589)
(0.00860369 -0.00088626 -1.66962e-17 -0.00778103 1.28688e-17 -0.000822665)
(0.00857887 -0.000750118 -1.61718e-17 -0.00771377 1.44332e-17 -0.000865097)
(0.00836597 -0.000861633 -1.33216e-17 -0.00753254 1.67281e-17 -0.000833425)
(0.00833812 -0.000718984 -4.16668e-18 -0.00746143 1.42732e-17 -0.000876687)
(0.00811838 -0.000836027 1.40516e-18 -0.00727539 1.17399e-17 -0.000842991)
(0.00808707 -0.00068702 -1.44737e-18 -0.00719995 6.94275e-18 -0.000887117)
(0.0078614 -0.000809525 2.23399e-18 -0.00701007 -1.04157e-18 -0.000851325)
(0.00782635 -0.000654468 -1.34447e-18 -0.00693016 -5.15128e-18 -0.000896197)
(0.00759553 -0.000782183 -1.16003e-19 -0.00673715 -1.10025e-18 -0.000858379)
(0.00755662 -0.000621448 -4.40058e-18 -0.00665289 -1.25751e-18 -0.000903736)
(0.00732138 -0.000753914 2.50826e-18 -0.0064573 4.459e-19 -0.000864085)
(0.00727865 -0.000587922 8.5814e-18 -0.00636902 -7.68027e-18 -0.000909632)
(0.00703931 -0.000724758 1.41397e-17 -0.00617109 -5.06006e-18 -0.000868218)
(0.00699293 -0.000553998 1.06349e-17 -0.00607925 -5.23414e-18 -0.000913685)
(0.00674973 -0.000694727 8.86898e-18 -0.00587912 -2.5522e-18 -0.000870606)
(0.00670001 -0.000519638 2.43949e-18 -0.00578441 -4.52543e-19 -0.0009156)
(0.00645304 -0.000663711 4.05993e-19 -0.00558191 8.97142e-19 -0.000871133)
(0.00640031 -0.000484983 -2.3741e-18 -0.00548519 -1.30251e-18 -0.000915117)
(0.00614985 -0.000631667 -2.3475e-18 -0.00528023 -9.69655e-19 -0.000869617)
(0.0060946 -0.000449731 -4.01511e-18 -0.00518239 5.75234e-19 -0.00091221)
(0.00584035 -0.000598565 -1.5548e-18 -0.00497478 -1.22515e-18 -0.000865574)
(0.00578309 -0.000414075 -3.22005e-19 -0.00487667 6.37499e-19 -0.000906421)
(0.00552521 -0.000564237 1.01314e-18 -0.00466651 -1.31038e-18 -0.000858698)
(0.00546644 -0.000378023 4.87439e-19 -0.00456906 -5.53002e-19 -0.000897381)
(0.00520517 -0.000528621 9.75408e-20 -0.00435615 -2.98304e-19 -0.000849017)
(0.00514543 -0.00034137 3.70001e-19 -0.00426042 -4.36286e-19 -0.000885009)
(0.00488076 -0.000491637 4.2093e-19 -0.00404504 6.11475e-19 -0.000835719)
(0.0048206 -0.00030443 1.13714e-19 -0.00395164 7.10306e-19 -0.000868967)
(0.00455289 -0.000453455 -5.76875e-19 -0.00373452 6.19939e-19 -0.000818364)
(0.00449279 -0.000267425 -2.83346e-19 -0.00364413 1.42258e-18 -0.000848662)
(0.00422289 -0.000414037 6.32554e-19 -0.00342565 6.94853e-19 -0.000797241)
(0.00416329 -0.000230323 1.49228e-18 -0.00333907 -6.42482e-19 -0.000824223)
(0.00389185 -0.000373596 1.32228e-18 -0.00312055 9.73421e-20 -0.000771299)
(0.00383316 -0.000193668 1.24788e-18 -0.00303792 7.23861e-19 -0.000795238)
(0.00356149 -0.00033247 9.75404e-19 -0.00282108 -6.79058e-19 -0.000740407)
(0.00350389 -0.000158158 8.03833e-19 -0.00274273 -5.90297e-19 -0.000761159)
(0.00323408 -0.000291026 9.66596e-19 -0.00252901 1.58367e-19 -0.000705069)
(0.00317781 -0.000123813 1.34585e-18 -0.00245487 1.91616e-19 -0.000722936)
(0.00291153 -0.000250048 1.71606e-18 -0.0022472 2.98188e-19 -0.000664328)
(0.00285659 -9.16405e-05 1.45146e-18 -0.00217698 -3.72719e-19 -0.000679615)
(0.00259677 -0.000209909 1.40924e-18 -0.0019773 -1.49271e-19 -0.000619468)
(0.00254309 -6.20896e-05 9.53457e-19 -0.00191105 -8.95685e-19 -0.000632047)
(0.00229225 -0.000171652 7.03279e-19 -0.00172196 1.34583e-18 -0.000570292)
(0.00223968 -3.57817e-05 3.3244e-19 -0.00165893 3.53156e-19 -0.000580746)
(0.00200077 -0.000135884 4.00574e-19 -0.00148292 9.90142e-19 -0.00051785)
(0.00194913 -1.33578e-05 1.21171e-19 -0.00142317 -5.42495e-19 -0.000525961)
(0.00172487 -0.00010338 7.98951e-21 -0.00126157 9.46306e-19 -0.000463301)
(0.00167407 5.02926e-06 1.41315e-19 -0.00120456 -3.66217e-20 -0.000469515)
(0.00146647 -7.48528e-05 5.39587e-19 -0.00105925 -3.30558e-19 -0.000407219)
(0.00141648 1.88248e-05 4.07148e-19 -0.00100519 5.30828e-20 -0.000411292)
(0.00122746 -5.04679e-05 4.20595e-19 -0.000875815 -2.06662e-19 -0.000351642)
(0.00117843 2.85943e-05 2.88767e-19 -0.00082458 3.22749e-20 -0.000353845)
(0.00100847 -3.08116e-05 2.46352e-19 -0.000711842 9.80058e-19 -0.000296628)
(0.00096068 3.39229e-05 2.27709e-19 -0.000663879 3.67878e-19 -0.000296801)
(0.000810341 -1.53991e-05 2.12839e-19 -0.000565964 3.80863e-19 -0.000244377)
(0.000764196 3.58987e-05 2.54095e-19 -0.000521502 -3.06945e-19 -0.000242694)
(0.000632592 -4.57372e-06 2.01497e-19 -0.000438086 7.90974e-20 -0.000194506)
(0.000588665 3.44184e-05 1.75338e-19 -0.000397535 2.16e-19 -0.000191129)
(0.000475035 2.61794e-06 1.5033e-19 -0.000326133 -3.01222e-19 -0.000148903)
(0.000433923 3.05156e-05 1.15241e-19 -0.000290107 -2.18851e-20 -0.000143816)
(0.000336525 6.07342e-06 1.00829e-19 -0.000229609 6.81904e-20 -0.000106916)
(0.000299206 2.44887e-05 7.34805e-20 -0.000198446 -1.89712e-19 -0.00010076)
(0.000215833 6.7919e-06 6.15287e-20 -0.000146299 -4.52638e-21 -6.95338e-05)
(0.000183918 1.72846e-05 4.22675e-20 -0.000121209 9.1674e-20 -6.2709e-05)
(0.000109555 4.8936e-06 2.1383e-20 -7.38795e-05 2.17717e-19 -3.56753e-05)
(8.62749e-05 9.12805e-06 4.63656e-21 -5.65772e-05 0 -2.96977e-05)
(1.28259e-05 7.6241e-07 4.69911e-22 -8.57576e-06 -3.75929e-21 -4.25015e-06)
(9.04489e-07 1.02978e-07 0 -5.91533e-07 2.66979e-22 -3.12956e-07)
(0 0 0 0 0 0)
(0.00966971 -0.00122054 -6.82134e-18 -0.00888605 9.19273e-18 -0.000783659)
(0.00947887 -0.00131554 -8.36451e-18 -0.00872865 9.28665e-18 -0.000750221)
(0.00946738 -0.00120064 -8.08987e-18 -0.00867155 1.05508e-17 -0.000795831)
(0.00927106 -0.00128962 -8.02223e-18 -0.00850356 1.02423e-17 -0.000767503)
(0.00926353 -0.0011763 -5.94087e-18 -0.00845512 1.1644e-17 -0.000808413)
(0.00905934 -0.00126241 -3.07692e-18 -0.00827581 1.11753e-17 -0.000783526)
(0.0090544 -0.0011477 -2.09352e-18 -0.0082333 1.0733e-17 -0.0008211)
(0.00884176 -0.00123335 -4.54923e-18 -0.00804354 9.38692e-18 -0.000798217)
(0.00883814 -0.00111547 -8.97273e-18 -0.00800455 9.10191e-18 -0.000833595)
(0.0086173 -0.00120238 -1.42184e-17 -0.00780572 1.18021e-17 -0.000811572)
(0.00861387 -0.00108026 -1.88997e-17 -0.0077682 1.1898e-17 -0.000845665)
(0.00838529 -0.00116968 -2.56045e-17 -0.00756166 1.38868e-17 -0.000823626)
(0.0083811 -0.00104261 -1.97502e-17 -0.00752402 1.41675e-17 -0.000857075)
(0.00814521 -0.00113554 -7.89857e-18 -0.00731079 1.16087e-17 -0.000834421)
(0.00813946 -0.00100306 4.72487e-18 -0.00727186 8.83827e-18 -0.0008676)
(0.00789701 -0.00110005 1.21723e-17 -0.00705307 -2.43783e-19 -0.000843936)
(0.00788908 -0.000961866 1.22624e-17 -0.007012 -2.72593e-18 -0.00087708)
(0.0076407 -0.00106323 1.2066e-17 -0.00678861 -7.05447e-18 -0.000852094)
(0.00763014 -0.000919316 3.34024e-18 -0.00674483 -1.62669e-18 -0.000885312)
(0.00737634 -0.00102511 1.34862e-17 -0.00651753 -9.78102e-19 -0.000858808)
(0.00736292 -0.000875469 1.68059e-17 -0.00647086 1.40965e-19 -0.000892056)
(0.00710393 -0.000985608 2.4863e-17 -0.00623997 -2.85488e-18 -0.000863962)
(0.00708755 -0.000830502 1.64239e-17 -0.00619048 -1.95219e-18 -0.000897072)
(0.00682351 -0.000944775 1.41805e-17 -0.00595597 -2.3645e-18 -0.000867539)
(0.00680425 -0.000784465 1.00535e-17 -0.0059041 -1.40912e-18 -0.000900148)
(0.00653513 -0.000902549 5.76981e-18 -0.00566588 -1.03625e-18 -0.000869249)
(0.00651326 -0.000737342 2.50679e-18 -0.00561214 -5.14538e-19 -0.00090112)
(0.00623897 -0.000858818 5.72106e-19 -0.00537015 -2.94613e-19 -0.000868813)
(0.00621486 -0.000689154 -1.53308e-18 -0.00531528 1.07697e-18 -0.000899582)
(0.0059352 -0.000813536 -2.15391e-18 -0.0050693 2.87923e-19 -0.000865899)
(0.0059093 -0.000640004 -1.02393e-18 -0.0050141 -6.77613e-19 -0.000895194)
(0.00562446 -0.00076648 3.05218e-20 -0.004764 2.59206e-18 -0.000860462)
(0.00559725 -0.000589766 6.90378e-19 -0.00470943 4.90093e-19 -0.000887815)
(0.00530725 -0.00071758 9.51717e-19 -0.00445535 7.89849e-19 -0.000851894)
(0.00527927 -0.00053853 8.92077e-19 -0.00440209 4.26691e-19 -0.000877177)
(0.00498419 -0.000666964 4.73962e-20 -0.00414454 -2.81993e-19 -0.000839649)
(0.00495596 -0.000486489 -4.80874e-19 -0.00409331 9.70983e-20 -0.000862653)
(0.00465657 -0.000614489 -2.34694e-19 -0.00383291 -2.11585e-18 -0.000823657)
(0.00462849 -0.000433942 -1.63497e-19 -0.00378436 -1.38359e-18 -0.000844133)
(0.00432563 -0.000560454 -7.04485e-19 -0.00352217 -1.3689e-18 -0.000803459)
(0.0042981 -0.000381073 -5.47319e-19 -0.00347652 8.39904e-19 -0.000821588)
(0.00399285 -0.000505284 5.79489e-19 -0.00321455 -1.68431e-18 -0.0007783)
(0.0039661 -0.000328566 1.25661e-18 -0.00317189 5.75309e-19 -0.00079421)
(0.00366072 -0.000449137 1.15482e-18 -0.00291214 -1.71286e-19 -0.000748584)
(0.00363473 -0.000276899 9.15425e-19 -0.00287236 -3.60761e-21 -0.000762367)
(0.00333145 -0.000392908 5.81534e-19 -0.00261761 3.23729e-20 -0.000713841)
(0.00330612 -0.000226829 9.18345e-19 -0.00258013 -1.2564e-18 -0.000725985)
(0.00300791 -0.000337435 1.0955e-18 -0.00233389 -3.55157e-19 -0.000674026)
(0.00298286 -0.000179452 1.76538e-18 -0.00229813 -1.46046e-18 -0.000684728)
(0.00269353 -0.000283425 1.45367e-18 -0.00206318 3.35587e-19 -0.000630344)
(0.00266827 -0.000135056 1.66878e-18 -0.00202826 -7.93089e-19 -0.000640015)
(0.00239088 -0.000232375 1.15882e-18 -0.00180858 1.02151e-18 -0.000582305)
(0.00236483 -9.51392e-05 1.06689e-18 -0.00177365 -4.86548e-19 -0.000591182)
(0.00210359 -0.000184672 5.86892e-19 -0.00157138 4.69038e-19 -0.000532205)
(0.00207614 -5.97188e-05 4.76543e-19 -0.00153587 -4.25208e-20 -0.000540267)
(0.00183351 -0.000141858 5.49021e-19 -0.00135373 -6.97781e-19 -0.000479781)
(0.0018042 -2.98886e-05 5.61586e-19 -0.00131704 -1.66889e-19 -0.000487157)
(0.00158305 -0.000103936 4.54297e-19 -0.00115562 2.32501e-19 -0.000427433)
(0.00155159 -5.4183e-06 4.70978e-19 -0.00111776 7.05721e-19 -0.000433834)
(0.00135295 -7.18895e-05 5.4755e-19 -0.000977773 4.21307e-19 -0.000375181)
(0.00131932 1.33594e-05 5.8056e-19 -0.000938756 2.45071e-19 -0.00038056)
(0.00114392 -4.52027e-05 7.0679e-19 -0.00081881 2.84015e-19 -0.000325107)
(0.00110835 2.7018e-05 5.07391e-19 -0.000779255 4.05719e-19 -0.000329095)
(0.000955318 -2.43721e-05 5.42484e-19 -0.000678407 1.65293e-19 -0.000276912)
(0.000918321 3.56919e-05 2.77734e-19 -0.00063885 1.01166e-18 -0.000279471)
(0.000786512 -8.33277e-06 3.51044e-19 -0.000554251 -2.22405e-19 -0.000232261)
(0.000748808 4.0311e-05 2.3465e-19 -0.000515655 -2.68051e-19 -0.000233153)
(0.000635782 2.66279e-06 2.22499e-19 -0.000445441 3.166e-20 -0.00019034)
(0.000598389 4.10692e-05 2.56997e-19 -0.000408675 -1.91213e-19 -0.000189713)
(0.000501655 9.92432e-06 1.92148e-19 -0.000349364 -1.84288e-19 -0.000152291)
(0.000465724 3.9074e-05 1.44393e-19 -0.00031553 -1.54147e-19 -0.000150194)
(0.000381571 1.32215e-05 1.04946e-19 -0.000264706 5.98845e-21 -0.000116866)
(0.000348564 3.43723e-05 1.13293e-19 -0.00023479 -1.26534e-19 -0.000113774)
(0.0002733 1.37937e-05 7.63343e-20 -0.00018863 -1.02299e-19 -8.46698e-05)
(0.00024409 2.78004e-05 1.84974e-20 -0.000163429 9.2319e-20 -8.06608e-05)
(0.00017463 1.12445e-05 2.09181e-22 -0.00012029 4.65898e-20 -5.43395e-05)
(0.000148395 1.87895e-05 5.23592e-21 -9.89167e-05 8.37747e-20 -4.94787e-05)
(9.02104e-05 7.3268e-06 1.13334e-20 -6.17451e-05 -5.18098e-20 -2.84654e-05)
(7.66677e-05 1.08739e-05 1.38791e-20 -5.09853e-05 0 -2.56824e-05)
(2.84319e-06 2.76077e-07 6.30968e-22 -1.93153e-06 -8.4129e-22 -9.11662e-07)
(0.00947458 -0.00155396 -1.08963e-17 -0.00869485 1.19767e-17 -0.00077973)
(0.00925508 -0.00163767 -1.37807e-17 -0.00850453 1.37662e-17 -0.000750541)
(0.00925858 -0.00151844 -1.15532e-17 -0.00846652 1.22998e-17 -0.000792066)
(0.00903356 -0.00159711 -1.26643e-17 -0.00826629 1.52423e-17 -0.00076727)
(0.00904113 -0.00148177 -6.64384e-18 -0.00823705 1.37599e-17 -0.000804075)
(0.00880962 -0.00155672 -3.314e-18 -0.0080266 1.41898e-17 -0.000783016)
(0.00882045 -0.00144281 -1.84453e-18 -0.00800462 9.14845e-18 -0.000815824)
(0.00858224 -0.00151557 -8.02696e-18 -0.00778466 1.24681e-17 -0.000797579)
(0.00859533 -0.0014012 -1.52366e-17 -0.00776809 1.27582e-17 -0.000827242)
(0.00835026 -0.00147331 -2.1769e-17 -0.00753938 1.57785e-17 -0.000810874)
(0.00836469 -0.00135701 -2.65861e-17 -0.00752653 1.42989e-17 -0.000838159)
(0.00811271 -0.00142986 -1.86711e-17 -0.00728984 6.88239e-18 -0.000822863)
(0.0081276 -0.00131048 -5.41645e-18 -0.0072792 3.53269e-18 -0.000848395)
(0.00786898 -0.00138518 1.50299e-17 -0.00703548 -3.98192e-18 -0.000833506)
(0.0078836 -0.00126176 1.99647e-17 -0.00702586 -4.40928e-18 -0.000857734)
(0.0076187 -0.00133903 2.01245e-17 -0.00677596 -1.21559e-17 -0.00084274)
(0.00763241 -0.00121096 1.1509e-17 -0.00676643 -7.88158e-18 -0.00086598)
(0.0073614 -0.00129127 1.03525e-17 -0.00651087 -9.43567e-18 -0.000850523)
(0.00737374 -0.00115819 2.00222e-17 -0.00650082 -2.51077e-18 -0.000872918)
(0.00709656 -0.00124184 1.85252e-17 -0.0062398 -2.17406e-18 -0.000856764)
(0.0071073 -0.00110345 2.01741e-17 -0.00622892 -2.81811e-18 -0.000878378)
(0.00682363 -0.00119066 8.16855e-18 -0.00596233 -4.54344e-18 -0.000861293)
(0.0068327 -0.00104686 1.04853e-17 -0.00595062 -2.70273e-18 -0.00088208)
(0.00654226 -0.0011376 6.2531e-18 -0.00567835 -5.93222e-18 -0.000863906)
(0.00654978 -0.000988434 5.86562e-18 -0.0056661 -5.06906e-18 -0.00088368)
(0.00625222 -0.00108258 1.05166e-18 -0.00538791 -1.99457e-18 -0.000864316)
(0.00625845 -0.000928153 -6.23253e-19 -0.00537561 -6.24099e-19 -0.00088284)
(0.0059536 -0.00102528 -2.14989e-18 -0.00509123 9.85229e-19 -0.000862371)
(0.00595884 -0.000866105 -1.67292e-18 -0.00507951 1.2363e-18 -0.000879335)
(0.00564668 -0.00096561 -9.78276e-19 -0.00478902 -4.91398e-19 -0.00085766)
(0.00565139 -0.000802205 -4.73041e-19 -0.00477844 6.90946e-19 -0.000872947)
(0.00533192 -0.000903517 8.28936e-19 -0.00448225 -3.43427e-19 -0.000849671)
(0.00533652 -0.000736639 2.00708e-18 -0.00447338 -1.19238e-18 -0.000863136)
(0.00501003 -0.000839065 1.86514e-18 -0.0041721 -1.11426e-18 -0.000837928)
(0.00501492 -0.000669773 2.80521e-19 -0.00416544 9.63673e-20 -0.000849476)
(0.00468261 -0.000772191 6.52575e-19 -0.0038602 -5.28822e-19 -0.000822413)
(0.00468808 -0.000601662 3.68435e-19 -0.00385601 -1.67015e-18 -0.000832079)
(0.004351 -0.000703362 3.16443e-18 -0.00354867 -1.48779e-18 -0.000802324)
(0.00435723 -0.000533055 1.51559e-18 -0.00354686 -2.96888e-18 -0.000810363)
(0.00401722 -0.000633174 1.90131e-18 -0.00324004 -2.13811e-18 -0.000777183)
(0.00402417 -0.000464775 3.91546e-19 -0.00324029 -2.53259e-18 -0.000783886)
(0.00368447 -0.000561944 8.73013e-19 -0.00293698 -6.46585e-19 -0.000747496)
(0.00369186 -0.000397182 8.07109e-19 -0.00293857 -7.36496e-20 -0.000753293)
(0.00335539 -0.000491006 5.9065e-20 -0.0026428 5.19188e-19 -0.000712594)
(0.00336269 -0.000331721 3.38834e-19 -0.0026447 -4.74118e-19 -0.000717989)
(0.00303378 -0.000421335 1.05613e-19 -0.00236076 -4.35156e-19 -0.000673019)
(0.00304019 -0.000269384 5.37893e-19 -0.00236177 2.7712e-19 -0.000678417)
(0.00272346 -0.000354158 8.21148e-19 -0.00209383 -2.01245e-19 -0.000629631)
(0.00272802 -0.000211046 1.29015e-18 -0.00209254 -1.08883e-18 -0.000635476)
(0.00242768 -0.000291043 1.05257e-18 -0.00184493 7.10952e-19 -0.000582749)
(0.00242937 -0.000158191 1.19758e-18 -0.0018402 2.10132e-19 -0.000589166)
(0.0021501 -0.000232685 1.44236e-18 -0.00161572 -1.52343e-18 -0.000534373)
(0.00214795 -0.000110918 9.32937e-19 -0.00160649 -4.09336e-19 -0.000541464)
(0.00189246 -0.000180548 7.68912e-19 -0.00140769 -1.80195e-19 -0.000484777)
(0.00188577 -7.0481e-05 3.61661e-19 -0.00139349 6.10112e-19 -0.000492287)
(0.00165676 -0.000134623 5.01722e-19 -0.00122068 -6.27039e-19 -0.000436086)
(0.00164508 -3.63354e-05 2.67333e-19 -0.00120128 7.72266e-19 -0.000443799)
(0.00144304 -9.55878e-05 3.24063e-19 -0.00105442 3.98763e-19 -0.000388618)
(0.00142633 -8.89494e-06 5.62881e-19 -0.00103028 -1.4794e-19 -0.000396048)
(0.00125094 -6.30682e-05 3.49488e-19 -0.000907377 -7.6225e-20 -0.000343559)
(0.00122949 1.25953e-05 5.59614e-19 -0.000879054 4.92527e-19 -0.000350438)
(0.00107916 -3.66383e-05 4.02769e-19 -0.000777806 -2.65761e-19 -0.000301351)
(0.00105366 2.85465e-05 6.34371e-19 -0.000746412 5.77057e-20 -0.000307249)
(0.000925747 -1.60431e-05 3.68886e-19 -0.000663781 -2.6028e-19 -0.000261965)
(0.000897147 3.95502e-05 3.35264e-19 -0.000630384 -4.52645e-19 -0.000266763)
(0.000788543 -1.61936e-07 2.03604e-19 -0.00056266 5.96584e-20 -0.000225882)
(0.000758004 4.65299e-05 2.5446e-19 -0.000528595 -2.99198e-19 -0.000229409)
(0.000664953 1.10141e-05 1.8728e-19 -0.000472739 -4.81598e-19 -0.000192215)
(0.000633833 4.97706e-05 2.441e-19 -0.000439281 -4.0065e-19 -0.000194553)
(0.000552591 1.85661e-05 1.36424e-19 -0.000391391 -8.17693e-20 -0.0001612)
(0.000522164 4.98711e-05 1.44293e-19 -0.00035973 2.45362e-20 -0.000162434)
(0.000449097 2.25466e-05 8.75347e-20 -0.000317111 -1.56443e-19 -0.000131986)
(0.000420394 4.73297e-05 2.57818e-20 -0.000288224 3.63291e-19 -0.00013217)