/*--------------------------------*- C++ -*----------------------------------*\
| =========                 |                                                 |
| \\      /  F ield         | OpenFOAM: The Open Source CFD Toolbox           |
|  \\    /   O peration     | Version:  v2012                                 |
|   \\  /    A nd           | Website:  www.openfoam.com                      |
|    \\/     M anipulation  |                                                 |
\*---------------------------------------------------------------------------*/
FoamFile
{
    version     2.0;
    format      ascii;
    class       volScalarField;
    location    "11";
    object      epsilonEq;
}
// * * * * * * * * * * * * * * * * * * * * * * * * * * * * * * * * * * * * * //

dimensions      [0 0 0 0 0 0 0];


internalField   nonuniform List<scalar> 
32000
(
0.0134692
0.0133788
0.0133189
0.0132045
0.0131337
0.0130093
0.0129257
0.0127952
0.0126995
0.0125639
0.0124572
0.0123165
0.0122
0.0120541
0.011929
0.011778
0.0116455
0.0114894
0.0113505
0.0111893
0.011045
0.010879
0.0107301
0.0105597
0.010407
0.0102325
0.0100767
0.00989856
0.00974031
0.00955878
0.00939876
0.00921406
0.00905299
0.00886521
0.00870366
0.0085131
0.0083517
0.00815853
0.00799807
0.00780235
0.00764335
0.00744559
0.00728879
0.00708919
0.00693545
0.0067344
0.00658432
0.00638269
0.00623714
0.00603535
0.00589521
0.00569439
0.00556034
0.00536165
0.00523473
0.00503925
0.00491992
0.00472965
0.00461871
0.00443479
0.00433281
0.00415725
0.00406454
0.00389877
0.00381576
0.00366123
0.00358782
0.00344585
0.00338224
0.00325342
0.00319934
0.00308433
0.00303966
0.00293824
0.00290277
0.00281424
0.00278763
0.00272055
0.00270836
0.00264553
0.0134071
0.0132996
0.0132366
0.0131125
0.0130495
0.0129118
0.0128449
0.0126958
0.0126233
0.0124645
0.0123854
0.0122182
0.0121323
0.0119577
0.0118648
0.0116839
0.0115843
0.0113977
0.0112918
0.0111001
0.0109884
0.0107923
0.0106754
0.0104753
0.0103539
0.0101502
0.010025
0.00981795
0.00968964
0.00947922
0.00934861
0.00913498
0.00900285
0.00878595
0.00865319
0.00843301
0.00830037
0.00807709
0.00794534
0.00771908
0.00758912
0.00736009
0.0072326
0.00700145
0.00687716
0.00664456
0.0065243
0.00629103
0.00617524
0.00594283
0.00583221
0.00560217
0.00549712
0.0052714
0.00517218
0.0049529
0.00485998
0.00464923
0.00456247
0.00436262
0.00428236
0.00409518
0.00402124
0.00384845
0.00378102
0.00362367
0.00356264
0.00342138
0.00336679
0.00324183
0.00319366
0.0030848
0.0030429
0.00295014
0.00291408
0.00283847
0.0028143
0.0027465
0.00273405
0.00267133
0.0133302
0.013195
0.0131381
0.0129902
0.012938
0.0127766
0.0127255
0.0125516
0.0124992
0.0123142
0.0122589
0.0120645
0.0120051
0.0118026
0.0117383
0.0115288
0.0114592
0.0112436
0.0111685
0.0109479
0.0108674
0.0106423
0.0105569
0.0103277
0.0102376
0.0100045
0.00991049
0.00967345
0.00957622
0.00933528
0.0092357
0.00899056
0.0088895
0.0086402
0.00853857
0.0082851
0.00818387
0.00792625
0.00782624
0.00756494
0.00746694
0.00720253
0.00710739
0.00684075
0.00674901
0.0064816
0.00639376
0.00612745
0.00604384
0.00578087
0.00570154
0.00544462
0.0053697
0.00512157
0.00505071
0.00481445
0.00474752
0.00452568
0.00446232
0.00425719
0.00419723
0.00401038
0.00395362
0.00378589
0.00373234
0.0035839
0.00353363
0.00340394
0.00335715
0.00324519
0.00320225
0.00310649
0.00306804
0.0029862
0.00295369
0.00288076
0.00285722
0.00278506
0.00277296
0.00272199
0.0132163
0.01305
0.0130044
0.0128269
0.0127877
0.0125978
0.0125623
0.0123606
0.0123267
0.0121143
0.0120801
0.0118585
0.0118225
0.0115925
0.0115538
0.0113166
0.0112742
0.0110308
0.0109843
0.0107354
0.0106846
0.0104306
0.0103756
0.0101165
0.0100577
0.00979335
0.0097312
0.00946156
0.00939682
0.00912156
0.00905504
0.00877411
0.00870674
0.0084201
0.00835276
0.00806056
0.00799414
0.00769698
0.00763231
0.00733105
0.00726876
0.00696482
0.00690542
0.00660091
0.00654473
0.00624216
0.00618919
0.00589188
0.00584194
0.00555348
0.00550614
0.00523022
0.00518486
0.00492523
0.00488128
0.00464088
0.00459767
0.00437891
0.00433606
0.00414018
0.00409735
0.00392467
0.00388194
0.00373175
0.00368926
0.00356002
0.0035183
0.00340776
0.0033675
0.0032729
0.00323505
0.00315284
0.0031186
0.00304491
0.00301499
0.00294691
0.00292012
0.00286335
0.00284967
0.00277665
0.0130572
0.0128596
0.0128269
0.0126184
0.0125929
0.012373
0.0123529
0.0121225
0.0121059
0.0118657
0.0118509
0.0116016
0.0115872
0.0113296
0.0113143
0.0110494
0.0110324
0.0107607
0.0107413
0.0104629
0.0104409
0.0101557
0.0101309
0.00983874
0.00981155
0.00951199
0.00948287
0.00917562
0.00914523
0.00883021
0.00879927
0.00847656
0.00844585
0.00811576
0.00808605
0.00774962
0.00772156
0.00738013
0.0073542
0.0070099
0.00698637
0.00664234
0.0066212
0.00628094
0.00626184
0.0059299
0.00591224
0.00559331
0.0055762
0.00527494
0.00525742
0.00497818
0.00495925
0.00470508
0.00468396
0.00445703
0.00443314
0.00423401
0.00420714
0.00403509
0.00400532
0.00385855
0.0038264
0.00370211
0.00366827
0.00356303
0.00352851
0.0034386
0.00340455
0.00332596
0.00329347
0.00322264
0.0031926
0.00312678
0.00309974
0.00303797
0.00301678
0.00294932
0.0029302
0.00287159
0.0128523
0.0126242
0.0126039
0.0123649
0.0123524
0.0121033
0.0120975
0.0118385
0.0118378
0.0115693
0.0115724
0.0112949
0.0113004
0.0110144
0.0110213
0.0107271
0.0107343
0.0104317
0.0104387
0.0101271
0.0101337
0.00981268
0.00981869
0.00948777
0.00949346
0.00915227
0.00915802
0.00880653
0.0088128
0.00845128
0.0084586
0.00808774
0.0080966
0.00771801
0.00772877
0.00734462
0.00735741
0.00697083
0.00698555
0.00660093
0.0066171
0.00623936
0.00625616
0.00589122
0.00590752
0.00556133
0.00557577
0.0052538
0.00526501
0.00497194
0.0049787
0.00471728
0.0047187
0.00449026
0.00448585
0.00428987
0.0042796
0.00411376
0.00409808
0.00395937
0.00393904
0.00382327
0.00379936
0.00370214
0.00367587
0.00359274
0.00356542
0.00349227
0.00346507
0.00339831
0.00337221
0.00330921
0.00328506
0.00322366
0.00320262
0.00313932
0.00312014
0.00305985
0.00304463
0.00298083
0.0126048
0.0123479
0.0123376
0.0120701
0.0120686
0.0117911
0.0117976
0.0115101
0.0115236
0.0112261
0.0112455
0.0109383
0.0109626
0.0106455
0.0106736
0.0103461
0.0103772
0.0100383
0.010072
0.00972087
0.00975689
0.00939288
0.00943107
0.00905384
0.00909425
0.00870392
0.00874667
0.00834385
0.00838911
0.00797512
0.00802292
0.00760016
0.0076504
0.00722215
0.0072745
0.00684523
0.00689902
0.00647462
0.00652879
0.00611596
0.00616904
0.00577517
0.00582542
0.00545771
0.00550329
0.00516764
0.00520685
0.00490777
0.00493929
0.00467858
0.00470159
0.00447912
0.00449343
0.00430705
0.00431302
0.00415859
0.00415707
0.00403015
0.00402233
0.0039176
0.00390487
0.0038171
0.00380092
0.00372537
0.00370715
0.00363975
0.00362071
0.00355819
0.00353928
0.00347908
0.00346114
0.00340164
0.00338524
0.00332479
0.00330974
0.0032497
0.00323706
0.00317456
0.00316391
0.00310075
0.0123204
0.0120367
0.012033
0.0117383
0.0117449
0.0114392
0.0114556
0.0111386
0.0111642
0.0108359
0.01087
0.0105297
0.0105715
0.0102183
0.0102672
0.00989965
0.00995491
0.00957199
0.00963321
0.00923419
0.00930096
0.00888553
0.00895754
0.00852614
0.00860306
0.00815689
0.00823834
0.0077796
0.00786507
0.00739719
0.00748594
0.00701365
0.00710468
0.00663412
0.00672604
0.00626489
0.00635587
0.00591287
0.0060007
0.00558465
0.00566697
0.00528602
0.00536051
0.00502041
0.00508519
0.00478952
0.00484335
0.00459213
0.00463454
0.00442558
0.00445683
0.00428588
0.0043069
0.00416805
0.00418014
0.00406743
0.00407226
0.00397975
0.00397895
0.00390095
0.00389614
0.00382796
0.00382054
0.00375845
0.00374963
0.00369087
0.00368152
0.00362399
0.00361475
0.00355729
0.00354865
0.00349019
0.00348225
0.00342312
0.00341648
0.00335541
0.00334993
0.00328744
0.00328346
0.00321918
0.0120054
0.0116956
0.0116951
0.0113728
0.0113846
0.0110492
0.011073
0.010724
0.0107597
0.0103962
0.0104435
0.0100641
0.0101226
0.00972547
0.00979478
0.00937866
0.00945829
0.00902252
0.0091119
0.00865641
0.00875487
0.0082807
0.00838741
0.0078966
0.00801053
0.00750642
0.00762634
0.00711375
0.00723813
0.00672356
0.0068505
0.00634204
0.00646926
0.00597678
0.00610155
0.00563576
0.005755
0.00532608
0.00543677
0.00505298
0.0051525
0.00481879
0.00490527
0.00462309
0.00469565
0.00446254
0.00452126
0.00433247
0.00437828
0.00422722
0.00426166
0.00414092
0.00416579
0.00406839
0.00408563
0.00400535
0.0040168
0.003948
0.00395528
0.00389375
0.00389819
0.00384073
0.00384339
0.00378786
0.00378952
0.00373443
0.00373556
0.00367997
0.00368098
0.0036243
0.0036254
0.00356738
0.00356896
0.00350923
0.00351128
0.00344992
0.00345261
0.00338965
0.00339299
0.0033282
0.0116641
0.0113266
0.0113269
0.0109743
0.0109891
0.01062
0.0106496
0.0102629
0.0103074
0.00990138
0.00996095
0.00953348
0.00960811
0.00915775
0.00924722
0.00877349
0.0088773
0.00838062
0.00849792
0.00798019
0.00810972
0.00757413
0.00771422
0.00716556
0.00731418
0.00675903
0.00691369
0.00636049
0.00651832
0.00597753
0.00613512
0.00561904
0.00577255
0.00529378
0.00543927
0.00500881
0.0051426
0.00476786
0.00488726
0.00457124
0.0046746
0.00441554
0.0045026
0.00429497
0.0043666
0.00420278
0.00426064
0.004132
0.00417817
0.00407638
0.00411305
0.00403072
0.00405995
0.00399099
0.00401466
0.00395406
0.00397368
0.00391789
0.00393464
0.00388119
0.00389591
0.00384331
0.0038566
0.00380387
0.00381618
0.00376256
0.00377416
0.00371919
0.00373038
0.00367384
0.00368482
0.00362669
0.00363756
0.00357769
0.00358854
0.00352716
0.00353804
0.00347485
0.0034858
0.00342101
0.0112972
0.0109275
0.0109278
0.0105389
0.0105562
0.0101462
0.010181
0.00974797
0.00980085
0.0093425
0.00941391
0.00892877
0.00901891
0.00850681
0.00861546
0.00807753
0.00820392
0.00764321
0.00778592
0.00720699
0.00736394
0.00677331
0.00694177
0.00634805
0.00652466
0.00593859
0.00611938
0.00555407
0.00573446
0.0052047
0.00537967
0.00489973
0.00506432
0.00464503
0.00479519
0.00444197
0.00457494
0.00428732
0.0044021
0.00417429
0.00427143
0.00409445
0.00417562
0.00403928
0.00410677
0.00400113
0.00405745
0.00397393
0.00402139
0.0039529
0.00399352
0.00393459
0.0039701
0.00391661
0.00394832
0.00389756
0.00392642
0.00387667
0.00390335
0.00385371
0.00387863
0.00382843
0.00385193
0.00380055
0.00382298
0.00377007
0.00379158
0.00373695
0.0037578
0.00370161
0.00372183
0.00366405
0.00368368
0.00362431
0.00364351
0.00358241
0.00360113
0.00353837
0.00355675
0.00349228
0.0109002
0.0104901
0.0104918
0.0100573
0.0100784
0.0096171
0.00965836
0.00916809
0.00923019
0.00870959
0.008793
0.00824242
0.00834722
0.00776876
0.00789439
0.00729242
0.00743757
0.00681825
0.00698074
0.00635258
0.00652931
0.005903
0.00609009
0.00547888
0.00567155
0.00509144
0.00528401
0.00475249
0.00493879
0.00447097
0.00464527
0.00425058
0.00440848
0.00408863
0.00422783
0.00397764
0.00409787
0.00390704
0.00400966
0.00386587
0.00395326
0.00384455
0.00391946
0.00383561
0.00390059
0.00383361
0.0038908
0.00383452
0.00388568
0.00383545
0.00388205
0.00383481
0.00387788
0.0038318
0.00387206
0.00382606
0.00386401
0.00381769
0.00385362
0.00380645
0.00384064
0.00379192
0.00382474
0.00377444
0.00380601
0.00375384
0.00378433
0.00373073
0.00376019
0.00370506
0.00373352
0.00367673
0.00370432
0.00364593
0.00367268
0.00361245
0.00363846
0.00357664
0.00360185
0.00353838
0.010462
0.0100001
0.0100068
0.00951464
0.00954298
0.00901855
0.00906906
0.00851155
0.00858463
0.00799512
0.0080908
0.00747267
0.00759043
0.00694949
0.00708809
0.00643235
0.00658968
0.00592961
0.00610265
0.00545103
0.00563579
0.0050086
0.00519993
0.00461637
0.0048079
0.00428781
0.00447263
0.00403101
0.004203
0.00384605
0.00400107
0.00372491
0.00386141
0.00365509
0.00377378
0.00362257
0.00372561
0.00361471
0.00370489
0.00362185
0.00370182
0.0036374
0.00370926
0.00365673
0.00372218
0.00367655
0.00373691
0.00369436
0.00375081
0.00370939
0.00376264
0.00372127
0.0037718
0.00372987
0.00377801
0.00373559
0.0037815
0.003738
0.00378195
0.0037365
0.00377887
0.00373187
0.00377269
0.00372369
0.00376318
0.00371289
0.00375099
0.00369923
0.00373603
0.00368249
0.00371813
0.00366305
0.00369751
0.00364048
0.00367393
0.00361533
0.00364772
0.00358749
0.00361876
0.00355711
0.00996601
0.00943889
0.00945595
0.00889383
0.00893402
0.0083369
0.00840018
0.00777037
0.00785631
0.00719864
0.00730629
0.0066283
0.00675612
0.00606783
0.00621354
0.00552735
0.00568796
0.0050186
0.00519032
0.00455671
0.00473442
0.00415924
0.00433636
0.00384155
0.00401096
0.00360962
0.00376568
0.00345839
0.003598
0.00337316
0.00349642
0.00333699
0.00344581
0.00333359
0.00343072
0.00334988
0.00343812
0.00337739
0.00345881
0.00341095
0.00348686
0.00344669
0.00351805
0.0034817
0.00354931
0.00351359
0.00357822
0.00354239
0.00360427
0.00356785
0.0036272
0.00358985
0.00364684
0.00360909
0.00366368
0.00362463
0.0036771
0.00363562
0.00368639
0.00364352
0.00369249
0.00364739
0.00369487
0.00364874
0.00369455
0.00364692
0.0036912
0.00364159
0.00368454
0.0036335
0.00367503
0.00362179
0.0036621
0.0036074
0.00364641
0.00359011
0.00362782
0.00357014
0.00360645
0.0035472
0.00939205
0.00878785
0.00882078
0.00818055
0.00823706
0.00756465
0.0076436
0.00694561
0.00704529
0.0063312
0.00644934
0.00573111
0.00586488
0.00515695
0.00530296
0.00462181
0.00477625
0.00414441
0.00430186
0.00374621
0.00389984
0.00344409
0.00358691
0.00323898
0.00336691
0.00311916
0.00323112
0.00306164
0.00316058
0.0030473
0.00313666
0.00305965
0.0031428
0.00308708
0.00316664
0.0031238
0.00320098
0.00316641
0.00324154
0.00321154
0.00328478
0.00325636
0.00332783
0.00329817
0.00336815
0.00333791
0.00340601
0.00337494
0.00344102
0.00340889
0.00347289
0.00344076
0.00350235
0.00346859
0.0035281
0.00349128
0.00354916
0.00351136
0.00356724
0.00352675
0.00358108
0.00354002
0.00359244
0.0035497
0.00360045
0.00355544
0.00360475
0.00355851
0.00360619
0.00355734
0.00360374
0.00355362
0.0035985
0.00354677
0.00359018
0.00353717
0.00357901
0.00352445
0.00356468
0.00350793
0.00872141
0.00803456
0.0080875
0.00737006
0.00744548
0.00670598
0.00680145
0.00605121
0.0061637
0.00541661
0.00554255
0.00481493
0.0049503
0.00426024
0.00440069
0.00377605
0.00391521
0.00338876
0.0035182
0.00311461
0.00322707
0.00294403
0.00303778
0.00285692
0.00293371
0.00281948
0.00288601
0.00281471
0.00287608
0.00282827
0.00288876
0.00285209
0.00291424
0.0028845
0.00294886
0.00292419
0.00299054
0.00296822
0.0030363
0.00301404
0.00308345
0.00305849
0.00312902
0.003104
0.00317432
0.00314856
0.00321818
0.00319151
0.00325997
0.00323415
0.00330063
0.00327266
0.00333753
0.00330576
0.00336938
0.00333755
0.00339905
0.00336377
0.00342386
0.00338881
0.00344676
0.00340967
0.00346589
0.00342616
0.00348088
0.0034403
0.00349315
0.00344935
0.00350087
0.00345616
0.00350596
0.00345951
0.0035077
0.00346006
0.00350655
0.00345737
0.0035021
0.00345044
0.00349361
0.00344019
0.0079436
0.00717942
0.00725356
0.00647173
0.00656568
0.00577909
0.00588942
0.00511352
0.0052362
0.00448891
0.00461942
0.0039203
0.00405406
0.00343935
0.00356758
0.0030791
0.00319135
0.00285311
0.00294006
0.00273141
0.00279405
0.00268392
0.00272671
0.00266384
0.00269811
0.00266209
0.00269389
0.00266745
0.00270114
0.00267753
0.002715
0.00269496
0.00273677
0.00271955
0.0027663
0.00274914
0.00280131
0.00278262
0.00284014
0.00281717
0.00287986
0.00285863
0.00292404
0.00290238
0.00296975
0.00294758
0.00301596
0.00299624
0.00306404
0.00304147
0.00310904
0.00308208
0.00314944
0.00312428
0.0031897
0.00315984
0.00322444
0.00319634
0.00325867
0.00322794
0.00328864
0.00325487
0.00331411
0.00328022
0.00333735
0.00329927
0.00335511
0.00331674
0.00337063
0.00333024
0.00338244
0.00334094
0.00339128
0.00334825
0.00339667
0.00335071
0.00339752
0.00334979
0.00339486
0.00334597
0.0070623
0.00623817
0.00633148
0.00550877
0.00561825
0.00481361
0.00493518
0.00416812
0.00429709
0.00358812
0.00371953
0.00312093
0.00324328
0.0028096
0.0029058
0.00266221
0.00272116
0.00261098
0.00264166
0.00259829
0.00262194
0.00259272
0.00261431
0.00259228
0.00261534
0.00259418
0.00261846
0.00259851
0.00262358
0.00260568
0.00263261
0.002615
0.00264488
0.00262583
0.00265898
0.00263825
0.00267481
0.0026528
0.00269166
0.00267245
0.00271634
0.00269519
0.00274505
0.00272545
0.00277942
0.00276415
0.00282179
0.0028025
0.00286401
0.0028398
0.00290449
0.0028859
0.00295018
0.00292482
0.0029903
0.00296953
0.00303342
0.00300916
0.0030723
0.00304482
0.00310708
0.00308074
0.00314093
0.003109
0.0031683
0.00313718
0.00319441
0.00316082
0.00321638
0.00318191
0.00323547
0.00319949
0.00325097
0.00321143
0.00326128
0.00322
0.003268
0.00322579
0.00327162
0.00322801
0.0060965
0.00523861
0.00534693
0.00451493
0.00463488
0.00385063
0.00397686
0.00326421
0.00339107
0.00283311
0.00293828
0.0026239
0.00268003
0.0025712
0.00259392
0.00255347
0.00257217
0.00254342
0.0025643
0.00253631
0.00255868
0.00253347
0.00255756
0.00253412
0.00255971
0.00253754
0.0025644
0.00254345
0.00257164
0.00255139
0.00258095
0.00256075
0.0025915
0.00257113
0.00260273
0.00258239
0.00261444
0.00259467
0.00262747
0.00260767
0.00264043
0.00262228
0.00265691
0.00263824
0.00267717
0.00265447
0.00269577
0.00267295
0.00271533
0.00269638
0.0027457
0.00272001
0.00277264
0.00275659
0.00281107
0.00279054
0.00284773
0.00282433
0.00288339
0.00286409
0.00292233
0.00289564
0.00295466
0.00293095
0.00298854
0.00296178
0.00301851
0.00299151
0.00304661
0.00301836
0.00307156
0.00303897
0.00309083
0.00305663
0.00310677
0.00307199
0.00311994
0.00308393
0.00312942
0.00309233
0.00507592
0.0042207
0.00433689
0.00354561
0.00366405
0.00296821
0.00307852
0.00263557
0.00269733
0.00254858
0.00256466
0.00252381
0.00253965
0.00250406
0.00252235
0.0024901
0.00251103
0.00248094
0.00250406
0.0024758
0.00250082
0.00247452
0.00250126
0.00247663
0.00250492
0.00248162
0.00251128
0.002489
0.00251989
0.00249832
0.00253027
0.00250915
0.00254193
0.00252116
0.00255457
0.00253417
0.00256811
0.00254796
0.00258237
0.00256238
0.00259748
0.00257711
0.00261314
0.00259162
0.00262807
0.00260579
0.00264216
0.00261991
0.00265651
0.00263403
0.00266916
0.00265
0.00268974
0.00266558
0.00270624
0.00268279
0.00272417
0.00270283
0.00274972
0.00272148
0.00277029
0.00274985
0.00279931
0.00277555
0.00282668
0.00280431
0.00285569
0.00283344
0.00288408
0.00285715
0.00290756
0.00287964
0.00292923
0.00290147
0.0029495
0.0029209
0.00296697
0.00293804
0.00298138
0.0029503
0.0040458
0.00327
0.00337232
0.00274371
0.00281956
0.00255277
0.00256784
0.0025114
0.00252075
0.0024814
0.00249503
0.00245769
0.00247499
0.00243941
0.0024599
0.00242658
0.00244989
0.00241874
0.00244446
0.00241527
0.00244302
0.00241568
0.00244519
0.0024195
0.00245051
0.00242619
0.0024585
0.00243527
0.00246867
0.00244632
0.00248061
0.00245893
0.00249395
0.00247278
0.00250838
0.00248757
0.00252368
0.00250307
0.00253966
0.00251898
0.00255602
0.00253504
0.00257238
0.002551
0.00258847
0.00256674
0.00260423
0.0025822
0.00261961
0.00259741
0.00263535
0.00261205
0.00265037
0.00262582
0.00266403
0.00263884
0.00267691
0.00265117
0.00268705
0.00266447
0.00270322
0.00267747
0.0027157
0.00269183
0.00273182
0.00270661
0.00274942
0.00272023
0.00276376
0.00273647
0.00277991
0.00275464
0.00279808
0.00277284
0.00281594
0.00279207
0.00283353
0.00280779
0.00284771
0.0028218
0.00311593
0.00261357
0.00264443
0.00252281
0.00252268
0.00248135
0.00248706
0.00244426
0.00245537
0.0024139
0.00242981
0.00239043
0.00241042
0.00237327
0.00239668
0.00236192
0.00238823
0.0023558
0.00238453
0.00235425
0.00238499
0.00235667
0.00238909
0.00236249
0.0023963
0.00237118
0.00240614
0.00238225
0.00241813
0.00239524
0.00243188
0.00240977
0.002447
0.00242547
0.00246319
0.00244205
0.00248015
0.00245923
0.00249763
0.00247673
0.00251536
0.00249435
0.00253312
0.00251189
0.00255073
0.00252919
0.00256805
0.00254612
0.00258505
0.00256254
0.00260146
0.00257831
0.00261718
0.00259329
0.00263193
0.00260746
0.00264564
0.00262092
0.00265908
0.00263358
0.00267184
0.00264527
0.00268356
0.00265587
0.00269381
0.00266539
0.00270168
0.00267459
0.00271036
0.00268374
0.00271963
0.00269309
0.00272889
0.00270262
0.00273964
0.00271151
0.00274795
0.00272018
0.00275614
0.00272852
0.00256508
0.00251382
0.00250622
0.0024572
0.00245913
0.00241028
0.00241936
0.00237196
0.00238683
0.00234199
0.00236169
0.00231975
0.00234348
0.00230444
0.00233151
0.00229528
0.00232512
0.00229152
0.00232362
0.00229241
0.00232636
0.00229727
0.00233272
0.0023055
0.00234215
0.00231652
0.00235411
0.00232982
0.00236816
0.00234495
0.00238385
0.00236151
0.00240084
0.00237914
0.00241877
0.00239752
0.00243737
0.00241639
0.00245636
0.00243549
0.00247553
0.00245463
0.00249466
0.00247361
0.0025136
0.00249227
0.00253218
0.00251047
0.00255027
0.00252809
0.00256772
0.00254504
0.00258446
0.00256121
0.00260037
0.00257655
0.00261547
0.00259099
0.00262963
0.00260449
0.00264288
0.00261693
0.00265491
0.00262827
0.00266556
0.0026386
0.00267517
0.002648
0.00268408
0.00265647
0.0026922
0.00266394
0.00269919
0.00267035
0.00270465
0.00267584
0.00270871
0.00268079
0.00271152
0.00268612
0.00250979
0.00244304
0.00244092
0.0023804
0.00238714
0.00233143
0.00234512
0.00229358
0.00231292
0.00226533
0.00228932
0.00224548
0.00227332
0.00223294
0.00226393
0.00222674
0.00226028
0.00222598
0.00226156
0.00222984
0.00226705
0.0022376
0.00227607
0.00224859
0.00228803
0.00226223
0.00230239
0.002278
0.00231868
0.00229544
0.00233646
0.00231414
0.00235538
0.00233375
0.0023751
0.00235396
0.00239533
0.00237452
0.00241583
0.00239518
0.00243638
0.00241574
0.00245679
0.00243604
0.00247689
0.00245592
0.00249653
0.00247525
0.00251559
0.00249392
0.00253396
0.00251184
0.00255155
0.00252894
0.0025683
0.00254513
0.0025841
0.00256036
0.00259891
0.00257459
0.00261266
0.00258777
0.00262529
0.00259988
0.0026368
0.00261092
0.00264719
0.0026209
0.00265652
0.0026298
0.00266475
0.00263759
0.00267172
0.00264428
0.00267743
0.00264992
0.00268212
0.0026546
0.00268647
0.00265812
0.00243456
0.00236074
0.00236149
0.00229636
0.00230627
0.00224755
0.00226477
0.00221135
0.00223444
0.00218567
0.00221351
0.00216892
0.00220058
0.00215977
0.00219446
0.00215705
0.00219414
0.00215976
0.00219869
0.002167
0.00220733
0.00217798
0.00221934
0.00219201
0.0022341
0.0022085
0.00225106
0.00222689
0.00226974
0.00224675
0.00228972
0.00226767
0.00231063
0.0022893
0.00233215
0.00231135
0.00235402
0.00233357
0.00237599
0.00235573
0.00239786
0.00237766
0.00241944
0.00239918
0.00244059
0.00242015
0.00246117
0.00244048
0.00248107
0.00246005
0.00250019
0.00247878
0.00251846
0.0024966
0.00253578
0.00251346
0.00255211
0.0025293
0.00256739
0.00254409
0.00258158
0.00255781
0.00259464
0.00257042
0.00260657
0.00258192
0.00261733
0.0025923
0.00262692
0.00260156
0.00263535
0.00260969
0.00264258
0.0026167
0.00264865
0.00262259
0.0026536
0.00262731
0.00265728
0.00263079
0.00234419
0.0022687
0.00227281
0.00220599
0.00221927
0.00215939
0.00218013
0.00212608
0.00215283
0.00210383
0.00213537
0.00209084
0.00212615
0.00208559
0.00212383
0.00208679
0.00212727
0.00209333
0.00213545
0.00210425
0.00214754
0.00211871
0.00216278
0.00213598
0.00218053
0.00215546
0.00220024
0.0021766
0.00222141
0.00219896
0.00224365
0.00222213
0.00226659
0.0022458
0.00228993
0.00226968
0.00231342
0.00229353
0.00233681
0.00231714
0.00235994
0.00234034
0.00238263
0.002363
0.00240474
0.00238498
0.00242616
0.00240619
0.00244678
0.00242654
0.00246653
0.00244595
0.00248532
0.00246437
0.00250311
0.00248176
0.00251982
0.00249806
0.00253544
0.00251327
0.00254992
0.00252735
0.00256323
0.00254029
0.00257537
0.00255208
0.00258631
0.00256272
0.00259605
0.00257221
0.00260459
0.00258055
0.00261191
0.00258774
0.00261802
0.00259378
0.00262286
0.00259868
0.00262639
0.00260245
0.00224288
0.00216824
0.00217613
0.00210956
0.00212662
0.00206696
0.00209151
0.00203783
0.0020684
0.00201995
0.00205526
0.00201142
0.0020504
0.00201063
0.00205238
0.0020162
0.00205997
0.00202692
0.00207211
0.00204179
0.00208789
0.00205993
0.00210655
0.00208061
0.00212744
0.0021032
0.00214999
0.00212716
0.00217374
0.00215206
0.00219827
0.00217751
0.00222326
0.00220321
0.00224841
0.00222889
0.00227348
0.00225433
0.00229827
0.00227934
0.0023226
0.00230376
0.00234633
0.00232748
0.00236933
0.00235039
0.00239151
0.00237239
0.00241277
0.00239343
0.00243306
0.00241343
0.0024523
0.00243235
0.00247045
0.00245017
0.00248746
0.00246685
0.00250332
0.00248237
0.002518
0.00249672
0.00253148
0.0025099
0.00254375
0.0025219
0.00255479
0.00253273
0.00256462
0.0025424
0.00257323
0.00255092
0.00258062
0.0025583
0.00258679
0.00256456
0.00259175
0.00256974
0.00259551
0.00257388
0.00213311
0.00206074
0.00207258
0.00200763
0.00202872
0.00197041
0.00199902
0.00194661
0.00198119
0.00193402
0.00197323
0.00193069
0.00197339
0.00193494
0.00198019
0.00194531
0.00199233
0.00196057
0.00200871
0.00197965
0.00202843
0.00200168
0.00205068
0.00202589
0.00207483
0.00205168
0.00210031
0.00207853
0.00212667
0.002106
0.00215353
0.00213374
0.00218057
0.00216146
0.00220751
0.00218891
0.00223415
0.00221589
0.00226028
0.00224225
0.00228578
0.00226784
0.0023105
0.00229256
0.00233434
0.00231633
0.00235722
0.00233907
0.00237907
0.00236072
0.00239983
0.00238124
0.00241946
0.00240061
0.00243792
0.00241879
0.00245519
0.00243578
0.00247125
0.00245156
0.00248608
0.00246614
0.00249968
0.00247951
0.00251205
0.0024917
0.00252319
0.0025027
0.00253311
0.00251255
0.00254183
0.00252125
0.00254934
0.00252885
0.00255569
0.00253538
0.0025609
0.00254089
0.00256501
0.00254541
0.0020167
0.00194747
0.00196326
0.00190093
0.00192615
0.00187013
0.00190291
0.00185261
0.0018913
0.00184613
0.0018893
0.00184868
0.00189513
0.00185852
0.00190724
0.00187413
0.00192432
0.00189425
0.00194526
0.0019178
0.00196912
0.00194389
0.00199513
0.00197177
0.00202264
0.00200084
0.00205112
0.00203061
0.00208014
0.00206068
0.00210934
0.0020907
0.00213842
0.00212041
0.00216714
0.0021496
0.00219531
0.0021781
0.00222277
0.00220576
0.00224939
0.00223247
0.00227506
0.00225815
0.0022997
0.00228273
0.00232325
0.00230615
0.00234564
0.00232837
0.00236685
0.00234937
0.00238683
0.00236914
0.00240558
0.00238765
0.00242307
0.00240491
0.00243931
0.00242093
0.00245429
0.0024357
0.00246801
0.00244926
0.00248049
0.00246161
0.00249174
0.00247278
0.00250178
0.00248281
0.00251063
0.00249172
0.00251833
0.00249955
0.00252491
0.00250636
0.00253042
0.00251218
0.0025349
0.00251707
0.00189504
0.00182956
0.00184924
0.00179026
0.0018196
0.00176664
0.00180363
0.00175617
0.001799
0.00175649
0.00180363
0.00176552
0.00181568
0.00178144
0.00183356
0.00180269
0.00185594
0.00182797
0.0018817
0.0018562
0.0019099
0.00188651
0.0019398
0.00191816
0.00197077
0.00195058
0.00200231
0.00198331
0.00203402
0.00201596
0.00206557
0.00204826
0.00209669
0.00207995
0.00212718
0.00211085
0.00215686
0.00214082
0.00218562
0.00216975
0.00221333
0.00219754
0.00223993
0.00222413
0.00226534
0.00224948
0.00228952
0.00227355
0.00231244
0.00229631
0.00233407
0.00231776
0.0023544
0.0023379
0.00237342
0.00235672
0.00239113
0.00237423
0.00240754
0.00239046
0.00242266
0.00240543
0.00243651
0.00241915
0.00244911
0.00243167
0.00246049
0.002443
0.00247067
0.00245321
0.00247969
0.00246232
0.0024876
0.00247038
0.00249443
0.00247744
0.00250023
0.00248356
0.00250507
0.00248879
0.00176927
0.00170798
0.00173145
0.0016764
0.00170982
0.00166056
0.00170172
0.00165774
0.00170467
0.00166544
0.00171648
0.00168145
0.00173522
0.00170387
0.00175926
0.00173108
0.00178724
0.00176177
0.00181804
0.00179487
0.00185076
0.0018295
0.00188465
0.001865
0.00191915
0.0019008
0.00195379
0.00193649
0.0019882
0.00197174
0.00202209
0.00200628
0.00205525
0.00203992
0.00208748
0.0020725
0.00211866
0.00210391
0.00214868
0.00213406
0.00217747
0.0021629
0.00220497
0.00219038
0.00223113
0.00221647
0.00225594
0.00224115
0.00227937
0.00226444
0.00230141
0.00228632
0.00232208
0.00230681
0.00234137
0.00232592
0.00235931
0.00234369
0.0023759
0.00236012
0.00239118
0.00237527
0.00240517
0.00238915
0.0024179
0.00240182
0.00242942
0.00241332
0.00243975
0.00242369
0.00244895
0.00243298
0.00245706
0.00244124
0.00246413
0.00244854
0.00247022
0.00245492
0.00247538
0.00246045
0.00164035
0.00158359
0.00161074
0.00156009
0.00159752
0.0015525
0.00159777
0.00155785
0.0016088
0.00157341
0.00162824
0.00159682
0.00165405
0.00162606
0.00168455
0.00165949
0.00171836
0.00169577
0.00175436
0.00173385
0.0017917
0.00177289
0.00182966
0.00181226
0.00186773
0.00185145
0.00190548
0.0018901
0.00194258
0.0019279
0.00197881
0.00196466
0.00201397
0.0020002
0.00204792
0.00203442
0.00208057
0.00206723
0.00211184
0.00209857
0.00214168
0.00212842
0.00217006
0.00215675
0.00219697
0.00218356
0.00222238
0.00220885
0.00224632
0.00223263
0.00226878
0.00225493
0.00228979
0.00227577
0.00230936
0.00229517
0.00232753
0.00231318
0.00234432
0.00232982
0.00235976
0.00234514
0.0023739
0.00235918
0.00238678
0.002372
0.00239843
0.00238364
0.00240892
0.00239415
0.00241829
0.0024036
0.00242659
0.00241204
0.00243388
0.00241954
0.00244023
0.00242615
0.00244568
0.00243193
0.00150908
0.00145711
0.00148787
0.00144201
0.0014834
0.00144309
0.00149241
0.00145705
0.00151192
0.00148088
0.00153935
0.00151202
0.00157252
0.00154835
0.0016097
0.00158817
0.00164949
0.00163015
0.0016908
0.00167327
0.00173281
0.00171673
0.00177487
0.00175996
0.00181649
0.00180251
0.00185733
0.00184406
0.00189711
0.00188438
0.00193563
0.00192329
0.00197276
0.00196069
0.0020084
0.00199649
0.00204249
0.00203065
0.00207497
0.00206315
0.00210584
0.00209397
0.00213509
0.00212312
0.00216272
0.00215062
0.00218874
0.0021765
0.00221318
0.00220077
0.00223606
0.00222348
0.00225742
0.00224466
0.00227728
0.00226435
0.00229569
0.0022826
0.00231268
0.00229945
0.00232831
0.00231495
0.00234261
0.00232915
0.00235563
0.0023421
0.00236743
0.00235387
0.00237807
0.00236451
0.0023876
0.00237409
0.00239607
0.00238267
0.00240357
0.00239032
0.00241013
0.00239712
0.00241584
0.00240312
0.00137619
0.00132922
0.00136352
0.00132279
0.00136812
0.00133296
0.00138627
0.00135593
0.00141461
0.00138839
0.00145031
0.00142753
0.00149107
0.00147112
0.00153506
0.00151743
0.00158091
0.00156515
0.00162756
0.00161329
0.00167423
0.00166113
0.00172034
0.00170816
0.00176548
0.00175399
0.00180935
0.00179837
0.00185174
0.00184112
0.00189251
0.00188211
0.00193156
0.00192129
0.00196883
0.00195862
0.00200431
0.00199407
0.00203797
0.00202766
0.00206984
0.00205942
0.00209993
0.00208936
0.00212826
0.00211753
0.00215488
0.00214397
0.00217983
0.00216872
0.00220313
0.00219184
0.00222484
0.00221336
0.00224501
0.00223335
0.00226367