/*--------------------------------*- C++ -*----------------------------------*\
| =========                 |                                                 |
| \\      /  F ield         | OpenFOAM: The Open Source CFD Toolbox           |
|  \\    /   O peration     | Version:  v2012                                 |
|   \\  /    A nd           | Website:  www.openfoam.com                      |
|    \\/     M anipulation  |                                                 |
\*---------------------------------------------------------------------------*/
FoamFile
{
    version     2.0;
    format      ascii;
    class       volSymmTensorField;
    location    "11";
    object      sigma;
}
// * * * * * * * * * * * * * * * * * * * * * * * * * * * * * * * * * * * * * //

dimensions      [1 -1 -2 0 0 0 0];


internalField   nonuniform List<symmTensor> 
32000
(
(2.24391e+08 -3.39145e+06 0.0003586 2.1925e+06 -0.0026037 1.22059e+08)
(2.24157e+08 -1.86943e+06 0.00063462 -84907.6 -0.00143309 1.19949e+08)
(2.30499e+08 -3.58226e+06 0.000269715 5.59447e+06 -0.00147946 1.26464e+08)
(2.29061e+08 -2.17498e+06 0.000181969 2.33543e+06 -0.000971727 1.23157e+08)
(2.36586e+08 -3.60165e+06 -8.87418e-05 9.14313e+06 -0.000888586 1.30797e+08)
(2.33611e+08 -2.42064e+06 -1.01199e-05 4.54999e+06 -0.000658896 1.26078e+08)
(2.4252e+08 -3.51287e+06 7.82987e-05 1.27281e+07 -3.01091e-05 1.34974e+08)
(2.37995e+08 -2.63389e+06 0.000208956 6.75277e+06 -0.000348585 1.289e+08)
(2.48253e+08 -3.36388e+06 0.000128178 1.62924e+07 -0.000284122 1.38967e+08)
(2.42273e+08 -2.83176e+06 0.000104595 9.00248e+06 -0.0007512 1.31672e+08)
(2.53772e+08 -3.18565e+06 -2.4396e-05 1.98106e+07 -0.000658124 1.42774e+08)
(2.4647e+08 -3.02285e+06 0.00019184 1.13163e+07 -0.000436926 1.344e+08)
(2.59085e+08 -2.99443e+06 0.00021333 2.32737e+07 -0.000439802 1.46395e+08)
(2.50595e+08 -3.21107e+06 0.000342964 1.3694e+07 -0.000660377 1.37077e+08)
(2.64202e+08 -2.79967e+06 0.000125659 2.66805e+07 -0.000620577 1.49836e+08)
(2.54653e+08 -3.39755e+06 0.000208049 1.61321e+07 -0.000516952 1.39695e+08)
(2.69137e+08 -2.6062e+06 7.98892e-05 3.00335e+07 -0.000131683 1.531e+08)
(2.58646e+08 -3.58196e+06 0.000159226 1.86231e+07 -0.00028366 1.42246e+08)
(2.73903e+08 -2.41603e+06 7.72847e-05 3.33359e+07 -0.000306727 1.56188e+08)
(2.62577e+08 -3.76432e+06 0.000301124 2.11621e+07 -0.000458857 1.44715e+08)
(2.78514e+08 -2.2318e+06 0.000219474 3.6592e+07 -0.000265559 1.5911e+08)
(2.66445e+08 -3.94281e+06 0.000402636 2.37414e+07 -0.000712691 1.47087e+08)
(2.82977e+08 -2.05168e+06 0.000177787 3.9804e+07 -0.000598476 1.61853e+08)
(2.70254e+08 -4.1176e+06 0.000172082 2.63573e+07 -0.00107819 1.49351e+08)
(2.87303e+08 -1.87622e+06 -7.62527e-06 4.29741e+07 -0.000626531 1.6441e+08)
(2.74003e+08 -4.28916e+06 2.98834e-05 2.90037e+07 -0.000606039 1.51504e+08)
(2.91497e+08 -1.70574e+06 3.69634e-05 4.61052e+07 -0.000185072 1.66777e+08)
(2.77696e+08 -4.46008e+06 0.00014983 3.168e+07 -0.000472595 1.5352e+08)
(2.95569e+08 -1.53956e+06 0.000110471 4.92006e+07 -0.000617756 1.68953e+08)
(2.81334e+08 -4.63104e+06 9.48809e-05 3.43847e+07 -0.000899891 1.55384e+08)
(2.99521e+08 -1.37225e+06 -1.66864e-05 5.22613e+07 -0.000816517 1.70912e+08)
(2.8492e+08 -4.80235e+06 -0.000104374 3.71179e+07 -0.000808438 1.57095e+08)
(3.03354e+08 -1.20135e+06 -8.59002e-05 5.52868e+07 -0.000844766 1.72634e+08)
(2.88447e+08 -4.97497e+06 -0.000317715 3.98712e+07 -0.000696052 1.58625e+08)
(3.0707e+08 -1.02959e+06 -0.000226436 5.82787e+07 -0.00078361 1.74133e+08)
(2.91913e+08 -5.14884e+06 -0.00012337 4.26448e+07 -0.000525461 1.59941e+08)
(3.10663e+08 -845782 0.000104198 6.12325e+07 -0.000971278 1.75353e+08)
(2.95314e+08 -5.32287e+06 4.92621e-05 4.5435e+07 -0.00081313 1.6104e+08)
(3.1412e+08 -646020 -5.53349e-05 6.41413e+07 -0.00120829 1.76265e+08)
(2.98633e+08 -5.49773e+06 -0.000187999 4.82275e+07 -0.00103484 1.61888e+08)
(3.17438e+08 -434200 -0.00012929 6.70009e+07 -0.00128693 1.7689e+08)
(3.01861e+08 -5.67094e+06 -0.000159755 5.10207e+07 -0.0011326 1.62433e+08)
(3.20592e+08 -194042 -2.79676e-05 6.97975e+07 -0.00101012 1.77144e+08)
(3.04981e+08 -5.83848e+06 -2.01162e-05 5.38009e+07 -0.000809533 1.62683e+08)
(3.23556e+08 77304.3 8.11539e-06 7.25142e+07 -0.000655908 1.77e+08)
(3.0796e+08 -5.99829e+06 -3.53134e-05 5.65438e+07 -0.000505552 1.62575e+08)
(3.26311e+08 379633 -4.26596e-05 7.5134e+07 -0.000500681 1.76469e+08)
(3.10777e+08 -6.14294e+06 -6.43592e-05 5.92434e+07 -0.000225579 1.6206e+08)
(3.28808e+08 727634 -2.0572e-05 7.76293e+07 -0.000256364 1.75455e+08)
(3.13396e+08 -6.26332e+06 4.74355e-05 6.18595e+07 7.13959e-05 1.61181e+08)
(3.31017e+08 1.11656e+06 6.68822e-05 7.99712e+07 -6.44779e-05 1.73978e+08)
(3.15767e+08 -6.3518e+06 6.67303e-06 6.43658e+07 0.000134555 1.5982e+08)
(3.32889e+08 1.55351e+06 -6.0004e-05 8.21246e+07 0.000108839 1.71998e+08)
(3.17864e+08 -6.39278e+06 -4.16458e-05 6.67374e+07 0.000271819 1.5801e+08)
(3.34367e+08 2.04281e+06 1.89701e-05 8.40458e+07 0.000258359 1.69457e+08)
(3.19624e+08 -6.3765e+06 -4.36593e-05 6.891e+07 0.000299429 1.5575e+08)
(3.35435e+08 2.56232e+06 -6.1542e-05 8.56986e+07 0.00016968 1.66476e+08)
(3.2102e+08 -6.28458e+06 4.87206e-05 7.08734e+07 0.00020249 1.52987e+08)
(3.36025e+08 3.12064e+06 0.000108823 8.70347e+07 4.6557e-05 1.62942e+08)
(3.22014e+08 -6.10445e+06 0.000205481 7.25479e+07 0.000173683 1.49865e+08)
(3.36129e+08 3.69314e+06 9.24116e-05 8.80131e+07 1.88979e-06 1.58987e+08)
(3.22577e+08 -5.82317e+06 3.42724e-05 7.39218e+07 0.000135785 1.46303e+08)
(3.35723e+08 4.26923e+06 -5.8474e-05 8.85927e+07 1.41972e-05 1.54622e+08)
(3.22716e+08 -5.43154e+06 -4.17832e-05 7.49545e+07 0.000126617 1.4246e+08)
(3.34806e+08 4.83087e+06 1.74014e-05 8.87377e+07 9.54657e-05 1.49922e+08)
(3.22419e+08 -4.92805e+06 9.06088e-05 7.56084e+07 6.70496e-05 1.38369e+08)
(3.33414e+08 5.35415e+06 7.10604e-05 8.84235e+07 -5.36995e-05 1.45031e+08)
(3.21736e+08 -4.30859e+06 6.72408e-05 7.59006e+07 -0.000118912 1.34132e+08)
(3.31555e+08 5.83032e+06 -5.13389e-06 8.76282e+07 -9.66249e-05 1.3997e+08)
(3.20682e+08 -3.58709e+06 -0.000137296 7.57804e+07 1.66436e-05 1.29886e+08)
(3.29307e+08 6.24023e+06 -0.000128685 8.63453e+07 -1.78387e-05 1.34931e+08)
(3.19321e+08 -2.76667e+06 -0.000180338 7.52941e+07 6.00164e-05 1.25675e+08)
(3.26698e+08 6.58275e+06 -4.76396e-05 8.45704e+07 -1.62145e-05 1.29943e+08)
(3.17688e+08 -1.87407e+06 -0.000101937 7.44205e+07 -3.63369e-05 1.21611e+08)
(3.23786e+08 6.85839e+06 -5.18552e-05 8.23104e+07 -0.000203498 1.25103e+08)
(3.15815e+08 -937024 -9.12895e-05 7.31575e+07 -0.000230018 1.17743e+08)
(3.20624e+08 7.07607e+06 -3.72554e-05 7.95802e+07 -0.000298486 1.20488e+08)
(3.10291e+08 151541 -3.23842e-05 7.2456e+07 -0.000146931 1.14824e+08)
(3.1222e+08 6.86558e+06 5.56144e-06 7.65185e+07 -0.00017827 1.16622e+08)
(3.02327e+08 620249 2.40424e-05 7.11646e+07 -1.25167e-05 1.12047e+08)
(2.25367e+08 -7.6645e+06 0.000765902 3.08962e+06 -0.000594934 1.23325e+08)
(2.24106e+08 -5.88169e+06 0.000478642 -80099 -0.000149062 1.19694e+08)
(2.30723e+08 -7.77063e+06 0.000259875 5.83667e+06 -0.000494743 1.26788e+08)
(2.29542e+08 -6.29316e+06 0.000285063 2.89356e+06 -0.000367643 1.23429e+08)
(2.36165e+08 -7.86557e+06 0.000282243 8.85773e+06 -0.000621041 1.30454e+08)
(2.34518e+08 -6.65426e+06 0.000182061 5.58587e+06 -0.000338236 1.26782e+08)
(2.41571e+08 -7.92861e+06 1.93362e-05 1.20034e+07 -0.000691673 1.34141e+08)
(2.39213e+08 -6.99276e+06 -5.33108e-06 8.15899e+06 -0.000257745 1.29917e+08)
(2.46903e+08 -7.95211e+06 0.000162076 1.52269e+07 -0.000381663 1.37787e+08)
(2.43703e+08 -7.31366e+06 0.000128577 1.06757e+07 -0.000245948 1.32897e+08)
(2.52139e+08 -7.93778e+06 0.000285 1.84987e+07 -0.0003998 1.41358e+08)
(2.4803e+08 -7.61858e+06 0.000455117 1.31694e+07 -0.000510014 1.35753e+08)
(2.57266e+08 -7.89236e+06 0.000487731 2.17983e+07 -0.000765121 1.44833e+08)
(2.52222e+08 -7.90872e+06 0.000371722 1.5658e+07 -0.000680908 1.38497e+08)
(2.62272e+08 -7.82204e+06 0.000307093 2.51058e+07 -0.000472929 1.4819e+08)
(2.56301e+08 -8.18688e+06 0.00039079 1.81558e+07 0.000113333 1.41138e+08)
(2.67154e+08 -7.73359e+06 0.000367113 2.8409e+07 -8.73936e-05 1.51416e+08)
(2.60286e+08 -8.45351e+06 0.000458058 2.06727e+07 -0.00015986 1.43683e+08)
(2.71906e+08 -7.63262e+06 0.000468427 3.16966e+07 -0.000508484 1.54496e+08)
(2.64186e+08 -8.70826e+06 0.000687234 2.3212e+07 -0.000583613 1.46128e+08)
(2.76528e+08 -7.5227e+06 0.00069598 3.49611e+07 -0.000974925 1.57421e+08)
(2.68011e+08 -8.95212e+06 0.000505298 2.57769e+07 -0.00108402 1.48466e+08)
(2.81019e+08 -7.40606e+06 0.000203608 3.81956e+07 -0.00129286 1.60179e+08)
(2.71771e+08 -9.18792e+06 0.000161506 2.83701e+07 -0.000996741 1.50688e+08)
(2.85384e+08 -7.28576e+06 0.000165581 4.13988e+07 -0.000758792 1.6276e+08)
(2.75473e+08 -9.41834e+06 0.000196433 3.0995e+07 -0.000420874 1.52792e+08)
(2.89622e+08 -7.16275e+06 0.000170978 4.45661e+07 -0.000553022 1.65144e+08)
(2.79125e+08 -9.6439e+06 5.83827e-05 3.36547e+07 -0.000504623 1.54769e+08)
(2.93734e+08 -7.03725e+06 2.29081e-05 4.76932e+07 -0.000706594 1.67329e+08)
(2.82726e+08 -9.86509e+06 1.90938e-06 3.63465e+07 -0.000539784 1.56594e+08)
(2.97715e+08 -6.90553e+06 -1.34722e-05 5.07751e+07 -0.000729434 1.69291e+08)
(2.86279e+08 -1.0082e+07 6.27297e-05 3.90711e+07 -0.000431545 1.58252e+08)
(3.01572e+08 -6.76541e+06 -0.000261051 5.38158e+07 -0.000369549 1.71008e+08)
(2.89782e+08 -1.02927e+07 8.84419e-05 4.18247e+07 -0.000191779 1.59742e+08)
(3.05293e+08 -6.61132e+06 0.000128421 5.68043e+07 -0.000270278 1.72465e+08)
(2.93224e+08 -1.04961e+07 0.000601601 4.45984e+07 -0.000246511 1.61012e+08)
(3.08874e+08 -6.43523e+06 0.000285973 5.97354e+07 -0.000354307 1.73641e+08)
(2.96599e+08 -1.0688e+07 0.000318806 4.73887e+07 -0.000234826 1.62034e+08)
(3.12312e+08 -6.2314e+06 -5.52376e-05 6.2612e+07 -0.0005353 1.74502e+08)
(2.99892e+08 -1.08624e+07 9.01158e-05 5.01796e+07 -0.000345894 1.62809e+08)
(3.15583e+08 -5.98763e+06 -7.67812e-05 6.54126e+07 -0.000706351 1.75022e+08)
(3.03077e+08 -1.10137e+07 7.91753e-05 5.29537e+07 -0.000361344 1.63262e+08)
(3.18675e+08 -5.69159e+06 1.66065e-06 6.81286e+07 -0.00059916 1.75183e+08)
(3.06136e+08 -1.11302e+07 -5.49588e-06 5.56979e+07 -0.000238798 1.63359e+08)
(3.21569e+08 -5.33125e+06 -7.02349e-05 7.07549e+07 -0.00030784 1.74926e+08)
(3.09036e+08 -1.1199e+07 -0.000133534 5.83806e+07 -0.000130801 1.63109e+08)
(3.24227e+08 -4.89185e+06 -0.000118464 7.32549e+07 -6.14687e-05 1.74253e+08)
(3.11728e+08 -1.12065e+07 -7.43881e-05 6.09668e+07 -0.000329099 1.62404e+08)
(3.26632e+08 -4.36064e+06 4.80089e-05 7.56257e+07 -0.000164452 1.73124e+08)
(3.14182e+08 -1.11308e+07 7.05956e-05 6.34299e+07 -0.00038317 1.61256e+08)
(3.28735e+08 -3.71974e+06 9.93408e-06 7.78343e+07 5.70047e-05 1.71488e+08)
(3.16342e+08 -1.09554e+07 -6.63698e-05 6.57161e+07 -0.000241608 1.59644e+08)
(3.30504e+08 -2.96298e+06 -5.08557e-05 7.98437e+07 5.61494e-06 1.69402e+08)
(3.18163e+08 -1.06542e+07 -9.9056e-05 6.77929e+07 -0.000141063 1.57501e+08)
(3.3191e+08 -2.08451e+06 -0.000149884 8.16533e+07 0.000173732 1.66792e+08)
(3.19607e+08 -1.02079e+07 -0.000333467 6.95997e+07 -1.31666e-05 1.54937e+08)
(3.32897e+08 -1.07853e+06 -0.000111856 8.31906e+07 0.000149313 1.63727e+08)
(3.20623e+08 -9.59559e+06 -0.000172997 7.11028e+07 -4.3072e-05 1.51862e+08)
(3.33465e+08 42413.3 8.905e-05 8.4466e+07 0.000139266 1.6022e+08)
(3.21212e+08 -8.80367e+06 3.25122e-05 7.22729e+07 0.00013522 1.48411e+08)
(3.33564e+08 1.26996e+06 9.24578e-05 8.54145e+07 0.000300575 1.56304e+08)
(3.21342e+08 -7.82895e+06 1.704e-05 7.30715e+07 0.00018089 1.44595e+08)
(3.33201e+08 2.58168e+06 -2.55551e-05 8.60131e+07 0.000125498 1.52089e+08)
(3.21056e+08 -6.66738e+06 0.000123871 7.35168e+07 4.75847e-05 1.40528e+08)
(3.32374e+08 3.9506e+06 0.000177664 8.62453e+07 2.17309e-05 1.47592e+08)
(3.20355e+08 -5.34228e+06 0.000124758 7.35777e+07 2.77824e-06 1.36306e+08)
(3.31096e+08 5.34833e+06 3.31088e-05 8.60532e+07 -1.77536e-05 1.42974e+08)
(3.19308e+08 -3.85714e+06 -1.15166e-05 7.33139e+07 8.77539e-05 1.32004e+08)
(3.29412e+08 6.74103e+06 -0.000108502 8.54657e+07 9.49739e-05 1.38253e+08)
(3.1795e+08 -2.25598e+06 -0.000225802 7.27048e+07 0.000175577 1.27775e+08)
(3.27354e+08 8.0956e+06 -0.00030336 8.44329e+07 0.000170068 1.33575e+08)
(3.16353e+08 -547966 -0.000122578 7.18223e+07 0.000115019 1.23652e+08)
(3.24987e+08 9.38298e+06 -5.29196e-05 8.29897e+07 -1.75128e-05 1.28992e+08)
(3.14574e+08 1.22893e+06 2.25161e-06 7.06804e+07 -7.14582e-05 1.19762e+08)
(3.22404e+08 1.05507e+07 -8.74102e-05 8.1181e+07 -0.000119091 1.24605e+08)
(3.12708e+08 3.08041e+06 -0.000110141 6.9351e+07 1.01836e-05 1.16214e+08)
(3.18813e+08 1.18128e+07 -0.000107456 7.79684e+07 4.26408e-05 1.20109e+08)
(3.08957e+08 4.96642e+06 -0.000177483 6.8282e+07 0.000209141 1.13172e+08)
(3.1236e+08 1.22027e+07 -7.96188e-05 7.48112e+07 0.000175327 1.16151e+08)
(3.01765e+08 6.00953e+06 -0.000245059 6.80278e+07 0.000208534 1.10938e+08)
(2.25313e+08 -1.18833e+07 0.000564803 3.57553e+06 -0.000245038 1.23638e+08)
(2.24521e+08 -1.00261e+07 0.000698016 722762 1.81547e-05 1.20043e+08)
(2.30334e+08 -1.20994e+07 0.000632845 5.97738e+06 0.000235145 1.26736e+08)
(2.30124e+08 -1.05157e+07 0.000719303 3.88931e+06 0.000160981 1.23911e+08)
(2.35465e+08 -1.2269e+07 0.000267866 8.69723e+06 -0.000166515 1.30052e+08)
(2.35327e+08 -1.09609e+07 -0.000130178 6.84593e+06 -0.000362051 1.27474e+08)
(2.40585e+08 -1.24185e+07 -0.000237162 1.15843e+07 -0.00010387 1.33436e+08)
(2.40224e+08 -1.13838e+07 -0.000156704 9.66583e+06 -0.000165146 1.30799e+08)
(2.45658e+08 -1.25455e+07 4.41417e-05 1.45834e+07 -0.000185619 1.36824e+08)
(2.44875e+08 -1.179e+07 0.000164408 1.23924e+07 2.84089e-05 1.33932e+08)
(2.50669e+08 -1.26459e+07 0.000418532 1.76653e+07 -0.000146263 1.40182e+08)
(2.49318e+08 -1.21812e+07 0.000589557 1.50524e+07 0.000277593 1.36898e+08)
(2.55611e+08 -1.2717e+07 0.0005089 2.08108e+07 -1.41579e-05 1.43483e+08)
(2.53591e+08 -1.25581e+07 0.000718081 1.76704e+07 0.000376235 1.39718e+08)
(2.60476e+08 -1.27617e+07 0.000659114 2.40023e+07 0.000282305 1.46712e+08)
(2.57718e+08 -1.29185e+07 0.00091937 2.02626e+07 0.000560354 1.42403e+08)
(2.65252e+08 -1.27809e+07 0.000734617 2.72209e+07 0.000311399 1.4984e+08)
(2.6172e+08 -1.32617e+07 0.00107667 2.28426e+07 0.000366333 1.44961e+08)
(2.6993e+08 -1.27773e+07 0.00100973 3.04521e+07 -0.000188968 1.52848e+08)
(2.65617e+08 -1.3589e+07 0.00123466 2.54218e+07 -0.000138535 1.47398e+08)
(2.74505e+08 -1.27535e+07 0.000715563 3.36828e+07 -0.000650777 1.55718e+08)
(2.69428e+08 -1.39031e+07 0.000666963 2.80129e+07 -0.00064036 1.49718e+08)
(2.78973e+08 -1.27144e+07 0.000409962 3.69035e+07 -0.000786223 1.58437e+08)
(2.73168e+08 -1.4206e+07 0.000510205 3.0624e+07 -0.000303818 1.51913e+08)
(2.83328e+08 -1.26615e+07 0.000288 4.01028e+07 -0.000185764 1.60987e+08)
(2.76848e+08 -1.44984e+07 -0.000307329 3.32635e+07 0.000182564 1.53976e+08)
(2.87562e+08 -1.25955e+07 -0.00050223 4.32688e+07 -1.50844e-05 1.63341e+08)
(2.80475e+08 -1.47807e+07 -0.000519821 3.59342e+07 -9.00704e-05 1.55902e+08)
(2.91669e+08 -1.25145e+07 2.65565e-05 4.63943e+07 -0.000420897 1.65477e+08)
(2.84055e+08 -1.5052e+07 -0.000170542 3.86393e+07 -0.000270014 1.57681e+08)
(2.95645e+08 -1.24183e+07 -0.000116445 4.94701e+07 -9.89736e-05 1.67389e+08)
(2.87582e+08 -1.53104e+07 -0.000114242 4.13732e+07 3.21283e-05 1.59277e+08)
(2.99479e+08 -1.22984e+07 0.000410605 5.24869e+07 -0.000129428 1.69039e+08)
(2.91055e+08 -1.55522e+07 0.000528262 4.41322e+07 -7.34884e-05 1.60665e+08)
(3.03168e+08 -1.21469e+07 0.000670878 5.54388e+07 -0.000114932 1.70399e+08)
(2.94464e+08 -1.57722e+07 0.000383774 4.69047e+07 -4.47965e-05 1.61842e+08)
(3.06699e+08 -1.19563e+07 0.000347243 5.8313e+07 -6.19995e-05 1.71454e+08)
(2.97789e+08 -1.59637e+07 -1.43433e-05 4.96764e+07 -1.58656e-05 1.6274e+08)
(3.10062e+08 -1.17108e+07 0.000103023 6.11018e+07 -7.69772e-06 1.72177e+08)
(3.0101e+08 -1.61136e+07 -0.000196617 5.24265e+07 6.4465e-05 1.63316e+08)
(3.13242e+08 -1.1394e+07 -5.11783e-05 6.37947e+07 5.80933e-05 1.72517e+08)
(3.04099e+08 -1.62082e+07 -3.25576e-05 5.51283e+07 3.52709e-05 1.63575e+08)
(3.16217e+08 -1.09918e+07 9.10685e-05 6.63713e+07 -3.49935e-05 1.72472e+08)
(3.07017e+08 -1.62312e+07 0.000222156 5.77494e+07 -0.000118073 1.63421e+08)
(3.18968e+08 -1.04804e+07 5.75394e-05 6.88221e+07 -0.000148465 1.72004e+08)
(3.0972e+08 -1.61581e+07 0.000142445 6.02497e+07 -0.000297282 1.6282e+08)
(3.21471e+08 -9.83741e+06 -9.22939e-06 7.11326e+07 -0.000541455 1.71062e+08)
(3.12168e+08 -1.59664e+07 5.73648e-05 6.2585e+07 -0.000606228 1.61781e+08)
(3.23699e+08 -9.05056e+06 1.42219e-05 7.32765e+07 -0.000603894 1.69698e+08)
(3.14296e+08 -1.5624e+07 -0.000106937 6.47007e+07 -0.0002376 1.60202e+08)
(3.25623e+08 -8.09272e+06 -0.000123958 7.52464e+07 -0.000310702 1.67834e+08)
(3.16068e+08 -1.51012e+07 -0.000125462 6.65495e+07 -0.000178075 1.58148e+08)
(3.27205e+08 -6.95602e+06 -0.000114567 7.70083e+07 -0.000252201 1.65507e+08)
(3.17426e+08 -1.43739e+07 -2.09642e-05 6.80771e+07 -2.80015e-05 1.55571e+08)
(3.28431e+08 -5.62796e+06 -0.00019074 7.85558e+07 -0.000100433 1.62748e+08)
(3.1835e+08 -1.34134e+07 -0.000118574 6.92532e+07 -7.98706e-05 1.5253e+08)
(3.29261e+08 -4.11328e+06 -0.000322288 7.98596e+07 -0.000179875 1.59554e+08)
(3.18816e+08 -1.22163e+07 -0.000314179 7.00421e+07 -0.000142452 1.49088e+08)
(3.29687e+08 -2.42092e+06 -0.00021388 8.08942e+07 -5.04207e-06 1.5604e+08)
(3.18834e+08 -1.07697e+07 -0.000145346 7.04519e+07 -5.4265e-07 1.45291e+08)
(3.29687e+08 -566805 3.0003e-05 8.16511e+07 2.58712e-05 1.52192e+08)
(3.18422e+08 -9.09833e+06 -1.87773e-05 7.04749e+07 -0.000132255 1.41284e+08)
(3.29268e+08 1.40662e+06 0.000117022 8.20894e+07 -4.92279e-05 1.48176e+08)
(3.17624e+08 -7.2084e+06 6.89015e-05 7.01646e+07 2.44202e-05 1.37101e+08)
(3.28434e+08 3.48176e+06 2.54531e-05 8.22203e+07 0.000101889 1.43972e+08)
(3.16487e+08 -5.1518e+06 1.13435e-05 6.95332e+07 0.000190859 1.32913e+08)
(3.27208e+08 5.59445e+06 6.67761e-05 8.19956e+07 0.00019211 1.3975e+08)
(3.15078e+08 -2.94134e+06 0.000167312 6.86653e+07 0.000194985 1.28738e+08)
(3.2562e+08 7.73044e+06 -3.3721e-05 8.14429e+07 0.000168357 1.35498e+08)
(3.1345e+08 -642678 -0.000186947 6.75746e+07 0.00013756 1.24731e+08)
(3.23696e+08 9.83586e+06 -0.00020077 8.05167e+07 9.07472e-05 1.31331e+08)
(3.11672e+08 1.73778e+06 -0.000188322 6.63519e+07 4.29641e-05 1.20891e+08)
(3.21453e+08 1.19094e+07 -5.25256e-05 7.92148e+07 1.26203e-05 1.27254e+08)
(3.09791e+08 4.14755e+06 -0.000181907 6.50151e+07 0.000155245 1.17309e+08)
(3.18848e+08 1.39747e+07 -0.000147103 7.74446e+07 0.000192976 1.23277e+08)
(3.07823e+08 6.57109e+06 -3.4279e-05 6.36057e+07 0.000263726 1.13926e+08)
(3.15633e+08 1.59613e+07 -6.91223e-05 7.48762e+07 0.0002416 1.19232e+08)
(3.05738e+08 8.89982e+06 5.88501e-05 6.20977e+07 0.000240853 1.10648e+08)
(3.1152e+08 1.72109e+07 -0.000217775 7.09898e+07 0.000240246 1.14775e+08)
(3.00279e+08 1.11987e+07 -0.000132035 6.16156e+07 0.000142588 1.08568e+08)
(2.24581e+08 -1.61808e+07 0.000238412 3.65857e+06 0.000248695 1.23328e+08)
(2.25093e+08 -1.42976e+07 -0.000150235 1.94813e+06 0.000540053 1.20628e+08)
(2.29541e+08 -1.64859e+07 0.000403387 6.03364e+06 0.000231878 1.26381e+08)
(2.30719e+08 -1.48252e+07 0.000132254 5.1843e+06 -5.63863e-05 1.24496e+08)
(2.34519e+08 -1.67371e+07 5.46251e-05 8.62574e+06 -0.000321157 1.29532e+08)
(2.36033e+08 -1.53255e+07 -0.000124879 8.29875e+06 -0.00028977 1.28146e+08)
(2.39471e+08 -1.69616e+07 -0.000229654 1.13729e+07 -0.00039009 1.3273e+08)
(2.41058e+08 -1.58062e+07 0.000308223 1.12961e+07 2.72368e-05 1.31582e+08)
(2.44376e+08 -1.71665e+07 0.000495786 1.42353e+07 0.000460876 1.35935e+08)
(2.45827e+08 -1.62736e+07 0.000905144 1.41916e+07 0.000633466 1.34816e+08)
(2.49227e+08 -1.73517e+07 0.000737413 1.71914e+07 0.000614686 1.39122e+08)
(2.50374e+08 -1.67299e+07 0.000788086 1.7007e+07 0.000630551 1.37868e+08)
(2.54019e+08 -1.75158e+07 0.000845421 2.02219e+07 0.000675629 1.42268e+08)
(2.54726e+08 -1.71729e+07 0.0010394 1.97582e+07 0.000977545 1.40755e+08)
(2.58746e+08 -1.76552e+07 0.00116622 2.33101e+07 0.00094638 1.45349e+08)
(2.5891e+08 -1.75998e+07 0.00126668 2.24624e+07 0.00146237 1.43487e+08)
(2.63399e+08 -1.77688e+07 0.0013542 2.64403e+07 0.00111682 1.48347e+08)
(2.62951e+08 -1.80106e+07 0.00154777 2.51344e+07 0.00122846 1.46072e+08)
(2.67974e+08 -1.78561e+07 0.00148735 2.95984e+07 0.000513085 1.51244e+08)
(2.66875e+08 -1.84071e+07 0.00116432 2.77918e+07 0.000732163 1.48517e+08)
(2.72463e+08 -1.79193e+07 0.000860056 3.27693e+07 7.50692e-05 1.54014e+08)
(2.70704e+08 -1.87902e+07 0.00070408 3.04501e+07 0.000285632 1.50824e+08)
(2.76858e+08 -1.79585e+07 0.000608207 3.59388e+07 3.72816e-05 1.56634e+08)
(2.74455e+08 -1.9159e+07 0.000553159 3.31217e+07 0.000304428 1.53001e+08)
(2.81148e+08 -1.7974e+07 -0.000139836 3.90906e+07 0.000322591 1.59082e+08)
(2.7814e+08 -1.95122e+07 -0.000336913 3.58139e+07 0.000420766 1.55034e+08)
(2.85322e+08 -1.79642e+07 -0.000522748 4.22114e+07 0.000200412 1.61338e+08)
(2.81767e+08 -1.98473e+07 -0.000294132 3.85319e+07 0.000170743 1.56906e+08)
(2.89367e+08 -1.79253e+07 -0.000484525 4.52852e+07 2.33641e-05 1.63366e+08)
(2.85336e+08 -2.0161e+07 -0.000765422 4.12728e+07 0.000414413 1.58595e+08)
(2.93273e+08 -1.78494e+07 -0.000439664 4.8299e+07 0.000243038 1.65135e+08)
(2.88845e+08 -2.04491e+07 -0.000157097 4.4031e+07 0.00026166 1.60095e+08)
(2.9703e+08 -1.77294e+07 0.000291227 5.12381e+07 0.000101438 1.66627e+08)
(2.92284e+08 -2.07048e+07 0.000120498 4.6796e+07 7.51978e-05 1.61356e+08)
(3.00628e+08 -1.75542e+07 8.00845e-05 5.4092e+07 -3.24123e-05 1.67818e+08)
(2.95633e+08 -2.09167e+07 -0.000276753 4.95485e+07 -2.70965e-05 1.6233e+08)
(3.04049e+08 -1.73062e+07 -0.000322431 5.68443e+07 5.87949e-06 1.68654e+08)
(2.98869e+08 -2.10697e+07 -0.000409541 5.22612e+07 7.45369e-05 1.62995e+08)
(3.0728e+08 -1.69678e+07 -0.000391914 5.94798e+07 0.00012307 1.69117e+08)
(3.01959e+08 -2.11487e+07 5.80005e-06 5.49042e+07 7.3586e-05 1.63301e+08)
(3.10309e+08 -1.65209e+07 0.000216818 6.19883e+07 -7.77475e-06 1.692e+08)
(3.04858e+08 -2.11286e+07 0.000486655 5.74336e+07 -0.000149362 1.63169e+08)
(3.13111e+08 -1.59365e+07 0.00036047 6.43511e+07 -0.000186661 1.68833e+08)
(3.07523e+08 -2.09819e+07 0.00035347 5.97998e+07 -0.000279842 1.62598e+08)
(3.15668e+08 -1.51944e+07 0.000295132 6.65545e+07 -0.000357053 1.68033e+08)
(3.09896e+08 -2.0679e+07 7.83031e-05 6.19482e+07 -0.000495532 1.61522e+08)
(3.17962e+08 -1.42693e+07 -8.39781e-06 6.85859e+07 -0.00050032 1.66783e+08)
(3.1192e+08 -2.01807e+07 -0.000184511 6.38171e+07 -0.00056071 1.59903e+08)
(3.19959e+08 -1.31327e+07 -0.000235215 7.04273e+07 -0.000302517 1.65047e+08)
(3.13552e+08 -1.94569e+07 -0.000188494 6.53495e+07 -0.00042241 1.57794e+08)
(3.21651e+08 -1.17791e+07 -6.08519e-05 7.20684e+07 -0.000223156 1.62917e+08)
(3.14735e+08 -1.847e+07 0.000183631 6.64947e+07 -0.00042581 1.5513e+08)
(3.22999e+08 -1.01842e+07 0.000205913 7.34948e+07 -0.000154051 1.60331e+08)
(3.15465e+08 -1.72065e+07 8.25004e-05 6.72228e+07 -0.000203375 1.52061e+08)
(3.23996e+08 -8.36325e+06 -7.66612e-05 7.46916e+07 -5.4875e-05 1.57425e+08)
(3.15719e+08 -1.56504e+07 -0.000223561 6.7523e+07 -0.000150957 1.48557e+08)
(3.24618e+08 -6.31142e+06 -0.000258421 7.56531e+07 -0.000139123 1.54182e+08)
(3.15534e+08 -1.38171e+07 -0.000263383 6.74122e+07 -0.000132232 1.44804e+08)
(3.24859e+08 -4.0677e+06 -0.000250021 7.63572e+07 -0.000129222 1.50733e+08)
(3.14929e+08 -1.17203e+07 -0.000291626 6.69279e+07 -0.000121827 1.4082e+08)
(3.2472e+08 -1.65012e+06 -0.000229363 7.68145e+07 -0.000147878 1.471e+08)
(3.13973e+08 -9.40788e+06 -0.000303498 6.61232e+07 -7.95499e-06 1.36786e+08)
(3.24204e+08 883574 -0.000132521 7.69946e+07 7.92817e-05 1.43396e+08)
(3.12714e+08 -6.9073e+06 -0.00025539 6.50713e+07 0.000144073 1.3272e+08)
(3.23334e+08 3.50937e+06 -6.19971e-05 7.69223e+07 0.000176347 1.3964e+08)
(3.11221e+08 -4.28878e+06 -8.62495e-07 6.38236e+07 9.5335e-05 1.28772e+08)
(3.22118e+08 6.16274e+06 0.00017347 7.65591e+07 0.000115 1.35924e+08)
(3.09555e+08 -1.57004e+06 -0.000151958 6.24732e+07 1.49436e-05 1.24932e+08)
(3.20585e+08 8.83554e+06 -0.000306547 7.59358e+07 6.72642e-05 1.32236e+08)
(3.07764e+08 1.17792e+06 -0.000481576 6.10444e+07 2.18207e-05 1.21303e+08)
(3.18741e+08 1.1474e+07 -0.000342959 7.50065e+07 4.60118e-05 1.28638e+08)
(3.05886e+08 3.94553e+06 -0.000339457 5.96073e+07 -4.81084e-06 1.17829e+08)
(3.16595e+08 1.4091e+07 -0.000307544 7.37912e+07 0.000134281 1.2508e+08)
(3.03946e+08 6.67964e+06 -0.00024335 5.81633e+07 6.65121e-05 1.1456e+08)
(3.14219e+08 1.66171e+07 -3.76359e-06 7.23315e+07 0.000160704 1.21611e+08)
(3.0195e+08 9.36833e+06 5.55341e-05 5.67456e+07 -6.34734e-05 1.11413e+08)
(3.11774e+08 1.8901e+07 0.000149243 7.07881e+07 4.66996e-05 1.18232e+08)
(3.00032e+08 1.20294e+07 3.43678e-05 5.5429e+07 -7.77128e-05 1.08631e+08)
(3.0804e+08 2.123e+07 2.4192e-05 6.76309e+07 2.67614e-05 1.14499e+08)
(2.97986e+08 1.45046e+07 5.31463e-05 5.41022e+07 -2.8396e-05 1.0569e+08)
(2.23493e+08 -2.05459e+07 -0.00068284 3.65545e+06 0.000289855 1.22726e+08)
(2.25583e+08 -1.86728e+07 -0.000491204 3.36543e+06 0.000531382 1.21222e+08)
(2.28476e+08 -2.09166e+07 -0.000222355 6.10629e+06 0.000491202 1.25819e+08)
(2.31212e+08 -1.92195e+07 -0.000363622 6.66256e+06 0.000523993 1.25071e+08)
(2.33379e+08 -2.12441e+07 -0.000183516 8.66958e+06 6.13501e-07 1.289e+08)
(2.36588e+08 -1.97506e+07 -2.11887e-05 9.89517e+06 3.09947e-05 1.28756e+08)
(2.38222e+08 -2.15405e+07 0.000569901 1.13489e+07 0.000151996 1.31979e+08)
(2.41703e+08 -2.0269e+07 0.000667927 1.30365e+07 0.00057881 1.32253e+08)
(2.43009e+08 -2.18155e+07 0.000811417 1.41342e+07 0.000622322 1.3505e+08)
(2.46573e+08 -2.07785e+07 0.000478161 1.60867e+07 0.000754916 1.35559e+08)
(2.47738e+08 -2.20729e+07 0.000626309 1.70078e+07 0.000780052 1.38095e+08)
(2.51214e+08 -2.12785e+07 0.000839729 1.90526e+07 0.000952673 1.3868e+08)
(2.52405e+08 -2.23107e+07 0.00119343 1.99545e+07 0.00109997 1.41095e+08)
(2.55649e+08 -2.17668e+07 0.00148641 2.19458e+07 0.00137364 1.41624e+08)
(2.57003e+08 -2.25259e+07 0.0014277 2.29576e+07 0.00175883 1.44029e+08)
(2.59905e+08 -2.22443e+07 0.0015538 2.47809e+07 0.00176387 1.44398e+08)
(2.61531e+08 -2.27165e+07 0.00158266 2.60046e+07 0.00157192 1.46879e+08)
(2.6401e+08 -2.27122e+07 0.00146762 2.75755e+07 0.00126951 1.47012e+08)
(2.65986e+08 -2.28813e+07 0.00111208 2.90809e+07 0.00113761 1.49624e+08)
(2.67991e+08 -2.31698e+07 0.000986993 3.03484e+07 0.00109362 1.49475e+08)
(2.70359e+08 -2.30191e+07 0.00088332 3.21703e+07 0.000886969 1.52245e+08)
(2.71867e+08 -2.3614e+07 0.000681434 3.31136e+07 0.000795078 1.51785e+08)
(2.74639e+08 -2.31263e+07 0.000447631 3.52552e+07 0.000451541 1.54714e+08)
(2.75657e+08 -2.40403e+07 -5.8168e-05 3.58836e+07 0.000396183 1.53936e+08)
(2.78812e+08 -2.31986e+07 -0.000147154 3.83183e+07 0.000346257 1.56997e+08)
(2.79369e+08 -2.44433e+07 -0.000457383 3.86619e+07 0.000408301 1.55911e+08)
(2.82864e+08 -2.32284e+07 -0.000418908 4.13386e+07 0.000450425 1.5906e+08)
(2.83009e+08 -2.48181e+07 -0.000377779 4.14483e+07 0.000330192 1.57703e+08)
(2.86782e+08 -2.32073e+07 -0.000533919 4.42993e+07 0.000436196 1.60878e+08)
(2.86575e+08 -2.51583e+07 -0.000108996 4.4238e+07 0.000377045 1.5928e+08)
(2.90557e+08 -2.31265e+07 -6.56755e-05 4.71847e+07 0.000372405 1.62429e+08)
(2.90055e+08 -2.54528e+07 0.000196766 4.70158e+07 0.000274755 1.60598e+08)
(2.94171e+08 -2.2971e+07 -6.46064e-05 4.99758e+07 0.000136277 1.63664e+08)
(2.9343e+08 -2.56875e+07 -0.000168918 4.97588e+07 0.000195844 1.61612e+08)
(2.97609e+08 -2.27209e+07 -0.000334965 5.26523e+07 0.000136698 1.64542e+08)
(2.96675e+08 -2.58458e+07 -0.000223818 5.24368e+07 0.00016055 1.62302e+08)
(3.0086e+08 -2.23609e+07 -0.000254166 5.52024e+07 6.28602e-05 1.65064e+08)
(2.99748e+08 -2.59055e+07 -0.00013403 5.50078e+07 8.71132e-05 1.62589e+08)
(3.03906e+08 -2.18648e+07 0.000102049 5.76075e+07 4.99931e-05 1.65179e+08)
(3.026e+08 -2.58382e+07 0.000148177 5.74204e+07 3.50031e-05 1.62409e+08)
(3.06726e+08 -2.12017e+07 0.00032104 5.98488e+07 -8.26466e-05 1.64844e+08)
(3.05186e+08 -2.56131e+07 0.000223683 5.96164e+07 0.000118523 1.61765e+08)
(3.09312e+08 -2.03541e+07 0.000384839 6.1919e+07 -4.64666e-05 1.641e+08)
(3.07436e+08 -2.51887e+07 0.000403024 6.15248e+07 9.71166e-05 1.6057e+08)
(3.11637e+08 -1.92873e+07 0.000154251 6.37998e+07 -0.00028174 1.6289e+08)
(3.09296e+08 -2.45254e+07 -0.000143989 6.30779e+07 4.60043e-06 1.58824e+08)
(3.13683e+08 -1.79784e+07 -0.000391468 6.54786e+07 -0.000278605 1.61237e+08)
(3.10719e+08 -2.35866e+07 -0.000176008 6.42143e+07 -6.45342e-05 1.56554e+08)
(3.15436e+08 -1.64148e+07 7.54277e-05 6.69506e+07 -0.000470859 1.59199e+08)
(3.11663e+08 -2.23383e+07 0.000191296 6.48894e+07 -0.000255603 1.53758e+08)
(3.16864e+08 -1.4579e+07 0.000165916 6.81985e+07 -0.000409466 1.5676e+08)
(3.12129e+08 -2.07733e+07 0.000144127 6.50886e+07 -7.6466e-05 1.50572e+08)
(3.17971e+08 -1.24874e+07 4.02029e-05 6.92266e+07 -0.000144807 1.54062e+08)
(3.12121e+08 -1.88843e+07 -4.84852e-05 6.48244e+07 0.00014951 1.47018e+08)
(3.18721e+08 -1.01443e+07 -0.000152327 7.0019e+07 -9.7006e-06 1.51082e+08)
(3.11685e+08 -1.67053e+07 -0.000278401 6.41419e+07 0.000160322 1.43274e+08)
(3.19135e+08 -7.59042e+06 -0.000353599 7.05865e+07 1.9761e-05 1.47982e+08)
(3.10871e+08 -1.42602e+07 -0.000420845 6.31087e+07 0.000229015 1.39397e+08)
(3.1919e+08 -4.85919e+06 -0.000368642 7.09214e+07 7.66494e-05 1.44757e+08)
(3.09742e+08 -1.1612e+07 -0.000508083 6.18038e+07 0.000324177 1.35513e+08)
(3.18917e+08 -1.99244e+06 -0.000498935 7.10387e+07 0.000254884 1.41517e+08)
(3.08375e+08 -8.80334e+06 -0.000329869 6.03188e+07 0.00041853 1.31703e+08)
(3.1831e+08 952943 -0.000253818 7.0931e+07 0.000212781 1.3828e+08)
(3.06822e+08 -5.89201e+06 -0.000235514 5.87289e+07 0.000182954 1.28003e+08)
(3.17404e+08 3.95369e+06 -0.000173016 7.06248e+07 3.4025e-05 1.35082e+08)
(3.0514e+08 -2.93903e+06 -0.000140509 5.70931e+07 9.98034e-05 1.24482e+08)
(3.16198e+08 6.94708e+06 -0.000286117 7.00982e+07 6.14787e-05 1.31947e+08)
(3.03376e+08 40125.7 -0.00043155 5.54827e+07 0.000216499 1.21113e+08)
(3.14725e+08 9.93164e+06 -0.000468228 6.93909e+07 0.000120471 1.28854e+08)