/*--------------------------------*- C++ -*----------------------------------*\
| =========                 |                                                 |
| \\      /  F ield         | OpenFOAM: The Open Source CFD Toolbox           |
|  \\    /   O peration     | Version:  v2012                                 |
|   \\  /    A nd           | Website:  www.openfoam.com                      |
|    \\/     M anipulation  |                                                 |
\*---------------------------------------------------------------------------*/
FoamFile
{
    version     2.0;
    format      ascii;
    class       volScalarField;
    location    "10";
    object      epsilonEq;
}
// * * * * * * * * * * * * * * * * * * * * * * * * * * * * * * * * * * * * * //

dimensions      [0 0 0 0 0 0 0];


internalField   nonuniform List<scalar> 
500
(
0.03267
0.0100343
0.0151584
0.0082273
0.0087674
0.0051693
0.00507334
0.00346509
0.00329033
0.00290744
0.00773099
0.00752052
0.00549938
0.00468284
0.00423502
0.00342623
0.00367048
0.00326062
0.00339983
0.00326666
0.00494561
0.00297414
0.0030055
0.0027136
0.00293805
0.00278476
0.00303054
0.00293405
0.0033197
0.00316503
0.00244546
0.00218495
0.00232052
0.00229111
0.00253391
0.00250178
0.00279721
0.00270181
0.00298404
0.00284243
0.00164783
0.00136404
0.00186384
0.00188247
0.00228705
0.00227821
0.00259807
0.00257608
0.00284894
0.00286723
0.000552218
0.000904325
0.00137867
0.00152424
0.00194767
0.0019717
0.00225412
0.00242765
0.00241109
0.00247895
0.00052983
0.00112979
0.00103931
0.00138292
0.00153385
0.00165183
0.00181559
0.00183434
0.00191336
0.00183272
0.00127386
0.00149
0.0010166
0.0013486
0.00114682
0.00135708
0.00128291
0.00138648
0.00132694
0.00126438
0.00173004
0.0017109
0.00116665
0.00135947
0.000944248
0.00118254
0.000899442
0.00109465
0.000857161
0.00084605
0.00190614
0.00180001
0.00132498
0.00137863
0.000966448
0.00109517
0.000752168
0.000860128
0.000512651
0.00049277
0.000143261
0.000365783
0.000602462
0.000805158
0.00119243
0.00130233
0.00185192
0.00174695
0.00238702
0.00231758
6.60268e-05
0.000387724
0.000502252
0.000806649
0.000995248
0.00124662
0.00151961
0.00168317
0.00198164
0.002055
0.000301094
0.000534522
0.000581447
0.000889897
0.000967798
0.00129188
0.00135748
0.00167275
0.00171662
0.00194074
0.000478205
0.000678275
0.00068508
0.000989052
0.00101072
0.00133819
0.00136999
0.00163912
0.00169233
0.00185025
0.000584243
0.000786236
0.000778135
0.0010623
0.00108237
0.00135285
0.00139487
0.00158847
0.00164333
0.00175476
0.000689672
0.000884186
0.000866404
0.00111611
0.00113657
0.00135004
0.00138938
0.00153453
0.00158275
0.00166487
0.000805487
0.00097342
0.000939148
0.00115374
0.00115688
0.00133482
0.00135683
0.00147559
0.0015106
0.00157449
0.000899459
0.0010297
0.000979153
0.00116284
0.00114232
0.00129658
0.00129771
0.00139909
0.00142031
0.00147074
0.000940512
0.00101747
0.000973013
0.00112109
0.00109088
0.00121795
0.00121165
0.00129748
0.00131321
0.00135846
0.000937367
0.00096369
0.000951511
0.00101933
0.0010336
0.00110316
0.0011303
0.00119543
0.00122468
0.00127588
0.00258837
0.00231459
0.00254356
0.00236442
0.00254531
0.00240274
0.00256243
0.0024299
0.00259412
0.00245556
0.00264388
0.00250099
0.00271603
0.00257553
0.00281542
0.00267058
0.00293712
0.00280255
0.00313612
0.00295933
0.00231672
0.0021696
0.00237213
0.00220536
0.00239633
0.00223914
0.00242237
0.00228552
0.00244078
0.00231334
0.00247882
0.00238422
0.00256335
0.00246833
0.00266297
0.00256496
0.00277129
0.00267855
0.00287906
0.00281201
0.00196041
0.00204674
0.00204716
0.00209064
0.00212149
0.00212739
0.00219539
0.00216747
0.00228101
0.00221286
0.00235266
0.00226682
0.00243195
0.00233127
0.00251813
0.00240619
0.0026092
0.00248743
0.00269188
0.00259189
0.00187298
0.00193313
0.00192846
0.00196662
0.00197811
0.00199976
0.00203627
0.00203626
0.00210215
0.00207785
0.00217263
0.00212287
0.00224711
0.00217402
0.00232298
0.00222588
0.00239662
0.00227297
0.00245644
0.00233293
0.00178602
0.00182308
0.00183142
0.00185066
0.00186939
0.00187842
0.00191332
0.00190942
0.00196169
0.00194197
0.00201059
0.00196808
0.00207275
0.0020162
0.00213206
0.00204087
0.00217191
0.00205905
0.00219991
0.00208161
0.00169775
0.00172146
0.00173556
0.00174243
0.00176525
0.00176247
0.00179857
0.0017854
0.00183544
0.00181239
0.00187885
0.00183875
0.00190947
0.00185616
0.00193834
0.00186578
0.00195685
0.001865
0.00196264
0.0018599
0.00160455
0.00161824
0.00163667
0.00163493
0.00166208
0.00165024
0.0016892
0.00167147
0.00171684
0.00168858
0.00174002
0.00170385
0.00175995
0.00171261
0.00177224
0.0017117
0.00177333
0.00169798
0.00176239
0.00167329
0.0014952
0.00150243
0.00152266
0.00151835
0.00154358
0.0015339
0.00156729
0.00155201
0.0015916
0.00156764
0.00161105
0.00157966
0.00162467
0.00158617
0.00163011
0.0015839
0.00162378
0.00156916
0.00160598
0.00153591
0.00138394
0.00139389
0.00141941
0.0014166
0.00144685
0.00143597
0.00146992
0.00145324
0.0014901
0.00146925
0.00150676
0.00148347
0.00151846
0.00149423
0.00152313
0.00149892
0.00151886
0.0014945
0.00150423
0.00146695
0.00129847
0.00132234
0.00134523
0.00136265
0.00138131
0.00139679
0.00141064
0.00142614
0.00143488
0.00145057
0.00145408
0.0014694
0.00146748
0.00148191
0.00147391
0.00148754
0.00147253
0.00148616
0.00146537
0.00147795
0.00268367
0.00268111
0.00244478
0.00259932
0.0022643
0.00251466
0.00211902
0.00241928
0.00198593
0.00230587
0.00185158
0.00217306
0.00171513
0.00202668
0.00158581
0.00187767
0.00147618
0.00174057
0.0013962
0.00146182
0.00322142
0.00303432
0.00295172
0.00299326
0.00283594
0.0029774
0.00268712
0.00293388
0.00249548
0.00283794
0.00229427
0.00270201
0.00209713
0.00254593
0.00191072
0.00238621
0.0017417
0.00224427
0.00160533
0.00206014
0.00351529
0.00323357
0.00347769
0.00335563
0.00342554
0.00331611
0.00310814
0.00307502
0.00291859
0.0029623
0.00277015
0.00287922
0.0026068
0.00278378
0.00244234
0.00269546
0.00229707
0.00264541
0.00220268
0.00265822
0.00339435
0.00304058
0.00368284
0.00326355
0.00333746
0.00305496
0.00314596
0.00297805
0.00301585
0.00292534
0.00294849
0.00288645
0.00286494
0.00284934
0.00278314
0.00283078
0.0027303
0.00286464
0.00272132
0.00300055
0.00381171
0.00302605
0.00300498
0.00292705
0.00300826
0.00284292
0.00300072
0.00277545
0.00298776
0.00273621
0.00296879
0.00271796
0.00294994
0.00272424
0.00294358
0.0027675
0.00296609
0.00287159
0.00307388
0.00318219
)
;

boundaryField
{
    back
    {
        type            empty;
    }
    front
    {
        type            empty;
    }
    left
    {
        type            symmetry;
    }
    hole
    {
        type            calculated;
        value           nonuniform List<scalar> 10(0.0344749 0.00850884 0.00524247 0.00250049 0.00167991 0.000576273 0.000449011 0.00122037 0.00169934 0.00189962);
    }
    down
    {
        type            symmetry;
    }
    right
    {
        type            calculated;
        value           nonuniform List<scalar> 
15
(
0.000976888
0.0010245
0.00109278
0.00117744
0.00126641
0.00130795
0.00133659
0.00136559
0.00139248
0.00141571
0.00143472
0.00144948
0.00146031
0.0014676
0.00146872
)
;
    }
    up
    {
        type            calculated;
        value           nonuniform List<scalar> 
15
(
0.00298819
0.00282678
0.00260627
0.00234112
0.0020863
0.00186127
0.00167433
0.00153741
0.00147093
0.00147866
0.00146283
0.00198246
0.00259707
0.00295832
0.00319768
)
;
    }
}


// ************************************************************************* //
