/*--------------------------------*- C++ -*----------------------------------*\
| =========                 |                                                 |
| \\      /  F ield         | OpenFOAM: The Open Source CFD Toolbox           |
|  \\    /   O peration     | Version:  v2012                                 |
|   \\  /    A nd           | Website:  www.openfoam.com                      |
|    \\/     M anipulation  |                                                 |
\*---------------------------------------------------------------------------*/
FoamFile
{
    version     2.0;
    format      ascii;
    class       pointVectorField;
    location    "10";
    object      pointD;
}
// * * * * * * * * * * * * * * * * * * * * * * * * * * * * * * * * * * * * * //

dimensions      [0 1 0 0 0 0 0];


internalField   nonuniform List<vector> 
572
(
(0.00462263 0 -1.14309e-21)
(0.00568737 0 7.33523e-21)
(0.00513134 -0.000379797 -6.44206e-21)
(0 -0.0034363 4.9589e-22)
(0 -0.00230562 8.96958e-21)
(0.00471902 0 0)
(0 -0.00339789 0)
(0.00303414 -0.000808371 0)
(0.00136215 -0.00160066 -1.65369e-21)
(0.00547148 -2.34689e-05 -2.49837e-20)
(0.00367958 -0.00154665 -4.5536e-21)
(0.00367958 -0.00154665 -4.5536e-21)
(0.00303414 -0.000808371 0)
(0 -0.00339789 0)
(0 -0.00230562 8.96958e-21)
(0.00462263 0 -1.14309e-21)
(0.00471902 0 0)
(0.00568737 0 7.33523e-21)
(0.00547148 -2.34689e-05 -2.49837e-20)
(0.00513134 -0.000379797 -6.44206e-21)
(0.00136215 -0.00160066 -1.65369e-21)
(0 -0.0034363 4.9589e-22)
(0.000504525 -0.00312596 0)
(0.00107221 -0.00256826 0)
(0.00167735 -0.00194051 0)
(0.00231057 -0.00135936 0)
(0.00372863 -0.000343245 0)
(0.00418317 -0.000124534 0)
(0.00449585 -3.22677e-05 0)
(0.00467035 -4.26452e-06 0)
(0.0046597 0 0)
(0.00469222 0 0)
(0.00471259 0 0)
(0.00472093 0 0)
(0.00471812 0 0)
(0.00473447 0 0)
(0.00477764 0 0)
(0.00484876 0 0)
(0.00494343 0 0)
(0.00506143 0 0)
(0.00520296 0 0)
(0.00536474 0 0)
(0.00553787 0 0)
(0.00573453 1.86732e-05 9.07434e-21)
(0.00569843 3.81292e-05 2.06684e-21)
(0.00563224 3.71738e-05 1.20567e-20)
(0.00554832 1.1981e-05 3.41591e-21)
(0.00542649 -5.07584e-05 -2.97738e-20)
(0.00538575 -8.19156e-05 -1.43633e-20)
(0.00534705 -0.000116423 -1.57312e-20)
(0.00531108 -0.000153447 -1.5045e-20)
(0.0052782 -0.000192211 5.57724e-21)
(0.00524856 -0.000231959 -2.08363e-20)
(0.00522211 -0.000271902 -3.59288e-20)
(0.00519848 -0.000311238 -2.54538e-20)
(0.005177 -0.000348954 -2.03481e-20)
(0.0049519 -0.000429716 -6.08827e-22)
(0.0047031 -0.000483001 -1.91081e-22)
(0.00443773 -0.000522334 4.90214e-22)
(0.004141 -0.000552661 -2.7584e-23)
(0.00380287 -0.000589034 -3.04704e-22)
(0.00341479 -0.000651347 -1.74675e-22)
(0.0029701 -0.000763394 -9.56524e-22)
(0.00247385 -0.00095026 -1.33129e-21)
(0.00193968 -0.00122242 -5.49442e-22)
(0.000904167 -0.00199736 -3.27182e-21)
(0.000521138 -0.0024581 2.64222e-21)
(0.000241026 -0.00292868 4.40914e-21)
(9.25914e-05 -0.00327607 5.98592e-22)
(0 -0.00345532 0)
(0 -0.00343973 0)
(0 -0.00342479 0)
(0 -0.00341177 0)
(0 -0.00340125 0)
(0 -0.00339367 0)
(0 -0.00338943 0)
(0 -0.0033887 0)
(0 -0.00339122 0)
(0 -0.00339044 0)
(0 -0.00331956 0)
(0 -0.0031159 0)
(0 -0.00275733 0)
(0.00336066 -0.000543208 0)
(0.00358357 -0.000387351 0)
(0.00379047 -0.000263693 0)
(0.00402153 -0.000195285 0)
(0.00426234 -0.000168659 0)
(0.00450782 -0.00016422 0)
(0.00475513 -0.000164871 0)
(0.0050007 -0.000154639 0)
(0.00524164 -0.000113649 0)
(0.00270659 -0.00100053 0)
(0.00251256 -0.00108831 0)
(0.00233652 -0.00116898 0)
(0.00217168 -0.0012452 0)
(0.00201447 -0.00131823 0)
(0.00186302 -0.00138866 0)
(0.00171574 -0.0014571 0)
(0.00157188 -0.00152203 0)
(0.0014307 -0.00158729 0)
(0.00137497 -0.0022491 1.85331e-20)
(0.00205314 -0.0024536 3.131e-20)
(0.00269649 -0.0022754 1.12493e-20)
(0.00320196 -0.00192202 -2.29655e-20)
(0.00406551 -0.00117818 3.90268e-21)
(0.00434237 -0.000840932 -3.3982e-21)
(0.00451251 -0.000540716 -3.87403e-21)
(0.0045877 -0.000273444 -5.09534e-21)
(0.00351337 -0.00126862 0)
(0.00331849 -0.00110812 0)
(0.00317091 -0.000983273 0)
(0.00306143 -0.000890548 0)
(0.00351337 -0.00126862 0)
(0.00331849 -0.00110812 0)
(0.00317091 -0.000983273 0)
(0.00306143 -0.000890548 0)
(0.00231057 -0.00135936 0)
(0.00167735 -0.00194051 0)
(0.00107221 -0.00256826 0)
(0.000504525 -0.00312596 0)
(0 -0.00339044 0)
(0 -0.00331956 0)
(0 -0.0031159 0)
(0 -0.00275733 0)
(0.00137497 -0.0022491 1.85331e-20)
(0.00205314 -0.0024536 3.131e-20)
(0.00269649 -0.0022754 1.12493e-20)
(0.00320196 -0.00192202 -2.29655e-20)
(0.00406551 -0.00117818 3.90268e-21)
(0.00434237 -0.000840932 -3.3982e-21)
(0.00451251 -0.000540716 -3.87403e-21)
(0.0045877 -0.000273444 -5.09534e-21)
(0.0046597 0 0)
(0.00469222 0 0)
(0.00471259 0 0)
(0.00472093 0 0)
(0.00467035 -4.26452e-06 0)
(0.00449585 -3.22677e-05 0)
(0.00418317 -0.000124534 0)
(0.00372863 -0.000343245 0)
(0.00471812 0 0)
(0.00473447 0 0)
(0.00477764 0 0)
(0.00484876 0 0)
(0.00494343 0 0)
(0.00506143 0 0)
(0.00520296 0 0)
(0.00536474 0 0)
(0.00553787 0 0)
(0.00573453 1.86732e-05 9.07434e-21)
(0.00569843 3.81292e-05 2.06684e-21)
(0.00563224 3.71738e-05 1.20567e-20)
(0.00554832 1.1981e-05 3.41591e-21)
(0.00524164 -0.000113649 0)
(0.0050007 -0.000154639 0)
(0.00475513 -0.000164871 0)
(0.00450782 -0.00016422 0)
(0.00426234 -0.000168659 0)
(0.00402153 -0.000195285 0)
(0.00379047 -0.000263693 0)
(0.00358357 -0.000387351 0)
(0.00336066 -0.000543208 0)
(0.00542649 -5.07584e-05 -2.97738e-20)
(0.00538575 -8.19156e-05 -1.43633e-20)
(0.00534705 -0.000116423 -1.57312e-20)
(0.00531108 -0.000153447 -1.5045e-20)
(0.0052782 -0.000192211 5.57724e-21)
(0.00524856 -0.000231959 -2.08363e-20)
(0.00522211 -0.000271902 -3.59288e-20)
(0.00519848 -0.000311238 -2.54538e-20)
(0.005177 -0.000348954 -2.03481e-20)
(0.0049519 -0.000429716 -6.08827e-22)
(0.0047031 -0.000483001 -1.91081e-22)
(0.00443773 -0.000522334 4.90214e-22)
(0.004141 -0.000552661 -2.7584e-23)
(0.00380287 -0.000589034 -3.04704e-22)
(0.00341479 -0.000651347 -1.74675e-22)
(0.0029701 -0.000763394 -9.56524e-22)
(0.00247385 -0.00095026 -1.33129e-21)
(0.00193968 -0.00122242 -5.49442e-22)
(0.0014307 -0.00158729 0)
(0.00157188 -0.00152203 0)
(0.00171574 -0.0014571 0)
(0.00186302 -0.00138866 0)
(0.00201447 -0.00131823 0)
(0.00217168 -0.0012452 0)
(0.00233652 -0.00116898 0)
(0.00251256 -0.00108831 0)
(0.00270659 -0.00100053 0)
(0.000904167 -0.00199736 -3.27182e-21)
(0.000521138 -0.0024581 2.64222e-21)
(0.000241026 -0.00292868 4.40914e-21)
(9.25914e-05 -0.00327607 5.98592e-22)
(0 -0.00345532 0)
(0 -0.00343973 0)
(0 -0.00342479 0)
(0 -0.00341177 0)
(0 -0.00340125 0)
(0 -0.00339367 0)
(0 -0.00338943 0)
(0 -0.0033887 0)
(0 -0.00339122 0)
(0.00124045 -0.00273847 0)
(0.00100006 -0.00297206 0)
(0.000784523 -0.00306928 0)
(0.000614014 -0.00310641 0)
(0.00190875 -0.00254602 0)
(0.00163847 -0.00255581 0)
(0.00139969 -0.0025532 0)
(0.00120907 -0.00255491 0)
(0.00245733 -0.00213351 0)
(0.00219098 -0.00205684 0)
(0.00197763 -0.00199962 0)
(0.00180828 -0.00195626 0)
(0.00299048 -0.00169213 0)
(0.00275561 -0.00156563 0)
(0.0025717 -0.00146616 0)
(0.00242649 -0.00138651 0)
(0.00396691 -0.000902775 0)
(0.00383142 -0.000735559 0)
(0.00372675 -0.000604825 0)
(0.00364168 -0.000504521 0)
(0.00430919 -0.000609642 0)
(0.00423598 -0.000464697 0)
(0.00417498 -0.000347271 0)
(0.00411623 -0.000248234 0)
(0.00452605 -0.000376597 0)
(0.00450359 -0.000274053 0)
(0.00448025 -0.000188422 0)
(0.00445113 -0.000113911 0)
(0.00462576 -0.0001849 0)
(0.00464047 -0.000135259 0)
(0.00464693 -9.10011e-05 0)
(0.00464492 -4.93877e-05 0)
(0.00466828 -7.30432e-06 0)
(0.00451169 -3.95861e-05 0)
(0.00423815 -0.000123842 0)
(0.00383787 -0.000289824 0)
(0.00469002 -2.38213e-05 0)
(0.00455158 -6.63273e-05 0)
(0.0043103 -0.000140335 0)
(0.00396166 -0.000250468 0)
(0.00474374 -2.77517e-05 0)
(0.00461549 -6.29703e-05 0)
(0.0043957 -0.000111203 0)
(0.00409713 -0.000176847 0)
(0.00482397 -2.33382e-05 0)
(0.00470664 -4.76346e-05 0)
(0.00451472 -8.06855e-05 0)
(0.00426874 -0.000129178 0)
(0.00492772 -1.91384e-05 0)
(0.00482623 -3.79217e-05 0)
(0.00466472 -6.724e-05 0)
(0.00446319 -0.000111598 0)
(0.00505496 -1.78705e-05 0)
(0.00497085 -3.6228e-05 0)
(0.00483739 -6.63198e-05 0)
(0.00467215 -0.000110606 0)
(0.00520481 -1.69491e-05 0)
(0.00513645 -3.63338e-05 0)
(0.00502677 -6.78483e-05 0)
(0.00489078 -0.000112687 0)
(0.00537351 -1.25365e-05 0)
(0.00531876 -3.06693e-05 0)
(0.00522825 -6.1218e-05 0)
(0.00511473 -0.000104624 0)
(0.00555407 -9.39027e-07 0)
(0.00551249 -9.26435e-06 0)
(0.00543686 -3.08742e-05 0)
(0.00533956 -6.75661e-05 0)
(0.00310852 -0.000673379 0)
(0.00293346 -0.000748507 0)
(0.00277023 -0.000817897 0)
(0.00261611 -0.000883638 0)
(0.00246943 -0.000947966 0)
(0.00233217 -0.00101125 0)
(0.00220176 -0.00107484 0)
(0.0020799 -0.0011372 0)
(0.00196644 -0.00120414 0)
(0.00339561 -0.000452235 0)
(0.00325814 -0.000505615 0)
(0.00312552 -0.000561168 0)
(0.00299742 -0.000618612 0)
(0.00287671 -0.000677224 0)
(0.002765 -0.00073608 0)
(0.00266064 -0.00079599 0)
(0.0025646 -0.000857561 0)
(0.00247769 -0.000921179 0)
(0.00364996 -0.000314501 0)
(0.00354654 -0.000359102 0)
(0.00344576 -0.000405795 0)
(0.0033485 -0.000454315 0)
(0.00325569 -0.000504698 0)
(0.00316857 -0.000557033 0)
(0.00308842 -0.000611288 0)
(0.00301647 -0.00066757 0)
(0.00295411 -0.000725773 0)
(0.00391122 -0.000239871 0)
(0.00382954 -0.00027966 0)
(0.00375049 -0.000321346 0)
(0.00367482 -0.000364824 0)
(0.0036035 -0.000410132 0)
(0.00353769 -0.000457357 0)
(0.00347891 -0.000506544 0)
(0.00342726 -0.000557476 0)
(0.00338507 -0.000609898 0)
(0.00417413 -0.000209459 0)
(0.00410823 -0.000245884 0)
(0.00404508 -0.000284025 0)
(0.00398526 -0.000323848 0)
(0.00392892 -0.0003656 0)
(0.00387799 -0.000409103 0)
(0.00383342 -0.000454104 0)
(0.00379554 -0.000500457 0)
(0.00376663 -0.000547735 0)
(0.00443568 -0.000202624 0)
(0.00438095 -0.000236541 0)
(0.00432898 -0.000271988 0)
(0.00427985 -0.000308582 0)
(0.00423334 -0.000347482 0)
(0.00419158 -0.000387701 0)
(0.00415551 -0.00042928 0)
(0.00412608 -0.000471733 0)
(0.00410426 -0.000514534 0)
(0.00469408 -0.000200891 0)
(0.00464649 -0.000232431 0)
(0.0046013 -0.000264747 0)
(0.00455834 -0.000298715 0)
(0.00451832 -0.000334976 0)
(0.00448234 -0.000372483 0)
(0.004451 -0.000411 0)
(0.00442496 -0.000450133 0)
(0.00440488 -0.000489346 0)
(0.0049465 -0.000187542 0)
(0.0049026 -0.000216436 0)
(0.0048609 -0.000246963 0)
(0.00482172 -0.000278998 0)
(0.00478536 -0.000312402 0)
(0.00475226 -0.000347074 0)
(0.00472281 -0.000382799 0)
(0.00469731 -0.000419196 0)
(0.00467594 -0.000455778 0)
(0.00519159 -0.000144101 0)
(0.00514894 -0.000172256 0)
(0.00510835 -0.000202121 0)
(0.00507039 -0.000233504 0)
(0.00503548 -0.00026622 0)
(0.00500389 -0.000300063 0)
(0.00497567 -0.000334775 0)
(0.00495067 -0.000370024 0)
(0.0049285 -0.000405284 0)
(0.000441281 -0.00314421 0)
(0.000393419 -0.00316392 0)
(0.000352987 -0.00318356 0)
(0.000316781 -0.00320354 0)
(0.000281698 -0.00322394 0)
(0.000245182 -0.00324475 0)
(0.000205102 -0.00326591 0)
(0.000159737 -0.00328719 0)
(0.000108112 -0.0033078 0)
(0.000963894 -0.00261446 0)
(0.000874035 -0.00266799 0)
(0.000795347 -0.002719 0)
(0.000720744 -0.00276523 0)
(0.000647025 -0.0028077 0)
(0.000571954 -0.00284801 0)
(0.000492172 -0.00288699 0)
(0.000404284 -0.00292528 0)
(0.000305381 -0.00296361 0)
(0.00154249 -0.00200387 0)
(0.00142133 -0.00208579 0)
(0.00130565 -0.00215792 0)
(0.00119234 -0.00222023 0)
(0.00108251 -0.00227689 0)
(0.000973874 -0.00233016 0)
(0.000862094 -0.00238115 0)
(0.000742888 -0.00243128 0)
(0.000612454 -0.00248228 0)
(0.00215199 -0.00144064 0)
(0.00199311 -0.00152605 0)
(0.00184171 -0.00160518 0)
(0.00169692 -0.00167864 0)
(0.00155764 -0.00174765 0)
(0.00142178 -0.00181307 0)
(0.00128608 -0.0018756 0)
(0.00114708 -0.00193675 0)
(0.00100099 -0.00199826 0)
(0.00124045 -0.00273847 0)
(0.00100006 -0.00297206 0)
(0.000784523 -0.00306928 0)
(0.000614014 -0.00310641 0)
(0.00190875 -0.00254602 0)
(0.00163847 -0.00255581 0)
(0.00139969 -0.0025532 0)
(0.00120907 -0.00255491 0)
(0.00245733 -0.00213351 0)
(0.00219098 -0.00205684 0)
(0.00197763 -0.00199962 0)
(0.00180828 -0.00195626 0)
(0.00299048 -0.00169213 0)
(0.00275561 -0.00156563 0)
(0.0025717 -0.00146616 0)
(0.00242649 -0.00138651 0)
(0.00396691 -0.000902775 0)
(0.00383142 -0.000735559 0)
(0.00372675 -0.000604825 0)
(0.00364168 -0.000504521 0)
(0.00430919 -0.000609642 0)
(0.00423598 -0.000464697 0)
(0.00417498 -0.000347271 0)
(0.00411623 -0.000248234 0)
(0.00452605 -0.000376597 0)
(0.00450359 -0.000274053 0)
(0.00448025 -0.000188422 0)
(0.00445113 -0.000113911 0)
(0.00462576 -0.0001849 0)
(0.00464047 -0.000135259 0)
(0.00464693 -9.10011e-05 0)
(0.00464492 -4.93877e-05 0)
(0.00466828 -7.30432e-06 0)
(0.00451169 -3.95861e-05 0)
(0.00423815 -0.000123842 0)
(0.00383787 -0.000289824 0)
(0.00469002 -2.38213e-05 0)
(0.00455158 -6.63273e-05 0)
(0.0043103 -0.000140335 0)
(0.00396166 -0.000250468 0)
(0.00474374 -2.77517e-05 0)
(0.00461549 -6.29703e-05 0)
(0.0043957 -0.000111203 0)
(0.00409713 -0.000176847 0)
(0.00482397 -2.33382e-05 0)
(0.00470664 -4.76346e-05 0)
(0.00451472 -8.06855e-05 0)
(0.00426874 -0.000129178 0)
(0.00492772 -1.91384e-05 0)
(0.00482623 -3.79217e-05 0)
(0.00466472 -6.724e-05 0)
(0.00446319 -0.000111598 0)
(0.00505496 -1.78705e-05 0)
(0.00497085 -3.6228e-05 0)
(0.00483739 -6.63198e-05 0)
(0.00467215 -0.000110606 0)
(0.00520481 -1.69491e-05 0)
(0.00513645 -3.63338e-05 0)
(0.00502677 -6.78483e-05 0)
(0.00489078 -0.000112687 0)
(0.00537351 -1.25365e-05 0)
(0.00531876 -3.06693e-05 0)
(0.00522825 -6.1218e-05 0)
(0.00511473 -0.000104624 0)
(0.00555407 -9.39027e-07 0)
(0.00551249 -9.26435e-06 0)
(0.00543686 -3.08742e-05 0)
(0.00533956 -6.75661e-05 0)
(0.00310852 -0.000673379 0)
(0.00293346 -0.000748507 0)
(0.00277023 -0.000817897 0)
(0.00261611 -0.000883638 0)
(0.00246943 -0.000947966 0)
(0.00233217 -0.00101125 0)
(0.00220176 -0.00107484 0)
(0.0020799 -0.0011372 0)
(0.00196644 -0.00120414 0)
(0.00339561 -0.000452235 0)
(0.00325814 -0.000505615 0)
(0.00312552 -0.000561168 0)
(0.00299742 -0.000618612 0)
(0.00287671 -0.000677224 0)
(0.002765 -0.00073608 0)
(0.00266064 -0.00079599 0)
(0.0025646 -0.000857561 0)
(0.00247769 -0.000921179 0)
(0.00364996 -0.000314501 0)
(0.00354654 -0.000359102 0)
(0.00344576 -0.000405795 0)
(0.0033485 -0.000454315 0)
(0.00325569 -0.000504698 0)
(0.00316857 -0.000557033 0)
(0.00308842 -0.000611288 0)
(0.00301647 -0.00066757 0)
(0.00295411 -0.000725773 0)
(0.00391122 -0.000239871 0)
(0.00382954 -0.00027966 0)
(0.00375049 -0.000321346 0)
(0.00367482 -0.000364824 0)
(0.0036035 -0.000410132 0)
(0.00353769 -0.000457357 0)
(0.00347891 -0.000506544 0)
(0.00342726 -0.000557476 0)
(0.00338507 -0.000609898 0)
(0.00417413 -0.000209459 0)
(0.00410823 -0.000245884 0)
(0.00404508 -0.000284025 0)
(0.00398526 -0.000323848 0)
(0.00392892 -0.0003656 0)
(0.00387799 -0.000409103 0)
(0.00383342 -0.000454104 0)
(0.00379554 -0.000500457 0)
(0.00376663 -0.000547735 0)
(0.00443568 -0.000202624 0)
(0.00438095 -0.000236541 0)
(0.00432898 -0.000271988 0)
(0.00427985 -0.000308582 0)
(0.00423334 -0.000347482 0)
(0.00419158 -0.000387701 0)
(0.00415551 -0.00042928 0)
(0.00412608 -0.000471733 0)
(0.00410426 -0.000514534 0)
(0.00469408 -0.000200891 0)
(0.00464649 -0.000232431 0)
(0.0046013 -0.000264747 0)
(0.00455834 -0.000298715 0)
(0.00451832 -0.000334976 0)
(0.00448234 -0.000372483 0)
(0.004451 -0.000411 0)
(0.00442496 -0.000450133 0)
(0.00440488 -0.000489346 0)
(0.0049465 -0.000187542 0)
(0.0049026 -0.000216436 0)
(0.0048609 -0.000246963 0)
(0.00482172 -0.000278998 0)
(0.00478536 -0.000312402 0)
(0.00475226 -0.000347074 0)
(0.00472281 -0.000382799 0)
(0.00469731 -0.000419196 0)
(0.00467594 -0.000455778 0)
(0.00519159 -0.000144101 0)
(0.00514894 -0.000172256 0)
(0.00510835 -0.000202121 0)
(0.00507039 -0.000233504 0)
(0.00503548 -0.00026622 0)
(0.00500389 -0.000300063 0)
(0.00497567 -0.000334775 0)
(0.00495067 -0.000370024 0)
(0.0049285 -0.000405284 0)
(0.000441281 -0.00314421 0)
(0.000393419 -0.00316392 0)
(0.000352987 -0.00318356 0)
(0.000316781 -0.00320354 0)
(0.000281698 -0.00322394 0)
(0.000245182 -0.00324475 0)
(0.000205102 -0.00326591 0)
(0.000159737 -0.00328719 0)
(0.000108112 -0.0033078 0)
(0.000963894 -0.00261446 0)
(0.000874035 -0.00266799 0)
(0.000795347 -0.002719 0)
(0.000720744 -0.00276523 0)
(0.000647025 -0.0028077 0)
(0.000571954 -0.00284801 0)
(0.000492172 -0.00288699 0)
(0.000404284 -0.00292528 0)
(0.000305381 -0.00296361 0)
(0.00154249 -0.00200387 0)
(0.00142133 -0.00208579 0)
(0.00130565 -0.00215792 0)
(0.00119234 -0.00222023 0)
(0.00108251 -0.00227689 0)
(0.000973874 -0.00233016 0)
(0.000862094 -0.00238115 0)
(0.000742888 -0.00243128 0)
(0.000612454 -0.00248228 0)
(0.00215199 -0.00144064 0)
(0.00199311 -0.00152605 0)
(0.00184171 -0.00160518 0)
(0.00169692 -0.00167864 0)
(0.00155764 -0.00174765 0)
(0.00142178 -0.00181307 0)
(0.00128608 -0.0018756 0)
(0.00114708 -0.00193675 0)
(0.00100099 -0.00199826 0)
)
;

boundaryField
{
    back
    {
        type            empty;
    }
    front
    {
        type            empty;
    }
    left
    {
        type            symmetry;
    }
    hole
    {
        type            calculated;
    }
    down
    {
        type            symmetry;
    }
    right
    {
        type            calculated;
    }
    up
    {
        type            calculated;
    }
}


// ************************************************************************* //
