/*--------------------------------*- C++ -*----------------------------------*\
| =========                 |                                                 |
| \\      /  F ield         | OpenFOAM: The Open Source CFD Toolbox           |
|  \\    /   O peration     | Version:  v2012                                 |
|   \\  /    A nd           | Website:  www.openfoam.com                      |
|    \\/     M anipulation  |                                                 |
\*---------------------------------------------------------------------------*/
FoamFile
{
    version     2.0;
    format      ascii;
    class       pointScalarField;
    location    "13";
    object      pEpsilonEq;
}
// * * * * * * * * * * * * * * * * * * * * * * * * * * * * * * * * * * * * * //

dimensions      [0 0 0 0 0 0 0];


internalField   nonuniform List<scalar> 
530
(
0.00137092
0.00071038
0.00102938
0.00103823
0.00709231
0.00137092
0.00071038
0.00102938
0.00103823
0.00709231
0.000753452
0.000432456
0.000303563
0.000319704
0.000383859
0.000431423
0.000492649
0.000551243
0.000618893
0.000675852
0.000724483
0.000755138
0.000764099
0.000745967
0.00074093
0.000749416
0.000791335
0.000824394
0.000885073
0.000939509
0.000973849
0.00101303
0.00102309
0.00103378
0.00104759
0.0010924
0.00114802
0.00123218
0.00130668
0.00142882
0.00152336
0.00166342
0.00175777
0.00191241
0.00207146
0.00199377
0.00205644
0.00199422
0.00184202
0.00160845
0.00123473
0.000960872
0.00146041
0.00197084
0.00312814
0.00514995
0.00699136
0.00349752
0.00164547
0.000831197
0.000712213
0.00105911
0.00132047
0.000753452
0.000432456
0.000303563
0.000319704
0.000383859
0.000431423
0.000492649
0.000551243
0.000618893
0.000675852
0.000724483
0.000755138
0.000764099
0.000745967
0.00074093
0.000749416
0.000791335
0.000824394
0.000885073
0.000939509
0.000973849
0.00101303
0.00102309
0.00103378
0.00104759
0.0010924
0.00114802
0.00123218
0.00130668
0.00142882
0.00152336
0.00166342
0.00175777
0.00191241
0.00207146
0.00199377
0.00205644
0.00199422
0.00184202
0.00160845
0.00123473
0.000960872
0.00146041
0.00197084
0.00312814
0.00514995
0.00699136
0.00349752
0.00164547
0.000831197
0.000712213
0.00105911
0.00132047
0.00132622
0.00100302
0.00182365
0.00129258
0.00087394
0.00104041
0.000842221
0.00220782
0.00097255
0.0016407
0.000777796
0.00121979
0.000714852
0.0013923
0.000926774
0.00153587
0.0010796
0.00115522
0.00198157
0.00180353
0.00075618
0.00115812
0.000780729
0.0010405
0.0015541
0.00186562
0.00139388
0.000642998
0.000987966
0.000876801
0.00181359
0.00138417
0.000839558
0.000977571
0.00110659
0.00300787
0.001033
0.000564606
0.000579934
0.000677857
0.00126598
0.00101269
0.00117773
0.000855642
0.0017599
0.00193694
0.00150715
0.000773194
0.0010848
0.00139718
0.000684117
0.00123708
0.000958885
0.00170865
0.00146553
0.00204058
0.00185965
0.0021883
0.000902722
0.00111729
0.000914587
0.000463835
0.000840382
0.00171499
0.000869584
0.00196694
0.00154613
0.0022867
0.00132902
0.00061288
0.00117391
0.00141101
0.00103976
0.00111639
0.000984758
0.00099829
0.000790403
0.00191119
0.00167469
0.00118819
0.000956531
0.000758127
0.0010273
0.00108146
0.000927096
0.00051344
0.00101073
0.00139324
0.00128873
0.000530244
0.000680546
0.000801005
0.000759088
0.000829412
0.00126259
0.00128191
0.00103874
0.00102121
0.00081646
0.00193639
0.00168087
0.00137898
0.00110027
0.000702276
0.00142662
0.00119229
0.00195873
0.00117585
0.00115142
0.000774302
0.00106115
0.000958088
0.00104304
0.00210995
0.00209431
0.00168026
0.00128444
0.00148509
0.0018653
0.000886689
0.00087939
0.00135825
0.000894609
0.00406043
0.00220617
0.00177135
0.00129793
0.00079579
0.0010654
0.00553422
0.000447422
0.000861896
0.000406869
0.000902084
0.000879164
0.00164095
0.00138313
0.000549434
0.000731478
0.00233732
0.00119588
0.000816823
0.000960995
0.00112774
0.00108125
0.000739647
0.00380615
0.000961378
0.00162613
0.000811375
0.000934187
0.00206147
0.000694489
0.000613893
0.00148644
0.000921328
0.00160769
0.000780071
0.00193198
0.001173
0.00192327
0.000572406
0.0012139
0.000551511
0.00180391
0.00174559
0.000997184
0.00101773
0.00075998
0.00194206
0.000953161
0.000798723
0.00149757
0.00142887
0.00164898
0.00116867
0.00162842
0.000853344
0.00110876
0.000849437
0.000927765
0.00112542
0.00158147
0.00157411
0.00179466
0.000950307
0.00123055
0.000780224
0.00133139
0.00194688
0.000744014
0.000654218
0.000377399
0.00179694
0.00156289
0.0012627
0.00113793
0.000941441
0.00125751
0.00154574
0.000762264
0.00103776
0.00157944
0.000857124
0.000735566
0.00102865
0.00146625
0.00132622
0.00100302
0.00182365
0.00129258
0.00087394
0.00104041
0.000842221
0.00220782
0.00097255
0.0016407
0.000777796
0.00121979
0.000714852
0.0013923
0.000926774
0.00153587
0.0010796
0.00115522
0.00198157
0.00180353
0.00075618
0.00115812
0.000780729
0.0010405
0.0015541
0.00186562
0.00139388
0.000642998
0.000987966
0.000876801
0.00181359
0.00138417
0.000839558
0.000977571
0.00110659
0.00300787
0.001033
0.000564606
0.000579934
0.000677857
0.00126598
0.00101269
0.00117773
0.000855642
0.0017599
0.00193694
0.00150715
0.000773194
0.0010848
0.00139718
0.000684117
0.00123708
0.000958885
0.00170865
0.00146553
0.00204058
0.00185965
0.0021883
0.000902722
0.00111729
0.000914587
0.000463835
0.000840382
0.00171499
0.000869584
0.00196694
0.00154613
0.0022867
0.00132902
0.00061288
0.00117391
0.00141101
0.00103976
0.00111639
0.000984758
0.00099829
0.000790403
0.00191119
0.00167469
0.00118819
0.000956531
0.000758127
0.0010273
0.00108146
0.000927096
0.00051344
0.00101073
0.00139324
0.00128873
0.000530244
0.000680546
0.000801005
0.000759088
0.000829412
0.00126259
0.00128191
0.00103874
0.00102121
0.00081646
0.00193639
0.00168087
0.00137898
0.00110027
0.000702276
0.00142662
0.00119229
0.00195873
0.00117585
0.00115142
0.000774302
0.00106115
0.000958088
0.00104304
0.00210995
0.00209431
0.00168026
0.00128444
0.00148509
0.0018653
0.000886689
0.00087939
0.00135825
0.000894609
0.00406043
0.00220617
0.00177135
0.00129793
0.00079579
0.0010654
0.00553422
0.000447422
0.000861896
0.000406869
0.000902084
0.000879164
0.00164095
0.00138313
0.000549434
0.000731478
0.00233732
0.00119588
0.000816823
0.000960995
0.00112774
0.00108125
0.000739647
0.00380615
0.000961378
0.00162613
0.000811375
0.000934187
0.00206147
0.000694489
0.000613893
0.00148644
0.000921328
0.00160769
0.000780071
0.00193198
0.001173
0.00192327
0.000572406
0.0012139
0.000551511
0.00180391
0.00174559
0.000997184
0.00101773
0.00075998
0.00194206
0.000953161
0.000798723
0.00149757
0.00142887
0.00164898
0.00116867
0.00162842
0.000853344
0.00110876
0.000849437
0.000927765
0.00112542
0.00158147
0.00157411
0.00179466
0.000950307
0.00123055
0.000780224
0.00133139
0.00194688
0.000744014
0.000654218
0.000377399
0.00179694
0.00156289
0.0012627
0.00113793
0.000941441
0.00125751
0.00154574
0.000762264
0.00103776
0.00157944
0.000857124
0.000735566
0.00102865
0.00146625
)
;

boundaryField
{
    back
    {
        type            empty;
    }
    front
    {
        type            empty;
    }
    down
    {
        type            calculated;
    }
    right
    {
        type            calculated;
    }
    up
    {
        type            calculated;
    }
    left
    {
        type            calculated;
    }
    hole
    {
        type            calculated;
    }
}


// ************************************************************************* //
