/*--------------------------------*- C++ -*----------------------------------*\
| =========                 |                                                 |
| \\      /  F ield         | OpenFOAM: The Open Source CFD Toolbox           |
|  \\    /   O peration     | Version:  v2012                                 |
|   \\  /    A nd           | Website:  www.openfoam.com                      |
|    \\/     M anipulation  |                                                 |
\*---------------------------------------------------------------------------*/
FoamFile
{
    version     2.0;
    format      ascii;
    class       volScalarField;
    location    "1";
    object      sigmaHyd;
}
// * * * * * * * * * * * * * * * * * * * * * * * * * * * * * * * * * * * * * //

dimensions      [1 -1 -2 0 0 0 0];


internalField   nonuniform List<scalar> 
181440
(
-1.51295e+06
-1.9284e+06
-1.60509e+06
-1.13402e+06
-1.18654e+06
-1.6753e+06
-917776
-1.21197e+06
-1.67499e+06
-655493
-751490
-1.35822e+06
-333862
-566791
-1.04736e+06
-104872
-362397
-841019
125536
-141311
-614563
366733
107734
-362831
591095
297988
-180543
723664
419679
-80673.2
1.05889e+06
615096
146603
1.39297e+06
2.79061e+06
927745
-1.28699e+06
-1.32977e+06
-1.4429e+06
-846577
-881394
-1.01727e+06
-814528
-761858
-574020
-329281
-232596
-514312
-48340.2
-92350.7
-273974
216719
166128
1861.52
454623
400025
238280
703176
643586
494430
931474
794030
656029
895429
978173
1.14246e+06
1.42652e+06
1.38119e+06
1.13156e+06
1.68973e+06
3.2324e+06
2.20623e+06
-2.01757e+06
-1.40389e+06
-1.75997e+06
-888374
-669254
-955054
-542292
-479729
-427237
-252270
-61795.8
-311252
-34214.9
115716
-128367
214125
355767
133539
451507
590681
387903
696346
828744
648508
949713
1.09425e+06
925192
1.18145e+06
1.35179e+06
1.29633e+06
1.51182e+06
1.77772e+06
1.57362e+06
1.47366e+06
523254
1.11011e+06
-1.6542e+06
-1.57132e+06
-1.75709e+06
-1.04627e+06
-753223
-993342
-663072
-578940
-658310
-370004
-171443
-324615
-146704
28804.5
40949.1
100447
269763
283906
360153
521189
530018
622909
773557
776533
893335
1.05838e+06
1.05208e+06
1.14177e+06
1.40093e+06
1.26843e+06
1.44052e+06
1.88049e+06
1.65739e+06
1.45912e+06
950814
1.4706e+06
-2.50986e+06
-1.61138e+06
-1.85199e+06
-1.00924e+06
-843942
-940914
-665874
-519153
-607057
-394265
-233884
-316276
-143732
38334.9
-99797.1
112632
268006
153035
375195
515985
406929
633341
767750
663279
894408
1.03339e+06
930646
1.16676e+06
1.33188e+06
1.20716e+06
1.4175e+06
1.716e+06
1.58759e+06
1.7435e+06
2.01088e+06
1.69565e+06
-1.5136e+06
-1.5091e+06
-1.82962e+06
-1.06104e+06
-925890
-1.00216e+06
-734941
-602010
-721167
-419024
-319287
-442693
-166530
22798.3
-82298.3
76527.3
260372
168046
329501
517048
440486
585558
776701
706830
843929
1.05084e+06
979110
1.11546e+06
1.36388e+06
1.26884e+06
1.45393e+06
1.71967e+06
1.45613e+06
1.53105e+06
1.20923e+06
1.65199e+06
-2.23388e+06
-1.54924e+06
-1.74593e+06
-1.02689e+06
-836715
-926069
-712270
-535659
-610483
-416875
-252941
-315215
-149547
8845.22
-44437.4
104919
234832
200997
348710
483826
446659
596101
743046
697933
845450
1.00856e+06
955038
1.10336e+06
1.29006e+06
1.22681e+06
1.38609e+06
1.70591e+06
1.54718e+06
1.38959e+06
418734
831211
-1.33156e+06
-1.42038e+06
-1.7012e+06
-1.03866e+06
-891214
-1.0263e+06
-742710
-589122
-738833
-443354
-306298
-451661
-166339
-40317.9
-185510
102491
227778
89233.6
367303
475507
345620
621354
736985
602297
877342
1.00417e+06
864006
1.14135e+06
1.28313e+06
1.13623e+06
1.41337e+06
1.64792e+06
1.40581e+06
1.73928e+06
888492
1.16404e+06
-2.14453e+06
-1.48418e+06
-1.63655e+06
-983667
-828471
-875587
-698905
-559850
-592733
-422712
-295410
-322854
-162140
-39846.4
-66387.1
86777.9
248597
189084
327686
482642
434679
569735
729938
679466
814482
982393
926237
1.06702e+06
1.24765e+06
1.18211e+06
1.33381e+06
1.5676e+06
1.46092e+06
1.72052e+06
2.14699e+06
1.60027e+06
-1.18319e+06
-1.31466e+06
-1.58619e+06
-965233
-838305
-955427
-686472
-568772
-684738
-409462
-301754
-418316
-147192
-45416.3
-162291
96769.9
200130
70397.9
334940
464483
315929
579849
716211
564230
826779
974406
818365
1.081e+06
1.24861e+06
1.08273e+06
1.35466e+06
1.56761e+06
1.36876e+06
1.36961e+06
1.06128e+06
1.60729e+06
-1.99577e+06
-1.40014e+06
-1.57401e+06
-911925
-750821
-821675
-653523
-498615
-560478
-396518
-248689
-301396
-151178
-10775.4
-56136.6
83428.4
213258
176315
313585
439474
408471
544397
677520
640255
776342
923693
875428
1.0215e+06
1.18265e+06
1.13e+06
1.29115e+06
1.6165e+06
1.43772e+06
1.28757e+06
219369
686436
-1.02047e+06
-1.22217e+06
-1.44039e+06
-901358
-765886
-885448
-651950
-506172
-642638
-393594
-259791
-397123
-146887
-23652.1
-159722
98921
213657
86593.1
338967
433495
318007
570273
667722
551230
802578
905547
788790
1.04142e+06
1.15784e+06
1.03913e+06
1.29545e+06
1.56823e+06
1.31415e+06
1.48237e+06
520510
1.04162e+06
-1.83144e+06
-1.30901e+06
-1.41829e+06
-835100
-689199
-725862
-594463
-461412
-484348
-355762
-233499
-253540
-128211
-14968.4
-31101.1
92881.5
229494
186480
300757
432667
390865
515457
650904
605590
732518
875464
823058
960659
1.10176e+06
1.0506e+06
1.2112e+06
1.53903e+06
1.37985e+06
1.29246e+06
378289
355652
-844881
-1.08126e+06
-1.28556e+06
-790469
-672316
-784734
-558200
-448819
-558919
-321769
-225228
-333138
-97670.6
-9986.48
-115495
115564
201108
88190.2
322472
417066
291434
533387
630272
503894
746506
846934
722000
969586
1.07519e+06
958756
1.20457e+06
1.40201e+06
1.18723e+06
1.52374e+06
830045
1.03006e+06
-1.63787e+06
-1.17576e+06
-1.30038e+06
-718915
-585994
-636138
-510570
-380037
-428924
-297768
-175336
-217232
-95129.5
23337.4
-14372.7
100572
216913
181764
297043
417292
382657
488744
612062
572757
683209
812430
766164
891540
1.02336e+06
967590
1.11526e+06
1.2955e+06
1.20312e+06
1.50448e+06
1.97301e+06
1.34282e+06
-640916
-940745
-1.09574e+06
-675539
-565212
-669601
-475560
-360717
-479481
-265567
-165527
-282363
-66554.6
22653.8
-92952
125433
207564
93527.9
313074
391721
278746
499255
578617
465797
687505
770667
658813
880720
979143
863185
1.08777e+06
1.2419e+06
1.0968e+06
1.04841e+06
724474
1.34099e+06
-1.41437e+06
-1.04436e+06
-1.13582e+06
-592643
-461859
-501802
-402557
-272302
-311223
-214580
-96314.2
-126896
-36673.2
66458.5
43134.1
131035
227857
214232
289137
391531
366374
454326
558003
528564
621998
731947
692499
798144
906324
878387
990627
1.24566e+06
1.09806e+06
915083
114700
244623
-415582
-765350
-880704
-538358
-434915
-535861
-369968
-262284
-374243
-191110
-96863.9
-206497
-22825.9
60680
-45893.3
143623
218563
114304
303544
364070
262854
460475
520017
420629
618986
678338
583029
786919
845937
761757
957395
1.1103e+06
934633
1.21412e+06
503980
721247
-1.17495e+06
-870085
-905373
-443572
-333832
-345785
-287137
-192412
-188881
-133487
-51109.2
-44915
9797.17
85575.1
93799.3
149240
234793
221802
280721
362219
349090
414088
496291
477962
550173
631534
609926
694567
779259
754087
844526
961150
891720
1.16343e+06
1.65151e+06
1.32486e+06
-172697
-558008
-648695
-360572
-274967
-373386
-218307
-148117
-240764
-74612.4
-20252.4
-107843
57045.1
96993.8
17313.1
179092
212858
132568
295553
332645
245251
415988
451665
366535
538658
576543
492996
665381
710229
625202
799559
832574
755702
858271
737713
1.0359e+06
-924464
-644552
-722727
-245060
-152445
-172357
-138676
-50966.1
-74045.4
-25075.9
51328
37567.5
80730.6
147532
140145
183375
238803
238787
283811
337019
340546
380487
431324
432685
480069
531850
527875
584656
642659
627634
699826
751798
747549
936781
1.5611e+06
755741
13880.5
-316119
-362244
-144765
-88489.6
-160038
-75555.9
-5417.8
-87200.1
25660.6
80477.1
-75.0407
115929
158274
80675.1
199543
231620
157796
278844
305519
233667
359016
383587
312528
442436
469006
397635
532220
564942
492609
636854
702401
613579
348129
47778.1
662465
-773467
-442999
-649712
2178.87
-5515.6
53974.1
24838.5
73530.6
110833
98283
131355
168918
156622
181479
215878
207595
226965
256502
255049
273578
295406
304095
324659
336296
357725
384900
382522
419867
459119
437593
499903
704078
537807
122868
-203089
-473861
-803730
-209227
-567771
119327
77951
15680.2
122252
136195
77390.1
172141
177561
123226
203649
211447
164390
234157
243566
197272
264397
272367
231026
287378
304179
263305
313998
343143
303009
347720
391207
355894
397044
582985
481370
55488.2
295173
351285
-425807
-1.31599e+06
-746662
-1.09556e+06
-1.11583e+06
-1.1977e+06
-1.30367e+06
-1.28119e+06
-1.73925e+06
-746319
-447414
-695374
-222239
-261572
-376834
56815.7
5975.49
-103626
290891
250996
153158
557478
518958
446779
776095
608114
582046
453054
586115
75995.5
991239
1.06747e+06
1.00915e+06
1.26366e+06
2.68596e+06
1.10944e+06
-1.01131e+06
-1.03334e+06
-1.05458e+06
-1.02515e+06
-692048
-729900
-655675
-634009
-424768
-430404
-69764.5
-56027.4
-7787.33
81446.9
300068
197300
324144
550270
416331
556270
778467
649830
797728
1.01323e+06
902191
910398
1.12675e+06
902173
1.03092e+06
1.22258e+06
1.25435e+06
1.45482e+06
1.44343e+06
1.97832e+06
3.50116e+06
3.03771e+06
-1.95709e+06
-1.11638e+06
-1.4039e+06
-874355
-674079
-807773
-491546
-381038
-418807
-257815
-192913
-174374
-97742.7
-33830.2
-20131.3
102870
217446
205376
322110
460852
437746
549972
712378
678315
800274
1.02324e+06
960142
1.0999e+06
1.32903e+06
1.29556e+06
1.40284e+06
1.6098e+06
1.57239e+06
1.6069e+06
955381
1.29088e+06
-1.42408e+06
-1.28365e+06
-1.57576e+06
-1.04641e+06
-802874
-913195
-671571
-455350
-598129
-364603
-195403
-334592
-60481.1
37840.2
-74242.5
225554
289936
197094
466535
544604
434264
713868
801795
678282
971022
1.0714e+06
933237
1.23743e+06
1.35528e+06
1.23179e+06
1.47868e+06
1.66573e+06
1.50902e+06
1.7352e+06
1.46347e+06
1.49591e+06
-2.24537e+06
-1.3542e+06
-1.45669e+06
-1.04077e+06
-802992
-853626
-694525
-463929
-534412
-393438
-205477
-228097
-122073
8830.4
-15750.6
146655
250146
226247
384796
501812
479919
629610
756083
732178
882290
1.02828e+06
989472
1.16064e+06
1.30614e+06
1.26442e+06
1.4312e+06
1.61612e+06
1.60444e+06
1.81979e+06
2.29728e+06
1.76921e+06
-1.23312e+06
-1.2604e+06
-1.68619e+06
-1.07179e+06
-850674
-1.0074e+06
-738066
-545909
-704133
-440002
-246550
-432990
-152290
5439.45
-167989
115357
260975
126993
363237
526604
368138
620384
792668
626874
881719
1.06895e+06
899334
1.15281e+06
1.35899e+06
1.1942e+06
1.42673e+06
1.63768e+06
1.45939e+06
1.88425e+06
1.57794e+06
2.22194e+06
-2.17174e+06
-1.33168e+06
-1.38921e+06
-1.02556e+06
-818937
-870242
-742938
-523339
-572412
-437345
-235492
-265295
-156609
13870.2
8696.64
99394.1
261065
268830
345408
517976
526057
596042
776253
779279
849557
1.0426e+06
1.03429e+06
1.11067e+06
1.31633e+06
1.29508e+06
1.37002e+06
1.5637e+06
1.54429e+06
1.77487e+06
1.97729e+06
1.76565e+06
-1.08741e+06
-1.17278e+06
-1.56022e+06
-1.05438e+06
-835861
-971598
-753417
-535857
-722255
-452026
-261642
-439070
-180861
9369.27
-165653
85949.8
269198
90550.7
340896
527412
336754
595071
788601
595651
850376
1.05635e+06
862562
1.11074e+06
1.33227e+06
1.14012e+06
1.37052e+06
1.58176e+06
1.406e+06
1.48507e+06
1.41692e+06
1.7876e+06
-2.0241e+06
-1.27015e+06
-1.28349e+06
-1.01387e+06
-790359
-851563
-726252
-505939
-552409
-438406
-242980
-273232
-177700
9963.98
-10757.6
73679.6
258282
241146
318749
504033
489988
562365
753612
734045
807659
1.01042e+06
980082
1.05835e+06
1.27733e+06
1.23224e+06
1.31638e+06
1.53961e+06
1.49006e+06
1.65114e+06
2.23882e+06
1.56839e+06
-987568
-1.07418e+06
-1.43938e+06
-1.00304e+06
-779207
-941794
-715565
-509233
-684051
-435123
-248464
-419532
-173077
2429.92
-169676
77987.4
247956
74298.4
323642
496584
321206
568695
747544
572563
815093
1.00438e+06
829223
1.06557e+06
1.26927e+06
1.09365e+06
1.3212e+06
1.53695e+06
1.36613e+06
1.49612e+06
1.22324e+06
1.72388e+06
-1.8417e+06
-1.18198e+06
-1.17831e+06
-950947
-720250
-787041
-673495
-470930
-517823
-410732
-223533
-254823
-163126
14199.2
-6110.76
75148.2
247584
233537
308078
482786
465339
540003
720316
697138
773114
964517
930812
1.01113e+06
1.21965e+06
1.16983e+06
1.25959e+06
1.46487e+06
1.40104e+06
1.59244e+06
1.80735e+06
1.49762e+06
-832819
-969743
-1.30367e+06
-931785
-709699
-868325
-656597
-464544
-619923
-396835
-220557
-377470
-151793
14773.2
-143662
85363.2
246009
87616.9
316207
475340
316565
544435
709389
550524
774364
950213
791118
1.00893e+06
1.1978e+06
1.03854e+06
1.24679e+06
1.41663e+06
1.28893e+06
1.35884e+06
1.15705e+06
1.61069e+06
-1.67316e+06
-1.07414e+06
-1.04234e+06
-863023
-647936
-705192
-605884
-416816
-459490
-362505
-188187
-217592
-134210
31139.1
9917.46
86037.6
246329
228711
300770
461015
443971
513862
679750
657226
728855
905784
872933
949987
1.13935e+06
1.09467e+06
1.17811e+06
1.33093e+06
1.3104e+06
1.46538e+06
1.7658e+06
1.52055e+06
-663723
-835002
-1.14612e+06
-829443
-621474
-771552
-576453
-400358
-543908
-339906
-179221
-322975
-117455
32715.1
-110474
96641.2
240990
98119.1
306275
449899
306839
514020
661695
518434
723183
880433
736773
937012
1.10476e+06
962092
1.15046e+06
1.31052e+06
1.18303e+06
1.2627e+06
1.21059e+06
1.49021e+06
-1.48242e+06
-939540
-882520
-750580
-549716
-599539
-516474
-343840
-379149
-297413
-139935
-163424
-93405.5
54135.7
38692.2
102364
244767
232845
293889
435997
423635
484037
630399
613287
675815
831666
804991
873118
1.04164e+06
1.00137e+06
1.07767e+06
1.24446e+06
1.19973e+06
1.40679e+06
2.00553e+06
1.29899e+06
-469038
-676149
-962480
-704353
-513474
-656825
-477233
-320317
-453559
-267806
-126902
-258330
-72460.1
58040.5
-71933.9
115108
239445
111042
298192
421781
294142
480430
607029
479834
663994
798122
671099
851982
996325
870527
1.04334e+06
1.19084e+06
1.07632e+06
1.16639e+06
924959
1.42578e+06
-1.2608e+06
-776696
-693368
-611806
-428947
-469910
-404602
-253271
-277824
-214638
-79766.7
-92435.9
-40438
84615.2
79302.7
125978
245550
244265
288039
407882
403981
449995
573007
564383
613206
744065
726666
781193
921435
893536
952399
1.07821e+06
1.04755e+06
1.24035e+06
1.49294e+06
1.25978e+06
-246758
-490334
-748484
-553038
-383837
-517305
-355815
-221826
-342540
-178171
-60845.7
-178401
-15118.9
92024.2
-23538.9
140708
241794
127961
291982
390558
278276
441980
542929
432068
593407
700620
590823
748824
863068
755572
902386
1.00572e+06
917350
965692
892291
1.19672e+06
-1.00907e+06
-586012
-471074
-446058
-285827
-312268
-269879
-143936
-154844
-114923
-5777.81
-5716.69
23935.2
123411
129813
155445
249640
258315
283128
375722
384341
409958
505349
509186
538576
640618
635868
672258
781041
766232
808567
905004
900103
1.08253e+06
1.65163e+06
1.09997e+06
12732.8
-270484
-500700
-371455
-225835
-349944
-210656
-104334
-211829
-72120.1
17510
-85895.6
52755.9
131585
31013.1
170485
242683
144393
284439
354380
257962
397400
469007
374460
511525
588427
495720
628109
711319
621974
746716
837071
748078
817276
714544
1.03714e+06
-722491
-324631
-276465
-229832
-93907.3
-109876
-104038
-2202.34
-8703.17
8609.36
91870.2
99994.4
108539
178580
196189
201889
261903
285108
291075
345686
370605
379350
432623
456160
468668
525642
544106
560941
626163
635449
661491
751254
739046
950055
1.42111e+06
684034
174522
-49312.1
-208756
-124305
-27026.9
-118791
-52288.9
28975.9
-44606.1
42227.6
107384
33729.2
123089
178087
105736
197448
244815
174575
267594
311530
243292
337781
382907
315322
410880
461529
393177
489151
550430
480793
581907
673345
598237
268577
84231.2
649595
-649098
-405896
-385357
56610.8
12082.8
119933
45445.8
88744.1
136060
115546
149384
193467
167509
204541
238868
217048
255369
281360
267587
299303
324635
310643
352900
367538
357295
415475
415187
410706
491551
471529
478905
667890
554906
-8006.56
-13814.1
-317494
-763709
-148963
-528634
181878
136974
80877.5
156329
182588
120331
199978
218304
159828
226384
247512
194357
238219
253256
233895
250322
291187
260866
265358
319108
281995
285118
354246
309382
312487
399784
349333
355182
608102
469272
-76129
-77330
245469
-797360
-1.45577e+06
-1.42455e+06
-1.21839e+06
-901292
-1.5507e+06
-1.15223e+06
-1.17899e+06
-1.8826e+06
-607371
60118.8
-1.0477e+06
-39307.9
357498
-626102
163218
604785
-424455
402999
861746
-180323
656646
1.11781e+06
71387.3
899620
955351
285802
543263
564791
-218494
1.13386e+06
1.19701e+06
539093
1.59228e+06
2.65488e+06
1.01908e+06
-1.22179e+06
-1.0701e+06
-919668
-1.18196e+06
-1.24028e+06
-899880
-897174
-971912
-614685
-548528
-755196
-325422
-306658
-621421
-187119
-105740
-302861
90082.9
155510
-79035
316017
389204
141614
550102
599798
350815
757062
780106
684021
1.05929e+06
1.13892e+06
819885
1.38139e+06
1.75748e+06
3.50621e+06
2.64062e+06
-2.06903e+06
-1.18405e+06
-1.45702e+06
-859900
-659160
-801716
-522395
-340767
-429013
-216394
-70611.8
-135397
34681.2
131883
133411
256012
354249
368775
492517
589476
615631
726965
831944
864423
966659
1.07621e+06
1.12656e+06
1.1995e+06
1.39134e+06
1.38959e+06
1.50135e+06
1.68919e+06
1.67624e+06
1.85756e+06
2.59127e+06
1.93299e+06
-1.38465e+06
-1.29623e+06
-1.57675e+06
-1.06403e+06
-810866
-894867
-665798
-476702
-573628
-363269
-184725
-291905
-103855
64811.3
-54150
188212
312522
220289
412253
542164
461844
658402
792531
717955
908475
1.05044e+06
982831
1.17743e+06
1.31814e+06
1.26391e+06
1.48559e+06
1.60354e+06
1.5711e+06
1.7784e+06
1.34401e+06
1.7256e+06
-2.32738e+06
-1.4014e+06
-1.48644e+06
-1.05168e+06
-815984
-878112
-686090
-491481
-545153
-400352
-206552
-239641
-156164
50573
2954.9
163515
264381
169492
426537
489203
419879
683520
738204
676682
943003
999811
944886
1.21272e+06
1.27911e+06
1.2345e+06
1.49714e+06
1.51296e+06
1.51645e+06
2.11927e+06
2.79373e+06
2.3143e+06
-1.36141e+06
-1.28404e+06
-1.61899e+06
-1.11708e+06
-875876
-999330
-785889
-536845
-695298
-449706
-255911
-430104
-160835
-23395.3
-174600
71160.7
238101
226025
316777
472783
477018
574614
728388
739172
831749
998160
1.00866e+06
1.10321e+06
1.28522e+06
1.28873e+06
1.38943e+06
1.52603e+06
1.57084e+06
2.05804e+06
3.03629e+06
2.52454e+06
-1.96559e+06
-1.36994e+06
-1.40978e+06
-1.05261e+06
-860672
-995666
-748586
-529004
-587754
-447310
-247077
-280041
-169005
31001
-1031.97
93336.6
288111
262713
350800
540302
520624
603179
797032
773843
854164
1.06171e+06
1.02707e+06
1.1134e+06
1.33302e+06
1.28331e+06
1.378e+06
1.58931e+06
1.53756e+06
1.96635e+06
2.53874e+06
1.84438e+06
-1.1426e+06
-1.19923e+06
-1.51069e+06
-1.10623e+06
-868551
-926923
-778841
-543287
-734556
-464486
-269901
-440966
-184026
-2782.03
-173275
81906.5
257063
83973.8
338214
516847
338970
593566
777126
598537
847560
1.04338e+06
863121
1.11064e+06
1.31593e+06
1.14023e+06
1.37666e+06
1.59812e+06
1.43525e+06
1.54191e+06
1.37954e+06
1.94245e+06
-2.00553e+06
-1.30809e+06
-1.28958e+06
-1.04224e+06
-792080
-871228
-735000
-521176
-572129
-451715
-254431
-288009
-184050
1563.27
-20669.9
70533.8
251278
234899
317852
500729
483129
563995
751868
729385
810087
1.00815e+06
976050
1.06248e+06
1.27002e+06
1.22534e+06
1.31739e+06
1.54148e+06
1.48015e+06
1.66667e+06
2.24856e+06
1.6838e+06
-959429
-1.08588e+06
-1.43341e+06
-1.02558e+06
-792254
-958987
-734583
-523524
-690170
-449716
-259823
-424640
-183432
-5788.85
-171101
71147.1
242911
76585.1
318470
489937
323003
562609
743576
577883
811770
999430
834644
1.06316e+06
1.25802e+06
1.09852e+06
1.31193e+06
1.51974e+06
1.36241e+06
1.46544e+06
1.33609e+06
1.69912e+06
-1.84614e+06
-1.20601e+06
-1.173e+06
-967333
-739187
-809617
-692157
-485465
-534470
-423669
-235549
-268286
-171765
5750.15
-16704.9
69777.2
241916
224824
304464
476207
459271
535829
715291
691118
771314
958620
924349
1.00982e+06
1.20544e+06
1.15941e+06
1.24704e+06
1.45264e+06
1.39287e+06
1.58307e+06
2.19219e+06
1.57285e+06
-807900
-968871
-1.29114e+06
-940723
-718700
-872741
-668357
-471474
-624830
-405904
-228085
-380373
-158634
7888.86
-144588
79031.5
239501
87253.9
310905
469581
317085
539234
703703
551016
770801
942015
792460
1.00371e+06
1.18373e+06
1.03874e+06
1.23328e+06
1.42294e+06
1.27903e+06
1.37356e+06
1.24471e+06
1.61152e+06
-1.67977e+06
-1.09292e+06
-1.03731e+06
-872847
-657223
-721403
-616948
-425599
-469695
-371442
-197925
-227791
-140908
22289.6
1344.49
80457.8
238119
221393
296533
453065
436247
509399
671216
648515
724830
894354
861992
944027
1.12145e+06
1.07833e+06
1.164e+06
1.34508e+06
1.29329e+06
1.50285e+06
2.0856e+06
1.49276e+06
-638608
-830109
-1.13232e+06
-830883
-626489
-771645
-582654
-404145
-545236
-345537
-185291
-324102
-122139
27026.6
-110906
92544
235693
98700.2
302460
444550
308527
510671
654344
518301
718581
869687
735820
929836
1.09007e+06
959504
1.14146e+06
1.31221e+06
1.18473e+06
1.27571e+06
1.15433e+06
1.52331e+06
-1.4845e+06
-953097
-872480
-753537
-555229
-609452
-522135
-349565
-385621
-302935
-148513
-171908
-98256.6
45704.9
30183.8
97823.3
236222
224251
289195
426649
413677
479009
619129
601745
669470
816711
791157
864163
1.02008e+06
983674
1.06253e+06
1.22522e+06
1.17728e+06
1.39783e+06
1.98759e+06
1.39767e+06
-437751
-664928
-943277
-698453
-514351
-651604
-478834
-320383
-450893
-270247
-130534
-256880
-75008.7
53414
-70928.5
112026
234001
111467
294263
414270
293756
474908
597106
478231
656626
784799
667309
841985
978460
863683
1.02854e+06
1.17633e+06
1.06594e+06
1.14854e+06
1.04591e+06
1.40364e+06
-1.25688e+06
-784323
-677414
-607679
-429867
-471465
-405355
-254221
-278586
-216773
-84703.4
-97118.9
-42807.3
78471.6
73068.1
122827
238078
235832
283684
397103
394128
442985
559043
551237
603823
725747
709935
768639
897832
871861
935620
1.07021e+06
1.03295e+06
1.25314e+06
1.82501e+06
1.23287e+06
-208623
-471306
-722872
-538939
-376829
-505378
-350792
-216095
-335553
-175966
-60613.8
-174063
-14463.3
89197.3
-20994.4
138992
235849
128300
287831
382199
276915
435107
531068
427854
583605
684376
583385
735629
843475
745362
887860
1.00595e+06
910570
976549
857849
1.22508e+06
-996420
-583653
-446328
-432813
-277288
-304283
-263421
-138461
-148287
-112184
-6819.39
-5568.41
24729.8
118908
126835
153626
241496
252335
278160
364028
374019
401408
489383
494810
526358
619518
617137
655860
755105
742483
788281
891166
870960
1.08391e+06
1.63062e+06
1.08011e+06
59992.6
-240976
-466044
-347933
-210681
-330699
-198818
-92387
-198987
-65064.8
21603.1
-77565.9
56370.8
131080
35811.4
170484
238107
145809
280458
345286
255540
388991
455323
367786
498615
569831
484670
610628
688767
607489
725165
812925
733198
788685
680849
1.02739e+06
-699306
-306248
-237991
-204977
-75177.9
-85943
-89712.3
12153.4
6722.51
18029.5
96965.4
107389
113716
178028
197839
202619
256184
281746
286828
334224
361379
369429
415471
440853
453186
502505
522947
539757
598012
608301
635115
723109
708867
932382
1.41512e+06
647693
227938
-9457.41
-167589
-92364.6
-310.598
-91533.2
-33039.1
46941
-26318.1
54267.9
116002
46123.4
129115
179126
111992
198545
240655
176657
263947
301676
239719
327602
366322
305296
394281
438550
377096
465573
520944
459041
549664
638254
569976
237431
17415.5
630450
-612697
-386925
-356747
97771
52828.3
155852
75702.2
103043
152850
139265
157638
204706
185537
208143
245099
223519
246704
275313
248571
297332
298414
280852
340895
328124
318393
392112
363472
363060
452636
407424
418761
669473
480159
-18701.9
-432363
-480216
-739154
-113694
-390650
204496
138580
135647
176033
191462
175976
207222
222650
206191
224552
253276
231861
242170
267036
209163
258220
296517
233918
264593
318047
252881
275716
346103
276772
294042
381751
311523
322759
578214
422202
-82871.5
88218.3
154728
-925255
-1.7804e+06
-1.37475e+06
-1.76087e+06
-1.91505e+06
-2.23118e+06
-1.44707e+06
-1.65943e+06
-2.06434e+06
-1.13501e+06
-1.4465e+06
-1.80321e+06
-900847
-1.31308e+06
-1.6841e+06
-677518
-928410
-1.26039e+06
-364204
-678864
-1.03511e+06
-113476
-437082
-781866
100715
-174799
-562897
336784
175222
-287149
685719
205792
-76628.6
1.31448e+06
2.86629e+06
1.02864e+06
-1.31536e+06
-1.13631e+06
-1.02568e+06
-1.29396e+06
-1.20721e+06
-884407
-901754
-998474
-585000
-635163
-752051
-283748
-382733
-538058
-42109.7
-136103
-291305
182951
93045.6
-68980.8
444152
327191
162411
674600
555933
390572
885251
775534
630029
1.098e+06
1.05978e+06
826169
1.43892e+06
1.85752e+06
3.62557e+06
2.79769e+06
-2.16609e+06
-1.24635e+06
-1.49787e+06
-923076
-625409
-831172
-499556
-315178
-414340
-222665
-16808.6
-119961
53246.1
242008
167196
306440
401472
451026
513884
645005
671298
751562
893708
913100
989884
1.13749e+06
1.14913e+06
1.22025e+06
1.38559e+06
1.38779e+06
1.49242e+06
1.71152e+06
1.70146e+06
1.81075e+06
875919
1.85229e+06
-1.44587e+06
-1.31797e+06
-1.61791e+06
-1.09103e+06
-822876
-916776
-688993
-463816
-573194
-367953
-185514
-307557
-88774.8
74687.8
-65456.1
201254
321098
195969
475926
576491
447897
724927
834946
691672
975632
1.10276e+06
942028
1.23272e+06
1.38852e+06
1.21358e+06
1.4956e+06
1.68668e+06
1.5051e+06
1.69693e+06
938655
1.42726e+06
-2.30661e+06
-1.39691e+06
-1.47105e+06
-1.07264e+06
-851820
-892234
-731324
-476379
-584480
-400039
-201243
-247034
-121829
67708.8
39260
155375
303336
256932
410632
552743
499476
658199
808125
754618
906218
1.07389e+06
1.00893e+06
1.16492e+06
1.35914e+06
1.27517e+06
1.4394e+06
1.61742e+06
1.55257e+06
1.71659e+06
2.40632e+06
2.11943e+06
-1.28668e+06
-1.25723e+06
-1.69357e+06
-1.1012e+06
-902244
-1.04072e+06
-744469
-573335
-691006
-461679
-264097
-427233
-171015
16648.9
-160942
105522
278035
108273
366328
543104
359324
629814
794527
621109
901113
1.07489e+06
927859
1.16528e+06
1.36398e+06
1.21674e+06
1.44772e+06
1.67831e+06
1.52608e+06
1.69745e+06
2.03433e+06
1.87694e+06
-2.17188e+06
-1.32687e+06
-1.40001e+06
-1.0583e+06
-866118
-943505
-743929
-552242
-599298
-459260
-251060
-290222
-174909
22143.8
-6794.85
94118.2
279324
263541
349752
539165
523245
604100
783818
767045
876377
1.04467e+06
1.02895e+06
1.12999e+06
1.32047e+06
1.29218e+06
1.40043e+06
1.61381e+06
1.55821e+06
1.81321e+06
2.77455e+06
1.84083e+06
-1.03642e+06
-1.19455e+06
-1.56378e+06
-1.07789e+06
-869788
-994858
-764694
-572442
-710048
-460102
-286167
-419064
-176433
-14506
-145832
90940.8
248674
115148
350481
510057
374156
612148
766894
636898
881865
1.02818e+06
931835
1.13812e+06
1.30519e+06
1.19714e+06
1.41068e+06
1.58954e+06
1.47989e+06
1.89913e+06
1.70936e+06
2.19591e+06
-2.05211e+06
-1.31054e+06
-1.28076e+06
-1.02361e+06
-828415
-887846
-735004
-547666
-591422
-445537
-276811
-304012
-174539
-16687.8
-32687.6
83056.7
236604
226534
333437
486987
477146
586104
734960
724061
838502
988307
977213
1.08845e+06
1.25264e+06
1.23147e+06
1.34659e+06
1.52193e+06
1.48298e+06
1.84149e+06
2.43015e+06
1.81461e+06
-816999
-1.07687e+06
-1.4267e+06
-990054
-828908
-916634
-714492
-554030
-650705
-429378
-286473
-382441
-163393
-28955
-125332
91655
222531
125187
340749
470787
374260
586529
737848
637004
821032
1.00313e+06
880145
1.07915e+06
1.26455e+06
1.14263e+06
1.33039e+06
1.50712e+06
1.38726e+06
1.75006e+06
1.53738e+06
2.14622e+06
-1.93682e+06
-1.21392e+06
-1.15938e+06
-941781
-775947
-830462
-682476
-518919
-552195
-412278
-266984
-283448
-158964
-23671.1
-28734.2
84082.7
214609
215859
321260
449938
454084
556107
698993
694601
775432
949828
926486
1.02013e+06
1.19696e+06
1.16094e+06
1.2581e+06
1.43601e+06
1.39104e+06
1.71038e+06
2.27374e+06
1.657e+06
-740306
-942543
-1.27401e+06
-914424
-737190
-832942
-657150
-483401
-594726
-394136
-236791
-348726
-146891
2477.64
-111533
91129.6
237463
121985
324253
472344
356360
549229
710675
590735
772414
951031
797958
1.00785e+06
1.19202e+06
1.0541e+06
1.23651e+06
1.43031e+06
1.29307e+06
1.37201e+06
1.25267e+06
1.72935e+06
-1.72203e+06
-1.09202e+06
-1.02178e+06
-863579
-674022
-731154
-620166
-440525
-478624
-373599
-212756
-235609
-141531
8228.92
-4652.77
81476.3
225503
217483
299408
443112
435106
507704
666068
648425
722399
890422
857428
943107
1.11785e+06
1.07198e+06
1.16366e+06
1.34995e+06
1.29089e+06
1.51804e+06
2.11807e+06
1.51099e+06
-616335
-810002
-1.12106e+06
-819949
-627966
-760982
-580027
-402704
-539799
-343464
-182704
-317775
-119743
31053.3
-103528
95192.3
241167
107283
304580
451486
317983
513889
656507
518297
720425
865468
734800
927498
1.08626e+06
960919
1.13974e+06
1.31738e+06
1.1909e+06
1.28017e+06
1.16e+06
1.54295e+06
-1.4845e+06
-947513
-856087
-746549
-555072
-607145
-522713
-349414
-386605
-305369
-150118
-174650
-101090
42923.9
26362.8
94683.3
232666
219603
285435
422587
408128
475656
614840
595752
666627
810993
783941
860555
1.01406e+06
975547
1.05807e+06
1.22524e+06
1.17091e+06
1.40768e+06
2.00365e+06
1.39846e+06
-406824
-645789
-929162
-688558
-510045
-643375
-475322
-317390
-447295
-269478
-129443
-254960
-75421.1
52734.7
-69971.9
110549
231792
111442
291808
410335
292215
471245
591316
475633
651756
777199
664140
835705
970791
859968
1.02138e+06
1.17284e+06
1.06242e+06
1.13998e+06
1.02802e+06
1.40841e+06
-1.24941e+06
-771774
-653664
-593352
-423125
-461829
-398891
-248897
-273532
-213796
-82016.6
-95172.7
-41626.5
78583.5
72510.4
122262
236003
232915
281516
393101
389133
439299
552633
544108
598379
716865
700494
761270
888500
860912
927535
1.06656e+06
1.02416e+06
1.25723e+06
1.84032e+06
1.24092e+06
-170408
-445088
-701751
-521989
-366213
-490651
-341144
-208205
-326259
-170739
-56127.8
-168219
-11974.9
90373.5
-17697.2
138951
234002
129131
285333
377450
275393
430121
523327
423904
576064
673989
577093
725816
832625
737716
877387
998730
904342
964239
847880
1.22595e+06
-980943
-563418
-414081
-410983
-263640
-286325
-250464
-127471
-136773
-104175
-99.4896
1187.5
29381.4
121491
129426
155061
240385
251170
276427
359337
369251
396484
481002
486319
518118
607600
604871
644363
741483
726791
774624
879345
852702
1.07721e+06
1.63999e+06
1.06154e+06
105343
-206648
-437103
-323118
-192372
-309119
-182568
-78828.1
-184072
-54842.6
30028
-67644.2
62147.8
134429
41580.3
171906
236721
147445
277587
339445
253166
382009
445004
361428
487480
555345
474548
595522
671109
594355
707106
793054
718759
761010
642672
1.01184e+06
-675096
-276969
-199399
-174871
-52328.3
-58855
-69223.8
29577.4
25066.8
31617.3
108183
118679
122015
182916
202945
205296
256395
282013
285288
329577
357624
363261
405477
431668
442055
487308
507952
523588
578373
587261
615109
699220
681353
912161
1.40168e+06
620349
279140
28267.1
-132103
-61742.7
23827.8
-63634.5
-10866.7
64867.3
-5291.28
69244.3
127234
60427.6
138693
184723
120948
201658
241005
178530
262182
296753
236891
320914
355097
297139
381039
420932
363380
446078
496821
439887
525706
607569
547375
192219
-21172.7
595692