/*--------------------------------*- C++ -*----------------------------------*\
| =========                 |                                                 |
| \\      /  F ield         | OpenFOAM: The Open Source CFD Toolbox           |
|  \\    /   O peration     | Version:  v2012                                 |
|   \\  /    A nd           | Website:  www.openfoam.com                      |
|    \\/     M anipulation  |                                                 |
\*---------------------------------------------------------------------------*/
FoamFile
{
    version     2.0;
    format      ascii;
    class       volSymmTensorField;
    location    "12";
    object      sigma;
}
// * * * * * * * * * * * * * * * * * * * * * * * * * * * * * * * * * * * * * //

dimensions      [1 -1 -2 0 0 0 0];


internalField   nonuniform List<symmTensor> 
32000
(
(1.65965e+08 -3.16369e+06 0.000134317 2.04526e+06 0.00101575 1.04487e+08)
(1.68151e+08 -568050 -9.41477e-05 163175 0.00135521 1.03221e+08)
(1.7392e+08 -3.5033e+06 -0.000226554 4.58574e+06 0.00135321 1.09188e+08)
(1.74917e+08 -1.00197e+06 -0.000414146 1.94998e+06 0.00133751 1.06798e+08)
(1.81838e+08 -3.62027e+06 -0.000183307 7.42607e+06 0.00158855 1.13857e+08)
(1.81225e+08 -1.36507e+06 -0.000205146 3.57726e+06 0.00186072 1.1007e+08)
(1.89532e+08 -3.59437e+06 -2.00222e-05 1.04231e+07 0.00210929 1.18386e+08)
(1.8726e+08 -1.67864e+06 0.000210016 5.24017e+06 0.00188445 1.13226e+08)
(1.96936e+08 -3.48681e+06 0.000227029 1.34926e+07 0.00190653 1.22732e+08)
(1.93089e+08 -1.96258e+06 9.39758e-05 7.00094e+06 0.00140723 1.16316e+08)
(2.04038e+08 -3.33691e+06 -0.000133203 1.65904e+07 0.00155091 1.26887e+08)
(1.98745e+08 -2.22881e+06 -0.000344591 8.87711e+06 0.00116306 1.1935e+08)
(2.10844e+08 -3.16592e+06 -0.000207093 1.96942e+07 0.00112616 1.30849e+08)
(2.04243e+08 -2.48371e+06 -0.00011563 1.08664e+07 0.000734417 1.22323e+08)
(2.1737e+08 -2.98627e+06 9.20962e-05 2.27933e+07 0.000817956 1.3462e+08)
(2.09597e+08 -2.73014e+06 0.000178429 1.29625e+07 0.000849703 1.25227e+08)
(2.23636e+08 -2.80454e+06 8.41042e-05 2.58832e+07 0.00116737 1.38205e+08)
(2.14813e+08 -2.96898e+06 0.000133635 1.51541e+07 0.00117619 1.28055e+08)
(2.2966e+08 -2.6238e+06 4.78991e-05 2.89615e+07 0.00160522 1.41603e+08)
(2.19901e+08 -3.20111e+06 0.000194107 1.74328e+07 0.00148209 1.30794e+08)
(2.35459e+08 -2.44736e+06 0.000143386 3.20282e+07 0.00137987 1.44825e+08)
(2.24865e+08 -3.42534e+06 0.000116735 1.97875e+07 0.000928841 1.33427e+08)
(2.41047e+08 -2.27378e+06 -2.77929e-05 3.50817e+07 0.00101527 1.47857e+08)
(2.29711e+08 -3.64232e+06 -9.93269e-05 2.22114e+07 0.000601405 1.35945e+08)
(2.46437e+08 -2.10393e+06 -7.00365e-05 3.81212e+07 0.000588452 1.50695e+08)
(2.34445e+08 -3.8529e+06 -0.000150008 2.46955e+07 0.000191433 1.38344e+08)
(2.51642e+08 -1.93831e+06 -7.7806e-05 4.11467e+07 0.000600865 1.53333e+08)
(2.39073e+08 -4.05999e+06 0.000160865 2.72365e+07 0.000897352 1.406e+08)
(2.56672e+08 -1.77634e+06 0.000235489 4.41592e+07 0.00109 1.55772e+08)
(2.436e+08 -4.26453e+06 0.000297657 2.98305e+07 0.00112022 1.42697e+08)
(2.61535e+08 -1.61273e+06 5.8157e-05 4.71575e+07 0.000819574 1.57985e+08)
(2.48032e+08 -4.46705e+06 0.000233426 3.24753e+07 0.000865577 1.44636e+08)
(2.66233e+08 -1.44509e+06 0.000171378 5.01394e+07 0.000620294 1.59953e+08)
(2.52365e+08 -4.66871e+06 0.000418629 3.51605e+07 0.000667661 1.46387e+08)
(2.70775e+08 -1.27619e+06 0.000240465 5.31045e+07 0.000495522 1.61692e+08)
(2.56601e+08 -4.86962e+06 0.000182319 3.78848e+07 0.000627196 1.4792e+08)
(2.75153e+08 -1.09491e+06 -6.03052e-05 5.6047e+07 0.000561106 1.63145e+08)
(2.60736e+08 -5.06884e+06 -0.000164444 4.06424e+07 0.000499885 1.49229e+08)
(2.7936e+08 -897377 -0.000101315 5.89585e+07 0.000371316 1.64282e+08)
(2.64757e+08 -5.26718e+06 3.41665e-05 4.34178e+07 0.000190043 1.50282e+08)
(2.83395e+08 -687530 0.000134292 6.18335e+07 0.00019137 1.65127e+08)
(2.68656e+08 -5.46229e+06 8.29093e-05 4.62079e+07 0.000131161 1.51028e+08)
(2.87234e+08 -449117 -5.23267e-05 6.4657e+07 0.000106663 1.65594e+08)
(2.7242e+08 -5.65024e+06 -0.000147081 4.8998e+07 6.48143e-05 1.51473e+08)
(2.90854e+08 -179314 -9.20488e-05 6.74113e+07 6.55766e-05 1.65659e+08)
(2.76016e+08 -5.82909e+06 1.30838e-05 5.17623e+07 0.000112367 1.51557e+08)
(2.94237e+08 121648 0.000104384 7.00782e+07 0.000113174 1.65331e+08)
(2.79425e+08 -5.99151e+06 0.000246004 5.4494e+07 0.000139787 1.51229e+08)
(2.97337e+08 468439 0.000136996 7.26292e+07 -7.86318e-05 1.64514e+08)
(2.82613e+08 -6.12846e+06 0.000157834 5.71519e+07 -0.000127353 1.50534e+08)
(3.00125e+08 856285 1.81728e-05 7.50348e+07 -0.000167834 1.63229e+08)
(2.85533e+08 -6.23238e+06 8.04859e-05 5.97088e+07 1.94998e-05 1.49353e+08)
(3.02555e+08 1.29228e+06 6.06546e-05 7.7259e+07 0.000158836 1.61438e+08)
(2.88157e+08 -6.28777e+06 -2.95684e-05 6.2139e+07 0.000230369 1.47719e+08)
(3.04569e+08 1.78072e+06 -8.9255e-05 7.92576e+07 0.000455357 1.59082e+08)
(2.90427e+08 -6.28491e+06 -8.60958e-05 6.43774e+07 0.000389381 1.45631e+08)
(3.06154e+08 2.29945e+06 4.64209e-06 8.09935e+07 0.00044061 1.5628e+08)
(2.92315e+08 -6.20551e+06 -1.66739e-05 6.64133e+07 0.000395472 1.43037e+08)
(3.07243e+08 2.85704e+06 -2.09083e-05 8.24181e+07 0.000368465 1.52923e+08)
(2.93785e+08 -6.03704e+06 5.98245e-05 6.81662e+07 0.00036162 1.40082e+08)
(3.0783e+08 3.42887e+06 7.92221e-05 8.34898e+07 0.00026 1.4914e+08)
(2.94808e+08 -5.76664e+06 0.000288369 6.9624e+07 0.000242458 1.36683e+08)
(3.0789e+08 4.0043e+06 0.000202685 8.41671e+07 2.48224e-05 1.44944e+08)
(2.95394e+08 -5.38516e+06 0.000242103 7.07454e+07 -0.000114703 1.33001e+08)
(3.07425e+08 4.56528e+06 3.45966e-05 8.44138e+07 -0.00012736 1.40411e+08)
(2.9553e+08 -4.89116e+06 -3.97993e-05 7.14923e+07 -8.67937e-05 1.29067e+08)
(3.06472e+08 5.08785e+06 -7.32355e-05 8.42048e+07 -5.76226e-05 1.35683e+08)
(2.95267e+08 -4.28061e+06 -7.24504e-05 7.18815e+07 -0.000191864 1.24986e+08)
(3.0504e+08 5.56322e+06 2.22711e-06 8.35182e+07 -0.000146271 1.30782e+08)
(2.94623e+08 -3.56752e+06 0.000104895 7.18615e+07 -4.99097e-05 1.20893e+08)
(3.03206e+08 5.97218e+06 0.000100001 8.2347e+07 9.34304e-06 1.25902e+08)
(2.93661e+08 -2.75508e+06 0.000159721 7.14785e+07 8.2341e-05 1.16833e+08)
(3.01001e+08 6.31351e+06 5.60932e-05 8.06868e+07 5.99599e-05 1.21069e+08)
(2.92418e+08 -1.87014e+06 0.000219347 7.07108e+07 0.00013871 1.12917e+08)
(2.98484e+08 6.58759e+06 0.000157754 7.85446e+07 6.93475e-05 1.16383e+08)
(2.90926e+08 -940478 0.000347115 6.95556e+07 0.000102281 1.09196e+08)
(2.95709e+08 6.80315e+06 0.000180867 7.59351e+07 0.000111063 1.1192e+08)
(2.85777e+08 141077 0.000383162 6.89637e+07 2.24647e-05 1.06422e+08)
(2.87686e+08 6.58968e+06 0.000192784 7.29973e+07 -5.23086e-06 1.08205e+08)
(2.78182e+08 603852 0.000225625 6.7783e+07 -7.00561e-05 1.0379e+08)
(1.66765e+08 -6.58107e+06 -0.000242091 2.23798e+06 0.00100723 1.05489e+08)
(1.68334e+08 -3.60309e+06 -0.000449797 50487.1 0.000745532 1.03002e+08)
(1.74187e+08 -6.78618e+06 -0.000485642 4.43737e+06 0.00108393 1.09408e+08)
(1.75601e+08 -4.19864e+06 -0.000451892 2.36222e+06 0.000644271 1.07087e+08)
(1.81522e+08 -7.00468e+06 -0.000400093 6.92924e+06 0.0011784 1.13483e+08)
(1.82301e+08 -4.7418e+06 -0.000235661 4.46914e+06 0.000929197 1.10782e+08)
(1.887e+08 -7.19023e+06 0.000189071 9.58787e+06 0.00139901 1.17555e+08)
(1.88621e+08 -5.25337e+06 0.000239763 6.5194e+06 0.000792606 1.14248e+08)
(1.95698e+08 -7.32757e+06 0.000127921 1.23737e+07 0.000794253 1.2157e+08)
(1.94643e+08 -5.73546e+06 -0.000212202 8.56856e+06 0.000158883 1.17547e+08)
(2.02505e+08 -7.41673e+06 -0.000453958 1.52575e+07 0.000401946 1.25495e+08)
(2.00415e+08 -6.18915e+06 -0.000321257 1.06453e+07 0.000106013 1.20711e+08)
(2.09114e+08 -7.46477e+06 -0.000120479 1.82165e+07 0.000488464 1.29313e+08)
(2.05969e+08 -6.61616e+06 0.000150011 1.27638e+07 0.000388452 1.23753e+08)
(2.15519e+08 -7.47881e+06 0.000238779 2.12273e+07 0.000670598 1.33e+08)
(2.11335e+08 -7.02017e+06 7.19735e-05 1.49349e+07 0.000578296 1.26682e+08)
(2.21721e+08 -7.46671e+06 6.18489e-05 2.4274e+07 0.000772476 1.36546e+08)
(2.16536e+08 -7.40263e+06 7.05804e-05 1.71653e+07 0.000854693 1.29506e+08)
(2.27721e+08 -7.43502e+06 0.000287513 2.73416e+07 0.00114335 1.39934e+08)
(2.21586e+08 -7.76411e+06 0.000404227 1.94549e+07 0.000935041 1.32221e+08)
(2.33524e+08 -7.38819e+06 0.0002809 3.04193e+07 0.000831029 1.43157e+08)
(2.265e+08 -8.10646e+06 -2.25918e-06 2.18041e+07 0.00047274 1.34821e+08)
(2.39133e+08 -7.32916e+06 -0.000236397 3.34969e+07 0.000166856 1.46204e+08)
(2.31292e+08 -8.43329e+06 -0.000592105 2.42126e+07 1.9073e-05 1.37297e+08)
(2.44557e+08 -7.26161e+06 -0.000526804 3.65705e+07 6.61663e-05 1.49063e+08)
(2.35974e+08 -8.74793e+06 -0.000608173 2.66814e+07 0.000112978 1.39648e+08)
(2.498e+08 -7.18701e+06 1.26863e-05 3.9633e+07 0.000538803 1.51718e+08)
(2.40557e+08 -9.05152e+06 -6.6145e-05 2.9211e+07 0.00044424 1.41866e+08)
(2.54865e+08 -7.106e+06 0.000147868 4.26776e+07 0.000840969 1.54164e+08)
(2.45043e+08 -9.34508e+06 -0.000156377 3.17963e+07 0.00042253 1.43924e+08)
(2.59754e+08 -7.01525e+06 0.000171972 4.56976e+07 0.000754589 1.56379e+08)
(2.49438e+08 -9.62919e+06 0.000213488 3.44363e+07 0.000452704 1.4581e+08)
(2.64473e+08 -6.9129e+06 0.000520101 4.86947e+07 0.000614389 1.58342e+08)
(2.53744e+08 -9.90223e+06 0.000146276 3.71251e+07 0.000338802 1.47521e+08)
(2.69015e+08 -6.79368e+06 -9.9313e-06 5.16566e+07 0.000526517 1.60037e+08)
(2.57951e+08 -1.01637e+07 -0.000279297 3.98521e+07 0.000461594 1.49006e+08)
(2.73379e+08 -6.64981e+06 -0.000186293 5.45765e+07 0.00050304 1.61445e+08)
(2.62058e+08 -1.04096e+07 -2.89032e-05 4.26121e+07 0.000371136 1.50239e+08)
(2.77564e+08 -6.47576e+06 0.000125939 5.74557e+07 0.00018838 1.6253e+08)
(2.66049e+08 -1.06342e+07 0.000244015 4.5388e+07 7.86465e-05 1.51219e+08)
(2.81549e+08 -6.25955e+06 9.89371e-05 6.02716e+07 2.27465e-05 1.6327e+08)
(2.69904e+08 -1.08323e+07 6.81152e-05 4.81607e+07 0.000103502 1.51872e+08)
(2.85323e+08 -5.98902e+06 -4.37737e-05 6.30146e+07 0.00016994 1.63643e+08)
(2.73603e+08 -1.09923e+07 -2.40257e-05 5.0916e+07 0.000111109 1.52165e+08)
(2.88871e+08 -5.65231e+06 -2.38431e-05 6.56783e+07 5.20614e-05 1.63593e+08)
(2.77118e+08 -1.11016e+07 -6.22171e-05 5.36213e+07 6.9396e-05 1.52106e+08)
(2.92156e+08 -5.23481e+06 0.000118337 6.82251e+07 0.000156756 1.63122e+08)
(2.80399e+08 -1.11469e+07 -3.25192e-06 5.62405e+07 0.000337485 1.51588e+08)
(2.95162e+08 -4.7239e+06 0.000147941 7.06516e+07 0.000264526 1.62191e+08)
(2.83421e+08 -1.11064e+07 -2.49172e-05 5.87461e+07 0.000426001 1.50623e+08)
(2.97843e+08 -4.10182e+06 4.85379e-05 7.29236e+07 0.000210007 1.60747e+08)
(2.86127e+08 -1.09637e+07 -2.93597e-05 6.10834e+07 0.000407486 1.4919e+08)
(3.00167e+08 -3.36251e+06 -8.52883e-05 7.50036e+07 0.000283084 1.58849e+08)
(2.88474e+08 -1.06931e+07 -0.000193074 6.32193e+07 0.000460275 1.47222e+08)
(3.02109e+08 -2.50023e+06 -0.000131879 7.68901e+07 0.000340885 1.56423e+08)
(2.90425e+08 -1.02752e+07 -0.000176747 6.50922e+07 0.00042368 1.4483e+08)
(3.03611e+08 -1.50928e+06 -0.000148768 7.85102e+07 0.000427039 1.53537e+08)
(2.91931e+08 -9.68933e+06 -0.000121294 6.66677e+07 0.0005128 1.41924e+08)
(3.04677e+08 -402279 9.27689e-05 7.98737e+07 0.000471378 1.50206e+08)
(2.92994e+08 -8.92201e+06 7.4975e-05 6.79163e+07 0.000506751 1.38639e+08)
(3.05256e+08 812318 0.000250246 8.0915e+07 0.000374765 1.46462e+08)
(2.93583e+08 -7.97017e+06 0.000150799 6.87984e+07 0.000384426 1.34985e+08)
(3.05359e+08 2.11202e+06 0.000229546 8.16107e+07 0.000106629 1.42416e+08)
(2.93742e+08 -6.82985e+06 9.94809e-05 6.93321e+07 0.000185409 1.31078e+08)
(3.04983e+08 3.46976e+06 3.74266e-05 8.19436e+07 -1.87805e-06 1.38084e+08)
(2.93473e+08 -5.52447e+06 8.12287e-05 6.94856e+07 0.000193424 1.27014e+08)
(3.04143e+08 4.8571e+06 1.56607e-06 8.18557e+07 -3.09942e-05 1.33629e+08)
(2.92846e+08 -4.05761e+06 6.38594e-05 6.93181e+07 0.000116103 1.22867e+08)
(3.02884e+08 6.24013e+06 9.04424e-05 8.13752e+07 4.51406e-05 1.29067e+08)
(2.91897e+08 -2.47334e+06 0.000153895 6.88088e+07 0.000236899 1.1879e+08)
(3.0124e+08 7.58573e+06 0.000226302 8.0452e+07 0.000208739 1.24547e+08)
(2.90698e+08 -780897 0.000145223 6.80288e+07 0.000321965 1.14818e+08)
(2.99276e+08 8.86484e+06 0.00023959 7.91205e+07 0.000267662 1.20118e+08)
(2.89309e+08 981764 0.000315143 6.6992e+07 0.000258086 1.11075e+08)
(2.97086e+08 1.00251e+07 0.000479496 7.74248e+07 0.000158005 1.15883e+08)
(2.87824e+08 2.8204e+06 0.000459774 6.57699e+07 0.000187426 1.07674e+08)
(2.9388e+08 1.1281e+07 0.00052263 7.43259e+07 4.16133e-05 1.11536e+08)
(2.84445e+08 4.69508e+06 0.000526543 6.48099e+07 4.14732e-05 1.04776e+08)
(2.87801e+08 1.16672e+07 0.000412272 7.12814e+07 -4.31079e-05 1.07725e+08)
(2.77615e+08 5.72837e+06 0.000183643 6.46663e+07 8.48146e-05 1.02684e+08)
(1.66895e+08 -9.75685e+06 -0.000493853 2.59285e+06 0.000337595 1.05818e+08)
(1.69016e+08 -6.726e+06 -0.000675983 711387 0.000120343 1.03388e+08)
(1.73982e+08 -1.01786e+07 -0.000595963 4.43564e+06 9.95631e-05 1.09368e+08)
(1.76448e+08 -7.50265e+06 -0.000702895 3.22673e+06 -0.000283175 1.0761e+08)
(1.81016e+08 -1.05516e+07 -0.000392238 6.64875e+06 2.74937e-05 1.13103e+08)
(1.83363e+08 -8.21639e+06 5.3871e-05 5.60748e+06 7.31607e-05 1.11513e+08)
(1.87908e+08 -1.08973e+07 0.000259746 9.07802e+06 0.000382576 1.16881e+08)
(1.89867e+08 -8.89096e+06 0.000495904 7.91699e+06 0.000267567 1.15168e+08)
(1.9464e+08 -1.12096e+07 0.000133166 1.16667e+07 5.07735e-05 1.20644e+08)
(1.96031e+08 -9.53202e+06 0.000216308 1.01908e+07 -0.00014937 1.18618e+08)
(2.01211e+08 -1.14829e+07 -3.55089e-06 1.43835e+07 -0.00032953 1.2436e+08)
(2.01901e+08 -1.01415e+07 0.00026469 1.24494e+07 -0.000419769 1.21892e+08)
(2.07621e+08 -1.17142e+07 0.000211103 1.72066e+07 -7.47098e-05 1.28005e+08)
(2.0752e+08 -1.07209e+07 0.000229439 1.47127e+07 -0.000292358 1.25009e+08)
(2.13871e+08 -1.19067e+07 2.4428e-06 2.01158e+07 8.9417e-05 1.31564e+08)
(2.12918e+08 -1.1269e+07 -0.000145174 1.69926e+07 -0.00026771 1.27982e+08)
(2.19953e+08 -1.20622e+07 -6.4111e-05 2.30891e+07 0.000315182 1.35011e+08)
(2.18122e+08 -1.17859e+07 0.000237072 1.92992e+07 0.000187596 1.30819e+08)
(2.25867e+08 -1.2184e+07 0.000486828 2.61093e+07 0.000530649 1.38327e+08)
(2.23156e+08 -1.22741e+07 0.00017371 2.16405e+07 6.08213e-05 1.33526e+08)
(2.31611e+08 -1.22758e+07 -0.000187846 2.91601e+07 0.000119537 1.41493e+08)
(2.28046e+08 -1.27371e+07 -0.000637138 2.40263e+07 -0.000182707 1.36108e+08)
(2.37186e+08 -1.23432e+07 -0.00079867 3.22297e+07 2.89965e-05 1.44499e+08)
(2.32807e+08 -1.3178e+07 -0.00107863 2.64621e+07 -3.79782e-05 1.38556e+08)
(2.4259e+08 -1.23886e+07 -0.000945233 3.5304e+07 4.45303e-07 1.47326e+08)
(2.37458e+08 -1.35982e+07 -0.000719907 2.89534e+07 -6.6159e-05 1.40866e+08)
(2.47818e+08 -1.24133e+07 -0.000453768 3.83689e+07 -4.01879e-05 1.49948e+08)
(2.42006e+08 -1.39992e+07 -0.000321918 3.15011e+07 5.98964e-05 1.43031e+08)
(2.52871e+08 -1.2416e+07 -0.000231892 4.14151e+07 0.0001371 1.52344e+08)
(2.46462e+08 -1.43807e+07 -6.31752e-05 3.4106e+07 0.000178579 1.45044e+08)
(2.57745e+08 -1.23973e+07 5.57649e-05 4.44314e+07 0.000170813 1.54508e+08)
(2.50824e+08 -1.47414e+07 0.000304186 3.67606e+07 0.000195429 1.46866e+08)
(2.62435e+08 -1.23491e+07 9.15515e-05 4.74069e+07 0.000208336 1.56402e+08)
(2.55093e+08 -1.50782e+07 6.7876e-06 3.94594e+07 0.000371648 1.48474e+08)
(2.66939e+08 -1.22639e+07 -0.000206161 5.0334e+07 0.000438768 1.57998e+08)
(2.5926e+08 -1.53866e+07 0.00012536 4.21892e+07 0.000451948 1.49866e+08)
(2.71246e+08 -1.21348e+07 0.000202868 5.31983e+07 0.000344163 1.59284e+08)
(2.63311e+08 -1.56604e+07 0.000428826 4.49342e+07 0.000193205 1.50974e+08)
(2.75351e+08 -1.19463e+07 0.000309157 5.59909e+07 0.000111771 1.6023e+08)
(2.67224e+08 -1.58868e+07 0.000297425 4.76722e+07 0.000122121 1.51754e+08)
(2.79239e+08 -1.16823e+07 0.000198823 5.87001e+07 0.000167965 1.60788e+08)
(2.70977e+08 -1.60527e+07 0.000216556 5.03751e+07 0.000331842 1.52213e+08)
(2.82891e+08 -1.13291e+07 0.000101545 6.13043e+07 0.000205626 1.60954e+08)
(2.74531e+08 -1.6142e+07 -2.68371e-06 5.30095e+07 0.000362302 1.52253e+08)
(2.86292e+08 -1.08631e+07 -0.000166185 6.3793e+07 0.000279438 1.60692e+08)
(2.77844e+08 -1.61307e+07 -0.000394647 5.55342e+07 0.000545727 1.51842e+08)
(2.89417e+08 -1.02624e+07 -0.000402449 6.61508e+07 0.000508032 1.59952e+08)
(2.80877e+08 -1.59964e+07 -0.00053651 5.7904e+07 0.000647357 1.50989e+08)
(2.92242e+08 -9.51476e+06 -0.000297718 6.83505e+07 0.000630775 1.58783e+08)
(2.83568e+08 -1.57076e+07 -0.000402582 6.00633e+07 0.000751593 1.49592e+08)
(2.9474e+08 -8.59331e+06 -0.0001994 7.03839e+07 0.000733788 1.5711e+08)
(2.85882e+08 -1.52347e+07 -0.000301475 6.19641e+07 0.000894181 1.47717e+08)
(2.96874e+08 -7.49039e+06 -0.000234541 7.22162e+07 0.000732952 1.5497e+08)
(2.87762e+08 -1.45538e+07 -0.000205326 6.35513e+07 0.000719824 1.45314e+08)
(2.98632e+08 -6.19369e+06 -0.000207387 7.38404e+07 0.000523184 1.52394e+08)
(2.8919e+08 -1.36365e+07 -0.000138849 6.47939e+07 0.000536717 1.42445e+08)
(2.99975e+08 -4.70811e+06 -8.13592e-05 7.52268e+07 0.00052057 1.49378e+08)
(2.90142e+08 -1.24796e+07 9.3869e-05 6.56554e+07 0.000567871 1.3917e+08)
(3.00895e+08 -3.04274e+06 3.53474e-05 7.63489e+07 0.000593097 1.46039e+08)
(2.90631e+08 -1.10703e+07 3.10029e-05 6.61436e+07 0.000610487 1.35538e+08)
(3.01374e+08 -1.21366e+06 -2.41971e-05 7.7198e+07 0.000529388 1.42362e+08)
(2.90675e+08 -9.43364e+06 0.000226329 6.625e+07 0.000509132 1.31692e+08)
(3.01418e+08 736586 0.000270746 7.77326e+07 0.00043521 1.38514e+08)
(2.90319e+08 -7.57588e+06 0.000586859 6.60276e+07 0.000391094 1.27668e+08)
(3.01032e+08 2.79027e+06 0.000447033 7.79634e+07 0.000328217 1.34475e+08)
(2.89612e+08 -5.54905e+06 0.00055852 6.54883e+07 0.000335922 1.23636e+08)
(3.00242e+08 4.88314e+06 0.000243236 7.78417e+07 0.000340162 1.30414e+08)
(2.8862e+08 -3.36609e+06 0.000265735 6.4716e+07 0.000285731 1.19616e+08)
(2.99077e+08 7.0009e+06 0.000145912 7.73948e+07 0.000247754 1.26321e+08)
(2.87398e+08 -1.09276e+06 0.000298524 6.37242e+07 0.000218498 1.1576e+08)
(2.97564e+08 9.0896e+06 0.000223604 7.65767e+07 0.000320088 1.22309e+08)
(2.86016e+08 1.26447e+06 0.000160484 6.26032e+07 0.000353967 1.1207e+08)
(2.95722e+08 1.1148e+07 0.000159286 7.53848e+07 0.000344149 1.18385e+08)
(2.84521e+08 3.65306e+06 0.000277912 6.13706e+07 0.00020816 1.08635e+08)
(2.93507e+08 1.31996e+07 0.000417848 7.37262e+07 0.000150943 1.1456e+08)
(2.8293e+08 6.05741e+06 0.000333501 6.00676e+07 8.30282e-05 1.05397e+08)
(2.90673e+08 1.51742e+07 0.000383878 7.12708e+07 0.000118675 1.10662e+08)
(2.81215e+08 8.36881e+06 0.000250118 5.86678e+07 0.000134088 1.02262e+08)
(2.86933e+08 1.64128e+07 0.000169578 6.74997e+07 0.000180418 1.06352e+08)
(2.76117e+08 1.0652e+07 -0.000119773 5.82957e+07 0.000171544 1.00324e+08)
(1.66546e+08 -1.29801e+07 -0.000852064 2.58677e+06 -0.000186564 1.05596e+08)
(1.69978e+08 -9.97822e+06 -0.000728128 1.76206e+06 -0.000554574 1.04038e+08)
(1.73526e+08 -1.36097e+07 -0.000657981 4.39826e+06 -0.000621382 1.09086e+08)
(1.7741e+08 -1.08981e+07 -0.000499238 4.37184e+06 -0.000730607 1.0826e+08)
(1.80383e+08 -1.41616e+07 -0.000100292 6.49111e+06 -0.000340189 1.12651e+08)
(1.84413e+08 -1.17594e+07 0.000217275 6.93061e+06 -9.00849e-06 1.1225e+08)
(1.87087e+08 -1.46667e+07 0.000605048 8.79448e+06 0.000291603 1.16242e+08)
(1.91024e+08 -1.25745e+07 0.000433776 9.43591e+06 0.000162702 1.16013e+08)
(1.93632e+08 -1.51334e+07 0.000405594 1.12629e+07 -6.08318e-05 1.1982e+08)
(1.97283e+08 -1.3352e+07 0.000192562 1.18962e+07 -0.000400002 1.19564e+08)
(2.00024e+08 -1.55623e+07 0.000269409 1.38703e+07 -0.000575942 1.23365e+08)
(2.03234e+08 -1.40962e+07 0.000311722 1.43273e+07 -0.000580065 1.22922e+08)
(2.06265e+08 -1.59526e+07 0.000324046 1.6594e+07 -0.000635635 1.26853e+08)
(2.08911e+08 -1.48062e+07 0.000258395 1.67402e+07 -0.000488613 1.26105e+08)
(2.12358e+08 -1.63016e+07 1.48018e-05 1.94138e+07 -0.000495586 1.30263e+08)
(2.14346e+08 -1.54807e+07 0.000262061 1.91475e+07 -0.000112684 1.29124e+08)
(2.183e+08 -1.66092e+07 0.000397159 2.2311e+07 -9.3108e-06 1.33579e+08)
(2.1957e+08 -1.61213e+07 0.000447091 2.15603e+07 0.000279507 1.31986e+08)
(2.24093e+08 -1.68761e+07 -2.43901e-05 2.52688e+07 1.01056e-05 1.3678e+08)
(2.24614e+08 -1.67307e+07 -0.000552844 2.3993e+07 0.000160855 1.34699e+08)
(2.29734e+08 -1.71053e+07 -0.000795073 2.82691e+07 -9.038e-05 1.39845e+08)
(2.29505e+08 -1.73114e+07 -0.00072917 2.6458e+07 7.02799e-05 1.37266e+08)
(2.35221e+08 -1.72982e+07 -0.000850876 3.12955e+07 -8.9847e-05 1.4275e+08)
(2.34263e+08 -1.78635e+07 -0.00068833 2.89649e+07 -7.15868e-05 1.39696e+08)
(2.40545e+08 -1.74559e+07 -0.000695644 3.43292e+07 -8.52525e-05 1.45473e+08)
(2.38903e+08 -1.8387e+07 -0.000537857 3.15187e+07 -0.00026116 1.41974e+08)
(2.45701e+08 -1.75777e+07 -0.000430764 3.73548e+07 -0.000139057 1.47995e+08)
(2.43439e+08 -1.88801e+07 -0.000696978 3.41221e+07 -0.000152473 1.44085e+08)
(2.50679e+08 -1.76607e+07 -0.000413284 4.03543e+07 9.15287e-05 1.50281e+08)
(2.47872e+08 -1.93406e+07 -0.000340736 3.67704e+07 2.27994e-05 1.46006e+08)
(2.55473e+08 -1.76977e+07 0.000261038 4.33131e+07 0.000136506 1.52299e+08)
(2.52205e+08 -1.9765e+07 0.000272096 3.94561e+07 3.86482e-05 1.47731e+08)
(2.60074e+08 -1.76824e+07 0.000228468 4.62144e+07 0.000262848 1.54034e+08)
(2.56429e+08 -2.01477e+07 3.28401e-05 4.21667e+07 0.000104435 1.49211e+08)
(2.64476e+08 -1.76044e+07 0.000138768 4.90466e+07 0.000231653 1.55459e+08)
(2.60528e+08 -2.04775e+07 0.000224843 4.48818e+07 -2.56721e-05 1.50398e+08)
(2.68666e+08 -1.74465e+07 0.000435466 5.17917e+07 5.07621e-05 1.56523e+08)
(2.64479e+08 -2.07404e+07 0.000423035 4.75722e+07 -0.000172458 1.51271e+08)
(2.7263e+08 -1.71916e+07 0.000403124 5.44333e+07 -1.46606e-05 1.57208e+08)
(2.68254e+08 -2.09215e+07 5.33507e-05 5.02069e+07 -0.000217637 1.5178e+08)
(2.76359e+08 -1.68224e+07 -3.08478e-05 5.69598e+07 8.86692e-05 1.57507e+08)
(2.71809e+08 -2.09966e+07 -0.000119226 5.27407e+07 -9.647e-05 1.51846e+08)
(2.79831e+08 -1.63101e+07 2.81825e-05 5.93517e+07 0.000307842 1.5735e+08)
(2.75101e+08 -2.09385e+07 -7.71123e-05 5.5123e+07 0.000190609 1.51468e+08)
(2.83031e+08 -1.56349e+07 -0.000336079 6.15941e+07 0.0005119 1.56753e+08)
(2.78077e+08 -2.07181e+07 -0.00050053 5.72981e+07 0.000210377 1.50581e+08)
(2.8594e+08 -1.4772e+07 -0.000690056 6.36736e+07 0.000389066 1.55703e+08)
(2.8068e+08 -2.02967e+07 -0.000695576 5.92033e+07 0.000107765 1.49147e+08)
(2.88529e+08 -1.36932e+07 -0.000639953 6.55714e+07 0.000496216 1.54161e+08)
(2.82868e+08 -1.96445e+07 -0.000709607 6.07809e+07 0.000400493 1.47219e+08)
(2.90789e+08 -1.23933e+07 -0.000565098 6.72763e+07 0.000821031 1.52221e+08)
(2.84588e+08 -1.87242e+07 -0.000372895 6.19792e+07 0.000566069 1.44732e+08)
(2.92684e+08 -1.08482e+07 -7.88648e-05 6.87734e+07 0.000629924 1.4982e+08)
(2.85835e+08 -1.75228e+07 9.63423e-05 6.27677e+07 0.000290965 1.41835e+08)
(2.94208e+08 -9.07353e+06 3.19871e-05 7.00468e+07 0.000400046 1.47095e+08)
(2.86587e+08 -1.60244e+07 -1.57922e-05 6.31349e+07 0.000222256 1.38501e+08)
(2.95337e+08 -7.06464e+06 -1.32096e-05 7.10905e+07 0.000412056 1.44029e+08)
(2.86883e+08 -1.42447e+07 -2.26614e-05 6.3097e+07 0.000236147 1.34914e+08)
(2.96068e+08 -4.86076e+06 8.11522e-05 7.18817e+07 0.000416563 1.40753e+08)
(2.86745e+08 -1.21979e+07 0.000154538 6.2691e+07 0.000117975 1.31093e+08)
(2.96404e+08 -2.48009e+06 0.000349931 7.24306e+07 0.000301018 1.3729e+08)
(2.8624e+08 -9.9317e+06 0.000393187 6.19694e+07 -4.70697e-05 1.2722e+08)
(2.96347e+08 19435.2 0.000581503 7.27061e+07 0.000128064 1.33752e+08)
(2.85419e+08 -7.47403e+06 0.000472333 6.1005e+07 -0.000110464 1.23311e+08)
(2.95921e+08 2.61366e+06 0.000588611 7.27328e+07 0.000169925 1.30159e+08)
(2.8435e+08 -4.89522e+06 0.000182048 5.98487e+07 4.05511e-05 1.19518e+08)
(2.95136e+08 5.23791e+06 0.000177559 7.24715e+07 0.000158925 1.26603e+08)
(2.83097e+08 -2.21316e+06 -1.55323e-05 5.85931e+07 5.15596e-05 1.15831e+08)
(2.94023e+08 7.88394e+06 0.000228661 7.19528e+07 0.000153387 1.23073e+08)
(2.81708e+08 501035 9.70174e-05 5.72622e+07 7.07199e-05 1.12352e+08)
(2.92586e+08 1.04979e+07 0.000107315 7.11305e+07 0.000175079 1.19629e+08)
(2.80222e+08 3.23765e+06 -0.000104036 5.59258e+07 4.92258e-05 1.09025e+08)
(2.90838e+08 1.30925e+07 7.37455e-05 7.00241e+07 9.97201e-05 1.16223e+08)
(2.78664e+08 5.94339e+06 5.57197e-05 5.45847e+07 1.25689e-05 1.05902e+08)
(2.88849e+08 1.55983e+07 0.000183748 6.86751e+07 5.69273e-05 1.12903e+08)
(2.77042e+08 8.60622e+06 5.32602e-05 5.32722e+07 9.44799e-05 1.02898e+08)
(2.86782e+08 1.78637e+07 7.78058e-05 6.72441e+07 0.000136535 1.09671e+08)
(2.75489e+08 1.12438e+07 -5.25456e-05 5.20624e+07 7.60371e-05 1.00258e+08)
(2.83417e+08 2.0176e+07 -0.000162505 6.42007e+07 6.72772e-05 1.06083e+08)
(2.73802e+08 1.36977e+07 -0.000193171 5.08441e+07 -4.19869e-05 9.74575e+07)
(1.65992e+08 -1.62821e+07 -0.000386164 2.47131e+06 -0.000604202 1.0512e+08)
(1.70988e+08 -1.33544e+07 -0.00012404 2.97004e+06 -0.000413886 1.04725e+08)
(1.72938e+08 -1.70886e+07 -0.000313533 4.37206e+06 -0.000475526 1.08638e+08)
(1.78383e+08 -1.43937e+07 0.000125341 5.67402e+06 -2.24914e-05 1.08926e+08)
(1.79676e+08 -1.78151e+07 0.000251562 6.45019e+06 4.71308e-05 1.12123e+08)
(1.85414e+08 -1.53771e+07 0.000989365 8.37957e+06 0.000490586 1.12949e+08)
(1.86236e+08 -1.84795e+07 0.000777746 8.70117e+06 0.00030236 1.15589e+08)
(1.92082e+08 -1.63125e+07 0.000889007 1.10541e+07 0.000269208 1.16771e+08)
(1.92633e+08 -1.90949e+07 0.000328426 1.11086e+07 -0.000210505 1.1903e+08)
(1.98411e+08 -1.72075e+07 0.000465749 1.36918e+07 -0.000286352 1.20392e+08)
(1.98874e+08 -1.96676e+07 0.000369559 1.36498e+07 -0.000482149 1.22428e+08)
(2.04428e+08 -1.80643e+07 0.000581829 1.62943e+07 -7.87167e-05 1.23817e+08)
(2.04963e+08 -2.01976e+07 0.000455143 1.6305e+07 -3.7787e-05 1.25768e+08)
(2.10161e+08 -1.88833e+07 0.000878103 1.88685e+07 0.000542706 1.27054e+08)
(2.10902e+08 -2.06835e+07 0.000916777 1.90543e+07 0.000459806 1.29028e+08)
(2.15643e+08 -1.96672e+07 0.00114976 2.14244e+07 0.000844364 1.30112e+08)
(2.16696e+08 -2.11247e+07 0.000535934 2.18817e+07 0.000548567 1.32192e+08)
(2.20908e+08 -2.04193e+07 0.000673534 2.39763e+07 0.000912242 1.33002e+08)
(2.22347e+08 -2.15218e+07 5.10145e-05 2.47696e+07 0.000782008 1.35239e+08)
(2.25987e+08 -2.11406e+07 0.000253826 2.65395e+07 0.00100255 1.35731e+08)
(2.27851e+08 -2.18748e+07 -0.000296706 2.76994e+07 0.000528375 1.38152e+08)
(2.30904e+08 -2.18295e+07 -5.16863e-06 2.91249e+07 0.000474641 1.38299e+08)
(2.33203e+08 -2.21814e+07 -0.000286796 3.06508e+07 2.87051e-05 1.40902e+08)
(2.35682e+08 -2.2483e+07 -0.000144787 3.17425e+07 0.000202968 1.40701e+08)
(2.38393e+08 -2.24384e+07 -0.000396413 3.36043e+07 -7.66253e-05 1.43457e+08)
(2.40332e+08 -2.3097e+07 -0.000227138 3.43936e+07 6.31579e-05 1.4292e+08)
(2.43409e+08 -2.26395e+07 -0.000636561 3.65369e+07 -0.000137557 1.45783e+08)
(2.44864e+08 -2.36679e+07 -0.000515001 3.70754e+07 0.000131933 1.44948e+08)
(2.48245e+08 -2.27772e+07 -0.000502504 3.94299e+07 4.69645e-05 1.47856e+08)
(2.49279e+08 -2.41903e+07 -0.000245261 3.97814e+07 -3.14942e-06 1.46754e+08)
(2.52892e+08 -2.28438e+07 -6.75028e-05 4.2266e+07 -0.000122635 1.49654e+08)
(2.53568e+08 -2.46543e+07 -0.000228042 4.24945e+07 -0.000332421 1.48296e+08)
(2.57337e+08 -2.28251e+07 -7.64226e-05 4.50244e+07 -0.000319835 1.51128e+08)
(2.57715e+08 -2.50467e+07 -0.000146757 4.51902e+07 -0.000384758 1.49526e+08)
(2.61566e+08 -2.2702e+07 5.22818e-05 4.76834e+07 -0.000207815 1.52238e+08)
(2.61696e+08 -2.53517e+07 -7.46449e-05 4.78369e+07 -0.000158952 1.50429e+08)
(2.65573e+08 -2.24599e+07 9.31373e-05 5.02299e+07 -0.000196137 1.52986e+08)
(2.65472e+08 -2.5548e+07 -0.000111093 5.0391e+07 -0.000217117 1.50922e+08)
(2.69341e+08 -2.20734e+07 -0.00012094 5.26442e+07 -0.000392271 1.53321e+08)
(2.68998e+08 -2.56078e+07 -0.000343138 5.27999e+07 -0.000342039 1.50942e+08)
(2.72851e+08 -2.1512e+07 -0.000251096 5.49062e+07 -0.000345754 1.53199e+08)
(2.72229e+08 -2.55011e+07 -0.000203589 5.50044e+07 -0.000300273 1.50495e+08)
(2.76098e+08 -2.07591e+07 -0.000173263 5.70075e+07 -0.00015886 1.52662e+08)
(2.75098e+08 -2.5187e+07 -0.000348025 5.69322e+07 -0.000205549 1.49491e+08)
(2.79056e+08 -1.97802e+07 -0.000414459 5.89291e+07 -0.000145061 1.51655e+08)
(2.77552e+08 -2.46264e+07 -0.00052371 5.85148e+07 -0.000271211 1.47931e+08)
(2.81708e+08 -1.8553e+07 -0.000617352 6.06573e+07 -0.000184636 1.50199e+08)
(2.79544e+08 -2.37833e+07 -0.000319693 5.96898e+07 -0.000267393 1.45844e+08)
(2.84045e+08 -1.70654e+07 -0.000473777 6.21866e+07 -5.75275e-05 1.48353e+08)
(2.81037e+08 -2.26242e+07 -0.00011597 6.04118e+07 -3.35018e-05 1.43227e+08)
(2.86034e+08 -1.53001e+07 -0.000169647 6.34989e+07 0.000184587 1.46101e+08)
(2.82032e+08 -2.11422e+07 0.000101101 6.06655e+07 9.84175e-05 1.40215e+08)
(2.8768e+08 -1.32741e+07 6.77349e-05 6.45979e+07 0.000152044 1.43586e+08)
(2.82532e+08 -1.93304e+07 -0.000101973 6.04627e+07 9.95128e-05 1.36833e+08)
(2.8895e+08 -1.09919e+07 -0.000117766 6.54671e+07 6.70342e-05 1.40785e+08)
(2.82588e+08 -1.72234e+07 -0.000266124 5.98478e+07 -2.6284e-05 1.33257e+08)
(2.89865e+08 -8.49451e+06 -0.000168348 6.61165e+07 -3.77318e-05 1.37861e+08)
(2.82248e+08 -1.48451e+07 -0.000124268 5.88878e+07 -0.000277374 1.29544e+08)
(2.90405e+08 -5.81571e+06 9.78673e-05 6.65381e+07 -0.000286895 1.34806e+08)
(2.8158e+08 -1.22591e+07 6.0428e-05 5.76611e+07 -0.000413467 1.25821e+08)
(2.906e+08 -2.99755e+06 0.000165618 6.67463e+07 -0.000341083 1.31735e+08)
(2.80657e+08 -9.50811e+06 0.00020637 5.62589e+07 -0.000403556 1.22169e+08)
(2.90447e+08 -97133.5 0.00033219 6.67333e+07 -0.000336249 1.28661e+08)
(2.79536e+08 -6.65025e+06 0.000272469 5.4756e+07 -0.000327965 1.18625e+08)
(2.89979e+08 2.86206e+06 1.45303e-05 6.6525e+07 -0.000221049 1.25625e+08)
(2.78273e+08 -3.74678e+06 -0.000154566 5.32108e+07 -0.000258907 1.15257e+08)
(2.892e+08 5.81712e+06 -0.00017173 6.60992e+07 -9.58207e-05 1.22648e+08)
(2.76916e+08 -813368 -0.000111726 5.16941e+07 -0.000106623 1.12038e+08)
(2.88142e+08 8.76641e+06 -7.99297e-05 6.54953e+07 -3.65244e-05 1.1971e+08)
(2.75486e+08 2.09273e+06 -4.16265e-05 5.02156e+07 -8.63585e-06 1.08994e+08)