/*--------------------------------*- C++ -*----------------------------------*\
| =========                 |                                                 |
| \\      /  F ield         | OpenFOAM: The Open Source CFD Toolbox           |
|  \\    /   O peration     | Version:  v2012                                 |
|   \\  /    A nd           | Website:  www.openfoam.com                      |
|    \\/     M anipulation  |                                                 |
\*---------------------------------------------------------------------------*/
FoamFile
{
    version     2.0;
    format      ascii;
    class       volScalarField;
    location    "12";
    object      sigmaHyd;
}
// * * * * * * * * * * * * * * * * * * * * * * * * * * * * * * * * * * * * * //

dimensions      [1 -1 -2 0 0 0 0];


internalField   nonuniform List<scalar> 
32000
(
9.08324e+07
9.05119e+07
9.58979e+07
9.45551e+07
1.01041e+08
9.8291e+07
1.06114e+08
1.01909e+08
1.11054e+08
1.05469e+08
1.15838e+08
1.08991e+08
1.20462e+08
1.12477e+08
1.24928e+08
1.15929e+08
1.29241e+08
1.19341e+08
1.33408e+08
1.22709e+08
1.37437e+08
1.26026e+08
1.41329e+08
1.29289e+08
1.45085e+08
1.32495e+08
1.48707e+08
1.35636e+08
1.52201e+08
1.38709e+08
1.55559e+08
1.41714e+08
1.58775e+08
1.44638e+08
1.61857e+08
1.47468e+08
1.64781e+08
1.50202e+08
1.67534e+08
1.52819e+08
1.70118e+08
1.55297e+08
1.72495e+08
1.5763e+08
1.74641e+08
1.59778e+08
1.76548e+08
1.61716e+08
1.7816e+08
1.63433e+08
1.79463e+08
1.64865e+08
1.80417e+08
1.66005e+08
1.80969e+08
1.66812e+08
1.81143e+08
1.67255e+08
1.80861e+08
1.67344e+08
1.80153e+08
1.67038e+08
1.79001e+08
1.6638e+08
1.77417e+08
1.65363e+08
1.75453e+08
1.64045e+08
1.73113e+08
1.62459e+08
1.70485e+08
1.60658e+08
1.67586e+08
1.58682e+08
1.64471e+08
1.56559e+08
1.61188e+08
1.53721e+08
1.56296e+08
1.49918e+08
9.14973e+07
9.0462e+07
9.60107e+07
9.50166e+07
1.00645e+08
9.91838e+07
1.05281e+08
1.0313e+08
1.09881e+08
1.0692e+08
1.14419e+08
1.1059e+08
1.18881e+08
1.14162e+08
1.23249e+08
1.17651e+08
1.27514e+08
1.21069e+08
1.31666e+08
1.24421e+08
1.357e+08
1.27708e+08
1.39611e+08
1.30934e+08
1.43397e+08
1.34101e+08
1.4705e+08
1.37211e+08
1.50569e+08
1.40255e+08
1.53943e+08
1.43228e+08
1.5717e+08
1.4613e+08
1.60236e+08
1.48937e+08
1.63133e+08
1.51636e+08
1.6585e+08
1.54219e+08
1.68363e+08
1.56645e+08
1.7066e+08
1.58895e+08
1.72714e+08
1.60948e+08
1.74501e+08
1.62743e+08
1.76001e+08
1.64263e+08
1.77171e+08
1.65467e+08
1.78006e+08
1.66305e+08
1.78474e+08
1.66782e+08
1.78553e+08
1.66841e+08
1.78252e+08
1.66516e+08
1.77544e+08
1.65789e+08
1.76462e+08
1.64717e+08
1.75004e+08
1.63324e+08
1.73209e+08
1.61677e+08
1.71109e+08
1.59832e+08
1.68746e+08
1.57848e+08
1.66172e+08
1.55792e+08
1.63465e+08
1.53756e+08
1.59914e+08
1.51344e+08
1.55602e+08
1.48322e+08
9.17687e+07
9.10383e+07
9.59287e+07
9.57617e+07
1.00256e+08
1.00161e+08
1.04622e+08
1.04317e+08
1.08984e+08
1.0828e+08
1.13318e+08
1.12081e+08
1.17611e+08
1.15747e+08
1.2185e+08
1.19298e+08
1.26018e+08
1.22747e+08
1.30101e+08
1.26108e+08
1.34088e+08
1.29393e+08
1.37971e+08
1.32609e+08
1.4174e+08
1.35759e+08
1.45379e+08
1.38846e+08
1.48877e+08
1.41871e+08
1.52228e+08
1.44817e+08
1.55415e+08
1.47676e+08
1.58424e+08
1.50438e+08
1.61243e+08
1.53073e+08
1.63857e+08
1.5555e+08
1.66242e+08
1.57855e+08
1.68383e+08
1.59931e+08
1.70259e+08
1.6174e+08
1.7184e+08
1.63257e+08
1.73125e+08
1.64408e+08
1.74078e+08
1.65187e+08
1.74687e+08
1.65542e+08
1.74956e+08
1.65476e+08
1.7486e+08
1.64989e+08
1.74428e+08
1.64104e+08
1.73645e+08
1.62872e+08
1.72555e+08
1.61338e+08
1.71157e+08
1.59579e+08
1.69499e+08
1.57651e+08
1.67597e+08
1.55627e+08
1.65483e+08
1.53563e+08
1.63164e+08
1.51509e+08
1.60598e+08
1.49465e+08
1.57535e+08
1.47382e+08
1.53595e+08
1.44912e+08
9.15762e+07
9.19259e+07
9.567e+07
9.66807e+07
9.98416e+07
1.01198e+08
1.04041e+08
1.05491e+08
1.08238e+08
1.09581e+08
1.1242e+08
1.13494e+08
1.16571e+08
1.17252e+08
1.20678e+08
1.20872e+08
1.2473e+08
1.24372e+08
1.28714e+08
1.27769e+08
1.32616e+08
1.31076e+08
1.36422e+08
1.34308e+08
1.40116e+08
1.37465e+08
1.43684e+08
1.40549e+08
1.47105e+08
1.43549e+08
1.50362e+08
1.46464e+08
1.53441e+08
1.49269e+08
1.56327e+08
1.51936e+08
1.58993e+08
1.54441e+08
1.61424e+08
1.56747e+08
1.63609e+08
1.58798e+08
1.65511e+08
1.60564e+08
1.67126e+08
1.61986e+08
1.68439e+08
1.6301e+08
1.69421e+08
1.63623e+08
1.70095e+08
1.63766e+08
1.70426e+08
1.63479e+08
1.7045e+08
1.62741e+08
1.70152e+08
1.61632e+08
1.69568e+08
1.60176e+08
1.68708e+08
1.58476e+08
1.67602e+08
1.56578e+08
1.66271e+08
1.54572e+08
1.64737e+08
1.52507e+08
1.63016e+08
1.50441e+08
1.61115e+08
1.48391e+08
1.59028e+08
1.46383e+08
1.56809e+08
1.44404e+08
1.54566e+08
1.42603e+08
1.51234e+08
1.40701e+08
9.11943e+07
9.28946e+07
9.53158e+07
9.76611e+07
9.94166e+07
1.02247e+08
1.03509e+08
1.06636e+08
1.0759e+08
1.10832e+08
1.11651e+08
1.14846e+08
1.15679e+08
1.18695e+08
1.19662e+08
1.22393e+08
1.2359e+08
1.25962e+08
1.27452e+08
1.29419e+08
1.31234e+08
1.32776e+08
1.34918e+08
1.36042e+08
1.38485e+08
1.39215e+08
1.4191e+08
1.42296e+08
1.45177e+08
1.45271e+08
1.4827e+08
1.4812e+08
1.51163e+08
1.5081e+08
1.53829e+08
1.5332e+08
1.56263e+08
1.55595e+08
1.58435e+08
1.5758e+08
1.60319e+08
1.59243e+08
1.61922e+08
1.60507e+08
1.63213e+08
1.61333e+08
1.64188e+08
1.61693e+08
1.64862e+08
1.61559e+08
1.65211e+08
1.60971e+08
1.65288e+08
1.59943e+08
1.65068e+08
1.58564e+08
1.64614e+08
1.56893e+08
1.63917e+08
1.55021e+08
1.63027e+08
1.53029e+08
1.61947e+08
1.50972e+08
1.6071e+08
1.48914e+08
1.59316e+08
1.46883e+08
1.57782e+08
1.44899e+08
1.56112e+08
1.42965e+08
1.54338e+08
1.41084e+08
1.52464e+08
1.39282e+08
1.50357e+08
1.37443e+08
1.48309e+08
1.35782e+08
9.08399e+07
9.38001e+07
9.49728e+07
9.85999e+07
9.9027e+07
1.03247e+08
1.03041e+08
1.07721e+08
1.07025e+08
1.12015e+08
1.10974e+08
1.16132e+08
1.14877e+08
1.20082e+08
1.1873e+08
1.23879e+08
1.22522e+08
1.2754e+08
1.26239e+08
1.31078e+08
1.29862e+08
1.34498e+08
1.3337e+08
1.37802e+08
1.36741e+08
1.4099e+08
1.3996e+08
1.44045e+08
1.43002e+08
1.46945e+08
1.45842e+08
1.49656e+08
1.48456e+08
1.52149e+08
1.50834e+08
1.54365e+08
1.52946e+08
1.56245e+08
1.5477e+08
1.57747e+08
1.56313e+08
1.58794e+08
1.57548e+08
1.5935e+08
1.5848e+08
1.59395e+08
1.59122e+08
1.58925e+08
1.5947e+08
1.57997e+08
1.59566e+08
1.56664e+08
1.5941e+08
1.55023e+08
1.59046e+08
1.53168e+08
1.58494e+08
1.51176e+08
1.57767e+08
1.49141e+08
1.56908e+08
1.47104e+08
1.55908e+08
1.45104e+08
1.54793e+08
1.43164e+08
1.53563e+08
1.41288e+08
1.52233e+08
1.39468e+08
1.50805e+08
1.37702e+08
1.49293e+08
1.35979e+08
1.47667e+08
1.34277e+08
1.46063e+08
1.32653e+08
1.44293e+08
1.31034e+08
9.06528e+07
9.45648e+07
9.47392e+07
9.94216e+07
9.87344e+07
1.0414e+08
1.02667e+08
1.08704e+08
1.06545e+08
1.13104e+08
1.10366e+08
1.17338e+08
1.14129e+08
1.21412e+08
1.17828e+08
1.25334e+08
1.21451e+08
1.29108e+08
1.24977e+08
1.32737e+08
1.28386e+08
1.3622e+08
1.31661e+08
1.39551e+08
1.34779e+08
1.42711e+08
1.37717e+08
1.45675e+08
1.40451e+08
1.48406e+08
1.4296e+08
1.50866e+08
1.4523e+08
1.52994e+08
1.47235e+08
1.54729e+08
1.48957e+08
1.56014e+08
1.50398e+08
1.56787e+08
1.51548e+08
1.57007e+08
1.52407e+08
1.56685e+08
1.53001e+08
1.55841e+08
1.53331e+08
1.54566e+08
1.53442e+08
1.52943e+08
1.53341e+08
1.51085e+08
1.53063e+08
1.49105e+08
1.52639e+08
1.47072e+08
1.52071e+08
1.45059e+08
1.51395e+08
1.43104e+08
1.50612e+08
1.4122e+08
1.49724e+08
1.39411e+08
1.48748e+08
1.37674e+08
1.47688e+08
1.35992e+08
1.4655e+08
1.3435e+08
1.45333e+08
1.32751e+08
1.44051e+08
1.31174e+08
1.42754e+08
1.29635e+08
1.41356e+08
1.28119e+08
1.39929e+08
1.26641e+08
9.07051e+07
9.51669e+07
9.46877e+07
1.00092e+08
9.85857e+07
1.04893e+08
1.02403e+08
1.09557e+08
1.06142e+08
1.14078e+08
1.09804e+08
1.18451e+08
1.13391e+08
1.2267e+08
1.16893e+08
1.26731e+08
1.20292e+08
1.30625e+08
1.23569e+08
1.34341e+08
1.26706e+08
1.37862e+08
1.29681e+08
1.41164e+08
1.32472e+08
1.44213e+08
1.35057e+08
1.4697e+08
1.37418e+08
1.49385e+08
1.39536e+08
1.514e+08
1.41394e+08
1.52949e+08
1.42979e+08
1.53964e+08
1.44285e+08
1.54402e+08
1.45321e+08
1.54237e+08
1.46088e+08
1.53511e+08
1.46622e+08
1.52281e+08
1.46927e+08
1.5068e+08
1.47053e+08
1.48816e+08
1.47005e+08
1.46818e+08
1.46815e+08
1.44794e+08
1.46512e+08
1.42799e+08
1.46096e+08
1.40879e+08
1.45578e+08
1.39057e+08
1.4498e+08
1.37328e+08
1.44295e+08
1.35676e+08
1.43527e+08
1.34086e+08
1.4269e+08
1.32548e+08
1.41785e+08
1.3104e+08
1.40816e+08
1.29563e+08
1.39804e+08
1.28104e+08
1.38745e+08
1.26677e+08
1.37626e+08
1.25264e+08
1.36489e+08
1.23871e+08
1.35295e+08
1.22507e+08
9.10161e+07
9.56315e+07
9.48499e+07
1.00621e+08
9.85997e+07
1.05502e+08
1.02253e+08
1.10272e+08
1.05807e+08
1.14924e+08
1.09264e+08
1.19444e+08
1.12621e+08
1.23813e+08
1.15861e+08
1.28008e+08
1.18969e+08
1.32001e+08
1.21928e+08
1.35761e+08
1.24719e+08
1.39247e+08
1.27323e+08
1.42415e+08
1.29722e+08
1.45215e+08
1.31896e+08
1.47588e+08
1.33826e+08
1.49474e+08
1.35503e+08
1.50802e+08
1.36917e+08
1.51509e+08
1.38065e+08
1.51561e+08
1.38964e+08
1.50978e+08
1.39632e+08
1.49828e+08
1.40094e+08
1.48241e+08
1.40379e+08
1.46367e+08
1.40519e+08
1.44342e+08
1.40525e+08
1.42299e+08
1.40426e+08
1.40318e+08
1.40234e+08
1.38434e+08
1.3995e+08
1.36665e+08
1.3958e+08
1.35012e+08
1.39139e+08
1.33453e+08
1.38622e+08
1.31965e+08
1.38033e+08
1.30527e+08
1.37378e+08
1.29121e+08
1.36667e+08
1.27742e+08
1.35904e+08
1.26383e+08
1.35096e+08
1.25041e+08
1.34251e+08
1.23712e+08
1.33356e+08
1.22403e+08
1.32431e+08
1.21108e+08
1.31469e+08
1.19834e+08
1.30491e+08
1.18574e+08
9.15584e+07
9.60262e+07
9.52007e+07
1.01059e+08
9.87491e+07
1.06011e+08
1.02184e+08
1.10876e+08
1.055e+08
1.15644e+08
1.08694e+08
1.20287e+08
1.11753e+08
1.24769e+08
1.14663e+08
1.29046e+08
1.17408e+08
1.33064e+08
1.19976e+08
1.36764e+08
1.22353e+08
1.40081e+08
1.24524e+08
1.4295e+08
1.26472e+08
1.453e+08
1.28184e+08
1.47058e+08
1.29644e+08
1.48152e+08
1.30854e+08
1.48525e+08
1.31823e+08
1.48174e+08
1.32567e+08
1.4716e+08
1.33124e+08
1.4562e+08
1.33514e+08
1.43734e+08
1.33782e+08
1.41675e+08
1.33937e+08
1.396e+08
1.34001e+08
1.37612e+08
1.33988e+08
1.35756e+08
1.33895e+08
1.34041e+08
1.33727e+08
1.32458e+08
1.33484e+08
1.3099e+08
1.33174e+08
1.29604e+08
1.32798e+08
1.28274e+08
1.32359e+08
1.26976e+08
1.31859e+08
1.25697e+08
1.31306e+08
1.24432e+08
1.30713e+08
1.23184e+08
1.30079e+08
1.21945e+08
1.29405e+08
1.20718e+08
1.2869e+08
1.19503e+08
1.27954e+08
1.18293e+08
1.27179e+08
1.17111e+08
1.26385e+08
1.15938e+08
1.25561e+08
1.1479e+08
9.22507e+07
9.64518e+07
9.56675e+07
1.01503e+08
9.89651e+07
1.06492e+08
1.02132e+08
1.11411e+08
1.05157e+08
1.16234e+08
1.08027e+08
1.20922e+08
1.10726e+08
1.25416e+08
1.13239e+08
1.29648e+08
1.15558e+08
1.33539e+08
1.17674e+08
1.37002e+08
1.19577e+08
1.39948e+08
1.21256e+08
1.42289e+08
1.22702e+08
1.43936e+08
1.23909e+08
1.44805e+08
1.2488e+08
1.44851e+08
1.25633e+08
1.44107e+08
1.26208e+08
1.42709e+08
1.26638e+08
1.40857e+08
1.26965e+08
1.38779e+08
1.27211e+08
1.36672e+08
1.27389e+08
1.34669e+08
1.27512e+08
1.32832e+08
1.27573e+08
1.3117e+08
1.27567e+08
1.29664e+08
1.27495e+08
1.28283e+08
1.27358e+08
1.27e+08
1.2716e+08
1.25778e+08
1.26901e+08
1.2459e+08
1.26584e+08
1.23418e+08
1.26215e+08
1.22252e+08
1.25798e+08
1.21092e+08
1.25341e+08
1.19945e+08
1.24851e+08
1.18802e+08
1.24323e+08
1.17667e+08
1.23761e+08
1.16539e+08
1.2317e+08
1.15418e+08
1.22552e+08
1.14311e+08
1.21915e+08
1.13219e+08
1.21252e+08
1.12151e+08
1.20573e+08
1.11097e+08
9.29716e+07
9.7022e+07
9.6132e+07
1.0206e+08
9.91457e+07
1.07031e+08
1.02003e+08
1.11919e+08
1.04691e+08
1.1668e+08
1.07187e+08
1.21258e+08
1.09473e+08
1.25579e+08
1.11542e+08
1.29552e+08
1.13387e+08
1.33076e+08
1.15003e+08
1.36041e+08
1.16383e+08
1.38342e+08
1.17522e+08
1.39865e+08
1.18421e+08
1.40513e+08
1.19099e+08
1.40254e+08
1.196e+08
1.39176e+08
1.19971e+08
1.37488e+08
1.20265e+08
1.35471e+08
1.20515e+08
1.33379e+08
1.20743e+08
1.31388e+08
1.20948e+08
1.29591e+08
1.21117e+08
1.28003e+08
1.21236e+08
1.26594e+08
1.213e+08
1.25322e+08
1.21309e+08
1.24147e+08
1.21261e+08
1.23039e+08
1.21157e+08
1.21964e+08
1.20994e+08
1.20902e+08
1.2078e+08
1.19843e+08
1.20518e+08
1.18778e+08
1.20215e+08
1.17715e+08
1.19875e+08
1.1666e+08
1.195e+08
1.15605e+08
1.19094e+08
1.14553e+08
1.18654e+08
1.13504e+08
1.18191e+08
1.12462e+08
1.17702e+08
1.11432e+08
1.17189e+08
1.10413e+08
1.16662e+08
1.09411e+08
1.16115e+08
1.08429e+08
1.15552e+08
1.07463e+08
9.35727e+07
9.78337e+07
9.64572e+07
1.02812e+08
9.91664e+07
1.07681e+08
1.0169e+08
1.12404e+08
1.04008e+08
1.16921e+08
1.06098e+08
1.21164e+08
1.07948e+08
1.25039e+08
1.09544e+08
1.28446e+08
1.1088e+08
1.31272e+08
1.1195e+08
1.33404e+08
1.12754e+08
1.3471e+08
1.13304e+08
1.35079e+08
1.13644e+08
1.34498e+08
1.1384e+08
1.33141e+08
1.13973e+08
1.31301e+08
1.14106e+08
1.29317e+08
1.14272e+08
1.2743e+08
1.14469e+08
1.25761e+08
1.14676e+08
1.24334e+08
1.14869e+08
1.23102e+08
1.15029e+08
1.22001e+08
1.15148e+08
1.20984e+08
1.15223e+08
1.20019e+08
1.15248e+08
1.19084e+08
1.15217e+08
1.1815e+08
1.15134e+08
1.17205e+08
1.15005e+08
1.16247e+08
1.14831e+08
1.15275e+08
1.14622e+08
1.14301e+08
1.1438e+08
1.13331e+08
1.14102e+08
1.12354e+08
1.13796e+08
1.11378e+08
1.13458e+08
1.104e+08
1.13098e+08
1.09429e+08
1.12716e+08
1.08469e+08
1.12311e+08
1.07517e+08
1.11889e+08
1.06581e+08
1.11449e+08
1.05658e+08
1.10998e+08
1.04753e+08
1.10535e+08
1.03866e+08
9.39055e+07
9.89232e+07
9.6508e+07
1.03773e+08
9.89048e+07
1.0842e+08
1.01084e+08
1.12801e+08
1.03023e+08
1.16841e+08
1.04702e+08
1.20456e+08
1.06097e+08
1.2355e+08
1.07199e+08
1.2602e+08
1.0799e+08
1.27762e+08
1.08463e+08
1.28637e+08
1.08646e+08
1.28534e+08
1.08611e+08
1.275e+08
1.08471e+08
1.25844e+08
1.08347e+08
1.2395e+08
1.08306e+08
1.22197e+08
1.08365e+08
1.20738e+08
1.08503e+08
1.19593e+08
1.08681e+08
1.18695e+08
1.08863e+08
1.17933e+08
1.09026e+08
1.17224e+08
1.09169e+08
1.16524e+08
1.09281e+08
1.15813e+08
1.09355e+08
1.15082e+08
1.0938e+08
1.14304e+08
1.0936e+08
1.13486e+08
1.093e+08
1.12635e+08
1.09202e+08
1.11752e+08
1.09076e+08
1.10862e+08
1.08918e+08
1.09971e+08
1.08721e+08
1.09061e+08
1.08497e+08
1.08154e+08
1.08241e+08
1.07238e+08
1.07967e+08
1.0633e+08
1.07672e+08
1.05433e+08
1.07353e+08
1.04541e+08
1.07021e+08
1.03665e+08
1.06667e+08
1.02797e+08
1.06303e+08
1.01947e+08
1.05933e+08
1.01111e+08
1.05554e+08
1.00295e+08
9.38522e+07
1.00225e+08
9.61794e+07
1.04841e+08
9.82702e+07
1.09107e+08
1.00108e+08
1.12939e+08
1.01669e+08
1.16244e+08
1.02924e+08
1.18926e+08
1.03841e+08
1.20883e+08
1.04396e+08
1.22035e+08
1.0457e+08
1.22208e+08
1.044e+08
1.21326e+08
1.04e+08
1.19568e+08
1.03555e+08
1.1746e+08
1.03203e+08
1.15473e+08
1.03014e+08
1.14029e+08
1.02961e+08
1.13104e+08
1.03006e+08
1.12586e+08
1.03101e+08
1.12318e+08
1.03207e+08
1.1213e+08
1.0332e+08
1.11919e+08
1.03438e+08
1.11646e+08
1.0355e+08
1.11292e+08
1.03642e+08
1.10853e+08
1.03694e+08
1.10299e+08
1.03717e+08
1.09661e+08
1.0371e+08
1.08955e+08
1.03671e+08
1.08186e+08
1.03614e+08
1.07396e+08
1.03524e+08
1.06592e+08
1.03392e+08
1.05749e+08
1.03241e+08
1.04907e+08
1.03052e+08
1.04045e+08
1.02851e+08
1.03193e+08
1.02628e+08
1.0235e+08
1.0238e+08
1.01507e+08
1.02121e+08
1.00684e+08
1.01838e+08
9.9863e+07
1.01547e+08
9.90587e+07
1.0125e+08
9.82692e+07
1.00947e+08
9.74984e+07
1.00641e+08
9.67502e+07
9.33533e+07
1.01549e+08
9.54184e+07
1.05779e+08
9.72106e+07
1.09481e+08
9.87032e+07
1.12546e+08
9.98563e+07
1.14864e+08
1.00629e+08
1.16325e+08
1.00975e+08
1.16827e+08
1.00863e+08
1.16162e+08
1.00364e+08
1.14228e+08
9.9662e+07
1.1145e+08
9.9016e+07
1.08691e+08
9.8548e+07
1.06492e+08
9.83186e+07
1.05224e+08
9.81856e+07
1.04669e+08
9.81261e+07
1.04648e+08
9.80985e+07
1.04903e+08
9.80744e+07
1.05227e+08
9.80692e+07
1.05543e+08
9.80947e+07
1.05804e+08
9.81398e+07
1.05957e+08
9.81896e+07
1.05975e+08
9.82164e+07
1.05793e+08
9.82436e+07
1.0547e+08
9.82575e+07
1.05025e+08
9.82538e+07
1.04459e+08
9.82489e+07
1.03842e+08
9.82139e+07
1.03172e+08
9.81342e+07
1.02423e+08
9.80464e+07
1.01666e+08
9.79153e+07
1.00863e+08
9.77807e+07
1.00067e+08
9.76219e+07
9.92707e+07
9.74354e+07
9.84655e+07
9.72434e+07
9.768e+07
9.7022e+07
9.68908e+07
9.67955e+07
9.61198e+07
9.65577e+07
9.53639e+07
9.63166e+07
9.46272e+07
9.60729e+07
9.39146e+07
9.58179e+07
9.32177e+07
9.2411e+07
1.02592e+08
9.42143e+07
1.0625e+08
9.56842e+07
1.09186e+08
9.67677e+07
1.11262e+08
9.74004e+07
1.12338e+08
9.75214e+07
1.12328e+08
9.70928e+07
1.10794e+08
9.62429e+07
1.0783e+08
9.53168e+07
1.03972e+08
9.4647e+07
1.00574e+08
9.42564e+07
9.80879e+07
9.41427e+07
9.69712e+07
9.40564e+07
9.65612e+07
9.39823e+07
9.65753e+07
9.384e+07
9.68222e+07
9.3657e+07
9.72308e+07
9.35005e+07
9.77812e+07
9.33787e+07
9.84287e+07
9.32741e+07
9.91054e+07
9.31873e+07
9.97093e+07
9.30898e+07
1.00097e+08
9.30451e+07
1.00311e+08
9.30167e+07
1.00325e+08
9.29917e+07
1.00164e+08
9.30022e+07
9.98949e+07
9.29911e+07
9.95041e+07
9.29412e+07
9.89451e+07
9.29092e+07
9.83531e+07
9.28235e+07
9.76608e+07
9.27534e+07
9.69568e+07
9.26551e+07
9.62259e+07
9.25256e+07
9.54646e+07
9.2398e+07
9.47174e+07
9.223e+07
9.39521e+07
9.20627e+07
9.32037e+07
9.18804e+07
9.24654e+07
9.1695e+07
9.17458e+07
9.15068e+07
9.10512e+07
9.13029e+07
9.03708e+07
9.10937e+07
8.97091e+07
9.10558e+07
1.03004e+08
9.25423e+07
1.05877e+08
9.35782e+07
1.07794e+08
9.4071e+07
1.08592e+08
9.39509e+07
1.08113e+08
9.31464e+07
1.05846e+08
9.20223e+07
1.01574e+08
9.10708e+07
9.69988e+07
9.10033e+07
9.43347e+07
9.16239e+07
9.36408e+07
9.18774e+07
9.3398e+07
9.20642e+07
9.33018e+07
9.20387e+07
9.31789e+07
9.19753e+07
9.30633e+07
9.19472e+07
9.29816e+07
9.18442e+07
9.28985e+07
9.16036e+07
9.28022e+07
9.12578e+07
9.27287e+07
9.0841e+07
9.27328e+07
9.04506e+07
9.29818e+07
8.99719e+07
9.33546e+07
8.94275e+07
9.37698e+07
8.90018e+07
9.42387e+07
8.8723e+07
9.46458e+07
8.8491e+07
9.48332e+07
8.82736e+07
9.47685e+07
8.8173e+07
9.45502e+07
8.80252e+07
9.41428e+07
8.79506e+07
9.36744e+07
8.78573e+07
9.31178e+07
8.77446e+07
9.24729e+07
8.76574e+07
9.18176e+07
8.75194e+07
9.11058e+07
8.73989e+07
9.0396e+07
8.7261e+07
8.9678e+07
8.71245e+07
8.8968e+07
8.69871e+07
8.82781e+07
8.68278e+07
8.75964e+07
8.66627e+07
8.69313e+07
8.65051e+07
8.62927e+07
8.9263e+07
1.02452e+08
9.02747e+07
1.04223e+08
9.06646e+07
1.04706e+08
9.03501e+07
1.03833e+08
8.93577e+07
1.00158e+08
8.83728e+07
9.49006e+07
8.89905e+07
9.21319e+07
9.01844e+07
9.16465e+07
9.04074e+07
9.14324e+07
9.02228e+07
9.11799e+07
8.9988e+07
9.09897e+07
8.98019e+07
9.08178e+07
8.96699e+07
9.06458e+07
8.95521e+07
9.04782e+07
8.94319e+07
9.03056e+07
8.93107e+07
9.01138e+07
8.91871e+07
8.99029e+07
8.90626e+07
8.9684e+07
8.89519e+07
8.94743e+07
8.88265e+07
8.92598e+07
8.87091e+07
8.90966e+07
8.84474e+07
8.89488e+07
8.79074e+07
8.87756e+07
8.72689e+07
8.8739e+07
8.6672e+07
8.89686e+07
8.5918e+07
8.91082e+07
8.52027e+07
8.92993e+07
8.47286e+07
8.94103e+07
8.4318e+07
8.93175e+07
8.39578e+07
8.90623e+07
8.37269e+07
8.86724e+07
8.34634e+07
8.81486e+07
8.32715e+07
8.75896e+07
8.30794e+07
8.69788e+07
8.29167e+07
8.63366e+07
8.27729e+07
8.56871e+07
8.261e+07
8.50233e+07
8.24508e+07
8.43597e+07
8.23087e+07
8.37113e+07
8.21835e+07
8.30855e+07
8.68991e+07
1.00511e+08
8.7292e+07
1.00614e+08
8.70404e+07
9.89811e+07
8.62836e+07
9.41039e+07
8.7233e+07
9.04433e+07
8.90978e+07
8.99688e+07
8.90108e+07
8.95738e+07
8.8587e+07
8.92729e+07
8.82308e+07
8.90035e+07
8.79592e+07
8.87454e+07
8.76954e+07
8.85126e+07
8.74655e+07
8.82964e+07
8.7271e+07
8.8087e+07
8.70967e+07
8.78792e+07
8.69371e+07
8.76678e+07
8.67923e+07
8.74486e+07
8.66581e+07
8.72218e+07
8.65284e+07
8.69905e+07
8.63965e+07
8.67542e+07
8.62674e+07
8.65121e+07
8.61114e+07
8.62544e+07
8.59348e+07
8.59647e+07
8.57613e+07
8.56574e+07
8.55642e+07
8.53587e+07
8.53201e+07
8.50661e+07
8.51021e+07
8.48807e+07
8.45679e+07
8.46127e+07
8.38957e+07
8.44686e+07
8.32141e+07
8.44808e+07
8.24056e+07
8.43716e+07
8.16047e+07
8.43048e+07
8.1012e+07
8.41522e+07
8.04794e+07
8.38748e+07
8.0047e+07
8.35219e+07
7.97018e+07
8.30786e+07
7.93742e+07
8.25442e+07
7.90845e+07
8.19761e+07
7.88426e+07
8.13972e+07
7.864e+07
8.08111e+07
7.84901e+07
8.0239e+07
8.40619e+07
9.63528e+07
8.43943e+07
9.40886e+07
8.51186e+07
8.91926e+07
8.76927e+07
8.82163e+07
8.7779e+07
8.78104e+07
8.72138e+07
8.74553e+07
8.67664e+07
8.71074e+07
8.63308e+07
8.67921e+07
8.59475e+07
8.65017e+07
8.56203e+07
8.62275e+07
8.53271e+07
8.59704e+07
8.50668e+07
8.57271e+07
8.48375e+07
8.54921e+07
8.4633e+07
8.52616e+07
8.4449e+07
8.50324e+07
8.42818e+07
8.48022e+07
8.41262e+07
8.45696e+07
8.3976e+07
8.43337e+07
8.38273e+07
8.40928e+07
8.36762e+07
8.38426e+07
8.35211e+07
8.35791e+07
8.33678e+07
8.33016e+07
8.32106e+07
8.30125e+07
8.30372e+07
8.27151e+07
8.2852e+07
8.24138e+07
8.26084e+07
8.20887e+07
8.23886e+07
8.17359e+07
8.21197e+07
8.13778e+07
8.17949e+07
8.10203e+07
8.15084e+07
8.07596e+07
8.10131e+07
8.04453e+07
8.04109e+07
8.02433e+07
7.97359e+07
8.00409e+07
7.89841e+07
7.97639e+07
7.82308e+07
7.95023e+07
7.75753e+07
7.92326e+07
7.70277e+07
7.89055e+07
7.65556e+07
7.85528e+07
7.61851e+07
7.8178e+07
7.58682e+07
7.77732e+07
8.21786e+07
8.89458e+07
8.50208e+07
8.62127e+07
8.64439e+07
8.59953e+07
8.60023e+07
8.56336e+07
8.54194e+07
8.52682e+07
8.4865e+07
8.49144e+07
8.43776e+07
8.45694e+07
8.39338e+07
8.4243e+07
8.35376e+07
8.39361e+07
8.31889e+07
8.36463e+07
8.2879e+07
8.33724e+07
8.26035e+07
8.31123e+07
8.23586e+07
8.28629e+07
8.21398e+07
8.26211e+07
8.19428e+07
8.23846e+07
8.17631e+07
8.21511e+07
8.15962e+07
8.19186e+07
8.14377e+07
8.16853e+07
8.12839e+07
8.14491e+07
8.11328e+07
8.12078e+07
8.09831e+07
8.09599e+07
8.08326e+07
8.07046e+07
8.06774e+07
8.04411e+07
8.05124e+07
8.01692e+07
8.03327e+07
7.98852e+07
8.01436e+07
7.9589e+07
7.99513e+07
7.92782e+07
7.97419e+07
7.89575e+07
7.95175e+07
7.86361e+07
7.92386e+07
7.83024e+07
7.89736e+07
7.79486e+07
7.86527e+07
7.75784e+07
7.82874e+07
7.7205e+07
7.79265e+07
7.68798e+07
7.7522e+07
7.65817e+07
7.70314e+07
7.63126e+07
7.64891e+07
7.607e+07
7.59005e+07
7.57888e+07
7.53131e+07
7.55428e+07
7.47482e+07
7.53288e+07
8.46764e+07
8.3839e+07
8.48493e+07
8.37667e+07
8.41145e+07
8.34952e+07
8.34913e+07
8.31243e+07
8.2896e+07
8.2733e+07
8.23458e+07
8.23496e+07
8.18525e+07
8.19819e+07
8.14093e+07
8.16351e+07
8.10136e+07
8.13102e+07
8.06624e+07
8.10057e+07
8.03506e+07
8.07199e+07
8.00734e+07
8.04504e+07
7.98267e+07
8.01946e+07
7.96064e+07
7.99498e+07
7.94082e+07
7.97137e+07
7.92283e+07
7.9484e+07
7.90626e+07
7.92584e+07
7.89076e+07
7.90351e+07
7.87603e+07
7.88123e+07
7.86182e+07
7.85884e+07
7.84789e+07
7.83621e+07
7.834e+07
7.81321e+07
7.81987e+07
7.78972e+07
7.80523e+07
7.76564e+07
7.79002e+07
7.74089e+07
7.77412e+07
7.71545e+07
7.75758e+07
7.68925e+07
7.73994e+07
7.66237e+07
7.7206e+07
7.63468e+07
7.69986e+07
7.60622e+07
7.67843e+07
7.57662e+07
7.65589e+07
7.54626e+07
7.63212e+07
7.51603e+07
7.60558e+07
7.48615e+07
7.57779e+07
7.45603e+07
7.54896e+07
7.42526e+07
7.51688e+07
7.39427e+07
7.48362e+07
7.36469e+07
7.45059e+07
7.33857e+07
7.42167e+07
7.31993e+07
8.37295e+07
8.19359e+07
8.25487e+07
8.15172e+07
8.16461e+07
8.10589e+07
8.09135e+07
8.0591e+07
8.02785e+07
8.01383e+07
7.97176e+07
7.97121e+07
7.92218e+07
7.93152e+07
7.87826e+07
7.89478e+07
7.83937e+07
7.86086e+07
7.805e+07
7.82948e+07
7.77462e+07
7.80037e+07
7.74775e+07
7.77325e+07
7.72396e+07
7.74784e+07
7.70284e+07
7.72385e+07
7.68399e+07
7.70103e+07
7.66704e+07
7.67914e+07
7.65165e+07
7.65797e+07
7.6375e+07
7.63733e+07
7.6243e+07
7.61704e+07
7.61182e+07
7.59697e+07
7.59979e+07
7.57696e+07
7.58802e+07
7.55691e+07
7.5763e+07
7.53669e+07
7.56447e+07
7.51624e+07
7.55237e+07
7.49549e+07
7.53989e+07
7.47442e+07
7.52691e+07
7.45295e+07
7.51327e+07
7.43107e+07
7.49888e+07
7.40878e+07
7.48373e+07
7.3861e+07
7.46807e+07
7.36306e+07
7.45172e+07
7.33981e+07
7.4343e+07
7.31649e+07
7.41573e+07
7.2932e+07
7.39651e+07
7.26988e+07
7.377e+07
7.24649e+07
7.35715e+07
7.22342e+07
7.33678e+07
7.20115e+07
7.31554e+07
7.17981e+07
7.29159e+07
7.15748e+07
8.15027e+07
7.95925e+07
8.01387e+07
7.89653e+07
7.91006e+07
7.83955e+07
7.82734e+07
7.78676e+07
7.75871e+07
7.738e+07
7.70038e+07
7.69324e+07
7.65017e+07
7.65231e+07
7.60663e+07
7.61495e+07
7.56872e+07
7.58085e+07
7.53566e+07
7.54968e+07
7.5068e+07
7.52111e+07
7.48158e+07
7.4948e+07
7.45953e+07
7.47046e+07
7.44021e+07
7.4478e+07
7.42323e+07
7.42656e+07
7.40824e+07
7.4065e+07
7.39491e+07
7.3874e+07
7.38295e+07
7.36909e+07
7.3721e+07
7.35138e+07
7.3621e+07
7.33413e+07
7.35276e+07
7.31721e+07
7.34388e+07
7.3005e+07
7.33528e+07
7.28392e+07
7.32683e+07
7.2674e+07
7.31839e+07
7.25086e+07
7.30984e+07
7.23428e+07
7.30111e+07
7.21761e+07
7.29211e+07
7.20085e+07
7.2828e+07
7.18401e+07
7.27316e+07
7.16714e+07
7.26319e+07
7.15027e+07
7.25284e+07
7.13346e+07
7.24207e+07
7.11679e+07
7.23089e+07
7.10037e+07
7.21949e+07
7.08428e+07
7.20806e+07
7.0686e+07
7.19654e+07
7.05349e+07
7.18481e+07
7.039e+07
7.1729e+07
7.02501e+07
7.16188e+07
7.01152e+07
7.85061e+07
7.68468e+07
7.7252e+07
7.61222e+07
7.62378e+07
7.54968e+07
7.54099e+07
7.49419e+07
7.47234e+07
7.44443e+07
7.41465e+07
7.39964e+07
7.3657e+07
7.35928e+07
7.3239e+07
7.32289e+07
7.28808e+07
7.29004e+07
7.25734e+07
7.26035e+07
7.23093e+07
7.23345e+07
7.20827e+07
7.209e+07
7.18883e+07
7.18668e+07
7.17217e+07
7.16622e+07
7.15791e+07
7.14735e+07
7.14569e+07
7.12984e+07
7.13521e+07
7.11348e+07
7.12619e+07
7.09808e+07
7.11837e+07
7.08348e+07
7.11155e+07
7.06954e+07
7.10553e+07
7.05614e+07
7.10013e+07
7.04316e+07
7.09521e+07
7.03052e+07
7.09063e+07
7.01816e+07
7.08628e+07
7.00602e+07
7.08207e+07
6.99406e+07
7.07794e+07
6.98226e+07
7.07383e+07
6.97062e+07
7.0697e+07
6.95915e+07
7.06552e+07
6.94789e+07
7.0613e+07
6.93686e+07
7.05704e+07
6.92613e+07
7.05276e+07
6.91575e+07
7.04851e+07
6.90583e+07
7.04438e+07
6.89645e+07
7.04047e+07
6.88769e+07
7.03687e+07
6.87966e+07
7.03372e+07
6.87247e+07
7.03134e+07
6.8663e+07
7.03012e+07
6.86147e+07
7.49973e+07
7.37468e+07
7.39327e+07
7.30057e+07
7.30318e+07
7.23732e+07
7.22762e+07
7.18227e+07
7.16426e+07
7.1338e+07
7.11097e+07
7.09086e+07
7.06601e+07
7.05269e+07
7.02804e+07
7.01871e+07
6.99595e+07
6.98842e+07
6.96887e+07
6.96139e+07
6.9461e+07
6.93724e+07
6.92703e+07
6.91563e+07
6.91116e+07
6.89625e+07
6.89804e+07
6.87881e+07
6.88732e+07
6.86306e+07
6.87865e+07
6.84878e+07
6.87173e+07
6.83577e+07
6.86632e+07
6.82385e+07
6.86219e+07
6.81286e+07
6.85912e+07
6.80267e+07
6.85695e+07
6.79316e+07
6.85552e+07
6.78424e+07
6.8547e+07
6.77582e+07
6.85437e+07
6.76784e+07
6.85444e+07
6.76025e+07
6.85483e+07
6.75303e+07
6.85549e+07
6.74614e+07
6.85636e+07
6.7396e+07
6.85743e+07
6.73341e+07
6.85867e+07
6.72759e+07
6.8601e+07
6.72219e+07
6.86173e+07
6.71725e+07
6.86359e+07
6.71283e+07
6.86575e+07
6.70902e+07
6.86826e+07
6.70589e+07
6.87122e+07
6.70355e+07
6.87477e+07
6.7021e+07
6.87902e+07
6.70171e+07
6.88414e+07
6.70255e+07
6.89025e+07
6.70485e+07
7.11319e+07
7.03481e+07
7.02718e+07
6.96435e+07
6.9524e+07
6.90423e+07
6.88844e+07
6.85237e+07
6.83423e+07
6.80728e+07
6.78853e+07
6.76788e+07
6.75017e+07
6.73335e+07
6.71812e+07
6.70306e+07
6.6915e+07
6.67648e+07
6.66956e+07
6.65318e+07
6.65166e+07
6.63275e+07
6.63728e+07
6.61487e+07
6.62595e+07
6.59922e+07
6.61726e+07
6.58555e+07
6.61087e+07
6.5736e+07
6.60648e+07
6.56317e+07
6.60381e+07
6.55407e+07
6.60262e+07
6.54613e+07
6.60272e+07
6.5392e+07
6.60392e+07
6.53315e+07
6.60605e+07
6.52789e+07
6.60899e+07
6.52331e+07
6.61262e+07
6.51935e+07
6.61683e+07
6.51595e+07
6.62154e+07
6.51305e+07
6.62669e+07
6.51064e+07
6.63223e+07
6.5087e+07
6.63812e+07
6.50722e+07
6.64434e+07
6.50622e+07
6.65088e+07
6.50572e+07
6.65775e+07
6.50575e+07
6.66497e+07
6.50636e+07
6.67257e+07
6.50761e+07
6.68059e+07
6.50956e+07
6.6891e+07
6.5123e+07
6.69818e+07
6.51592e+07
6.70789e+07
6.52053e+07
6.71834e+07
6.52625e+07
6.72958e+07
6.53322e+07
6.7417e+07
6.54159e+07
6.70036e+07
6.67031e+07
6.63468e+07
6.60683e+07
6.57677e+07
6.55265e+07
6.52672e+07
6.50622e+07
6.48412e+07
6.46632e+07
6.44834e+07
6.43194e+07
6.41863e+07
6.40234e+07
6.39431e+07
6.37686e+07
6.37471e+07
6.35501e+07
6.35925e+07
6.33634e+07
6.34743e+07
6.32048e+07
6.33878e+07
6.3071e+07
6.33292e+07
6.29591e+07
6.32949e+07
6.28665e+07
6.32819e+07
6.27911e+07
6.32875e+07
6.27307e+07
6.33093e+07
6.26837e+07
6.33453e+07
6.26485e+07
6.33935e+07
6.26237e+07
6.34525e+07
6.26082e+07
6.35208e+07
6.2601e+07
6.35972e+07
6.26013e+07
6.36807e+07
6.26083e+07
6.37704e+07
6.26216e+07
6.38656e+07
6.26407e+07
6.39658e+07
6.26655e+07
6.40705e+07
6.26956e+07
6.41793e+07
6.27312e+07
6.42922e+07
6.27723e+07
6.4409e+07
6.28191e+07
6.45298e+07
6.28719e+07
6.46547e+07
6.29312e+07
6.47841e+07
6.29975e+07
6.49182e+07
6.30714e+07
6.50574e+07
6.31535e+07
6.52024e+07
6.32448e+07
6.53535e+07
6.33461e+07
6.55114e+07
6.34583e+07
6.56766e+07
6.35823e+07
6.58494e+07
6.37192e+07
6.26755e+07
6.28572e+07
6.22171e+07
6.23131e+07
6.18115e+07
6.18505e+07
6.14615e+07
6.14579e+07
6.11662e+07
6.11253e+07
6.09227e+07
6.08445e+07
6.07272e+07
6.06085e+07
6.0575e+07
6.04116e+07
6.04619e+07
6.0249e+07
6.03837e+07
6.01166e+07
6.03364e+07
6.00109e+07
6.03165e+07
5.99288e+07
6.03208e+07
5.98675e+07
6.03466e+07
5.98248e+07
6.03912e+07
5.97985e+07
6.04523e+07
5.97868e+07
6.05281e+07
5.97881e+07
6.06168e+07
5.98009e+07
6.07167e+07
5.98241e+07
6.08264e+07
5.98566e+07
6.09449e+07
5.98974e+07
6.10711e+07
5.99458e+07
6.12041e+07
6.00012e+07
6.13432e+07
6.00631e+07
6.14877e+07
6.01312e+07
6.16371e+07
6.02052e+07
6.17912e+07
6.02849e+07
6.19496e+07
6.03704e+07
6.21122e+07
6.04617e+07
6.22788e+07
6.0559e+07
6.24495e+07
6.06626e+07
6.26244e+07
6.07729e+07
6.28037e+07
6.08903e+07
6.29876e+07
6.10153e+07
6.31763e+07
6.11485e+07
6.33703e+07
6.12907e+07
6.35699e+07
6.14423e+07
6.37754e+07
6.16043e+07
6.39873e+07
6.17772e+07
6.42059e+07
6.19616e+07
5.81943e+07
5.88492e+07
5.79288e+07
5.84092e+07
5.7697e+07
5.80393e+07
5.75021e+07
5.7731e+07
5.73452e+07
5.74764e+07
5.72256e+07
5.72686e+07
5.71415e+07
5.71018e+07
5.70904e+07
5.69708e+07
5.70698e+07
5.68715e+07
5.70768e+07
5.68001e+07
5.71087e+07
5.67534e+07
5.7163e+07
5.67286e+07
5.72373e+07
5.67232e+07
5.73294e+07
5.6735e+07
5.74374e+07
5.67623e+07
5.75594e+07
5.68032e+07
5.76938e+07
5.68564e+07
5.78393e+07
5.69205e+07
5.79945e+07
5.69945e+07
5.81583e+07
5.70774e+07
5.83297e+07
5.71684e+07
5.85079e+07
5.72668e+07
5.86922e+07
5.7372e+07
5.8882e+07
5.74836e+07
5.90767e+07
5.76012e+07