/*--------------------------------*- C++ -*----------------------------------*\
| =========                 |                                                 |
| \\      /  F ield         | OpenFOAM: The Open Source CFD Toolbox           |
|  \\    /   O peration     | Version:  v2012                                 |
|   \\  /    A nd           | Website:  www.openfoam.com                      |
|    \\/     M anipulation  |                                                 |
\*---------------------------------------------------------------------------*/
FoamFile
{
    version     2.0;
    format      ascii;
    class       volScalarField;
    location    "6";
    object      epsilonEq;
}
// * * * * * * * * * * * * * * * * * * * * * * * * * * * * * * * * * * * * * //

dimensions      [0 0 0 0 0 0 0];


internalField   nonuniform List<scalar> 
2000
(
0.00486445
0.00378827
0.00336722
0.00299457
0.00268594
0.00261864
0.00228615
0.00230295
0.00200613
0.00206172
0.00181704
0.0018814
0.00167884
0.0017427
0.00156875
0.00163118
0.00147553
0.00153592
0.00139209
0.0014432
0.00402014
0.00362422
0.00300807
0.00288359
0.00260925
0.00254519
0.00226976
0.0022663
0.00201958
0.00206114
0.0018397
0.00190649
0.00170513
0.00178425
0.00159885
0.00168403
0.00150913
0.00159785
0.00142626
0.00151215
0.00369772
0.0031337
0.0028664
0.00270631
0.00250645
0.00241344
0.00221969
0.00219324
0.00201343
0.00203419
0.00186313
0.0019144
0.00174812
0.00181917
0.0016556
0.00173985
0.00157666
0.00167013
0.00150415
0.00159944
0.00304843
0.00284521
0.00264254
0.00252256
0.00233465
0.00226466
0.00211329
0.00209125
0.00196254
0.00197708
0.00185483
0.00189574
0.00177208
0.00183191
0.0017041
0.00177742
0.00164416
0.00172691
0.00158724
0.00167236
0.00281772
0.00259755
0.00243039
0.00229876
0.00215511
0.00209205
0.00198671
0.00197176
0.00188676
0.00190297
0.00182153
0.00185872
0.00177279
0.00182471
0.00173163
0.00179377
0.00169301
0.00176168
0.00165377
0.0017223
0.00251987
0.00229179
0.00218097
0.00204722
0.00196384
0.00190403
0.00185377
0.0018408
0.00180279
0.00181746
0.00177647
0.00180831
0.00175832
0.00180128
0.00174125
0.00179105
0.00172194
0.00177501
0.00169874
0.00174882
0.00217008
0.0019496
0.00190207
0.0017774
0.00175923
0.00170624
0.00171332
0.00170112
0.00171093
0.00172109
0.0017206
0.00174399
0.00172947
0.00176096
0.00173313
0.00176894
0.00173027
0.00176682
0.00172071
0.00175165
0.00178959
0.00158873
0.00160529
0.00149904
0.00154552
0.00150281
0.00156486
0.00155284
0.00160821
0.00161128
0.0016499
0.00166142
0.00168193
0.00169821
0.0017032
0.00172125
0.0017149
0.00173163
0.00171822
0.0017279
0.00139595
0.00122564
0.00130227
0.00122469
0.0013287
0.00130074
0.00140922
0.00139804
0.00149236
0.00148699
0.00156116
0.00155836
0.00161274
0.00161055
0.00164823
0.00164374
0.00167092
0.00165833
0.0016878
0.00165279
0.00100487
0.000877283
0.00100739
0.000971003
0.00111901
0.00111281
0.00125122
0.00124642
0.00136301
0.00135511
0.0014488
0.00143897
0.00151312
0.0015038
0.001563
0.00155726
0.00160685
0.00160554
0.0016512
0.00164631
0.000629281
0.000564459
0.00073875
0.00075805
0.000930919
0.000951519
0.00110322
0.00110933
0.00123439
0.00123054
0.00132856
0.00132121
0.00139272
0.00139063
0.00143405
0.00145314
0.00146065
0.001523
0.00147672
0.00155825
0.000280239
0.000340493
0.000524471
0.0006117
0.000778142
0.000823441
0.000971439
0.0009841
0.00111195
0.00110574
0.00121339
0.00119841
0.00128588
0.00127111
0.00133585
0.00133019
0.00136615
0.00137225
0.00137464
0.00141054
8.5931e-05
0.000340359
0.000413887
0.000557993
0.000672142
0.000736233
0.000858403
0.000875399
0.000992307
0.000983391
0.00108854
0.00106752
0.00115649
0.00113438
0.00120209
0.00118793
0.0012289
0.00122864
0.00123866
0.0012711
0.000353984
0.000513075
0.000442469
0.000592888
0.000617547
0.00069256
0.000764052
0.000787305
0.000875663
0.000869144
0.000958418
0.000937301
0.0010182
0.000994072
0.00105942
0.00104234
0.00108497
0.00108376
0.00109483
0.00112438
0.000606621
0.000706788
0.000555687
0.000677042
0.000612243
0.000687034
0.000693716
0.000722898
0.000769623
0.000768099
0.00083173
0.000813514
0.000879573
0.000856622
0.000914683
0.00089789
0.000937743
0.000936553
0.000945782
0.000968949
0.000819357
0.000878446
0.000685839
0.000773231
0.00064108
0.000706427
0.000648613
0.000681189
0.000679061
0.00068347
0.000713945
0.000700458
0.000745674
0.000725785
0.00077186
0.000756838
0.000790288
0.000789446
0.000794727
0.000809447
0.000990712
0.00101874
0.000802444
0.000859998
0.000683999
0.000734962
0.00062485
0.000656955
0.000606869
0.000616851
0.000609686
0.000602554
0.000621214
0.000606552
0.000635626
0.000623946
0.000647465
0.000647088
0.000646596
0.000650721
0.00112164
0.00112723
0.000893926
0.000926437
0.00072533
0.000760926
0.000616206
0.000645754
0.000554993
0.000571281
0.000524103
0.000527371
0.000512154
0.000508547
0.000512338
0.000509418
0.000516047
0.000518905
0.000508154
0.000500509
0.00121365
0.00119591
0.000956747
0.000974447
0.000757671
0.00078839
0.000617417
0.000650987
0.000524108
0.000551133
0.000463365
0.000481501
0.000427381
0.000439796
0.0004109
0.000422106
0.000403654
0.00041568
0.000386681
0.000377113
0.00126099
0.00122347
0.000994521
0.000999358
0.000779218
0.000801932
0.000622084
0.000648665
0.000509715
0.000533011
0.000429999
0.000449458
0.000377623
0.000394726
0.000348407
0.000361807
0.00032849
0.000332628
0.000291983
0.000274216
0.000151827
0.000224726
0.000270993
0.000339481
0.000422922
0.00048513
0.000590324
0.00064429
0.000761
0.000805801
0.000929226
0.00096322
0.00109154
0.00111376
0.00124372
0.00125258
0.00137763
0.00136511
0.00147466
0.00149507
0.000166871
0.000245875
0.000259259
0.000359042
0.000402171
0.000497202
0.000555533
0.000642391
0.000710434
0.000787413
0.000862569
0.000927703
0.00100927
0.00105989
0.00114818
0.00118171
0.00127592
0.00129433
0.00138522
0.0013965
0.000225622
0.000293078
0.000295499
0.000390395
0.00041538
0.000511552
0.000547275
0.000639252
0.000681156
0.000766925
0.000813379
0.000891055
0.000940918
0.00101007
0.00106071
0.00112484
0.00117145
0.00123165
0.00127395
0.00131571
0.000276283
0.000334789
0.00033116
0.000415908
0.000431207
0.000520236
0.000544614
0.00063242
0.00066138
0.000746103
0.000777518
0.000858458
0.000890998
0.000968402
0.00100146
0.0010742
0.00110851
0.00117017
0.00120712
0.00124575
0.000314633
0.000366889
0.000358589
0.000434681
0.00044423
0.000525009
0.000543616
0.000624581
0.000647837
0.00072732
0.000753196
0.000830192
0.000858231
0.000931018
0.000961799
0.00102667
0.00106019
0.0011126
0.00114612
0.00118182
0.000348996
0.00039587
0.000384156
0.000452459
0.000458275
0.000530838
0.0005466
0.000619525
0.00064098
0.000712537
0.000737732
0.000806305
0.000834587
0.000897966
0.000928869
0.000984447
0.0010164
0.00106211
0.00109226
0.0011265
0.000384591
0.000426027
0.000412371
0.00047278
0.000475961
0.000540283
0.000554213
0.000618763
0.000639383
0.000702362
0.000727329
0.000787211
0.000815079
0.00087024
0.000899751
0.000948517
0.000978126
0.00101894
0.00104676
0.00107882
0.0004219
0.000458042
0.000443535
0.000496161
0.000497216
0.000553588
0.000565536
0.000622245
0.000641367
0.000696619
0.000720337
0.000772796
0.0007993
0.000847662
0.00087554
0.000918366
0.00094626
0.000982247
0.00100861
0.00103801
0.000459611
0.000491005
0.000476213
0.000521727
0.000520884
0.000569992
0.000579624
0.000629329
0.00064626
0.000694766
0.000716547
0.000762501
0.000787314
0.000829474
0.000855909
0.000893121
0.000919866
0.00095129
0.000976993
0.00100281
0.000496438
0.000523775
0.000508936
0.000548312
0.000545745
0.000588462
0.00059567
0.000639177
0.000653595
0.000696132
0.000715613
0.000755797
0.000778618
0.000815278
0.000840005
0.00087225
0.000897566
0.000924962
0.000949556
0.000972658
0.000531451
0.000555363
0.000540571
0.000574801
0.000570681
0.000607928
0.000612756
0.000650871
0.000662629
0.000699959
0.000716805
0.000752033
0.000772407
0.000804475
0.00082708
0.00085516
0.000878871
0.0009024
0.000926148
0.000945624
0.000563899
0.000584888
0.000570173
0.000600149
0.000594616
0.000627303
0.000629837
0.000663404
0.000672457
0.000705363
0.000719416
0.000750407
0.000768098
0.000796185
0.000816332
0.000840791
0.000862336
0.000882766
0.000904655
0.000921703
0.000593052
0.000611492
0.000596846
0.000623336
0.000616516
0.000645485
0.000645849
0.000675682
0.00068207
0.000711301
0.000722515
0.000749942
0.000764879
0.000789565
0.000807216
0.000828436
0.00084784
0.000865133
0.000885373
0.000899501
0.000618128
0.000634268
0.000619679
0.000643327
0.000635361
0.00066136
0.000659732
0.000686577
0.00069042
0.000716678
0.000725065
0.000749573
0.000761626
0.000783556
0.000798434
0.000817276
0.000834148
0.000849573
0.000867663
0.000879556
0.000638253
0.000652204
0.000637713
0.000659035
0.000650146
0.000673783
0.00067043
0.00069493
0.000696395
0.000720382
0.000725961
0.000748309
0.000757404
0.000777257
0.000789282
0.000806047
0.000820349
0.000833682
0.000849569
0.000859782
0.000652371
0.000664059
0.00064991
0.000669206
0.000659884
0.000681514
0.000676932
0.000699502
0.000698939
0.000721152
0.000724102
0.000744889
0.000751063
0.000769522
0.00077866
0.000794024
0.000805686
0.000817523
0.000830896
0.000839811
0.000659065
0.000668065
0.000655075
0.000672132
0.000663448
0.000682946
0.000678003
0.000698617
0.000696773
0.000717198
0.000718292
0.000737516
0.00074152
0.000758783
0.000765541
0.000780132
0.000789367
0.000800449
0.000811845
0.00081916
0.000656414
0.000661602
0.00065174
0.000665539
0.000659251
0.000675653
0.000671899
0.000689593
0.000688195
0.000705926
0.000707095
0.000723972
0.000727808
0.000743228
0.000749494
0.000763117
0.000771281
0.000782628
0.000792327
0.000799736
0.000643162
0.000642632
0.00063918
0.000648282
0.000646361
0.000657949
0.000657887
0.000670948
0.000672794
0.000686594
0.000690466
0.000704439
0.000710383
0.000723832
0.000731859
0.00074402
0.000753696
0.000764182
0.000774093
0.000782974
0.000624494
0.00062246
0.000624227
0.000626802
0.000631377
0.000635924
0.000642568
0.000648824
0.00065715
0.000665276
0.000674631
0.00068459
0.00069454
0.000705936
0.000716478
0.000728381
0.000739968
0.000750621
0.000763465
0.000769525
0.00153038
0.00150754
0.00153457
0.0015202
0.00153393
0.00152369
0.00153158
0.00152293
0.00153108
0.00152077
0.0015322
0.00151799
0.00153366
0.00151464
0.00153438
0.00151067
0.00153374
0.00150612
0.00153158
0.0015012
0.00152811
0.00149626
0.00152382
0.00149187
0.00151941
0.00148871
0.00151579
0.00148766
0.00151402
0.00148971
0.00151529
0.00149601
0.00152115
0.00150823
0.00153392
0.00152895
0.00155606
0.00155965
0.0015837
0.00160187
0.00147015
0.00142505
0.00147797
0.00143229
0.00148046
0.0014379
0.00148095
0.00144354
0.00148122
0.00144879
0.00148159
0.00145307
0.001482
0.00145619
0.0014824
0.0014583
0.00148281
0.00145978
0.0014834
0.0014611
0.00148446
0.00146284
0.00148643
0.00146564
0.00148991
0.00147019
0.00149557
0.00147723
0.00150414
0.00148752
0.0015163
0.00150183
0.00153291
0.00152125
0.00155539
0.00154746
0.00158512
0.00158087
0.00161707
0.00162393
0.00134989
0.00134321
0.00136518
0.00135472
0.00137971
0.00136461
0.00139306
0.0013738
0.00140472
0.00138234
0.00141449
0.00139024
0.00142269
0.00139763
0.00142982
0.00140468
0.00143645
0.00141168
0.00144311
0.0014189
0.0014503
0.00142669
0.00145848
0.00143562
0.0014683
0.00144628
0.00148033
0.00145928
0.00149503
0.0014751
0.00151276
0.00149418
0.00153395
0.00151715
0.00155951
0.00154516
0.00159025
0.00157823
0.00162141
0.00161977
0.00127254
0.00126936
0.00128478
0.00128142
0.00129832
0.00129357
0.00131317
0.00130602
0.00132831
0.00131832
0.00134283
0.00133009
0.00135651
0.00134138
0.00136951
0.00135244
0.00138213
0.00136352
0.00139464
0.00137468
0.00140739
0.00138701
0.00142095
0.00140031
0.00143584
0.00141508
0.00145254
0.00143177
0.0014714
0.00145065
0.00149264
0.00147195
0.00151649
0.00149604
0.00154359
0.0015237
0.00157448
0.0015547
0.00160446
0.00159275
0.00120483
0.00120422
0.00121756
0.00121751
0.00123151
0.0012315
0.00124726
0.0012451
0.00126357
0.00125924
0.00127996
0.0012733
0.00129613
0.00128758
0.00131226
0.00130259
0.00132875
0.00131882
0.00134579
0.00133264
0.00136133
0.00134611
0.00137809
0.00136116
0.00139611
0.00137784
0.00141561
0.00139633
0.00143685
0.00141648
0.00145968
0.00143824
0.00148428
0.00146184
0.00151106
0.00148766
0.00154015
0.0015152
0.00156718
0.00154814
0.00114592
0.00114867
0.00115919
0.00116209
0.00117339
0.00117734
0.00119101
0.00119358
0.0012077
0.00120881
0.00122508
0.00122376
0.00124303
0.00123816
0.00126144
0.00125159
0.00128017
0.00126364
0.00129825
0.00128434
0.0013157
0.00130235
0.00133371
0.00131992
0.00135276
0.00133778
0.00137286
0.00135639
0.00139429
0.00137596
0.00141686
0.00139664
0.00144065
0.00141845
0.00146583
0.00144139
0.00149181
0.0014646
0.00151495
0.00149154
0.0010967
0.00110119
0.00111083
0.00111565
0.00112577
0.0011306
0.0011427
0.00114653
0.00116035
0.00116287
0.0011783
0.0011795
0.00119634
0.00119675
0.00121419
0.00121158
0.00123158
0.00122806
0.00125135
0.00124434
0.00127052
0.00126062
0.00128918
0.00127719
0.00130789
0.00129438
0.00132769
0.00131228
0.00134787
0.00133081
0.00136892
0.00135047
0.00139072
0.00136794
0.00141272
0.00138874
0.0014347
0.00140595
0.001453
0.00142792
0.00105508
0.00106096
0.00106951
0.00107544
0.0010843
0.00109006
0.00110048
0.00110524
0.00111753
0.00112035
0.00113458
0.00113485
0.00115151
0.00115348
0.00117377
0.00117294
0.00119063
0.00118819
0.00120774
0.00120329
0.00122537
0.00121855
0.00124335
0.00123389
0.00126153
0.00124909
0.00127957
0.00126376
0.00129716
0.00127792
0.00131447
0.00129674
0.00133797
0.00131524
0.00135455
0.00133148
0.00137498
0.00134669
0.00138808
0.0013602
0.0010203
0.00102548
0.00103466
0.00103926
0.00104864
0.00105349
0.00106392
0.00106954
0.00108023
0.0010851
0.00109696
0.0011005
0.00111441
0.00111684
0.00113271
0.00113235
0.00114985
0.00114697
0.00116635
0.00116147
0.00118278
0.001176
0.00119917
0.00119047
0.00121538
0.00120475
0.00123129
0.00121878
0.00124711
0.0012326
0.00126333
0.00124611
0.0012798
0.00125927
0.00129481
0.00127112
0.00130875
0.00128163
0.00131931
0.00129293
0.000989374
0.000994818
0.00100332
0.00100738
0.0010166
0.00101942
0.00103401
0.00103734
0.0010513
0.00105073
0.00106505
0.00106406
0.00108244
0.00108205
0.00109958
0.00109602
0.0011132
0.00110952
0.00112728
0.00112283
0.00114162
0.0011358
0.0011559
0.00114832
0.00116996
0.00116039
0.00118382
0.00117211
0.00119754
0.0011836
0.00121103
0.00119447
0.0012237
0.00120425
0.00123511
0.0012126
0.00124469
0.00121888
0.00125127
0.00122589
0.000962241
0.000966773
0.000975406
0.00097945
0.000987918
0.000992304
0.00100103
0.00100613
0.00101643
0.00101976
0.00103106
0.00103322
0.00104538
0.0010471
0.00106097
0.00106021
0.0010754
0.00107262
0.00108894
0.00108442
0.00110184
0.00109566
0.00111421
0.00110638
0.00112614
0.0011166
0.00113766
0.00112629
0.00114869
0.00113532
0.00115904
0.00114344
0.00116842
0.00115032
0.00117644
0.00115558
0.0011826
0.00115867
0.0011862
0.00116189
0.000937336
0.000941588
0.000950067
0.000953474
0.000962293
0.000965542
0.000975
0.000977854
0.000988037
0.000990298
0.00100134
0.00100304
0.00101457
0.00101579
0.00102756
0.00102645
0.00103994
0.00103761
0.00105181
0.00104796
0.00106305
0.00105761
0.00107366
0.00106663
0.00108368
0.00107503
0.00109309
0.0010827
0.00110174
0.0010895
0.00110947
0.0010952
0.00111601
0.00109952
0.00112103
0.00110206
0.00112403
0.00110234
0.00112474
0.00110229
0.000914458
0.000918372
0.00092655
0.00093032
0.000938059
0.000941029
0.000949344
0.000951308
0.000960916
0.000961438
0.000972394
0.000971288
0.000983723
0.000983417
0.000997543
0.000995708
0.00100766
0.00100534
0.00101737
0.00101378
0.00102666
0.00102163
0.00103546
0.00102901
0.00104366
0.00103577
0.0010511
0.00104172
0.00105763
0.00104665
0.00106308
0.00105035
0.00106723
0.00105254
0.00106972
0.00105279
0.00107005
0.00105066
0.00106832
0.00104776
0.000893297
0.000895332
0.000904243
0.000905243
0.000915018
0.000915503
0.000924883
0.000925788
0.000934985
0.000935913
0.000945343
0.000945786
0.000956045
0.000955054
0.00096698
0.000963618
0.000976849
0.000972517
0.00098562
0.000980331
0.00099278
0.000987473
0.000999683
0.00099387
0.0010061
0.000999379
0.0010118
0.00100389
0.00101657
0.00100727
0.00102022
0.00100935
0.0010225
0.00100986
0.00102302
0.00100833
0.00102126
0.00100432
0.0010176
0.000998999
0.000871651
0.000874323
0.000881251
0.000883456
0.000890987
0.000892378
0.000900546
0.00090122
0.000909913
0.000910029
0.000919095
0.000918825
0.000927982
0.000927228
0.000936115
0.000934881
0.000944209
0.000942583
0.000952423
0.00094942
0.000959554
0.000955434
0.000965788
0.000960705
0.000971165
0.000965201
0.000975665
0.000968807
0.000979176
0.000971336
0.000981531
0.000972562
0.00098249
0.00097216
0.000981632
0.000969586
0.000978384
0.000964399
0.000973344
0.000957283
0.000850199
0.000852645
0.000859284
0.000861074
0.000868079
0.000869322
0.000876806
0.000877286
0.000885295
0.000885073
0.000893652
0.000893064
0.000901712
0.000900487
0.00090937
0.000907342
0.000916343
0.000913903
0.000922887
0.000920212
0.000928992
0.00092555
0.000934447
0.000930337
0.000939189
0.000934516
0.000943095
0.000937863
0.00094599
0.000940138
0.0009477
0.000941098
0.000947994
0.0009404
0.000946436
0.000937436
0.000942418
0.000931746
0.000936669
0.000923554
0.000828569
0.000830604
0.000837352
0.000839444
0.000845873
0.000847254
0.000853905
0.000854254
0.000861461
0.000860869
0.000870372
0.000869622
0.000878781
0.000875852
0.000885332
0.000881868
0.000892119
0.000887658
0.000898028
0.000893198
0.000903368
0.000898868
0.000907929
0.000903941
0.000912073
0.000908243
0.000915547
0.000911623
0.000918125
0.000913965
0.000919623
0.000915155
0.000919818
0.000914936
0.000918172
0.000912262
0.000914111
0.000906946
0.000908516
0.00089867
0.00080816
0.000809311
0.000818521
0.000819356
0.000828453
0.000827246
0.000835596
0.000835087
0.000842603
0.000841881
0.00084912
0.000848383
0.000856132
0.000854497
0.000862455
0.0008604
0.000868214
0.000866143
0.000874502
0.000872219
0.000880637
0.000877702
0.000885906
0.000882642
0.00089036
0.000887
0.000893966
0.000890626
0.000896654
0.000893336
0.000898355
0.000894971
0.000899305
0.000896138
0.000898528
0.000894653
0.000894834
0.000890824
0.000890151
0.00088507
0.000790091
0.000795265
0.000800306
0.000806817
0.000810815
0.000813866
0.000820868
0.000822158
0.00083004
0.000828606
0.000836368
0.000835303
0.000842934
0.000841734
0.000849683
0.000848436
0.000856121
0.000855093
0.000862147
0.000860921
0.000867792
0.000866198
0.000872927
0.000870998
0.000877407
0.000875255
0.000881082
0.000878901
0.000883825
0.000881887
0.000885556
0.000884159
0.000886185
0.000885996
0.000886268
0.000886687
0.000884862
0.00088442
0.000880508
0.000880636
0.00077946
0.000779634
0.000791766
0.000796913
0.000805022
0.000805708
0.000811943
0.000814853
0.000821969
0.000827332
0.000830651
0.00083411
0.000836953
0.000841022
0.000845702
0.000851666
0.000853785
0.000857187
0.000859769
0.00086292
0.000865344
0.000868348
0.000870317
0.000873126
0.000874524
0.000877107
0.000877899
0.000880242
0.000880453
0.00088253
0.000882246
0.000884008
0.000883224
0.000884672
0.000883224
0.000884547
0.000881995
0.000883772
0.000880486
0.000882613
0.00134101
0.00136937
0.00131627
0.00134292
0.0012954
0.0013189
0.00127389
0.00129433
0.00125072
0.0012686
0.00122588
0.00124166
0.00119939
0.00121342
0.00117117
0.00118373
0.00114114
0.00115242
0.00110917
0.00111931
0.00107516
0.00108422
0.001039
0.00104698
0.0010006
0.00100742
0.000959898
0.000965469
0.000916976
0.000921217
0.000872229
0.000875165
0.000826738
0.000828523
0.000782373
0.000782968
0.000740449
0.000739654
0.000703065
0.000675828
0.00138534
0.00143308
0.00135425
0.0014107
0.00132851
0.00138799
0.0013025
0.0013632
0.00127547
0.00133639
0.00124744
0.00130788
0.00121838
0.00127785
0.00118814
0.00124633
0.00115654
0.00121327
0.00112341
0.00117858
0.00108854
0.00114211
0.00105178
0.00110371
0.00101302
0.00106327
0.000972262
0.00102074
0.00092969
0.00097629
0.000885862
0.000930475
0.000841789
0.000884254
0.000798215
0.000838011
0.000753712
0.000791361
0.000710035
0.000727553
0.00147539
0.00152483
0.00144272
0.00150323
0.00141474
0.00148084
0.00138667
0.00145616
0.00135781
0.00142922
0.00132809
0.00140031
0.00129745
0.0013696
0.00126575
0.00133716
0.00123278
0.00130299
0.00119834
0.00126703
0.00116221
0.00122918
0.0011242
0.00118933
0.0010842
0.00114742
0.0010422
0.00110351
0.000998429
0.00105787
0.000953452
0.00101117
0.000908091
0.000964271
0.000862583
0.000917319
0.000816036
0.000870864
0.000773734
0.000814027
0.00156589
0.00160891
0.00153433
0.00158844
0.00150634
0.00156681
0.00147838
0.00154289
0.00144973
0.00151664
0.00142016
0.00148827
0.00138953
0.00145794
0.00135766
0.0014257
0.00132436
0.00139157
0.00128944
0.00135552
0.00125276
0.00131751
0.00121421
0.00127751
0.00117377
0.00123556
0.00113158
0.00119183
0.00108801
0.00114676
0.00104376
0.00110117
0.00099978
0.00105607
0.000956744
0.0010123
0.000915364
0.000971888
0.000881108
0.000926969
0.00163872
0.0016722
0.00161097
0.00165375
0.00158532
0.00163389
0.00155949
0.00161183
0.00153288
0.00158748
0.00150522
0.00156097
0.00147632
0.0015324
0.00144601
0.00150184
0.00141413
0.00146933
0.00138054
0.0014349
0.00134516
0.00139858
0.00130794
0.00136042
0.00126896
0.00132056
0.00122845
0.00127932
0.00118687
0.00123726
0.00114501
0.00119531
0.00110396
0.00115473
0.00106493
0.00111709
0.00102959
0.00108536
0.00100276
0.00105417
0.00168845
0.00171213
0.00166633
0.00169656
0.00164471
0.00167934
0.00162246
0.00165994
0.00159922
0.00163828
0.00157476
0.00161444
0.00154891
0.00158853
0.00152153
0.00156066
0.00149247
0.00153091
0.00146165
0.00149936
0.00142901
0.00146611
0.00139459
0.0014313
0.00135856
0.00139519
0.00132127
0.00135819
0.00128329
0.00132101
0.00124552
0.00128472
0.00120923
0.00125081
0.00117601
0.00122143
0.0011483
0.00120014
0.00113001
0.00118384
0.00171395
0.00172768
0.00169894
0.00171526
0.00168249
0.00170108
0.00166476
0.00168476
0.00164583
0.00166623
0.00162546
0.00164555
0.0016034
0.00162285
0.00157949
0.00159829
0.00155364
0.00157202
0.0015259
0.00154418
0.0014964
0.00151491
0.0014654
0.00148446
0.00143322
0.00145319
0.00140035
0.00142167
0.00136744
0.00139075
0.00133546
0.00136165
0.00130573
0.00133607
0.0012802
0.00131663
0.00126187
0.0013072
0.00125347
0.00130642
0.00171451
0.00171766
0.00170807
0.00171005
0.00169836
0.00169876
0.00168661
0.00168514
0.00167241
0.00166986
0.00165554
0.00165309
0.00163616
0.0016348
0.00161465
0.00161488
0.00159143
0.00159328
0.00156688
0.00157007
0.00154127
0.00154548
0.00151487
0.0015199
0.00148798
0.00149391
0.00146102
0.00146827
0.00143466
0.00144404
0.00140986
0.0014226
0.00138802
0.0014059
0.00137138
0.001397
0.00136335
0.00139981
0.0013652
0.00141412
0.00169413
0.00166458
0.0017021
0.00166604
0.00169665
0.00166895
0.00168511
0.00166867
0.00167137
0.0016638
0.00165659
0.00165438
0.00164093
0.00164101
0.00162433
0.00162446
0.00160667
0.00160551
0.00158791
0.00158487
0.00156809
0.00156317
0.00154742
0.00154105
0.00152629
0.00151924
0.00150532
0.00149862
0.00148539
0.00148033
0.00146765
0.00146586
0.00145373
0.00145734
0.00144614
0.0014581
0.00144836
0.00147164
0.0014596
0.00149802
0.00166869
0.0016734
0.00165746
0.00166706
0.00165148
0.00164875
0.00164653
0.00163166
0.00164187
0.00161806
0.00163633
0.00160675
0.00162892
0.00159607
0.00161914
0.00158486
0.00160699
0.00157255
0.00159283
0.00155904
0.00157721
0.00154462
0.00156083
0.00152985
0.00154445
0.00151551
0.00152895
0.0015026
0.00151534
0.00149239
0.00150481
0.00148647
0.00149902
0.00148711
0.00150058
0.00149781
0.0015126
0.00152156
0.0015321
0.00155774
)
;

boundaryField
{
    back
    {
        type            empty;
    }
    front
    {
        type            empty;
    }
    left
    {
        type            symmetry;
    }
    hole
    {
        type            calculated;
        value           nonuniform List<scalar> 
20
(
0.00498811
0.00411416
0.00379526
0.00308941
0.0028477
0.00255443
0.00220575
0.00182448
0.00142876
0.00103444
0.000653771
0.000295371
3.6984e-05
0.000334479
0.000594409
0.000812772
0.000989124
0.00112475
0.00121994
0.0012625
)
;
    }
    down
    {
        type            symmetry;
    }
    right
    {
        type            calculated;
        value           nonuniform List<scalar> 
30
(
0.000623687
0.00062981
0.000638043
0.000650152
0.000665932
0.000684534
0.000705106
0.000726833
0.000749248
0.000772744
0.000786443
0.000793507
0.000803038
0.00081281
0.000821042
0.000830368
0.000838815
0.000845203
0.000852198
0.000858562
0.000864047
0.000868733
0.000872669
0.000875861
0.000878307
0.000880035
0.000881187
0.000882108
0.000882793
0.000882827
)
;
    }
    up
    {
        type            calculated;
        value           nonuniform List<scalar> 
30
(
0.00160801
0.00162822
0.0016238
0.00159657
0.00155143
0.00149399
0.00142906
0.00136171
0.00129349
0.00122594
0.00116149
0.00110156
0.00104684
0.000998006
0.000956299
0.000922679
0.000897988
0.000885057
0.000880422
0.000882597
0.000684436
0.000717883
0.000807089
0.00092266
0.00105163
0.00118264
0.00130597
0.00141398
0.00149852
0.00155847
)
;
    }
}


// ************************************************************************* //
