/*--------------------------------*- C++ -*----------------------------------*\
| =========                 |                                                 |
| \\      /  F ield         | OpenFOAM: The Open Source CFD Toolbox           |
|  \\    /   O peration     | Version:  v2012                                 |
|   \\  /    A nd           | Website:  www.openfoam.com                      |
|    \\/     M anipulation  |                                                 |
\*---------------------------------------------------------------------------*/
FoamFile
{
    version     2.0;
    format      ascii;
    class       volScalarField;
    location    "6";
    object      sigmaHyd;
}
// * * * * * * * * * * * * * * * * * * * * * * * * * * * * * * * * * * * * * //

dimensions      [1 -1 -2 0 0 0 0];


internalField   nonuniform List<scalar> 
2000
(
1.31137e+08
1.31782e+08
1.33915e+08
1.33174e+08
1.30207e+08
1.2642e+08
1.20436e+08
1.16302e+08
1.10784e+08
1.07314e+08
1.02712e+08
9.97869e+07
9.57042e+07
9.31165e+07
8.92793e+07
8.69229e+07
8.31814e+07
8.09774e+07
7.72048e+07
7.51084e+07
1.29663e+08
1.29476e+08
1.31113e+08
1.28187e+08
1.25518e+08
1.20067e+08
1.16014e+08
1.10903e+08
1.07305e+08
1.0312e+08
1.00012e+08
9.64821e+07
9.35865e+07
9.0482e+07
8.76453e+07
8.48478e+07
8.19657e+07
7.93783e+07
7.63403e+07
7.38983e+07
1.26389e+08
1.24579e+08
1.24954e+08
1.19916e+08
1.17294e+08
1.11395e+08
1.08602e+08
1.03497e+08
1.01275e+08
9.70055e+07
9.50843e+07
9.13742e+07
8.95034e+07
8.61911e+07
8.42655e+07
8.12683e+07
7.92041e+07
7.64491e+07
7.41505e+07
7.16432e+07
1.20148e+08
1.16787e+08
1.16114e+08
1.10372e+08
1.08024e+08
1.02215e+08
1.00358e+08
9.54008e+07
9.41832e+07
8.99542e+07
8.89718e+07
8.5243e+07
8.42477e+07
8.09069e+07
7.98007e+07
7.67915e+07
7.54969e+07
7.27743e+07
7.12218e+07
6.88159e+07
1.1143e+08
1.06898e+08
1.06183e+08
9.9942e+07
9.82088e+07
9.23994e+07
9.14642e+07
8.65785e+07
8.62874e+07
8.20994e+07
8.19964e+07
7.82927e+07
7.81408e+07
7.48266e+07
7.4537e+07
7.15675e+07
7.10764e+07
6.84201e+07
6.76774e+07
6.53528e+07
9.99642e+07
9.45835e+07
9.46405e+07
8.80889e+07
8.74e+07
8.15924e+07
8.17112e+07
7.68875e+07
7.75549e+07
7.34262e+07
7.42066e+07
7.05591e+07
7.12466e+07
6.79885e+07
6.85143e+07
6.56044e+07
6.5925e+07
6.33351e+07
6.34096e+07
6.11361e+07
8.63138e+07
8.04811e+07
8.1547e+07
7.49849e+07
7.55074e+07
6.98539e+07
7.10768e+07
6.64093e+07
6.80342e+07
6.40408e+07
6.5682e+07
6.21581e+07
6.36483e+07
6.05074e+07
6.1802e+07
5.90068e+07
6.00854e+07
5.76086e+07
5.8434e+07
5.62508e+07
7.13409e+07
6.53898e+07
6.74457e+07
6.11523e+07
6.2864e+07
5.75464e+07
5.98178e+07
5.54357e+07
5.79562e+07
5.4203e+07
5.66463e+07
5.33394e+07
5.55725e+07
5.26388e+07
5.46319e+07
5.20442e+07
5.37896e+07
5.15287e+07
5.29927e+07
5.10348e+07
5.58113e+07
4.99929e+07
5.29286e+07
4.71106e+07
4.99042e+07
4.50613e+07
4.8273e+07
4.4273e+07
4.75976e+07
4.41524e+07
4.73354e+07
4.42876e+07
4.72431e+07
4.45343e+07
4.72582e+07
4.48645e+07
4.73711e+07
4.52592e+07
4.75468e+07
4.57064e+07
4.03351e+07
3.4827e+07
3.84923e+07
3.32716e+07
3.69945e+07
3.26992e+07
3.67089e+07
3.3136e+07
3.71338e+07
3.40185e+07
3.78147e+07
3.50056e+07
3.85544e+07
3.59405e+07
3.92643e+07
3.66912e+07
3.98709e+07
3.71895e+07
4.03917e+07
3.7744e+07
2.53742e+07
2.02954e+07
2.45241e+07
1.99758e+07
2.44454e+07
2.0756e+07
2.53826e+07
2.22889e+07
2.67755e+07
2.40357e+07
2.82282e+07
2.5694e+07
2.95121e+07
2.70179e+07
3.03851e+07
2.77362e+07
3.08013e+07
2.83161e+07
3.21572e+07
3.17065e+07
1.12669e+07
6.69947e+06
1.13428e+07
7.53969e+06
1.25875e+07
9.59137e+06
1.46654e+07
1.21623e+07
1.69707e+07
1.47428e+07
1.91635e+07
1.70639e+07
2.09808e+07
1.88437e+07
2.21312e+07
1.99448e+07
2.2984e+07
2.15168e+07
2.60088e+07
2.58663e+07
-1.73268e+06
-5.7172e+06
-780421
-3.78484e+06
1.70514e+06
-563851
4.83579e+06
2.93616e+06
7.96882e+06
6.24717e+06
1.08284e+07
9.16505e+06
1.31776e+07
1.14575e+07
1.48146e+07
1.30992e+07
1.63514e+07
1.51746e+07
1.99602e+07
1.98428e+07
-1.34078e+07
-1.67529e+07
-1.16435e+07
-1.38377e+07
-8.04634e+06
-9.60173e+06
-4.0045e+06
-5.32263e+06
-174801
-1.41483e+06
3.24484e+06
1.99003e+06
6.06815e+06
4.69999e+06
8.13535e+06
6.68826e+06
1.00209e+07
9.00522e+06
1.38462e+07
1.38197e+07
-2.35748e+07
-2.62499e+07
-2.10949e+07
-2.24974e+07
-1.65561e+07
-1.74277e+07
-1.17715e+07
-1.25325e+07
-7.3936e+06
-8.16874e+06
-3.54269e+06
-4.39956e+06
-360584
-1.38829e+06
2.00015e+06
838085
4.09624e+06
3.31077e+06
8.02917e+06
8.17417e+06
-3.21234e+07
-3.41334e+07
-2.90441e+07
-2.96951e+07
-2.37398e+07
-2.39558e+07
-1.83714e+07
-1.85847e+07
-1.35805e+07
-1.38867e+07
-9.41444e+06
-9.85716e+06
-5.97279e+06
-6.62653e+06
-3.39602e+06
-4.21678e+06
-1.14366e+06
-1.63295e+06
2.82401e+06
3.19108e+06
-3.90362e+07
-4.04079e+07
-3.54619e+07
-3.53895e+07
-2.95253e+07
-2.90827e+07
-2.36929e+07
-2.33482e+07
-1.86025e+07
-1.84283e+07
-1.42211e+07
-1.42311e+07
-1.05976e+07
-1.08494e+07
-7.85484e+06
-8.29512e+06
-5.47465e+06
-5.62275e+06
-1.52882e+06
-914157
-4.43361e+07
-4.50736e+07
-4.03081e+07
-3.9463e+07
-3.37863e+07
-3.26608e+07
-2.75989e+07
-2.6727e+07
-2.23402e+07
-2.17211e+07
-1.785e+07
-1.74562e+07
-1.41275e+07
-1.40005e+07
-1.12703e+07
-1.13403e+07
-8.7728e+06
-8.57537e+06
-4.87379e+06
-4.02388e+06
-4.79798e+07
-4.80855e+07
-4.34324e+07
-4.17903e+07
-3.64105e+07
-3.48086e+07
-3.01223e+07
-2.8926e+07
-2.48668e+07
-2.39403e+07
-2.037e+07
-1.96746e+07
-1.66306e+07
-1.6206e+07
-1.37116e+07
-1.34654e+07
-1.10861e+07
-1.05581e+07
-7.20807e+06
-6.11354e+06
-5.02076e+07
-4.97357e+07
-4.49395e+07
-4.2948e+07
-3.7875e+07
-3.60901e+07
-3.17549e+07
-3.02754e+07
-2.65349e+07
-2.52674e+07
-2.20325e+07
-2.09893e+07
-1.8306e+07
-1.75241e+07
-1.53478e+07
-1.46952e+07
-1.24906e+07
-1.151e+07
-8.38839e+06
-6.98904e+06
-2.11759e+06
896819
-952710
2.63875e+06
1.39138e+06
5.31835e+06
4.61092e+06
8.71201e+06
8.62064e+06
1.27344e+07
1.33181e+07
1.72975e+07
1.85441e+07
2.22595e+07
2.40606e+07
2.73653e+07
2.94697e+07
3.21568e+07
3.45614e+07
3.67693e+07
4.60201e+06
6.29425e+06
5.75336e+06
7.77386e+06
7.94909e+06
1.00361e+07
1.07608e+07
1.27762e+07
1.40654e+07
1.594e+07
1.78166e+07
1.94943e+07
2.19276e+07
2.33357e+07
2.62222e+07
2.72698e+07
3.04017e+07
3.11457e+07
3.43059e+07
3.4668e+07
8.40505e+06
9.70408e+06
9.35127e+06
1.09029e+07
1.1123e+07
1.27052e+07
1.334e+07
1.48705e+07
1.59261e+07
1.73827e+07
1.88767e+07
2.02352e+07
2.21415e+07
2.33868e+07
2.56291e+07
2.68003e+07
2.92349e+07
3.02855e+07
3.26482e+07
3.35375e+07
1.17794e+07
1.31158e+07
1.25735e+07
1.41207e+07
1.40247e+07
1.56135e+07
1.5836e+07
1.74194e+07
1.79669e+07
1.95418e+07
2.0434e+07
2.2004e+07
2.32384e+07
2.48165e+07
2.63636e+07
2.79126e+07
2.9652e+07
3.10334e+07
3.27435e+07
3.37736e+07
1.53926e+07
1.67295e+07
1.60494e+07
1.75594e+07
1.72635e+07
1.88177e+07
1.88003e+07
2.03687e+07
2.06367e+07
2.22224e+07
2.28011e+07
2.44052e+07
2.53057e+07
2.68996e+07
2.809e+07
2.9585e+07
3.09406e+07
3.2203e+07
3.35059e+07
3.44498e+07
1.89742e+07
2.02037e+07
1.94935e+07
2.08635e+07
2.04992e+07
2.19104e+07
2.18071e+07
2.3234e+07
2.33974e+07
2.48365e+07
2.52886e+07
2.67236e+07
2.74662e+07
2.88535e+07
2.98409e+07
3.11123e+07
3.22255e+07
3.33061e+07
3.43677e+07
3.52214e+07
2.225e+07
2.33301e+07
2.26436e+07
2.38363e+07
2.34564e+07
2.46863e+07
2.45494e+07
2.57907e+07
2.58986e+07
2.71406e+07
2.75062e+07
2.87294e+07
2.93452e+07
3.05171e+07
3.13389e+07
3.24159e+07
3.33481e+07
3.42786e+07
3.51849e+07
3.59384e+07
2.51423e+07
2.60796e+07
2.54297e+07
2.64556e+07
2.60694e+07
2.71286e+07
2.69618e+07
2.80294e+07
2.80805e+07
2.9144e+07
2.94198e+07
3.04627e+07
3.09547e+07
3.19521e+07
3.26246e+07
3.35412e+07
3.43204e+07
3.51154e+07
3.58988e+07
3.65545e+07
2.7681e+07
2.8497e+07
2.78819e+07
2.87654e+07
2.83718e+07
2.92846e+07
2.90845e+07
3.00044e+07
2.99951e+07
3.09091e+07
3.10945e+07
3.19867e+07
3.23602e+07
3.32082e+07
3.37419e+07
3.45174e+07
3.51559e+07
3.58309e+07
3.64966e+07
3.70539e+07
2.99225e+07
3.06392e+07
3.00531e+07
3.08184e+07
3.04154e+07
3.12051e+07
3.09704e+07
3.17652e+07
3.16958e+07
3.24817e+07
3.25798e+07
3.33418e+07
3.36022e+07
3.43214e+07
3.47241e+07
3.53795e+07
3.58848e+07
3.64556e+07
3.70049e+07
3.74766e+07
3.19225e+07
3.25593e+07
3.19947e+07
3.26627e+07
3.22471e+07
3.29337e+07
3.2663e+07
3.33514e+07
3.32221e+07
3.38983e+07
3.39113e+07
3.45613e+07
3.47138e+07
3.53223e+07
3.56012e+07
3.61518e+07
3.65298e+07
3.70042e+07
3.74391e+07
3.78196e+07
3.37323e+07
3.43067e+07
3.37539e+07
3.4343e+07
3.39095e+07
3.4511e+07
3.42011e+07
3.48005e+07
3.461e+07
3.51935e+07
3.51224e+07
3.56767e+07
3.57242e+07
3.62357e+07
3.63944e+07
3.68482e+07
3.70998e+07
3.74801e+07
3.77943e+07
3.80912e+07
3.54004e+07
3.59284e+07
3.53759e+07
3.59031e+07
3.54441e+07
3.59773e+07
3.5623e+07
3.61499e+07
3.58947e+07
3.64008e+07
3.62439e+07
3.67164e+07
3.66588e+07
3.70857e+07
3.7124e+07
3.74934e+07
3.76152e+07
3.79151e+07
3.81011e+07
3.83265e+07
3.69731e+07
3.74694e+07
3.69046e+07
3.73851e+07
3.68917e+07
3.73723e+07
3.69668e+07
3.74362e+07
3.71109e+07
3.75539e+07
3.73069e+07
3.7711e+07
3.75454e+07
3.79011e+07
3.78179e+07
3.81173e+07
3.81101e+07
3.83456e+07
3.84004e+07
3.85634e+07
3.84941e+07
3.89718e+07
3.83815e+07
3.88288e+07
3.82915e+07
3.87332e+07
3.82691e+07
3.86949e+07
3.82927e+07
3.86861e+07
3.83429e+07
3.86918e+07
3.84136e+07
3.87097e+07
3.85019e+07
3.87369e+07
3.85984e+07
3.87607e+07
3.86828e+07
3.8761e+07
4.00044e+07
4.0476e+07
3.98458e+07
4.02732e+07
3.96812e+07
4.01002e+07
3.95673e+07
3.99665e+07
3.94761e+07
3.9835e+07
3.93844e+07
3.96896e+07
3.92888e+07
3.95324e+07
3.91909e+07
3.93657e+07
3.90852e+07
3.91833e+07
3.89591e+07
3.89817e+07
4.15466e+07
4.20264e+07
4.13414e+07
4.17702e+07
4.11106e+07
4.15353e+07
4.09147e+07
4.13126e+07
4.07106e+07
4.10532e+07
4.04723e+07
4.07452e+07
4.02021e+07
4.04e+07
3.99095e+07
4.00293e+07
3.95961e+07
3.96326e+07
3.92571e+07
3.92072e+07
4.31723e+07
4.36761e+07
4.29346e+07
4.34021e+07
4.26642e+07
4.31265e+07
4.23932e+07
4.2804e+07
4.20622e+07
4.23891e+07
4.16538e+07
4.18871e+07
4.11845e+07
4.13248e+07
4.0675e+07
4.07238e+07
4.01334e+07
4.00873e+07
3.95518e+07
3.94078e+07
4.49116e+07
4.54135e+07
4.46796e+07
4.51519e+07
4.43901e+07
4.48189e+07
4.40203e+07
4.43569e+07
4.35216e+07
4.37463e+07
4.29028e+07
4.30214e+07
4.22009e+07
4.2222e+07
4.14472e+07
4.13745e+07
4.0652e+07
4.04812e+07
3.98042e+07
3.95415e+07
4.65206e+07
4.6716e+07
4.62585e+07
4.63914e+07
4.59091e+07
4.59846e+07
4.54115e+07
4.53958e+07
4.47345e+07
4.46351e+07
4.39183e+07
4.37498e+07
4.30088e+07
4.27844e+07
4.20434e+07
4.17747e+07
4.10395e+07
4.07287e+07
3.99888e+07
3.9642e+07
3.94533e+07
3.97579e+07
4.18064e+07
4.17061e+07
4.3517e+07
4.317e+07
4.47902e+07
4.44318e+07
4.59249e+07
4.56364e+07
4.70146e+07
4.68096e+07
4.8068e+07
4.79449e+07
4.90777e+07
4.90355e+07
5.00406e+07
5.00822e+07
5.09617e+07
5.10929e+07
5.18529e+07
5.20815e+07
5.27313e+07
5.30657e+07
5.36174e+07
5.40652e+07
5.45331e+07
5.50995e+07
5.54992e+07
5.61855e+07
5.65352e+07
5.73406e+07
5.76735e+07
5.86047e+07
5.89935e+07
6.00684e+07
6.05823e+07
6.17474e+07
6.21005e+07
6.28862e+07
3.73244e+07
3.70032e+07
3.89593e+07
3.85176e+07
4.04218e+07
3.99945e+07
4.18408e+07
4.1491e+07
4.32605e+07
4.29888e+07
4.46641e+07
4.44601e+07
4.60327e+07
4.58915e+07
4.73583e+07
4.72807e+07
4.86418e+07
4.86323e+07
4.98899e+07
4.99545e+07
5.11137e+07
5.12581e+07
5.23269e+07
5.25558e+07
5.35443e+07
5.38602e+07
5.47803e+07
5.51827e+07
5.60464e+07
5.65303e+07
5.7351e+07
5.79096e+07
5.87141e+07
5.93474e+07
6.02001e+07
6.0918e+07
6.18786e+07
6.26166e+07
6.33851e+07
6.37622e+07
3.54309e+07
3.55831e+07
3.68676e+07
3.69712e+07
3.83279e+07
3.84382e+07
3.98575e+07
3.99791e+07
4.14165e+07
4.15438e+07
4.29652e+07
4.30976e+07
4.44849e+07
4.46257e+07
4.59709e+07
4.61257e+07
4.74256e+07
4.76007e+07
4.88546e+07
4.90545e+07
5.02651e+07
5.04928e+07
5.16666e+07
5.19248e+07
5.30696e+07
5.33605e+07
5.44834e+07
5.48073e+07
5.59132e+07
5.6267e+07
5.73601e+07
5.77388e+07
5.8834e+07
5.92392e+07
6.03848e+07
6.08272e+07
6.20666e+07
6.24957e+07
6.35492e+07
6.36037e+07
3.50355e+07
3.54903e+07
3.63314e+07
3.67311e+07
3.76695e+07
3.80532e+07
3.91071e+07
3.94724e+07
4.06051e+07
4.09434e+07
4.21213e+07
4.24311e+07
4.36332e+07
4.3919e+07
4.51333e+07
4.54037e+07
4.66214e+07
4.68846e+07
4.80951e+07
4.83493e+07
4.95525e+07
4.97954e+07
5.10009e+07
5.12379e+07
5.24506e+07
5.26854e+07
5.39089e+07
5.41421e+07
5.53768e+07
5.56043e+07
5.6849e+07
5.70642e+07
5.83276e+07
5.85307e+07
5.98508e+07
6.00499e+07
6.14591e+07
6.16004e+07
6.28377e+07
6.26022e+07
3.53799e+07
3.59118e+07
3.65314e+07
3.70066e+07
3.77142e+07
3.81717e+07
3.8998e+07
3.94314e+07
4.03519e+07
4.07538e+07
4.17428e+07
4.21071e+07
4.31524e+07
4.3485e+07
4.458e+07
4.48879e+07
4.60266e+07
4.63055e+07
4.74587e+07
4.76759e+07
4.88523e+07
4.90486e+07
5.02469e+07
5.04203e+07
5.16492e+07
5.1797e+07
5.30628e+07
5.31857e+07
5.44821e+07
5.45724e+07
5.58931e+07
5.59404e+07
5.72935e+07
5.72999e+07
5.87111e+07
5.86786e+07
6.01669e+07
6.00427e+07
6.1375e+07
6.09008e+07
3.5972e+07
3.64894e+07
3.69806e+07
3.74399e+07
3.80125e+07
3.84559e+07
3.91507e+07
3.9576e+07
4.03602e+07
4.07466e+07
4.16059e+07
4.19541e+07
4.2882e+07
4.3188e+07
4.41762e+07
4.44302e+07
4.5476e+07
4.56635e+07
4.67468e+07
4.69347e+07
4.80824e+07
4.8223e+07
4.93913e+07
4.94793e+07
5.06833e+07
5.07229e+07
5.19901e+07
5.19996e+07
5.32962e+07
5.32359e+07
5.45738e+07
5.44604e+07
5.58374e+07
5.56652e+07
5.70946e+07
5.68631e+07
5.83483e+07
5.8007e+07
5.93529e+07
5.87045e+07
3.6584e+07
3.70451e+07
3.74601e+07
3.78573e+07
3.83332e+07
3.87112e+07
3.931e+07
3.96554e+07
4.03488e+07
4.06516e+07
4.14271e+07
4.16827e+07
4.25382e+07
4.2753e+07
4.36657e+07
4.3839e+07
4.48077e+07
4.4963e+07
4.59954e+07
4.60992e+07
4.71873e+07
4.72275e+07
4.83556e+07
4.83415e+07
4.9511e+07
4.94528e+07
5.06771e+07
5.05522e+07
5.18167e+07
5.16295e+07
5.29456e+07
5.27006e+07
5.40487e+07
5.37347e+07
5.5133e+07
5.47609e+07
5.61718e+07
5.56584e+07
5.69646e+07
5.62131e+07
3.71266e+07
3.75157e+07
3.78744e+07
3.81965e+07
3.86072e+07
3.88985e+07
3.94147e+07
3.96808e+07
4.02844e+07
4.05178e+07
4.11911e+07
4.13949e+07
4.21639e+07
4.2363e+07
4.3197e+07
4.33611e+07
4.42188e+07
4.43021e+07
4.52134e+07
4.5233e+07
4.6214e+07
4.6177e+07
4.72195e+07
4.71256e+07
4.82214e+07
4.80615e+07
4.9201e+07
4.8967e+07
5.01499e+07
4.98572e+07
5.11126e+07
5.07791e+07
5.20722e+07
5.16848e+07
5.3003e+07
5.2493e+07
5.37949e+07
5.3201e+07
5.44174e+07
5.36047e+07
3.7549e+07
3.78599e+07
3.81617e+07
3.8402e+07
3.87491e+07
3.89593e+07
3.942e+07
3.96295e+07
4.01692e+07
4.03526e+07
4.0951e+07
4.10935e+07
4.17999e+07
4.19168e+07
4.2689e+07
4.27386e+07
4.35284e+07
4.3503e+07
4.43413e+07
4.42641e+07
4.51616e+07
4.50341e+07
4.59873e+07
4.58043e+07
4.68066e+07
4.65647e+07
4.76095e+07
4.73148e+07
4.84056e+07
4.8068e+07
4.92161e+07
4.88162e+07
5.00047e+07
4.95133e+07
5.07147e+07
5.01354e+07
5.13407e+07
5.06509e+07
5.17777e+07
5.09329e+07
3.78869e+07
3.81375e+07
3.83683e+07
3.85514e+07
3.88089e+07
3.89833e+07
3.9383e+07
3.95767e+07
4.00164e+07
4.01161e+07
4.06036e+07
4.06824e+07
4.13029e+07
4.13771e+07
4.20341e+07
4.20086e+07
4.26912e+07
4.26207e+07
4.33558e+07
4.32449e+07
4.40332e+07
4.38741e+07
4.47113e+07
4.44988e+07
4.53811e+07
4.51139e+07
4.60395e+07
4.57167e+07
4.66876e+07
4.63014e+07
4.73163e+07
4.68536e+07
4.78993e+07
4.73546e+07
4.84181e+07
4.77875e+07
4.88513e+07
4.81236e+07
4.91356e+07
4.82967e+07
3.81581e+07
3.83538e+07
3.85453e+07
3.86875e+07
3.89004e+07
3.90329e+07
3.93423e+07
3.94397e+07
3.98084e+07
3.98729e+07
4.02963e+07
4.0341e+07
4.08484e+07
4.0844e+07
4.13973e+07
4.13422e+07
4.19311e+07
4.18294e+07
4.24613e+07
4.23116e+07
4.29883e+07
4.27863e+07
4.35088e+07
4.3253e+07
4.40202e+07
4.37093e+07
4.45191e+07
4.41502e+07
4.49987e+07
4.45671e+07
4.54478e+07
4.49484e+07
4.58519e+07
4.52803e+07
4.61953e+07
4.55453e+07
4.64554e+07
4.57178e+07
4.65989e+07
4.57868e+07
3.83542e+07
3.85024e+07
3.86571e+07
3.87585e+07
3.89305e+07
3.90068e+07
3.92383e+07
3.92867e+07
3.958e+07
3.95977e+07
3.99535e+07
3.99369e+07
4.03572e+07
4.03037e+07
4.07654e+07
4.0664e+07
4.11656e+07
4.10246e+07
4.15599e+07
4.13676e+07
4.19417e+07
4.16983e+07
4.23141e+07
4.20199e+07
4.26766e+07
4.23309e+07
4.30245e+07
4.26251e+07
4.33505e+07
4.28943e+07
4.36449e+07
4.31286e+07
4.38957e+07
4.33153e+07
4.40865e+07
4.34346e+07
4.41935e+07
4.34644e+07
4.42114e+07
4.34432e+07
3.85053e+07
3.86193e+07
3.87318e+07
3.88007e+07
3.89226e+07
3.89541e+07
3.91171e+07
3.91185e+07
3.93329e+07
3.9302e+07
3.95715e+07
3.95135e+07
3.98519e+07
3.9768e+07
4.0147e+07
4.00287e+07
4.04369e+07
4.0261e+07
4.06938e+07
4.04701e+07
4.0934e+07
4.06633e+07
4.11659e+07
4.08524e+07
4.1391e+07
4.10328e+07
4.16025e+07
4.11965e+07
4.17923e+07
4.13357e+07
4.19518e+07
4.14417e+07
4.207e+07
4.15023e+07
4.21291e+07
4.14957e+07
4.21041e+07
4.14025e+07
4.20136e+07
4.1303e+07
3.86409e+07
3.87102e+07
3.87696e+07
3.87938e+07
3.88642e+07
3.88609e+07
3.8965e+07
3.89394e+07
3.9081e+07
3.90342e+07
3.92197e+07
3.91522e+07
3.93874e+07
3.92843e+07
3.9559e+07
3.94048e+07
3.97192e+07
3.95361e+07
3.98685e+07
3.96345e+07
3.99888e+07
3.97202e+07
4.01055e+07
3.97988e+07
4.02141e+07
3.98648e+07
4.03067e+07
3.9912e+07
4.03764e+07
3.99351e+07
4.04166e+07
3.99273e+07
4.04179e+07
3.98773e+07
4.03617e+07
3.97618e+07
4.02219e+07
3.95631e+07
4.00373e+07
3.93973e+07
3.87446e+07
3.87829e+07
3.87857e+07
3.8792e+07
3.88114e+07
3.87929e+07
3.88409e+07
3.87986e+07
3.88803e+07
3.8812e+07
3.89309e+07
3.88325e+07
3.89853e+07
3.88515e+07
3.90314e+07
3.8869e+07
3.90876e+07
3.88904e+07
3.9135e+07
3.89004e+07
3.91655e+07
3.88932e+07
3.91804e+07
3.88695e+07
3.91796e+07
3.88308e+07
3.91616e+07
3.87757e+07
3.91231e+07
3.87002e+07
3.90591e+07
3.85985e+07
3.89609e+07
3.84594e+07
3.88089e+07
3.82581e+07
3.8576e+07
3.79791e+07
3.83181e+07
3.77656e+07
3.88648e+07
3.88828e+07
3.88309e+07
3.88196e+07
3.87822e+07
3.8745e+07
3.87296e+07
3.86626e+07
3.86798e+07
3.85822e+07
3.86424e+07
3.85237e+07
3.86125e+07
3.84641e+07
3.85742e+07
3.83856e+07
3.85279e+07
3.83034e+07
3.8475e+07
3.82171e+07
3.841e+07
3.81206e+07
3.83299e+07
3.80121e+07
3.82385e+07
3.78966e+07
3.81361e+07
3.77699e+07
3.8018e+07
3.76269e+07
3.78792e+07
3.74629e+07
3.77114e+07
3.72672e+07
3.7494e+07
3.70131e+07
3.71991e+07
3.66865e+07
3.68952e+07
3.64481e+07
3.89909e+07
3.89731e+07
3.88874e+07
3.88489e+07
3.87775e+07
3.8709e+07
3.86403e+07
3.85336e+07
3.84889e+07
3.83657e+07
3.83745e+07
3.82388e+07
3.82625e+07
3.80721e+07
3.81142e+07
3.78948e+07
3.7966e+07
3.77183e+07
3.78235e+07
3.75664e+07
3.76889e+07
3.74081e+07
3.75451e+07
3.72497e+07
3.74001e+07
3.7088e+07
3.72468e+07
3.69171e+07
3.70802e+07
3.67341e+07
3.68977e+07
3.65382e+07
3.66943e+07
3.63208e+07
3.64468e+07
3.60503e+07
3.61252e+07
3.57164e+07
3.58093e+07
3.54892e+07
3.90747e+07
3.90035e+07
3.88905e+07
3.88244e+07
3.87266e+07
3.86103e+07
3.85149e+07
3.83779e+07
3.83052e+07
3.81424e+07
3.81016e+07
3.78927e+07
3.78815e+07
3.76398e+07
3.76564e+07
3.73936e+07
3.74361e+07
3.71697e+07
3.72439e+07
3.69679e+07
3.70607e+07
3.67708e+07
3.68772e+07
3.6576e+07
3.66918e+07
3.63827e+07
3.65023e+07
3.61888e+07
3.63068e+07
3.59935e+07
3.61066e+07
3.58001e+07
3.59006e+07
3.56e+07
3.56647e+07
3.53672e+07
3.53704e+07
3.50965e+07
3.51095e+07
3.49334e+07
3.91166e+07
3.90176e+07
3.88513e+07
3.87494e+07
3.8599e+07
3.84449e+07
3.83218e+07
3.81301e+07
3.80295e+07
3.77825e+07
3.77033e+07
3.74332e+07
3.73877e+07
3.71011e+07
3.71011e+07
3.68213e+07
3.68511e+07
3.65669e+07
3.66163e+07
3.63168e+07
3.6389e+07
3.60842e+07
3.61755e+07
3.58728e+07
3.59756e+07
3.56799e+07
3.57867e+07
3.55031e+07
3.56073e+07
3.53427e+07
3.54393e+07
3.52004e+07
3.52822e+07
3.50763e+07
3.51247e+07
3.49459e+07
3.49334e+07
3.47913e+07
3.47707e+07
3.47122e+07
3.91603e+07
3.9018e+07
3.88147e+07
3.86913e+07
3.84599e+07
3.82782e+07
3.80372e+07
3.78441e+07
3.76507e+07
3.74651e+07
3.72608e+07
3.70504e+07
3.68738e+07
3.66827e+07
3.65661e+07
3.63893e+07
3.62801e+07
3.60895e+07
3.59921e+07
3.58038e+07
3.57359e+07
3.55603e+07
3.55168e+07
3.53548e+07
3.53294e+07
3.51827e+07
3.51713e+07
3.5043e+07
3.50424e+07
3.49357e+07
3.49433e+07
3.48602e+07
3.48711e+07
3.48088e+07
3.48087e+07
3.47623e+07
3.47395e+07
3.47206e+07
3.47045e+07
3.47089e+07
7.22092e+07
7.12019e+07
6.96067e+07
6.88293e+07
6.73438e+07
6.66495e+07
6.51094e+07
6.44483e+07
6.28294e+07
6.21955e+07
6.05102e+07
5.99027e+07
5.81604e+07
5.75773e+07
5.57827e+07
5.52213e+07
5.33782e+07
5.28363e+07
5.09485e+07
5.04238e+07
4.84958e+07
4.79858e+07
4.60222e+07
4.55245e+07
4.3531e+07
4.30436e+07
4.10277e+07
4.05503e+07
3.85234e+07
3.80608e+07
3.60451e+07
3.5612e+07
3.36502e+07
3.3272e+07
3.14167e+07
3.10894e+07
2.93195e+07
2.89584e+07
2.72697e+07
2.72733e+07
7.16707e+07
7.04902e+07
6.94034e+07
6.84456e+07
6.7373e+07
6.65093e+07
6.5323e+07
6.451e+07
6.32005e+07
6.24359e+07
6.1021e+07
6.03066e+07
5.87986e+07
5.81337e+07
5.65388e+07
5.59217e+07
5.42437e+07
5.36725e+07
5.19146e+07
5.13871e+07
4.95519e+07
4.9066e+07
4.71569e+07
4.6711e+07
4.47323e+07
4.43266e+07
4.2285e+07
4.19231e+07
3.98308e+07
3.95227e+07
3.74027e+07
3.71667e+07
3.50551e+07
3.49016e+07
3.28143e+07
3.26894e+07
3.0559e+07
3.04023e+07
2.84329e+07
2.88499e+07
7.00822e+07
6.87364e+07
6.81406e+07
6.70142e+07
6.63946e+07
6.53735e+07
6.46062e+07
6.36571e+07
6.27296e+07
6.18546e+07
6.07821e+07
5.99853e+07
5.87798e+07
5.80622e+07
5.6731e+07
5.60924e+07
5.46401e+07
5.40803e+07
5.251e+07
5.20291e+07
5.03431e+07
4.99421e+07
4.81424e+07
4.78236e+07
4.59133e+07
4.56811e+07
4.36658e+07
4.35281e+07
4.14192e+07
4.13883e+07
3.92068e+07
3.92979e+07
3.70682e+07
3.72819e+07
3.49889e+07
3.52954e+07
3.28735e+07
3.33298e+07
3.10683e+07
3.20772e+07
6.78492e+07
6.64706e+07
6.62851e+07
6.51224e+07
6.48784e+07
6.38337e+07
6.34242e+07
6.24724e+07
6.18815e+07
6.1027e+07
6.02635e+07
5.95123e+07
5.85846e+07
5.79394e+07
5.68533e+07
5.63155e+07
5.50752e+07
5.46459e+07
5.32547e+07
5.29351e+07
5.13962e+07
5.11879e+07
4.95047e+07
4.94101e+07
4.75875e+07
4.76106e+07
4.56562e+07
4.58033e+07
4.37305e+07
4.4011e+07
4.18411e+07
4.22659e+07
4.0019e+07
4.05915e+07
3.82576e+07
3.89768e+07
3.65353e+07
3.74604e+07
3.51493e+07
3.65149e+07
6.50339e+07
6.36053e+07
6.39001e+07
6.26742e+07
6.28794e+07
6.17797e+07
6.18122e+07
6.08204e+07
6.06635e+07
5.97847e+07
5.9442e+07
5.86823e+07
5.81586e+07
5.75218e+07
5.6821e+07
5.63094e+07
5.54347e+07
5.50503e+07
5.40044e+07
5.37488e+07
5.25348e+07
5.24101e+07
5.10317e+07
5.10406e+07
4.95028e+07
4.96491e+07
4.79602e+07
4.82497e+07
4.64227e+07
4.68639e+07
4.49186e+07
4.55213e+07
4.34777e+07
4.42499e+07
4.21136e+07
4.30681e+07
4.08504e+07
4.20442e+07
3.99061e+07
4.14502e+07
6.14907e+07
6.00014e+07
6.08199e+07
5.95124e+07
6.02174e+07
5.90402e+07
5.95734e+07
5.8516e+07
5.8859e+07
5.7926e+07
5.80776e+07
5.72745e+07
5.72364e+07
5.65668e+07
5.63411e+07
5.5808e+07
5.5397e+07
5.50026e+07
5.44085e+07
5.41554e+07
5.33809e+07
5.32713e+07
5.23202e+07
5.23569e+07
5.12346e+07
5.14216e+07
5.0136e+07
5.04791e+07
4.90428e+07
4.95503e+07
4.79807e+07
4.86628e+07
4.69802e+07
4.78488e+07
4.60727e+07
4.71537e+07
4.53209e+07
4.66721e+07
4.48641e+07
4.64651e+07
5.72287e+07
5.57372e+07
5.7031e+07
5.57042e+07
5.68637e+07
5.56772e+07
5.66677e+07
5.56019e+07
5.64141e+07
5.54747e+07
5.61006e+07
5.52931e+07
5.57291e+07
5.50578e+07
5.53043e+07
5.47719e+07
5.48312e+07
5.44391e+07
5.43146e+07
5.40632e+07
5.37592e+07
5.3649e+07
5.31708e+07
5.32039e+07
5.25579e+07
5.27388e+07
5.1933e+07
5.22695e+07
5.13147e+07
5.18173e+07
5.0728e+07
5.14095e+07
5.02047e+07
5.10838e+07
4.97949e+07
5.09114e+07
4.95948e+07
5.10015e+07
4.96502e+07
5.11972e+07
5.25243e+07
5.11812e+07
5.28405e+07
5.16414e+07
5.31256e+07
5.19963e+07
5.33429e+07
5.23295e+07
5.35214e+07
5.26375e+07
5.36581e+07
5.29023e+07
5.37477e+07
5.31155e+07
5.37887e+07
5.32754e+07
5.37803e+07
5.33834e+07
5.37238e+07
5.34442e+07
5.36235e+07
5.3466e+07
5.34879e+07
5.34606e+07
5.33298e+07
5.34438e+07
5.31664e+07
5.34348e+07
5.30192e+07
5.34561e+07
5.29137e+07
5.35344e+07
5.28841e+07
5.37129e+07
5.29976e+07
5.4084e+07
5.33713e+07
5.47485e+07
5.39374e+07
5.53301e+07
4.7854e+07
4.64426e+07
4.85657e+07
4.7348e+07
4.90999e+07
4.81077e+07
4.96926e+07
4.88455e+07
5.03078e+07
4.95571e+07
5.08881e+07
5.02191e+07
5.14051e+07
5.08199e+07
5.18535e+07
5.136e+07
5.22393e+07
5.18473e+07
5.25739e+07
5.22933e+07
5.28713e+07
5.27117e+07
5.31472e+07
5.3118e+07
5.34186e+07
5.35292e+07
5.37042e+07
5.39642e+07
5.40239e+07
5.44437e+07
5.44007e+07
5.49929e+07
5.48702e+07
5.56601e+07
5.55115e+07
5.65475e+07
5.64382e+07
5.7715e+07
5.74474e+07
5.85983e+07
4.1587e+07
4.10328e+07
4.38991e+07
4.33658e+07
4.53687e+07
4.48418e+07
4.64248e+07
4.59453e+07
4.73396e+07
4.69397e+07
4.82033e+07
4.78935e+07
4.90287e+07
4.88092e+07
4.98127e+07
4.96805e+07
5.05545e+07
5.0506e+07
5.1258e+07
5.12911e+07
5.19318e+07
5.20467e+07
5.25886e+07
5.27886e+07
5.32448e+07
5.35362e+07
5.39196e+07
5.43112e+07
5.46343e+07
5.51362e+07
5.54125e+07
5.60377e+07
5.62939e+07
5.7067e+07
5.73658e+07
5.83263e+07
5.87198e+07
5.98346e+07
6.003e+07
6.09414e+07
)
;

boundaryField
{
    back
    {
        type            empty;
    }
    front
    {
        type            empty;
    }
    left
    {
        type            symmetry;
    }
    hole
    {
        type            zeroGradient;
    }
    down
    {
        type            symmetry;
    }
    right
    {
        type            zeroGradient;
    }
    up
    {
        type            zeroGradient;
    }
}


// ************************************************************************* //
