/*--------------------------------*- C++ -*----------------------------------*\
| =========                 |                                                 |
| \\      /  F ield         | OpenFOAM: The Open Source CFD Toolbox           |
|  \\    /   O peration     | Version:  v2012                                 |
|   \\  /    A nd           | Website:  www.openfoam.com                      |
|    \\/     M anipulation  |                                                 |
\*---------------------------------------------------------------------------*/
FoamFile
{
    version     2.0;
    format      ascii;
    class       volVectorField;
    location    "12";
    object      D_0;
}
// * * * * * * * * * * * * * * * * * * * * * * * * * * * * * * * * * * * * * //

dimensions      [0 1 0 0 0 0 0];


internalField   nonuniform List<vector> 
7666
(
(0.00356152 -8.59284e-06 0)
(0.00366862 -6.08123e-05 0)
(0.00147089 -0.00178495 0)
(0.0034127 -0.000119448 0)
(0.00236601 -0.000481615 0)
(0.00177414 -0.000819834 0)
(0.00433776 -0.000117687 0)
(0.00347043 -0.000148502 0)
(0.00126225 -0.00113244 0)
(0.00429486 -9.6244e-05 0)
(0.00349736 -4.54699e-05 0)
(0.00387807 -0.000267716 0)
(0.0034759 -0.000134897 0)
(0.00370714 -0.00010013 0)
(0.00441085 -7.81317e-05 0)
(0.00212829 -0.00102819 0)
(0.00348183 -0.000143608 0)
(0.00210409 -0.000651418 0)
(0.00363075 -0.000261493 0)
(0.00394571 -6.51514e-05 0)
(0.00384471 -1.32778e-05 0)
(0.00288974 -0.000328012 0)
(0.00368578 -0.000118298 0)
(0.00331887 -0.000100326 0)
(0.00171459 -0.000933308 0)
(0.00441065 -7.58256e-05 0)
(0.00168359 -0.000964831 0)
(0.0034284 -4.7852e-05 0)
(0.00348445 -0.000137502 0)
(0.00409058 -0.000323401 0)
(0.00389456 -0.000388093 0)
(0.00212087 -0.000636907 0)
(0.00345156 -5.5603e-05 0)
(0.00414583 -0.00023888 0)
(0.0034233 -0.000102158 0)
(0.00381763 -4.83671e-05 0)
(0.00382922 -4.43136e-05 0)
(0.00399275 -0.000323597 0)
(0.00215197 -0.000579068 0)
(0.00421007 -0.000108109 0)
(0.00284943 -0.00040808 0)
(0.000715001 -0.00206875 0)
(0.000134822 -0.00244318 0)
(0.00332513 -7.43237e-05 0)
(0.00030739 -0.00238381 0)
(0.0043656 -0.000103073 0)
(0.00161505 -0.000902874 0)
(0.00285163 -0.000388333 0)
(0.00269806 -0.000380939 0)
(0.00366996 -7.20585e-06 0)
(0.00343097 -4.77571e-05 0)
(0.00308304 -0.000380984 0)
(0.00435332 -0.000123719 0)
(0.00130451 -0.00110106 0)
(0.00377815 -5.18003e-06 0)
(0.00214121 -0.0010472 0)
(0.00365852 -1.00328e-05 0)
(0.00366827 -8.86237e-06 0)
(0.00181477 -0.0009869 0)
(0.00175528 -0.0008271 0)
(0.00367192 -2.18453e-05 0)
(0.00399988 -0.000327685 0)
(0.0035488 -0.000113633 0)
(0.00353731 -0.000118203 0)
(0.00362859 -1.3005e-05 0)
(0.00269789 -0.000356919 0)
(0.00425222 -5.75096e-05 0)
(0.00363849 -1.2288e-05 0)
(0.00191508 -0.0010884 0)
(0.00181561 -0.000967337 0)
(0.001858 -0.00112495 0)
(0.00450653 -1.46077e-05 0)
(0.00449956 -1.41298e-05 0)
(0.00417661 -0.000294147 0)
(0.00416273 -0.000302373 0)
(0.00439895 -0.000104352 0)
(0.000222056 -0.00246818 0)
(0.00364313 -9.5113e-05 0)
(0.00363218 -9.99738e-05 0)
(0.00367299 -2.38797e-05 0)
(0.00418331 -0.000162322 0)
(0.00442544 -3.43061e-05 0)
(0.00313599 -0.000132889 0)
(0.000168453 -0.00243798 0)
(0.00374604 -0.000332937 0)
(0.00327381 -0.000439567 0)
(0.00326695 -0.00043053 0)
(0.00294534 -0.000365141 0)
(0.00277082 -0.000361674 0)
(0.00398672 -0.000350051 0)
(0.00389977 -0.000147714 0)
(0.00391398 -0.000149553 0)
(0.00309191 -0.000470873 0)
(0.00154653 -0.00130923 0)
(0.000852351 -0.00147685 0)
(0.00237682 -0.000685563 0)
(0.00345232 -0.000102261 0)
(0.0015283 -0.0017602 0)
(0.00363114 -0.000269709 0)
(0.00396139 -6.17342e-05 0)
(0.00307344 -0.000467046 0)
(0.0041072 -0.000321896 0)
(0.00341766 -5.94042e-05 0)
(0.00111497 -0.0018075 0)
(0.00321119 -0.000160636 0)
(0.00227744 -0.000524172 0)
(0.000429669 -0.00228478 0)
(0.00243152 -0.000422614 0)
(0.00435353 -0.000113295 0)
(0.00310076 -0.000406665 0)
(0.00352532 -9.06579e-05 0)
(0.00264056 -0.000325208 0)
(0.00353883 -5.50977e-05 0)
(0.00368567 -1.97072e-05 0)
(0.00349111 -4.18999e-05 0)
(0.00222772 -0.000554016 0)
(0.00344628 -4.39315e-05 0)
(0.00338623 -0.000160615 0)
(0.00391414 -0.000327324 0)
(0.00391645 -0.000319126 0)
(0.00167518 -0.000856738 0)
(0.00428008 -0.000229051 0)
(0.00396047 -0.000220141 0)
(0.00438684 -7.97225e-05 0)
(0.00333951 -9.43941e-05 0)
(0.003682 -8.28952e-07 0)
(0.00245523 -0.00041178 0)
(0.00284642 -0.000261562 0)
(0.00312377 -0.000145665 0)
(0.00371835 -0.000156549 0)
(0.00210268 -0.00110025 0)
(0.00347184 -0.000345815 0)
(0.00395169 -3.0291e-05 0)
(7.82638e-05 -0.00255087 0)
(0.00395543 -0.000226611 0)
(0.00230664 -0.000515675 0)
(0.00419884 -0.000156485 0)
(0.00421108 -0.00011153 0)
(0.00382309 -0.00011518 0)
(0.00340806 -8.70524e-05 0)
(0.00309133 -0.000155318 0)
(0.00445101 -3.3309e-05 0)
(0.0042874 -1.24678e-05 0)
(0.00430448 -1.0645e-05 0)
(0.00423789 -6.08672e-05 0)
(0.00403949 -9.71095e-05 0)
(0.0043301 -0.000116214 0)
(0.00447513 -3.28203e-05 0)
(0.00354609 -1.55068e-05 0)
(0.00357665 -0.000194411 0)
(0.00430967 -9.48953e-05 0)
(0.00268253 -0.000451669 0)
(0.00365754 -2.64166e-05 0)
(0.00294215 -0.000337329 0)
(0.00412268 -4.60602e-05 0)
(0.00413991 -4.3642e-05 0)
(0.002897 -0.000353495 0)
(0.00297304 -0.000191862 0)
(0.00331132 -0.000112308 0)
(0.00423966 -0.000189327 0)
(0.00109573 -0.00173998 0)
(0.00038929 -0.00204099 0)
(0.00292148 -0.000315941 0)
(0.00046044 -0.00226188 0)
(0.00119386 -0.0018088 0)
(0.00119879 -0.00178443 0)
(0.00328946 -0.000117711 0)
(0.003645 -9.15965e-06 0)
(0.00364825 -1.05225e-05 0)
(0.00104602 -0.00176468 0)
(0.00360896 -5.69721e-05 0)
(0.00350691 -3.84313e-05 0)
(0.00310339 -0.000292482 0)
(0.00342593 -0.000373844 0)
(0.00269544 -0.00045903 0)
(0.00376766 -5.27718e-06 0)
(0.00265993 -0.000325263 0)
(0.000705459 -0.00163063 0)
(0.0037881 -0.000384885 0)
(0.00339251 -0.000124501 0)
(0.00293214 -0.000292246 0)
(0.00348286 -6.04318e-05 0)
(0.00323943 -0.000302694 0)
(0.00343456 -0.000118564 0)
(0.00273324 -0.000336674 0)
(0.00233628 -0.000701778 0)
(0.00448467 -4.49882e-06 0)
(0.00410873 -0.000356855 0)
(0.00186825 -0.000921814 0)
(0.00415851 -0.000208495 0)
(0.00359322 -6.08469e-05 0)
(0.0040802 -0.000118195 0)
(0.00408568 -0.000113638 0)
(0.00386735 -0.000112667 0)
(0.0024821 -0.000400756 0)
(0.000980437 -0.00152834 0)
(0.00364472 -7.82817e-05 0)
(0.00437947 -0.000114598 0)
(0.00434106 -0.000110271 0)
(0.003319 -0.000341179 0)
(0.0026511 -0.000331879 0)
(0.0034645 -3.92459e-05 0)
(0.00380468 -0.000378236 0)
(0.00223664 -0.000544068 0)
(0.00398025 -2.12602e-05 0)
(0.000837103 -0.00191067 0)
(0.0041461 -5.66572e-05 0)
(0.00304408 -0.000326979 0)
(0.0035003 -3.29605e-05 0)
(0.00340579 -0.000108674 0)
(0.00131641 -0.0012835 0)
(0.00351394 -3.06308e-05 0)
(0.00427532 -1.11307e-05 0)
(0.00439664 -3.51002e-05 0)
(0.00446589 -3.08255e-05 0)
(0.0035691 -3.14751e-05 0)
(0.00354903 -8.25111e-05 0)
(0.00165283 -0.000881097 0)
(0.00358906 -2.8284e-05 0)
(0.00293949 -0.000463272 0)
(0.000622693 -0.00209762 0)
(0.000789307 -0.00199127 0)
(0.00389902 -0.000393939 0)
(0.00430837 -7.61975e-06 0)
(0.00334029 -0.000361496 0)
(0.00300251 -0.000195578 0)
(0.000522489 -0.00220564 0)
(0.000160264 -0.00250641 0)
(0.0038671 -2.07486e-06 0)
(0.00330688 -0.000123975 0)
(0.00333033 -0.000117497 0)
(0.0040943 -0.00023779 0)
(0.0027988 -0.000352446 0)
(0.00244206 -0.000680181 0)
(0.00451371 -2.16238e-06 0)
(0.00413829 -0.000357559 0)
(0.000340325 -0.00235714 0)
(0.00308632 -0.000389044 0)
(0.00339967 -0.000156122 0)
(0.0041241 -0.000245508 0)
(0.00423763 -3.07199e-05 0)
(0.00320365 -0.000230392 0)
(0.00351994 -0.000107752 0)
(0.00358064 -1.96101e-05 0)
(0.00353225 -5.85985e-05 0)
(0.00361243 -4.64343e-05 0)
(0.00343405 -0.000150833 0)
(0.00355793 -5.1636e-05 0)
(0.00121672 -0.00168255 0)
(0.0025845 -0.000352068 0)
(0.0026205 -0.00033567 0)
(0.00364139 -3.17233e-05 0)
(0.00218869 -0.000580158 0)
(0.00344624 -0.000365087 0)
(0.00445147 -5.26863e-06 0)
(0.00407015 -0.000364568 0)
(9.91867e-05 -0.00253667 0)
(0.00294202 -0.000335262 0)
(0.00247659 -0.000401766 0)
(0.00310098 -0.000388682 0)
(0.00289614 -0.00022938 0)
(0.00187595 -0.000812138 0)
(0.00218052 -0.00056278 0)
(0.00293326 -0.000359367 0)
(0.00435386 -9.39172e-05 0)
(0.00344524 -0.000119996 0)
(0.00350902 -9.11186e-05 0)
(0.00207641 -0.000615754 0)
(4.7302e-05 -0.00241626 0)
(0.00352727 -1.909e-05 0)
(0.00439688 -0.000102108 0)
(0.00437619 -9.7424e-05 0)
(0.00406101 -0.000252663 0)
(0.00311021 -0.000392712 0)
(0.00351989 -2.42342e-05 0)
(0.00357019 -5.21565e-05 0)
(0.000458689 -0.00223323 0)
(0.000584331 -0.00201117 0)
(0.0029012 -0.000215953 0)
(0.00289947 -0.000218674 0)
(0.00433913 -0.000131617 0)
(0.00243346 -0.000521756 0)
(0.00341832 -7.35841e-05 0)
(0.00407602 -0.000299306 0)
(0.0033177 -8.11751e-05 0)
(0.00315247 -0.000178446 0)
(0.00292739 -0.000331163 0)
(0.00198045 -0.000910046 0)
(0.00318939 -0.000164147 0)
(0.00438673 -3.88145e-05 0)
(0.00435186 -4.11521e-05 0)
(0.00112798 -0.00164027 0)
(0.00157632 -0.000946912 0)
(0.00330779 -7.96123e-05 0)
(0.00354716 -8.64656e-05 0)
(0.00124289 -0.00164898 0)
(0.0043867 -3.36236e-05 0)
(0.00355899 -1.60774e-05 0)
(0.00356611 -1.5642e-05 0)
(0.00364346 -0.000297331 0)
(0.00401301 -5.0325e-05 0)
(0.00362283 -4.67249e-05 0)
(0.00403724 -9.34912e-05 0)
(0.00454738 -6.46437e-06 0)
(0.00420051 -0.000313542 0)
(0.00357549 -2.55501e-05 0)
(0.00387845 -1.17451e-06 0)
(0.00265682 -0.000508102 0)
(0.00320193 -0.000117629 0)
(0.00373176 -1.74197e-05 0)
(0.00347233 -4.1211e-05 0)
(0.00365057 -7.40523e-06 0)
(0.00360844 -1.01288e-05 0)
(0.00361063 -8.39218e-06 0)
(0.00365144 -4.22713e-05 0)
(0.00363283 -0.000314036 0)
(0.00402733 -4.39076e-05 0)
(0.00315696 -0.000127276 0)
(0.00362755 -0.000295338 0)
(0.00399868 -5.08197e-05 0)
(0.00313203 -0.000174013 0)
(0.0031136 -0.000182486 0)
(0.000767632 -0.00157895 0)
(0.00345254 -0.000253833 0)
(0.00425785 -0.000182756 0)
(0.00363836 -4.31061e-05 0)
(0.00362591 -7.87393e-07 0)
(0.00388446 -0.000273459 0)
(0.00363918 -1.48314e-05 0)
(0.00326655 -9.72653e-05 0)
(0.00328759 -9.2224e-05 0)
(0.00294388 -0.000312443 0)
(0.00133843 -0.00175685 0)
(0.00416442 -0.000211524 0)
(0.0013667 -0.00106492 0)
(0.00136466 -0.00106284 0)
(0.00225992 -0.00060004 0)
(0.00343915 -4.86225e-05 0)
(0.00448726 -5.91433e-06 0)
(0.00411643 -0.000348876 0)
(0.00333538 -7.33773e-05 0)
(0.00236688 -0.000614915 0)
(0.00345515 -4.23919e-05 0)
(0.00254287 -0.000899196 0)
(0.00308503 -0.000291978 0)
(0.00357203 -0.000327027 0)
(0.00399862 -3.83612e-05 0)
(0.00224927 -0.000596241 0)
(0.00336239 -0.000126677 0)
(0.00453342 -7.88501e-06 0)
(0.00418699 -0.000313463 0)
(0.000651183 -0.00200555 0)
(0.00200181 -0.000881462 0)
(0.00384438 -1.12857e-05 0)
(0.00177791 -0.0010233 0)
(0.000373643 -0.0023359 0)
(0.00331059 -0.000105245 0)
(0.00422224 -3.26611e-05 0)
(0.00204177 -0.000637504 0)
(0.00349065 -4.34479e-05 0)
(0.00354894 -0.000224089 0)
(0.000354995 -0.00235134 0)
(0.00314167 -0.000387519 0)
(0.000577546 -0.00209603 0)
(0.00437662 -2.86009e-05 0)
(0.00156356 -0.000928199 0)
(0.00218736 -0.000555389 0)
(0.00230644 -0.000493183 0)
(0.00425826 -0.000122094 0)
(0.000933467 -0.00157011 0)
(0.00385528 -0.000270296 0)
(0.00344378 -0.000261515 0)
(0.00346714 -7.18746e-05 0)
(0.00356973 -0.000223314 0)
(0.0044615 -5.96009e-05 0)
(0.00347546 -6.1716e-05 0)
(0.00322297 -0.000220355 0)
(0.00133255 -0.00182206 0)
(0.00345848 -4.94368e-05 0)
(0.000754462 -0.00196882 0)
(0.00134249 -0.0012513 0)
(0.00329596 -0.000198586 0)
(0.00356849 -3.44995e-06 0)
(0.00269082 -0.000497214 0)
(0.00235305 -0.000476995 0)
(0.00348723 -0.000264846 0)
(0.00244886 -0.000697878 0)
(0.000926653 -0.00161156 0)
(0.00126978 -0.00173596 0)
(0.00406501 -0.000320378 0)
(0.00408639 -0.00031554 0)
(0.00353593 -2.17019e-05 0)
(0.00354625 -1.8663e-05 0)
(0.000163195 -0.0024994 0)
(0.000905166 -0.0016141 0)
(0.000702984 -0.00212395 0)
(0.0036624 -7.39444e-05 0)
(0.00426165 -0.000233552 0)
(0.00350307 -4.64733e-05 0)
(0.00338999 -0.000147525 0)
(0.00223445 -0.000558635 0)
(0.00300592 -0.000176928 0)
(0.00353484 -4.24438e-05 0)
(0.00344935 -5.40851e-05 0)
(0.000707313 -0.00189238 0)
(0.00335624 -0.000212843 0)
(0.00335047 -0.000220294 0)
(0.00221654 -0.000537761 0)
(0.00201259 -0.000672457 0)
(0.00132504 -0.001171 0)
(0.00134687 -0.00133 0)
(0.00409298 -0.000296138 0)
(0.00338023 -0.000114146 0)
(0.0020096 -0.000668895 0)
(0.00138161 -0.00128664 0)
(0.0027358 -0.000338323 0)
(0.00277003 -0.000328529 0)
(0.00405548 -8.91192e-05 0)
(0.00430769 -4.37232e-05 0)
(0.000537249 -0.0021959 0)
(0.00332466 -0.000140974 0)
(0.00384634 -0.000133882 0)
(0.0043141 -0.000164965 0)
(0.00373583 -0.000144787 0)
(0.00362718 -3.21582e-05 0)
(0.00389776 -0.000143037 0)
(0.00331305 -8.72345e-05 0)
(0.00258296 -0.000464161 0)
(0.00371998 -0.0003358 0)
(0.00178543 -0.00121127 0)
(0.00255395 -0.000934559 0)
(0.00126638 -0.00177708 0)
(0.00332177 -0.000105227 0)
(0.00422891 -0.000312809 0)
(0.00457519 -3.6256e-06 0)
(0.00435454 -3.85258e-05 0)
(0.00332854 -7.72913e-05 0)
(0.00369523 -9.69415e-05 0)
(0.00369616 -0.000163203 0)
(0.00362159 -0.000171922 0)
(0.00226214 -0.00084899 0)
(0.00352768 -2.20526e-05 0)
(0.00373403 -9.55084e-05 0)
(0.00374919 -9.7926e-05 0)
(0.00439416 -5.8046e-05 0)
(0.00350018 -0.000111425 0)
(0.00326364 -0.000378441 0)
(0.0039449 -0.000111368 0)
(0.00392857 -0.000115999 0)
(0.00437286 -8.82434e-05 0)
(0.00355048 -1.35881e-05 0)
(0.00345078 -9.18766e-05 0)
(0.00299408 -0.000180561 0)
(0.000489927 -0.00220568 0)
(0.00354201 -3.94481e-05 0)
(0.00282748 -0.000286261 0)
(0.00423682 -0.000126257 0)
(0.00324479 -9.99225e-05 0)
(0.0037879 -9.94301e-05 0)
(0.00296586 -0.000228878 0)
(0.000195955 -0.00247623 0)
(0.00322395 -0.000106963 0)
(0.000526119 -0.00212869 0)
(0.000786262 -0.00191676 0)
(0.00339998 -9.24542e-05 0)
(0.00419954 -0.000103307 0)
(0.00419567 -0.000100421 0)
(0.00268795 -0.000313797 0)
(0.00297039 -0.000293779 0)
(0.00337774 -7.67506e-05 0)
(0.00301617 -0.000241189 0)
(0.00430467 -0.000128417 0)
(0.00428761 -0.000134315 0)
(0.00193841 -0.000790673 0)
(0.00181437 -0.000773421 0)
(0.00284283 -0.000284895 0)
(0.00441732 -3.25877e-05 0)
(0.00322342 -0.000298468 0)
(0.00413232 -2.48049e-05 0)
(0.00265149 -0.000780406 0)
(0.00339482 -9.95496e-05 0)
(0.00233278 -0.000649689 0)
(0.00373107 -0.000404544 0)
(0.00417347 -1.05823e-05 0)
(0.00375366 -0.00039921 0)
(0.00418889 -1.16207e-05 0)
(0.00268907 -0.000739403 0)
(0.00324307 -0.000126149 0)
(0.00113215 -0.00167497 0)
(0.00385626 -0.000213448 0)
(0.00406626 -0.000195332 0)
(0.00342233 -8.70191e-05 0)
(0.00424002 -0.00031336 0)
(0.0045864 -2.59721e-06 0)
(0.00387397 -7.49151e-05 0)
(0.00157066 -0.00127413 0)
(0.0010676 -0.00173056 0)
(0.000968963 -0.00182624 0)
(0.00405453 -8.54663e-05 0)
(0.00282732 -0.00076421 0)
(0.00362663 -5.48052e-05 0)
(0.00344346 -6.06996e-05 0)
(0.000642791 -0.00202807 0)
(0.00286256 -0.000711631 0)
(0.00343174 -6.49116e-05 0)
(0.00372221 -1.6987e-05 0)
(0.00445981 -3.65203e-05 0)
(0.000889981 -0.00198189 0)
(0.00352519 -1.74797e-05 0)
(0.0040659 -4.40745e-05 0)
(0.00375404 -3.55912e-05 0)
(0.00230958 -0.000504369 0)
(0.00229998 -0.000523821 0)
(0.00444528 -7.51889e-06 0)
(0.00442675 -9.32804e-06 0)
(0.00404879 -0.000357614 0)
(0.00406806 -0.000357321 0)
(0.00378276 -0.000179411 0)
(0.00292692 -0.000215024 0)
(0.00364183 -1.74086e-05 0)
(0.00364746 -1.8976e-05 0)
(8.08102e-05 -0.00238251 0)
(0.00223906 -0.000570767 0)
(0.00309631 -0.000271597 0)
(0.00368295 -0.000314766 0)
(0.00332913 -0.000308111 0)
(0.00439122 -2.82735e-05 0)
(0.000642766 -0.00197132 0)
(0.00385329 -1.4534e-05 0)
(0.00449806 -2.33968e-06 0)
(0.00411969 -0.000362218 0)
(0.00182008 -0.00112562 0)
(0.00231104 -0.000493097 0)
(0.00364372 -2.6177e-05 0)
(0.00158491 -0.000934254 0)
(0.00333715 -0.00015275 0)
(0.000278934 -0.00241608 0)
(0.00255975 -0.000386876 0)
(0.00392383 -0.000191682 0)
(0.00393268 -0.00018563 0)
(0.000678791 -0.00200058 0)
(0.00185588 -0.00107286 0)
(0.000471712 -0.00225017 0)
(0.0034215 -0.000206459 0)
(0.00258162 -0.000374529 0)
(0.00176207 -0.000803826 0)
(0.00173951 -0.000817696 0)
(0.00139153 -0.00104036 0)
(0.00334364 -0.000352706 0)
(0.00433815 -6.89572e-05 0)
(0.00216673 -0.00056342 0)
(0.00310773 -0.000413717 0)
(0.00243305 -0.000451777 0)
(0.000502168 -0.00222198 0)
(0.00338908 -0.000170297 0)
(0.00342092 -0.00013696 0)
(0.00369853 -0.000106085 0)
(0.00356723 -5.88859e-06 0)
(0.000260684 -0.00243023 0)
(0.00297197 -0.000212759 0)
(0.00233422 -0.000497043 0)
(0.000134121 -0.00252387 0)
(0.00367614 -0.000124116 0)
(0.00314912 -0.000127585 0)
(0.00302886 -0.000348795 0)
(0.00352708 -2.24513e-05 0)
(0.00373938 -3.77982e-05 0)
(0.00451095 -2.55718e-05 0)
(0.000997799 -0.00196875 0)
(0.00367521 -9.85911e-05 0)
(0.00364866 -0.000270711 0)
(0.00397582 -6.1592e-05 0)
(0.00323418 -0.000429982 0)
(0.00446736 -4.2853e-05 0)
(0.00271878 -0.00036141 0)
(0.00347866 -3.83637e-05 0)
(0.00178328 -0.000789672 0)
(0.00149714 -0.00134846 0)
(0.0018304 -0.0007598 0)
(0.00189833 -0.000814312 0)
(0.000731526 -0.00164988 0)
(0.00343286 -5.23719e-05 0)
(0.00412021 -2.35964e-05 0)
(0.00332522 -0.000179517 0)
(0.00323831 -0.000337969 0)
(0.00115697 -0.00136605 0)
(0.00165058 -0.00107727 0)
(0.00436774 -4.17541e-05 0)
(0.00429719 -0.000172036 0)
(0.00208174 -0.00073286 0)
(0.0040538 -0.000318175 0)
(0.00165798 -0.000936317 0)
(0.00320132 -0.000237534 0)
(0.00339936 -5.48986e-05 0)
(0.00382688 -5.18851e-05 0)
(0.00340075 -0.000105174 0)
(0.00386063 -0.000218778 0)
(0.00441342 -8.60859e-06 0)
(0.00403083 -0.000364374 0)
(0.00401113 -0.000188178 0)
(0.00316005 -0.000329353 0)
(0.00123527 -0.00118774 0)
(0.00275796 -0.000436078 0)
(0.00273338 -0.000449903 0)
(0.00374173 -1.75973e-06 0)
(0.00363658 -6.04574e-05 0)
(0.00322024 -0.000238775 0)
(0.00375147 -3.25589e-05 0)
(0.00221909 -0.000863273 0)
(0.000474572 -0.00224906 0)
(0.00161332 -0.00109882 0)
(0.00137322 -0.00105231 0)
(0.00358227 -6.46104e-06 0)
(0.00318217 -0.000296023 0)
(0.00381836 -5.60581e-05 0)
(0.00417015 -0.000200845 0)
(0.00449803 -1.73253e-05 0)
(0.00447909 -2.00352e-05 0)
(0.00415665 -0.000287129 0)
(0.00417535 -0.0002866 0)
(0.00426757 -0.00011723 0)
(0.00358069 -7.73921e-06 0)
(0.000431263 -0.00218623 0)
(0.00334431 -0.000176898 0)
(0.00427568 -0.000101854 0)
(0.0032529 -0.00013199 0)
(0.0032417 -9.93312e-05 0)
(0.00352053 -1.77023e-05 0)
(0.00336425 -0.000174844 0)
(0.00154018 -0.000973463 0)
(0.00402035 -0.000250331 0)
(0.000345793 -0.0023289 0)
(0.00328301 -0.00011758 0)
(0.000382648 -0.00221957 0)
(0.00327384 -0.000394238 0)
(0.00355639 -3.13691e-05 0)
(0.0037153 -0.000327097 0)
(0.00318493 -0.000342326 0)
(0.00356004 -0.000335413 0)
(0.00399939 -3.50561e-05 0)
(0.00276909 -0.000291337 0)
(0.00377662 -8.57859e-05 0)
(0.00354589 -1.11705e-05 0)
(0.00336934 -0.000156796 0)
(0.00342221 -5.32234e-05 0)
(0.00410033 -0.00030781 0)
(0.00344354 -4.50817e-05 0)
(0.00354504 -1.07521e-05 0)
(0.000245661 -0.00244636 0)
(0.00345668 -4.2112e-05 0)
(0.00230731 -0.000501385 0)
(0.000239524 -0.00245563 0)
(0.00343234 -0.000188357 0)
(0.00345324 -0.000186816 0)
(0.00128249 -0.00138375 0)
(0.00187441 -0.000903955 0)
(0.00241938 -0.000432853 0)
(0.00242307 -0.000433838 0)
(0.00449471 -3.10959e-05 0)
(0.00449375 -3.02793e-05 0)
(0.00343789 -8.96773e-05 0)
(0.00176813 -0.000927268 0)
(0.00294802 -0.000274166 0)
(0.000648626 -0.00206479 0)
(0.00379958 -5.8283e-05 0)
(0.00297837 -0.00025716 0)
(0.00356395 -2.92291e-06 0)
(0.000352853 -0.00231558 0)
(0.001261 -0.00138652 0)
(0.0036969 -0.000326995 0)
(0.00392812 -1.74252e-05 0)
(0.00353606 -1.78003e-05 0)
(0.0035257 -4.95081e-05 0)
(0.00356188 -2.76876e-05 0)
(0.00290882 -0.000294562 0)
(0.00166724 -0.00131162 0)
(0.00390645 -0.000270536 0)
(0.00445861 -5.8939e-05 0)
(0.00169164 -0.0011352 0)
(0.00352593 -4.76917e-05 0)
(0.00165796 -0.00114659 0)
(0.00266784 -0.000400929 0)
(0.00157291 -0.000932444 0)
(0.00389486 -0.000334793 0)
(0.00349811 -0.000253538 0)
(0.00276852 -0.000297716 0)
(0.00391269 -5.77263e-06 0)
(0.00271762 -0.000290717 0)
(0.00161838 -0.000911388 0)
(0.00164437 -0.000889963 0)
(0.00157658 -0.000921736 0)
(0.00385773 -7.80269e-05 0)
(0.00368599 -1.8576e-05 0)
(0.00350742 -0.000233024 0)
(0.00422172 -0.000104257 0)
(0.00196537 -0.000738581 0)
(0.00198487 -0.000675638 0)
(0.00183499 -0.00106423 0)
(0.00197231 -0.000681049 0)
(0.00172938 -0.000822816 0)
(0.00421133 -5.87651e-05 0)
(0.000177369 -0.00250823 0)
(0.00177813 -0.00109838 0)
(0.0029124 -0.000410897 0)
(0.00321807 -0.000130785 0)
(0.00278741 -0.000427896 0)
(0.000134097 -0.00220033 0)
(0.00350881 -3.26257e-05 0)
(0.00365745 -0.00015909 0)
(0.00220653 -0.000567716 0)
(0.00342364 -5.06656e-05 0)
(0.00260929 -0.000339153 0)
(0.000971973 -0.00198384 0)
(0.00293831 -0.000436046 0)
(0.00342921 -0.000339084 0)
(0.00391913 -3.14231e-05 0)
(0.00371989 -0.000397363 0)
(0.00416129 -1.33664e-05 0)
(0.00322213 -0.000104693 0)
(0.00284864 -0.000433969 0)
(0.000231716 -0.00245527 0)
(0.00272903 -0.000315776 0)
(0.0045718 -7.74001e-06 0)
(0.00426335 -0.000264833 0)
(0.00362832 -2.34878e-05 0)
(0.00101416 -0.00172508 0)
(0.00440546 -2.20212e-05 0)
(0.000885583 -0.00152945 0)
(0.00148272 -0.00139612 0)
(0.00425048 -2.51606e-05 0)
(0.00264134 -0.000618354 0)
(0.00370277 -0.000397943 0)
(0.00414834 -1.36402e-05 0)
(0.00333796 -0.000391049 0)
(0.00335653 -0.000394782 0)
(0.000956244 -0.00171478 0)
(0.00291663 -0.000303785 0)
(0.00400385 -0.000194187 0)
(0.000866116 -0.00203772 0)
(0.00270457 -0.000330871 0)
(0.000963949 -0.00176498 0)
(0.000870114 -0.00146373 0)
(0.000697601 -0.00169045 0)
(0.000958024 -0.00169552 0)
(0.00373049 -0.000140239 0)
(0.00262937 -0.000604438 0)
(0.00441198 -2.34924e-05 0)
(0.00227823 -0.000503665 0)
(0.000657078 -0.00214593 0)
(0.00384686 -0.000129231 0)
(0.00334981 -6.83562e-05 0)
(0.0039118 -0.000202837 0)
(0.00391475 -0.000207029 0)
(0.00335814 -6.63244e-05 0)
(0.00362936 -2.44266e-05 0)
(0.00415829 -0.000229985 0)
(0.00215359 -0.000570137 0)
(0.0022429 -0.000530035 0)
(0.00227962 -0.000512519 0)
(0.00359755 -2.59086e-05 0)
(0.002269 -0.000542353 0)
(0.00414512 -6.01857e-05 0)
(0.00281085 -0.000441588 0)
(0.00338268 -0.00038835 0)
(0.0014737 -0.00121828 0)
(0.00397232 -1.88321e-05 0)
(0.00384672 -1.91337e-05 0)
(0.00186856 -0.000737138 0)
(0.00435129 -8.99538e-05 0)
(0.0019613 -0.000983014 0)
(0.000196638 -0.00235561 0)
(0.0014383 -0.00123763 0)
(0.00399417 -0.000341323 0)
(0.00437736 -2.07251e-05 0)
(0.00423858 -2.71188e-05 0)
(0.00365361 -4.51327e-05 0)
(0.00203484 -0.00114832 0)
(0.00335145 -7.01259e-05 0)
(0.00431554 -8.23728e-05 0)
(0.00431314 -8.04111e-05 0)
(0.00432578 -7.32707e-05 0)
(0.000211773 -0.0024794 0)
(0.00384483 -4.33692e-05 0)
(0.0039019 -0.000317568 0)
(0.00387843 -0.000114606 0)
(0.00387514 -0.000108121 0)
(0.00322499 -0.000238448 0)
(0.00245341 -0.000508127 0)
(0.00198276 -0.00115156 0)
(0.000491631 -0.00218062 0)
(0.000506048 -0.00199609 0)
(0.00366393 -9.19116e-05 0)
(0.00411297 -0.000284657 0)
(0.00412757 -0.000284576 0)
(0.00146215 -0.00139573 0)
(0.00378707 -0.000183873 0)
(0.000515532 -0.00196234 0)
(0.00386389 -1.34635e-05 0)
(0.00384414 -2.47658e-05 0)
(0.00385715 -2.37535e-05 0)
(0.00378883 -1.88518e-05 0)
(2.53074e-05 -0.0026055 0)
(0.00348045 -0.000249079 0)
(0.000655399 -0.00203834 0)
(0.00351442 -2.74852e-05 0)
(0.00260751 -0.000461323 0)
(0.00382672 -0.000109875 0)
(0.00303333 -0.00035575 0)
(0.00367884 -3.49449e-05 0)
(0.00424026 -9.06568e-05 0)
(0.00373427 -1.91884e-05 0)
(0.00246054 -0.000439752 0)
(0.00300216 -0.000181895 0)
(0.00109322 -0.00158019 0)
(0.00434368 -9.49977e-05 0)
(0.00288181 -0.000250583 0)
(0.00448103 -3.95997e-05 0)
(0.00411928 -1.92756e-05 0)
(0.00377962 -1.24595e-05 0)
(0.00378966 -1.2517e-05 0)
(0.000501359 -0.00222927 0)
(0.00444936 -1.47608e-05 0)
(0.00205805 -0.000757074 0)
(0.00362599 -1.18893e-05 0)
(0.00417013 -0.000249107 0)
(0.00352887 -0.000232665 0)
(0.00402205 -0.000295886 0)
(0.00351917 -1.63174e-05 0)
(0.00378709 -2.0862e-05 0)
(0.00175824 -0.000884158 0)
(0.00231632 -0.00133113 0)
(0.00356258 -9.40151e-05 0)
(0.00322725 -0.000313782 0)
(0.00350164 -3.16724e-05 0)
(0.0033997 -6.35263e-05 0)
(0.00298664 -0.000284057 0)
(0.0044767 -3.09395e-05 0)
(0.00405031 -0.000206594 0)
(0.00406218 -0.000207945 0)
(0.00314998 -0.000313224 0)
(0.00390396 -0.000379839 0)
(0.00294068 -0.000234275 0)
(0.000451974 -0.00210808 0)
(0.00345129 -0.000151343 0)
(0.00264534 -0.000413755 0)
(0.00276653 -0.000463188 0)
(0.00262201 -0.000333032 0)
(0.00355393 -9.17162e-05 0)
(0.00398215 -0.000128061 0)
(0.00271277 -0.00062689 0)
(0.0034845 -6.13231e-05 0)
(0.00365747 -5.86371e-05 0)
(0.00248754 -0.000685819 0)
(0.00326709 -0.000119203 0)
(0.00348245 -6.44311e-05 0)
(0.00342159 -0.000157381 0)
(0.00339642 -0.000392841 0)
(0.0011803 -0.00175783 0)
(0.00411359 -0.000243433 0)
(0.00413846 -0.000204017 0)
(0.00397415 -0.000140755 0)
(0.00380103 -0.000192298 0)
(0.00318859 -0.000463846 0)
(0.00279784 -0.000258697 0)
(0.00276941 -0.000270511 0)
(0.00192146 -0.00103271 0)
(0.000437396 -0.00199095 0)
(0.00416716 -0.000262083 0)
(0.00235297 -0.000491596 0)
(0.00185685 -0.000746383 0)
(0.00238309 -0.000469873 0)
(0.0030026 -0.000429403 0)
(0.00384593 -4.97763e-05 0)
(0.00385687 -5.22859e-05 0)
(0.00296542 -0.000448149 0)
(0.0034958 -6.27388e-05 0)
(0.0034988 -5.92476e-05 0)
(0.00390616 -0.000117007 0)
(0.00390031 -0.000112787 0)
(0.00364533 -3.94439e-06 0)
(0.0036538 -4.07358e-06 0)
(0.00321258 -0.000385049 0)
(0.00341471 -5.55484e-05 0)
(0.00422711 -0.000131744 0)
(0.00354805 -1.30341e-05 0)
(0.00334488 -0.000129928 0)
(0.00331713 -8.97579e-05 0)
(0.00351912 -2.69778e-05 0)
(0.00414582 -4.03257e-05 0)
(0.00312146 -0.00020132 0)
(0.00315015 -0.000197668 0)
(0.00362397 -6.43292e-05 0)
(0.00340323 -0.000321868 0)
(0.00388313 -3.58256e-05 0)
(0.00319561 -0.000121551 0)
(0.00337187 -6.2002e-05 0)
(0.00324307 -0.00011731 0)
(0.00339003 -0.000183957 0)
(0.00326904 -0.000112003 0)
(0.003367 -0.000188929 0)
(0.00072335 -0.00200628 0)
(0.00344505 -0.000354583 0)
(0.00394435 -2.72249e-05 0)
(0.000916081 -0.00153941 0)
(0.00326518 -0.000332726 0)
(0.0039078 -0.000137881 0)
(0.00413657 -3.68868e-05 0)
(0.00373299 -8.97318e-07 0)
(0.00419258 -6.08304e-05 0)
(0.00286567 -0.000411512 0)
(0.00287394 -0.000418554 0)
(0.00236144 -0.000464226 0)
(0.00291077 -0.000469995 0)
(0.00313125 -0.000194252 0)
(0.00313964 -0.00014352 0)
(0.00355482 -4.03888e-06 0)
(0.00404343 -6.40351e-05 0)
(0.00233776 -0.000773102 0)
(0.000462498 -0.00154995 0)
(0.00273148 -0.000594562 0)
(0.00438599 -1.77839e-05 0)
(0.00239818 -0.000444629 0)
(0.00247597 -0.000647402 0)
(0.0041843 -6.58646e-05 0)
(0.00416487 -0.00024565 0)
(0.00280914 -0.000444578 0)
(0.00354536 -0.000217223 0)
(0.00055495 -0.00210894 0)
(0.00168273 -0.00127613 0)
(0.00345094 -8.53794e-05 0)
(0.00402867 -0.000101417 0)
(0.00261664 -0.000422553 0)
(0.000596626 -0.00203816 0)
(0.00253869 -0.00111222 0)
(0.00386385 -3.90734e-06 0)
(0.00304126 -0.000362422 0)
(0.00237185 -0.00112891 0)
(0.00282835 -0.000271316 0)
(6.45587e-05 -0.00227003 0)
(0.00341686 -8.14077e-05 0)
(0.00353888 -0.000240155 0)
(0.00188579 -0.00073605 0)
(0.00192456 -0.000731577 0)
(0.00196498 -0.000710247 0)
(0.00433702 -9.18668e-05 0)
(0.00353955 -0.000106642 0)
(0.00331091 -0.00016388 0)
(0.00238936 -0.00107938 0)
(0.00355334 -1.49268e-05 0)
(0.0039655 -0.000357419 0)
(0.00221221 -0.000592226 0)
(0.00396787 -2.95305e-05 0)
(0.00349364 -0.000348545 0)
(0.00337658 -0.000281045 0)
(0.00401571 -0.000256573 0)
(0.000592741 -0.00153724 0)
(0.00283524 -0.00046103 0)
(0.00293003 -0.000398854 0)
(0.00242642 -0.000478668 0)
(0.00244009 -0.000480306 0)
(0.000497695 -0.00214709 0)
(0.00402545 -0.000278363 0)
(0.000417785 -0.00229688 0)
(0.00339423 -5.8354e-05 0)
(0.00397024 -0.000114071 0)
(0.00339368 -0.00019314 0)
(0.00444966 -1.64424e-05 0)
(0.00341447 -5.17855e-05 0)
(0.00308858 -0.000161133 0)
(0.00333024 -8.51599e-05 0)
(0.00306569 -0.000169055 0)
(0.00369311 -6.5395e-05 0)
(0.00268058 -0.000307309 0)
(0.00406697 -7.2886e-05 0)
(0.0040529 -7.09151e-05 0)
(1.40738e-05 -0.00262507 0)
(0.00339897 -6.99697e-05 0)
(0.0028663 -0.000439501 0)
(0.00216554 -0.000669166 0)
(0.00222022 -0.000634357 0)
(0.00166519 -0.000863542 0)
(0.00323559 -0.000107799 0)
(0.00310501 -0.000315238 0)
(0.00313208 -0.000132697 0)
(0.00322143 -0.000275905 0)
(0.00292424 -0.000377056 0)
(0.00306913 -0.000171011 0)
(0.00107281 -0.00192452 0)
(0.00174227 -0.00122523 0)
(0.00280448 -0.000485796 0)
(0.00321348 -0.000458914 0)
(0.00136212 -0.00151326 0)
(0.000567078 -0.00212161 0)
(0.00179765 -0.000858735 0)
(0.00276256 -0.000355723 0)
(0.00235487 -0.000486273 0)
(0.00353942 -1.6336e-05 0)
(0.00111368 -0.0016414 0)
(0.00215159 -0.000779153 0)
(0.00327752 -0.000106264 0)
(0.00175162 -0.001373 0)
(0.00307758 -0.000156757 0)
(0.00372307 -0.000413703 0)
(0.00417081 -7.58957e-06 0)
(0.0017176 -0.00140946 0)
(0.00290128 -0.000427116 0)
(0.00175265 -0.000926638 0)
(0.00346858 -0.00015951 0)
(0.00347322 -0.000163786 0)
(0.000252393 -0.00241509 0)
(0.00440976 -5.57164e-05 0)
(0.00321274 -0.000439701 0)
(0.00375955 -0.000324008 0)
(0.00441565 -3.698e-05 0)
(0.000551049 -0.0021539 0)
(0.00341062 -0.000336331 0)
(0.00390422 -3.18341e-05 0)
(0.000817606 -0.00197805 0)
(0.000215542 -0.00243661 0)
(0.00344467 -0.0001624 0)
(0.00376925 -0.000383013 0)
(0.00419099 -1.7131e-05 0)
(0.00295691 -0.000205751 0)
(0.00372881 -1.18461e-05 0)
(0.00116851 -0.00189911 0)
(0.000110004 -0.00256379 0)
(0.00377149 -1.07427e-06 0)
(0.00376004 -8.61842e-05 0)
(0.00340352 -5.94152e-05 0)
(0.000961887 -0.00150264 0)
(0.000191144 -0.00238531 0)
(0.00197153 -0.000702311 0)
(0.00343959 -6.15516e-05 0)
(0.00192778 -0.000728034 0)
(0.00433366 -6.74829e-05 0)
(0.00437986 -0.000106918 0)
(0.000276145 -0.00219454 0)
(0.00279515 -0.000283626 0)
(0.00385962 -5.81974e-05 0)
(0.00408238 -0.00024643 0)
(0.00092412 -0.00187443 0)
(0.0039666 -0.000132602 0)
(0.0034358 -0.000104899 0)
(0.00367443 -0.000335441 0)
(0.0040829 -3.61088e-05 0)
(0.00324596 -0.000103131 0)
(0.0039661 -0.000110132 0)
(0.00355538 -0.000297879 0)
(0.00395178 -4.79123e-05 0)
(0.00322296 -0.00010775 0)
(0.00383942 -0.00027958 0)