/*--------------------------------*- C++ -*----------------------------------*\
| =========                 |                                                 |
| \\      /  F ield         | OpenFOAM: The Open Source CFD Toolbox           |
|  \\    /   O peration     | Version:  v2012                                 |
|   \\  /    A nd           | Website:  www.openfoam.com                      |
|    \\/     M anipulation  |                                                 |
\*---------------------------------------------------------------------------*/
FoamFile
{
    version     2.0;
    format      ascii;
    class       pointVectorField;
    location    "12";
    object      pointD;
}
// * * * * * * * * * * * * * * * * * * * * * * * * * * * * * * * * * * * * * //

dimensions      [0 1 0 0 0 0 0];


internalField   nonuniform List<vector> 
7900
(
(0.00336525 0 2.09807e-21)
(0.00448658 0 6.82601e-22)
(0.00412934 -0.000334917 -4.64169e-21)
(0 -0.00258553 0)
(0 -0.00123106 0)
(0.00336525 0 2.09807e-21)
(0.00448658 0 6.82601e-22)
(0.00412934 -0.000334917 -4.64169e-21)
(0 -0.00258553 0)
(0 -0.00123106 0)
(0.00338253 0 0)
(0.00340026 0 0)
(0.00341433 0 0)
(0.00342538 0 0)
(0.00343349 0 0)
(0.0034401 0 0)
(0.00344557 0 0)
(0.00345041 0 0)
(0.0034553 0 0)
(0.0034609 0 0)
(0.00346652 0 0)
(0.00347232 0 0)
(0.00347942 0 0)
(0.00348581 0 0)
(0.00349317 0 0)
(0.00350228 0 0)
(0.00351103 0 0)
(0.00352134 0 0)
(0.00353239 0 0)
(0.00354369 0 0)
(0.0035562 0 0)
(0.00356924 0 0)
(0.00358297 0 0)
(0.00359718 0 0)
(0.00361196 0 0)
(0.0036282 0 0)
(0.00364527 0 0)
(0.00366316 0 0)
(0.00368188 0 0)
(0.00370102 0 0)
(0.00372063 0 0)
(0.00374135 0 0)
(0.00376267 0 0)
(0.00378427 0 0)
(0.00380739 0 0)
(0.00383017 0 0)
(0.00385262 0 0)
(0.00387661 0 0)
(0.00390148 0 0)
(0.00392669 0 0)
(0.00395266 0 0)
(0.0039788 0 0)
(0.00400438 0 0)
(0.00403113 0 0)
(0.00405976 0 0)
(0.00408791 0 0)
(0.00411523 0 0)
(0.00414269 0 0)
(0.00417268 0 0)
(0.00420289 0 0)
(0.00423236 0 0)
(0.00426169 0 0)
(0.00429022 0 0)
(0.00431957 0 0)
(0.00434841 0 0)
(0.00437664 0 0)
(0.00440793 0 0)
(0.00443846 0 0)
(0.00446468 0 0)
(0.00449495 -7.74116e-07 6.82601e-22)
(0.00449385 -1.55642e-06 0)
(0.00449171 -2.3993e-06 0)
(0.00448854 -3.4935e-06 4.40147e-21)
(0.00448461 -4.72241e-06 6.04135e-21)
(0.00447975 -6.2329e-06 -3.60889e-22)
(0.0044743 -7.96989e-06 3.5376e-22)
(0.00446828 -9.93794e-06 -1.74229e-21)
(0.00446099 -1.23538e-05 -4.09682e-21)
(0.00445282 -1.52192e-05 -1.1772e-21)
(0.00444418 -1.86076e-05 2.75486e-22)
(0.00443504 -2.23918e-05 1.45269e-21)
(0.00442574 -2.65198e-05 -1.68316e-21)
(0.00441533 -3.13208e-05 -3.69229e-21)
(0.0044044 -3.68361e-05 -4.04184e-22)
(0.00439377 -4.25663e-05 -2.47092e-22)
(0.00438232 -4.88732e-05 -2.2441e-21)
(0.0043702 -5.6266e-05 -3.92066e-22)
(0.0043582 -6.40553e-05 -2.25659e-21)
(0.004346 -7.23205e-05 -3.00848e-22)
(0.00433371 -8.1306e-05 3.62037e-21)
(0.00432117 -9.09392e-05 1.98321e-21)
(0.00430823 -0.000101615 2.59033e-21)
(0.00429595 -0.000112519 5.16507e-21)
(0.0042841 -0.000123646 6.82577e-21)
(0.00427178 -0.000135877 2.44562e-21)
(0.00426001 -0.000148333 6.95806e-23)
(0.00424895 -0.000160737 1.51599e-21)
(0.00423773 -0.00017418 4.07612e-21)
(0.00422669 -0.00018823 1.88211e-21)
(0.00421638 -0.000202173 3.25314e-21)
(0.00420611 -0.000216957 6.46983e-21)
(0.00419622 -0.000232041 9.82261e-22)
(0.00418715 -0.000246685 -6.83639e-22)
(0.00417811 -0.000262009 2.62589e-21)
(0.00416953 -0.000277294 1.63759e-21)
(0.00416065 -0.000293677 -1.67195e-21)
(0.0041532 -0.000307735 -2.15468e-21)
(0.00414658 -0.000320267 -5.41449e-21)
(0.00410041 -0.000345613 -1.38188e-21)
(0.00406922 -0.000352747 -4.79996e-22)
(0.00403333 -0.000360867 -5.02636e-22)
(0.00399675 -0.000368966 1.05325e-21)
(0.00396382 -0.000375931 1.07589e-21)
(0.00393012 -0.00038273 0)
(0.00389608 -0.000389192 2.70871e-22)
(0.00386247 -0.000395156 4.62697e-23)
(0.00382709 -0.000400946 -2.24601e-22)
(0.0037913 -0.000406305 -4.91542e-22)
(0.00375403 -0.000411414 1.67355e-21)
(0.00371631 -0.000416175 1.45503e-21)
(0.00368095 -0.000420081 1.21729e-21)
(0.00364503 -0.000423624 1.32225e-21)
(0.00360685 -0.000427083 1.03017e-21)
(0.00356675 -0.000430402 7.34869e-22)
(0.00352829 -0.000433232 -9.0041e-22)
(0.00349018 -0.00043578 -1.13953e-21)
(0.00344965 -0.000438307 -5.87994e-22)
(0.00340796 -0.000440782 -6.81136e-22)
(0.00336589 -0.000443183 -2.57557e-21)
(0.00332416 -0.000445482 -2.01751e-21)
(0.00327836 -0.000448149 -1.77287e-21)
(0.00323127 -0.000450958 3.91412e-23)
(0.00318768 -0.000453633 1.77199e-21)
(0.00314268 -0.000456543 6.34593e-22)
(0.00309568 -0.000459848 5.31022e-22)
(0.00304824 -0.00046347 2.30066e-21)
(0.00300071 -0.000467549 -1.22763e-22)
(0.00294738 -0.000472782 -4.55893e-21)
(0.00289226 -0.000478675 -2.66653e-21)
(0.00283923 -0.000484856 0)
(0.00278525 -0.000491933 0)
(0.0027318 -0.000499517 -1.30571e-21)
(0.00267734 -0.000507938 -6.76415e-21)
(0.00261525 -0.000518871 -1.72726e-21)
(0.00255394 -0.000530634 1.89179e-21)
(0.00249542 -0.000542801 4.14117e-22)
(0.00243345 -0.000556639 7.92947e-22)
(0.00237476 -0.000570962 3.66644e-22)
(0.00230921 -0.000588445 2.19783e-21)
(0.00224218 -0.000607756 -1.9042e-21)
(0.00217456 -0.000628809 -4.47406e-21)
(0.00210464 -0.000652063 -2.19923e-21)
(0.0020385 -0.000675871 -2.30291e-22)
(0.00197119 -0.000701628 9.14574e-22)
(0.00189938 -0.000730993 -3.23152e-21)
(0.00182516 -0.000763397 -2.00677e-21)
(0.00175319 -0.000797114 2.36962e-21)
(0.00167911 -0.000834065 1.24731e-21)
(0.00160373 -0.000874261 -7.85324e-22)
(0.00152937 -0.000915925 -1.64174e-21)
(0.00145702 -0.000958367 6.01501e-21)
(0.00138335 -0.00100402 7.75031e-21)
(0.00130597 -0.00105448 -1.57962e-21)
(0.00121929 -0.00111442 -8.33519e-21)
(0.00113284 -0.00117727 -7.94894e-21)
(0.00106856 -0.00122679 -5.38108e-21)
(0.0009971 -0.00128608 4.86543e-21)
(0.000916334 -0.00135631 8.9114e-21)
(0.000846364 -0.00142083 -7.76584e-21)
(0.000773749 -0.00149113 -1.22216e-21)
(0.000699748 -0.00156685 -1.89116e-21)
(0.000630811 -0.00164197 -1.56192e-21)
(0.000560972 -0.00172338 8.85739e-21)
(0.000492866 -0.00180721 -2.44096e-21)
(0.000433751 -0.00188603 -5.62092e-23)
(0.000375737 -0.00196702 2.38475e-21)
(0.000321244 -0.0020491 1.37951e-23)
(0.000273434 -0.00212669 1.37951e-23)
(0.000228482 -0.0022054 -4.23102e-21)
(0.000187527 -0.00228113 3.96371e-22)
(0.000153153 -0.00234532 1.57925e-21)
(0.000122592 -0.00240431 -5.96858e-21)
(9.49337e-05 -0.0024594 7.47873e-22)
(7.16354e-05 -0.00250489 4.5889e-21)
(5.06317e-05 -0.00254 9.20589e-22)
(3.20344e-05 -0.00256615 0)
(1.56948e-05 -0.00258131 0)
(0 -0.00257819 0)
(0 -0.00256757 0)
(0 -0.00255385 0)
(0 -0.00253698 0)
(0 -0.00251981 0)
(0 -0.00250284 0)
(0 -0.00248692 0)
(0 -0.00247085 0)
(0 -0.00245327 0)
(0 -0.00243676 0)
(0 -0.0024202 0)
(0 -0.00239074 0)
(0 -0.00234034 0)
(0 -0.00226775 0)
(0 -0.00215878 0)
(0 -0.00201333 0)
(0 -0.00184293 0)
(0 -0.00164903 0)
(0 -0.00142694 0)
(0.000311477 -0.00117285 -9.32746e-21)
(0.00059381 -0.00122241 6.6841e-22)
(0.000856432 -0.00129326 9.8588e-21)
(0.00110535 -0.0013828 1.54127e-20)
(0.00133084 -0.00148282 1.29056e-21)
(0.00152607 -0.00156723 -1.87089e-20)
(0.00169592 -0.00162302 -1.10199e-20)
(0.00183155 -0.00162239 1.05847e-21)
(0.00193476 -0.00157257 1.81633e-21)
(0.00203779 -0.00150615 2.7695e-21)
(0.00213981 -0.0014375 7.29347e-21)
(0.00224988 -0.00136437 1.90856e-20)
(0.0023578 -0.0012877 2.03982e-20)
(0.00244634 -0.00122103 3.58288e-22)
(0.00254156 -0.00114796 2.01835e-21)
(0.00263371 -0.00107439 -7.0821e-21)
(0.00272018 -0.00100103 -1.42903e-20)
(0.00280384 -0.000925963 -5.56217e-21)
(0.00287653 -0.000858971 -3.83349e-23)
(0.00294774 -0.000787996 1.49566e-23)
(0.00301409 -0.00071858 5.98807e-21)
(0.00307062 -0.000655904 6.07491e-21)
(0.00312629 -0.000583987 2.04403e-21)
(0.00317845 -0.000511221 5.105e-21)
(0.00322058 -0.000447255 3.03316e-22)
(0.00325513 -0.000384542 -5.09845e-21)
(0.00328639 -0.000322388 8.05111e-22)
(0.00331316 -0.000258184 5.36959e-21)
(0.00333346 -0.000194362 1.20891e-21)
(0.00334777 -0.000133621 -1.12364e-21)
(0.00335543 -6.77939e-05 2.08987e-21)
(0.00338253 0 0)
(0.00340026 0 0)
(0.00341433 0 0)
(0.00342538 0 0)
(0.00343349 0 0)
(0.0034401 0 0)
(0.00344557 0 0)
(0.00345041 0 0)
(0.0034553 0 0)
(0.0034609 0 0)
(0.00346652 0 0)
(0.00347232 0 0)
(0.00347942 0 0)
(0.00348581 0 0)
(0.00349317 0 0)
(0.00350228 0 0)
(0.00351103 0 0)
(0.00352134 0 0)
(0.00353239 0 0)
(0.00354369 0 0)
(0.0035562 0 0)
(0.00356924 0 0)
(0.00358297 0 0)
(0.00359718 0 0)
(0.00361196 0 0)
(0.0036282 0 0)
(0.00364527 0 0)
(0.00366316 0 0)
(0.00368188 0 0)
(0.00370102 0 0)
(0.00372063 0 0)
(0.00374135 0 0)
(0.00376267 0 0)
(0.00378427 0 0)
(0.00380739 0 0)
(0.00383017 0 0)
(0.00385262 0 0)
(0.00387661 0 0)
(0.00390148 0 0)
(0.00392669 0 0)
(0.00395266 0 0)
(0.0039788 0 0)
(0.00400438 0 0)
(0.00403113 0 0)
(0.00405976 0 0)
(0.00408791 0 0)
(0.00411523 0 0)
(0.00414269 0 0)
(0.00417268 0 0)
(0.00420289 0 0)
(0.00423236 0 0)
(0.00426169 0 0)
(0.00429022 0 0)
(0.00431957 0 0)
(0.00434841 0 0)
(0.00437664 0 0)
(0.00440793 0 0)
(0.00443846 0 0)
(0.00446468 0 0)
(0.00449495 -7.74116e-07 6.82601e-22)
(0.00449385 -1.55642e-06 0)
(0.00449171 -2.3993e-06 0)
(0.00448854 -3.4935e-06 4.40147e-21)
(0.00448461 -4.72241e-06 6.04135e-21)
(0.00447975 -6.2329e-06 -3.60889e-22)
(0.0044743 -7.96989e-06 3.5376e-22)
(0.00446828 -9.93794e-06 -1.74229e-21)
(0.00446099 -1.23538e-05 -4.09682e-21)
(0.00445282 -1.52192e-05 -1.1772e-21)
(0.00444418 -1.86076e-05 2.75486e-22)
(0.00443504 -2.23918e-05 1.45269e-21)
(0.00442574 -2.65198e-05 -1.68316e-21)
(0.00441533 -3.13208e-05 -3.69229e-21)
(0.0044044 -3.68361e-05 -4.04184e-22)
(0.00439377 -4.25663e-05 -2.47092e-22)
(0.00438232 -4.88732e-05 -2.2441e-21)
(0.0043702 -5.6266e-05 -3.92066e-22)
(0.0043582 -6.40553e-05 -2.25659e-21)
(0.004346 -7.23205e-05 -3.00848e-22)
(0.00433371 -8.1306e-05 3.62037e-21)
(0.00432117 -9.09392e-05 1.98321e-21)
(0.00430823 -0.000101615 2.59033e-21)
(0.00429595 -0.000112519 5.16507e-21)
(0.0042841 -0.000123646 6.82577e-21)
(0.00427178 -0.000135877 2.44562e-21)
(0.00426001 -0.000148333 6.95806e-23)
(0.00424895 -0.000160737 1.51599e-21)
(0.00423773 -0.00017418 4.07612e-21)
(0.00422669 -0.00018823 1.88211e-21)
(0.00421638 -0.000202173 3.25314e-21)
(0.00420611 -0.000216957 6.46983e-21)
(0.00419622 -0.000232041 9.82261e-22)
(0.00418715 -0.000246685 -6.83639e-22)
(0.00417811 -0.000262009 2.62589e-21)
(0.00416953 -0.000277294 1.63759e-21)
(0.00416065 -0.000293677 -1.67195e-21)
(0.0041532 -0.000307735 -2.15468e-21)
(0.00414658 -0.000320267 -5.41449e-21)
(0.00410041 -0.000345613 -1.38188e-21)
(0.00406922 -0.000352747 -4.79996e-22)
(0.00403333 -0.000360867 -5.02636e-22)
(0.00399675 -0.000368966 1.05325e-21)
(0.00396382 -0.000375931 1.07589e-21)
(0.00393012 -0.00038273 0)
(0.00389608 -0.000389192 2.70871e-22)
(0.00386247 -0.000395156 4.62697e-23)
(0.00382709 -0.000400946 -2.24601e-22)
(0.0037913 -0.000406305 -4.91542e-22)
(0.00375403 -0.000411414 1.67355e-21)
(0.00371631 -0.000416175 1.45503e-21)
(0.00368095 -0.000420081 1.21729e-21)
(0.00364503 -0.000423624 1.32225e-21)
(0.00360685 -0.000427083 1.03017e-21)
(0.00356675 -0.000430402 7.34869e-22)
(0.00352829 -0.000433232 -9.0041e-22)
(0.00349018 -0.00043578 -1.13953e-21)
(0.00344965 -0.000438307 -5.87994e-22)
(0.00340796 -0.000440782 -6.81136e-22)
(0.00336589 -0.000443183 -2.57557e-21)
(0.00332416 -0.000445482 -2.01751e-21)
(0.00327836 -0.000448149 -1.77287e-21)
(0.00323127 -0.000450958 3.91412e-23)
(0.00318768 -0.000453633 1.77199e-21)
(0.00314268 -0.000456543 6.34593e-22)
(0.00309568 -0.000459848 5.31022e-22)
(0.00304824 -0.00046347 2.30066e-21)
(0.00300071 -0.000467549 -1.22763e-22)
(0.00294738 -0.000472782 -4.55893e-21)
(0.00289226 -0.000478675 -2.66653e-21)
(0.00283923 -0.000484856 0)
(0.00278525 -0.000491933 0)
(0.0027318 -0.000499517 -1.30571e-21)
(0.00267734 -0.000507938 -6.76415e-21)
(0.00261525 -0.000518871 -1.72726e-21)
(0.00255394 -0.000530634 1.89179e-21)
(0.00249542 -0.000542801 4.14117e-22)
(0.00243345 -0.000556639 7.92947e-22)
(0.00237476 -0.000570962 3.66644e-22)
(0.00230921 -0.000588445 2.19783e-21)
(0.00224218 -0.000607756 -1.9042e-21)
(0.00217456 -0.000628809 -4.47406e-21)
(0.00210464 -0.000652063 -2.19923e-21)
(0.0020385 -0.000675871 -2.30291e-22)
(0.00197119 -0.000701628 9.14574e-22)
(0.00189938 -0.000730993 -3.23152e-21)
(0.00182516 -0.000763397 -2.00677e-21)
(0.00175319 -0.000797114 2.36962e-21)
(0.00167911 -0.000834065 1.24731e-21)
(0.00160373 -0.000874261 -7.85324e-22)
(0.00152937 -0.000915925 -1.64174e-21)
(0.00145702 -0.000958367 6.01501e-21)
(0.00138335 -0.00100402 7.75031e-21)
(0.00130597 -0.00105448 -1.57962e-21)
(0.00121929 -0.00111442 -8.33519e-21)
(0.00113284 -0.00117727 -7.94894e-21)
(0.00106856 -0.00122679 -5.38108e-21)
(0.0009971 -0.00128608 4.86543e-21)
(0.000916334 -0.00135631 8.9114e-21)
(0.000846364 -0.00142083 -7.76584e-21)
(0.000773749 -0.00149113 -1.22216e-21)
(0.000699748 -0.00156685 -1.89116e-21)
(0.000630811 -0.00164197 -1.56192e-21)
(0.000560972 -0.00172338 8.85739e-21)
(0.000492866 -0.00180721 -2.44096e-21)
(0.000433751 -0.00188603 -5.62092e-23)
(0.000375737 -0.00196702 2.38475e-21)
(0.000321244 -0.0020491 1.37951e-23)
(0.000273434 -0.00212669 1.37951e-23)
(0.000228482 -0.0022054 -4.23102e-21)
(0.000187527 -0.00228113 3.96371e-22)
(0.000153153 -0.00234532 1.57925e-21)
(0.000122592 -0.00240431 -5.96858e-21)
(9.49337e-05 -0.0024594 7.47873e-22)
(7.16354e-05 -0.00250489 4.5889e-21)
(5.06317e-05 -0.00254 9.20589e-22)
(3.20344e-05 -0.00256615 0)
(1.56948e-05 -0.00258131 0)
(0 -0.00257819 0)
(0 -0.00256757 0)
(0 -0.00255385 0)
(0 -0.00253698 0)
(0 -0.00251981 0)
(0 -0.00250284 0)
(0 -0.00248692 0)
(0 -0.00247085 0)
(0 -0.00245327 0)
(0 -0.00243676 0)
(0 -0.0024202 0)
(0 -0.00239074 0)
(0 -0.00234034 0)
(0 -0.00226775 0)
(0 -0.00215878 0)
(0 -0.00201333 0)
(0 -0.00184293 0)
(0 -0.00164903 0)
(0 -0.00142694 0)
(0.000311477 -0.00117285 -9.32746e-21)
(0.00059381 -0.00122241 6.6841e-22)
(0.000856432 -0.00129326 9.8588e-21)
(0.00110535 -0.0013828 1.54127e-20)
(0.00133084 -0.00148282 1.29056e-21)
(0.00152607 -0.00156723 -1.87089e-20)
(0.00169592 -0.00162302 -1.10199e-20)
(0.00183155 -0.00162239 1.05847e-21)
(0.00193476 -0.00157257 1.81633e-21)
(0.00203779 -0.00150615 2.7695e-21)
(0.00213981 -0.0014375 7.29347e-21)
(0.00224988 -0.00136437 1.90856e-20)
(0.0023578 -0.0012877 2.03982e-20)
(0.00244634 -0.00122103 3.58288e-22)
(0.00254156 -0.00114796 2.01835e-21)
(0.00263371 -0.00107439 -7.0821e-21)
(0.00272018 -0.00100103 -1.42903e-20)
(0.00280384 -0.000925963 -5.56217e-21)
(0.00287653 -0.000858971 -3.83349e-23)
(0.00294774 -0.000787996 1.49566e-23)
(0.00301409 -0.00071858 5.98807e-21)
(0.00307062 -0.000655904 6.07491e-21)
(0.00312629 -0.000583987 2.04403e-21)
(0.00317845 -0.000511221 5.105e-21)
(0.00322058 -0.000447255 3.03316e-22)
(0.00325513 -0.000384542 -5.09845e-21)
(0.00328639 -0.000322388 8.05111e-22)
(0.00331316 -0.000258184 5.36959e-21)
(0.00333346 -0.000194362 1.20891e-21)
(0.00334777 -0.000133621 -1.12364e-21)
(0.00335543 -6.77939e-05 2.08987e-21)
(0.00285068 -0.000206083 0)
(0.00355572 -0.000133175 0)
(0.00190198 -0.000801318 0)
(0.00381135 -0.000223454 0)
(0.00401957 -8.23495e-05 0)
(0.00296745 -0.000235735 0)
(0.00342755 -5.46835e-05 0)
(0.00104796 -0.00165497 0)
(0.00315914 -0.000144635 0)
(0.00220756 -0.000502521 0)
(0.00340727 -0.000267198 0)
(0.00378634 -5.25201e-05 0)
(0.00259279 -0.000472553 0)
(0.00338249 -4.01864e-05 0)
(0.00407498 -0.000132471 0)
(0.00251568 -0.00039406 0)
(0.00312378 -0.000133045 0)
(0.00424439 -3.90161e-05 0)
(0.00393298 -0.000279845 0)
(0.00379878 -0.000143592 0)
(0.00125834 -0.00126711 0)
(0.00176204 -0.00114756 0)
(0.00306276 -0.000320457 0)
(0.00365231 -2.68908e-05 0)
(0.00168848 -0.000834845 0)
(0.0024599 -0.000412554 0)
(0.00359935 -0.000316027 0)
(0.00398994 -3.90096e-05 0)
(0.00328454 -0.000199703 0)
(0.00356667 -7.19637e-05 0)
(0.00275143 -0.000257411 0)
(0.000390299 -0.00226512 0)
(0.00353185 -1.84308e-05 0)
(0.00333531 -0.000122337 0)
(0.00422066 -7.50931e-05 0)
(0.00406023 -0.000189559 0)
(0.00319353 -9.18008e-05 0)
(0.000894889 -0.00193046 0)
(0.00331829 -0.000136724 0)
(0.00275231 -0.00037547 0)
(0.00339199 -4.46914e-05 0)
(0.00286552 -0.000231163 0)
(0.00358675 -0.000191655 0)
(0.00376095 -9.47956e-05 0)
(0.00300435 -0.000329759 0)
(0.000779557 -0.00176426 0)
(0.00215324 -0.000548686 0)
(0.00230828 -0.000820599 0)
(0.0031759 -0.000100909 0)
(0.00324558 -0.000348776 0)
(0.00378773 -2.23619e-05 0)
(0.00209669 -0.000597278 0)
(0.00252338 -0.000346565 0)
(0.0014399 -0.00124628 0)
(0.00146256 -0.00151864 0)
(0.00375511 -0.000335426 0)
(0.00413188 -2.84065e-05 0)
(0.00361744 -0.000245902 0)
(0.00390237 -6.88349e-05 0)
(0.00184113 -0.000712381 0)
(0.00390585 -0.000164839 0)
(0.00216138 -0.00072392 0)
(0.00342028 -0.000359066 0)
(0.00389961 -2.31101e-05 0)
(0.00349707 -1.49307e-05 0)
(0.00129937 -0.00112498 0)
(0.00435162 -1.73389e-05 0)
(0.00401368 -0.000306626 0)
(0.00398673 -0.000118841 0)
(0.000399728 -0.00225695 0)
(0.00423571 -9.36382e-05 0)
(0.00247874 -0.000373433 0)
(0.00337913 -4.70965e-05 0)
(0.00271757 -0.000586955 0)
(0.00313294 -0.000167552 0)
(0.00332736 -9.0435e-05 0)
(0.00362575 -1.26829e-05 0)
(0.00417405 -0.000136674 0)
(0.00162488 -0.000951185 0)
(0.00288556 -0.000287636 0)
(0.00431921 -4.33617e-05 0)
(0.00407539 -0.000225672 0)
(0.00380775 -0.000271093 0)
(0.00410786 -5.4598e-05 0)
(0.00374275 -0.00019128 0)
(0.00387236 -0.000104066 0)
(0.00274812 -0.000290432 0)
(0.00250618 -0.000454167 0)
(0.00292918 -0.000182136 0)
(0.00307974 -0.000254773 0)
(0.00356065 -4.50966e-05 0)
(0.00324383 -0.000263787 0)
(0.00367857 -4.566e-05 0)
(0.00288504 -0.000393337 0)
(0.00342236 -0.000210693 0)
(0.00363918 -9.08853e-05 0)
(0.000928593 -0.00150181 0)
(0.00341155 -4.88538e-05 0)
(0.00366091 -0.000145812 0)
(0.00346666 -1.76235e-05 0)
(0.00262217 -0.000375431 0)
(0.000461627 -0.00211285 0)
(0.00338601 -0.000150806 0)
(0.00204584 -0.00112748 0)
(0.00371764 -1.27898e-05 0)
(0.00348784 -0.000106494 0)
(0.00424187 -1.90424e-05 0)
(0.00388219 -0.000339085 0)
(0.000185072 -0.00245038 0)
(0.00294455 -0.000206897 0)
(0.00138849 -0.00142324 0)
(0.00304714 -0.000136909 0)
(0.00395412 -0.00019136 0)
(0.00328023 -8.00235e-05 0)
(0.00178561 -0.000979197 0)
(0.00222901 -0.000588481 0)
(0.00110701 -0.00150083 0)
(0.00356234 -2.81106e-05 0)
(0.00270168 -0.000281471 0)
(0.00306559 -0.000390377 0)
(0.00413463 -7.27919e-05 0)
(0.00320978 -0.000268154 0)
(0.00228559 -0.000523184 0)
(0.00196923 -0.000648118 0)
(0.00155312 -0.000897835 0)
(0.00361679 -0.000369649 0)
(0.00404471 -1.98689e-05 0)
(0.00290672 -0.000299652 0)
(0.00393601 -0.000238015 0)
(0.00327783 -7.93936e-05 0)
(0.000707486 -0.0019328 0)
(0.0034827 -0.000304095 0)
(0.0038876 -4.16126e-05 0)
(0.00411039 -0.000103342 0)
(0.00316214 -0.000194112 0)
(0.00346039 -7.12389e-05 0)
(0.000772624 -0.001923 0)
(0.000757108 -0.00195713 0)
(0.00330603 -0.000102601 0)
(0.0027315 -0.00025379 0)
(0.00337622 -0.000118571 0)
(0.00317504 -0.000193382 0)
(0.00310125 -0.000124846 0)
(0.00131144 -0.00176407 0)
(0.0035622 -7.70393e-06 0)
(0.000222408 -0.0024033 0)
(0.00370595 -0.00027001 0)
(0.00400633 -5.90621e-05 0)
(0.00326963 -6.88096e-05 0)
(0.00163547 -0.00102426 0)
(0.00270543 -0.00034194 0)
(0.00345169 -2.86404e-05 0)
(0.00306263 -0.000154315 0)
(0.00430526 -6.46691e-05 0)
(0.00369106 -6.55099e-05 0)
(0.00114842 -0.00166394 0)
(0.00417794 -0.000156709 0)
(0.00347615 -3.41187e-05 0)
(0.00232752 -0.000459991 0)
(0.00351712 -0.000170836 0)
(0.000420478 -0.0022358 0)
(0.0018447 -0.000759794 0)
(0.00405936 -0.000163057 0)
(0.0019397 -0.000668267 0)
(0.00207053 -0.000578981 0)
(0.00438521 -2.35192e-05 0)
(0.00409191 -0.000254975 0)
(0.00352219 -0.000232665 0)
(0.00380997 -6.99537e-05 0)
(0.0020367 -0.000906689 0)
(0.0023632 -0.000441212 0)
(0.0029618 -0.000496906 0)
(0.00264107 -0.000452566 0)
(0.00339987 -3.67829e-05 0)
(0.00344849 -2.26493e-05 0)
(0.00330381 -0.000390911 0)
(0.00384511 -1.3609e-05 0)
(0.00241634 -0.000517581 0)
(0.00181106 -0.00139189 0)
(0.00366165 -0.000116835 0)
(0.00376067 -0.000121191 0)
(0.00279335 -0.000418007 0)
(0.0032132 -0.000127611 0)
(0.00423346 -5.4928e-05 0)
(0.0033591 -0.000320209 0)
(0.00382604 -3.33354e-05 0)
(0.00256549 -0.000804021 0)
(0.00242381 -0.000391642 0)
(0.000679526 -0.0017551 0)
(0.00318316 -0.0003175 0)
(0.00371646 -3.06509e-05 0)
(0.00341235 -5.88832e-05 0)
(0.000279194 -0.00232427 0)
(0.00103238 -0.00133681 0)
(0.00289728 -0.000196684 0)
(0.00350134 -0.000386914 0)
(0.00397147 -1.49273e-05 0)
(0.00237952 -0.000651747 0)
(0.00290333 -0.000342643 0)
(0.00371967 -0.000306632 0)
(0.00406803 -4.11205e-05 0)
(0.0034305 -9.33671e-05 0)
(0.00327477 -0.000158389 0)
(0.00259964 -0.000312651 0)
(0.00389867 -0.000140262 0)
(0.00330246 -6.23678e-05 0)
(0.00369609 -0.000169647 0)
(0.00300264 -0.000150883 0)
(0.00207263 -0.000648943 0)
(0.00141133 -0.00108723 0)
(0.00405592 -9.56256e-05 0)
(0.00209679 -0.000605118 0)
(0.00259861 -0.000335288 0)
(0.00360132 -7.19011e-06 0)
(0.00340029 -0.000180268 0)
(0.00377578 -1.13905e-05 0)
(0.00426182 -9.95543e-05 0)
(0.00132083 -0.00106531 0)
(0.00102545 -0.00149211 0)
(0.00317586 -0.000399029 0)
(0.00220745 -0.000511849 0)
(0.0025383 -0.000351065 0)
(0.00296423 -0.000183164 0)
(0.00399075 -0.000161728 0)
(0.003785 -0.000367938 0)
(0.00417869 -1.38059e-05 0)
(0.00440978 -7.80673e-06 0)
(0.00406088 -0.000319297 0)
(0.00435551 -4.41305e-05 0)
(0.00305466 -0.000220409 0)
(0.000514595 -0.00215926 0)
(0.00367689 -8.07662e-06 0)
(0.0028292 -0.000287873 0)
(0.00268542 -0.000274768 0)
(0.00383472 -0.000303197 0)
(0.00416865 -3.81605e-05 0)
(0.00169446 -0.00130826 0)
(0.00138286 -0.00122221 0)
(0.00363553 -0.000212002 0)
(0.00371916 -0.000223578 0)
(0.00393805 -8.2229e-05 0)
(0.0038467 -8.67388e-05 0)
(0.00416135 -0.000183755 0)
(0.00234972 -0.00100699 0)
(0.00415581 -0.000123912 0)
(0.0035034 -9.06551e-06 0)
(0.00396472 -0.000102113 0)
(0.00382712 -0.000192043 0)
(0.00156943 -0.00121358 0)
(0.00126029 -0.00144849 0)
(0.0018067 -0.00073879 0)
(0.00399301 -0.00013835 0)
(0.00302549 -0.000152868 0)
(0.00381795 -0.000166436 0)
(0.00165581 -0.000827555 0)
(0.00388923 -0.000224736 0)
(0.00225771 -0.000479358 0)
(0.00431431 -1.0731e-05 0)
(0.00394347 -0.000347346 0)
(0.00330981 -0.000216054 0)
(0.00226604 -0.000518124 0)
(0.00277079 -0.000437818 0)
(0.0032251 -0.000103606 0)
(0.00160923 -0.00158787 0)
(0.00344943 -2.39678e-05 0)
(0.00118394 -0.00126359 0)
(0.00359705 -0.000281713 0)
(0.00393868 -5.25259e-05 0)
(0.00200387 -0.000797486 0)
(0.00418499 -9.50097e-05 0)
(0.00371028 -8.30207e-05 0)
(0.00147708 -0.000975704 0)
(0.00350863 -4.08416e-05 0)
(0.00368816 -0.000381739 0)
(0.00410642 -1.35915e-05 0)
(0.00431291 -3.01185e-05 0)
(0.00400321 -0.000280882 0)
(0.0036644 -1.66102e-05 0)
(0.00330005 -0.000293909 0)
(0.00375832 -3.96402e-05 0)
(0.000496126 -0.00198357 0)
(0.0018291 -0.00081128 0)
(0.00401892 -0.000223201 0)
(0.00295118 -0.000219058 0)
(0.00320223 -0.00023831 0)
(0.00359858 -5.42973e-05 0)
(0.00329193 -6.92427e-05 0)
(0.00236357 -0.000463614 0)
(0.00262391 -0.000338483 0)
(0.00271215 -0.000365941 0)
(0.00417458 -5.32477e-05 0)
(0.00331478 -0.00022513 0)
(0.00256887 -0.000573955 0)
(0.00315409 -0.00010235 0)
(0.00236213 -0.000525028 0)
(0.00352935 -0.000344356 0)
(0.00396198 -2.86411e-05 0)
(0.00353496 -6.80438e-06 0)
(0.000922048 -0.00170998 0)
(0.00295203 -0.000422513 0)
(0.00308195 -0.000161609 0)
(0.0030158 -0.000291722 0)
(0.000182257 -0.00240117 0)
(0.00337977 -5.5185e-05 0)
(0.00357832 -1.80776e-05 0)
(0.00387748 -0.0001245 0)
(0.00303247 -0.000198694 0)
(0.00279969 -0.000254052 0)
(0.00245135 -0.000448289 0)
(0.0033539 -7.34732e-05 0)
(0.0033995 -0.000403617 0)
(0.00391283 -1.03136e-05 0)
(0.00353156 -0.000261843 0)
(0.00386034 -5.9057e-05 0)
(0.00430835 -7.26304e-05 0)
(0.00350823 -1.7253e-05 0)
(0.00347091 -1.30337e-05 0)
(0.00441723 -1.40089e-05 0)
(0.0041017 -0.000277275 0)
(0.00159418 -0.000929241 0)
(0.00257446 -0.000400048 0)
(0.00362257 -3.88684e-05 0)
(0.00313037 -0.000277496 0)
(0.00336159 -4.6325e-05 0)
(0.00331481 -7.60308e-05 0)
(0.000614574 -0.0020981 0)
(0.00423321 -0.000127877 0)
(0.00288552 -0.00024542 0)
(0.00312342 -0.000416602 0)
(0.00278953 -0.000293287 0)
(0.00300814 -0.000363984 0)
(0.00117207 -0.00173434 0)
(0.00357198 -8.7301e-05 0)
(0.00335463 -0.000251151 0)
(0.00408562 -6.85359e-05 0)
(0.00115721 -0.00120073 0)
(0.000108663 -0.00249085 0)
(0.00356135 -0.000109019 0)
(0.00414383 -8.54253e-05 0)
(0.00283249 -0.000648088 0)
(8.72045e-05 -0.00253005 0)
(0.00439382 -2.76488e-05 0)
(0.00414722 -0.000217345 0)
(0.00398687 -0.000202906 0)
(0.000774152 -0.00190869 0)
(0.00388931 -0.0002642 0)
(0.00147915 -0.00108725 0)
(0.00333462 -0.000105761 0)
(0.00116205 -0.00175373 0)
(0.00323767 -0.000145177 0)
(0.00209909 -0.000974949 0)
(0.0033979 -0.000126726 0)
(0.00347579 -0.000128763 0)
(0.00317987 -0.000115267 0)
(0.0030494 -0.000234971 0)
(0.00428193 -5.80392e-05 0)
(0.00378854 -0.000254811 0)
(0.000639341 -0.00194735 0)
(0.00346995 -0.000153167 0)
(0.00238951 -0.000411413 0)
(0.00263302 -0.0003081 0)
(0.00347622 -5.37366e-05 0)
(0.00401395 -0.000244881 0)
(0.00412367 -0.000162107 0)
(0.00284745 -0.000207344 0)
(0.00251337 -0.000491119 0)
(0.00292588 -0.000316968 0)
(0.00337845 -5.76955e-05 0)
(0.00364328 -5.54264e-06 0)
(0.00360911 -2.11141e-05 0)
(0.00286667 -0.000211897 0)
(0.00319493 -9.72213e-05 0)
(0.00428613 -4.09512e-05 0)
(0.00363444 -6.24831e-05 0)
(0.00304364 -0.000148686 0)
(0.00359807 -0.000165021 0)
(0.000196571 -0.00236547 0)
(0.00335368 -9.14752e-05 0)
(0.00264467 -0.000339332 0)
(0.00343409 -0.000235823 0)
(0.00370708 -2.21846e-05 0)
(0.000398705 -0.00212838 0)
(0.00408963 -0.000197357 0)
(0.00344423 -2.42602e-05 0)
(0.0042647 -2.78149e-05 0)
(0.00392761 -0.000307185 0)
(0.00334397 -0.00035423 0)
(0.00385291 -2.40659e-05 0)
(0.00207731 -0.000575184 0)
(0.00314596 -0.000352494 0)
(0.00262964 -0.000405949 0)
(0.00372443 -5.14733e-05 0)
(0.00414245 -0.000113568 0)
(0.00313989 -0.000260458 0)
(0.000736531 -0.00162484 0)
(0.00358806 -3.33964e-05 0)
(0.00279602 -0.000332207 0)
(0.00349613 -0.00020967 0)
(0.00026336 -0.00238226 0)
(0.00186641 -0.000994199 0)
(0.00315936 -0.000222065 0)
(0.00353861 -5.85113e-05 0)
(0.00286309 -0.000455831 0)
(0.000502549 -0.00212533 0)
(0.00177315 -0.000764237 0)
(0.00250201 -0.000715102 0)
(0.00280084 -0.000394316 0)
(0.00389767 -0.000186753 0)
(0.00343982 -2.61635e-05 0)
(0.00330183 -0.000175097 0)
(0.00117981 -0.00158415 0)
(0.00335368 -5.32319e-05 0)
(0.00357195 -1.18251e-05 0)
(0.00364929 -0.000333951 0)
(0.00404034 -3.25736e-05 0)
(0.00197452 -0.00063677 0)
(0.00207089 -0.00127021 0)
(0.000322479 -0.0022168 0)
(0.00106627 -0.00188914 0)
(0.00382835 -0.000326469 0)
(0.0041897 -2.82877e-05 0)
(0.00358893 -0.000146509 0)
(0.00309279 -0.000121025 0)
(0.000172026 -0.00243972 0)
(0.00179195 -0.00092028 0)
(0.00240573 -0.000469179 0)
(0.00163653 -0.0010765 0)
(0.0023742 -0.000418149 0)
(0.00121655 -0.00135769 0)
(0.00051575 -0.00162589 0)
(0.00375656 -6.39177e-05 0)
(0.000846584 -0.00163161 0)
(0.00135181 -0.00152741 0)
(0.0032178 -0.000142187 0)
(0.00405948 -0.000122975 0)
(0.00199924 -0.000855496 0)
(0.00380902 -0.000105599 0)
(0.00212895 -0.000689392 0)
(0.00350412 -8.55069e-05 0)
(0.00197602 -0.000690104 0)
(0.00197927 -0.00065828 0)
(0.00185034 -0.000733083 0)
(0.00353534 -2.48033e-05 0)
(0.0032473 -0.000196742 0)
(0.00326745 -0.000140264 0)
(0.0015941 -0.0012949 0)
(0.00362969 -7.64914e-05 0)
(0.00374302 -6.63714e-06 0)
(0.00356316 -0.000401239 0)
(0.00402101 -9.62797e-06 0)
(0.000940973 -0.00183987 0)
(0.00329136 -6.47595e-05 0)
(0.00373265 -0.000140368 0)
(0.00305318 -0.00018847 0)
(0.00338306 -9.09952e-05 0)
(0.00418781 -7.13147e-05 0)
(0.00344819 -3.33204e-05 0)
(0.000987846 -0.00174771 0)
(0.0034914 -8.19657e-06 0)
(0.000352165 -0.00230063 0)
(0.00075053 -0.00204739 0)
(0.00343932 -2.63616e-05 0)
(0.00234962 -0.000602291 0)
(0.00383237 -0.000373588 0)
(0.00422755 -9.53316e-06 0)
(0.00297147 -0.000258135 0)
(0.00292906 -0.000178606 0)
(0.00346915 -2.22137e-05 0)
(0.00308246 -0.000426283 0)
(0.00194273 -0.000651921 0)
(0.00189171 -0.00113876 0)
(0.00261282 -0.000303823 0)
(0.00387187 -0.000246253 0)
(0.00341661 -5.06099e-05 0)
(0.00217652 -0.000591207 0)
(0.0039927 -7.29536e-05 0)
(0.00128189 -0.00134858 0)
(0.00374793 -1.8191e-05 0)
(0.00311314 -0.000189102 0)
(0.00286223 -0.000440476 0)
(0.00342202 -0.000327564 0)
(0.00387355 -3.25167e-05 0)
(0.00307871 -0.000362873 0)
(0.00166518 -0.000832332 0)
(0.00275828 -0.000269076 0)
(0.00339721 -7.56576e-05 0)
(0.00279723 -0.000232733 0)
(0.0032437 -0.000101998 0)
(0.00139774 -0.000997924 0)
(0.00248071 -0.000383856 0)
(0.000927862 -0.00165286 0)
(0.00109596 -0.00137867 0)
(0.00206813 -0.00068872 0)
(0.000571893 -0.00208729 0)
(0.00315399 -0.000117401 0)
(0.000857667 -0.00148557 0)
(0.00222728 -0.000793221 0)
(0.00322843 -0.000337187 0)
(0.00299922 -0.000155389 0)
(0.00402539 -0.000183269 0)
(0.00233812 -0.000497267 0)
(0.00368464 -9.72323e-05 0)
(0.00436901 -6.02015e-06 0)
(0.00400178 -0.000345645 0)
(0.00225736 -0.00051344 0)
(0.00347903 -1.61607e-05 0)
(0.00333861 -0.000150803 0)
(0.000341772 -0.0022989 0)
(0.0037435 -0.000242222 0)
(0.00279512 -0.0003622 0)
(0.00270512 -0.000290754 0)
(0.00405393 -0.000248514 0)
(0.00257739 -0.000438145 0)
(0.00174671 -0.000909803 0)
(0.00358498 -4.00526e-06 0)
(0.00307461 -0.000250418 0)
(0.00381682 -7.50612e-06 0)
(0.00342538 -0.000291835 0)
(0.00383358 -4.412e-05 0)
(0.00376212 -0.000164133 0)
(0.00353928 -0.00031509 0)
(0.00394009 -3.89987e-05 0)
(0.00407502 -8.14772e-05 0)
(0.00109477 -0.00157097 0)
(0.00405251 -6.20497e-05 0)
(0.00169676 -0.000802651 0)
(0.000613316 -0.00191921 0)
(0.00276943 -0.000243401 0)
(0.00323544 -8.62534e-05 0)
(0.00425091 -8.12108e-05 0)
(0.00334797 -0.000175952 0)
(0.00368081 -0.000354536 0)
(0.00408582 -2.47545e-05 0)
(0.00143368 -0.00103663 0)
(0.00404686 -0.00010958 0)
(0.00319476 -0.000169456 0)
(0.00197206 -0.000668814 0)
(0.00339576 -8.73874e-05 0)
(0.00382544 -0.000117791 0)
(0.00427321 -0.000105335 0)
(0.00211224 -0.000561236 0)
(0.00436022 -4.7669e-05 0)