/*--------------------------------*- C++ -*----------------------------------*\
| =========                 |                                                 |
| \\      /  F ield         | OpenFOAM: The Open Source CFD Toolbox           |
|  \\    /   O peration     | Version:  v2012                                 |
|   \\  /    A nd           | Website:  www.openfoam.com                      |
|    \\/     M anipulation  |                                                 |
\*---------------------------------------------------------------------------*/
FoamFile
{
    version     2.0;
    format      ascii;
    class       volSymmTensorField;
    location    "2";
    object      epsilon;
}
// * * * * * * * * * * * * * * * * * * * * * * * * * * * * * * * * * * * * * //

dimensions      [0 0 0 0 0 0 0];


internalField   nonuniform List<symmTensor> 
2000
(
(0.00150322 -2.43559e-05 -1.80738e-15 -0.000634822 4.45065e-16 0)
(0.00128438 -0.000159005 -3.62395e-16 -0.000554759 -2.90783e-16 0)
(0.00129709 3.91922e-06 1.37672e-15 -0.000494123 7.42787e-16 0)
(0.00112562 -0.000113755 2.12544e-15 -0.00044771 1.62728e-15 0)
(0.00113604 1.99364e-05 4.6267e-16 -0.000395756 -4.29127e-16 0)
(0.0010015 -8.06394e-05 1.79276e-15 -0.000369351 8.65519e-16 0)
(0.00101004 2.89351e-05 1.01658e-15 -0.000327043 -2.1581e-15 0)
(0.000903453 -5.64616e-05 2.4629e-15 -0.000312183 -1.48644e-16 0)
(0.00091051 3.39953e-05 1.01102e-15 -0.000279046 -8.95876e-16 0)
(0.000825003 -3.86112e-05 1.8107e-15 -0.000270794 -6.94215e-16 0)
(0.000830893 3.68423e-05 4.74874e-16 -0.000245674 5.6205e-16 0)
(0.000761306 -2.52709e-05 7.22417e-16 -0.000241121 -2.22695e-16 0)
(0.000766285 3.84536e-05 1.13645e-16 -0.00022274 1.27242e-15 0)
(0.000708724 -1.5203e-05 1.05016e-15 -0.000220105 -1.44741e-16 0)
(0.000712995 3.94026e-05 6.89478e-16 -0.000207311 -8.25078e-17 0)
(0.000664468 -7.56515e-06 7.25968e-16 -0.000205424 9.68735e-16 0)
(0.000668197 4.00447e-05 -1.02213e-16 -0.000197287 3.70472e-16 0)
(0.000626327 -1.79772e-06 -9.79983e-17 -0.000195287 2.41701e-15 0)
(0.000629654 4.06212e-05 2.35475e-17 -0.000191114 1.26938e-15 0)
(0.000592403 2.40567e-06 8.74829e-16 -0.00018825 1.66132e-15 0)
(0.00144975 -0.000137843 5.26066e-15 -0.000559114 -1.90288e-15 0)
(0.00121418 -0.000261848 8.45962e-15 -0.000499842 -4.19044e-16 0)
(0.00125633 -8.10424e-05 2.61472e-15 -0.000453669 2.02648e-15 0)
(0.00107524 -0.000182917 9.55833e-16 -0.000409994 1.82146e-16 0)
(0.00110918 -3.7565e-05 1.75521e-15 -0.000376798 1.02327e-15 0)
(0.000966457 -0.000123512 2.69316e-15 -0.000345674 -6.67869e-16 0)
(0.000994143 -5.08162e-06 3.79164e-15 -0.000320832 9.55941e-16 0)
(0.0008798 -7.85499e-05 3.94265e-15 -0.000299224 2.23671e-16 0)
(0.00090263 1.90131e-05 2.93567e-15 -0.000280345 -8.01659e-16 0)
(0.000809701 -4.43564e-05 2.40541e-15 -0.000265613 -1.36566e-15 0)
(0.000828727 3.6863e-05 1.25189e-15 -0.000251318 -1.65059e-15 0)
(0.000752108 -1.82496e-05 7.59077e-16 -0.000241349 -1.01015e-15 0)
(0.000768135 5.00853e-05 1.02715e-15 -0.000230749 -5.60207e-16 0)
(0.000703991 1.71763e-06 1.19696e-15 -0.00022392 9.69602e-16 0)
(0.000717646 5.98491e-05 1.14745e-15 -0.000216365 2.07473e-15 0)
(0.000663045 1.69474e-05 5.41017e-16 -0.00021147 3.54133e-15 0)
(0.000674811 6.6951e-05 4.21213e-17 -0.000206409 3.63685e-15 0)
(0.00062752 2.84337e-05 8.32532e-16 -0.00020262 2.81687e-15 0)
(0.000637748 7.18272e-05 1.27129e-15 -0.000199458 1.69884e-15 0)
(0.000596216 3.68716e-05 1.58231e-15 -0.000196386 1.42204e-15 0)
(0.00135092 -0.000258945 9.32902e-16 -0.000504192 3.32633e-16 0)
(0.00111417 -0.000349775 -8.91149e-15 -0.000427722 1.11554e-15 0)
(0.00118893 -0.000161052 -1.12546e-15 -0.000419772 -1.30115e-15 0)
(0.00100415 -0.000240099 -4.10506e-15 -0.000366161 -1.43039e-15 0)
(0.00106398 -8.90043e-05 -2.91108e-16 -0.000359052 -1.21745e-15 0)
(0.000916828 -0.000158292 -2.59661e-15 -0.000321617 2.96638e-16 0)
(0.000965452 -3.54123e-05 1.47541e-15 -0.000315038 1.44849e-16 0)
(0.00084629 -9.64965e-05 -6.94946e-16 -0.000289211 -8.71373e-16 0)
(0.000886306 4.70115e-06 1.9182e-15 -0.000283075 -1.24054e-15 0)
(0.000788365 -4.94023e-05 2.28116e-16 -0.000265537 -6.9107e-16 0)
(0.000821654 3.48347e-05 5.21203e-16 -0.000259909 -4.03323e-16 0)
(0.000740027 -1.32955e-05 -1.68474e-15 -0.000248191 1.58391e-15 0)
(0.000767988 5.74845e-05 -6.95489e-16 -0.00024319 1.91806e-15 0)
(0.000699022 1.44689e-05 -1.28416e-15 -0.000235441 2.97559e-15 0)
(0.00072271 7.44388e-05 5.08708e-16 -0.000231179 3.16381e-15 0)
(0.000663642 3.57929e-05 1.67292e-15 -0.000226016 2.78022e-15 0)
(0.00068387 8.69813e-05 2.05456e-15 -0.00022258 2.57769e-15 0)
(0.000632577 5.20545e-05 1.76581e-15 -0.000218967 2.52587e-15 0)
(0.00064999 9.60721e-05 7.53385e-16 -0.000216488 2.34448e-15 0)
(0.000604748 6.42715e-05 1.51761e-16 -0.000213561 2.78228e-15 0)
(0.00120591 -0.00035844 -9.3397e-15 -0.000428848 -2.20744e-16 0)
(0.000985299 -0.000411526 -2.78667e-15 -0.000341673 -1.44513e-15 0)
(0.00109039 -0.000230053 -5.38756e-15 -0.000375955 -1.40404e-16 0)
(0.000913151 -0.000282806 -3.43031e-15 -0.000315477 -9.79143e-16 0)
(0.000997806 -0.000135772 -4.04955e-15 -0.000337098 -8.32993e-16 0)
(0.000853438 -0.000186387 -3.3208e-15 -0.00029553 -1.58977e-15 0)
(0.000922572 -6.56406e-05 -3.31126e-15 -0.000308423 -1.13733e-15 0)
(0.000803387 -0.000113306 -1.10757e-15 -0.00028035 -7.85721e-16 0)
(0.000860507 -1.30029e-05 2.10986e-16 -0.000287172 -9.68193e-17 0)
(0.000760869 -5.73983e-05 1.02511e-16 -0.000268729 3.2049e-16 0)
(0.000808531 2.67294e-05 -1.85702e-15 -0.000271358 1.43527e-15 0)
(0.000724254 -1.43389e-05 2.81893e-18 -0.000259724 -3.55944e-16 0)
(0.000764355 5.67834e-05 -5.99564e-16 -0.000259524 1.26169e-15 0)
(0.000692284 1.89565e-05 2.0892e-15 -0.000252615 -2.46081e-15 0)
(0.00072625 7.94603e-05 2.03768e-15 -0.000250591 1.34875e-16 0)
(0.000663978 4.47127e-05 2.8399e-15 -0.000246851 -1.8683e-15 0)
(0.000692894 9.64159e-05 1.99829e-15 -0.000243744 1.69949e-15 0)
(0.000638553 6.4545e-05 1.18509e-15 -0.000242001 -2.02312e-16 0)
(0.000663246 0.00010884 3.61527e-16 -0.000238332 1.6636e-15 0)
(0.00061538 7.96206e-05 4.58672e-16 -0.000237725 -2.36096e-15 0)
(0.00102916 -0.000424133 -3.8191e-15 -0.000338111 -2.55416e-15 0)
(0.000838125 -0.00044216 -5.90646e-15 -0.000250263 -2.67364e-15 0)
(0.000966971 -0.000280846 -2.87211e-15 -0.000322432 -2.0847e-15 0)
(0.000807524 -0.000308144 -6.07858e-16 -0.000261325 -3.39648e-15 0)
(0.000912656 -0.000174541 -1.04186e-15 -0.000309479 -2.61336e-15 0)
(0.000778491 -0.0002067 -1.66669e-15 -0.000267739 -2.10726e-15 0)
(0.00086528 -9.48209e-05 -2.05196e-15 -0.000298897 -6.6917e-16 0)
(0.000751376 -0.000129132 -2.55042e-15 -0.000271217 2.36573e-16 0)
(0.000823762 -3.45332e-05 -1.29698e-15 -0.000290227 3.9839e-16 0)
(0.000726199 -6.93178e-05 -3.06433e-15 -0.000272746 2.02421e-16 0)
(0.000787101 1.1324e-05 3.56648e-16 -0.000283036 -1.334e-15 0)
(0.00070284 -2.2892e-05 -1.15348e-15 -0.000272909 -1.01937e-15 0)
(0.000754441 4.62995e-05 1.17094e-15 -0.000276946 -3.13649e-15 0)
(0.000681124 1.3296e-05 -1.42719e-15 -0.000272063 -1.09981e-15 0)
(0.000725073 7.29378e-05 1.01839e-15 -0.000271643 -2.18819e-15 0)
(0.000660874 4.15385e-05 -2.41886e-16 -0.000270431 -5.25513e-16 0)
(0.000698412 9.3073e-05 1.32495e-15 -0.000266859 -1.6514e-15 0)
(0.000641921 6.35083e-05 1.64739e-15 -0.000268155 -1.30397e-15 0)
(0.000673979 0.000108024 1.3127e-15 -0.000262369 -3.01809e-15 0)
(0.000624115 8.04211e-05 8.96147e-16 -0.000265328 -1.7524e-15 0)
(0.000836645 -0.000451357 -5.07553e-15 -0.00024239 -3.16782e-15 0)
(0.00068479 -0.000441096 -1.20748e-15 -0.000162729 -2.99077e-15 0)
(0.000828001 -0.000309122 -3.60172e-16 -0.000264028 -3.62948e-15 0)
(0.000694331 -0.000314947 -6.01841e-16 -0.000208324 -1.67162e-15 0)
(0.000813173 -0.000202014 -1.47327e-15 -0.000277571 -1.20477e-15 0)
(0.000695547 -0.000218054 -3.61646e-15 -0.000239676 4.11021e-16 0)
(0.000795158 -0.000120641 -3.92839e-15 -0.000285763 1.09233e-16 0)
(0.00069142 -0.000142995 -2.82234e-15 -0.000261113 4.76507e-16 0)
(0.000775657 -5.83628e-05 -2.93857e-15 -0.000290307 3.8538e-16 0)
(0.000683864 -8.44214e-05 1.66533e-16 -0.000275499 -8.76035e-17 0)
(0.000755641 -1.0442e-05 -1.53041e-15 -0.000292282 -1.40079e-16 0)
(0.000674124 -3.84422e-05 -1.0127e-15 -0.000284765 -1.09938e-16 0)
(0.00073566 2.65405e-05 -2.7124e-15 -0.000292392 3.98227e-16 0)
(0.000663038 -2.2e-06 -1.30256e-15 -0.000290246 1.51029e-16 0)
(0.000716024 5.50699e-05 -8.64814e-16 -0.000291103 -2.04426e-16 0)
(0.000651192 2.64171e-05 -1.30598e-15 -0.000292887 1.6469e-16 0)
(0.000696907 7.69575e-05 1.49078e-16 -0.000288731 -2.02746e-16 0)
(0.000639016 4.8972e-05 -2.41452e-16 -0.000293379 1.89519e-16 0)
(0.00067841 9.35165e-05 1.19967e-15 -0.000285493 -4.10316e-16 0)
(0.000626836 6.66102e-05 -9.08561e-16 -0.000292237 -9.51496e-16 0)
(0.000643813 -0.000440598 -1.24011e-15 -0.000152599 -1.29454e-15 0)
(0.000536693 -0.000411159 -2.0074e-15 -8.73759e-05 -1.27177e-16 0)
(0.000683506 -0.000313558 -1.98669e-15 -0.000206928 -4.32434e-16 0)
(0.000580866 -0.00030388 -3.63121e-15 -0.000161124 4.29236e-16 0)
(0.000705288 -0.000216065 -3.87516e-15 -0.000244232 4.43601e-16 0)
(0.000608849 -0.000219838 -2.05706e-15 -0.000213279 -3.80013e-16 0)
(0.000715162 -0.000140696 -1.13115e-15 -0.00026962 4.36933e-17 0)
(0.000625539 -0.000153548 -3.51932e-16 -0.000250024 -2.11419e-16 0)
(0.000717044 -8.20687e-05 4.26959e-16 -0.000286511 -1.18178e-16 0)
(0.00063427 -0.000100951 5.32452e-16 -0.000275598 -2.36248e-16 0)
(0.000713529 -3.62456e-05 4.20779e-16 -0.000297234 -1.53252e-16 0)
(0.000637343 -5.90146e-05 4.63713e-16 -0.000292953 -1.09515e-15 0)
(0.000706361 -3.2187e-07 -1.82851e-16 -0.000303407 -9.73614e-16 0)
(0.00063639 -2.54584e-05 3.67978e-16 -0.00030418 -1.02468e-15 0)
(0.000696741 2.78623e-05 -1.41613e-15 -0.000306185 5.91107e-16 0)
(0.00063261 1.45106e-06 -9.79468e-16 -0.000310799 4.00071e-16 0)
(0.000685517 4.99155e-05 -1.03715e-15 -0.000306413 2.31369e-16 0)
(0.000626948 2.30321e-05 9.19078e-16 -0.00031396 -5.74085e-16 0)
(0.000673319 6.70193e-05 -3.16045e-16 -0.000304722 -1.03471e-15 0)
(0.000620192 4.02675e-05 -5.99997e-16 -0.000314561 1.95156e-16 0)
(0.000464155 -0.000396351 -2.42059e-15 -7.82848e-05 1.19116e-15 0)
(0.000403268 -0.00035775 -8.46762e-16 -3.06823e-05 1.30641e-15 0)
(0.000542934 -0.000295492 -2.17935e-15 -0.000157159 6.05798e-16 0)
(0.000473678 -0.000277221 3.51932e-16 -0.000123688 6.29217e-16 0)
(0.00059525 -0.000216031 -5.67038e-17 -0.000212838 -3.29814e-16 0)
(0.000522688 -0.000212205 9.04767e-16 -0.000190532 8.87528e-16 0)
(0.000629083 -0.000153095 -6.91396e-16 -0.00025191 4.15358e-16 0)
(0.000556301 -0.000159511 -9.65916e-16 -0.000238424 8.4584e-16 0)
(0.000649864 -0.000103024 -3.12575e-16 -0.000278914 -5.11743e-17 0)
(0.000578702 -0.000116662 2.92735e-17 -0.0002724 3.89337e-16 0)
(0.000661338 -6.30503e-05 9.47918e-16 -0.000297017 -7.82089e-16 0)
(0.000592841 -8.17289e-05 3.40982e-16 -0.000296013 -2.15052e-16 0)
(0.000666118 -3.10596e-05 3.17238e-16 -0.000308478 -7.30915e-16 0)
(0.000600823 -5.31884e-05 -1.87806e-15 -0.000311816 3.96818e-17 0)
(0.000666065 -5.41403e-06 -1.19718e-15 -0.000314949 -3.83808e-16 0)
(0.000604206 -2.9821e-05 -2.30252e-15 -0.000321686 -1.63877e-16 0)
(0.000662544 1.51683e-05 4.26634e-17 -0.000317689 -6.69495e-17 0)
(0.000604254 -1.06329e-05 -1.30755e-16 -0.000327075 3.52962e-16 0)
(0.000656605 3.16728e-05 4.46691e-16 -0.000317702 6.82126e-16 0)
(0.000602207 5.1635e-06 1.56548e-15 -0.000329228 -3.04444e-16 0)
(0.000308147 -0.000326074 -1.61546e-16 -2.65e-05 1.16275e-15 0)
(0.000291224 -0.000288027 2.15865e-16 3.29631e-06 7.2029e-16 0)
(0.000414221 -0.00025845 1.60798e-15 -0.000119579 9.00376e-16 0)
(0.000377854 -0.000238508 1.21788e-15 -9.87344e-05 5.05238e-16 0)
(0.000488851 -0.000202697 7.27825e-16 -0.000186486 1.29345e-15 0)
(0.000440796 -0.00019609 -9.73614e-16 -0.000173029 1.08323e-15 0)
(0.000540964 -0.000156734 -9.0108e-16 -0.000234363 1.00186e-15 0)
(0.000486349 -0.000159948 -3.23092e-17 -0.00022699 -1.68756e-16 0)
(0.000576771 -0.000118845 1.22949e-16 -0.000268209 1.79273e-16 0)
(0.000518985 -0.000129256 2.9371e-16 -0.000265828 3.50848e-16 0)
(0.000600641 -8.76152e-05 -2.71918e-16 -0.000291578 8.97448e-16 0)
(0.000541896 -0.000103258 -9.4434e-17 -0.000293277 8.62103e-16 0)
(0.000615686 -6.18792e-05 -1.46628e-15 -0.000307034 2.05402e-16 0)
(0.000557342 -8.12757e-05 -6.40872e-16 -0.000312036 1.95698e-17 0)
(0.000624151 -4.06521e-05 -2.22522e-15 -0.000316475 1.19262e-18 0)
(0.000566876 -6.26791e-05 -7.63712e-16 -0.000324078 -1.1666e-15 0)
(0.000627699 -2.30498e-05 -9.34149e-16 -0.000321408 -6.59791e-16 0)
(0.000571593 -4.68161e-05 -1.95536e-15 -0.000330901 -2.72015e-15 0)
(0.000627659 -8.22453e-06 4.3856e-16 -0.000323209 -1.80541e-15 0)
(0.000572828 -3.29893e-05 -1.64452e-15 -0.000333956 -2.53438e-15 0)
(0.000182724 -0.000239108 -1.1872e-16 -1.11959e-06 2.08872e-16 0)
(0.000204111 -0.000210026 -1.38127e-16 1.32955e-05 -1.59649e-16 0)
(0.000303184 -0.000207513 1.20346e-17 -9.72094e-05 1.17582e-16 0)
(0.000296527 -0.000192138 -6.45317e-16 -8.74322e-05 3.36103e-17 0)
(0.000390832 -0.000178072 -8.18898e-16 -0.00016736 3.747e-16 0)
(0.000365736 -0.000173321 -8.11959e-16 -0.000161744 1.85399e-17 0)
(0.000454535 -0.000151439 -1.71629e-16 -0.000218318 -2.12612e-16 0)
(0.000417595 -0.000154772 3.93565e-17 -0.000216302 -3.75405e-16 0)
(0.000500563 -0.000127758 3.31007e-16 -0.00025495 -8.09357e-17 0)
(0.000456444 -0.00013708 2.17274e-16 -0.000255943 4.04407e-17 0)
(0.000533431 -0.000106935 2.77014e-16 -0.000280819 5.60587e-16 0)
(0.000485523 -0.000120492 -2.53053e-16 -0.000284219 5.36463e-16 0)
(0.000556426 -8.87713e-05 -2.64545e-17 -0.000298564 6.08942e-16 0)
(0.000507224 -0.000105029 5.57171e-16 -0.000303725 -7.73578e-17 0)
(0.000571955 -7.29925e-05 7.62411e-16 -0.000310166 -1.69293e-15 0)
(0.00052311 -9.0475e-05 1.14188e-15 -0.000316278 -1.00397e-15 0)
(0.000581796 -5.9174e-05 -1.75153e-15 -0.000317235 -2.36736e-15 0)
(0.000533441 -7.60905e-05 -9.71445e-16 -0.000322855 -4.58997e-16 0)
(0.000587432 -4.63741e-05 -2.86305e-15 -0.000321746 -1.88006e-15 0)
(0.000535051 -5.94121e-05 -1.32273e-15 -0.000323008 7.0072e-16 0)
(9.13517e-05 -0.000145561 -4.9548e-16 -2.87445e-06 -2.05944e-16 0)
(0.000142652 -0.000131618 -3.43692e-16 5.96142e-07 -1.82092e-16 0)
(0.000213535 -0.000148638 -5.7029e-16 -9.14404e-05 -1.83826e-16 0)
(0.000230978 -0.000143415 -7.04731e-16 -9.0001e-05 1.65883e-17 0)
(0.000304766 -0.000145372 -7.76397e-16 -0.000156672 -6.88468e-17 0)
(0.000298284 -0.000147661 -4.60786e-16 -0.000157391 -5.66496e-17 0)
(0.000372773 -0.000138479 -2.83736e-16 -0.000204065 -1.41055e-16 0)
(0.000349313 -0.000147097 -5.71375e-17 -0.000206936 -1.49728e-16 0)
(0.000423188 -0.000129582 2.00252e-16 -0.000237682 -2.6029e-16 0)
(0.000387648 -0.000143556 -9.83371e-17 -0.000242668 -3.78983e-16 0)
(0.000460137 -0.000119677 -4.98299e-16 -0.000260462 5.19333e-17 0)
(0.000415987 -0.000138332 -1.07347e-15 -0.000267582 1.79978e-17 0)
(0.000486619 -0.000109382 -7.17742e-17 -0.000274414 -3.85976e-17 0)
(0.000436373 -0.000132459 -3.6169e-16 -0.000283857 -2.8482e-16 0)
(0.000504688 -9.91121e-05 8.32993e-16 -0.000280582 8.1532e-17 0)
(0.000450484 -0.000127074 -3.31766e-16 -0.000292997 9.20759e-17 0)
(0.000515353 -8.92368e-05 4.98625e-16 -0.000278474 3.07913e-16 0)
(0.000460308 -0.000124279 3.78387e-17 -0.000295882 1.34143e-16 0)
(0.000517704 -8.03689e-05 -5.60207e-16 -0.000263748 1.37049e-15 0)
(0.000470501 -0.00012986 -1.56234e-16 -0.000292772 4.13379e-16 0)
(3.50323e-05 -5.47907e-05 -3.38163e-16 -3.17757e-05 -5.84927e-17 0)
(0.00010797 -5.93928e-05 -4.22188e-16 -3.37344e-05 -2.05998e-17 0)
(0.000148336 -8.865e-05 -5.61942e-16 -0.00010495 2.29038e-17 0)
(0.000185376 -9.6588e-05 -6.08888e-16 -0.000107741 8.61941e-18 0)
(0.000234967 -0.000109764 -4.73254e-16 -0.000159334 5.58364e-18 0)
(0.000245685 -0.000121158 -4.1178e-16 -0.000163099 -6.18537e-17 0)
(0.000301023 -0.000122175 -1.77592e-16 -0.000199094 -1.37423e-16 0)
(0.000292541 -0.000136892 -3.64726e-16 -0.000203931 -2.94578e-16 0)
(0.000351162 -0.000128697 -4.31404e-16 -0.000227443 -4.01588e-16 0)
(0.000328811 -0.000146536 -5.55979e-16 -0.000233436 -3.06829e-16 0)
(0.000388924 -0.000131345 -7.40835e-16 -0.000246842 -2.65982e-16 0)
(0.000356782 -0.000152146 -4.56341e-16 -0.000254094 1.92988e-17 0)
(0.000417016 -0.000131651 -1.0108e-15 -0.000259214 4.61599e-17 0)
(0.000378352 -0.000155329 -9.05417e-16 -0.000267866 1.74529e-16 0)
(0.00043759 -0.00013095 -1.03216e-15 -0.000266245 -1.71087e-16 0)
(0.000395235 -0.000157387 -6.53123e-16 -0.000276447 -4.0129e-16 0)
(0.000452679 -0.000130781 -1.86591e-16 -0.000270198 -1.47695e-16 0)
(0.000409094 -0.000159064 -1.46801e-16 -0.000281713 -5.53485e-17 0)
(0.000465447 -0.000133727 3.64617e-16 -0.000276786 -3.81585e-16 0)
(0.000420964 -0.000158602 -1.86808e-16 -0.000286882 -5.46438e-16 0)
(9.75753e-06 2.64551e-05 -4.08636e-16 -8.39979e-05 5.9848e-17 0)
(9.63367e-05 1.50848e-06 -3.38271e-16 -8.57669e-05 9.89877e-17 0)
(0.000106734 -3.23341e-05 -4.22622e-16 -0.000135635 -4.2826e-18 0)
(0.000157355 -5.51884e-05 -2.97722e-16 -0.000138284 1.41488e-16 0)
(0.000182452 -7.36323e-05 -4.53088e-16 -0.000174137 6.68682e-17 0)
(0.000206168 -9.55745e-05 -2.18792e-16 -0.000177536 6.78711e-17 0)
(0.000241501 -0.00010234 -3.6028e-16 -0.000202352 -2.32263e-16 0)
(0.000245239 -0.000124105 -9.97466e-17 -0.000206433 -1.44768e-16 0)
(0.000287487 -0.000122052 -2.82109e-16 -0.000222551 -1.6011e-16 0)
(0.000276558 -0.000144065 -2.38524e-18 -0.00022728 -4.86807e-17 0)
(0.00032325 -0.000135429 -1.42464e-16 -0.000236585 2.89482e-17 0)
(0.000301758 -0.000157875 -1.49186e-16 -0.000241933 1.07851e-16 0)
(0.000351078 -0.000144482 -5.09141e-16 -0.000246055 2.01716e-16 0)
(0.000322207 -0.000167275 -3.1572e-16 -0.000251958 2.84603e-16 0)
(0.000372917 -0.000150731 -4.98299e-16 -0.000252489 -4.3734e-17 0)
(0.000339045 -0.000173383 -2.32019e-16 -0.000258764 6.49437e-17 0)
(0.000390536 -0.000155137 -3.56052e-16 -0.000257368 -2.52335e-16 0)
(0.000353124 -0.000176679 -5.35596e-17 -0.000263634 1.94072e-17 0)
(0.000405357 -0.000157262 -2.91759e-16 -0.000261005 -3.65512e-17 0)
(0.000364914 -0.000177563 -5.39282e-16 -0.000267102 4.23544e-16 0)
(1.03087e-05 9.26852e-05 -3.04444e-16 -0.000154253 1.27611e-16 0)
(0.000102838 4.71374e-05 -2.81676e-16 -0.000150335 6.85758e-17 0)
(8.57129e-05 1.59991e-05 -2.16407e-16 -0.000179841 1.72063e-16 0)
(0.000143659 -2.21548e-05 -2.43295e-16 -0.000178047 1.1357e-16 0)
(0.000145949 -3.99543e-05 -1.2902e-16 -0.000198702 8.15049e-17 0)
(0.000177759 -7.28657e-05 -8.52183e-17 -0.000198424 -4.89788e-17 0)
(0.000194155 -8.06357e-05 2.97071e-17 -0.000212269 3.52366e-18 0)
(0.000206307 -0.00010982 2.25514e-17 -0.0002131 4.80031e-17 0)
(0.000232826 -0.000110087 1.11998e-16 -0.000221717 -2.9165e-17 0)
(0.000230289 -0.000136564 1.08203e-16 -0.000223381 -8.23994e-18 0)
(0.000263966 -0.000131296 -5.17164e-17 -0.000228042 5.06458e-17 0)
(0.000250549 -0.000155689 -5.13912e-17 -0.000230336 2.57227e-16 0)
(0.000289215 -0.000146439 -4.47775e-17 -0.000232102 3.68453e-16 0)
(0.000267794 -0.000169052 4.57533e-17 -0.000234862 3.1347e-16 0)
(0.000309926 -0.000157026 -8.13152e-17 -0.000234606 2.69831e-16 0)
(0.000282591 -0.000177959 -3.9465e-17 -0.000237677 3.87467e-17 0)
(0.00032717 -0.000163972 2.95987e-17 -0.000235992 4.55636e-17 0)
(0.000295347 -0.00018336 4.4474e-16 -0.00023925 -3.08713e-16 0)
(0.000341666 -0.000167961 -4.55365e-17 -0.000236529 1.71223e-16 0)
(0.000306357 -0.000185969 1.59161e-16 -0.000239882 -2.88086e-16 0)
(3.06117e-05 0.000139839 -3.93999e-16 -0.000236004 7.13405e-17 0)
(0.000121741 7.4998e-05 -4.67725e-16 -0.000221301 1.38615e-16 0)
(8.11426e-05 5.31466e-05 -3.51065e-16 -0.00023282 8.04749e-17 0)
(0.000140418 5.99627e-07 -3.72098e-16 -0.00022264 1.84531e-16 0)
(0.00012302 -1.11605e-05 -1.93747e-16 -0.000229786 7.82252e-17 0)
(0.000158108 -5.45163e-05 -2.00794e-16 -0.000222834 3.90855e-17 0)
(0.000157873 -5.88148e-05 -6.78711e-17 -0.000226747 -4.8369e-17 0)
(0.000174591 -9.52372e-05 -1.25767e-16 -0.000222123 -2.24809e-16 0)
(0.000187013 -9.40289e-05 -1.19262e-18 -0.000223649 -7.08255e-17 0)
(0.000189804 -0.000125134 -8.84709e-17 -0.000220723 -2.79995e-16 0)
(0.000211522 -0.000119896 3.28513e-17 -0.000220508 3.81504e-17 0)
(0.00020378 -0.000146826 3.64292e-17 -0.000218835 -1.56437e-16 0)
(0.000232295 -0.000138671 2.30935e-17 -0.000217376 1.10087e-16 0)
(0.000216591 -0.000162237 -1.55908e-16 -0.000216631 -8.78204e-17 0)
(0.000250052 -0.000151986 -6.94974e-17 -0.000214291 -2.32019e-17 0)
(0.000228313 -0.0001728 -1.90169e-16 -0.000214231 -1.69325e-16 0)
(0.000265342 -0.000161046 2.74086e-16 -0.000211264 -3.86545e-16 0)
(0.000239008 -0.000179591 -1.26635e-16 -0.000211705 -5.47075e-16 0)
(0.000278573 -0.000166755 2.7452e-16 -0.000208279 -7.39046e-16 0)
(0.000248729 -0.000183429 -8.86877e-17 -0.000209084 -8.08368e-16 0)
(6.40398e-05 0.000165466 -6.59629e-16 -0.000321811 3.47324e-16 0)
(0.00014697 8.42809e-05 -5.37764e-16 -0.00029202 5.13885e-16 0)
(8.84246e-05 7.71666e-05 -3.55835e-16 -0.000289301 3.47256e-16 0)
(0.000143646 1.2347e-05 -3.89445e-16 -0.000267425 1.94533e-16 0)
(0.000110794 1.10972e-05 -3.87494e-16 -0.000263876 -7.58942e-18 0)
(0.000144856 -4.13167e-05 -6.24934e-16 -0.00024772 -1.90887e-16 0)
(0.000131173 -3.83622e-05 -4.05492e-16 -0.000243678 -2.77474e-16 0)
(0.000149012 -8.12639e-05 -4.55365e-16 -0.000231703 -2.78803e-16 0)
(0.000149666 -7.5302e-05 -1.91253e-16 -0.000227393 -3.90503e-16 0)
(0.000155066 -0.000110806 -1.1189e-16 -0.000218511 -3.31657e-16 0)
(0.000166433 -0.000102726 1.10589e-17 -0.000214096 -3.48544e-16 0)
(0.000162333 -0.000132388 -1.51788e-18 -0.000207527 -3.09038e-16 0)
(0.000181653 -0.00012286 -1.38127e-16 -0.000203127 -2.3372e-16 0)
(0.000170315 -0.000147868 -2.47632e-16 -0.000198296 -1.81794e-16 0)
(0.000195487 -0.00013737 -3.38813e-16 -0.000193977 -1.47282e-16 0)
(0.000178637 -0.000158656 -1.867e-16 -0.000190456 -1.55502e-16 0)
(0.000208066 -0.000147514 -3.31983e-16 -0.000186241 -3.7077e-16 0)
(0.000187015 -0.000165812 -1.05168e-16 -0.00018371 -3.7754e-16 0)
(0.000219493 -0.000154245 -1.73147e-16 -0.000179595 -6.91003e-16 0)
(0.000195234 -0.00017013 1.14709e-16 -0.000177813 -5.56521e-16 0)
(0.000103742 0.000168964 -1.25702e-15 -0.000403815 1.00459e-15 0)
(0.000172608 7.60444e-05 -1.41944e-15 -0.000355965 7.54713e-16 0)
(0.00010295 8.74135e-05 -6.16694e-16 -0.000344012 9.98957e-17 0)
(0.000149616 1.35217e-05 -6.2862e-16 -0.000308059 -7.76289e-17 0)
(0.000106408 2.5955e-05 -5.92842e-16 -0.000297609 -1.32991e-16 0)
(0.000135769 -3.34228e-05 -2.9924e-16 -0.000270323 -2.18616e-16 0)
(0.00011255 -2.03758e-05 -4.09612e-16 -0.000261117 -2.7967e-16 0)
(0.000128414 -6.84846e-05 -6.15827e-17 -0.000240261 -3.87114e-16 0)
(0.00012036 -5.51866e-05 -7.58942e-17 -0.00023212 -3.25274e-16 0)
(0.000125921 -9.43278e-05 1.84314e-17 -0.000216149 -2.19978e-16 0)
(0.000129208 -8.11756e-05 -3.77302e-17 -0.000208992 -2.16224e-16 0)
(0.000126966 -0.000113171 3.77302e-17 -0.000196736 -2.12158e-16 0)
(0.000138645 -0.000100406 -6.28837e-17 -0.000190465 -2.59822e-16 0)
(0.000130501 -0.000126724 8.1532e-17 -0.000181029 -2.5886e-16 0)
(0.000148329 -0.000114442 -4.59702e-17 -0.000175519 -1.69034e-16 0)
(0.000135724 -0.000136269 8.34836e-17 -0.000168218 -2.29133e-16 0)
(0.000157994 -0.000124464 6.59195e-17 -0.000163331 -2.45728e-16 0)
(0.000142011 -0.000142746 1.46584e-16 -0.000157648 -2.02183e-16 0)
(0.000167442 -0.000131353 1.74123e-16 -0.000153244 -3.11091e-16 0)
(0.000148869 -0.000146821 2.32019e-16 -0.000148795 -2.41933e-16 0)
(0.000143118 0.000151682 -1.16292e-15 -0.000474429 2.61659e-16 0)
(0.00019353 5.31761e-05 -2.45897e-16 -0.00040756 -9.40613e-16 0)
(0.000120468 8.43355e-05 -6.10406e-16 -0.000392274 -4.27921e-16 0)
(0.000154941 5.26819e-06 -1.0018e-16 -0.000340936 -8.51986e-16 0)
(0.000107163 3.30747e-05 6.39679e-17 -0.000327984 -4.72739e-16 0)
(0.000127908 -3.09251e-05 1.91687e-16 -0.000288049 -5.81959e-16 0)
(0.000100336 -5.61308e-06 6.74374e-17 -0.000276888 -3.82595e-16 0)
(0.00011111 -5.70596e-05 1.84314e-17 -0.000246094 -3.45e-16 0)
(9.8428e-05 -3.46066e-05 -3.23092e-17 -0.00023666 -2.51203e-16 0)
(0.00010193 -7.59474e-05 -1.88651e-17 -0.000212937 -2.10816e-16 0)
(0.000100127 -5.62798e-05 9.69277e-17 -0.000205041 -1.80181e-16 0)
(9.82416e-05 -8.95996e-05 2.00577e-16 -0.000186706 -3.50509e-16 0)
(0.000104379 -7.24295e-05 2.24864e-16 -0.000180118 -3.55171e-16 0)
(9.84736e-05 -9.94174e-05 1.63715e-16 -0.000165868 -2.60066e-16 0)
(0.000110361 -8.43886e-05 1.07987e-16 -0.00016036 -2.09651e-16 0)
(0.000101472 -0.000106417 5.07407e-17 -0.000149197 -1.65283e-16 0)
(0.000117438 -9.31415e-05 1.08637e-16 -0.000144547 -1.62386e-16 0)
(0.000106361 -0.000111355 8.08815e-17 -0.000135691 -1.3703e-16 0)
(0.000125112 -9.93972e-05 1.94506e-16 -0.000131675 -1.49969e-16 0)
(0.000112417 -0.000114756 1.58077e-16 -0.000124517 -2.53927e-16 0)
(0.000176523 0.000116381 -7.41594e-17 -0.000527748 -1.85839e-15 0)
(0.000206498 1.93863e-05 -2.27899e-16 -0.000443521 -1.64229e-15 0)
(0.000137233 6.82988e-05 4.66207e-17 -0.000430973 -1.01112e-15 0)
(0.000151293 -1.31189e-05 5.08924e-16 -0.000361665 -4.555e-16 0)
(0.000109383 3.24832e-05 4.00287e-16 -0.000350283 -4.35724e-16 0)
(0.000116772 -3.23793e-05 4.77266e-16 -0.000297204 -1.12954e-16 0)
(9.21411e-05 6.12069e-06 1.67618e-16 -0.000287745 -2.79714e-16 0)
(9.5376e-05 -4.55329e-05 1.65666e-16 -0.000247174 -1.56979e-16 0)
(8.28393e-05 -1.35823e-05 1.95156e-18 -0.000239435 -2.05412e-16 0)
(8.29703e-05 -5.49072e-05 1.36393e-16 -0.000208226 -2.16874e-17 0)
(7.92533e-05 -2.84517e-05 1.97108e-16 -0.000201911 -2.21384e-16 0)
(7.69402e-05 -6.16323e-05 2.17274e-16 -0.000177758 -6.5418e-17 0)
(7.97347e-05 -3.97271e-05 1.64582e-16 -0.000172612 -1.63442e-16 0)
(7.55166e-05 -6.64366e-05 6.20164e-17 -0.000153826 3.07642e-17 0)
(8.30771e-05 -4.83116e-05 2.29851e-17 -0.000149642 -8.00954e-17 0)
(7.74629e-05 -6.98954e-05 5.63785e-18 -0.000134948 -4.09405e-17 0)
(8.83733e-05 -5.48984e-05 2.92735e-17 -0.000131551 -1.27795e-16 0)
(8.18928e-05 -7.25805e-05 3.96818e-17 -0.000119899 -2.40795e-17 0)
(9.48867e-05 -6.00035e-05 8.93383e-17 -0.000117104 -1.62307e-16 0)
(8.81224e-05 -7.52695e-05 4.92228e-17 -0.000107411 -1.01907e-16 0)
(0.000200844 6.02127e-05 -1.82146e-17 -0.000568194 -1.2927e-15 0)
(0.000171071 -3.48705e-05 3.42608e-17 -0.000450656 -1.65985e-16 0)
(0.00014326 4.11802e-05 2.50668e-16 -0.000444636 -1.61258e-16 0)
(0.000129807 -3.17842e-05 -5.78964e-17 -0.000361904 3.49926e-17 0)
(0.000107602 2.8239e-05 3.42391e-16 -0.000357153 -2.68679e-17 0)
(0.000101368 -3.06156e-05 6.09322e-17 -0.000294897 -6.10575e-17 0)
(8.56711e-05 1.78508e-05 2.23996e-16 -0.000291064 -5.83707e-17 0)
(8.24883e-05 -3.01413e-05 3.05745e-17 -0.000243092 1.52839e-17 0)
(7.30507e-05 9.36253e-06 1.06469e-16 -0.000239973 5.13166e-17 0)
(7.09022e-05 -2.98213e-05 1.05384e-16 -0.000202623 2.70644e-17 0)
(6.69839e-05 2.4991e-06 1.69352e-16 -0.000200077 6.2118e-17 0)
(6.48531e-05 -2.94178e-05 1.41597e-16 -0.00017086 2.2731e-17 0)
(6.5622e-05 -2.9868e-06 1.01264e-16 -0.000168784 4.73288e-17 0)
(6.29759e-05 -2.88301e-05 1.1601e-16 -0.00014592 1.44301e-17 0)
(6.76784e-05 -7.36761e-06 4.46691e-17 -0.000144241 1.93073e-17 0)
(6.42462e-05 -2.8024e-05 6.657e-17 -0.000126465 1.01644e-19 0)
(7.22318e-05 -1.09972e-05 3.07913e-17 -0.000125139 1.31172e-17 0)
(6.79764e-05 -2.70156e-05 7.39426e-17 -0.000111636 1.02898e-17 0)
(7.85742e-05 -1.44807e-05 4.81386e-17 -0.000110668 -5.89535e-18 0)
(7.39133e-05 -2.59089e-05 9.28077e-17 -0.000101162 -1.56176e-17 0)
(9.56592e-05 -2.54817e-05 5.09575e-17 -0.000101162 -1.71507e-17 0)
(9.4879e-05 -1.11681e-05 5.85469e-18 -6.86854e-05 -4.59702e-17 0)
(9.43111e-05 -7.2447e-05 4.6187e-17 -0.000106829 -1.45271e-16 0)
(0.000113273 -4.73276e-05 6.33174e-17 -7.39321e-05 -1.29234e-16 0)
(0.000112057 -0.000115521 1.53523e-16 -0.000124807 -2.37666e-16 0)
(0.000144763 -7.96321e-05 1.2078e-16 -8.64756e-05 -2.08302e-17 0)
(0.000142939 -0.000152556 2.02746e-16 -0.000151558 -2.13628e-16 0)
(0.000186655 -0.00010539 3.70363e-16 -0.000104727 8.12474e-17 0)
(0.000184354 -0.000181416 2.65304e-16 -0.000184659 -3.70912e-16 0)
(0.000236434 -0.000123036 -3.40873e-16 -0.000126963 5.33156e-17 0)
(0.000233874 -0.000200421 -1.9559e-16 -0.000221594 -5.4307e-16 0)
(0.000291423 -0.000131678 -2.086e-16 -0.000151385 5.60926e-16 0)
(0.000288885 -0.000208407 -5.63785e-17 -0.000259535 2.14814e-16 0)
(0.000348802 -0.000131047 -8.91214e-17 -0.000176193 6.40357e-16 0)
(0.000346593 -0.000204739 -6.34041e-16 -0.000295239 5.29145e-16 0)
(0.000405728 -0.000121454 -4.67074e-16 -0.000199702 2.807e-16 0)
(0.000404131 -0.000189314 -4.72387e-16 -0.000324843 -2.94713e-16 0)
(0.000459587 -0.000103664 -5.16514e-16 -0.000220499 1.00332e-15 0)
(0.000458789 -0.000162403 -3.747e-16 -0.000342927 3.62408e-16 0)
(0.000508407 -7.85152e-05 -6.34909e-16 -0.000237624 7.19124e-16 0)
(0.000104643 -2.57283e-05 -1.12757e-17 -6.97915e-05 -2.13173e-17 0)
(0.000109176 -1.52823e-05 7.48099e-17 -5.22416e-05 -2.43666e-17 0)
(0.000108685 -6.8263e-05 7.80626e-17 -7.86036e-05 -4.04246e-17 0)
(0.000126016 -4.96188e-05 1.36176e-16 -5.87455e-05 -2.49858e-17 0)
(0.000124962 -0.000108748 8.19657e-17 -9.68119e-05 2.09285e-17 0)
(0.000153753 -8.04761e-05 -5.24754e-17 -7.14685e-05 1.21522e-16 0)
(0.000152159 -0.000144141 1.44741e-16 -0.000123066 2.24484e-16 0)
(0.000190565 -0.000105486 1.32273e-17 -8.93499e-05 3.27348e-16 0)
(0.000188541 -0.000172335 -6.26669e-17 -0.000155681 3.85712e-16 0)
(0.000234407 -0.000123127 -6.08888e-16 -0.000110925 4.76764e-16 0)
(0.000232136 -0.000191726 -6.72531e-16 -0.000192623 7.17511e-16 0)
(0.000283 -0.000132493 -2.38524e-18 -0.000134541 7.75015e-16 0)
(0.000280727 -0.000201187 1.558e-16 -0.0002315 8.22069e-16 0)
(0.000333893 -0.000133259 -1.27936e-17 -0.000158469 1.80167e-16 0)
(0.000331892 -0.000200058 -1.10263e-16 -0.000269574 1.63132e-16 0)
(0.000384541 -0.000125655 -6.22983e-16 -0.000181005 -3.9736e-16 0)
(0.000383073 -0.000188072 -7.54388e-16 -0.000303714 6.54289e-16 0)
(0.000432368 -0.000110406 4.9071e-16 -0.000200553 -5.48091e-16 0)
(0.000431626 -0.00016505 -6.14743e-17 -0.000330013 6.36454e-16 0)