/*--------------------------------*- C++ -*----------------------------------*\
| =========                 |                                                 |
| \\      /  F ield         | OpenFOAM: The Open Source CFD Toolbox           |
|  \\    /   O peration     | Version:  v2012                                 |
|   \\  /    A nd           | Website:  www.openfoam.com                      |
|    \\/     M anipulation  |                                                 |
\*---------------------------------------------------------------------------*/
FoamFile
{
    version     2.0;
    format      ascii;
    class       pointScalarField;
    location    "2";
    object      pEpsilonEq;
}
// * * * * * * * * * * * * * * * * * * * * * * * * * * * * * * * * * * * * * //

dimensions      [0 0 0 0 0 0 0];


internalField   nonuniform List<scalar> 
2142
(
0.000424044
0.000214197
0.000293335
0.000227701
0.0012682
0.000111516
0.000483444
0.000494644
0.000506981
0.000259444
0.000243748
0.000243748
0.000494644
0.000483444
0.0012682
0.000424044
0.000111516
0.000214197
0.000259444
0.000293335
0.000506981
0.000227701
0.000483776
0.000498179
0.000517471
0.000536685
0.000551232
0.000558127
0.000556139
0.000545562
0.000528121
0.000457989
0.000430047
0.000393549
0.000350997
0.000303922
0.000253788
0.000202597
0.000154184
0.000117899
0.000339247
0.000271364
0.000221417
0.000184371
0.000157
0.000137025
0.00012281
0.000113238
0.000107728
0.000105957
0.000102524
0.000107385
0.000116428
0.000127464
0.000139314
0.000151332
0.000163139
0.000174491
0.000185204
0.000195119
0.000204079
0.000211917
0.000218444
0.000223436
0.000226629
0.000227711
0.000226324
0.00022207
0.000213307
0.000215492
0.000218462
0.000222401
0.000227277
0.000232995
0.000239425
0.000246394
0.000253633
0.000263684
0.000267072
0.00027035
0.000273518
0.000276559
0.000279452
0.000282172
0.000284696
0.000286998
0.000289055
0.000290845
0.000292347
0.000293543
0.000294416
0.000294955
0.000295154
0.000295015
0.000294554
0.000293817
0.000293501
0.000294621
0.000298851
0.000306279
0.000316607
0.000329487
0.000344606
0.000361685
0.000380458
0.000400623
0.000421806
0.000443509
0.000465059
0.000485565
0.000503876
0.000518555
0.000527876
0.000529862
0.000522194
0.000484349
0.00045642
0.000423621
0.000387123
0.000348855
0.000311283
0.000277213
0.000249434
0.000229539
0.000246801
0.000266007
0.000283464
0.000299447
0.000314169
0.000327807
0.000340514
0.000352429
0.000363682
0.000374394
0.000384684
0.000394667
0.000404459
0.000414177
0.000423941
0.000433878
0.000444122
0.000454823
0.000466149
0.000509882
0.000540059
0.000576934
0.000622892
0.000681083
0.000755797
0.000852973
0.000980887
0.00115074
0.000468075
0.000438885
0.000414673
0.000393073
0.000373961
0.000357337
0.000343079
0.000330973
0.000320751
0.000312114
0.000304752
0.000298345
0.000292585
0.000287187
0.000281915
0.000276618
0.000271272
0.000266055
0.000261483
0.000531772
0.000532833
0.000532823
0.000532006
0.000530483
0.000528309
0.00052554
0.000522251
0.000518536
0.000514512
0.000510322
0.000506139
0.000502169
0.000498662
0.000495921
0.000494315
0.000494296
0.000496429
0.000501437
0.00119516
0.00114374
0.00107431
0.000982952
0.000874069
0.000752928
0.000624709
0.000494192
0.000365763
0.00013379
6.10099e-05
0.000104078
0.00018308
0.00025717
0.000320931
0.000372232
0.000409942
0.000436503
0.000253364
0.000315265
0.000369619
0.000412102
0.000443654
0.000466073
0.000480909
0.000488915
0.000488907
0.000253364
0.000315265
0.000369619
0.000412102
0.000443654
0.000466073
0.000480909
0.000488915
0.000488907
0.000528121
0.000545562
0.000556139
0.000558127
0.000551232
0.000536685
0.000517471
0.000498179
0.000483776
0.000509882
0.000540059
0.000576934
0.000622892
0.000681083
0.000755797
0.000852973
0.000980887
0.00115074
0.00119516
0.00114374
0.00107431
0.000982952
0.000874069
0.000752928
0.000624709
0.000494192
0.000365763
0.00013379
6.10099e-05
0.000104078
0.00018308
0.00025717
0.000320931
0.000372232
0.000409942
0.000436503
0.000339247
0.000271364
0.000221417
0.000184371
0.000157
0.000137025
0.00012281
0.000113238
0.000107728
0.000117899
0.000154184
0.000202597
0.000253788
0.000303922
0.000350997
0.000393549
0.000430047
0.000457989
0.000105957
0.000102524
0.000107385
0.000116428
0.000127464
0.000139314
0.000151332
0.000163139
0.000174491
0.000185204
0.000195119
0.000204079
0.000211917
0.000218444
0.000223436
0.000226629
0.000227711
0.000226324
0.00022207
0.000213307
0.000215492
0.000218462
0.000222401
0.000227277
0.000232995
0.000239425
0.000246394
0.000253633
0.000261483
0.000266055
0.000271272
0.000276618
0.000281915
0.000287187
0.000292585
0.000298345
0.000304752
0.000312114
0.000320751
0.000330973
0.000343079
0.000357337
0.000373961
0.000393073
0.000414673
0.000438885
0.000468075
0.000263684
0.000267072
0.00027035
0.000273518
0.000276559
0.000279452
0.000282172
0.000284696
0.000286998
0.000289055
0.000290845
0.000292347
0.000293543
0.000294416
0.000294955
0.000295154
0.000295015
0.000294554
0.000293817
0.000293501
0.000294621
0.000298851
0.000306279
0.000316607
0.000329487
0.000344606
0.000361685
0.000380458
0.000400623
0.000421806
0.000443509
0.000465059
0.000485565
0.000503876
0.000518555
0.000527876
0.000529862
0.000522194
0.000501437
0.000496429
0.000494296
0.000494315
0.000495921
0.000498662
0.000502169
0.000506139
0.000510322
0.000514512
0.000518536
0.000522251
0.00052554
0.000528309
0.000530483
0.000532006
0.000532823
0.000532833
0.000531772
0.000484349
0.00045642
0.000423621
0.000387123
0.000348855
0.000311283
0.000277213
0.000249434
0.000229539
0.000246801
0.000266007
0.000283464
0.000299447
0.000314169
0.000327807
0.000340514
0.000352429
0.000363682
0.000374394
0.000384684
0.000394667
0.000404459
0.000414177
0.000423941
0.000433878
0.000444122
0.000454823
0.000466149
0.00106687
0.000919302
0.000807991
0.000722967
0.000657218
0.000605684
0.000564647
0.000531315
0.000503514
0.00102002
0.00088412
0.000783432
0.00070771
0.000649875
0.00060492
0.00056925
0.000540255
0.000516067
0.000957163
0.000837309
0.000750907
0.000687669
0.000640477
0.000604389
0.000575971
0.000552827
0.000533258
0.000876976
0.000778166
0.000710003
0.000662192
0.000627712
0.000601868
0.000581567
0.000564773
0.000550137
0.000782729
0.000708561
0.00066143
0.000630873
0.000610105
0.00059492
0.000582789
0.000572224
0.000562356
0.000678749
0.000631454
0.000606793
0.000594049
0.000586927
0.000581996
0.000577503
0.000572633
0.000567071
0.000569483
0.000550177
0.000548169
0.000552658
0.000558263
0.000562622
0.000564892
0.000564969
0.00056311
0.00045922
0.000468102
0.000487752
0.000507914
0.000524716
0.000537111
0.000545182
0.000549456
0.000550701
0.000352198
0.000388561
0.00042758
0.000460892
0.000486813
0.000505783
0.000518769
0.000526757
0.000530818
0.000171543
0.000254563
0.000318692
0.00036621
0.000400517
0.000424496
0.0004405
0.000450784
0.000458949
0.000125624
0.00021358
0.000279349
0.000328006
0.000363688
0.000389658
0.000408592
0.000422816
0.000434035
0.000136695
0.000196624
0.000251999
0.000295949
0.000329582
0.000355011
0.000374198
0.000388673
0.000399437
0.000183648
0.000202321
0.000236492
0.000269508
0.000297131
0.000319076
0.000336068
0.000348954
0.000358469
0.000237665
0.000222378
0.000231119
0.000248376
0.000266374
0.000282237
0.000295218
0.000305369
0.000312997
0.000287297
0.00024759
0.000232801
0.000232176
0.000237883
0.000245507
0.000252959
0.000259388
0.000264526
0.000328186
0.00027162
0.000237861
0.000220047
0.000212293
0.000210169
0.000210842
0.000212686
0.000214807
0.000358478
0.000289985
0.000241965
0.000210196
0.000190135
0.000178105
0.000171368
0.000168022
0.000166777
0.000373299
0.000295569
0.000240441
0.000200921
0.000172789
0.00015314
0.000139866
0.000131442
0.000126819
0.000113451
0.000149832
0.000195569
0.000243456
0.000290428
0.000334895
0.000375796
0.000412235
0.000443246
0.000113543
0.000147124
0.000189101
0.000233318
0.000276881
0.000318241
0.000356388
0.00039048
0.000419575
0.000118329
0.000147211
0.000184198
0.000223934
0.000263616
0.000301695
0.00033719
0.000369346
0.000397393
0.000126118
0.000149997
0.000181684
0.000216652
0.000252237
0.000286889
0.000319638
0.000349788
0.000376714
0.000135701
0.000155042
0.00018167
0.000211935
0.000243413
0.000274594
0.000304518
0.000332531
0.000358111
0.00014624
0.000161771
0.000183875
0.000209736
0.000237257
0.000265022
0.000292102
0.000317875
0.000341892
0.000157161
0.000169618
0.000187845
0.000209739
0.000233565
0.000258054
0.000282334
0.000305815
0.000328095
0.000168072
0.000178093
0.000193083
0.000211505
0.00023197
0.000253388
0.000274965
0.000296153
0.000316583
0.000178684
0.000186787
0.000199116
0.000214558
0.000232031
0.000250625
0.000269642
0.000288583
0.000307107
0.000188776
0.000195364
0.000205519
0.000218436
0.000233285
0.000249325
0.000265959
0.000282741
0.000299357
0.000198151
0.000203536
0.000211917
0.000222709
0.000235282
0.000249043
0.000263491
0.000278235
0.000292991
0.000206627
0.000211048
0.000217975
0.000226984
0.000237597
0.000249345
0.000261815
0.000274668
0.000287648
0.000214011
0.000217653
0.000223384
0.000230898
0.000239833
0.000249822
0.000260525
0.000271652
0.000282976
0.000220095
0.000223097
0.000227838
0.000234101
0.000241614
0.000250086
0.000259239
0.000268825
0.000278639
0.000224633
0.0002271
0.000231018
0.000236243
0.000242572
0.000249771
0.000257605
0.000265858
0.000274347
0.00022733
0.000229326
0.00023256
0.000236951
0.000242342
0.000248531
0.000255306
0.000262476
0.000269873
0.000227812
0.000229339
0.000232018
0.000235816
0.000240559
0.000246043
0.000252076
0.000258479
0.000265095
0.000225562
0.000226515
0.000228882
0.000232426
0.000236869
0.000242022
0.000247714
0.000253779
0.000260054
0.000219524
0.000220195
0.000222774
0.000226414
0.000230943
0.000236233
0.000242136
0.000248483
0.000255083
0.000483891
0.000490396
0.000494939
0.000497905
0.000499595
0.000500261
0.000500123
0.000499383
0.000498238
0.000496883
0.000495521
0.000494368
0.000493662
0.000493664
0.000494671
0.000497013
0.000501057
0.000507189
0.000515753
0.000452774
0.000459226
0.000464529
0.000468747
0.000472015
0.000474497
0.000476366
0.000477798
0.000478973
0.000480076
0.0004813
0.00048285
0.000484943
0.000487813
0.000491714
0.000496924
0.000503741
0.0005125
0.000523598
0.000427402
0.000433552
0.000439003
0.00044378
0.00044795
0.000451612
0.000454884
0.0004579
0.000460804
0.000463751
0.000466902
0.000470431
0.00047452
0.000479363
0.000485164
0.000492142
0.000500526
0.000510557
0.000522479
0.000405118
0.000411322
0.000417019
0.00042225
0.000427076
0.000431571
0.000435826
0.000439946
0.000444043
0.000448239
0.000452666
0.00045746
0.000462767
0.000468738
0.000475528
0.000483301
0.000492223
0.000502462
0.000514186
0.000385479
0.000391881
0.000397868
0.000403491
0.000408808
0.000413886
0.000418798
0.000423627
0.000428464
0.000433403
0.000438547
0.000444002
0.000449879
0.000456292
0.00046336
0.0004712
0.000479934
0.000489686
0.000500576
0.000368331
0.0003749
0.000381108
0.000387002
0.000392636
0.000398067
0.000403355
0.000408568
0.000413774
0.00041905
0.000424472
0.000430122
0.000436083
0.000442442
0.000449285
0.000456702
0.000464781
0.000473614
0.00048329
0.000353483
0.000360101
0.000366392
0.000372399
0.000378165
0.000383734
0.000389157
0.000394485
0.000399772
0.000405074
0.00041045
0.000415962
0.000421671
0.000427642
0.000433938
0.000440627
0.000447775
0.000455449
0.00046372
0.000340698
0.000347214
0.000353433
0.000359386
0.000365104
0.000370624
0.000375981
0.000381213
0.000386361
0.000391467
0.000396573
0.000401724
0.000406965
0.000412343
0.000417905
0.0004237
0.000429779
0.000436193
0.000442994
0.00032971
0.00033598
0.000341978
0.000347725
0.000353244
0.000358557
0.000363691
0.000368672
0.000373527
0.000378285
0.000382976
0.000387631
0.000392281
0.000396958
0.000401697
0.000406533
0.000411502
0.000416643
0.000421998
0.000320245
0.000326144
0.000331798
0.000337218
0.000342415
0.000347405
0.000352203
0.000356825
0.000361287
0.000365607
0.000369803
0.000373895
0.000377901
0.000381842
0.00038574
0.000389618
0.000393502
0.000397421
0.000401404
0.000312017
0.000317455
0.000322674
0.000327677
0.00033247
0.000337058
0.000341448
0.000345648
0.000349665
0.000353506
0.000357179
0.000360693
0.000364057
0.000367279
0.00037037
0.000373343
0.000376213
0.000378998
0.000381719
0.000304742
0.00030966
0.000314387
0.000318922
0.000323261
0.000327407
0.000331357
0.000335112
0.000338671
0.000342033
0.000345198
0.000348164
0.000350928
0.000353491
0.00035585
0.000358008
0.000359967
0.000361734
0.000363321
0.00029814
0.000302515
0.000306729
0.000310775
0.000314649
0.000318344
0.000321855
0.000325176
0.000328301
0.00033122
0.000333925
0.000336406
0.00033865
0.000340646
0.000342382
0.000343844
0.000345023
0.000345912
0.000346509
0.000291953
0.000295797
0.000299509
0.000303082
0.000306507
0.000309776
0.00031288
0.000315808
0.000318549
0.000321088
0.000323411
0.000325497
0.000327328
0.000328879
0.000330125
0.00033104
0.000331597
0.000331772
0.000331542
0.000285977
0.000289335
0.000292592
0.000295738
0.000298765
0.00030166
0.000304414
0.000307013
0.000309442
0.000311684
0.000313719
0.000315521
0.000317062
0.000318309
0.000319224
0.000319765
0.000319886
0.000319539
0.000318676
0.000280095
0.000283055
0.000285942
0.000288745
0.000291453
0.000294056
0.00029654
0.000298892
0.000301096
0.000303133
0.000304982
0.000306613
0.000307995
0.000309085
0.000309837
0.000310192
0.000310087
0.000309446
0.000308189
0.000274338
0.000277044
0.000279699
0.000282289
0.000284799
0.000287218
0.000289535
0.000291736
0.000293807
0.000295732
0.000297489
0.000299051
0.000300384
0.000301446
0.000302185
0.000302536
0.00030242
0.000301741
0.000300383
0.000268962
0.000271655
0.000274295
0.00027686
0.000279338
0.000281721
0.000284
0.000286166
0.000288206
0.000290104
0.000291844
0.000293402
0.00029475
0.000295852
0.000296664
0.000297125
0.000297162
0.000296676
0.000295542
0.000264623
0.000267677
0.000270579
0.000273365
0.000276044
0.000278608
0.000281046
0.000283344
0.000285487
0.000287458
0.000289239
0.000290813
0.000292159
0.000293255
0.000294073
0.000294581
0.000294738
0.00029449
0.000293766
0.000468741
0.000457679
0.000447041
0.000436712
0.000426578
0.000416524
0.000406438
0.000396206
0.000385715
0.000374849
0.000363489
0.000351509
0.000338779
0.000325159
0.000310494
0.000294619
0.000277349
0.000258479
0.000237794
0.000485064
0.000474467
0.000464105
0.000453891
0.000443738
0.000433559
0.000423264
0.00041276
0.000401953
0.000390745
0.000379034
0.000366716
0.000353685
0.000339834
0.000325059
0.00030927
0.000292403
0.000274449
0.000255499
0.000506459
0.000496539
0.000486658
0.000476757
0.000466778
0.00045666
0.000446338
0.000435746
0.000424815
0.000413472
0.000401642
0.000389251
0.000376225
0.000362494
0.000347997
0.000332688
0.000316545
0.000299571
0.000281803
0.000528009
0.000519141
0.000510079
0.000500804
0.000491294
0.000481521
0.000471453
0.000461053
0.000450278
0.000439087
0.000427433
0.000415272
0.000402562
0.000389269
0.000375372
0.000360867
0.000345784
0.000330196
0.000314252
0.00054519
0.000537854
0.00053006
0.000521835
0.000513195
0.00050415
0.000494704
0.000484853
0.00047459
0.000463902
0.000452779
0.000441211
0.000429194
0.000416736
0.000403864
0.000390632
0.000377141
0.000363557
0.000350141
0.000555061
0.000549753
0.000543704
0.000536981
0.00052964
0.00052173
0.000513295
0.000504368
0.000494979
0.000485157
0.00047493
0.000464328
0.000453394
0.000442185
0.000430786
0.000419317
0.000407959
0.000396966
0.0003867
0.000556389
0.000553574
0.00054971
0.0005449
0.00053924
0.000532823
0.000525733
0.000518049
0.000509844
0.000501191
0.000492163
0.000482838
0.000473311
0.000463694
0.000454137
0.000444834
0.000436043
0.00042811
0.000421488
0.00054948
0.00054959
0.000548252
0.000545638
0.000541907
0.000537207
0.000531677
0.000525442
0.000518625
0.000511343
0.000503717
0.000495877
0.000487969
0.000480167
0.000472687
0.000465796
0.000459839
0.000455252
0.000452584
0.000536826
0.000540154
0.000541301
0.000540735
0.000538789
0.000535709
0.000531696
0.000526922
0.000521543
0.000515714
0.000509593
0.000503349
0.000497177
0.000491304
0.000486005
0.00048162
0.000478574
0.000477401
0.000478776
0.00106687
0.000919302
0.000807991
0.000722967
0.000657218
0.000605684
0.000564647
0.000531315
0.000503514
0.00102002
0.00088412
0.000783432
0.00070771
0.000649875
0.00060492
0.00056925
0.000540255
0.000516067
0.000957163
0.000837309
0.000750907
0.000687669
0.000640477
0.000604389
0.000575971
0.000552827
0.000533258
0.000876976
0.000778166
0.000710003
0.000662192
0.000627712
0.000601868
0.000581567
0.000564773
0.000550137
0.000782729
0.000708561
0.00066143
0.000630873
0.000610105
0.00059492
0.000582789
0.000572224
0.000562356
0.000678749
0.000631454
0.000606793
0.000594049
0.000586927
0.000581996
0.000577503
0.000572633
0.000567071
0.000569483
0.000550177
0.000548169
0.000552658
0.000558263
0.000562622
0.000564892
0.000564969
0.00056311
0.00045922
0.000468102
0.000487752
0.000507914
0.000524716
0.000537111
0.000545182
0.000549456
0.000550701
0.000352198
0.000388561
0.00042758
0.000460892
0.000486813
0.000505783
0.000518769
0.000526757
0.000530818
0.000171543
0.000254563
0.000318692
0.00036621
0.000400517
0.000424496
0.0004405
0.000450784
0.000458949
0.000125624
0.00021358
0.000279349
0.000328006
0.000363688
0.000389658
0.000408592
0.000422816
0.000434035
0.000136695
0.000196624
0.000251999
0.000295949
0.000329582
0.000355011
0.000374198
0.000388673
0.000399437
0.000183648
0.000202321
0.000236492
0.000269508
0.000297131
0.000319076
0.000336068
0.000348954
0.000358469
0.000237665
0.000222378
0.000231119
0.000248376
0.000266374
0.000282237
0.000295218
0.000305369
0.000312997
0.000287297
0.00024759
0.000232801
0.000232176
0.000237883
0.000245507
0.000252959
0.000259388
0.000264526
0.000328186
0.00027162
0.000237861
0.000220047
0.000212293
0.000210169
0.000210842
0.000212686
0.000214807
0.000358478
0.000289985
0.000241965
0.000210196
0.000190135
0.000178105
0.000171368
0.000168022
0.000166777
0.000373299
0.000295569
0.000240441
0.000200921
0.000172789
0.00015314
0.000139866
0.000131442
0.000126819
0.000113451
0.000149832
0.000195569
0.000243456
0.000290428
0.000334895
0.000375796
0.000412235
0.000443246
0.000113543
0.000147124
0.000189101
0.000233318
0.000276881
0.000318241
0.000356388
0.00039048
0.000419575
0.000118329
0.000147211
0.000184198
0.000223934
0.000263616
0.000301695
0.00033719
0.000369346
0.000397393
0.000126118
0.000149997
0.000181684
0.000216652
0.000252237
0.000286889
0.000319638
0.000349788
0.000376714
0.000135701
0.000155042
0.00018167
0.000211935
0.000243413
0.000274594
0.000304518
0.000332531
0.000358111
0.00014624
0.000161771
0.000183875
0.000209736
0.000237257
0.000265022
0.000292102
0.000317875
0.000341892
0.000157161
0.000169618
0.000187845
0.000209739
0.000233565
0.000258054
0.000282334
0.000305815
0.000328095
0.000168072
0.000178093
0.000193083
0.000211505
0.00023197
0.000253388
0.000274965
0.000296153
0.000316583
0.000178684
0.000186787
0.000199116
0.000214558
0.000232031
0.000250625
0.000269642
0.000288583
0.000307107
0.000188776
0.000195364
0.000205519
0.000218436
0.000233285
0.000249325
0.000265959
0.000282741
0.000299357
0.000198151
0.000203536
0.000211917
0.000222709
0.000235282
0.000249043
0.000263491
0.000278235
0.000292991
0.000206627
0.000211048
0.000217975
0.000226984
0.000237597
0.000249345
0.000261815
0.000274668
0.000287648
0.000214011
0.000217653
0.000223384
0.000230898
0.000239833
0.000249822
0.000260525
0.000271652
0.000282976
0.000220095
0.000223097
0.000227838
0.000234101
0.000241614
0.000250086
0.000259239
0.000268825
0.000278639
0.000224633
0.0002271
0.000231018
0.000236243
0.000242572
0.000249771
0.000257605
0.000265858
0.000274347
0.00022733
0.000229326
0.00023256
0.000236951
0.000242342
0.000248531
0.000255306
0.000262476
0.000269873
0.000227812
0.000229339
0.000232018
0.000235816
0.000240559
0.000246043
0.000252076
0.000258479
0.000265095
0.000225562
0.000226515
0.000228882
0.000232426
0.000236869
0.000242022
0.000247714
0.000253779
0.000260054
0.000219524
0.000220195
0.000222774
0.000226414
0.000230943
0.000236233
0.000242136
0.000248483
0.000255083
0.000483891
0.000490396
0.000494939
0.000497905
0.000499595
0.000500261
0.000500123
0.000499383
0.000498238
0.000496883
0.000495521
0.000494368
0.000493662
0.000493664
0.000494671
0.000497013
0.000501057
0.000507189
0.000515753
0.000452774
0.000459226
0.000464529
0.000468747
0.000472015
0.000474497
0.000476366
0.000477798
0.000478973
0.000480076
0.0004813
0.00048285
0.000484943
0.000487813
0.000491714
0.000496924
0.000503741
0.0005125
0.000523598
0.000427402
0.000433552
0.000439003
0.00044378
0.00044795
0.000451612
0.000454884
0.0004579
0.000460804
0.000463751
0.000466902
0.000470431
0.00047452
0.000479363
0.000485164
0.000492142
0.000500526
0.000510557
0.000522479
0.000405118
0.000411322
0.000417019
0.00042225
0.000427076
0.000431571
0.000435826
0.000439946
0.000444043
0.000448239
0.000452666
0.00045746
0.000462767
0.000468738
0.000475528
0.000483301
0.000492223
0.000502462
0.000514186
0.000385479
0.000391881
0.000397868
0.000403491
0.000408808
0.000413886
0.000418798
0.000423627
0.000428464
0.000433403
0.000438547
0.000444002
0.000449879
0.000456292
0.00046336
0.0004712
0.000479934
0.000489686
0.000500576
0.000368331
0.0003749
0.000381108
0.000387002
0.000392636
0.000398067
0.000403355
0.000408568
0.000413774
0.00041905
0.000424472
0.000430122
0.000436083
0.000442442
0.000449285
0.000456702
0.000464781
0.000473614
0.00048329
0.000353483
0.000360101
0.000366392
0.000372399
0.000378165
0.000383734
0.000389157
0.000394485
0.000399772
0.000405074
0.00041045
0.000415962
0.000421671
0.000427642
0.000433938
0.000440627
0.000447775
0.000455449
0.00046372
0.000340698
0.000347214
0.000353433
0.000359386
0.000365104
0.000370624
0.000375981
0.000381213
0.000386361
0.000391467
0.000396573
0.000401724
0.000406965
0.000412343
0.000417905
0.0004237
0.000429779
0.000436193
0.000442994
0.00032971
0.00033598
0.000341978
0.000347725
0.000353244
0.000358557
0.000363691
0.000368672
0.000373527
0.000378285
0.000382976
0.000387631
0.000392281
0.000396958
0.000401697
0.000406533
0.000411502
0.000416643
0.000421998
0.000320245
0.000326144
0.000331798
0.000337218
0.000342415
0.000347405
0.000352203
0.000356825
0.000361287
0.000365607
0.000369803
0.000373895
0.000377901
0.000381842
0.00038574
0.000389618
0.000393502
0.000397421
0.000401404
0.000312017
0.000317455
0.000322674
0.000327677
0.00033247
0.000337058
0.000341448
0.000345648
0.000349665
0.000353506
0.000357179
0.000360693
0.000364057
0.000367279
0.00037037
0.000373343
0.000376213
0.000378998
0.000381719
0.000304742
0.00030966
0.000314387
0.000318922
0.000323261
0.000327407
0.000331357
0.000335112
0.000338671
0.000342033
0.000345198
0.000348164
0.000350928
0.000353491
0.00035585
0.000358008
0.000359967
0.000361734
0.000363321
0.00029814
0.000302515
0.000306729
0.000310775
0.000314649
0.000318344
0.000321855
0.000325176
0.000328301
0.00033122
0.000333925
0.000336406
0.00033865
0.000340646
0.000342382
0.000343844
0.000345023
0.000345912
0.000346509
0.000291953
0.000295797
0.000299509
0.000303082
0.000306507
0.000309776
0.00031288
0.000315808
0.000318549
0.000321088
0.000323411
0.000325497
0.000327328
0.000328879
0.000330125
0.00033104
0.000331597
0.000331772
0.000331542
0.000285977
0.000289335
0.000292592
0.000295738
0.000298765
0.00030166
0.000304414
0.000307013
0.000309442
0.000311684
0.000313719
0.000315521
0.000317062
0.000318309
0.000319224
0.000319765
0.000319886
0.000319539
0.000318676
0.000280095
0.000283055
0.000285942
0.000288745
0.000291453
0.000294056
0.00029654
0.000298892
0.000301096
0.000303133
0.000304982
0.000306613
0.000307995
0.000309085
0.000309837
0.000310192
0.000310087
0.000309446
0.000308189
0.000274338
0.000277044
0.000279699
0.000282289
0.000284799
0.000287218
0.000289535
0.000291736
0.000293807
0.000295732
0.000297489
0.000299051
0.000300384
0.000301446
0.000302185
0.000302536
0.00030242
0.000301741
0.000300383
0.000268962
0.000271655
0.000274295
0.00027686
0.000279338
0.000281721
0.000284
0.000286166
0.000288206
0.000290104
0.000291844
0.000293402
0.00029475
0.000295852
0.000296664
0.000297125
0.000297162
0.000296676
0.000295542
0.000264623
0.000267677
0.000270579
0.000273365
0.000276044
0.000278608
0.000281046
0.000283344
0.000285487
0.000287458
0.000289239
0.000290813
0.000292159
0.000293255
0.000294073
0.000294581
0.000294738
0.00029449
0.000293766
0.000468741
0.000457679
0.000447041
0.000436712
0.000426578
0.000416524
0.000406438
0.000396206
0.000385715
0.000374849
0.000363489
0.000351509
0.000338779
0.000325159
0.000310494
0.000294619
0.000277349
0.000258479
0.000237794
0.000485064
0.000474467
0.000464105
0.000453891
0.000443738
0.000433559
0.000423264
0.00041276
0.000401953
0.000390745
0.000379034
0.000366716
0.000353685
0.000339834
0.000325059
0.00030927
0.000292403
0.000274449
0.000255499
0.000506459
0.000496539
0.000486658
0.000476757
0.000466778
0.00045666
0.000446338
0.000435746
0.000424815
0.000413472
0.000401642
0.000389251
0.000376225
0.000362494
0.000347997
0.000332688
0.000316545
0.000299571
0.000281803
0.000528009
0.000519141
0.000510079
0.000500804
0.000491294
0.000481521
0.000471453
0.000461053
0.000450278
0.000439087
0.000427433
0.000415272
0.000402562
0.000389269
0.000375372
0.000360867
0.000345784
0.000330196
0.000314252
0.00054519
0.000537854
0.00053006
0.000521835
0.000513195
0.00050415
0.000494704
0.000484853
0.00047459
0.000463902
0.000452779
0.000441211
0.000429194
0.000416736
0.000403864
0.000390632
0.000377141
0.000363557
0.000350141
0.000555061
0.000549753
0.000543704
0.000536981
0.00052964
0.00052173
0.000513295
0.000504368
0.000494979
0.000485157
0.00047493
0.000464328
0.000453394
0.000442185
0.000430786
0.000419317
0.000407959
0.000396966
0.0003867
0.000556389
0.000553574
0.00054971
0.0005449
0.00053924
0.000532823
0.000525733
0.000518049
0.000509844
0.000501191
0.000492163
0.000482838
0.000473311
0.000463694
0.000454137
0.000444834
0.000436043
0.00042811
0.000421488
0.00054948
0.00054959
0.000548252
0.000545638
0.000541907
0.000537207
0.000531677
0.000525442
0.000518625
0.000511343
0.000503717
0.000495877
0.000487969
0.000480167
0.000472687
0.000465796
0.000459839
0.000455252
0.000452584
0.000536826
0.000540154
0.000541301
0.000540735
0.000538789
0.000535709
0.000531696
0.000526922
0.000521543
0.000515714
0.000509593
0.000503349
0.000497177
0.000491304
0.000486005
0.00048162
0.000478574
0.000477401
0.000478776
)
;

boundaryField
{
    back
    {
        type            empty;
    }
    front
    {
        type            empty;
    }
    left
    {
        type            calculated;
    }
    hole
    {
        type            calculated;
    }
    down
    {
        type            calculated;
    }
    right
    {
        type            calculated;
    }
    up
    {
        type            calculated;
    }
}


// ************************************************************************* //
