/*--------------------------------*- C++ -*----------------------------------*\
| =========                 |                                                 |
| \\      /  F ield         | OpenFOAM: The Open Source CFD Toolbox           |
|  \\    /   O peration     | Version:  v2012                                 |
|   \\  /    A nd           | Website:  www.openfoam.com                      |
|    \\/     M anipulation  |                                                 |
\*---------------------------------------------------------------------------*/
FoamFile
{
    version     2.0;
    format      ascii;
    class       volSymmTensorField;
    location    "2";
    object      sigma;
}
// * * * * * * * * * * * * * * * * * * * * * * * * * * * * * * * * * * * * * //

dimensions      [1 -1 -2 0 0 0 0];


internalField   nonuniform List<symmTensor> 
2000
(
(1.16013e+08 -1.31147e+06 -9.73204e-05 887296 2.3965e-05 3.507e+07)
(9.8624e+07 -8.56183e+06 -1.95136e-05 -406312 -1.56575e-05 2.94653e+07)
(1.0227e+08 211035 7.41311e-05 5.82064e+06 3.99962e-05 3.24273e+07)
(8.7987e+07 -6.12529e+06 0.000114447 3.26948e+06 8.76227e-05 2.7377e+07)
(9.10676e+07 1.0735e+06 2.4913e-05 8.58619e+06 -2.31069e-05 2.98961e+07)
(7.94558e+07 -4.34212e+06 9.6533e-05 5.64087e+06 4.66048e-05 2.5529e+07)
(8.19695e+07 1.55804e+06 5.47387e-05 9.97265e+06 -0.000116206 2.75827e+07)
(7.25257e+07 -3.04024e+06 0.000132618 7.06834e+06 -8.00391e-06 2.38782e+07)
(7.45289e+07 1.83052e+06 5.44395e-05 1.04758e+07 -4.82395e-05 2.55014e+07)
(6.68047e+07 -2.07907e+06 9.74992e-05 7.80033e+06 -3.73808e-05 2.23815e+07)
(6.83742e+07 1.98382e+06 2.55701e-05 1.04052e+07 3.02643e-05 2.36338e+07)
(6.20009e+07 -1.36074e+06 3.88994e-05 8.02406e+06 -1.19913e-05 2.10075e+07)
(6.32124e+07 2.07058e+06 6.11933e-06 9.9572e+06 6.85149e-05 2.19509e+07)
(5.78947e+07 -818625 5.6547e-05 7.88091e+06 -7.79375e-06 1.97327e+07)
(5.88139e+07 2.12168e+06 3.71257e-05 9.25897e+06 -4.44273e-06 2.04219e+07)
(5.43174e+07 -407354 3.90906e-05 7.47699e+06 5.21626e-05 1.85383e+07)
(5.49973e+07 2.15625e+06 -5.50379e-06 8.39433e+06 1.99485e-05 1.90175e+07)
(5.11327e+07 -96800.2 -5.27683e-06 6.89189e+06 0.000130147 1.74074e+07)
(5.16147e+07 2.18729e+06 1.26794e-06 7.41948e+06 6.83514e-05 1.77102e+07)
(4.82202e+07 129536 4.71062e-05 6.18499e+06 8.94559e-05 1.63215e+07)
(1.14031e+08 -7.4223e+06 0.000283266 5.86184e+06 -0.000102463 3.5968e+07)
(9.42272e+07 -1.40995e+07 0.000455518 1.93368e+06 -2.25639e-05 2.88483e+07)
(1.00064e+08 -4.36382e+06 0.000140792 7.98694e+06 0.000109118 3.24153e+07)
(8.47633e+07 -9.84936e+06 5.14679e-05 4.78909e+06 9.80786e-06 2.68657e+07)
(8.93023e+07 -2.02273e+06 9.45116e-05 9.28795e+06 5.50992e-05 2.95771e+07)
(7.71101e+07 -6.65064e+06 0.000145016 6.45685e+06 -3.59622e-05 2.50701e+07)
(8.07222e+07 -273626 0.000204165 9.91582e+06 5.14737e-05 2.71914e+07)
(7.08202e+07 -4.22961e+06 0.000212296 7.33424e+06 1.20438e-05 2.34463e+07)
(7.3734e+07 1.02378e+06 0.000158074 1.00353e+07 -4.31663e-05 2.51308e+07)
(6.55721e+07 -2.38842e+06 0.000129522 7.67055e+06 -7.35356e-05 2.19728e+07)
(6.79421e+07 1.98493e+06 6.74093e-05 9.78588e+06 -8.88779e-05 2.33184e+07)
(6.11249e+07 -982672 4.08734e-05 7.63108e+06 -5.43928e-05 2.06268e+07)
(6.30633e+07 2.6969e+06 5.53079e-05 9.27717e+06 -3.0165e-05 2.17021e+07)
(5.72947e+07 92487.8 6.44516e-05 7.33029e+06 5.22093e-05 1.93875e+07)
(5.88865e+07 3.22264e+06 6.17859e-05 8.59362e+06 0.000111716 2.0244e+07)
(5.39391e+07 912553 2.91317e-05 6.84982e+06 0.000190687 1.82367e+07)
(5.52522e+07 3.60506e+06 2.26807e-06 7.8019e+06 0.00019583 1.89162e+07)
(5.0949e+07 1.53105e+06 4.48286e-05 6.24909e+06 0.000151677 1.71594e+07)
(5.20404e+07 3.86762e+06 6.84543e-05 6.96009e+06 9.14758e-05 1.77002e+07)
(4.82509e+07 1.98539e+06 8.52014e-05 5.57233e+06 7.65714e-05 1.6147e+07)
(1.06937e+08 -1.39432e+07 5.02332e-05 7.04602e+06 1.7911e-05 3.41948e+07)
(8.77153e+07 -1.8834e+07 -0.00047985 4.6906e+06 6.00673e-05 2.77218e+07)
(9.50814e+07 -8.67202e+06 -6.06015e-05 8.45899e+06 -7.0062e-05 3.10621e+07)
(7.98345e+07 -1.29284e+07 -0.000221042 6.04856e+06 -7.70209e-05 2.57649e+07)
(8.57592e+07 -4.79254e+06 -1.56751e-05 9.13462e+06 -6.5555e-05 2.84682e+07)
(7.3405e+07 -8.52341e+06 -0.000139817 6.71953e+06 1.59728e-05 2.40374e+07)
(7.82526e+07 -1.90682e+06 7.94451e-05 9.30318e+06 7.79958e-06 2.62667e+07)
(6.80669e+07 -5.19597e+06 -3.74202e-05 6.92454e+06 -4.69201e-05 2.24974e+07)
(7.20854e+07 253139 0.000103288 9.11878e+06 -6.67985e-05 2.43613e+07)
(6.35647e+07 -2.66012e+06 1.22832e-05 6.81611e+06 -3.72115e-05 2.11142e+07)
(6.69288e+07 1.87571e+06 2.80648e-05 8.69075e+06 -2.17174e-05 2.26859e+07)
(5.97103e+07 -715909 -9.07169e-05 6.4985e+06 8.52875e-05 1.98626e+07)
(6.25469e+07 3.09532e+06 -3.74494e-05 8.09887e+06 0.00010328 2.11937e+07)
(5.63611e+07 779094 -6.91469e-05 6.04394e+06 0.000160224 1.87215e+07)
(5.87655e+07 4.00824e+06 2.7392e-05 7.40225e+06 0.000170359 1.98503e+07)
(5.34079e+07 1.92731e+06 9.00805e-05 5.50331e+06 0.000149704 1.76734e+07)
(5.54528e+07 4.68361e+06 0.00011063 6.64395e+06 0.000138799 1.8629e+07)
(5.07653e+07 2.80294e+06 9.50822e-05 4.9129e+06 0.000136008 1.67035e+07)
(5.25063e+07 5.17311e+06 4.05669e-05 5.84978e+06 0.000126241 1.75068e+07)
(4.83613e+07 3.46077e+06 8.17176e-06 4.29854e+06 0.000149815 1.5798e+07)
(9.63147e+07 -1.93006e+07 -0.000502907 8.28939e+06 -1.18862e-05 3.13812e+07)
(7.90472e+07 -2.21591e+07 -0.000150051 7.59484e+06 -7.78149e-05 2.59926e+07)
(8.75653e+07 -1.23875e+07 -0.0002901 8.60835e+06 -7.56023e-06 2.88521e+07)
(7.33065e+07 -1.5228e+07 -0.000184709 7.14961e+06 -5.27231e-05 2.41368e+07)
(8.04105e+07 -7.31078e+06 -0.000218053 8.53105e+06 -4.48534e-05 2.66825e+07)
(6.84853e+07 -1.00362e+07 -0.000178812 6.6178e+06 -8.56028e-05 2.25309e+07)
(7.44791e+07 -3.53449e+06 -0.000178299 8.19478e+06 -6.12407e-05 2.48022e+07)
(6.43819e+07 -6.10109e+06 -5.96382e-05 6.02684e+06 -4.23081e-05 2.11226e+07)
(6.94889e+07 -700154 1.13608e-05 7.69077e+06 -5.21334e-06 2.31539e+07)
(6.08448e+07 -3.09068e+06 5.51984e-06 5.40488e+06 1.72572e-05 1.98749e+07)
(6.52298e+07 1.43927e+06 -9.99935e-05 7.08198e+06 7.72836e-05 2.16935e+07)
(5.77581e+07 -772095 1.51788e-07 4.77472e+06 -1.91662e-05 1.87599e+07)
(6.1545e+07 3.05757e+06 -3.22842e-05 6.41301e+06 6.79369e-05 2.03874e+07)
(5.50327e+07 1.02074e+06 0.000112496 4.15347e+06 -0.000132505 1.77558e+07)
(5.83151e+07 4.27863e+06 0.000109721 5.71592e+06 7.26249e-06 1.92093e+07)
(5.25981e+07 2.40761e+06 0.000152918 3.55352e+06 -0.000100601 1.68455e+07)
(5.54484e+07 5.19162e+06 0.0001076 5.01404e+06 9.15108e-05 1.81387e+07)
(5.03982e+07 3.4755e+06 6.38124e-05 2.98378e+06 -1.08937e-05 1.60146e+07)
(5.28732e+07 5.86059e+06 1.94669e-05 4.32672e+06 8.95785e-05 1.716e+07)
(4.83873e+07 4.28726e+06 2.46977e-05 2.45089e+06 -0.000127129 1.52515e+07)
(8.33243e+07 -2.28379e+07 -0.000205644 9.70185e+06 -0.000137532 2.79079e+07)
(6.88704e+07 -2.38086e+07 -0.00031804 1.02648e+07 -0.000143965 2.37406e+07)
(7.80971e+07 -1.51225e+07 -0.000154652 8.6677e+06 -0.000112253 2.60294e+07)
(6.55401e+07 -1.65924e+07 -3.27308e-05 7.98668e+06 -0.000182887 2.2058e+07)
(7.3502e+07 -9.39836e+06 -5.61004e-05 7.69475e+06 -0.000140719 2.4359e+07)
(6.25453e+07 -1.113e+07 -8.97448e-05 6.2098e+06 -0.000113468 2.06265e+07)
(6.94652e+07 -5.10574e+06 -0.00011049 6.77871e+06 -3.60322e-05 2.28732e+07)
(5.98497e+07 -6.95325e+06 -0.00013733 4.78703e+06 1.27385e-05 1.9391e+07)
(6.5903e+07 -1.85948e+06 -6.98372e-05 5.91897e+06 2.14518e-05 2.15466e+07)
(5.74156e+07 -3.7325e+06 -0.000165003 3.62624e+06 1.08996e-05 1.83126e+07)
(6.27388e+07 609754 1.92041e-05 5.11609e+06 -7.18309e-05 2.03565e+07)
(5.52078e+07 -1.23265e+06 -6.21106e-05 2.66747e+06 -5.4889e-05 1.73626e+07)
(5.99072e+07 2.49305e+06 6.30505e-05 4.37098e+06 -0.000168888 1.92835e+07)
(5.31957e+07 715938 -7.68487e-05 1.87022e+06 -5.92208e-05 1.65198e+07)
(5.7354e+07 3.92742e+06 5.48364e-05 3.68468e+06 -0.000117826 1.83116e+07)
(5.13534e+07 2.23669e+06 -1.30246e-05 1.20624e+06 -2.82968e-05 1.57679e+07)
(5.50349e+07 5.01162e+06 7.13434e-05 3.05875e+06 -8.89217e-05 1.74281e+07)
(4.96594e+07 3.41968e+06 8.87057e-05 655300 -7.02138e-05 1.50944e+07)
(5.29139e+07 5.81669e+06 7.06837e-05 2.49512e+06 -0.000162513 1.66227e+07)
(4.80957e+07 4.33036e+06 4.82541e-05 202563 -9.43598e-05 1.44895e+07)
(6.90489e+07 -2.43039e+07 -0.000273298 1.0947e+07 -0.000170575 2.39988e+07)
(5.79566e+07 -2.37513e+07 -6.50179e-05 1.23209e+07 -0.000161042 2.10832e+07)
(6.73605e+07 -1.6645e+07 -1.93939e-05 8.55892e+06 -0.000195433 2.27758e+07)
(5.70143e+07 -1.69587e+07 -3.24068e-05 8.4098e+06 -9.00105e-05 1.96272e+07)
(6.54163e+07 -1.08777e+07 -7.93298e-05 6.68394e+06 -6.4872e-05 2.16301e+07)
(5.58627e+07 -1.17413e+07 -0.000194733 5.50456e+06 2.21319e-05 1.84102e+07)
(6.33879e+07 -6.49603e+06 -0.000211529 5.18444e+06 5.8818e-06 2.05717e+07)
(5.46081e+07 -7.69972e+06 -0.000151972 3.31784e+06 2.56581e-05 1.73778e+07)
(6.13668e+07 -3.14261e+06 -0.000158231 3.96877e+06 2.07512e-05 1.96007e+07)
(5.33151e+07 -4.54577e+06 8.96719e-06 1.65709e+06 -4.71711e-06 1.64917e+07)
(5.94009e+07 -562264 -8.24065e-05 2.97427e+06 -7.54271e-06 1.87125e+07)
(5.20231e+07 -2.06996e+06 -5.45299e-05 390584 -5.91974e-06 1.57241e+07)
(5.75136e+07 1.4291e+06 -0.000146052 2.157e+06 2.1443e-05 1.79012e+07)
(5.07571e+07 -118461 -7.01379e-05 -573578 8.13235e-06 1.50551e+07)
(5.57154e+07 2.9653e+06 -4.65669e-05 1.48551e+06 -1.10076e-05 1.71603e+07)
(4.95342e+07 1.42246e+06 -7.03218e-05 -1.30086e+06 8.86794e-06 1.447e+07)
(5.40098e+07 4.14387e+06 8.02727e-06 937023 -1.09171e-05 1.64841e+07)
(4.83669e+07 2.63695e+06 -1.30013e-05 -1.83891e+06 1.02048e-05 1.39584e+07)
(5.23976e+07 5.03551e+06 6.45976e-05 495151 -2.2094e-05 1.58678e+07)
(4.72654e+07 3.5867e+06 -4.89225e-05 -2.2232e+06 -5.12344e-05 1.35127e+07)
(5.45043e+07 -2.37245e+07 -6.67752e-05 1.16206e+07 -6.97059e-05 1.98375e+07)
(4.70443e+07 -2.21393e+07 -0.000108091 1.34406e+07 -6.84799e-06 1.81455e+07)
(5.60506e+07 -1.68839e+07 -0.000106976 8.10413e+06 -2.32849e-05 1.92464e+07)
(4.82285e+07 -1.63627e+07 -0.000195527 8.27521e+06 2.31127e-05 1.69511e+07)
(5.65966e+07 -1.16342e+07 -0.000208662 5.46865e+06 2.38862e-05 1.86196e+07)
(4.87591e+07 -1.18374e+07 -0.000110765 4.49067e+06 -2.04622e-05 1.59749e+07)
(5.65018e+07 -7.57594e+06 -6.0908e-05 3.47507e+06 2.35272e-06 1.7993e+07)
(4.88479e+07 -8.26799e+06 -1.89502e-05 1.70221e+06 -1.13841e-05 1.5165e+07)
(5.5997e+07 -4.41908e+06 2.29901e-05 1.95941e+06 -6.36343e-06 1.73869e+07)
(4.86378e+07 -5.43581e+06 2.86705e-05 -355093 -1.2721e-05 1.44848e+07)
(5.52327e+07 -1.95169e+06 2.26573e-05 807006 -8.25203e-06 1.68119e+07)
(4.82266e+07 -3.17771e+06 2.49692e-05 -1.86631e+06 -5.89698e-05 1.39081e+07)
(5.4308e+07 -17331.5 -9.84581e-06 -64191.3 -5.24253e-05 1.62731e+07)
(4.76833e+07 -1.37084e+06 1.98142e-05 -2.96271e+06 -5.5175e-05 1.34162e+07)
(5.32893e+07 1.50028e+06 -7.62532e-05 -714459 3.18288e-05 1.57724e+07)
(4.70598e+07 78133.8 -5.27406e-05 -3.73915e+06 2.15423e-05 1.29962e+07)
(5.22225e+07 2.68776e+06 -5.58464e-05 -1.18916e+06 1.24583e-05 1.531e+07)
(4.63987e+07 1.24019e+06 4.94888e-05 -4.26562e+06 -3.09123e-05 1.26399e+07)
(5.11413e+07 3.60873e+06 -1.70178e-05 -1.52245e+06 -5.57151e-05 1.48857e+07)
(4.57377e+07 2.16825e+06 -3.23076e-05 -4.59515e+06 1.05084e-05 1.23428e+07)
(4.05762e+07 -2.1342e+07 -0.000130339 1.13679e+07 6.41393e-05 1.55832e+07)
(3.67611e+07 -1.92635e+07 -4.55949e-05 1.33946e+07 7.03451e-05 1.50467e+07)
(4.48142e+07 -1.59111e+07 -0.00011735 7.11698e+06 3.26199e-05 1.55794e+07)
(3.96399e+07 -1.49273e+07 1.89502e-05 7.47404e+06 3.38809e-05 1.41342e+07)
(4.74955e+07 -1.16325e+07 -3.05328e-06 3.98309e+06 -1.77592e-05 1.54436e+07)
(4.15587e+07 -1.14264e+07 4.87182e-05 3.1546e+06 4.779e-05 1.3414e+07)
(4.91057e+07 -8.24358e+06 -3.7229e-05 1.66757e+06 2.23654e-05 1.5232e+07)
(4.2792e+07 -8.58904e+06 -5.20108e-05 -923.241 4.55452e-05 1.28373e+07)
(4.99734e+07 -5.54744e+06 -1.6831e-05 -37713.7 -2.75554e-06 1.49807e+07)
(4.35308e+07 -6.28182e+06 1.57626e-06 -2.2978e+06 2.09643e-05 1.23699e+07)
(5.03234e+07 -3.39502e+06 5.10417e-05 -1.28029e+06 -4.21125e-05 1.47129e+07)
(4.39094e+07 -4.40079e+06 1.83605e-05 -3.95194e+06 -1.15797e-05 1.19872e+07)
(5.0311e+07 -1.67244e+06 1.7082e-05 -2.16723e+06 -3.9357e-05 1.44431e+07)
(4.40235e+07 -2.86399e+06 -0.000101126 -5.11868e+06 2.13671e-06 1.16714e+07)
(5.00448e+07 -291525 -6.44633e-05 -2.77907e+06 -2.06666e-05 1.41797e+07)
(4.39437e+07 -1.60575e+06 -0.000123982 -5.91205e+06 -8.82415e-06 1.14095e+07)
(4.96023e+07 816754 2.29726e-06 -3.1795e+06 -3.60497e-06 1.39268e+07)
(4.37305e+07 -572539 -7.04064e-06 -6.41799e+06 1.90056e-05 1.11938e+07)
(4.90421e+07 1.70546e+06 2.40526e-05 -3.42055e+06 3.67299e-05 1.36865e+07)
(4.34507e+07 278035 8.42951e-05 -6.70351e+06 -1.63931e-05 1.10242e+07)
(2.79667e+07 -1.75578e+07 -8.69864e-06 9.94727e+06 6.26098e-05 1.13742e+07)
(2.75754e+07 -1.55092e+07 1.16235e-05 1.20716e+07 3.87848e-05 1.18941e+07)
(3.42032e+07 -1.39165e+07 8.65836e-05 5.46017e+06 4.84818e-05 1.1899e+07)
(3.16181e+07 -1.28427e+07 6.55784e-05 5.95567e+06 2.72051e-05 1.12721e+07)
(3.85336e+07 -1.09145e+07 3.91906e-05 2.16931e+06 6.96475e-05 1.22109e+07)
(3.45488e+07 -1.05587e+07 -5.24253e-05 1.49672e+06 5.83276e-05 1.08137e+07)
(4.15108e+07 -8.43955e+06 -4.85197e-05 -237582 5.39461e-05 1.2382e+07)
(3.66621e+07 -8.61258e+06 -1.73973e-06 -1.74843e+06 -9.08687e-06 1.04741e+07)
(4.3518e+07 -6.39935e+06 6.62031e-06 -1.98086e+06 9.65315e-06 1.24612e+07)
(3.8169e+07 -6.95994e+06 1.58152e-05 -4.09022e+06 1.88918e-05 1.02236e+07)
(4.48236e+07 -4.71774e+06 -1.46417e-05 -3.21894e+06 4.83241e-05 1.24814e+07)
(3.92194e+07 -5.56003e+06 -5.08491e-06 -5.75143e+06 4.6421e-05 1.00404e+07)
(4.56171e+07 -3.33196e+06 -7.89533e-05 -4.06776e+06 1.10601e-05 1.24648e+07)
(3.99173e+07 -4.37638e+06 -3.45085e-05 -6.89537e+06 1.05376e-06 9.90658e+06)
(4.60335e+07 -2.18896e+06 -0.000119819 -4.61561e+06 6.42181e-08 1.24254e+07)
(4.03294e+07 -3.37503e+06 -4.1123e-05 -7.64506e+06 -6.2817e-05 9.80529e+06)
(4.61686e+07 -1.24114e+06 -5.03003e-05 -4.93715e+06 -3.55272e-05 1.23694e+07)
(4.04983e+07 -2.52087e+06 -0.000105289 -8.09752e+06 -0.00014647 9.72025e+06)
(4.60921e+07 -442859 2.36148e-05 -5.10849e+06 -9.72146e-05 1.22951e+07)
(4.04914e+07 -1.77635e+06 -8.8551e-05 -8.33552e+06 -0.000136466 9.64675e+06)
(1.7173e+07 -1.28751e+07 -6.39262e-06 7.27374e+06 1.12469e-05 7.33402e+06)
(1.97705e+07 -1.13091e+07 -7.43763e-06 9.49581e+06 -8.59647e-06 8.7799e+06)
(2.46435e+07 -1.11738e+07 6.48019e-07 3.08383e+06 6.33132e-06 8.31819e+06)
(2.44111e+07 -1.03459e+07 -3.47478e-05 3.73634e+06 1.80978e-06 8.44423e+06)
(3.00696e+07 -9.58849e+06 -4.40945e-05 13098.8 2.01762e-05 9.02481e+06)
(2.79316e+07 -9.33268e+06 -4.37209e-05 -471128 9.983e-07 8.23814e+06)
(3.40145e+07 -8.15439e+06 -9.24157e-06 -2.2161e+06 -1.14483e-05 9.53951e+06)
(3.0615e+07 -8.33386e+06 2.1192e-06 -3.51789e+06 -2.02141e-05 8.12914e+06)
(3.68724e+07 -6.87925e+06 1.78234e-05 -3.8091e+06 -4.35808e-06 9.91898e+06)
(3.26749e+07 -7.38122e+06 1.16994e-05 -5.68443e+06 2.17758e-06 8.09713e+06)
(3.89248e+07 -5.75806e+06 1.49161e-05 -4.91942e+06 3.01854e-05 1.02016e+07)
(3.42732e+07 -6.48802e+06 -1.36259e-05 -7.17447e+06 2.88865e-05 8.12962e+06)
(4.03751e+07 -4.77999e+06 -1.42447e-06 -5.66291e+06 3.27892e-05 1.04136e+07)
(3.55302e+07 -5.6554e+06 3.00015e-05 -8.13624e+06 -4.16542e-06 8.2182e+06)
(4.13699e+07 -3.93037e+06 4.10529e-05 -6.12901e+06 -9.11576e-05 1.05723e+07)
(3.65203e+07 -4.87173e+06 6.14859e-05 -8.67752e+06 -5.406e-05 8.35282e+06)
(4.20117e+07 -3.18629e+06 -9.43131e-05 -6.39766e+06 -0.000127473 1.06842e+07)
(3.72282e+07 -4.09718e+06 -5.23086e-05 -8.88005e+06 -2.47152e-05 8.50443e+06)
(4.23606e+07 -2.49707e+06 -0.000154164 -6.59514e+06 -0.000101234 1.07296e+07)
(3.73737e+07 -3.19911e+06 -7.12237e-05 -8.8295e+06 3.77311e-05 8.56325e+06)
(8.49206e+06 -7.83791e+06 -2.66797e-05 3.41834e+06 -1.10893e-05 3.57312e+06)
(1.34662e+07 -7.08711e+06 -1.85065e-05 5.8171e+06 -9.80494e-06 5.785e+06)
(1.64288e+07 -8.00359e+06 -3.07079e-05 7026.71 -9.89835e-06 4.93074e+06)
(1.81306e+07 -7.72233e+06 -3.79471e-05 847115 8.93216e-07 5.69332e+06)
(2.23912e+07 -7.82774e+06 -4.1806e-05 -2.45544e+06 -3.70714e-06 5.98074e+06)
(2.17514e+07 -7.951e+06 -2.48115e-05 -2.78495e+06 -3.05036e-06 5.68994e+06)
(2.68856e+07 -7.45657e+06 -1.52781e-05 -4.17493e+06 -7.59525e-06 6.81321e+06)
(2.4559e+07 -7.92059e+06 -3.07663e-06 -5.39284e+06 -8.06229e-06 5.74985e+06)
(3.02786e+07 -6.97752e+06 1.07828e-05 -5.30666e+06 -1.40156e-05 7.49159e+06)
(2.67283e+07 -7.72992e+06 -5.29508e-06 -7.21173e+06 -2.04068e-05 5.85498e+06)
(3.28404e+07 -6.44413e+06 -2.68315e-05 -5.9611e+06 2.79641e-06 8.06379e+06)
(2.83926e+07 -7.44864e+06 -5.78022e-05 -8.41495e+06 9.6911e-07 5.99329e+06)
(3.47723e+07 -5.8898e+06 -3.86476e-06 -6.20635e+06 -2.07833e-06 8.5698e+06)
(2.96563e+07 -7.13239e+06 -1.94756e-05 -9.12533e+06 -1.53365e-05 6.15928e+06)
(3.62259e+07 -5.33681e+06 4.48534e-05 -6.05782e+06 4.39018e-06 9.05044e+06)
(3.06168e+07 -6.84246e+06 -1.78643e-05 -9.41674e+06 4.95793e-06 6.36003e+06)
(3.7316e+07 -4.80506e+06 2.6849e-05 -5.42853e+06 1.658e-05 9.56625e+06)
(3.14261e+07 -6.69192e+06 2.03747e-06 -9.29188e+06 7.22308e-06 6.64026e+06)
(3.81323e+07 -4.32756e+06 -3.0165e-05 -3.94591e+06 7.37954e-05 1.02559e+07)
(3.25122e+07 -6.99247e+06 -8.41257e-06 -8.58707e+06 2.22589e-05 7.17755e+06)
(2.01787e+06 -2.95027e+06 -1.82088e-05 -1.57948e+06 -3.14961e-06 131516)
(8.81171e+06 -3.19808e+06 -2.27332e-05 1.18149e+06 -1.10922e-06 2.99796e+06)
(9.73946e+06 -4.77346e+06 -3.02584e-05 -3.89903e+06 1.23328e-06 1.75213e+06)
(1.31171e+07 -5.20089e+06 -3.27863e-05 -2.66617e+06 4.64122e-07 3.13527e+06)
(1.57065e+07 -5.91036e+06 -2.54829e-05 -5.52514e+06 3.00658e-07 3.0544e+06)
(1.65644e+07 -6.52391e+06 -2.21728e-05 -5.44708e+06 -3.33059e-06 3.3352e+06)
(2.03253e+07 -6.57867e+06 -9.56266e-06 -6.60406e+06 -7.39968e-06 4.11637e+06)
(1.93307e+07 -7.37109e+06 -1.96391e-05 -7.40242e+06 -1.58619e-05 3.57848e+06)
(2.39051e+07 -6.92986e+06 -2.32294e-05 -7.25056e+06 -2.1624e-05 4.99635e+06)
(2.15569e+07 -7.89042e+06 -2.99373e-05 -8.71793e+06 -1.65216e-05 3.8517e+06)
(2.66799e+07 -7.07242e+06 -3.98911e-05 -7.55361e+06 -1.43221e-05 5.7379e+06)
(2.33584e+07 -8.19245e+06 -2.45722e-05 -9.53493e+06 1.03917e-06 4.14704e+06)
(2.88275e+07 -7.08888e+06 -5.44278e-05 -7.58487e+06 2.48553e-06 6.37279e+06)
(2.48347e+07 -8.36384e+06 -4.87532e-05 -9.96166e+06 9.39774e-06 4.46191e+06)
(3.04822e+07 -7.05117e+06 -5.55779e-05 -7.41654e+06 -9.21238e-06 6.9197e+06)
(2.60791e+07 -8.47468e+06 -3.51682e-05 -1.00884e+07 -2.16079e-05 4.79719e+06)
(3.17444e+07 -7.04203e+06 -1.00472e-05 -7.17969e+06 -7.95283e-06 7.36942e+06)
(2.71724e+07 -8.56501e+06 -7.90467e-06 -1.0025e+07 -2.9803e-06 5.14423e+06)
(3.26815e+07 -7.2007e+06 1.96332e-05 -7.28491e+06 -2.05469e-05 7.61897e+06)
(2.80822e+07 -8.54013e+06 -1.00589e-05 -1.00326e+07 -2.94236e-05 5.41485e+06)
(-2.47276e+06 1.42451e+06 -2.20035e-05 -7.52114e+06 3.22258e-06 -2.99817e+06)
(5.61421e+06 81225.6 -1.82146e-05 -4.19136e+06 5.3301e-06 426855)
(4.58007e+06 -1.74107e+06 -2.27566e-05 -8.47055e+06 -2.30601e-07 -1.16714e+06)
(9.24312e+06 -2.97168e+06 -1.60312e-05 -6.67592e+06 7.61861e-06 770159)
(1.01601e+07 -3.96481e+06 -2.43971e-05 -9.0408e+06 3.60059e-06 335804)
(1.22577e+07 -5.14632e+06 -1.17811e-05 -8.40328e+06 3.6546e-06 1.15633e+06)
(1.45849e+07 -5.51064e+06 -1.93997e-05 -9.31485e+06 -1.25065e-05 1.58103e+06)
(1.47724e+07 -6.68256e+06 -5.37097e-06 -9.54841e+06 -7.79521e-06 1.56719e+06)
(1.81025e+07 -6.57201e+06 -1.51905e-05 -9.36111e+06 -8.62128e-06 2.62241e+06)
(1.68817e+07 -7.75733e+06 -1.28436e-07 -1.02481e+07 -2.62127e-06 1.99008e+06)
(2.09057e+07 -7.29233e+06 -7.67115e-06 -9.23931e+06 1.55875e-06 3.4999e+06)
(1.86645e+07 -8.50094e+06 -8.0331e-06 -1.06112e+07 5.80736e-06 2.416e+06)
(2.31455e+07 -7.77981e+06 -2.74153e-05 -9.00785e+06 1.08616e-05 4.24129e+06)
(2.01866e+07 -9.00712e+06 -1.70003e-05 -1.07299e+07 1.53248e-05 2.83701e+06)
(2.49436e+07 -8.11629e+06 -2.68315e-05 -8.73213e+06 -2.35491e-06 4.86343e+06)
(2.14984e+07 -9.33603e+06 -1.24933e-05 -1.06913e+07 3.49697e-06 3.24213e+06)
(2.64068e+07 -8.35352e+06 -1.9172e-05 -8.48037e+06 -1.35872e-05 5.37793e+06)
(2.26284e+07 -9.51351e+06 -2.88398e-06 -1.05816e+07 1.045e-06 3.61404e+06)
(2.76565e+07 -8.46796e+06 -1.57101e-05 -8.22453e+06 -1.96814e-06 5.8296e+06)
(2.35993e+07 -9.56106e+06 -2.90383e-05 -1.04323e+07 2.28062e-05 3.9501e+06)
(-5.25807e+06 4.99074e+06 -1.63931e-05 -1.41191e+07 6.87134e-06 -5.81315e+06)
(3.6193e+06 2.53817e+06 -1.51672e-05 -1.00131e+07 3.69254e-06 -1.91814e+06)
(813995 861491 -1.16527e-05 -1.34851e+07 9.26492e-06 -3.80132e+06)
(6.34669e+06 -1.19295e+06 -1.31005e-05 -1.09759e+07 6.11532e-06 -1.38877e+06)
(5.72836e+06 -2.15138e+06 -6.94723e-06 -1.28298e+07 4.38873e-06 -2.13042e+06)
(8.7371e+06 -3.92354e+06 -4.58868e-06 -1.15189e+07 -2.63732e-06 -834549)
(9.723e+06 -4.34192e+06 1.59962e-06 -1.21614e+07 1.89735e-07 -731526)
(1.08345e+07 -5.91338e+06 1.21431e-06 -1.1749e+07 2.58478e-06 -274365)
(1.29854e+07 -5.92778e+06 6.03067e-06 -1.149e+07 -1.57043e-06 448634)
(1.26792e+07 -7.35347e+06 5.82634e-06 -1.17492e+07 -4.43689e-07 278994)
(1.56644e+07 -7.06977e+06 -2.78473e-06 -1.08284e+07 2.72708e-06 1.45081e+06)
(1.43074e+07 -8.38325e+06 -2.76722e-06 -1.15864e+07 1.38507e-05 816279)
(1.78795e+07 -7.88518e+06 -2.4111e-06 -1.01914e+07 1.98398e-05 2.30645e+06)
(1.57496e+07 -9.10281e+06 2.46364e-06 -1.13165e+07 1.68792e-05 1.32995e+06)
(1.97301e+07 -8.45525e+06 -4.37851e-06 -9.59087e+06 1.45294e-05 3.04176e+06)
(1.70303e+07 -9.58242e+06 -2.12504e-06 -1.09841e+07 2.08636e-06 1.81384e+06)
(2.1299e+07 -8.82926e+06 1.59378e-06 -9.02506e+06 2.45342e-06 3.68219e+06)
(1.81688e+07 -9.87324e+06 2.39475e-05 -1.06172e+07 -1.6623e-05 2.26547e+06)
(2.26433e+07 -9.04407e+06 -2.45196e-06 -8.49032e+06 9.21968e-06 4.24589e+06)
(1.91807e+07 -1.00137e+07 8.5702e-06 -1.02322e+07 -1.55123e-05 2.68457e+06)
(-6.64637e+06 7.5298e+06 -2.12153e-05 -2.10026e+07 3.84141e-06 -8.29469e+06)
(2.53458e+06 4.03835e+06 -2.51852e-05 -1.59369e+07 7.4639e-06 -4.0207e+06)
(-1.75623e+06 2.86174e+06 -1.89035e-05 -1.86619e+07 4.33326e-06 -6.12544e+06)
(4.24042e+06 32287.6 -2.00361e-05 -1.53088e+07 9.9363e-06 -3.32052e+06)
(2.31251e+06 -600949 -1.04325e-05 -1.66847e+07 4.21213e-06 -4.31167e+06)
(5.89958e+06 -2.93549e+06 -1.0812e-05 -1.46127e+07 2.1046e-06 -2.61393e+06)
(5.71938e+06 -3.16695e+06 -3.6546e-06 -1.49909e+07 -2.60448e-06 -2.78146e+06)
(7.48152e+06 -5.12816e+06 -6.77209e-06 -1.388e+07 -1.21051e-05 -1.91955e+06)
(8.5904e+06 -5.0631e+06 -6.42181e-08 -1.35221e+07 -3.81368e-06 -1.47953e+06)
(8.9716e+06 -6.738e+06 -4.76382e-06 -1.31337e+07 -1.50767e-05 -1.24863e+06)
(1.10267e+07 -6.45592e+06 1.76892e-06 -1.22364e+07 2.05425e-06 -362906)
(1.03647e+07 -7.90599e+06 1.96157e-06 -1.23914e+07 -8.42352e-06 -608005)
(1.31106e+07 -7.46689e+06 1.2435e-06 -1.11024e+07 5.92777e-06 602462)
(1.1661e+07 -8.73582e+06 -8.39506e-06 -1.16664e+07 -4.72879e-06 -1613.62)
(1.49085e+07 -8.18387e+06 -3.74217e-06 -1.00946e+07 -1.24933e-06 1.44418e+06)
(1.28625e+07 -9.30462e+06 -1.02399e-05 -1.09668e+07 -9.11751e-06 568695)
(1.64716e+07 -8.67171e+06 1.47585e-05 -9.19178e+06 -2.0814e-05 2.18395e+06)
(1.39723e+07 -9.67031e+06 -6.8188e-06 -1.02969e+07 -2.94579e-05 1.10262e+06)
(1.78389e+07 -8.97912e+06 1.47818e-05 -8.37621e+06 -3.97948e-05 2.8388e+06)
(1.49942e+07 -9.87697e+06 -4.77549e-06 -9.65733e+06 -4.35275e-05 1.60105e+06)
(-6.96169e+06 8.90969e+06 -3.55185e-05 -2.77383e+07 1.87021e-05 -1.041e+07)
(2.05593e+06 4.5382e+06 -2.89565e-05 -2.1582e+07 2.76707e-05 -5.85782e+06)
(-3.351e+06 4.15513e+06 -1.91604e-05 -2.36901e+07 1.86984e-05 -8.11233e+06)
(2.73599e+06 664838 -2.09701e-05 -1.93986e+07 1.04749e-05 -4.99878e+06)
(-216352 597543 -2.08651e-05 -2.03909e+07 -4.08661e-07 -6.18216e+06)
(3.64584e+06 -2.22474e+06 -3.36503e-05 -1.74929e+07 -1.02785e-05 -4.15411e+06)
(2.51967e+06 -2.06566e+06 -2.18342e-05 -1.76646e+07 -1.49409e-05 -4.54348e+06)
(4.68426e+06 -4.37575e+06 -2.45196e-05 -1.58158e+07 -1.50124e-05 -3.33945e+06)
(4.91999e+06 -4.05473e+06 -1.02983e-05 -1.53832e+07 -2.10271e-05 -3.13897e+06)
(5.78755e+06 -5.96647e+06 -6.02483e-06 -1.43282e+07 -1.78585e-05 -2.56218e+06)
(7.03695e+06 -5.5314e+06 5.95477e-07 -1.34531e+07 -1.87677e-05 -1.92485e+06)
(6.91585e+06 -7.12856e+06 -8.17322e-08 -1.29997e+07 -1.66405e-05 -1.82516e+06)
(8.91413e+06 -6.61552e+06 -7.43763e-06 -1.18048e+07 -1.25849e-05 -867202)
(8.04077e+06 -7.96211e+06 -1.3334e-05 -1.18075e+07 -9.78889e-06 -1.13003e+06)
(1.05872e+07 -7.39686e+06 -1.82438e-05 -1.03839e+07 -7.93057e-06 60986.4)
(9.14164e+06 -8.543e+06 -1.00531e-05 -1.07327e+07 -8.37317e-06 -477305)
(1.20849e+07 -7.94308e+06 -1.7876e-05 -9.14699e+06 -1.99645e-05 881377)
(1.02036e+07 -8.92833e+06 -5.66287e-06 -9.75855e+06 -2.03291e-05 133504)
(1.34301e+07 -8.3055e+06 -9.3233e-06 -8.05927e+06 -3.72078e-05 1.61124e+06)
(1.12162e+07 -9.16082e+06 6.17662e-06 -8.87098e+06 -2.99665e-05 703550)
(-6.53223e+06 9.09805e+06 -6.76859e-05 -3.38622e+07 5.40936e-05 -1.21183e+07)
(1.88943e+06 4.0947e+06 -7.64312e-05 -2.65722e+07 4.06384e-05 -7.40483e+06)
(-4.19172e+06 4.70688e+06 -3.32066e-05 -2.82589e+07 5.379e-06 -9.73518e+06)
(1.65753e+06 728093 -3.38488e-05 -2.29865e+07 -4.18002e-06 -6.39869e+06)
(-1.99198e+06 1.39758e+06 -3.19222e-05 -2.37467e+07 -7.16105e-06 -7.72162e+06)
(1.87669e+06 -1.79969e+06 -1.61129e-05 -1.99898e+07 -1.17716e-05 -5.43394e+06)
(60521.6 -1.09716e+06 -2.2056e-05 -2.006e+07 -1.50592e-05 -5.99984e+06)
(2.39766e+06 -3.68763e+06 -3.31599e-06 -1.74541e+07 -2.08446e-05 -4.51692e+06)
(1.96751e+06 -2.97158e+06 -4.08661e-06 -1.70121e+07 -1.75148e-05 -4.51339e+06)
(3.13657e+06 -5.07919e+06 9.92462e-07 -1.52826e+07 -1.1845e-05 -3.6438e+06)
(3.73533e+06 -4.37099e+06 -2.03163e-06 -1.44754e+07 -1.16428e-05 -3.22203e+06)
(4.01893e+06 -6.09382e+06 2.03163e-06 -1.34112e+07 -1.14239e-05 -2.81767e+06)
(5.37279e+06 -5.40646e+06 -3.38605e-06 -1.23485e+07 -1.39904e-05 -2.09272e+06)
(4.98645e+06 -6.82362e+06 4.39018e-06 -1.17883e+07 -1.39386e-05 -2.04054e+06)
(6.88885e+06 -6.16226e+06 -2.47532e-06 -1.05491e+07 -9.10183e-06 -1.09807e+06)
(5.99597e+06 -7.33755e+06 4.49527e-06 -1.03702e+07 -1.23379e-05 -1.31226e+06)
(8.29187e+06 -6.70189e+06 3.54951e-06 -9.01024e+06 -1.32315e-05 -215513)
(7.01529e+06 -7.68633e+06 7.89299e-06 -9.12019e+06 -1.08868e-05 -631468)
(9.58945e+06 -7.07285e+06 9.37585e-06 -7.67823e+06 -1.67511e-05 573366)
(8.01904e+06 -7.90576e+06 1.24933e-05 -8.00907e+06 -1.30272e-05 2991.15)
(-5.67357e+06 8.1675e+06 -6.26185e-05 -3.89261e+07 1.40893e-05 -1.33799e+07)
(1.77728e+06 2.86333e+06 -1.32406e-05 -3.05891e+07 -5.06484e-05 -8.64355e+06)
(-4.49005e+06 4.54114e+06 -3.2868e-05 -3.20992e+07 -2.30419e-05 -1.09768e+07)
(831587 283672 -5.39432e-06 -2.58695e+07 -4.58762e-05 -7.51136e+06)
(-3.14745e+06 1.78095e+06 3.44443e-06 -2.65784e+07 -2.54552e-05 -8.91776e+06)
(420123 -1.6652e+06 1.03216e-05 -2.19775e+07 -3.13363e-05 -6.46722e+06)
(-1.72724e+06 -302243 3.63124e-06 -2.20393e+07 -2.06012e-05 -7.12997e+06)
(531542 -3.07244e+06 9.92462e-07 -1.87025e+07 -1.85769e-05 -5.45129e+06)
(-282482 -1.86343e+06 -1.73973e-06 -1.83257e+07 -1.35263e-05 -5.58245e+06)
(1.00556e+06 -4.08947e+06 -1.01581e-06 -1.59488e+07 -1.13516e-05 -4.48297e+06)
(1.15457e+06 -3.03045e+06 5.21918e-06 -1.52776e+07 -9.70205e-06 -4.23691e+06)
(1.71734e+06 -4.82459e+06 1.08003e-05 -1.3626e+07 -1.88736e-05 -3.57259e+06)
(2.56169e+06 -3.90005e+06 1.2108e-05 -1.27573e+07 -1.91246e-05 -3.0587e+06)
(2.58071e+06 -5.35325e+06 8.8154e-06 -1.16531e+07 -1.40036e-05 -2.72172e+06)
(3.92329e+06 -4.544e+06 5.81466e-06 -1.0654e+07 -1.12889e-05 -2.0192e+06)
(3.53651e+06 -5.73013e+06 2.73219e-06 -9.96104e+06 -8.89987e-06 -1.92736e+06)
(5.2288e+06 -5.01531e+06 5.84969e-06 -8.87811e+06 -8.74388e-06 -1.09479e+06)
(4.54266e+06 -5.99605e+06 4.35516e-06 -8.49088e+06 -7.37852e-06 -1.18446e+06)
(6.47172e+06 -5.35216e+06 1.04734e-05 -7.35527e+06 -8.07525e-06 -265066)
(5.56454e+06 -6.17917e+06 8.51182e-06 -7.1934e+06 -1.3673e-05 -488657)
(-4.67897e+06 6.26668e+06 -3.9932e-06 -4.26013e+07 -0.000100067 -1.41841e+07)
(1.54699e+06 1.04388e+06 -1.22715e-05 -3.3454e+07 -8.84309e-05 -9.57211e+06)
(-4.47309e+06 3.67763e+06 2.51035e-06 -3.50688e+07 -5.44449e-05 -1.18626e+07)
(-349268 -706402 2.74036e-05 -2.79701e+07 -2.45269e-05 -8.4958e+06)
(-3.83878e+06 1.74909e+06 2.15539e-05 -2.859e+07 -2.34621e-05 -9.72865e+06)
(-998950 -1.7435e+06 2.56989e-05 -2.329e+07 -6.08211e-06 -7.28667e+06)
(-2.93796e+06 329575 9.02557e-06 -2.33934e+07 -1.50615e-05 -7.8994e+06)
(-994665 -2.45177e+06 8.92048e-06 -1.94397e+07 -8.45271e-06 -6.1303e+06)
(-1.86348e+06 -731354 1.05084e-07 -1.92167e+07 -1.10607e-05 -6.32406e+06)
(-590756 -2.95654e+06 7.34422e-06 -1.62705e+07 -1.16778e-06 -5.05839e+06)
(-686007 -1.53202e+06 1.06135e-05 -1.58256e+07 -1.19207e-05 -4.95349e+06)
(71449.3 -3.31866e+06 1.16994e-05 -1.36431e+07 -3.52251e-06 -4.07148e+06)
(542606 -2.13915e+06 8.8621e-06 -1.30453e+07 -8.80071e-06 -3.7508e+06)
(903766 -3.57735e+06 3.33934e-06 -1.14455e+07 1.65654e-06 -3.16251e+06)
(1.78519e+06 -2.60139e+06 1.23766e-06 -1.07458e+07 -4.31283e-06 -2.6882e+06)
(1.84955e+06 -3.7636e+06 3.03577e-07 -9.58798e+06 -2.20449e-06 -2.32153e+06)
(3.01484e+06 -2.95607e+06 1.57626e-06 -8.82725e+06 -6.88128e-06 -1.74372e+06)
(2.87474e+06 -3.90818e+06 2.13671e-06 -7.99096e+06 -1.29659e-06 -1.53487e+06)
(4.21205e+06 -3.23096e+06 4.81052e-06 -7.20282e+06 -8.73959e-06 -897231)
(3.9661e+06 -4.05297e+06 2.65046e-06 -6.56261e+06 -5.48727e-06 -778955)
(-4.02067e+06 3.24222e+06 -9.80786e-07 -4.54304e+07 -6.9607e-05 -1.48353e+07)
(-2.07942e+06 -1.87764e+06 1.84481e-06 -3.5557e+07 -8.93763e-06 -1.12909e+07)
(-4.45699e+06 2.2174e+06 1.34975e-05 -3.61129e+07 -8.68313e-06 -1.2171e+07)
(-2.38354e+06 -1.71146e+06 -3.1175e-06 -2.88603e+07 1.88422e-06 -9.37315e+06)
(-4.28409e+06 1.52056e+06 1.84364e-05 -2.93093e+07 -1.44673e-06 -1.0078e+07)
(-2.35734e+06 -1.64853e+06 3.28096e-06 -2.36946e+07 -3.28771e-06 -7.81559e+06)
(-3.68165e+06 961196 1.20613e-05 -2.39674e+07 -3.14304e-06 -8.29471e+06)
(-2.04423e+06 -1.623e+06 1.64632e-06 -1.95755e+07 8.22977e-07 -6.48591e+06)