/*--------------------------------*- C++ -*----------------------------------*\
| =========                 |                                                 |
| \\      /  F ield         | OpenFOAM: The Open Source CFD Toolbox           |
|  \\    /   O peration     | Version:  v2012                                 |
|   \\  /    A nd           | Website:  www.openfoam.com                      |
|    \\/     M anipulation  |                                                 |
\*---------------------------------------------------------------------------*/
FoamFile
{
    version     2.0;
    format      ascii;
    class       volVectorField;
    location    "4";
    object      D;
}
// * * * * * * * * * * * * * * * * * * * * * * * * * * * * * * * * * * * * * //

dimensions      [0 1 0 0 0 0 0];


internalField   nonuniform List<vector> 
30465
(
(0.00132221 -0.000150607 0)
(0.00157285 -5.62509e-05 0)
(0.000579601 -0.000508717 0)
(0.00147602 -0.000153029 0)
(0.00164396 -0.000191926 0)
(0.00164665 -0.000193931 0)
(0.000548347 -0.000527037 0)
(0.000138277 -0.000906925 0)
(0.000324124 -0.000749547 0)
(0.000778969 -0.000353277 0)
(0.000112319 -0.000932746 0)
(0.000736148 -0.000379642 0)
(0.00132811 -0.000115409 0)
(0.00129756 -8.74791e-05 0)
(0.00107414 -0.0002647 0)
(0.000504156 -0.000571234 0)
(0.00163492 -0.000176699 0)
(0.000781671 -0.000378406 0)
(0.000330336 -0.000743761 0)
(0.00182648 -0.000138065 0)
(0.00155468 -1.67368e-05 0)
(0.0015575 -1.61751e-05 0)
(0.0013843 -4.5519e-05 0)
(0.000267166 -0.000799595 0)
(0.00138123 -4.67138e-05 0)
(0.00183105 -7.59121e-05 0)
(0.00182694 -7.75459e-05 0)
(0.0016171 -5.53529e-05 0)
(0.00172311 -4.17723e-05 0)
(0.000553948 -0.000577764 0)
(0.0011286 -0.000141394 0)
(0.00192753 -4.5212e-05 0)
(0.00131734 -0.000135332 0)
(0.00152346 -0.000133621 0)
(0.0013427 -0.000227233 0)
(0.00166803 -3.96683e-05 0)
(0.000316584 -0.000755233 0)
(0.00100784 -0.000463699 0)
(0.0015735 -0.000131618 0)
(0.000749047 -0.000375004 0)
(0.00149365 -3.77371e-05 0)
(0.00107132 -0.00024108 0)
(0.00025992 -0.000806028 0)
(0.00158193 -5.13445e-05 0)
(0.00158784 -5.05537e-05 0)
(0.000360394 -0.000719226 0)
(0.000843454 -0.000303706 0)
(0.00157742 -5.57826e-05 0)
(0.00188491 -6.79005e-05 0)
(0.00154667 -2.86589e-05 0)
(0.00154512 -2.97438e-05 0)
(0.00146541 -0.000116232 0)
(0.000213725 -0.000832503 0)
(0.000206821 -0.000840004 0)
(0.000371553 -0.000740747 0)
(0.00149902 -7.31675e-05 0)
(0.000378445 -0.000738289 0)
(0.00173391 -0.000106593 0)
(0.00173928 -4.48315e-05 0)
(0.00195577 -1.52947e-05 0)
(0.00195444 -1.48036e-05 0)
(0.000702573 -0.00041635 0)
(0.00167818 -1.95314e-06 0)
(0.00130556 -0.000202773 0)
(0.00130788 -0.000200408 0)
(0.00143187 -8.0815e-06 0)
(0.00122026 -0.000227339 0)
(0.000279074 -0.000786986 0)
(0.00154932 -5.16236e-06 0)
(0.00163053 -9.8915e-05 0)
(0.00137831 -5.89165e-05 0)
(0.00191396 -8.06855e-05 0)
(0.000476724 -0.000555569 0)
(0.000811008 -0.00032603 0)
(0.00131696 -0.000137157 0)
(0.000767591 -0.000368431 0)
(0.00180525 -2.07932e-05 0)
(0.0018063 -1.96669e-05 0)
(0.00111714 -0.000260152 0)
(0.000122432 -0.000924537 0)
(0.000381181 -0.00066083 0)
(0.000372522 -0.000667834 0)
(0.00161846 -0.000158543 0)
(0.00175571 -7.4872e-05 0)
(0.00139182 -0.000108744 0)
(0.00192364 -6.54269e-05 0)
(0.00174141 -4.57812e-05 0)
(0.00077404 -0.000364113 0)
(0.0016614 -0.000209 0)
(0.00161701 -2.80432e-05 0)
(0.00194928 -3.94039e-05 0)
(0.00194784 -3.90763e-05 0)
(0.0016394 -0.000181046 0)
(0.00164082 -0.000178584 0)
(0.000773946 -0.000357526 0)
(0.00185856 -3.13484e-05 0)
(0.0017377 -5.0838e-05 0)
(0.00174274 -5.04314e-05 0)
(0.000154608 -0.000897773 0)
(0.00176128 -4.24435e-05 0)
(0.00153898 -0.00016868 0)
(0.00152467 -2.00282e-05 0)
(0.00152559 -2.0692e-05 0)
(0.00114841 -0.000157914 0)
(0.0013232 -6.68943e-05 0)
(0.00113811 -0.000260966 0)
(0.00114616 -0.000259868 0)
(0.00185256 -8.74537e-05 0)
(0.0013719 -6.07717e-05 0)
(0.00141175 -3.04255e-05 0)
(0.000530151 -0.000556289 0)
(0.00149234 -0.000176654 0)
(0.00129429 -0.000225998 0)
(0.00129971 -0.000226684 0)
(0.0012526 -0.000128954 0)
(0.00125547 -0.000126491 0)
(0.00148712 -5.81597e-06 0)
(0.00192097 -8.01288e-05 0)
(0.00188567 -1.09394e-05 0)
(7.1688e-05 -0.000862697 0)
(0.000694869 -0.000407142 0)
(0.00166463 -4.01722e-05 0)
(0.00142162 -8.00552e-05 0)
(0.00145047 -1.3571e-05 0)
(0.00159758 -5.20489e-05 0)
(0.00159614 -5.08403e-05 0)
(0.00153652 -7.63899e-06 0)
(0.00135312 -0.000200727 0)
(0.00189249 -0.000117577 0)
(0.00144103 -2.40976e-05 0)
(0.000219205 -0.000828432 0)
(0.00190747 -7.41347e-06 0)
(0.000520322 -0.000564464 0)
(5.87116e-05 -0.000919136 0)
(0.00181401 -0.00011033 0)
(0.00147162 -1.39894e-05 0)
(0.000487238 -0.000553738 0)
(0.00171961 -7.27142e-05 0)
(0.000277258 -0.000790944 0)
(0.000492709 -0.000548813 0)
(0.00139838 -7.63202e-05 0)
(7.15615e-05 -0.000936579 0)
(0.00146277 -6.72314e-06 0)
(0.00149209 -3.88151e-05 0)
(0.00171443 -2.59917e-05 0)
(0.000686138 -0.000435164 0)
(0.00196668 -3.52494e-05 0)
(0.00196384 -3.54049e-05 0)
(0.00110899 -0.000198461 0)
(0.00199663 -1.7855e-06 0)
(0.00183879 -0.000186462 0)
(0.00101275 -0.000205414 0)
(0.00187899 -5.52838e-05 0)
(0.00188188 -5.54641e-05 0)
(0.00155286 -0.000198515 0)
(0.00127975 -8.93265e-05 0)
(0.00117695 -0.000242287 0)
(0.00159062 -0.000140292 0)
(0.00096935 -0.000278818 0)
(0.00160256 -4.59197e-05 0)
(0.00160618 -4.49222e-05 0)
(0.000964606 -0.000282716 0)
(0.0011292 -0.000225641 0)
(0.0011254 -0.00022849 0)
(0.00147561 -8.20763e-06 0)
(0.00187995 -2.69203e-06 0)
(0.00177017 -4.86284e-05 0)
(0.000140954 -0.000879815 0)
(0.00172787 -8.0415e-05 0)
(0.000906379 -0.00026402 0)
(0.00130378 -9.80837e-05 0)
(0.00191701 -2.02448e-05 0)
(0.00184061 -3.70269e-05 0)
(0.00184479 -3.71641e-05 0)
(0.0017096 -7.34275e-05 0)
(0.000888381 -0.000275425 0)
(0.00136421 -0.000204417 0)
(0.00119317 -0.000130444 0)
(0.00147816 -6.84228e-06 0)
(7.06199e-05 -0.000938997 0)
(0.000618786 -0.000462763 0)
(0.00125403 -0.00015959 0)
(0.00126056 -0.000157618 0)
(0.00170362 -0.000210375 0)
(0.00188087 -0.000121146 0)
(0.00124078 -9.26817e-05 0)
(0.000244899 -0.000817041 0)
(0.00140044 -8.49968e-05 0)
(0.00188984 -1.08248e-05 0)
(0.0016492 -0.00017562 0)
(0.000909846 -0.000320951 0)
(0.00186205 -8.01821e-05 0)
(0.00145863 -2.73266e-05 0)
(8.29929e-05 -0.000935076 0)
(0.00161904 -0.000171915 0)
(0.00161612 -0.0001708 0)
(0.000556001 -0.000520091 0)
(0.00154083 -0.000112438 0)
(0.00164697 -0.000136789 0)
(0.00131589 -0.00015305 0)
(0.00190795 -1.70897e-05 0)
(0.00176574 -4.25041e-05 0)
(0.00197943 -1.22789e-05 0)
(6.41848e-05 -0.000910889 0)
(0.00119795 -0.000118915 0)
(0.00139993 -7.45659e-05 0)
(0.00144838 -1.37492e-05 0)
(0.000109003 -0.00089279 0)
(0.00115621 -0.000149366 0)
(0.00159461 -3.90144e-05 0)
(0.000582157 -0.000503718 0)
(0.00140758 -7.06596e-05 0)
(0.00153592 -2.6921e-06 0)
(0.0017831 -5.73752e-05 0)
(0.000367843 -0.000712957 0)
(0.0011691 -0.000243239 0)
(0.00116233 -0.000246508 0)
(0.00181678 -8.28107e-05 0)
(0.0018201 -8.10316e-05 0)
(0.000915342 -0.000317155 0)
(0.00140494 -0.000197314 0)
(0.00135945 -0.000126574 0)
(0.00188733 -5.19233e-05 0)
(0.0018049 -0.000111521 0)
(0.00125469 -0.000235876 0)
(0.00142083 -5.32575e-05 0)
(0.00071084 -0.000409694 0)
(0.000991276 -0.000213421 0)
(0.00161511 -2.72672e-05 0)
(0.00124975 -8.76767e-05 0)
(0.000695042 -0.000421829 0)
(0.00182984 -4.3232e-05 0)
(0.00183295 -4.36581e-05 0)
(0.0012096 -0.000183778 0)
(0.00133156 -5.76154e-05 0)
(0.0014799 -1.02261e-05 0)
(0.00139623 -0.000213408 0)
(0.00140138 -0.000210948 0)
(0.000457633 -0.000601867 0)
(0.000468521 -0.000591829 0)
(0.000865126 -0.000291147 0)
(0.00125569 -8.51311e-05 0)
(0.0013661 -9.46555e-05 0)
(0.00116852 -0.000139217 0)
(0.00169268 -6.11672e-05 0)
(0.00107866 -0.000273447 0)
(0.00116021 -0.000148513 0)
(0.00129846 -0.000115815 0)
(0.000312526 -0.000761754 0)
(0.00132495 -6.01656e-05 0)
(0.00157135 -0.000115429 0)
(0.00144027 -2.64914e-05 0)
(0.0014413 -2.46613e-05 0)
(0.000705057 -0.000416884 0)
(0.00123019 -0.000125374 0)
(0.000226888 -0.000823068 0)
(0.000717885 -0.000517453 0)
(0.000730536 -0.000507203 0)
(0.00105914 -0.000197364 0)
(2.00925e-05 -0.000913157 0)
(0.00191834 -7.88752e-05 0)
(0.00130991 -6.50877e-05 0)
(0.00130259 -6.78694e-05 0)
(0.00142644 -3.53614e-05 0)
(0.000622708 -0.000493202 0)
(0.000631479 -0.000484807 0)
(0.00155635 -0.000105399 0)
(0.00086347 -0.000295609 0)
(0.0012629 -0.00012362 0)
(0.0015708 -9.52324e-05 0)
(0.00187936 -3.58335e-06 0)
(0.00177467 -0.000151975 0)
(0.00169256 -4.32753e-05 0)
(0.00163816 -0.000192281 0)
(0.00132785 -6.56015e-05 0)
(0.000962938 -0.000256852 0)
(0.00124829 -0.000187176 0)
(0.00130974 -7.65874e-05 0)
(0.000515314 -0.000589264 0)
(0.0015379 -1.51995e-05 0)
(0.000505552 -0.000596577 0)
(0.00146312 -0.000217858 0)
(0.00123964 -0.000187421 0)
(0.00169365 -0.000130895 0)
(0.0015909 -3.97212e-05 0)
(0.00169822 -0.000115885 0)
(0.00105848 -0.000214189 0)
(0.00183265 -8.53528e-05 0)
(0.00199542 -1.3765e-06 0)
(0.00183658 -0.000188344 0)
(0.00119149 -0.000121249 0)
(0.00123472 -9.7499e-05 0)
(0.00142676 -7.8909e-05 0)
(0.000680285 -0.000509516 0)
(0.00192337 -1.54381e-05 0)
(0.00183882 -0.000112356 0)
(0.00189682 -4.35552e-06 0)
(0.00151786 -6.58407e-06 0)
(0.00151993 -6.23414e-06 0)
(0.00178263 -3.04959e-05 0)
(0.00147434 -0.000206161 0)
(0.00147952 -0.000204846 0)
(0.000468834 -0.000561568 0)
(0.00159628 -2.39524e-05 0)
(0.00166769 -1.80853e-05 0)
(0.000813268 -0.00032425 0)
(0.000822434 -0.000317947 0)
(0.00190542 -1.9203e-05 0)
(0.00129521 -0.000106582 0)
(0.00117825 -0.000354551 0)
(0.00133458 -0.000117895 0)
(0.00133172 -0.000117249 0)
(0.000140301 -0.000904481 0)
(0.00187926 -0.000105866 0)
(0.000457741 -0.00063899 0)
(0.00112502 -0.000185675 0)
(3.32091e-05 -0.000914039 0)
(2.87037e-05 -0.000912274 0)
(0.000908873 -0.000277138 0)
(0.000291361 -0.000775544 0)
(0.000968859 -0.0002269 0)
(0.000279732 -0.000780084 0)
(0.000871739 -0.000286997 0)
(0.00144218 -2.00363e-05 0)
(0.00154229 -6.09745e-05 0)
(0.0015438 -5.94914e-05 0)
(0.00056316 -0.00065799 0)
(0.00104359 -0.000205173 0)
(0.00146944 -8.57974e-05 0)
(0.000570685 -0.000525419 0)
(0.00148642 -3.998e-07 0)
(0.000731218 -0.00038498 0)
(0.00143956 -2.14865e-05 0)
(0.000110631 -0.000920938 0)
(0.00135484 -5.92137e-05 0)
(0.00105429 -0.000255195 0)
(0.00194842 -4.82411e-05 0)
(0.0014398 -3.81967e-05 0)
(0.0014441 -3.76364e-05 0)
(0.00096214 -0.000232082 0)
(0.00107592 -0.000204239 0)
(0.00146215 -0.000118354 0)
(0.00060782 -0.000496535 0)
(0.00176827 -4.77654e-05 0)
(0.0015039 -7.79107e-05 0)
(0.000969478 -0.000233066 0)
(0.000966612 -0.000235339 0)
(0.0005461 -0.000511416 0)
(0.000959683 -0.000249072 0)
(0.00197937 -3.28315e-05 0)
(0.00100861 -0.000216516 0)
(0.00165695 -2.66559e-05 0)
(0.000264715 -0.000787517 0)
(0.00010518 -0.000925006 0)
(0.0013321 -9.75832e-05 0)
(0.00112497 -0.000224368 0)
(0.00146857 -1.48327e-05 0)
(0.000452151 -0.000595337 0)
(0.00129895 -8.52945e-05 0)
(0.00134761 -0.00013932 0)
(0.000964844 -0.000228442 0)
(0.000967254 -0.000226862 0)
(0.00184638 -6.8648e-05 0)
(0.00120936 -0.000178362 0)
(0.00134508 -0.00013554 0)
(0.000612288 -0.000468213 0)
(0.000128243 -0.000919927 0)
(0.00155527 -1.94475e-06 0)
(0.00145308 -3.02049e-05 0)
(0.00115883 -0.000132001 0)
(0.000378796 -0.000737573 0)
(0.00194884 -3.76298e-05 0)
(0.00030955 -0.000761423 0)
(0.000896292 -0.000335494 0)
(0.000902608 -0.000327308 0)
(0.00106186 -0.000230493 0)
(0.00174103 -0.000181849 0)
(0.00128399 -0.00016682 0)
(0.00173272 -8.03437e-05 0)
(0.00160093 -0.000177522 0)
(0.00114087 -0.000192891 0)
(0.00175281 -0.000152686 0)
(0.00180543 -0.000128278 0)
(0.00111152 -0.000237155 0)
(0.000260571 -0.00079272 0)
(0.00162993 -2.58426e-05 0)
(0.00144593 -1.82339e-05 0)
(0.000669177 -0.000424474 0)
(0.000678373 -0.000417741 0)
(0.00144553 -1.8408e-05 0)
(0.00045896 -0.000639238 0)
(0.00150889 -1.80107e-05 0)
(0.00159946 -2.39726e-05 0)
(0.00174027 -1.62262e-05 0)
(0.00132003 -0.000125173 0)
(0.00177629 -0.000169908 0)
(0.00146235 -1.1889e-05 0)
(0.00181325 -4.55246e-06 0)
(0.00177428 -0.000185705 0)
(0.00177776 -0.000183054 0)
(0.00197151 -2.6276e-05 0)
(0.00196658 -2.75677e-05 0)
(0.00113646 -0.000180814 0)
(0.0015495 -1.38564e-06 0)
(0.00136383 -0.000239251 0)
(0.00131026 -9.59037e-05 0)
(0.00113867 -0.000145771 0)
(0.00144906 -0.000169546 0)
(0.00171811 -0.000132858 0)
(0.00166701 -1.89621e-05 0)
(0.00183355 -0.00017074 0)
(0.00121841 -0.000247826 0)
(0.00159825 -4.56775e-05 0)
(0.000931856 -0.00024971 0)
(0.00154471 -0.000167508 0)
(0.00130765 -0.000154461 0)
(0.00163492 -3.76714e-05 0)
(8.06144e-05 -0.000871529 0)
(0.000741775 -0.000373922 0)
(0.000735472 -0.000378171 0)
(0.00154024 -3.74016e-05 0)
(0.00011573 -0.000905109 0)
(0.000481676 -0.000598554 0)
(0.00108538 -0.0001623 0)
(0.00182608 -9.71664e-06 0)
(0.00109258 -0.000158664 0)
(0.000453755 -0.000618759 0)
(0.0012365 -0.00011758 0)
(0.00147067 -0.000153226 0)
(0.00106815 -0.000172134 0)
(0.000418761 -0.000664828 0)
(0.00174918 -6.13953e-05 0)
(0.00115812 -0.000272638 0)
(0.00167547 -0.000185027 0)
(0.00167615 -0.00018692 0)
(0.00186634 -0.000178159 0)
(0.00201894 -1.94178e-06 0)
(0.00157394 -0.000213615 0)
(0.000504638 -0.000626564 0)
(0.0016171 -2.28826e-06 0)
(0.000600166 -0.000502346 0)
(0.00128561 -8.59057e-05 0)
(0.00161305 -0.000132251 0)
(0.000880581 -0.000280573 0)
(0.0019696 -2.19862e-05 0)
(0.00188959 -3.96318e-05 0)
(0.00120249 -0.000116437 0)
(0.00120846 -0.000114035 0)
(0.000459189 -0.000586394 0)
(0.00135243 -0.00010429 0)
(0.00131799 -0.000124319 0)
(0.00136623 -8.00878e-05 0)
(0.00142632 -3.39063e-05 0)
(0.00107247 -0.000195796 0)
(0.00136228 -0.000202436 0)
(0.000814152 -0.000327996 0)
(0.00162722 -0.000165047 0)
(0.00138271 -4.23666e-05 0)
(0.00138444 -4.23611e-05 0)
(0.00167428 -1.93834e-06 0)
(0.00180852 -0.000108064 0)
(0.00180392 -0.000109923 0)
(7.7545e-05 -0.000895987 0)
(0.00179408 -3.25477e-05 0)
(0.00156559 -5.10617e-05 0)
(0.0013701 -0.000238911 0)
(0.0017042 -0.000128341 0)
(0.00193069 -1.33571e-05 0)
(0.00154264 -0.000180144 0)
(0.00154639 -0.000178025 0)
(0.000417558 -0.000656545 0)
(0.000407692 -0.000665125 0)
(0.00160573 -0.000201473 0)
(0.00133367 -7.74576e-05 0)
(0.00193265 -5.90903e-05 0)
(0.000903005 -0.000323842 0)
(0.00187505 -3.55605e-05 0)
(0.00187128 -3.52919e-05 0)
(0.00146554 -8.04369e-06 0)
(0.00134227 -5.78657e-05 0)
(0.00151892 -7.90481e-05 0)
(0.00151639 -7.78461e-05 0)
(0.00183936 -0.0001134 0)
(0.00136158 -6.49265e-05 0)
(0.000950336 -0.000236845 0)
(0.00161996 -5.41917e-05 0)
(0.00117152 -0.000254037 0)
(0.00116376 -0.00025636 0)
(0.00138271 -8.71426e-05 0)
(0.00107506 -0.000196566 0)
(0.00140154 -8.1273e-05 0)
(0.00190749 -5.53838e-07 0)
(0.00173407 -0.000210648 0)
(0.000876679 -0.000286422 0)
(0.00075134 -0.000398092 0)
(0.000777576 -0.000353612 0)
(0.0013827 -5.86037e-05 0)
(0.00182587 -5.31144e-05 0)
(0.00153699 -9.60742e-05 0)
(0.00141986 -7.7191e-05 0)
(0.000126636 -0.000878903 0)
(0.00188709 -7.4435e-05 0)
(0.00188277 -7.60082e-05 0)
(0.000661515 -0.000630561 0)
(0.00146735 -3.78899e-05 0)
(0.00136298 -0.000234005 0)
(1.38165e-05 -0.000988874 0)
(0.000525879 -0.000547319 0)
(0.00145152 -2.66466e-05 0)
(0.000574747 -0.000522756 0)
(0.000650201 -0.000473303 0)
(0.00045087 -0.000593752 0)
(0.00126226 -9.75763e-05 0)
(0.00193003 -4.52162e-05 0)
(0.0015587 -5.33552e-05 0)
(0.00155439 -5.32527e-05 0)
(0.00146847 -4.63574e-05 0)
(0.00145381 -1.35975e-05 0)
(0.00139803 -0.000101637 0)
(0.00106977 -0.000206049 0)
(0.000303731 -0.000771045 0)
(0.00118956 -0.000181454 0)
(0.000954584 -0.00023648 0)
(0.0015375 -7.78467e-05 0)
(0.00193361 -7.44461e-05 0)
(0.00117896 -0.000136811 0)
(0.000453717 -0.000624647 0)
(0.00023652 -0.000821865 0)
(0.00120248 -0.000135875 0)
(0.00114794 -0.000273767 0)
(0.00171467 -7.21493e-05 0)
(0.00145399 -2.56023e-05 0)
(0.00110846 -0.000266906 0)
(0.00153372 -7.69759e-06 0)
(0.000791064 -0.000347629 0)
(0.00172942 -8.30631e-06 0)
(0.000645111 -0.000631687 0)
(0.00178129 -5.65116e-05 0)
(4.42738e-05 -0.000974851 0)
(0.000973605 -0.00024968 0)
(0.0012884 -7.74886e-05 0)
(0.00113477 -0.000138406 0)
(0.00135892 -0.000124933 0)
(7.41964e-05 -0.000865029 0)
(0.00052465 -0.000644635 0)
(0.000984311 -0.000217399 0)
(0.00188917 -9.40538e-05 0)
(0.00188542 -9.60042e-05 0)
(0.00116064 -0.000249707 0)
(0.00170367 -0.000190904 0)
(0.00118207 -0.000179707 0)
(0.00045138 -0.000629733 0)
(0.00170282 -0.000198689 0)
(0.00159744 -0.000179586 0)
(0.0019723 -2.18627e-05 0)
(0.00107743 -0.000173021 0)
(0.00092921 -0.000376989 0)
(0.00187133 -3.01995e-05 0)
(0.00124614 -9.08767e-05 0)
(0.000990945 -0.00024946 0)
(0.00110407 -0.000265884 0)
(0.00148919 -3.02771e-05 0)
(0.00115474 -0.000133656 0)
(0.00057547 -0.00065689 0)
(0.000439579 -0.000679472 0)
(0.00137538 -4.44228e-05 0)
(0.00136931 -4.65305e-05 0)
(0.00159932 -4.96757e-05 0)
(0.00146622 -1.82136e-05 0)
(0.00146973 -1.71861e-05 0)
(0.00100235 -0.00020666 0)
(0.0014922 -0.000118671 0)
(0.00146412 -8.64621e-06 0)
(0.0001512 -0.000886174 0)
(0.00161329 -0.000159815 0)
(0.000142191 -0.000891697 0)
(0.00192721 -3.35526e-05 0)
(0.00192433 -3.48026e-05 0)
(0.00124771 -0.000236962 0)
(0.0014885 -0.000148752 0)
(0.00066951 -0.000428985 0)
(0.00172082 -9.34541e-05 0)
(0.00150643 -1.06365e-05 0)
(0.00162728 -2.66731e-05 0)
(0.00198271 -1.16083e-05 0)
(0.000107842 -0.000936361 0)
(0.00174513 -0.000181386 0)
(0.00173595 -0.000115321 0)
(0.00152546 -8.49875e-05 0)
(0.00152872 -8.5593e-05 0)
(0.0017496 -0.000137059 0)
(0.00144565 -8.28284e-06 0)
(0.00186932 -0.000178465 0)
(0.00202193 -1.65652e-06 0)
(0.000698734 -0.000420942 0)
(0.00163791 -7.63109e-05 0)
(0.00164295 -7.61832e-05 0)
(0.0011032 -0.000201386 0)
(0.00133176 -0.000230793 0)
(0.00134918 -5.13527e-05 0)
(0.00132717 -0.000172504 0)
(0.00145682 -3.69587e-05 0)
(0.00159877 -4.36472e-05 0)
(0.00145954 -3.71218e-05 0)
(0.000427067 -0.000657745 0)
(0.00173871 -1.70624e-05 0)
(0.00165509 -1.82873e-05 0)
(0.00165885 -1.82854e-05 0)
(0.001065 -0.000210676 0)
(0.00136381 -0.000189085 0)
(0.000833167 -0.000335288 0)
(0.000822359 -0.000341485 0)
(0.000357739 -0.00065418 0)
(0.00170406 -0.000208297 0)
(7.14024e-05 -0.000855226 0)
(0.00126522 -0.000129622 0)
(8.73195e-05 -0.000892441 0)
(0.00148517 -0.000150586 0)
(6.04218e-05 -0.00085786 0)
(0.000660147 -0.000442445 0)
(0.00177878 -3.42504e-05 0)
(0.00174124 -1.78048e-05 0)
(0.0012206 -0.00025022 0)
(0.00177883 -2.44654e-05 0)
(0.00144303 -2.04402e-05 0)
(0.000362904 -0.000719237 0)
(0.00169411 -4.21275e-05 0)
(0.00132736 -8.25562e-05 0)
(0.00178923 -3.87806e-05 0)
(0.00148487 -0.000166876 0)
(0.00155835 -6.82294e-06 0)
(0.0011303 -0.00021861 0)
(0.000874379 -0.000283489 0)
(0.0019004 -4.51042e-05 0)
(0.00189466 -4.61962e-05 0)
(0.00188325 -5.26854e-05 0)
(0.0011558 -0.000132798 0)
(0.00184419 -4.05482e-05 0)
(0.00145231 -1.38408e-05 0)
(0.00154541 -3.66256e-05 0)
(0.00128584 -0.000168223 0)
(0.000820885 -0.00054915 0)
(0.00142287 -4.9799e-05 0)
(0.00186863 -2.98078e-05 0)
(0.00145592 -4.14331e-05 0)
(0.00100527 -0.000205089 0)
(0.0010937 -0.000218646 0)
(0.000265049 -0.000801829 0)
(0.00177954 -3.01922e-05 0)
(0.00161401 -0.00013024 0)
(0.00172333 -0.000131183 0)
(0.000432241 -0.000685585 0)
(0.00145476 -3.04709e-05 0)
(0.00148961 -4.11056e-05 0)
(0.00134251 -0.000118113 0)
(0.00177327 -2.209e-05 0)
(0.0013446 -5.26878e-05 0)
(0.00188249 -9.386e-05 0)
(0.00174526 -0.000137853 0)
(0.000737093 -0.000379768 0)
(0.00152395 -1.7114e-05 0)
(0.00187534 -4.50952e-05 0)
(0.00187918 -4.40575e-05 0)
(0.00174024 -0.000113551 0)
(0.00201178 -1.05784e-05 0)
(0.00188662 -0.000138839 0)
(0.00152801 -6.74125e-05 0)
(0.00153296 -6.65728e-05 0)
(0.00141032 -5.24276e-05 0)
(0.000115104 -0.000891342 0)
(0.00186664 -0.00011073 0)
(0.00129874 -9.51196e-05 0)
(0.00154609 -1.34258e-06 0)
(0.000547803 -0.000627326 0)
(0.000499576 -0.000573518 0)
(0.00163507 -0.000178505 0)
(0.00169237 -0.000164894 0)
(2.87794e-05 -0.000901262 0)
(0.00175828 -4.95934e-05 0)
(0.00136689 -6.14595e-05 0)
(0.00111372 -0.000158806 0)
(0.00106108 -0.000253915 0)
(0.00175645 -0.000142108 0)
(0.00112588 -0.000143166 0)
(5.61773e-06 -0.000879695 0)
(0.000178932 -0.00085628 0)
(0.00186417 -0.00011255 0)
(0.00192736 -5.34637e-05 0)
(0.00192401 -5.5016e-05 0)
(0.000144421 -0.000898619 0)
(0.00139728 -0.000108085 0)
(0.00180354 -0.000115545 0)
(0.00124434 -0.000235774 0)
(0.00139975 -0.000198334 0)
(0.00178256 -3.43348e-05 0)
(0.0010161 -0.000212975 0)
(0.00187315 -2.54103e-05 0)
(0.00187289 -2.4463e-05 0)
(0.000559851 -0.000512219 0)
(0.000583428 -0.000523652 0)
(0.00055669 -0.000513693 0)
(0.000513389 -0.000547858 0)
(0.00132187 -0.000173215 0)
(0.00150866 -9.03181e-05 0)
(0.00151383 -8.99064e-05 0)
(0.000103175 -0.000888409 0)
(0.00114892 -0.00019131 0)
(0.000256675 -0.000809386 0)
(0.000199211 -0.000860062 0)
(0.00181378 -8.81048e-05 0)
(0.0001961 -0.000862682 0)
(0.00181859 -1.43765e-05 0)
(0.00182208 -1.33621e-05 0)
(0.00109576 -0.00018866 0)
(0.000516104 -0.000551843 0)
(0.00135195 -9.60845e-05 0)
(0.000593973 -0.000474825 0)
(0.000603981 -0.000467657 0)
(0.00123898 -0.000112103 0)
(0.00163973 -3.73507e-05 0)
(0.000807484 -0.000337022 0)
(0.000818233 -0.000331004 0)
(0.000972673 -0.000374727 0)
(0.000795776 -0.000335391 0)
(0.000385168 -0.000668118 0)
(0.00188775 -6.54151e-05 0)
(0.00142146 -0.000215994 0)
(0.00051552 -0.000617738 0)
(0.00112124 -0.000155438 0)
(0.00160915 -0.000146804 0)
(0.00157121 -4.83532e-05 0)
(0.0015664 -4.89174e-05 0)
(0.00113089 -0.000139865 0)
(0.000215264 -0.000816821 0)
(0.00112579 -0.000142258 0)
(0.000216171 -0.000817553 0)
(0.00194391 -2.44211e-05 0)
(0.00146611 -0.000215809 0)
(0.00105451 -0.000199222 0)
(0.00121934 -0.000110363 0)
(0.00143035 -4.00804e-05 0)
(0.00143484 -3.96616e-05 0)
(0.00166939 -7.85802e-06 0)
(0.00167339 -8.05919e-06 0)
(0.000950361 -0.000253659 0)
(0.000377454 -0.000726015 0)
(0.000532588 -0.000649626 0)
(0.00108324 -0.000206638 0)
(0.000895752 -0.000325354 0)
(0.00165019 -0.00020261 0)
(0.00128891 -7.40123e-05 0)
(0.000677525 -0.000422545 0)
(0.000679534 -0.000465331 0)
(0.00198618 -1.57812e-05 0)
(0.000283484 -0.000783595 0)
(0.000881383 -0.000284043 0)
(0.000804809 -0.000349278 0)
(0.00148315 -8.34128e-05 0)
(0.00109127 -0.000221143 0)
(0.00144471 -2.34553e-05 0)
(0.00124909 -9.86939e-05 0)
(0.00144843 -2.22796e-05 0)
(0.00025999 -0.000801752 0)
(0.00171055 -2.66895e-05 0)
(0.00135643 -9.47148e-05 0)
(0.00108281 -0.000198281 0)
(0.000942356 -0.000369511 0)
(0.00165827 -1.46528e-05 0)
(0.0016583 -1.37946e-05 0)
(0.00181887 -1.92465e-05 0)
(0.00113192 -0.000146483 0)
(0.00113618 -0.00014528 0)
(0.00156487 -9.31587e-06 0)
(0.00159773 -0.000133739 0)
(0.00137284 -8.10292e-05 0)
(0.00171621 -0.000106279 0)
(0.00113654 -0.000242684 0)
(0.0011358 -0.000245762 0)
(0.0019117 -7.75489e-06 0)
(0.000676245 -0.000465425 0)
(0.00122848 -9.95621e-05 0)
(0.00175269 -2.25858e-05 0)
(0.00104494 -0.000274918 0)
(0.00194552 -4.73298e-05 0)
(0.00194168 -4.83199e-05 0)
(0.000155879 -0.000897071 0)
(0.000928229 -0.000510294 0)
(0.00177673 -0.000166197 0)
(0.00177404 -0.000168461 0)
(0.00122296 -0.000108434 0)
(0.0014021 -5.11597e-05 0)
(0.0013976 -5.21297e-05 0)
(0.000286505 -0.000782863 0)
(0.00187992 -5.40658e-05 0)
(0.000994639 -0.00021511 0)
(0.00177283 -0.000157496 0)
(0.00136752 -4.6231e-05 0)
(0.00134179 -0.000194073 0)
(0.00188171 -0.000119156 0)
(0.00166759 -2.51564e-05 0)
(0.00149549 -4.79688e-06 0)
(0.00119948 -0.000154111 0)
(0.00182222 -2.48723e-05 0)
(0.00182025 -2.60131e-05 0)
(0.00100017 -0.000231791 0)
(0.000392512 -0.000659204 0)
(0.00196257 -1.48513e-05 0)
(0.00105811 -0.000176636 0)
(0.00147813 -1.26334e-05 0)
(0.00154186 -5.78088e-07 0)
(0.00156348 -5.22878e-05 0)
(0.000377856 -0.000675388 0)
(0.00150232 -3.62098e-05 0)
(0.00173493 -4.50233e-05 0)
(0.00189143 -7.50842e-05 0)
(0.00189236 -7.37708e-05 0)
(0.00126158 -0.000190803 0)
(0.00172338 -0.000175803 0)
(0.00171819 -0.000177351 0)
(0.00167338 -1.33077e-05 0)
(0.00167747 -1.30018e-05 0)
(0.00152112 -7.66421e-06 0)
(0.0017543 -9.96441e-05 0)
(0.00175341 -0.000101056 0)
(0.00148629 -5.70281e-06 0)
(0.00137053 -4.64951e-05 0)
(5.89615e-05 -0.000920974 0)
(0.00179444 -6.47921e-05 0)
(0.00147267 -8.41807e-05 0)
(0.0018005 -0.000169657 0)
(0.00167297 -0.000175213 0)
(0.00167154 -4.90568e-06 0)
(0.000448175 -0.000597165 0)
(0.000960006 -0.000231072 0)
(0.000457862 -0.00062014 0)
(0.0012893 -0.000111965 0)
(0.00157854 -0.000213274 0)
(0.000488313 -0.000592839 0)
(0.000914568 -0.000271186 0)
(0.000907287 -0.000274803 0)
(7.87612e-05 -0.000932451 0)
(0.00143836 -2.30023e-05 0)
(4.55603e-05 -0.000975403 0)
(0.00123909 -0.000117954 0)
(0.00173843 -0.000124498 0)
(0.00173993 -0.000122444 0)
(0.00123017 -0.0001122 0)
(0.00129101 -0.000132637 0)
(0.00152763 -1.27606e-05 0)
(0.000644293 -0.000439489 0)
(0.000646061 -0.000438252 0)
(0.00121046 -0.000128482 0)
(0.000303364 -0.000769492 0)
(0.00132977 -0.000113535 0)
(0.00121839 -0.000123913 0)
(0.00020746 -0.000822921 0)
(0.00188115 -0.000106394 0)
(0.00080109 -0.00033187 0)
(0.00199544 -1.48417e-05 0)
(0.00143761 -2.19306e-05 0)
(0.000910978 -0.000278746 0)
(0.00170104 -2.7608e-06 0)
(0.000566517 -0.000491625 0)
(0.00173018 -6.07349e-05 0)
(0.000744025 -0.000371343 0)
(0.0011119 -0.000150952 0)
(0.00134778 -5.37783e-05 0)
(0.000779476 -0.000364465 0)
(0.00169397 -0.000157729 0)
(0.00136821 -0.000222438 0)
(0.000783773 -0.000345157 0)
(0.00172888 -0.000182111 0)
(0.00153953 -1.05453e-05 0)
(0.000779024 -0.000348317 0)
(0.000716423 -0.000405504 0)
(0.00173348 -6.10706e-05 0)
(0.00158989 -6.32193e-05 0)
(0.00158467 -6.32862e-05 0)
(0.00159938 -6.40527e-05 0)
(0.000278642 -0.000787015 0)
(0.00192946 -7.6061e-05 0)
(0.0015215 -3.90096e-05 0)
(0.0015259 -3.78595e-05 0)
(0.0017536 -0.000150991 0)
(0.00162702 -2.25313e-05 0)
(0.00177011 -4.14921e-05 0)
(0.00164497 -9.62169e-06 0)
(0.00154605 -0.000127933 0)
(0.00123908 -9.36246e-05 0)
(0.00169727 -0.000164636 0)
(0.00155158 -0.000106313 0)
(0.00162475 -9.93283e-05 0)
(0.00100621 -0.000243415 0)
(0.000924087 -0.000254039 0)
(0.00142426 -5.10306e-05 0)
(0.00137416 -0.000131665 0)
(0.00123027 -0.000252665 0)
(0.00134063 -6.50413e-05 0)
(0.00162394 -0.00016723 0)
(0.00180305 -1.05807e-05 0)
(0.000540267 -0.000628132 0)
(0.00111585 -0.000263893 0)
(0.00153591 -0.000113781 0)
(0.00164615 -0.000177528 0)
(0.00180009 -5.25155e-05 0)
(0.00162915 -4.23368e-05 0)
(0.000365287 -0.000700353 0)
(0.00164491 -0.000135178 0)
(0.000523443 -0.000567084 0)
(0.00155608 -6.21683e-05 0)
(4.65605e-05 -0.000879496 0)
(0.00144746 -2.54485e-05 0)
(0.00145172 -2.44542e-05 0)
(0.00144504 -1.86743e-05 0)
(0.00161678 -1.6602e-06 0)
(0.00132492 -8.40996e-05 0)
(0.000523365 -0.000577528 0)
(0.00100111 -0.000212803 0)
(0.0014002 -3.35842e-05 0)
(0.00051572 -0.000582935 0)
(0.00129242 -0.000133912 0)
(0.000496444 -0.000578469 0)
(0.00175427 -0.000174636 0)
(0.000744437 -0.000378486 0)
(0.00136544 -4.61303e-05 0)
(0.00115386 -0.000155135 0)
(0.00136277 -5.0797e-05 0)
(0.000309723 -0.000758645 0)
(0.0015955 -4.67988e-05 0)
(0.000572145 -0.000502304 0)
(0.0014191 -0.000171627 0)
(0.000579139 -0.000495858 0)
(0.00189815 -2.2666e-05 0)
(0.000894637 -0.000323699 0)
(0.000797695 -0.000343555 0)
(0.000438182 -0.000589973 0)
(0.00149909 -7.46614e-05 0)
(0.00186798 -0.000105265 0)
(0.00134085 -5.95918e-05 0)
(0.000391438 -0.000685259 0)
(0.00118995 -0.000141179 0)
(0.00168871 -0.000132012 0)
(0.000569023 -0.000517962 0)
(0.000384405 -0.000691319 0)
(0.000634444 -0.000498323 0)
(0.00068699 -0.000412405 0)
(0.00125915 -0.00023318 0)
(0.00136636 -0.000224741 0)
(0.00123388 -9.7078e-05 0)
(0.00113846 -0.000137757 0)
(0.00154841 -0.000199876 0)
(0.00179967 -1.03933e-05 0)
(0.00181883 -8.34101e-05 0)
(0.000951204 -0.000260765 0)
(0.00189388 -5.40194e-06 0)
(0.00129856 -0.000143654 0)
(0.00174823 -6.26476e-05 0)
(0.000280272 -0.000788029 0)
(0.00178218 -0.000194713 0)
(0.00194567 -3.5866e-06 0)
(0.00178063 -2.81648e-05 0)
(0.00177906 -2.71686e-05 0)
(0.00124281 -0.000225876 0)
(0.000920962 -0.000287766 0)
(0.000401967 -0.000668076 0)
(0.000921157 -0.000284359 0)
(0.00154569 -0.000126458 0)
(0.00110414 -0.000160207 0)
(0.00146268 -1.88899e-05 0)
(0.00145365 -9.47676e-05 0)
(0.000206982 -0.000851875 0)
(0.00056108 -0.000621732 0)
(0.00140011 -9.64629e-05 0)
(0.0015071 -1.88653e-05 0)
(0.00141205 -5.00264e-05 0)
(0.00146477 -0.000102549 0)
(0.00159518 -6.51015e-05 0)
(0.00142453 -5.05623e-05 0)
(0.000880226 -0.000281519 0)
(0.00168464 -4.33027e-06 0)
(0.00152303 -0.00018753 0)
(0.00134053 -0.000159845 0)
(0.00142659 -3.60975e-05 0)
(0.00182861 -4.90037e-05 0)
(0.00173914 -0.000111957 0)
(0.00164319 -0.000198057 0)
(6.54392e-06 -0.000905276 0)
(0.0019591 -1.52684e-05 0)
(0.00141724 -0.000217987 0)
(0.000125188 -0.00090272 0)
(0.00147049 -5.74601e-05 0)
(0.0017896 -0.000120501 0)
(0.00144434 -2.00989e-05 0)
(0.00154286 -6.10112e-06 0)
(0.0015421 -5.65532e-06 0)
(0.00111847 -0.00014592 0)
(0.000918981 -0.000434522 0)
(0.000641102 -0.00048141 0)
(0.000408441 -0.000723985 0)
(0.000902538 -0.000437282 0)
(0.00170847 -0.000136957 0)
(0.00097074 -0.000291109 0)
(0.00165194 -2.80306e-05 0)
(0.00156806 -0.000114076 0)
(0.00190485 -7.34105e-05 0)
(0.00130067 -6.77023e-05 0)
(0.000992002 -0.000213059 0)
(0.00100119 -0.000207884 0)
(0.00145044 -1.56138e-05 0)
(0.000468784 -0.00070714 0)
(0.00153665 -1.0696e-05 0)
(0.000449648 -0.000713749 0)
(0.00189337 -6.62397e-05 0)
(0.000143008 -0.000906612 0)
(0.00168495 -2.28771e-05 0)
(0.00168976 -2.28727e-05 0)
(0.000211571 -0.000831493 0)
(0.000203163 -0.000838252 0)
(0.0016346 -4.33182e-05 0)
(0.0010896 -0.000164431 0)
(0.00190418 -2.10526e-05 0)
(0.000776947 -0.000350729 0)
(0.0007784 -0.00035036 0)
(0.00179748 -0.000121149 0)
(0.00153577 -9.47752e-05 0)
(0.000904155 -0.000338941 0)
(0.00101086 -0.000207671 0)
(0.00172008 -0.000164847 0)
(0.0017251 -0.000164423 0)
(0.000292627 -0.00073647 0)
(0.00161167 -3.91371e-06 0)
(0.00183359 -3.60725e-05 0)
(0.000283339 -0.000742385 0)
(0.00139489 -3.53074e-05 0)
(0.00124922 -0.000210029 0)
(0.00144567 -1.8987e-05 0)
(0.000389589 -0.000733584 0)
(0.00158178 -0.000142562 0)