/*--------------------------------*- C++ -*----------------------------------*\
| =========                 |                                                 |
| \\      /  F ield         | OpenFOAM: The Open Source CFD Toolbox           |
|  \\    /   O peration     | Version:  v2012                                 |
|   \\  /    A nd           | Website:  www.openfoam.com                      |
|    \\/     M anipulation  |                                                 |
\*---------------------------------------------------------------------------*/
FoamFile
{
    version     2.0;
    format      ascii;
    class       volSymmTensorField;
    location    "4";
    object      epsilon;
}
// * * * * * * * * * * * * * * * * * * * * * * * * * * * * * * * * * * * * * //

dimensions      [0 0 0 0 0 0 0];


internalField   nonuniform List<symmTensor> 
30465
(
(0.000839591 -0.000192792 4.07996e-19 -0.000354315 2.64118e-20 0)
(0.000600831 -0.000198588 -1.48153e-19 -0.000201669 -1.19065e-19 0)
(0.00118468 0.000132276 -1.88104e-18 -0.000592432 -1.65398e-18 0)
(0.0007927 -0.000153317 1.74026e-19 -0.000322043 4.16591e-19 0)
(0.000746656 -4.88881e-05 6.56574e-19 -0.000314247 3.99347e-20 0)
(0.000740525 -4.36982e-05 5.25146e-19 -0.000314908 2.75542e-19 0)
(0.00115806 0.000134589 -2.4575e-18 -0.000546789 -2.09106e-18 0)
(0.000970816 0.000165436 -4.06674e-19 -0.000375557 -2.36052e-19 0)
(0.00118298 0.000243404 8.26654e-19 -0.000500976 7.89528e-19 0)
(0.00113939 -3.26001e-05 5.73219e-19 -0.000616745 3.69632e-19 0)
(0.000818155 0.000115419 5.19785e-19 -0.000326001 4.04208e-19 0)
(0.00117043 -4.80515e-06 -4.97588e-19 -0.000517535 -2.24673e-19 0)
(0.000777396 -0.000240833 1.45796e-19 -0.00032719 4.34597e-19 0)
(0.000432064 -0.000317711 1.53343e-18 -0.000384926 7.23031e-19 0)
(0.00109165 -4.21003e-05 7.8309e-19 -0.000468877 4.5578e-19 0)
(0.00116308 0.000174445 1.17197e-18 -0.000554506 9.50991e-19 0)
(0.000749467 -7.38278e-05 1.28832e-20 -0.000309304 -9.8574e-20 0)
(0.00113995 -0.000101789 6.71464e-19 -0.000669307 4.00131e-19 0)
(0.00119599 0.000242432 1.60817e-18 -0.000507951 1.42664e-18 0)
(0.000692208 -2.99844e-05 -3.02073e-19 -0.000278267 -1.26304e-19 0)
(0.000430768 -0.000137924 2.90261e-19 -0.000118349 2.06763e-19 0)
(0.000438619 -0.000135387 4.3498e-20 -0.000112612 5.96284e-20 0)
(0.0005101 -0.000291479 -3.49684e-19 -0.0002359 -1.39251e-19 0)
(0.00109191 0.000242289 5.63811e-19 -0.000447428 5.18373e-19 0)
(0.000525774 -0.000290892 -3.54188e-19 -0.000237005 -1.3873e-19 0)
(0.000655078 -8.91318e-05 -1.28842e-19 -0.000206743 6.50973e-20 0)
(0.000656531 -9.11283e-05 8.63376e-19 -0.000207689 1.551e-19 0)
(0.000605773 -0.000179164 5.96217e-19 -0.00019187 1.34344e-19 0)
(0.000590736 -0.000123533 -1.92057e-19 -0.000170239 1.28641e-20 0)
(0.00131842 -2.88271e-07 0 -0.00062944 0 0)
(0.000832563 -0.000280569 -3.55139e-19 -0.000455533 -1.81371e-19 0)
(0.000636469 -4.31689e-05 0 -0.000156842 0 0)
(0.00081909 -0.000213771 8.06793e-20 -0.000342432 4.29082e-20 0)
(0.000753614 -0.000168199 -2.81005e-19 -0.0002995 1.80817e-19 0)
(0.000925841 -4.1962e-05 8.03851e-19 -0.000389363 2.27314e-19 0)
(0.000575463 -0.000142748 -1.63306e-20 -0.000164529 -6.87072e-20 0)
(0.00115562 0.000250195 5.81997e-19 -0.000488965 5.8227e-19 0)
(0.000295177 -0.000394017 -1.11357e-18 4.98941e-05 -1.82977e-19 0)
(0.000737837 -0.000154296 -4.22396e-19 -0.000289401 1.66838e-21 0)
(0.00118503 -1.41623e-05 -3.66599e-19 -0.000517546 -1.4233e-19 0)
(0.000519572 -0.000224964 4.16994e-19 -0.000181081 7.82611e-20 0)
(0.00104478 -9.3327e-05 1.12976e-20 -0.00045347 -2.94518e-19 0)
(0.00107532 0.000230893 -5.33717e-20 -0.000449397 -8.52103e-20 0)
(0.000584939 -0.000192801 -3.13284e-19 -0.000194345 1.0514e-19 0)
(0.000592543 -0.000189449 1.55957e-19 -0.000185626 7.73474e-20 0)
(0.00126107 0.000220248 8.51855e-19 -0.000537041 7.10519e-19 0)
(0.0010793 -7.52379e-05 2.63078e-21 -0.000569977 2.05098e-20 0)
(0.000604054 -0.000196652 1.71766e-19 -0.000196352 2.22869e-19 0)
(0.000652161 -5.94381e-05 2.56611e-19 -0.000196305 1.60339e-20 0)
(0.000491632 -0.000183011 2.82017e-19 -0.000150103 4.80131e-20 0)
(0.000503926 -0.000184749 -2.6215e-20 -0.000149597 -1.16081e-20 0)
(0.000742938 -0.00020357 -5.54177e-19 -0.000295253 -6.04322e-20 0)
(0.000903973 0.000127962 -9.81153e-20 -0.000389199 -7.67034e-20 0)
(0.000908199 0.000136131 3.87571e-19 -0.000380378 4.18697e-19 0)
(0.00193302 -0.000558275 1.39731e-18 -0.000701646 5.32089e-19 0)
(0.000648989 -0.000225969 1.34368e-19 -0.000237744 2.27051e-19 0)
(0.00198895 -0.000502625 -9.38479e-19 -0.000635459 -3.43759e-19 0)
(0.00068396 -0.000117381 -2.06312e-20 -0.000246427 2.06424e-20 0)
(0.000602484 -0.000120715 3.21499e-19 -0.000172214 2.70902e-21 0)
(0.000611686 -2.2242e-05 -2.63832e-19 -0.000113348 -7.63151e-20 0)
(0.000610402 -2.22218e-05 -1.15906e-19 -0.000111949 4.25952e-20 0)
(0.00118499 1.89705e-05 -5.3703e-19 -0.000640914 -2.70356e-19 0)
(0.000494142 -9.99649e-06 -2.34886e-19 -0.000118813 -6.29445e-20 0)
(0.000918081 -0.000104667 -6.99776e-19 -0.000390015 -5.87698e-20 0)
(0.000908835 -0.000106847 -8.95236e-20 -0.000390134 3.25868e-19 0)
(0.000319247 -4.49419e-06 5.49234e-19 -0.000871981 4.93182e-19 0)
(0.000981291 -7.24259e-05 -1.1427e-18 -0.000423422 5.33717e-20 0)
(0.00133509 0.000166735 -1.01251e-18 -0.000493572 -7.37161e-19 0)
(0.000362762 -6.03219e-05 0 -8.40666e-05 0 0)
(0.000687992 -0.000165993 -1.37681e-19 -0.00024793 -2.10663e-19 0)
(0.00060028 -0.000285004 -1.4473e-19 -0.000255379 4.30495e-21 0)
(0.000664761 -1.87966e-05 6.78038e-19 -0.000234458 3.00346e-19 0)
(0.0012216 1.12814e-05 -1.65131e-19 -0.000528548 -2.57689e-19 0)
(0.00110203 -3.9699e-05 3.49711e-19 -0.000527854 2.10115e-19 0)
(0.000818048 -0.000214188 -7.09248e-20 -0.000346781 -5.54995e-19 0)
(0.00121024 -1.51733e-05 -2.25343e-19 -0.000518442 -1.06588e-19 0)
(0.000588477 -5.79416e-05 0 -0.000145244 0 0)
(0.000586629 -5.64458e-05 4.07523e-19 -0.000146309 -8.45804e-21 0)
(0.000524614 -0.000239238 -4.69498e-19 -0.00040408 -1.03348e-18 0)
(0.000861116 0.000127833 -2.61192e-19 -0.000346485 -1.7558e-19 0)
(0.00109044 0.000125007 -2.71054e-19 -0.00047237 -4.12674e-19 0)
(0.00107709 0.000118745 7.40217e-19 -0.000473707 5.96294e-19 0)
(0.000748232 -0.000104617 3.42582e-19 -0.000301007 2.44197e-19 0)
(0.000649904 -0.000126869 2.65575e-19 -0.000208877 -1.4104e-20 0)
(0.000745791 -0.000231864 -1.99598e-20 -0.000304662 5.02485e-21 0)
(0.000654366 -2.73378e-05 4.58852e-19 -0.000202083 6.73713e-20 0)
(0.000605454 -0.000121682 1.31185e-19 -0.00017465 -5.8863e-20 0)
(0.00119107 -2.12831e-05 -8.73394e-19 -0.000521172 -4.86712e-19 0)
(0.000733988 -1.8656e-05 -9.37528e-19 -0.000311705 -1.63439e-19 0)
(0.000518938 -0.000143437 1.33758e-19 -0.0001449 -1.36612e-20 0)
(0.000631305 -2.93753e-05 -2.10373e-19 -0.000151297 4.34407e-20 0)
(0.00063023 -3.19359e-05 -2.8923e-19 -0.000147988 -1.07395e-19 0)
(0.000747581 -6.62361e-05 5.82674e-19 -0.000310757 -8.40033e-20 0)
(0.000744051 -6.83279e-05 -2.21945e-19 -0.000311077 8.24873e-20 0)
(0.00113819 -3.54642e-05 -9.51467e-19 -0.000630757 -5.79411e-19 0)
(0.000614859 -6.59101e-05 0 -0.000151936 0 0)
(0.000612244 -0.00012783 -1.56572e-19 -0.000180974 4.65881e-20 0)
(0.000613455 -0.000124735 1.54689e-19 -0.000178797 7.33122e-20 0)
(0.000932852 0.000165213 3.40863e-19 -0.000376459 3.03298e-19 0)
(0.000605813 -0.000110199 4.49847e-19 -0.000169097 -1.40262e-19 0)
(0.000777499 -0.000114003 6.99889e-19 -0.000324158 -1.20433e-19 0)
(0.000433958 -0.000170396 4.94854e-20 -0.000128708 5.92059e-20 0)
(0.00043864 -0.000175084 3.769e-20 -0.000129637 -1.16742e-19 0)
(0.000889898 -0.000219708 -9.62446e-20 -0.00040812 -3.00173e-20 0)
(0.000429458 -0.000324473 -5.48194e-19 -0.000330426 -2.31649e-19 0)
(0.00106149 -2.57161e-05 -3.65938e-19 -0.000464416 -2.18097e-19 0)
(0.00107149 -1.99814e-05 2.36801e-19 -0.000451598 3.71902e-19 0)
(0.000665414 -6.60657e-05 -4.65755e-19 -0.000221444 -7.33384e-20 0)
(0.000604291 -0.000283085 -2.64631e-19 -0.000259333 -2.77647e-20 0)
(0.000299981 -0.000247462 -3.67909e-19 -0.000206546 -1.34058e-19 0)
(0.00120409 0.000168075 -1.21396e-18 -0.000589919 -9.94877e-19 0)
(0.000805129 -0.000112563 4.39399e-19 -0.000334626 -1.74559e-19 0)
(0.000947414 -5.68527e-05 3.12099e-19 -0.000404595 -7.20555e-20 0)
(0.000940962 -5.17725e-05 3.39557e-19 -0.000405439 -6.93845e-20 0)
(0.000820389 -0.00024027 2.29431e-19 -0.000360618 1.48026e-19 0)
(0.000811434 -0.00023938 -6.07342e-19 -0.000354719 -6.5528e-20 0)
(0.000231461 -8.21667e-05 2.14788e-19 -9.71322e-05 7.85787e-20 0)
(0.000669965 -1.20126e-05 -5.02322e-19 -0.000233642 -2.18374e-19 0)
(0.000604765 -2.49597e-05 -7.52698e-19 -0.000134627 8.33591e-20 0)
(0.00167311 -8.98074e-06 -5.95068e-19 -0.000515464 -3.26012e-19 0)
(0.00119961 2.82263e-07 1.16795e-18 -0.000522653 8.08105e-19 0)
(0.000572011 -0.000144319 7.53506e-20 -0.000168444 9.22989e-20 0)
(0.000676024 -0.000249021 -1.47564e-19 -0.000266868 -1.51667e-19 0)
(0.000131663 -4.72374e-05 1.60873e-19 -0.000336649 2.30668e-19 0)
(0.000592794 -0.000186089 -3.41546e-20 -0.000190619 -2.43469e-21 0)
(0.000590523 -0.00018515 7.9156e-20 -0.000186613 -6.62334e-20 0)
(0.000348176 -8.76999e-05 1.4554e-19 -9.39183e-05 3.66955e-20 0)
(0.0008958 -9.65845e-05 7.56172e-20 -0.000375956 -1.52332e-19 0)
(0.000687332 -5.46767e-06 -7.18708e-20 -0.000279632 -5.7194e-21 0)
(0.000166352 -2.78794e-05 -9.39287e-20 -0.00048009 -1.21549e-19 0)
(0.00133739 0.000152889 6.65723e-19 -0.000464634 3.29595e-19 0)
(0.000606468 -1.46807e-05 -2.41464e-19 -0.000127416 -3.17789e-20 0)
(0.00120365 0.000174099 9.88653e-19 -0.000587176 7.45868e-19 0)
(0.00115621 6.8872e-05 1.05824e-18 -0.000368533 7.46202e-20 0)
(0.000680116 -6.87378e-05 0 -0.000250036 0 0)
(0.000301128 -0.000173026 0 -0.000124078 0 0)
(0.00118906 4.49964e-05 -1.06897e-18 -0.000511933 -8.49417e-19 0)
(0.00064332 -0.000141694 3.10469e-19 -0.000210837 6.86665e-20 0)
(0.00118474 0.00023299 4.70328e-19 -0.000477925 3.93138e-19 0)
(0.00118524 4.04986e-05 -7.76731e-19 -0.000511306 -5.839e-19 0)
(0.000665714 -0.000261947 -7.23882e-19 -0.000271071 -1.5334e-19 0)
(0.00100611 9.27185e-05 -4.14577e-19 -0.000359051 -2.36371e-19 0)
(0.000145595 -5.08883e-05 -3.24223e-20 -0.000186925 -7.9343e-20 0)
(0.000531545 -0.000227491 -1.22481e-19 -0.000179027 3.38857e-20 0)
(0.000561024 -9.5344e-05 2.35869e-19 -0.000145791 4.30785e-20 0)
(0.00121111 1.95101e-05 8.20302e-19 -0.000660701 7.18946e-19 0)
(0.000626209 -1.67382e-05 6.44607e-19 -0.000146048 2.28118e-19 0)
(0.000628931 -2.04578e-05 -2.83094e-19 -0.000140022 -8.10596e-20 0)
(0.000961434 -0.00016161 9.66893e-20 -0.000430781 -2.44488e-20 0)
(0.000601994 -1.32997e-06 2.85955e-19 -8.16188e-05 -5.74789e-21 0)
(0.000694428 1.31502e-06 2.68739e-19 -0.000297322 2.24854e-19 0)
(0.000971262 -0.000183206 -7.1423e-19 -0.000490798 -3.24037e-19 0)
(0.000640526 -7.02367e-05 -7.01453e-20 -0.000175997 -6.77584e-20 0)
(0.000638486 -6.97724e-05 -2.15789e-19 -0.000179694 1.35427e-20 0)
(0.000786058 -6.19582e-05 3.10214e-19 -0.000332151 -2.50053e-19 0)
(0.000468786 -0.000339084 5.54975e-19 -0.000382111 2.07518e-19 0)
(0.00103137 -5.02498e-05 -3.53369e-19 -0.000433966 -2.13636e-19 0)
(0.000739921 -0.000138855 -3.27029e-19 -0.000294137 1.63724e-19 0)
(0.00111358 -6.54833e-05 1.11856e-18 -0.000483156 4.73148e-19 0)
(0.000574847 -0.000178445 5.01528e-19 -0.000178621 3.82692e-20 0)
(0.00057571 -0.000176955 -1.1947e-19 -0.000176225 -1.80529e-19 0)
(0.00113101 -5.89363e-05 2.49976e-19 -0.000486587 -1.27484e-20 0)
(0.00100983 -0.000105669 -3.80191e-19 -0.00043964 1.17148e-19 0)
(0.00102462 -0.00010105 -2.11437e-19 -0.000436416 -2.14366e-19 0)
(0.000212671 -0.000104887 0 -0.000115339 0 0)
(0.000600537 -7.32535e-06 -4.01587e-19 -0.00013309 2.60558e-21 0)
(0.000615766 -0.000113782 -4.58179e-19 -0.000177696 -1.18439e-19 0)
(0.00122925 0.000133815 1.11256e-18 -0.000406463 7.4939e-19 0)
(0.0006566 -0.000136906 3.73993e-20 -0.000217707 -8.89264e-20 0)
(0.00104988 -0.000132724 5.13587e-19 -0.000570721 3.32582e-19 0)
(0.000737034 -0.000266636 -5.4816e-19 -0.000320151 -6.79316e-20 0)
(0.000612134 -3.78726e-05 6.011e-21 -0.000131599 6.56932e-20 0)
(0.000617997 -7.74634e-05 6.58316e-22 -0.000157479 7.13861e-20 0)
(0.0006138 -7.7867e-05 -5.26744e-19 -0.000161187 1.68946e-20 0)
(0.000644666 -0.000146399 0 -0.000211577 0 0)
(0.00105928 -0.000119633 -1.45943e-18 -0.000585625 -9.38055e-19 0)
(0.000885229 -8.82099e-05 6.31854e-19 -0.000381157 -3.0774e-19 0)
(0.000820583 -0.00025442 1.90352e-19 -0.000387684 2.8545e-20 0)
(0.000209287 -8.6577e-05 -6.15507e-21 -0.000110747 1.66389e-20 0)
(0.000974692 9.07205e-05 4.69577e-19 -0.000344766 2.25887e-19 0)
(0.00115498 7.52849e-05 -3.87399e-19 -0.000532028 -3.43094e-19 0)
(0.000872335 -0.000190762 0 -0.000373817 0 0)
(0.000874676 -0.000194576 8.71494e-19 -0.00037201 -9.2142e-20 0)
(0.00071045 -7.12075e-06 -3.06083e-19 -0.000305141 -2.5781e-19 0)
(0.000687624 -1.15741e-05 4.04392e-19 -0.000275774 1.88484e-19 0)
(0.000611682 -0.000343328 -5.31807e-19 -0.00038879 -2.07977e-19 0)
(0.0010196 0.000215276 -5.63148e-19 -0.000422815 -5.42478e-19 0)
(0.000235731 2.63579e-05 -4.62419e-19 -0.000662134 -8.40208e-19 0)
(0.00060266 -2.41306e-05 -2.90962e-20 -0.000133338 -7.80995e-21 0)
(0.000740038 -6.99348e-05 -4.66666e-20 -0.000309179 1.48974e-19 0)
(0.00121318 -1.24435e-05 5.62503e-19 -0.000518087 3.57249e-19 0)
(0.000661384 -6.60686e-05 -2.13242e-19 -0.000212246 1.50407e-20 0)
(0.0004314 -0.000234221 -2.93623e-19 -0.000164198 -5.34798e-20 0)
(0.000974316 0.00010185 0 -0.000352452 0 0)
(0.000749715 -8.52984e-05 -6.10238e-19 -0.0003119 1.39601e-20 0)
(0.000754118 -8.82911e-05 -4.9556e-19 -0.000309145 1.00625e-19 0)
(0.00115957 0.000132403 -8.25829e-19 -0.000544176 -7.34223e-19 0)
(0.000722085 -0.000186625 3.89178e-19 -0.000276677 1.06099e-19 0)
(0.000721402 -0.000122073 5.34434e-19 -0.000284766 -2.652e-20 0)
(0.000846632 -0.000188031 0 -0.000355639 0 0)
(0.000611182 -3.29059e-05 -1.77039e-19 -0.000129984 -1.23783e-19 0)
(0.000603952 -0.000108947 -2.61578e-19 -0.000169145 -4.05292e-20 0)
(0.000606141 -1.543e-05 4.5981e-19 -9.89278e-05 9.58402e-20 0)
(0.00121327 7.66333e-05 -8.15075e-19 -0.000377615 1.72392e-20 0)
(0.00079104 -0.00027658 -5.94379e-19 -0.000392532 -2.13745e-19 0)
(0.000663747 -0.000260094 -3.3602e-19 -0.000263282 -1.82148e-20 0)
(0.00014446 -3.87971e-05 -1.15648e-19 -0.000415176 -3.65177e-19 0)
(0.00122953 0.000108723 -8.72162e-20 -0.000385458 -3.01045e-20 0)
(0.000865906 -0.000234771 -3.10962e-19 -0.00040982 -3.53774e-20 0)
(0.000554567 -0.000175804 -6.06237e-19 -0.000166126 -1.30806e-19 0)
(0.00117349 0.000128909 -4.90011e-20 -0.000577282 -1.0338e-19 0)
(0.000651613 -0.000260472 -3.97899e-20 -0.000255478 -1.06308e-19 0)
(0.000334041 -3.01474e-05 2.82571e-19 -7.89972e-05 3.0777e-21 0)
(0.000630138 -0.000114219 -5.99803e-19 -0.000186975 -1.01228e-19 0)
(0.00125559 0.000218803 2.083e-18 -0.000538035 1.80023e-18 0)
(0.00102741 -5.50227e-05 -4.16636e-19 -0.000443492 -2.42666e-20 0)
(0.00103629 -4.60409e-05 -1.97064e-20 -0.000443323 -2.11574e-19 0)
(0.000661489 -9.29682e-05 5.88299e-19 -0.000214475 2.26532e-19 0)
(0.000658073 -9.24926e-05 -1.40097e-19 -0.000214131 -9.41708e-20 0)
(0.00119974 -2.18349e-05 -1.245e-18 -0.000514468 -5.48766e-19 0)
(0.000863316 -9.44218e-05 5.70442e-19 -0.000365616 1.84178e-19 0)
(0.000790071 -0.000218976 -7.08624e-20 -0.000328222 4.55547e-21 0)
(0.000638574 -6.69216e-05 8.62697e-20 -0.000169996 6.34686e-20 0)
(0.000681763 -7.23044e-05 2.907e-19 -0.00024963 5.9929e-20 0)
(0.000984719 -4.28952e-05 3.39236e-19 -0.000414535 -9.55784e-20 0)
(0.000205747 -4.53921e-05 -7.51695e-20 -0.000545182 -2.25517e-19 0)
(0.00117649 1.11288e-05 0 -0.000653344 0 0)
(0.000962251 -0.000208549 -5.37685e-19 -0.000552907 -3.18949e-19 0)
(0.000519155 -0.000140336 1.16701e-21 -0.000141864 1.08548e-19 0)
(0.000616873 -0.0003403 1.72277e-19 -0.000376718 6.21274e-20 0)
(0.0011981 3.11513e-05 3.68879e-19 -0.000638559 1.2603e-19 0)
(0.000621806 -8.74064e-05 8.38197e-20 -0.000165715 6.6534e-20 0)
(0.000620001 -8.80762e-05 -5.84981e-20 -0.000168217 -1.44069e-19 0)
(0.000457316 -0.000234732 -1.23641e-20 -0.000453665 -3.25244e-19 0)
(0.000464676 -0.000327874 1.76509e-19 -0.000299935 8.66192e-20 0)
(0.000259847 -0.000131558 -6.64113e-20 -0.000113336 -7.42599e-20 0)
(0.000881845 -6.18497e-05 5.25492e-19 -0.000370454 -1.48319e-19 0)
(0.000867615 -6.71955e-05 0 -0.000374185 0 0)
(0.00113408 0.000155919 -1.23856e-18 -0.000503872 -9.84222e-19 0)
(0.00112592 0.000150889 1.66066e-18 -0.000516243 1.50694e-18 0)
(0.00108179 -0.000101931 -1.2211e-18 -0.000591628 -7.90476e-19 0)
(0.000621862 -0.000331825 -8.74634e-19 -0.000369063 -3.50301e-19 0)
(0.000725464 -0.00025301 -1.12878e-19 -0.000295222 -1.98027e-19 0)
(0.000668669 -0.000345001 -1.4616e-18 -0.000479379 -6.83188e-19 0)
(0.000627405 -0.000150647 -4.48266e-19 -0.000194742 -8.0408e-20 0)
(0.00110174 -1.77925e-05 1.04842e-18 -0.000480278 7.36156e-19 0)
(0.000864527 -0.00023225 -5.84073e-19 -0.000402993 -2.06102e-19 0)
(0.000785036 -0.000246574 -4.12559e-19 -0.000334935 -1.19796e-19 0)
(0.00133092 0.000168101 -6.13164e-19 -0.000513396 -4.76961e-19 0)
(0.000462111 -0.000327131 4.83943e-19 -0.000306612 1.87808e-19 0)
(0.000716014 -0.000172614 -3.73522e-19 -0.000276431 1.46551e-19 0)
(0.000166302 -5.27679e-05 1.35376e-19 -0.00043908 2.01578e-19 0)
(0.000153505 -4.6887e-05 5.98858e-22 -0.000438287 -3.08132e-20 0)
(0.00118863 1.3055e-05 1.01888e-18 -0.000647727 6.02615e-19 0)
(0.000809504 -0.00025178 4.6961e-19 -0.000366225 2.48436e-19 0)
(0.00132737 0.000154401 7.40095e-19 -0.000459121 5.30501e-19 0)
(0.00111979 -0.000307988 0 -0.000493588 0 0)
(0.00115402 -0.000308755 1.10072e-18 -0.000487767 4.97049e-19 0)
(0.000963406 -0.000174863 -8.71146e-19 -0.000444587 -4.63745e-19 0)
(0.00124243 2.93721e-05 5.54076e-20 -0.000367376 9.25813e-20 0)
(0.000668031 -1.65772e-05 1.53321e-19 -0.000228453 1.55766e-19 0)
(0.000559453 -0.000324511 -1.33307e-19 -0.000309671 -3.19863e-20 0)
(0.000587136 -0.000323204 -1.81671e-19 -0.00031499 -3.05715e-20 0)
(0.000162265 -0.000142559 -6.08499e-20 -0.000323437 -1.66587e-20 0)
(0.00124158 5.75986e-05 1.35837e-19 -0.000660514 1.23522e-19 0)
(0.00125467 5.75263e-05 6.93172e-19 -0.000645081 4.07889e-19 0)
(0.000709829 -0.000187139 -2.5769e-19 -0.000264926 4.24961e-20 0)
(0.00108609 -7.33902e-05 3.27815e-19 -0.000515465 2.60112e-19 0)
(0.000801633 -0.000245753 0 -0.000355038 0 0)
(0.000690547 -0.000189747 4.12215e-19 -0.000252078 1.50107e-20 0)
(0.000599955 -7.43459e-06 -1.57865e-19 -0.000133025 -1.18738e-20 0)
(0.00070185 -4.35762e-05 8.63164e-21 -0.000284367 -1.98555e-20 0)
(0.000590495 -0.000137012 -1.68553e-19 -0.000168635 -9.49578e-20 0)
(0.000744921 -4.86624e-05 3.9449e-19 -0.000315549 2.28978e-19 0)
(0.000399778 -0.000316535 8.85678e-19 -0.000328739 4.30217e-19 0)
(0.000959914 -0.000241415 1.2187e-19 -0.000604682 1.98994e-19 0)
(0.000319523 -0.000134789 5.25227e-19 -0.000444358 1.48023e-19 0)
(0.000657977 -0.000296301 -2.08228e-19 -0.000305521 -1.27595e-19 0)
(0.00128904 0.000123969 1.2556e-18 -0.000626998 1.02958e-18 0)
(0.000405491 -0.000142483 -6.31928e-20 -0.000115243 -2.88049e-21 0)
(0.00130162 0.000126188 -4.91469e-19 -0.000619546 -3.5042e-19 0)
(0.000842432 -4.20399e-05 7.94686e-19 -0.000355514 6.11573e-20 0)
(0.000367646 -0.000162248 -1.68921e-18 -0.000442893 -1.00372e-18 0)
(0.000711345 -0.00011047 1.83898e-20 -0.000269512 -2.63915e-20 0)
(0.000551573 -0.00017716 -2.92224e-19 -0.000170137 2.56931e-20 0)
(0.000695282 -0.000124231 -1.6861e-20 -0.000259748 -4.4531e-20 0)
(0.000996002 -0.000147002 -6.84508e-20 -0.000443853 8.18601e-20 0)
(0.000661037 -8.18992e-05 -2.79298e-19 -0.000221211 -6.54036e-20 0)
(0.000600507 -2.06724e-06 9.08625e-20 -7.9392e-05 3.49473e-21 0)
(0.000693673 9.68265e-07 -2.44423e-19 -0.000297416 1.33921e-19 0)
(0.000788464 -0.000276864 -1.95867e-20 -0.000399446 4.98908e-21 0)
(0.000715503 -0.000304334 -3.39135e-19 -0.000365642 -8.04754e-20 0)
(0.000674234 -0.000250579 -1.44037e-19 -0.000263241 -1.20507e-19 0)
(0.00121657 -0.000187937 0 -0.000584989 0 0)
(0.000611324 -2.7665e-05 -9.01148e-21 -0.000124422 4.49943e-20 0)
(0.000681767 -4.92232e-05 1.95603e-20 -0.000253611 -2.09814e-19 0)
(0.00060625 -9.61835e-06 -3.62071e-19 -0.000128784 -1.19761e-19 0)
(0.000313787 -8.73402e-05 -1.79834e-19 -8.5879e-05 4.49537e-22 0)
(0.000323299 -8.07472e-05 3.18278e-19 -8.42746e-05 5.86372e-21 0)
(0.000590109 -8.49124e-05 -3.59367e-19 -0.000155987 -8.81201e-20 0)
(0.000827575 -6.31536e-05 -3.0061e-19 -0.000352757 8.60796e-20 0)
(0.000826264 -6.62249e-05 -3.00112e-19 -0.000350806 8.05133e-20 0)
(0.00122609 6.56032e-06 -4.45437e-19 -0.000523627 -1.89143e-19 0)
(0.000497082 -0.000142736 -6.11357e-20 -0.000136416 4.98397e-20 0)
(0.000514953 -8.87753e-05 4.78672e-19 -0.0001313 5.6554e-20 0)
(0.00109805 -5.15781e-05 -1.26194e-18 -0.000578816 -8.65961e-19 0)
(0.00110107 -5.62453e-05 -1.4504e-19 -0.000576526 -1.10503e-19 0)
(0.000612028 -3.75234e-05 -8.55791e-20 -0.00013436 -3.89257e-20 0)
(0.000386569 -0.000270897 1.31347e-18 -0.00041671 3.95216e-19 0)
(1.70498e-05 4.2995e-05 5.80655e-19 -5.04429e-05 -8.55162e-19 -5.8138e-35)
(0.000777328 -0.000234866 1.36287e-19 -0.000326508 -6.1711e-20 0)
(0.000782035 -0.000235973 -6.13647e-19 -0.000326901 -2.44627e-19 0)
(0.00100841 0.000166153 -1.57696e-19 -0.000378814 -1.88742e-19 0)
(0.000679996 -2.52674e-05 -8.09424e-20 -0.000256951 4.64495e-20 0)
(0.00130107 0.000152661 -1.19515e-19 -0.000595401 -1.25291e-19 0)
(0.000687877 -0.00031295 6.88082e-19 -0.000519098 2.96124e-19 0)
(0.00122216 4.31043e-05 -7.13898e-19 -0.000369244 -2.65333e-19 0)
(0.00123602 2.19406e-05 1.88536e-18 -0.000373558 1.98452e-19 0)
(0.00107774 -8.73544e-05 -1.01747e-18 -0.000485528 -5.35448e-19 0)
(0.00187388 -0.000235944 -9.9383e-19 -0.000618417 -3.3975e-19 0)
(0.000995077 -0.000168004 1.43608e-19 -0.000524766 8.47724e-20 0)
(0.00181885 -0.000225632 -2.06009e-18 -0.000662938 -9.00802e-19 0)
(0.00106967 -0.000110746 -1.23958e-18 -0.000590882 -8.14116e-19 0)
(0.000273396 -0.000207854 4.68552e-19 -0.000159443 1.32085e-19 0)
(0.000618382 -0.00021332 0 -0.000211056 0 0)
(0.000608881 -0.000212229 0 -0.000210699 0 0)
(0.0014813 -0.000641525 -1.48981e-18 -0.000478141 -5.48164e-19 0)
(0.000862807 -0.000286286 2.35871e-19 -0.000567476 -7.79682e-20 0)
(0.000688373 -0.000229521 -1.64804e-19 -0.000258306 8.56254e-20 0)
(0.00122188 0.000129967 -3.80536e-19 -0.00062658 -3.93478e-19 0)
(0.000204391 -1.8334e-06 -8.99057e-20 -0.000100746 2.18258e-20 0)
(0.00114263 1.15493e-05 1.24744e-18 -0.000606043 9.61679e-19 0)
(0.000306856 -0.000218093 1.84216e-19 -0.000159271 4.15169e-20 0)
(0.000989983 0.000142595 -5.10107e-19 -0.000359588 -3.39251e-19 0)
(0.000338394 -0.000282638 7.39452e-20 -0.000314131 2.41654e-20 0)
(0.00107549 -7.51933e-05 -8.69195e-19 -0.000465366 -3.28409e-19 0)
(0.000641609 -2.19462e-05 -9.2422e-20 -0.00017217 -2.44301e-20 0)
(0.000502996 -0.000257797 -6.64029e-19 -0.000197239 -1.85628e-19 0)
(0.000506595 -0.000251448 -3.36116e-19 -0.000192506 -4.193e-20 0)
(0.00100237 -0.000154476 -1.01797e-18 -0.00051782 -5.60424e-19 0)
(0.000979579 -0.000159264 -1.25009e-18 -0.000437543 -4.69856e-19 0)
(0.000751437 -0.000202149 -3.79779e-19 -0.000296726 9.60644e-20 0)
(0.00123089 9.85238e-05 6.14632e-19 -0.000633565 5.88158e-19 0)
(0.000613156 -0.000113327 -1.8669e-19 -0.000174661 -6.97353e-20 0)
(0.000658994 -0.000223445 1.13242e-19 -0.000244239 9.78231e-20 0)
(0.0010102 -0.000140605 -3.07038e-19 -0.000487479 -1.28163e-19 0)
(0.00101024 -0.000142266 3.37465e-19 -0.000497051 1.48739e-19 0)
(0.00117972 5.48536e-05 6.25251e-19 -0.000512853 4.8068e-19 0)
(0.000975044 -0.000228619 8.60863e-19 -0.000606653 6.58678e-19 0)
(0.000626018 -6.11725e-06 2.53943e-20 -0.000142878 -4.0539e-20 0)
(0.000985269 -0.000160043 -1.27933e-19 -0.000469534 -4.29089e-21 0)
(0.00053283 -0.000120854 1.40453e-19 -0.000145078 -1.58738e-19 0)
(0.000990391 0.000169495 -6.73132e-19 -0.000423701 -6.01469e-19 0)
(0.000985026 0.000126254 4.87134e-19 -0.000366241 1.50317e-19 0)
(0.00073484 -0.000260796 1.9881e-19 -0.000311436 1.46372e-19 0)
(0.00101569 -0.000107588 9.38311e-20 -0.000433697 2.73645e-20 0)
(0.000296068 -0.000173285 1.57426e-19 -0.000128674 2.32712e-20 0)
(0.00112775 0.000109992 6.38294e-19 -0.000499375 3.10819e-19 0)
(0.000420392 -0.000315738 0 -0.000371673 0 0)
(0.000226204 3.87919e-05 -4.61114e-20 -0.00058489 -7.69377e-19 0)
(0.000999046 -0.000183969 -1.70532e-19 -0.000556781 -1.27739e-19 0)
(0.000989354 -0.000182942 4.97207e-19 -0.000548303 2.8685e-19 0)
(0.000650532 -8.43038e-05 0 -0.000193985 0 0)
(0.000445066 -0.000239414 0 -0.000455801 0 0)
(0.000260159 -1.11953e-05 -2.86039e-19 -0.000513394 -5.05767e-19 0)
(0.00115341 7.73559e-05 -8.45589e-19 -0.000538634 -7.23313e-19 0)
(0.000862721 0.000139416 -9.07092e-19 -0.000345091 -6.90443e-19 0)
(0.000354349 -2.15881e-05 2.83602e-19 -8.28633e-05 -8.33546e-21 0)
(0.000461653 -0.000240683 5.6295e-19 -0.000172238 1.2563e-19 0)
(0.000814074 -0.00027273 -1.95564e-19 -0.000419407 -7.60621e-20 0)
(0.00203832 -0.000673319 7.02777e-19 -0.000747011 2.36161e-19 0)
(0.000629287 -3.18264e-05 8.9244e-21 -0.000145044 -3.88822e-21 0)
(0.00113875 0.000243078 -1.94894e-19 -0.000485082 -2.06929e-19 0)
(0.000986557 -0.000243351 -8.8534e-19 -0.000596536 -5.14028e-19 0)
(0.000986683 -0.00022979 8.21427e-19 -0.000601514 5.06983e-19 0)
(0.00102903 -0.000119453 3.50572e-19 -0.000449192 3.64465e-20 0)
(0.00071119 -2.53913e-05 2.64959e-19 -0.000300106 1.17173e-19 0)
(0.000880384 -0.000173547 -6.69032e-20 -0.000371483 -1.05067e-20 0)
(0.000656206 -0.000135025 -5.59705e-19 -0.000217089 -5.88928e-22 0)
(0.000756553 -8.21408e-05 4.04739e-20 -0.000317695 6.1517e-20 0)
(0.000625441 -0.00030644 1.88699e-19 -0.000491566 8.07972e-20 0)
(0.00070794 -5.49196e-05 8.54032e-19 -0.000283633 2.74736e-19 0)
(0.000689963 -5.30599e-05 -3.06071e-20 -0.000266359 1.7179e-20 0)
(0.00104377 -8.56435e-05 -1.01636e-19 -0.000442688 1.72909e-20 0)
(0.000981997 0.000176064 1.98464e-19 -0.000419298 7.63914e-20 0)
(0.000521491 -0.000131389 -5.2099e-19 -0.000138555 -1.16526e-19 0)
(0.000195003 -0.000153917 2.50013e-19 -0.000183739 1.14478e-19 0)
(0.00114926 4.84126e-05 5.74073e-19 -0.000535347 4.39397e-19 0)
(0.00114746 4.14527e-05 3.00477e-19 -0.000543022 2.01826e-19 0)
(0.000195727 -0.000167375 -1.10222e-19 -0.000183301 -3.77279e-20 0)
(0.00132395 0.00014373 8.37346e-19 -0.00060078 5.55747e-19 0)
(0.000400069 -0.000174895 1.65414e-19 -0.00012811 6.19009e-20 0)
(0.000495425 -0.000139919 3.0244e-19 -0.000134292 -4.32987e-21 0)
(0.000554857 -6.01983e-05 -3.90573e-19 -0.000138394 -9.7589e-20 0)
(0.000795443 -0.000228787 -5.3966e-19 -0.000336544 -1.20187e-19 0)
(0.000703176 -2.34209e-05 -1.14929e-19 -0.000293892 7.4171e-20 0)
(0.00020862 -0.000127928 -1.7477e-19 -0.000138293 -7.57759e-20 0)
(0.000581293 -1.28672e-05 1.07004e-19 -0.000137183 -8.60005e-20 0)
(0.000704494 -1.10088e-05 7.22509e-19 -0.000297969 1.3231e-19 0)
(0.000701756 -1.08293e-05 -1.78447e-19 -0.000298321 6.53209e-20 0)
(0.000619345 -2.05468e-05 -2.94296e-19 -0.000118767 -7.12989e-20 0)
(0.000618765 -2.45305e-05 4.05825e-20 -0.000127098 -3.79402e-22 0)
(0.000648724 -0.000321916 -8.00603e-20 -0.000506875 -1.08763e-19 0)
(0.000342469 -1.79489e-05 -1.36207e-19 -8.58427e-05 4.84075e-20 0)
(0.000909535 -9.51537e-06 2.94587e-19 -0.000390131 1.39615e-19 0)
(0.000728069 -0.000271102 -1.56909e-18 -0.000321831 -2.98301e-19 0)
(0.000860454 -0.000247975 -2.90756e-20 -0.000421988 -1.17862e-19 0)
(0.000813206 -0.000134568 -1.71165e-19 -0.000341565 9.89563e-20 0)
(0.000705661 -9.61457e-05 -3.5331e-19 -0.000272765 -2.29204e-19 0)
(0.000519347 -9.06978e-05 2.14175e-19 -0.000129706 3.61092e-20 0)
(0.000696702 -3.21494e-06 6.0466e-20 -0.00029549 -1.41579e-19 0)
(0.0010188 -2.28356e-05 3.25606e-19 -0.000430603 2.18583e-19 0)
(0.000575804 -0.000181734 -3.19305e-20 -0.00017956 3.4518e-20 0)
(0.00103259 -0.000128869 -4.21756e-19 -0.000518595 -2.09927e-19 0)
(0.000778143 -0.000115147 -2.38953e-19 -0.000319995 8.10332e-20 0)
(0.000289903 -8.34401e-05 1.09608e-18 -0.000457483 5.52049e-19 0)
(0.000557607 -0.00015478 4.63314e-19 -0.000163043 1.0613e-19 0)
(0.00153611 3.24342e-05 1.08726e-19 -0.000456021 -1.66503e-19 0)
(0.00114993 -7.89764e-06 -1.12133e-18 -0.000517811 -7.07463e-19 0)
(0.00115769 -2.49963e-06 -6.8985e-19 -0.000518267 -4.4424e-19 0)
(0.000530129 -0.000201526 2.76938e-19 -0.000170455 -9.24678e-20 0)
(0.00111879 0.000138771 -4.40457e-19 -0.000386333 -2.65199e-19 0)
(0.00119508 0.000196623 -1.29844e-19 -0.000565951 -1.82621e-20 0)
(0.000864231 -0.00026761 -4.91764e-19 -0.000491902 -2.47048e-19 0)
(0.000586822 -2.73007e-05 -7.71456e-19 -0.000140243 3.44397e-21 0)
(0.000854884 -0.000274209 -1.07386e-19 -0.000498632 -5.77365e-20 0)
(0.0011598 0.000202546 7.74957e-19 -0.000535299 6.76825e-19 0)
(0.000794786 -0.000261092 -6.10704e-19 -0.000362184 -1.01395e-19 0)
(0.000789321 -0.000155156 3.61084e-19 -0.000327094 1.43187e-19 0)
(0.00089623 -0.00023733 -2.11341e-19 -0.000486893 -1.47135e-19 0)
(0.00123998 0.000215205 4.89795e-19 -0.000567018 3.87402e-19 0)
(0.000630302 -0.000129073 -4.97492e-19 -0.000195046 -1.48535e-19 0)
(0.000339346 -0.000145054 5.24402e-19 -0.000350006 4.95112e-19 0)
(0.000734652 -4.74374e-05 -2.12521e-20 -0.000307035 1.1176e-20 0)
(0.000731068 -4.44298e-05 -5.87536e-19 -0.000308951 1.30501e-20 0)
(0.000695009 4.28644e-07 0 -0.000299147 0 0)
(0.000592904 -1.46607e-06 3.06628e-19 -6.06685e-05 -1.39169e-21 0)
(0.000770987 -3.01164e-05 -3.8467e-19 -0.000331651 -4.11647e-19 0)
(0.00138004 -2.06172e-05 6.23788e-19 -0.000603566 3.631e-19 0)
(0.000443272 -1.55783e-05 -2.23032e-19 -9.73902e-05 1.45781e-20 0)
(0.00123214 0.000102707 1.31085e-18 -0.000637028 1.18958e-18 0)
(0.000479489 -0.000328822 8.3007e-19 -0.000376609 4.86663e-19 0)
(0.000728866 -0.000140948 -6.16664e-19 -0.000283052 -4.02596e-20 0)
(0.00105845 -0.000116604 -7.17372e-19 -0.000584679 -4.85944e-19 0)
(0.000615625 -2.18818e-05 1.17076e-19 -0.000113841 3.2213e-20 0)
(0.000626806 -6.32656e-05 -2.131e-19 -0.000156062 -5.6114e-20 0)
(0.000779341 -0.000278908 6.07931e-19 -0.000385906 1.47974e-19 0)
(0.000773114 -0.000282594 -3.96824e-19 -0.000387305 -1.00693e-19 0)