/*--------------------------------*- C++ -*----------------------------------*\
| =========                 |                                                 |
| \\      /  F ield         | OpenFOAM: The Open Source CFD Toolbox           |
|  \\    /   O peration     | Version:  v2012                                 |
|   \\  /    A nd           | Website:  www.openfoam.com                      |
|    \\/     M anipulation  |                                                 |
\*---------------------------------------------------------------------------*/
FoamFile
{
    version     2.0;
    format      ascii;
    class       volScalarField;
    location    "4";
    object      epsilonEq;
}
// * * * * * * * * * * * * * * * * * * * * * * * * * * * * * * * * * * * * * //

dimensions      [0 0 0 0 0 0 0];


internalField   nonuniform List<scalar> 
30465
(
0.0007422
0.000533812
0.00105594
0.00068569
0.000631771
0.000627683
0.00101711
0.000824683
0.00103726
0.00102945
0.00069357
0.000998564
0.000711729
0.000597766
0.000925855
0.00103203
0.000634397
0.00106281
0.00104822
0.000578081
0.000369756
0.000370855
0.000554201
0.000956178
0.000562168
0.000529627
0.000531428
0.000523367
0.000482723
0.00114781
0.000820864
0.000487674
0.000732042
0.000655986
0.00078161
0.000477976
0.00101705
0.000490188
0.000637045
0.00100798
0.000493809
0.000893708
0.000943154
0.000518596
0.000517785
0.00109575
0.000971123
0.000532524
0.00051746
0.000441466
0.000449247
0.000660912
0.000780197
0.000780474
0.00170231
0.000590739
0.00168411
0.000572871
0.000489951
0.000451085
0.000449661
0.0010699
0.000375531
0.000784833
0.000779459
0.000712026
0.000836249
0.00110924
0.000282902
0.00059181
0.000604625
0.000539051
0.0010366
0.000961377
0.000733568
0.0010245
0.000453601
0.000452611
0.000604499
0.000733018
0.0009367
0.000927854
0.00063544
0.000537501
0.000679058
0.000517907
0.000493171
0.00101376
0.000620298
0.000435742
0.000480527
0.000478617
0.000632781
0.000630993
0.00103602
0.000474968
0.00050218
0.000500957
0.000801388
0.000487385
0.000666869
0.000393188
0.000398909
0.000807322
0.000577876
0.000903671
0.000903598
0.000538417
0.000607196
0.000410053
0.0010735
0.000688843
0.000803964
0.000799815
0.000751922
0.000743562
0.00021679
0.000541769
0.000455657
0.00132122
0.00101963
0.000478147
0.00063058
0.000284164
0.000518384
0.000514925
0.00028738
0.000762618
0.000574614
0.000388933
0.00109464
0.000453117
0.00107315
0.000922069
0.000561467
0.000321974
0.00100901
0.000539209
0.00102439
0.00100602
0.000633495
0.000824142
0.000201244
0.000501114
0.000444755
0.00109638
0.000474114
0.000473512
0.000843919
0.000431121
0.000587691
0.00088484
0.000502783
0.000503009
0.000666939
0.000628873
0.000871066
0.000635778
0.000948543
0.000499138
0.000497947
0.000960718
0.000866797
0.000873841
0.000227122
0.00045139
0.000498443
0.000995463
0.000548816
0.000961484
0.000697603
0.00046038
0.000481684
0.000480674
0.000542035
0.000972581
0.000757089
0.000770561
0.000212635
0.000797111
0.000999669
0.000770562
0.000772418
0.000601771
0.000573065
0.00070451
0.000891566
0.000538376
0.000453668
0.000627774
0.00102615
0.000531643
0.000446458
0.000802229
0.00063771
0.000639716
0.00101638
0.000633238
0.000615232
0.000745483
0.000458564
0.000485859
0.000441146
0.00096388
0.000765891
0.000628075
0.000338448
0.000981996
0.000799434
0.000480736
0.00104086
0.000618197
0.000255551
0.000511638
0.00109243
0.000873557
0.000878432
0.00053805
0.000535616
0.00101603
0.000736773
0.000710277
0.000498293
0.000562924
0.000831392
0.000451125
0.00107082
0.00091752
0.000433271
0.00069992
0.00107727
0.000489928
0.000490018
0.000591688
0.000584147
0.000268111
0.000746264
0.000739659
0.000985314
0.000985168
0.00098691
0.000693701
0.000673191
0.000775899
0.000525707
0.000936798
0.000794433
0.000722279
0.00111614
0.000585108
0.00062411
0.000366255
0.000358722
0.00107555
0.000753085
0.001086
0.00101868
0.00103678
0.000855273
0.000974706
0.000538267
0.000631771
0.000647138
0.000329574
0.00111711
0.00111746
0.000620809
0.000947817
0.000740709
0.000604606
0.000450983
0.000588307
0.000486721
0.000631275
0.000557733
0.000952741
0.000469532
0.000663555
0.00113707
0.000356113
0.00114159
0.00071208
0.000504697
0.000598879
0.000481285
0.000587948
0.000868187
0.000538416
0.000429263
0.000587254
0.000767722
0.000725753
0.000628841
0.00108318
0.000455854
0.000561466
0.000453371
0.000263034
0.000265355
0.000464873
0.000703394
0.000701994
0.00103701
0.000418797
0.000407525
0.000985289
0.000986356
0.000461441
0.000559494
6.40865e-05
0.000708719
0.000712161
0.000849889
0.000559785
0.0011337
0.000786985
0.000963065
0.000973073
0.000929376
0.00152311
0.000912241
0.00150646
0.000980292
0.000348564
0.000555366
0.000549158
0.00139296
0.000894915
0.000624119
0.00109583
0.000179539
0.00102541
0.000371839
0.000823639
0.000498505
0.000916687
0.000495857
0.000512292
0.000508111
0.000910073
0.000857833
0.000666089
0.0011006
0.000495352
0.000598019
0.000896886
0.000901976
0.00100417
0.000958483
0.000472285
0.000877034
0.000435163
0.000860546
0.000820023
0.000689567
0.000867936
0.000321381
0.000970831
0.00058507
0.000485379
0.000934733
0.00092432
0.000519973
0.000589032
0.000454702
0.00100215
0.000736178
0.000269312
0.000469557
0.000789709
0.00183733
0.000476726
0.0010026
0.000965016
0.000963161
0.000885866
0.000600452
0.000768976
0.000547676
0.000644256
0.000736954
0.000593098
0.000573186
0.000886817
0.000855017
0.000429571
0.00028181
0.000995473
0.000997728
0.000291988
0.00114914
0.00037682
0.000415662
0.000429304
0.000721333
0.000592221
0.000249973
0.000440687
0.00059456
0.00059298
0.000458266
0.000461627
0.000765209
0.000262483
0.000770156
0.00069553
0.000807199
0.000702395
0.000593509
0.000410195
0.000588258
0.000859878
0.000501671
0.00092388
0.00066556
0.000445644
0.000471543
0.00120577
0.000985701
0.000990818
0.000481799
0.000916742
0.00106267
0.000850836
0.000446499
0.000851484
0.00102753
0.000746913
0.000686511
0.000855216
0.00109567
0.000519932
0.000431821
0.000620501
0.000618851
0.000588949
0.00041697
0.00065416
0.00117436
0.000333249
0.00110364
0.000624213
0.000624418
0.000971094
0.000453859
0.000483997
0.000757311
0.000756225
0.000973941
0.000446481
0.000723245
0.000652193
0.000494
0.000857039
0.00075707
0.000966603
0.000633054
0.0005399
0.000535601
0.000376099
0.000559261
0.000562169
0.00103733
0.000471067
0.000522356
0.000771794
0.000594732
0.00045314
0.000670147
0.000666785
0.00103455
0.00102601
0.000643835
0.000659137
0.000510531
0.00101959
0.000479102
0.000479055
0.000203518
0.000605597
0.000596245
0.000596354
0.000561019
0.000621184
0.00093596
0.000520365
0.000886471
0.000887956
0.000655547
0.000863113
0.000490069
0.000451493
0.000592602
0.000940226
0.00108364
0.000984332
0.000597882
0.000503049
0.000614332
0.000625279
0.00103774
0.000524815
0.000526828
0.00137978
0.000503435
0.00076908
0.000545965
0.00101634
0.000447499
0.00109939
0.00112184
0.000972791
0.000713291
0.000489123
0.00052982
0.000531908
0.000536599
0.000230871
0.000738863
0.000857739
0.00141447
0.000812041
0.00091278
0.000589803
0.000538305
0.000754966
0.0010541
0.000849305
0.000702923
0.000478706
0.000540812
0.000434399
0.000920082
0.000292212
0.0010379
0.000412463
0.0013703
0.000509895
0.000607046
0.000954609
0.000677206
0.000812178
0.000709397
0.00128497
0.00124729
0.000923974
0.000548285
0.000550216
0.000886095
0.000609964
0.000811506
0.00107411
0.000608057
0.000648044
0.000453218
0.000868695
0.000798801
0.000472448
0.000716438
0.000920755
0.000631588
0.000462779
0.000799178
0.00144093
0.00122257
0.000546638
0.000559992
0.00051233
0.000369467
0.000360524
0.000905736
0.000655866
0.000211795
0.000927168
0.000635986
0.000927495
0.00047396
0.000474348
0.000831595
0.000677259
0.00101751
0.000564291
0.00030421
0.000430127
0.000440831
0.000676896
0.000600703
0.000578744
0.000605071
0.000603061
0.000588272
0.000429761
0.000588657
0.000416392
0.00108376
0.000560152
0.000559251
0.000849795
0.000786565
0.000574918
0.000757431
0.000503508
0.00049516
0.000500765
0.00109815
0.000428988
0.000405641
0.000404426
0.000863194
0.000751068
0.00100508
0.00100754
0.000951537
0.000604248
0.00138917
0.000746978
0.00102948
0.00068097
0.00141176
0.00105211
0.000472924
0.000433251
0.000858527
0.000454191
0.00039821
0.00111055
0.000483697
0.000667868
0.000481241
0.000688535
0.000301977
0.000861361
0.000956975
0.000488883
0.000492276
0.000500233
0.000797066
0.000485536
0.000253218
0.000479994
0.000766991
0.000938604
0.000422873
0.000471916
0.000519305
0.000909014
0.00086598
0.000959478
0.000465515
0.000622408
0.000590757
0.0012028
0.000466749
0.000508913
0.000706586
0.000449497
0.000583301
0.000547312
0.000588123
0.00100182
0.000372664
0.000490395
0.000489604
0.0005761
0.000427081
0.000587873
0.000570732
0.000569823
0.000572414
0.000997979
0.000561326
0.000580507
0.000263213
0.001214
0.00102294
0.000632362
0.000611858
0.00105176
0.000498841
0.000614064
0.000819752
0.000913959
0.000588623
0.000822501
0.00121746
0.0010443
0.000562958
0.000500339
0.000502102
0.000679024
0.000678528
0.000564597
0.000836244
0.000736261
0.000471191
0.000879054
0.000467711
0.000465536
0.00100317
0.00112427
0.00100097
0.000992454
0.000756613
0.00061631
0.000615638
0.00102676
0.000705778
0.000958142
0.000860874
0.000542952
0.000839555
0.000447506
0.000449745
0.000841953
0.00100294
0.000461556
0.00101329
0.00101671
0.000737716
0.000470313
0.000974078
0.000976345
0.000704369
0.000972517
0.000947363
0.000514483
0.000731899
0.00117669
0.00081848
0.000632204
0.000514247
0.00051555
0.000815919
0.00131628
0.000825871
0.00127415
0.000460167
0.000707238
0.000887684
0.000749421
0.000524506
0.000517474
0.000380821
0.000380131
0.000974773
0.00126116
0.00127366
0.00081871
0.00102656
0.000627031
0.000663348
0.00101881
0.00111616
0.000441597
0.00113165
0.000935164
0.0010489
0.000614525
0.000872316
0.000412099
0.000682917
0.000402737
0.00109126
0.000443726
0.000439216
0.000852199
0.00078703
0.000393921
0.000388876
0.000454802
0.000813046
0.000805131
0.000320216
0.000629779
0.000649776
0.000577011
0.000882487
0.000888399
0.000453038
0.00111163
0.00073064
0.000445847
0.000754001
0.000492618
0.000494162
0.000800037
0.000740807
0.00059191
0.000593648
0.000741465
0.000573719
0.000574261
0.00104849
0.000501203
0.000891597
0.000589942
0.000556106
0.000645233
0.000572343
0.000429459
0.000222566
0.000788967
0.000463075
0.000462823
0.000889856
0.000948265
0.000447363
0.00086596
0.000307132
0.000252623
0.000527615
0.000947992
0.000486215
0.000491177
0.000525973
0.00052519
0.000436495
0.000605553
0.000607116
0.000395784
0.000395328
0.000282328
0.00056321
0.000564149
0.000216766
0.000558339
0.000899074
0.000520983
0.000618995
0.000590125
0.000619849
0.000377006
0.000971535
0.000934844
0.00105802
0.000561595
0.000654957
0.0010628
0.00098545
0.000997364
0.000823869
0.000288394
0.000611182
0.000742592
0.000584006
0.000581811
0.000744245
0.000740663
0.000331583
0.00101175
0.00101314
0.000703507
0.00115245
0.000705547
0.000708246
0.00125328
0.000560234
0.000970168
0.000438837
0.000318352
0.000990261
0.000391588
0.00107614
0.00052111
0.000978253
0.000827554
0.000543345
0.00105909
0.000610204
0.000761877
0.00100069
0.000604149
0.000316536
0.00100092
0.00107786
0.000519713
0.000545955
0.000547418
0.00054669
0.00112723
0.000538498
0.000492437
0.000488886
0.000592664
0.00041522
0.000485529
0.000371189
0.000643566
0.000717921
0.000611556
0.000621691
0.000593444
0.000900302
0.000925978
0.000517977
0.000710305
0.00085405
0.000531294
0.000636017
0.00043998
0.0012036
0.000917339
0.000635109
0.000630341
0.00050301
0.000485232
0.00098015
0.000616631
0.00109874
0.00055388
0.00119726
0.000428539
0.000428819
0.000326881
0.000330552
0.000674751
0.00113039
0.000885691
0.000453533
0.00112625
0.00073718
0.00103233
0.00059831
0.00101943
0.000520339
0.000801436
0.000504921
0.000970296
0.000503429
0.00100673
0.000718361
0.001002
0.000463905
0.00102192
0.00103367
0.000997259
0.000596515
0.000557366
0.000545558
0.0010528
0.000780232
0.000600584
0.00105685
0.001045
0.00112589
0.00102304
0.000824828
0.000766343
0.000709764
0.000814523
0.00066923
0.000440491
0.000538312
0.000962681
0.000451507
0.000747015
0.000521772
0.0010388
0.000589632
0.000447874
0.000462254
0.000458136
0.000824765
0.00098999
0.00101234
0.000979261
0.000642909
0.00084661
0.000373272
0.000641118
0.000929595
0.00118627
0.000669375
0.000385396
0.000564581
0.000648283
0.000548059
0.000562911
0.000943005
0.000383892
0.000677879
0.000743441
0.000341289
0.000496888
0.000575281
0.000628559
0.00102063
0.000449863
0.000736855
0.000610728
0.000568337
0.000571099
0.000366459
0.000286067
0.000276606
0.000827646
0.000700349
0.00111215
0.00151365
0.000769528
0.000597073
0.000972492
0.000438497
0.000625383
0.000525967
0.000634695
0.000903263
0.000897346
0.000247622
0.00176208
0.000320495
0.00176617
0.000514827
0.000795304
0.000429221
0.000428231
0.000775797
0.000755879
0.000488353
0.000837342
0.000463172
0.000976125
0.00097361
0.000570421
0.000615768
0.000948897
0.00088401
0.000603814
0.000603592
0.000864528
0.000330932
0.000479714
0.000847395
0.000460358
0.000434435
0.000344173
0.00191367
0.000640135
0.000491666
0.000549229
0.000458434
0.000507457
0.000939052
0.000855952
0.000934079
0.000592787
0.000566296
0.000941956
0.000709362
0.000681895
0.000482881
0.000716741
0.00033504
0.000450922
0.000591167
0.0010409
0.000499583
0.00112122
0.000863569
0.00100425
0.000497237
0.000493921
0.000580663
0.00026061
0.000601877
0.000599977
0.000268387
0.00117077
0.000441364
0.00053815
0.000970105
0.000701754
0.000704269
0.000447285
0.00080861
0.00106256
0.0011096
0.000599062
0.000805902
0.000565517
0.000572866
0.000944614
0.000697433
0.000385683
0.000390965
0.00102184
0.000861663
0.00095671
0.000539459
0.000565838
0.00092759
0.000517126
0.000973644
0.000551135
0.00063529
0.00125474
0.000440599
0.000170591
0.000437999
0.000710261
0.000544206
0.000549096
0.000403016
0.000399828
0.0004494
0.000450678
0.000848444
0.000655618
0.000556949
0.000471521
0.000422594
0.000590107
0.000786677
0.000351874
0.000884212
0.000716384
0.000914651
0.000331476
0.000755288
0.000596953
0.000301973
0.00030662
0.000997241
0.00060931
0.00063178
0.000934595
0.00045316
0.000452855
0.000768279
0.000735894
0.000764499
0.000907599
0.000668726
0.000324775
0.0010891
0.000348648
0.000734876
0.000911492
0.000807157
0.000740755
0.000888331
0.000530454
0.000531794
0.000280666
0.000445042
0.00045928
0.000457065
0.000321885
0.000442776
0.000608991
0.000483238
0.000444444
0.000717748
0.000468547
0.000994032
0.00072097
0.000993081
0.000668037
0.000471473
0.000454144
0.000451424
0.000958939
0.000778381
0.000256805
0.000454313
0.000732232
0.000903714
0.000585601
0.000584212
0.000543562
0.000809462
0.000667087
0.00103861
0.000742627
0.00083947
0.000806287
0.000487775
0.000729406
0.000561304
0.000846563
0.000559881
0.000533907
0.00048236
0.000581711
0.000273517
0.00071787
0.000856622
0.00107471
0.000307558
0.000458926
0.000552218
0.000990993
0.00068491
0.000683786
0.000641074
0.000676048
0.000449631
0.000452402
0.000557533
0.000651152
0.000861895
0.000863849
0.00049831
0.000882836
0.000625078
0.000627022
0.00126331
0.000446029
0.000589609
0.000345789
0.000918194
0.000671666
0.000674894
0.000444405
0.00105557
0.000899605
0.000529197
0.000330973
0.000994411
0.000555521
0.000589875
0.00045307
0.000451901
0.000848605
0.000461339
0.000855133
0.000620244
0.000621368
0.0010968
0.000857035
0.000451921
0.00206464
0.000856641
0.000434377
0.000585786
0.0005627
0.000526136
0.00120301
0.000607162
0.00103979
0.000522373
0.000772933
0.000584199
0.000524043
0.000519368
0.000688096
0.000410088
0.00111042
0.000846133
0.000852537
0.000792403
0.000538294
0.000650614
0.000643441
0.000594427
0.000905788
0.000833327
0.000426317
0.000425025
0.000600064
0.000565535
0.000398087
0.00062813
0.00085236
0.000827273
0.00042256
0.000588955
0.000771795
0.000429507
0.000586557
0.000931178
0.000620572
0.00057184
0.000640391
0.000519073
0.000464726
0.000558921
0.000644992
0.000715182
0.000594639
0.000592381
0.00101761
0.000450626
0.000453416
0.000939139
0.000252718
0.00117693
0.000644832
0.00072788
0.000974832
0.000627942
0.000982325
0.000373494
0.000542882
0.000882015
0.00122742
0.00135083
0.000515949
0.000749217
0.000367839
0.000953624
0.00107702
0.00051378
0.000437199
0.0013079
0.00046741
0.000816576
0.000439723
0.00165922
0.000255924
0.000461281
0.000248425
0.000394786
0.000385454
0.00101782
0.00100776
0.00044778
0.00160841
0.000190498
0.000540392
0.00135454
0.000172944
0.000454111
0.000401927
0.000650075
0.000505419
0.000601363
0.000598153
0.000592465
0.000624347
0.000584059
0.000579205
0.000263432
0.000660748
0.000834222
0.000525013
0.000647687
0.000920779
0.000642344
0.000656102
0.000810519
0.000468731
0.000962723
0.000486727
0.00103823
0.000448815
0.000446417
0.000435819
0.000636272
0.000229854
0.000923912
0.000448416
0.00043743
0.000387369
0.0010883
0.00043604
0.000593487
0.000286118
0.000246348
0.000482577
0.000827279
0.000428941
0.00092248
0.000425638
0.000580005
0.000866157
0.000873116
0.000294953
0.000922672
0.000318627
0.00045856
0.000602018
0.000603858
0.000586951
0.000887365
0.000498472
0.000489859
0.00100677
0.000561452
0.000956385
0.000309835
0.000541829
0.000324991
0.000297624
0.000978615
0.000977915
0.000461274
0.000461653
0.000620643
0.000744603
0.000548091
0.000459871
0.000589642
0.000732884
0.000595994
0.000964531
0.000595177
0.000536082
0.000673594
0.000955228
0.000460135
0.000388768
0.000677573
0.000550431
0.000502464
0.00048205
0.000517079
0.000443071
0.00106431
0.000677565
0.000530509
0.000456465
0.000907368
0.00100494
0.00105993
0.000581755
0.00143049
0.000869141
0.000534469
0.00106692
0.000287604
0.000998394
0.000360023
0.00080839
0.000286198
0.000471164
0.000564904
0.00047861
0.000478035
0.000763669
0.000659963
0.000637109
0.000632047
0.000998184
0.000673074
0.0004453
0.000863004
0.000781314
0.00103198
0.000549904
0.000573173
0.00109212
0.000444225
0.000779953
0.00105543
0.000466489
0.000875341
0.000776497
0.000414384
0.000332366
0.000560519
0.00072068
0.000591592
0.000847644
0.000855187
0.000397734
0.00046316
0.000597502
0.00107921
0.00109496
0.000431689
0.000520883
0.000538388
0.000738693
0.000971989
0.00108177
0.000294048
0.0007169
0.000674057
0.000640863
0.000542856
0.000496758
0.000845438
0.000679439
0.000510265
0.00053951
0.000939106
0.000755629
0.000573136
0.000698393
0.000419188
0.000661586
0.000920554
0.000459009
0.000949021
0.000589145
0.000776728
0.000468168
0.0010006
0.000727466
0.000796702
0.000463225
0.00072064
0.000613406
0.00108837
0.000549989
0.000549686
0.000431299
0.000441371
0.000396011
0.00099466
0.000750522
0.000672955
0.000650086
0.000679997
0.000676517
0.001156
0.000538127
0.000460193
0.000631855
0.000637504
0.000691292
0.00040232
0.000658579
0.000497881
0.000207807
0.000347363
0.00110818
0.000455011
0.000664375
0.000630096
0.000891855
0.00100862
0.000701865
0.000561327
0.000881142
0.000873477
0.000454522
0.000593643
0.000587888
0.000602026
0.000951845
0.000950377
0.000540465
0.000282964
0.000583469
0.000962667
0.00119915
0.00108465
0.00045701
0.000433384
0.000859212
0.00098207
0.000796961
0.000633042
0.000709414
0.000398779
0.000672219
0.000436205
0.000436637
0.000651332
0.000644274
0.000815588
0.000521357
0.00087847
0.00116169
0.000566484
0.000862441
0.000595598
0.000707878
0.000484932
0.000321531
0.00121236
0.0012058
0.000313112
0.00072308
0.00048678
0.00058168
0.00057826
0.000843727
0.00075416
0.000602586
0.000506632
0.000561441
0.00112153
0.000472842
0.000568659
0.000542335
0.000935465
0.00055031
0.000432617
0.000385248
0.00102021
0.0011189
0.000969699
0.000811239
0.000522103
0.00122014
0.00117473
0.00025643
0.000333129
0.00047685
0.000508007
0.00084141
0.000317238
0.000459767
0.000793829
0.000788803
0.000824799
0.000850452
0.000711074
0.000736457
0.000660634
0.000447146
0.000855013
0.000442748
0.000567987
0.000440965
0.000627303
0.00049696
0.000593272
0.000799819
0.000519096
0.000606062
0.00064526
0.000567665
0.000568279
0.000571416
0.000572256
0.000445895
0.000465673
0.000585658
0.00105344
0.000910098
0.00025838
0.000496479
0.00101673
0.000723123
0.000767661
0.000672297
0.000859798
0.000562858
0.000562262
0.000796062
0.000487097
0.000599439
0.00038239
0.00094279
0.000629254
0.000450898
0.000769659
0.000942432
0.000195649
0.000988319
0.00048718
0.000909584
0.000776512
0.000594447
0.000715261
0.000510727
0.000589784
0.000496443
0.000377616
0.000736732
0.00055786
0.000969896
0.000813183
0.000946875
0.00091335
0.000931137
0.000556126
0.00124094
0.00063561
0.00108503
0.000469767
0.00107877
0.000482342
0.000996619
0.000484024
0.000626215
0.000746048
0.000527091
0.000454563
0.000524903
0.000534297
0.000854923
0.000223139
0.000660878
0.00109491
0.000439615
0.000459927
0.000712672
0.000772677
0.000321485
0.000568055
0.000860714
0.000839765
0.000455644
0.000624417
0.001085
0.0011206
0.00100289
0.00134559
0.000437634
0.000599067
0.000912163
0.000913126
0.00112606
0.000512926
0.000525379
0.000521544
0.00105841
0.000553771
0.000896097
0.000656073
0.000652811
0.000647526
0.000891811
0.000852106
0.000695861
0.000484909
0.000989972
0.000221747
0.00106993
0.000629455
0.000398594
0.000764636
0.000876516
0.000395356
0.00044141
0.00102822
0.000646141
0.00072437
0.000575667
0.000576269
0.000669996
0.00059514
0.000455612
0.000455209
0.000881342
0.000518989
0.000671215
0.00102818
0.000469852
0.00078986
0.00082348
0.000938276
0.000595807
0.000452626
0.000730944
0.000995176
0.000479181
0.00147365
0.000971592
0.00147173
0.000562162
0.00101607
0.000923298
0.000920969
0.000906743
0.000878658
0.000670766
0.000630599
0.000562662
0.000752778
0.000347945
0.000478789
0.000762225
0.000981846
0.000471015
0.000473818
0.000577125
0.000840881
0.00107706
0.000263709
0.000259047
0.000406659
0.000408736
0.000933587
0.00099947
0.00068055
0.000775636
0.000350792
0.000830887
0.000887567
0.000953128
0.000547628
0.000632457
0.00146655
0.000913196
0.000536228
0.000446327
0.000588836
0.00042524
0.000305152
0.000977375
0.000473037
0.000566898
0.00045395
0.000655069
0.000844385
0.00100738
0.000492126
0.000273968
0.000398258
0.000347153
0.000535824
0.000445095
0.00102929
0.000766601
0.000467
0.000468355
0.000270357
0.000453578
0.00059008
0.000360305
0.000264097
0.000708439
0.000566263
0.000997145
0.001021
0.000450475
0.000448049
0.00101611
0.000983916
0.000510063
0.000601531
0.00108058
0.000935755
0.00135128
0.00057861
0.000411128
0.000855437
0.000881593
0.000447326
0.000994789
0.000703663
0.000515506
0.000974625
0.000526651
0.000599524
0.000196341
0.000519063
0.000316078
0.000603239
0.000577798
0.000481459
0.000659198
0.000991444
0.000710043
0.000477122
0.000719868
0.00102582
0.000811197
0.00102423
0.000571597
0.00082877
0.000565424
0.00052055
0.000622375
0.000835241
0.000750425
0.000564516
0.000666639
0.000479538
0.000783311
0.00067477
0.000998584
0.000649003
0.000649466
0.000714915
0.000722717
0.00040574
0.00040644
0.000755939
0.000473677
0.000452279
0.000451078
0.000566345
0.000375393
0.000375539
0.000520363
0.000821269
0.000840452
0.000456115
0.000702141
0.000835935
0.00064551
0.000292997
0.000399973
0.0007292
0.000702346
0.000211172
0.000579735
0.00106701
0.000931637
0.00081298
0.000214099
0.000459299
0.00060788
0.000700114
0.000678739
0.000678467
0.000820065
0.00059829
0.000759281
0.000489452
0.00108056
0.000670394
0.000479632
0.000962458
0.000970056
0.000646598
0.000698057
0.000427908
0.000430184
0.00037018
0.000988867
0.00097579
0.000707127
0.00108066
0.000786477
0.000820057
0.000453811
0.000843718
0.00033238
0.000515477
0.000511884
0.000646857
0.000779638
0.000977258
0.00130022
0.00021346
0.000514104
0.000737432
0.000663417
0.000456965
0.000832718
0.000348803
0.000580971
0.000581721
0.000634384
0.000438567
0.000860021
0.000552273
0.000880707
0.000874681
0.000561868
0.000957565
0.000939042
0.000989091
0.000996036
0.000449152
0.000482501
0.000554255
0.000737731
0.001014
0.000433876
0.000990935
0.000353055
0.000442419
0.000585504
0.000459468
0.00106065
0.000287803
0.000341908
0.000235097
0.000487902
0.000666413
0.000882592
0.000498998
0.000517598
0.000518386
0.000536404
0.000767718
0.000369746
0.000471848
0.00103785
0.000873251
0.000697157
0.00125401
0.000819005
0.000916499
0.000447882
0.000938479
0.000690907
0.000587373
0.000439623
0.000704328
0.000636748
0.000689166
0.00027904
0.00155081
0.000474239
0.000974176
0.000529145
0.000688017
0.000817163
0.000812274
0.000684962
0.000944799
0.00058965
0.000473205
0.00044803
0.000616119
0.000372367
0.000650323
0.00059756
0.00086107
0.000379158
0.000507639
0.000506894
0.000234301
0.000586963
0.000441219
0.000818654
0.00102195
0.000411576
0.000819206
0.00123521
0.00096988
0.00043671
0.000634684
0.00041695
0.000523283
0.000832363
0.00100919
0.000748424
0.00100562
0.000630796
0.000526794
0.000528134
0.000924804
0.000938154
0.00084498
0.000471927
0.000493992
0.000492764
0.00144526
0.000495247
0.00143656
0.000283747
0.000569737
0.00059518
0.00100174
0.00100084
0.000966792
0.000721653
0.000482911
0.000886831
0.000906711
0.000575135
0.000575734
0.000862758
0.000448562
0.00059333
0.000717996
0.000589482
0.000424131
0.000943678
0.000599867
0.000690156
0.000206335
0.000703203
0.00122864
0.000434015
0.000431875
0.000548436
0.000519674
0.000543283
0.000421822
0.000321774
0.000246955
0.00102002
0.000930365
0.000926243
0.000578013
0.00156557
0.000533914
0.000880044
0.000415405
0.000776835
0.000981186
0.000890495
0.000889201
0.000517739
0.000975812
0.000596972
0.000594824
0.00135962
0.00108354
0.00094739
0.000914079
0.000524791
0.00073898
0.00094983
0.00102781
0.000524794
0.000525676
0.000820224
0.000508851
0.000618757
0.000619715
0.0022009
0.000480301
0.000260885
0.000769496
0.000546907
0.000553818
0.000385012
0.000388965
0.000284848
0.000461523
0.00104925
0.00061037
0.000604677
0.00107979
0.000584472
0.0011219
0.000381469
0.000415326
0.00155435
0.000825525
0.000604978
0.000373133
0.000905768
0.000701409
0.000370094
0.000454724
0.000496382
0.000584432
0.000582337
0.000999177
0.000731541
0.000962966
0.000463341
0.000401708
0.000721399
0.00053789
0.000578373
0.00163986
0.000618013
0.00105651
0.00156129
0.000623827
0.000714159
0.000587829
0.000961656
0.000323827
0.00103557
0.000736576
0.00101043
0.00102633
0.000590225
0.00041319
0.000465534
0.000840757
0.00084544
0.000402429
0.00045993
0.000902626
0.000807765
0.00103448
0.000640462
0.000873337
0.000736221
0.00099986
0.000661473
0.000422818
0.000652553
0.000880227
0.000745643
0.000896596
0.000540691
0.000853752
0.000844974
0.000323968
0.000725462
0.000915369
0.000583421
0.000940628
0.000391434
0.00150143
0.000664276
0.00063506
0.000413607
0.000931597
0.00102055
0.000391957
0.000508508
0.000510853
0.00128537
0.000472404
0.00046574
0.000794749
0.000698336
0.000683165
0.000615149
0.000991149
0.00105053
0.000641968
0.000988129
0.0010064
0.000531045
0.00103076
0.000361966
0.000504884
0.00134168
0.00086042
0.000849508
0.00118942
0.00102902
0.000970828
0.000912026
0.000572369
0.000476805
0.000389247
0.000961845
0.000517557
0.000710455
0.000942702
0.000942269
0.000438084
0.000670913
0.000455433
0.000664134
0.000667505
0.00096331
0.000965149
0.00101227
0.000995908
0.000667049
0.000928153
0.000455842
0.000957165
0.000171045
0.00046442
0.000340094
0.000808469
0.000554688
0.000552485
0.0011202
0.000580617
0.000479092
0.000972418
0.000489176
0.000618625
0.000458342
0.000584785
0.000497669
0.000641511
0.000680379
0.000685568
0.00101124
0.000736054
0.000413917
0.000607039
0.00091116
0.000484973
0.000685985
0.000329745
0.000640667
0.000635668
0.000642368
0.00126986
0.000797112
0.00111703
0.00072946
0.00082679
0.000869694
0.000229223
0.000764246
0.000992152
0.000968969
0.00100811
0.000439792
0.000446008
0.000601827
0.000751272
0.00017016
0.00045649
0.000546733
0.000459331
0.000416917
0.000419326
0.00051447
0.00070876
0.000381758
0.000545121
0.00076506
0.000676101
0.000495583
0.00101452
0.00100291
0.000568031
0.000477198
0.000421796
0.000509803
0.00036992
0.000988631
0.00078343
0.000745451
0.000451976
0.00103059
0.000568618
0.000417753
0.00085934
0.000513169
0.000455774
0.000454302
0.000441254
0.000702487
0.000389776
0.000605761
0.000381282
0.000362709
0.000539605
0.000307492
0.000458598
0.000751567
0.000465427
0.000644832
0.000655313
0.000656358
0.000587028
0.00065684
0.000653576
0.000536807
0.00101441
0.000850751
0.000438926
0.000780759
0.00039888
0.00101098
0.000995251
0.000452403
0.00045096
0.000763914
0.000449945
0.000502352
0.000871337
0.00106657
0.000650097
0.000459306
0.000420313
0.000423755
0.000985761
0.000869164
0.000485133
0.000392334
0.000658056
0.000345328
0.00045087
0.000666491
0.00164544
0.000757762
0.000592233
0.000586981
0.000571104
0.00068949
0.0006876
0.000448578
0.00038716
0.000393681
0.000458414
0.000459958
0.000591182
0.000439857
0.000437543
0.000678357
0.000656373
0.000580537
0.000806482
0.000575225
0.000832495
0.000825216
0.000729973
0.00100972
0.000692039
0.000992517
0.000798746
0.000791627
0.00101086
0.000445276
0.000443619
0.00058132
0.00058161
0.00111894
0.00101958
0.000609724
0.000571113
0.000646997
0.000611157
0.00093609
0.000622989
0.00059735
0.000595937
0.000706026
0.000482151
0.00118937
0.000755063
0.000882645
0.000558238
0.000641913
0.00055657
0.00120343
0.000418102
0.000993373
0.00105977
0.000729546
0.000446787
0.000591077
0.000842506
0.000495254
0.000487154
0.000919322
0.000625153
0.000577603
0.000987721
0.00106223
0.000635182
0.000786068
0.00111018
0.000517237
0.000517995
0.000714991
0.000826709
0.000993799
0.000994421
0.000439755
0.00097806
0.000759046
0.000606341
0.000614171
0.000591562
0.000592002
0.000475855
0.000724777
0.000888016
0.00050084
0.000675264
0.000776745
0.00113777
0.000680418
0.00049596
0.00152765
0.000415224
0.000440254
0.000905373
0.000548366
0.000750427
0.000539221
0.000326234
0.000361372
0.000649234
0.000594234
0.000981733
0.000475643
0.000511823
0.000272315
0.000447692
0.000581677
0.000451247
0.000592941
0.000305894
0.000580992
0.000623536
0.000624899
0.000926255
0.000944479
0.00062628
0.000314311
0.000958086
0.000993672
0.000520991
0.000797759
0.000542735
0.000890097
0.000365212
0.00118492
0.000596226
0.000450823
0.00047144
0.000985983
0.000933453
0.000573687
0.000575132