/*--------------------------------*- C++ -*----------------------------------*\
| =========                 |                                                 |
| \\      /  F ield         | OpenFOAM: The Open Source CFD Toolbox           |
|  \\    /   O peration     | Version:  v2012                                 |
|   \\  /    A nd           | Website:  www.openfoam.com                      |
|    \\/     M anipulation  |                                                 |
\*---------------------------------------------------------------------------*/
FoamFile
{
    version     2.0;
    format      ascii;
    class       pointVectorField;
    location    "4";
    object      pointD;
}
// * * * * * * * * * * * * * * * * * * * * * * * * * * * * * * * * * * * * * //

dimensions      [0 1 0 0 0 0 0];


internalField   nonuniform List<vector> 
30930
(
(0.00141979 0 -2.06942e-22)
(0.0020225 0 0)
(0.00186609 -0.000186052 1.34402e-22)
(0 -0.000999294 1.18661e-21)
(0 -0.000776635 2.36457e-21)
(0.00141979 0 -2.06942e-22)
(0.0020225 0 0)
(0.00186609 -0.000186052 1.34402e-22)
(0 -0.000999294 1.18661e-21)
(0 -0.000776635 2.36457e-21)
(0.00142413 0 0)
(0.00142859 0 0)
(0.00143298 0 0)
(0.00143686 0 0)
(0.00143979 0 0)
(0.00144251 0 0)
(0.00144507 0 0)
(0.00144734 0 0)
(0.00144925 0 0)
(0.00145096 0 0)
(0.00145259 0 0)
(0.00145421 0 0)
(0.00145573 0 0)
(0.00145714 0 0)
(0.00145866 0 0)
(0.00146021 0 0)
(0.00146178 0 0)
(0.00146338 0 0)
(0.00146487 0 0)
(0.00146651 0 0)
(0.00146823 0 0)
(0.00146993 0 0)
(0.00147178 0 0)
(0.00147379 0 0)
(0.00147588 0 0)
(0.00147806 0 0)
(0.0014803 0 0)
(0.00148266 0 0)
(0.00148514 0 0)
(0.00148767 0 0)
(0.00149031 0 0)
(0.00149312 0 0)
(0.00149593 0 0)
(0.00149867 0 0)
(0.00150182 0 0)
(0.00150516 0 0)
(0.00150834 0 0)
(0.00151165 0 0)
(0.00151516 0 0)
(0.00151869 0 0)
(0.00152205 0 0)
(0.00152592 0 0)
(0.00153001 0 0)
(0.00153388 0 0)
(0.00153783 0 0)
(0.00154197 0 0)
(0.00154625 0 0)
(0.00155057 0 0)
(0.00155508 0 0)
(0.00155962 0 0)
(0.00156414 0 0)
(0.00156879 0 0)
(0.00157341 0 0)
(0.00157825 0 0)
(0.00158335 0 0)
(0.00158843 0 0)
(0.00159352 0 0)
(0.00159853 0 0)
(0.00160374 0 0)
(0.00160911 0 0)
(0.00161443 0 0)
(0.00161986 0 0)
(0.00162581 0 0)
(0.00163163 0 0)
(0.0016371 0 0)
(0.00164281 0 0)
(0.00164859 0 0)
(0.00165438 0 0)
(0.00166075 0 0)
(0.00166709 0 0)
(0.00167294 0 0)
(0.00167899 0 0)
(0.00168491 0 0)
(0.00169148 0 0)
(0.0016982 0 0)
(0.00170447 0 0)
(0.00171092 0 0)
(0.00171733 0 0)
(0.00172368 0 0)
(0.00173059 0 0)
(0.00173741 0 0)
(0.00174437 0 0)
(0.00175147 0 0)
(0.00175813 0 0)
(0.001765 0 0)
(0.00177202 0 0)
(0.00177907 0 0)
(0.00178572 0 0)
(0.00179307 0 0)
(0.00180073 0 0)
(0.00180792 0 0)
(0.00181494 0 0)
(0.00182163 0 0)
(0.00182902 0 0)
(0.00183674 0 0)
(0.00184396 0 0)
(0.00185117 0 0)
(0.00185869 0 0)
(0.00186599 0 0)
(0.00187282 0 0)
(0.00188087 0 0)
(0.00188893 0 0)
(0.00189607 0 0)
(0.00190364 0 0)
(0.00191125 0 0)
(0.00191876 0 0)
(0.00192649 0 0)
(0.00193414 0 0)
(0.00194144 0 0)
(0.00194895 0 0)
(0.0019565 0 0)
(0.00196427 0 0)
(0.00197206 0 0)
(0.00197956 0 0)
(0.0019869 0 0)
(0.00199459 0 0)
(0.00200228 0 0)
(0.00200938 0 0)
(0.00201679 0 0)
(0.00202431 -7.34539e-07 1.86093e-21)
(0.00202419 -1.35389e-06 8.13638e-22)
(0.00202395 -2.01195e-06 -2.61518e-21)
(0.00202359 -2.77442e-06 1.97786e-21)
(0.00202317 -3.46814e-06 6.21207e-21)
(0.00202264 -4.17672e-06 3.77732e-21)
(0.00202203 -4.90845e-06 1.8457e-21)
(0.00202129 -5.68761e-06 1.89787e-21)
(0.00202049 -6.47349e-06 2.10756e-21)
(0.00201955 -7.30193e-06 -4.60865e-23)
(0.00201864 -8.04372e-06 -2.15345e-21)
(0.00201761 -8.8578e-06 -1.21738e-21)
(0.00201633 -9.83239e-06 -1.6812e-21)
(0.00201508 -1.07523e-05 -3.28903e-21)
(0.00201375 -1.16953e-05 -2.74193e-21)
(0.00201232 -1.26802e-05 -1.95155e-21)
(0.00201083 -1.37032e-05 -8.71853e-22)
(0.0020093 -1.47323e-05 -2.58041e-22)
(0.00200761 -1.58689e-05 -2.58041e-22)
(0.00200575 -1.71156e-05 -2.53983e-22)
(0.00200397 -1.83098e-05 1.04782e-21)
(0.00200221 -1.94834e-05 1.6291e-22)
(0.00200019 -2.08149e-05 -2.66831e-22)
(0.00199817 -2.21834e-05 1.19565e-21)
(0.00199627 -2.34837e-05 3.23582e-22)
(0.00199406 -2.49864e-05 7.05807e-22)
(0.00199176 -2.65767e-05 -1.01402e-21)
(0.0019896 -2.81012e-05 -8.91023e-22)
(0.00198746 -2.96274e-05 -4.22997e-22)
(0.00198495 -3.14249e-05 -5.87684e-22)
(0.00198241 -3.33018e-05 1.16544e-21)
(0.00198012 -3.50085e-05 9.03438e-22)
(0.00197744 -3.70548e-05 1.98061e-21)
(0.00197481 -3.9111e-05 2.26098e-21)
(0.00197245 -4.09759e-05 1.39845e-22)
(0.00196999 -4.2967e-05 -5.48225e-22)
(0.00196746 -4.50541e-05 1.5199e-22)
(0.00196489 -4.72304e-05 1.26925e-21)
(0.00196209 -4.96405e-05 1.79617e-21)
(0.00195936 -5.20481e-05 6.84497e-22)
(0.00195655 -5.45808e-05 -8.2989e-22)
(0.00195403 -5.68517e-05 -8.2989e-22)
(0.00195152 -5.92326e-05 -1.32187e-21)
(0.00194874 -6.1942e-05 1.11313e-21)
(0.00194597 -6.46951e-05 2.59173e-21)
(0.00194312 -6.7608e-05 1.5673e-22)
(0.00194054 -7.0288e-05 1.1846e-21)
(0.00193786 -7.31474e-05 -2.40672e-23)
(0.00193514 -7.61357e-05 -1.26765e-21)
(0.00193245 -7.91596e-05 2.38977e-21)
(0.00192982 -8.21993e-05 2.44876e-21)
(0.00192715 -8.53812e-05 -1.72308e-22)
(0.00192454 -8.85617e-05 -8.69779e-22)
(0.00192182 -9.19741e-05 -1.3855e-21)
(0.00191917 -9.53964e-05 -1.13407e-21)
(0.00191686 -9.84589e-05 -2.14016e-21)
(0.00191457 -0.00010157 -2.54928e-21)
(0.00191209 -0.000105071 -3.21478e-22)
(0.00190965 -0.000108575 1.56421e-21)
(0.00190729 -0.000112066 1.03053e-21)
(0.00190472 -0.000115994 -1.62496e-21)
(0.00190237 -0.000119698 -3.15794e-21)
(0.00190024 -0.000123141 -8.40071e-22)
(0.00189812 -0.000126656 6.92913e-22)
(0.00189599 -0.000130289 -3.43521e-22)
(0.00189389 -0.000133967 -2.69231e-24)
(0.00189184 -0.000137666 2.57359e-21)
(0.0018896 -0.000141825 1.28396e-21)
(0.00188772 -0.000145365 1.7164e-21)
(0.00188593 -0.000148832 4.28972e-21)
(0.0018839 -0.000152868 1.62452e-21)
(0.00188207 -0.000156562 0)
(0.00188022 -0.000160342 3.41722e-22)
(0.00187841 -0.000164115 1.42695e-21)
(0.00187664 -0.00016785 -7.1851e-22)
(0.00187491 -0.00017152 -3.70446e-21)
(0.00187297 -0.000175637 -1.68649e-21)
(0.00187131 -0.000179192 -8.82636e-22)
(0.00186972 -0.000182554 -1.09687e-21)
(0.00185894 -0.000188351 -1.52858e-23)
(0.00185028 -0.000190112 -1.24089e-21)
(0.00184204 -0.00019179 -3.77557e-22)
(0.00183315 -0.0001936 9.17603e-23)
(0.00182431 -0.000195391 -1.17672e-21)
(0.0018159 -0.000197078 -8.70906e-22)
(0.00180733 -0.000198777 -3.1607e-22)
(0.00179846 -0.00020051 0)
(0.00178961 -0.000202202 -7.19372e-23)
(0.00178111 -0.000203793 -5.93872e-22)
(0.00177255 -0.000205354 -8.49276e-22)
(0.00176426 -0.000206827 -2.03219e-22)
(0.00175566 -0.000208313 1.11149e-21)
(0.00174671 -0.000209808 6.47919e-22)
(0.00173795 -0.000211224 -4.19603e-22)
(0.00172913 -0.0002126 -4.62165e-22)
(0.00172037 -0.00021391 -7.66731e-22)
(0.00171218 -0.00021509 -6.68443e-22)
(0.00170274 -0.000216401 -2.4124e-22)
(0.00169327 -0.000217665 8.64842e-22)
(0.00168511 -0.000218702 3.94358e-22)
(0.00167621 -0.000219788 -9.84833e-22)
(0.00166715 -0.000220842 -8.8782e-22)
(0.00165835 -0.000221819 8.14647e-23)
(0.00164947 -0.000222763 7.34641e-22)
(0.00163984 -0.000223737 -4.10185e-22)
(0.00163054 -0.000224646 -5.17937e-22)
(0.00162174 -0.000225457 -8.6808e-22)
(0.00161272 -0.000226247 -1.08251e-21)
(0.00160366 -0.000227015 -2.73659e-22)
(0.00159355 -0.000227841 -6.96184e-22)
(0.00158376 -0.000228607 -7.15706e-22)
(0.00157479 -0.000229272 7.54124e-22)
(0.00156513 -0.00022996 1.29089e-21)
(0.00155536 -0.000230633 -1.5771e-22)
(0.00154564 -0.000231281 -1.05602e-21)
(0.00153603 -0.000231906 8.61675e-22)
(0.00152568 -0.000232567 2.14466e-21)
(0.00151541 -0.000233203 -9.12427e-23)
(0.00150512 -0.000233828 -1.98684e-22)
(0.00149456 -0.00023447 7.06324e-22)
(0.00148465 -0.00023507 3.37462e-22)
(0.00147441 -0.00023568 -1.8142e-22)
(0.00146428 -0.000236278 -3.79115e-23)
(0.00145421 -0.000236883 1.03489e-21)
(0.00144304 -0.000237571 1.94813e-21)
(0.00143142 -0.000238306 1.04763e-21)
(0.00142074 -0.000238985 1.03747e-21)
(0.00141037 -0.000239654 4.73323e-22)
(0.0013992 -0.000240399 2.69673e-22)
(0.00138808 -0.000241165 2.43288e-21)
(0.00137783 -0.000241898 8.87083e-22)
(0.00136578 -0.000242801 -7.60592e-22)
(0.00135352 -0.000243755 -3.25694e-22)
(0.001342 -0.000244695 -4.71886e-22)
(0.00133035 -0.000245676 -3.55881e-22)
(0.00131924 -0.00024665 -2.57139e-22)
(0.00130771 -0.000247714 7.52345e-22)
(0.00129588 -0.000248856 8.4317e-22)
(0.00128299 -0.000250172 -1.66314e-22)
(0.00127057 -0.000251499 0)
(0.00125785 -0.000252933 -6.83915e-22)
(0.00124506 -0.000254431 3.89747e-22)
(0.00123207 -0.000256034 1.94512e-21)
(0.00121892 -0.000257735 9.81239e-22)
(0.00120683 -0.000259381 7.3647e-22)
(0.00119426 -0.000261172 1.31662e-21)
(0.00118202 -0.000262985 2.2501e-21)
(0.00116803 -0.00026517 7.64762e-22)
(0.00115396 -0.000267471 -3.75095e-22)
(0.0011415 -0.000269606 2.06644e-21)
(0.00112846 -0.000271932 9.91649e-22)
(0.00111372 -0.000274692 1.53348e-22)
(0.00109939 -0.000277492 1.80497e-21)
(0.00108505 -0.000280437 1.28739e-21)
(0.00107226 -0.000283104 5.77249e-22)
(0.00105917 -0.000285977 2.87004e-22)
(0.00104419 -0.000289443 -4.30839e-22)
(0.00102947 -0.000292993 -4.48858e-22)
(0.00101429 -0.000296778 -8.51978e-23)
(0.000999951 -0.000300513 2.06374e-21)
(0.00098504 -0.000304533 5.02441e-21)
(0.000969704 -0.000308836 3.13623e-21)
(0.000954944 -0.000313142 1.73186e-22)
(0.000940587 -0.000317484 -2.56619e-22)
(0.000925743 -0.000322151 1.0115e-21)
(0.000910386 -0.000327154 1.96578e-21)
(0.000893771 -0.000332753 4.14623e-21)
(0.000877597 -0.000338412 4.49339e-21)
(0.000862837 -0.000343762 2.10368e-21)
(0.00084811 -0.000349262 2.20775e-21)
(0.00083295 -0.000355119 -1.79895e-21)
(0.000817124 -0.000361434 -2.88976e-21)
(0.000801349 -0.000367921 -1.03766e-21)
(0.000786101 -0.000374406 3.4829e-22)
(0.000769207 -0.000381836 1.45688e-22)
(0.000752535 -0.000389389 -1.42033e-22)
(0.000736321 -0.000396994 6.94258e-22)
(0.0007204 -0.000404652 2.4928e-21)
(0.000704669 -0.000412509 1.52315e-21)
(0.000688203 -0.000420968 1.52484e-22)
(0.000672783 -0.000429121 2.10855e-21)
(0.000656705 -0.000437851 1.50486e-21)
(0.00064016 -0.00044709 2.34988e-21)
(0.000624016 -0.000456366 6.1642e-22)
(0.000607811 -0.000465961 6.66713e-22)
(0.000591655 -0.000475825 2.20363e-21)
(0.000575983 -0.000485617 3.13973e-21)
(0.000560115 -0.000495819 2.44403e-21)
(0.000544325 -0.000506256 2.17168e-21)
(0.000528539 -0.000516946 2.01388e-21)
(0.00051304 -0.000527739 1.19882e-21)
(0.000497017 -0.000539159 3.42692e-21)
(0.000481255 -0.000550678 -1.00892e-21)
(0.000465012 -0.000562914 -3.23703e-21)
(0.000448951 -0.000575305 6.05985e-22)
(0.000432982 -0.000587922 2.3777e-21)
(0.000418978 -0.000599257 1.9874e-21)
(0.000405548 -0.00061051 -1.59199e-21)
(0.000390459 -0.000623266 1.45927e-21)
(0.000375563 -0.000636216 3.26693e-21)
(0.000359992 -0.000649994 7.5623e-22)
(0.000346265 -0.000662532 -1.30823e-21)
(0.000332879 -0.000675063 -2.94089e-21)
(0.000318977 -0.000688202 -8.7643e-22)
(0.00030543 -0.000701347 3.54687e-21)
(0.000292052 -0.000714595 -7.97668e-22)
(0.000279095 -0.000727688 -6.01248e-21)
(0.000266462 -0.000740708 9.7276e-22)
(0.000253635 -0.000754117 1.79903e-21)
(0.00024152 -0.000767042 -3.05205e-21)
(0.000229925 -0.000779535 -5.33e-21)
(0.000217926 -0.000792713 -1.89665e-22)
(0.000206517 -0.000805494 4.51612e-22)
(0.000196027 -0.000817326 3.51368e-21)
(0.000185437 -0.000829414 4.54976e-21)
(0.000174984 -0.000841446 -2.34958e-21)
(0.000163914 -0.000854359 -2.46765e-21)
(0.000153169 -0.000866856 -2.97329e-21)
(0.000144122 -0.000877452 -1.41296e-21)
(0.00013517 -0.000888062 1.08454e-21)
(0.000125905 -0.000898835 3.58817e-21)
(0.00011724 -0.000908949 3.27285e-21)
(0.000108957 -0.000918502 -7.53903e-22)
(0.000100807 -0.000927682 -2.08702e-21)
(9.30831e-05 -0.000936224 6.33569e-22)
(8.53303e-05 -0.000944601 2.07054e-21)
(7.76282e-05 -0.000952707 -6.77788e-22)
(7.0401e-05 -0.000959997 9.43108e-22)
(6.33261e-05 -0.000966802 2.49398e-21)
(5.60794e-05 -0.000973341 0)
(4.94427e-05 -0.000978861 5.19489e-22)
(4.32752e-05 -0.000983481 -3.7116e-22)
(3.68541e-05 -0.00098778 -6.84683e-22)
(3.04027e-05 -0.000991554 5.24462e-22)
(2.41321e-05 -0.00099462 2.84755e-22)
(1.81215e-05 -0.000996977 8.26083e-22)
(1.22021e-05 -0.000998674 1.35076e-21)
(6.44255e-06 -0.00099969 1.67755e-21)
(0 -0.000997027 0)
(0 -0.000994494 0)
(0 -0.000991464 0)
(0 -0.000987811 0)
(0 -0.000984352 0)
(0 -0.000980674 0)
(0 -0.000976826 0)
(0 -0.000973001 0)
(0 -0.000968796 0)
(0 -0.000964627 0)
(0 -0.000960818 0)
(0 -0.000956648 0)
(0 -0.00095231 0)
(0 -0.000948009 0)
(0 -0.000943642 0)
(0 -0.000939162 0)
(0 -0.000934832 0)
(0 -0.000930546 0)
(0 -0.000926186 0)
(0 -0.000921495 0)
(0 -0.000916751 0)
(0 -0.000912377 0)
(0 -0.000907746 0)
(0 -0.000902777 0)
(0 -0.000898009 0)
(0 -0.000893224 0)
(0 -0.000887969 0)
(0 -0.000882464 0)
(0 -0.00087678 0)
(0 -0.000870849 0)
(0 -0.000864435 0)
(0 -0.000857561 0)
(0 -0.000850484 0)
(0 -0.000842191 0)
(0 -0.000832997 0)
(0 -0.00082354 0)
(0 -0.000812776 0)
(0 -0.000800808 0)
(0 -0.000788026 0)
(3.95509e-05 -0.000771397 2.36452e-21)
(7.49983e-05 -0.000770496 -7.04853e-22)
(0.000112615 -0.000768481 -3.03356e-22)
(0.000150772 -0.000765379 2.65862e-21)
(0.000188417 -0.000761851 3.90544e-21)
(0.000225824 -0.000757413 3.63517e-21)
(0.000262648 -0.000752322 -8.89337e-23)
(0.000299694 -0.000746431 -2.07579e-21)
(0.000336782 -0.000739687 0)
(0.000373539 -0.00073233 -3.04591e-21)
(0.000409251 -0.000724372 -1.62095e-21)
(0.000443062 -0.000716229 -6.03104e-21)
(0.000478436 -0.000707121 -5.04405e-21)
(0.00051388 -0.000697074 2.32136e-21)
(0.000550192 -0.00068623 2.13581e-21)
(0.000584841 -0.000675239 -7.27646e-22)
(0.000615772 -0.000664576 2.98829e-21)
(0.00064848 -0.000652872 5.94233e-21)
(0.000681432 -0.000640482 -1.65434e-21)
(0.000714037 -0.000627765 -5.31679e-21)
(0.000744911 -0.000615004 -1.96639e-21)
(0.000774257 -0.000602377 5.07989e-21)
(0.000803542 -0.00058916 -1.66558e-21)
(0.000833825 -0.000574891 -3.32956e-21)
(0.000862725 -0.000561699 -4.41967e-21)
(0.000889602 -0.000548259 -8.02453e-21)
(0.000916597 -0.000533907 -1.88502e-21)
(0.000944247 -0.000519201 -1.22518e-21)
(0.000971222 -0.000504031 -8.3932e-22)
(0.000995892 -0.000489833 4.84044e-21)
(0.00102147 -0.00047474 4.89174e-22)
(0.00104603 -0.000459428 -3.81638e-21)
(0.00106841 -0.000445027 7.63736e-21)
(0.00109034 -0.00043059 5.19702e-21)
(0.00111115 -0.000416499 -2.29132e-21)
(0.00113342 -0.000400704 -5.747e-25)
(0.00115511 -0.000384649 -2.40489e-21)
(0.00117428 -0.000370327 -2.62129e-21)
(0.00119247 -0.000355666 1.94314e-21)
(0.00121028 -0.000340734 3.06374e-21)
(0.00122781 -0.000325963 3.97614e-22)
(0.00124503 -0.000310338 -4.41268e-21)
(0.0012612 -0.000295381 -5.44896e-22)
(0.00127605 -0.000280907 5.30085e-21)
(0.0012908 -0.000265596 1.93908e-21)
(0.00130442 -0.000250799 1.89176e-24)
(0.00131683 -0.000236562 -1.68264e-21)
(0.00132934 -0.000221031 -4.08062e-21)
(0.00134161 -0.000204749 -2.72436e-21)
(0.00135246 -0.000189732 1.10442e-21)
(0.00136186 -0.000175559 2.01848e-21)
(0.00137035 -0.000161695 -1.99308e-21)
(0.00137842 -0.000147473 -2.57887e-21)
(0.00138612 -0.00013199 2.72603e-22)
(0.00139308 -0.000116626 2.74201e-22)
(0.00139889 -0.000102524 5.9565e-22)
(0.00140413 -8.72146e-05 8.84907e-22)
(0.00140835 -7.26238e-05 -1.44821e-21)
(0.00141165 -5.88079e-05 -1.69432e-21)
(0.00141433 -4.45067e-05 3.57534e-21)
(0.0014163 -3.00458e-05 3.16169e-21)
(0.00141753 -1.55075e-05 -5.75848e-22)
(0.00142413 0 0)
(0.00142859 0 0)
(0.00143298 0 0)
(0.00143686 0 0)
(0.00143979 0 0)
(0.00144251 0 0)
(0.00144507 0 0)
(0.00144734 0 0)
(0.00144925 0 0)
(0.00145096 0 0)
(0.00145259 0 0)
(0.00145421 0 0)
(0.00145573 0 0)
(0.00145714 0 0)
(0.00145866 0 0)
(0.00146021 0 0)
(0.00146178 0 0)
(0.00146338 0 0)
(0.00146487 0 0)
(0.00146651 0 0)
(0.00146823 0 0)
(0.00146993 0 0)
(0.00147178 0 0)
(0.00147379 0 0)
(0.00147588 0 0)
(0.00147806 0 0)
(0.0014803 0 0)
(0.00148266 0 0)
(0.00148514 0 0)
(0.00148767 0 0)
(0.00149031 0 0)
(0.00149312 0 0)
(0.00149593 0 0)
(0.00149867 0 0)
(0.00150182 0 0)
(0.00150516 0 0)
(0.00150834 0 0)
(0.00151165 0 0)
(0.00151516 0 0)
(0.00151869 0 0)
(0.00152205 0 0)
(0.00152592 0 0)
(0.00153001 0 0)
(0.00153388 0 0)
(0.00153783 0 0)
(0.00154197 0 0)
(0.00154625 0 0)
(0.00155057 0 0)
(0.00155508 0 0)
(0.00155962 0 0)
(0.00156414 0 0)
(0.00156879 0 0)
(0.00157341 0 0)
(0.00157825 0 0)
(0.00158335 0 0)
(0.00158843 0 0)
(0.00159352 0 0)
(0.00159853 0 0)
(0.00160374 0 0)
(0.00160911 0 0)
(0.00161443 0 0)
(0.00161986 0 0)
(0.00162581 0 0)
(0.00163163 0 0)
(0.0016371 0 0)
(0.00164281 0 0)
(0.00164859 0 0)
(0.00165438 0 0)
(0.00166075 0 0)
(0.00166709 0 0)
(0.00167294 0 0)
(0.00167899 0 0)
(0.00168491 0 0)
(0.00169148 0 0)
(0.0016982 0 0)
(0.00170447 0 0)
(0.00171092 0 0)
(0.00171733 0 0)
(0.00172368 0 0)
(0.00173059 0 0)
(0.00173741 0 0)
(0.00174437 0 0)
(0.00175147 0 0)
(0.00175813 0 0)
(0.001765 0 0)
(0.00177202 0 0)
(0.00177907 0 0)
(0.00178572 0 0)
(0.00179307 0 0)
(0.00180073 0 0)
(0.00180792 0 0)
(0.00181494 0 0)
(0.00182163 0 0)
(0.00182902 0 0)
(0.00183674 0 0)
(0.00184396 0 0)
(0.00185117 0 0)
(0.00185869 0 0)
(0.00186599 0 0)
(0.00187282 0 0)
(0.00188087 0 0)
(0.00188893 0 0)
(0.00189607 0 0)
(0.00190364 0 0)
(0.00191125 0 0)
(0.00191876 0 0)
(0.00192649 0 0)
(0.00193414 0 0)
(0.00194144 0 0)
(0.00194895 0 0)
(0.0019565 0 0)
(0.00196427 0 0)
(0.00197206 0 0)
(0.00197956 0 0)
(0.0019869 0 0)
(0.00199459 0 0)
(0.00200228 0 0)
(0.00200938 0 0)
(0.00201679 0 0)
(0.00202431 -7.34539e-07 1.86093e-21)
(0.00202419 -1.35389e-06 8.13638e-22)
(0.00202395 -2.01195e-06 -2.61518e-21)
(0.00202359 -2.77442e-06 1.97786e-21)
(0.00202317 -3.46814e-06 6.21207e-21)
(0.00202264 -4.17672e-06 3.77732e-21)
(0.00202203 -4.90845e-06 1.8457e-21)
(0.00202129 -5.68761e-06 1.89787e-21)
(0.00202049 -6.47349e-06 2.10756e-21)
(0.00201955 -7.30193e-06 -4.60865e-23)
(0.00201864 -8.04372e-06 -2.15345e-21)
(0.00201761 -8.8578e-06 -1.21738e-21)
(0.00201633 -9.83239e-06 -1.6812e-21)
(0.00201508 -1.07523e-05 -3.28903e-21)
(0.00201375 -1.16953e-05 -2.74193e-21)
(0.00201232 -1.26802e-05 -1.95155e-21)
(0.00201083 -1.37032e-05 -8.71853e-22)
(0.0020093 -1.47323e-05 -2.58041e-22)
(0.00200761 -1.58689e-05 -2.58041e-22)
(0.00200575 -1.71156e-05 -2.53983e-22)
(0.00200397 -1.83098e-05 1.04782e-21)
(0.00200221 -1.94834e-05 1.6291e-22)
(0.00200019 -2.08149e-05 -2.66831e-22)
(0.00199817 -2.21834e-05 1.19565e-21)
(0.00199627 -2.34837e-05 3.23582e-22)
(0.00199406 -2.49864e-05 7.05807e-22)
(0.00199176 -2.65767e-05 -1.01402e-21)
(0.0019896 -2.81012e-05 -8.91023e-22)
(0.00198746 -2.96274e-05 -4.22997e-22)
(0.00198495 -3.14249e-05 -5.87684e-22)
(0.00198241 -3.33018e-05 1.16544e-21)
(0.00198012 -3.50085e-05 9.03438e-22)
(0.00197744 -3.70548e-05 1.98061e-21)
(0.00197481 -3.9111e-05 2.26098e-21)
(0.00197245 -4.09759e-05 1.39845e-22)
(0.00196999 -4.2967e-05 -5.48225e-22)
(0.00196746 -4.50541e-05 1.5199e-22)
(0.00196489 -4.72304e-05 1.26925e-21)
(0.00196209 -4.96405e-05 1.79617e-21)
(0.00195936 -5.20481e-05 6.84497e-22)
(0.00195655 -5.45808e-05 -8.2989e-22)
(0.00195403 -5.68517e-05 -8.2989e-22)
(0.00195152 -5.92326e-05 -1.32187e-21)
(0.00194874 -6.1942e-05 1.11313e-21)
(0.00194597 -6.46951e-05 2.59173e-21)
(0.00194312 -6.7608e-05 1.5673e-22)
(0.00194054 -7.0288e-05 1.1846e-21)
(0.00193786 -7.31474e-05 -2.40672e-23)
(0.00193514 -7.61357e-05 -1.26765e-21)
(0.00193245 -7.91596e-05 2.38977e-21)
(0.00192982 -8.21993e-05 2.44876e-21)
(0.00192715 -8.53812e-05 -1.72308e-22)
(0.00192454 -8.85617e-05 -8.69779e-22)
(0.00192182 -9.19741e-05 -1.3855e-21)
(0.00191917 -9.53964e-05 -1.13407e-21)
(0.00191686 -9.84589e-05 -2.14016e-21)
(0.00191457 -0.00010157 -2.54928e-21)
(0.00191209 -0.000105071 -3.21478e-22)
(0.00190965 -0.000108575 1.56421e-21)
(0.00190729 -0.000112066 1.03053e-21)
(0.00190472 -0.000115994 -1.62496e-21)
(0.00190237 -0.000119698 -3.15794e-21)
(0.00190024 -0.000123141 -8.40071e-22)
(0.00189812 -0.000126656 6.92913e-22)
(0.00189599 -0.000130289 -3.43521e-22)
(0.00189389 -0.000133967 -2.69231e-24)
(0.00189184 -0.000137666 2.57359e-21)
(0.0018896 -0.000141825 1.28396e-21)
(0.00188772 -0.000145365 1.7164e-21)
(0.00188593 -0.000148832 4.28972e-21)
(0.0018839 -0.000152868 1.62452e-21)
(0.00188207 -0.000156562 0)
(0.00188022 -0.000160342 3.41722e-22)
(0.00187841 -0.000164115 1.42695e-21)
(0.00187664 -0.00016785 -7.1851e-22)
(0.00187491 -0.00017152 -3.70446e-21)
(0.00187297 -0.000175637 -1.68649e-21)
(0.00187131 -0.000179192 -8.82636e-22)
(0.00186972 -0.000182554 -1.09687e-21)
(0.00185894 -0.000188351 -1.52858e-23)
(0.00185028 -0.000190112 -1.24089e-21)
(0.00184204 -0.00019179 -3.77557e-22)
(0.00183315 -0.0001936 9.17603e-23)
(0.00182431 -0.000195391 -1.17672e-21)
(0.0018159 -0.000197078 -8.70906e-22)
(0.00180733 -0.000198777 -3.1607e-22)
(0.00179846 -0.00020051 0)
(0.00178961 -0.000202202 -7.19372e-23)
(0.00178111 -0.000203793 -5.93872e-22)
(0.00177255 -0.000205354 -8.49276e-22)
(0.00176426 -0.000206827 -2.03219e-22)
(0.00175566 -0.000208313 1.11149e-21)
(0.00174671 -0.000209808 6.47919e-22)
(0.00173795 -0.000211224 -4.19603e-22)
(0.00172913 -0.0002126 -4.62165e-22)
(0.00172037 -0.00021391 -7.66731e-22)
(0.00171218 -0.00021509 -6.68443e-22)
(0.00170274 -0.000216401 -2.4124e-22)
(0.00169327 -0.000217665 8.64842e-22)
(0.00168511 -0.000218702 3.94358e-22)
(0.00167621 -0.000219788 -9.84833e-22)
(0.00166715 -0.000220842 -8.8782e-22)
(0.00165835 -0.000221819 8.14647e-23)
(0.00164947 -0.000222763 7.34641e-22)
(0.00163984 -0.000223737 -4.10185e-22)
(0.00163054 -0.000224646 -5.17937e-22)
(0.00162174 -0.000225457 -8.6808e-22)
(0.00161272 -0.000226247 -1.08251e-21)
(0.00160366 -0.000227015 -2.73659e-22)
(0.00159355 -0.000227841 -6.96184e-22)
(0.00158376 -0.000228607 -7.15706e-22)
(0.00157479 -0.000229272 7.54124e-22)
(0.00156513 -0.00022996 1.29089e-21)
(0.00155536 -0.000230633 -1.5771e-22)
(0.00154564 -0.000231281 -1.05602e-21)
(0.00153603 -0.000231906 8.61675e-22)
(0.00152568 -0.000232567 2.14466e-21)
(0.00151541 -0.000233203 -9.12427e-23)
(0.00150512 -0.000233828 -1.98684e-22)
(0.00149456 -0.00023447 7.06324e-22)
(0.00148465 -0.00023507 3.37462e-22)
(0.00147441 -0.00023568 -1.8142e-22)
(0.00146428 -0.000236278 -3.79115e-23)
(0.00145421 -0.000236883 1.03489e-21)
(0.00144304 -0.000237571 1.94813e-21)
(0.00143142 -0.000238306 1.04763e-21)
(0.00142074 -0.000238985 1.03747e-21)
(0.00141037 -0.000239654 4.73323e-22)
(0.0013992 -0.000240399 2.69673e-22)
(0.00138808 -0.000241165 2.43288e-21)
(0.00137783 -0.000241898 8.87083e-22)
(0.00136578 -0.000242801 -7.60592e-22)
(0.00135352 -0.000243755 -3.25694e-22)
(0.001342 -0.000244695 -4.71886e-22)
(0.00133035 -0.000245676 -3.55881e-22)
(0.00131924 -0.00024665 -2.57139e-22)
(0.00130771 -0.000247714 7.52345e-22)
(0.00129588 -0.000248856 8.4317e-22)
(0.00128299 -0.000250172 -1.66314e-22)
(0.00127057 -0.000251499 0)
(0.00125785 -0.000252933 -6.83915e-22)
(0.00124506 -0.000254431 3.89747e-22)
(0.00123207 -0.000256034 1.94512e-21)
(0.00121892 -0.000257735 9.81239e-22)
(0.00120683 -0.000259381 7.3647e-22)
(0.00119426 -0.000261172 1.31662e-21)
(0.00118202 -0.000262985 2.2501e-21)
(0.00116803 -0.00026517 7.64762e-22)
(0.00115396 -0.000267471 -3.75095e-22)
(0.0011415 -0.000269606 2.06644e-21)
(0.00112846 -0.000271932 9.91649e-22)
(0.00111372 -0.000274692 1.53348e-22)
(0.00109939 -0.000277492 1.80497e-21)
(0.00108505 -0.000280437 1.28739e-21)
(0.00107226 -0.000283104 5.77249e-22)
(0.00105917 -0.000285977 2.87004e-22)
(0.00104419 -0.000289443 -4.30839e-22)
(0.00102947 -0.000292993 -4.48858e-22)
(0.00101429 -0.000296778 -8.51978e-23)
(0.000999951 -0.000300513 2.06374e-21)
(0.00098504 -0.000304533 5.02441e-21)
(0.000969704 -0.000308836 3.13623e-21)
(0.000954944 -0.000313142 1.73186e-22)
(0.000940587 -0.000317484 -2.56619e-22)
(0.000925743 -0.000322151 1.0115e-21)
(0.000910386 -0.000327154 1.96578e-21)
(0.000893771 -0.000332753 4.14623e-21)
(0.000877597 -0.000338412 4.49339e-21)
(0.000862837 -0.000343762 2.10368e-21)
(0.00084811 -0.000349262 2.20775e-21)
(0.00083295 -0.000355119 -1.79895e-21)
(0.000817124 -0.000361434 -2.88976e-21)
(0.000801349 -0.000367921 -1.03766e-21)
(0.000786101 -0.000374406 3.4829e-22)
(0.000769207 -0.000381836 1.45688e-22)
(0.000752535 -0.000389389 -1.42033e-22)
(0.000736321 -0.000396994 6.94258e-22)
(0.0007204 -0.000404652 2.4928e-21)
(0.000704669 -0.000412509 1.52315e-21)
(0.000688203 -0.000420968 1.52484e-22)
(0.000672783 -0.000429121 2.10855e-21)
(0.000656705 -0.000437851 1.50486e-21)
(0.00064016 -0.00044709 2.34988e-21)
(0.000624016 -0.000456366 6.1642e-22)
(0.000607811 -0.000465961 6.66713e-22)
(0.000591655 -0.000475825 2.20363e-21)
(0.000575983 -0.000485617 3.13973e-21)
(0.000560115 -0.000495819 2.44403e-21)
(0.000544325 -0.000506256 2.17168e-21)
(0.000528539 -0.000516946 2.01388e-21)
(0.00051304 -0.000527739 1.19882e-21)
(0.000497017 -0.000539159 3.42692e-21)
(0.000481255 -0.000550678 -1.00892e-21)
(0.000465012 -0.000562914 -3.23703e-21)
(0.000448951 -0.000575305 6.05985e-22)
(0.000432982 -0.000587922 2.3777e-21)
(0.000418978 -0.000599257 1.9874e-21)
(0.000405548 -0.00061051 -1.59199e-21)
(0.000390459 -0.000623266 1.45927e-21)
(0.000375563 -0.000636216 3.26693e-21)
(0.000359992 -0.000649994 7.5623e-22)
(0.000346265 -0.000662532 -1.30823e-21)
(0.000332879 -0.000675063 -2.94089e-21)
(0.000318977 -0.000688202 -8.7643e-22)
(0.00030543 -0.000701347 3.54687e-21)
(0.000292052 -0.000714595 -7.97668e-22)
(0.000279095 -0.000727688 -6.01248e-21)
(0.000266462 -0.000740708 9.7276e-22)
(0.000253635 -0.000754117 1.79903e-21)
(0.00024152 -0.000767042 -3.05205e-21)
(0.000229925 -0.000779535 -5.33e-21)
(0.000217926 -0.000792713 -1.89665e-22)
(0.000206517 -0.000805494 4.51612e-22)
(0.000196027 -0.000817326 3.51368e-21)
(0.000185437 -0.000829414 4.54976e-21)
(0.000174984 -0.000841446 -2.34958e-21)
(0.000163914 -0.000854359 -2.46765e-21)
(0.000153169 -0.000866856 -2.97329e-21)
(0.000144122 -0.000877452 -1.41296e-21)
(0.00013517 -0.000888062 1.08454e-21)
(0.000125905 -0.000898835 3.58817e-21)
(0.00011724 -0.000908949 3.27285e-21)
(0.000108957 -0.000918502 -7.53903e-22)
(0.000100807 -0.000927682 -2.08702e-21)
(9.30831e-05 -0.000936224 6.33569e-22)
(8.53303e-05 -0.000944601 2.07054e-21)
(7.76282e-05 -0.000952707 -6.77788e-22)
(7.0401e-05 -0.000959997 9.43108e-22)
(6.33261e-05 -0.000966802 2.49398e-21)
(5.60794e-05 -0.000973341 0)
(4.94427e-05 -0.000978861 5.19489e-22)
(4.32752e-05 -0.000983481 -3.7116e-22)
(3.68541e-05 -0.00098778 -6.84683e-22)
(3.04027e-05 -0.000991554 5.24462e-22)
(2.41321e-05 -0.00099462 2.84755e-22)
(1.81215e-05 -0.000996977 8.26083e-22)
(1.22021e-05 -0.000998674 1.35076e-21)
(6.44255e-06 -0.00099969 1.67755e-21)
(0 -0.000997027 0)
(0 -0.000994494 0)
(0 -0.000991464 0)
(0 -0.000987811 0)
(0 -0.000984352 0)
(0 -0.000980674 0)
(0 -0.000976826 0)
(0 -0.000973001 0)
(0 -0.000968796 0)
(0 -0.000964627 0)
(0 -0.000960818 0)
(0 -0.000956648 0)
(0 -0.00095231 0)
(0 -0.000948009 0)
(0 -0.000943642 0)
(0 -0.000939162 0)
(0 -0.000934832 0)
(0 -0.000930546 0)
(0 -0.000926186 0)
(0 -0.000921495 0)
(0 -0.000916751 0)
(0 -0.000912377 0)
(0 -0.000907746 0)
(0 -0.000902777 0)
(0 -0.000898009 0)
(0 -0.000893224 0)
(0 -0.000887969 0)
(0 -0.000882464 0)
(0 -0.00087678 0)
(0 -0.000870849 0)
(0 -0.000864435 0)
(0 -0.000857561 0)
(0 -0.000850484 0)
(0 -0.000842191 0)
(0 -0.000832997 0)
(0 -0.00082354 0)
(0 -0.000812776 0)
(0 -0.000800808 0)
(0 -0.000788026 0)
(3.95509e-05 -0.000771397 2.36452e-21)
(7.49983e-05 -0.000770496 -7.04853e-22)
(0.000112615 -0.000768481 -3.03356e-22)
(0.000150772 -0.000765379 2.65862e-21)
(0.000188417 -0.000761851 3.90544e-21)
(0.000225824 -0.000757413 3.63517e-21)
(0.000262648 -0.000752322 -8.89337e-23)
(0.000299694 -0.000746431 -2.07579e-21)
(0.000336782 -0.000739687 0)
(0.000373539 -0.00073233 -3.04591e-21)
(0.000409251 -0.000724372 -1.62095e-21)
(0.000443062 -0.000716229 -6.03104e-21)
(0.000478436 -0.000707121 -5.04405e-21)
(0.00051388 -0.000697074 2.32136e-21)
(0.000550192 -0.00068623 2.13581e-21)
(0.000584841 -0.000675239 -7.27646e-22)
(0.000615772 -0.000664576 2.98829e-21)
(0.00064848 -0.000652872 5.94233e-21)
(0.000681432 -0.000640482 -1.65434e-21)
(0.000714037 -0.000627765 -5.31679e-21)
(0.000744911 -0.000615004 -1.96639e-21)
(0.000774257 -0.000602377 5.07989e-21)
(0.000803542 -0.00058916 -1.66558e-21)
(0.000833825 -0.000574891 -3.32956e-21)
(0.000862725 -0.000561699 -4.41967e-21)
(0.000889602 -0.000548259 -8.02453e-21)
(0.000916597 -0.000533907 -1.88502e-21)
(0.000944247 -0.000519201 -1.22518e-21)
(0.000971222 -0.000504031 -8.3932e-22)
(0.000995892 -0.000489833 4.84044e-21)
(0.00102147 -0.00047474 4.89174e-22)
(0.00104603 -0.000459428 -3.81638e-21)
(0.00106841 -0.000445027 7.63736e-21)
(0.00109034 -0.00043059 5.19702e-21)
(0.00111115 -0.000416499 -2.29132e-21)
(0.00113342 -0.000400704 -5.747e-25)
(0.00115511 -0.000384649 -2.40489e-21)
(0.00117428 -0.000370327 -2.62129e-21)
(0.00119247 -0.000355666 1.94314e-21)
(0.00121028 -0.000340734 3.06374e-21)
(0.00122781 -0.000325963 3.97614e-22)
(0.00124503 -0.000310338 -4.41268e-21)
(0.0012612 -0.000295381 -5.44896e-22)
(0.00127605 -0.000280907 5.30085e-21)
(0.0012908 -0.000265596 1.93908e-21)
(0.00130442 -0.000250799 1.89176e-24)
(0.00131683 -0.000236562 -1.68264e-21)
(0.00132934 -0.000221031 -4.08062e-21)
(0.00134161 -0.000204749 -2.72436e-21)
(0.00135246 -0.000189732 1.10442e-21)
(0.00136186 -0.000175559 2.01848e-21)
(0.00137035 -0.000161695 -1.99308e-21)
(0.00137842 -0.000147473 -2.57887e-21)
(0.00138612 -0.00013199 2.72603e-22)
(0.00139308 -0.000116626 2.74201e-22)
(0.00139889 -0.000102524 5.9565e-22)
(0.00140413 -8.72146e-05 8.84907e-22)
(0.00140835 -7.26238e-05 -1.44821e-21)
(0.00141165 -5.88079e-05 -1.69432e-21)
(0.00141433 -4.45067e-05 3.57534e-21)
(0.0014163 -3.00458e-05 3.16169e-21)
(0.00141753 -1.55075e-05 -5.75848e-22)
(0.00119745 -0.000113433 0)
(0.00155962 -8.03985e-05 0)
(0.000746497 -0.000380339 0)
(0.00169702 -0.000125799 0)
(0.00178956 -4.93305e-05 0)
(0.00128505 -0.000135598 0)
(0.00147992 -3.78399e-05 0)
(0.000352802 -0.000725633 0)
(0.0013179 -6.8399e-05 0)
(0.00092628 -0.000257404 0)
(0.00149959 -0.000150041 0)
(0.00166414 -3.3554e-05 0)