/*--------------------------------*- C++ -*----------------------------------*\
| =========                 |                                                 |
| \\      /  F ield         | OpenFOAM: The Open Source CFD Toolbox           |
|  \\    /   O peration     | Version:  v2012                                 |
|   \\  /    A nd           | Website:  www.openfoam.com                      |
|    \\/     M anipulation  |                                                 |
\*---------------------------------------------------------------------------*/
FoamFile
{
    version     2.0;
    format      ascii;
    class       volScalarField;
    location    "11";
    object      epsilonEq;
}
// * * * * * * * * * * * * * * * * * * * * * * * * * * * * * * * * * * * * * //

dimensions      [0 0 0 0 0 0 0];


internalField   nonuniform List<scalar> 
30465
(
0.00173259
0.0011923
0.00249053
0.00158374
0.001437
0.00142594
0.00249696
0.00240091
0.00317494
0.00229066
0.00186217
0.00249546
0.00164482
0.00125814
0.00223048
0.0025416
0.00144535
0.00225962
0.0031519
0.00129791
0.000771637
0.000774864
0.00121229
0.00293424
0.00123037
0.00117573
0.00118051
0.0011652
0.00105652
0.00245896
0.0018095
0.00106638
0.001703
0.0015076
0.00183041
0.00104543
0.00308367
0.00063078
0.0014574
0.0025276
0.00108482
0.00214646
0.0028997
0.00115246
0.0011514
0.00307239
0.00221173
0.00118837
0.00114332
0.000954573
0.000973951
0.00152114
0.00219753
0.00219873
0.00571848
0.00133696
0.00493837
0.00128919
0.00107513
0.000972147
0.000968666
0.00238055
0.000773062
0.00184308
0.00182914
0.00177697
0.00198165
0.00364378
0.000552424
0.00134154
0.00134751
0.00119759
0.00285534
0.00227977
0.00170751
0.00257176
0.000976867
0.000974166
0.00123073
0.00201591
0.00254665
0.002533
0.00144962
0.00119866
0.00156486
0.00114311
0.00108356
0.00253569
0.00140573
0.000937641
0.00104771
0.00104339
0.00144082
0.00143578
0.00231132
0.00103347
0.00110719
0.0011041
0.00229804
0.00106787
0.00153256
0.000832891
0.000848001
0.0018735
0.00122317
0.0021615
0.00216169
0.00119728
0.00135229
0.000868198
0.00253969
0.00158916
0.00189126
0.00187983
0.00174218
0.00171787
0.000422692
0.00120533
0.000982106
0.00751601
0.00258394
0.00104652
0.00143562
0.000699806
0.00115197
0.00114292
0.000566919
0.00178347
0.00128887
0.000983176
0.00390268
0.000975819
0.00255058
0.0026628
0.00125662
0.00066782
0.00270429
0.00120383
0.00339974
0.00269222
0.00143798
0.00231535
0.000447444
0.00110369
0.000956088
0.00242248
0.00103099
0.00102998
0.00199965
0.000922532
0.00132211
0.0020246
0.0011059
0.00110629
0.00152932
0.00132617
0.00207445
0.001453
0.00230693
0.00110191
0.00109968
0.00234135
0.00207047
0.00208866
0.000455161
0.000970292
0.00109697
0.00340377
0.00122828
0.00214079
0.00159036
0.000995388
0.00105151
0.00104878
0.0012114
0.00217329
0.00176864
0.00176214
0.000420607
0.00220933
0.00246096
0.00180446
0.00181143
0.00135805
0.00128514
0.00150921
0.00260242
0.00136645
0.000976976
0.00142785
0.00252652
0.00118001
0.000962253
0.00225003
0.00145444
0.00145939
0.00248962
0.00144982
0.00139839
0.00174079
0.000990432
0.00106382
0.000947231
0.00288371
0.00172642
0.00142291
0.000849488
0.00317269
0.00184394
0.00105475
0.00247161
0.00139698
0.000486494
0.00113068
0.00294495
0.00208205
0.00209519
0.00119787
0.00119139
0.0024967
0.00171495
0.00164849
0.00109403
0.00126046
0.00196435
0.0011314
0.00238368
0.00202003
0.000930737
0.00150973
0.0024012
0.00107345
0.00107357
0.00124678
0.00124684
0.000540997
0.00173771
0.00172011
0.00254651
0.00254041
0.0021986
0.00149443
0.00154136
0.00163455
0.00117002
0.0022562
0.00183128
0.00166722
0.00347395
0.00124673
0.00142508
0.000913316
0.000901677
0.00237838
0.00173273
0.00381011
0.00191967
0.00195957
0.00200501
0.0029167
0.00119562
0.0013731
0.00140681
0.000756845
0.00247746
0.0024679
0.00141681
0.00226094
0.00171165
0.00137575
0.000969601
0.00132473
0.00106813
0.00143541
0.00117725
0.00199955
0.00105566
0.00147996
0.00259232
0.000740243
0.00262031
0.00164562
0.00110548
0.00135552
0.00105614
0.00132839
0.00206465
0.00119737
0.000917686
0.00132094
0.00173107
0.00160507
0.00143151
0.00216167
0.00098361
0.00125578
0.000976172
0.000514
0.000518745
0.00100746
0.00162457
0.00162087
0.00283512
0.000894776
0.000860129
0.00224596
0.00224963
0.000997847
0.00118512
0.000509477
0.00163882
0.00164697
0.00249943
0.00125125
0.00266199
0.00163079
0.00285155
0.00295274
0.00223742
0.00449768
0.00207228
0.00512555
0.00218325
0.000732178
0.00124755
0.00123169
0.0023472
0.00188035
0.00142357
0.00252811
0.000337736
0.00234428
0.000782753
0.00237892
0.00105346
0.00220944
0.00108696
0.00112369
0.00111342
0.00208538
0.00203304
0.00153428
0.00248623
0.00108846
0.00135724
0.00208791
0.00210908
0.00261222
0.00203356
0.00102643
0.00205093
0.000934035
0.00244939
0.00235271
0.00157878
0.00207216
0.000665203
0.00256787
0.00122942
0.00124187
0.00206961
0.00204877
0.00115083
0.00123783
0.00114328
0.00247368
0.00203655
0.000514827
0.00101773
0.00176971
0.00713524
0.00103848
0.00307348
0.00197688
0.00197057
0.00212306
0.00135505
0.00180334
0.00122573
0.00147098
0.00152465
0.00133747
0.00128592
0.00212519
0.00244569
0.000920057
0.000597768
0.0024194
0.00242258
0.000618629
0.00267462
0.000794213
0.000886015
0.000913683
0.00167228
0.00133388
0.000514461
0.0009415
0.00134014
0.00133565
0.000991255
0.000999205
0.0015893
0.00049882
0.00179693
0.00158658
0.00183165
0.00162648
0.00134071
0.000866746
0.00132367
0.00204047
0.00110978
0.00212255
0.00152893
0.00106206
0.00103001
0.00587339
0.0024314
0.00245192
0.00105767
0.00275284
0.00257892
0.00186548
0.00095684
0.00186946
0.00257879
0.00170842
0.00158626
0.00190554
0.00271193
0.00115351
0.000916933
0.00140751
0.00140323
0.00132533
0.000887438
0.00149389
0.00247108
0.000667191
0.00250508
0.00131375
0.00142367
0.00216894
0.000979944
0.00105706
0.0017026
0.00170143
0.00258686
0.00104103
0.00167675
0.00148113
0.00107178
0.00179527
0.00176804
0.00234961
0.00144277
0.00117143
0.00116225
0.000774944
0.00125094
0.00125887
0.00338944
0.00102335
0.00116255
0.00180109
0.00134437
0.000976773
0.00153933
0.00153119
0.00264031
0.0026544
0.0014681
0.00148474
0.00112497
0.00250829
0.00104449
0.00104422
0.00042684
0.00132758
0.00135339
0.00135283
0.00125435
0.00138677
0.00208086
0.00115726
0.00211345
0.002118
0.00149677
0.00180445
0.00124292
0.000971475
0.00133403
0.00222505
0.00232217
0.00243246
0.00133196
0.00110792
0.00140015
0.00142054
0.00354888
0.00116173
0.00116663
0.00224925
0.00110666
0.00179518
0.00120298
0.00250899
0.000964014
0.0025182
0.00245599
0.00258493
0.00160727
0.00107009
0.0011816
0.00118653
0.00119218
0.000514763
0.00187591
0.00203256
0.00316132
0.00191697
0.00208963
0.00133679
0.00119602
0.00158479
0.00261009
0.00244809
0.00146691
0.00100609
0.00120874
0.000933318
0.00220871
0.000580388
0.00229108
0.000868556
0.0022436
0.00112671
0.00146045
0.0020058
0.0014955
0.00179019
0.00164398
0.00709218
0.00234108
0.00203468
0.00122127
0.00122591
0.00211562
0.0013796
0.0019143
0.00262688
0.00137441
0.00148073
0.000978022
0.00185727
0.00154807
0.00102673
0.00157551
0.00191608
0.0012848
0.00100662
0.00170799
0.00236505
0.0025706
0.00118588
0.00121536
0.00113649
0.000777261
0.000757394
0.00200739
0.00150798
0.000448447
0.00291105
0.00145092
0.00284705
0.00103078
0.00103222
0.0019648
0.00156205
0.00239328
0.00126811
0.000618489
0.000921877
0.000946732
0.00179119
0.00135571
0.0013031
0.00137655
0.00137109
0.00132594
0.00108695
0.00132463
0.000886193
0.00240716
0.00125953
0.00125783
0.00201663
0.00184281
0.0012427
0.00177267
0.00110365
0.00109232
0.00109912
0.00270123
0.00091271
0.000855949
0.000852728
0.00205036
0.00175396
0.00249111
0.00250374
0.00268155
0.00136351
0.0084923
0.00173208
0.00354464
0.00157168
0.00852981
0.00240963
0.00102893
0.00092406
0.00203608
0.000979044
0.00100397
0.00298624
0.00106045
0.00150946
0.00105103
0.00158997
0.00059823
0.00205455
0.00217513
0.00107026
0.00107877
0.00109909
0.00178607
0.00106142
0.000594105
0.00105233
0.00179824
0.00151524
0.00105837
0.00102539
0.00114562
0.00200928
0.00206698
0.00300874
0.00100915
0.00141877
0.00133358
0.00254864
0.00101205
0.00112381
0.00163428
0.000966245
0.00126273
0.0012189
0.00132501
0.00250575
0.000783163
0.00107427
0.00107182
0.00129636
0.000912682
0.00132292
0.00128725
0.00128437
0.00127266
0.0032757
0.00125479
0.00122588
0.000502119
0.00229395
0.00253976
0.00143955
0.00138624
0.00393752
0.00109822
0.00136957
0.00187054
0.00220119
0.00132652
0.00182054
0.00657121
0.00362749
0.00125903
0.00109841
0.00110306
0.00182018
0.00156338
0.00126419
0.0019774
0.00171318
0.00102394
0.00205748
0.00101406
0.00100854
0.00249366
0.00252449
0.00250562
0.00254085
0.0017705
0.00140569
0.00140399
0.00344818
0.00145589
0.00299522
0.00252191
0.0012098
0.0024364
0.000960393
0.00096595
0.00198022
0.00251429
0.00104755
0.0026083
0.00261987
0.00167918
0.00102638
0.00239827
0.0024032
0.00132797
0.00228817
0.00255511
0.00113517
0.00169825
0.00248
0.00186905
0.0014423
0.00114125
0.0011449
0.00178041
0.00446037
0.00181059
0.00414492
0.000995728
0.00163333
0.00187067
0.00168722
0.00115216
0.0011355
0.000788299
0.000786034
0.00207297
0.00264877
0.00231259
0.00169703
0.00253042
0.00142386
0.00145093
0.00239805
0.00237061
0.000948534
0.00361204
0.00221318
0.00225841
0.00139955
0.00208444
0.00087601
0.00144016
0.000855183
0.00372906
0.000953786
0.00100295
0.00201483
0.00152624
0.000824333
0.000811037
0.000980206
0.00183796
0.00182061
0.000644358
0.00143777
0.00147707
0.00130017
0.00210827
0.00212395
0.000975931
0.00237996
0.00161631
0.000957371
0.00152825
0.00107849
0.00108225
0.00229211
0.00111216
0.00133314
0.00133757
0.00166548
0.00127195
0.0012731
0.00347582
0.00110181
0.0020418
0.00132775
0.00120555
0.00170022
0.00128202
0.000917791
0.000427693
0.00184308
0.00100178
0.00100131
0.00211733
0.00255075
0.000963023
0.00191933
0.000631741
0.000476861
0.00117625
0.00256033
0.00106623
0.0010783
0.00116438
0.00116235
0.00102184
0.00136891
0.00137283
0.000827884
0.000826288
0.00055909
0.00126411
0.00126621
0.000420825
0.00121464
0.00256849
0.00115522
0.00141023
0.00132849
0.00140655
0.000777761
0.00258746
0.00208224
0.00260249
0.00118997
0.00149601
0.00257081
0.00210999
0.00214758
0.00232978
0.000626361
0.00148327
0.00170135
0.00131618
0.00131032
0.00168795
0.00172191
0.000680826
0.00257399
0.00257798
0.00147306
0.00346339
0.00162769
0.0014842
0.00424693
0.00125194
0.00227924
0.000941908
0.000678312
0.00211002
0.000814285
0.00292285
0.00115694
0.00238466
0.00184417
0.00115229
0.0022998
0.00138282
0.00177839
0.0022775
0.00136509
0.000640112
0.00229257
0.00272213
0.00115314
0.00122343
0.00122706
0.00122567
0.00375323
0.00119569
0.00108372
0.00107473
0.00133625
0.000883168
0.00106287
0.000765567
0.00147524
0.00157764
0.00138548
0.00141954
0.00134575
0.00216312
0.00212944
0.00130686
0.00164818
0.00202198
0.00112458
0.00144996
0.000940267
0.00232366
0.00220091
0.00145397
0.00143453
0.00110821
0.00106557
0.0026671
0.00140281
0.00256846
0.00124431
0.00604575
0.0009155
0.000917636
0.000684598
0.000661109
0.00152802
0.00258892
0.002035
0.000964384
0.00260716
0.00171363
0.00254225
0.0013498
0.00256547
0.00110784
0.00185814
0.00107122
0.0028109
0.00111343
0.00249665
0.00166839
0.00247903
0.00100428
0.00251896
0.0022688
0.00272312
0.00135295
0.00124525
0.0011532
0.0027202
0.00180362
0.00135992
0.00249153
0.0027293
0.00243397
0.00260257
0.0019474
0.00178968
0.00151285
0.00180909
0.00153477
0.000941362
0.00119831
0.0020302
0.00097136
0.00174256
0.00115823
0.00340928
0.0013268
0.000963227
0.00100051
0.000989446
0.00194922
0.00207406
0.0026396
0.00205712
0.00147359
0.00180758
0.000787801
0.00146816
0.00289746
0.00222246
0.00169601
0.000814832
0.00125286
0.00148757
0.00122846
0.00125039
0.00219779
0.000794819
0.00155899
0.00173632
0.000788349
0.00109147
0.00129457
0.00142774
0.00358633
0.00096907
0.0017116
0.00158
0.00127576
0.00128127
0.000771246
0.000562357
0.000537382
0.00181888
0.00124486
0.00244057
0.00273886
0.00137674
0.00134962
0.00236833
0.000943206
0.00142852
0.00116428
0.00136789
0.00202846
0.00201529
0.000579302
0.00416018
0.000650963
0.00528482
0.00113639
0.00227442
0.000916009
0.000913421
0.00218375
0.00211375
0.00107386
0.00188816
0.00100257
0.00238366
0.00238069
0.00127959
0.00140482
0.0019302
0.00203187
0.0013649
0.00136394
0.00244249
0.000662473
0.0010463
0.00241996
0.000976822
0.00104712
0.000720874
0.0080206
0.00146449
0.00108284
0.00123202
0.000994898
0.00110336
0.00207757
0.00185053
0.00206843
0.00133536
0.00125583
0.00257205
0.00153376
0.00136226
0.00105902
0.00166162
0.000781718
0.000970062
0.00133038
0.00239968
0.00110033
0.00253015
0.00199359
0.00264717
0.00109314
0.00108462
0.00131284
0.000529901
0.00135867
0.00135361
0.000535102
0.00275292
0.000945399
0.00120248
0.00236669
0.00161849
0.00162531
0.000959097
0.00181645
0.00264693
0.00246893
0.00135096
0.0018152
0.00119566
0.00128512
0.00272919
0.00131439
0.000815188
0.000826217
0.0022957
0.00205624
0.00219899
0.00120014
0.00125855
0.0019695
0.0011489
0.00206759
0.00122793
0.00145028
0.00228868
0.000952861
0.000357878
0.000944228
0.00164845
0.0012145
0.00122371
0.000849712
0.00084168
0.000965159
0.00096905
0.0019958
0.00150732
0.00124329
0.00102514
0.000901542
0.00132855
0.00184805
0.000791091
0.00192221
0.00166031
0.00220135
0.000743972
0.00176479
0.00134623
0.000591973
0.000604556
0.0025938
0.00138502
0.00143687
0.00225496
0.000975366
0.000974578
0.00175679
0.00168578
0.00175016
0.00191182
0.00139786
0.000816592
0.00363292
0.000728604
0.00171278
0.00260654
0.00229114
0.00172658
0.00212675
0.00117526
0.00117916
0.000542428
0.000759554
0.00099168
0.000985807
0.000640176
0.000794178
0.00135895
0.00105632
0.000896724
0.00189528
0.00102336
0.00253362
0.0016289
0.00254035
0.00153235
0.0010245
0.000977431
0.000970858
0.00232079
0.00157128
0.000485745
0.000979017
0.00170643
0.00209389
0.00131739
0.00131349
0.00120967
0.00162716
0.00153619
0.00368079
0.00153368
0.00196052
0.00190152
0.0010729
0.0016995
0.00125563
0.00245007
0.00123931
0.00119174
0.00105748
0.00128977
0.000528552
0.00190662
0.00200056
0.00272381
0.000604689
0.000990831
0.00123898
0.00253055
0.00158171
0.00157859
0.00146214
0.00154437
0.00097349
0.000980183
0.00117625
0.00166328
0.00204397
0.00193081
0.00109718
0.00205484
0.0014252
0.00143021
0.00259096
0.00095884
0.00132689
0.000699437
0.00262145
0.00154642
0.00155518
0.000951807
0.00242717
0.00253552
0.00113834
0.000662186
0.00284227
0.00124862
0.00133227
0.000975568
0.000972505
0.00201919
0.00099712
0.00203693
0.00140722
0.00141007
0.00256044
0.00182558
0.000971824
0.0107911
0.00204135
0.000930594
0.00131747
0.00126744
0.0011151
0.00511579
0.001374
0.00385694
0.00115679
0.00165247
0.00125006
0.00116039
0.00114646
0.00156473
0.000862376
0.00269145
0.00197665
0.00199624
0.00186079
0.00120165
0.00140687
0.00147333
0.0013393
0.00210059
0.00183638
0.000906128
0.00090275
0.00136329
0.00143017
0.000843689
0.00143365
0.00232426
0.00222796
0.000898822
0.0013255
0.00181123
0.000918782
0.0013196
0.00264018
0.00140868
0.00128185
0.001462
0.0011495
0.00106047
0.00125502
0.00147734
0.00156735
0.00134141
0.00133456
0.00251074
0.000970279
0.000977254
0.00210917
0.000481016
0.0034
0.00147889
0.00145794
0.00211644
0.00143123
0.00214044
0.000769786
0.00120737
0.00209035
0.00263112
0.00241293
0.00113876
0.00170322
0.000754956
0.00213447
0.00241944
0.00113309
0.000938226
0.00242601
0.00101693
0.0023346
0.00094756
0.00357074
0.000504315
0.000996866
0.000484968
0.000836702
0.000814865
0.00277669
0.00258089
0.000961396
0.00305024
0.000425575
0.00114027
0.00638185
0.000337825
0.000968088
0.000841472
0.00141395
0.00111426
0.00136356
0.00135588
0.00133576
0.00141689
0.00132108
0.00130903
0.000561781
0.00144517
0.00197339
0.00115852
0.0013808
0.00222347
0.00142687
0.00140367
0.00163752
0.000999792
0.00220545
0.00104195
0.00240747
0.000963369
0.000957205
0.0009287
0.00144642
0.000429929
0.00278096
0.000965225
0.000938877
0.000808233
0.00244471
0.000926905
0.00126808
0.000582293
0.000549506
0.00105519
0.00177614
0.000917028
0.00222903
0.0009091
0.00128603
0.00248636
0.00249934
0.000574342
0.00285422
0.000688277
0.000972933
0.00135889
0.00136424
0.00132575
0.00204698
0.00106617
0.001078
0.00247446
0.00125608
0.00212988
0.000678426
0.00120109
0.000822763
0.000581364
0.00257285
0.00256832
0.00099774
0.000998803
0.00134622
0.00167703
0.00121579
0.000993701
0.00132697
0.00170874
0.0013249
0.00216008
0.00132464
0.00119033
0.00151242
0.00213884
0.000995266
0.000812467
0.0015502
0.00122797
0.0011076
0.00105337
0.00114185
0.00111255
0.00219934
0.00152176
0.00117286
0.00098826
0.00199629
0.00273501
0.00375742
0.00130716
0.00239874
0.00199197
0.00118833
0.0022401
0.000576831
0.00247604
0.000758317
0.00226621
0.000556462
0.00102408
0.00126538
0.00104341
0.00104164
0.00178485
0.00150688
0.00145343
0.00144167
0.00255944
0.00154527
0.000954568
0.00199951
0.00220673
0.00218184
0.00139233
0.00122033
0.00244829
0.000956954
0.00182337
0.00262601
0.00101242
0.00172457
0.00218756
0.001049
0.000695949
0.00120848
0.00167629
0.00133628
0.00200388
0.00202586
0.000841811
0.00115782
0.00134995
0.00208429
0.00212093
0.00108101
0.00115315
0.00119746
0.00167463
0.00235725
0.00231306
0.000578424
0.00166443
0.00155174
0.00146226
0.00121382
0.00108935
0.00200549
0.0015525
0.00112521
0.00120368
0.00256643
0.00176567
0.00129399
0.00182004
0.00106808
0.00167714
0.00192011
0.000991276
0.00255404
0.0013262
0.00177517
0.00101989
0.00228114
0.00169409
0.00161453
0.00100211
0.00162432
0.00160845
0.00239205
0.00122717
0.00122654
0.000929704
0.000952636
0.00083164
0.00244014
0.00172636
0.00145257
0.0014878
0.0015655
0.00155695
0.00266798
0.00119573
0.000993599
0.0014457
0.00146037
0.00159483
0.000854017
0.00173832
0.00109687
0.000419771
0.000702432
0.00250337
0.000987319
0.00152939
0.00144105
0.00196176
0.00248173
0.00161713
0.00125625
0.00198171
0.00196462
0.00098085
0.00133827
0.0013076
0.00136559
0.00218821
0.00218581
0.00120129
0.0005524
0.00131154
0.00219913
0.00246586
0.00274631
0.000987433
0.000933821
0.00188628
0.00239509
0.00187891
0.00143923
0.00164558
0.000838493
0.00154281
0.000935647
0.000936451
0.00147715
0.00145804
0.00174827
0.00115945
0.00210193
0.00277888
0.00127389
0.00205642
0.00132067
0.0017981
0.00105934
0.000638821
0.0033409
0.00368813
0.000645765
0.00167639
0.00106478
0.00131138
0.00129818
0.00238076
0.00175901
0.00137031
0.00107507
0.00125512
0.00348921
0.00102798
0.00127791
0.00119686
0.00205463
0.00123333
0.000920999
0.000814607
0.00258688
0.00339522
0.00320421
0.00191229
0.00114474
0.00201526
0.00195725
0.000486688
0.000683242
0.00103868
0.00111866
0.00241397
0.000631407
0.00109534
0.00185513
0.0018426
0.0023593
0.00201633
0.00156627
0.00167629
0.00150987
0.000961748
0.00245959
0.000951678
0.00127491
0.000942185
0.00142348
0.00109186
0.00133803
0.00170313
0.00114992
0.00137136
0.00143384
0.00127142
0.00127317
0.00128038
0.00128258
0.00095574
0.00100867
0.00129819
0.00239204
0.00205871
0.000492997
0.00105511
0.00237041
0.00158481
0.00179575
0.00145524
0.00242787
0.00125948
0.00125798
0.00187428
0.00102855
0.00133316
0.000795096
0.00227579
0.0014286
0.000968988
0.00179772
0.00227549
0.000430813
0.00222966
0.00105688
0.00198823
0.00182269
0.00134053
0.00165876
0.00112588
0.00132768
0.00109531
0.000783011
0.00171642
0.00125443
0.00320563
0.00191693
0.00261887
0.00226669
0.00224557
0.00124143
0.00331319
0.00144651
0.00247205
0.00102585
0.00239208
0.00105292
0.0021296
0.00106298
0.00142654
0.00173299
0.00116684
0.000979362
0.00116127
0.0011842
0.00203465
0.000430695
0.00147569
0.00246119
0.000939027
0.000994591
0.00194704
0.00181391
0.000672419
0.0012259
0.00184746
0.00171013
0.000983058
0.00131264
0.00235348
0.0027211
0.00235415
0.0064186
0.000941745
0.00135116
0.00211135
0.00211503
0.00246713
0.00113115
0.00116401
0.00115501
0.00247457
0.00124265
0.00208706
0.00150614
0.00149761
0.00171827
0.0020694
0.00177303
0.00149677
0.00106412
0.00226788
0.000410956
0.00240898
0.00143506
0.000843809
0.0017304
0.00253746
0.000836033
0.000948128
0.00252856
0.00139277
0.00165126
0.00129171
0.00129345
0.00154253
0.0013458
0.000983015
0.000981973
0.00205028
0.00110571
0.00179418
0.00328252
0.00102553
0.00184964
0.00183563
0.00190128
0.00134251
0.000973941
0.00170313
0.00245822
0.00104806
0.00897658
0.00222433
0.0088573
0.00126432
0.00238324
0.00207349
0.00208005
0.00199562
0.00202518
0.00154008
0.00143371
0.00121984
0.00154327
0.000704526
0.00104376
0.00156948
0.00242324
0.00102403
0.00103044
0.00129617
0.00197561
0.00248587
0.000541167
0.000533866
0.000852908
0.000858517
0.00220022
0.00234239
0.00154501
0.00181559
0.000725227
0.00196926
0.00259819
0.00198429
0.00122014
0.00144799
0.00244949
0.00207801
0.00119777
0.000947785
0.00132544
0.000907898
0.000683133
0.00218607
0.00102856
0.00126017
0.000977434
0.00148672
0.0020006
0.00229569
0.00108413
0.000559796
0.000844197
0.000715722
0.00118967
0.000956741
0.00259337
0.00161103
0.00101353
0.00101743
0.000591602
0.000978968
0.00132872
0.000737705
0.000577953
0.00163511
0.00127659
0.00228218
0.00336075
0.000969834
0.000963981
0.00280196
0.00225899
0.00112403
0.00136795
0.00227325
0.0019398
0.00318496
0.0012996
0.000866229
0.00246343
0.00200745
0.000959503
0.00226118
0.0016213
0.00113878
0.00282055
0.0011693
0.00135223
0.00039349
0.0011465
0.000628838
0.0013708
0.00129734
0.00105666
0.00151558
0.00232643
0.00192909
0.00103891
0.00166952
0.00230249
0.00191124
0.00231306
0.00124188
0.00190082
0.00122841
0.00115617
0.00141513
0.0024126
0.00195968
0.00126444
0.00145233
0.00105144
0.00182202
0.00154796
0.00249506
0.00149024
0.00149151
0.00154767
0.00156112
0.000863692
0.000865344
0.00176812
0.00103393
0.000976082
0.00097234
0.0011965
0.000782453
0.000780835
0.00115008
0.00237501
0.00237837
0.000985017
0.0016256
0.00197969
0.00147524
0.00056929
0.000848233
0.00167216
0.00191235
0.000410528
0.0013047
0.00236175
0.00225834
0.00179688
0.000424015
0.000992178
0.00122891
0.00191664
0.00156735
0.00156677
0.00189389
0.00134917
0.00164997
0.00103216
0.0024515
0.00153643
0.00104575
0.00235841
0.00238118
0.00138164
0.00160122
0.000919354
0.000925868
0.000876444
0.00259589
0.00322778
0.0016347
0.00370329
0.00183497
0.00234207
0.000979117
0.00200056
0.000696454
0.00114312
0.00113401
0.00147777
0.00182308
0.00222934
0.0050032
0.000408401
0.00113405
0.00171178
0.00151779
0.000985569
0.00237472
0.000732797
0.00130489
0.00130701
0.00144271
0.000942469
0.00184464
0.00127016
0.00210151
0.00208548
0.00125732
0.00314637
0.00298464
0.00243574
0.00262205
0.000967706
0.00105946
0.00124401
0.00169092
0.00348464
0.000927302
0.0026843
0.000887779
0.00095005
0.0013163
0.000994324
0.00378871
0.000567709
0.000689337
0.000474761
0.00106778
0.00139277
0.00210803
0.00109606
0.00114308
0.0011448
0.0011989
0.0015575
0.000875738
0.00103176
0.00231171
0.00200677
0.00159737
0.00257762
0.00236589
0.00200145
0.00096844
0.00265866
0.00145724
0.00132117
0.00094328
0.00163373
0.00140701
0.00159008
0.000550693
0.00989221
0.00103164
0.00210575
0.00118
0.00158516
0.00192134
0.00190941
0.00157455
0.00206565
0.00132878
0.00103366
0.000965526
0.00137649
0.000765353
0.00148827
0.00135017
0.00205461
0.000782536
0.00112235
0.00112126
0.000455617
0.00132001
0.000946889
0.00151152
0.00252663
0.00086618
0.00155275
0.00263845
0.00231916
0.000930902
0.00144242
0.000882214
0.00115944
0.0019693
0.00248464
0.00162117
0.00247359
0.00143536
0.00116795
0.00117114
0.00191785
0.0019441
0.00185403
0.00102877
0.00108286
0.0010793
0.00265894
0.001091
0.00269935
0.000572599
0.0012638
0.00134692
0.00257583
0.00257155
0.00229177
0.00159304
0.00105702
0.00210799
0.00270077
0.00129032
0.00129188
0.00186326
0.000964589
0.00133648
0.00190663
0.00132698
0.000905489
0.0020724
0.00136154
0.00159358
0.000398722
0.00163057
0.00257838
0.000924565
0.000919045
0.00122911
0.00114916
0.00115424
0.000894907
0.000712646
0.000468596
0.00304719
0.00225114
0.00222553
0.001298
0.0103374
0.0011883
0.00209761
0.00112972
0.00181498
0.00225202
0.00201268
0.00201622
0.00110002
0.00223841
0.00134629
0.00134062
0.00234768
0.00253555
0.00214714
0.00251548
0.00116274
0.00172464
0.00255452
0.00325269
0.00116202
0.00116451
0.00193544
0.00106011
0.00140578
0.00140831
0.0109773
0.00104697
0.000496702
0.00180038
0.00122592
0.00124449
0.000797931
0.000807944
0.000559714
0.000999856
0.00213058
0.00138067
0.00136745
0.00282109
0.0013235
0.00243605
0.000794857
0.000882329
0.00997733
0.00179157
0.00136652
0.00078728
0.00217819
0.0016263
0.000778092
0.000987027
0.00109087
0.00131537
0.00130979
0.00241161
0.00170405
0.00271451
0.00100417
0.000841501
0.00157708
0.00120295
0.00130156
0.00655915
0.00129727
0.002583
0.00600443
0.00141714
0.00165767
0.00133146
0.0031552
0.000665934
0.00226628
0.00162856
0.00253712
0.0022452
0.00133591
0.00122316
0.00100935
0.00239648
0.00240403
0.000843158
0.000994301
0.00217093
0.00190177
0.0022895
0.00145121
0.00180963
0.00151821
0.00261017
0.00151187
0.00089464
0.00163798
0.00254237
0.00173116
0.0021521
0.00115771
0.00202534
0.0019932
0.000654424
0.00160654
0.0019647
0.00132109
0.00289248
0.00081392
0.00327485
0.00151837
0.00145043
0.000877535
0.00225663
0.00258335
0.00081974
0.00112107
0.00112744
0.00532046
0.000999674
0.000988686
0.00182972
0.00161463
0.00156198
0.0014015
0.00259008
0.00238205
0.00141954
0.0024478
0.00254079
0.00118487
0.00232846
0.000742368
0.00111264
0.00248065
0.00205111
0.00201677
0.002491
0.0023489
0.0020423
0.00215732
0.00128983
0.00104266
0.000988329
0.0025548
0.00109803
0.00164996
0.00227351
0.00227247
0.000940694
0.00153793
0.000985042
0.00152169
0.00153765
0.0025902
0.00258971
0.00242323
0.00242897
0.00153549
0.00293119
0.000990352
0.00199356
0.000345041
0.00100781
0.000727158
0.00170484
0.00122241
0.00121687
0.00282998
0.00130444
0.00103709
0.00233441
0.00105908
0.00141232
0.000990507
0.00131466
0.00109592
0.00166843
0.00154236
0.00155611
0.00242025
0.00170941
0.000877233
0.00127949
0.00219527
0.00110565
0.00157048
0.000706534
0.00146543
0.00145169
0.00146364
0.00261354
0.00170162
0.00293143
0.00169804
0.00179788
0.00204019
0.000545006
0.00141219
0.00196231
0.00205288
0.00275843
0.000947317
0.000956624
0.00136747
0.00161566
0.000339895
0.000986457
0.00121735
0.0009933
0.000880322
0.000886422
0.00113516
0.00164521
0.000803669
0.00121942
0.00179349
0.00155911
0.0010898
0.00347456
0.00343416
0.00127711
0.00103954
0.000898859
0.00112528
0.000761061
0.00276729
0.00221037
0.00173749
0.000975885
0.00233305
0.00127392
0.000967165
0.00204717
0.00113144
0.000983534
0.000979899
0.000948198
0.00151242
0.000817587
0.00136861
0.000795391
0.000762977
0.00120714
0.000690926
0.000990547
0.0017485
0.00101248
0.00147384
0.0015056
0.00150871
0.00131137
0.00150419
0.00149593
0.00118296
0.00251965
0.00202309
0.000936945
0.00183468
0.000847882
0.00323152
0.00334773
0.000972764
0.000969624
0.00165706
0.000967869
0.00110607
0.00258884
0.00288316
0.00149163
0.000993271
0.000888772
0.000897635
0.00242868
0.0017417
0.0010602
0.00101738
0.00151216
0.000698461
0.000968894
0.00152484
0.0105466
0.00177227
0.0013439
0.00132997
0.00128671
0.00158574
0.00158093
0.000950302
0.000759852
0.000760846
0.000990748
0.000994842
0.00133703
0.00094995
0.000944617
0.00156539
0.00150772
0.00124949
0.00188902
0.00123498
0.00186114
0.00184509
0.00170063
0.00274658
0.00159767
0.00209606
0.00188297
0.00186389
0.00218666
0.000957973
0.000953745
0.00130611
0.00130669
0.0025055
0.00339078
0.00138525
0.00128111
0.00148504
0.00132299
0.00297325
0.00141433
0.00135658
0.00135335
0.00162921
0.00105737
0.00248758
0.00173238
0.00210527
0.00118283
0.00147068
0.001181
0.00252494
0.000886912
0.00273571
0.00229115
0.00168962
0.00096065
0.00133055
0.00171466
0.00108922
0.00106576
0.00256909
0.00141924
0.00130531
0.00208391
0.00222753
0.00144727
0.00184646
0.00214515
0.0011461
0.00114817
0.00161489
0.0019545
0.00245605
0.00245724
0.000942923
0.00221039
0.00211093
0.00137817
0.00124032
0.00133797
0.0013388
0.00103546
0.00168009
0.00181407
0.00110724
0.00155026
0.00156441
0.00281643
0.00143789
0.00109062
0.00282725
0.000887832
0.000943905
0.00205523
0.0012226
0.00168749
0.00120457
0.000750063
0.000758721
0.00149041
0.00133903
0.00242582
0.00103529
0.00112734
0.000523209
0.00096395
0.00130692
0.000971416
0.00133552
0.000675558
0.00119813
0.00142426
0.00142753
0.00265134
0.00274297
0.00128841
0.000765406
0.00219371
0.00340077
0.00115135
0.00225314
0.00121511
0.00193927
0.000763792
0.00239386
0.00134338
0.000969973
0.00105664
0.00242673
0.00226247
0.00129062
0.00126249
0.00143977
0.000806309
0.00229147
0.00171339
0.00127663
0.00122936
0.000964906
0.00137101
0.000580152
0.00108525
0.000374849
0.00103312
0.00178772
0.00224543
0.00177799
0.00177956
0.00308085
0.00193761
0.00161985
0.00132457
0.000861083
0.0025688
0.00121749
0.00264111
0.0014518
0.00129517
0.00105022
0.000948943
0.00240953
0.00217673
0.00124754
0.00156854
0.00104308
0.00102741
0.00118803
0.000797216
0.000800932
0.0010499
0.00153597
0.00129321
0.00201289
0.000993511
0.000884694
0.00181245
0.00210032
0.00208734
0.00210349
0.00319492
0.00152705
0.00146333
0.000627243
0.00158073
0.00269186
0.00159872
0.000968366
0.000589612
0.00242093
0.000656965
0.00136036
0.00125591
0.00114532
0.00108132
0.000985126
0.00116603
0.00268331
0.00221076
0.00201855
0.000665545
0.00119898
0.00244297
0.00209145
0.00136121
0.000975604
0.00228325
0.0021119
0.00089352
0.00151313
0.000974839
0.00128155
0.001405
0.00109874
0.00135566
0.00102984
0.00143685
0.00262634
0.00216156
0.00262744
0.000657513
0.00224817
0.00137544
0.00159338
0.000813873
0.00157769
0.00172118
0.000995282
0.00114506
0.00137783
0.00235614
0.00164369
0.00104184
0.00221241
0.00110763
0.00109746
0.00138418
0.000955808
0.00120411
0.00188548
0.00185501
0.00102478
0.00102826
0.000942042
0.00177349
0.00133233
0.0013611
0.00136531
0.00222855
0.00100154
0.000919447
0.00135331
0.0014906
0.00270811
0.00130513
0.00118322
0.00117949
0.00128822
0.00140647
0.00137812
0.00241642
0.0012141
0.00108138
0.000592062
0.000764086
0.00240039
0.00121797
0.00126823
0.00204715
0.00227288
0.00094837
0.00264847
0.00133062
0.00129317
0.00166364
0.00118042
0.0010324
0.00114475
0.00201768
0.00226758
0.0010278
0.00102246
0.000931913
0.00228541
0.00104446