/*--------------------------------*- C++ -*----------------------------------*\
| =========                 |                                                 |
| \\      /  F ield         | OpenFOAM: The Open Source CFD Toolbox           |
|  \\    /   O peration     | Version:  v2012                                 |
|   \\  /    A nd           | Website:  www.openfoam.com                      |
|    \\/     M anipulation  |                                                 |
\*---------------------------------------------------------------------------*/
FoamFile
{
    version     2.0;
    format      ascii;
    class       volSymmTensorField;
    location    "18";
    object      sigma;
}
// * * * * * * * * * * * * * * * * * * * * * * * * * * * * * * * * * * * * * //

dimensions      [1 -1 -2 0 0 0 0];


internalField   nonuniform List<symmTensor> 
8000
(
(-1.3821e+08 2.48297e+06 0 237855 0 1.39411e+07)
(-1.33789e+08 -51030.3 2.82817e-09 -1.84152e+06 3.81385e-09 1.69003e+07)
(-1.08654e+08 4.26511e+06 -7.36497e-08 -5.69681e+06 2.09195e-09 1.92404e+07)
(-1.0815e+08 -1.02846e+06 -7.78658e-08 -3.83477e+06 -7.33981e-09 2.6565e+07)
(-8.25588e+07 4.95596e+06 -6.4676e-08 -8.18689e+06 6.57679e-10 2.99491e+07)
(-8.10538e+07 -2.61487e+06 -1.58556e-08 -5.26341e+06 -2.14826e-08 3.6136e+07)
(-5.75708e+07 4.19868e+06 5.52656e-08 -8.27823e+06 2.00989e-10 3.88922e+07)
(-5.60617e+07 -4.13371e+06 3.59584e-08 -5.33073e+06 1.55418e-08 4.51335e+07)
(-3.47168e+07 3.07229e+06 0 -7.02666e+06 0 4.72206e+07)
(-3.35465e+07 -5.36791e+06 -5.55175e-08 -4.03918e+06 2.31549e-08 5.34496e+07)
(-1.38826e+07 2.02261e+06 -7.80468e-08 -4.78523e+06 -6.63751e-11 5.49662e+07)
(-1.29697e+07 -6.36419e+06 -3.75132e-08 -1.61769e+06 -3.4415e-08 6.0964e+07)
(5.30933e+06 1.1165e+06 -1.88525e-08 -1.65698e+06 -1.35289e-08 6.21691e+07)
(6.08111e+06 -7.18375e+06 -2.25354e-08 1.71338e+06 -1.6061e-08 6.7778e+07)
(2.30857e+07 322541 3.01079e-08 2.27121e+06 2.7023e-08 6.87332e+07)
(2.37872e+07 -7.85844e+06 2.62881e-08 5.77974e+06 2.24188e-08 7.38316e+07)
(3.9578e+07 -400221 3.08303e-08 6.88536e+06 1.21445e-08 7.44748e+07)
(4.02248e+07 -8.39129e+06 3.31677e-08 1.04401e+07 -5.98708e-09 7.89983e+07)
(5.48685e+07 -1.07802e+06 1.61202e-08 1.205e+07 -4.18953e-08 7.91957e+07)
(5.54178e+07 -8.75847e+06 9.62991e-09 1.55622e+07 -5.60032e-09 8.30541e+07)
(6.89902e+07 -1.71849e+06 4.59439e-09 1.76128e+07 1.17347e-08 8.2622e+07)
(6.93503e+07 -8.91613e+06 1.09214e-08 2.10026e+07 -1.71397e-08 8.57276e+07)
(8.19278e+07 -2.31404e+06 2.53511e-09 2.33985e+07 -3.81433e-09 8.44814e+07)
(8.19659e+07 -8.80558e+06 6.00308e-09 2.65924e+07 6.83736e-09 8.67665e+07)
(9.3621e+07 -2.83426e+06 -2.70911e-09 2.91923e+07 -1.12094e-08 8.45886e+07)
(9.31786e+07 -8.3614e+06 3.15692e-09 3.21251e+07 8.14747e-09 8.59952e+07)
(1.03975e+08 -3.22013e+06 -3.37798e-10 3.47345e+07 1.69209e-08 8.28687e+07)
(1.029e+08 -7.52794e+06 -1.89645e-09 3.73502e+07 1.04282e-09 8.33959e+07)
(1.12912e+08 -3.40057e+06 -8.49308e-09 3.97423e+07 -8.2476e-09 7.94269e+07)
(1.11097e+08 -6.27803e+06 -1.4244e-08 4.19841e+07 -8.60793e-09 7.92321e+07)
(1.20439e+08 -3.31043e+06 0 4.39457e+07 0 7.46403e+07)
(1.17851e+08 -4.62635e+06 2.33691e-08 4.57346e+07 1.37276e-08 7.40353e+07)
(1.26691e+08 -2.89e+06 3.04568e-08 4.71231e+07 3.72212e-09 6.90929e+07)
(1.23418e+08 -2.6513e+06 1.3612e-08 4.83314e+07 4.21185e-09 6.84944e+07)
(1.31968e+08 -2.08731e+06 1.99192e-08 4.91406e+07 1.68811e-10 6.34164e+07)
(1.2833e+08 -548175 3.49864e-08 4.95807e+07 1.3717e-08 6.30495e+07)
(1.36459e+08 -855497 -2.76171e-08 4.998e+07 -4.68829e-10 5.76484e+07)
(1.32671e+08 1.53019e+06 -5.15988e-08 4.93396e+07 -1.941e-08 5.72059e+07)
(1.34472e+08 900082 -3.51418e-08 4.97379e+07 -5.81146e-09 5.48376e+07)
(1.3184e+08 3.02082e+06 1.42297e-08 4.76753e+07 4.6896e-09 5.27901e+07)
(-1.4122e+08 1.17641e+07 -1.42986e-09 -1.11251e+06 -3.146e-09 1.38688e+07)
(-1.33297e+08 3.9682e+06 -1.24254e-07 -2.33327e+06 -4.14057e-08 1.43143e+07)
(-1.1012e+08 8.33233e+06 3.65381e-08 -4.47499e+06 2.02154e-08 1.62047e+07)
(-1.0604e+08 786124 4.36283e-08 -3.2254e+06 1.68667e-08 2.48732e+07)
(-8.17689e+07 5.21064e+06 6.49653e-08 -6.57655e+06 1.68291e-08 2.76976e+07)
(-7.86451e+07 -2.57657e+06 3.83965e-08 -3.00565e+06 1.60762e-08 3.51785e+07)
(-5.61826e+07 2.18484e+06 5.54239e-08 -7.02918e+06 1.30934e-08 3.81249e+07)
(-5.37132e+07 -5.72936e+06 3.55376e-08 -1.82582e+06 6.30788e-09 4.42293e+07)
(-3.34976e+07 -723296 7.48153e-08 -5.92276e+06 1.90865e-08 4.74782e+07)
(-3.13334e+07 -8.60421e+06 3.49577e-08 267152 4.30894e-08 5.23829e+07)
(-1.29984e+07 -3.4598e+06 -2.95008e-08 -3.6092e+06 -3.63151e-08 5.58214e+07)
(-1.09606e+07 -1.11782e+07 -1.56241e-08 3.19781e+06 -3.95746e-08 5.9719e+07)
(5.87201e+06 -5.97459e+06 0 -389256 0 6.32993e+07)
(7.80083e+06 -1.34161e+07 1.2476e-08 6.84432e+06 2.161e-09 6.62788e+07)
(2.33738e+07 -8.23795e+06 3.14989e-08 3.53939e+06 5.13801e-08 6.99106e+07)
(2.51327e+07 -1.52772e+07 5.90642e-08 1.10515e+07 4.21964e-08 7.19571e+07)
(3.96267e+07 -1.02353e+07 -3.64284e-09 8.02585e+06 -2.32033e-08 7.54732e+07)
(4.1088e+07 -1.67074e+07 -4.89577e-09 1.56393e+07 9.10112e-09 7.65441e+07)
(5.46917e+07 -1.19442e+07 -2.71056e-08 1.29074e+07 -2.9336e-08 7.97132e+07)
(5.56466e+07 -1.76323e+07 -2.5053e-08 2.04075e+07 -1.96543e-08 7.98006e+07)
(6.85843e+07 -1.33095e+07 1.03124e-08 1.79762e+07 3.91323e-08 8.23635e+07)
(6.87385e+07 -1.79546e+07 -3.60171e-09 2.51361e+07 -8.68206e-09 8.14744e+07)
(8.12541e+07 -1.42257e+07 -1.579e-09 2.29698e+07 -7.77481e-09 8.31892e+07)
(8.02742e+07 -1.75676e+07 9.59302e-11 2.9591e+07 8.07506e-10 8.13607e+07)
(9.25903e+07 -1.45468e+07 -1.56506e-08 2.75957e+07 -2.00849e-08 8.21099e+07)
(9.01972e+07 -1.639e+07 -6.02781e-09 3.35439e+07 -6.98426e-09 7.94778e+07)
(1.02475e+08 -1.41342e+07 -2.26911e-09 3.1591e+07 -2.23533e-09 7.92962e+07)
(9.85187e+07 -1.44015e+07 2.67663e-08 3.67996e+07 2.26805e-08 7.61107e+07)
(1.1084e+08 -1.29032e+07 2.74256e-08 3.47752e+07 2.2971e-08 7.5142e+07)
(1.05342e+08 -1.1659e+07 -1.72919e-08 3.92186e+07 -9.22992e-09 7.17396e+07)
(1.17699e+08 -1.08499e+07 -1.7879e-08 3.70804e+07 -1.36487e-08 7.01845e+07)
(1.10889e+08 -8.2956e+06 3.28553e-09 4.07306e+07 -6.04322e-10 6.69405e+07)
(1.23203e+08 -8.06489e+06 1.14384e-08 3.85542e+07 1.03878e-08 6.50198e+07)
(1.15521e+08 -4.5025e+06 -1.61133e-09 4.13265e+07 2.65977e-09 6.23069e+07)
(1.27686e+08 -4.72188e+06 0 3.93294e+07 0 6.01566e+07)
(1.19815e+08 -503536 2.17569e-08 4.10153e+07 1.29135e-08 5.8096e+07)
(1.31533e+08 -1.02113e+06 5.54661e-08 3.95621e+07 3.07768e-08 5.52202e+07)
(1.237e+08 3.58622e+06 -3.66694e-08 3.97868e+07 -2.29082e-08 5.37842e+07)
(1.31193e+08 3.1595e+06 -2.82764e-08 3.93544e+07 -1.72363e-08 5.13426e+07)
(1.25251e+08 6.59545e+06 -7.1132e-08 3.7962e+07 -4.67804e-08 4.80459e+07)
(-1.37686e+08 1.72149e+07 -7.11809e-10 -3.13415e+06 7.22379e-09 1.48717e+07)
(-1.30873e+08 7.61146e+06 7.98232e-08 -1.51496e+06 6.67302e-08 1.52044e+07)
(-1.06923e+08 1.20008e+07 -2.76129e-09 -5.5844e+06 1.6461e-08 1.82808e+07)
(-1.02434e+08 2.27107e+06 4.27672e-08 -1.81854e+06 2.61698e-08 2.5677e+07)
(-7.86187e+07 6.41107e+06 -2.09318e-08 -5.42311e+06 -3.77835e-08 2.9752e+07)
(-7.46015e+07 -3.31485e+06 -7.30671e-10 -755026 -2.22593e-08 3.65103e+07)
(-5.31421e+07 905783 -2.44697e-08 -3.83474e+06 1.18812e-08 3.97301e+07)
(-4.99631e+07 -8.40131e+06 2.77365e-08 1.39942e+06 3.35196e-08 4.58379e+07)
(-3.07411e+07 -4.05434e+06 2.38414e-09 -1.32641e+06 2.06598e-08 4.86615e+07)
(-2.81338e+07 -1.28389e+07 2.47078e-08 4.37113e+06 3.20775e-08 5.39629e+07)
(-1.0681e+07 -8.45629e+06 1.23879e-08 1.90964e+06 -1.51487e-08 5.66644e+07)
(-8.36185e+06 -1.66521e+07 -3.83861e-08 7.93797e+06 -3.75896e-08 6.1051e+07)
(7.65424e+06 -1.23867e+07 1.27624e-08 5.75501e+06 4.03227e-09 6.37102e+07)
(9.73747e+06 -1.98355e+07 -2.628e-08 1.19012e+07 -2.09601e-09 6.71428e+07)
(2.45685e+07 -1.58709e+07 -3.42332e-08 1.00596e+07 -1.58778e-08 6.95991e+07)
(2.62687e+07 -2.23228e+07 -7.45197e-09 1.60512e+07 -2.02217e-08 7.20623e+07)
(4.01819e+07 -1.88555e+07 0 1.46083e+07 0 7.40246e+07)
(4.12115e+07 -2.40049e+07 -9.19001e-09 2.01537e+07 3.75152e-09 7.54961e+07)
(5.45096e+07 -2.12211e+07 9.7933e-09 1.91153e+07 8.77925e-09 7.66772e+07)
(5.45021e+07 -2.47553e+07 -4.2282e-09 2.39567e+07 -8.49101e-09 7.71543e+07)
(6.74839e+07 -2.27937e+07 -6.77836e-09 2.3234e+07 -9.04193e-09 7.73987e+07)
(6.60887e+07 -2.44696e+07 8.39392e-10 2.72197e+07 1.89174e-09 7.69129e+07)
(7.89807e+07 -2.33868e+07 3.97302e-09 2.66174e+07 4.65792e-09 7.62569e+07)
(7.59811e+07 -2.31118e+07 -1.60822e-08 2.97599e+07 -1.59364e-08 7.49007e+07)
(8.88955e+07 -2.28761e+07 -1.12077e-09 2.90184e+07 -1.27208e-08 7.36029e+07)
(8.42741e+07 -2.074e+07 -1.43343e-09 3.14875e+07 -1.41149e-08 7.15367e+07)
(9.72018e+07 -2.1244e+07 -4.40539e-08 3.03506e+07 -3.03826e-08 6.99778e+07)
(9.11385e+07 -1.75038e+07 1.10769e-08 3.2416e+07 5.46538e-09 6.73909e+07)
(1.0398e+08 -1.85924e+07 1.62898e-08 3.07045e+07 1.68871e-08 6.59434e+07)
(9.68006e+07 -1.36175e+07 -2.05319e-08 3.26478e+07 -2.74095e-09 6.30218e+07)
(1.0943e+08 -1.51238e+07 -1.96443e-08 3.03095e+07 -1.94672e-08 6.19504e+07)
(1.01518e+08 -9.31143e+06 -5.29136e-09 3.23353e+07 -1.61542e-08 5.88688e+07)
(1.13874e+08 -1.10925e+07 -2.32815e-08 2.94541e+07 -2.77245e-08 5.8284e+07)
(1.05576e+08 -4.77489e+06 -3.07562e-08 3.16247e+07 -2.66234e-08 5.52324e+07)
(1.17727e+08 -6.72725e+06 -5.4221e-08 2.84018e+07 -3.40346e-08 5.50388e+07)
(1.09313e+08 -82924.1 3.43504e-08 3.05817e+07 2.09177e-08 5.21433e+07)
(1.212e+08 -2.16415e+06 5.3071e-08 2.73437e+07 3.91864e-08 5.17512e+07)
(1.12766e+08 4.67817e+06 1.38849e-10 2.9261e+07 6.97824e-09 4.8879e+07)
(1.23251e+08 2.60429e+06 0 2.64095e+07 0 4.72365e+07)
(1.14365e+08 9.47287e+06 1.11306e-08 2.71917e+07 7.00675e-09 4.49261e+07)
(-1.33029e+08 2.17953e+07 0 -3.70056e+06 0 1.59586e+07)
(-1.24903e+08 9.99491e+06 0 -2.217e+06 0 1.62769e+07)
(-1.01611e+08 1.27749e+07 -3.86081e-08 -4.7472e+06 -1.86198e-08 1.85697e+07)
(-9.67794e+07 2.20923e+06 3.8826e-08 -1.04942e+06 1.99515e-08 2.68579e+07)
(-7.3155e+07 4.96499e+06 3.21453e-08 -3.66962e+06 1.63003e-08 3.04984e+07)
(-6.94036e+07 -5.24218e+06 0 1.22301e+06 0 3.7776e+07)
(-4.82427e+07 -2.08994e+06 0 -1.06637e+06 0 4.06423e+07)
(-4.54557e+07 -1.17955e+07 -8.12099e-09 4.22858e+06 1.08464e-08 4.68905e+07)
(-2.65975e+07 -8.3514e+06 -6.85035e-08 2.4658e+06 -7.47969e-08 4.92228e+07)
(-2.44622e+07 -1.73956e+07 -2.24902e-08 7.72979e+06 -6.8579e-08 5.46359e+07)
(-7.29174e+06 -1.39172e+07 1.1682e-09 6.56988e+06 2.3568e-08 5.64728e+07)
(-5.65996e+06 -2.20498e+07 2.37574e-08 1.15012e+07 2.705e-08 6.10964e+07)
(1.02582e+07 -1.88264e+07 1.85773e-08 1.09917e+07 1.89452e-08 6.23336e+07)
(1.12873e+07 -2.56919e+07 4.37897e-09 1.52841e+07 3.35345e-08 6.61173e+07)
(2.62676e+07 -2.29932e+07 -1.38721e-08 1.54411e+07 -1.44345e-08 6.65369e+07)
(2.64285e+07 -2.81979e+07 -9.58364e-09 1.87915e+07 -2.96511e-08 6.93661e+07)
(4.0768e+07 -2.62324e+07 -4.12806e-09 1.95466e+07 -9.01707e-09 6.87819e+07)
(3.97256e+07 -2.9437e+07 4.39224e-09 2.17376e+07 8.29043e-09 7.0572e+07)
(5.36943e+07 -2.83006e+07 8.07097e-09 2.28694e+07 9.72155e-09 6.90176e+07)
(5.11801e+07 -2.93349e+07 -7.90883e-09 2.38901e+07 -1.00381e-08 6.97638e+07)
(6.49568e+07 -2.89919e+07 -1.97231e-09 2.50255e+07 -4.05464e-09 6.75737e+07)
(6.09036e+07 -2.79346e+07 3.26302e-08 2.51294e+07 2.37312e-08 6.73597e+07)
(7.45269e+07 -2.82493e+07 8.624e-10 2.58511e+07 1.48299e-08 6.50554e+07)
(6.91081e+07 -2.54084e+07 -2.27922e-08 2.54772e+07 3.93979e-09 6.40257e+07)
(8.24711e+07 -2.61911e+07 3.41211e-08 2.54512e+07 2.02963e-08 6.21417e+07)
(7.60519e+07 -2.2021e+07 3.83812e-08 2.50823e+07 1.53326e-08 6.04362e+07)
(8.89644e+07 -2.30895e+07 1.52803e-08 2.41566e+07 2.03082e-08 5.93435e+07)
(8.19711e+07 -1.80621e+07 -1.34416e-08 2.41684e+07 3.84533e-09 5.7076e+07)
(9.4266e+07 -1.92933e+07 -2.02993e-09 2.23929e+07 -1.76229e-08 5.68668e+07)
(8.70473e+07 -1.378e+07 -2.79195e-08 2.29652e+07 -3.85524e-08 5.41521e+07)
(9.86723e+07 -1.51323e+07 -3.41628e-08 2.05315e+07 -3.87996e-08 5.46764e+07)
(9.14471e+07 -9.36421e+06 -4.41931e-08 2.16671e+07 -4.49808e-08 5.16437e+07)
(1.0246e+08 -1.08501e+07 -4.39792e-08 1.88069e+07 -5.11305e-08 5.26917e+07)
(9.53359e+07 -4.93594e+06 -2.64487e-08 2.04205e+07 -4.75165e-08 4.94577e+07)
(1.05908e+08 -6.58291e+06 -4.226e-08 1.73131e+07 -3.41621e-08 5.08094e+07)
(9.88518e+07 -513546 3.85027e-08 1.93296e+07 3.35359e-08 4.7447e+07)
(1.09192e+08 -2.39819e+06 1.24649e-08 1.60676e+07 5.78118e-09 4.86152e+07)
(1.01976e+08 3.94022e+06 1.37543e-08 1.84331e+07 1.42226e-08 4.50873e+07)
(1.11661e+08 1.8773e+06 -2.97124e-08 1.50022e+07 -3.53961e-08 4.53894e+07)
(1.03795e+08 8.30113e+06 -3.71156e-08 1.78598e+07 -3.83051e-08 4.20219e+07)
(-1.24376e+08 2.51343e+07 -1.27837e-10 -5.36037e+06 1.36564e-12 1.78696e+07)
(-1.15755e+08 1.1856e+07 -6.64262e-08 -2.38729e+06 -1.56517e-08 1.75249e+07)
(-9.45837e+07 1.28995e+07 -1.92733e-08 -4.39287e+06 1.22787e-08 2.02685e+07)
(-8.88485e+07 1.70389e+06 5.70154e-08 -167669 1.33507e-08 2.79067e+07)
(-6.68233e+07 2.65457e+06 5.05847e-08 -1.8452e+06 9.5962e-09 3.14837e+07)
(-6.28347e+07 -7.51918e+06 -8.22062e-08 2.96232e+06 -3.44871e-08 3.85616e+07)
(-4.26973e+07 -6.02323e+06 -3.15835e-08 1.83636e+06 -3.74663e-08 4.06757e+07)
(-4.02816e+07 -1.52764e+07 -2.11212e-08 6.51025e+06 -5.41937e-08 4.70249e+07)
(-2.18898e+07 -1.3383e+07 2.17742e-08 6.19673e+06 1.71662e-08 4.78946e+07)
(-2.06773e+07 -2.16235e+07 2.9926e-08 1.01605e+07 6.30176e-09 5.36652e+07)
(-3.504e+06 -1.968e+07 5.91847e-09 1.0872e+07 -1.09707e-08 5.32386e+07)
(-3.36962e+06 -2.65941e+07 -3.703e-08 1.36224e+07 -1.76303e-08 5.84054e+07)
(1.29259e+07 -2.49186e+07 -1.1861e-08 1.54158e+07 -3.08122e-10 5.6578e+07)
(1.18576e+07 -3.0091e+07 -2.13787e-08 1.65801e+07 -1.90712e-08 6.09565e+07)
(2.74954e+07 -2.88951e+07 0 1.92725e+07 0 5.77891e+07)
(2.50171e+07 -3.19786e+07 -4.99623e-09 1.87234e+07 -4.26796e-09 6.11817e+07)
(4.01607e+07 -3.13061e+07 1.09919e-08 2.18475e+07 1.07134e-08 5.71144e+07)
(3.61876e+07 -3.22199e+07 1.49992e-08 1.98352e+07 1.0568e-08 5.94527e+07)
(5.09121e+07 -3.19557e+07 -1.5074e-08 2.27282e+07 -4.64851e-09 5.52965e+07)
(4.56281e+07 -3.09726e+07 -5.23842e-08 1.98853e+07 -2.80009e-08 5.6617e+07)
(5.98814e+07 -3.0928e+07 -2.33322e-08 2.19581e+07 -1.75576e-08 5.31912e+07)
(5.36959e+07 -2.85568e+07 1.68199e-08 1.90392e+07 -1.63444e-08 5.3569e+07)
(6.73097e+07 -2.85503e+07 6.45735e-09 1.99795e+07 3.39107e-08 5.14231e+07)
(6.07292e+07 -2.53552e+07 -2.06935e-08 1.75915e+07 1.15759e-08 5.09274e+07)
(7.35132e+07 -2.52912e+07 4.95057e-08 1.74217e+07 -5.08388e-09 5.02095e+07)
(6.69527e+07 -2.17001e+07 2.14222e-08 1.58577e+07 -2.55381e-08 4.89359e+07)
(7.88061e+07 -2.15988e+07 -1.30114e-08 1.48369e+07 -3.53554e-08 4.94156e+07)
(7.24745e+07 -1.78187e+07 -1.3396e-09 1.40909e+07 -1.09503e-08 4.75101e+07)
(8.34398e+07 -1.77724e+07 -3.06146e-08 1.25313e+07 -2.05936e-08 4.87706e+07)
(7.7338e+07 -1.38399e+07 -1.62704e-09 1.24532e+07 1.05415e-08 4.64157e+07)
(8.75886e+07 -1.39534e+07 -2.0242e-08 1.05866e+07 -2.72405e-08 4.80348e+07)
(8.16406e+07 -9.85561e+06 -3.11547e-08 1.1042e+07 -4.26116e-08 4.53743e+07)
(9.13449e+07 -1.0174e+07 -2.14386e-08 8.9682e+06 -2.76324e-08 4.71581e+07)
(8.54603e+07 -5.90362e+06 -4.52777e-08 9.89678e+06 -4.79897e-08 4.42955e+07)
(9.48842e+07 -6.455e+06 -5.93089e-08 7.62738e+06 -7.15498e-08 4.60684e+07)
(8.88664e+07 -1.98564e+06 -1.53891e-08 9.0378e+06 -3.51478e-08 4.31236e+07)
(9.81059e+07 -2.75564e+06 -1.29943e-08 6.51882e+06 -6.25396e-09 4.47834e+07)
(9.19531e+07 1.83748e+06 -1.35244e-08 8.54208e+06 -1.51991e-08 4.15609e+07)
(1.00955e+08 889490 2.89791e-08 5.62682e+06 3.12581e-08 4.27e+07)
(9.40603e+07 5.54021e+06 1.36701e-08 8.42858e+06 1.5317e-08 3.93782e+07)
(-1.12369e+08 2.66794e+07 1.92122e-08 -6.8709e+06 1.42685e-08 2.02149e+07)
(-1.03694e+08 1.29583e+07 -2.69996e-08 -2.46091e+06 3.86107e-08 1.92143e+07)
(-8.5444e+07 1.19106e+07 0 -3.6227e+06 0 2.20731e+07)
(-7.89615e+07 947024 1.23376e-07 797479 3.05368e-08 2.87321e+07)
(-5.94324e+07 -364446 9.13757e-08 398242 6.07799e-08 3.18513e+07)
(-5.50988e+07 -9.59913e+06 1.97814e-08 4.526e+06 6.63935e-08 3.83121e+07)
(-3.67357e+07 -1.04236e+07 -1.5733e-08 5.10844e+06 -5.76755e-08 3.89895e+07)
(-3.45707e+07 -1.81672e+07 -2.77489e-09 8.23285e+06 -2.30961e-08 4.50107e+07)
(-1.71861e+07 -1.85933e+07 -3.01424e-08 1.01246e+07 -7.80669e-09 4.32976e+07)
(-1.6986e+07 -2.48079e+07 5.60086e-08 1.15576e+07 1.47033e-08 4.89377e+07)
(-153703 -2.50547e+07 3.36625e-08 1.48794e+07 3.21817e-08 4.49443e+07)
(-1.85534e+06 -2.95125e+07 4.47784e-08 1.41185e+07 5.25916e-08 5.00504e+07)
(1.45993e+07 -2.96913e+07 2.93332e-08 1.86138e+07 5.28616e-08 4.42146e+07)
(1.09947e+07 -3.22009e+07 5.13492e-08 1.55511e+07 5.947e-08 4.86801e+07)
(2.70254e+07 -3.2261e+07 -9.23521e-09 2.04755e+07 -4.27196e-10 4.20525e+07)
(2.17567e+07 -3.29333e+07 1.7331e-08 1.5668e+07 7.29244e-09 4.58287e+07)
(3.72079e+07 -3.26944e+07 -1.20858e-08 1.99659e+07 1.65596e-08 3.98885e+07)
(3.08652e+07 -3.2059e+07 2.35294e-08 1.46027e+07 3.43692e-08 4.28256e+07)
(4.55096e+07 -3.13708e+07 6.70409e-08 1.7564e+07 4.16488e-08 3.86372e+07)
(3.87949e+07 -3.00704e+07 1.62913e-08 1.27293e+07 3.14877e-08 4.0585e+07)
(5.24177e+07 -2.89016e+07 -5.73879e-09 1.42422e+07 2.87221e-08 3.84619e+07)
(4.59006e+07 -2.74235e+07 3.12709e-08 1.04896e+07 6.19996e-08 3.93796e+07)
(5.84122e+07 -2.58975e+07 2.08666e-08 1.08807e+07 1.33986e-08 3.90111e+07)
(5.23616e+07 -2.44257e+07 7.5147e-09 8.2367e+06 3.77617e-08 3.90156e+07)
(6.38266e+07 -2.27649e+07 1.39832e-08 7.95415e+06 1.54503e-08 3.98e+07)
(5.82213e+07 -2.12313e+07 -1.36117e-08 6.17433e+06 -1.55735e-08 3.90913e+07)
(6.87899e+07 -1.96344e+07 2.87622e-08 5.54858e+06 5.40099e-08 4.0491e+07)
(6.34751e+07 -1.79057e+07 -2.7638e-08 4.38414e+06 -8.56928e-09 3.92603e+07)
(7.33315e+07 -1.64934e+07 2.50468e-08 3.56193e+06 8.82477e-09 4.09252e+07)
(6.81428e+07 -1.44977e+07 -7.58075e-10 2.89141e+06 -3.30713e-08 3.93073e+07)
(7.74632e+07 -1.33169e+07 2.94415e-08 1.89535e+06 2.11858e-08 4.10658e+07)
(7.23254e+07 -1.10698e+07 -3.38036e-10 1.70355e+06 1.03305e-08 3.91151e+07)
(8.12221e+07 -1.01115e+07 -2.1333e-08 503843 -2.84469e-08 4.09525e+07)
(7.60361e+07 -7.6311e+06 -4.54192e-08 798569 -4.84996e-08 3.87541e+07)
(8.47471e+07 -6.92289e+06 -4.46366e-08 -636787 -5.8241e-08 4.05686e+07)
(7.94425e+07 -4.27514e+06 -2.34019e-09 218623 -3.03142e-08 3.81639e+07)
(8.80784e+07 -3.74773e+06 -3.99196e-09 -1.57782e+06 7.55534e-09 3.99849e+07)
(8.25121e+07 -985886 -4.23651e-08 -60500.3 -2.86634e-08 3.73929e+07)
(9.10263e+07 -554145 -3.5882e-08 -2.34548e+06 -5.48683e-08 3.89443e+07)
(8.49271e+07 2.16361e+06 -3.39612e-08 -20025.5 -5.71378e-08 3.6044e+07)
(-9.76884e+07 2.62533e+07 -4.93487e-08 -7.95318e+06 1.04662e-09 2.26513e+07)
(-8.94529e+07 1.33886e+07 -7.43531e-08 -2.59178e+06 -1.62173e-08 2.11998e+07)
(-7.44766e+07 9.99264e+06 -8.54093e-08 -2.44175e+06 -8.72314e-08 2.34562e+07)
(-6.75103e+07 104203 -1.86475e-08 1.58253e+06 -7.41393e-08 2.8857e+07)
(-5.10746e+07 -3.83197e+06 0 3.23341e+06 0 3.04729e+07)
(-4.64021e+07 -1.12767e+07 -1.57528e-08 5.75272e+06 1.47714e-08 3.57319e+07)
(-3.05512e+07 -1.4916e+07 1.18485e-08 8.91688e+06 3.62432e-08 3.37677e+07)
(-2.8587e+07 -2.00822e+07 -1.42725e-08 9.28601e+06 -3.36732e-08 3.84138e+07)
(-1.30516e+07 -2.33104e+07 1.94244e-08 1.40153e+07 7.48789e-09 3.31074e+07)
(-1.3821e+07 -2.62616e+07 0 1.16542e+07 0 3.7234e+07)
(1.75304e+06 -2.89802e+07 -8.02726e-09 1.76456e+07 -1.15684e-08 2.94669e+07)
(-1.59065e+06 -2.98824e+07 -1.57069e-08 1.24369e+07 -1.74916e-08 3.33581e+07)
(1.40116e+07 -3.16935e+07 2.19742e-08 1.8695e+07 3.99278e-09 2.49909e+07)
(8.577e+06 -3.12358e+07 -3.83403e-08 1.15528e+07 -7.56418e-09 2.90093e+07)
(2.38283e+07 -3.16577e+07 -8.11417e-09 1.6555e+07 -1.35095e-08 2.24083e+07)
(1.73592e+07 -3.10087e+07 2.41382e-08 9.46538e+06 -6.2214e-09 2.60971e+07)
(3.17495e+07 -2.99804e+07 -3.47003e-08 1.26301e+07 -2.5124e-09 2.22835e+07)
(2.52026e+07 -2.98392e+07 -1.85112e-08 6.81758e+06 -4.23471e-09 2.51957e+07)
(3.84257e+07 -2.76795e+07 3.51217e-08 8.51786e+06 1.43609e-08 2.37962e+07)
(3.23258e+07 -2.81271e+07 1.45313e-08 4.12052e+06 1.51616e-08 2.58159e+07)
(4.44176e+07 -2.5313e+07 -1.50525e-08 5.02154e+06 -1.52059e-08 2.59083e+07)
(3.88486e+07 -2.60746e+07 -1.86768e-08 1.65695e+06 -1.88062e-09 2.71627e+07)
(5.00231e+07 -2.30247e+07 -1.77654e-08 2.24317e+06 -2.67547e-08 2.79579e+07)
(4.48243e+07 -2.37678e+07 2.07469e-08 -474272 -2.11818e-08 2.86273e+07)
(5.52424e+07 -2.07593e+07 1.87241e-08 -74205.5 2.70236e-08 2.97775e+07)
(5.02348e+07 -2.12243e+07 3.02295e-08 -2.28627e+06 4.18916e-08 2.99505e+07)
(6.00236e+07 -1.83784e+07 1.04329e-08 -2.06924e+06 5.87456e-08 3.13006e+07)
(5.51165e+07 -1.8494e+07 1.08667e-07 -3.80141e+06 1.29416e-07 3.10085e+07)
(6.4377e+07 -1.58635e+07 1.01176e-07 -3.80071e+06 9.48857e-08 3.24989e+07)
(5.95233e+07 -1.56477e+07 -2.24045e-08 -5.02715e+06 2.49646e-08 3.17547e+07)
(6.83513e+07 -1.32578e+07 -1.27544e-08 -5.25811e+06 -3.54177e-08 3.33379e+07)
(6.3504e+07 -1.27252e+07 -2.34819e-08 -5.99223e+06 -4.92783e-08 3.21808e+07)
(7.20154e+07 -1.05894e+07 -7.16198e-09 -6.4771e+06 1.79192e-08 3.38304e+07)
(6.70881e+07 -9.77143e+06 5.80672e-09 -6.70322e+06 1.23599e-08 3.2371e+07)
(7.54535e+07 -7.8738e+06 4.19739e-08 -7.51325e+06 3.73883e-08 3.4129e+07)
(7.04198e+07 -6.84509e+06 5.20124e-08 -7.18367e+06 4.11249e-08 3.24759e+07)
(7.87405e+07 -5.16101e+06 5.64263e-08 -8.35452e+06 8.36065e-08 3.43357e+07)
(7.3636e+07 -4.09341e+06 2.59108e-08 -7.34739e+06 5.96485e-08 3.23677e+07)
(8.18543e+07 -2.50039e+06 5.21547e-08 -8.96873e+06 6.28068e-08 3.4043e+07)
(7.62972e+07 -1.439e+06 4.8254e-08 -7.23843e+06 5.60981e-08 3.17337e+07)
(-8.14484e+07 2.39999e+07 7.89878e-09 -8.00864e+06 1.90492e-08 2.41548e+07)
(-7.38815e+07 1.29843e+07 8.97957e-08 -2.91135e+06 9.11421e-08 2.24967e+07)
(-6.20027e+07 7.09765e+06 3.01168e-08 -352720 -1.2776e-07 2.25173e+07)
(-5.51709e+07 -797752 -1.26594e-07 1.99191e+06 -1.17708e-07 2.65122e+07)
(-4.18405e+07 -7.52819e+06 -1.14979e-07 6.81548e+06 -6.47721e-08 2.46244e+07)
(-3.74051e+07 -1.21214e+07 1.94735e-08 6.02124e+06 -4.38633e-08 2.81559e+07)
(-2.44563e+07 -1.87857e+07 -1.05734e-08 1.2695e+07 -2.2802e-08 2.19088e+07)
(-2.29497e+07 -2.0197e+07 1.16854e-08 8.37387e+06 1.76702e-08 2.47048e+07)
(-1.02056e+07 -2.62912e+07 5.66919e-09 1.63122e+07 -3.05455e-09 1.52866e+07)
(-1.15953e+07 -2.50286e+07 -1.97655e-08 8.56182e+06 -5.23299e-09 1.84573e+07)
(996502 -2.99611e+07 -1.88783e-08 1.55002e+07 -2.83453e-08 9.47584e+06)
(-2.30327e+06 -2.72875e+07 6.88116e-08 6.7983e+06 -2.1299e-08 1.28113e+07)
(1.00534e+07 -2.98023e+07 1.14714e-08 1.04584e+07 2.23267e-08 7.69034e+06)
(5.95691e+06 -2.8075e+07 -4.86295e-08 4.04017e+06 1.77526e-08 9.98705e+06)
(1.80182e+07 -2.80105e+07 -1.51293e-08 5.13944e+06 -2.68176e-08 8.39829e+06)
(1.35264e+07 -2.80387e+07 1.02854e-07 1.06589e+06 1.20793e-08 1.01405e+07)
(2.52103e+07 -2.61003e+07 9.50033e-09 1.39064e+06 1.00226e-07 1.01069e+07)
(2.05688e+07 -2.75401e+07 -4.02969e-08 -1.65055e+06 8.68448e-08 1.1841e+07)
(3.16997e+07 -2.44552e+07 5.531e-08 -1.11891e+06 1.18871e-09 1.22385e+07)
(2.70042e+07 -2.66436e+07 -1.54235e-08 -3.97e+06 -2.80407e-08 1.4014e+07)
(3.75906e+07 -2.29673e+07 -1.96675e-08 -3.1739e+06 -2.7449e-08 1.45833e+07)
(3.27948e+07 -2.53083e+07 2.06454e-08 -5.9588e+06 -2.58716e-08 1.62908e+07)
(4.30694e+07 -2.13279e+07 2.27624e-08 -5.25357e+06 5.38565e-08 1.70341e+07)
(3.80676e+07 -2.35802e+07 1.71267e-08 -7.69602e+06 5.2613e-08 1.85777e+07)
(4.79554e+07 -1.95938e+07 3.6892e-08 -7.06751e+06 4.25681e-08 1.93935e+07)
(4.29659e+07 -2.16063e+07 1.71134e-08 -9.15943e+06 3.92484e-08 2.0533e+07)
(5.23816e+07 -1.77039e+07 -2.0522e-08 -8.70116e+06 -3.95628e-08 2.15301e+07)
(4.74229e+07 -1.94133e+07 -3.11485e-09 -1.03728e+07 -2.31699e-08 2.21534e+07)
(5.64488e+07 -1.57104e+07 -6.35522e-09 -1.00771e+07 -2.38479e-08 2.32334e+07)
(5.14736e+07 -1.7044e+07 -1.92692e-08 -1.13711e+07 -2.64073e-08 2.33631e+07)
(6.01854e+07 -1.35834e+07 -7.44484e-09 -1.12521e+07 1.98315e-08 2.45156e+07)
(5.51508e+07 -1.45313e+07 6.28702e-08 -1.21936e+07 6.058e-08 2.42844e+07)
(6.36301e+07 -1.13327e+07 4.58704e-08 -1.23401e+07 5.67043e-08 2.56214e+07)
(5.85906e+07 -1.19973e+07 1.33934e-08 -1.28086e+07 3.49474e-08 2.50907e+07)
(6.69259e+07 -9.05934e+06 2.8124e-08 -1.32427e+07 2.04241e-08 2.66389e+07)
(6.19338e+07 -9.56876e+06 2.66059e-08 -1.31389e+07 1.95841e-08 2.57974e+07)
(7.01989e+07 -6.85071e+06 2.0105e-08 -1.39039e+07 3.76022e-08 2.75334e+07)
(6.52003e+07 -7.26321e+06 1.71845e-08 -1.32129e+07 3.58299e-08 2.62966e+07)
(7.33804e+07 -4.67121e+06 1.25143e-09 -1.43681e+07 -1.894e-08 2.78526e+07)
(6.80003e+07 -4.99277e+06 -3.49115e-08 -1.30929e+07 -3.92179e-08 2.62009e+07)
(-6.46143e+07 2.01431e+07 -5.44532e-09 -6.67321e+06 -1.7868e-08 2.22203e+07)
(-5.78808e+07 1.18005e+07 2.50654e-08 -3.73535e+06 -4.07489e-08 2.03111e+07)
(-4.86306e+07 3.46887e+06 4.48038e-08 2.71452e+06 -7.86834e-09 1.58052e+07)
(-4.29014e+07 -1.37366e+06 -4.59845e-10 1.10163e+06 -1.65455e-08 1.86554e+07)
(-3.21684e+07 -1.06436e+07 -1.46763e-08 1.01978e+07 -5.82692e-09 1.09221e+07)
(-2.88602e+07 -1.16375e+07 -1.63344e-08 4.02111e+06 -4.77116e-09 1.42928e+07)
(-1.89848e+07 -2.06283e+07 8.22914e-09 1.4087e+07 -6.81401e-09 3.32509e+06)
(-1.77549e+07 -1.85767e+07 -2.20337e-08 4.79773e+06 -6.23858e-09 7.01486e+06)
(-8.68426e+06 -2.46917e+07 -3.61999e-08 1.05106e+07 -5.7455e-09 -691256)
(-9.26815e+06 -2.27741e+07 -3.75543e-08 4.15591e+06 -9.72354e-09 1.30371e+06)
(-2.00755e+06 -2.44807e+07 -3.34821e-08 4.2841e+06 4.24209e-08 301881)
(-3.57341e+06 -2.36965e+07 3.06259e-08 1.52959e+06 2.45702e-08 1.15721e+06)
(4.49663e+06 -2.42948e+07 7.85557e-08 -31115.5 2.21243e-08 1.47745e+06)
(3.45434e+06 -2.43779e+07 -2.05699e-08 -1.17033e+06 4.47218e-09 1.66902e+06)
(1.18047e+07 -2.45511e+07 -1.6845e-08 -2.93755e+06 -2.9287e-08 2.43864e+06)
(1.03338e+07 -2.4698e+07 4.34098e-08 -3.67288e+06 -2.01309e-08 2.9633e+06)
(1.91495e+07 -2.43478e+07 -1.34862e-08 -5.53124e+06 -6.89496e-08 3.6141e+06)
(1.66497e+07 -2.44965e+07 -9.15676e-08 -6.11315e+06 -5.57322e-08 4.5956e+06)
(2.58872e+07 -2.33706e+07 -9.86884e-08 -7.96038e+06 -2.67677e-08 5.03895e+06)
(2.25662e+07 -2.39677e+07 3.80533e-08 -8.44675e+06 -2.78554e-09 6.30463e+06)
(3.15587e+07 -2.18196e+07 5.94703e-08 -9.93931e+06 4.45065e-08 7.02344e+06)
(2.83379e+07 -2.35595e+07 -5.38048e-08 -1.02018e+07 -1.80042e-08 7.80172e+06)
(3.69422e+07 -2.04423e+07 -1.27752e-08 -1.11955e+07 1.26743e-08 8.70186e+06)
(3.29089e+07 -2.25195e+07 -6.69365e-08 -1.17949e+07 -1.89065e-08 1.00976e+07)
(4.15591e+07 -1.88961e+07 -2.3206e-08 -1.22983e+07 -2.74256e-08 1.05627e+07)
(3.71582e+07 -2.11794e+07 2.90236e-08 -1.31558e+07 -9.41575e-09 1.19996e+07)
(4.57092e+07 -1.73804e+07 3.26414e-08 -1.33202e+07 1.64245e-08 1.22472e+07)
(4.09842e+07 -1.95026e+07 1.62571e-08 -1.43806e+07 1.45641e-08 1.3622e+07)
(4.94147e+07 -1.58027e+07 1.63048e-08 -1.44437e+07 1.50761e-08 1.38259e+07)
(4.45226e+07 -1.75935e+07 -4.6681e-08 -1.54775e+07 -3.1893e-08 1.50145e+07)
(5.2832e+07 -1.39772e+07 -4.96805e-08 -1.57286e+07 -6.79455e-08 1.55104e+07)
(4.79046e+07 -1.56215e+07 -1.49163e-08 -1.6345e+07 -4.73973e-08 1.63792e+07)
(5.60633e+07 -1.21326e+07 -3.07872e-08 -1.67241e+07 -2.98927e-08 1.71225e+07)
(5.12066e+07 -1.37012e+07 1.54279e-09 -1.69014e+07 1.07334e-08 1.75862e+07)
(5.92538e+07 -1.03262e+07 -3.96688e-08 -1.74339e+07 -4.30497e-08 1.85812e+07)
(5.44039e+07 -1.18119e+07 5.27683e-09 -1.71971e+07 -8.63151e-09 1.86563e+07)
(6.24179e+07 -8.54454e+06 -6.22713e-09 -1.79262e+07 1.85195e-08 1.98542e+07)
(5.75027e+07 -9.93226e+06 -8.43254e-09 -1.73029e+07 1.74478e-08 1.9522e+07)
(6.54751e+07 -6.70802e+06 2.95666e-08 -1.82973e+07 3.04496e-08 2.0627e+07)
(6.02704e+07 -8.03395e+06 3.91009e-08 -1.72556e+07 2.83437e-08 1.98196e+07)
(-4.82047e+07 1.52565e+07 1.96532e-08 -3.61203e+06 -1.29664e-08 1.25913e+07)
(-4.24259e+07 9.86287e+06 -4.87895e-08 -5.3136e+06 -3.23272e-08 1.18669e+07)
(-3.55953e+07 -20511.7 1.08195e-08 5.19032e+06 3.20356e-09 2.04837e+06)
(-3.08502e+07 -2.65508e+06 -1.36627e-08 280684 2.11375e-09 4.65017e+06)
(-2.28524e+07 -1.16497e+07 -5.84415e-08 9.65542e+06 3.74369e-08 -4.95626e+06)
(-2.02471e+07 -1.25422e+07 5.5039e-08 5.03308e+06 2.8274e-08 -2.86846e+06)
(-1.55288e+07 -1.51249e+07 1.05407e-07 5.84421e+06 1.92213e-08 -3.6782e+06)
(-1.55848e+07 -1.53195e+07 -1.92304e-08 4.22223e+06 7.96761e-09 -2.27514e+06)
(-9.67246e+06 -1.68873e+07 -3.56241e-08 2.47483e+06 -7.76115e-09 -2.69507e+06)
(-8.93728e+06 -1.73363e+07 -1.61359e-08 1.43879e+06 -1.52134e-08 -1.88657e+06)
(-3.62572e+06 -1.84743e+07 -3.20183e-08 70503.2 -3.0971e-08 -2.17378e+06)
(-3.25563e+06 -1.91552e+07 -3.54566e-08 -767285 -9.32074e-09 -780679)
(2.52665e+06 -1.96539e+07 -1.98813e-08 -2.17113e+06 5.80115e-09 -1.14441e+06)
(2.41652e+06 -2.02965e+07 1.43769e-09 -2.80659e+06 -1.97625e-08 408636)
(8.60979e+06 -2.03951e+07 3.41314e-08 -4.38423e+06 4.35219e-08 128500)
(8.10361e+06 -2.08268e+07 5.069e-08 -4.84681e+06 3.92873e-08 1.50474e+06)
(1.44969e+07 -2.07384e+07 9.04864e-08 -6.56168e+06 3.86818e-08 1.34906e+06)
(1.36233e+07 -2.09231e+07 1.76418e-08 -6.77092e+06 1.49083e-08 2.50032e+06)
(2.02661e+07 -2.07939e+07 -3.32403e-08 -8.65613e+06 2.61101e-11 2.45794e+06)
(1.89623e+07 -2.07124e+07 1.24073e-07 -8.51424e+06 8.25738e-08 3.42604e+06)
(2.58352e+07 -2.05053e+07 7.02825e-08 -1.071e+07 1.12629e-07 3.67766e+06)
(2.4179e+07 -2.01518e+07 6.38728e-08 -1.04998e+07 1.27347e-07 4.4204e+06)
(3.10035e+07 -1.97747e+07 3.50459e-08 -1.27245e+07 -2.0238e-09 4.83885e+06)
(2.87719e+07 -1.94399e+07 -4.98599e-08 -1.24244e+07 -1.34397e-08 5.46262e+06)
(3.57116e+07 -1.86128e+07 -8.43958e-08 -1.46092e+07 -8.67607e-08 5.82763e+06)
(3.28729e+07 -1.85755e+07 -6.1416e-08 -1.42429e+07 -6.94816e-08 6.47485e+06)
(3.98993e+07 -1.71016e+07 -5.102e-08 -1.62118e+07 -1.61834e-08 6.69322e+06)
(3.6553e+07 -1.76407e+07 6.5392e-08 -1.57739e+07 3.09752e-08 7.51117e+06)
(4.32065e+07 -1.53465e+07 5.79016e-08 -1.73859e+07 4.42185e-08 8.03697e+06)
(3.98684e+07 -1.66543e+07 3.99195e-08 -1.68847e+07 4.15411e-08 8.72218e+06)
(4.64446e+07 -1.39066e+07 6.35436e-08 -1.8023e+07 9.32296e-08 9.17456e+06)