/*--------------------------------*- C++ -*----------------------------------*\
| =========                 |                                                 |
| \\      /  F ield         | OpenFOAM: The Open Source CFD Toolbox           |
|  \\    /   O peration     | Version:  v2012                                 |
|   \\  /    A nd           | Website:  www.openfoam.com                      |
|    \\/     M anipulation  |                                                 |
\*---------------------------------------------------------------------------*/
FoamFile
{
    version     2.0;
    format      ascii;
    class       volScalarField;
    location    "18";
    object      sigmaHyd;
}
// * * * * * * * * * * * * * * * * * * * * * * * * * * * * * * * * * * * * * //

dimensions      [1 -1 -2 0 0 0 0];


internalField   nonuniform List<scalar> 
8000
(
-4.13436e+07
-3.95767e+07
-3.17034e+07
-2.84732e+07
-2.02655e+07
-1.67271e+07
-8.9856e+06
-5.41964e+06
1.8257e+06
5.28796e+06
1.20995e+07
1.54589e+07
2.19405e+07
2.51908e+07
3.13634e+07
3.44662e+07
4.03127e+07
4.32211e+07
4.87047e+07
5.13447e+07
5.64083e+07
5.86935e+07
6.32692e+07
6.51083e+07
6.9134e+07
7.0433e+07
7.38595e+07
7.45488e+07
7.73604e+07
7.74379e+07
7.9675e+07
7.9207e+07
8.09692e+07
8.00814e+07
8.15082e+07
8.03199e+07
8.13623e+07
7.97386e+07
7.96826e+07
7.74352e+07
-4.28214e+07
-4.04387e+07
-3.27966e+07
-2.81308e+07
-2.0216e+07
-1.54908e+07
-8.36229e+06
-3.76993e+06
2.68595e+06
7.10556e+06
1.30713e+07
1.73188e+07
2.29273e+07
2.69747e+07
3.22746e+07
3.60471e+07
4.10419e+07
4.44238e+07
4.91041e+07
5.19515e+07
5.6308e+07
5.84497e+07
6.24711e+07
6.3742e+07
6.7432e+07
6.77396e+07
7.11208e+07
7.04763e+07
7.35856e+07
7.21002e+07
7.49878e+07
7.28535e+07
7.55924e+07
7.30515e+07
7.57238e+07
7.29754e+07
7.54384e+07
7.24238e+07
7.39633e+07
7.04197e+07
-4.19827e+07
-3.9061e+07
-3.14087e+07
-2.61917e+07
-1.80966e+07
-1.29487e+07
-5.7489e+06
-908615
5.53134e+06
1.00667e+07
1.59643e+07
2.0209e+07
2.57065e+07
2.95938e+07
3.47424e+07
3.81274e+07
4.29383e+07
4.56204e+07
5.01007e+07
5.1871e+07
5.60388e+07
5.67404e+07
6.06183e+07
6.02139e+07
6.3839e+07
6.24328e+07
6.58434e+07
6.36485e+07
6.6876e+07
6.41568e+07
6.72299e+07
6.42406e+07
6.72042e+07
6.41444e+07
6.7056e+07
6.40128e+07
6.67651e+07
6.36352e+07
6.56322e+07
6.21608e+07
-4.02569e+07
-3.69478e+07
-2.92629e+07
-2.3657e+07
-1.54421e+07
-1.01348e+07
-2.88893e+06
1.8878e+06
8.3637e+06
1.26345e+07
1.85837e+07
2.23126e+07
2.78612e+07
3.08962e+07
3.60818e+07
3.81954e+07
4.30321e+07
4.40117e+07
4.85271e+07
4.8278e+07
5.25187e+07
5.11309e+07
5.51445e+07
5.28703e+07
5.6688e+07
5.38568e+07
5.74882e+07
5.44052e+07
5.78419e+07
5.47215e+07
5.79601e+07
5.49193e+07
5.79863e+07
5.50714e+07
5.80101e+07
5.52095e+07
5.79583e+07
5.51656e+07
5.7351e+07
5.4559e+07
-3.72891e+07
-3.3539e+07
-2.6236e+07
-2.03698e+07
-1.23949e+07
-7.10359e+06
-61736.4
4.41783e+06
1.07338e+07
1.43828e+07
2.02022e+07
2.28861e+07
2.83066e+07
2.97981e+07
3.48523e+07
3.49741e+07
3.97075e+07
3.84918e+07
4.29789e+07
4.07102e+07
4.50102e+07
4.21014e+07
4.62374e+07
4.30827e+07
4.70481e+07
4.39154e+07
4.76862e+07
4.46918e+07
4.82472e+07
4.54023e+07
4.87367e+07
4.6019e+07
4.91571e+07
4.65509e+07
4.95267e+07
4.70093e+07
4.98027e+07
4.7352e+07
4.97606e+07
4.7289e+07
-3.30082e+07
-2.89801e+07
-2.23312e+07
-1.64773e+07
-9.06096e+06
-4.08689e+06
2.45408e+06
6.22427e+06
1.20787e+07
1.45031e+07
1.989e+07
2.07712e+07
2.58092e+07
2.50753e+07
2.98511e+07
2.77511e+07
3.23541e+07
2.94311e+07
3.39036e+07
3.07031e+07
3.50406e+07
3.19233e+07
3.61013e+07
3.32046e+07
3.71936e+07
3.44956e+07
3.82765e+07
3.57065e+07
3.92729e+07
3.67805e+07
4.01415e+07
3.77147e+07
4.08928e+07
3.85296e+07
4.15596e+07
3.9275e+07
4.21618e+07
3.99482e+07
4.25417e+07
4.0317e+07
-2.76634e+07
-2.3615e+07
-1.78207e+07
-1.23569e+07
-5.78942e+06
-1.63917e+06
4.04447e+06
6.37091e+06
1.13571e+07
1.16891e+07
1.62885e+07
1.47348e+07
1.92325e+07
1.63797e+07
2.09305e+07
1.76406e+07
2.2221e+07
1.9072e+07
2.35799e+07
2.07541e+07
2.51158e+07
2.25561e+07
2.67414e+07
2.43258e+07
2.83152e+07
2.59663e+07
2.97517e+07
2.74412e+07
3.10251e+07
2.87503e+07
3.21437e+07
2.98975e+07
3.31229e+07
3.09186e+07
3.40231e+07
3.1904e+07
3.49072e+07
3.28854e+07
3.56429e+07
3.35975e+07
-2.17674e+07
-1.80987e+07
-1.32793e+07
-8.88894e+06
-3.46688e+06
-1.07599e+06
3.38252e+06
3.37633e+06
7.1311e+06
5.14127e+06
8.6575e+06
5.76877e+06
9.40072e+06
6.66138e+06
1.05186e+07
8.24425e+06
1.22359e+07
1.02531e+07
1.42731e+07
1.23494e+07
1.63333e+07
1.43756e+07
1.82833e+07
1.63164e+07
2.00938e+07
1.81131e+07
2.17369e+07
1.97345e+07
2.32017e+07
2.11552e+07
2.4483e+07
2.24139e+07
2.56371e+07
2.36243e+07
2.6774e+07
2.48641e+07
2.79428e+07
2.60947e+07
2.89549e+07
2.70361e+07
-1.63557e+07
-1.37684e+07
-1.0037e+07
-7.71478e+06
-3.68283e+06
-3.51544e+06
-524246
-1.98078e+06
378345
-1.26951e+06
859478
-295536
1.98099e+06
1.31768e+06
3.76858e+06
3.20806e+06
5.74413e+06
5.04407e+06
7.65527e+06
6.80804e+06
9.54762e+06
8.64592e+06
1.14829e+07
1.04039e+07
1.32745e+07
1.20006e+07
1.48788e+07
1.34085e+07
1.62656e+07
1.46865e+07
1.75379e+07
1.59796e+07
1.88206e+07
1.72971e+07
2.01337e+07
1.8621e+07
2.14487e+07
1.99073e+07
2.26016e+07
2.09448e+07
-1.30751e+07
-1.19575e+07
-9.45221e+06
-8.63978e+06
-6.05108e+06
-6.02748e+06
-4.45428e+06
-4.5459e+06
-3.29757e+06
-3.12835e+06
-1.90967e+06
-1.6012e+06
-262964
6188.01
1.45135e+06
1.58718e+06
3.09476e+06
3.11756e+06
4.6893e+06
4.62471e+06
6.2676e+06
6.03318e+06
7.70596e+06
7.27005e+06
8.97667e+06
8.36828e+06
1.01269e+07
9.43009e+06
1.12858e+07
1.05686e+07
1.25321e+07
1.17078e+07
1.37585e+07
1.281e+07
1.49592e+07
1.39149e+07
1.61474e+07
1.50144e+07
1.7215e+07
1.59546e+07
-1.17664e+07
-1.08773e+07
-9.46054e+06
-8.16026e+06
-6.80439e+06
-5.80492e+06
-4.93705e+06
-4.24185e+06
-3.46849e+06
-2.94146e+06
-2.08788e+06
-1.68158e+06
-702576
-410668
672772
866336
2.02938e+06
2.1419e+06
3.36657e+06
3.38924e+06
4.63378e+06
4.5653e+06
5.78198e+06
5.64686e+06
6.83116e+06
6.66009e+06
7.83721e+06
7.60754e+06
8.79438e+06
8.45807e+06
9.67254e+06
9.23246e+06
1.05129e+07
1.00093e+07
1.1396e+07
1.08563e+07
1.23461e+07
1.17271e+07
1.32399e+07
1.25007e+07
-9.98961e+06
-8.5134e+06
-7.78581e+06
-6.32095e+06
-5.54071e+06
-4.68364e+06
-4.14951e+06
-3.64968e+06
-3.10505e+06
-2.77158e+06
-2.09674e+06
-1.85503e+06
-1.03973e+06
-864184
66352.1
187671
1.2041e+06
1.2737e+06
2.34417e+06
2.35966e+06
3.45043e+06
3.41273e+06
4.49597e+06
4.41413e+06
5.47893e+06
5.35538e+06
6.39228e+06
6.22841e+06
7.22373e+06
7.03571e+06
7.99057e+06
7.80106e+06
8.74205e+06
8.55691e+06
9.51388e+06
9.29395e+06
1.02638e+07
9.98719e+06
1.09499e+07
1.06353e+07
-6.87762e+06
-5.73716e+06
-5.618e+06
-4.68085e+06
-4.40813e+06
-3.91258e+06
-3.63156e+06
-3.37186e+06
-2.98293e+06
-2.81765e+06
-2.27478e+06
-2.15058e+06
-1.46105e+06
-1.36349e+06
-554116
-482221
415877
458235
1.41374e+06
1.42276e+06
2.40677e+06
2.3822e+06
3.37221e+06
3.3172e+06
4.29707e+06
4.21635e+06
5.17346e+06
5.07479e+06
6.00156e+06
5.89506e+06
6.79191e+06
6.68644e+06
7.5603e+06
7.45809e+06
8.30982e+06
8.22042e+06
9.04619e+06
8.99718e+06
9.7998e+06
9.83808e+06
-4.59526e+06
-4.01767e+06
-4.10894e+06
-3.72702e+06
-3.7053e+06
-3.54547e+06
-3.41365e+06
-3.34769e+06
-3.05842e+06
-3.01517e+06
-2.56133e+06
-2.51886e+06
-1.91918e+06
-1.87536e+06
-1.15817e+06
-1.11759e+06
-313553
-282639
578878
594645
1.48829e+06
1.48602e+06
2.39233e+06
2.37181e+06
3.27711e+06
3.24058e+06
4.13598e+06
4.08804e+06
4.96875e+06
4.91597e+06
5.78084e+06
5.73089e+06
6.58085e+06
6.54389e+06
7.38273e+06
7.37581e+06
8.21509e+06
8.26512e+06
9.12055e+06
9.22347e+06
-3.48941e+06
-3.33241e+06
-3.46582e+06
-3.46702e+06
-3.52083e+06
-3.60739e+06
-3.50912e+06
-3.59711e+06
-3.32849e+06
-3.38737e+06
-2.96137e+06
-2.98842e+06
-2.42805e+06
-2.42962e+06
-1.76166e+06
-1.74681e+06
-999291
-977237
-176754
-155290
675616
690955
1.53535e+06
1.54135e+06
2.38828e+06
2.38381e+06
3.22786e+06
3.21367e+06
4.05413e+06
4.03277e+06
4.87258e+06
4.84875e+06
5.69395e+06
5.67601e+06
6.53749e+06
6.53911e+06
7.43384e+06
7.46253e+06
8.38685e+06
8.39605e+06
-3.25405e+06
-3.38471e+06
-3.47708e+06
-3.73081e+06
-3.77072e+06
-4.02311e+06
-3.8986e+06
-4.09487e+06
-3.80164e+06
-3.93526e+06
-3.49627e+06
-3.57501e+06
-3.01546e+06
-3.05017e+06
-2.39566e+06
-2.39805e+06
-1.67448e+06
-1.65565e+06
-887480
-856770
-65115.1
-29593.3
769095
804368
1.59918e+06
1.63055e+06
2.41674e+06
2.44138e+06
3.22067e+06
3.23644e+06
4.01689e+06
4.02281e+06
4.81847e+06
4.81606e+06
5.64681e+06
5.63965e+06
6.5241e+06
6.50795e+06
7.42262e+06
7.36091e+06
-3.65775e+06
-3.98582e+06
-3.98494e+06
-4.39654e+06
-4.36225e+06
-4.7149e+06
-4.52674e+06
-4.78763e+06
-4.4455e+06
-4.62237e+06
-4.14949e+06
-4.25566e+06
-3.6759e+06
-3.72434e+06
-3.06182e+06
-3.06522e+06
-2.34416e+06
-2.31412e+06
-1.55736e+06
-1.50341e+06
-731274
-660385
109693
192834
946574
1.03883e+06
1.76585e+06
1.86453e+06
2.56007e+06
2.66178e+06
3.32941e+06
3.42957e+06
4.0844e+06
4.17881e+06
4.84962e+06
4.94113e+06
5.66587e+06
5.783e+06
6.58031e+06
6.80902e+06
-4.52541e+06
-4.9784e+06
-4.85927e+06
-5.3527e+06
-5.20897e+06
-5.60864e+06
-5.33302e+06
-5.62329e+06
-5.21535e+06
-5.4107e+06
-4.8883e+06
-5.00376e+06
-4.38668e+06
-4.43575e+06
-3.74551e+06
-3.74094e+06
-2.99958e+06
-2.95273e+06
-2.18086e+06
-2.10098e+06
-1.31669e+06
-1.21068e+06
-429587
-302025
461866
608536
1.34174e+06
1.50687e+06
2.19586e+06
2.37992e+06
3.01281e+06
3.21715e+06
3.79007e+06
4.02147e+06
4.55282e+06
4.84188e+06
5.39512e+06
5.83274e+06
6.53335e+06
7.27805e+06
-5.70544e+06
-6.22452e+06
-5.98195e+06
-6.50066e+06
-6.23338e+06
-6.64361e+06
-6.26903e+06
-6.56787e+06
-6.08272e+06
-6.28615e+06
-5.70038e+06
-5.82309e+06
-5.15096e+06
-5.20667e+06
-4.466e+06
-4.46805e+06
-3.67773e+06
-3.63811e+06
-2.81565e+06
-2.74445e+06
-1.90468e+06
-1.81028e+06
-965014
-855038
-13236.6
104275
935952
1.05215e+06
1.86873e+06
1.97617e+06
2.77508e+06
2.87485e+06
3.66267e+06
3.77551e+06
4.58848e+06
4.75244e+06
5.68794e+06
5.88411e+06
7.10432e+06
7.12811e+06
-7.0697e+06
-7.61164e+06
-7.25509e+06
-7.76441e+06
-7.3769e+06
-7.77889e+06
-7.30656e+06
-7.60644e+06
-7.04266e+06
-7.25502e+06
-6.60179e+06
-6.74013e+06
-6.00633e+06
-6.08478e+06
-5.28459e+06
-5.31787e+06
-4.46709e+06
-4.46943e+06
-3.58264e+06
-3.56713e+06
-2.65654e+06
-2.63507e+06
-1.71035e+06
-1.69394e+06
-762577
-762328
170221
140793
1.07184e+06
990901
1.92257e+06
1.74328e+06
2.68454e+06
2.28869e+06
3.25723e+06
2.36875e+06
3.4044e+06
1.58881e+06
2.72318e+06
-293365
-8.52132e+06
-9.06006e+06
-8.60734e+06
-9.09055e+06
-8.5978e+06
-8.98222e+06
-8.42481e+06
-8.7203e+06
-8.08975e+06
-8.30842e+06
-7.6003e+06
-7.75405e+06
-6.97303e+06
-7.07568e+06
-6.23352e+06
-6.29993e+06
-5.41094e+06
-5.45563e+06
-4.53365e+06
-4.5704e+06
-3.62762e+06
-3.67024e+06
-2.71706e+06
-2.78106e+06
-1.82647e+06
-1.9314e+06
-983882
-1.15654e+06
-227248
-510097
374055
-105500
655476
-205551
282360
-1.16523e+06
-909265
-2.30771e+06
-1.05021e+06
1.1962e+06
-1.00002e+07
-1.05243e+07
-9.99231e+06
-1.04411e+07
-9.85954e+06
-1.02161e+07
-9.59011e+06
-9.86812e+06
-9.18951e+06
-9.39877e+06
-8.65789e+06
-8.8081e+06
-8.00613e+06
-8.10975e+06
-7.25672e+06
-7.32774e+06
-6.43723e+06
-6.48972e+06
-5.57573e+06
-5.62372e+06
-4.69983e+06
-4.75836e+06
-3.83818e+06
-3.92522e+06
-3.02339e+06
-3.16244e+06
-2.29652e+06
-2.5204e+06
-1.71755e+06
-2.07819e+06
-1.39935e+06
-1.9873e+06
-1.56833e+06
-2.4823e+06
-2.44764e+06
-3.44284e+06
-3.22627e+06
-2.91797e+06
-324741
1.62253e+06
-1.14792e+07
-1.19846e+07
-1.13817e+07
-1.17876e+07
-1.11255e+07
-1.14396e+07
-1.07554e+07
-1.09975e+07
-1.02842e+07
-1.04627e+07
-9.70529e+06
-9.82774e+06
-9.02337e+06
-9.10069e+06
-8.25734e+06
-8.30274e+06
-7.43314e+06
-7.4606e+06
-6.57901e+06
-6.60329e+06
-5.72489e+06
-5.76245e+06
-4.90413e+06
-4.97408e+06
-4.15578e+06
-4.28003e+06
-3.52715e+06
-3.73056e+06
-3.08269e+06
-3.39762e+06
-2.9328e+06
-3.40381e+06
-3.24871e+06
-3.87232e+06
-3.99764e+06
-4.47358e+06
-3.98428e+06
-3.59639e+06
-649680
1.0642e+06
-1.29488e+07
-1.34318e+07
-1.27573e+07
-1.31093e+07
-1.23648e+07
-1.26222e+07
-1.18802e+07
-1.20718e+07
-1.13264e+07
-1.14599e+07
-1.06895e+07
-1.07705e+07
-9.96745e+06
-1.00057e+07
-9.17524e+06
-9.1835e+06
-8.33715e+06
-8.32919e+06
-7.4812e+06
-7.47135e+06
-6.63819e+06
-6.64169e+06
-5.84267e+06
-5.87593e+06
-5.1338e+06
-5.21425e+06
-4.55617e+06
-4.70287e+06
-4.16693e+06
-4.40522e+06
-4.05866e+06
-4.42379e+06
-4.35593e+06
-4.85325e+06
-4.97247e+06
-5.40924e+06
-4.86111e+06
-4.52523e+06
-1.48915e+06
180187
-1.44005e+07
-1.48538e+07
-1.41039e+07
-1.43905e+07
-1.35581e+07
-1.3749e+07
-1.29448e+07
-1.30791e+07
-1.22978e+07
-1.23823e+07
-1.15949e+07
-1.16325e+07
-1.08261e+07
-1.0825e+07
-1.0002e+07
-9.97417e+06
-9.14436e+06
-9.10271e+06
-8.27966e+06
-8.23774e+06
-7.43788e+06
-7.41027e+06
-6.65314e+06
-6.65579e+06
-5.96388e+06
-6.01395e+06
-5.41277e+06
-5.52894e+06
-5.05244e+06
-5.25939e+06
-4.96657e+06
-5.30247e+06
-5.27251e+06
-5.75921e+06
-5.90468e+06
-6.35337e+06
-5.82074e+06
-5.48817e+06
-2.43108e+06
-753072
-1.58166e+07
-1.623e+07
-1.54044e+07
-1.56161e+07
-1.46939e+07
-1.48132e+07
-1.39445e+07
-1.402e+07
-1.31997e+07
-1.32358e+07
-1.24275e+07
-1.24241e+07
-1.16095e+07
-1.15731e+07
-1.07517e+07
-1.06932e+07
-9.87281e+06
-9.80444e+06
-8.99742e+06
-8.93267e+06
-8.15471e+06
-8.10836e+06
-7.37865e+06
-7.36688e+06
-6.70746e+06
-6.74728e+06
-6.18246e+06
-6.2918e+06
-5.85319e+06
-6.05616e+06
-5.80016e+06
-6.13611e+06
-6.14215e+06
-6.6325e+06
-6.81385e+06
-7.26163e+06
-6.75535e+06
-6.41109e+06
-3.35948e+06
-1.67567e+06
-1.71717e+07
-1.75354e+07
-1.66397e+07
-1.67701e+07
-1.57627e+07
-1.58081e+07
-1.48779e+07
-1.48946e+07
-1.40364e+07
-1.40258e+07
-1.31961e+07
-1.31547e+07
-1.23305e+07
-1.22631e+07
-1.1441e+07
-1.13573e+07
-1.05434e+07
-1.04555e+07
-9.6606e+06
-9.58172e+06
-8.82096e+06
-8.76561e+06
-8.05783e+06
-8.04176e+06
-7.40857e+06
-7.44786e+06
-6.91277e+06
-7.02412e+06
-6.61745e+06
-6.82391e+06
-6.60098e+06
-6.94067e+06
-6.98005e+06
-7.47156e+06
-7.68389e+06
-8.12673e+06
-7.64512e+06
-7.29374e+06
-4.26467e+06
-2.58737e+06
-1.84401e+07
-1.8747e+07
-1.77908e+07
-1.7837e+07
-1.67541e+07
-1.67254e+07
-1.57409e+07
-1.56999e+07
-1.48086e+07
-1.47529e+07
-1.39051e+07
-1.38282e+07
-1.29966e+07
-1.29015e+07
-1.20803e+07
-1.19759e+07
-1.11694e+07
-1.10668e+07
-1.02849e+07
-1.01968e+07
-9.45373e+06
-9.39386e+06
-8.70796e+06
-8.69118e+06
-8.08356e+06
-8.12483e+06
-7.61824e+06
-7.73305e+06
-7.35684e+06
-7.56702e+06
-7.37526e+06
-7.71729e+06
-7.78657e+06
-8.27662e+06
-8.51506e+06
-8.95174e+06
-8.49471e+06
-8.14076e+06
-5.14998e+06
-3.48936e+06
-1.96016e+07
-1.98479e+07
-1.88424e+07
-1.8805e+07
-1.76584e+07
-1.75572e+07
-1.6528e+07
-1.64308e+07
-1.55135e+07
-1.54146e+07
-1.45542e+07
-1.44439e+07
-1.36098e+07
-1.34893e+07
-1.26733e+07
-1.25505e+07
-1.17555e+07
-1.16405e+07
-1.08751e+07
-1.07796e+07
-1.00571e+07
-9.99383e+06
-9.33206e+06
-9.31483e+06
-8.73424e+06
-8.77692e+06
-8.29956e+06
-8.41657e+06
-8.07085e+06
-8.2828e+06
-8.12136e+06
-8.46302e+06
-8.56003e+06
-9.04535e+06
-9.30713e+06
-9.73525e+06
-9.30469e+06
-8.95032e+06
-6.01352e+06
-4.37692e+06
-2.06437e+07
-2.08288e+07
-1.97851e+07
-1.9667e+07
-1.84689e+07
-1.82984e+07
-1.72341e+07
-1.70831e+07
-1.61475e+07
-1.60071e+07
-1.51409e+07
-1.49988e+07
-1.41681e+07
-1.40239e+07
-1.32186e+07
-1.30789e+07
-1.23002e+07
-1.21738e+07
-1.14292e+07
-1.13266e+07
-1.06285e+07
-1.05615e+07
-9.92674e+06
-9.90801e+06
-9.35659e+06
-9.39898e+06
-8.95225e+06
-9.06916e+06
-8.75464e+06
-8.96546e+06
-8.83422e+06
-9.1719e+06
-9.29546e+06
-9.77184e+06
-1.00555e+07
-1.04715e+07
-1.00703e+07
-9.71582e+06
-6.84839e+06
-5.24064e+06
-2.15617e+07
-2.16875e+07
-2.06149e+07
-2.04211e+07
-1.91821e+07
-1.89465e+07
-1.78558e+07
-1.76538e+07
-1.67072e+07
-1.65274e+07
-1.56618e+07
-1.54897e+07
-1.46684e+07
-1.4502e+07
-1.37129e+07
-1.35572e+07
-1.27998e+07
-1.26626e+07
-1.19429e+07
-1.18333e+07
-1.11629e+07
-1.10915e+07
-1.04865e+07
-1.04649e+07
-9.94468e+06
-9.98472e+06
-9.56995e+06
-9.68404e+06
-9.40143e+06
-9.60766e+06
-9.50661e+06
-9.83601e+06
-9.98528e+06
-1.04476e+07
-1.07523e+07
-1.11514e+07
-1.07828e+07
-1.04264e+07
-7.64322e+06
-6.06664e+06
-2.23571e+07
-2.24276e+07
-2.13331e+07
-2.10697e+07
-1.97981e+07
-1.95019e+07
-1.83918e+07
-1.81418e+07
-1.71904e+07
-1.69734e+07
-1.61143e+07
-1.5914e+07
-1.51078e+07
-1.49207e+07
-1.41528e+07
-1.39825e+07
-1.32507e+07
-1.31034e+07
-1.24123e+07
-1.22958e+07
-1.16559e+07
-1.15794e+07
-1.10062e+07
-1.09804e+07
-1.04926e+07
-1.05282e+07
-1.0146e+07
-1.02544e+07
-1.00037e+07
-1.02015e+07
-1.01301e+07
-1.04462e+07
-1.062e+07
-1.10622e+07
-1.13868e+07
-1.17623e+07
-1.14293e+07
-1.10664e+07
-8.38176e+06
-6.83614e+06
-2.30369e+07
-2.3057e+07
-2.1945e+07
-2.16178e+07
-2.03194e+07
-1.99666e+07
-1.88423e+07
-1.8547e+07
-1.75959e+07
-1.73441e+07
-1.64968e+07
-1.62708e+07
-1.54846e+07
-1.52791e+07
-1.45368e+07
-1.43538e+07
-1.3651e+07
-1.3495e+07
-1.28349e+07
-1.2712e+07
-1.21042e+07
-1.20225e+07
-1.14818e+07
-1.14507e+07
-1.09954e+07
-1.10247e+07
-1.06745e+07
-1.07742e+07
-1.05543e+07
-1.07395e+07
-1.06957e+07
-1.0993e+07
-1.11886e+07
-1.16032e+07
-1.19452e+07
-1.22881e+07
-1.19918e+07
-1.16139e+07
-9.0418e+06
-7.52492e+06
-2.36117e+07
-2.3587e+07
-2.24585e+07
-2.20727e+07
-2.07496e+07
-2.03434e+07
-1.92082e+07
-1.88699e+07
-1.79237e+07
-1.76399e+07
-1.68095e+07
-1.65608e+07
-1.57993e+07
-1.55786e+07
-1.48656e+07
-1.46724e+07
-1.40012e+07
-1.3838e+07
-1.32106e+07
-1.3082e+07
-1.2507e+07
-1.242e+07
-1.19116e+07
-1.18744e+07
-1.14505e+07
-1.14718e+07
-1.11514e+07
-1.12399e+07
-1.10474e+07
-1.12162e+07
-1.11956e+07
-1.14682e+07
-1.16798e+07
-1.20581e+07
-1.24108e+07
-1.27085e+07
-1.24461e+07
-1.20397e+07
-9.59419e+06
-8.10337e+06
-2.40952e+07
-2.40314e+07
-2.28834e+07
-2.2443e+07
-2.10936e+07
-2.0636e+07
-1.94911e+07
-1.91123e+07
-1.81751e+07
-1.78626e+07
-1.70543e+07
-1.6787e+07
-1.60547e+07
-1.58218e+07
-1.51415e+07
-1.49398e+07
-1.43029e+07
-1.41332e+07
-1.35402e+07
-1.3406e+07
-1.28647e+07
-1.2772e+07
-1.22958e+07
-1.22521e+07
-1.18577e+07
-1.18706e+07
-1.15762e+07
-1.16525e+07
-1.14813e+07
-1.16315e+07
-1.16253e+07
-1.18686e+07
-1.20843e+07
-1.24166e+07
-1.27653e+07
-1.30014e+07
-1.27613e+07
-1.23083e+07
-1.00032e+07
-8.5389e+06
-2.4504e+07
-2.44066e+07
-2.32311e+07
-2.2737e+07
-2.13555e+07
-2.0844e+07
-1.96914e+07
-1.92712e+07
-1.83507e+07
-1.80122e+07
-1.72334e+07
-1.69504e+07
-1.62525e+07
-1.60088e+07
-1.53649e+07
-1.51546e+07
-1.45553e+07
-1.43779e+07
-1.38228e+07
-1.36818e+07
-1.31773e+07
-1.30787e+07
-1.26362e+07
-1.25872e+07
-1.22213e+07
-1.22282e+07
-1.19551e+07
-1.20227e+07
-1.1863e+07
-1.19974e+07
-1.199e+07
-1.22035e+07
-1.24005e+07
-1.26791e+07
-1.29937e+07
-1.31499e+07
-1.29045e+07
-1.23857e+07
-1.02313e+07
-8.80324e+06
-2.48541e+07
-2.47214e+07
-2.35075e+07
-2.2943e+07
-2.15256e+07
-2.0943e+07
-1.97963e+07
-1.93331e+07
-1.84446e+07
-1.80868e+07
-1.7345e+07
-1.7051e+07
-1.63899e+07
-1.61365e+07
-1.55308e+07
-1.53104e+07
-1.47519e+07
-1.45651e+07
-1.40529e+07
-1.39045e+07
-1.34428e+07
-1.33403e+07
-1.2937e+07
-1.2888e+07
-1.25532e+07
-1.25629e+07
-1.23076e+07
-1.23776e+07
-1.22175e+07
-1.23479e+07
-1.23158e+07
-1.25078e+07
-1.26481e+07
-1.28725e+07
-1.30988e+07
-1.31635e+07
-1.28576e+07
-1.2267e+07
-1.02569e+07
-8.89487e+06
-2.51295e+07
-2.49309e+07
-2.36734e+07
-2.29916e+07
-2.15556e+07
-2.09047e+07
-1.97896e+07
-1.93262e+07
-1.8467e+07
-1.81258e+07
-1.74009e+07
-1.71164e+07
-1.64714e+07
-1.62181e+07
-1.56363e+07
-1.54105e+07
-1.48862e+07
-1.4693e+07
-1.42245e+07
-1.40728e+07
-1.36607e+07
-1.35606e+07
-1.3207e+07
-1.31672e+07
-1.28744e+07
-1.28988e+07
-1.26685e+07
-1.27549e+07
-1.25922e+07
-1.27333e+07
-1.26587e+07
-1.28421e+07
-1.28847e+07
-1.30626e+07
-1.31324e+07
-1.31113e+07
-1.26664e+07
-1.20305e+07
-1.01281e+07
-8.88791e+06
-2.52382e+07
-2.49528e+07
-2.36404e+07
-2.28823e+07
-2.14677e+07
-2.09204e+07
-1.98003e+07
-1.94632e+07
-1.85478e+07
-1.8288e+07
-1.74949e+07
-1.72546e+07
-1.65562e+07
-1.63269e+07
-1.5715e+07
-1.55029e+07
-1.49742e+07
-1.47891e+07
-1.43419e+07
-1.41948e+07
-1.38284e+07
-1.37302e+07
-1.34418e+07
-1.34018e+07
-1.31839e+07
-1.32064e+07
-1.30458e+07
-1.31282e+07
-1.30097e+07
-1.31417e+07
-1.30595e+07
-1.32209e+07
-1.3173e+07
-1.33043e+07
-1.31862e+07
-1.31031e+07
-1.24612e+07
-1.1834e+07
-9.99883e+06
-8.91409e+06
-2.52678e+07
-2.5013e+07
-2.35769e+07
-2.30449e+07
-2.167e+07
-2.1295e+07
-2.01719e+07
-1.9883e+07
-1.89148e+07
-1.86499e+07
-1.77889e+07
-1.75361e+07
-1.67724e+07
-1.65346e+07
-1.58678e+07
-1.56494e+07
-1.50819e+07
-1.48886e+07
-1.44254e+07
-1.42648e+07
-1.39114e+07
-1.37919e+07
-1.35507e+07
-1.34795e+07
-1.33443e+07
-1.3325e+07
-1.3277e+07
-1.33067e+07
-1.33148e+07
-1.33833e+07
-1.34108e+07
-1.34978e+07
-1.34933e+07
-1.35435e+07
-1.33471e+07
-1.31983e+07
-1.23765e+07
-1.17637e+07
-9.90519e+06
-8.9286e+06
-5.7497e+06
-4.16411e+06
-5.47952e+06
-3.64476e+06
-5.06201e+06
-3.01574e+06
-4.61933e+06
-2.32473e+06
-4.10184e+06
-1.57919e+06
-3.49579e+06
-789644
-2.80497e+06
42230.9
-2.03692e+06
917349
-1.20392e+06
1.8303e+06
-323201
2.7682e+06
585991
3.71427e+06
1.50537e+06
4.65147e+06
2.41939e+06
5.56488e+06
3.31608e+06
6.44276e+06
4.18775e+06
7.27766e+06
5.03443e+06
8.07214e+06
5.86526e+06
8.83691e+06
6.64173e+06
9.49303e+06
7.14068e+06
9.78895e+06
7.40543e+06
1.06387e+07
-2.58111e+06
-2.24464e+06
-2.22531e+06
-1.76885e+06
-1.55451e+06
-1.02296e+06
-747479
-180681
115153
681527
991465
1.53787e+06
1.87139e+06
2.39073e+06
2.76088e+06
3.24983e+06
3.66471e+06
4.11928e+06
4.57943e+06
4.99456e+06
5.49449e+06
5.865e+06
6.396e+06
6.71741e+06
7.26989e+06
7.5385e+06
8.10327e+06
8.31441e+06
8.88281e+06
9.02505e+06
9.59105e+06
9.63396e+06
1.02055e+07
1.00925e+07
1.07028e+07
1.04605e+07
1.11683e+07
1.13141e+07
1.19575e+07
1.16195e+07
-2.47673e+06
-2.60117e+06
-2.14484e+06
-2.15156e+06
-1.50815e+06
-1.48901e+06
-759248
-765269
13633.8
-35603.5
783961
687584
1.5504e+06
1.40882e+06
2.32021e+06
2.13668e+06
3.09917e+06
2.87598e+06
3.88683e+06
3.62488e+06
4.67649e+06
4.37557e+06
5.45719e+06
5.11594e+06
6.21519e+06
5.82915e+06
6.93194e+06
6.48798e+06
7.57677e+06
7.04864e+06
8.10573e+06
7.47915e+06
8.50959e+06
7.89262e+06
8.97607e+06
8.72392e+06
9.94061e+06
9.91283e+06
1.07647e+07
1.07716e+07
-3.12627e+06
-3.21216e+06
-2.76372e+06
-2.73085e+06
-2.16529e+06
-2.11003e+06
-1.50637e+06
-1.47048e+06
-845655
-836518
-189732
-203872
468427
435983
1.1371e+06
1.09033e+06
1.82139e+06
1.76272e+06
2.52113e+06
2.4512e+06
3.23031e+06
3.14766e+06
3.93726e+06
3.83719e+06
4.62355e+06
4.49652e+06
5.26164e+06
5.0972e+06
5.82063e+06
5.63423e+06
6.30984e+06
6.20395e+06
6.88434e+06
7.06973e+06
7.8751e+06
8.37369e+06
9.2457e+06
9.7519e+06
1.03988e+07
1.0661e+07
-3.49923e+06
-3.43635e+06
-3.09655e+06
-2.91586e+06
-2.49081e+06
-2.28655e+06
-1.86223e+06
-1.66767e+06
-1.2483e+06
-1.06509e+06
-639442
-460731
-21674.4
158931
614323
800662
1.27257e+06
1.46584e+06
1.95156e+06
2.15048e+06
2.64386e+06
2.84474e+06
3.33586e+06
3.53379e+06
4.00923e+06
4.20423e+06
4.65016e+06
4.86438e+06
5.27837e+06
5.57988e+06
5.99544e+06
6.48797e+06
6.98503e+06
7.68525e+06
8.30267e+06
9.0316e+06
9.65653e+06
1.01934e+07
1.06214e+07
1.0901e+07
-3.4436e+06
-3.25033e+06
-3.01689e+06
-2.70882e+06
-2.38917e+06
-2.06284e+06
-1.75797e+06
-1.44063e+06
-1.15222e+06
-840548
-551222
-236692
64214.9
387797
703812
1.0394e+06
1.36999e+06
1.71766e+06
2.05947e+06
2.41723e+06
2.7642e+06
3.13003e+06
3.47406e+06
3.85102e+06
4.18503e+06
4.59014e+06
4.91557e+06
5.38658e+06
5.72453e+06
6.30656e+06
6.70061e+06
7.39475e+06
7.87792e+06
8.59477e+06
9.13281e+06
9.7453e+06
1.02324e+07
1.06703e+07
1.09795e+07
1.12323e+07
-3.03143e+06
-2.74232e+06
-2.60416e+06
-2.20704e+06
-1.9702e+06
-1.56287e+06
-1.33728e+06
-942844
-732545
-343955
-130719
261446
489521
890648
1.13761e+06
1.54967e+06
1.81484e+06
2.23779e+06
2.51778e+06
2.95141e+06
3.24158e+06
3.68883e+06
3.98577e+06
4.45692e+06
4.76283e+06
5.27659e+06
5.60392e+06
6.17847e+06
6.54924e+06
7.18068e+06
7.61221e+06
8.25739e+06
8.73832e+06
9.33237e+06
9.81447e+06
1.03093e+07
1.07199e+07
1.10875e+07
1.13403e+07
1.15755e+07
-2.35094e+06
-1.99828e+06
-1.94602e+06
-1.49534e+06
-1.33223e+06
-877662
-714144
-276062
-119445
310792
476522
908512
1.0942e+06
1.53282e+06
1.74224e+06
2.18929e+06
2.42204e+06
2.8785e+06
3.13235e+06
3.60061e+06
3.8737e+06
4.35947e+06
4.653e+06
5.16515e+06
5.48548e+06
6.03113e+06
6.38859e+06
6.96391e+06
7.36613e+06
7.94986e+06
8.39161e+06
8.95089e+06
9.40904e+06
9.91414e+06
1.03506e+07
1.07793e+07
1.11407e+07
1.14731e+07
1.16953e+07
1.19299e+07
-1.48482e+06
-1.09741e+06
-1.11969e+06
-645708
-549298
-74509.7
35891.2
492955
607219
1.055e+06
1.18604e+06
1.63371e+06
1.79042e+06
2.24277e+06
2.42818e+06
2.8875e+06
3.10164e+06
3.57006e+06
3.81224e+06
4.29303e+06
4.56362e+06
5.06108e+06
5.36263e+06
5.87964e+06
6.21635e+06
6.75041e+06
7.12493e+06
7.66534e+06
8.07407e+06
8.60352e+06
9.03349e+06
9.53303e+06
9.96247e+06
1.04148e+07
1.08141e+07
1.12036e+07
1.15322e+07
1.18463e+07
1.20541e+07
1.22901e+07
-507801
-108863
-192608
281478
319361
794085
858445
1.31665e+06
1.39517e+06
1.84414e+06
1.94676e+06
2.39484e+06
2.52873e+06
2.98065e+06
3.14819e+06
3.60664e+06
3.80815e+06
4.27546e+06
4.51111e+06
4.98955e+06
5.26013e+06
5.75097e+06
6.05767e+06
6.5594e+06
6.90243e+06
7.40943e+06
7.78584e+06
8.28861e+06
8.69033e+06
9.17704e+06
9.59007e+06
1.0048e+07
1.04526e+07
1.08688e+07
1.12395e+07
1.16005e+07
1.19055e+07
1.21976e+07
1.24002e+07
1.26174e+07
519930
914143
781714
1.24045e+06
1.22842e+06
1.6896e+06
1.71431e+06
2.16198e+06
2.20957e+06
2.64944e+06
2.72725e+06
3.16659e+06
3.28054e+06
3.72369e+06
3.87579e+06
4.32522e+06
4.51583e+06
4.97314e+06
5.20232e+06
5.6682e+06
5.93593e+06
6.40944e+06
6.71494e+06
7.19289e+06
7.53355e+06
8.01038e+06
8.38068e+06
8.84885e+06
9.23939e+06
9.68975e+06
1.00867e+07
1.05086e+07
1.08936e+07
1.12752e+07
1.16259e+07
1.19554e+07
1.22451e+07
1.25143e+07
1.27157e+07
1.29345e+07
1.55578e+06
1.93535e+06
1.76552e+06
2.20008e+06
2.14636e+06
2.58622e+06
2.5771e+06
3.00741e+06
3.02811e+06
3.45287e+06
3.50851e+06
3.93369e+06
4.02923e+06
4.45841e+06
4.59561e+06
5.03056e+06
5.20956e+06
5.65084e+06
5.87119e+06
6.31821e+06
6.57883e+06
7.0296e+06
7.32826e+06
7.77927e+06
8.11195e+06
8.55819e+06
8.91831e+06
9.35324e+06
9.73098e+06
1.01464e+07
1.05281e+07
1.09144e+07
1.12827e+07
1.16301e+07
1.19649e+07
1.22657e+07
1.25457e+07
1.27971e+07
1.30054e+07
1.32122e+07
2.57262e+06
2.93232e+06
2.73457e+06
3.14081e+06
3.05296e+06
3.46761e+06
3.43001e+06
3.83927e+06
3.83677e+06
4.24295e+06
4.27873e+06
4.68638e+06
4.76454e+06
5.17628e+06
5.29832e+06
5.71503e+06
5.88082e+06
6.30218e+06
6.51072e+06
6.93539e+06
7.18484e+06
7.61041e+06
7.89774e+06
8.32072e+06
8.64121e+06
9.05697e+06
9.40358e+06
9.80609e+06
1.01688e+07
1.05507e+07
1.09161e+07
1.12694e+07
1.16214e+07
1.19387e+07
1.22594e+07
1.25347e+07
1.28071e+07
1.30369e+07
1.32495e+07
1.34398e+07
3.5546e+06
3.89221e+06
3.67433e+06
4.05102e+06
3.93575e+06
4.32366e+06
4.2624e+06
4.6488e+06
4.62642e+06
5.01201e+06
5.03005e+06
5.41796e+06
5.47964e+06
5.87156e+06
5.97806e+06
6.37411e+06
6.52508e+06
6.9243e+06
7.11839e+06
7.51904e+06
7.75397e+06
8.1535e+06
8.42585e+06
8.82088e+06
9.12561e+06
9.51179e+06
9.84167e+06
1.02136e+07
1.05587e+07
1.09101e+07
1.12577e+07
1.15819e+07
1.1917e+07
1.22075e+07
1.25141e+07
1.27652e+07
1.30289e+07
1.32391e+07
1.34531e+07
1.36314e+07
4.49326e+06
4.80837e+06
4.57661e+06
4.92413e+06
4.78721e+06
5.14823e+06
5.0675e+06
5.43029e+06
5.39097e+06
5.75483e+06
5.75701e+06
6.12383e+06
6.16989e+06
6.54053e+06
6.63133e+06
7.00535e+06
7.14035e+06
7.51641e+06
7.69408e+06
8.07022e+06
8.28813e+06
8.66179e+06
8.91637e+06
9.28432e+06
9.57045e+06
9.92867e+06
1.02392e+07
1.0583e+07
1.09085e+07
1.12322e+07
1.15608e+07
1.18587e+07
1.21763e+07
1.24421e+07
1.27337e+07
1.2962e+07
1.32157e+07
1.34056e+07
1.36207e+07
1.37819e+07
5.38482e+06
5.67802e+06
5.43724e+06
5.75687e+06
5.60306e+06
5.93779e+06
5.84111e+06
6.18025e+06
6.12641e+06
6.46812e+06
6.45604e+06
6.80114e+06
6.83241e+06
7.18111e+06
7.25629e+06
7.60777e+06
7.72617e+06
8.07886e+06
8.23891e+06
8.59076e+06
8.79002e+06
9.13849e+06
9.37344e+06
9.71547e+06
9.98113e+06
1.0313e+07
1.06026e+07
1.092e+07
1.12246e+07
1.15225e+07
1.1831e+07
1.21036e+07
1.24028e+07
1.2644e+07
1.29198e+07
1.31248e+07
1.33671e+07
1.35373e+07
1.375e+07
1.3901e+07
6.2284e+06
6.50082e+06
6.2547e+06
6.54812e+06
6.38123e+06
6.69074e+06
6.58093e+06
6.89687e+06
6.8305e+06
7.15015e+06
7.12515e+06
7.44848e+06
7.46577e+06
7.7925e+06
7.85234e+06
8.18136e+06
8.28299e+06
8.61263e+06
8.75447e+06
9.08262e+06
9.26231e+06
9.58649e+06
9.80068e+06
1.01179e+07
1.03619e+07
1.06688e+07
1.09362e+07
1.12285e+07
1.15111e+07
1.1784e+07
1.20712e+07
1.23194e+07
1.25988e+07
1.28169e+07
1.30755e+07
1.32604e+07
1.34901e+07
1.36456e+07
1.38551e+07
1.39977e+07
7.02496e+06
7.27802e+06
7.0292e+06
7.2983e+06
7.12126e+06
7.4069e+06
7.28614e+06
7.57971e+06
7.50235e+06
7.80047e+06
7.76365e+06
8.06563e+06
8.06966e+06
8.37484e+06
8.41975e+06
8.72685e+06
8.81179e+06
9.11903e+06
9.24247e+06
9.54774e+06
9.70743e+06
1.00083e+07
1.02011e+07
1.04947e+07
1.07162e+07
1.09991e+07
1.12435e+07
1.15118e+07
1.17712e+07
1.20206e+07
1.22852e+07
1.25112e+07
1.27696e+07
1.29677e+07
1.32081e+07
1.33756e+07
1.3592e+07
1.37331e+07
1.39372e+07
1.40668e+07
7.77667e+06
8.01191e+06
7.76219e+06
8.0089e+06
7.82386e+06
8.08714e+06
7.95709e+06
8.22937e+06
8.1422e+06
8.41964e+06
8.37184e+06
8.65325e+06
8.64465e+06
8.92906e+06
8.95946e+06
9.24545e+06
9.31394e+06
9.5997e+06
9.70477e+06
9.98817e+06
1.01277e+07
1.04063e+07
1.05774e+07
1.08485e+07
1.1047e+07
1.13074e+07
1.15278e+07
1.17739e+07
1.20092e+07
1.22372e+07
1.24786e+07
1.26845e+07
1.29214e+07
1.31012e+07
1.33227e+07
1.3474e+07
1.36754e+07
1.38021e+07
1.39973e+07
1.41157e+07
8.48643e+06
8.70545e+06
8.45591e+06
8.68217e+06
8.49064e+06
8.73317e+06
8.59501e+06
8.84726e+06
8.75112e+06
9.00898e+06
8.95085e+06
9.2127e+06
9.19199e+06
9.45664e+06
9.47293e+06
9.73888e+06
9.7912e+06
1.00566e+07
1.01434e+07
1.04061e+07
1.05255e+07
1.07832e+07
1.09323e+07
1.11824e+07
1.13575e+07
1.1597e+07
1.17932e+07
1.20189e+07
1.22298e+07
1.24383e+07
1.26559e+07
1.28436e+07
1.30581e+07
1.3221e+07
1.34225e+07
1.35584e+07
1.3743e+07
1.38565e+07
1.40399e+07
1.41469e+07
9.15766e+06
9.36206e+06
9.11321e+06
9.32091e+06