/*--------------------------------*- C++ -*----------------------------------*\
| =========                 |                                                 |
| \\      /  F ield         | OpenFOAM: The Open Source CFD Toolbox           |
|  \\    /   O peration     | Version:  v2012                                 |
|   \\  /    A nd           | Website:  www.openfoam.com                      |
|    \\/     M anipulation  |                                                 |
\*---------------------------------------------------------------------------*/
FoamFile
{
    version     2.0;
    format      ascii;
    class       volSymmTensorField;
    location    "1";
    object      sigma;
}
// * * * * * * * * * * * * * * * * * * * * * * * * * * * * * * * * * * * * * //

dimensions      [1 -1 -2 0 0 0 0];


internalField   nonuniform List<symmTensor> 
140
(
(774185 -354068 438753 522963 132754 -155640)
(-1.15777e+06 457534 438205 -578638 131698 -839322)
(354247 -395727 468468 145636 655123 -233492)
(-706808 504609 466278 -276368 652120 -768586)
(861790 -306349 338068 449431 227244 -149161)
(-1.2451e+06 382944 337506 -493159 226172 -846925)
(411796 -342417 387776 -18650.6 791680 -238340)
(-771706 426157 385700 -90380 787901 -764305)
(930587 -233379 235849 379900 284440 -142024)
(-1.31282e+06 286274 235423 -415296 283253 -854365)
(452636 -262520 288918 -160889 897655 -242479)
(-817274 321903 287231 67037.1 893110 -760094)
(975277 -145099 138519 329514 318244 -136486)
(-1.35653e+06 176152 138258 -359755 316968 -860037)
(476219 -164023 178869 -263097 972306 -245407)
(-843727 199497 177765 178966 967172 -756948)
(996879 -49128.3 45614.3 303506 334128 -133501)
(-1.37758e+06 59368.2 45526.4 -331294 332806 -863082)
(486309 -55665.6 60665.6 -316246 1.01145e+06 -246995)
(-855177 67465.7 60280.6 236872 1.006e+06 -755196)
(193591 -109560 520470 889644 -119466 -152248)
(-396003 240160 514541 -1.52987e+06 -121526 -876514)
(315488 -108077 385855 1.01678e+06 -227088 -118887)
(-501900 281284 382997 -1.72769e+06 -228860 -923609)
(56766.1 -217040 697270 700626 -101589 -224834)
(-321615 425944 694576 -1.1436e+06 -104693 -783095)
(245636 -200492 652860 795152 -376201 -197611)
(-546429 472802 652018 -1.22844e+06 -379186 -816635)
(76116 -313505 680334 593890 89900.5 -227280)
(-379139 508546 678452 -896177 87767.6 -773504)
(301060 -272280 695157 699972 -286216 -208033)
(-652146 508582 694731 -936701 -288232 -788721)
(165907 -384956 609343 473299 286929 -223007)
(-494488 551199 607289 -691768 285141 -778295)
(440622 -333258 620765 647180 -141916 -194673)
(-813931 516078 620088 -782862 -143017 -799311)
(272309 -410881 534516 314929 473266 -224940)
(-618287 547074 532220 -480244 471038 -777600)
(614944 -358218 521404 576982 -5976.39 -178301)
(-996654 494914 520545 -657745 -6768.38 -815338)
(-50738.3 -53746.4 670071 699833 -11236.4 -177406)
(-165940 105757 663528 -1.24675e+06 -12862 -834980)
(-140184 -191538 719093 595305 101151 -197015)
(-92955.3 316051 713804 -1.02428e+06 98125.3 -801520)
(-189292 -346139 735553 422911 324942 -213116)
(-77516.1 487756 730883 -749748 321878 -784225)
(-192618 -470808 718304 164797 558014 -239936)
(-101530 605565 713762 -420492 554355 -758781)
(-174785 -541277 672240 -161571 784523 -277963)
(-138762 660333 667918 -44381.7 779835 -721454)
(-502362 -68997.2 939847 416539 87609.3 -205065)
(255424 96675.6 930903 -872487 86234.3 -796155)
(-551500 -232731 926900 331952 296948 -208186)
(299719 309565 918919 -736386 293666 -789818)
(-578595 -412211 893933 136571 529262 -212799)
(311803 515733 886676 -474027 524847 -783216)
(-564730 -559725 844176 -165489 760650 -221587)
(279571 670509 837451 -110422 754963 -772282)
(-522782 -645597 771827 -539217 982356 -236216)
(220730 750681 765967 313861 975516 -754439)
(-1.06658e+06 -104253 1.16757e+06 104117 131660 -207909)
(800604 120671 1.15768e+06 -508148 130359 -772901)
(-1.08003e+06 -321110 1.13457e+06 -13467.9 401430 -212423)
(816015 370815 1.12567e+06 -363770 397992 -765220)
(-1.06699e+06 -528639 1.07466e+06 -256499 665337 -219043)
(799218 603530 1.06731e+06 -76347.4 660568 -753418)
(-1.01594e+06 -689422 994481 -609351 915794 -228684)
(738806 776995 989165 326649 910622 -736171)
(-938671 -776548 890585 -1.03173e+06 1.14786e+06 -244587)
(650263 864557 887805 796445 1.14368e+06 -709997)
(-1.77813e+06 -144152 1.37512e+06 -304694 158704 -260607)
(1.50164e+06 152596 1.38319e+06 -47505.6 159167 -626696)
(-1.75534e+06 -426774 1.33142e+06 -458356 471052 -271060)
(1.48618e+06 454307 1.34149e+06 121522 473348 -609380)
(-1.68906e+06 -672635 1.2511e+06 -753669 765468 -288345)
(1.4264e+06 718114 1.26438e+06 446259 771433 -579791)
(-1.58101e+06 -847883 1.14246e+06 -1.15998e+06 1.03628e+06 -312844)
(1.32054e+06 905153 1.15954e+06 890800 1.04857e+06 -537755)
(-1.45025e+06 -930843 1.00661e+06 -1.63038e+06 1.27989e+06 -348023)
(1.189e+06 991146 1.02716e+06 1.40139e+06 1.30162e+06 -480572)
(-2.81186e+06 -182864 1.53007e+06 -1.02052e+06 172340 -884686)
(2.53821e+06 177818 1.66525e+06 797736 186218 410149)
(-2.75096e+06 -531275 1.47839e+06 -1.2037e+06 505959 -909208)
(2.49407e+06 519669 1.61307e+06 983946 548684 441952)
(-2.62248e+06 -817509 1.38297e+06 -1.54232e+06 816826 -950692)
(2.38977e+06 805639 1.51499e+06 1.33056e+06 889447 496065)
(-2.44174e+06 -1.00628e+06 1.25269e+06 -1.98854e+06 1.0977e+06 -1.00377e+06)
(2.23286e+06 998111 1.37895e+06 1.7904e+06 1.2011e+06 565891)
(-2.23963e+06 -1.08191e+06 1.09265e+06 -2.4882e+06 1.34461e+06 -1.06715e+06)
(2.0506e+06 1.07776e+06 1.20916e+06 2.30671e+06 1.47896e+06 648563)
(-2.03666e+06 -1.04637e+06 918879 -2.96722e+06 1.54296e+06 -1.13358e+06)
(1.86541e+06 1.04505e+06 1.02101e+06 2.80387e+06 1.7049e+06 739843)
(-1.29634e+06 -918276 848775 -2.08181e+06 1.47572e+06 -374419)
(1.03392e+06 974167 870860 1.88777e+06 1.50827e+06 -430249)
(-832074 -781935 757143 -1.44767e+06 1.34183e+06 -250498)
(533745 861572 756771 1.25125e+06 1.33984e+06 -692306)
(-455327 -660324 664619 -918767 1.17605e+06 -243113)
(139883 752489 659976 731777 1.16843e+06 -743478)
(-138801 -553154 586892 -497056 985739 -308117)
(-188553 653936 583034 325549 979931 -691486)
(-1.86171e+06 -917042 733888 -3.38596e+06 1.69425e+06 -1.18873e+06)
(1.70178e+06 917305 818235 3.23607e+06 1.87846e+06 811237)
(-1.16508e+06 -814772 681783 -2.49589e+06 1.62689e+06 -405817)
(901911 861858 703042 2.32911e+06 1.67026e+06 -377983)
(-739754 -704479 614720 -1.84574e+06 1.49591e+06 -264045)
(434175 770904 616176 1.67989e+06 1.49718e+06 -666787)
(-398817 -603171 547577 -1.29724e+06 1.33426e+06 -258168)
(73319.8 678886 544305 1.14029e+06 1.32659e+06 -723370)
(-120984 -506760 493722 -850708 1.15024e+06 -349999)
(-216819 588039 490529 706887 1.14357e+06 -648309)
(-1.71647e+06 -710515 535446 -3.72092e+06 1.8113e+06 -1.23376e+06)
(1.56529e+06 711368 598531 3.58199e+06 2.01362e+06 870661)
(-1.05684e+06 -638022 500352 -2.83819e+06 1.74613e+06 -435173)
(793879 673228 518259 2.69217e+06 1.80004e+06 -329267)
(-663162 -558762 455125 -2.18477e+06 1.61962e+06 -277284)
(352566 608301 457511 2.04188e+06 1.6249e+06 -641708)
(-353634 -484103 410128 -1.63004e+06 1.4636e+06 -273309)
(20714.7 540219 408181 1.49538e+06 1.45657e+06 -702800)
(-113278 -408627 375574 -1.17184e+06 1.2891e+06 -391333)
(-232597 468364 373263 1.04827e+06 1.28191e+06 -605293)
(-1.61451e+06 -448553 326056 -3.95528e+06 1.89163e+06 -1.26694e+06)
(1.46934e+06 449306 365095 3.8239e+06 2.1067e+06 914636)
(-980556 -405689 305867 -3.08285e+06 1.82815e+06 -458975)
(718326 427321 317881 2.95064e+06 1.89051e+06 -290410)
(-608567 -358387 279928 -2.43204e+06 1.70554e+06 -288579)
(295020 388857 282056 2.30443e+06 1.71453e+06 -620731)
(-322211 -312929 254297 -1.87785e+06 1.55451e+06 -286147)
(-15557 347395 253380 1.75798e+06 1.54844e+06 -685259)
(-111671 -264841 235330 -1.4152e+06 1.38788e+06 -424518)
(-239793 301429 233979 1.30514e+06 1.38057e+06 -570520)
(-1.56216e+06 -153204 109518 -4.07548e+06 1.93257e+06 -1.2846e+06)
(1.42004e+06 153492 122733 3.94795e+06 2.15422e+06 938105)
(-941434 -139058 102934 -3.21002e+06 1.86997e+06 -472431)
(679791 146340 107171 3.08468e+06 1.93706e+06 -268671)
(-580482 -123375 94497.3 -2.56216e+06 1.74956e+06 -295215)
(265614 133647 95342.1 2.44217e+06 1.76081e+06 -608597)
(-306509 -108131 86199.3 -2.00985e+06 1.60141e+06 -293662)
(-33646.2 119752 85948.3 1.89739e+06 1.59604e+06 -674981)
(-112670 -91605.7 80195.4 -1.54617e+06 1.43918e+06 -443158)
(-241678 103936 79758.5 1.44292e+06 1.43191e+06 -550909)
)
;

boundaryField
{
    bottom
    {
        type            calculated;
        value           nonuniform List<symmTensor> 
70
(
(774185 -354068 438753 522963 132754 -155640)
(354247 -395727 468468 145636 655123 -233492)
(861790 -306349 338068 449431 227244 -149161)
(411796 -342417 387776 -18650.6 791680 -238340)
(930587 -233379 235849 379900 284440 -142024)
(452636 -262520 288918 -160889 897655 -242479)
(975277 -145099 138519 329514 318244 -136486)
(476219 -164023 178869 -263097 972306 -245407)
(996879 -49128.3 45614.3 303506 334128 -133501)
(486309 -55665.6 60665.6 -316246 1.01145e+06 -246995)
(193591 -109560 520470 889644 -119466 -152248)
(315488 -108077 385855 1.01678e+06 -227088 -118887)
(56766.1 -217040 697270 700626 -101589 -224834)
(245636 -200492 652860 795152 -376201 -197611)
(76116 -313505 680334 593890 89900.5 -227280)
(301060 -272280 695157 699972 -286216 -208033)
(165907 -384956 609343 473299 286929 -223007)
(440622 -333258 620765 647180 -141916 -194673)
(272309 -410881 534516 314929 473266 -224940)
(614944 -358218 521404 576982 -5976.39 -178301)
(-50738.3 -53746.4 670071 699833 -11236.4 -177406)
(-140184 -191538 719093 595305 101151 -197015)
(-189292 -346139 735553 422911 324942 -213116)
(-192618 -470808 718304 164797 558014 -239936)
(-174785 -541277 672240 -161571 784523 -277963)
(-502362 -68997.2 939847 416539 87609.3 -205065)
(-551500 -232731 926900 331952 296948 -208186)
(-578595 -412211 893933 136571 529262 -212799)
(-564730 -559725 844176 -165489 760650 -221587)
(-522782 -645597 771827 -539217 982356 -236216)
(-1.06658e+06 -104253 1.16757e+06 104117 131660 -207909)
(-1.08003e+06 -321110 1.13457e+06 -13467.9 401430 -212423)
(-1.06699e+06 -528639 1.07466e+06 -256499 665337 -219043)
(-1.01594e+06 -689422 994481 -609351 915794 -228684)
(-938671 -776548 890585 -1.03173e+06 1.14786e+06 -244587)
(-1.77813e+06 -144152 1.37512e+06 -304694 158704 -260607)
(-1.75534e+06 -426774 1.33142e+06 -458356 471052 -271060)
(-1.68906e+06 -672635 1.2511e+06 -753669 765468 -288345)
(-1.58101e+06 -847883 1.14246e+06 -1.15998e+06 1.03628e+06 -312844)
(-1.45025e+06 -930843 1.00661e+06 -1.63038e+06 1.27989e+06 -348023)
(-2.81186e+06 -182864 1.53007e+06 -1.02052e+06 172340 -884686)
(-2.75096e+06 -531275 1.47839e+06 -1.2037e+06 505959 -909208)
(-2.62248e+06 -817509 1.38297e+06 -1.54232e+06 816826 -950692)
(-2.44174e+06 -1.00628e+06 1.25269e+06 -1.98854e+06 1.0977e+06 -1.00377e+06)
(-2.23963e+06 -1.08191e+06 1.09265e+06 -2.4882e+06 1.34461e+06 -1.06715e+06)
(-2.03666e+06 -1.04637e+06 918879 -2.96722e+06 1.54296e+06 -1.13358e+06)
(-1.29634e+06 -918276 848775 -2.08181e+06 1.47572e+06 -374419)
(-832074 -781935 757143 -1.44767e+06 1.34183e+06 -250498)
(-455327 -660324 664619 -918767 1.17605e+06 -243113)
(-138801 -553154 586892 -497056 985739 -308117)
(-1.86171e+06 -917042 733888 -3.38596e+06 1.69425e+06 -1.18873e+06)
(-1.16508e+06 -814772 681783 -2.49589e+06 1.62689e+06 -405817)
(-739754 -704479 614720 -1.84574e+06 1.49591e+06 -264045)
(-398817 -603171 547577 -1.29724e+06 1.33426e+06 -258168)
(-120984 -506760 493722 -850708 1.15024e+06 -349999)
(-1.71647e+06 -710515 535446 -3.72092e+06 1.8113e+06 -1.23376e+06)
(-1.05684e+06 -638022 500352 -2.83819e+06 1.74613e+06 -435173)
(-663162 -558762 455125 -2.18477e+06 1.61962e+06 -277284)
(-353634 -484103 410128 -1.63004e+06 1.4636e+06 -273309)
(-113278 -408627 375574 -1.17184e+06 1.2891e+06 -391333)
(-1.61451e+06 -448553 326056 -3.95528e+06 1.89163e+06 -1.26694e+06)
(-980556 -405689 305867 -3.08285e+06 1.82815e+06 -458975)
(-608567 -358387 279928 -2.43204e+06 1.70554e+06 -288579)
(-322211 -312929 254297 -1.87785e+06 1.55451e+06 -286147)
(-111671 -264841 235330 -1.4152e+06 1.38788e+06 -424518)
(-1.56216e+06 -153204 109518 -4.07548e+06 1.93257e+06 -1.2846e+06)
(-941434 -139058 102934 -3.21002e+06 1.86997e+06 -472431)
(-580482 -123375 94497.3 -2.56216e+06 1.74956e+06 -295215)
(-306509 -108131 86199.3 -2.00985e+06 1.60141e+06 -293662)
(-112670 -91605.7 80195.4 -1.54617e+06 1.43918e+06 -443158)
)
;
    }
    inside
    {
        type            calculated;
        value           nonuniform List<symmTensor> 
20
(
(774185 -354068 438753 522963 132754 -155640)
(-1.15777e+06 457534 438205 -578638 131698 -839322)
(861790 -306349 338068 449431 227244 -149161)
(-1.2451e+06 382944 337506 -493159 226172 -846925)
(930587 -233379 235849 379900 284440 -142024)
(-1.31282e+06 286274 235423 -415296 283253 -854365)
(975277 -145099 138519 329514 318244 -136486)
(-1.35653e+06 176152 138258 -359755 316968 -860037)
(996879 -49128.3 45614.3 303506 334128 -133501)
(-1.37758e+06 59368.2 45526.4 -331294 332806 -863082)
(315488 -108077 385855 1.01678e+06 -227088 -118887)
(-501900 281284 382997 -1.72769e+06 -228860 -923609)
(245636 -200492 652860 795152 -376201 -197611)
(-546429 472802 652018 -1.22844e+06 -379186 -816635)
(301060 -272280 695157 699972 -286216 -208033)
(-652146 508582 694731 -936701 -288232 -788721)
(440622 -333258 620765 647180 -141916 -194673)
(-813931 516078 620088 -782862 -143017 -799311)
(614944 -358218 521404 576982 -5976.39 -178301)
(-996654 494914 520545 -657745 -6768.38 -815338)
)
;
    }
    symmx
    {
        type            calculated;
        value           nonuniform List<symmTensor> 
14
(
(996879 -49128.3 45614.3 303506 334128 -133501)
(-1.37758e+06 59368.2 45526.4 -331294 332806 -863082)
(486309 -55665.6 60665.6 -316246 1.01145e+06 -246995)
(-855177 67465.7 60280.6 236872 1.006e+06 -755196)
(-1.56216e+06 -153204 109518 -4.07548e+06 1.93257e+06 -1.2846e+06)
(1.42004e+06 153492 122733 3.94795e+06 2.15422e+06 938105)
(-941434 -139058 102934 -3.21002e+06 1.86997e+06 -472431)
(679791 146340 107171 3.08468e+06 1.93706e+06 -268671)
(-580482 -123375 94497.3 -2.56216e+06 1.74956e+06 -295215)
(265614 133647 95342.1 2.44217e+06 1.76081e+06 -608597)
(-306509 -108131 86199.3 -2.00985e+06 1.60141e+06 -293662)
(-33646.2 119752 85948.3 1.89739e+06 1.59604e+06 -674981)
(-112670 -91605.7 80195.4 -1.54617e+06 1.43918e+06 -443158)
(-241678 103936 79758.5 1.44292e+06 1.43191e+06 -550909)
)
;
    }
    top
    {
        type            calculated;
        value           nonuniform List<symmTensor> 
70
(
(-1.15777e+06 457534 438205 -578638 131698 -839322)
(-706808 504609 466278 -276368 652120 -768586)
(-1.2451e+06 382944 337506 -493159 226172 -846925)
(-771706 426157 385700 -90380 787901 -764305)
(-1.31282e+06 286274 235423 -415296 283253 -854365)
(-817274 321903 287231 67037.1 893110 -760094)
(-1.35653e+06 176152 138258 -359755 316968 -860037)
(-843727 199497 177765 178966 967172 -756948)
(-1.37758e+06 59368.2 45526.4 -331294 332806 -863082)
(-855177 67465.7 60280.6 236872 1.006e+06 -755196)
(-396003 240160 514541 -1.52987e+06 -121526 -876514)
(-501900 281284 382997 -1.72769e+06 -228860 -923609)
(-321615 425944 694576 -1.1436e+06 -104693 -783095)
(-546429 472802 652018 -1.22844e+06 -379186 -816635)
(-379139 508546 678452 -896177 87767.6 -773504)
(-652146 508582 694731 -936701 -288232 -788721)
(-494488 551199 607289 -691768 285141 -778295)
(-813931 516078 620088 -782862 -143017 -799311)
(-618287 547074 532220 -480244 471038 -777600)
(-996654 494914 520545 -657745 -6768.38 -815338)
(-165940 105757 663528 -1.24675e+06 -12862 -834980)
(-92955.3 316051 713804 -1.02428e+06 98125.3 -801520)
(-77516.1 487756 730883 -749748 321878 -784225)
(-101530 605565 713762 -420492 554355 -758781)
(-138762 660333 667918 -44381.7 779835 -721454)
(255424 96675.6 930903 -872487 86234.3 -796155)
(299719 309565 918919 -736386 293666 -789818)
(311803 515733 886676 -474027 524847 -783216)
(279571 670509 837451 -110422 754963 -772282)
(220730 750681 765967 313861 975516 -754439)
(800604 120671 1.15768e+06 -508148 130359 -772901)
(816015 370815 1.12567e+06 -363770 397992 -765220)
(799218 603530 1.06731e+06 -76347.4 660568 -753418)
(738806 776995 989165 326649 910622 -736171)
(650263 864557 887805 796445 1.14368e+06 -709997)
(1.50164e+06 152596 1.38319e+06 -47505.6 159167 -626696)
(1.48618e+06 454307 1.34149e+06 121522 473348 -609380)
(1.4264e+06 718114 1.26438e+06 446259 771433 -579791)
(1.32054e+06 905153 1.15954e+06 890800 1.04857e+06 -537755)
(1.189e+06 991146 1.02716e+06 1.40139e+06 1.30162e+06 -480572)
(2.53821e+06 177818 1.66525e+06 797736 186218 410149)
(2.49407e+06 519669 1.61307e+06 983946 548684 441952)
(2.38977e+06 805639 1.51499e+06 1.33056e+06 889447 496065)
(2.23286e+06 998111 1.37895e+06 1.7904e+06 1.2011e+06 565891)
(2.0506e+06 1.07776e+06 1.20916e+06 2.30671e+06 1.47896e+06 648563)
(1.86541e+06 1.04505e+06 1.02101e+06 2.80387e+06 1.7049e+06 739843)
(1.03392e+06 974167 870860 1.88777e+06 1.50827e+06 -430249)
(533745 861572 756771 1.25125e+06 1.33984e+06 -692306)
(139883 752489 659976 731777 1.16843e+06 -743478)
(-188553 653936 583034 325549 979931 -691486)
(1.70178e+06 917305 818235 3.23607e+06 1.87846e+06 811237)
(901911 861858 703042 2.32911e+06 1.67026e+06 -377983)
(434175 770904 616176 1.67989e+06 1.49718e+06 -666787)
(73319.8 678886 544305 1.14029e+06 1.32659e+06 -723370)
(-216819 588039 490529 706887 1.14357e+06 -648309)
(1.56529e+06 711368 598531 3.58199e+06 2.01362e+06 870661)
(793879 673228 518259 2.69217e+06 1.80004e+06 -329267)
(352566 608301 457511 2.04188e+06 1.6249e+06 -641708)
(20714.7 540219 408181 1.49538e+06 1.45657e+06 -702800)
(-232597 468364 373263 1.04827e+06 1.28191e+06 -605293)
(1.46934e+06 449306 365095 3.8239e+06 2.1067e+06 914636)
(718326 427321 317881 2.95064e+06 1.89051e+06 -290410)
(295020 388857 282056 2.30443e+06 1.71453e+06 -620731)
(-15557 347395 253380 1.75798e+06 1.54844e+06 -685259)
(-239793 301429 233979 1.30514e+06 1.38057e+06 -570520)
(1.42004e+06 153492 122733 3.94795e+06 2.15422e+06 938105)
(679791 146340 107171 3.08468e+06 1.93706e+06 -268671)
(265614 133647 95342.1 2.44217e+06 1.76081e+06 -608597)
(-33646.2 119752 85948.3 1.89739e+06 1.59604e+06 -674981)
(-241678 103936 79758.5 1.44292e+06 1.43191e+06 -550909)
)
;
    }
    symmy
    {
        type            calculated;
        value           nonuniform List<symmTensor> 
14
(
(193591 -109560 520470 889644 -119466 -152248)
(-396003 240160 514541 -1.52987e+06 -121526 -876514)
(315488 -108077 385855 1.01678e+06 -227088 -118887)
(-501900 281284 382997 -1.72769e+06 -228860 -923609)
(-50738.3 -53746.4 670071 699833 -11236.4 -177406)
(-165940 105757 663528 -1.24675e+06 -12862 -834980)
(-502362 -68997.2 939847 416539 87609.3 -205065)
(255424 96675.6 930903 -872487 86234.3 -796155)
(-1.06658e+06 -104253 1.16757e+06 104117 131660 -207909)
(800604 120671 1.15768e+06 -508148 130359 -772901)
(-1.77813e+06 -144152 1.37512e+06 -304694 158704 -260607)
(1.50164e+06 152596 1.38319e+06 -47505.6 159167 -626696)
(-2.81186e+06 -182864 1.53007e+06 -1.02052e+06 172340 -884686)
(2.53821e+06 177818 1.66525e+06 797736 186218 410149)
)
;
    }
    outside
    {
        type            calculated;
        value           nonuniform List<symmTensor> 
20
(
(-2.81186e+06 -182864 1.53007e+06 -1.02052e+06 172340 -884686)
(2.53821e+06 177818 1.66525e+06 797736 186218 410149)
(-2.75096e+06 -531275 1.47839e+06 -1.2037e+06 505959 -909208)
(2.49407e+06 519669 1.61307e+06 983946 548684 441952)
(-2.62248e+06 -817509 1.38297e+06 -1.54232e+06 816826 -950692)
(2.38977e+06 805639 1.51499e+06 1.33056e+06 889447 496065)
(-2.44174e+06 -1.00628e+06 1.25269e+06 -1.98854e+06 1.0977e+06 -1.00377e+06)
(2.23286e+06 998111 1.37895e+06 1.7904e+06 1.2011e+06 565891)
(-2.23963e+06 -1.08191e+06 1.09265e+06 -2.4882e+06 1.34461e+06 -1.06715e+06)
(2.0506e+06 1.07776e+06 1.20916e+06 2.30671e+06 1.47896e+06 648563)
(-2.03666e+06 -1.04637e+06 918879 -2.96722e+06 1.54296e+06 -1.13358e+06)
(1.86541e+06 1.04505e+06 1.02101e+06 2.80387e+06 1.7049e+06 739843)
(-1.86171e+06 -917042 733888 -3.38596e+06 1.69425e+06 -1.18873e+06)
(1.70178e+06 917305 818235 3.23607e+06 1.87846e+06 811237)
(-1.71647e+06 -710515 535446 -3.72092e+06 1.8113e+06 -1.23376e+06)
(1.56529e+06 711368 598531 3.58199e+06 2.01362e+06 870661)
(-1.61451e+06 -448553 326056 -3.95528e+06 1.89163e+06 -1.26694e+06)
(1.46934e+06 449306 365095 3.8239e+06 2.1067e+06 914636)
(-1.56216e+06 -153204 109518 -4.07548e+06 1.93257e+06 -1.2846e+06)
(1.42004e+06 153492 122733 3.94795e+06 2.15422e+06 938105)
)
;
    }
}


// ************************************************************************* //
