/*--------------------------------*- C++ -*----------------------------------*\
| =========                 |                                                 |
| \\      /  F ield         | OpenFOAM: The Open Source CFD Toolbox           |
|  \\    /   O peration     | Version:  v2012                                 |
|   \\  /    A nd           | Website:  www.openfoam.com                      |
|    \\/     M anipulation  |                                                 |
\*---------------------------------------------------------------------------*/
FoamFile
{
    version     2.0;
    format      ascii;
    class       volScalarField;
    location    "1";
    object      sigmaEq;
}
// * * * * * * * * * * * * * * * * * * * * * * * * * * * * * * * * * * * * * //

dimensions      [1 -1 -2 0 0 0 0];


internalField   nonuniform List<scalar> 
62720
(
4.5e+06
4.5e+06
4.5e+06
4.5e+06
4.5e+06
4.5e+06
4.5e+06
4.5e+06
4.5e+06
4.5e+06
4.5e+06
4.5e+06
4.5e+06
4.5e+06
4.5e+06
4.5e+06
3.69814e+06
3.70513e+06
3.722e+06
3.75615e+06
3.8247e+06
3.97086e+06
4.32353e+06
4.5e+06
3.02366e+06
3.02979e+06
3.04447e+06
3.07385e+06
3.1321e+06
3.25496e+06
3.55048e+06
4.4366e+06
2.52546e+06
2.52952e+06
2.53944e+06
2.55989e+06
2.60171e+06
2.69303e+06
2.92161e+06
3.63601e+06
2.13047e+06
2.13167e+06
2.13521e+06
2.14411e+06
2.16577e+06
2.22068e+06
2.37672e+06
2.91428e+06
1.81341e+06
1.81125e+06
1.80736e+06
1.80303e+06
1.8021e+06
1.81717e+06
1.89558e+06
2.24921e+06
1.56903e+06
1.56338e+06
1.55178e+06
1.53377e+06
1.50948e+06
1.48307e+06
1.47939e+06
1.63726e+06
1.40365e+06
1.39501e+06
1.3768e+06
1.34695e+06
1.30211e+06
1.23794e+06
1.15459e+06
1.10398e+06
1.32883e+06
1.31861e+06
1.29688e+06
1.26065e+06
1.20448e+06
1.11859e+06
984994
770753
1.35204e+06
1.34229e+06
1.32159e+06
1.28723e+06
1.2344e+06
1.15499e+06
1.03691e+06
878108
1.46919e+06
1.46173e+06
1.44613e+06
1.42093e+06
1.38417e+06
1.33507e+06
1.28444e+06
1.32372e+06
1.6677e+06
1.66354e+06
1.6552e+06
1.64291e+06
1.62833e+06
1.61919e+06
1.65009e+06
1.89161e+06
1.93607e+06
1.93542e+06
1.93482e+06
1.93621e+06
1.94483e+06
1.97646e+06
2.08702e+06
2.51687e+06
2.27057e+06
2.27318e+06
2.27978e+06
2.29398e+06
2.32447e+06
2.3946e+06
2.58017e+06
3.18904e+06
2.67936e+06
2.68468e+06
2.69737e+06
2.72262e+06
2.77246e+06
2.87773e+06
3.13377e+06
3.91618e+06
3.1906e+06
3.19786e+06
3.21499e+06
3.24867e+06
3.3142e+06
3.44993e+06
3.77127e+06
4.5e+06
3.88125e+06
3.88923e+06
3.90826e+06
3.94622e+06
4.02133e+06
4.17934e+06
4.5e+06
4.5e+06
4.5e+06
4.5e+06
4.5e+06
4.5e+06
4.5e+06
4.5e+06
4.5e+06
4.5e+06
4.5e+06
4.5e+06
4.5e+06
4.5e+06
4.5e+06
4.5e+06
4.5e+06
4.5e+06
4.5e+06
4.5e+06
4.5e+06
4.5e+06
4.5e+06
4.5e+06
4.5e+06
4.5e+06
4.5e+06
4.5e+06
4.5e+06
4.5e+06
4.5e+06
4.5e+06
4.5e+06
4.5e+06
4.23493e+06
4.24471e+06
4.26794e+06
4.3137e+06
4.40153e+06
4.5e+06
4.5e+06
4.5e+06
3.44041e+06
3.44893e+06
3.46906e+06
3.50843e+06
3.58336e+06
3.72737e+06
3.99616e+06
4.32142e+06
2.86099e+06
2.86695e+06
2.88123e+06
2.90968e+06
2.96497e+06
3.07339e+06
3.27938e+06
3.52729e+06
2.4113e+06
2.41387e+06
2.42057e+06
2.43535e+06
2.4671e+06
2.535e+06
2.67284e+06
2.83745e+06
2.05681e+06
2.05551e+06
2.05366e+06
2.05324e+06
2.05927e+06
2.08367e+06
2.14913e+06
2.22284e+06
1.78755e+06
1.78236e+06
1.7719e+06
1.75622e+06
1.73638e+06
1.71663e+06
1.70689e+06
1.67974e+06
1.60741e+06
1.59898e+06
1.58134e+06
1.55283e+06
1.51089e+06
1.45221e+06
1.37213e+06
1.23784e+06
1.5264e+06
1.51629e+06
1.4949e+06
1.45962e+06
1.40582e+06
1.32544e+06
1.20314e+06
992765
1.55107e+06
1.54145e+06
1.52117e+06
1.4879e+06
1.43762e+06
1.36376e+06
1.25449e+06
1.0693e+06
1.67741e+06
1.67027e+06
1.65547e+06
1.63204e+06
1.59885e+06
1.55577e+06
1.50464e+06
1.41724e+06
1.89376e+06
1.89024e+06
1.88343e+06
1.87418e+06
1.86518e+06
1.86396e+06
1.88625e+06
1.90403e+06
2.18992e+06
2.19037e+06
2.1923e+06
2.19849e+06
2.21548e+06
2.25818e+06
2.35412e+06
2.46759e+06
2.56455e+06
2.56877e+06
2.57908e+06
2.60013e+06
2.64223e+06
2.7273e+06
2.89342e+06
3.09379e+06
3.03067e+06
3.03815e+06
3.05575e+06
3.08998e+06
3.15484e+06
3.2792e+06
3.51158e+06
3.79244e+06
3.62607e+06
3.63598e+06
3.65911e+06
3.70374e+06
3.78747e+06
3.94627e+06
4.23978e+06
4.5e+06
4.44045e+06
4.45148e+06
4.47739e+06
4.5e+06
4.5e+06
4.5e+06
4.5e+06
4.5e+06
4.5e+06
4.5e+06
4.5e+06
4.5e+06
4.5e+06
4.5e+06
4.5e+06
4.5e+06
4.5e+06
4.5e+06
4.5e+06
4.5e+06
4.5e+06
4.5e+06
4.5e+06
4.5e+06
4.5e+06
4.5e+06
4.5e+06
4.5e+06
4.5e+06
4.5e+06
4.5e+06
4.5e+06
4.5e+06
4.5e+06
4.5e+06
4.5e+06
4.5e+06
4.5e+06
4.5e+06
4.5e+06
4.5e+06
4.5e+06
4.5e+06
4.5e+06
4.5e+06
4.5e+06
4.5e+06
4.5e+06
3.78969e+06
3.80007e+06
3.82387e+06
3.86793e+06
3.94404e+06
4.06633e+06
4.22426e+06
4.26624e+06
3.15865e+06
3.16606e+06
3.18321e+06
3.21533e+06
3.27141e+06
3.36184e+06
3.47594e+06
3.48765e+06
2.666e+06
2.66963e+06
2.67843e+06
2.69593e+06
2.72819e+06
2.78201e+06
2.84743e+06
2.82462e+06
2.2791e+06
2.2785e+06
2.27806e+06
2.27951e+06
2.28597e+06
2.30052e+06
2.31365e+06
2.25026e+06
1.98698e+06
1.9822e+06
1.9726e+06
1.95819e+06
1.93903e+06
1.9141e+06
1.87297e+06
1.76169e+06
1.79265e+06
1.78445e+06
1.76734e+06
1.7398e+06
1.69911e+06
1.64001e+06
1.54907e+06
1.38649e+06
1.70556e+06
1.6956e+06
1.67463e+06
1.64027e+06
1.58819e+06
1.51043e+06
1.39058e+06
1.19377e+06
1.73187e+06
1.72244e+06
1.70263e+06
1.67031e+06
1.62164e+06
1.54954e+06
1.43869e+06
1.25335e+06
1.86757e+06
1.86074e+06
1.84663e+06
1.82432e+06
1.79222e+06
1.74691e+06
1.67665e+06
1.53719e+06
2.10119e+06
2.09821e+06
2.09253e+06
2.08485e+06
2.07651e+06
2.06831e+06
2.05065e+06
1.96194e+06
2.42299e+06
2.42429e+06
2.42797e+06
2.43644e+06
2.45401e+06
2.48528e+06
2.52087e+06
2.47659e+06
2.83247e+06
2.83793e+06
2.8507e+06
2.87494e+06
2.91779e+06
2.98737e+06
3.07346e+06
3.06672e+06
3.34379e+06
3.3529e+06
3.37373e+06
3.4121e+06
3.47801e+06
3.58308e+06
3.7162e+06
3.74173e+06
3.99286e+06
4.0048e+06
4.03195e+06
4.08168e+06
4.1667e+06
4.30244e+06
4.47799e+06
4.5e+06
4.5e+06
4.5e+06
4.5e+06
4.5e+06
4.5e+06
4.5e+06
4.5e+06
4.5e+06
4.5e+06
4.5e+06
4.5e+06
4.5e+06
4.5e+06
4.5e+06
4.5e+06
4.5e+06
4.5e+06
4.5e+06
4.5e+06
4.5e+06
4.5e+06
4.5e+06
4.5e+06
4.5e+06
4.5e+06
4.5e+06
4.5e+06
4.5e+06
4.5e+06
4.5e+06
4.5e+06
4.5e+06
4.5e+06
4.5e+06
4.5e+06
4.5e+06
4.5e+06
4.5e+06
4.5e+06
4.5e+06
4.5e+06
4.5e+06
4.5e+06
4.5e+06
4.5e+06
4.5e+06
4.5e+06
4.5e+06
4.05768e+06
4.06872e+06
4.09301e+06
4.13473e+06
4.19843e+06
4.2807e+06
4.34262e+06
4.24521e+06
3.40527e+06
3.41311e+06
3.43049e+06
3.46053e+06
3.50626e+06
3.56359e+06
3.59866e+06
3.49558e+06
2.88511e+06
2.88902e+06
2.89793e+06
2.91376e+06
2.93801e+06
2.96627e+06
2.97052e+06
2.85923e+06
2.47388e+06
2.47346e+06
2.47307e+06
2.47339e+06
2.47437e+06
2.4712e+06
2.44166e+06
2.31796e+06
2.16322e+06
2.15856e+06
2.14905e+06
2.13413e+06
2.11211e+06
2.07743e+06
2.01255e+06
1.87132e+06
1.95692e+06
1.94882e+06
1.93189e+06
1.90449e+06
1.86334e+06
1.80167e+06
1.70469e+06
1.54318e+06
1.86468e+06
1.85483e+06
1.83412e+06
1.80029e+06
1.74913e+06
1.67295e+06
1.55782e+06
1.38293e+06
1.89269e+06
1.88337e+06
1.86381e+06
1.83193e+06
1.78381e+06
1.71209e+06
1.60271e+06
1.43261e+06
2.03683e+06
2.03011e+06
2.01618e+06
1.9938e+06
1.96036e+06
1.9097e+06
1.82627e+06
1.67467e+06
2.28542e+06
2.28259e+06
2.27702e+06
2.26863e+06
2.25643e+06
2.23527e+06
2.186e+06
2.05414e+06
2.62833e+06
2.62987e+06
2.63365e+06
2.64082e+06
2.65194e+06
2.66237e+06
2.64769e+06
2.53101e+06
3.06427e+06
3.0701e+06
3.08304e+06
3.10548e+06
3.13941e+06
3.18043e+06
3.19813e+06
3.09164e+06
3.60479e+06
3.61441e+06
3.63555e+06
3.67173e+06
3.72643e+06
3.7955e+06
3.84261e+06
3.74266e+06
4.27608e+06
4.28872e+06
4.31642e+06
4.36378e+06
4.43573e+06
4.5e+06
4.5e+06
4.5e+06
4.5e+06
4.5e+06
4.5e+06
4.5e+06
4.5e+06
4.5e+06
4.5e+06
4.5e+06
4.5e+06
4.5e+06
4.5e+06
4.5e+06
4.5e+06
4.5e+06
4.5e+06
4.5e+06
4.5e+06
4.5e+06
4.5e+06
4.5e+06
4.5e+06
4.5e+06
4.5e+06
4.5e+06
4.5e+06
4.5e+06
4.5e+06
4.5e+06
4.5e+06
4.5e+06
4.5e+06
4.5e+06
4.5e+06
4.5e+06
4.5e+06
4.5e+06
4.5e+06
4.5e+06
4.5e+06
4.5e+06
4.5e+06
4.5e+06
4.5e+06
4.5e+06
4.5e+06
4.5e+06
4.5e+06
4.5e+06
4.2483e+06
4.25857e+06
4.28018e+06
4.31423e+06
4.35873e+06
4.40012e+06
4.3942e+06
4.23633e+06
3.59693e+06
3.60405e+06
3.61903e+06
3.64245e+06
3.67212e+06
3.69587e+06
3.67594e+06
3.52521e+06
3.06407e+06
3.06739e+06
3.07439e+06
3.08509e+06
3.09706e+06
3.0998e+06
3.06278e+06
2.91783e+06
2.63767e+06
2.63683e+06
2.63512e+06
2.63196e+06
2.62465e+06
2.60439e+06
2.54788e+06
2.40601e+06
2.31406e+06
2.30917e+06
2.29896e+06
2.28221e+06
2.25587e+06
2.21245e+06
2.13516e+06
1.9927e+06
2.09901e+06
2.09086e+06
2.07378e+06
2.04597e+06
2.00388e+06
1.94076e+06
1.8446e+06
1.69857e+06
2.00309e+06
1.99328e+06
1.97272e+06
1.93926e+06
1.88901e+06
1.81543e+06
1.70877e+06
1.55977e+06
2.03272e+06
2.02342e+06
2.00393e+06
1.97221e+06
1.92448e+06
1.85418e+06
1.75096e+06
1.60341e+06
2.18365e+06
2.17683e+06
2.16256e+06
2.13926e+06
2.10361e+06
2.04866e+06
1.96071e+06
1.81743e+06
2.44378e+06
2.44067e+06
2.43416e+06
2.42331e+06
2.40521e+06
2.37191e+06
2.30411e+06
2.16345e+06
2.80198e+06
2.80303e+06
2.80526e+06
2.8083e+06
2.80952e+06
2.79941e+06
2.7518e+06
2.61e+06
3.25489e+06
3.26006e+06
3.27087e+06
3.28754e+06
3.30762e+06
3.3198e+06
3.29053e+06
3.1441e+06
3.80928e+06
3.81812e+06
3.83664e+06
3.86558e+06
3.9027e+06
3.93498e+06
3.92165e+06
3.76824e+06
4.47976e+06
4.4916e+06
4.5e+06
4.5e+06
4.5e+06
4.5e+06
4.5e+06
4.4937e+06
4.5e+06
4.5e+06
4.5e+06
4.5e+06
4.5e+06
4.5e+06
4.5e+06
4.5e+06
4.5e+06
4.5e+06
4.5e+06
4.5e+06
4.5e+06
4.5e+06
4.5e+06
4.5e+06
4.5e+06
4.5e+06
4.5e+06
4.5e+06
4.5e+06
4.5e+06
4.5e+06
4.5e+06
4.5e+06
4.5e+06
4.5e+06
4.5e+06
4.5e+06
4.5e+06
4.5e+06
4.5e+06
4.5e+06
4.5e+06
4.5e+06
4.5e+06
4.5e+06
4.5e+06
4.5e+06
4.5e+06
4.5e+06
4.5e+06
4.5e+06
4.5e+06
4.5e+06
4.5e+06
4.5e+06
4.5e+06
4.37274e+06
4.3811e+06
4.39768e+06
4.42093e+06
4.44471e+06
4.45177e+06
4.40285e+06
4.22674e+06
3.73603e+06
3.74148e+06
3.75215e+06
3.76653e+06
3.77911e+06
3.77498e+06
3.72102e+06
3.55844e+06
3.20243e+06
3.20444e+06
3.20812e+06
3.21192e+06
3.21103e+06
3.19313e+06
3.13196e+06
2.98239e+06
2.76959e+06
2.76786e+06
2.76392e+06
2.75617e+06
2.74048e+06
2.70718e+06
2.63695e+06
2.49871e+06
2.43897e+06
2.43361e+06
2.42223e+06
2.40319e+06
2.37283e+06
2.32388e+06
2.24341e+06
2.11372e+06
2.21888e+06
2.2106e+06
2.19326e+06
2.16503e+06
2.12259e+06
2.06035e+06
1.97036e+06
1.84584e+06
2.12099e+06
2.11125e+06
2.09089e+06
2.05801e+06
2.00935e+06
1.94013e+06
1.84488e+06
1.72252e+06
2.15207e+06
2.14278e+06
2.12337e+06
2.09195e+06
2.04526e+06
1.9783e+06
1.8849e+06
1.7623e+06
2.30776e+06
2.30069e+06
2.28582e+06
2.2614e+06
2.224e+06
2.16743e+06
2.08186e+06
1.95626e+06
2.57543e+06
2.57168e+06
2.56359e+06
2.54952e+06
2.52564e+06
2.48372e+06
2.40828e+06
2.27617e+06
2.94267e+06
2.94266e+06
2.9422e+06
2.93969e+06
2.93067e+06
2.90437e+06
2.83862e+06
2.69661e+06
3.40349e+06
3.40717e+06
3.41421e+06
3.42301e+06
3.42841e+06
3.41689e+06
3.3593e+06
3.20487e+06
3.95936e+06
3.96635e+06
3.98011e+06
3.99907e+06
4.01733e+06
4.01879e+06
3.9675e+06
3.79926e+06
4.5e+06
4.5e+06
4.5e+06
4.5e+06
4.5e+06
4.5e+06
4.5e+06
4.48227e+06
4.5e+06
4.5e+06
4.5e+06
4.5e+06
4.5e+06
4.5e+06
4.5e+06
4.5e+06
4.5e+06
4.5e+06
4.5e+06
4.5e+06
4.5e+06
4.5e+06
4.5e+06
4.5e+06
4.5e+06
4.5e+06
4.5e+06
4.5e+06
4.5e+06
4.5e+06
4.5e+06
4.5e+06
4.5e+06
4.5e+06
4.5e+06
4.5e+06
4.5e+06
4.5e+06
4.5e+06
4.5e+06
4.5e+06
4.5e+06
4.5e+06
4.5e+06
4.5e+06
4.5e+06
4.5e+06
4.5e+06
4.5e+06
4.5e+06
4.5e+06
4.5e+06
4.5e+06
4.5e+06
4.5e+06
4.5e+06
4.44286e+06
4.44854e+06
4.45888e+06
4.47057e+06
4.47558e+06
4.45691e+06
4.38364e+06
4.21122e+06
3.82824e+06
3.83144e+06
3.8369e+06
3.84174e+06
3.83903e+06
3.81439e+06
3.7421e+06
3.58612e+06
3.30265e+06
3.30295e+06
3.30268e+06
3.29935e+06
3.28723e+06
3.25479e+06
3.18213e+06
3.04262e+06
2.87085e+06
2.868e+06
2.86148e+06
2.8492e+06
2.8266e+06
2.78509e+06
2.7107e+06
2.58663e+06
2.53887e+06
2.53295e+06
2.52035e+06
2.49928e+06
2.46624e+06
2.4153e+06
2.33806e+06
2.22714e+06
2.31747e+06
2.3091e+06
2.29162e+06
2.26343e+06
2.22178e+06
2.16279e+06
2.08244e+06
1.981e+06
2.21938e+06
2.20979e+06
2.18987e+06
2.15809e+06
2.11205e+06
2.04887e+06
1.96674e+06
1.86986e+06
2.25167e+06
2.24247e+06
2.22334e+06
2.19271e+06
2.14811e+06
2.08637e+06
2.00502e+06
1.90708e+06
2.40993e+06
2.40259e+06
2.38718e+06
2.362e+06
2.32405e+06
2.26866e+06
2.19012e+06
2.08564e+06
2.68105e+06
2.67651e+06
2.66665e+06
2.64952e+06
2.62122e+06
2.57473e+06
2.49936e+06
2.38381e+06
3.05138e+06
3.04999e+06
3.04637e+06
3.03821e+06
3.02047e+06
2.98329e+06
2.91024e+06
2.78041e+06
3.51231e+06
3.51401e+06
3.51651e+06
3.51708e+06
3.50946e+06
3.48082e+06
3.4088e+06
3.26278e+06
4.06058e+06
4.06506e+06
4.07303e+06
4.08137e+06
4.08261e+06
4.06111e+06
3.98877e+06
3.82579e+06
4.5e+06
4.5e+06
4.5e+06
4.5e+06
4.5e+06
4.5e+06
4.5e+06
4.46574e+06
4.5e+06
4.5e+06
4.5e+06
4.5e+06
4.5e+06
4.5e+06
4.5e+06
4.5e+06
4.5e+06
4.5e+06
4.5e+06
4.5e+06
4.5e+06
4.5e+06
4.5e+06
4.5e+06
4.5e+06
4.5e+06
4.5e+06
4.5e+06
4.5e+06
4.5e+06
4.5e+06
4.5e+06
4.5e+06
4.5e+06
4.5e+06
4.5e+06
4.5e+06
4.5e+06
4.5e+06
4.5e+06
4.5e+06
4.5e+06
4.5e+06
4.5e+06
4.5e+06
4.5e+06
4.5e+06
4.5e+06
4.5e+06
4.5e+06
4.5e+06
4.5e+06
4.5e+06
4.5e+06
4.5e+06
4.5e+06
4.46951e+06
4.47227e+06
4.4762e+06
4.4772e+06
4.46696e+06
4.4308e+06
4.3463e+06
4.18841e+06
3.88047e+06
3.88126e+06
3.88147e+06
3.87762e+06
3.86275e+06
3.82461e+06
3.745e+06
3.60449e+06
3.36887e+06
3.36736e+06
3.36322e+06
3.35359e+06
3.3329e+06
3.29164e+06
3.21623e+06
3.09352e+06
2.9441e+06
2.94012e+06
2.93122e+06
2.91518e+06
2.88786e+06
2.84253e+06
2.77038e+06
2.66483e+06
2.6157e+06
2.6093e+06
2.59576e+06
2.57341e+06
2.53937e+06
2.48954e+06
2.41956e+06
2.32915e+06
2.39644e+06
2.38811e+06
2.37085e+06
2.34338e+06
2.3038e+06
2.24999e+06
2.18116e+06
2.10207e+06
2.29983e+06
2.29055e+06
2.27143e+06
2.2414e+06
2.19902e+06
2.14316e+06
2.0748e+06
2.00126e+06
2.33307e+06
2.3241e+06
2.3056e+06
2.27643e+06
2.23502e+06
2.17994e+06
2.11166e+06
2.03668e+06
2.49173e+06
2.48424e+06
2.46859e+06
2.44336e+06
2.40627e+06
2.35444e+06
2.28566e+06
2.20261e+06
2.76248e+06
2.75719e+06
2.74578e+06
2.72635e+06
2.69549e+06
2.64802e+06
2.57775e+06
2.48167e+06
3.13065e+06
3.12784e+06
3.12118e+06
3.10816e+06
3.08403e+06
3.04089e+06
2.96794e+06
2.85572e+06
3.58544e+06
3.58505e+06
3.58302e+06
3.57619e+06
3.55836e+06
3.51885e+06
3.44208e+06
3.31221e+06
4.11992e+06
4.1217e+06
4.12378e+06
4.12238e+06
4.1099e+06
4.07296e+06
3.99148e+06
3.84358e+06
4.5e+06
4.5e+06
4.5e+06
4.5e+06
4.5e+06
4.5e+06
4.5e+06
4.44236e+06
4.5e+06
4.5e+06
4.5e+06
4.5e+06
4.5e+06
4.5e+06
4.5e+06
4.5e+06
4.5e+06
4.5e+06
4.5e+06
4.5e+06
4.5e+06
4.5e+06
4.5e+06
4.5e+06
4.5e+06
4.5e+06
4.5e+06
4.5e+06
4.5e+06
4.5e+06
4.5e+06
4.5e+06
4.5e+06
4.5e+06
4.5e+06
4.5e+06
4.5e+06
4.5e+06
4.5e+06
4.5e+06
4.5e+06
4.5e+06
4.5e+06
4.5e+06
4.5e+06
4.5e+06
4.5e+06
4.5e+06
4.5e+06
4.5e+06
4.5e+06
4.5e+06
4.5e+06
4.5e+06
4.5e+06
4.5e+06
4.46206e+06
4.46201e+06
4.46013e+06
4.45221e+06
4.43071e+06
4.38399e+06
4.29705e+06
4.15829e+06
3.89977e+06
3.89829e+06
3.89384e+06
3.88292e+06
3.85932e+06
3.81359e+06
3.73398e+06
3.61252e+06
3.406e+06
3.40287e+06
3.39541e+06
3.38087e+06
3.35447e+06
3.30914e+06
3.2367e+06
3.13315e+06
2.99282e+06
2.98789e+06
2.97712e+06
2.95851e+06
2.92871e+06
2.88311e+06
2.81721e+06
2.73116e+06
2.67209e+06
2.6654e+06
2.65139e+06
2.62871e+06
2.59535e+06
2.54897e+06
2.48851e+06
2.41812e+06
2.45794e+06
2.44985e+06
2.43324e+06
2.40726e+06
2.3709e+06
2.32362e+06
2.26703e+06
2.20844e+06
2.36426e+06
2.35548e+06
2.33758e+06
2.30996e+06
2.27211e+06
2.22434e+06
2.16962e+06
2.11682e+06
2.39817e+06
2.38963e+06
2.37218e+06
2.34514e+06
2.30786e+06
2.2604e+06
2.20531e+06
2.15093e+06
2.5553e+06
2.54783e+06
2.53239e+06
2.50793e+06
2.47305e+06
2.42649e+06
2.3688e+06
2.30593e+06
2.82231e+06
2.81645e+06
2.80397e+06
2.78326e+06
2.75174e+06
2.70615e+06
2.64394e+06
2.56752e+06
3.18396e+06
3.17989e+06
3.17072e+06
3.1541e+06
3.12609e+06
3.08103e+06
3.01286e+06
2.91992e+06
3.62786e+06
3.62554e+06
3.61955e+06
3.6068e+06
3.58189e+06
3.53672e+06
3.46161e+06
3.35083e+06
4.14459e+06
4.1438e+06
4.1406e+06
4.13116e+06
4.10866e+06
4.06266e+06
3.98004e+06
3.8513e+06
4.5e+06
4.5e+06
4.5e+06
4.5e+06
4.5e+06
4.5e+06
4.5e+06
4.41199e+06
4.5e+06
4.5e+06
4.5e+06
4.5e+06
4.5e+06
4.5e+06
4.5e+06
4.5e+06
4.5e+06
4.5e+06
4.5e+06
4.5e+06
4.5e+06
4.5e+06
4.5e+06
4.5e+06
4.5e+06
4.5e+06
4.5e+06
4.5e+06
4.5e+06
4.5e+06
4.5e+06
4.5e+06
4.5e+06
4.5e+06
4.5e+06
4.5e+06
4.5e+06
4.5e+06
4.5e+06
4.5e+06
4.5e+06
4.5e+06
4.5e+06
4.5e+06
4.5e+06
4.5e+06
4.5e+06
4.5e+06
4.5e+06
4.5e+06
4.5e+06
4.5e+06
4.5e+06
4.5e+06
4.5e+06
4.5e+06
4.42828e+06
4.42583e+06
4.41917e+06
4.40447e+06
4.37547e+06
4.32362e+06
4.23983e+06
4.12138e+06
3.89267e+06
3.88929e+06
3.88111e+06
3.865e+06
3.83594e+06
3.78722e+06
3.71225e+06
3.61048e+06
3.41908e+06
3.41465e+06
3.40469e+06
3.38684e+06
3.35739e+06
3.31164e+06
3.24565e+06
3.16127e+06
3.02077e+06
3.01518e+06
3.00324e+06
2.98333e+06
2.95309e+06
2.90986e+06
2.85244e+06
2.78516e+06
2.71093e+06
2.70421e+06
2.69028e+06
2.66825e+06
2.63697e+06
2.5957e+06
2.54574e+06
2.4938e+06
2.50433e+06
2.4967e+06
2.48118e+06
2.4574e+06
2.42516e+06
2.38519e+06
2.34075e+06
2.30037e+06
2.41477e+06
2.40669e+06
2.3904e+06
2.36576e+06
2.33304e+06
2.29371e+06
2.25196e+06
2.21721e+06
2.4491e+06
2.44118e+06
2.42518e+06
2.40088e+06
2.36842e+06
2.32904e+06
2.28664e+06
2.2503e+06
2.60301e+06
2.5958e+06
2.58105e+06
2.55816e+06
2.52656e+06
2.4864e+06
2.44014e+06
2.39546e+06
2.86349e+06
2.85732e+06
2.84439e+06
2.82348e+06
2.79295e+06
2.75127e+06
2.69865e+06
2.64071e+06
3.21516e+06
3.21015e+06
3.1992e+06
3.18039e+06
3.15077e+06
3.10685e+06
3.04625e+06
2.97218e+06
3.64474e+06
3.64083e+06
3.63175e+06
3.61481e+06
3.58573e+06
3.53896e+06
3.4695e+06
3.37813e+06
4.14132e+06
4.13835e+06
4.13087e+06
4.1154e+06
4.0864e+06
4.03635e+06
3.9577e+06
3.84904e+06
4.5e+06
4.5e+06
4.5e+06
4.5e+06
4.5e+06
4.5e+06
4.5e+06
4.37504e+06
4.5e+06
4.5e+06
4.5e+06
4.5e+06
4.5e+06
4.5e+06
4.5e+06
4.5e+06
4.5e+06
4.5e+06
4.5e+06
4.5e+06
4.5e+06
4.5e+06
4.5e+06
4.5e+06
4.5e+06
4.5e+06
4.5e+06
4.5e+06
4.5e+06
4.5e+06
4.5e+06
4.5e+06
4.5e+06
4.5e+06
4.5e+06
4.5e+06
4.5e+06
4.5e+06
4.5e+06
4.5e+06
4.5e+06
4.5e+06
4.5e+06
4.5e+06
4.5e+06
4.5e+06
4.5e+06
4.5e+06
4.5e+06
4.5e+06
4.5e+06
4.5e+06
4.5e+06
4.5e+06
4.5e+06
4.5e+06
4.37457e+06
4.37022e+06
4.35997e+06
4.34063e+06
4.30735e+06
4.25434e+06
4.17713e+06
4.07845e+06
3.86493e+06
3.86012e+06
3.84927e+06
3.82984e+06
3.7981e+06
3.74978e+06
3.68216e+06
3.59922e+06
3.41284e+06
3.40751e+06
3.39595e+06
3.37633e+06
3.34608e+06
3.30253e+06
3.24491e+06
3.1785e+06
3.0317e+06
3.02579e+06
3.01338e+06
2.99337e+06
2.96435e+06
2.92532e+06
2.87741e+06
2.82729e+06
2.73517e+06
2.72866e+06
2.71537e+06
2.69483e+06
2.66672e+06
2.63157e+06
2.59226e+06
2.55674e+06
2.53801e+06
2.53102e+06
2.517e+06
2.49599e+06
2.46847e+06
2.43614e+06
2.40326e+06
2.37868e+06
2.45349e+06
2.44628e+06
2.43191e+06
2.41067e+06
2.38345e+06
2.3525e+06
2.32274e+06
2.30345e+06
2.48798e+06
2.48087e+06
2.46666e+06
2.44556e+06
2.41835e+06
2.38711e+06
2.35652e+06
2.3357e+06
2.63732e+06
2.63059e+06
2.61698e+06
2.59632e+06
2.5688e+06
2.53563e+06
2.50049e+06
2.47177e+06
2.88905e+06
2.88286e+06
2.87008e+06
2.84997e+06
2.82175e+06
2.78532e+06
2.7428e+06
2.70151e+06
3.22812e+06
3.22252e+06
3.21059e+06
3.19092e+06
3.16161e+06
3.12098e+06
3.06936e+06
3.01277e+06
3.64099e+06
3.63592e+06
3.62473e+06
3.60529e+06
3.57452e+06
3.52914e+06
3.46757e+06
3.39459e+06
4.1161e+06
4.11147e+06
4.10083e+06
4.08136e+06
4.04887e+06
3.9985e+06
3.92687e+06
3.83755e+06
4.5e+06
4.5e+06
4.5e+06
4.5e+06
4.5e+06
4.5e+06
4.43684e+06
4.3321e+06
4.5e+06
4.5e+06
4.5e+06
4.5e+06
4.5e+06
4.5e+06
4.5e+06
4.5e+06
4.5e+06
4.5e+06
4.5e+06
4.5e+06
4.5e+06
4.5e+06
4.5e+06
4.5e+06
4.5e+06
4.5e+06
4.5e+06
4.5e+06
4.5e+06
4.5e+06
4.5e+06
4.5e+06
4.5e+06
4.5e+06
4.5e+06
4.5e+06
4.5e+06
4.5e+06
4.5e+06
4.5e+06
4.5e+06
4.5e+06
4.5e+06
4.5e+06
4.5e+06
4.5e+06
4.5e+06
4.5e+06
4.5e+06
4.5e+06
4.5e+06
4.5e+06
4.5e+06
4.5e+06
4.5e+06
4.5e+06
4.30604e+06
4.30035e+06
4.2877e+06
4.26555e+06
4.23048e+06
4.17922e+06
4.11056e+06
4.03018e+06
3.82146e+06
3.8157e+06
3.80323e+06
3.78213e+06
3.74992e+06
3.70437e+06
3.6455e+06
3.5798e+06
3.3915e+06
3.38569e+06
3.37339e+06
3.35335e+06
3.32404e+06
3.28449e+06
3.23606e+06
3.18589e+06
3.02906e+06
3.02314e+06
3.01094e+06
2.99184e+06
2.96528e+06
2.93157e+06
2.89341e+06
2.85852e+06
2.74756e+06
2.74151e+06
2.72933e+06
2.71096e+06
2.68677e+06
2.65822e+06
2.62918e+06
2.60793e+06
2.56123e+06
2.55507e+06
2.54286e+06
2.52501e+06
2.50254e+06
2.47782e+06
2.45559e+06
2.44449e+06
2.48244e+06
2.47622e+06
2.46402e+06
2.44642e+06
2.42481e+06
2.40194e+06
2.383e+06
2.37677e+06
2.51688e+06
2.51071e+06
2.49854e+06
2.48094e+06
2.45915e+06
2.43581e+06
2.41597e+06
2.4083e+06
2.66058e+06
2.65452e+06
2.64242e+06
2.6245e+06
2.60154e+06
2.57552e+06
2.55081e+06
2.53583e+06
2.90188e+06
2.89594e+06
2.88386e+06
2.86535e+06
2.84039e+06
2.80997e+06
2.77743e+06
2.75074e+06
3.22645e+06
3.22062e+06
3.20846e+06
3.18909e+06
3.16155e+06
3.12562e+06
3.08346e+06
3.04249e+06
3.62102e+06
3.61524e+06
3.60289e+06
3.58244e+06
3.55196e+06
3.50999e+06
3.45741e+06
3.40112e+06
4.07407e+06
4.06828e+06
4.05563e+06
4.03397e+06
4.00042e+06
3.95234e+06
3.88934e+06
3.81778e+06
4.5e+06
4.5e+06
4.5e+06
4.5e+06
4.49622e+06
4.44239e+06
4.36965e+06
4.28369e+06
4.5e+06
4.5e+06
4.5e+06
4.5e+06
4.5e+06
4.5e+06
4.5e+06
4.5e+06
4.5e+06
4.5e+06
4.5e+06
4.5e+06
4.5e+06
4.5e+06
4.5e+06
4.5e+06
4.5e+06
4.5e+06
4.5e+06
4.5e+06
4.5e+06
4.5e+06
4.5e+06
4.5e+06
4.5e+06
4.5e+06
4.5e+06
4.5e+06
4.5e+06
4.5e+06
4.5e+06
4.5e+06
4.5e+06
4.5e+06
4.5e+06
4.5e+06
4.5e+06
4.5e+06
4.5e+06
4.5e+06
4.5e+06
4.5e+06
4.5e+06
4.5e+06
4.5e+06
4.5e+06
4.5e+06
4.44727e+06
4.22656e+06
4.22003e+06
4.20603e+06
4.18279e+06
4.14817e+06
4.10061e+06
4.04118e+06
3.97715e+06
3.76628e+06
3.76004e+06
3.74686e+06
3.72548e+06
3.69449e+06
3.65324e+06
3.60361e+06
3.55326e+06
3.35869e+06
3.35276e+06
3.34048e+06
3.32111e+06
3.29405e+06
3.25957e+06
3.22047e+06
3.18459e+06
3.01588e+06
3.01025e+06
2.99882e+06
2.98141e+06
2.95818e+06
2.93039e+06
2.90168e+06
2.88002e+06
2.75059e+06
2.7452e+06
2.7345e+06
2.71879e+06
2.69896e+06
2.67712e+06
2.65764e+06
2.64858e+06
2.57606e+06
2.57084e+06
2.56067e+06
2.54621e+06
2.5289e+06
2.51148e+06
2.49886e+06
2.49911e+06
2.50344e+06
2.49831e+06
2.4884e+06
2.47456e+06
2.45847e+06
2.44319e+06
2.43385e+06
2.43852e+06
2.53766e+06
2.53252e+06
2.52257e+06
2.50859e+06
2.49219e+06
2.47632e+06
2.46605e+06
2.46939e+06
2.67494e+06
2.66969e+06
2.65938e+06
2.64454e+06
2.62637e+06
2.60736e+06
2.59217e+06
2.58882e+06
2.90459e+06
2.89914e+06
2.88821e+06
2.87191e+06
2.85083e+06
2.82672e+06
2.80363e+06
2.78952e+06
3.21335e+06
3.20761e+06
3.19587e+06
3.17772e+06
3.15299e+06
3.12258e+06
3.08976e+06
3.06246e+06
3.58864e+06
3.58257e+06
3.56989e+06
3.54965e+06
3.52094e+06
3.48369e+06
3.44038e+06
3.39886e+06
4.01947e+06
4.01303e+06
3.99937e+06
3.97701e+06
3.94427e+06
3.9002e+06
3.84645e+06
3.79074e+06
4.49542e+06
4.48866e+06
4.47411e+06
4.44979e+06
4.41334e+06
4.36297e+06
4.29948e+06
4.23037e+06
4.5e+06
4.5e+06
4.5e+06
4.5e+06
4.5e+06
4.5e+06
4.5e+06
4.5e+06
4.5e+06
4.5e+06
4.5e+06
4.5e+06
4.5e+06
4.5e+06
4.5e+06
4.5e+06
4.5e+06
4.5e+06
4.5e+06
4.5e+06
4.5e+06
4.5e+06
4.5e+06
4.5e+06
4.5e+06
4.5e+06
4.5e+06
4.5e+06
4.5e+06
4.5e+06
4.5e+06
4.5e+06
4.5e+06
4.5e+06
4.5e+06
4.5e+06
4.5e+06
4.5e+06
4.5e+06
4.5e+06
4.5e+06
4.5e+06
4.5e+06
4.5e+06
4.5e+06
4.48552e+06
4.42714e+06
4.36648e+06
4.13966e+06
4.13277e+06
4.11834e+06
4.09526e+06
4.06241e+06
4.01968e+06
3.96955e+06
3.9199e+06
3.70269e+06
3.69635e+06
3.68323e+06
3.66263e+06
3.63405e+06
3.598e+06
3.55752e+06
3.52059e+06
3.31742e+06
3.3117e+06
3.30003e+06
3.28217e+06
3.25822e+06
3.22939e+06
3.19928e+06
3.1758e+06
2.99478e+06
2.98966e+06
2.97943e+06
2.96427e+06
2.94491e+06
2.92324e+06
2.90337e+06
2.89305e+06
2.74644e+06
2.74185e+06
2.73289e+06
2.72013e+06
2.70485e+06
2.68955e+06
2.67875e+06
2.67999e+06
2.58431e+06
2.58011e+06
2.57209e+06
2.56112e+06
2.54887e+06
2.53828e+06
2.53417e+06
2.54388e+06
2.51814e+06
2.51413e+06
2.50657e+06
2.49646e+06
2.48566e+06
2.47733e+06
2.47639e+06
2.49007e+06
2.55198e+06
2.54793e+06
2.54025e+06
2.52991e+06
2.51871e+06
2.50973e+06
2.50786e+06
2.52033e+06
2.68228e+06
2.67796e+06
2.66961e+06
2.65801e+06
2.64465e+06
2.6323e+06
2.62563e+06
2.63201e+06
2.89948e+06
2.89469e+06
2.88525e+06
2.87157e+06
2.8547e+06
2.83688e+06
2.82247e+06
2.81904e+06
3.19157e+06
3.1862e+06
3.17538e+06
3.15913e+06
3.13791e+06
3.11336e+06
3.08941e+06
3.07386e+06
3.54704e+06
3.54102e+06
3.5287e+06
3.50963e+06
3.4837e+06
3.45188e+06
3.41762e+06
3.38894e+06
3.95575e+06
3.94909e+06
3.93526e+06
3.91339e+06
3.88279e+06
3.84375e+06
3.79925e+06
3.75743e+06
4.40848e+06
4.40124e+06
4.38606e+06
4.36166e+06
4.32676e+06
4.28101e+06
4.22693e+06
4.17279e+06
4.5e+06
4.5e+06
4.5e+06
4.5e+06
4.5e+06
4.5e+06
4.5e+06
4.5e+06
4.5e+06
4.5e+06
4.5e+06
4.5e+06
4.5e+06
4.5e+06
4.5e+06
4.5e+06
4.5e+06
4.5e+06
4.5e+06
4.5e+06
4.5e+06
4.5e+06
4.5e+06
4.5e+06
4.5e+06
4.5e+06
4.5e+06
4.5e+06
4.5e+06
4.5e+06
4.5e+06
4.5e+06
4.5e+06
4.5e+06
4.5e+06
4.5e+06
4.5e+06
4.5e+06
4.5e+06
4.5e+06
4.5e+06
4.49701e+06
4.48162e+06
4.4573e+06
4.42335e+06
4.38023e+06
4.331e+06
4.28351e+06
4.04769e+06
4.04081e+06
4.02665e+06
4.00466e+06
3.97457e+06
3.93726e+06
3.89609e+06
3.85889e+06
3.63327e+06
3.62715e+06
3.61468e+06
3.59566e+06
3.57026e+06
3.53982e+06
3.50804e+06
3.48269e+06
3.27015e+06
3.26487e+06
3.25427e+06
3.2385e+06
3.2182e+06
3.19519e+06
3.17349e+06
3.16063e+06
2.96792e+06
2.96347e+06
2.95474e+06
2.94221e+06
2.92697e+06
2.91132e+06
2.89953e+06
2.8988e+06
2.73692e+06
2.73322e+06
2.72615e+06
2.71649e+06
2.70575e+06
2.69662e+06
2.69356e+06
2.7034e+06
2.58752e+06
2.58438e+06
2.57854e+06
2.57101e+06
2.56359e+06
2.55926e+06
2.56258e+06
2.58008e+06
2.52791e+06
2.52504e+06
2.51979e+06
2.51327e+06
2.50744e+06
2.50538e+06
2.51169e+06
2.53276e+06
2.56125e+06
2.5583e+06
2.55289e+06
2.54608e+06
2.53979e+06
2.53705e+06
2.54245e+06
2.56241e+06
2.68424e+06
2.6809e+06
2.6746e+06
2.66626e+06
2.65758e+06
2.65139e+06
2.65221e+06
2.66667e+06
2.88848e+06
2.88448e+06
2.87674e+06
2.86592e+06
2.85337e+06
2.8416e+06
2.83501e+06
2.84054e+06
3.16341e+06
3.15861e+06
3.14909e+06
3.1352e+06
3.11786e+06
3.09921e+06
3.08343e+06
3.07787e+06
3.49881e+06
3.49314e+06
3.48169e+06
3.46448e+06
3.44198e+06
3.41588e+06
3.39015e+06
3.37249e+06
3.88567e+06
3.87913e+06
3.86578e+06
3.84527e+06
3.81767e+06
3.78421e+06
3.74857e+06
3.71875e+06
4.31604e+06
4.30872e+06
4.2936e+06
4.27004e+06
4.23771e+06
4.19745e+06
4.15267e+06
4.11146e+06
4.5e+06
4.5e+06
4.5e+06
4.5e+06
4.5e+06
4.5e+06
4.5e+06
4.5e+06
4.5e+06
4.5e+06
4.5e+06
4.5e+06
4.5e+06
4.5e+06
4.5e+06
4.5e+06
4.5e+06
4.5e+06
4.5e+06
4.5e+06
4.5e+06
4.5e+06
4.5e+06
4.5e+06
4.5e+06
4.5e+06
4.5e+06
4.5e+06
4.5e+06
4.5e+06
4.5e+06
4.5e+06
4.5e+06
4.5e+06
4.5e+06
4.5e+06
4.5e+06
4.5e+06
4.5e+06
4.5e+06
4.38884e+06
4.38158e+06
4.3667e+06
4.34379e+06
4.31283e+06
4.27507e+06
4.23429e+06
4.19822e+06
3.95251e+06
3.94592e+06
3.93257e+06
3.91233e+06
3.88559e+06
3.85389e+06
3.82107e+06
3.79455e+06
3.56004e+06
3.55437e+06
3.54299e+06
3.52606e+06
3.50429e+06
3.47955e+06
3.45581e+06
3.44036e+06
3.21882e+06
3.21415e+06
3.20495e+06
3.19164e+06
3.17524e+06
3.15797e+06
3.14393e+06
3.14007e+06
2.93702e+06
2.93337e+06
2.92634e+06
2.9166e+06
2.90554e+06
2.89563e+06
2.89107e+06
2.89839e+06
2.72352e+06
2.72076e+06
2.71565e+06
2.70909e+06
2.70274e+06
2.69931e+06
2.70303e+06
2.72e+06
2.58696e+06
2.58487e+06
2.58118e+06
2.57696e+06
2.57405e+06
2.57535e+06
2.58507e+06
2.60895e+06
2.53394e+06
2.53216e+06
2.52913e+06
2.52601e+06
2.52473e+06
2.52825e+06
2.54075e+06
2.56781e+06
2.56669e+06
2.56481e+06
2.56159e+06
2.55814e+06
2.55636e+06
2.55919e+06
2.57083e+06
2.59687e+06
2.68217e+06
2.67982e+06
2.67557e+06
2.67043e+06
2.66616e+06
2.66559e+06
2.67291e+06
2.69399e+06
2.87319e+06
2.87006e+06
2.86415e+06
2.85627e+06
2.84796e+06
2.84186e+06
2.84218e+06
2.85517e+06
3.13075e+06
3.12666e+06
3.11869e+06
3.10742e+06
3.09412e+06
3.08116e+06
3.07275e+06
3.0756e+06
3.44604e+06
3.44091e+06
3.43072e+06
3.4158e+06
3.39709e+06
3.37671e+06
3.35879e+06
3.3505e+06
3.81134e+06
3.80518e+06
3.7928e+06
3.77427e+06
3.75022e+06
3.72247e+06
3.69506e+06
3.67551e+06
4.21985e+06
4.21276e+06
4.1984e+06
4.17658e+06
4.14762e+06
4.11309e+06
4.07689e+06
4.04675e+06
4.5e+06
4.5e+06
4.5e+06
4.5e+06
4.5e+06
4.5e+06
4.5e+06
4.46082e+06
4.5e+06
4.5e+06
4.5e+06
4.5e+06
4.5e+06
4.5e+06
4.5e+06
4.5e+06
4.5e+06
4.5e+06
4.5e+06
4.5e+06
4.5e+06
4.5e+06
4.5e+06
4.5e+06
4.5e+06
4.5e+06
4.5e+06
4.5e+06
4.5e+06
4.5e+06
4.5e+06
4.5e+06
4.5e+06
4.5e+06
4.5e+06
4.5e+06
4.5e+06
4.5e+06
4.5e+06
4.5e+06
4.27191e+06
4.26499e+06
4.251e+06
4.22995e+06
4.20244e+06
4.17025e+06
4.13738e+06
4.11101e+06
3.85552e+06
3.84943e+06
3.83724e+06
3.81918e+06
3.79609e+06
3.76994e+06
3.74474e+06
3.72733e+06
3.48453e+06
3.47947e+06
3.46947e+06
3.45496e+06
3.43701e+06
3.41781e+06
3.40136e+06
3.3943e+06
3.16493e+06
3.16101e+06
3.15339e+06
3.14272e+06
3.1303e+06
3.11848e+06
3.11132e+06
3.11504e+06
2.90348e+06
2.90069e+06
2.89544e+06
2.88856e+06
2.88156e+06
2.87698e+06
2.87881e+06
2.89284e+06
2.70744e+06
2.70564e+06
2.70247e+06
2.69893e+06
2.69669e+06
2.69843e+06
2.70804e+06
2.73085e+06
2.58368e+06
2.58261e+06
2.58097e+06
2.57985e+06
2.58108e+06
2.58737e+06
2.60255e+06
2.6316e+06
2.53716e+06
2.53643e+06
2.5355e+06
2.53551e+06
2.53835e+06
2.54675e+06
2.56449e+06
2.59637e+06
2.56925e+06
2.56841e+06
2.56726e+06
2.56692e+06
2.56925e+06
2.57698e+06
2.5939e+06
2.62485e+06
2.67718e+06
2.67581e+06
2.67355e+06
2.67144e+06
2.67126e+06
2.67571e+06
2.68861e+06
2.71509e+06
2.85492e+06
2.85269e+06
2.84864e+06
2.84367e+06
2.83942e+06
2.83851e+06
2.84486e+06
2.86401e+06
3.09507e+06
3.09177e+06
3.08549e+06
3.07698e+06
3.06767e+06
3.06006e+06
3.0582e+06
3.06808e+06
3.39035e+06
3.3859e+06
3.37722e+06
3.36485e+06
3.35005e+06
3.33517e+06
3.32428e+06
3.32389e+06
3.73441e+06
3.72882e+06
3.71776e+06
3.70159e+06
3.68133e+06
3.65919e+06
3.63926e+06
3.62841e+06
4.12181e+06
4.11519e+06
4.10196e+06
4.0823e+06
4.05701e+06
4.02814e+06
3.99978e+06
3.97906e+06
4.5e+06
4.5e+06
4.5e+06
4.5e+06
4.47345e+06
4.43874e+06
4.40303e+06
4.37377e+06
4.5e+06
4.5e+06
4.5e+06
4.5e+06
4.5e+06
4.5e+06
4.5e+06
4.5e+06
4.5e+06
4.5e+06
4.5e+06
4.5e+06
4.5e+06
4.5e+06
4.5e+06