/*--------------------------------*- C++ -*----------------------------------*\
| =========                 |                                                 |
| \\      /  F ield         | OpenFOAM: The Open Source CFD Toolbox           |
|  \\    /   O peration     | Version:  v2012                                 |
|   \\  /    A nd           | Website:  www.openfoam.com                      |
|    \\/     M anipulation  |                                                 |
\*---------------------------------------------------------------------------*/
FoamFile
{
    version     2.0;
    format      ascii;
    class       volVectorField;
    location    "8";
    object      D_0;
}
// * * * * * * * * * * * * * * * * * * * * * * * * * * * * * * * * * * * * * //

dimensions      [0 1 0 0 0 0 0];


internalField   nonuniform List<vector> 
1000
(
(0.000155327 -0.00151391 0)
(0.000148392 -0.00164034 0)
(0.000137748 -0.0017277 0)
(0.000122224 -0.00180144 0)
(0.000104697 -0.0018388 0)
(9.15519e-05 -0.00186757 0)
(8.31245e-05 -0.00188513 0)
(7.76064e-05 -0.00190461 0)
(7.37353e-05 -0.00191887 0)
(7.08184e-05 -0.00193523 0)
(0.000457427 -0.00153729 0)
(0.000430601 -0.00164879 0)
(0.000393578 -0.00171248 0)
(0.000348437 -0.00176319 0)
(0.000303776 -0.00178674 0)
(0.000273253 -0.00181173 0)
(0.000252122 -0.00182882 0)
(0.000237495 -0.00184839 0)
(0.000226702 -0.00186303 0)
(0.000218464 -0.00187949 0)
(0.000729825 -0.00155257 0)
(0.000673905 -0.00162867 0)
(0.000604995 -0.00165521 0)
(0.000543283 -0.00168246 0)
(0.000489958 -0.0016963 0)
(0.000453221 -0.00171901 0)
(0.000424805 -0.00173359 0)
(0.000403877 -0.00175198 0)
(0.000387275 -0.00176558 0)
(0.000374429 -0.00178071 0)
(0.000955665 -0.00152179 0)
(0.000873552 -0.0015531 0)
(0.000793405 -0.00155761 0)
(0.000730447 -0.00157678 0)
(0.00067738 -0.00158582 0)
(0.000637599 -0.00160352 0)
(0.000604431 -0.00161418 0)
(0.00057962 -0.00162864 0)
(0.000558669 -0.00163926 0)
(0.000542632 -0.00165095 0)
(0.00114456 -0.00144738 0)
(0.00105655 -0.0014528 0)
(0.000979595 -0.0014545 0)
(0.00091814 -0.0014627 0)
(0.000863845 -0.00146694 0)
(0.000822612 -0.00147579 0)
(0.000786802 -0.00148159 0)
(0.000759686 -0.00148957 0)
(0.000736121 -0.00149591 0)
(0.000718105 -0.00150246 0)
(0.00132792 -0.00135597 0)
(0.00124226 -0.00135058 0)
(0.00116556 -0.00134288 0)
(0.00110492 -0.00134073 0)
(0.00105147 -0.00133729 0)
(0.00101003 -0.00133778 0)
(0.000973864 -0.00133738 0)
(0.000946157 -0.00133876 0)
(0.000921783 -0.00134006 0)
(0.00090339 -0.00134117 0)
(0.00151147 -0.00126354 0)
(0.00142448 -0.00124492 0)
(0.00134959 -0.00122679 0)
(0.00128986 -0.00121516 0)
(0.00123792 -0.00120395 0)
(0.00119722 -0.00119677 0)
(0.00116174 -0.00119032 0)
(0.00113442 -0.00118538 0)
(0.00111026 -0.00118183 0)
(0.00109227 -0.00117764 0)
(0.00169009 -0.00116199 0)
(0.00160644 -0.0011318 0)
(0.00153394 -0.00110377 0)
(0.00147701 -0.00108367 0)
(0.00142706 -0.00106521 0)
(0.00138848 -0.00105144 0)
(0.0013543 -0.00103937 0)
(0.00132868 -0.00102918 0)
(0.00130548 -0.00102129 0)
(0.00128901 -0.00101281 0)
(0.00185897 -0.00106389 0)
(0.00178028 -0.0010225 0)
(0.00171229 -0.000985486 0)
(0.00165886 -0.00095783 0)
(0.00161228 -0.000932939 0)
(0.0015761 -0.000913684 0)
(0.00154442 -0.000896821 0)
(0.0015204 -0.000882466 0)
(0.00149911 -0.000871009 0)
(0.00148385 -0.000859217 0)
(0.00202198 -0.000960122 0)
(0.00195105 -0.000909757 0)
(0.00188919 -0.000865207 0)
(0.00184105 -0.000831459 0)
(0.00179853 -0.000801054 0)
(0.0017662 -0.000777534 0)
(0.00173731 -0.000756343 0)
(0.00171632 -0.000739176 0)
(0.00169728 -0.000724192 0)
(0.00168453 -0.000711072 0)
(0.00216968 -0.000861585 0)
(0.00210839 -0.000804492 0)
(0.00205452 -0.000754475 0)
(0.00201207 -0.00071648 0)
(0.00197536 -0.000681965 0)
(0.00194588 -0.000656081 0)
(0.00192199 -0.000631574 0)
(0.00190138 -0.000613634 0)
(0.0018879 -0.000595786 0)
(0.00187289 -0.00058326 0)
(0.00231034 -0.000761342 0)
(0.0022598 -0.00069988 0)
(0.00221497 -0.000646679 0)
(0.00217944 -0.000605606 0)
(0.00214901 -0.000569091 0)
(0.00212396 -0.000540768 0)
(0.00210468 -0.000515142 0)
(0.00208673 -0.000494796 0)
(0.00207677 -0.000476566 0)
(0.002063 -0.000460835 0)
(0.00243406 -0.000664623 0)
(0.0023955 -0.000601938 0)
(0.00236049 -0.00054788 0)
(0.00233253 -0.000505836 0)
(0.00230891 -0.00046852 0)
(0.00228867 -0.000439447 0)
(0.00227445 -0.000413157 0)
(0.00225953 -0.00039213 0)
(0.00225351 -0.000373537 0)
(0.00224162 -0.000356913 0)
(0.0025471 -0.000569561 0)
(0.00252026 -0.000508031 0)
(0.00249502 -0.0004555 0)
(0.00247463 -0.000413989 0)
(0.00245761 -0.000377935 0)
(0.00244234 -0.000348999 0)
(0.00243264 -0.000323898 0)
(0.00242108 -0.000302772 0)
(0.00241811 -0.000285433 0)
(0.00240885 -0.000268759 0)
(0.00264322 -0.000476872 0)
(0.00262806 -0.000419641 0)
(0.00261225 -0.000370972 0)
(0.00259956 -0.000332165 0)
(0.00258877 -0.000298806 0)
(0.00257876 -0.000271593 0)
(0.00257312 -0.000248559 0)
(0.0025654 -0.000228524 0)
(0.00256483 -0.00021296 0)
(0.00255874 -0.000196995 0)
(0.00272575 -0.000386809 0)
(0.00272101 -0.000336029 0)
(0.00271371 -0.000293173 0)
(0.00270801 -0.000258581 0)
(0.00270283 -0.000229364 0)
(0.00269771 -0.000205005 0)
(0.00269565 -0.000185063 0)
(0.00269164 -0.000167093 0)
(0.00269311 -0.000153927 0)
(0.00269027 -0.000139683 0)
(0.00279139 -0.000298306 0)
(0.00279581 -0.000256481 0)
(0.00279582 -0.000221281 0)
(0.00279634 -0.000192684 0)
(0.00279588 -0.000168744 0)
(0.00279521 -0.000148511 0)
(0.00279604 -0.00013229 0)
(0.0027955 -0.000117273 0)
(0.00279848 -0.000106738 0)
(0.00279868 -9.47593e-05 0)
(0.00284166 -0.000212057 0)
(0.00285321 -0.000180743 0)
(0.00285897 -0.000154527 0)
(0.00286441 -0.000133063 0)
(0.00286767 -0.000115305 0)
(0.00287056 -0.000100097 0)
(0.0028737 -8.81634e-05 0)
(0.00287598 -7.68803e-05 0)
(0.00288015 -6.92554e-05 0)
(0.00288289 -6.0287e-05 0)
(0.00287496 -0.000126478 0)
(0.00289152 -0.000107215 0)
(0.00290125 -9.10889e-05 0)
(0.00291015 -7.78566e-05 0)
(0.00291595 -6.69409e-05 0)
(0.00292138 -5.75316e-05 0)
(0.00292605 -5.02143e-05 0)
(0.00293035 -4.31964e-05 0)
(0.00293528 -3.85493e-05 0)
(0.00293983 -3.29345e-05 0)
(0.00289185 -4.22732e-05 0)
(0.00291094 -3.57053e-05 0)
(0.0029227 -3.02402e-05 0)
(0.00293336 -2.57306e-05 0)
(0.00294047 -2.20455e-05 0)
(0.0029472 -1.88493e-05 0)
(0.00295266 -1.63968e-05 0)
(0.002958 -1.40297e-05 0)
(0.00296334 -1.24919e-05 0)
(0.00296883 -1.06184e-05 0)
(0.00297941 -8.74864e-06 0)
(0.00295274 -2.69806e-05 0)
(0.00290042 -4.97095e-05 0)
(0.00282273 -7.83966e-05 0)
(0.00272263 -0.000116269 0)
(0.00260035 -0.000164911 0)
(0.00246048 -0.000226555 0)
(0.00230258 -0.000303331 0)
(0.00213181 -0.000396572 0)
(0.0019484 -0.000506623 0)
(0.00299882 -6.41211e-06 0)
(0.00297466 -1.93829e-05 0)
(0.00292734 -3.68641e-05 0)
(0.00285683 -5.89081e-05 0)
(0.00276619 -8.97565e-05 0)
(0.0026551 -0.000128502 0)
(0.00252887 -0.000179617 0)
(0.00238674 -0.000239505 0)
(0.00223537 -0.000315944 0)
(0.00207463 -0.000398083 0)
(0.00302333 -5.0721e-06 0)
(0.00300276 -1.46984e-05 0)
(0.00296249 -2.83364e-05 0)
(0.00290218 -4.46552e-05 0)
(0.00282436 -6.87998e-05 0)
(0.0027281 -9.81798e-05 0)
(0.00261724 -0.000139894 0)
(0.00249054 -0.000187384 0)
(0.00235199 -0.000252796 0)
(0.00220346 -0.00031955 0)
(0.00305112 -4.83909e-06 0)
(0.00303228 -1.33309e-05 0)
(0.00299541 -2.58557e-05 0)
(0.00294037 -3.94176e-05 0)
(0.00286954 -6.02079e-05 0)
(0.0027827 -8.30434e-05 0)
(0.00268315 -0.000117075 0)
(0.00257123 -0.000152424 0)
(0.00244864 -0.000204862 0)
(0.00231838 -0.000256087 0)
(0.00308651 -4.34132e-06 0)
(0.00307028 -1.14197e-05 0)
(0.00303833 -2.2478e-05 0)
(0.00299059 -3.36401e-05 0)
(0.00292837 -5.18032e-05 0)
(0.00285183 -7.07267e-05 0)
(0.00276235 -0.000100342 0)
(0.0026615 -0.00012964 0)
(0.00254926 -0.00017372 0)
(0.00243048 -0.000215135 0)
(0.0031229 -4.72441e-06 0)
(0.00310801 -1.21693e-05 0)
(0.00307862 -2.33575e-05 0)
(0.00303516 -3.35791e-05 0)
(0.0029785 -4.99061e-05 0)
(0.00290986 -6.54518e-05 0)
(0.00282951 -9.01986e-05 0)
(0.00274024 -0.000113586 0)
(0.00264004 -0.00014968 0)
(0.00253443 -0.000183406 0)
(0.00316801 -4.76008e-06 0)
(0.00315493 -1.22207e-05 0)
(0.00312884 -2.32877e-05 0)
(0.00309038 -3.32049e-05 0)
(0.00303952 -4.87481e-05 0)
(0.00297796 -6.3246e-05 0)
(0.00290491 -8.56074e-05 0)
(0.00282398 -0.00010632 0)
(0.00273262 -0.000136985 0)
(0.00263679 -0.00016546 0)
(0.00321299 -5.23675e-06 0)
(0.00320103 -1.36081e-05 0)
(0.00317708 -2.51662e-05 0)
(0.00314215 -3.52211e-05 0)
(0.00309589 -4.99815e-05 0)
(0.00304056 -6.34007e-05 0)
(0.00297472 -8.32867e-05 0)
(0.00290237 -0.000101742 0)
(0.00282017 -0.000128155 0)
(0.00273428 -0.000153022 0)
(0.00326626 -5.54328e-06 0)
(0.00325554 -1.47194e-05 0)
(0.0032339 -2.67769e-05 0)
(0.00320243 -3.75129e-05 0)
(0.00316038 -5.23019e-05 0)
(0.00311018 -6.59451e-05 0)
(0.0030501 -8.47503e-05 0)
(0.00298426 -0.000102391 0)
(0.00290946 -0.000126011 0)
(0.00283152 -0.000148568 0)
(0.00331933 -5.97832e-06 0)
(0.00330953 -1.6195e-05 0)
(0.00328973 -2.88621e-05 0)
(0.00326112 -4.02651e-05 0)
(0.00322287 -5.49974e-05 0)
(0.00317749 -6.87525e-05 0)
(0.00312312 -8.66748e-05 0)
(0.0030638 -0.000103806 0)
(0.00299618 -0.000125628 0)
(0.00292607 -0.000146806 0)
(0.00337943 -6.35013e-06 0)
(0.00337053 -1.75772e-05 0)
(0.00335246 -3.09168e-05 0)
(0.00332639 -4.32592e-05 0)
(0.00329142 -5.83784e-05 0)
(0.00324999 -7.27982e-05 0)
(0.00320033 -9.0507e-05 0)
(0.00314623 -0.00010775 0)
(0.00308474 -0.00012852 0)
(0.00302107 -0.000149082 0)
(0.00343963 -6.68383e-06 0)
(0.0034315 -1.8799e-05 0)
(0.00341499 -3.26914e-05 0)
(0.00339122 -4.57756e-05 0)
(0.00335939 -6.11672e-05 0)
(0.00332175 -7.61101e-05 0)
(0.00327669 -9.37526e-05 0)
(0.00322769 -0.000111234 0)
(0.00317202 -0.000131558 0)
(0.00311468 -0.000151911 0)
(0.00350541 -6.95707e-06 0)
(0.00349796 -1.98589e-05 0)
(0.00348284 -3.4269e-05 0)
(0.00346106 -4.81062e-05 0)
(0.00343192 -6.39033e-05 0)
(0.00339746 -7.94661e-05 0)
(0.00335631 -9.72978e-05 0)
(0.00331161 -0.000115145 0)
(0.003261 -0.000135367 0)
(0.00320895 -0.0001558 0)
(0.00357149 -7.10638e-06 0)
(0.00356468 -2.04855e-05 0)
(0.00355086 -3.5168e-05 0)
(0.00353099 -4.94521e-05 0)
(0.00350442 -6.54655e-05 0)
(0.00347304 -8.14292e-05 0)
(0.00343565 -9.94196e-05 0)
(0.00339505 -0.000117597 0)
(0.00334931 -0.000137915 0)
(0.00330208 -0.000158562 0)
(0.00364174 -7.12456e-06 0)
(0.0036355 -2.07366e-05 0)
(0.00362283 -3.54616e-05 0)
(0.00360462 -5.00052e-05 0)
(0.00358029 -6.60653e-05 0)
(0.0035516 -8.23142e-05 0)
(0.00351747 -0.000100335 0)
(0.00348052 -0.000118809 0)
(0.00343897 -0.000139122 0)
(0.00339637 -0.000160063 0)
(0.00371217 -6.96296e-06 0)
(0.00370647 -2.0372e-05 0)
(0.00369491 -3.47977e-05 0)
(0.00367831 -4.91859e-05 0)
(0.00365616 -6.50196e-05 0)
(0.00363004 -8.12004e-05 0)
(0.00359906 -9.91064e-05 0)
(0.0035655 -0.000117615 0)
(0.00352797 -0.000137934 0)
(0.00348944 -0.000159004 0)
(0.00378545 -6.54966e-06 0)
(0.00378024 -1.92724e-05 0)
(0.00376969 -3.29114e-05 0)
(0.00375454 -4.67023e-05 0)
(0.00373434 -6.18617e-05 0)
(0.00371055 -7.76034e-05 0)
(0.00368236 -9.50043e-05 0)
(0.00365192 -0.000113267 0)
(0.00361794 -0.000133296 0)
(0.00358324 -0.000154296 0)
(0.00385828 -5.89633e-06 0)
(0.00385357 -1.73714e-05 0)
(0.00384402 -2.97613e-05 0)
(0.0038303 -4.24155e-05 0)
(0.00381202 -5.64934e-05 0)
(0.00379052 -7.13069e-05 0)
(0.00376505 -8.7883e-05 0)
(0.0037376 -0.000105493 0)
(0.00370701 -0.000124997 0)
(0.00367587 -0.000145647 0)
(0.00393264 -4.80582e-06 0)
(0.0039284 -1.4157e-05 0)
(0.00391978 -2.44382e-05 0)
(0.00390743 -3.51255e-05 0)
(0.00389095 -4.73104e-05 0)
(0.0038716 -6.0473e-05 0)
(0.00384867 -7.55056e-05 0)
(0.00382404 -9.19347e-05 0)
(0.00379661 -0.000110342 0)
(0.0037688 -0.000130407 0)
(0.0040052 -3.38689e-06 0)
(0.00400144 -9.87661e-06 0)
(0.0039938 -1.74039e-05 0)
(0.00398287 -2.53995e-05 0)
(0.00396828 -3.50872e-05 0)
(0.00395118 -4.59061e-05 0)
(0.00393092 -5.8873e-05 0)
(0.0039092 -7.34825e-05 0)
(0.00388503 -9.04086e-05 0)
(0.00386059 -0.000109312 0)
(0.00181976 -0.0005862 0)
(0.00176274 -0.000613503 0)
(0.00170764 -0.000643281 0)
(0.00165504 -0.000671443 0)
(0.00160448 -0.00070066 0)
(0.00155591 -0.000729001 0)
(0.00150912 -0.000757628 0)
(0.00146398 -0.000785534 0)
(0.00142033 -0.000813373 0)
(0.00137778 -0.000840493 0)
(0.00133635 -0.000867349 0)
(0.0012956 -0.000893555 0)
(0.00125543 -0.000919391 0)
(0.00121555 -0.000944734 0)
(0.00117564 -0.00096969 0)
(0.0011356 -0.000994418 0)
(0.00109491 -0.00101883 0)
(0.00105365 -0.00104342 0)
(0.0010111 -0.00106785 0)
(0.000967571 -0.00109303 0)
(0.001965 -0.000464356 0)
(0.00191317 -0.000490153 0)
(0.00186267 -0.000518006 0)
(0.00181235 -0.000545207 0)
(0.00176586 -0.000572139 0)
(0.00171907 -0.000599248 0)
(0.00167453 -0.000625965 0)
(0.00163072 -0.000652667 0)
(0.00158818 -0.000678968 0)
(0.00154664 -0.000705167 0)
(0.00150604 -0.000730852 0)
(0.00146624 -0.00075646 0)
(0.00142704 -0.000781564 0)
(0.00138838 -0.000806665 0)
(0.00134993 -0.000831334 0)
(0.00131173 -0.00085618 0)
(0.00127336 -0.000880712 0)
(0.00123495 -0.000905736 0)
(0.00119605 -0.000930606 0)
(0.00115682 -0.000956447 0)
(0.0021012 -0.000376524 0)
(0.00205183 -0.00039937 0)
(0.00200463 -0.000425251 0)
(0.0019582 -0.000448802 0)
(0.00191298 -0.000474747 0)
(0.00186926 -0.00049859 0)
(0.00182605 -0.000524331 0)
(0.00178493 -0.000548298 0)
(0.00174471 -0.000573326 0)
(0.0017048 -0.000597634 0)
(0.00166622 -0.000622281 0)
(0.00162828 -0.000646482 0)
(0.00159117 -0.000670798 0)
(0.00155473 -0.000694938 0)
(0.00151881 -0.000719076 0)
(0.00148347 -0.000743357 0)
(0.00144846 -0.0007676 0)
(0.00141389 -0.000792387 0)
(0.00137956 -0.000817164 0)
(0.00134554 -0.000842999 0)
(0.00222695 -0.0003037 0)
(0.0021824 -0.000323967 0)
(0.00213978 -0.000347383 0)
(0.00209686 -0.000368717 0)
(0.00205573 -0.000392328 0)
(0.00201466 -0.000414378 0)
(0.00197514 -0.000438025 0)
(0.00193591 -0.000460553 0)
(0.00189815 -0.000484099 0)
(0.00186089 -0.000506863 0)
(0.00182473 -0.000530345 0)
(0.00178927 -0.000553319 0)
(0.00175473 -0.000576746 0)
(0.00172095 -0.000599985 0)
(0.00168799 -0.000623485 0)
(0.00165579 -0.000647152 0)
(0.00162439 -0.000670963 0)
(0.00159374 -0.000695346 0)
(0.00156398 -0.000719812 0)
(0.00153496 -0.00074533 0)
(0.00234719 -0.000254494 0)
(0.00230633 -0.000272609 0)
(0.00226706 -0.000293519 0)
(0.00222762 -0.000312723 0)
(0.00218938 -0.000334057 0)
(0.00215155 -0.000354097 0)
(0.00211471 -0.000375725 0)
(0.00207856 -0.000396418 0)
(0.00204342 -0.000418265 0)
(0.00200895 -0.000439476 0)
(0.00197556 -0.000461497 0)
(0.00194292 -0.000483187 0)
(0.00191136 -0.000505416 0)
(0.00188062 -0.000527616 0)
(0.001851 -0.000550159 0)
(0.00182229 -0.000572985 0)
(0.00179478 -0.000596024 0)
(0.00176826 -0.000619689 0)
(0.00174312 -0.000643478 0)
(0.00171906 -0.00066829 0)
(0.00245938 -0.000216288 0)
(0.00242293 -0.000232515 0)
(0.00238755 -0.000251311 0)
(0.0023519 -0.000268723 0)
(0.00231734 -0.000288136 0)
(0.00228283 -0.000306552 0)
(0.00224941 -0.000326458 0)
(0.0022163 -0.000345716 0)
(0.0021843 -0.000366036 0)
(0.00215284 -0.000385999 0)
(0.00212249 -0.000406722 0)
(0.00209286 -0.000427329 0)
(0.00206441 -0.000448474 0)
(0.00203683 -0.000469734 0)
(0.00201053 -0.000491367 0)
(0.00198525 -0.000513358 0)
(0.00196142 -0.000535599 0)
(0.00193874 -0.000558464 0)
(0.00191779 -0.000581482 0)
(0.00189813 -0.000605433 0)
(0.00256866 -0.000193143 0)
(0.00253584 -0.000207973 0)
(0.00250367 -0.000224908 0)
(0.00247141 -0.000240884 0)
(0.00243992 -0.000258558 0)
(0.00240861 -0.000275548 0)
(0.00237817 -0.000293878 0)
(0.00234814 -0.000311766 0)
(0.00231907 -0.000330692 0)
(0.00229061 -0.00034939 0)
(0.00226321 -0.00036888 0)
(0.00223661 -0.00038834 0)
(0.0022112 -0.000408395 0)
(0.00218677 -0.000428612 0)
(0.00216368 -0.000449264 0)
(0.00214176 -0.000470278 0)
(0.0021214 -0.000491592 0)
(0.00210237 -0.000513487 0)
(0.00208526 -0.000535553 0)
(0.00206958 -0.000558451 0)
(0.0026728 -0.000176881 0)
(0.0026437 -0.00019062 0)
(0.0026148 -0.000206074 0)
(0.00258599 -0.000220948 0)
(0.0025577 -0.000237231 0)
(0.00252961 -0.000253145 0)
(0.00250226 -0.000270184 0)
(0.00247528 -0.000287048 0)
(0.00244922 -0.000304785 0)
(0.00242371 -0.000322524 0)
(0.00239927 -0.000340922 0)
(0.00237557 -0.000359484 0)
(0.00235313 -0.000378527 0)
(0.00233161 -0.000397889 0)
(0.00231155 -0.000417579 0)
(0.00229259 -0.000437739 0)
(0.00227538 -0.000458106 0)
(0.00225942 -0.000479071 0)
(0.00224556 -0.00050017 0)
(0.00223316 -0.000522002 0)
(0.00277582 -0.000169644 0)
(0.00274981 -0.000182584 0)
(0.00272372 -0.000196885 0)
(0.00269787 -0.000210883 0)
(0.00267236 -0.000226047 0)
(0.00264712 -0.000241037 0)
(0.0026225 -0.000257011 0)
(0.0025983 -0.000272925 0)
(0.00257492 -0.000289665 0)
(0.00255213 -0.000306442 0)
(0.00253034 -0.000323912 0)
(0.00250935 -0.000341502 0)
(0.00248953 -0.000359679 0)
(0.00247074 -0.000378038 0)
(0.00245327 -0.00039691 0)
(0.00243713 -0.000416008 0)
(0.00242242 -0.000435573 0)
(0.00240946 -0.000455382 0)
(0.00239843 -0.000475435 0)
(0.00238873 -0.000496139 0)
(0.00287575 -0.000166033 0)
(0.00285271 -0.000178384 0)
(0.00282925 -0.000191803 0)
(0.00280626 -0.000205161 0)
(0.00278335 -0.000219445 0)
(0.00276086 -0.000233758 0)
(0.0027388 -0.000248866 0)
(0.00271723 -0.000264078 0)
(0.00269635 -0.000279969 0)
(0.0026761 -0.000296026 0)
(0.00265675 -0.000312658 0)
(0.00263822 -0.000329505 0)
(0.00262079 -0.000346838 0)
(0.00260436 -0.000364429 0)
(0.00258927 -0.00038242 0)
(0.00257538 -0.000400713 0)
(0.00256307 -0.00041931 0)
(0.00255217 -0.000438278 0)
(0.00254315 -0.000457405 0)
(0.00253568 -0.000476975 0)
(0.00297559 -0.000167055 0)
(0.00295492 -0.000178997 0)
(0.0029338 -0.000191774 0)
(0.00291314 -0.000204611 0)
(0.00289253 -0.00021823 0)
(0.00287233 -0.000231953 0)
(0.00285252 -0.000246373 0)
(0.00283319 -0.00026095 0)
(0.00281449 -0.000276132 0)
(0.00279641 -0.000291517 0)
(0.00277918 -0.000307417 0)
(0.00276274 -0.000323558 0)
(0.00274735 -0.000340128 0)
(0.00273293 -0.000356968 0)
(0.00271978 -0.000374149 0)
(0.00270778 -0.000391625 0)
(0.00269732 -0.000409347 0)
(0.00268817 -0.000427387 0)
(0.00268089 -0.000445563 0)
(0.00267502 -0.000464083 0)
(0.0030735 -0.000169229 0)
(0.00305526 -0.000180836 0)
(0.00303598 -0.000193095 0)
(0.00301757 -0.000205566 0)
(0.00299891 -0.000218623 0)
(0.00298085 -0.000231924 0)
(0.00296299 -0.000245756 0)
(0.00294569 -0.00025985 0)
(0.00292892 -0.000274422 0)
(0.00291276 -0.000289264 0)
(0.00289737 -0.000304528 0)
(0.00288273 -0.000320067 0)
(0.00286907 -0.000335962 0)
(0.0028563 -0.000352134 0)
(0.00284474 -0.000368589 0)
(0.00283423 -0.000385318 0)
(0.00282516 -0.000402245 0)
(0.0028173 -0.000419438 0)
(0.00281117 -0.000436732 0)
(0.00280637 -0.000454266 0)
(0.0031717 -0.000172665 0)
(0.00315506 -0.000184064 0)
(0.00313779 -0.000196017 0)
(0.00312102 -0.000208075 0)
(0.00310417 -0.000220724 0)
(0.00308779 -0.000233597 0)
(0.00307164 -0.000246957 0)
(0.00305599 -0.000260584 0)
(0.00304082 -0.000274633 0)
(0.00302624 -0.000288959 0)
(0.00301235 -0.000303656 0)
(0.00299916 -0.000318624 0)
(0.00298688 -0.000333906 0)
(0.00297543 -0.000349445 0)
(0.00296509 -0.000365232 0)
(0.0029557 -0.000381253 0)
(0.00294767 -0.000397446 0)
(0.00294071 -0.000413835 0)
(0.00293536 -0.000430319 0)
(0.0029312 -0.000446941 0)
(0.00326869 -0.00017537 0)
(0.00325322 -0.000186455 0)
(0.00323769 -0.000198037 0)
(0.00322236 -0.000209856 0)
(0.00320712 -0.000222131 0)
(0.00319219 -0.000234668 0)
(0.00317753 -0.000247622 0)
(0.00316329 -0.000260844 0)
(0.0031495 -0.000274449 0)
(0.00313624 -0.000288313 0)
(0.00312362 -0.000302518 0)
(0.00311162 -0.00031697 0)
(0.00310045 -0.000331714 0)
(0.00309 -0.000346677 0)
(0.00308057 -0.000361875 0)
(0.00307198 -0.000377252 0)
(0.00306457 -0.000392787 0)
(0.00305816 -0.000408464 0)
(0.00305313 -0.000424215 0)
(0.00304919 -0.000440025 0)
(0.00336599 -0.000176726 0)
(0.003352 -0.000187595 0)
(0.00333746 -0.000198895 0)
(0.00332347 -0.000210408 0)
(0.00330931 -0.000222361 0)
(0.00329563 -0.000234531 0)
(0.00328206 -0.000247117 0)
(0.00326898 -0.000259927 0)
(0.00325624 -0.000273117 0)
(0.00324401 -0.000286525 0)
(0.00323235 -0.000300282 0)
(0.00322124 -0.000314234 0)
(0.00321089 -0.000328494 0)
(0.00320116 -0.000342913 0)
(0.00319237 -0.000357588 0)
(0.00318422 -0.000372383 0)
(0.00317727 -0.000387349 0)
(0.00317106 -0.00040237 0)
(0.00316611 -0.000417497 0)
(0.00316206 -0.000432589 0)
(0.003462 -0.000175571 0)
(0.00344896 -0.000186182 0)
(0.00343552 -0.00019715 0)
(0.00342248 -0.000208411 0)
(0.0034094 -0.00021998 0)
(0.00339667 -0.000231878 0)
(0.00338412 -0.000244042 0)
(0.00337195 -0.000256554 0)
(0.00336011 -0.000269297 0)
(0.00334876 -0.000282373 0)
(0.00333791 -0.000295636 0)
(0.00332752 -0.000309239 0)
(0.00331784 -0.000322974 0)
(0.00330863 -0.000337016 0)
(0.00330033 -0.000351146 0)
(0.00329245 -0.000365514 0)
(0.00328545 -0.000379983 0)
(0.00327933 -0.000394473 0)
(0.00327409 -0.000409061 0)
(0.00326964 -0.000423557 0)
(0.00355828 -0.000170705 0)
(0.00354606 -0.000181021 0)
(0.0035334 -0.000191737 0)
(0.00352121 -0.000202658 0)
(0.00350887 -0.000213981 0)
(0.00349699 -0.00022549 0)
(0.00348513 -0.000237411 0)
(0.00347382 -0.000249507 0)
(0.00346256 -0.000261984 0)
(0.00345171 -0.000274737 0)
(0.00344154 -0.000287617 0)
(0.00343168 -0.000300852 0)
(0.00342242 -0.000314193 0)
(0.00341365 -0.000327832 0)
(0.00340545 -0.000341558 0)
(0.00339791 -0.000355487 0)
(0.00339087 -0.000369498 0)
(0.00338451 -0.000383594 0)
(0.00337884 -0.000397721 0)
(0.00337377 -0.000411781 0)
(0.00365319 -0.000161769 0)
(0.00364161 -0.00017179 0)
(0.00362962 -0.00018221 0)
(0.00361808 -0.000192847 0)
(0.00360641 -0.000203879 0)
(0.00359512 -0.000215103 0)
(0.00358403 -0.000226739 0)
(0.00357312 -0.000238537 0)
(0.00356267 -0.000250711 0)
(0.00355239 -0.000263055 0)
(0.00354264 -0.000275743 0)
(0.0035332 -0.000288558 0)
(0.0035243 -0.000301686 0)
(0.00351577 -0.000314911 0)
(0.00350779 -0.000328397 0)
(0.00350023 -0.000341939 0)
(0.00349318 -0.000355665 0)
(0.00348659 -0.000369402 0)
(0.00348046 -0.000383232 0)
(0.00347474 -0.00039696 0)
(0.00374819 -0.000146035 0)
(0.00373714 -0.000155899 0)
(0.00372568 -0.000166019 0)
(0.00371468 -0.000176581 0)
(0.00370349 -0.000187345 0)
(0.00369277 -0.000198527 0)
(0.00368209 -0.000209937 0)
(0.00367173 -0.00022177 0)
(0.00366162 -0.000233729 0)
(0.00365184 -0.000246087 0)
(0.00364243 -0.000258578 0)
(0.00363338 -0.000271386 0)
(0.00362473 -0.000284332 0)
(0.00361648 -0.000297507 0)
(0.0036086 -0.000310812 0)
(0.00360113 -0.000324258 0)
(0.00359397 -0.00033781 0)
(0.00358716 -0.000351413 0)
(0.00358057 -0.000365078 0)
(0.0035742 -0.00037869 0)
(0.00384206 -0.000124401 0)
(0.0038315 -0.000134025 0)
(0.00382052 -0.000143991 0)
(0.00381004 -0.00015442 0)
(0.00379905 -0.000165133 0)
(0.003789 -0.000176289 0)
(0.00377936 -0.000188045 0)
(0.00376898 -0.00019968 0)
(0.00375944 -0.00021196 0)
(0.00374991 -0.000224251 0)
(0.00374087 -0.000237018 0)
(0.00373209 -0.000249827 0)
(0.0037237 -0.00026299 0)
(0.00371565 -0.000276186 0)
(0.00370795 -0.00028963 0)
(0.00370059 -0.000303084 0)
(0.00369351 -0.000316689 0)
(0.0036867 -0.000330276 0)
(0.00368003 -0.000343932 0)
(0.00367344 -0.000357543 0)
(6.85111e-05 -0.0019458 0)
(6.59488e-05 -0.00195393 0)
(6.36171e-05 -0.00196129 0)
(6.13474e-05 -0.00196928 0)
(5.91735e-05 -0.00197677 0)
(5.7055e-05 -0.00198468 0)
(5.49493e-05 -0.00199229 0)
(5.28787e-05 -0.00200013 0)
(5.07661e-05 -0.0020078 0)
(4.8661e-05 -0.00201553 0)
(4.64735e-05 -0.00202317 0)
(4.42616e-05 -0.00203071 0)
(4.19321e-05 -0.0020382 0)
(3.95442e-05 -0.00204541 0)
(3.70013e-05 -0.00205259 0)
(3.43655e-05 -0.00205928 0)
(3.15283e-05 -0.00206595 0)
(2.85645e-05 -0.00207188 0)
(2.53364e-05 -0.00207777 0)
(2.19515e-05 -0.00208261 0)
(0.000211437 -0.00189121 0)
(0.00020363 -0.00190138 0)
(0.000196403 -0.00191081 0)
(0.00018948 -0.00192057 0)
(0.000182802 -0.00192984 0)
(0.000176377 -0.00193928 0)
(0.000169978 -0.00194841 0)
(0.00016375 -0.00195758 0)
(0.000157396 -0.00196658 0)
(0.000151115 -0.00197547 0)
(0.000144593 -0.00198428 0)
(0.000138035 -0.00199285 0)
(0.000131132 -0.00200137 0)
(0.000124083 -0.00200952 0)
(0.000116577 -0.00201764 0)
(0.000108813 -0.0020252 0)
(0.000100454 -0.00203275 0)
(9.17312e-05 -0.00203951 0)
(8.22239e-05 -0.00204625 0)
(7.22584e-05 -0.00205193 0)
(0.000362324 -0.00179336 0)
(0.000348844 -0.00180651 0)
(0.000336019 -0.00181906 0)
(0.000323977 -0.00183152 0)
(0.000312188 -0.00184359 0)
(0.000301027 -0.00185546 0)
(0.000289831 -0.00186712 0)
(0.000279079 -0.00187848 0)
(0.000268084 -0.00188973 0)
(0.00025733 -0.00190061 0)
(0.000246168 -0.00191145 0)
(0.000235037 -0.00192183 0)
(0.000223343 -0.00193221 0)
(0.000211471 -0.00194204 0)
(0.000198862 -0.00195187 0)
(0.000185873 -0.00196104 0)
(0.000171926 -0.00197021 0)
(0.000157409 -0.00197855 0)
(0.000141637 -0.00198688 0)
(0.000125125 -0.00199417 0)
(0.000525791 -0.00166369 0)
(0.000506597 -0.00167989 0)
(0.000487813 -0.0016958 0)
(0.000470582 -0.00171117 0)
(0.000453407 -0.00172642 0)
(0.000437468 -0.00174104 0)
(0.000421311 -0.00175564 0)
(0.000406048 -0.00176955 0)
(0.000390365 -0.00178352 0)
(0.000375218 -0.00179677 0)
(0.000359482 -0.0018101 0)
(0.000343927 -0.0018227 0)
(0.000327608 -0.00183538 0)
(0.000311136 -0.0018473 0)
(0.000293683 -0.0018593 0)
(0.00027577 -0.00187049 0)
(0.000256588 -0.00188172 0)
(0.000236666 -0.00189207 0)
(0.00021508 -0.00190245 0)
(0.000192507 -0.0019118 0)
(0.000697047 -0.00151459 0)
(0.000672115 -0.00153359 0)
(0.000647003 -0.0015528 0)
(0.000624457 -0.00157099 0)
(0.000601513 -0.00158948 0)
(0.000580612 -0.00160686 0)
(0.000559161 -0.00162458 0)
(0.000539193 -0.00164116 0)
(0.000518575 -0.00165809 0)
(0.000498878 -0.00167391 0)
(0.000478426 -0.00169003 0)
(0.000458362 -0.0017051 0)
(0.000437383 -0.0017204 0)
(0.00041631 -0.00173472 0)
(0.000394073 -0.00174919 0)
(0.000371311 -0.00176274 0)
(0.000347023 -0.00177636 0)
(0.000321826 -0.00178908 0)
(0.000294605 -0.00180184 0)
(0.000266128 -0.00181367 0)
(0.000878895 -0.0013524 0)
(0.000848553 -0.0013739 0)
(0.000817093 -0.00139619 0)
(0.000789534 -0.00141691 0)
(0.000760928 -0.00143846 0)
(0.000735348 -0.00145835 0)
(0.000708832 -0.00147902 0)
(0.00068444 -0.00149805 0)
(0.000659203 -0.00151775 0)
(0.000635246 -0.00153596 0)
(0.000610445 -0.00155468 0)
(0.000586188 -0.00157208 0)
(0.000560961 -0.00158983 0)
(0.000535658 -0.00160645 0)
(0.000509118 -0.00162328 0)
(0.000481979 -0.00163913 0)
(0.000453187 -0.00165509 0)
(0.000423344 -0.00167018 0)
(0.000391277 -0.00168533 0)
(0.000357755 -0.00169968 0)
(0.00106461 -0.00118808 0)
(0.00102872 -0.00121176 0)
(0.000990544 -0.00123698 0)
(0.000957654 -0.00126001 0)
(0.000923057 -0.00128454 0)
(0.000892389 -0.00130685 0)
(0.000860591 -0.00133046 0)
(0.000831432 -0.00135198 0)
(0.000801525 -0.0013745 0)
(0.000773152 -0.00139521 0)
(0.000744143 -0.00141658 0)
(0.00071577 -0.00143644 0)
(0.000686611 -0.00145668 0)
(0.000657365 -0.00147569 0)
(0.000626966 -0.00149489 0)
(0.000595878 -0.00151309 0)
(0.000563087 -0.00153137 0)
(0.000529079 -0.00154885 0)
(0.000492649 -0.00156637 0)
(0.000454513 -0.00158328 0)
(0.00125872 -0.00102269 0)
(0.00121755 -0.00104807 0)
(0.00117315 -0.00107573 0)
(0.00113518 -0.00110055 0)
(0.00109538 -0.00112744 0)
(0.00105987 -0.00115163 0)
(0.00102353 -0.00117744 0)
(0.000989811 -0.00120094 0)
(0.000955771 -0.00122553 0)
(0.00092313 -0.00124828 0)
(0.000890254 -0.00127165 0)
(0.000857901 -0.00129359 0)
(0.00082507 -0.00131581 0)
(0.000792086 -0.00133693 0)
(0.00075815 -0.00135812 0)
(0.000723486 -0.00137847 0)
(0.000687229 -0.00139879 0)
(0.000649712 -0.00141853 0)
(0.000609827 -0.00143824 0)
(0.000568176 -0.00145764 0)
(0.001451 -0.000868765 0)
(0.00140323 -0.000895669 0)
(0.0013523 -0.000925553 0)
(0.00130773 -0.000952407 0)
(0.00126235 -0.000981543 0)
(0.00122097 -0.00100807 0)
(0.00118001 -0.00103598 0)
(0.00114141 -0.00106182 0)
(0.00110353 -0.00108834 0)
(0.00106691 -0.00111325 0)
(0.00103078 -0.00113838 0)
(0.000995132 -0.00116228 0)
(0.000959461 -0.00118614 0)
(0.000923643 -0.00120909 0)
(0.000887138 -0.00123188 0)
(0.000849921 -0.00125404 0)
(0.000811243 -0.00127604 0)
(0.000771301 -0.00129769 0)
(0.000729015 -0.00131926 0)
(0.000684907 -0.00134083 0)
(0.00165077 -0.000719553 0)
(0.00159761 -0.000746462 0)
(0.00154282 -0.000776298 0)
(0.0014921 -0.000803903 0)
(0.00144247 -0.000833441 0)
(0.00139515 -0.000861398 0)
(0.00134958 -0.000890304 0)
(0.00130568 -0.000918039 0)
(0.0012633 -0.000946045 0)
(0.00122215 -0.000973082 0)
(0.00118204 -0.00099997 0)
(0.00114265 -0.00102602 0)
(0.00110365 -0.00105171 0)
(0.00106481 -0.0010767 0)
(0.00102558 -0.00110127 0)
(0.000985928 -0.00112537 0)
(0.000945053 -0.00114909 0)
(0.000903126 -0.00117269 0)
(0.000859078 -0.00119608 0)
(0.000813367 -0.00121986 0)
)
;

boundaryField
{
    back
    {
        type            empty;
    }
    left
    {
        type            symmetry;
    }
    hole
    {
        type            calculated;
        value           nonuniform List<vector> 
20
(
(0.000158066 -0.00144693 -1.80242e-20)
(0.000469159 -0.001477 0)
(0.000756437 -0.00150905 -2.20224e-20)
(0.000996343 -0.00150096 -3.91647e-22)
(0.00119329 -0.00144401 2.38028e-21)
(0.00138073 -0.00136137 4.1094e-21)
(0.00156605 -0.00127708 -2.27137e-20)
(0.0017435 -0.0011833 -3.13824e-21)
(0.0019094 -0.00109204 1.73808e-20)
(0.00206748 -0.000993871 9.46978e-21)
(0.002209 -0.0008992 -2.39099e-23)
(0.00234278 -0.000801514 3.35547e-22)
(0.00245891 -0.000705188 -8.20616e-21)
(0.00256449 -0.000609067 7.38072e-21)
(0.00265332 -0.000513403 -9.50127e-21)
(0.00272932 -0.000419027 1.98514e-21)
(0.00278932 -0.000324771 -2.15738e-21)
(0.00283516 -0.000231795 -5.97963e-21)
(0.00286539 -0.000138621 4.80644e-21)
(0.00288072 -4.63949e-05 -5.87643e-21)
)
;
    }
    front
    {
        type            empty;
    }
    down
    {
        type            symmetry;
    }
    right
    {
        type            calculated;
        value           nonuniform List<vector> 
30
(
(0.00404151 -2.3195e-06 8.50329e-21)
(0.00403797 -6.62754e-06 -3.62586e-21)
(0.00403078 -1.20741e-05 -7.05588e-22)
(0.00402052 -1.79961e-05 -6.12328e-21)
(0.00400681 -2.57712e-05 8.3088e-21)