/*--------------------------------*- C++ -*----------------------------------*\
| =========                 |                                                 |
| \\      /  F ield         | OpenFOAM: The Open Source CFD Toolbox           |
|  \\    /   O peration     | Version:  v2012                                 |
|   \\  /    A nd           | Website:  www.openfoam.com                      |
|    \\/     M anipulation  |                                                 |
\*---------------------------------------------------------------------------*/
FoamFile
{
    version     2.0;
    format      ascii;
    class       volScalarField;
    location    "8";
    object      epsilonEq;
}
// * * * * * * * * * * * * * * * * * * * * * * * * * * * * * * * * * * * * * //

dimensions      [0 0 0 0 0 0 0];


internalField   nonuniform List<scalar> 
1000
(
0.00785756
0.00691327
0.00584121
0.00475795
0.00369014
0.00297149
0.00256715
0.00232078
0.00212095
0.00198809
0.00733258
0.00614179
0.00487238
0.00392424
0.00321043
0.00285114
0.002592
0.00241263
0.00225128
0.00213564
0.00602872
0.00470187
0.00360786
0.00310356
0.0028602
0.00276587
0.00261259
0.00250696
0.00238007
0.00229178
0.00431231
0.00334833
0.00290111
0.00280446
0.00271998
0.00268254
0.00257885
0.0025248
0.00243258
0.00237627
0.00314484
0.00277663
0.00266952
0.00261915
0.00256281
0.00254404
0.00249499
0.00247557
0.00242529
0.00239486
0.00270399
0.00251015
0.00242021
0.0023855
0.00237936
0.00239369
0.00238975
0.00239918
0.00238105
0.00237178
0.00233642
0.00219258
0.0021605
0.00218634
0.00221868
0.0022685
0.00229042
0.0023223
0.00232305
0.00232746
0.00189125
0.00185704
0.00189477
0.00198082
0.00205275
0.00213084
0.00217683
0.00222393
0.00223998
0.00225579
0.00145504
0.00152092
0.00164614
0.00178962
0.00190109
0.00200441
0.00206892
0.0021277
0.00215534
0.00217424
0.000995043
0.00118722
0.00139935
0.00159113
0.00173915
0.00185281
0.00194246
0.00199585
0.00205295
0.0020627
0.000591329
0.000906845
0.00119034
0.00141368
0.00158454
0.00170879
0.00180663
0.00186971
0.00192457
0.00196276
0.00028722
0.000717584
0.00102928
0.00127251
0.00144383
0.00158254
0.00166968
0.00175158
0.00178004
0.00184195
0.00039582
0.000656257
0.000913327
0.00113651
0.00129123
0.00142496
0.00150221
0.00158529
0.00160475
0.00166892
0.000701238
0.000738667
0.000872183
0.00104321
0.00116024
0.00128049
0.00133898
0.00142007
0.00143016
0.00149467
0.000996983
0.000884644
0.000883993
0.000973967
0.00104009
0.00113273
0.00117086
0.00124204
0.00124434
0.00130283
0.00125496
0.00104547
0.000936318
0.000937629
0.000944126
0.000997133
0.00101199
0.00106524
0.00106227
0.00110911
0.00146783
0.00118986
0.00100092
0.00092024
0.000865824
0.000869411
0.000856233
0.000883642
0.000872285
0.000902856
0.00162983
0.00130591
0.00106296
0.000918321
0.000810876
0.000762365
0.000719214
0.000713667
0.000693024
0.000702135
0.00173969
0.00138599
0.00110903
0.000920585
0.000773581
0.000679177
0.000606043
0.000563621
0.000529927
0.000512766
0.00179483
0.00142693
0.00113385
0.00092377
0.000756165
0.000634633
0.000541767
0.000470949
0.000425707
0.000383676
0.000362522
0.000496666
0.000689781
0.000888598
0.00109195
0.00127499
0.00145932
0.001619
0.00178927
0.00194798
0.00035684
0.000478507
0.000658518
0.000845985
0.0010416
0.00121658
0.00138942
0.0015292
0.0016604
0.00177958
0.000369816
0.000471485
0.000627621
0.000794721
0.000971223
0.00113867
0.00130621
0.00146642
0.00160225
0.00172872
0.000418047
0.000501479
0.000635021
0.000784333
0.000938602
0.00108653
0.00122209
0.00135866
0.00147222
0.00160104
0.0004516
0.00051782
0.000627227
0.000759726
0.000898082
0.00104366
0.00117478
0.00131317
0.00141831
0.00152788
0.000506949
0.000560132
0.000648803
0.000761231
0.000875813
0.00100043
0.00110998
0.00123316
0.0013326
0.0014406
0.000552161
0.000594922
0.000667551
0.000766041
0.000868244
0.000984296
0.00108618
0.00119847
0.00128805
0.00138234
0.000602773
0.000636737
0.000694676
0.000775755
0.000860445
0.000959296
0.00104862
0.00114942
0.00123431
0.00132281
0.000651454
0.000679218
0.000727481
0.000796828
0.000871223
0.000958226
0.00103856
0.0011267
0.0012031
0.00128145
0.000695661
0.000717722
0.000756668
0.000813318
0.000875878
0.000949853
0.00102099
0.00109932
0.00116954
0.00124117
0.000741146
0.000759287
0.000791977
0.000839529
0.0008935
0.000956595
0.00101914
0.00108643
0.0011493
0.00121223
0.000778099
0.00079267
0.000819505
0.000858512
0.000904288
0.000957739
0.00101271
0.00107153
0.00112769
0.00118423
0.000815496
0.0008275
0.000849954
0.000882418
0.000921253
0.000966288
0.00101366
0.00106365
0.00111349
0.00116067
0.00084308
0.000852879
0.000871453
0.00089838
0.000931162
0.000969425
0.00101032
0.00105373
0.0010977
0.00113991
0.000868129
0.00087623
0.000891801
0.000914198
0.000941929
0.000974058
0.00100903
0.00104593
0.00108366
0.0011208
0.000882759
0.000889488
0.000902537
0.00092134
0.00094492
0.00097229
0.00100256
0.00103426
0.00106751
0.0010992
0.000890215
0.000895931
0.000907148
0.000923229
0.000943653
0.000967361
0.000993756
0.00102169
0.00105062
0.00107926
0.00088625
0.000891237
0.000901107
0.000915273
0.000933474
0.000954671
0.000978556
0.00100387
0.00103041
0.00105653
0.000868285
0.00087296
0.000882348
0.000895784
0.000913429
0.000933934
0.000957734
0.000982716
0.00100994
0.00103604
0.000837078
0.000841817
0.000851405
0.000865204
0.000883591
0.000905116
0.000930604
0.000957479
0.000987405
0.00101626
0.00202429
0.00200305
0.00203839
0.00204161
0.0020662
0.00207166
0.00208141
0.00208351
0.00208408
0.00208107
0.00207795
0.00207299
0.00207008
0.0020675
0.00207003
0.00207554
0.00209029
0.0021112
0.00214681
0.00219216
0.00188009
0.00190957
0.00194024
0.00195607
0.00197014
0.00198425
0.00199111
0.00200166
0.00200967
0.0020139
0.00202013
0.00202675
0.00203563
0.00204714
0.00206305
0.00208333
0.00211131
0.00214539
0.00219142
0.00224534
0.00178539
0.00180502
0.00183023
0.00185017
0.00186594
0.00187954
0.00189539
0.0019112
0.00192199
0.00193345
0.00194951
0.00196354
0.00198275
0.00200206
0.00202804
0.00205608
0.00209303
0.00213383
0.00218643
0.00224444
0.00167296
0.00170443
0.00173547
0.00175609
0.00178206
0.00179884
0.00182271
0.00183621
0.00185437
0.00187254
0.00189326
0.00191256
0.0019372
0.00196115
0.00199214
0.00202379
0.00206409
0.00210646
0.00215942
0.0022158
0.00158865
0.00161989
0.00164674
0.00167106
0.00169503
0.00171607
0.00173881
0.00175865
0.00178116
0.00180125
0.00182545
0.00184784
0.00187533
0.00190203
0.00193482
0.00196792
0.00200828
0.00205002
0.00210043
0.00215322
0.00150421
0.00153725
0.00156729
0.00159411
0.00162193
0.00164537
0.00167142
0.0016933
0.00171801
0.00174058
0.00176597
0.0017902
0.00181792
0.00184529
0.001877
0.00190917
0.00194666
0.00198533
0.00203065
0.00207748
0.00144173
0.00147306
0.00150153
0.00152893
0.00155529
0.0015801
0.00160512
0.0016285
0.00165305
0.00167616
0.00170126
0.00172528
0.00175206
0.00177817
0.00180787
0.00183726
0.0018712
0.00190509
0.00194468
0.00198483
0.00138187
0.00141178
0.00144107
0.00146869
0.00149579
0.00152095
0.00154642
0.00156994
0.0015944
0.00161719
0.00164147
0.0016644
0.00168932
0.00171337
0.00173968
0.001766
0.00179423
0.00182431
0.00185746
0.00189038
0.00133639
0.001364
0.00139158
0.00141801
0.00144332
0.00146766
0.00149129
0.00151402
0.00153649
0.00155823
0.00158007
0.00160149
0.00162324
0.0016451
0.00166732
0.00169044
0.00171375
0.00173656
0.00176414
0.00179133
0.00129354
0.00131866
0.00134553
0.00137039
0.0013949
0.00141791
0.00144044
0.00146182
0.00148279
0.00150284
0.00152268
0.00154175
0.00156095
0.0015794
0.0015986
0.0016167
0.00163682
0.00165464
0.00167428
0.00169447
0.00125974
0.00128339
0.00130702
0.00133004
0.00135212
0.0013732
0.00139363
0.00141297
0.00143182
0.00144961
0.00146708
0.0014835
0.0014998
0.00151505
0.00153046
0.00154477
0.00155959
0.00157323
0.0015879
0.00160174
0.0012268
0.00124762
0.00127141
0.0012911
0.00131198
0.00133081
0.00134948
0.00136689
0.0013837
0.00139948
0.00141463
0.0014287
0.00144232
0.0014547
0.00146686
0.00147763
0.00148837
0.00149778
0.00150699
0.00151558
0.00120121
0.00122579
0.00123869
0.0012555
0.00127516
0.00129151
0.00130853
0.00132368
0.00133859
0.00135216
0.00136517
0.00137693
0.00138806
0.00139785
0.00140699
0.00141473
0.00142163
0.00142747
0.00143223
0.00143611
0.00117514
0.00118979
0.0012071
0.00122385
0.00123991
0.0012551
0.00126959
0.00128321
0.001296
0.00130774
0.00131887
0.00132871
0.0013378
0.00134545
0.00135223
0.00135718
0.00136156
0.00136414
0.0013652
0.00136503
0.00115002
0.00116462
0.00117921
0.00119344
0.00120734
0.00122037
0.0012331
0.00124484
0.00125602
0.00126635
0.00127588
0.00128432
0.00129193
0.00129801
0.00130353
0.00130645
0.00130781
0.00130853
0.00130663
0.0013031
0.00112502
0.00113661
0.00115056
0.00116264
0.00117535
0.0011869
0.0011983
0.00120935
0.00121886
0.00122737
0.00123651
0.00124395
0.00125053
0.00125615
0.00125976
0.00125966
0.00126264
0.00126159
0.00125728
0.00125115
0.00110114
0.00111197
0.00112379
0.00113498
0.00114587
0.0011565
0.00116708
0.00117642
0.00118452
0.00119404
0.00120178
0.00120875
0.00121444
0.00121971
0.0012225
0.00122551
0.00122586
0.00122396
0.00121896
0.00121197
0.00107648
0.00108668
0.00109769
0.00110822
0.00111842
0.00112834
0.00113849
0.00114694
0.00115643
0.00116521
0.00117216
0.00117917
0.00118503
0.00119004
0.00119393
0.00119604
0.00119699
0.0011956
0.00119118
0.00118407
0.00105637
0.00106691
0.00107819
0.00108901
0.00109786
0.00110932
0.00112218
0.00112949
0.00113842
0.00114666
0.00115389
0.00116105
0.0011667
0.0011722
0.00117595
0.00117924
0.00118059
0.00118071
0.00117835
0.00117387
0.00103851
0.00105077
0.00106351
0.00107573
0.00108617
0.00110155
0.00111409
0.00112099
0.00113229
0.00113992
0.00114851
0.001155
0.00116138
0.00116609
0.00117034
0.00117304
0.00117518
0.00117588
0.00117586
0.00117432
0.00189733
0.00184492
0.00179313
0.001748
0.00170086
0.0016589
0.0016133
0.00157124
0.00152441
0.00147942
0.00142868
0.00137813
0.00132069
0.00126192
0.00119469
0.00112474
0.00104413
0.000959626
0.000861268
0.000758197
0.00204569
0.00199099
0.00193443
0.00188394
0.00183054
0.00178239
0.00173021
0.00168196
0.00162888
0.00157816
0.00152188
0.00146631
0.0014043
0.0013414
0.00127084
0.00119799
0.00111576
0.00103031
0.000933235
0.000832588
0.00220792
0.00215931
0.00210182
0.00205146
0.00199495
0.00194443
0.00188794
0.00183606
0.00177829
0.00172346
0.00166276
0.00160322
0.00153762
0.00147151
0.00139888
0.00132445
0.00124278
0.00115889
0.00106716
0.000973494
0.00230741
0.00227528
0.00222386
0.00218198
0.00212856
0.00208254
0.00202691
0.00197677
0.00191861
0.00186387
0.00180246
0.00174241
0.0016767
0.00161054
0.00153932
0.00146651
0.00138901
0.00131006
0.00122728
0.00114377
0.00234657
0.00233387
0.00229251
0.0022642
0.00221855
0.00218272
0.00213339
0.00209063
0.00203782
0.00198832
0.00193173
0.00187565
0.00181474
0.00175241
0.00168693
0.00161935
0.00155017
0.00148005
0.0014107
0.00134199
0.0023406
0.00234684
0.00231415
0.00229951
0.00226121
0.0022351
0.00219254
0.00215659
0.00211061
0.00206663
0.00201748
0.00196716
0.00191485
0.00185981
0.00180476
0.00174705
0.00169104
0.00163436
0.00158187
0.00153075
0.00230863
0.0023314
0.00230842
0.00230742
0.00228113
0.00226606
0.00223631
0.00220901
0.00217493
0.00213791
0.00209906
0.00205504
0.00201196
0.00196376
0.00191819
0.00186924
0.00182476
0.00178037
0.00174369
0.00171055
0.00224503
0.00227911
0.00226396
0.00226727
0.00225043
0.00223729
0.00221871
0.00219519
0.00217341
0.00214351
0.00211765
0.00208382
0.00205434
0.00201888
0.00198814
0.00195456
0.00192724
0.0019014
0.00188515
0.00187438
0.00217684
0.0022192
0.00222944
0.0022375
0.00224222
0.0022319
0.00222633
0.00220548
0.0021904
0.00216392
0.00214277
0.00211432
0.00209069
0.00206336
0.00204124
0.00201875
0.0020033
0.00199131
0.00199
0.00199622
0.00207448
0.00209895
0.00213115
0.00214279
0.00216669
0.0021697
0.00217981
0.00217458
0.00217226
0.0021594
0.00214813
0.00213068
0.00211534
0.00209762
0.00208424
0.00207225
0.00206854
0.00207064
0.00208698
0.00211434
)
;

boundaryField
{
    back
    {
        type            empty;
    }
    left
    {
        type            symmetry;
    }
    hole
    {
        type            calculated;
        value           nonuniform List<scalar> 
20
(
0.00793623
0.00741754
0.00612437
0.00440103
0.00318898
0.00272566
0.00235139
0.00189274
0.00144059
0.000959931
0.000519804
8.16654e-05
0.00031497
0.0006773
0.000995238
0.00126498
0.0014854
0.00165217
0.001765
0.00182152
)
;
    }
    front
    {
        type            empty;
    }
    down
    {
        type            symmetry;
    }
    right
    {
        type            calculated;
        value           nonuniform List<scalar> 
30
(
0.000837063
0.00084175
0.0008512
0.000864874
0.000883033
0.000904433
0.000929683
0.000956523
0.000986286
0.00101529
0.00103751
0.00105
0.00106307
0.00107525
0.00108711
0.00109979
0.0011121
0.00112074
0.00113158
0.00113964
0.00114824
0.00115481
0.00116126
0.00116595
0.00117023
0.00117293
0.00117515
0.00117599
0.0011764
0.00117569
)
;
    }
    up
    {
        type            calculated;
        value           nonuniform List<scalar> 
30
(
0.00219262
0.00224579
0.00224508
0.00221641
0.00215374
0.00207787
0.0019851
0.00189038
0.00179119
0.00169458
0.00160166
0.00151545
0.00143597
0.00136486
0.00130302
0.0012511
0.00121176
0.00118402
0.00117382
0.00117434
0.000757246
0.000831402
0.000972158
0.00114242
0.00134085
0.00152984
0.00170988
0.0018739
0.00199603
0.00211429
)
;
    }
}


// ************************************************************************* //
