/*--------------------------------*- C++ -*----------------------------------*\
| =========                 |                                                 |
| \\      /  F ield         | OpenFOAM: The Open Source CFD Toolbox           |
|  \\    /   O peration     | Version:  v2012                                 |
|   \\  /    A nd           | Website:  www.openfoam.com                      |
|    \\/     M anipulation  |                                                 |
\*---------------------------------------------------------------------------*/
FoamFile
{
    version     2.0;
    format      ascii;
    class       volSymmTensorField;
    location    "8";
    object      sigma;
}
// * * * * * * * * * * * * * * * * * * * * * * * * * * * * * * * * * * * * * //

dimensions      [1 -1 -2 0 0 0 0];


internalField   nonuniform List<symmTensor> 
1000
(
(2.8844e+08 -1.13082e+07 6.29142e-10 9.35109e+06 -8.68985e-09 1.3317e+08)
(2.98654e+08 -1.12436e+07 -1.34826e-08 2.01344e+07 -1.58862e-08 1.37257e+08)
(3.12588e+08 -1.06401e+07 -1.22027e-08 3.52856e+07 1.45648e-08 1.41736e+08)
(3.18936e+08 -1.01923e+07 1.38561e-08 4.39533e+07 1.10129e-09 1.36434e+08)
(3.27451e+08 -8.11043e+06 1.45298e-08 5.71915e+07 1.95117e-09 1.28514e+08)
(3.19594e+08 -2.95741e+06 3.83237e-09 5.64872e+07 7.65675e-09 1.12824e+08)
(2.85471e+08 2.48504e+06 -1.22292e-08 5.97675e+07 -2.17132e-09 1.03572e+08)
(2.56839e+08 5.15982e+06 -3.25765e-09 5.28077e+07 -1.08165e-08 9.28939e+07)
(2.36117e+08 6.47169e+06 -1.17061e-08 5.01305e+07 -1.14862e-08 8.58742e+07)
(2.1743e+08 7.27564e+06 1.54285e-09 4.26115e+07 6.45138e-09 7.80124e+07)
(2.85465e+08 -3.36805e+07 0 1.38997e+07 0 1.31382e+08)
(2.93944e+08 -3.24829e+07 1.38358e-08 2.27655e+07 -1.082e-11 1.31335e+08)
(3.07211e+08 -3.06212e+07 -2.06724e-08 3.75828e+07 -1.38617e-08 1.31029e+08)
(3.11279e+08 -2.81338e+07 -6.04858e-09 4.38771e+07 -1.67289e-08 1.22382e+08)
(3.15079e+08 -1.92278e+07 1.13347e-08 4.8714e+07 7.41092e-09 1.13142e+08)
(2.98954e+08 -5.12029e+06 2.73263e-08 4.54232e+07 2.00892e-08 1.03313e+08)
(2.74761e+08 6.19314e+06 -1.22439e-08 4.49014e+07 -5.45733e-09 9.58988e+07)
(2.53013e+08 1.25136e+07 1.32958e-08 3.98717e+07 -1.12354e-10 8.78654e+07)
(2.35481e+08 1.6145e+07 -1.61623e-08 3.78509e+07 -1.45529e-08 8.19996e+07)
(2.19038e+08 1.8429e+07 -2.46742e-09 3.2088e+07 -4.79425e-09 7.53378e+07)
(2.79527e+08 -5.43489e+07 5.87062e-09 2.26558e+07 -1.62311e-08 1.24624e+08)
(2.83673e+08 -5.13757e+07 1.45518e-08 2.64553e+07 1.39928e-09 1.16204e+08)
(2.96385e+08 -4.68931e+07 5.0575e-08 4.02434e+07 2.03569e-08 1.11343e+08)
(2.95404e+08 -3.58752e+07 -1.78279e-08 3.44727e+07 -6.37421e-09 1.0072e+08)
(2.8754e+08 -2.00025e+07 -2.00784e-10 3.45051e+07 -2.94036e-09 9.66134e+07)
(2.75254e+08 -5.00601e+06 5.09633e-08 2.71304e+07 2.81235e-08 9.07152e+07)
(2.61331e+08 6.19236e+06 9.01386e-09 2.72913e+07 5.61149e-09 8.65866e+07)
(2.46308e+08 1.37492e+07 -1.51596e-09 2.25786e+07 -2.86315e-09 8.0666e+07)
(2.3306e+08 1.90806e+07 3.54489e-14 2.25048e+07 3.26032e-14 7.66695e+07)
(2.19621e+08 2.26675e+07 -1.33959e-08 1.8085e+07 -1.12315e-08 7.13117e+07)
(2.67209e+08 -7.34976e+07 -7.15591e-10 3.31392e+07 -1.37707e-10 1.08321e+08)
(2.69711e+08 -6.49126e+07 -4.04421e-08 2.89871e+07 -1.37551e-08 9.50635e+07)
(2.72998e+08 -5.20402e+07 1.687e-08 3.34875e+07 9.77591e-09 9.19457e+07)
(2.64993e+08 -3.4262e+07 3.59425e-08 2.13916e+07 1.42534e-08 8.59153e+07)
(2.62973e+08 -2.06088e+07 -1.51355e-08 2.14377e+07 -3.93709e-09 8.53231e+07)
(2.55306e+08 -7.60962e+06 -9.38528e-10 1.34185e+07 -3.39147e-10 8.06175e+07)
(2.4711e+08 2.62754e+06 2.19583e-08 1.43575e+07 1.27916e-08 7.84402e+07)
(2.36809e+08 1.10418e+07 -1.17263e-08 9.37057e+06 -8.74636e-09 7.38537e+07)
(2.27471e+08 1.72716e+07 -1.09372e-08 1.00559e+07 -8.49869e-09 7.12579e+07)
(2.17254e+08 2.2045e+07 -9.86874e-09 6.28756e+06 -8.05709e-09 6.70625e+07)
(2.49777e+08 -8.58347e+07 -5.62175e-09 3.71806e+07 5.20243e-09 8.82679e+07)
(2.42236e+08 -6.63021e+07 -2.5795e-08 2.87897e+07 -8.49244e-10 8.13076e+07)
(2.43423e+08 -5.09539e+07 -2.08483e-08 2.48772e+07 -1.15451e-09 8.049e+07)
(2.41928e+08 -3.53479e+07 -7.79203e-10 1.58117e+07 -7.4041e-11 7.7322e+07)
(2.40116e+08 -2.33129e+07 3.05616e-08 1.30992e+07 3.77059e-09 7.59645e+07)
(2.35904e+08 -1.06786e+07 -1.20167e-09 6.31563e+06 -7.98159e-09 7.26658e+07)
(2.31212e+08 -1.34978e+06 3.59116e-09 5.02003e+06 7.95319e-09 7.08696e+07)
(2.24967e+08 7.23904e+06 -2.46644e-08 499370 -1.94345e-08 6.764e+07)
(2.19026e+08 1.35621e+07 2.37952e-10 249817 7.07389e-11 6.57828e+07)
(2.11995e+08 1.87723e+07 -1.61412e-08 -2.81648e+06 -1.1042e-08 6.27537e+07)
(2.15515e+08 -8.5991e+07 2.46309e-08 4.08284e+07 -6.45765e-09 7.69029e+07)
(2.15011e+08 -6.61951e+07 4.23719e-13 3.04416e+07 -3.80751e-14 7.36359e+07)
(2.16949e+08 -5.03991e+07 3.62683e-08 2.27187e+07 2.26455e-08 7.19002e+07)
(2.1693e+08 -3.55261e+07 -3.26367e-08 1.2889e+07 -3.48458e-08 6.89458e+07)
(2.18033e+08 -2.39418e+07 0 7.71728e+06 0 6.77252e+07)
(2.16442e+08 -1.30618e+07 1.80209e-09 462213 1.08653e-08 6.50712e+07)
(2.15131e+08 -4.50418e+06 4.67735e-08 -2.06045e+06 2.101e-08 6.39212e+07)
(2.11782e+08 3.07775e+06 2.15503e-08 -6.8257e+06 1.05182e-08 6.14869e+07)
(2.08895e+08 9.10276e+06 4.53417e-09 -7.48187e+06 9.37377e-09 6.04238e+07)
(2.04357e+08 1.4018e+07 -3.03463e-08 -1.04423e+07 -1.97111e-08 5.81745e+07)
(1.76725e+08 -8.30851e+07 -5.97442e-08 4.54334e+07 5.3609e-09 6.66476e+07)
(1.82617e+08 -6.31115e+07 -7.51014e-08 2.93617e+07 1.74832e-08 6.35937e+07)
(1.89116e+08 -4.76318e+07 3.88317e-09 1.81329e+07 -3.27864e-08 6.21747e+07)
(1.92923e+08 -3.49743e+07 1.92613e-08 7.03874e+06 -1.92373e-08 5.99884e+07)
(1.96432e+08 -2.45592e+07 -6.08683e-08 643053 -1.6716e-08 5.91225e+07)
(1.9778e+08 -1.56175e+07 -2.67916e-08 -6.76988e+06 -8.80516e-09 5.7303e+07)
(1.98696e+08 -8.10413e+06 -3.74252e-08 -9.78642e+06 -1.93794e-08 5.66729e+07)
(1.97945e+08 -1.83311e+06 7.32417e-09 -1.44238e+07 -1.21682e-09 5.50564e+07)
(1.9728e+08 3.55332e+06 1.35421e-08 -1.51359e+07 -2.47844e-09 5.46434e+07)
(1.94798e+08 7.80392e+06 1.92517e-08 -1.78153e+07 3.49622e-09 5.30949e+07)
(1.34909e+08 -7.27587e+07 -2.72019e-08 4.42133e+07 1.40972e-08 5.37366e+07)
(1.49031e+08 -5.70639e+07 -4.04127e-13 2.5119e+07 1.53325e-13 5.22449e+07)
(1.5994e+08 -4.43963e+07 2.26803e-08 1.24302e+07 -8.5719e-09 5.1711e+07)
(1.67798e+08 -3.4298e+07 6.67714e-08 739706 2.88104e-08 5.05613e+07)
(1.7411e+08 -2.57684e+07 1.12735e-09 -6.14543e+06 -4.16414e-10 5.03892e+07)
(1.78007e+08 -1.87412e+07 -1.09545e-08 -1.34207e+07 3.94479e-09 4.93759e+07)
(1.8132e+08 -1.25521e+07 2.39091e-08 -1.65151e+07 6.58667e-09 4.94414e+07)
(1.82527e+08 -7.59993e+06 -6.88468e-09 -2.09349e+07 2.57106e-09 4.84775e+07)
(1.8401e+08 -3.07169e+06 -1.83977e-08 -2.14059e+07 -6.92043e-09 4.87811e+07)
(1.83091e+08 491709 1.65499e-08 -2.40617e+07 6.9044e-09 4.77087e+07)
(9.7005e+07 -5.93018e+07 1.25038e-09 3.90259e+07 2.34211e-08 4.08093e+07)
(1.16656e+08 -4.87728e+07 -4.86843e-08 1.85181e+07 4.8239e-08 4.05521e+07)
(1.31556e+08 -4.02204e+07 -3.39912e-09 4.62916e+06 2.2978e-08 4.08554e+07)
(1.42712e+08 -3.32876e+07 6.31059e-08 -7.10527e+06 6.8218e-09 4.0682e+07)
(1.51381e+08 -2.71761e+07 2.74889e-08 -1.43957e+07 4.53249e-09 4.10955e+07)
(1.57602e+08 -2.23056e+07 -6.95577e-09 -2.11823e+07 2.19694e-08 4.0926e+07)
(1.62627e+08 -1.7596e+07 4.02596e-09 -2.43872e+07 1.54397e-08 4.14721e+07)
(1.65642e+08 -1.42083e+07 4.65395e-08 -2.81681e+07 7.28651e-09 4.1242e+07)
(1.68678e+08 -1.04976e+07 -6.13173e-09 -2.8604e+07 -1.28695e-08 4.20223e+07)
(1.68902e+08 -8.09189e+06 1.79103e-08 -3.06937e+07 2.05687e-08 4.14626e+07)
(6.29575e+07 -4.16522e+07 8.86945e-09 2.78458e+07 6.22978e-09 2.7241e+07)
(8.63466e+07 -3.7845e+07 1.9418e-08 8.55999e+06 -1.4018e-08 2.8472e+07)
(1.04255e+08 -3.41365e+07 -1.56641e-08 -4.56416e+06 -1.22373e-08 2.99071e+07)
(1.1778e+08 -3.08864e+07 -2.2205e-09 -1.50458e+07 -2.07184e-08 3.08201e+07)
(1.28713e+08 -2.76134e+07 -3.2347e-09 -2.17834e+07 -1.90531e-08 3.2079e+07)
(1.36368e+08 -2.4863e+07 -9.49976e-09 -2.71911e+07 7.00957e-09 3.27531e+07)
(1.43537e+08 -2.20459e+07 -2.65049e-08 -3.02181e+07 -1.91069e-08 3.39957e+07)
(1.47397e+08 -1.97518e+07 -6.18685e-09 -3.25614e+07 -1.40475e-08 3.44505e+07)
(1.5281e+08 -1.76329e+07 -2.90758e-08 -3.33472e+07 -1.23329e-08 3.58389e+07)
(1.53689e+08 -1.53341e+07 -7.83918e-09 -3.42124e+07 7.72239e-09 3.58429e+07)
(3.59252e+07 -2.43506e+07 5.28421e-10 1.25985e+07 -4.67535e-10 1.45571e+07)
(6.06306e+07 -2.66036e+07 -5.08302e-08 -3.78844e+06 -6.21723e-09 1.70526e+07)
(7.89541e+07 -2.82726e+07 1.56592e-08 -1.54503e+07 1.11051e-08 1.90512e+07)
(9.40071e+07 -2.83259e+07 9.4347e-09 -2.39427e+07 -3.29432e-08 2.10193e+07)
(1.05173e+08 -2.86868e+07 2.94688e-08 -2.99018e+07 1.89368e-08 2.25814e+07)
(1.14556e+08 -2.75031e+07 -2.21424e-08 -3.38534e+07 -1.09866e-09 2.42108e+07)
(1.21397e+08 -2.7498e+07 -1.31613e-08 -3.66624e+07 -8.45481e-09 2.54203e+07)
(1.27505e+08 -2.53869e+07 3.73865e-09 -3.80315e+07 -2.47586e-08 2.6842e+07)
(1.31518e+08 -2.56756e+07 1.20436e-08 -3.91449e+07 7.19477e-09 2.7712e+07)
(1.37269e+08 -2.37125e+07 -4.00757e-09 -3.80459e+07 1.93291e-08 2.97668e+07)
(1.51972e+07 -6.64654e+06 3.3969e-08 -7.9997e+06 -4.25818e-08 2.15925e+06)
(3.96361e+07 -1.48751e+07 6.78291e-10 -2.01436e+07 -8.2295e-10 5.84775e+06)
(5.75964e+07 -2.10754e+07 -4.28909e-08 -2.83857e+07 -5.20108e-09 8.76321e+06)
(7.32263e+07 -2.46398e+07 -1.4643e-08 -3.43647e+07 -9.28254e-09 1.16585e+07)
(8.43234e+07 -2.76589e+07 2.18334e-08 -3.79802e+07 -5.65967e-10 1.39029e+07)
(9.48542e+07 -2.86414e+07 2.71917e-08 -4.05922e+07 -8.97599e-09 1.62786e+07)
(1.0146e+08 -3.00836e+07 2.17286e-10 -4.14992e+07 -2.70772e-10 1.79883e+07)
(1.09176e+08 -2.94531e+07 -1.6058e-08 -4.24116e+07 -1.38092e-09 2.00294e+07)
(1.12315e+08 -3.0139e+07 1.47696e-08 -4.15025e+07 2.46954e-08 2.12436e+07)
(1.20226e+08 -2.99765e+07 -1.33641e-08 -3.9683e+07 -7.55047e-09 2.4163e+07)
(712725 8.39661e+06 -6.18884e-09 -3.13899e+07 -6.9673e-09 -9.20316e+06)
(2.29712e+07 -4.36375e+06 2.49757e-08 -3.75155e+07 -7.17647e-09 -4.36331e+06)
(3.87288e+07 -1.42583e+07 -3.46947e-09 -4.15342e+07 -2.52622e-08 -841623)
(5.38753e+07 -2.05164e+07 -2.10281e-08 -4.38287e+07 3.33414e-09 3.01398e+06)
(6.38753e+07 -2.57435e+07 -2.6125e-08 -4.49009e+07 1.24076e-08 5.69232e+06)
(7.48578e+07 -2.8436e+07 1.18723e-08 -4.50597e+07 7.87314e-09 8.93943e+06)
(8.08945e+07 -3.11012e+07 2.05413e-08 -4.43589e+07 -7.79774e-09 1.09607e+07)
(8.96157e+07 -3.18185e+07 2.53898e-08 -4.34124e+07 6.2669e-09 1.3861e+07)
(9.24599e+07 -3.29728e+07 -2.68953e-09 -4.1375e+07 5.31878e-09 1.53255e+07)
(1.01323e+08 -3.42933e+07 -1.19517e-08 -3.76251e+07 -7.8885e-10 1.91094e+07)
(-7.90724e+06 2.0258e+07 5.53713e-09 -5.70083e+07 6.70604e-09 -1.94747e+07)
(1.08033e+07 4.20502e+06 -1.26846e-08 -5.67445e+07 -9.45807e-09 -1.37823e+07)
(2.36953e+07 -8.134e+06 1.91511e-08 -5.56623e+07 -5.44219e-09 -9.59009e+06)
(3.72865e+07 -1.65786e+07 1.21448e-08 -5.41008e+07 7.60759e-09 -5.0443e+06)
(4.57724e+07 -2.32665e+07 -4.92805e-09 -5.19102e+07 1.00658e-08 -1.84134e+06)
(5.62752e+07 -2.75076e+07 -3.33796e-08 -4.9711e+07 -1.91834e-08 1.96925e+06)
(6.15198e+07 -3.09473e+07 7.39414e-09 -4.68888e+07 1.29117e-08 4.38931e+06)
(7.03293e+07 -3.29106e+07 9.95033e-09 -4.44433e+07 5.72841e-09 7.76579e+06)
(7.29134e+07 -3.43434e+07 -7.76215e-09 -4.11899e+07 -9.97321e-09 9.51705e+06)
(8.17923e+07 -3.66275e+07 -7.78058e-09 -3.63417e+07 -9.03361e-09 1.36352e+07)
(-1.20096e+07 2.79052e+07 9.16951e-09 -8.30654e+07 -4.49007e-08 -2.85225e+07)
(2.3379e+06 1.02925e+07 4.90038e-09 -7.57396e+07 -1.70535e-08 -2.20205e+07)
(1.1738e+07 -3.14458e+06 6.5192e-09 -6.93817e+07 2.12011e-08 -1.72931e+07)
(2.31766e+07 -1.28005e+07 2.10172e-08 -6.34791e+07 1.40721e-08 -1.20908e+07)
(2.98855e+07 -2.01381e+07 1.65362e-08 -5.81202e+07 -1.27462e-08 -8.47043e+06)
(3.93934e+07 -2.54218e+07 7.63212e-09 -5.31555e+07 1.25604e-08 -4.12863e+06)
(4.38824e+07 -2.91543e+07 5.22324e-09 -4.84405e+07 1.84503e-08 -1.36743e+06)
(5.22237e+07 -3.21113e+07 3.82098e-09 -4.41636e+07 -1.68447e-08 2.41803e+06)
(5.47648e+07 -3.35431e+07 -8.37912e-09 -3.987e+07 -4.29989e-09 4.46845e+06)
(6.29685e+07 -3.64124e+07 -4.00814e-09 -3.4068e+07 4.49117e-09 8.67014e+06)
(-1.26125e+07 3.09934e+07 -3.65088e-09 -1.07912e+08 1.55756e-08 -3.61573e+07)
(-3.03452e+06 1.3552e+07 5.45083e-09 -9.39773e+07 3.79679e-08 -2.91036e+07)
(2.87108e+06 353935 7.05172e-09 -8.24931e+07 1.95915e-08 -2.38866e+07)
(1.17075e+07 -9.48001e+06 -6.82781e-11 -7.24974e+07 4.18973e-10 -1.8237e+07)
(1.66775e+07 -1.67391e+07 -8.67582e-09 -6.40257e+07 -4.91041e-09 -1.42045e+07)
(2.47383e+07 -2.23713e+07 8.17924e-09 -5.64582e+07 5.4043e-09 -9.51596e+06)
(2.86016e+07 -2.60636e+07 -7.91752e-09 -4.99255e+07 -4.02584e-09 -6.39717e+06)
(3.60474e+07 -2.94628e+07 8.27632e-09 -4.39188e+07 -5.93684e-09 -2.36141e+06)
(3.87774e+07 -3.08592e+07 7.34128e-09 -3.87209e+07 -9.37522e-10 16946.8)
(4.60173e+07 -3.38428e+07 2.68049e-10 -3.21388e+07 3.49185e-09 4.16357e+06)
(-1.11728e+07 2.96534e+07 1.02963e-09 -1.3016e+08 -1.24287e-08 -4.23999e+07)
(-6.1247e+06 1.40327e+07 -1.41814e-08 -1.1008e+08 -1.625e-08 -3.48615e+07)
(-3.51065e+06 2.32445e+06 -1.42593e-08 -9.39849e+07 -1.32624e-08 -2.92487e+07)
(2.74919e+06 -6.64965e+06 -7.20116e-09 -8.01348e+07 -2.20682e-08 -2.32157e+07)
(6.07156e+06 -1.30875e+07 -1.35449e-08 -6.8927e+07 -1.66108e-08 -1.88566e+07)
(1.25999e+07 -1.8385e+07 -1.31488e-08 -5.88742e+07 -2.64326e-09 -1.38823e+07)
(1.58658e+07 -2.16236e+07 6.49405e-09 -5.07798e+07 1.28721e-08 -1.04742e+07)
(2.22804e+07 -2.49561e+07 -6.47929e-09 -4.31214e+07 -6.88601e-09 -6.25228e+06)
(2.51619e+07 -2.61199e+07 5.19708e-09 -3.71412e+07 -9.69473e-10 -3.5938e+06)
(3.14038e+07 -2.88429e+07 -1.12597e-09 -2.9936e+07 6.52855e-10 440353)
(-8.83642e+06 2.4338e+07 -2.62324e-09 -1.48195e+08 -2.05482e-08 -4.71095e+07)
(-7.67931e+06 1.20246e+07 4.82774e-09 -1.23188e+08 7.04599e-09 -3.92601e+07)
(-7.76383e+06 2.8393e+06 8.57793e-09 -1.03353e+08 2.02982e-08 -3.33351e+07)
(-3.78006e+06 -4.32526e+06 -5.09474e-09 -8.6404e+07 -5.073e-09 -2.70552e+07)
(-1.7802e+06 -9.39641e+06 8.89265e-09 -7.29706e+07 3.18572e-09 -2.24252e+07)
(3.3407e+06 -1.37042e+07 1.25992e-08 -6.09047e+07 1.94422e-08 -1.72692e+07)
(6.17283e+06 -1.62611e+07 1.01413e-08 -5.1549e+07 9.58399e-09 -1.36129e+07)
(1.16037e+07 -1.90361e+07 -2.1351e-09 -4.2523e+07 -5.98963e-09 -9.27579e+06)
(1.46793e+07 -1.99535e+07 4.21308e-09 -3.59265e+07 2.14337e-09 -6.37416e+06)
(2.00198e+07 -2.21217e+07 0 -2.82204e+07 0 -2.46018e+06)
(-6.67298e+06 1.59295e+07 3.39979e-09 -1.60982e+08 1.62966e-08 -5.02966e+07)
(-8.33376e+06 8.05115e+06 8.81293e-09 -1.32403e+08 1.16433e-08 -4.22212e+07)
(-1.03729e+07 2.21502e+06 -5.49049e-09 -1.09907e+08 -8.4392e-09 -3.60841e+07)
(-8.06506e+06 -2.39896e+06 -2.43693e-09 -9.06986e+07 -3.88323e-09 -2.96291e+07)
(-7.03646e+06 -5.61197e+06 6.72669e-09 -7.56967e+07 1.03617e-08 -2.482e+07)
(-2.97244e+06 -8.41362e+06 1.74873e-09 -6.21581e+07 2.79305e-09 -1.95392e+07)
(-474501 -1.00189e+07 -2.7709e-09 -5.19217e+07 -2.51554e-09 -1.57189e+07)
(4.20824e+06 -1.18451e+07 -2.9053e-09 -4.19019e+07 -3.56469e-09 -1.13081e+07)
(7.39995e+06 -1.24007e+07 -4.03516e-09 -3.48763e+07 -3.31962e-09 -8.24291e+06)
(1.20878e+07 -1.37871e+07 -1.21887e-09 -2.68361e+07 -8.881e-10 -4.42448e+06)
(-5.39453e+06 5.53439e+06 -6.33716e-09 -1.67574e+08 -4.26571e-09 -5.18907e+07)
(-8.54032e+06 2.82667e+06 -8.28999e-09 -1.37173e+08 -2.51685e-08 -4.3714e+07)
(-1.15846e+07 814342 3.65501e-09 -1.13309e+08 -1.50192e-08 -3.74682e+07)
(-1.01653e+07 -780295 3.91636e-09 -9.2949e+07 5.98342e-09 -3.09343e+07)
(-9.62872e+06 -1.89648e+06 -3.26409e-09 -7.71387e+07 -4.79463e-09 -2.60302e+07)
(-6.13091e+06 -2.87163e+06 -1.05595e-10 -6.28456e+07 -5.04199e-09 -2.0693e+07)
(-3.7931e+06 -3.43648e+06 7.531e-10 -5.21547e+07 -1.64217e-09 -1.67844e+07)
(483580 -4.07694e+06 -4.35191e-09 -4.16172e+07 -3.1177e-09 -1.23401e+07)
(3.74799e+06 -4.27985e+06 -8.90174e-10 -3.43711e+07 -1.58145e-09 -9.18694e+06)
(8.08593e+06 -4.75969e+06 3.92761e-09 -2.61546e+07 9.89851e-10 -5.42059e+06)
(1.47542e+07 -4.82501e+06 2.1873e-09 -1.76429e+07 2.94718e-09 -866609)
(1.84207e+07 -1.39049e+07 3.90999e-09 -1.86233e+07 2.10073e-09 -60774.2)
(2.57242e+07 -2.23254e+07 -1.30106e-09 -2.05737e+07 -6.84143e-10 1.54516e+06)
(3.61391e+07 -2.89924e+07 1.4441e-09 -2.2994e+07 7.20736e-10 3.9435e+06)
(4.96268e+07 -3.39989e+07 2.39549e-09 -2.59904e+07 1.57728e-09 7.09093e+06)
(6.51624e+07 -3.63712e+07 1.12714e-08 -2.85215e+07 3.49624e-09 1.09922e+07)
(8.27752e+07 -3.66329e+07 -9.10795e-09 -3.13069e+07 -5.46015e-09 1.54405e+07)
(1.01139e+08 -3.39777e+07 -9.14911e-09 -3.27724e+07 -4.52521e-09 2.05101e+07)
(1.19452e+08 -3.00932e+07 -1.58327e-08 -3.49633e+07 -1.20634e-08 2.53467e+07)
(1.36943e+08 -2.46094e+07 2.74975e-08 -3.63916e+07 1.66094e-08 3.01654e+07)
(2.51843e+07 -4.55136e+06 -2.89572e-09 -6.53604e+06 -9.08056e-10 5.59448e+06)
(2.80803e+07 -1.30741e+07 8.11871e-11 -7.77946e+06 1.74737e-11 6.09024e+06)
(3.3847e+07 -2.12344e+07 -6.42615e-09 -1.01812e+07 -2.19562e-09 7.09974e+06)
(4.20472e+07 -2.78264e+07 -7.15343e-09 -1.34913e+07 -2.13175e-09 8.56678e+06)
(5.26404e+07 -3.33836e+07 1.14785e-08 -1.74526e+07 3.98031e-09 1.05563e+07)
(6.4806e+07 -3.64467e+07 6.66923e-09 -2.15702e+07 2.46093e-09 1.29708e+07)
(7.85772e+07 -3.82336e+07 -4.32555e-09 -2.53135e+07 -1.2798e-09 1.59791e+07)
(9.31286e+07 -3.65526e+07 0 -2.84141e+07 0 1.94144e+07)
(1.08701e+08 -3.3666e+07 8.46507e-09 -2.95474e+07 5.57481e-09 2.37462e+07)
(1.24046e+08 -2.72161e+07 2.24071e-10 -3.12748e+07 -2.39229e-09 2.78313e+07)
(3.3589e+07 -4.15288e+06 6.31215e-10 1.08529e+06 5.57677e-10 1.04023e+07)
(3.61383e+07 -1.18798e+07 4.86273e-09 95803.3 1.46649e-09 1.08702e+07)
(4.1203e+07 -1.93598e+07 -3.0049e-09 -1.73923e+06 -8.6547e-10 1.18391e+07)
(4.85446e+07 -2.53764e+07 -1.17293e-08 -4.50592e+06 -3.22417e-09 1.32116e+07)
(5.80182e+07 -3.06146e+07 -2.03049e-09 -7.71492e+06 -5.11065e-10 1.5091e+07)
(6.92227e+07 -3.36751e+07 3.27462e-10 -1.18075e+07 -1.29026e-11 1.72246e+07)
(8.16556e+07 -3.59398e+07 -6.96358e-09 -1.55076e+07 -2.61426e-09 1.98444e+07)
(9.49601e+07 -3.57571e+07 -1.18706e-08 -2.03361e+07 -4.82408e-09 2.23872e+07)
(1.07938e+08 -3.48602e+07 1.30813e-08 -2.2761e+07 5.80838e-09 2.55531e+07)
(1.19873e+08 -3.16599e+07 2.72471e-08 -2.68354e+07 1.38879e-08 2.79112e+07)
(4.24624e+07 -3.90196e+06 -2.74124e-09 5.9342e+06 -1.04765e-09 1.4519e+07)
(4.44002e+07 -1.11925e+07 1.86286e-09 4.948e+06 9.06615e-11 1.48045e+07)
(4.82043e+07 -1.83637e+07 8.82925e-09 3.29048e+06 1.77577e-09 1.54484e+07)
(5.37927e+07 -2.43064e+07 5.77402e-09 595032 1.25996e-09 1.63163e+07)
(6.09362e+07 -2.96173e+07 9.19692e-09 -2.06652e+06 2.53058e-09 1.76609e+07)
(6.96425e+07 -3.30035e+07 -8.45145e-09 -5.81989e+06 -2.73401e-09 1.91468e+07)
(7.94754e+07 -3.53407e+07 -2.196e-08 -8.42017e+06 -7.3524e-09 2.13166e+07)
(9.07102e+07 -3.55021e+07 3.74841e-09 -1.26832e+07 1.47698e-09 2.34081e+07)
(1.02681e+08 -3.43088e+07 3.76128e-09 -1.44935e+07 1.56548e-09 2.64561e+07)
(1.14188e+08 -3.19797e+07 -4.15222e-09 -1.89347e+07 -1.92414e-09 2.85759e+07)
(4.98518e+07 -3.40378e+06 -5.29547e-10 1.07114e+07 -4.48974e-10 1.81689e+07)
(5.16232e+07 -9.82495e+06 -5.02149e-09 9.85439e+06 -5.84928e-10 1.84433e+07)
(5.50502e+07 -1.61246e+07 -4.37759e-09 8.50376e+06 -7.01802e-10 1.90662e+07)
(6.01683e+07 -2.15344e+07 2.34482e-09 6.02133e+06 1.46692e-10 1.98569e+07)
(6.65734e+07 -2.64301e+07 1.14908e-08 3.6584e+06 1.80475e-09 2.10695e+07)
(7.43841e+07 -3.01172e+07 8.39655e-09 -127597 1.20281e-09 2.2277e+07)
(8.28602e+07 -3.2914e+07 8.91978e-09 -2.74815e+06 2.35223e-09 2.40336e+07)
(9.22179e+07 -3.44745e+07 -3.55035e-09 -7.07386e+06 -8.17436e-10 2.55432e+07)
(1.01879e+08 -3.44591e+07 7.49169e-09 -8.96979e+06 2.15272e-09 2.78726e+07)
(1.11033e+08 -3.34241e+07 4.59297e-09 -1.27466e+07 1.17927e-09 2.94858e+07)
(5.68854e+07 -3.18963e+06 0 1.28966e+07 0 2.09346e+07)
(5.82048e+07 -9.30016e+06 -6.92057e-10 1.21731e+07 5.52506e-10 2.11133e+07)
(6.07498e+07 -1.52074e+07 -1.76031e-10 1.11439e+07 -6.34131e-10 2.15681e+07)
(6.46333e+07 -2.0413e+07 -1.11956e-08 9.1027e+06 -2.35715e-09 2.21208e+07)
(6.95769e+07 -2.49347e+07 1.34173e-10 7.37408e+06 -6.04663e-12 2.30853e+07)
(7.58237e+07 -2.85058e+07 -2.91423e-09 4.31971e+06 -1.70085e-10 2.4043e+07)
(8.29499e+07 -3.09289e+07 1.4368e-10 2.31167e+06 -1.17145e-12 2.55785e+07)
(9.1113e+07 -3.25837e+07 3.13382e-09 -1.358e+06 4.83123e-10 2.69265e+07)
(9.99427e+07 -3.27346e+07 -1.66627e-08 -3.31632e+06 -5.14818e-09 2.89879e+07)
(1.08328e+08 -3.25329e+07 2.02055e-08 -6.86333e+06 6.81126e-09 3.04393e+07)
(6.34237e+07 -2.77221e+06 2.20354e-09 1.55882e+07 -1.39805e-11 2.37036e+07)
(6.46325e+07 -8.20541e+06 -2.45898e-09 1.49156e+07 -1.07771e-09 2.38644e+07)
(6.6945e+07 -1.34131e+07 6.3406e-10 1.39602e+07 -6.6904e-10 2.42716e+07)
(7.04268e+07 -1.8252e+07 2.61627e-09 1.20398e+07 7.59533e-10 2.474e+07)
(7.47811e+07 -2.24836e+07 8.18129e-10 1.03734e+07 9.00944e-10 2.55463e+07)
(8.01085e+07 -2.62303e+07 -3.02822e-09 7.54626e+06 -4.36259e-11 2.62964e+07)
(8.60713e+07 -2.8897e+07 -7.8074e-09 5.61233e+06 -1.48843e-09 2.75051e+07)
(9.26952e+07 -3.11028e+07 5.57732e-09 2.46716e+06 1.62242e-09 2.85487e+07)
(9.99365e+07 -3.17626e+07 -2.90118e-09 660525 -1.50182e-09 3.01791e+07)
(1.06915e+08 -3.20907e+07 -2.27893e-09 -2.25253e+06 1.02069e-09 3.13988e+07)
(6.89921e+07 -2.569e+06 4.25414e-10 1.66175e+07 5.5333e-10 2.56829e+07)
(6.99013e+07 -7.68711e+06 1.00935e-09 1.60884e+07 5.90392e-10 2.57969e+07)
(7.16758e+07 -1.24764e+07 -6.87167e-09 1.53656e+07 -4.69695e-10 2.61124e+07)
(7.43797e+07 -1.69987e+07 -7.64643e-09 1.38525e+07 -5.54507e-10 2.64697e+07)
(7.79044e+07 -2.08032e+07 4.51661e-10 1.25401e+07 9.33613e-10 2.71333e+07)
(8.22946e+07 -2.42789e+07 5.6607e-09 1.02539e+07 -9.7403e-11 2.77645e+07)
(8.74543e+07 -2.66768e+07 -7.37428e-09 8.54585e+06 -1.23054e-09 2.88001e+07)
(9.32271e+07 -2.88748e+07 -1.34346e-08 5.85963e+06 -2.96049e-09 2.9726e+07)
(9.96525e+07 -2.97336e+07 3.74843e-10 4.03737e+06 -1.06875e-11 3.1107e+07)
(1.05815e+08 -3.04943e+07 9.62768e-09 1.47512e+06 5.91723e-09 3.2187e+07)
(7.46731e+07 -2.26909e+06 -2.60016e-09 1.79905e+07 1.93966e-11 2.77991e+07)
(7.54767e+07 -6.88676e+06 2.63401e-09 1.74929e+07 -6.11611e-11 2.78909e+07)
(7.70514e+07 -1.11811e+07 1.69076e-09 1.67703e+07 6.82264e-10 2.81465e+07)
(7.93734e+07 -1.53953e+07 -1.45601e-10 1.53736e+07 8.94969e-12 2.84241e+07)
(8.23904e+07 -1.8972e+07 -1.44781e-08 1.40815e+07 -2.39153e-09 2.89416e+07)
(8.60092e+07 -2.23938e+07 6.34415e-09 1.20648e+07 -2.53881e-10 2.94222e+07)
(9.02814e+07 -2.48352e+07 7.94321e-09 1.04455e+07 2.33868e-09 3.02181e+07)
(9.49821e+07 -2.71125e+07 1.46498e-15 8.18307e+06 -1.93073e-17 3.09496e+07)
(1.0032e+08 -2.81731e+07 -1.51651e-09 6.47397e+06 1.4464e-09 3.20381e+07)
(1.05529e+08 -2.9115e+07 2.07167e-09 4.28868e+06 1.65914e-09 3.29453e+07)
(7.91996e+07 -2.08006e+06 2.40121e-09 1.85123e+07 -6.87637e-10 2.93135e+07)
(7.98189e+07 -6.35524e+06 2.92623e-09 1.81131e+07 -7.21891e-11 2.93796e+07)
(8.10739e+07 -1.02679e+07 2.69744e-09 1.75124e+07 -9.43347e-11 2.95759e+07)
(8.29233e+07 -1.41311e+07 8.10002e-09 1.63714e+07 5.24123e-10 2.97884e+07)
(8.54318e+07 -1.73598e+07 -5.99016e-09 1.52394e+07 -7.24466e-10 3.02013e+07)
(8.84533e+07 -2.04888e+07 -6.07145e-09 1.35274e+07 -2.02804e-09 3.05942e+07)
(9.2132e+07 -2.27438e+07 6.79787e-09 1.20088e+07 1.01508e-09 3.12423e+07)
(9.61747e+07 -2.49287e+07 3.27301e-09 1.0008e+07 -1.0641e-10 3.18548e+07)
(1.00797e+08 -2.6053e+07 1.15439e-08 8.34454e+06 1.35685e-09 3.27423e+07)
(1.0529e+08 -2.71608e+07 8.52695e-09 6.37676e+06 1.62285e-09 3.34999e+07)
(8.40203e+07 -1.86656e+06 2.94197e-09 1.92501e+07 -1.81253e-11 3.09811e+07)
(8.45403e+07 -5.74762e+06 2.96082e-09 1.88732e+07 -6.25257e-11 3.10241e+07)
(8.56066e+07 -9.29679e+06 2.99603e-09 1.82672e+07 -9.27205e-11 3.11621e+07)
(8.71264e+07 -1.2864e+07 3.98099e-09 1.72119e+07 1.70123e-09 3.13015e+07)
(8.92071e+07 -1.5875e+07 3.41503e-09 1.61e+07 -1.19615e-09 3.15921e+07)
(9.16388e+07 -1.88254e+07 -5.59103e-09 1.45648e+07 -2.07593e-09 3.18611e+07)
(9.46584e+07 -2.10014e+07 3.34154e-09 1.31064e+07 1.14665e-09 3.23294e+07)
(9.79283e+07 -2.30888e+07 -7.29768e-09 1.13398e+07 -1.1174e-09 3.27804e+07)
(1.01774e+08 -2.42521e+07 4.61226e-09 9.72149e+06 1.40908e-09 3.34486e+07)
(1.05547e+08 -2.53506e+07 -3.65117e-09 7.95376e+06 1.03517e-09 3.40502e+07)
(8.77761e+07 -1.69428e+06 -3.15285e-10 1.96652e+07 -7.84759e-10 3.22324e+07)
(8.81822e+07 -5.22883e+06 -2.96932e-09 1.93391e+07 5.29196e-11 3.22564e+07)
(8.90433e+07 -8.44222e+06 -1.91341e-09 1.87833e+07 9.22106e-10 3.2348e+07)
(9.0261e+07 -1.16698e+07 0 1.78536e+07 0 3.24344e+07)
(9.19857e+07 -1.43962e+07 8.91704e-10 1.68014e+07 -1.09065e-09 3.26361e+07)
(9.39954e+07 -1.70625e+07 1.44737e-10 1.54099e+07 -5.32886e-12 3.28216e+07)
(9.65362e+07 -1.90738e+07 6.26692e-09 1.39891e+07 2.31923e-09 3.31576e+07)
(9.92849e+07 -2.10003e+07 -3.50559e-09 1.23458e+07 1.54161e-10 3.34892e+07)
(1.02509e+08 -2.21248e+07 8.24758e-09 1.07537e+07 2.81441e-09 3.39789e+07)
(1.05694e+08 -2.32395e+07 5.1125e-09 9.07288e+06 9.81776e-12 3.44302e+07)
(9.17749e+07 -1.52725e+06 2.92332e-10 2.03251e+07 8.35571e-10 3.363e+07)
(9.20962e+07 -4.72146e+06 3.89012e-09 2.00077e+07 8.13694e-10 3.36312e+07)
(9.27861e+07 -7.63571e+06 -1.23386e-09 1.9446e+07 -8.88154e-10 3.36696e+07)
(9.37395e+07 -1.05711e+07 3.3952e-09 1.85496e+07 -8.79927e-11 3.36867e+07)
(9.51087e+07 -1.30772e+07 -2.2591e-09 1.75085e+07 -1.00618e-09 3.37851e+07)
(9.66731e+07 -1.55136e+07 -8.9491e-09 1.61763e+07 -8.59974e-10 3.38548e+07)
(9.87059e+07 -1.73866e+07 5.76929e-09 1.47937e+07 2.37689e-09 3.40499e+07)
(1.00845e+08 -1.91503e+07 -3.49827e-09 1.32086e+07 -1.29557e-09 3.4216e+07)
(1.03522e+08 -2.02256e+07 -3.36823e-09 1.16478e+07 -1.41793e-09 3.45508e+07)
(1.05911e+08 -2.126e+07 2.4095e-08 1.00309e+07 5.59629e-09 3.47826e+07)
(9.48855e+07 -1.36379e+06 -5.38012e-10 2.10015e+07 -1.73871e-09 3.47661e+07)
(9.51318e+07 -4.22011e+06 6.88861e-09 2.06984e+07 -4.21194e-11 3.47491e+07)
(9.56728e+07 -6.82042e+06 9.22504e-10 2.01467e+07 9.20469e-10 3.47458e+07)
(9.64166e+07 -9.43984e+06 -3.2507e-09 1.92813e+07 4.49154e-11 3.47094e+07)
(9.75072e+07 -1.16787e+07 3.80098e-09 1.82501e+07 2.07674e-09 3.47272e+07)
(9.87524e+07 -1.38549e+07 -6.90087e-09 1.69433e+07 1.23926e-10 3.47087e+07)
(1.0039e+08 -1.55458e+07 -3.27762e-09 1.55672e+07 6.77926e-11 3.47871e+07)
(1.02117e+08 -1.71203e+07 3.27742e-09 1.39879e+07 -7.8315e-11 3.48313e+07)
(1.04286e+08 -1.8144e+07 -6.63334e-09 1.24301e+07 -1.3609e-09 3.50147e+07)
(1.06306e+08 -1.89992e+07 -3.41281e-09 1.0767e+07 8.11611e-11 3.51218e+07)
(9.80985e+07 -1.2107e+06 -7.12978e-09 2.20768e+07 -8.94255e-10 3.60526e+07)
(9.82763e+07 -3.74623e+06 -9.57906e-09 2.17673e+07 8.97809e-10 3.60131e+07)
(9.86747e+07 -6.06046e+06 5.35862e-09 2.1185e+07 1.88723e-09 3.59579e+07)
(9.92114e+07 -8.39204e+06 -1.03497e-08 2.0306e+07 -1.90543e-11 3.58552e+07)
(1.00015e+08 -1.03921e+07 -3.45401e-09 1.92254e+07 -9.81826e-12 3.57723e+07)
(1.00922e+08 -1.23316e+07 3.45321e-09 1.79073e+07 5.02139e-12 3.56488e+07)
(1.02142e+08 -1.38359e+07 9.78061e-10 1.6469e+07 -1.22864e-09 3.55834e+07)
(1.0343e+08 -1.52363e+07 7.80171e-10 1.48832e+07 -1.33109e-09 3.54939e+07)
(1.05063e+08 -1.61095e+07 3.03975e-09 1.32477e+07 1.45502e-09 3.54931e+07)
(1.06652e+08 -1.6878e+07 3.15762e-09 1.15632e+07 1.56257e-09 3.54647e+07)
(1.00582e+08 -1.04101e+06 -3.7397e-09 2.34214e+07 -8.94107e-10 3.72011e+07)
(1.00706e+08 -3.22175e+06 -5.24399e-09 2.30989e+07 -2.73131e-09 3.71416e+07)
(1.00993e+08 -5.21305e+06 4.63674e-09 2.24853e+07 1.00313e-09 3.70435e+07)
(1.01373e+08 -7.21865e+06 5.90727e-09 2.15659e+07 2.04457e-09 3.68816e+07)
(1.01958e+08 -8.94597e+06 -3.21746e-09 2.0426e+07 -2.11305e-09 3.67152e+07)
(1.02606e+08 -1.06142e+07 -3.54706e-10 1.90416e+07 -2.17342e-09 3.64942e+07)
(1.03506e+08 -1.19258e+07 -3.39222e-09 1.75262e+07 -1.04182e-10 3.63097e+07)
(1.04427e+08 -1.31183e+07 2.42116e-09 1.58587e+07 1.33317e-09 3.60858e+07)
(1.05653e+08 -1.38943e+07 3.4405e-09 1.41394e+07 1.12179e-10 3.59378e+07)
(1.06774e+08 -1.45096e+07 1.38876e-08 1.23801e+07 2.4918e-09 3.57463e+07)
(1.02978e+08 -874157 1.05216e-08 2.54511e+07 -7.61537e-10 3.85288e+07)
(1.03053e+08 -2.70645e+06 3.08352e-09 2.5099e+07 -7.84629e-10 3.84456e+07)
(1.0323e+08 -4.38072e+06 -3.56803e-09 2.44126e+07 -1.2102e-10 3.82929e+07)
(1.03461e+08 -6.06927e+06 4.76976e-09 2.34098e+07 1.1156e-09 3.80612e+07)
(1.03826e+08 -7.52329e+06 -6.69229e-11 2.21374e+07 -6.6109e-12 3.77889e+07)
(1.04231e+08 -8.92816e+06 -1.66433e-09 2.06281e+07 9.06162e-10 3.74576e+07)
(1.048e+08 -1.00253e+07 -3.6511e-09 1.89436e+07 -2.5786e-10 3.7123e+07)
(1.05401e+08 -1.102e+07 -6.67562e-09 1.71212e+07 -3.95353e-09 3.67567e+07)
(1.06185e+08 -1.16464e+07 -1.40149e-09 1.52329e+07 -2.62377e-09 3.64255e+07)
(1.0695e+08 -1.21324e+07 1.07395e-08 1.32923e+07 7.03024e-09 3.60728e+07)
(1.0474e+08 -669260 7.38084e-09 2.79901e+07 8.49567e-10 3.9819e+07)
(1.04779e+08 -2.07181e+06 4.05056e-09 2.75954e+07 9.08465e-10 3.97123e+07)
(1.04879e+08 -3.35592e+06 8.00996e-10 2.68224e+07 8.28274e-10 3.95103e+07)
(1.05e+08 -4.65339e+06 1.05112e-09 2.56958e+07 8.84242e-10 3.92086e+07)
(1.05206e+08 -5.77393e+06 3.56485e-09 2.42611e+07 3.32957e-10 3.88402e+07)
(1.05421e+08 -6.86248e+06 -1.62309e-09 2.25618e+07 -1.06142e-09 3.83947e+07)
(1.05746e+08 -7.71017e+06 1.72362e-09 2.06629e+07 -7.43774e-10 3.79227e+07)
(1.06067e+08 -8.49125e+06 1.43819e-09 1.86125e+07 -8.48723e-10 3.74038e+07)
(1.06528e+08 -8.96057e+06 -3.38061e-09 1.6489e+07 -4.30666e-10 3.69052e+07)
(1.06929e+08 -9.3493e+06 -7.88056e-09 1.43232e+07 2.03511e-10 3.63755e+07)
(1.06146e+08 -452076 -7.18757e-09 3.16907e+07 -1.2336e-10 4.13511e+07)
(1.06158e+08 -1.40317e+06 7.62807e-09 3.12312e+07 1.01711e-09 4.12167e+07)
(1.06193e+08 -2.2724e+06 6.94002e-10 3.03152e+07 6.95031e-10 4.09524e+07)
(1.0623e+08 -3.15766e+06 7.14514e-09 2.90001e+07 8.01377e-10 4.05691e+07)
(1.06306e+08 -3.91896e+06 -3.55685e-09 2.72866e+07 -4.89904e-10 4.00779e+07)
(1.0638e+08 -4.66886e+06 8.5246e-09 2.52938e+07 2.07786e-09 3.95022e+07)