/*--------------------------------*- C++ -*----------------------------------*\
| =========                 |                                                 |
| \\      /  F ield         | OpenFOAM: The Open Source CFD Toolbox           |
|  \\    /   O peration     | Version:  v2012                                 |
|   \\  /    A nd           | Website:  www.openfoam.com                      |
|    \\/     M anipulation  |                                                 |
\*---------------------------------------------------------------------------*/
FoamFile
{
    version     2.0;
    format      ascii;
    class       volSymmTensorField;
    location    "1";
    object      sigma;
}
// * * * * * * * * * * * * * * * * * * * * * * * * * * * * * * * * * * * * * //

dimensions      [1 -1 -2 0 0 0 0];


internalField   nonuniform List<symmTensor> 
8960
(
(2.97557e+06 -1.08112e+06 308490 602595 -22886.3 -19417.9)
(2.01352e+06 -679431 730602 243064 -175489 -124440)
(1.11887e+06 -368420 975533 117371 -220028 -250378)
(237845 -86260.3 1.08997e+06 26622.1 -231837 -411666)
(-639472 188749 1.08996e+06 -57478.2 -231839 -586375)
(-1.52073e+06 470983 975500 -148238 -220054 -747703)
(-2.41584e+06 782141 730533 -273982 -175592 -873693)
(-3.37867e+06 1.18404e+06 308387 -633825 -23106.1 -978743)
(2.66758e+06 -1.37397e+06 211615 877444 12103.5 7294.82)
(1.81901e+06 -908294 518714 469052 -24778.3 -81904.4)
(1.00184e+06 -503017 724176 223243 -41222.7 -232404)
(200310 -127870 826285 51211.9 -42979.3 -407847)
(-596919 238052 826290 -101436 -42923.6 -591463)
(-1.39867e+06 613303 724194 -273482 -41064.2 -766973)
(-2.21632e+06 1.01878e+06 518752 -519381 -24541.2 -917611)
(-3.06568e+06 1.48469e+06 211709 -928132 12354.6 -1.007e+06)
(2.3376e+06 -1.52219e+06 165319 1.01389e+06 53180.5 4475.03)
(1.58912e+06 -1.03831e+06 409426 588781 110345 -81393)
(866630 -587524 578494 291200 146172 -227395)
(157465 -155154 664843 66086.6 165051 -405827)
(-547288 271161 664861 -135876 165140 -594060)
(-1.25664e+06 703648 578551 -361006 146423 -772510)
(-1.9795e+06 1.15466e+06 409524 -658640 110693 -918536)
(-2.72853e+06 1.63885e+06 165451 -1.08381e+06 53446.3 -1.00437e+06)
(1.99631e+06 -1.5955e+06 146966 1.01661e+06 100858 1537.2)
(1.34369e+06 -1.10934e+06 360721 603474 238934 -85428.6)
(720050 -636532 509026 300468 328846 -228520)
(111161 -171343 585085 62958.3 373374 -405857)
(-492884 291263 585107 -152622 373458 -594311)
(-1.1019e+06 756576 509092 -390121 329078 -771603)
(-1.72579e+06 1.22963e+06 360829 -693081 239240 -914613)
(-2.37875e+06 1.71618e+06 147093 -1.10605e+06 101061 -1.00147e+06)
(1.63818e+06 -1.63552e+06 145450 883878 150808 226.946)
(1.08431e+06 -1.15088e+06 351345 515423 363726 -87542.2)
(564086 -666301 493090 247325 505250 -229932)
(61824.1 -181500 565469 39259.4 575725 -406339)
(-434574 303337 565476 -148584 575768 -594065)
(-936908 788258 493122 -356617 505379 -770354)
(-1.45726e+06 1.2731e+06 351419 -624593 363910 -912562)
(-2.01129e+06 1.75816e+06 145559 -992729 150943 -1.00018e+06)
(1.25417e+06 -1.66977e+06 154189 617195 199838 -393.877)
(805845 -1.18437e+06 368276 327315 484836 -88019.1)
(396357 -689931 514389 132705 675772 -230681)
(8622.87 -189955 588495 -4863.23 771215 -406818)
(-371995 311810 588457 -123326 771172 -594035)
(-759773 811871 514309 -260897 675684 -769930)
(-1.16931e+06 1.30653e+06 368237 -455399 484795 -912231)
(-1.61762e+06 1.79237e+06 154251 -744889 199882 -999580)
(833668 -1.71614e+06 168871 220283 246382 -4078.02)
(499844 -1.22441e+06 403085 41328.7 602953 -91501.7)
(212120 -716505 561082 -41549.5 841323 -233554)
(-50031.2 -199683 640579 -68538.2 960329 -408216)
(-303942 319936 640433 -77160.2 960106 -593599)
(-566177 836741 560733 -104320 840791 -767791)
(-853969 1.34473e+06 402757 -187312 602443 -909133)
(-1.18767e+06 1.83681e+06 168799 -365943 246224 -995974)
(358406 -1.78339e+06 190206 -309185 295967 -45612.1)
(156366 -1.27776e+06 449566 -339661 719657 -116075)
(6479.17 -750426 622830 -271993 1.00111e+06 -246384)
(-115718 -212111 709699 -150251 1.14151e+06 -412797)
(-229026 329575 709332 -11024.9 1.14094e+06 -590811)
(-351502 867658 621919 110105 999694 -756398)
(-501727 1.39474e+06 448601 177004 718172 -885453)
(-703831 1.90046e+06 189744 146327 295261 -954938)
(3.04873e+06 -1.04968e+06 294092 571646 -15544.3 -24254.3)
(2.06805e+06 -660220 691624 234433 -148525 -119283)
(1.14913e+06 -357684 926083 110648 -188185 -247834)
(247602 -84814.9 1.03579e+06 25003.9 -197763 -411028)
(-649338 180738 1.03578e+06 -53595.4 -197766 -587339)
(-1.55109e+06 453672 926042 -139248 -188214 -750570)
(-2.47045e+06 756335 691541 -263081 -148623 -879179)
(-3.4519e+06 1.14598e+06 293946 -600608 -15719.8 -974278)
(2.7557e+06 -1.34034e+06 201118 831475 19227 2676.23)
(1.88314e+06 -888276 486455 446460 -143.93 -79694.3)
(1.03829e+06 -492509 680772 210332 -9188.46 -230531)
(212022 -126662 777650 48082 -7944.68 -407180)
(-608981 230074 777655 -94510.2 -7890.54 -592122)
(-1.43547e+06 596013 680786 -256770 -9033.88 -768839)
(-2.28077e+06 991951 486485 -492976 90.9208 -919819)
(-3.15412e+06 1.44422e+06 201179 -878346 19501 -1.00242e+06)
(2.43333e+06 -1.48523e+06 157345 953436 61778.2 1943.59)
(1.65814e+06 -1.0156e+06 383358 552801 134916 -79855.9)
(906504 -575723 542115 271240 179501 -226085)
(170265 -153589 623393 60969.8 202443 -405321)
(-560849 262734 623411 -126431 202528 -594571)
(-1.29726e+06 684970 542171 -336707 179740 -773827)
(-2.04925e+06 1.12504e+06 383450 -618295 135250 -920089)
(-2.825e+06 1.59495e+06 157452 -1.01899e+06 62056.7 -1.00191e+06)
(2.09353e+06 -1.55654e+06 140727 935324 111427 498.608)
(1.41372e+06 -1.08443e+06 339673 550409 265312 -83853.3)
(760850 -623352 479106 270353 364813 -227445)
(124199 -169332 550697 54699.3 414103 -405477)
(-507083 282305 550717 -139409 414180 -594697)
(-1.14385e+06 736434 479168 -355037 365027 -772686)
(-1.79696e+06 1.19774e+06 339773 -635017 265598 -916212)
(-2.47713e+06 1.67019e+06 140830 -1.01976e+06 111641 -1.00051e+06)
(1.73185e+06 -1.5971e+06 140335 775604 163369 292.088)
(1.15188e+06 -1.12555e+06 334000 441545 392940 -85686.6)
(603685 -652659 468237 204539 544953 -228760)
(74377.6 -179291 536805 26961.5 620723 -405957)
(-448706 294209 536809 -130635 620757 -594470)
(-978084 767681 468261 -308166 545058 -771549)
(-1.52641e+06 1.2408e+06 334061 -545025 393102 -914451)
(-2.10655e+06 1.71274e+06 140418 -878757 163516 -1.00031e+06)
(1.33975e+06 -1.63426e+06 149615 475855 214335 559.576)
(867628 -1.16042e+06 353354 228573 517510 -85867.6)
(432679 -676908 492999 74767.2 720171 -229326)
(19994.9 -187866 563818 -22041.5 821530 -406395)
(-385354 302971 563775 -99786.9 821469 -594535)
(-798084 792081 492905 -196595 720042 -771350)
(-1.23309e+06 1.27578e+06 353294 -350284 517433 -914435)
(-1.70523e+06 1.75001e+06 149651 -597168 214385 -1.0006e+06)
(907182 -1.68527e+06 164322 39613.5 262645 -2585.1)
(552587 -1.2033e+06 389582 -86973.7 639571 -89451.8)
(243115 -705014 541781 -117472 891269 -232316)
(-40519.5 -197978 618310 -91537.8 1.01695e+06 -407878)
(-315801 311796 618152 -47106.3 1.01669e+06 -594133)
(-599529 818791 541401 -21375.1 890640 -769185)
(-909086 1.31711e+06 389216 -52027.1 638965 -911278)
(-1.26359e+06 1.79939e+06 164220 -178307 262466 -997522)
(414904 -1.75792e+06 185973 -536547 313874 -48062.5)
(196646 -1.26029e+06 437143 -502856 760481 -116863)
(30173.6 -740996 604744 -368969 1.05691e+06 -246694)
(-108682 -210931 688681 -180062 1.20476e+06 -413012)
(-238678 322416 688287 26538.4 1.20409e+06 -590996)
(-377845 852208 603761 214716 1.05526e+06 -756408)
(-544712 1.37118e+06 436092 347662 758745 -884856)
(-763091 1.86882e+06 185460 381033 313054 -952568)
(3.12173e+06 -1.01438e+06 278565 542925 -9181.72 -24456.7)
(2.11887e+06 -638889 653409 223371 -125735 -117403)
(1.17819e+06 -346259 876165 103686 -159332 -246434)
(257072 -83038.1 980757 23360.3 -166575 -410625)
(-658695 172801 980743 -49434.7 -166581 -587847)
(-1.58002e+06 436081 876118 -129768 -159365 -752072)
(-2.52114e+06 728824 653318 -249501 -125835 -881153)
(-3.52472e+06 1.10447e+06 278421 -569341 -9359.83 -974142)
(2.844e+06 -1.30012e+06 189183 786548 25310.2 1918.59)
(1.94466e+06 -863832 455311 422779 20824.7 -79627.1)
(1.07408e+06 -479851 637916 198118 20109.8 -229432)
(223594 -124691 729378 45059.6 24580.4 -406737)
(-620845 221567 729381 -88292.4 24633.3 -592640)
(-1.47154e+06 576808 637925 -241358 20261.8 -770011)
(-2.34255e+06 960940 455331 -466091 21057.9 -919956)
(-3.24265e+06 1.39741e+06 189226 -830185 25582.9 -1.00172e+06)
(2.52852e+06 -1.44124e+06 148078 892558 69169.8 1727.1)
(1.72473e+06 -987795 358333 515347 156380 -80141.7)
(945547 -561111 506690 251136 210068 -225657)
(182884 -151056 582889 55729.1 237151 -405078)
(-574129 253468 582905 -117267 237232 -594831)
(-1.33696e+06 663613 506740 -312671 210299 -774271)
(-2.11649e+06 1.09047e+06 358412 -576893 156706 -919822)
(-2.92083e+06 1.54416e+06 148167 -954136 69447.3 -1.00171e+06)
(2.18943e+06 -1.5106e+06 133298 854095 120662 835.022)
(1.48127e+06 -1.05434e+06 319303 496605 288954 -83806.5)
(800640 -607173 449886 240191 398094 -227151)
(136993 -166283 517039 46326.3 452089 -405331)
(-520933 272437 517057 -126475 452161 -594853)
(-1.1847e+06 713425 449940 -320303 398295 -772991)
(-1.86556e+06 1.16079e+06 319389 -576621 289227 -916274)
(-2.57407e+06 1.61736e+06 133385 -933909 120874 -1.00086e+06)
(1.82347e+06 -1.55151e+06 134070 668092 174556 1009.08)
(1.21684e+06 -1.09487e+06 316813 367710 419676 -85213.8)
(642074 -635870 443502 162029 582114 -228308)
(86617.8 -175994 508251 14634.7 663074 -405788)
(-462398 284115 508252 -113091 663100 -594665)
(-1.01792e+06 744082 443516 -260430 582200 -772023)
(-1.59281e+06 1.20329e+06 316859 -465946 419822 -914944)
(-2.19963e+06 1.66028e+06 134139 -765975 174701 -1.00105e+06)
(1.42287e+06 -1.59111e+06 143924 335803 227434 1566.17)
(926801 -1.13083e+06 338007 130499 547893 -84962.7)
(467691 -660533 471019 17408.5 762162 -228628)
(31016.8 -184625 538479 -39165.4 869324 -406168)
(-398206 293084 538430 -76787.9 869247 -594843)
(-834927 769044 470910 -133365 761995 -772112)
(-1.29409e+06 1.2395e+06 337929 -246336 547779 -915378)
(-1.79018e+06 1.70014e+06 143946 -451221 227475 -1.00162e+06)
(978031 -1.6461e+06 158672 -139498 277430 -1555.92)
(602945 -1.17612e+06 375025 -214165 674043 -88425.8)
(272830 -689889 521131 -192614 938925 -231614)
(-31352.7 -195037 594560 -114433 1.07117e+06 -407701)
(-327126 302490 594391 -17689.4 1.07087e+06 -594512)
(-631411 797279 520722 60247.8 938194 -770042)
(-961624 1.28351e+06 374624 81593.1 673332 -912385)
(-1.33663e+06 1.75374e+06 158550 7225.23 277208 -998563)
(468700 -1.72344e+06 180170 -762068 330356 -51188.1)
(234729 -1.23624e+06 422731 -664677 799447 -118433)
(52617.4 -727579 584290 -465081 1.11063e+06 -247429)
(-101982 -208408 665120 -209754 1.26577e+06 -413361)
(-247768 313934 664701 63424.7 1.26501e+06 -591054)
(-402711 832791 583241 317889 1.10874e+06 -755994)
(-585268 1.34106e+06 421600 516344 797434 -883467)
(-819409 1.82819e+06 179612 613281 329394 -949491)
(3.1929e+06 -975769 262511 515215 -3412.33 -23877.2)
(2.16745e+06 -615311 615436 211711 -105482 -116071)
(1.20607e+06 -333714 826151 96733 -133013 -245583)
(266214 -80857.7 925334 21731.8 -137849 -410367)
(-667683 164683 925319 -45379.2 -137856 -588152)
(-1.60775e+06 417592 826101 -120387 -133049 -752966)
(-2.56955e+06 699289 615345 -235412 -105585 -882520)
(-3.59568e+06 1.05989e+06 262379 -539184 -3594.53 -974743)
(2.93034e+06 -1.25429e+06 176839 742749 30850.2 2019.95)
(2.0041e+06 -835321 424993 398640 39296.6 -79801.4)
(1.10876e+06 -464967 595911 185775 46592.9 -228902)
(234880 -121956 681811 41989.6 54382 -406482)
(-632348 212510 681812 -82312.4 54433.9 -592956)
(-1.50643e+06 555593 595915 -226102 46742.2 -770599)
(-2.40219e+06 926079 425005 -439031 39525.5 -919830)
(-3.32916e+06 1.34521e+06 176876 -783440 31116.4 -1.00185e+06)
(2.62137e+06 -1.39082e+06 138476 832584 75980.4 2040.42)
(1.78922e+06 -955200 334097 477636 175613 -80592.1)
(983432 -543708 472312 230862 237909 -225689)
(195189 -147568 543443 50362.8 269082 -405013)
(-587013 243403 543457 -108354 269162 -594921)
(-1.37542e+06 639623 472354 -288843 238133 -774263)
(-2.18155e+06 1.05127e+06 334165 -535615 175929 -919391)
(-3.01422e+06 1.48711e+06 138552 -890567 76250.1 -1.00204e+06)
(2.28251e+06 -1.45803e+06 125506 774145 129258 1449.04)
(1.54651e+06 -1.01926e+06 299399 443030 310539 -83947.2)
(839132 -588010 421391 210065 428750 -227224)
(149422 -162207 484160 37860.6 487284 -405330)
(-534317 261670 484175 -113829 487351 -594865)
(-1.22414e+06 687559 421437 -285988 428941 -772929)
(-1.93175e+06 1.11899e+06 299473 -518839 310801 -916142)
(-2.66808e+06 1.55804e+06 125581 -849727 129464 -1.00148e+06)
(1.91189e+06 -1.49906e+06 127356 562577 185078 1842.37)
(1.27929e+06 -1.05905e+06 299637 294777 444479 -84959.1)
(679037 -615972 418900 119942 616763 -228170)
(98448.3 -171629 479843 2321.73 702698 -405741)
(-475558 273064 479841 -95972.4 702717 -594739)
(-1.05621e+06 717488 418906 -213531 616832 -772183)
(-1.65659e+06 1.16075e+06 299671 -388186 444609 -915212)
(-2.28936e+06 1.60108e+06 127416 -655608 185217 -1.00189e+06)
(1.50259e+06 -1.54061e+06 137692 198442 239849 2575.48)
(983422 -1.09579e+06 322185 33947.6 576427 -84296.9)
(501241 -640859 448489 -39147.7 801737 -228203)
(41618 -180257 512524 -56165.7 914472 -406045)
(-410488 282158 512471 -54367.9 914379 -595048)
(-870157 742799 448369 -71395.2 801530 -772599)
(-1.3524e+06 1.19786e+06 322091 -144374 576274 -916075)
(-1.87159e+06 1.64301e+06 137704 -308430 239876 -1.00263e+06)
(1.04553e+06 -1.59879e+06 152397 -315356 291477 -599.556)
(650893 -1.14299e+06 359498 -339332 706722 -87614.8)
(301160 -671172 499237 -266649 984244 -231128)
(-22580.6 -190881 569422 -137117 1.12282e+06 -407606)
(-337882 292024 569243 11021.7 1.12247e+06 -594813)
(-661730 772233 498803 140264 983404 -770684)
(-1.01157e+06 1.24401e+06 359068 212681 705895 -913272)
(-1.40614e+06 1.70002e+06 152259 188985 291205 -999523)
(519434 -1.67982e+06 173582 -983820 346022 -54397.6)
(270617 -1.20557e+06 406859 -824098 836733 -120198)
(73787.6 -710172 561952 -559862 1.16215e+06 -248342)
(-95637.8 -204550 639467 -239167 1.32434e+06 -413778)
(-256306 304127 639026 99516 1.32347e+06 -591051)
(-426105 809398 560844 419201 1.15999e+06 -755408)
(-623432 1.30434e+06 405657 682072 834417 -881884)
(-872465 1.77845e+06 172983 841178 344903 -946328)
(3.26164e+06 -934013 246232 488425 1905.52 -23174.2)
(2.21398e+06 -589570 577562 199904 -87122.5 -114869)
(1.23278e+06 -319992 776089 89899.8 -108862 -244937)
(274984 -78257.7 869698 20117.1 -111329 -410184)
(-676293 156313 869682 -41513.3 -111338 -588366)
(-1.63429e+06 398094 776038 -111302 -108902 -753639)
(-2.6159e+06 667760 577473 -221351 -87229.6 -883743)
(-3.66421e+06 1.01233e+06 246112 -510127 1721.41 -975464)
(3.0138e+06 -1.20338e+06 164490 700299 35963.9 2386.75)
(2.06137e+06 -803054 395408 374496 55844.3 -79902)
(1.1422e+06 -447899 554823 173343 70547.4 -228591)
(245793 -118463 635133 38850.2 81556.1 -406327)
(-643429 202867 635133 -76494.1 81606.9 -593156)
(-1.54003e+06 532367 554825 -210989 70693.6 -770951)
(-2.45961e+06 887638 395417 -412199 56068.3 -919762)
(-3.41273e+06 1.2881e+06 164523 -738282 36224 -1.00223e+06)
(2.71092e+06 -1.33449e+06 128883 774273 82352.7 2546.29)
(1.85137e+06 -918172 310563 440328 193068 -80917.2)
(1.01996e+06 -523638 438953 210625 263260 -225849)
(207085 -143153 505096 44909.4 298305 -405030)
(-599418 232562 505108 -99667.3 298382 -594929)
(-1.41245e+06 613118 438989 -265368 263477 -774125)
(-2.24418e+06 1.00779e+06 310622 -495054 193373 -919081)
(-3.10423e+06 1.4243e+06 128950 -828981 82613.1 -1.00255e+06)
(2.37192e+06 -1.39925e+06 117630 696378 137369 2169.32)
(1.60917e+06 -979511 279887 390407 330432 -84005.7)
(876135 -565995 393557 180293 456992 -227376)
(161398 -157142 452036 29384 519776 -405384)
(-547156 250037 452049 -101526 519841 -594824)
(-1.262e+06 658967 393596 -252381 457173 -772787)
(-1.99525e+06 1.07264e+06 279950 -462366 330682 -916090)
(-2.75833e+06 1.49263e+06 117696 -768088 137567 -1.00221e+06)
(1.99642e+06 -1.44011e+06 120418 459987 195075 2727.54)
(1.339e+06 -1.01838e+06 282424 223467 467633 -84671.3)
(714414 -593103 394381 78632 649060 -228095)
(109800 -166236 451554 -9874.09 739659 -405733)
(-488124 261089 451550 -79359.7 739672 -594774)
(-1.0928e+06 688027 394379 -167799 649114 -772278)
(-1.7175e+06 1.11347e+06 282448 -312443 467747 -915509)
(-2.37509e+06 1.53548e+06 120470 -548562 195207 -1.00277e+06)
(1.57842e+06 -1.48309e+06 131094 64795.7 251708 3601.65)
(1.03731e+06 -1.05556e+06 305876 -60304.5 603328 -83634.2)
(533205 -618020 425397 -94494.6 838995 -227838)
(51745.3 -174804 485959 -72914.7 956987 -405955)
(-422157 270226 485902 -32627.2 956877 -595223)
(-903662 713470 425267 -11065.4 838746 -773026)
(-1.40782e+06 1.15112e+06 305771 -45145.8 603132 -916765)
(-1.94896e+06 1.57894e+06 131098 -169793 251719 -1.00366e+06)
(1.10937e+06 -1.54364e+06 145639 -486753 304914 358.818)
(696298 -1.10413e+06 343055 -461584 737756 -86809.5)
(328019 -648975 476153 -339088 1.02726e+06 -230683)
(-14240.1 -185547 542957 -159429 1.17185e+06 -407534)
(-348045 280426 542771 38898.2 1.17146e+06 -595095)
(-690415 743754 475699 218215 1.0263e+06 -771288)
(-1.05881e+06 1.19883e+06 342600 340375 736805 -914153)
(-1.47182e+06 1.63852e+06 145486 365795 304586 -1.00048e+06)
(566966 -1.62727e+06 166401 -1.20038e+06 360975 -57580)
(304286 -1.16841e+06 389688 -980058 872381 -121967)
(93666.1 -688850 537890 -652705 1.2114e+06 -249290)
(-89663.5 -199383 611887 -268097 1.38031e+06 -414215)
(-264295 293017 611427 134644 1.37933e+06 -591033)
(-448029 782100 536733 518081 1.20895e+06 -754789)
(-659196 1.26114e+06 388423 843822 869739 -880299)
(-922138 1.71979e+06 165764 1.06333e+06 359684 -943193)
(3.32752e+06 -889213 229883 462607 6807.64 -22482.6)
(2.25841e+06 -561775 539749 188160 -70360.1 -113740)
(1.25827e+06 -305123 725980 83245 -86651.4 -244369)
(283355 -75248.2 813913 18522.7 -86848.3 -410032)
(-684503 147677 813897 -37859.6 -86858.3 -588544)
(-1.65961e+06 377593 725931 -102587 -86695.1 -754230)
(-2.66014e+06 634324 539665 -207546 -70470.3 -884891)
(-3.72989e+06 961867 229774 -482238 6622.96 -976173)
(3.09381e+06 -1.14775e+06 152309 659419 40679.6 2865.36)
(2.11624e+06 -767312 366516 350697 70785.9 -79899.9)
(1.17425e+06 -428756 514641 160976 92253.1 -228345)
(256276 -114245 589396 35672.6 106291 -406212)
(-654046 192642 589396 -70856.7 106341 -593303)
(-1.57221e+06 507210 514642 -196159 92396.4 -771226)
(-2.5146e+06 845867 366523 -385933 71005.3 -919788)
(-3.49283e+06 1.22642e+06 152341 -694917 40934.6 -1.00273e+06)
(2.79652e+06 -1.27271e+06 119435 718107 88306.3 3145.23)
(1.91083e+06 -877065 287679 403898 208996 -81091.1)
(1.05496e+06 -501071 406551 190679 286358 -225999)
(218501 -137863 467823 39445.3 324981 -405066)
(-611283 220981 467833 -91246.7 325056 -594913)
(-1.44789e+06 584252 406583 -242461 286569 -773991)
(-2.30408e+06 960368 287731 -455651 209292 -918919)
(-3.19024e+06 1.35618e+06 119495 -769823 88558 -1.00316e+06)
(2.45707e+06 -1.3347e+06 109774 621434 145012 2941.69)
(1.66893e+06 -935442 260716 339299 348825 -83946.5)
(911466 -541317 366304 151200 483017 -227493)
(172855 -151146 420599 21003.6 549716 -405440)
(-559392 237588 420609 -89642.9 549777 -594780)
(-1.29811e+06 627828 366337 -219779 483189 -772679)
(-2.05578e+06 1.0221e+06 260772 -407736 349064 -916154)
(-2.84423e+06 1.42158e+06 109833 -689602 145203 -1.00298e+06)
(2.07659e+06 -1.37506e+06 113336 361046 204556 3636.65)
(1.39571e+06 -973184 265144 154391 489276 -84310.4)
(748054 -567449 369881 38466 679148 -227993)
(120615 -159877 423327 -21828.7 774067 -405723)
(-500045 248240 423321 -63353.1 774073 -594810)
(-1.12754e+06 655874 369873 -123577 679186 -772399)
(-1.77531e+06 1.06175e+06 265160 -239301 489372 -915879)
(-2.45636e+06 1.46389e+06 113382 -445538 204681 -1.00368e+06)
(1.65004e+06 -1.41893e+06 124196 -64291.6 263008 4634.04)
(1.08826e+06 -1.01046e+06 289080 -151573 628678 -82933.5)
(563471 -592192 401721 -148216 874014 -227459)
(61355.9 -168325 458764 -89269 996921 -405864)
(-433178 257337 458705 -11684.4 996793 -595399)
(-935336 681221 401584 47233.6 873722 -773467)
(-1.46018e+06 1.09958e+06 288965 50690.6 628439 -917494)
(-2.02197e+06 1.5083e+06 124193 -36129 263001 -1.00469e+06)
(1.16937e+06 -1.481e+06 138457 -652655 317735 1321.53)
(739045 -1.0598e+06 325729 -580109 767178 -85972.8)
(353337 -623452 451908 -409432 1.06798e+06 -230222)
(-6359.21 -179086 515199 -181197 1.21825e+06 -407461)
(-357597 267740 515007 65794.6 1.2178e+06 -595383)
(-717408 711990 451439 293632 1.0669e+06 -771910)
(-1.10324e+06 1.14823e+06 325256 463895 766096 -915066)
(-1.5335e+06 1.56956e+06 138291 536653 317347 -1.00144e+06)
(611250 -1.56609e+06 158687 -1.41045e+06 375211 -60700.3)
(335714 -1.12499e+06 371283 -1.13156e+06 906355 -123691)
(112241 -663741 512179 -743000 1.2583e+06 -250222)
(-84067.7 -192950 582459 -296332 1.43359e+06 -414650)
(-271740 280639 581986 168624 1.43249e+06 -591020)
(-468482 751019 510983 613951 1.25555e+06 -754191)
(-692552 1.2117e+06 369969 1.00063e+06 903370 -878762)
(-968398 1.65253e+06 158017 1.2785e+06 373736 -940122)
(3.39021e+06 -841482 213548 437851 11303.1 -21837.8)
(2.30061e+06 -532033 501996 176628 -55035.8 -112688)
(1.28248e+06 -289160 675829 76813.7 -66237.5 -243841)
(291306 -71848 758007 16960.4 -64289.1 -409892)
(-692295 138778 757992 -34425.8 -64300.4 -588706)
(-1.68365e+06 356126 675782 -94283.5 -66284.3 -754779)
(-2.70216e+06 599068 501917 -194141 -55148.5 -885961)
(-3.79238e+06 908610 213448 -455601 11118.5 -976836)
(3.16993e+06 -1.08773e+06 140376 620307 45007.3 3394.74)
(2.16849e+06 -728349 338280 327521 84314.6 -79820.6)
(1.2048e+06 -407669 475325 148827 111932 -228116)
(266279 -109344 544585 32500.3 128776 -406113)
(-664156 181858 544584 -65436.1 128824 -593428)
(-1.60285e+06 480233 475325 -181761 112072 -771479)
(-2.56693e+06 801002 338288 -360502 84530 -919886)
(-3.56901e+06 1.16049e+06 140406 -653537 45258.1 -1.00327e+06)
(2.87772e+06 -1.20592e+06 110187 664439 93839.4 3788.42)
(1.96734e+06 -832212 265399 368717 223549 -81143.6)
(1.08824e+06 -476195 375033 171258 307401 -226102)
(229378 -131761 431557 34050 349292 -405097)
(-622557 208705 431567 -83149.6 349364 -594897)
(-1.48157e+06 553195 375062 -220333 307605 -773901)
(-2.36096e+06 909319 265446 -417755 223837 -918875)
(-3.27179e+06 1.28318e+06 110242 -713424 94083.3 -1.00381e+06)
(2.53756e+06 -1.26482e+06 101976 549799 152179 3733.34)
(1.72551e+06 -887400 241844 290154 365829 -83791.1)
(944961 -514180 339550 123075 506979 -227549)
(183735 -144289 389764 12822.4 577255 -405480)
(-570974 224381 389773 -78260 577313 -594750)
(-1.3323e+06 594334 339579 -188447 507142 -772630)
(-2.11305e+06 967681 241893 -355372 366056 -916313)
(-2.9254e+06 1.3453e+06 102029 -614733 152362 -1.00377e+06)
(2.15209e+06 -1.30435e+06 106143 266357 213503 4546.73)
(1.44919e+06 -923794 247770 88059.5 509474 -83891.1)
(779820 -539210 345343 -226.507 707128 -227846)
(130848 -152620 395096 -33424 806026 -405700)
(-511283 234578 395088 -48048.4 806026 -594860)
(-1.16031e+06 621221 345331 -81173.2 707150 -772566)
(-1.82979e+06 1.00593e+06 247780 -169251 509554 -916306)
(-2.53284e+06 1.38672e+06 106183 -347115 213622 -1.00459e+06)
(1.71721e+06 -1.34853e+06 117026 -188075 273721 5655.94)
(1.13614e+06 -960780 271797 -239258 652502 -82205.2)
(591942 -563564 377444 -199929 906839 -227054)
(70414.5 -160886 430917 -105092 1.03432e+06 -405765)
(-443525 243548 430856 8346.39 1.03417e+06 -595584)
(-965093 646233 377302 103142 906503 -773935)
(-1.50933e+06 1.04352e+06 271675 142557 652217 -918250)
(-2.09043e+06 1.43149e+06 117017 91841 273696 -1.00571e+06)
(1.22541e+06 -1.41124e+06 130880 -812114 329912 2276.69)
(779051 -1.01028e+06 307551 -694168 794970 -85114.2)
(377060 -594776 426527 -477217 1.10639e+06 -229741)
(1040.39 -171559 486172 -202256 1.26198e+06 -407382)
(-366528 254018 485977 91569.4 1.26149e+06 -595679)
(-742665 677107 426048 366073 1.10519e+06 -772555)
(-1.14478e+06 1.09248e+06 307064 582526 793751 -916002)
(-1.59109e+06 1.49353e+06 130703 700635 329461 -1.0024e+06)
(652290 -1.49669e+06 150468 -1.61283e+06 388711 -63736.6)
(364898 -1.07558e+06 351690 -1.27767e+06 938591 -125355)
(129508 -635002 484869 -830164 1.30276e+06 -251120)
(-78855.5 -185304 551242 -323668 1.48406e+06 -415073)
(-278645 267045 550760 201277 1.48285e+06 -591015)
(-487471 716310 483649 706249 1.2997e+06 -753625)
(-723506 1.15627e+06 350340 1.15159e+06 935249 -877286)
(-1.01126e+06 1.57705e+06 149771 1.48549e+06 387040 -937137)
(3.44943e+06 -790957 197273 414267 15399.8 -21250.4)
(2.34044e+06 -500447 464312 165432 -41052 -111722)
(1.30533e+06 -272159 625648 70646.9 -47523.7 -243347)
(298814 -68078.8 702003 15443.5 -43566.6 -409761)
(-699647 129626 701988 -31216 -43579 -588858)
(-1.70634e+06 333737 625603 -86423.5 -47573.2 -755292)
(-2.74182e+06 562086 464238 -181251 -41166.8 -886945)
(-3.85139e+06 852676 197181 -430314 15215.5 -977441)
(3.24181e+06 -1.02363e+06 128718 583152 48956.6 3941.49)
(2.21789e+06 -686402 310667 305195 96558.6 -79694.4)
(1.2337e+06 -384773 436820 137035 129753 -227895)
(275755 -103807 500651 29377 149175 -406021)
(-673718 170549 500651 -60267.9 149222 -593542)
(-1.63184e+06 451557 436820 -167923 129892 -771720)
(-2.6164e+06 753264 310674 -336126 96770.4 -920028)
(-3.64094e+06 1.09058e+06 128746 -614320 49203.7 -1.00382e+06)
(2.95414e+06 -1.13453e+06 101154 613557 98951.1 4445.14)
(2.02063e+06 -783924 243676 335084 236829 -81111.1)
(1.11968e+06 -449194 344319 152561 326544 -226157)
(239661 -124910 396215 28795.1 371401 -405116)
(-633194 195785 396224 -75433 371472 -594891)
(-1.51335e+06 520118 344345 -199171 326743 -773856)
(-2.41459e+06 854941 243719 -381648 237108 -918915)
(-3.34854e+06 1.20568e+06 101204 -660055 99188.3 -1.00447e+06)
(2.61306e+06 -1.19006e+06 94245.9 481871 158859 4520.9)
(1.77869e+06 -835717 223229 243333 381509 -83570.5)
(976481 -484787 313221 96163 528994 -227550)
(193988 -136640 359443 4930.38 602525 -405500)
(-581860 210476 359451 -67448.7 602579 -594738)
(-1.36445e+06 558676 313246 -158611 529149 -772635)
(-2.16685e+06 909719 223272 -305618 381727 -916537)
(-3.0015e+06 1.26424e+06 94294 -543859 159037 -1.00456e+06)
(2.22267e+06 -1.22839e+06 98848.4 176436 221898 5439.52)
(1.49928e+06 -870536 230281 24906.3 528257 -83437.8)
(809603 -508587 320719 -37160.6 733068 -227662)
(140456 -144536 366803 -44555.6 835619 -405662)
(-521803 220163 366794 -33531.1 835613 -594925)
(-1.191e+06 584261 320704 -40852.2 733075 -772769)
(-1.88078e+06 946322 230285 -102706 528321 -916767)
(-2.60432e+06 1.30438e+06 98884 -253790 222010 -1.00549e+06)
(1.77981e+06 -1.2723e+06 109598 -305879 283819 6652.22)
(1.18081e+06 -906841 254030 -322826 674794 -81469.6)
(618544 -532329 352555 -249292 937483 -226635)
(78892.5 -152554 402402 -120261 1.0692e+06 -405659)
(-453176 228919 402340 27361.3 1.06904e+06 -595776)
(-992864 608693 352411 156337 937104 -774418)
(-1.55518e+06 983258 253903 229941 674464 -919013)
(-2.15418e+06 1.34891e+06 109585 213462 283775 -1.00671e+06)
(1.27744e+06 -1.33477e+06 122927 -964238 341413 3211.48)
(816259 -955879 288547 -803080 821093 -84252.6)
(399150 -563130 400038 -542013 1.14244e+06 -229249)
(7942.32 -163027 455904 -222453 1.30301e+06 -407297)
(-374828 239318 455708 116090 1.30247e+06 -595982)
(-766155 639282 399556 435130 1.14111e+06 -773212)
(-1.18339e+06 1.03188e+06 288053 695608 819734 -916941)
(-1.64452e+06 1.41084e+06 122743 856874 340895 -1.00333e+06)
(690116 -1.41945e+06 141757 -1.80633e+06 401448 -66668.3)
(391847 -1.02046e+06 330947 -1.41749e+06 969013 -126954)
(145468 -602811 456014 -913641 1.34468e+06 -251982)
(-74029.6 -176507 518292 -349913 1.53163e+06 -415482)
(-285018 252291 517808 232427 1.53029e+06 -591018)
(-505005 678146 454784 794444 1.3413e+06 -753091)
(-752077 1.09515e+06 329578 1.29583e+06 965303 -875874)
(-1.05075e+06 1.49376e+06 141040 1.68315e+06 399572 -934256)
(3.5049e+06 -737791 181078 391969 19108.9 -20722.6)
(2.37778e+06 -467124 426708 154681 -28340.1 -110848)
(1.32676e+06 -254180 575452 64783.7 -30440.2 -242890)
(305855 -63963.5 645920 13985.5 -24616 -409638)
(-706536 120231 645906 -28233.2 -24629.4 -589001)
(-1.72762e+06 310476 575410 -79035.5 -30492 -755768)
(-2.77899e+06 523472 426640 -168975 -28456.7 -887837)
(-3.90669e+06 794208 180994 -406485 18925 -977986)
(3.30913e+06 -955732 117340 548133 52539.3 4484.6)
(2.26423e+06 -641694 283637 283915 107611 -79544.8)
(1.26084e+06 -360200 399071 125724 145850 -227684)
(284661 -97681.1 457539 26343.9 167623 -405935)
(-682694 158748 457538 -55383.8 167670 -593647)
(-1.65904e+06 421304 399071 -154760 145986 -771949)
(-2.66279e+06 702865 283644 -312991 107819 -920191)
(-3.70829e+06 1.01698e+06 117366 -577435 52783.2 -1.00438e+06)
(3.02551e+06 -1.05892e+06 92330.2 565708 103645 5094.48)
(2.07049e+06 -732494 222461 303244 248909 -81023.8)
(1.14912e+06 -420249 314332 134759 343910 -226176)
(249305 -117375 361708 23742.9 391449 -405124)
(-643150 182271 361716 -68147.3 391518 -594892)
(-1.5431e+06 485188 314355 -179132 344104 -773845)
(-2.46475e+06 797516 222500 -347564 249181 -919007)
(-3.42019e+06 1.12406e+06 92375.3 -609952 103876 -1.00512e+06)
(2.68333e+06 -1.11083e+06 86578.8 417989 165047 5287.42)
(1.82828e+06 -780710 204831 199136 395909 -83311.7)
(1.00591e+06 -453335 287247 70668.9 549147 -227511)
(203572 -128270 329556 -2596 625631 -405506)
(-592013 195930 329562 -57270.9 625683 -594740)
(-1.39444e+06 521042 287269 -130462 549295 -772680)
(-2.21699e+06 848517 204869 -258759 396118 -916798)
(-3.07232e+06 1.17879e+06 86622.1 -477305 165220 -1.00533e+06)
(2.28816e+06 -1.14761e+06 91454.1 91742.6 229722 6301.08)
(1.54582e+06 -813729 212658 -34695.8 545638 -82972.3)
(837312 -475780 295970 -72090.5 757010 -227455)
(149408 -135695 338397 -55133.5 862903 -405614)
(-531579 205057 338388 -19875.5 862890 -594999)
(-1.21953e+06 545182 295952 -2844.16 757001 -772994)
(-1.92814e+06 883229 212659 -40021.9 545687 -917241)