/*--------------------------------*- C++ -*----------------------------------*\
| =========                 |                                                 |
| \\      /  F ield         | OpenFOAM: The Open Source CFD Toolbox           |
|  \\    /   O peration     | Version:  v2012                                 |
|   \\  /    A nd           | Website:  www.openfoam.com                      |
|    \\/     M anipulation  |                                                 |
\*---------------------------------------------------------------------------*/
FoamFile
{
    version     2.0;
    format      ascii;
    class       volVectorField;
    location    "10";
    object      D_0;
}
// * * * * * * * * * * * * * * * * * * * * * * * * * * * * * * * * * * * * * //

dimensions      [0 1 0 0 0 0 0];


internalField   nonuniform List<vector> 
7666
(
(0.00407901 -1.05314e-05 0)
(0.00422377 -7.91108e-05 0)
(0.00153645 -0.00205991 0)
(0.00392344 -0.000152152 0)
(0.00267723 -0.000578044 0)
(0.00200308 -0.000978129 0)
(0.00503458 -0.000149541 0)
(0.0039957 -0.000187155 0)
(0.00143243 -0.00133807 0)
(0.00498041 -0.000121801 0)
(0.00401313 -5.99703e-05 0)
(0.00448913 -0.000328506 0)
(0.00400105 -0.000170622 0)
(0.00427449 -0.000127184 0)
(0.00512029 -0.000101605 0)
(0.00235885 -0.00119346 0)
(0.00400889 -0.000181057 0)
(0.00239858 -0.000783945 0)
(0.00419369 -0.000321542 0)
(0.00455753 -8.28571e-05 0)
(0.00443052 -1.75966e-05 0)
(0.00331584 -0.000403337 0)
(0.00425067 -0.000149413 0)
(0.00380662 -0.000128457 0)
(0.00191852 -0.00110373 0)
(0.00511973 -9.86421e-05 0)
(0.00188137 -0.00113952 0)
(0.00392376 -5.97956e-05 0)
(0.00401148 -0.000173832 0)
(0.00474516 -0.000396119 0)
(0.00451162 -0.000472568 0)
(0.00241789 -0.000767011 0)
(0.00394566 -6.53647e-05 0)
(0.00480914 -0.000294885 0)
(0.00390989 -0.000117995 0)
(0.00440172 -6.27525e-05 0)
(0.00441519 -5.75125e-05 0)
(0.00462792 -0.000395749 0)
(0.00244997 -0.000699371 0)
(0.0048788 -0.0001358 0)
(0.00322504 -0.000475195 0)
(0.000761554 -0.00235194 0)
(0.000146502 -0.00272593 0)
(0.00380323 -9.28942e-05 0)
(0.000343421 -0.00266612 0)
(0.00506731 -0.000131915 0)
(0.00182857 -0.00107624 0)
(0.00322838 -0.000452843 0)
(0.00305278 -0.000449939 0)
(0.00421559 -1.00121e-05 0)
(0.00392628 -5.92732e-05 0)
(0.00354681 -0.000465276 0)
(0.00505405 -0.000157504 0)
(0.00147981 -0.00130311 0)
(0.00434865 -7.06747e-06 0)
(0.00237287 -0.0012147 0)
(0.00420207 -1.40063e-05 0)
(0.00421386 -1.22234e-05 0)
(0.00201237 -0.00115628 0)
(0.00198305 -0.000987079 0)
(0.00422125 -2.95954e-05 0)
(0.00463662 -0.000400731 0)
(0.0040862 -0.000144537 0)
(0.00407292 -0.000150131 0)
(0.00416577 -1.78952e-05 0)
(0.00305549 -0.000423893 0)
(0.00492569 -7.28502e-05 0)
(0.00417792 -1.70964e-05 0)
(0.00211212 -0.00126616 0)
(0.00201615 -0.00113474 0)
(0.00204519 -0.00130892 0)
(0.00522968 -1.99543e-05 0)
(0.00522118 -1.91425e-05 0)
(0.00484772 -0.000361684 0)
(0.00483126 -0.000371443 0)
(0.0051084 -0.000134654 0)
(0.000248766 -0.00276012 0)
(0.00419732 -0.000121479 0)
(0.00418471 -0.000127447 0)
(0.00422303 -3.23599e-05 0)
(0.0048505 -0.000202209 0)
(0.00513306 -4.46891e-05 0)
(0.00357986 -0.000163327 0)
(0.000187549 -0.00271983 0)
(0.00433336 -0.000406489 0)
(0.00377327 -0.000534055 0)
(0.0037651 -0.000523377 0)
(0.0033833 -0.00044698 0)
(0.00313702 -0.000425701 0)
(0.00462127 -0.000427405 0)
(0.00450895 -0.000184016 0)
(0.00452608 -0.000186171 0)
(0.00355812 -0.000571452 0)
(0.00168735 -0.00152342 0)
(0.000971649 -0.00172306 0)
(0.0026637 -0.000800241 0)
(0.00394427 -0.000118101 0)
(0.0016043 -0.00203438 0)
(0.00419452 -0.000331314 0)
(0.00457597 -7.84912e-05 0)
(0.00353629 -0.000566925 0)
(0.00476506 -0.000394427 0)
(0.00390699 -7.09875e-05 0)
(0.00116758 -0.00209075 0)
(0.00365875 -0.000188434 0)
(0.00259712 -0.000635068 0)
(0.00047022 -0.00256469 0)
(0.00276463 -0.000513183 0)
(0.00505346 -0.000144454 0)
(0.00356814 -0.000495479 0)
(0.00405532 -0.000116624 0)
(0.00301033 -0.000398289 0)
(0.00406603 -7.24248e-05 0)
(0.00423766 -2.69002e-05 0)
(0.00400402 -5.50826e-05 0)
(0.00251872 -0.00066444 0)
(0.00394655 -5.5762e-05 0)
(0.00386509 -0.000185477 0)
(0.00453396 -0.000399932 0)
(0.00453655 -0.000390179 0)
(0.0019005 -0.00102299 0)
(0.00497037 -0.000284452 0)
(0.00458577 -0.000271406 0)
(0.00509088 -0.000102802 0)
(0.00383067 -0.000121141 0)
(0.00422985 -1.19606e-06 0)
(0.00279291 -0.000500399 0)
(0.00325649 -0.000323804 0)
(0.00357531 -0.000183128 0)
(0.00429259 -0.000195416 0)
(0.00232546 -0.00127593 0)
(0.00400726 -0.000422337 0)
(0.00456156 -3.90092e-05 0)
(8.83164e-05 -0.00284883 0)
(0.00458004 -0.000279154 0)
(0.00263173 -0.000625096 0)
(0.00486885 -0.000195248 0)
(0.00488028 -0.000139923 0)
(0.00441474 -0.000144893 0)
(0.00391299 -0.000112373 0)
(0.0035372 -0.000194675 0)
(0.005164 -4.39142e-05 0)
(0.00496574 -1.58502e-05 0)
(0.00498623 -1.36064e-05 0)
(0.00490863 -7.70061e-05 0)
(0.00467272 -0.000121898 0)
(0.00502509 -0.000147494 0)
(0.00519343 -4.40193e-05 0)
(0.00406078 -1.91297e-05 0)
(0.00412591 -0.000241668 0)
(0.00499824 -0.000120301 0)
(0.00302922 -0.000528715 0)
(0.00420461 -3.56559e-05 0)
(0.00333621 -0.000393279 0)
(0.00476887 -5.82783e-05 0)
(0.00478954 -5.53793e-05 0)
(0.00328297 -0.000412502 0)
(0.00339725 -0.000238337 0)
(0.00379974 -0.000143357 0)
(0.00492009 -0.00023589 0)
(0.00116289 -0.00201512 0)
(0.000457978 -0.00232337 0)
(0.00335265 -0.000388825 0)
(0.000500388 -0.00254267 0)
(0.00124202 -0.00209172 0)
(0.00125111 -0.00206681 0)
(0.0037741 -0.00015004 0)
(0.00418505 -1.26392e-05 0)
(0.00418948 -1.45169e-05 0)
(0.00111205 -0.00204073 0)
(0.00415126 -7.46008e-05 0)
(0.0040225 -5.05817e-05 0)
(0.00356786 -0.000360552 0)
(0.00395315 -0.000455686 0)
(0.00304362 -0.000536601 0)
(0.00433577 -7.27042e-06 0)
(0.0030366 -0.000399284 0)
(0.000808618 -0.00189063 0)
(0.00438441 -0.000468483 0)
(0.00389986 -0.000158367 0)
(0.00336374 -0.000360816 0)
(0.00398144 -6.96285e-05 0)
(0.0037299 -0.000372075 0)
(0.00392299 -0.000136801 0)
(0.00309749 -0.000400176 0)
(0.00261646 -0.000819714 0)
(0.00520288 -6.01143e-06 0)
(0.00476756 -0.000436381 0)
(0.00207788 -0.00108242 0)
(0.00482311 -0.00025824 0)
(0.00413293 -7.95607e-05 0)
(0.00472322 -0.000147723 0)
(0.00472948 -0.000142138 0)
(0.00446752 -0.00014158 0)
(0.00282008 -0.000485938 0)
(0.00109773 -0.00177598 0)
(0.00419729 -0.000100832 0)
(0.00508539 -0.000146854 0)
(0.00503796 -0.00014032 0)
(0.00378505 -0.000396247 0)
(0.00302719 -0.000407347 0)
(0.0039681 -5.0143e-05 0)
(0.0044041 -0.000460533 0)
(0.00254969 -0.000658352 0)
(0.00459546 -2.73714e-05 0)
(0.00090348 -0.00218278 0)
(0.00479782 -7.15915e-05 0)
(0.00345629 -0.000379461 0)
(0.00401174 -4.28741e-05 0)
(0.00388899 -0.000125752 0)
(0.00146013 -0.00150253 0)
(0.00402823 -4.0177e-05 0)
(0.00495115 -1.41652e-05 0)
(0.00509829 -4.53055e-05 0)
(0.0051819 -4.10524e-05 0)
(0.00409768 -4.21514e-05 0)
(0.00408276 -0.0001065 0)
(0.00187076 -0.00105072 0)
(0.00412137 -3.8107e-05 0)
(0.00337816 -0.000562698 0)
(0.000685166 -0.00236734 0)
(0.000845176 -0.00227059 0)
(0.00451701 -0.000479547 0)
(0.0049909 -9.70074e-06 0)
(0.0038513 -0.000441387 0)
(0.00343645 -0.00024402 0)
(0.000575538 -0.00248109 0)
(0.000179664 -0.00280056 0)
(0.00445727 -2.73475e-06 0)
(0.00379633 -0.000157762 0)
(0.00382374 -0.00014989 0)
(0.00474711 -0.000293178 0)
(0.0031697 -0.000414413 0)
(0.002739 -0.000792343 0)
(0.00523781 -2.98327e-06 0)
(0.00480302 -0.000437461 0)
(0.000380049 -0.00263694 0)
(0.00355079 -0.00047475 0)
(0.00388116 -0.000180298 0)
(0.00478323 -0.000302724 0)
(0.00490644 -3.90165e-05 0)
(0.00368346 -0.000286306 0)
(0.00405095 -0.000137447 0)
(0.00410806 -2.64077e-05 0)
(0.00405868 -7.68203e-05 0)
(0.00415375 -6.13896e-05 0)
(0.00392339 -0.000174878 0)
(0.00408857 -6.80559e-05 0)
(0.0012887 -0.00195544 0)
(0.00294601 -0.000430473 0)
(0.00298785 -0.000410978 0)
(0.0041861 -4.25956e-05 0)
(0.00247265 -0.000694851 0)
(0.00397723 -0.000445352 0)
(0.00516297 -6.91947e-06 0)
(0.00472144 -0.000445329 0)
(0.000111331 -0.00283335 0)
(0.00337824 -0.000411738 0)
(0.00281508 -0.00048778 0)
(0.00352277 -0.000450027 0)
(0.0032955 -0.000277306 0)
(0.00210477 -0.000963498 0)
(0.0024828 -0.000680248 0)
(0.0033688 -0.000440247 0)
(0.00505202 -0.000120012 0)
(0.00393705 -0.000139434 0)
(0.00403573 -0.000117241 0)
(0.00235517 -0.000741273 0)
(4.8499e-05 -0.00269834 0)
(0.00403564 -2.24615e-05 0)
(0.00510564 -0.000131749 0)
(0.00507975 -0.0001251 0)
(0.0047077 -0.000310906 0)
(0.00357925 -0.000479045 0)
(0.00402682 -2.82882e-05 0)
(0.00410359 -6.87127e-05 0)
(0.000511228 -0.00251073 0)
(0.000657658 -0.00228428 0)
(0.00331205 -0.000266906 0)
(0.00331084 -0.000270298 0)
(0.00503738 -0.000166844 0)
(0.00278288 -0.000632224 0)
(0.00392284 -9.5514e-05 0)
(0.00472715 -0.000367079 0)
(0.0037909 -9.89565e-05 0)
(0.00358972 -0.000209912 0)
(0.00336047 -0.000407056 0)
(0.00220041 -0.00106447 0)
(0.00363366 -0.000192783 0)
(0.00508666 -5.00784e-05 0)
(0.00504468 -5.27102e-05 0)
(0.00121032 -0.00190204 0)
(0.00178026 -0.00112594 0)
(0.00378224 -9.89357e-05 0)
(0.00408101 -0.000111334 0)
(0.00132255 -0.0019147 0)
(0.00508616 -4.33313e-05 0)
(0.00407871 -2.0723e-05 0)
(0.00408764 -2.04009e-05 0)
(0.00421012 -0.000364241 0)
(0.00463718 -6.40593e-05 0)
(0.00416646 -6.17435e-05 0)
(0.00466976 -0.000117446 0)
(0.00527845 -9.31299e-06 0)
(0.00487682 -0.000385182 0)
(0.0041037 -3.43586e-05 0)
(0.00447109 -1.60201e-06 0)
(0.00299628 -0.000592821 0)
(0.0036654 -0.000148597 0)
(0.00429343 -2.3614e-05 0)
(0.0039718 -4.93183e-05 0)
(0.00419166 -1.03342e-05 0)
(0.0041396 -1.36704e-05 0)
(0.0041419 -1.13574e-05 0)
(0.00420033 -5.60719e-05 0)
(0.00419798 -0.000384169 0)
(0.00465388 -5.59532e-05 0)
(0.00360389 -0.000156021 0)
(0.00419109 -0.000361898 0)
(0.00461998 -6.47377e-05 0)
(0.00359167 -0.000218694 0)
(0.00357053 -0.000228908 0)
(0.000876698 -0.00183446 0)
(0.00398124 -0.000313192 0)
(0.00494178 -0.000228106 0)
(0.00418453 -5.70738e-05 0)
(0.00415988 -1.1271e-06 0)
(0.00449694 -0.000335393 0)
(0.00417931 -2.02768e-05 0)
(0.00373066 -0.000118349 0)
(0.0037551 -0.00011184 0)
(0.00337924 -0.000384801 0)
(0.00138826 -0.00204718 0)
(0.00483037 -0.000261941 0)
(0.00154872 -0.00126239 0)
(0.00154678 -0.00125996 0)
(0.00254221 -0.000711018 0)
(0.00393362 -5.89963e-05 0)
(0.00520605 -7.95793e-06 0)
(0.00477663 -0.000426883 0)
(0.00381847 -9.32539e-05 0)
(0.00265787 -0.000721839 0)
(0.00395314 -5.19006e-05 0)
(0.0028505 -0.00104125 0)
(0.00354604 -0.000360026 0)
(0.0041259 -0.000399722 0)
(0.00461889 -4.90267e-05 0)
(0.00253153 -0.000707679 0)
(0.00383738 -0.000146739 0)
(0.00526175 -1.11459e-05 0)
(0.00486058 -0.000384968 0)
(0.000722299 -0.00227236 0)
(0.00222677 -0.00103193 0)
(0.00442998 -1.49338e-05 0)
(0.00196859 -0.00119783 0)
(0.000415794 -0.00261772 0)
(0.00379756 -0.000134596 0)
(0.00488802 -4.14671e-05 0)
(0.00231444 -0.000766558 0)
(0.00399048 -5.02524e-05 0)
(0.00409452 -0.000277206 0)
(0.000395619 -0.00263481 0)
(0.00361636 -0.000472694 0)
(0.000641892 -0.00236699 0)
(0.00507375 -3.67672e-05 0)
(0.0017728 -0.00110573 0)
(0.00248083 -0.000669582 0)
(0.00262727 -0.000598332 0)
(0.00493818 -0.000153519 0)
(0.0010466 -0.00182136 0)
(0.00446195 -0.000331584 0)
(0.00397116 -0.000322309 0)
(0.00396291 -8.36714e-05 0)
(0.00411935 -0.000276254 0)
(0.00518074 -7.98587e-05 0)
(0.00397291 -7.11502e-05 0)
(0.00370594 -0.000274412 0)
(0.00137978 -0.00210308 0)
(0.00395448 -5.85342e-05 0)
(0.000821347 -0.00223911 0)
(0.0014915 -0.0014667 0)
(0.00375696 -0.00022961 0)
(0.0040873 -4.1227e-06 0)
(0.00303629 -0.000579633 0)
(0.00268317 -0.000579542 0)
(0.00402298 -0.000326029 0)
(0.00274609 -0.000812269 0)
(0.00103435 -0.00186558 0)
(0.00133428 -0.0020116 0)
(0.00471446 -0.000392338 0)
(0.00473998 -0.000386647 0)
(0.00405122 -2.76925e-05 0)
(0.00406324 -2.38991e-05 0)
(0.00018217 -0.00279279 0)
(0.0010132 -0.00186887 0)
(0.000728695 -0.00241204 0)
(0.00421804 -9.54175e-05 0)
(0.00494832 -0.000289661 0)
(0.00402031 -6.12824e-05 0)
(0.00386966 -0.000170364 0)
(0.00254853 -0.000675596 0)
(0.00343386 -0.000219737 0)
(0.00405822 -5.61623e-05 0)
(0.00394343 -6.38419e-05 0)
(0.000713914 -0.00220385 0)
(0.00386431 -0.000264794 0)
(0.00385794 -0.000273624 0)
(0.00251531 -0.000649077 0)
(0.00227406 -0.000805317 0)
(0.0014897 -0.00137988 0)
(0.00147993 -0.0015512 0)
(0.00474745 -0.000363439 0)
(0.00385868 -0.00013232 0)
(0.00227251 -0.00080175 0)
(0.00152209 -0.0015029 0)
(0.00313228 -0.000415722 0)
(0.00317253 -0.000404055 0)
(0.00469132 -0.000112046 0)
(0.00499158 -5.56403e-05 0)
(0.0005888 -0.002473 0)
(0.00379239 -0.000163583 0)
(0.00444403 -0.000167439 0)
(0.00500897 -0.000207361 0)
(0.00431266 -0.000181162 0)
(0.00416891 -4.31993e-05 0)
(0.00450623 -0.000178336 0)
(0.00378419 -0.000105288 0)
(0.00295771 -0.000564454 0)
(0.00430234 -0.000409919 0)
(0.00195715 -0.00140818 0)
(0.00286375 -0.00108199 0)
(0.00130296 -0.00207512 0)
(0.00381126 -0.000134672 0)
(0.00491087 -0.000384545 0)
(0.00531191 -5.78987e-06 0)
(0.00504769 -4.93133e-05 0)
(0.00380417 -9.44413e-05 0)
(0.00426 -0.000123438 0)
(0.00426655 -0.00020359 0)
(0.00417814 -0.000214505 0)
(0.00252265 -0.000987561 0)
(0.00403883 -2.70277e-05 0)
(0.00430635 -0.000121452 0)
(0.00432461 -0.000124249 0)
(0.00509739 -7.50059e-05 0)
(0.00402759 -0.000142081 0)
(0.00371811 -0.000438847 0)
(0.00456035 -0.000139641 0)
(0.00454113 -0.000145377 0)
(0.00507471 -0.000113315 0)
(0.00406584 -1.66462e-05 0)
(0.00394258 -0.000105997 0)
(0.00341923 -0.000223729 0)
(0.000544379 -0.0024811 0)
(0.00406609 -5.22268e-05 0)
(0.00323726 -0.000353636 0)
(0.00491264 -0.000158403 0)
(0.00371301 -0.000126063 0)
(0.0043712 -0.000125943 0)
(0.00339762 -0.000284814 0)
(0.000218788 -0.00276758 0)
(0.00368877 -0.000134665 0)
(0.000533794 -0.00242331 0)
(0.000856018 -0.00218274 0)
(0.00388288 -0.000107502 0)
(0.00486573 -0.00012964 0)
(0.00486079 -0.000126127 0)
(0.0030693 -0.000385676 0)
(0.00340966 -0.000362438 0)
(0.00385883 -9.10651e-05 0)
(0.00346005 -0.000299712 0)
(0.00499511 -0.000162166 0)
(0.00497485 -0.000169141 0)
(0.00217232 -0.00093634 0)
(0.0020559 -0.000926013 0)
(0.00325572 -0.000352098 0)
(0.00512311 -4.2408e-05 0)
(0.00371081 -0.000367181 0)
(0.00477927 -3.15456e-05 0)
(0.00298135 -0.00090384 0)
(0.00387656 -0.000115498 0)
(0.00261643 -0.000761744 0)
(0.00431658 -0.000491865 0)
(0.00482846 -1.3446e-05 0)
(0.00434346 -0.000485523 0)
(0.00484707 -1.48e-05 0)
(0.00302731 -0.000857045 0)
(0.00371896 -0.000160223 0)
(0.00120827 -0.00194344 0)
(0.00446072 -0.00026342 0)
(0.00471147 -0.00024169 0)
(0.00393038 -0.000112323 0)
(0.0049242 -0.000385298 0)
(0.00532538 -4.44725e-06 0)
(0.00447225 -9.53382e-05 0)
(0.00171709 -0.00148348 0)
(0.00113851 -0.00200266 0)
(0.00103409 -0.00210266 0)
(0.00468988 -0.000107511 0)
(0.00319251 -0.000884947 0)
(0.00417234 -7.1923e-05 0)
(0.00395055 -7.91442e-05 0)
(0.000710696 -0.00229498 0)
(0.00323476 -0.00082485 0)
(0.00393718 -8.44155e-05 0)
(0.00428168 -2.31373e-05 0)
(0.00517507 -4.84533e-05 0)
(0.000904532 -0.00228127 0)
(0.00403218 -2.02427e-05 0)
(0.00470042 -5.60915e-05 0)
(0.00432329 -4.69117e-05 0)
(0.00263377 -0.000611777 0)
(0.00262445 -0.000634734 0)
(0.00515561 -9.88917e-06 0)
(0.00513331 -1.21106e-05 0)
(0.00469572 -0.000436838 0)
(0.00471881 -0.000436649 0)
(0.00437103 -0.000222683 0)
(0.00333209 -0.000260506 0)
(0.0041835 -2.40234e-05 0)
(0.00419055 -2.5881e-05 0)
(8.54103e-05 -0.00266689 0)
(0.00252584 -0.000681147 0)
(0.00351956 -0.000315519 0)
(0.00425765 -0.000384937 0)
(0.00379704 -0.000357043 0)
(0.0050913 -3.64927e-05 0)
(0.000649957 -0.00227764 0)
(0.00444114 -1.91423e-05 0)
(0.00521901 -3.1454e-06 0)
(0.0047808 -0.000442909 0)
(0.00200319 -0.00131058 0)
(0.00263342 -0.000598351 0)
(0.00418772 -3.53283e-05 0)
(0.00179151 -0.00111187 0)
(0.00380683 -0.000176835 0)
(0.000313625 -0.00270605 0)
(0.00292413 -0.000473117 0)
(0.00454043 -0.000237078 0)
(0.0045507 -0.000229775 0)
(0.000749424 -0.00226561 0)
(0.00204759 -0.00125047 0)
(0.000523232 -0.00252448 0)
(0.0039417 -0.000256776 0)
(0.00294903 -0.000458441 0)
(0.00199756 -0.000961616 0)
(0.00197503 -0.000977534 0)
(0.00157754 -0.00123326 0)
(0.00385506 -0.000430974 0)
(0.0050304 -8.79872e-05 0)
(0.00246003 -0.000679703 0)
(0.0035305 -0.000478769 0)
(0.00275357 -0.0005417 0)
(0.000556915 -0.00249418 0)
(0.00390033 -0.00021373 0)
(0.00390672 -0.00015809 0)
(0.00426484 -0.000134557 0)
(0.004086 -7.38683e-06 0)
(0.000294135 -0.00272187 0)
(0.00340218 -0.00026504 0)
(0.00264114 -0.000596596 0)
(0.000150394 -0.00281971 0)
(0.00423961 -0.000156518 0)
(0.00359634 -0.000157457 0)
(0.00343771 -0.000404655 0)
(0.0040386 -2.76305e-05 0)
(0.00430589 -4.99012e-05 0)
(0.00523635 -3.54897e-05 0)
(0.00101345 -0.00226207 0)
(0.00423611 -0.000125503 0)
(0.00421541 -0.00033251 0)
(0.00459338 -7.82983e-05 0)
(0.00372637 -0.000522815 0)
(0.00518526 -5.73505e-05 0)
(0.00307822 -0.000427672 0)
(0.00397966 -4.60947e-05 0)
(0.00202268 -0.000945089 0)
(0.00163021 -0.00156868 0)
(0.00207713 -0.000910422 0)
(0.00212687 -0.000964401 0)
(0.000834756 -0.00191035 0)
(0.00393448 -6.77776e-05 0)
(0.00476462 -2.99917e-05 0)
(0.0037921 -0.000207615 0)
(0.00372979 -0.000413929 0)
(0.00129271 -0.00159712 0)
(0.00182781 -0.00126282 0)
(0.00506386 -5.36235e-05 0)
(0.00498883 -0.000215661 0)
(0.0023317 -0.00086519 0)
(0.00470096 -0.000389603 0)
(0.00186209 -0.00111032 0)
(0.00368135 -0.00029495 0)
(0.00389097 -6.91884e-05 0)
(0.00441316 -6.69616e-05 0)
(0.00388325 -0.000121742 0)
(0.00446621 -0.000269741 0)
(0.00511729 -1.11801e-05 0)
(0.00467433 -0.000444839 0)
(0.00464485 -0.000232835 0)
(0.00359391 -0.000381209 0)
(0.00139731 -0.00140046 0)
(0.00316367 -0.000531036 0)
(0.00313484 -0.000547353 0)
(0.00430371 -2.4113e-06 0)
(0.00418517 -7.88488e-05 0)
(0.00370384 -0.000296328 0)
(0.00431976 -4.31757e-05 0)
(0.00247229 -0.00100467 0)
(0.000525681 -0.00252355 0)
(0.00178626 -0.00128816 0)
(0.00155734 -0.00124804 0)
(0.00410529 -8.20232e-06 0)
(0.00362026 -0.000342455 0)
(0.00440345 -7.23867e-05 0)
(0.00483681 -0.000249045 0)
(0.00521959 -2.34588e-05 0)
(0.0051969 -2.67967e-05 0)
(0.00482363 -0.000353091 0)
(0.004846 -0.000352618 0)
(0.00494911 -0.000147599 0)
(0.00410358 -9.92193e-06 0)
(0.000489443 -0.0024673 0)
(0.00381496 -0.000204437 0)
(0.00495762 -0.000128561 0)
(0.00370976 -0.00015553 0)
(0.00370837 -0.000124955 0)
(0.00402645 -2.04669e-05 0)
(0.00387109 -0.000219233 0)
(0.00173909 -0.00115641 0)
(0.00465884 -0.000307909 0)
(0.00036872 -0.00261105 0)
(0.00374546 -0.000138727 0)
(0.000437877 -0.00250423 0)
(0.00373041 -0.000457733 0)
(0.00408202 -4.22049e-05 0)
(0.00429657 -0.000399593 0)
(0.00362324 -0.000396202 0)
(0.0041118 -0.000409814 0)
(0.00461961 -4.49432e-05 0)
(0.00316637 -0.000359404 0)
(0.00435646 -0.00010928 0)
(0.00405921 -1.34357e-05 0)
(0.00384486 -0.000181111 0)
(0.00391378 -6.45935e-05 0)
(0.00475654 -0.000377486 0)
(0.00394012 -5.56015e-05 0)
(0.00405777 -1.28474e-05 0)
(0.000274102 -0.00273651 0)
(0.00395545 -5.16977e-05 0)
(0.00263052 -0.00060818 0)
(0.000268374 -0.00274764 0)
(0.00395342 -0.0002352 0)
(0.00397827 -0.00023317 0)
(0.00140762 -0.00161197 0)
(0.00208698 -0.00106265 0)
(0.00275651 -0.000526931 0)
(0.00276167 -0.000528157 0)
(0.00521722 -4.25016e-05 0)
(0.00521577 -4.11838e-05 0)
(0.00392728 -0.000103706 0)
(0.00197341 -0.001094 0)
(0.00334686 -0.000322465 0)
(0.000711896 -0.00233347 0)
(0.00438113 -7.5092e-05 0)
(0.00338309 -0.000302614 0)
(0.00408153 -3.70726e-06 0)
(0.000370726 -0.00259889 0)
(0.00138662 -0.00161569 0)
(0.0042746 -0.000399457 0)
(0.00453216 -2.26495e-05 0)
(0.00404758 -2.13955e-05 0)
(0.00404886 -6.53743e-05 0)
(0.00408758 -3.72273e-05 0)
(0.00333615 -0.000363569 0)
(0.00181732 -0.00152427 0)
(0.00452318 -0.000331918 0)
(0.00517699 -7.87509e-05 0)
(0.00186264 -0.00132482 0)
(0.00404866 -6.28455e-05 0)
(0.00182551 -0.00133854 0)
(0.00305561 -0.000489844 0)
(0.00178052 -0.00111032 0)
(0.00451109 -0.000408864 0)
(0.00403544 -0.000312649 0)
(0.00314271 -0.000356714 0)
(0.0045128 -7.51028e-06 0)
(0.00309401 -0.000354776 0)
(0.00182965 -0.00108532 0)
(0.00185993 -0.00106093 0)
(0.00178697 -0.00109832 0)
(0.00445298 -9.9211e-05 0)
(0.00423768 -2.52337e-05 0)
(0.00404556 -0.000288047 0)
(0.00489262 -0.000130968 0)
(0.00221043 -0.000878829 0)
(0.00224714 -0.000810763 0)
(0.00202525 -0.00124105 0)
(0.00223389 -0.000817371 0)
(0.00196291 -0.000983647 0)
(0.00487646 -7.43224e-05 0)
(0.000199509 -0.00280447 0)
(0.00195993 -0.00128116 0)
(0.00334559 -0.000501054 0)
(0.00368921 -0.000165814 0)
(0.00319822 -0.000521341 0)
(0.000137576 -0.00249458 0)
(0.00401271 -3.78195e-05 0)
(0.00422004 -0.000198855 0)
(0.00251583 -0.000686179 0)
(0.00391654 -6.21402e-05 0)
(0.00296854 -0.000412906 0)
(0.000995731 -0.00227686 0)
(0.00337656 -0.000530583 0)
(0.0039564 -0.000414564 0)
(0.00452236 -4.06852e-05 0)
(0.00430319 -0.000483293 0)
(0.00481383 -1.70085e-05 0)
(0.00368499 -0.00013123 0)
(0.00327069 -0.00052846 0)
(0.000258324 -0.00274499 0)
(0.00309638 -0.000378296 0)
(0.00530831 -1.24161e-05 0)
(0.00495119 -0.000327297 0)
(0.00416811 -3.15662e-05 0)
(0.00109037 -0.00199083 0)
(0.00510814 -2.84735e-05 0)
(0.00100303 -0.00177919 0)
(0.00160876 -0.001623 0)
(0.00492167 -3.2008e-05 0)
(0.00297365 -0.000718095 0)
(0.00428278 -0.000483995 0)
(0.00479822 -1.73532e-05 0)
(0.00384906 -0.000476417 0)
(0.00387111 -0.000480903 0)
(0.00103927 -0.00197355 0)
(0.00334617 -0.000374542 0)
(0.00463651 -0.00024011 0)
(0.000886938 -0.0023282 0)
(0.00306699 -0.000395694 0)
(0.0010397 -0.00203036 0)
(0.000892001 -0.00179358 0)
(0.000797131 -0.001954 0)
(0.00104451 -0.00195353 0)
(0.00430591 -0.000175705 0)
(0.00296011 -0.000702646 0)
(0.00511607 -3.04701e-05 0)
(0.00258698 -0.000608858 0)
(0.000686646 -0.00243175 0)
(0.00444426 -0.000161766 0)
(0.00383368 -8.62069e-05 0)
(0.00452664 -0.000250516 0)
(0.00453036 -0.000255612 0)
(0.00384423 -8.42496e-05 0)
(0.00416968 -3.31098e-05 0)
(0.00482376 -0.000284262 0)
(0.00244577 -0.000687994 0)
(0.00255501 -0.000641831 0)
(0.0025976 -0.000621209 0)
(0.00413087 -3.47749e-05 0)
(0.00258885 -0.000656421 0)
(0.00479689 -7.5998e-05 0)
(0.00322611 -0.000537384 0)
(0.00390204 -0.000472977 0)
(0.0016253 -0.0014245 0)
(0.00458577 -2.43126e-05 0)
(0.00443346 -2.51777e-05 0)
(0.00212047 -0.00088382 0)
(0.00504846 -0.000114891 0)
(0.0021723 -0.00114669 0)
(0.000237821 -0.00264999 0)
(0.00158667 -0.00144719 0)
(0.00463002 -0.000417035 0)
(0.00507426 -2.6659e-05 0)
(0.00490745 -3.44564e-05 0)
(0.00420327 -5.95325e-05 0)
(0.00224476 -0.00133124 0)
(0.00383792 -8.95042e-05 0)
(0.0050042 -0.000104638 0)
(0.00500114 -0.000102113 0)
(0.00501579 -9.3258e-05 0)
(0.000238639 -0.00277349 0)
(0.00443392 -5.63068e-05 0)
(0.00451911 -0.000388226 0)
(0.00448094 -0.000143891 0)
(0.00447646 -0.000135955 0)
(0.00367243 -0.000276033 0)
(0.0028061 -0.000616174 0)
(0.00218424 -0.00133633 0)
(0.000504515 -0.00247263 0)
(0.000580181 -0.0022736 0)
(0.00422192 -0.000117449 0)
(0.00477109 -0.000349734 0)
(0.00478861 -0.000349787 0)
(0.00158726 -0.00162279 0)
(0.00437641 -0.000228035 0)
(0.000592148 -0.002239 0)
(0.00445388 -1.79204e-05 0)
(0.00443103 -3.25763e-05 0)
(0.00444661 -3.12581e-05 0)
(0.00436313 -2.51924e-05 0)
(2.90147e-05 -0.00291052 0)
(0.00401422 -0.000307305 0)
(0.000721167 -0.00230393 0)
(0.00402661 -3.52969e-05 0)
(0.0029867 -0.00056112 0)
(0.00441865 -0.000138356 0)
(0.00348728 -0.000435641 0)
(0.00423216 -4.6454e-05 0)
(0.00491383 -0.000114189 0)
(0.00429677 -2.59431e-05 0)
(0.00278488 -0.000527062 0)
(0.00343142 -0.000226345 0)
(0.00118996 -0.00182963 0)
(0.00503968 -0.000121124 0)
(0.00329817 -0.000310671 0)
(0.00520168 -5.36195e-05 0)
(0.00476333 -2.45564e-05 0)
(0.00435113 -1.68285e-05 0)
(0.00436339 -1.68701e-05 0)
(0.000550322 -0.00250678 0)
(0.0051607 -1.93559e-05 0)
(0.0023029 -0.00089288 0)
(0.0041621 -1.62893e-05 0)
(0.0048387 -0.000307434 0)
(0.00407115 -0.000287643 0)
(0.00466237 -0.000362758 0)
(0.00402465 -1.8799e-05 0)
(0.00436127 -2.78389e-05 0)
(0.00197212 -0.00104827 0)
(0.00256967 -0.00153706 0)
(0.00410048 -0.000120545 0)
(0.00371589 -0.000385314 0)
(0.00400623 -3.77248e-05 0)
(0.00388601 -7.62594e-05 0)
(0.00342836 -0.000350949 0)
(0.00519499 -4.14122e-05 0)
(0.00469286 -0.000255258 0)
(0.00470722 -0.000256945 0)
(0.00362416 -0.000384913 0)
(0.00452274 -0.000462712 0)
(0.00336771 -0.000291275 0)
(0.000458735 -0.00240571 0)
(0.00397314 -0.000190493 0)
(0.00302953 -0.000505053 0)
(0.00312597 -0.000539414 0)
(0.00298765 -0.000407161 0)
(0.0040899 -0.000117791 0)
(0.00460627 -0.000159895 0)
(0.00305757 -0.000727482 0)
(0.00398296 -7.07467e-05 0)
(0.0042101 -7.65667e-05 0)
(0.0027915 -0.000797679 0)
(0.00374696 -0.000151696 0)
(0.00398048 -7.4336e-05 0)
(0.00390948 -0.000183366 0)
(0.00391841 -0.000478448 0)
(0.00123926 -0.00203816 0)
(0.00477055 -0.000300122 0)
(0.00479878 -0.000252643 0)
(0.00459758 -0.000175354 0)
(0.00439363 -0.000238097 0)
(0.0036724 -0.000562972 0)
(0.00318557 -0.000315494 0)
(0.00315261 -0.000329715 0)
(0.00212388 -0.00120319 0)
(0.000510125 -0.00227117 0)
(0.0048355 -0.000323053 0)
(0.00268536 -0.000596951 0)
(0.00210487 -0.000894412 0)
(0.00271919 -0.000571246 0)
(0.00340516 -0.000497561 0)
(0.00443595 -6.43177e-05 0)
(0.00444937 -6.73163e-05 0)
(0.00336067 -0.000519289 0)
(0.0040151 -8.19431e-05 0)
(0.00401818 -7.76465e-05 0)
(0.00451435 -0.000146661 0)
(0.00450702 -0.000141556 0)
(0.00418443 -5.50755e-06 0)
(0.004195 -5.62569e-06 0)
(0.00365648 -0.000445952 0)
(0.00391271 -7.17305e-05 0)
(0.00490125 -0.000165097 0)
(0.00406247 -1.59209e-05 0)
(0.00381669 -0.000150806 0)
(0.00378832 -0.000107567 0)
(0.00403257 -3.48111e-05 0)
(0.00479637 -5.10265e-05 0)
(0.00358246 -0.000251784 0)
(0.00361669 -0.000247347 0)
(0.00417055 -8.37148e-05 0)
(0.0039251 -0.000394187 0)
(0.0044793 -4.64671e-05 0)
(0.00365866 -0.000153584 0)
(0.00385802 -7.77033e-05 0)
(0.00371701 -0.00014909 0)
(0.00390261 -0.000230032 0)
(0.00374792 -0.000142745 0)
(0.00387548 -0.000236154 0)
(0.000788109 -0.00227788 0)
(0.00397548 -0.00043286 0)
(0.00455251 -3.52066e-05 0)
(0.0010329 -0.00178909 0)
(0.00376149 -0.000407611 0)
(0.00451785 -0.000172064 0)
(0.00478504 -4.68733e-05 0)
(0.0042929 -1.27697e-06 0)
(0.00485409 -7.6893e-05 0)
(0.00329038 -0.000501944 0)
(0.00330024 -0.000510158 0)
(0.00267912 -0.000560857 0)
(0.00334435 -0.00057066 0)
(0.00356416 -0.000227961 0)
(0.00359488 -0.000180806 0)
(0.00406982 -4.77852e-06 0)
(0.00467485 -8.10045e-05 0)
(0.00261385 -0.000899927 0)
(0.000466771 -0.00188568 0)
(0.0030803 -0.000689757 0)
(0.00508451 -2.29414e-05 0)
(0.00272231 -0.000537705 0)
(0.00277993 -0.000754616 0)
(0.00484447 -8.31138e-05 0)
(0.00483227 -0.00030324 0)
(0.0031764 -0.000517445 0)
(0.00408996 -0.000269135 0)
(0.000618488 -0.00238107 0)
(0.00183757 -0.00148379 0)
(0.0039429 -9.85194e-05 0)
(0.0046601 -0.000127218 0)
(0.00299593 -0.000515427 0)
(0.00066672 -0.00230926 0)
(0.00284253 -0.0012863 0)
(0.00445337 -5.21646e-06 0)
(0.00349684 -0.00044352 0)
(0.00264197 -0.00130589 0)
(0.00323595 -0.00033549 0)
(6.64178e-05 -0.00255892 0)
(0.00392265 -0.000105174 0)
(0.00408333 -0.000296472 0)
(0.00214412 -0.00088246 0)
(0.00218984 -0.000877135 0)
(0.00223675 -0.000852674 0)
(0.00503126 -0.000117024 0)
(0.00407435 -0.00013611 0)
(0.00377561 -0.000189795 0)
(0.00266388 -0.00124878 0)
(0.00407029 -1.87059e-05 0)
(0.00459598 -0.000436169 0)
(0.00249334 -0.000705926 0)
(0.00458114 -3.80837e-05 0)
(0.0040331 -0.000425591 0)
(0.00385513 -0.000327335 0)
(0.00465352 -0.000315413 0)
(0.000598643 -0.00187147 0)
(0.0032552 -0.000560231 0)
(0.00336608 -0.000486798 0)
(0.00277251 -0.000581624 0)
(0.00278906 -0.000583687 0)
(0.000558859 -0.00242363 0)
(0.00466589 -0.000341703 0)
(0.000464432 -0.00257367 0)
(0.00388226 -7.17741e-05 0)
(0.00459095 -0.000142851 0)
(0.00387433 -0.000223633 0)
(0.00516115 -2.16066e-05 0)
(0.00390627 -6.41087e-05 0)
(0.00353543 -0.000202077 0)
(0.00381686 -0.000109243 0)
(0.00350884 -0.000211749 0)
(0.00425376 -8.4639e-05 0)
(0.00305087 -0.000374595 0)
(0.00470382 -9.19709e-05 0)
(0.00468678 -8.95467e-05 0)
(1.69238e-05 -0.00293324 0)
(0.00388395 -8.29141e-05 0)
(0.00329157 -0.000534839 0)
(0.00243063 -0.000791375 0)
(0.00249456 -0.000750523 0)
(0.00188846 -0.00103101 0)
(0.00370482 -0.000136632 0)
(0.00352847 -0.000365302 0)
(0.00357941 -0.000165244 0)
(0.00366754 -0.000319191 0)
(0.00335874 -0.000461141 0)
(0.0034964 -0.00020566 0)
(0.00109507 -0.00222067 0)
(0.00190841 -0.00142475 0)
(0.00316949 -0.000564387 0)
(0.0037019 -0.000556988 0)
(0.0014669 -0.00175846 0)
(0.000627976 -0.00239164 0)
(0.00201656 -0.00101849 0)
(0.00312815 -0.000419455 0)
(0.00268692 -0.000590445 0)
(0.00405205 -1.97942e-05 0)
(0.00119576 -0.00190199 0)
(0.00240231 -0.000912532 0)
(0.00374076 -0.000126831 0)
(0.00190479 -0.00159238 0)
(0.00351989 -0.000196192 0)
(0.00430712 -0.000502772 0)
(0.00482518 -9.65051e-06 0)
(0.00186315 -0.00163437 0)
(0.00328512 -0.000495882 0)
(0.00195779 -0.00109422 0)
(0.00399448 -0.000200348 0)
(0.00400039 -0.000205455 0)
(0.000282782 -0.00269972 0)
(0.00511615 -7.23892e-05 0)
(0.003701 -0.000534217 0)
(0.00434922 -0.000395796 0)
(0.00512147 -4.80665e-05 0)
(0.000610388 -0.00242389 0)
(0.00393432 -0.000411333 0)
(0.00450435 -4.13134e-05 0)
(0.000870139 -0.00225933 0)
(0.00024111 -0.00272152 0)
(0.00396615 -0.00020391 0)
(0.00436189 -0.00046621 0)
(0.00484974 -2.1793e-05 0)
(0.00338156 -0.000255987 0)
(0.00428887 -1.62081e-05 0)
(0.00119467 -0.00218793 0)
(0.000126291 -0.00286588 0)
(0.0043403 -1.49717e-06 0)
(0.00433662 -0.000109894 0)
(0.00389989 -7.64451e-05 0)
(0.00108254 -0.00174873 0)
(0.000229735 -0.00268094 0)
(0.00222574 -0.000839796 0)
(0.00393124 -7.22476e-05 0)
(0.00217613 -0.000870232 0)
(0.0050248 -8.60256e-05 0)
(0.00508518 -0.000137231 0)
(0.000281842 -0.00248675 0)
(0.00319728 -0.000350298 0)
(0.00445329 -7.46573e-05 0)
(0.00473316 -0.00030353 0)
(0.000984498 -0.0021526 0)
(0.00458795 -0.00016546 0)
(0.00392458 -0.000121003 0)
(0.00424811 -0.000409565 0)
(0.00472031 -4.59041e-05 0)
(0.00371614 -0.000130624 0)
(0.00458566 -0.000138072 0)
(0.00410528 -0.000365138 0)
(0.00456325 -6.13063e-05 0)
(0.00368861 -0.000136171 0)
(0.00444332 -0.000342687 0)
(0.00338171 -0.000235303 0)
(0.00335198 -0.000246516 0)