/*--------------------------------*- C++ -*----------------------------------*\
| =========                 |                                                 |
| \\      /  F ield         | OpenFOAM: The Open Source CFD Toolbox           |
|  \\    /   O peration     | Version:  v2012                                 |
|   \\  /    A nd           | Website:  www.openfoam.com                      |
|    \\/     M anipulation  |                                                 |
\*---------------------------------------------------------------------------*/
FoamFile
{
    version     2.0;
    format      ascii;
    class       volScalarField;
    location    "10";
    object      epsilonEq;
}
// * * * * * * * * * * * * * * * * * * * * * * * * * * * * * * * * * * * * * //

dimensions      [0 0 0 0 0 0 0];


internalField   nonuniform List<scalar> 
7666
(
0.000426072
0.00118333
0.00413109
0.0015415
0.00230416
0.00262454
0.0012917
0.00158611
0.00308834
0.00123826
0.00115008
0.0015268
0.00154829
0.00134472
0.00122118
0.00223677
0.00155334
0.00277445
0.00163962
0.0011591
0.000847346
0.00207916
0.00140527
0.00150088
0.00266963
0.00120885
0.00267049
0.0010556
0.00153925
0.0014726
0.00152295
0.00270164
0.0008376
0.00143293
0.000885751
0.00109175
0.00105782
0.00150408
0.00253723
0.00125946
0.00184977
0.00407413
0.00324589
0.00130024
0.00293884
0.00126522
0.00278761
0.00180983
0.00209166
0.000614043
0.00103033
0.00202023
0.00131727
0.00309393
0.000723572
0.00227028
0.000661299
0.000662671
0.0027117
0.00265483
0.000848094
0.001493
0.00145562
0.00147718
0.000720526
0.00206487
0.00116462
0.000689475
0.00255708
0.00268113
0.00261728
0.00106005
0.00105309
0.00146341
0.00146863
0.00130028
0.00229844
0.00135037
0.00138073
0.00089892
0.00135005
0.00111663
0.00163291
0.00325566
0.00161045
0.00191664
0.00192171
0.00208121
0.00201381
0.00149994
0.00139788
0.00139304
0.00206529
0.00283941
0.00290426
0.00226727
0.000982532
0.00604188
0.00163896
0.00115296
0.0020899
0.00147645
0.000966526
0.00345787
0.00136538
0.00249418
0.00347762
0.00227761
0.00128674
0.0020373
0.00138902
0.00212265
0.00119813
0.000844538
0.001096
0.00241571
0.00103551
0.00110317
0.0015244
0.00152965
0.0028216
0.00145652
0.00146471
0.00121118
0.00148012
0.000582489
0.00226812
0.00200652
0.00172525
0.00147664
0.00216828
0.00175971
0.00100613
0.00212283
0.00146877
0.00245525
0.00133839
0.00127437
0.00135473
0.0014361
0.00172887
0.00110626
0.00108485
0.00108228
0.0011615
0.00126299
0.00127952
0.00110178
0.000562274
0.00160025
0.0012383
0.00203477
0.000905169
0.00170425
0.00111
0.00111148
0.00181762
0.00183713
0.00155987
0.00138882
0.00332158
0.00223495
0.00205486
0.00400643
0.00339236
0.00310519
0.00156739
0.000623957
0.000681622
0.00362791
0.00119249
0.00106422
0.00193464
0.00179552
0.00204296
0.000731002
0.00213137
0.00275616
0.00158089
0.00154999
0.00202238
0.00111368
0.00187032
0.00102122
0.00206984
0.00236976
0.00105217
0.00146944
0.00267338
0.00140382
0.00121695
0.00130163
0.0012922
0.00133114
0.00225039
0.00281723
0.00128696
0.0013121
0.00127724
0.00165748
0.00216543
0.00103066
0.00156995
0.00249295
0.000982358
0.00376906
0.00114821
0.00150015
0.000964202
0.000959794
0.00279873
0.000932769
0.0010829
0.00111948
0.00109367
0.000979615
0.00134116
0.00272214
0.000957842
0.00220551
0.00337502
0.00395478
0.00151119
0.00108692
0.00183967
0.00186899
0.00343724
0.00224349
0.000830329
0.00158946
0.0015707
0.0014352
0.00194116
0.00214636
0.0010399
0.00146661
0.00312425
0.00201822
0.00103351
0.00143896
0.00110347
0.00183574
0.00145259
0.000784395
0.00123772
0.00112083
0.00180984
0.00118768
0.0030453
0.00218413
0.00215929
0.000972757
0.00242059
0.00177689
0.00107203
0.00147172
0.00219319
0.00204949
0.00223365
0.00124168
0.00186822
0.00261023
0.00250262
0.00210181
0.00123942
0.00180496
0.0014018
0.00251041
0.0047373
0.000514483
0.00129237
0.00126285
0.00145177
0.00199798
0.000515986
0.00116229
0.002692
0.00261579
0.00192334
0.00191334
0.00132315
0.00252201
0.0013543
0.0014686
0.00128178
0.00148259
0.00208389
0.00260182
0.00145735
0.00112052
0.00112794
0.00317689
0.00274753
0.00133748
0.0013724
0.0030278
0.00110727
0.000660321
0.000642624
0.00165016
0.00110577
0.00111401
0.00124856
0.00102387
0.0014714
0.000910061
0.000836129
0.00206083
0.00160057
0.000804772
0.000820632
0.000620565
0.000616961
0.000555471
0.00107731
0.00166584
0.00107992
0.0015442
0.00165679
0.00110966
0.0017644
0.00180955
0.00282945
0.00171982
0.00138257
0.00108873
0.000480435
0.00152325
0.000747073
0.00138478
0.00131653
0.00204526
0.00696702
0.00140261
0.00296993
0.0030233
0.00242527
0.000965235
0.00106054
0.00147321
0.00134257
0.00235821
0.000897713
0.0013393
0.0019497
0.00168952
0.00106111
0.00241654
0.00101211
0.00103423
0.00146992
0.00296529
0.00260186
0.000834222
0.00269219
0.00279692
0.00154093
0.00110199
0.00249473
0.0011707
0.00164041
0.00260037
0.00199459
0.00292073
0.00111144
0.00291752
0.0024137
0.0024099
0.00128291
0.00278534
0.00153259
0.00173557
0.00160988
0.00163852
0.00120288
0.00136878
0.00179562
0.00367443
0.0007987
0.00363406
0.00279018
0.00112751
0.000375667
0.00195661
0.00236811
0.00171542
0.00218975
0.002837
0.00307343
0.00147921
0.00147914
0.000724357
0.000672448
0.00244607
0.00281655
0.00493389
0.00126399
0.00144653
0.00114642
0.000991741
0.00253508
0.00179641
0.00111703
0.000858188
0.00971404
0.00172684
0.00174918
0.00241998
0.00252837
0.00278082
0.00284951
0.00147492
0.0010226
0.00250522
0.00283429
0.00213447
0.00213923
0.00124143
0.0011383
0.00372751
0.00110799
0.00138992
0.00138183
0.00144833
0.000996042
0.00138796
0.00127185
0.00237938
0.00161461
0.00262687
0.00136806
0.00839868
0.0015177
0.00147415
0.00100228
0.00112482
0.00123095
0.00134823
0.0015026
0.00154398
0.00223749
0.000629886
0.00133075
0.00131835
0.00116441
0.00146352
0.00139944
0.00131557
0.00132358
0.00122688
0.000485213
0.00092027
0.00182408
0.00286378
0.00105519
0.00206117
0.00129514
0.00149257
0.00131688
0.00192848
0.00247881
0.00154561
0.00781256
0.0033969
0.000913302
0.0012588
0.0012533
0.00212427
0.00202159
0.00104065
0.00191767
0.00130585
0.00130826
0.00257559
0.00264002
0.00203568
0.00110209
0.00188633
0.00105473
0.00138642
0.00100272
0.00235741
0.0015988
0.00105604
0.00158599
0.00106111
0.0014567
0.00162568
0.00322073
0.00149759
0.00141006
0.00140943
0.00147321
0.000998475
0.00121602
0.00284439
0.00335123
0.00379468
0.00122358
0.000818253
0.00118437
0.00125395
0.00291117
0.00102517
0.00131007
0.000824247
0.00110778
0.00717443
0.000517927
0.00109799
0.00100812
0.00242593
0.00248704
0.00107014
0.00107797
0.00147932
0.00147893
0.00149162
0.00187469
0.000801512
0.000814006
0.0052629
0.00241801
0.00148678
0.00163347
0.00149371
0.00110115
0.00925158
0.000868784
0.00105801
0.00146701
0.00265992
0.00238833
0.000928693
0.0027178
0.00107488
0.0023338
0.00225021
0.00144926
0.00143737
0.00315435
0.00267111
0.00313447
0.00168958
0.00221506
0.00272921
0.00281754
0.00312981
0.00183669
0.00118796
0.0024411
0.00126759
0.00229667
0.00329539
0.00166356
0.00106085
0.00137398
0.000447554
0.00213167
0.00189801
0.00236392
0.00226239
0.00143139
0.00156995
0.00154253
0.000671752
0.00101291
0.00107822
0.00581972
0.00135537
0.00163359
0.00114712
0.00194382
0.00112905
0.00204368
0.000761323
0.00270214
0.00287918
0.00271083
0.00260875
0.00270694
0.00119814
0.00105626
0.00114608
0.0018822
0.00280241
0.00273659
0.00113091
0.00138281
0.00253589
0.00147996
0.00268164
0.00184116
0.0011648
0.00110221
0.000973063
0.00149982
0.001083
0.00148668
0.00141648
0.00125118
0.00285178
0.00224347
0.00228998
0.000671115
0.00120165
0.00182146
0.000966853
0.00235422
0.00333922
0.00277615
0.00315507
0.000450915
0.00127376
0.00114087
0.00139521
0.00106106
0.00107581
0.0014589
0.00146334
0.00128064
0.000488872
0.00237979
0.00102675
0.0012548
0.00130102
0.00150046
0.000565932
0.00166873
0.00273373
0.00146619
0.00431746
0.00129936
0.00215651
0.00160148
0.00100488
0.00162637
0.0012132
0.00171666
0.00103316
0.00206303
0.00127607
0.000460101
0.00109718
0.000978823
0.00147107
0.000984154
0.00043515
0.00251953
0.000912768
0.00242261
0.00234359
0.00165265
0.00165578
0.00287289
0.00265052
0.00231396
0.00230543
0.00109796
0.00108958
0.00091071
0.00267466
0.00175826
0.0034828
0.00113548
0.00178106
0.000408498
0.00491126
0.00286134
0.0016258
0.000927259
0.000533269
0.00117224
0.000921352
0.00204622
0.00271775
0.00151654
0.00118461
0.00275423
0.00114371
0.00279264
0.00224646
0.00276615
0.00154041
0.00169307
0.00202123
0.000869656
0.00206809
0.00274248
0.0027314
0.00284524
0.00121666
0.000800106
0.00167089
0.00126068
0.00254974
0.00253265
0.00266588
0.00254887
0.00283722
0.00115886
0.00215086
0.00274542
0.00216364
0.00163217
0.00225042
0.00802587
0.000616096
0.00150441
0.00256356
0.000994805
0.00214211
0.00483502
0.00217365
0.00177861
0.000997311
0.00161662
0.00104508
0.00152044
0.00222277
0.00253617
0.0020545
0.00102609
0.00146777
0.000868608
0.0033903
0.00108892
0.00278554
0.0028983
0.00109869
0.00192128
0.00161269
0.00105198
0.0018511
0.00184011
0.00317717
0.00204849
0.00142523
0.00530331
0.00206887
0.003503
0.0117893
0.00269627
0.0030492
0.00144264
0.00189681
0.00109825
0.00237307
0.00418474
0.00137724
0.00129886
0.00146616
0.00146659
0.00126169
0.00089496
0.00142377
0.00247019
0.00244484
0.00245639
0.000902852
0.00254017
0.00115916
0.00223548
0.0018275
0.00280717
0.000956405
0.000896365
0.00266092
0.00123116
0.00261396
0.00161964
0.00282249
0.00149995
0.00108854
0.00109249
0.00108842
0.00226344
0.00131188
0.00121427
0.00120612
0.00119148
0.00210443
0.00105659
0.0015304
0.00133272
0.00131641
0.00125753
0.0024644
0.00239223
0.00643937
0.00236306
0.00134246
0.00146072
0.00145934
0.00287969
0.00148975
0.00239035
0.000861487
0.00092811
0.000932087
0.000850597
0.00149831
0.00171018
0.00304937
0.000860791
0.00235794
0.00133282
0.00204376
0.00100646
0.00122704
0.000846872
0.00224006
0.00182446
0.00296323
0.00123887
0.00199887
0.00111849
0.00103258
0.000801113
0.000790843
0.00352361
0.00107584
0.00255318
0.000665586
0.00143783
0.00166905
0.00148961
0.000596806
0.000879962
0.00264013
0.00182033
0.00138634
0.00189866
0.000685045
0.00104422
0.00198335
0.00109113
0.00142255
0.00142002
0.00192953
0.00152149
0.0019393
0.00881069
0.00158192
0.00229674
0.00188601
0.00215397
0.00138552
0.00134276
0.00165392
0.000811114
0.0011934
0.00207322
0.0016033
0.000945466
0.00223682
0.00181275
0.00326829
0.00143745
0.00139958
0.00136236
0.00150007
0.0019858
0.00199272
0.00202182
0.00258407
0.00226501
0.00144972
0.00243362
0.00265673
0.00237514
0.00140783
0.00109374
0.00110066
0.00145195
0.00127428
0.00124303
0.0013349
0.001324
0.00056056
0.000545167
0.00111879
0.00121376
0.00130305
0.000502105
0.00112104
0.00122149
0.000847134
0.00110688
0.00182383
0.00180973
0.00123364
0.00179765
0.00100885
0.00161342
0.00119418
0.00159008
0.00168206
0.00157411
0.00169009
0.00356409
0.0017754
0.000981173
0.00276079
0.0018876
0.00137733
0.00108907
0.000657578
0.00116668
0.00219384
0.00217014
0.00230373
0.00219211
0.00154062
0.00168045
0.000365201
0.00116602
0.00227533
0.0129705
0.00169039
0.00109715
0.0023047
0.00220521
0.00117821
0.00144332
0.00180358
0.00164247
0.00276476
0.00270915
0.000806353
0.00127258
0.00228396
0.00279597
0.00115434
0.000818464
0.00201753
0.00147233
0.00204415
0.00706613
0.0013867
0.00166248
0.00278074
0.00283103
0.00284775
0.0012308
0.00144253
0.00115108
0.00149202
0.000583841
0.00151259
0.00243129
0.00100328
0.00174645
0.00207158
0.00146695
0.012392
0.00225633
0.0021159
0.00243567
0.00240356
0.00257557
0.00148014
0.00321688
0.00109214
0.00131234
0.00128246
0.00107762
0.00107738
0.00174934
0.00142437
0.00177757
0.0012084
0.00209398
0.00118896
0.00118879
0.00124298
0.00102046
0.00219505
0.00248092
0.00245088
0.00281875
0.0015556
0.00137881
0.00163244
0.00121238
0.00212006
0.0016632
0.00628496
0.00269508
0.00175994
0.00198138
0.0029593
0.00290149
0.00261521
0.00201496
0.00242492
0.000498379
0.00314094
0.00253015
0.00128477
0.00258559
0.00175623
0.00160349
0.00104276
0.00249769
0.00162303
0.00265351
0.00160018
0.00160052
0.00295746
0.00115368
0.00196876
0.0015937
0.00110885
0.00303524
0.00179272
0.000996296
0.00412469
0.00284239
0.00160902
0.00158331
0.00107254
0.00189475
0.000735269
0.0050128
0.00168018
0.000711978
0.00127753
0.00125391
0.00278189
0.00150024
0.00252283
0.000850991
0.00256719
0.00117965
0.00129036
0.00790794
0.00206387
0.00113065
0.00144489
0.0038236
0.0013496
0.000878861
0.00164577
0.00107364
0.00152524
0.00130299
0.00169842
0.00108308
0.0015506
0.00155448
0.00182426
0.0018661
0.00181505
0.00278394
0.0014043
0.00304958
0.00187533
0.00137424
0.00114177
0.00147071
0.00294055
0.00112993
0.00213993
0.00297133
0.00107394
0.000847494
0.000388733
0.00160429
0.00096018
0.000883471
0.00152801
0.00102693
0.00239823
0.000526295
0.00264135
0.00257392
0.00254837
0.00274366
0.0017296
0.00115789
0.0022344
0.00199531
0.00140671
0.0025134
0.0038322
0.00135546
0.00136027
0.00117136
0.00137831
0.00143898
0.00152872
0.00260398
0.0016922
0.00166385
0.00233614
0.0019379
0.00109511
0.00158691
0.00198787
0.0014921
0.00148378
0.00155501
0.0011997
0.00149388
0.00108604
0.00117205
0.00213813
0.000502041
0.0124059
0.00110528
0.00261982
0.00195424
0.00138872
0.00144003
0.00116518
0.00072625
0.00118764
0.00113201
0.00135664
0.000544611
0.000749956
0.00146033
0.00159777
0.00188514
0.00165914
0.00153508
0.00144269
0.00233444
0.00322989
0.00132712
0.00301595
0.00278059
0.00154426
0.00210689
0.000576083
0.00246516
0.00239553
0.0021706
0.00182217
0.00153856
0.00129743
0.00130645
0.00217135
0.00188838
0.00184198
0.00165601
0.001429
0.00256273
0.00138249
0.00251029
0.00295201
0.00222064
0.00130498
0.000810037
0.00160528
0.00152327
0.00193939
0.00149853
0.00261803
0.00222609
0.00249728
0.00116159
0.00212484
0.00161568
0.00205613
0.0028928
0.00151419
0.00138118
0.00140876
0.00148788
0.00145013
0.00209108
0.00230998
0.00122309
0.00144257
0.000945567
0.00102528
0.00140002
0.00187564
0.00159333
0.00122512
0.00122408
0.00193356
0.00111239
0.00388292
0.00130085
0.00130519
0.000504649
0.00233242
0.00324623
0.000492109
0.00291256
0.0131115
0.00270238
0.00269377
0.00146772
0.00176983
0.000946342
0.00150654
0.00197748
0.000779603
0.00242079
0.001454
0.00135316
0.000574507
0.00233255
0.00167979
0.00179849
0.00100393
0.00197958
0.00128704
0.00118192
0.00300447
0.00199016
0.000937138
0.000955952
0.00396316
0.00116221
0.00115445
0.00274349
0.00106633
0.00157964
0.00158237
0.0124383
0.001244
0.00135434
0.00164032
0.0026132
0.0015518
0.00254686
0.00293597
0.00228177
0.00152275
0.00197266
0.00293582
0.00142941
0.0010208
0.00139178
0.00237385
0.00199446
0.00235299
0.00108925
0.00245236
0.00276219
0.00111827
0.0036086
0.00227088
0.00136484
0.00279847
0.00300659
0.00323282
0.00218807
0.00109464
0.00216312
0.00214374
0.00503087
0.00109146
0.00230639
0.0014345
0.00080149
0.00262646
0.00147321
0.00139363
0.000421009
0.00148705
0.00147899
0.00279792
0.00187241
0.00116304
0.00114319
0.00115037
0.00176085
0.0024785
0.00117966
0.00162481
0.00103085
0.00186985
0.00277158
0.00253524
0.00266251
0.000514343
0.00053984
0.00260744
0.00288285
0.00109781
0.000580187
0.000480372
0.00114434
0.000561984
0.00172079
0.0013335
0.00229526
0.00130158
0.00296968
0.000593462
0.00165303
0.000645662
0.00125386
0.00290473
0.00289371
0.00262693
0.00201175
0.00241985
0.00380374
0.00276524
0.00183381
0.00187853
0.00107809
0.000783985
0.00213133
0.000753465
0.00146417
0.00172178
0.00230894
0.00122506
0.0010299
0.00203818
0.00210922
0.00183914
0.00188675
0.00192074
0.00200636
0.00186317
0.00162771
0.00234496
0.00229441
0.00225829
0.00231946
0.00271398
0.00281024
0.00269709
0.00114766
0.000880852
0.00247976
0.00251519
0.00411387
0.0023173
0.00122336
0.00348709
0.00119157
0.00150437
0.000459045
0.00138671
0.00229433
0.00237643
0.000687228
0.00224883
0.000897124
0.000621102
0.000611637
0.00289366
0.00110402
0.00195206
0.00263496
0.003058
0.00132202
0.00248838
0.00180684
0.00138764
0.00174151
0.00282366
0.00145562
0.00174064
0.00137148
0.0010572
0.000637017
0.00261497
0.00101577
0.00152464
0.00103415
0.00169918
0.00104485
0.00168413
0.00169538
0.00108253
0.000681145
0.000950264
0.00140256
0.00107173
0.00106224
0.00158517
0.000589375
0.000803612
0.001806
0.00124033
0.000588789
0.00134658
0.00341573
0.0014144
0.00281666
0.00138202
0.00255356
0.00292382
0.00133861
0.00300319
0.00304749
0.00143234
0.00254441
0.00162465
0.00277216
0.00296984
0.00141688
0.00154822
0.00151257
0.00121811
0.000779366
0.0028732
0.00311711
0.00268956
0.0010972
0.00252345
0.00134023
0.00108809
0.00118393
0.00130421
0.00219276
0.00133292
0.00149525
0.00237017
0.00237043
0.00145246
0.0014339
0.00287783
0.00230025
0.00282473
0.00164907
0.000493647
0.00098908
0.00132007
0.0019593
0.00188706
0.00111014
0.00124359
0.00124931
0.00193758
0.00120274
0.00122741
0.00122773
0.00190669
0.0012467
0.0010082
0.00160446
0.00202823
0.00142419
0.0014102
0.00181349
0.000923707
0.00143758
0.00144193
0.00897036
0.00149509
0.00108445
0.00130487
0.000762741
0.000894305
0.0013866
0.00194421
0.00272458
0.00183133
0.000894037
0.00350797
0.00211571
0.00165346
0.00108694
0.00164934
0.00108115
0.00130865
0.00123384
0.00270635
0.0017856
0.000945505
0.0020302
0.00225372
0.00256797
0.002296
0.00270114
0.00265187
0.0025469
0.00128374
0.00077111
0.0117315
0.00391027
0.0028714
0.00184936
0.00281873
0.000735628
0.00141174
0.00128613
0.00128614
0.000808554
0.00129419
0.00110996
0.00606687
0.00216226
0.0016217
0.00160307
0.00259001
0.00113039
0.00137318
0.00165198
0.00107216
0.00357054
0.00263315
0.00145236
0.000602713
0.00267839
0.0024877
0.00208424
0.00286518
0.000719835
0.00429303
0.00261733
0.00116726
0.00191197
0.00151201
0.00267546
0.000922777
0.000937476
0.00247312
0.00144903
0.00146351
0.0027666
0.000730426
0.00151944
0.00269849
0.000968008
0.00267557
0.00122677
0.00130867
0.00254024
0.00146644
0.00047996
0.00125898
0.000555625
0.0012945
0.00129017
0.00124133
0.000975126
0.00250299
0.00141758
0.000863098
0.00236658
0.00242899
0.00162472
0.00166808
0.000778137
0.000777187
0.0030897
0.00259318
0.00278249
0.00172699
0.00112429
0.00277289
0.00116545
0.000531592
0.00111245
0.00166212
0.00102459
0.00257137
0.0013813
0.00159201
0.00166121
0.00203877
0.00262994
0.0025944
0.00112807
0.00195506
0.00176898
0.00104669
0.002838
0.0017008
0.00120463
0.00190339
0.00123244
0.00202389
0.00200676
0.00411557
0.000880058
0.00117906
0.0011723
0.011279
0.0108948
0.00113305
0.00145512
0.0016342
0.00102465
0.00250754
0.000892069
0.00144459
0.00269334
0.00158378
0.00105864
0.00225942
0.00256457
0.000875099
0.00159306
0.00232539
0.00161359
0.00266709
0.0104561
0.00145139
0.00148149
0.00071885
0.00125861
0.0026417
0.00176129
0.00178557
0.00277743
0.000704013
0.00284397
0.00105094
0.00306461
0.00184423
0.0030839
0.00187645
0.00154975
0.000924648
0.00183404
0.00300717
0.00125804
0.00280477
0.00157573
0.0024373
0.00162802
0.00146844
0.00135158
0.00134188
0.00107552
0.00154171
0.00268122
0.00188271
0.00161315
0.00112375
0.00134064
0.00145426
0.00277023
0.00193067
0.00250125
0.00268508
0.00195554
0.00128247
0.00131497
0.00100421
0.00115679
0.00115447
0.00130785
0.0025664
0.00132751
0.00276589
0.00263431
0.00246907
0.00120564
0.00120532
0.00259402
0.00161261
0.00103439
0.00260749
0.00175115
0.00132247
0.00246644
0.00139008
0.00131718
0.00262219
0.00281163
0.00264298
0.00202402
0.00201905
0.00369509
0.00165673
0.00240558
0.00218698
0.00368936
0.0018298
0.00183126
0.00164087
0.00111922
0.00216496
0.00190973
0.00105623
0.00105121
0.00164013
0.00259607
0.00144204
0.00108849
0.00115484
0.001199
0.0114806
0.00189318
0.00238825
0.000827667
0.000799171
0.00181247
0.0010639
0.00147208
0.00437259
0.00148552
0.000999137
0.00117019
0.0012594
0.00137911
0.00180959
0.00131689
0.00197495
0.000782942
0.00238149
0.00274144
0.00216902
0.00106132
0.00101283
0.00147361
0.0026637
0.00143014
0.00287803
0.00156404
0.00153735
0.00284223
0.00249252
0.00145793
0.000525313
0.000606554
0.00432011
0.00104677
0.00145902
0.00121939
0.0013505
0.00238935
0.00137608
0.00125361
0.0017713
0.00109364
0.0005651
0.00147163
0.00288616
0.00143614
0.00261914
0.00121375
0.00111076
0.00245345
0.00214996
0.00165464
0.00251574
0.00214866
0.0028675
0.00236472
0.00226648
0.00258217
0.0010362
0.00162086
0.0014843
0.00115368
0.00129929
0.00238211
0.00205711
0.00195265
0.000976505
0.00115592
0.00119489
0.0024794
0.00189885
0.00187961
0.00155495
0.00109656
0.000946168
0.000947557
0.00128116
0.000899311
0.000775743
0.00124005
0.00164909
0.00198135
0.00634563
0.000698348
0.00135764
0.000691185
0.000526289
0.00104008
0.00262474
0.00314623
0.00177457
0.00194294
0.00129432
0.00276559
0.00105039
0.00093296
0.00254302
0.000479497
0.00119593
0.00116373
0.00293927
0.00221839
0.00172022
0.002879
0.000908457
0.00120285
0.00127494
0.00262311
0.00218372
0.00188308
0.0027939
0.00450886
0.00103576
0.0014635
0.00254807
0.00200879
0.000878365
0.00272223
0.0016757
0.00114541
0.00122809
0.000810392
0.00159654
0.00120362
0.00309609
0.00138643
0.00136672
0.000951578
0.000959106
0.00137086
0.0011657
0.00115946
0.00121088
0.00264853
0.00253305
0.00261245
0.00130531
0.00177824
0.00272667
0.00245543
0.00243197
0.00203385
0.000893884
0.000913697
0.00229009
0.00279129
0.00223678
0.00162972
0.0010504
0.00157212
0.00214951
0.00270185
0.00597334
0.002585
0.00241888
0.0025102
0.00254761
0.000877549
0.0014766
0.00204266
0.00299016
0.00144832
0.00266606
0.00130843
0.00112827
0.00111735
0.00109957
0.00108314
0.00241845
0.00216738
0.00218468
0.00120129
0.00256764
0.00193844
0.00116604
0.00216597
0.00277648
0.00140068
0.00122383
0.00166311
0.00105437
0.00130808
0.00113773
0.00245363
0.00194837
0.0016042
0.00250713
0.00153336
0.00148015
0.00102627
0.00200645
0.00263735
0.000997381
0.000997021
0.00147112
0.00147034
0.00152831
0.00234296
0.00277401
0.00260698
0.00062074
0.00128597
0.00127152
0.00192656
0.00220469
0.00322082
0.00115145
0.00258461
0.00178512
0.0020067
0.00185545
0.0026596
0.00127296
0.00132729
0.00132516
0.00279895
0.00109831
0.0011052
0.00290028
0.00122413
0.0021383
0.000452402
0.00111526
0.0019636
0.00291766
0.00171189
0.00125069
0.00146598
0.00287825
0.00201813
0.00121311
0.00214906
0.00237799
0.00142836
0.000500624
0.00129936
0.00185382
0.00082212
0.0108717
0.00119545
0.00109845
0.000978193
0.00207516
0.00403654
0.00358409
0.00235601
0.00150791
0.00108254
0.00192944
0.00237748
0.0014242
0.00110205
0.00226904
0.00223155
0.00135623
0.00063369
0.0013078
0.00194482
0.00192794
0.00228116
0.00280095
0.00151711
0.00151171
0.000860426
0.00278875
0.00153739
0.0027962
0.00147493
0.00142261
0.0014467
0.00269261
0.00149712
0.00155186
0.00277065
0.00312985
0.00164523
0.00116019
0.00235282
0.0026763
0.000832479
0.00184264
0.00167744
0.00104396
0.00131452
0.0053258
0.00157732
0.0010788
0.00295262
0.00173991
0.00103122
0.00162404
0.00160861
0.000844373
0.00219534
0.00100912
0.00170909
0.00170697
0.0010879
0.00108346
0.00143078
0.00159777
0.000793533
0.00191483
0.00170937
0.0019115
0.00225013
0.00115622
0.00636337
0.0023243
0.0015417
0.00110713
0.00249717
0.00149334
0.00147439
0.00458911
0.00223949
0.00178867
0.00190599
0.000755958
0.00103855
0.0014676
0.00198591
0.00215989
0.00216415
0.0012039
0.00194803
0.00280416
0.00231749
0.00254397
0.00166102
0.00153302
0.00191584
0.00155909
0.00152582
0.00155813
0.00305434
0.00157436
0.00277034
0.00172077
0.000982278
0.00148662
0.00106442
0.00372622
0.00202835
0.00117442
0.00170874
0.00210378
0.0014798
0.0020729
0.00281746
0.00155523
0.00196252
0.00200613
0.00108268
0.000788903
0.00160401
0.00280225
0.00142679
0.00179348
0.000846511
0.00240465
0.00241525
0.00125277
0.00238378
0.00146578
0.00243115
0.00149017
0.00195451
0.00225574
0.00160015
0.00105691
0.00159778
0.00129801
0.000880756
0.00252752
0.00231919
0.00144362
0.000805683
0.00183233
0.00119224
0.00343683
0.00220655
0.00334345
0.00196327
0.00222293
0.00121519
0.00237964
0.00147672
0.00161482
0.00172706
0.00207946
0.00234703
0.00109279
0.00126902
0.00150751
0.00108226
0.00116815
0.00296131
0.00138
0.00132416
0.000974985
0.00172033
0.0012298
0.0012458
0.00278433
0.00125512
0.00202649
0.00150806
0.00125218
0.0017976
0.00234448
0.000970859
0.00303589
0.00203938
0.00179164
0.0013419
0.00227595
0.00129206
0.00101825
0.00147153
0.000994072
0.00147205
0.00259595
0.00117565
0.00246386
0.00185522
0.00141525
0.00132933
0.00286679
0.00213975
0.00242985
0.00126942
0.0015107
0.00147591
0.00173472
0.00105527
0.00130597
0.00176481
0.00100463
0.00230206
0.00174586
0.00178362
0.00100867
0.00128351
0.00123816
0.00265352
0.00270711
0.00262864
0.0028306
0.00118461
0.00251635
0.00279548
0.00144587
0.00143636
0.00151913
0.00151739
0.00195904
0.00157149
0.00129447
0.00267144
0.00141036
0.00117688
0.00182196
0.00174706
0.00100128
0.00128495
0.00114747
0.00113276
0.00276134
0.00200426
0.00496471
0.00148638
0.000743516
0.000721808
0.00118987
0.0016011
0.00162129
0.00129839
0.00282167
0.00130889
0.0031204
0.00131728
0.00147823
0.000840485
0.00260093
0.00134981
0.00075518
0.00188935
0.00191555
0.00262345
0.00426397
0.00195173
0.00198809
0.000688644
0.00100258
0.00318593
0.00258763
0.00281
0.00168165
0.00104324
0.00157282
0.00216239
0.0012951
0.00142739
0.00140702
0.00821653
0.000804167
0.00299447
0.00111453
0.00274911
0.00349214
0.00153981
0.00115903
0.0011478
0.00165423
0.00101757
0.00157945
0.00248381
0.00263088
0.00184117
0.000694889
0.00190711
0.00123733
0.00223434
0.00160273
0.0012305
0.0012343
0.00250131
0.00179017
0.00180266
0.0022557
0.00114266
0.00200584
0.00132039
0.00232203
0.00223431
0.00155825
0.00164902
0.00186038
0.00130609
0.00161399
0.0016307
0.00203428
0.00112002
0.00204291
0.00256275
0.00164468
0.00167054
0.00267003
0.00138721
0.00390673
0.00150781
0.00158833
0.00431692
0.000449398
0.00139859
0.000705856
0.00108195
0.000847263
0.000972142
0.000693149
0.00161419
0.0010429
0.00108168
0.00271874
0.00142144
0.00275345
0.00169753
0.00100815
0.00196535
0.00172923
0.00175507
0.0017447
0.00208012
0.00167981
0.00260496
0.00273755
0.00201625
0.001493
0.000618986
0.00154202
0.00136394
0.00276408
0.000961554
0.0068083
0.00114266
0.00156356
0.00154774
0.0027236
0.00255242
0.0025527
0.000588306
0.00120734
0.00131554
0.00199009
0.0021738
0.00230163
0.00148005
0.0013931
0.00139245
0.00174412
0.00626555
0.000819326
0.00260265
0.00131181
0.00131762
0.000903262
0.00218251
0.00109127
0.00108152
0.00155743
0.001474
0.00185076
0.00194253
0.00108596
0.00140341
0.000875588
0.00174357
0.00405174
0.00169238
0.00112304
0.00161054
0.00160509
0.00128601
0.00126395
0.0019836
0.00122132
0.00274714
0.00256265
0.0019458
0.00147749
0.00128243
0.00136899
0.00127018
0.00114309
0.00157144
0.00192372
0.00183233
0.00191353
0.00178392
0.00176416
0.00130483
0.00141028
0.0011516
0.00340941
0.00192542
0.00212173
0.000495376
0.00386919
0.000875236
0.00124737
0.00167684
0.00101674
0.00172045
0.000986856
0.00682458
0.00181416
0.00266561
0.00232344
0.00168141
0.00155942
0.00254164
0.00408934
0.00147627
0.000623502
0.00236801
0.00186987
0.00804898
0.00184296
0.00132511
0.00254012
0.00194674
0.00177173
0.00101089
0.00144648
0.00269368
0.00315939
0.00134874
0.000791028
0.00679783
0.0015633
0.000680728
0.00206578
0.000850924
0.00168723
0.00102027
0.00153654
0.00247806
0.00128485
0.00167551
0.00273651
0.00176801
0.00124882
0.00162038
0.00136458
0.0044049
0.00265724
0.00165356
0.00300469
0.00186115
0.00136488
0.000887264
0.0018388
0.00203243
0.00272288
0.00255405
0.00338035
0.00275269
0.00220521
0.00132489
0.00154886
0.00111686
0.00144734
0.00114267
0.00115044
0.000515326
0.00173131
0.00105633
0.00659092
0.0025536
0.00254636
0.00395723
0.0023273
0.00116409
0.00148348
0.00183105
0.00122452
0.00104171
0.00146447
0.00148114
0.00170308
0.00299612
0.00165733
0.00101266
0.00171154
0.0009194
0.00214111
0.00146744
0.00103665
0.00239567
0.000741285
0.00105149
0.00181121
0.00158737
0.000954301
0.000980584
0.00290768
0.00104993
0.00147262
0.00125607
0.00181463
0.00225077
0.00180616
0.0012113
0.00134943
0.00227793
0.00275986
0.00164435
0.000786689
0.00137437
0.00113852
0.002657
0.0010032
0.00147336
0.00239273
0.00222791
0.00235101
0.00178304
0.000936599
0.00124629
0.00369113
0.00117937
0.00128784
0.0015186
0.000689986
0.00976875
0.00120432
0.00149578
0.000741511
0.00385313
0.00182768
0.00134201
0.00118706
0.00158149
0.0015739
0.00122015
0.00264784
0.00211005
0.00180811
0.00085663
0.00088927
0.0019328
0.00122871
0.00145757
0.00237905
0.00139701
0.00138709
0.00290713
0.00192462
0.0010962
0.0023205
0.000443972
0.00298198
0.0013598
0.00263781
0.00253324
0.00217955
0.00221169
0.00249583
0.00174839
0.00264498
0.00251166
0.00202621
0.00244225
0.0027007
0.00187114
0.00118184
0.00106468
0.00271211
0.00268778
0.00288609
0.00146908
0.00157174
0.00289372
0.00199965
0.00120559
0.00119987
0.001113
0.00135824
0.0013537
0.00241691
0.00189221
0.00153447
0.00152521
0.00185443
0.00140766
0.00275521
0.00222611
0.00123284
0.00133357
0.00263305
0.00198606
0.00197331
0.000632864
0.00180472
0.00116543
0.00116449
0.00143853
0.0014386
0.00108906
0.00121835
0.000934623
0.00074545
0.00116559
0.00325151
0.00235799
0.00114405
0.00253101
0.0027356
0.00283308
0.00289445
0.0106597
0.00277232
0.00161422
0.00197615
0.00121281
0.00187539
0.000395265
0.00171979
0.00202065
0.00205768
0.0014341
0.00226478
0.000498662
0.000421848
0.00222919
0.000460891
0.00295469
0.000966973
0.00136011
0.00107384
0.00200358
0.00162382
0.00293507
0.00162511
0.00224918
0.00127621
0.00149374
0.00222399
0.00265436
0.000862266
0.00348689
0.00227003
0.00174949
0.00274961
0.00108975
0.0019812
0.00233589
0.00124109
0.00122128
0.0107857
0.00267579
0.0015792
0.000868825
0.00175677
0.0010321
0.0079153
0.00298451
0.000878158
0.00158194
0.0025282
0.0011485
0.000912631
0.00149038
0.00275806
0.00134172
0.00154954
0.00288995
0.00185803
0.00186181
0.00231735
0.00101275
0.00231932
0.00150868
0.00170351
0.000943102
0.00132921
0.00140944
0.00274148
0.000755226
0.0020982
0.00149151
0.000937669
0.00251115
0.00139683
0.00262489
0.00198593
0.000694951
0.00117329
0.000772283
0.00126262
0.00152609
0.00420657
0.00193407
0.00148258
0.000717255
0.000696261
0.00278292
0.00104987
0.00103997
0.00283247
0.00242583
0.0024333
0.00163331
0.00148478
0.00273455
0.000945887
0.000601962
0.00140322
0.00286174
0.00162425