/*--------------------------------*- C++ -*----------------------------------*\
| =========                 |                                                 |
| \\      /  F ield         | OpenFOAM: The Open Source CFD Toolbox           |
|  \\    /   O peration     | Version:  v2012                                 |
|   \\  /    A nd           | Website:  www.openfoam.com                      |
|    \\/     M anipulation  |                                                 |
\*---------------------------------------------------------------------------*/
FoamFile
{
    version     2.0;
    format      ascii;
    class       volSymmTensorField;
    location    "16";
    object      epsilon;
}
// * * * * * * * * * * * * * * * * * * * * * * * * * * * * * * * * * * * * * //

dimensions      [0 0 0 0 0 0 0];


internalField   nonuniform List<symmTensor> 
16000
(
(0.00934198 -0.000187999 -1.81305e-19 -0.00949617 5.27534e-18 2.34151e-32)
(0.00936502 -0.000187954 3.19796e-18 -0.00940158 5.15519e-18 0)
(0.00933881 -0.000190181 3.22292e-20 -0.00926386 -5.14443e-18 0)
(0.00928328 -0.00018982 6.32198e-18 -0.00909775 -1.02003e-17 0)
(0.00919622 -0.000189553 -3.07695e-18 -0.00890327 4.01252e-20 0)
(0.00908117 -0.000188194 -4.00244e-26 -0.00868517 2.57333e-24 0)
(0.00894447 -0.000186095 -2.9663e-18 -0.00844536 -9.3528e-18 0)
(0.0087857 -0.000183616 6.4051e-20 -0.00819002 9.09529e-18 0)
(0.00861173 -0.000180502 -2.70985e-18 -0.00791789 4.41104e-18 0)
(0.00842029 -0.00017693 -5.37115e-18 -0.00763574 -4.22012e-18 0)
(0.00822001 -0.000172521 -2.51152e-18 -0.00734265 4.0823e-18 0)
(0.00800772 -0.000168508 2.47505e-18 -0.00704511 -1.49445e-21 0)
(0.00778966 -0.000164028 -3.57401e-26 -0.00673965 -7.87939e-25 0)
(0.00756252 -0.000159445 1.51169e-19 -0.00643257 7.14284e-18 0)
(0.00733169 -0.000154136 6.5031e-18 -0.00611986 -3.3725e-18 0)
(0.00709677 -0.000149531 -1.69459e-19 -0.00581007 -6.45137e-18 0)
(0.00685798 -0.000144586 8.96565e-20 -0.00549499 3.05069e-18 0)
(0.00661449 -0.00013874 -2.15589e-27 -0.00518187 5.17347e-25 0)
(0.00637352 -0.000133647 -3.50691e-26 -0.00487031 -4.71629e-25 0)
(0.00612573 -0.000128183 -3.38276e-18 -0.00455834 2.48821e-18 0)
(0.00587891 -0.000121781 -1.02322e-19 -0.00424737 -2.35779e-18 0)
(0.00563253 -0.000116134 -1.78367e-18 -0.003943 -4.40335e-18 0)
(0.00538155 -0.000109126 -1.48549e-18 -0.00363505 -2.81697e-20 0)
(0.00513433 -0.000102274 -1.29226e-18 -0.00333744 1.82182e-18 0)
(0.00488545 -9.52063e-05 1.14947e-19 -0.00304029 1.68736e-18 0)
(0.00463664 -8.68374e-05 1.12839e-18 -0.00275038 -1.49056e-18 0)
(0.0043936 -7.83754e-05 -2.33499e-18 -0.00246949 -7.76608e-20 0)
(0.00414882 -6.959e-05 1.32754e-18 -0.00219486 2.47674e-18 0)
(0.00391286 -5.98969e-05 1.92449e-18 -0.00193341 -9.85447e-19 0)
(0.00368048 -5.05734e-05 -2.01897e-18 -0.00168437 -1.02584e-18 0)
(0.00345678 -4.02578e-05 0 -0.00144884 0 0)
(0.00324401 -3.006e-05 -1.09139e-19 -0.00123314 -6.83619e-19 0)
(0.00304168 -1.99417e-05 -7.6535e-19 -0.00103283 -4.95005e-20 0)
(0.0028544 -9.4537e-06 -6.15268e-19 -0.000855566 4.24134e-19 0)
(0.00268228 4.07802e-07 -6.63105e-19 -0.000698414 -4.96095e-20 0)
(0.00252658 1.02726e-05 -1.31762e-18 -0.000563302 -4.09194e-19 0)
(0.00239016 1.98268e-05 -1.16132e-18 -0.000451701 -9.55017e-20 0)
(0.00227163 2.96318e-05 1.70696e-19 -0.000362067 5.99957e-19 0)
(0.0021748 3.78042e-05 4.72859e-19 -0.000308679 -1.25843e-19 0)
(0.00209393 4.29742e-05 -6.14342e-19 -0.000293986 -5.30088e-19 0)
(0.00924886 -0.000558744 -3.51894e-18 -0.00939929 2.81583e-18 5.9814e-33)
(0.00927097 -0.000558839 9.49138e-18 -0.0093039 4.33529e-18 0)
(0.00924684 -0.000565271 3.36481e-18 -0.0091682 -1.04401e-17 0)
(0.00919466 -0.000564838 5.66174e-20 -0.00900591 -5.13316e-18 0)
(0.00911053 -0.000563766 -3.07255e-18 -0.00881433 1.00475e-17 0)
(0.00899927 -0.000559934 2.94289e-26 -0.00860047 1.27463e-24 0)
(0.00886663 -0.000553915 -1.22917e-19 -0.0083648 -9.25356e-18 0)
(0.00871091 -0.000546399 -2.63142e-18 -0.00811293 9.13844e-18 0)
(0.00854198 -0.000537455 5.83427e-18 -0.00784596 1.29522e-17 0)
(0.00835526 -0.000527347 -5.43221e-18 -0.00756883 -3.96045e-18 0)
(0.00815869 -0.000515165 -3.38591e-19 -0.00727951 -8.04993e-18 0)
(0.00794897 -0.00050261 4.73031e-18 -0.0069848 -4.0203e-18 0)
(0.0077342 -0.000489208 -2.16097e-18 -0.00668265 3.74866e-18 0)
(0.00751036 -0.000476177 2.05084e-18 -0.00637892 -3.56714e-18 0)
(0.00728201 -0.000460507 8.49128e-18 -0.00606876 -3.52272e-18 0)
(0.00704723 -0.000445872 2.53281e-19 -0.00575913 3.19948e-18 0)
(0.006811 -0.000431476 2.67805e-19 -0.00544668 3.02532e-18 0)
(0.00656964 -0.000414442 3.82302e-18 -0.00513587 3.90949e-20 0)
(0.0063248 -0.000397657 2.40019e-18 -0.00482074 5.38203e-18 0)
(0.00607982 -0.000381898 3.77673e-18 -0.00451221 2.63254e-18 0)
(0.00583038 -0.000361797 -6.18842e-19 -0.00419921 -4.66012e-18 0)
(0.00557946 -0.000343492 -3.17133e-19 -0.00389158 -2.13729e-18 0)
(0.00532978 -0.000323418 -1.47393e-18 -0.00358628 -4.83531e-20 0)
(0.00507474 -0.000300699 1.39655e-18 -0.0032828 9.4704e-20 0)
(0.00482536 -0.000278462 -3.45051e-19 -0.00298737 -1.65431e-18 0)
(0.00457347 -0.000253437 1.57823e-18 -0.00269698 1.57527e-18 0)
(0.00432544 -0.000227534 -2.30412e-18 -0.00241437 -1.88724e-19 0)
(0.00408237 -0.000201263 -7.12876e-19 -0.00214472 -2.37956e-18 0)
(0.0038432 -0.00017226 1.70445e-18 -0.00188393 2.18239e-18 0)
(0.00361455 -0.000143792 3.53891e-19 -0.00164193 9.20338e-19 0)
(0.0033935 -0.000114084 -2.42397e-18 -0.00141293 -1.82602e-18 0)
(0.00318551 -8.35805e-05 0 -0.00120493 0 0)
(0.00299069 -5.47463e-05 -4.47004e-19 -0.0010153 4.15738e-19 0)
(0.00281015 -2.39561e-05 9.93559e-19 -0.000846699 6.10033e-19 0)
(0.00264771 3.61302e-06 -3.94509e-19 -0.000700863 2.38876e-19 0)
(0.00250042 3.24602e-05 -6.12316e-19 -0.00057443 -1.36979e-19 0)
(0.00237331 5.89893e-05 -9.81375e-19 -0.00047265 -6.40723e-19 0)
(0.00226362 8.55991e-05 -5.47778e-19 -0.000389116 -1.34381e-19 0)
(0.00216858 0.000109987 1.55856e-18 -0.000331549 3.85979e-19 0)
(0.00209809 0.000126409 -7.68981e-19 -0.000320354 4.24777e-20 0)
(0.00907009 -0.000915184 -2.29229e-18 -0.00921294 -4.83028e-18 2.18534e-32)
(0.00908836 -0.000915468 3.4083e-18 -0.00911415 -5.6816e-18 0)
(0.00906618 -0.00092534 -3.37711e-19 -0.00898021 9.99096e-18 0)
(0.00901769 -0.000925378 -3.05574e-18 -0.00882257 4.78256e-19 0)
(0.00894061 -0.000924118 1.90882e-26 -0.00863797 -1.35578e-24 0)
(0.00883737 -0.000918513 2.89012e-18 -0.008433 -4.98926e-18 0)
(0.00871268 -0.00090923 2.757e-18 -0.00820543 -4.87495e-18 0)
(0.0085651 -0.000897569 -5.55003e-18 -0.00796244 4.61821e-19 0)
(0.00840339 -0.000882313 5.77342e-18 -0.00770289 8.10343e-18 0)
(0.00822458 -0.000866905 5.45744e-18 -0.00743424 3.85636e-18 0)
(0.00803564 -0.000848082 -5.88085e-18 -0.00715263 -1.1771e-17 0)
(0.00783314 -0.000828303 -2.12516e-18 -0.00686554 3.8783e-18 0)
(0.00762314 -0.000805608 -1.99849e-18 -0.00656823 3.76953e-18 0)
(0.00740416 -0.000784085 -1.11604e-18 -0.00626965 -1.05102e-17 0)
(0.0071809 -0.000760055 -2.16771e-18 -0.00596456 -5.14613e-21 0)
(0.00694795 -0.000734566 8.38934e-19 -0.00565731 6.2939e-18 0)
(0.00671309 -0.000708366 -2.42468e-18 -0.00534636 -2.97969e-18 0)
(0.00647253 -0.000682133 1.41965e-18 -0.0050372 -2.83063e-18 0)
(0.00622667 -0.000651822 -1.80896e-18 -0.00472188 -6.99405e-20 0)
(0.00597748 -0.00062248 6.13209e-18 -0.00441055 4.97843e-18 0)
(0.00572649 -0.000590523 5.21849e-19 -0.00409785 2.27103e-18 0)
(0.00546849 -0.000555708 9.98272e-19 -0.00378557 -2.01899e-18 0)
(0.00521378 -0.000520908 2.3569e-18 -0.0034784 -1.69103e-18 0)
(0.00495451 -0.00048223 1.3605e-18 -0.00317438 1.00095e-19 0)
(0.00469704 -0.000441973 5.79452e-19 -0.00287552 1.58372e-18 0)
(0.00444383 -0.000400538 -6.19623e-19 -0.00258909 1.25316e-18 0)
(0.00419125 -0.00035611 5.92218e-19 -0.00230789 1.26436e-18 0)
(0.00395058 -0.000311053 -1.64452e-18 -0.00204689 -1.30729e-18 0)
(0.0037142 -0.000264307 -3.53644e-18 -0.00179545 -1.60478e-18 0)
(0.00349206 -0.000216504 3.89386e-18 -0.00156642 2.34985e-18 0)
(0.00328128 -0.000169737 1.00718e-20 -0.00135373 1.31788e-20 0)
(0.00308493 -0.000121079 5.33614e-19 -0.00116292 -7.69068e-19 0)
(0.00290516 -7.60946e-05 9.87878e-19 -0.00099249 -4.81774e-20 0)
(0.00274132 -2.88354e-05 4.54062e-19 -0.000844025 4.35376e-19 0)
(0.0025958 1.35894e-05 8.41516e-19 -0.000716012 7.4425e-19 0)
(0.00246647 5.7109e-05 2.37147e-19 -0.000608622 -8.43665e-20 0)
(0.00235531 9.74057e-05 5.77806e-19 -0.000520245 2.21196e-19 0)
(0.00225734 0.000134706 2.7907e-19 -0.000447325 -5.88086e-21 0)
(0.00217459 0.00017401 5.21272e-19 -0.000390961 2.03537e-19 0)
(0.00210388 0.000201633 8.89516e-19 -0.000366772 8.71352e-19 0)
(0.00881721 -0.00124894 6.20225e-19 -0.00894862 -2.557e-18 5.56898e-33)
(0.00882761 -0.00124922 -6.10814e-18 -0.00884295 1.33489e-18 0)
(0.00880471 -0.0012621 -2.97003e-21 -0.00870789 5.95481e-20 0)
(0.00875867 -0.0012624 -2.8144e-18 -0.0085542 -4.36643e-18 0)
(0.0086894 -0.00126097 -2.9117e-18 -0.00837728 4.52862e-19 0)
(0.00859568 -0.00125481 -3.63232e-20 -0.00818312 -4.65657e-18 0)
(0.00848271 -0.00124381 1.19037e-19 -0.00796745 4.47702e-18 0)
(0.00834829 -0.00122982 -2.51763e-18 -0.00773861 4.69306e-18 0)
(0.00819834 -0.00121015 -2.89369e-18 -0.00749108 -3.9002e-18 0)
(0.00802984 -0.00118924 6.06635e-18 -0.00723352 1.16431e-17 0)
(0.00785152 -0.00116395 2.86199e-18 -0.00696279 3.85235e-18 0)
(0.00765824 -0.00113851 -5.62097e-18 -0.00668542 -7.11691e-18 0)
(0.00745662 -0.00110837 2.30475e-18 -0.00639674 -1.07627e-19 0)
(0.0072431 -0.00107739 1.71291e-18 -0.00610418 -3.44934e-18 0)
(0.00702318 -0.00104358 -6.92427e-18 -0.00580284 -3.02748e-18 0)
(0.00679346 -0.00100872 -1.45641e-18 -0.00549955 3.0832e-18 0)
(0.00655698 -0.000970073 -3.89592e-18 -0.00518807 1.06267e-20 0)
(0.00631393 -0.000930466 -3.71702e-18 -0.00487768 -4.73442e-20 0)
(0.00606497 -0.000887728 -1.75876e-18 -0.00456129 -1.43225e-20 0)
(0.00580884 -0.000842391 7.13156e-21 -0.00424544 2.36314e-20 0)
(0.0055511 -0.000794607 1.5947e-18 -0.00392936 1.21924e-19 0)
(0.00528827 -0.000743598 -7.85909e-19 -0.00361629 -5.82882e-18 0)
(0.00502401 -0.000690045 2.82416e-18 -0.00330465 3.20008e-19 0)
(0.00476264 -0.000633963 -1.04752e-18 -0.00300469 2.89356e-18 0)
(0.00450037 -0.000575209 -4.306e-19 -0.00270775 1.24443e-18 0)
(0.00424739 -0.000514475 -1.50568e-18 -0.00242952 8.18192e-19 0)
(0.00400023 -0.000451965 0 -0.00216162 0 0)
(0.00376441 -0.000388611 1.85059e-18 -0.00191443 1.31843e-18 0)
(0.00354226 -0.000324905 -6.57037e-19 -0.00168512 -1.45842e-18 0)
(0.0033337 -0.000261392 -2.47973e-18 -0.00147803 -1.8796e-18 0)
(0.00314386 -0.000199342 1.72776e-18 -0.00129246 3.05789e-19 0)
(0.00296966 -0.000138419 -1.45184e-18 -0.00112964 -1.16812e-18 0)
(0.00281497 -7.95866e-05 1.27212e-18 -0.000987459 1.15669e-18 0)
(0.00267637 -2.21408e-05 1.86124e-18 -0.000867054 1.30486e-18 0)
(0.00255508 3.15512e-05 1.30377e-18 -0.000762522 6.42768e-19 0)
(0.00244831 8.37772e-05 -4.92938e-19 -0.000677868 -3.28684e-19 0)
(0.00235387 0.000131975 -8.55198e-19 -0.000601504 -5.74923e-19 0)
(0.00226868 0.000176935 -6.18769e-21 -0.000540738 -4.34063e-21 0)
(0.00219571 0.00022071 2.99896e-19 -0.000485018 2.27463e-19 0)
(0.00211814 0.000255948 5.08436e-19 -0.000434965 2.65333e-19 0)
(0.00850804 -0.00155469 2.9914e-18 -0.00862404 -5.76297e-19 -4.48788e-36)
(0.00850444 -0.00155483 -2.48103e-18 -0.00850624 -3.98992e-18 0)
(0.00847745 -0.00156914 5.47484e-18 -0.00836638 3.24959e-18 0)
(0.00843255 -0.00157017 -2.11236e-19 -0.00821577 4.79073e-18 0)
(0.00836909 -0.00156846 -2.72038e-18 -0.00804446 -3.93334e-18 0)
(0.00828355 -0.00156178 2.70701e-18 -0.00786008 -9.38941e-18 0)
(0.00818296 -0.00154904 -5.3846e-18 -0.00765696 9.05078e-19 0)
(0.00806146 -0.00153358 8.10312e-18 -0.00744233 3.03307e-18 0)
(0.00792535 -0.00151191 -2.86754e-18 -0.00720891 -3.73767e-18 0)
(0.00777091 -0.001488 2.09825e-18 -0.00696641 -4.21298e-18 0)
(0.00760369 -0.00145753 1.24897e-17 -0.0067071 2.44514e-18 0)
(0.00742111 -0.0014258 2.85684e-18 -0.00644134 3.43571e-18 0)
(0.00722754 -0.00138814 -3.42818e-18 -0.00616111 -6.81404e-18 0)
(0.00701911 -0.00134915 6.29856e-19 -0.00587477 3.22288e-18 0)
(0.0068006 -0.00130465 -6.79749e-19 -0.00557577 6.33203e-18 0)
(0.00657095 -0.00125795 -3.22958e-18 -0.00527424 3.01363e-18 0)
(0.00633217 -0.00120595 3.81549e-18 -0.00496226 7.12591e-20 0)
(0.00608212 -0.00115146 -1.6712e-18 -0.00464774 -5.13773e-18 0)
(0.00582614 -0.00109217 1.67144e-18 -0.00432754 -4.61402e-18 0)
(0.00556358 -0.00102932 -4.91002e-18 -0.00400977 -4.47072e-19 0)
(0.00529551 -0.000962064 4.62096e-18 -0.00368842 5.24705e-19 0)
(0.00502762 -0.000892545 -5.49138e-19 -0.00337694 -3.48676e-18 0)
(0.00475901 -0.000818252 -3.42056e-18 -0.00306809 2.29626e-18 0)
(0.00449516 -0.000743405 3.1573e-18 -0.00277429 4.49798e-18 0)
(0.0042397 -0.00066476 -1.28922e-19 -0.00249297 1.01676e-18 0)
(0.00399299 -0.000586736 2.26014e-18 -0.00223082 7.22217e-19 0)
(0.00376261 -0.000507226 -2.3866e-20 -0.00198886 -1.31661e-18 0)
(0.00354475 -0.000429645 -2.10799e-18 -0.00176897 -1.83243e-18 0)
(0.00334934 -0.000352138 3.76431e-18 -0.00157407 2.0197e-18 0)
(0.00316977 -0.000277461 -8.48668e-19 -0.00140283 -4.09436e-19 0)
(0.00301294 -0.000205264 -9.44165e-19 -0.00125441 -6.23394e-19 0)
(0.00287213 -0.000135018 1.00031e-18 -0.00112866 6.79518e-19 0)
(0.00274902 -6.85509e-05 -3.71099e-18 -0.00101952 -2.15226e-18 0)
(0.00264225 -5.62843e-06 -1.49698e-18 -0.000929758 -8.82691e-19 0)
(0.00254653 5.42611e-05 1.32415e-18 -0.000849588 7.81645e-19 0)
(0.00246088 0.00010871 5.93192e-19 -0.000781926 3.58506e-19 0)
(0.002381 0.000160874 6.02391e-19 -0.000717453 3.72289e-19 0)
(0.00230621 0.000207705 -1.01579e-18 -0.000661372 -6.48388e-19 0)
(0.00223381 0.000250566 1.66776e-19 -0.000603881 7.56009e-20 0)
(0.00216027 0.000291784 3.16389e-19 -0.000550109 2.38207e-19 0)
(0.00816504 -0.00183129 1.96716e-18 -0.00826164 1.75009e-18 4.30665e-33)
(0.00813729 -0.00182927 6.14696e-18 -0.00812261 -6.64527e-18 0)
(0.00809802 -0.00184171 -2.35652e-18 -0.0079696 -3.78483e-18 0)
(0.00804842 -0.0018426 2.19117e-18 -0.00781662 8.11666e-18 0)
(0.00798729 -0.00184063 2.80904e-18 -0.00764747 -5.11646e-18 0)
(0.00791015 -0.00183413 7.21245e-23 -0.00747318 -1.00422e-19 0)
(0.00782005 -0.00182061 -5.27547e-18 -0.00728081 -2.96292e-18 0)
(0.00771125 -0.00180466 -5.05257e-18 -0.00708023 8.30796e-19 0)
(0.00758839 -0.00178047 2.80602e-18 -0.00686051 3.54221e-18 0)
(0.00744746 -0.001754 -1.32443e-18 -0.00663269 -1.13658e-17 0)
(0.00729111 -0.00171902 -4.12772e-18 -0.00638488 4.1617e-18 0)
(0.00711628 -0.00168139 4.71223e-18 -0.00612819 1.3614e-17 0)
(0.00692682 -0.00163594 7.11645e-19 -0.00585325 3.37726e-18 0)
(0.00672036 -0.00158708 -2.84967e-18 -0.0055707 -2.95392e-18 0)
(0.00650124 -0.00152993 4.86301e-18 -0.00527312 2.83872e-18 0)
(0.00626701 -0.00146895 -1.81164e-18 -0.0049699 -5.5296e-18 0)
(0.00602043 -0.00140131 1.68849e-18 -0.00465363 -5.16496e-18 0)
(0.00576213 -0.00132876 3.47875e-18 -0.00433541 1.82868e-19 0)
(0.00549794 -0.00124962 -3.74913e-20 -0.00401232 6.29093e-18 0)
(0.00522542 -0.00116703 -2.66511e-18 -0.00369132 -2.14903e-18 0)
(0.00495331 -0.00107934 -4.80401e-18 -0.00337355 -7.35386e-18 0)
(0.00468221 -0.000988784 4.94005e-18 -0.00306759 6.58836e-18 0)
(0.00441842 -0.000896103 -1.28451e-18 -0.00277322 8.1164e-19 0)
(0.00416479 -0.000802146 -7.98234e-20 -0.00249948 -9.2172e-19 0)
(0.00392681 -0.000708147 -1.29511e-18 -0.00224621 -1.15856e-18 0)
(0.00370614 -0.000615507 -1.54502e-18 -0.00201921 -1.61217e-18 0)
(0.00350544 -0.000524812 5.54481e-18 -0.00181655 3.25627e-18 0)
(0.00332879 -0.000436546 -9.38503e-19 -0.00164389 -4.96391e-19 0)
(0.00317103 -0.000351476 -2.989e-18 -0.00149365 -1.74186e-18 0)
(0.00303888 -0.000270213 1.12679e-18 -0.00137171 6.40494e-19 0)
(0.0029166 -0.000193042 -2.67933e-18 -0.00126111 -1.60538e-18 0)
(0.0028088 -0.000119915 1.21923e-18 -0.00116809 5.53148e-19 0)
(0.00272441 -5.13334e-05 2.58394e-18 -0.00109442 1.48609e-18 0)
(0.00264482 1.40895e-05 -2.23605e-18 -0.00103019 -1.4171e-18 0)
(0.00257056 7.31842e-05 -1.3432e-18 -0.000966559 -9.29235e-19 0)
(0.002501 0.00012933 -7.0155e-19 -0.000911859 -3.43577e-19 0)
(0.00243078 0.000180387 -6.05658e-19 -0.000852911 -3.71431e-19 0)
(0.00236142 0.000227433 -4.50161e-21 -0.00079819 -2.89906e-21 0)
(0.002291 0.000270237 -5.73264e-19 -0.000740235 -4.0598e-19 0)
(0.00221995 0.000309056 1.00936e-18 -0.000683504 7.12885e-19 0)
(0.00781116 -0.00208035 3.78078e-18 -0.00788431 -3.18736e-18 5.91352e-33)
(0.00775175 -0.0020733 4.71004e-18 -0.00771756 2.23341e-18 0)
(0.00769047 -0.00208051 -3.56384e-18 -0.00754169 9.99326e-18 0)
(0.00762725 -0.00207825 -4.82745e-18 -0.00737776 -2.43004e-18 0)
(0.00756077 -0.00207366 2.53748e-18 -0.0072031 -8.8152e-19 0)
(0.00748588 -0.00206653 -4.10871e-20 -0.0070329 4.19778e-18 0)
(0.00740133 -0.00205209 5.09152e-18 -0.00684629 6.64674e-18 0)
(0.00730179 -0.0020353 -1.00383e-17 -0.00665654 -5.19844e-18 0)
(0.00718807 -0.00200891 1.26259e-18 -0.0064465 -1.17434e-17 0)
(0.00705442 -0.00197895 9.61122e-19 -0.0062277 7.20709e-18 0)
(0.00690382 -0.00193888 1.96133e-20 -0.00598677 1.13765e-19 0)
(0.00673139 -0.00189392 -2.8511e-18 -0.00573475 -3.01155e-18 0)
(0.00654212 -0.00183784 4.13652e-18 -0.00546204 -4.45139e-19 0)
(0.0063329 -0.00177632 1.08884e-18 -0.00517993 -3.0783e-18 0)
(0.00610704 -0.00170375 4.80236e-18 -0.00487905 2.59884e-18 0)
(0.00586399 -0.0016266 4.72995e-18 -0.00457179 2.5847e-18 0)
(0.00560704 -0.00153906 -2.31834e-18 -0.00425048 -4.6907e-18 0)
(0.00534235 -0.00144613 4.12408e-18 -0.00393267 4.47226e-18 0)
(0.00507008 -0.00134675 -1.76774e-18 -0.00360922 1.54329e-18 0)
(0.00479709 -0.00124342 1.61888e-18 -0.00329695 -2.67822e-18 0)
(0.00453038 -0.00113621 -1.39991e-18 -0.00299434 -1.55343e-18 0)
(0.00427135 -0.00102818 -2.48729e-25 -0.00271152 -2.2958e-25 0)
(0.00402888 -0.000919719 3.90975e-18 -0.00244899 2.17025e-18 0)
(0.0038051 -0.000812844 1.50352e-18 -0.00221614 1.1077e-18 0)
(0.00360332 -0.000708707 4.12618e-19 -0.00200817 4.34505e-19 0)
(0.00342615 -0.000608206 -6.44354e-18 -0.0018333 -3.7528e-18 0)
(0.00327369 -0.000511751 -1.34693e-20 -0.00168408 -7.37921e-21 0)
(0.00314524 -0.00042007 5.07305e-18 -0.00156443 2.74136e-18 0)
(0.00303685 -0.000332674 2.42651e-20 -0.00146424 1.21067e-20 0)
(0.00294415 -0.000252753 1.13847e-20 -0.00138197 5.57071e-21 0)
(0.00285342 -0.000173112 -1.14698e-18 -0.00129976 -7.90243e-19 0)
(0.00279748 -0.000104039 -1.84684e-18 -0.00125481 -1.10705e-18 0)
(0.00273861 -3.36311e-05 7.38236e-19 -0.00120413 5.51183e-19 0)
(0.00267524 2.7796e-05 1.82899e-19 -0.00115142 -5.71889e-20 0)
(0.0026152 8.65245e-05 -1.26124e-19 -0.00109881 6.65812e-20 0)
(0.00255297 0.000141637 -7.5737e-19 -0.00104831 -4.41495e-19 0)
(0.00248815 0.00019105 3.38686e-20 -0.000991572 -8.45167e-20 0)
(0.00242299 0.000238692 5.17448e-21 -0.000939053 3.26252e-21 0)
(0.00235521 0.000280279 -2.33539e-18 -0.00087999 -1.74886e-18 0)
(0.00228618 0.000319657 -7.36307e-19 -0.000824569 -5.07622e-19 0)
(0.00746467 -0.00230635 -2.6256e-18 -0.00751053 8.18608e-19 -1.73317e-35)
(0.0073709 -0.0022919 -5.70278e-18 -0.00731388 6.82627e-18 0)
(0.00728122 -0.00229058 9.33107e-19 -0.00710926 1.16235e-17 0)
(0.0071969 -0.00228203 -4.50065e-21 -0.00692693 4.96345e-20 0)
(0.0071144 -0.00227148 -1.70786e-18 -0.00673647 -1.11146e-17 0)
(0.00702894 -0.00225943 4.76436e-18 -0.00655753 -5.6718e-18 0)
(0.0069383 -0.00224035 2.51469e-18 -0.00636539 1.04643e-17 0)
(0.00683553 -0.00221914 9.23022e-18 -0.0061742 9.84687e-19 0)
(0.0067197 -0.00218737 -5.50179e-18 -0.00596324 -9.33212e-18 0)
(0.00658444 -0.00215113 -1.02362e-18 -0.00574521 -6.738e-18 0)
(0.00643044 -0.002102 5.44833e-18 -0.00550303 5.53445e-18 0)
(0.00625431 -0.00204606 3.59107e-18 -0.0052507 5.80546e-18 0)
(0.00605761 -0.00197618 -9.07023e-19 -0.00497412 -2.84567e-18 0)
(0.00583879 -0.00189879 -2.90436e-18 -0.00468727 -2.56665e-18 0)
(0.00560239 -0.00180835 -3.58435e-18 -0.00438144 1.82747e-21 0)
(0.00534895 -0.00171123 1.69381e-18 -0.00407063 6.63875e-20 0)
(0.00508752 -0.00160317 -1.37416e-18 -0.00375282 -2.0801e-18 0)
(0.00482005 -0.00149052 1.37144e-18 -0.00344146 3.4535e-18 0)
(0.00455372 -0.0013717 4.41003e-18 -0.00313444 2.33667e-18 0)
(0.00429719 -0.00125191 -6.15496e-18 -0.00284967 -4.85903e-18 0)
(0.00405318 -0.00113006 8.90941e-19 -0.00258152 -3.64196e-19 0)
(0.00383005 -0.0010119 2.14092e-18 -0.00234569 1.77452e-18 0)
(0.00362995 -0.000895118 1.68644e-18 -0.002136 1.02476e-18 0)
(0.00345676 -0.000784717 2.27168e-18 -0.00196238 1.20599e-18 0)
(0.00330978 -0.000678494 3.73189e-18 -0.00181557 2.12827e-18 0)
(0.00319017 -0.000578923 -4.81893e-18 -0.00170247 -2.25713e-18 0)
(0.00309368 -0.000484097 -4.37371e-18 -0.00161024 -2.70524e-18 0)
(0.00301517 -0.000396083 1.81071e-18 -0.0015407 1.33772e-18 0)
(0.00295212 -0.000313452 -9.07192e-19 -0.00148196 -6.78424e-19 0)
(0.00289643 -0.000234979 4.77999e-18 -0.00143494 2.44148e-18 0)
(0.00285307 -0.000161697 1.10955e-20 -0.00139535 5.2149e-21 0)
(0.00281335 -9.26241e-05 -3.44643e-19 -0.00136188 6.58685e-20 0)
(0.00276224 -2.70249e-05 1.3394e-18 -0.00131664 4.63956e-19 0)
(0.00271167 3.35212e-05 -2.13366e-19 -0.00127264 8.97974e-20 0)
(0.00265911 9.14585e-05 -9.02644e-19 -0.00122651 -4.98067e-19 0)
(0.00260222 0.000145444 -6.94106e-19 -0.00117799 -5.66354e-19 0)
(0.00254381 0.000195449 -7.50745e-19 -0.0011264 -4.44606e-19 0)
(0.00248339 0.000242417 2.0132e-18 -0.00107566 1.37517e-18 0)
(0.00242102 0.000285208 -6.15652e-19 -0.0010205 -5.16955e-19 0)
(0.00235718 0.000324356 -5.22288e-19 -0.000967265 -2.24699e-19 0)
(0.00713521 -0.00251409 -2.82634e-20 -0.00715002 5.77714e-20 2.88328e-36)
(0.00700626 -0.00248964 -4.1181e-18 -0.00692273 -1.55468e-18 0)
(0.00688296 -0.00247549 2.33293e-18 -0.00668484 -1.20683e-18 0)
(0.00676872 -0.00245591 8.72461e-18 -0.00647548 -5.52322e-19 0)
(0.00665862 -0.00243441 -3.96052e-18 -0.00625808 -5.54607e-18 0)
(0.0065487 -0.00241174 -2.08202e-18 -0.00605698 -2.75604e-18 0)
(0.00643647 -0.00238171 -6.4166e-18 -0.00584422 2.48851e-18 0)
(0.0063146 -0.00234936 6.48184e-18 -0.00563651 1.1354e-18 0)
(0.00618191 -0.00230544 3.82015e-19 -0.00541061 3.26395e-18 0)
(0.0060314 -0.00225639 -3.06466e-18 -0.00518086 -5.60855e-18 0)
(0.00586235 -0.00219258 -6.47923e-18 -0.00492708 -1.72313e-18 0)
(0.00567177 -0.00212079 -1.01768e-18 -0.00466536 2.91817e-18 0)
(0.00545997 -0.00203314 -1.54695e-18 -0.00437913 5.33451e-18 0)
(0.00522883 -0.00193653 -5.35861e-19 -0.0040872 2.37941e-18 0)
(0.00498301 -0.00182651 -4.55568e-18 -0.00377982 -2.21176e-18 0)
(0.00472708 -0.0017096 -2.99427e-18 -0.00347636 -2.08492e-18 0)
(0.00447089 -0.00158401 -1.45831e-18 -0.00317421 -2.67519e-19 0)
(0.00421795 -0.00145595 -2.77136e-18 -0.00288957 -7.4545e-19 0)
(0.00397937 -0.00132524 4.34857e-18 -0.00262212 2.24517e-18 0)
(0.0037603 -0.00119768 -3.55982e-18 -0.00238734 -2.3243e-18 0)
(0.00356548 -0.00107211 -4.18706e-18 -0.00217911 -2.23351e-18 0)
(0.00340004 -0.00095389 2.56467e-18 -0.00201054 1.18618e-18 0)
(0.00326443 -0.000840487 2.89887e-18 -0.00187208 1.51034e-18 0)
(0.00315716 -0.000735912 -2.80788e-18 -0.00176853 -1.45855e-18 0)
(0.00307761 -0.000636156 2.93726e-18 -0.00169061 2.16224e-18 0)
(0.00301797 -0.000544388 3.35648e-18 -0.00163628 1.33309e-18 0)
(0.00297457 -0.000457231 -4.11377e-18 -0.00159507 -2.00219e-18 0)
(0.0029395 -0.000376787 1.50799e-18 -0.00156436 6.17971e-19 0)
(0.00291107 -0.000299206 1.47641e-18 -0.00153735 6.26371e-19 0)
(0.00288384 -0.000226335 -4.82548e-19 -0.00151368 1.05513e-19 0)
(0.00285289 -0.000157794 1.67701e-18 -0.00148351 1.37637e-18 0)
(0.0028205 -9.0789e-05 -8.21478e-19 -0.00145623 -6.77099e-19 0)
(0.0027803 -2.77552e-05 2.39292e-18 -0.0014188 1.99116e-18 0)
(0.00273837 3.17896e-05 2.30356e-18 -0.00138237 1.93879e-18 0)
(0.00269283 8.94111e-05 9.6147e-19 -0.00134065 5.19507e-19 0)
(0.00264336 0.000142143 -1.58281e-19 -0.00129828 1.26265e-19 0)
(0.00259186 0.000192503 5.86498e-19 -0.00125098 7.40477e-19 0)
(0.00253849 0.000239243 7.51439e-20 -0.00120582 -1.41619e-19 0)
(0.00248283 0.000282867 6.10094e-19 -0.00115456 7.24023e-19 0)
(0.00242465 0.000322398 3.29833e-19 -0.00110543 4.07533e-19 0)
(0.0068244 -0.00270669 -2.24973e-18 -0.00680493 4.51212e-18 1.75789e-32)
(0.00666495 -0.00267009 2.27152e-18 -0.00655081 -1.35439e-18 0)
(0.00650611 -0.00264016 3.77761e-18 -0.00627881 -1.31346e-17 0)
(0.00635382 -0.00260354 9.74217e-19 -0.00603429 1.00283e-17 0)
(0.00620397 -0.00256395 -5.01233e-19 -0.00577884 7.25639e-18 0)
(0.00605395 -0.00252213 -4.05202e-18 -0.00554057 1.97415e-18 0)
(0.00590187 -0.00247171 -2.03136e-18 -0.00529025 -2.3392e-18 0)
(0.00574261 -0.00241856 -2.37908e-18 -0.00504873 -5.45714e-18 0)
(0.00557373 -0.00235264 4.12108e-18 -0.00479021 1.6561e-18 0)
(0.00539066 -0.00228158 5.91457e-19 -0.00453284 2.72615e-18 0)
(0.00519197 -0.0021949 1.56766e-18 -0.00425495 5.10759e-18 0)
(0.00497684 -0.0021009 -2.35027e-18 -0.0039757 2.83084e-18 0)
(0.00474695 -0.00199144 -1.11434e-18 -0.00367951 -2.06446e-18 0)
(0.00450661 -0.00187537 2.18007e-19 -0.00338803 -1.84732e-18 0)
(0.004262 -0.00174798 1.45459e-18 -0.00309289 1.80059e-19 0)
(0.00402063 -0.00161784 -2.97244e-18 -0.0028162 -1.77151e-18 0)
(0.00379101 -0.00148292 -1.31106e-18 -0.00255364 -4.082e-19 0)
(0.00358026 -0.00135145 -3.04664e-18 -0.00232417 -1.6253e-18 0)
(0.00339606 -0.00122175 -1.90554e-18 -0.0021232 -9.9783e-19 0)
(0.0032417 -0.00110002 1.90731e-18 -0.00196344 8.62229e-19 0)
(0.00312031 -0.000984347 -2.13815e-18 -0.00183628 -1.38626e-18 0)
(0.00303076 -0.000877683 -8.7537e-19 -0.00174832 2.44504e-20 0)
(0.00297001 -0.000777882 1.87329e-18 -0.00168622 6.58806e-19 0)
(0.00293244 -0.000685666 9.94771e-19 -0.00165148 7.71843e-19 0)
(0.00291207 -0.000598903 -5.2102e-25 -0.00162973 -1.88643e-25 0)
(0.00290048 -0.000517981 3.6047e-18 -0.0016198 2.1618e-18 0)
(0.00289374 -0.000440799 -6.97538e-19 -0.00161067 1.54604e-19 0)
(0.00288675 -0.00036706 -1.52112e-18 -0.00160449 -5.99362e-19 0)
(0.00287749 -0.00029578 -5.94535e-19 -0.0015928 1.32919e-19 0)
(0.00286178 -0.00022747 4.81428e-19 -0.00157855 -1.50415e-19 0)
(0.00284157 -0.000160699 3.43289e-18 -0.00155751 1.88821e-18 0)
(0.00281606 -9.68193e-05 -1.58585e-18 -0.00153515 -4.26143e-19 0)
(0.00278275 -3.55966e-05 -1.50487e-18 -0.0015028 -4.26302e-19 0)
(0.0027499 2.27167e-05 1.34361e-18 -0.00147396 3.92147e-19 0)
(0.00271045 7.95583e-05 1.76437e-18 -0.00143687 1.19794e-18 0)
(0.00267015 0.000131477 -1.13725e-18 -0.00140153 -3.57522e-19 0)
(0.00262616 0.000182193 1.34211e-19 -0.00136056 -1.699e-19 0)
(0.00258098 0.000228638 3.03698e-18 -0.00132128 2.2175e-18 0)
(0.00253243 0.000272898 -8.3584e-19 -0.00127578 -2.77624e-19 0)
(0.00248064 0.000312699 1.0375e-18 -0.00123065 8.91624e-19 0)
(0.00651672 -0.00288037 -1.25101e-18 -0.00645991 -1.18985e-18 3.11127e-33)
(0.00633107 -0.00282946 -9.43598e-19 -0.00618248 -6.61963e-18 0)
(0.00613697 -0.002781 1.41461e-25 -0.00587733 -1.12987e-24 0)
(0.0059422 -0.0027222 -2.70647e-18 -0.00559373 8.45744e-18 0)
(0.00574386 -0.00265658 3.67603e-18 -0.00529252 1.17552e-18 0)
(0.0055407 -0.00258608 -1.86595e-18 -0.00500554 1.00785e-18 0)
(0.00533363 -0.00250411 3.47469e-18 -0.00470399 -4.69926e-18 0)
(0.00511945 -0.00241854 -4.03544e-18 -0.0044132 -4.0716e-18 0)
(0.00489707 -0.00231908 -5.40695e-21 -0.0041065 -2.87238e-20 0)
(0.00466636 -0.00221587 -3.18004e-18 -0.00380883 8.50391e-19 0)
(0.0044278 -0.00209887 2.37575e-18 -0.00349882 1.77082e-18 0)
(0.00418424 -0.00197826 3.96644e-18 -0.00320097 1.60207e-18 0)
(0.00394059 -0.0018474 8.86461e-20 -0.00290191 -1.64423e-18 0)
(0.00370309 -0.00171547 1.30109e-18 -0.00262605 1.5713e-19 0)
(0.00347969 -0.00157979 4.09747e-18 -0.00236555 1.82402e-18 0)
(0.00327789 -0.00144852 4.13478e-18 -0.0021426 1.90044e-18 0)
(0.00310474 -0.00131954 -1.124e-18 -0.0019495 -5.186e-19 0)
(0.00296478 -0.00120006 -8.29277e-19 -0.00180236 -1.65598e-19 0)
(0.0028612 -0.00108703 2.00213e-20 -0.00169041 6.95566e-21 0)
(0.00279182 -0.000984874 -2.04637e-18 -0.00162092 -1.4523e-18 0)
(0.00275546 -0.000889752 -2.93904e-18 -0.00158045 -4.01531e-19 0)
(0.00274343 -0.000803591 -1.01307e-18 -0.00156901 -7.90025e-19 0)
(0.0027503 -0.000722146 9.27395e-19 -0.00157129 -2.32764e-19 0)
(0.00276659 -0.000646971 -8.75854e-19 -0.00158628 2.32624e-19 0)
(0.0027868 -0.000573549 -2.71434e-18 -0.00160074 -1.36458e-18 0)
(0.0028051 -0.000503968 4.48893e-18 -0.00161657 2.94364e-18 0)
(0.00281928 -0.000434291 2.3193e-25 -0.00162531 8.86664e-26 0)
(0.00282718 -0.000367213 1.51752e-18 -0.00163132 5.76934e-19 0)
(0.00282668 -0.000300162 2.03966e-18 -0.00162706 4.00107e-19 0)
(0.00282083 -0.000235051 -2.24391e-18 -0.00162138 -1.32976e-18 0)
(0.00280753 -0.000171569 -1.75995e-18 -0.00160605 -3.87658e-19 0)
(0.00278861 -0.000110337 8.24511e-19 -0.00158916 7.33314e-19 0)
(0.00276618 -5.06666e-05 1.54645e-18 -0.00156607 3.78506e-19 0)
(0.00274194 7.08933e-06 -7.87146e-19 -0.00154491 -7.12305e-19 0)
(0.00271194 6.2212e-05 -1.82967e-18 -0.00151525 -1.2368e-18 0)
(0.00268065 0.00011415 1.74633e-18 -0.00148763 1.21193e-18 0)
(0.00264479 0.00016415 -4.04961e-18 -0.00145283 -3.03929e-18 0)
(0.00260748 0.000210425 5.60319e-19 -0.00142006 8.54021e-19 0)
(0.00256571 0.000254764 1.81337e-25 -0.00137937 1.10882e-25 0)
(0.00252035 0.000294572 8.31629e-19 -0.00133939 6.20998e-19 0)
(0.00619429 -0.00302754 1.26287e-19 -0.00609758 3.32351e-18 1.44633e-32)
(0.00598285 -0.00295758 5.14695e-19 -0.00579657 -3.72805e-18 0)
(0.005751 -0.00288541 -2.77234e-18 -0.00545656 -8.21408e-18 0)
(0.00551084 -0.00279852 1.6298e-18 -0.00513147 2.15887e-18 0)
(0.00525823 -0.00269898 1.59144e-18 -0.00478028 5.17323e-18 0)
(0.00499576 -0.00259168 1.70314e-18 -0.00443986 -9.20784e-19 0)
(0.00472397 -0.00246828 3.22989e-18 -0.00407975 -1.58894e-18 0)
(0.00444487 -0.00234125 4.69159e-21 -0.00373168 2.71978e-20 0)
(0.00416097 -0.00220013 -8.3745e-19 -0.00337191 2.61041e-18 0)
(0.0038776 -0.00205802 -1.34841e-18 -0.00303145 3.52146e-19 0)
(0.00359984 -0.00190797 -3.29159e-18 -0.00269375 -3.03143e-18 0)
(0.00333607 -0.00176194 2.41212e-18 -0.00238861 1.35697e-18 0)
(0.00309257 -0.00161517 1.50758e-20 -0.00210426 1.2231e-20 0)
(0.00288014 -0.00147883 -4.22754e-18 -0.00186849 -2.18089e-18 0)