/*--------------------------------*- C++ -*----------------------------------*\
| =========                 |                                                 |
| \\      /  F ield         | OpenFOAM: The Open Source CFD Toolbox           |
|  \\    /   O peration     | Version:  v2012                                 |
|   \\  /    A nd           | Website:  www.openfoam.com                      |
|    \\/     M anipulation  |                                                 |
\*---------------------------------------------------------------------------*/
FoamFile
{
    version     2.0;
    format      ascii;
    class       volScalarField;
    location    "16";
    object      sigmaHyd;
}
// * * * * * * * * * * * * * * * * * * * * * * * * * * * * * * * * * * * * * //

dimensions      [1 -1 -2 0 0 0 0];


internalField   nonuniform List<scalar> 
16000
(
-8.99458e+06
-2.13265e+06
4.37197e+06
1.08224e+07
1.70886e+07
2.31003e+07
2.91147e+07
3.47478e+07
4.04737e+07
4.57654e+07
5.11793e+07
5.61525e+07
6.12503e+07
6.59136e+07
7.06896e+07
7.50574e+07
7.95079e+07
8.35695e+07
8.76871e+07
9.14308e+07
9.51733e+07
9.85562e+07
1.01879e+08
1.04818e+08
1.07634e+08
1.10032e+08
1.1224e+08
1.13981e+08
1.15468e+08
1.1644e+08
1.1713e+08
1.17301e+08
1.17183e+08
1.16599e+08
1.15725e+08
1.14525e+08
1.13077e+08
1.11391e+08
1.08857e+08
1.04997e+08
-8.77521e+06
-1.92109e+06
4.58706e+06
1.10104e+07
1.72788e+07
2.32634e+07
2.92732e+07
3.48821e+07
4.06014e+07
4.58753e+07
5.12854e+07
5.62435e+07
6.13406e+07
6.60011e+07
7.07729e+07
7.51392e+07
7.95853e+07
8.36366e+07
8.7737e+07
9.14436e+07
9.51512e+07
9.84597e+07
1.01704e+08
1.0453e+08
1.07216e+08
1.09462e+08
1.11479e+08
1.1303e+08
1.14291e+08
1.15069e+08
1.15533e+08
1.15534e+08
1.15231e+08
1.14535e+08
1.13566e+08
1.1235e+08
1.10872e+08
1.09346e+08
1.0716e+08
1.03702e+08
-8.333e+06
-1.50413e+06
5.01444e+06
1.13819e+07
1.76542e+07
2.35879e+07
2.95893e+07
3.51554e+07
4.08628e+07
4.61035e+07
5.15084e+07
5.64433e+07
6.15364e+07
6.61796e+07
7.09533e+07
7.52872e+07
7.97256e+07
8.37279e+07
8.77792e+07
9.14044e+07
9.50041e+07
9.81705e+07
1.01231e+08
1.03841e+08
1.06256e+08
1.08193e+08
1.09863e+08
1.11049e+08
1.11927e+08
1.12329e+08
1.1244e+08
1.12117e+08
1.11573e+08
1.10676e+08
1.09654e+08
1.08374e+08
1.07045e+08
1.05584e+08
1.04045e+08
1.01332e+08
-7.66503e+06
-894832
5.64779e+06
1.19276e+07
1.82073e+07
2.40658e+07
3.00573e+07
3.55645e+07
4.12564e+07
4.64521e+07
5.18424e+07
5.67479e+07
6.1826e+07
6.64366e+07
7.11864e+07
7.54777e+07
7.98533e+07
8.37811e+07
8.7715e+07
9.11988e+07
9.46014e+07
9.75319e+07
1.00296e+08
1.02548e+08
1.0457e+08
1.06042e+08
1.07252e+08
1.07916e+08
1.08333e+08
1.08247e+08
1.07999e+08
1.07335e+08
1.06605e+08
1.05543e+08
1.04566e+08
1.03276e+08
1.02221e+08
1.00796e+08
9.97904e+07
9.81853e+07
-6.76629e+06
-104907
6.47953e+06
1.26454e+07
1.89368e+07
2.47024e+07
3.06829e+07
3.61162e+07
4.17922e+07
4.69292e+07
5.23012e+07
5.71532e+07
6.22082e+07
6.6753e+07
7.14483e+07
7.56417e+07
7.9911e+07
8.36724e+07
8.74187e+07
9.06387e+07
9.37464e+07
9.62897e+07
9.86366e+07
1.00384e+08
1.01893e+08
1.02793e+08
1.03469e+08
1.03587e+08
1.03558e+08
1.03071e+08
1.02581e+08
1.01702e+08
1.00887e+08
9.98953e+07
9.89884e+07
9.79389e+07
9.70401e+07
9.5949e+07
9.5079e+07
9.39258e+07
-5.63488e+06
856689
7.49116e+06
1.35216e+07
1.98229e+07
2.549e+07
3.14557e+07
3.68092e+07
4.246e+07
4.75283e+07
5.28637e+07
5.76389e+07
6.26253e+07
6.70631e+07
7.164e+07
7.56644e+07
7.97301e+07
8.32254e+07
8.66609e+07
8.94892e+07
9.21528e+07
9.4186e+07
9.59697e+07
9.71434e+07
9.80353e+07
9.84044e+07
9.85189e+07
9.82863e+07
9.78472e+07
9.72517e+07
9.65697e+07
9.57081e+07
9.50824e+07
9.41871e+07
9.35665e+07
9.26997e+07
9.20422e+07
9.11883e+07
9.04612e+07
8.96258e+07
-4.26707e+06
1.99423e+06
8.67876e+06
1.45534e+07
2.08637e+07
2.6424e+07
3.23773e+07
3.76399e+07
4.32583e+07
4.82254e+07
5.34947e+07
5.81372e+07
6.30044e+07
6.72571e+07
7.16326e+07
7.53785e+07
7.9133e+07
8.22317e+07
8.52168e+07
8.7508e+07
8.96019e+07
9.09902e+07
9.21607e+07
9.2689e+07
9.30503e+07
9.29162e+07
9.27274e+07
9.22139e+07
9.17357e+07
9.11272e+07
9.06303e+07
8.99893e+07
8.95112e+07
8.88891e+07
8.84565e+07
8.77722e+07
8.73004e+07
8.65631e+07
8.60545e+07
8.52607e+07
-2.67515e+06
3.32624e+06
1.00309e+07
1.57482e+07
2.2046e+07
2.74988e+07
3.34199e+07
3.85774e+07
4.41273e+07
4.89554e+07
5.40985e+07
5.85439e+07
6.32038e+07
6.71716e+07
7.12223e+07
7.45685e+07
7.78576e+07
8.04175e+07
8.27914e+07
8.44386e+07
8.58468e+07
8.65874e+07
8.71471e+07
8.71722e+07
8.71625e+07
8.67825e+07
8.65343e+07
8.60105e+07
8.57595e+07
8.52537e+07
8.50338e+07
8.46692e+07
8.43269e+07
8.3944e+07
8.35682e+07
8.308e+07
8.26822e+07
8.21172e+07
8.16973e+07
8.10785e+07
-863783
4.87297e+06
1.15572e+07
1.71055e+07
2.33652e+07
2.86836e+07
3.45477e+07
3.95548e+07
4.49927e+07
4.96149e+07
5.45575e+07
5.87074e+07
6.3049e+07
6.65952e+07
7.01859e+07
7.29587e+07
7.56395e+07
7.74887e+07
7.91734e+07
8.00896e+07
8.08717e+07
8.10543e+07
8.12202e+07
8.10037e+07
8.09082e+07
8.05986e+07
8.04708e+07
8.02165e+07
8.01337e+07
7.9926e+07
7.98804e+07
7.95827e+07
7.94211e+07
7.91002e+07
7.88774e+07
7.84628e+07
7.82182e+07
7.77393e+07
7.74824e+07
7.69546e+07
1.13588e+06
6.6579e+06
1.32596e+07
1.86393e+07
2.47993e+07
2.99471e+07
3.56777e+07
4.04758e+07
4.57057e+07
5.00398e+07
5.46595e+07
5.84e+07
6.22675e+07
6.52506e+07
6.81979e+07
7.02583e+07
7.21799e+07
7.32717e+07
7.42502e+07
7.45652e+07
7.49019e+07
7.48088e+07
7.48879e+07
7.47226e+07
7.48028e+07
7.47063e+07
7.48458e+07
7.47983e+07
7.49398e+07
7.48547e+07
7.49032e+07
7.47194e+07
7.46638e+07
7.44298e+07
7.42925e+07
7.40026e+07
7.38271e+07
7.34826e+07
7.33047e+07
7.29161e+07
3.31381e+06
8.6675e+06
1.51456e+07
2.03275e+07
2.63282e+07
3.12179e+07
3.67291e+07
4.11982e+07
4.61165e+07
5.00226e+07
5.41903e+07
5.73574e+07
6.05895e+07
6.28273e+07
6.49917e+07
6.62253e+07
6.7389e+07
6.78078e+07
6.82961e+07
6.83027e+07
6.85421e+07
6.85077e+07
6.8776e+07
6.88514e+07
6.91869e+07
6.93312e+07
6.96483e+07
6.97587e+07
6.99777e+07
6.99681e+07
7.00864e+07
6.99681e+07
7.00067e+07
6.98268e+07
6.98066e+07
6.9593e+07
6.95307e+07
6.92664e+07
6.92032e+07
6.88893e+07
5.64138e+06
1.08661e+07
1.7176e+07
2.21295e+07
2.788e+07
3.24271e+07
3.75799e+07
4.16026e+07
4.60287e+07
4.93586e+07
5.2855e+07
5.52683e+07
5.7651e+07
5.90131e+07
6.03149e+07
6.08065e+07
6.13929e+07
6.14711e+07
6.18395e+07
6.19285e+07
6.23846e+07
6.26314e+07
6.3188e+07
6.35105e+07
6.40407e+07
6.43121e+07
6.47186e+07
6.48753e+07
6.51384e+07
6.51847e+07
6.53863e+07
6.53203e+07
6.54172e+07
6.53388e+07
6.53886e+07
6.52637e+07
6.52751e+07
6.50962e+07
6.50956e+07
6.48764e+07
8.1098e+06
1.31642e+07
1.92895e+07
2.39311e+07
2.93643e+07
3.34524e+07
3.81294e+07
4.15384e+07
4.52902e+07
4.77989e+07
5.04019e+07
5.18167e+07
5.32281e+07
5.36956e+07
5.4326e+07
5.43966e+07
5.48548e+07
5.50339e+07
5.56674e+07
5.60853e+07
5.68712e+07
5.73818e+07
5.81342e+07
5.85658e+07
5.91804e+07
5.94659e+07
5.99335e+07
6.00856e+07
6.04309e+07
6.05142e+07
6.07699e+07
6.07981e+07
6.09788e+07
6.0963e+07
6.10742e+07
6.10025e+07
6.10799e+07
6.09537e+07
6.10285e+07
6.0877e+07
1.06992e+07
1.54167e+07
2.12949e+07
2.55441e+07
3.06021e+07
3.41801e+07
3.82596e+07
4.09241e+07
4.37433e+07
4.51946e+07
4.66027e+07
4.69171e+07
4.73735e+07
4.72412e+07
4.76181e+07
4.7766e+07
4.85303e+07
4.91046e+07
5.01406e+07
5.08867e+07
5.19021e+07
5.25509e+07
5.33724e+07
5.38527e+07
5.44763e+07
5.48145e+07
5.52765e+07
5.55188e+07
5.58401e+07
5.60617e+07
5.62799e+07
5.64318e+07
5.6582e+07
5.66441e+07
5.67919e+07
5.67688e+07
5.6902e+07
5.68357e+07
5.69731e+07
5.68876e+07
1.32978e+07
1.75163e+07
2.31766e+07
2.69726e+07
3.16464e+07
3.45929e+07
3.7907e+07
3.95254e+07
4.10792e+07
4.12052e+07
4.13729e+07
4.07261e+07
4.0664e+07
4.04558e+07
4.10791e+07
4.16683e+07
4.28927e+07
4.3866e+07
4.51986e+07
4.6109e+07
4.72042e+07
4.78846e+07
4.87323e+07
4.92542e+07
4.99327e+07
5.03363e+07
5.08487e+07
5.11523e+07
5.15638e+07
5.17487e+07
5.20771e+07
5.21612e+07
5.24219e+07
5.24302e+07
5.26788e+07
5.26444e+07
5.28694e+07
5.28137e+07
5.30233e+07
5.29593e+07
1.57285e+07
1.95216e+07
2.49267e+07
2.81331e+07
3.21437e+07
3.4091e+07
3.61137e+07
3.64245e+07
3.65226e+07
3.56159e+07
3.51012e+07
3.44165e+07
3.46722e+07
3.49231e+07
3.59742e+07
3.68294e+07
3.81693e+07
3.91357e+07
4.04046e+07
4.1242e+07
4.23356e+07
4.30644e+07
4.40086e+07
4.46298e+07
4.53676e+07
4.57975e+07
4.63707e+07
4.67022e+07
4.71585e+07
4.73892e+07
4.77789e+07
4.78953e+07
4.82005e+07
4.8311e+07
4.85786e+07
4.8626e+07
4.88631e+07
4.8863e+07
4.9087e+07
4.90706e+07
1.8129e+07
2.12643e+07
2.61983e+07
2.82962e+07
3.10724e+07
3.16585e+07
3.21968e+07
3.13657e+07
3.09447e+07
3.0264e+07
3.03021e+07
3.01475e+07
3.10581e+07
3.17854e+07
3.29687e+07
3.36842e+07
3.47835e+07
3.55287e+07
3.67249e+07
3.74553e+07
3.83965e+07
3.90018e+07
3.98732e+07
4.03571e+07
4.10231e+07
4.14545e+07
4.20476e+07
4.23986e+07
4.2872e+07
4.31045e+07
4.35098e+07
4.37077e+07
4.40619e+07
4.41886e+07
4.44753e+07
4.45349e+07
4.48057e+07
4.48234e+07
4.50911e+07
4.51103e+07
2.02925e+07
2.22131e+07
2.60398e+07
2.67929e+07
2.823e+07
2.75232e+07
2.76939e+07
2.68959e+07
2.67438e+07
2.65961e+07
2.79769e+07
2.87143e+07
3.00522e+07
3.06162e+07
3.16879e+07
3.20997e+07
3.29937e+07
3.33568e+07
3.42149e+07
3.46908e+07
3.55596e+07
3.60534e+07
3.69699e+07
3.7517e+07
3.80895e+07
3.82987e+07
3.87863e+07
3.89465e+07
3.9307e+07
3.94893e+07
3.98558e+07
3.99852e+07
4.02552e+07
4.03223e+07
4.05764e+07
4.06463e+07
4.09077e+07
4.09604e+07
4.12222e+07
4.12879e+07
2.16034e+07
2.1619e+07
2.47859e+07
2.39668e+07
2.51958e+07
2.42333e+07
2.40691e+07
2.37484e+07
2.53347e+07
2.59605e+07
2.7358e+07
2.77699e+07
2.89213e+07
2.93637e+07
3.03969e+07
3.08298e+07
3.17443e+07
3.21316e+07
3.29179e+07
3.32023e+07
3.37945e+07
3.40158e+07
3.45833e+07
3.49403e+07
3.55949e+07
3.59051e+07
3.65039e+07
3.67881e+07
3.7074e+07
3.70738e+07
3.72609e+07
3.71976e+07
3.73459e+07
3.73603e+07
3.75531e+07
3.75802e+07
3.77424e+07
3.77418e+07
3.79011e+07
3.7944e+07
2.13846e+07
2.02302e+07
2.30639e+07
2.19959e+07
2.24751e+07
2.1598e+07
2.3248e+07
2.36892e+07
2.49924e+07
2.52775e+07
2.64753e+07
2.68224e+07
2.791e+07
2.82538e+07
2.92139e+07
2.9537e+07
3.03837e+07
3.06936e+07
3.14485e+07
3.17534e+07
3.24172e+07
3.26904e+07
3.32385e+07
3.34456e+07
3.38164e+07
3.39518e+07
3.43176e+07
3.45746e+07
3.50166e+07
3.51461e+07
3.54711e+07
3.5495e+07
3.5571e+07
3.5479e+07
3.55013e+07
3.53624e+07
3.5361e+07
3.52929e+07
3.53353e+07
3.537e+07
2.01752e+07
1.96289e+07
2.18944e+07
2.01043e+07
2.15405e+07
2.18669e+07
2.30508e+07
2.32355e+07
2.43908e+07
2.46551e+07
2.57286e+07
2.6006e+07
2.6977e+07
2.72673e+07
2.8142e+07
2.84326e+07
2.9212e+07
2.94888e+07
3.01728e+07
3.04256e+07
3.10163e+07
3.12491e+07
3.17668e+07
3.19881e+07
3.24357e+07
3.26154e+07
3.30183e+07
3.30717e+07
3.32873e+07
3.33342e+07
3.3582e+07
3.37413e+07
3.39661e+07
3.39849e+07
3.40732e+07
3.40041e+07
3.39384e+07
3.38418e+07
3.37601e+07
3.37525e+07
1.99507e+07
1.94045e+07
2.08835e+07
2.03689e+07
2.19111e+07
2.1585e+07
2.28694e+07
2.28361e+07
2.39428e+07
2.40333e+07
2.50273e+07
2.51935e+07
2.60948e+07
2.63009e+07
2.7115e+07
2.73396e+07
2.80709e+07
2.83018e+07
2.89543e+07
2.91812e+07
2.97561e+07
2.99664e+07
3.04633e+07
3.06458e+07
3.10691e+07
3.12175e+07
3.15895e+07
3.17428e+07
3.2029e+07
3.21191e+07
3.23285e+07
3.23437e+07
3.24534e+07
3.244e+07
3.25581e+07
3.26288e+07
3.2695e+07
3.26765e+07
3.26317e+07
3.26443e+07
2.01828e+07
2.02158e+07
2.10868e+07
2.07871e+07
2.16671e+07
2.16036e+07
2.2462e+07
2.25042e+07
2.33498e+07
2.34667e+07
2.42827e+07
2.44466e+07
2.52175e+07
2.54117e+07
2.61282e+07
2.63391e+07
2.69956e+07
2.72122e+07
2.78061e+07
2.80197e+07
2.85513e+07
2.87559e+07
2.92279e+07
2.94176e+07
2.9831e+07
2.99971e+07
3.03512e+07
3.04881e+07
3.07811e+07
3.08949e+07
3.11393e+07
3.12349e+07
3.14221e+07
3.14755e+07
3.15884e+07
3.15947e+07
3.16248e+07
3.16147e+07
3.16137e+07
3.16543e+07
2.09081e+07
2.10645e+07
2.10733e+07
2.10077e+07
2.14972e+07
2.14136e+07
2.20813e+07
2.20637e+07
2.27842e+07
2.28352e+07
2.35563e+07
2.36638e+07
2.43598e+07
2.45084e+07
2.51652e+07
2.53411e+07
2.59512e+07
2.61428e+07
2.67023e+07
2.68998e+07
2.74069e+07
2.76018e+07
2.80565e+07
2.82421e+07
2.86458e+07
2.88183e+07
2.91732e+07
2.93315e+07
2.96358e+07
2.97736e+07
3.0029e+07
3.01474e+07
3.03563e+07
3.04654e+07
3.06349e+07
3.07465e+07
3.08691e+07
3.0979e+07
3.10446e+07
3.12036e+07
2.12622e+07
2.09442e+07
2.1021e+07
2.07954e+07
2.11585e+07
2.10487e+07
2.15517e+07
2.15364e+07
2.21075e+07
2.21651e+07
2.27621e+07
2.28735e+07
2.34696e+07
2.36194e+07
2.41974e+07
2.43733e+07
2.49225e+07
2.5114e+07
2.56282e+07
2.58269e+07
2.6303e+07
2.65021e+07
2.69392e+07
2.71329e+07
2.7531e+07
2.77151e+07
2.80746e+07
2.82468e+07
2.85688e+07
2.87295e+07
2.90159e+07
2.91667e+07
2.9418e+07
2.95611e+07
2.97785e+07
2.99219e+07
3.01098e+07
3.02693e+07
3.04373e+07
3.06779e+07
2.0892e+07
2.06608e+07
2.05592e+07
2.04253e+07
2.06083e+07
2.05417e+07
2.0904e+07
2.09005e+07
2.13638e+07
2.14172e+07
2.19301e+07
2.20314e+07
2.25611e+07
2.27004e+07
2.3226e+07
2.33933e+07
2.3902e+07
2.40883e+07
2.45723e+07
2.47697e+07
2.52246e+07
2.54265e+07
2.58505e+07
2.60516e+07
2.64444e+07
2.66411e+07
2.70032e+07
2.71935e+07
2.75259e+07
2.7709e+07
2.80134e+07
2.81908e+07
2.84694e+07
2.86455e+07
2.89005e+07
2.90808e+07
2.93141e+07
2.95046e+07
2.97193e+07
2.99806e+07
2.03034e+07
2.00051e+07
1.99436e+07
1.97591e+07
1.99189e+07
1.98313e+07
2.01359e+07
2.01288e+07
2.05228e+07
2.05807e+07
2.10255e+07
2.11342e+07
2.16029e+07
2.17502e+07
2.22247e+07
2.24001e+07
2.28682e+07
2.30627e+07
2.35168e+07
2.3723e+07
2.41586e+07
2.43704e+07
2.47852e+07
2.49979e+07
2.53911e+07
2.56015e+07
2.59733e+07
2.61797e+07
2.65309e+07
2.67334e+07
2.70655e+07
2.72658e+07
2.75801e+07
2.77818e+07
2.80801e+07
2.82889e+07
2.85734e+07
2.87972e+07
2.90698e+07
2.93741e+07
1.93538e+07
1.9129e+07
1.90408e+07
1.89244e+07
1.90236e+07
1.89878e+07
1.92254e+07
1.92542e+07
1.95858e+07
1.96674e+07
2.0058e+07
2.01826e+07
2.0606e+07
2.07649e+07
2.12027e+07
2.13875e+07
2.18272e+07
2.20306e+07
2.24638e+07
2.26795e+07
2.31013e+07
2.33238e+07
2.37314e+07
2.39565e+07
2.43489e+07
2.45736e+07
2.49509e+07
2.51734e+07
2.55364e+07
2.57565e+07
2.61064e+07
2.63255e+07
2.66636e+07
2.68848e+07
2.72127e+07
2.74403e+07
2.77594e+07
2.79993e+07
2.83111e+07
2.86318e+07
1.82298e+07
1.80395e+07
1.79926e+07
1.78936e+07
1.80033e+07
1.79816e+07
1.82074e+07
1.82508e+07
1.85579e+07
1.86548e+07
1.90156e+07
1.91556e+07
1.95492e+07
1.9723e+07
2.01341e+07
2.03333e+07
2.07512e+07
2.09686e+07
2.13862e+07
2.16156e+07
2.20282e+07
2.22646e+07
2.26698e+07
2.29091e+07
2.33059e+07
2.35454e+07
2.39336e+07
2.41717e+07
2.4552e+07
2.47885e+07
2.51614e+07
2.53976e+07
2.57641e+07
2.60025e+07
2.63632e+07
2.66078e+07
2.69627e+07
2.72187e+07
2.75676e+07
2.79033e+07
1.68851e+07
1.67727e+07
1.6751e+07
1.67196e+07
1.68266e+07
1.68613e+07
1.70697e+07
1.71585e+07
1.74423e+07
1.75755e+07
1.79122e+07
1.80813e+07
1.84529e+07
1.86504e+07
1.90431e+07
1.92623e+07
1.96662e+07
1.99011e+07
2.03092e+07
2.05546e+07
2.09625e+07
2.12139e+07
2.1619e+07
2.18729e+07
2.22742e+07
2.2528e+07
2.29251e+07
2.31773e+07
2.35706e+07
2.38208e+07
2.4211e+07
2.44602e+07
2.48476e+07
2.50981e+07
2.54831e+07
2.57385e+07
2.61206e+07
2.63859e+07
2.67641e+07
2.71096e+07
1.54176e+07
1.53682e+07
1.53966e+07
1.54112e+07
1.5547e+07
1.56177e+07
1.58387e+07
1.59576e+07
1.62428e+07
1.64022e+07
1.67337e+07
1.69263e+07
1.72896e+07
1.75085e+07
1.78925e+07
1.81315e+07
1.85279e+07
1.87814e+07
1.91846e+07
1.94475e+07
1.98539e+07
2.01222e+07
2.05297e+07
2.07999e+07
2.12076e+07
2.14772e+07
2.1885e+07
2.21525e+07
2.25608e+07
2.28257e+07
2.32349e+07
2.34977e+07
2.39081e+07
2.41708e+07
2.45821e+07
2.48476e+07
2.52588e+07
2.55317e+07
2.59404e+07
2.62884e+07
1.38035e+07
1.38343e+07
1.39106e+07
1.39942e+07
1.41568e+07
1.42865e+07
1.452e+07
1.46888e+07
1.49778e+07
1.51793e+07
1.55101e+07
1.57383e+07
1.60992e+07
1.63483e+07
1.67301e+07
1.6995e+07
1.73907e+07
1.76667e+07
1.80714e+07
1.83542e+07
1.87646e+07
1.90506e+07
1.94648e+07
1.97509e+07
2.01683e+07
2.04521e+07
2.08723e+07
2.11523e+07
2.15757e+07
2.18512e+07
2.2278e+07
2.25495e+07
2.29796e+07
2.32487e+07
2.36814e+07
2.39511e+07
2.43848e+07
2.46595e+07
2.50915e+07
2.54368e+07
1.21135e+07
1.22138e+07
1.23462e+07
1.24857e+07
1.2688e+07
1.28636e+07
1.31238e+07
1.33312e+07
1.36373e+07
1.38721e+07
1.4213e+07
1.44704e+07
1.48371e+07
1.51125e+07
1.54975e+07
1.57864e+07
1.61842e+07
1.64824e+07
1.68891e+07
1.71928e+07
1.7606e+07
1.79118e+07
1.83302e+07
1.86351e+07
1.90585e+07
1.936e+07
1.97888e+07
2.00852e+07
2.052e+07
2.08102e+07
2.12518e+07
2.15359e+07
2.19845e+07
2.22636e+07
2.27189e+07
2.29954e+07
2.34557e+07
2.37338e+07
2.41959e+07
2.45354e+07
1.03225e+07
1.05017e+07
1.06925e+07
1.09008e+07
1.11451e+07
1.13804e+07
1.16701e+07
1.19295e+07
1.22562e+07
1.2536e+07
1.2892e+07
1.31884e+07
1.35667e+07
1.3876e+07
1.4271e+07
1.45895e+07
1.49969e+07
1.5321e+07
1.57379e+07
1.60643e+07
1.64888e+07
1.68144e+07
1.72456e+07
1.75677e+07
1.80055e+07
1.83217e+07
1.87665e+07
1.9075e+07
1.95275e+07
1.9827e+07
2.02875e+07
2.05779e+07
2.10464e+07
2.13284e+07
2.1804e+07
2.20799e+07
2.25605e+07
2.2834e+07
2.33159e+07
2.36376e+07
8.49505e+06
8.74206e+06
8.99113e+06
9.25668e+06
9.54624e+06
9.83031e+06
1.01546e+07
1.04559e+07
1.08088e+07
1.11252e+07
1.15005e+07
1.18295e+07
1.2222e+07
1.25607e+07
1.29661e+07
1.33116e+07
1.37265e+07
1.40759e+07
1.44981e+07
1.48485e+07
1.52767e+07
1.56254e+07
1.60595e+07
1.64036e+07
1.68442e+07
1.71812e+07
1.76293e+07
1.7957e+07
1.84143e+07
1.87307e+07
1.9199e+07
1.95031e+07
1.99836e+07
2.02753e+07
2.07687e+07
2.10496e+07
2.1555e+07
2.18286e+07
2.23431e+07
2.26499e+07
6.59678e+06
6.91945e+06
7.23063e+06
7.56326e+06
7.9015e+06
8.24501e+06
8.60734e+06
8.96127e+06
9.34401e+06
9.70704e+06
1.01064e+07
1.04767e+07
1.08893e+07
1.12645e+07
1.16875e+07
1.20654e+07
1.24967e+07
1.28747e+07
1.33131e+07
1.36887e+07
1.41335e+07
1.45043e+07
1.49557e+07
1.53192e+07
1.5778e+07
1.61318e+07
1.65993e+07
1.69409e+07
1.74186e+07
1.77462e+07
1.82355e+07
1.85477e+07
1.90493e+07
1.93455e+07
1.98593e+07
2.01403e+07
2.0664e+07
2.09324e+07
2.14618e+07
2.17379e+07
4.69433e+06
5.0796e+06
5.44823e+06
5.83531e+06
6.22094e+06
6.61193e+06
7.01295e+06
7.40858e+06
7.82257e+06
8.22266e+06
8.64692e+06
9.05062e+06
9.48263e+06
9.88861e+06
1.03262e+07
1.07329e+07
1.11744e+07
1.158e+07
1.20243e+07
1.24272e+07
1.2874e+07
1.32718e+07
1.37217e+07
1.4112e+07
1.45664e+07
1.49463e+07
1.54074e+07
1.57739e+07
1.62444e+07
1.65943e+07
1.70774e+07
1.74075e+07
1.7907e+07
1.82146e+07
1.87339e+07
1.90175e+07
1.95597e+07
1.98205e+07
2.03861e+07
2.06331e+07
2.74173e+06
3.19863e+06
3.62859e+06
4.08037e+06
4.51611e+06
4.96553e+06
5.4074e+06
5.85582e+06
6.30327e+06
6.75108e+06
7.20312e+06
7.64995e+06
8.10557e+06
8.55052e+06
9.00893e+06
9.45063e+06
9.91152e+06
1.03483e+07
1.08118e+07
1.12423e+07
1.17086e+07
1.21311e+07
1.26009e+07
1.30135e+07
1.34885e+07
1.38887e+07
1.43712e+07
1.47563e+07
1.52492e+07
1.56165e+07
1.61228e+07
1.64696e+07
1.69925e+07
1.73162e+07
1.78581e+07
1.81567e+07
1.87177e+07
1.89903e+07
1.95659e+07
1.97817e+07
810221
1.32295e+06
1.80801e+06
2.30933e+06
2.79252e+06
3.28584e+06
3.76827e+06
4.25584e+06
4.73754e+06
5.22078e+06
5.70117e+06
6.18059e+06
6.65913e+06
7.13451e+06
7.61082e+06
8.08149e+06
8.55511e+06
9.02044e+06
9.48964e+06
9.95023e+06
1.04154e+07
1.08698e+07
1.13321e+07
1.17781e+07
1.22393e+07
1.26742e+07
1.31368e+07
1.35572e+07
1.40244e+07
1.4426e+07
1.49018e+07
1.52791e+07
1.57691e+07
1.61143e+07
1.66262e+07
1.69278e+07
1.74738e+07
1.77128e+07
1.83144e+07
1.84211e+07
-1.15622e+06
-576045
-33294.8
530049
1.06132e+06
1.61177e+06
2.13408e+06
2.6743e+06
3.18909e+06
3.72079e+06
4.22881e+06
4.75303e+06
5.25468e+06
5.77174e+06
6.26748e+06
6.77669e+06
7.26764e+06
7.76634e+06
8.25543e+06
8.74523e+06
9.23084e+06
9.71151e+06
1.01943e+07
1.06646e+07
1.11463e+07
1.16043e+07
1.20877e+07
1.2531e+07
1.30199e+07
1.34456e+07
1.39448e+07
1.43496e+07
1.48657e+07
1.52466e+07
1.57882e+07
1.61435e+07
1.67231e+07
1.7054e+07
1.76909e+07
1.79034e+07
-3.08327e+06
-2.45439e+06
-1.85969e+06
-1.25253e+06
-674807
-85525.3
478360
1.0532e+06
1.60464e+06
2.16861e+06
2.70744e+06
3.2623e+06
3.7894e+06
4.33548e+06
4.85309e+06
5.38922e+06
5.90214e+06
6.42453e+06
6.91927e+06
7.44195e+06
7.92323e+06
8.44155e+06
8.91177e+06
9.42347e+06
9.88435e+06
1.03878e+07
1.0841e+07
1.13345e+07
1.17816e+07
1.22635e+07
1.27059e+07
1.31745e+07
1.36125e+07
1.40673e+07
1.44982e+07
1.49419e+07
1.53565e+07
1.57988e+07
1.61737e+07
1.68258e+07
-5.0324e+06
-4.34048e+06
-3.69321e+06
-3.02704e+06
-2.40518e+06
-1.76021e+06
-1.15979e+06
-532592
49126.6
661351
1.226e+06
1.826e+06
2.37415e+06
2.96506e+06
3.4961e+06
4.0825e+06
4.59396e+06
5.14814e+06
5.66973e+06
6.21998e+06
6.72347e+06
7.26714e+06
7.75661e+06
8.29215e+06
8.77018e+06
9.2961e+06
9.7649e+06
1.02792e+07
1.07411e+07
1.12409e+07
1.16984e+07
1.21795e+07
1.26352e+07
1.3091e+07
1.35469e+07
1.39675e+07
1.44239e+07
1.4793e+07
1.52459e+07
1.58621e+07
-6.93176e+06
-6.19642e+06
-5.50169e+06
-4.79628e+06
-4.13023e+06
-3.45257e+06
-2.80929e+06
-2.15611e+06
-1.53272e+06
-892376
-295957
334086
904373
1.5256e+06
2.06974e+06
2.68515e+06
3.23911e+06
3.81758e+06
4.32425e+06
4.92466e+06
5.41664e+06
6.00625e+06
6.48184e+06
7.064e+06
7.52308e+06
8.09918e+06
8.54262e+06
9.11284e+06
9.54246e+06
1.01059e+07
1.05248e+07
1.10793e+07
1.14924e+07
1.20341e+07
1.24494e+07
1.29716e+07
1.34025e+07
1.38933e+07
1.43638e+07
1.52277e+07
-8.83894e+06
-8.04663e+06
-7.30406e+06
-6.54409e+06
-5.8382e+06
-5.10584e+06
-4.43148e+06
-3.72353e+06
-3.0757e+06
-2.39067e+06
-1.76728e+06
-1.10179e+06
-500795
146531
727650
1.35574e+06
1.9209e+06
2.56182e+06
3.08228e+06
3.7077e+06
4.21375e+06
4.82839e+06
5.31682e+06
5.92328e+06
6.39303e+06
6.99264e+06
7.4438e+06
8.03691e+06
8.47048e+06
9.05647e+06
9.47436e+06
1.00516e+07
1.04569e+07
1.10226e+07
1.14201e+07
1.19707e+07
1.23676e+07
1.28993e+07
1.33067e+07
1.43094e+07
-1.0698e+07
-9.85924e+06
-9.07816e+06
-8.27624e+06
-7.5336e+06
-6.7725e+06
-6.05525e+06
-5.35404e+06
-4.63569e+06
-3.92404e+06
-3.26904e+06
-2.56651e+06
-1.94881e+06
-1.26074e+06
-669797
2497.57
573798
1.22833e+06
1.76824e+06
2.42052e+06
2.93288e+06
3.58128e+06
4.06753e+06
4.71261e+06
5.17356e+06
5.81626e+06
6.25291e+06
6.89372e+06
7.30782e+06
7.94626e+06
8.34081e+06
8.9749e+06
9.3547e+06
9.98042e+06
1.03527e+07
1.09633e+07
1.13383e+07
1.19239e+07
1.23147e+07
1.34237e+07
-1.2541e+07
-1.16597e+07
-1.08301e+07
-9.98524e+06
-9.20346e+06
-8.38887e+06
-7.65226e+06
-6.86196e+06
-6.1462e+06
-5.39759e+06
-4.71825e+06
-3.98754e+06
-3.34082e+06
-2.62687e+06
-2.01061e+06
-1.31055e+06
-724323
-32913.1
521219
1.20366e+06
1.72888e+06
2.40396e+06
2.90109e+06
3.57087e+06
4.0401e+06
4.70647e+06
5.1481e+06
5.81236e+06
6.22734e+06
6.88986e+06
7.28022e+06
7.94009e+06
8.30948e+06
8.96412e+06
9.31838e+06
9.96306e+06
1.0311e+07
1.09381e+07
1.12921e+07
1.24769e+07
-1.43551e+07
-1.34084e+07
-1.2557e+07
-1.16432e+07
-1.08523e+07
-9.94629e+06
-9.22779e+06
-8.55102e+06
-7.67692e+06
-6.83117e+06
-6.18985e+06
-5.39534e+06
-4.75919e+06
-3.99695e+06
-3.38063e+06
-2.64105e+06
-2.05036e+06
-1.32724e+06
-766017
-53364
477001
1.18299e+06
1.68189e+06
2.38415e+06
2.85141e+06
3.55217e+06
3.98816e+06
4.68879e+06
5.09477e+06
5.7954e+06
6.17389e+06
6.87298e+06
7.22827e+06
7.92211e+06
8.26072e+06
8.94289e+06
9.27407e+06
9.93495e+06
1.02711e+07
1.15156e+07
-1.61126e+07
-1.51563e+07
-1.42393e+07
-1.33239e+07
-1.246e+07
-1.15823e+07
-1.07621e+07
-9.92089e+06
-9.16581e+06
-8.3326e+06
-7.61247e+06
-6.80969e+06
-6.12484e+06
-5.34552e+06
-4.69561e+06
-3.93464e+06
-3.31949e+06
-2.57255e+06
-1.99224e+06
-1.25602e+06
-710234
18342.7
529686
1.25354e+06
1.73042e+06
2.45207e+06
2.89475e+06
3.61602e+06
4.02542e+06
4.74703e+06
5.12527e+06
5.84636e+06
6.19728e+06
6.91487e+06
7.24464e+06
7.95302e+06
8.27069e+06
8.96076e+06
9.27884e+06
1.05607e+07
-1.78432e+07
-1.68429e+07
-1.5901e+07
-1.49449e+07
-1.40577e+07
-1.315e+07
-1.23035e+07
-1.14629e+07
-1.06296e+07
-9.78673e+06
-9.02977e+06
-8.2027e+06
-7.49631e+06
-6.68879e+06
-6.02354e+06
-5.23438e+06
-4.60681e+06
-3.83297e+06
-3.24205e+06
-2.47985e+06
-1.92545e+06
-1.17124e+06
-653537
95957
576840
1.32433e+06
1.76867e+06
2.51597e+06
2.92486e+06
3.67247e+06
4.04826e+06
4.79496e+06
5.14175e+06
5.88409e+06
6.20822e+06
6.94e+06
7.25052e+06
7.9624e+06
8.2715e+06
9.57702e+06
-1.95354e+07
-1.8507e+07
-1.75182e+07
-1.65335e+07
-1.56062e+07
-1.46604e+07
-1.37895e+07
-1.28774e+07
-1.20614e+07
-1.1176e+07
-1.04068e+07
-9.54841e+06
-8.82198e+06
-7.98791e+06
-7.30185e+06
-6.48855e+06
-5.84166e+06
-5.04526e+06
-4.43701e+06
-3.65372e+06
-3.08397e+06
-2.3101e+06
-1.77896e+06
-1.0111e+06
-518674
246122
700043
1.4639e+06
1.88025e+06
2.64409e+06
3.02499e+06
3.78804e+06
4.13733e+06
4.89659e+06
5.22039e+06
5.97002e+06
6.27732e+06
7.00811e+06
7.31124e+06
8.62899e+06
-2.11828e+07
-2.01223e+07
-1.91041e+07
-1.80892e+07
-1.71331e+07
-1.61619e+07
-1.52596e+07
-1.43287e+07
-1.34747e+07
-1.25723e+07
-1.1771e+07
-1.08936e+07
-1.01414e+07
-9.28692e+06
-8.5799e+06
-7.7457e+06
-7.08135e+06
-6.26424e+06
-5.64115e+06
-4.83761e+06
-4.25519e+06
-3.46162e+06
-2.91974e+06
-2.13274e+06
-1.63133e+06
-848010
-386713
394957
817278
1.59804e+06
1.98375e+06
2.7626e+06
3.1158e+06
3.88951e+06
4.21654e+06
4.97919e+06
5.28898e+06
6.03166e+06
6.33576e+06
7.64942e+06
-2.27935e+07
-2.16993e+07
-2.06471e+07
-1.95987e+07
-1.86138e+07
-1.76065e+07
-1.66832e+07
-1.57125e+07
-1.48458e+07
-1.39076e+07
-1.30925e+07
-1.21839e+07
-1.14162e+07
-1.05345e+07
-9.81133e+06
-8.9529e+06
-8.27253e+06
-7.43377e+06
-6.79516e+06
-5.97225e+06
-5.37501e+06
-4.56415e+06
-4.0082e+06
-3.2058e+06
-2.69113e+06
-1.89408e+06
-1.42037e+06
-626343
-192659
599550
995232
1.78524e+06
2.14647e+06
2.93179e+06
3.26421e+06
4.0394e+06
4.35158e+06
5.10673e+06
5.41183e+06
6.72202e+06
-2.43558e+07
-2.32349e+07
-2.2152e+07
-2.10781e+07
-2.0064e+07
-1.90335e+07
-1.80812e+07
-1.70899e+07
-1.61942e+07
-1.52374e+07
-1.4395e+07
-1.34688e+07
-1.26766e+07
-1.17775e+07
-1.10326e+07
-1.01573e+07
-9.45762e+06
-8.60255e+06
-7.94672e+06
-7.1082e+06
-6.49552e+06
-5.66985e+06
-5.10002e+06
-4.28368e+06
-3.75651e+06
-2.94648e+06
-2.46153e+06
-1.65555e+06
-1.21171e+06
-408770
-3744.39
795494
1.16578e+06
1.95837e+06
2.30059e+06
3.08055e+06
3.40513e+06
4.16241e+06
4.47835e+06
5.76294e+06
-2.58749e+07
-2.47224e+07
-2.36117e+07
-2.25065e+07
-2.14681e+07
-2.04061e+07
-1.94334e+07
-1.84108e+07
-1.74981e+07
-1.65113e+07
-1.56535e+07
-1.46997e+07
-1.38925e+07
-1.29684e+07
-1.22087e+07
-1.1311e+07
-1.05967e+07
-9.72165e+06
-9.05132e+06
-8.19534e+06
-7.56819e+06
-6.72753e+06
-6.14314e+06
-5.31429e+06
-4.77235e+06
-3.95222e+06
-3.45217e+06
-2.63841e+06
-2.17913e+06
-1.37027e+06
-949825
-145310
239033
1.03935e+06
1.39064e+06
2.18815e+06
2.50791e+06
3.27608e+06
3.59459e+06
4.868e+06
-2.73475e+07
-2.61713e+07
-2.50309e+07
-2.39032e+07
-2.28367e+07
-2.17537e+07
-2.07541e+07
-1.97123e+07
-1.87737e+07
-1.77694e+07
-1.6887e+07
-1.59169e+07
-1.50868e+07
-1.41476e+07
-1.33666e+07
-1.24547e+07
-1.17207e+07
-1.08326e+07
-1.01439e+07
-9.27585e+06
-8.63159e+06
-7.77989e+06
-7.17955e+06
-6.34066e+06
-5.78389e+06
-4.95467e+06
-4.44098e+06
-3.61897e+06
-3.14747e+06
-2.33114e+06
-1.90028e+06
-1.08927e+06
-696731
107993
465146
1.26143e+06
1.61935e+06
2.37139e+06
2.71292e+06
3.9443e+06
-2.87703e+07
-2.75659e+07
-2.64014e+07
-2.52456e+07
-2.41577e+07
-2.30469e+07
-2.20284e+07
-2.09593e+07
-2.0004e+07
-1.89736e+07
-1.80761e+07
-1.70814e+07
-1.62371e+07
-1.52751e+07
-1.44805e+07
-1.3548e+07
-1.28005e+07
-1.18941e+07
-1.11919e+07
-1.03081e+07
-9.65001e+06
-8.78514e+06
-8.17043e+06
-7.3213e+06
-6.74915e+06
-5.9131e+06
-5.38236e+06
-4.55785e+06
-4.06641e+06
-3.25371e+06
-2.79773e+06
-2.00008e+06
-1.57281e+06
-798321
-388028
522583
758197
1.49678e+06
1.86815e+06
3.07082e+06
-3.01485e+07
-2.8923e+07
-2.77301e+07
-2.65545e+07
-2.54398e+07
-2.43105e+07
-2.32666e+07
-2.21805e+07
-2.12009e+07
-2.0155e+07
-1.92343e+07
-1.82255e+07
-1.73591e+07
-1.63844e+07
-1.55689e+07
-1.46249e+07
-1.38575e+07
-1.29409e+07
-1.22197e+07
-1.13267e+07
-1.06505e+07
-9.77769e+06
-9.14548e+06
-8.28947e+06
-7.70048e+06
-6.85833e+06
-6.31154e+06
-5.48108e+06
-4.97479e+06
-4.155e+06
-3.6864e+06
-2.87785e+06
-2.44232e+06
-1.64772e+06
-1.23803e+06
-462910
-98258.8
677079
1.0317e+06
2.22561e+06
-3.1472e+07
-3.02213e+07
-2.90072e+07
-2.78063e+07
-2.66727e+07
-2.55183e+07
-2.44577e+07
-2.33469e+07
-2.23525e+07
-2.12827e+07
-2.03485e+07
-1.9317e+07
-1.84381e+07
-1.74422e+07
-1.66146e+07
-1.56513e+07
-1.4872e+07
-1.39381e+07
-1.32049e+07
-1.2297e+07
-1.16084e+07
-1.0723e+07
-1.00781e+07
-9.21168e+06
-8.60956e+06
-7.75922e+06
-7.19897e+06
-6.36217e+06
-5.8425e+06
-5.01744e+06
-4.5365e+06
-3.72197e+06
-3.27745e+06
-2.47225e+06
-2.06196e+06
-1.26311e+06
-886867
-120004
251364
1.405e+06
-3.27514e+07
-3.14823e+07
-3.02411e+07
-2.90229e+07
-2.78639e+07
-2.66934e+07
-2.56085e+07
-2.44832e+07
-2.34654e+07
-2.23826e+07
-2.1426e+07
-2.0383e+07
-1.94825e+07
-1.84765e+07
-1.76282e+07
-1.66561e+07
-1.58568e+07
-1.49153e+07
-1.41629e+07
-1.32486e+07
-1.25414e+07
-1.16508e+07
-1.09876e+07
-1.01174e+07
-9.49724e+06
-8.64456e+06
-8.06626e+06
-7.22873e+06
-6.69087e+06
-5.86699e+06
-5.36746e+06
-4.55684e+06
-4.09265e+06
-3.2962e+06
-2.86336e+06
-2.08341e+06
-1.6771e+06
-917285
-527621
594412
-3.39727e+07
-3.2681e+07
-3.14211e+07
-3.01802e+07
-2.90045e+07
-2.78114e+07
-2.67119e+07
-2.5564e+07
-2.45335e+07
-2.34284e+07
-2.24607e+07
-2.13959e+07
-2.04854e+07
-1.94588e+07
-1.86008e+07
-1.76098e+07
-1.68007e+07
-1.58425e+07
-1.50798e+07
-1.41511e+07
-1.3433e+07
-1.25303e+07
-1.18557e+07
-1.09756e+07
-1.03435e+07
-9.48286e+06
-8.89225e+06
-8.04843e+06
-7.4981e+06
-6.66919e+06
-6.15728e+06
-5.34249e+06
-4.8662e+06
-4.06617e+06
-3.62137e+06
-2.8389e+06
-2.41942e+06
-1.66088e+06
-1.25706e+06
-171311
-3.51496e+07
-3.38418e+07
-3.25564e+07
-3.13004e+07
-3.01006e+07
-2.88938e+07
-2.77711e+07
-2.6611e+07
-2.5558e+07
-2.44425e+07
-2.34527e+07
-2.23794e+07
-2.14472e+07
-2.04135e+07
-1.95347e+07
-1.85378e+07
-1.77087e+07
-1.67455e+07
-1.59637e+07
-1.50308e+07
-1.42943e+07
-1.33885e+07
-1.26958e+07
-1.18138e+07
-1.11638e+07
-1.03026e+07
-9.694e+06
-8.85128e+06
-8.28261e+06
-7.45663e+06
-6.92587e+06
-6.11595e+06