/*--------------------------------*- C++ -*----------------------------------*\
| =========                 |                                                 |
| \\      /  F ield         | OpenFOAM: The Open Source CFD Toolbox           |
|  \\    /   O peration     | Version:  v2012                                 |
|   \\  /    A nd           | Website:  www.openfoam.com                      |
|    \\/     M anipulation  |                                                 |
\*---------------------------------------------------------------------------*/
FoamFile
{
    version     2.0;
    format      ascii;
    class       volVectorField;
    location    "8";
    object      D_0;
}
// * * * * * * * * * * * * * * * * * * * * * * * * * * * * * * * * * * * * * //

dimensions      [0 1 0 0 0 0 0];


internalField   nonuniform List<vector> 
8000
(
(6.25004e-05 -0.00149957 0)
(0.000113789 -0.0015172 0)
(5.80353e-05 -0.00156535 0)
(0.000104276 -0.00158255 0)
(5.40528e-05 -0.00162277 0)
(9.79786e-05 -0.00163912 0)
(5.0769e-05 -0.0016739 0)
(9.29846e-05 -0.00168856 0)
(4.78378e-05 -0.00171894 0)
(8.85257e-05 -0.00173169 0)
(4.50967e-05 -0.00175828 0)
(8.41766e-05 -0.00176902 0)
(4.23321e-05 -0.00179217 0)
(7.96967e-05 -0.00180082 0)
(3.94832e-05 -0.00182076 0)
(7.49571e-05 -0.0018273 0)
(3.64414e-05 -0.00184424 0)
(6.99541e-05 -0.00184871 0)
(3.32637e-05 -0.00186269 0)
(6.46796e-05 -0.00186491 0)
(3.00884e-05 -0.00187606 0)
(5.98198e-05 -0.00187714 0)
(2.78325e-05 -0.00188688 0)
(5.66242e-05 -0.00188799 0)
(2.65278e-05 -0.00189668 0)
(5.44052e-05 -0.00189758 0)
(2.56037e-05 -0.00190567 0)
(5.26843e-05 -0.00190633 0)
(2.48622e-05 -0.00191412 0)
(5.12526e-05 -0.00191457 0)
(2.42361e-05 -0.00192218 0)
(5.00191e-05 -0.00192248 0)
(2.36912e-05 -0.00192999 0)
(4.89225e-05 -0.00193018 0)
(2.32067e-05 -0.00193762 0)
(4.79129e-05 -0.00193773 0)
(2.27979e-05 -0.00194508 0)
(4.69571e-05 -0.0019452 0)
(2.25688e-05 -0.00195237 0)
(4.60383e-05 -0.00195264 0)
(0.000203743 -0.00150892 0)
(0.000248448 -0.00153095 0)
(0.000198754 -0.00156775 0)
(0.000242791 -0.00158717 0)
(0.000192822 -0.00162201 0)
(0.000235445 -0.00163915 0)
(0.000186371 -0.00167131 0)
(0.00022718 -0.00168576 0)
(0.000179424 -0.00171497 0)
(0.000218224 -0.00172665 0)
(0.000171868 -0.00175294 0)
(0.000208545 -0.0017618 0)
(0.000163712 -0.00178533 0)
(0.000198124 -0.00179133 0)
(0.000154864 -0.00181228 0)
(0.000187008 -0.0018155 0)
(0.000145412 -0.00183413 0)
(0.000175143 -0.00183447 0)
(0.000135233 -0.0018507 0)
(0.000162696 -0.00184812 0)
(0.000125202 -0.00186279 0)
(0.000152441 -0.00185999 0)
(0.000117792 -0.00187384 0)
(0.000144685 -0.00187078 0)
(0.000112277 -0.00188382 0)
(0.000138771 -0.00188057 0)
(0.00010805 -0.00189301 0)
(0.000134109 -0.0018896 0)
(0.0001047 -0.00190164 0)
(0.000130313 -0.00189809 0)
(0.000101964 -0.00190985 0)
(0.000127141 -0.00190619 0)
(9.96837e-05 -0.00191777 0)
(0.000124431 -0.001914 0)
(9.77603e-05 -0.00192546 0)
(0.000122063 -0.00192159 0)
(9.6141e-05 -0.00193299 0)
(0.000119937 -0.00192899 0)
(9.48077e-05 -0.00194039 0)
(0.000117951 -0.00193621 0)
(0.000356728 -0.00151039 0)
(0.000401509 -0.00153082 0)
(0.000345696 -0.00156906 0)
(0.000387886 -0.0015875 0)
(0.000334808 -0.00162164 0)
(0.000374813 -0.00163753 0)
(0.000323396 -0.00166846 0)
(0.000361162 -0.00168109 0)
(0.000311008 -0.00170911 0)
(0.00034647 -0.00171825 0)
(0.000297545 -0.00174371 0)
(0.000330562 -0.00174922 0)
(0.000282906 -0.00177241 0)
(0.000313407 -0.00177423 0)
(0.000267107 -0.00179545 0)
(0.000294974 -0.00179349 0)
(0.000250081 -0.00181294 0)
(0.000275559 -0.0018074 0)
(0.000232784 -0.00182567 0)
(0.000258213 -0.00181921 0)
(0.000218683 -0.00183716 0)
(0.000244359 -0.00183049 0)
(0.000207612 -0.00184784 0)
(0.000233351 -0.00184097 0)
(0.000198823 -0.00185777 0)
(0.000224477 -0.00185071 0)
(0.000191741 -0.00186706 0)
(0.000217209 -0.00185985 0)
(0.000185943 -0.00187586 0)
(0.000211163 -0.0018685 0)
(0.000181125 -0.00188425 0)
(0.000206058 -0.00187675 0)
(0.000177063 -0.00189233 0)
(0.000201678 -0.00188469 0)
(0.0001736 -0.00190017 0)
(0.000197856 -0.00189238 0)
(0.000170626 -0.00190784 0)
(0.000194452 -0.00189984 0)
(0.000168058 -0.00191535 0)
(0.000191337 -0.00190707 0)
(0.000502613 -0.00151747 0)
(0.000543907 -0.00153762 0)
(0.000487627 -0.00157253 0)
(0.000526467 -0.0015896 0)
(0.000471984 -0.00162112 0)
(0.00050837 -0.0016347 0)
(0.000455202 -0.00166336 0)
(0.000488954 -0.0016727 0)
(0.000436921 -0.00169888 0)
(0.000467933 -0.00170372 0)
(0.000416994 -0.00172785 0)
(0.000445202 -0.00172805 0)
(0.000395364 -0.00175046 0)
(0.000420691 -0.00174593 0)
(0.000372073 -0.00176701 0)
(0.000395195 -0.00175856 0)
(0.000348559 -0.00177907 0)
(0.000371999 -0.00176966 0)
(0.000328303 -0.0017903 0)
(0.000352531 -0.00178066 0)
(0.000311647 -0.00180107 0)
(0.000336384 -0.00179119 0)
(0.000297937 -0.00181129 0)
(0.000322955 -0.00180118 0)
(0.000286585 -0.00182098 0)
(0.00031172 -0.00181065 0)
(0.000277118 -0.00183018 0)
(0.000302252 -0.00181965 0)
(0.000269159 -0.00183895 0)
(0.00029421 -0.00182822 0)
(0.00026241 -0.00184735 0)
(0.000287314 -0.00183642 0)
(0.000256633 -0.00185543 0)
(0.000281336 -0.0018443 0)
(0.000251643 -0.00186327 0)
(0.000276085 -0.00185191 0)
(0.00024729 -0.0018709 0)
(0.000271394 -0.00185926 0)
(0.000243446 -0.00187834 0)
(0.000267106 -0.00186634 0)
(0.000644692 -0.00152459 0)
(0.000682597 -0.0015425 0)
(0.00062439 -0.00157467 0)
(0.00065925 -0.00158855 0)
(0.000603012 -0.00161734 0)
(0.00063484 -0.00162652 0)
(0.000579944 -0.00165272 0)
(0.000608665 -0.00165654 0)
(0.000554883 -0.0016807 0)
(0.000580478 -0.00167895 0)
(0.000527662 -0.00170151 0)
(0.000550154 -0.0016941 0)
(0.00049845 -0.00171574 0)
(0.000519322 -0.00170464 0)
(0.000469708 -0.00172626 0)
(0.000491462 -0.00171463 0)
(0.000444568 -0.00173665 0)
(0.000467351 -0.00172474 0)
(0.000423023 -0.00174688 0)
(0.000446613 -0.00173465 0)
(0.000404647 -0.00175682 0)
(0.000428821 -0.00174428 0)
(0.000388988 -0.0017664 0)
(0.000413562 -0.00175355 0)
(0.000375631 -0.00177558 0)
(0.00040046 -0.00176245 0)
(0.000364207 -0.00178439 0)
(0.000389177 -0.00177097 0)
(0.000354399 -0.00179283 0)
(0.000379419 -0.00177915 0)
(0.000345934 -0.00180094 0)
(0.000370928 -0.00178699 0)
(0.000338583 -0.00180877 0)
(0.000363482 -0.00179454 0)
(0.000332151 -0.00181634 0)
(0.000356887 -0.00180182 0)
(0.000326474 -0.0018237 0)
(0.000350967 -0.00180882 0)
(0.000321397 -0.00183085 0)
(0.000345552 -0.00181554 0)
(0.000780119 -0.00152975 0)
(0.000813378 -0.00154342 0)
(0.000753679 -0.0015723 0)
(0.000783347 -0.00158052 0)
(0.000725496 -0.0016063 0)
(0.000751725 -0.00160858 0)
(0.000695148 -0.00163223 0)
(0.000717984 -0.00162814 0)
(0.000662336 -0.00165015 0)
(0.000682025 -0.00163983 0)
(0.000627715 -0.00166113 0)
(0.000646841 -0.00164813 0)
(0.000594866 -0.00167013 0)
(0.000615205 -0.00165678 0)
(0.000565763 -0.00167922 0)
(0.000587222 -0.00166554 0)
(0.000540095 -0.00168835 0)
(0.00056252 -0.00167429 0)
(0.000517582 -0.0016974 0)
(0.000540797 -0.00168295 0)
(0.000497915 -0.00170628 0)
(0.000521756 -0.00169144 0)
(0.000480777 -0.00171491 0)
(0.000505098 -0.00169971 0)
(0.000465855 -0.00172328 0)
(0.000490532 -0.00170771 0)
(0.000452856 -0.00173135 0)
(0.000477782 -0.00171544 0)
(0.000441511 -0.00173914 0)
(0.000466595 -0.0017229 0)
(0.000431579 -0.00174666 0)
(0.000456741 -0.00173008 0)
(0.000422846 -0.00175393 0)
(0.000448011 -0.001737 0)
(0.000415123 -0.00176097 0)
(0.000440219 -0.00174367 0)
(0.000408239 -0.00176779 0)
(0.000433188 -0.00175008 0)
(0.000402031 -0.00177441 0)
(0.00042675 -0.0017562 0)
(0.000906824 -0.00152852 0)
(0.0009344 -0.00153514 0)
(0.000873068 -0.00156047 0)
(0.00089683 -0.00156056 0)
(0.000837271 -0.00158327 0)
(0.000857594 -0.00157673 0)
(0.000799099 -0.00159754 0)
(0.000816636 -0.00158484 0)
(0.000759902 -0.00160542 0)
(0.000777765 -0.00159122 0)
(0.000723664 -0.00161273 0)
(0.000742697 -0.00159807 0)
(0.000690985 -0.00162022 0)
(0.000711182 -0.00160511 0)
(0.000661662 -0.00162783 0)
(0.000682924 -0.00161228 0)
(0.000635472 -0.0016355 0)
(0.000657668 -0.0016195 0)
(0.000612177 -0.00164315 0)
(0.000635169 -0.00162671 0)
(0.000591525 -0.00165071 0)
(0.000615184 -0.00163385 0)
(0.000573262 -0.00165814 0)
(0.000597464 -0.00164085 0)
(0.000557132 -0.00166539 0)
(0.000581769 -0.00164769 0)
(0.00054289 -0.00167244 0)
(0.000567863 -0.00165434 0)
(0.000530306 -0.00167929 0)
(0.000555527 -0.0016608 0)
(0.000519165 -0.00168592 0)
(0.000544555 -0.00166704 0)
(0.000509272 -0.00169236 0)
(0.000534755 -0.00167308 0)
(0.000500446 -0.0016986 0)
(0.00052595 -0.0016789 0)
(0.00049252 -0.00170464 0)
(0.000517971 -0.00168448 0)
(0.000485328 -0.00171049 0)
(0.000510656 -0.0016898 0)
(0.00102231 -0.00151575 0)
(0.00104375 -0.00151329 0)
(0.000980982 -0.00153496 0)
(0.000999143 -0.00152606 0)
(0.000937846 -0.00154516 0)
(0.000953883 -0.00153099 0)
(0.000894856 -0.00155043 0)
(0.000911624 -0.00153535 0)
(0.000855452 -0.00155581 0)
(0.000873286 -0.00154013 0)
(0.000819528 -0.00156138 0)
(0.000838514 -0.00154514 0)
(0.000786898 -0.00156711 0)
(0.000807002 -0.00155036 0)
(0.000757375 -0.001573 0)
(0.000778513 -0.00155574 0)
(0.00073077 -0.001579 0)
(0.000752836 -0.00156125 0)
(0.000706882 -0.00158504 0)
(0.000729764 -0.00156681 0)
(0.000685496 -0.00159107 0)
(0.000709083 -0.00157238 0)
(0.000666392 -0.00159706 0)
(0.000690578 -0.00157791 0)
(0.00064935 -0.00160296 0)
(0.000674036 -0.00158337 0)
(0.000634157 -0.00160875 0)
(0.000659251 -0.00158873 0)
(0.000620608 -0.00161441 0)
(0.000646028 -0.00159396 0)
(0.000608512 -0.00161993 0)
(0.000634179 -0.00159906 0)
(0.000597687 -0.00162531 0)
(0.00062353 -0.001604 0)
(0.000587965 -0.00163053 0)
(0.000613913 -0.00160877 0)
(0.000579184 -0.00163559 0)
(0.00060517 -0.00161334 0)
(0.000571184 -0.00164049 0)
(0.000597145 -0.00161768 0)
(0.00112631 -0.00148824 0)
(0.0011429 -0.00147742 0)
(0.0010789 -0.00149473 0)
(0.00109394 -0.00147982 0)
(0.00103265 -0.00149763 0)
(0.0010484 -0.00148196 0)
(0.000990063 -0.00150081 0)
(0.00100678 -0.00148438 0)
(0.00095099 -0.00150415 0)
(0.000968813 -0.00148702 0)
(0.000915224 -0.00150769 0)
(0.000934181 -0.00148993 0)
(0.000882586 -0.00151144 0)
(0.000902641 -0.00149311 0)
(0.000852908 -0.00151539 0)
(0.000873991 -0.00149653 0)
(0.000826015 -0.00151951 0)
(0.000848036 -0.00150014 0)
(0.000801717 -0.00152376 0)
(0.000824579 -0.00150389 0)
(0.000779819 -0.00152809 0)
(0.000803423 -0.00150775 0)
(0.00076012 -0.00153246 0)
(0.00078437 -0.00151165 0)
(0.000742423 -0.00153684 0)
(0.000767229 -0.00151558 0)
(0.000726536 -0.00154119 0)
(0.000751812 -0.00151948 0)
(0.000712273 -0.00154549 0)
(0.000737942 -0.00152334 0)
(0.000699458 -0.00154973 0)
(0.000725446 -0.00152713 0)
(0.000687926 -0.00155387 0)
(0.000714162 -0.00153083 0)
(0.000677515 -0.00155792 0)
(0.000703934 -0.00153441 0)
(0.000668074 -0.00156185 0)
(0.000694613 -0.00153784 0)
(0.000659446 -0.00156565 0)
(0.000686054 -0.00154108 0)
(0.00122247 -0.00144807 0)
(0.00123674 -0.00143292 0)
(0.00117333 -0.00144831 0)
(0.00118815 -0.00143244 0)
(0.0011275 -0.00144894 0)
(0.00114317 -0.00143206 0)
(0.00108519 -0.00144976 0)
(0.00110189 -0.00143193 0)
(0.00104629 -0.00145077 0)
(0.0010641 -0.00143215 0)
(0.00101062 -0.00145203 0)
(0.00102957 -0.00143277 0)
(0.000978004 -0.00145359 0)
(0.00099806 -0.00143375 0)
(0.000948266 -0.00145543 0)
(0.000969361 -0.00143506 0)
(0.000921225 -0.00145754 0)
(0.000943276 -0.00143666 0)
(0.000896694 -0.00145986 0)
(0.000919613 -0.0014385 0)
(0.000874486 -0.00146237 0)
(0.000898181 -0.00144054 0)
(0.000854411 -0.00146501 0)
(0.000878794 -0.00144272 0)
(0.000836287 -0.00146775 0)
(0.000861274 -0.00144501 0)
(0.000819935 -0.00147055 0)
(0.000845447 -0.00144737 0)
(0.000805184 -0.00147338 0)
(0.000831146 -0.00144976 0)
(0.00079187 -0.00147621 0)
(0.000818213 -0.00145216 0)
(0.000779838 -0.00147902 0)
(0.000806495 -0.00145452 0)
(0.000768937 -0.00148179 0)
(0.000795847 -0.00145683 0)
(0.000759022 -0.00148449 0)
(0.000786128 -0.00145904 0)
(0.000749946 -0.0014871 0)
(0.000777203 -0.00146111 0)
(0.00131738 -0.00140373 0)
(0.00133153 -0.00138718 0)
(0.00126782 -0.00140128 0)
(0.00128255 -0.00138392 0)
(0.00122202 -0.00139921 0)
(0.00123764 -0.0013808 0)
(0.00117988 -0.00139735 0)
(0.00119657 -0.00137802 0)
(0.00114116 -0.00139579 0)
(0.001159 -0.0013757 0)
(0.00110566 -0.00139461 0)
(0.00112465 -0.00137389 0)
(0.00107316 -0.00139384 0)
(0.00109327 -0.00137257 0)
(0.00104348 -0.00139348 0)
(0.00106464 -0.0013717 0)
(0.00101643 -0.00139349 0)
(0.00103858 -0.00137123 0)
(0.000991839 -0.00139382 0)
(0.00101488 -0.00137111 0)
(0.000969504 -0.00139444 0)
(0.000993352 -0.00137128 0)
(0.00094925 -0.00139529 0)
(0.000973824 -0.0013717 0)
(0.000930901 -0.00139633 0)
(0.000956121 -0.00137232 0)
(0.000914289 -0.00139752 0)
(0.000940079 -0.00137309 0)
(0.000899252 -0.00139882 0)
(0.000925542 -0.00137398 0)
(0.000885636 -0.0014002 0)
(0.000912361 -0.00137494 0)
(0.000873295 -0.00140162 0)
(0.000900391 -0.00137593 0)
(0.000862085 -0.00140306 0)
(0.000889496 -0.00137693 0)
(0.00085187 -0.00140449 0)
(0.000879545 -0.0013779 0)
(0.000842509 -0.00140588 0)
(0.000870411 -0.00137878 0)
(0.00141255 -0.00135905 0)
(0.00142649 -0.00134095 0)
(0.00136232 -0.00135339 0)
(0.00137693 -0.00133433 0)
(0.00131632 -0.00134829 0)
(0.0013319 -0.00132821 0)
(0.00127423 -0.00134356 0)
(0.00129093 -0.00132264 0)
(0.00123568 -0.00133931 0)
(0.00125357 -0.00131772 0)
(0.00120038 -0.0013356 0)
(0.00121945 -0.00131346 0)
(0.00116809 -0.00133246 0)
(0.00118831 -0.00130983 0)
(0.0011386 -0.00132986 0)
(0.00115989 -0.00130677 0)
(0.00111169 -0.00132774 0)
(0.00113399 -0.00130423 0)
(0.00108719 -0.00132607 0)
(0.0011104 -0.00130215 0)
(0.00106489 -0.00132478 0)
(0.00108894 -0.00130047 0)
(0.00104463 -0.00132384 0)
(0.00106944 -0.00129913 0)
(0.00102624 -0.00132318 0)
(0.00105173 -0.00129809 0)
(0.00100955 -0.00132275 0)
(0.00103565 -0.00129728 0)
(0.000994403 -0.00132252 0)
(0.00102105 -0.00129666 0)
(0.00098066 -0.00132244 0)
(0.00100778 -0.0012962 0)
(0.000968178 -0.00132247 0)
(0.000995725 -0.00129583 0)
(0.000956824 -0.00132258 0)
(0.000984739 -0.00129554 0)
(0.000946463 -0.00132273 0)
(0.000974702 -0.00129527 0)
(0.000936965 -0.00132289 0)
(0.000965497 -0.00129497 0)
(0.00150703 -0.00131348 0)
(0.00152068 -0.00129376 0)
(0.00145635 -0.00130436 0)
(0.00147081 -0.00128363 0)
(0.00141024 -0.00129609 0)
(0.00142578 -0.00127438 0)
(0.00136824 -0.00128844 0)
(0.00138498 -0.00126598 0)
(0.0013299 -0.00128147 0)
(0.00134788 -0.00125844 0)
(0.00129488 -0.00127524 0)
(0.00131408 -0.00125175 0)
(0.00126289 -0.00126973 0)
(0.00128325 -0.00124584 0)
(0.00123368 -0.0012649 0)
(0.00125515 -0.00124064 0)
(0.00120704 -0.00126069 0)
(0.00122953 -0.00123608 0)
(0.00118277 -0.00125704 0)
(0.0012062 -0.00123208 0)
(0.00116066 -0.0012539 0)
(0.00118496 -0.0012286 0)
(0.00114055 -0.00125119 0)
(0.00116563 -0.00122555 0)
(0.00112227 -0.00124886 0)
(0.00114806 -0.00122289 0)
(0.00110566 -0.00124685 0)
(0.00113209 -0.00122055 0)
(0.00109056 -0.00124512 0)
(0.00111757 -0.00121847 0)
(0.00107685 -0.00124361 0)
(0.00110438 -0.00121662 0)
(0.00106437 -0.00124228 0)
(0.00109237 -0.00121494 0)
(0.00105302 -0.00124109 0)
(0.00108143 -0.0012134 0)
(0.00104265 -0.00124001 0)
(0.00107144 -0.00121194 0)
(0.00103314 -0.00123898 0)
(0.00106228 -0.00121051 0)
(0.00160024 -0.00126695 0)
(0.00161359 -0.00124568 0)
(0.00154949 -0.00125427 0)
(0.00156382 -0.00123196 0)
(0.00150351 -0.00124277 0)
(0.00151903 -0.00121956 0)
(0.00146177 -0.0012322 0)
(0.00147857 -0.00120833 0)
(0.00142377 -0.00122255 0)
(0.00144187 -0.00119821 0)
(0.00138914 -0.00121383 0)
(0.00140849 -0.00118914 0)
(0.00135756 -0.00120601 0)
(0.0013781 -0.00118101 0)
(0.00132875 -0.00119902 0)
(0.00135042 -0.00117373 0)
(0.0013025 -0.00119278 0)
(0.00132521 -0.00116722 0)
(0.00127857 -0.00118722 0)
(0.00130225 -0.00116139 0)
(0.00125679 -0.00118227 0)
(0.00128135 -0.00115618 0)
(0.00123697 -0.00117786 0)
(0.00126233 -0.0011515 0)
(0.00121894 -0.00117392 0)
(0.00124504 -0.00114728 0)
(0.00120254 -0.0011704 0)
(0.00122931 -0.00114348 0)
(0.00118764 -0.00116722 0)
(0.00121501 -0.00114002 0)
(0.00117408 -0.00116435 0)
(0.00120201 -0.00113685 0)
(0.00116175 -0.00116172 0)
(0.00119018 -0.00113392 0)
(0.00115052 -0.0011593 0)
(0.00117941 -0.00113119 0)
(0.00114026 -0.00115703 0)
(0.00116957 -0.0011286 0)
(0.00113085 -0.00115488 0)
(0.00116057 -0.00112611 0)
(0.0016917 -0.00121955 0)
(0.00170479 -0.00119681 0)
(0.00164134 -0.00120331 0)
(0.00165556 -0.00117958 0)
(0.00159582 -0.00118862 0)
(0.00161135 -0.00116407 0)
(0.00155458 -0.00117517 0)
(0.00157147 -0.00115007 0)
(0.00151713 -0.0011629 0)
(0.00153536 -0.00113744 0)
(0.00148304 -0.00115177 0)
(0.00150256 -0.00112605 0)
(0.001452 -0.00114172 0)
(0.00147275 -0.00111578 0)
(0.00142373 -0.00113264 0)
(0.00144561 -0.00110652 0)
(0.00139798 -0.00112445 0)
(0.00142092 -0.00109815 0)
(0.00137453 -0.00111707 0)
(0.00139845 -0.00109058 0)
(0.00135319 -0.00111041 0)
(0.00137801 -0.00108373 0)
(0.00133378 -0.00110439 0)
(0.00135943 -0.0010775 0)
(0.00131613 -0.00109893 0)
(0.00134253 -0.00107183 0)
(0.00130008 -0.00109396 0)
(0.00132717 -0.00106665 0)
(0.00128549 -0.00108943 0)
(0.00131322 -0.00106188 0)
(0.00127223 -0.00108527 0)
(0.00130053 -0.00105748 0)
(0.00126016 -0.00108143 0)
(0.001289 -0.00105338 0)
(0.00124917 -0.00107785 0)
(0.0012785 -0.00104954 0)
(0.00123912 -0.00107448 0)
(0.00126891 -0.0010459 0)
(0.0012299 -0.00107127 0)
(0.00126016 -0.00104242 0)
(0.00178105 -0.00117139 0)
(0.00179391 -0.00114732 0)
(0.00173155 -0.00115171 0)
(0.0017457 -0.00112672 0)
(0.00168685 -0.00113394 0)
(0.00170241 -0.00110823 0)
(0.00164641 -0.00111771 0)
(0.0016634 -0.00109156 0)
(0.00160972 -0.00110292 0)
(0.0016281 -0.00107652 0)
(0.00157638 -0.00108948 0)
(0.00159607 -0.00106293 0)
(0.00154604 -0.00107729 0)
(0.00156698 -0.00105063 0)
(0.00151844 -0.00106624 0)
(0.00154054 -0.00103948 0)
(0.00149333 -0.00105621 0)
(0.0015165 -0.00102936 0)
(0.00147049 -0.0010471 0)
(0.00149464 -0.00102016 0)
(0.00144972 -0.00103882 0)
(0.00147478 -0.00101176 0)
(0.00143083 -0.00103129 0)
(0.00145673 -0.0010041 0)
(0.00141367 -0.0010244 0)
(0.00144034 -0.000997067 0)
(0.00139809 -0.0010181 0)
(0.00142546 -0.000990603 0)
(0.00138394 -0.0010123 0)
(0.00141196 -0.000984632 0)
(0.00137108 -0.00100694 0)
(0.00139971 -0.000979089 0)
(0.00135939 -0.00100197 0)
(0.00138858 -0.000973914 0)
(0.00134875 -0.00099732 0)
(0.00137847 -0.000969051 0)
(0.00133903 -0.000992941 0)
(0.00136925 -0.000964446 0)
(0.00133011 -0.000988772 0)
(0.00136084 -0.000960036 0)
(0.00186797 -0.00112263 0)
(0.00188066 -0.00109739 0)
(0.0018198 -0.00109971 0)
(0.00183391 -0.00107363 0)
(0.00177631 -0.00107901 0)
(0.00179192 -0.00105234 0)
(0.00173697 -0.00106015 0)
(0.00175406 -0.00103316 0)
(0.0017013 -0.00104298 0)
(0.00171981 -0.00101585 0)
(0.0016689 -0.00102737 0)
(0.00168876 -0.00100019 0)
(0.00163945 -0.00101317 0)
(0.00166056 -0.000985985 0)
(0.00161267 -0.00100026 0)
(0.00163495 -0.000973078 0)
(0.00158833 -0.000988503 0)
(0.00161168 -0.000961323 0)
(0.00156621 -0.000977788 0)
(0.00159055 -0.000950595 0)
(0.00154611 -0.000968004 0)
(0.00157137 -0.000940781 0)
(0.00152787 -0.000959054 0)
(0.00155397 -0.000931777 0)
(0.00151132 -0.000950846 0)
(0.0015382 -0.000923494 0)
(0.00149631 -0.000943295 0)
(0.0015239 -0.000915848 0)
(0.00148269 -0.000936324 0)
(0.00151095 -0.000908765 0)
(0.00147035 -0.000929863 0)
(0.00149922 -0.000902177 0)
(0.00145915 -0.000923848 0)
(0.0014886 -0.000896021 0)
(0.00144898 -0.000918219 0)
(0.00147898 -0.000890236 0)
(0.00143971 -0.000912918 0)
(0.00147026 -0.000884758 0)
(0.00143122 -0.000907877 0)
(0.00146232 -0.000879513 0)
(0.00195223 -0.00107344 0)
(0.0019648 -0.0010472 0)
(0.00190583 -0.00104753 0)
(0.00191992 -0.00102055 0)
(0.0018639 -0.00102412 0)
(0.00187957 -0.000996684 0)
(0.00182597 -0.00100283 0)
(0.00184316 -0.000975197 0)
(0.00179157 -0.000983451 0)
(0.0018102 -0.000955792 0)
(0.00176032 -0.000965821 0)
(0.00178031 -0.000938218 0)
(0.00173192 -0.000949772 0)
(0.00175318 -0.00092226 0)
(0.00170612 -0.000935146 0)
(0.00172854 -0.000907733 0)
(0.00168267 -0.000921799 0)
(0.00170617 -0.000894478 0)
(0.00166138 -0.000909599 0)
(0.00168587 -0.000882355 0)
(0.00164206 -0.000898426 0)
(0.00166746 -0.000871239 0)
(0.00162456 -0.000888173 0)
(0.0016508 -0.000861019 0)
(0.00160871 -0.000878743 0)
(0.00163573 -0.000851592 0)
(0.00159436 -0.000870044 0)
(0.00162211 -0.000842863 0)
(0.00158138 -0.000861992 0)
(0.00160981 -0.000834746 0)
(0.00156963 -0.000854503 0)
(0.00159869 -0.000827168 0)
(0.001559 -0.000847502 0)
(0.00158863 -0.000820069 0)
(0.00154937 -0.000840928 0)
(0.00157955 -0.00081341 0)
(0.00154066 -0.000834741 0)
(0.00157137 -0.000807147 0)
(0.00153273 -0.000828907 0)
(0.001564 -0.000801205 0)
(0.00203361 -0.00102397 0)
(0.00204611 -0.0009969 0)
(0.00198937 -0.000995373 0)
(0.00200348 -0.000967681 0)
(0.00194936 -0.000969523 0)
(0.00196508 -0.000941509 0)
(0.00191311 -0.00094603 0)
(0.00193039 -0.000917948 0)
(0.00188022 -0.000924658 0)
(0.00189896 -0.000896661 0)
(0.00185034 -0.000905206 0)
(0.00187043 -0.00087737 0)
(0.00182317 -0.000887484 0)
(0.00184453 -0.000859836 0)
(0.00179848 -0.000871316 0)
(0.001821 -0.000843857 0)
(0.00177605 -0.000856541 0)
(0.00179963 -0.000829256 0)
(0.00175568 -0.00084301 0)
(0.00178025 -0.000815882 0)
(0.0017372 -0.000830592 0)
(0.00176268 -0.0008036 0)
(0.00172047 -0.000819167 0)
(0.00174678 -0.000792292 0)
(0.00170536 -0.00080863 0)
(0.00173243 -0.000781854 0)
(0.00169173 -0.000798893 0)
(0.00171952 -0.000772186 0)
(0.00167946 -0.000789878 0)
(0.00170793 -0.00076319 0)
(0.0016684 -0.00078151 0)
(0.00169755 -0.000754761 0)
(0.00165839 -0.000773703 0)
(0.00168822 -0.000746786 0)
(0.00164925 -0.000766336 0)
(0.00167974 -0.000739169 0)
(0.0016408 -0.000759248 0)
(0.00167196 -0.000731873 0)
(0.00163304 -0.000752241 0)
(0.00166485 -0.000724981 0)
(0.00211196 -0.000974369 0)
(0.00212442 -0.000946644 0)
(0.00207023 -0.000943426 0)
(0.00208437 -0.000915204 0)
(0.00203243 -0.000915435 0)
(0.00204821 -0.000887031 0)
(0.00199814 -0.000890009 0)
(0.00201548 -0.000861664 0)
(0.00196698 -0.000866885 0)
(0.00198579 -0.000838739 0)
(0.00193866 -0.000845835 0)
(0.00195881 -0.000817952 0)
(0.00191289 -0.000826649 0)
(0.00193429 -0.000799051 0)
(0.00188946 -0.000809138 0)
(0.00191201 -0.000781816 0)
(0.00186816 -0.000793126 0)
(0.00189176 -0.000766061 0)
(0.00184881 -0.000778458 0)
(0.00187339 -0.000751621 0)
(0.00183125 -0.000764991 0)
(0.00185672 -0.000738352 0)
(0.00181533 -0.000752595 0)
(0.00184162 -0.000726126 0)
(0.00180092 -0.000741152 0)
(0.00182796 -0.000714832 0)
(0.00178792 -0.000730556 0)
(0.00181565 -0.000704378 0)
(0.00177624 -0.000720721 0)
(0.0018046 -0.000694689 0)
(0.00176582 -0.000711592 0)
(0.00179476 -0.000685705 0)
(0.0017566 -0.000703159 0)
(0.00178612 -0.000677365 0)
(0.00174847 -0.000695471 0)
(0.00177863 -0.000669579 0)
(0.00174121 -0.000688618 0)
(0.0017722 -0.000662181 0)
(0.00173438 -0.000682692 0)
(0.00176652 -0.00065487 0)
(0.00218714 -0.000924761 0)
(0.0021996 -0.000896549 0)
(0.00214822 -0.000891835 0)
(0.0021624 -0.000863262 0)
(0.00211289 -0.00086203 0)
(0.00212873 -0.000833417 0)
(0.0020808 -0.000834965 0)
(0.00209818 -0.000806539 0)
(0.00205159 -0.000810355 0)
(0.00207042 -0.000782241 0)
(0.002025 -0.000787952 0)
(0.00204517 -0.000760205 0)
(0.0020008 -0.000767531 0)
(0.00202219 -0.000740163 0)
(0.00197877 -0.000748891 0)
(0.00200128 -0.000721888 0)
(0.00195874 -0.000731849 0)
(0.00198228 -0.000705185 0)
(0.00194053 -0.00071624 0)
(0.00196501 -0.000689883 0)
(0.00192399 -0.000701918 0)
(0.00194934 -0.000675833 0)
(0.001909 -0.000688752 0)
(0.00193514 -0.000662906 0)
(0.00189542 -0.00067663 0)
(0.00192229 -0.000650986 0)
(0.00188313 -0.00066545 0)
(0.00191068 -0.000639972 0)
(0.00187204 -0.000655126 0)
(0.0019002 -0.000629779 0)
(0.00186205 -0.000645581 0)
(0.00189075 -0.00062034 0)
(0.00185311 -0.000636755 0)
(0.00188229 -0.000611619 0)
(0.00184529 -0.000628643 0)
(0.00187481 -0.000603624 0)
(0.00183875 -0.00062136 0)
(0.00186843 -0.000596454 0)
(0.0018336 -0.000615217 0)
(0.00186321 -0.000590399 0)
(0.00225906 -0.000875236 0)
(0.00227154 -0.000846702 0)
(0.00222318 -0.000840712 0)
(0.00223741 -0.000811957 0)
(0.00219056 -0.000809437 0)
(0.00220643 -0.000780787 0)
(0.00216086 -0.000781043 0)
(0.00217826 -0.000752708 0)
(0.00213379 -0.000755227 0)
(0.0021526 -0.000727317 0)
(0.00210911 -0.000731725 0)
(0.00212922 -0.000704284 0)
(0.00208663 -0.000710303 0)
(0.00210793 -0.000683333 0)
(0.00206615 -0.000690748 0)
(0.00208854 -0.000664231 0)
(0.00204751 -0.000672871 0)
(0.00207091 -0.000646776 0)
(0.00203057 -0.000656501 0)
(0.00205488 -0.000630791 0)
(0.00201519 -0.000641486 0)
(0.00204034 -0.000616123 0)
(0.00200124 -0.000627689 0)
(0.00202717 -0.000602636 0)
(0.00198862 -0.000614986 0)
(0.00201526 -0.000590212 0)
(0.00197723 -0.000603271 0)
(0.00200452 -0.000578744 0)
(0.001967 -0.00059245 0)
(0.00199488 -0.000568135 0)
(0.00195784 -0.000582447 0)
(0.00198626 -0.000558288 0)
(0.00194971 -0.000573198 0)
(0.00197863 -0.000549097 0)
(0.00194261 -0.000564655 0)
(0.00197193 -0.000540454 0)
(0.00193662 -0.000556797 0)
(0.00196609 -0.000532363 0)
(0.00193168 -0.000549702 0)
(0.00196076 -0.000525237 0)
(0.00232761 -0.000825863 0)
(0.00234013 -0.000797165 0)
(0.00229497 -0.000790138 0)
(0.00230924 -0.000761363 0)
(0.00226523 -0.000757752 0)
(0.00228112 -0.000729225 0)
(0.0022381 -0.00072835 0)
(0.00225547 -0.000700263 0)
(0.00221332 -0.000701617 0)
(0.00223206 -0.000674063 0)
(0.0021907 -0.000677277 0)
(0.0022107 -0.000650288 0)
(0.00217006 -0.000655086 0)
(0.00219122 -0.000628657 0)
(0.00215126 -0.000634826 0)
(0.00217347 -0.000608931 0)
(0.00213414 -0.000616301 0)
(0.00215731 -0.000590903 0)
(0.00211857 -0.000599335 0)
(0.00214264 -0.000574392 0)
(0.00210445 -0.000583769 0)
(0.00212933 -0.000559237 0)
(0.00209165 -0.000569461 0)
(0.00211729 -0.000545296 0)
(0.00208009 -0.000556283 0)
(0.00210642 -0.000532442 0)
(0.00206968 -0.000544121 0)
(0.00209665 -0.00052056 0)
(0.00206035 -0.000532874 0)
(0.00208789 -0.000509545 0)
(0.00205203 -0.000522461 0)
(0.00208009 -0.000499298 0)
(0.00204473 -0.00051282 0)
(0.00207321 -0.000489717 0)
(0.00203845 -0.00050391 0)
(0.00206725 -0.000480705 0)
(0.00203324 -0.00049572 0)
(0.00206211 -0.000472293 0)
(0.00202891 -0.000488396 0)
(0.00205741 -0.000464828 0)
(0.00239271 -0.000776694 0)
(0.00240526 -0.000747992 0)
(0.00236345 -0.000740179 0)
(0.00237774 -0.00071154 0)
(0.00233673 -0.000707051 0)
(0.00235259 -0.000678797 0)
(0.00231228 -0.000676972 0)
(0.00232958 -0.000649275 0)
(0.00228991 -0.000649619 0)
(0.00230853 -0.000622557 0)
(0.00226945 -0.000624708 0)
(0.00228927 -0.000598299 0)
(0.00225076 -0.000601989 0)
(0.00227169 -0.00057622 0)
(0.00223372 -0.000581241 0)
(0.00225566 -0.000556078 0)
(0.0022182 -0.000562263 0)
(0.00224106 -0.000537662 0)
(0.00220408 -0.000544877 0)
(0.0022278 -0.00052079 0)
(0.00219128 -0.000528921 0)
(0.00221578 -0.000505298 0)
(0.00217969 -0.000514248 0)
(0.00220492 -0.000491041 0)
(0.00216924 -0.00050073 0)
(0.00219513 -0.000477891 0)
(0.00215986 -0.000488252 0)
(0.00218635 -0.000465732 0)
(0.00215147 -0.000476718 0)
(0.00217851 -0.000454459 0)
(0.00214405 -0.000466051 0)
(0.00217156 -0.000443975 0)
(0.00213758 -0.000456188 0)
(0.00216548 -0.000434176 0)
(0.00213208 -0.00044708 0)
(0.00216027 -0.00042497 0)
(0.00212758 -0.000438719 0)
(0.00215583 -0.000416386 0)
(0.0021239 -0.000431288 0)
(0.00215176 -0.000408783 0)
(0.00245426 -0.000727779 0)
(0.00246682 -0.000699228 0)
(0.00242847 -0.000690893 0)
(0.00244275 -0.000662539 0)
(0.00240487 -0.000657399 0)
(0.00242066 -0.00062956 0)
(0.00238319 -0.00062698 0)
(0.00240035 -0.000599807 0)
(0.0023633 -0.000599311 0)
(0.00238171 -0.000572864 0)
(0.00234507 -0.000574103 0)
(0.00236463 -0.000548389 0)
(0.0023284 -0.000551105 0)
(0.002349 -0.000526102 0)
(0.00231317 -0.000530095 0)
(0.00233473 -0.000505763 0)
(0.0022993 -0.000510871 0)
(0.00232174 -0.000487161 0)
(0.00228668 -0.000493255 0)
(0.00230993 -0.000470114 0)
(0.00227524 -0.000477084 0)
(0.00229923 -0.000454458 0)
(0.0022649 -0.000462213 0)
(0.00228958 -0.000440051 0)
(0.0022556 -0.000448514 0)
(0.00228089 -0.000426763 0)
(0.00224726 -0.000435874 0)
(0.00227313 -0.000414482 0)
(0.00223985 -0.000424202 0)
(0.00226623 -0.000403104 0)
(0.00223334 -0.00041342 0)
(0.00226016 -0.00039253 0)
(0.00222771 -0.000403467 0)
(0.0022549 -0.000382655 0)
(0.00222299 -0.000394294 0)
(0.00225046 -0.000373382 0)
(0.0022192 -0.000385898 0)
(0.00224673 -0.000364733 0)
(0.00221616 -0.00037847 0)
(0.00224328 -0.000357065 0)
(0.00251217 -0.000679161 0)
(0.00252472 -0.000650915 0)
(0.00248991 -0.000642324 0)
(0.00250413 -0.000614403 0)
(0.00246946 -0.000608844 0)
(0.00248511 -0.000581554 0)
(0.0024506 -0.000578424 0)
(0.00246755 -0.0005519 0)
(0.00243323 -0.000550746 0)
(0.00245136 -0.000525029 0)
(0.00241727 -0.000525519 0)
(0.00243647 -0.000500607 0)
(0.00240265 -0.000502495 0)
(0.00242283 -0.000478359 0)
(0.00238927 -0.000481454 0)
(0.00241035 -0.000458048 0)
(0.00237708 -0.000462198 0)
(0.00239897 -0.000439468 0)
(0.00236598 -0.000444549 0)
(0.00238863 -0.000422439 0)
(0.00235593 -0.000428348 0)
(0.00237928 -0.000406801 0)
(0.00234686 -0.000413451 0)
(0.00237084 -0.000392412 0)
(0.00233871 -0.000399733 0)
(0.00236328 -0.000379147 0)
(0.00233145 -0.000387085 0)
(0.00235655 -0.000366894 0)
(0.00232502 -0.000375417 0)
(0.00235059 -0.000355551 0)
(0.00231941 -0.000364654 0)
(0.0023454 -0.00034502 0)
(0.00231461 -0.000354738 0)
(0.00234096 -0.000335193 0)
(0.00231067 -0.000345621 0)
(0.00233728 -0.000325971 0)
(0.00230759 -0.000337307 0)
(0.00233427 -0.000317371 0)
(0.00230519 -0.000329986 0)
(0.00233144 -0.000309739 0)
(0.00256637 -0.000630877 0)
(0.00257886 -0.000603081 0)
(0.00254763 -0.000594504 0)
(0.00256173 -0.000567152 0)
(0.00253034 -0.00056141 0)
(0.00254579 -0.000534797 0)
(0.00251431 -0.000531328 0)
(0.00253096 -0.000505568 0)
(0.00249947 -0.000503946 0)
(0.00251722 -0.000479066 0)
(0.00248579 -0.000478979 0)
(0.00250453 -0.000454967 0)
(0.00247322 -0.000456184 0)
(0.00249287 -0.000433004 0)
(0.00246171 -0.000435346 0)
(0.00248218 -0.000412947 0)
(0.0024512 -0.000416272 0)