/*--------------------------------*- C++ -*----------------------------------*\
| =========                 |                                                 |
| \\      /  F ield         | OpenFOAM: The Open Source CFD Toolbox           |
|  \\    /   O peration     | Version:  v2012                                 |
|   \\  /    A nd           | Website:  www.openfoam.com                      |
|    \\/     M anipulation  |                                                 |
\*---------------------------------------------------------------------------*/
FoamFile
{
    version     2.0;
    format      ascii;
    class       volScalarField;
    location    "8";
    object      sigmaHyd;
}
// * * * * * * * * * * * * * * * * * * * * * * * * * * * * * * * * * * * * * //

dimensions      [1 -1 -2 0 0 0 0];


internalField   nonuniform List<scalar> 
8000
(
1.39022e+08
1.39692e+08
1.43844e+08
1.45231e+08
1.4938e+08
1.50625e+08
1.54159e+08
1.55294e+08
1.58446e+08
1.59486e+08
1.62258e+08
1.63144e+08
1.65483e+08
1.66145e+08
1.67977e+08
1.68347e+08
1.69631e+08
1.69671e+08
1.70328e+08
1.69827e+08
1.69161e+08
1.67275e+08
1.63941e+08
1.60592e+08
1.55828e+08
1.52411e+08
1.47772e+08
1.44789e+08
1.40544e+08
1.37938e+08
1.33981e+08
1.31648e+08
1.27887e+08
1.25767e+08
1.22141e+08
1.20181e+08
1.16607e+08
1.14739e+08
1.11131e+08
1.09339e+08
1.37226e+08
1.38264e+08
1.42143e+08
1.44133e+08
1.47947e+08
1.49559e+08
1.52876e+08
1.54214e+08
1.57239e+08
1.58326e+08
1.6105e+08
1.61797e+08
1.64166e+08
1.64465e+08
1.66448e+08
1.66201e+08
1.67808e+08
1.66917e+08
1.68034e+08
1.66043e+08
1.65801e+08
1.61865e+08
1.59702e+08
1.55039e+08
1.52147e+08
1.4794e+08
1.44984e+08
1.41372e+08
1.38459e+08
1.35302e+08
1.32421e+08
1.29612e+08
1.26753e+08
1.2422e+08
1.21358e+08
1.19026e+08
1.161e+08
1.13884e+08
1.10838e+08
1.08722e+08
1.37201e+08
1.38357e+08
1.42009e+08
1.43892e+08
1.47546e+08
1.49047e+08
1.52259e+08
1.534e+08
1.56337e+08
1.57046e+08
1.597e+08
1.59827e+08
1.62162e+08
1.61555e+08
1.63563e+08
1.62076e+08
1.63766e+08
1.61177e+08
1.62314e+08
1.58243e+08
1.58139e+08
1.53091e+08
1.51986e+08
1.472e+08
1.45699e+08
1.41492e+08
1.39794e+08
1.36074e+08
1.34231e+08
1.30888e+08
1.28936e+08
1.259e+08
1.23863e+08
1.21079e+08
1.18951e+08
1.16356e+08
1.14087e+08
1.11619e+08
1.09164e+08
1.06826e+08
1.36908e+08
1.37846e+08
1.415e+08
1.43149e+08
1.4679e+08
1.47948e+08
1.51107e+08
1.51676e+08
1.54519e+08
1.54373e+08
1.56914e+08
1.55879e+08
1.58098e+08
1.56003e+08
1.5791e+08
1.54697e+08
1.5626e+08
1.52071e+08
1.53019e+08
1.48195e+08
1.4839e+08
1.43691e+08
1.43376e+08
1.39104e+08
1.38451e+08
1.34579e+08
1.33661e+08
1.3012e+08
1.28986e+08
1.25732e+08
1.24425e+08
1.21427e+08
1.19974e+08
1.17197e+08
1.15596e+08
1.12999e+08
1.11209e+08
1.08747e+08
1.06734e+08
1.04434e+08
1.36319e+08
1.3707e+08
1.40625e+08
1.41872e+08
1.45385e+08
1.4587e+08
1.48863e+08
1.48452e+08
1.51072e+08
1.49659e+08
1.51921e+08
1.49355e+08
1.51279e+08
1.477e+08
1.49305e+08
1.45135e+08
1.4643e+08
1.42064e+08
1.42951e+08
1.38687e+08
1.39152e+08
1.35142e+08
1.35254e+08
1.31511e+08
1.31325e+08
1.27826e+08
1.27384e+08
1.24115e+08
1.23455e+08
1.20406e+08
1.19559e+08
1.16718e+08
1.15703e+08
1.13053e+08
1.11867e+08
1.09381e+08
1.0799e+08
1.05639e+08
1.04021e+08
1.0183e+08
1.35293e+08
1.35644e+08
1.39012e+08
1.39477e+08
1.4272e+08
1.42149e+08
1.44829e+08
1.43187e+08
1.45384e+08
1.42562e+08
1.44374e+08
1.40728e+08
1.42238e+08
1.38296e+08
1.39655e+08
1.35767e+08
1.36923e+08
1.33149e+08
1.34028e+08
1.30391e+08
1.30985e+08
1.27498e+08
1.27827e+08
1.24498e+08
1.24585e+08
1.21421e+08
1.2129e+08
1.18298e+08
1.17972e+08
1.15152e+08
1.14649e+08
1.12e+08
1.11331e+08
1.08844e+08
1.08007e+08
1.05666e+08
1.04629e+08
1.02414e+08
1.01157e+08
9.90896e+07
1.33391e+08
1.33076e+08
1.36124e+08
1.35555e+08
1.38378e+08
1.36807e+08
1.38945e+08
1.36187e+08
1.3774e+08
1.34219e+08
1.3557e+08
1.31964e+08
1.3326e+08
1.29772e+08
1.30981e+08
1.27603e+08
1.28659e+08
1.2536e+08
1.26223e+08
1.23003e+08
1.23663e+08
1.2054e+08
1.21002e+08
1.17992e+08
1.18264e+08
1.15382e+08
1.15476e+08
1.1273e+08
1.12657e+08
1.10052e+08
1.09822e+08
1.0736e+08
1.06978e+08
1.04656e+08
1.04117e+08
1.01926e+08
1.01204e+08
9.91283e+07
9.81994e+07
9.62587e+07
1.30172e+08
1.29175e+08
1.3181e+08
1.30522e+08
1.32731e+08
1.30274e+08
1.31656e+08
1.28337e+08
1.29487e+08
1.26116e+08
1.27319e+08
1.241e+08
1.25302e+08
1.2219e+08
1.2332e+08
1.20266e+08
1.21278e+08
1.18276e+08
1.19148e+08
1.16209e+08
1.16932e+08
1.14075e+08
1.14647e+08
1.11886e+08
1.12308e+08
1.09654e+08
1.09931e+08
1.07393e+08
1.07529e+08
1.05111e+08
1.05111e+08
1.02817e+08
1.02682e+08
1.00513e+08
1.00238e+08
9.8187e+07
9.7748e+07
9.58042e+07
9.51767e+07
9.33562e+07
1.25956e+08
1.24677e+08
1.26762e+08
1.2486e+08
1.26143e+08
1.23164e+08
1.24038e+08
1.20841e+08
1.21822e+08
1.18755e+08
1.19876e+08
1.16919e+08
1.18067e+08
1.15169e+08
1.16269e+08
1.13416e+08
1.14431e+08
1.11631e+08
1.12544e+08
1.09809e+08
1.1061e+08
1.07953e+08
1.08636e+08
1.06067e+08
1.0663e+08
1.04158e+08
1.04602e+08
1.02232e+08
1.02557e+08
1.00295e+08
1.00502e+08
9.83511e+07
9.84412e+07
9.64032e+07
9.63706e+07
9.44422e+07
9.42652e+07
9.24371e+07
9.20914e+07
9.03767e+07
1.2146e+08
1.20029e+08
1.2134e+08
1.18845e+08
1.19432e+08
1.16348e+08
1.16956e+08
1.13891e+08
1.14784e+08
1.11859e+08
1.12936e+08
1.10102e+08
1.11234e+08
1.08459e+08
1.09573e+08
1.06853e+08
1.07914e+08
1.05256e+08
1.06243e+08
1.03656e+08
1.04557e+08
1.02049e+08
1.02856e+08
1.00432e+08
1.01141e+08
9.88088e+07
9.94174e+07
9.71809e+07
9.7688e+07
9.55514e+07
9.59566e+07
9.3923e+07
9.4226e+07
9.22971e+07
9.24932e+07
9.06672e+07
9.07375e+07
8.90067e+07
8.89276e+07
8.73015e+07
1.16884e+08
1.14926e+08
1.15613e+08
1.12665e+08
1.12869e+08
1.09654e+08
1.10167e+08
1.07097e+08
1.07993e+08
1.05092e+08
1.06198e+08
1.03408e+08
1.04588e+08
1.01878e+08
1.03062e+08
1.00426e+08
1.01577e+08
9.90159e+07
1.00112e+08
9.76296e+07
9.86562e+07
9.62563e+07
9.72047e+07
9.48908e+07
9.57556e+07
9.35312e+07
9.43093e+07
9.21774e+07
9.28667e+07
9.08299e+07
9.14295e+07
8.94901e+07
8.99996e+07
8.81592e+07
8.85751e+07
8.68326e+07
8.71394e+07
8.54882e+07
8.56631e+07
8.41088e+07
1.11307e+08
1.08735e+08
1.093e+08
1.059e+08
1.06078e+08
1.02672e+08
1.03276e+08
1.00133e+08
1.01146e+08
9.82203e+07
9.94433e+07
9.66603e+07
9.79593e+07
9.52825e+07
9.65917e+07
9.40086e+07
9.52933e+07
9.27994e+07
9.40378e+07
9.16317e+07
9.28095e+07
9.04912e+07
9.15994e+07
8.93697e+07
9.04027e+07
8.82629e+07
8.92174e+07
8.71687e+07
8.80426e+07
8.60861e+07
8.68787e+07
8.50157e+07
8.57272e+07
8.39589e+07
8.45877e+07
8.29135e+07
8.34471e+07
8.18612e+07
8.22775e+07
8.0781e+07
1.04302e+08
1.01251e+08
1.02032e+08
9.83199e+07
9.87402e+07
9.51888e+07
9.60402e+07
9.28292e+07
9.40635e+07
9.11088e+07
9.25285e+07
8.97447e+07
9.12266e+07
8.85716e+07
9.00569e+07
8.75128e+07
8.89708e+07
8.65285e+07
8.79398e+07
8.55938e+07
8.69457e+07
8.4693e+07
8.59776e+07
8.38165e+07
8.5029e+07
8.29589e+07
8.40964e+07
8.21168e+07
8.3178e+07
8.12886e+07
8.22732e+07
8.04745e+07
8.13837e+07
7.96767e+07
8.05107e+07
7.88951e+07
7.96451e+07
7.81154e+07
7.87593e+07
7.73121e+07
9.61579e+07
9.28129e+07
9.39247e+07
9.00575e+07
9.08381e+07
8.72224e+07
8.84027e+07
8.5165e+07
8.66823e+07
8.37219e+07
8.53905e+07
8.26188e+07
8.43275e+07
8.17e+07
8.33977e+07
8.08932e+07
8.25536e+07
8.01598e+07
8.17669e+07
7.94756e+07
8.10192e+07
7.88253e+07
8.02991e+07
7.81991e+07
7.95998e+07
7.75914e+07
7.89172e+07
7.69988e+07
7.8249e+07
7.64195e+07
7.75948e+07
7.58539e+07
7.69564e+07
7.5305e+07
7.63371e+07
7.47757e+07
7.57316e+07
7.42552e+07
7.51124e+07
7.37132e+07
8.72426e+07
8.37348e+07
8.52038e+07
8.12956e+07
8.24785e+07
7.88717e+07
8.04117e+07
7.71948e+07
7.90211e+07
7.60878e+07
7.80295e+07
7.52927e+07
7.72508e+07
7.46661e+07
7.65959e+07
7.41405e+07
7.60201e+07
7.36801e+07
7.54964e+07
7.32624e+07
7.50078e+07
7.2873e+07
7.45434e+07
7.25034e+07
7.40969e+07
7.21482e+07
7.36644e+07
7.18046e+07
7.32439e+07
7.14712e+07
7.28354e+07
7.11492e+07
7.24418e+07
7.08433e+07
7.20687e+07
7.05593e+07
7.17142e+07
7.0289e+07
7.13496e+07
6.99938e+07
7.78266e+07
7.42449e+07
7.60631e+07
7.21959e+07
7.3786e+07
7.02478e+07
7.21507e+07
6.89983e+07
7.11366e+07
6.82638e+07
7.04831e+07
6.78071e+07
7.00197e+07
6.74975e+07
6.96645e+07
6.72732e+07
6.93761e+07
6.71011e+07
6.913e+07
6.69613e+07
6.89107e+07
6.68412e+07
6.87087e+07
6.67335e+07
6.85184e+07
6.66338e+07
6.83367e+07
6.65397e+07
6.8162e+07
6.64503e+07
6.79952e+07
6.63676e+07
6.7841e+07
6.62984e+07
6.77074e+07
6.62511e+07
6.75947e+07
6.62173e+07
6.74659e+07
6.61405e+07
6.81112e+07
6.4521e+07
6.66645e+07
6.28994e+07
6.48817e+07
6.14598e+07
6.37121e+07
6.06619e+07
6.3101e+07
6.03195e+07
6.28077e+07
6.02178e+07
6.26781e+07
6.02394e+07
6.26378e+07
6.0328e+07
6.2649e+07
6.04537e+07
6.26898e+07
6.05992e+07
6.27473e+07
6.07545e+07
6.28138e+07
6.09145e+07
6.28851e+07
6.10764e+07
6.29583e+07
6.12383e+07
6.30318e+07
6.13992e+07
6.31062e+07
6.15601e+07
6.31866e+07
6.17275e+07
6.32836e+07
6.19116e+07
6.34007e+07
6.21071e+07
6.34959e+07
6.22554e+07
5.8256e+07
5.47076e+07
5.7145e+07
5.35277e+07
5.58761e+07
5.2607e+07
5.51859e+07
5.22677e+07
5.49889e+07
5.23235e+07
5.50654e+07
5.25827e+07
5.52782e+07
5.29408e+07
5.55602e+07
5.3347e+07
5.58772e+07
5.37744e+07
5.621e+07
5.42086e+07
5.65488e+07
5.46425e+07
5.68892e+07
5.50742e+07
5.723e+07
5.55049e+07
5.75714e+07
5.59365e+07
5.79133e+07
5.6371e+07
5.82554e+07
5.68102e+07
5.85991e+07
5.72583e+07
5.89518e+07
5.77247e+07
5.93215e+07
5.82188e+07
5.96963e+07
5.87367e+07
4.83901e+07
4.49222e+07
4.76191e+07
4.4182e+07
4.68645e+07
4.37741e+07
4.66517e+07
4.38867e+07
4.68667e+07
4.43352e+07
4.73116e+07
4.49505e+07
4.78657e+07
4.56403e+07
4.84686e+07
4.63588e+07
4.90892e+07
4.70819e+07
4.97112e+07
4.77973e+07
5.0327e+07
4.85006e+07
5.09356e+07
4.91924e+07
5.15396e+07
4.98764e+07
5.21443e+07
5.05589e+07
5.27565e+07
5.12488e+07
5.33849e+07
5.19606e+07
5.40434e+07
5.27182e+07
5.47563e+07
5.3554e+07
5.55536e+07
5.4484e+07
5.64444e+07
5.55082e+07
3.86168e+07
3.52574e+07
3.81792e+07
3.49433e+07
3.79251e+07
3.50301e+07
3.81756e+07
3.55784e+07
3.879e+07
3.64048e+07
3.95917e+07
3.73616e+07
4.04751e+07
3.83681e+07
4.13858e+07
3.93819e+07
4.22951e+07
4.03805e+07
4.31877e+07
4.1352e+07
4.4057e+07
4.22923e+07
4.49021e+07
4.32018e+07
4.5726e+07
4.40838e+07
4.65346e+07
4.49437e+07
4.73369e+07
4.5786e+07
4.81431e+07
4.66098e+07
4.89601e+07
4.73937e+07
4.97735e+07
4.80707e+07
5.05237e+07
4.85479e+07
5.10913e+07
4.87253e+07
2.90151e+07
2.57836e+07
2.88973e+07
2.58759e+07
2.91223e+07
2.64351e+07
2.98159e+07
2.7399e+07
3.08118e+07
2.85853e+07
3.19531e+07
2.98662e+07
3.31481e+07
3.11712e+07
3.43476e+07
3.24615e+07
3.55241e+07
3.37151e+07
3.66627e+07
3.49201e+07
3.7756e+07
3.60704e+07
3.88007e+07
3.71625e+07
3.97944e+07
3.81925e+07
4.07339e+07
3.91545e+07
4.16127e+07
4.00373e+07
4.24143e+07
4.08112e+07
4.3094e+07
4.13996e+07
4.35632e+07
4.17087e+07
4.38311e+07
4.20282e+07
4.46043e+07
4.40264e+07
1.96435e+07
1.65533e+07
1.98303e+07
1.70336e+07
2.05131e+07
1.80454e+07
2.16307e+07
1.9408e+07
2.29918e+07
2.09397e+07
2.44578e+07
2.2532e+07
2.59511e+07
2.41252e+07
2.74275e+07
2.56841e+07
2.88613e+07
2.7188e+07
3.02381e+07
2.86262e+07
3.15507e+07
2.99939e+07
3.27958e+07
3.1289e+07
3.3971e+07
3.25098e+07
3.50729e+07
3.36523e+07
3.60928e+07
3.47014e+07
3.70007e+07
3.56055e+07
3.77114e+07
3.62504e+07
3.81105e+07
3.66028e+07
3.84523e+07
3.73665e+07
4.01727e+07
3.9891e+07
1.05462e+07
7.60865e+06
1.1025e+07
8.46309e+06
1.21492e+07
9.91273e+06
1.36763e+07
1.1661e+07
1.53901e+07
1.3527e+07
1.7171e+07
1.54223e+07
1.89553e+07
1.72982e+07
2.07048e+07
1.9124e+07
2.23964e+07
2.08815e+07
2.40177e+07
2.2562e+07
2.55635e+07
2.41627e+07
2.7032e+07
2.56828e+07
2.84224e+07
2.71214e+07
2.97319e+07
2.84736e+07
3.09487e+07
2.9719e+07
3.203e+07
3.07929e+07
3.2872e+07
3.15775e+07
3.33918e+07
3.20986e+07
3.40049e+07
3.3073e+07
3.60443e+07
3.58184e+07
1.7615e+06
-1.01184e+06
2.52336e+06
206008
4.07557e+06
2.07952e+06
5.99884e+06
4.19969e+06
8.0533e+06
6.38741e+06
1.01385e+07
8.5746e+06
1.22053e+07
1.07237e+07
1.42217e+07
1.28085e+07
1.61672e+07
1.48131e+07
1.80315e+07
1.67306e+07
1.98108e+07
1.8559e+07
2.15045e+07
2.02984e+07
2.31119e+07
2.19471e+07
2.4629e+07
2.34977e+07
2.60399e+07
2.49239e+07
2.7293e+07
2.6154e+07
2.82785e+07
2.70695e+07
2.89282e+07
2.76986e+07
2.96663e+07
2.8779e+07
3.18613e+07
3.16983e+07
-6.67209e+06
-9.26925e+06
-5.6356e+06
-7.70027e+06
-3.67033e+06
-5.42027e+06
-1.36733e+06
-2.94596e+06
1.01209e+06
-453195
3.38698e+06
2.01003e+06
5.72257e+06
4.41719e+06
7.99278e+06
6.74629e+06
1.01797e+07
8.98346e+06
1.22746e+07
1.1123e+07
1.42748e+07
1.31636e+07
1.61799e+07
1.51049e+07
1.79883e+07
1.69441e+07
1.96941e+07
1.86716e+07
2.12779e+07
2.02581e+07
2.26837e+07
2.16283e+07
2.37978e+07
2.26585e+07
2.45489e+07
2.33764e+07
2.53749e+07
2.45501e+07
2.77053e+07
2.76216e+07
-1.47154e+07
-1.71252e+07
-1.34148e+07
-1.52211e+07
-1.10558e+07
-1.25564e+07
-8.39361e+06
-9.74941e+06
-5.70864e+06
-6.9715e+06
-3.06233e+06
-4.25107e+06
-475525
-1.60408e+06
2.0314e+06
951457
4.44288e+06
3.4034e+06
6.75139e+06
5.74698e+06
8.95487e+06
7.98135e+06
1.10528e+07
1.01058e+07
1.30431e+07
1.21168e+07
1.49183e+07
1.40037e+07
1.66574e+07
1.57355e+07
1.82019e+07
1.72338e+07
1.94333e+07
1.837e+07
2.02769e+07
1.91724e+07
2.11857e+07
2.04315e+07
2.36341e+07
2.36288e+07
-2.23314e+07
-2.45448e+07
-2.07803e+07
-2.2325e+07
-1.80505e+07
-1.93006e+07
-1.50528e+07
-1.61845e+07
-1.20839e+07
-1.3143e+07
-9.18634e+06
-1.01856e+07
-6.36764e+06
-7.31824e+06
-3.64281e+06
-4.55527e+06
-1.02531e+06
-1.90723e+06
1.4784e+06
621979
3.86684e+06
3.03194e+06
6.13956e+06
5.32193e+06
8.29403e+06
7.48806e+06
1.03223e+07
9.51891e+06
1.22022e+07
1.13824e+07
1.38728e+07
1.2997e+07
1.52118e+07
1.42305e+07
1.61417e+07
1.51107e+07
1.71254e+07
1.64426e+07
1.96697e+07
1.97407e+07
-2.94888e+07
-3.14994e+07
-2.77027e+07
-2.89852e+07
-2.46275e+07
-2.56273e+07
-2.13192e+07
-2.22266e+07
-1.80891e+07
-1.89437e+07
-1.49613e+07
-1.57701e+07
-1.19307e+07
-1.27024e+07
-9.00737e+06
-9.75124e+06
-6.20271e+06
-6.92578e+06
-3.52218e+06
-4.22903e+06
-966670
-1.66097e+06
1.46357e+06
777801
3.76585e+06
3.08316e+06
5.93181e+06
5.24314e+06
7.93821e+06
7.22447e+06
9.72242e+06
8.94353e+06
1.11587e+07
1.02647e+07
1.21668e+07
1.12145e+07
1.32154e+07
1.26073e+07
1.58355e+07
1.59839e+07
-3.61629e+07
-3.79667e+07
-3.41584e+07
-3.518e+07
-3.07639e+07
-3.15152e+07
-2.71702e+07
-2.78543e+07
-2.37017e+07
-2.43521e+07
-2.03648e+07
-2.09831e+07
-1.71425e+07
-1.77347e+07
-1.404e+07
-1.46144e+07
-1.10668e+07
-1.16298e+07
-8.22741e+06
-8.78306e+06
-5.52211e+06
-6.07372e+06
-2.9509e+06
-3.50223e+06
-516541
-1.07288e+06
1.77221e+06
1.2019e+06
3.89135e+06
3.28791e+06
5.77671e+06
5.09984e+06
7.29995e+06
6.49947e+06
8.37831e+06
7.51128e+06
9.48269e+06
8.95442e+06
1.21609e+07
1.23897e+07
-4.23354e+07
-4.39303e+07
-4.01292e+07
-4.08928e+07
-3.64411e+07
-3.6947e+07
-3.2587e+07
-3.30496e+07
-2.89024e+07
-2.93496e+07
-2.53771e+07
-2.58052e+07
-2.19827e+07
-2.23954e+07
-1.87198e+07
-1.91242e+07
-1.55962e+07
-1.5998e+07
-1.26152e+07
-1.30182e+07
-9.77669e+06
-1.01836e+07
-7.0803e+06
-7.49466e+06
-4.52887e+06
-4.95577e+06
-2.13144e+06
-2.57974e+06
87350.5
-401443
2.06222e+06
1.4926e+06
3.6629e+06
2.96224e+06
4.80427e+06
4.02969e+06
5.95682e+06
5.51436e+06
8.67756e+06
8.99016e+06
-4.79934e+07
-4.9379e+07
-4.56018e+07
-4.61115e+07
-4.1645e+07
-4.19093e+07
-3.75541e+07
-3.77978e+07
-3.36746e+07
-3.39202e+07
-2.99807e+07
-3.02195e+07
-2.6433e+07
-2.66664e+07
-2.30278e+07
-2.3262e+07
-1.97709e+07
-2.00109e+07
-1.66649e+07
-1.69139e+07
-1.37089e+07
-1.39693e+07
-1.09023e+07
-1.11773e+07
-8.24796e+06
-8.54253e+06
-5.75515e+06
-6.07794e+06
-3.44897e+06
-3.81893e+06
-1.39543e+06
-1.85271e+06
274019
-320613
1.47218e+06
797100
2.66659e+06
2.31583e+06
5.41583e+06
5.81524e+06
-5.31288e+07
-5.43058e+07
-5.0567e+07
-5.08274e+07
-4.63646e+07
-4.63914e+07
-4.20589e+07
-4.20864e+07
-3.80044e+07
-3.80501e+07
-3.41603e+07
-3.4211e+07
-3.04772e+07
-3.0532e+07
-2.69467e+07
-2.70107e+07
-2.3573e+07
-2.36506e+07
-2.03575e+07
-2.04514e+07
-1.72988e+07
-1.74111e+07
-1.43961e+07
-1.45297e+07
-1.16522e+07
-1.18118e+07
-9.07652e+06
-9.27059e+06
-6.69443e+06
-6.94169e+06
-4.57226e+06
-4.91247e+06
-2.84196e+06
-3.32469e+06
-1.59231e+06
-2.16117e+06
-361206
-614645
2.40382e+06
2.89245e+06
-5.7737e+07
-5.87069e+07
-5.5019e+07
-5.50349e+07
-5.05917e+07
-5.0385e+07
-4.60911e+07
-4.59051e+07
-4.18798e+07
-4.17275e+07
-3.79029e+07
-3.77669e+07
-3.4101e+07
-3.39781e+07
-3.04614e+07
-3.03555e+07
-2.69861e+07
-2.6901e+07
-2.36757e+07
-2.36136e+07
-2.05282e+07
-2.04909e+07
-1.75426e+07
-1.75328e+07
-1.47217e+07
-1.47439e+07
-1.20749e+07
-1.21373e+07
-9.62765e+06
-9.74869e+06
-7.44625e+06
-7.66501e+06
-5.66229e+06
-6.02762e+06
-4.36568e+06
-4.82191e+06
-3.102e+06
-3.25278e+06
-332900
246703
-6.18166e+07
-6.25816e+07
-5.89544e+07
-5.87304e+07
-5.43202e+07
-5.38839e+07
-4.96421e+07
-4.92455e+07
-4.52907e+07
-4.49427e+07
-4.11972e+07
-4.0876e+07
-3.72922e+07
-3.69923e+07
-3.35582e+07
-3.32824e+07
-2.99954e+07
-2.97469e+07
-2.66035e+07
-2.63841e+07
-2.33801e+07
-2.31914e+07
-2.0324e+07
-2.01687e+07
-1.74378e+07
-1.73201e+07
-1.4731e+07
-1.4659e+07
-1.22289e+07
-1.22204e+07
-9.99706e+06
-1.00902e+07
-8.16604e+06
-8.40867e+06
-6.82618e+06
-7.1634e+06
-5.53298e+06
-5.5756e+06
-2.77066e+06
-2.09887e+06
-6.5369e+07
-6.59322e+07
-6.23724e+07
-6.19134e+07
-5.75462e+07
-5.68836e+07
-5.27054e+07
-5.20997e+07
-4.82283e+07
-4.76851e+07
-4.40328e+07
-4.3526e+07
-4.00385e+07
-3.95601e+07
-3.6223e+07
-3.57749e+07
-3.25851e+07
-3.21701e+07
-2.91238e+07
-2.87439e+07
-2.58365e+07
-2.54934e+07
-2.27218e+07
-2.24179e+07
-1.97819e+07
-1.95215e+07
-1.70262e+07
-1.68167e+07
-1.44792e+07
-1.43378e+07
-1.22055e+07
-1.21691e+07
-1.03335e+07
-1.04481e+07
-8.95303e+06
-9.16434e+06
-7.63163e+06
-7.55943e+06
-4.88613e+06
-4.12145e+06
-6.84003e+07
-6.87661e+07
-6.52762e+07
-6.45852e+07
-6.02658e+07
-5.93722e+07
-5.52693e+07
-5.44465e+07
-5.06766e+07
-4.99305e+07
-4.63909e+07
-4.5691e+07
-4.23188e+07
-4.16541e+07
-3.84329e+07
-3.78048e+07
-3.47312e+07
-3.41431e+07
-3.12126e+07
-3.06665e+07
-2.78741e+07
-2.73716e+07
-2.47136e+07
-2.42571e+07
-2.17328e+07
-2.13262e+07
-1.89403e+07
-1.85906e+07
-1.63595e+07
-1.6083e+07
-1.40531e+07
-1.38846e+07
-1.21459e+07
-1.21283e+07
-1.07256e+07
-1.08036e+07
-9.37326e+06
-9.17746e+06
-6.65324e+06
-5.79649e+06
-7.09201e+07
-7.10866e+07
-6.76637e+07
-6.67182e+07
-6.24513e+07
-6.12929e+07
-5.72911e+07
-5.62288e+07
-5.25923e+07
-5.16319e+07
-4.82308e+07
-4.73292e+07
-4.40936e+07
-4.32357e+07
-4.015e+07
-3.93376e+07
-3.63986e+07
-3.56346e+07
-3.28376e+07
-3.21238e+07
-2.94633e+07
-2.88008e+07
-2.62728e+07
-2.56638e+07
-2.32671e+07
-2.27155e+07
-2.04537e+07
-1.99663e+07
-1.78542e+07
-1.74463e+07
-1.55276e+07
-1.52313e+07
-1.3592e+07
-1.34446e+07
-1.21286e+07
-1.207e+07
-1.07329e+07
-1.04062e+07
-8.04205e+06
-7.1012e+06
-7.29044e+07
-7.28359e+07
-6.94716e+07
-6.8195e+07
-6.40032e+07
-6.25486e+07
-5.86942e+07
-5.74206e+07
-5.39335e+07
-5.27955e+07
-4.95253e+07
-4.84554e+07
-4.53426e+07
-4.4324e+07
-4.13598e+07
-4.03944e+07
-3.75766e+07
-3.66667e+07
-3.39907e+07
-3.3137e+07
-3.05976e+07
-2.9801e+07
-2.73945e+07
-2.66574e+07
-2.43824e+07
-2.37091e+07
-2.1568e+07
-2.09656e+07
-1.89706e+07
-1.84538e+07
-1.66431e+07
-1.62408e+07
-1.46913e+07
-1.44323e+07
-1.31791e+07
-1.29935e+07
-1.17124e+07
-1.12591e+07
-9.04137e+06
-8.04001e+06
-7.42477e+07
-7.39261e+07
-7.05574e+07
-6.89492e+07
-6.48756e+07
-6.33179e+07
-5.95855e+07
-5.82829e+07
-5.48514e+07
-5.3669e+07
-5.04246e+07
-4.92977e+07
-4.62097e+07
-4.51323e+07
-4.21985e+07
-4.11747e+07
-3.83926e+07
-3.74239e+07
-3.47889e+07
-3.38748e+07
-3.13832e+07
-3.05242e+07
-2.81742e+07
-2.73726e+07
-2.51644e+07
-2.44247e+07
-2.23609e+07
-2.16911e+07
-1.97811e+07
-1.91962e+07
-1.74702e+07
-1.69968e+07
-1.55149e+07
-1.51735e+07
-1.39472e+07
-1.36546e+07
-1.23711e+07
-1.18008e+07
-9.69518e+06
-8.64508e+06
-7.51194e+07
-7.4645e+07
-7.10841e+07
-6.95095e+07
-6.55607e+07
-6.40821e+07
-6.04644e+07
-5.91284e+07
-5.57578e+07
-5.44885e+07
-5.12899e+07
-5.00692e+07
-4.70292e+07
-4.58611e+07
-4.29787e+07
-4.18656e+07
-3.91368e+07
-3.80773e+07
-3.54974e+07
-3.44903e+07
-3.20567e+07
-3.11018e+07
-2.88156e+07
-2.79153e+07
-2.57807e+07
-2.49398e+07
-2.2964e+07
-2.21911e+07
-2.03869e+07
-1.96968e+07
-1.80926e+07
-1.75095e+07
-1.61482e+07
-1.56836e+07
-1.45292e+07
-1.40854e+07
-1.27753e+07
-1.2048e+07
-9.9632e+06
-8.86254e+06
-5.11668e+06
-2.82906e+06
-4.66661e+06
-2.10731e+06
-3.828e+06
-1.07897e+06
-2.70644e+06
191518
-1.29892e+06
1.69942e+06
400244
3.45875e+06
2.39023e+06
5.47728e+06
4.66243e+06
7.75063e+06
7.20175e+06
1.02656e+07
9.98872e+06
1.30039e+07
1.30008e+07
1.5944e+07
1.62124e+07
1.90614e+07
1.95952e+07
2.23284e+07
2.31185e+07
2.57154e+07
2.67508e+07
2.91919e+07
3.04647e+07
3.2733e+07
3.42402e+07
3.63179e+07
3.80387e+07
3.98853e+07
4.17575e+07
4.33154e+07
4.55643e+07
4.71471e+07
387973
1.76843e+06
876564
2.41771e+06
1.81344e+06
3.4191e+06
2.98379e+06
4.59797e+06
4.33516e+06
5.93985e+06
5.8844e+06
7.47529e+06
7.65374e+06
9.22532e+06
9.65063e+06
1.11938e+07
1.18697e+07
1.33736e+07
1.42982e+07
1.57519e+07
1.69193e+07
1.83123e+07
1.97128e+07
2.10352e+07
2.26555e+07
2.38973e+07
2.57201e+07
2.68705e+07
2.88761e+07
2.99223e+07
3.20914e+07
3.30165e+07
3.53347e+07
3.61121e+07
3.85585e+07
3.91689e+07
4.17216e+07
4.23348e+07
4.50529e+07
4.55347e+07
3.80298e+06
4.89652e+06
4.22481e+06
5.46148e+06
5.05675e+06
6.32788e+06
6.07445e+06
7.33581e+06
7.23089e+06
8.4831e+06
8.55659e+06
9.80473e+06
1.0079e+07
1.1322e+07
1.18074e+07
1.30397e+07
1.37392e+07
1.49536e+07
1.58654e+07
1.70541e+07
1.81731e+07
1.93277e+07
2.06457e+07
2.17575e+07
2.32625e+07
2.43211e+07
2.59972e+07
2.69898e+07
2.8817e+07
2.97285e+07
3.16853e+07
3.25053e+07
3.4573e+07
3.53186e+07
3.74882e+07
3.82507e+07
4.05285e+07
4.12944e+07
4.35825e+07
4.42434e+07
6.84557e+06
7.97773e+06
7.23185e+06
8.48636e+06
7.96046e+06
9.24468e+06
8.84291e+06
1.01281e+07
9.84933e+06
1.11402e+07
1.10104e+07
1.23117e+07
1.2351e+07
1.36611e+07
1.38802e+07
1.51929e+07
1.55965e+07
1.69043e+07
1.74931e+07
1.87877e+07
1.95593e+07
2.08315e+07
2.17802e+07
2.30199e+07
2.41362e+07
2.5332e+07
2.66019e+07
2.77426e+07
2.91487e+07
3.02304e+07
3.17566e+07
3.2795e+07
3.44379e+07
3.54765e+07
3.72528e+07
3.82978e+07
4.01799e+07
4.11341e+07
4.3001e+07
4.3733e+07
1.00803e+07
1.12464e+07
1.0419e+07
1.16867e+07
1.1059e+07
1.23554e+07
1.18417e+07
1.31455e+07
1.27421e+07
1.40562e+07
1.3784e+07
1.51115e+07
1.49878e+07
1.63264e+07
1.63612e+07
1.77048e+07
1.79034e+07
1.92447e+07
1.96091e+07
2.09398e+07
2.14692e+07
2.27805e+07
2.34707e+07
2.47535e+07
2.55967e+07
2.68432e+07
2.78287e+07
2.90357e+07
3.01528e+07
3.13264e+07
3.25711e+07
3.37262e+07
3.51067e+07
3.62444e+07
3.77618e+07
3.8837e+07
4.04344e+07
4.13609e+07
4.29089e+07
4.36261e+07
1.33826e+07
1.45123e+07
1.36587e+07
1.48746e+07
1.42126e+07
1.54572e+07
1.49086e+07
1.61619e+07
1.57179e+07
1.69807e+07
1.66569e+07
1.79307e+07
1.77413e+07
1.90239e+07
1.89774e+07
2.02636e+07
2.03648e+07
2.16481e+07
2.18992e+07
2.31728e+07
2.35735e+07
2.48303e+07
2.53778e+07
2.66118e+07
2.73009e+07
2.85083e+07
2.9333e+07
3.05137e+07
3.14699e+07
3.26256e+07
3.37139e+07
3.48417e+07
3.60629e+07
3.71454e+07
3.84815e+07
3.94839e+07
4.08697e+07
4.17444e+07
4.30663e+07
4.37812e+07
1.65675e+07
1.76232e+07
1.67807e+07
1.79111e+07
1.72506e+07
1.84104e+07
1.78631e+07
1.90323e+07
1.85854e+07
1.97626e+07
1.9427e+07
2.06131e+07
2.04001e+07
2.1593e+07
2.15098e+07
2.27055e+07
2.2756e+07
2.39492e+07
2.41355e+07
2.5321e+07
2.56433e+07
2.68162e+07
2.72733e+07
2.84295e+07
2.90189e+07
3.01556e+07
3.08744e+07
3.1989e+07
3.28351e+07
3.39234e+07
3.48946e+07
3.5949e+07
3.70382e+07
3.80464e+07
3.92309e+07
4.01722e+07
4.13935e+07
4.22315e+07
4.3391e+07
4.40882e+07
1.9552e+07
2.05256e+07
1.97107e+07
2.07494e+07
2.01032e+07
2.11726e+07
2.06367e+07
2.17168e+07
2.12764e+07
2.23642e+07
2.20266e+07
2.31224e+07
2.28968e+07
2.39989e+07
2.38913e+07
2.49965e+07
2.50104e+07
2.61146e+07
2.62519e+07
2.73513e+07
2.76129e+07
2.87035e+07
2.90893e+07
3.01678e+07
3.06769e+07
3.17396e+07
3.23702e+07
3.34132e+07
3.41626e+07
3.51812e+07
3.60449e+07
3.70333e+07
3.80027e+07
3.89521e+07
4.00058e+07
4.08979e+07
4.19832e+07
4.27827e+07
4.38081e+07
4.44797e+07
2.23202e+07
2.3215e+07
2.24348e+07
2.33866e+07
2.27601e+07
2.37437e+07
2.32223e+07
2.42184e+07
2.37865e+07
2.47909e+07
2.44535e+07
2.5466e+07
2.52308e+07
2.62498e+07
2.61221e+07
2.71452e+07
2.71282e+07
2.8152e+07
2.82478e+07
2.92691e+07
2.9479e+07
3.04945e+07
3.0819e+07
3.18253e+07
3.2264e+07
3.32577e+07
3.38092e+07
3.47865e+07
3.54481e+07
3.64051e+07
3.7172e+07
3.81035e+07
3.89671e+07
3.98647e+07
4.08054e+07
4.16533e+07
4.26232e+07
4.33936e+07
4.43065e+07
4.49709e+07
2.48797e+07
2.57021e+07
2.49603e+07
2.58329e+07
2.52296e+07
2.61345e+07
2.56298e+07
2.65488e+07
2.61271e+07
2.70553e+07
2.67201e+07
2.76565e+07
2.74145e+07
2.83581e+07
2.82142e+07
2.91627e+07
2.91201e+07
3.00706e+07
3.01315e+07
3.10812e+07
3.12471e+07
3.21931e+07
3.24649e+07
3.34039e+07
3.37816e+07
3.47108e+07
3.51933e+07
3.61093e+07
3.66943e+07
3.75933e+07
3.82763e+07
3.91533e+07
3.99262e+07
4.07741e+07
4.16193e+07
4.24256e+07
4.33028e+07
4.40447e+07
4.48791e+07
4.55284e+07
2.72448e+07
2.80018e+07
2.72999e+07
2.81012e+07
2.75236e+07
2.8357e+07
2.78709e+07
2.87194e+07
2.83099e+07
2.91681e+07
2.88376e+07
2.97044e+07
2.94588e+07
3.0333e+07
3.0177e+07
3.10566e+07
3.09935e+07
3.1876e+07
3.19081e+07
3.2791e+07
3.292e+07
3.38004e+07
3.40275e+07
3.49028e+07
3.52283e+07
3.60958e+07
3.65191e+07
3.73755e+07
3.78948e+07
3.87364e+07
3.93475e+07
4.01696e+07
4.08653e+07
4.16611e+07
4.24267e+07
4.31853e+07
4.39872e+07
4.46884e+07
4.54608e+07
4.60766e+07
2.94314e+07
3.01296e+07
2.94678e+07
3.0205e+07
2.96545e+07
3.0423e+07
2.99569e+07
3.0741e+07
3.03452e+07
3.11392e+07
3.08154e+07
3.1618e+07
3.13716e+07
3.21816e+07
3.20171e+07
3.28327e+07
3.27534e+07
3.35724e+07
3.35807e+07
3.44006e+07
3.44985e+07
3.53169e+07
3.55058e+07
3.63201e+07
3.66007e+07
3.74084e+07
3.77805e+07
3.85784e+07
3.90405e+07
3.9825e+07
4.03734e+07
4.11398e+07
4.17681e+07
4.25105e+07
4.32063e+07
4.39166e+07
4.46516e+07
4.5314e+07
4.60297e+07
4.66237e+07
3.14554e+07
3.21007e+07
3.1478e+07
3.21579e+07
3.16348e+07
3.23445e+07
3.18989e+07
3.2624e+07
3.22429e+07
3.29778e+07
3.26622e+07
3.34055e+07
3.31604e+07
3.39109e+07
3.37407e+07
3.44967e+07
3.44045e+07
3.51639e+07
3.51524e+07
3.5913e+07
3.59843e+07
3.67438e+07
3.68995e+07
3.76556e+07
3.78968e+07
3.86469e+07
3.89736e+07
3.97149e+07
4.01259e+07
4.08548e+07
4.13469e+07
4.20596e+07
4.26273e+07
4.33198e+07
4.39532e+07
4.46199e+07
4.52958e+07
4.59244e+07
4.65915e+07
4.71578e+07
3.33318e+07
3.39298e+07
3.33444e+07
3.39728e+07
3.34766e+07
3.4133e+07
3.37077e+07
3.4379e+07
3.40127e+07
3.46934e+07
3.43867e+07
3.50754e+07
3.48328e+07
3.55282e+07
3.5354e+07
3.60545e+07
3.59518e+07
3.66556e+07
3.66271e+07
3.7332e+07
3.738e+07
3.8084e+07
3.82103e+07
3.89112e+07
3.91169e+07
3.98124e+07
4.0098e+07
4.07854e+07
4.115e+07
4.18265e+07
4.22675e+07
4.29301e+07
4.34434e+07
4.40893e+07
4.46677e+07
4.52928e+07
4.59178e+07
4.65104e+07
4.71353e+07
4.76707e+07
3.50748e+07
3.56304e+07
3.50799e+07
3.56622e+07
3.51915e+07
3.57998e+07
3.53939e+07
3.60163e+07
3.56642e+07
3.62954e+07
3.59975e+07
3.66359e+07
3.63965e+07
3.70409e+07
3.68638e+07
3.75129e+07
3.74013e+07
3.80532e+07
3.80097e+07
3.86626e+07
3.86897e+07
3.93416e+07
3.94412e+07
4.00901e+07
4.02637e+07
4.09075e+07
4.11556e+07
4.17922e+07
4.21144e+07
4.27413e+07
4.3136e+07
4.37507e+07
4.42151e+07
4.4815e+07
4.53439e+07
4.59248e+07
4.65033e+07
4.70533e+07
4.76402e+07
4.81344e+07
3.66975e+07
3.7215e+07
3.66969e+07
3.72376e+07
3.6791e+07
3.73556e+07
3.69679e+07
3.75457e+07
3.72071e+07
3.77929e+07
3.75035e+07
3.80957e+07
3.78594e+07
3.84569e+07
3.82773e+07
3.88788e+07
3.87592e+07
3.93629e+07
3.93059e+07
3.99102e+07
3.99182e+07
4.05213e+07
4.05963e+07
4.11964e+07
4.13402e+07
4.19355e+07
4.2149e+07
4.27373e+07
4.30207e+07
4.35999e+07
4.39521e+07
4.45199e+07
4.4939e+07
4.54925e+07
4.59747e+07
4.651e+07
4.70427e+07
4.75501e+07
4.80977e+07
4.85603e+07
3.82119e+07
3.86953e+07
3.82067e+07
3.87102e+07
3.82855e+07
3.88107e+07
3.84398e+07
3.8977e+07
3.86506e+07
3.9195e+07
3.89133e+07
3.94632e+07
3.92295e+07
3.97839e+07
3.96019e+07
4.01594e+07
4.00321e+07
4.05912e+07
4.05214e+07
4.10805e+07
4.10705e+07
4.1628e+07
4.16801e+07
4.22344e+07
4.23503e+07
4.28997e+07
4.30808e+07
4.36233e+07
4.387e+07
4.44036e+07
4.47155e+07
4.5238e+07
4.56137e+07
4.61229e+07
4.65596e+07
4.70527e+07
4.75406e+07
4.80107e+07
4.85201e+07
4.89503e+07
3.96292e+07
4.00821e+07
3.96201e+07
4.00901e+07
3.96853e+07
4.0175e+07
3.9819e+07
4.03195e+07
4.00039e+07
4.05106e+07
4.02354e+07
4.07466e+07
4.05149e+07
4.10296e+07
4.08449e+07
4.13618e+07
4.12269e+07
4.17447e+07
4.16624e+07
4.21795e+07
4.21523e+07
4.26673e+07
4.26973e+07
4.32088e+07
4.32981e+07
4.38043e+07
4.39544e+07
4.44536e+07
4.46652e+07
4.51557e+07
4.54289e+07
4.59087e+07
4.62427e+07
4.67104e+07
4.71037e+07
4.75573e+07
4.8003e+07
4.84367e+07
4.89096e+07
4.93076e+07
4.09598e+07
4.13856e+07
4.09472e+07
4.13873e+07
4.10001e+07
4.14577e+07
4.11148e+07
4.1582e+07
4.12757e+07
4.17481e+07
4.14782e+07
4.19541e+07
4.17234e+07
4.22018e+07
4.20136e+07
4.24933e+07
4.23504e+07
4.28301e+07
4.27353e+07
4.32136e+07
4.31693e+07
4.36448e+07
4.36534e+07
4.41248e+07
4.41882e+07
4.46541e+07
4.47741e+07
4.52328e+07
4.54104e+07
4.58604e+07
4.60961e+07
4.65358e+07
4.68297e+07
4.72577e+07
4.76091e+07
4.80235e+07
4.84274e+07
4.88217e+07
4.92565e+07
4.9613e+07
4.22134e+07
4.26151e+07
4.21975e+07
4.26108e+07
4.22388e+07
4.26677e+07
4.2336e+07
4.27732e+07
4.24745e+07
4.29158e+07
4.26497e+07
4.30935e+07
4.28626e+07
4.33079e+07
4.31153e+07
4.35609e+07
4.34094e+07
4.38541e+07
4.37464e+07
4.41889e+07
4.41275e+07
4.45665e+07
4.45537e+07
4.4988e+07
4.50259e+07
4.54542e+07
4.55447e+07
4.59656e+07
4.611e+07
4.65222e+07
4.67213e+07
4.71233e+07
4.73776e+07
4.77679e+07
4.80773e+07
4.84539e+07
4.88141e+07
4.91711e+07
4.95626e+07
4.98876e+07
4.33993e+07
4.37796e+07
4.33799e+07
4.37694e+07
4.34103e+07
4.38135e+07
4.34909e+07
4.39012e+07
4.36083e+07
4.40217e+07
4.37578e+07
4.41725e+07
4.39402e+07
4.43553e+07
4.41573e+07
4.45717e+07