/*--------------------------------*- C++ -*----------------------------------*\
| =========                 |                                                 |
| \\      /  F ield         | OpenFOAM: The Open Source CFD Toolbox           |
|  \\    /   O peration     | Version:  v2012                                 |
|   \\  /    A nd           | Website:  www.openfoam.com                      |
|    \\/     M anipulation  |                                                 |
\*---------------------------------------------------------------------------*/
FoamFile
{
    version     2.0;
    format      ascii;
    class       pointVectorField;
    location    "14";
    object      pointD;
}
// * * * * * * * * * * * * * * * * * * * * * * * * * * * * * * * * * * * * * //

dimensions      [0 1 0 0 0 0 0];


internalField   nonuniform List<vector> 
32562
(
(0.002645 0 0)
(0.00347779 0 0)
(0.00319842 -0.00024422 0)
(0 -0.00207855 0)
(0 -0.000760579 0)
(0.00272028 0 0)
(0 -0.00196821 0)
(0.00177292 -0.000527012 0)
(0.000793687 -0.000976976 0)
(0.003349 -5.49164e-05 0)
(0.00211077 -0.000835049 0)
(0.00211077 -0.000835049 0)
(0.00177292 -0.000527012 0)
(0 -0.00196821 0)
(0 -0.000760579 0)
(0.002645 0 0)
(0.00272028 0 0)
(0.00347779 0 0)
(0.003349 -5.49164e-05 0)
(0.00319842 -0.00024422 0)
(0.000793687 -0.000976976 0)
(0 -0.00207855 0)
(3.90302e-05 -0.00196494 0)
(7.83263e-05 -0.0019562 0)
(0.000118051 -0.00194236 0)
(0.000158298 -0.00192368 0)
(0.000199612 -0.00190047 0)
(0.00024231 -0.00187278 0)
(0.000286655 -0.00184081 0)
(0.000332738 -0.0018048 0)
(0.000380527 -0.00176511 0)
(0.00042988 -0.00172219 0)
(0.000480567 -0.00167659 0)
(0.000532285 -0.0016289 0)
(0.00058468 -0.00157975 0)
(0.000637358 -0.00152978 0)
(0.000689899 -0.00147963 0)
(0.000741868 -0.00142992 0)
(0.000792837 -0.00138123 0)
(0.000842395 -0.00133409 0)
(0.000890203 -0.00128887 0)
(0.000936096 -0.00124572 0)
(0.000980223 -0.00120436 0)
(0.00102314 -0.00116411 0)
(0.00106568 -0.00112422 0)
(0.00110815 -0.00108442 0)
(0.00115058 -0.00104484 0)
(0.00119296 -0.00100563 0)
(0.00123527 -0.000966909 0)
(0.0012775 -0.000928737 0)
(0.00131963 -0.000891176 0)
(0.00136167 -0.000854273 0)
(0.00140358 -0.000818065 0)
(0.00144536 -0.000782588 0)
(0.001487 -0.000747869 0)
(0.00152846 -0.000713932 0)
(0.00156975 -0.000680797 0)
(0.00161083 -0.000648479 0)
(0.00165169 -0.000616985 0)
(0.00169232 -0.000586308 0)
(0.00173273 -0.000556397 0)
(0.00181222 -0.000499717 0)
(0.00185125 -0.000473125 0)
(0.00188992 -0.000447324 0)
(0.00192819 -0.000422356 0)
(0.00196599 -0.000398246 0)
(0.0020033 -0.000375005 0)
(0.00204006 -0.000352639 0)
(0.00207623 -0.000331147 0)
(0.00211179 -0.000310526 0)
(0.00214668 -0.000290769 0)
(0.00218088 -0.000271869 0)
(0.00221435 -0.000253812 0)
(0.00224704 -0.000236588 0)
(0.00227892 -0.00022018 0)
(0.00230995 -0.000204573 0)
(0.0023401 -0.000189747 0)
(0.00236932 -0.000175684 0)
(0.0023976 -0.000162362 0)
(0.00242488 -0.000149759 0)
(0.00245114 -0.000137852 0)
(0.00247635 -0.000126614 0)
(0.00250047 -0.00011602 0)
(0.00252347 -0.000106043 0)
(0.00254532 -9.66538e-05 0)
(0.002566 -8.78238e-05 0)
(0.00258548 -7.95224e-05 0)
(0.00260373 -7.17184e-05 0)
(0.00262073 -6.43798e-05 0)
(0.00263645 -5.74738e-05 0)
(0.00265088 -5.09669e-05 0)
(0.00266399 -4.48247e-05 0)
(0.00267577 -3.90124e-05 0)
(0.0026862 -3.34945e-05 0)
(0.00269526 -2.8235e-05 0)
(0.00270295 -2.31973e-05 0)
(0.00270925 -1.83445e-05 0)
(0.00271416 -1.3639e-05 0)
(0.00271765 -9.04239e-06 0)
(0.00271971 -4.51417e-06 0)
(0.00264997 0 0)
(0.00265461 0 0)
(0.00265894 0 0)
(0.00266298 0 0)
(0.00266673 0 0)
(0.00267023 0 0)
(0.00267348 0 0)
(0.00267651 0 0)
(0.00267932 0 0)
(0.00268194 0 0)
(0.00268439 0 0)
(0.00268667 0 0)
(0.0026888 0 0)
(0.00269079 0 0)
(0.00269265 0 0)
(0.0026944 0 0)
(0.00269604 0 0)
(0.00269759 0 0)
(0.00269905 0 0)
(0.00270043 0 0)
(0.00270174 0 0)
(0.00270298 0 0)
(0.00270417 0 0)
(0.00270531 0 0)
(0.0027064 0 0)
(0.00270745 0 0)
(0.00270847 0 0)
(0.00270946 0 0)
(0.00271042 0 0)
(0.00271136 0 0)
(0.00271228 0 0)
(0.00271319 0 0)
(0.00271409 0 0)
(0.00271498 0 0)
(0.00271587 0 0)
(0.00271675 0 0)
(0.00271763 0 0)
(0.00271851 0 0)
(0.00271939 0 0)
(0.00272275 0 0)
(0.00272525 0 0)
(0.00272784 0 0)
(0.00273055 0 0)
(0.00273341 0 0)
(0.00273642 0 0)
(0.00273961 0 0)
(0.00274299 0 0)
(0.00274656 0 0)
(0.00275034 0 0)
(0.00275433 0 0)
(0.00275853 0 0)
(0.00276296 0 0)
(0.00276761 0 0)
(0.00277248 0 0)
(0.00277759 0 0)
(0.00278292 0 0)
(0.00278848 0 0)
(0.00279427 0 0)
(0.00280029 0 0)
(0.00280654 0 0)
(0.00281302 0 0)
(0.00281972 0 0)
(0.00282666 0 0)
(0.00283381 0 0)
(0.0028412 0 0)
(0.0028488 0 0)
(0.00285663 0 0)
(0.00286467 0 0)
(0.00287293 0 0)
(0.0028814 0 0)
(0.00289008 0 0)
(0.00289897 0 0)
(0.00290806 0 0)
(0.00291736 0 0)
(0.00292686 0 0)
(0.00293656 0 0)
(0.00294644 0 0)
(0.00295652 0 0)
(0.00296679 0 0)
(0.00297724 0 0)
(0.00298787 0 0)
(0.00299868 0 0)
(0.00300966 0 0)
(0.00302081 0 0)
(0.00303213 0 0)
(0.0030436 0 0)
(0.00305524 0 0)
(0.00306703 0 0)
(0.00307896 0 0)
(0.00309104 0 0)
(0.00310327 0 0)
(0.00311562 0 0)
(0.00312811 0 0)
(0.00314072 0 0)
(0.00315346 0 0)
(0.00316631 0 0)
(0.00317927 0 0)
(0.00319233 0 0)
(0.00320549 0 0)
(0.00321875 0 0)
(0.00323209 0 0)
(0.00324551 0 0)
(0.003259 0 0)
(0.00327255 0 0)
(0.00328617 0 0)
(0.00329984 0 0)
(0.00331354 0 0)
(0.00332728 0 0)
(0.00334105 0 0)
(0.00335483 0 0)
(0.00336861 0 0)
(0.00338239 0 0)
(0.00339616 0 0)
(0.00340989 0 0)
(0.00342359 0 0)
(0.00343724 0 0)
(0.00345082 0 0)
(0.00346434 0 0)
(0.0034776 -3.14472e-08 0)
(0.00347727 -8.58572e-08 0)
(0.00347676 -1.54735e-07 0)
(0.00347606 -2.40858e-07 0)
(0.00347518 -3.49182e-07 0)
(0.0034741 -4.85187e-07 0)
(0.00347284 -6.54452e-07 0)
(0.00347139 -8.62523e-07 0)
(0.00346975 -1.11488e-06 0)
(0.00346793 -1.4169e-06 0)
(0.00346592 -1.77388e-06 0)
(0.00346374 -2.19103e-06 0)
(0.00346138 -2.67344e-06 0)
(0.00345885 -3.22608e-06 0)
(0.00345616 -3.85382e-06 0)
(0.00345329 -4.5614e-06 0)
(0.00345027 -5.35343e-06 0)
(0.00344709 -6.23438e-06 0)
(0.00344376 -7.20857e-06 0)
(0.00344028 -8.28017e-06 0)
(0.00343667 -9.45319e-06 0)
(0.00343291 -1.07314e-05 0)
(0.00342902 -1.21186e-05 0)
(0.00342501 -1.36182e-05 0)
(0.00342088 -1.52334e-05 0)
(0.00341664 -1.69673e-05 0)
(0.00341229 -1.88229e-05 0)
(0.00340784 -2.08028e-05 0)
(0.00340329 -2.29095e-05 0)
(0.00339866 -2.51451e-05 0)
(0.00339394 -2.75116e-05 0)
(0.00338915 -3.00109e-05 0)
(0.0033843 -3.26444e-05 0)
(0.00337938 -3.54135e-05 0)
(0.00337441 -3.83192e-05 0)
(0.00336939 -4.13623e-05 0)
(0.00336434 -4.45434e-05 0)
(0.00335925 -4.7863e-05 0)
(0.00335413 -5.13212e-05 0)
(0.00334673 -5.65491e-05 0)
(0.00334446 -5.82083e-05 0)
(0.00334219 -5.98941e-05 0)
(0.00333992 -6.16064e-05 0)
(0.00333764 -6.33452e-05 0)
(0.00333537 -6.51103e-05 0)
(0.0033331 -6.69016e-05 0)
(0.00333083 -6.8719e-05 0)
(0.00332856 -7.05623e-05 0)
(0.0033263 -7.24314e-05 0)
(0.00332404 -7.43259e-05 0)
(0.00332178 -7.62459e-05 0)
(0.00331953 -7.81909e-05 0)
(0.00331729 -8.01609e-05 0)
(0.00331505 -8.21555e-05 0)
(0.00331282 -8.41746e-05 0)
(0.0033106 -8.62178e-05 0)
(0.00330838 -8.82849e-05 0)
(0.00330618 -9.03756e-05 0)
(0.00330398 -9.24896e-05 0)
(0.00330179 -9.46266e-05 0)
(0.00329961 -9.67863e-05 0)
(0.00329745 -9.89683e-05 0)
(0.00329529 -0.000101172 0)
(0.00329315 -0.000103398 0)
(0.00329101 -0.000105645 0)
(0.00328889 -0.000107913 0)
(0.00328679 -0.000110201 0)
(0.00328469 -0.000112509 0)
(0.00328261 -0.000114837 0)
(0.00328055 -0.000117185 0)
(0.0032785 -0.000119551 0)
(0.00327646 -0.000121935 0)
(0.00327444 -0.000124337 0)
(0.00327244 -0.000126757 0)
(0.00327045 -0.000129193 0)
(0.00326848 -0.000131646 0)
(0.00326652 -0.000134114 0)
(0.00326458 -0.000136598 0)
(0.00326266 -0.000139097 0)
(0.00326076 -0.00014161 0)
(0.00325887 -0.000144137 0)
(0.003257 -0.000146676 0)
(0.00325515 -0.000149228 0)
(0.00325332 -0.000151792 0)
(0.0032515 -0.000154367 0)
(0.00324971 -0.000156953 0)
(0.00324793 -0.000159549 0)
(0.00324617 -0.000162155 0)
(0.00324442 -0.000164769 0)
(0.0032427 -0.000167391 0)
(0.00324099 -0.000170021 0)
(0.0032393 -0.000172657 0)
(0.00323763 -0.0001753 0)
(0.00323597 -0.000177948 0)
(0.00323433 -0.000180601 0)
(0.00323271 -0.000183257 0)
(0.0032311 -0.000185918 0)
(0.00322951 -0.000188581 0)
(0.00322794 -0.000191246 0)
(0.00322638 -0.000193913 0)
(0.00322483 -0.000196581 0)
(0.0032233 -0.000199248 0)
(0.00322178 -0.000201916 0)
(0.00322027 -0.000204582 0)
(0.00321878 -0.000207247 0)
(0.00321729 -0.00020991 0)
(0.00321581 -0.00021257 0)
(0.00321435 -0.000215227 0)
(0.00321289 -0.000217881 0)
(0.00321143 -0.000220531 0)
(0.00320998 -0.000223177 0)
(0.00320853 -0.00022582 0)
(0.00320709 -0.000228458 0)
(0.00320565 -0.000231092 0)
(0.00320421 -0.000233723 0)
(0.00320276 -0.00023635 0)
(0.00320132 -0.000238975 0)
(0.00319987 -0.000241598 0)
(0.00317927 -0.000248767 0)
(0.00316015 -0.000253326 0)
(0.00314107 -0.000257866 0)
(0.00312202 -0.000262348 0)
(0.00310301 -0.000266742 0)
(0.003084 -0.000271018 0)
(0.00306499 -0.000275154 0)
(0.00304596 -0.000279135 0)
(0.00302688 -0.000282947 0)
(0.00300773 -0.000286581 0)
(0.0029885 -0.000290033 0)
(0.00296917 -0.0002933 0)
(0.00294971 -0.000296381 0)
(0.00293011 -0.00029928 0)
(0.00291035 -0.000301999 0)
(0.00289041 -0.000304546 0)
(0.00287029 -0.000306926 0)
(0.00284995 -0.000309149 0)
(0.00282938 -0.000311223 0)
(0.00280858 -0.000313159 0)
(0.00278753 -0.00031497 0)
(0.00276621 -0.000316666 0)
(0.0027446 -0.000318262 0)
(0.00272271 -0.00031977 0)
(0.0027005 -0.000321206 0)
(0.00267798 -0.000322585 0)
(0.00265513 -0.000323922 0)
(0.00263193 -0.000325234 0)
(0.00260838 -0.000326539 0)
(0.00258446 -0.000327853 0)
(0.00256016 -0.000329195 0)
(0.00253548 -0.000330584 0)
(0.0025104 -0.000332039 0)
(0.0024849 -0.000333581 0)
(0.00245899 -0.000335231 0)
(0.00243264 -0.000337009 0)
(0.00240586 -0.000338938 0)
(0.00237863 -0.000341041 0)
(0.00235093 -0.00034334 0)
(0.00232277 -0.000345861 0)
(0.00229413 -0.000348628 0)
(0.00226501 -0.000351667 0)
(0.00223539 -0.000355003 0)
(0.00220527 -0.000358665 0)
(0.00217465 -0.000362679 0)
(0.00214351 -0.000367075 0)
(0.00211184 -0.000371881 0)
(0.00207966 -0.000377127 0)
(0.00204694 -0.000382845 0)
(0.00201368 -0.000389065 0)
(0.00197989 -0.000395819 0)
(0.00194556 -0.000403142 0)
(0.00191069 -0.000411064 0)
(0.00187528 -0.000419621 0)
(0.00183932 -0.000428847 0)
(0.00180283 -0.000438777 0)
(0.0017658 -0.000449446 0)
(0.00172825 -0.000460889 0)
(0.00169017 -0.000473142 0)
(0.00165158 -0.000486241 0)
(0.00161248 -0.000500222 0)
(0.0015729 -0.000515119 0)
(0.00153284 -0.000530969 0)
(0.00149234 -0.000547803 0)
(0.00145141 -0.000565655 0)
(0.00141008 -0.000584552 0)
(0.00136842 -0.000604536 0)
(0.00132639 -0.000625644 0)
(0.00128391 -0.000647951 0)
(0.00124089 -0.0006715 0)
(0.00119733 -0.000696326 0)
(0.00115325 -0.000722435 0)
(0.00110871 -0.000749812 0)
(0.00106379 -0.000778438 0)
(0.00101861 -0.000808292 0)
(0.0009733 -0.00083937 0)
(0.000927995 -0.0008717 0)
(0.000882854 -0.000905348 0)
(0.000838039 -0.000940407 0)
(0.000761826 -0.00100427 0)
(0.000730226 -0.00103238 0)
(0.000698735 -0.0010612 0)
(0.00066733 -0.0010907 0)
(0.00063608 -0.00112091 0)
(0.000605038 -0.00115183 0)
(0.000574255 -0.00118343 0)
(0.000543783 -0.00121572 0)
(0.000513675 -0.00124867 0)
(0.00048399 -0.00128225 0)
(0.000454787 -0.00131644 0)
(0.000426133 -0.00135119 0)
(0.000398095 -0.00138644 0)
(0.000370746 -0.00142214 0)
(0.000344158 -0.00145819 0)
(0.000318403 -0.00149452 0)
(0.000293552 -0.001531 0)
(0.000269669 -0.00156751 0)
(0.000246813 -0.00160393 0)
(0.000225034 -0.00164009 0)
(0.000204369 -0.00167585 0)
(0.000184846 -0.00171104 0)
(0.000166481 -0.00174549 0)
(0.000149276 -0.00177903 0)
(0.000133225 -0.00181151 0)
(0.000118311 -0.00184277 0)
(0.000104505 -0.00187264 0)
(9.17738e-05 -0.00190098 0)
(8.00727e-05 -0.00192765 0)
(6.93513e-05 -0.00195251 0)
(5.95519e-05 -0.00197543 0)
(5.06096e-05 -0.0019963 0)
(4.24526e-05 -0.00201501 0)
(3.5002e-05 -0.00203145 0)
(2.81725e-05 -0.00204553 0)
(2.18719e-05 -0.00205717 0)
(1.60021e-05 -0.00206632 0)
(1.04595e-05 -0.00207292 0)
(5.14076e-06 -0.00207696 0)
(0 -0.00207794 0)
(0 -0.00207728 0)
(0 -0.00207657 0)
(0 -0.00207581 0)
(0 -0.00207499 0)
(0 -0.00207413 0)
(0 -0.00207323 0)
(0 -0.00207228 0)
(0 -0.00207129 0)
(0 -0.00207026 0)
(0 -0.0020692 0)
(0 -0.0020681 0)
(0 -0.00206696 0)
(0 -0.00206579 0)
(0 -0.00206459 0)
(0 -0.00206336 0)
(0 -0.0020621 0)
(0 -0.00206081 0)
(0 -0.0020595 0)
(0 -0.00205817 0)
(0 -0.00205681 0)
(0 -0.00205543 0)
(0 -0.00205403 0)
(0 -0.00205261 0)
(0 -0.00205118 0)
(0 -0.00204973 0)
(0 -0.00204826 0)
(0 -0.00204678 0)
(0 -0.00204529 0)
(0 -0.00204378 0)
(0 -0.00204226 0)
(0 -0.00204074 0)
(0 -0.0020392 0)
(0 -0.00203766 0)
(0 -0.00203611 0)
(0 -0.00203455 0)
(0 -0.00203299 0)
(0 -0.00203142 0)
(0 -0.00202985 0)
(0 -0.00202827 0)
(0 -0.00202669 0)
(0 -0.00202511 0)
(0 -0.00202353 0)
(0 -0.00202195 0)
(0 -0.00202037 0)
(0 -0.00201879 0)
(0 -0.00201721 0)
(0 -0.00201564 0)
(0 -0.00201406 0)
(0 -0.00201249 0)
(0 -0.00201092 0)
(0 -0.00200936 0)
(0 -0.0020078 0)
(0 -0.00200625 0)
(0 -0.0020047 0)
(0 -0.00200316 0)
(0 -0.00200163 0)
(0 -0.0020001 0)
(0 -0.00199857 0)
(0 -0.00199706 0)
(0 -0.00199555 0)
(0 -0.00199405 0)
(0 -0.00199256 0)
(0 -0.00199108 0)
(0 -0.0019896 0)
(0 -0.00198814 0)
(0 -0.00198668 0)
(0 -0.00198522 0)
(0 -0.00198378 0)
(0 -0.00198234 0)
(0 -0.00198091 0)
(0 -0.00197949 0)
(0 -0.00197807 0)
(0 -0.00197666 0)
(0 -0.00197525 0)
(0 -0.00197384 0)
(0 -0.00197244 0)
(0 -0.00197103 0)
(0 -0.00196963 0)
(0 -0.00196526 0)
(0 -0.0019622 0)
(0 -0.00195871 0)
(0 -0.00195465 0)
(0 -0.0019499 0)
(0 -0.0019443 0)
(0 -0.0019377 0)
(0 -0.00192998 0)
(0 -0.00192098 0)
(0 -0.00191059 0)
(0 -0.00189869 0)
(0 -0.00188517 0)
(0 -0.00186994 0)
(0 -0.00185292 0)
(0 -0.00183406 0)
(0 -0.0018133 0)
(0 -0.0017906 0)
(0 -0.00176594 0)
(0 -0.00173929 0)
(0 -0.00171065 0)
(0 -0.00168 0)
(0 -0.00164737 0)
(0 -0.00161275 0)
(0 -0.00157617 0)
(0 -0.00153764 0)
(0 -0.0014972 0)
(0 -0.00145487 0)
(0 -0.00141069 0)
(0 -0.00136472 0)
(0 -0.00131699 0)
(0 -0.00126758 0)
(0 -0.00121654 0)
(0 -0.00116395 0)
(0 -0.0011099 0)
(0 -0.00105446 0)
(0 -0.000997746 0)
(0 -0.000939854 0)
(0 -0.000880913 0)
(0 -0.000821078 0)
(0.00179894 -0.000495422 0)
(0.00182465 -0.000465139 0)
(0.00185009 -0.000436334 0)
(0.00187524 -0.000409053 0)
(0.00190008 -0.000383295 0)
(0.0019246 -0.000359037 0)
(0.0019488 -0.000336247 0)
(0.00197267 -0.000314881 0)
(0.00199622 -0.000294892 0)
(0.00201945 -0.000276231 0)
(0.00204236 -0.000258845 0)
(0.00206496 -0.00024268 0)
(0.00208727 -0.000227684 0)
(0.00210929 -0.000213802 0)
(0.00213103 -0.000200982 0)
(0.00215252 -0.000189171 0)
(0.00217375 -0.000178318 0)
(0.00219474 -0.000168375 0)
(0.00221551 -0.000159291 0)
(0.00223607 -0.000151021 0)
(0.00225643 -0.000143518 0)
(0.00227661 -0.00013674 0)
(0.00229661 -0.000130643 0)
(0.00231646 -0.000125188 0)
(0.00233615 -0.000120334 0)
(0.00235571 -0.000116044 0)
(0.00237515 -0.000112282 0)
(0.00239447 -0.000109013 0)
(0.00241368 -0.000106203 0)
(0.0024328 -0.00010382 0)
(0.00245183 -0.000101834 0)
(0.00247078 -0.000100214 0)
(0.00248967 -9.8933e-05 0)
(0.00250849 -9.79622e-05 0)
(0.00252725 -9.72756e-05 0)
(0.00254596 -9.68479e-05 0)
(0.00256463 -9.66547e-05 0)
(0.00258326 -9.66725e-05 0)
(0.00260186 -9.68787e-05 0)
(0.00262042 -9.72514e-05 0)
(0.00263896 -9.77697e-05 0)
(0.00265747 -9.84133e-05 0)
(0.00267596 -9.91625e-05 0)
(0.00269444 -9.99986e-05 0)
(0.0027129 -0.000100903 0)
(0.00273134 -0.000101858 0)
(0.00274978 -0.000102847 0)
(0.0027682 -0.000103853 0)
(0.00278661 -0.00010486 0)
(0.00280501 -0.000105851 0)
(0.0028234 -0.000106813 0)
(0.00284179 -0.000107728 0)
(0.00286016 -0.000108584 0)
(0.00287852 -0.000109366 0)
(0.00289688 -0.000110059 0)
(0.00291522 -0.000110649 0)
(0.00293354 -0.000111123 0)
(0.00295186 -0.000111467 0)
(0.00297016 -0.000111667 0)
(0.00298844 -0.00011171 0)
(0.0030067 -0.000111582 0)
(0.00302495 -0.00011127 0)
(0.00304317 -0.000110758 0)
(0.00306137 -0.000110034 0)
(0.00307955 -0.000109081 0)
(0.0030977 -0.000107886 0)
(0.00311582 -0.000106433 0)
(0.00313392 -0.000104704 0)
(0.00315199 -0.000102684 0)
(0.00317003 -0.000100353 0)
(0.00318805 -9.76922e-05 0)
(0.00320603 -9.46816e-05 0)
(0.00322399 -9.12987e-05 0)
(0.00324191 -8.75196e-05 0)
(0.00325982 -8.33184e-05 0)
(0.00327769 -7.86672e-05 0)
(0.00329555 -7.35354e-05 0)
(0.00331338 -6.78901e-05 0)
(0.0033312 -6.16958e-05 0)
(0.00175883 -0.000532574 0)
(0.00174482 -0.000538133 0)
(0.00173089 -0.000543689 0)
(0.00171702 -0.000549245 0)
(0.00170323 -0.000554804 0)
(0.00168951 -0.000560366 0)
(0.00167586 -0.000565935 0)
(0.00166227 -0.000571509 0)
(0.00164876 -0.000577091 0)
(0.00163531 -0.000582679 0)
(0.00162192 -0.000588276 0)
(0.00160861 -0.000593879 0)
(0.00159536 -0.000599489 0)
(0.00158218 -0.000605106 0)
(0.00156906 -0.000610729 0)
(0.00155601 -0.000616356 0)
(0.00154302 -0.000621989 0)
(0.0015301 -0.000627625 0)
(0.00151723 -0.000633264 0)
(0.00150444 -0.000638906 0)
(0.0014917 -0.00064455 0)
(0.00147902 -0.000650195 0)
(0.0014664 -0.00065584 0)
(0.00145384 -0.000661485 0)
(0.00144134 -0.00066713 0)
(0.0014289 -0.000672773 0)
(0.00141651 -0.000678414 0)
(0.00140417 -0.000684053 0)
(0.00139188 -0.000689689 0)
(0.00137965 -0.000695322 0)
(0.00136746 -0.000700952 0)
(0.00135532 -0.000706578 0)
(0.00134323 -0.000712199 0)
(0.00133119 -0.000717816 0)
(0.00131918 -0.000723429 0)
(0.00130722 -0.000729037 0)
(0.0012953 -0.00073464 0)
(0.00128342 -0.000740238 0)
(0.00127158 -0.000745832 0)
(0.00125977 -0.00075142 0)
(0.001248 -0.000757003 0)
(0.00123626 -0.000762582 0)
(0.00122455 -0.000768155 0)
(0.00121287 -0.000773723 0)
(0.00120122 -0.000779287 0)
(0.0011896 -0.000784846 0)
(0.001178 -0.000790401 0)
(0.00116643 -0.000795952 0)
(0.00115487 -0.000801499 0)
(0.00114333 -0.000807043 0)
(0.00113181 -0.000812583 0)
(0.00112031 -0.000818121 0)
(0.00110882 -0.000823657 0)
(0.00109734 -0.000829191 0)
(0.00108587 -0.000834724 0)
(0.0010744 -0.000840258 0)
(0.00106293 -0.000845792 0)
(0.00105147 -0.000851328 0)
(0.00104001 -0.000856867 0)
(0.00102854 -0.00086241 0)
(0.00101706 -0.000867959 0)
(0.00100557 -0.000873514 0)
(0.000994066 -0.000879078 0)
(0.000982547 -0.000884653 0)
(0.000971008 -0.000890239 0)
(0.000959445 -0.000895839 0)
(0.000947857 -0.000901456 0)
(0.000936238 -0.00090709 0)
(0.000924586 -0.000912745 0)
(0.000912898 -0.000918422 0)
(0.000901169 -0.000924123 0)
(0.000889397 -0.000929851 0)
(0.000877579 -0.000935607 0)
(0.000865711 -0.000941393 0)
(0.000853791 -0.00094721 0)
(0.000841816 -0.000953058 0)
(0.000829784 -0.000958937 0)
(0.000817696 -0.000964846 0)
(0.000805621 -0.000970831 0)
(0.000101769 -0.000765143 0)
(0.000202943 -0.000774555 0)
(0.000303199 -0.000788787 0)
(0.000402076 -0.000807735 0)
(0.000499077 -0.000831165 0)
(0.000593735 -0.000858736 0)
(0.000685654 -0.000890016 0)
(0.000774517 -0.000924492 0)
(0.000860103 -0.000961582 0)
(0.000942265 -0.00100064 0)
(0.0010209 -0.00104093 0)
(0.00109593 -0.00108164 0)
(0.00116721 -0.00112181 0)
(0.00123457 -0.00116035 0)
(0.00129771 -0.00119596 0)
(0.00135632 -0.00122721 0)
(0.00141004 -0.00125261 0)
(0.00145863 -0.0012707 0)
(0.00150202 -0.0012802 0)
(0.00154033 -0.00128014 0)
(0.00157392 -0.0012701 0)
(0.00160364 -0.00125113 0)
(0.0016317 -0.00122757 0)
(0.00166032 -0.00120434 0)
(0.0016893 -0.00118124 0)
(0.00171851 -0.00115818 0)
(0.00174784 -0.00113512 0)
(0.00177718 -0.00111204 0)
(0.00180647 -0.00108893 0)
(0.00183564 -0.0010658 0)
(0.00186462 -0.00104265 0)
(0.00189338 -0.00101948 0)
(0.00192186 -0.000996318 0)
(0.00195003 -0.000973161 0)
(0.00197786 -0.000950025 0)
(0.0020053 -0.00092692 0)
(0.00203234 -0.00090386 0)
(0.00205894 -0.000880854 0)
(0.00208509 -0.000857914 0)
(0.00213596 -0.000812267 0)
(0.00216064 -0.000789576 0)
(0.0021848 -0.000766984 0)
(0.00220842 -0.000744496 0)
(0.0022315 -0.000722117 0)
(0.00225402 -0.00069985 0)
(0.00227598 -0.000677699 0)
(0.00229736 -0.000655665 0)
(0.00231815 -0.00063375 0)
(0.00233836 -0.000611955 0)
(0.00235796 -0.000590279 0)
(0.00237696 -0.000568721 0)
(0.00239534 -0.000547281 0)
(0.00241311 -0.000525955 0)
(0.00243026 -0.000504743 0)
(0.00244677 -0.000483641 0)
(0.00246265 -0.000462646 0)
(0.00247789 -0.000441756 0)
(0.00249248 -0.000420966 0)
(0.00250643 -0.000400274 0)
(0.00251973 -0.000379674 0)
(0.00253236 -0.000359163 0)
(0.00254434 -0.000338736 0)
(0.00255565 -0.000318391 0)
(0.0025663 -0.000298121 0)
(0.00257628 -0.000277922 0)
(0.00258558 -0.000257791 0)
(0.0025942 -0.000237722 0)
(0.00260215 -0.000217711 0)
(0.00260942 -0.000197753 0)
(0.002616 -0.000177843 0)
(0.0026219 -0.000157978 0)
(0.00262712 -0.000138152 0)
(0.00263165 -0.000118362 0)
(0.0026355 -9.86022e-05 0)
(0.00263866 -7.88698e-05 0)
(0.00264115 -5.91608e-05 0)
(0.00264298 -3.94709e-05 0)
(0.00264419 -1.97865e-05 0)
(0.00209539 -0.000820398 0)
(0.0020806 -0.0008064 0)
(0.00206639 -0.000793014 0)
(0.00205271 -0.000780201 0)
(0.00203953 -0.000767928 0)
(0.00202684 -0.000756162 0)
(0.00201461 -0.000744875 0)
(0.0020028 -0.000734039 0)
(0.00199141 -0.000723629 0)
(0.00198042 -0.000713622 0)
(0.00196979 -0.000703995 0)
(0.00195953 -0.00069473 0)
(0.00194961 -0.000685806 0)
(0.00194001 -0.000677206 0)
(0.00193072 -0.000668914 0)
(0.00192174 -0.000660913 0)
(0.00191304 -0.00065319 0)
(0.00190462 -0.000645729 0)
(0.00189647 -0.000638519 0)
(0.00188857 -0.000631546 0)
(0.00188092 -0.000624799 0)
(0.0018735 -0.000618267 0)
(0.00186632 -0.000611939 0)
(0.00185935 -0.000605804 0)
(0.0018526 -0.000599855 0)
(0.00184606 -0.000594081 0)
(0.00183972 -0.000588474 0)
(0.00183357 -0.000583025 0)
(0.00182761 -0.000577726 0)
(0.00182183 -0.000572571 0)
(0.00181622 -0.00056755 0)
(0.00181079 -0.000562658 0)
(0.00180552 -0.000557886 0)
(0.00180042 -0.000553226 0)
(0.00179548 -0.000548673 0)
(0.00179069 -0.000544215 0)
(0.00178605 -0.000539843 0)
(0.00178155 -0.000535541 0)
(0.00177719 -0.000531284 0)
(0.00209539 -0.000820398 0)
(0.0020806 -0.0008064 0)
(0.00206639 -0.000793014 0)
(0.00205271 -0.000780201 0)
(0.00203953 -0.000767928 0)
(0.00202684 -0.000756162 0)
(0.00201461 -0.000744875 0)
(0.0020028 -0.000734039 0)
(0.00199141 -0.000723629 0)
(0.00198042 -0.000713622 0)
(0.00196979 -0.000703995 0)
(0.00195953 -0.00069473 0)
(0.00194961 -0.000685806 0)
(0.00194001 -0.000677206 0)
(0.00193072 -0.000668914 0)
(0.00192174 -0.000660913 0)
(0.00191304 -0.00065319 0)
(0.00190462 -0.000645729 0)
(0.00189647 -0.000638519 0)
(0.00188857 -0.000631546 0)
(0.00188092 -0.000624799 0)
(0.0018735 -0.000618267 0)
(0.00186632 -0.000611939 0)
(0.00185935 -0.000605804 0)
(0.0018526 -0.000599855 0)
(0.00184606 -0.000594081 0)
(0.00183972 -0.000588474 0)
(0.00183357 -0.000583025 0)
(0.00182761 -0.000577726 0)
(0.00182183 -0.000572571 0)
(0.00181622 -0.00056755 0)
(0.00181079 -0.000562658 0)
(0.00180552 -0.000557886 0)
(0.00180042 -0.000553226 0)
(0.00179548 -0.000548673 0)
(0.00179069 -0.000544215 0)
(0.00178605 -0.000539843 0)
(0.00178155 -0.000535541 0)
(0.00177719 -0.000531284 0)
(0.00173273 -0.000556397 0)
(0.00169232 -0.000586308 0)
(0.00165169 -0.000616985 0)
(0.00161083 -0.000648479 0)
(0.00156975 -0.000680797 0)
(0.00152846 -0.000713932 0)
(0.001487 -0.000747869 0)
(0.00144536 -0.000782588 0)
(0.00140358 -0.000818065 0)
(0.00136167 -0.000854273 0)
(0.00131963 -0.000891176 0)
(0.0012775 -0.000928737 0)
(0.00123527 -0.000966909 0)
(0.00119296 -0.00100563 0)
(0.00115058 -0.00104484 0)
(0.00110815 -0.00108442 0)
(0.00106568 -0.00112422 0)
(0.00102314 -0.00116411 0)
(0.000980223 -0.00120436 0)
(0.000936096 -0.00124572 0)
(0.000890203 -0.00128887 0)
(0.000842395 -0.00133409 0)
(0.000792837 -0.00138123 0)
(0.000741868 -0.00142992 0)
(0.000689899 -0.00147963 0)
(0.000637358 -0.00152978 0)
(0.00058468 -0.00157975 0)
(0.000532285 -0.0016289 0)
(0.000480567 -0.00167659 0)
(0.00042988 -0.00172219 0)
(0.000380527 -0.00176511 0)
(0.000332738 -0.0018048 0)
(0.000286655 -0.00184081 0)
(0.00024231 -0.00187278 0)
(0.000199612 -0.00190047 0)
(0.000158298 -0.00192368 0)
(0.000118051 -0.00194236 0)
(7.83263e-05 -0.0019562 0)
(3.90302e-05 -0.00196494 0)
(0 -0.00196526 0)
(0 -0.0019622 0)
(0 -0.00195871 0)
(0 -0.00195465 0)
(0 -0.0019499 0)
(0 -0.0019443 0)
(0 -0.0019377 0)
(0 -0.00192998 0)
(0 -0.00192098 0)
(0 -0.00191059 0)
(0 -0.00189869 0)
(0 -0.00188517 0)
(0 -0.00186994 0)
(0 -0.00185292 0)
(0 -0.00183406 0)
(0 -0.0018133 0)
(0 -0.0017906 0)
(0 -0.00176594 0)
(0 -0.00173929 0)
(0 -0.00171065 0)
(0 -0.00168 0)
(0 -0.00164737 0)
(0 -0.00161275 0)
(0 -0.00157617 0)
(0 -0.00153764 0)
(0 -0.0014972 0)
(0 -0.00145487 0)
(0 -0.00141069 0)
(0 -0.00136472 0)
(0 -0.00131699 0)
(0 -0.00126758 0)
(0 -0.00121654 0)
(0 -0.00116395 0)
(0 -0.0011099 0)
(0 -0.00105446 0)
(0 -0.000997746 0)
(0 -0.000939854 0)
(0 -0.000880913 0)
(0 -0.000821078 0)
(0.000101769 -0.000765143 0)
(0.000202943 -0.000774555 0)
(0.000303199 -0.000788787 0)
(0.000402076 -0.000807735 0)
(0.000499077 -0.000831165 0)
(0.000593735 -0.000858736 0)
(0.000685654 -0.000890016 0)
(0.000774517 -0.000924492 0)
(0.000860103 -0.000961582 0)
(0.000942265 -0.00100064 0)
(0.0010209 -0.00104093 0)
(0.00109593 -0.00108164 0)
(0.00116721 -0.00112181 0)
(0.00123457 -0.00116035 0)
(0.00129771 -0.00119596 0)
(0.00135632 -0.00122721 0)
(0.00141004 -0.00125261 0)
(0.00145863 -0.0012707 0)
(0.00150202 -0.0012802 0)
(0.00154033 -0.00128014 0)
(0.00157392 -0.0012701 0)
(0.00160364 -0.00125113 0)
(0.0016317 -0.00122757 0)
(0.00166032 -0.00120434 0)
(0.0016893 -0.00118124 0)
(0.00171851 -0.00115818 0)
(0.00174784 -0.00113512 0)
(0.00177718 -0.00111204 0)
(0.00180647 -0.00108893 0)
(0.00183564 -0.0010658 0)
(0.00186462 -0.00104265 0)
(0.00189338 -0.00101948 0)
(0.00192186 -0.000996318 0)
(0.00195003 -0.000973161 0)
(0.00197786 -0.000950025 0)
(0.0020053 -0.00092692 0)
(0.00203234 -0.00090386 0)
(0.00205894 -0.000880854 0)
(0.00208509 -0.000857914 0)
(0.00213596 -0.000812267 0)
(0.00216064 -0.000789576 0)
(0.0021848 -0.000766984 0)
(0.00220842 -0.000744496 0)
(0.0022315 -0.000722117 0)
(0.00225402 -0.00069985 0)
(0.00227598 -0.000677699 0)
(0.00229736 -0.000655665 0)
(0.00231815 -0.00063375 0)
(0.00233836 -0.000611955 0)
(0.00235796 -0.000590279 0)
(0.00237696 -0.000568721 0)
(0.00239534 -0.000547281 0)
(0.00241311 -0.000525955 0)
(0.00243026 -0.000504743 0)
(0.00244677 -0.000483641 0)
(0.00246265 -0.000462646 0)
(0.00247789 -0.000441756 0)
(0.00249248 -0.000420966 0)
(0.00250643 -0.000400274 0)
(0.00251973 -0.000379674 0)
(0.00253236 -0.000359163 0)
(0.00254434 -0.000338736 0)
(0.00255565 -0.000318391 0)
(0.0025663 -0.000298121 0)
(0.00257628 -0.000277922 0)
(0.00258558 -0.000257791 0)
(0.0025942 -0.000237722 0)
(0.00260215 -0.000217711 0)
(0.00260942 -0.000197753 0)
(0.002616 -0.000177843 0)
(0.0026219 -0.000157978 0)
(0.00262712 -0.000138152 0)
(0.00263165 -0.000118362 0)
(0.0026355 -9.86022e-05 0)
(0.00263866 -7.88698e-05 0)
(0.00264115 -5.91608e-05 0)
(0.00264298 -3.94709e-05 0)
(0.00264419 -1.97865e-05 0)
(0.00264997 0 0)
(0.00265461 0 0)
(0.00265894 0 0)
(0.00266298 0 0)
(0.00266673 0 0)
(0.00267023 0 0)
(0.00267348 0 0)
(0.00267651 0 0)
(0.00267932 0 0)
(0.00268194 0 0)
(0.00268439 0 0)
(0.00268667 0 0)
(0.0026888 0 0)
(0.00269079 0 0)
(0.00269265 0 0)
(0.0026944 0 0)
(0.00269604 0 0)
(0.00269759 0 0)
(0.00269905 0 0)
(0.00270043 0 0)
(0.00270174 0 0)
(0.00270298 0 0)
(0.00270417 0 0)
(0.00270531 0 0)
(0.0027064 0 0)
(0.00270745 0 0)
(0.00270847 0 0)
(0.00270946 0 0)
(0.00271042 0 0)
(0.00271136 0 0)
(0.00271228 0 0)
(0.00271319 0 0)
(0.00271409 0 0)
(0.00271498 0 0)
(0.00271587 0 0)
(0.00271675 0 0)
(0.00271763 0 0)
(0.00271851 0 0)
(0.00271939 0 0)
(0.00271971 -4.51417e-06 0)
(0.00271765 -9.04239e-06 0)
(0.00271416 -1.3639e-05 0)
(0.00270925 -1.83445e-05 0)
(0.00270295 -2.31973e-05 0)
(0.00269526 -2.8235e-05 0)
(0.0026862 -3.34945e-05 0)
(0.00267577 -3.90124e-05 0)
(0.00266399 -4.48247e-05 0)
(0.00265088 -5.09669e-05 0)
(0.00263645 -5.74738e-05 0)
(0.00262073 -6.43798e-05 0)
(0.00260373 -7.17184e-05 0)
(0.00258548 -7.95224e-05 0)
(0.002566 -8.78238e-05 0)
(0.00254532 -9.66538e-05 0)
(0.00252347 -0.000106043 0)
(0.00250047 -0.00011602 0)
(0.00247635 -0.000126614 0)
(0.00245114 -0.000137852 0)
(0.00242488 -0.000149759 0)
(0.0023976 -0.000162362 0)
(0.00236932 -0.000175684 0)
(0.0023401 -0.000189747 0)
(0.00230995 -0.000204573 0)
(0.00227892 -0.00022018 0)
(0.00224704 -0.000236588 0)
(0.00221435 -0.000253812 0)
(0.00218088 -0.000271869 0)
(0.00214668 -0.000290769 0)
(0.00211179 -0.000310526 0)
(0.00207623 -0.000331147 0)
(0.00204006 -0.000352639 0)
(0.0020033 -0.000375005 0)
(0.00196599 -0.000398246 0)
(0.00192819 -0.000422356 0)
(0.00188992 -0.000447324 0)
(0.00185125 -0.000473125 0)
(0.00181222 -0.000499717 0)
(0.00272275 0 0)
(0.00272525 0 0)
(0.00272784 0 0)
(0.00273055 0 0)
(0.00273341 0 0)
(0.00273642 0 0)
(0.00273961 0 0)
(0.00274299 0 0)
(0.00274656 0 0)
(0.00275034 0 0)
(0.00275433 0 0)
(0.00275853 0 0)
(0.00276296 0 0)
(0.00276761 0 0)
(0.00277248 0 0)
(0.00277759 0 0)
(0.00278292 0 0)
(0.00278848 0 0)
(0.00279427 0 0)
(0.00280029 0 0)
(0.00280654 0 0)
(0.00281302 0 0)
(0.00281972 0 0)
(0.00282666 0 0)
(0.00283381 0 0)
(0.0028412 0 0)
(0.0028488 0 0)
(0.00285663 0 0)
(0.00286467 0 0)
(0.00287293 0 0)
(0.0028814 0 0)
(0.00289008 0 0)
(0.00289897 0 0)
(0.00290806 0 0)
(0.00291736 0 0)
(0.00292686 0 0)
(0.00293656 0 0)
(0.00294644 0 0)
(0.00295652 0 0)
(0.00296679 0 0)
(0.00297724 0 0)
(0.00298787 0 0)
(0.00299868 0 0)
(0.00300966 0 0)
(0.00302081 0 0)
(0.00303213 0 0)
(0.0030436 0 0)
(0.00305524 0 0)
(0.00306703 0 0)
(0.00307896 0 0)
(0.00309104 0 0)
(0.00310327 0 0)
(0.00311562 0 0)
(0.00312811 0 0)
(0.00314072 0 0)
(0.00315346 0 0)
(0.00316631 0 0)
(0.00317927 0 0)
(0.00319233 0 0)
(0.00320549 0 0)
(0.00321875 0 0)
(0.00323209 0 0)
(0.00324551 0 0)
(0.003259 0 0)
(0.00327255 0 0)
(0.00328617 0 0)
(0.00329984 0 0)
(0.00331354 0 0)
(0.00332728 0 0)
(0.00334105 0 0)
(0.00335483 0 0)
(0.00336861 0 0)
(0.00338239 0 0)
(0.00339616 0 0)
(0.00340989 0 0)
(0.00342359 0 0)
(0.00343724 0 0)
(0.00345082 0 0)
(0.00346434 0 0)
(0.0034776 -3.14472e-08 0)
(0.00347727 -8.58572e-08 0)
(0.00347676 -1.54735e-07 0)