/*--------------------------------*- C++ -*----------------------------------*\
| =========                 |                                                 |
| \\      /  F ield         | OpenFOAM: The Open Source CFD Toolbox           |
|  \\    /   O peration     | Version:  v2012                                 |
|   \\  /    A nd           | Website:  www.openfoam.com                      |
|    \\/     M anipulation  |                                                 |
\*---------------------------------------------------------------------------*/
FoamFile
{
    version     2.0;
    format      ascii;
    class       volSymmTensorField;
    location    "14";
    object      sigma;
}
// * * * * * * * * * * * * * * * * * * * * * * * * * * * * * * * * * * * * * //

dimensions      [1 -1 -2 0 0 0 0];


internalField   nonuniform List<symmTensor> 
32000
(
(4.91117e+07 -2.70818e+06 0.000102329 1.75078e+06 -0.000906686 6.93428e+07)
(5.614e+07 2.03472e+06 -2.04136e-05 659341 -0.000640884 6.97667e+07)
(6.07631e+07 -3.34536e+06 -0.000121946 2.56827e+06 -0.000834011 7.46356e+07)
(6.66297e+07 1.34404e+06 -0.000163123 1.17909e+06 -0.00101735 7.40805e+07)
(7.23427e+07 -3.65753e+06 -3.96602e-05 3.99194e+06 -0.00104743 7.99785e+07)
(7.64541e+07 746076 -2.39487e-05 1.63179e+06 -0.00113555 7.80553e+07)
(8.3555e+07 -3.75739e+06 1.58291e-05 5.81289e+06 -0.000953099 8.52099e+07)
(8.57908e+07 231870 0.000214618 2.21497e+06 -0.000655139 8.1878e+07)
(9.43034e+07 -3.73266e+06 0.000195907 7.89296e+06 -0.000833502 9.02625e+07)
(9.47214e+07 -224229 0.000364009 2.99787e+06 -0.000776922 8.56052e+07)
(1.04568e+08 -3.63942e+06 0.00016397 1.015e+07 -0.00114486 9.51144e+07)
(1.03294e+08 -640730 0.000446005 3.99872e+06 -0.000602294 8.92515e+07)
(1.14362e+08 -3.50891e+06 0.000276429 1.25351e+07 -0.00099899 9.97567e+07)
(1.1154e+08 -1.02898e+06 0.000350741 5.21136e+06 -0.000452007 9.28155e+07)
(1.23708e+08 -3.35948e+06 7.05495e-05 1.50189e+07 -0.000953472 1.04189e+08)
(1.19485e+08 -1.39531e+06 4.59921e-05 6.62316e+06 -0.000379596 9.62919e+07)
(1.32635e+08 -3.20122e+06 -2.48871e-05 1.75826e+07 -0.000821082 1.08414e+08)
(1.27148e+08 -1.74302e+06 9.15504e-05 8.21592e+06 -0.000378703 9.96745e+07)
(1.41173e+08 -3.03934e+06 0.00011489 2.02127e+07 -0.00072662 1.12432e+08)
(1.3455e+08 -2.07468e+06 8.07228e-05 9.97408e+06 -0.000558664 1.02951e+08)
(1.49349e+08 -2.87846e+06 -3.48504e-05 2.29006e+07 -0.000831215 1.16254e+08)
(1.41704e+08 -2.39039e+06 0.000213739 1.18798e+07 -0.000821558 1.06106e+08)
(1.57186e+08 -2.718e+06 0.000244949 2.56371e+07 -0.000819877 1.19866e+08)
(1.48626e+08 -2.69175e+06 0.000414916 1.39198e+07 -0.000712241 1.09132e+08)
(1.64706e+08 -2.55936e+06 0.000164384 2.84153e+07 -0.000526141 1.23264e+08)
(1.55329e+08 -2.98038e+06 7.1183e-05 1.60792e+07 -0.00033247 1.12024e+08)
(1.71931e+08 -2.40343e+06 -9.35482e-05 3.12296e+07 -0.000462214 1.26444e+08)
(1.61827e+08 -3.25982e+06 7.21316e-05 1.83496e+07 -0.000356162 1.1476e+08)
(1.78878e+08 -2.24991e+06 0.00016395 3.40764e+07 -0.000603488 1.29409e+08)
(1.68132e+08 -3.53152e+06 0.000100129 2.0722e+07 -0.000300887 1.17324e+08)
(1.85562e+08 -2.0937e+06 -6.47303e-05 3.695e+07 -0.000364749 1.3213e+08)
(1.74257e+08 -3.79646e+06 -8.80193e-05 2.319e+07 -0.000101945 1.19717e+08)
(1.91993e+08 -1.93256e+06 -2.20411e-05 3.98445e+07 -5.68682e-05 1.34593e+08)
(1.80202e+08 -4.0562e+06 4.41085e-05 2.57393e+07 -1.88428e-05 1.21912e+08)
(1.98183e+08 -1.76939e+06 6.52237e-05 4.27562e+07 3.43659e-05 1.3681e+08)
(1.85975e+08 -4.31119e+06 0.000114551 2.83646e+07 -3.60252e-05 1.23876e+08)
(2.04133e+08 -1.59316e+06 4.75229e-05 4.56759e+07 -1.16726e-05 1.38727e+08)
(1.91579e+08 -4.56079e+06 8.27606e-05 3.10572e+07 -8.04831e-05 1.25606e+08)
(2.09841e+08 -1.40009e+06 3.39064e-05 4.85928e+07 5.44985e-05 1.40317e+08)
(1.97004e+08 -4.80609e+06 2.16585e-05 3.37984e+07 1.18907e-05 1.2707e+08)
(2.15308e+08 -1.19419e+06 -1.24915e-05 5.14986e+07 6.88884e-05 1.41601e+08)
(2.02247e+08 -5.04498e+06 -4.04479e-05 3.65825e+07 -9.68713e-05 1.28217e+08)
(2.20517e+08 -959267 -2.72203e-05 5.43761e+07 -0.000237242 1.42495e+08)
(2.07297e+08 -5.27377e+06 -4.57173e-05 3.93921e+07 -0.000221505 1.29055e+08)
(2.25449e+08 -692550 -1.77149e-05 5.72054e+07 -0.000377879 1.42976e+08)
(2.12127e+08 -5.49071e+06 -8.79883e-05 4.21993e+07 -9.87126e-05 1.29522e+08)
(2.30089e+08 -394320 -6.85541e-05 5.99664e+07 -0.000336937 1.43053e+08)
(2.16722e+08 -5.68865e+06 -0.000213669 4.49952e+07 -0.000106647 1.29569e+08)
(2.34396e+08 -49951.8 -0.000140984 6.2629e+07 -0.000342393 1.42631e+08)
(2.21049e+08 -5.85872e+06 -0.000318155 4.77366e+07 6.29036e-06 1.2924e+08)
(2.38342e+08 335742 -0.000171098 6.51619e+07 -3.09911e-05 1.41732e+08)
(2.25064e+08 -5.99355e+06 -0.000268772 5.03947e+07 0.000247673 1.28418e+08)
(2.41886e+08 769818 -9.27049e-05 6.75277e+07 0.000150616 1.40318e+08)
(2.28745e+08 -6.07775e+06 -5.11953e-05 5.29421e+07 0.000277984 1.27136e+08)
(2.44973e+08 1.25653e+06 4.21623e-05 6.9681e+07 0.000192739 1.3833e+08)
(2.32033e+08 -6.10174e+06 9.27393e-05 5.53122e+07 0.00025994 1.25394e+08)
(2.47593e+08 1.7737e+06 4.87001e-05 7.15833e+07 0.000197609 1.35889e+08)
(2.34905e+08 -6.04737e+06 9.24633e-05 5.74931e+07 0.000166902 1.23138e+08)
(2.49679e+08 2.32986e+06 4.18883e-05 7.31849e+07 -2.92671e-05 1.32883e+08)
(2.37326e+08 -5.90223e+06 3.82246e-05 5.94029e+07 -8.36331e-05 1.20515e+08)
(2.51231e+08 2.90033e+06 -4.34392e-06 7.44433e+07 -0.000149455 1.29446e+08)
(2.3927e+08 -5.65358e+06 1.9179e-05 6.10283e+07 -0.000143412 1.17443e+08)
(2.52225e+08 3.47445e+06 2.30436e-05 7.53159e+07 -0.000210449 1.25589e+08)
(2.40748e+08 -5.2924e+06 4.61614e-05 6.23271e+07 -0.000204445 1.14082e+08)
(2.52664e+08 4.03409e+06 2.21186e-05 7.57659e+07 -0.000235153 1.21388e+08)
(2.41751e+08 -4.81739e+06 -5.44623e-06 6.32601e+07 -0.000258198 1.10464e+08)
(2.52588e+08 4.55525e+06 -2.73167e-05 7.57675e+07 -0.000280728 1.16987e+08)
(2.4233e+08 -4.22465e+06 -4.2121e-06 6.38431e+07 -0.000198356 1.06693e+08)
(2.52008e+08 5.02903e+06 2.30717e-05 7.52981e+07 -0.00019496 1.12407e+08)
(2.42506e+08 -3.52836e+06 -1.15465e-05 6.40238e+07 -7.55503e-05 1.02906e+08)
(2.51004e+08 5.4361e+06 -3.42043e-05 7.43504e+07 -6.08299e-05 1.07842e+08)
(2.42342e+08 -2.73189e+06 -4.8365e-05 6.38474e+07 6.57143e-05 9.91477e+07)
(2.49608e+08 5.77504e+06 -1.30836e-05 7.29197e+07 -0.00010243 1.03321e+08)
(2.41878e+08 -1.86227e+06 3.31793e-06 6.32913e+07 -4.82464e-05 9.55295e+07)
(2.47881e+08 6.04599e+06 1.62445e-05 7.10128e+07 -0.000173841 9.89426e+07)
(2.41148e+08 -947387 -4.83444e-05 6.23519e+07 -0.000134065 9.21015e+07)
(2.45879e+08 6.25729e+06 -6.32068e-05 6.86448e+07 -0.000228196 9.47839e+07)
(2.36747e+08 120150 -3.48486e-05 6.19789e+07 -0.000269996 8.96177e+07)
(2.38617e+08 6.03789e+06 2.89813e-05 6.59548e+07 -0.000234478 9.13714e+07)
(2.29892e+08 571058 6.43721e-05 6.10198e+07 -0.000281719 8.72736e+07)
(4.95604e+07 -4.4142e+06 0.000168403 534691 -0.000829261 6.98168e+07)
(5.67887e+07 954108 0.000444017 311659 -0.000983559 6.96168e+07)
(6.1115e+07 -4.81728e+06 0.000208474 1.63875e+06 -0.000975585 7.46466e+07)
(6.7718e+07 -9581.02 0.000423018 1.29953e+06 -0.00060302 7.44034e+07)
(7.22365e+07 -5.2829e+06 6.22546e-05 3.07228e+06 -0.000737824 7.95398e+07)
(7.78669e+07 -916867 0.000412399 2.23567e+06 -0.000294019 7.87815e+07)
(8.29569e+07 -5.71347e+06 0.000518842 4.75677e+06 -0.000403135 8.43826e+07)
(8.74384e+07 -1.7746e+06 0.000749372 3.24022e+06 0.000312862 8.29089e+07)
(9.32891e+07 -6.07851e+06 0.000606363 6.66713e+06 0.000103488 8.91349e+07)
(9.65241e+07 -2.57905e+06 0.000459651 4.35421e+06 0.000737734 8.68469e+07)
(1.03238e+08 -6.37464e+06 0.00049593 8.77514e+06 0.00037683 9.377e+07)
(1.05185e+08 -3.33029e+06 0.000481169 5.59705e+06 0.000822933 9.06276e+07)
(1.1281e+08 -6.60958e+06 0.000503266 1.1053e+07 0.000368528 9.82723e+07)
(1.13465e+08 -4.03104e+06 0.000291939 6.9754e+06 0.000275802 9.42649e+07)
(1.22012e+08 -6.79236e+06 0.000113907 1.34704e+07 1.46038e-05 1.02621e+08)
(1.21404e+08 -4.68676e+06 1.17515e-05 8.49315e+06 -8.61164e-05 9.77701e+07)
(1.30855e+08 -6.93293e+06 5.98319e-05 1.6004e+07 -4.73215e-05 1.06805e+08)
(1.29036e+08 -5.30088e+06 0.000155392 1.01504e+07 -0.000245095 1.01151e+08)
(1.39352e+08 -7.03982e+06 0.000152173 1.86316e+07 -0.000413441 1.10811e+08)
(1.36386e+08 -5.87581e+06 -4.50075e-05 1.19407e+07 -0.000630878 1.04407e+08)
(1.47517e+08 -7.11917e+06 0.000131955 2.13355e+07 -0.000767488 1.1463e+08)
(1.43479e+08 -6.41515e+06 0.000151418 1.38585e+07 -0.000694045 1.07531e+08)
(1.55361e+08 -7.17537e+06 0.00040316 2.40994e+07 -0.000642666 1.18253e+08)
(1.50336e+08 -6.92402e+06 -0.000224068 1.58978e+07 -0.000165712 1.10516e+08)
(1.62904e+08 -7.21331e+06 -0.000297435 2.69139e+07 -4.90527e-05 1.2167e+08)
(1.56977e+08 -7.40712e+06 -0.000559662 1.80542e+07 0.000127082 1.13361e+08)
(1.70156e+08 -7.23551e+06 -1.94081e-05 2.97666e+07 -5.86124e-05 1.24865e+08)
(1.63421e+08 -7.86677e+06 -0.000221891 2.03235e+07 0.000153577 1.16059e+08)
(1.77129e+08 -7.2435e+06 -0.000188156 3.26465e+07 0.000146643 1.27834e+08)
(1.69677e+08 -8.30506e+06 -0.0003303 2.26961e+07 0.000413984 1.18584e+08)
(1.8383e+08 -7.23469e+06 -6.11454e-05 3.55424e+07 0.000216768 1.30555e+08)
(1.75757e+08 -8.72352e+06 0.000116428 2.51667e+07 0.000430566 1.20924e+08)
(1.90274e+08 -7.20789e+06 0.000152691 3.84526e+07 0.000142327 1.3301e+08)
(1.81667e+08 -9.12138e+06 0.000291184 2.77259e+07 0.000379505 1.23078e+08)
(1.96459e+08 -7.15841e+06 0.000227968 4.13613e+07 0.000142586 1.35181e+08)
(1.87406e+08 -9.49887e+06 0.000135617 3.03594e+07 0.00017455 1.24995e+08)
(2.02388e+08 -7.07895e+06 5.65215e-05 4.42586e+07 -7.51102e-05 1.37053e+08)
(1.92974e+08 -9.85269e+06 1.37231e-05 3.30591e+07 2.09719e-05 1.26648e+08)
(2.08068e+08 -6.96447e+06 2.82751e-05 4.71431e+07 -2.67621e-05 1.38588e+08)
(1.98364e+08 -1.01777e+07 2.75965e-05 3.58047e+07 1.72773e-05 1.28038e+08)
(2.13481e+08 -6.80338e+06 -7.39933e-06 4.99898e+07 -0.000108445 1.39765e+08)
(2.03556e+08 -1.04693e+07 -9.03709e-06 3.85746e+07 -9.44763e-05 1.29092e+08)
(2.1862e+08 -6.58388e+06 -6.07243e-05 5.27865e+07 -6.94884e-05 1.40564e+08)
(2.08537e+08 -1.07164e+07 -0.000127169 4.13523e+07 -7.53805e-05 1.29776e+08)
(2.23476e+08 -6.29443e+06 -0.000180077 5.5525e+07 4.57096e-05 1.40929e+08)
(2.13281e+08 -1.09068e+07 -0.000217339 4.41028e+07 1.44953e-05 1.30099e+08)
(2.28013e+08 -5.92073e+06 -0.0002671 5.81657e+07 9.38691e-05 1.40862e+08)
(2.17743e+08 -1.10277e+07 -0.000110838 4.6788e+07 0.000109475 1.29955e+08)
(2.32222e+08 -5.45041e+06 -0.000234895 6.07032e+07 0.000248529 1.40324e+08)
(2.21899e+08 -1.10576e+07 -0.000128038 4.93786e+07 0.000255975 1.29356e+08)
(2.36058e+08 -4.86597e+06 -0.000309656 6.31022e+07 0.000286135 1.39265e+08)
(2.25697e+08 -1.09804e+07 -0.000258576 5.18182e+07 0.000151968 1.28281e+08)
(2.39493e+08 -4.16157e+06 -0.000173867 6.53232e+07 0.000240887 1.37743e+08)
(2.29096e+08 -1.07709e+07 -0.000243928 5.4072e+07 0.000153406 1.26664e+08)
(2.42505e+08 -3.33168e+06 -6.57082e-05 6.73637e+07 0.000258383 1.35684e+08)
(2.32062e+08 -1.04098e+07 -2.29653e-05 5.60771e+07 0.000179534 1.24616e+08)
(2.45039e+08 -2.37077e+06 0.000180027 6.91495e+07 0.000151088 1.33157e+08)
(2.34548e+08 -9.87681e+06 0.000161474 5.77977e+07 0.000149022 1.22048e+08)
(2.471e+08 -1.29166e+06 6.82069e-05 7.0689e+07 0.000107343 1.30177e+08)
(2.36559e+08 -9.1587e+06 6.86933e-05 5.9203e+07 0.000161935 1.19094e+08)
(2.48642e+08 -102960 6.07677e-05 7.19159e+07 -2.91091e-05 1.26778e+08)
(2.38066e+08 -8.2526e+06 0.000117645 6.02524e+07 -4.77971e-05 1.15766e+08)
(2.49676e+08 1.17269e+06 9.69891e-05 7.28057e+07 -0.000159094 1.23069e+08)
(2.39114e+08 -7.15479e+06 9.40836e-05 6.09628e+07 -0.000134468 1.12179e+08)
(2.50202e+08 2.50807e+06 1.44745e-05 7.33403e+07 -0.000204784 1.19069e+08)
(2.39709e+08 -5.88884e+06 5.0353e-05 6.13015e+07 -6.77916e-05 1.0843e+08)
(2.50237e+08 3.87462e+06 5.17233e-05 7.34606e+07 -4.39779e-05 1.14938e+08)
(2.39922e+08 -4.45854e+06 0.000213234 6.13267e+07 3.90649e-05 1.04593e+08)
(2.49829e+08 5.23833e+06 0.000118237 7.31943e+07 -1.58683e-06 1.10697e+08)
(2.39791e+08 -2.90807e+06 0.000218501 6.10166e+07 6.88114e-05 1.00821e+08)
(2.49012e+08 6.56599e+06 6.8978e-05 7.24903e+07 0.000117643 1.0649e+08)
(2.3939e+08 -1.24676e+06 0.000204102 6.04418e+07 0.000110909 9.71492e+07)
(2.47855e+08 7.82855e+06 9.78762e-05 7.13821e+07 0.000108472 1.0237e+08)
(2.38779e+08 487436 0.000203043 5.96151e+07 5.76086e-05 9.37034e+07)
(2.46452e+08 8.97395e+06 3.97183e-05 6.99126e+07 -6.41899e-05 9.84392e+07)
(2.38055e+08 2.30039e+06 0.000119499 5.86076e+07 -0.000134809 9.05948e+07)
(2.44013e+08 1.02174e+07 5.53e-05 6.70411e+07 -0.000248162 9.43909e+07)
(2.35421e+08 4.1524e+06 0.000182839 5.78658e+07 -0.000126802 8.79859e+07)
(2.38683e+08 1.05961e+07 0.000123834 6.42217e+07 -0.000198562 9.08713e+07)
(2.29315e+08 5.16606e+06 0.000199333 5.79433e+07 -0.00010387 8.61775e+07)
(5.00601e+07 -5.50386e+06 0.000668235 627504 -0.000589096 7.01775e+07)
(5.80061e+07 -125833 0.000770834 688636 -0.000339155 7.00781e+07)
(6.12795e+07 -6.33692e+06 0.000755082 1.35215e+06 -0.000369124 7.46321e+07)
(6.90975e+07 -1.47664e+06 0.000554782 1.90158e+06 -0.000240943 7.50073e+07)
(7.21191e+07 -7.1169e+06 0.000568109 2.55178e+06 -3.79738e-05 7.92046e+07)
(7.9434e+07 -2.72748e+06 0.000438006 3.13057e+06 3.87048e-05 7.95916e+07)
(8.25536e+07 -7.85496e+06 0.000512952 4.06551e+06 0.000490684 8.37706e+07)
(8.91532e+07 -3.90527e+06 0.000120468 4.4193e+06 0.00047575 8.39042e+07)
(9.26046e+07 -8.5379e+06 0.000217157 5.83324e+06 0.000925541 8.82832e+07)
(9.83433e+07 -5.01599e+06 0.000121913 5.78744e+06 0.000641073 8.79911e+07)
(1.02294e+08 -9.15695e+06 0.000353607 7.81974e+06 0.000895915 9.27153e+07)
(1.07066e+08 -6.0622e+06 0.000183372 7.24337e+06 0.000464783 9.18795e+07)
(1.11641e+08 -9.70865e+06 0.000104566 9.99817e+06 0.000300733 9.70485e+07)
(1.15377e+08 -7.0467e+06 0.000268956 8.79719e+06 0.000116887 9.5592e+07)
(1.20659e+08 -1.01968e+07 0.000352344 1.23428e+07 -8.33462e-06 1.01269e+08)
(1.23318e+08 -7.97003e+06 0.000328476 1.04526e+07 0.000289447 9.91405e+07)
(1.29357e+08 -1.06248e+07 8.04207e-05 1.48256e+07 1.00412e-05 1.05353e+08)
(1.30926e+08 -8.83433e+06 0.000110977 1.22123e+07 -0.00012016 1.02534e+08)
(1.37741e+08 -1.09975e+07 -9.96899e-06 1.74235e+07 -0.000593869 1.09283e+08)
(1.38236e+08 -9.64413e+06 -0.000222801 1.4078e+07 -0.000658235 1.05781e+08)
(1.45822e+08 -1.13204e+07 -0.000233552 2.01148e+07 -0.000622895 1.13043e+08)
(1.4528e+08 -1.0405e+07 -0.000303046 1.60533e+07 -0.000530349 1.08886e+08)
(1.53611e+08 -1.16009e+07 -0.00053387 2.2882e+07 -0.000128677 1.16622e+08)
(1.52086e+08 -1.11218e+07 -0.000844296 1.81382e+07 0.000112269 1.11843e+08)
(1.61113e+08 -1.18427e+07 -0.000787461 2.57064e+07 0.000247487 1.20004e+08)
(1.58676e+08 -1.1798e+07 -0.000649974 2.03334e+07 0.000135439 1.14645e+08)
(1.68332e+08 -1.20487e+07 -0.000616853 2.85691e+07 0.000224227 1.23162e+08)
(1.65068e+08 -1.24363e+07 -0.000591304 2.26349e+07 0.000204516 1.1729e+08)
(1.75275e+08 -1.22191e+07 -0.000332931 3.14567e+07 0.00039911 1.26078e+08)
(1.71277e+08 -1.3038e+07 9.5256e-06 2.50394e+07 0.000123234 1.19768e+08)
(1.81946e+08 -1.23552e+07 0.000186171 3.43542e+07 0.000353262 1.28745e+08)
(1.77309e+08 -1.36034e+07 0.000208393 2.75354e+07 9.51088e-05 1.22043e+08)
(1.88346e+08 -1.24503e+07 0.000275586 3.72469e+07 0.000410261 1.31127e+08)
(1.83168e+08 -1.41304e+07 0.000120541 3.01139e+07 0.000143592 1.24093e+08)
(1.94479e+08 -1.24979e+07 4.64677e-05 4.01243e+07 0.000145957 1.33198e+08)
(1.88853e+08 -1.46156e+07 -8.06924e-05 3.27583e+07 -0.000262624 1.25915e+08)
(2.0034e+08 -1.24917e+07 -3.15831e-05 4.29689e+07 -0.000133737 1.34943e+08)
(1.94354e+08 -1.50538e+07 -2.3255e-05 3.54499e+07 -0.000252866 1.27441e+08)
(2.05928e+08 -1.24171e+07 2.20528e-05 4.57692e+07 -5.05954e-05 1.36337e+08)
(1.99653e+08 -1.54333e+07 2.98545e-05 3.81636e+07 -0.000152709 1.28631e+08)
(2.11233e+08 -1.22589e+07 3.31722e-05 4.85109e+07 -6.98759e-05 1.3733e+08)
(2.04733e+08 -1.57416e+07 2.52299e-05 4.08688e+07 -0.000145964 1.29487e+08)
(2.16241e+08 -1.20037e+07 -8.42995e-05 5.11703e+07 -0.000174942 1.37919e+08)
(2.09558e+08 -1.59635e+07 -0.000122862 4.35298e+07 -0.00020973 1.29917e+08)
(2.2094e+08 -1.16287e+07 -0.000203458 5.37349e+07 -0.000137115 1.38069e+08)
(2.14091e+08 -1.60757e+07 -6.39116e-05 4.61032e+07 -4.87692e-05 1.29887e+08)
(2.2531e+08 -1.11124e+07 7.37842e-05 5.61872e+07 0.000120178 1.3773e+08)
(2.18295e+08 -1.60565e+07 0.000135594 4.85419e+07 0.000206821 1.29406e+08)
(2.29329e+08 -1.04432e+07 5.10131e-05 5.84985e+07 0.000203666 1.36954e+08)
(2.22112e+08 -1.58748e+07 6.35098e-05 5.07885e+07 0.000276449 1.28373e+08)
(2.32975e+08 -9.59448e+06 -7.0902e-05 6.06588e+07 0.000195103 1.35663e+08)
(2.2551e+08 -1.55016e+07 5.17131e-05 5.27933e+07 0.000204035 1.26854e+08)
(2.36213e+08 -8.55913e+06 -0.000210007 6.2632e+07 7.45413e-05 1.33897e+08)
(2.28434e+08 -1.49136e+07 -6.82346e-05 5.44996e+07 6.02225e-05 1.248e+08)
(2.39035e+08 -7.32514e+06 -6.02516e-05 6.44098e+07 6.41991e-05 1.31686e+08)
(2.3087e+08 -1.40828e+07 0.000133914 5.58751e+07 3.59088e-05 1.22273e+08)
(2.41403e+08 -5.89776e+06 0.000152558 6.59611e+07 0.000151257 1.29026e+08)
(2.32795e+08 -1.30061e+07 4.25266e-05 5.6882e+07 7.62402e-05 1.19334e+08)
(2.43313e+08 -4.28639e+06 5.29373e-05 6.72584e+07 0.000129022 1.26037e+08)
(2.34225e+08 -1.16716e+07 2.23189e-05 5.75268e+07 6.13636e-05 1.16031e+08)
(2.44748e+08 -2.50736e+06 9.55055e-05 6.82918e+07 7.43267e-05 1.22702e+08)
(2.35181e+08 -1.01043e+07 0.000121577 5.78e+07 9.09206e-05 1.12509e+08)
(2.45717e+08 -603489 0.000140225 6.90189e+07 -1.15844e-05 1.1919e+08)
(2.35709e+08 -8.31083e+06 0.000201518 5.77536e+07 3.1636e-05 1.08803e+08)
(2.46229e+08 1.40729e+06 0.000187172 6.94495e+07 4.01457e-05 1.1548e+08)
(2.3586e+08 -6.34356e+06 0.000334148 5.73983e+07 2.12532e-05 1.05084e+08)
(2.46309e+08 3.46054e+06 0.000351722 6.95339e+07 -5.14427e-06 1.11741e+08)
(2.35703e+08 -4.21561e+06 0.000345858 5.68174e+07 -2.63921e-05 1.01371e+08)
(2.4599e+08 5.54181e+06 0.000302567 6.92985e+07 8.83058e-05 1.07966e+08)
(2.35293e+08 -1.99294e+06 7.89773e-05 5.60234e+07 0.000117757 9.78181e+07)
(2.45299e+08 7.59708e+06 0.000130235 6.86967e+07 9.13077e-05 1.04266e+08)
(2.34703e+08 317845 0.000101431 5.51058e+07 -2.70238e-08 9.44268e+07)
(2.44259e+08 9.62506e+06 0.000279946 6.77249e+07 -2.82458e-05 1.00648e+08)
(2.33981e+08 2.66408e+06 0.000274607 5.40817e+07 -4.33645e-05 9.12861e+07)
(2.42825e+08 1.16495e+07 0.000272052 6.62894e+07 -2.80974e-05 9.7124e+07)
(2.33145e+08 5.03004e+06 0.000269258 5.29915e+07 -5.51693e-05 8.83383e+07)
(2.40754e+08 1.35999e+07 0.000238923 6.40601e+07 -4.5373e-05 9.35231e+07)
(2.32167e+08 7.30681e+06 0.000168466 5.18082e+07 -0.000101768 8.54901e+07)
(2.37759e+08 1.48167e+07 0.000186843 6.05195e+07 -9.07227e-05 8.95054e+07)
(2.27792e+08 9.55867e+06 0.000166488 5.16559e+07 -0.000173272 8.38343e+07)
(5.04757e+07 -6.57852e+06 0.000525596 443149 -0.000136731 7.01318e+07)
(5.97487e+07 -1.33952e+06 0.000841048 1.38991e+06 3.40843e-05 7.0857e+07)
(6.1497e+07 -7.85725e+06 0.000884754 1.12749e+06 -4.47152e-05 7.44955e+07)
(7.07934e+07 -3.04393e+06 0.000972064 2.74693e+06 0.000140086 7.57873e+07)
(7.211e+07 -9.01049e+06 0.000509009 2.22186e+06 1.78095e-05 7.88884e+07)
(8.11742e+07 -4.62729e+06 0.000389684 4.19433e+06 -0.000159606 8.04574e+07)
(8.2319e+07 -1.0077e+07 -7.00251e-05 3.63764e+06 -0.000147217 8.3264e+07)
(9.09537e+07 -6.11097e+06 0.00019433 5.71554e+06 -0.00017916 8.4876e+07)
(9.21452e+07 -1.10674e+07 0.000288945 5.31792e+06 0.000170622 8.75906e+07)
(1.00193e+08 -7.50887e+06 0.000545067 7.30541e+06 1.63998e-05 8.90597e+07)
(1.01617e+08 -1.19834e+07 0.000205634 7.22809e+06 6.66833e-05 9.18501e+07)
(1.08953e+08 -8.82878e+06 0.00022449 8.96799e+06 -0.00012853 9.30301e+07)
(1.10757e+08 -1.28261e+07 0.000364561 9.3381e+06 9.16529e-05 9.60238e+07)
(1.17279e+08 -1.00728e+07 0.00073762 1.0704e+07 8.6011e-05 9.68044e+07)
(1.19581e+08 -1.35943e+07 0.000612562 1.16212e+07 0.000406644 1.00093e+08)
(1.25217e+08 -1.12427e+07 0.000437785 1.25176e+07 0.000256442 1.00396e+08)
(1.28101e+08 -1.429e+07 0.000181416 1.40525e+07 7.85296e-06 1.04042e+08)
(1.32808e+08 -1.23426e+07 0.000244757 1.44122e+07 -9.95669e-05 1.03813e+08)
(1.36331e+08 -1.49159e+07 -4.03804e-05 1.66095e+07 -0.000296156 1.07854e+08)
(1.40093e+08 -1.3378e+07 -0.00032891 1.63954e+07 0.000348419 1.07063e+08)
(1.44277e+08 -1.54774e+07 -0.000577922 1.92688e+07 6.47243e-05 1.11508e+08)
(1.47106e+08 -1.43539e+07 -0.000319645 1.84737e+07 0.000702817 1.10151e+08)
(1.51947e+08 -1.59776e+07 -0.000357336 2.20088e+07 0.000335114 1.14982e+08)
(1.53878e+08 -1.52727e+07 -0.000319618 2.06513e+07 0.000819247 1.13086e+08)
(1.5934e+08 -1.64196e+07 -0.000675281 2.48063e+07 0.00047585 1.18254e+08)
(1.6043e+08 -1.61364e+07 -0.000342266 2.29281e+07 0.000609614 1.15855e+08)
(1.6646e+08 -1.68046e+07 -0.000296478 2.76415e+07 0.00024429 1.21309e+08)
(1.66783e+08 -1.69455e+07 -0.000129623 2.53025e+07 0.000310481 1.18443e+08)
(1.73304e+08 -1.71315e+07 -8.70731e-05 3.04926e+07 -3.04705e-06 1.2411e+08)
(1.72946e+08 -1.76997e+07 -9.05554e-06 2.77656e+07 6.59307e-05 1.20826e+08)
(1.79872e+08 -1.73944e+07 0.00011169 3.33411e+07 -6.13794e-05 1.26628e+08)
(1.78925e+08 -1.8397e+07 -6.69987e-05 3.03062e+07 4.00727e-05 1.23002e+08)
(1.86162e+08 -1.75885e+07 -0.000119203 3.61671e+07 -6.43613e-05 1.28846e+08)
(1.84719e+08 -1.90334e+07 -0.000290119 3.29083e+07 -9.52488e-05 1.24921e+08)
(1.92174e+08 -1.77046e+07 -0.000171534 3.89558e+07 -0.000290476 1.30741e+08)
(1.90317e+08 -1.95992e+07 -0.000260722 3.55483e+07 -0.000298027 1.26535e+08)
(1.97899e+08 -1.77269e+07 -0.000158032 4.16865e+07 -0.000386482 1.32261e+08)
(1.957e+08 -2.00817e+07 -0.000197318 3.81942e+07 -0.000226728 1.27824e+08)
(2.03329e+08 -1.76393e+07 -5.15292e-05 4.43401e+07 -0.000193024 1.3339e+08)
(2.00844e+08 -2.04672e+07 2.46655e-06 4.08123e+07 -6.71335e-05 1.28739e+08)
(2.0846e+08 -1.74253e+07 7.60871e-05 4.69028e+07 -0.000103215 1.3412e+08)
(2.05709e+08 -2.07326e+07 5.74148e-05 4.33551e+07 -7.07828e-05 1.292e+08)
(2.13272e+08 -1.70572e+07 -3.38172e-05 4.93528e+07 -0.000149881 1.34382e+08)
(2.10258e+08 -2.08518e+07 -0.000150975 4.57695e+07 -4.81427e-05 1.29209e+08)
(2.17757e+08 -1.65159e+07 -0.000101391 5.16734e+07 -2.1834e-05 1.34195e+08)
(2.1444e+08 -2.07964e+07 -3.92277e-05 4.7998e+07 0.00016818 1.287e+08)
(2.21897e+08 -1.57774e+07 6.11679e-05 5.38491e+07 0.000225882 1.33543e+08)
(2.182e+08 -2.05287e+07 0.000115685 4.99758e+07 0.000220019 1.27635e+08)
(2.25669e+08 -1.48142e+07 0.000201223 5.58596e+07 0.000273041 1.32389e+08)
(2.21502e+08 -2.00196e+07 0.000115952 5.16437e+07 0.000253935 1.26068e+08)
(2.29065e+08 -1.36216e+07 9.75596e-05 5.76922e+07 0.000265205 1.30828e+08)
(2.24294e+08 -1.92327e+07 -0.000108994 5.29482e+07 0.000185874 1.23934e+08)
(2.32053e+08 -1.21762e+07 -1.45065e-05 5.93304e+07 0.00010894 1.28798e+08)
(2.26574e+08 -1.81553e+07 -9.52175e-05 5.38574e+07 9.20519e-05 1.21384e+08)
(2.3463e+08 -1.04941e+07 4.52306e-05 6.07573e+07 1.47841e-05 1.26435e+08)
(2.28323e+08 -1.67723e+07 -2.97888e-05 5.43586e+07 8.56462e-05 1.18389e+08)
(2.36776e+08 -8.57108e+06 -4.69941e-05 6.19653e+07 3.2912e-05 1.23723e+08)
(2.29583e+08 -1.51e+07 -2.58577e-05 5.44665e+07 0.000166955 1.15135e+08)
(2.38487e+08 -6.44687e+06 3.44977e-05 6.29308e+07 0.000141686 1.20794e+08)
(2.30376e+08 -1.31529e+07 4.58865e-05 5.42171e+07 0.000163792 1.1164e+08)
(2.39771e+08 -4.14003e+06 6.04972e-05 6.36627e+07 9.82289e-05 1.17669e+08)
(2.30773e+08 -1.09793e+07 0.000123468 5.36618e+07 -3.80791e-05 1.08088e+08)
(2.40631e+08 -1.70884e+06 0.00024549 6.41291e+07 -1.37627e-06 1.14465e+08)
(2.30827e+08 -8.60749e+06 0.000265346 5.28723e+07 -0.000178629 1.04494e+08)
(2.41095e+08 822236 0.000365955 6.43537e+07 -0.000159502 1.11198e+08)
(2.30608e+08 -6.10811e+06 0.00034936 5.18988e+07 -0.000163172 1.0101e+08)
(2.41173e+08 3.38825e+06 0.000311828 6.42964e+07 -4.29255e-07 1.07962e+08)
(2.30182e+08 -3.49938e+06 0.00019691 5.08329e+07 0.000108235 9.76282e+07)
(2.40898e+08 5.98074e+06 1.12331e-05 6.3987e+07 0.000110489 1.04745e+08)
(2.29597e+08 -852729 4.97178e-05 4.96978e+07 0.000134214 9.44487e+07)
(2.40277e+08 8.54563e+06 9.03033e-05 6.33786e+07 4.95847e-05 1.0161e+08)
(2.28894e+08 1.82188e+06 0.000237333 4.85626e+07 -7.65979e-06 9.14176e+07)
(2.39322e+08 1.10955e+07 0.00024329 6.249e+07 -7.25713e-05 9.85079e+07)
(2.28101e+08 4.47089e+06 0.00019009 4.74276e+07 -4.852e-05 8.85853e+07)
(2.38108e+08 1.35606e+07 0.000220629 6.13625e+07 -4.59384e-05 9.54873e+07)
(2.27225e+08 7.08201e+06 0.00015751 4.63252e+07 -2.98231e-05 8.5869e+07)
(2.36797e+08 1.57891e+07 0.00013811 6.01562e+07 -9.55844e-05 9.25494e+07)
(2.26403e+08 9.67257e+06 6.97286e-05 4.53293e+07 -4.55571e-05 8.35124e+07)
(2.34172e+08 1.80679e+07 8.27881e-05 5.73403e+07 -0.000135092 8.92514e+07)
(2.25432e+08 1.2084e+07 3.11983e-05 4.43278e+07 -2.49633e-05 8.09917e+07)
(5.09896e+07 -7.75438e+06 0.000768338 103013 0.000199249 6.99089e+07)
(6.18002e+07 -2.71769e+06 0.000752585 2.17928e+06 0.000188422 7.17317e+07)
(6.18623e+07 -9.43245e+06 0.00091322 903590 0.000205279 7.42744e+07)
(7.27269e+07 -4.74228e+06 0.000726545 3.69695e+06 0.000179632 7.6636e+07)
(7.22713e+07 -1.09571e+07 0.000665809 2.01143e+06 -6.31843e-05 7.85701e+07)
(8.30654e+07 -6.6302e+06 0.00041027 5.34839e+06 0.000192299 8.13353e+07)
(8.22653e+07 -1.23574e+07 0.000394369 3.40572e+06 6.00476e-05 8.28089e+07)
(9.28387e+07 -8.39957e+06 0.000580193 7.08921e+06 0.000341121 8.58089e+07)
(9.18817e+07 -1.36538e+07 0.000631413 5.05738e+06 -5.4385e-05 8.69887e+07)
(1.02089e+08 -1.00655e+07 0.000541229 8.90209e+06 -0.0001383 9.00584e+07)
(1.01146e+08 -1.48571e+07 0.000471012 6.93359e+06 -0.000259406 9.10951e+07)
(1.10857e+08 -1.16359e+07 0.000386997 1.07778e+07 -0.000323388 9.40908e+07)
(1.10081e+08 -1.59714e+07 0.000511766 9.0062e+06 -0.000193919 9.51137e+07)
(1.19186e+08 -1.31161e+07 0.000333691 1.27137e+07 -0.000267564 9.79153e+07)
(1.18701e+08 -1.69985e+07 0.000389214 1.12478e+07 -0.000130184 9.90259e+07)
(1.2712e+08 -1.4513e+07 -4.8389e-05 1.47115e+07 -0.000101324 1.01541e+08)
(1.27025e+08 -1.79412e+07 6.76792e-05 1.3636e+07 0.000179278 1.02817e+08)
(1.34704e+08 -1.58336e+07 -0.000496397 1.67779e+07 0.000581157 1.04981e+08)
(1.35068e+08 -1.88028e+07 -0.000598809 1.61472e+07 0.000932279 1.06469e+08)
(1.41979e+08 -1.70822e+07 -0.000960195 1.89215e+07 0.0010327 1.08244e+08)
(1.42835e+08 -1.95861e+07 -0.00042743 1.87576e+07 0.00107266 1.09964e+08)
(1.48978e+08 -1.82605e+07 -0.000226529 2.11475e+07 0.000747417 1.11328e+08)
(1.50331e+08 -2.02914e+07 -8.38146e-05 2.14419e+07 0.000856091 1.13277e+08)
(1.55731e+08 -1.93684e+07 -0.00035621 2.34605e+07 0.000638671 1.14231e+08)
(1.57553e+08 -2.0918e+07 -0.000262991 2.41762e+07 0.000733948 1.16376e+08)
(1.62258e+08 -2.04044e+07 2.67282e-05 2.58568e+07 0.000575408 1.16936e+08)
(1.645e+08 -2.14617e+07 0.000108194 2.69334e+07 0.000513802 1.19229e+08)
(1.68573e+08 -2.13674e+07 0.000224692 2.83296e+07 0.00035282 1.19437e+08)
(1.71169e+08 -2.19171e+07 6.01749e-05 2.96912e+07 0.000214632 1.21812e+08)
(1.74686e+08 -2.22544e+07 7.32438e-05 3.08682e+07 0.000122905 1.21703e+08)
(1.77561e+08 -2.22785e+07 -0.000173293 3.24284e+07 7.33349e-05 1.24103e+08)
(1.80594e+08 -2.30573e+07 -0.000257022 3.3452e+07 9.71163e-05 1.23691e+08)
(1.83667e+08 -2.25334e+07 -0.000318531 3.51214e+07 3.09823e-05 1.26056e+08)
(1.86283e+08 -2.3765e+07 -0.000342891 3.60532e+07 4.41954e-05 1.25356e+08)
(1.89481e+08 -2.26642e+07 -0.000400777 3.77456e+07 -9.42073e-05 1.27631e+08)
(1.91737e+08 -2.43634e+07 -0.000338406 3.86371e+07 1.24278e-06 1.26681e+08)
(1.94999e+08 -2.2658e+07 -0.000235309 4.0285e+07 -4.93697e-05 1.28831e+08)
(1.96922e+08 -2.48328e+07 -0.00016792 4.11574e+07 5.67789e-05 1.27586e+08)
(2.0021e+08 -2.24906e+07 -7.49016e-05 4.27175e+07 8.37072e-07 1.29604e+08)
(2.01795e+08 -2.51469e+07 -2.80373e-05 4.35589e+07 -7.87681e-05 1.28009e+08)
(2.051e+08 -2.21328e+07 3.20062e-05 4.50208e+07 -0.000114312 1.29908e+08)
(2.06315e+08 -2.52771e+07 -4.38379e-05 4.57803e+07 -7.71806e-06 1.27953e+08)
(2.09669e+08 -2.1569e+07 -0.00013444 4.71845e+07 0.000134325 1.29786e+08)
(2.10421e+08 -2.51836e+07 -0.000163748 4.7747e+07 0.000134737 1.27332e+08)
(2.13893e+08 -2.07659e+07 -0.000117304 4.91875e+07 0.00013904 1.29183e+08)
(2.14062e+08 -2.48285e+07 -0.000157795 4.93885e+07 0.000127012 1.26146e+08)
(2.1776e+08 -1.97022e+07 -2.18456e-05 5.10146e+07 0.00015196 1.28122e+08)
(2.17195e+08 -2.41767e+07 -0.000189021 5.06408e+07 0.000118429 1.24425e+08)
(2.21263e+08 -1.83664e+07 -0.000129247 5.26586e+07 0.000169968 1.2666e+08)
(2.19785e+08 -2.31959e+07 -0.000355562 5.14567e+07 0.000207281 1.22165e+08)
(2.24373e+08 -1.67423e+07 -0.000307255 5.40998e+07 0.000213053 1.24783e+08)
(2.21836e+08 -2.18799e+07 -0.000227544 5.18194e+07 0.000182228 1.19503e+08)
(2.27099e+08 -1.48474e+07 -0.000106372 5.53406e+07 0.000137332 1.22634e+08)
(2.23355e+08 -2.02227e+07 6.14912e-05 5.17394e+07 9.79715e-05 1.16463e+08)
(2.29409e+08 -1.2687e+07 -3.09611e-06 5.63632e+07 0.000121935 1.20192e+08)
(2.24394e+08 -1.82595e+07 -4.52366e-05 5.12596e+07 0.000149253 1.13222e+08)
(2.31327e+08 -1.03027e+07 -5.07409e-05 5.71766e+07 0.000244174 1.17617e+08)
(2.25004e+08 -1.6015e+07 0.000149126 5.0446e+07 0.000198681 1.09838e+08)
(2.32835e+08 -7.72876e+06 0.000182232 5.77716e+07 0.000142712 1.14905e+08)
(2.25254e+08 -1.35532e+07 0.000149747 4.93759e+07 2.62752e-05 1.06438e+08)
(2.33967e+08 -5.00777e+06 7.45826e-05 5.81616e+07 -8.62423e-05 1.12169e+08)
(2.25222e+08 -1.09176e+07 0.00017527 4.81393e+07 1.76685e-05 1.03103e+08)
(2.3472e+08 -2.19729e+06 0.000244687 5.83377e+07 -0.000111322 1.09425e+08)
(2.24964e+08 -8.16674e+06 0.000267545 4.68101e+07 -8.50808e-05 9.98699e+07)
(2.35131e+08 678796 0.000273449 5.83253e+07 -0.000157555 1.0671e+08)
(2.2454e+08 -5.36229e+06 0.000256794 4.5446e+07 -9.82686e-05 9.68075e+07)
(2.35204e+08 3.5572e+06 0.000219533 5.81012e+07 5.87747e-06 1.0405e+08)
(2.23998e+08 -2.52036e+06 0.000169374 4.4117e+07 -5.50849e-05 9.38895e+07)
(2.34974e+08 6.43595e+06 0.000182109 5.77041e+07 7.44212e-05 1.01422e+08)
(2.2336e+08 301414 0.000101265 4.28319e+07 1.80251e-06 9.11417e+07)