/*--------------------------------*- C++ -*----------------------------------*\
| =========                 |                                                 |
| \\      /  F ield         | OpenFOAM: The Open Source CFD Toolbox           |
|  \\    /   O peration     | Version:  v2012                                 |
|   \\  /    A nd           | Website:  www.openfoam.com                      |
|    \\/     M anipulation  |                                                 |
\*---------------------------------------------------------------------------*/
FoamFile
{
    version     2.0;
    format      ascii;
    class       volScalarField;
    location    "1";
    object      sigmaEq;
}
// * * * * * * * * * * * * * * * * * * * * * * * * * * * * * * * * * * * * * //

dimensions      [1 -1 -2 0 0 0 0];


internalField   nonuniform List<scalar> 
181440
(
3.97971e+06
3.09782e+06
3.02721e+06
3.12154e+06
2.77678e+06
3.11744e+06
2.74598e+06
2.47296e+06
3.24324e+06
2.18418e+06
2.11727e+06
2.52251e+06
1.97178e+06
2.05423e+06
2.48609e+06
1.7767e+06
2.06445e+06
2.43466e+06
1.66256e+06
2.1189e+06
2.39306e+06
1.6582e+06
2.20594e+06
2.3759e+06
1.75684e+06
2.18154e+06
2.30853e+06
1.87662e+06
2.98033e+06
2.77376e+06
2.54536e+06
2.97393e+06
2.87446e+06
2.93503e+06
3.57169e+06
3.15291e+06
3.40865e+06
2.92831e+06
3.9013e+06
2.9895e+06
2.43576e+06
2.50044e+06
2.51827e+06
2.90529e+06
2.42707e+06
2.23933e+06
2.05455e+06
2.20533e+06
1.97714e+06
1.91757e+06
2.48141e+06
1.78878e+06
1.93902e+06
2.64415e+06
1.69748e+06
2.02429e+06
2.78075e+06
1.72404e+06
2.17678e+06
2.89269e+06
1.85737e+06
2.32887e+06
2.86656e+06
2.17862e+06
3.15982e+06
2.49669e+06
2.51859e+06
3.06492e+06
3.29665e+06
3.00746e+06
3.57965e+06
3.41742e+06
3.45073e+06
2.97472e+06
2.85793e+06
3.03359e+06
2.38963e+06
3.28669e+06
2.47263e+06
2.02879e+06
2.23215e+06
2.27257e+06
2.06757e+06
2.57579e+06
1.98903e+06
1.91171e+06
2.3581e+06
1.77739e+06
1.92186e+06
2.10187e+06
1.67148e+06
2.00749e+06
1.89986e+06
1.69858e+06
2.17695e+06
1.80109e+06
1.85294e+06
2.38389e+06
1.84747e+06
2.24537e+06
2.58436e+06
2.57524e+06
2.56172e+06
3.14961e+06
2.53362e+06
3.09824e+06
3.67241e+06
3.53536e+06
3.70746e+06
3.15849e+06
3.79975e+06
3.24769e+06
2.69269e+06
2.64071e+06
2.68272e+06
2.00391e+06
3.05586e+06
2.24662e+06
2.15149e+06
1.82846e+06
1.88722e+06
1.75381e+06
1.90953e+06
1.61469e+06
1.71094e+06
2.04383e+06
1.47966e+06
1.78169e+06
2.20944e+06
1.50449e+06
1.96307e+06
2.4148e+06
1.68838e+06
2.23537e+06
2.61488e+06
2.24918e+06
2.64083e+06
2.264e+06
2.58052e+06
3.15846e+06
2.97026e+06
3.09819e+06
3.69748e+06
3.19387e+06
3.82254e+06
3.26121e+06
3.1459e+06
3.34952e+06
2.63644e+06
2.35327e+06
2.74122e+06
2.03693e+06
1.9322e+06
2.27931e+06
1.77042e+06
1.61e+06
1.72414e+06
1.72615e+06
1.89117e+06
1.39329e+06
1.6615e+06
1.63442e+06
1.24615e+06
1.73245e+06
1.54151e+06
1.29834e+06
1.94468e+06
1.62186e+06
1.55892e+06
2.30131e+06
1.87403e+06
1.99506e+06
2.69731e+06
2.19684e+06
2.64098e+06
3.19944e+06
3.32107e+06
3.1848e+06
3.82378e+06
3.73583e+06
3.83839e+06
3.11362e+06
3.80447e+06
3.19453e+06
2.60789e+06
3.09513e+06
2.71403e+06
2.04315e+06
2.94779e+06
2.22813e+06
1.71822e+06
2.51927e+06
1.88427e+06
1.71069e+06
1.41947e+06
1.55677e+06
1.69248e+06
1.24699e+06
1.45484e+06
1.78907e+06
1.30299e+06
1.51544e+06
2.00744e+06
1.53695e+06
1.73763e+06
2.36639e+06
1.91623e+06
2.1119e+06
2.73933e+06
2.46712e+06
2.653e+06
3.18663e+06
2.67049e+06
3.18853e+06
3.81742e+06
3.31467e+06
3.94542e+06
3.1875e+06
3.13914e+06
3.22645e+06
2.6689e+06
2.51675e+06
2.77368e+06
2.07054e+06
1.92835e+06
2.25324e+06
1.73033e+06
1.48169e+06
1.89219e+06
1.36206e+06
1.26572e+06
1.56111e+06
1.26318e+06
1.19806e+06
1.43775e+06
1.38619e+06
1.26349e+06
1.50141e+06
1.69446e+06
1.53721e+06
1.74231e+06
2.12385e+06
1.96107e+06
2.1217e+06
2.68592e+06
2.52692e+06
2.70065e+06
3.27101e+06
3.16801e+06
3.29689e+06
3.9233e+06
3.83638e+06
3.81373e+06
3.10794e+06
3.92795e+06
3.12837e+06
2.51108e+06
3.25244e+06
2.59263e+06
1.97249e+06
2.89944e+06
2.11258e+06
1.56859e+06
2.48689e+06
1.75207e+06
1.30318e+06
2.06459e+06
1.48547e+06
1.20686e+06
1.90627e+06
1.33903e+06
1.34976e+06
1.71336e+06
1.42198e+06
1.67767e+06
1.70158e+06
1.6973e+06
2.11946e+06
1.87067e+06
2.11603e+06
2.63498e+06
2.19949e+06
2.64045e+06
3.24289e+06
2.65983e+06
3.25889e+06
3.85486e+06
3.33629e+06
3.9081e+06
3.18923e+06
3.20669e+06
3.20773e+06
2.588e+06
2.65283e+06
2.6379e+06
2.02089e+06
2.07921e+06
2.11971e+06
1.58317e+06
1.61385e+06
1.71209e+06
1.29337e+06
1.25625e+06
1.41136e+06
1.13835e+06
1.19143e+06
1.2847e+06
1.3284e+06
1.45593e+06
1.41057e+06
1.70002e+06
1.8412e+06
1.72848e+06
2.17149e+06
2.29531e+06
2.17616e+06
2.71821e+06
2.78805e+06
2.73137e+06
3.33731e+06
3.36798e+06
3.35949e+06
3.96497e+06
3.91185e+06
3.83678e+06
3.13118e+06
3.84404e+06
3.16509e+06
2.56053e+06
3.2635e+06
2.61045e+06
2.01649e+06
2.79607e+06
2.11483e+06
1.5707e+06
2.35959e+06
1.69464e+06
1.25786e+06
1.97264e+06
1.35412e+06
1.19799e+06
1.56921e+06
1.29771e+06
1.39291e+06
1.49815e+06
1.4249e+06
1.73806e+06
1.57672e+06
1.72527e+06
2.17328e+06
1.82065e+06
2.14786e+06
2.67723e+06
2.21047e+06
2.66198e+06
3.24231e+06
2.71949e+06
3.24679e+06
3.84273e+06
3.35983e+06
3.92644e+06
3.2007e+06
3.19885e+06
3.22493e+06
2.59139e+06
2.60595e+06
2.63629e+06
2.01777e+06
2.05724e+06
2.11284e+06
1.55081e+06
1.64408e+06
1.67512e+06
1.25634e+06
1.40657e+06
1.35419e+06
1.38023e+06
1.15368e+06
1.25023e+06
1.52109e+06
1.23521e+06
1.37541e+06
1.83909e+06
1.55964e+06
1.7014e+06
2.26582e+06
2.01752e+06
2.16355e+06
2.76762e+06
2.57123e+06
2.71592e+06
3.32654e+06
3.1808e+06
3.33074e+06
3.92817e+06
3.83145e+06
3.76707e+06
3.0757e+06
3.79466e+06
3.09097e+06
2.49937e+06
3.12367e+06
2.5618e+06
2.00291e+06
2.62657e+06
2.1015e+06
1.61512e+06
2.17815e+06
1.73831e+06
1.38157e+06
1.81125e+06
1.51803e+06
1.3716e+06
1.62707e+06
1.4042e+06
1.51226e+06
1.50046e+06
1.49415e+06
1.81478e+06
1.57294e+06
1.75812e+06
2.23309e+06
1.82756e+06
2.16071e+06
2.698e+06
2.22209e+06
2.65399e+06
3.23549e+06
2.73584e+06
3.22463e+06
3.80417e+06
3.34975e+06
3.86517e+06
3.15771e+06
3.21257e+06
3.16778e+06
2.59383e+06
2.65656e+06
2.6022e+06
2.10382e+06
2.11964e+06
2.09777e+06
1.72637e+06
1.65664e+06
1.67369e+06
1.49798e+06
1.30741e+06
1.37303e+06
1.22734e+06
1.42786e+06
1.27098e+06
1.4111e+06
1.618e+06
1.40242e+06
1.76746e+06
1.91768e+06
1.72038e+06
2.22786e+06
2.29334e+06
2.16482e+06
2.81071e+06
2.58087e+06
2.70295e+06
3.32517e+06
3.16548e+06
3.30506e+06
3.87406e+06
3.78284e+06
3.73042e+06
3.06383e+06
3.71645e+06
3.10816e+06
2.53858e+06
3.09049e+06
2.60022e+06
2.07732e+06
2.59239e+06
2.1722e+06
1.72981e+06
2.16003e+06
1.82836e+06
1.53873e+06
1.8126e+06
1.59053e+06
1.4977e+06
1.54275e+06
1.51747e+06
1.65079e+06
1.49689e+06
1.6032e+06
1.92536e+06
1.6133e+06
1.83712e+06
2.27848e+06
1.88035e+06
2.18398e+06
2.73873e+06
2.2628e+06
2.65843e+06
3.2361e+06
2.76106e+06
3.2019e+06
3.75648e+06
3.33705e+06
3.82974e+06
3.1375e+06
3.21356e+06
3.16359e+06
2.56725e+06
2.68348e+06
2.61569e+06
2.0573e+06
2.23888e+06
2.14264e+06
1.6608e+06
1.92003e+06
1.75632e+06
1.44301e+06
1.73846e+06
1.4971e+06
1.37645e+06
1.72988e+06
1.4008e+06
1.54179e+06
1.83015e+06
1.50044e+06
1.85405e+06
2.05025e+06
1.77763e+06
2.25887e+06
2.37137e+06
2.18366e+06
2.77349e+06
2.74262e+06
2.7104e+06
3.30651e+06
3.23269e+06
3.28557e+06
3.84033e+06
3.74603e+06
3.67676e+06
3.0306e+06
3.6385e+06
3.07728e+06
2.52913e+06
3.00839e+06
2.61574e+06
2.12948e+06
2.52908e+06
2.24342e+06
1.85195e+06
2.12603e+06
1.9589e+06
1.7114e+06
1.81576e+06
1.77917e+06
1.71813e+06
1.63519e+06
1.71573e+06
1.85929e+06
1.60482e+06
1.77809e+06
2.09892e+06
1.72368e+06
1.96689e+06
2.42351e+06
1.97703e+06
2.26972e+06
2.79615e+06
2.33595e+06
2.67933e+06
3.23455e+06
2.79669e+06
3.17513e+06
3.72169e+06
3.3252e+06
3.78249e+06
3.1142e+06
3.22108e+06
3.13825e+06
2.55701e+06
2.72733e+06
2.6253e+06
2.09704e+06
2.35064e+06
2.19796e+06
1.76285e+06
2.09525e+06
1.86443e+06
1.59157e+06
1.95205e+06
1.65932e+06
1.57245e+06
1.97034e+06
1.57153e+06
1.73563e+06
2.0426e+06
1.65791e+06
2.02497e+06
2.21693e+06
1.90194e+06
2.39833e+06
2.47024e+06
2.25818e+06
2.9545e+06
2.63467e+06
2.72257e+06
3.36203e+06
3.13482e+06
3.27687e+06
3.85278e+06
3.70428e+06
3.63221e+06
3.00943e+06
3.55951e+06
3.06826e+06
2.54561e+06
2.95712e+06
2.66597e+06
2.2082e+06
2.50204e+06
2.35141e+06
1.99538e+06
2.13887e+06
2.12468e+06
1.89841e+06
1.88131e+06
2.00027e+06
1.95775e+06
1.76109e+06
1.94781e+06
2.09246e+06
1.76367e+06
1.99544e+06
2.29552e+06
1.89011e+06
2.14392e+06
2.55203e+06
2.12741e+06
2.3934e+06
2.91676e+06
2.46111e+06
2.75506e+06
3.30305e+06
2.88415e+06
3.21409e+06
3.73739e+06
3.39515e+06
3.77534e+06
3.13486e+06
3.2913e+06
3.17296e+06
2.7057e+06
2.77807e+06
2.69979e+06
2.38866e+06
2.35574e+06
2.3032e+06
2.19539e+06
2.01891e+06
1.98541e+06
2.11468e+06
1.77278e+06
1.76408e+06
1.73753e+06
2.11888e+06
1.72586e+06
1.91222e+06
2.23809e+06
1.81718e+06
2.17478e+06
2.40113e+06
2.03466e+06
2.50647e+06
2.62058e+06
2.37113e+06
2.94209e+06
2.91033e+06
2.80945e+06
3.39104e+06
3.28349e+06
3.32932e+06
3.85023e+06
3.71243e+06
3.64469e+06
3.03033e+06
3.51937e+06
3.13516e+06
2.61215e+06
2.95348e+06
2.76987e+06
2.32856e+06
2.51991e+06
2.50687e+06
2.18123e+06
2.19991e+06
2.32676e+06
2.16957e+06
1.99427e+06
2.21765e+06
2.18641e+06
1.90397e+06
2.18555e+06
2.33164e+06
1.94136e+06
2.22958e+06
2.5238e+06
2.08096e+06
2.35262e+06
2.76424e+06
2.31309e+06
2.56545e+06
3.06511e+06
2.6331e+06
2.87605e+06
3.41018e+06
3.02439e+06
3.29899e+06
3.821e+06
3.49954e+06
3.81191e+06
3.15881e+06
3.37869e+06
3.21605e+06
2.63993e+06
2.96981e+06
2.75985e+06
2.25568e+06
2.69918e+06
2.40868e+06
2.02759e+06
2.54638e+06
2.16108e+06
1.98343e+06
2.49086e+06
2.02611e+06
1.97782e+06
2.5071e+06
1.97414e+06
2.14655e+06
2.55965e+06
2.04541e+06
2.39672e+06
2.66965e+06
2.23673e+06
2.71533e+06
2.84106e+06
2.54113e+06
3.0965e+06
3.083e+06
2.94339e+06
3.52618e+06
3.40098e+06
3.45357e+06
4.01938e+06
3.81609e+06
3.7341e+06
3.10468e+06
3.53781e+06
3.23625e+06
2.70318e+06
2.95687e+06
2.90779e+06
2.46886e+06
2.54864e+06
2.69005e+06
2.37972e+06
2.27491e+06
2.55803e+06
2.40134e+06
2.12918e+06
2.48828e+06
2.47511e+06
2.09188e+06
2.47672e+06
2.62079e+06
2.15878e+06
2.51559e+06
2.80087e+06
2.31391e+06
2.61685e+06
3.02119e+06
2.54898e+06
2.79854e+06
3.29413e+06
2.86344e+06
3.0823e+06
3.63546e+06
3.26346e+06
3.50548e+06
4.08167e+06
3.77336e+06
4.02615e+06
3.38589e+06
3.58992e+06
3.40628e+06
2.99443e+06
3.0767e+06
2.95316e+06
2.77306e+06
2.68482e+06
2.61375e+06
2.68995e+06
2.41206e+06
2.37772e+06
2.70467e+06
2.25515e+06
2.2349e+06
2.78034e+06
2.187e+06
2.19019e+06
2.90855e+06
2.23674e+06
2.24803e+06
3.07353e+06
2.38234e+06
2.41695e+06
3.27955e+06
2.62801e+06
2.70271e+06
3.55275e+06
2.97882e+06
3.1187e+06
3.92938e+06
3.44596e+06
3.70707e+06
4.48277e+06
4.0806e+06
3.86502e+06
3.30508e+06
3.66751e+06
3.32284e+06
2.95167e+06
3.22167e+06
2.90729e+06
2.74737e+06
2.95909e+06
2.5864e+06
2.67106e+06
2.82088e+06
2.35917e+06
2.70695e+06
2.77549e+06
2.23827e+06
2.76811e+06
2.80251e+06
2.18046e+06
2.88656e+06
2.85673e+06
2.22851e+06
3.03853e+06
2.94614e+06
2.38365e+06
3.22864e+06
3.08191e+06
2.65371e+06
3.48243e+06
3.28287e+06
3.05124e+06
3.83143e+06
3.59272e+06
3.61706e+06
4.37021e+06
4.1036e+06
3.81756e+06
3.33496e+06
3.83235e+06
3.29349e+06
2.59109e+06
2.68987e+06
2.65705e+06
2.5894e+06
3.09467e+06
2.53425e+06
1.85629e+06
2.01124e+06
2.40037e+06
1.67764e+06
1.97566e+06
2.33199e+06
1.69529e+06
1.993e+06
2.27305e+06
1.80458e+06
2.04976e+06
2.26397e+06
2.00509e+06
2.1767e+06
2.3053e+06
2.27806e+06
2.3947e+06
2.13059e+06
2.92033e+06
2.9649e+06
2.63079e+06
3.04885e+06
3.03755e+06
3.00851e+06
3.64999e+06
3.28778e+06
3.61198e+06
3.11358e+06
3.21963e+06
3.10726e+06
2.55162e+06
3.37169e+06
2.6981e+06
2.57225e+06
2.33525e+06
2.28562e+06
1.69276e+06
2.88835e+06
1.99646e+06
1.58732e+06
2.72554e+06
1.91532e+06
1.66113e+06
2.61371e+06
1.87316e+06
1.80579e+06
2.48586e+06
1.92394e+06
2.03053e+06
2.37286e+06
2.07132e+06
2.36391e+06
2.32572e+06
2.31979e+06
3.06758e+06
2.45771e+06
2.54481e+06
3.06269e+06
2.64959e+06
3.04608e+06
3.56472e+06
3.3589e+06
3.71082e+06
3.12214e+06
3.07046e+06
3.15084e+06
2.52934e+06
2.27434e+06
2.67668e+06
2.00997e+06
1.8276e+06
2.30016e+06
1.66247e+06
1.51831e+06
1.96835e+06
1.36694e+06
1.57591e+06
1.90006e+06
1.42749e+06
1.64087e+06
1.88376e+06
1.63044e+06
1.78142e+06
1.97032e+06
1.92463e+06
2.01131e+06
2.14559e+06
2.28235e+06
2.34646e+06
2.38065e+06
2.58088e+06
2.50417e+06
2.63196e+06
3.17326e+06
3.26235e+06
3.16508e+06
3.58235e+06
3.49311e+06
3.72316e+06
3.08994e+06
3.73752e+06
3.12177e+06
2.52134e+06
3.48914e+06
2.63786e+06
2.01304e+06
2.98195e+06
2.20289e+06
1.58413e+06
2.85261e+06
1.82591e+06
1.4393e+06
2.54525e+06
1.69057e+06
1.43631e+06
2.44513e+06
1.62206e+06
1.56798e+06
2.26946e+06
1.68425e+06
1.81724e+06
2.16441e+06
1.87112e+06
2.13579e+06
2.17028e+06
2.10911e+06
2.61233e+06
2.3052e+06
2.62877e+06
3.11683e+06
2.67491e+06
3.11373e+06
3.7873e+06
3.24188e+06
3.81292e+06
3.16603e+06
3.2389e+06
3.20117e+06
2.56868e+06
2.65592e+06
2.68981e+06
2.04065e+06
1.94532e+06
2.23186e+06
1.57765e+06
1.52507e+06
1.82934e+06
1.37777e+06
1.3838e+06
1.64559e+06
1.36368e+06
1.43021e+06
1.5682e+06
1.51003e+06
1.68318e+06
1.6412e+06
1.79744e+06
2.03498e+06
1.86142e+06
2.18322e+06
2.45198e+06
2.16142e+06
2.68996e+06
2.82743e+06
2.7131e+06
3.18316e+06
3.29543e+06
3.18581e+06
3.89344e+06
3.79868e+06
3.78822e+06
3.27791e+06
3.86294e+06
3.2956e+06
2.50712e+06
3.62465e+06
2.56914e+06
2.03544e+06
2.85458e+06
2.17791e+06
1.6286e+06
2.55888e+06
1.82819e+06
1.24506e+06
2.14192e+06
1.43497e+06
1.20691e+06
2.01718e+06
1.37598e+06
1.36372e+06
1.85932e+06
1.46762e+06
1.68014e+06
1.82275e+06
1.72452e+06
2.10197e+06
1.93788e+06
2.11213e+06
2.63113e+06
2.19436e+06
2.64728e+06
3.12858e+06
2.67107e+06
3.13793e+06
3.71982e+06
3.19436e+06
3.89119e+06
3.35905e+06
3.28281e+06
3.37572e+06
2.56211e+06
2.51496e+06
2.62544e+06
2.0659e+06
1.91047e+06
2.20717e+06
1.62864e+06
1.48103e+06
1.83129e+06
1.2049e+06
1.24948e+06
1.40523e+06
1.15137e+06
1.29548e+06
1.33431e+06
1.32267e+06
1.52015e+06
1.43856e+06
1.67177e+06
1.88326e+06
1.72544e+06
2.12981e+06
2.32307e+06
2.147e+06
2.68445e+06
2.80087e+06
2.709e+06
3.2161e+06
3.35382e+06
3.23007e+06
3.83148e+06
3.79877e+06
3.84622e+06
3.17723e+06
3.77333e+06
3.16406e+06
2.58219e+06
3.47542e+06
2.63516e+06
2.03197e+06
2.83514e+06
2.15016e+06
1.58779e+06
2.48414e+06
1.74627e+06
1.28363e+06
2.19573e+06
1.43543e+06
1.17143e+06
1.77846e+06
1.3149e+06
1.32449e+06
1.6484e+06
1.40116e+06
1.66111e+06
1.64985e+06
1.6836e+06
2.10312e+06
1.83002e+06
2.10391e+06
2.6258e+06
2.17952e+06
2.62877e+06
3.18595e+06
2.67792e+06
3.20349e+06
3.80715e+06
3.30399e+06
3.93661e+06
3.23766e+06
3.26808e+06
3.2223e+06
2.62465e+06
2.60196e+06
2.67543e+06
2.04515e+06
2.00032e+06
2.16108e+06
1.56381e+06
1.54066e+06
1.72454e+06
1.22369e+06
1.27479e+06
1.3844e+06
1.09759e+06
1.2292e+06
1.2565e+06
1.27295e+06
1.43773e+06
1.36157e+06
1.64596e+06
1.80532e+06
1.6781e+06
2.12039e+06
2.25184e+06
2.13012e+06
2.66856e+06
2.74028e+06
2.68123e+06
3.25873e+06
3.28903e+06
3.28334e+06
3.89578e+06
3.813e+06
3.80112e+06
3.19731e+06
3.86276e+06
3.18079e+06
2.56831e+06
3.21323e+06
2.61353e+06
2.01928e+06
2.75707e+06
2.11272e+06
1.57661e+06
2.32227e+06
1.6988e+06
1.28537e+06
1.94452e+06
1.40451e+06
1.21485e+06
1.61107e+06
1.30676e+06
1.38541e+06
1.50164e+06
1.41487e+06
1.72063e+06
1.56191e+06
1.70686e+06
2.15179e+06
1.80185e+06
2.12695e+06
2.64804e+06
2.19235e+06
2.63118e+06
3.19143e+06
2.69522e+06
3.19703e+06
3.77635e+06
3.31329e+06
3.88403e+06
3.26129e+06
3.26713e+06
3.2396e+06
2.60717e+06
2.63624e+06
2.6472e+06
2.02261e+06
2.07209e+06
2.11235e+06
1.54575e+06
1.64991e+06
1.66871e+06
1.22224e+06
1.40454e+06
1.34813e+06
1.13974e+06
1.39036e+06
1.24157e+06
1.32892e+06
1.55611e+06
1.36753e+06
1.69554e+06
1.8679e+06
1.69186e+06
2.16039e+06
2.26872e+06
2.14733e+06
2.68288e+06
2.72416e+06
2.67952e+06
3.25689e+06
3.24358e+06
3.27505e+06
3.86909e+06
3.77397e+06
3.72481e+06
3.13527e+06
3.74093e+06
3.12409e+06
2.52781e+06
3.13582e+06
2.57609e+06
2.02319e+06
2.63812e+06
2.11436e+06
1.63457e+06
2.18723e+06
1.74537e+06
1.39861e+06
1.82341e+06
1.49606e+06
1.36126e+06
1.56899e+06
1.39725e+06
1.51374e+06
1.47575e+06
1.49547e+06
1.81405e+06
1.55991e+06
1.75849e+06
2.21149e+06
1.82093e+06
2.14995e+06
2.67086e+06
2.22129e+06
2.6295e+06
3.19169e+06
2.72082e+06
3.17975e+06
3.73989e+06
3.30036e+06
3.81898e+06
3.2097e+06
3.25639e+06
3.19208e+06
2.566e+06
2.65099e+06
2.60687e+06
2.01796e+06
2.14311e+06
2.10306e+06
1.57881e+06
1.77223e+06
1.68856e+06
1.2944e+06
1.55302e+06
1.39756e+06
1.2389e+06
1.51066e+06
1.28443e+06
1.41643e+06
1.64329e+06
1.40735e+06
1.76299e+06
1.91988e+06
1.71834e+06
2.2052e+06
2.28691e+06
2.15667e+06
2.7105e+06
2.73062e+06
2.68277e+06
3.26617e+06
3.22269e+06
3.268e+06
3.84149e+06
3.73449e+06
3.68113e+06
3.10574e+06
3.65934e+06
3.11302e+06
2.53572e+06
3.08608e+06
2.59775e+06
2.07793e+06
2.57927e+06
2.17402e+06
1.73967e+06
2.14195e+06
1.84077e+06
1.55082e+06
1.79587e+06
1.62072e+06
1.53694e+06
1.56261e+06
1.54213e+06
1.67635e+06
1.49973e+06
1.6213e+06
1.93845e+06
1.61375e+06
1.84565e+06
2.28964e+06
1.87999e+06
2.19048e+06
2.71252e+06
2.2636e+06
2.63546e+06
3.19386e+06
2.74323e+06
3.15799e+06
3.70488e+06
3.29626e+06
3.78375e+06
3.1837e+06
3.25608e+06
3.17779e+06
2.5686e+06
2.69945e+06
2.61778e+06
2.05968e+06
2.25214e+06
2.14602e+06
1.66668e+06
1.939e+06
1.76432e+06
1.43271e+06
1.76408e+06
1.50517e+06
1.40309e+06
1.7383e+06
1.41279e+06
1.56649e+06
1.84205e+06
1.51738e+06
1.87444e+06
2.05869e+06
1.79228e+06
2.27621e+06
2.36422e+06
2.19237e+06
2.7423e+06
2.74069e+06
2.68231e+06
3.26221e+06
3.18773e+06
3.24287e+06
3.80434e+06
3.67919e+06
3.6208e+06
3.05984e+06
3.57512e+06
3.08809e+06
2.53845e+06
3.01749e+06
2.62546e+06
2.1392e+06
2.5266e+06
2.25612e+06
1.86945e+06
2.12409e+06
1.9797e+06
1.74084e+06
1.82285e+06
1.80627e+06
1.75497e+06
1.64637e+06
1.74359e+06
1.88799e+06
1.61626e+06
1.80505e+06
2.11665e+06
1.73864e+06
1.98822e+06
2.42147e+06
1.99171e+06
2.28208e+06
2.78635e+06
2.34905e+06
2.67461e+06
3.21434e+06
2.79497e+06
3.15202e+06
3.68757e+06
3.31294e+06
3.7328e+06
3.14545e+06
3.25423e+06
3.1543e+06
2.57336e+06
2.74561e+06
2.64113e+06
2.11056e+06
2.37495e+06
2.21298e+06
1.77524e+06
2.12451e+06
1.87901e+06
1.59667e+06
1.9951e+06
1.66183e+06
1.59925e+06
1.99317e+06
1.58915e+06
1.75777e+06
2.06969e+06
1.67849e+06
2.03474e+06
2.2406e+06
1.91653e+06
2.39527e+06
2.49139e+06
2.27365e+06
2.8219e+06
2.8251e+06
2.73305e+06
3.30246e+06
3.2181e+06
3.26561e+06
3.82336e+06
3.66679e+06
3.57856e+06
3.02745e+06
3.49483e+06
3.08478e+06
2.55223e+06
2.96034e+06
2.67579e+06
2.21849e+06
2.50149e+06
2.36724e+06
2.0204e+06
2.14612e+06
2.15121e+06
1.95132e+06
1.90169e+06
2.02443e+06
2.00471e+06
1.78039e+06
1.97998e+06
2.12633e+06
1.7825e+06
2.02858e+06
2.32491e+06
1.91081e+06
2.17172e+06
2.58347e+06
2.14586e+06
2.41118e+06
2.90696e+06
2.4717e+06
2.75382e+06
3.28345e+06
2.88321e+06
3.19132e+06
3.71525e+06
3.37023e+06
3.71702e+06
3.13638e+06
3.3023e+06
3.16686e+06
2.58831e+06
2.84512e+06
2.68503e+06
2.16933e+06
2.53125e+06
2.29846e+06
1.88671e+06
2.33703e+06
2.00796e+06
1.75849e+06
2.24454e+06
1.82887e+06
1.79829e+06
2.23325e+06
1.77257e+06
1.95115e+06
2.30299e+06
1.85555e+06
2.20898e+06
2.44481e+06
2.0668e+06
2.54127e+06
2.65174e+06
2.39094e+06
2.94079e+06
2.92765e+06
2.81722e+06
3.38541e+06
3.27493e+06
3.32432e+06
3.87024e+06
3.68965e+06
3.59101e+06
3.03784e+06
3.44897e+06
3.13465e+06
2.60974e+06
2.94053e+06
2.77628e+06
2.33869e+06
2.51431e+06
2.52461e+06
2.2064e+06
2.20485e+06
2.35945e+06
2.18949e+06
2.01285e+06
2.2665e+06
2.25498e+06
1.93908e+06
2.23991e+06
2.38357e+06
1.97577e+06
2.27947e+06
2.56504e+06
2.11393e+06
2.39352e+06
2.7939e+06
2.34107e+06
2.59232e+06
3.07572e+06
2.65028e+06
2.88915e+06
3.41092e+06
3.03766e+06
3.29227e+06
3.80799e+06
3.50016e+06
3.75768e+06
3.17817e+06
3.41772e+06
3.23052e+06
2.64705e+06
3.00582e+06
2.77302e+06
2.26452e+06
2.73679e+06
2.42303e+06
2.0379e+06
2.58638e+06
2.1778e+06
1.96671e+06
2.52855e+06
2.03822e+06
2.02179e+06
2.53572e+06
2.00344e+06
2.18341e+06
2.60135e+06
2.08008e+06
2.42882e+06
2.71135e+06
2.26849e+06
2.74095e+06
2.87396e+06
2.56448e+06
3.11386e+06
3.09901e+06
2.96368e+06
3.54214e+06
3.39452e+06
3.4631e+06
4.02688e+06
3.7705e+06
3.62858e+06
3.10191e+06
3.43465e+06
3.2442e+06
2.71903e+06
2.95112e+06
2.934e+06
2.49941e+06
2.55565e+06
2.72591e+06
2.41745e+06
2.29016e+06
2.60052e+06
2.43672e+06
2.14779e+06
2.53437e+06
2.52527e+06
2.12394e+06
2.52072e+06
2.66252e+06
2.19007e+06
2.55711e+06
2.83284e+06
2.34043e+06
2.65028e+06
3.03958e+06
2.56778e+06
2.81634e+06
3.29308e+06
2.87159e+06
3.07963e+06
3.60522e+06
3.25808e+06
3.46309e+06
3.99053e+06
3.73407e+06
3.92098e+06
3.38933e+06
3.5759e+06
3.42476e+06
3.02509e+06
3.10133e+06
2.98684e+06
2.81983e+06
2.72509e+06
2.65111e+06
2.74456e+06
2.4542e+06
2.41577e+06
2.76597e+06
2.29065e+06
2.28751e+06
2.84863e+06
2.24206e+06
2.22885e+06
2.96998e+06
2.27387e+06
2.28281e+06
3.12223e+06
2.40843e+06
2.44626e+06
3.31901e+06
2.64257e+06
2.72443e+06
3.57763e+06
2.97963e+06
3.13104e+06
3.93457e+06
3.42624e+06
3.69245e+06
4.4628e+06
4.00942e+06
3.8101e+06
3.30659e+06
3.6133e+06
3.342e+06
2.95573e+06
3.24279e+06
2.91647e+06
2.76294e+06
2.97999e+06
2.59319e+06
2.69526e+06
2.83921e+06
2.36833e+06
2.67278e+06
2.79558e+06
2.20386e+06
2.79433e+06
2.78489e+06
2.19399e+06
2.90678e+06
2.89825e+06
2.25479e+06
3.07426e+06
2.99746e+06
2.4038e+06
3.26096e+06
3.13008e+06
2.66335e+06
3.49994e+06
3.32565e+06
3.04878e+06
3.83577e+06
3.62323e+06
3.5825e+06
4.29219e+06
4.10082e+06
3.84999e+06
3.29016e+06
3.85041e+06
3.25525e+06
2.652e+06
3.34381e+06
2.56926e+06
2.568e+06
2.90461e+06
2.34021e+06
2.02907e+06
2.7185e+06
1.88668e+06
1.91222e+06
2.42107e+06
1.65415e+06
1.92054e+06
2.31953e+06
1.52594e+06
1.99939e+06
2.27226e+06
1.56141e+06
2.16584e+06
2.30545e+06
1.76872e+06
2.47581e+06
2.43208e+06
2.18233e+06
2.85681e+06
2.85694e+06
2.44681e+06
3.1902e+06
2.84727e+06
3.1923e+06
3.74997e+06
3.42564e+06
3.71659e+06
3.21168e+06
3.31635e+06
3.18824e+06
2.84514e+06
2.83203e+06
2.75557e+06
2.57338e+06
2.3455e+06
2.32701e+06
2.27264e+06
1.96567e+06
2.0421e+06
2.27618e+06
1.78568e+06
2.00002e+06
2.23418e+06
1.66008e+06
1.80678e+06
2.26857e+06
1.64101e+06
1.78474e+06
2.37195e+06
1.7582e+06
1.89703e+06
2.55689e+06
2.00706e+06
2.12006e+06
2.96145e+06
2.37489e+06
2.52677e+06
3.11859e+06
2.82527e+06
2.99075e+06
3.66586e+06
3.48491e+06
3.83932e+06
3.22662e+06
3.24168e+06
3.25384e+06
2.71167e+06
2.42276e+06
2.80205e+06
2.07152e+06
1.87017e+06
2.35579e+06
1.8582e+06
1.50365e+06
2.06301e+06
1.74671e+06
1.40198e+06
2.03679e+06
1.65888e+06
1.43986e+06
1.85082e+06
1.72498e+06
1.675e+06
1.8452e+06
1.91551e+06
1.98534e+06
1.96868e+06
2.20115e+06
2.33861e+06
2.19055e+06
2.58691e+06
2.76642e+06
2.57731e+06
3.05785e+06
3.22448e+06
3.07233e+06
3.72277e+06
3.67161e+06
3.80736e+06
3.23578e+06
3.8301e+06
3.24144e+06
2.57187e+06
3.43445e+06
2.65024e+06
2.01252e+06
3.04605e+06
2.20646e+06
1.64049e+06
2.73898e+06
1.87997e+06
1.39069e+06
2.35628e+06
2.00151e+06
1.57482e+06
1.59191e+06
1.83781e+06
1.69587e+06
1.53632e+06
1.85162e+06
1.93837e+06
1.6584e+06
2.00238e+06
2.27634e+06
1.91409e+06
2.25662e+06
2.71072e+06
2.27425e+06
2.67285e+06
3.2231e+06
2.75766e+06
3.20383e+06
3.84799e+06
3.30992e+06
3.8814e+06
3.29346e+06
3.25478e+06
3.30161e+06
2.61325e+06
2.4045e+06
2.68948e+06
2.03434e+06
1.87905e+06
2.22934e+06
1.63427e+06
1.48576e+06
1.87864e+06
1.34821e+06
1.32738e+06
1.26627e+06
1.54663e+06
1.48636e+06
1.16671e+06
1.67976e+06
1.40428e+06
1.29784e+06
1.94886e+06
1.5468e+06
1.6222e+06
2.31998e+06
1.85347e+06
2.07223e+06
2.77613e+06
2.24382e+06
2.64824e+06
3.30514e+06
2.77141e+06
3.2724e+06
3.92869e+06
3.35499e+06
3.85053e+06
3.16732e+06
3.78675e+06
3.22458e+06
2.61005e+06
3.13359e+06
2.6495e+06
2.00843e+06
2.90571e+06
2.16107e+06
1.61833e+06
2.54895e+06
1.80524e+06
1.39184e+06
2.2798e+06
1.53027e+06
1.59938e+06
1.17733e+06
1.41029e+06
1.69086e+06
1.22775e+06
1.46665e+06
1.91638e+06
1.48203e+06
1.70257e+06
2.2614e+06
1.88685e+06
2.08305e+06
2.68748e+06
2.40574e+06
2.58432e+06
3.20185e+06
3.0021e+06
3.16415e+06
3.81703e+06
3.67634e+06
3.94284e+06
3.23665e+06
3.33895e+06
3.19677e+06
2.66697e+06
3.16756e+06
2.70309e+06
2.03386e+06
1.95849e+06
2.18607e+06
1.61265e+06
1.48861e+06
1.80209e+06
1.35801e+06
1.22694e+06
1.49978e+06
1.14985e+06
1.14687e+06
1.34398e+06
1.27423e+06
1.34115e+06
1.38802e+06
1.58825e+06
1.70342e+06
1.64159e+06
2.03172e+06
2.15654e+06
2.05164e+06
2.56908e+06
2.65529e+06
2.58843e+06
3.16805e+06
3.21183e+06
3.19965e+06
3.83141e+06
3.76014e+06
3.84319e+06
3.29321e+06
3.88996e+06
3.25691e+06
2.64869e+06
2.69904e+06
2.6652e+06
2.03334e+06
2.85212e+06
2.13957e+06
1.58827e+06
2.4265e+06
1.73689e+06
1.28462e+06
2.0887e+06
1.43989e+06
1.15579e+06
1.72584e+06
1.29625e+06
1.30032e+06
1.58974e+06
1.37555e+06
1.64218e+06
1.59504e+06
1.66118e+06
2.08373e+06
1.78865e+06
2.08363e+06
2.60188e+06
2.15025e+06
2.60381e+06
3.16763e+06
2.64847e+06
3.189e+06
3.79545e+06
3.29231e+06
3.9339e+06
3.36596e+06
3.33314e+06
3.32621e+06
2.67879e+06
2.69766e+06
2.71443e+06
2.04784e+06
2.01756e+06
2.15271e+06
1.56659e+06
1.55371e+06
1.71676e+06
1.22776e+06
1.27163e+06
1.38967e+06
1.09601e+06
1.21744e+06
1.2491e+06
1.27074e+06
1.4199e+06
1.35487e+06
1.64668e+06
1.78632e+06
1.67354e+06
2.11641e+06
2.22752e+06
2.12446e+06
2.65727e+06
2.7203e+06
2.66743e+06
3.24367e+06
3.25877e+06
3.27162e+06
3.89747e+06
3.81265e+06
3.7914e+06
3.2101e+06
3.79528e+06
3.18786e+06
2.58098e+06
3.20387e+06
2.61246e+06
2.03204e+06
2.77618e+06
2.11715e+06
1.59191e+06
2.29207e+06
1.71083e+06
1.29852e+06
1.91055e+06
1.42007e+06
1.217e+06
1.60014e+06
1.29986e+06
1.37318e+06
1.47874e+06
1.40197e+06
1.70565e+06
1.53337e+06
1.68761e+06
2.12762e+06
1.77006e+06
2.10136e+06
2.62072e+06
2.16256e+06
2.60312e+06
3.15719e+06
2.66152e+06
3.16149e+06
3.73353e+06
3.2546e+06
3.87371e+06
3.27166e+06
3.28269e+06
3.24382e+06
2.60985e+06
2.65076e+06
2.63733e+06
2.03002e+06
2.07591e+06
2.11142e+06
1.5534e+06
1.65852e+06
1.67271e+06
1.22576e+06
1.40271e+06
1.35388e+06
1.1379e+06
1.36258e+06
1.23134e+06
1.32486e+06
1.53693e+06
1.36229e+06
1.69592e+06
1.85773e+06
1.68675e+06
2.15118e+06
2.24481e+06
2.13523e+06
2.67131e+06
2.70012e+06
2.66511e+06
3.23289e+06
3.20546e+06
3.24876e+06
3.83548e+06
3.74665e+06
3.71141e+06
3.12916e+06
3.70284e+06
3.11825e+06
2.54301e+06
3.13132e+06
2.58258e+06
2.03738e+06
2.63001e+06
2.12304e+06
1.64512e+06
2.17114e+06
1.75034e+06
1.40457e+06
1.80227e+06
1.49434e+06
1.36223e+06
1.5423e+06
1.39487e+06
1.51515e+06
1.45506e+06
1.4937e+06
1.80577e+06
1.54515e+06
1.74867e+06
2.19357e+06
1.80872e+06
2.13229e+06
2.65201e+06
2.2088e+06
2.6072e+06
3.16071e+06
2.70468e+06
3.1467e+06
3.70846e+06
3.26746e+06
3.80059e+06
3.19686e+06
3.24659e+06
3.17876e+06
2.57297e+06
2.65755e+06
2.60529e+06
2.02755e+06
2.15428e+06
2.10699e+06
1.5895e+06
1.78929e+06
1.69332e+06
1.30869e+06
1.57418e+06
1.40316e+06
1.25399e+06
1.53572e+06
1.29393e+06
1.42604e+06
1.66102e+06
1.41305e+06
1.75978e+06
1.92058e+06
1.71352e+06
2.1928e+06
2.27124e+06
2.14451e+06
2.69172e+06
2.69972e+06
2.66086e+06
3.23611e+06
3.18172e+06
3.23584e+06
3.81217e+06
3.702e+06
3.64879e+06
3.08556e+06
3.62493e+06
3.09347e+06
2.54159e+06
3.06388e+06
2.60007e+06
2.08659e+06
2.56625e+06
2.18252e+06
1.75525e+06
2.13256e+06
1.85641e+06
1.5735e+06
1.79029e+06
1.64299e+06
1.56082e+06
1.5663e+06
1.56542e+06
1.69564e+06
1.49973e+06
1.63651e+06
1.94715e+06
1.61451e+06
1.85323e+06
2.29191e+06
1.88023e+06
2.19057e+06
2.70259e+06
2.25966e+06
2.6218e+06
3.1687e+06
2.72935e+06
3.12973e+06
3.68931e+06
3.27929e+06
3.75065e+06
3.16238e+06
3.23843e+06
3.15761e+06
2.57405e+06
2.70415e+06
2.62012e+06
2.06754e+06
2.26974e+06
2.15359e+06
1.67943e+06
1.96215e+06
1.77688e+06
1.4507e+06
1.79095e+06
1.52246e+06
1.42393e+06
1.76276e+06
1.4326e+06
1.58629e+06
1.86209e+06
1.53287e+06
1.88563e+06
2.06898e+06
1.80216e+06
2.2813e+06
2.36652e+06
2.19518e+06
2.7393e+06
2.73823e+06
2.67621e+06
3.24629e+06
3.17137e+06
3.22507e+06
3.79846e+06
3.66312e+06
3.5839e+06
3.03558e+06
3.53395e+06
3.06886e+06
2.53754e+06
2.98968e+06
2.62556e+06
2.14671e+06
2.51503e+06
2.26564e+06
1.88744e+06
2.11942e+06
1.99886e+06
1.76842e+06
1.82575e+06
1.83257e+06
1.78597e+06
1.65623e+06
1.77404e+06
1.91486e+06
1.63069e+06
1.83265e+06
2.13746e+06
1.75448e+06
2.00889e+06
2.43224e+06
2.00299e+06
2.29043e+06
2.78676e+06
2.35141e+06
2.66736e+06
3.19852e+06
2.78394e+06
3.13038e+06
3.67267e+06
3.29256e+06
3.70172e+06
3.12403e+06
3.24165e+06
3.13724e+06
2.56924e+06
2.7572e+06
2.63793e+06
2.11242e+06
2.39045e+06
2.21668e+06
1.78533e+06
2.14807e+06
1.89013e+06
1.61612e+06
2.02587e+06
1.67984e+06
1.62152e+06
2.01524e+06
1.61071e+06
1.77889e+06
2.09716e+06
1.70029e+06
2.05134e+06
2.26214e+06
1.93316e+06
2.40611e+06
2.50526e+06
2.28267e+06
2.82175e+06
2.81953e+06
2.72595e+06
3.28891e+06
3.20128e+06
3.24558e+06
3.80815e+06
3.65226e+06
3.54673e+06
3.00408e+06
3.45329e+06
3.06986e+06
2.55448e+06
2.93383e+06
2.68145e+06
2.2328e+06
2.49411e+06
2.38524e+06
2.04705e+06
2.14825e+06
2.17921e+06
1.98782e+06
1.91242e+06
2.05828e+06
2.0358e+06
1.79741e+06
2.01897e+06
2.16252e+06
1.80621e+06
2.06539e+06
2.3553e+06
1.9347e+06
2.20009e+06
2.60473e+06
2.16404e+06
2.42722e+06
2.9098e+06
2.48155e+06
2.75143e+06
3.27236e+06
2.87881e+06
3.17329e+06
3.69998e+06
3.3512e+06
3.68866e+06
3.11387e+06
3.29408e+06
3.14918e+06
2.58805e+06
2.85366e+06
2.68642e+06
2.17902e+06
2.54971e+06
2.31077e+06
1.9101e+06
2.36698e+06
2.03235e+06
1.79519e+06
2.2861e+06
1.86263e+06
1.83185e+06
2.28727e+06
1.8138e+06
1.98791e+06
2.35522e+06
1.89289e+06
2.23913e+06
2.4863e+06
2.09484e+06
2.56283e+06
2.6808e+06
2.40753e+06
2.94669e+06
2.94007e+06
2.81875e+06
3.383e+06
3.27049e+06
3.31658e+06
3.86972e+06
3.67927e+06
3.55415e+06
3.01456e+06
3.40302e+06
3.11978e+06
2.61248e+06
2.91183e+06
2.78598e+06
2.35647e+06
2.50923e+06
2.54841e+06
2.23732e+06
2.21326e+06
2.39604e+06
2.22952e+06
2.03362e+06
2.31264e+06
2.30117e+06
1.96769e+06
2.28878e+06
2.4277e+06
2.0077e+06
2.32631e+06
2.60137e+06
2.14405e+06
2.42932e+06
2.81818e+06
2.3632e+06
2.61222e+06
3.08259e+06
2.66071e+06
2.89014e+06
3.40215e+06
3.03434e+06
3.27472e+06
3.78734e+06
3.48238e+06
3.71923e+06
3.15584e+06