/*--------------------------------*- C++ -*----------------------------------*\
| =========                 |                                                 |
| \\      /  F ield         | OpenFOAM: The Open Source CFD Toolbox           |
|  \\    /   O peration     | Version:  v2012                                 |
|   \\  /    A nd           | Website:  www.openfoam.com                      |
|    \\/     M anipulation  |                                                 |
\*---------------------------------------------------------------------------*/
FoamFile
{
    version     2.0;
    format      ascii;
    class       volVectorField;
    location    "9";
    object      D_0;
}
// * * * * * * * * * * * * * * * * * * * * * * * * * * * * * * * * * * * * * //

dimensions      [0 1 0 0 0 0 0];


internalField   nonuniform List<vector> 
8000
(
(7.9747e-05 -0.00161154 0)
(0.000145016 -0.00163508 0)
(7.39167e-05 -0.00170153 0)
(0.000133066 -0.00172606 0)
(6.93315e-05 -0.00178248 0)
(0.000125887 -0.0018067 0)
(6.58922e-05 -0.00185648 0)
(0.000120762 -0.00187917 0)
(6.30683e-05 -0.00192383 0)
(0.000116604 -0.00194472 0)
(6.06267e-05 -0.00198512 0)
(0.000112798 -0.00200407 0)
(5.82943e-05 -0.00204064 0)
(0.000108984 -0.00205749 0)
(5.59448e-05 -0.00209047 0)
(0.000104888 -0.00210508 0)
(5.33845e-05 -0.00213459 0)
(0.000100369 -0.00214682 0)
(5.05639e-05 -0.00217297 0)
(9.5347e-05 -0.0021827 0)
(4.74382e-05 -0.00220559 0)
(8.9825e-05 -0.00221277 0)
(4.39965e-05 -0.00223255 0)
(8.39389e-05 -0.00223728 0)
(4.03173e-05 -0.00225414 0)
(7.79384e-05 -0.00225667 0)
(3.66279e-05 -0.0022708 0)
(7.20232e-05 -0.00227128 0)
(3.31651e-05 -0.00228289 0)
(6.67246e-05 -0.00228216 0)
(3.06376e-05 -0.00229238 0)
(6.31467e-05 -0.00229191 0)
(2.91667e-05 -0.00230123 0)
(6.05758e-05 -0.00230066 0)
(2.81135e-05 -0.0023095 0)
(5.85062e-05 -0.00230879 0)
(2.72994e-05 -0.00231737 0)
(5.66961e-05 -0.00231663 0)
(2.68166e-05 -0.0023249 0)
(5.50297e-05 -0.00232434 0)
(0.000253954 -0.00162808 0)
(0.000310911 -0.00165971 0)
(0.000250534 -0.00170851 0)
(0.000307571 -0.00173779 0)
(0.000245893 -0.00178526 0)
(0.000301898 -0.00181234 0)
(0.000240672 -0.00185716 0)
(0.000295151 -0.00188151 0)
(0.00023496 -0.0019232 0)
(0.000287697 -0.00194475 0)
(0.000228679 -0.00198329 0)
(0.0002795 -0.00200195 0)
(0.000221796 -0.00203744 0)
(0.000270396 -0.002053 0)
(0.000214075 -0.00208557 0)
(0.000260223 -0.00209782 0)
(0.000205429 -0.00212764 0)
(0.000248858 -0.00213637 0)
(0.000195735 -0.00216364 0)
(0.000236356 -0.00216882 0)
(0.000185037 -0.00219369 0)
(0.00022296 -0.00219547 0)
(0.000173622 -0.00221815 0)
(0.000209056 -0.00221687 0)
(0.000161867 -0.00223762 0)
(0.000195093 -0.00223373 0)
(0.000150175 -0.00225258 0)
(0.000181596 -0.00224651 0)
(0.000139283 -0.00226376 0)
(0.000170143 -0.00225726 0)
(0.000130969 -0.00227362 0)
(0.000161473 -0.00226719 0)
(0.000124887 -0.00228273 0)
(0.000154888 -0.00227632 0)
(0.000120324 -0.00229129 0)
(0.000149711 -0.00228487 0)
(0.000116823 -0.00229949 0)
(0.000145459 -0.00229297 0)
(0.000114118 -0.00230746 0)
(0.000141764 -0.00230072 0)
(0.000444926 -0.00163632 0)
(0.000503011 -0.00166713 0)
(0.000435581 -0.00171762 0)
(0.000491108 -0.00174726 0)
(0.000426814 -0.0017931 0)
(0.000480329 -0.00182049 0)
(0.000417685 -0.00186276 0)
(0.000469167 -0.00188692 0)
(0.000407624 -0.001926 0)
(0.00045697 -0.00194658 0)
(0.000396417 -0.00198282 0)
(0.000443315 -0.00199946 0)
(0.00038375 -0.0020331 0)
(0.000427898 -0.00204543 0)
(0.00036943 -0.00207674 0)
(0.000410599 -0.0020845 0)
(0.000353358 -0.00211372 0)
(0.0003915 -0.00211686 0)
(0.000335669 -0.00214428 0)
(0.000370953 -0.00214303 0)
(0.000316719 -0.0021689 0)
(0.000349537 -0.00216378 0)
(0.000297168 -0.00218841 0)
(0.000327988 -0.00218013 0)
(0.000277776 -0.00220374 0)
(0.000307154 -0.00219311 0)
(0.000259442 -0.00221575 0)
(0.000288308 -0.00220392 0)
(0.000243796 -0.00222611 0)
(0.000273108 -0.00221443 0)
(0.000231618 -0.00223605 0)
(0.000261021 -0.0022244 0)
(0.000222048 -0.0022455 0)
(0.00025131 -0.00223386 0)
(0.000214431 -0.00225454 0)
(0.000243367 -0.00224286 0)
(0.000208288 -0.00226328 0)
(0.000236721 -0.00225145 0)
(0.000203257 -0.00227176 0)
(0.000230981 -0.00225963 0)
(0.000626394 -0.00165604 0)
(0.000680795 -0.0016885 0)
(0.000614413 -0.00173394 0)
(0.000666605 -0.00176396 0)
(0.000602025 -0.00180573 0)
(0.000651964 -0.00183252 0)
(0.000588597 -0.0018711 0)
(0.000636012 -0.00189359 0)
(0.000573561 -0.00192933 0)
(0.000618119 -0.00194688 0)
(0.000556456 -0.00198017 0)
(0.000597844 -0.00199229 0)
(0.000536998 -0.00202352 0)
(0.000575037 -0.00202989 0)
(0.000515086 -0.00205943 0)
(0.00054983 -0.00206004 0)
(0.000490928 -0.00208825 0)
(0.000522733 -0.00208353 0)
(0.000465128 -0.0021108 0)
(0.000494609 -0.00210162 0)
(0.000438669 -0.00212831 0)
(0.000466533 -0.00211577 0)
(0.000412643 -0.00214212 0)
(0.000439672 -0.00212738 0)
(0.000388122 -0.00215353 0)
(0.000415137 -0.00213766 0)
(0.000366314 -0.00216372 0)
(0.000394307 -0.00214793 0)
(0.000348363 -0.00217387 0)
(0.000376957 -0.00215808 0)
(0.000333608 -0.00218378 0)
(0.000362512 -0.00216794 0)
(0.000321429 -0.00219339 0)
(0.000350411 -0.00217746 0)
(0.000311308 -0.00220269 0)
(0.000340176 -0.00218662 0)
(0.000302818 -0.00221171 0)
(0.000331394 -0.0021954 0)
(0.000295588 -0.00222046 0)
(0.000323693 -0.00220375 0)
(0.000804404 -0.00167958 0)
(0.000855611 -0.00171141 0)
(0.00078786 -0.00175322 0)
(0.00083609 -0.00178168 0)
(0.000770574 -0.00181961 0)
(0.00081577 -0.00184351 0)
(0.000751571 -0.00187834 0)
(0.000793364 -0.00189627 0)
(0.000730045 -0.0019285 0)
(0.000768168 -0.00193975 0)
(0.00070556 -0.00196997 0)
(0.00073993 -0.00197423 0)
(0.000678028 -0.00200295 0)
(0.000708833 -0.00200031 0)
(0.000647755 -0.00202807 0)
(0.00067557 -0.00201931 0)
(0.000615664 -0.00204671 0)
(0.000641409 -0.00203323 0)
(0.000583088 -0.0020607 0)
(0.000607825 -0.00204416 0)
(0.00055146 -0.00207188 0)
(0.000576208 -0.00205378 0)
(0.000522066 -0.00208173 0)
(0.000547569 -0.00206302 0)
(0.000495792 -0.0020913 0)
(0.000522527 -0.00207259 0)
(0.000473167 -0.00210107 0)
(0.000500832 -0.00208225 0)
(0.000453801 -0.00211083 0)
(0.000482116 -0.00209185 0)
(0.000437253 -0.00212044 0)
(0.000465984 -0.00210127 0)
(0.000423103 -0.00212983 0)
(0.00045205 -0.00211044 0)
(0.000410964 -0.00213898 0)
(0.000439949 -0.00211931 0)
(0.00040048 -0.00214787 0)
(0.000429341 -0.00212784 0)
(0.000391308 -0.00215649 0)
(0.000419901 -0.00213597 0)
(0.000974949 -0.00170555 0)
(0.00102137 -0.00173485 0)
(0.000953031 -0.00177235 0)
(0.000995724 -0.00179652 0)
(0.000929462 -0.00183025 0)
(0.000968175 -0.00184775 0)
(0.000903114 -0.00187859 0)
(0.000937616 -0.00188813 0)
(0.000873364 -0.00191681 0)
(0.000903687 -0.00191803 0)
(0.000840086 -0.00194526 0)
(0.000866533 -0.00193843 0)
(0.000803721 -0.00196505 0)
(0.000827218 -0.0019516 0)
(0.000765613 -0.00197846 0)
(0.00078763 -0.0019608 0)
(0.000727847 -0.0019882 0)
(0.00074991 -0.0019686 0)
(0.000692108 -0.00199645 0)
(0.000715178 -0.00197621 0)
(0.000659421 -0.00200477 0)
(0.000683814 -0.00198427 0)
(0.00063001 -0.00201331 0)
(0.000655669 -0.00199261 0)
(0.000603805 -0.00202213 0)
(0.000630531 -0.00200117 0)
(0.00058064 -0.00203108 0)
(0.000608228 -0.00200983 0)
(0.000560277 -0.00204004 0)
(0.000588529 -0.00201847 0)
(0.000542429 -0.0020489 0)
(0.000571163 -0.00202701 0)
(0.000526795 -0.00205762 0)
(0.000555843 -0.00203537 0)
(0.000513073 -0.00206614 0)
(0.000542279 -0.0020435 0)
(0.000500968 -0.00207444 0)
(0.000530191 -0.00205134 0)
(0.000490177 -0.0020825 0)
(0.000519302 -0.00205883 0)
(0.00113618 -0.00172898 0)
(0.00117641 -0.00175232 0)
(0.00110705 -0.00178526 0)
(0.00114252 -0.00180096 0)
(0.00107511 -0.00183024 0)
(0.00110582 -0.00183697 0)
(0.00103955 -0.00186381 0)
(0.00106563 -0.00186097 0)
(0.00100015 -0.00188633 0)
(0.00102209 -0.00187442 0)
(0.000957478 -0.0018996 0)
(0.000976987 -0.00188155 0)
(0.000914085 -0.00190723 0)
(0.000933556 -0.00188674 0)
(0.000872688 -0.00191338 0)
(0.000893391 -0.00189225 0)
(0.000834453 -0.00191966 0)
(0.000856582 -0.00189816 0)
(0.000799457 -0.00192626 0)
(0.000822921 -0.00190442 0)
(0.000767473 -0.00193325 0)
(0.000792168 -0.00191104 0)
(0.000738405 -0.00194056 0)
(0.000764223 -0.00191798 0)
(0.000712174 -0.0019481 0)
(0.000738977 -0.00192514 0)
(0.000688637 -0.00195577 0)
(0.000716275 -0.00193242 0)
(0.000667604 -0.0019635 0)
(0.000695924 -0.00193973 0)
(0.000648854 -0.00197119 0)
(0.000677707 -0.001947 0)
(0.000632151 -0.0019788 0)
(0.000661394 -0.00195416 0)
(0.00061725 -0.00198628 0)
(0.00064675 -0.00196115 0)
(0.000603901 -0.00199359 0)
(0.000633538 -0.00196792 0)
(0.000591842 -0.0020007 0)
(0.000621524 -0.00197441 0)
(0.00128469 -0.00174288 0)
(0.0013169 -0.00175533 0)
(0.00124615 -0.00178328 0)
(0.00127301 -0.00178582 0)
(0.00120404 -0.00181065 0)
(0.00122604 -0.00180292 0)
(0.00115807 -0.00182608 0)
(0.00117611 -0.00180922 0)
(0.00110967 -0.00183231 0)
(0.00112688 -0.00181149 0)
(0.00106272 -0.00183589 0)
(0.00108112 -0.00181429 0)
(0.0010192 -0.00183959 0)
(0.00103901 -0.00181751 0)
(0.000978957 -0.00184371 0)
(0.00100011 -0.00182116 0)
(0.000941681 -0.00184829 0)
(0.000964163 -0.00182527 0)
(0.000907316 -0.00185327 0)
(0.000931061 -0.00182982 0)
(0.000875786 -0.00185862 0)
(0.000900708 -0.00183474 0)
(0.000846987 -0.00186429 0)
(0.000872984 -0.00183997 0)
(0.0008208 -0.0018702 0)
(0.000847751 -0.00184543 0)
(0.000797075 -0.00187628 0)
(0.000824856 -0.00185106 0)
(0.000775644 -0.00188246 0)
(0.000804127 -0.00185676 0)
(0.000756318 -0.00188867 0)
(0.000785378 -0.00186249 0)
(0.000738899 -0.00189486 0)
(0.000768414 -0.00186818 0)
(0.000723178 -0.00190099 0)
(0.000753033 -0.00187377 0)
(0.00070894 -0.001907 0)
(0.000739034 -0.00187921 0)
(0.000695956 -0.00191286 0)
(0.000726214 -0.00188442 0)
(0.00141655 -0.00173755 0)
(0.00143965 -0.00173475 0)
(0.00136751 -0.00175767 0)
(0.00138593 -0.00174498 0)
(0.00131532 -0.00176544 0)
(0.00133091 -0.00174526 0)
(0.00126263 -0.00176629 0)
(0.00127881 -0.00174469 0)
(0.00121338 -0.00176709 0)
(0.00123083 -0.00174478 0)
(0.00116767 -0.00176832 0)
(0.00118644 -0.00174535 0)
(0.00112513 -0.00177 0)
(0.00114527 -0.00174646 0)
(0.00108562 -0.00177215 0)
(0.00110711 -0.0017481 0)
(0.00104904 -0.00177476 0)
(0.00107184 -0.00175024 0)
(0.00101528 -0.00177781 0)
(0.0010393 -0.00175282 0)
(0.000984209 -0.00178126 0)
(0.00100938 -0.0017558 0)
(0.000955724 -0.00178504 0)
(0.000981949 -0.00175912 0)
(0.000929687 -0.00178911 0)
(0.000956855 -0.00176272 0)
(0.000905948 -0.0017934 0)
(0.00093395 -0.00176652 0)
(0.000884347 -0.00179785 0)
(0.000913074 -0.00177047 0)
(0.000864714 -0.00180238 0)
(0.000894057 -0.0017745 0)
(0.000846874 -0.00180696 0)
(0.000876727 -0.00177856 0)
(0.000830642 -0.00181154 0)
(0.000860906 -0.00178258 0)
(0.000815828 -0.00181606 0)
(0.000846416 -0.00178651 0)
(0.000802229 -0.00182048 0)
(0.000833082 -0.00179028 0)
(0.00153016 -0.00170609 0)
(0.00154594 -0.00168933 0)
(0.00147299 -0.00170673 0)
(0.00148738 -0.00168552 0)
(0.00141739 -0.00170421 0)
(0.00143276 -0.00168222 0)
(0.00136581 -0.00170218 0)
(0.00138228 -0.0016793 0)
(0.00131769 -0.00170059 0)
(0.00133544 -0.0016769 0)
(0.00127284 -0.00169947 0)
(0.00129195 -0.0016751 0)
(0.0012311 -0.00169886 0)
(0.00125158 -0.00167391 0)
(0.00119235 -0.00169879 0)
(0.00121418 -0.00167332 0)
(0.00115646 -0.00169924 0)
(0.00117957 -0.00167328 0)
(0.0011233 -0.00170018 0)
(0.00114763 -0.00167375 0)
(0.00109274 -0.00170157 0)
(0.00111821 -0.00167466 0)
(0.00106465 -0.00170335 0)
(0.00109116 -0.00167597 0)
(0.00103888 -0.00170547 0)
(0.00106633 -0.00167761 0)
(0.00101529 -0.00170786 0)
(0.00104358 -0.00167952 0)
(0.000993712 -0.00171046 0)
(0.00102275 -0.00168164 0)
(0.000973997 -0.00171322 0)
(0.00100368 -0.00168389 0)
(0.000955981 -0.00171608 0)
(0.000986225 -0.00168624 0)
(0.000939497 -0.001719 0)
(0.000970213 -0.00168861 0)
(0.000924374 -0.00172192 0)
(0.000955488 -0.00169096 0)
(0.00091043 -0.0017248 0)
(0.000941893 -0.00169322 0)
(0.00163276 -0.0016532 0)
(0.0016464 -0.00163185 0)
(0.00157469 -0.00164729 0)
(0.00158917 -0.0016252 0)
(0.0015202 -0.00164207 0)
(0.00153572 -0.0016188 0)
(0.00146937 -0.00163729 0)
(0.0014861 -0.001613 0)
(0.00142203 -0.00163303 0)
(0.00144009 -0.00160792 0)
(0.00137797 -0.00162934 0)
(0.00139742 -0.00160358 0)
(0.00133704 -0.00162629 0)
(0.00135787 -0.00159996 0)
(0.00129906 -0.00162385 0)
(0.00132124 -0.00159702 0)
(0.0012639 -0.00162203 0)
(0.00128736 -0.00159472 0)
(0.0012314 -0.00162077 0)
(0.00125607 -0.001593 0)
(0.00120143 -0.00162002 0)
(0.00122722 -0.0015918 0)
(0.00117382 -0.00161973 0)
(0.00120065 -0.00159107 0)
(0.00114844 -0.00161985 0)
(0.00117622 -0.00159073 0)
(0.00112513 -0.0016203 0)
(0.00115376 -0.00159073 0)
(0.00110375 -0.00162103 0)
(0.00113315 -0.001591 0)
(0.00108414 -0.00162198 0)
(0.00111422 -0.00159147 0)
(0.00106616 -0.0016231 0)
(0.00109683 -0.00159209 0)
(0.00104964 -0.00162433 0)
(0.00108084 -0.00159281 0)
(0.00103443 -0.00162562 0)
(0.00106609 -0.00159357 0)
(0.00102037 -0.00162692 0)
(0.00105245 -0.00159429 0)
(0.0017354 -0.0015966 0)
(0.00174922 -0.00157363 0)
(0.00167705 -0.00158754 0)
(0.00169165 -0.0015637 0)
(0.00162294 -0.00157922 0)
(0.00163866 -0.00155434 0)
(0.00157278 -0.00157147 0)
(0.00158979 -0.00154568 0)
(0.00152622 -0.00156438 0)
(0.00154461 -0.00153786 0)
(0.001483 -0.00155803 0)
(0.0015028 -0.0015309 0)
(0.0014429 -0.00155244 0)
(0.0014641 -0.00152479 0)
(0.00140575 -0.00154758 0)
(0.0014283 -0.00151948 0)
(0.00137138 -0.00154344 0)
(0.00139521 -0.0015149 0)
(0.00133961 -0.00153995 0)
(0.00136465 -0.001511 0)
(0.0013103 -0.00153706 0)
(0.00133645 -0.00150771 0)
(0.00128328 -0.00153471 0)
(0.00131047 -0.00150495 0)
(0.0012584 -0.00153283 0)
(0.00128654 -0.00150266 0)
(0.00123551 -0.00153137 0)
(0.00126452 -0.00150078 0)
(0.00121447 -0.00153024 0)
(0.00124427 -0.00149923 0)
(0.00119514 -0.00152941 0)
(0.00122564 -0.00149796 0)
(0.00117735 -0.0015288 0)
(0.00120849 -0.0014969 0)
(0.00116099 -0.00152837 0)
(0.00119269 -0.001496 0)
(0.00114588 -0.00152806 0)
(0.0011781 -0.00149521 0)
(0.00113189 -0.00152782 0)
(0.00116459 -0.00149445 0)
(0.00183794 -0.00153987 0)
(0.00185172 -0.0015154 0)
(0.00177952 -0.00152725 0)
(0.0017942 -0.00150174 0)
(0.00172571 -0.0015156 0)
(0.00174162 -0.00148908 0)
(0.00167612 -0.00150476 0)
(0.0016934 -0.00147742 0)
(0.00163031 -0.00149477 0)
(0.00164903 -0.00146682 0)
(0.00158792 -0.00148571 0)
(0.00160809 -0.00145726 0)
(0.00154871 -0.00147756 0)
(0.00157028 -0.00144869 0)
(0.00151244 -0.0014703 0)
(0.00153536 -0.00144104 0)
(0.00147891 -0.00146385 0)
(0.00150312 -0.00143424 0)
(0.00144795 -0.00145817 0)
(0.00147336 -0.0014282 0)
(0.00141938 -0.00145318 0)
(0.00144591 -0.00142287 0)
(0.00139304 -0.00144881 0)
(0.00142061 -0.00141815 0)
(0.00136878 -0.001445 0)
(0.0013973 -0.00141398 0)
(0.00134643 -0.00144167 0)
(0.00137584 -0.00141029 0)
(0.00132587 -0.00143876 0)
(0.00135608 -0.001407 0)
(0.00130694 -0.0014362 0)
(0.00133788 -0.00140406 0)
(0.00128951 -0.00143393 0)
(0.00132112 -0.0014014 0)
(0.00127344 -0.00143191 0)
(0.00130565 -0.00139896 0)
(0.0012586 -0.00143006 0)
(0.00129136 -0.0013967 0)
(0.00124483 -0.00142834 0)
(0.00127813 -0.00139453 0)
(0.00193961 -0.00148264 0)
(0.00195331 -0.00145661 0)
(0.00188142 -0.00146626 0)
(0.00189618 -0.00143916 0)
(0.00182813 -0.00145121 0)
(0.00184423 -0.00142315 0)
(0.00177923 -0.00143725 0)
(0.00179678 -0.00140848 0)
(0.00173422 -0.00142439 0)
(0.00175327 -0.00139512 0)
(0.00169273 -0.00141265 0)
(0.00171325 -0.00138299 0)
(0.00165444 -0.001402 0)
(0.00167639 -0.00137202 0)
(0.0016191 -0.00139237 0)
(0.00164241 -0.00136211 0)
(0.00158649 -0.00138369 0)
(0.00161108 -0.00135316 0)
(0.00155641 -0.00137588 0)
(0.0015822 -0.00134508 0)
(0.00152867 -0.00136886 0)
(0.00155559 -0.00133779 0)
(0.0015031 -0.00136256 0)
(0.00153106 -0.00133121 0)
(0.00147955 -0.0013569 0)
(0.00150847 -0.00132526 0)
(0.00145787 -0.0013518 0)
(0.00148767 -0.00131986 0)
(0.0014379 -0.00134719 0)
(0.00146852 -0.00131493 0)
(0.0014195 -0.00134301 0)
(0.00145088 -0.00131042 0)
(0.00140255 -0.00133918 0)
(0.00143462 -0.00130626 0)
(0.00138691 -0.00133565 0)
(0.00141961 -0.00130238 0)
(0.00137245 -0.00133237 0)
(0.00140575 -0.00129874 0)
(0.00135903 -0.00132926 0)
(0.00139291 -0.00129526 0)
(0.00203982 -0.00142487 0)
(0.00205343 -0.00139736 0)
(0.00198229 -0.00140471 0)
(0.00199713 -0.00137614 0)
(0.0019298 -0.00138626 0)
(0.0019461 -0.00135681 0)
(0.00188181 -0.00136922 0)
(0.00189964 -0.00133917 0)
(0.00183777 -0.00135355 0)
(0.00185714 -0.00132312 0)
(0.00179727 -0.00133921 0)
(0.00181815 -0.00130851 0)
(0.00176 -0.00132613 0)
(0.00178232 -0.00129523 0)
(0.00172567 -0.00131423 0)
(0.00174936 -0.00128314 0)
(0.00169405 -0.00130341 0)
(0.00171902 -0.00127215 0)
(0.00166492 -0.00129358 0)
(0.00169109 -0.00126214 0)
(0.00163809 -0.00128464 0)
(0.00166538 -0.00125302 0)
(0.00161339 -0.00127652 0)
(0.00164172 -0.00124469 0)
(0.00159065 -0.00126911 0)
(0.00161995 -0.00123707 0)
(0.00156972 -0.00126235 0)
(0.00159991 -0.00123008 0)
(0.00155045 -0.00125616 0)
(0.00158147 -0.00122364 0)
(0.00153271 -0.00125046 0)
(0.00156449 -0.00121767 0)
(0.00151636 -0.00124519 0)
(0.00154885 -0.00121212 0)
(0.00150126 -0.00124027 0)
(0.00153442 -0.00120691 0)
(0.00148729 -0.00123566 0)
(0.00152109 -0.001202 0)
(0.00147431 -0.00123127 0)
(0.00150874 -0.00119731 0)
(0.00213806 -0.00136662 0)
(0.0021516 -0.00133777 0)
(0.00208168 -0.00134278 0)
(0.00209662 -0.00131291 0)
(0.00203036 -0.00132102 0)
(0.00204686 -0.00129037 0)
(0.00198353 -0.001301 0)
(0.00200164 -0.00126988 0)
(0.00194065 -0.00128262 0)
(0.00196034 -0.00125124 0)
(0.00190132 -0.00126579 0)
(0.00192253 -0.00123426 0)
(0.00186518 -0.0012504 0)
(0.00188785 -0.00121878 0)
(0.00183197 -0.00123635 0)
(0.001856 -0.00120465 0)
(0.00180142 -0.0012235 0)
(0.00182674 -0.00119174 0)
(0.00177333 -0.00121177 0)
(0.00179985 -0.00117992 0)
(0.0017475 -0.00120103 0)
(0.00177514 -0.00116909 0)
(0.00172375 -0.0011912 0)
(0.00175242 -0.00115914 0)
(0.00170191 -0.00118218 0)
(0.00173155 -0.00114998 0)
(0.00168183 -0.00117389 0)
(0.00171236 -0.00114152 0)
(0.00166336 -0.00116623 0)
(0.00169473 -0.00113369 0)
(0.00164637 -0.00115914 0)
(0.00167852 -0.00112639 0)
(0.00163073 -0.00115253 0)
(0.0016636 -0.00111957 0)
(0.0016163 -0.00114636 0)
(0.00164987 -0.00111316 0)
(0.00160294 -0.00114053 0)
(0.00163718 -0.0011071 0)
(0.00159053 -0.001135 0)
(0.00162545 -0.00110131 0)
(0.00223391 -0.00130803 0)
(0.00224741 -0.00127798 0)
(0.00217917 -0.00128069 0)
(0.00219422 -0.0012497 0)
(0.0021294 -0.00125579 0)
(0.00214611 -0.00122415 0)
(0.00208404 -0.00123295 0)
(0.0021024 -0.00120097 0)
(0.00204256 -0.001212 0)
(0.00206254 -0.00117988 0)
(0.00200456 -0.00119282 0)
(0.00202609 -0.00116067 0)
(0.00196971 -0.00117527 0)
(0.0019927 -0.00114313 0)
(0.00193773 -0.00115919 0)
(0.00196208 -0.0011271 0)
(0.00190836 -0.00114446 0)
(0.00193399 -0.0011124 0)
(0.0018814 -0.00113095 0)
(0.00190822 -0.00109892 0)
(0.00185666 -0.00111855 0)
(0.00188458 -0.00108651 0)
(0.00183394 -0.00110715 0)
(0.00186289 -0.00107507 0)
(0.00181308 -0.00109664 0)
(0.00184299 -0.0010645 0)
(0.00179394 -0.00108692 0)
(0.00182474 -0.00105471 0)
(0.00177636 -0.00107792 0)
(0.001808 -0.0010456 0)
(0.00176022 -0.00106955 0)
(0.00179264 -0.0010371 0)
(0.00174538 -0.00106174 0)
(0.00177854 -0.00102914 0)
(0.00173173 -0.00105441 0)
(0.00176559 -0.00102165 0)
(0.00171911 -0.0010475 0)
(0.00175368 -0.00101456 0)
(0.0017074 -0.00104093 0)
(0.0017427 -0.00100778 0)
(0.00232704 -0.00124922 0)
(0.00234053 -0.00121816 0)
(0.00227441 -0.00121865 0)
(0.00228958 -0.00118676 0)
(0.00222656 -0.00119084 0)
(0.00224347 -0.00115844 0)
(0.00218297 -0.00116539 0)
(0.00220158 -0.00113277 0)
(0.00214314 -0.00114207 0)
(0.00216338 -0.00110943 0)
(0.00210667 -0.00112072 0)
(0.00212847 -0.00108817 0)
(0.00207326 -0.00110116 0)
(0.00209651 -0.00106874 0)
(0.00204263 -0.00108323 0)
(0.00206724 -0.00105095 0)
(0.00201454 -0.00106677 0)
(0.00204042 -0.00103463 0)
(0.00198879 -0.00105163 0)
(0.00201584 -0.00101962 0)
(0.0019652 -0.0010377 0)
(0.00199334 -0.00100578 0)
(0.00194358 -0.00102485 0)
(0.00197274 -0.000992998 0)
(0.00192379 -0.00101297 0)
(0.0019539 -0.000981152 0)
(0.00190566 -0.00100197 0)
(0.00193666 -0.000970136 0)
(0.00188905 -0.000991743 0)
(0.00192089 -0.000959853 0)
(0.00187382 -0.000982195 0)
(0.00190645 -0.000950218 0)
(0.00185985 -0.000973239 0)
(0.00189321 -0.000941167 0)
(0.00184702 -0.000964805 0)
(0.00188107 -0.000932658 0)
(0.00183524 -0.000956851 0)
(0.00186996 -0.000924647 0)
(0.00182437 -0.00094934 0)
(0.00185981 -0.000917053 0)
(0.00241717 -0.00119034 0)
(0.00243069 -0.00115846 0)
(0.00236707 -0.00115688 0)
(0.00238238 -0.00112428 0)
(0.00232151 -0.00112645 0)
(0.0023386 -0.00109348 0)
(0.00227998 -0.00109863 0)
(0.00229881 -0.00106558 0)
(0.00224203 -0.00107317 0)
(0.0022625 -0.00104023 0)
(0.0022073 -0.00104987 0)
(0.00222931 -0.00101713 0)
(0.00217548 -0.00102851 0)
(0.00219895 -0.000996009 0)
(0.00214633 -0.00100892 0)
(0.00217114 -0.000976656 0)
(0.00211962 -0.000990909 0)
(0.00214567 -0.000958878 0)
(0.00209514 -0.000974328 0)
(0.00212235 -0.000942509 0)
(0.00207273 -0.000959032 0)
(0.00210101 -0.000927401 0)
(0.00205222 -0.00094489 0)
(0.0020815 -0.000913426 0)
(0.00203349 -0.000931788 0)
(0.00206369 -0.000900464 0)
(0.00201641 -0.000919628 0)
(0.00204748 -0.000888407 0)
(0.00200083 -0.000908323 0)
(0.00203274 -0.000877141 0)
(0.0019866 -0.000897791 0)
(0.00201935 -0.000866544 0)
(0.00197354 -0.000887927 0)
(0.00200712 -0.000856484 0)
(0.00196142 -0.00087859 0)
(0.00199585 -0.000846851 0)
(0.00195009 -0.000869582 0)
(0.00198534 -0.000837612 0)
(0.00193952 -0.000860664 0)
(0.00197559 -0.000828884 0)
(0.00250407 -0.00113155 0)
(0.00251765 -0.00109903 0)
(0.00245689 -0.00109556 0)
(0.00247233 -0.00106246 0)
(0.00241393 -0.00106283 0)
(0.0024312 -0.00102951 0)
(0.00237473 -0.00103294 0)
(0.00239374 -0.000999685 0)
(0.00233889 -0.00100562 0)
(0.00235954 -0.000972586 0)
(0.00230608 -0.000980606 0)
(0.00232826 -0.000947885 0)
(0.00227603 -0.000957687 0)
(0.00229963 -0.000925307 0)
(0.00224849 -0.000936653 0)
(0.00227341 -0.000904613 0)
(0.00222325 -0.00091732 0)
(0.00224939 -0.0008856 0)
(0.00220012 -0.000899516 0)
(0.0022274 -0.000868088 0)
(0.00217894 -0.000883089 0)
(0.00220726 -0.000851918 0)
(0.00215955 -0.000867897 0)
(0.00218885 -0.000836949 0)
(0.00214182 -0.000853809 0)
(0.00217202 -0.00082306 0)
(0.00212564 -0.000840709 0)
(0.00215667 -0.000810148 0)
(0.00211092 -0.000828502 0)
(0.00214272 -0.00079813 0)
(0.00209761 -0.00081713 0)
(0.00213012 -0.00078694 0)
(0.00208565 -0.000806591 0)
(0.00211886 -0.000776512 0)
(0.00207492 -0.000796949 0)
(0.00210892 -0.000766744 0)
(0.00206516 -0.000788326 0)
(0.00210017 -0.000757448 0)
(0.00205586 -0.000780848 0)
(0.00209228 -0.000748285 0)
(0.00258757 -0.00107295 0)
(0.00260122 -0.00103998 0)
(0.00254362 -0.00103484 0)
(0.0025592 -0.00100144 0)
(0.00250355 -0.00100017 0)
(0.00252096 -0.000966702 0)
(0.00246694 -0.000968538 0)
(0.00248608 -0.00093527 0)
(0.00243342 -0.000939636 0)
(0.00245419 -0.000906718 0)
(0.00240272 -0.000913192 0)
(0.00242499 -0.000880696 0)
(0.00237458 -0.000888966 0)
(0.00239824 -0.000856914 0)
(0.00234878 -0.000866739 0)
(0.00237373 -0.000835124 0)
(0.00232514 -0.000846314 0)
(0.00235127 -0.000815112 0)
(0.00230347 -0.000827515 0)
(0.0023307 -0.000796692 0)
(0.00228363 -0.000810183 0)
(0.00231187 -0.0007797 0)
(0.00226546 -0.000794175 0)
(0.00229463 -0.000763993 0)
(0.00224885 -0.00077937 0)
(0.00227888 -0.000749446 0)
(0.00223365 -0.000765657 0)
(0.00226449 -0.000735947 0)
(0.00221978 -0.000752942 0)
(0.00225135 -0.000723401 0)
(0.00220712 -0.00074114 0)
(0.00223936 -0.000711737 0)
(0.00219565 -0.000730192 0)
(0.00222846 -0.000700913 0)
(0.00218545 -0.000720099 0)
(0.00221869 -0.000690942 0)
(0.00217673 -0.000711012 0)
(0.00221017 -0.000681938 0)
(0.00216961 -0.000703331 0)
(0.00220298 -0.000674257 0)
(0.00266753 -0.00101464 0)
(0.00268127 -0.000981395 0)
(0.00262708 -0.00097482 0)
(0.00264278 -0.0009413 0)
(0.00259013 -0.000938594 0)
(0.00260766 -0.000905169 0)
(0.00255632 -0.000905562 0)
(0.00257556 -0.000872477 0)
(0.00252532 -0.000875393 0)
(0.00254615 -0.000842781 0)
(0.0024969 -0.000847799 0)
(0.00251919 -0.000815721 0)
(0.00247083 -0.000822526 0)
(0.00249447 -0.000790996 0)
(0.00244692 -0.000799346 0)
(0.00247181 -0.000768349 0)
(0.00242501 -0.000778053 0)
(0.00245104 -0.000747559 0)
(0.00240493 -0.000758463 0)
(0.00243201 -0.000728435 0)
(0.00238654 -0.000740411 0)
(0.0024146 -0.000710806 0)
(0.00236972 -0.000723747 0)
(0.00239868 -0.000694525 0)
(0.00235435 -0.000708338 0)
(0.00238414 -0.000679461 0)
(0.00234034 -0.000694068 0)
(0.0023709 -0.000665498 0)
(0.00232759 -0.000680835 0)
(0.00235886 -0.000652526 0)
(0.00231605 -0.000668558 0)
(0.00234797 -0.000640439 0)
(0.00230565 -0.000657172 0)
(0.00233817 -0.000629114 0)
(0.00229643 -0.000646627 0)
(0.00232943 -0.000618423 0)
(0.00228846 -0.0006369 0)
(0.00232166 -0.000608375 0)
(0.00228169 -0.000628072 0)
(0.00231443 -0.000599472 0)
(0.00274382 -0.000956664 0)
(0.00275766 -0.000923319 0)
(0.00270707 -0.000915583 0)
(0.00272288 -0.000882122 0)
(0.00267345 -0.000878196 0)
(0.00269106 -0.00084499 0)
(0.0026426 -0.000844118 0)
(0.00266188 -0.00081139 0)
(0.00261429 -0.000813002 0)
(0.0026351 -0.000780868 0)
(0.00258829 -0.000784548 0)
(0.00261052 -0.000753053 0)
(0.00256442 -0.000758488 0)
(0.00258796 -0.000727638 0)
(0.00254253 -0.000734588 0)
(0.00256726 -0.000704361 0)
(0.00252246 -0.000712635 0)
(0.00254829 -0.000682995 0)
(0.00250407 -0.000692439 0)
(0.00253093 -0.000663342 0)
(0.00248725 -0.000673827 0)
(0.00251504 -0.000645224 0)
(0.00247187 -0.000656645 0)
(0.00250054 -0.000628486 0)
(0.00245785 -0.000640751 0)
(0.00248732 -0.000612988 0)
(0.00244508 -0.000626024 0)
(0.0024753 -0.000598601 0)
(0.0024335 -0.000612353 0)
(0.0024644 -0.000585211 0)
(0.00242306 -0.000599651 0)
(0.00245456 -0.000572705 0)
(0.00241374 -0.000587851 0)
(0.00244576 -0.000560964 0)
(0.0024056 -0.000576909 0)
(0.00243799 -0.000549879 0)
(0.00239866 -0.000566815 0)
(0.00243115 -0.000539492 0)
(0.00239271 -0.000557744 0)
(0.00242476 -0.00053023 0)
(0.00281632 -0.000899072 0)
(0.00283025 -0.000865798 0)
(0.00278343 -0.000857185 0)
(0.00279932 -0.000823952 0)
(0.00275327 -0.000819046 0)
(0.00277091 -0.000786223 0)
(0.00272553 -0.000784287 0)
(0.00274478 -0.000752074 0)
(0.0027 -0.000752555 0)
(0.00272074 -0.000721047 0)
(0.00267654 -0.000723536 0)
(0.00269863 -0.000692766 0)
(0.00265497 -0.000696958 0)
(0.00267831 -0.000666919 0)
(0.00263518 -0.00067258 0)
(0.00265965 -0.000643244 0)
(0.00261702 -0.000650186 0)
(0.00264255 -0.000621508 0)
(0.00260039 -0.000629582 0)
(0.0026269 -0.00060151 0)
(0.00258519 -0.00061059 0)
(0.00261259 -0.000583072 0)
(0.00257131 -0.000593053 0)
(0.00259954 -0.000566032 0)
(0.00255866 -0.000576828 0)
(0.00258767 -0.000550249 0)
(0.00254719 -0.000561793 0)
(0.00257689 -0.000535596 0)
(0.00253682 -0.000547842 0)
(0.00256716 -0.000521956 0)
(0.00252752 -0.000534894 0)
(0.00255842 -0.000509219 0)
(0.00251928 -0.00052288 0)
(0.00255064 -0.000497268 0)
(0.00251215 -0.000511747 0)
(0.00254385 -0.000485995 0)
(0.00250613 -0.000501486 0)
(0.00253791 -0.000475444 0)
(0.00250103 -0.00049232 0)
(0.00253235 -0.000466057 0)
(0.00288492 -0.000841903 0)
(0.00289891 -0.00080887 0)
(0.00285598 -0.000799675 0)
(0.0028719 -0.000766837 0)
(0.00282937 -0.000761202 0)
(0.00284698 -0.000728918 0)
(0.00280481 -0.000726139 0)
(0.00282397 -0.000694587 0)
(0.00278216 -0.000694127 0)
(0.00280272 -0.000663382 0)
(0.00276129 -0.000664848 0)
(0.00278314 -0.000634929 0)
(0.00274209 -0.000638029 0)
(0.00276511 -0.00060892 0)
(0.00272444 -0.000613425 0)
(0.00274854 -0.000585089 0)
(0.00270825 -0.000590822 0)
(0.00273335 -0.000563209 0)
(0.00269342 -0.000570022 0)
(0.00271943 -0.000543075 0)
(0.00267986 -0.00055085 0)
(0.00270672 -0.000524511 0)
(0.0026675 -0.000533146 0)
(0.00269515 -0.000507356 0)
(0.00265627 -0.000516772 0)
(0.00268463 -0.000491471 0)
(0.0026461 -0.000501607 0)
(0.00267512 -0.000476729 0)
(0.00263695 -0.000487549 0)
(0.00266657 -0.000463016 0)
(0.0026288 -0.000474517 0)
(0.00265892 -0.000450221 0)
(0.00262163 -0.000462445 0)
(0.00265219 -0.000438225 0)
(0.00261549 -0.000451277 0)
(0.00264638 -0.000426916 0)
(0.00261039 -0.000441014 0)
(0.00264136 -0.000416328 0)
(0.00260612 -0.000431886 0)
(0.00263661 -0.000406902 0)
(0.00294949 -0.000785193 0)
(0.0029635 -0.000752569 0)
(0.00292456 -0.000743093 0)
(0.00294045 -0.000710809 0)
(0.00290154 -0.000704708 0)
(0.00291905 -0.000673112 0)
(0.00288021 -0.000669718 0)
(0.00289918 -0.000638964 0)
(0.00286047 -0.000637768 0)
(0.00288075 -0.000607913 0)
(0.00284223 -0.00060854 0)
(0.00286371 -0.00057959 0)
(0.00282541 -0.000581761 0)
(0.002848 -0.000553692 0)
(0.00280993 -0.000557192 0)
(0.00283353 -0.00052996 0)
(0.00279573 -0.000534618 0)
(0.00282025 -0.000508167 0)
(0.00278271 -0.000513845 0)
(0.00280809 -0.000488115 0)
(0.00277082 -0.000494699 0)
(0.00279698 -0.000469629 0)
(0.00275999 -0.000477026 0)
(0.00278688 -0.000452553 0)
(0.00275017 -0.000460688 0)
(0.00277773 -0.000436747 0)
(0.00274131 -0.000445567 0)
(0.00276949 -0.000422089 0)
(0.00273338 -0.000431567 0)
(0.0027621 -0.000408466 0)
(0.00272635 -0.000418607 0)
(0.00275555 -0.000395767 0)
(0.00272024 -0.000406624 0)
(0.00274985 -0.000383871 0)
(0.00271508 -0.000395566 0)
(0.002745 -0.000372663 0)
(0.00271088 -0.000385437 0)
(0.00274089 -0.000362173 0)
(0.00270743 -0.000376468 0)
(0.00273694 -0.000352826 0)
(0.00300994 -0.000728972 0)
(0.00302392 -0.000696917 0)
(0.00298901 -0.000687463 0)
(0.0030048 -0.000655884 0)
(0.00296959 -0.000649584 0)
(0.00298691 -0.000618814 0)
(0.00295149 -0.000615043 0)
(0.00297016 -0.000585215 0)
(0.00293465 -0.000583496 0)
(0.00295454 -0.000554648 0)
(0.00291903 -0.000554628 0)
(0.00294005 -0.000526755 0)
(0.0029046 -0.000528175 0)
(0.00292663 -0.000501244 0)
(0.0028913 -0.000503901 0)
(0.00291426 -0.000477863 0)
(0.00287907 -0.000481597 0)
(0.00290288 -0.000456393 0)
(0.00286786 -0.000461075 0)
(0.00289246 -0.00043664 0)
(0.00285763 -0.000442164 0)
(0.00288295 -0.000418435 0)
(0.00284832 -0.000424715 0)
(0.00287431 -0.000401625 0)
(0.0028399 -0.000408595 0)