/*--------------------------------*- C++ -*----------------------------------*\
| =========                 |                                                 |
| \\      /  F ield         | OpenFOAM: The Open Source CFD Toolbox           |
|  \\    /   O peration     | Version:  v2012                                 |
|   \\  /    A nd           | Website:  www.openfoam.com                      |
|    \\/     M anipulation  |                                                 |
\*---------------------------------------------------------------------------*/
FoamFile
{
    version     2.0;
    format      ascii;
    class       volScalarField;
    location    "9";
    object      epsilonEq;
}
// * * * * * * * * * * * * * * * * * * * * * * * * * * * * * * * * * * * * * //

dimensions      [0 0 0 0 0 0 0];


internalField   nonuniform List<scalar> 
8000
(
0.0128776
0.00975314
0.0106689
0.00921601
0.00963922
0.00875789
0.00888107
0.00828246
0.00826365
0.00782262
0.00771983
0.00736461
0.00720768
0.00690302
0.00670422
0.00642977
0.00619879
0.00594666
0.00568526
0.00545208
0.00516528
0.00495288
0.00464891
0.00446474
0.00415187
0.0040055
0.00368845
0.00358199
0.0032625
0.00320058
0.00291756
0.00291983
0.00269432
0.00274109
0.00252004
0.00258388
0.00238311
0.00244875
0.00226636
0.00231917
0.00909079
0.00965738
0.00905723
0.0092446
0.00883395
0.00879978
0.00842089
0.00830919
0.00794694
0.00781406
0.0074512
0.0073159
0.00693652
0.00680244
0.0064083
0.0062768
0.005867
0.00573746
0.00532615
0.00519908
0.00480083
0.00467929
0.00430469
0.00419543
0.00385339
0.0037633
0.00345716
0.00338742
0.00311032
0.00307781
0.00288259
0.00290018
0.0027114
0.00276249
0.00256332
0.00263607
0.00243605
0.00251952
0.00231904
0.00239958
0.0105132
0.00953832
0.00941773
0.00905611
0.00882014
0.00856593
0.00826062
0.00804007
0.00771443
0.0075108
0.00715928
0.00696316
0.00658632
0.00639544
0.00599986
0.00581344
0.00541623
0.0052365
0.00485761
0.00468961
0.00434723
0.00419968
0.00390116
0.00378328
0.00352999
0.0034471
0.0032314
0.003182
0.00299892
0.00299693
0.00287597
0.00290879
0.00275463
0.00281263
0.00264068
0.00271717
0.00253311
0.00262244
0.00242847
0.00252008
0.00976006
0.00929802
0.00899549
0.00876763
0.00843963
0.0082218
0.00784145
0.00762977
0.00722062
0.00701469
0.00658052
0.00637744
0.00593095
0.00573061
0.00529457
0.00510095
0.00470418
0.0045253
0.00419232
0.0040391
0.00377653
0.0036579
0.00345962
0.00337992
0.00323029
0.00318581
0.00307097
0.00305663
0.00297078
0.00298702
0.00289387
0.00293139
0.00281048
0.00286534
0.00272489
0.00279384
0.00263785
0.00271796
0.00254888
0.002632
0.00957888
0.00895743
0.00862961
0.0083415
0.00794419
0.0076942
0.00722016
0.00698266
0.00647681
0.00624763
0.00573924
0.00551548
0.00503623
0.00482288
0.00441312
0.0042222
0.00391301
0.00375597
0.0035502
0.00343509
0.0033112
0.0032386
0.00316215
0.00312378
0.00307184
0.00305406
0.00300468
0.00300879
0.00296711
0.00298641
0.00291587
0.00294877
0.00285565
0.00290133
0.00278986
0.00284702
0.00271989
0.00278682
0.00264652
0.00271591
0.00902262
0.00843531
0.00799343
0.0076897
0.00716495
0.00688964
0.00630015
0.00603745
0.00545372
0.00520277
0.00466977
0.00443428
0.00401454
0.00381327
0.00354857
0.003399
0.00327099
0.00317214
0.00312843
0.00307251
0.00305914
0.00302523
0.00301997
0.00300363
0.00299992
0.00299617
0.00298364
0.00298916
0.00295626
0.00297169
0.00291903
0.00294508
0.0028744
0.00291103
0.00282424
0.00287066
0.00276954
0.00282435
0.00271114
0.00276762
0.00826761
0.00765238
0.00706595
0.00671991
0.00606566
0.00575659
0.005098
0.00481104
0.00422035
0.00397101
0.00355472
0.00337411
0.00318836
0.00308092
0.00303283
0.00298673
0.00299101
0.00296855
0.00297721
0.00296056
0.00296924
0.00295755
0.0029631
0.00295685
0.00295482
0.0029548
0.00294162
0.00294885
0.00292224
0.00293749
0.00289665
0.00292029
0.00286546
0.00289738
0.00282936
0.00286894
0.00278884
0.00283489
0.0027445
0.00279108
0.00711524
0.00648685
0.00576967
0.00539129
0.00468266
0.00436083
0.00373356
0.00349647
0.00315911
0.00302974
0.00297701
0.00293577
0.00293683
0.00290786
0.00292012
0.00289665
0.00291073
0.00288986
0.00290467
0.00288807
0.00290057
0.0028899
0.00289681
0.00289309
0.00289197
0.00289547
0.00288464
0.00289508
0.00287362
0.00289077
0.00285831
0.00288194
0.00283855
0.00286834
0.00281447
0.00284983
0.00278623
0.0028261
0.00275418
0.00279339
0.00553501
0.00494088
0.00425564
0.00389278
0.00332804
0.00312333
0.00297279
0.00290923
0.00289892
0.00285635
0.00286019
0.00282447
0.00283779
0.00280528
0.00282461
0.00279794
0.00281792
0.00279865
0.00281629
0.00280443
0.00281777
0.00281292
0.00282035
0.00282205
0.00282229
0.00283011
0.00282226
0.00283577
0.00281928
0.00283807
0.00281274
0.00283642
0.00280234
0.00283049
0.00278802
0.00282004
0.00276982
0.0028047
0.0027479
0.00278116
0.00390222
0.00348521
0.003091
0.00295752
0.00290944
0.00284478
0.00282832
0.00277484
0.00277369
0.00272653
0.00273935
0.00270135
0.0027218
0.00269263
0.00271598
0.00269493
0.00271777
0.00270441
0.00272432
0.00271808
0.0027334
0.00273358
0.00274316
0.00274908
0.00275211
0.00276314
0.00275912
0.00277469
0.00276335
0.00278297
0.00276426
0.00278746
0.00276154
0.00278785
0.0027551
0.00278392
0.00274496
0.00277532
0.00273121
0.00275919
0.00301502
0.00292104
0.00286751
0.00280194
0.00275951
0.00269602
0.00267964
0.00262625
0.00263164
0.00258924
0.00260809
0.00257587
0.00260132
0.00257835
0.00260574
0.00259097
0.00261725
0.00260971
0.00263276
0.00263159
0.00265
0.00265437
0.00266722
0.00267639
0.00268314
0.00269642
0.0026968
0.00271357
0.00270751
0.00272724
0.00271482
0.00273702
0.00271849
0.00274267
0.00271848
0.00274404
0.00271483
0.00274085
0.00270762
0.00273067
0.00289943
0.00277288
0.00272922
0.00263556
0.002602
0.00253409
0.00252423
0.00247502
0.0024863
0.00245059
0.00247509
0.00244986
0.00248071
0.00246424
0.00249664
0.00248773
0.00251854
0.00251612
0.00254335
0.00254645
0.00256887
0.0025766
0.00259351
0.00260509
0.00261616
0.00263087
0.00263601
0.00265324
0.00265252
0.00267173
0.00266536
0.00268608
0.0026744
0.00269614
0.00267965
0.00270185
0.00268125
0.002703
0.00267929
0.0026976
0.00271964
0.00258575
0.00255407
0.00245076
0.00243285
0.002361
0.00236623
0.00231826
0.00234173
0.00231015
0.00234421
0.00232422
0.00236282
0.00235165
0.00239062
0.00238651
0.0024231
0.00242472
0.00245718
0.00246347
0.0024908
0.00250083
0.00252255
0.00253552
0.00255148
0.00256669
0.00257695
0.00259383
0.00259858
0.00261662
0.00261618
0.0026349
0.00262971
0.00264867
0.0026393
0.00265792
0.00264515
0.00266257
0.0026474
0.00266097
0.0025079
0.00237087
0.00235604
0.00225063
0.00225137
0.00218005
0.00220355
0.00215757
0.00219703
0.00216837
0.00221565
0.00219906
0.00224841
0.00224065
0.00228845
0.00228739
0.00233141
0.00233549
0.00237446
0.00238247
0.00241574
0.00242672
0.00245407
0.00246722
0.0024887
0.00250337
0.0025192
0.00253484
0.00254532
0.00256146
0.00256701
0.00258321
0.00258433
0.00260013
0.0025975
0.00261231
0.00260682
0.00261973
0.0026125
0.00262104
0.002273
0.00213704
0.00214272
0.0020386
0.00206139
0.00199286
0.00203709
0.00199424
0.00205175
0.00202608
0.00208853
0.00207457
0.00213651
0.0021309
0.00218917
0.00218967
0.00224254
0.00224755
0.00229419
0.00230249
0.00234262
0.00235325
0.00238696
0.00239916
0.00242673
0.00243987
0.0024617
0.00247528
0.00249179
0.00250537
0.00251707
0.00253026
0.00253771
0.00255005
0.00255399
0.00256487
0.00256627
0.00257471
0.00257482
0.00257844
0.00202163
0.00189022
0.0019178
0.00181867
0.00186501
0.00180193
0.00186793
0.00182983
0.0019061
0.0018841
0.00196232
0.00195094
0.00202608
0.00202201
0.00209142
0.00209252
0.00215495
0.00215976
0.00221478
0.00222219
0.00226985
0.00227902
0.00231966
0.00232992
0.002364
0.00237481
0.0024029
0.0024138
0.00243648
0.00244707
0.00246496
0.00247489
0.00248863
0.0024975
0.00250786
0.0025151
0.00252303
0.00252776
0.00253437
0.00253468
0.00175998
0.00163573
0.00168566
0.00159488
0.00166513
0.00161026
0.00169795
0.00166639
0.00176104
0.00174366
0.00183719
0.00182864
0.00191661
0.00191382
0.00199418
0.00199524
0.00206728
0.00207092
0.00213464
0.00213999
0.00219574
0.00220217
0.00225046
0.00225748
0.00229886
0.00230608
0.00234114
0.00234821
0.00237762
0.0023842
0.00240874
0.00241452
0.00243504
0.00243971
0.00245706
0.00246023
0.0024752
0.00247623
0.00248942
0.00248659
0.0014929
0.00137814
0.00145038
0.0013713
0.00146515
0.00142131
0.00152971
0.00150658
0.00161826
0.00160655
0.00171402
0.00170875
0.00180833
0.00180681
0.00189714
0.00189778
0.0019787
0.00198049
0.00205251
0.00205473
0.00211863
0.00212078
0.00217745
0.00217919
0.00222937
0.00223045
0.00227476
0.00227494
0.00231385
0.00231279
0.00234693
0.0023441
0.0023746
0.0023693
0.00239802
0.00238943
0.00241861
0.00240587
0.00243649
0.00241812
0.00122438
0.00112158
0.00121587
0.00115243
0.00126889
0.00123931
0.00136642
0.00135382
0.00148011
0.00147533
0.00159436
0.00159312
0.00170219
0.00170243
0.00180082
0.00180144
0.00188947
0.00188975
0.00196827
0.00196766
0.0020378
0.00203585
0.00209892
0.00209524
0.00215263
0.00214692
0.00219996
0.00219201
0.00224176
0.00223133
0.00227835
0.00226489
0.00230921
0.0022913
0.00233344
0.00230767
0.00235173
0.00231046
0.00237091
0.00229802
0.000957684
0.000870101
0.000986337
0.000943808
0.00108108
0.0010696
0.00121213
0.00121235
0.00134963
0.00135324
0.00148044
0.00148435
0.00159984
0.00160293
0.00170658
0.00170845
0.00180089
0.00180138
0.00188352
0.00188252
0.00195542
0.00195282
0.00201752
0.0020132
0.00207075
0.00206459
0.00211614
0.00210815
0.00215505
0.00214556
0.00218954
0.00217948
0.00222245
0.0022138
0.00225726
0.0022535
0.002297
0.00230297
0.00233906
0.00236372
0.000695502
0.000628765
0.000767225
0.000753585
0.000908006
0.000919086
0.00107184
0.001087
0.00123048
0.00124361
0.00137503
0.00138489
0.0015036
0.00151033
0.00161658
0.00162067
0.00171516
0.00171712
0.0018007
0.00180101
0.00187458
0.00187372
0.00193806
0.00193658
0.00199226
0.00199087
0.00203807
0.00203776
0.00207609
0.00207842
0.0021067
0.0021145
0.00213049
0.00214948
0.00214938
0.00219019
0.00216776
0.00224349
0.00219058
0.00228006
0.000440085
0.000408515
0.000567889
0.000595824
0.000758608
0.000796696
0.00095136
0.000982753
0.0011263
0.00114916
0.00128059
0.00129616
0.00141538
0.0014252
0.00153259
0.00153799
0.00163422
0.00163628
0.00172213
0.00172168
0.00179798
0.0017957
0.00186327
0.00185975
0.00191935
0.00191513
0.00196747
0.00196314
0.00200883
0.00200511
0.00204447
0.00204259
0.00207498
0.00207752
0.00210021
0.00211099
0.00211871
0.00213889
0.00212741
0.00217009
0.00019538
0.000251094
0.000409703
0.000495093
0.000645649
0.000713093
0.000856937
0.000904428
0.00104022
0.00107214
0.00119868
0.00121902
0.00133575
0.00134746
0.00145438
0.00145955
0.00155703
0.00155718
0.00164581
0.00164202
0.00172253
0.00171558
0.00178871
0.00177922
0.0018456
0.00183417
0.00189422
0.0018816
0.00193533
0.00192273
0.00196942
0.00195902
0.00199674
0.00199191
0.00201735
0.00202151
0.0020317
0.00204663
0.00204115
0.0020805
7.97366e-05
0.000270577
0.000340496
0.00047899
0.000584463
0.000677529
0.000794337
0.000855978
0.000974606
0.00101446
0.00113006
0.00115443
0.0012645
0.00127756
0.00138092
0.00138549
0.00148172
0.00147981
0.00156893
0.00156197
0.00164425
0.00163332
0.00170909
0.00169511
0.00176463
0.00174852
0.00181186
0.00179468
0.00185156
0.00183477
0.00188428
0.00187
0.00191035
0.0019014
0.00193001
0.00192982
0.00194395
0.00195614
0.00195326
0.00199216
0.000293028
0.00042995
0.000395599
0.000545595
0.000584309
0.000691585
0.000767116
0.000838964
0.000931085
0.000977364
0.00107549
0.00110338
0.0012019
0.00121631
0.00131221
0.00131654
0.00140823
0.00140491
0.00149158
0.00148238
0.00156373
0.00155001
0.00162593
0.00160884
0.00167927
0.00165991
0.00172466
0.00170428
0.00176286
0.00174302
0.00179444
0.0017772
0.00181974
0.0018079
0.00183912
0.00183635
0.001853
0.00186334
0.00186151
0.00189846
0.000512482
0.000619515
0.000527286
0.000662071
0.000638125
0.000746513
0.000774522
0.000851326
0.000910082
0.000960737
0.00103566
0.00106636
0.00114876
0.00116444
0.00124922
0.00125356
0.0013377
0.00133342
0.00141518
0.00140429
0.00148266
0.00146675
0.00154113
0.00152154
0.00159149
0.00156948
0.00163453
0.00161146
0.00167091
0.00164842
0.00170112
0.00168136
0.00172554
0.00171148
0.0017445
0.00174002
0.00175812
0.00176731
0.00176566
0.00180017
0.000721846
0.000809172
0.000684072
0.000799439
0.000727436
0.00082852
0.00081109
0.000887779
0.00091028
0.000962932
0.00101066
0.00104322
0.0011057
0.00112242
0.00119282
0.00119727
0.00127119
0.0012662
0.00134084
0.00132861
0.00140219
0.00138448
0.00145583
0.00143412
0.00150236
0.00147807
0.00154239
0.00151699
0.00157642
0.00155168
0.00160489
0.00158309
0.00162816
0.00161242
0.00164655
0.00164085
0.00165983
0.0016682
0.00166639
0.00169822
0.00091905
0.000990961
0.000844406
0.000941951
0.000834881
0.000925136
0.000868717
0.00094154
0.000928634
0.000980997
0.000999676
0.00103304
0.0010729
0.00109031
0.0011436
0.0011482
0.00120944
0.00120399
0.00126939
0.00125616
0.00132316
0.00130402
0.00137082
0.0013474
0.00141263
0.00138646
0.00144894
0.00142162
0.0014801
0.00145351
0.00150642
0.00148298
0.00152826
0.00151121
0.00154591
0.00153929
0.00155879
0.00156649
0.00156434
0.00159318
0.00110309
0.00116185
0.000999903
0.00108175
0.000948847
0.00102743
0.000939299
0.00100603
0.000961016
0.00101123
0.00100107
0.00103419
0.00104999
0.00106771
0.00110183
0.00110663
0.00115302
0.00114737
0.00120153
0.00118767
0.00124631
0.00122616
0.00128686
0.00126214
0.00132305
0.0012954
0.00135492
0.00132607
0.00138263
0.00135457
0.00140638
0.00138164
0.00142649
0.00140843
0.00144321
0.00143588
0.0014556
0.00146269
0.00146005
0.00148553
0.00127333
0.00132038
0.0011468
0.00121472
0.00106236
0.00112954
0.00101619
0.00107577
0.00100302
0.00104977
0.00101256
0.00104454
0.00103613
0.00105379
0.00106748
0.00107249
0.00110232
0.00109675
0.00113785
0.00112375
0.0011723
0.00115159
0.00120464
0.00117909
0.0012343
0.00120563
0.00126101
0.00123104
0.00128469
0.00125553
0.00130541
0.0012797
0.00132345
0.00130464
0.00133903
0.00133116
0.00135081
0.00135732
0.00135403
0.00137577
0.00142938
0.00146574
0.00128315
0.00133856
0.00117128
0.00122771
0.00109445
0.00114653
0.00105056
0.00109306
0.00103157
0.00106171
0.00103004
0.00104732
0.00104018
0.00104544
0.00105753
0.00105232
0.00107882
0.00106493
0.00110177
0.001081
0.00112485
0.00109898
0.00114709
0.00111789
0.00116788
0.00113726
0.00118692
0.00115707
0.00120413
0.0011778
0.00121974
0.00120047
0.00123394
0.00122572
0.00124495
0.00125091
0.00124681
0.00126441
0.00157098
0.00159746
0.00140787
0.0014519
0.00127306
0.00131948
0.00117055
0.00121522
0.00110018
0.00113806
0.00105545
0.00108332
0.00103017
0.00104681
0.00101928
0.00102484
0.00101862
0.00101409
0.00102482
0.00101161
0.00103529
0.00101504
0.00104816
0.00102257
0.00106211
0.00103297
0.00107624
0.00104551
0.00109001
0.00105996
0.0011032
0.00107667
0.001116
0.00109659
0.00112856
0.0011202
0.00113865
0.00114409
0.001139
0.00115201
0.001698
0.00171532
0.00152029
0.0015539
0.00136605
0.00140322
0.00124198
0.00127957
0.00114909
0.00118228
0.00108179
0.00110717
0.00103481
0.00105068
0.00100389
0.00100984
0.000985373
0.000981845
0.000976087
0.000964101
0.00097341
0.00095433
0.000975283
0.000950686
0.000980154
0.000951791
0.000986897
0.000956734
0.00099476
0.000965117
0.00100341
0.000977193
0.00101299
0.00099386
0.00102365
0.00101542
0.00103267
0.00103765
0.00103133
0.00103929
0.00181044
0.00181924
0.00162
0.00164404
0.00144913
0.00147784
0.00130692
0.00133793
0.00119507
0.00122378
0.00110844
0.00113133
0.0010423
0.00105737
0.000992991
0.000999421
0.000957423
0.000955223
0.000932798
0.000922587
0.000916673
0.000899505
0.000907002
0.00088425
0.000902144
0.000875446
0.000900835
0.000872109
0.000902182
0.00087375
0.000905761
0.000880564
0.000911733
0.000893436
0.00092023
0.0009125
0.000928008
0.000932616
0.000924781
0.000927204
0.00190833
0.00190922
0.00170669
0.00172202
0.00152144
0.00154256
0.00136396
0.00138908
0.00123641
0.00126102
0.00113367
0.00115418
0.00105114
0.00106542
0.000985568
0.000992581
0.000934335
0.000933787
0.000895085
0.000887255
0.000865687
0.000851305
0.000844272
0.000824442
0.000829263
0.000805419
0.00081938
0.000793304
0.000813682
0.000787612
0.000811719
0.000788551
0.000813702
0.000797044
0.000819778
0.000813061
0.000826128
0.0008305
0.000820758
0.000817115
0.0019918
0.00198547
0.00177997
0.00178767
0.00158216
0.00159673
0.00141203
0.0014321
0.00127195
0.001293
0.00115631
0.00117474
0.0010603
0.00107403
0.000980879
0.000988829
0.000915843
0.00091754
0.000863239
0.000858688
0.000821282
0.0008109
0.000788374
0.000772957
0.00076313
0.000743833
0.000744389
0.000722752
0.000731278
0.000709328
0.000723411
0.000703862
0.000721104
0.000707361
0.000724524
0.000719624
0.000729185
0.000733562
0.000721293
0.000711176
0.00206099
0.00204869
0.00183918
0.00184045
0.00163056
0.0016398
0.00145081
0.001467
0.00130164
0.00132022
0.00117621
0.00119369
0.00106951
0.00108388
0.000978773
0.000988914
0.000902138
0.000907414
0.000837953
0.000838135
0.000784713
0.000779962
0.000741097
0.000731951
0.000705978
0.000693339
0.000678429
0.000663567
0.000657783
0.000642416
0.000643843
0.000630297
0.000637099
0.000628254
0.000637686
0.000635801
0.000640273
0.000644909
0.000629294
0.000612518
0.00211613
0.00209952
0.00188369
0.0018798
0.00166675
0.00167267
0.0014814
0.00149634
0.00132642
0.00134525
0.00119378
0.00121282
0.00107882
0.00109604
0.000979257
0.000993445
0.000893424
0.000903845
0.000819831
0.000826137
0.000757152
0.000759363
0.000704272
0.000702765
0.000660296
0.000655803
0.000624547
0.000618171
0.000596629
0.000589896
0.000576655
0.000571561
0.0005654
0.000564114
0.000562947
0.000566355
0.000562917
0.000569
0.000548116
0.000525868
0.00215698
0.00212942
0.00191295
0.00190886
0.00169193
0.0017017
0.00150396
0.00152341
0.00134471
0.00136748
0.00120655
0.00122907
0.00108559
0.00110628
0.000979746
0.000997878
0.000887369
0.000902594
0.000806992
0.000819175
0.000737379
0.000746573
0.000677554
0.000684011
0.000626791
0.00063099
0.000584608
0.00058728
0.000550822
0.000553014
0.000525736
0.000528907
0.000510208
0.000516006
0.000503965
0.000512822
0.000499606
0.000509538
0.000479861
0.000462585
0.00217603
0.00213698
0.00192755
0.00192295
0.00170264
0.00171255
0.00151166
0.00152684
0.00134875
0.00136461
0.00120701
0.0012225
0.00108266
0.00109777
0.00097345
0.000988116
0.00087766
0.000891645
0.000793828
0.000806856
0.000720761
0.000732625
0.000657533
0.000668191
0.000603465
0.000613146
0.000558133
0.000567417
0.000521458
0.000531234
0.00049394
0.000505074
0.000476535
0.000488852
0.000468165
0.000478497
0.0004587
0.000461213
0.000428152
0.000410149
0.000291085
0.000333752
0.000342118
0.00038154
0.000420098
0.000460851
0.000518886
0.000560333
0.000629695
0.000670908
0.000745791
0.000786735
0.00086398
0.000904636
0.000982716
0.00102275
0.00110105
0.00113992
0.00121828
0.00125539
0.00133386
0.00136861
0.00144733
0.00147919
0.00155828
0.00158678
0.00166626
0.00169108
0.0017708
0.0017918
0.00187132
0.00188882
0.00196702
0.00198198
0.00205645
0.00206843
0.0021362
0.00214156
0.00219602
0.0022597
0.000272062
0.000324057
0.000310466
0.00038287
0.00039159
0.000467767
0.000491813
0.000567391
0.00060227
0.000675361
0.000717601
0.000787523
0.000834626
0.000901232
0.000951623
0.00101484
0.00106764
0.0011273
0.00118207
0.00123793
0.00129449
0.00134623
0.00140455
0.00145184
0.00151193
0.00155447
0.0016163
0.00165382
0.00171725
0.00174947
0.00181436
0.00184073
0.00190722
0.00192666
0.00199558
0.0020076
0.00207977
0.0020908
0.00216091
0.00218031
0.000296682
0.000346155
0.000333023
0.000405261
0.000409363
0.000487825
0.000503416
0.000582744
0.000606107
0.000684715
0.000713568
0.000790654
0.000823352
0.000898338
0.000933693
0.00100617
0.00104341
0.00111306
0.00115177
0.00121828
0.00125828
0.00132133
0.00136261
0.0014218
0.00146447
0.00151935
0.00156357
0.00161351
0.00165949
0.00170373
0.00175165
0.00178972
0.00183934
0.00187273
0.00192236
0.00195687
0.00200369
0.00204122
0.00208631
0.00211382
0.000324402
0.000371036
0.000358195
0.000426186
0.000428459
0.000503417
0.000515516
0.000592583
0.000611158
0.000688634
0.000711616
0.000788708
0.000814719
0.000890781
0.000918862
0.000993325
0.00102284
0.00109522
0.0011258
0.00119569
0.00122716
0.00129414
0.0013265
0.00139013
0.00142344
0.00148324
0.00151757
0.00157306
0.00160836
0.00165954
0.00169541
0.00174341
0.0017792
0.00182651
0.00186225
0.00190965
0.00194695
0.00198861
0.00202959
0.0020543
0.000346734
0.000391351
0.000377146
0.000441838
0.00044231
0.000513487
0.000523301
0.000597107
0.000613071
0.000687821
0.000707926
0.000782735
0.000805634
0.000879844
0.000904633
0.000977669
0.00100376
0.0010751
0.00110213
0.00117131
0.00119908
0.00126568
0.00129411
0.00135774
0.00138678
0.00144714
0.00147668
0.0015338
0.00156363
0.00161803
0.00164801
0.00170057
0.0017312
0.00178194
0.00181455
0.00186105
0.00189657
0.00193469
0.00197174
0.00199621
0.000366924
0.000409673
0.000393444
0.00045551
0.000454004
0.000521787
0.000529841
0.000600115
0.00061448
0.000685775
0.000704406
0.000775851
0.000797366
0.000868316
0.000891774
0.00096169
0.000986469
0.00105488
0.00108057
0.00114705
0.00117341
0.0012376
0.00126444
0.0013261
0.00135329
0.00141233
0.00143976
0.00149632
0.00152404
0.00157833
0.00160674
0.00165858
0.00168847
0.00173687
0.00176885
0.0018121
0.00184562
0.00188188
0.00191519
0.00194129
0.000388542
0.000428901
0.000411065
0.000470064
0.000466799
0.000530999
0.000537671
0.000604078
0.000617415
0.000684717
0.000702581
0.000770002
0.000790936
0.00085789
0.000880885
0.000946893
0.000971258
0.00103592
0.00106119
0.00112416
0.00115001
0.00121104
0.00123727
0.00129617
0.00132266
0.00137937
0.00140613
0.00146061
0.00148784
0.00153993
0.00156799
0.00161732
0.00164654
0.00169247
0.00172282
0.00176443
0.00179527
0.00183115
0.00186118
0.00188886
0.000412608
0.000450143
0.000431402
0.000486657
0.000481989
0.000542203
0.000547664
0.000609959
0.000622412
0.000685511
0.000702771
0.00076596
0.000786498
0.000849258
0.000871993
0.000933912
0.000958085
0.00101883
0.00104392
0.00110321
0.00112886
0.0011865
0.0012125
0.00126833
0.00129458
0.00134845
0.001375
0.00142677
0.00145374
0.00150319
0.00153073
0.00157762
0.00160582
0.00164973
0.00167851
0.00171865
0.00174756
0.00178256
0.00181055
0.00183838
0.000438763
0.000473393
0.000454289
0.000505453
0.000499666
0.000555658
0.000559922
0.00061804
0.000629486
0.000688434
0.000704929
0.000763998
0.000783982
0.000842688
0.00086503
0.000923007
0.000946896
0.00100386
0.00102873
0.00108444
0.00110991
0.00116419
0.00119002
0.0012427
0.00126878
0.00131971
0.00134603
0.00139506
0.00142162
0.00146858
0.00149545
0.00154008
0.0015673
0.0016092
0.0016367
0.0016753
0.00170255
0.0017371
0.00176283
0.0017919
0.000466385
0.000498281
0.00047914
0.000526238
0.000519524
0.000571303
0.000574342
0.00062836
0.000638615
0.00069358
0.000709056
0.000764234
0.000783401
0.000838311
0.000860018
0.000914311
0.000937717
0.000991127
0.00101563
0.00106794
0.00109313
0.00114417
0.00116976
0.00121939
0.00124522
0.00129329
0.00131927
0.00136566
0.00139176
0.0014363
0.00146253
0.00150499
0.00153133
0.00157138
0.00159769
0.00163487
0.00166069
0.00169445
0.00171872
0.00174848
0.000494961
0.000524391
0.000505406
0.000548683
0.000541184
0.000588935
0.000590752
0.000640837
0.000649774
0.000700951
0.000715198
0.000766718
0.000784829
0.000836192
0.000857036
0.00090789
0.00093061
0.000980693
0.00100466
0.00105377
0.00107853
0.0011265
0.00115174
0.00119843
0.00122394
0.00126924
0.00129487
0.00133865
0.00136434
0.00140645
0.00143213
0.00147239
0.00149801
0.0015361
0.00156157
0.00159706
0.00162204
0.00165447
0.00167803
0.00170712
0.000524112
0.000551361
0.000532651
0.000572446
0.000564287
0.000608287
0.00060893
0.000655302
0.000662875
0.000710462
0.000723361
0.000771423
0.000788314
0.000836338
0.000856138
0.000903759
0.00092562
0.000972569
0.000995844
0.00104192
0.00106613
0.00111117
0.00113596
0.00117983
0.00120496
0.00124755
0.00127284
0.00131403
0.00133937
0.001379
0.00140431
0.0014422
0.0014674
0.00150328
0.00152827
0.00156189
0.00158628
0.00161742
0.00164027
0.001669
0.000553556
0.000578887
0.000560535
0.000597201
0.000588501
0.000629066
0.000628616
0.000671526
0.000677751
0.000721958
0.00073346
0.000778252
0.000793825
0.000838689
0.00085732
0.000901879
0.000922745
0.000966722
0.000989173
0.00103236
0.0010559
0.00109814
0.00112239
0.00116354
0.00118822
0.00122818
0.00125309
0.00129173
0.00131672
0.00135391
0.00137885
0.00141443
0.00143922
0.00147303
0.0014975
0.00152942
0.00155324
0.00158314
0.00160557
0.00163339
0.000583081
0.000606723
0.000588783
0.000622657
0.000613527
0.000650974
0.000649534
0.000689248
0.000694182
0.000735226
0.000745334
0.000787042
0.000801253
0.000843123
0.000860503
0.000902157
0.000921922
0.000963075
0.000984588
0.00102503
0.00104778
0.00108734
0.00111094
0.0011495
0.00117364
0.00121107
0.00123551
0.00127172
0.00129628
0.00133115
0.00135566
0.00138909
0.00141342
0.00144531
0.00146931
0.00149958
0.00152295
0.00155157
0.00157353
0.00160063
0.000612517
0.000634663
0.000617169
0.000648559
0.000639096
0.000673732
0.000671406
0.000708191
0.000711913
0.000750021
0.00075877
0.000797587
0.000810424
0.000849472
0.00086555
0.000904454
0.000923039
0.000961515
0.00098199
0.00101982
0.00104168
0.0010787
0.00110154
0.00113762
0.00116111
0.00119615
0.00122003
0.00125392
0.00127798
0.00131066
0.00133471
0.00136608
0.00138999
0.00141997
0.0014436
0.00147208
0.00149523
0.00152203
0.00154413
0.00156943
0.000641721
0.000662531
0.000645504
0.000674679
0.000664966
0.000697074
0.000693967
0.000728084
0.000730681
0.000766082
0.000773527
0.000809652
0.000821129
0.000857529
0.000872281
0.000908596
0.000925943
0.00096189
0.000981249
0.00101661
0.00103749
0.00107209
0.00109408
0.00112781
0.00115057
0.00118331
0.00120657
0.00123825
0.00126177
0.00129231
0.00131591
0.00134522
0.00136875
0.00139675
0.00142007
0.00144666
0.00146954
0.00149469
0.00151649
0.00154067
0.000670563
0.000690168
0.000673617
0.000700813
0.000690922
0.000720759
0.000716967
0.000748662
0.000750227
0.000783145
0.000789351
0.000822985
0.000833134
0.000867066
0.000880489
0.000914375
0.000930454
0.000964019
0.000982205
0.00101523
0.00103505
0.00106738
0.00108843
0.00111993
0.00114188
0.00117244
0.001195
0.00122455
0.00124749
0.00127595
0.00129907
0.00132636
0.0013495
0.00137556
0.00139856
0.00142334
0.00144596
0.00146946
0.00149118
0.00151385
0.000698924
0.000717433
0.000701358
0.000726778
0.000716767
0.000744562
0.000740174
0.000769676
0.000770299
0.000800948
0.000805989
0.000837328
0.000846196
0.000877838
0.000889947
0.000921568
0.000936363
0.000967696
0.000984672
0.00101551
0.00103422
0.00106439
0.00108444
0.00111383
0.00113489
0.00116338
0.00118518
0.0012127
0.00123498
0.00126145
0.00128401
0.00130939
0.00133203
0.00135629
0.00137885
0.00140199
0.00142424
0.00144628
0.00146771
0.00148918
0.000726686
0.000744188
0.000728582
0.000752403
0.00074232
0.000768276
0.000763371
0.000790888
0.000790657
0.000819239
0.000823193
0.000852425
0.000860067
0.000889595
0.000900419
0.000929936
0.00094345
0.000972702
0.000988446
0.00101723
0.00103478
0.00106293
0.00108193
0.00110933
0.00112944
0.00115598
0.00117694
0.00120253
0.00122408
0.00124868
0.00127061
0.00129417
0.00131628
0.00133878
0.00136091
0.00138233
0.00140432
0.00142461
0.00144606
0.00146565
0.000753732
0.000770302
0.000755155
0.000777528
0.000767411
0.000791707
0.000786357
0.000812076
0.000811074
0.000837775
0.000840719
0.000868025
0.000874503
0.000902085
0.000911664
0.000939235
0.000951483
0.000978802
0.000993305
0.00102017
0.00103655
0.00106281
0.00108071
0.00110623
0.00112535
0.00115004
0.00117009
0.00119389
0.00121464
0.00123747
0.0012587
0.00128053
0.00130207
0.00132284
0.00134453
0.00136422
0.00138589
0.00140444
0.0014257
0.00144358
0.000779946
0.000795647
0.000780943
0.000802
0.00079188
0.000814674
0.000808939
0.000833031
0.000831333
0.000856326
0.000858335
0.000883884
0.00088926
0.00091506
0.000923439
0.00094922
0.000960226
0.000985759
0.000999024
0.00102412
0.00103929
0.0010638
0.00108056
0.00110435
0.00112241
0.00114539
0.00116448
0.00118658
0.00120646
0.00122764
0.00124809
0.00126831
0.00128915
0.00130838
0.00132943
0.00134767
0.00136869
0.00138598
0.00140655
0.00142353
0.00080521
0.000820093
0.000805815
0.00082567
0.000815571
0.000837003
0.000830935
0.000853553
0.000851229
0.00087467
0.000875818
0.000899766
0.000904107
0.000928278
0.000935507
0.000959647
0.000969444
0.000993333
0.00100537
0.00102883
0.0010428
0.00106568
0.00108128
0.00110347
0.00112043
0.00114182
0.00115989
0.00118044
0.00119938
0.00121902
0.00123862
0.00125734
0.00127741
0.00129519
0.00131556
0.00133241
0.00135292
0.00136875
0.00138917
0.00140428
0.000829401
0.00084351
0.000829638
0.000848392
0.000838332
0.000858524
0.000852172
0.000873452
0.000870564
0.000892598
0.000892952
0.000915445
0.000918816
0.000941501
0.000947636
0.000970276
0.000978902
0.00100129
0.00101212
0.00103408
0.00104685
0.00106823
0.00108267
0.00110336
0.00111921
0.00113913
0.00115615
0.00117523
0.00119322
0.00121142
0.00123015
0.00124743
0.00126674
0.00128307
0.00130279
0.00131816
0.0013381
0.00135252
0.00137233
0.0013863
0.000852394
0.000865766
0.00085228
0.000870019
0.000860012
0.000879072
0.000872476
0.00089254
0.000889147
0.000909903
0.00090953
0.000930701
0.000933166
0.000954501
0.000959598
0.00098087
0.000988372
0.00100938
0.00101905
0.00103962
0.00105121
0.00107121
0.00108449
0.0011038
0.00111853
0.00113708
0.00115304
0.00117076
0.00118775
0.0012046
0.00122243
0.00123838
0.00125687
0.00127187
0.00129086
0.00130488
0.00132417
0.0013372
0.00135646
0.00136911
0.000874058
0.000886723
0.0008736
0.000890402
0.000880458
0.000898483
0.000891679
0.000910636
0.000906791
0.000926387
0.000925348
0.00094532
0.000946941
0.000967051
0.000971167
0.000991197
0.000997621
0.00101738
0.00102591
0.00104523
0.00105566
0.0010744
0.00108652
0.00110457
0.00111818
0.00113546
0.00115035
0.0011668
0.00118279
0.00119836
0.00121525
0.00122995
0.00124756
0.00126135
0.00127952
0.00129238
0.00131094
0.00132274
0.00134148
0.00135256
0.000894255
0.000906234
0.000893456
0.000909386
0.000899514
0.000916587
0.000909609
0.000927557
0.000923309
0.000941852
0.000940205