/*--------------------------------*- C++ -*----------------------------------*\
| =========                 |                                                 |
| \\      /  F ield         | OpenFOAM: The Open Source CFD Toolbox           |
|  \\    /   O peration     | Version:  v2012                                 |
|   \\  /    A nd           | Website:  www.openfoam.com                      |
|    \\/     M anipulation  |                                                 |
\*---------------------------------------------------------------------------*/
FoamFile
{
    version     2.0;
    format      ascii;
    class       volSymmTensorField;
    location    "9";
    object      sigma;
}
// * * * * * * * * * * * * * * * * * * * * * * * * * * * * * * * * * * * * * //

dimensions      [1 -1 -2 0 0 0 0];


internalField   nonuniform List<symmTensor> 
8000
(
(2.81902e+08 -7.31474e+06 0 1.70523e+06 0 1.39421e+08)
(2.85574e+08 -6.1345e+06 -5.20981e-09 5.50983e+06 2.27228e-08 1.35093e+08)
(2.90397e+08 -5.73066e+06 8.68356e-08 1.02851e+07 7.62306e-09 1.40169e+08)
(2.91915e+08 -7.16462e+06 8.64812e-08 1.19323e+07 -1.40084e-09 1.41808e+08)
(2.97225e+08 -4.64636e+06 8.72022e-08 1.71304e+07 5.27888e-09 1.45151e+08)
(2.98472e+08 -7.33764e+06 2.34419e-08 1.85988e+07 -6.0464e-08 1.46677e+08)
(3.0352e+08 -4.0944e+06 -8.80695e-08 2.35594e+07 -4.38909e-09 1.48861e+08)
(3.04823e+08 -7.25146e+06 -5.56004e-08 2.51264e+07 2.8901e-08 1.50191e+08)
(3.0957e+08 -3.88884e+06 0 2.9814e+07 0 1.52192e+08)
(3.10939e+08 -7.07713e+06 1.01164e-07 3.14646e+07 6.15219e-08 1.53335e+08)
(3.15398e+08 -3.89549e+06 1.8028e-07 3.59233e+07 8.10549e-09 1.55072e+08)
(3.16803e+08 -6.83772e+06 7.82996e-08 3.76237e+07 -5.73026e-08 1.5593e+08)
(3.20982e+08 -4.0583e+06 5.69553e-08 4.18951e+07 -2.21915e-08 1.57305e+08)
(3.22389e+08 -6.50908e+06 5.71174e-08 4.36123e+07 -2.33997e-08 1.57806e+08)
(3.26268e+08 -4.35528e+06 -1.14851e-07 4.77153e+07 4.08774e-08 1.58734e+08)
(3.27638e+08 -6.04341e+06 -8.11373e-08 4.94201e+07 3.07802e-08 1.58772e+08)
(3.31164e+08 -4.78237e+06 -1.52969e-07 5.33473e+07 1.32776e-08 1.59181e+08)
(3.3245e+08 -5.37513e+06 -1.58015e-07 5.50087e+07 -1.82579e-08 1.5863e+08)
(3.35519e+08 -5.32216e+06 -1.16085e-07 5.87056e+07 -6.6657e-08 1.5845e+08)
(3.36649e+08 -4.42805e+06 -7.26666e-08 6.02949e+07 -1.23129e-08 1.57105e+08)
(3.39111e+08 -5.93068e+06 -5.93375e-08 6.36504e+07 1.3886e-08 1.56275e+08)
(3.3999e+08 -3.12954e+06 -1.79302e-07 6.51396e+07 -3.46696e-08 1.53958e+08)
(3.41678e+08 -6.5388e+06 -2.05697e-07 6.79864e+07 -1.56321e-08 1.52484e+08)
(3.42193e+08 -1.42625e+06 -1.66771e-07 6.93441e+07 -2.27172e-09 1.49129e+08)
(3.42988e+08 -7.0624e+06 -4.47147e-08 7.14777e+07 -1.74999e-08 1.47142e+08)
(3.43027e+08 690474 5.59428e-09 7.26728e+07 1.08176e-08 1.42821e+08)
(3.42886e+08 -7.38754e+06 -1.54881e-08 7.3872e+07 2.20104e-08 1.40491e+08)
(3.42361e+08 3.0861e+06 -3.19673e-08 7.50237e+07 -7.50676e-10 1.35081e+08)
(3.41067e+08 -7.37152e+06 -4.84573e-08 7.49648e+07 -1.43335e-08 1.32003e+08)
(3.39444e+08 5.95922e+06 -7.99923e-08 7.56065e+07 -1.59393e-08 1.2546e+08)
(3.3108e+08 -6.81089e+06 0 7.5288e+07 0 1.2369e+08)
(3.27856e+08 9.0931e+06 8.40801e-08 7.37333e+07 2.30308e-08 1.17518e+08)
(3.10575e+08 -4.58339e+06 1.0096e-07 7.46049e+07 9.1685e-09 1.18206e+08)
(3.08995e+08 1.04915e+07 6.06888e-08 7.05288e+07 4.00373e-09 1.12069e+08)
(2.92079e+08 -2.97795e+06 5.38655e-08 7.16933e+07 -1.46823e-09 1.11351e+08)
(2.91503e+08 1.10425e+07 9.571e-08 6.69157e+07 1.72162e-08 1.06e+08)
(2.75984e+08 -2.11543e+06 -6.35885e-08 6.7594e+07 1.17184e-08 1.0496e+08)
(2.75741e+08 1.13336e+07 -1.18935e-07 6.30301e+07 -1.98674e-08 1.00114e+08)
(2.61296e+08 -1.74986e+06 -7.07336e-08 6.28655e+07 -1.73878e-08 9.90908e+07)
(2.60464e+08 1.19603e+07 2.79777e-08 5.87788e+07 5.87706e-09 9.51918e+07)
(2.80805e+08 -1.53928e+07 2.36727e-08 1.98309e+06 -1.27793e-08 1.35735e+08)
(2.84257e+08 -1.79955e+07 1.2958e-07 6.41409e+06 -2.77528e-08 1.3192e+08)
(2.88118e+08 -1.51011e+07 -5.69216e-08 9.4222e+06 3.68731e-08 1.38219e+08)
(2.90844e+08 -1.81575e+07 -5.23662e-08 1.3026e+07 1.44021e-08 1.38795e+08)
(2.94847e+08 -1.48613e+07 -8.62138e-08 1.61379e+07 4.28715e-09 1.44214e+08)
(2.97341e+08 -1.81716e+07 -5.29604e-08 1.96127e+07 1.32102e-08 1.44037e+08)
(3.01255e+08 -1.47691e+07 -8.71783e-08 2.26616e+07 2.26073e-09 1.4839e+08)
(3.03655e+08 -1.80039e+07 -5.14913e-08 2.60767e+07 -9.29579e-09 1.47854e+08)
(3.07446e+08 -1.48146e+07 -1.41876e-07 2.90651e+07 6.90909e-09 1.5186e+08)
(3.09757e+08 -1.77156e+07 -7.78538e-08 3.23674e+07 6.51977e-08 1.51097e+08)
(3.13398e+08 -1.49481e+07 7.52527e-08 3.53299e+07 -5.74681e-08 1.54679e+08)
(3.15582e+08 -1.73179e+07 4.2606e-08 3.84468e+07 -6.47319e-08 1.53642e+08)
(3.19073e+08 -1.51422e+07 0 4.14591e+07 0 1.56619e+08)
(3.21054e+08 -1.67679e+07 -3.56756e-08 4.42707e+07 -5.14159e-09 1.55295e+08)
(3.24407e+08 -1.53608e+07 -9.442e-08 4.7442e+07 7.2282e-08 1.57482e+08)
(3.26066e+08 -1.59743e+07 -2.11639e-07 4.9768e+07 2.24623e-08 1.55851e+08)
(3.2927e+08 -1.55201e+07 -8.04544e-09 5.32052e+07 -3.54504e-08 1.57069e+08)
(3.30459e+08 -1.48032e+07 4.06592e-08 5.48298e+07 2.26114e-08 1.55054e+08)
(3.33466e+08 -1.549e+07 1.36491e-07 5.86107e+07 -2.73373e-08 1.55173e+08)
(3.34023e+08 -1.30967e+07 1.89279e-07 5.9304e+07 9.84367e-09 1.52712e+08)
(3.36752e+08 -1.51041e+07 1.01276e-07 6.34465e+07 6.08429e-08 1.517e+08)
(3.3652e+08 -1.07143e+07 -6.98086e-09 6.30202e+07 -1.33161e-08 1.48748e+08)
(3.38874e+08 -1.41886e+07 -1.07114e-07 6.74381e+07 -2.04258e-08 1.46702e+08)
(3.3774e+08 -7.57542e+06 -6.77156e-08 6.58179e+07 -1.22367e-08 1.43292e+08)
(3.39657e+08 -1.26181e+07 -9.33472e-08 7.02961e+07 -3.31307e-08 1.40518e+08)
(3.37633e+08 -3.76904e+06 -9.99685e-09 6.76538e+07 -1.08496e-08 1.36767e+08)
(3.39096e+08 -1.0362e+07 -3.03122e-08 7.18763e+07 -5.57454e-09 1.33567e+08)
(3.36232e+08 422225 4.40033e-08 6.8707e+07 3.67821e-08 1.29181e+08)
(3.3687e+08 -7.40098e+06 1.48172e-07 7.20866e+07 3.99261e-08 1.25092e+08)
(3.32571e+08 5.3933e+06 2.92749e-08 6.77832e+07 -8.44452e-09 1.2032e+08)
(3.24526e+08 -3.05196e+06 -7.15686e-08 7.16904e+07 -1.99512e-08 1.19147e+08)
(3.19595e+08 1.10029e+07 -2.139e-08 6.54751e+07 -1.13024e-09 1.14591e+08)
(3.07268e+08 2.15448e+06 5.59781e-08 6.9599e+07 1.14459e-08 1.13729e+08)
(3.03876e+08 1.48897e+07 2.16821e-08 6.27248e+07 1.49775e-09 1.09112e+08)
(2.90991e+08 5.79445e+06 0 6.6796e+07 0 1.07715e+08)
(2.88982e+08 1.73745e+07 4.20019e-08 5.96449e+07 2.11779e-08 1.03744e+08)
(2.76154e+08 8.1004e+06 1.03193e-07 6.35506e+07 3.74514e-08 1.01905e+08)
(2.74902e+08 1.89805e+07 -7.03406e-08 5.62798e+07 -3.31963e-08 9.86226e+07)
(2.62067e+08 9.52784e+06 -5.6522e-08 6.0015e+07 -1.76199e-08 9.62884e+07)
(2.60694e+08 2.01586e+07 -1.3646e-07 5.27728e+07 -5.77435e-08 9.41169e+07)
(2.7862e+08 -2.66614e+07 -3.21828e-08 3.17546e+06 2.4744e-08 1.37111e+08)
(2.82763e+08 -2.84495e+07 -1.14925e-07 8.44623e+06 8.48586e-08 1.32062e+08)
(2.86342e+08 -2.6092e+07 -1.95399e-08 1.08905e+07 4.152e-08 1.38539e+08)
(2.89059e+08 -2.87759e+07 -5.19958e-08 1.48682e+07 1.83622e-08 1.38566e+08)
(2.9321e+08 -2.5873e+07 5.8306e-08 1.77709e+07 -6.07506e-08 1.43632e+08)
(2.95431e+08 -2.88088e+07 2.13792e-08 2.13569e+07 -4.11394e-08 1.435e+08)
(2.99667e+08 -2.58339e+07 1.50236e-08 2.43986e+07 4.02551e-08 1.47288e+08)
(3.01641e+08 -2.86184e+07 -5.5933e-08 2.77054e+07 3.60034e-08 1.4702e+08)
(3.0586e+08 -2.59073e+07 -1.95126e-08 3.08898e+07 3.43954e-08 1.50243e+08)
(3.0763e+08 -2.82349e+07 -5.58077e-08 3.38405e+07 3.25931e-08 1.49836e+08)
(3.11779e+08 -2.60469e+07 -1.6986e-08 3.72537e+07 -3.54e-08 1.52367e+08)
(3.13296e+08 -2.76271e+07 9.15966e-08 3.9687e+07 -2.46621e-08 1.51734e+08)
(3.17341e+08 -2.61901e+07 -3.6682e-08 4.34593e+07 -4.95275e-09 1.53327e+08)
(3.18482e+08 -2.66917e+07 7.59819e-08 4.5114e+07 2.79694e-08 1.52403e+08)
(3.22386e+08 -2.61944e+07 1.35047e-07 4.93772e+07 1.28333e-08 1.5286e+08)
(3.22985e+08 -2.52677e+07 1.76562e-08 4.99413e+07 -2.44317e-08 1.51546e+08)
(3.2669e+08 -2.58487e+07 0 5.47917e+07 0 1.50764e+08)
(3.26556e+08 -2.31543e+07 8.54416e-08 5.39569e+07 3.33564e-08 1.48931e+08)
(3.29988e+08 -2.4886e+07 -7.13138e-08 5.9391e+07 -5.93963e-09 1.47002e+08)
(3.2896e+08 -2.01621e+07 -9.32567e-09 5.69599e+07 -1.35129e-08 1.44572e+08)
(3.32045e+08 -2.30412e+07 -1.28455e-08 6.28082e+07 -1.28898e-08 1.41839e+08)
(3.30042e+08 -1.61974e+07 4.21367e-08 5.88275e+07 1.47297e-08 1.38813e+08)
(3.32744e+08 -2.01521e+07 4.33868e-08 6.4751e+07 1.49522e-08 1.35775e+08)
(3.29812e+08 -1.13546e+07 -9.98331e-08 5.96032e+07 -4.58234e-08 1.32238e+08)
(3.32161e+08 -1.62193e+07 -1.85327e-07 6.51167e+07 -5.7905e-08 1.29536e+08)
(3.28443e+08 -5.9032e+06 -1.58202e-07 5.94552e+07 -5.92994e-08 1.25547e+08)
(3.30467e+08 -1.13824e+07 -1.23645e-07 6.41133e+07 -5.68405e-08 1.23452e+08)
(3.2596e+08 -27158.4 1.5325e-08 5.85056e+07 9.596e-09 1.18747e+08)
(3.26725e+08 -5.71424e+06 7.5393e-08 6.19624e+07 3.28714e-08 1.16894e+08)
(3.20826e+08 6.87533e+06 1.51823e-09 5.5845e+07 -3.93936e-09 1.12246e+08)
(3.1421e+08 1.40895e+06 -7.16324e-08 5.98905e+07 -3.20756e-08 1.13268e+08)
(3.0945e+08 1.32869e+07 -5.79698e-08 5.30237e+07 -2.61162e-08 1.08081e+08)
(3.00644e+08 7.34273e+06 -9.19672e-08 5.7426e+07 -4.01085e-08 1.08512e+08)
(2.97256e+08 1.80535e+07 -7.93475e-08 5.04424e+07 -4.35799e-08 1.03547e+08)
(2.87383e+08 1.16703e+07 -9.37444e-08 5.4934e+07 -5.14114e-08 1.03647e+08)
(2.85173e+08 2.15058e+07 5.57592e-08 4.78585e+07 3.69157e-08 9.91491e+07)
(2.74569e+08 1.47179e+07 1.04813e-07 5.23786e+07 5.43375e-08 9.87919e+07)
(2.73168e+08 2.40006e+07 1.94218e-08 4.51521e+07 5.84022e-09 9.47945e+07)
(2.61939e+08 1.68306e+07 0 4.97288e+07 0 9.37955e+07)
(2.6068e+08 2.57914e+07 1.6348e-08 4.23041e+07 1.21618e-08 9.092e+07)
(2.76305e+08 -3.72857e+07 0 5.85933e+06 0 1.3634e+08)
(2.79971e+08 -3.90855e+07 0 1.09754e+07 0 1.31439e+08)
(2.83914e+08 -3.68833e+07 3.47262e-08 1.34997e+07 2.83396e-10 1.3753e+08)
(2.86338e+08 -3.92193e+07 -3.46766e-08 1.74452e+07 2.2692e-10 1.37502e+08)
(2.90759e+08 -3.67269e+07 -3.47973e-08 2.03843e+07 -6.41451e-10 1.42321e+08)
(2.92664e+08 -3.91365e+07 0 2.38589e+07 0 1.42084e+08)
(2.97173e+08 -3.67132e+07 0 2.70457e+07 0 1.45416e+08)
(2.98744e+08 -3.88048e+07 -1.54342e-09 3.00257e+07 2.08906e-08 1.45037e+08)
(3.03292e+08 -3.6797e+07 1.44725e-07 3.3615e+07 -3.94226e-08 1.47409e+08)
(3.04506e+08 -3.81766e+07 7.35195e-08 3.58381e+07 -6.74772e-08 1.46935e+08)
(3.09037e+08 -3.68562e+07 -1.63175e-08 4.00221e+07 2.96339e-08 1.48128e+08)
(3.09767e+08 -3.71122e+07 -5.7233e-08 4.11105e+07 7.9275e-09 1.47421e+08)
(3.14203e+08 -3.66605e+07 -5.93202e-08 4.60387e+07 6.07642e-10 1.47215e+08)
(3.14266e+08 -3.54007e+07 -9.3285e-09 4.55799e+07 4.14115e-08 1.46085e+08)
(3.18517e+08 -3.59221e+07 6.25632e-08 5.13429e+07 5.97453e-09 1.44414e+08)
(3.17708e+08 -3.27809e+07 3.84279e-09 4.89471e+07 -3.35129e-08 1.42696e+08)
(3.21664e+08 -3.42895e+07 -1.28752e-08 5.54711e+07 -1.36624e-08 1.39805e+08)
(3.19847e+08 -2.90362e+07 1.19954e-08 5.09731e+07 1.29838e-08 1.37452e+08)
(3.23415e+08 -3.14261e+07 1.06979e-07 5.78965e+07 4.38963e-08 1.33987e+08)
(3.20601e+08 -2.41481e+07 -1.05548e-07 5.16061e+07 -4.88316e-08 1.31051e+08)
(3.23754e+08 -2.72306e+07 -7.27304e-08 5.83638e+07 -2.87766e-08 1.27811e+08)
(3.20096e+08 -1.83595e+07 1.02089e-07 5.10338e+07 5.48793e-08 1.24395e+08)
(3.2289e+08 -2.18671e+07 1.29296e-07 5.70635e+07 5.98696e-08 1.22031e+08)
(3.18612e+08 -1.20577e+07 6.35926e-08 4.95989e+07 3.2262e-08 1.1825e+08)
(3.21138e+08 -1.57175e+07 8.57812e-08 5.45589e+07 4.17467e-08 1.17071e+08)
(3.16436e+08 -5.59826e+06 5.54804e-08 4.76773e+07 2.86751e-08 1.12908e+08)
(3.18646e+08 -9.10289e+06 7.6668e-08 5.13913e+07 4.18238e-08 1.12688e+08)
(3.13439e+08 1.1412e+06 1.16516e-08 4.515e+07 8.48583e-09 1.08156e+08)
(3.12905e+08 -2.25313e+06 -5.62439e-08 4.85852e+07 -3.25578e-08 1.08905e+08)
(3.07846e+08 8.42004e+06 -1.17243e-07 4.19879e+07 -7.07172e-08 1.04324e+08)
(3.03561e+08 4.77384e+06 -1.13579e-07 4.5879e+07 -6.50961e-08 1.05697e+08)
(2.99465e+08 1.45683e+07 -1.26906e-07 3.94012e+07 -7.87453e-08 1.00902e+08)
(2.93312e+08 1.05567e+07 -1.38605e-07 4.35548e+07 -8.13414e-08 1.02018e+08)
(2.90238e+08 1.94868e+07 -1.24498e-07 3.71946e+07 -7.62343e-08 9.73998e+07)
(2.82804e+08 1.50811e+07 -8.59796e-08 4.15075e+07 -5.3588e-08 9.82166e+07)
(2.80608e+08 2.33623e+07 8.40956e-08 3.5138e+07 5.67488e-08 9.39058e+07)
(2.72131e+08 1.85886e+07 1.27504e-08 3.95721e+07 9.52328e-09 9.42554e+07)
(2.70627e+08 2.63841e+07 3.38015e-08 3.30991e+07 2.27554e-08 9.03047e+07)
(2.61248e+08 2.1287e+07 -8.04288e-08 3.76607e+07 -4.95749e-08 9.00388e+07)
(2.59948e+08 2.86912e+07 -8.51882e-08 3.10013e+07 -5.91212e-08 8.70771e+07)
(2.72846e+08 -4.79814e+07 -1.37914e-11 9.24983e+06 -1.46107e-10 1.35575e+08)
(2.76489e+08 -4.925e+07 2.95191e-08 1.4321e+07 2.13951e-08 1.30465e+08)
(2.80498e+08 -4.75889e+07 -3.82532e-09 1.69383e+07 2.52617e-08 1.36186e+08)
(2.82757e+08 -4.92746e+07 -3.09131e-08 2.06726e+07 -2.11007e-08 1.35937e+08)
(2.87359e+08 -4.74578e+07 -3.32559e-08 2.39145e+07 -2.32305e-08 1.4015e+08)
(2.88978e+08 -4.89993e+07 6.86785e-08 2.68929e+07 2.02196e-08 1.39775e+08)
(2.93731e+08 -4.74745e+07 5.33653e-08 3.07267e+07 -1.34014e-08 1.41998e+08)
(2.94833e+08 -4.83424e+07 5.39253e-08 3.26825e+07 -3.60283e-08 1.41487e+08)
(2.99649e+08 -4.74532e+07 -3.86394e-08 3.7363e+07 -3.10767e-09 1.42085e+08)
(3.00113e+08 -4.71162e+07 -4.19822e-08 3.7739e+07 -2.22029e-08 1.41376e+08)
(3.04887e+08 -4.70238e+07 -7.12663e-09 4.34455e+07 -1.72889e-08 1.40229e+08)
(3.04512e+08 -4.5036e+07 8.95715e-08 4.16962e+07 3.20149e-08 1.39042e+08)
(3.09123e+08 -4.58047e+07 5.57966e-08 4.85336e+07 2.51293e-08 1.36115e+08)
(3.07687e+08 -4.17531e+07 8.87695e-08 4.41479e+07 2.59951e-08 1.34333e+08)
(3.11984e+08 -4.33522e+07 0 5.19214e+07 0 1.30124e+08)
(3.0943e+08 -3.70738e+07 4.74001e-08 4.48692e+07 1.84722e-08 1.2784e+08)
(3.13268e+08 -3.93199e+07 -1.01918e-07 5.28413e+07 -3.91965e-08 1.2352e+08)
(3.09806e+08 -3.12176e+07 -2.70311e-09 4.40458e+07 6.62185e-10 1.20766e+08)
(3.13191e+08 -3.37288e+07 1.64755e-09 5.12787e+07 4.29585e-09 1.17524e+08)
(3.0913e+08 -2.4687e+07 -1.41621e-07 4.21461e+07 -6.74783e-08 1.14315e+08)
(3.12133e+08 -2.70791e+07 -1.0195e-07 4.8031e+07 -5.1767e-08 1.12725e+08)
(3.07752e+08 -1.79503e+07 -8.27822e-08 3.96321e+07 -5.84003e-08 1.09147e+08)
(3.10455e+08 -2.00302e+07 1.3257e-07 4.41654e+07 8.54771e-08 1.09024e+08)
(3.05934e+08 -1.12631e+07 3.21693e-08 3.68646e+07 2.9837e-08 1.05296e+08)
(3.08374e+08 -1.31223e+07 1.03363e-08 4.03584e+07 -1.27487e-08 1.06115e+08)
(3.03787e+08 -4.69447e+06 -6.37296e-08 3.41627e+07 -5.32066e-08 1.02191e+08)
(3.05706e+08 -6.48141e+06 -1.02847e-07 3.70585e+07 -6.92848e-08 1.03252e+08)
(3.01037e+08 1.94654e+06 -2.97084e-08 3.12822e+07 -2.13005e-08 9.93622e+07)
(3.00329e+08 296880 -6.43146e-08 3.4395e+07 -3.79565e-08 1.0109e+08)
(2.96257e+08 8.48946e+06 2.6418e-08 2.87593e+07 1.93802e-08 9.69361e+07)
(2.935e+08 6.49292e+06 -7.33034e-08 3.22214e+07 -4.84619e-08 9.85168e+07)
(2.90089e+08 1.42267e+07 -1.13828e-07 2.67471e+07 -7.82933e-08 9.43397e+07)
(2.85756e+08 1.18525e+07 -7.07061e-08 3.045e+07 -4.77726e-08 9.57194e+07)
(2.83043e+08 1.91239e+07 -1.23964e-07 2.50367e+07 -8.69809e-08 9.16573e+07)
(2.77447e+08 1.63723e+07 -1.73347e-07 2.89306e+07 -1.19861e-07 9.27626e+07)
(2.75388e+08 2.3232e+07 -8.47339e-08 2.34798e+07 -6.05003e-08 8.88924e+07)
(2.68699e+08 2.01413e+07 -1.41796e-08 2.75408e+07 -1.01381e-08 8.95883e+07)
(2.67218e+08 2.66105e+07 -3.5059e-08 2.19892e+07 -2.60823e-08 8.59689e+07)
(2.59582e+08 2.32521e+07 6.6394e-08 2.62099e+07 4.85205e-08 8.61231e+07)
(2.58259e+08 2.93303e+07 3.30262e-08 2.05035e+07 2.53833e-08 8.33159e+07)
(2.68614e+08 -5.84125e+07 -5.34597e-08 1.36275e+07 2.2036e-08 1.34081e+08)
(2.72137e+08 -5.89968e+07 -1.93941e-08 1.82532e+07 4.77203e-08 1.28929e+08)
(2.76201e+08 -5.81041e+07 0 2.13975e+07 0 1.33726e+08)
(2.78293e+08 -5.87846e+07 -6.70285e-08 2.43766e+07 -4.03648e-08 1.33257e+08)
(2.8302e+08 -5.80484e+07 -9.01928e-08 2.85952e+07 -6.0526e-09 1.3603e+08)
(2.84261e+08 -5.80849e+07 -5.26788e-08 3.00847e+07 3.84864e-08 1.3542e+08)
(2.89142e+08 -5.79223e+07 5.15261e-08 3.54764e+07 -2.84787e-08 1.35392e+08)
(2.89533e+08 -5.65895e+07 1.57602e-08 3.4776e+07 -1.36672e-08 1.34479e+08)
(2.94375e+08 -5.72225e+07 5.31398e-08 4.15525e+07 2.34974e-08 1.32097e+08)
(2.93761e+08 -5.39491e+07 -1.06638e-07 3.79403e+07 -4.96613e-08 1.30715e+08)
(2.98392e+08 -5.54756e+07 -1.2943e-07 4.62647e+07 -3.87086e-08 1.26066e+08)
(2.96602e+08 -4.97941e+07 -1.63e-07 3.9157e+07 -5.01704e-08 1.24264e+08)
(3.00812e+08 -5.20804e+07 -1.20968e-07 4.85019e+07 -4.17676e-08 1.18385e+08)
(2.97962e+08 -4.41375e+07 -2.97493e-07 3.8407e+07 -1.33506e-07 1.16433e+08)
(3.01624e+08 -4.66549e+07 -1.57575e-07 4.71768e+07 -7.13394e-08 1.11459e+08)
(2.9814e+08 -3.75809e+07 4.49082e-09 3.62338e+07 -6.64011e-09 1.09172e+08)
(3.01273e+08 -3.96842e+07 1.59316e-07 4.29901e+07 1.11233e-07 1.06619e+08)
(2.97555e+08 -3.08447e+07 2.3592e-07 3.32908e+07 1.41333e-07 1.03633e+08)
(3.0039e+08 -3.19948e+07 2.4629e-07 3.79814e+07 1.28671e-07 1.0335e+08)
(2.96606e+08 -2.41197e+07 1.33367e-07 3.00136e+07 8.77031e-08 1.00062e+08)
(2.99243e+08 -2.45489e+07 8.11791e-08 3.34956e+07 6.75051e-08 1.00989e+08)
(2.95554e+08 -1.76515e+07 2.10735e-07 2.7112e+07 1.44503e-07 9.75504e+07)
(2.97971e+08 -1.77425e+07 5.42215e-08 2.99457e+07 3.00697e-08 9.89468e+07)
(2.94029e+08 -1.13487e+07 1.06754e-07 2.46437e+07 8.08747e-08 9.57582e+07)
(2.9595e+08 -1.13e+07 4.93838e-08 2.7081e+07 3.20336e-08 9.74169e+07)
(2.91987e+08 -5.03032e+06 -4.88457e-08 2.23487e+07 -3.25876e-08 9.42492e+07)
(2.93105e+08 -5.16398e+06 1.50391e-07 2.47404e+07 1.07694e-07 9.58378e+07)
(2.89427e+08 1.31212e+06 -3.6383e-08 2.00586e+07 -1.78303e-08 9.2573e+07)
(2.89058e+08 818723 3.36998e-08 2.27432e+07 1.68591e-08 9.41054e+07)
(2.85721e+08 7.29518e+06 -8.30219e-08 1.81306e+07 -6.68828e-08 9.07125e+07)
(2.83925e+08 6.43922e+06 6.13729e-08 2.10678e+07 3.97304e-08 9.21508e+07)
(2.81037e+08 1.27431e+07 2.53578e-08 1.64929e+07 2.06822e-08 8.86989e+07)
(2.77971e+08 1.1533e+07 -7.19688e-08 1.96646e+07 -5.29387e-08 9.0006e+07)
(2.7559e+08 1.75845e+07 -1.26826e-07 1.50708e+07 -9.38392e-08 8.65783e+07)
(2.71405e+08 1.60419e+07 -1.39234e-07 1.84586e+07 -1.0489e-07 8.76897e+07)
(2.69532e+08 2.18046e+07 -7.06026e-08 1.3801e+07 -5.76513e-08 8.43565e+07)
(2.64336e+08 1.99753e+07 1.5663e-08 1.73828e+07 1.3968e-08 8.51616e+07)
(2.62937e+08 2.54043e+07 -6.94405e-08 1.26361e+07 -5.2907e-08 8.1976e+07)
(2.56849e+08 2.33724e+07 -1.15312e-07 1.63872e+07 -9.27684e-08 8.23454e+07)
(2.55544e+08 2.84254e+07 -1.21994e-07 1.15312e+07 -1.00428e-07 7.97894e+07)
(2.63443e+08 -6.86759e+07 3.47724e-08 1.90295e+07 -7.50679e-09 1.31417e+08)
(2.66971e+08 -6.80349e+07 3.45631e-08 2.25218e+07 1.96681e-08 1.26139e+08)
(2.70931e+08 -6.84466e+07 9.01629e-08 2.7091e+07 -1.85866e-08 1.28992e+08)
(2.72821e+08 -6.72358e+07 5.12689e-08 2.78885e+07 -3.90666e-08 1.2815e+08)
(2.77411e+08 -6.82036e+07 0 3.43509e+07 0 1.27861e+08)
(2.78108e+08 -6.54045e+07 5.87307e-09 3.20121e+07 1.71677e-08 1.26892e+08)
(2.82648e+08 -6.71736e+07 -3.56497e-08 4.03625e+07 4.68063e-09 1.22963e+08)
(2.82228e+08 -6.21786e+07 3.66808e-08 3.42794e+07 -5.46368e-12 1.21627e+08)
(2.86397e+08 -6.49123e+07 -7.45743e-08 4.46789e+07 -2.66673e-08 1.14671e+08)
(2.84873e+08 -5.73823e+07 0 3.4466e+07 0 1.13375e+08)
(2.88267e+08 -6.0624e+07 -1.10532e-08 4.51042e+07 7.00449e-09 1.06048e+08)
(2.86144e+08 -5.12517e+07 2.82179e-07 3.27334e+07 1.43338e-07 1.0461e+08)
(2.88972e+08 -5.34392e+07 2.35995e-07 4.028e+07 1.18278e-07 1.00627e+08)
(2.86515e+08 -4.48432e+07 -1.03315e-07 2.99274e+07 -2.45221e-08 9.79031e+07)
(2.89281e+08 -4.49393e+07 -8.26875e-08 3.40348e+07 -5.56902e-08 9.74119e+07)
(2.85444e+08 -3.78024e+07 9.2237e-09 2.6934e+07 -1.69648e-08 9.46514e+07)
(2.8832e+08 -3.6616e+07 -6.47192e-08 2.91656e+07 -1.84713e-08 9.57439e+07)
(2.8445e+08 -3.07707e+07 -3.65532e-08 2.39331e+07 -1.37982e-08 9.29862e+07)
(2.87379e+08 -2.94078e+07 8.43646e-08 2.57044e+07 4.07341e-08 9.42948e+07)
(2.83876e+08 -2.41709e+07 5.58422e-08 2.1283e+07 3.542e-08 9.16672e+07)
(2.86566e+08 -2.30136e+07 -5.39097e-08 2.29608e+07 -3.45953e-08 9.30372e+07)
(2.83281e+08 -1.78094e+07 -2.39154e-08 1.8826e+07 -6.61074e-09 9.0559e+07)
(2.8554e+08 -1.70098e+07 -8.08698e-08 2.05244e+07 -5.76473e-08 9.19203e+07)
(2.82362e+08 -1.1637e+07 -3.38438e-08 1.64255e+07 -4.3607e-08 8.94937e+07)
(2.83972e+08 -1.11595e+07 7.98193e-08 1.8272e+07 5.75195e-08 9.08124e+07)
(2.80874e+08 -5.63883e+06 1.26887e-07 1.41409e+07 9.19299e-08 8.83335e+07)
(2.81645e+08 -5.39402e+06 1.44069e-07 1.62039e+07 1.22551e-07 8.96065e+07)
(2.78701e+08 209576 3.90427e-07 1.20779e+07 2.82262e-07 8.69788e+07)
(2.78488e+08 203790 2.85229e-07 1.43634e+07 1.96549e-07 8.82255e+07)
(2.75788e+08 5.76408e+06 5.04584e-08 1.02613e+07 5.64018e-08 8.54593e+07)
(2.74556e+08 5.50143e+06 -8.7636e-08 1.27714e+07 -7.31097e-08 8.66705e+07)
(2.72179e+08 1.09174e+07 -1.30127e-07 8.68494e+06 -1.06152e-07 8.38165e+07)
(2.69962e+08 1.03981e+07 3.67717e-08 1.14142e+07 3.75215e-08 8.49637e+07)
(2.67957e+08 1.56051e+07 3.13127e-08 7.32194e+06 2.60768e-08 8.20841e+07)
(2.6482e+08 1.4841e+07 9.51715e-08 1.02582e+07 7.04715e-08 8.31162e+07)
(2.63202e+08 1.97914e+07 1.08668e-07 6.14042e+06 8.13396e-08 8.02686e+07)
(2.59202e+08 1.88205e+07 1.90229e-07 9.26264e+06 1.58249e-07 8.1092e+07)
(2.5795e+08 2.34566e+07 1.38116e-07 5.11016e+06 1.20726e-07 7.83168e+07)
(2.53165e+08 2.23577e+07 1.37615e-07 8.38528e+06 1.14015e-07 7.88057e+07)
(2.51941e+08 2.6635e+07 1.27484e-07 4.19504e+06 1.07565e-07 7.65112e+07)
(2.57224e+08 -7.87983e+07 -4.9596e-08 2.58091e+07 2.18573e-08 1.25486e+08)
(2.60789e+08 -7.58766e+07 -9.37094e-08 2.6298e+07 1.63938e-08 1.20355e+08)
(2.64247e+08 -7.82866e+07 3.95433e-08 3.39417e+07 -6.75816e-08 1.19393e+08)
(2.66003e+08 -7.38154e+07 1.69501e-07 2.98636e+07 1.73998e-08 1.18241e+08)
(2.69678e+08 -7.69546e+07 2.05046e-07 4.00452e+07 5.91468e-08 1.13213e+08)
(2.70269e+08 -7.04264e+07 -2.44794e-08 3.18124e+07 -2.11952e-08 1.12014e+08)
(2.73347e+08 -7.42827e+07 3.57808e-08 4.40667e+07 2.05109e-08 1.03315e+08)
(2.73122e+08 -6.56021e+07 -3.84376e-08 3.19744e+07 -2.56806e-08 1.0231e+08)
(2.75632e+08 -6.8228e+07 1.02419e-07 4.14124e+07 3.34695e-08 9.57538e+07)
(2.74693e+08 -6.00526e+07 -2.01802e-07 3.05023e+07 -7.52855e-08 9.33659e+07)
(2.7572e+08 -5.87242e+07 -2.3347e-07 3.45442e+07 -1.51778e-07 9.3111e+07)
(2.72028e+08 -5.17091e+07 6.53681e-08 2.7877e+07 -3.92868e-08 9.0818e+07)
(2.74873e+08 -4.9527e+07 8.30503e-08 2.9195e+07 5.86455e-08 9.17088e+07)
(2.71796e+08 -4.39789e+07 -4.15036e-08 2.45177e+07 1.83092e-08 8.90028e+07)
(2.74995e+08 -4.21292e+07 -8.3218e-08 2.55313e+07 -5.90385e-08 9.00211e+07)
(2.72102e+08 -3.69741e+07 1.84864e-07 2.12764e+07 5.95662e-08 8.79439e+07)
(2.75138e+08 -3.54404e+07 2.15546e-07 2.2367e+07 1.94501e-07 8.88938e+07)
(2.72225e+08 -3.03884e+07 1.26738e-07 1.83884e+07 1.55593e-07 8.71185e+07)
(2.7507e+08 -2.91324e+07 8.50669e-08 1.94922e+07 2.0721e-08 8.80793e+07)
(2.72189e+08 -2.40768e+07 -8.02029e-08 1.56634e+07 -6.02481e-08 8.63023e+07)
(2.74712e+08 -2.3081e+07 -8.20388e-08 1.68531e+07 -5.97595e-08 8.73083e+07)
(2.71901e+08 -1.79881e+07 -3.26727e-08 1.30389e+07 -4.93401e-08 8.54206e+07)
(2.73942e+08 -1.72051e+07 1.37673e-07 1.43876e+07 1.13667e-07 8.64657e+07)
(2.71243e+08 -1.2089e+07 1.3585e-07 1.05333e+07 1.14685e-07 8.44322e+07)
(2.72672e+08 -1.14886e+07 1.29668e-07 1.20813e+07 9.42416e-08 8.55076e+07)
(2.7012e+08 -6.39018e+06 1.06284e-07 8.19304e+06 8.82075e-08 8.33336e+07)
(2.70843e+08 -5.9582e+06 -1.04314e-07 9.96087e+06 -8.63308e-08 8.44296e+07)
(2.68465e+08 -923852 -5.72499e-08 6.07984e+06 -5.29382e-08 8.2127e+07)
(2.68428e+08 -662790 -5.6572e-08 8.06064e+06 -5.18596e-08 8.32356e+07)
(2.6626e+08 4.25421e+06 -7.57868e-08 4.21592e+06 -6.04536e-08 8.08253e+07)
(2.6544e+08 4.33949e+06 3.6512e-08 6.39918e+06 4.28602e-08 8.19314e+07)
(2.63522e+08 9.09016e+06 1.78256e-07 2.59852e+06 1.35067e-07 7.94469e+07)
(2.6193e+08 8.99829e+06 1.47713e-07 4.97443e+06 1.19098e-07 8.05265e+07)
(2.6029e+08 1.35412e+07 8.75273e-08 1.21216e+06 7.89648e-08 7.80104e+07)
(2.57958e+08 1.32806e+07 5.72726e-08 3.76906e+06 4.08202e-08 7.90241e+07)
(2.56608e+08 1.75755e+07 5.55354e-08 36804 4.12236e-08 7.65178e+07)
(2.53568e+08 1.71787e+07 8.55176e-08 2.75435e+06 7.77371e-08 7.73879e+07)
(2.52489e+08 2.11724e+07 8.57007e-08 -948214 7.87528e-08 7.49169e+07)
(2.48787e+08 2.07086e+07 -3.61269e-08 1.89306e+06 -3.97635e-08 7.55282e+07)
(2.4768e+08 2.437e+07 -9.34708e-08 -1.77483e+06 -8.056e-08 7.34341e+07)
(2.49433e+08 -8.84399e+07 4.36706e-08 3.4104e+07 -1.57534e-08 1.13323e+08)
(2.53317e+08 -8.24217e+07 -7.90939e-09 2.92823e+07 -2.02272e-08 1.0928e+08)
(2.55432e+08 -8.65882e+07 -7.87409e-08 4.06315e+07 -2.2448e-08 1.0385e+08)
(2.57731e+08 -7.96347e+07 2.80545e-09 3.2089e+07 4.26894e-09 1.02037e+08)
(2.59723e+08 -8.34169e+07 1.06319e-07 4.43867e+07 2.88132e-08 9.37743e+07)
(2.60987e+08 -7.57979e+07 1.81312e-07 3.3852e+07 6.89525e-08 9.15598e+07)
(2.61508e+08 -7.49611e+07 -3.64886e-08 3.89698e+07 -4.16994e-08 8.98001e+07)
(2.58451e+08 -6.70638e+07 -1.06108e-07 3.20894e+07 -3.50324e-08 8.78971e+07)
(2.60764e+08 -6.45297e+07 -1.0538e-07 3.29407e+07 -3.51859e-08 8.85136e+07)
(2.58268e+08 -5.81257e+07 -1.00863e-07 2.78614e+07 -3.59935e-08 8.58464e+07)
(2.61057e+08 -5.60452e+07 1.68919e-08 2.8523e+07 6.28252e-08 8.65609e+07)
(2.58427e+08 -5.05166e+07 1.10298e-07 2.40474e+07 5.96713e-08 8.47793e+07)
(2.61689e+08 -4.85633e+07 1.91217e-07 2.47047e+07 7.41446e-08 8.5413e+07)
(2.58958e+08 -4.33256e+07 -2.84289e-08 2.06645e+07 -3.4909e-10 8.396e+07)
(2.62331e+08 -4.16528e+07 -8.36852e-08 2.12742e+07 -6.07641e-08 8.46838e+07)
(2.59647e+08 -3.65182e+07 3.39872e-08 1.74176e+07 -2.1437e-08 8.3186e+07)
(2.62814e+08 -3.51308e+07 -1.4375e-07 1.81004e+07 -1.31215e-07 8.40079e+07)
(2.60226e+08 -3.00953e+07 -2.48483e-07 1.42699e+07 -1.40652e-07 8.2403e+07)
(2.63073e+08 -2.89318e+07 -1.93603e-07 1.51002e+07 -8.14606e-08 8.32895e+07)
(2.60591e+08 -2.39836e+07 4.87884e-08 1.12487e+07 6.76748e-09 8.15766e+07)
(2.63039e+08 -2.29999e+07 1.61791e-07 1.22517e+07 1.01415e-07 8.25171e+07)
(2.60669e+08 -1.8132e+07 -1.03656e-07 8.38869e+06 -5.05214e-08 8.06919e+07)
(2.6264e+08 -1.73011e+07 5.28959e-09 9.57409e+06 2.14434e-08 8.16839e+07)
(2.60395e+08 -1.25212e+07 -1.18541e-07 5.72914e+06 -5.5021e-08 7.97446e+07)
(2.61822e+08 -1.18281e+07 -8.02939e-08 7.10005e+06 -6.1825e-08 8.07862e+07)
(2.59721e+08 -7.15505e+06 1.24257e-08 3.30219e+06 -1.55285e-08 7.87373e+07)
(2.60553e+08 -6.59284e+06 6.94312e-08 4.85811e+06 4.08661e-08 7.98224e+07)
(2.58613e+08 -2.05129e+06 4.72138e-08 1.12909e+06 3.48212e-08 7.76742e+07)
(2.58821e+08 -1.61683e+06 4.56613e-08 2.86498e+06 3.4164e-08 7.87902e+07)
(2.57061e+08 2.76643e+06 -1.09377e-07 -783004 -7.57352e-08 7.65601e+07)
(2.56634e+08 3.07477e+06 -1.76538e-07 1.12557e+06 -1.49867e-07 7.76898e+07)
(2.55072e+08 7.273e+06 -1.1409e-07 -2.43842e+06 -1.09592e-07 7.54032e+07)
(2.5402e+08 7.45765e+06 -8.39171e-08 -365281 -6.62784e-08 7.65257e+07)
(2.52674e+08 1.14437e+07 2.45707e-08 -3.84816e+06 2.52646e-08 7.42146e+07)
(2.5102e+08 1.15138e+07 -1.13179e-07 -1.62126e+06 -9.41539e-08 7.52989e+07)
(2.49893e+08 1.52561e+07 -1.5635e-08 -5.02575e+06 -2.09053e-08 7.29937e+07)
(2.47661e+08 1.52408e+07 3.10887e-08 -2.66579e+06 4.12956e-08 7.39758e+07)
(2.46731e+08 1.86955e+07 3.25649e-08 -5.98559e+06 4.18531e-08 7.16914e+07)
(2.43953e+08 1.8655e+07 7.40835e-08 -3.53206e+06 6.31361e-08 7.24679e+07)
(2.42952e+08 2.18083e+07 7.76539e-08 -6.75786e+06 6.1125e-08 7.04898e+07)
(2.40247e+08 -9.59148e+07 -2.73224e-08 4.1978e+07 9.2337e-09 9.67609e+07)
(2.4433e+08 -8.99588e+07 1.46079e-07 3.65501e+07 6.87369e-08 9.1535e+07)
(2.45525e+08 -9.23039e+07 -4.15971e-08 4.50621e+07 -4.33545e-08 8.74137e+07)
(2.45717e+08 -8.47375e+07 -6.97564e-08 3.81289e+07 1.38043e-08 8.53472e+07)
(2.45899e+08 -8.20664e+07 -1.10123e-07 3.98666e+07 4.22521e-08 8.64897e+07)
(2.44173e+08 -7.46238e+07 2.22807e-07 3.4356e+07 8.44986e-08 8.38489e+07)
(2.45912e+08 -7.22073e+07 3.29209e-07 3.49265e+07 9.52738e-08 8.42288e+07)
(2.43656e+08 -6.57002e+07 -3.20652e-08 2.97182e+07 4.8273e-09 8.23363e+07)
(2.4646e+08 -6.32565e+07 -1.04406e-07 3.02265e+07 -3.30582e-08 8.25119e+07)
(2.43962e+08 -5.72599e+07 -6.93398e-08 2.55425e+07 -3.78756e-08 8.10802e+07)
(2.47353e+08 -5.51566e+07 -1.33609e-07 2.58725e+07 -7.58351e-08 8.15043e+07)
(2.4488e+08 -4.95874e+07 -9.53668e-08 2.15384e+07 -3.5351e-08 8.01302e+07)
(2.48465e+08 -4.78058e+07 -3.09426e-08 2.18639e+07 2.27835e-09 8.07432e+07)
(2.46044e+08 -4.25298e+07 -3.54851e-08 1.76869e+07 -3.90714e-08 7.9317e+07)
(2.49572e+08 -4.10006e+07 1.44996e-07 1.80948e+07 9.97642e-08 8.00495e+07)
(2.47223e+08 -3.59281e+07 1.6811e-07 1.40035e+07 1.00553e-07 7.85241e+07)
(2.50516e+08 -3.46114e+07 2.31547e-07 1.45356e+07 1.12051e-07 7.93598e+07)
(2.48265e+08 -2.97133e+07 5.80872e-08 1.05114e+07 3.72599e-08 7.77248e+07)
(2.51215e+08 -2.8577e+07 -5.58093e-08 1.11974e+07 -1.21535e-08 7.86528e+07)
(2.4908e+08 -2.38399e+07 3.51419e-07 7.239e+06 2.15422e-07 7.69139e+07)
(2.51616e+08 -2.28568e+07 3.04468e-07 8.09412e+06 2.50279e-07 7.79214e+07)
(2.49604e+08 -1.82721e+07 3.28965e-07 4.21089e+06 2.86511e-07 7.60851e+07)
(2.51675e+08 -1.74213e+07 4.77401e-08 5.23874e+06 6.58289e-09 7.71615e+07)
(2.49793e+08 -1.29876e+07 -9.46228e-08 1.4452e+06 -4.37617e-08 7.52331e+07)
(2.51364e+08 -1.22536e+07 -2.60589e-07 2.64314e+06 -1.9814e-07 7.63691e+07)
(2.49616e+08 -7.97676e+06 -2.06915e-07 -1.04672e+06 -1.63882e-07 7.43542e+07)
(2.50664e+08 -7.34809e+06 -9.09271e-08 315347 -4.51161e-08 7.55396e+07)
(2.49057e+08 -3.23913e+06 1.34047e-07 -3.26069e+06 8.11412e-08 7.34473e+07)
(2.4957e+08 -2.70765e+06 1.44587e-07 -1.74202e+06 1.03813e-07 7.4669e+07)
(2.48113e+08 1.21968e+06 1.22287e-07 -5.19905e+06 9.87493e-08 7.25134e+07)
(2.48091e+08 1.65983e+06 2.35167e-07 -3.53179e+06 2.11718e-07 7.37561e+07)
(2.46793e+08 5.38999e+06 1.9077e-07 -6.86913e+06 1.78548e-07 7.15578e+07)
(2.46248e+08 5.74401e+06 3.26375e-08 -5.06167e+06 -4.81319e-09 7.28042e+07)