/*--------------------------------*- C++ -*----------------------------------*\
| =========                 |                                                 |
| \\      /  F ield         | OpenFOAM: The Open Source CFD Toolbox           |
|  \\    /   O peration     | Version:  v2012                                 |
|   \\  /    A nd           | Website:  www.openfoam.com                      |
|    \\/     M anipulation  |                                                 |
\*---------------------------------------------------------------------------*/
FoamFile
{
    version     2.0;
    format      ascii;
    class       volScalarField;
    location    "6";
    object      epsilonEq;
}
// * * * * * * * * * * * * * * * * * * * * * * * * * * * * * * * * * * * * * //

dimensions      [0 0 0 0 0 0 0];


internalField   nonuniform List<scalar> 
32000
(
0.00461964
0.004489
0.00441769
0.00428342
0.00420381
0.00407306
0.00398819
0.00386109
0.00377445
0.00364956
0.00356391
0.00343918
0.00335689
0.003229
0.00315227
0.00301504
0.00295728
0.00285466
0.00281312
0.00272438
0.00268886
0.00260995
0.00257944
0.00250814
0.00248175
0.00241665
0.00239366
0.00233379
0.00231365
0.00225828
0.00224054
0.00218911
0.00217343
0.00212547
0.00211157
0.00206672
0.00205437
0.0020123
0.00200131
0.00196176
0.00195197
0.0019147
0.00190598
0.00187078
0.00186301
0.00182971
0.0018228
0.00179123
0.00178509
0.0017551
0.00174966
0.00172113
0.00171632
0.00168913
0.00168489
0.00165893
0.00165521
0.00163038
0.00162713
0.00160335
0.00160053
0.00157771
0.00157529
0.00155334
0.0015513
0.00153015
0.00152845
0.00150802
0.00150665
0.00148686
0.00148581
0.0014666
0.00146587
0.00144713
0.00144674
0.00142835
0.00142833
0.00141015
0.00141054
0.00139229
0.00456265
0.00443393
0.00435393
0.00422337
0.00414689
0.00401428
0.00393893
0.00380481
0.00373036
0.00359469
0.00352167
0.00338438
0.00331289
0.00317596
0.00310405
0.00298627
0.0029421
0.00284129
0.00280664
0.00271731
0.00268645
0.00260641
0.00257914
0.00250664
0.00248265
0.00241637
0.00239528
0.00233426
0.00231574
0.00225922
0.00224296
0.00219036
0.00217609
0.00212695
0.00211442
0.00206835
0.00205737
0.00201406
0.00200444
0.00196361
0.00195522
0.00191664
0.00190933
0.0018728
0.00186647
0.0018318
0.00182634
0.00179339
0.00178871
0.00175733
0.00175336
0.00172342
0.00172009
0.00169147
0.00168873
0.00166133
0.00165911
0.00163283
0.0016311
0.00160585
0.00160455
0.00158024
0.00157935
0.00155591
0.00155538
0.00153273
0.00153253
0.0015106
0.00151072
0.00148944
0.00148984
0.00146915
0.00146981
0.00144964
0.00145052
0.00143084
0.0014319
0.00141271
0.00141384
0.00139536
0.00452011
0.00438184
0.0042995
0.0041603
0.00408542
0.00394411
0.0038741
0.00373112
0.00366411
0.00352108
0.00345566
0.00331592
0.00325102
0.00311966
0.00306071
0.00294453
0.00291318
0.00281742
0.00278845
0.00270167
0.00267541
0.00259636
0.00257285
0.00250042
0.00247955
0.00241282
0.00239441
0.00233262
0.00231645
0.00225897
0.00224484
0.00219114
0.00217884
0.00212851
0.00211786
0.00207053
0.00206135
0.00201673
0.00200887
0.00196669
0.00196002
0.00192007
0.00191446
0.00187652
0.00187188
0.00183579
0.001832
0.00179761
0.0017946
0.00176177
0.00175946
0.00172806
0.00172638
0.0016963
0.00169519
0.00166632
0.00166573
0.00163799
0.00163786
0.00161115
0.00161145
0.00158568
0.00158637
0.00156147
0.00156252
0.00153841
0.00153978
0.0015164
0.00151805
0.00149535
0.00149726
0.00147517
0.00147731
0.00145579
0.00145812
0.00143715
0.00143965
0.0014192
0.00142189
0.00140186
0.00446522
0.00431478
0.00423531
0.00408501
0.00401279
0.0038628
0.00379612
0.00364774
0.00358485
0.00344017
0.00337997
0.00323983
0.00318278
0.00304186
0.00299964
0.00290256
0.00287722
0.00278698
0.00276334
0.00267983
0.00265822
0.00258093
0.00256148
0.00248981
0.0024725
0.00240584
0.00239059
0.00232841
0.00231509
0.00225689
0.00224537
0.00219074
0.00218087
0.00212944
0.00212108
0.00207254
0.00206555
0.00201963
0.00201388
0.00197035
0.00196572
0.00192436
0.00192074
0.00188138
0.00187867
0.00184114
0.00183925
0.0018034
0.00180225
0.00176796
0.00176748
0.00173461
0.00173473
0.00170319
0.00170385
0.00167352
0.00167468
0.00164547
0.00164707
0.00161891
0.00162091
0.0015937
0.00159605
0.00156973
0.00157241
0.0015469
0.00154987
0.0015251
0.00152835
0.00150426
0.00150774
0.00148429
0.00148798
0.00146512
0.001469
0.00144667
0.00145072
0.00142887
0.0014331
0.00141166
0.00438969
0.00422881
0.00415467
0.00399615
0.00392772
0.00377241
0.00370911
0.00355782
0.00349904
0.00335133
0.00329674
0.00315116
0.00309947
0.00297323
0.00294964
0.00286004
0.00283865
0.00275376
0.00273426
0.00265437
0.00263678
0.00256178
0.0025461
0.00247571
0.00246192
0.00239579
0.00238382
0.00232161
0.00231136
0.00225272
0.00224409
0.00218872
0.00218158
0.0021292
0.00212344
0.00207379
0.00206928
0.00202214
0.00201878
0.00197394
0.00197161
0.00192889
0.00192751
0.00188674
0.0018862
0.00184724
0.00184746
0.00181017
0.00181108
0.00177533
0.00177685
0.00174253
0.00174462
0.00171162
0.0017142
0.00168243
0.00168545
0.00165481
0.00165824
0.00162866
0.00163244
0.00160383
0.00160793
0.00158022
0.00158461
0.00155773
0.00156238
0.00153626
0.00154114
0.00151573
0.00152081
0.00149605
0.00150132
0.00147714
0.00148258
0.00145894
0.00146453
0.00144137
0.00144711
0.00142438
0.00429421
0.00412681
0.00405867
0.00389515
0.00383166
0.00367229
0.00361367
0.0034576
0.00340383
0.00324982
0.00320054
0.00304708
0.00301033
0.00292022
0.00290151
0.00281653
0.00279939
0.00271856
0.00270309
0.00262631
0.00261256
0.00253974
0.00252772
0.00245869
0.00244839
0.00238296
0.00237431
0.00231228
0.00230519
0.00224633
0.00224072
0.00218481
0.00218057
0.0021274
0.00212442
0.00207381
0.00207198
0.00202374
0.00202296
0.00197692
0.00197709
0.0019331
0.00193413
0.00189204
0.00189385
0.00185352
0.00185602
0.00181734
0.00182046
0.00178332
0.00178699
0.00175127
0.00175544
0.00172104
0.00172565
0.00169249
0.00169749
0.00166548
0.00167082
0.00163987
0.00164552
0.00161556
0.00162148
0.00159244
0.0015986
0.00157041
0.00157677
0.00154937
0.00155592
0.00152924
0.00153595
0.00150994
0.00151679
0.00149139
0.00149837
0.00147352
0.00148061
0.00145626
0.00146345
0.00143955
0.00418337
0.00401142
0.00394964
0.00378152
0.00372408
0.00355931
0.0035064
0.00334478
0.00329617
0.00313837
0.00309312
0.00297044
0.00295246
0.00287001
0.0028538
0.00277414
0.00275987
0.0026831
0.00267074
0.00259698
0.00258647
0.00251578
0.00250704
0.00243942
0.00243237
0.00236774
0.0023623
0.00230057
0.00229663
0.00223768
0.00223513
0.00217882
0.00217756
0.00212375
0.00212367
0.00207222
0.00207321
0.00202399
0.00202594
0.00197881
0.00198163
0.00193647
0.00194006
0.00189674
0.00190103
0.00185944
0.00186435
0.00182438
0.00182983
0.00179138
0.00179731
0.00176027
0.00176663
0.00173092
0.00173765
0.00170318
0.00171023
0.00167692
0.00168425
0.00165202
0.00165959
0.00162837
0.00163614
0.00160587
0.00161381
0.00158441
0.00159251
0.00156391
0.00157214
0.00154429
0.00155262
0.00152546
0.00153388
0.00150735
0.00151584
0.0014899
0.00149845
0.00147303
0.00148163
0.00145669
0.00405978
0.00388314
0.00382771
0.00365474
0.00360321
0.00343433
0.0033865
0.00322203
0.00317788
0.00301915
0.00299335
0.00291523
0.00289952
0.00282175
0.00280833
0.00273236
0.00272103
0.00264724
0.00263792
0.00256647
0.00255907
0.00249008
0.0024845
0.00241803
0.00241416
0.00235022
0.00234794
0.0022865
0.00228569
0.0022267
0.00222723
0.00217061
0.00217237
0.00211804
0.0021209
0.00206876
0.00207262
0.00202256
0.00202732
0.00197924
0.00198479
0.00193859
0.00194484
0.00190043
0.00190728
0.00186456
0.00187195
0.00183081
0.00183867
0.00179903
0.00180729
0.00176906
0.00177766
0.00174076
0.00174965
0.001714
0.00172313
0.00168865
0.00169799
0.00166461
0.00167411
0.00164175
0.00165139
0.00161999
0.00162973
0.00159923
0.00160905
0.00157939
0.00158927
0.00156037
0.00157029
0.00154211
0.00155206
0.00152454
0.0015345
0.00150759
0.00151754
0.00149119
0.00150113
0.00147529
0.00392388
0.00374256
0.00369325
0.00351648
0.00347099
0.00329836
0.00325664
0.00308696
0.00304941
0.00295311
0.00293854
0.00286202
0.00284927
0.00277454
0.00276393
0.00269068
0.00268223
0.00261066
0.00260431
0.0025346
0.00253025
0.00246255
0.00246007
0.00239449
0.00239375
0.00233035
0.0023312
0.00226999
0.0022723
0.00221328
0.0022169
0.00216003
0.00216483
0.00211007
0.00211591
0.00206319
0.00206997
0.0020192
0.0020268
0.00197792
0.00198623
0.00193916
0.00194809
0.00190274
0.0019122
0.0018685
0.0018784
0.00183626
0.00184655
0.00180588
0.00181648
0.00177722
0.00178808
0.00175014
0.0017612
0.00172451
0.00173574
0.00170023
0.00171157
0.00167717
0.0016886
0.00165524
0.00166673
0.00163435
0.00164587
0.0016144
0.00162592
0.00159531
0.00160682
0.00157701
0.00158848
0.00155942
0.00157084
0.00154247
0.00155383
0.00152611
0.00153739
0.00151026
0.00152145
0.00149488
0.00377635
0.00359269
0.00354815
0.00337025
0.00332883
0.0031585
0.00311889
0.00298415
0.00296816
0.00289705
0.00288357
0.00281129
0.00280043
0.00272843
0.00272014
0.00264899
0.00264315
0.00257321
0.00256968
0.00250122
0.00249983
0.00243306
0.00243364
0.0023687
0.00237106
0.00230804
0.00231201
0.00225098
0.00225639
0.00219734
0.00220405
0.00214698
0.00215482
0.00209972
0.00210855
0.00205536
0.00206505
0.00201373
0.00202417
0.00197465
0.00198572
0.00193794
0.00194955
0.00190344
0.0019155
0.00187099
0.00188341
0.00184043
0.00185314
0.00181161
0.00182455
0.00178442
0.00179752
0.0017587
0.00177193
0.00173436
0.00174765
0.00171127
0.0017246
0.00168933
0.00170266
0.00166845
0.00168175
0.00164854
0.00166178
0.00162951
0.00164267
0.00161128
0.00162435
0.00159378
0.00160673
0.00157695
0.00158977
0.0015607
0.00157338
0.001545
0.00155753
0.00152977
0.00154214
0.00151498
0.00362158
0.00343889
0.00339763
0.00322331
0.00318473
0.00302046
0.00299633
0.00292745
0.00291354
0.00284297
0.002832
0.00276086
0.00275269
0.00268177
0.0026763
0.0026061
0.0026032
0.00253408
0.00253357
0.00246581
0.0024675
0.00240128
0.00240497
0.00234043
0.00234593
0.00228317
0.00229027
0.00222935
0.00223788
0.00217882
0.00218859
0.0021314
0.00214226
0.00208692
0.00209871
0.0020452
0.00205779
0.00200606
0.00201931
0.00196932
0.00198312
0.00193481
0.00194906
0.00190238
0.00191699
0.00187186
0.00188675
0.00184312
0.00185821
0.00181601
0.00183124
0.00179041
0.00180571
0.0017662
0.00178153
0.00174326
0.00175857
0.00172149
0.00173674
0.00170079
0.00171595
0.00168106
0.0016961
0.00166223
0.00167713
0.00164421
0.00165894
0.00162693
0.00164148
0.00161031
0.00162467
0.00159431
0.00160845
0.00157884
0.00159277
0.00156387
0.00157756
0.00154933
0.00156278
0.00153518
0.0034644
0.00328615
0.00324767
0.00307837
0.00304241
0.00295587
0.00294156
0.00287118
0.00285968
0.00278902
0.00278058
0.00270973
0.0027043
0.00263377
0.00263121
0.00256142
0.00256155
0.00249284
0.00249543
0.00242804
0.00243288
0.00236699
0.00237385
0.00230958
0.00231823
0.00225568
0.00226591
0.00220512
0.00221674
0.00215773
0.00217054
0.00211333
0.00212716
0.00207172
0.00208642
0.00203274
0.00204815
0.00199619
0.00201219
0.0019619
0.00197837
0.00192972
0.00194655
0.00189948
0.00191657
0.00187103
0.0018883
0.00184423
0.00186161
0.00181895
0.00183637
0.00179506
0.00181247
0.00177246
0.0017898
0.00175103
0.00176826
0.00173067
0.00174776
0.00171129
0.0017282
0.00169281
0.00170951
0.00167514
0.00169161
0.00165821
0.00167443
0.00164195
0.0016579
0.00162629
0.00164196
0.00161118
0.00162655
0.00159656
0.00161163
0.00158237
0.00159713
0.00156857
0.00158301
0.00155512
0.00331054
0.00314722
0.00310628
0.0029844
0.00296684
0.00289933
0.0028857
0.00281554
0.00280574
0.00273471
0.00272856
0.00265745
0.00265469
0.00258406
0.00258442
0.00251467
0.00251785
0.00244929
0.00245502
0.00238784
0.00239584
0.0023302
0.00234021
0.0022762
0.00228798
0.00222566
0.00223899
0.0021784
0.00219305
0.0021342
0.00214999
0.00209288
0.00210961
0.00205423
0.00207175
0.00201807
0.00203622
0.00198421
0.00200287
0.00195249
0.00197152
0.00192273
0.00194202
0.00189477
0.00191425
0.00186848
0.00188804
0.00184372
0.0018633
0.00182036
0.00183988
0.00179828
0.00181769
0.00177737
0.00179662
0.00175753
0.00177658
0.00173866
0.00175748
0.00172068
0.00173923
0.00170351
0.00172176
0.00168707
0.001705
0.00167129
0.00168889
0.00165611
0.00167335
0.00164146
0.00165834
0.0016273
0.0016438
0.00161357
0.00162968
0.00160021
0.00161594
0.0015872
0.00160253
0.00157448
0.00317436
0.00302901
0.00299858
0.00292905
0.00291341
0.00284184
0.0028306
0.00275795
0.00275089
0.00267818
0.00267498
0.00260283
0.00260315
0.00253196
0.00253547
0.00246551
0.00247187
0.00240332
0.00241223
0.00234523
0.00235639
0.00229102
0.00230415
0.00224046
0.00225532
0.00219333
0.00220967
0.00214941
0.00216701
0.00210847
0.00212712
0.00207029
0.00208981
0.00203467
0.00205489
0.0020014
0.00202217
0.00197031
0.00199148
0.00194121
0.00196267
0.00191395
0.00193558
0.00188836
0.00191007
0.0018643
0.00188601
0.00184164
0.00186327
0.00182026
0.00184175
0.00180005
0.00182133
0.00178089
0.00180193
0.0017627
0.00178345
0.00174538
0.0017658
0.00172886
0.00174892
0.00171304
0.00173273
0.00169788
0.00171716
0.00168329
0.00170215
0.00166923
0.00168765
0.00165563
0.00167361
0.00164245
0.00165998
0.00162964
0.0016467
0.00161716
0.00163375
0.00160496
0.00162107
0.00159301
0.00306051
0.00296705
0.00294646
0.00287184
0.00285756
0.00278198
0.00277306
0.00269774
0.00269346
0.00261906
0.00261886
0.00254572
0.00254915
0.00247748
0.00248413
0.00241405
0.00242356
0.00235515
0.00236718
0.00230048
0.00231472
0.00224975
0.00226592
0.00220269
0.00222051
0.00215902
0.00217826
0.00211849
0.0021389
0.00208085
0.00210223
0.00204586
0.00206803
0.00201331
0.00203608
0.00198299
0.00200621
0.0019547
0.00197825
0.00192828
0.00195201
0.00190355
0.00192737
0.00188037
0.00190417
0.00185858
0.00188229
0.00183807
0.00186161
0.00181872
0.00184202
0.00180041
0.00182342
0.00178304
0.00180571
0.00176653
0.00178883
0.00175079
0.00177268
0.00173575
0.00175719
0.00172132
0.0017423
0.00170746
0.00172796
0.00169409
0.00171409
0.00168117
0.00170066
0.00166865
0.00168762
0.00165647
0.00167491
0.00164461
0.00166251
0.00163301
0.00165037
0.00162164
0.00163845
0.00161048
0.00299351
0.0029107
0.00289172
0.00281014
0.00279823
0.00271855
0.00271231
0.00263461
0.00263317
0.00255745
0.0025602
0.00248644
0.00249285
0.00242103
0.00243068
0.00236077
0.00237327
0.00230524
0.00232023
0.00225406
0.00227122
0.00220687
0.0022259
0.00216334
0.00218396
0.00212316
0.00214511
0.00208604
0.0021091
0.00205172
0.00207566
0.00201994
0.00204457
0.00199048
0.00201563
0.00196311
0.00198863
0.00193765
0.00196339
0.00191392
0.00193975
0.00189174
0.00191757
0.00187098
0.0018967
0.00185148
0.00187701
0.00183313
0.0018584
0.00181581
0.00184076
0.00179941
0.00182399
0.00178385
0.00180801
0.00176903
0.00179273
0.00175488
0.00177809
0.00174133
0.00176401
0.0017283
0.00175045
0.00171575
0.00173734
0.00170361
0.00172463
0.00169184
0.00171228
0.0016804
0.00170024
0.00166924
0.00168848
0.00165832
0.00167696
0.00164762
0.00166564
0.00163709
0.0016545
0.00162672
0.00293886
0.00284747
0.00283019
0.00274443
0.00273437
0.00265245
0.00264833
0.00256948
0.00257041
0.00249423
0.0024995
0.00242574
0.00243481
0.0023633
0.00237566
0.00230628
0.00232152
0.00225417
0.0022719
0.0022065
0.00222637
0.00216286
0.00218455
0.00212286
0.00214608
0.00208617
0.00211065
0.00205246
0.00207797
0.00202145
0.00204776
0.00199287
0.00201978
0.00196648
0.00199382
0.00194206
0.00196968
0.00191941
0.00194716
0.00189835
0.00192611
0.00187872
0.00190638
0.00186036
0.00188782
0.00184314
0.00187033
0.00182694
0.00185378
0.00181164
0.00183807
0.00179715
0.00182313
0.00178338
0.00180886
0.00177024
0.00179519
0.00175767
0.00178205
0.0017456
0.00176938
0.00173396
0.00175714
0.00172271
0.00174526
0.00171179
0.0017337
0.00170117
0.00172243
0.0016908
0.0017114
0.00168065
0.00170059
0.00167068
0.00168995
0.00166087
0.00167946
0.00165118
0.0016691
0.00164159
0.00287115
0.00277781
0.00276233
0.0026751
0.00266681
0.0025841
0.00258191
0.00250283
0.00250588
0.00242987
0.00243743
0.00236413
0.0023756
0.00230477
0.00231961
0.00225106
0.00226881
0.00220239
0.00222264
0.00215824
0.00218062
0.00211814
0.00214229
0.00208166
0.00210729
0.00204842
0.00207525
0.00201809
0.00204586
0.00199036
0.00201885
0.00196494
0.00199395
0.00194159
0.00197094
0.00192008
0.00194961
0.00190021
0.00192978
0.00188179
0.00191129
0.00186466
0.00189397
0.00184867
0.0018777
0.00183369
0.00186236
0.0018196
0.00184785
0.0018063
0.00183406
0.00179368
0.00182091
0.00178167
0.00180832
0.00177019
0.00179624
0.00175918
0.00178458
0.00174856
0.00177331
0.00173829
0.00176236
0.00172832
0.0017517
0.00171861
0.00174129
0.00170911
0.00173108
0.0016998
0.00172105
0.00169064
0.00171117
0.0016816
0.00170141
0.00167266
0.00169174
0.0016638
0.00168215
0.001655
0.00279537
0.0027024
0.00268919
0.002602
0.00259581
0.00251327
0.0025132
0.0024345
0.00243974
0.00236434
0.00237417
0.00230167
0.00231547
0.00224557
0.0022628
0.00219528
0.00221543
0.00215012
0.00217276
0.00210952
0.00213424
0.00207295
0.00209941
0.00203997
0.00206784
0.00201016
0.00203916
0.00198318
0.00201304
0.00195868
0.00198918
0.00193638
0.00196731
0.00191602
0.0019472
0.00189737
0.00192864
0.00188022
0.00191145
0.00186439
0.00189545
0.00184972
0.0018805
0.00183605
0.00186647
0.00182326
0.00185324
0.00181124
0.00184071
0.00179987
0.00182879
0.00178909
0.0018174
0.0017788
0.00180647
0.00176893
0.00179592
0.00175942
0.00178572
0.00175023
0.0017758
0.00174129
0.00176613
0.00173257
0.00175666
0.00172403
0.00174736
0.00171563
0.0017382
0.00170734
0.00172915
0.00169915
0.00172018
0.00169102
0.00171128
0.00168294
0.00170242
0.00167489
0.00169359
0.00166684
0.00271345
0.00262203
0.00261133
0.0025252
0.0025214
0.00243976
0.00244203
0.00236426
0.00237184
0.00229744
0.00230962
0.0022382
0.00225437
0.00218563
0.00220522
0.00213893
0.00216142
0.00209738
0.00212233
0.00206038
0.00208737
0.00202739
0.00205604
0.00199791
0.0020279
0.00197152
0.00200256
0.00194785
0.00197966
0.00192655
0.0019589
0.00190732
0.00194001
0.0018899
0.00192275
0.00187405
0.0019069
0.00185957
0.00189228
0.00184627
0.00187872
0.00183398
0.00186608
0.00182257
0.00185422
0.00181191
0.00184305
0.0018019
0.00183245
0.00179242
0.00182235
0.00178341
0.00181266
0.00177478
0.00180333
0.00176648
0.00179428
0.00175844
0.00178549
0.00175061
0.00177689
0.00174296
0.00176845
0.00173545
0.00176013
0.00172804
0.00175192
0.0017207
0.00174377
0.00171341
0.00173567
0.00170615
0.00172759
0.0016989
0.00171953
0.00169165
0.00171146
0.00168437
0.00170337
0.00167706
0.00262668
0.00253747
0.00252937
0.00244498
0.00244371
0.00236359
0.00236835
0.00229198
0.00230202
0.00222899
0.00224362
0.00217358
0.00219217
0.00212483
0.00214679
0.00208191
0.00210674
0.00204413
0.00207134
0.00201083
0.00204001
0.00198146
0.00201222
0.00195551
0.00198752
0.00193255
0.0019655
0.00191217
0.0019458
0.00189404
0.00192811
0.00187784
0.00191215
0.00186331
0.00189767
0.0018502
0.00188448
0.00183832
0.00187236
0.00182748
0.00186118
0.00181752
0.00185078
0.00180831
0.00184104
0.00179971
0.00183185
0.00179163
0.00182312
0.00178398
0.00181477
0.00177668
0.00180673
0.00176965
0.00179894
0.00176285
0.00179135
0.00175622
0.0017839
0.00174972
0.00177657
0.0017433
0.00176932
0.00173695
0.00176212
0.00173062
0.00175495
0.0017243
0.00174778
0.00171797
0.0017406
0.00171161
0.00173338
0.00170521
0.00172613
0.00169875
0.00171882
0.00169222
0.00171144
0.00168562
0.00253594
0.00244937
0.00244387
0.00236174
0.00236305
0.00228491
0.00229223
0.00221769
0.00223026
0.00215896
0.00217609
0.00210772
0.00212875
0.00206305
0.00208741
0.00202415
0.00205129
0.00199028
0.00201972
0.0019608
0.00199211
0.00193513
0.00196792
0.00191276
0.00194669
0.00189323
0.001928
0.00187615
0.00191148
0.00186116
0.00189682
0.00184795
0.00188375
0.00183626
0.00187201
0.00182585
0.0018614
0.00181651
0.00185174
0.00180807
0.00184286
0.00180036
0.00183464
0.00179327
0.00182694
0.00178667
0.00181967
0.00178046
0.00181274
0.00177456
0.00180609
0.0017689
0.00179963
0.00176342
0.00179332
0.00175806
0.00178712
0.00175278
0.00178098
0.00174754
0.00177487
0.00174231
0.00176876
0.00173706
0.00176263
0.00173178
0.00175646
0.00172643
0.00175023
0.00172102
0.00174392
0.00171551
0.00173754
0.00170992
0.00173106
0.00170421
0.00172448
0.0016984
0.00171779
0.00169248
0.00244196
0.00235833
0.00235539
0.00227586
0.00227975
0.00220398
0.00221387
0.00214151
0.00215663
0.00208738
0.00210702
0.00204061
0.00206409
0.00200028
0.00202701
0.00196559
0.00199501
0.0019358
0.00196742
0.00191025
0.00194363
0.00188836
0.00192311
0.00186961
0.00190538
0.00185355
0.00189002
0.00183976
0.00187668
0.0018279
0.00186504
0.00181766
0.00185481
0.00180876
0.00184577
0.00180099
0.00183769
0.00179413
0.00183042
0.00178802
0.00182378
0.00178251
0.00181766
0.00177747
0.00181194
0.00177279
0.00180653
0.00176839
0.00180134
0.00176418
0.00179631
0.00176009
0.00179137
0.00175609
0.00178649
0.0017521
0.00178162
0.00174811
0.00177672
0.00174408
0.00177178
0.00173998
0.00176676
0.00173579
0.00176165
0.00173149
0.00175644
0.00172707
0.0017511
0.00172252
0.00174564
0.00171784
0.00174005
0.00171301
0.00173431
0.00170803
0.00172843
0.0017029
0.00172241
0.00169762
0.00234529
0.00226482
0.00226438
0.00218775
0.00219418
0.00212107
0.00213351
0.00206363
0.00208129
0.00201437
0.0020365
0.00197231
0.00199822
0.00193653
0.00196561
0.00190623
0.0019379
0.00188066
0.00191441
0.00185915
0.00189454
0.00184112
0.00187774
0.00182605
0.00186355
0.00181347
0.00185155
0.00180298
0.00184138
0.00179423
0.00183273
0.00178692
0.00182532
0.00178079
0.00181892
0.0017756
0.00181333
0.00177118
0.00180839
0.00176734
0.00180394
0.00176395
0.00179986
0.0017609
0.00179605
0.00175807
0.00179242
0.0017554
0.0017889
0.00175281
0.00178543
0.00175024
0.00178195
0.00174764
0.00177843
0.00174497
0.00177484
0.00174221
0.00177113
0.00173932
0.0017673
0.00173629
0.00176333
0.00173311
0.00175919
0.00172975
0.00175489
0.00172621
0.00175041
0.00172249
0.00174575
0.00171857
0.00174091
0.00171447
0.00173589
0.00171018
0.00173068
0.0017057
0.00172529
0.00170103
0.00224641
0.00216928
0.00217128
0.00209775
0.00210667
0.00203646
0.00205142
0.00198427
0.00200442
0.00194009
0.00196467
0.00190293
0.00193123
0.00187189
0.00190325
0.00184612
0.00187997
0.00182489
0.00186069
0.00180752
0.00184482
0.00179342
0.00183181
0.00178206
0.0018212
0.00177299
0.00181257
0.0017658
0.00180556
0.00176015
0.00179988
0.00175574
0.00179525
0.00175232
0.00179145
0.00174968
0.0017883
0.00174762
0.00178563
0.00174599
0.0017833
0.00174466
0.0017812
0.00174353
0.00177924
0.0017425
0.00177734
0.00174149
0.00177542
0.00174045
0.00177345
0.00173932
0.00177137
0.00173807
0.00176916
0.00173665
0.00176677
0.00173506
0.00176421
0.00173327
0.00176144
0.00173125
0.00175845
0.00172902
0.00175525
0.00172655
0.00175181
0.00172384
0.00174815
0.0017209
0.00174426
0.00171772
0.00174013
0.00171431
0.00173579
0.00171067
0.00173121
0.0017068
0.00172643
0.00170271
0.00214575
0.00207208
0.00207646
0.00200621
0.00201756
0.00195045
0.00196787
0.00190365
0.00192626
0.00186471
0.0018917
0.00183262
0.00186324
0.00180645
0.00184003
0.00178535
0.00182129
0.00176856
0.00180632
0.0017554
0.00179451
0.00174527
0.00178533
0.00173766
0.00177831
0.0017321
0.00177305
0.0017282
0.0017692
0.00172562
0.00176646
0.00172409
0.00176458
0.00172334
0.00176335
0.00172318
0.00176258
0.00172344
0.00176212
0.00172396
0.00176186
0.00172463
0.00176168
0.00172535
0.00176151
0.00172604
0.00176126
0.00172663
0.00176089
0.00172708
0.00176036
0.00172733
0.00175962
0.00172736
0.00175865
0.00172714
0.00175743
0.00172666
0.00175594
0.0017259
0.00175418
0.00172486
0.00175214
0.00172352
0.00174982
0.00172189
0.00174721
0.00171998
0.00174432
0.00171777
0.00174116
0.00171529
0.00173772
0.00171253
0.00173401
0.0017095
0.00173005
0.00170621
0.00172584
0.00170267
0.00204367
0.00197358
0.00198026
0.00191342
0.00192715
0.0018633
0.00188312
0.00182202
0.00184701
0.00178846
0.00181777
0.00176155
0.00179442
0.00174036
0.00177608
0.00172402
0.00176195
0.00171174
0.00175135
0.00170284
0.00174366
0.00169673
0.00173833
0.00169287
0.00173492
0.00169082
0.00173303
0.0016902
0.00173231
0.00169067
0.00173249
0.00169196
0.00173331
0.00169384
0.00173459
0.00169611
0.00173615
0.00169862
0.00173786
0.00170123
0.0017396
0.00170383
0.00174128
0.00170635
0.00174283
0.00170869
0.00174419
0.00171082
0.0017453
0.00171269
0.00174615
0.00171426
0.00174669
0.00171551
0.00174691
0.00171643
0.0017468
0.00171701
0.00174634
0.00171723
0.00174554
0.0017171
0.0017444
0.00171661
0.00174292
0.00171578
0.00174109
0.00171461
0.00173894
0.0017131
0.00173646
0.00171127
0.00173368
0.00170913
0.00173058
0.00170668
0.0017272
0.00170394
0.00172354
0.00170092
0.0019405
0.00187406
0.00188298
0.00181967
0.00183572
0.00177527
0.00179743
0.00173961
0.00176692
0.00171151
0.00174309
0.0016899
0.00172493
0.00167378
0.00171153
0.00166226
0.00170209
0.00165454
0.0016959
0.00164994
0.00169234
0.00164785
0.00169088
0.00164775
0.00169107
0.0016492
0.00169252
0.00165182
0.00169491
0.0016553
0.00169796
0.00165937
0.00170145
0.00166382
0.00170519
0.00166847
0.00170902
0.00167317
0.00171284
0.0016778
0.00171652
0.00168227
0.00172
0.00168651
0.00172321
0.00169045
0.00172611
0.00169405
0.00172865
0.00169727
0.00173081
0.0017001
0.00173258
0.00170252
0.00173394
0.00170452
0.00173488
0.0017061
0.00173541
0.00170725
0.00173553
0.00170798
0.00173524
0.00170831
0.00173455
0.00170823
0.00173347
0.00170776
0.00173202
0.00170691
0.0017302
0.00170569
0.00172803
0.00170413
0.00172552
0.00170223
0.00172269
0.00170001
0.00171954
0.00169748
0.00183654
0.00177382
0.00178492
0.00172524
0.00174354
0.00168661
0.00171105
0.00165664
0.00168621
0.0016341
0.00166786
0.00161785
0.00165495
0.00160686
0.00164655
0.00160021
0.00164183
0.0015971
0.00164007
0.00159681
0.00164066
0.00159874
0.00164306
0.00160238
0.00164682
0.00160729
0.00165159
0.00161312
0.00165704
0.00161955
0.00166291
0.00162635
0.00166901
0.0016333
0.00167515
0.00164026
0.0016812
0.00164708
0.00168705
0.00165367
0.00169262
0.00165994
0.00169784
0.00166583
0.00170265
0.0016713
0.00170703
0.00167631
0.00171094
0.00168084
0.00171436
0.00168487
0.0017173
0.0016884
0.00171974
0.00169142
0.0017217
0.00169395
0.00172316
0.00169598
0.00172415
0.00169753
0.00172467
0.00169861
0.00172474
0.00169924
0.00172437
0.00169943
0.00172357
0.00169921
0.00172238
0.00169857
0.00172079
0.00169756
0.00171884
0.00169617
0.00171653
0.00169444
0.00171389
0.00169238
0.00173207
0.00167312
0.00168634
0.00163036
0.00165086
0.00159756
0.00162422
0.00157335
0.0016051
0.00155642
0.00159228
0.0015456
0.00158468
0.00153979
0.00158131
0.00153805
0.00158132
0.00153954
0.001584
0.00154356
0.00158872
0.00154949
0.00159495
0.00155683
0.00160225
0.00156516
0.00161028
0.00157413
0.00161874
0.00158346
0.00162738
0.00159291
0.00163602
0.00160231
0.0016445
0.0016115
0.0016527
0.00162038
0.00166053
0.00162885
0.00166791
0.00163685
0.0016748
0.00164434
0.00168116
0.00165127
0.00168695
0.00165762
0.00169217
0.00166339
0.00169681
0.00166856
0.00170087
0.00167314
0.00170434
0.00167714
0.00170725
0.00168057
0.00170961
0.00168343
0.00171142
0.00168576
0.00171271
0.00168756
0.0017135
0.00168885
0.0017138
0.00168967
0.00171364
0.00169002
0.00171303
0.00168994
0.001712
0.00168944
0.00171058
0.00168854
0.00170877
0.00168727
0.0017066
0.00168565
0.00162734
0.00157219
0.00158748
0.00153526
0.00155792
0.00150833
0.00153717
0.00148993
0.00152381
0.00147869
0.00151658
0.00147333
0.0015143
0.00147274
0.00151598
0.00147592
0.00152073
0.00148201
0.00152783
0.00149031
0.00153664
0.00150021
0.00154666
0.0015112
0.00155745
0.00152289
0.00156869
0.00153494
0.00158008
0.00154708
0.00159142
0.00155912
0.00160253
0.00157087
0.00161328
0.00158223
0.00162356
0.00159308
0.00163329
0.00160337
0.00164242
0.00161303
0.00165092
0.00162203
0.00165875
0.00163036
0.0016659
0.001638
0.00167238
0.00164494
0.00167817
0.0016512
0.00168329
0.00165679
0.00168776
0.00166171
0.00169158
0.00166598
0.00169478
0.00166964
0.00169738
0.00167269
0.0016994
0.00167517
0.00170087
0.00167709
0.00170181
0.00167849
0.00170224
0.00167939
0.00170219
0.00167982
0.00170169
0.0016798
0.00170077
0.00167937
0.00169943
0.00167854
0.00169772
0.00167733
0.00152259
0.00147127
0.00148856
0.00144017
0.00146494
0.00141915
0.00145011
0.00140662
0.00144257
0.00140111
0.00144094
0.00140126
0.00144402
0.0014059
0.00145075
0.00141399
0.00146022
0.00142468
0.0014717
0.00143722
0.00148456
0.00145102
0.0014983
0.0014656
0.00151252
0.00148056
0.00152688
0.00149561
0.00154114
0.00151049
0.0015551
0.00152501
0.0015686
0.00153904
0.00158153
0.00155247
0.0015938
0.00156522
0.00160537
0.00157724
0.00161618
0.00158848
0.00162621
0.00159894
0.00163546
0.0016086
0.00164391
0.00161745
0.00165158
0.00162552
0.00165847
0.00163281
0.00166461
0.00163935
0.00167002
0.00164514
0.00167471
0.00165023
0.00167871
0.00165463
0.00168206
0.00165837
0.00168477
0.00166148
0.00168688
0.00166399
0.00168842
0.00166594
0.00168942
0.00166735
0.0016899
0.00166826
0.0016899
0.0016687
0.00168945
0.00166869
0.00168857
0.00166827
0.00168728
0.00166746
0.00141803
0.00137055
0.00138981
0.0013453
0.00137214
0.00133023
0.00136327
0.00132362
0.00136158
0.00132388
0.0013656
0.00132958
0.00137404
0.00133946
0.0013858
0.00135246
0.00139996
0.00136768
0.00141578
0.00138441
0.00143262
0.00140204
0.00145001
0.00142012
0.00146755
0.00143827
0.00148496
0.00145622
0.00150199
0.00147373
0.00151846
0.00149065
0.00153427
0.00150687
0.00154929
0.00152228
0.00156349
0.00153684
0.0015768
0.0015505
0.00158921
0.00156325
0.00160071
0.00157509
0.0016113
0.00158601
0.00162099
0.00159602
0.0016298
0.00160516
0.00163775
0.00161343
0.00164485
0.00162086
0.00165115
0.00162749
0.00165667
0.00163333
0.00166144
0.00163844
0.00166549
0.00164283
0.00166887
0.00164654
0.00167159
0.00164961
0.0016737
0.00165206
0.00167522
0.00165395
0.00167621
0.00165531
0.00167668
0.00165616
0.00167667
0.00165656
0.00167622
0.00165653
0.00167535
0.00165609
0.00131387
0.00127023
0.00129142
0.00125084
0.00127972
0.00124176
0.00127686
0.00124114
0.00128106
0.00124724
0.00129075
0.00125851
0.00130455
0.00127363
0.00132133
0.0012915
0.00134014
0.00131121
0.00136021
0.00133204
0.00138096
0.00135341
0.0014019
0.00137489
0.00142268
0.00139612
0.00144301
0.00141685
0.00146271
0.0014369
0.00148161
0.00145611
0.00149961
0.0014744