/*--------------------------------*- C++ -*----------------------------------*\
| =========                 |                                                 |
| \\      /  F ield         | OpenFOAM: The Open Source CFD Toolbox           |
|  \\    /   O peration     | Version:  v2012                                 |
|   \\  /    A nd           | Website:  www.openfoam.com                      |
|    \\/     M anipulation  |                                                 |
\*---------------------------------------------------------------------------*/
FoamFile
{
    version     2.0;
    format      ascii;
    class       volScalarField;
    location    "6";
    object      sigmaEq;
}
// * * * * * * * * * * * * * * * * * * * * * * * * * * * * * * * * * * * * * //

dimensions      [1 -1 -2 0 0 0 0];


internalField   nonuniform List<scalar> 
32000
(
2.43e+08
2.43e+08
2.43e+08
2.43e+08
2.43e+08
2.43e+08
2.43e+08
2.43e+08
2.43e+08
2.43e+08
2.43e+08
2.43e+08
2.43e+08
2.43e+08
2.43e+08
2.43e+08
2.38858e+08
2.30569e+08
2.27214e+08
2.20046e+08
2.17177e+08
2.10804e+08
2.08339e+08
2.02581e+08
2.00449e+08
1.95191e+08
1.93334e+08
1.88499e+08
1.86871e+08
1.824e+08
1.80967e+08
1.76813e+08
1.75546e+08
1.71673e+08
1.7055e+08
1.66927e+08
1.6593e+08
1.62532e+08
1.61644e+08
1.5845e+08
1.57659e+08
1.54649e+08
1.53944e+08
1.51101e+08
1.50474e+08
1.47784e+08
1.47226e+08
1.44676e+08
1.4418e+08
1.41758e+08
1.41319e+08
1.39014e+08
1.38626e+08
1.3643e+08
1.36087e+08
1.3399e+08
1.3369e+08
1.31685e+08
1.31422e+08
1.29501e+08
1.29274e+08
1.2743e+08
1.27235e+08
1.25462e+08
1.25297e+08
1.23589e+08
1.23451e+08
1.21801e+08
1.21691e+08
1.20093e+08
1.20008e+08
1.18456e+08
1.18397e+08
1.16883e+08
1.16852e+08
1.15367e+08
1.15365e+08
1.13896e+08
1.13928e+08
1.12454e+08
2.43e+08
2.43e+08
2.43e+08
2.43e+08
2.43e+08
2.43e+08
2.43e+08
2.43e+08
2.43e+08
2.43e+08
2.43e+08
2.43e+08
2.43e+08
2.43e+08
2.43e+08
2.41199e+08
2.37631e+08
2.29489e+08
2.2669e+08
2.19475e+08
2.16982e+08
2.10518e+08
2.08316e+08
2.0246e+08
2.00521e+08
1.95168e+08
1.93465e+08
1.88536e+08
1.87041e+08
1.82476e+08
1.81162e+08
1.76914e+08
1.75761e+08
1.71792e+08
1.7078e+08
1.67059e+08
1.66172e+08
1.62674e+08
1.61897e+08
1.586e+08
1.57922e+08
1.54805e+08
1.54215e+08
1.51265e+08
1.50753e+08
1.47953e+08
1.47512e+08
1.44851e+08
1.44473e+08
1.41938e+08
1.41618e+08
1.39199e+08
1.38931e+08
1.36619e+08
1.36398e+08
1.34184e+08
1.34005e+08
1.31883e+08
1.31742e+08
1.29703e+08
1.29598e+08
1.27635e+08
1.27562e+08
1.25669e+08
1.25626e+08
1.23797e+08
1.23781e+08
1.2201e+08
1.2202e+08
1.20301e+08
1.20333e+08
1.18662e+08
1.18715e+08
1.17086e+08
1.17157e+08
1.15568e+08
1.15653e+08
1.14104e+08
1.14195e+08
1.12702e+08
2.43e+08
2.43e+08
2.43e+08
2.43e+08
2.43e+08
2.43e+08
2.43e+08
2.43e+08
2.43e+08
2.43e+08
2.43e+08
2.43e+08
2.43e+08
2.43e+08
2.43e+08
2.37827e+08
2.35295e+08
2.27561e+08
2.25221e+08
2.18212e+08
2.16091e+08
2.09706e+08
2.07807e+08
2.01957e+08
2.00272e+08
1.94882e+08
1.93395e+08
1.88404e+08
1.87098e+08
1.82455e+08
1.81314e+08
1.76977e+08
1.75983e+08
1.71918e+08
1.71058e+08
1.67235e+08
1.66494e+08
1.6289e+08
1.62255e+08
1.58848e+08
1.5831e+08
1.55082e+08
1.54629e+08
1.51565e+08
1.5119e+08
1.48275e+08
1.47969e+08
1.45192e+08
1.44949e+08
1.42297e+08
1.4211e+08
1.39574e+08
1.39438e+08
1.37009e+08
1.36919e+08
1.34588e+08
1.3454e+08
1.32299e+08
1.32289e+08
1.30131e+08
1.30156e+08
1.28074e+08
1.2813e+08
1.26119e+08
1.26203e+08
1.24257e+08
1.24367e+08
1.22479e+08
1.22612e+08
1.20778e+08
1.20933e+08
1.19148e+08
1.19321e+08
1.17583e+08
1.17772e+08
1.16077e+08
1.1628e+08
1.14627e+08
1.14845e+08
1.13227e+08
2.43e+08
2.43e+08
2.43e+08
2.43e+08
2.43e+08
2.43e+08
2.43e+08
2.43e+08
2.43e+08
2.43e+08
2.43e+08
2.43e+08
2.43e+08
2.43e+08
2.42278e+08
2.34437e+08
2.32391e+08
2.25102e+08
2.23193e+08
2.16447e+08
2.14703e+08
2.0846e+08
2.06889e+08
2.011e+08
1.99702e+08
1.94318e+08
1.93086e+08
1.88064e+08
1.86988e+08
1.82287e+08
1.81357e+08
1.76944e+08
1.76147e+08
1.71993e+08
1.71318e+08
1.67397e+08
1.66833e+08
1.63124e+08
1.6266e+08
1.59143e+08
1.58769e+08
1.55429e+08
1.55137e+08
1.51957e+08
1.51739e+08
1.48707e+08
1.48555e+08
1.45659e+08
1.45567e+08
1.42796e+08
1.42758e+08
1.40103e+08
1.40113e+08
1.37565e+08
1.37619e+08
1.35169e+08
1.35262e+08
1.32904e+08
1.33033e+08
1.30758e+08
1.30919e+08
1.28722e+08
1.28912e+08
1.26786e+08
1.27002e+08
1.24942e+08
1.25182e+08
1.23181e+08
1.23443e+08
1.21498e+08
1.21779e+08
1.19885e+08
1.20183e+08
1.18336e+08
1.1865e+08
1.16846e+08
1.17174e+08
1.15409e+08
1.1575e+08
1.14019e+08
2.43e+08
2.43e+08
2.43e+08
2.43e+08
2.43e+08
2.43e+08
2.43e+08
2.43e+08
2.43e+08
2.43e+08
2.43e+08
2.43e+08
2.43e+08
2.40146e+08
2.3824e+08
2.31003e+08
2.29276e+08
2.22419e+08
2.20844e+08
2.14391e+08
2.12971e+08
2.06913e+08
2.05647e+08
1.99961e+08
1.98847e+08
1.93506e+08
1.92539e+08
1.87514e+08
1.86687e+08
1.81951e+08
1.81253e+08
1.76781e+08
1.76205e+08
1.71974e+08
1.71508e+08
1.67498e+08
1.67134e+08
1.63327e+08
1.63055e+08
1.59434e+08
1.59246e+08
1.55795e+08
1.55683e+08
1.52391e+08
1.52347e+08
1.492e+08
1.49218e+08
1.46206e+08
1.46279e+08
1.43392e+08
1.43515e+08
1.40743e+08
1.40911e+08
1.38246e+08
1.38454e+08
1.35888e+08
1.36133e+08
1.33658e+08
1.33935e+08
1.31545e+08
1.31851e+08
1.2954e+08
1.29872e+08
1.27633e+08
1.27988e+08
1.25817e+08
1.26192e+08
1.24083e+08
1.24477e+08
1.22424e+08
1.22835e+08
1.20834e+08
1.2126e+08
1.19308e+08
1.19747e+08
1.17837e+08
1.18289e+08
1.16419e+08
1.16882e+08
1.15046e+08
2.43e+08
2.43e+08
2.43e+08
2.43e+08
2.43e+08
2.43e+08
2.43e+08
2.43e+08
2.43e+08
2.43e+08
2.43e+08
2.43e+08
2.43e+08
2.35864e+08
2.34353e+08
2.27489e+08
2.26105e+08
2.19576e+08
2.18327e+08
2.12125e+08
2.11015e+08
2.05133e+08
2.04162e+08
1.98587e+08
1.97754e+08
1.9247e+08
1.91771e+08
1.86761e+08
1.86189e+08
1.81434e+08
1.80981e+08
1.76465e+08
1.76123e+08
1.71828e+08
1.71588e+08
1.675e+08
1.67352e+08
1.63456e+08
1.63393e+08
1.59674e+08
1.59688e+08
1.56135e+08
1.56218e+08
1.52818e+08
1.52964e+08
1.49707e+08
1.49909e+08
1.46785e+08
1.47037e+08
1.44037e+08
1.44334e+08
1.41449e+08
1.41785e+08
1.39007e+08
1.3938e+08
1.36701e+08
1.37105e+08
1.34519e+08
1.34951e+08
1.32451e+08
1.32907e+08
1.30488e+08
1.30966e+08
1.2862e+08
1.29117e+08
1.26841e+08
1.27355e+08
1.25141e+08
1.2567e+08
1.23515e+08
1.24058e+08
1.21956e+08
1.2251e+08
1.20458e+08
1.21022e+08
1.19015e+08
1.19588e+08
1.17621e+08
1.18202e+08
1.16271e+08
2.43e+08
2.43e+08
2.43e+08
2.43e+08
2.43e+08
2.43e+08
2.43e+08
2.43e+08
2.43e+08
2.43e+08
2.43e+08
2.3992e+08
2.38468e+08
2.31808e+08
2.30499e+08
2.24065e+08
2.22912e+08
2.16712e+08
2.15714e+08
2.09756e+08
2.08907e+08
2.03198e+08
2.02492e+08
1.9703e+08
1.96461e+08
1.91241e+08
1.90801e+08
1.85815e+08
1.85497e+08
1.80735e+08
1.8053e+08
1.75982e+08
1.7588e+08
1.71534e+08
1.71527e+08
1.67372e+08
1.67451e+08
1.63476e+08
1.63633e+08
1.59827e+08
1.60055e+08
1.56407e+08
1.56697e+08
1.53199e+08
1.53545e+08
1.50186e+08
1.50582e+08
1.47354e+08
1.47794e+08
1.44688e+08
1.45167e+08
1.42176e+08
1.42689e+08
1.39805e+08
1.40348e+08
1.37565e+08
1.38134e+08
1.35444e+08
1.36035e+08
1.33433e+08
1.34044e+08
1.31522e+08
1.3215e+08
1.29705e+08
1.30346e+08
1.27972e+08
1.28626e+08
1.26316e+08
1.2698e+08
1.24731e+08
1.25404e+08
1.2321e+08
1.2389e+08
1.21748e+08
1.22434e+08
1.20338e+08
1.21029e+08
1.18976e+08
1.1967e+08
1.17656e+08
2.43e+08
2.43e+08
2.43e+08
2.43e+08
2.43e+08
2.43e+08
2.43e+08
2.43e+08
2.43e+08
2.43e+08
2.41771e+08
2.35461e+08
2.34192e+08
2.27911e+08
2.26826e+08
2.20691e+08
2.19776e+08
2.13815e+08
2.13063e+08
2.07292e+08
2.06694e+08
2.01122e+08
2.00671e+08
1.95303e+08
1.9499e+08
1.89825e+08
1.89641e+08
1.84679e+08
1.84613e+08
1.79848e+08
1.79892e+08
1.75319e+08
1.75461e+08
1.71072e+08
1.71304e+08
1.67092e+08
1.67404e+08
1.63361e+08
1.63745e+08
1.59862e+08
1.6031e+08
1.56579e+08
1.57083e+08
1.53496e+08
1.5405e+08
1.50599e+08
1.51196e+08
1.47873e+08
1.48508e+08
1.45306e+08
1.45973e+08
1.42886e+08
1.4358e+08
1.406e+08
1.41318e+08
1.38439e+08
1.39176e+08
1.36391e+08
1.37145e+08
1.34449e+08
1.35216e+08
1.32603e+08
1.33381e+08
1.30845e+08
1.31632e+08
1.29169e+08
1.29962e+08
1.27566e+08
1.28364e+08
1.2603e+08
1.26831e+08
1.24555e+08
1.25359e+08
1.23136e+08
1.2394e+08
1.21767e+08
1.22571e+08
1.20443e+08
1.21245e+08
1.19158e+08
2.43e+08
2.43e+08
2.43e+08
2.43e+08
2.43e+08
2.43e+08
2.43e+08
2.43e+08
2.43e+08
2.3852e+08
2.37344e+08
2.31164e+08
2.30134e+08
2.24097e+08
2.2324e+08
2.17324e+08
2.16642e+08
2.10861e+08
2.10348e+08
2.04718e+08
2.04366e+08
1.98898e+08
1.98698e+08
1.93401e+08
1.93341e+08
1.8822e+08
1.88289e+08
1.83346e+08
1.83532e+08
1.78765e+08
1.79057e+08
1.74464e+08
1.74852e+08
1.70428e+08
1.70901e+08
1.66642e+08
1.67189e+08
1.63089e+08
1.63703e+08
1.59755e+08
1.60426e+08
1.56625e+08
1.57346e+08
1.53683e+08
1.54447e+08
1.50917e+08
1.51717e+08
1.48313e+08
1.49144e+08
1.4586e+08
1.46716e+08
1.43545e+08
1.44422e+08
1.41357e+08
1.42251e+08
1.39287e+08
1.40194e+08
1.37326e+08
1.38243e+08
1.35464e+08
1.36387e+08
1.33693e+08
1.34621e+08
1.32005e+08
1.32935e+08
1.30394e+08
1.31324e+08
1.28852e+08
1.29781e+08
1.27374e+08
1.283e+08
1.25953e+08
1.26875e+08
1.24584e+08
1.25501e+08
1.23262e+08
1.24173e+08
1.21983e+08
1.22887e+08
1.2074e+08
2.43e+08
2.43e+08
2.43e+08
2.43e+08
2.43e+08
2.43e+08
2.43e+08
2.41027e+08
2.39736e+08
2.33992e+08
2.32904e+08
2.27066e+08
2.26189e+08
2.20373e+08
2.19704e+08
2.13957e+08
2.13486e+08
2.07836e+08
2.07551e+08
2.02022e+08
2.0191e+08
1.96517e+08
1.96563e+08
1.91318e+08
1.91508e+08
1.86419e+08
1.8674e+08
1.8181e+08
1.82247e+08
1.77478e+08
1.78019e+08
1.7341e+08
1.74043e+08
1.69592e+08
1.70306e+08
1.6601e+08
1.66793e+08
1.62647e+08
1.63491e+08
1.59491e+08
1.60385e+08
1.56526e+08
1.57464e+08
1.5374e+08
1.54713e+08
1.51118e+08
1.52121e+08
1.4865e+08
1.49676e+08
1.46323e+08
1.47368e+08
1.44126e+08
1.45184e+08
1.42049e+08
1.43117e+08
1.40083e+08
1.41157e+08
1.38218e+08
1.39295e+08
1.36446e+08
1.37523e+08
1.3476e+08
1.35834e+08
1.33151e+08
1.34221e+08
1.31614e+08
1.32677e+08
1.30142e+08
1.31197e+08
1.28729e+08
1.29775e+08
1.27369e+08
1.28404e+08
1.26057e+08
1.27081e+08
1.24788e+08
1.258e+08
1.23559e+08
1.24558e+08
1.22363e+08
2.43e+08
2.43e+08
2.43e+08
2.43e+08
2.43e+08
2.43e+08
2.42011e+08
2.36448e+08
2.35324e+08
2.29624e+08
2.28738e+08
2.22993e+08
2.22332e+08
2.16604e+08
2.16162e+08
2.10493e+08
2.10258e+08
2.04676e+08
2.04635e+08
1.99161e+08
1.99298e+08
1.93949e+08
1.94248e+08
1.89035e+08
1.89479e+08
1.8441e+08
1.84984e+08
1.80063e+08
1.80752e+08
1.75982e+08
1.76771e+08
1.72152e+08
1.73029e+08
1.68559e+08
1.69511e+08
1.65189e+08
1.66206e+08
1.62028e+08
1.63098e+08
1.5906e+08
1.60175e+08
1.56273e+08
1.57424e+08
1.53653e+08
1.54834e+08
1.51189e+08
1.52391e+08
1.48867e+08
1.50086e+08
1.46678e+08
1.47907e+08
1.4461e+08
1.45846e+08
1.42655e+08
1.43893e+08
1.40802e+08
1.42038e+08
1.39043e+08
1.40275e+08
1.37371e+08
1.38596e+08
1.35778e+08
1.36993e+08
1.34257e+08
1.3546e+08
1.32801e+08
1.33991e+08
1.31405e+08
1.32581e+08
1.30064e+08
1.31223e+08
1.28771e+08
1.29913e+08
1.27522e+08
1.28646e+08
1.26313e+08
1.27418e+08
1.25138e+08
1.26225e+08
1.23995e+08
2.43e+08
2.43e+08
2.43e+08
2.43e+08
2.43e+08
2.38743e+08
2.37587e+08
2.31903e+08
2.30974e+08
2.25267e+08
2.24585e+08
2.18863e+08
2.18425e+08
2.12728e+08
2.12521e+08
2.06884e+08
2.06894e+08
2.01344e+08
2.01554e+08
1.96111e+08
1.96502e+08
1.9118e+08
1.91734e+08
1.86543e+08
1.87242e+08
1.82189e+08
1.83016e+08
1.78106e+08
1.79044e+08
1.74278e+08
1.75313e+08
1.70692e+08
1.71809e+08
1.67331e+08
1.68518e+08
1.64182e+08
1.65427e+08
1.61231e+08
1.62523e+08
1.58462e+08
1.59792e+08
1.55862e+08
1.57221e+08
1.53419e+08
1.548e+08
1.51121e+08
1.52517e+08
1.48957e+08
1.50361e+08
1.46915e+08
1.48322e+08
1.44986e+08
1.46392e+08
1.4316e+08
1.44561e+08
1.41429e+08
1.42821e+08
1.39785e+08
1.41165e+08
1.3822e+08
1.39585e+08
1.36727e+08
1.38076e+08
1.353e+08
1.3663e+08
1.33932e+08
1.35242e+08
1.32619e+08
1.33907e+08
1.31354e+08
1.3262e+08
1.30134e+08
1.31375e+08
1.28953e+08
1.3017e+08
1.27807e+08
1.28999e+08
1.26692e+08
1.27859e+08
1.25606e+08
2.43e+08
2.43e+08
2.43e+08
2.41048e+08
2.39629e+08
2.34177e+08
2.33076e+08
2.27409e+08
2.26618e+08
2.2088e+08
2.20384e+08
2.1464e+08
2.14417e+08
2.08713e+08
2.08741e+08
2.03108e+08
2.03365e+08
1.97828e+08
1.9829e+08
1.92864e+08
1.9351e+08
1.88208e+08
1.89017e+08
1.83847e+08
1.84799e+08
1.79765e+08
1.80841e+08
1.75948e+08
1.77131e+08
1.72378e+08
1.73653e+08
1.6904e+08
1.70392e+08
1.65919e+08
1.67334e+08
1.62998e+08
1.64464e+08
1.60264e+08
1.6177e+08
1.57701e+08
1.59238e+08
1.55297e+08
1.56856e+08
1.53039e+08
1.54612e+08
1.50916e+08
1.52496e+08
1.48916e+08
1.50497e+08
1.47029e+08
1.48606e+08
1.45246e+08
1.46814e+08
1.43557e+08
1.45112e+08
1.41954e+08
1.43493e+08
1.4043e+08
1.4195e+08
1.38978e+08
1.40476e+08
1.37591e+08
1.39065e+08
1.36263e+08
1.37712e+08
1.34989e+08
1.3641e+08
1.33763e+08
1.35155e+08
1.3258e+08
1.33943e+08
1.31436e+08
1.32769e+08
1.30326e+08
1.31628e+08
1.29248e+08
1.30518e+08
1.28197e+08
1.29435e+08
1.2717e+08
2.43e+08
2.43e+08
2.42193e+08
2.36577e+08
2.35314e+08
2.29533e+08
2.28626e+08
2.22758e+08
2.22188e+08
2.16315e+08
2.16056e+08
2.10229e+08
2.10255e+08
2.04505e+08
2.04788e+08
1.99137e+08
1.99651e+08
1.94115e+08
1.94834e+08
1.89422e+08
1.90324e+08
1.85044e+08
1.86105e+08
1.8096e+08
1.8216e+08
1.77154e+08
1.78474e+08
1.73606e+08
1.75028e+08
1.70299e+08
1.71806e+08
1.67216e+08
1.68792e+08
1.64339e+08
1.65972e+08
1.61652e+08
1.63329e+08
1.5914e+08
1.60851e+08
1.5679e+08
1.58524e+08
1.54588e+08
1.56335e+08
1.52521e+08
1.54275e+08
1.50578e+08
1.52331e+08
1.48748e+08
1.50495e+08
1.47021e+08
1.48757e+08
1.45389e+08
1.47108e+08
1.43841e+08
1.4554e+08
1.42372e+08
1.44048e+08
1.40973e+08
1.42622e+08
1.39638e+08
1.41259e+08
1.38361e+08
1.39951e+08
1.37136e+08
1.38693e+08
1.35958e+08
1.37481e+08
1.34822e+08
1.36311e+08
1.33724e+08
1.35176e+08
1.3266e+08
1.34075e+08
1.31625e+08
1.33003e+08
1.30617e+08
1.31957e+08
1.29631e+08
1.30933e+08
1.28666e+08
2.43e+08
2.39646e+08
2.37983e+08
2.31956e+08
2.30803e+08
2.24698e+08
2.23978e+08
2.17895e+08
2.17549e+08
2.11539e+08
2.11523e+08
2.05616e+08
2.05893e+08
2.00104e+08
2.00641e+08
1.94981e+08
1.95749e+08
1.90224e+08
1.91195e+08
1.85808e+08
1.86958e+08
1.81711e+08
1.83017e+08
1.7791e+08
1.79349e+08
1.74383e+08
1.75936e+08
1.71109e+08
1.72758e+08
1.68069e+08
1.69796e+08
1.65243e+08
1.67033e+08
1.62614e+08
1.64453e+08
1.60164e+08
1.6204e+08
1.5788e+08
1.59781e+08
1.55746e+08
1.57663e+08
1.53748e+08
1.55672e+08
1.51876e+08
1.53798e+08
1.50116e+08
1.52031e+08
1.4846e+08
1.50361e+08
1.46896e+08
1.48778e+08
1.45418e+08
1.47276e+08
1.44015e+08
1.45846e+08
1.42681e+08
1.44482e+08
1.4141e+08
1.43178e+08
1.40195e+08
1.41927e+08
1.3903e+08
1.40725e+08
1.3791e+08
1.39566e+08
1.36831e+08
1.38446e+08
1.35787e+08
1.37361e+08
1.34775e+08
1.36307e+08
1.33792e+08
1.35281e+08
1.32834e+08
1.34279e+08
1.31897e+08
1.33299e+08
1.30979e+08
1.32337e+08
1.30077e+08
2.41783e+08
2.35095e+08
2.33562e+08
2.26973e+08
2.26011e+08
2.19576e+08
2.19071e+08
2.12796e+08
2.12679e+08
2.06564e+08
2.06785e+08
2.00828e+08
2.01346e+08
1.95545e+08
1.96324e+08
1.90677e+08
1.91687e+08
1.86192e+08
1.87403e+08
1.82058e+08
1.83445e+08
1.78247e+08
1.79784e+08
1.74731e+08
1.76397e+08
1.71486e+08
1.73259e+08
1.68488e+08
1.7035e+08
1.65716e+08
1.67649e+08
1.63149e+08
1.65139e+08
1.60769e+08
1.62801e+08
1.58559e+08
1.6062e+08
1.56503e+08
1.58581e+08
1.54586e+08
1.56672e+08
1.52795e+08
1.54881e+08
1.51117e+08
1.53195e+08
1.49543e+08
1.51605e+08
1.4806e+08
1.50102e+08
1.46662e+08
1.48677e+08
1.45337e+08
1.47322e+08
1.4408e+08
1.46031e+08
1.42884e+08
1.44797e+08
1.41741e+08
1.43615e+08
1.40646e+08
1.42478e+08
1.39594e+08
1.41382e+08
1.3858e+08
1.40323e+08
1.37599e+08
1.39297e+08
1.36649e+08
1.38299e+08
1.35725e+08
1.37327e+08
1.34823e+08
1.36377e+08
1.33941e+08
1.35446e+08
1.33077e+08
1.34533e+08
1.32227e+08
1.33633e+08
1.31389e+08
2.3737e+08
2.29988e+08
2.28592e+08
2.21666e+08
2.20853e+08
2.14236e+08
2.13904e+08
2.07535e+08
2.0761e+08
2.01457e+08
2.01883e+08
1.95925e+08
1.96657e+08
1.90882e+08
1.9188e+08
1.86276e+08
1.87507e+08
1.82068e+08
1.83499e+08
1.78217e+08
1.79822e+08
1.74692e+08
1.76444e+08
1.71462e+08
1.73338e+08
1.68498e+08
1.70476e+08
1.65776e+08
1.67836e+08
1.63271e+08
1.65396e+08
1.60962e+08
1.63136e+08
1.58831e+08
1.6104e+08
1.56859e+08
1.59089e+08
1.55029e+08
1.57271e+08
1.53329e+08
1.5557e+08
1.51743e+08
1.53977e+08
1.5026e+08
1.52478e+08
1.48869e+08
1.51065e+08
1.4756e+08
1.49728e+08
1.46325e+08
1.4846e+08
1.45154e+08
1.47253e+08
1.44042e+08
1.461e+08
1.42981e+08
1.44996e+08
1.41966e+08
1.43935e+08
1.4099e+08
1.42912e+08
1.40051e+08
1.41922e+08
1.39142e+08
1.40963e+08
1.3826e+08
1.4003e+08
1.37402e+08
1.39119e+08
1.36565e+08
1.38229e+08
1.35745e+08
1.37355e+08
1.3494e+08
1.36496e+08
1.34147e+08
1.35649e+08
1.33364e+08
1.34812e+08
1.3259e+08
2.31901e+08
2.24361e+08
2.23111e+08
2.16066e+08
2.15396e+08
2.08716e+08
2.08539e+08
2.02151e+08
2.02398e+08
1.96258e+08
1.96869e+08
1.90949e+08
1.91875e+08
1.86154e+08
1.87353e+08
1.81816e+08
1.8325e+08
1.77886e+08
1.79521e+08
1.7432e+08
1.76127e+08
1.7108e+08
1.73031e+08
1.68134e+08
1.70204e+08
1.6545e+08
1.67616e+08
1.63e+08
1.65243e+08
1.6076e+08
1.63061e+08
1.58707e+08
1.6105e+08
1.56821e+08
1.59191e+08
1.55084e+08
1.57469e+08
1.53479e+08
1.55867e+08
1.51991e+08
1.54373e+08
1.50607e+08
1.52974e+08
1.49316e+08
1.51661e+08
1.48106e+08
1.50422e+08
1.46968e+08
1.49249e+08
1.45893e+08
1.48135e+08
1.44875e+08
1.47073e+08
1.43904e+08
1.46057e+08
1.42977e+08
1.45081e+08
1.42087e+08
1.44139e+08
1.4123e+08
1.43229e+08
1.404e+08
1.42345e+08
1.39595e+08
1.41484e+08
1.3881e+08
1.40642e+08
1.38044e+08
1.39818e+08
1.37291e+08
1.39008e+08
1.36551e+08
1.3821e+08
1.35822e+08
1.37421e+08
1.351e+08
1.36641e+08
1.34384e+08
1.35866e+08
1.33673e+08
2.2578e+08
2.18271e+08
2.17204e+08
2.10161e+08
2.09662e+08
2.02995e+08
2.02989e+08
1.96633e+08
1.97056e+08
1.90966e+08
1.9176e+08
1.85904e+08
1.87019e+08
1.81373e+08
1.82764e+08
1.77311e+08
1.78939e+08
1.73664e+08
1.75492e+08
1.70384e+08
1.72381e+08
1.67431e+08
1.69568e+08
1.64767e+08
1.67018e+08
1.62359e+08
1.64701e+08
1.6018e+08
1.62592e+08
1.58201e+08
1.60664e+08
1.564e+08
1.58898e+08
1.54755e+08
1.57274e+08
1.53249e+08
1.55775e+08
1.51864e+08
1.54386e+08
1.50586e+08
1.53094e+08
1.494e+08
1.51886e+08
1.48296e+08
1.50753e+08
1.47263e+08
1.49685e+08
1.46292e+08
1.48673e+08
1.45375e+08
1.4771e+08
1.44503e+08
1.4679e+08
1.43672e+08
1.45907e+08
1.42875e+08
1.45055e+08
1.42107e+08
1.44231e+08
1.41365e+08
1.4343e+08
1.40643e+08
1.42649e+08
1.39938e+08
1.41884e+08
1.39248e+08
1.41133e+08
1.3857e+08
1.40393e+08
1.37901e+08
1.39662e+08
1.37239e+08
1.38938e+08
1.36583e+08
1.38219e+08
1.3593e+08
1.37503e+08
1.35279e+08
1.3679e+08
1.34629e+08
2.19164e+08
2.1178e+08
2.10915e+08
2.03958e+08
2.03651e+08
1.97058e+08
1.97241e+08
1.9096e+08
1.91572e+08
1.85562e+08
1.86547e+08
1.80778e+08
1.82084e+08
1.76532e+08
1.78114e+08
1.7276e+08
1.74577e+08
1.69404e+08
1.71419e+08
1.66416e+08
1.68595e+08
1.63751e+08
1.66065e+08
1.6137e+08
1.63792e+08
1.59238e+08
1.61745e+08
1.57326e+08
1.59896e+08
1.55606e+08
1.58219e+08
1.54053e+08
1.56693e+08
1.52646e+08
1.55299e+08
1.51366e+08
1.54019e+08
1.50196e+08
1.52838e+08
1.49122e+08
1.51743e+08
1.48129e+08
1.50722e+08
1.47208e+08
1.49764e+08
1.46347e+08
1.48862e+08
1.45538e+08
1.48006e+08
1.44773e+08
1.4719e+08
1.44045e+08
1.46407e+08
1.43348e+08
1.45653e+08
1.42677e+08
1.44923e+08
1.42028e+08
1.44212e+08
1.41396e+08
1.43518e+08
1.40778e+08
1.42836e+08
1.40171e+08
1.42165e+08
1.39572e+08
1.41501e+08
1.38979e+08
1.40843e+08
1.38391e+08
1.40189e+08
1.37805e+08
1.39536e+08
1.37219e+08
1.38885e+08
1.36633e+08
1.38233e+08
1.36045e+08
1.3758e+08
1.35455e+08
2.12155e+08
2.04949e+08
2.04295e+08
1.97479e+08
1.97377e+08
1.90905e+08
1.9129e+08
1.85122e+08
1.85933e+08
1.80034e+08
1.81216e+08
1.75559e+08
1.7706e+08
1.71621e+08
1.73395e+08
1.68155e+08
1.7016e+08
1.65103e+08
1.67301e+08
1.62413e+08
1.6477e+08
1.60041e+08
1.62526e+08
1.57945e+08
1.6053e+08
1.5609e+08
1.58752e+08
1.54445e+08
1.57161e+08
1.5298e+08
1.55732e+08
1.51672e+08
1.54443e+08
1.50498e+08
1.53274e+08
1.4944e+08
1.52208e+08
1.4848e+08
1.51229e+08
1.47604e+08
1.50326e+08
1.468e+08
1.49486e+08
1.46055e+08
1.48699e+08
1.45361e+08
1.47957e+08
1.44709e+08
1.47252e+08
1.44091e+08
1.46578e+08
1.43501e+08
1.45928e+08
1.42934e+08
1.45299e+08
1.42384e+08
1.44686e+08
1.41849e+08
1.44084e+08
1.41323e+08
1.43493e+08
1.40805e+08
1.42907e+08
1.40292e+08
1.42325e+08
1.39781e+08
1.41746e+08
1.39271e+08
1.41167e+08
1.38759e+08
1.40587e+08
1.38246e+08
1.40004e+08
1.37728e+08
1.39418e+08
1.37207e+08
1.38827e+08
1.3668e+08
1.38232e+08
1.36146e+08
2.04826e+08
1.97834e+08
1.9739e+08
1.90756e+08
1.90862e+08
1.84551e+08
1.85142e+08
1.79121e+08
1.80137e+08
1.74378e+08
1.75761e+08
1.70239e+08
1.71938e+08
1.66631e+08
1.68598e+08
1.63489e+08
1.65681e+08
1.60754e+08
1.63132e+08
1.58372e+08
1.60901e+08
1.56299e+08
1.58948e+08
1.54492e+08
1.57233e+08
1.52915e+08
1.55723e+08
1.51535e+08
1.54389e+08
1.50324e+08
1.53205e+08
1.49258e+08
1.52149e+08
1.48314e+08
1.51201e+08
1.47473e+08
1.50344e+08
1.46718e+08
1.49564e+08
1.46036e+08
1.48847e+08
1.45414e+08
1.48182e+08
1.44841e+08
1.4756e+08
1.44308e+08
1.46973e+08
1.43806e+08
1.46414e+08
1.4333e+08
1.45876e+08
1.42873e+08
1.45355e+08
1.4243e+08
1.44845e+08
1.41997e+08
1.44344e+08
1.41571e+08
1.43848e+08
1.41148e+08
1.43355e+08
1.40725e+08
1.42861e+08
1.40301e+08
1.42366e+08
1.39874e+08
1.41868e+08
1.39443e+08
1.41364e+08
1.39005e+08
1.40855e+08
1.38561e+08
1.4034e+08
1.38109e+08
1.39816e+08
1.37648e+08
1.39285e+08
1.37179e+08
1.38745e+08
1.367e+08
1.97235e+08
1.9048e+08
1.90243e+08
1.8382e+08
1.84134e+08
1.78014e+08
1.78813e+08
1.72968e+08
1.7419e+08
1.68596e+08
1.70182e+08
1.64818e+08
1.66715e+08
1.61561e+08
1.6372e+08
1.58759e+08
1.61136e+08
1.56353e+08
1.58907e+08
1.54289e+08
1.56986e+08
1.52522e+08
1.55328e+08
1.51007e+08
1.53896e+08
1.4971e+08
1.52656e+08
1.48596e+08
1.51578e+08
1.47638e+08
1.50638e+08
1.46811e+08
1.49812e+08
1.46092e+08
1.49081e+08
1.45465e+08
1.48429e+08
1.44911e+08
1.47841e+08
1.44417e+08
1.47306e+08
1.43972e+08
1.46811e+08
1.43565e+08
1.46349e+08
1.43187e+08
1.45912e+08
1.42831e+08
1.45493e+08
1.42491e+08
1.45086e+08
1.42161e+08
1.44688e+08
1.41838e+08
1.44293e+08
1.41516e+08
1.439e+08
1.41194e+08
1.43505e+08
1.40868e+08
1.43105e+08
1.40537e+08
1.427e+08
1.40198e+08
1.42287e+08
1.39851e+08
1.41866e+08
1.39494e+08
1.41435e+08
1.39127e+08
1.40994e+08
1.38748e+08
1.40542e+08
1.38358e+08
1.40079e+08
1.37956e+08
1.39604e+08
1.37542e+08
1.39118e+08
1.37116e+08
1.89427e+08
1.82928e+08
1.82892e+08
1.76703e+08
1.77222e+08
1.71317e+08
1.72322e+08
1.66678e+08
1.68104e+08
1.62699e+08
1.64487e+08
1.59302e+08
1.61395e+08
1.56412e+08
1.58761e+08
1.53965e+08
1.56523e+08
1.51899e+08
1.54625e+08
1.50162e+08
1.5302e+08
1.48706e+08
1.51664e+08
1.47489e+08
1.50518e+08
1.46473e+08
1.49549e+08
1.45625e+08
1.48727e+08
1.44919e+08
1.48028e+08
1.44329e+08
1.4743e+08
1.43833e+08
1.46913e+08
1.43414e+08
1.46461e+08
1.43056e+08
1.46062e+08
1.42746e+08
1.45702e+08
1.42473e+08
1.45373e+08
1.42226e+08
1.45065e+08
1.41998e+08
1.44772e+08
1.41782e+08
1.44488e+08
1.41573e+08
1.44208e+08
1.41365e+08
1.43927e+08
1.41155e+08
1.43643e+08
1.4094e+08
1.43352e+08
1.40717e+08
1.43053e+08
1.40484e+08
1.42744e+08
1.40239e+08
1.42422e+08
1.39982e+08
1.42089e+08
1.3971e+08
1.41741e+08
1.39425e+08
1.41379e+08
1.39124e+08
1.41003e+08
1.38808e+08
1.40612e+08
1.38477e+08
1.40206e+08
1.3813e+08
1.39786e+08
1.37768e+08
1.3935e+08
1.37391e+08
1.81441e+08
1.75211e+08
1.75373e+08
1.69434e+08
1.70154e+08
1.64484e+08
1.65692e+08
1.60268e+08
1.61896e+08
1.56699e+08
1.58685e+08
1.53698e+08
1.55984e+08
1.51191e+08
1.53724e+08
1.4911e+08
1.51843e+08
1.47395e+08
1.50287e+08
1.45992e+08
1.49005e+08
1.44853e+08
1.47954e+08
1.43936e+08
1.47097e+08
1.43203e+08
1.464e+08
1.42622e+08
1.45834e+08
1.42166e+08
1.45375e+08
1.4181e+08
1.45001e+08
1.41534e+08
1.44694e+08
1.4132e+08
1.4444e+08
1.41154e+08
1.44224e+08
1.41022e+08
1.44036e+08
1.40915e+08
1.43866e+08
1.40823e+08
1.43708e+08
1.4074e+08
1.43554e+08
1.40659e+08
1.434e+08
1.40575e+08
1.4324e+08
1.40483e+08
1.43072e+08
1.40382e+08
1.42893e+08
1.40268e+08
1.42701e+08
1.4014e+08
1.42494e+08
1.39995e+08
1.4227e+08
1.39832e+08
1.42029e+08
1.39651e+08
1.4177e+08
1.39452e+08
1.41492e+08
1.39234e+08
1.41197e+08
1.38996e+08
1.40882e+08
1.38739e+08
1.40549e+08
1.38464e+08
1.40198e+08
1.38169e+08
1.39829e+08
1.37857e+08
1.39442e+08
1.37527e+08
1.73311e+08
1.67361e+08
1.67714e+08
1.6204e+08
1.62957e+08
1.57536e+08
1.58943e+08
1.53756e+08
1.55582e+08
1.50612e+08
1.52791e+08
1.4802e+08
1.50493e+08
1.45906e+08
1.48618e+08
1.44201e+08
1.47104e+08
1.42845e+08
1.45895e+08
1.41782e+08
1.44941e+08
1.40964e+08
1.442e+08
1.40349e+08
1.43633e+08
1.399e+08
1.43208e+08
1.39585e+08
1.42897e+08
1.39377e+08
1.42676e+08
1.39253e+08
1.42524e+08
1.39193e+08
1.42424e+08
1.3918e+08
1.42362e+08
1.39201e+08
1.42325e+08
1.39243e+08
1.42304e+08
1.39297e+08
1.4229e+08
1.39355e+08
1.42275e+08
1.39411e+08
1.42256e+08
1.39459e+08
1.42226e+08
1.39495e+08
1.42183e+08
1.39515e+08
1.42123e+08
1.39518e+08
1.42045e+08
1.395e+08
1.41946e+08
1.39461e+08
1.41826e+08
1.394e+08
1.41684e+08
1.39315e+08
1.41519e+08
1.39207e+08
1.41331e+08
1.39076e+08
1.41121e+08
1.38921e+08
1.40888e+08
1.38743e+08
1.40632e+08
1.38542e+08
1.40354e+08
1.38319e+08
1.40055e+08
1.38075e+08
1.39735e+08
1.37809e+08
1.39395e+08
1.37523e+08
1.65065e+08
1.59404e+08
1.59944e+08
1.54545e+08
1.55654e+08
1.50497e+08
1.52098e+08
1.47163e+08
1.49182e+08
1.44452e+08
1.4682e+08
1.42279e+08
1.44934e+08
1.40568e+08
1.43452e+08
1.39247e+08
1.42312e+08
1.38256e+08
1.41455e+08
1.37537e+08
1.40834e+08
1.37043e+08
1.40404e+08
1.36732e+08
1.40128e+08
1.36566e+08
1.39975e+08
1.36516e+08
1.39917e+08
1.36554e+08
1.39932e+08
1.36658e+08
1.39998e+08
1.3681e+08
1.40102e+08
1.36994e+08
1.40228e+08
1.37196e+08
1.40366e+08
1.37407e+08
1.40506e+08
1.37617e+08
1.40642e+08
1.3782e+08
1.40767e+08
1.3801e+08
1.40877e+08
1.38182e+08
1.40967e+08
1.38332e+08
1.41035e+08
1.38459e+08
1.41079e+08
1.38561e+08
1.41096e+08
1.38635e+08
1.41087e+08
1.38681e+08
1.41051e+08
1.38699e+08
1.40986e+08
1.38689e+08
1.40894e+08
1.3865e+08
1.40774e+08
1.38582e+08
1.40627e+08
1.38488e+08
1.40453e+08
1.38366e+08
1.40253e+08
1.38218e+08
1.40028e+08
1.38045e+08
1.39778e+08
1.37847e+08
1.39505e+08
1.37626e+08
1.39209e+08
1.37382e+08
1.56732e+08
1.51366e+08
1.52087e+08
1.46974e+08
1.4827e+08
1.43388e+08
1.45177e+08
1.40507e+08
1.42713e+08
1.38238e+08
1.40788e+08
1.36492e+08
1.39321e+08
1.3519e+08
1.38239e+08
1.34259e+08
1.37476e+08
1.33636e+08
1.36976e+08
1.33265e+08
1.36689e+08
1.33096e+08
1.36571e+08
1.33088e+08
1.36587e+08
1.33205e+08
1.36704e+08
1.33417e+08
1.36897e+08
1.33697e+08
1.37143e+08
1.34026e+08
1.37425e+08
1.34386e+08
1.37727e+08
1.34761e+08
1.38037e+08
1.35141e+08
1.38344e+08
1.35515e+08
1.38642e+08
1.35876e+08
1.38923e+08
1.36218e+08
1.39183e+08
1.36536e+08
1.39416e+08
1.36827e+08
1.39622e+08
1.37087e+08
1.39796e+08
1.37316e+08
1.39939e+08
1.37512e+08
1.40049e+08
1.37673e+08
1.40125e+08
1.378e+08
1.40168e+08
1.37893e+08
1.40177e+08
1.37953e+08
1.40154e+08
1.37979e+08
1.40098e+08
1.37972e+08
1.40011e+08
1.37934e+08
1.39894e+08
1.37866e+08
1.39747e+08
1.37768e+08
1.39571e+08
1.37641e+08
1.39369e+08
1.37488e+08
1.3914e+08
1.37308e+08
1.38886e+08
1.37104e+08
1.48336e+08
1.4327e+08
1.44167e+08
1.39346e+08
1.40824e+08
1.36227e+08
1.382e+08
1.33806e+08
1.36194e+08
1.31985e+08
1.34712e+08
1.30672e+08
1.33669e+08
1.29785e+08
1.3299e+08
1.29248e+08
1.32609e+08
1.28996e+08
1.32467e+08
1.28973e+08
1.32515e+08
1.29129e+08
1.32708e+08
1.29423e+08
1.33013e+08
1.2982e+08
1.33398e+08
1.3029e+08
1.33838e+08
1.3081e+08
1.34312e+08
1.31359e+08
1.34804e+08
1.31921e+08
1.353e+08
1.32483e+08
1.35789e+08
1.33034e+08
1.36262e+08
1.33566e+08
1.36712e+08
1.34072e+08
1.37133e+08
1.34548e+08
1.37522e+08
1.3499e+08
1.37875e+08
1.35394e+08
1.38191e+08
1.3576e+08
1.38468e+08
1.36085e+08
1.38705e+08
1.36371e+08
1.38902e+08
1.36615e+08
1.3906e+08
1.36819e+08
1.39178e+08
1.36983e+08
1.39258e+08
1.37108e+08
1.393e+08
1.37196e+08
1.39306e+08
1.37247e+08
1.39276e+08
1.37262e+08
1.39212e+08
1.37244e+08
1.39115e+08
1.37193e+08
1.38987e+08
1.3711e+08
1.38829e+08
1.36999e+08
1.38643e+08
1.36859e+08
1.38429e+08
1.36692e+08
1.39898e+08
1.35137e+08
1.36204e+08
1.31683e+08
1.33339e+08
1.29034e+08
1.31187e+08
1.27078e+08
1.29643e+08
1.25711e+08
1.28608e+08
1.24837e+08
1.27993e+08
1.24367e+08
1.27721e+08
1.24227e+08
1.27722e+08
1.24347e+08
1.27939e+08
1.24672e+08
1.28319e+08
1.25151e+08
1.28822e+08
1.25744e+08
1.29413e+08
1.26417e+08
1.30061e+08
1.27142e+08
1.30744e+08
1.27895e+08
1.31442e+08
1.28658e+08
1.3214e+08
1.29417e+08
1.32825e+08
1.3016e+08
1.33487e+08
1.30877e+08
1.3412e+08
1.31561e+08
1.34716e+08
1.32207e+08
1.35273e+08
1.32812e+08
1.35786e+08
1.33372e+08
1.36254e+08
1.33885e+08
1.36675e+08
1.34351e+08
1.3705e+08
1.34768e+08
1.37378e+08
1.35139e+08
1.37659e+08
1.35461e+08
1.37894e+08
1.35738e+08
1.38084e+08
1.3597e+08
1.3823e+08
1.36157e+08
1.38334e+08
1.36303e+08
1.38398e+08
1.36407e+08
1.38422e+08
1.36473e+08
1.38409e+08
1.36502e+08
1.3836e+08
1.36495e+08
1.38277e+08
1.36455e+08
1.38162e+08
1.36382e+08
1.38016e+08
1.3628e+08
1.37841e+08
1.36149e+08
1.31439e+08
1.26985e+08
1.28219e+08
1.24002e+08
1.25832e+08
1.21827e+08
1.24156e+08
1.20341e+08
1.23077e+08
1.19433e+08
1.22493e+08
1.19e+08
1.22309e+08
1.18952e+08
1.22444e+08
1.19209e+08
1.22829e+08
1.19701e+08
1.23402e+08
1.20371e+08
1.24113e+08
1.21171e+08
1.24922e+08
1.22059e+08
1.25794e+08
1.23003e+08
1.26702e+08
1.23976e+08
1.27622e+08
1.24957e+08
1.28538e+08
1.25929e+08
1.29435e+08
1.26878e+08
1.30303e+08
1.27795e+08
1.31133e+08
1.28672e+08
1.3192e+08
1.29503e+08
1.32657e+08
1.30283e+08
1.33343e+08
1.3101e+08
1.33976e+08
1.31683e+08
1.34554e+08
1.323e+08
1.35077e+08
1.32861e+08
1.35545e+08
1.33366e+08
1.35958e+08
1.33817e+08
1.36319e+08
1.34215e+08
1.36628e+08
1.3456e+08
1.36886e+08
1.34855e+08
1.37096e+08
1.35102e+08
1.37259e+08
1.35302e+08
1.37378e+08
1.35457e+08
1.37454e+08
1.3557e+08
1.37489e+08
1.35643e+08
1.37485e+08
1.35678e+08
1.37445e+08
1.35676e+08
1.3737e+08
1.35641e+08
1.37262e+08
1.35574e+08
1.37123e+08
1.35477e+08
1.22979e+08
1.18833e+08
1.2023e+08
1.16322e+08
1.18322e+08