/*--------------------------------*- C++ -*----------------------------------*\
| =========                 |                                                 |
| \\      /  F ield         | OpenFOAM: The Open Source CFD Toolbox           |
|  \\    /   O peration     | Version:  v2012                                 |
|   \\  /    A nd           | Website:  www.openfoam.com                      |
|    \\/     M anipulation  |                                                 |
\*---------------------------------------------------------------------------*/
FoamFile
{
    version     2.0;
    format      ascii;
    class       volVectorField;
    location    "20";
    object      D;
}
// * * * * * * * * * * * * * * * * * * * * * * * * * * * * * * * * * * * * * //

dimensions      [0 1 0 0 0 0 0];


internalField   nonuniform List<vector> 
16000
(
(3.08545e-05 0.000375901 0)
(3.20281e-05 0.000325846 0)
(3.30095e-05 0.000274824 0)
(3.37422e-05 0.000224247 0)
(3.42667e-05 0.000174336 0)
(3.4592e-05 0.000125289 0)
(3.47519e-05 7.73873e-05 0)
(3.47503e-05 3.06117e-05 0)
(3.46132e-05 -1.46684e-05 0)
(3.43432e-05 -5.86248e-05 0)
(3.39784e-05 -0.000100847 0)
(3.35125e-05 -0.000141612 0)
(3.29609e-05 -0.000180504 0)
(3.2324e-05 -0.000217841 0)
(3.16252e-05 -0.000253217 0)
(3.08627e-05 -0.000286969 0)
(3.00366e-05 -0.000318744 0)
(2.91427e-05 -0.000348825 0)
(2.82385e-05 -0.000376912 0)
(2.72344e-05 -0.000403323 0)
(2.62207e-05 -0.0004277 0)
(2.51617e-05 -0.000450409 0)
(2.40325e-05 -0.000471139 0)
(2.29144e-05 -0.000490152 0)
(2.1717e-05 -0.000507294 0)
(2.0508e-05 -0.000522717 0)
(1.92921e-05 -0.000536345 0)
(1.80278e-05 -0.00054836 0)
(1.67964e-05 -0.000558645 0)
(1.55413e-05 -0.000567475 0)
(1.43176e-05 -0.000574721 0)
(1.31341e-05 -0.000580676 0)
(1.1986e-05 -0.000585286 0)
(1.09207e-05 -0.000588792 0)
(9.92604e-06 -0.000591238 0)
(9.03127e-06 -0.000592824 0)
(8.24853e-06 -0.000593625 0)
(7.57555e-06 -0.00059385 0)
(7.06884e-06 -0.000593569 0)
(6.6291e-06 -0.000593154 0)
(9.21201e-05 0.000369328 0)
(9.56404e-05 0.000319579 0)
(9.85997e-05 0.000268934 0)
(0.000100821 0.000218756 0)
(0.000102403 0.000169235 0)
(0.000103397 0.000120581 0)
(0.000103901 7.30615e-05 0)
(0.000103906 2.66569e-05 0)
(0.000103541 -1.82541e-05 0)
(0.000102745 -6.18782e-05 0)
(0.000101683 -0.000103771 0)
(0.000100275 -0.00014423 0)
(9.8666e-05 -0.000182809 0)
(9.67583e-05 -0.000219864 0)
(9.46772e-05 -0.000254954 0)
(9.23904e-05 -0.000288439 0)
(8.99321e-05 -0.000319915 0)
(8.72569e-05 -0.000349748 0)
(8.45129e-05 -0.000377551 0)
(8.15359e-05 -0.000403655 0)
(7.84533e-05 -0.000427776 0)
(7.52643e-05 -0.000450138 0)
(7.18953e-05 -0.000470558 0)
(6.8449e-05 -0.000489241 0)
(6.491e-05 -0.000505984 0)
(6.12258e-05 -0.000521083 0)
(5.75724e-05 -0.000534291 0)
(5.37692e-05 -0.000545944 0)
(5.00451e-05 -0.000555856 0)
(4.62958e-05 -0.00056432 0)
(4.26339e-05 -0.000571268 0)
(3.90969e-05 -0.000576928 0)
(3.57037e-05 -0.00058133 0)
(3.25312e-05 -0.000584667 0)
(2.96131e-05 -0.000587009 0)
(2.69702e-05 -0.000588567 0)
(2.46746e-05 -0.000589373 0)
(2.27225e-05 -0.000589697 0)
(2.11557e-05 -0.0005895 0)
(1.9962e-05 -0.000589137 0)
(0.000152073 0.000356297 0)
(0.000157939 0.000307107 0)
(0.000162848 0.000257189 0)
(0.000166601 0.000207796 0)
(0.000169281 0.000159074 0)
(0.000170994 0.00011118 0)
(0.0001719 6.44372e-05 0)
(0.000171964 1.87493e-05 0)
(0.000171435 -2.54382e-05 0)
(0.000170204 -6.83892e-05 0)
(0.000168496 -0.000109621 0)
(0.000166217 -0.000149462 0)
(0.000163581 -0.000187439 0)
(0.00016048 -0.0002239 0)
(0.00015706 -0.00025842 0)
(0.000153254 -0.000291343 0)
(0.000149209 -0.000322248 0)
(0.000144798 -0.000351507 0)
(0.000140154 -0.000378729 0)
(0.000135241 -0.000404224 0)
(0.000130065 -0.0004277 0)
(0.000124647 -0.000449422 0)
(0.000119052 -0.000469106 0)
(0.000113166 -0.000487092 0)
(0.000107217 -0.000503059 0)
(0.000101026 -0.000517385 0)
(9.48009e-05 -0.000529833 0)
(8.85017e-05 -0.000540703 0)
(8.22089e-05 -0.000549936 0)
(7.603e-05 -0.000557709 0)
(6.99632e-05 -0.000564121 0)
(6.41615e-05 -0.000569279 0)
(5.8642e-05 -0.000573347 0)
(5.34891e-05 -0.000576417 0)
(4.88103e-05 -0.000578673 0)
(4.45722e-05 -0.000580189 0)
(4.09286e-05 -0.000581153 0)
(3.7838e-05 -0.000581611 0)
(3.52608e-05 -0.000581713 0)
(3.346e-05 -0.000581514 0)
(0.000210008 0.00033697 0)
(0.000218181 0.000288559 0)
(0.000224975 0.000239698 0)
(0.000230264 0.000191432 0)
(0.000234121 0.0001439 0)
(0.000236644 9.71338e-05 0)
(0.000238056 5.15578e-05 0)
(0.000238297 6.93676e-06 0)
(0.000237698 -3.6181e-05 0)
(0.00023612 -7.81418e-05 0)
(0.000233891 -0.000118378 0)
(0.000230839 -0.000157303 0)
(0.000227259 -0.000194351 0)
(0.000223006 -0.000229949 0)
(0.00021833 -0.000263564 0)
(0.000213049 -0.000295618 0)
(0.000207407 -0.000325618 0)
(0.000201246 -0.00035395 0)
(0.000194739 -0.0003802 0)
(0.000187756 -0.0004047 0)
(0.00018048 -0.000427093 0)
(0.000172753 -0.000447723 0)
(0.000164792 -0.000466258 0)
(0.000156468 -0.000483042 0)
(0.000147953 -0.000497857 0)
(0.000139245 -0.000510956 0)
(0.000130433 -0.000522308 0)
(0.00012163 -0.000532073 0)
(0.000112878 -0.00054035 0)
(0.000104328 -0.000547266 0)
(9.60499e-05 -0.000552976 0)
(8.81383e-05 -0.000557601 0)
(8.07222e-05 -0.000561316 0)
(7.38423e-05 -0.000564205 0)
(6.76347e-05 -0.000566469 0)
(6.207e-05 -0.000568107 0)
(5.72797e-05 -0.000569376 0)
(5.31716e-05 -0.000570124 0)
(4.9795e-05 -0.000570699 0)
(4.7167e-05 -0.000570815 0)
(0.000265246 0.00031176 0)
(0.000275622 0.000264233 0)
(0.000284196 0.000216694 0)
(0.00029099 0.000169819 0)
(0.000296067 0.000123807 0)
(0.00029948 7.84847e-05 0)
(0.000301539 3.44266e-05 0)
(0.000302122 -8.79651e-06 0)
(0.000301621 -5.04808e-05 0)
(0.000299844 -9.11255e-05 0)
(0.000297217 -0.000130035 0)
(0.000293518 -0.000167704 0)
(0.000289116 -0.000203494 0)
(0.000283807 -0.000237864 0)
(0.000277883 -0.000270224 0)
(0.000271178 -0.000301003 0)
(0.00026392 -0.000329691 0)
(0.000255977 -0.000356662 0)
(0.00024751 -0.000381469 0)
(0.00023843 -0.000404478 0)
(0.000228899 -0.00042532 0)
(0.000218829 -0.00044431 0)
(0.000208391 -0.000461235 0)
(0.000197567 -0.000476334 0)
(0.000186493 -0.000489548 0)
(0.000175248 -0.000501089 0)
(0.00016396 -0.000510993 0)
(0.000152724 -0.000519476 0)
(0.000141713 -0.000526621 0)
(0.00013101 -0.000532662 0)
(0.0001208 -0.000537685 0)
(0.000111137 -0.000541907 0)
(0.000102167 -0.000545399 0)
(9.39021e-05 -0.000548312 0)
(8.64955e-05 -0.000550756 0)
(7.98599e-05 -0.00055274 0)
(7.40972e-05 -0.000554427 0)
(6.911e-05 -0.000555686 0)
(6.49253e-05 -0.000556758 0)
(6.14081e-05 -0.000557376 0)
(0.000317508 0.000280973 0)
(0.000329939 0.000234429 0)
(0.000340027 0.000188498 0)
(0.000348227 0.000143213 0)
(0.000354541 9.90213e-05 0)
(0.000358905 5.54064e-05 0)
(0.000361727 1.31631e-05 0)
(0.000362775 -2.83582e-05 0)
(0.000362525 -6.82956e-05 0)
(0.000360736 -0.000107297 0)
(0.000357855 -0.000144539 0)
(0.00035365 -0.000180601 0)
(0.000348512 -0.000214734 0)
(0.000342202 -0.000247454 0)
(0.000335079 -0.000278098 0)
(0.000326927 -0.000307131 0)
(0.000318043 -0.000333972 0)
(0.000308208 -0.000359025 0)
(0.000297725 -0.000381821 0)
(0.000286432 -0.00040276 0)
(0.000274549 -0.000421436 0)
(0.000262044 -0.000438291 0)
(0.00024911 -0.00045302 0)
(0.000235756 -0.000466076 0)
(0.000222242 -0.000477272 0)
(0.000208579 -0.000487062 0)
(0.000195058 -0.000495346 0)
(0.000181701 -0.000502545 0)
(0.000168823 -0.000508649 0)
(0.000156406 -0.000513969 0)
(0.000144759 -0.000518579 0)
(0.000133733 -0.000522562 0)
(0.000123604 -0.000526074 0)
(0.000114359 -0.000529225 0)
(0.000106014 -0.000532026 0)
(9.85435e-05 -0.000534484 0)
(9.19464e-05 -0.000536701 0)
(8.6154e-05 -0.000538524 0)
(8.11244e-05 -0.000540154 0)
(7.68221e-05 -0.000541348 0)
(0.000366356 0.000245198 0)
(0.000380406 0.000199767 0)
(0.000391818 0.000155679 0)
(0.000401285 0.000112038 0)
(0.000408811 6.98578e-05 0)
(0.000414218 2.81371e-05 0)
(0.000417906 -1.20445e-05 0)
(0.00041959 -5.15952e-05 0)
(0.000419749 -8.94846e-05 0)
(0.000418096 -0.000126496 0)
(0.000415098 -0.000161671 0)
(0.000410466 -0.000195687 0)
(0.000404647 -0.000227669 0)
(0.000397374 -0.000258222 0)
(0.000389031 -0.000286569 0)
(0.000379392 -0.000313238 0)
(0.00036875 -0.000337572 0)
(0.00035697 -0.000360037 0)
(0.000344347 -0.000380178 0)
(0.000330734 -0.000398374 0)
(0.00031649 -0.000414368 0)
(0.000301538 -0.000428552 0)
(0.000286208 -0.000440784 0)
(0.000270542 -0.000451495 0)
(0.000254828 -0.000460645 0)
(0.000239187 -0.000468632 0)
(0.000223834 -0.000475501 0)
(0.000208971 -0.000481583 0)
(0.000194673 -0.000486943 0)
(0.000181191 -0.000491801 0)
(0.000168384 -0.000496188 0)
(0.000156412 -0.000500172 0)
(0.00014562 -0.00050402 0)
(0.000135624 -0.000507483 0)
(0.000126578 -0.000510781 0)
(0.000118395 -0.000513706 0)
(0.000111033 -0.00051648 0)
(0.000104454 -0.00051881 0)
(9.86151e-05 -0.000521029 0)
(9.34602e-05 -0.000522729 0)
(0.000411902 0.000205457 0)
(0.00042693 0.000161096 0)
(0.000439467 0.000118779 0)
(0.000450003 7.67899e-05 0)
(0.000458602 3.66381e-05 0)
(0.000464997 -3.07667e-06 0)
(0.000469568 -4.10198e-05 0)
(0.000471942 -7.83469e-05 0)
(0.00047259 -0.000113839 0)
(0.00047114 -0.00014845 0)
(0.000468082 -0.000181069 0)
(0.00046307 -0.000212485 0)
(0.000456584 -0.000241719 0)
(0.000448319 -0.000269425 0)
(0.000438686 -0.00029476 0)
(0.000427465 -0.000318312 0)
(0.000415002 -0.000339387 0)
(0.00040121 -0.000358584 0)
(0.000386404 -0.000375367 0)
(0.000370556 -0.000390338 0)
(0.000354059 -0.00040319 0)
(0.000336908 -0.000414472 0)
(0.000319517 -0.000424083 0)
(0.000301951 -0.000432506 0)
(0.000284567 -0.000439768 0)
(0.000267459 -0.000446237 0)
(0.000250931 -0.000452025 0)
(0.000235035 -0.000457333 0)
(0.000219964 -0.000462286 0)
(0.000205715 -0.000466925 0)
(0.000192412 -0.000471383 0)
(0.000180056 -0.000475636 0)
(0.000168669 -0.000479798 0)
(0.000158103 -0.000483598 0)
(0.000148435 -0.000487331 0)
(0.00013958 -0.000490667 0)
(0.000131496 -0.000493911 0)
(0.000124184 -0.000496711 0)
(0.000117544 -0.000499434 0)
(0.000111625 -0.000501653 0)
(0.000454387 0.00016252 0)
(0.000469794 0.000119229 0)
(0.000483026 7.85111e-05 0)
(0.000494328 3.8145e-05 0)
(0.000503739 -7.14954e-09 0)
(0.000510931 -3.76361e-05 0)
(0.000516235 -7.31813e-05 0)
(0.000519206 -0.000108008 0)
(0.00052027 -0.000140724 0)
(0.000518996 -0.000172451 0)
(0.000515828 -0.000201935 0)
(0.000510402 -0.000230088 0)
(0.00050316 -0.000255824 0)
(0.000493814 -0.00027989 0)
(0.000482804 -0.000301411 0)
(0.00046993 -0.000321056 0)
(0.000455648 -0.000338179 0)
(0.000439873 -0.000353461 0)
(0.000423054 -0.000366455 0)
(0.000405235 -0.000377875 0)
(0.000386843 -0.000387473 0)
(0.000368009 -0.000395905 0)
(0.000349116 -0.000403093 0)
(0.000330332 -0.000409574 0)
(0.00031194 -0.000415333 0)
(0.000294119 -0.000420773 0)
(0.000277009 -0.000425854 0)
(0.000260721 -0.000430815 0)
(0.000245291 -0.000435596 0)
(0.000230797 -0.000440312 0)
(0.000217202 -0.000444915 0)
(0.000204486 -0.000449371 0)
(0.000192666 -0.000453747 0)
(0.000181616 -0.00045784 0)
(0.000171426 -0.00046188 0)
(0.000161971 -0.000465559 0)
(0.000153261 -0.000469183 0)
(0.00014527 -0.00047238 0)
(0.00013793 -0.000475552 0)
(0.000131283 -0.000478221 0)
(0.000493761 0.000117265 0)
(0.000509238 7.50563e-05 0)
(0.000522763 3.57324e-05 0)
(0.00053442 -3.08481e-06 0)
(0.000544258 -3.92885e-05 0)
(0.000551874 -7.47641e-05 0)
(0.000557587 -0.000107735 0)
(0.000560857 -0.000139751 0)
(0.00056209 -0.000169257 0)
(0.000560763 -0.000197523 0)
(0.000557298 -0.000223186 0)
(0.000551286 -0.000247291 0)
(0.000543155 -0.000268692 0)
(0.000532645 -0.00028829 0)
(0.000520219 -0.000305205 0)
(0.000505763 -0.00032028 0)
(0.0004898 -0.000332922 0)
(0.00047234 -0.000343962 0)
(0.000453919 -0.000353056 0)
(0.000434659 -0.000361009 0)
(0.000415047 -0.000367638 0)
(0.000395243 -0.000373648 0)
(0.00037567 -0.000378937 0)
(0.000356417 -0.000384026 0)
(0.000337825 -0.000388824 0)
(0.000319868 -0.000393641 0)
(0.000302769 -0.000398368 0)
(0.000286438 -0.000403145 0)
(0.000271022 -0.000407893 0)
(0.000256409 -0.000412624 0)
(0.000242649 -0.000417301 0)
(0.000229708 -0.000421872 0)
(0.000217546 -0.000426372 0)
(0.000206131 -0.000430636 0)
(0.000195479 -0.000434882 0)
(0.000185542 -0.000438782 0)
(0.000176272 -0.000442693 0)
(0.000167726 -0.000446183 0)
(0.000159745 -0.000449711 0)
(0.000152478 -0.00045274 0)
(0.000530084 7.03366e-05 0)
(0.000545523 2.91933e-05 0)
(0.000559002 -8.7442e-06 0)
(0.000570571 -4.59704e-05 0)
(0.000580328 -8.01328e-05 0)
(0.000587833 -0.000113266 0)
(0.000593397 -0.000143373 0)
(0.000596456 -0.000172168 0)
(0.000597347 -0.000197926 0)
(0.00059555 -0.000222078 0)
(0.000591403 -0.00024318 0)
(0.000584537 -0.000262452 0)
(0.000575342 -0.000278754 0)
(0.000563632 -0.000293196 0)
(0.00054991 -0.000304964 0)
(0.000534146 -0.000315126 0)
(0.00051694 -0.000323165 0)
(0.000498395 -0.000330098 0)
(0.000479103 -0.000335619 0)
(0.000459234 -0.000340624 0)
(0.000439286 -0.000344893 0)
(0.000419412 -0.000349139 0)
(0.000399955 -0.000353128 0)
(0.000380993 -0.000357345 0)
(0.000362704 -0.000361532 0)
(0.00034511 -0.000365969 0)
(0.000328268 -0.000370427 0)
(0.000312195 -0.000375046 0)
(0.000296874 -0.000379668 0)
(0.000282308 -0.000384311 0)
(0.000268483 -0.000388948 0)
(0.000255378 -0.000393478 0)
(0.000242959 -0.000397987 0)
(0.000231284 -0.000402312 0)
(0.000220267 -0.000406647 0)
(0.00020996 -0.00041069 0)
(0.000200253 -0.000414775 0)
(0.000191237 -0.000418477 0)
(0.00018274 -0.00042225 0)
(0.000174911 -0.000425542 0)
(0.000563589 2.22449e-05 0)
(0.000578741 -1.77029e-05 0)
(0.000591827 -5.40363e-05 0)
(0.000602846 -8.94173e-05 0)
(0.000611981 -0.000121216 0)
(0.000618741 -0.000151615 0)
(0.000623499 -0.000178404 0)
(0.000625654 -0.000203422 0)
(0.000625549 -0.000224823 0)
(0.000622681 -0.000244203 0)
(0.000617392 -0.000260088 0)
(0.000609347 -0.000273942 0)
(0.000598982 -0.000284678 0)
(0.00058617 -0.000293688 0)
(0.000571473 -0.000300264 0)
(0.000554952 -0.000305698 0)
(0.000537233 -0.000309567 0)
(0.000518476 -0.000312992 0)
(0.000499266 -0.000315667 0)
(0.000479746 -0.000318475 0)
(0.000460382 -0.000321106 0)
(0.00044121 -0.00032417 0)
(0.000422545 -0.000327313 0)
(0.000404321 -0.000330913 0)
(0.000386755 -0.00033463 0)
(0.000369728 -0.000338691 0)
(0.0003534 -0.000342821 0)
(0.000337654 -0.000347152 0)
(0.000322583 -0.000351496 0)
(0.000308146 -0.000355917 0)
(0.000294356 -0.000360354 0)
(0.000281214 -0.000364734 0)
(0.000268719 -0.000369163 0)
(0.000256898 -0.000373432 0)
(0.000245663 -0.000377767 0)
(0.0002351 -0.000381833 0)
(0.000225049 -0.000385983 0)
(0.000215684 -0.000389777 0)
(0.000206732 -0.000393675 0)
(0.000198464 -0.000397113 0)
(0.000594184 -2.63246e-05 0)
(0.000608822 -6.47322e-05 0)
(0.000621148 -9.89965e-05 0)
(0.000631168 -0.000132021 0)
(0.000639098 -0.00016087 0)
(0.000644485 -0.000187932 0)
(0.000647685 -0.00021074 0)
(0.000648207 -0.000231338 0)
(0.000646381 -0.000247761 0)
(0.000641839 -0.000261832 0)
(0.000634934 -0.000272127 0)
(0.000625495 -0.000280368 0)
(0.000613943 -0.000285606 0)
(0.000600341 -0.00028951 0)
(0.000585186 -0.000291465 0)
(0.000568669 -0.000292963 0)
(0.000551332 -0.000293565 0)
(0.000533332 -0.000294433 0)
(0.000515157 -0.000295144 0)
(0.000496864 -0.000296507 0)
(0.000478792 -0.000298044 0)
(0.000460907 -0.000300269 0)
(0.000443413 -0.000302711 0)
(0.00042626 -0.000305696 0)
(0.000409566 -0.000308852 0)
(0.000393311 -0.000312368 0)
(0.000377542 -0.000316011 0)
(0.000362299 -0.000319854 0)
(0.000347557 -0.000323808 0)
(0.000333438 -0.000327865 0)
(0.000319835 -0.000332013 0)
(0.000306827 -0.000336149 0)
(0.000294331 -0.00034038 0)
(0.000282508 -0.00034449 0)
(0.000271145 -0.000348708 0)
(0.000260439 -0.000352682 0)
(0.000250162 -0.000356792 0)
(0.000240542 -0.00036056 0)
(0.000231259 -0.000364472 0)
(0.000222655 -0.000367958 0)
(0.000621478 -7.46152e-05 0)
(0.000635314 -0.000110883 0)
(0.000646521 -0.000142306 0)
(0.0006551 -0.00017218 0)
(0.000661346 -0.000197244 0)
(0.000664774 -0.00022013 0)
(0.00066581 -0.000238174 0)
(0.000664073 -0.000253702 0)
(0.00065995 -0.000264672 0)
(0.000653283 -0.000273238 0)
(0.000644497 -0.000278044 0)
(0.000633598 -0.000281101 0)
(0.000621104 -0.000281623 0)
(0.000607136 -0.000281446 0)
(0.000592222 -0.000280001 0)
(0.000576506 -0.000278836 0)
(0.000560412 -0.000277343 0)
(0.000543979 -0.000276659 0)
(0.000527531 -0.000276128 0)
(0.000510986 -0.0002765 0)
(0.000494591 -0.000277133 0)
(0.000478227 -0.000278532 0)
(0.000462104 -0.000280151 0)
(0.000446137 -0.000282373 0)
(0.000430502 -0.000284763 0)
(0.000415126 -0.000287611 0)
(0.000400169 -0.000290578 0)
(0.000385547 -0.000293895 0)
(0.000371447 -0.000297291 0)
(0.000357718 -0.000300974 0)
(0.000344537 -0.000304613 0)
(0.000331856 -0.000308296 0)
(0.000319531 -0.000312277 0)
(0.000307842 -0.000316068 0)
(0.000296487 -0.000320067 0)
(0.000285767 -0.000323828 0)
(0.000275372 -0.00032778 0)
(0.000265601 -0.000331404 0)
(0.000256096 -0.000335226 0)
(0.000247264 -0.000338655 0)
(0.000644941 -0.000121308 0)
(0.000657581 -0.000154627 0)
(0.000667223 -0.00018225 0)
(0.00067399 -0.000208082 0)
(0.0006781 -0.00022839 0)
(0.000679188 -0.00024625 0)
(0.000677666 -0.000258826 0)
(0.000673402 -0.000268828 0)
(0.000666755 -0.000274217 0)
(0.000657927 -0.00027757 0)
(0.000647297 -0.000277558 0)
(0.000635259 -0.000276561 0)
(0.000622244 -0.000273728 0)
(0.000608504 -0.000271037 0)
(0.000594428 -0.00026773 0)
(0.000580059 -0.000265209 0)
(0.000565628 -0.00026267 0)
(0.00055106 -0.000261098 0)
(0.000536495 -0.000259717 0)
(0.000521817 -0.000259232 0)
(0.000507166 -0.000258959 0)
(0.000492446 -0.000259424 0)
(0.000477831 -0.000260119 0)
(0.000463263 -0.000261443 0)
(0.000448877 -0.000262973 0)
(0.000434634 -0.000265 0)
(0.000420667 -0.000267216 0)
(0.000406944 -0.00026981 0)
(0.000393579 -0.000272591 0)
(0.000380511 -0.000275591 0)
(0.000367794 -0.000278756 0)
(0.000355512 -0.000282015 0)
(0.000343597 -0.000285445 0)
(0.000332108 -0.000288854 0)
(0.000320976 -0.000292424 0)
(0.000310342 -0.000295884 0)
(0.000299995 -0.000299505 0)
(0.000290208 -0.000302908 0)
(0.000280645 -0.000306509 0)
(0.000271709 -0.000309788 0)
(0.000664031 -0.000164667 0)
(0.000675031 -0.00019418 0)
(0.000682732 -0.000217122 0)
(0.000687313 -0.00023801 0)
(0.000688959 -0.000252734 0)
(0.000687526 -0.000264885 0)
(0.000683355 -0.000271532 0)
(0.000676611 -0.000275874 0)
(0.000667693 -0.000275997 0)
(0.000657124 -0.000274843 0)
(0.000645256 -0.000271301 0)
(0.000632652 -0.000267872 0)
(0.000619744 -0.000263516 0)
(0.000606743 -0.000260037 0)
(0.000593758 -0.000256252 0)
(0.000580789 -0.000253445 0)
(0.000567902 -0.000250534 0)
(0.00055499 -0.000248515 0)
(0.000542143 -0.000246485 0)
(0.000529155 -0.000245227 0)
(0.00051616 -0.000244028 0)
(0.000503062 -0.000243566 0)
(0.00049004 -0.000243296 0)
(0.000476954 -0.00024368 0)
(0.000463969 -0.00024427 0)
(0.000451025 -0.000245392 0)
(0.000438241 -0.000246728 0)
(0.000425628 -0.000248507 0)
(0.000413201 -0.000250484 0)
(0.000401008 -0.000252736 0)
(0.000389007 -0.000255178 0)
(0.000377347 -0.000257777 0)
(0.000365932 -0.000260605 0)
(0.000354924 -0.000263456 0)
(0.000344127 -0.000266541 0)
(0.000333808 -0.000269529 0)
(0.000323646 -0.000272751 0)
(0.000314034 -0.000275778 0)
(0.000304519 -0.00027905 0)
(0.000295601 -0.000282019 0)
(0.000678365 -0.000203201 0)
(0.000687362 -0.000228068 0)
(0.000692648 -0.000245396 0)
(0.000694767 -0.000260476 0)
(0.000693685 -0.000268827 0)
(0.000689656 -0.000274785 0)
(0.000682926 -0.000275335 0)
(0.000674225 -0.000274394 0)
(0.000663595 -0.000270263 0)
(0.000652317 -0.000266374 0)
(0.000640475 -0.000261261 0)
(0.000628539 -0.000257347 0)
(0.000616486 -0.000253017 0)
(0.000604434 -0.000249766 0)
(0.000592388 -0.000246181 0)
(0.000580349 -0.000243496 0)
(0.000568398 -0.000240534 0)
(0.000556473 -0.000238329 0)
(0.000544665 -0.000235908 0)
(0.000532875 -0.000234123 0)
(0.000521233 -0.000232328 0)
(0.000509639 -0.000231193 0)
(0.000498142 -0.000230152 0)
(0.000486617 -0.000229665 0)
(0.000475074 -0.00022932 0)
(0.000463531 -0.000229476 0)
(0.00045208 -0.000229895 0)
(0.0004407 -0.000230738 0)
(0.000429373 -0.000231801 0)
(0.000418183 -0.000233142 0)
(0.00040711 -0.000234745 0)
(0.000396314 -0.000236567 0)
(0.000385648 -0.00023865 0)
(0.000375295 -0.000240819 0)
(0.000365054 -0.000243227 0)
(0.000355192 -0.000245611 0)
(0.000345421 -0.00024824 0)
(0.000336111 -0.000250752 0)
(0.000326834 -0.000253514 0)
(0.00031809 -0.000256058 0)
(0.000687713 -0.000235317 0)
(0.000694222 -0.000254389 0)
(0.00069672 -0.000265007 0)
(0.000696021 -0.000273348 0)
(0.000692108 -0.000274934 0)
(0.000685814 -0.000274693 0)
(0.000676948 -0.000270273 0)
(0.000667395 -0.000266033 0)
(0.00065692 -0.000260258 0)
(0.000646365 -0.000256111 0)
(0.000635532 -0.00025115 0)
(0.000624702 -0.00024764 0)
(0.000613623 -0.000243424 0)
(0.000602445 -0.000240375 0)
(0.000591198 -0.000236791 0)
(0.000579896 -0.00023419 0)
(0.000568639 -0.000231201 0)
(0.00055738 -0.000229034 0)
(0.000546239 -0.000226593 0)
(0.000535196 -0.000224848 0)
(0.000524359 -0.000222936 0)
(0.000513613 -0.000221571 0)
(0.000503028 -0.000220091 0)
(0.000492494 -0.000219031 0)
(0.000482106 -0.000217991 0)
(0.00047185 -0.000217481 0)
(0.000461692 -0.000217094 0)
(0.00045157 -0.000217087 0)
(0.000441393 -0.000217199 0)
(0.000431357 -0.000217683 0)
(0.000421375 -0.000218413 0)
(0.000411586 -0.000219421 0)
(0.000401825 -0.000220651 0)
(0.000392286 -0.000222008 0)
(0.00038276 -0.000223595 0)
(0.000373569 -0.000225244 0)
(0.000364369 -0.000227141 0)
(0.000355584 -0.000229008 0)
(0.000346735 -0.000231121 0)
(0.000338369 -0.000233109 0)
(0.00069143 -0.000258541 0)
(0.000695105 -0.000270524 0)
(0.000694388 -0.000273712 0)
(0.000691262 -0.000275295 0)
(0.000684766 -0.000271004 0)
(0.000677361 -0.000266916 0)
(0.000668566 -0.000260548 0)
(0.000659656 -0.000256251 0)
(0.000650376 -0.000250749 0)
(0.000640889 -0.000246985 0)
(0.00063098 -0.000242174 0)
(0.000620924 -0.000238776 0)
(0.00061066 -0.000234573 0)
(0.000600314 -0.000231574 0)
(0.000589887 -0.000227988 0)
(0.000579416 -0.000225407 0)
(0.000568942 -0.000222401 0)
(0.000558454 -0.000220226 0)
(0.000548017 -0.000217751 0)
(0.000537594 -0.000215959 0)
(0.000527281 -0.00021396 0)
(0.00051704 -0.000212513 0)
(0.000506959 -0.000210938 0)
(0.000497011 -0.000209813 0)
(0.000487307 -0.000208656 0)
(0.000477747 -0.000207844 0)
(0.000468313 -0.000207007 0)
(0.00045897 -0.000206406 0)
(0.000449752 -0.000205924 0)
(0.00044075 -0.000205801 0)
(0.000431792 -0.000205827 0)
(0.000422958 -0.000206076 0)
(0.00041405 -0.000206455 0)
(0.000405343 -0.000207022 0)
(0.000396629 -0.000207819 0)
(0.000388202 -0.000208754 0)
(0.000379714 -0.000209894 0)
(0.000371561 -0.000211079 0)
(0.000363298 -0.000212455 0)
(0.000355436 -0.000213811 0)
(0.000689153 -0.000270264 0)
(0.000689986 -0.000274843 0)
(0.000686725 -0.000271608 0)
(0.000681845 -0.000268434 0)
(0.000675059 -0.000261637 0)
(0.00066811 -0.000257367 0)
(0.000660491 -0.00025134 0)
(0.000652667 -0.000247489 0)
(0.000644105 -0.000242105 0)
(0.000635461 -0.000238497 0)
(0.000626329 -0.000233715 0)
(0.000617162 -0.000230454 0)
(0.00060767 -0.000226287 0)
(0.000598138 -0.000223384 0)
(0.000588431 -0.000219793 0)
(0.000578699 -0.000217248 0)
(0.000568907 -0.000214191 0)
(0.000559118 -0.000212 0)
(0.000549353 -0.000209441 0)
(0.000539622 -0.000207601 0)
(0.000529972 -0.000205511 0)
(0.00052037 -0.000204007 0)
(0.00051087 -0.000202335 0)
(0.000501438 -0.000201139 0)
(0.000492129 -0.000199832 0)
(0.000482964 -0.000198906 0)
(0.000473925 -0.000197913 0)
(0.00046511 -0.000197245 0)
(0.000456456 -0.000196576 0)
(0.000447998 -0.000196142 0)
(0.000439584 -0.000195698 0)
(0.000431344 -0.000195422 0)
(0.000423151 -0.000195262 0)
(0.000415244 -0.000195339 0)
(0.000407306 -0.000195551 0)
(0.000399596 -0.00019589 0)
(0.000391751 -0.00019633 0)
(0.000384208 -0.000196879 0)
(0.000376519 -0.000197548 0)
(0.00036919 -0.000198303 0)
(0.0006818 -0.000270825 0)
(0.000680434 -0.00026961 0)
(0.000676056 -0.00026305 0)
(0.000671544 -0.000258827 0)
(0.000665615 -0.000252585 0)
(0.000659826 -0.000248638 0)
(0.00065278 -0.000242961 0)
(0.000645801 -0.000239136 0)
(0.000638011 -0.000233992 0)
(0.000630225 -0.000230447 0)
(0.000621859 -0.00022585 0)
(0.000613481 -0.000222614 0)
(0.000604721 -0.000218547 0)
(0.000595952 -0.000215637 0)
(0.000586949 -0.000212087 0)
(0.000577946 -0.000209511 0)
(0.000568821 -0.000206457 0)
(0.000559708 -0.000204212 0)
(0.000550556 -0.000201621 0)
(0.000541436 -0.000199693 0)
(0.000532342 -0.000197527 0)
(0.000523309 -0.000195898 0)
(0.000514347 -0.000194126 0)
(0.000505476 -0.000192784 0)
(0.000496698 -0.000191378 0)
(0.000488041 -0.000190312 0)
(0.000479452 -0.000189223 0)
(0.000470989 -0.000188405 0)
(0.000462649 -0.000187578 0)
(0.000454494 -0.000186974 0)
(0.000446428 -0.000186377 0)
(0.000438613 -0.000185974 0)
(0.000430859 -0.000185603 0)
(0.00042335 -0.000185373 0)
(0.000415799 -0.000185147 0)
(0.000408489 -0.000185032 0)
(0.000401137 -0.000184985 0)
(0.000394102 -0.000185103 0)
(0.000386956 -0.000185261 0)
(0.000380118 -0.000185558 0)
(0.00067174 -0.000264086 0)
(0.000669531 -0.000259911 0)
(0.000665644 -0.000253838 0)
(0.000662063 -0.000250018 0)
(0.000656808 -0.000244186 0)
(0.000651665 -0.000240406 0)
(0.000645411 -0.000234936 0)
(0.000639186 -0.000231329 0)
(0.000632118 -0.000226319 0)
(0.000625075 -0.000222919 0)
(0.000617412 -0.000218392 0)
(0.000609776 -0.000215245 0)
(0.0006017 -0.000211213 0)
(0.000593646 -0.000208345 0)
(0.000585301 -0.000204795 0)
(0.000576978 -0.000202219 0)
(0.000568484 -0.00019913 0)
(0.000560018 -0.000196849 0)
(0.00055147 -0.000194195 0)
(0.000542964 -0.000192206 0)
(0.000534439 -0.000189957 0)
(0.000525973 -0.00018825 0)
(0.000517528 -0.000186371 0)
(0.000509166 -0.000184926 0)
(0.000500858 -0.000183383 0)
(0.000492658 -0.00018218 0)
(0.000484543 -0.000180942 0)
(0.000476534 -0.000179962 0)
(0.00046861 -0.000178992 0)
(0.000460842 -0.000178231 0)
(0.000453115 -0.000177483 0)
(0.000445578 -0.000176906 0)
(0.00043807 -0.000176342 0)
(0.00043081 -0.000175927 0)
(0.000423547 -0.000175518 0)
(0.000416571 -0.000175255 0)
(0.000409548 -0.000174982 0)
(0.000402822 -0.000174843 0)
(0.000395962 -0.000174648 0)
(0.000389431 -0.000174596 0)
(0.000661162 -0.000255084 0)
(0.000659343 -0.00025054 0)
(0.000656319 -0.000245664 0)
(0.000653093 -0.000241492 0)
(0.000648511 -0.000236365 0)
(0.000644066 -0.000232462 0)
(0.000638387 -0.000227479 0)
(0.000632904 -0.000223791 0)
(0.00062644 -0.000219111 0)
(0.000620142 -0.000215662 0)
(0.0006131 -0.000211359 0)
(0.000606183 -0.00020817 0)
(0.000598727 -0.000204276 0)
(0.000591363 -0.000201359 0)
(0.000583627 -0.000197881 0)
(0.00057596 -0.000195243 0)
(0.000568052 -0.000192173 0)
(0.000560203 -0.000189812 0)
(0.000552212 -0.000187133 0)
(0.00054428 -0.000185044 0)
(0.000536283 -0.00018273 0)
(0.000528351 -0.000180902 0)
(0.000520408 -0.000178928 0)
(0.000512545 -0.000177348 0)
(0.000504703 -0.000175684 0)
(0.000496957 -0.000174337 0)
(0.00048925 -0.00017295 0)
(0.000481659 -0.000171811 0)
(0.000474118 -0.00017067 0)
(0.000466723 -0.000169725 0)
(0.000459367 -0.000168796 0)
(0.000452187 -0.000168031 0)
(0.00044502 -0.000167285 0)
(0.000438053 -0.000166678 0)
(0.00043106 -0.000166073 0)
(0.000424298 -0.000165595 0)
(0.000417475 -0.000165095 0)
(0.000410939 -0.000164731 0)
(0.000404282 -0.000164306 0)
(0.000397961 -0.000164038 0)
(0.000651408 -0.000246291 0)
(0.00065 -0.000242087 0)
(0.000647383 -0.00023756 0)
(0.000644677 -0.000233506 0)
(0.000640658 -0.000228782 0)
(0.000636743 -0.000224926 0)
(0.000631703 -0.000220251 0)
(0.000626794 -0.000216614 0)
(0.000620975 -0.000212151 0)
(0.000615277 -0.000208742 0)
(0.000608871 -0.000204581 0)
(0.000602566 -0.000201412 0)
(0.00059573 -0.0001976 0)
(0.000588974 -0.00019468 0)
(0.000581837 -0.000191237 0)
(0.000574764 -0.00018857 0)
(0.000567431 -0.000185494 0)
(0.000560155 -0.00018308 0)
(0.000552712 -0.000180361 0)
(0.000545327 -0.000178196 0)
(0.000537847 -0.000175815 0)
(0.000530431 -0.000173889 0)
(0.000522971 -0.000171821 0)
(0.000515587 -0.000170122 0)
(0.000508195 -0.00016834 0)
(0.000500895 -0.000166852 0)
(0.00049361 -0.000165327 0)
(0.000486432 -0.000164035 0)
(0.000479276 -0.000162736 0)
(0.000472252 -0.000161623 0)
(0.000465243 -0.000160515 0)
(0.000458395 -0.000159561 0)
(0.000451546 -0.000158609 0)
(0.000444892 -0.000157796 0)
(0.000438206 -0.000156969 0)
(0.000431751 -0.000156283 0)
(0.000425217 -0.000155548 0)
(0.00041895 -0.000154968 0)
(0.000412538 -0.000154282 0)
(0.000406446 -0.000153786 0)
(0.000642724 -0.000237926 0)
(0.00064144 -0.00023391 0)
(0.000639314 -0.00022978 0)
(0.000636849 -0.00022581 0)
(0.000633398 -0.000221458 0)
(0.0006299 -0.000217647 0)
(0.00062542 -0.00021329 0)
(0.000621032 -0.00020967 0)
(0.000615772 -0.000205456 0)
(0.000610647 -0.000202045 0)
(0.000604798 -0.000198069 0)
(0.000599082 -0.000194881 0)
(0.000592798 -0.000191194 0)
(0.000586628 -0.000188237 0)
(0.000580032 -0.000184864 0)
(0.00057353 -0.000182142 0)
(0.000566722 -0.000179092 0)
(0.000559992 -0.000176603 0)
(0.000553055 -0.000173869 0)
(0.000546188 -0.000171608 0)
(0.000539191 -0.000169176 0)
(0.000532262 -0.000167136 0)
(0.00052526 -0.000164987 0)
(0.000518331 -0.000163154 0)
(0.000511369 -0.000161265 0)
(0.00050449 -0.000159626 0)
(0.000497603 -0.00015797 0)
(0.000490813 -0.000156509 0)
(0.000484028 -0.000155059 0)
(0.00047736 -0.000153759 0)
(0.000470694 -0.000152483 0)
(0.000464169 -0.000151327 0)
(0.000457631 -0.000150193 0)
(0.000451262 -0.000149162 0)
(0.000444852 -0.000148135 0)
(0.00043865 -0.000147209 0)
(0.000432363 -0.000146251 0)
(0.000426337 -0.000145414 0)
(0.000420159 -0.000144489 0)
(0.000414312 -0.000143727 0)
(0.000634644 -0.000229794 0)
(0.000633581 -0.00022604 0)
(0.000631705 -0.000222152 0)
(0.000629591 -0.00021836 0)
(0.00062653 -0.000214283 0)
(0.000623449 -0.000210575 0)
(0.000619447 -0.000206471 0)
(0.000615523 -0.000202912 0)
(0.000610783 -0.000198905 0)
(0.00060615 -0.000195528 0)
(0.000600839 -0.000191705 0)
(0.000595632 -0.000188528 0)
(0.000589886 -0.000184943 0)
(0.000584231 -0.000181975 0)
(0.000578164 -0.00017866 0)
(0.000572172 -0.000175905 0)