/*--------------------------------*- C++ -*----------------------------------*\
| =========                 |                                                 |
| \\      /  F ield         | OpenFOAM: The Open Source CFD Toolbox           |
|  \\    /   O peration     | Version:  v2012                                 |
|   \\  /    A nd           | Website:  www.openfoam.com                      |
|    \\/     M anipulation  |                                                 |
\*---------------------------------------------------------------------------*/
FoamFile
{
    version     2.0;
    format      ascii;
    class       volVectorField;
    location    "20";
    object      D_0;
}
// * * * * * * * * * * * * * * * * * * * * * * * * * * * * * * * * * * * * * //

dimensions      [0 1 0 0 0 0 0];


internalField   nonuniform List<vector> 
16000
(
(3.1809e-05 0.000336624 0)
(3.29644e-05 0.000285521 0)
(3.38838e-05 0.000233903 0)
(3.45783e-05 0.000182955 0)
(3.50584e-05 0.000132658 0)
(3.53421e-05 8.3272e-05 0)
(3.54672e-05 3.50854e-05 0)
(3.54344e-05 -1.19722e-05 0)
(3.52709e-05 -5.74862e-05 0)
(3.4978e-05 -0.000101677 0)
(3.45933e-05 -0.000144101 0)
(3.41102e-05 -0.000185067 0)
(3.35435e-05 -0.000224138 0)
(3.28932e-05 -0.000261652 0)
(3.21824e-05 -0.000297191 0)
(3.14092e-05 -0.000331102 0)
(3.05735e-05 -0.000363027 0)
(2.96709e-05 -0.000393255 0)
(2.87587e-05 -0.000421482 0)
(2.77472e-05 -0.00044803 0)
(2.67268e-05 -0.000472539 0)
(2.56616e-05 -0.000495377 0)
(2.45266e-05 -0.000516233 0)
(2.34032e-05 -0.000535369 0)
(2.22009e-05 -0.000552631 0)
(2.09873e-05 -0.000568173 0)
(1.9767e-05 -0.000581917 0)
(1.84986e-05 -0.000594046 0)
(1.72633e-05 -0.000604445 0)
(1.60046e-05 -0.000613387 0)
(1.47775e-05 -0.000620744 0)
(1.35906e-05 -0.000626808 0)
(1.24395e-05 -0.000631527 0)
(1.13712e-05 -0.000635141 0)
(1.03738e-05 -0.000637695 0)
(9.47616e-06 -0.000639386 0)
(8.69096e-06 -0.000640294 0)
(8.01528e-06 -0.000640625 0)
(7.50626e-06 -0.000640449 0)
(7.06395e-06 -0.000640139 0)
(9.50172e-05 0.000330096 0)
(9.84806e-05 0.000279272 0)
(0.000101231 0.000228032 0)
(0.000103325 0.000177487 0)
(0.00010477 0.000127603 0)
(0.00010564 7.86161e-05 0)
(0.00010604 3.08234e-05 0)
(0.000105954 -1.58581e-05 0)
(0.000105511 -6.09985e-05 0)
(0.000104648 -0.000104855 0)
(0.000103527 -0.000146948 0)
(0.000102068 -0.000187608 0)
(0.000100414 -0.000226367 0)
(9.84666e-05 -0.000263599 0)
(9.63496e-05 -0.000298852 0)
(9.40311e-05 -0.000332498 0)
(9.15438e-05 -0.000364124 0)
(8.88425e-05 -0.000394105 0)
(8.60743e-05 -0.000422048 0)
(8.30755e-05 -0.00044829 0)
(7.99725e-05 -0.000472544 0)
(7.6765e-05 -0.000495035 0)
(7.33784e-05 -0.000515581 0)
(6.99163e-05 -0.000534387 0)
(6.6362e-05 -0.000551252 0)
(6.2664e-05 -0.000566469 0)
(5.89972e-05 -0.000579794 0)
(5.5182e-05 -0.000591561 0)
(5.14459e-05 -0.000601587 0)
(4.76862e-05 -0.000610162 0)
(4.40135e-05 -0.000617222 0)
(4.04671e-05 -0.00062299 0)
(3.70643e-05 -0.000627501 0)
(3.38832e-05 -0.000630946 0)
(3.09565e-05 -0.000633396 0)
(2.83055e-05 -0.00063506 0)
(2.60022e-05 -0.000635972 0)
(2.40422e-05 -0.000636401 0)
(2.24683e-05 -0.000636309 0)
(2.12669e-05 -0.000636051 0)
(0.00015699 0.000317115 0)
(0.00016277 0.000266843 0)
(0.00016726 0.000216359 0)
(0.000170757 0.000166606 0)
(0.000173204 0.000117559 0)
(0.000174712 6.93404e-05 0)
(0.000175448 2.23406e-05 0)
(0.000175366 -2.36186e-05 0)
(0.000174712 -6.80305e-05 0)
(0.000173372 -0.000111212 0)
(0.000171569 -0.000152643 0)
(0.000169207 -0.000192686 0)
(0.000166498 -0.000230843 0)
(0.000163331 -0.000267483 0)
(0.000159852 -0.000302168 0)
(0.000155994 -0.000335253 0)
(0.0001519 -0.00036631 0)
(0.000147446 -0.000395719 0)
(0.000142762 -0.000423083 0)
(0.000137813 -0.000448717 0)
(0.000132603 -0.000472325 0)
(0.000127153 -0.000494179 0)
(0.000121529 -0.000513989 0)
(0.000115617 -0.000532099 0)
(0.000109642 -0.000548188 0)
(0.000103429 -0.000562633 0)
(9.71809e-05 -0.000575199 0)
(9.08614e-05 -0.000586183 0)
(8.4549e-05 -0.00059553 0)
(7.83519e-05 -0.000603415 0)
(7.22677e-05 -0.000609938 0)
(6.64496e-05 -0.000615204 0)
(6.09145e-05 -0.000619381 0)
(5.57466e-05 -0.000622558 0)
(5.10539e-05 -0.000624922 0)
(4.68018e-05 -0.000626543 0)
(4.31455e-05 -0.000627612 0)
(4.00416e-05 -0.000628176 0)
(3.74527e-05 -0.000628382 0)
(3.5639e-05 -0.000628287 0)
(0.000216927 0.000297756 0)
(0.000225004 0.000248366 0)
(0.000231152 0.000199056 0)
(0.000236035 0.00015042 0)
(0.000239568 0.0001026 0)
(0.000241815 5.55118e-05 0)
(0.000242999 9.68881e-06 0)
(0.000243045 -3.52012e-05 0)
(0.000242277 -7.85422e-05 0)
(0.000240554 -0.000120733 0)
(0.000238196 -0.000161172 0)
(0.000235031 -0.000200299 0)
(0.00023135 -0.00023753 0)
(0.000227008 -0.000273309 0)
(0.00022225 -0.000307092 0)
(0.000216895 -0.00033931 0)
(0.000211186 -0.000369464 0)
(0.000204965 -0.000397948 0)
(0.000198401 -0.000424341 0)
(0.000191367 -0.000448982 0)
(0.000184043 -0.00047151 0)
(0.000176272 -0.000492273 0)
(0.00016827 -0.000510935 0)
(0.000159909 -0.000527844 0)
(0.000151358 -0.000542781 0)
(0.000142617 -0.000555999 0)
(0.000133774 -0.000567469 0)
(0.000124942 -0.000577349 0)
(0.000116162 -0.000585739 0)
(0.000107586 -0.000592767 0)
(9.92834e-05 -0.000598588 0)
(9.13495e-05 -0.000603321 0)
(8.39111e-05 -0.000607144 0)
(7.70105e-05 -0.00061014 0)
(7.07829e-05 -0.00061251 0)
(6.51988e-05 -0.000614254 0)
(6.03906e-05 -0.000615628 0)
(5.6264e-05 -0.00061648 0)
(5.28709e-05 -0.000617158 0)
(5.02249e-05 -0.000617377 0)
(0.000273979 0.000272427 0)
(0.000284199 0.000224142 0)
(0.000292033 0.000176362 0)
(0.000298324 0.000129081 0)
(0.000303009 8.28157e-05 0)
(0.000306088 3.71675e-05 0)
(0.000307868 -7.13573e-06 0)
(0.000308214 -5.06285e-05 0)
(0.000307505 -9.25394e-05 0)
(0.000305548 -0.000133416 0)
(0.00030276 -0.000172532 0)
(0.00029892 -0.000210406 0)
(0.00029439 -0.000246383 0)
(0.000288968 -0.000280937 0)
(0.00028294 -0.000313467 0)
(0.000276141 -0.000344413 0)
(0.000268797 -0.000373259 0)
(0.000260776 -0.000400383 0)
(0.000252237 -0.000425335 0)
(0.00024309 -0.000448486 0)
(0.000233498 -0.000469465 0)
(0.000223371 -0.000488588 0)
(0.000212879 -0.000505642 0)
(0.000202007 -0.000520867 0)
(0.000190887 -0.000534203 0)
(0.0001796 -0.000545864 0)
(0.000168271 -0.000555886 0)
(0.000156998 -0.000564485 0)
(0.00014595 -0.000571742 0)
(0.000135215 -0.000577895 0)
(0.000124972 -0.000583028 0)
(0.00011528 -0.000587358 0)
(0.000106282 -0.000590958 0)
(9.79889e-05 -0.000593976 0)
(9.0557e-05 -0.000596526 0)
(8.3896e-05 -0.000598614 0)
(7.81102e-05 -0.000600404 0)
(7.30992e-05 -0.000601766 0)
(6.88932e-05 -0.000602941 0)
(6.5353e-05 -0.00060366 0)
(0.000327837 0.000241625 0)
(0.000339867 0.000194519 0)
(0.000349356 0.00014849 0)
(0.000357046 0.000102792 0)
(0.000362931 5.83742e-05 0)
(0.000366932 1.44413e-05 0)
(0.000369434 -2.80446e-05 0)
(0.000370209 -6.98328e-05 0)
(0.000369717 -0.000109999 0)
(0.000367716 -0.000149233 0)
(0.000364645 -0.000186685 0)
(0.000360272 -0.000222954 0)
(0.00035498 -0.000257277 0)
(0.000348533 -0.000290184 0)
(0.000341284 -0.000321001 0)
(0.000333019 -0.000350204 0)
(0.00032403 -0.000377204 0)
(0.000314099 -0.000402412 0)
(0.000303527 -0.000425355 0)
(0.000292153 -0.000446437 0)
(0.000280194 -0.000465251 0)
(0.000267619 -0.00048224 0)
(0.000254619 -0.000497098 0)
(0.000241206 -0.00051028 0)
(0.000227634 -0.000521599 0)
(0.000213919 -0.000531509 0)
(0.000200349 -0.00053991 0)
(0.000186945 -0.000547224 0)
(0.000174023 -0.000553441 0)
(0.000161565 -0.000558871 0)
(0.000149877 -0.00056359 0)
(0.000138816 -0.000567681 0)
(0.000128652 -0.000571299 0)
(0.000119374 -0.000574555 0)
(0.000110997 -0.00057746 0)
(0.000103496 -0.00058002 0)
(9.68703e-05 -0.000582339 0)
(9.10485e-05 -0.000584264 0)
(8.59929e-05 -0.000585994 0)
(8.16624e-05 -0.000587289 0)
(0.000378347 0.000206072 0)
(0.000391668 0.000160162 0)
(0.000402554 0.000115943 0)
(0.000411524 7.19613e-05 0)
(0.000418602 2.95556e-05 0)
(0.000423629 -1.24519e-05 0)
(0.000426971 -5.28743e-05 0)
(0.000428357 -9.26809e-05 0)
(0.000428246 -0.000130799 0)
(0.000426354 -0.000168041 0)
(0.00042314 -0.000203427 0)
(0.000418314 -0.000237649 0)
(0.000412318 -0.000269823 0)
(0.000404886 -0.000300563 0)
(0.000396397 -0.000329085 0)
(0.000386624 -0.000355924 0)
(0.000375859 -0.000380418 0)
(0.000363966 -0.000403039 0)
(0.000351237 -0.000423328 0)
(0.000337529 -0.000441667 0)
(0.000323194 -0.0004578 0)
(0.000308159 -0.000472118 0)
(0.000292751 -0.00048448 0)
(0.000277014 -0.000495315 0)
(0.000261232 -0.000504588 0)
(0.000245529 -0.000512694 0)
(0.000230116 -0.000519681 0)
(0.000215198 -0.000525875 0)
(0.000200847 -0.000531348 0)
(0.000187318 -0.000536314 0)
(0.000174463 -0.00054081 0)
(0.000162446 -0.000544901 0)
(0.000151613 -0.000548853 0)
(0.000141577 -0.00055242 0)
(0.000132494 -0.000555819 0)
(0.000124274 -0.000558846 0)
(0.000116879 -0.000561719 0)
(0.000110265 -0.000564148 0)
(0.000104395 -0.000566466 0)
(9.92074e-05 -0.000568263 0)
(0.000425502 0.000166603 0)
(0.000439654 0.000121939 0)
(0.000451605 7.9406e-05 0)
(0.000461632 3.71335e-05 0)
(0.000469769 -3.26579e-06 0)
(0.000475769 -4.32499e-05 0)
(0.000479977 -8.14377e-05 0)
(0.000482032 -0.000119014 0)
(0.000482389 -0.000154735 0)
(0.000480676 -0.000189573 0)
(0.000477379 -0.000222402 0)
(0.000472151 -0.000254024 0)
(0.000465467 -0.000283448 0)
(0.000457021 -0.00031134 0)
(0.000447221 -0.00033685 0)
(0.000435847 -0.000360571 0)
(0.000423243 -0.000381806 0)
(0.000409321 -0.000401158 0)
(0.000394393 -0.000418089 0)
(0.000378435 -0.000433202 0)
(0.000361833 -0.000446191 0)
(0.000344587 -0.000457606 0)
(0.000327105 -0.000467345 0)
(0.000309457 -0.000475893 0)
(0.000291993 -0.000483276 0)
(0.000274813 -0.000489863 0)
(0.000258216 -0.000495766 0)
(0.000242256 -0.000501185 0)
(0.000227124 -0.000506249 0)
(0.000212818 -0.000510996 0)
(0.000199463 -0.00051556 0)
(0.000187054 -0.000519916 0)
(0.00017562 -0.000524181 0)
(0.000165007 -0.000528081 0)
(0.000155296 -0.000531915 0)
(0.000146398 -0.000535349 0)
(0.000138275 -0.00053869 0)
(0.000130923 -0.000541587 0)
(0.000124247 -0.000544406 0)
(0.00011829 -0.000546719 0)
(0.000469114 0.000124005 0)
(0.000483819 8.05262e-05 0)
(0.000496508 3.95384e-05 0)
(0.000507314 -1.0872e-06 0)
(0.000516269 -3.95008e-05 0)
(0.000523054 -7.73892e-05 0)
(0.000527983 -0.000113179 0)
(0.000530616 -0.000148247 0)
(0.000531368 -0.000181189 0)
(0.000529811 -0.000213137 0)
(0.000526383 -0.000242826 0)
(0.00052072 -0.00027118 0)
(0.000513259 -0.000297103 0)
(0.000503711 -0.000321351 0)
(0.000492516 -0.000343044 0)
(0.000479471 -0.000362854 0)
(0.00046503 -0.000380135 0)
(0.000449109 -0.000395568 0)
(0.000432154 -0.000408708 0)
(0.000414209 -0.000420268 0)
(0.000395699 -0.000430001 0)
(0.000376757 -0.000438563 0)
(0.000357762 -0.000445877 0)
(0.000338883 -0.000452481 0)
(0.000320402 -0.000458358 0)
(0.000302498 -0.000463913 0)
(0.000285309 -0.000469107 0)
(0.000268949 -0.000474178 0)
(0.00025345 -0.000479066 0)
(0.000238891 -0.000483887 0)
(0.000225234 -0.000488593 0)
(0.000212461 -0.000493151 0)
(0.000200586 -0.000497626 0)
(0.000189483 -0.000501818 0)
(0.000179244 -0.000505954 0)
(0.00016974 -0.000509729 0)
(0.000160986 -0.000513448 0)
(0.000152951 -0.000516738 0)
(0.00014557 -0.000520002 0)
(0.00013888 -0.000522763 0)
(0.000509529 7.90879e-05 0)
(0.000524501 3.66721e-05 0)
(0.000537544 -2.90426e-06 0)
(0.000548728 -4.19626e-05 0)
(0.000558122 -7.84098e-05 0)
(0.000565325 -0.000114126 0)
(0.000570655 -0.000147327 0)
(0.000573571 -0.000179569 0)
(0.000574478 -0.000209289 0)
(0.00057285 -0.000237764 0)
(0.000569107 -0.000263623 0)
(0.000562838 -0.00028792 0)
(0.00055447 -0.000309501 0)
(0.000543741 -0.000329274 0)
(0.000531112 -0.000346354 0)
(0.000516468 -0.000361589 0)
(0.000500331 -0.000374383 0)
(0.000482709 -0.000385571 0)
(0.000464138 -0.000394806 0)
(0.000444739 -0.000402894 0)
(0.000424996 -0.000409654 0)
(0.00040507 -0.00041579 0)
(0.000385383 -0.000421202 0)
(0.000366025 -0.000426409 0)
(0.000347333 -0.000431323 0)
(0.000329283 -0.000436252 0)
(0.000312097 -0.000441088 0)
(0.000295684 -0.000445971 0)
(0.000280191 -0.000450823 0)
(0.000265506 -0.000455656 0)
(0.000251678 -0.000460433 0)
(0.000238672 -0.000465102 0)
(0.000226449 -0.000469698 0)
(0.000214975 -0.000474057 0)
(0.000204268 -0.000478396 0)
(0.000194277 -0.000482387 0)
(0.000184958 -0.000486389 0)
(0.000176361 -0.000489969 0)
(0.000168336 -0.000493586 0)
(0.00016102 -0.000496702 0)
(0.000547075 3.24537e-05 0)
(0.000562041 -8.90568e-06 0)
(0.000575059 -4.7066e-05 0)
(0.000586171 -8.45134e-05 0)
(0.000595492 -0.000118894 0)
(0.000602584 -0.000152246 0)
(0.00060776 -0.000182562 0)
(0.000610456 -0.000211565 0)
(0.000611008 -0.000237521 0)
(0.000608896 -0.000261866 0)
(0.000604457 -0.000283153 0)
(0.000597319 -0.000302603 0)
(0.000587871 -0.000319075 0)
(0.000575926 -0.000333682 0)
(0.000561985 -0.000345607 0)
(0.00054602 -0.00035592 0)
(0.000528624 -0.000364105 0)
(0.000509904 -0.000371178 0)
(0.000490448 -0.000376834 0)
(0.000470426 -0.000381968 0)
(0.000450335 -0.000386363 0)
(0.000430328 -0.00039073 0)
(0.000410746 -0.000394836 0)
(0.000391668 -0.000399166 0)
(0.00037327 -0.000403464 0)
(0.000355573 -0.000408009 0)
(0.000338636 -0.000412572 0)
(0.000322473 -0.000417293 0)
(0.000307066 -0.000422015 0)
(0.00029242 -0.000426755 0)
(0.00027852 -0.000431488 0)
(0.000265344 -0.000436112 0)
(0.000252857 -0.000440712 0)
(0.000241118 -0.000445128 0)
(0.00023004 -0.000449552 0)
(0.000219674 -0.000453683 0)
(0.000209913 -0.000457854 0)
(0.000200842 -0.000461642 0)
(0.000192295 -0.000465499 0)
(0.000184415 -0.000468874 0)
(0.000581823 -1.53288e-05 0)
(0.000596516 -5.54898e-05 0)
(0.000609149 -9.20282e-05 0)
(0.00061972 -0.000127614 0)
(0.000628423 -0.00015961 0)
(0.00063477 -0.000190206 0)
(0.000639136 -0.000217184 0)
(0.000640921 -0.000242391 0)
(0.000640469 -0.000263971 0)
(0.000637274 -0.000283528 0)
(0.000631681 -0.000299582 0)
(0.000623351 -0.0003136 0)
(0.00061272 -0.000324494 0)
(0.00059966 -0.000333656 0)
(0.000584731 -0.000340379 0)
(0.000567994 -0.000345954 0)
(0.000550073 -0.00034996 0)
(0.000531127 -0.000353515 0)
(0.000511741 -0.000356317 0)
(0.000492057 -0.000359248 0)
(0.000472539 -0.000361997 0)
(0.000453223 -0.000365176 0)
(0.000434423 -0.00036843 0)
(0.000416073 -0.000372137 0)
(0.000398388 -0.00037596 0)
(0.000381251 -0.000380121 0)
(0.000364818 -0.000384352 0)
(0.000348974 -0.000388779 0)
(0.000333811 -0.000393218 0)
(0.000319286 -0.000397732 0)
(0.000305415 -0.000402259 0)
(0.000292194 -0.000406727 0)
(0.000279627 -0.000411245 0)
(0.000267735 -0.000415599 0)
(0.000256434 -0.000420018 0)
(0.000245807 -0.000424168 0)
(0.000235697 -0.0004284 0)
(0.000226272 -0.000432274 0)
(0.000217267 -0.000436252 0)
(0.000208943 -0.000439768 0)
(0.000613706 -6.35796e-05 0)
(0.000627874 -0.000102191 0)
(0.000639741 -0.000136643 0)
(0.000649311 -0.000169855 0)
(0.000656807 -0.00019888 0)
(0.000661778 -0.00022612 0)
(0.000664581 -0.000249097 0)
(0.000664726 -0.000269864 0)
(0.000662546 -0.000286448 0)
(0.000657668 -0.000300679 0)
(0.000650449 -0.000311125 0)
(0.000640713 -0.000319516 0)
(0.000628884 -0.000324897 0)
(0.000615023 -0.000328941 0)
(0.000599624 -0.000331029 0)
(0.00058288 -0.000332658 0)
(0.000565329 -0.000333385 0)
(0.00054713 -0.000334374 0)
(0.000528768 -0.000335203 0)
(0.000510299 -0.000336679 0)
(0.000492063 -0.000338327 0)
(0.000474025 -0.000340658 0)
(0.000456386 -0.000343205 0)
(0.000439098 -0.00034629 0)
(0.000422277 -0.000349544 0)
(0.000405903 -0.000353155 0)
(0.000390022 -0.000356892 0)
(0.000374673 -0.000360825 0)
(0.000359832 -0.000364868 0)
(0.000345619 -0.000369012 0)
(0.000331927 -0.000373244 0)
(0.000318836 -0.000377464 0)
(0.000306261 -0.000381777 0)
(0.000294362 -0.000385967 0)
(0.00028293 -0.000390264 0)
(0.000272154 -0.000394316 0)
(0.000261814 -0.000398502 0)
(0.00025213 -0.000402346 0)
(0.000242789 -0.000406332 0)
(0.000234125 -0.000409891 0)
(0.0006423 -0.000111533 0)
(0.000655652 -0.00014799 0)
(0.000666387 -0.000179583 0)
(0.000674508 -0.000209627 0)
(0.000680314 -0.00023485 0)
(0.000683321 -0.000257894 0)
(0.000683954 -0.000276088 0)
(0.000681834 -0.000291766 0)
(0.000677348 -0.000302879 0)
(0.000670338 -0.000311587 0)
(0.000661228 -0.000316528 0)
(0.000650024 -0.000319718 0)
(0.000637244 -0.000320369 0)
(0.000623006 -0.000320317 0)
(0.000607838 -0.000318993 0)
(0.000591885 -0.000317945 0)
(0.000575567 -0.000316567 0)
(0.000558924 -0.000315993 0)
(0.00054228 -0.000315569 0)
(0.00052555 -0.000316044 0)
(0.000508982 -0.000316779 0)
(0.000492456 -0.000318275 0)
(0.00047618 -0.00031999 0)
(0.000460069 -0.000322303 0)
(0.000444299 -0.000324785 0)
(0.000428797 -0.00032772 0)
(0.00041372 -0.000330774 0)
(0.000398986 -0.000334175 0)
(0.000384781 -0.000337653 0)
(0.000370952 -0.000341416 0)
(0.000357676 -0.000345135 0)
(0.000344905 -0.000348895 0)
(0.000332498 -0.000352952 0)
(0.000320727 -0.000356818 0)
(0.000309297 -0.000360889 0)
(0.000298504 -0.000364722 0)
(0.000288041 -0.000368744 0)
(0.000278202 -0.000372439 0)
(0.000268636 -0.000376329 0)
(0.000259741 -0.000379825 0)
(0.000667077 -0.000157871 0)
(0.000679211 -0.000191362 0)
(0.000688366 -0.000219137 0)
(0.000694665 -0.000245121 0)
(0.000698326 -0.000265568 0)
(0.000698984 -0.000283568 0)
(0.000697052 -0.000296275 0)
(0.000692397 -0.000306409 0)
(0.00068538 -0.000311923 0)
(0.000676201 -0.000315399 0)
(0.00066524 -0.000315507 0)
(0.000652888 -0.000314627 0)
(0.000639578 -0.000311907 0)
(0.000625559 -0.000309326 0)
(0.000611221 -0.000306127 0)
(0.000596605 -0.00030371 0)
(0.000581942 -0.000301273 0)
(0.000567155 -0.000299799 0)
(0.000552385 -0.000298516 0)
(0.000537514 -0.000298122 0)
(0.000522682 -0.000297942 0)
(0.000507792 -0.000298494 0)
(0.000493017 -0.000299276 0)
(0.000478297 -0.000300683 0)
(0.00046377 -0.000302297 0)
(0.000449393 -0.000304403 0)
(0.0004353 -0.000306698 0)
(0.000421458 -0.000309367 0)
(0.000407983 -0.000312225 0)
(0.000394808 -0.000315297 0)
(0.000381994 -0.000318535 0)
(0.000369615 -0.000321864 0)
(0.000357612 -0.000325364 0)
(0.000346037 -0.000328839 0)
(0.000334826 -0.000332477 0)
(0.000324115 -0.000336002 0)
(0.000313697 -0.000339689 0)
(0.000303839 -0.000343154 0)
(0.00029421 -0.000346818 0)
(0.000285208 -0.000350158 0)
(0.000687482 -0.000200857 0)
(0.000697956 -0.000230522 0)
(0.000705155 -0.000253595 0)
(0.000709254 -0.000274616 0)
(0.000710439 -0.000289461 0)
(0.000708567 -0.000301734 0)
(0.000703978 -0.000308494 0)
(0.000696836 -0.000312948 0)
(0.00068754 -0.000313178 0)
(0.000676612 -0.000312131 0)
(0.000664405 -0.000308691 0)
(0.00065148 -0.000305363 0)
(0.000638269 -0.000301105 0)
(0.000624981 -0.000297721 0)
(0.000611727 -0.000294031 0)
(0.000598502 -0.000291314 0)
(0.000585376 -0.000288492 0)
(0.000572238 -0.000286559 0)
(0.000559178 -0.000284615 0)
(0.00054599 -0.000283438 0)
(0.000532807 -0.000282321 0)
(0.000519531 -0.000281936 0)
(0.000506341 -0.000281744 0)
(0.000493099 -0.000282202 0)
(0.000479965 -0.000282866 0)
(0.000466881 -0.000284058 0)
(0.000453966 -0.000285465 0)
(0.000441229 -0.000287312 0)
(0.000428685 -0.000289357 0)
(0.000416381 -0.000291675 0)
(0.000404276 -0.000294182 0)
(0.000392516 -0.000296843 0)
(0.000381009 -0.000299734 0)
(0.000369911 -0.000302645 0)
(0.000359031 -0.000305791 0)
(0.00034863 -0.000308838 0)
(0.000338394 -0.000312118 0)
(0.000328707 -0.000315202 0)
(0.000319125 -0.000318531 0)
(0.000310138 -0.000321554 0)
(0.000703132 -0.000239001 0)
(0.000711584 -0.000263996 0)
(0.000716349 -0.000281436 0)
(0.000717973 -0.000296628 0)
(0.000716419 -0.00030508 0)
(0.00071194 -0.000311141 0)
(0.000704783 -0.000311785 0)
(0.000695675 -0.000310939 0)
(0.00068466 -0.000306898 0)
(0.000673015 -0.000303097 0)
(0.000660828 -0.000298072 0)
(0.000648563 -0.000294242 0)
(0.000636201 -0.000289995 0)
(0.000623855 -0.000286824 0)
(0.000611532 -0.000283319 0)
(0.000599231 -0.000280711 0)
(0.000587034 -0.000277826 0)
(0.000574876 -0.000275694 0)
(0.000562848 -0.000273347 0)
(0.000550851 -0.000271632 0)
(0.000539014 -0.000269907 0)
(0.000527237 -0.000268839 0)
(0.000515566 -0.000267866 0)
(0.000503878 -0.000267443 0)
(0.000492181 -0.000267164 0)
(0.000480494 -0.000267381 0)
(0.000468906 -0.000267862 0)
(0.000457397 -0.000268764 0)
(0.000445949 -0.000269887 0)
(0.000434642 -0.000271285 0)
(0.000423462 -0.000272946 0)
(0.000412562 -0.000274823 0)
(0.000401799 -0.000276962 0)
(0.000391353 -0.000279184 0)
(0.000381026 -0.000281646 0)
(0.00037108 -0.000284081 0)
(0.000361231 -0.000286762 0)
(0.000351844 -0.000289323 0)
(0.000342496 -0.000292136 0)
(0.000333681 -0.000294727 0)
(0.000713791 -0.000270709 0)
(0.000719737 -0.000289886 0)
(0.000721699 -0.000300592 0)
(0.000720491 -0.000309025 0)
(0.000716094 -0.000310692 0)
(0.000709341 -0.000310534 0)
(0.000700038 -0.00030619 0)
(0.000690069 -0.000302026 0)
(0.000679202 -0.000296324 0)
(0.000668273 -0.000292249 0)
(0.000657087 -0.000287359 0)
(0.000645921 -0.000283916 0)
(0.000634527 -0.000279769 0)
(0.000623048 -0.000276785 0)
(0.000611519 -0.000273267 0)
(0.000599948 -0.000270728 0)
(0.000588439 -0.000267803 0)
(0.00057694 -0.000265696 0)
(0.000565575 -0.000263318 0)
(0.000554318 -0.00026163 0)
(0.000543281 -0.000259779 0)
(0.000532345 -0.000258469 0)
(0.000521583 -0.000257047 0)
(0.000510879 -0.00025604 0)
(0.000500333 -0.000255057 0)
(0.000489927 -0.000254598 0)
(0.000479629 -0.000254265 0)
(0.000469372 -0.000254309 0)
(0.00045907 -0.000254472 0)
(0.000448914 -0.000255004 0)
(0.000438821 -0.000255786 0)
(0.000428923 -0.00025684 0)
(0.000419063 -0.000258118 0)
(0.000409428 -0.00025952 0)
(0.000399812 -0.000261155 0)
(0.000390533 -0.000262846 0)
(0.000381253 -0.00026479 0)
(0.000372389 -0.000266699 0)
(0.000363467 -0.000268855 0)
(0.000355028 -0.000270884 0)
(0.000718814 -0.000293508 0)
(0.00072191 -0.000305571 0)
(0.000720641 -0.000308825 0)
(0.000716994 -0.000310478 0)
(0.000710002 -0.000306248 0)
(0.000702127 -0.000302222 0)
(0.000692887 -0.000295911 0)
(0.000683554 -0.000291672 0)
(0.000673873 -0.000286226 0)
(0.000664005 -0.000282515 0)
(0.000653737 -0.000277759 0)
(0.000643339 -0.000274413 0)
(0.000632753 -0.000270263 0)
(0.0006221 -0.000267314 0)
(0.000611385 -0.00026378 0)
(0.000600639 -0.000261248 0)
(0.000589909 -0.000258293 0)
(0.000579176 -0.000256165 0)
(0.000568508 -0.00025374 0)
(0.000557867 -0.000251995 0)
(0.000547349 -0.000250045 0)
(0.000536914 -0.000248641 0)
(0.00052665 -0.000247115 0)
(0.000516529 -0.000246033 0)
(0.000506662 -0.000244923 0)
(0.000496948 -0.000244152 0)
(0.000487369 -0.00024336 0)
(0.000477888 -0.000242801 0)
(0.000468541 -0.000242362 0)
(0.000459415 -0.000242279 0)
(0.000450343 -0.000242347 0)
(0.000441398 -0.000242635 0)
(0.000432387 -0.000243055 0)
(0.000423582 -0.000243659 0)
(0.000414776 -0.000244496 0)
(0.000406259 -0.000245466 0)
(0.000397688 -0.000246646 0)
(0.000389454 -0.000247864 0)
(0.000381116 -0.000249278 0)
(0.000373179 -0.000250668 0)
(0.000717837 -0.000304791 0)
(0.000718074 -0.000309424 0)
(0.000714248 -0.000306231 0)
(0.000708835 -0.000303104 0)
(0.000701542 -0.000296346 0)
(0.000694115 -0.000292118 0)
(0.000686041 -0.00028613 0)
(0.000677786 -0.000282317 0)
(0.000668817 -0.000276972 0)
(0.000659784 -0.000273401 0)
(0.000650287 -0.000268657 0)
(0.000640772 -0.000265431 0)
(0.000630953 -0.000261303 0)
(0.000621109 -0.000258435 0)
(0.000611108 -0.000254883 0)
(0.000601097 -0.000252371 0)
(0.000591043 -0.000249353 0)
(0.000581004 -0.000247196 0)
(0.000571005 -0.000244676 0)
(0.000561051 -0.000242869 0)
(0.000551192 -0.000240817 0)
(0.000541391 -0.000239347 0)
(0.000531705 -0.000237712 0)
(0.000522096 -0.000236548 0)
(0.00051262 -0.000235279 0)
(0.000503296 -0.000234384 0)
(0.000494111 -0.000233428 0)
(0.000485153 -0.000232791 0)
(0.000476367 -0.000232158 0)
(0.000467783 -0.000231755 0)
(0.000459251 -0.000231345 0)
(0.000450898 -0.000231098 0)
(0.0004426 -0.000230973 0)
(0.00043459 -0.000231079 0)
(0.000426558 -0.000231323 0)
(0.000418756 -0.00023169 0)
(0.000410827 -0.000232162 0)
(0.000403201 -0.000232738 0)
(0.000395436 -0.000233438 0)
(0.000388031 -0.000234218 0)
(0.000711772 -0.000304896 0)
(0.000709798 -0.000303709 0)
(0.000704843 -0.000297166 0)
(0.000699787 -0.000292968 0)
(0.000693343 -0.000286743 0)
(0.000687064 -0.000282819 0)
(0.000679557 -0.00027716 0)
(0.00067214 -0.000273355 0)
(0.000663936 -0.000268231 0)
(0.000655756 -0.000264706 0)
(0.000647019 -0.000260131 0)
(0.000638288 -0.000256915 0)
(0.000629195 -0.00025287 0)
(0.000620109 -0.00024998 0)
(0.000610809 -0.000246455 0)
(0.000601522 -0.0002439 0)
(0.00059213 -0.000240872 0)
(0.000582764 -0.000238648 0)
(0.000573373 -0.000236083 0)
(0.000564027 -0.000234177 0)
(0.00055472 -0.000232038 0)
(0.000545484 -0.000230431 0)
(0.000536332 -0.000228685 0)
(0.00052728 -0.000227366 0)
(0.000518333 -0.000225987 0)
(0.000509514 -0.000224944 0)
(0.000500775 -0.000223881 0)
(0.000492168 -0.000223085 0)
(0.000483693 -0.000222286 0)
(0.00047541 -0.000221703 0)
(0.000467223 -0.000221133 0)
(0.000459292 -0.000220752 0)
(0.000451431 -0.000220407 0)
(0.000443819 -0.000220197 0)
(0.000436171 -0.000219997 0)
(0.000428769 -0.000219902 0)
(0.00042133 -0.00021988 0)
(0.000414211 -0.000220017 0)
(0.000406987 -0.000220199 0)
(0.000400073 -0.000220514 0)
(0.000702991 -0.000297687 0)
(0.000700163 -0.000293513 0)
(0.000695688 -0.000287433 0)
(0.000691554 -0.000283615 0)
(0.000685775 -0.000277778 0)
(0.000680135 -0.000273999 0)
(0.000673413 -0.000268528 0)
(0.000666743 -0.000264922 0)
(0.000659255 -0.000259914 0)
(0.000651813 -0.000256516 0)
(0.000643774 -0.000251995 0)
(0.00063578 -0.000248851 0)
(0.000627367 -0.000244827 0)
(0.000618991 -0.000241965 0)
(0.000610345 -0.000238426 0)
(0.000601735 -0.000235856 0)
(0.00059297 -0.00023278 0)
(0.000584247 -0.000230508 0)
(0.000575457 -0.000227868 0)
(0.000566721 -0.000225888 0)
(0.00055798 -0.000223655 0)
(0.000549308 -0.000221958 0)
(0.000540671 -0.000220096 0)
(0.000532125 -0.000218664 0)
(0.000523644 -0.000217138 0)
(0.00051528 -0.000215947 0)
(0.00050701 -0.000214726 0)
(0.000498856 -0.00021376 0)
(0.000490794 -0.000212808 0)
(0.000482896 -0.00021206 0)
(0.000475047 -0.00021133 0)
(0.000467393 -0.000210766 0)
(0.000459776 -0.000210221 0)
(0.000452411 -0.000209819 0)
(0.00044505 -0.000209428 0)
(0.000437979 -0.000209177 0)
(0.000430869 -0.000208923 0)
(0.000424058 -0.000208796 0)
(0.00041712 -0.000208618 0)
(0.000410512 -0.000208577 0)
(0.00069368 -0.000288202 0)
(0.000691232 -0.000283632 0)
(0.000687612 -0.000278724 0)
(0.000683825 -0.00027453 0)
(0.000678711 -0.000269376 0)
(0.000673764 -0.000265453 0)
(0.00066761 -0.000260449 0)
(0.000661677 -0.000256743 0)
(0.000654788 -0.000252047 0)
(0.000648086 -0.000248583 0)
(0.000640664 -0.000244269 0)
(0.000633384 -0.000241068 0)
(0.000625588 -0.000237166 0)
(0.000617899 -0.00023424 0)
(0.000609858 -0.000230758 0)
(0.0006019 -0.000228114 0)
(0.000593719 -0.000225043 0)
(0.000585609 -0.000222679 0)
(0.000577374 -0.000220002 0)
(0.000569209 -0.000217911 0)
(0.000560993 -0.000215602 0)
(0.000552854 -0.000213773 0)
(0.000544716 -0.000211806 0)
(0.000536666 -0.000210227 0)
(0.000528649 -0.000208571 0)
(0.000520737 -0.000207227 0)
(0.000512875 -0.000205848 0)
(0.000505136 -0.000204713 0)
(0.000497455 -0.000203582 0)
(0.000489928 -0.000202642 0)
(0.000482448 -0.000201723 0)
(0.00047515 -0.000200963 0)
(0.000467872 -0.000200228 0)
(0.0004608 -0.000199626 0)
(0.000453707 -0.000199031 0)
(0.00044685 -0.000198559 0)
(0.000439939 -0.000198069 0)
(0.000433317 -0.00019771 0)
(0.00042658 -0.000197296 0)
(0.000420183 -0.000197032 0)
(0.00068518 -0.000278914 0)
(0.000683136 -0.000274657 0)
(0.000679917 -0.000270073 0)
(0.000676643 -0.000265973 0)
(0.000672087 -0.000261199 0)
(0.000667665 -0.000257301 0)
(0.000662144 -0.000252586 0)
(0.00065678 -0.000248912 0)
(0.000650532 -0.000244415 0)
(0.000644426 -0.000240974 0)
(0.000637637 -0.000236785 0)
(0.000630966 -0.000233588 0)
(0.000623786 -0.000229754 0)
(0.000616702 -0.00022681 0)
(0.000609258 -0.000223349 0)
(0.000601891 -0.000220662 0)
(0.000594282 -0.000217573 0)
(0.000586743 -0.000215143 0)
(0.000579054 -0.000212414 0)
(0.000571433 -0.000210235 0)
(0.000563732 -0.000207847 0)
(0.000556106 -0.000205911 0)
(0.000548448 -0.000203839 0)
(0.000540877 -0.000202131 0)
(0.000533308 -0.000200347 0)
(0.00052584 -0.000198852 0)
(0.000518398 -0.000197327 0)
(0.00051107 -0.00019603 0)
(0.000503774 -0.000194732 0)
(0.000496616 -0.000193615 0)
(0.000489482 -0.000192509 0)
(0.000482514 -0.000191552 0)
(0.000475553 -0.000190603 0)
(0.000468792 -0.000189788 0)
(0.000462007 -0.000188964 0)
(0.000455456 -0.000188275 0)
(0.000448833 -0.000187544 0)
(0.000442481 -0.000186962 0)
(0.000435988 -0.000186281 0)
(0.00042982 -0.000185781 0)
(0.000677735 -0.000270041 0)
(0.000675811 -0.000265945 0)
(0.000673078 -0.000261733 0)
(0.000670041 -0.000257692 0)
(0.000666048 -0.00025327 0)
(0.000662038 -0.000249396 0)
(0.000657075 -0.000244978 0)
(0.000652229 -0.000241302 0)
(0.000646536 -0.000237036 0)
(0.000641 -0.000233576 0)
(0.000634765 -0.000229555 0)
(0.00062868 -0.000226324 0)
(0.000622051 -0.000222599 0)
(0.00061555 -0.000219605 0)
(0.000608645 -0.0002162 0)
(0.000601846 -0.000213445 0)
(0.000594761 -0.000210368 0)
(0.000587766 -0.000207851 0)
(0.000580581 -0.000205095 0)
(0.000573476 -0.00020281 0)
(0.000566257 -0.00020036 0)
(0.000559116 -0.000198298 0)
(0.000551915 -0.000196134 0)
(0.000544797 -0.000194284 0)
(0.000537657 -0.000192382 0)
(0.000530609 -0.000190728 0)
(0.000523564 -0.000189063 0)
(0.000516623 -0.000187588 0)
(0.000509697 -0.00018613 0)
(0.000502894 -0.000184818 0)
(0.000496102 -0.000183536 0)
(0.000489457 -0.000182369 0)
(0.000482806 -0.00018123 0)
(0.00047633 -0.00018019 0)
(0.00046982 -0.000179158 0)
(0.000463522 -0.000178223 0)
(0.000457146 -0.000177262 0)
(0.000451034 -0.000176416 0)
(0.000444776 -0.000175489 0)
(0.000438852 -0.000174717 0)
(0.000670882 -0.000261391 0)
(0.000669175 -0.00025753 0)
(0.000666688 -0.000253536 0)
(0.000664 -0.000249649 0)
(0.000660394 -0.000245479 0)
(0.000656799 -0.000241688 0)
(0.000652311 -0.000237502 0)
(0.000647925 -0.000233869 0)
(0.000642751 -0.000229791 0)
(0.000637705 -0.000226348 0)
(0.000632006 -0.000222464 0)
(0.000626429 -0.000219228 0)
(0.000620335 -0.000215591 0)
(0.000614348 -0.000212571 0)