/*--------------------------------*- C++ -*----------------------------------*\
| =========                 |                                                 |
| \\      /  F ield         | OpenFOAM: The Open Source CFD Toolbox           |
|  \\    /   O peration     | Version:  v2012                                 |
|   \\  /    A nd           | Website:  www.openfoam.com                      |
|    \\/     M anipulation  |                                                 |
\*---------------------------------------------------------------------------*/
FoamFile
{
    version     2.0;
    format      ascii;
    class       volScalarField;
    location    "20";
    object      epsilonEq;
}
// * * * * * * * * * * * * * * * * * * * * * * * * * * * * * * * * * * * * * //

dimensions      [0 0 0 0 0 0 0];


internalField   nonuniform List<scalar> 
16000
(
0.00822245
0.00837133
0.00846152
0.00844564
0.00838633
0.00828319
0.00815073
0.00798515
0.00779821
0.00758685
0.0073617
0.0071205
0.00686949
0.00660701
0.00633767
0.0060633
0.0057825
0.00549645
0.00521188
0.00492013
0.00462874
0.00433902
0.00404394
0.00375506
0.00346505
0.00317769
0.00289862
0.00262099
0.00235602
0.00209946
0.00185595
0.00162974
0.00141895
0.00123021
0.00106233
0.000917303
0.000796841
0.000699645
0.000630406
0.000584755
0.00814565
0.00829228
0.00837888
0.00836553
0.00830906
0.00820921
0.00808092
0.00791846
0.00773699
0.00753092
0.00730973
0.00707137
0.00682387
0.00656508
0.00629827
0.00602386
0.00574585
0.005462
0.00517276
0.00488441
0.00458969
0.00429502
0.00400159
0.00370391
0.0034137
0.00312311
0.00283883
0.00256362
0.00229539
0.00204322
0.00180293
0.00158186
0.00137935
0.00119751
0.00103981
0.000903336
0.000792932
0.000704899
0.000638107
0.000603302
0.00800167
0.00814191
0.00821756
0.00820467
0.00815506
0.00806223
0.0079422
0.00778842
0.00761455
0.0074175
0.00720461
0.00697444
0.00673183
0.00647849
0.00621708
0.00594449
0.00566736
0.00538455
0.00509349
0.00480016
0.00450371
0.00420073
0.00390178
0.00359957
0.00330036
0.00300906
0.00272006
0.00244811
0.00218356
0.00193878
0.00171026
0.00150156
0.00131524
0.00115083
0.0010103
0.000892614
0.000798188
0.000722934
0.000668279
0.000633861
0.0077996
0.00792623
0.00798418
0.00796789
0.00792495
0.00784101
0.00773318
0.0075941
0.0074329
0.00724752
0.0070462
0.00682665
0.00659313
0.00634564
0.00608739
0.00581825
0.0055385
0.00525214
0.00495722
0.00465527
0.0043507
0.00404204
0.00373184
0.0034275
0.00312291
0.00283211
0.00254938
0.00228321
0.00203453
0.0018051
0.00159905
0.00141496
0.00125446
0.00111708
0.00100094
0.000906903
0.000828326
0.000766607
0.000719498
0.000674179
0.00756168
0.00766544
0.00769354
0.00766884
0.00762925
0.00755321
0.00745784
0.00733384
0.00718799
0.00701919
0.00683004
0.00662277
0.00639775
0.00615602
0.00589844
0.00562876
0.00534527
0.00505018
0.00474602
0.00443588
0.00411826
0.00380344
0.00348712
0.00317999
0.00288211
0.00259869
0.00233397
0.00208829
0.0018683
0.00167078
0.00150031
0.00135113
0.00122419
0.00112007
0.00103049
0.000957369
0.000892678
0.000838991
0.000789282
0.000745017
0.00729746
0.00735973
0.00735196
0.00731528
0.00727451
0.00720756
0.00712258
0.00701382
0.0068825
0.00672977
0.00655265
0.00635442
0.00613352
0.00589362
0.00563393
0.00535794
0.00506415
0.00475821
0.00444258
0.00411995
0.00379604
0.00347618
0.00316439
0.00286744
0.00258862
0.00233304
0.002101
0.0018989
0.00172012
0.00157219
0.00143914
0.00132642
0.00123981
0.00116468
0.00109658
0.00103903
0.000982032
0.000930534
0.000879488
0.000831522
0.00701949
0.00701597
0.00697835
0.00692932
0.00687708
0.00681406
0.00673364
0.00663641
0.00651494
0.00637116
0.0062002
0.00600481
0.0057828
0.00553873
0.00526937
0.00498204
0.00467386
0.00435827
0.0040315
0.00370613
0.00338633
0.00307856
0.00278906
0.00252395
0.00228412
0.00207509
0.00189446
0.00174433
0.00161755
0.00151382
0.00141495
0.00135618
0.00129671
0.00123845
0.00118439
0.00113273
0.00107885
0.00102909
0.000976685
0.000927403
0.00676172
0.00668529
0.00660808
0.00653835
0.00646397
0.00638979
0.00630096
0.00620055
0.006076
0.00593068
0.00575478
0.00555446
0.00532212
0.00506557
0.00478186
0.00448036
0.00416408
0.00384317
0.00352047
0.00321162
0.0029152
0.00264609
0.00240162
0.0021913
0.00200983
0.00186282
0.00174176
0.00164615
0.00156838
0.00150488
0.00145509
0.00141426
0.00136392
0.00131724
0.00127032
0.00122212
0.00117314
0.00112567
0.0010763
0.00102895
0.00651424
0.00638087
0.00625845
0.0061549
0.00604664
0.00594397
0.00582858
0.00570554
0.00555982
0.00539603
0.00520083
0.00498251
0.0047306
0.00445785
0.00416082
0.00385414
0.00354148
0.00323547
0.00294189
0.00267398
0.00243053
0.0022239
0.00204842
0.00190904
0.00179909
0.00171682
0.00165319
0.00160488
0.00156495
0.00153168
0.0014965
0.00146317
0.00142286
0.00138491
0.00134346
0.00130203
0.00125806
0.00121619
0.00117111
0.00112712
0.00625932
0.00610127
0.00594033
0.00579173
0.00563601
0.00548471
0.0053203
0.00515145
0.00496058
0.00475659
0.00452399
0.00427506
0.00399973
0.0037149
0.0034177
0.00312692
0.00284376
0.00258527
0.00235186
0.002155
0.00199112
0.00186565
0.00177028
0.00170512
0.00165936
0.00162965
0.00160646
0.00158894
0.0015698
0.00154914
0.00152418
0.00149798
0.00146414
0.00143462
0.00139843
0.00136485
0.00132743
0.00129193
0.00125241
0.00121248
0.00601346
0.005833
0.00563337
0.00543396
0.0052192
0.00500271
0.00476959
0.00453281
0.00427485
0.00401204
0.00372982
0.00344643
0.00315465
0.00287391
0.00260272
0.00235929
0.00214124
0.00196242
0.00181685
0.00171109
0.00163669
0.00159365
0.00157023
0.00156428
0.00156322
0.00156703
0.00156688
0.00156566
0.00155606
0.0015454
0.00152747
0.00150758
0.00148403
0.00146261
0.00143478
0.0014093
0.00137856
0.00134956
0.00131499
0.00127969
0.00576064
0.00554909
0.00530413
0.00504881
0.00476628
0.00447601
0.00416145
0.00384454
0.00351074
0.00318439
0.00285701
0.00255316
0.00226732
0.00202265
0.00181024
0.00164648
0.0015193
0.00143577
0.00138437
0.00136645
0.00136982
0.00139124
0.00141812
0.00144824
0.00147294
0.00149384
0.00150587
0.00151332
0.00151244
0.00151159
0.00150234
0.00149435
0.00148029
0.00146747
0.00144772
0.00142913
0.00140498
0.00138205
0.00135256
0.00132405
0.0054615
0.00521071
0.00491203
0.0045956
0.00424256
0.00387714
0.00348217
0.00309183
0.00269418
0.00232722
0.00198591
0.00170133
0.00146714
0.00129726
0.00117429
0.00110015
0.00105778
0.00105139
0.00106866
0.0011104
0.00116072
0.00121786
0.00126846
0.00131647
0.00135274
0.00138501
0.00140653
0.00142515
0.00143828
0.00144772
0.00145208
0.00145574
0.00145024
0.00144654
0.00143364
0.00142287
0.0014055
0.00138805
0.00136556
0.00134318
0.00507778
0.0047728
0.0044089
0.00403075
0.00360957
0.00318083
0.00272861
0.00230003
0.0018866
0.00154187
0.001261
0.00107412
0.000954298
0.000885291
0.000836888
0.000806427
0.000793304
0.000808335
0.000845402
0.000903605
0.000965883
0.00103149
0.00109062
0.00114708
0.00119503
0.00123838
0.00127534
0.00130724
0.00133592
0.00135463
0.00135791
0.0013812
0.00138993
0.00139098
0.00138942
0.00138522
0.00137565
0.00136504
0.00135112
0.00133549
0.00458108
0.00420991
0.00377704
0.00334004
0.00286104
0.00239882
0.00193305
0.00153186
0.00119761
0.00098859
0.000885726
0.00085495
0.000840602
0.000812082
0.000770441
0.000727116
0.000694928
0.00068613
0.000699373
0.000734288
0.000778083
0.00083319
0.000890021
0.000949926
0.00100514
0.00105954
0.00110692
0.00115395
0.0011897
0.00122402
0.00124718
0.00126941
0.00128584
0.00129878
0.0013068
0.00131268
0.00131189
0.00131192
0.00130579
0.00129675
0.00397023
0.00353244
0.00302993
0.00254356
0.00202917
0.00157528
0.00117316
0.000923771
0.000827413
0.000847226
0.000884624
0.00088629
0.000859702
0.000814499
0.000768425
0.000723118
0.000684732
0.000654408
0.00063545
0.00063171
0.000639754
0.000665672
0.000702988
0.00075241
0.000801335
0.000855515
0.000907333
0.000960467
0.0010033
0.00104599
0.00108055
0.0011161
0.00114246
0.00116882
0.00118621
0.00120244
0.00121172
0.00122035
0.00122165
0.00122019
0.00325542
0.00274574
0.00217488
0.00165402
0.00116229
0.00083993
0.000737867
0.000820153
0.000910282
0.000929491
0.000906499
0.00085399
0.00080981
0.000771548
0.000740367
0.000712176
0.000685201
0.000660028
0.0006351
0.000612093
0.000591724
0.00058298
0.000583625
0.000599989
0.000623873
0.000661365
0.000702939
0.000749495
0.000789693
0.000834746
0.0008771
0.000920571
0.000956078
0.000989548
0.00101554
0.00104082
0.00105994
0.00107777
0.00108917
0.00109821
0.00239803
0.0018162
0.00120858
0.000772687
0.000614392
0.000772902
0.000938491
0.000987913
0.000956169
0.000894461
0.000840915
0.000795005
0.00076306
0.000731255
0.000704377
0.000678823
0.000656539
0.000636777
0.000616703
0.000597708
0.000579107
0.000564556
0.000550337
0.000541526
0.000535647
0.000542108
0.000553544
0.000575941
0.000601675
0.000639196
0.000676039
0.000715108
0.000746445
0.000780096
0.000809848
0.000841796
0.00086791
0.000893441
0.000913099
0.000930814
0.0013718
0.000794186
0.000458696
0.000661449
0.000937443
0.00103831
0.00101878
0.000946968
0.000889655
0.000837769
0.000803126
0.00076356
0.000731856
0.000696578
0.000668832
0.000641073
0.000619052
0.000599204
0.000583047
0.000569179
0.000555482
0.000544277
0.000531726
0.000520676
0.000508344
0.000501765
0.000494876
0.000495249
0.000499484
0.00051312
0.000527301
0.000547566
0.000567519
0.000596445
0.000623985
0.00065318
0.000676963
0.000701241
0.000721982
0.000742109
0.000399781
0.000469649
0.000862985
0.00105262
0.00108294
0.00100672
0.000947996
0.000883847
0.000851228
0.000800575
0.000767084
0.000722957
0.000695505
0.000660867
0.00063787
0.000610559
0.00059062
0.000568901
0.000551564
0.000534563
0.000521241
0.000510629
0.000502007
0.000495799
0.000486948
0.000480865
0.000472303
0.000467055
0.000461044
0.000459183
0.000456389
0.000461014
0.000468169
0.000482633
0.000494693
0.00050965
0.000523683
0.000541568
0.000558584
0.000576357
0.000656761
0.00100289
0.00113395
0.00107488
0.00101234
0.00093821
0.000903082
0.000845848
0.000808733
0.00075982
0.000728994
0.000688658
0.000662311
0.000628375
0.000605753
0.000578255
0.000559499
0.000538202
0.000522983
0.000506712
0.000493905
0.000481345
0.000470637
0.000461713
0.000453902
0.000449721
0.000443494
0.000442921
0.000436666
0.000433341
0.000428668
0.000427798
0.000425416
0.000425528
0.000424628
0.000428758
0.000434892
0.000443977
0.00045261
0.000462789
0.00104589
0.00114689
0.00106202
0.00100102
0.000950891
0.000895649
0.000854712
0.00080123
0.000769658
0.000722924
0.000695513
0.000654956
0.000631227
0.000597242
0.000576717
0.000548892
0.000531095
0.000508824
0.000493632
0.000476504
0.000464115
0.000451826
0.000441978
0.000433257
0.000425012
0.000418162
0.000412316
0.00040919
0.00040482
0.000403651
0.000401563
0.000400309
0.000396913
0.000395222
0.000393487
0.000393988
0.000393499
0.000393854
0.000393428
0.000396323
0.00110748
0.00106999
0.000984442
0.000954838
0.00089579
0.000851224
0.000810124
0.000764794
0.000731709
0.000689227
0.00066172
0.000623933
0.000600603
0.000567915
0.000547949
0.000520511
0.000503509
0.000481179
0.0004668
0.000449102
0.000436984
0.000423365
0.000413371
0.000403456
0.000395597
0.000388956
0.000382789
0.000378477
0.000373387
0.000370485
0.000367086
0.000366053
0.000364451
0.000364478
0.000363604
0.000363302
0.000361657
0.000361191
0.000360268
0.000361791
0.00103022
0.000992906
0.000932883
0.000900457
0.000845963
0.000811255
0.000767132
0.000729953
0.000695013
0.00065836
0.000629935
0.000595701
0.000572024
0.000541415
0.000521371
0.000494946
0.000477835
0.000455737
0.000441182
0.000423314
0.000411118
0.000397165
0.000387112
0.000376492
0.000368332
0.000360471
0.000354102
0.000348893
0.000343864
0.000340361
0.000336561
0.000333927
0.000330844
0.000328948
0.000327047
0.000326223
0.000325313
0.000324842
0.000324222
0.000325605
0.00096135
0.000928971
0.000877928
0.00084964
0.000800692
0.000769493
0.000728305
0.000695124
0.000661187
0.000627917
0.000599878
0.00056823
0.000544824
0.000515926
0.000496178
0.000470701
0.00045393
0.000432165
0.000417899
0.00039984
0.000387747
0.000373202
0.000363073
0.000351741
0.00034341
0.000334881
0.00032811
0.000321864
0.000316414
0.000311948
0.000307741
0.000304641
0.000301451
0.000299141
0.000296512
0.000294421
0.00029202
0.000290051
0.000288171
0.000288495
0.000902176
0.000870239
0.000830604
0.00080125
0.000759475
0.000730706
0.000692221
0.000662913
0.000629621
0.000600293
0.000572117
0.000543761
0.000519993
0.000493551
0.000473421
0.000449583
0.000432455
0.000411627
0.000397037
0.000379375
0.000367001
0.000352448
0.000342038
0.000330371
0.00032171
0.000312623
0.000305509
0.000298672
0.000292866
0.000287817
0.000283117
0.000279416
0.000275627
0.000272973
0.000270003
0.000268145
0.000265833
0.000264365
0.000262525
0.000263139
0.000849269
0.000821081
0.000785453
0.000758729
0.000721025
0.000694386
0.00065892
0.000631897
0.000600435
0.000573406
0.000546255
0.000519975
0.000496792
0.000472031
0.000452272
0.000429645
0.000412777
0.000392688
0.000378271
0.000360914
0.000348609
0.000334004
0.000323557
0.00031159
0.000302792
0.000293243
0.000285896
0.000278472
0.000272382
0.000266756
0.000261754
0.000257584
0.00025349
0.000250424
0.000247072
0.000244801
0.000242127
0.000240443
0.000238565
0.000239477
0.000803766
0.000776619
0.00074589
0.000719395
0.00068651
0.000660805
0.000628726
0.000603444
0.000573995
0.000549139
0.000523039
0.00049896
0.000476244
0.000453437
0.000433823
0.000412762
0.000395875
0.000376919
0.000362404
0.00034577
0.000333326
0.000319088
0.00030847
0.000296577
0.000287575
0.000277889
0.000270309
0.000262625
0.000256277
0.000250341
0.000245047
0.000240582
0.00023619
0.000232923
0.000229322
0.000226968
0.0002241
0.00022234
0.000220235
0.000220899
0.00076262
0.00073759
0.000709074
0.000684547
0.00065423
0.000630225
0.000600492
0.000576854
0.000549236
0.000526025
0.000501233
0.000478736
0.000456922
0.000435534
0.000416542
0.000396657
0.000380206
0.00036214
0.000347928
0.000331889
0.000319644
0.000305729
0.000295216
0.000283426
0.000274445
0.000264698
0.000257066
0.000249223
0.000242772
0.00023665
0.000231227
0.000226612
0.000222092
0.000218746
0.000215048
0.00021272
0.000209839
0.000208259
0.000206287
0.000207202
0.000726702
0.000702693
0.000676708
0.00065288
0.000625547
0.000602341
0.000575299
0.000552752
0.000527231
0.000505372
0.000482071
0.000461048
0.000440229
0.000420287
0.000401928
0.000383344
0.00036728
0.000350294
0.000336308
0.000321098
0.000308971
0.00029563
0.000285163
0.000273709
0.000264719
0.000255105
0.000247423
0.000239552
0.000233017
0.000226751
0.000221217
0.000216386
0.000211732
0.000208139
0.00020429
0.000201704
0.000198652
0.000196808
0.000194632
0.000195142
0.000693776
0.000671075
0.000646522
0.00062412
0.00059853
0.000576684
0.000551412
0.000530171
0.000506234
0.000485653
0.000463661
0.000443875
0.00042409
0.000405305
0.000387748
0.00037019
0.000354747
0.000338624
0.000325119
0.000310588
0.000298834
0.000285993
0.000275807
0.000264695
0.000255908
0.000246512
0.000238965
0.000231228
0.000224775
0.000218601
0.000213116
0.000208371
0.000203756
0.000200266
0.000196473
0.000194019
0.000191062
0.000189375
0.000187346
0.000187793
0.000664812
0.000642943
0.000619925
0.000598301
0.000574661
0.000553619
0.000530332
0.000509997
0.000487838
0.000468283
0.000447755
0.000429078
0.000410432
0.000392772
0.000376066
0.000359584
0.000344757
0.000329604
0.000316536
0.000302828
0.000291375
0.000279188
0.000269203
0.000258566
0.000249907
0.000240808
0.000233338
0.00022573
0.000219319
0.000213123
0.000207656
0.000202763
0.000198144
0.000194411
0.000190587
0.00018783
0.000184809
0.000182794
0.000180663
0.000180558
0.00063773
0.000616768
0.00059477
0.000574214
0.000551837
0.000531891
0.000509947
0.000490694
0.000469825
0.000451324
0.000431953
0.000414293
0.00039664
0.000379939
0.000364067
0.00034846
0.000334329
0.000319945
0.000307458
0.000294402
0.000283434
0.000271779
0.000262199
0.000251987
0.00024366
0.000234899
0.000227696
0.000220367
0.000214165
0.000208214
0.000202908
0.000198245
0.000193758
0.000190244
0.000186547
0.000183989
0.000181113
0.000179253
0.000177301
0.000177016
0.000613863
0.00059355
0.000572605
0.000552766
0.000531765
0.000512578
0.00049212
0.00047368
0.000454239
0.000436613
0.000418513
0.000401773
0.000385188
0.000369426
0.000354411
0.000339729
0.000326258
0.000312749
0.000300748
0.000288486
0.00027786
0.000266895
0.000257539
0.000247891
0.000239703
0.000231364
0.000224244
0.000217183
0.000211036
0.000205192
0.000199938
0.000195222
0.000190796
0.000187087
0.000183453
0.000180592
0.000177754
0.000175534
0.000173569
0.000172623
0.000590982
0.000571371
0.000551204
0.000532219
0.000512168
0.000493896
0.000474459
0.000456944
0.000438515
0.000421798
0.000404642
0.00038878
0.000373044
0.000358112
0.000343844
0.000329927
0.000317109
0.000304286
0.000292858
0.000281194
0.00027107
0.000260613
0.000251698
0.000242477
0.000234669
0.000226695
0.000219893
0.000213157
0.000207263
0.000201735
0.000196663
0.000192279
0.000187969
0.00018462
0.000181059
0.000178571
0.00017581
0.00017393
0.000172095
0.000171176
0.00057085
0.000551756
0.000532384
0.000514019
0.00049501
0.000477418
0.000459129
0.000442339
0.000425051
0.000409098
0.000392996
0.000377929
0.000363112
0.000348992
0.000335483
0.000322379
0.000310151
0.000298128
0.00028712
0.000276225
0.000266365
0.000256625
0.000247839
0.000239266
0.000231476
0.000224063
0.000217198
0.000210914
0.000204918
0.000199702
0.00019454
0.000190296
0.000185954
0.000182553
0.000179029
0.000176314
0.000173603
0.0001714
0.000169502
0.000167983
0.000551023
0.000532529
0.000513789
0.000496156
0.000477881
0.000461088
0.000443575
0.000427609
0.000411089
0.000395954
0.000380581
0.000366307
0.000352156
0.000338794
0.000325879
0.00031349
0.000301787
0.000290423
0.000279897
0.000269585
0.000260165
0.000250935
0.000242543
0.000234411
0.000226974
0.00021994
0.000213385
0.000207434
0.000201691
0.000196798
0.000191799
0.000187929
0.000183617
0.000180714
0.00017707
0.000175023
0.000172103
0.000170704
0.00016867
0.000167823
0.000533616
0.000515558
0.000497465
0.000480366
0.000462922
0.000446719
0.000430122
0.000414786
0.000399184
0.000384712
0.000370195
0.000356608
0.000343215
0.000330549
0.000318272
0.000306579
0.00029537
0.000284713
0.000274497
0.000264897
0.000255618
0.000247086
0.000238681
0.00023123
0.000223626
0.000217258
0.000210389
0.000205085
0.000198905
0.000194616
0.000189117
0.000185746
0.000180974
0.000178371
0.000174423
0.000172401
0.000169361
0.000167752
0.000165478
0.000164237
0.000516052
0.000498546
0.000481
0.000464563
0.000447704
0.000432236
0.000416227
0.000401658
0.000386629
0.000372916
0.000358951
0.000346098
0.000333212
0.000321263
0.000309414
0.000298438
0.000287563
0.000277628
0.000267774
0.000258808
0.000249877
0.000241926
0.000233836
0.000226917
0.000219615
0.000213708
0.000207156
0.000202218
0.000196381
0.00019236
0.000187194
0.000184054
0.00017948
0.000177245
0.000173132
0.000171942
0.000168129
0.000168272
0.000164754
0.000166528
0.000500629
0.000483521
0.000466532
0.000450558
0.000434391
0.000419421
0.00040417
0.000390126
0.000375848
0.000362698
0.000349415
0.000337151
0.000324866
0.000313493
0.000302184
0.000291736
0.000281339
0.000271953
0.000262307
0.000253909
0.00024504
0.00023762
0.000229477
0.000223052
0.00021555
0.000210137
0.000203183
0.000198789
0.000192284
0.000188906
0.000182736
0.00018037
0.000174402
0.000173032
0.000167144
0.000166711
0.000160904
0.000161201
0.000155964
0.000155864
0.000484795
0.000468205
0.000451725
0.000436365
0.00042069
0.000406425
0.000391617
0.000378333
0.000364462
0.000352029
0.000339188
0.000327579
0.000315754
0.000305005
0.000294072
0.000284292
0.00027388
0.000265428
0.00025615
0.000248378
0.00023984
0.000233069
0.000225179
0.000219444
0.00021219
0.000207443
0.00020084
0.000196996
0.000191081
0.000188023
0.000182846
0.000180426
0.000176026
0.000174069
0.000170396
0.000168721
0.000165443
0.00016395
0.000159952
0.000159149
0.000470831
0.000454632
0.000438646
0.000423701
0.000408621
0.000394753
0.00038061
0.000367715
0.000354509
0.000342526
0.000330215
0.000319126
0.000307704
0.00029746
0.000286934
0.000277414
0.000267837
0.000259746
0.000250399
0.000243025
0.000234555
0.000228001
0.000220257
0.000214546
0.000207472
0.000202558
0.000196165
0.000191951
0.000186306
0.000182657
0.000177871
0.000174646
0.000170842
0.00016796
0.000165192
0.00016277
0.000160836
0.00015946
0.000157443
0.000159175
0.000456367
0.00044064
0.000425175
0.000410764
0.000396159
0.000382968
0.00036916
0.000357133
0.000344077
0.000332789
0.000320819
0.000310301
0.00029936
0.000289636
0.000279805
0.0002707
0.000260649
0.000253455
0.000245003
0.00023786
0.000229731
0.000223805
0.000216214
0.000211233
0.000204259
0.000200067
0.000193771
0.000190215
0.000184663
0.000181577
0.000176822
0.000174057
0.000170089
0.000167589
0.000164267
0.000162195
0.000159179
0.000158111
0.000154906
0.000156845
0.000443514
0.000428192
0.000413172
0.000399169
0.000385063
0.000372184
0.000358975
0.000347117
0.000334842
0.000323854
0.000312352
0.0003023
0.000291578
0.000282435
0.000272429
0.000264293
0.000254842
0.000247078
0.000238778
0.000232022
0.000224186
0.000218313
0.000211058
0.000205946
0.000199374
0.000194889
0.000189113
0.000185109
0.000180249
0.000176579
0.000172732
0.000169297
0.000166466
0.000163288
0.000161277
0.000158589
0.000156881
0.000155199
0.000152873
0.000153833
0.000430166
0.000415274
0.000400797
0.000387163
0.00037366
0.000361228
0.000348532
0.000337938
0.000325274
0.000314705
0.000303738
0.000293941
0.00028383
0.000274955
0.000265438
0.000257539
0.000248264
0.000241642
0.000233325
0.000227199
0.000219514
0.000214137
0.000207067
0.000202389
0.000196009
0.000191882
0.000186304
0.000182545
0.000177887
0.000174318
0.000170672
0.000167172
0.000164544
0.000161136
0.000159367
0.000156312
0.000154992
0.00015288
0.000151243
0.00015214
0.000418197
0.000403724
0.000389711
0.000376542
0.000363446
0.000351363
0.000339044
0.000328047
0.000316402
0.000306407
0.000295499
0.000286382
0.000276295
0.000267937
0.000258575
0.000250993
0.00024229
0.000235411
0.000227419
0.000221285
0.000213934
0.000208513
0.000201827
0.000197015
0.000191089
0.000186734
0.000181699
0.000177625
0.000173611
0.00016966
0.000166744
0.000162826
0.000160964
0.000157132
0.000156071
0.000152603
0.00015181
0.000149282
0.000147902
0.000148373
0.000405768
0.000391867
0.000378158
0.000365387
0.000352804
0.000340386
0.000329446
0.000320034
0.000307775
0.000297058
0.000287619
0.000278526
0.000269033
0.000261011
0.000251923
0.0002448
0.000236232
0.000229945
0.000222055
0.000216415
0.000209209
0.000204149
0.000197666
0.000193085
0.000187416
0.000183162
0.000178433
0.000174329
0.00017067
0.000166557
0.00016405
0.000159851
0.000158461
0.000154256
0.000153746
0.000149859
0.0001497
0.000146768
0.000146068
0.000146324
0.00039441
0.000380935
0.000367685
0.000355518
0.000343055
0.000332009
0.000320426
0.000310223
0.000299448
0.00029002
0.000280046
0.00027137
0.000261985
0.000254162
0.000245358
0.000238328
0.000230127
0.000223809
0.00021625
0.000210576
0.000203695
0.000198581
0.000192446
0.000187768
0.000182486
0.000178083
0.00017379
0.000169486
0.000166302
0.000161949
0.000159934
0.00015547
0.000154547
0.000150073
0.000149955
0.000145812
0.000145935
0.000142769
0.000142254
0.000142314
0.000383015
0.000369849
0.000357177
0.000345214
0.000333403
0.000322583
0.000311455
0.000302421
0.000291144
0.000282067
0.000272371
0.000263969
0.000255014
0.000247425
0.000239021
0.000232222
0.000224361
0.000218279
0.000211019
0.000205543
0.000198951
0.000193964
0.000188131
0.000183494
0.000178541
0.000174091
0.000170154
0.000165722
0.000162924
0.000158376
0.000156774
0.00015207
0.000151589
0.000146849
0.000147203
0.000142788
0.000143404
0.000139972
0.000139939
0.000139765
0.000372323
0.000359654
0.000347353
0.000335906
0.000324356
0.000313909
0.000303098
0.000293489
0.000283296
0.000274566
0.0002651
0.000257065
0.000248235
0.000240905
0.00023266
0.000226018
0.000218358
0.000212352
0.000205314
0.000199867
0.000193514
0.000188519
0.000182946
0.000178265
0.000173596
0.000169063
0.000165434
0.000160884
0.000158409
0.000153713
0.000152433
0.000147562
0.000147374
0.000142473
0.000143061
0.000138513
0.000139289
0.000135762
0.000135842
0.000135599
0.000361703
0.000349391
0.000337555
0.000326468
0.000315293
0.000305319
0.000294704
0.000285773
0.000275637
0.000267307
0.00025799
0.000250254
0.000241666
0.00023456
0.000226607
0.00022013
0.000212779
0.00020689
0.000200165
0.000194784
0.000188746
0.000183762
0.000178509
0.000173784
0.000169442
0.00016482
0.000161517
0.000156848
0.000154691
0.000149868
0.000148887
0.000143902
0.000143996
0.000138996
0.000139872
0.000135213
0.000136319
0.000132628
0.000133052
0.000132562
0.000351633
0.00033976
0.000328317
0.000317583
0.000306782
0.000296987
0.000286822
0.00027783
0.000268287
0.000260029
0.000251118
0.000243515
0.000235207
0.00022823
0.000220498
0.00021412
0.000206968
0.000201142
0.000194607
0.000189259
0.000183411
0.000178435
0.000173375
0.000168636
0.000164491
0.000159833
0.000156735
0.000152006
0.00015006
0.000145152
0.000144388
0.000139294
0.000139597
0.000134487
0.000135527
0.000130811
0.000131982
0.00012831
0.000128763
0.000128302
0.000341762
0.000330266
0.000319233
0.000308879
0.000298398
0.000289017
0.00027907
0.000270517
0.000261118
0.000253225
0.000244451
0.000237141
0.000228995
0.000222241
0.000214706
0.000208484
0.000201558
0.000195827
0.000189539
0.000184229
0.000178643
0.000173654
0.000168869
0.000164074
0.000160208
0.000155466
0.000152638
0.00014782
0.000146109
0.000141143
0.000140542
0.000135459
0.000135832
0.000130815
0.000131885
0.000127267
0.000128723
0.000124875
0.000125621
0.000124862
0.000332293
0.000321193
0.000310575
0.000300509
0.000290424
0.00028121
0.000271677
0.000263188
0.000254219
0.000246372
0.000237971
0.000230711
0.000222868
0.000216162
0.000208873
0.000202689
0.000195969
0.000190263
0.000184153
0.000178855
0.00017343
0.000168442
0.000163803
0.000159004
0.000155269
0.000150522
0.000147814
0.000142988
0.000141399
0.000136404
0.000135953
0.000130789
0.000131373
0.0001262
0.00012751
0.000122798
0.000124163
0.00012045
0.000121151
0.000120497
0.000323166
0.000312422
0.000302185
0.000292464
0.000282679
0.000273807
0.000264498
0.000256341
0.000247536
0.000239988
0.000231719
0.000224712
0.000216999
0.000210491
0.000203345
0.000197303
0.000190744
0.000185125
0.000179196
0.000173936
0.000168706
0.000163715
0.000159283
0.000154446
0.000150931
0.000146119
0.00014364
0.000138732
0.000137368
0.000132298
0.000132022
0.000126847
0.00012741
0.000122427
0.000123162
0.00011909
0.000121114
0.000116883
0.000117774
0.000116916
0.00031431
0.000303939
0.000294113
0.000284654
0.000275252
0.000266545
0.000257606
0.000249538
0.000241088
0.000233586
0.000225639
0.000218655
0.000211218
0.000204724
0.000197806
0.000191773
0.000185399
0.000179784
0.000174005
0.000168745
0.000163639
0.000158644
0.000154313
0.000149472
0.000146035
0.000141227
0.000138798
0.000133918
0.000132571
0.000127565
0.000127295
0.000122196
0.000122875
0.000117812
0.000119193
0.000113958
0.000116027
0.000112309
0.000113189
0.000112386
0.000305917
0.000295864
0.000286396
0.000277237
0.000268116
0.000259696
0.000250967
0.000243172
0.000234874
0.000227622
0.000219791
0.000213023
0.000205688
0.000199364
0.000192552
0.000186639
0.000180384
0.000174842
0.000169191
0.000163967
0.000158991
0.00015401
0.000149798
0.000144968
0.000141623
0.000136843
0.000134467
0.000129643
0.000128311
0.000123389
0.000123132
0.000118116
0.000118925
0.000113871
0.000115789
0.00011072
0.000111562
0.000108688
0.000109366
0.000108733
0.000297699
0.000288001
0.000278919
0.000270011
0.00026124
0.000252982
0.000244582
0.000236876
0.00022889
0.000221673
0.000214127
0.000207365
0.000200275
0.000193948
0.000187332
0.00018142
0.000175308
0.000169779
0.000164226
0.000159026
0.000154111
0.000149163
0.000144985
0.000140194
0.000136866
0.000132127
0.000129758
0.000124976
0.000123644
0.000118758
0.000118477
0.000113505
0.000114177
0.000109271
0.000110624
0.000106201
0.000107644
0.000104204
0.000105073
0.000104244
0.000290029
0.000280609
0.000271866
0.00026321
0.000254702
0.000246684
0.000238473
0.000230999
0.000223139
0.000216143
0.000208679
0.000202111
0.000195088
0.000188912
0.000182369
0.000176554
0.000170535
0.000165049
0.000159606
0.000154409
0.000149612
0.000144641
0.000140579
0.000135756
0.000132535
0.000127769
0.000125495
0.000120697
0.000119455
0.00011457
0.000114379
0.000109429
0.000110184
0.000105322
0.000106693
0.000102306
0.000103554
0.000100422
0.000101122
0.000100452
0.000282474
0.000273391
0.000264993
0.000256583
0.00024838
0.000240523
0.000232599
0.000225207
0.000217626
0.000210647
0.00020345
0.000196859
0.000190068
0.000183861
0.00017749
0.000171666
0.00016575
0.000160287
0.000154884
0.000149735
0.00014493
0.000140025
0.000135923
0.000131176
0.00012789
0.000123206
0.000120846
0.000116143
0.000114787
0.00011002
0.000109679
0.000104885
0.000105454
0.000100802
0.000102002
9.78394e-05
9.91804e-05
9.60093e-05
9.68394e-05
9.60155e-05
0.00027552
0.000266675
0.0002586
0.000250392
0.000242442
0.000234776
0.000227025
0.000219831
0.000212344
0.000205569
0.000198407
0.00019201
0.000185232
0.000179177
0.000172839
0.000167099
0.000161251
0.000155807
0.0001505
0.000145326
0.000140626
0.000135676
0.000131671
0.00012688
0.000123672
0.000118961
0.000116654
0.000111953
0.000110621
0.000105892
0.000105542
0.000100827
0.000101345
9.6811e-05
9.79137e-05
9.38959e-05
9.5112e-05
9.21156e-05
9.28536e-05
9.20902e-05
0.000268653
0.000260123
0.000252342
0.000244378
0.000236673
0.000229175
0.000221655
0.000214546
0.000207301
0.00020053
0.000193624
0.000187168
0.000180628
0.000174503
0.00016832
0.00016256
0.00015677
0.000151361
0.000146037
0.00014093
0.000136169
0.000131298
0.000127209
0.000122495
0.000119191
0.000114557
0.000112144
0.000107525
0.000106076
0.000101446
0.000100969
9.6377e-05
9.67709e-05
9.23787e-05
9.33897e-05
8.95044e-05
9.07021e-05
8.77804e-05
8.85679e-05
8.77464e-05
0.000262405
0.000254075
0.000246609
0.000238794
0.000231348
0.000223983
0.00021664
0.000209678
0.000202514
0.000195921
0.000189007
0.000182748
0.000176161
0.000170199
0.000164014
0.000158325
0.000152589
0.000147175
0.000141933
0.000136785