/*--------------------------------*- C++ -*----------------------------------*\
| =========                 |                                                 |
| \\      /  F ield         | OpenFOAM: The Open Source CFD Toolbox           |
|  \\    /   O peration     | Version:  v2012                                 |
|   \\  /    A nd           | Website:  www.openfoam.com                      |
|    \\/     M anipulation  |                                                 |
\*---------------------------------------------------------------------------*/
FoamFile
{
    version     2.0;
    format      ascii;
    class       volSymmTensorField;
    location    "20";
    object      sigma;
}
// * * * * * * * * * * * * * * * * * * * * * * * * * * * * * * * * * * * * * //

dimensions      [1 -1 -2 0 0 0 0];


internalField   nonuniform List<symmTensor> 
16000
(
(-2.62475e+08 2.54637e+06 -9.95872e-09 -2.23951e+06 -2.17675e-08 -4.15956e+07)
(-2.60079e+08 2.50468e+06 -8.46681e-08 -4.68143e+06 -1.76487e-08 -3.18366e+07)
(-2.53649e+08 2.12421e+06 5.29363e-09 -7.90854e+06 7.76146e-09 -2.19644e+07)
(-2.31581e+08 1.4884e+06 -1.37619e-07 -9.89738e+06 5.77042e-10 -1.5046e+07)
(-2.10991e+08 949280 6.78609e-08 -1.1743e+07 2.38776e-09 -8.31464e+06)
(-1.91549e+08 491447 -8.80735e-16 -1.21303e+07 3.10101e-15 -1.84287e+06)
(-1.7322e+08 74465 6.39247e-08 -1.28499e+07 -1.70846e-08 4.38876e+06)
(-1.56049e+08 -291782 -4.97407e-09 -1.23699e+07 2.52397e-08 1.0298e+07)
(-1.39555e+08 -613643 4.76595e-08 -1.20927e+07 1.75782e-08 1.60808e+07)
(-1.2421e+08 -910075 9.37937e-08 -1.10159e+07 -1.44448e-08 2.14523e+07)
(-1.09289e+08 -1.16692e+06 4.11233e-08 -9.97223e+06 2.21278e-08 2.67564e+07)
(-9.54389e+07 -1.41224e+06 -3.92729e-08 -8.42633e+06 -1.62138e-09 3.16211e+07)
(-8.18776e+07 -1.62222e+06 4.89447e-16 -6.79998e+06 -5.04625e-15 3.643e+07)
(-6.92832e+07 -1.8307e+06 -1.09828e-09 -4.87218e+06 5.07518e-08 4.07843e+07)
(-5.69021e+07 -2.01065e+06 -9.12264e-08 -2.7926e+06 -3.0748e-08 4.50623e+07)
(-4.53772e+07 -2.18722e+06 1.51214e-10 -546029 -5.49629e-08 4.89063e+07)
(-3.40351e+07 -2.34859e+06 1.53276e-10 1.89046e+06 2.81962e-08 5.26321e+07)
(-2.34384e+07 -2.4987e+06 2.91426e-16 4.40474e+06 5.15888e-15 5.58996e+07)
(-1.30219e+07 -2.63774e+06 1.05679e-16 7.12364e+06 -5.01898e-15 5.90436e+07)
(-3.26345e+06 -2.76817e+06 3.77099e-08 9.84978e+06 3.09211e-08 6.17079e+07)
(6.30998e+06 -2.87237e+06 -1.00535e-09 1.27843e+07 -2.8541e-08 6.41545e+07)
(1.5267e+07 -2.97554e+06 1.16761e-08 1.56546e+07 -5.52144e-08 6.61532e+07)
(2.40293e+07 -3.04056e+06 1.2071e-08 1.87217e+07 7.98499e-10 6.7843e+07)
(3.21897e+07 -3.08884e+06 1.17655e-08 2.1658e+07 2.70024e-08 6.90302e+07)
(4.00933e+07 -3.105e+06 1.99436e-09 2.4741e+07 2.50749e-08 6.9883e+07)
(4.74147e+07 -3.07981e+06 -8.32651e-09 2.7639e+07 -2.40023e-08 7.01399e+07)
(5.43894e+07 -3.01653e+06 8.27984e-09 3.05985e+07 4.2912e-10 7.00741e+07)
(6.07436e+07 -2.9075e+06 3.43919e-09 3.33069e+07 4.00156e-08 6.93599e+07)
(6.67191e+07 -2.73403e+06 -3.86375e-09 3.59845e+07 -1.75367e-08 6.82798e+07)
(7.19459e+07 -2.52444e+06 -6.18933e-09 3.83196e+07 -1.65549e-08 6.66224e+07)
(7.68392e+07 -2.23976e+06 0 4.05338e+07 0 6.4575e+07)
(8.08824e+07 -1.91127e+06 -3.74535e-09 4.23186e+07 -1.09808e-08 6.21302e+07)
(8.46079e+07 -1.53001e+06 -6.37774e-09 4.38786e+07 -1.10252e-09 5.93661e+07)
(8.75517e+07 -1.08901e+06 -3.99028e-09 4.49646e+07 4.99438e-09 5.63544e+07)
(9.00875e+07 -621826 -9.13565e-09 4.57082e+07 -1.47503e-09 5.3222e+07)
(9.21177e+07 -110917 -2.4186e-08 4.59851e+07 -5.41785e-09 5.00013e+07)
(9.37046e+07 417620 -2.27764e-08 4.58332e+07 -3.44777e-09 4.68931e+07)
(9.48524e+07 1.00069e+06 8.20298e-09 4.52332e+07 -2.3321e-09 4.39058e+07)
(9.35185e+07 1.48716e+06 1.02151e-08 4.41516e+07 3.4144e-09 4.1301e+07)
(8.80058e+07 1.75669e+06 -1.72518e-08 4.27241e+07 4.22168e-09 3.9219e+07)
(-2.62166e+08 7.63866e+06 6.28409e-08 -2.554e+06 -7.88011e-09 -4.11165e+07)
(-2.59594e+08 7.50933e+06 -2.5517e-07 -4.80701e+06 -3.73758e-08 -3.12436e+07)
(-2.52252e+08 6.33561e+06 -4.75491e-08 -8.05893e+06 6.33647e-09 -2.16602e+07)
(-2.3033e+08 4.43268e+06 1.40774e-08 -9.80463e+06 2.42156e-09 -1.47223e+07)
(-2.09948e+08 2.81618e+06 4.39474e-08 -1.16436e+07 1.19445e-08 -8.05183e+06)
(-1.90677e+08 1.4554e+06 -3.21586e-15 -1.19123e+07 1.56562e-15 -1.60451e+06)
(-1.72487e+08 212845 1.74713e-08 -1.25929e+07 -1.96341e-08 4.59378e+06)
(-1.55446e+08 -873435 3.88226e-08 -1.20701e+07 3.18833e-08 1.04663e+07)
(-1.39051e+08 -1.83596e+06 -1.18453e-07 -1.17571e+07 3.59328e-08 1.62269e+07)
(-1.23797e+08 -2.71676e+06 9.72005e-08 -1.06642e+07 -6.53607e-09 2.15703e+07)
(-1.08946e+08 -3.49017e+06 8.37638e-09 -9.59211e+06 -4.08334e-08 2.68585e+07)
(-9.51613e+07 -4.22001e+06 -7.52355e-08 -8.03614e+06 -3.28134e-08 3.16942e+07)
(-8.16485e+07 -4.86111e+06 3.37147e-08 -6.38583e+06 2.89539e-08 3.64908e+07)
(-6.90933e+07 -5.47895e+06 -3.16115e-08 -4.44342e+06 -3.00695e-08 4.08312e+07)
(-5.67557e+07 -6.02878e+06 -1.21045e-07 -2.34371e+06 -4.52422e-08 4.50928e+07)
(-4.52516e+07 -6.55852e+06 -2.40263e-10 -82615.8 2.74555e-08 4.89144e+07)
(-3.39457e+07 -7.03435e+06 4.231e-10 2.3739e+06 2.81417e-08 5.26215e+07)
(-2.33791e+07 -7.49211e+06 -4.59341e-08 4.88651e+06 -7.73692e-09 5.58693e+07)
(-1.29876e+07 -7.88917e+06 -1.71766e-08 7.62003e+06 5.37913e-08 5.8955e+07)
(-3.28527e+06 -8.26992e+06 -3.4343e-08 1.032e+07 2.23552e-08 6.1572e+07)
(6.24742e+06 -8.5751e+06 -6.10058e-09 1.32399e+07 -5.67213e-08 6.39558e+07)
(1.51388e+07 -8.84302e+06 -3.71329e-09 1.60613e+07 -2.75451e-08 6.58289e+07)
(2.38041e+07 -9.03444e+06 1.19957e-08 1.90613e+07 2.84405e-09 6.74346e+07)
(3.188e+07 -9.13729e+06 -9.8374e-09 2.19118e+07 -1.94056e-09 6.84368e+07)
(3.96472e+07 -9.163e+06 -6.1107e-09 2.48766e+07 -2.46978e-08 6.9144e+07)
(4.68221e+07 -9.058e+06 1.02089e-09 2.76258e+07 2.17362e-08 6.92275e+07)
(5.36386e+07 -8.83856e+06 7.96325e-09 3.04172e+07 1.70811e-09 6.89086e+07)
(5.97815e+07 -8.47804e+06 -1.75461e-08 3.29126e+07 -3.9206e-08 6.80329e+07)
(6.55629e+07 -7.95831e+06 1.8811e-08 3.53606e+07 3.50592e-08 6.66911e+07)
(7.05757e+07 -7.28875e+06 1.05042e-08 3.74494e+07 1.54427e-08 6.49031e+07)
(7.52315e+07 -6.46393e+06 -2.86259e-08 3.93741e+07 -2.97436e-08 6.26925e+07)
(7.90924e+07 -5.45917e+06 0 4.09124e+07 0 6.01598e+07)
(8.2587e+07 -4.35649e+06 5.06931e-09 4.2166e+07 4.93883e-09 5.73641e+07)
(8.53703e+07 -3.05001e+06 1.94301e-08 4.30469e+07 1.00253e-08 5.43778e+07)
(8.77619e+07 -1.72709e+06 1.94843e-09 4.35342e+07 -3.12048e-10 5.13481e+07)
(8.96783e+07 -243361 -1.01335e-08 4.3701e+07 -4.7532e-09 4.82977e+07)
(9.11126e+07 1.23809e+06 -2.98346e-08 4.34022e+07 -6.5543e-09 4.53888e+07)
(9.24263e+07 2.80672e+06 -1.21137e-08 4.28302e+07 -5.22112e-09 4.26775e+07)
(9.19694e+07 4.29393e+06 3.73895e-08 4.18387e+07 1.57064e-08 4.01424e+07)
(8.72883e+07 5.13903e+06 -1.34035e-08 4.04974e+07 -1.23079e-08 3.83357e+07)
(-2.61527e+08 1.27352e+07 1.29357e-07 -3.19299e+06 2.2406e-08 -4.0109e+07)
(-2.58613e+08 1.23828e+07 -5.1979e-08 -5.0618e+06 -2.10757e-11 -2.99914e+07)
(-2.49397e+08 1.02973e+07 -5.28299e-08 -8.35082e+06 -1.18928e-08 -2.10346e+07)
(-2.27823e+08 7.23168e+06 7.27378e-08 -9.57748e+06 1.27453e-08 -1.40663e+07)
(-2.07872e+08 4.59059e+06 5.31348e-15 -1.14039e+07 -9.30161e-16 -7.52478e+06)
(-1.88956e+08 2.35539e+06 -4.55489e-08 -1.14468e+07 -1.82441e-08 -1.12891e+06)
(-1.71039e+08 333933 -4.32085e-08 -1.20551e+07 -2.1468e-08 5.001e+06)
(-1.54252e+08 -1.45977e+06 1.07511e-07 -1.14559e+07 2.10443e-08 1.08079e+07)
(-1.38047e+08 -3.04165e+06 -1.20361e-07 -1.10724e+07 1.19935e-08 1.65193e+07)
(-1.2297e+08 -4.50672e+06 -1.00933e-07 -9.95041e+06 -4.85428e-10 2.18068e+07)
(-1.08252e+08 -5.78928e+06 1.0656e-07 -8.81941e+06 -4.43969e-08 2.70631e+07)
(-9.45883e+07 -7.00908e+06 3.37539e-08 -7.24507e+06 3.09076e-08 3.18536e+07)
(-8.11734e+07 -8.08068e+06 3.19258e-08 -5.54303e+06 3.26969e-08 3.66155e+07)
(-6.87027e+07 -9.11418e+06 8.74389e-09 -3.58528e+06 -7.66527e-08 4.09149e+07)
(-5.6435e+07 -1.00253e+07 3.04998e-08 -1.43918e+06 7.28609e-09 4.51507e+07)
(-4.50109e+07 -1.09128e+07 -9.92732e-10 827672 5.48041e-08 4.89046e+07)
(-3.37581e+07 -1.16824e+07 2.46876e-08 3.31507e+06 -2.11295e-08 5.25657e+07)
(-2.32787e+07 -1.24352e+07 -2.46654e-08 5.81618e+06 -3.55148e-08 5.57298e+07)
(-1.2965e+07 -1.30666e+07 2.04823e-08 8.54182e+06 5.87841e-09 5.87153e+07)
(-3.35283e+06 -1.36572e+07 -4.68547e-08 1.12002e+07 3.82912e-08 6.11913e+07)
(6.0437e+06 -1.4133e+07 5.21803e-09 1.40531e+07 2.79634e-08 6.34207e+07)
(1.48109e+07 -1.45113e+07 -2.03737e-08 1.67733e+07 -3.22994e-08 6.50691e+07)
(2.32903e+07 -1.47703e+07 -3.11854e-08 1.96353e+07 -3.45621e-08 6.64173e+07)
(3.11549e+07 -1.4879e+07 -9.75727e-09 2.22903e+07 -3.81554e-09 6.71595e+07)
(3.86906e+07 -1.4824e+07 1.07309e-08 2.50275e+07 2.38602e-08 6.74844e+07)
(4.55504e+07 -1.45852e+07 1.77458e-08 2.74687e+07 2.3815e-08 6.72454e+07)
(5.20614e+07 -1.41264e+07 1.37933e-08 2.99221e+07 2.03959e-08 6.65056e+07)
(5.78349e+07 -1.34433e+07 -1.35829e-08 3.20026e+07 -1.88704e-08 6.52986e+07)
(6.32313e+07 -1.25328e+07 -1.75168e-08 3.40081e+07 -2.12859e-08 6.36223e+07)
(6.78626e+07 -1.13418e+07 4.14543e-08 3.56029e+07 3.65796e-08 6.15502e+07)
(7.21093e+07 -9.97721e+06 3.36009e-10 3.70334e+07 2.15267e-10 5.91793e+07)
(7.56085e+07 -8.303e+06 -2.73141e-08 3.80559e+07 -9.47567e-09 5.65166e+07)
(7.87386e+07 -6.55627e+06 -5.53443e-09 3.88847e+07 4.13073e-09 5.37792e+07)
(8.12548e+07 -4.49897e+06 1.83513e-08 3.9283e+07 5.63133e-09 5.09077e+07)
(8.34415e+07 -2.47165e+06 3.56959e-08 3.95201e+07 8.00699e-09 4.81641e+07)
(8.51684e+07 -227276 -6.53242e-09 3.93401e+07 5.20509e-09 4.54327e+07)
(8.65854e+07 1.99032e+06 1.0849e-08 3.90375e+07 7.97532e-09 4.29773e+07)
(8.78384e+07 4.17765e+06 -1.11238e-09 3.83705e+07 7.89449e-09 4.05951e+07)
(8.85871e+07 6.54863e+06 1.20473e-08 3.76369e+07 8.17095e-09 3.85185e+07)
(8.58704e+07 8.09486e+06 4.05848e-08 3.65398e+07 -2.78684e-09 3.67231e+07)
(-2.60506e+08 1.78299e+07 3.6854e-08 -4.0755e+06 7.4135e-09 -3.86009e+07)
(-2.57135e+08 1.70714e+07 1.62627e-07 -5.32145e+06 3.79303e-08 -2.81888e+07)
(-2.4519e+08 1.38656e+07 -4.50612e-10 -8.71677e+06 -5.10775e-11 -2.01032e+07)
(-2.24241e+08 9.78848e+06 1.05969e-07 -9.26756e+06 1.82587e-08 -1.31569e+07)
(-2.04868e+08 6.22149e+06 6.7767e-08 -1.09829e+07 1.71642e-08 -6.76155e+06)
(-1.86461e+08 3.16205e+06 2.46074e-08 -1.07965e+07 -7.72707e-09 -474594)
(-1.68915e+08 429002 -2.08545e-08 -1.12625e+07 1.11868e-08 5.5769e+06)
(-1.52486e+08 -2.04624e+06 3.58342e-08 -1.05762e+07 2.88376e-08 1.12852e+07)
(-1.36547e+08 -4.22374e+06 6.46787e-08 -1.00809e+07 -2.51635e-09 1.69357e+07)
(-1.21719e+08 -6.26084e+06 -1.29466e-07 -8.91089e+06 2.95064e-08 2.21401e+07)
(-1.072e+08 -8.04962e+06 -5.31252e-08 -7.69547e+06 8.99538e-09 2.73437e+07)
(-9.37105e+07 -9.75427e+06 9.46258e-08 -6.08244e+06 -2.05237e-08 3.20725e+07)
(-8.04464e+07 -1.12547e+07 -3.61792e-08 -4.31383e+06 -1.17082e-08 3.67786e+07)
(-6.81129e+07 -1.26997e+07 -2.90127e-08 -2.32624e+06 -3.65016e-08 4.1004e+07)
(-5.59649e+07 -1.39655e+07 9.38202e-08 -133537 6.14479e-09 4.51664e+07)
(-4.46607e+07 -1.51886e+07 2.69062e-08 2.14632e+06 3.75656e-08 4.88322e+07)
(-3.35328e+07 -1.62451e+07 5.03919e-08 4.64321e+06 1.97174e-08 5.23605e+07)
(-2.31673e+07 -1.7243e+07 4.54843e-08 7.1241e+06 1.86249e-08 5.53777e+07)
(-1.3014e+07 -1.80848e+07 2.03968e-08 9.80067e+06 9.10718e-09 5.81725e+07)
(-3.54764e+06 -1.88247e+07 5.91441e-11 1.23723e+07 2.79387e-10 6.04048e+07)
(5.64533e+06 -1.94004e+07 -1.56769e-08 1.50984e+07 -7.01694e-09 6.23348e+07)
(1.41787e+07 -1.98246e+07 -4.25716e-08 1.76207e+07 -8.54881e-08 6.36577e+07)
(2.23939e+07 -2.0043e+07 -2.26349e-08 2.02536e+07 -1.05123e-08 6.45789e+07)
(2.99144e+07 -2.0058e+07 4.61477e-08 2.25659e+07 5.60305e-08 6.48834e+07)
(3.7078e+07 -1.98145e+07 2.30738e-08 2.49414e+07 2.49817e-08 6.47399e+07)
(4.35137e+07 -1.93087e+07 2.82053e-08 2.68881e+07 2.30345e-08 6.39769e+07)
(4.95225e+07 -1.8515e+07 0 2.88426e+07 0 6.28362e+07)
(5.48244e+07 -1.74056e+07 2.17047e-08 3.02943e+07 1.89238e-08 6.11191e+07)
(5.96485e+07 -1.60298e+07 -4.69437e-08 3.17167e+07 -2.5675e-08 5.91894e+07)
(6.38045e+07 -1.43145e+07 -5.38514e-08 3.26013e+07 -3.06414e-08 5.68079e+07)
(6.75266e+07 -1.24046e+07 -1.37855e-08 3.34576e+07 8.31633e-09 5.44264e+07)
(7.0663e+07 -1.02472e+07 -5.34143e-08 3.37936e+07 -1.79105e-08 5.17879e+07)
(7.33998e+07 -7.87843e+06 7.07544e-08 3.41478e+07 1.27373e-08 4.93126e+07)
(7.56465e+07 -5.37648e+06 7.57197e-08 3.40062e+07 1.71011e-08 4.6754e+07)
(7.76688e+07 -2.80055e+06 1.80698e-08 3.40097e+07 1.97142e-08 4.44937e+07)
(7.9218e+07 -165249 -2.1547e-08 3.35036e+07 -3.26285e-09 4.22254e+07)
(8.07845e+07 2.45886e+06 -3.83478e-08 3.33034e+07 -4.52342e-09 4.03004e+07)
(8.17913e+07 5.00236e+06 -2.83713e-10 3.25839e+07 -2.6e-11 3.83081e+07)
(8.32264e+07 7.62687e+06 1.39235e-08 3.22306e+07 8.4495e-10 3.67296e+07)
(8.3555e+07 9.86717e+06 1.18394e-08 3.14843e+07 1.03848e-08 3.4845e+07)
(-2.59088e+08 2.28054e+07 -8.02686e-08 -5.2511e+06 -8.25743e-09 -3.64415e+07)
(-2.54989e+08 2.1469e+07 1.34713e-07 -5.39896e+06 3.30417e-08 -2.55767e+07)
(-2.39659e+08 1.69396e+07 -2.04805e-07 -9.02778e+06 -5.15613e-08 -1.88405e+07)
(-2.19665e+08 1.20448e+07 -4.28357e-08 -8.74398e+06 1.67888e-09 -1.19766e+07)
(-2.01022e+08 7.69473e+06 1.0366e-07 -1.02902e+07 1.66281e-08 -5.76466e+06)
(-1.83258e+08 3.88062e+06 1.2437e-10 -9.92758e+06 -3.89998e-08 346502)
(-1.66162e+08 492208 1.16339e-07 -1.01812e+07 4.03003e-08 6.30704e+06)
(-1.50171e+08 -2.63223e+06 -1.85055e-07 -9.43173e+06 -4.2831e-08 1.18751e+07)
(-1.34558e+08 -5.38507e+06 6.96402e-08 -8.77447e+06 8.08283e-10 1.7454e+07)
(-1.20043e+08 -7.98105e+06 -2.96139e-08 -7.55807e+06 -3.69702e-08 2.25506e+07)
(-1.05771e+08 -1.02684e+07 -2.25975e-07 -6.21956e+06 -6.26415e-08 2.76801e+07)
(-9.25184e+07 -1.24526e+07 -5.01189e-08 -4.56831e+06 7.15942e-09 3.23085e+07)
(-7.94506e+07 -1.43727e+07 5.27732e-08 -2.70805e+06 -3.41603e-08 3.69336e+07)
(-6.73129e+07 -1.62157e+07 -5.70507e-09 -702058 2.51076e-08 4.10375e+07)
(-5.5342e+07 -1.78207e+07 2.32607e-08 1.54032e+06 6.72893e-08 4.50677e+07)
(-4.42165e+07 -1.935e+07 5.40284e-08 3.80107e+06 5.38068e-08 4.85593e+07)
(-3.32784e+07 -2.06535e+07 -4.99825e-08 6.28583e+06 -2.45083e-08 5.18893e+07)
(-2.31125e+07 -2.18556e+07 -6.68098e-09 8.67974e+06 -5.48996e-08 5.46311e+07)
(-1.31807e+07 -2.28262e+07 -5.14897e-08 1.12606e+07 -7.61608e-08 5.71086e+07)
(-3.98247e+06 -2.36547e+07 5.2524e-08 1.36404e+07 2.80684e-08 5.89587e+07)
(4.9258e+06 -2.42139e+07 -4.54988e-08 1.61525e+07 -2.47336e-08 6.0437e+07)
(1.30997e+07 -2.45859e+07 -4.05699e-08 1.83495e+07 -5.71818e-08 6.1243e+07)
(2.09141e+07 -2.46275e+07 7.5328e-08 2.06075e+07 6.79108e-08 6.16261e+07)
(2.79801e+07 -2.44292e+07 5.95931e-08 2.24436e+07 6.70552e-08 6.13168e+07)
(3.46262e+07 -2.38544e+07 2.89614e-08 2.42726e+07 2.21528e-08 6.06376e+07)
(4.05081e+07 -2.29876e+07 -7.44037e-09 2.55933e+07 1.26031e-09 5.93135e+07)
(4.59477e+07 -2.1738e+07 -6.00489e-08 2.68723e+07 -2.84956e-08 5.77616e+07)
(5.06565e+07 -2.01845e+07 -6.10245e-08 2.76001e+07 -2.98321e-08 5.5699e+07)
(5.49526e+07 -1.8299e+07 3.65615e-08 2.83085e+07 3.11636e-08 5.36424e+07)
(5.85743e+07 -1.61256e+07 -2.80062e-09 2.847e+07 -7.55137e-09 5.12632e+07)
(6.20215e+07 -1.37525e+07 -3.3465e-08 2.86736e+07 -9.74699e-09 4.91197e+07)
(6.46175e+07 -1.11705e+07 6.00101e-08 2.84505e+07 6.53484e-09 4.68008e+07)
(6.71004e+07 -8.49616e+06 -5.89467e-08 2.83534e+07 -5.06401e-08 4.47752e+07)
(6.91984e+07 -5.76455e+06 -6.0284e-08 2.7905e+07 -1.21913e-08 4.28046e+07)
(7.11394e+07 -2.96758e+06 5.48767e-08 2.76638e+07 1.01461e-08 4.10634e+07)
(7.27524e+07 -292905 2.51948e-08 2.71778e+07 4.40119e-09 3.93831e+07)
(7.43796e+07 2.44654e+06 9.86281e-09 2.69462e+07 1.2042e-08 3.78661e+07)
(7.55868e+07 5.00738e+06 -2.96994e-08 2.65057e+07 -1.49913e-08 3.63596e+07)
(7.70318e+07 7.54793e+06 -6.40018e-09 2.63335e+07 9.63629e-09 3.49611e+07)
(7.79024e+07 1.00842e+07 1.43103e-08 2.59924e+07 1.67891e-09 3.34565e+07)
(-2.57118e+08 2.76763e+07 -1.42791e-07 -6.36281e+06 -1.24833e-08 -3.37982e+07)
(-2.51682e+08 2.53217e+07 -1.04348e-07 -5.65268e+06 -6.036e-08 -2.30375e+07)
(-2.33431e+08 1.93426e+07 1.36905e-07 -9.05728e+06 2.98786e-08 -1.73779e+07)
(-2.14436e+08 1.39532e+07 -1.74228e-07 -8.24609e+06 -2.1747e-08 -1.07181e+07)
(-1.96495e+08 9.02646e+06 -2.28868e-08 -9.47095e+06 -3.54312e-08 -4.64673e+06)
(-1.7942e+08 4.53595e+06 9.19201e-10 -8.96309e+06 -2.46333e-10 1.25828e+06)
(-1.62818e+08 543383 1.49728e-07 -8.93532e+06 3.67815e-08 7.12347e+06)
(-1.47312e+08 -3.19741e+06 1.08936e-07 -8.09748e+06 4.71831e-08 1.25323e+07)
(-1.32081e+08 -6.51159e+06 -7.51299e-08 -7.23679e+06 -4.07002e-09 1.80193e+07)
(-1.17928e+08 -9.65135e+06 6.30188e-08 -5.94404e+06 -6.11422e-08 2.29866e+07)
(-1.03966e+08 -1.24262e+07 6.81888e-08 -4.46092e+06 6.31832e-08 2.80125e+07)
(-9.10026e+07 -1.50721e+07 -9.43091e-08 -2.75536e+06 7.42238e-08 3.24982e+07)
(-7.82045e+07 -1.73908e+07 -1.07905e-08 -807843 2.53605e-08 3.69709e+07)
(-6.63193e+07 -1.95987e+07 4.03664e-08 1.208e+06 -7.29438e-09 4.08829e+07)
(-5.46071e+07 -2.15044e+07 -6.47539e-08 3.46889e+06 -7.37049e-09 4.46933e+07)
(-4.37358e+07 -2.32882e+07 2.75945e-09 5.66604e+06 -5.34022e-08 4.79011e+07)
(-3.30755e+07 -2.47746e+07 -5.26885e-08 8.07812e+06 -8.41529e-08 5.0885e+07)
(-2.32054e+07 -2.61073e+07 -4.40197e-08 1.03047e+07 -2.70794e-08 5.32086e+07)
(-1.36034e+07 -2.71209e+07 6.3317e-08 1.2688e+07 1.02353e-07 5.52111e+07)
(-4.77941e+06 -2.7927e+07 5.48554e-09 1.47648e+07 -1.42471e-08 5.6486e+07)
(3.71268e+06 -2.83727e+07 -6.21771e-08 1.69144e+07 -9.80263e-08 5.73537e+07)
(1.1406e+07 -2.85421e+07 7.72206e-08 1.8646e+07 9.22606e-08 5.74993e+07)
(1.87067e+07 -2.83047e+07 4.27168e-08 2.03507e+07 3.02227e-08 5.72152e+07)
(2.51937e+07 -2.77418e+07 -3.4184e-08 2.15641e+07 -2.15752e-08 5.63076e+07)
(3.12444e+07 -2.67437e+07 -3.04709e-08 2.26668e+07 -1.79325e-08 5.50653e+07)
(3.65111e+07 -2.54141e+07 -7.07355e-08 2.3265e+07 -2.96162e-08 5.33959e+07)
(4.13391e+07 -2.36873e+07 6.94782e-08 2.3736e+07 4.44176e-08 5.15575e+07)
(4.55042e+07 -2.16709e+07 -6.88856e-10 2.37545e+07 -7.16401e-09 4.95863e+07)
(4.92261e+07 -1.93624e+07 -4.40003e-08 2.3715e+07 -2.92194e-08 4.76095e+07)
(5.24647e+07 -1.68001e+07 3.8483e-08 2.33006e+07 1.00357e-08 4.57175e+07)
(5.54551e+07 -1.42389e+07 -4.81273e-08 2.30292e+07 -3.16587e-08 4.39214e+07)
(5.80594e+07 -1.15794e+07 6.81287e-08 2.24673e+07 3.92915e-09 4.21364e+07)
(6.0476e+07 -8.79192e+06 7.74799e-08 2.2126e+07 2.75062e-08 4.08071e+07)
(6.24767e+07 -6.04232e+06 -4.7307e-08 2.15392e+07 -3.2485e-08 3.93928e+07)
(6.45977e+07 -3.37299e+06 -1.57662e-08 2.1326e+07 -2.58782e-08 3.82051e+07)
(6.62427e+07 -745812 -4.65479e-08 2.08875e+07 1.4552e-09 3.69739e+07)
(6.80123e+07 1.81884e+06 -2.51272e-08 2.07895e+07 -5.22593e-09 3.5844e+07)
(6.94232e+07 4.30534e+06 -1.89877e-10 2.0537e+07 -3.92405e-11 3.46167e+07)
(7.0835e+07 6.74156e+06 -9.97246e-09 2.05382e+07 -1.29967e-08 3.34616e+07)
(7.21544e+07 9.1068e+06 4.19332e-08 2.04189e+07 9.44929e-09 3.21964e+07)
(-2.54373e+08 3.23035e+07 -7.82633e-09 -6.88067e+06 -1.49999e-08 -3.07323e+07)
(-2.45308e+08 2.84034e+07 -2.4299e-07 -6.69798e+06 -7.7018e-08 -2.18853e+07)
(-2.26931e+08 2.14844e+07 -5.74723e-08 -8.6431e+06 4.36531e-08 -1.57885e+07)
(-2.08938e+08 1.5574e+07 2.0608e-07 -8.16399e+06 6.36362e-08 -9.61406e+06)
(-1.91444e+08 1.01439e+07 -6.72285e-08 -8.6193e+06 -3.34237e-08 -3.49367e+06)
(-1.7506e+08 5.05063e+06 -4.84072e-08 -8.07344e+06 1.28884e-08 2.1527e+06)
(-1.58921e+08 496051 -1.99234e-07 -7.61602e+06 -2.97347e-08 7.95838e+06)
(-1.43933e+08 -3.80997e+06 2.85636e-07 -6.66631e+06 8.11687e-08 1.31859e+07)
(-1.29112e+08 -7.65754e+06 4.22865e-08 -5.5335e+06 -8.66108e-08 1.857e+07)
(-1.1538e+08 -1.13017e+07 -5.17209e-08 -4.14518e+06 4.28359e-08 2.33574e+07)
(-1.0178e+08 -1.45349e+07 -7.03003e-10 -2.48927e+06 7.58054e-10 2.82282e+07)
(-8.91825e+07 -1.7599e+07 5.61371e-08 -738998 -5.01914e-10 3.249e+07)
(-7.67213e+07 -2.02744e+07 -7.15983e-08 1.2887e+06 -4.50907e-08 3.67305e+07)
(-6.51763e+07 -2.27955e+07 -2.38765e-08 3.27592e+06 -4.69965e-08 4.03401e+07)
(-5.38015e+07 -2.49373e+07 -6.44193e-08 5.51164e+06 -1.3573e-08 4.3794e+07)
(-4.32853e+07 -2.69053e+07 -5.46144e-08 7.57667e+06 -1.01649e-08 4.65579e+07)
(-3.29927e+07 -2.84906e+07 -6.54297e-09 9.83229e+06 -5.15948e-08 4.90308e+07)
(-2.35325e+07 -2.985e+07 -5.96643e-09 1.17857e+07 3.61388e-08 5.07671e+07)
(-1.43761e+07 -3.07992e+07 4.92762e-08 1.38391e+07 4.95072e-08 5.21003e+07)
(-6.05114e+06 -3.14476e+07 -8.11742e-08 1.54607e+07 -7.64846e-08 5.26518e+07)
(1.88588e+06 -3.16482e+07 -2.12405e-08 1.70787e+07 -2.1391e-08 5.28055e+07)
(8.97835e+06 -3.14731e+07 -4.09637e-15 1.81552e+07 -3.1686e-15 5.22214e+07)
(1.56379e+07 -3.0841e+07 1.47592e-08 1.91549e+07 1.50331e-08 5.13461e+07)
(2.14665e+07 -2.97983e+07 3.51088e-08 1.95671e+07 1.66842e-08 4.99331e+07)
(2.68622e+07 -2.83477e+07 4.18685e-08 1.98893e+07 1.10552e-08 4.84172e+07)
(3.15295e+07 -2.6536e+07 -1.20496e-07 1.96888e+07 -5.26356e-08 4.66438e+07)
(3.5807e+07 -2.44261e+07 -4.04262e-10 1.9454e+07 -1.13346e-10 4.49895e+07)
(3.95191e+07 -2.20825e+07 1.33525e-07 1.88514e+07 4.30118e-08 4.33255e+07)
(4.28515e+07 -1.95514e+07 8.0578e-10 1.83146e+07 1.86331e-10 4.18591e+07)
(4.59995e+07 -1.70223e+07 3.92157e-10 1.76085e+07 8.641e-11 4.05217e+07)
(4.93326e+07 -1.4439e+07 -1.30841e-08 1.71153e+07 -1.67922e-08 3.92789e+07)
(5.14185e+07 -1.17876e+07 -4.44704e-08 1.64209e+07 -2.16302e-08 3.83482e+07)
(5.37515e+07 -9.11303e+06 5.75677e-09 1.60217e+07 1.3184e-08 3.752e+07)
(5.60306e+07 -6.62692e+06 2.73933e-08 1.55495e+07 -5.56436e-09 3.65733e+07)
(5.81808e+07 -4.12208e+06 -2.42662e-08 1.54014e+07 5.9815e-09 3.57785e+07)
(5.99959e+07 -1.66225e+06 -2.95666e-08 1.50708e+07 -7.18054e-09 3.48189e+07)
(6.1832e+07 715378 1.86721e-08 1.51178e+07 -6.93702e-09 3.39643e+07)
(6.33297e+07 3.10038e+06 2.08536e-10 1.49136e+07 5.16067e-11 3.29328e+07)
(6.49126e+07 5.39598e+06 -4.97453e-08 1.5106e+07 -4.62718e-08 3.20055e+07)
(6.61533e+07 7.64936e+06 -2.82219e-08 1.50046e+07 -8.61828e-09 3.08957e+07)
(-2.51103e+08 3.64495e+07 8.53479e-08 -7.11105e+06 1.55258e-08 -2.70558e+07)
(-2.38176e+08 3.10065e+07 8.44451e-08 -7.65278e+06 9.02447e-08 -2.05194e+07)
(-2.19861e+08 2.35044e+07 -3.08168e-07 -8.12142e+06 -2.1796e-08 -1.40636e+07)
(-2.02905e+08 1.70169e+07 -8.34615e-10 -7.9558e+06 1.15835e-10 -8.39873e+06)
(-1.85916e+08 1.10235e+07 2.55276e-07 -7.7131e+06 1.03222e-09 -2.30055e+06)
(-1.70186e+08 5.41091e+06 -6.94456e-08 -7.07855e+06 -9.01405e-08 3.07669e+06)
(-1.54543e+08 314611 -2.03956e-07 -6.20693e+06 1.61992e-08 8.76703e+06)
(-1.40075e+08 -4.49393e+06 -2.58747e-07 -5.10119e+06 -1.16655e-07 1.37777e+07)
(-1.25712e+08 -8.82621e+06 2.09168e-07 -3.69502e+06 1.42718e-09 1.89879e+07)
(-1.12439e+08 -1.29193e+07 6.1862e-08 -2.19534e+06 -4.51234e-08 2.35289e+07)
(-9.92725e+07 -1.65536e+07 -1.34685e-07 -380551 -1.11923e-08 2.81458e+07)
(-8.71043e+07 -1.99751e+07 -7.91391e-08 1.39633e+06 2.20799e-08 3.20824e+07)
(-7.5068e+07 -2.29451e+07 1.48043e-08 3.46455e+06 -2.51157e-08 3.59523e+07)
(-6.39465e+07 -2.57022e+07 4.19501e-08 5.37011e+06 -1.8245e-09 3.90972e+07)
(-5.30197e+07 -2.80021e+07 5.82372e-08 7.50406e+06 4.29586e-08 4.20113e+07)
(-4.29521e+07 -3.00544e+07 -2.59943e-08 9.34587e+06 -1.94835e-08 4.41454e+07)
(-3.31683e+07 -3.1627e+07 -6.56953e-09 1.13177e+07 -2.43926e-08 4.59157e+07)
(-2.42312e+07 -3.28825e+07 4.43506e-08 1.28549e+07 6.00846e-08 4.68805e+07)
(-1.56734e+07 -3.36176e+07 -1.57038e-08 1.44045e+07 -3.06207e-10 4.73986e+07)
(-7.97406e+06 -3.39696e+07 -5.80627e-08 1.53881e+07 -5.26313e-08 4.71924e+07)
(-720360 -3.3767e+07 -5.24203e-08 1.62942e+07 -2.74339e-08 4.66143e+07)
(5.68769e+06 -3.31665e+07 7.83345e-08 1.65621e+07 3.42776e-08 4.54934e+07)
(1.16476e+07 -3.20422e+07 3.95387e-08 1.67549e+07 1.48403e-08 4.42372e+07)
(1.68367e+07 -3.05741e+07 9.03438e-08 1.6331e+07 2.1849e-08 4.27034e+07)
(2.16649e+07 -2.8712e+07 4.2749e-08 1.59537e+07 2.67691e-08 4.13053e+07)
(2.58514e+07 -2.66268e+07 -1.42622e-07 1.50701e+07 -3.32185e-08 3.98685e+07)
(2.98172e+07 -2.43195e+07 -5.12607e-08 1.44154e+07 -4.27301e-08 3.8759e+07)
(3.32622e+07 -2.19345e+07 4.35477e-09 1.33997e+07 2.37884e-08 3.76483e+07)
(3.66769e+07 -1.94887e+07 -4.23553e-09 1.27697e+07 -1.28557e-08 3.69122e+07)
(3.96281e+07 -1.71112e+07 1.37999e-07 1.19107e+07 4.12922e-08 3.61253e+07)
(4.25428e+07 -1.46039e+07 3.83737e-10 1.14219e+07 8.43638e-11 3.56705e+07)
(4.50944e+07 -1.21647e+07 -3.47729e-08 1.07787e+07 3.98992e-09 3.51584e+07)
(4.76185e+07 -9.82298e+06 6.95327e-08 1.05248e+07 4.72091e-09 3.46104e+07)
(4.99067e+07 -7.53047e+06 -2.84875e-08 1.01561e+07 4.8146e-09 3.39972e+07)
(5.20453e+07 -5.17968e+06 -3.32184e-08 1.0055e+07 -8.64012e-09 3.34215e+07)
(5.3941e+07 -2.91244e+06 -7.13771e-09 9.83846e+06 -1.36866e-08 3.26807e+07)
(5.58092e+07 -620006 -2.84903e-08 9.90045e+06 -7.73583e-09 3.20232e+07)
(5.73763e+07 1.58059e+06 6.0689e-08 9.7936e+06 2.83884e-08 3.12164e+07)
(5.9009e+07 3.81701e+06 -8.12009e-09 1.00006e+07 -1.38575e-08 3.04808e+07)
(6.03723e+07 5.91466e+06 -3.57444e-08 9.99119e+06 1.81347e-09 2.9589e+07)
(-2.46501e+08 3.98365e+07 -2.42018e-09 -7.79519e+06 2.49227e-10 -2.39918e+07)
(-2.30331e+08 3.2893e+07 2.59792e-07 -8.43161e+06 8.9386e-08 -1.89185e+07)
(-2.1247e+08 2.51309e+07 -7.88957e-08 -7.95472e+06 -4.71597e-08 -1.24087e+07)
(-1.964e+08 1.82044e+07 -3.71146e-07 -7.74875e+06 -1.71237e-07 -7.13477e+06)
(-1.79942e+08 1.16614e+07 2.77313e-07 -6.93652e+06 5.7743e-08 -1.1502e+06)
(-1.64864e+08 5.5779e+06 1.27023e-07 -6.08028e+06 2.50931e-08 3.94231e+06)
(-1.49722e+08 -21746 1.75386e-07 -4.79633e+06 1.23207e-07 9.4477e+06)
(-1.35811e+08 -5.27248e+06 -2.10515e-07 -3.48346e+06 -9.67289e-08 1.41663e+07)
(-1.2193e+08 -1.00268e+07 -4.29257e-08 -1.79889e+06 2.28921e-08 1.9108e+07)
(-1.09173e+08 -1.44932e+07 1.16965e-07 -185718 -1.20053e-08 2.32865e+07)
(-9.64929e+07 -1.84558e+07 1.55224e-07 1.76798e+06 7.38798e-08 2.75125e+07)
(-8.48297e+07 -2.21507e+07 1.6645e-08 3.52956e+06 5.44559e-08 3.09567e+07)
(-7.32998e+07 -2.53316e+07 3.83368e-08 5.58545e+06 1.04964e-07 3.42635e+07)
(-6.27058e+07 -2.82235e+07 2.22982e-08 7.31492e+06 4.97294e-08 3.6734e+07)
(-5.23297e+07 -3.05758e+07 5.78222e-08 9.24973e+06 2.10774e-08 3.89019e+07)
(-4.28549e+07 -3.25791e+07 1.94884e-08 1.07064e+07 -3.71573e-09 4.01905e+07)
(-3.36985e+07 -3.39979e+07 2.12068e-08 1.22396e+07 1.55931e-08 4.10964e+07)
(-2.54552e+07 -3.49947e+07 3.57714e-08 1.31431e+07 2.35246e-08 4.11614e+07)
(-1.75983e+07 -3.53703e+07 -3.09828e-09 1.40085e+07 1.91545e-09 4.09002e+07)
(-1.06651e+07 -3.52974e+07 -6.5643e-08 1.41577e+07 -3.16282e-08 4.00121e+07)
(-4.12047e+06 -3.46293e+07 -2.1295e-08 1.42369e+07 -1.34639e-08 3.90032e+07)
(1.57123e+06 -3.35813e+07 9.43201e-08 1.36489e+07 2.21705e-08 3.76951e+07)
(6.93104e+06 -3.2057e+07 4.34226e-08 1.30731e+07 1.71551e-08 3.65456e+07)
(1.16018e+07 -3.03086e+07 -4.7266e-08 1.20037e+07 -1.85148e-08 3.53649e+07)
(1.60475e+07 -2.82639e+07 -3.37558e-09 1.11124e+07 2.99356e-08 3.45379e+07)
(1.99787e+07 -2.61592e+07 1.02195e-07 9.92131e+06 1.89835e-08 3.37793e+07)
(2.37794e+07 -2.39218e+07 -1.01165e-07 9.06946e+06 -3.07879e-08 3.33487e+07)
(2.7226e+07 -2.17341e+07 4.82631e-08 8.04114e+06 9.42749e-09 3.29313e+07)
(3.05677e+07 -1.95035e+07 4.80767e-08 7.43507e+06 9.87844e-09 3.27582e+07)
(3.35962e+07 -1.73163e+07 -4.0617e-08 6.65308e+06 3.30898e-09 3.25075e+07)
(3.67089e+07 -1.51558e+07 8.83595e-09 6.29852e+06 2.6395e-08 3.23766e+07)
(3.91398e+07 -1.29675e+07 -5.09356e-09 5.75796e+06 -1.33012e-08 3.20434e+07)
(4.16764e+07 -1.07838e+07 1.67923e-08 5.61216e+06 4.02682e-08 3.17579e+07)
(4.39257e+07 -8.65145e+06 1.75249e-08 5.24592e+06 4.03544e-08 3.13385e+07)
(4.60981e+07 -6.44272e+06 3.40683e-08 5.23556e+06 9.43433e-09 3.09722e+07)
(4.80016e+07 -4.34356e+06 -2.4928e-08 5.01228e+06 4.62648e-09 3.04208e+07)
(4.99445e+07 -2.17486e+06 -1.52745e-08 5.15157e+06 1.89464e-08 2.99648e+07)
(5.15381e+07 -116944 2.0256e-08 5.04473e+06 -5.59727e-09 2.93541e+07)
(5.32664e+07 1.99584e+06 -1.0304e-08 5.31644e+06 2.01285e-08 2.88528e+07)
(5.46656e+07 3.96882e+06 -6.64255e-09 5.32405e+06 1.21508e-08 2.8145e+07)
(-2.38611e+08 4.25165e+07 -2.0594e-07 -9.04984e+06 2.71652e-08 -2.24103e+07)
(-2.22466e+08 3.46025e+07 -8.47344e-08 -9.14906e+06 -5.20714e-08 -1.73103e+07)
(-2.04968e+08 2.64299e+07 1.9905e-07 -8.32678e+06 -9.4758e-08 -1.09241e+07)
(-1.89494e+08 1.90352e+07 -3.27033e-07 -7.64591e+06 -1.12493e-09 -5.86088e+06)
(-1.73599e+08 1.19648e+07 -1.57338e-07 -6.35394e+06 3.83961e-08 -88444.2)
(-1.59146e+08 5.4558e+06 1.26208e-07 -5.11782e+06 9.62762e-08 4.69423e+06)
(-1.44566e+08 -574934 1.20576e-07 -3.44013e+06 2.42331e-08 9.8836e+06)
(-1.31229e+08 -6.18313e+06 1.65379e-07 -1.87127e+06 -2.8165e-09 1.4197e+07)
(-1.17894e+08 -1.12604e+07 -1.46809e-07 64601.3 -5.88339e-08 1.86894e+07)
(-1.05683e+08 -1.60016e+07 -3.96286e-08 1.7901e+06 2.4465e-08 2.23285e+07)
(-9.35609e+07 -2.01789e+07 -6.3609e-08 3.82914e+06 4.94807e-08 2.59305e+07)
(-8.24598e+07 -2.40416e+07 5.11256e-08 5.53676e+06 8.95992e-08 2.86532e+07)
(-7.15367e+07 -2.7303e+07 1.4257e-08 7.47624e+06 -2.27707e-08 3.11365e+07)
(-6.15645e+07 -3.02003e+07 -2.38132e-08 8.93308e+06 -4.70717e-08 3.27058e+07)
(-5.18826e+07 -3.24425e+07 -2.57921e-08 1.04877e+07 -2.07879e-08 3.39021e+07)
(-4.31262e+07 -3.42359e+07 1.01971e-08 1.13878e+07 -2.12367e-09 3.42264e+07)
(-3.47565e+07 -3.53261e+07 1.83955e-08 1.2246e+07 1.18955e-08 3.421e+07)
(-2.7308e+07 -3.59215e+07 -1.3718e-08 1.23302e+07 -7.12101e-09 3.35191e+07)
(-2.02664e+07 -3.58396e+07 -3.67791e-08 1.23273e+07 -1.27939e-08 3.27255e+07)
(-1.40834e+07 -3.53138e+07 4.23342e-08 1.15738e+07 1.08984e-08 3.15932e+07)
(-8.24204e+06 -3.42585e+07 1.36306e-08 1.0842e+07 -8.38231e-09 3.06727e+07)
(-3.10678e+06 -3.29075e+07 -5.53429e-08 9.53307e+06 -1.74917e-09 2.97255e+07)
(1.80812e+06 -3.12423e+07 5.25264e-08 8.45242e+06 8.18169e-09 2.9182e+07)
(6.18844e+06 -2.94664e+07 -1.0257e-09 7.01934e+06 1.05643e-08 2.87238e+07)
(1.04614e+07 -2.75499e+07 -1.52201e-14 5.99218e+06 -2.55304e-15 2.86517e+07)
(1.43129e+07 -2.56513e+07 5.40928e-08 4.76277e+06 3.28844e-08 2.85705e+07)