/*--------------------------------*- C++ -*----------------------------------*\
| =========                 |                                                 |
| \\      /  F ield         | OpenFOAM: The Open Source CFD Toolbox           |
|  \\    /   O peration     | Version:  v2012                                 |
|   \\  /    A nd           | Website:  www.openfoam.com                      |
|    \\/     M anipulation  |                                                 |
\*---------------------------------------------------------------------------*/
FoamFile
{
    version     2.0;
    format      ascii;
    class       volVectorField;
    location    "5";
    object      D;
}
// * * * * * * * * * * * * * * * * * * * * * * * * * * * * * * * * * * * * * //

dimensions      [0 1 0 0 0 0 0];


internalField   nonuniform List<vector> 
1896
(
(0.00240146 -3.1471e-05 0)
(0.00224732 -0.000182131 0)
(0.00234881 -1.0569e-05 0)
(0.000546489 -0.000826898 0)
(0.00236718 -2.94678e-05 0)
(0.0023445 -3.21213e-05 0)
(0.000498287 -0.00086771 0)
(0.00218184 -3.17242e-05 0)
(0.00151656 -0.000140353 0)
(0.00217048 -2.17167e-05 0)
(0.00243264 -4.97769e-06 0)
(0.00188061 -2.18267e-05 0)
(0.00195549 -1.47684e-05 0)
(0.00189785 -1.86752e-05 0)
(0.000607348 -0.000761215 0)
(0.000208087 -0.00109499 0)
(0.0019589 -0.000224869 0)
(0.000395408 -0.000963981 0)
(0.00182174 -0.000197347 0)
(0.00115323 -0.000592527 0)
(0.00173766 -0.000161847 0)
(0.00218157 -0.000133437 0)
(0.000936223 -0.000465683 0)
(0.000885525 -0.000498944 0)
(0.002166 -0.000185284 0)
(0.00219099 -0.000177079 0)
(0.00195619 -1.03806e-05 0)
(0.0019922 -1.15454e-05 0)
(0.00241566 -2.71658e-05 0)
(0.00161965 -0.000196372 0)
(0.00165263 -0.000187858 0)
(0.00223727 -0.000220441 0)
(0.00184457 -1.60881e-05 0)
(0.00225254 -0.000188688 0)
(0.00126687 -0.000353749 0)
(0.00246205 -3.1099e-05 0)
(0.00170756 -0.0001831 0)
(0.00235001 -0.000117686 0)
(0.000348309 -0.000994797 0)
(0.00156785 -0.000201255 0)
(0.00221428 -0.000248822 0)
(0.000874125 -0.0006868 0)
(0.00170525 -0.000119681 0)
(0.00101823 -0.000431803 0)
(0.00198644 -8.21792e-06 0)
(0.0019684 -7.13184e-06 0)
(0.00054821 -0.00081428 0)
(0.00243348 -1.31095e-05 0)
(0.000930635 -0.000476734 0)
(0.000490533 -0.000856525 0)
(0.00233991 -1.50883e-05 0)
(0.00224509 -3.32629e-05 0)
(0.00222504 -3.1432e-05 0)
(0.00219336 -0.000136617 0)
(0.00148876 -0.000148997 0)
(0.00207944 -0.000265443 0)
(0.00128243 -0.000248167 0)
(0.00244519 -3.70328e-05 0)
(0.0024 -9.59816e-05 0)
(0.00171207 -0.000286839 0)
(0.00218746 -2.5883e-05 0)
(0.00053598 -0.000813539 0)
(0.000566873 -0.000779537 0)
(0.00227684 -6.52023e-05 0)
(0.00122784 -0.000595744 0)
(0.00221545 -0.000241016 0)
(0.00110742 -0.000373576 0)
(0.00181872 -4.1832e-05 0)
(0.00232392 -0.000109332 0)
(0.00107474 -0.000395359 0)
(0.0018818 -4.60151e-06 0)
(0.000660039 -0.000694998 0)
(0.00232653 -0.000114656 0)
(0.00210043 -0.000267289 0)
(0.00123146 -0.000372479 0)
(0.00221623 -0.000176594 0)
(0.00221834 -0.000186021 0)
(0.00235357 -6.61994e-05 0)
(0.00233663 -7.23327e-05 0)
(0.00199997 -0.000111658 0)
(0.000943191 -0.000670026 0)
(0.000960969 -0.000453242 0)
(0.00205587 -8.99279e-06 0)
(0.00208545 -3.65126e-05 0)
(0.00209869 -3.22843e-05 0)
(0.00193341 -0.000150604 0)
(0.0018854 -6.0401e-05 0)
(0.00188102 -5.47848e-05 0)
(0.00133935 -0.000221466 0)
(0.00176131 -8.60662e-05 0)
(0.00199285 -7.66854e-05 0)
(0.000116951 -0.000996357 0)
(0.00164476 -8.0455e-05 0)
(0.000629218 -0.000825863 0)
(0.000851509 -0.000521742 0)
(0.0021691 -0.000159951 0)
(0.00235682 -0.000146286 0)
(0.00249823 -1.94488e-05 0)
(0.00234914 -0.000164122 0)
(0.00175436 -6.46458e-05 0)
(0.00174758 -7.131e-05 0)
(0.00181365 -4.06943e-05 0)
(0.00227244 -6.04698e-05 0)
(0.00162287 -8.85833e-05 0)
(0.00149524 -0.000140108 0)
(0.00172251 -0.000108303 0)
(0.00195844 -0.000149651 0)
(0.000901689 -0.000535324 0)
(0.00105241 -0.000385876 0)
(5.97595e-05 -0.00102149 0)
(0.00250338 -2.07774e-05 0)
(0.00236545 -0.000152653 0)
(0.00117372 -0.000312114 0)
(0.0013108 -0.00023096 0)
(0.000480638 -0.000926596 0)
(0.00186328 -6.76648e-05 0)
(0.00208331 -4.73355e-06 0)
(0.00189669 -7.82554e-05 0)
(0.00105896 -0.000479742 0)
(0.00167383 -0.000194217 0)
(0.00101252 -0.000495709 0)
(0.00151424 -0.000144963 0)
(0.0023283 -0.000127014 0)
(0.00206078 -2.18505e-05 0)
(0.00206 -1.8625e-05 0)
(0.00134772 -0.000221328 0)
(0.000927807 -0.000505278 0)
(0.00216028 -3.31961e-05 0)
(0.00181149 -0.000247164 0)
(0.00169491 -7.78549e-05 0)
(0.00167231 -8.33841e-05 0)
(0.00199143 -8.3023e-05 0)
(0.00113349 -0.000335234 0)
(0.000691638 -0.000803379 0)
(0.00184526 -0.00019899 0)
(0.000555558 -0.000784639 0)
(0.000723563 -0.000692601 0)
(0.000657952 -0.000740965 0)
(0.00224246 -0.000228852 0)
(0.00145233 -0.000213074 0)
(0.00227638 -0.000123211 0)
(0.00105178 -0.000394751 0)
(0.00154863 -0.000200222 0)
(0.000195934 -0.00112147 0)
(0.00206226 -5.8265e-05 0)
(0.00198364 -0.000183834 0)
(0.0020156 -0.000181509 0)
(0.00178815 -0.000243438 0)
(0.000825673 -0.000539935 0)
(0.00189484 -7.21913e-05 0)
(0.00196658 -1.63962e-05 0)
(0.00232582 -0.000152799 0)
(0.00226186 -0.000122353 0)
(0.00226664 -8.20557e-05 0)
(0.00222742 -8.29896e-05 0)
(0.0011975 -0.000292417 0)
(0.00206755 -4.78925e-06 0)
(0.0011915 -0.000296562 0)
(0.000424888 -0.000948206 0)
(0.00225786 -2.02827e-05 0)
(0.00226329 -2.97117e-05 0)
(0.0010852 -0.000421108 0)
(0.00148743 -0.00016291 0)
(0.00238435 -9.14072e-05 0)
(0.000134214 -0.00111579 0)
(0.0021529 -2.3153e-05 0)
(1.98593e-05 -0.00121437 0)
(0.00244894 -3.03652e-05 0)
(0.00245565 -2.63614e-05 0)
(0.00230083 -0.000165076 0)
(0.00230436 -0.000172455 0)
(0.00218912 -0.000237018 0)
(0.00183438 -2.07581e-05 0)
(0.00184621 -1.90016e-05 0)
(0.000640076 -0.000749339 0)
(0.000593081 -0.000786614 0)
(0.000869035 -0.000519533 0)
(0.00216731 -0.000168079 0)
(0.00244497 -9.18993e-06 0)
(0.00155984 -0.000113144 0)
(0.00183282 -2.06673e-05 0)
(0.00170762 -0.000262797 0)
(0.0022798 -8.5065e-05 0)
(0.00086017 -0.000522903 0)
(0.000617416 -0.000756671 0)
(9.93389e-05 -0.00112119 0)
(0.00179405 -6.27978e-05 0)
(0.000300135 -0.00103752 0)
(0.0017831 -4.21163e-05 0)
(0.0017566 -5.90217e-05 0)
(0.000753738 -0.00065906 0)
(0.00244621 -1.60679e-05 0)
(0.0010904 -0.000371093 0)
(0.000544837 -0.000741261 0)
(0.00108857 -0.000621285 0)
(0.00182474 -3.02455e-05 0)
(0.00172963 -0.000119654 0)
(0.00107281 -0.000395275 0)
(0.0018425 -2.72795e-05 0)
(0.00205765 -1.23248e-05 0)
(0.00186195 -5.42524e-05 0)
(0.00101232 -0.000617178 0)
(0.00243569 -1.96641e-05 0)
(0.00223989 -8.71703e-05 0)
(0.000318701 -0.00102187 0)
(0.00224098 -7.52357e-05 0)
(0.000972683 -0.00044637 0)
(0.0013298 -0.000296678 0)
(0.0017945 -1.94333e-05 0)
(0.00207562 -0.000257586 0)
(0.00112596 -0.000401805 0)
(0.00173314 -0.000184686 0)
(0.00206906 -0.000211367 0)
(0.00207788 -0.000218977 0)
(0.00188641 -2.81453e-05 0)
(0.00158127 -0.000103783 0)
(0.00103124 -0.000570042 0)
(0.00150035 -0.000287858 0)
(0.00153745 -0.000280874 0)
(0.00160108 -0.000190669 0)
(0.0017348 -7.34287e-05 0)
(0.0022009 -8.65122e-05 0)
(0.000674489 -0.000641995 0)
(0.00101637 -0.000409869 0)
(0.0023795 -0.000133501 0)
(0.00148837 -0.000199671 0)
(0.000732704 -0.000702784 0)
(0.00202439 -0.000163142 0)
(9.89823e-05 -0.0011838 0)
(0.00226099 -0.000207706 0)
(9.11128e-05 -0.00119803 0)
(0.00222512 -2.6873e-05 0)
(0.00223957 -2.13482e-05 0)
(0.00251675 -1.07026e-05 0)
(0.0023467 -0.000187621 0)
(0.00219661 -5.12696e-05 0)
(0.00184124 -3.84263e-05 0)
(0.00100505 -0.000471687 0)
(0.000184236 -0.00111677 0)
(0.00173984 -0.000284132 0)
(0.000789005 -0.000669637 0)
(0.000898385 -0.000521618 0)
(0.00188862 -3.14076e-05 0)
(0.000213377 -0.00109519 0)
(0.0021908 -0.000126185 0)
(0.00185693 -2.3239e-05 0)
(0.0024223 -8.60097e-05 0)
(0.0018738 -2.00445e-05 0)
(0.00187877 -1.57222e-05 0)
(0.00136476 -0.000282002 0)
(0.00129679 -0.000347505 0)
(0.00167395 -0.000129531 0)
(0.00225663 -0.000201012 0)
(0.00248154 -9.0953e-06 0)
(0.00229346 -0.000214533 0)
(0.00214705 -0.000102479 0)
(0.00170354 -6.12604e-05 0)
(0.000232215 -0.00109402 0)
(0.000615348 -0.000737414 0)
(0.00127392 -0.000334751 0)
(0.00183432 -0.000261461 0)
(0.00171093 -0.000176644 0)
(0.00169967 -0.000159702 0)
(0.00187616 -4.36997e-05 0)
(0.00193766 -0.000234708 0)
(0.0014522 -0.000159221 0)
(3.18721e-05 -0.00122007 0)
(0.00172865 -6.24467e-05 0)
(0.0016941 -0.000275485 0)
(0.00216026 -9.58342e-05 0)
(0.00174053 -6.50902e-05 0)
(0.00182153 -1.24945e-05 0)
(0.000521075 -0.000766827 0)
(0.00190414 -1.29835e-05 0)
(0.00195426 -0.00021353 0)
(0.00173418 -4.98691e-05 0)
(0.00108343 -0.000368136 0)
(0.00244589 -5.67613e-05 0)
(0.00208413 -0.000102339 0)
(0.00241263 -5.28541e-06 0)
(0.00218921 -0.000244247 0)
(0.00130296 -0.000299443 0)
(0.00178217 -3.38161e-05 0)
(0.00223427 -0.00024871 0)
(0.00204098 -0.000155613 0)
(0.000233964 -0.00108453 0)
(0.00194275 -0.000122597 0)
(0.00186728 -7.38427e-05 0)
(0.00198775 -0.000106258 0)
(0.00244586 -1.97054e-06 0)
(0.000168422 -0.00113037 0)
(0.00179141 -0.000185705 0)
(0.00172067 -0.000169424 0)
(0.00191846 -0.000130725 0)
(2.99141e-05 -0.00114947 0)
(0.00189037 -2.54871e-06 0)
(0.000223249 -0.001067 0)
(0.00184281 -5.95253e-05 0)
(0.000300006 -0.00103728 0)
(0.00166934 -0.000133514 0)
(0.000287401 -0.0010525 0)
(0.00170419 -0.000166471 0)
(0.00080799 -0.000554525 0)
(0.000496752 -0.000862598 0)
(0.00221284 -0.000108598 0)
(0.0021272 -5.85071e-05 0)
(0.00210583 -5.84902e-05 0)
(0.00180418 -2.62208e-05 0)
(0.00180991 -2.60502e-05 0)
(0.00210979 -9.90354e-05 0)
(0.00237086 -9.1428e-05 0)
(0.00178081 -8.58268e-05 0)
(0.00186777 -1.64484e-05 0)
(0.00247833 -2.17173e-05 0)
(0.00232489 -0.000171271 0)
(0.00179708 -0.000233479 0)
(0.00215129 -2.25156e-06 0)
(0.00235172 -0.000109829 0)
(0.00165069 -0.000131536 0)
(0.00235274 -8.75545e-05 0)
(0.00204114 -5.91738e-05 0)
(0.000417102 -0.000898478 0)
(0.000373097 -0.00093867 0)
(0.00158153 -0.000133473 0)
(0.0017562 -4.25599e-05 0)
(0.00175256 -0.000100875 0)
(0.00164892 -0.000126228 0)
(0.00179772 -3.0289e-05 0)
(0.00237932 -4.52398e-05 0)
(0.00227248 -0.000156947 0)
(0.00176171 -9.1947e-05 0)
(0.00185872 -0.000285671 0)
(0.00248442 -1.12165e-05 0)
(0.00230309 -0.000204326 0)
(0.00217257 -1.65762e-05 0)
(0.00175923 -0.000121456 0)
(0.00186514 -3.08275e-05 0)
(0.000798966 -0.000558035 0)
(0.00238036 -4.11312e-05 0)
(0.00226219 -0.000165087 0)
(0.00148078 -0.000159654 0)
(0.00171356 -0.000133308 0)
(0.00154701 -0.000170967 0)
(0.00151636 -0.000130332 0)
(0.00199044 -1.8208e-05 0)
(0.00179458 -0.000208397 0)
(0.00179605 -0.000174148 0)
(0.000567882 -0.000866068 0)
(0.00180962 -6.25745e-05 0)
(0.00176474 -9.57925e-05 0)
(0.00175703 -5.03152e-05 0)
(0.00236155 -5.0823e-05 0)
(0.00131379 -0.000259424 0)
(0.0018997 -0.000130049 0)
(0.00190833 -0.000212359 0)
(0.00176745 -0.000210599 0)
(0.00144281 -0.00045233 0)
(0.000404916 -0.000955264 0)
(0.00183258 -7.12639e-05 0)
(0.00104298 -0.000456075 0)
(0.00133467 -0.000239679 0)
(5.06239e-05 -0.00115915 0)
(0.000353355 -0.000988529 0)
(0.00163578 -0.000162155 0)
(0.00223454 -0.000160197 0)
(0.00197777 -0.000203455 0)
(0.00135568 -0.000235882 0)
(0.00138936 -0.000224389 0)
(0.00190677 -0.000101202 0)
(6.4475e-05 -0.00122722 0)
(0.0005342 -0.000821919 0)
(0.00190842 -1.57647e-05 0)
(0.0025085 -9.57966e-06 0)
(0.00233086 -0.000198014 0)
(0.00223577 -0.000168549 0)
(0.00167182 -7.119e-05 0)
(0.000450564 -0.000936315 0)
(0.00129483 -0.000246138 0)
(0.00192014 -6.35932e-05 0)
(0.00182745 -6.68356e-05 0)
(0.00186108 -4.91196e-05 0)
(0.00226841 -0.000224576 0)
(0.00169961 -8.25643e-05 0)
(0.00234249 -8.55682e-05 0)
(0.00169411 -6.36744e-05 0)
(0.00246458 -4.9858e-05 0)
(0.000296345 -0.0010296 0)
(0.00225413 -0.000154552 0)
(0.00246527 -7.92672e-06 0)
(0.000301941 -0.00102606 0)
(0.00215045 -3.78438e-05 0)
(0.00236525 -3.91044e-05 0)
(0.000335748 -0.000941578 0)
(0.000694355 -0.000848114 0)
(0.00219799 -6.02064e-05 0)
(0.00173531 -5.86649e-05 0)
(0.00162168 -0.000238737 0)
(0.00135519 -0.000255028 0)
(0.00213858 -0.000120503 0)
(0.00213595 -0.000114809 0)
(0.00189649 -0.000110206 0)
(8.37023e-05 -0.00121563 0)
(0.00182573 -0.000272234 0)
(0.00187767 -2.60137e-06 0)
(0.00161704 -0.000230791 0)
(0.00138966 -0.000230762 0)
(0.00198442 -0.000120135 0)
(0.000698338 -0.000627818 0)
(0.00191339 -1.03029e-05 0)
(0.000261423 -0.00103083 0)
(0.00158846 -0.000117061 0)
(0.0020288 -2.6274e-05 0)
(0.00201561 -2.39814e-05 0)
(0.000207152 -0.00112009 0)
(0.00138527 -0.000257319 0)
(0.0013887 -0.000264808 0)
(0.00218969 -8.15504e-05 0)
(5.41652e-05 -0.00110977 0)
(0.00156065 -0.000128428 0)
(0.00211993 -4.75769e-05 0)
(0.00141975 -0.000178105 0)
(0.00251517 -4.72348e-06 0)
(0.00232586 -0.000215503 0)
(0.000667464 -0.000714404 0)
(0.00150707 -0.000199898 0)
(0.00177369 -7.76175e-05 0)
(0.00170795 -8.31504e-05 0)
(0.00169103 -0.000298635 0)
(0.000542063 -0.000843212 0)
(0.000494061 -0.000882065 0)
(0.00158448 -0.000226275 0)
(0.00134509 -0.000253217 0)
(0.00161194 -0.000126773 0)
(0.00207825 -0.000174481 0)
(0.00140396 -0.00019829 0)
(0.0014217 -0.000186915 0)
(0.00217065 -0.000236538 0)
(3.21183e-05 -0.00109728 0)
(0.00122031 -0.000339594 0)
(0.00237647 -9.96763e-05 0)
(0.00126374 -0.000309919 0)
(0.00166012 -0.000256298 0)
(0.00220497 -7.54546e-05 0)
(0.000181378 -0.00112553 0)
(0.00249719 -5.84251e-06 0)
(0.00230692 -0.000218239 0)
(0.00209283 -7.25013e-05 0)
(0.00221547 -4.87924e-05 0)
(0.0024752 -4.10534e-05 0)
(0.00185965 -0.000254599 0)
(0.000535412 -0.000763098 0)
(0.00201235 -0.000145716 0)
(0.00200724 -0.000138398 0)
(0.0022158 -6.0607e-05 0)
(0.00196085 -0.000124444 0)
(0.00204689 -2.51271e-05 0)
(0.00220036 -7.08724e-05 0)
(0.00150975 -0.000148382 0)
(0.00162784 -0.000267931 0)
(0.00198077 -4.04122e-05 0)
(0.000931245 -0.000489274 0)
(0.00222635 -0.000111569 0)
(0.0014384 -0.000211558 0)
(0.00166389 -0.00020887 0)
(0.00176808 -0.000173216 0)
(0.000428174 -0.000874831 0)
(0.00142518 -0.000236415 0)
(0.00145715 -0.000230229 0)
(0.00238581 -1.18126e-05 0)
(0.000620117 -0.00087147 0)
(0.00232965 -4.87644e-05 0)
(0.00191546 -2.98896e-05 0)
(0.00199725 -0.00016417 0)
(0.0022171 -0.000120094 0)
(0.0023073 -0.000129795 0)
(0.00202024 -7.11507e-05 0)
(0.00164301 -0.000167891 0)
(0.0018192 -7.91254e-06 0)
(0.00219214 -0.000153484 0)
(2.88763e-05 -0.00123582 0)
(0.00193648 -8.44677e-05 0)
(0.00218831 -1.4457e-05 0)
(0.00204456 -7.27384e-05 0)
(0.00231078 -5.30497e-05 0)
(0.00191427 -5.80391e-05 0)
(0.000698308 -0.000624019 0)
(0.00190907 -2.83779e-05 0)
(0.00164571 -0.000250079 0)
(0.00195557 -0.000108146 0)
(0.0017436 -0.000258679 0)
(0.00138733 -0.000238997 0)
(0.00193922 -0.000114231 0)
(0.00180858 -0.000256507 0)
(0.00246042 -4.71765e-05 0)
(0.000398568 -0.000956045 0)
(0.000527369 -0.000890639 0)
(0.00205359 -0.00011652 0)
(0.00202244 -0.000190631 0)
(0.00197745 -2.16732e-05 0)
(0.00193183 -0.000209168 0)
(0.00229479 -0.000149884 0)
(0.00205832 -0.000130613 0)
(0.0019991 -4.12387e-05 0)
(0.000713076 -0.000803433 0)
(0.00237837 -3.33647e-05 0)
(0.00181628 -2.49135e-05 0)
(0.00204616 -1.52889e-05 0)
(0.000811875 -0.000734463 0)
(0.00164212 -8.2686e-05 0)
(0.00158222 -0.000285327 0)
(0.0016313 -8.78043e-05 0)
(0.00144673 -0.000163017 0)
(0.0019792 -1.52161e-06 0)
(0.00234325 -5.19367e-05 0)
(0.000112973 -0.00119283 0)
(0.000277501 -0.00104535 0)
(0.00193964 -1.70548e-05 0)
(0.00203384 -0.000115932 0)
(0.00231302 -6.88439e-05 0)
(0.00229695 -6.92198e-05 0)
(0.002373 -9.12521e-06 0)
(0.0023204 -0.000146502 0)
(0.000389161 -0.000895768 0)
(0.00227892 -3.1864e-05 0)
(0.000696367 -0.000637858 0)
(0.00178922 -5.51755e-05 0)
(0.00180546 -5.42789e-05 0)
(0.00071394 -0.000621343 0)
(0.00216649 -0.000119701 0)
(0.00218748 -0.000112192 0)
(0.00234973 -1.94637e-05 0)
(0.0022239 -9.53353e-05 0)
(0.00203296 -1.59877e-05 0)
(0.00166639 -0.000165924 0)
(0.00229706 -6.3498e-05 0)
(0.00201824 -2.02002e-05 0)
(0.00212967 -0.000257954 0)
(8.75315e-05 -0.00121463 0)
(0.00161313 -0.000321184 0)
(0.00130429 -0.000344999 0)
(0.000540772 -0.000900969 0)
(0.00183546 -4.39618e-06 0)
(0.00156276 -0.000172413 0)
(0.00201032 -4.81784e-05 0)
(0.00199569 -4.6685e-05 0)
(0.00172069 -7.90043e-05 0)
(0.00121222 -0.000309034 0)
(0.00190203 -3.44388e-05 0)
(0.00194333 -6.14684e-05 0)
(0.00211542 -7.01489e-05 0)
(0.00226229 -1.05853e-05 0)
(0.000774283 -0.000596219 0)
(0.00133638 -0.000227355 0)
(0.00143592 -0.000189972 0)
(0.00204004 -7.28527e-06 0)
(0.000208351 -0.00112052 0)
(0.00139944 -0.000204424 0)
(0.00127928 -0.000294866 0)
(0.00208359 -0.00012585 0)
(0.00029538 -0.00100879 0)
(0.000317352 -0.000969618 0)
(0.00211377 -0.000112749 0)
(0.00202591 -0.000249675 0)
(0.000296352 -0.00103562 0)
(0.00237022 -0.000113508 0)
(0.0001459 -0.00111905 0)
(0.00196699 -2.12173e-06 0)
(0.0019758 -0.00017485 0)
(0.000996493 -0.000566368 0)
(0.00191744 -7.76529e-05 0)
(0.00163935 -8.13356e-05 0)
(0.00185509 -2.05439e-05 0)
(0.00181506 -2.28036e-05 0)
(0.00037888 -0.000975865 0)
(0.000923885 -0.000597851 0)
(0.000685539 -0.000665805 0)
(0.00238642 -5.33859e-05 0)
(0.00158141 -0.000128897 0)
(0.00155381 -0.000289261 0)
(0.00219078 -5.63997e-05 0)
(0.00173126 -6.28856e-05 0)
(0.00125228 -0.000334088 0)
(0.00210907 -0.000170629 0)
(0.00168613 -6.52018e-05 0)
(0.00127545 -0.000251149 0)
(0.001364 -0.00021657 0)
(0.00186142 -7.19951e-06 0)
(0.00184382 -1.19713e-05 0)
(0.00180189 -3.35404e-05 0)
(0.00100741 -0.000428405 0)
(0.000654727 -0.000694498 0)
(0.000396358 -0.000955404 0)
(0.00123476 -0.000276628 0)
(0.00184927 -1.18832e-05 0)
(0.000353506 -0.000991409 0)
(0.00201613 -2.7531e-06 0)
(0.00209258 -0.0001165 0)
(0.00149245 -0.000215019 0)
(0.00128388 -0.000286373 0)
(0.00176938 -6.9259e-05 0)
(0.00163883 -0.00028088 0)
(0.000275067 -0.00105955 0)
(1.18171e-05 -0.00123406 0)
(5.09696e-05 -0.0011351 0)
(0.000813381 -0.000613916 0)
(0.000461635 -0.000886676 0)
(0.00131419 -0.000315232 0)
(0.00134392 -0.000311874 0)
(0.00213547 -3.67815e-06 0)
(0.00237524 -2.4297e-05 0)
(0.00212844 -7.95465e-05 0)
(0.00209239 -1.79522e-06 0)
(0.0021144 -4.21391e-05 0)
(0.000100187 -0.0011091 0)
(0.00181181 -2.4949e-05 0)
(0.0023965 -0.000102857 0)
(0.00189569 -4.19819e-05 0)
(0.000354055 -0.000991396 0)
(0.00123525 -0.00027332 0)
(0.00192776 -1.73926e-05 0)
(0.00183966 -1.51135e-05 0)
(0.00141129 -0.000302323 0)
(0.00167346 -9.76612e-05 0)
(0.000613741 -0.000705214 0)
(0.00179105 -4.22571e-05 0)
(0.00218668 -9.34944e-05 0)
(0.000570196 -0.000740164 0)
(0.000650737 -0.000713277 0)
(0.00182591 -2.71133e-05 0)
(0.00209015 -0.000139978 0)
(0.0018895 -1.29945e-05 0)
(0.000295873 -0.00100494 0)
(0.00190895 -0.000236156 0)
(0.00109026 -0.000367686 0)
(0.00120658 -0.000365004 0)
(0.00235341 -7.77662e-05 0)
(0.00233671 -7.77429e-05 0)
(0.00172123 -0.000128984 0)
(0.00106686 -0.000383349 0)
(0.00168202 -7.06303e-05 0)
(0.00219908 -4.03863e-05 0)
(0.00220073 -3.52427e-05 0)
(0.000652739 -0.000715585 0)
(0.00047739 -0.000876378 0)
(0.00204518 -0.000251901 0)
(0.00133867 -0.000307378 0)
(0.00165496 -0.000236621 0)
(0.00241338 -2.30736e-05 0)
(0.000598269 -0.000742435 0)
(0.00202029 -0.000231117 0)
(0.00175701 -0.000248919 0)
(0.00198305 -3.65887e-05 0)
(0.00151412 -0.000315721 0)
(0.00149208 -0.000142748 0)
(0.00048155 -0.000829124 0)
(0.00211391 -8.49392e-05 0)
(0.00111104 -0.000373715 0)
(0.00161563 -0.000110378 0)
(0.00131173 -0.000286325 0)
(0.00113267 -0.000381296 0)
(0.0021326 -0.000222201 0)
(0.00227158 -0.000169877 0)
(0.00206355 -0.000168916 0)
(0.00121726 -0.000316259 0)
(0.00109706 -0.000396193 0)
(0.00120187 -0.000294109 0)
(0.00226607 -0.000144563 0)
(0.00236729 -1.98944e-05 0)
(0.00161288 -0.000178104 0)
(0.00182278 -0.000186364 0)
(0.00164417 -0.000108462 0)
(0.00206195 -6.86977e-05 0)
(0.00154355 -0.000186729 0)
(0.00142492 -0.000171692 0)
(0.00214833 -0.00015683 0)
(0.000128064 -0.00113337 0)
(0.000332862 -0.000968244 0)
(0.000386494 -0.000960001 0)
(0.00190853 -7.96193e-06 0)
(0.00214547 -5.34704e-05 0)
(0.00223557 -0.000200777 0)
(0.00196701 -0.000274409 0)
(2.07083e-05 -0.00117384 0)
(0.00174479 -4.77981e-05 0)
(0.00156471 -0.000116559 0)
(0.00158213 -0.000107274 0)
(0.00199371 -0.000269952 0)
(0.00233181 -2.95623e-05 0)
(0.000931951 -0.000487321 0)
(0.00183924 -0.000155151 0)
(0.00182403 -0.000150346 0)
(0.00113026 -0.000380542 0)
(0.00195361 -0.000282571 0)
(0.000378509 -0.000965256 0)
(0.00216312 -0.000193355 0)
(0.00219838 -0.000194915 0)
(0.00212766 -0.000239565 0)
(0.00199104 -0.000155413 0)
(0.000444022 -0.000910845 0)
(0.00214207 -0.000245074 0)
(0.00248626 -2.65494e-05 0)
(0.00156497 -0.000112084 0)
(0.0018923 -0.000232125 0)
(0.00189274 -0.000221007 0)
(0.00159042 -0.000102145 0)
(0.00150942 -0.000184438 0)
(0.00207233 -0.000145022 0)
(0.00114411 -0.000384366 0)
(0.00196196 -4.9538e-06 0)
(0.00080391 -0.000601034 0)
(0.00134861 -0.000233162 0)
(0.00213038 -2.87704e-05 0)
(0.00137114 -0.000219794 0)
(0.0018339 -0.00028134 0)
(0.00034079 -0.000993437 0)
(0.00233633 -7.4726e-06 0)
(0.000302808 -0.00101546 0)
(0.000438383 -0.000913514 0)
(0.00131921 -0.000352302 0)
(0.00201188 -0.000276473 0)
(0.00204073 -8.03072e-05 0)
(0.0020628 -0.00023013 0)
(0.000404321 -0.000869511 0)
(0.00191435 -5.43316e-06 0)
(0.000975146 -0.000435161 0)
(0.00187945 -1.03215e-05 0)
(0.00252283 -6.13246e-06 0)
(0.00234054 -0.000205306 0)
(0.0020853 -0.000248773 0)
(0.000958549 -0.000445801 0)
(0.00196638 -0.000194031 0)
(0.00199568 -4.99402e-06 0)
(0.00165569 -0.000234838 0)
(0.00201228 -5.67491e-06 0)
(0.000132587 -0.00118003 0)
(0.000591241 -0.000742985 0)
(0.00221564 -0.000159742 0)
(6.26014e-05 -0.00121339 0)
(0.001774 -0.000163958 0)
(0.0018674 -1.3242e-05 0)
(0.0016496 -8.33404e-05 0)
(0.00126388 -0.000294417 0)
(0.00226857 -1.48385e-05 0)
(0.00194739 -4.32352e-06 0)
(0.00163012 -0.000191708 0)
(0.00236752 -5.50235e-05 0)
(0.00170452 -6.70918e-05 0)
(0.000169983 -0.00106585 0)
(0.0014371 -0.000166473 0)
(0.00231298 -8.34791e-05 0)
(0.001266 -0.000318979 0)
(0.00178579 -0.000116223 0)
(0.00131374 -0.000285838 0)
(0.00199349 -0.00023597 0)
(0.00203006 -1.95553e-06 0)
(5.69519e-05 -0.00122327 0)
(0.000834158 -0.000568301 0)
(0.0022895 -0.000139267 0)
(0.000950691 -0.000464715 0)
(0.000151913 -0.00108365 0)
(0.00151005 -0.000156696 0)
(0.000810477 -0.000582332 0)
(0.00175375 -0.000140859 0)
(0.00194105 -6.36548e-06 0)
(0.00178172 -7.23347e-05 0)
(0.00132058 -0.000265408 0)
(0.0017657 -0.000103412 0)
(0.00067864 -0.000711724 0)
(0.000746796 -0.000622233 0)
(0.00137888 -0.000458841 0)
(0.00152155 -0.000129285 0)
(0.000718837 -0.000624207 0)
(0.000751957 -0.000643857 0)
(0.00150799 -0.000136725 0)
(0.00202961 -0.000109169 0)
(0.00160127 -0.000134905 0)
(0.00161523 -0.000134474 0)
(0.00180328 -3.59857e-05 0)
(0.00138702 -0.000336591 0)
(0.00180251 -3.88185e-05 0)
(0.00131938 -0.000255241 0)
(0.00130602 -0.000266369 0)
(0.000466847 -0.000873644 0)
(0.00214981 -6.50202e-05 0)
(0.00190015 -4.94384e-05 0)
(0.00209692 -1.6604e-05 0)
(0.0021094 -1.38787e-05 0)
(0.00226206 -0.000112513 0)
(0.000446028 -0.000918565 0)
(0.00171182 -6.1165e-05 0)
(0.000752371 -0.000592717 0)
(0.00116165 -0.000338968 0)
(0.00228258 -4.93279e-05 0)
(0.00134565 -0.000526389 0)
(0.00224557 -9.85974e-06 0)
(0.00216574 -6.2278e-05 0)
(0.00128943 -0.00025537 0)
(0.00161441 -0.000115488 0)
(0.00190985 -2.73662e-06 0)
(0.00206931 -6.31259e-05 0)
(0.00227662 -0.000128807 0)
(0.00202054 -6.56237e-05 0)
(0.00176539 -4.97694e-05 0)
(0.0023089 -8.83992e-05 0)
(0.00172555 -9.58727e-05 0)
(0.002446 -3.96992e-05 0)
(0.00156142 -0.000187392 0)
(0.00138155 -0.000193763 0)
(0.0013519 -0.000208759 0)
(0.00182939 -8.6008e-06 0)
(0.0017735 -0.000123666 0)
(0.00200742 -1.08802e-05 0)
(0.0023982 -2.19722e-05 0)
(0.00203482 -0.00017202 0)
(0.00216766 -0.000125621 0)
(0.000275172 -0.00102921 0)
(0.00230235 -1.23128e-05 0)
(0.00167258 -0.000115376 0)
(0.00225661 -4.23511e-05 0)
(0.000597823 -0.000700983 0)
(0.00128211 -0.000244689 0)
(0.00175389 -4.34368e-05 0)
(0.00130316 -0.000233112 0)
(0.000240908 -0.0010898 0)
(0.00177324 -9.30022e-05 0)
(0.00216381 -5.33915e-05 0)
(0.00228611 -4.9476e-06 0)
(0.00221149 -0.00020759 0)
(0.00159228 -0.000298301 0)
(0.00155116 -0.000224893 0)
(0.00127803 -0.000530081 0)
(0.0019823 -1.46042e-05 0)
(0.00063821 -0.000683097 0)
(0.00200542 -1.72364e-05 0)
(0.00212173 -0.000175763 0)
(0.00011565 -0.00119061 0)
(0.00212964 -7.50878e-06 0)
(0.00207756 -0.000158947 0)
(0.00143988 -0.000299169 0)
(0.00189207 -9.04242e-05 0)
(0.0019148 -8.50383e-05 0)
(0.00214974 -0.000261783 0)
(0.00200162 -0.000202473 0)
(0.00211206 -0.000223399 0)
(0.0016641 -0.000281533 0)
(0.00226891 -0.000105643 0)
(0.00167211 -7.59491e-05 0)
(0.0024041 -4.41141e-05 0)
(0.000502823 -0.000803693 0)
(0.00183784 -7.11252e-06 0)
(0.0020353 -0.000146231 0)
(0.00205338 -0.000140905 0)
(0.00241288 -6.26444e-05 0)
(0.00170277 -6.21621e-05 0)
(0.00188017 -0.000257039 0)
(0.00185567 -4.18154e-06 0)
(0.00079564 -0.000821842 0)
(0.00166262 -0.00019401 0)
(0.00182958 -0.000165857 0)
(0.0019027 -3.01924e-06 0)
(0.00206874 -0.000183181 0)
(0.000729998 -0.000628211 0)
(0.000743245 -0.000595956 0)
(0.000782687 -0.000566991 0)
(0.00200162 -0.000257536 0)
(0.00225534 -9.78972e-05 0)
(0.00237621 -8.12683e-05 0)
(0.00223238 -9.96559e-05 0)
(0.00117513 -0.000317626 0)
(0.00200032 -0.000100305 0)
(0.00204496 -0.000189658 0)
(0.00117698 -0.000334105 0)
(0.00188256 -0.000278889 0)
(0.00160415 -0.000274217 0)
(0.00164728 -8.49355e-05 0)
(0.0016248 -9.01474e-05 0)
(0.00203705 -3.61754e-05 0)
(0.000590409 -0.000809436 0)
(0.00230067 -0.000142149 0)
(0.00107078 -0.000680082 0)
(0.00167101 -0.000174611 0)
(0.000970184 -0.000453242 0)
(0.00244005 -6.23139e-05 0)
(0.00152063 -0.000157711 0)
(0.00220637 -2.38131e-05 0)
(0.00210289 -5.21611e-05 0)
(0.00077745 -0.000572401 0)
(0.00180253 -3.29071e-05 0)
(0.000755645 -0.000585185 0)
(0.00175557 -0.000204474 0)
(0.00176236 -0.000194093 0)
(0.000637453 -0.000772791 0)
(0.00214783 -2.86029e-05 0)
(0.00250457 -1.42445e-05 0)
(0.00232011 -0.000182026 0)
(0.00234113 -0.00018064 0)
(0.00248308 -1.81648e-05 0)
(0.00147117 -0.000391362 0)
(0.00203311 -5.49034e-05 0)
(0.00243063 -5.76142e-05 0)
(0.00179495 -3.21781e-05 0)
(0.00177738 -3.93463e-05 0)
(0.00131776 -0.000368174 0)
(0.00121645 -0.00029165 0)
(0.000765041 -0.000600156 0)
(0.00166841 -0.000116967 0)
(0.00115962 -0.000525816 0)
(0.00193584 -0.000140736 0)
(0.00156854 -0.000217426 0)
(0.00116626 -0.000358391 0)
(0.00118047 -0.000352108 0)
(0.00227299 -9.27872e-05 0)
(0.00142491 -0.000228658 0)
(0.000959062 -0.000446544 0)
(0.000221472 -0.00108391 0)
(0.00149022 -0.000237095 0)
(0.00148929 -0.000248061 0)
(0.00230206 -8.89871e-06 0)
(0.000986746 -0.000427781 0)
(0.00186301 -2.77571e-05 0)
(0.00227092 -5.22196e-06 0)
(3.36627e-05 -0.00120108 0)
(0.000939693 -0.000517457 0)
(0.00214449 -0.000214847 0)
(0.00185312 -0.000176926 0)
(0.001032 -0.000439752 0)
(0.00177272 -3.72625e-05 0)
(0.00178445 -3.3645e-05 0)
(0.0020155 -8.43578e-05 0)
(0.00230785 -4.03814e-05 0)
(0.00153362 -0.000384186 0)
(0.000361394 -0.000986147 0)
(0.00196255 -0.000158072 0)
(0.00160525 -0.00020942 0)
(0.00185342 -9.04749e-05 0)
(0.00183797 -8.87057e-05 0)
(0.0024122 -1.40333e-05 0)
(0.000993309 -0.00046044 0)
(0.00014384 -0.00116823 0)
(7.20877e-05 -0.00119031 0)
(0.00159072 -0.0001636 0)
(0.00117316 -0.000331132 0)
(0.0016352 -0.000271432 0)
(0.0016418 -0.000114848 0)
(0.00171516 -7.18052e-05 0)
(0.00184162 -8.20436e-05 0)
(0.00157907 -0.000105072 0)
(0.00163444 -0.000217775 0)
(0.00111817 -0.000341358 0)
(0.00194385 -8.92753e-05 0)
(0.000277925 -0.000999592 0)
(0.00153767 -0.00013102 0)
(0.00116243 -0.000314551 0)
(0.00151594 -0.000137574 0)
(0.00114341 -0.000329276 0)
(0.00148414 -0.000313814 0)
(0.00190923 -2.17085e-05 0)
(0.0010971 -0.000354587 0)
(0.00190608 -2.4691e-05 0)
(0.00203506 -0.000235938 0)
(0.00170308 -0.000147039 0)
(0.00139979 -0.000226914 0)
(0.00224996 -4.78483e-05 0)
(0.000267228 -0.00105323 0)
(0.000359958 -0.000978756 0)
(0.00169667 -0.000155726 0)
(0.00079388 -0.000560374 0)
(0.00225281 -6.11178e-05 0)
(0.00229074 -5.37406e-05 0)
(0.00114737 -0.000354281 0)
(0.00244005 -2.52933e-05 0)
(0.00233187 -4.47185e-05 0)
(0.000925261 -0.000490029 0)
(0.00201944 -3.61331e-05 0)
(0.00182194 -1.90459e-05 0)
(0.00148015 -0.000304149 0)
(0.00215739 -0.000148277 0)
(0.00177915 -4.59621e-05 0)
(2.12498e-05 -0.00124407 0)
(0.00202856 -4.59196e-05 0)
(0.00168339 -0.000233688 0)
(0.00175731 -0.000293366 0)
(0.000251265 -0.00105283 0)
(0.00236328 -2.05766e-06 0)
(0.00161697 -0.000295419 0)
(0.000930807 -0.000754618 0)
(0.00174543 -8.87522e-05 0)
(0.00223004 -7.21822e-05 0)
(0.000345426 -0.000997341 0)
(0.000444517 -0.000914272 0)
(0.00148192 -0.000192419 0)
(0.00175389 -5.16338e-05 0)
(0.00170751 -0.000222169 0)
(0.00167928 -0.000225749 0)
(0.00204741 -0.000212718 0)
(0.00156474 -0.000228 0)
(0.00108945 -0.000360085 0)
(0.00226803 -2.43782e-05 0)
(0.00166756 -8.19813e-05 0)
(0.00162081 -0.000100724 0)
(0.000901721 -0.000499672 0)
(0.00187118 -3.65541e-05 0)
(0.001593 -0.00011094 0)
(0.00191063 -3.63525e-05 0)
(0.00122152 -0.000279417 0)
(0.00186164 -2.36948e-06 0)
(0.000257859 -0.00106971 0)
(0.00176796 -6.953e-05 0)
(0.000196147 -0.00109288 0)
(0.00212133 -0.000161454 0)
(0.00242406 -3.53657e-05 0)
(0.00240572 -3.57184e-05 0)
(0.000910829 -0.000490277 0)
(0.00185477 -0.000167055 0)
(0.00227921 -0.000183292 0)
(0.000216187 -0.00110986 0)
(0.000182848 -0.00113653 0)
(0.00169142 -0.000251838 0)
(0.00171119 -7.05007e-05 0)
(0.000837297 -0.000778931 0)
(0.00213547 -1.03982e-05 0)
(0.00184398 -2.24548e-06 0)
(0.00216729 -4.34863e-06 0)
(0.00188028 -3.80501e-05 0)
(9.12624e-05 -0.00115365 0)
(0.00196556 -5.64035e-05 0)
(0.00196991 -5.10238e-05 0)
(0.00194549 -2.99723e-05 0)
(0.00159015 -0.000106286 0)
(0.00149322 -0.000226727 0)
(0.000769075 -0.00059122 0)
(0.00190481 -4.49447e-05 0)
(0.00134175 -0.000324243 0)
(0.00221024 -0.00022496 0)
(0.0012888 -0.000246194 0)
(0.00127307 -0.000257746 0)
(0.00105126 -0.000429114 0)
(0.000610693 -0.00074703 0)
(0.00247026 -1.81535e-05 0)
(0.00230151 -0.00018933 0)
(0.00150881 -0.000162338 0)
(0.000850458 -0.000596851 0)
(0.00154671 -0.000146201 0)
(0.00240529 -4.75584e-05 0)