/*--------------------------------*- C++ -*----------------------------------*\
| =========                 |                                                 |
| \\      /  F ield         | OpenFOAM: The Open Source CFD Toolbox           |
|  \\    /   O peration     | Version:  v2012                                 |
|   \\  /    A nd           | Website:  www.openfoam.com                      |
|    \\/     M anipulation  |                                                 |
\*---------------------------------------------------------------------------*/
FoamFile
{
    version     2.0;
    format      ascii;
    class       volSymmTensorField;
    location    "5";
    object      sigma;
}
// * * * * * * * * * * * * * * * * * * * * * * * * * * * * * * * * * * * * * //

dimensions      [1 -1 -2 0 0 0 0];


internalField   nonuniform List<symmTensor> 
1896
(
(6.54899e+07 -2.96152e+06 3.90364e-09 1.54291e+07 1.16997e-09 2.44868e+07)
(6.83495e+07 -2.67989e+06 3.84597e-09 2.13395e+06 1.97878e-09 2.08895e+07)
(6.42707e+07 -1.52947e+06 0 1.43503e+07 0 2.33727e+07)
(1.23444e+08 1.2792e+07 8.50786e-10 -1.40576e+06 -3.01363e-10 3.66384e+07)
(6.47542e+07 -3.15788e+06 3.5706e-09 1.45493e+07 2.22691e-09 2.39334e+07)
(6.47171e+07 -3.84733e+06 -1.20312e-09 1.36491e+07 -1.16397e-09 2.35126e+07)
(1.23965e+08 1.2855e+07 -1.85083e-08 -2.42819e+06 -1.57796e-08 3.64827e+07)
(5.94849e+07 -5.65709e+06 -3.46597e-09 1.12868e+07 -8.13549e-10 2.12475e+07)
(5.16405e+07 -2.2703e+07 2.1348e-09 -1.84523e+07 1.92968e-09 1.09027e+07)
(5.79528e+07 -4.23698e+06 6.89071e-09 1.16073e+07 3.50565e-10 2.07938e+07)
(6.55099e+07 -574314 1.77784e-09 1.77532e+07 -5.66023e-10 2.49989e+07)
(3.88336e+07 -1.23466e+07 -5.80717e-09 5.35497e+06 -4.01959e-10 1.41132e+07)
(4.35915e+07 -7.37303e+06 3.61494e-09 8.47544e+06 1.43317e-09 1.47488e+07)
(4.05258e+07 -1.02121e+07 -3.56876e-11 5.92763e+06 -1.19499e-09 1.34515e+07)
(1.16013e+08 1.25807e+07 7.82682e-10 -7.70193e+06 1.19061e-09 3.37648e+07)
(7.71169e+07 6.38668e+06 2.10322e-09 887266 -2.60527e-09 2.40514e+07)
(7.47372e+07 -5.97441e+06 -1.18086e-08 830502 -2.01128e-10 2.30879e+07)
(1.63627e+08 -3.68399e+06 1.15854e-08 1.67778e+07 6.6855e-09 5.60043e+07)
(7.79177e+07 -1.04333e+07 6.71947e-09 1.40032e+06 2.11906e-09 2.3996e+07)
(6.2135e+07 -3.493e+07 -2.24433e-08 1.7514e+07 2.77065e-09 1.5877e+07)
(-7.23276e+06 1.4746e+07 1.00327e-09 -6.91787e+07 -8.14767e-09 -2.47896e+07)
(6.8296e+07 -7.50511e+06 -1.44699e-09 5.72235e+06 2.24546e-09 2.20044e+07)
(1.12109e+08 -902097 1.10534e-08 -2.63616e+06 6.96965e-09 3.30732e+07)
(1.12519e+08 -192348 -3.673e-09 -1.11864e+06 -2.11615e-09 3.38093e+07)
(6.95107e+07 -4.69001e+06 4.68289e-09 2.2334e+06 -4.6294e-10 2.18878e+07)
(6.8922e+07 -4.71753e+06 -2.49421e-10 3.00455e+06 -1.99933e-09 2.15328e+07)
(4.02851e+07 -5.57467e+06 2.404e-09 8.61955e+06 -1.09004e-09 1.56404e+07)
(4.56469e+07 -5.32183e+06 -3.03725e-09 9.58511e+06 -6.7848e-10 1.59777e+07)
(6.62583e+07 -2.24575e+06 4.63498e-10 1.59555e+07 -7.73141e-10 2.43597e+07)
(8.24991e+07 -1.24419e+07 -3.74393e-09 437441 -3.20731e-09 2.56215e+07)
(8.20585e+07 -1.32214e+07 -3.25858e-09 643491 8.9981e-10 2.40839e+07)
(6.78519e+07 -941400 5.74743e-09 482333 1.51584e-09 2.03757e+07)
(2.47506e+07 -1.14447e+07 -2.38902e-09 -1.06083e+06 2.15846e-10 8.36103e+06)
(6.77342e+07 -1.9869e+06 0 1.75105e+06 0 2.11017e+07)
(1.09638e+08 -2.47922e+06 8.59153e-09 -111454 3.15624e-09 3.2775e+07)
(6.68893e+07 -1.58557e+06 1.09983e-08 1.67456e+07 2.12109e-09 2.54463e+07)
(7.96433e+07 -1.3022e+07 1.09252e-08 1.09202e+06 1.79647e-09 2.44187e+07)
(6.70798e+07 -2.41278e+06 -6.8255e-10 5.89636e+06 -3.12312e-12 2.15958e+07)
(1.60436e+08 -3.01467e+06 1.33424e-09 1.51363e+07 4.76357e-10 5.15373e+07)
(8.43184e+07 -1.25434e+07 1.22428e-08 726067 -1.27841e-09 2.51739e+07)
(6.70924e+07 -203061 1.04402e-08 165576 3.66504e-09 2.02293e+07)
(1.18312e+08 -2.72076e+07 -2.16734e-08 4.9647e+06 -5.45455e-09 3.22998e+07)
(7.05291e+07 -1.74934e+07 5.65869e-09 1.08504e+06 -1.99911e-09 2.15235e+07)
(9.91688e+07 -5.56859e+06 8.22717e-09 -1.91715e+07 4.4204e-09 2.30812e+07)
(4.27429e+07 -3.82364e+06 1.15428e-09 9.65006e+06 -6.50771e-10 1.65168e+07)
(4.24336e+07 -4.45431e+06 -3.59625e-09 8.6937e+06 -5.09332e-11 1.44687e+07)
(1.17607e+08 1.44338e+07 1.07093e-08 -4.84113e+06 9.43662e-09 3.26931e+07)
(6.58e+07 -1.14762e+06 1.02484e-08 1.75485e+07 1.77541e-09 2.49001e+07)
(1.05239e+08 515402 8.27783e-09 -1.46281e+07 7.7487e-09 2.64701e+07)
(1.10079e+08 1.57718e+07 -5.28048e-09 -2.86213e+06 -5.9902e-09 3.10565e+07)
(6.34698e+07 -1.8267e+06 -1.75048e-09 1.43833e+07 8.01913e-10 2.3537e+07)
(6.15203e+07 -5.14385e+06 -3.11769e-09 1.19146e+07 1.47949e-09 2.24924e+07)
(6.12383e+07 -4.86458e+06 3.47015e-09 1.2021e+07 -8.65672e-10 2.14279e+07)
(6.819e+07 -7.17615e+06 4.99252e-09 5.32583e+06 -3.00899e-09 2.22587e+07)
(5.83082e+07 -2.3699e+07 -1.20317e-08 -1.86464e+07 -5.52465e-09 1.1932e+07)
(6.9937e+07 -951164 -6.26057e-09 252732 8.21854e-10 2.12691e+07)
(8.06016e+07 -1.75348e+07 -2.21955e-08 -1.88888e+07 -1.24601e-08 1.9333e+07)
(6.64372e+07 -2.38185e+06 -9.01754e-09 1.60646e+07 -3.5639e-11 2.50093e+07)
(6.70479e+07 -1.19612e+06 -4.37845e-09 6.4126e+06 -5.93067e-10 2.24351e+07)
(8.6272e+07 -1.9598e+06 -5.81191e-09 574629 3.67729e-09 2.65223e+07)
(5.90772e+07 -5.12209e+06 6.61842e-10 1.15128e+07 -9.56689e-10 2.12436e+07)
(1.0946e+08 1.4736e+07 -1.79749e-08 -4.15102e+06 -1.79612e-08 3.22039e+07)
(1.09519e+08 1.38381e+07 -5.02573e-09 -5.30248e+06 -1.78707e-09 3.12971e+07)
(6.5245e+07 -6.66626e+06 4.20235e-09 1.07454e+07 2.00437e-10 2.2668e+07)
(3.69569e+07 -2.97636e+07 -1.65795e-08 1.98921e+07 1.45408e-08 2.51216e+07)
(6.75394e+07 -493835 9.10728e-10 18673 -1.25605e-09 2.03116e+07)
(1.06346e+08 -4.82436e+06 8.04491e-09 -1.61144e+06 5.30626e-09 3.18366e+07)
(4.70581e+07 -1.68233e+07 4.69584e-09 3.16384e+06 2.24721e-09 1.58899e+07)
(6.72184e+07 -4.39971e+06 -3.71601e-09 7.26368e+06 -1.75289e-09 2.22076e+07)
(1.10687e+08 -2.96701e+06 -1.21767e-08 -1.57323e+06 -4.31764e-09 3.23165e+07)
(2.63275e+07 -3.03728e+06 -5.30987e-10 2.49433e+06 -4.45711e-10 7.09085e+06)
(1.10518e+08 1.14513e+07 1.72336e-08 -7.82655e+06 1.63174e-08 3.07636e+07)
(6.69977e+07 -3.68183e+06 4.17326e-09 6.72928e+06 1.87836e-09 2.2115e+07)
(6.96091e+07 -176349 4.58013e-09 -136842 3.969e-10 2.0898e+07)
(1.11494e+08 -891586 2.54823e-08 307598 4.51781e-09 3.31527e+07)
(6.86662e+07 -3.96439e+06 0 2.79193e+06 0 2.1352e+07)
(6.84564e+07 -3.20567e+06 -5.69901e-09 2.27083e+06 -2.56702e-09 2.13445e+07)
(6.6346e+07 -4.71776e+06 -4.48755e-09 1.1542e+07 -1.69586e-09 2.33816e+07)
(6.60654e+07 -5.33007e+06 4.39354e-10 1.10632e+07 -1.51958e-11 2.32202e+07)
(6.72591e+07 -1.27499e+07 -5.55721e-10 5.3283e+06 3.18056e-09 2.2319e+07)
(1.01129e+08 -2.90629e+07 7.82032e-09 6.76565e+06 1.64181e-08 3.70256e+07)
(1.11392e+08 -1.13531e+06 -1.0416e-08 -904967 -6.32787e-09 3.35222e+07)
(4.9127e+07 -3.41587e+06 -1.22083e-09 1.08277e+07 -1.76771e-09 1.86552e+07)
(5.62519e+07 -8.21649e+06 -3.88397e-09 1.02121e+07 -7.02137e-10 2.01702e+07)
(5.66483e+07 -7.62694e+06 6.00201e-09 1.03217e+07 2.00216e-09 1.97485e+07)
(7.18132e+07 -1.20206e+07 -9.25674e-10 3.44657e+06 3.77079e-09 2.26618e+07)
(5.73759e+07 -1.57511e+07 1.29508e-08 5.58437e+06 4.41843e-09 1.891e+07)
(5.53071e+07 -1.49546e+07 3.69641e-09 5.73751e+06 -6.40674e-10 1.83814e+07)
(7.35512e+07 -1.98139e+07 1.83789e-08 -2.02416e+07 1.02195e-08 1.71347e+07)
(6.30133e+07 -1.79995e+07 1.41025e-08 2.0486e+06 3.62232e-09 1.94954e+07)
(6.22058e+07 -1.29942e+07 -4.12887e-09 6.98393e+06 6.13672e-10 2.09957e+07)
(2.46014e+08 -1.02171e+07 0 5.21467e+06 0 8.38216e+07)
(4.33196e+07 -2.12124e+07 3.19782e-10 -1.20278e+07 -3.65404e-10 9.27913e+06)
(1.47271e+08 -1.73469e+07 -2.02377e-08 8.9829e+06 -1.17006e-08 4.36681e+07)
(1.16597e+08 1.02769e+06 -8.25592e-09 -1.44815e+06 -5.83797e-09 3.48456e+07)
(6.90845e+07 -6.34563e+06 -6.3581e-09 3.80599e+06 -1.73224e-09 2.20692e+07)
(6.69979e+07 -992566 -9.64606e-09 2.00206e+06 -2.19642e-09 2.08832e+07)
(6.65903e+07 -884837 -4.73864e-09 1.97595e+07 -5.22006e-10 2.57736e+07)
(6.70019e+07 -715227 -7.66416e-09 1.08984e+06 -5.38121e-09 2.0408e+07)
(5.47649e+07 -1.83799e+07 2.56325e-09 1.02427e+06 4.71124e-10 1.73213e+07)
(5.78658e+07 -1.91315e+07 6.98325e-09 671571 2.16748e-09 1.74234e+07)
(4.68676e+07 -1.66305e+07 5.2575e-09 1.98799e+06 2.29941e-09 1.44042e+07)
(6.45277e+07 -6.69048e+06 -1.53529e-09 1.11201e+07 -3.05177e-10 2.27995e+07)
(4.84819e+07 -2.34854e+07 7.01822e-10 -1.22961e+07 2.85262e-10 1.10268e+07)
(6.48235e+07 -2.22201e+07 7.92407e-09 -1.28669e+07 3.72576e-09 1.63128e+07)
(6.74866e+07 -1.73648e+07 -6.92093e-09 1.6192e+06 -8.29115e-10 2.12123e+07)
(7.15755e+07 -1.13697e+07 -6.82008e-09 3.66019e+06 -1.86734e-10 2.23148e+07)
(1.07608e+08 -4.70667e+06 -1.12492e-08 -1.87135e+07 -7.70237e-09 2.75214e+07)
(1.0197e+08 -4.55799e+06 -1.64868e-08 -7.15606e+06 -1.14851e-08 2.93364e+07)
(2.511e+08 -7.7868e+06 -5.64114e-09 1.48831e+07 5.21761e-09 6.80373e+07)
(6.69276e+07 -197592 -6.17278e-10 1.90863e+07 -1.35856e-09 2.57919e+07)
(6.68067e+07 -179705 -4.23395e-09 1.48118e+06 -7.75616e-09 2.06163e+07)
(9.61292e+07 -8.9539e+06 -4.72227e-09 -8.93912e+06 -2.0442e-09 2.64762e+07)
(7.98183e+07 -1.63195e+07 -1.18909e-09 -1.64803e+07 -7.69125e-10 1.81481e+07)
(2.08313e+08 -3.81594e+07 6.35908e-09 1.6572e+07 1.77696e-09 5.84889e+07)
(5.92713e+07 -1.56221e+07 4.59987e-09 5.10734e+06 1.39886e-09 1.89508e+07)
(5.07719e+07 -1.44411e+06 6.89014e-09 1.12293e+07 8.33297e-10 1.91127e+07)
(6.20649e+07 -1.53693e+07 6.43847e-09 5.47636e+06 1.86748e-10 2.03074e+07)
(9.17623e+07 -1.32345e+07 1.4536e-08 -1.77534e+07 1.07467e-08 2.18845e+07)
(8.13459e+07 -1.19944e+07 8.19775e-09 1.05343e+06 3.07513e-09 2.4876e+07)
(9.82406e+07 -1.41197e+07 0 -1.87695e+07 0 2.35279e+07)
(5.20872e+07 -2.25246e+07 -2.94336e-10 -2.16055e+07 -3.42643e-09 8.62428e+06)
(6.7196e+07 -3.14334e+06 5.27185e-09 5.02716e+06 2.3256e-09 2.18195e+07)
(5.28004e+07 -6.35195e+06 3.21007e-09 1.06977e+07 2.0505e-09 1.82664e+07)
(5.11442e+07 -6.00511e+06 -7.20598e-09 1.04697e+07 2.79606e-09 1.91159e+07)
(7.24783e+07 -1.83088e+07 -5.34164e-09 -2.16168e+07 2.56935e-10 1.5096e+07)
(1.06118e+08 -1.97997e+06 2.73381e-08 -1.84967e+07 2.44726e-08 2.52371e+07)
(5.89033e+07 -6.52051e+06 4.42372e-09 1.09341e+07 -1.74115e-09 2.09244e+07)
(8.11583e+07 -5.31082e+06 -5.24169e-09 269020 4.92587e-09 2.44804e+07)
(5.81575e+07 -1.91612e+07 -8.17458e-09 -710025 -2.44076e-09 1.64127e+07)
(5.78439e+07 -2.01063e+07 -8.38653e-09 -2.0911e+06 -2.14467e-09 1.7515e+07)
(6.36012e+07 -1.31977e+07 4.31858e-09 6.77584e+06 -2.73683e-10 2.08691e+07)
(9.75958e+07 -6.84599e+06 0 -7.46661e+06 0 2.64134e+07)
(1.39681e+08 -2.2428e+07 -2.02091e-08 7.85823e+06 -8.54612e-09 5.1299e+07)
(7.73635e+07 -9.59225e+06 9.67772e-10 1.56876e+06 3.3537e-09 2.37591e+07)
(1.07974e+08 1.32405e+07 -1.72039e-08 -4.34046e+06 -1.22548e-08 3.0985e+07)
(1.20034e+08 1.29372e+06 -1.40972e-08 -6.48035e+06 -1.026e-08 3.28466e+07)
(1.26099e+08 7.03864e+06 -8.9033e-09 -7.55213e+06 -4.21052e-09 3.41827e+07)
(6.72882e+07 -459639 -5.39646e-09 405927 -2.57848e-10 2.02381e+07)
(8.64433e+07 -1.31922e+07 9.30098e-09 -1.27701e+06 3.47714e-09 2.57001e+07)
(6.75624e+07 -5.36333e+06 9.48305e-11 6.11608e+06 -1.92567e-09 2.22725e+07)
(9.86842e+07 -6.4107e+06 -6.14528e-09 -1.81122e+07 -3.40982e-09 2.31393e+07)
(8.51887e+07 -1.36054e+07 6.96426e-09 -367531 -1.80763e-09 2.51695e+07)
(1.06433e+08 1.3778e+07 -1.07243e-08 7.07304e+06 -6.92448e-09 3.36593e+07)
(6.03032e+07 -1.07687e+07 5.07509e-09 8.71504e+06 -6.85912e-10 2.04423e+07)
(7.29018e+07 -8.90057e+06 4.58074e-10 2.28079e+06 2.23592e-10 2.301e+07)
(7.25852e+07 -8.49211e+06 -5.5243e-09 2.76738e+06 -3.598e-10 2.21723e+07)
(8.19011e+07 -6.50529e+06 1.22065e-08 536876 3.37774e-10 2.46753e+07)
(1.09305e+08 2.9697e+06 -4.21511e-09 -3.46361e+06 -2.46928e-09 3.11397e+07)
(6.08502e+07 -1.49993e+07 0 5.61156e+06 0 1.97125e+07)
(4.42365e+07 -7.77407e+06 6.19538e-10 9.03053e+06 3.68134e-11 1.61265e+07)
(6.68927e+07 -1.73575e+06 3.44396e-09 2.95854e+06 -2.44113e-09 2.08823e+07)
(6.77168e+07 -5.8353e+06 0 6.47249e+06 0 2.20005e+07)
(6.60782e+07 -6.89565e+06 1.95679e-09 9.72277e+06 1.61759e-09 2.23692e+07)
(6.55955e+07 -7.88853e+06 -2.86712e-09 9.26448e+06 7.11039e-10 2.22684e+07)
(8.984e+07 -1.17133e+07 1.02118e-08 -1.39107e+07 5.59128e-09 2.2782e+07)
(5.07973e+07 -1.65424e+06 2.01259e-10 1.05619e+07 -1.01938e-11 1.80851e+07)
(9.0333e+07 -1.10139e+07 -1.6485e-08 -1.61758e+07 -1.11836e-08 2.24009e+07)
(2.11979e+08 -4.89036e+07 1.22771e-08 1.71315e+07 -9.33504e-10 7.18835e+07)
(6.10793e+07 -3.28781e+06 5.39774e-09 1.27374e+07 3.04293e-10 2.22255e+07)
(6.23988e+07 -4.24717e+06 4.8422e-09 1.23968e+07 -5.69838e-10 2.21276e+07)
(1.16634e+08 -211242 -7.60917e-09 604155 -4.54833e-10 3.47289e+07)
(5.18005e+07 -2.35685e+07 -1.28018e-08 -2.23422e+07 -7.97681e-09 9.82392e+06)
(6.6746e+07 -2.45827e+06 -1.58059e-09 7.91115e+06 -1.04466e-09 2.28968e+07)
(1.40049e+08 4.49024e+06 2.3884e-09 1.78144e+07 -2.32065e-09 4.75708e+07)
(5.72687e+07 -5.19135e+06 2.89783e-09 1.13258e+07 9.39402e-10 2.06529e+07)
(8.72657e+07 -761445 -8.22199e-09 5.7507e+06 -1.81715e-10 2.87395e+07)
(6.61838e+07 -1.88314e+06 -3.55303e-11 1.72652e+07 9.9866e-11 2.50294e+07)
(6.64447e+07 -1.92239e+06 3.79635e-09 1.72276e+07 2.30504e-09 2.55849e+07)
(6.7532e+07 -1.96196e+06 -1.76956e-09 2.19842e+06 4.7717e-09 2.08892e+07)
(6.72818e+07 -1.47234e+06 2.1775e-09 2.02751e+06 -5.3419e-10 2.04592e+07)
(6.83786e+07 -911980 -4.00888e-09 248970 -2.25822e-09 2.04123e+07)
(3.09116e+07 -1.37394e+07 -4.21618e-09 -120720 -8.73878e-10 9.27878e+06)
(3.13735e+07 -1.20666e+07 3.55022e-09 2.00385e+06 1.92143e-10 9.6499e+06)
(1.21547e+08 7.75524e+06 -5.54052e-09 -7.53002e+06 -8.30118e-09 3.60245e+07)
(1.23134e+08 9.062e+06 2.53337e-08 -6.1524e+06 2.11689e-08 3.53997e+07)
(1.07089e+08 3.98881e+06 2.41286e-08 -1.15369e+07 1.81219e-08 2.79454e+07)
(6.92652e+07 -6.07244e+06 -4.5527e-09 3.6001e+06 2.81146e-11 2.17497e+07)
(6.63081e+07 -830077 4.1096e-09 1.76566e+07 3.4413e-10 2.53067e+07)
(5.68393e+07 -2.34869e+07 -1.14823e-08 -1.28213e+07 -4.58528e-09 1.34134e+07)
(2.88994e+07 -1.17849e+07 -3.8342e-09 -1.43614e+06 -9.79542e-10 7.48092e+06)
(8.57509e+07 -4.79051e+06 1.62133e-09 96672.2 -7.48039e-09 2.65601e+07)
(6.61197e+07 -6.73945e+06 9.49623e-09 9.23216e+06 3.27664e-09 2.30073e+07)
(1.06692e+08 2.87946e+06 -1.95939e-08 -1.04148e+07 -1.53164e-08 2.91075e+07)
(1.19949e+08 1.18476e+07 -2.65303e-09 -7.83866e+06 -9.16169e-10 3.32229e+07)
(1.39903e+08 3.65093e+06 2.03449e-09 2.52887e+07 2.60785e-09 4.70881e+07)
(5.65875e+07 -1.81112e+07 3.22592e-09 2.12622e+06 -3.86899e-10 1.76069e+07)
(1.03363e+08 1.61469e+07 -6.62631e-09 1.3151e+06 -5.57608e-09 3.01774e+07)
(-1.51172e+06 3.21748e+06 4.34986e-09 -8.86969e+07 5.50161e-09 -2.91831e+07)
(1.12637e+07 -1.38248e+07 -1.51376e-09 -2.7641e+07 -1.75067e-09 -5.09286e+06)
(1.18256e+08 2.82526e+06 3.59892e-08 -1.204e+07 2.53127e-08 3.19085e+07)
(6.64289e+07 -1.46953e+06 5.2356e-09 1.75216e+07 1.8e-09 2.52565e+07)
(9.42395e+07 -8.91268e+06 -2.37814e-08 -1.9246e+07 -1.59205e-08 2.34822e+07)
(1.12891e+08 722888 0 453720 0 3.40295e+07)
(7.23669e+07 -3.12388e+07 -1.04304e-08 1.63676e+07 1.26141e-08 2.8532e+07)
(3.89645e+07 -1.60765e+07 -4.57841e-09 1.40448e+06 -6.92968e-10 1.24401e+07)
(7.02185e+07 -1.64181e+07 -7.16618e-09 1.99441e+06 -2.08969e-09 2.16342e+07)
(9.59859e+07 -1.04613e+07 -3.30384e-09 -2.23585e+07 9.39395e-10 2.31772e+07)
(3.9614e+07 -1.38317e+07 3.66063e-09 3.06843e+06 1.33768e-09 1.25063e+07)
(5.08824e+07 -4.05908e+06 -3.28714e-09 1.08624e+07 -9.01999e-10 1.76752e+07)
(5.53735e+07 -1.60578e+07 1.02325e-08 4.83921e+06 -9.27047e-10 1.78683e+07)
(9.30325e+07 -3.01352e+07 1.284e-08 1.01078e+06 1.27308e-08 2.90243e+07)
(6.58167e+07 -1.56449e+06 -2.73774e-11 1.74832e+07 -8.53648e-10 2.49609e+07)
(6.60442e+07 -7.71198e+06 8.00371e-09 8.8066e+06 2.43836e-09 2.2633e+07)
(1.12678e+08 1.70104e+07 4.81757e-09 3.16529e+06 4.44807e-09 3.42582e+07)
(6.49953e+07 -7.68379e+06 -3.56125e-09 9.63451e+06 4.11641e-10 2.27483e+07)
(1.02146e+08 -2.57239e+06 3.15641e-09 -1.56132e+07 1.3718e-09 2.63299e+07)
(9.97575e+07 -6.8678e+06 -7.91018e-09 27127.8 -1.6153e-09 3.00143e+07)
(-4.34365e+06 2.82532e+06 9.86572e-09 -8.95647e+07 2.21233e-08 -2.32499e+07)
(7.07449e+07 -1.58769e+06 4.62442e-09 343658 3.39347e-09 2.11222e+07)
(1.16072e+08 -1.92702e+06 0 -831839 0 3.41492e+07)
(7.92932e+07 -1.1853e+07 -1.10563e-08 1.60468e+06 -6.41849e-09 2.39382e+07)
(7.20143e+07 -5.28387e+06 6.2776e-09 1.49803e+06 5.82369e-10 2.17222e+07)
(7.12658e+07 -4.41998e+06 -7.26699e-10 1.03496e+06 -2.39635e-10 2.21585e+07)
(4.51744e+07 -1.25182e+07 -3.73304e-10 6.02981e+06 6.01727e-10 1.48438e+07)
(5.60045e+07 -2.13368e+07 8.20511e-09 -9.9963e+06 3.18421e-09 1.3346e+07)
(8.945e+07 -1.83551e+07 -1.40976e-08 -5.75091e+06 -8.03711e-09 2.72044e+07)
(9.5701e+07 -4.74747e+06 -6.10386e-09 312675 -5.83777e-09 2.94008e+07)
(9.50408e+07 -5.11152e+06 -9.818e-09 11827.3 -2.19138e-09 2.76651e+07)
(8.31012e+07 -1.36366e+07 -1.09599e-08 24633.8 -5.40297e-09 2.48047e+07)
(1.10906e+07 -1.41221e+07 1.49162e-08 -2.78389e+07 7.55908e-09 -4.147e+06)
(6.5574e+07 -8.67501e+06 -1.10608e-08 8.50887e+06 -1.35755e-09 2.24545e+07)
(1.18638e+08 1.93718e+06 -1.14641e-08 -698811 -7.92153e-09 3.46311e+07)
(1.04639e+08 -2.2695e+06 1.17354e-08 -5.65051e+06 7.43553e-09 2.87087e+07)
(6.67391e+07 -255598 -1.40591e-09 3.01923e+06 -2.20404e-09 2.08218e+07)
(8.53226e+07 -1.4041e+07 1.29936e-08 -1.8678e+06 6.11869e-09 2.50499e+07)
(1.25948e+08 -3.85406e+06 0 -7.99582e+06 0 3.32672e+07)
(7.14689e+07 -9.60617e+06 -9.39204e-09 3.62935e+06 -4.11845e-09 2.21617e+07)
(9.69502e+07 6.52766e+06 7.34571e-09 5.62034e+06 4.38941e-09 3.11669e+07)
(6.74358e+07 -944266 -1.02395e-08 767460 -1.28567e-09 2.05574e+07)
(8.45744e+07 6.10715e+06 -6.77008e-09 6.60442e+06 -3.86016e-09 2.74124e+07)
(6.02121e+07 -4.6676e+06 -3.48517e-09 1.20037e+07 -2.01925e-09 2.20747e+07)
(6.09981e+07 -3.58394e+06 2.87498e-09 1.20874e+07 1.38231e-09 2.18526e+07)
(6.71458e+07 -203305 0 2.08103e+07 0 2.62873e+07)
(6.67743e+07 -97487 -3.90988e-09 224605 -2.56731e-09 2.01736e+07)
(6.20442e+07 -7.63384e+06 -4.11529e-09 1.05794e+07 -3.48601e-09 2.20177e+07)
(4.83119e+07 -1.57724e+07 6.07365e-09 3.81183e+06 2.10109e-09 1.46731e+07)
(9.94714e+07 -1.11237e+07 -3.72598e-09 -2.11617e+07 -2.21485e-09 2.439e+07)
(1.17019e+08 1.00508e+07 2.10292e-08 1.01292e+07 1.04755e-08 3.81204e+07)
(8.62593e+07 -2.09874e+06 1.7173e-08 76945.8 3.61232e-09 2.52498e+07)
(1.17921e+08 -4.301e+06 1.22222e-09 -7.29155e+06 -3.72301e-09 3.50291e+07)
(1.06755e+08 -1.77118e+06 -2.16382e-08 -1.8251e+07 -1.81212e-08 2.78124e+07)
(4.62184e+07 -1.39501e+07 -4.48014e-10 6.23127e+06 1.16103e-09 1.58176e+07)
(1.18872e+08 1.22178e+07 -9.78022e-09 1.24278e+07 -6.02606e-09 3.96429e+07)
(6.77729e+07 -7.73499e+06 -3.83108e-09 6.00368e+06 3.70427e-09 2.24529e+07)
(3.73448e+07 -1.38316e+07 1.32942e-08 3.55003e+06 2.7106e-09 1.24296e+07)
(6.6766e+07 -446203 -2.49198e-09 7.89357e+06 -2.43063e-10 2.20886e+07)
(3.84408e+07 -1.14696e+07 1.45486e-09 3.65501e+06 -2.3739e-10 1.22855e+07)
(3.38301e+07 -9.73603e+06 2.62776e-09 4.69382e+06 -2.39198e-10 1.22056e+07)
(9.86942e+07 -8.18397e+06 5.53914e-10 -1.10851e+06 3.72013e-09 2.92396e+07)
(5.63731e+07 -1.90805e+07 2.63508e-08 -2.2195e+07 1.69206e-08 1.32196e+07)
(7.24088e+07 -1.67191e+07 -3.46743e-09 904050 -2.54747e-09 2.17563e+07)
(6.79369e+07 -1.30782e+06 -6.5155e-09 894157 -2.29614e-09 2.06119e+07)
(6.63451e+07 -778024 -1.66106e-09 1.99793e+07 1.63683e-09 2.6054e+07)
(6.70531e+07 -256444 6.04688e-09 223568 2.02229e-09 2.00845e+07)
(6.64428e+07 -9.55595e+06 -9.91284e-09 7.45415e+06 -2.54145e-09 2.2074e+07)
(3.40869e+07 -1.97857e+07 -3.46784e-09 -1.12672e+07 -8.79013e-10 6.59354e+06)
(1.06034e+08 1.26835e+07 4.05358e-09 6.77089e+06 4.58e-09 3.52627e+07)
(1.10178e+08 1.25966e+07 8.38769e-09 -6.62047e+06 4.9341e-09 3.12997e+07)
(1.05699e+08 -4.01217e+06 -2.33306e-08 -96489.5 -9.23838e-09 3.24824e+07)
(8.00762e+07 -3.78643e+06 2.96065e-08 59839.7 8.5618e-09 2.46054e+07)
(-1.02932e+06 1.05738e+07 4.25184e-09 -7.03095e+07 7.91948e-09 -1.76223e+07)
(1.82789e+06 -2.1164e+06 -6.67804e-09 -5.678e+07 -6.38392e-09 -1.74171e+07)
(5.11734e+07 -1.54302e+07 6.0865e-09 5.18423e+06 3.10243e-09 1.75594e+07)
(7.63145e+07 -5.67134e+06 -4.40258e-09 580897 -4.56319e-09 2.26685e+07)
(6.88287e+07 -1.98821e+07 -6.18062e-09 -1.25211e+07 -2.72962e-09 1.62762e+07)
(8.29846e+07 3.90873e+06 -2.16232e-09 4.09893e+06 -4.41477e-09 2.61229e+07)
(5.25238e+07 -1.9197e+07 -4.57843e-09 -1.47812e+06 -1.62174e-09 1.4029e+07)
(8.81462e+07 -4.25912e+06 -1.31535e-09 -36531.3 2.06572e-09 2.58566e+07)
(6.6041e+07 -9.49877e+06 4.64507e-09 7.65863e+06 4.81151e-11 2.22722e+07)
(5.53317e+07 -1.92631e+07 1.32931e-08 -23116.9 4.31214e-09 1.64726e+07)
(-2.16387e+06 -4.18718e+06 -6.55945e-10 -3.45495e+07 -3.8815e-09 -1.13425e+07)
(1.1194e+08 3.11337e+06 -1.61215e-08 -679369 -9.73951e-09 3.27336e+07)
(3.57981e+07 -7.93672e+06 -3.8855e-09 6.41384e+06 -3.33317e-10 1.29517e+07)
(7.49849e+07 -7.10753e+06 1.39577e-08 1.16636e+06 2.31885e-09 2.27903e+07)
(2.9728e+07 -2.06798e+07 8.1938e-09 -1.04581e+07 2.65807e-09 6.54051e+06)
(1.01568e+08 -4.68425e+06 -1.18238e-09 -6.25282e+06 -1.22975e-10 2.85269e+07)
(6.69748e+07 -1.14833e+06 -2.11669e-09 1.21581e+07 -6.68398e-10 2.40836e+07)
(6.60209e+07 -1.10868e+07 5.11747e-09 6.68521e+06 3.76338e-09 2.22734e+07)
(6.56666e+07 -566709 -2.95346e-09 1.64955e+07 7.63739e-10 2.44842e+07)
(6.7729e+07 -541818 5.1817e-09 90431.5 6.82806e-10 2.06262e+07)
(1.00629e+08 -7.54613e+06 7.13647e-09 -1.19446e+06 1.66976e-09 3.01689e+07)
(2.55102e+07 -1.69833e+07 -3.83443e-09 -6.88645e+06 -1.41313e-09 6.6833e+06)
(6.69321e+07 -43540.1 -6.1711e-09 -81181.4 -3.9402e-10 2.0212e+07)
(7.05765e+07 -9.70127e+06 7.18439e-09 3.85878e+06 1.42367e-10 2.24484e+07)
(8.56373e+07 8.28154e+06 -6.79185e-09 -947407 -3.8947e-09 2.43209e+07)
(6.91211e+07 -1.31911e+07 -6.6996e-11 4.80822e+06 7.55771e-10 2.19563e+07)
(6.06592e+07 -1.60142e+07 -4.31321e-09 4.95421e+06 -2.75616e-09 1.99843e+07)
(6.70625e+07 -1.2772e+07 3.90955e-09 6.03938e+06 2.87662e-09 2.1286e+07)
(6.6058e+07 -106583 0 1.80098e+07 0 2.52992e+07)
(7.35736e+07 1.04826e+06 2.78137e-09 -804393 1.60352e-09 2.30019e+07)
(7.78907e+07 -1.18106e+07 1.24077e-08 1.48155e+06 1.93272e-09 2.39759e+07)
(7.7516e+07 -1.34395e+07 -2.22905e-09 1.73939e+06 -2.27737e-09 2.38644e+07)
(7.03249e+07 -1.32377e+07 4.40347e-09 4.13182e+06 -2.75415e-10 2.22352e+07)
(1.28603e+08 -651643 -4.18993e-09 1.95697e+07 2.37135e-09 4.50996e+07)
(2.59231e+07 -2.41572e+06 2.48793e-10 4.16221e+06 -9.24224e-10 9.51377e+06)
(8.28361e+07 1.22132e+06 8.13007e-09 -985047 1.23256e-09 2.4216e+07)
(5.59201e+07 -1.61312e+07 -6.7509e-09 4.43265e+06 9.68028e-10 1.84463e+07)
(1.13577e+08 1.41731e+07 -7.60073e-09 7.67085e+06 -5.74412e-09 3.61773e+07)
(1.55588e+07 -1.24416e+07 2.54847e-08 -3.98263e+07 1.63909e-08 -6.74835e+06)
(1.03608e+08 1.39115e+07 7.92237e-09 4.31075e+06 6.96492e-09 3.30134e+07)
(7.81818e+07 -1.39638e+07 0 965215 0 2.37419e+07)
(1.08925e+08 3.90415e+06 1.76228e-08 -5.16556e+06 1.43655e-08 3.15369e+07)
(1.17757e+08 1.53575e+07 -1.0674e-08 -1.00024e+06 -9.44963e-09 3.5152e+07)
(6.72372e+07 -7.80089e+06 -3.8553e-09 7.51449e+06 8.12477e-10 2.20963e+07)
(6.11356e+07 -9.32179e+06 4.50023e-09 9.51397e+06 1.42586e-09 2.15492e+07)
(6.12477e+07 -1.00266e+07 9.4769e-09 9.11621e+06 1.07216e-09 2.08679e+07)
(2.72162e+07 -1.42929e+07 3.4165e-09 -5.54261e+06 1.18265e-09 5.93316e+06)
(2.7015e+07 -1.48149e+07 0 -1.88952e+06 0 7.65386e+06)
(6.62353e+07 -1.04147e+07 8.75432e-09 7.33611e+06 -2.76245e-10 2.17253e+07)
(6.69854e+07 -3.12439e+06 1.31111e-08 8.84763e+06 1.67096e-09 2.23211e+07)
(6.27781e+07 -1.72051e+07 -7.56669e-09 2.98561e+06 -2.88887e-09 1.98868e+07)
(3.34667e+07 -1.12595e+07 -1.51431e-09 3.38617e+06 1.64867e-10 1.08623e+07)
(6.68545e+07 -811396 -6.07388e-09 1.89265e+07 -9.61088e-10 2.53333e+07)
(6.68403e+07 -715315 2.12757e-08 1.17855e+06 6.75594e-09 2.08128e+07)
(8.0816e+07 -7.13521e+06 -6.80022e-10 964664 6.98461e-10 2.45185e+07)
(5.56281e+07 -268693 -3.83789e-10 1.17411e+07 -9.25614e-10 2.01457e+07)
(6.70511e+07 -3.04776e+06 -3.31766e-10 6.39251e+06 -1.37165e-09 2.22059e+07)
(7.26071e+07 -1.75184e+07 -7.25102e-09 406276 -8.24233e-10 2.19035e+07)
(6.69089e+07 -4.10786e+06 -6.54736e-11 9.23011e+06 -3.54934e-10 2.30436e+07)
(5.97081e+07 -1.15706e+07 -9.97137e-09 8.26713e+06 2.0453e-09 2.07296e+07)
(9.94501e+07 1.03364e+07 0 -693288 0 3.075e+07)
(9.85214e+07 1.02865e+07 -2.05357e-08 204129 -1.78679e-08 2.73389e+07)
(7.19297e+07 -1.88264e+07 -1.07293e-09 -2.14149e+06 -3.78609e-09 2.11137e+07)
(3.11009e+07 -1.70255e+07 4.75146e-09 -7.9496e+06 1.60594e-09 6.28386e+06)
(6.71008e+07 -1.75182e+07 2.01258e-08 2.10607e+06 6.8553e-09 2.0153e+07)
(7.21371e+07 -1.7516e+07 0 24417.7 0 2.07699e+07)
(3.269e+07 -1.66221e+07 -5.54464e-09 -3.06663e+06 -1.49642e-09 8.28567e+06)
(6.60574e+07 -3.84665e+06 2.73858e-10 1.38705e+07 1.09251e-09 2.37645e+07)
(6.77089e+07 -3.12049e+06 -3.3418e-09 3.58643e+06 -2.39457e-09 2.1454e+07)
(-2.32486e+06 -3.53561e+06 -5.3439e-09 -5.27009e+07 -3.62682e-09 -2.20935e+07)
(7.96676e+07 -312206 -1.28595e-08 -190625 6.38585e-10 2.38773e+07)
(6.69747e+07 -522011 -4.98233e-10 1.972e+07 1.04505e-10 2.59173e+07)
(6.6885e+07 -251351 9.53556e-09 295646 8.5864e-10 2.03381e+07)
(5.74191e+07 -3.6677e+06 7.16184e-10 1.17898e+07 4.10584e-11 2.08928e+07)
(-2.49035e+06 8.66218e+06 -6.94738e-09 -8.04768e+07 -1.6637e-08 -1.98552e+07)
(4.39007e+07 -1.47738e+07 1.59385e-09 5.10745e+06 -3.50487e-10 1.53998e+07)
(1.11098e+08 3.1396e+06 1.35779e-08 -3.62789e+06 9.41434e-09 3.28629e+07)
(6.56734e+07 -4.03883e+06 3.05025e-09 1.4129e+07 -4.34086e-10 2.40686e+07)
(6.80996e+07 -3.2892e+06 2.49685e-09 3.19778e+06 -1.22021e-09 2.10434e+07)
(7.478e+07 -1.78987e+07 1.22853e-08 -5.67908e+06 4.78153e-09 2.07234e+07)
(1.48296e+06 -2.87645e+06 -9.81923e-09 -5.04718e+07 -4.38648e-09 -1.47075e+07)
(8.05695e+07 -1.57721e+07 -9.00305e-09 -1.52679e+06 1.11234e-10 2.34163e+07)
(6.07638e+07 -2.11807e+07 -7.73338e-09 -1.27263e+07 -3.22145e-09 1.39289e+07)
(4.75096e+07 -7.72262e+06 6.29331e-09 9.02611e+06 1.76139e-09 1.68721e+07)
(7.99982e+07 -9.42038e+06 8.04233e-09 1.10455e+06 6.23171e-10 2.3845e+07)
(7.68613e+07 -1.20171e+07 5.59161e-09 1.93809e+06 -2.81091e-10 2.3481e+07)
(1.53087e+08 -1.22862e+07 9.37451e-09 9.02975e+06 3.71488e-09 5.0256e+07)
(5.58614e+07 -1.69912e+07 -3.50744e-09 3.86149e+06 1.53044e-09 1.80498e+07)
(-9.26274e+06 5.55375e+06 -6.77102e-09 -6.57005e+07 -1.05002e-08 -1.76546e+07)
(1.58144e+07 -1.70921e+07 4.17214e-09 -1.77575e+07 2.2159e-09 275917)
(6.56252e+07 -4.5635e+06 -2.0051e-09 1.32422e+07 1.55086e-09 2.36917e+07)
(7.03787e+07 -2.06237e+07 1.65766e-08 -2.48145e+07 4.09892e-09 1.51552e+07)
(7.03108e+07 -1.37323e+07 -9.40991e-10 3.94914e+06 1.95781e-09 2.23853e+07)
(7.5757e+07 -7.83638e+06 -1.80279e-08 1.39805e+06 -2.03787e-09 2.35803e+07)
(7.99975e+07 -9.74396e+06 -9.33144e-12 1.01688e+06 5.02683e-09 2.49199e+07)
(1.50164e+06 -3.1948e+06 0 2.70308e+06 0 2.31405e+06)
(1.44935e+08 3.97841e+06 -8.83078e-09 9.19905e+06 -6.34849e-09 4.38003e+07)
(5.93187e+07 -1.7056e+07 -5.19326e-09 3.84257e+06 -6.58502e-10 1.96995e+07)
(9.51891e+07 -1.00334e+07 -3.99731e-08 -2.05485e+07 -2.46051e-08 2.25912e+07)
(7.03483e+07 -1.92743e+07 -1.6567e-08 -2.25035e+07 -7.61554e-09 1.34072e+07)
(1.19953e+08 5.01888e+06 -1.97721e-08 1.7501e+07 -6.83688e-09 4.11505e+07)
(1.43979e+08 6.71857e+06 6.90711e-10 1.51421e+07 4.71496e-10 4.97458e+07)
(1.40931e+07 -1.1151e+07 -9.48196e-09 -3.50459e+07 -1.3414e-08 -8.09937e+06)
(6.81312e+07 -4.40901e+06 -7.3659e-09 3.5209e+06 -2.13356e-09 2.17859e+07)
(7.35585e+07 -7.40249e+06 -1.61563e-10 1.83807e+06 1.65155e-10 2.28919e+07)
(8.87751e+07 -1.28479e+07 -1.78834e-08 -3.46863e+06 -7.73328e-09 2.61775e+07)
(8.88489e+07 -1.28152e+07 -6.78782e-09 -3.51369e+06 -3.77527e-09 2.50673e+07)
(6.59434e+07 -1.43924e+07 -3.37139e-09 4.98883e+06 -1.77909e-09 2.17302e+07)
(6.8047e+07 4.80672e+06 8.81069e-09 1.96069e+06 2.41388e-09 2.04047e+07)
(1.13418e+08 1.48306e+07 -6.22721e-09 -4.3693e+06 -6.5868e-09 3.34719e+07)
(3.89464e+07 -1.00877e+07 2.26849e-09 6.82735e+06 6.36554e-10 1.30035e+07)
(6.65436e+07 -460128 1.76817e-09 2.14754e+07 -2.91439e-10 2.61849e+07)
(6.69267e+07 -166249 -1.09372e-08 35767.2 -4.82639e-09 2.01445e+07)
(6.80653e+07 -3.88379e+06 0 3.2515e+06 0 2.15207e+07)
(4.71696e+07 -2.17785e+07 -7.41113e-09 -7.57187e+06 -2.46601e-09 1.05487e+07)
(1.86574e+08 -2.38496e+07 -1.4046e-08 1.62938e+07 -6.35025e-09 6.47909e+07)
(7.95667e+07 -1.66976e+07 3.56321e-08 -2.0089e+07 2.03026e-08 1.68976e+07)
(5.8489e+07 -1.47466e+07 3.69815e-09 6.26026e+06 2.72056e-09 1.99359e+07)
(5.87557e+07 -1.63504e+07 -6.4703e-09 3.73912e+06 -7.4688e-10 1.83942e+07)
(5.2978e+07 -1.55437e+07 -1.46084e-08 5.25204e+06 -1.13322e-09 1.70611e+07)
(6.71489e+07 -213013 0 172886 0 2.0161e+07)
(2.08938e+07 -1.9785e+07 8.19449e-09 -2.295e+07 3.07406e-09 -1.68628e+06)
(6.67865e+07 -4.7213e+06 4.81906e-09 1.00126e+07 9.33086e-10 2.26538e+07)
(4.22189e+07 -2.19096e+07 1.81821e-08 -7.54974e+06 6.57396e-09 1.19124e+07)
(6.69298e+07 -362222 -3.00485e-09 1.32171e+07 -2.27396e-09 2.38265e+07)
(1.44061e+08 6.75838e+06 -6.45267e-09 1.29009e+07 -3.22365e-09 4.5783e+07)
(6.77984e+07 -4.36194e+06 -1.60987e-09 4.10687e+06 -4.6328e-10 2.15395e+07)
(6.6361e+07 -397079 -8.61353e-09 1.91207e+07 -1.67912e-09 2.55868e+07)
(1.32216e+08 1.23562e+07 -8.7018e-09 1.33008e+07 -6.981e-09 4.33922e+07)
(5.90371e+07 -7.01228e+06 -5.78076e-09 1.07423e+07 8.47583e-10 2.10195e+07)
(6.52615e+07 -3.88401e+06 2.52148e-09 1.41528e+07 -4.8904e-10 2.3694e+07)
(9.60169e+07 1.07456e+06 -9.98097e-09 -254229 -2.48406e-09 2.92465e+07)
(1.57671e+08 -5.38151e+07 0 2.47292e+07 0 4.78455e+07)
(6.33567e+07 -8.04576e+06 -3.0666e-09 9.99118e+06 2.82125e-09 2.19357e+07)
(2.21204e+07 -1.69716e+07 0 -1.84743e+07 0 159713)
(8.71939e+07 -9.23111e+06 1.91215e-09 469730 -3.14347e-09 2.67756e+07)
(9.35182e+07 -1.06054e+07 -9.92472e-09 -1.85153e+06 -6.47762e-09 2.68929e+07)