/*--------------------------------*- C++ -*----------------------------------*\
| =========                 |                                                 |
| \\      /  F ield         | OpenFOAM: The Open Source CFD Toolbox           |
|  \\    /   O peration     | Version:  v2012                                 |
|   \\  /    A nd           | Website:  www.openfoam.com                      |
|    \\/     M anipulation  |                                                 |
\*---------------------------------------------------------------------------*/
FoamFile
{
    version     2.0;
    format      ascii;
    class       volScalarField;
    location    "5";
    object      epsilonEq;
}
// * * * * * * * * * * * * * * * * * * * * * * * * * * * * * * * * * * * * * //

dimensions      [0 0 0 0 0 0 0];


internalField   nonuniform List<scalar> 
30465
(
0.000927793
0.00066727
0.00132002
0.00085712
0.000789732
0.000784606
0.00127149
0.00103116
0.00129702
0.00128682
0.000866945
0.00124823
0.000889683
0.000747079
0.00115742
0.00129024
0.000793031
0.00132843
0.00131069
0.000722605
0.000462125
0.000463553
0.000692759
0.00119551
0.000702729
0.000662016
0.00066426
0.000654218
0.000603377
0.0014347
0.00102602
0.000609575
0.000915099
0.00082001
0.000977088
0.000597423
0.0012717
0.000612534
0.000796316
0.00126015
0.000617221
0.00111724
0.00117935
0.0006482
0.000647291
0.00137012
0.00121393
0.00066561
0.000646835
0.000551803
0.000561552
0.000826169
0.000975381
0.000975759
0.00212684
0.000738368
0.00210347
0.000716104
0.000612423
0.000563827
0.000562056
0.00133747
0.000469358
0.000981051
0.00097434
0.00088982
0.00104542
0.0013874
0.000353591
0.000739778
0.000755763
0.000673814
0.00129599
0.00120184
0.000916983
0.00128076
0.000566984
0.000565747
0.00075544
0.000916303
0.00117105
0.00116006
0.000794305
0.000671866
0.000848843
0.000647351
0.000616455
0.00126728
0.000775366
0.000544657
0.000600642
0.00059829
0.000791023
0.000788741
0.00129508
0.000593694
0.000627697
0.00062619
0.00100197
0.000609228
0.000833644
0.000491453
0.000498576
0.00100917
0.00072232
0.00112964
0.0011296
0.000673022
0.000758991
0.000512625
0.00134205
0.000861053
0.00100502
0.000999809
0.000939936
0.000929462
0.000270988
0.000677271
0.000569558
0.0016515
0.00127475
0.000597685
0.000788311
0.000355178
0.000647945
0.000643624
0.000359121
0.000953306
0.000718258
0.000486245
0.00136901
0.000566375
0.00134152
0.00115244
0.000701841
0.000402385
0.00126144
0.000673983
0.00128099
0.00125779
0.000791859
0.00103009
0.000251505
0.000626365
0.000555927
0.00137058
0.000592611
0.000591878
0.00105493
0.000538884
0.000734616
0.00110608
0.000628462
0.000628735
0.000833734
0.000786027
0.00108885
0.000794732
0.00118577
0.000623884
0.000622467
0.001201
0.00108362
0.00109236
0.000283901
0.000564194
0.000623064
0.00124464
0.000685996
0.00120179
0.00087199
0.000575438
0.000602102
0.000600821
0.000677506
0.00121575
0.000946455
0.000963267
0.000265788
0.00099652
0.00124972
0.000963189
0.000965633
0.000752241
0.000716349
0.00088056
0.00111481
0.000673203
0.000567061
0.000784747
0.00128281
0.00066456
0.000558004
0.00100284
0.000797161
0.000799629
0.00127059
0.000791589
0.000769031
0.000931886
0.000573179
0.000607309
0.000551392
0.00120471
0.000957398
0.000785104
0.000423098
0.00122779
0.000999293
0.000600906
0.00130117
0.000772725
0.000319461
0.000639508
0.00136585
0.00109203
0.0010981
0.000672561
0.000669508
0.0012701
0.000921046
0.000887972
0.000622826
0.000703657
0.00103929
0.000564091
0.00133856
0.00114692
0.000541568
0.000874705
0.0013467
0.000612407
0.000612506
0.000739353
0.000730173
0.000335027
0.000932884
0.000924607
0.00123191
0.00123155
0.00123354
0.000867012
0.000841457
0.000969782
0.00065715
0.00117109
0.000993064
0.000902864
0.00139581
0.000731369
0.000780146
0.000457774
0.000448554
0.00134457
0.000941393
0.00135816
0.00127336
0.00129548
0.00106926
0.00121809
0.000672829
0.000789702
0.000808874
0.000411851
0.00139646
0.00139689
0.000775981
0.00118493
0.0009259
0.00075579
0.000563715
0.000735405
0.000608402
0.00078909
0.000697119
0.00119087
0.000587523
0.000829445
0.0014214
0.000445132
0.00142708
0.00089011
0.000630409
0.000748598
0.000601592
0.000734943
0.00108529
0.000672961
0.000536545
0.000734067
0.000959739
0.000907181
0.00078608
0.00135358
0.000569785
0.000701835
0.000566695
0.000328723
0.000331701
0.000581058
0.000879285
0.000877528
0.00129656
0.000523496
0.000509389
0.00123161
0.00123302
0.000576775
0.000699224
8.06066e-05
0.000885923
0.000890206
0.00106265
0.000699758
0.00141734
0.000983581
0.00120352
0.00121605
0.00116185
0.00190422
0.00114029
0.00188384
0.00122544
0.000435651
0.000694224
0.000686477
0.00174066
0.00111862
0.000780153
0.00136984
0.000224357
0.00128181
0.00046479
0.00102971
0.000623126
0.00114594
0.000619814
0.000640301
0.000635168
0.00113761
0.00107238
0.000832613
0.0013758
0.000619149
0.000747518
0.00112112
0.00112751
0.00125538
0.00119825
0.000590319
0.00109637
0.000543946
0.0010759
0.0010251
0.000861971
0.00108493
0.000401642
0.00121371
0.000731243
0.000606923
0.00116845
0.00115533
0.000649953
0.000736359
0.000568164
0.00125282
0.00092036
0.000336585
0.000586937
0.000987163
0.00229533
0.000595921
0.00125365
0.00120613
0.00120372
0.00110737
0.000750559
0.00096125
0.000684609
0.000805325
0.000921037
0.000741389
0.000716481
0.00110864
0.00106905
0.000536872
0.000352312
0.00124446
0.00124724
0.000364912
0.00143654
0.000470995
0.000519527
0.000536619
0.000901682
0.000740269
0.000312448
0.00055082
0.000743238
0.000741225
0.000572825
0.000576986
0.000956442
0.000328054
0.000962719
0.000869434
0.00100894
0.00087802
0.00074189
0.000512692
0.000735328
0.00107493
0.000627145
0.00115486
0.000831982
0.000557083
0.0005894
0.00150721
0.00123225
0.0012386
0.000602238
0.00114622
0.00132852
0.00106357
0.000558068
0.00106432
0.00128477
0.000933636
0.000858166
0.00106902
0.00136983
0.000649912
0.000539384
0.000775617
0.000773572
0.000736184
0.000521174
0.000817708
0.00146801
0.000416454
0.00137967
0.000780216
0.00078052
0.001214
0.000567314
0.000604967
0.000946663
0.000945277
0.00121762
0.000558067
0.0009041
0.000815276
0.00061743
0.00107122
0.000946363
0.00120837
0.000791333
0.000674925
0.00066949
0.00047009
0.000699058
0.000702722
0.00129676
0.000588785
0.000652943
0.00096475
0.000743389
0.000566395
0.000837696
0.000833542
0.0012934
0.00128275
0.000804823
0.00082394
0.000638199
0.00127462
0.000598857
0.00059879
0.000254367
0.000757015
0.000745307
0.000745428
0.000701264
0.000776468
0.00116992
0.000650443
0.00110812
0.00111
0.000819485
0.00107887
0.000612636
0.000564343
0.00074074
0.00117527
0.00135446
0.00123052
0.000747374
0.000628808
0.000767866
0.000781612
0.00129759
0.000656015
0.0006585
0.00172416
0.000629358
0.000961393
0.000682154
0.00127052
0.000559448
0.00137438
0.00140229
0.0012162
0.000891659
0.000611407
0.000662285
0.000664834
0.000670769
0.000288603
0.00092446
0.00107224
0.00176847
0.00101507
0.00114095
0.00073725
0.000672903
0.000943695
0.0013178
0.00106185
0.000878584
0.000598185
0.000676038
0.000543079
0.00115019
0.000365146
0.0012973
0.000515537
0.00171203
0.000637367
0.0007587
0.00119307
0.000846372
0.00101527
0.000886739
0.00160628
0.00155981
0.00115494
0.000685347
0.000687729
0.00110774
0.000762447
0.00101441
0.00134285
0.000760071
0.000810053
0.000566495
0.00108587
0.00099842
0.000590527
0.000895466
0.00115089
0.000789578
0.000578438
0.000998965
0.00179997
0.00152829
0.000683278
0.00069987
0.000640394
0.000461819
0.000450615
0.0011321
0.000819846
0.000264765
0.0011594
0.000794972
0.0011596
0.000592403
0.000592917
0.00103953
0.000846586
0.0012719
0.000705356
0.000380201
0.000537625
0.000551016
0.0008462
0.00075087
0.000723397
0.000756353
0.000753816
0.000735345
0.000537121
0.000735824
0.000520466
0.00135482
0.000700143
0.000699079
0.00106233
0.000983234
0.000718626
0.000946804
0.000629307
0.00061896
0.000626012
0.00137296
0.000536197
0.000507036
0.000505532
0.00107904
0.00093886
0.0012564
0.00125959
0.00118958
0.000755246
0.0017365
0.000933719
0.00128699
0.000851228
0.00176495
0.00131508
0.00059112
0.000541547
0.00107325
0.000567718
0.000497784
0.00138859
0.000604645
0.000834868
0.000601536
0.000860698
0.000377377
0.00107675
0.00119631
0.000611119
0.000615344
0.000625264
0.000996351
0.000606893
0.000316505
0.000599974
0.000958769
0.00117195
0.000528607
0.000589871
0.000649104
0.00113632
0.00108254
0.00119975
0.00058187
0.000778024
0.000738451
0.0015035
0.000583402
0.000636171
0.000883246
0.000561832
0.000729096
0.000684137
0.000735109
0.00125245
0.000465803
0.000612992
0.000611977
0.000720113
0.000533817
0.000734836
0.00071345
0.000712254
0.000715553
0.00124767
0.000701654
0.000725535
0.000329017
0.0015177
0.00127882
0.000790464
0.00076482
0.00131435
0.000623544
0.000767567
0.00102467
0.00114249
0.0007358
0.00102806
0.00152105
0.00130607
0.000703688
0.00062541
0.00062761
0.000848816
0.000848176
0.000705719
0.00104534
0.00092037
0.000588921
0.00109886
0.000584608
0.000581896
0.00125415
0.00140537
0.00125133
0.00124071
0.00094578
0.000770402
0.000769592
0.00128369
0.000882132
0.00119802
0.00107627
0.000678648
0.00104969
0.000559368
0.000562167
0.00105252
0.00125383
0.000576773
0.00126679
0.0012711
0.000922139
0.000587878
0.00121774
0.00122051
0.000879845
0.00121571
0.00118442
0.000643075
0.000914879
0.00147073
0.00102311
0.000790236
0.000642796
0.000644432
0.00101989
0.00164691
0.00103226
0.0015937
0.000575192
0.000884076
0.00110945
0.000936779
0.000655584
0.000646862
0.000476003
0.000475102
0.00121834
0.00157658
0.0015924
0.00102328
0.00128339
0.000783805
0.000829122
0.00127371
0.00139515
0.000551951
0.00141493
0.00116907
0.00131122
0.000768174
0.00109041
0.000515132
0.000853593
0.000503278
0.0013648
0.000554632
0.000549061
0.00106536
0.000983521
0.000492365
0.00048604
0.000568523
0.00101624
0.00100644
0.000400248
0.000787227
0.000812228
0.000721249
0.00110308
0.00111051
0.000566289
0.0013895
0.000913221
0.000557281
0.000942417
0.000615743
0.00061767
0.00100024
0.000925671
0.000739878
0.000742045
0.000926836
0.000717111
0.000717783
0.00131109
0.000626481
0.00111452
0.00073736
0.000695107
0.000806086
0.000715338
0.000536758
0.000278085
0.000986206
0.000578816
0.000578501
0.0011124
0.00118555
0.00055918
0.00108246
0.000383798
0.000315743
0.000659561
0.00118523
0.000607757
0.000613942
0.00065745
0.000656467
0.000545688
0.000756953
0.000758898
0.000494674
0.000494108
0.000352758
0.000704029
0.000705181
0.000270855
0.000697963
0.00112384
0.000651238
0.000773714
0.000737659
0.000774806
0.000471226
0.00121462
0.00116856
0.00132286
0.000701909
0.000818708
0.00132871
0.00123178
0.00124671
0.00102993
0.00036049
0.000763856
0.000928321
0.000730008
0.000727242
0.000930312
0.000925867
0.000414458
0.0012648
0.00126662
0.000879428
0.00144128
0.000881931
0.000885143
0.00156834
0.000700288
0.00121277
0.00054851
0.000397955
0.0012377
0.000489445
0.0013454
0.00065138
0.00122293
0.00103459
0.000679104
0.00132386
0.000762785
0.000952425
0.00125088
0.000755211
0.000395606
0.00125125
0.00134751
0.000649617
0.000682416
0.000684213
0.000683352
0.00140984
0.000673078
0.000615545
0.000611062
0.000740834
0.000519028
0.000606918
0.000463975
0.000804471
0.000897414
0.000764449
0.000777133
0.000741811
0.00112545
0.00115755
0.000647257
0.000887881
0.00106759
0.000664094
0.000795004
0.000549952
0.00150458
0.00114678
0.000793888
0.000787962
0.000628748
0.000606515
0.00122544
0.000770819
0.00137346
0.000692381
0.00149605
0.000535559
0.000535987
0.000408391
0.000413174
0.000843499
0.00141307
0.00110719
0.000566838
0.00140795
0.000921496
0.00129063
0.000747891
0.00127446
0.000650486
0.00100185
0.000631256
0.00121311
0.000629295
0.00125857
0.000897952
0.00125265
0.000579847
0.00127752
0.00129213
0.001247
0.000745655
0.000696745
0.000681961
0.0013163
0.000975321
0.000750736
0.00132127
0.00130658
0.0014073
0.00127897
0.00103111
0.000957999
0.000887168
0.00101819
0.000836549
0.000550583
0.000672879
0.0012032
0.000564374
0.000933785
0.000652206
0.00129897
0.000737033
0.000559807
0.000577804
0.00057263
0.00103102
0.0012373
0.00126568
0.00122403
0.000803651
0.00105825
0.000466534
0.000801424
0.00116237
0.00148238
0.00083627
0.000481741
0.000705702
0.000810361
0.000685021
0.000703604
0.00117878
0.000479818
0.000847367
0.000929331
0.000426342
0.000621077
0.000719094
0.000785679
0.00127526
0.000562295
0.000921097
0.000763394
0.000710404
0.000713853
0.000458003
0.000357543
0.000345647
0.0010346
0.000875324
0.00139018
0.00189213
0.000960851
0.000746328
0.00121558
0.000548126
0.000781731
0.000657458
0.000793325
0.00112905
0.00112166
0.000309653
0.00220122
0.000400556
0.00220671
0.000643541
0.000994347
0.000536466
0.000535255
0.000969748
0.000945037
0.000610438
0.00104674
0.00057895
0.00122027
0.00121717
0.000713033
0.000769752
0.00118595
0.00110499
0.00075477
0.000754459
0.00108074
0.000413578
0.000599633
0.00105947
0.000575453
0.000542804
0.000430217
0.00238963
0.000800198
0.0006146
0.000686545
0.000573011
0.000634473
0.0011739
0.00106983
0.00116759
0.000740978
0.000707872
0.00117764
0.000886686
0.000852412
0.000603544
0.000895947
0.000418788
0.00056362
0.000738951
0.00130113
0.000624472
0.0014016
0.00107953
0.00125555
0.000621537
0.000617396
0.000725822
0.000325765
0.000752362
0.000749975
0.000335384
0.00146377
0.000551662
0.0006727
0.00121284
0.000877206
0.000880344
0.000559065
0.00101068
0.00132835
0.00138703
0.000748825
0.00100741
0.000706797
0.00071607
0.00118059
0.000871716
0.00048204
0.000488624
0.00127732
0.00107718
0.00119586
0.000674271
0.000707265
0.00115949
0.000646394
0.0012171
0.000688858
0.00079412
0.00156858
0.000550768
0.000213208
0.000547394
0.000887873
0.000680251
0.000686387
0.000503687
0.000499721
0.000561694
0.00056333
0.00106064
0.000819534
0.000696153
0.000589372
0.000528219
0.00073763
0.000983433
0.000439603
0.00110514
0.000895472
0.00114336
0.000414377
0.000944162
0.000746197
0.000377301
0.000383227
0.00124672
0.000761665
0.000789755
0.00116825
0.000566419
0.00056603
0.000960338
0.000919866
0.000955635
0.00113452
0.000835897
0.000406091
0.00136199
0.000435781
0.00091859
0.00113928
0.00100917
0.000925954
0.00111058
0.000663045
0.00066475
0.000350748
0.000555874
0.000574097
0.000571309
0.000402254
0.000553599
0.000761221
0.000604045
0.00055525
0.000897122
0.000585683
0.0012427
0.000901193
0.00124151
0.00083509
0.0005893
0.000567637
0.000564279
0.00119885
0.000972899
0.000320858
0.00056791
0.000915307
0.00112972
0.000732023
0.000730258
0.000679432
0.00101147
0.000833872
0.0012989
0.000928287
0.00104941
0.00100794
0.000609734
0.000911819
0.000701595
0.00105837
0.000699886
0.000667399
0.000602937
0.000727185
0.000341898
0.000897203
0.00107066
0.00134357
0.000384398
0.000573633
0.000690301
0.00123888
0.000856154
0.000854742
0.000801345
0.000845102
0.000561972
0.000565492
0.000696942
0.000813924
0.00107742
0.00107978
0.000622904
0.00110353
0.000781359
0.000783792
0.00157873
0.000557506
0.000737013
0.000432253
0.00114769
0.000839576
0.000843646
0.000555469
0.0013197
0.00112443
0.000661487
0.000413595
0.00124334
0.000694404
0.000737384
0.000566304
0.000564839
0.00106082
0.000576639
0.00106898
0.00077531
0.000776694
0.00137113
0.00107117
0.000564872
0.00257879
0.00107086
0.00054294
0.000732237
0.00070339
0.000657617
0.00150426
0.000758962
0.00129922
0.000652932
0.000966109
0.000730264
0.000655023
0.000649151
0.000860112
0.000512559
0.00138818
0.00105772
0.00106562
0.000990575
0.000672855
0.000813169
0.000804308
0.000743022
0.00113223
0.00104168
0.000532867
0.000531221
0.000750043
0.000707111
0.000497589
0.000785172
0.00106523
0.00103413
0.000528173
0.000736199
0.000964788
0.00053685
0.000733198
0.00116423
0.000775722
0.000714799
0.000800547
0.000648854
0.000581137
0.000698629
0.000806195
0.000893978
0.000743354
0.000740438
0.00127218
0.000563263
0.000566748
0.00117395
0.00031584
0.00147186
0.000806051
0.000909705
0.0012185
0.000784958
0.00122773
0.000466834
0.000678593
0.00110259
0.00153415
0.00168791
0.000644968
0.000936503
0.000459753
0.00119202
0.00134631
0.000642242
0.00054648
0.00163397
0.000584217
0.00102086
0.000549659
0.00207407
0.00031985
0.00057656
0.000310472
0.000493411
0.000481735
0.00127262
0.00125983
0.000559727
0.00200912
0.000238118
0.000675461
0.00169483
0.000216184
0.000567593
0.000502372
0.000812566
0.000631751
0.000751713
0.000747713
0.000740643
0.000780457
0.000730085
0.000724039
0.000329313
0.000825895
0.00104283
0.000656243
0.000809556
0.00115104
0.000802962
0.000820125
0.00101319
0.000585906
0.00120344
0.000608431
0.00129789
0.000560981
0.000557992
0.000544742
0.000795341
0.000287233
0.00115505
0.000560497
0.000546699
0.000484154
0.0013604
0.000545043
0.000741832
0.000357661
0.000307974
0.000603199
0.00103405
0.00053615
0.00115323
0.000532028
0.000724936
0.0010829
0.00109163
0.000368608
0.0011537
0.00039828
0.000573184
0.000752526
0.000754882
0.000733691
0.00110925
0.000623065
0.000612289
0.00125856
0.000701795
0.0011956
0.000387309
0.000677246
0.000406446
0.000372021
0.00122345
0.00122264
0.000576562
0.000577039
0.000775761
0.000930751
0.00068507
0.000574832
0.000737065
0.000916185
0.000745025
0.00120583
0.000744003
0.000670107
0.000842021
0.00119399
0.000575113
0.000485916
0.000847007
0.000688128
0.000628078
0.000602522
0.000646323
0.000554062
0.00133043
0.000846902
0.000663143
0.000570511
0.00113415
0.00125647
0.00132545
0.000727192
0.00178707
0.00108648
0.000668068
0.00133364
0.000359402
0.00124814
0.000449885
0.00101049
0.000357705
0.000588943
0.00070613
0.000598271
0.00059752
0.00095459
0.000824933
0.00079642
0.000790021
0.00124792
0.000841374
0.000556578
0.00107883
0.000976942
0.00128989
0.000687744
0.000716404
0.00136521
0.000555318
0.00097498
0.00131944
0.000583111
0.00109405
0.000970702
0.000517685
0.000415285
0.000700611
0.000900919
0.000739489
0.00105962
0.00106905
0.00049717
0.000579034
0.000746887
0.00134888
0.00136867
0.000539851
0.000651102
0.000673013
0.000923335
0.00121511
0.00135216
0.000367537
0.000896161
0.000842616
0.000801137
0.000678559
0.00062096
0.00105683
0.000849285
0.000637829
0.000674374
0.0011741
0.000944614
0.000716421
0.000872831
0.000524283
0.000827074
0.00115054
0.000573736
0.0011865
0.000736439
0.000970896
0.000585172
0.00125074
0.000909394
0.000995822
0.000579018
0.000900751
0.000766869
0.00136035
0.000687478
0.000687089
0.000539162
0.000551599
0.000494955
0.00124348
0.000938171
0.000841069
0.000812633
0.000849971
0.000845657
0.00144538
0.000672664
0.000575191
0.00078982
0.000796887
0.000864128
0.000502894
0.000823459
0.000622337
0.000259713
0.000434121
0.00138526
0.000568703
0.000830494
0.000787599
0.00111495
0.00126092
0.00087732
0.000701651
0.00110134
0.00109193
0.000568123
0.000742072
0.000734873
0.00075251
0.00118989
0.00118795
0.000675584
0.000353642
0.000729331
0.00120339
0.00149896
0.001356
0.000571243
0.000541702
0.00107401
0.00122769
0.000996273
0.000791332
0.000886804
0.000498438
0.000840282
0.000545204
0.000545771
0.000814251
0.000805292
0.00101937
0.000651683
0.0010982
0.00145259
0.000708103
0.00107807
0.000744451
0.000884512
0.000606162
0.000401889
0.00151611
0.00150829
0.000391387
0.000903883
0.000608452
0.000727096
0.000722823
0.00105468
0.000942784
0.000753263
0.000633226
0.000701788
0.00140249
0.000591016
0.000710796
0.000677868
0.00116923
0.000687862
0.00054074
0.000481541
0.0012754
0.00139918
0.00121263
0.00101406
0.00065256
0.00152492
0.00146784
0.000320533
0.000416382
0.000596027
0.000634984
0.00105211
0.000396467
0.000574795
0.000992296
0.000986042
0.00103114
0.00106314
0.000888717
0.000920597
0.00082577
0.000559061
0.00106894
0.000553439
0.000710006
0.00055117
0.000784144
0.000621196
0.000741596
0.000999677
0.000648849
0.000757584
0.00080663
0.000709573
0.00071036
0.000714247
0.000715299
0.000557335
0.000582061
0.000732012
0.00131683
0.00113764
0.000322893
0.000620347
0.00127098
0.000903895
0.00095958
0.000840374
0.0010751
0.000703579
0.000702831
0.000995156
0.000608777
0.000749311
0.000477941
0.0011786
0.00078657
0.000563583
0.000962085
0.00117817
0.000244622
0.00123541
0.000608938
0.00113703
0.000970662
0.000743041
0.000894043
0.000638359
0.000737221
0.000620542
0.000471977
0.000920869
0.000697315
0.00121264
0.00101652
0.00118382
0.00114213
0.00116406
0.000695157
0.00155206
0.000794633
0.00135633
0.000587174
0.00134851
0.000602898
0.00124569
0.000605043
0.000782787
0.000932567
0.000658845
0.000568164
0.000656138
0.00066786
0.00106867
0.000278988
0.000826131
0.00136871
0.000549498
0.000574889
0.000890904
0.000965912
0.000401708
0.000710032
0.00107584
0.00104948
0.000569549
0.000780536
0.00135616
0.00140109
0.0012536
0.00168398
0.000547045
0.000748847
0.00114025
0.00114143
0.00140763
0.000641106
0.000656705
0.000651906
0.00132311
0.000692191
0.00112016
0.000820111
0.000816027
0.000809508
0.00111479
0.00106501
0.000869909
0.000606115
0.00123739
0.000277198
0.00133761
0.00078682
0.000498271
0.000955744
0.00109583
0.000494065
0.000551718
0.00128546
0.000807651
0.00090542
0.000719578
0.000720347
0.00083751
0.000743929
0.000569493
0.000568986
0.00110168
0.000648748
0.000839118
0.00128564
0.000587272
0.000987339
0.00102918
0.00117272
0.000744764
0.000565742
0.00091371
0.0012441
0.00059898
0.00184318
0.00121445
0.00184156
0.000702684
0.00127009
0.00115393
0.00115122
0.00113339
0.0010983
0.000838439
0.000788327
0.000703385
0.000940841
0.000434837
0.000598469
0.000952668
0.00122741
0.000588787
0.00059224
0.000721426
0.00105106
0.00134642
0.00032956
0.00032384
0.000508271
0.000510885
0.00116697
0.00124943
0.000850723
0.000969562
0.000438445
0.00103867
0.00110974
0.00119158
0.000684558
0.000790625
0.00183194
0.00114158
0.000670221
0.000557848
0.00073605
0.000531513
0.000381502
0.00122171
0.000591281
0.00070858
0.000567431
0.000818831
0.00105555
0.00125923
0.000615135
0.000342463
0.00049781
0.00043393
0.00066979
0.000556356
0.00128669
0.000958156
0.000583715
0.000585431
0.000337978
0.000566966
0.00073758
0.000450333
0.000330057
0.000885589
0.000707846
0.00124651
0.00127683
0.000563054
0.000560035
0.00127027
0.00122991
0.000637561
0.000751941
0.00135041
0.00116966
0.00168979
0.000723244
0.000513877
0.00106935
0.00110199
0.00055914
0.00124361
0.000879584
0.000644412
0.00121852
0.000658278
0.000749392
0.000245411
0.000648812
0.000395115
0.000754063
0.000722259
0.000601785
0.000824025
0.00123942
0.000887588
0.000596377
0.000899881
0.00128239
0.0010141
0.00128024
0.000714475
0.00103598
0.000706779
0.000650661
0.000778
0.00104425
0.000937768
0.000705626
0.000833183
0.000599392
0.000979167
0.000843476
0.00124842
0.000811277
0.000811868
0.00089366
0.000903272
0.00050713
0.000508058
0.000944947
0.000592069
0.000565334
0.000563793
0.000707818
0.000469277
0.000469365
0.000650492
0.00102672
0.00105079
0.000570087
0.000877714
0.00104495
0.000806898
0.000366138
0.000499989
0.000911494
0.00087799
0.000263874
0.000724654
0.00133383
0.00116463
0.00101626
0.000267591
0.000574093
0.000759726
0.000875216
0.000848455
0.000848115
0.00102509
0.000747861
0.000949084
0.00061167
0.00135075
0.00083801
0.000599552
0.00120322
0.00121266
0.000808251
0.000872579
0.00053483
0.000537728
0.000462918
0.00123625
0.00122012
0.00088392
0.00135143
0.00098321
0.00102518
0.000567237
0.00105469
0.000415486
0.000644344
0.000639871
0.000808602
0.000974617
0.00122149
0.00162683
0.000266901
0.000642602
0.000921806
0.000829304
0.000571163
0.00104094
0.00043598
0.000726189
0.000727144
0.000792994
0.000548145
0.001075
0.000690126
0.00110094
0.00109342
0.000702336
0.00119722
0.00117417
0.00123648
0.00124524
0.000561383
0.000603141
0.000692789
0.000922152
0.00126801
0.000542262
0.00123888
0.00044146
0.000553001
0.000731882
0.000574323
0.00132627
0.000359664
0.000427362
0.000293805
0.000609858
0.000832989
0.00110331
0.000623735
0.000646973
0.000647956
0.000670486
0.000959593
0.000462284
0.000589773
0.00129738
0.00109152
0.000871444
0.00156757
0.00102383
0.00114559
0.000559793
0.00117339
0.000863554
0.000734218
0.000549507
0.00088045
0.000795855
0.00086148
0.000348738
0.00193763
0.000592774
0.00121756
0.000661458
0.000860003
0.00102145
0.00101542
0.00085622
0.00118119
0.000737051
0.000591499
0.000560077
0.000770133
0.00046542
0.000812898
0.000746966
0.00107647
0.000473889
0.000634506
0.000633648
0.000292815
0.000733696
0.000551485
0.0010224
0.00127764
0.00051445
0.00102425
0.00154421
0.00121241
0.000545845
0.000793362
0.000521172
0.000654078
0.00104053
0.00126164
0.000935445
0.00125717
0.000788441
0.000658471
0.000660142
0.00115588
0.00117275
0.00105623
0.000589884
0.00061748
0.000615919
0.00180631
0.00061904
0.00179566
0.000354642
0.000712188
0.000743992
0.00125241
0.00125119
0.00120855
0.000902113
0.00060363
0.00110854
0.00113355
0.000718927
0.00071968
0.00107837
0.000560658
0.00074167
0.000897459
0.000736849
0.000530139
0.00117949
0.000749833
0.000862731
0.000257919
0.000879017
0.00153572
0.000542499
0.000539821
0.00068555
0.000649603
0.000679097
0.000527244
0.000402171
0.000308672
0.00127531
0.00116309
0.00115784
0.000722546
0.00195432
0.000667393
0.00110007
0.000519502
0.000971051
0.00122653
0.00111314
0.00111152
0.000647225
0.00121981
0.000746221
0.000743523
0.00169886
0.00135445
0.00118419
0.0011428
0.000655996
0.000923775
0.00118746
0.00128529
0.000655977
0.00065709
0.00102534
0.000636056
0.000773457
0.000774646
0.00274606
0.000600341
0.000326061
0.000961897
0.000683617
0.000692301
0.000481254
0.000486155
0.000355998
0.00057689
0.00131145
0.000762978
0.000755821
0.00134996
0.000730618
0.00140228
0.000476818
0.000519151
0.0019419
0.00103186
0.000756207
0.000466357
0.00113232
0.000876808
0.000462592
0.000568409
0.000620454
0.000730554
0.000727921
0.00124908
0.000914481
0.00120409
0.000579172
0.000502136
0.000901703
0.000672362
0.000722977
0.0020503
0.00077255
0.00132082
0.00195225
0.00077978
0.000892715
0.000734793
0.00120252
0.000404722
0.00129436
0.000920638
0.00126313
0.00128293
0.000737789
0.000516359
0.000581918
0.00105125
0.00105689
0.000503019
0.000574887
0.00112837
0.00100977
0.0012931
0.000800505
0.00109143
0.00092028
0.00124999
0.000826822
0.000528482
0.000815471
0.00110045
0.000932029
0.00112083
0.000675448
0.00106727
0.00105626
0.000404937
0.000906804
0.00114418
0.000729329
0.00117602
0.000489264
0.00187599
0.000830374
0.000793843
0.000516957
0.00116455
0.00127583
0.000489883
0.000635579
0.000638527
0.00160829
0.000590566
0.000582129
0.000993527
0.000872894
0.000854
0.000768932
0.00123909
0.00131346
0.000802565
0.00123525
0.00125806
0.000663821
0.00128852
0.000452419
0.000631105
0.00167641
0.00107574
0.00106191
0.00148662
0.00128627
0.00121342
0.00114008
0.000715467
0.000595973
0.00048652
0.00120253
0.000646845
0.00088811
0.00117846
0.00117791
0.000547616
0.000838666
0.000569298
0.000830169
0.000834387
0.00120432
0.00120673
0.00126537
0.001245
0.000833842
0.00116058
0.000569761
0.00119634
0.000213811
0.00058051
0.000425077
0.00101044
0.000693336
0.000690597
0.00140062
0.000725791
0.000598939
0.00121552
0.00061137
0.000773339
0.0005729
0.000730957
0.000622082
0.000802026
0.000850561
0.000856933
0.00126419
0.000920156
0.00051741
0.00075874
0.001139
0.00060604
0.000857489
0.000412096
0.000800907
0.00079463
0.000802937
0.00158765
0.000996307
0.00139671
0.000911803
0.00103344
0.00108707
0.000286546
0.000954801
0.00124016
0.00121103
0.00126039
0.000549765
0.000557483
0.000752295
0.000939088
0.000212687
0.000570589
0.000683403
0.000574124
0.00052112
0.00052413
0.00064308
0.000885969
0.000477165
0.000681381
0.000956386
0.000845132
0.000619454
0.0012686
0.00125425
0.000710056
0.000596474
0.000527214
0.000637213
0.000462335
0.00123601
0.000979435
0.000931864
0.000564954
0.0012883
0.000710781
0.000522237
0.00107431
0.000641441
0.000569683
0.000567852
0.000551553
0.000878038
0.000487223
0.000757196
0.000476599
0.000453417
0.000674483
0.000384401
0.000573227
0.000939433
0.000581786
0.000806083
0.000819138
0.000820466
0.000733797
0.000821043
0.000816975
0.000670971
0.00126816
0.00106348
0.000548628
0.000976007
0.000498487
0.00126412
0.00124463
0.000565466
0.000563706
0.000954865
0.000562408
0.000627946
0.00108938
0.00133345
0.000812661
0.000574091
0.00052537
0.000529662
0.00123234
0.00108614
0.000606387
0.000490226
0.000822592
0.000431637
0.000563558
0.000833154
0.00205501
0.000947238
0.000740313
0.000733722
0.000713888
0.000861882
0.000859504
0.000560752
0.000484357
0.000491335
0.000572987
0.00057493
0.000738984
0.000549804
0.000546914
0.000847971
0.000820476
0.000725654
0.00100819
0.000718914
0.00104058
0.00103159
0.000912559
0.00126247
0.000865029
0.00124056
0.000998487
0.000989599
0.0012635
0.000556569
0.000554491
0.000726662
0.000727007
0.00139872
0.0012749
0.000762181
0.000713879
0.000808761
0.000763856
0.00117038
0.000778742
0.000746696
0.00074496
0.00088256
0.000602679
0.00148666
0.00094383
0.00110338
0.000697735
0.000802411
0.000695647
0.00150427
0.000522598
0.00124204
0.00132467
0.000911864
0.000558464
0.000738841
0.00105298
0.000619039
0.000608968
0.00114936
0.000781444
0.000721999
0.00123461
0.00132768
0.000793995
0.000982646
0.00138784
0.000646524
0.00064748
0.00089375
0.00103346
0.00124237
0.00124314
0.000549667
0.00122255
0.000948892
0.000757931
0.000767524
0.000739475
0.000740014
0.00059478
0.000905957
0.00110996
0.000626058
0.000844094
0.000970798
0.00142254
0.00085049
0.000619955
0.00190845
0.000518982
0.000550284
0.00113176
0.000685492
0.00093804
0.000673984
0.000407749
0.000451671
0.000811584
0.000742802
0.00122725
0.000594538
0.000639742
0.000340401
0.000559587
0.000727097
0.000564024
0.000741189
0.000382388
0.000726148
0.000779488
0.000781138
0.00115769
0.00118034
0.000782875
0.000393038
0.00119752
0.00124265
0.000651235
0.000997244
0.00067844
0.00111262
0.000456498
0.00148103
0.000745268
0.000563535
0.000589326
0.00123257
0.00116696
0.000717124
0.000718887
0.000821982
0.000485473
0.00120411
0.000924768
0.000711921
0.000685914
0.000560939
0.000758711
0.000357255
0.000568107
0.000247885
0.000591633
0.00100539
0.00115908
0.000950108
0.000949777
0.0011806
0.000890175
0.000878161
0.000735919
0.000511946
0.00139514
0.000680349
0.001208
0.000794714
0.000815716
0.000601751
0.00055219
0.00122276
0.00114471
0.000697534
0.000791771
0.000599525
0.000591557
0.000669043
0.000480526
0.000482467
0.000598955
0.000955777
0.000716897
0.00107158