/*--------------------------------*- C++ -*----------------------------------*\
| =========                 |                                                 |
| \\      /  F ield         | OpenFOAM: The Open Source CFD Toolbox           |
|  \\    /   O peration     | Version:  v2012                                 |
|   \\  /    A nd           | Website:  www.openfoam.com                      |
|    \\/     M anipulation  |                                                 |
\*---------------------------------------------------------------------------*/
FoamFile
{
    version     2.0;
    format      ascii;
    class       volScalarField;
    location    "4";
    object      epsilonEq;
}
// * * * * * * * * * * * * * * * * * * * * * * * * * * * * * * * * * * * * * //

dimensions      [0 0 0 0 0 0 0];


internalField   nonuniform List<scalar> 
2000
(
0.00233441
0.00226636
0.00198039
0.00196644
0.00169719
0.00170867
0.00148685
0.00151208
0.00133466
0.00136541
0.00122011
0.00125288
0.00112947
0.0011634
0.00105492
0.00108961
0.000991292
0.00102556
0.000934405
0.000963368
0.00232629
0.002204
0.00197075
0.00191021
0.00168603
0.00166972
0.00147759
0.00149189
0.001329
0.0013607
0.00121894
0.00126004
0.00113339
0.00117983
0.00106395
0.00111367
0.0010044
0.00105642
0.000949258
0.000999944
0.0022332
0.00209968
0.00189881
0.00182253
0.00163581
0.00160557
0.00144883
0.00145286
0.00131841
0.00134449
0.00122316
0.00126316
0.00114967
0.00119881
0.00109004
0.00114548
0.00103866
0.00109878
0.000991095
0.00105243
0.0020953
0.00194706
0.00178557
0.00170049
0.00155224
0.00151762
0.00139616
0.00139693
0.00129293
0.00131611
0.00122013
0.00125766
0.00116481
0.00121184
0.00111981
0.00117321
0.00108029
0.00113807
0.00104271
0.00110165
0.00191229
0.00175757
0.00163982
0.00155006
0.00144578
0.00140908
0.00132688
0.0013258
0.00125493
0.00127557
0.00120733
0.00124131
0.001172
0.00121434
0.00114279
0.00119023
0.00111594
0.00116631
0.00108899
0.001139
0.00169371
0.00154028
0.00146762
0.00137919
0.00132114
0.00128534
0.00124441
0.00124206
0.00120592
0.00122317
0.00118405
0.00121284
0.00116844
0.00120395
0.0011544
0.00119344
0.00113951
0.00117978
0.00112238
0.00116059
0.00145038
0.00130462
0.00127695
0.00119541
0.00118351
0.00115157
0.00115125
0.00114831
0.00114627
0.00115944
0.00114914
0.00117145
0.00115196
0.00117925
0.00115183
0.00118123
0.00114772
0.00117688
0.00113932
0.00116471
0.0011925
0.00106022
0.00107579
0.00100647
0.00103827
0.0010127
0.00104999
0.00104671
0.00107631
0.0010844
0.00110147
0.00111568
0.00112057
0.0011378
0.00113276
0.00115071
0.00113852
0.00115516
0.0011384
0.00115051
0.000929707
0.000817022
0.000872145
0.000821099
0.000891078
0.00087474
0.000943398
0.000940378
0.000996683
0.000998985
0.00104055
0.0010451
0.00107339
0.00107825
0.00109588
0.00109898
0.00110966
0.00110773
0.00111812
0.00110364
0.000670855
0.00058509
0.000675096
0.000650152
0.000749409
0.000746703
0.000836177
0.000836796
0.000909269
0.000909251
0.000965249
0.000964167
0.00100711
0.00100536
0.00103927
0.00103764
0.00106646
0.00106459
0.00109143
0.00108454
0.000423252
0.00037694
0.000496027
0.000506555
0.000622959
0.000637143
0.000736802
0.00074396
0.000823624
0.000825863
0.00088607
0.000886638
0.000928628
0.000931882
0.000955679
0.000969664
0.000972187
0.00100832
0.000982413
0.00103227
0.00019288
0.000226178
0.000352599
0.000406988
0.000520785
0.000550165
0.000649691
0.000659558
0.000743817
0.000742239
0.000811957
0.000804326
0.000860602
0.000851432
0.000893828
0.000888398
0.000913521
0.000916569
0.000919045
0.000944402
5.15028e-05
0.000222949
0.000276382
0.000369304
0.000449671
0.000490687
0.00057496
0.000586197
0.000665315
0.000660163
0.000730359
0.000716989
0.000776256
0.000761085
0.000806869
0.000795979
0.000824495
0.000823636
0.000830222
0.000853744
0.000226776
0.000337698
0.000292667
0.000392074
0.000413086
0.000460932
0.000512968
0.000526851
0.000588989
0.000583532
0.000645324
0.00063002
0.000685899
0.000667938
0.000713535
0.000699781
0.000729977
0.00072772
0.000735415
0.000757286
0.000395145
0.000467817
0.000367431
0.000449159
0.000409996
0.000457518
0.00046733
0.000483583
0.000519833
0.00051556
0.000562402
0.000546866
0.000594832
0.000575755
0.000618038
0.00060294
0.000632464
0.000629141
0.000636688
0.000654977
0.00053785
0.000583923
0.000454908
0.000515077
0.000430099
0.000471457
0.000438411
0.000455716
0.000460549
0.000458294
0.000484658
0.000470207
0.00050589
0.000487006
0.000522653
0.000507295
0.000533688
0.000529729
0.000535783
0.000549375
0.000653699
0.000679586
0.000534051
0.000575097
0.00045972
0.000491933
0.000423214
0.000439719
0.000412613
0.000412767
0.000414768
0.000402892
0.000421879
0.000404903
0.000430175
0.000415923
0.000436566
0.000432485
0.000435712
0.000443477
0.000742995
0.000754012
0.000596851
0.000621637
0.000488269
0.000510825
0.000417492
0.000432531
0.000377234
0.000381165
0.000356164
0.00035017
0.000346842
0.000335923
0.000344938
0.000335523
0.000345761
0.000343559
0.000341232
0.000342107
0.000806326
0.000801147
0.000640889
0.000654549
0.000510736
0.000529711
0.000417861
0.000436086
0.000355116
0.000367088
0.00031328
0.000318051
0.000287193
0.000287642
0.000273704
0.000274341
0.000267595
0.00027195
0.000258645
0.000257459
0.000840156
0.000819894
0.000667108
0.000671358
0.000524935
0.000539479
0.000419612
0.000435908
0.000343133
0.000356502
0.000287818
0.000297677
0.00025025
0.000257778
0.00022838
0.000233961
0.000215291
0.000217152
0.000196334
0.000188314
0.000117416
0.000165972
0.0001923
0.000241007
0.000292341
0.000337595
0.000401936
0.000442763
0.000513185
0.000548746
0.000622584
0.000651535
0.000727976
0.000749205
0.000827019
0.000839026
0.000915586
0.000915193
0.000982499
0.000996071
0.000128568
0.000179886
0.000185367
0.000252653
0.000277898
0.000343184
0.000377934
0.000438723
0.000478913
0.000534011
0.000578072
0.000626102
0.000673746
0.000713181
0.000764377
0.00079382
0.000847549
0.000867304
0.000919878
0.000933665
0.000161423
0.00020646
0.000205348
0.000269017
0.00028341
0.000348167
0.000369895
0.000432331
0.000457966
0.000516792
0.000545029
0.000599095
0.00062921
0.000677952
0.000708759
0.000752756
0.0007826
0.000821335
0.000850929
0.000877537
0.000190574
0.000229769
0.000225468
0.0002818
0.000291386
0.000349985
0.000366418
0.000424116
0.000443967
0.000499619
0.000521311
0.00057414
0.000596941
0.000646302
0.000670074
0.000714832
0.000739861
0.000777336
0.000803608
0.000828364
0.000214947
0.000249173
0.000242741
0.000292165
0.00029917
0.000350971
0.000365158
0.000416629
0.000434556
0.000484609
0.000504633
0.000552367
0.000573937
0.000618205
0.000641306
0.000680578
0.000704829
0.000737332
0.000761114
0.000784343
0.000238526
0.000268357
0.000260473
0.000303584
0.000308651
0.000354057
0.000366814
0.000412037
0.000429143
0.000473067
0.000492739
0.000534438
0.000555807
0.000594312
0.000616807
0.000651123
0.000673813
0.000702891
0.00072419
0.000746676
0.000263187
0.000288996
0.000280279
0.000317526
0.000320803
0.000360341
0.000371491
0.000411012
0.000426947
0.000465334
0.000484096
0.00052057
0.000540943
0.000574813
0.000595938
0.000626447
0.000647443
0.000673629
0.000693339
0.000714215
0.000288547
0.000310806
0.000301703
0.000333685
0.000335277
0.000369556
0.000378779
0.000413294
0.000427489
0.000461136
0.00047839
0.000510443
0.000529451
0.000559272
0.000579094
0.000605938
0.0006257
0.000648788
0.00066742
0.000686854
0.000313656
0.000332938
0.000323704
0.00035118
0.000351271
0.000380946
0.000388171
0.000418283
0.000430503
0.000459964
0.000475486
0.000503528
0.000521101
0.000547079
0.000565742
0.000589068
0.000607922
0.000628166
0.000646226
0.000663434
0.000337813
0.000354654
0.000345422
0.000369161
0.000367973
0.000393701
0.000399043
0.00042529
0.000435516
0.000461246
0.000474929
0.000499372
0.000515349
0.0005379
0.000555201
0.000575418
0.000593155
0.000610817
0.000628064
0.000643407
0.000360561
0.000375382
0.000366221
0.000386901
0.000384631
0.000407048
0.000410661
0.000433593
0.000441843
0.000464345
0.000476057
0.000497412
0.000511562
0.000531225
0.000546959
0.000564503
0.000581067
0.000596164
0.000612772
0.000625624
0.000381509
0.00039462
0.000385556
0.000403741
0.000400542
0.000420238
0.000422267
0.000442437
0.000448779
0.000468559
0.000478283
0.000496999
0.000509244
0.000526386
0.000540385
0.000555582
0.000570618
0.000583639
0.000598924
0.000610075
0.00040024
0.000411862
0.0004029
0.00041905
0.000415049
0.000432539
0.000433137
0.000451052
0.000455593
0.000473123
0.000480901
0.000497407
0.000507747
0.000522746
0.000535003
0.000548106
0.000561631
0.000572553
0.000586657
0.000595791
0.000416287
0.000426565
0.000417704
0.000432191
0.000427508
0.000443235
0.000442567
0.000458681
0.000461556
0.000477272
0.000483172
0.000497873
0.00050628
0.000519539
0.000529924
0.000541475
0.000553276
0.0005629
0.000575531
0.000583032
0.000429113
0.000438111
0.000429373
0.00044249
0.000437276
0.0004516
0.000449855
0.000464565
0.000465914
0.000480254
0.000484333
0.000497699
0.000504177
0.000516113
0.000524624
0.000534803
0.000544894
0.000553099
0.00056423
0.000570624
0.00043805
0.000445726
0.000437239
0.000449164
0.000443696
0.000456844
0.000454311
0.000467894
0.000467931
0.000481235
0.000483611
0.00049605
0.000500625
0.000511708
0.000518307
0.000527609
0.000535897
0.000543169
0.00055255
0.000558158
0.000442198
0.000448298
0.000440501
0.000451143
0.000445985
0.000457929
0.000455072
0.000467572
0.000466711
0.000479051
0.000480152
0.000491776
0.000494843
0.000505324
0.000510248
0.000519174
0.000525746
0.000532619
0.000540585
0.000545248
0.000440344
0.000444229
0.000438146
0.000446972
0.00044306
0.000453304
0.000450979
0.000461921
0.00046114
0.000472101
0.000473012
0.000483505
0.000486172
0.000495835
0.000500126
0.000508717
0.00051432
0.000521516
0.000528203
0.000533005
0.00043171
0.000432422
0.000429679
0.000435843
0.000434347
0.000441998
0.00044164
0.0004502
0.000451048
0.000460072
0.000462252
0.000471407
0.000474963
0.00048383
0.000488784
0.000496859
0.000503004
0.000509951
0.000516506
0.000522294
0.000419677
0.000419147
0.000419589
0.000422515
0.000424228
0.000428404
0.000431439
0.000436542
0.000440791
0.000446874
0.000451997
0.000459035
0.00046478
0.000472565
0.000478889
0.000486917
0.000494039
0.000501291
0.000509406
0.000513692
0.00102362
0.00100913
0.00102713
0.00101624
0.00102778
0.00101892
0.00102755
0.00101937
0.00102787
0.0010187
0.0010285
0.00101716
0.00102881
0.00101483
0.00102833
0.00101176
0.00102681
0.00100811
0.00102427
0.00100408
0.00102087
0.000999957
0.00101696
0.000996121
0.00101297
0.000993034
0.00100948
0.00099125
0.00100714
0.000991407
0.00100672
0.000994261
0.00100918
0.00100089
0.001016
0.00101295
0.00102873
0.00103139
0.00104497
0.0010569
0.00097631
0.000952799
0.000982349
0.000958232
0.000986066
0.000962615
0.000988474
0.000966632
0.000990103
0.000970024
0.000991092
0.000972542
0.000991533
0.000974171
0.000991553
0.000975074
0.000991321
0.00097552
0.00099105
0.000975836
0.00099101
0.000976397
0.000991538
0.000977623
0.000993052
0.000979973
0.000996015
0.000983936
0.00100091
0.000990008
0.00100819
0.000998703
0.0010184
0.00101069
0.00103237
0.00102696
0.00105082
0.00104762
0.00107036
0.00107363
0.000901729
0.000895632
0.00091132
0.000903786
0.000920866
0.000911076
0.000929833
0.000917782
0.00093766
0.000923789
0.000944139
0.000929091
0.000949446
0.000933808
0.000953922
0.000938145
0.000957962
0.000942348
0.000961953
0.000946667
0.000966247
0.000951369
0.000971192
0.000956843
0.000977243
0.000963502
0.000984802
0.000971734
0.000994205
0.000981867
0.00100569
0.000994165
0.0010195
0.00100897
0.00103608
0.00102684
0.00105569
0.00104752
0.00107505
0.00107246
0.000847671
0.00084461
0.000856089
0.000853479
0.000865519
0.000862338
0.000875696
0.000871178
0.000885886
0.000879686
0.000895421
0.000887603
0.000904239
0.000895017
0.00091251
0.00090215
0.000920485
0.000909223
0.000928382
0.000916335
0.000936462
0.000924207
0.000945142
0.00093277
0.000954769
0.000942372
0.000965695
0.000953323
0.000978193
0.000965802
0.000992359
0.00097988
0.00100826
0.000995711
0.00102619
0.00101361
0.00104615
0.0010331
0.00106491
0.00105582
0.000800834
0.00080003
0.000809638
0.000809829
0.000819538
0.000820128
0.000830601
0.000829565
0.000841729
0.000839346
0.000852679
0.000848803
0.000863303
0.000858222
0.000873776
0.000867979
0.000884403
0.000878434
0.000895355
0.00088741
0.000905384
0.000896305
0.000916262
0.000906233
0.00092806
0.000917307
0.000941001
0.000929759
0.000955204
0.000943246
0.000970544
0.000957744
0.000987114
0.000973403
0.00100501
0.000990272
0.00102399
0.00100768
0.00104102
0.00102728
0.000760611
0.00076199
0.000769752
0.000771556
0.000779821
0.000782549
0.000792874
0.000794629
0.000804115
0.00080503
0.000815632
0.000815074
0.000827455
0.000824666
0.000839541
0.000833548
0.000851825
0.000841469
0.000863537
0.000855162
0.00087483
0.000866928
0.000886552
0.000878403
0.000899025
0.000890124
0.000912767
0.000903152
0.000927481
0.000916269
0.000942534
0.000930171
0.000958525
0.000944795
0.0009754
0.000959904
0.000992444
0.000974614
0.00100708
0.000990557
0.000727056
0.000729234
0.000736594
0.000740174
0.000748238
0.000751677
0.00076
0.000762707
0.000771962
0.000773814
0.000784008
0.00078501
0.000796045
0.000796525
0.000807872
0.000806278
0.000819295
0.000817129
0.000832155
0.000827904
0.000844662
0.000838731
0.000856898
0.000849802
0.000869292
0.000861349
0.000882398
0.000873537
0.000896173
0.000886164
0.000910542
0.000899536
0.000925416
0.000911342
0.000940315
0.000925068
0.000954858
0.000935987
0.000966541
0.000948959
0.000698953
0.000702715
0.000708984
0.000713254
0.000719769
0.000723817
0.000731182
0.000734499
0.000742921
0.000744899
0.000754482
0.000754684
0.000765807
0.000767142
0.000780624
0.000780178
0.000791661
0.000790299
0.00080289
0.000800344
0.0008145
0.000810534
0.000826406
0.000820843
0.000838547
0.000831156
0.000850684
0.000841173
0.000862628
0.000850894
0.000874462
0.000863758
0.000890447
0.000876363
0.000901823
0.000887179
0.000915297
0.000896884
0.000923772
0.000904731
0.000675724
0.00067905
0.000685686
0.000689025
0.00069574
0.000699198
0.000706545
0.000710397
0.000717811
0.000721119
0.000729188
0.000731583
0.000740896
0.000742502
0.000753062
0.000752878
0.000764406
0.000762677
0.000775314
0.000772402
0.000786204
0.000782169
0.000797111
0.000791928
0.000807956
0.000801619
0.000818681
0.000811206
0.000829429
0.000820708
0.000840534
0.000830013
0.000851895
0.000839084
0.000862225
0.000847105
0.000871608
0.000853902
0.000878443
0.000860478
0.000655105
0.000658562
0.000664706
0.00066761
0.00067421
0.00067627
0.000686458
0.000688701
0.000698326
0.000698045
0.000707796
0.000707182
0.000719507
0.000719156
0.000730823
0.000728592
0.000739942
0.000737679
0.000749345
0.000746622
0.000758904
0.000755347
0.000768439
0.000763813
0.000777874
0.000772034
0.000787228
0.000780081
0.000796577
0.000788041
0.000805859
0.000795627
0.000814662
0.000802484
0.000822615
0.000808261
0.000829188
0.000812388
0.00083352
0.000816365
0.000637205
0.000640049
0.000646265
0.000649079
0.000655211
0.000658215
0.000664453
0.000667901
0.000675093
0.00067733
0.00068511
0.000686519
0.000694807
0.0006959
0.000705201
0.00070473
0.000714818
0.000713083
0.000723848
0.000721036
0.000732465
0.000728628
0.000740761
0.000735913
0.000748804
0.000742911
0.000756625
0.000749607
0.000764196
0.000755923
0.000771397
0.000761683
0.00077801
0.000766621
0.000783727
0.00077039
0.000788089
0.000772501
0.000790545
0.000774216
0.000620903
0.000623581
0.000629582
0.000631989
0.000638209
0.000640535
0.000647145
0.000649164
0.000656195
0.000657769
0.000665302
0.000666452
0.000674264
0.000675073
0.000682999
0.000682248
0.000691288
0.000689773
0.000699238
0.000696767
0.000706771
0.000703324
0.000713912
0.000709497
0.000720701
0.00071529
0.000727121
0.000720649
0.000733106
0.000725474
0.000738541
0.000729614
0.000743253
0.000732847
0.000746961
0.000734833
0.000749254
0.000735161
0.000749887
0.000734922
0.000606111
0.000608568
0.000614332
0.000616936
0.000622412
0.000624388
0.000630329
0.000631659
0.000638355
0.000638698
0.000646215
0.000645435
0.000653891
0.000653629
0.000663207
0.00066194
0.000669976
0.000668397
0.000676484
0.000674119
0.00068274
0.000679491
0.000688689
0.000684577
0.000694262
0.000689278
0.000699369
0.000693473
0.000703922
0.000697036
0.000707815
0.00069982
0.000710892
0.000701617
0.000712889
0.000702094
0.000713422
0.000700901
0.000712503
0.000698971
0.00059255
0.00059361
0.000599974
0.000600662
0.00060776
0.000608122
0.000614553
0.000615205
0.000621456
0.000622107
0.000628492
0.000628799
0.000635732
0.000635053
0.000643111
0.000640836
0.000649733
0.000646742
0.000655523
0.000652083
0.000660398
0.000656978
0.000665107
0.000661382
0.000669501
0.00066522
0.000673438
0.000668429
0.000676795
0.00067093
0.000679447
0.000672607
0.000681234
0.000673263
0.000681884
0.000672559
0.000681029
0.000670178
0.000678885
0.00066684
0.000578903
0.000580534
0.000585422
0.000586904
0.000592176
0.000593129
0.000598736
0.00059923
0.000605111
0.000605241
0.000611337
0.000611195
0.000617354
0.000616859
0.000622864
0.000622019
0.000628342
0.000627209
0.000633813
0.000631839
0.000638601
0.000635944
0.000642818
0.00063958
0.000646495
0.000642725
0.000649615
0.000645302
0.000652104
0.000647189
0.000653855
0.000648237
0.000654712
0.000648229
0.000654398
0.000646805
0.000652546
0.000643671
0.000649534
0.00063931
0.000565392
0.000566952
0.000571518
0.000572775
0.000577514
0.000578431
0.000583423
0.000583852
0.000589144
0.000589115
0.000594754
0.00059447
0.000600154
0.000599462
0.000605299
0.000604087
0.000610004
0.000608514
0.000614421
0.00061275
0.000618549
0.000616392
0.000622255
0.000619692
0.000625496
0.000622592
0.00062819
0.000624945
0.000630225
0.000626599
0.000631492
0.000627398
0.000631843
0.000627124
0.000631006
0.000625397
0.000628618
0.00062194
0.00062516
0.00061699
0.000551751
0.000553095
0.000557617
0.000559057
0.000563307
0.000564326
0.00056867
0.000569051
0.00057371
0.000573505
0.00057956
0.000579255
0.000585102
0.000583484
0.000589553
0.000587585
0.000594168
0.00059152
0.000598161
0.000595165
0.00060167
0.000599039
0.000604808
0.000602489
0.000607654
0.000605409
0.000610043
0.000607715
0.000611836
0.00060934
0.000612915
0.000610211
0.000613139
0.000610166
0.000612182
0.000608589
0.000609733
0.000605383
0.000606372
0.00060048
0.000538813
0.000539618
0.000545653
0.000546182
0.000552049
0.000551418
0.000556733
0.00055656
0.000561347
0.00056107
0.000565708
0.000565438
0.00057039
0.000569589
0.000574666
0.000573598
0.000578577
0.00057748
0.000582828
0.000581547
0.000586883
0.000585216
0.000590393
0.000588522
0.000593378
0.000591435
0.000595812
0.00059386
0.000597644
0.000595679
0.000598828
0.000596787
0.000599491
0.000597546
0.000599021
0.000596709
0.000596805
0.000594458
0.000594014
0.000591069
0.000527205
0.000530476
0.000533944
0.000537925
0.000540779
0.000542559
0.000547173
0.000547776
0.000552964
0.000552151
0.000557245
0.000556687
0.000561701
0.000561028
0.000566249
0.000565482
0.000570575
0.000569868
0.000574624
0.000573729
0.000578408
0.000577237
0.000581846
0.000580433
0.000584848
0.000583274
0.000587321
0.000585714
0.000589181
0.000587713
0.000590371
0.000589222
0.000590831
0.000590409
0.000590895
0.000590859
0.00059004
0.00058962
0.00058751
0.000587509
0.00052028
0.000520582
0.00052831
0.000531126
0.000536649
0.000536805
0.000541362
0.00054274
0.00054783
0.000550619
0.000553564
0.000555184
0.000557905
0.000559827
0.000563646
0.000566644
0.000568997
0.000570406
0.000573061
0.000574275
0.000576832
0.000577927
0.00058019
0.000581153
0.000583034
0.000583863
0.000585318
0.000586028
0.000587038
0.000587646
0.000588224
0.000588736
0.000588846
0.000589304
0.000588836
0.000589376
0.000588079
0.000589045
0.000587186
0.000588424
0.000899193
0.000916075
0.00088301
0.000898338
0.000868879
0.000881826
0.000853978
0.00086468
0.000837751
0.000846653
0.00082031
0.000827835
0.000801763
0.000808251
0.000782148
0.000787857
0.000761462
0.000766571
0.000739678
0.000744281
0.000716742
0.000720856
0.00069258
0.000696156
0.000667103
0.000670048
0.000640232
0.00064244
0.000611935
0.000613344
0.00058235
0.000583021
0.000552013
0.000552188
0.000522013
0.000522002
0.00049349
0.000493751
0.000468809
0.000457601
0.000921477
0.000950674
0.000901626
0.00093614
0.000884588
0.000920855
0.000867106
0.000903889
0.000848844
0.000885472
0.000829911
0.000865955
0.000810345
0.000845536
0.000790087
0.00082428
0.000769035
0.000802173
0.000747066
0.000779141
0.000724049
0.000755071
0.000699853
0.000729827
0.000674361
0.00070328
0.000647506
0.000675344
0.000619334
0.00064606
0.000590128
0.000615736
0.000560518
0.000585011
0.000531183
0.000554447
0.000501923
0.000524634
0.000474733
0.000488247
0.000972505
0.00100555
0.000952022
0.000991872
0.000933961
0.000977093
0.000915609
0.000960454
0.00089663
0.000942185
0.000877067
0.000922622
0.000856921
0.000901973
0.000836116
0.000880328
0.000814532
0.000857695
0.000792027
0.000834025
0.00076845
0.000809223
0.000743648
0.000783174
0.000717497
0.000755774
0.000689934
0.000726979
0.000661035
0.000696897
0.00063112
0.000665906
0.000600773
0.000634634
0.000570446
0.00060359
0.000540245
0.000573938
0.000514018
0.000541064
0.00102963
0.00106043
0.00100958
0.00104719
0.000991495
0.00103273
0.000973311
0.00101651
0.000954623
0.000998672
0.000935335
0.00097947
0.00091536
0.00095907
0.000894592
0.000937552
0.000872909
0.000914933
0.000850188
0.000891179
0.000826311
0.000866229
0.000801175
0.000840011
0.000774717
0.00081248
0.00074696
0.000783669
0.000718081
0.000753784
0.000688505
0.000723305
0.000658903
0.00069298
0.000629981
0.000663729
0.000602695
0.000637526
0.000580886
0.000611096
0.00107976
0.00110509
0.00106163
0.00109259
0.00104472
0.0010789
0.00102771
0.00106362
0.00101022
0.00104685
0.000992067
0.00102872
0.000973107
0.00100935
0.000953225
0.0009888
0.000932315
0.000967095
0.000910285
0.000944229
0.00088706
0.000920184
0.000862589
0.000894947
0.000836873
0.000868546
0.000809997
0.000841097
0.000782202
0.000812892
0.000753968
0.000784497
0.000726048
0.000756801
0.000699412
0.000731111
0.000675521
0.000709869
0.000657782
0.000690904
0.00111577
0.00113472
0.0011009
0.00112369
0.00108634
0.00111146
0.00107148
0.00109779
0.00105604
0.00108269
0.00103981
0.00106625
0.00102265
0.00104856
0.00100446
0.00102969
0.000985169
0.00100967
0.000964708
0.00098853
0.000943049
0.00096631
0.000920201
0.000943056
0.000896226
0.000918867
0.000871281
0.000893946
0.000845674
0.000868672
0.000819941
0.000843697
0.000794904
0.000820041
0.000771739
0.000799303
0.000752276
0.000784175
0.000739372
0.000773456
0.00113467
0.00114708
0.00112425
0.00113814
0.00111301
0.00112797
0.00110108
0.00111642
0.00108838
0.0011035
0.00107471
0.00108926
0.00105992
0.00107378
0.00104393
0.00105714
0.0010267
0.00103942
0.00100828
0.00102066
0.000988713
0.00100096
0.000968117
0.000980436
0.000946644
0.000959267
0.000924529
0.000937757
0.000902135
0.000916385
0.000880037
0.000895892
0.000859102
0.000877412
0.000840667
0.000862772
0.000826848
0.000854753
0.000819754
0.000852816
0.00113539
0.00114167
0.00113042
0.00113588
0.00112361
0.00112804
0.0011157
0.00111884
0.00110632
0.00110851
0.0010953
0.0010971
0.00108271
0.00108461
0.00106874
0.001071
0.00105361
0.00105627
0.00103749
0.00104048
0.00102055
0.00102378
0.00100292
0.00100639
0.000984775
0.000988617
0.000966369
0.000970908
0.000948091
0.000953862
0.000930541
0.000938327
0.000914629
0.00092556
0.000901838
0.000917592
0.000894463
0.00091714
0.000893675
0.000924043
0.00112023
0.00110801
0.00112357
0.00110857
0.00112091
0.00110946
0.00111502
0.00110843
0.00110741
0.00110472
0.00109859
0.00109829
0.00108874
0.00108939
0.00107792
0.00107845
0.00106617
0.00106588
0.00105356
0.00105212
0.00104014
0.00103757
0.00102608
0.00102263
0.0010116
0.00100774
0.000997079
0.000993428
0.000983032
0.000980385
0.000970163
0.000969537
0.000959492
0.000962246
0.000952653
0.000960677
0.000951929
0.000967216
0.000957208
0.00098165
0.00109835
0.00110102
0.00109489
0.00109867
0.00109345
0.00109048
0.00109196
0.00108266
0.00108999
0.00107606
0.0010869
0.00106999
0.00108225
0.00106363
0.00107586
0.00105644
0.0010678
0.00104824
0.00105834
0.00103905
0.00104783
0.00102914
0.0010367
0.00101886
0.00102545
0.00100872
0.00101459
0.000999341
0.00100476
0.00099151
0.000996715
0.000986241
0.000991492
0.000985003
0.000990756
0.000990064
0.000996523
0.00100348
0.00100722
0.00102463
)
;

boundaryField
{
    back
    {
        type            empty;
    }
    front
    {
        type            empty;
    }
    left
    {
        type            symmetry;
    }
    hole
    {
        type            calculated;
        value           nonuniform List<scalar> 
20
(
0.00236451
0.00235072
0.00225898
0.00212047
0.00193793
0.00171926
0.00147507
0.00121557
0.00095058
0.000688966
0.000437601
0.000201036
1.9154e-05
0.000216355
0.000389597
0.000535988
0.000655099
0.000747479
0.000812826
0.000843084
)
;
    }
    down
    {
        type            symmetry;
    }
    right
    {
        type            calculated;
        value           nonuniform List<scalar> 
30
(
0.000419713
0.00042362
0.000428958
0.000436725
0.000446786
0.000458654
0.000471838
0.000485844
0.000500333
0.000515462
0.000524268
0.000529098
0.000535387
0.000541793
0.000547267
0.000553336
0.000558867
0.000563157
0.00056778
0.000571996
0.000575658
0.00057881
0.000581478
0.000583661
0.000585361
0.00058659
0.000587429
0.000588068
0.000588504
0.000588501
)
;
    }
    up
    {
        type            calculated;
        value           nonuniform List<scalar> 
30
(
0.00106102
0.00107678
0.00107544
0.00105861
0.0010297
0.000992442
0.000950005
0.000905907
0.000860968
0.000816524
0.000774066
0.000734516
0.000698396
0.000666171
0.0006386
0.000616314
0.000599888
0.000590867
0.000587308
0.000588418
0.000460902
0.000481571
0.000536188
0.000607918
0.000688983
0.000772618
0.000852759
0.000924416
0.00098243
0.00102522
)
;
    }
}


// ************************************************************************* //
