/*--------------------------------*- C++ -*----------------------------------*\
| =========                 |                                                 |
| \\      /  F ield         | OpenFOAM: The Open Source CFD Toolbox           |
|  \\    /   O peration     | Version:  v2012                                 |
|   \\  /    A nd           | Website:  www.openfoam.com                      |
|    \\/     M anipulation  |                                                 |
\*---------------------------------------------------------------------------*/
FoamFile
{
    version     2.0;
    format      ascii;
    class       volSymmTensorField;
    location    "4";
    object      sigma;
}
// * * * * * * * * * * * * * * * * * * * * * * * * * * * * * * * * * * * * * //

dimensions      [1 -1 -2 0 0 0 0];


internalField   nonuniform List<symmTensor> 
2000
(
(2.13582e+08 -9.94363e+06 4.9406e-08 2.6908e+06 -3.09533e-09 6.45739e+07)
(2.10825e+08 -4.58135e+06 3.57001e-08 7.27774e+06 -1.49909e-08 6.03549e+07)
(1.91822e+08 -7.95719e+06 -3.66559e-08 1.30367e+07 -2.65501e-09 6.47135e+07)
(1.90064e+08 -2.15101e+06 -2.34127e-08 1.34499e+07 6.26554e-09 5.91182e+07)
(1.71223e+08 -6.07815e+06 3.18438e-08 1.88634e+07 2.17332e-09 5.94044e+07)
(1.70058e+08 -183130 7.29923e-09 1.71493e+07 -4.20618e-09 5.47413e+07)
(1.54413e+08 -4.50803e+06 -1.67844e-08 2.173e+07 2.23065e-09 5.40516e+07)
(1.53892e+08 1.22265e+06 -4.05094e-08 1.9057e+07 -1.114e-08 5.07561e+07)
(1.41354e+08 -3.33943e+06 -6.09493e-08 2.27302e+07 -7.18456e-09 4.98932e+07)
(1.41166e+08 2.25588e+06 -1.22865e-08 1.97223e+07 4.66886e-09 4.74956e+07)
(1.30776e+08 -2.47164e+06 0 2.25548e+07 0 4.65096e+07)
(1.30736e+08 3.0531e+06 0 1.95108e+07 0 4.45608e+07)
(1.21745e+08 -1.82254e+06 -1.23764e-08 2.16237e+07 8.41892e-10 4.35025e+07)
(1.21816e+08 3.66373e+06 -2.14293e-08 1.86837e+07 -4.08482e-09 4.17485e+07)
(1.13753e+08 -1.35723e+06 -8.06938e-09 2.01944e+07 -2.56945e-09 4.07176e+07)
(1.1393e+08 4.11981e+06 1.37026e-08 1.7444e+07 3.54708e-09 3.90027e+07)
(1.06462e+08 -1.05567e+06 0 1.84235e+07 0 3.8067e+07)
(1.06673e+08 4.48877e+06 0 1.59354e+07 0 3.62846e+07)
(9.95597e+07 -885456 0 1.64026e+07 0 3.54597e+07)
(9.94639e+07 4.97035e+06 -5.57893e-09 1.41737e+07 -1.52697e-09 3.39157e+07)
(2.0925e+08 -2.67043e+07 0 5.25804e+06 0 6.30432e+07)
(2.03836e+08 -1.78996e+07 2.00736e-08 8.44712e+06 8.78828e-09 6.03604e+07)
(1.88129e+08 -1.81737e+07 2.28779e-09 1.31431e+07 4.20054e-09 6.34732e+07)
(1.83713e+08 -1.1378e+07 1.56878e-08 1.32319e+07 4.65111e-09 5.82488e+07)
(1.68143e+08 -1.1592e+07 3.9066e-09 1.79262e+07 -3.06569e-09 5.8138e+07)
(1.65219e+08 -5.93972e+06 5.03373e-09 1.59543e+07 -2.67848e-09 5.35485e+07)
(1.52055e+08 -6.79738e+06 -2.00046e-08 2.04206e+07 3.33109e-10 5.29425e+07)
(1.50562e+08 -1.85328e+06 -3.83308e-08 1.72438e+07 -1.38257e-08 4.95623e+07)
(1.39617e+08 -3.41451e+06 -6.98007e-08 2.13632e+07 -2.1049e-08 4.88771e+07)
(1.38987e+08 1.17113e+06 -5.61959e-08 1.75505e+07 -1.44657e-08 4.64212e+07)
(1.2957e+08 -970953 -1.04491e-08 2.12691e+07 -4.84547e-09 4.55303e+07)
(1.29398e+08 3.44526e+06 1.40701e-09 1.71764e+07 1.92049e-09 4.36749e+07)
(1.21032e+08 851399 2.17013e-08 2.04891e+07 7.04341e-09 4.25417e+07)
(1.21121e+08 5.17708e+06 9.75317e-09 1.63187e+07 -3.27098e-10 4.11e+07)
(1.13504e+08 2.23649e+06 -2.58177e-08 1.92646e+07 -8.70422e-09 3.97578e+07)
(1.13751e+08 6.50862e+06 -2.33024e-08 1.51045e+07 -6.95179e-09 3.86261e+07)
(1.06597e+08 3.30453e+06 1.04482e-08 1.77631e+07 2.74493e-09 3.70826e+07)
(1.06928e+08 7.55199e+06 1.37282e-08 1.36258e+07 7.09108e-09 3.61855e+07)
(9.99397e+07 4.13837e+06 1.88965e-08 1.61067e+07 8.4859e-09 3.44423e+07)
(1.0011e+08 8.41522e+06 1.86202e-08 1.19978e+07 8.91563e-09 3.39694e+07)
(1.95982e+08 -4.03388e+07 -1.92961e-08 1.02992e+07 2.55511e-09 6.07785e+07)
(1.91009e+08 -2.9119e+07 -4.30962e-08 1.07408e+07 -1.11218e-08 5.79261e+07)
(1.78102e+08 -2.75282e+07 -4.14937e-09 1.50541e+07 -3.16854e-09 6.03959e+07)
(1.73194e+08 -1.91623e+07 1.89011e-08 1.34219e+07 8.3332e-09 5.55948e+07)
(1.60746e+08 -1.73953e+07 3.47933e-09 1.74427e+07 2.52995e-09 5.52312e+07)
(1.57148e+08 -1.09654e+07 -3.484e-08 1.46049e+07 -1.75639e-08 5.09825e+07)
(1.4681e+08 -9.9409e+06 -4.17872e-08 1.83903e+07 -1.60332e-08 5.05278e+07)
(1.44688e+08 -4.77038e+06 -4.68421e-08 1.48669e+07 -1.66892e-08 4.71911e+07)
(1.35981e+08 -4.60465e+06 0 1.84627e+07 0 4.69244e+07)
(1.34889e+08 -151188 0 1.45241e+07 0 4.42673e+07)
(1.27132e+08 -714599 -9.26452e-09 1.79461e+07 -4.50639e-09 4.39476e+07)
(1.26695e+08 3.33654e+06 -2.43828e-08 1.37639e+07 -1.5366e-08 4.17614e+07)
(1.19515e+08 2.19361e+06 -2.69794e-08 1.70184e+07 -1.49965e-08 4.12679e+07)
(1.1952e+08 6.00078e+06 -1.07458e-08 1.2711e+07 -4.43532e-09 3.94459e+07)
(1.12715e+08 4.40426e+06 2.09176e-08 1.58145e+07 1.1374e-08 3.87538e+07)
(1.13035e+08 8.05459e+06 1.54492e-08 1.14488e+07 9.79915e-09 3.72334e+07)
(1.06413e+08 6.10709e+06 3.99668e-09 1.44412e+07 3.37498e-09 3.6307e+07)
(1.06959e+08 9.65699e+06 -1.79873e-09 1.00294e+07 -1.81561e-09 3.50476e+07)
(1.00328e+08 7.4335e+06 1.70465e-09 1.2986e+07 3.86058e-11 3.38381e+07)
(1.00887e+08 1.09184e+07 2.26845e-08 8.48507e+06 1.58844e-08 3.31348e+07)
(1.77097e+08 -5.0619e+07 3.18875e-08 1.64918e+07 -4.15486e-09 5.66909e+07)
(1.73013e+08 -3.74901e+07 2.05988e-08 1.402e+07 6.28585e-09 5.40718e+07)
(1.63534e+08 -3.45653e+07 7.36899e-09 1.72241e+07 1.97161e-09 5.63227e+07)
(1.58989e+08 -2.502e+07 -2.07191e-08 1.39738e+07 -8.44397e-09 5.16366e+07)
(1.49826e+08 -2.1983e+07 -4.69649e-09 1.68733e+07 -1.54304e-09 5.15447e+07)
(1.46347e+08 -1.49564e+07 3.36048e-09 1.31635e+07 1.33274e-09 4.73431e+07)
(1.38874e+08 -1.2796e+07 3.10407e-08 1.60364e+07 1.56941e-08 4.73169e+07)
(1.36673e+08 -7.39774e+06 3.04523e-08 1.20946e+07 1.64177e-08 4.3947e+07)
(1.3034e+08 -6.17362e+06 4.19703e-08 1.49923e+07 2.38937e-08 4.41665e+07)
(1.29076e+08 -1.7405e+06 3.12802e-08 1.09121e+07 1.88802e-08 4.13784e+07)
(1.2325e+08 -1.27523e+06 4.8696e-08 1.38195e+07 2.95863e-08 4.15936e+07)
(1.22634e+08 2.56617e+06 2.22825e-08 9.66043e+06 1.43167e-08 3.91933e+07)
(1.17011e+08 2.44272e+06 1.41301e-08 1.2559e+07 8.5416e-09 3.92743e+07)
(1.16873e+08 5.88331e+06 1.98381e-08 8.37091e+06 1.34868e-08 3.71857e+07)
(1.11322e+08 5.30851e+06 1.79466e-08 1.12536e+07 1.2389e-08 3.70876e+07)
(1.1155e+08 8.4535e+06 2.64447e-08 7.06798e+06 1.89355e-08 3.5279e+07)
(1.05955e+08 7.54516e+06 5.78052e-09 9.94505e+06 3.95461e-09 3.49486e+07)
(1.06469e+08 1.04552e+07 1.02902e-09 5.76573e+06 8.7516e-10 3.34069e+07)
(1.00719e+08 9.30339e+06 -1.55536e-08 8.67865e+06 -1.16788e-08 3.27986e+07)
(1.01331e+08 1.20334e+07 -6.64444e-09 4.44659e+06 -5.38333e-09 3.18425e+07)
(1.53855e+08 -5.6764e+07 -2.63503e-08 2.311e+07 6.26306e-09 5.1483e+07)
(1.51317e+08 -4.26542e+07 3.635e-08 1.73279e+07 1.62505e-08 4.9267e+07)
(1.45654e+08 -3.91586e+07 3.34363e-09 1.93779e+07 -2.59036e-09 5.11633e+07)
(1.41881e+08 -2.88507e+07 -3.26647e-08 1.43599e+07 -1.75876e-08 4.67967e+07)
(1.3635e+08 -2.52939e+07 -7.0972e-10 1.59767e+07 3.22539e-09 4.70152e+07)
(1.33261e+08 -1.78703e+07 1.51684e-08 1.14529e+07 1.09207e-08 4.29133e+07)
(1.28856e+08 -1.52102e+07 -1.42326e-08 1.32165e+07 -1.08565e-08 4.34278e+07)
(1.26783e+08 -9.69106e+06 -1.83228e-08 8.98609e+06 -1.18195e-08 3.99904e+07)
(1.22958e+08 -7.92401e+06 -2.71178e-08 1.10009e+07 -1.47996e-08 4.0814e+07)
(1.21676e+08 -3.56924e+06 3.16007e-09 6.91785e+06 8.16479e-10 3.78532e+07)
(1.17915e+08 -2.49e+06 -1.71623e-08 9.13869e+06 -1.26916e-08 3.86995e+07)
(1.17206e+08 1.1186e+06 -2.61992e-08 5.15037e+06 -1.60376e-08 3.60626e+07)
(1.13312e+08 1.67869e+06 -2.82319e-08 7.51574e+06 -1.92536e-08 3.6796e+07)
(1.13046e+08 4.75969e+06 -1.32026e-08 3.62036e+06 -1.08575e-08 3.44286e+07)
(1.08971e+08 4.92669e+06 3.74639e-09 6.08254e+06 3.92627e-09 3.50011e+07)
(1.09054e+08 7.60299e+06 -6.75558e-09 2.28779e+06 -3.79658e-09 3.28873e+07)
(1.04764e+08 7.48474e+06 -1.03835e-08 4.81879e+06 -9.26512e-09 3.32451e+07)
(1.05124e+08 9.82496e+06 -1.39006e-08 1.12305e+06 -1.29834e-08 3.13891e+07)
(1.00596e+08 9.50637e+06 1.35203e-08 3.72584e+06 1.1321e-08 3.1486e+07)
(1.01038e+08 1.159e+07 4.20116e-09 71864.4 4.06189e-09 3.01898e+07)
(1.28153e+08 -5.84028e+07 8.73386e-09 2.89162e+07 -4.40162e-09 4.5438e+07)
(1.2749e+08 -4.4341e+07 5.87181e-08 1.99622e+07 7.21616e-09 4.36099e+07)
(1.25581e+08 -4.10195e+07 4.7527e-08 2.09285e+07 1.80801e-08 4.51571e+07)
(1.22913e+08 -3.05192e+07 9.17098e-09 1.41662e+07 1.38668e-08 4.12367e+07)
(1.20992e+08 -2.7196e+07 -3.60202e-08 1.45974e+07 -2.03453e-08 4.17584e+07)
(1.18498e+08 -1.96454e+07 -3.42356e-08 9.29969e+06 -2.08275e-08 3.78846e+07)
(1.1716e+08 -1.71335e+07 -5.19356e-09 9.99523e+06 4.21386e-10 3.8914e+07)
(1.15332e+08 -1.15965e+07 3.04867e-08 5.55314e+06 1.55154e-08 3.54997e+07)
(1.14044e+08 -9.82256e+06 1.84054e-08 6.66316e+06 1.29594e-08 3.69096e+07)
(1.12806e+08 -5.5664e+06 4.16265e-08 2.68028e+06 2.87731e-08 3.38335e+07)
(1.11172e+08 -4.32071e+06 2.83022e-08 4.14939e+06 2.04248e-08 3.53078e+07)
(1.10397e+08 -921076 2.47806e-08 445596 2.03172e-08 3.24717e+07)
(1.08324e+08 -59001.9 0 2.18619e+06 0 3.38643e+07)
(1.07922e+08 2.71655e+06 9.73805e-09 -1.2995e+06 7.21566e-09 3.12434e+07)
(1.05446e+08 3.29071e+06 3.82306e-09 631934 4.92952e-09 3.25014e+07)
(1.05341e+08 5.58027e+06 6.90439e-09 -2.65072e+06 6.18147e-09 3.00964e+07)
(1.02512e+08 5.94553e+06 1.1057e-08 -594443 7.78198e-09 3.11691e+07)
(1.02634e+08 7.83239e+06 2.54003e-09 -3.6771e+06 1.23644e-09 2.89933e+07)
(9.95032e+07 8.05268e+06 3.7808e-08 -1.5353e+06 3.48199e-08 2.98281e+07)
(9.96464e+07 9.64549e+06 4.30086e-08 -4.47147e+06 3.918e-08 2.81527e+07)
(1.01926e+08 -5.57664e+07 9.74269e-09 3.29114e+07 -6.10622e-09 3.87611e+07)
(1.03122e+08 -4.26598e+07 -3.26575e-08 2.12639e+07 -2.22471e-08 3.73276e+07)
(1.04597e+08 -4.01836e+07 1.82324e-08 2.13635e+07 7.74557e-09 3.85374e+07)
(1.03178e+08 -3.00393e+07 5.7027e-08 1.30863e+07 2.12556e-08 3.51557e+07)
(1.04518e+08 -2.76218e+07 3.63048e-08 1.25881e+07 2.1464e-08 3.59618e+07)
(1.02754e+08 -2.02166e+07 2.45972e-08 6.63376e+06 2.49733e-08 3.24299e+07)
(1.04213e+08 -1.84475e+07 -5.46141e-09 6.46322e+06 1.38154e-09 3.39083e+07)
(1.02722e+08 -1.29852e+07 -1.34788e-08 1.87867e+06 -7.97111e-09 3.06358e+07)
(1.03802e+08 -1.1723e+07 -1.61226e-08 2.21062e+06 -2.11144e-08 3.25421e+07)
(1.02661e+08 -7.55109e+06 -3.65553e-08 -1.61794e+06 -2.84632e-08 2.94718e+07)
(1.03074e+08 -6.59889e+06 -1.93135e-08 -838469 -7.26871e-09 3.14758e+07)
(1.02252e+08 -3.32983e+06 0 -4.20963e+06 0 2.85639e+07)
(1.01984e+08 -2.57903e+06 -1.72849e-08 -3.07663e+06 -1.93948e-08 3.0512e+07)
(1.01442e+08 7586.84 -1.80731e-08 -6.11231e+06 -1.97418e-08 2.77637e+07)
(1.0059e+08 614898 7.95137e-09 -4.71974e+06 1.14227e-08 2.95975e+07)
(1.0028e+08 2.65306e+06 6.0918e-08 -7.45777e+06 4.87402e-08 2.70254e+07)
(9.8955e+07 3.1624e+06 2.75245e-08 -5.89775e+06 2.09687e-08 2.8702e+07)
(9.88128e+07 4.73602e+06 2.18366e-08 -8.33155e+06 1.93783e-08 2.63098e+07)
(9.7122e+07 5.18761e+06 -1.60297e-08 -6.69505e+06 -1.33172e-08 2.77822e+07)
(9.69313e+07 6.4292e+06 -7.99429e-09 -8.85071e+06 -6.55544e-09 2.5785e+07)
(7.68831e+07 -4.94919e+07 -1.46959e-08 3.43143e+07 4.93848e-09 3.17317e+07)
(7.96566e+07 -3.80643e+07 -3.88457e-08 2.07091e+07 5.06739e-09 3.06811e+07)
(8.39075e+07 -3.69386e+07 -6.75742e-08 2.02893e+07 -2.95963e-08 3.15749e+07)
(8.37008e+07 -2.76301e+07 -8.79625e-08 1.08986e+07 -5.10365e-08 2.87814e+07)
(8.77204e+07 -2.66169e+07 -4.08726e-08 9.84263e+06 -2.7611e-08 2.98491e+07)
(8.67178e+07 -1.96079e+07 -1.32553e-08 3.45004e+06 -2.61923e-08 2.67297e+07)
(9.0504e+07 -1.90339e+07 -1.40075e-08 2.71041e+06 -8.05675e-09 2.85919e+07)
(8.9396e+07 -1.3733e+07 -1.76799e-08 -1.89197e+06 -6.11819e-09 2.5547e+07)
(9.2514e+07 -1.33982e+07 -6.62249e-09 -2.13081e+06 -6.10338e-09 2.78575e+07)
(9.14991e+07 -9.29209e+06 -3.07179e-08 -5.71814e+06 -2.21911e-08 2.48947e+07)
(9.37531e+07 -9.02098e+06 -3.00449e-08 -5.49895e+06 -2.1706e-08 2.73222e+07)
(9.28895e+07 -5.79867e+06 -1.46844e-08 -8.45941e+06 -1.48071e-08 2.44472e+07)
(9.43154e+07 -5.52415e+06 -3.70506e-09 -7.873e+06 -6.62212e-09 2.68433e+07)
(9.36166e+07 -2.99461e+06 -4.42547e-08 -1.03788e+07 -2.8381e-08 2.40905e+07)
(9.43468e+07 -2.70767e+06 -5.70332e-08 -9.52703e+06 -4.16864e-08 2.63939e+07)
(9.37922e+07 -735201 -4.05955e-08 -1.16509e+07 -3.41849e-08 2.38087e+07)
(9.39845e+07 -440309 -3.07154e-09 -1.06311e+07 -4.39803e-10 2.59529e+07)
(9.35168e+07 1.06915e+06 1.43012e-08 -1.23995e+07 7.87384e-09 2.35855e+07)
(9.33173e+07 1.37958e+06 2.71384e-08 -1.12889e+07 2.03917e-08 2.54624e+07)
(9.2743e+07 2.53391e+06 1.31605e-08 -1.27304e+07 1.23537e-08 2.34981e+07)
(5.43846e+07 -4.05257e+07 2.3499e-08 3.26656e+07 -1.50888e-08 2.46048e+07)
(5.8279e+07 -3.12715e+07 -4.9097e-09 1.7959e+07 -2.4415e-08 2.39162e+07)
(6.45405e+07 -3.17725e+07 3.29616e-08 1.74668e+07 3.24424e-08 2.452e+07)
(6.53647e+07 -2.36924e+07 -6.55241e-09 7.44203e+06 2.32812e-08 2.23315e+07)
(7.13228e+07 -2.43472e+07 1.53964e-08 6.2972e+06 7.61688e-09 2.36335e+07)
(7.10339e+07 -1.79793e+07 4.60831e-09 -272299 -3.2101e-09 2.09408e+07)
(7.65162e+07 -1.88473e+07 3.36487e-08 -1.20165e+06 2.16328e-08 2.3154e+07)
(7.58084e+07 -1.38239e+07 5.29603e-09 -5.66558e+06 7.16827e-09 2.03355e+07)
(8.04783e+07 -1.46683e+07 1.71609e-08 -6.20865e+06 5.47496e-09 2.30275e+07)
(7.96146e+07 -1.06335e+07 0 -9.4454e+06 0 2.01701e+07)
(8.33894e+07 -1.13036e+07 1.47326e-08 -9.61179e+06 1.50765e-08 2.29857e+07)
(8.24702e+07 -8.06076e+06 1.8033e-08 -1.20797e+07 1.39625e-08 2.01735e+07)
(8.54431e+07 -8.49503e+06 3.93929e-08 -1.19136e+07 2.78823e-08 2.29414e+07)
(8.45077e+07 -5.9664e+06 1.76098e-08 -1.38065e+07 1.363e-08 2.02351e+07)
(8.68153e+07 -6.13447e+06 1.311e-08 -1.33947e+07 6.62255e-09 2.29214e+07)
(8.5874e+07 -4.29566e+06 -9.63436e-09 -1.4724e+07 -6.58058e-09 2.02905e+07)
(8.76672e+07 -4.20422e+06 -2.30543e-08 -1.42536e+07 -1.96179e-08 2.296e+07)
(8.66802e+07 -3.00275e+06 -1.67204e-08 -1.48578e+07 -1.28924e-08 2.02453e+07)
(8.82176e+07 -2.766e+06 -1.14476e-08 -1.46963e+07 -6.77091e-09 2.29972e+07)
(8.68999e+07 -1.9579e+06 1.47366e-08 -1.42508e+07 8.6887e-09 2.01713e+07)
(3.53447e+07 -2.99852e+07 -1.06036e-08 2.78495e+07 1.20479e-08 1.75796e+07)
(3.98433e+07 -2.31211e+07 4.97622e-08 1.2842e+07 2.63176e-08 1.7249e+07)
(4.72878e+07 -2.53292e+07 -9.63022e-09 1.27827e+07 -1.32748e-08 1.75639e+07)
(4.88849e+07 -1.87222e+07 -4.86272e-09 2.52066e+06 4.9171e-09 1.60207e+07)
(5.59681e+07 -2.11098e+07 -3.52948e-08 1.86263e+06 -9.07215e-09 1.7454e+07)
(5.63075e+07 -1.55975e+07 4.2219e-09 -4.76076e+06 -3.86718e-09 1.52602e+07)
(6.27326e+07 -1.79486e+07 -8.64798e-09 -5.32502e+06 -1.10066e-08 1.77051e+07)
(6.24688e+07 -1.34036e+07 -1.66078e-08 -9.66699e+06 -3.88633e-09 1.51583e+07)
(6.79602e+07 -1.54532e+07 -1.66446e-08 -1.00198e+07 -4.39135e-09 1.81761e+07)
(6.74052e+07 -1.16621e+07 0 -1.29673e+07 0 1.53646e+07)
(7.1954e+07 -1.33355e+07 -1.13896e-08 -1.3123e+07 -6.94286e-09 1.86424e+07)
(7.1249e+07 -1.01279e+07 0 -1.51952e+07 0 1.56839e+07)
(7.50379e+07 -1.14691e+07 4.06479e-09 -1.51671e+07 7.16614e-09 1.90061e+07)
(7.42152e+07 -8.73961e+06 3.02762e-08 -1.67367e+07 1.8112e-08 1.60713e+07)
(7.75311e+07 -9.76875e+06 1.59139e-08 -1.65054e+07 5.07308e-09 1.92118e+07)
(7.65231e+07 -7.54879e+06 -2.5658e-09 -1.79145e+07 4.05317e-10 1.6492e+07)
(7.97231e+07 -8.11689e+06 -2.80918e-09 -1.74341e+07 2.64026e-10 1.92148e+07)
(7.83626e+07 -6.73493e+06 2.01377e-08 -1.88804e+07 1.15854e-08 1.68789e+07)
(8.1788e+07 -6.36159e+06 1.65325e-08 -1.81292e+07 1.18848e-08 1.9094e+07)
(7.9766e+07 -6.54062e+06 5.29226e-09 -1.94655e+07 6.00386e-09 1.75091e+07)
(2.02167e+07 -1.89919e+07 9.15699e-09 2.00204e+07 -1.23844e-08 1.08148e+07)
(2.48189e+07 -1.44442e+07 -1.04331e-08 5.40375e+06 -2.12844e-08 1.08344e+07)
(3.26657e+07 -1.83238e+07 1.52011e-08 6.2304e+06 6.00587e-09 1.08632e+07)
(3.47581e+07 -1.32143e+07 1.83272e-08 -3.89041e+06 5.28181e-10 9.97232e+06)
(4.21958e+07 -1.73159e+07 3.24562e-08 -3.55731e+06 3.11778e-08 1.14353e+07)
(4.30583e+07 -1.26783e+07 6.07382e-08 -1.01367e+07 4.02558e-08 9.84373e+06)
(4.97524e+07 -1.65428e+07 6.32581e-08 -9.82277e+06 3.8228e-08 1.23065e+07)
(4.99378e+07 -1.24896e+07 1.94692e-08 -1.41989e+07 2.3949e-08 1.02806e+07)
(5.56619e+07 -1.57849e+07 3.04465e-08 -1.38035e+07 1.87662e-08 1.32619e+07)
(5.54824e+07 -1.23159e+07 6.13228e-09 -1.68483e+07 6.81308e-09 1.0913e+07)
(6.01887e+07 -1.49285e+07 2.91746e-08 -1.63444e+07 1.82894e-08 1.41566e+07)
(5.98557e+07 -1.20122e+07 6.74103e-09 -1.85672e+07 6.4835e-09 1.15373e+07)
(6.35359e+07 -1.39559e+07 -1.11727e-08 -1.7949e+07 -1.47943e-08 1.49483e+07)
(6.32747e+07 -1.15027e+07 -7.14657e-09 -1.97823e+07 -6.21109e-09 1.20301e+07)
(6.58513e+07 -1.28573e+07 -2.95591e-09 -1.90077e+07 9.80656e-10 1.55803e+07)
(6.60041e+07 -1.07345e+07 -1.15985e-08 -2.10682e+07 -4.75665e-09 1.23688e+07)
(6.73543e+07 -1.1684e+07 -2.95963e-08 -1.98074e+07 -2.2427e-08 1.6131e+07)
(6.84607e+07 -9.93707e+06 -1.8977e-08 -2.2781e+07 -1.7106e-08 1.32134e+07)
(6.86976e+07 -1.09476e+07 4.75151e-09 -1.99233e+07 5.23745e-09 1.75733e+07)
(7.16227e+07 -1.10316e+07 2.17199e-08 -2.11984e+07 1.5027e-08 1.40488e+07)
(9.05874e+06 -8.54486e+06 0 9.53539e+06 0 4.45102e+06)
(1.3285e+07 -6.00674e+06 0 -4.05296e+06 0 4.79581e+06)
(2.09336e+07 -1.14206e+07 0 -2.04496e+06 0 4.5697e+06)
(2.31929e+07 -7.65021e+06 -1.6232e-08 -1.14957e+07 3.42972e-10 4.25982e+06)
(3.04033e+07 -1.32921e+07 -1.6987e-08 -9.91529e+06 1.96991e-10 5.76103e+06)
(3.1586e+07 -9.41686e+06 1.81653e-08 -1.60105e+07 -3.64261e-09 4.70611e+06)
(3.80754e+07 -1.46829e+07 7.20385e-09 -1.4669e+07 -9.1232e-09 7.18769e+06)
(3.85964e+07 -1.0957e+07 0 -1.86605e+07 0 5.61258e+06)
(4.42447e+07 -1.55508e+07 -8.26732e-09 -1.75137e+07 3.10768e-09 8.5441e+06)
(4.43521e+07 -1.20842e+07 3.8021e-08 -2.02097e+07 2.24132e-08 6.61589e+06)
(4.91942e+07 -1.59456e+07 2.11854e-08 -1.9218e+07 1.85146e-08 9.7034e+06)
(4.90241e+07 -1.278e+07 8.24167e-09 -2.11142e+07 1.60266e-08 7.55959e+06)
(5.31119e+07 -1.58922e+07 5.55583e-09 -2.0284e+07 -1.53659e-09 1.06029e+07)
(5.27683e+07 -1.30286e+07 -2.33603e-08 -2.17815e+07 -1.69668e-08 8.29917e+06)
(5.60566e+07 -1.53083e+07 1.39252e-08 -2.11429e+07 1.1429e-08 1.12034e+07)
(5.57433e+07 -1.27675e+07 2.46338e-08 -2.25635e+07 1.49961e-08 8.79156e+06)
(5.81133e+07 -1.42345e+07 6.25494e-09 -2.18761e+07 -1.61253e-09 1.19916e+07)
(5.83371e+07 -1.21987e+07 -2.55351e-08 -2.31024e+07 -1.41228e-08 9.8837e+06)
(5.98153e+07 -1.3446e+07 -2.55779e-08 -2.1425e+07 -1.46069e-08 1.49754e+07)
(6.22794e+07 -1.37398e+07 -1.32449e-08 -2.0563e+07 -9.07917e-09 1.06145e+07)
(1.58573e+06 555035 1.67279e-09 -3.02707e+06 -1.16174e-08 -1.37002e+06)
(5.02426e+06 1.47136e+06 -2.46406e-08 -1.49773e+07 -1.88604e-08 -766532)
(1.19865e+07 -5.16937e+06 -2.80046e-08 -1.157e+07 -1.64584e-08 -1.19641e+06)
(1.41171e+07 -2.51499e+06 -2.55704e-08 -1.98861e+07 -1.81498e-08 -989492)
(2.06397e+07 -9.3525e+06 -2.65601e-08 -1.68653e+07 -4.28381e-09 571175)
(2.19389e+07 -6.13277e+06 1.31887e-08 -2.21501e+07 2.50063e-10 -50.056)
(2.78299e+07 -1.24473e+07 2.75809e-08 -1.96295e+07 1.56295e-08 2.52551e+06)
(2.85469e+07 -9.05144e+06 6.88067e-10 -2.30141e+07 1.38794e-08 1.34726e+06)
(3.37565e+07 -1.45547e+07 -3.0256e-08 -2.09892e+07 -2.3506e-08 4.30403e+06)
(3.40763e+07 -1.12131e+07 -7.28921e-09 -2.31747e+07 -1.75684e-08 2.6863e+06)
(3.86327e+07 -1.5857e+07 -5.87307e-09 -2.15693e+07 2.5373e-09 5.82537e+06)
(3.86903e+07 -1.26914e+07 2.45293e-08 -2.30064e+07 1.42645e-08 3.89616e+06)
(4.25829e+07 -1.64634e+07 1.59335e-08 -2.17748e+07 9.14768e-09 7.02412e+06)
(4.25085e+07 -1.35285e+07 2.77846e-09 -2.28639e+07 8.2294e-09 4.86049e+06)
(4.56473e+07 -1.63924e+07 -3.73705e-08 -2.19288e+07 -2.3551e-08 7.84319e+06)
(4.56247e+07 -1.37655e+07 -4.3821e-08 -2.30049e+07 -2.69144e-08 5.62742e+06)
(4.79722e+07 -1.5856e+07 -2.16004e-09 -2.19114e+07 1.02046e-09 8.82132e+06)
(4.83262e+07 -1.37993e+07 -7.50338e-09 -2.30778e+07 -3.93855e-09 7.11639e+06)
(5.00502e+07 -1.55909e+07 -1.2122e-08 -2.07482e+07 -9.1447e-09 1.18193e+07)
(5.23096e+07 -1.58558e+07 -4.39817e-09 -2.01426e+07 2.15602e-11 8.099e+06)
(-2.71311e+06 7.65742e+06 0 -1.68253e+07 0 -6.57182e+06)
(-344591 7.37297e+06 0 -2.66924e+07 0 -5.75825e+06)
(5.5034e+06 -10079.4 2.36422e-08 -2.17171e+07 3.65008e-08 -6.35662e+06)
(7.30308e+06 1.73796e+06 3.36349e-08 -2.86365e+07 3.5046e-08 -5.66338e+06)
(1.27061e+07 -5.81701e+06 2.49647e-08 -2.39771e+07 1.46067e-08 -4.07197e+06)
(1.40289e+07 -3.1612e+06 2.29661e-08 -2.83533e+07 1.56088e-08 -4.18771e+06)
(1.8901e+07 -1.01184e+07 1.19449e-08 -2.4431e+07 -3.87233e-11 -1.66036e+06)
(1.98187e+07 -7.03072e+06 -1.54703e-09 -2.72406e+07 3.57182e-09 -2.46245e+06)
(2.41739e+07 -1.31316e+07 -1.84498e-08 -2.40704e+07 -1.66637e-08 460711)
(2.47786e+07 -9.92424e+06 -3.49851e-08 -2.58945e+07 -2.53063e-08 -834605)
(2.86573e+07 -1.51413e+07 -3.64144e-08 -2.33531e+07 -2.31719e-08 2.25619e+06)
(2.90318e+07 -1.19919e+07 -2.77244e-08 -2.45768e+07 -1.71481e-08 620117)
(3.24178e+07 -1.63144e+07 -4.56246e-08 -2.25867e+07 -2.332e-08 3.68655e+06)
(3.26542e+07 -1.33243e+07 -9.0331e-09 -2.35637e+07 -1.21787e-08 1.80035e+06)
(3.5465e+07 -1.67098e+07 2.90564e-08 -2.20355e+07 2.31706e-08 4.70793e+06)
(3.5708e+07 -1.40196e+07 4.57516e-08 -2.30827e+07 2.70857e-08 2.74952e+06)
(3.7896e+07 -1.65387e+07 3.46069e-08 -2.15484e+07 1.80324e-08 5.84134e+06)
(3.84451e+07 -1.44988e+07 3.25067e-08 -2.27898e+07 1.78642e-08 4.3842e+06)
(4.00823e+07 -1.64788e+07 2.85355e-08 -2.00549e+07 1.35062e-08 8.91259e+06)
(4.22639e+07 -1.68161e+07 2.09035e-08 -1.94732e+07 1.24968e-08 5.54163e+06)
(-4.4962e+06 1.22905e+07 -1.39432e-09 -3.08815e+07 1.30419e-08 -1.11091e+07)
(-3.30037e+06 1.13196e+07 8.24076e-09 -3.84654e+07 2.59444e-08 -1.01177e+07)
(1.15265e+06 3.68072e+06 -3.22067e-08 -3.19062e+07 -3.10746e-08 -1.08579e+07)
(2.4984e+06 4.80843e+06 -3.03463e-08 -3.72958e+07 -2.73083e-08 -9.71358e+06)
(6.51437e+06 -2.98407e+06 -3.15626e-08 -3.09607e+07 -1.18262e-08 -8.14817e+06)
(7.78144e+06 -743482 -1.17575e-08 -3.43891e+07 -1.02145e-08 -7.81513e+06)
(1.13914e+07 -7.93405e+06 -2.4787e-08 -2.9008e+07 -2.06374e-08 -5.37021e+06)
(1.24756e+07 -5.0884e+06 -1.45071e-08 -3.12634e+07 -2.12056e-08 -5.77754e+06)
(1.57504e+07 -1.14496e+07 1.17112e-08 -2.68787e+07 1.07701e-08 -2.98359e+06)
(1.66361e+07 -8.3589e+06 1.11509e-08 -2.83909e+07 1.06961e-08 -3.92367e+06)
(1.9627e+07 -1.38736e+07 2.69885e-08 -2.48451e+07 1.62211e-08 -979890)
(2.03329e+07 -1.07547e+07 1.90959e-08 -2.5909e+07 1.03385e-08 -2.28581e+06)
(2.30226e+07 -1.5405e+07 2.3273e-08 -2.31054e+07 7.60846e-09 623207)
(2.35949e+07 -1.24013e+07 -6.59973e-09 -2.40235e+07 -2.82832e-09 -948665)
(2.59075e+07 -1.6115e+07 4.2009e-09 -2.18797e+07 4.59298e-09 1.7808e+06)
(2.64473e+07 -1.34191e+07 1.78273e-08 -2.29318e+07 8.94029e-09 128997)
(2.83208e+07 -1.61872e+07 1.20586e-08 -2.09813e+07 5.92413e-09 3.00595e+06)
(2.90775e+07 -1.41955e+07 4.39967e-09 -2.22411e+07 4.10323e-09 1.85257e+06)
(3.05072e+07 -1.62114e+07 5.99765e-09 -1.92365e+07 2.87029e-09 6.13678e+06)
(3.25684e+07 -1.65747e+07 -7.94804e-09 -1.85489e+07 -1.99523e-09 3.17202e+06)
(-4.51523e+06 1.42937e+07 2.26105e-09 -4.42633e+07 -1.12198e-08 -1.49385e+07)
(-4.43131e+06 1.31654e+07 -2.17881e-09 -4.95947e+07 -1.34928e-08 -1.38006e+07)
(-1.48759e+06 5.70841e+06 7.16256e-09 -4.1571e+07 4.05006e-09 -1.46554e+07)
(-625652 6.54957e+06 -6.81482e-11 -4.54074e+07 4.68144e-09 -1.31165e+07)
(1.89975e+06 -1.02744e+06 -1.07265e-08 -3.75158e+07 -8.12251e-09 -1.16092e+07)
(3.07538e+06 982382 -1.60267e-08 -3.9968e+07 -1.64965e-08 -1.08583e+07)
(5.32784e+06 -6.03249e+06 1.7404e-08 -3.3237e+07 1.42616e-08 -8.54434e+06)
(6.55637e+06 -3.34138e+06 1.63768e-08 -3.49131e+07 1.11137e-08 -8.56264e+06)
(8.65822e+06 -9.61089e+06 -2.65334e-09 -2.9413e+07 -9.0713e-09 -5.95727e+06)
(9.81378e+06 -6.60651e+06 -1.67398e-08 -3.05905e+07 -7.44373e-09 -6.532e+06)
(1.18218e+07 -1.21239e+07 -3.49018e-08 -2.6128e+07 -1.71893e-08 -3.79894e+06)
(1.28578e+07 -9.03833e+06 -1.32334e-08 -2.70069e+07 -1.33591e-08 -4.75544e+06)
(1.47502e+07 -1.37716e+07 2.336e-08 -2.34659e+07 1.84615e-08 -2.06612e+06)
(1.56707e+07 -1.07765e+07 2.30759e-08 -2.42931e+07 1.69923e-08 -3.29861e+06)
(1.73744e+07 -1.4621e+07 -1.23602e-08 -2.1596e+07 -1.14856e-08 -804505)
(1.82365e+07 -1.19429e+07 -2.38426e-08 -2.26039e+07 -1.33485e-08 -2.12105e+06)
(1.96825e+07 -1.48208e+07 -2.60786e-09 -2.02925e+07 2.24844e-09 483778)
(2.0664e+07 -1.28783e+07 1.0126e-08 -2.14955e+07 4.24411e-09 -341207)
(2.18095e+07 -1.48525e+07 1.0948e-08 -1.83148e+07 4.03132e-09 3.60505e+06)
(2.37376e+07 -1.51644e+07 1.67674e-09 -1.74945e+07 5.4466e-10 1.12529e+06)
(-3.52737e+06 1.37792e+07 1.68368e-09 -5.61743e+07 -2.28535e-08 -1.80468e+07)
(-4.36323e+06 1.29785e+07 -2.20611e-08 -5.94755e+07 -3.27329e-08 -1.67689e+07)
(-2.92011e+06 6.06027e+06 -1.26899e-08 -5.01488e+07 -7.60931e-09 -1.77296e+07)
(-2.45726e+06 6.97066e+06 -3.82333e-09 -5.24844e+07 -1.36177e-08 -1.58599e+07)
(-1.39633e+06 -9571.12 -3.07648e-10 -4.32784e+07 -3.87899e-09 -1.43911e+07)
(-272805 2.00281e+06 -9.06874e-09 -4.47188e+07 -5.29553e-10 -1.32708e+07)
(658801 -4.48644e+06 -2.85769e-08 -3.691e+07 -1.86931e-08 -1.10892e+07)
(2.04587e+06 -1.81592e+06 -2.54521e-08 -3.79486e+07 -2.20997e-08 -1.07536e+07)
(3.0042e+06 -7.69916e+06 -3.19856e-10 -3.15901e+07 2.35148e-09 -8.35581e+06)
(4.4306e+06 -4.70842e+06 0 -3.23749e+07 0 -8.58819e+06)
(5.46239e+06 -9.98666e+06 1.3434e-08 -2.72032e+07 8.99425e-09 -6.09508e+06)
(6.82886e+06 -6.89899e+06 7.92973e-09 -2.78452e+07 5.15032e-09 -6.70944e+06)
(7.90552e+06 -1.1515e+07 3.80503e-09 -2.372e+07 2.23089e-09 -4.27703e+06)
(9.17712e+06 -8.51695e+06 1.22561e-08 -2.44069e+07 5.27196e-09 -5.16488e+06)
(1.02338e+07 -1.23355e+07 2.61044e-08 -2.12641e+07 1.17252e-08 -2.94204e+06)
(1.142e+07 -9.66812e+06 1.91517e-08 -2.21658e+07 9.97945e-09 -3.91604e+06)
(1.23918e+07 -1.25537e+07 1.64272e-08 -1.95798e+07 7.55046e-09 -1.61281e+06)
(1.35969e+07 -1.06309e+07 1.84938e-08 -2.06412e+07 9.63001e-09 -2.11718e+06)
(1.44208e+07 -1.25191e+07 1.27353e-08 -1.74055e+07 4.97124e-09 1.44247e+06)
(1.62357e+07 -1.26853e+07 1.16065e-08 -1.64254e+07 6.03677e-09 -552012)
(-2.21794e+06 1.10341e+07 -6.9808e-11 -6.59717e+07 2.47091e-08 -2.03955e+07)
(-3.65827e+06 1.10554e+07 1.08633e-08 -6.75772e+07 2.55548e-08 -1.89432e+07)
(-3.64127e+06 4.90663e+06 1.6884e-08 -5.71074e+07 2.3871e-08 -1.99947e+07)
(-3.34066e+06 6.29912e+06 1.27605e-08 -5.79746e+07 1.91596e-08 -1.78799e+07)
(-3.61459e+06 177419 9.19895e-09 -4.78487e+07 1.59209e-09 -1.63668e+07)
(-2.40777e+06 2.47903e+06 8.79298e-09 -4.82549e+07 7.53626e-09 -1.49682e+07)
(-2.63247e+06 -3.25797e+06 6.45725e-09 -3.98017e+07 5.62579e-09 -1.29063e+07)
(-1.04708e+06 -449513 3.30241e-09 -4.02109e+07 7.16274e-09 -1.22919e+07)
(-1.09311e+06 -5.75598e+06 -1.69552e-08 -3.33161e+07 -1.36718e-08 -1.01179e+07)
(600536 -2.70607e+06 -1.1383e-08 -3.37204e+07 -1.03391e-08 -1.00495e+07)
(745605 -7.55954e+06 -1.76892e-08 -2.80543e+07 -8.81431e-09 -7.82071e+06)
(2.42813e+06 -4.46025e+06 -5.63704e-09 -2.84726e+07 -4.3715e-09 -8.11276e+06)
(2.73467e+06 -8.77492e+06 -1.09406e-09 -2.39092e+07 2.17697e-09 -5.96386e+06)
(4.33865e+06 -5.80726e+06 8.39979e-09 -2.44686e+07 5.37063e-09 -6.51679e+06)
(4.76745e+06 -9.4359e+06 -5.74855e-09 -2.09687e+07 -4.87489e-09 -4.58924e+06)
(6.24827e+06 -6.82526e+06 -5.42015e-09 -2.17575e+07 -3.37583e-09 -5.22335e+06)
(6.76093e+06 -9.59792e+06 -1.24105e-08 -1.89413e+07 -5.91305e-09 -3.24502e+06)
(8.14665e+06 -7.70854e+06 -5.38473e-09 -1.98067e+07 -2.80702e-09 -3.44318e+06)
(8.67224e+06 -9.45082e+06 1.61543e-09 -1.65839e+07 3.26383e-09 -315185)
(1.03701e+07 -9.40016e+06 -1.12039e-09 -1.53988e+07 -5.93252e-10 -1.88578e+06)
(-1.09154e+06 6.47942e+06 1.31876e-10 -7.30729e+07 -5.4007e-09 -2.1933e+07)
(-2.73887e+06 8.07516e+06 0 -7.29592e+07 0 -2.07221e+07)
(-3.88627e+06 2.70017e+06 -9.04976e-09 -6.19179e+07 -1.8648e-08 -2.14173e+07)
(-3.42798e+06 5.07763e+06 -5.43524e-09 -6.15849e+07 -1.94029e-08 -1.90547e+07)
(-4.72507e+06 -119837 2.25022e-09 -5.0892e+07 3.56704e-09 -1.76536e+07)
(-3.33155e+06 2.61287e+06 -3.60707e-10 -5.0762e+07 4.02654e-10 -1.59658e+07)
(-4.4556e+06 -2.23815e+06 7.92934e-09 -4.17877e+07 9.29117e-09 -1.42453e+07)
(-2.69328e+06 654273 7.22823e-09 -4.19828e+07 1.21593e-08 -1.3306e+07)
(-3.54708e+06 -3.84674e+06 9.17153e-09 -3.45538e+07 9.82607e-09 -1.14856e+07)
(-1.66929e+06 -889403 3.36473e-09 -3.48335e+07 4.61013e-09 -1.10532e+07)
(-2.24023e+06 -5.00459e+06 4.33859e-09 -2.87026e+07 2.87898e-09 -9.15255e+06)
(-366033 -2.10546e+06 2.00006e-09 -2.90101e+07 2.43992e-09 -9.09792e+06)
(-677663 -5.76186e+06 -1.04073e-08 -2.4112e+07 -8.2996e-09 -7.23759e+06)
(1.12243e+06 -3.06469e+06 -6.89109e-09 -2.45385e+07 -6.97541e-09 -7.49885e+06)
(1.0353e+06 -6.15744e+06 5.8943e-11 -2.08199e+07 5.04661e-10 -5.80179e+06)
(2.70733e+06 -3.83223e+06 2.2421e-10 -2.1427e+07 3.65281e-10 -6.18421e+06)
(2.81349e+06 -6.22969e+06 -1.86854e-09 -1.84533e+07 -1.26712e-09 -4.42791e+06)
(4.34701e+06 -4.52857e+06 -1.85796e-09 -1.90874e+07 -1.6849e-09 -4.35903e+06)
(4.59915e+06 -6.01253e+06 -7.36716e-09 -1.58195e+07 -5.20096e-09 -1.70247e+06)
(6.23238e+06 -5.7987e+06 5.78235e-10 -1.47073e+07 4.09149e-10 -2.59532e+06)
(-254932 853582 -6.44591e-12 -7.67251e+07 -1.68542e-12 -2.37639e+07)
(-2.60341e+06 3.99909e+06 -4.09089e-09 -7.58299e+07 9.25147e-09 -2.14456e+07)
(-3.03626e+06 221939 -7.97088e-10 -6.41103e+07 1.07995e-08 -2.32987e+07)
(-4.04536e+06 2.83715e+06 3.67935e-09 -6.38366e+07 5.55824e-09 -1.86124e+07)
(-4.60351e+06 -656067 4.68665e-10 -5.23835e+07 -6.4472e-09 -1.93199e+07)
(-4.60112e+06 1.86268e+06 1.22017e-09 -5.24861e+07 -5.92551e-09 -1.55631e+07)
(-5.0674e+06 -1.4997e+06 -3.18735e-09 -4.2918e+07 -9.43209e-09 -1.5783e+07)
(-4.45608e+06 1.11875e+06 -3.70178e-09 -4.31202e+07 -1.18644e-08 -1.30804e+07)
(-4.69037e+06 -2.14943e+06 -8.18031e-10 -3.5313e+07 -2.22442e-09 -1.28652e+07)
(-3.76855e+06 549205 2.63256e-10 -3.54491e+07 -3.96188e-09 -1.09213e+07)
(-3.74382e+06 -2.54628e+06 -3.38927e-09 -2.91559e+07 -6.48289e-09 -1.03974e+07)
(-2.69408e+06 60505.7 -2.81494e-09 -2.92661e+07 -7.55078e-09 -9.01535e+06)