/*--------------------------------*- C++ -*----------------------------------*\
| =========                 |                                                 |
| \\      /  F ield         | OpenFOAM: The Open Source CFD Toolbox           |
|  \\    /   O peration     | Version:  v2012                                 |
|   \\  /    A nd           | Website:  www.openfoam.com                      |
|    \\/     M anipulation  |                                                 |
\*---------------------------------------------------------------------------*/
FoamFile
{
    version     2.0;
    format      ascii;
    class       pointVectorField;
    location    "3";
    object      pointD;
}
// * * * * * * * * * * * * * * * * * * * * * * * * * * * * * * * * * * * * * //

dimensions      [0 1 0 0 0 0 0];


internalField   nonuniform List<vector> 
30930
(
(0.00106484 0 -1.54773e-22)
(0.00151687 0 0)
(0.00139957 -0.00013954 1.00806e-22)
(0 -0.000749461 8.90563e-22)
(0 -0.000582463 1.77313e-21)
(0.00106484 0 -1.54773e-22)
(0.00151687 0 0)
(0.00139957 -0.00013954 1.00806e-22)
(0 -0.000749461 8.90563e-22)
(0 -0.000582463 1.77313e-21)
(0.00106809 0 0)
(0.00107144 0 0)
(0.00107474 0 0)
(0.00107764 0 0)
(0.00107984 0 0)
(0.00108188 0 0)
(0.0010838 0 0)
(0.0010855 0 0)
(0.00108693 0 0)
(0.00108821 0 0)
(0.00108944 0 0)
(0.00109065 0 0)
(0.00109179 0 0)
(0.00109285 0 0)
(0.00109399 0 0)
(0.00109515 0 0)
(0.00109633 0 0)
(0.00109753 0 0)
(0.00109865 0 0)
(0.00109988 0 0)
(0.00110117 0 0)
(0.00110244 0 0)
(0.00110383 0 0)
(0.00110534 0 0)
(0.0011069 0 0)
(0.00110854 0 0)
(0.00111022 0 0)
(0.00111199 0 0)
(0.00111385 0 0)
(0.00111575 0 0)
(0.00111772 0 0)
(0.00111983 0 0)
(0.00112194 0 0)
(0.001124 0 0)
(0.00112636 0 0)
(0.00112886 0 0)
(0.00113125 0 0)
(0.00113373 0 0)
(0.00113636 0 0)
(0.00113901 0 0)
(0.00114153 0 0)
(0.00114444 0 0)
(0.0011475 0 0)
(0.00115041 0 0)
(0.00115337 0 0)
(0.00115647 0 0)
(0.00115968 0 0)
(0.00116293 0 0)
(0.0011663 0 0)
(0.00116971 0 0)
(0.0011731 0 0)
(0.00117658 0 0)
(0.00118005 0 0)
(0.00118368 0 0)
(0.00118751 0 0)
(0.00119132 0 0)
(0.00119514 0 0)
(0.00119889 0 0)
(0.0012028 0 0)
(0.00120683 0 0)
(0.00121082 0 0)
(0.00121489 0 0)
(0.00121935 0 0)
(0.00122372 0 0)
(0.00122782 0 0)
(0.0012321 0 0)
(0.00123644 0 0)
(0.00124078 0 0)
(0.00124556 0 0)
(0.00125031 0 0)
(0.0012547 0 0)
(0.00125924 0 0)
(0.00126368 0 0)
(0.0012686 0 0)
(0.00127364 0 0)
(0.00127835 0 0)
(0.00128319 0 0)
(0.00128799 0 0)
(0.00129275 0 0)
(0.00129794 0 0)
(0.00130305 0 0)
(0.00130828 0 0)
(0.0013136 0 0)
(0.00131859 0 0)
(0.00132374 0 0)
(0.00132901 0 0)
(0.0013343 0 0)
(0.00133929 0 0)
(0.0013448 0 0)
(0.00135054 0 0)
(0.00135593 0 0)
(0.0013612 0 0)
(0.00136622 0 0)
(0.00137176 0 0)
(0.00137755 0 0)
(0.00138297 0 0)
(0.00138838 0 0)
(0.00139401 0 0)
(0.00139949 0 0)
(0.00140461 0 0)
(0.00141065 0 0)
(0.0014167 0 0)
(0.00142205 0 0)
(0.00142772 0 0)
(0.00143344 0 0)
(0.00143907 0 0)
(0.00144487 0 0)
(0.0014506 0 0)
(0.00145608 0 0)
(0.00146171 0 0)
(0.00146737 0 0)
(0.0014732 0 0)
(0.00147904 0 0)
(0.00148467 0 0)
(0.00149017 0 0)
(0.00149594 0 0)
(0.00150171 0 0)
(0.00150703 0 0)
(0.00151259 0 0)
(0.00151823 -5.50711e-07 1.39573e-21)
(0.00151814 -1.01526e-06 6.10259e-22)
(0.00151796 -1.50879e-06 -1.96142e-21)
(0.00151769 -2.08061e-06 1.48348e-21)
(0.00151738 -2.60097e-06 4.65938e-21)
(0.00151698 -3.13266e-06 2.83323e-21)
(0.00151652 -3.68144e-06 1.38434e-21)
(0.00151597 -4.26562e-06 1.42347e-21)
(0.00151537 -4.85481e-06 1.58077e-21)
(0.00151466 -5.47649e-06 -3.45186e-23)
(0.00151398 -6.03315e-06 -1.61505e-21)
(0.00151321 -6.64372e-06 -9.12879e-22)
(0.00151225 -7.3747e-06 -1.26081e-21)
(0.00151131 -8.06433e-06 -2.46687e-21)
(0.00151031 -8.77172e-06 -2.0567e-21)
(0.00150924 -9.51071e-06 -1.46381e-21)
(0.00150812 -1.0278e-05 -6.53878e-22)
(0.00150697 -1.10499e-05 -1.93539e-22)
(0.0015057 -1.1902e-05 -1.93539e-22)
(0.00150431 -1.2837e-05 -1.90533e-22)
(0.00150297 -1.37327e-05 7.85713e-22)
(0.00150165 -1.46128e-05 1.2195e-22)
(0.00150014 -1.56119e-05 -2.00291e-22)
(0.00149862 -1.66381e-05 8.96624e-22)
(0.0014972 -1.76134e-05 2.42619e-22)
(0.00149554 -1.87407e-05 5.29294e-22)
(0.00149381 -1.99335e-05 -7.60697e-22)
(0.0014922 -2.10769e-05 -6.68472e-22)
(0.00149059 -2.22216e-05 -3.17294e-22)
(0.00148871 -2.35701e-05 -4.40551e-22)
(0.0014868 -2.49779e-05 8.74435e-22)
(0.00148509 -2.6258e-05 6.78301e-22)
(0.00148308 -2.77924e-05 1.48586e-21)
(0.0014811 -2.93347e-05 1.69525e-21)
(0.00147933 -3.07337e-05 1.04534e-22)
(0.00147749 -3.22263e-05 -4.11156e-22)
(0.00147559 -3.37915e-05 1.14043e-22)
(0.00147366 -3.54236e-05 9.51913e-22)
(0.00147157 -3.72312e-05 1.34705e-21)
(0.00146952 -3.90372e-05 5.13348e-22)
(0.00146741 -4.09367e-05 -6.22558e-22)
(0.00146552 -4.26399e-05 -6.22558e-22)
(0.00146364 -4.44261e-05 -9.90861e-22)
(0.00146156 -4.64583e-05 8.35188e-22)
(0.00145947 -4.85227e-05 1.94349e-21)
(0.00145733 -5.07069e-05 1.17441e-22)
(0.0014554 -5.27173e-05 8.88813e-22)
(0.00145339 -5.48622e-05 -1.76259e-23)
(0.00145135 -5.71028e-05 -9.50558e-22)
(0.00144934 -5.93703e-05 1.79293e-21)
(0.00144736 -6.16507e-05 1.83705e-21)
(0.00144536 -6.40377e-05 -1.29229e-22)
(0.0014434 -6.64226e-05 -6.52451e-22)
(0.00144137 -6.89819e-05 -1.03916e-21)
(0.00143938 -7.15487e-05 -8.50458e-22)
(0.00143764 -7.38457e-05 -1.60525e-21)
(0.00143593 -7.61787e-05 -1.91235e-21)
(0.00143406 -7.88048e-05 -2.41384e-22)
(0.00143223 -8.14328e-05 1.17302e-21)
(0.00143046 -8.40515e-05 7.72778e-22)
(0.00142854 -8.69974e-05 -1.21872e-21)
(0.00142678 -8.97749e-05 -2.36845e-21)
(0.00142518 -9.23574e-05 -6.30056e-22)
(0.00142359 -9.49935e-05 5.19674e-22)
(0.00142199 -9.77183e-05 -2.57585e-22)
(0.00142042 -0.000100477 -1.90624e-24)
(0.00141888 -0.000103251 1.93021e-21)
(0.00141719 -0.00010637 9.62927e-22)
(0.00141579 -0.000109025 1.28725e-21)
(0.00141445 -0.000111626 3.21721e-21)
(0.00141292 -0.000114653 1.21836e-21)
(0.00141155 -0.000117423 0)
(0.00141017 -0.000120258 2.56283e-22)
(0.00140881 -0.000123088 1.0702e-21)
(0.00140748 -0.000125889 -5.38901e-22)
(0.00140618 -0.000128642 -2.77836e-21)
(0.00140473 -0.000131729 -1.26488e-21)
(0.00140348 -0.000134396 -6.61987e-22)
(0.00140229 -0.000136917 -8.22655e-22)
(0.0013942 -0.000141265 -1.13971e-23)
(0.00138771 -0.000142586 -9.30507e-22)
(0.00138153 -0.000143844 -2.8304e-22)
(0.00137486 -0.000145202 6.88631e-23)
(0.00136823 -0.000146545 -8.82528e-22)
(0.00136193 -0.00014781 -6.53191e-22)
(0.0013555 -0.000149084 -2.37064e-22)
(0.00134884 -0.000150384 0)
(0.00134221 -0.000151652 -5.39933e-23)
(0.00133583 -0.000152846 -4.45427e-22)
(0.00132941 -0.000154017 -6.369e-22)
(0.00132319 -0.000155121 -1.52389e-22)
(0.00131675 -0.000156236 8.33614e-22)
(0.00131003 -0.000157357 4.85955e-22)
(0.00130346 -0.000158419 -3.14697e-22)
(0.00129685 -0.000159451 -3.46606e-22)
(0.00129027 -0.000160434 -5.75073e-22)
(0.00128414 -0.000161319 -5.01261e-22)
(0.00127705 -0.000162302 -1.80838e-22)
(0.00126995 -0.00016325 6.48532e-22)
(0.00126383 -0.000164028 2.95715e-22)
(0.00125716 -0.000164842 -7.38576e-22)
(0.00125036 -0.000165632 -6.65823e-22)
(0.00124376 -0.000166365 6.11425e-23)
(0.0012371 -0.000167073 5.50841e-22)
(0.00122988 -0.000167804 -3.07947e-22)
(0.0012229 -0.000168486 -3.89192e-22)
(0.00121631 -0.000169093 -6.5157e-22)
(0.00120954 -0.000169686 -8.11798e-22)
(0.00120274 -0.000170262 -2.05201e-22)
(0.00119516 -0.000170881 -5.22148e-22)
(0.00118782 -0.000171455 -5.36738e-22)
(0.00118109 -0.000171954 5.65823e-22)
(0.00117385 -0.00017247 9.68258e-22)
(0.00116652 -0.000172975 -1.18208e-22)
(0.00115923 -0.000173461 -7.91944e-22)
(0.00115202 -0.000173929 6.46338e-22)
(0.00114426 -0.000174425 1.60865e-21)
(0.00113655 -0.000174902 -6.81415e-23)
(0.00112884 -0.000175371 -1.48724e-22)
(0.00112092 -0.000175853 5.29834e-22)
(0.00111349 -0.000176302 2.52883e-22)
(0.00110581 -0.00017676 -1.36678e-22)
(0.00109821 -0.000177209 -2.88918e-23)
(0.00109065 -0.000177662 7.7585e-22)
(0.00108228 -0.000178179 1.46104e-21)
(0.00107357 -0.000178729 7.85793e-22)
(0.00106556 -0.000179238 7.78331e-22)
(0.00105778 -0.00017974 3.5497e-22)
(0.0010494 -0.000180298 2.01366e-22)
(0.00104106 -0.000180873 1.82417e-21)
(0.00103337 -0.000181423 6.65483e-22)
(0.00102433 -0.000182101 -5.70424e-22)
(0.00101514 -0.000182816 -2.44351e-22)
(0.0010065 -0.000183521 -3.53924e-22)
(0.000997762 -0.000184257 -2.66904e-22)
(0.000989431 -0.000184988 -1.92877e-22)
(0.000980778 -0.000185785 5.64443e-22)
(0.000971905 -0.000186643 6.33078e-22)
(0.000962245 -0.000187629 -1.24241e-22)
(0.000952923 -0.000188625 0)
(0.000943387 -0.0001897 -5.12966e-22)
(0.000933791 -0.000190823 2.91994e-22)
(0.000924055 -0.000192025 1.45862e-21)
(0.00091419 -0.000193301 7.36139e-22)
(0.000905122 -0.000194535 5.52888e-22)
(0.000895694 -0.000195879 9.87793e-22)
(0.000886512 -0.000197239 1.68794e-21)
(0.000876021 -0.000198877 5.74082e-22)
(0.00086547 -0.000200603 -2.80909e-22)
(0.000856127 -0.000202204 1.55045e-21)
(0.000846341 -0.000203947 7.44218e-22)
(0.000835291 -0.000206017 1.15314e-22)
(0.000824545 -0.000208118 1.35371e-21)
(0.000813783 -0.000210327 9.65774e-22)
(0.000804191 -0.000212328 4.33745e-22)
(0.00079438 -0.000214483 2.15703e-22)
(0.000783142 -0.000217082 -3.22876e-22)
(0.000772101 -0.000219744 -3.36531e-22)
(0.000760717 -0.000222584 -6.39068e-23)
(0.000749961 -0.000225385 1.54697e-21)
(0.000738779 -0.0002284 3.76718e-21)
(0.000727278 -0.000231627 2.35198e-21)
(0.000716208 -0.000234856 1.30059e-22)
(0.00070544 -0.000238113 -1.92422e-22)
(0.000694307 -0.000241613 7.58539e-22)
(0.00068279 -0.000245365 1.47444e-21)
(0.000670328 -0.000249564 3.11018e-21)
(0.000658197 -0.000253807 3.3703e-21)
(0.000647128 -0.00025782 1.5773e-21)
(0.000636083 -0.000261945 1.65556e-21)
(0.000624712 -0.000266338 -1.34974e-21)
(0.000612843 -0.000271074 -2.16787e-21)
(0.000601012 -0.000275939 -7.78677e-22)
(0.000589575 -0.000280803 2.60563e-22)
(0.000576904 -0.000286375 1.09123e-22)
(0.000564401 -0.00029204 -1.06385e-22)
(0.00055224 -0.000297744 5.20648e-22)
(0.000540299 -0.000303487 1.86942e-21)
(0.000528502 -0.00030938 1.14213e-21)
(0.000516152 -0.000315724 1.14188e-22)
(0.000504587 -0.000321839 1.581e-21)
(0.000492528 -0.000328387 1.12817e-21)
(0.00048012 -0.000335317 1.76188e-21)
(0.000468013 -0.000342273 4.61952e-22)
(0.000455859 -0.00034947 5.00098e-22)
(0.000443742 -0.000356867 1.65265e-21)
(0.000431988 -0.000364211 2.35442e-21)
(0.000420087 -0.000371862 1.83245e-21)
(0.000408244 -0.000379689 1.62823e-21)
(0.000396405 -0.000387707 1.51014e-21)
(0.000384781 -0.000395802 8.9911e-22)
(0.000372765 -0.000404367 2.56998e-21)
(0.000360944 -0.000413006 -7.57581e-22)
(0.00034876 -0.000422182 -2.42845e-21)
(0.000336714 -0.000431475 4.54412e-22)
(0.000324738 -0.000440938 1.78258e-21)
(0.000314236 -0.000449437 1.48967e-21)
(0.00030416 -0.000457877 -1.19511e-21)
(0.000292844 -0.000467446 1.09296e-21)
(0.000281674 -0.000477159 2.44957e-21)
(0.000269997 -0.000487492 5.64375e-22)
(0.0002597 -0.000496894 -9.8497e-22)
(0.000249658 -0.000506292 -2.20675e-21)
(0.000239234 -0.000516148 -6.57405e-22)
(0.000229073 -0.000526007 2.66003e-21)
(0.000219041 -0.000535942 -5.98094e-22)
(0.000209322 -0.000545761 -4.50926e-21)
(0.000199846 -0.000555524 7.28698e-22)
(0.000190224 -0.000565583 1.34809e-21)
(0.000181139 -0.000575277 -2.28783e-21)
(0.000172446 -0.000584647 -3.99511e-21)
(0.000163446 -0.000594532 -1.421e-22)
(0.000154888 -0.000604116 3.37477e-22)
(0.00014702 -0.00061299 2.63267e-21)
(0.000139079 -0.000622056 3.41019e-21)
(0.000131239 -0.000631081 -1.76289e-21)
(0.000122935 -0.000640765 -1.84955e-21)
(0.000114879 -0.000650137 -2.22617e-21)
(0.000108094 -0.000658084 -1.05758e-21)
(0.000101377 -0.00066604 8.12828e-22)
(9.44291e-05 -0.000674121 2.69101e-21)
(8.79309e-05 -0.000681707 2.4555e-21)
(8.17189e-05 -0.00068887 -5.64317e-22)
(7.56069e-05 -0.000695754 -1.56472e-21)
(6.98126e-05 -0.000702162 4.75268e-22)
(6.39987e-05 -0.000708446 1.55284e-21)
(5.82234e-05 -0.000714524 -5.06869e-22)
(5.28024e-05 -0.000719989 7.09598e-22)
(4.7493e-05 -0.000725093 1.87096e-21)
(4.20569e-05 -0.000729999 0)
(3.70798e-05 -0.000734139 3.89803e-22)
(3.24544e-05 -0.000737604 -2.78283e-22)
(2.76397e-05 -0.000740829 -5.1374e-22)
(2.28021e-05 -0.00074366 3.93555e-22)
(1.80991e-05 -0.000745958 2.13877e-22)
(1.35901e-05 -0.000747724 6.18806e-22)
(9.15167e-06 -0.000748997 1.01291e-21)
(4.83342e-06 -0.000749759 1.25934e-21)
(0 -0.00074776 0)
(0 -0.000745861 0)
(0 -0.000743589 0)
(0 -0.00074085 0)
(0 -0.000738256 0)
(0 -0.000735496 0)
(0 -0.00073261 0)
(0 -0.000729742 0)
(0 -0.000726589 0)
(0 -0.000723461 0)
(0 -0.000720604 0)
(0 -0.000717477 0)
(0 -0.000714223 0)
(0 -0.000710998 0)
(0 -0.000707724 0)
(0 -0.000704364 0)
(0 -0.000701116 0)
(0 -0.000697903 0)
(0 -0.000694632 0)
(0 -0.000691114 0)
(0 -0.000687556 0)
(0 -0.000684276 0)
(0 -0.000680802 0)
(0 -0.000677075 0)
(0 -0.000673499 0)
(0 -0.00066991 0)
(0 -0.00066597 0)
(0 -0.000661839 0)
(0 -0.000657575 0)
(0 -0.000653126 0)
(0 -0.000648315 0)
(0 -0.000643161 0)
(0 -0.000637854 0)
(0 -0.000631632 0)
(0 -0.000624735 0)
(0 -0.000617641 0)
(0 -0.000609567 0)
(0 -0.00060059 0)
(0 -0.000591005 0)
(2.96636e-05 -0.000578538 1.77309e-21)
(5.62453e-05 -0.000577856 -5.4084e-22)
(8.44608e-05 -0.000576345 -2.40792e-22)
(0.000113088 -0.000574026 1.98937e-21)
(0.000141318 -0.000571377 2.92532e-21)
(0.000169371 -0.000568046 2.72626e-21)
(0.000196994 -0.000564226 -6.58741e-23)
(0.000224775 -0.000559809 -1.55614e-21)
(0.000252585 -0.000554753 0)
(0.000280149 -0.000549235 -2.28244e-21)
(0.000306932 -0.000543269 -1.21426e-21)
(0.000332297 -0.000537165 -4.52711e-21)
(0.000358827 -0.000530334 -3.78629e-21)
(0.000385402 -0.000522794 1.74713e-21)
(0.000412631 -0.000514664 1.60558e-21)
(0.00043862 -0.00050643 -5.48725e-22)
(0.000461825 -0.000498442 2.23963e-21)
(0.000486355 -0.000489661 4.45582e-21)
(0.000511069 -0.000480361 -1.24041e-21)
(0.000535525 -0.000470823 -3.98681e-21)
(0.000558686 -0.00046125 -1.47275e-21)
(0.000580693 -0.000451777 3.80859e-21)
(0.000602655 -0.000441865 -1.25018e-21)
(0.000625383 -0.000431163 -2.49052e-21)
(0.000647047 -0.000421252 -3.29757e-21)
(0.000667192 -0.000411176 -6.00911e-21)
(0.000687444 -0.000400427 -1.41694e-21)
(0.000708183 -0.000389392 -9.17208e-22)
(0.000728413 -0.000378016 -6.27764e-22)
(0.000746912 -0.00036737 3.62995e-21)
(0.000766094 -0.000356049 3.67498e-22)
(0.000784512 -0.000344566 -2.86119e-21)
(0.000801296 -0.000333769 5.72643e-21)
(0.000817748 -0.000322942 3.89533e-21)
(0.000833353 -0.00031237 -1.71927e-21)
(0.000850054 -0.00030052 -4.23325e-25)
(0.00086632 -0.000288483 -1.80307e-21)
(0.000880699 -0.000277741 -1.9629e-21)
(0.000894344 -0.00026675 1.46272e-21)
(0.000907706 -0.000255555 2.30134e-21)
(0.000920852 -0.000244471 2.99584e-22)
(0.000933771 -0.000232753 -3.31179e-21)
(0.000945892 -0.000221529 -4.16467e-22)
(0.000957027 -0.000210671 3.97155e-21)
(0.00096809 -0.000199193 1.45501e-21)
(0.000978303 -0.000188095 1.41793e-24)
(0.000987607 -0.000177419 -1.26199e-21)
(0.000996994 -0.000165774 -3.06069e-21)
(0.0010062 -0.000153568 -2.04276e-21)
(0.00101434 -0.000142298 8.26397e-22)
(0.00102139 -0.000131667 1.51144e-21)
(0.00102775 -0.000121273 -1.49292e-21)
(0.0010338 -0.000110609 -1.93248e-21)
(0.00103958 -9.89992e-05 2.05026e-22)
(0.0010448 -8.74704e-05 2.06222e-22)
(0.00104916 -7.6894e-05 4.4674e-22)
(0.00105308 -6.54212e-05 6.67002e-22)
(0.00105626 -5.4481e-05 -1.08661e-21)
(0.00105873 -4.4112e-05 -1.27464e-21)
(0.00106075 -3.33806e-05 2.67679e-21)
(0.00106223 -2.25331e-05 2.36688e-21)
(0.00106315 -1.16295e-05 -4.31254e-22)
(0.00106809 0 0)
(0.00107144 0 0)
(0.00107474 0 0)
(0.00107764 0 0)
(0.00107984 0 0)
(0.00108188 0 0)
(0.0010838 0 0)
(0.0010855 0 0)
(0.00108693 0 0)
(0.00108821 0 0)
(0.00108944 0 0)
(0.00109065 0 0)
(0.00109179 0 0)
(0.00109285 0 0)
(0.00109399 0 0)
(0.00109515 0 0)
(0.00109633 0 0)
(0.00109753 0 0)
(0.00109865 0 0)
(0.00109988 0 0)
(0.00110117 0 0)
(0.00110244 0 0)
(0.00110383 0 0)
(0.00110534 0 0)
(0.0011069 0 0)
(0.00110854 0 0)
(0.00111022 0 0)
(0.00111199 0 0)
(0.00111385 0 0)
(0.00111575 0 0)
(0.00111772 0 0)
(0.00111983 0 0)
(0.00112194 0 0)
(0.001124 0 0)
(0.00112636 0 0)
(0.00112886 0 0)
(0.00113125 0 0)
(0.00113373 0 0)
(0.00113636 0 0)
(0.00113901 0 0)
(0.00114153 0 0)
(0.00114444 0 0)
(0.0011475 0 0)
(0.00115041 0 0)
(0.00115337 0 0)
(0.00115647 0 0)
(0.00115968 0 0)
(0.00116293 0 0)
(0.0011663 0 0)
(0.00116971 0 0)
(0.0011731 0 0)
(0.00117658 0 0)
(0.00118005 0 0)
(0.00118368 0 0)
(0.00118751 0 0)
(0.00119132 0 0)
(0.00119514 0 0)
(0.00119889 0 0)
(0.0012028 0 0)
(0.00120683 0 0)
(0.00121082 0 0)
(0.00121489 0 0)
(0.00121935 0 0)
(0.00122372 0 0)
(0.00122782 0 0)
(0.0012321 0 0)
(0.00123644 0 0)
(0.00124078 0 0)
(0.00124556 0 0)
(0.00125031 0 0)
(0.0012547 0 0)
(0.00125924 0 0)
(0.00126368 0 0)
(0.0012686 0 0)
(0.00127364 0 0)
(0.00127835 0 0)
(0.00128319 0 0)
(0.00128799 0 0)
(0.00129275 0 0)
(0.00129794 0 0)
(0.00130305 0 0)
(0.00130828 0 0)
(0.0013136 0 0)
(0.00131859 0 0)
(0.00132374 0 0)
(0.00132901 0 0)
(0.0013343 0 0)
(0.00133929 0 0)
(0.0013448 0 0)
(0.00135054 0 0)
(0.00135593 0 0)
(0.0013612 0 0)
(0.00136622 0 0)
(0.00137176 0 0)
(0.00137755 0 0)
(0.00138297 0 0)
(0.00138838 0 0)
(0.00139401 0 0)
(0.00139949 0 0)
(0.00140461 0 0)
(0.00141065 0 0)
(0.0014167 0 0)
(0.00142205 0 0)
(0.00142772 0 0)
(0.00143344 0 0)
(0.00143907 0 0)
(0.00144487 0 0)
(0.0014506 0 0)
(0.00145608 0 0)
(0.00146171 0 0)
(0.00146737 0 0)
(0.0014732 0 0)
(0.00147904 0 0)
(0.00148467 0 0)
(0.00149017 0 0)
(0.00149594 0 0)
(0.00150171 0 0)
(0.00150703 0 0)
(0.00151259 0 0)
(0.00151823 -5.50711e-07 1.39573e-21)
(0.00151814 -1.01526e-06 6.10259e-22)
(0.00151796 -1.50879e-06 -1.96142e-21)
(0.00151769 -2.08061e-06 1.48348e-21)
(0.00151738 -2.60097e-06 4.65938e-21)
(0.00151698 -3.13266e-06 2.83323e-21)
(0.00151652 -3.68144e-06 1.38434e-21)
(0.00151597 -4.26562e-06 1.42347e-21)
(0.00151537 -4.85481e-06 1.58077e-21)
(0.00151466 -5.47649e-06 -3.45186e-23)
(0.00151398 -6.03315e-06 -1.61505e-21)
(0.00151321 -6.64372e-06 -9.12879e-22)
(0.00151225 -7.3747e-06 -1.26081e-21)
(0.00151131 -8.06433e-06 -2.46687e-21)
(0.00151031 -8.77172e-06 -2.0567e-21)
(0.00150924 -9.51071e-06 -1.46381e-21)
(0.00150812 -1.0278e-05 -6.53878e-22)
(0.00150697 -1.10499e-05 -1.93539e-22)
(0.0015057 -1.1902e-05 -1.93539e-22)
(0.00150431 -1.2837e-05 -1.90533e-22)
(0.00150297 -1.37327e-05 7.85713e-22)
(0.00150165 -1.46128e-05 1.2195e-22)
(0.00150014 -1.56119e-05 -2.00291e-22)
(0.00149862 -1.66381e-05 8.96624e-22)
(0.0014972 -1.76134e-05 2.42619e-22)
(0.00149554 -1.87407e-05 5.29294e-22)
(0.00149381 -1.99335e-05 -7.60697e-22)
(0.0014922 -2.10769e-05 -6.68472e-22)
(0.00149059 -2.22216e-05 -3.17294e-22)
(0.00148871 -2.35701e-05 -4.40551e-22)
(0.0014868 -2.49779e-05 8.74435e-22)
(0.00148509 -2.6258e-05 6.78301e-22)
(0.00148308 -2.77924e-05 1.48586e-21)
(0.0014811 -2.93347e-05 1.69525e-21)
(0.00147933 -3.07337e-05 1.04534e-22)
(0.00147749 -3.22263e-05 -4.11156e-22)
(0.00147559 -3.37915e-05 1.14043e-22)
(0.00147366 -3.54236e-05 9.51913e-22)
(0.00147157 -3.72312e-05 1.34705e-21)
(0.00146952 -3.90372e-05 5.13348e-22)
(0.00146741 -4.09367e-05 -6.22558e-22)
(0.00146552 -4.26399e-05 -6.22558e-22)
(0.00146364 -4.44261e-05 -9.90861e-22)
(0.00146156 -4.64583e-05 8.35188e-22)
(0.00145947 -4.85227e-05 1.94349e-21)
(0.00145733 -5.07069e-05 1.17441e-22)
(0.0014554 -5.27173e-05 8.88813e-22)
(0.00145339 -5.48622e-05 -1.76259e-23)
(0.00145135 -5.71028e-05 -9.50558e-22)
(0.00144934 -5.93703e-05 1.79293e-21)
(0.00144736 -6.16507e-05 1.83705e-21)
(0.00144536 -6.40377e-05 -1.29229e-22)
(0.0014434 -6.64226e-05 -6.52451e-22)
(0.00144137 -6.89819e-05 -1.03916e-21)
(0.00143938 -7.15487e-05 -8.50458e-22)
(0.00143764 -7.38457e-05 -1.60525e-21)
(0.00143593 -7.61787e-05 -1.91235e-21)
(0.00143406 -7.88048e-05 -2.41384e-22)
(0.00143223 -8.14328e-05 1.17302e-21)
(0.00143046 -8.40515e-05 7.72778e-22)
(0.00142854 -8.69974e-05 -1.21872e-21)
(0.00142678 -8.97749e-05 -2.36845e-21)
(0.00142518 -9.23574e-05 -6.30056e-22)
(0.00142359 -9.49935e-05 5.19674e-22)
(0.00142199 -9.77183e-05 -2.57585e-22)
(0.00142042 -0.000100477 -1.90624e-24)
(0.00141888 -0.000103251 1.93021e-21)
(0.00141719 -0.00010637 9.62927e-22)
(0.00141579 -0.000109025 1.28725e-21)
(0.00141445 -0.000111626 3.21721e-21)
(0.00141292 -0.000114653 1.21836e-21)
(0.00141155 -0.000117423 0)
(0.00141017 -0.000120258 2.56283e-22)
(0.00140881 -0.000123088 1.0702e-21)
(0.00140748 -0.000125889 -5.38901e-22)
(0.00140618 -0.000128642 -2.77836e-21)
(0.00140473 -0.000131729 -1.26488e-21)
(0.00140348 -0.000134396 -6.61987e-22)
(0.00140229 -0.000136917 -8.22655e-22)
(0.0013942 -0.000141265 -1.13971e-23)
(0.00138771 -0.000142586 -9.30507e-22)
(0.00138153 -0.000143844 -2.8304e-22)
(0.00137486 -0.000145202 6.88631e-23)
(0.00136823 -0.000146545 -8.82528e-22)
(0.00136193 -0.00014781 -6.53191e-22)
(0.0013555 -0.000149084 -2.37064e-22)
(0.00134884 -0.000150384 0)
(0.00134221 -0.000151652 -5.39933e-23)
(0.00133583 -0.000152846 -4.45427e-22)
(0.00132941 -0.000154017 -6.369e-22)
(0.00132319 -0.000155121 -1.52389e-22)
(0.00131675 -0.000156236 8.33614e-22)
(0.00131003 -0.000157357 4.85955e-22)
(0.00130346 -0.000158419 -3.14697e-22)
(0.00129685 -0.000159451 -3.46606e-22)
(0.00129027 -0.000160434 -5.75073e-22)
(0.00128414 -0.000161319 -5.01261e-22)
(0.00127705 -0.000162302 -1.80838e-22)
(0.00126995 -0.00016325 6.48532e-22)
(0.00126383 -0.000164028 2.95715e-22)
(0.00125716 -0.000164842 -7.38576e-22)
(0.00125036 -0.000165632 -6.65823e-22)
(0.00124376 -0.000166365 6.11425e-23)
(0.0012371 -0.000167073 5.50841e-22)
(0.00122988 -0.000167804 -3.07947e-22)
(0.0012229 -0.000168486 -3.89192e-22)
(0.00121631 -0.000169093 -6.5157e-22)
(0.00120954 -0.000169686 -8.11798e-22)
(0.00120274 -0.000170262 -2.05201e-22)
(0.00119516 -0.000170881 -5.22148e-22)
(0.00118782 -0.000171455 -5.36738e-22)
(0.00118109 -0.000171954 5.65823e-22)
(0.00117385 -0.00017247 9.68258e-22)
(0.00116652 -0.000172975 -1.18208e-22)
(0.00115923 -0.000173461 -7.91944e-22)
(0.00115202 -0.000173929 6.46338e-22)
(0.00114426 -0.000174425 1.60865e-21)
(0.00113655 -0.000174902 -6.81415e-23)
(0.00112884 -0.000175371 -1.48724e-22)
(0.00112092 -0.000175853 5.29834e-22)
(0.00111349 -0.000176302 2.52883e-22)
(0.00110581 -0.00017676 -1.36678e-22)
(0.00109821 -0.000177209 -2.88918e-23)
(0.00109065 -0.000177662 7.7585e-22)
(0.00108228 -0.000178179 1.46104e-21)
(0.00107357 -0.000178729 7.85793e-22)
(0.00106556 -0.000179238 7.78331e-22)
(0.00105778 -0.00017974 3.5497e-22)
(0.0010494 -0.000180298 2.01366e-22)
(0.00104106 -0.000180873 1.82417e-21)
(0.00103337 -0.000181423 6.65483e-22)
(0.00102433 -0.000182101 -5.70424e-22)
(0.00101514 -0.000182816 -2.44351e-22)
(0.0010065 -0.000183521 -3.53924e-22)
(0.000997762 -0.000184257 -2.66904e-22)
(0.000989431 -0.000184988 -1.92877e-22)
(0.000980778 -0.000185785 5.64443e-22)
(0.000971905 -0.000186643 6.33078e-22)
(0.000962245 -0.000187629 -1.24241e-22)
(0.000952923 -0.000188625 0)
(0.000943387 -0.0001897 -5.12966e-22)
(0.000933791 -0.000190823 2.91994e-22)
(0.000924055 -0.000192025 1.45862e-21)
(0.00091419 -0.000193301 7.36139e-22)
(0.000905122 -0.000194535 5.52888e-22)
(0.000895694 -0.000195879 9.87793e-22)
(0.000886512 -0.000197239 1.68794e-21)
(0.000876021 -0.000198877 5.74082e-22)
(0.00086547 -0.000200603 -2.80909e-22)
(0.000856127 -0.000202204 1.55045e-21)
(0.000846341 -0.000203947 7.44218e-22)
(0.000835291 -0.000206017 1.15314e-22)
(0.000824545 -0.000208118 1.35371e-21)
(0.000813783 -0.000210327 9.65774e-22)
(0.000804191 -0.000212328 4.33745e-22)
(0.00079438 -0.000214483 2.15703e-22)
(0.000783142 -0.000217082 -3.22876e-22)
(0.000772101 -0.000219744 -3.36531e-22)
(0.000760717 -0.000222584 -6.39068e-23)
(0.000749961 -0.000225385 1.54697e-21)
(0.000738779 -0.0002284 3.76718e-21)
(0.000727278 -0.000231627 2.35198e-21)
(0.000716208 -0.000234856 1.30059e-22)
(0.00070544 -0.000238113 -1.92422e-22)
(0.000694307 -0.000241613 7.58539e-22)
(0.00068279 -0.000245365 1.47444e-21)
(0.000670328 -0.000249564 3.11018e-21)
(0.000658197 -0.000253807 3.3703e-21)
(0.000647128 -0.00025782 1.5773e-21)
(0.000636083 -0.000261945 1.65556e-21)
(0.000624712 -0.000266338 -1.34974e-21)
(0.000612843 -0.000271074 -2.16787e-21)
(0.000601012 -0.000275939 -7.78677e-22)
(0.000589575 -0.000280803 2.60563e-22)
(0.000576904 -0.000286375 1.09123e-22)
(0.000564401 -0.00029204 -1.06385e-22)
(0.00055224 -0.000297744 5.20648e-22)
(0.000540299 -0.000303487 1.86942e-21)
(0.000528502 -0.00030938 1.14213e-21)
(0.000516152 -0.000315724 1.14188e-22)
(0.000504587 -0.000321839 1.581e-21)
(0.000492528 -0.000328387 1.12817e-21)
(0.00048012 -0.000335317 1.76188e-21)
(0.000468013 -0.000342273 4.61952e-22)
(0.000455859 -0.00034947 5.00098e-22)
(0.000443742 -0.000356867 1.65265e-21)
(0.000431988 -0.000364211 2.35442e-21)
(0.000420087 -0.000371862 1.83245e-21)
(0.000408244 -0.000379689 1.62823e-21)
(0.000396405 -0.000387707 1.51014e-21)
(0.000384781 -0.000395802 8.9911e-22)
(0.000372765 -0.000404367 2.56998e-21)
(0.000360944 -0.000413006 -7.57581e-22)
(0.00034876 -0.000422182 -2.42845e-21)
(0.000336714 -0.000431475 4.54412e-22)
(0.000324738 -0.000440938 1.78258e-21)
(0.000314236 -0.000449437 1.48967e-21)
(0.00030416 -0.000457877 -1.19511e-21)
(0.000292844 -0.000467446 1.09296e-21)
(0.000281674 -0.000477159 2.44957e-21)
(0.000269997 -0.000487492 5.64375e-22)
(0.0002597 -0.000496894 -9.8497e-22)
(0.000249658 -0.000506292 -2.20675e-21)
(0.000239234 -0.000516148 -6.57405e-22)
(0.000229073 -0.000526007 2.66003e-21)
(0.000219041 -0.000535942 -5.98094e-22)
(0.000209322 -0.000545761 -4.50926e-21)
(0.000199846 -0.000555524 7.28698e-22)
(0.000190224 -0.000565583 1.34809e-21)
(0.000181139 -0.000575277 -2.28783e-21)
(0.000172446 -0.000584647 -3.99511e-21)
(0.000163446 -0.000594532 -1.421e-22)
(0.000154888 -0.000604116 3.37477e-22)
(0.00014702 -0.00061299 2.63267e-21)
(0.000139079 -0.000622056 3.41019e-21)
(0.000131239 -0.000631081 -1.76289e-21)
(0.000122935 -0.000640765 -1.84955e-21)
(0.000114879 -0.000650137 -2.22617e-21)
(0.000108094 -0.000658084 -1.05758e-21)
(0.000101377 -0.00066604 8.12828e-22)
(9.44291e-05 -0.000674121 2.69101e-21)
(8.79309e-05 -0.000681707 2.4555e-21)
(8.17189e-05 -0.00068887 -5.64317e-22)
(7.56069e-05 -0.000695754 -1.56472e-21)
(6.98126e-05 -0.000702162 4.75268e-22)
(6.39987e-05 -0.000708446 1.55284e-21)
(5.82234e-05 -0.000714524 -5.06869e-22)
(5.28024e-05 -0.000719989 7.09598e-22)
(4.7493e-05 -0.000725093 1.87096e-21)
(4.20569e-05 -0.000729999 0)
(3.70798e-05 -0.000734139 3.89803e-22)
(3.24544e-05 -0.000737604 -2.78283e-22)
(2.76397e-05 -0.000740829 -5.1374e-22)
(2.28021e-05 -0.00074366 3.93555e-22)
(1.80991e-05 -0.000745958 2.13877e-22)
(1.35901e-05 -0.000747724 6.18806e-22)
(9.15167e-06 -0.000748997 1.01291e-21)
(4.83342e-06 -0.000749759 1.25934e-21)
(0 -0.00074776 0)
(0 -0.000745861 0)
(0 -0.000743589 0)
(0 -0.00074085 0)
(0 -0.000738256 0)
(0 -0.000735496 0)
(0 -0.00073261 0)
(0 -0.000729742 0)
(0 -0.000726589 0)
(0 -0.000723461 0)
(0 -0.000720604 0)
(0 -0.000717477 0)
(0 -0.000714223 0)
(0 -0.000710998 0)
(0 -0.000707724 0)
(0 -0.000704364 0)
(0 -0.000701116 0)
(0 -0.000697903 0)
(0 -0.000694632 0)
(0 -0.000691114 0)
(0 -0.000687556 0)
(0 -0.000684276 0)
(0 -0.000680802 0)
(0 -0.000677075 0)
(0 -0.000673499 0)
(0 -0.00066991 0)
(0 -0.00066597 0)
(0 -0.000661839 0)
(0 -0.000657575 0)
(0 -0.000653126 0)
(0 -0.000648315 0)
(0 -0.000643161 0)
(0 -0.000637854 0)
(0 -0.000631632 0)
(0 -0.000624735 0)
(0 -0.000617641 0)
(0 -0.000609567 0)
(0 -0.00060059 0)
(0 -0.000591005 0)
(2.96636e-05 -0.000578538 1.77309e-21)
(5.62453e-05 -0.000577856 -5.4084e-22)
(8.44608e-05 -0.000576345 -2.40792e-22)
(0.000113088 -0.000574026 1.98937e-21)
(0.000141318 -0.000571377 2.92532e-21)
(0.000169371 -0.000568046 2.72626e-21)
(0.000196994 -0.000564226 -6.58741e-23)
(0.000224775 -0.000559809 -1.55614e-21)
(0.000252585 -0.000554753 0)
(0.000280149 -0.000549235 -2.28244e-21)
(0.000306932 -0.000543269 -1.21426e-21)
(0.000332297 -0.000537165 -4.52711e-21)
(0.000358827 -0.000530334 -3.78629e-21)
(0.000385402 -0.000522794 1.74713e-21)
(0.000412631 -0.000514664 1.60558e-21)
(0.00043862 -0.00050643 -5.48725e-22)
(0.000461825 -0.000498442 2.23963e-21)
(0.000486355 -0.000489661 4.45582e-21)
(0.000511069 -0.000480361 -1.24041e-21)
(0.000535525 -0.000470823 -3.98681e-21)
(0.000558686 -0.00046125 -1.47275e-21)
(0.000580693 -0.000451777 3.80859e-21)
(0.000602655 -0.000441865 -1.25018e-21)
(0.000625383 -0.000431163 -2.49052e-21)
(0.000647047 -0.000421252 -3.29757e-21)
(0.000667192 -0.000411176 -6.00911e-21)
(0.000687444 -0.000400427 -1.41694e-21)
(0.000708183 -0.000389392 -9.17208e-22)
(0.000728413 -0.000378016 -6.27764e-22)
(0.000746912 -0.00036737 3.62995e-21)
(0.000766094 -0.000356049 3.67498e-22)
(0.000784512 -0.000344566 -2.86119e-21)
(0.000801296 -0.000333769 5.72643e-21)
(0.000817748 -0.000322942 3.89533e-21)
(0.000833353 -0.00031237 -1.71927e-21)
(0.000850054 -0.00030052 -4.23325e-25)
(0.00086632 -0.000288483 -1.80307e-21)
(0.000880699 -0.000277741 -1.9629e-21)
(0.000894344 -0.00026675 1.46272e-21)
(0.000907706 -0.000255555 2.30134e-21)
(0.000920852 -0.000244471 2.99584e-22)
(0.000933771 -0.000232753 -3.31179e-21)
(0.000945892 -0.000221529 -4.16467e-22)
(0.000957027 -0.000210671 3.97155e-21)
(0.00096809 -0.000199193 1.45501e-21)
(0.000978303 -0.000188095 1.41793e-24)
(0.000987607 -0.000177419 -1.26199e-21)
(0.000996994 -0.000165774 -3.06069e-21)
(0.0010062 -0.000153568 -2.04276e-21)
(0.00101434 -0.000142298 8.26397e-22)
(0.00102139 -0.000131667 1.51144e-21)
(0.00102775 -0.000121273 -1.49292e-21)
(0.0010338 -0.000110609 -1.93248e-21)
(0.00103958 -9.89992e-05 2.05026e-22)
(0.0010448 -8.74704e-05 2.06222e-22)
(0.00104916 -7.6894e-05 4.4674e-22)
(0.00105308 -6.54212e-05 6.67002e-22)
(0.00105626 -5.4481e-05 -1.08661e-21)
(0.00105873 -4.4112e-05 -1.27464e-21)
(0.00106075 -3.33806e-05 2.67679e-21)
(0.00106223 -2.25331e-05 2.36688e-21)
(0.00106315 -1.16295e-05 -4.31254e-22)
(0.000898084 -8.50739e-05 0)
(0.00116971 -6.02992e-05 0)
(0.000559872 -0.000285252 0)
(0.00127276 -9.43508e-05 0)
(0.00134217 -3.69984e-05 0)
(0.000963784 -0.000101699 0)
(0.00110994 -2.83802e-05 0)
(0.000264601 -0.000544218 0)
(0.00098842 -5.12978e-05 0)