/*--------------------------------*- C++ -*----------------------------------*\
| =========                 |                                                 |
| \\      /  F ield         | OpenFOAM: The Open Source CFD Toolbox           |
|  \\    /   O peration     | Version:  v2012                                 |
|   \\  /    A nd           | Website:  www.openfoam.com                      |
|    \\/     M anipulation  |                                                 |
\*---------------------------------------------------------------------------*/
FoamFile
{
    version     2.0;
    format      ascii;
    class       volVectorField;
    location    "13";
    object      D_0;
}
// * * * * * * * * * * * * * * * * * * * * * * * * * * * * * * * * * * * * * //

dimensions      [0 1 0 0 0 0 0];


internalField   nonuniform List<vector> 
250
(
(0.000536409 -0.00131931 0)
(0.000494686 -0.0017961 0)
(0.000401504 -0.00201508 0)
(0.000327664 -0.00221004 0)
(0.000255277 -0.00226743 0)
(0.00128003 -0.00155654 0)
(0.00114237 -0.00177082 0)
(0.000945935 -0.00180581 0)
(0.000805212 -0.00188937 0)
(0.000653981 -0.00188485 0)
(0.00166199 -0.00148244 0)
(0.00150666 -0.00148482 0)
(0.00133095 -0.00143923 0)
(0.00122023 -0.00145758 0)
(0.00109985 -0.00143297 0)
(0.00189598 -0.00127883 0)
(0.00176512 -0.00123138 0)
(0.00163626 -0.00117582 0)
(0.00155291 -0.00116128 0)
(0.00146756 -0.00111986 0)
(0.00225926 -0.0010211 0)
(0.00213532 -0.000940821 0)
(0.00202555 -0.000860778 0)
(0.00195426 -0.000820786 0)
(0.00188783 -0.000768401 0)
(0.00247578 -0.000803138 0)
(0.0023997 -0.000708444 0)
(0.0023191 -0.000629338 0)
(0.00228299 -0.000576225 0)
(0.00222759 -0.000534071 0)
(0.00274673 -0.000604793 0)
(0.00269543 -0.000504016 0)
(0.00263953 -0.000415425 0)
(0.00261632 -0.00036638 0)
(0.00257431 -0.000307644 0)
(0.00291818 -0.000401826 0)
(0.00290925 -0.000320794 0)
(0.00288216 -0.000251084 0)
(0.00288163 -0.000210809 0)
(0.0028564 -0.000162798 0)
(0.00305556 -0.000245285 0)
(0.00307008 -0.000187008 0)
(0.00306313 -0.000136661 0)
(0.00307349 -0.000109948 0)
(0.0030626 -7.47853e-05 0)
(0.00311924 -7.12357e-05 0)
(0.00314986 -5.37168e-05 0)
(0.003155 -3.7636e-05 0)
(0.00317196 -2.95378e-05 0)
(0.00316998 -1.76653e-05 0)
(0.0031969 -1.14046e-05 0)
(0.0031067 -5.0646e-05 0)
(0.00292878 -0.000107897 0)
(0.00267396 -0.000215459 0)
(0.00235904 -0.000371296 0)
(0.00321374 -1.60742e-06 0)
(0.00313671 -2.92988e-05 0)
(0.0029861 -5.33865e-05 0)
(0.0027816 -0.000130244 0)
(0.00253559 -0.000201712 0)
(0.00328584 2.68895e-07 0)
(0.00322552 -2.2559e-05 0)
(0.00311044 -3.52264e-05 0)
(0.0029338 -9.50726e-05 0)
(0.00272779 -0.000140581 0)
(0.00333834 1.54482e-06 0)
(0.00328691 -2.23826e-05 0)
(0.00319326 -2.51633e-05 0)
(0.00305336 -6.93914e-05 0)
(0.00289598 -9.31098e-05 0)
(0.00344075 -2.1536e-06 0)
(0.00339695 -2.87597e-05 0)
(0.0033201 -3.87883e-05 0)
(0.00319646 -7.91234e-05 0)
(0.00306214 -0.000103289 0)
(0.00353064 -3.02838e-06 0)
(0.00349433 -2.94109e-05 0)
(0.00343197 -3.98757e-05 0)
(0.0033334 -7.50308e-05 0)
(0.00322645 -9.93226e-05 0)
(0.0036539 -6.60364e-06 0)
(0.00362224 -3.59466e-05 0)
(0.00356891 -5.34084e-05 0)
(0.00348302 -8.92822e-05 0)
(0.00339221 -0.000117074 0)
(0.00377292 -6.39008e-06 0)
(0.00374675 -3.31865e-05 0)
(0.00370271 -5.07696e-05 0)
(0.00363269 -8.48414e-05 0)
(0.00355802 -0.000114444 0)
(0.00390799 -5.60976e-06 0)
(0.00388542 -2.98202e-05 0)
(0.00384823 -4.62206e-05 0)
(0.00378839 -7.84475e-05 0)
(0.00372629 -0.000107287 0)
(0.00404015 -1.52641e-06 0)
(0.00402157 -1.73019e-05 0)
(0.00399129 -2.69884e-05 0)
(0.00394194 -5.25015e-05 0)
(0.00389179 -7.85035e-05 0)
(0.00208544 -0.000526865 0)
(0.00197084 -0.000564495 0)
(0.00185312 -0.000619378 0)
(0.00174524 -0.00066147 0)
(0.0016388 -0.000714287 0)
(0.00153827 -0.000759319 0)
(0.00144016 -0.000810172 0)
(0.00134553 -0.000857874 0)
(0.00125293 -0.000908148 0)
(0.00116195 -0.000960888 0)
(0.00235042 -0.000304298 0)
(0.00225438 -0.000340112 0)
(0.00216452 -0.000386865 0)
(0.00207355 -0.000426843 0)
(0.00198685 -0.000474278 0)
(0.00190166 -0.000517567 0)
(0.00182059 -0.00056551 0)
(0.00174207 -0.000612441 0)
(0.00166858 -0.000661724 0)
(0.00159843 -0.000713873 0)
(0.00255645 -0.000215055 0)
(0.00247336 -0.000242053 0)
(0.00239126 -0.000282169 0)
(0.00231284 -0.000313555 0)
(0.00223735 -0.000355001 0)
(0.00216592 -0.000391014 0)
(0.00209954 -0.000433694 0)
(0.00203754 -0.000474722 0)
(0.00198283 -0.000519238 0)
(0.00193335 -0.000566096 0)
(0.00276378 -0.0001466 0)
(0.00269997 -0.000169654 0)
(0.00263787 -0.00020383 0)
(0.00257602 -0.000232475 0)
(0.00251874 -0.000269359 0)
(0.00246241 -0.000303119 0)
(0.00241292 -0.000342318 0)
(0.00236575 -0.000380922 0)
(0.00232753 -0.000422392 0)
(0.00229382 -0.000465816 0)
(0.00294925 -0.00014357 0)
(0.00289694 -0.000164982 0)
(0.00284367 -0.000193697 0)
(0.00279316 -0.000219486 0)
(0.00274536 -0.000251148 0)
(0.00270036 -0.000281189 0)
(0.0026611 -0.000315427 0)
(0.00262536 -0.000349512 0)
(0.00259798 -0.000385978 0)
(0.00257565 -0.000423771 0)
(0.00313638 -0.000134099 0)
(0.00309638 -0.00015429 0)
(0.00305476 -0.000180139 0)
(0.00301563 -0.00020452 0)
(0.00297871 -0.000233463 0)
(0.0029439 -0.000261706 0)
(0.00291422 -0.000293276 0)
(0.00288724 -0.000324893 0)
(0.00286766 -0.000358427 0)
(0.00285221 -0.00039273 0)
(0.00331619 -0.000149415 0)
(0.00328319 -0.000168988 0)
(0.00324712 -0.00019243 0)
(0.00321517 -0.000215417 0)
(0.00318347 -0.000241396 0)
(0.00315531 -0.000267419 0)
(0.00313034 -0.000295627 0)
(0.00310876 -0.000324119 0)
(0.00309299 -0.000353945 0)
(0.00308115 -0.000384098 0)
(0.003496 -0.000146179 0)
(0.00346802 -0.00016486 0)
(0.00343839 -0.000187018 0)
(0.00341135 -0.000208682 0)
(0.00338497 -0.000233246 0)
(0.00336112 -0.000257648 0)
(0.00333974 -0.000284232 0)
(0.00332128 -0.000310756 0)
(0.00330681 -0.000338536 0)
(0.00329533 -0.000366266 0)
(0.00367398 -0.00013858 0)
(0.00364928 -0.000155728 0)
(0.00362079 -0.000176213 0)
(0.00359833 -0.000196976 0)
(0.00357335 -0.000219891 0)
(0.00355313 -0.000242808 0)
(0.00353252 -0.000267698 0)
(0.00351472 -0.000292761 0)
(0.00350049 -0.00031835 0)
(0.00348784 -0.000344124 0)
(0.00384633 -0.000106602 0)
(0.003825 -0.000123341 0)
(0.00379878 -0.000142997 0)
(0.00377755 -0.000162975 0)
(0.00375469 -0.000184952 0)
(0.00373513 -0.000207524 0)
(0.00371651 -0.000231335 0)
(0.00369951 -0.000255741 0)
(0.00368479 -0.000280738 0)
(0.00367164 -0.000305861 0)
(0.000214225 -0.00231603 0)
(0.00018467 -0.00232754 0)
(0.000161985 -0.00235237 0)
(0.000145326 -0.00236272 0)
(0.000128051 -0.00238426 0)
(0.000114291 -0.00239423 0)
(9.75654e-05 -0.00241322 0)
(8.22659e-05 -0.00242247 0)
(6.20235e-05 -0.00243753 0)
(4.08325e-05 -0.00244369 0)
(0.000574892 -0.00193324 0)
(0.000508042 -0.00196315 0)
(0.000451053 -0.00201311 0)
(0.000400058 -0.00203937 0)
(0.000348455 -0.00207988 0)
(0.000304826 -0.00210392 0)
(0.000255017 -0.00213817 0)
(0.000208564 -0.00215977 0)
(0.000151234 -0.00218743 0)
(9.1456e-05 -0.00220623 0)
(0.00102816 -0.00147765 0)
(0.000945933 -0.00152156 0)
(0.000864367 -0.00158494 0)
(0.000789022 -0.0016237 0)
(0.0007115 -0.00167714 0)
(0.000643724 -0.00171314 0)
(0.000569956 -0.00175944 0)
(0.000500755 -0.0017929 0)
(0.000421091 -0.001832 0)
(0.000339273 -0.00186385 0)
(0.00138911 -0.00114156 0)
(0.00128978 -0.00118039 0)
(0.00118365 -0.00124127 0)
(0.001092 -0.00128229 0)
(0.000994336 -0.00134078 0)
(0.000909181 -0.00138277 0)
(0.000816888 -0.00143598 0)
(0.000730451 -0.0014774 0)
(0.000634057 -0.00152443 0)
(0.000535477 -0.00156613 0)
(0.00181411 -0.000784171 0)
(0.00170744 -0.000819111 0)
(0.00159165 -0.000880559 0)
(0.00148851 -0.00092079 0)
(0.00138025 -0.000979627 0)
(0.00128006 -0.00102389 0)
(0.00117689 -0.00107888 0)
(0.0010764 -0.00112567 0)
(0.000971089 -0.00117708 0)
(0.000862838 -0.00122767 0)
)
;

boundaryField
{
    back
    {
        type            empty;
    }
    left
    {
        type            symmetry;
    }
    hole
    {
        type            calculated;
        value           nonuniform List<vector> 10((0.000541406 -0.00107077 7.49462e-22) (0.00132814 -0.00142506 1.55048e-20) (0.00174681 -0.00147642 -1.50468e-20) (0.00199819 -0.00132063 1.49938e-20) (0.00235166 -0.00108853 3.34799e-22) (0.0025401 -0.000878449 8.31606e-21) (0.00278784 -0.000685947 5.08747e-21) (0.00293009 -0.000467612 -5.59259e-21) (0.00304772 -0.000290493 -1.3008e-20) (0.00309981 -8.64519e-05 1.58992e-21));
    }
    front
    {
        type            empty;
    }
    down
    {
        type            symmetry;
    }
    right
    {
        type            calculated;
        value           nonuniform List<vector> 
15
(
(0.0041067 3.66848e-06 6.97125e-21)
(0.00408986 -3.53368e-06 1.12082e-20)
(0.00406265 -3.8977e-06 3.75546e-21)
(0.00401827 -2.26372e-05 6.07012e-21)
(0.00397382 -4.25186e-05 -2.43317e-21)
(0.00393268 -6.90199e-05 -1.32915e-20)
(0.00391224 -8.61403e-05 9.62968e-21)
(0.00388711 -0.000105875 5.48434e-21)
(0.00386665 -0.000128485 -8.76747e-22)
(0.00384467 -0.000151768 0)
(0.00382572 -0.000177659 8.57356e-21)
(0.00380772 -0.000203475 4.11594e-21)
(0.00379112 -0.000230925 -9.36471e-21)
(0.00377663 -0.000258935 -4.34357e-21)
(0.00376355 -0.000285771 0)
)
;
    }
    up
    {
        type            calculated;
        value           nonuniform List<vector> 
15
(
(0.00111727 -0.000987771 3.53754e-21)
(0.00156689 -0.000740285 -3.87722e-21)
(0.00191353 -0.000589907 -2.55386e-21)
(0.00228245 -0.000487808 -3.22846e-21)
(0.00256981 -0.000442891 -3.08393e-21)
(0.00284904 -0.000410038 -2.24627e-21)
(0.00307904 -0.000399271 -2.43414e-21)
(0.00329214 -0.000380191 3.65338e-21)
(0.00348302 -0.000357009 1.90376e-21)
(0.00366538 -0.000318448 0)
(2.67141e-05 -0.00244703 -2.76672e-21)
(5.44773e-05 -0.00221418 -2.38694e-21)
(0.000293009 -0.00187725 5.5299e-22)
(0.0004815 -0.0015847 4.08551e-21)
(0.000805761 -0.00125253 2.81275e-22)
)
;
    }
}


// ************************************************************************* //
