/*--------------------------------*- C++ -*----------------------------------*\
| =========                 |                                                 |
| \\      /  F ield         | OpenFOAM: The Open Source CFD Toolbox           |
|  \\    /   O peration     | Version:  v2012                                 |
|   \\  /    A nd           | Website:  www.openfoam.com                      |
|    \\/     M anipulation  |                                                 |
\*---------------------------------------------------------------------------*/
FoamFile
{
    version     2.0;
    format      ascii;
    class       pointVectorField;
    location    "13";
    object      pointD;
}
// * * * * * * * * * * * * * * * * * * * * * * * * * * * * * * * * * * * * * //

dimensions      [0 1 0 0 0 0 0];


internalField   nonuniform List<vector> 
572
(
(0.00303819 0 7.34102e-22)
(0.00397413 0 3.54407e-21)
(0.00363345 -0.000289108 0)
(0 -0.00239424 -1.12029e-21)
(0 -0.00116224 2.90938e-22)
(0.00310719 0 0)
(0 -0.00224584 0)
(0.00201201 -0.000598129 0)
(0.000924507 -0.00110369 1.7112e-21)
(0.00385238 -5.50412e-05 -8.38881e-21)
(0.00239394 -0.000959648 4.19379e-21)
(0.00239394 -0.000959648 4.19379e-21)
(0.00201201 -0.000598129 0)
(0 -0.00224584 0)
(0 -0.00116224 2.90938e-22)
(0.00303819 0 7.34102e-22)
(0.00310719 0 0)
(0.00397413 0 3.54407e-21)
(0.00385238 -5.50412e-05 -8.38881e-21)
(0.00363345 -0.000289108 0)
(0.000924507 -0.00110369 1.7112e-21)
(0 -0.00239424 -1.12029e-21)
(0.000418563 -0.00205433 0)
(0.000828107 -0.00163872 0)
(0.00122772 -0.00125595 0)
(0.00161601 -0.000921023 0)
(0.00238349 -0.000360463 0)
(0.00268236 -0.000200351 0)
(0.00291281 -9.96174e-05 0)
(0.00305876 -3.88005e-05 0)
(0.00306203 0 0)
(0.00307948 0 0)
(0.00309024 0 0)
(0.00309748 0 0)
(0.0031305 0 0)
(0.00317338 0 0)
(0.00323364 0 0)
(0.00330861 0 0)
(0.00340187 0 0)
(0.00350526 0 0)
(0.00362288 0 0)
(0.00374628 0 0)
(0.00387607 0 0)
(0.0039967 3.12233e-07 8.8316e-21)
(0.00397521 -3.1465e-06 7.27069e-21)
(0.00394026 -1.22226e-05 4.77886e-21)
(0.00389692 -3.08556e-05 1.77446e-21)
(0.00382508 -7.44514e-05 -1.78797e-21)
(0.00380284 -9.23425e-05 7.36782e-21)
(0.0037806 -0.000112918 2.2415e-21)
(0.00375989 -0.000135219 -4.34982e-22)
(0.00373991 -0.000159126 4.16866e-21)
(0.00372189 -0.00018427 6.17689e-21)
(0.00370501 -0.000210192 -2.54175e-21)
(0.00368986 -0.000237176 -6.66214e-21)
(0.00367642 -0.000263857 -2.11217e-21)
(0.00348588 -0.0003275 9.25157e-22)
(0.00330449 -0.000357574 2.70189e-21)
(0.00310796 -0.000378171 5.93452e-22)
(0.00289248 -0.000392649 -2.27704e-21)
(0.00264452 -0.000413872 -2.5946e-21)
(0.00236871 -0.000451712 -3.07425e-21)
(0.0020488 -0.00052337 -2.8175e-21)
(0.00170003 -0.000646501 -3.13622e-21)
(0.00131137 -0.000840789 -1.65067e-22)
(0.000628411 -0.00138332 2.14086e-21)
(0.000377318 -0.00169 2.26485e-21)
(0.000168006 -0.00199968 -9.13705e-22)
(3.80847e-05 -0.00228102 -2.53095e-21)
(0 -0.00238998 0)
(0 -0.0023797 0)
(0 -0.00236792 0)
(0 -0.00235419 0)
(0 -0.00234012 0)
(0 -0.00232478 0)
(0 -0.00230927 0)
(0 -0.00229211 0)
(0 -0.00227439 0)
(0 -0.00219261 0)
(0 -0.00206741 0)
(0 -0.00186158 0)
(0 -0.00151532 0)
(0.00226849 -0.000352181 0)
(0.00247266 -0.000212898 0)
(0.00266266 -0.000146841 0)
(0.0028406 -0.000117625 0)
(0.00301254 -0.000116669 0)
(0.00318312 -0.00012088 0)
(0.0033522 -0.000128146 0)
(0.00352153 -0.000123198 0)
(0.00368889 -0.00010493 0)
(0.00184527 -0.00066676 0)
(0.00173359 -0.000712547 0)
(0.0016237 -0.000762189 0)
(0.00151884 -0.000809448 0)
(0.00141613 -0.000859236 0)
(0.00131696 -0.000906897 0)
(0.00121902 -0.000956114 0)
(0.00112197 -0.00100393 0)
(0.00102378 -0.00105388 0)
(0.000922709 -0.00120891 8.06355e-21)
(0.00151392 -0.0014142 4.47622e-22)
(0.00183818 -0.00136567 5.11436e-24)
(0.00213107 -0.00117628 7.46929e-21)
(0.00260491 -0.000763201 6.49764e-21)
(0.00279451 -0.000562597 -2.76012e-22)
(0.0029204 -0.000369649 -9.07085e-21)
(0.00300288 -0.0001838 -5.54756e-21)
(0.0022692 -0.000847403 0)
(0.00217389 -0.00076565 0)
(0.00210095 -0.000703827 0)
(0.00204459 -0.000657759 0)
(0.0022692 -0.000847403 0)
(0.00217389 -0.00076565 0)
(0.00210095 -0.000703827 0)
(0.00204459 -0.000657759 0)
(0.00161601 -0.000921023 0)
(0.00122772 -0.00125595 0)
(0.000828107 -0.00163872 0)
(0.000418563 -0.00205433 0)
(0 -0.00219261 0)
(0 -0.00206741 0)
(0 -0.00186158 0)
(0 -0.00151532 0)
(0.000922709 -0.00120891 8.06355e-21)
(0.00151392 -0.0014142 4.47622e-22)
(0.00183818 -0.00136567 5.11436e-24)
(0.00213107 -0.00117628 7.46929e-21)
(0.00260491 -0.000763201 6.49764e-21)
(0.00279451 -0.000562597 -2.76012e-22)
(0.0029204 -0.000369649 -9.07085e-21)
(0.00300288 -0.0001838 -5.54756e-21)
(0.00306203 0 0)
(0.00307948 0 0)
(0.00309024 0 0)
(0.00309748 0 0)
(0.00305876 -3.88005e-05 0)
(0.00291281 -9.96174e-05 0)
(0.00268236 -0.000200351 0)
(0.00238349 -0.000360463 0)
(0.0031305 0 0)
(0.00317338 0 0)
(0.00323364 0 0)
(0.00330861 0 0)
(0.00340187 0 0)
(0.00350526 0 0)
(0.00362288 0 0)
(0.00374628 0 0)
(0.00387607 0 0)
(0.0039967 3.12233e-07 8.8316e-21)
(0.00397521 -3.1465e-06 7.27069e-21)
(0.00394026 -1.22226e-05 4.77886e-21)
(0.00389692 -3.08556e-05 1.77446e-21)
(0.00368889 -0.00010493 0)
(0.00352153 -0.000123198 0)
(0.0033522 -0.000128146 0)
(0.00318312 -0.00012088 0)
(0.00301254 -0.000116669 0)
(0.0028406 -0.000117625 0)
(0.00266266 -0.000146841 0)
(0.00247266 -0.000212898 0)
(0.00226849 -0.000352181 0)
(0.00382508 -7.44514e-05 -1.78797e-21)
(0.00380284 -9.23425e-05 7.36782e-21)
(0.0037806 -0.000112918 2.2415e-21)
(0.00375989 -0.000135219 -4.34982e-22)
(0.00373991 -0.000159126 4.16866e-21)
(0.00372189 -0.00018427 6.17689e-21)
(0.00370501 -0.000210192 -2.54175e-21)
(0.00368986 -0.000237176 -6.66214e-21)
(0.00367642 -0.000263857 -2.11217e-21)
(0.00348588 -0.0003275 9.25157e-22)
(0.00330449 -0.000357574 2.70189e-21)
(0.00310796 -0.000378171 5.93452e-22)
(0.00289248 -0.000392649 -2.27704e-21)
(0.00264452 -0.000413872 -2.5946e-21)
(0.00236871 -0.000451712 -3.07425e-21)
(0.0020488 -0.00052337 -2.8175e-21)
(0.00170003 -0.000646501 -3.13622e-21)
(0.00131137 -0.000840789 -1.65067e-22)
(0.00102378 -0.00105388 0)
(0.00112197 -0.00100393 0)
(0.00121902 -0.000956114 0)
(0.00131696 -0.000906897 0)
(0.00141613 -0.000859236 0)
(0.00151884 -0.000809448 0)
(0.0016237 -0.000762189 0)
(0.00173359 -0.000712547 0)
(0.00184527 -0.00066676 0)
(0.000628411 -0.00138332 2.14086e-21)
(0.000377318 -0.00169 2.26485e-21)
(0.000168006 -0.00199968 -9.13705e-22)
(3.80847e-05 -0.00228102 -2.53095e-21)
(0 -0.00238998 0)
(0 -0.0023797 0)
(0 -0.00236792 0)
(0 -0.00235419 0)
(0 -0.00234012 0)
(0 -0.00232478 0)
(0 -0.00230927 0)
(0 -0.00229211 0)
(0 -0.00227439 0)
(0.000853472 -0.00156942 0)
(0.000737494 -0.00180452 0)
(0.000612222 -0.00193669 0)
(0.000503165 -0.00201878 0)
(0.00137794 -0.00153614 0)
(0.00121383 -0.00158707 0)
(0.00105931 -0.00160941 0)
(0.0009294 -0.0016272 0)
(0.00167763 -0.00133706 0)
(0.00153262 -0.00130078 0)
(0.00140969 -0.0012766 0)
(0.00131081 -0.00126114 0)
(0.00197443 -0.00109159 0)
(0.00185373 -0.00102687 0)
(0.00175717 -0.000980101 0)
(0.00168162 -0.000943532 0)
(0.00252289 -0.000639441 0)
(0.00245861 -0.00055074 0)
(0.00241072 -0.000484725 0)
(0.00237231 -0.000434994 0)
(0.0027542 -0.000446855 0)
(0.00271931 -0.000363866 0)
(0.00269317 -0.00030336 0)
(0.00267084 -0.000255393 0)
(0.00291993 -0.000281804 0)
(0.00291307 -0.000218577 0)
(0.00290713 -0.000172913 0)
(0.00290065 -0.000136214 0)
(0.00302722 -0.000135983 0)
(0.00303781 -0.00010131 0)
(0.00304399 -7.65952e-05 0)
(0.00304745 -5.65975e-05 0)
(0.00309026 -2.21655e-05 0)
(0.0029703 -5.71239e-05 0)
(0.00278015 -0.000121061 0)
(0.002534 -0.000217284 0)
(0.00314113 -1.26758e-05 0)
(0.0030439 -3.34258e-05 0)
(0.00288674 -7.50435e-05 0)
(0.00268501 -0.000135746 0)
(0.00320714 -1.02822e-05 0)
(0.00312961 -2.49117e-05 0)
(0.00300262 -5.33991e-05 0)
(0.00283822 -9.47934e-05 0)
(0.00328651 -1.24445e-05 0)
(0.00322214 -2.77916e-05 0)
(0.00311664 -5.09984e-05 0)
(0.00298187 -8.31257e-05 0)
(0.00338319 -1.51921e-05 0)
(0.00333003 -3.28735e-05 0)
(0.00324246 -5.58272e-05 0)
(0.00312988 -8.59294e-05 0)
(0.00348959 -1.80715e-05 0)
(0.00344499 -3.83285e-05 0)
(0.00337203 -6.20687e-05 0)
(0.00327906 -9.19221e-05 0)
(0.00360948 -1.97421e-05 0)
(0.00357178 -4.1754e-05 0)
(0.00351024 -6.70124e-05 0)
(0.00343195 -9.79039e-05 0)
(0.00373496 -1.80009e-05 0)
(0.00370335 -3.84844e-05 0)
(0.00365197 -6.26019e-05 0)
(0.00358697 -9.28054e-05 0)
(0.00386639 -1.2934e-05 0)
(0.00383994 -2.88025e-05 0)
(0.0037969 -4.89165e-05 0)
(0.00374284 -7.61832e-05 0)
(0.00211721 -0.000421926 0)
(0.00201498 -0.000464423 0)
(0.00191553 -0.000509052 0)
(0.00181957 -0.000553365 0)
(0.00172678 -0.000599251 0)
(0.0016374 -0.000644801 0)
(0.00155111 -0.000691943 0)
(0.00146805 -0.000739284 0)
(0.00138799 -0.000789175 0)
(0.00235377 -0.000267119 0)
(0.00226798 -0.000303449 0)
(0.00218454 -0.000341885 0)
(0.00210346 -0.000380823 0)
(0.00202547 -0.000421732 0)
(0.00195108 -0.000463078 0)
(0.00188064 -0.000506575 0)
(0.00181492 -0.000550856 0)
(0.00175434 -0.000597868 0)
(0.00256232 -0.0001871 0)
(0.0024912 -0.000217281 0)
(0.00242168 -0.000249911 0)
(0.00235495 -0.00028353 0)
(0.00229126 -0.000319553 0)
(0.00223171 -0.000356443 0)
(0.00217671 -0.00039577 0)
(0.00212733 -0.000436097 0)
(0.00208432 -0.000479052 0)
(0.00276075 -0.000150892 0)
(0.00270423 -0.000176951 0)
(0.00264861 -0.000205454 0)
(0.0025955 -0.000235339 0)
(0.00254507 -0.000267528 0)
(0.00249865 -0.00030091 0)
(0.00245672 -0.000336481 0)
(0.00242045 -0.000373146 0)
(0.00239077 -0.00041191 0)
(0.00294755 -0.000144204 0)
(0.00290185 -0.000167547 0)
(0.00285678 -0.000192988 0)
(0.0028142 -0.000219904 0)
(0.00277402 -0.000248811 0)
(0.0027377 -0.000278986 0)
(0.00270556 -0.000310985 0)
(0.00267879 -0.000344003 0)
(0.00265812 -0.000378593 0)
(0.00313065 -0.000146646 0)
(0.00309387 -0.000168263 0)
(0.00305755 -0.000191742 0)
(0.00302346 -0.000216595 0)
(0.00299133 -0.000243139 0)
(0.00296263 -0.000270866 0)
(0.00293744 -0.000300029 0)
(0.00291697 -0.000330061 0)
(0.0029017 -0.000361163 0)
(0.0033083 -0.000152263 0)
(0.00327738 -0.000172617 0)
(0.00324695 -0.000194536 0)
(0.00321838 -0.00021766 0)
(0.0031915 -0.000242199 0)
(0.00316751 -0.000267772 0)
(0.00314643 -0.000294472 0)
(0.00312929 -0.000321855 0)
(0.00311623 -0.000349944 0)
(0.00348427 -0.000146398 0)
(0.00345723 -0.000165442 0)
(0.00343097 -0.0001861 0)
(0.00340637 -0.000207937 0)
(0.00338308 -0.000230971 0)
(0.00336209 -0.000254978 0)
(0.003343 -0.000280034 0)
(0.00332716 -0.000305547 0)
(0.00331428 -0.000331532 0)
(0.00365609 -0.000126667 0)
(0.00363151 -0.000144628 0)
(0.0036075 -0.000164267 0)
(0.00358516 -0.000185061 0)
(0.00356378 -0.000207018 0)
(0.00354451 -0.000229902 0)
(0.00352645 -0.000253764 0)
(0.00351091 -0.00027808 0)
(0.00349757 -0.000302748 0)
(0.000362389 -0.00209089 0)
(0.000319054 -0.00211939 0)
(0.00028282 -0.00214646 0)
(0.000249215 -0.0021706 0)
(0.000218211 -0.00219398 0)
(0.000187715 -0.00221531 0)
(0.0001562 -0.00223581 0)
(0.000121922 -0.00225378 0)
(8.29424e-05 -0.00227029 0)
(0.00074737 -0.00168649 0)
(0.000676594 -0.00173236 0)
(0.000611524 -0.00177587 0)
(0.000548669 -0.00181482 0)
(0.000489586 -0.00185246 0)
(0.000431777 -0.00188693 0)
(0.000372969 -0.00192016 0)
(0.000310801 -0.00195005 0)
(0.000242251 -0.00197891 0)
(0.00113778 -0.00129996 0)
(0.00104715 -0.00135063 0)
(0.000960334 -0.00140041 0)
(0.000876202 -0.00144734 0)
(0.000795696 -0.00149374 0)
(0.000717283 -0.00153723 0)
(0.000638287 -0.00157996 0)
(0.000556798 -0.00161945 0)
(0.000469256 -0.00165869 0)
(0.0015147 -0.000959227 0)
(0.00141004 -0.00100698 0)
(0.00130814 -0.00105622 0)
(0.00120991 -0.00110465 0)
(0.00111391 -0.00115426 0)
(0.00102046 -0.0012018 0)
(0.000926512 -0.00124992 0)
(0.000831073 -0.00129568 0)
(0.000730686 -0.00134256 0)
(0.000853472 -0.00156942 0)
(0.000737494 -0.00180452 0)
(0.000612222 -0.00193669 0)
(0.000503165 -0.00201878 0)
(0.00137794 -0.00153614 0)
(0.00121383 -0.00158707 0)
(0.00105931 -0.00160941 0)
(0.0009294 -0.0016272 0)
(0.00167763 -0.00133706 0)
(0.00153262 -0.00130078 0)
(0.00140969 -0.0012766 0)
(0.00131081 -0.00126114 0)
(0.00197443 -0.00109159 0)
(0.00185373 -0.00102687 0)
(0.00175717 -0.000980101 0)
(0.00168162 -0.000943532 0)
(0.00252289 -0.000639441 0)
(0.00245861 -0.00055074 0)
(0.00241072 -0.000484725 0)
(0.00237231 -0.000434994 0)
(0.0027542 -0.000446855 0)
(0.00271931 -0.000363866 0)
(0.00269317 -0.00030336 0)
(0.00267084 -0.000255393 0)
(0.00291993 -0.000281804 0)
(0.00291307 -0.000218577 0)
(0.00290713 -0.000172913 0)
(0.00290065 -0.000136214 0)
(0.00302722 -0.000135983 0)
(0.00303781 -0.00010131 0)
(0.00304399 -7.65952e-05 0)
(0.00304745 -5.65975e-05 0)
(0.00309026 -2.21655e-05 0)
(0.0029703 -5.71239e-05 0)
(0.00278015 -0.000121061 0)
(0.002534 -0.000217284 0)
(0.00314113 -1.26758e-05 0)
(0.0030439 -3.34258e-05 0)
(0.00288674 -7.50435e-05 0)
(0.00268501 -0.000135746 0)
(0.00320714 -1.02822e-05 0)
(0.00312961 -2.49117e-05 0)
(0.00300262 -5.33991e-05 0)
(0.00283822 -9.47934e-05 0)
(0.00328651 -1.24445e-05 0)
(0.00322214 -2.77916e-05 0)
(0.00311664 -5.09984e-05 0)
(0.00298187 -8.31257e-05 0)
(0.00338319 -1.51921e-05 0)
(0.00333003 -3.28735e-05 0)
(0.00324246 -5.58272e-05 0)
(0.00312988 -8.59294e-05 0)
(0.00348959 -1.80715e-05 0)
(0.00344499 -3.83285e-05 0)
(0.00337203 -6.20687e-05 0)
(0.00327906 -9.19221e-05 0)
(0.00360948 -1.97421e-05 0)
(0.00357178 -4.1754e-05 0)
(0.00351024 -6.70124e-05 0)
(0.00343195 -9.79039e-05 0)
(0.00373496 -1.80009e-05 0)
(0.00370335 -3.84844e-05 0)
(0.00365197 -6.26019e-05 0)
(0.00358697 -9.28054e-05 0)
(0.00386639 -1.2934e-05 0)
(0.00383994 -2.88025e-05 0)
(0.0037969 -4.89165e-05 0)
(0.00374284 -7.61832e-05 0)
(0.00211721 -0.000421926 0)
(0.00201498 -0.000464423 0)
(0.00191553 -0.000509052 0)
(0.00181957 -0.000553365 0)
(0.00172678 -0.000599251 0)
(0.0016374 -0.000644801 0)
(0.00155111 -0.000691943 0)
(0.00146805 -0.000739284 0)
(0.00138799 -0.000789175 0)
(0.00235377 -0.000267119 0)
(0.00226798 -0.000303449 0)
(0.00218454 -0.000341885 0)
(0.00210346 -0.000380823 0)
(0.00202547 -0.000421732 0)
(0.00195108 -0.000463078 0)
(0.00188064 -0.000506575 0)
(0.00181492 -0.000550856 0)
(0.00175434 -0.000597868 0)
(0.00256232 -0.0001871 0)
(0.0024912 -0.000217281 0)
(0.00242168 -0.000249911 0)
(0.00235495 -0.00028353 0)
(0.00229126 -0.000319553 0)
(0.00223171 -0.000356443 0)
(0.00217671 -0.00039577 0)
(0.00212733 -0.000436097 0)
(0.00208432 -0.000479052 0)
(0.00276075 -0.000150892 0)
(0.00270423 -0.000176951 0)
(0.00264861 -0.000205454 0)
(0.0025955 -0.000235339 0)
(0.00254507 -0.000267528 0)
(0.00249865 -0.00030091 0)
(0.00245672 -0.000336481 0)
(0.00242045 -0.000373146 0)
(0.00239077 -0.00041191 0)
(0.00294755 -0.000144204 0)
(0.00290185 -0.000167547 0)
(0.00285678 -0.000192988 0)
(0.0028142 -0.000219904 0)
(0.00277402 -0.000248811 0)
(0.0027377 -0.000278986 0)
(0.00270556 -0.000310985 0)
(0.00267879 -0.000344003 0)
(0.00265812 -0.000378593 0)
(0.00313065 -0.000146646 0)
(0.00309387 -0.000168263 0)
(0.00305755 -0.000191742 0)
(0.00302346 -0.000216595 0)
(0.00299133 -0.000243139 0)
(0.00296263 -0.000270866 0)
(0.00293744 -0.000300029 0)
(0.00291697 -0.000330061 0)
(0.0029017 -0.000361163 0)
(0.0033083 -0.000152263 0)
(0.00327738 -0.000172617 0)
(0.00324695 -0.000194536 0)
(0.00321838 -0.00021766 0)
(0.0031915 -0.000242199 0)
(0.00316751 -0.000267772 0)
(0.00314643 -0.000294472 0)
(0.00312929 -0.000321855 0)
(0.00311623 -0.000349944 0)
(0.00348427 -0.000146398 0)
(0.00345723 -0.000165442 0)
(0.00343097 -0.0001861 0)
(0.00340637 -0.000207937 0)
(0.00338308 -0.000230971 0)
(0.00336209 -0.000254978 0)
(0.003343 -0.000280034 0)
(0.00332716 -0.000305547 0)
(0.00331428 -0.000331532 0)
(0.00365609 -0.000126667 0)
(0.00363151 -0.000144628 0)
(0.0036075 -0.000164267 0)
(0.00358516 -0.000185061 0)
(0.00356378 -0.000207018 0)
(0.00354451 -0.000229902 0)
(0.00352645 -0.000253764 0)
(0.00351091 -0.00027808 0)
(0.00349757 -0.000302748 0)
(0.000362389 -0.00209089 0)
(0.000319054 -0.00211939 0)
(0.00028282 -0.00214646 0)
(0.000249215 -0.0021706 0)
(0.000218211 -0.00219398 0)
(0.000187715 -0.00221531 0)
(0.0001562 -0.00223581 0)
(0.000121922 -0.00225378 0)
(8.29424e-05 -0.00227029 0)
(0.00074737 -0.00168649 0)
(0.000676594 -0.00173236 0)
(0.000611524 -0.00177587 0)
(0.000548669 -0.00181482 0)
(0.000489586 -0.00185246 0)
(0.000431777 -0.00188693 0)
(0.000372969 -0.00192016 0)
(0.000310801 -0.00195005 0)
(0.000242251 -0.00197891 0)
(0.00113778 -0.00129996 0)
(0.00104715 -0.00135063 0)
(0.000960334 -0.00140041 0)
(0.000876202 -0.00144734 0)
(0.000795696 -0.00149374 0)
(0.000717283 -0.00153723 0)
(0.000638287 -0.00157996 0)
(0.000556798 -0.00161945 0)
(0.000469256 -0.00165869 0)
(0.0015147 -0.000959227 0)
(0.00141004 -0.00100698 0)
(0.00130814 -0.00105622 0)
(0.00120991 -0.00110465 0)
(0.00111391 -0.00115426 0)
(0.00102046 -0.0012018 0)
(0.000926512 -0.00124992 0)
(0.000831073 -0.00129568 0)
(0.000730686 -0.00134256 0)
)
;

boundaryField
{
    back
    {
        type            empty;
    }
    left
    {
        type            symmetry;
    }
    hole
    {
        type            calculated;
    }
    front
    {
        type            empty;
    }
    down
    {
        type            symmetry;
    }
    right
    {
        type            calculated;
    }
    up
    {
        type            calculated;
    }
}


// ************************************************************************* //
