/*--------------------------------*- C++ -*----------------------------------*\
| =========                 |                                                 |
| \\      /  F ield         | OpenFOAM: The Open Source CFD Toolbox           |
|  \\    /   O peration     | Version:  v2012                                 |
|   \\  /    A nd           | Website:  www.openfoam.com                      |
|    \\/     M anipulation  |                                                 |
\*---------------------------------------------------------------------------*/
FoamFile
{
    version     2.0;
    format      ascii;
    class       volScalarField;
    location    "13";
    object      sigmaEq;
}
// * * * * * * * * * * * * * * * * * * * * * * * * * * * * * * * * * * * * * //

dimensions      [1 -1 -2 0 0 0 0];


internalField   nonuniform List<scalar> 
250
(
1.24544e+08
1.50551e+08
1.67179e+08
1.77214e+08
1.82569e+08
1.35301e+08
1.54787e+08
1.67946e+08
1.74063e+08
1.76742e+08
1.45476e+08
1.39923e+08
1.50407e+08
1.67739e+08
1.73655e+08
1.12084e+08
1.15527e+08
1.3746e+08
1.47906e+08
1.54012e+08
6.36964e+07
9.15521e+07
1.13762e+08
1.31744e+08
1.37294e+08
3.30918e+07
7.30234e+07
9.64546e+07
1.13668e+08
1.20694e+08
5.51069e+07
6.67244e+07
8.61423e+07
9.35124e+07
1.03243e+08
8.91851e+07
7.14275e+07
7.20575e+07
7.29078e+07
7.83731e+07
1.10771e+08
7.64102e+07
6.13098e+07
5.35663e+07
5.27961e+07
1.2428e+08
8.23396e+07
5.542e+07
4.18087e+07
2.99629e+07
2.64785e+07
5.21485e+07
7.66645e+07
1.02654e+08
1.27016e+08
2.62247e+07
4.81972e+07
6.96553e+07
8.94577e+07
1.05194e+08
3.0928e+07
4.63566e+07
6.78191e+07
8.59551e+07
1.05184e+08
3.63838e+07
4.67971e+07
6.25786e+07
7.60043e+07
9.18349e+07
4.51103e+07
5.21566e+07
6.54942e+07
7.66972e+07
8.88901e+07
4.92805e+07
5.40955e+07
6.30282e+07
7.25269e+07
8.25262e+07
5.66648e+07
6.00444e+07
6.64138e+07
7.3327e+07
8.01638e+07
5.84854e+07
6.09465e+07
6.53018e+07
7.108e+07
7.64952e+07
6.0543e+07
6.23063e+07
6.54144e+07
6.95531e+07
7.375e+07
5.76588e+07
5.92677e+07
6.17045e+07
6.586e+07
6.96748e+07
1.35458e+08
1.31379e+08
1.37943e+08
1.39808e+08
1.45668e+08
1.48466e+08
1.54643e+08
1.59455e+08
1.68484e+08
1.77996e+08
1.20038e+08
1.25896e+08
1.32016e+08
1.36381e+08
1.41959e+08
1.46369e+08
1.52646e+08
1.58278e+08
1.66567e+08
1.74911e+08
1.13073e+08
1.16369e+08
1.20437e+08
1.23623e+08
1.28516e+08
1.32088e+08
1.38048e+08
1.42881e+08
1.50437e+08
1.57418e+08
1.02573e+08
1.07355e+08
1.12718e+08
1.16903e+08
1.21913e+08
1.25759e+08
1.308e+08
1.34882e+08
1.40468e+08
1.45513e+08
9.70737e+07
1.0058e+08
1.04252e+08
1.07453e+08
1.10807e+08
1.13636e+08
1.16936e+08
1.19731e+08
1.2324e+08
1.26368e+08
9.04397e+07
9.36487e+07
9.73743e+07
1.00454e+08
1.03517e+08
1.0607e+08
1.08601e+08
1.10634e+08
1.12788e+08
1.14464e+08
8.61206e+07
8.81502e+07
9.089e+07
9.28791e+07
9.49394e+07
9.65158e+07
9.79316e+07
9.9017e+07
9.98178e+07
1.00237e+08
8.15893e+07
8.3193e+07
8.5295e+07
8.72542e+07
8.89365e+07
9.04295e+07
9.14469e+07
9.20173e+07
9.23756e+07
9.20244e+07
7.71469e+07
7.77659e+07
8.02261e+07
8.17361e+07
8.29017e+07
8.40315e+07
8.45793e+07
8.53313e+07
8.53885e+07
8.50937e+07
7.30173e+07
7.48726e+07
7.68932e+07
7.82073e+07
7.98759e+07
8.08717e+07
8.21378e+07
8.28627e+07
8.31381e+07
8.31398e+07
1.87296e+08
1.81047e+08
1.65651e+08
1.50159e+08
1.35404e+08
1.21168e+08
1.0529e+08
8.76571e+07
6.62181e+07
3.98693e+07
1.81573e+08
1.83631e+08
1.87227e+08
1.83571e+08
1.73848e+08
1.60594e+08
1.46887e+08
1.29547e+08
1.11966e+08
9.07696e+07
1.78687e+08
1.78165e+08
1.81409e+08
1.82124e+08
1.79448e+08
1.7134e+08
1.63864e+08
1.52942e+08
1.44886e+08
1.34877e+08
1.62115e+08
1.65504e+08
1.68548e+08
1.70915e+08
1.73166e+08
1.7094e+08
1.69689e+08
1.64307e+08
1.62779e+08
1.59453e+08
1.44295e+08
1.47755e+08
1.53898e+08
1.56105e+08
1.61864e+08
1.62556e+08
1.67163e+08
1.67834e+08
1.73983e+08
1.79475e+08
)
;

boundaryField
{
    back
    {
        type            empty;
    }
    left
    {
        type            symmetry;
    }
    hole
    {
        type            calculated;
        value           nonuniform List<scalar> 10(1.17948e+08 1.29347e+08 1.4334e+08 1.07346e+08 5.2344e+07 957914 4.56693e+07 8.74223e+07 1.11811e+08 1.26426e+08);
    }
    front
    {
        type            empty;
    }
    down
    {
        type            symmetry;
    }
    right
    {
        type            calculated;
        value           nonuniform List<scalar> 
15
(
5.77681e+07
5.92978e+07
6.15629e+07
6.56182e+07
6.92155e+07
7.27141e+07
7.43606e+07
7.63843e+07
7.78311e+07
7.94719e+07
8.06274e+07
8.17981e+07
8.25506e+07
8.30115e+07
8.31221e+07
)
;
    }
    up
    {
        type            calculated;
        value           nonuniform List<scalar> 
15
(
1.78357e+08
1.7516e+08
1.57664e+08
1.4565e+08
1.26448e+08
1.14511e+08
1.00251e+08
9.20427e+07
8.50815e+07
8.31613e+07
3.99934e+07
9.06093e+07
1.35237e+08
1.59886e+08
1.79925e+08
)
;
    }
}


// ************************************************************************* //
