/*--------------------------------*- C++ -*----------------------------------*\
| =========                 |                                                 |
| \\      /  F ield         | OpenFOAM: The Open Source CFD Toolbox           |
|  \\    /   O peration     | Version:  v2012                                 |
|   \\  /    A nd           | Website:  www.openfoam.com                      |
|    \\/     M anipulation  |                                                 |
\*---------------------------------------------------------------------------*/
FoamFile
{
    version     2.0;
    format      ascii;
    class       volVectorField;
    location    "9";
    object      D_0;
}
// * * * * * * * * * * * * * * * * * * * * * * * * * * * * * * * * * * * * * //

dimensions      [0 1 0 0 0 0 0];


internalField   nonuniform List<vector> 
470
(
(0.00356323 -1.45392e-05 0)
(0.00366479 -1.38002e-05 0)
(0.003564 -0.000361067 0)
(0.0043123 -2.06528e-05 0)
(0.0031939 -0.000119979 0)
(0.00389488 -0.000411883 0)
(0.00353284 -0.000120741 0)
(0.00318666 -0.000118224 0)
(0.00221519 -0.00056618 0)
(0.003503 -0.000256108 0)
(0.00234572 -0.000495954 0)
(0.00132595 -0.00121208 0)
(0.00148121 -0.00106732 0)
(0.00417724 -3.79038e-05 0)
(0.00174863 -0.000840895 0)
(0.00293724 -0.000384018 0)
(0.00345098 -0.000241644 0)
(0.0040397 -3.07966e-05 0)
(0.00393119 -1.19194e-05 0)
(0.0035948 -2.38523e-05 0)
(0.00292435 -0.000424204 0)
(0.0043156 -0.00014518 0)
(0.00357065 -0.000400212 0)
(0.00417763 -5.03474e-05 0)
(0.00199442 -0.000731761 0)
(0.00360539 -0.000102279 0)
(0.00219339 -0.000591453 0)
(0.00332222 -0.000470611 0)
(0.00396213 -0.000344299 0)
(0.00424418 -1.89915e-05 0)
(0.00364223 -1.63793e-05 0)
(0.00175841 -0.000855405 0)
(0.0034537 -0.000289398 0)
(0.0014524 -0.00148954 0)
(0.0038163 -0.000428326 0)
(0.00398342 -0.000371471 0)
(0.00131594 -0.00114075 0)
(0.00365205 -2.93182e-05 0)
(0.00368609 -2.69889e-05 0)
(0.00350785 -3.07565e-05 0)
(0.00254751 -0.000381335 0)
(0.00388198 -4.36977e-06 0)
(0.00100786 -0.00155268 0)
(0.00270135 -0.000306055 0)
(0.00321996 -0.000486073 0)
(0.00085151 -0.00170628 0)
(0.00351034 -5.73121e-05 0)
(0.00225084 -0.000532198 0)
(0.00242515 -0.000449858 0)
(0.00219843 -0.000574431 0)
(0.00111292 -0.00129061 0)
(0.00176355 -0.00129487 0)
(0.00399182 -4.0942e-05 0)
(0.00393654 -1.94352e-05 0)
(0.00434849 -0.000109128 0)
(0.00429599 -0.000132056 0)
(3.34341e-05 -0.00253133 0)
(6.31693e-05 -0.00251248 0)
(0.00292436 -0.000240988 0)
(0.00338001 -0.00042542 0)
(0.00370915 -0.000129678 0)
(0.0018826 -0.000792914 0)
(0.00178549 -0.000817249 0)
(0.00133098 -0.00129697 0)
(0.00235647 -0.00100574 0)
(0.00051018 -0.00214222 0)
(0.00353099 -5.1327e-05 0)
(0.00424315 -0.00017479 0)
(0.00309471 -0.000203539 0)
(0.00296026 -0.000304875 0)
(0.00357752 -2.16785e-06 0)
(0.00350592 -0.000210619 0)
(0.00132752 -0.00142159 0)
(0.00325284 -0.000156334 0)
(0.00110708 -0.00157576 0)
(0.00449756 -8.93027e-05 0)
(0.00368987 -0.000227658 0)
(0.00369698 -0.000195503 0)
(0.0030469 -0.000199961 0)
(0.00010913 -0.00235748 0)
(0.00271439 -0.000294662 0)
(0.000721801 -0.00197718 0)
(0.00347137 -0.000358673 0)
(0.00303098 -0.000273239 0)
(0.00206284 -0.000650315 0)
(0.00441829 -0.000122839 0)
(0.00113413 -0.00146814 0)
(0.00225507 -0.00124021 0)
(0.000824527 -0.00179628 0)
(0.00149441 -0.00123243 0)
(0.00105196 -0.00159767 0)
(0.0014562 -0.00104835 0)
(0.00334251 -0.000149116 0)
(0.00361616 -0.000182005 0)
(0.00164257 -0.000918292 0)
(0.00159069 -0.000931977 0)
(0.00341807 -8.09555e-05 0)
(0.00363173 -0.000152191 0)
(0.0031053 -0.000151873 0)
(0.00373476 -0.000387696 0)
(0.00420106 -0.000106385 0)
(0.00231528 -0.000499934 0)
(0.00133868 -0.00150277 0)
(0.00440638 -7.29096e-05 0)
(0.0044291 -5.51881e-05 0)
(0.00413387 -0.000286693 0)
(0.00418218 -0.000251369 0)
(0.00333007 -8.40883e-05 0)
(0.0033672 -0.000220524 0)
(0.00100564 -0.0018302 0)
(0.000775152 -0.00181331 0)
(0.000960912 -0.00181344 0)
(0.00449118 -8.12464e-05 0)
(0.00393829 -0.000435604 0)
(0.00305678 -0.000208682 0)
(0.00310923 -0.000224993 0)
(0.00436035 -5.01698e-06 0)
(0.00232018 -0.000607017 0)
(0.00339753 -9.90858e-05 0)
(0.00370985 1.3917e-06 0)
(0.00328207 -0.000125774 0)
(0.00428167 -7.23837e-05 0)
(0.00411545 -2.65738e-05 0)
(0.00459052 -3.4539e-05 0)
(0.00434401 -0.000233103 0)
(0.00297904 -0.000268037 0)
(0.00288426 -0.000276135 0)
(0.00420591 -0.000136928 0)
(0.00221629 -0.000672466 0)
(0.00423116 -6.83302e-05 0)
(0.00339337 -6.38201e-05 0)
(0.00331615 -8.88093e-05 0)
(0.00344153 -0.000126765 0)
(0.00412959 -0.00011215 0)
(0.00444101 -0.000131294 0)
(0.00366077 -0.000410728 0)
(0.0033154 -0.000187036 0)
(0.00226259 -0.000963377 0)
(0.00114207 -0.00135397 0)
(0.00410858 -0.000361697 0)
(0.00404382 -0.0003719 0)
(0.00184425 -0.000908888 0)
(0.00414295 -0.000155086 0)
(0.00380121 -0.00016783 0)
(0.00387874 -0.000177895 0)
(0.0035808 -3.36472e-05 0)
(0.00448147 -2.55043e-05 0)
(0.00170847 -0.000921977 0)
(0.00396833 -0.000122906 0)
(0.00140202 -0.00118213 0)
(0.00389098 -2.78058e-05 0)
(0.00442955 -2.28967e-05 0)
(0.00294158 -0.000241918 0)
(0.0044253 -8.99697e-05 0)
(0.00146755 -0.00169205 0)
(0.00284946 -0.000350858 0)
(0.0032765 -0.0003659 0)
(0.00368444 -9.30805e-05 0)
(0.0037258 -0.000104708 0)
(0.00360857 -0.000255061 0)
(0.00138171 -0.00164565 0)
(0.00193173 -0.000726052 0)
(0.000344433 -0.00214268 0)
(0.00195278 -0.000773671 0)
(0.000163776 -0.00238333 0)
(0.00268902 -0.000392445 0)
(0.00277923 -0.000314775 0)
(0.00207638 -0.000706847 0)
(0.00313292 -0.000189209 0)
(0.0025724 -0.000390871 0)
(0.00272239 -0.000322238 0)
(0.003965 -0.000210011 0)
(0.00396554 -0.000239465 0)
(0.00379061 -0.000231998 0)
(0.00386813 -0.00021008 0)
(0.00378118 -0.000129627 0)
(0.00400679 -2.05215e-05 0)
(0.00348273 -2.49225e-05 0)
(0.00199343 -0.000772047 0)
(0.00286392 -0.000242086 0)
(0.00287126 -0.000227183 0)
(0.0010013 -0.00149303 0)
(0.00337755 -0.000180663 0)
(0.00307092 -0.000295556 0)
(0.00306516 -0.000338755 0)
(0.00221028 -0.000578603 0)
(0.00389412 -0.000298731 0)
(0.00350793 -1.20094e-05 0)
(0.000491232 -0.00199405 0)
(0.00411797 -6.29996e-05 0)
(0.00403247 -0.000312459 0)
(0.00360636 -7.24734e-05 0)
(0.00318194 -0.000259402 0)
(0.00328067 -0.000239254 0)
(0.00348674 -3.22947e-05 0)
(0.00391485 -4.16073e-05 0)
(0.00348686 -0.000430183 0)
(0.0036916 -0.000294588 0)
(0.00367623 -0.000332818 0)
(0.000549771 -0.00187693 0)
(0.00359887 -1.84655e-05 0)
(0.00355203 -1.01387e-05 0)
(0.00020209 -0.00212464 0)
(0.00248429 -0.000613474 0)
(0.00316339 -0.000340723 0)
(0.0031167 -0.000428491 0)
(0.00379944 -2.3719e-05 0)
(0.00382013 -3.17867e-05 0)
(0.00239947 -0.000716442 0)
(0.00339517 -0.000146524 0)
(0.0042271 -0.000119364 0)
(0.00346227 -0.000331153 0)
(0.00345155 -5.28922e-05 0)
(0.00399653 -5.68408e-05 0)
(0.00231742 -0.000548933 0)
(0.00245414 -0.000486084 0)
(0.00399334 -0.000139197 0)
(0.00367102 -6.72612e-05 0)
(0.00400018 -8.47744e-05 0)
(0.00246155 -0.000474182 0)
(0.00333829 -0.000177425 0)
(0.00345718 -4.67936e-05 0)
(0.00384113 -0.00032844 0)
(0.00404392 -6.5896e-05 0)
(0.00230379 -0.00056348 0)
(0.00380376 -0.000384599 0)
(0.00237019 -0.000473624 0)
(0.00339323 -8.80897e-05 0)
(0.000430448 -0.00221055 0)
(0.00104749 -0.00137771 0)
(0.00243684 -0.000432589 0)
(0.00330253 -0.000140199 0)
(0.00458803 -1.89278e-05 0)
(0.00425241 -0.000319956 0)
(0.00318794 -0.000391473 0)
(0.00353811 -0.00014691 0)
(0.00274286 -0.000720177 0)
(0.00426444 -0.000222623 0)
(0.00433471 -0.000213636 0)
(0.0045364 -5.27124e-05 0)
(0.00446098 -7.07957e-05 0)
(0.00449748 -3.92411e-05 0)
(0.00419258 -0.000294467 0)
(0.000436705 -0.00219842 0)
(0.000188944 -0.00230996 0)
(0.000283527 -0.00231992 0)
(6.01683e-05 -0.0024654 0)
(0.00424426 -0.00019336 0)
(0.0038294 -9.79459e-06 0)
(0.00379248 -0.000267737 0)
(0.00387597 -0.000268007 0)
(0.00336732 -0.000395781 0)
(0.00462615 -1.8355e-05 0)
(0.0043161 -0.000289652 0)
(0.00272995 -0.00037107 0)
(0.00374406 -1.00431e-05 0)
(0.00376614 -4.41121e-05 0)
(0.00457176 -3.40904e-05 0)
(0.00428416 -0.000268253 0)
(0.00363521 3.26977e-06 0)
(0.00319483 -0.000215057 0)
(0.000778861 -0.00187451 0)
(0.00353564 -7.4837e-06 0)
(0.00285706 -0.000631189 0)
(0.00365232 -4.71175e-05 0)
(0.00451084 -2.99511e-05 0)
(0.00416698 -0.000327186 0)
(0.00409466 -6.02558e-06 0)
(0.00370245 -4.65148e-05 0)
(0.00313076 -0.000468284 0)
(0.00358439 -0.000474609 0)
(0.00291806 -0.000497011 0)
(0.00138341 -0.00107856 0)
(0.0026574 -0.000515098 0)
(0.000103782 -0.00245263 0)
(0.00206127 -0.000989774 0)
(0.00181232 -0.00111915 0)
(0.00327356 -0.000307566 0)
(0.00206653 -0.000636422 0)
(0.00411849 -0.000178937 0)
(0.00345145 -0.000194043 0)
(0.00268677 -0.000369199 0)
(0.00346489 -9.23746e-05 0)
(0.00275719 -0.000326222 0)
(0.00431524 -3.67314e-05 0)
(0.00437825 -4.00298e-05 0)
(0.00299874 -0.000434274 0)
(0.000589713 -0.00193741 0)
(0.00402791 -0.00010069 0)
(0.00336009 -6.73443e-05 0)
(0.00243647 -0.000797531 0)
(0.00282053 -0.000468411 0)
(0.00341568 -4.84254e-05 0)
(0.00244436 -0.000560691 0)
(0.00252939 -0.000429131 0)
(0.00388881 -0.000105218 0)
(0.00410757 -9.58116e-05 0)
(0.00375183 -0.000462183 0)
(0.00248819 -0.000428848 0)
(0.00421157 -6.83864e-06 0)
(0.00415299 -0.000186224 0)
(0.00270174 -0.000961668 0)
(0.00429544 -0.00019104 0)
(0.00437719 -0.000165025 0)
(0.000711281 -0.00193543 0)
(0.00297803 -0.00019067 0)
(0.00403685 -0.000234354 0)
(0.00402454 -0.000190296 0)
(0.00317466 -0.000136979 0)
(0.00319309 -0.000120291 0)
(0.00162854 -0.00100672 0)
(0.00187911 -0.000935443 0)
(0.00130969 -0.00181865 0)
(0.00382822 -0.000146939 0)
(0.00289163 -0.000351452 0)
(0.00165497 -0.000939661 0)
(0.00273113 -0.000405218 0)
(0.00341009 -6.6472e-05 0)
(0.00226284 -0.00059419 0)
(0.00372079 -7.31252e-05 0)
(0.00275609 -0.00054616 0)
(0.00378122 -6.77192e-05 0)
(0.00382725 -0.000108438 0)
(0.00415528 -7.79914e-05 0)
(0.00253468 -0.000467992 0)
(0.00403551 -9.97744e-06 0)
(0.00350122 -0.000463197 0)
(0.00299742 -0.000192856 0)
(0.00311532 -0.000146513 0)
(0.00316115 -0.000267958 0)
(0.00355208 -7.62182e-05 0)
(0.00328043 -0.000189897 0)
(0.00285395 -0.000250158 0)
(0.00283673 -0.000259631 0)
(0.00323382 -0.000149801 0)
(0.00309656 -0.000169728 0)
(0.0037479 -1.41705e-05 0)
(0.00392802 -8.72839e-05 0)
(0.000820535 -0.00155557 0)
(0.00399142 -0.000286379 0)
(0.00387596 -5.0207e-05 0)
(0.000116428 -0.00229232 0)
(0.00253668 -0.000583989 0)
(0.00342419 -8.17958e-05 0)
(0.00395408 -0.000162553 0)
(0.00284236 -0.000505647 0)
(0.000823314 -0.00161854 0)
(0.00390175 -0.000123432 0)
(0.00460173 -1.18636e-05 0)
(0.00424869 -0.000345546 0)
(0.00379128 -1.49314e-06 0)
(0.00323701 -0.000120712 0)
(0.00283564 -0.000382604 0)
(0.00301122 -0.000510911 0)
(0.000532764 -0.00187856 0)
(0.00347273 -3.23864e-05 0)
(0.000367006 -0.00222441 0)
(0.00346482 -0.000177649 0)
(0.00453957 -8.52172e-06 0)
(0.00351578 -1.21893e-05 0)
(0.00453448 -1.28687e-05 0)
(0.00456119 -5.40284e-05 0)
(0.00440677 -0.000173702 0)
(0.00331963 -0.00026603 0)
(0.0018149 -0.00155275 0)
(0.00415065 -0.00039526 0)
(0.00381106 -5.3705e-05 0)
(0.000699817 -0.00174086 0)
(0.00346489 -3.57532e-05 0)
(0.00416269 -0.000370859 0)
(0.00358485 -5.04963e-05 0)
(0.00321734 -0.00013125 0)
(0.000264649 -0.00234346 0)
(0.00436304 -5.29981e-05 0)
(0.00315745 -0.000428249 0)
(0.0030464 -0.000628395 0)
(0.00348914 -1.92698e-05 0)
(0.00413034 -0.000242231 0)
(0.000849437 -0.00199827 0)
(0.00308031 -0.000380597 0)
(0.00295922 -0.000206668 0)
(0.00108972 -0.00167677 0)
(0.000170208 -0.00237719 0)
(0.00432834 -8.80999e-05 0)
(0.00406981 -0.000132977 0)
(0.00101376 -0.00202638 0)
(0.000608319 -0.00198254 0)
(0.000488285 -0.00211596 0)
(0.00294111 -0.000487505 0)
(0.00389158 -7.42538e-05 0)
(0.00173769 -0.00110667 0)
(0.0041396 -1.42604e-05 0)
(0.00366861 -0.000453045 0)
(0.000988762 -0.00172233 0)
(0.00404419 -0.000261642 0)
(0.00391817 -6.11831e-05 0)
(0.00447671 -1.88962e-06 0)
(0.00407055 -0.000421581 0)
(0.00193597 -0.000724634 0)
(0.00329397 -0.000376479 0)
(0.00207119 -0.000659366 0)
(0.000261843 -0.0021839 0)
(0.00360806 -0.000284019 0)
(0.0033498 -7.94742e-05 0)
(0.00149036 -0.00117801 0)
(0.000254328 -0.00236791 0)
(0.001674 -0.0010196 0)
(0.00375223 -0.000338834 0)
(0.00461104 -2.80132e-06 0)
(0.00465121 -4.58771e-06 0)
(0.00422531 -0.000389765 0)
(0.00428797 -0.000356634 0)
(0.00398832 -3.59833e-06 0)
(0.00340932 -0.000488082 0)
(0.000166203 -0.0024228 0)
(0.00190709 -0.00137636 0)
(0.00430611 -0.000103764 0)
(0.00326653 -0.000115553 0)
(0.000736461 -0.00178276 0)
(0.00348014 -3.56295e-05 0)
(0.00306089 -0.000172368 0)
(0.00351497 -2.14992e-05 0)
(0.00335556 -0.000309754 0)
(0.00426435 -8.96823e-05 0)
(0.00351424 -0.00030295 0)
(0.000507672 -0.00220096 0)
(0.000524346 -0.0020972 0)
(0.00250373 -0.000480703 0)
(0.00191881 -0.000748482 0)
(0.000302409 -0.00225538 0)
(0.00178379 -0.000834825 0)
(0.0021747 -0.000668769 0)
(0.00267911 -0.000336746 0)
(0.00256937 -0.000387579 0)
(0.00342785 -9.17421e-05 0)
(0.00343999 -6.57861e-05 0)
(0.00442114 -1.48311e-05 0)
(0.0040168 -0.000414346 0)
(0.00416301 -0.000218615 0)
(0.0026366 -0.000342436 0)
(0.00221306 -0.000687657 0)
(0.00210848 -0.000661757 0)
(0.00425434 -5.00013e-05 0)
(0.00213621 -0.000833201 0)
(0.00281246 -0.000468607 0)
(0.00208757 -0.000818583 0)
(0.00240338 -0.000595178 0)
(0.00387326 -0.000353439 0)
(0.00348723 -3.48914e-05 0)
(0.0041116 -0.000214957 0)
(0.00335912 -0.000340541 0)
(0.00253226 -0.000509554 0)
(0.00266013 -0.00047049 0)
(0.00401547 -0.000169216 0)
(0.00407927 -0.000150668 0)
(0.00328119 -9.2551e-05 0)
(0.00253127 -0.000391032 0)
(0.00265194 -0.000542873 0)
(0.00329089 -8.4603e-05 0)
(0.00335928 -6.55367e-05 0)
(0.00336261 -0.00021348 0)
(0.0031473 -0.000135686 0)
(0.00342327 -5.06314e-05 0)
(0.00270491 -0.000487487 0)
(0.00265703 -0.000423079 0)
(0.00272405 -0.000426165 0)
(0.00379881 -9.54711e-05 0)
(0.00382636 -7.80685e-05 0)
(0.00271209 -0.000315232 0)
(0.00250231 -0.000407847 0)
)
;

boundaryField
{
    back
    {
        type            empty;
    }
    front
    {
        type            empty;
    }
    down
    {
        type            symmetry;
    }
    right
    {
        type            calculated;
        value           nonuniform List<vector> 10((0.00454836 -6.95248e-05 -5.83742e-21) (0.00463473 -2.10342e-05 5.76484e-21) (0.00439376 -0.000215439 -6.72614e-21) (0.00449173 -0.000110813 5.03973e-21) (0.00465977 -1.25142e-05 3.06336e-21) (0.00435468 -0.000280332 -6.72665e-21) (0.00459429 -4.37263e-05 -6.53734e-21) (0.00444149 -0.000162113 4.98607e-21) (0.00467549 -2.72697e-06 -2.32086e-21) (0.00431614 -0.000350194 -9.26171e-21));
    }
    up
    {
        type            calculated;
        value           nonuniform List<vector> 
20
(
(0.00172495 -0.000887948 0)
(0.00321972 -0.000515874 0)
(0.00102135 -0.00133276 -3.37743e-20)
(2.11688e-05 -0.00253146 -7.78941e-21)
(0.00393283 -0.000457355 1.68679e-21)
(0.00219166 -0.000699693 1.09347e-20)
(0.000261455 -0.00216675 -3.26091e-21)
(0.00192052 -0.00080394 0)
(0.00358277 -0.000493685 -3.64497e-21)
(0.00132515 -0.00111188 6.13163e-21)
(0.00374832 -0.000480471 -6.68812e-21)
(0.00274748 -0.000567625 3.62111e-21)
(0.000751386 -0.00158175 1.20286e-20)
(0.00252615 -0.000610562 3.17301e-21)
(0.00300676 -0.000532828 3.40153e-21)
(0.00046854 -0.00190093 -5.18576e-21)
(0.00012648 -0.00239419 6.22461e-21)
(0.00406452 -0.000434703 -1.78715e-21)
(0.00421901 -0.000401871 -3.60769e-21)
(0.00340642 -0.000504122 2.06497e-21)
)
;
    }
    left
    {
        type            symmetry;
    }
    hole
    {
        type            calculated;
        value           nonuniform List<vector> 8((0.0024102 -0.0013362 -1.56652e-21) (0.00327925 -0.000445726 8.38964e-21) (0.000595602 -0.00159226 -7.08391e-20) (0.00337259 -0.000175745 -5.24781e-21) (0.00278375 -0.00106093 1.20295e-20) (0.00142154 -0.00180225 -2.17401e-20) (0.00192052 -0.00157752 0) (0.00308182 -0.0007056 -2.08263e-20));
    }
}


// ************************************************************************* //
