/*--------------------------------*- C++ -*----------------------------------*\
| =========                 |                                                 |
| \\      /  F ield         | OpenFOAM: The Open Source CFD Toolbox           |
|  \\    /   O peration     | Version:  v2012                                 |
|   \\  /    A nd           | Website:  www.openfoam.com                      |
|    \\/     M anipulation  |                                                 |
\*---------------------------------------------------------------------------*/
FoamFile
{
    version     2.0;
    format      ascii;
    class       pointVectorField;
    location    "9";
    object      pointD;
}
// * * * * * * * * * * * * * * * * * * * * * * * * * * * * * * * * * * * * * //

dimensions      [0 1 0 0 0 0 0];


internalField   nonuniform List<vector> 
530
(
(0.00351874 0 -2.70425e-21)
(0.00477359 0 -1.18448e-21)
(0.00438685 -0.000382595 -6.5848e-21)
(0 -0.00262459 -4.21651e-21)
(0 -0.00188186 -3.90951e-20)
(0.00351874 0 -2.70425e-21)
(0.00477359 0 -1.18448e-21)
(0.00438685 -0.000382595 -6.5848e-21)
(0 -0.00262459 -4.21651e-21)
(0 -0.00188186 -3.90951e-20)
(0.00357877 0 0)
(0.00360757 0 0)
(0.003631 0 0)
(0.00366608 0 0)
(0.00371647 0 0)
(0.00378357 0 0)
(0.00386285 0 0)
(0.0039504 0 0)
(0.00405075 0 0)
(0.00415917 0 0)
(0.00427306 0 0)
(0.00440867 0 0)
(0.00454404 0 0)
(0.00467208 0 0)
(0.0047984 -7.33112e-06 3.77767e-22)
(0.00477742 -1.6264e-05 4.5067e-21)
(0.0047437 -3.18685e-05 -4.03128e-22)
(0.00469924 -5.6365e-05 -6.32041e-21)
(0.00464643 -9.0419e-05 -3.88204e-22)
(0.00459142 -0.000137617 5.13371e-21)
(0.00454099 -0.00019104 -8.90659e-22)
(0.00449632 -0.000251475 -6.87976e-21)
(0.00445639 -0.000320398 -8.17823e-21)
(0.00425813 -0.00042596 -2.76076e-21)
(0.0041118 -0.000454488 -5.19718e-23)
(0.00395009 -0.000478 -2.55939e-21)
(0.003771 -0.000496637 -5.28654e-21)
(0.003596 -0.000508732 -8.07834e-22)
(0.0034101 -0.000520056 1.05712e-21)
(0.00320534 -0.000534708 1.74412e-21)
(0.0029632 -0.000561188 3.60075e-21)
(0.00271669 -0.00060104 3.4829e-21)
(0.00243127 -0.000668863 7.24338e-21)
(0.00212012 -0.000768347 5.61712e-21)
(0.00188031 -0.000865127 0)
(0.00157367 -0.00102366 3.16747e-21)
(0.00121091 -0.00125309 -1.42522e-20)
(0.000914498 -0.00149596 -1.11922e-20)
(0.000627678 -0.00179091 3.51306e-21)
(0.000372855 -0.00209617 -4.39711e-21)
(0.00019493 -0.00235592 1.69813e-21)
(7.119e-05 -0.00255006 -8.35688e-22)
(0 -0.00259188 0)
(0 -0.0025035 0)
(0 -0.00240837 0)
(0 -0.00226897 0)
(0.00105532 -0.00172664 -5.00658e-20)
(0.00174549 -0.0017422 -1.11635e-20)
(0.00224776 -0.00150239 -7.77297e-22)
(0.00268789 -0.00123455 5.39791e-21)
(0.00303 -0.000908842 -4.5094e-21)
(0.00328252 -0.000591874 -6.39966e-21)
(0.00343084 -0.000319321 1.59404e-21)
(0.00357877 0 0)
(0.00360757 0 0)
(0.003631 0 0)
(0.00366608 0 0)
(0.00371647 0 0)
(0.00378357 0 0)
(0.00386285 0 0)
(0.0039504 0 0)
(0.00405075 0 0)
(0.00415917 0 0)
(0.00427306 0 0)
(0.00440867 0 0)
(0.00454404 0 0)
(0.00467208 0 0)
(0.0047984 -7.33112e-06 3.77767e-22)
(0.00477742 -1.6264e-05 4.5067e-21)
(0.0047437 -3.18685e-05 -4.03128e-22)
(0.00469924 -5.6365e-05 -6.32041e-21)
(0.00464643 -9.0419e-05 -3.88204e-22)
(0.00459142 -0.000137617 5.13371e-21)
(0.00454099 -0.00019104 -8.90659e-22)
(0.00449632 -0.000251475 -6.87976e-21)
(0.00445639 -0.000320398 -8.17823e-21)
(0.00425813 -0.00042596 -2.76076e-21)
(0.0041118 -0.000454488 -5.19718e-23)
(0.00395009 -0.000478 -2.55939e-21)
(0.003771 -0.000496637 -5.28654e-21)
(0.003596 -0.000508732 -8.07834e-22)
(0.0034101 -0.000520056 1.05712e-21)
(0.00320534 -0.000534708 1.74412e-21)
(0.0029632 -0.000561188 3.60075e-21)
(0.00271669 -0.00060104 3.4829e-21)
(0.00243127 -0.000668863 7.24338e-21)
(0.00212012 -0.000768347 5.61712e-21)
(0.00188031 -0.000865127 0)
(0.00157367 -0.00102366 3.16747e-21)
(0.00121091 -0.00125309 -1.42522e-20)
(0.000914498 -0.00149596 -1.11922e-20)
(0.000627678 -0.00179091 3.51306e-21)
(0.000372855 -0.00209617 -4.39711e-21)
(0.00019493 -0.00235592 1.69813e-21)
(7.119e-05 -0.00255006 -8.35688e-22)
(0 -0.00259188 0)
(0 -0.0025035 0)
(0 -0.00240837 0)
(0 -0.00226897 0)
(0.00105532 -0.00172664 -5.00658e-20)
(0.00174549 -0.0017422 -1.11635e-20)
(0.00224776 -0.00150239 -7.77297e-22)
(0.00268789 -0.00123455 5.39791e-21)
(0.00303 -0.000908842 -4.5094e-21)
(0.00328252 -0.000591874 -6.39966e-21)
(0.00343084 -0.000319321 1.59404e-21)
(0.00293933 -0.000248837 0)
(0.0038348 -0.000159557 0)
(0.00188101 -0.000902029 0)
(0.00317733 -0.000265993 0)
(0.00359581 -7.6372e-05 0)
(0.00407936 -0.000269947 0)
(0.00431571 -9.03617e-05 0)
(0.000942798 -0.0018088 0)
(0.0032695 -0.000165424 0)
(0.00229553 -0.000568058 0)
(0.0039633 -6.44946e-05 0)
(0.00352993 -0.000319509 0)
(0.00354179 -4.92546e-05 0)
(0.0026596 -0.000518306 0)
(0.00432944 -0.000160834 0)
(0.00267764 -0.000432814 0)
(0.00353246 -0.000158442 0)
(0.00326499 -0.000164468 0)
(0.00122775 -0.00140733 0)
(0.00162454 -0.00134501 0)
(0.00420032 -4.7508e-05 0)
(0.00376695 -0.000377762 0)
(0.00456881 -3.79154e-05 0)
(0.00419273 -0.000340809 0)
(0.00247753 -0.000492067 0)
(0.00169074 -0.00095788 0)
(0.00314696 -0.000398041 0)
(0.00384714 -3.29545e-05 0)
(0.00406515 -0.000189225 0)
(0.00406683 -0.000105104 0)
(0.000384133 -0.00231918 0)
(0.00288352 -0.000297704 0)
(0.00450264 -9.02937e-05 0)
(0.00433154 -0.000223192 0)
(0.00380575 -0.000264464 0)
(0.000755154 -0.00209093 0)
(0.00331935 -0.000118826 0)
(0.0037267 -2.58776e-05 0)
(0.00353211 -5.33303e-05 0)
(0.00346815 -0.000130986 0)
(0.00295064 -0.000270228 0)
(0.00308325 -0.000382446 0)
(0.00349442 -0.000230399 0)
(0.00376631 -8.2317e-05 0)
(0.00226097 -0.000621608 0)
(0.000737618 -0.00189922 0)
(0.00288096 -0.000444019 0)
(0.00437183 -3.6629e-05 0)
(0.00399609 -0.000388251 0)
(0.00233066 -0.000891082 0)
(0.00407698 -3.01998e-05 0)
(0.00357162 -0.000402833 0)
(0.00331562 -0.000114107 0)
(0.00213342 -0.000679474 0)
(0.0026496 -0.0003798 0)
(0.00132977 -0.00143139 0)
(0.0018348 -0.000841823 0)
(0.00127263 -0.00170513 0)
(0.00426727 -0.000132513 0)
(0.00368467 -0.00022799 0)
(0.00388017 -0.000114389 0)
(0.00365114 -1.88106e-05 0)
(0.0035286 -6.7841e-05 0)
(0.00210656 -0.00081837 0)
(0.00452305 -0.000110874 0)
(0.00130824 -0.00124574 0)
(0.00253621 -0.000445417 0)
(0.000323323 -0.00235475 0)
(0.00334998 -0.000438105 0)
(0.0039849 -1.82852e-05 0)
(0.0033221 -0.000189467 0)
(0.00292056 -0.000329707 0)
(0.00346539 -0.000125904 0)
(0.00275757 -0.000637636 0)
(0.0041719 -0.000210689 0)
(0.00436856 -0.000256449 0)
(0.00462661 -5.13294e-05 0)
(0.00159187 -0.00107795 0)
(0.0024847 -0.000549392 0)
(0.00298985 -0.000310753 0)
(0.00401714 -0.000150363 0)
(0.00466864 -1.99378e-05 0)
(0.004304 -0.000351768 0)
(0.00363776 -0.000180232 0)
(0.004454 -0.000163424 0)
(0.00354891 -5.65945e-05 0)
(0.00341458 -0.000107984 0)
(0.00304019 -0.000348812 0)
(0.00328654 -0.000297749 0)
(0.00380606 -1.53086e-05 0)
(0.00370878 -4.25836e-05 0)
(0.00407761 -7.2352e-05 0)
(0.00385117 -5.91439e-05 0)
(0.00419381 -8.22958e-05 0)
(0.00306131 -0.000216792 0)
(0.00310531 -0.000236312 0)
(0.00389661 -0.000205082 0)
(0.00420088 -0.000277632 0)
(0.00446483 -7.33782e-05 0)
(0.000880801 -0.00169417 0)
(0.000470485 -0.00215875 0)
(0.00214346 -0.00117116 0)
(0.00389975 -0.000309256 0)
(0.00419042 -1.79552e-05 0)
(0.00270802 -0.000405536 0)
(0.00368265 -0.000447203 0)
(0.00152695 -0.00104713 0)
(0.00367065 -0.000329063 0)
(0.00313699 -0.000175978 0)
(0.00449597 -2.35212e-05 0)
(0.00409241 -0.000405815 0)
(0.00374166 -0.000122008 0)
(0.00398919 -0.000241797 0)
(0.00122184 -0.00162564 0)
(0.000980272 -0.00170029 0)
(0.00220643 -0.000681576 0)
(0.0001579 -0.00252052 0)
(0.00299077 -0.00047244 0)
(0.00174964 -0.00109139 0)
(0.00333955 -0.000299704 0)
(0.00439569 -0.000121722 0)
(0.00279411 -0.000320971 0)
(0.0041651 -0.000119103 0)
(0.00122856 -0.00189575 0)
(0.000643954 -0.00210186 0)
(0.00198712 -0.000752595 0)
(0.00336851 -0.000351851 0)
(0.00430779 -6.2678e-05 0)
(0.00404485 -0.000326189 0)
(0.00060284 -0.00212935 0)
(0.00372533 -1.39117e-05 0)
(0.00337332 -0.000104458 0)
(0.00362341 -2.0699e-05 0)
(0.00351086 -0.000128863 0)
(0.00328959 -0.000208826 0)
(0.00266604 -0.000536591 0)
(0.00283356 -0.000298792 0)
(0.00389512 -1.18223e-05 0)
(0.00342999 -0.000109849 0)
(0.000952647 -0.00186666 0)
(0.00338418 -0.000218489 0)
(0.00462154 -7.00701e-05 0)
(0.00445761 -0.000195753 0)
(0.0038485 -0.000430556 0)
(0.00317916 -0.000177618 0)
(0.00429755 -2.10355e-05 0)
(0.000328557 -0.00231194 0)
(0.00430053 -0.000200949 0)
(0.000184549 -0.00248173 0)
(0.00310931 -0.00053007 0)
(0.00363859 -9.83392e-05 0)
(0.000679101 -0.00201857 0)
(0.00395949 -4.20189e-05 0)
(0.00364445 -3.44321e-05 0)
(0.00284304 -0.000397441 0)
(0.00339243 -9.11753e-05 0)
(0.0024014 -0.000507901 0)
(0.00373685 -5.99166e-05 0)
(0.00156726 -0.00116076 0)
(0.00314529 -0.000174031 0)
(0.0020168 -0.00075885 0)
(0.00357119 -3.82786e-05 0)
(0.00349108 -0.000283634 0)
(0.00355877 -6.00688e-05 0)
(0.00184875 -0.000868228 0)
(0.00213894 -0.000661684 0)
(0.00421352 -0.000238074 0)
(0.00436218 -0.000303862 0)
(0.00468562 -2.85925e-05 0)
(0.00171025 -0.00155471 0)
(0.00419145 -0.000171766 0)
(0.00442688 -5.37172e-05 0)
(0.00270106 -0.000385705 0)
(0.00312982 -0.000475195 0)
(0.00202657 -0.000992577 0)
(0.00364126 -0.000282185 0)
(0.00244011 -0.000514213 0)
(0.00397266 -9.22228e-05 0)
(0.00391043 -0.000365309 0)
(0.00386874 -8.57733e-05 0)
(0.00395762 -0.000124817 0)
(0.0032515 -0.000146915 0)
(0.00242438 -0.000593854 0)
(0.00270079 -0.000468149 0)
(0.000629951 -0.00192133 0)
(0.00258566 -0.000914479 0)
(0.00286784 -0.000447238 0)
(0.00345834 -6.96918e-05 0)
(0.000259614 -0.00240444 0)
(0.00099787 -0.00151831 0)
(0.00405385 -5.0683e-05 0)
(0.00409748 -1.30653e-05 0)
(0.00360039 -2.46416e-05 0)
(0.00226128 -0.000662288 0)
(0.00250911 -0.000449343 0)
(0.00352017 -0.000464626 0)
(0.00351605 -0.000193681 0)
(0.00413817 -0.000153123 0)
(0.0034885 -0.000367033 0)
(0.00236668 -0.000730739 0)
(0.00460472 -1.43032e-05 0)
(0.00420402 -0.000398025 0)
(0.00283479 -0.000519662 0)
(0.00438703 -0.000102611 0)
(0.0047202 -7.9694e-06 0)
(0.0043372 -0.000377214 0)
(0.00268672 -0.000370141 0)
(0.00293933 -0.000248837 0)
(0.0038348 -0.000159557 0)
(0.00188101 -0.000902029 0)
(0.00317733 -0.000265993 0)
(0.00359581 -7.6372e-05 0)
(0.00407936 -0.000269947 0)
(0.00431571 -9.03617e-05 0)
(0.000942798 -0.0018088 0)
(0.0032695 -0.000165424 0)
(0.00229553 -0.000568058 0)
(0.0039633 -6.44946e-05 0)
(0.00352993 -0.000319509 0)
(0.00354179 -4.92546e-05 0)
(0.0026596 -0.000518306 0)
(0.00432944 -0.000160834 0)
(0.00267764 -0.000432814 0)
(0.00353246 -0.000158442 0)
(0.00326499 -0.000164468 0)
(0.00122775 -0.00140733 0)
(0.00162454 -0.00134501 0)
(0.00420032 -4.7508e-05 0)
(0.00376695 -0.000377762 0)
(0.00456881 -3.79154e-05 0)
(0.00419273 -0.000340809 0)
(0.00247753 -0.000492067 0)
(0.00169074 -0.00095788 0)
(0.00314696 -0.000398041 0)
(0.00384714 -3.29545e-05 0)
(0.00406515 -0.000189225 0)
(0.00406683 -0.000105104 0)
(0.000384133 -0.00231918 0)
(0.00288352 -0.000297704 0)
(0.00450264 -9.02937e-05 0)
(0.00433154 -0.000223192 0)
(0.00380575 -0.000264464 0)
(0.000755154 -0.00209093 0)
(0.00331935 -0.000118826 0)
(0.0037267 -2.58776e-05 0)
(0.00353211 -5.33303e-05 0)
(0.00346815 -0.000130986 0)
(0.00295064 -0.000270228 0)
(0.00308325 -0.000382446 0)
(0.00349442 -0.000230399 0)
(0.00376631 -8.2317e-05 0)
(0.00226097 -0.000621608 0)
(0.000737618 -0.00189922 0)
(0.00288096 -0.000444019 0)
(0.00437183 -3.6629e-05 0)
(0.00399609 -0.000388251 0)
(0.00233066 -0.000891082 0)
(0.00407698 -3.01998e-05 0)
(0.00357162 -0.000402833 0)
(0.00331562 -0.000114107 0)
(0.00213342 -0.000679474 0)
(0.0026496 -0.0003798 0)
(0.00132977 -0.00143139 0)
(0.0018348 -0.000841823 0)
(0.00127263 -0.00170513 0)
(0.00426727 -0.000132513 0)
(0.00368467 -0.00022799 0)
(0.00388017 -0.000114389 0)
(0.00365114 -1.88106e-05 0)
(0.0035286 -6.7841e-05 0)
(0.00210656 -0.00081837 0)
(0.00452305 -0.000110874 0)
(0.00130824 -0.00124574 0)
(0.00253621 -0.000445417 0)
(0.000323323 -0.00235475 0)
(0.00334998 -0.000438105 0)
(0.0039849 -1.82852e-05 0)
(0.0033221 -0.000189467 0)
(0.00292056 -0.000329707 0)
(0.00346539 -0.000125904 0)
(0.00275757 -0.000637636 0)
(0.0041719 -0.000210689 0)
(0.00436856 -0.000256449 0)
(0.00462661 -5.13294e-05 0)
(0.00159187 -0.00107795 0)
(0.0024847 -0.000549392 0)
(0.00298985 -0.000310753 0)
(0.00401714 -0.000150363 0)
(0.00466864 -1.99378e-05 0)
(0.004304 -0.000351768 0)
(0.00363776 -0.000180232 0)
(0.004454 -0.000163424 0)
(0.00354891 -5.65945e-05 0)
(0.00341458 -0.000107984 0)
(0.00304019 -0.000348812 0)
(0.00328654 -0.000297749 0)
(0.00380606 -1.53086e-05 0)
(0.00370878 -4.25836e-05 0)
(0.00407761 -7.2352e-05 0)
(0.00385117 -5.91439e-05 0)
(0.00419381 -8.22958e-05 0)
(0.00306131 -0.000216792 0)
(0.00310531 -0.000236312 0)
(0.00389661 -0.000205082 0)
(0.00420088 -0.000277632 0)
(0.00446483 -7.33782e-05 0)
(0.000880801 -0.00169417 0)
(0.000470485 -0.00215875 0)
(0.00214346 -0.00117116 0)
(0.00389975 -0.000309256 0)
(0.00419042 -1.79552e-05 0)
(0.00270802 -0.000405536 0)
(0.00368265 -0.000447203 0)
(0.00152695 -0.00104713 0)
(0.00367065 -0.000329063 0)
(0.00313699 -0.000175978 0)
(0.00449597 -2.35212e-05 0)
(0.00409241 -0.000405815 0)
(0.00374166 -0.000122008 0)
(0.00398919 -0.000241797 0)
(0.00122184 -0.00162564 0)
(0.000980272 -0.00170029 0)
(0.00220643 -0.000681576 0)
(0.0001579 -0.00252052 0)
(0.00299077 -0.00047244 0)
(0.00174964 -0.00109139 0)
(0.00333955 -0.000299704 0)
(0.00439569 -0.000121722 0)
(0.00279411 -0.000320971 0)
(0.0041651 -0.000119103 0)
(0.00122856 -0.00189575 0)
(0.000643954 -0.00210186 0)
(0.00198712 -0.000752595 0)
(0.00336851 -0.000351851 0)
(0.00430779 -6.2678e-05 0)
(0.00404485 -0.000326189 0)
(0.00060284 -0.00212935 0)
(0.00372533 -1.39117e-05 0)
(0.00337332 -0.000104458 0)
(0.00362341 -2.0699e-05 0)
(0.00351086 -0.000128863 0)
(0.00328959 -0.000208826 0)
(0.00266604 -0.000536591 0)
(0.00283356 -0.000298792 0)
(0.00389512 -1.18223e-05 0)
(0.00342999 -0.000109849 0)
(0.000952647 -0.00186666 0)
(0.00338418 -0.000218489 0)
(0.00462154 -7.00701e-05 0)
(0.00445761 -0.000195753 0)
(0.0038485 -0.000430556 0)
(0.00317916 -0.000177618 0)
(0.00429755 -2.10355e-05 0)
(0.000328557 -0.00231194 0)
(0.00430053 -0.000200949 0)
(0.000184549 -0.00248173 0)
(0.00310931 -0.00053007 0)
(0.00363859 -9.83392e-05 0)
(0.000679101 -0.00201857 0)
(0.00395949 -4.20189e-05 0)
(0.00364445 -3.44321e-05 0)
(0.00284304 -0.000397441 0)
(0.00339243 -9.11753e-05 0)
(0.0024014 -0.000507901 0)
(0.00373685 -5.99166e-05 0)
(0.00156726 -0.00116076 0)
(0.00314529 -0.000174031 0)
(0.0020168 -0.00075885 0)
(0.00357119 -3.82786e-05 0)
(0.00349108 -0.000283634 0)
(0.00355877 -6.00688e-05 0)
(0.00184875 -0.000868228 0)
(0.00213894 -0.000661684 0)
(0.00421352 -0.000238074 0)
(0.00436218 -0.000303862 0)
(0.00468562 -2.85925e-05 0)
(0.00171025 -0.00155471 0)
(0.00419145 -0.000171766 0)
(0.00442688 -5.37172e-05 0)
(0.00270106 -0.000385705 0)
(0.00312982 -0.000475195 0)
(0.00202657 -0.000992577 0)
(0.00364126 -0.000282185 0)
(0.00244011 -0.000514213 0)
(0.00397266 -9.22228e-05 0)
(0.00391043 -0.000365309 0)
(0.00386874 -8.57733e-05 0)
(0.00395762 -0.000124817 0)
(0.0032515 -0.000146915 0)
(0.00242438 -0.000593854 0)
(0.00270079 -0.000468149 0)
(0.000629951 -0.00192133 0)
(0.00258566 -0.000914479 0)
(0.00286784 -0.000447238 0)
(0.00345834 -6.96918e-05 0)
(0.000259614 -0.00240444 0)
(0.00099787 -0.00151831 0)
(0.00405385 -5.0683e-05 0)
(0.00409748 -1.30653e-05 0)
(0.00360039 -2.46416e-05 0)
(0.00226128 -0.000662288 0)
(0.00250911 -0.000449343 0)
(0.00352017 -0.000464626 0)
(0.00351605 -0.000193681 0)
(0.00413817 -0.000153123 0)
(0.0034885 -0.000367033 0)
(0.00236668 -0.000730739 0)
(0.00460472 -1.43032e-05 0)
(0.00420402 -0.000398025 0)
(0.00283479 -0.000519662 0)
(0.00438703 -0.000102611 0)
(0.0047202 -7.9694e-06 0)
(0.0043372 -0.000377214 0)
(0.00268672 -0.000370141 0)
)
;

boundaryField
{
    back
    {
        type            empty;
    }
    front
    {
        type            empty;
    }
    down
    {
        type            symmetry;
    }
    right
    {
        type            calculated;
    }
    up
    {
        type            calculated;
    }
    left
    {
        type            symmetry;
    }
    hole
    {
        type            calculated;
    }
}


// ************************************************************************* //
