/*--------------------------------*- C++ -*----------------------------------*\
| =========                 |                                                 |
| \\      /  F ield         | OpenFOAM: The Open Source CFD Toolbox           |
|  \\    /   O peration     | Version:  v2012                                 |
|   \\  /    A nd           | Website:  www.openfoam.com                      |
|    \\/     M anipulation  |                                                 |
\*---------------------------------------------------------------------------*/
FoamFile
{
    version     2.0;
    format      ascii;
    class       pointScalarField;
    location    "18";
    object      pEpsilonEq;
}
// * * * * * * * * * * * * * * * * * * * * * * * * * * * * * * * * * * * * * //

dimensions      [0 0 0 0 0 0 0];


internalField   nonuniform List<scalar> 
32562
(
0.00068756
0.000162319
0.000294029
7.41441e-05
0.00908623
9.0206e-05
0.00104001
0.000390334
0.00102025
0.000237293
0.000274268
0.000274268
0.000390334
0.00104001
0.00908623
0.00068756
9.0206e-05
0.000162319
0.000237293
0.000294029
0.00102025
7.41441e-05
0.00104097
0.00107234
0.00111967
0.00117908
0.00126291
0.00136012
0.00146267
0.00155986
0.00164456
0.00171055
0.00175332
0.00177014
0.00175949
0.0017207
0.00165396
0.00156084
0.00144397
0.00130752
0.00115974
0.00101436
0.000891494
0.000808006
0.000759044
0.000719383
0.000682799
0.000648738
0.000617365
0.000588646
0.000562432
0.000538534
0.000516757
0.000496911
0.000478817
0.00046231
0.000447246
0.000433515
0.000421072
0.000409989
0.000400448
0.00037221
0.00036619
0.000358742
0.00035091
0.000343013
0.000335154
0.000327355
0.000319611
0.000311901
0.000304203
0.000296496
0.000288759
0.000280975
0.00027313
0.000265213
0.000257214
0.000249129
0.000240954
0.00023269
0.000224338
0.000215906
0.0002074
0.000198834
0.000190224
0.000181588
0.000172953
0.000164349
0.000155814
0.000147393
0.000139143
0.000131133
0.000123446
0.000116183
0.000109465
0.000103434
9.82539e-05
9.41075e-05
9.12042e-05
8.9823e-05
0.000655411
0.000623014
0.000592482
0.000563459
0.000535839
0.000509568
0.00048459
0.000460849
0.000438288
0.000416845
0.000396462
0.000377084
0.000358656
0.000341126
0.000324446
0.00030857
0.000293455
0.000279061
0.000265349
0.000252283
0.000239831
0.00022796
0.000216641
0.000205845
0.000195547
0.00018572
0.000176342
0.00016739
0.000158843
0.00015068
0.000142882
0.00013543
0.000128306
0.000121494
0.000114979
0.000108751
0.000102812
9.71948e-05
9.20103e-05
8.21913e-05
7.07551e-05
6.07124e-05
5.19278e-05
4.42856e-05
3.77069e-05
3.21517e-05
2.76206e-05
2.41514e-05
2.17987e-05
2.05855e-05
2.04472e-05
2.12194e-05
2.26891e-05
2.46586e-05
2.69788e-05
2.95491e-05
3.23067e-05
3.5213e-05
3.8245e-05
4.13886e-05
4.46345e-05
4.79761e-05
5.14078e-05
5.49241e-05
5.85197e-05
6.21886e-05
6.59246e-05
6.97211e-05
7.35708e-05
7.74665e-05
8.14005e-05
8.5365e-05
8.93521e-05
9.3354e-05
9.73624e-05
0.00010137
0.000105368
0.000109349
0.000113305
0.000117228
0.000121112
0.000124947
0.000128728
0.000132446
0.000136094
0.000139664
0.000143151
0.000146545
0.000149841
0.00015303
0.000156105
0.00015906
0.000161885
0.000164575
0.00016712
0.000169512
0.000171745
0.000173808
0.000175694
0.000177393
0.000178897
0.000180195
0.000181277
0.000182135
0.000182756
0.000183132
0.000183249
0.000183099
0.000182669
0.00018195
0.000180931
0.000179604
0.000177961
0.000176001
0.000173727
0.000171156
0.00016833
0.000165329
0.000161731
0.00016204
0.000162334
0.000162697
0.000163148
0.000163693
0.000164335
0.000165076
0.000165916
0.000166857
0.000167898
0.000169042
0.000170289
0.000171639
0.000173093
0.000174651
0.000176312
0.000178077
0.000179945
0.000181916
0.000183987
0.000186157
0.000188424
0.000190786
0.000193241
0.000195784
0.000198413
0.000201124
0.000203911
0.000206771
0.000209699
0.000212688
0.000215734
0.00021883
0.00022197
0.000225146
0.000228353
0.000231575
0.000234766
0.000239097
0.000240568
0.000242025
0.000243475
0.000244921
0.000246362
0.000247797
0.000249227
0.00025065
0.000252066
0.000253474
0.000254873
0.000256262
0.000257641
0.000259009
0.000260365
0.000261708
0.000263037
0.000264353
0.000265652
0.000266936
0.000268204
0.000269453
0.000270684
0.000271896
0.000273088
0.000274259
0.000275408
0.000276535
0.000277638
0.000278717
0.000279772
0.0002808
0.000281803
0.000282778
0.000283725
0.000284643
0.000285531
0.00028639
0.000287217
0.000288013
0.000288776
0.000289506
0.000290203
0.000290866
0.000291493
0.000292085
0.000292642
0.000293162
0.000293645
0.000294092
0.0002945
0.000294872
0.000295205
0.0002955
0.000295757
0.000295977
0.000296158
0.000296303
0.00029641
0.000296481
0.000296516
0.000296517
0.000296484
0.000296419
0.000296323
0.0002962
0.000296051
0.000295878
0.000295686
0.000295479
0.00029526
0.000295035
0.000294812
0.000294596
0.000294399
0.000294231
0.000294108
0.000294048
0.000293824
0.000293251
0.000292532
0.000291901
0.000291502
0.000291422
0.000291709
0.000292392
0.00029348
0.000294975
0.000296874
0.000299168
0.000301849
0.000304905
0.000308325
0.000312097
0.000316212
0.000320658
0.000325426
0.000330506
0.000335891
0.000341572
0.000347544
0.0003538
0.000360334
0.000367143
0.000374221
0.000381565
0.000389173
0.000397042
0.000405168
0.000413551
0.000422189
0.000431081
0.000440224
0.000449618
0.000459261
0.000469154
0.000479293
0.000489678
0.000500307
0.000511179
0.000522291
0.00053364
0.000545223
0.000557037
0.000569078
0.000581341
0.00059382
0.000606508
0.000619398
0.000632482
0.00064575
0.000659189
0.000672788
0.00068653
0.000700398
0.000714369
0.000728417
0.000742508
0.000756597
0.000770622
0.000784493
0.000798069
0.000811125
0.000823172
0.000836708
0.000854272
0.000880162
0.000910059
0.000941514
0.000971864
0.000999161
0.0010218
0.00103861
0.00104858
0.00105076
0.00104455
0.00103074
0.00101139
0.00101052
0.00101752
0.00102333
0.00102651
0.00102732
0.00102571
0.00102154
0.00101458
0.00100458
0.000991239
0.000974277
0.000953439
0.00092853
0.000899437
0.000866157
0.000828814
0.00078767
0.000743114
0.000695643
0.000645836
0.000594313
0.000541706
0.000488628
0.000435656
0.000383317
0.000332091
0.000282417
0.000234702
0.000189336
0.00014671
0.000107234
7.13909e-05
3.99716e-05
1.63983e-05
1.98292e-05
3.6138e-05
4.94285e-05
5.93198e-05
5.68457e-05
4.58269e-05
4.86894e-05
6.2336e-05
8.07448e-05
0.000100823
0.000121357
0.000141847
0.000162066
0.000181905
0.000201312
0.000220259
0.000238737
0.000256745
0.000274289
0.000291376
0.000308016
0.000324222
0.000340006
0.000355382
0.000370361
0.000384959
0.000399188
0.000413063
0.000426596
0.0004398
0.000452688
0.000465273
0.000477567
0.000489583
0.000501331
0.000512824
0.000524074
0.00053509
0.000545884
0.000556466
0.000566848
0.000577038
0.000587048
0.000596888
0.000606566
0.000616093
0.00062548
0.000634735
0.000643868
0.00065289
0.000661811
0.000670641
0.00067939
0.00068807
0.000696692
0.000705268
0.00071381
0.000722332
0.000730848
0.000739372
0.000747921
0.000756512
0.000765164
0.000773896
0.000782732
0.000791695
0.000800812
0.000810112
0.000819628
0.000829395
0.000839453
0.000849846
0.000860625
0.000871845
0.000883568
0.000895865
0.000908818
0.000922519
0.000937076
0.000952618
0.000969296
0.000987305
0.0010069
0.00109385
0.00116753
0.00126818
0.0013904
0.00153521
0.00170275
0.00189263
0.00210388
0.00233493
0.00258394
0.00284859
0.00312659
0.00341543
0.00371266
0.00401617
0.00432369
0.00463342
0.00494361
0.00525264
0.00555924
0.00586201
0.00615974
0.00645138
0.00673569
0.00701153
0.00727775
0.007533
0.00777584
0.00800479
0.00821817
0.00841426
0.00859134
0.00874766
0.00888126
0.00899009
0.00907189
0.00912388
0.00914197
0.00911869
0.000385906
0.000386288
0.000388427
0.000390653
0.000392678
0.000394462
0.000396012
0.000397336
0.000398438
0.000399319
0.000399973
0.000400399
0.000400592
0.000400549
0.000400271
0.000399759
0.000399017
0.000398053
0.000396873
0.000395489
0.00039391
0.00039215
0.000390221
0.000388137
0.00038591
0.000383555
0.000381084
0.000378511
0.000375847
0.000373106
0.000370298
0.000367434
0.000364524
0.000361578
0.000358603
0.000355607
0.000352598
0.000349582
0.000346563
0.000343548
0.000340538
0.000337539
0.000334552
0.000331578
0.00032862
0.000325678
0.000322752
0.000319841
0.000316945
0.000314061
0.00031119
0.000308328
0.000305473
0.000302623
0.000299776
0.00029693
0.000294081
0.000291229
0.000288371
0.000285507
0.000282635
0.000279755
0.000276868
0.000273977
0.000271083
0.000268192
0.00026531
0.000262444
0.000259605
0.000256807
0.000254065
0.000251399
0.000248834
0.000246399
0.000244131
0.000242072
0.000240272
0.000238792
0.00023771
0.000418151
0.000423116
0.000428054
0.000433174
0.000438526
0.0004441
0.000449866
0.000455792
0.000461846
0.000468001
0.000474234
0.000480527
0.000486865
0.000493235
0.00049963
0.000506041
0.000512464
0.000518895
0.000525333
0.000531775
0.000538222
0.000544675
0.000551135
0.000557604
0.000564084
0.000570577
0.000577086
0.000583613
0.000590162
0.000596734
0.000603333
0.000609959
0.000616616
0.000623303
0.000630023
0.000636777
0.000643565
0.000650386
0.000657243
0.000664133
0.000671059
0.000678018
0.000685012
0.000692041
0.000699106
0.000706208
0.000713349
0.000720532
0.000727761
0.000735039
0.000742372
0.000749767
0.00075723
0.000764772
0.000772401
0.000780129
0.000787966
0.000795925
0.000804019
0.000812262
0.000820666
0.000829246
0.000838012
0.000846976
0.000856147
0.000865529
0.000875124
0.000884927
0.000894926
0.000905097
0.000915406
0.0009258
0.000936207
0.000946528
0.000956633
0.000966359
0.000975507
0.000987201
0.00100716
0.00914127
0.00908569
0.00900054
0.00887913
0.00871808
0.00851899
0.00828639
0.00802611
0.00774309
0.00743903
0.00711108
0.00675032
0.00634181
0.00586634
0.00530454
0.00464325
0.00388175
0.00303446
0.00212832
0.00120586
0.000376899
0.00027242
0.000303624
0.000251818
0.000215066
0.000189388
0.000172194
0.000161752
0.000156785
0.000156301
0.000159505
0.000165743
0.00017447
0.00018523
0.000197631
0.000211345
0.000226088
0.000241621
0.000257738
0.000291063
0.000308003
0.000324987
0.000341929
0.000358762
0.000375428
0.000391882
0.000408084
0.000424002
0.00043961
0.000454885
0.000469807
0.000484359
0.000498526
0.000512293
0.000525647
0.000538574
0.000551064
0.000563103
0.000574681
0.000585785
0.000596404
0.000606527
0.000616143
0.00062524
0.000633809
0.000641839
0.000649319
0.000656239
0.000662591
0.000668365
0.000673552
0.000678144
0.000682133
0.000685511
0.000688275
0.00069045
0.000692209
0.000695046
0.000266063
0.000251588
0.000238758
0.000227499
0.000217781
0.000209606
0.000202991
0.000197954
0.000194504
0.000192622
0.000192262
0.000193344
0.000195759
0.000199373
0.000204039
0.000209606
0.000215923
0.000222848
0.000230251
0.000238016
0.000246041
0.000254236
0.000262527
0.00027085
0.00027915
0.000287384
0.000295515
0.000303512
0.000311352
0.000319015
0.000326486
0.00033375
0.000340796
0.00034761
0.000354169
0.000360431
0.000366293
0.000371466
0.000375053
0.000266063
0.000251588
0.000238758
0.000227499
0.000217781
0.000209606
0.000202991
0.000197954
0.000194504
0.000192622
0.000192262
0.000193344
0.000195759
0.000199373
0.000204039
0.000209606
0.000215923
0.000222848
0.000230251
0.000238016
0.000246041
0.000254236
0.000262527
0.00027085
0.00027915
0.000287384
0.000295515
0.000303512
0.000311352
0.000319015
0.000326486
0.00033375
0.000340796
0.00034761
0.000354169
0.000360431
0.000366293
0.000371466
0.000375053
0.000400448
0.000409989
0.000421072
0.000433515
0.000447246
0.00046231
0.000478817
0.000496911
0.000516757
0.000538534
0.000562432
0.000588646
0.000617365
0.000648738
0.000682799
0.000719383
0.000759044
0.000808006
0.000891494
0.00101436
0.00115974
0.00130752
0.00144397
0.00156084
0.00165396
0.0017207
0.00175949
0.00177014
0.00175332
0.00171055
0.00164456
0.00155986
0.00146267
0.00136012
0.00126291
0.00117908
0.00111967
0.00107234
0.00104097
0.00109385
0.00116753
0.00126818
0.0013904
0.00153521
0.00170275
0.00189263
0.00210388
0.00233493
0.00258394
0.00284859
0.00312659
0.00341543
0.00371266
0.00401617
0.00432369
0.00463342
0.00494361
0.00525264
0.00555924
0.00586201
0.00615974
0.00645138
0.00673569
0.00701153
0.00727775
0.007533
0.00777584
0.00800479
0.00821817
0.00841426
0.00859134
0.00874766
0.00888126
0.00899009
0.00907189
0.00912388
0.00914197
0.00911869
0.00914127
0.00908569
0.00900054
0.00887913
0.00871808
0.00851899
0.00828639
0.00802611
0.00774309
0.00743903
0.00711108
0.00675032
0.00634181
0.00586634
0.00530454
0.00464325
0.00388175
0.00303446
0.00212832
0.00120586
0.000376899
0.00027242
0.000303624
0.000251818
0.000215066
0.000189388
0.000172194
0.000161752
0.000156785
0.000156301
0.000159505
0.000165743
0.00017447
0.00018523
0.000197631
0.000211345
0.000226088
0.000241621
0.000257738
0.000291063
0.000308003
0.000324987
0.000341929
0.000358762
0.000375428
0.000391882
0.000408084
0.000424002
0.00043961
0.000454885
0.000469807
0.000484359
0.000498526
0.000512293
0.000525647
0.000538574
0.000551064
0.000563103
0.000574681
0.000585785
0.000596404
0.000606527
0.000616143
0.00062524
0.000633809
0.000641839
0.000649319
0.000656239
0.000662591
0.000668365
0.000673552
0.000678144
0.000682133
0.000685511
0.000688275
0.00069045
0.000692209
0.000695046
0.000655411
0.000623014
0.000592482
0.000563459
0.000535839
0.000509568
0.00048459
0.000460849
0.000438288
0.000416845
0.000396462
0.000377084
0.000358656
0.000341126
0.000324446
0.00030857
0.000293455
0.000279061
0.000265349
0.000252283
0.000239831
0.00022796
0.000216641
0.000205845
0.000195547
0.00018572
0.000176342
0.00016739
0.000158843
0.00015068
0.000142882
0.00013543
0.000128306
0.000121494
0.000114979
0.000108751
0.000102812
9.71948e-05
9.20103e-05
8.9823e-05
9.12042e-05
9.41075e-05
9.82539e-05
0.000103434
0.000109465
0.000116183
0.000123446
0.000131133
0.000139143
0.000147393
0.000155814
0.000164349
0.000172953
0.000181588
0.000190224
0.000198834
0.0002074
0.000215906
0.000224338
0.00023269
0.000240954
0.000249129
0.000257214
0.000265213
0.00027313
0.000280975
0.000288759
0.000296496
0.000304203
0.000311901
0.000319611
0.000327355
0.000335154
0.000343013
0.00035091
0.000358742
0.00036619
0.00037221
8.21913e-05
7.07551e-05
6.07124e-05
5.19278e-05
4.42856e-05
3.77069e-05
3.21517e-05
2.76206e-05
2.41514e-05
2.17987e-05
2.05855e-05
2.04472e-05
2.12194e-05
2.26891e-05
2.46586e-05
2.69788e-05
2.95491e-05
3.23067e-05
3.5213e-05
3.8245e-05
4.13886e-05
4.46345e-05
4.79761e-05
5.14078e-05
5.49241e-05
5.85197e-05
6.21886e-05
6.59246e-05
6.97211e-05
7.35708e-05
7.74665e-05
8.14005e-05
8.5365e-05
8.93521e-05
9.3354e-05
9.73624e-05
0.00010137
0.000105368
0.000109349
0.000113305
0.000117228
0.000121112
0.000124947
0.000128728
0.000132446
0.000136094
0.000139664
0.000143151
0.000146545
0.000149841
0.00015303
0.000156105
0.00015906
0.000161885
0.000164575
0.00016712
0.000169512
0.000171745
0.000173808
0.000175694
0.000177393
0.000178897
0.000180195
0.000181277
0.000182135
0.000182756
0.000183132
0.000183249
0.000183099
0.000182669
0.00018195
0.000180931
0.000179604
0.000177961
0.000176001
0.000173727
0.000171156
0.00016833
0.000165329
0.000161731
0.00016204
0.000162334
0.000162697
0.000163148
0.000163693
0.000164335
0.000165076
0.000165916
0.000166857
0.000167898
0.000169042
0.000170289
0.000171639
0.000173093
0.000174651
0.000176312
0.000178077
0.000179945
0.000181916
0.000183987
0.000186157
0.000188424
0.000190786
0.000193241
0.000195784
0.000198413
0.000201124
0.000203911
0.000206771
0.000209699
0.000212688
0.000215734
0.00021883
0.00022197
0.000225146
0.000228353
0.000231575
0.000234766
0.00023771
0.000238792
0.000240272
0.000242072
0.000244131
0.000246399
0.000248834
0.000251399
0.000254065
0.000256807
0.000259605
0.000262444
0.00026531
0.000268192
0.000271083
0.000273977
0.000276868
0.000279755
0.000282635
0.000285507
0.000288371
0.000291229
0.000294081
0.00029693
0.000299776
0.000302623
0.000305473
0.000308328
0.00031119
0.000314061
0.000316945
0.000319841
0.000322752
0.000325678
0.00032862
0.000331578
0.000334552
0.000337539
0.000340538
0.000343548
0.000346563
0.000349582
0.000352598
0.000355607
0.000358603
0.000361578
0.000364524
0.000367434
0.000370298
0.000373106
0.000375847
0.000378511
0.000381084
0.000383555
0.00038591
0.000388137
0.000390221
0.00039215
0.00039391
0.000395489
0.000396873
0.000398053
0.000399017
0.000399759
0.000400271
0.000400549
0.000400592
0.000400399
0.000399973
0.000399319
0.000398438
0.000397336
0.000396012
0.000394462
0.000392678
0.000390653
0.000388427
0.000386288
0.000385906
0.000239097
0.000240568
0.000242025
0.000243475
0.000244921
0.000246362
0.000247797
0.000249227
0.00025065
0.000252066
0.000253474
0.000254873
0.000256262
0.000257641
0.000259009
0.000260365
0.000261708
0.000263037
0.000264353
0.000265652
0.000266936
0.000268204
0.000269453
0.000270684
0.000271896
0.000273088
0.000274259
0.000275408
0.000276535
0.000277638
0.000278717
0.000279772
0.0002808
0.000281803
0.000282778
0.000283725
0.000284643
0.000285531
0.00028639
0.000287217
0.000288013
0.000288776
0.000289506
0.000290203
0.000290866
0.000291493
0.000292085
0.000292642
0.000293162
0.000293645
0.000294092
0.0002945
0.000294872
0.000295205
0.0002955
0.000295757
0.000295977
0.000296158
0.000296303
0.00029641
0.000296481
0.000296516
0.000296517
0.000296484
0.000296419
0.000296323
0.0002962
0.000296051
0.000295878
0.000295686
0.000295479
0.00029526
0.000295035
0.000294812
0.000294596
0.000294399
0.000294231
0.000294108
0.000294048
0.000293824
0.000293251
0.000292532
0.000291901
0.000291502
0.000291422
0.000291709
0.000292392
0.00029348
0.000294975
0.000296874
0.000299168
0.000301849
0.000304905
0.000308325
0.000312097
0.000316212
0.000320658
0.000325426
0.000330506
0.000335891
0.000341572
0.000347544
0.0003538
0.000360334
0.000367143
0.000374221
0.000381565
0.000389173
0.000397042
0.000405168
0.000413551
0.000422189
0.000431081
0.000440224
0.000449618
0.000459261
0.000469154
0.000479293
0.000489678
0.000500307
0.000511179
0.000522291
0.00053364
0.000545223
0.000557037
0.000569078
0.000581341
0.00059382
0.000606508
0.000619398
0.000632482
0.00064575
0.000659189
0.000672788
0.00068653
0.000700398
0.000714369
0.000728417
0.000742508
0.000756597
0.000770622
0.000784493
0.000798069
0.000811125
0.000823172
0.000836708
0.000854272
0.000880162
0.000910059
0.000941514
0.000971864
0.000999161
0.0010218
0.00103861
0.00104858
0.00105076
0.00104455
0.00103074
0.00100716
0.000987201
0.000975507
0.000966359
0.000956633
0.000946528
0.000936207
0.0009258
0.000915406
0.000905097
0.000894926
0.000884927
0.000875124
0.000865529
0.000856147
0.000846976
0.000838012
0.000829246
0.000820666
0.000812262
0.000804019
0.000795925
0.000787966
0.000780129
0.000772401
0.000764772
0.00075723
0.000749767
0.000742372
0.000735039
0.000727761
0.000720532
0.000713349
0.000706208
0.000699106
0.000692041
0.000685012
0.000678018
0.000671059
0.000664133
0.000657243
0.000650386
0.000643565
0.000636777
0.000630023
0.000623303
0.000616616
0.000609959
0.000603333
0.000596734
0.000590162
0.000583613
0.000577086
0.000570577
0.000564084
0.000557604
0.000551135
0.000544675
0.000538222
0.000531775
0.000525333
0.000518895
0.000512464
0.000506041
0.00049963
0.000493235
0.000486865
0.000480527
0.000474234
0.000468001
0.000461846
0.000455792
0.000449866
0.0004441
0.000438526
0.000433174
0.000428054
0.000423116
0.000418151
0.00101139
0.00101052
0.00101752
0.00102333
0.00102651
0.00102732
0.00102571
0.00102154
0.00101458
0.00100458
0.000991239
0.000974277
0.000953439
0.00092853
0.000899437
0.000866157
0.000828814
0.00078767
0.000743114
0.000695643
0.000645836
0.000594313
0.000541706
0.000488628
0.000435656
0.000383317
0.000332091
0.000282417
0.000234702
0.000189336
0.00014671
0.000107234
7.13909e-05
3.99716e-05
1.63983e-05
1.98292e-05
3.6138e-05
4.94285e-05
5.93198e-05
5.68457e-05
4.58269e-05
4.86894e-05
6.2336e-05
8.07448e-05
0.000100823
0.000121357
0.000141847
0.000162066
0.000181905
0.000201312
0.000220259
0.000238737
0.000256745
0.000274289
0.000291376
0.000308016
0.000324222
0.000340006
0.000355382
0.000370361
0.000384959
0.000399188
0.000413063
0.000426596
0.0004398
0.000452688
0.000465273
0.000477567
0.000489583
0.000501331
0.000512824
0.000524074
0.00053509
0.000545884
0.000556466
0.000566848
0.000577038
0.000587048
0.000596888
0.000606566
0.000616093
0.00062548
0.000634735
0.000643868
0.00065289
0.000661811
0.000670641
0.00067939
0.00068807
0.000696692
0.000705268
0.00071381
0.000722332
0.000730848
0.000739372
0.000747921
0.000756512
0.000765164
0.000773896
0.000782732
0.000791695
0.000800812
0.000810112
0.000819628
0.000829395
0.000839453
0.000849846
0.000860625
0.000871845
0.000883568
0.000895865
0.000908818
0.000922519
0.000937076
0.000952618
0.000969296
0.000987305
0.0010069
0.00910527
0.00910656
0.00907705
0.00901829
0.00893182
0.0088193
0.00868251
0.0085233
0.00834347
0.00814476
0.00792896
0.0076978
0.00745284
0.00719558
0.00692735
0.00664937
0.00636284
0.00606891
0.00576872
0.00546349
0.00515447
0.00484301
0.00453073
0.00421923
0.00391043
0.00360654
0.00330982
0.00302281
0.00274805
0.00248807
0.00224529
0.00202179
0.00181928
0.00163892
0.00148137
0.00134667
0.00123429
0.00114695
0.00108306
0.00903471
0.00902329
0.00898575
0.0089219
0.00883249
0.00871871
0.00858192
0.00842353
0.00824505
0.00804809
0.00783428
0.00760506
0.00736181
0.00710577
0.00683818
0.00656016
0.00627287
0.00597753
0.00567533
0.00536758
0.00505578
0.00474155
0.00442676
0.00411349
0.00380414
0.00350135
0.0032078
0.00292632
0.00265961
0.00241013
0.00217993
0.00197057
0.00178306
0.00161785
0.00147491
0.00135387
0.00125437
0.00117522
0.0011119
0.00893338
0.00890557
0.00885513
0.00878153
0.00868519
0.00856691
0.00842755
0.00826813
0.00808985
0.00789394
0.00768157
0.00745375
0.00721148
0.00695577
0.00668764
0.00640817
0.00611854
0.00582002
0.00551404
0.00520226
0.00488652
0.00456906
0.00425239
0.00393937
0.00363307
0.00333665
0.00305329
0.00278587
0.00253681
0.00230798
0.00210055
0.00191501
0.00175124
0.0016086
0.001486
0.00138189
0.00129384
0.00121805
0.00116075
0.00879533
0.00874921
0.00868326
0.00859733
0.00849163
0.00836647
0.00822236
0.00806005
0.00788026
0.00768364
0.00747074
0.00724211
0.00699842
0.00674044
0.00646906
0.00618542
0.00589077
0.00558674
0.00527521
0.00495841
0.00463909
0.00432035
0.00400568
0.00369885
0.00340359
0.00312344
0.00286142
0.00261979
0.00240001
0.0022026
0.00202729
0.00187314
0.0017386
0.00162179
0.00152045
0.00143206
0.00135432
0.00128748
0.00122638
0.00861828
0.00855302
0.00847036
0.0083705
0.00825343
0.00811924
0.00796821
0.00780061
0.00761651
0.00741591
0.00719882
0.00696546
0.00671623
0.00645183
0.00617326
0.00588181
0.00557925
0.00526784
0.00495029
0.00463001
0.00431088
0.00399719
0.00369349
0.0034041
0.00313286
0.00288271
0.00265553
0.0024521
0.00227201
0.00211403
0.00197625
0.00185625
0.0017514
0.00165906
0.00157667
0.00150219
0.00143436
0.00137028
0.00131084
0.00840389
0.00831874
0.00821826
0.00810266
0.00797194
0.00782611
0.00766508
0.00748841
0.00729553
0.00708591
0.00685927
0.00661567
0.00635555
0.00607979
0.00578973
0.0054874
0.00517548
0.00485731
0.00453708
0.00421963
0.00391017
0.00361404
0.00333601
0.00307999
0.00284853
0.0026427
0.00246229
0.00230573
0.00217067
0.00205429
0.00195337
0.00186481
0.00178575
0.00171376
0.00164691
0.00158383
0.00152299
0.00146469
0.00140885
0.00815649
0.00804994
0.00792951
0.00779543
0.00764777
0.00748629
0.00731029
0.00711873
0.00691061
0.00668526
0.00644241
0.00618226
0.00590567
0.00561414
0.00531
0.00499647
0.00467767
0.00435872
0.0040455
0.00374421
0.00346084
0.00320034
0.00296623
0.00276021
0.00258212
0.00243039
0.00230216
0.00219392
0.00210207
0.00202289
0.00195303
0.00188972
0.00183078
0.00177456
0.00171996
0.00166617
0.00161319
0.00156087
0.00150889
0.0078812
0.00775024
0.00760626
0.00744947
0.00727974
0.00709637
0.0068981
0.00668371
0.00645231
0.00620347
0.00593736
0.00565493
0.00535795
0.00504921
0.00473262
0.00441316
0.00409701
0.00379116
0.00350268
0.0032379
0.00300149
0.00279597
0.00262159
0.00247654
0.00235766
0.00226078
0.00218143
0.00211545
0.00205898
0.00200872
0.00196222
0.00191768
0.0018739
0.00183008
0.0017858
0.00174094
0.0016955
0.00164936
0.00160275
0.00758167
0.00742178
0.007249
0.00706327
0.00686399
0.00665004
0.00642022
0.00617377
0.00591044
0.0056307
0.00533589
0.00502828
0.00471132
0.0043897
0.00406946
0.0037579
0.00346308
0.00319264
0.00295269
0.00274687
0.00257599
0.00243827
0.00232995
0.00224621
0.00218178
0.00213161
0.00209132
0.00205721
0.00202637
0.00199681
0.00196721
0.0019368
0.0019051
0.00187184
0.00183696
0.00180053
0.0017626
0.00172337
0.00168286
0.00725832
0.00706347
0.00685479
0.00663173
0.00639332
0.00613868
0.00586747
0.00558006
0.00527771
0.00496258
0.00463785
0.00430795
0.00397862
0.00365708
0.00335187
0.00307188
0.00282481
0.0026157
0.0024462
0.00231469
0.00221683
0.00214685
0.00209849
0.0020658
0.00204358
0.00202762
0.00201466
0.00200238
0.00198933
0.00197468
0.00195805
0.00193914
0.00191778
0.00189398
0.00186792
0.00183974
0.00180958
0.00177751
0.00174358
0.00690667
0.00666932
0.00641601
0.00614587
0.0058583
0.00555357
0.005233
0.00489903
0.0045552
0.00420612
0.00385763
0.00351696
0.00319284
0.00289513
0.00263327
0.00241414
0.00224061
0.00211138
0.00202161
0.00196431
0.00193188
0.00191711
0.00191386
0.00191725
0.00192351
0.00193
0.00193507
0.00193779
0.0019378
0.00193495
0.00192903
0.00191997
0.00190783
0.00189286
0.00187533
0.00185528
0.0018328
0.00180793
0.00178076
0.00651627
0.00622783
0.00592066
0.00559441
0.0052499
0.00488946
0.00451694
0.00413757
0.00375782
0.00338547
0.0030297
0.00270124
0.00241149
0.00216991
0.00198149
0.00184568
0.00175725
0.00170807
0.00168873
0.00169026
0.00170518
0.00172772
0.00175356
0.00177951
0.00180352
0.00182456
0.00184215
0.00185628
0.00186696
0.00187388
0.00187711
0.0018768
0.00187324
0.00186676
0.00185732
0.00184504
0.00182992
0.00181209
0.0017917
0.00607121
0.00572331
0.00535483
0.00496717
0.00456358
0.00414927
0.00373118
0.00331779
0.00291899
0.0025464
0.00221333
0.00193271
0.00171308
0.00155598
0.00145617
0.0014043
0.00138952
0.00140099
0.00142943
0.00146779
0.001511
0.00155531
0.00159789
0.00163716
0.0016726
0.00170397
0.0017315
0.0017552
0.00177458
0.00178983
0.00180118
0.00180897
0.00181362
0.00181491
0.00181301
0.00180792
0.00179975
0.00178878
0.00177505
0.00555264
0.00513956
0.00470724
0.00425993
0.00380409
0.00334828
0.00290289
0.00247986
0.00209361
0.00176048
0.00149453
0.00130106
0.0011754
0.00110635
0.00108143
0.00108918
0.00111917
0.00116316
0.00121542
0.00127174
0.00132874
0.00138359
0.00143496
0.00148259
0.0015262
0.0015661
0.0016021
0.00163329
0.00166008
0.00168272
0.0017016
0.00171719
0.00172902
0.0017374
0.00174228
0.00174378
0.00174231
0.00173791
0.00173059
0.00494394
0.00446582
0.00397502
0.00347939
0.00298906
0.00251631
0.00207531
0.00168411
0.00136305
0.00112572
0.000969114
0.000877866
0.00083404
0.00082423
0.000839499
0.000872129
0.000916476
0.00096914
0.00102722
0.00108767
0.00114747
0.00120541
0.00126121
0.00131413
0.00136437
0.00141121
0.00145302
0.00149057
0.00152394
0.00155349
0.00157973
0.00160178
0.00162021
0.00163483
0.00164582
0.00165375
0.00165859
0.00166038
0.00165861
0.00423726
0.00370264
0.0031682
0.00264577
0.00214978
0.00169731
0.00131232
0.00102152
0.000834562
0.000730119
0.000677827
0.000656912
0.000656274
0.00066992
0.000693712
0.000725565
0.00076485
0.000810498
0.000860743
0.000913145
0.00096734
0.00102311
0.00107881
0.00113451
0.00118859
0.00123825
0.00128475
0.00132762
0.00136703
0.00140347
0.00143534
0.00146361
0.00148783
0.00150816
0.00152541
0.00153937
0.00155017
0.00155711
0.00156019
0.00343863
0.00286495
0.00231058
0.00179254
0.00133205
0.000964896
0.000728059
0.000614992
0.000571359
0.000555046
0.000553307
0.000561559
0.000576202
0.000594551
0.000615593
0.000639777
0.000667099
0.000697157
0.000729659
0.00076603
0.000807207
0.000852208
0.000901731
0.000953336
0.00100297
0.00105283
0.00110116
0.00114753
0.00119233
0.00123266
0.00127007
0.00130346
0.00133292
0.00135948
0.00138259
0.00140251
0.00141818
0.00142968
0.001438
0.00256843
0.00198064
0.00143937
0.000973622
0.000644902
0.00050716
0.000479946
0.000469144
0.000466579
0.00047444
0.000488613
0.000505618
0.00052428
0.00054449
0.000565751
0.00058734
0.000608925
0.000630581
0.000653025
0.000676783
0.000702636
0.000732752
0.000765905
0.000799925
0.000838193
0.000878993
0.000921856
0.00096693
0.00100937
0.00105152
0.00109091
0.00112727
0.00116176
0.00119314
0.00122179
0.00124601
0.00126584
0.00128268
0.00129644
0.00165875
0.00109386
0.000630968
0.000402254
0.000399572
0.000403886
0.000396924
0.00040011
0.000408305
0.000420441
0.00043597
0.000453808
0.000473358
0.00049415
0.000515648
0.000537443
0.000559358
0.000581374
0.000603385
0.000625447
0.000647633
0.000669131
0.000689962
0.000711819
0.000734641
0.000760834
0.000790923
0.000820886
0.000854204
0.000888017
0.000921996
0.000957188
0.000991128
0.00102441
0.00105419
0.00108014
0.00110404
0.00112561
0.00114421
0.00076689
0.000335193
0.000302271
0.000357698
0.000349739
0.000342027
0.000341203
0.000346117
0.000355462
0.000368556
0.000384722
0.000403207
0.000423391
0.000444761
0.000466886
0.000489438
0.000512202
0.000535012
0.000557697
0.00058006
0.000601775
0.000622639
0.000642829
0.000662527
0.000682276
0.000701917
0.000720551
0.000739675
0.000758661
0.000779791
0.000803777
0.000828401
0.000855153
0.000880643
0.000904524
0.00092892
0.000953033
0.000976079
0.000996668
0.000149799
0.000304915
0.000327998
0.000307609
0.000295412
0.000289758
0.000289978
0.000295431
0.000305316
0.000318921
0.000335554
0.000354532
0.000375246
0.000397187
0.000419934
0.000443153
0.00046658
0.000489997
0.000513204
0.000536003
0.000558241
0.000579836
0.000600772
0.000621067
0.000640631
0.000659184
0.000676727
0.000693404
0.000709822
0.000726237
0.000742073
0.000757921
0.000772857
0.000787792
0.000804457
0.000822201
0.000840801
0.000858918
0.000875511
0.000318842
0.000299941
0.000275889
0.000259025
0.000248232
0.000242988
0.000243121
0.000248352
0.00025816
0.000271879
0.000288784
0.000308158
0.000329354
0.000351829
0.000375135
0.000398912
0.000422872
0.00044678
0.000470443
0.000493703
0.000516439
0.00053856
0.000559999
0.000580686
0.000600542
0.000619516
0.000637584
0.000654822
0.00067127
0.000686788