/*--------------------------------*- C++ -*----------------------------------*\
| =========                 |                                                 |
| \\      /  F ield         | OpenFOAM: The Open Source CFD Toolbox           |
|  \\    /   O peration     | Version:  v2012                                 |
|   \\  /    A nd           | Website:  www.openfoam.com                      |
|    \\/     M anipulation  |                                                 |
\*---------------------------------------------------------------------------*/
FoamFile
{
    version     2.0;
    format      ascii;
    class       pointSymmTensorField;
    location    "19";
    object      pEpsilon;
}
// * * * * * * * * * * * * * * * * * * * * * * * * * * * * * * * * * * * * * //

dimensions      [0 0 0 0 0 0 0];


internalField   nonuniform List<symmTensor> 
32562
(
(0.000218705 -2.52365e-06 -8.84709e-16 -0.000534475 0 0)
(0.000115972 -1.35749e-06 1.20346e-16 6.44664e-05 0 0)
(0.000173643 4.86806e-08 2.33103e-16 -7.44273e-05 -2.88398e-16 0)
(-0.00019687 3.56983e-05 0 7.37071e-05 -2.87856e-16 0)
(0.00657311 -0.000258831 0 -0.00806182 2.15981e-14 0)
(-2.33909e-05 -2.55557e-06 -1.30104e-17 -8.4524e-05 0 0)
(0.00120241 8.21807e-05 0 -1.12218e-05 7.44305e-16 0)
(7.78273e-05 -9.79701e-05 -1.89735e-17 -0.000105015 -4.87213e-16 0)
(0.000895527 -9.73803e-06 -9.15338e-16 -0.000398396 -8.3985e-16 0)
(0.000150967 -2.72857e-06 -3.79471e-18 -2.06416e-05 7.01852e-17 0)
(-0.000135474 0.000325814 -1.4203e-16 -0.000131914 4.09286e-17 0)
(-0.000135474 0.000325814 -1.4203e-16 -0.000131914 4.09286e-17 0)
(7.78273e-05 -9.79701e-05 -1.89735e-17 -0.000105015 -4.87213e-16 0)
(0.00120241 8.21807e-05 0 -1.12218e-05 7.44305e-16 0)
(0.00657311 -0.000258831 0 -0.00806182 2.15981e-14 0)
(0.000218705 -2.52365e-06 -8.84709e-16 -0.000534475 0 0)
(-2.33909e-05 -2.55557e-06 -1.30104e-17 -8.4524e-05 0 0)
(0.000115972 -1.35749e-06 1.20346e-16 6.44664e-05 0 0)
(0.000150967 -2.72857e-06 -3.79471e-18 -2.06416e-05 7.01852e-17 0)
(0.000173643 4.86806e-08 2.33103e-16 -7.44273e-05 -2.88398e-16 0)
(0.000895527 -9.73803e-06 -9.15338e-16 -0.000398396 -8.3985e-16 0)
(-0.00019687 3.56983e-05 0 7.37071e-05 -2.87856e-16 0)
(0.00118525 7.29633e-05 4.57245e-16 -4.86314e-05 6.55942e-16 0)
(0.00119611 0.000132969 1.85588e-15 -8.751e-05 -1.02837e-15 0)
(0.00121392 0.00018303 5.80726e-17 -0.000148289 2.09468e-15 0)
(0.00123964 0.000212451 1.79435e-16 -0.000230908 -3.03577e-17 0)
(0.00128486 0.000224947 -1.7743e-15 -0.00034724 -2.62377e-16 0)
(0.00134158 0.000227779 -4.03933e-16 -0.000477416 -8.00683e-16 0)
(0.00140322 0.000224134 -1.23423e-15 -0.000610565 -2.52619e-16 0)
(0.00146037 0.000213837 -4.42354e-16 -0.00073698 3.48029e-16 0)
(0.00150679 0.00019701 -3.0275e-15 -0.000850607 -2.62377e-16 0)
(0.00153712 0.000173514 2.72406e-16 -0.000946147 2.86284e-15 0)
(0.00154737 0.000143298 -8.26975e-16 -0.00101997 -6.01732e-17 0)
(0.00153507 0.000107016 -7.51081e-16 -0.00106962 2.36573e-15 0)
(0.00149874 6.56227e-05 2.48824e-16 -0.00109364 1.82851e-15 0)
(0.00143768 2.03615e-05 -7.48642e-16 -0.00109117 -1.04409e-15 0)
(0.00135186 -2.72197e-05 2.91379e-16 -0.00106209 -8.39172e-16 0)
(0.00124241 -7.53858e-05 -9.43527e-16 -0.00100753 7.08526e-16 0)
(0.00111161 -0.000122087 1.40702e-15 -0.000929374 3.36103e-16 0)
(0.00096364 -0.000164293 -3.01679e-16 -0.000830468 5.71646e-16 0)
(0.000807587 -0.000197409 -3.90584e-16 -0.00071682 -1.80601e-15 0)
(0.000658692 -0.000216156 1.85128e-16 -0.000599854 -1.34902e-15 0)
(0.000537887 -0.000217697 1.47343e-15 -0.000498053 -5.85469e-16 0)
(0.000457505 -0.000208618 5.7029e-16 -0.000429667 -1.01752e-15 0)
(0.000409114 -0.000198462 1.41217e-15 -0.000391553 3.84892e-16 0)
(0.00037315 -0.000186705 1.32815e-15 -0.000358349 5.78151e-16 0)
(0.000340717 -0.000177041 6.39679e-16 -0.000326312 2.38524e-17 0)
(0.000310182 -0.000169154 -1.31188e-16 -0.000296393 1.33357e-16 0)
(0.000281847 -0.000162113 1.84856e-16 -0.000269078 6.44829e-16 0)
(0.000255837 -0.000155451 9.97466e-17 -0.000244444 4.56449e-16 0)
(0.000232115 -0.000148959 2.14672e-16 -0.000222403 2.69831e-16 0)
(0.000210573 -0.00014256 1.26852e-16 -0.000202803 4.6065e-16 0)
(0.000191071 -0.000136249 3.77302e-16 -0.00018547 4.52925e-16 0)
(0.000173459 -0.000130053 -3.79471e-18 -0.000170224 7.46202e-16 0)
(0.000157584 -0.000124017 3.36103e-17 -0.000156892 -7.14354e-16 0)
(0.000143299 -0.000118186 1.37694e-16 -0.000145304 -6.88197e-16 0)
(0.000130473 -0.000112603 3.4315e-16 -0.000135311 -4.75694e-16 0)
(0.000119008 -0.000107292 -1.79435e-16 -0.000126785 -1.44741e-16 0)
(0.000108882 -0.000102236 -4.62954e-16 -0.000119655 -3.73914e-16 0)
(0.000100289 -9.72254e-05 4.43439e-16 -0.000113987 -1.78216e-16 0)
(9.40618e-05 -9.09844e-05 3.20382e-16 -0.000110342 -3.99393e-16 0)
(7.01187e-05 -8.93208e-05 1.14925e-16 -9.23302e-05 -2.95919e-16 0)
(6.50697e-05 -8.59915e-05 3.30682e-16 -9.24679e-05 -3.39626e-16 0)
(5.98691e-05 -8.25179e-05 1.79435e-16 -9.13759e-05 -6.71934e-16 0)
(5.48045e-05 -7.92166e-05 1.5233e-16 -9.00343e-05 -2.62851e-16 0)
(4.99645e-05 -7.61518e-05 1.85399e-16 -8.87393e-05 -3.67951e-17 0)
(4.53697e-05 -7.33193e-05 2.98698e-16 -8.75894e-05 -3.07642e-17 0)
(4.10142e-05 -7.06946e-05 1.90277e-16 -8.66103e-05 4.32055e-16 0)
(3.68825e-05 -6.82488e-05 -9.26993e-17 -8.57984e-05 4.30089e-16 0)
(3.29566e-05 -6.59534e-05 -1.96241e-16 -8.51381e-05 8.01632e-17 0)
(2.92186e-05 -6.37817e-05 -2.60209e-17 -8.46099e-05 2.13927e-16 0)
(2.56526e-05 -6.171e-05 -1.53415e-16 -8.41939e-05 -2.01933e-16 0)
(2.22449e-05 -5.97166e-05 -1.45825e-16 -8.38716e-05 -6.26804e-18 0)
(1.89839e-05 -5.77825e-05 -1.0842e-18 -8.36263e-05 7.16251e-17 0)
(1.58603e-05 -5.58907e-05 1.62088e-16 -8.34435e-05 -1.33933e-16 0)
(1.28667e-05 -5.40263e-05 2.43945e-17 -8.3311e-05 -2.782e-16 0)
(9.99723e-06 -5.21764e-05 2.1684e-18 -8.32184e-05 -4.05525e-16 0)
(7.24754e-06 -5.03295e-05 -8.13152e-17 -8.3157e-05 6.53232e-17 0)
(4.61435e-06 -4.84759e-05 7.31836e-17 -8.31197e-05 -9.52743e-17 0)
(2.09537e-06 -4.66073e-05 7.80626e-17 -8.31007e-05 -1.8838e-17 0)
(-3.10874e-07 -4.47167e-05 -3.25261e-18 -8.30953e-05 -2.71118e-16 0)
(-2.60526e-06 -4.27985e-05 -2.6563e-17 -8.30997e-05 -1.45181e-16 0)
(-4.78812e-06 -4.0848e-05 -4.17418e-17 -8.31111e-05 -5.49724e-17 0)
(-6.8594e-06 -3.88615e-05 -2.1684e-17 -8.31271e-05 -1.25412e-16 0)
(-8.81869e-06 -3.68364e-05 3.25261e-17 -8.31462e-05 4.3673e-17 0)
(-1.06653e-05 -3.47708e-05 -3.30682e-17 -8.3167e-05 2.84095e-17 0)
(-1.23984e-05 -3.26637e-05 -5.58364e-17 -8.3189e-05 7.23536e-17 0)
(-1.40169e-05 -3.05146e-05 -2.05998e-17 -8.32116e-05 1.00068e-16 0)
(-1.55196e-05 -2.83237e-05 6.50521e-18 -8.32348e-05 4.60617e-17 0)
(-1.69051e-05 -2.60919e-05 -1.95156e-17 -8.32587e-05 -8.38817e-17 0)
(-1.81719e-05 -2.38204e-05 -4.06576e-17 -8.32839e-05 2.67832e-17 0)
(-1.93185e-05 -2.15109e-05 0 -8.3311e-05 1.69407e-19 0)
(-2.03429e-05 -1.91653e-05 4.33681e-18 -8.33411e-05 -2.98494e-17 0)
(-2.12431e-05 -1.67856e-05 4.71628e-17 -8.33753e-05 1.44165e-17 0)
(-2.20165e-05 -1.43736e-05 4.49944e-17 -8.34156e-05 1.56362e-17 0)
(-2.26593e-05 -1.19295e-05 -7.04731e-18 -8.34648e-05 -3.12301e-17 0)
(-2.31643e-05 -9.44969e-06 4.22839e-17 -8.35287e-05 2.03161e-17 0)
(-2.35154e-05 -6.91734e-06 -1.0842e-17 -8.36199e-05 -1.08632e-18 0)
(-2.36659e-05 -4.26674e-06 1.0842e-18 -8.37683e-05 3.14673e-17 0)
(-2.34487e-05 -1.18301e-06 2.92735e-17 -8.40204e-05 6.97616e-17 0)
(0.000211432 -2.97879e-06 -1.45879e-15 -0.000511064 0 0)
(0.000199171 -2.23754e-06 -6.84132e-16 -0.000490667 0 0)
(0.000187182 -1.88551e-06 0 -0.000471407 0 0)
(0.000175519 -1.74233e-06 -3.38271e-16 -0.000452958 0 0)
(0.000164246 -1.71377e-06 -1.10589e-16 -0.000435211 0 0)
(0.000153402 -1.74884e-06 1.56125e-16 -0.000418112 0 0)
(0.000143004 -1.81923e-06 8.67362e-17 -0.000401627 0 0)
(0.000133053 -1.90889e-06 1.66967e-16 -0.00038573 0 0)
(0.000123543 -2.00854e-06 2.76472e-17 -0.000370395 0 0)
(0.000114462 -2.11273e-06 -1.96241e-16 -0.000355598 0 0)
(0.000105795 -2.21822e-06 -3.56703e-16 -0.000341317 0 0)
(9.75274e-05 -2.32306e-06 -1.65883e-16 -0.000327531 0 0)
(8.9643e-05 -2.42609e-06 -2.46656e-16 -0.000314218 0 0)
(8.21258e-05 -2.52659e-06 -5.58364e-17 -0.00030136 0 0)
(7.49604e-05 -2.62415e-06 1.30104e-17 -0.000288937 0 0)
(6.81316e-05 -2.71854e-06 -2.6563e-17 -0.000276933 0 0)
(6.1625e-05 -2.80963e-06 4.33681e-18 -0.000265331 0 0)
(5.54268e-05 -2.89735e-06 -1.0842e-17 -0.000254115 0 0)
(4.95236e-05 -2.98169e-06 1.68051e-17 -0.00024327 0 0)
(4.39028e-05 -3.06263e-06 -1.78893e-17 -0.000232781 0 0)
(3.85525e-05 -3.14015e-06 -7.37257e-17 -0.000222636 0 0)
(3.3461e-05 -3.21424e-06 -9.70361e-17 -0.000212821 0 0)
(2.86173e-05 -3.28482e-06 -9.37835e-17 -0.000203324 0 0)
(2.40109e-05 -3.35179e-06 -1.0571e-16 -0.000194134 0 0)
(1.96317e-05 -3.41495e-06 -7.53521e-17 -0.000185239 0 0)
(1.54696e-05 -3.47397e-06 -8.72783e-17 -0.000176629 0 0)
(1.15153e-05 -3.52839e-06 -3.7405e-17 -0.000168294 0 0)
(7.75914e-06 -3.57746e-06 -9.92045e-17 -0.000160225 0 0)
(4.19185e-06 -3.62011e-06 -1.25767e-16 -0.000152412 0 0)
(8.03888e-07 -3.65475e-06 -5.85469e-17 -0.000144846 0 0)
(-2.41457e-06 -3.67907e-06 -6.34258e-17 -0.00013752 0 0)
(-5.47388e-06 -3.6897e-06 -1.05168e-16 -0.000130426 0 0)
(-8.38522e-06 -3.68183e-06 -7.53521e-17 -0.000123558 0 0)
(-1.11608e-05 -3.64861e-06 -2.87314e-17 -0.000116912 0 0)
(-1.38138e-05 -3.58043e-06 -7.04731e-18 -0.000110484 0 0)
(-1.6358e-05 -3.46426e-06 -9.75782e-18 -0.000104279 0 0)
(-1.88045e-05 -3.28344e-06 3.25261e-18 -9.83119e-05 0 0)
(-2.11528e-05 -3.01977e-06 2.71051e-17 -9.26241e-05 0 0)
(-2.33629e-05 -2.66351e-06 1.30104e-17 -8.73244e-05 0 0)
(-2.47029e-05 -2.80582e-06 -6.39679e-17 -7.49139e-05 0 0)
(-2.88695e-05 -3.45075e-06 -1.35525e-17 -6.24274e-05 0 0)
(-3.20505e-05 -3.71629e-06 -2.27682e-17 -5.08888e-05 0 0)
(-3.44457e-05 -3.81253e-06 -4.87891e-18 -4.02896e-05 0 0)
(-3.61857e-05 -3.83332e-06 -4.11997e-17 -3.05732e-05 0 0)
(-3.73577e-05 -3.81892e-06 -3.90313e-17 -2.16787e-05 0 0)
(-3.80258e-05 -3.78688e-06 -2.6563e-17 -1.3548e-05 0 0)
(-3.82407e-05 -3.74512e-06 5.42101e-19 -6.12802e-06 0 0)
(-3.80452e-05 -3.69746e-06 -1.19262e-17 6.29709e-07 0 0)
(-3.74763e-05 -3.64586e-06 -2.1684e-18 6.7696e-06 0 0)
(-3.6567e-05 -3.59145e-06 1.6263e-17 1.23325e-05 0 0)
(-3.53471e-05 -3.53497e-06 2.00577e-17 1.73562e-05 0 0)
(-3.38439e-05 -3.47692e-06 1.46367e-17 2.18757e-05 0 0)
(-3.20823e-05 -3.4177e-06 -1.0842e-18 2.59238e-05 0 0)
(-3.00853e-05 -3.3576e-06 1.24683e-17 2.95309e-05 0 0)
(-2.78741e-05 -3.29689e-06 7.04731e-18 3.27259e-05 0 0)
(-2.54685e-05 -3.23579e-06 6.50521e-18 3.55355e-05 0 0)
(-2.28869e-05 -3.17448e-06 1.6263e-17 3.79851e-05 0 0)
(-2.01464e-05 -3.11314e-06 2.27682e-17 4.00987e-05 0 0)
(-1.72629e-05 -3.05191e-06 2.00577e-17 4.18988e-05 0 0)
(-1.42514e-05 -2.99092e-06 3.03577e-17 4.34069e-05 0 0)
(-1.11259e-05 -2.93027e-06 2.60209e-17 4.46431e-05 0 0)
(-7.89941e-06 -2.87009e-06 2.1684e-17 4.56267e-05 0 0)
(-4.58425e-06 -2.81045e-06 7.04731e-18 4.6376e-05 0 0)
(-1.19192e-06 -2.75144e-06 3.63208e-17 4.69082e-05 0 0)
(2.26674e-06 -2.69312e-06 1.01915e-16 4.72398e-05 0 0)
(5.78157e-06 -2.63558e-06 7.20994e-17 4.73866e-05 0 0)
(9.343e-06 -2.57885e-06 -7.96889e-17 4.73636e-05 0 0)
(1.2942e-05 -2.523e-06 -3.25261e-17 4.71851e-05 0 0)
(1.65701e-05 -2.46807e-06 -2.07625e-16 4.68647e-05 0 0)
(2.02193e-05 -2.41409e-06 -8.51099e-17 4.64154e-05 0 0)
(2.3882e-05 -2.36111e-06 -1.13841e-16 4.58498e-05 0 0)
(2.75512e-05 -2.30914e-06 -1.04626e-16 4.51799e-05 0 0)
(3.12199e-05 -2.25823e-06 -6.9931e-17 4.44171e-05 0 0)
(3.48819e-05 -2.20838e-06 -3.90313e-17 4.35725e-05 0 0)
(3.85311e-05 -2.15962e-06 -3.1984e-17 4.26566e-05 0 0)
(4.21617e-05 -2.11195e-06 -1.35525e-17 4.16797e-05 0 0)
(4.57683e-05 -2.0654e-06 -8.78204e-17 4.06515e-05 0 0)
(4.93457e-05 -2.01996e-06 -1.25767e-16 3.95816e-05 0 0)
(5.28889e-05 -1.97565e-06 1.95156e-17 3.84791e-05 0 0)
(5.63932e-05 -1.93247e-06 -1.37694e-16 3.73529e-05 0 0)
(5.9854e-05 -1.8904e-06 -8.61941e-17 3.62117e-05 0 0)
(6.32669e-05 -1.84946e-06 -1.19262e-17 3.50638e-05 0 0)
(6.66276e-05 -1.80963e-06 9.75782e-18 3.39173e-05 0 0)
(6.99322e-05 -1.77091e-06 -1.59378e-16 3.27804e-05 0 0)
(7.31765e-05 -1.73328e-06 -1.14925e-16 3.16607e-05 0 0)
(7.63567e-05 -1.69673e-06 4.22839e-17 3.0566e-05 0 0)
(7.9469e-05 -1.66125e-06 1.40946e-17 2.95038e-05 0 0)
(8.25095e-05 -1.62681e-06 -1.00289e-16 2.84817e-05 0 0)
(8.54745e-05 -1.5934e-06 -1.1601e-16 2.75071e-05 0 0)
(8.83602e-05 -1.561e-06 4.55907e-16 2.65873e-05 0 0)
(9.11629e-05 -1.52956e-06 2.83519e-16 2.57298e-05 0 0)
(9.38786e-05 -1.49908e-06 3.85976e-16 2.49421e-05 0 0)
(9.65035e-05 -1.46951e-06 4.33681e-18 2.42315e-05 0 0)
(9.90336e-05 -1.44082e-06 -6.93889e-17 2.36057e-05 0 0)
(0.000101465 -1.41298e-06 3.1984e-17 2.30724e-05 0 0)
(0.000103793 -1.38594e-06 1.78893e-16 2.26394e-05 0 0)
(0.000106013 -1.35966e-06 -1.23057e-16 2.23147e-05 0 0)
(0.000108121 -1.3341e-06 -2.81893e-17 2.21066e-05 0 0)
(0.000110113 -1.30921e-06 9.6494e-17 2.20236e-05 0 0)
(0.000111981 -1.28493e-06 8.23994e-17 2.20745e-05 0 0)
(0.000113722 -1.26121e-06 7.75205e-17 2.22684e-05 0 0)
(0.00011533 -1.23799e-06 -4.39102e-17 2.26148e-05 0 0)
(0.000116798 -1.21522e-06 -1.14383e-16 2.31237e-05 0 0)
(0.000118121 -1.19282e-06 5.69206e-17 2.38053e-05 0 0)
(0.00011929 -1.17075e-06 -2.66714e-16 2.46708e-05 0 0)
(0.000120299 -1.14894e-06 -1.94614e-16 2.57313e-05 0 0)
(0.00012114 -1.12733e-06 -9.48677e-17 2.6999e-05 0 0)
(0.000121805 -1.10589e-06 -2.29851e-16 2.84866e-05 0 0)
(0.000122284 -1.08461e-06 -2.17925e-16 3.02072e-05 0 0)
(0.000122569 -1.0635e-06 -3.9465e-16 3.21749e-05 0 0)
(0.00012265 -1.04269e-06 1.47994e-16 3.44044e-05 0 0)
(0.000122518 -1.02249e-06 1.04626e-16 3.69109e-05 0 0)
(0.000122162 -1.00359e-06 2.50451e-16 3.97103e-05 0 0)
(0.000121575 -9.87582e-07 2.94361e-16 4.28187e-05 0 0)
(0.000120753 -9.78152e-07 4.37476e-16 4.62519e-05 0 0)
(0.000119701 -9.84341e-07 -1.9353e-16 5.00256e-05 0 0)
(0.000118448 -1.02984e-06 -5.14996e-16 5.41582e-05 0 0)
(0.000117069 -1.18379e-06 -1.33357e-16 5.87091e-05 0 0)
(0.000115488 9.05205e-08 -8.72783e-17 6.4807e-05 2.55176e-16 0)
(0.000115671 3.31928e-07 1.36609e-16 6.43877e-05 7.22297e-16 0)
(0.000115852 3.06402e-07 5.64869e-16 6.40075e-05 6.5197e-16 0)
(0.000116074 2.31795e-07 1.07878e-16 6.3532e-05 5.43151e-16 0)
(0.000116344 1.44135e-07 -2.84603e-16 6.29331e-05 2.23596e-16 0)
(0.000116666 5.24028e-08 -4.06576e-17 6.22043e-05 2.67387e-16 0)
(0.00011704 -4.07089e-08 1.36609e-16 6.13445e-05 -1.99815e-16 0)
(0.000117467 -1.3434e-07 -7.37257e-17 6.03549e-05 -2.57722e-16 0)
(0.000117946 -2.28212e-07 2.20093e-16 5.92372e-05 1.75861e-16 0)
(0.000118477 -3.22226e-07 -2.90566e-16 5.79932e-05 4.78184e-16 0)
(0.000119059 -4.16333e-07 2.73761e-16 5.66251e-05 -1.51517e-16 0)
(0.00011969 -5.1049e-07 2.41235e-16 5.51353e-05 -7.30142e-17 0)
(0.000120371 -6.04644e-07 -8.67362e-17 5.35262e-05 -3.13707e-16 0)
(0.000121099 -6.98735e-07 -7.10152e-17 5.18003e-05 -3.70136e-16 0)
(0.000121874 -7.92688e-07 -4.71628e-17 4.99605e-05 -1.19737e-16 0)
(0.000122694 -8.8642e-07 -1.37694e-16 4.80096e-05 1.58988e-16 0)
(0.000123558 -9.79839e-07 -1.30646e-16 4.59509e-05 1.79224e-16 0)
(0.000124464 -1.07284e-06 -4.33681e-17 4.37877e-05 3.68281e-16 0)
(0.000125412 -1.16532e-06 -2.05456e-16 4.15234e-05 1.24116e-16 0)
(0.000126399 -1.25714e-06 -1.29562e-16 3.91617e-05 -1.60597e-17 0)
(0.000127424 -1.34818e-06 -3.51282e-16 3.67065e-05 -3.04254e-17 0)
(0.000128485 -1.43829e-06 1.6263e-16 3.41619e-05 8.91587e-17 0)
(0.000129581 -1.52732e-06 -2.1684e-17 3.15321e-05 6.43406e-16 0)
(0.000130709 -1.61511e-06 2.11419e-17 2.88215e-05 5.03697e-16 0)
(0.000131867 -1.70149e-06 1.44199e-16 2.60347e-05 1.53432e-16 0)
(0.000133054 -1.78626e-06 1.09504e-16 2.31765e-05 -1.68475e-16 0)
(0.000134267 -1.86923e-06 2.89482e-16 2.02518e-05 1.14146e-16 0)
(0.000135504 -1.95021e-06 1.33357e-16 1.72657e-05 3.36001e-16 0)
(0.000136764 -2.02899e-06 3.56703e-16 1.42235e-05 2.50552e-17 0)
(0.000138043 -2.10536e-06 3.78929e-16 1.11307e-05 8.10949e-17 0)
(0.000139339 -2.17915e-06 6.72205e-17 7.99275e-06 9.50879e-17 0)
(0.000140651 -2.25021e-06 1.8323e-16 4.81539e-06 2.38779e-16 0)
(0.000141975 -2.31848e-06 -2.22261e-17 1.60436e-06 -2.14452e-16 0)
(0.000143308 -2.38411e-06 2.42861e-16 -1.63456e-06 1.51619e-17 0)
(0.000144649 -2.44757e-06 7.04731e-18 -4.89568e-06 4.35002e-16 0)
(0.000145993 -2.51005e-06 5.09575e-17 -8.17349e-06 2.11267e-16 0)
(0.000147336 -2.57429e-06 3.81639e-16 -1.14627e-05 -2.77827e-18 0)
(0.00014867 -2.64734e-06 3.03035e-16 -1.47571e-05 -3.91566e-16 0)
(0.000149958 -2.75535e-06 -1.19804e-16 -1.80339e-05 -5.14149e-17 0)
(0.000151706 -2.64051e-06 1.15468e-16 -2.24531e-05 1.76657e-16 0)
(0.000152327 -2.70087e-06 2.00577e-17 -2.38886e-05 7.91468e-17 0)
(0.000152931 -2.72626e-06 1.06252e-16 -2.53234e-05 -7.90112e-17 0)
(0.000153528 -2.73529e-06 1.59378e-16 -2.6755e-05 -1.14722e-16 0)
(0.000154118 -2.7359e-06 -1.21431e-16 -2.81815e-05 -6.87621e-17 0)
(0.000154705 -2.73164e-06 1.4962e-16 -2.96014e-05 -1.3749e-16 0)
(0.000155288 -2.72422e-06 -1.64257e-16 -3.10136e-05 -1.78199e-16 0)
(0.000155866 -2.71452e-06 -2.2714e-16 -3.24172e-05 -1.40777e-16 0)
(0.000156441 -2.70298e-06 -1.35525e-16 -3.38113e-05 4.25211e-18 0)
(0.000157012 -2.68984e-06 -4.22839e-17 -3.51954e-05 6.83725e-17 0)
(0.000157578 -2.67524e-06 -5.85469e-17 -3.65685e-05 -1.15942e-16 0)
(0.00015814 -2.65924e-06 5.69206e-17 -3.79302e-05 -1.39269e-16 0)
(0.000158696 -2.64186e-06 1.74557e-16 -3.92798e-05 -1.01627e-16 0)
(0.000159247 -2.62313e-06 2.61835e-16 -4.06165e-05 1.03338e-16 0)
(0.000159793 -2.60303e-06 6.61363e-17 -4.19397e-05 2.72702e-16 0)
(0.000160333 -2.58156e-06 -3.03577e-17 -4.32489e-05 2.02382e-16 0)
(0.000160867 -2.5587e-06 4.28802e-16 -4.45432e-05 3.71153e-16 0)
(0.000161394 -2.53444e-06 2.84603e-16 -4.58221e-05 2.47173e-16 0)
(0.000161915 -2.50877e-06 1.26852e-16 -4.70849e-05 2.6031e-16 0)
(0.000162429 -2.48167e-06 2.39067e-16 -4.83309e-05 2.20059e-16 0)
(0.000162936 -2.45312e-06 -4.33681e-17 -4.95594e-05 2.25302e-16 0)
(0.000163435 -2.42312e-06 -2.29851e-16 -5.07698e-05 1.90481e-16 0)
(0.000163927 -2.39164e-06 1.59378e-16 -5.19613e-05 -3.72779e-17 0)
(0.00016441 -2.35869e-06 2.85145e-16 -5.31333e-05 6.24348e-17 0)
(0.000164886 -2.32425e-06 1.59378e-16 -5.4285e-05 8.23062e-17 0)
(0.000165353 -2.28831e-06 -1.07336e-16 -5.54159e-05 -9.86793e-17 0)
(0.00016581 -2.25086e-06 4.33681e-17 -5.65252e-05 4.79167e-17 0)
(0.000166259 -2.2119e-06 2.23346e-16 -5.76122e-05 8.00023e-17 0)
(0.000166699 -2.17142e-06 6.50521e-18 -5.86763e-05 2.95623e-16 0)
(0.000167129 -2.12941e-06 -5.58364e-17 -5.97167e-05 4.66046e-16 0)
(0.000167549 -2.08586e-06 -2.25514e-16 -6.07328e-05 4.97141e-16 0)
(0.000167958 -2.04079e-06 -1.68593e-16 -6.17239e-05 4.31843e-16 0)
(0.000168358 -1.99418e-06 -5.9089e-17 -6.26893e-05 3.48851e-16 0)
(0.000168746 -1.94604e-06 -2.98156e-17 -6.36283e-05 3.55584e-16 0)
(0.000169124 -1.89637e-06 7.58942e-17 -6.45404e-05 3.37593e-16 0)
(0.00016949 -1.84516e-06 2.25514e-16 -6.54248e-05 4.95209e-16 0)
(0.000169846 -1.79243e-06 9.92045e-17 -6.62809e-05 3.99783e-16 0)
(0.000170189 -1.73819e-06 5.42101e-18 -6.71081e-05 2.93726e-16 0)
(0.00017052 -1.68244e-06 -9.70361e-17 -6.79056e-05 1.80579e-16 0)
(0.00017084 -1.62519e-06 -8.78204e-17 -6.86731e-05 -2.97859e-17 0)
(0.000171147 -1.56646e-06 -8.99888e-17 -6.94097e-05 6.3375e-17 0)
(0.000171441 -1.50627e-06 3.7405e-17 -7.0115e-05 5.56331e-17 0)
(0.000171723 -1.44464e-06 -1.51788e-16 -7.07883e-05 9.63881e-17 0)
(0.000171991 -1.3816e-06 -5.74627e-17 -7.14292e-05 6.00631e-17 0)
(0.000172247 -1.31717e-06 -1.3932e-16 -7.20371e-05 1.0366e-16 0)
(0.000172489 -1.2514e-06 1.9082e-16 -7.26115e-05 -6.43914e-17 0)
(0.000172718 -1.18432e-06 6.61363e-17 -7.3152e-05 -1.90544e-16 0)
(0.000172933 -1.11599e-06 1.22515e-16 -7.36581e-05 -1.88173e-16 0)
(0.000173134 -1.04647e-06 4.33139e-16 -7.41293e-05 -1.74756e-16 0)
(0.000173321 -9.75806e-07 1.94614e-16 -7.45654e-05 -2.90867e-16 0)
(0.000173495 -9.04093e-07 3.46945e-17 -7.49661e-05 -8.6156e-17 0)
(0.000173654 -8.31416e-07 1.02999e-16 -7.5331e-05 1.77305e-16 0)
(0.000173799 -7.57878e-07 2.61835e-16 -7.56599e-05 1.65337e-16 0)
(0.00017393 -6.83601e-07 2.7864e-16 -7.59527e-05 1.29905e-16 0)
(0.000174047 -6.08723e-07 3.10624e-16 -7.62094e-05 -4.28345e-17 0)
(0.00017415 -5.33407e-07 9.75782e-17 -7.64299e-05 -2.72956e-17 0)
(0.000174239 -4.57842e-07 -1.46367e-17 -7.66144e-05 5.11481e-17 0)
(0.000174314 -3.82247e-07 1.40404e-16 -7.67629e-05 2.41574e-17 0)
(0.000174375 -3.06879e-07 1.58294e-16 -7.6876e-05 1.6598e-16 0)
(0.000174423 -2.32036e-07 2.67798e-16 -7.69539e-05 1.94174e-16 0)
(0.000174457 -1.58068e-07 -4.98733e-17 -7.69974e-05 2.92929e-16 0)
(0.000174478 -8.53825e-08 -8.13152e-17 -7.70072e-05 2.27598e-17 0)
(0.000174487 -1.44572e-08 -2.35272e-16 -7.69842e-05 -2.14045e-17 0)
(0.000174483 5.41489e-08 -3.40982e-16 -7.69298e-05 9.0209e-18 0)
(0.000174467 1.19782e-07 -2.43945e-16 -7.68454e-05 -4.53925e-17 0)
(0.00017444 1.81679e-07 -8.13152e-18 -7.67328e-05 4.84079e-17 0)
(0.000174403 2.3895e-07 1.78893e-16 -7.65941e-05 1.03948e-16 0)
(0.000174356 2.90562e-07 -1.11131e-16 -7.64318e-05 2.67154e-17 0)
(0.000174299 3.35323e-07 -1.07878e-16 -7.6249e-05 -3.65071e-17 0)
(0.000174235 3.71869e-07 -7.48099e-17 -7.60492e-05 -1.17246e-16 0)
(0.000174165 3.98665e-07 6.83047e-17 -7.58364e-05 -1.17865e-16 0)
(0.000174089 4.14012e-07 2.50451e-16 -7.56156e-05 -2.34848e-16 0)
(0.00017401 4.16099e-07 1.36067e-16 -7.53924e-05 -2.16332e-17 0)
(0.000173929 4.03102e-07 1.19262e-17 -7.51732e-05 9.28602e-17 0)
(0.00017385 3.73386e-07 4.77049e-17 -7.49655e-05 1.9918e-16 0)
(0.000173776 3.25881e-07 2.49366e-16 -7.4778e-05 1.88321e-16 0)
(0.000173712 2.60747e-07 1.02999e-17 -7.46204e-05 1.09005e-16 0)
(0.000173667 1.80547e-07 1.27936e-16 -7.45039e-05 -2.32841e-16 0)
(0.000173651 9.22633e-08 1.2902e-16 -7.44411e-05 -2.85179e-16 0)
(0.000173497 6.5446e-08 3.95192e-16 -7.43227e-05 1.02466e-16 0)
(0.000173003 1.41531e-07 8.67362e-17 -7.41397e-05 -5.00004e-17 0)
(0.000172359 1.70238e-07 1.02999e-17 -7.39316e-05 -1.55795e-16 0)
(0.000171776 1.65962e-07 -2.1684e-18 -7.37578e-05 -2.28411e-16 0)
(0.000171383 1.41469e-07 2.2714e-16 -7.36607e-05 6.52876e-16 0)
(0.000171253 1.04544e-07 5.74627e-17 -7.36683e-05 1.0632e-16 0)
(0.000171431 5.98533e-08 1.79435e-16 -7.37981e-05 2.65358e-16 0)
(0.000171938 1.03121e-08 8.29415e-17 -7.406e-05 -2.00408e-16 0)
(0.000172784 -4.21917e-08 -4.32597e-16 -7.4459e-05 4.20874e-16 0)
(0.00017397 -9.64031e-08 -8.61941e-17 -7.49967e-05 3.00324e-16 0)
(0.000175495 -1.51479e-07 4.33681e-18 -7.56726e-05 4.59769e-17 0)
(0.000177351 -2.06852e-07 -1.07878e-16 -7.64849e-05 -6.13184e-16 0)
(0.000179531 -2.62148e-07 3.08998e-16 -7.74309e-05 -1.154e-16 0)
(0.000182026 -3.17126e-07 1.24141e-16 -7.85076e-05 -4.13691e-17 0)
(0.000184828 -3.71641e-07 -1.85399e-16 -7.97115e-05 -1.46909e-16 0)
(0.000187926 -4.25621e-07 2.8894e-16 -8.10393e-05 -5.03459e-16 0)
(0.000191313 -4.79039e-07 -1.88109e-16 -8.24876e-05 2.37508e-16 0)
(0.000194981 -5.31908e-07 -2.22804e-16 -8.40533e-05 -1.93733e-16 0)
(0.000198921 -5.84266e-07 9.48677e-17 -8.57334e-05 1.76556e-16 0)
(0.000203127 -6.36171e-07 5.57822e-16 -8.75252e-05 3.33562e-16 0)
(0.000207593 -6.87693e-07 5.80048e-17 -8.94263e-05 1.19432e-17 0)
(0.000212313 -7.38912e-07 3.58329e-16 -9.14343e-05 -9.88996e-17 0)
(0.000217282 -7.89912e-07 2.54788e-17 -9.35474e-05 3.29733e-16 0)
(0.000222497 -8.40784e-07 -1.39862e-16 -9.5764e-05 1.67408e-16 0)
(0.000227953 -8.91617e-07 -8.13152e-17 -9.80825e-05 -3.97157e-16 0)
(0.000233647 -9.42501e-07 2.54788e-17 -0.000100502 4.40118e-17 0)
(0.000239578 -9.93528e-07 -2.50993e-16 -0.000103021 3.17095e-16 0)
(0.000245743 -1.04478e-06 6.12574e-17 -0.000105639 -2.0715e-16 0)
(0.000252142 -1.09636e-06 3.46403e-16 -0.000108357 -3.19162e-16 0)
(0.000258774 -1.14833e-06 2.71051e-16 -0.000111172 -5.5667e-17 0)
(0.000265637 -1.20078e-06 1.8323e-16 -0.000114086 -4.78336e-16 0)
(0.000272733 -1.25379e-06 4.29886e-16 -0.000117098 -2.09048e-16 0)
(0.000280062 -1.30743e-06 -3.00866e-16 -0.000120208 5.23636e-16 0)
(0.000287625 -1.36176e-06 1.41488e-16 -0.000123417 -6.63396e-17 0)
(0.000295423 -1.41686e-06 -2.71051e-18 -0.000126726 2.58786e-16 0)
(0.000303457 -1.47279e-06 -4.87891e-18 -0.000130134 -3.02357e-16 0)
(0.000311729 -1.5296e-06 5.25838e-17 -0.000133643 2.01255e-17 0)
(0.00032024 -1.58736e-06 1.21973e-16 -0.000137253 2.8484e-16 0)
(0.000328993 -1.6461e-06 -8.34836e-17 -0.000140965 6.89824e-17 0)
(0.00033799 -1.70588e-06 -2.81893e-17 -0.000144779 1.42302e-17 0)
(0.000347233 -1.76673e-06 -1.68051e-17 -0.000148697 -2.36356e-16 0)
(0.000356723 -1.8287e-06 -2.39609e-16 -0.00015272 5.01782e-17 0)
(0.000366465 -1.89181e-06 -1.56125e-16 -0.000156848 5.80556e-16 0)
(0.000376459 -1.95611e-06 7.93636e-16 -0.000161082 1.39533e-15 0)
(0.000386707 -2.0216e-06 -3.48029e-16 -0.000165423 1.9022e-15 0)
(0.000397213 -2.0883e-06 9.23198e-16 -0.000169872 1.95021e-16 0)
(0.000407978 -2.15623e-06 1.15468e-16 -0.00017443 -5.58737e-16 0)
(0.000419003 -2.22538e-06 -8.59772e-16 -0.000179097 5.58635e-16 0)
(0.00043029 -2.29575e-06 -1.72442e-15 -0.000183873 -1.21251e-15 0)
(0.000441841 -2.36731e-06 -1.46909e-16 -0.00018876 -4.51943e-16 0)
(0.000453655 -2.44002e-06 7.31294e-16 -0.000193756 -1.29962e-15 0)
(0.000465733 -2.51382e-06 4.22297e-16 -0.000198863 5.31361e-16 0)
(0.000478074 -2.5886e-06 8.48388e-16 -0.000204079 -1.12486e-15 0)
(0.000490677 -2.66423e-06 -1.44199e-16 -0.000209404 -1.6877e-15 0)
(0.000503538 -2.74048e-06 -1.66805e-15 -0.000214835 1.07221e-15 0)
(0.000516653 -2.81706e-06 3.80013e-16 -0.000220372 1.37999e-15 0)
(0.000530014 -2.89349e-06 1.23057e-15 -0.00022601 1.81475e-15 0)
(0.000543611 -2.96907e-06 9.3404e-16 -0.000231745 2.1287e-15 0)
(0.000557428 -3.0427e-06 -5.37222e-16 -0.000237569 4.57669e-16 0)
(0.000571443 -3.11261e-06 -3.49113e-16 -0.000243472 4.17486e-16 0)
(0.000585619 -3.17582e-06 -5.84385e-16 -0.00024944 -8.75697e-16 0)
(0.000599902 -3.22708e-06 5.1337e-16 -0.000255447 1.31168e-15 0)
(0.000614202 -3.25691e-06 -1.05059e-15 -0.000261457 -1.72259e-15 0)
(0.000628375 -3.24874e-06 -2.58582e-16 -0.000267408 2.90634e-16 0)
(0.000642173 -3.17861e-06 -3.28242e-16 -0.000273193 5.19062e-16 0)
(0.00065508 -3.00549e-06 -9.45695e-16 -0.00027852 9.19403e-16 0)
(0.000668305 -1.22049e-06 9.64398e-16 -0.000286984 1.82349e-16 0)
(0.000684956 -1.8396e-07 -7.94449e-16 -0.000299727 6.20706e-16 0)
(0.00070798 6.73315e-07 7.57044e-16 -0.000321708 -9.84998e-16 0)
(0.000735704 3.9429e-07 2.67527e-16 -0.000346278 -2.32724e-15 0)
(0.000765659 2.13479e-08 1.89952e-15 -0.000371689 5.9482e-16 0)
(0.000795563 -6.15622e-07 8.55978e-16 -0.000395541 -8.48388e-17 0)
(0.000823664 -1.43864e-06 9.81474e-16 -0.000416203 -7.84691e-17 0)
(0.000848577 -2.45641e-06 6.85216e-16 -0.000432271 -2.21706e-15 0)
(0.00086929 -3.67518e-06 -1.27719e-15 -0.000442703 1.04246e-15 0)
(0.000884996 -5.10002e-06 3.02221e-16 -0.000446569 -1.40418e-15 0)
(0.000894851 -6.743e-06 -4.43981e-16 -0.000442983 -1.08461e-15 0)
(0.000898294 -8.57162e-06 -4.3097e-17 -0.000431495 1.95224e-15 0)
(0.000895976 -1.06172e-05 5.57009e-16 -0.00041284 -1.60774e-15 0)
(0.000897537 -1.03225e-05 8.98261e-16 -0.000383787 9.50574e-16 0)
(0.000902389 -7.26385e-06 -9.39326e-16 -0.000381895 1.94072e-15 0)
(0.000914525 -3.93621e-06 -1.64311e-15 -0.000386976 6.33716e-16 0)
(0.000925878 -2.89953e-06 -1.62942e-15 -0.000391018 -5.61075e-16 0)
(0.000934077 -2.23152e-06 -7.0297e-16 -0.00039419 -9.41901e-16 0)
(0.000939594 -1.70766e-06 -4.28124e-16 -0.00039638 -1.18937e-15 0)
(0.000942442 -1.20961e-06 7.4051e-16 -0.000397494 -1.09884e-15 0)
(0.000942451 -6.8869e-07 6.31412e-16 -0.000397434 1.43657e-17 0)
(0.000939349 -1.22794e-07 9.26993e-16 -0.000396078 2.59802e-15 0)
(0.000932805 4.99108e-07 3.10353e-17 -0.000393289 1.51002e-15 0)
(0.000922461 1.18173e-06 -4.25143e-16 -0.000388922 4.01426e-16 0)
(0.00090796 1.92466e-06 9.43662e-16 -0.000382833 5.83572e-16 0)
(0.000888981 2.72236e-06 1.94275e-16 -0.000374893 1.15142e-15 0)
(0.000865266 3.56393e-06 -8.31041e-16 -0.000365002 1.96403e-15 0)
(0.000836658 4.43329e-06 2.55465e-17 -0.000353099 1.22786e-15 0)
(0.000803127 5.30992e-06 -1.29427e-16 -0.000339177 -6.68953e-16 0)
(0.0007648 6.17053e-06 -3.32511e-16 -0.00032329 6.94431e-16 0)
(0.000721961 6.99159e-06 3.89737e-16 -0.000305554 7.22621e-16 0)
(0.000675052 7.75204e-06 7.46405e-17 -0.000286148 1.0533e-15 0)
(0.000624643 8.4357e-06 -3.30072e-16 -0.000265302 1.6263e-17 0)
(0.000571398 9.03259e-06 -2.18551e-16 -0.000243283 9.36209e-16 0)
(0.000516033 9.53911e-06 -2.20949e-16 -0.000220381 -5.80048e-16 0)
(0.000459275 9.95715e-06 -3.45301e-16 -0.00019689 2.56414e-16 0)
(0.000401826 1.02927e-05 -6.13379e-16 -0.000173099 -5.46438e-16 0)
(0.000344341 1.05538e-05 -3.89017e-16 -0.000149278 2.58582e-16 0)
(0.000287418 1.07491e-05 -3.40063e-16 -0.000125678 -1.70762e-16 0)
(0.000231592 1.08864e-05 -3.82562e-16 -0.000102525 -2.33646e-16 0)
(0.000177349 1.09713e-05 -2.60996e-16 -8.00286e-05 -7.58942e-17 0)
(0.000125133 1.1007e-05 -3.41727e-16 -5.83816e-05 -7.42678e-17 0)
(7.5365e-05 1.09937e-05 -2.56753e-16 -3.77677e-05 2.49366e-17 0)
(2.84556e-05 1.09295e-05 -2.52755e-16 -1.83657e-05 -2.19551e-16 0)
(-1.51864e-05 1.08103e-05 -2.00086e-16 -3.52965e-07 -1.57209e-16 0)
(-5.5148e-05 1.06309e-05 -1.53584e-16 1.60933e-05 -9.54098e-17 0)
(-9.10137e-05 1.03851e-05 -1.60115e-16 3.07973e-05 -1.95156e-17 0)
(-0.000122372 1.00666e-05 -7.47422e-17 4.35882e-05 -1.51788e-17 0)
(-0.000148826 9.66752e-06 -8.65498e-17 5.43059e-05 2.02204e-16 0)
(-0.000170017 9.17598e-06 2.22346e-17 6.28166e-05 9.86624e-17 0)
(-0.000185724 8.57734e-06 -1.00416e-17 6.90896e-05 6.50521e-17 0)
(-0.000196913 8.00675e-06 9.4963e-17 7.39148e-05 -1.27394e-16 0)
(-0.000166171 3.59829e-05 0 6.78518e-05 -2.50993e-16 0)
(-0.000137096 3.52626e-05 0 5.68739e-05 -1.85399e-16 0)
(-0.00010915 3.47059e-05 0 4.64903e-05 -1.98951e-16 0)
(-8.21512e-05 3.42853e-05 0 3.6618e-05 -1.78893e-16 0)
(-5.59835e-05 3.39762e-05 0 2.72118e-05 -1.58836e-16 0)
(-3.0568e-05 3.37581e-05 0 1.82459e-05 -1.57751e-16 0)
(-5.84744e-06 3.36138e-05 0 9.70446e-06 -1.63715e-16 0)
(1.82219e-05 3.35292e-05 0 1.57608e-06 -1.75641e-16 0)