/*--------------------------------*- C++ -*----------------------------------*\
| =========                 |                                                 |
| \\      /  F ield         | OpenFOAM: The Open Source CFD Toolbox           |
|  \\    /   O peration     | Version:  v2012                                 |
|   \\  /    A nd           | Website:  www.openfoam.com                      |
|    \\/     M anipulation  |                                                 |
\*---------------------------------------------------------------------------*/
FoamFile
{
    version     2.0;
    format      ascii;
    class       volScalarField;
    location    "19";
    object      sigmaHyd;
}
// * * * * * * * * * * * * * * * * * * * * * * * * * * * * * * * * * * * * * //

dimensions      [1 -1 -2 0 0 0 0];


internalField   nonuniform List<scalar> 
32000
(
-8.68416e+07
-7.86195e+07
-7.87834e+07
-7.08504e+07
-7.02363e+07
-6.35629e+07
-6.16102e+07
-5.65744e+07
-5.30988e+07
-4.97934e+07
-4.47912e+07
-4.3175e+07
-3.67266e+07
-3.66992e+07
-2.89181e+07
-3.03557e+07
-2.13661e+07
-2.41404e+07
-1.40659e+07
-1.80525e+07
-7.00648e+06
-1.20946e+07
-184758
-6.26617e+06
6.40543e+06
-566397
1.27709e+07
5.00118e+06
1.89207e+07
1.04349e+07
2.48517e+07
1.57386e+07
3.05628e+07
2.09012e+07
3.60647e+07
2.59144e+07
4.13392e+07
3.07772e+07
4.63745e+07
3.54709e+07
5.11791e+07
3.99775e+07
5.57155e+07
4.4292e+07
5.99651e+07
4.83768e+07
6.39217e+07
5.22091e+07
6.75319e+07
5.57801e+07
7.07852e+07
5.90276e+07
7.3644e+07
6.19474e+07
7.60578e+07
6.44989e+07
7.8052e+07
6.6654e+07
7.95527e+07
6.84237e+07
8.05907e+07
6.97689e+07
8.11501e+07
7.07333e+07
8.1246e+07
7.13127e+07
8.09328e+07
7.15655e+07
8.02151e+07
7.15269e+07
7.91839e+07
7.12495e+07
7.78593e+07
7.07769e+07
7.62989e+07
7.01373e+07
7.45559e+07
6.87656e+07
7.11933e+07
6.64211e+07
-8.8846e+07
-7.83182e+07
-7.97263e+07
-7.0217e+07
-7.09552e+07
-6.25948e+07
-6.24231e+07
-5.53049e+07
-5.40952e+07
-4.82862e+07
-4.59682e+07
-4.14987e+07
-3.80449e+07
-3.49162e+07
-3.03349e+07
-2.85156e+07
-2.28418e+07
-2.22787e+07
-1.55706e+07
-1.61952e+07
-8.52156e+06
-1.0258e+07
-1.69552e+06
-4.46065e+06
4.90995e+06
1.2044e+06
1.12926e+07
6.74239e+06
1.74546e+07
1.21471e+07
2.33904e+07
1.74187e+07
2.9101e+07
2.25583e+07
3.45778e+07
2.75457e+07
3.98158e+07
3.23714e+07
4.48069e+07
3.70281e+07
4.95323e+07
4.14794e+07
5.39817e+07
4.57062e+07
5.81319e+07
4.96926e+07
6.19616e+07
5.3377e+07
6.54541e+07
5.67474e+07
6.85684e+07
5.97619e+07
7.13027e+07
6.23746e+07
7.36262e+07
6.45916e+07
7.55206e+07
6.63569e+07
7.69972e+07
6.77076e+07
7.80303e+07
6.8626e+07
7.86544e+07
6.91719e+07
7.887e+07
6.93699e+07
7.87193e+07
6.92888e+07
7.82338e+07
6.89865e+07
7.74585e+07
6.85231e+07
7.64456e+07
6.79666e+07
7.5275e+07
6.74107e+07
7.3234e+07
6.64585e+07
7.03993e+07
6.48704e+07
-8.84124e+07
-7.73609e+07
-7.96808e+07
-6.90635e+07
-7.11187e+07
-6.12207e+07
-6.27673e+07
-5.37371e+07
-5.46177e+07
-4.65579e+07
-4.66611e+07
-3.96478e+07
-3.88919e+07
-3.29743e+07
-3.13092e+07
-2.65146e+07
-2.39203e+07
-2.02486e+07
-1.67299e+07
-1.41585e+07
-9.74332e+06
-8.22658e+06
-2.96136e+06
-2.44358e+06
3.61004e+06
3.19984e+06
9.96094e+06
8.70947e+06
1.60858e+07
1.40889e+07
2.19824e+07
1.93264e+07
2.76374e+07
2.44155e+07
3.30419e+07
2.93511e+07
3.81872e+07
3.41035e+07
4.30626e+07
3.86464e+07
4.76465e+07
4.2967e+07
5.19271e+07
4.70116e+07
5.5887e+07
5.07441e+07
5.94988e+07
5.41418e+07
6.27651e+07
5.71328e+07
6.5651e+07
5.97139e+07
6.81482e+07
6.18336e+07
7.02625e+07
6.3497e+07
7.19719e+07
6.47071e+07
7.33067e+07
6.54872e+07
7.42539e+07
6.58912e+07
7.48603e+07
6.59645e+07
7.5126e+07
6.5786e+07
7.51009e+07
6.54136e+07
7.48029e+07
6.49223e+07
7.42644e+07
6.43676e+07
7.34941e+07
6.38016e+07
7.24511e+07
6.32253e+07
7.08883e+07
6.25893e+07
6.84277e+07
6.15487e+07
-8.77147e+07
-7.58199e+07
-7.92017e+07
-6.74862e+07
-7.0847e+07
-5.95314e+07
-6.26785e+07
-5.19244e+07
-5.47001e+07
-4.46337e+07
-4.69043e+07
-3.76266e+07
-3.92881e+07
-3.08773e+07
-3.18517e+07
-2.43615e+07
-2.45965e+07
-1.80583e+07
-1.75253e+07
-1.19456e+07
-1.06447e+07
-6.00483e+06
-3.96221e+06
-218522
2.51178e+06
5.41891e+06
8.7697e+06
1.09113e+07
1.47954e+07
1.62537e+07
2.05763e+07
2.14458e+07
2.61026e+07
2.64675e+07
3.13644e+07
3.12934e+07
3.63371e+07
3.59022e+07
4.1009e+07
4.02599e+07
4.53742e+07
4.43128e+07
4.93981e+07
4.80328e+07
5.30799e+07
5.13635e+07
5.64069e+07
5.42544e+07
5.93527e+07
5.66928e+07
6.19446e+07
5.86234e+07
6.41475e+07
6.00864e+07
6.60017e+07
6.10635e+07
6.74941e+07
6.1636e+07
6.86612e+07
6.18313e+07
6.95171e+07
6.17523e+07
7.0092e+07
6.14465e+07
7.04103e+07
6.10062e+07
7.04942e+07
6.04818e+07
7.0362e+07
5.99318e+07
7.00219e+07
5.93759e+07
6.94699e+07
5.88405e+07
6.87611e+07
5.83128e+07
6.80053e+07
5.79446e+07
6.61396e+07
5.74574e+07
-8.68174e+07
-7.39068e+07
-7.84093e+07
-6.55831e+07
-7.02132e+07
-5.75782e+07
-6.22118e+07
-4.98964e+07
-5.43938e+07
-4.2522e+07
-4.67561e+07
-3.54366e+07
-3.92968e+07
-2.86194e+07
-3.20173e+07
-2.20481e+07
-2.49169e+07
-1.5698e+07
-1.79988e+07
-9.54629e+06
-1.12685e+07
-3.57735e+06
-4.73797e+06
2.22191e+06
1.57898e+06
7.85482e+06
7.66506e+06
1.3324e+07
1.35087e+07
1.86214e+07
1.90985e+07
2.3727e+07
2.44118e+07
2.86147e+07
2.94272e+07
3.32637e+07
3.41423e+07
3.76224e+07
3.85316e+07
4.16395e+07
4.25714e+07
4.5284e+07
4.62737e+07
4.8483e+07
4.96085e+07
5.11985e+07
5.25754e+07
5.34057e+07
5.51916e+07
5.50778e+07
5.74375e+07
5.62576e+07
5.93661e+07
5.69602e+07
6.09553e+07
5.72779e+07
6.22717e+07
5.72697e+07
6.33062e+07
5.70281e+07
6.41126e+07
5.66372e+07
6.46948e+07
5.6154e+07
6.5087e+07
5.56412e+07
6.52922e+07
5.51311e+07
6.53286e+07
5.46431e+07
6.52005e+07
5.41828e+07
6.49438e+07
5.37544e+07
6.4562e+07
5.33839e+07
6.39241e+07
5.29574e+07
6.3324e+07
5.26919e+07
-8.55874e+07
-7.17773e+07
-7.72816e+07
-6.34583e+07
-6.92277e+07
-5.54258e+07
-6.13823e+07
-4.76892e+07
-5.37279e+07
-4.02473e+07
-4.62591e+07
-3.30907e+07
-3.89754e+07
-2.62025e+07
-3.18733e+07
-1.95626e+07
-2.49534e+07
-1.31498e+07
-1.82225e+07
-6.94659e+06
-1.16913e+07
-943180
-5.37656e+06
4.86674e+06
707838
1.04866e+07
6.55213e+06
1.59036e+07
1.21356e+07
2.10983e+07
1.7438e+07
2.60409e+07
2.24399e+07
3.07051e+07
2.7135e+07
3.50343e+07
3.14971e+07
3.8973e+07
3.5508e+07
4.24816e+07
3.91784e+07
4.54866e+07
4.24833e+07
4.79524e+07
4.54318e+07
4.98625e+07
4.80384e+07
5.12153e+07
5.03026e+07
5.20697e+07
5.2269e+07
5.24805e+07
5.39398e+07
5.2546e+07
5.53607e+07
5.23632e+07
5.65539e+07
5.20096e+07
5.75343e+07
5.15817e+07
5.8347e+07
5.11225e+07
5.89859e+07
5.06712e+07
5.9477e+07
5.02532e+07
5.98223e+07
4.9873e+07
6.00394e+07
4.95249e+07
6.01314e+07
4.92083e+07
6.01137e+07
4.89127e+07
5.99568e+07
4.86187e+07
5.97992e+07
4.83825e+07
5.94542e+07
4.81332e+07
-8.39097e+07
-6.95213e+07
-7.57582e+07
-6.11943e+07
-6.78621e+07
-5.31345e+07
-6.01867e+07
-4.53498e+07
-5.27168e+07
-3.78425e+07
-4.54458e+07
-3.06073e+07
-3.83675e+07
-2.36332e+07
-3.14784e+07
-1.69069e+07
-2.47831e+07
-1.0418e+07
-1.8295e+07
-4.15984e+06
-1.20279e+07
1.87209e+06
-5.99321e+06
7.67386e+06
-207236
1.32326e+07
5.31223e+06
1.85251e+07
1.05459e+07
2.35182e+07
1.54773e+07
2.81773e+07
2.00956e+07
3.24453e+07
2.43795e+07
3.62624e+07
2.83159e+07
3.95758e+07
3.19088e+07
4.23248e+07
3.51504e+07
4.44731e+07
3.80464e+07
4.60316e+07
4.06239e+07
4.70235e+07
4.2887e+07
4.75418e+07
4.48823e+07
4.76724e+07
4.66218e+07
4.75297e+07
4.81391e+07
4.72282e+07
4.94711e+07
4.6838e+07
5.0619e+07
4.6436e+07
5.16219e+07
4.60601e+07
5.24824e+07
4.57252e+07
5.32053e+07
4.54363e+07
5.38075e+07
4.51932e+07
5.42955e+07
4.49793e+07
5.46779e+07
4.47802e+07
5.49531e+07
4.46026e+07
5.51382e+07
4.44239e+07
5.52828e+07
4.42639e+07
5.53046e+07
4.41069e+07
5.52745e+07
4.39697e+07
-8.17231e+07
-6.71716e+07
-7.37853e+07
-5.88335e+07
-6.60898e+07
-5.07454e+07
-5.8625e+07
-4.29115e+07
-5.13827e+07
-3.53316e+07
-4.43517e+07
-2.80058e+07
-3.75239e+07
-2.09323e+07
-3.09013e+07
-1.41115e+07
-2.4495e+07
-7.54648e+06
-1.83174e+07
-1.2442e+06
-1.23813e+07
4.78379e+06
-6.70144e+06
1.05159e+07
-1.2951e+06
1.59236e+07
3.82108e+06
2.09699e+07
8.63241e+06
2.56084e+07
1.31253e+07
2.9785e+07
1.7287e+07
3.34371e+07
2.11078e+07
3.64982e+07
2.45853e+07
3.8929e+07
2.77319e+07
4.07056e+07
3.05517e+07
4.18714e+07
3.30836e+07
4.24888e+07
3.53351e+07
4.26899e+07
3.73564e+07
4.25861e+07
3.9158e+07
4.23082e+07
4.07727e+07
4.19658e+07
4.22311e+07
4.16163e+07
4.35357e+07
4.13068e+07
4.47009e+07
4.10633e+07
4.5749e+07
4.08806e+07
4.66747e+07
4.07456e+07
4.74855e+07
4.06441e+07
4.81944e+07
4.0567e+07
4.88063e+07
4.04951e+07
4.93252e+07
4.04294e+07
4.97741e+07
4.03584e+07
5.01505e+07
4.02972e+07
5.04434e+07
4.02299e+07
5.06934e+07
4.01632e+07
5.08651e+07
4.01058e+07
-7.90171e+07
-6.47121e+07
-7.13439e+07
-5.63754e+07
-6.39061e+07
-4.82689e+07
-5.67083e+07
-4.03887e+07
-4.97462e+07
-3.27358e+07
-4.30094e+07
-2.53181e+07
-3.64955e+07
-1.81487e+07
-3.02124e+07
-1.12453e+07
-2.41711e+07
-4.63135e+06
-1.83817e+07
1.66559e+06
-1.28573e+07
7.61011e+06
-7.61073e+06
1.31621e+07
-2.65659e+06
1.82746e+07
1.9906e+06
2.2892e+07
6.31606e+06
2.69577e+07
1.03158e+07
3.04046e+07
1.3982e+07
3.31731e+07
1.73164e+07
3.52298e+07
2.03396e+07
3.65987e+07
2.3072e+07
3.73507e+07
2.55421e+07
3.76168e+07
2.7781e+07
3.755e+07
2.98246e+07
3.72893e+07
3.16853e+07
3.69689e+07
3.33947e+07
3.66706e+07
3.49673e+07
3.64314e+07
3.64064e+07
3.62706e+07
3.77191e+07
3.61921e+07
3.89227e+07
3.61748e+07
4.00152e+07
3.61977e+07
4.10009e+07
3.62401e+07
4.1887e+07
3.62867e+07
4.26869e+07
3.63331e+07
4.34055e+07
3.63733e+07
4.40498e+07
3.64068e+07
4.46303e+07
3.64293e+07
4.51356e+07
3.64499e+07
4.55867e+07
3.64643e+07
4.59773e+07
3.64795e+07
4.63292e+07
3.64893e+07
-7.58282e+07
-6.20847e+07
-6.84696e+07
-5.3778e+07
-6.13495e+07
-4.56713e+07
-5.44798e+07
-3.77633e+07
-4.78585e+07
-3.00593e+07
-4.14823e+07
-2.25807e+07
-3.53565e+07
-1.53583e+07
-2.94909e+07
-8.43199e+06
-2.38932e+07
-1.85014e+06
-1.85714e+07
4.33101e+06
-1.3534e+07
1.00534e+07
-8.79121e+06
1.52533e+07
-4.35409e+06
1.98646e+07
-232847
2.38175e+07
3.56248e+06
2.70421e+07
7.03613e+06
2.94868e+07
1.02007e+07
3.11495e+07
1.30771e+07
3.20943e+07
1.57052e+07
3.24617e+07
1.81081e+07
3.24322e+07
2.0335e+07
3.2183e+07
2.23962e+07
3.18728e+07
2.43156e+07
3.16069e+07
2.61114e+07
3.14309e+07
2.77827e+07
3.13576e+07
2.93351e+07
3.13787e+07
3.07722e+07
3.14786e+07
3.21025e+07
3.16271e+07
3.33301e+07
3.17983e+07
3.44586e+07
3.19711e+07
3.54927e+07
3.21326e+07
3.64413e+07
3.22804e+07
3.73198e+07
3.24181e+07
3.81271e+07
3.25399e+07
3.88673e+07
3.26485e+07
3.95386e+07
3.27454e+07
4.01637e+07
3.28261e+07
4.07264e+07
3.29123e+07
4.12458e+07
3.2988e+07
4.17136e+07
3.307e+07
-7.22475e+07
-5.91978e+07
-6.52452e+07
-5.09538e+07
-5.84994e+07
-4.2887e+07
-5.20143e+07
-3.50001e+07
-4.57943e+07
-2.73121e+07
-3.98455e+07
-1.98588e+07
-3.41788e+07
-1.26917e+07
-2.88021e+07
-5.87478e+06
-2.37192e+07
516112
-1.89329e+07
6.40038e+06
-1.44487e+07
1.16912e+07
-1.02732e+07
1.63055e+07
-6.41084e+06
2.01568e+07
-2.86363e+06
2.31661e+07
375188
2.52892e+07
3.32826e+06
2.65644e+07
6.03738e+06
2.71286e+07
8.53941e+06
2.71855e+07
1.08803e+07
2.69643e+07
1.30839e+07
2.66662e+07
1.51657e+07
2.6426e+07
1.71413e+07
2.63065e+07
1.90075e+07
2.63192e+07
2.076e+07
2.64482e+07
2.24032e+07
2.66639e+07
2.39388e+07
2.69407e+07
2.53731e+07
2.72425e+07
2.67085e+07
2.75447e+07
2.79501e+07
2.78312e+07
2.91038e+07
2.80927e+07
3.01774e+07
2.83308e+07
3.11782e+07
2.85533e+07
3.21162e+07
2.87539e+07
3.29869e+07
2.89364e+07
3.37957e+07
2.91008e+07
3.45493e+07
2.92494e+07
3.52508e+07
2.93898e+07
3.59095e+07
2.95236e+07
3.65181e+07
2.96612e+07
3.70889e+07
2.9793e+07
-6.84077e+07
-5.59473e+07
-6.17998e+07
-4.78043e+07
-5.54683e+07
-3.984e+07
-4.94157e+07
-3.20659e+07
-4.36492e+07
-2.45187e+07
-3.81854e+07
-1.72501e+07
-3.30357e+07
-1.03302e+07
-2.82025e+07
-3.84294e+06
-2.36869e+07
2.11243e+06
-1.94909e+07
7.43187e+06
-1.56152e+07
1.20128e+07
-1.20609e+07
1.57463e+07
-8.82368e+06
1.8537e+07
-5.88068e+06
2.03579e+07
-3.18288e+06
2.12998e+07
-681980
2.15738e+07
1.68011e+06
2.1463e+07
3.93784e+06
2.12252e+07
6.11665e+06
2.10389e+07
8.21926e+06
2.09976e+07
1.02336e+07
2.1121e+07
1.2149e+07
2.13791e+07
1.39624e+07
2.17327e+07
1.56758e+07
2.21434e+07
1.72904e+07
2.25834e+07
1.8807e+07
2.30198e+07
2.02268e+07
2.34344e+07
2.15571e+07
2.38183e+07
2.28043e+07
2.41654e+07
2.39767e+07
2.44835e+07
2.50791e+07
2.47806e+07
2.61149e+07
2.50498e+07
2.70909e+07
2.52951e+07
2.8004e+07
2.55186e+07
2.88663e+07
2.57234e+07
2.96764e+07
2.59179e+07
3.04379e+07
2.61007e+07
3.11605e+07
2.6279e+07
3.18404e+07
2.64563e+07
3.24827e+07
2.66311e+07
-6.44686e+07
-5.22465e+07
-5.82815e+07
-4.42574e+07
-5.23913e+07
-3.64869e+07
-4.68028e+07
-2.89649e+07
-4.15281e+07
-2.17467e+07
-3.65865e+07
-1.48958e+07
-3.19828e+07
-8.4997e+06
-2.77274e+07
-2.65614e+06
-2.38214e+07
2.52791e+06
-2.02655e+07
6.9428e+06
-1.70575e+07
1.04597e+07
-1.41794e+07
1.29707e+07
-1.15836e+07
1.44676e+07
-9.20234e+06
1.5126e+07
-6.94967e+06
1.52433e+07
-4.76005e+06
1.516e+07
-2.59718e+06
1.51199e+07
-460290
1.52467e+07
1.63098e+06
1.55666e+07
3.6565e+06
1.60349e+07
5.59987e+06
1.65897e+07
7.45491e+06
1.71865e+07
9.21992e+06
1.77936e+07
1.08918e+07
1.83924e+07
1.24662e+07
1.8954e+07
1.39497e+07
1.94697e+07
1.53481e+07
1.99385e+07
1.66666e+07
2.03595e+07
1.79149e+07
2.07481e+07
1.90968e+07
2.11108e+07
2.02106e+07
2.14365e+07
2.12658e+07
2.17371e+07
2.22599e+07
2.20083e+07
2.32043e+07
2.22608e+07
2.40994e+07
2.25006e+07
2.49455e+07
2.2725e+07
2.57493e+07
2.2943e+07
2.65117e+07
2.31516e+07
2.7241e+07
2.33584e+07
2.7935e+07
2.35627e+07
-6.05912e+07
-4.80701e+07
-5.4837e+07
-4.03106e+07
-4.94022e+07
-3.28592e+07
-4.42929e+07
-2.57731e+07
-3.95257e+07
-1.91215e+07
-3.5117e+07
-1.29853e+07
-3.10834e+07
-7.45479e+06
-2.74321e+07
-2.62966e+06
-2.41763e+07
1.3913e+06
-2.13179e+07
4.47266e+06
-1.88252e+07
6.50632e+06
-1.66236e+07
7.54282e+06
-1.45963e+07
7.8942e+06
-1.26183e+07
7.94741e+06
-1.06205e+07
8.0849e+06
-8.58277e+06
8.46185e+06
-6.52388e+06
9.10062e+06
-4.4783e+06
9.93682e+06
-2.48262e+06
1.08619e+07
-554270
1.17939e+07
1.30507e+06
1.26917e+07
3.08846e+06
1.35365e+07
4.79063e+06
1.43221e+07
6.40119e+06
1.50224e+07
7.92776e+06
1.56461e+07
9.37543e+06
1.62021e+07
1.07479e+07
1.66922e+07
1.20575e+07
1.71429e+07
1.33018e+07
1.75622e+07
1.44744e+07
1.7933e+07
1.55895e+07
1.82788e+07
1.66423e+07
1.85877e+07
1.76483e+07
1.8879e+07
1.86058e+07
1.91557e+07
1.95136e+07
1.94128e+07
2.03816e+07
1.96634e+07
2.1204e+07
1.98987e+07
2.19924e+07
2.0131e+07
2.27521e+07
2.03564e+07
2.34813e+07
2.05822e+07
-5.69059e+07
-4.34945e+07
-5.15837e+07
-3.60759e+07
-4.66029e+07
-2.91073e+07
-4.19751e+07
-2.26697e+07
-3.77194e+07
-1.68492e+07
-3.38607e+07
-1.17379e+07
-3.04263e+07
-7.43308e+06
-2.7436e+07
-4.01204e+06
-2.49059e+07
-1.64354e+06
-2.27953e+07
-400474
-2.09856e+07
-99932.7
-1.92894e+07
-212781
-1.75659e+07
-265884
-1.57418e+07
165746
-1.38409e+07
1.06061e+06
-1.1899e+07
2.31093e+06
-9.96165e+06
3.7598e+06
-8.06442e+06
5.24058e+06
-6.21097e+06
6.65303e+06
-4.3996e+06
7.95897e+06
-2.64017e+06
9.14103e+06
-944348
1.01985e+07
669547
1.1102e+07
2.21453e+06
1.18851e+07
3.69097e+06
1.25634e+07
5.09894e+06
1.31446e+07
6.45242e+06
1.36729e+07
7.73975e+06
1.41555e+07
8.95264e+06
1.45684e+07
1.01139e+07
1.49541e+07
1.12084e+07
1.52912e+07
1.22608e+07
1.56117e+07
1.32636e+07
1.59146e+07
1.42144e+07
1.61936e+07
1.51286e+07
1.64675e+07
1.59942e+07
1.67213e+07
1.68269e+07
1.69693e+07
1.76305e+07
1.72103e+07
1.84061e+07
1.74494e+07
1.91567e+07
1.76909e+07
-5.34857e+07
-3.8722e+07
-4.85868e+07
-3.18e+07
-4.40573e+07
-2.55046e+07
-3.99195e+07
-1.99372e+07
-3.62092e+07
-1.52037e+07
-3.29635e+07
-1.14101e+07
-3.02242e+07
-8.65388e+06
-2.80205e+07
-7.1395e+06
-2.62764e+07
-6.96509e+06
-2.48058e+07
-7.70295e+06
-2.33462e+07
-8.48576e+06
-2.17726e+07
-8.76909e+06
-2.00217e+07
-8.18098e+06
-1.8233e+07
-6.93555e+06
-1.6427e+07
-5.2087e+06
-1.46428e+07
-3.25777e+06
-1.29065e+07
-1.28544e+06
-1.12007e+07
631031
-9.51136e+06
2.44915e+06
-7.84767e+06
4.11598e+06
-6.22278e+06
5.60724e+06
-4.66248e+06
6.85842e+06
-3.14177e+06
7.93213e+06
-1.6727e+06
8.84698e+06
-258170
9.60664e+06
1.11987e+06
1.02818e+07
2.43367e+06
1.08726e+07
3.67e+06
1.13528e+07
4.86666e+06
1.17962e+07
5.98971e+06
1.21647e+07
7.08005e+06
1.25127e+07
8.11793e+06
1.28345e+07
9.10101e+06
1.31216e+07
1.00523e+07
1.34039e+07
1.09489e+07
1.36588e+07
1.1816e+07
1.39091e+07
1.26481e+07
1.41522e+07
1.34541e+07
1.43932e+07
1.42353e+07
1.46375e+07
1.49839e+07
1.48775e+07
-5.03418e+07
-3.40659e+07
-4.58698e+07
-2.78333e+07
-4.18191e+07
-2.24159e+07
-3.8239e+07
-1.79457e+07
-3.51903e+07
-1.45586e+07
-3.27306e+07
-1.2337e+07
-3.08945e+07
-1.17142e+07
-2.95506e+07
-1.25922e+07
-2.83507e+07
-1.44328e+07
-2.69596e+07
-1.58781e+07
-2.53516e+07
-1.64734e+07
-2.35264e+07
-1.57578e+07
-2.1731e+07
-1.43917e+07
-1.99785e+07
-1.2655e+07
-1.83466e+07
-1.07368e+07
-1.6806e+07
-8.70594e+06
-1.52873e+07
-6.58001e+06
-1.37804e+07
-4.40188e+06
-1.23008e+07
-2.2375e+06
-1.08463e+07
-187082
-9.44371e+06
1.60754e+06
-8.02778e+06
3.19125e+06
-6.63368e+06
4.53787e+06
-5.2727e+06
5.67505e+06
-3.91143e+06
6.66988e+06
-2.60562e+06
7.51113e+06
-1.37127e+06
8.1531e+06
-150410
8.73218e+06
986385
9.1822e+06
2.10959e+06
9.59273e+06
3.1763e+06
9.9495e+06
4.18463e+06
1.02501e+07
5.16851e+06
1.05398e+07
6.08653e+06
1.07872e+07
6.98063e+06
1.10282e+07
7.83589e+06
1.12567e+07
8.66496e+06
1.1482e+07
9.4689e+06
1.17111e+07
1.02354e+07
1.19337e+07
1.09755e+07
1.21551e+07
-4.74573e+07
-2.98895e+07
-4.34705e+07
-2.45635e+07
-4.00135e+07
-2.02813e+07
-3.71758e+07
-1.72014e+07
-3.50242e+07
-1.54774e+07
-3.36276e+07
-1.56161e+07
-3.26181e+07
-1.78324e+07
-3.1501e+07
-2.04189e+07
-2.95624e+07
-2.11595e+07
-2.69956e+07
-1.99918e+07
-2.48535e+07
-1.84317e+07
-2.28334e+07
-1.67813e+07
-2.10787e+07
-1.52111e+07
-1.9413e+07
-1.3685e+07
-1.77611e+07
-1.21739e+07
-1.62313e+07
-1.07112e+07
-1.48844e+07
-9.30654e+06
-1.36862e+07
-7.92216e+06
-1.2601e+07
-6.50142e+06
-1.15298e+07
-4.87537e+06
-1.05856e+07
-3.16343e+06
-9.74457e+06
-1.44566e+06
-8.82089e+06
290835
-7.78493e+06
1.9318e+06
-6.73563e+06
3.32057e+06
-5.70401e+06
4.42609e+06
-4.5867e+06
5.34784e+06
-3.54675e+06
6.05157e+06
-2.46249e+06
6.66618e+06
-1.42503e+06
7.16565e+06
-434202
7.55074e+06
555984
7.9001e+06
1.46994e+06
8.16868e+06
2.37677e+06
8.41544e+06
3.24235e+06
8.63117e+06
4.08617e+06
8.83273e+06
4.9066e+06
9.03273e+06
5.68336e+06
9.22002e+06
6.43309e+06
9.40356e+06
7.16966e+06
9.59374e+06
-4.48708e+07
-2.65386e+07
-4.15295e+07
-2.24391e+07
-3.88806e+07
-1.97096e+07
-3.70044e+07
-1.84159e+07
-3.5872e+07
-1.99996e+07
-3.47957e+07
-2.32363e+07
-3.21781e+07
-2.40522e+07
-2.90435e+07
-2.26495e+07
-2.69366e+07
-2.10369e+07
-2.52922e+07
-1.95214e+07
-2.37508e+07
-1.79995e+07
-2.22116e+07
-1.65127e+07
-2.06673e+07
-1.50773e+07
-1.9156e+07
-1.36861e+07
-1.76925e+07
-1.23467e+07
-1.62738e+07
-1.10713e+07
-1.48998e+07
-9.85792e+06
-1.35672e+07
-8.69359e+06
-1.22602e+07
-7.55954e+06
-1.10055e+07
-6.46825e+06
-9.77936e+06
-5.36202e+06
-8.73262e+06
-4.2754e+06
-7.99812e+06
-3.24789e+06
-7.39494e+06
-2.11614e+06
-6.78173e+06
-749439
-6.35623e+06
497098
-5.92167e+06
1.76604e+06
-5.27445e+06
2.92694e+06
-4.59136e+06
3.85689e+06
-3.88477e+06
4.59817e+06
-3.07486e+06
5.17951e+06
-2.32268e+06
5.60232e+06
-1.52328e+06
5.96615e+06
-747893
6.25515e+06
33937.3
6.49033e+06
812262
6.6964e+06
1.54972e+06
6.86703e+06
2.26969e+06
7.0173e+06
2.98608e+06
7.16272e+06
3.69922e+06
7.31109e+06
-4.27294e+07
-2.44493e+07
-4.01792e+07
-2.21445e+07
-3.83358e+07
-2.16548e+07
-3.70579e+07
-2.44832e+07
-3.41324e+07
-2.61659e+07
-3.03484e+07
-2.47297e+07
-2.85711e+07
-2.3278e+07
-2.71839e+07
-2.17932e+07
-2.57805e+07
-2.03351e+07
-2.43423e+07
-1.89211e+07
-2.29442e+07
-1.75347e+07
-2.15588e+07
-1.61825e+07
-2.01827e+07
-1.48718e+07
-1.88298e+07
-1.36058e+07
-1.7504e+07
-1.23878e+07
-1.62038e+07
-1.12202e+07
-1.4932e+07
-1.01011e+07
-1.36933e+07
-9.02554e+06
-1.24934e+07
-7.99256e+06
-1.13257e+07
-7.00154e+06
-1.0219e+07
-6.06092e+06
-9.16581e+06
-5.18581e+06
-8.14129e+06
-4.36052e+06
-7.17118e+06
-3.55766e+06
-6.27782e+06
-2.77879e+06
-5.38717e+06
-1.92155e+06
-4.8407e+06
-1.1749e+06
-4.45935e+06
-331303
-4.11369e+06
642373
-3.92036e+06
1.46943e+06
-3.74427e+06
2.3143e+06
-3.3839e+06
3.04961e+06
-2.98684e+06
3.63704e+06
-2.51234e+06
4.12645e+06
-1.97274e+06
4.50377e+06
-1.4371e+06
4.76867e+06
-884667
4.97929e+06
-304852
5.15882e+06
294286
5.31163e+06
926595
5.45913e+06
-4.09489e+07
-2.44626e+07
-3.86326e+07
-2.46552e+07
-3.59782e+07
-2.75531e+07
-3.15267e+07
-2.66011e+07
-2.96145e+07
-2.51452e+07
-2.84037e+07
-2.37015e+07
-2.7124e+07
-2.23108e+07
-2.58798e+07
-2.09449e+07
-2.46293e+07
-1.96087e+07
-2.33672e+07
-1.83086e+07
-2.21146e+07
-1.70413e+07
-2.08709e+07
-1.58081e+07
-1.9637e+07
-1.46121e+07
-1.84176e+07
-1.34555e+07
-1.72159e+07
-1.23395e+07
-1.60345e+07
-1.12648e+07
-1.48772e+07
-1.02311e+07
-1.37491e+07
-9.23782e+06
-1.26533e+07
-8.28522e+06
-1.15923e+07
-7.37636e+06
-1.05669e+07
-6.51379e+06
-9.57024e+06
-5.69712e+06
-8.6071e+06
-4.92283e+06
-7.68887e+06
-4.18646e+06
-6.81035e+06
-3.48268e+06
-6.01729e+06
-2.83031e+06
-5.22676e+06
-2.23243e+06
-4.51078e+06
-1.66577e+06
-3.87545e+06
-1.12365e+06
-3.22608e+06
-509003
-2.80889e+06
28342.6
-2.52146e+06
655003
-2.32905e+06
1.25902e+06
-2.23515e+06
1.76671e+06
-2.16394e+06
2.26871e+06
-2.01556e+06
2.74192e+06
-1.77945e+06
3.13762e+06
-1.48757e+06
3.48813e+06
-1.11335e+06
3.79729e+06
-704459
4.05759e+06
-3.81156e+07
-2.76218e+07
-3.34632e+07
-2.84151e+07
-3.02754e+07
-2.67614e+07
-2.89976e+07
-2.5317e+07
-2.79053e+07
-2.39383e+07
-2.68279e+07
-2.2607e+07
-2.57261e+07
-2.13232e+07
-2.46222e+07
-2.00744e+07
-2.35115e+07
-1.88573e+07
-2.23927e+07
-1.76721e+07
-2.12737e+07
-1.65178e+07
-2.01579e+07
-1.53945e+07
-1.9048e+07
-1.43035e+07
-1.79474e+07
-1.3246e+07
-1.68596e+07
-1.22227e+07
-1.57881e+07
-1.12343e+07
-1.47362e+07
-1.02814e+07
-1.37078e+07
-9.3643e+06
-1.27054e+07
-8.48389e+06
-1.173e+07
-7.64108e+06
-1.07825e+07
-6.83605e+06
-9.86378e+06
-6.06875e+06
-8.97728e+06
-5.33879e+06
-8.12725e+06
-4.64546e+06
-7.31781e+06
-3.99143e+06
-6.54302e+06
-3.37597e+06
-5.79597e+06
-2.80067e+06
-5.08991e+06
-2.25993e+06
-4.42215e+06
-1.74401e+06
-3.83152e+06
-1.26372e+06
-3.2491e+06
-826194
-2.74427e+06
-427061
-2.30482e+06
-52594.4
-1.88162e+06
349106
-1.52213e+06
757529
-1.26836e+06
1.17502e+06
-1.08565e+06
1.5995e+06
-968056
1.96634e+06
-867744
2.34981e+06
-763156
2.74692e+06
-3.08154e+07
-2.83901e+07
-2.90056e+07
-2.66558e+07
-2.81412e+07
-2.51844e+07
-2.72028e+07
-2.38727e+07
-2.62739e+07
-2.26391e+07
-2.53368e+07
-2.14523e+07
-2.43793e+07
-2.03022e+07
-2.34076e+07
-1.9181e+07
-2.24237e+07
-1.80857e+07
-2.14298e+07
-1.70156e+07
-2.04304e+07
-1.59705e+07
-1.94296e+07
-1.4951e+07
-1.84306e+07
-1.39578e+07
-1.74369e+07
-1.29921e+07
-1.64519e+07
-1.20548e+07
-1.54788e+07
-1.11466e+07
-1.45209e+07
-1.02685e+07
-1.35808e+07
-9.42098e+06
-1.2661e+07
-8.60471e+06
-1.17631e+07
-7.82008e+06
-1.0889e+07
-7.06738e+06
-1.00403e+07
-6.34689e+06
-9.21915e+06
-5.65881e+06
-8.42767e+06
-5.00336e+06
-7.66582e+06
-4.38036e+06
-6.93417e+06
-3.78929e+06
-6.23172e+06
-3.23008e+06
-5.56253e+06
-2.7012e+06
-4.932e+06
-2.20327e+06
-4.33678e+06
-1.73532e+06
-3.76904e+06
-1.30032e+06
-3.23281e+06
-894018
-2.72861e+06
-507097
-2.27156e+06
-136561
-1.84606e+06
211837
-1.44964e+06
534597
-1.104e+06
836446
-788120
1.13401e+06
-487559
1.44812e+06
-163206
1.81935e+06
-2.68871e+07
-2.58756e+07
-2.66033e+07
-2.46219e+07
-2.60714e+07
-2.34664e+07
-2.53999e+07
-2.23762e+07
-2.46614e+07
-2.13239e+07
-2.38794e+07
-2.02958e+07
-2.30627e+07
-1.92866e+07
-2.22197e+07
-1.82941e+07
-2.13565e+07
-1.73178e+07
-2.04779e+07
-1.63582e+07
-1.95885e+07
-1.54163e+07
-1.86927e+07
-1.44935e+07
-1.77945e+07
-1.35909e+07
-1.68974e+07
-1.27099e+07
-1.60049e+07
-1.18517e+07
-1.512e+07
-1.10172e+07
-1.42457e+07
-1.02075e+07
-1.33846e+07
-9.42319e+06
-1.2539e+07
-8.665e+06
-1.17108e+07
-7.93337e+06
-1.09019e+07
-7.2287e+06
-1.0114e+07
-6.55131e+06
-9.3484e+06
-5.90139e+06
-8.60638e+06
-5.27891e+06
-7.88886e+06
-4.68365e+06
-7.19671e+06
-4.1153e+06
-6.53037e+06
-3.57371e+06
-5.89132e+06
-3.05859e+06
-5.2797e+06
-2.56927e+06
-4.69544e+06
-2.10484e+06
-4.13563e+06
-1.66462e+06
-3.60158e+06
-1.24654e+06
-3.09669e+06
-848770
-2.62165e+06
-469786
-2.17092e+06
-109875
-1.74063e+06
231006
-1.33098e+06
557110
-943593
873663
-581659
1.18213e+06
-263197
1.46367e+06
-2.41781e+07
-2.37339e+07
-2.42487e+07
-2.28232e+07
-2.40158e+07
-2.19088e+07
-2.35953e+07
-2.10035e+07
-2.30579e+07
-2.01066e+07
-2.2442e+07
-1.92161e+07
-2.17696e+07
-1.83317e+07
-2.10553e+07
-1.7454e+07
-2.03096e+07
-1.65844e+07
-1.95402e+07
-1.57243e+07
-1.87536e+07
-1.48757e+07
-1.7955e+07
-1.40402e+07
-1.7149e+07
-1.32195e+07
-1.63397e+07
-1.24152e+07
-1.55306e+07
-1.16285e+07
-1.4725e+07
-1.08607e+07
-1.39257e+07
-1.01128e+07
-1.31353e+07
-9.38576e+06
-1.23561e+07
-8.68018e+06
-1.159e+07
-7.99665e+06
-1.08388e+07
-7.3356e+06
-1.01041e+07
-6.69735e+06
-9.38705e+06
-6.08204e+06
-8.68885e+06
-5.48968e+06
-8.01043e+06
-4.92015e+06
-7.35255e+06
-4.37323e+06
-6.71567e+06
-3.84866e+06
-6.10016e+06
-3.34597e+06
-5.50623e+06
-2.86447e+06
-4.93383e+06
-2.40322e+06
-4.38241e+06
-1.96135e+06
-3.85229e+06
-1.53782e+06
-3.34364e+06
-1.13141e+06
-2.85596e+06
-740709
-2.38714e+06
-364560
-1.93512e+06
-1647.59
-1.50019e+06
349705
-1.08329e+06
690506
-683869
1.01975e+06
-291169
1.33775e+06
-2.21906e+07
-2.19381e+07
-2.23203e+07
-2.12594e+07
-2.22254e+07
-2.05302e+07
-2.19607e+07
-1.97768e+07
-2.15722e+07
-1.90104e+07
-2.10926e+07
-1.82366e+07
-2.05446e+07
-1.74589e+07
-1.99446e+07
-1.66803e+07
-1.93047e+07
-1.59033e+07
-1.86342e+07
-1.51304e+07
-1.79404e+07
-1.43637e+07
-1.72296e+07
-1.36053e+07
-1.65068e+07
-1.28571e+07
-1.57765e+07
-1.21209e+07
-1.50423e+07
-1.1398e+07
-1.43076e+07
-1.06897e+07
-1.35753e+07
-9.99727e+06
-1.28481e+07
-9.32152e+06
-1.21281e+07
-8.66322e+06
-1.14173e+07
-8.023e+06
-1.07173e+07
-7.4013e+06
-1.00298e+07
-6.79845e+06
-9.35579e+06
-6.21462e+06
-8.69644e+06
-5.64986e+06
-8.05255e+06
-5.10408e+06
-7.42478e+06
-4.57709e+06
-6.81354e+06
-4.06857e+06
-6.2191e+06
-3.57805e+06
-5.64161e+06
-3.1049e+06
-5.08109e+06
-2.64838e+06
-4.53729e+06
-2.2077e+06
-4.00991e+06
-1.78195e+06
-3.49855e+06
-1.37004e+06
-3.00254e+06
-970769
-2.52076e+06
-582901
-2.05199e+06
-205256
-1.5952e+06
163396
-1.14877e+06
524462
-709360
880107
-272889
1.23357e+06
-2.06785e+07
-2.04512e+07
-2.07854e+07
-1.9923e+07
-2.0737e+07
-1.93302e+07
-2.05532e+07
-1.8697e+07
-2.0259e+07
-1.8038e+07
-1.98767e+07
-1.73618e+07
-1.94245e+07
-1.66745e+07
-1.89169e+07
-1.59803e+07
-1.83654e+07
-1.52827e+07
-1.77793e+07
-1.45848e+07
-1.7166e+07
-1.38892e+07
-1.65319e+07
-1.31979e+07
-1.58822e+07
-1.25132e+07
-1.52214e+07
-1.18367e+07
-1.45535e+07
-1.117e+07
-1.38816e+07
-1.05144e+07
-1.32088e+07
-9.87107e+06
-1.25376e+07
-9.24095e+06
-1.18701e+07
-8.62482e+06
-1.12084e+07
-8.02332e+06
-1.05541e+07
-7.43692e+06
-9.90859e+06
-6.86596e+06
-9.27303e+06
-6.31064e+06
-8.64841e+06
-5.77103e+06
-8.03554e+06
-5.24707e+06
-7.43499e+06
-4.73859e+06
-6.8472e+06
-4.24529e+06
-6.27241e+06
-3.76676e+06
-5.71076e+06
-3.30246e+06
-5.16222e+06
-2.85176e+06
-4.62656e+06
-2.41393e+06
-4.10343e+06
-1.98813e+06
-3.59234e+06
-1.57342e+06
-3.09266e+06
-1.16874e+06
-2.60351e+06
-772964
-2.12378e+06
-384873
-1.65219e+06
-3066.17
-1.18718e+06
374203
-727184
749045
-270879
1.12378e+06
-1.94974e+07
-1.92277e+07
-1.95637e+07
-1.87964e+07
-1.95196e+07
-1.83007e+07
-1.93709e+07
-1.77596e+07
-1.91302e+07
-1.71864e+07
-1.88115e+07
-1.65905e+07
-1.84276e+07
-1.59785e+07
-1.79899e+07
-1.53554e+07
-1.75082e+07
-1.47254e+07
-1.69907e+07
-1.40916e+07
-1.64444e+07
-1.34569e+07
-1.58751e+07
-1.28237e+07
-1.52879e+07
-1.21939e+07
-1.46871e+07
-1.15694e+07
-1.40766e+07
-1.09518e+07
-1.34596e+07
-1.03423e+07
-1.28389e+07
-9.74223e+06
-1.2217e+07
-9.15238e+06
-1.1596e+07
-8.5736e+06
-1.09778e+07
-8.00652e+06
-1.03641e+07
-7.45162e+06
-9.75608e+06
-6.90926e+06
-9.15499e+06
-6.37964e+06
-8.56175e+06
-5.86286e+06
-7.97711e+06
-5.35889e+06
-7.40167e+06
-4.86759e+06
-6.83585e+06
-4.38871e+06
-6.27991e+06
-3.9219e+06
-5.73399e+06
-3.46668e+06
-5.19808e+06
-3.02251e+06
-4.67201e+06
-2.58874e+06
-4.15549e+06
-2.16461e+06
-3.64811e+06
-1.74929e+06
-3.14934e+06
-1.34183e+06
-2.65849e+06
-941201
-2.17474e+06
-546241
-1.69718e+06
-155654
-1.22493e+06
232002
-757162
618268
-293146
1.00472e+06
-1.85641e+07
-1.82255e+07
-1.85881e+07
-1.78565e+07
-1.85297e+07
-1.74289e+07
-1.83905e+07
-1.69564e+07
-1.81765e+07
-1.64501e+07
-1.7896e+07
-1.59186e+07
-1.75579e+07
-1.53684e+07
-1.71705e+07
-1.48045e+07
-1.67415e+07
-1.42312e+07
-1.62776e+07
-1.36517e+07
-1.5785e+07
-1.3069e+07
-1.52689e+07
-1.24854e+07
-1.47338e+07
-1.19029e+07
-1.41837e+07
-1.13234e+07
-1.36222e+07
-1.07484e+07
-1.30523e+07
-1.01791e+07
-1.24768e+07
-9.61678e+06
-1.18978e+07
-9.06228e+06
-1.13176e+07
-8.51641e+06
-1.07378e+07
-7.97978e+06
-1.01601e+07
-7.45287e+06
-9.5856e+06
-6.93604e+06
-9.01553e+06
-6.42952e+06
-8.45078e+06
-5.93341e+06
-7.8921e+06
-5.44773e+06
-7.34006e+06
-4.97236e+06
-6.7951e+06
-4.50711e+06
-6.25753e+06
-4.05166e+06
-5.72751e+06
-3.60564e+06
-5.20509e+06
-3.16855e+06
-4.69018e+06
-2.73983e+06
-4.18262e+06
-2.31883e+06
-3.68211e+06
-1.90482e+06
-3.1883e+06
-1.49697e+06
-2.70071e+06
-1.09439e+06
-2.21883e+06
-696100
-1.74211e+06
-301064
-1.27003e+06
91805.8
-802060
483614
-337699
875447
-1.78256e+07
-1.74087e+07
-1.78087e+07
-1.70796e+07
-1.77282e+07
-1.66988e+07
-1.75842e+07
-1.62764e+07
-1.73799e+07
-1.58212e+07
-1.71201e+07
-1.53405e+07
-1.68107e+07
-1.48401e+07
-1.64576e+07
-1.43248e+07
-1.60668e+07
-1.37985e+07
-1.56436e+07
-1.32646e+07
-1.51929e+07
-1.27257e+07
-1.47192e+07
-1.21843e+07
-1.42266e+07
-1.16423e+07
-1.37185e+07
-1.11014e+07
-1.31981e+07
-1.05631e+07
-1.26682e+07
-1.00287e+07
-1.21313e+07
-9.4992e+06
-1.15895e+07
-8.97559e+06
-1.10448e+07
-8.45857e+06
-1.04987e+07
-7.94877e+06
-9.95277e+06
-7.44664e+06
-9.40821e+06
-6.95256e+06
-8.86609e+06
-6.46675e+06
-8.32728e+06
-5.98934e+06
-7.79253e+06
-5.52037e+06
-7.2624e+06
-5.05977e+06
-6.73737e+06
-4.60737e+06
-6.21777e+06
-4.16295e+06