/*--------------------------------*- C++ -*----------------------------------*\
| =========                 |                                                 |
| \\      /  F ield         | OpenFOAM: The Open Source CFD Toolbox           |
|  \\    /   O peration     | Version:  v2012                                 |
|   \\  /    A nd           | Website:  www.openfoam.com                      |
|    \\/     M anipulation  |                                                 |
\*---------------------------------------------------------------------------*/
FoamFile
{
    version     2.0;
    format      ascii;
    class       volSymmTensorField;
    location    "19";
    object      epsilon;
}
// * * * * * * * * * * * * * * * * * * * * * * * * * * * * * * * * * * * * * //

dimensions      [0 0 0 0 0 0 0];


internalField   nonuniform List<symmTensor> 
500
(
(0.0223987 -0.00539639 -1.22464e-18 -0.0256323 1.50576e-19 5.18732e-35)
(0.0051074 -0.00100508 -3.56379e-19 -0.00489679 1.59238e-19 0)
(0.0112004 -0.00226827 0 -0.00931923 0 0)
(0.00405961 -0.000936403 3.68073e-19 -0.00417599 2.98417e-19 0)
(0.00603136 -0.00108973 9.08588e-19 -0.00447378 3.60366e-19 0)
(0.00218515 -0.00047066 7.01888e-20 -0.0016751 1.49882e-19 0)
(0.00300273 -0.000408515 0 -0.00169821 0 0)
(0.00111517 -0.000239633 5.38319e-19 -0.000254262 4.09242e-19 0)
(0.00155362 -2.79549e-05 4.49732e-19 -0.000430985 2.99208e-19 0)
(0.000893313 -6.29922e-05 1.24402e-20 0.000139324 3.58934e-19 0)
(0.00151129 -0.0013533 -4.9059e-19 -0.00362592 3.13278e-19 2.84368e-34)
(0.00259764 -0.00169126 -4.72834e-19 -0.00315055 3.14661e-19 0)
(0.00219321 -0.00127337 -6.23867e-19 -0.000860029 -1.763e-19 0)
(0.000826939 -0.000919887 2.74845e-19 -0.00147661 2.19593e-19 0)
(0.0018525 -0.000995637 6.70266e-20 -0.00037226 2.41357e-19 0)
(0.000269753 -0.000549051 -1.74247e-19 -0.000651273 9.76796e-20 0)
(0.00157077 -0.000597563 -3.17126e-20 -0.000554361 -6.27804e-19 0)
(0.000452742 -0.00027635 -2.62177e-19 -0.000571404 -8.79571e-19 0)
(0.0013337 -0.000187711 -4.21115e-19 -0.000739332 -8.67099e-20 0)
(0.000724237 1.98399e-05 1.08596e-19 -0.000548597 2.70259e-19 0)
(0.000395049 -0.000875281 1.71611e-19 -0.000763094 3.53881e-20 -1.03214e-36)
(-0.000473003 -0.000116588 -2.85517e-19 0.000219429 2.22631e-19 0)
(-4.64654e-05 -0.000334382 -6.1432e-21 0.000285029 -8.53416e-20 0)
(-0.000313265 -0.00030174 3.77247e-19 -2.05048e-05 -7.64989e-20 0)
(0.000168257 -0.000394294 1.46297e-19 -0.000176751 -3.63292e-20 0)
(-4.76975e-05 -0.000284154 -1.7768e-22 -0.000261282 -1.16919e-19 0)
(0.000401137 -0.00029037 3.4523e-19 -0.000391267 4.51218e-19 0)
(0.000108016 -0.000154268 -8.90279e-20 -0.000446466 1.08664e-19 0)
(0.000760389 -7.85914e-05 -8.92459e-20 -0.000705125 -1.12273e-19 0)
(0.000416123 9.16167e-06 0 -0.000610718 0 0)
(-0.00041578 0.00038954 9.33757e-20 -0.000223409 -1.07314e-19 -2.15051e-35)
(-0.000216491 4.64275e-05 -3.31456e-19 9.69739e-05 -3.0575e-19 0)
(-1.38122e-05 4.19207e-05 -2.84847e-19 0.000226155 -6.23333e-19 0)
(-8.74725e-05 -0.000137096 2.78755e-19 -3.52539e-05 -5.48319e-19 0)
(0.00013531 -0.000135367 7.34605e-20 0.00011496 2.96871e-19 0)
(4.65342e-05 -0.000173255 2.27193e-19 -8.93532e-05 4.59722e-19 0)
(0.00021645 -0.000153698 1.50853e-19 -0.000106945 1.74471e-19 0)
(0.000195623 -0.000102024 -5.33136e-20 -1.74458e-05 1.2627e-19 0)
(0.000257717 -8.01003e-05 -5.0168e-20 -0.000396431 -2.00209e-19 0)
(0.000341254 2.05025e-05 2.84732e-20 9.28411e-05 -1.16732e-19 0)
(-3.17583e-05 0.000225093 7.96343e-20 -7.44707e-05 -1.34287e-19 -3.79237e-35)
(-0.000162029 0.000223273 -7.55617e-20 -0.000169874 -2.03409e-19 0)
(6.49801e-05 8.7224e-05 -1.80997e-19 -0.000139614 -4.06142e-19 0)
(4.26386e-05 5.71201e-05 -3.14868e-19 -0.000233639 -4.34179e-19 0)
(0.000109176 7.03538e-06 -3.57429e-19 -0.000211123 -4.99491e-20 0)
(0.000145079 -1.12613e-05 5.99111e-20 -0.000394416 -3.23951e-20 0)
(0.000151255 3.69177e-05 8.32985e-20 -0.000360734 -4.81251e-20 0)
(0.000255042 2.1399e-05 -6.05809e-20 -0.000607904 2.00914e-20 0)
(0.000226094 0.000178851 -7.78092e-20 -0.000689438 3.04458e-20 0)
(0.000186173 0.000128597 -1.52972e-19 -0.00117152 -1.3171e-19 0)
(1.40019e-05 0.000283004 3.51375e-20 -0.000250934 5.50867e-23 9.70619e-36)
(-0.000159461 0.00032074 1.74357e-19 -0.000263496 5.15565e-20 0)
(0.000169247 0.000126159 3.2239e-19 -0.000218926 2.70064e-19 0)
(0.000118938 0.000221472 9.3914e-20 -0.000130085 1.34855e-19 0)
(0.000258061 0.000133667 1.48484e-19 -0.000310457 1.40647e-19 0)
(0.000320788 0.000271895 7.79227e-20 -0.000260805 1.7709e-19 0)
(0.000275094 0.000337042 8.81492e-20 -0.000577245 9.10113e-20 0)
(0.000303989 0.000466755 0 -0.000935461 0 0)
(-0.000223982 0.000657001 0 -0.00129235 0 0)
(0.000475367 0.000284153 -4.3463e-20 -0.000363885 -7.26263e-20 0)
(4.60485e-05 0.00034051 2.25157e-20 -0.0004242 -5.81205e-20 -7.02484e-36)
(-0.000147913 0.0002843 2.90328e-20 -0.000370643 -1.11573e-19 0)
(0.000124468 0.000227665 1.60529e-20 -0.000177618 -5.63792e-20 0)
(-3.22837e-05 0.00021442 -1.53439e-20 -0.000378162 3.02188e-20 0)
(0.000200631 0.000239303 -9.44138e-21 -0.000249835 1.67249e-19 0)
(6.46348e-05 0.000277153 7.7892e-20 -0.000572961 1.25689e-19 0)
(0.000222028 0.000370545 1.93772e-19 -0.000508359 1.91622e-19 0)
(-3.12283e-05 0.000502314 2.07086e-19 -0.000775805 2.00152e-19 0)
(-0.000202551 0.000398179 3.58152e-19 -0.000885515 4.27798e-19 0)
(0.000290247 0.000304794 3.92135e-20 6.49773e-05 1.44495e-19 0)
(0.000157807 0.000290099 0 -0.00042331 0 0)
(-5.8722e-05 0.000196545 0 -0.000369802 0 0)
(0.00014937 0.00029435 -1.15407e-20 -0.000203243 -5.3176e-20 0)
(-3.61818e-05 0.000193792 -3.32049e-20 -0.000449691 -9.0682e-20 0)
(0.000181111 0.000303945 -1.01406e-19 -0.000238973 -1.01617e-19 0)
(9.66929e-06 0.000275466 -7.76164e-20 -0.000604535 -1.29485e-19 0)
(0.000149557 0.000314725 -2.16412e-19 -0.000366927 -2.5735e-19 0)
(-0.000152443 0.000382467 -8.15952e-20 -0.00074731 -2.5081e-19 0)
(-0.000187216 0.000233996 -1.42671e-19 -0.000511789 6.51712e-20 0)
(-9.58263e-06 0.000197672 4.09443e-20 -5.19541e-05 5.05895e-21 0)
(0.000208546 0.000193357 9.32645e-21 -0.000354866 -2.93836e-20 3.94613e-37)
(2.97617e-05 8.88266e-05 -7.02036e-21 -0.000343417 7.58986e-21 0)
(0.000187873 0.000263299 0 -0.000286189 0 0)
(1.26849e-05 0.000112593 0 -0.000466327 0 0)
(0.000205697 0.000262835 3.3068e-20 -0.000308729 1.15646e-19 0)
(8.95096e-06 0.000172413 4.71566e-20 -0.000609362 1.52501e-19 0)
(0.000160859 0.00022111 7.66181e-20 -0.000336775 9.66495e-20 0)
(-0.000154504 0.000231709 1.81848e-20 -0.000705856 5.67538e-20 0)
(-0.000119206 0.000130911 6.31786e-21 -0.000309026 -8.3706e-20 0)
(-0.000162573 0.000126002 -4.35301e-21 -0.000198801 -4.91778e-20 0)
(0.000167265 0.000111463 -4.0702e-21 -0.000297032 2.82682e-21 -4.23343e-36)
(0.000142611 -2.27022e-05 -1.46571e-20 -0.000281857 4.85957e-21 0)
(0.000131516 0.000147456 -1.94381e-20 -0.00041917 1.04012e-19 0)
(0.000109857 -2.46884e-05 -8.44101e-21 -0.000450808 9.43447e-20 0)
(0.000182131 0.000137554 -8.80364e-21 -0.000443033 -7.00397e-21 0)
(6.55022e-05 -2.66374e-06 -2.58306e-21 -0.000575427 3.20902e-20 0)
(0.000154516 9.24862e-05 -6.65368e-21 -0.000374542 -2.27352e-20 0)
(-8.95985e-05 5.76977e-05 -1.08527e-20 -0.000554551 -2.04021e-20 0)
(-7.12017e-05 4.18055e-05 -4.45885e-21 -0.000170327 7.50501e-21 0)
(-0.000216551 6.49024e-05 1.28796e-20 -0.000177729 -1.55698e-20 0)
(-0.00024931 6.3267e-06 5.34511e-21 0.000498722 2.26104e-20 0)
(-0.000163197 -8.456e-05 -1.29274e-20 0.000528522 6.44017e-21 0)
(-0.000252368 -8.77184e-05 -3.27955e-22 0.000474102 -1.45354e-20 0)
(-5.80671e-05 -0.000136569 0 0.000607353 0 0)
(-0.000188954 -0.000209744 1.16246e-20 0.000376637 1.6023e-20 0)
(0.000136345 -0.000186283 5.67628e-21 0.000687628 -8.48664e-21 0)
(0.000129999 -0.000317138 -5.30557e-21 0.00032937 4.24388e-20 0)
(0.00013393 -0.000111171 -2.26552e-20 0.000538131 -6.48606e-20 0)
(0.000566949 -0.000346617 -4.06677e-20 0.000391821 4.41171e-20 0)
(0.000413744 -0.000147737 -8.79534e-20 6.77172e-05 1.80496e-19 0)
(-0.000420133 -1.09018e-05 0 0.000338592 0 0)
(-0.000249079 -3.1767e-05 3.4253e-21 0.00036759 -6.66887e-21 0)
(-0.000350806 -9.75743e-05 -2.77208e-20 0.000398554 8.51356e-21 0)
(-0.00023819 -5.68047e-05 -2.91599e-20 0.000259847 2.70248e-20 0)
(-0.000301078 -0.000208545 9.51271e-21 0.000337816 -1.13182e-20 0)
(-0.000204449 -4.90847e-05 3.13544e-20 0.000125699 -2.09209e-20 0)
(-0.000141743 -0.000352144 4.22467e-20 0.000235001 -1.24372e-20 0)
(-1.28181e-05 -8.5962e-05 7.52617e-20 0.000135154 -4.7456e-20 0)
(4.73248e-05 -0.000496963 -1.30195e-20 7.70481e-05 3.39439e-20 0)
(0.000186704 -2.99941e-05 2.66395e-20 1.72899e-05 2.61577e-20 0)
(-0.000245008 -4.26445e-05 0 0.000101482 0 0)
(-0.000163449 4.67101e-05 -6.32207e-22 0.000128177 1.21241e-20 0)
(-0.000167458 -3.40291e-05 1.70476e-20 0.000105412 -1.07909e-20 0)
(-0.00013634 5.10368e-05 1.03776e-20 4.04507e-05 -2.54848e-20 0)
(-9.58967e-05 -4.68072e-05 8.71612e-21 4.10886e-05 -7.70268e-21 0)
(1.0073e-05 1.69337e-05 1.31403e-20 1.21492e-05 -3.79803e-20 0)
(-4.45271e-05 -7.87737e-05 1.87821e-20 -8.94487e-05 1.31515e-21 0)
(0.000265642 -3.63895e-05 1.43742e-20 4.55784e-05 -2.67005e-20 0)
(0.000114295 -0.000142303 5.18032e-20 -9.35533e-05 -2.43481e-20 0)
(0.000336448 -1.45624e-05 2.85858e-20 2.42623e-05 -3.737e-20 0)
(-0.000135287 -9.62212e-06 1.64038e-20 -4.87404e-05 1.23219e-21 0)
(-9.65108e-05 4.57548e-05 3.5271e-20 1.14969e-05 -3.93491e-20 0)
(-8.68872e-05 4.38982e-05 -2.08993e-20 -7.57379e-05 1.416e-20 0)
(2.35895e-05 3.00211e-05 1.55584e-22 2.15945e-05 5.22774e-20 0)
(-5.28558e-05 2.72259e-05 6.46412e-21 -0.000130127 1.11289e-20 0)
(0.000204085 -2.31429e-05 -5.56515e-21 6.60216e-07 3.21036e-21 0)
(9.70275e-05 -4.10127e-05 -6.68916e-21 -0.000161836 -5.98764e-22 0)
(0.000346818 -4.73121e-05 -1.10229e-20 -6.35339e-05 -1.37272e-20 0)
(0.000313312 -9.97945e-05 4.98209e-20 -0.000137951 1.1569e-20 0)
(0.000380386 -3.79377e-05 -1.65316e-20 -7.83011e-05 -2.19016e-20 0)
(-0.000163889 1.85535e-05 -5.14632e-21 -9.19895e-05 3.56215e-21 0)
(-6.87108e-05 -1.05276e-05 -2.46905e-20 -4.93404e-06 -1.75592e-20 0)
(-5.20099e-05 2.75828e-05 1.88962e-20 -0.00011328 -3.51641e-20 0)
(9.82458e-05 -5.14527e-05 1.14374e-20 1.4929e-05 -6.60389e-20 0)
(3.47998e-05 -1.66568e-05 3.07046e-20 -0.000156726 -2.23417e-20 0)
(0.000255633 -9.02895e-05 6.00469e-20 -3.71947e-05 -8.87577e-21 0)
(0.000204638 -8.15379e-05 -5.55885e-20 -0.000161999 -4.22887e-21 0)
(0.000350779 -8.54189e-05 -4.68988e-20 -0.000107463 6.21491e-22 0)
(0.000331813 -0.000104942 4.86934e-20 -0.000161936 2.41957e-21 0)
(0.000374031 -6.12209e-05 -6.83382e-21 -0.000130886 -2.30396e-20 0)
(-0.000204744 2.62908e-05 -8.89576e-21 -8.11787e-05 -1.77109e-21 0)
(-4.64891e-05 -6.83725e-05 5.18201e-21 -3.62769e-06 2.35317e-20 0)
(-1.99946e-05 -3.30538e-05 -1.52951e-20 -8.26578e-05 2.64282e-20 0)
(0.000120613 -0.000121957 -6.04755e-20 -1.78736e-05 6.61672e-21 0)
(0.000113092 -8.94797e-05 5.39988e-20 -0.000127231 4.1739e-21 0)
(0.000251521 -0.000142326 2.86544e-20 -7.79707e-05 -2.08475e-20 0)
(0.000246049 -0.000124063 -5.45787e-20 -0.000144966 -4.45055e-21 0)
(0.000323754 -0.000118502 -4.16368e-20 -0.000125756 -3.42857e-21 0)
(0.000321018 -0.000117574 2.77355e-20 -0.000152795 3.0464e-20 0)
(0.000343067 -8.01868e-05 -6.76738e-21 -0.000143394 2.30495e-21 0)
(-0.000183382 2.11801e-05 1.49388e-20 -4.64302e-05 2.60069e-21 0)
(-6.43389e-06 -0.000105157 3.44695e-20 -3.29779e-06 -7.5775e-21 0)
(7.99321e-06 -8.12686e-05 -2.32919e-20 -3.85979e-05 -5.66717e-21 0)
(0.000135567 -0.000164684 -8.31403e-21 -4.15437e-05 5.38509e-21 0)
(0.000143148 -0.000138574 1.87271e-20 -8.31773e-05 7.40662e-21 0)
(0.000235616 -0.000175125 5.17047e-20 -9.50663e-05 2.30894e-20 0)
(0.000242434 -0.000152267 -4.41304e-20 -0.000109819 -2.36209e-21 0)
(0.000285321 -0.000143962 3.74278e-21 -0.000122973 2.12472e-20 0)
(0.000290135 -0.000129613 -1.39745e-20 -0.000124433 2.94615e-22 0)
(0.000299653 -9.88593e-05 -4.6002e-21 -0.000129059 7.59632e-21 0)
(-0.000118699 1.17149e-05 -9.45044e-21 9.31601e-06 1.26352e-21 0)
(4.10343e-05 -0.000119489 -5.95616e-23 8.88727e-06 1.09501e-21 0)
(2.11737e-05 -0.000104691 -7.10105e-21 1.38331e-05 9.91522e-21 0)
(0.000145133 -0.00018192 -3.8299e-20 -3.63126e-05 3.26881e-21 0)
(0.000132617 -0.00015906 3.50457e-20 -2.75403e-05 4.38378e-21 0)
(0.000209654 -0.000186798 -1.25512e-21 -7.79354e-05 -1.13084e-20 0)
(0.0002092 -0.000162866 0 -5.623e-05 0 0)
(0.000236065 -0.00015202 2.78838e-20 -9.52291e-05 1.65011e-20 0)
(0.000245186 -0.000133896 -9.50088e-21 -7.67812e-05 1.01678e-20 0)
(0.000243054 -0.000102884 -3.2516e-20 -9.78577e-05 -9.15376e-21 0)
(-4.63299e-05 2.64897e-06 -8.38107e-21 0.000102007 1.85376e-20 0)
(6.77621e-05 -0.000107276 -1.3495e-20 4.96279e-05 8.80932e-21 0)
(1.85641e-05 -0.000102711 1.69577e-20 8.85524e-05 -4.05414e-21 0)
(0.00013176 -0.000157212 7.49175e-21 -2.40216e-06 -1.84933e-21 0)
(0.000103729 -0.000149189 8.58931e-21 4.57517e-05 -2.84845e-21 0)
(0.000169098 -0.00015269 -5.25199e-20 -4.09101e-05 -1.22287e-20 0)
(0.000166871 -0.000147201 -1.37135e-20 1.02249e-05 -2.54947e-20 0)
(0.000186383 -0.00011855 4.70618e-20 -5.93878e-05 -1.65522e-20 0)
(0.000196092 -0.000120318 -2.07731e-21 -2.32265e-05 -1.09113e-20 0)
(0.000191638 -7.31613e-05 -4.67694e-20 -6.82506e-05 -2.88485e-20 0)
(4.61096e-05 8.04678e-06 -4.54231e-21 0.000269743 -2.67728e-20 0)
(9.76789e-05 -5.6623e-05 -7.78121e-22 0.000193091 -2.0713e-20 -4.28307e-37)
(5.70981e-05 -5.81994e-05 -1.82676e-20 0.000229038 1.31946e-21 0)
(0.000116356 -5.96363e-05 -8.82932e-21 9.82036e-05 -4.59483e-21 -9.41587e-37)
(0.0001049 -9.1283e-05 -9.17726e-21 0.000148903 6.7163e-21 0)
(0.000136876 -4.0833e-05 0 1.05194e-05 0 0)
(0.000137362 -8.91228e-05 4.30702e-20 6.04376e-05 -6.18084e-20 0)
(0.000161026 -1.99898e-05 -1.41644e-21 -4.61444e-05 -1.03322e-19 -1.14398e-36)
(0.000152944 -7.41379e-05 -6.84358e-20 -8.07727e-06 1.89184e-20 0)
(0.000169608 1.25686e-06 1.40828e-21 -8.22504e-05 6.62989e-20 -6.56381e-37)
(0.000768513 -0.000268388 2.20286e-20 0.000449707 1.14706e-19 0)
(0.000247224 -0.000261265 -3.63473e-20 0.000109424 3.71804e-20 0)
(0.000575896 -0.0003175 7.06099e-21 0.000324031 5.95529e-20 0)
(0.000272036 -0.000283115 6.60035e-20 2.98275e-05 6.17892e-20 0)
(0.000536871 -0.000383778 9.21671e-20 0.00030247 1.16463e-20 0)
(0.000266244 -0.000299429 0 -2.4614e-05 0 0)
(0.000521518 -0.000426093 -2.5527e-20 0.000278401 1.73311e-20 0)
(0.00024262 -0.000306599 -1.78083e-20 -5.38728e-05 8.91899e-21 0)
(0.000508612 -0.000443974 8.94907e-21 0.000220988 2.17459e-20 0)
(0.000220903 -0.000299971 -1.77643e-20 -7.03579e-05 8.09664e-21 0)
(0.000510691 -0.000429579 -9.43223e-21 0.000133007 -2.06951e-20 0)
(0.000239831 -0.000284733 -5.12153e-20 -8.08366e-05 -5.11542e-20 0)
(0.000541764 -0.000384997 -4.16758e-20 2.97864e-05 -2.13702e-20 0)
(0.000290629 -0.000264018 6.84796e-20 -9.93592e-05 8.46222e-21 0)
(0.000605884 -0.000320732 1.07242e-19 -6.11601e-05 3.67479e-20 0)
(0.000288333 -0.000215322 1.87738e-20 -0.000136091 6.58731e-21 0)
(0.000622065 -0.000226776 -2.62797e-20 -0.000133308 -4.07998e-21 0)
(0.000294504 -0.000118764 4.28652e-20 -0.00019035 2.64144e-20 0)
(0.000739049 -0.000113264 6.96109e-20 -0.000270142 2.79694e-20 0)
(0.000330969 -2.11685e-07 0 -0.000231942 0 0)
(0.00053599 -0.00050258 3.10657e-20 0.000198792 9.92655e-21 0)
(0.000209219 -0.000189135 2.27286e-20 1.70432e-06 4.84819e-20 0)
(0.000556722 -0.0004373 1.65886e-20 5.31177e-05 -8.761e-21 0)
(0.000226078 -0.000176801 0 -1.14121e-05 0 0)
(0.000479904 -0.000361377 6.06028e-21 -4.43481e-05 3.01791e-20 0)
(0.000252625 -0.000160781 2.58415e-20 1.92582e-07 4.8293e-20 0)
(0.000417729 -0.000296729 3.49184e-20 -8.04776e-05 9.56309e-21 0)
(0.000293146 -0.000151183 -4.23709e-20 2.02467e-05 -2.73776e-20 0)
(0.000326148 -0.000245558 3.61786e-21 -0.0001064 -2.77424e-20 0)
(0.000227558 -0.000135504 3.42197e-20 -2.59429e-05 2.28451e-20 0)
(0.000267752 -0.000214743 2.32829e-20 -0.000120846 7.73336e-21 0)
(0.000255472 -0.000121226 1.22564e-20 -4.18228e-05 1.3358e-20 0)
(0.000301269 -0.00019069 -1.06414e-21 -0.000115305 1.80546e-20 0)
(0.000268294 -9.57853e-05 7.37184e-20 -8.31372e-05 7.90655e-20 0)
(0.000329314 -0.000153477 6.81438e-20 -0.000113065 3.12027e-20 0)
(0.00027039 -6.83605e-05 1.18473e-20 -0.000119473 1.16535e-20 0)
(0.000329227 -0.000105544 -1.56994e-20 -0.000117315 -4.837e-21 0)
(0.000275714 -3.6142e-05 2.44238e-20 -0.000130713 2.60978e-20 0)
(0.000317207 -5.48178e-05 5.34585e-20 -0.000131174 4.44158e-20 0)
(0.000263016 8.93703e-06 8.28882e-22 -0.000135101 1.14906e-21 -2.03714e-36)
(0.000160034 -0.000179432 -9.33558e-21 -8.74258e-05 3.13579e-21 0)
(0.000401641 -7.06622e-05 6.80645e-20 -2.03496e-05 5.06219e-20 0)
(0.000259726 -0.000207039 4.13932e-20 -6.0945e-05 2.63878e-20 0)
(0.000371302 -7.1125e-05 8.00378e-20 -6.7172e-05 5.93307e-20 0)
(0.00029775 -0.000212723 6.82323e-20 -5.18726e-05 3.15099e-20 0)
(0.000330483 -6.92991e-05 5.80794e-20 -9.02746e-05 4.72425e-20 0)
(0.000311994 -0.000202259 7.70846e-20 -4.96499e-05 3.22006e-20 0)
(0.000290255 -6.26445e-05 -2.29102e-21 -0.000106398 5.96457e-21 0)
(0.000341434 -0.000181324 9.4565e-21 -4.19302e-05 1.48984e-20 0)
(0.000250819 -6.43486e-05 1.16599e-20 -0.000113505 1.44553e-20 0)
(0.000312759 -0.000148845 4.84201e-20 -6.02458e-05 2.63365e-20 0)
(0.00023274 -5.72705e-05 -2.62011e-20 -0.000111893 -2.05212e-20 0)
(0.000290905 -0.000116751 -3.20952e-20 -7.46225e-05 -1.7988e-20 0)
(0.000227001 -4.25741e-05 4.93456e-21 -0.000107869 -4.30847e-21 0)
(0.000271279 -8.42681e-05 4.89323e-20 -8.24838e-05 5.02476e-20 0)
(0.000226444 -2.56447e-05 3.51368e-20 -0.00010376 3.78718e-20 0)
(0.000251479 -5.28784e-05 5.68198e-20 -8.81972e-05 6.78307e-20 0)
(0.000228553 -9.78328e-06 5.12865e-20 -0.000101657 7.30318e-20 0)
(0.000234213 -2.40463e-05 4.2317e-20 -9.81471e-05 5.71216e-20 0)
(0.000232755 1.15819e-06 6.71492e-21 -9.49849e-05 2.95466e-21 -4.3652e-36)
(0.00029924 -9.02836e-05 -4.23035e-20 -0.000167299 -3.51263e-20 0)
(0.000445996 -4.84605e-05 -2.06634e-20 -8.6352e-05 -1.7018e-20 0)
(0.000316217 -9.27465e-05 -1.34442e-20 -0.000145714 -1.02049e-20 0)
(0.000408649 -4.01746e-05 1.55569e-20 -0.000102234 6.85239e-21 0)
(0.000295112 -9.07238e-05 1.3668e-20 -0.000127855 1.15502e-20 0)
(0.000365434 -3.38081e-05 4.54951e-20 -0.000105901 2.94081e-20 0)
(0.000273502 -8.6267e-05 2.44151e-20 -0.000109712 2.01619e-20 0)
(0.000321197 -2.89286e-05 4.02456e-20 -0.000105387 2.87166e-20 0)
(0.000256837 -8.00036e-05 3.65545e-21 -9.34525e-05 -2.56739e-21 0)
(0.000280757 -2.70417e-05 -2.3637e-20 -0.00010632 -1.55928e-20 0)
(0.000243101 -7.15398e-05 -3.24171e-20 -8.1598e-05 -2.97028e-20 0)
(0.000246647 -2.52251e-05 -9.65206e-21 -0.000106501 -1.39626e-20 0)
(0.000230801 -6.10055e-05 -1.34213e-20 -7.43321e-05 -3.63305e-21 0)
(0.000218959 -2.10313e-05 2.86593e-20 -0.000103642 3.17279e-20 0)
(0.000219753 -4.7223e-05 1.0211e-20 -7.20983e-05 1.31008e-20 0)
(0.00020162 -1.51e-05 -2.14237e-21 -9.79356e-05 5.83541e-21 0)
(0.000211315 -3.06102e-05 -9.31532e-21 -7.28871e-05 -1.09229e-20 0)
(0.000191768 -8.15591e-06 -8.34259e-21 -9.3954e-05 -1.0726e-20 0)
(0.000205767 -1.32652e-05 -1.5107e-20 -7.50847e-05 -3.05895e-20 0)
(0.000192318 -2.13549e-06 2.09697e-21 -9.00743e-05 -6.77839e-22 -6.00863e-37)
(0.000327926 -8.17676e-05 -2.41907e-20 -0.000180776 -1.55355e-20 0)
(0.000424462 -5.27238e-05 3.32225e-20 -0.000121742 1.7198e-20 0)
(0.00033552 -7.33294e-05 1.66392e-20 -0.00016242 8.73209e-21 0)
(0.000387998 -3.92411e-05 -1.47825e-20 -0.00012632 -7.25721e-21 0)
(0.00030871 -6.31168e-05 -2.81948e-20 -0.000146025 -1.81731e-20 0)
(0.000348252 -2.89507e-05 -1.36547e-20 -0.000119935 -8.86292e-21 0)
(0.000282156 -5.37867e-05 -1.05557e-20 -0.000126893 -1.41856e-20 0)
(0.000307688 -2.17095e-05 -1.40922e-20 -0.000111784 -1.2686e-20 0)
(0.000256977 -4.58066e-05 9.31077e-21 -0.00010904 1.44106e-20 0)
(0.00026806 -1.6235e-05 2.30725e-20 -0.000105359 1.94116e-20 0)
(0.000234593 -3.92317e-05 3.89138e-20 -9.53124e-05 4.57742e-20 0)
(0.000250031 -1.44553e-05 4.22943e-20 -9.18438e-05 4.22552e-20 0)
(0.000210384 -2.8689e-05 -9.57901e-21 -8.73135e-05 -5.42613e-21 0)
(0.00021103 -1.07986e-05 1.78649e-20 -8.96882e-05 1.26204e-20 0)
(0.000192143 -2.2194e-05 -8.28866e-21 -7.85502e-05 -9.25311e-21 0)
(0.000191858 -7.90471e-06 0 -8.58941e-05 0 0)
(0.000187551 -1.69408e-05 -8.11413e-21 -7.03732e-05 -9.47072e-21 0)
(0.00017594 -4.58798e-06 -9.67205e-21 -8.42417e-05 -6.18133e-21 0)
(0.000184246 -8.87644e-06 -1.06655e-20 -6.50728e-05 -6.0464e-21 0)
(0.000166107 -1.7858e-07 0 -8.43385e-05 0 0)
(0.000317638 -8.49637e-05 2.45077e-20 -0.000168973 1.52109e-20 0)
(0.000380204 -6.18458e-05 0 -0.000130568 0 0)
(0.000322239 -7.0995e-05 1.34863e-20 -0.000154204 1.0716e-20 0)
(0.000351296 -4.58266e-05 2.89158e-20 -0.000133018 1.72717e-20 0)
(0.000298113 -5.74028e-05 2.62612e-20 -0.000141737 2.33586e-20 0)
(0.000322248 -3.49474e-05 4.0707e-20 -0.000124497 3.09263e-20 0)
(0.000274776 -4.69804e-05 2.57676e-20 -0.000126396 1.8037e-20 0)
(0.000296218 -2.84465e-05 1.19651e-20 -0.000108214 9.50317e-21 0)
(0.000257004 -3.60135e-05 -1.38684e-21 -0.000109091 5.31804e-21 0)
(0.00025505 -2.23247e-05 -1.21874e-20 -9.68624e-05 -1.54581e-21 0)
(0.000211336 -2.4568e-05 -2.78237e-20 -0.000107696 -3.13355e-20 0)
(0.000215828 -1.21083e-05 -3.84702e-20 -9.17306e-05 -3.56317e-20 0)
(0.000206624 -2.03754e-05 -3.49763e-20 -8.84457e-05 -4.8857e-20 0)
(0.000198542 -7.85736e-06 2.9147e-21 -8.28836e-05 -1.56532e-20 0)
(0.000192831 -1.66799e-05 0 -8.03034e-05 0 0)
(0.000181748 -4.78968e-06 -9.76066e-21 -7.72821e-05 -5.98801e-21 0)
(0.000180353 -1.31321e-05 -1.05707e-20 -7.31426e-05 -6.10734e-21 0)
(0.000166446 -1.5308e-06 -7.15435e-21 -7.19276e-05 -9.09752e-21 0)
(0.000169792 -8.35831e-06 -5.11724e-21 -6.65577e-05 -1.56872e-20 0)
(0.000149921 2.81275e-06 1.73003e-21 -7.22474e-05 -5.62295e-22 -4.9844e-37)
(0.000289169 -9.2505e-05 -8.81763e-21 -0.000143071 -1.57264e-20 0)
(0.000326606 -7.46412e-05 -1.50906e-20 -0.000115177 -1.22246e-20 0)
(0.000295769 -7.38165e-05 -2.88895e-20 -0.000134665 -1.8837e-20 0)
(0.000306002 -5.6183e-05 -1.26521e-20 -0.000115909 -9.81589e-21 0)
(0.000282627 -5.55211e-05 9.9979e-21 -0.000125907 1.58232e-20 0)
(0.000287908 -4.15307e-05 2.5157e-20 -0.000106017 2.18974e-20 0)
(0.000256016 -3.83437e-05 3.50636e-20 -0.000114204 2.78674e-20 0)
(0.000246188 -2.52918e-05 0 -0.00010246 0 0)
(0.000229694 -2.78001e-05 -8.01911e-21 -0.000102007 -1.54251e-20 0)
(0.000226586 -1.51802e-05 -5.00048e-20 -9.26805e-05 -4.67527e-20 0)
(0.000215164 -2.18771e-05 -4.74964e-20 -9.064e-05 -5.50933e-20 0)
(0.000205979 -1.05606e-05 -5.58398e-20 -8.49432e-05 -5.87597e-20 0)
(0.000201417 -1.79367e-05 -5.4021e-20 -8.40816e-05 -6.75489e-20 0)
(0.000188042 -6.77701e-06 -3.75524e-20 -7.79257e-05 -6.1648e-20 0)
(0.00018825 -1.50522e-05 -1.10579e-20 -7.89507e-05 -6.41615e-21 0)
(0.000171971 -3.0771e-06 9.88265e-21 -7.04056e-05 6.02222e-21 0)
(0.000175122 -1.2569e-05 1.06661e-20 -7.27161e-05 6.21894e-21 0)
(0.000156565 1.13972e-06 -1.6236e-20 -6.19034e-05 -1.51898e-20 0)
(0.000161498 -9.91956e-06 -5.78366e-21 -6.67146e-05 9.89943e-21 0)
(0.000128943 7.31515e-06 -2.10264e-21 -6.54887e-05 5.78842e-22 -5.13107e-37)
(0.000248549 -9.38308e-05 1.06904e-20 -9.94063e-05 -1.27255e-20 0)
(0.000263773 -7.53751e-05 7.82942e-21 -8.52174e-05 -1.34278e-20 0)
(0.000255722 -7.31803e-05 -4.28345e-21 -9.92366e-05 6.62678e-21 0)
(0.000248877 -5.32457e-05 -3.23525e-21 -8.93793e-05 6.64053e-21 0)
(0.00024361 -5.45934e-05 -1.07229e-20 -9.86505e-05 -1.12391e-20 0)
(0.000232806 -3.32006e-05 -1.00778e-20 -8.80591e-05 -1.09553e-20 0)
(0.000237835 -3.89175e-05 0 -8.8926e-05 0 0)
(0.000215546 -1.98962e-05 1.26345e-20 -8.24977e-05 7.03646e-21 0)
(0.000220619 -2.60275e-05 3.617e-20 -8.54026e-05 5.54966e-20 0)
(0.000201752 -9.48459e-06 1.24501e-20 -7.63854e-05 3.66008e-20 0)
(0.000206073 -1.74092e-05 1.80534e-20 -8.24773e-05 2.24277e-20 0)
(0.000190164 -2.03494e-06 2.26319e-20 -7.18817e-05 1.35458e-20 0)
(0.000193083 -1.19875e-05 5.19067e-20 -8.02269e-05 7.21493e-20 0)
(0.000179633 3.11703e-06 3.23879e-20 -6.78125e-05 4.97295e-20 0)
(0.00018065 -8.90257e-06 3.06568e-20 -7.76698e-05 2.4435e-20 0)
(0.0001689 6.53102e-06 0 -6.2725e-05 0 0)
(0.000167745 -7.66917e-06 4.4242e-21 -7.3495e-05 1.73903e-20 0)
(0.000156402 8.60989e-06 1.12887e-20 -5.61635e-05 2.82339e-20 0)
(0.000153153 -8.46704e-06 -6.95818e-21 -7.01492e-05 -1.02537e-20 0)
(0.000121786 1.12025e-05 -6.2602e-21 -6.37436e-05 -9.7204e-22 2.87218e-37)
(0.000203401 -8.15559e-05 -3.37009e-20 -6.11807e-05 -4.43281e-20 0)
(0.000216894 -5.52456e-05 2.52516e-21 -5.57945e-05 -3.32361e-20 0)
(0.000216587 -6.22691e-05 -1.00996e-20 -6.8808e-05 -1.24829e-20 0)
(0.000209023 -3.55543e-05 0 -6.27017e-05 0 0)
(0.000212058 -4.42516e-05 -1.44012e-20 -7.30327e-05 -3.32288e-20 0)
(0.000201387 -1.82086e-05 -9.38806e-21 -6.37309e-05 -1.67274e-20 0)
(0.00020635 -2.91557e-05 -3.76275e-20 -7.30481e-05 -5.23588e-20 0)
(0.000194562 -4.37976e-06 -5.2362e-20 -6.39967e-05 -5.68084e-20 0)
(0.000199818 -1.71474e-05 -7.64431e-20 -7.27353e-05 -9.85461e-20 0)
(0.000188843 6.20585e-06 -1.02133e-20 -6.47998e-05 -4.29178e-20 0)
(0.000192509 -8.14944e-06 -6.81011e-21 -7.27929e-05 1.6071e-20 0)
(0.000184139 1.38555e-05 4.96476e-20 -6.60537e-05 8.15853e-20 0)
(0.000184178 -2.0698e-06 2.35975e-20 -7.29317e-05 1.42825e-20 0)
(0.000180093 1.85091e-05 7.91829e-21 -6.70737e-05 1.22867e-20 0)
(0.000174528 1.05277e-06 0 -7.28357e-05 0 0)
(0.00017653 1.95858e-05 -3.71791e-20 -6.68404e-05 -3.86304e-20 0)
(0.000163676 1.00528e-06 -3.74935e-20 -7.26734e-05 -6.38332e-20 0)
(0.000173951 1.59765e-05 -9.81379e-21 -6.40496e-05 -4.07213e-20 0)
(0.000152741 -2.38115e-06 3.6549e-20 -7.28441e-05 -1.90156e-20 0)
(0.000160619 7.75108e-06 1.07048e-20 -6.12503e-05 3.39617e-22 4.01399e-37)
(0.000148325 -4.82179e-05 3.02446e-20 -7.34518e-05 5.74893e-20 0)
(0.000194933 -7.25868e-06 3.46037e-20 -7.41842e-05 8.48849e-20 -1.30702e-35)
(0.00016634 -4.03773e-05 4.98027e-20 -8.50036e-05 9.89645e-20 0)
(0.000203947 2.5482e-07 1.93684e-20 -8.17443e-05 8.56296e-20 -9.14461e-36)
(0.000165556 -2.75961e-05 3.95543e-20 -9.81194e-05 5.23743e-20 0)
(0.000207255 5.13165e-06 0 -8.4556e-05 0 0)
(0.000163302 -1.57283e-05 1.78536e-20 -0.000104057 4.97838e-20 0)
(0.000207686 7.90393e-06 3.16945e-20 -8.45164e-05 6.51711e-20 -1.19714e-35)
(0.000161504 -6.35158e-06 4.2855e-20 -0.000104926 6.36778e-20 0)
(0.000205734 9.17793e-06 -1.00359e-20 -8.32212e-05 3.79748e-21 9.47674e-37)
(0.000160468 4.37781e-07 -2.2297e-20 -0.000102312 -3.99602e-20 0)
(0.000201809 9.43911e-06 -3.71303e-21 -8.10327e-05 -1.99723e-20 -7.01227e-37)
(0.000160074 4.81179e-06 1.49876e-20 -9.73008e-05 4.90676e-20 0)
(0.00019639 8.89937e-06 4.36728e-20 -7.81547e-05 8.32171e-20 -2.88675e-35)
(0.000160176 6.89034e-06 5.69321e-20 -9.08628e-05 7.35819e-20 0)
(0.000190109 7.52037e-06 1.52788e-20 -7.49613e-05 3.17267e-20 -4.32824e-36)
(0.000160754 6.76732e-06 2.61625e-20 -8.38814e-05 5.33018e-20 0)
(0.000183973 5.35619e-06 1.84387e-20 -7.17147e-05 4.6957e-20 -8.70566e-36)
(0.000161062 4.46225e-06 3.61643e-20 -7.68218e-05 5.68594e-20 0)
(0.000179849 -1.35743e-07 5.0384e-21 -6.78496e-05 1.61016e-21 -1.4273e-36)
(0.000897454 0.000190434 0 -0.000160925 0 0)
(0.000734308 9.63493e-05 -1.0676e-19 5.79275e-05 -1.20196e-19 0)
(0.00060494 0.000299609 -9.54776e-20 -7.53201e-05 -9.15924e-20 0)
(0.000586539 0.000139245 -7.34856e-20 1.95716e-05 -1.93506e-19 0)
(0.000448649 0.000340173 0 5.45957e-05 0 0)
(0.000474428 0.000155899 3.85257e-20 -3.91165e-05 3.80368e-20 0)
(0.000354307 0.000343384 4.9015e-20 0.000143366 4.25351e-20 0)
(0.000391611 0.000154229 4.77999e-20 -0.00011411 1.46806e-19 0)
(0.000297134 0.000321896 -3.42256e-20 0.000192969 -2.05204e-20 0)
(0.000331201 0.000142473 -3.95568e-20 -0.000187701 -1.3289e-19 0)
(0.000263836 0.000284703 6.24258e-20 0.00021186 3.53566e-20 0)
(0.00029336 0.000126247 7.65598e-20 -0.000249939 2.4357e-19 0)
(0.000250086 0.000233549 -2.02732e-20 0.000200129 -1.38718e-20 0)
(0.000288748 0.000108659 6.68295e-21 -0.000296515 -3.55815e-20 0)
(0.000257097 0.000166626 5.04085e-20 0.000153649 5.25072e-20 0)
(0.000332772 9.23081e-05 1.19959e-19 -0.000321282 3.06064e-19 0)
(0.000289394 8.31384e-05 8.30619e-20 7.7871e-05 9.04403e-20 0)
(0.000441075 8.15025e-05 -6.64493e-21 -0.000304395 4.23136e-20 0)
(0.000350083 -1.55231e-05 -1.98655e-20 9.77838e-06 -5.11259e-20 0)
(0.000413554 0.00010885 1.17392e-20 -0.000325768 -3.27606e-21 -5.20267e-36)
(0.00105545 0.000139549 7.96368e-20 -0.000706846 -6.90758e-20 0)
(0.000592931 0.000132461 9.70474e-21 -0.000388279 -1.30385e-19 0)
(0.000808065 0.00029027 8.48716e-20 -0.000511591 3.33233e-19 0)
(0.000498848 0.000194762 2.54637e-19 -0.000390631 6.70732e-19 0)
(0.000697124 0.000430962 2.66898e-19 -0.00042813 6.07779e-19 0)
(0.000471769 0.00022605 2.273e-20 -0.000401323 3.07497e-19 0)
(0.000612411 0.00050164 -6.29675e-20 -0.000315151 -2.76364e-19 0)
(0.000464891 0.000230837 1.1442e-19 -0.000410703 -4.06869e-20 0)
(0.000540987 0.000510005 1.64338e-19 -0.000195004 5.59361e-19 0)
(0.00044981 0.000222649 8.18597e-20 -0.000421933 5.17847e-19 0)
(0.000488461 0.000481797 0 -9.98611e-05 0 0)
(0.000458286 0.000200318 5.1117e-20 -0.000425659 5.76082e-20 0)
(0.00045498 0.000430704 9.4366e-20 -4.794e-05 2.00957e-19 0)
(0.000508088 0.000163369 3.99619e-20 -0.000420777 8.73105e-20 0)
(0.000434041 0.000358479 -2.79056e-20 -4.60719e-05 -8.04995e-20 0)
(0.000602136 0.00011574 1.96964e-19 -0.000408709 3.32907e-19 0)
(0.00041167 0.000264965 7.72439e-20 -9.85721e-05 3.66247e-19 0)
(0.00073079 6.16771e-05 1.37485e-19 -0.000397342 4.10549e-19 0)
(0.00036347 0.000145514 1.07531e-19 -0.000204597 2.15473e-19 0)
(0.000910009 -1.28629e-05 0 -0.000318325 0 0)
(0.000996284 6.69926e-05 1.94516e-19 -0.000891963 3.32921e-19 0)
(0.000627638 9.05718e-05 7.17421e-20 -0.000633232 1.72203e-19 0)
(0.00108094 0.000132814 6.5428e-20 -0.000868121 4.79138e-20 0)
(0.000812941 0.000120918 -6.39242e-20 -0.000695377 -8.18675e-20 0)
(0.00107999 0.000206603 -1.78415e-19 -0.000859578 -2.88807e-19 0)
(0.000795005 0.00011354 -2.39662e-19 -0.000644978 -3.28013e-19 0)
(0.000872557 0.00019481 -3.7257e-19 -0.000581235 -6.74944e-19 0)