/*--------------------------------*- C++ -*----------------------------------*\
| =========                 |                                                 |
| \\      /  F ield         | OpenFOAM: The Open Source CFD Toolbox           |
|  \\    /   O peration     | Version:  v2012                                 |
|   \\  /    A nd           | Website:  www.openfoam.com                      |
|    \\/     M anipulation  |                                                 |
\*---------------------------------------------------------------------------*/
FoamFile
{
    version     2.0;
    format      ascii;
    class       volSymmTensorField;
    location    "13";
    object      epsilon;
}
// * * * * * * * * * * * * * * * * * * * * * * * * * * * * * * * * * * * * * //

dimensions      [0 0 0 0 0 0 0];


internalField   nonuniform List<symmTensor> 
8000
(
(0.0107348 -0.000546897 -3.01972e-15 -0.00957634 3.36419e-14 0)
(0.0106039 -0.00060094 -4.17255e-15 -0.00943735 8.99064e-15 0)
(0.0106078 -0.000499476 -1.00684e-15 -0.009254 -1.32294e-15 0)
(0.0103979 -0.000607473 -9.6765e-17 -0.00907983 -2.89092e-15 0)
(0.0104043 -0.000441485 8.94738e-16 -0.00885795 -4.89474e-15 0)
(0.0101387 -0.000599567 -5.75896e-15 -0.00868535 3.86843e-15 0)
(0.010147 -0.000384815 -6.32296e-15 -0.0084165 -4.0766e-15 0)
(0.00983412 -0.000590342 -7.98011e-15 -0.00825272 -3.45427e-15 0)
(0.00984416 -0.000331626 -1.33286e-15 -0.00793951 8.14366e-15 0)
(0.00948838 -0.000582054 7.61815e-16 -0.00778318 8.9824e-15 0)
(0.00950005 -0.000281391 2.02285e-15 -0.00743162 1.89839e-14 0)
(0.00910432 -0.000574436 3.25781e-15 -0.00727863 7.651e-15 0)
(0.00911759 -0.000232828 1.07564e-15 -0.00689574 5.25318e-15 0)
(0.0086842 -0.00056639 -2.95754e-15 -0.00674095 -2.88831e-15 0)
(0.00869904 -0.00018446 -3.82214e-15 -0.00633431 -6.4445e-15 0)
(0.00823071 -0.000556247 -3.37816e-15 -0.00617339 -7.35089e-16 0)
(0.00824709 -0.000135125 5.91541e-16 -0.00575085 -7.25982e-16 0)
(0.00774746 -0.000542243 1.16666e-15 -0.00558056 1.80498e-15 0)
(0.00776528 -8.40431e-05 5.06322e-16 -0.00515013 -1.24943e-15 0)
(0.00723843 -0.000523525 -3.4586e-17 -0.00496907 -3.55098e-15 0)
(0.0072576 -3.09791e-05 -5.28223e-16 -0.00453878 -5.2393e-15 0)
(0.00671128 -0.000497312 5.56234e-15 -0.00434983 -5.09879e-15 0)
(0.00673155 2.31502e-05 5.66696e-15 -0.00392756 2.30935e-15 0)
(0.00617553 -0.000462937 2.86414e-15 -0.00373682 2.55351e-15 0)
(0.00619656 7.66559e-05 -2.90929e-15 -0.00332935 7.15226e-15 0)
(0.00564321 -0.000419986 -6.18407e-15 -0.00314709 -2.10335e-16 0)
(0.00566454 0.000126882 -2.84118e-15 -0.00276021 5.32603e-15 0)
(0.00512811 -0.000368887 -5.72719e-15 -0.00259864 6.55292e-16 0)
(0.00514917 0.000170849 -2.47187e-15 -0.00223668 7.16181e-15 0)
(0.004644 -0.000311321 2.95282e-16 -0.00210678 1.67878e-15 0)
(0.00466419 0.000206036 2.69245e-15 -0.00177324 3.82116e-15 0)
(0.00420291 -0.000249709 5.43562e-15 -0.00168202 -3.26128e-16 0)
(0.00422167 0.000231021 2.32003e-15 -0.0013801 -1.42811e-15 0)
(0.00381374 -0.000186763 9.26071e-16 -0.00132915 -1.75858e-15 0)
(0.00383062 0.000245729 -1.43136e-15 -0.00106217 7.34222e-16 0)
(0.00348186 -0.000124712 -1.35222e-15 -0.00104775 5.85859e-15 0)
(0.00349654 0.000251335 1.76806e-16 -0.000819346 4.55755e-15 0)
(0.00320888 -6.54094e-05 2.60507e-16 -0.000833524 5.33384e-15 0)
(0.00322119 0.000249905 6.20706e-17 -0.000647918 5.34729e-16 0)
(0.00299891 -6.65606e-06 2.66172e-17 -0.000693626 2.77599e-15 0)
(0.0105744 -0.00120152 -1.19969e-14 -0.00939011 6.14157e-15 0)
(0.0103745 -0.00127141 -1.93849e-14 -0.00919393 1.92684e-15 0)
(0.0103834 -0.00119119 -9.97574e-15 -0.00903394 3.22507e-15 0)
(0.0101446 -0.00127686 -1.54294e-14 -0.00878889 4.85115e-15 0)
(0.010159 -0.00115036 -1.14415e-14 -0.0086421 6.96058e-15 0)
(0.00987414 -0.00126373 -1.64871e-14 -0.0083624 -7.02303e-15 0)
(0.00989354 -0.00109485 -1.19701e-14 -0.00821317 -9.13635e-15 0)
(0.00956156 -0.00124084 -6.16987e-15 -0.00790522 -1.35634e-14 0)
(0.00958591 -0.00102979 -6.08237e-17 -0.00774815 -6.16087e-15 0)
(0.00920718 -0.00121065 4.52394e-15 -0.00741426 -5.13478e-16 0)
(0.0092365 -0.000957178 6.36481e-15 -0.00724876 4.1963e-15 0)
(0.00881121 -0.00117419 6.58555e-15 -0.00688793 2.7452e-15 0)
(0.00884562 -0.00087739 -7.08635e-16 -0.00671676 -1.64322e-15 0)
(0.0083756 -0.00113042 -1.98181e-15 -0.00632769 -6.10579e-15 0)
(0.00841516 -0.000789868 -3.84512e-15 -0.00615531 -1.68745e-15 0)
(0.00790309 -0.00107804 -4.5981e-16 -0.00573691 -7.27716e-16 0)
(0.00794784 -0.000693692 5.52943e-16 -0.00556896 2.68015e-15 0)
(0.00739913 -0.0010149 -1.62956e-15 -0.00512399 2.75908e-15 0)
(0.00744876 -0.000589451 -1.39884e-15 -0.00496421 -5.75928e-16 0)
(0.00687264 -0.000939829 -3.8371e-15 -0.0045015 8.82541e-16 0)
(0.00692679 -0.000476336 3.71502e-15 -0.00435181 -2.29807e-15 0)
(0.00633584 -0.000850825 2.92637e-15 -0.00388807 4.91447e-15 0)
(0.0063936 -0.000356875 2.18196e-15 -0.00374549 2.0769e-15 0)
(0.00580417 -0.000748485 -5.5586e-15 -0.00330534 1.13321e-15 0)
(0.00586427 -0.000234745 -7.77893e-15 -0.00316199 -5.23409e-15 0)
(0.00529389 -0.000635266 -3.82441e-15 -0.00277349 -6.85866e-15 0)
(0.00535476 -0.000114636 -5.07022e-15 -0.00261897 -5.63959e-15 0)
(0.00481905 -0.000515379 -2.56549e-15 -0.00230656 -2.71181e-15 0)
(0.00487904 -1.57687e-06 -5.47956e-16 -0.00213148 -1.21994e-15 0)
(0.00438993 -0.000393863 5.72133e-15 -0.00191079 -7.17742e-16 0)
(0.0044475 0.00010018 8.92765e-15 -0.00170989 -1.59031e-15 0)
(0.00401234 -0.000275599 7.25993e-15 -0.00158547 -1.70437e-16 0)
(0.0040662 0.000187703 2.09365e-15 -0.00135897 6.53991e-16 0)
(0.00368821 -0.000164372 2.11528e-16 -0.00132486 1.2889e-15 0)
(0.00373739 0.000259906 -9.56158e-16 -0.00107837 3.84458e-15 0)
(0.0034167 -6.22086e-05 -4.46285e-15 -0.00112072 2.51492e-15 0)
(0.00346053 0.000316955 -4.36511e-15 -0.000863959 5.45571e-15 0)
(0.0031961 3.06469e-05 -3.297e-15 -0.000965092 -2.23736e-15 0)
(0.00323481 0.000365992 1.52862e-15 -0.000723273 1.8735e-16 0)
(0.00301121 0.000112561 -9.26451e-17 -0.000841791 -4.54758e-15 0)
(0.0102943 -0.00188006 -2.41269e-14 -0.00909763 4.48318e-15 0)
(0.0100247 -0.00193971 -2.39186e-14 -0.00880295 -1.66447e-15 0)
(0.0100403 -0.00185536 -2.40925e-14 -0.00869718 -2.3551e-15 0)
(0.00974784 -0.00191297 -2.65345e-14 -0.00833998 -7.38775e-15 0)
(0.0097688 -0.00180346 -2.22782e-14 -0.00827679 -1.33214e-14 0)
(0.00943791 -0.00187194 -2.05103e-14 -0.00785943 -1.19986e-14 0)
(0.0094652 -0.00173179 -8.77792e-15 -0.00782734 -9.95731e-15 0)
(0.00908927 -0.00181834 -2.03006e-15 -0.00735197 2.18098e-15 0)
(0.00912375 -0.00164301 5.01162e-15 -0.00734569 3.56876e-15 0)
(0.00869864 -0.00175256 2.79941e-15 -0.00681235 7.79585e-15 0)
(0.00874094 -0.0015387 2.70964e-15 -0.00683012 2.06909e-15 0)
(0.0082655 -0.00167426 -6.60236e-15 -0.00623926 -1.75294e-15 0)
(0.00831626 -0.00141867 -3.55423e-15 -0.00628195 -5.36593e-15 0)
(0.00779142 -0.00158225 -1.08763e-14 -0.00563554 -1.84444e-15 0)
(0.00785106 -0.00128288 -5.53453e-15 -0.00570435 -1.70567e-15 0)
(0.00728373 -0.00147429 -5.49105e-15 -0.00501158 -3.51282e-17 0)
(0.00735216 -0.00113154 -2.27346e-15 -0.00510534 1.1176e-15 0)
(0.00675351 -0.00134957 1.26689e-15 -0.00438368 3.57657e-15 0)
(0.00683006 -0.000966499 -6.77193e-16 -0.00449704 6.38292e-15 0)
(0.00621919 -0.00120742 3.76327e-15 -0.00377765 4.18329e-15 0)
(0.00630247 -0.00079054 -2.4709e-16 -0.00389735 5.44703e-15 0)
(0.00570171 -0.00104992 6.55801e-15 -0.00322159 1.30104e-15 0)
(0.00578949 -0.000609505 1.77712e-15 -0.00332713 -4.25007e-17 0)
(0.00522045 -0.000882178 4.09753e-15 -0.00273714 -7.08288e-15 0)
(0.00531018 -0.00043004 -8.81456e-17 -0.0028059 -7.25982e-15 0)
(0.00478866 -0.000711025 4.16702e-15 -0.002334 -7.11714e-15 0)
(0.00487794 -0.000258432 2.24321e-15 -0.00234737 -3.76565e-15 0)
(0.00441227 -0.000543184 -4.0354e-16 -0.00201021 -4.12517e-15 0)
(0.00449915 -9.95859e-05 9.78818e-16 -0.00195779 -2.39132e-15 0)
(0.00409101 -0.000383897 -2.35749e-15 -0.00175597 -2.87314e-15 0)
(0.00417401 4.32991e-05 1.55214e-15 -0.00163667 2.84495e-16 0)
(0.00382003 -0.000236897 -6.44515e-15 -0.00155764 -6.63098e-16 0)
(0.00389823 0.000168892 -1.84932e-15 -0.00137861 -3.89012e-16 0)
(0.00359188 -0.000104128 -4.23934e-15 -0.00140113 -6.26842e-15 0)
(0.00366493 0.000277822 -5.33829e-15 -0.00117578 -5.06019e-15 0)
(0.00339808 1.43539e-05 -8.70799e-15 -0.00127374 -7.98493e-15 0)
(0.0034662 0.000372639 -6.3905e-15 -0.0010206 -6.89943e-15 0)
(0.00322636 0.000117858 -3.48398e-15 -0.0011631 -4.52503e-15 0)
(0.00328922 0.000450099 -1.65352e-15 -0.000896642 -4.18025e-15 0)
(0.0030735 0.000207603 -4.96684e-15 -0.00106491 2.10552e-15 0)
(0.00985481 -0.00252993 -2.0038e-14 -0.00866085 -1.694e-14 0)
(0.009513 -0.0025552 -1.35031e-14 -0.00823665 -1.94007e-14 0)
(0.00953844 -0.0024612 -2.02193e-14 -0.00820727 -8.50405e-15 0)
(0.00917331 -0.00247625 -2.11439e-14 -0.00770294 -1.52226e-14 0)
(0.0092029 -0.00237171 -2.5729e-14 -0.00773783 -1.26171e-14 0)
(0.00880095 -0.00238442 -1.99424e-14 -0.0071477 -1.2405e-14 0)
(0.00883705 -0.00226055 -7.83965e-15 -0.00724376 1.74773e-16 0)
(0.00838964 -0.00227733 -3.93652e-15 -0.00656469 -9.22786e-15 0)
(0.00843412 -0.00212727 -4.35849e-17 -0.00671994 -2.43165e-15 0)
(0.00793656 -0.0021535 -4.4706e-15 -0.00595211 -6.97012e-15 0)
(0.0079909 -0.00197177 -1.03741e-14 -0.00616498 -5.11743e-17 0)
(0.00744315 -0.00201197 -1.17063e-14 -0.00531404 -2.64155e-15 0)
(0.00750842 -0.00179451 -1.47306e-14 -0.00558134 -9.63205e-16 0)
(0.00691875 -0.00185162 -1.24996e-14 -0.00466445 -7.75638e-15 0)
(0.00699536 -0.0015964 -8.33274e-15 -0.00497863 -6.59845e-15 0)
(0.00637899 -0.00167256 1.3275e-15 -0.00402588 -1.51797e-14 0)
(0.00646617 -0.00138135 7.27695e-15 -0.00437213 -5.27096e-15 0)
(0.00584996 -0.00147658 9.8966e-15 -0.00343385 -4.63171e-15 0)
(0.00594553 -0.00115545 7.65837e-15 -0.00378612 2.58691e-15 0)
(0.00535971 -0.00126909 1.46788e-14 -0.00292313 -1.25334e-15 0)
(0.00546042 -0.000927447 1.65315e-14 -0.0032472 -3.29077e-15 0)
(0.00492933 -0.00105829 1.86457e-14 -0.00251276 -3.72879e-15 0)
(0.00503181 -0.000706065 9.97639e-15 -0.00277619 -5.8252e-15 0)
(0.004568 -0.000852623 4.35632e-15 -0.00220225 -1.68355e-15 0)
(0.00466961 -0.000497808 2.50136e-15 -0.0023828 -3.201e-15 0)
(0.00427381 -0.000658455 9.20054e-16 -0.001977 4.2787e-15 0)
(0.00437295 -0.000306199 9.72529e-17 -0.00206576 -6.12791e-16 0)
(0.00403752 -0.000479271 -4.3496e-15 -0.00181633 5.13955e-15 0)
(0.00413354 -0.000132159 -7.69155e-15 -0.00181615 5.79831e-16 0)
(0.00384656 -0.00031609 -4.34808e-15 -0.00169958 5.52206e-15 0)
(0.00393929 2.45176e-05 -6.52093e-15 -0.0016212 7.08635e-16 0)
(0.00368714 -0.000169208 -1.48861e-15 -0.00160857 -1.05038e-15 0)
(0.00377685 0.000164839 -3.86898e-15 -0.00146739 -8.09899e-15 0)
(0.0035468 -3.77776e-05 -4.02673e-15 -0.00152946 -5.83604e-15 0)
(0.003634 0.000290374 -7.79162e-15 -0.00134239 -6.8578e-15 0)
(0.00341528 7.93345e-05 -1.29287e-14 -0.00145345 -3.88882e-15 0)
(0.00349971 0.000399754 -1.04095e-14 -0.00123366 -2.96855e-15 0)
(0.00328704 0.000182167 -7.12679e-15 -0.00137574 -2.22131e-15 0)
(0.00336887 0.000494473 -3.09149e-15 -0.00113696 2.21134e-15 0)
(0.00315711 0.000271634 -5.32528e-15 -0.00129286 -5.66821e-16 0)
(0.00924786 -0.00309271 2.03917e-15 -0.00805973 -2.44639e-14 0)
(0.00881634 -0.00306642 9.9224e-15 -0.00748006 -7.88128e-15 0)
(0.00885604 -0.00296076 -7.59115e-15 -0.0075415 -9.75131e-15 0)
(0.00839305 -0.0029153 3.48484e-15 -0.00685423 -1.35079e-14 0)
(0.00843626 -0.00280774 -5.55068e-15 -0.00700446 -1.86574e-14 0)
(0.00793317 -0.00274678 7.53781e-15 -0.00620107 -1.39602e-14 0)
(0.00798267 -0.00262977 -3.79991e-15 -0.00644284 -1.65163e-14 0)
(0.00743472 -0.0025583 -8.55436e-16 -0.00552232 -1.78252e-14 0)
(0.00749274 -0.00242555 -5.35596e-15 -0.0058548 -1.43778e-14 0)
(0.00690107 -0.00234953 -8.80806e-15 -0.00482678 -1.1666e-14 0)
(0.00696914 -0.00219619 -9.22764e-15 -0.00524379 -6.39029e-15 0)
(0.00634556 -0.00212191 -8.09422e-15 -0.00413555 -8.8987e-15 0)
(0.00642429 -0.00194496 -8.6875e-15 -0.00462248 -1.14214e-14 0)
(0.00579023 -0.00187923 2.00621e-15 -0.00348031 -1.76356e-14 0)
(0.00587886 -0.00167849 6.99527e-15 -0.00401146 -2.17569e-14 0)
(0.0052713 -0.00162769 1.11287e-14 -0.00291002 -1.54594e-14 0)
(0.00536682 -0.00140788 7.76592e-15 -0.0034435 -7.89082e-15 0)
(0.00482368 -0.00137753 3.44971e-15 -0.00246413 -1.9997e-15 0)
(0.00492185 -0.00114613 1.27513e-14 -0.00295109 -2.39565e-15 0)
(0.00446581 -0.00113963 1.27958e-14 -0.00215078 -7.74988e-16 0)
(0.00456321 -0.000902797 1.6979e-14 -0.00255283 -2.27682e-16 0)
(0.00419683 -0.000921294 6.54489e-15 -0.00195134 3.77563e-15 0)
(0.00429184 -0.000681893 3.08976e-15 -0.0022494 3.73096e-15 0)
(0.00400271 -0.000724748 -3.53819e-15 -0.00183486 7.02997e-15 0)
(0.00409529 -0.000482797 -3.34173e-15 -0.00202817 8.29154e-15 0)
(0.00386389 -0.000548715 4.14924e-15 -0.00177119 7.08591e-15 0)
(0.00395496 -0.000302576 3.66178e-15 -0.00187023 8.26509e-15 0)
(0.0037611 -0.000390053 1.0144e-14 -0.00173593 5.45571e-15 0)
(0.00385182 -0.000137871 4.16377e-15 -0.00175617 6.91808e-15 0)
(0.00367662 -0.000246148 1.05224e-14 -0.00171058 4.60959e-15 0)
(0.00376797 1.34026e-05 5.69651e-15 -0.00166845 1.27459e-15 0)
(0.00359728 -0.000114645 3.18875e-15 -0.00168317 -1.02869e-15 0)
(0.00368985 0.000152547 -4.58596e-15 -0.00159334 -1.58033e-15 0)
(0.00351596 6.28386e-06 -7.62866e-15 -0.00164948 -2.97418e-15 0)
(0.00360938 0.000279259 -1.2053e-14 -0.00152165 -4.58401e-15 0)
(0.00342749 0.0001162 -1.10119e-14 -0.00160546 -8.9785e-15 0)
(0.00352128 0.00039282 -8.63892e-15 -0.00144834 -7.01826e-15 0)
(0.00333129 0.000215866 -7.87705e-15 -0.00155119 -6.62057e-15 0)
(0.00342415 0.000492098 -8.20427e-15 -0.0013694 -3.8693e-15 0)
(0.00322792 0.000303814 -9.52049e-15 -0.00148777 -2.50754e-15 0)
(0.00847373 -0.00351251 1.44411e-14 -0.00728904 -1.02045e-14 0)
(0.00791939 -0.00341632 1.51051e-14 -0.00652071 -5.16861e-15 0)
(0.00798065 -0.00329494 2.07369e-14 -0.00668689 -6.77236e-15 0)
(0.00738687 -0.00316667 2.7475e-14 -0.0057794 -7.79325e-15 0)
(0.00745157 -0.00305014 2.18295e-14 -0.00606133 -1.026e-14 0)
(0.00681843 -0.00289292 1.94348e-14 -0.00501472 -6.72205e-15 0)
(0.00688855 -0.0027769 7.26589e-15 -0.00541374 -1.21114e-14 0)
(0.00622283 -0.00259706 1.09442e-14 -0.00424327 -9.38572e-15 0)
(0.00629947 -0.00247818 -1.22883e-15 -0.0047518 -1.26696e-14 0)
(0.0056209 -0.00228491 5.29308e-15 -0.00349665 -7.84355e-15 0)
(0.00570392 -0.00216129 -1.87415e-15 -0.0040945 -9.32978e-15 0)
(0.00504376 -0.00196693 3.35886e-16 -0.00281963 -7.01002e-15 0)
(0.00513149 -0.0018384 4.17006e-15 -0.00347048 -1.2902e-14 0)
(0.00454153 -0.00165791 1.56797e-15 -0.00227994 -1.36128e-14 0)
(0.0046295 -0.00152812 3.74006e-15 -0.00292424 -1.25225e-14 0)
(0.0041538 -0.00137476 -5.10464e-15 -0.00191694 -6.50651e-15 0)
(0.00423715 -0.00124793 -1.16769e-15 -0.00249248 -3.85716e-15 0)
(0.00388762 -0.0011286 -4.35632e-16 -0.00171494 -3.68108e-15 0)
(0.00396455 -0.00100482 4.87024e-15 -0.00218458 -1.73906e-16 0)
(0.00372461 -0.00092039 -4.27176e-17 -0.0016297 4.30515e-15 0)
(0.0037964 -0.000795817 -1.35569e-15 -0.00198541 7.30015e-15 0)
(0.00363503 -0.000744026 -6.18776e-15 -0.00161432 7.30319e-15 0)
(0.00370486 -0.000612686 -4.18264e-15 -0.00186766 6.81703e-15 0)
(0.00359075 -0.000590683 -7.19693e-16 -0.0016347 8.61464e-15 0)
(0.0036617 -0.000447502 7.0484e-15 -0.00180346 7.59809e-15 0)
(0.003569 -0.000452738 1.28404e-14 -0.00166755 1.00644e-14 0)
(0.00364354 -0.000294058 1.56155e-14 -0.00176947 6.6518e-15 0)
(0.00355218 -0.000324971 1.39745e-14 -0.00169755 7.51049e-15 0)
(0.00363172 -0.000149179 1.41417e-14 -0.00174738 3.9994e-15 0)
(0.00352888 -0.000204362 6.98335e-15 -0.00171592 5.66778e-15 0)
(0.00361398 -1.14066e-05 9.58001e-16 -0.0017249 3.69453e-15 0)
(0.00349703 -8.86631e-05 -2.31586e-16 -0.00172412 3.35452e-15 0)
(0.00358667 0.000118612 -1.25811e-15 -0.00169697 -3.07003e-15 0)
(0.00345196 2.04719e-05 3.21574e-15 -0.00171729 -2.53573e-15 0)
(0.00354529 0.000239526 -3.30964e-15 -0.00165918 -6.90073e-15 0)
(0.00339525 0.000123041 1.52742e-15 -0.00169792 -2.97505e-16 0)
(0.0034909 0.000350548 -6.26756e-15 -0.00161109 -2.60512e-15 0)
(0.00332739 0.000217756 -4.73254e-15 -0.00166589 2.19399e-15 0)
(0.0034239 0.000449991 -7.92259e-15 -0.00155368 -1.04083e-15 0)
(0.00324903 0.000303342 -7.83401e-15 -0.00162161 4.29344e-17 0)
(0.00752894 -0.00373239 3.10199e-14 -0.00634644 3.11513e-15 0)
(0.00681605 -0.00353924 3.96783e-14 -0.00535398 9.18016e-15 0)
(0.00690826 -0.00339987 2.96338e-14 -0.00563985 -6.9866e-16 0)
(0.00615996 -0.00316257 3.17962e-14 -0.00449372 -9.38919e-16 0)
(0.00625449 -0.0030362 2.69251e-14 -0.00491342 -4.86373e-15 0)
(0.00548524 -0.00276383 2.77838e-14 -0.00363882 -1.04821e-15 0)
(0.0055822 -0.00264885 2.3156e-14 -0.00418148 -6.96925e-16 0)
(0.00482198 -0.00235554 2.61544e-14 -0.00283216 -4.28477e-16 0)
(0.00491991 -0.00225141 1.92498e-14 -0.00347234 -4.84768e-15 0)
(0.00421512 -0.00195532 1.40677e-14 -0.00213282 1.19392e-15 0)
(0.00430974 -0.00186452 1.74817e-15 -0.0028265 -6.46184e-17 0)
(0.00373485 -0.00159135 3.09648e-15 -0.0016352 7.2763e-15 0)
(0.00381805 -0.0015193 -8.38305e-16 -0.0023048 -1.35916e-15 0)
(0.00342132 -0.0012882 2.47285e-15 -0.00136894 4.22665e-15 0)
(0.00348714 -0.00123718 -3.78668e-15 -0.00194457 -2.98156e-15 0)
(0.00325747 -0.00105197 1.70588e-15 -0.00127729 2.6151e-15 0)
(0.00330745 -0.00101599 8.69747e-16 -0.00173558 -1.14752e-15 0)
(0.00320009 -0.000871273 8.0502e-15 -0.00128831 2.34014e-15 0)
(0.00324062 -0.00083958 1.63606e-15 -0.00164061 4.01025e-15 0)
(0.00320421 -0.000728514 2.95619e-15 -0.00134716 5.51165e-15 0)
(0.0032427 -0.000690052 -3.69713e-15 -0.00161763 5.86944e-15 0)
(0.00323876 -0.00060765 3.74462e-15 -0.0014255 6.5269e-15 0)
(0.00328064 -0.000554632 4.07248e-15 -0.00163413 9.72269e-15 0)
(0.00328184 -0.000498071 9.05851e-15 -0.00150528 1.04222e-14 0)
(0.00333068 -0.000425567 9.73202e-15 -0.00166686 1.15537e-14 0)
(0.00331887 -0.000393403 9.1988e-15 -0.00157535 1.0456e-14 0)
(0.0033765 -0.000299218 1.10972e-14 -0.00169979 9.59129e-15 0)
(0.00334142 -0.000290546 9.43169e-15 -0.00162961 7.25765e-15 0)
(0.00340836 -0.000174501 5.62094e-15 -0.00172331 6.65006e-15 0)
(0.00335368 -0.000187584 3.05984e-15 -0.00167534 5.94316e-15 0)
(0.00342838 -5.25583e-05 3.17151e-15 -0.0017375 4.48903e-15 0)
(0.00334909 -8.71513e-05 5.94707e-15 -0.0017035 3.04097e-15 0)
(0.00343077 6.49299e-05 6.37706e-15 -0.00173742 2.03613e-15 0)
(0.00333194 1.08348e-05 1.69461e-15 -0.00171961 4.73449e-15 0)
(0.00341874 0.000176454 2.99977e-15 -0.00172492 5.74801e-15 0)
(0.00330132 0.000104145 -5.09683e-15 -0.00172121 7.40337e-15 0)
(0.00339206 0.000280792 -5.0062e-15 -0.00169988 5.28093e-15 0)
(0.00325805 0.000191847 -1.04161e-14 -0.00170913 1.15489e-15 0)
(0.00335114 0.000376286 -9.76107e-15 -0.00166252 -9.61904e-16 0)
(0.00320347 0.000272527 -1.24161e-14 -0.00168457 -5.31736e-15 0)
(0.00641021 -0.0036948 3.44477e-14 -0.00523395 1.21357e-14 0)
(0.00552896 -0.00337175 1.64296e-14 -0.00400848 2.18098e-15 0)
(0.00565843 -0.00322089 2.45199e-14 -0.00442093 -9.06827e-16 0)
(0.00477124 -0.00285589 1.07267e-14 -0.00307383 -3.21661e-15 0)
(0.00489842 -0.00272795 1.96297e-14 -0.00361239 4.84855e-16 0)
(0.00404332 -0.00234542 1.05636e-14 -0.00221568 5.83388e-15 0)
(0.00416624 -0.00223842 2.2263e-14 -0.00284606 4.22882e-15 0)
(0.00339954 -0.00186863 1.29853e-14 -0.00150491 1.55865e-15 0)
(0.00351419 -0.00178132 1.22007e-14 -0.00217521 2.63635e-15 0)
(0.00294523 -0.00146562 -9.82287e-16 -0.00107225 2.78727e-15 0)
(0.00303643 -0.00140794 2.56782e-15 -0.0016831 8.41428e-15 0)
(0.00271335 -0.00116545 4.86547e-15 -0.000917419 2.80461e-15 0)
(0.00277253 -0.00114114 8.34532e-15 -0.00140028 7.06119e-15 0)
(0.0026452 -0.000958179 7.19693e-15 -0.000919384 1.89519e-15 0)
(0.00267841 -0.00095871 6.23503e-15 -0.00128384 4.41704e-15 0)
(0.00267164 -0.000813546 9.51583e-15 -0.000987451 2.60989e-15 0)
(0.00269012 -0.000826396 1.15504e-14 -0.00127306 4.0792e-15 0)
(0.0027406 -0.000704207 1.46634e-14 -0.00107702 4.49554e-15 0)
(0.00275467 -0.000717507 1.17439e-14 -0.00131762 4.19283e-15 0)
(0.00282764 -0.000611515 9.57741e-15 -0.00117656 4.95567e-15 0)
(0.00284354 -0.000617466 7.43069e-15 -0.00138852 6.94843e-15 0)
(0.00291481 -0.000526051 8.6129e-15 -0.00127517 5.42535e-15 0)
(0.00293693 -0.000518585 9.54228e-15 -0.00146627 5.95097e-15 0)
(0.00299019 -0.000442785 1.32583e-14 -0.00136522 -1.02349e-16 0)
(0.00302149 -0.000417422 1.19776e-14 -0.00153815 4.07964e-15 0)
(0.00304743 -0.000358612 1.01399e-14 -0.00144125 4.29344e-16 0)
(0.00308938 -0.000313066 5.8265e-15 -0.00159686 5.13522e-15 0)
(0.0030975 -0.000272211 9.92479e-15 -0.00151693 9.67542e-16 0)
(0.0031486 -0.000207814 1.06646e-14 -0.00164762 2.83541e-15 0)
(0.00312775 -0.000186183 1.27029e-14 -0.00157356 -1.01048e-16 0)
(0.00318841 -0.000102633 7.15508e-15 -0.00168199 1.94809e-15 0)
(0.00314712 -9.94113e-05 3.06916e-15 -0.00162203 1.80151e-15 0)
(0.00321528 4.32726e-07 -2.41864e-15 -0.00170447 5.56022e-15 0)
(0.00315151 -1.46283e-05 -6.67738e-15 -0.00165535 3.7457e-15 0)
(0.00322624 9.983e-05 -9.72356e-15 -0.00171281 4.71888e-15 0)
(0.00314258 6.74853e-05 -8.91886e-15 -0.00167526 1.21561e-15 0)
(0.00322238 0.000194106 -9.31351e-15 -0.00170757 2.21611e-16 0)
(0.00312227 0.000145674 -4.81256e-15 -0.00168316 9.41955e-16 0)
(0.0032052 0.000281373 -8.98478e-15 -0.00168969 -2.55308e-15 0)
(0.00308563 0.000217336 -1.11413e-15 -0.00167278 2.11203e-16 0)
(0.0051364 -0.0033552 6.29097e-15 -0.00397779 3.80251e-15 0)
(0.00413333 -0.0028827 7.97236e-15 -0.00257555 6.41891e-15 0)
(0.00429637 -0.00273854 5.07277e-15 -0.00309996 2.26598e-15 0)
(0.00335453 -0.00225984 4.31903e-15 -0.00168213 4.00114e-15 0)
(0.00350585 -0.00214672 1.61069e-15 -0.00228806 3.61733e-15 0)
(0.00269033 -0.00170731 4.21841e-15 -0.000979818 2.84191e-15 0)
(0.00282575 -0.00162054 4.66554e-15 -0.00160556 2.5006e-15 0)
(0.00227933 -0.00130086 5.02983e-15 -0.0006593 -1.00614e-15 0)
(0.00238469 -0.00123613 6.99094e-16 -0.00116221 -1.59638e-15 0)
(0.00213836 -0.00104692 4.39362e-15 -0.000644673 -4.47992e-16 0)
(0.00220361 -0.00100848 4.82643e-15 -0.000965612 -1.22688e-15 0)
(0.00214147 -0.000896973 1.0947e-14 -0.000718177 -4.70544e-16 0)
(0.00218 -0.000876948 9.63379e-15 -0.000923059 -1.19306e-15 0)
(0.00220403 -0.000796279 7.64709e-15 -0.000796632 1.00484e-15 0)
(0.00222951 -0.000787475 8.40387e-15 -0.000957716 2.42905e-15 0)
(0.00228943 -0.000713676 6.66047e-15 -0.000872567 2.51752e-15 0)
(0.00230808 -0.000713292 1.1084e-14 -0.00102545 3.17498e-15 0)
(0.00238891 -0.000637103 8.87485e-15 -0.000953633 1.51355e-16 0)
(0.00240383 -0.00064294 1.05126e-14 -0.00111139 2.47675e-15 0)
(0.00249024 -0.000561828 9.85843e-15 -0.00103528 -3.02276e-16 0)
(0.00250426 -0.000570675 9.97184e-15 -0.00120283 1.11152e-15 0)
(0.00258473 -0.000486223 1.17103e-14 -0.00111472 -1.37911e-15 0)
(0.00260031 -0.000494265 1.38448e-14 -0.0012906 -2.54874e-15 0)
(0.0026627 -0.000411269 1.48117e-14 -0.00118763 -2.83194e-15 0)
(0.00268392 -0.000411969 1.22376e-14 -0.0013682 -3.55185e-15 0)
(0.00274487 -0.000335912 4.92033e-15 -0.00127703 -5.00468e-16 0)
(0.00277065 -0.000328059 7.03821e-15 -0.00144613 -3.14419e-16 0)
(0.0028029 -0.000263471 9.11402e-15 -0.00134824 -1.12844e-15 0)
(0.00283775 -0.000240816 1.40448e-14 -0.00150744 -2.4503e-15 0)
(0.00285494 -0.000189893 7.19932e-15 -0.00142081 -1.37824e-15 0)
(0.00289744 -0.000152906 1.97824e-15 -0.00156091 1.02826e-15 0)
(0.00289089 -0.000117286 -5.52076e-16 -0.0014794 1.64669e-15 0)
(0.0029414 -6.53977e-05 -3.71296e-15 -0.00160018 9.02924e-16 0)
(0.00291419 -4.54447e-05 1.71824e-15 -0.0015275 -9.85757e-16 0)
(0.00297154 2.00968e-05 -1.37802e-15 -0.00162641 -1.12887e-15 0)
(0.00292728 2.4307e-05 3.5332e-15 -0.0015665 2.01662e-16 0)
(0.00298981 0.000101632 -6.44883e-16 -0.00164055 3.22398e-15 0)
(0.00292187 8.97645e-05 2.94903e-16 -0.00158624 3.51455e-15 0)
(0.00298888 0.000177626 3.10559e-15 -0.00163676 3.46034e-15 0)
(0.00290206 0.00015081 6.23178e-15 -0.0015908 4.30038e-15 0)
(0.00377374 -0.002709 1.02045e-14 -0.00265477 9.11597e-15 0)
(0.00276917 -0.00211708 1.01455e-14 -0.00123101 6.18516e-15 0)
(0.00294833 -0.00200279 7.01522e-15 -0.00181651 5.12611e-15 0)
(0.00210595 -0.00149383 1.17094e-15 -0.000565174 3.99463e-15 0)
(0.0022619 -0.00140761 1.16053e-15 -0.00114263 2.12287e-15 0)
(0.00183618 -0.00112143 4.08484e-15 -0.000445974 2.15409e-15 0)
(0.00192433 -0.00107389 7.46061e-15 -0.000778453 -5.52076e-16 0)
(0.00183834 -0.000959752 7.87825e-15 -0.000544715 -1.34051e-15 0)
(0.00188504 -0.000929814 8.78854e-15 -0.000696602 -6.63965e-16 0)
(0.00189961 -0.000875784 3.97815e-15 -0.000619022 -7.72386e-16 0)
(0.00193961 -0.000846061 5.70464e-15 -0.000728269 1.67401e-16 0)
(0.00196847 -0.000808507 -5.10009e-16 -0.00068605 -1.51745e-15 0)
(0.00201006 -0.000774934 3.32807e-15 -0.000785982 4.51028e-17 0)
(0.002039 -0.000743378 -1.12974e-15 -0.000753435 3.32633e-16 0)
(0.00208187 -0.000707315 1.99363e-15 -0.000849011 1.46584e-15 0)
(0.00211 -0.000678773 -1.88131e-15 -0.000820794 -1.09157e-15 0)
(0.00215513 -0.000640405 1.31188e-15 -0.000919379 -2.7491e-15 0)
(0.00217858 -0.000611786 -4.05925e-16 -0.000887382 -2.86143e-15 0)
(0.00222437 -0.000573472 7.08721e-15 -0.000990501 -2.41127e-15 0)
(0.00224411 -0.000542709 7.24551e-15 -0.000951597 -8.68229e-16 0)
(0.0022881 -0.000507468 1.18551e-14 -0.00105867 -1.12453e-15 0)
(0.00230837 -0.00047279 1.03368e-14 -0.00101279 -2.94903e-17 0)
(0.00234581 -0.000445753 1.13663e-14 -0.00111906 -7.22079e-16 0)
(0.0023788 -0.000405216 5.7402e-15 -0.00107259 -8.16187e-16 0)
(0.00241652 -0.000381688 2.49713e-15 -0.00119857 -8.97719e-17 0)
(0.00243851 -0.000333559 2.71267e-15 -0.00112838 -4.55365e-17 0)
(0.00247272 -0.000316439 7.43199e-15 -0.00126422 -1.27025e-15 0)
(0.00250671 -0.000263638 4.4565e-15 -0.00119506 -1.31535e-15 0)
(0.00253851 -0.000250073 9.36751e-17 -0.00133334 -1.92988e-16 0)
(0.00256115 -0.000197237 -2.2404e-15 -0.00125327 1.419e-15 0)
(0.00259504 -0.000181102 2.70639e-15 -0.00139205 7.82794e-16 0)
(0.00260722 -0.000132931 1.72909e-15 -0.00131042 1.08073e-15 0)
(0.00264458 -0.000111042 3.43584e-15 -0.00144241 7.54605e-17 0)
(0.0026488 -7.05308e-05 -5.42318e-16 -0.0013672 1.2078e-15 0)
(0.00268884 -4.24063e-05 2.56154e-15 -0.00148483 1.26505e-15 0)
(0.00267137 -1.21073e-05 -2.90219e-15 -0.00140763 3.03316e-15 0)
(0.00271526 2.40041e-05 -7.41377e-16 -0.0015096 2.23736e-15 0)
(0.00268037 4.25498e-05 -5.17772e-15 -0.00143722 1.59595e-15 0)
(0.0027277 8.68391e-05 -3.50197e-16 -0.00151986 3.85456e-15 0)
(0.00268314 9.32523e-05 -2.54115e-15 -0.00146083 3.01408e-15 0)
(0.00245861 -0.00185473 3.9556e-15 -0.00139506 3.94476e-15 0)
(0.00167887 -0.00131214 2.63158e-15 -0.000296439 3.25955e-15 0)
(0.00182674 -0.00123779 3.2461e-15 -0.000729381 4.45997e-15 0)
(0.00160896 -0.0010606 2.71137e-15 -0.000377124 1.10979e-15 0)
(0.00168283 -0.00100631 3.46381e-15 -0.000515031 7.70217e-16 0)
(0.00166789 -0.000966943 4.32597e-15 -0.000451397 -1.94809e-15 0)
(0.00173272 -0.000917022 5.44703e-15 -0.000561993 -1.23729e-15 0)
(0.00173162 -0.00088846 1.31449e-15 -0.000519855 -6.04551e-16 0)
(0.00179002 -0.00084488 -6.1149e-16 -0.000625821 -8.27029e-16 0)
(0.00179856 -0.000817032 -4.25181e-15 -0.000589167 -6.08888e-16 0)
(0.00185208 -0.000778162 -5.27746e-15 -0.00069122 -2.17838e-15 0)
(0.00186791 -0.000750992 -7.14099e-15 -0.00065914 -9.59736e-16 0)
(0.00192018 -0.000712928 -6.25975e-15 -0.000758275 3.03577e-18 0)
(0.00193735 -0.00068745 -6.3699e-15 -0.000729166 4.44089e-16 0)
(0.00199013 -0.000648192 -4.66467e-15 -0.000825562 -1.69309e-15 0)
(0.00200462 -0.000624867 -1.09817e-14 -0.000797832 -1.88348e-15 0)
(0.00205893 -0.000583076 -9.17365e-15 -0.000890638 -1.42681e-15 0)
(0.00206796 -0.000562641 -1.22372e-14 -0.00086371 -7.43763e-16 0)
(0.00212372 -0.000518072 -2.29374e-15 -0.00095135 -7.61544e-16 0)
(0.00212666 -0.000501126 -3.1971e-15 -0.0009257 -2.61249e-15 0)
(0.00218353 -0.000453907 5.65086e-15 -0.00100702 -1.53046e-15 0)
(0.0021808 -0.00044077 -1.02826e-15 -0.000983396 -1.05645e-15 0)
(0.00223941 -0.000390683 -1.04691e-15 -0.00106072 3.60822e-16 0)
(0.00222931 -0.000380635 -5.44009e-15 -0.00103667 -2.01228e-16 0)
(0.00228638 -0.000330336 2.10205e-15 -0.00110495 -1.31752e-15 0)
(0.00227581 -0.000323604 3.33848e-15 -0.00108574 -2.22999e-15 0)
(0.00233541 -0.000271528 1.2503e-15 -0.00115913 -9.28511e-16 0)
(0.00231635 -0.000263964 -8.25512e-15 -0.00113169 -5.408e-16 0)
(0.00237181 -0.000216553 -6.62014e-15 -0.00120478 6.63532e-16 0)
(0.00235514 -0.000206116 -6.76022e-15 -0.00117352 6.09322e-16 0)
(0.00240661 -0.000164051 -2.71766e-15 -0.00125022 1.66794e-15 0)
(0.00239081 -0.000149677 -9.98724e-15 -0.001212 3.60606e-15 0)
(0.0024417 -0.000110438 -8.3772e-15 -0.00129861 3.84458e-15 0)
(0.00241699 -9.25407e-05 -1.10393e-14 -0.00124605 4.50594e-15 0)
(0.00246399 -5.80525e-05 -7.53477e-15 -0.00133398 3.35712e-15 0)
(0.00243814 -3.81743e-05 -6.65266e-15 -0.00127588 1.40382e-15 0)
(0.00248081 -8.03455e-06 -5.94164e-15 -0.00136108 5.50341e-16 0)
(0.00246105 1.21348e-05 -5.61573e-15 -0.00130664 -1.85962e-15 0)
(0.00249931 3.8895e-05 -6.59217e-15 -0.00138426 -1.14882e-15 0)
(0.00247635 5.71145e-05 -6.44276e-15 -0.00132977 -3.82029e-15 0)
(0.00151255 -0.00116083 1.0404e-15 -0.000400597 3.02579e-15 0)
(0.00143727 -0.00109867 3.4495e-15 -0.000293678 3.05094e-15 0)
(0.00153079 -0.00102617 4.46084e-15 -0.000392256 4.55365e-17 0)
(0.00149425 -0.0010029 4.34765e-15 -0.000347569 1.40946e-16 0)
(0.00158369 -0.000938014 3.42044e-15 -0.000460175 -1.43722e-15 0)
(0.00155976 -0.000913113 9.49761e-17 -0.000417339 2.35445e-15 0)
(0.00164042 -0.00085713 -2.79247e-15 -0.00052936 2.26165e-15 0)
(0.00162918 -0.000832524 -3.55662e-15 -0.000491403 4.14599e-15 0)
(0.00170188 -0.000783746 -2.89742e-15 -0.000599312 1.27372e-15 0)
(0.0017004 -0.000760109 -5.0385e-15 -0.00056631 3.13291e-15 0)
(0.00176701 -0.000716472 -8.19006e-15 -0.000669523 2.2018e-15 0)
(0.00177192 -0.000693982 -7.81233e-15 -0.00064054 4.52242e-15 0)
(0.00183497 -0.00065292 -6.80879e-15 -0.000739246 1.55952e-15 0)
(0.00184211 -0.000632002 -5.18162e-15 -0.000713099 3.59695e-15 0)
(0.00190344 -0.000591561 -1.09413e-14 -0.000807038 2.01835e-15 0)