/*--------------------------------*- C++ -*----------------------------------*\
| =========                 |                                                 |
| \\      /  F ield         | OpenFOAM: The Open Source CFD Toolbox           |
|  \\    /   O peration     | Version:  v2012                                 |
|   \\  /    A nd           | Website:  www.openfoam.com                      |
|    \\/     M anipulation  |                                                 |
\*---------------------------------------------------------------------------*/
FoamFile
{
    version     2.0;
    format      ascii;
    class       pointVectorField;
    location    "13";
    object      pointD;
}
// * * * * * * * * * * * * * * * * * * * * * * * * * * * * * * * * * * * * * //

dimensions      [0 1 0 0 0 0 0];


internalField   nonuniform List<vector> 
8282
(
(0.00298408 0 0)
(0.0039707 0 0)
(0.00365266 -0.000291741 0)
(0 -0.00230789 0)
(0 -0.000952636 0)
(0.00306917 0 0)
(0 -0.00217867 0)
(0.00197529 -0.000599804 0)
(0.000898394 -0.00112023 0)
(0.00382402 -7.05796e-05 0)
(0.002353 -0.000944286 0)
(0.002353 -0.000944286 0)
(0.00197529 -0.000599804 0)
(0 -0.00217867 0)
(0 -0.000952636 0)
(0.00298408 0 0)
(0.00306917 0 0)
(0.0039707 0 0)
(0.00382402 -7.05796e-05 0)
(0.00365266 -0.000291741 0)
(0.000898394 -0.00112023 0)
(0 -0.00230789 0)
(8.85871e-05 -0.00216415 0)
(0.000178761 -0.00212816 0)
(0.000272778 -0.00207295 0)
(0.000371944 -0.00200081 0)
(0.000476357 -0.00191485 0)
(0.000584813 -0.00181883 0)
(0.000695362 -0.00171695 0)
(0.000805689 -0.00161337 0)
(0.000913429 -0.0015118 0)
(0.00101683 -0.00141481 0)
(0.0011158 -0.00132255 0)
(0.00121268 -0.0012328 0)
(0.00130916 -0.00114426 0)
(0.00140553 -0.0010577 0)
(0.00150172 -0.000973667 0)
(0.0015976 -0.000892547 0)
(0.00169302 -0.000814611 0)
(0.00178784 -0.00074002 0)
(0.00188193 -0.000668721 0)
(0.00206477 -0.00054007 0)
(0.00215297 -0.000483389 0)
(0.00223931 -0.000430169 0)
(0.00232335 -0.0003806 0)
(0.00240467 -0.000334755 0)
(0.00248286 -0.000292636 0)
(0.00255757 -0.000254185 0)
(0.00262841 -0.000219299 0)
(0.00269505 -0.000187837 0)
(0.00275714 -0.000159623 0)
(0.00281437 -0.000134454 0)
(0.00286645 -0.000112099 0)
(0.00291308 -9.23044e-05 0)
(0.00295403 -7.47944e-05 0)
(0.00298907 -5.92757e-05 0)
(0.003018 -4.54377e-05 0)
(0.00304064 -3.29537e-05 0)
(0.00305685 -2.14806e-05 0)
(0.00306646 -1.06494e-05 0)
(0.00299448 0 0)
(0.00300356 0 0)
(0.00301147 0 0)
(0.00301836 0 0)
(0.00302437 0 0)
(0.00302962 0 0)
(0.00303423 0 0)
(0.0030383 0 0)
(0.00304192 0 0)
(0.00304518 0 0)
(0.00304813 0 0)
(0.00305085 0 0)
(0.00305339 0 0)
(0.00305579 0 0)
(0.00305809 0 0)
(0.00306032 0 0)
(0.00306252 0 0)
(0.00306471 0 0)
(0.00306692 0 0)
(0.00307595 0 0)
(0.00308296 0 0)
(0.00309054 0 0)
(0.00309889 0 0)
(0.00310814 0 0)
(0.00311835 0 0)
(0.00312959 0 0)
(0.00314187 0 0)
(0.0031552 0 0)
(0.0031696 0 0)
(0.00318506 0 0)
(0.00320157 0 0)
(0.00321911 0 0)
(0.00323767 0 0)
(0.00325722 0 0)
(0.00327775 0 0)
(0.00329922 0 0)
(0.00332163 0 0)
(0.00334492 0 0)
(0.00336908 0 0)
(0.00339408 0 0)
(0.00341987 0 0)
(0.00344644 0 0)
(0.00347374 0 0)
(0.00350173 0 0)
(0.00353037 0 0)
(0.00355963 0 0)
(0.00358946 0 0)
(0.00361981 0 0)
(0.00365063 0 0)
(0.00368187 0 0)
(0.00371347 0 0)
(0.00374537 0 0)
(0.00377749 0 0)
(0.00380978 0 0)
(0.00384215 0 0)
(0.0038745 0 0)
(0.00390677 0 0)
(0.00393885 0 0)
(0.00396987 -4.70371e-07 0)
(0.0039684 -1.06229e-06 0)
(0.00396613 -1.76703e-06 0)
(0.00396302 -2.6238e-06 0)
(0.00395907 -3.67986e-06 0)
(0.00395431 -4.98324e-06 0)
(0.00394876 -6.58076e-06 0)
(0.00394245 -8.5173e-06 0)
(0.0039354 -1.08354e-05 0)
(0.00392768 -1.3575e-05 0)
(0.00391931 -1.67731e-05 0)
(0.00391034 -2.04638e-05 0)
(0.00390084 -2.46775e-05 0)
(0.00389084 -2.94413e-05 0)
(0.00388042 -3.47783e-05 0)
(0.00386963 -4.07079e-05 0)
(0.00385853 -4.7245e-05 0)
(0.00384719 -5.44006e-05 0)
(0.00383567 -6.21806e-05 0)
(0.0038189 -7.44819e-05 0)
(0.00381376 -7.85034e-05 0)
(0.00380861 -8.26437e-05 0)
(0.00380346 -8.69018e-05 0)
(0.00379833 -9.12766e-05 0)
(0.0037932 -9.57666e-05 0)
(0.00378811 -0.00010037 0)
(0.00378303 -0.000105085 0)
(0.003778 -0.000109908 0)
(0.003773 -0.000114839 0)
(0.00376804 -0.000119873 0)
(0.00376313 -0.000125007 0)
(0.00375827 -0.00013024 0)
(0.00375347 -0.000135567 0)
(0.00374872 -0.000140984 0)
(0.00374405 -0.000146488 0)
(0.00373943 -0.000152074 0)
(0.00373489 -0.000157739 0)
(0.00373043 -0.000163478 0)
(0.00372603 -0.000169286 0)
(0.00372172 -0.000175158 0)
(0.00371748 -0.000181089 0)
(0.00371333 -0.000187074 0)
(0.00370925 -0.000193107 0)
(0.00370526 -0.000199183 0)
(0.00370134 -0.000205296 0)
(0.00369751 -0.00021144 0)
(0.00369375 -0.00021761 0)
(0.00369006 -0.000223799 0)
(0.00368645 -0.000230001 0)
(0.0036829 -0.000236211 0)
(0.00367941 -0.000242424 0)
(0.00367598 -0.000248634 0)
(0.00367259 -0.000254836 0)
(0.00366924 -0.000261027 0)
(0.00366591 -0.000267203 0)
(0.0036626 -0.000273361 0)
(0.0036593 -0.000279503 0)
(0.00365599 -0.000285628 0)
(0.00360804 -0.000302223 0)
(0.00356357 -0.000312555 0)
(0.00351921 -0.000322461 0)
(0.00347481 -0.00033173 0)
(0.0034302 -0.000340237 0)
(0.00338519 -0.000347921 0)
(0.00333963 -0.000354773 0)
(0.00329334 -0.000360822 0)
(0.00324618 -0.000366127 0)
(0.003198 -0.000370769 0)
(0.00314869 -0.000374848 0)
(0.0030981 -0.00037848 0)
(0.00304613 -0.000381794 0)
(0.00299267 -0.000384931 0)
(0.00293761 -0.000388041 0)
(0.00288085 -0.000391289 0)
(0.00282229 -0.000394848 0)
(0.00276185 -0.000398903 0)
(0.00269944 -0.000403651 0)
(0.00263496 -0.0004093 0)
(0.00256836 -0.000416071 0)
(0.00249955 -0.000424196 0)
(0.00242847 -0.000433922 0)
(0.00235508 -0.000445507 0)
(0.00227934 -0.000459223 0)
(0.00220121 -0.000475352 0)
(0.00212069 -0.000494189 0)
(0.0020378 -0.000516034 0)
(0.00195256 -0.000541198 0)
(0.00186504 -0.000569995 0)
(0.00177533 -0.000602735 0)
(0.00168357 -0.000639727 0)
(0.00158996 -0.000681264 0)
(0.00149475 -0.000727699 0)
(0.00139785 -0.000779301 0)
(0.00129918 -0.000836334 0)
(0.00119904 -0.000898879 0)
(0.00109815 -0.000966904 0)
(0.000997537 -0.00104055 0)
(0.000827463 -0.00118141 0)
(0.000757333 -0.00124553 0)
(0.000688206 -0.00131245 0)
(0.00062045 -0.00138206 0)
(0.00055445 -0.00145415 0)
(0.000490638 -0.00152841 0)
(0.000429487 -0.00160443 0)
(0.000371506 -0.00168166 0)
(0.000317213 -0.00175932 0)
(0.000267083 -0.00183645 0)
(0.000221499 -0.00191189 0)
(0.000180691 -0.00198435 0)
(0.000144722 -0.00205246 0)
(0.000113477 -0.00211488 0)
(8.66801e-05 -0.00217032 0)
(6.3904e-05 -0.00221761 0)
(4.45812e-05 -0.0022557 0)
(2.80083e-05 -0.00228373 0)
(1.33715e-05 -0.0023011 0)
(0 -0.00230618 0)
(0 -0.00230424 0)
(0 -0.00230209 0)
(0 -0.00229976 0)
(0 -0.00229726 0)
(0 -0.00229461 0)
(0 -0.00229183 0)
(0 -0.00228891 0)
(0 -0.00228589 0)
(0 -0.00228276 0)
(0 -0.00227955 0)
(0 -0.00227626 0)
(0 -0.0022729 0)
(0 -0.00226948 0)
(0 -0.00226601 0)
(0 -0.0022625 0)
(0 -0.00225895 0)
(0 -0.00225538 0)
(0 -0.00225179 0)
(0 -0.00224818 0)
(0 -0.00224456 0)
(0 -0.00224094 0)
(0 -0.00223732 0)
(0 -0.00223371 0)
(0 -0.00223011 0)
(0 -0.00222653 0)
(0 -0.00222296 0)
(0 -0.00221942 0)
(0 -0.0022159 0)
(0 -0.00221241 0)
(0 -0.00220895 0)
(0 -0.00220551 0)
(0 -0.00220211 0)
(0 -0.00219874 0)
(0 -0.00219539 0)
(0 -0.00219206 0)
(0 -0.00218874 0)
(0 -0.00218541 0)
(0 -0.00218207 0)
(0 -0.00217057 0)
(0 -0.00216032 0)
(0 -0.00214705 0)
(0 -0.0021298 0)
(0 -0.00210763 0)
(0 -0.00207967 0)
(0 -0.00204517 0)
(0 -0.00200355 0)
(0 -0.00195446 0)
(0 -0.00189772 0)
(0 -0.00183335 0)
(0 -0.00176146 0)
(0 -0.00168228 0)
(0 -0.00159609 0)
(0 -0.00150319 0)
(0 -0.00140395 0)
(0 -0.00129874 0)
(0 -0.00118802 0)
(0 -0.00107234 0)
(0.00203626 -0.000532583 0)
(0.00209567 -0.000470975 0)
(0.00215367 -0.000415602 0)
(0.00221021 -0.000366433 0)
(0.00226528 -0.000323206 0)
(0.00231891 -0.000285545 0)
(0.00237115 -0.000253029 0)
(0.00242209 -0.000225219 0)
(0.00247186 -0.000201677 0)
(0.00252055 -0.000181982 0)
(0.00256829 -0.000165731 0)
(0.00261519 -0.000152545 0)
(0.00266137 -0.000142071 0)
(0.00270694 -0.000133978 0)
(0.00275198 -0.000127963 0)
(0.00279659 -0.00012374 0)
(0.00284084 -0.00012105 0)
(0.0028848 -0.00011965 0)
(0.00292853 -0.000119316 0)
(0.00297208 -0.00011984 0)
(0.00301548 -0.000121028 0)
(0.00305877 -0.0001227 0)
(0.00310196 -0.000124689 0)
(0.00314509 -0.000126836 0)
(0.00318816 -0.000128992 0)
(0.00323117 -0.000131018 0)
(0.00327413 -0.000132778 0)
(0.00331703 -0.000134143 0)
(0.00335987 -0.000134986 0)
(0.00340263 -0.000135185 0)
(0.0034453 -0.000134614 0)
(0.00348788 -0.000133148 0)
(0.00353034 -0.000130656 0)
(0.00357268 -0.000126997 0)
(0.00361489 -0.000122022 0)
(0.00365697 -0.000115561 0)
(0.00369891 -0.000107425 0)
(0.00374072 -9.7392e-05 0)
(0.00378242 -8.52073e-05 0)
(0.00194332 -0.000613184 0)
(0.0019118 -0.000626552 0)
(0.00188068 -0.000639905 0)
(0.00184996 -0.000653243 0)
(0.00181962 -0.000666572 0)
(0.00178967 -0.000679893 0)
(0.00176008 -0.000693207 0)
(0.00173085 -0.000706513 0)
(0.00170198 -0.000719809 0)
(0.00167345 -0.000733092 0)
(0.00164525 -0.000746358 0)
(0.00161737 -0.000759603 0)
(0.00158979 -0.000772825 0)
(0.00156252 -0.000786018 0)
(0.00153552 -0.00079918 0)
(0.00150879 -0.000812307 0)
(0.00148232 -0.000825396 0)
(0.00145608 -0.000838446 0)
(0.00143007 -0.000851453 0)
(0.00140427 -0.000864415 0)
(0.00137866 -0.000877332 0)
(0.00135323 -0.000890202 0)
(0.00132795 -0.000903026 0)
(0.0013028 -0.000915804 0)
(0.00127777 -0.000928537 0)
(0.00125283 -0.000941228 0)
(0.00122796 -0.000953881 0)
(0.00120314 -0.000966503 0)
(0.00117832 -0.000979099 0)
(0.0011535 -0.000991681 0)
(0.00112864 -0.00100426 0)
(0.0011037 -0.00101685 0)
(0.00107867 -0.00102946 0)
(0.0010535 -0.00104212 0)
(0.00102818 -0.00105484 0)
(0.00100266 -0.00106765 0)
(0.000976937 -0.00108057 0)
(0.000950975 -0.00109361 0)
(0.00092477 -0.00110681 0)
(0.000210722 -0.000970416 0)
(0.000418205 -0.00100278 0)
(0.000620254 -0.00104952 0)
(0.000814066 -0.00110908 0)
(0.000996827 -0.00117831 0)
(0.00116594 -0.00125225 0)
(0.00131909 -0.00132384 0)
(0.00145432 -0.00138407 0)
(0.0015704 -0.00142298 0)
(0.00166734 -0.00143165 0)
(0.00174712 -0.00140612 0)
(0.00181644 -0.00135586 0)
(0.0018867 -0.00130484 0)
(0.00195709 -0.00125367 0)
(0.00202692 -0.00120225 0)
(0.00209568 -0.00115063 0)
(0.00216294 -0.00109891 0)
(0.00222841 -0.0010472 0)
(0.00229183 -0.00099562 0)
(0.00241177 -0.000893289 0)
(0.00246803 -0.000842697 0)
(0.00252167 -0.000792561 0)
(0.00257262 -0.000742907 0)
(0.00262081 -0.000693746 0)
(0.00266618 -0.000645075 0)
(0.00270869 -0.00059688 0)
(0.00274827 -0.00054914 0)
(0.00278488 -0.000501828 0)
(0.00281847 -0.000454914 0)
(0.00284901 -0.000408365 0)
(0.00287646 -0.000362149 0)
(0.00290077 -0.000316231 0)
(0.00292194 -0.000270579 0)
(0.00293993 -0.00022516 0)
(0.00295474 -0.000179944 0)
(0.00296639 -0.000134902 0)
(0.00297491 -9.00064e-05 0)
(0.00298049 -4.51925e-05 0)
(0.00231808 -0.000911795 0)
(0.00228588 -0.000882163 0)
(0.00225614 -0.000855051 0)
(0.0022286 -0.000830168 0)
(0.00220306 -0.000807268 0)
(0.00217933 -0.000786137 0)
(0.00215727 -0.000766589 0)
(0.00213672 -0.00074846 0)
(0.00211756 -0.000731606 0)
(0.00209971 -0.000715898 0)
(0.00208304 -0.000701219 0)
(0.0020675 -0.000687466 0)
(0.00205299 -0.000674542 0)
(0.00203945 -0.000662361 0)
(0.00202683 -0.000650838 0)
(0.00201507 -0.000639893 0)
(0.0020041 -0.000629445 0)
(0.00199389 -0.000619395 0)
(0.00198435 -0.000609608 0)
(0.00231808 -0.000911795 0)
(0.00228588 -0.000882163 0)
(0.00225614 -0.000855051 0)
(0.0022286 -0.000830168 0)
(0.00220306 -0.000807268 0)
(0.00217933 -0.000786137 0)
(0.00215727 -0.000766589 0)
(0.00213672 -0.00074846 0)
(0.00211756 -0.000731606 0)
(0.00209971 -0.000715898 0)
(0.00208304 -0.000701219 0)
(0.0020675 -0.000687466 0)
(0.00205299 -0.000674542 0)
(0.00203945 -0.000662361 0)
(0.00202683 -0.000650838 0)
(0.00201507 -0.000639893 0)
(0.0020041 -0.000629445 0)
(0.00199389 -0.000619395 0)
(0.00198435 -0.000609608 0)
(0.00188193 -0.000668721 0)
(0.00178784 -0.00074002 0)
(0.00169302 -0.000814611 0)
(0.0015976 -0.000892547 0)
(0.00150172 -0.000973667 0)
(0.00140553 -0.0010577 0)
(0.00130916 -0.00114426 0)
(0.00121268 -0.0012328 0)
(0.0011158 -0.00132255 0)
(0.00101683 -0.00141481 0)
(0.000913429 -0.0015118 0)
(0.000805689 -0.00161337 0)
(0.000695362 -0.00171695 0)
(0.000584813 -0.00181883 0)
(0.000476357 -0.00191485 0)
(0.000371944 -0.00200081 0)
(0.000272778 -0.00207295 0)
(0.000178761 -0.00212816 0)
(8.85871e-05 -0.00216415 0)
(0 -0.00217057 0)
(0 -0.00216032 0)
(0 -0.00214705 0)
(0 -0.0021298 0)
(0 -0.00210763 0)
(0 -0.00207967 0)
(0 -0.00204517 0)
(0 -0.00200355 0)
(0 -0.00195446 0)
(0 -0.00189772 0)
(0 -0.00183335 0)
(0 -0.00176146 0)
(0 -0.00168228 0)
(0 -0.00159609 0)
(0 -0.00150319 0)
(0 -0.00140395 0)
(0 -0.00129874 0)
(0 -0.00118802 0)
(0 -0.00107234 0)
(0.000210722 -0.000970416 0)
(0.000418205 -0.00100278 0)
(0.000620254 -0.00104952 0)
(0.000814066 -0.00110908 0)
(0.000996827 -0.00117831 0)
(0.00116594 -0.00125225 0)
(0.00131909 -0.00132384 0)
(0.00145432 -0.00138407 0)
(0.0015704 -0.00142298 0)
(0.00166734 -0.00143165 0)
(0.00174712 -0.00140612 0)
(0.00181644 -0.00135586 0)
(0.0018867 -0.00130484 0)
(0.00195709 -0.00125367 0)
(0.00202692 -0.00120225 0)
(0.00209568 -0.00115063 0)
(0.00216294 -0.00109891 0)
(0.00222841 -0.0010472 0)
(0.00229183 -0.00099562 0)
(0.00241177 -0.000893289 0)
(0.00246803 -0.000842697 0)
(0.00252167 -0.000792561 0)
(0.00257262 -0.000742907 0)
(0.00262081 -0.000693746 0)
(0.00266618 -0.000645075 0)
(0.00270869 -0.00059688 0)
(0.00274827 -0.00054914 0)
(0.00278488 -0.000501828 0)
(0.00281847 -0.000454914 0)
(0.00284901 -0.000408365 0)
(0.00287646 -0.000362149 0)
(0.00290077 -0.000316231 0)
(0.00292194 -0.000270579 0)
(0.00293993 -0.00022516 0)
(0.00295474 -0.000179944 0)
(0.00296639 -0.000134902 0)
(0.00297491 -9.00064e-05 0)
(0.00298049 -4.51925e-05 0)
(0.00299448 0 0)
(0.00300356 0 0)
(0.00301147 0 0)
(0.00301836 0 0)
(0.00302437 0 0)
(0.00302962 0 0)
(0.00303423 0 0)
(0.0030383 0 0)
(0.00304192 0 0)
(0.00304518 0 0)
(0.00304813 0 0)
(0.00305085 0 0)
(0.00305339 0 0)
(0.00305579 0 0)
(0.00305809 0 0)
(0.00306032 0 0)
(0.00306252 0 0)
(0.00306471 0 0)
(0.00306692 0 0)
(0.00306646 -1.06494e-05 0)
(0.00305685 -2.14806e-05 0)
(0.00304064 -3.29537e-05 0)
(0.003018 -4.54377e-05 0)
(0.00298907 -5.92757e-05 0)
(0.00295403 -7.47944e-05 0)
(0.00291308 -9.23044e-05 0)
(0.00286645 -0.000112099 0)
(0.00281437 -0.000134454 0)
(0.00275714 -0.000159623 0)
(0.00269505 -0.000187837 0)
(0.00262841 -0.000219299 0)
(0.00255757 -0.000254185 0)
(0.00248286 -0.000292636 0)
(0.00240467 -0.000334755 0)
(0.00232335 -0.0003806 0)
(0.00223931 -0.000430169 0)
(0.00215297 -0.000483389 0)
(0.00206477 -0.00054007 0)
(0.00307595 0 0)
(0.00308296 0 0)
(0.00309054 0 0)
(0.00309889 0 0)
(0.00310814 0 0)
(0.00311835 0 0)
(0.00312959 0 0)
(0.00314187 0 0)
(0.0031552 0 0)
(0.0031696 0 0)
(0.00318506 0 0)
(0.00320157 0 0)
(0.00321911 0 0)
(0.00323767 0 0)
(0.00325722 0 0)
(0.00327775 0 0)
(0.00329922 0 0)
(0.00332163 0 0)
(0.00334492 0 0)
(0.00336908 0 0)
(0.00339408 0 0)
(0.00341987 0 0)
(0.00344644 0 0)
(0.00347374 0 0)
(0.00350173 0 0)
(0.00353037 0 0)
(0.00355963 0 0)
(0.00358946 0 0)
(0.00361981 0 0)
(0.00365063 0 0)
(0.00368187 0 0)
(0.00371347 0 0)
(0.00374537 0 0)
(0.00377749 0 0)
(0.00380978 0 0)
(0.00384215 0 0)
(0.0038745 0 0)
(0.00390677 0 0)
(0.00393885 0 0)
(0.00396987 -4.70371e-07 0)
(0.0039684 -1.06229e-06 0)
(0.00396613 -1.76703e-06 0)
(0.00396302 -2.6238e-06 0)
(0.00395907 -3.67986e-06 0)
(0.00395431 -4.98324e-06 0)
(0.00394876 -6.58076e-06 0)
(0.00394245 -8.5173e-06 0)
(0.0039354 -1.08354e-05 0)
(0.00392768 -1.3575e-05 0)
(0.00391931 -1.67731e-05 0)
(0.00391034 -2.04638e-05 0)
(0.00390084 -2.46775e-05 0)
(0.00389084 -2.94413e-05 0)
(0.00388042 -3.47783e-05 0)
(0.00386963 -4.07079e-05 0)
(0.00385853 -4.7245e-05 0)
(0.00384719 -5.44006e-05 0)
(0.00383567 -6.21806e-05 0)
(0.00378242 -8.52073e-05 0)
(0.00374072 -9.7392e-05 0)
(0.00369891 -0.000107425 0)
(0.00365697 -0.000115561 0)
(0.00361489 -0.000122022 0)
(0.00357268 -0.000126997 0)
(0.00353034 -0.000130656 0)
(0.00348788 -0.000133148 0)
(0.0034453 -0.000134614 0)
(0.00340263 -0.000135185 0)
(0.00335987 -0.000134986 0)
(0.00331703 -0.000134143 0)
(0.00327413 -0.000132778 0)
(0.00323117 -0.000131018 0)
(0.00318816 -0.000128992 0)
(0.00314509 -0.000126836 0)
(0.00310196 -0.000124689 0)
(0.00305877 -0.0001227 0)
(0.00301548 -0.000121028 0)
(0.00297208 -0.00011984 0)
(0.00292853 -0.000119316 0)
(0.0028848 -0.00011965 0)
(0.00284084 -0.00012105 0)
(0.00279659 -0.00012374 0)
(0.00275198 -0.000127963 0)
(0.00270694 -0.000133978 0)
(0.00266137 -0.000142071 0)
(0.00261519 -0.000152545 0)
(0.00256829 -0.000165731 0)
(0.00252055 -0.000181982 0)
(0.00247186 -0.000201677 0)
(0.00242209 -0.000225219 0)
(0.00237115 -0.000253029 0)
(0.00231891 -0.000285545 0)
(0.00226528 -0.000323206 0)
(0.00221021 -0.000366433 0)
(0.00215367 -0.000415602 0)
(0.00209567 -0.000470975 0)
(0.00203626 -0.000532583 0)
(0.0038189 -7.44819e-05 0)
(0.00381376 -7.85034e-05 0)
(0.00380861 -8.26437e-05 0)
(0.00380346 -8.69018e-05 0)
(0.00379833 -9.12766e-05 0)
(0.0037932 -9.57666e-05 0)
(0.00378811 -0.00010037 0)
(0.00378303 -0.000105085 0)
(0.003778 -0.000109908 0)
(0.003773 -0.000114839 0)
(0.00376804 -0.000119873 0)
(0.00376313 -0.000125007 0)
(0.00375827 -0.00013024 0)
(0.00375347 -0.000135567 0)
(0.00374872 -0.000140984 0)
(0.00374405 -0.000146488 0)
(0.00373943 -0.000152074 0)
(0.00373489 -0.000157739 0)
(0.00373043 -0.000163478 0)
(0.00372603 -0.000169286 0)
(0.00372172 -0.000175158 0)
(0.00371748 -0.000181089 0)
(0.00371333 -0.000187074 0)
(0.00370925 -0.000193107 0)
(0.00370526 -0.000199183 0)
(0.00370134 -0.000205296 0)
(0.00369751 -0.00021144 0)
(0.00369375 -0.00021761 0)
(0.00369006 -0.000223799 0)
(0.00368645 -0.000230001 0)
(0.0036829 -0.000236211 0)
(0.00367941 -0.000242424 0)
(0.00367598 -0.000248634 0)
(0.00367259 -0.000254836 0)
(0.00366924 -0.000261027 0)
(0.00366591 -0.000267203 0)
(0.0036626 -0.000273361 0)
(0.0036593 -0.000279503 0)
(0.00365599 -0.000285628 0)
(0.00360804 -0.000302223 0)
(0.00356357 -0.000312555 0)
(0.00351921 -0.000322461 0)
(0.00347481 -0.00033173 0)
(0.0034302 -0.000340237 0)
(0.00338519 -0.000347921 0)
(0.00333963 -0.000354773 0)
(0.00329334 -0.000360822 0)
(0.00324618 -0.000366127 0)
(0.003198 -0.000370769 0)
(0.00314869 -0.000374848 0)
(0.0030981 -0.00037848 0)
(0.00304613 -0.000381794 0)
(0.00299267 -0.000384931 0)
(0.00293761 -0.000388041 0)
(0.00288085 -0.000391289 0)
(0.00282229 -0.000394848 0)
(0.00276185 -0.000398903 0)
(0.00269944 -0.000403651 0)
(0.00263496 -0.0004093 0)
(0.00256836 -0.000416071 0)
(0.00249955 -0.000424196 0)
(0.00242847 -0.000433922 0)
(0.00235508 -0.000445507 0)
(0.00227934 -0.000459223 0)
(0.00220121 -0.000475352 0)
(0.00212069 -0.000494189 0)
(0.0020378 -0.000516034 0)
(0.00195256 -0.000541198 0)
(0.00186504 -0.000569995 0)
(0.00177533 -0.000602735 0)
(0.00168357 -0.000639727 0)
(0.00158996 -0.000681264 0)
(0.00149475 -0.000727699 0)
(0.00139785 -0.000779301 0)
(0.00129918 -0.000836334 0)
(0.00119904 -0.000898879 0)
(0.00109815 -0.000966904 0)
(0.000997537 -0.00104055 0)
(0.00092477 -0.00110681 0)
(0.000950975 -0.00109361 0)
(0.000976937 -0.00108057 0)
(0.00100266 -0.00106765 0)
(0.00102818 -0.00105484 0)
(0.0010535 -0.00104212 0)
(0.00107867 -0.00102946 0)
(0.0011037 -0.00101685 0)
(0.00112864 -0.00100426 0)
(0.0011535 -0.000991681 0)
(0.00117832 -0.000979099 0)
(0.00120314 -0.000966503 0)
(0.00122796 -0.000953881 0)
(0.00125283 -0.000941228 0)
(0.00127777 -0.000928537 0)
(0.0013028 -0.000915804 0)
(0.00132795 -0.000903026 0)
(0.00135323 -0.000890202 0)
(0.00137866 -0.000877332 0)
(0.00140427 -0.000864415 0)
(0.00143007 -0.000851453 0)
(0.00145608 -0.000838446 0)
(0.00148232 -0.000825396 0)
(0.00150879 -0.000812307 0)
(0.00153552 -0.00079918 0)
(0.00156252 -0.000786018 0)
(0.00158979 -0.000772825 0)
(0.00161737 -0.000759603 0)
(0.00164525 -0.000746358 0)
(0.00167345 -0.000733092 0)
(0.00170198 -0.000719809 0)
(0.00173085 -0.000706513 0)
(0.00176008 -0.000693207 0)
(0.00178967 -0.000679893 0)
(0.00181962 -0.000666572 0)
(0.00184996 -0.000653243 0)
(0.00188068 -0.000639905 0)
(0.0019118 -0.000626552 0)
(0.00194332 -0.000613184 0)
(0.000827463 -0.00118141 0)
(0.000757333 -0.00124553 0)
(0.000688206 -0.00131245 0)
(0.00062045 -0.00138206 0)
(0.00055445 -0.00145415 0)
(0.000490638 -0.00152841 0)
(0.000429487 -0.00160443 0)
(0.000371506 -0.00168166 0)
(0.000317213 -0.00175932 0)
(0.000267083 -0.00183645 0)
(0.000221499 -0.00191189 0)
(0.000180691 -0.00198435 0)
(0.000144722 -0.00205246 0)
(0.000113477 -0.00211488 0)
(8.66801e-05 -0.00217032 0)
(6.3904e-05 -0.00221761 0)
(4.45812e-05 -0.0022557 0)
(2.80083e-05 -0.00228373 0)
(1.33715e-05 -0.0023011 0)
(0 -0.00230618 0)
(0 -0.00230424 0)
(0 -0.00230209 0)
(0 -0.00229976 0)
(0 -0.00229726 0)
(0 -0.00229461 0)
(0 -0.00229183 0)
(0 -0.00228891 0)
(0 -0.00228589 0)
(0 -0.00228276 0)
(0 -0.00227955 0)
(0 -0.00227626 0)
(0 -0.0022729 0)
(0 -0.00226948 0)
(0 -0.00226601 0)
(0 -0.0022625 0)
(0 -0.00225895 0)
(0 -0.00225538 0)
(0 -0.00225179 0)
(0 -0.00224818 0)
(0 -0.00224456 0)
(0 -0.00224094 0)
(0 -0.00223732 0)
(0 -0.00223371 0)
(0 -0.00223011 0)
(0 -0.00222653 0)
(0 -0.00222296 0)
(0 -0.00221942 0)
(0 -0.0022159 0)
(0 -0.00221241 0)
(0 -0.00220895 0)
(0 -0.00220551 0)
(0 -0.00220211 0)
(0 -0.00219874 0)
(0 -0.00219539 0)
(0 -0.00219206 0)
(0 -0.00218874 0)
(0 -0.00218541 0)
(0 -0.00218207 0)
(0.000213436 -0.00108878 0)
(0.000214447 -0.00120263 0)
(0.000214124 -0.00131149 0)
(0.000212564 -0.0014149 0)
(0.000209796 -0.0015124 0)
(0.000205824 -0.00160354 0)
(0.000200645 -0.00168792 0)
(0.000194268 -0.00176517 0)
(0.000186729 -0.00183496 0)
(0.000178083 -0.00189706 0)
(0.000168478 -0.00195137 0)
(0.000158129 -0.00199797 0)
(0.000147333 -0.00203716 0)
(0.000136455 -0.00206945 0)
(0.000125892 -0.00209557 0)
(0.000116019 -0.00211635 0)
(0.000107153 -0.00213272 0)
(9.95233e-05 -0.00214556 0)
(9.32668e-05 -0.00215573 0)
(0.000422423 -0.00111937 0)
(0.000424031 -0.00123074 0)
(0.000423215 -0.0013366 0)
(0.000419993 -0.00143656 0)
(0.000414342 -0.00153017 0)
(0.000406214 -0.00161698 0)
(0.000395585 -0.00169657 0)
(0.000382468 -0.00176853 0)
(0.000366965 -0.00183259 0)
(0.00034929 -0.0018886 0)
(0.000329843 -0.0019367 0)
(0.000309193 -0.00197729 0)
(0.000288049 -0.00201102 0)
(0.000267171 -0.00203876 0)
(0.000247284 -0.00206144 0)
(0.000229001 -0.00207999 0)
(0.000212784 -0.00209526 0)
(0.000198937 -0.002108 0)
(0.000187639 -0.00211883 0)
(0.000624811 -0.00116329 0)
(0.000626135 -0.0012709 0)
(0.000624104 -0.00137208 0)
(0.00061857 -0.00146645 0)
(0.000609383 -0.00155357 0)
(0.000596417 -0.00163296 0)
(0.000579611 -0.00170423 0)
(0.000559063 -0.00176707 0)
(0.000535057 -0.00182144 0)
(0.000508168 -0.00186761 0)
(0.000479257 -0.00190628 0)
(0.000449367 -0.0019384 0)
(0.000419587 -0.0019651 0)
(0.000390915 -0.00198749 0)
(0.000364175 -0.00200654 0)
(0.000339969 -0.00202304 0)
(0.000318666 -0.0020376 0)
(0.000300432 -0.00205062 0)
(0.000285192 -0.00206234 0)
(0.000817776 -0.00121841 0)
(0.000817605 -0.00132033 0)
(0.000813176 -0.00141447 0)
(0.000804149 -0.0015004 0)
(0.000790244 -0.00157764 0)
(0.000771286 -0.00164581 0)
(0.000747318 -0.0017047 0)
(0.000718685 -0.00175444 0)
(0.000686162 -0.00179564 0)
(0.00065092 -0.00182945 0)
(0.000614331 -0.00185729 0)
(0.000577752 -0.00188061 0)
(0.000542352 -0.00190066 0)
(0.000509042 -0.00191844 0)
(0.000478456 -0.00193462 0)
(0.000450952 -0.00194964 0)
(0.000426659 -0.00196373 0)
(0.000405529 -0.00197696 0)
(0.000387384 -0.00198934 0)
(0.000998235 -0.00128098 0)
(0.000994956 -0.00137451 0)
(0.00098644 -0.00145838 0)
(0.000972231 -0.00153213 0)
(0.000952029 -0.0015954 0)
(0.000925824 -0.00164816 0)
(0.000894011 -0.00169086 0)
(0.000857591 -0.00172467 0)
(0.000818061 -0.0017514 0)
(0.000777071 -0.001773 0)
(0.000736125 -0.00179124 0)
(0.000696427 -0.00180743 0)
(0.00065884 -0.00182247 0)
(0.000623933 -0.00183689 0)
(0.000591998 -0.00185092 0)
(0.000563128 -0.00186463 0)
(0.000537298 -0.00187798 0)
(0.000514362 -0.00189087 0)
(0.00049413 -0.00190319 0)
(0.00116311 -0.00134521 0)
(0.00115462 -0.00142673 0)
(0.00113989 -0.00149625 0)
(0.00111855 -0.0015535 0)
(0.00109058 -0.00159868 0)
(0.00105649 -0.00163272 0)
(0.00101757 -0.00165758 0)
(0.000975637 -0.00167592 0)
(0.000932497 -0.00169027 0)
(0.000889615 -0.00170255 0)
(0.000848039 -0.00171399 0)
(0.00080847 -0.00172529 0)
(0.000771338 -0.00173678 0)
(0.000736856 -0.00174855 0)
(0.000705079 -0.00176049 0)
(0.000676038 -0.00177254 0)
(0.00064963 -0.00178454 0)
(0.00062574 -0.00179635 0)
(0.000604205 -0.00180782 0)
(0.00130961 -0.00140307 0)
(0.00129351 -0.00146816 0)
(0.0012704 -0.00151892 0)
(0.00124035 -0.00155589 0)
(0.0012041 -0.00158056 0)
(0.00116338 -0.00159598 0)
(0.00112038 -0.00160579 0)
(0.00107688 -0.00161291 0)
(0.00103406 -0.00161918 0)
(0.00099264 -0.00162558 0)
(0.000953057 -0.00163259 0)
(0.000915568 -0.00164037 0)
(0.000880289 -0.00164887 0)
(0.000847243 -0.00165793 0)
(0.000816531 -0.00166748 0)
(0.00078808 -0.00167734 0)
(0.000761863 -0.00168737 0)
(0.000737768 -0.00169742 0)
(0.000715658 -0.00170732 0)
(0.00143572 -0.00144479 0)
(0.0014099 -0.00148902 0)
(0.00137704 -0.00151773 0)
(0.00133808 -0.00153313 0)
(0.00129547 -0.00153966 0)
(0.00125184 -0.00154199 0)
(0.00120879 -0.00154301 0)
(0.00116706 -0.00154412 0)
(0.00112692 -0.00154589 0)
(0.00108857 -0.00154859 0)
(0.00105207 -0.00155229 0)
(0.00101741 -0.00155693 0)
(0.000984521 -0.00156232 0)
(0.000953578 -0.00156852 0)
(0.000924479 -0.00157528 0)
(0.000897277 -0.00158254 0)
(0.000871896 -0.00159013 0)
(0.000848254 -0.0015979 0)
(0.000826263 -0.00160572 0)
(0.00154093 -0.00146066 0)
(0.00150455 -0.00148117 0)
(0.00146241 -0.00148759 0)
(0.00141758 -0.0014864 0)
(0.00137319 -0.00148324 0)
(0.00133038 -0.0014802 0)
(0.00128939 -0.0014778 0)
(0.00125028 -0.00147612 0)
(0.00121312 -0.0014753 0)
(0.00117787 -0.00147532 0)
(0.00114442 -0.00147614 0)
(0.00111256 -0.00147762 0)
(0.00108248 -0.00148002 0)
(0.00105391 -0.0014831 0)
(0.00102695 -0.0014869 0)
(0.0010015 -0.00149126 0)
(0.000977524 -0.00149607 0)
(0.000954987 -0.00150125 0)
(0.000933678 -0.00150655 0)
(0.00162691 -0.00144389 0)
(0.00158125 -0.00144162 0)
(0.00153509 -0.00143474 0)
(0.00149076 -0.00142821 0)
(0.00144824 -0.00142236 0)
(0.0014075 -0.00141725 0)
(0.00136861 -0.00141291 0)
(0.0013316 -0.00140937 0)
(0.00129648 -0.00140661 0)
(0.00126323 -0.00140457 0)
(0.00123179 -0.00140319 0)
(0.00120214 -0.00140246 0)
(0.00117413 -0.00140225 0)
(0.00114782 -0.00140271 0)
(0.00112295 -0.00140369 0)
(0.00109945 -0.0014052 0)
(0.00107729 -0.00140723 0)
(0.00105622 -0.00140958 0)
(0.00103608 -0.00141212 0)
(0.00169859 -0.00139679 0)
(0.00165181 -0.00138673 0)
(0.00160713 -0.00137735 0)
(0.00156447 -0.0013687 0)
(0.00152374 -0.00136083 0)
(0.0014849 -0.00135376 0)
(0.00144793 -0.00134751 0)
(0.00141281 -0.00134208 0)
(0.00137951 -0.00133744 0)
(0.00134799 -0.00133353 0)
(0.00131821 -0.00133032 0)
(0.00129011 -0.00132774 0)
(0.00126363 -0.00132575 0)
(0.00123872 -0.00132429 0)
(0.00121529 -0.00132328 0)
(0.00119321 -0.00132266 0)
(0.00117235 -0.00132233 0)
(0.00115254 -0.0013222 0)
(0.00113375 -0.0013223 0)
(0.0017687 -0.00134311 0)
(0.00172316 -0.00133084 0)
(0.00167987 -0.00131929 0)
(0.00163875 -0.00130855 0)
(0.00159969 -0.00129866 0)
(0.0015626 -0.00128965 0)
(0.00152742 -0.00128152 0)
(0.00149407 -0.00127422 0)
(0.00146251 -0.00126774 0)
(0.00143266 -0.00126203 0)
(0.00140447 -0.00125702 0)
(0.00137788 -0.00125266 0)
(0.0013528 -0.00124888 0)
(0.00132918 -0.00124562 0)
(0.00130693 -0.0012428 0)
(0.00128595 -0.00124034 0)
(0.00126612 -0.00123816 0)
(0.00124736 -0.00123622 0)
(0.00122958 -0.00123445 0)
(0.00183953 -0.00128934 0)
(0.00179506 -0.0012746 0)
(0.00175309 -0.00126077 0)
(0.00171345 -0.0012479 0)
(0.00167598 -0.00123601 0)
(0.00164056 -0.00122509 0)
(0.00160706 -0.0012151 0)
(0.00157541 -0.00120601 0)
(0.0015455 -0.00119776 0)
(0.00151726 -0.00119031 0)
(0.00149061 -0.00118358 0)
(0.00146548 -0.00117751 0)
(0.00144179 -0.00117203 0)
(0.00141946 -0.00116707 0)
(0.0013984 -0.00116255 0)
(0.00137853 -0.0011584 0)
(0.00135976 -0.00115456 0)
(0.001342 -0.00115097 0)
(0.00132516 -0.00114755 0)
(0.00191063 -0.00123526 0)
(0.00186724 -0.00121799 0)
(0.00182659 -0.00120188 0)
(0.0017884 -0.00118692 0)
(0.00175249 -0.00117308 0)
(0.00171866 -0.0011603 0)
(0.0016868 -0.00114855 0)
(0.00165676 -0.00113775 0)
(0.00162845 -0.00112784 0)
(0.00160176 -0.00111876 0)
(0.00157661 -0.00111042 0)
(0.0015529 -0.00110277 0)
(0.00153056 -0.00109573 0)
(0.0015095 -0.00108922 0)
(0.00148964 -0.00108318 0)
(0.0014709 -0.00107753 0)
(0.0014532 -0.00107222 0)
(0.00143646 -0.00106718 0)
(0.00142059 -0.00106235 0)
(0.0019815 -0.00118096 0)
(0.00193935 -0.00116119 0)
(0.00190009 -0.00114285 0)
(0.00186339 -0.00112586 0)
(0.00182903 -0.00111015 0)
(0.00179679 -0.00109562 0)
(0.00176651 -0.0010822 0)
(0.00173805 -0.00106981 0)
(0.00171128 -0.00105837 0)
(0.0016861 -0.00104779 0)
(0.00166239 -0.00103801 0)
(0.00164008 -0.00102893 0)
(0.00161907 -0.00102049 0)
(0.00159927 -0.00101262 0)
(0.00158061 -0.00100524 0)
(0.00156301 -0.000998295 0)
(0.00154639 -0.000991715 0)
(0.00153068 -0.000985449 0)
(0.00151581 -0.000979447 0)
(0.00205166 -0.00112658 0)
(0.002011 -0.00110441 0)
(0.00197327 -0.00108395 0)
(0.00193815 -0.00106504 0)
(0.00190538 -0.00104757 0)
(0.00187473 -0.00103141 0)
(0.00184603 -0.00101645 0)
(0.00181913 -0.0010026 0)
(0.00179388 -0.000989764 0)
(0.00177017 -0.000977847 0)
(0.00174789 -0.000966764 0)
(0.00172694 -0.000956434 0)
(0.00170724 -0.000946779 0)
(0.0016887 -0.000937726 0)
(0.00167123 -0.000929205 0)
(0.00165477 -0.000921154 0)
(0.00163924 -0.000913511 0)
(0.00162457 -0.000906226 0)
(0.00161071 -0.00089925 0)
(0.00212072 -0.00107231 0)
(0.00208181 -0.00104791 0)
(0.0020458 -0.00102547 0)
(0.00201237 -0.00100478 0)
(0.00198126 -0.000985683 0)
(0.00195225 -0.000968025 0)
(0.00192515 -0.000951675 0)
(0.0018998 -0.000936514 0)
(0.00187606 -0.000922432 0)
(0.00185381 -0.000909329 0)
(0.00183294 -0.000897111 0)
(0.00181335 -0.000885692 0)