/*--------------------------------*- C++ -*----------------------------------*\
| =========                 |                                                 |
| \\      /  F ield         | OpenFOAM: The Open Source CFD Toolbox           |
|  \\    /   O peration     | Version:  v2012                                 |
|   \\  /    A nd           | Website:  www.openfoam.com                      |
|    \\/     M anipulation  |                                                 |
\*---------------------------------------------------------------------------*/
FoamFile
{
    version     2.0;
    format      ascii;
    class       volScalarField;
    location    "13";
    object      sigmaEq;
}
// * * * * * * * * * * * * * * * * * * * * * * * * * * * * * * * * * * * * * //

dimensions      [1 -1 -2 0 0 0 0];


internalField   nonuniform List<scalar> 
8000
(
9.76123e+07
1.06097e+08
1.09997e+08
1.1694e+08
1.20722e+08
1.26536e+08
1.29929e+08
1.34941e+08
1.37833e+08
1.42257e+08
1.44631e+08
1.48604e+08
1.50483e+08
1.54098e+08
1.55524e+08
1.58845e+08
1.59862e+08
1.6294e+08
1.63598e+08
1.6647e+08
1.66816e+08
1.69512e+08
1.696e+08
1.7215e+08
1.72045e+08
1.74466e+08
1.74237e+08
1.76534e+08
1.76262e+08
1.78424e+08
1.78185e+08
1.8019e+08
1.80041e+08
1.81865e+08
1.8183e+08
1.83471e+08
1.83534e+08
1.85018e+08
1.85131e+08
1.83036e+08
1.00955e+08
1.07551e+08
1.12437e+08
1.18286e+08
1.2252e+08
1.2768e+08
1.31336e+08
1.35891e+08
1.39003e+08
1.43056e+08
1.45647e+08
1.49297e+08
1.51387e+08
1.54721e+08
1.56332e+08
1.59424e+08
1.60575e+08
1.63488e+08
1.64199e+08
1.66994e+08
1.67286e+08
1.70015e+08
1.69917e+08
1.72622e+08
1.72185e+08
1.74887e+08
1.74195e+08
1.76877e+08
1.7605e+08
1.78661e+08
1.77834e+08
1.80298e+08
1.7959e+08
1.8184e+08
1.81328e+08
1.83321e+08
1.83029e+08
1.84762e+08
1.84667e+08
1.86165e+08
1.02736e+08
1.09222e+08
1.14318e+08
1.19826e+08
1.2436e+08
1.29094e+08
1.33078e+08
1.37182e+08
1.40636e+08
1.44237e+08
1.47171e+08
1.50389e+08
1.52801e+08
1.55736e+08
1.5762e+08
1.6037e+08
1.61709e+08
1.64363e+08
1.65142e+08
1.67786e+08
1.68e+08
1.70692e+08
1.70376e+08
1.73145e+08
1.72385e+08
1.7522e+08
1.74156e+08
1.77008e+08
1.75801e+08
1.78598e+08
1.77398e+08
1.80066e+08
1.78988e+08
1.81467e+08
1.80575e+08
1.82828e+08
1.8215e+08
1.84163e+08
1.83688e+08
1.8548e+08
1.05108e+08
1.11546e+08
1.16602e+08
1.21887e+08
1.26564e+08
1.30946e+08
1.35181e+08
1.38858e+08
1.4262e+08
1.45762e+08
1.49019e+08
1.51774e+08
1.54476e+08
1.56992e+08
1.59079e+08
1.61489e+08
1.62896e+08
1.65318e+08
1.66011e+08
1.68514e+08
1.68526e+08
1.71139e+08
1.70579e+08
1.73295e+08
1.72323e+08
1.7511e+08
1.73887e+08
1.767e+08
1.75366e+08
1.78154e+08
1.76809e+08
1.79522e+08
1.78237e+08
1.80831e+08
1.79655e+08
1.82095e+08
1.81058e+08
1.83323e+08
1.82445e+08
1.84524e+08
1.08183e+08
1.14575e+08
1.19445e+08
1.24542e+08
1.29215e+08
1.33292e+08
1.3764e+08
1.40938e+08
1.44865e+08
1.47597e+08
1.51003e+08
1.53378e+08
1.56142e+08
1.58361e+08
1.6036e+08
1.62573e+08
1.63743e+08
1.66022e+08
1.66422e+08
1.68793e+08
1.68573e+08
1.71042e+08
1.70372e+08
1.72937e+08
1.71957e+08
1.74604e+08
1.73415e+08
1.76118e+08
1.74796e+08
1.77515e+08
1.76124e+08
1.78816e+08
1.77409e+08
1.80035e+08
1.78662e+08
1.81189e+08
1.7989e+08
1.82296e+08
1.811e+08
1.83367e+08
1.11901e+08
1.18258e+08
1.22806e+08
1.27764e+08
1.32251e+08
1.36123e+08
1.40341e+08
1.43413e+08
1.47181e+08
1.4973e+08
1.52861e+08
1.55165e+08
1.57472e+08
1.59701e+08
1.61122e+08
1.63328e+08
1.63992e+08
1.66201e+08
1.66305e+08
1.68562e+08
1.68252e+08
1.706e+08
1.69961e+08
1.72411e+08
1.71499e+08
1.7404e+08
1.72907e+08
1.75508e+08
1.74209e+08
1.76833e+08
1.75422e+08
1.78035e+08
1.76568e+08
1.79141e+08
1.77663e+08
1.80172e+08
1.78725e+08
1.8115e+08
1.79765e+08
1.82092e+08
1.16181e+08
1.22489e+08
1.2657e+08
1.31478e+08
1.35519e+08
1.39406e+08
1.43075e+08
1.46314e+08
1.49305e+08
1.52239e+08
1.54307e+08
1.57059e+08
1.58228e+08
1.6076e+08
1.61326e+08
1.63678e+08
1.63874e+08
1.66156e+08
1.66053e+08
1.68352e+08
1.67961e+08
1.70313e+08
1.69645e+08
1.72057e+08
1.71139e+08
1.73598e+08
1.72469e+08
1.74956e+08
1.73662e+08
1.76155e+08
1.74748e+08
1.7723e+08
1.75754e+08
1.78207e+08
1.76703e+08
1.79112e+08
1.77615e+08
1.79965e+08
1.78504e+08
1.80784e+08
1.20941e+08
1.2713e+08
1.30592e+08
1.35601e+08
1.38819e+08
1.43165e+08
1.45616e+08
1.49768e+08
1.51043e+08
1.54941e+08
1.55283e+08
1.58691e+08
1.58686e+08
1.61679e+08
1.61543e+08
1.64278e+08
1.64001e+08
1.66588e+08
1.66126e+08
1.68615e+08
1.67963e+08
1.7039e+08
1.69552e+08
1.71941e+08
1.70927e+08
1.73294e+08
1.72123e+08
1.74472e+08
1.73181e+08
1.75516e+08
1.74131e+08
1.76448e+08
1.75003e+08
1.77295e+08
1.7582e+08
1.78077e+08
1.76601e+08
1.78815e+08
1.77363e+08
1.79523e+08
1.26101e+08
1.32098e+08
1.3475e+08
1.40192e+08
1.42027e+08
1.47489e+08
1.47917e+08
1.53135e+08
1.52585e+08
1.57114e+08
1.56422e+08
1.60423e+08
1.59672e+08
1.62882e+08
1.62415e+08
1.65701e+08
1.64731e+08
1.67716e+08
1.66675e+08
1.69406e+08
1.68312e+08
1.70838e+08
1.69698e+08
1.72076e+08
1.70875e+08
1.73145e+08
1.71901e+08
1.74107e+08
1.728e+08
1.74962e+08
1.7361e+08
1.75738e+08
1.74353e+08
1.76451e+08
1.7505e+08
1.77118e+08
1.75721e+08
1.77753e+08
1.76376e+08
1.78366e+08
1.31613e+08
1.37653e+08
1.39122e+08
1.45588e+08
1.45423e+08
1.5141e+08
1.50758e+08
1.46882e+08
1.51779e+08
1.47155e+08
1.50889e+08
1.49e+08
1.52676e+08
1.51529e+08
1.55348e+08
1.54566e+08
1.58838e+08
1.57814e+08
1.62601e+08
1.61185e+08
1.66411e+08
1.64762e+08
1.69791e+08
1.69023e+08
1.70784e+08
1.72853e+08
1.71659e+08
1.73935e+08
1.72433e+08
1.74569e+08
1.73126e+08
1.75159e+08
1.73762e+08
1.7572e+08
1.74367e+08
1.76263e+08
1.74951e+08
1.76796e+08
1.75525e+08
1.77326e+08
1.37647e+08
1.44451e+08
1.44478e+08
1.39506e+08
1.42483e+08
1.37739e+08
1.40566e+08
1.37672e+08
1.41006e+08
1.38796e+08
1.42512e+08
1.40895e+08
1.44914e+08
1.43633e+08
1.47912e+08
1.46732e+08
1.51212e+08
1.49981e+08
1.54576e+08
1.53264e+08
1.57897e+08
1.56528e+08
1.61299e+08
1.59645e+08
1.64227e+08
1.62819e+08
1.67927e+08
1.6576e+08
1.70915e+08
1.68695e+08
1.72564e+08
1.71547e+08
1.73118e+08
1.73914e+08
1.73654e+08
1.75587e+08
1.74183e+08
1.75999e+08
1.74716e+08
1.7643e+08
1.43445e+08
1.34025e+08
1.34688e+08
1.30685e+08
1.32862e+08
1.29223e+08
1.32374e+08
1.29405e+08
1.3319e+08
1.30884e+08
1.35084e+08
1.33315e+08
1.37798e+08
1.36367e+08
1.41035e+08
1.39778e+08
1.44554e+08
1.43347e+08
1.48177e+08
1.46937e+08
1.51798e+08
1.50441e+08
1.55301e+08
1.53792e+08
1.58711e+08
1.56914e+08
1.61882e+08
1.5974e+08
1.64719e+08
1.62236e+08
1.67196e+08
1.64381e+08
1.69127e+08
1.66237e+08
1.70681e+08
1.67906e+08
1.72366e+08
1.69349e+08
1.73497e+08
1.70691e+08
1.32096e+08
1.25108e+08
1.2665e+08
1.21344e+08
1.24365e+08
1.20223e+08
1.24175e+08
1.20993e+08
1.25501e+08
1.23091e+08
1.27912e+08
1.26079e+08
1.31061e+08
1.29613e+08
1.3466e+08
1.33434e+08
1.38487e+08
1.37349e+08
1.42376e+08
1.41221e+08
1.46203e+08
1.4495e+08
1.49888e+08
1.48459e+08
1.53342e+08
1.51693e+08
1.56518e+08
1.54608e+08
1.5934e+08
1.57177e+08
1.61756e+08
1.59404e+08
1.63783e+08
1.61307e+08
1.65496e+08
1.62899e+08
1.669e+08
1.64184e+08
1.68003e+08
1.65138e+08
1.21682e+08
1.14275e+08
1.16705e+08
1.11146e+08
1.15068e+08
1.10893e+08
1.15688e+08
1.12579e+08
1.17824e+08
1.15523e+08
1.20947e+08
1.1923e+08
1.24674e+08
1.23345e+08
1.28722e+08
1.27621e+08
1.32886e+08
1.31882e+08
1.37014e+08
1.36007e+08
1.41e+08
1.39911e+08
1.44763e+08
1.43537e+08
1.48243e+08
1.46845e+08
1.51397e+08
1.49811e+08
1.54192e+08
1.52424e+08
1.56612e+08
1.54688e+08
1.58663e+08
1.56612e+08
1.60353e+08
1.5821e+08
1.617e+08
1.59497e+08
1.6268e+08
1.60493e+08
1.0894e+08
1.01971e+08
1.05419e+08
1.00182e+08
1.05121e+08
1.0127e+08
1.06973e+08
1.04186e+08
1.10178e+08
1.08174e+08
1.14177e+08
1.1272e+08
1.18583e+08
1.17483e+08
1.23134e+08
1.22241e+08
1.27653e+08
1.26849e+08
1.32017e+08
1.31213e+08
1.36143e+08
1.35275e+08
1.39973e+08
1.38997e+08
1.43469e+08
1.4236e+08
1.46607e+08
1.45353e+08
1.49375e+08
1.4798e+08
1.51769e+08
1.50248e+08
1.53795e+08
1.52175e+08
1.55466e+08
1.53784e+08
1.56801e+08
1.55104e+08
1.57824e+08
1.5617e+08
9.46976e+07
8.86027e+07
9.3107e+07
8.86215e+07
9.46139e+07
9.1426e+07
9.80363e+07
9.5822e+07
1.02527e+08
1.01004e+08
1.07528e+08
1.0647e+08
1.12684e+08
1.11918e+08
1.17776e+08
1.1717e+08
1.22668e+08
1.22123e+08
1.27275e+08
1.26721e+08
1.31546e+08
1.30933e+08
1.3545e+08
1.34746e+08
1.38971e+08
1.38158e+08
1.42104e+08
1.41173e+08
1.44851e+08
1.43804e+08
1.4722e+08
1.46069e+08
1.49226e+08
1.4799e+08
1.50891e+08
1.49599e+08
1.52246e+08
1.50934e+08
1.53323e+08
1.52037e+08
7.95223e+07
7.45667e+07
8.01263e+07
7.67271e+07
8.37472e+07
8.15233e+07
8.89686e+07
8.75641e+07
9.48807e+07
9.40166e+07
1.00953e+08
1.00426e+08
1.06892e+08
1.06556e+08
1.12538e+08
1.12291e+08
1.17809e+08
1.17578e+08
1.22665e+08
1.224e+08
1.2709e+08
1.26758e+08
1.31081e+08
1.30661e+08
1.34644e+08
1.34126e+08
1.3779e+08
1.37171e+08
1.40535e+08
1.39817e+08
1.42896e+08
1.42084e+08
1.44897e+08
1.44e+08
1.46565e+08
1.45595e+08
1.47935e+08
1.46913e+08
1.49049e+08
1.48011e+08
6.3846e+07
6.02272e+07
6.68529e+07
6.48278e+07
7.28122e+07
7.18122e+07
7.99561e+07
7.95622e+07
8.73288e+07
8.72729e+07
9.44686e+07
9.45831e+07
1.01169e+08
1.01348e+08
1.07347e+08
1.07522e+08
1.12981e+08
1.13108e+08
1.18077e+08
1.18129e+08
1.22655e+08
1.22618e+08
1.26741e+08
1.26609e+08
1.30362e+08
1.30134e+08
1.33543e+08
1.33224e+08
1.36312e+08
1.35907e+08
1.38694e+08
1.38205e+08
1.40714e+08
1.40139e+08
1.42401e+08
1.41728e+08
1.43792e+08
1.43009e+08
1.44934e+08
1.44056e+08
4.8018e+07
4.59441e+07
5.36992e+07
5.33379e+07
6.2185e+07
6.26284e+07
7.12682e+07
7.20345e+07
8.00339e+07
8.08908e+07
8.81524e+07
8.89855e+07
9.55318e+07
9.62826e+07
1.02175e+08
1.02814e+08
1.08121e+08
1.08634e+08
1.13422e+08
1.13805e+08
1.18132e+08
1.18388e+08
1.22301e+08
1.22441e+08
1.25978e+08
1.26014e+08
1.29205e+08
1.29153e+08
1.32021e+08
1.31896e+08
1.34458e+08
1.34271e+08
1.36544e+08
1.36291e+08
1.38303e+08
1.37949e+08
1.39763e+08
1.39224e+08
1.40979e+08
1.40149e+08
3.23546e+07
3.21841e+07
4.12147e+07
4.28541e+07
5.2365e+07
5.44158e+07
6.32556e+07
6.52612e+07
7.32196e+07
7.50366e+07
8.21374e+07
8.37242e+07
9.00498e+07
9.14011e+07
9.7043e+07
9.81669e+07
1.03211e+08
1.04121e+08
1.08643e+08
1.09355e+08
1.13421e+08
1.13953e+08
1.17618e+08
1.1799e+08
1.213e+08
1.21534e+08
1.24528e+08
1.24648e+08
1.27358e+08
1.2739e+08
1.2984e+08
1.29814e+08
1.3202e+08
1.31957e+08
1.33938e+08
1.33818e+08
1.35628e+08
1.35259e+08
1.37175e+08
1.35666e+08
1.73193e+07
2.0019e+07
3.03933e+07
3.43671e+07
4.40613e+07
4.77532e+07
5.63575e+07
5.95771e+07
6.71635e+07
6.99174e+07
7.66072e+07
7.89384e+07
8.48486e+07
8.68034e+07
9.20373e+07
9.36575e+07
9.83035e+07
9.96251e+07
1.03758e+08
1.04812e+08
1.08496e+08
1.09307e+08
1.12593e+08
1.13184e+08
1.16114e+08
1.16504e+08
1.19111e+08
1.19317e+08
1.21619e+08
1.21658e+08
1.23656e+08
1.23555e+08
1.25214e+08
1.25029e+08
1.26226e+08
1.26118e+08
1.26479e+08
1.26979e+08
1.25306e+08
1.28307e+08
6.42643e+06
1.362e+07
2.34102e+07
2.94595e+07
3.82566e+07
4.33174e+07
5.10839e+07
5.53372e+07
6.21782e+07
6.57614e+07
7.17879e+07
7.48078e+07
8.01213e+07
8.26628e+07
8.73521e+07
8.94836e+07
9.3625e+07
9.54032e+07
9.90612e+07
1.00534e+08
1.03762e+08
1.04971e+08
1.07812e+08
1.08797e+08
1.11284e+08
1.12082e+08
1.14238e+08
1.14889e+08
1.16726e+08
1.17279e+08
1.18794e+08
1.19315e+08
1.20493e+08
1.21075e+08
1.2191e+08
1.22672e+08
1.23273e+08
1.24257e+08
1.25375e+08
1.25873e+08
1.52324e+07
1.89131e+07
2.33734e+07
2.95775e+07
3.59723e+07
4.16564e+07
4.79045e+07
5.28152e+07
5.85308e+07
6.27305e+07
6.78539e+07
7.14374e+07
7.59917e+07
7.90474e+07
8.30786e+07
8.56825e+07
8.92408e+07
9.14582e+07
9.4591e+07
9.64788e+07
9.92283e+07
1.00837e+08
1.03239e+08
1.04616e+08
1.06702e+08
1.07889e+08
1.09685e+08
1.10728e+08
1.12259e+08
1.13199e+08
1.14493e+08
1.15371e+08
1.16475e+08
1.17311e+08
1.18316e+08
1.19082e+08
1.2014e+08
1.20709e+08
1.21875e+08
1.22174e+08
2.87308e+07
2.96316e+07
2.97451e+07
3.42513e+07
3.75441e+07
4.28551e+07
4.70886e+07
5.21282e+07
5.64079e+07
6.09191e+07
6.49368e+07
6.88965e+07
7.25542e+07
7.60033e+07
7.92821e+07
8.22773e+07
8.51897e+07
8.77886e+07
9.03591e+07
9.26155e+07
9.48724e+07
9.68356e+07
9.88081e+07
1.00523e+08
1.0224e+08
1.03745e+08
1.05237e+08
1.06568e+08
1.07867e+08
1.09051e+08
1.10197e+08
1.11246e+08
1.12289e+08
1.13199e+08
1.14193e+08
1.14938e+08
1.1592e+08
1.16479e+08
1.1747e+08
1.17826e+08
4.20855e+07
4.12713e+07
3.90465e+07
4.15891e+07
4.22077e+07
4.6427e+07
4.85452e+07
5.31772e+07
5.58594e+07
6.03297e+07
6.31065e+07
6.72095e+07
6.98687e+07
7.35524e+07
7.60047e+07
7.9278e+07
8.14925e+07
8.43869e+07
8.63609e+07
8.89151e+07
9.06601e+07
9.29133e+07
9.44477e+07
9.64363e+07
9.7783e+07
9.95389e+07
1.00724e+08
1.02273e+08
1.03324e+08
1.04684e+08
1.05632e+08
1.06813e+08
1.07688e+08
1.08692e+08
1.09518e+08
1.10345e+08
1.11139e+08
1.11789e+08
1.12563e+08
1.13039e+08
5.4929e+07
5.28044e+07
4.92374e+07
5.00835e+07
4.876e+07
5.16142e+07
5.18501e+07
5.56736e+07
5.67746e+07
6.08669e+07
6.23567e+07
6.63523e+07
6.79576e+07
7.16932e+07
7.32694e+07
7.66853e+07
7.81615e+07
8.12476e+07
8.25933e+07
8.53623e+07
8.65694e+07
8.90435e+07
9.01167e+07
9.23203e+07
9.32717e+07
9.52281e+07
9.60739e+07
9.7803e+07
9.85615e+07
1.00079e+08
1.00769e+08
1.02087e+08
1.02724e+08
1.03854e+08
1.04452e+08
1.054e+08
1.05969e+08
1.06746e+08
1.07292e+08
1.07907e+08
6.71621e+07
6.39258e+07
5.95037e+07
5.89197e+07
5.62422e+07
5.77244e+07
5.64428e+07
5.92365e+07
5.89113e+07
6.23566e+07
6.2604e+07
6.62541e+07
6.68034e+07
7.04004e+07
7.10816e+07
7.4492e+07
7.5206e+07
7.83687e+07
7.90611e+07
8.19549e+07
8.25988e+07
8.52228e+07
8.58082e+07
8.81717e+07
8.86982e+07
9.08145e+07
9.12875e+07
9.31709e+07
9.35986e+07
9.5263e+07
9.56544e+07
9.71126e+07
9.74763e+07
9.87406e+07
9.9084e+07
1.00166e+08
1.00495e+08
1.01407e+08
1.01724e+08
1.02478e+08
7.87317e+07
7.45029e+07
6.94957e+07
6.76776e+07
6.40509e+07
6.42505e+07
6.18061e+07
6.34893e+07
6.19629e+07
6.45809e+07
6.37027e+07
6.68062e+07
6.63506e+07
6.96264e+07
6.94288e+07
7.26816e+07
7.26318e+07
7.57489e+07
7.57773e+07
7.86991e+07
7.87638e+07
8.14624e+07
8.15402e+07
8.40062e+07
8.40852e+07
8.63196e+07
8.63955e+07
8.84047e+07
8.8477e+07
9.02705e+07
9.0341e+07
9.19296e+07
9.2001e+07
9.33962e+07
9.34712e+07
9.46848e+07
9.47658e+07
9.581e+07
9.58985e+07
9.67856e+07
8.95965e+07
8.44582e+07
7.90355e+07
7.61248e+07
7.18247e+07
7.08499e+07
6.75376e+07
6.81117e+07
6.5623e+07
6.73143e+07
6.54713e+07
6.78762e+07
6.65118e+07
6.93051e+07
6.82808e+07
7.12283e+07
7.04395e+07
7.33853e+07
7.2758e+07
7.56051e+07
7.50891e+07
7.77805e+07
7.7343e+07
7.98477e+07
7.94682e+07
8.1772e+07
8.14378e+07
8.35366e+07
8.32405e+07
8.51366e+07
8.48744e+07
8.6574e+07
8.63436e+07
8.78551e+07
8.76554e+07
8.89886e+07
8.8819e+07
8.99846e+07
8.98447e+07
9.08535e+07
9.97187e+07
9.37356e+07
8.80162e+07
8.41193e+07
7.93414e+07
7.72928e+07
7.3346e+07
7.28521e+07
6.9623e+07
7.03484e+07
6.77191e+07
6.93238e+07
6.71783e+07
6.93572e+07
6.75907e+07
7.00967e+07
6.86218e+07
7.12712e+07
7.00193e+07
7.26837e+07
7.16037e+07
7.41981e+07
7.32531e+07
7.57238e+07
7.48876e+07
7.72028e+07
7.64572e+07
7.85998e+07
7.79324e+07
7.9895e+07
7.9297e+07
8.1079e+07
8.05443e+07
8.21491e+07
8.16733e+07
8.31069e+07
8.26868e+07
8.3957e+07
8.35901e+07
8.47057e+07
1.09062e+08
1.02289e+08
9.63643e+07
9.15656e+07
8.64559e+07
8.34222e+07
7.9025e+07
7.75201e+07
7.37447e+07
7.35043e+07
7.02662e+07
7.10125e+07
6.82317e+07
6.96965e+07
6.72983e+07
6.92442e+07
6.71625e+07
6.93952e+07
6.75738e+07
6.99444e+07
6.83377e+07
7.07378e+07
6.93099e+07
7.16642e+07
7.03874e+07
7.26456e+07
7.14993e+07
7.36295e+07
7.25977e+07
7.45812e+07
7.36521e+07
7.54791e+07
7.46438e+07
7.63108e+07
7.55622e+07
7.70702e+07
7.64029e+07
7.77555e+07
7.7165e+07
7.83679e+07
1.17589e+08
1.10079e+08
1.04024e+08
9.83944e+07
9.30682e+07
8.91268e+07
8.44276e+07
8.19727e+07
7.78177e+07
7.66346e+07
7.29549e+07
7.28177e+07
6.95537e+07
7.02358e+07
6.73346e+07
6.86225e+07
6.60367e+07
6.77417e+07
6.54297e+07
6.7395e+07
6.53207e+07
6.74227e+07
6.55557e+07
6.77012e+07
6.60165e+07
6.81378e+07
6.66149e+07
6.8665e+07
6.72873e+07
6.92346e+07
6.79886e+07
6.9813e+07
6.8688e+07
7.03777e+07
6.9365e+07
7.09142e+07
7.00067e+07
7.14137e+07
7.06056e+07
7.18716e+07
1.25267e+08
1.17068e+08
1.10949e+08
1.04553e+08
9.91056e+07
9.43258e+07
8.94472e+07
8.61032e+07
8.17114e+07
7.96213e+07
7.56524e+07
7.46302e+07
7.10334e+07
7.08913e+07
6.76256e+07
6.81799e+07
6.52111e+07
6.62902e+07
6.35889e+07
6.50406e+07
6.25811e+07
6.42763e+07
6.20362e+07
6.38706e+07
6.18299e+07
6.37222e+07
6.18637e+07
6.37527e+07
6.20615e+07
6.39027e+07
6.23657e+07
6.41278e+07
6.27339e+07
6.43957e+07
6.31355e+07
6.46832e+07
6.35488e+07
6.49741e+07
6.3959e+07
6.52578e+07
1.3206e+08
1.23226e+08
1.17102e+08
1.09999e+08
1.04514e+08
9.89596e+07
9.40058e+07
8.98309e+07
8.53259e+07
8.237e+07
7.82495e+07
7.63557e+07
7.25707e+07
7.15833e+07
6.80965e+07
6.7862e+07
6.46453e+07
6.50154e+07
6.20468e+07
6.28831e+07
6.01448e+07
6.13229e+07
5.88001e+07
6.02126e+07
5.78916e+07
5.94493e+07
5.7318e+07
5.89493e+07
5.69961e+07
5.86452e+07
5.68593e+07
5.84841e+07
5.68557e+07
5.84249e+07
5.69452e+07
5.84363e+07
5.70974e+07
5.84945e+07
5.72901e+07
5.85823e+07
1.37937e+08
1.28522e+08
1.22453e+08
1.14704e+08
1.09253e+08
1.02984e+08
9.80458e+07
9.30937e+07
8.85841e+07
8.48029e+07
8.06559e+07
7.79102e+07
7.40745e+07
7.22348e+07
6.86714e+07
6.7611e+07
6.42913e+07
6.38861e+07
6.07899e+07
6.09201e+07
5.80332e+07
5.85865e+07
5.58984e+07
5.67727e+07
5.42753e+07
5.53807e+07
5.30667e+07
5.43267e+07
5.21888e+07
5.35401e+07
5.15712e+07
5.2963e+07
5.11556e+07
5.25476e+07
5.08945e+07
5.22557e+07
5.075e+07
5.20562e+07
5.06925e+07
5.1925e+07
1.42865e+08
1.32937e+08
1.26979e+08
1.18647e+08
1.13296e+08
1.06366e+08
1.01523e+08
9.58365e+07
9.14212e+07
8.68449e+07
8.27894e+07
7.92101e+07
7.54574e+07
7.2767e+07
6.92722e+07
6.73647e+07
6.40944e+07
6.28659e+07
5.97967e+07
5.9146e+07
5.62624e+07
5.60926e+07
5.33847e+07
5.36049e+07
5.10666e+07
5.15932e+07
4.92203e+07
4.99788e+07
4.77679e+07
4.86931e+07
4.66404e+07
4.76772e+07
4.57782e+07
4.68807e+07
4.51299e+07
4.62607e+07
4.46519e+07
4.57799e+07
4.43083e+07
4.54066e+07
1.46815e+08
1.36462e+08
1.30673e+08
1.2182e+08
1.16626e+08
1.09066e+08
1.04395e+08
9.79774e+07
9.37616e+07
8.83994e+07
8.45593e+07
8.0161e+07
7.66284e+07
7.30979e+07
6.98195e+07
6.70614e+07
6.39976e+07
6.19202e+07
5.90422e+07
5.75584e+07
5.48466e+07
5.38739e+07
5.13156e+07
5.07762e+07
4.8364e+07
4.81853e+07
4.59151e+07
4.60304e+07
4.39002e+07
4.42491e+07
4.22571e+07
4.27865e+07
4.09301e+07
4.1594e+07
3.98685e+07
4.06284e+07
3.90264e+07
3.98493e+07
3.83621e+07
3.92167e+07
1.49772e+08
1.3913e+08
1.33555e+08
1.24205e+08
1.19219e+08
1.10909e+08
1.06547e+08
9.9349e+07
9.54798e+07
8.93379e+07
8.58568e+07
8.06694e+07
7.74996e+07
7.31614e+07
7.02463e+07
6.66596e+07
6.39567e+07
6.10335e+07
5.85111e+07
5.61721e+07
5.38068e+07
5.19798e+07
4.97553e+07
4.83742e+07
4.62796e+07
4.52835e+07
4.33122e+07
4.26452e+07
4.07938e+07
4.04047e+07
3.86713e+07
3.85143e+07
3.68968e+07
3.69324e+07
3.54257e+07
3.56213e+07
3.42138e+07
3.45444e+07
3.32139e+07
3.36583e+07
1.51818e+08
1.41129e+08
1.35705e+08
1.25101e+08
1.20729e+08
1.11478e+08
1.07706e+08
9.97495e+07
9.64184e+07
8.95731e+07
8.65985e+07
8.07037e+07
7.80278e+07
7.29539e+07
7.05316e+07
6.6173e+07
6.39677e+07
6.02362e+07
5.8218e+07
5.50384e+07
5.31831e+07
5.04899e+07
4.87788e+07
4.65139e+07
4.49332e+07
4.30443e+07
4.15847e+07
4.00248e+07
3.86805e+07
3.74072e+07
3.61755e+07
3.51512e+07
3.40308e+07
3.32239e+07
3.22119e+07
3.15994e+07
3.06851e+07
3.02561e+07
2.94042e+07
2.91682e+07
1.54029e+08
1.38285e+08
1.3537e+08
1.23456e+08
1.20424e+08
1.10578e+08
1.07673e+08
9.92399e+07
9.65754e+07
8.92319e+07
8.68461e+07
8.03956e+07
7.82881e+07
7.25946e+07
7.07475e+07
6.5708e+07
6.40965e+07
5.96284e+07
5.82267e+07
5.42609e+07
5.30452e+07
4.95221e+07
4.8472e+07
4.53392e+07
4.44386e+07
4.16485e+07
4.08863e+07
3.83947e+07
3.77653e+07
3.55299e+07
3.50342e+07
3.30135e+07
3.26599e+07
3.08131e+07
3.0618e+07
2.89078e+07
2.88958e+07
2.73003e+07
2.74973e+07
2.60484e+07
2.75701e+07
2.32852e+07
2.93651e+07
2.51476e+07
3.37893e+07
2.91289e+07
3.95545e+07
3.43611e+07
4.60449e+07
4.02685e+07
5.29091e+07
4.65132e+07
5.99368e+07
5.28971e+07
6.69958e+07
5.92997e+07
7.39986e+07
6.56438e+07
8.08844e+07
7.18785e+07
8.76087e+07
7.79694e+07
9.41377e+07
8.38932e+07
1.00444e+08
8.96351e+07
1.06504e+08
9.51864e+07
1.12294e+08
1.00543e+08
1.17785e+08
1.05706e+08
1.22938e+08
1.10678e+08
1.27685e+08
1.15461e+08
1.31889e+08
1.20054e+08
1.35197e+08
1.2443e+08
2.44418e+07
2.13978e+07
2.68555e+07
2.3631e+07
3.15113e+07
2.78753e+07
3.74486e+07
3.32931e+07
4.40553e+07
3.93179e+07
5.09886e+07
4.56269e+07
5.80511e+07
5.20353e+07
6.51213e+07
5.84318e+07
7.21198e+07
6.4745e+07
7.89913e+07
7.09271e+07
8.56959e+07
7.69454e+07
9.22034e+07
8.27773e+07
9.84898e+07
8.8407e+07
1.04535e+08
9.38242e+07
1.1032e+08
9.90217e+07
1.15823e+08
1.03994e+08
1.21014e+08
1.08734e+08
1.25845e+08
1.13228e+08
1.30218e+08
1.17443e+08
1.33898e+08
1.21273e+08
2.26299e+07
2.04687e+07
2.52908e+07
2.28979e+07
2.99901e+07
2.72163e+07
3.59017e+07
3.2635e+07
4.24487e+07
3.86194e+07
4.93016e+07
4.48634e+07
5.62713e+07
5.11916e+07
6.3243e+07
5.74977e+07
7.01416e+07
6.37133e+07
7.69156e+07
6.97923e+07
8.35278e+07
7.57027e+07
8.99505e+07
8.1422e+07
9.61621e+07
8.69347e+07
1.02145e+08
9.22299e+07
1.07885e+08
9.72999e+07
1.13364e+08
1.02139e+08
1.18561e+08
1.06739e+08
1.23445e+08
1.11091e+08
1.27951e+08
1.15167e+08
1.31938e+08
1.18903e+08
2.18131e+07
2.03043e+07
2.44816e+07
2.27707e+07
2.90681e+07
2.70122e+07
3.48125e+07
3.22991e+07
4.11769e+07
3.81334e+07
4.78461e+07
4.4224e+07
5.46363e+07
5.04009e+07
6.14353e+07
5.65596e+07
6.81701e+07
6.26326e+07
7.47904e+07
6.85738e+07
8.12605e+07
7.43511e+07
8.75537e+07
7.99417e+07
9.36504e+07
8.53297e+07
9.95348e+07
9.05042e+07
1.05194e+08
9.54573e+07
1.10616e+08
1.00184e+08
1.15785e+08
1.04677e+08
1.2068e+08
1.0893e+08
1.25261e+08
1.12927e+08
1.29444e+08
1.16628e+08
2.17518e+07
2.07269e+07
2.42799e+07
2.31145e+07
2.86337e+07
2.71696e+07
3.41108e+07
3.22325e+07
4.02088e+07
3.78417e+07
4.66241e+07
4.37182e+07
5.31759e+07
4.96947e+07
5.97522e+07
5.56668e+07
6.62796e+07
6.15658e+07
7.27079e+07
6.73448e+07
7.90014e+07
7.29707e+07
8.5134e+07
7.84202e+07
9.10865e+07
8.36767e+07
9.68444e+07
8.87287e+07
1.02396e+08
9.35685e+07
1.07733e+08
9.81906e+07
1.12843e+08
1.02591e+08
1.17712e+08
1.06763e+08
1.22317e+08
1.10698e+08
1.26607e+08
1.14373e+08
2.22542e+07
2.15857e+07
2.45632e+07
2.38243e+07
2.86053e+07
2.76235e+07
3.37479e+07
3.24022e+07
3.95231e+07
3.77359e+07
4.56374e+07
4.33567e+07
5.19109e+07
4.90988e+07
5.82304e+07
5.48564e+07
6.45208e+07
6.05589e+07
7.07308e+07
6.6158e+07
7.6824e+07
7.16191e+07
8.27739e+07
7.69177e+07
8.85613e+07
8.20364e+07
9.41722e+07
8.69632e+07
9.95962e+07
9.16898e+07
1.04825e+08
9.62109e+07
1.09851e+08
1.00523e+08
1.14666e+08
1.04622e+08
1.19254e+08
1.08502e+08
1.23585e+08
1.12151e+08
2.3169e+07
2.27624e+07
2.52293e+07
2.48183e+07
2.89191e+07
2.83253e+07
3.36872e+07
3.27846e+07
3.91037e+07
3.78109e+07
4.48859e+07
4.31481e+07
5.08544e+07
4.86321e+07
5.68938e+07
5.41552e+07
6.2927e+07
5.96449e+07
6.89007e+07
6.50507e+07
7.4777e+07
7.03364e+07
8.05286e+07
7.54762e+07
8.6136e+07
8.04517e+07
9.15848e+07
8.52497e+07
9.68652e+07
8.98617e+07
1.0197e+08
9.42821e+07
1.06893e+08
9.85075e+07
1.11629e+08
1.02535e+08
1.16169e+08
1.06362e+08
1.20495e+08
1.09981e+08
2.43817e+07
2.41686e+07
2.61944e+07
2.60325e+07
2.95211e+07
2.92359e+07
3.38971e+07
3.33602e+07
3.89353e+07
3.80611e+07
4.43663e+07
4.30972e+07
5.00126e+07
4.83069e+07
5.57567e+07
5.35815e+07
6.15189e+07
5.88463e+07
6.72438e+07
6.40486e+07
7.28917e+07
6.91506e+07
7.84342e+07
7.41249e+07
8.38507e+07
7.89518e+07
8.91266e+07
8.36173e+07
9.42516e+07
8.81121e+07
9.92191e+07
9.24302e+07
1.04024e+08
9.65682e+07
1.08663e+08
1.00524e+08
1.13131e+08
1.04296e+08
1.17418e+08
1.07881e+08
2.58078e+07
2.57397e+07
2.73905e+07
2.74169e+07
3.03645e+07
3.03219e+07
3.43486e+07
3.41099e+07
3.90019e+07
3.8479e+07
4.40724e+07
4.32048e+07
4.93864e+07
4.81303e+07
5.48255e+07
5.31468e+07
6.03078e+07
5.81778e+07
6.57755e+07
6.31688e+07
7.11871e+07
6.80802e+07
7.65128e+07
7.28831e+07
8.17307e+07
7.75564e+07
8.68254e+07
8.20853e+07
9.17865e+07
8.64596e+07
9.66068e+07
9.06725e+07
1.01282e+08
9.47206e+07
1.0581e+08
9.8602e+07
1.10188e+08
1.02316e+08
1.14412e+08
1.05862e+08
2.73865e+07
2.74284e+07
2.87633e+07
2.89315e+07
3.14077e+07
3.15537e+07
3.5013e+07
3.50149e+07
3.92854e+07
3.90544e+07
4.3994e+07
4.34674e+07
4.89718e+07
4.81039e+07
5.41009e+07
5.28564e+07
5.92978e+07
5.76476e+07
6.4503e+07
6.24214e+07
6.96731e+07
6.71366e+07
7.47764e+07
7.17629e+07
7.97902e+07
7.62781e+07
8.46979e+07
8.06661e+07
8.94883e+07
8.49157e+07
9.41541e+07
8.90197e+07
9.8691e+07
9.29741e+07
1.03097e+08
9.67771e+07
1.07371e+08
1.00428e+08
1.11511e+08
1.03928e+08
2.90731e+07
2.92e+07
3.02699e+07
3.05446e+07
3.26141e+07
3.29051e+07
3.58623e+07
3.60556e+07
3.97661e+07
3.97747e+07
4.41181e+07
4.38782e+07
4.87608e+07
4.82252e+07
5.35787e+07
5.27112e+07
5.84881e+07
5.72589e+07
6.34278e+07
6.18113e+07
6.83529e+07
6.6326e+07
7.32304e+07
7.07713e+07
7.80361e+07
7.51238e+07
8.27523e+07
7.93665e+07
8.73671e+07
8.34871e+07
9.18724e+07
8.74779e+07
9.62636e+07
9.1334e+07
1.00539e+08
9.50535e+07
1.04697e+08
9.86362e+07
1.0874e+08
1.02083e+08
3.08347e+07
3.10279e+07
3.18761e+07
3.22305e+07
3.39515e+07
3.43523e+07
3.68693e+07
3.72126e+07
4.04227e+07
4.06251e+07
4.44289e+07
4.4427e+07
4.8742e+07
4.8488e+07
5.32511e+07
5.27079e+07
5.78733e+07
5.70107e+07
6.25467e+07
6.13392e+07
6.72253e+07
6.56501e+07
7.18748e+07
6.99107e+07
7.64695e+07
7.40966e+07
8.09911e+07
7.81897e+07
8.54263e+07
8.21769e+07
8.97664e+07
8.60496e+07
9.40063e+07
8.98024e+07
9.81437e+07
9.34328e+07
1.02178e+08
9.69404e+07
1.06112e+08
1.00327e+08
3.26463e+07
3.28917e+07
3.35544e+07
3.39678e+07
3.53916e+07
3.58742e+07
3.8008e+07
3.84667e+07
4.12332e+07
4.15898e+07
4.49086e+07
4.51015e+07
4.89015e+07
4.88831e+07
5.31072e+07
5.284e+07
5.74449e+07
5.68986e+07
6.18531e+07
6.10023e+07
6.62851e+07
6.51074e+07
7.07056e+07
6.91805e+07
7.50879e+07
7.31963e+07
7.94124e+07
7.71358e+07
8.36652e+07
8.09853e+07
8.78365e+07
8.4735e+07
9.19205e+07
8.83791e+07
9.59144e+07
9.19143e+07
9.98179e+07
9.53401e+07
1.03632e+08
9.86577e+07
3.44884e+07
3.47744e+07
3.52822e+07
3.57385e+07
3.69098e+07
3.74518e+07
3.9254e+07
3.97993e+07
4.21753e+07
4.26521e+07
4.55378e+07
4.58875e+07
4.9223e+07
4.93988e+07
5.31334e+07
5.30983e+07
5.71918e+07
5.69156e+07
6.13377e+07
6.07951e+07
6.55245e+07
6.46936e+07
6.97162e+07
6.85773e+07
7.38853e+07
7.24202e+07
7.80115e+07
7.62027e+07
8.20796e+07
7.99102e+07
8.60793e+07
8.35323e+07
9.00037e+07
8.70622e+07
9.38496e+07
9.04963e+07
9.7616e+07
9.38333e+07
1.01304e+08
9.70742e+07
3.63448e+07
3.66621e+07
3.70409e+07
3.7527e+07
3.84848e+07
3.90678e+07
4.05847e+07
4.11926e+07
4.32271e+07
4.37949e+07
4.62967e+07
4.67697e+07
4.96889e+07
5.00221e+07
5.33145e+07
5.34717e+07
5.71006e+07
5.70521e+07
6.09889e+07
6.07097e+07
6.49332e+07
6.44021e+07
6.88975e+07
6.80955e+07
7.28539e+07
7.17636e+07
7.67811e+07
7.53861e+07
8.06633e+07
7.89479e+07
8.44892e+07
8.24379e+07
8.82512e+07
8.58486e+07
9.19453e+07
8.91757e+07
9.55698e+07
9.24172e+07
9.91256e+07
9.55737e+07
3.82021e+07
3.85427e+07
3.88145e+07
3.93198e+07
4.00977e+07
4.07067e+07
4.19795e+07
4.26299e+07
4.43677e+07
4.50016e+07
4.71652e+07
4.77322e+07
5.02807e+07
5.07385e+07
5.36337e+07
5.39473e+07
5.71565e+07
5.7297e+07
6.07933e+07
6.07365e+07
6.44994e+07
6.42244e+07
6.82389e+07
6.77276e+07
7.19839e+07
7.12198e+07
7.57124e+07
7.46802e+07
7.9408e+07
7.80932e+07
8.30587e+07
8.14472e+07
8.66562e+07
8.4734e+07
9.01955e+07
8.79485e+07
9.36743e+07
9.10882e+07
9.70928e+07
9.4153e+07
4.00486e+07
4.04052e+07
4.0589e+07
4.11045e+07
4.17316e+07
4.23543e+07
4.34192e+07
4.40954e+07
4.55769e+07
4.62557e+07
4.81234e+07
4.8759e+07
5.09796e+07
5.15328e+07
5.40737e+07
5.45113e+07
5.73433e+07
5.76377e+07
6.07363e+07
6.0864e+07
6.42096e+07
6.41505e+07
6.7728e+07
6.74648e+07
7.12638e+07
7.07808e+07
7.47948e+07
7.40778e+07
7.83042e+07
7.73397e+07
8.17791e+07
8.05544e+07
8.52107e+07
8.37131e+07
8.8593e+07
8.68101e+07
9.19232e+07
8.98422e+07
9.52004e+07
9.28086e+07
4.18737e+07
4.22398e+07
4.23523e+07
4.287e+07
4.33717e+07
4.39975e+07
4.48866e+07
4.55745e+07
4.6836e+07
4.75415e+07
4.91521e+07
4.98342e+07
5.17667e+07
5.23896e+07
5.46162e+07
5.5149e+07
5.76443e+07
5.80607e+07
6.08023e+07
6.108e+07
6.40492e+07
6.41691e+07
6.73514e+07
6.72968e+07
7.06813e+07
7.04374e+07
7.40169e+07
7.35705e+07
7.73409e+07
7.66797e+07
8.06403e+07
7.97525e+07
8.39052e+07
8.27797e+07
8.71293e+07
8.57549e+07
9.03087e+07
8.86743e+07
9.34419e+07
9.15363e+07
4.36678e+07
4.40372e+07
4.40929e+07
4.46058e+07
4.50043e+07
4.5624e+07
4.63656e+07
4.70532e+07
4.81274e+07
4.8844e+07
5.02326e+07
5.09422e+07
5.26232e+07
5.32933e+07
5.52433e+07
5.58455e+07
5.8042e+07
5.85518e+07
6.09747e+07
6.13711e+07
6.4003e+07
6.42679e+07
6.70946e+07
6.72122e+07
7.02228e+07
7.01792e+07
7.33659e+07
7.31488e+07
7.65065e+07
7.61045e+07
7.96312e+07
7.90337e+07
8.27297e+07
8.19267e+07
8.57949e+07
8.47766e+07
8.88222e+07
8.7579e+07
9.18094e+07
9.03315e+07
4.54217e+07
4.57885e+07
4.58004e+07
4.63021e+07
4.66168e+07
4.72226e+07
4.78417e+07
4.85184e+07
4.94344e+07
5.01487e+07
5.13475e+07
5.20678e+07
5.35312e+07
5.42286e+07
5.59368e+07
5.65855e+07
5.85189e+07
5.90964e+07
6.12368e+07
6.17235e+07
6.40549e+07
6.44338e+07
6.69425e+07
6.71989e+07
6.98741e+07
6.9995e+07
7.28285e+07
7.28022e+07
7.57883e+07
7.56046e+07
7.874e+07
7.83892e+07
8.16729e+07
8.11462e+07
8.45794e+07
8.38681e+07
8.74543e+07
8.655e+07
9.02944e+07
8.91888e+07
4.71265e+07
4.74849e+07
4.7465e+07
4.79494e+07
4.81978e+07
4.87822e+07
4.93011e+07
4.99577e+07
5.07417e+07
5.1442e+07
5.24798e+07
5.31964e+07
5.4473e+07
5.51804e+07
5.6679e+07
5.7354e+07
5.90575e+07
5.96797e+07
6.15716e+07
6.21229e+07
6.41884e+07
6.46533e+07
6.68795e+07
6.72441e+07
6.96204e+07
6.98726e+07
7.23905e+07
7.25198e+07
7.5173e+07
7.51697e+07
7.79541e+07
7.78097e+07
8.07232e+07
8.04296e+07
8.3472e+07
8.30217e+07
8.61947e+07
8.55804e+07
8.88875e+07
8.81022e+07
4.87737e+07
4.91181e+07
4.9077e+07
4.95383e+07
4.97359e+07
5.02925e+07
5.0731e+07
5.13593e+07
5.20347e+07