/*--------------------------------*- C++ -*----------------------------------*\
| =========                 |                                                 |
| \\      /  F ield         | OpenFOAM: The Open Source CFD Toolbox           |
|  \\    /   O peration     | Version:  v2012                                 |
|   \\  /    A nd           | Website:  www.openfoam.com                      |
|    \\/     M anipulation  |                                                 |
\*---------------------------------------------------------------------------*/
FoamFile
{
    version     2.0;
    format      ascii;
    class       volScalarField;
    location    "9";
    object      sigmaEq;
}
// * * * * * * * * * * * * * * * * * * * * * * * * * * * * * * * * * * * * * //

dimensions      [1 -1 -2 0 0 0 0];


internalField   nonuniform List<scalar> 
32000
(
2.43e+08
2.43e+08
2.43e+08
2.43e+08
2.43e+08
2.43e+08
2.43e+08
2.43e+08
2.43e+08
2.43e+08
2.43e+08
2.43e+08
2.43e+08
2.43e+08
2.43e+08
2.43e+08
2.43e+08
2.43e+08
2.43e+08
2.43e+08
2.43e+08
2.43e+08
2.43e+08
2.43e+08
2.43e+08
2.43e+08
2.43e+08
2.43e+08
2.43e+08
2.43e+08
2.43e+08
2.43e+08
2.43e+08
2.43e+08
2.43e+08
2.43e+08
2.43e+08
2.43e+08
2.43e+08
2.43e+08
2.43e+08
2.43e+08
2.43e+08
2.43e+08
2.43e+08
2.43e+08
2.43e+08
2.43e+08
2.43e+08
2.43e+08
2.43e+08
2.43e+08
2.43e+08
2.43e+08
2.43e+08
2.43e+08
2.43e+08
2.43e+08
2.43e+08
2.43e+08
2.43e+08
2.3942e+08
2.36881e+08
2.2856e+08
2.26782e+08
2.19748e+08
2.18335e+08
2.12231e+08
2.11127e+08
2.05726e+08
2.04882e+08
2.00028e+08
1.99403e+08
1.94979e+08
1.94543e+08
1.90454e+08
1.90187e+08
1.86348e+08
1.86237e+08
1.82552e+08
2.43e+08
2.43e+08
2.43e+08
2.43e+08
2.43e+08
2.43e+08
2.43e+08
2.43e+08
2.43e+08
2.43e+08
2.43e+08
2.43e+08
2.43e+08
2.43e+08
2.43e+08
2.43e+08
2.43e+08
2.43e+08
2.43e+08
2.43e+08
2.43e+08
2.43e+08
2.43e+08
2.43e+08
2.43e+08
2.43e+08
2.43e+08
2.43e+08
2.43e+08
2.43e+08
2.43e+08
2.43e+08
2.43e+08
2.43e+08
2.43e+08
2.43e+08
2.43e+08
2.43e+08
2.43e+08
2.43e+08
2.43e+08
2.43e+08
2.43e+08
2.43e+08
2.43e+08
2.43e+08
2.43e+08
2.43e+08
2.43e+08
2.43e+08
2.43e+08
2.43e+08
2.43e+08
2.43e+08
2.43e+08
2.43e+08
2.43e+08
2.43e+08
2.43e+08
2.43e+08
2.43e+08
2.37617e+08
2.36312e+08
2.28358e+08
2.27306e+08
2.20366e+08
2.19474e+08
2.13354e+08
2.12619e+08
2.07159e+08
2.0657e+08
2.01645e+08
2.01188e+08
1.96698e+08
1.96356e+08
1.92228e+08
1.91979e+08
1.88165e+08
1.87978e+08
1.84483e+08
2.43e+08
2.43e+08
2.43e+08
2.43e+08
2.43e+08
2.43e+08
2.43e+08
2.43e+08
2.43e+08
2.43e+08
2.43e+08
2.43e+08
2.43e+08
2.43e+08
2.43e+08
2.43e+08
2.43e+08
2.43e+08
2.43e+08
2.43e+08
2.43e+08
2.43e+08
2.43e+08
2.43e+08
2.43e+08
2.43e+08
2.43e+08
2.43e+08
2.43e+08
2.43e+08
2.43e+08
2.43e+08
2.43e+08
2.43e+08
2.43e+08
2.43e+08
2.43e+08
2.43e+08
2.43e+08
2.43e+08
2.43e+08
2.43e+08
2.43e+08
2.43e+08
2.43e+08
2.43e+08
2.43e+08
2.43e+08
2.43e+08
2.43e+08
2.43e+08
2.43e+08
2.43e+08
2.43e+08
2.43e+08
2.43e+08
2.43e+08
2.43e+08
2.43e+08
2.43e+08
2.43e+08
2.35879e+08
2.35425e+08
2.28221e+08
2.2781e+08
2.21304e+08
2.20948e+08
2.15057e+08
2.1476e+08
2.09402e+08
2.09168e+08
2.04265e+08
2.04093e+08
1.99581e+08
1.99468e+08
1.95292e+08
1.95235e+08
1.91352e+08
1.91354e+08
1.87713e+08
2.43e+08
2.43e+08
2.43e+08
2.43e+08
2.43e+08
2.43e+08
2.43e+08
2.43e+08
2.43e+08
2.43e+08
2.43e+08
2.43e+08
2.43e+08
2.43e+08
2.43e+08
2.43e+08
2.43e+08
2.43e+08
2.43e+08
2.43e+08
2.43e+08
2.43e+08
2.43e+08
2.43e+08
2.43e+08
2.43e+08
2.43e+08
2.43e+08
2.43e+08
2.43e+08
2.43e+08
2.43e+08
2.43e+08
2.43e+08
2.43e+08
2.43e+08
2.43e+08
2.43e+08
2.43e+08
2.43e+08
2.43e+08
2.43e+08
2.43e+08
2.43e+08
2.43e+08
2.43e+08
2.43e+08
2.43e+08
2.43e+08
2.43e+08
2.43e+08
2.43e+08
2.43e+08
2.43e+08
2.43e+08
2.43e+08
2.43e+08
2.43e+08
2.43e+08
2.41907e+08
2.41625e+08
2.34783e+08
2.34918e+08
2.28509e+08
2.28644e+08
2.22675e+08
2.22808e+08
2.17256e+08
2.17395e+08
2.12227e+08
2.12377e+08
2.07557e+08
2.07725e+08
2.03215e+08
2.03407e+08
1.99172e+08
1.99392e+08
1.95397e+08
1.9565e+08
1.91862e+08
2.43e+08
2.43e+08
2.43e+08
2.43e+08
2.43e+08
2.43e+08
2.43e+08
2.43e+08
2.43e+08
2.43e+08
2.43e+08
2.43e+08
2.43e+08
2.43e+08
2.43e+08
2.43e+08
2.43e+08
2.43e+08
2.43e+08
2.43e+08
2.43e+08
2.43e+08
2.43e+08
2.43e+08
2.43e+08
2.43e+08
2.43e+08
2.43e+08
2.43e+08
2.43e+08
2.43e+08
2.43e+08
2.43e+08
2.43e+08
2.43e+08
2.43e+08
2.43e+08
2.43e+08
2.43e+08
2.43e+08
2.43e+08
2.43e+08
2.43e+08
2.43e+08
2.43e+08
2.43e+08
2.43e+08
2.43e+08
2.43e+08
2.43e+08
2.43e+08
2.43e+08
2.43e+08
2.43e+08
2.43e+08
2.43e+08
2.43e+08
2.43e+08
2.43e+08
2.39673e+08
2.40258e+08
2.34367e+08
2.34963e+08
2.29304e+08
2.2987e+08
2.24442e+08
2.24987e+08
2.198e+08
2.20331e+08
2.15385e+08
2.15906e+08
2.11196e+08
2.11713e+08
2.07224e+08
2.07743e+08
2.03461e+08
2.03987e+08
1.99892e+08
2.0043e+08
1.96503e+08
2.43e+08
2.43e+08
2.43e+08
2.43e+08
2.43e+08
2.43e+08
2.43e+08
2.43e+08
2.43e+08
2.43e+08
2.43e+08
2.43e+08
2.43e+08
2.43e+08
2.43e+08
2.43e+08
2.43e+08
2.43e+08
2.43e+08
2.43e+08
2.43e+08
2.43e+08
2.43e+08
2.43e+08
2.43e+08
2.43e+08
2.43e+08
2.43e+08
2.43e+08
2.43e+08
2.43e+08
2.43e+08
2.43e+08
2.43e+08
2.43e+08
2.43e+08
2.43e+08
2.43e+08
2.43e+08
2.43e+08
2.43e+08
2.43e+08
2.43e+08
2.43e+08
2.43e+08
2.43e+08
2.43e+08
2.43e+08
2.43e+08
2.43e+08
2.43e+08
2.43e+08
2.43e+08
2.43e+08
2.43e+08
2.43e+08
2.43e+08
2.43e+08
2.43e+08
2.38596e+08
2.39534e+08
2.34529e+08
2.35469e+08
2.30449e+08
2.31374e+08
2.26413e+08
2.27319e+08
2.22457e+08
2.23344e+08
2.18606e+08
2.19476e+08
2.14876e+08
2.15733e+08
2.11275e+08
2.12122e+08
2.07807e+08
2.08648e+08
2.04469e+08
2.05308e+08
2.01258e+08
2.43e+08
2.43e+08
2.43e+08
2.43e+08
2.43e+08
2.43e+08
2.43e+08
2.43e+08
2.43e+08
2.43e+08
2.43e+08
2.43e+08
2.43e+08
2.43e+08
2.43e+08
2.43e+08
2.43e+08
2.43e+08
2.43e+08
2.43e+08
2.43e+08
2.43e+08
2.43e+08
2.43e+08
2.43e+08
2.43e+08
2.43e+08
2.43e+08
2.43e+08
2.43e+08
2.43e+08
2.43e+08
2.43e+08
2.43e+08
2.43e+08
2.43e+08
2.43e+08
2.43e+08
2.43e+08
2.43e+08
2.43e+08
2.43e+08
2.43e+08
2.43e+08
2.43e+08
2.43e+08
2.43e+08
2.43e+08
2.43e+08
2.43e+08
2.43e+08
2.43e+08
2.43e+08
2.43e+08
2.43e+08
2.43e+08
2.43e+08
2.41491e+08
2.42541e+08
2.38268e+08
2.39498e+08
2.35064e+08
2.36295e+08
2.31755e+08
2.32981e+08
2.28391e+08
2.29607e+08
2.25016e+08
2.26219e+08
2.21662e+08
2.22851e+08
2.18352e+08
2.19527e+08
2.15105e+08
2.16267e+08
2.11931e+08
2.13081e+08
2.08837e+08
2.09977e+08
2.05826e+08
2.43e+08
2.43e+08
2.43e+08
2.43e+08
2.43e+08
2.43e+08
2.43e+08
2.43e+08
2.43e+08
2.43e+08
2.43e+08
2.43e+08
2.43e+08
2.43e+08
2.43e+08
2.43e+08
2.43e+08
2.43e+08
2.43e+08
2.43e+08
2.43e+08
2.43e+08
2.43e+08
2.43e+08
2.43e+08
2.43e+08
2.43e+08
2.43e+08
2.43e+08
2.43e+08
2.43e+08
2.43e+08
2.43e+08
2.43e+08
2.43e+08
2.43e+08
2.43e+08
2.43e+08
2.43e+08
2.43e+08
2.43e+08
2.43e+08
2.43e+08
2.43e+08
2.43e+08
2.43e+08
2.43e+08
2.43e+08
2.43e+08
2.43e+08
2.43e+08
2.43e+08
2.43e+08
2.43e+08
2.43e+08
2.43e+08
2.43e+08
2.40753e+08
2.42062e+08
2.38331e+08
2.39759e+08
2.35771e+08
2.37224e+08
2.33046e+08
2.34516e+08
2.3021e+08
2.3169e+08
2.27309e+08
2.28791e+08
2.24377e+08
2.25855e+08
2.21442e+08
2.22911e+08
2.18523e+08
2.1998e+08
2.15635e+08
2.17079e+08
2.12789e+08
2.14218e+08
2.0999e+08
2.43e+08
2.43e+08
2.43e+08
2.43e+08
2.43e+08
2.43e+08
2.43e+08
2.43e+08
2.43e+08
2.43e+08
2.43e+08
2.43e+08
2.43e+08
2.43e+08
2.43e+08
2.43e+08
2.43e+08
2.43e+08
2.43e+08
2.43e+08
2.43e+08
2.43e+08
2.43e+08
2.43e+08
2.43e+08
2.43e+08
2.43e+08
2.43e+08
2.43e+08
2.43e+08
2.43e+08
2.43e+08
2.43e+08
2.43e+08
2.43e+08
2.43e+08
2.43e+08
2.43e+08
2.43e+08
2.43e+08
2.43e+08
2.43e+08
2.43e+08
2.43e+08
2.43e+08
2.43e+08
2.43e+08
2.43e+08
2.43e+08
2.43e+08
2.43e+08
2.43e+08
2.43e+08
2.43e+08
2.43e+08
2.4216e+08
2.43e+08
2.40374e+08
2.419e+08
2.38517e+08
2.40113e+08
2.36408e+08
2.38062e+08
2.34115e+08
2.35813e+08
2.31692e+08
2.33419e+08
2.29178e+08
2.30922e+08
2.26608e+08
2.28358e+08
2.24006e+08
2.25753e+08
2.21392e+08
2.23129e+08
2.18781e+08
2.20503e+08
2.16183e+08
2.17886e+08
2.13607e+08
2.43e+08
2.43e+08
2.43e+08
2.43e+08
2.43e+08
2.43e+08
2.43e+08
2.43e+08
2.43e+08
2.43e+08
2.43e+08
2.43e+08
2.43e+08
2.43e+08
2.43e+08
2.43e+08
2.43e+08
2.43e+08
2.43e+08
2.43e+08
2.43e+08
2.43e+08
2.43e+08
2.43e+08
2.43e+08
2.43e+08
2.43e+08
2.43e+08
2.43e+08
2.43e+08
2.43e+08
2.43e+08
2.43e+08
2.43e+08
2.43e+08
2.43e+08
2.43e+08
2.43e+08
2.43e+08
2.43e+08
2.43e+08
2.43e+08
2.43e+08
2.43e+08
2.43e+08
2.43e+08
2.43e+08
2.43e+08
2.43e+08
2.43e+08
2.43e+08
2.43e+08
2.43e+08
2.42606e+08
2.43e+08
2.41388e+08
2.429e+08
2.401e+08
2.41771e+08
2.38525e+08
2.40312e+08
2.3673e+08
2.38604e+08
2.34768e+08
2.36705e+08
2.3268e+08
2.34658e+08
2.30498e+08
2.32501e+08
2.2825e+08
2.30263e+08
2.25955e+08
2.27966e+08
2.2363e+08
2.25631e+08
2.2129e+08
2.23272e+08
2.18943e+08
2.20901e+08
2.16597e+08
2.43e+08
2.43e+08
2.43e+08
2.43e+08
2.43e+08
2.43e+08
2.43e+08
2.43e+08
2.43e+08
2.43e+08
2.43e+08
2.43e+08
2.43e+08
2.43e+08
2.43e+08
2.43e+08
2.43e+08
2.43e+08
2.43e+08
2.43e+08
2.43e+08
2.43e+08
2.43e+08
2.43e+08
2.43e+08
2.43e+08
2.43e+08
2.43e+08
2.43e+08
2.43e+08
2.43e+08
2.43e+08
2.43e+08
2.43e+08
2.43e+08
2.43e+08
2.43e+08
2.43e+08
2.43e+08
2.43e+08
2.43e+08
2.43e+08
2.43e+08
2.43e+08
2.43e+08
2.43e+08
2.43e+08
2.43e+08
2.43e+08
2.42983e+08
2.43e+08
2.42257e+08
2.43e+08
2.41479e+08
2.43e+08
2.40571e+08
2.42334e+08
2.39419e+08
2.4135e+08
2.38061e+08
2.40113e+08
2.3653e+08
2.3867e+08
2.34859e+08
2.3706e+08
2.33075e+08
2.35315e+08
2.312e+08
2.33461e+08
2.29255e+08
2.31522e+08
2.27254e+08
2.29515e+08
2.25212e+08
2.27458e+08
2.23139e+08
2.25361e+08
2.21045e+08
2.23236e+08
2.18937e+08
2.43e+08
2.43e+08
2.43e+08
2.43e+08
2.43e+08
2.43e+08
2.43e+08
2.43e+08
2.43e+08
2.43e+08
2.43e+08
2.43e+08
2.43e+08
2.43e+08
2.43e+08
2.43e+08
2.43e+08
2.43e+08
2.43e+08
2.43e+08
2.43e+08
2.43e+08
2.43e+08
2.43e+08
2.43e+08
2.43e+08
2.43e+08
2.43e+08
2.43e+08
2.43e+08
2.43e+08
2.43e+08
2.43e+08
2.43e+08
2.43e+08
2.43e+08
2.43e+08
2.43e+08
2.43e+08
2.43e+08
2.43e+08
2.43e+08
2.43e+08
2.42982e+08
2.43e+08
2.42245e+08
2.43e+08
2.41608e+08
2.42892e+08
2.4116e+08
2.42687e+08
2.40615e+08
2.42357e+08
2.39959e+08
2.41914e+08
2.39144e+08
2.41268e+08
2.38166e+08
2.40419e+08
2.37035e+08
2.39383e+08
2.35766e+08
2.38183e+08
2.34377e+08
2.3684e+08
2.32885e+08
2.35375e+08
2.31305e+08
2.33806e+08
2.29651e+08
2.3215e+08
2.27935e+08
2.30421e+08
2.26169e+08
2.28632e+08
2.24362e+08
2.26792e+08
2.2252e+08
2.24912e+08
2.2065e+08
2.43e+08
2.43e+08
2.43e+08
2.43e+08
2.43e+08
2.43e+08
2.43e+08
2.43e+08
2.43e+08
2.43e+08
2.43e+08
2.43e+08
2.43e+08
2.43e+08
2.43e+08
2.43e+08
2.43e+08
2.43e+08
2.43e+08
2.43e+08
2.43e+08
2.43e+08
2.43e+08
2.43e+08
2.43e+08
2.43e+08
2.43e+08
2.43e+08
2.43e+08
2.43e+08
2.43e+08
2.43e+08
2.43e+08
2.43e+08
2.43e+08
2.42563e+08
2.43e+08
2.41674e+08
2.43e+08
2.4106e+08
2.4248e+08
2.40536e+08
2.41938e+08
2.40129e+08
2.41672e+08
2.39733e+08
2.4139e+08
2.39364e+08
2.41195e+08
2.38965e+08
2.40969e+08
2.38499e+08
2.40664e+08
2.37941e+08
2.40251e+08
2.37272e+08
2.39704e+08
2.36484e+08
2.39011e+08
2.35576e+08
2.38177e+08
2.34556e+08
2.37207e+08
2.3343e+08
2.36115e+08
2.32211e+08
2.34911e+08
2.30906e+08
2.33609e+08
2.29527e+08
2.3222e+08
2.28083e+08
2.30754e+08
2.26581e+08
2.29221e+08
2.25029e+08
2.2763e+08
2.23433e+08
2.25989e+08
2.21798e+08
2.43e+08
2.43e+08
2.43e+08
2.43e+08
2.43e+08
2.43e+08
2.43e+08
2.43e+08
2.43e+08
2.43e+08
2.43e+08
2.43e+08
2.43e+08
2.43e+08
2.43e+08
2.43e+08
2.43e+08
2.43e+08
2.43e+08
2.43e+08
2.43e+08
2.43e+08
2.43e+08
2.43e+08
2.43e+08
2.43e+08
2.43e+08
2.42598e+08
2.43e+08
2.41069e+08
2.42578e+08
2.4014e+08
2.41503e+08
2.39421e+08
2.40787e+08
2.38855e+08
2.40334e+08
2.38366e+08
2.39959e+08
2.37943e+08
2.39637e+08
2.37593e+08
2.39408e+08
2.37293e+08
2.39236e+08
2.37015e+08
2.39092e+08
2.36735e+08
2.38949e+08
2.36428e+08
2.38775e+08
2.3607e+08
2.38539e+08
2.35641e+08
2.38219e+08
2.35129e+08
2.37799e+08
2.34524e+08
2.37267e+08
2.33824e+08
2.36622e+08
2.33029e+08
2.35865e+08
2.32143e+08
2.35e+08
2.31171e+08
2.34035e+08
2.30118e+08
2.32976e+08
2.28991e+08
2.31832e+08
2.27796e+08
2.30609e+08
2.2654e+08
2.29316e+08
2.25228e+08
2.27959e+08
2.23865e+08
2.26545e+08
2.22456e+08
2.43e+08
2.43e+08
2.43e+08
2.43e+08
2.43e+08
2.43e+08
2.43e+08
2.43e+08
2.43e+08
2.43e+08
2.43e+08
2.43e+08
2.43e+08
2.43e+08
2.43e+08
2.43e+08
2.43e+08
2.43e+08
2.43e+08
2.43e+08
2.43e+08
2.42679e+08
2.43e+08
2.40183e+08
2.41726e+08
2.38796e+08
2.40004e+08
2.37839e+08
2.39178e+08
2.37001e+08
2.38465e+08
2.36298e+08
2.37874e+08
2.3574e+08
2.3744e+08
2.35297e+08
2.37116e+08
2.34941e+08
2.36872e+08
2.34657e+08
2.36701e+08
2.34431e+08
2.36589e+08
2.34243e+08
2.36518e+08
2.34073e+08
2.36463e+08
2.33899e+08
2.36401e+08
2.33704e+08
2.3631e+08
2.33468e+08
2.36169e+08
2.33177e+08
2.35962e+08
2.3282e+08
2.35675e+08
2.32389e+08
2.35298e+08
2.31878e+08
2.34827e+08
2.31287e+08
2.34261e+08
2.30614e+08
2.336e+08
2.29863e+08
2.32847e+08
2.29035e+08
2.32007e+08
2.28136e+08
2.31083e+08
2.27168e+08
2.30082e+08
2.26137e+08
2.29009e+08
2.25046e+08
2.27868e+08
2.23899e+08
2.26664e+08
2.227e+08
2.43e+08
2.43e+08
2.43e+08
2.43e+08
2.43e+08
2.43e+08
2.43e+08
2.43e+08
2.43e+08
2.43e+08
2.43e+08
2.43e+08
2.43e+08
2.43e+08
2.43e+08
2.43e+08
2.43e+08
2.40706e+08
2.42897e+08
2.38267e+08
2.39403e+08
2.36795e+08
2.38033e+08
2.35496e+08
2.36857e+08
2.34433e+08
2.35943e+08
2.33579e+08
2.35231e+08
2.32884e+08
2.34661e+08
2.32332e+08
2.34229e+08
2.3191e+08
2.33925e+08
2.31599e+08
2.33726e+08
2.31376e+08
2.33613e+08
2.31223e+08
2.33565e+08
2.31121e+08
2.33566e+08
2.31053e+08
2.33597e+08
2.31e+08
2.3364e+08
2.30945e+08
2.33675e+08
2.30872e+08
2.33684e+08
2.30766e+08
2.33651e+08
2.30616e+08
2.33563e+08
2.3041e+08
2.33408e+08
2.30141e+08
2.33178e+08
2.29805e+08
2.32867e+08
2.29396e+08
2.32473e+08
2.28915e+08
2.31993e+08
2.28361e+08
2.31429e+08
2.27735e+08
2.30783e+08
2.27039e+08
2.30057e+08
2.26275e+08
2.29254e+08
2.25446e+08
2.28379e+08
2.24556e+08
2.27434e+08
2.23607e+08
2.26423e+08
2.22602e+08
2.43e+08
2.43e+08
2.43e+08
2.43e+08
2.43e+08
2.43e+08
2.43e+08
2.43e+08
2.43e+08
2.43e+08
2.43e+08
2.43e+08
2.43e+08
2.39945e+08
2.41891e+08
2.36973e+08
2.37937e+08
2.35083e+08
2.36224e+08
2.3339e+08
2.34714e+08
2.32007e+08
2.33506e+08
2.3086e+08
2.32517e+08
2.29935e+08
2.3174e+08
2.29211e+08
2.31154e+08
2.28658e+08
2.30727e+08
2.28251e+08
2.30439e+08
2.27973e+08
2.30271e+08
2.278e+08
2.30203e+08
2.27714e+08
2.30216e+08
2.27695e+08
2.3029e+08
2.27723e+08
2.30407e+08
2.27782e+08
2.30549e+08
2.27855e+08
2.30699e+08
2.27927e+08
2.30841e+08
2.27983e+08
2.3096e+08
2.28011e+08
2.31041e+08
2.27999e+08
2.31074e+08
2.2794e+08
2.31049e+08
2.27825e+08
2.30957e+08
2.27648e+08
2.30794e+08
2.27407e+08
2.30555e+08
2.27098e+08
2.30238e+08
2.2672e+08
2.29842e+08
2.26273e+08
2.29368e+08
2.25759e+08
2.28818e+08
2.25177e+08
2.28192e+08
2.24531e+08
2.27493e+08
2.23821e+08
2.26725e+08
2.23051e+08
2.25889e+08
2.22222e+08
2.43e+08
2.43e+08
2.43e+08
2.43e+08
2.43e+08
2.43e+08
2.43e+08
2.43e+08
2.43e+08
2.40548e+08
2.42606e+08
2.36513e+08
2.37266e+08
2.33998e+08
2.34963e+08
2.31772e+08
2.3297e+08
2.29931e+08
2.31342e+08
2.28381e+08
2.29983e+08
2.27121e+08
2.28899e+08
2.26113e+08
2.28052e+08
2.25333e+08
2.27418e+08
2.24755e+08
2.26973e+08
2.2435e+08
2.2669e+08
2.24095e+08
2.26546e+08
2.23965e+08
2.26518e+08
2.23939e+08
2.26586e+08
2.23995e+08
2.26729e+08
2.24115e+08
2.26929e+08
2.2428e+08
2.27167e+08
2.24473e+08
2.27427e+08
2.24679e+08
2.27691e+08
2.24882e+08
2.27947e+08
2.2507e+08
2.2818e+08
2.25232e+08
2.28378e+08
2.25358e+08
2.28532e+08
2.25439e+08
2.28632e+08
2.25468e+08
2.28671e+08
2.2544e+08
2.28643e+08
2.25351e+08
2.28546e+08
2.25198e+08
2.28375e+08
2.24979e+08
2.2813e+08
2.24693e+08
2.2781e+08
2.2434e+08
2.27415e+08
2.23921e+08
2.26947e+08
2.23437e+08
2.26406e+08
2.2289e+08
2.25796e+08
2.2228e+08
2.25117e+08
2.2161e+08
2.43e+08
2.43e+08
2.43e+08
2.43e+08
2.43e+08
2.43e+08
2.43e+08
2.37409e+08
2.37741e+08
2.34133e+08
2.34719e+08
2.31113e+08
2.32005e+08
2.2859e+08
2.29767e+08
2.26455e+08
2.27889e+08
2.24698e+08
2.2636e+08
2.2327e+08
2.25135e+08
2.22143e+08
2.24189e+08
2.21283e+08
2.23488e+08
2.20657e+08
2.23005e+08
2.20235e+08
2.22711e+08
2.1999e+08
2.22579e+08
2.19893e+08
2.22584e+08
2.19919e+08
2.22702e+08
2.20047e+08
2.22911e+08
2.20254e+08
2.23191e+08
2.20519e+08
2.23521e+08
2.20827e+08
2.23886e+08
2.21158e+08
2.24268e+08
2.215e+08
2.24652e+08
2.21837e+08
2.25025e+08
2.22159e+08
2.25374e+08
2.22453e+08
2.2569e+08
2.22712e+08
2.25962e+08
2.22928e+08
2.26182e+08
2.23093e+08
2.26344e+08
2.23203e+08
2.26443e+08
2.23253e+08
2.26475e+08
2.23242e+08
2.26436e+08
2.23165e+08
2.26326e+08
2.23024e+08
2.26143e+08
2.22816e+08
2.25887e+08
2.22542e+08
2.25558e+08
2.22203e+08
2.25159e+08
2.218e+08
2.24689e+08
2.21335e+08
2.24151e+08
2.20808e+08
2.43e+08
2.43e+08
2.43e+08
2.40782e+08
2.41092e+08
2.35872e+08
2.35826e+08
2.31905e+08
2.32303e+08
2.28489e+08
2.29267e+08
2.25522e+08
2.26641e+08
2.23037e+08
2.24461e+08
2.20989e+08
2.22681e+08
2.19341e+08
2.21269e+08
2.1805e+08
2.20182e+08
2.17075e+08
2.19386e+08
2.16377e+08
2.18844e+08
2.1592e+08
2.18522e+08
2.15671e+08
2.18391e+08
2.15597e+08
2.18419e+08
2.15669e+08
2.18582e+08
2.15862e+08
2.18852e+08
2.16151e+08
2.19209e+08
2.16515e+08
2.1963e+08
2.16932e+08
2.20097e+08
2.17386e+08
2.20592e+08
2.1786e+08
2.211e+08
2.1834e+08
2.21606e+08
2.18812e+08
2.22098e+08
2.19265e+08
2.22564e+08
2.1969e+08
2.22995e+08
2.20078e+08
2.23382e+08
2.20422e+08
2.23717e+08
2.20715e+08
2.23995e+08
2.20952e+08
2.24211e+08
2.21131e+08
2.24362e+08
2.21248e+08
2.24443e+08
2.21301e+08
2.24454e+08
2.21288e+08
2.24394e+08
2.2121e+08
2.24262e+08
2.21066e+08
2.24058e+08
2.20857e+08
2.23783e+08
2.20583e+08
2.23439e+08
2.20246e+08
2.23026e+08
2.19847e+08
2.43e+08
2.39769e+08
2.38888e+08
2.34842e+08
2.34476e+08
2.30165e+08
2.30319e+08
2.26062e+08
2.26694e+08
2.22574e+08
2.23618e+08
2.19647e+08
2.21049e+08
2.17248e+08
2.1896e+08
2.15325e+08
2.17305e+08
2.13828e+08
2.16039e+08
2.12706e+08
2.15115e+08
2.11913e+08
2.14491e+08
2.11403e+08
2.14126e+08
2.11137e+08
2.13984e+08
2.11077e+08
2.14029e+08
2.1119e+08
2.1423e+08
2.11444e+08
2.1456e+08
2.11814e+08
2.14992e+08
2.12273e+08
2.15502e+08
2.128e+08
2.16071e+08
2.13374e+08
2.16678e+08
2.13978e+08
2.17308e+08
2.14596e+08
2.17944e+08
2.15214e+08
2.18573e+08
2.1582e+08
2.19184e+08
2.16403e+08
2.19766e+08
2.16954e+08
2.20309e+08
2.17466e+08
2.20806e+08
2.17931e+08
2.21251e+08
2.18343e+08
2.21638e+08
2.187e+08
2.21963e+08
2.18996e+08
2.22221e+08
2.1923e+08
2.22412e+08
2.194e+08
2.22532e+08
2.19503e+08
2.22582e+08
2.19541e+08
2.2256e+08
2.19513e+08
2.22467e+08
2.19418e+08
2.22304e+08
2.19259e+08
2.22071e+08
2.19036e+08
2.2177e+08
2.18751e+08
2.39174e+08
2.34405e+08
2.33676e+08
2.28723e+08
2.28689e+08
2.2382e+08
2.24336e+08
2.19673e+08
2.20659e+08
2.16231e+08
2.1762e+08
2.13423e+08
2.15159e+08
2.11184e+08
2.13217e+08
2.09447e+08
2.11735e+08
2.08153e+08
2.10658e+08
2.07244e+08
2.09933e+08
2.06667e+08
2.09511e+08
2.06375e+08
2.09349e+08
2.06323e+08
2.09404e+08
2.06472e+08
2.09643e+08
2.06787e+08
2.1003e+08
2.07237e+08
2.10538e+08
2.07792e+08
2.11139e+08
2.08429e+08
2.11811e+08
2.09124e+08
2.12531e+08
2.09858e+08
2.13283e+08
2.10614e+08
2.14049e+08
2.11377e+08
2.14814e+08
2.12132e+08
2.15566e+08
2.1287e+08
2.16294e+08
2.1358e+08
2.16989e+08
2.14253e+08
2.17641e+08
2.14882e+08
2.18244e+08
2.15461e+08
2.18792e+08
2.15986e+08
2.19281e+08
2.16452e+08
2.19706e+08
2.16856e+08
2.20064e+08
2.17197e+08
2.20353e+08
2.17471e+08
2.20572e+08
2.17679e+08
2.2072e+08
2.1782e+08
2.20797e+08
2.17895e+08
2.20803e+08
2.17903e+08
2.20738e+08
2.17846e+08
2.20604e+08
2.17724e+08
2.20402e+08
2.1754e+08
2.34264e+08
2.28024e+08
2.27603e+08
2.21927e+08
2.22211e+08
2.16928e+08
2.17778e+08
2.12839e+08
2.14161e+08
2.09537e+08
2.11258e+08
2.06921e+08
2.0898e+08
2.04902e+08
2.07249e+08
2.03405e+08
2.05994e+08
2.02358e+08
2.0515e+08
2.01699e+08
2.04659e+08
2.01371e+08
2.04469e+08
2.01321e+08
2.04533e+08
2.01505e+08
2.04806e+08
2.0188e+08
2.05253e+08
2.02411e+08
2.05839e+08
2.03065e+08
2.06534e+08
2.03814e+08
2.07312e+08
2.04633e+08
2.08149e+08
2.055e+08
2.09025e+08
2.06396e+08
2.09923e+08
2.07305e+08
2.10826e+08
2.08211e+08
2.1172e+08
2.09102e+08
2.12593e+08
2.09968e+08
2.13437e+08
2.108e+08
2.1424e+08
2.1159e+08
2.14997e+08
2.1233e+08
2.15701e+08
2.13017e+08
2.16346e+08
2.13646e+08
2.16929e+08
2.14213e+08
2.17446e+08
2.14715e+08
2.17895e+08
2.15152e+08
2.18274e+08
2.15522e+08
2.18582e+08
2.15823e+08
2.18819e+08
2.16057e+08
2.18984e+08
2.16223e+08
2.19077e+08
2.16321e+08
2.191e+08
2.16354e+08
2.19054e+08
2.16323e+08
2.1894e+08
2.16228e+08
2.27467e+08
2.20814e+08
2.20609e+08
2.14631e+08
2.15151e+08
2.09674e+08
2.10787e+08
2.05722e+08
2.07327e+08
2.02619e+08
2.04633e+08
2.00242e+08
2.02597e+08
1.98488e+08
2.01125e+08
1.97266e+08
2.00137e+08
1.96499e+08
1.9956e+08
1.96118e+08
1.99333e+08
1.96061e+08
1.99398e+08
1.96274e+08
1.99707e+08
1.96708e+08
2.00214e+08
1.97322e+08
2.00881e+08
1.98078e+08
2.01674e+08
1.98945e+08
2.02564e+08
1.99892e+08
2.03523e+08
2.00897e+08
2.0453e+08
2.01938e+08
2.05563e+08
2.02996e+08
2.06607e+08
2.04055e+08
2.07646e+08
2.05103e+08
2.08667e+08
2.06126e+08
2.0966e+08
2.07117e+08
2.10615e+08
2.08065e+08
2.11523e+08
2.08965e+08
2.1238e+08
2.09811e+08
2.13178e+08
2.10598e+08
2.13915e+08
2.11323e+08
2.14585e+08
2.11982e+08
2.15188e+08
2.12575e+08
2.15719e+08
2.13099e+08
2.1618e+08
2.13553e+08
2.16567e+08
2.13939e+08
2.16883e+08
2.14254e+08
2.17126e+08
2.14501e+08
2.17297e+08
2.14681e+08
2.17398e+08
2.14793e+08
2.17429e+08
2.14841e+08
2.17393e+08
2.14825e+08
2.19631e+08
2.12894e+08
2.12945e+08
2.06866e+08
2.07642e+08
2.02093e+08
2.03473e+08
1.98369e+08
2.0025e+08
1.9553e+08
1.97825e+08
1.93441e+08
1.96077e+08
1.91989e+08
1.94902e+08
1.91075e+08
1.94213e+08
1.90615e+08
1.9393e+08
1.90535e+08
1.93988e+08
1.90768e+08
1.94327e+08
1.91258e+08
1.94895e+08
1.91955e+08
1.95647e+08
1.92816e+08
1.96544e+08
1.93805e+08
1.97552e+08
1.94887e+08
1.9864e+08
1.96036e+08
1.99783e+08
1.97227e+08
2.0096e+08
1.98441e+08
2.02151e+08
1.99659e+08
2.0334e+08
2.00867e+08
2.04513e+08
2.02052e+08
2.05658e+08
2.03204e+08
2.06766e+08
2.04313e+08
2.07828e+08
2.05373e+08
2.08838e+08
2.06378e+08
2.09789e+08
2.07322e+08
2.10676e+08
2.08202e+08
2.11497e+08
2.09016e+08
2.12249e+08
2.0976e+08
2.12929e+08
2.10434e+08
2.13536e+08
2.11036e+08
2.14069e+08
2.11567e+08
2.14529e+08
2.12027e+08
2.14915e+08
2.12415e+08
2.15227e+08
2.12734e+08
2.15468e+08
2.12984e+08
2.15638e+08
2.13167e+08
2.15738e+08
2.13284e+08
2.1577e+08
2.13338e+08
2.1102e+08
2.04363e+08
2.04698e+08
1.98653e+08
1.99711e+08
1.94189e+08
1.95854e+08
1.90785e+08
1.92953e+08
1.88278e+08
1.90859e+08
1.8653e+08
1.89447e+08
1.85423e+08
1.88607e+08
1.8485e+08
1.88247e+08
1.84724e+08
1.88283e+08
1.84965e+08
1.88646e+08
1.85505e+08
1.89274e+08
1.86285e+08
1.90113e+08
1.87255e+08
1.91119e+08
1.88371e+08
1.92252e+08
1.89595e+08
1.93477e+08
1.90897e+08
1.94767e+08
1.92247e+08
1.96095e+08
1.93625e+08
1.97442e+08
1.9501e+08
1.98789e+08
1.96385e+08
2.00121e+08
1.97738e+08
2.01425e+08
1.99057e+08
2.02692e+08
2.00331e+08
2.03911e+08
2.01555e+08
2.05076e+08
2.0272e+08
2.0618e+08
2.03823e+08
2.0722e+08
2.04859e+08
2.08191e+08
2.05825e+08
2.0909e+08
2.06719e+08
2.09916e+08
2.07541e+08
2.10667e+08
2.08288e+08
2.11343e+08
2.08961e+08
2.11942e+08
2.09561e+08
2.12466e+08
2.10086e+08
2.12915e+08
2.1054e+08
2.1329e+08
2.10922e+08
2.13591e+08
2.11234e+08
2.13822e+08
2.11479e+08
2.13982e+08
2.11657e+08
2.14075e+08
2.11772e+08
2.01799e+08
1.95317e+08
1.95948e+08
1.90032e+08
1.91389e+08
1.85976e+08
1.87941e+08
1.82973e+08
1.8544e+08
1.80865e+08
1.83739e+08
1.79513e+08
1.82712e+08
1.78792e+08
1.82247e+08
1.78596e+08
1.82246e+08
1.7883e+08
1.82625e+08
1.79413e+08
1.83312e+08
1.80276e+08
1.84243e+08
1.81359e+08
1.85365e+08
1.8261e+08
1.86632e+08
1.83986e+08
1.88006e+08
1.8545e+08
1.89453e+08
1.86971e+08
1.90945e+08
1.88524e+08
1.92458e+08
1.90086e+08
1.93973e+08
1.91639e+08
1.95474e+08
1.93169e+08
1.96946e+08
1.94662e+08
1.98378e+08
1.96109e+08
1.99761e+08
1.97502e+08
2.01087e+08
1.98833e+08
2.0235e+08
2.00098e+08
2.03545e+08
2.01293e+08
2.04669e+08
2.02414e+08
2.05717e+08
2.0346e+08
2.06689e+08
2.04429e+08
2.07584e+08
2.0532e+08
2.08399e+08
2.06134e+08
2.09137e+08
2.0687e+08
2.09796e+08
2.0753e+08
2.10377e+08
2.08115e+08
2.10882e+08
2.08625e+08
2.11311e+08
2.09063e+08
2.11667e+08
2.09431e+08
2.11951e+08
2.09729e+08
2.12165e+08
2.09962e+08
2.12312e+08
2.10129e+08
1.92091e+08
1.85848e+08
1.86774e+08
1.81058e+08
1.8272e+08
1.77482e+08
1.79755e+08
1.74948e+08
1.7772e+08
1.73298e+08
1.7647e+08
1.72391e+08
1.75875e+08
1.72098e+08
1.75822e+08
1.72311e+08
1.76212e+08
1.72932e+08
1.76958e+08
1.73879e+08
1.77986e+08
1.75081e+08
1.79234e+08
1.76476e+08
1.80649e+08
1.78016e+08
1.82184e+08
1.79657e+08
1.83803e+08
1.81363e+08
1.85473e+08
1.83105e+08
1.87168e+08
1.84858e+08
1.88865e+08
1.86602e+08
1.90548e+08
1.88321e+08
1.92199e+08
1.90001e+08
1.93808e+08
1.9163e+08
1.95365e+08
1.93201e+08
1.9686e+08
1.94706e+08
1.98289e+08
1.9614e+08
1.99645e+08
1.97499e+08
2.00925e+08
1.9878e+08
2.02127e+08
1.9998e+08
2.03248e+08
2.01099e+08
2.04287e+08
2.02136e+08
2.05244e+08
2.03091e+08
2.06119e+08
2.03965e+08
2.06912e+08
2.04758e+08
2.07624e+08
2.05472e+08
2.08257e+08
2.06108e+08
2.08812e+08
2.06669e+08
2.0929e+08
2.07156e+08
2.09694e+08
2.07572e+08
2.10025e+08
2.07918e+08
2.10287e+08
2.08197e+08
2.1048e+08
2.08411e+08
1.81992e+08
1.76032e+08
1.77249e+08
1.71786e+08
1.73752e+08
1.68745e+08
1.71327e+08
1.66734e+08
1.69813e+08
1.65592e+08
1.69061e+08
1.65173e+08
1.68941e+08
1.65347e+08
1.69335e+08
1.65999e+08
1.70143e+08
1.67031e+08
1.71278e+08
1.6836e+08
1.72666e+08
1.69914e+08
1.74243e+08
1.71633e+08
1.75959e+08
1.73468e+08
1.77768e+08
1.75377e+08
1.79635e+08
1.77326e+08
1.8153e+08
1.79288e+08
1.83428e+08
1.81241e+08
1.85308e+08
1.83165e+08
1.87155e+08
1.85045e+08
1.88956e+08
1.86871e+08
1.90698e+08
1.88632e+08
1.92375e+08
1.90322e+08
1.93979e+08
1.91935e+08
1.95505e+08
1.93466e+08
1.9695e+08
1.94913e+08
1.98311e+08
1.96274e+08
1.99587e+08
1.97548e+08
2.00775e+08
1.98734e+08
2.01876e+08
1.99834e+08
2.02891e+08
2.00846e+08
2.0382e+08
2.01774e+08
2.04663e+08
2.02618e+08
2.05424e+08
2.0338e+08
2.06102e+08
2.04062e+08
2.06701e+08
2.04667e+08
2.07223e+08
2.05197e+08
2.07669e+08
2.05655e+08
2.08042e+08
2.06042e+08
2.08346e+08
2.06362e+08
2.08581e+08
2.06618e+08
1.71581e+08
1.65938e+08
1.6744e+08
1.62271e+08
1.64538e+08
1.59806e+08
1.62696e+08
1.58361e+08
1.61745e+08
1.57769e+08
1.61532e+08
1.57876e+08
1.61922e+08
1.58547e+08
1.62793e+08
1.59665e+08
1.64045e+08
1.6113e+08
1.65587e+08
1.62857e+08
1.67349e+08
1.64774e+08
1.69266e+08
1.66824e+08
1.7129e+08
1.68959e+08
1.73378e+08
1.71138e+08
1.75496e+08
1.73332e+08
1.77616e+08
1.75513e+08
1.79716e+08
1.77662e+08
1.81777e+08
1.79762e+08
1.83787e+08
1.81801e+08
1.85732e+08
1.83769e+08
1.87605e+08
1.85657e+08
1.89398e+08
1.87461e+08
1.91106e+08
1.89176e+08
1.92727e+08
1.908e+08
1.94256e+08
1.9233e+08
1.95694e+08
1.93766e+08
1.97038e+08
1.95109e+08
1.9829e+08
1.96357e+08
1.99449e+08
1.97514e+08
2.00516e+08
1.98579e+08
2.01494e+08
1.99555e+08
2.02384e+08
2.00444e+08
2.03187e+08
2.01249e+08
2.03907e+08
2.01972e+08
2.04546e+08
2.02615e+08
2.05105e+08
2.03183e+08
2.05589e+08
2.03677e+08
2.06e+08
2.041e+08
2.0634e+08
2.04457e+08
2.06612e+08
2.04748e+08
1.60925e+08
1.55625e+08
1.57404e+08
1.52562e+08
1.55126e+08
1.50707e+08
1.53901e+08
1.49864e+08
1.53548e+08
1.49856e+08
1.53908e+08
1.5052e+08
1.54836e+08
1.51716e+08
1.5621e+08
1.53322e+08
1.57924e+08
1.55235e+08
1.5989e+08
1.57372e+08
1.62036e+08
1.59662e+08
1.64302e+08
1.62048e+08
1.66639e+08
1.64485e+08
1.69008e+08
1.66936e+08
1.71377e+08
1.69372e+08
1.73722e+08
1.7177e+08
1.76022e+08
1.74112e+08
1.78263e+08
1.76385e+08
1.80431e+08
1.78578e+08
1.82518e+08
1.80682e+08
1.84517e+08
1.82693e+08
1.86423e+08
1.84607e+08
1.88232e+08
1.8642e+08
1.89943e+08
1.88131e+08
1.91553e+08
1.8974e+08
1.93063e+08
1.91247e+08
1.94473e+08
1.92653e+08
1.95783e+08
1.9396e+08
1.96996e+08
1.95168e+08
1.98113e+08
1.96281e+08
1.99136e+08
1.97301e+08
2.00067e+08
1.98231e+08
2.0091e+08
1.99074e+08
2.01667e+08
1.99832e+08
2.0234e+08
2.00509e+08
2.02934e+08
2.01109e+08
2.03451e+08
2.01635e+08
2.03894e+08
2.0209e+08
2.04267e+08
2.02478e+08
2.04572e+08
2.02801e+08
1.50082e+08
1.45145e+08
1.47194e+08
1.42708e+08
1.45563e+08
1.41489e+08
1.44982e+08
1.41279e+08
1.45257e+08
1.41883e+08
1.46216e+08
1.43131e+08
1.47707e+08
1.44873e+08
1.49602e+08
1.46984e+08
1.51794e+08
1.49359e+08
1.54195e+08
1.51914e+08
1.56733e+08
1.5458e+08
1.59352e+08
1.57305e+08
1.62004e+08
1.60044e+08
1.64654e+08
1.62764e+08
1.67274e+08
1.6544e+08
1.69841e+08
1.68051e+08
1.7234e+08
1.70583e+08
1.74755e+08
1.73024e+08
1.77079e+08
1.75365e+08
1.79305e+08
1.77603e+08
1.81426e+08
1.79731e+08
1.83441e+08
1.81749e+08
1.85347e+08
1.83655e+08
1.87144e+08
1.8545e+08
1.88831e+08
1.87133e+08
1.9041e+08
1.88707e+08
1.91881e+08
1.90173e+08
1.93248e+08
1.91533e+08
1.94511e+08
1.9279e+08
1.95673e+08
1.93947e+08
1.96738e+08
1.95007e+08
1.97708e+08
1.95974e+08
1.98586e+08
1.9685e+08
1.99376e+08
1.97639e+08
2.00081e+08
1.98346e+08
2.00705e+08
1.98974e+08
2.01251e+08
1.99527e+08
2.01723e+08
2.00009e+08
2.02125e+08
2.00424e+08
2.02459e+08
2.00775e+08
1.39102e+08
1.34544e+08
1.36858e+08
1.32751e+08
1.35894e+08
1.32194e+08
1.35981e+08
1.32642e+08
1.36908e+08
1.33886e+08
1.38488e+08
1.35738e+08
1.4056e+08
1.38043e+08
1.42991e+08
1.4067e+08
1.45672e+08
1.43515e+08
1.48514e+08
1.46492e+08
1.51448e+08
1.49537e+08
1.5442e+08
1.52598e+08
1.57387e+08
1.55637e+08
1.60317e+08
1.58623e+08
1.63184e+08
1.61533e+08
1.6597e+08
1.64352e+08
1.68662e+08
1.67067e+08
1.71248e+08
1.69671e+08
1.73724e+08
1.72156e+08
1.76082e+08
1.7452e+08
1.78322e+08
1.76761e+08
1.80442e+08
1.78879e+08
1.82441e+08
1.80874e+08
1.8432e+08
1.82747e+08
1.86081e+08
1.84501e+08
1.87725e+08
1.86138e+08
1.89256e+08
1.8766e+08
1.90675e+08
1.89071e+08
1.91986e+08
1.90373e+08
1.93191e+08
1.91571e+08
1.94295e+08
1.92668e+08
1.953e+08
1.93667e+08
1.96211e+08
1.94573e+08
1.97031e+08
1.9539e+08
1.97764e+08
1.96122e+08
1.98415e+08
1.96774e+08
1.98987e+08
1.9735e+08
1.99484e+08
1.97855e+08
1.99911e+08
1.98293e+08
2.00272e+08
1.98668e+08
1.28031e+08
1.23865e+08
1.26438e+08
1.22732e+08
1.2616e+08
1.2286e+08
1.26938e+08
1.23993e+08
1.28539e+08
1.25897e+08
1.30759e+08