/*--------------------------------*- C++ -*----------------------------------*\
| =========                 |                                                 |
| \\      /  F ield         | OpenFOAM: The Open Source CFD Toolbox           |
|  \\    /   O peration     | Version:  v2012                                 |
|   \\  /    A nd           | Website:  www.openfoam.com                      |
|    \\/     M anipulation  |                                                 |
\*---------------------------------------------------------------------------*/
FoamFile
{
    version     2.0;
    format      ascii;
    class       volVectorField;
    location    "11";
    object      D_0;
}
// * * * * * * * * * * * * * * * * * * * * * * * * * * * * * * * * * * * * * //

dimensions      [0 1 0 0 0 0 0];


internalField   nonuniform List<vector> 
1896
(
(0.00485752 -4.60137e-05 0)
(0.00453753 -0.000305081 0)
(0.00476719 -1.57854e-05 0)
(0.00141104 -0.00168288 0)
(0.00479687 -4.41506e-05 0)
(0.0047555 -4.86107e-05 0)
(0.00127808 -0.00177644 0)
(0.00446414 -4.75183e-05 0)
(0.00328979 -0.000267076 0)
(0.00444688 -3.20646e-05 0)
(0.00491856 -6.87394e-06 0)
(0.00394506 -2.88302e-05 0)
(0.00407598 -1.85327e-05 0)
(0.00397581 -2.33909e-05 0)
(0.00147773 -0.00152867 0)
(0.000401987 -0.00238131 0)
(0.00400022 -0.000385677 0)
(0.00128796 -0.00203831 0)
(0.00374819 -0.000331706 0)
(0.00268564 -0.00122833 0)
(0.00371648 -0.00032822 0)
(0.00442881 -0.000219682 0)
(0.00201315 -0.00085342 0)
(0.00190683 -0.000923157 0)
(0.00438896 -0.000312938 0)
(0.00443589 -0.000297708 0)
(0.00407971 -1.24902e-05 0)
(0.00413987 -1.46012e-05 0)
(0.004884 -3.91577e-05 0)
(0.00336986 -0.000325585 0)
(0.00343396 -0.00030997 0)
(0.0045143 -0.000374921 0)
(0.00389755 -2.59069e-05 0)
(0.00454623 -0.000316812 0)
(0.00266721 -0.00062721 0)
(0.00496445 -4.09629e-05 0)
(0.00353777 -0.000302244 0)
(0.00473615 -0.000186413 0)
(0.00111544 -0.00211407 0)
(0.00327232 -0.000334052 0)
(0.00446957 -0.00042748 0)
(0.00217685 -0.00142194 0)
(0.00356149 -0.000186598 0)
(0.00233332 -0.00083772 0)
(0.00413198 -1.0239e-05 0)
(0.00410189 -8.07182e-06 0)
(0.00134375 -0.0016516 0)
(0.004919 -1.82806e-05 0)
(0.00210519 -0.000905812 0)
(0.00114385 -0.00174477 0)
(0.00475067 -2.2877e-05 0)
(0.00457705 -5.08088e-05 0)
(0.0045415 -4.78073e-05 0)
(0.00444947 -0.000225255 0)
(0.00323219 -0.00027935 0)
(0.00422091 -0.000461036 0)
(0.0028216 -0.000460605 0)
(0.00493302 -5.09922e-05 0)
(0.00483001 -0.000145154 0)
(0.0035314 -0.000499736 0)
(0.00447612 -3.87548e-05 0)
(0.00125209 -0.00164087 0)
(0.00130609 -0.0015571 0)
(0.00462352 -0.000102302 0)
(0.00282029 -0.00123467 0)
(0.00447233 -0.000413216 0)
(0.00236118 -0.000667247 0)
(0.00381984 -5.81697e-05 0)
(0.00469224 -0.000174028 0)
(0.00229029 -0.000710686 0)
(0.00396529 -7.44283e-06 0)
(0.00151611 -0.00136404 0)
(0.00469534 -0.000182798 0)
(0.00425954 -0.000464279 0)
(0.00259582 -0.000664113 0)
(0.00448218 -0.000296206 0)
(0.00448436 -0.000313149 0)
(0.00476014 -0.000101724 0)
(0.00472768 -0.000112151 0)
(0.0041031 -0.000178498 0)
(0.00230752 -0.00139241 0)
(0.00206105 -0.000828145 0)
(0.00424976 -1.2231e-05 0)
(0.00429045 -5.30836e-05 0)
(0.00431594 -4.69735e-05 0)
(0.00396762 -0.000247597 0)
(0.0039204 -8.6805e-05 0)
(0.00391632 -7.79436e-05 0)
(0.0029422 -0.000415865 0)
(0.00368322 -0.00012883 0)
(0.00410479 -0.000116874 0)
(0.00036884 -0.00163189 0)
(0.00352459 -0.000146244 0)
(0.00172409 -0.00171015 0)
(0.00183044 -0.000969763 0)
(0.0043997 -0.000267167 0)
(0.00474121 -0.000235457 0)
(0.00503261 -2.18044e-05 0)
(0.00472451 -0.000267905 0)
(0.00368935 -9.52686e-05 0)
(0.00367286 -0.000106143 0)
(0.00381397 -5.75916e-05 0)
(0.00461722 -9.43746e-05 0)
(0.00347843 -0.000158256 0)
(0.00322077 -0.00024642 0)
(0.00359946 -0.000166806 0)
(0.00401427 -0.000246073 0)
(0.00212834 -0.00106047 0)
(0.00228162 -0.000697635 0)
(0.000143104 -0.0017448 0)
(0.00504073 -2.22619e-05 0)
(0.00475564 -0.000246359 0)
(0.00253651 -0.000554157 0)
(0.00286979 -0.000423378 0)
(0.00160577 -0.00198254 0)
(0.00387581 -9.85243e-05 0)
(0.00429782 -6.30825e-06 0)
(0.00392953 -0.000117078 0)
(0.00247381 -0.000972014 0)
(0.00347186 -0.000322557 0)
(0.0023776 -0.000999658 0)
(0.00329095 -0.000280498 0)
(0.00469452 -0.000203855 0)
(0.00425343 -3.04623e-05 0)
(0.00425381 -2.59391e-05 0)
(0.00296572 -0.000420808 0)
(0.00216812 -0.000992427 0)
(0.00442528 -4.98906e-05 0)
(0.00372162 -0.000425579 0)
(0.00357899 -0.000118508 0)
(0.00353764 -0.000129887 0)
(0.00409912 -0.000127896 0)
(0.00245413 -0.000599432 0)
(0.00185153 -0.00166894 0)
(0.00379169 -0.000335135 0)
(0.0012627 -0.00156561 0)
(0.00180225 -0.00139892 0)
(0.00166731 -0.00150024 0)
(0.00452284 -0.000389978 0)
(0.00305748 -0.000356161 0)
(0.0046032 -0.000200023 0)
(0.0023682 -0.000748716 0)
(0.00323725 -0.000332279 0)
(0.000457003 -0.00253542 0)
(0.00423863 -8.75337e-05 0)
(0.00405285 -0.000309715 0)
(0.00411252 -0.000305747 0)
(0.00367787 -0.000417676 0)
(0.00180221 -0.0010128 0)
(0.00392952 -0.000106689 0)
(0.00409364 -2.07145e-05 0)
(0.00468474 -0.000249343 0)
(0.00457726 -0.000198676 0)
(0.00459911 -0.000129937 0)
(0.00452808 -0.000131935 0)
(0.00262479 -0.000531173 0)
(0.00427048 -6.48684e-06 0)
(0.00262053 -0.000543234 0)
(0.00139383 -0.00186442 0)
(0.004603 -3.08597e-05 0)
(0.00461023 -4.51717e-05 0)
(0.00230334 -0.000761635 0)
(0.00324367 -0.000317829 0)
(0.00480456 -0.000139421 0)
(0.000377353 -0.00255596 0)
(0.00441533 -3.39111e-05 0)
(4.33894e-05 -0.00281563 0)
(0.00494218 -4.14367e-05 0)
(0.00495532 -3.5545e-05 0)
(0.00463717 -0.000272227 0)
(0.00464263 -0.000285457 0)
(0.00442468 -0.000406801 0)
(0.00387382 -3.15218e-05 0)
(0.00389398 -2.77158e-05 0)
(0.00161055 -0.00151303 0)
(0.00149327 -0.0015926 0)
(0.00195849 -0.000987218 0)
(0.00439444 -0.000281741 0)
(0.00494036 -1.27278e-05 0)
(0.00335268 -0.000200534 0)
(0.00387469 -3.30538e-05 0)
(0.00352394 -0.000453716 0)
(0.00462169 -0.000134926 0)
(0.00192772 -0.00099029 0)
(0.00152655 -0.00152278 0)
(0.000295883 -0.00260013 0)
(0.00375882 -9.092e-05 0)
(0.00068817 -0.00225096 0)
(0.00379652 -8.50434e-05 0)
(0.00375277 -0.000122055 0)
(0.00184718 -0.00132169 0)
(0.00494148 -2.21239e-05 0)
(0.00245086 -0.00070467 0)
(0.00116418 -0.00144964 0)
(0.00257465 -0.0012951 0)
(0.00384575 -4.37548e-05 0)
(0.00360503 -0.000186522 0)
(0.00243861 -0.000764949 0)
(0.00387643 -3.77659e-05 0)
(0.00425159 -1.69776e-05 0)
(0.00388308 -7.619e-05 0)
(0.00242784 -0.00127966 0)
(0.00492183 -2.7413e-05 0)
(0.00454914 -0.000139145 0)
(0.000772157 -0.00221666 0)
(0.00455535 -0.000119075 0)
(0.00219653 -0.000846201 0)
(0.00279798 -0.000514749 0)
(0.00381878 -3.96336e-05 0)
(0.00421424 -0.000446624 0)
(0.00238553 -0.000723279 0)
(0.00358509 -0.000305867 0)
(0.00420648 -0.000361314 0)
(0.00422202 -0.000375171 0)
(0.00394726 -3.6927e-05 0)
(0.00338937 -0.000180079 0)
(0.00245129 -0.00117554 0)
(0.00312548 -0.000498455 0)
(0.00319753 -0.000486391 0)
(0.00333775 -0.00031483 0)
(0.00371478 -0.000151966 0)
(0.00447889 -0.000138093 0)
(0.0014505 -0.00122641 0)
(0.00220311 -0.000745742 0)
(0.00478439 -0.000211287 0)
(0.00312882 -0.000331073 0)
(0.00184559 -0.00142371 0)
(0.00413276 -0.000272132 0)
(0.000219231 -0.00272489 0)
(0.00455886 -0.000350817 0)
(0.000195435 -0.00275301 0)
(0.00454308 -4.11022e-05 0)
(0.00456993 -3.21745e-05 0)
(0.00506838 -1.0285e-05 0)
(0.00471692 -0.000310465 0)
(0.00448399 -7.89727e-05 0)
(0.00386139 -5.27943e-05 0)
(0.00234181 -0.000938481 0)
(0.000439631 -0.00253935 0)
(0.00358391 -0.000494729 0)
(0.0019663 -0.00136217 0)
(0.00209358 -0.0010204 0)
(0.0039489 -4.19258e-05 0)
(0.000527389 -0.00246852 0)
(0.00444759 -0.000206797 0)
(0.0039056 -3.19579e-05 0)
(0.00487209 -0.000126217 0)
(0.00393588 -2.67191e-05 0)
(0.00394857 -2.07728e-05 0)
(0.00286747 -0.000486737 0)
(0.00291711 -0.000710173 0)
(0.00349974 -0.000203805 0)
(0.00455179 -0.000338828 0)
(0.00500616 -1.15802e-05 0)
(0.00461715 -0.000361874 0)
(0.00437555 -0.000165093 0)
(0.00363995 -0.000113498 0)
(0.000549173 -0.00244886 0)
(0.00142481 -0.00146084 0)
(0.00268277 -0.000589214 0)
(0.0037635 -0.000452875 0)
(0.00366972 -0.000360658 0)
(0.00365099 -0.000329161 0)
(0.00391642 -6.00407e-05 0)
(0.00395971 -0.00040398 0)
(0.00313692 -0.00028186 0)
(6.65446e-05 -0.00282458 0)
(0.00365396 -9.6798e-05 0)
(0.00349711 -0.000477964 0)
(0.00440187 -0.000153811 0)
(0.00366653 -9.65819e-05 0)
(0.00387261 -2.60962e-05 0)
(0.00111363 -0.00150862 0)
(0.00399232 -1.63784e-05 0)
(0.00399312 -0.000364502 0)
(0.00369755 -9.14686e-05 0)
(0.00233966 -0.000660984 0)
(0.00492424 -7.78812e-05 0)
(0.0042607 -0.000163916 0)
(0.00488244 -7.68911e-06 0)
(0.00442419 -0.000419857 0)
(0.00274665 -0.000520099 0)
(0.0037858 -6.05264e-05 0)
(0.00450595 -0.000426542 0)
(0.00416525 -0.000258938 0)
(0.000482321 -0.0023632 0)
(0.00399389 -0.000196789 0)
(0.00387909 -0.000108864 0)
(0.00408271 -0.000168221 0)
(0.00494245 -2.77617e-06 0)
(0.000303211 -0.0024853 0)
(0.00369395 -0.000309172 0)
(0.00356662 -0.000276992 0)
(0.00394615 -0.000210564 0)
(8.23267e-05 -0.00269746 0)
(0.00397885 -3.33722e-06 0)
(0.000424442 -0.00229185 0)
(0.00384568 -8.50718e-05 0)
(0.000747815 -0.00226752 0)
(0.00359698 -0.000276664 0)
(0.000676058 -0.00230836 0)
(0.00353698 -0.000271181 0)
(0.00177222 -0.00104434 0)
(0.00125424 -0.00176277 0)
(0.00449297 -0.000175758 0)
(0.00435584 -8.93376e-05 0)
(0.0043178 -8.96059e-05 0)
(0.00382576 -4.52412e-05 0)
(0.00383289 -4.35595e-05 0)
(0.00430865 -0.000158506 0)
(0.004781 -0.000140647 0)
(0.00371731 -0.000128292 0)
(0.0039306 -2.25788e-05 0)
(0.00499679 -2.70027e-05 0)
(0.00467963 -0.000281978 0)
(0.00369592 -0.000399245 0)
(0.00441627 -3.26286e-06 0)
(0.00474112 -0.00017285 0)
(0.0034573 -0.000207364 0)
(0.00475037 -0.000135773 0)
(0.00420031 -8.84793e-05 0)
(0.000905881 -0.00183953 0)
(0.000803181 -0.00194277 0)
(0.00333817 -0.000213417 0)
(0.00373596 -7.63307e-05 0)
(0.00365711 -0.000153885 0)
(0.00345823 -0.000198604 0)
(0.00380791 -4.91589e-05 0)
(0.00481353 -6.76782e-05 0)
(0.00458787 -0.000259264 0)
(0.0037631 -0.000190367 0)
(0.00380899 -0.000498881 0)
(0.00501064 -1.35087e-05 0)
(0.00463586 -0.000342814 0)
(0.00445183 -2.43557e-05 0)
(0.00375676 -0.000248386 0)
(0.00390971 -4.12812e-05 0)
(0.00173853 -0.00104938 0)
(0.00481715 -6.17064e-05 0)
(0.00456751 -0.000273996 0)
(0.0031549 -0.000265608 0)
(0.00367642 -0.000277116 0)
(0.00324957 -0.00027834 0)
(0.00326822 -0.000232021 0)
(0.00413296 -2.35754e-05 0)
(0.00369483 -0.00035173 0)
(0.0037054 -0.00028742 0)
(0.00161693 -0.00178751 0)
(0.00378534 -8.99636e-05 0)
(0.0037667 -0.000195741 0)
(0.00375055 -0.000100639 0)
(0.00478008 -7.72653e-05 0)
(0.00291981 -0.000509549 0)
(0.0039117 -0.000208843 0)
(0.00390756 -0.000361784 0)
(0.00364356 -0.000355403 0)
(0.00319557 -0.000927865 0)
(0.00116791 -0.00199363 0)
(0.00381929 -0.000104273 0)
(0.00242535 -0.000912021 0)
(0.00295376 -0.000466229 0)
(0.000128025 -0.00270453 0)
(0.00107886 -0.00209255 0)
(0.0035364 -0.000335374 0)
(0.00451864 -0.000266216 0)
(0.00403844 -0.000345994 0)
(0.00287714 -0.000400543 0)
(0.00294183 -0.000378333 0)
(0.00393631 -0.000157144 0)
(0.000124159 -0.00281871 0)
(0.00129158 -0.00166687 0)
(0.00399676 -2.01729e-05 0)
(0.00505411 -1.00461e-05 0)
(0.00468694 -0.000330086 0)
(0.00451908 -0.000281377 0)
(0.0035654 -0.000121663 0)
(0.00150216 -0.00198551 0)
(0.00285486 -0.000462336 0)
(0.00398021 -9.28255e-05 0)
(0.00381305 -9.67512e-05 0)
(0.0038856 -6.89289e-05 0)
(0.00457056 -0.000381114 0)
(0.00364724 -0.000168154 0)
(0.00473332 -0.000133364 0)
(0.00360946 -0.000108892 0)
(0.00495915 -6.47806e-05 0)
(0.000875315 -0.00222141 0)
(0.00455501 -0.000255787 0)
(0.00497686 -1.01908e-05 0)
(0.000842662 -0.00221803 0)
(0.00440588 -5.65686e-05 0)
(0.00479044 -5.88243e-05 0)
(0.000686064 -0.00194002 0)
(0.00191364 -0.0017901 0)
(0.0044831 -9.36112e-05 0)
(0.00371003 -0.000116731 0)
(0.00336333 -0.000406147 0)
(0.0028623 -0.000435467 0)
(0.0043544 -0.000196734 0)
(0.00435137 -0.000186718 0)
(0.00391376 -0.000173249 0)
(0.00015924 -0.00277797 0)
(0.00374714 -0.000473353 0)
(0.00395928 -4.64923e-06 0)
(0.00335639 -0.000390959 0)
(0.00306967 -0.000458745 0)
(0.00407158 -0.000193313 0)
(0.00150609 -0.00119641 0)
(0.00400967 -1.28636e-05 0)
(0.000519195 -0.00218859 0)
(0.00336789 -0.000187931 0)
(0.004195 -3.5957e-05 0)
(0.0041739 -3.25328e-05 0)
(0.000464128 -0.00250671 0)
(0.00291465 -0.000439236 0)
(0.00291803 -0.00045347 0)
(0.00446033 -0.000129381 0)
(0.000182592 -0.00253368 0)
(0.00331189 -0.000208016 0)
(0.00434769 -7.21206e-05 0)
(0.0030924 -0.000329295 0)
(0.00506694 -4.58474e-06 0)
(0.004676 -0.000362122 0)
(0.00163268 -0.00143122 0)
(0.00316201 -0.000330976 0)
(0.00371105 -0.000114911 0)
(0.00366214 -0.000170325 0)
(0.00349103 -0.000521978 0)
(0.00142374 -0.00171932 0)
(0.00134325 -0.00180979 0)
(0.00344454 -0.000466527 0)
(0.00298564 -0.000502645 0)
(0.00339474 -0.000200504 0)
(0.00422974 -0.000293594 0)
(0.00299336 -0.000334613 0)
(0.00303371 -0.000314776 0)
(0.00439082 -0.000406332 0)
(0.000145455 -0.00245154 0)
(0.00275859 -0.000678897 0)
(0.0047881 -0.000153864 0)
(0.00283794 -0.00061798 0)
(0.00343415 -0.000440403 0)
(0.0044902 -0.000119308 0)
(0.000430408 -0.00255646 0)
(0.00503438 -6.57021e-06 0)
(0.0046413 -0.000367914 0)
(0.00428781 -0.000112289 0)
(0.00451877 -7.54575e-05 0)
(0.00498161 -5.08903e-05 0)
(0.00381188 -0.000440306 0)
(0.00115272 -0.00150277 0)
(0.00411491 -0.000240257 0)
(0.00410775 -0.000226664 0)
(0.00451521 -9.46788e-05 0)
(0.00402662 -0.000200296 0)
(0.00422766 -3.46567e-05 0)
(0.00448359 -0.000111592 0)
(0.00321099 -0.000244221 0)
(0.00352341 -0.000547913 0)
(0.00410244 -5.63926e-05 0)
(0.00214936 -0.000948345 0)
(0.0045166 -0.00018094 0)
(0.00303404 -0.000353494 0)
(0.00344907 -0.000350112 0)
(0.00365366 -0.000285324 0)
(0.000919562 -0.00177605 0)
(0.0029962 -0.000399596 0)
(0.00305718 -0.000387562 0)
(0.00483362 -1.75468e-05 0)
(0.00179687 -0.00186013 0)
(0.0047238 -7.48287e-05 0)
(0.00399571 -3.94365e-05 0)
(0.00408225 -0.000273728 0)
(0.00449723 -0.000195808 0)
(0.00465683 -0.000209886 0)
(0.00415676 -0.000108167 0)
(0.00342404 -0.000273065 0)
(0.00386848 -1.65404e-05 0)
(0.00444289 -0.000255238 0)
(5.75812e-05 -0.0028523 0)
(0.0039984 -0.000128873 0)
(0.00448007 -2.13138e-05 0)
(0.00420076 -0.000111564 0)
(0.00468855 -8.19633e-05 0)
(0.0039732 -8.33837e-05 0)
(0.00150003 -0.0011878 0)
(0.00398596 -3.73811e-05 0)
(0.00340715 -0.000428264 0)
(0.00402271 -0.000171233 0)
(0.00359208 -0.000446175 0)
(0.00292776 -0.000405077 0)
(0.00399059 -0.000181471 0)
(0.00371583 -0.000443094 0)
(0.00495355 -6.1951e-05 0)
(0.00111274 -0.00199456 0)
(0.00157656 -0.00187642 0)
(0.0041999 -0.000188349 0)
(0.00412362 -0.000322803 0)
(0.00410851 -2.79466e-05 0)
(0.00395191 -0.000355958 0)
(0.00462937 -0.00024564 0)
(0.004204 -0.000213555 0)
(0.00413451 -5.8331e-05 0)
(0.0019198 -0.00169293 0)
(0.0048158 -4.99217e-05 0)
(0.0038643 -5.22543e-05 0)
(0.0042305 -2.00603e-05 0)
(0.00207241 -0.00152887 0)
(0.00350172 -0.000138981 0)
(0.00328279 -0.000495136 0)
(0.00347622 -0.000145715 0)
(0.00313865 -0.00029685 0)
(0.00412144 -1.8771e-06 0)
(0.00474698 -7.9488e-05 0)
(0.000199084 -0.0026886 0)
(0.000591641 -0.00224845 0)
(0.00404713 -2.07788e-05 0)
(0.00416384 -0.000186916 0)
(0.00468693 -0.000107313 0)
(0.00465802 -0.000108358 0)
(0.00481097 -1.36894e-05 0)
(0.00467615 -0.000238317 0)
(0.000816355 -0.00182354 0)
(0.00463811 -4.89466e-05 0)
(0.00152053 -0.00122228 0)
(0.00375726 -7.911e-05 0)
(0.00378519 -7.69928e-05 0)
(0.00155225 -0.00118386 0)
(0.0044053 -0.00019539 0)
(0.00444593 -0.000182387 0)
(0.00476759 -2.9275e-05 0)
(0.00451738 -0.00015288 0)
(0.00420756 -2.08864e-05 0)
(0.00346741 -0.000269151 0)
(0.00466038 -9.89986e-05 0)
(0.0041798 -2.70969e-05 0)
(0.00431381 -0.000446591 0)
(0.000142262 -0.0027544 0)
(0.00349531 -0.000653036 0)
(0.00274057 -0.000608874 0)
(0.00163474 -0.00189753 0)
(0.00389656 -9.39963e-06 0)
(0.00327672 -0.000280678 0)
(0.00415042 -6.95384e-05 0)
(0.00412552 -6.70721e-05 0)
(0.00361935 -0.000118457 0)
(0.00271604 -0.00059919 0)
(0.00396853 -4.61763e-05 0)
(0.00402262 -8.93998e-05 0)
(0.00432989 -0.000108565 0)
(0.00461232 -1.60909e-05 0)
(0.00176099 -0.00114925 0)
(0.00286161 -0.000389902 0)
(0.00314706 -0.000370851 0)
(0.00422278 -9.43306e-06 0)
(0.000456243 -0.00249729 0)
(0.00307379 -0.000395638 0)
(0.00270557 -0.000511661 0)
(0.00425175 -0.00020551 0)
(0.00061049 -0.00213245 0)
(0.000647639 -0.0020157 0)
(0.00431125 -0.000182595 0)
(0.00412263 -0.000432216 0)
(0.000650122 -0.00223014 0)
(0.00477257 -0.000177297 0)
(0.000390513 -0.00257645 0)
(0.00410132 -2.1875e-06 0)
(0.00404022 -0.000292894 0)
(0.00237568 -0.00116011 0)
(0.00396719 -0.000116414 0)
(0.00350508 -0.000141538 0)
(0.00390536 -2.86159e-05 0)
(0.00385454 -4.44536e-05 0)
(0.00131302 -0.00208103 0)
(0.00223887 -0.00122019 0)
(0.00154454 -0.00129282 0)
(0.00482318 -7.9784e-05 0)
(0.00334273 -0.000206115 0)
(0.00322836 -0.000501987 0)
(0.0044716 -8.75436e-05 0)
(0.00365473 -9.44165e-05 0)
(0.00264141 -0.000587536 0)
(0.00428722 -0.000286762 0)
(0.0036021 -0.000116984 0)
(0.00275784 -0.000441416 0)
(0.00291244 -0.000368089 0)
(0.00393227 -1.085e-05 0)
(0.003904 -2.14421e-05 0)
(0.00383669 -6.97838e-05 0)
(0.00228815 -0.000819195 0)
(0.00148675 -0.00135921 0)
(0.00102787 -0.00200495 0)
(0.00272857 -0.000516249 0)
(0.0039106 -2.07237e-05 0)
(0.000930644 -0.00211263 0)
(0.00418311 -3.30491e-06 0)
(0.00427144 -0.00018915 0)
(0.00312825 -0.000359826 0)
(0.00271899 -0.000495673 0)
(0.00371058 -0.000101529 0)
(0.00339158 -0.000487233 0)
(0.000613544 -0.00230836 0)
(2.14891e-05 -0.00285428 0)
(0.000148225 -0.00265121 0)
(0.00196946 -0.00122913 0)
(0.00110127 -0.00182468 0)
(0.00276355 -0.000551145 0)
(0.00282111 -0.000544218 0)
(0.00438843 -5.17787e-06 0)
(0.00481238 -3.61672e-05 0)
(0.00434989 -0.000125205 0)
(0.0043135 -2.30715e-06 0)
(0.00433976 -6.26604e-05 0)
(0.000348421 -0.00254907 0)
(0.00385072 -4.98362e-05 0)
(0.00482228 -0.000157268 0)
(0.00395118 -5.73128e-05 0)
(0.000964068 -0.00210429 0)
(0.00267872 -0.000485424 0)
(0.00402728 -2.20036e-05 0)
(0.00389189 -2.48996e-05 0)
(0.00295246 -0.000526528 0)
(0.00352401 -0.000150984 0)
(0.00133753 -0.00137118 0)
(0.00381672 -8.84033e-05 0)
(0.00445068 -0.00014981 0)
(0.00123694 -0.00145095 0)
(0.00153583 -0.00141443 0)
(0.00385147 -3.97067e-05 0)
(0.00425992 -0.000231143 0)
(0.0039685 -1.67656e-05 0)
(0.00109104 -0.00213665 0)
(0.00390571 -0.000405809 0)
(0.00234578 -0.000658704 0)
(0.00273977 -0.000736993 0)
(0.00475523 -0.000120007 0)
(0.00472606 -0.000121027 0)
(0.00358501 -0.000203333 0)
(0.00229293 -0.000689171 0)
(0.00360267 -0.00013378 0)
(0.00449227 -6.17805e-05 0)
(0.00449681 -5.36231e-05 0)
(0.00155901 -0.00142173 0)
(0.00115651 -0.00180013 0)
(0.00415828 -0.00043625 0)
(0.00299226 -0.000625696 0)
(0.003427 -0.00040259 0)
(0.00488121 -3.34697e-05 0)
(0.00134942 -0.00146584 0)
(0.00411378 -0.00039775 0)
(0.00361875 -0.000428248 0)
(0.00410894 -5.0724e-05 0)
(0.00315076 -0.000553581 0)
(0.00322695 -0.000259169 0)
(0.00104769 -0.00166299 0)
(0.00432144 -0.000134217 0)
(0.00252323 -0.000727241 0)
(0.0034173 -0.00017469 0)
(0.0029289 -0.000573153 0)
(0.00258419 -0.000754438 0)
(0.00432238 -0.000380836 0)
(0.00458382 -0.000282385 0)
(0.00420382 -0.0002832 0)
(0.00273659 -0.000621079 0)
(0.00250632 -0.000780159 0)
(0.00259898 -0.000521297 0)
(0.00457904 -0.000237424 0)
(0.00479913 -2.97493e-05 0)
(0.00336423 -0.000291255 0)
(0.00375215 -0.000310829 0)
(0.00346487 -0.000169124 0)
(0.0042333 -0.000105054 0)
(0.00323431 -0.000307096 0)
(0.00307759 -0.000302342 0)
(0.00436206 -0.000261572 0)
(0.000320616 -0.0026087 0)
(0.000697236 -0.00202005 0)
(0.000944949 -0.00202482 0)
(0.00400398 -1.01114e-05 0)
(0.00439115 -8.22053e-05 0)
(0.0045134 -0.000339236 0)
(0.00401204 -0.000478512 0)
(4.81243e-05 -0.00274266 0)
(0.00372146 -9.09905e-05 0)
(0.00338023 -0.000220678 0)
(0.00341014 -0.000200418 0)
(0.0040619 -0.000469703 0)
(0.00473352 -4.51945e-05 0)
(0.00199107 -0.000897532 0)
(0.00379136 -0.000253285 0)
(0.0037648 -0.000244126 0)
(0.00239768 -0.00068068 0)
(0.00398696 -0.000493459 0)
(0.000906149 -0.0020409 0)
(0.00438247 -0.00032778 0)
(0.00444653 -0.000329936 0)
(0.00431157 -0.00041277 0)
(0.00407301 -0.000257322 0)
(0.0011155 -0.00188844 0)
(0.00433774 -0.000422646 0)
(0.00500863 -3.17327e-05 0)
(0.00335138 -0.000191709 0)
(0.00387513 -0.000398556 0)
(0.00387729 -0.000377379 0)
(0.0033966 -0.000170994 0)
(0.00317541 -0.000303034 0)
(0.00422583 -0.000240036 0)
(0.00242385 -0.000687748 0)
(0.00409236 -6.2369e-06 0)
(0.00191475 -0.00118902 0)
(0.00287025 -0.000397163 0)
(0.00437358 -4.22373e-05 0)
(0.00291935 -0.000372933 0)
(0.00376215 -0.000490151 0)
(0.000763463 -0.00210779 0)
(0.00474512 -1.14432e-05 0)
(0.000640308 -0.00215797 0)
(0.0010833 -0.00189688 0)
(0.00276997 -0.000623936 0)
(0.00409545 -0.000482076 0)
(0.00418989 -0.000124714 0)
(0.00419273 -0.000396159 0)
(0.00084544 -0.00175591 0)
(0.0040149 -6.65171e-06 0)
(0.00212201 -0.000796888 0)
(0.00395605 -1.43589e-05 0)
(0.0050803 -5.44135e-06 0)
(0.00470378 -0.000342893 0)
(0.00423275 -0.000430199 0)
(0.00209385 -0.000820601 0)
(0.00401879 -0.000328425 0)
(0.00414816 -5.89734e-06 0)
(0.00357221 -0.000479922 0)
(0.0041763 -7.23215e-06 0)
(0.000255848 -0.00265858 0)
(0.00132163 -0.00146463 0)
(0.00448412 -0.000265924 0)
(0.000132689 -0.00279679 0)
(0.00366761 -0.000268118 0)
(0.00393483 -1.9328e-05 0)
(0.00350773 -0.000135512 0)
(0.00282837 -0.000580087 0)
(0.0046228 -2.26381e-05 0)
(0.00406864 -4.98039e-06 0)
(0.00352608 -0.000395738 0)
(0.00478906 -8.32821e-05 0)
(0.00360903 -0.000104314 0)
(0.000679698 -0.00234321 0)
(0.00309635 -0.000289599 0)
(0.00468161 -0.000131351 0)
(0.00267197 -0.000558484 0)
(0.00370865 -0.000181402 0)
(0.00277245 -0.000494099 0)
(0.00406355 -0.000406471 0)
(0.00420684 -2.65969e-06 0)
(0.000113226 -0.00281635 0)
(0.00196072 -0.00111397 0)
(0.00462227 -0.000227341 0)
(0.00203542 -0.00085161 0)
(0.000550495 -0.00242592 0)
(0.00320033 -0.000256214 0)
(0.00189518 -0.00113875 0)
(0.00363853 -0.000224955 0)
(0.00405739 -7.68276e-06 0)
(0.00379597 -0.000147292 0)
(0.00279523 -0.00045505 0)
(0.00376562 -0.000209121 0)
(0.00167446 -0.00142658 0)
(0.00171318 -0.00120746 0)
(0.00308112 -0.000944154 0)
(0.0032657 -0.000222883 0)
(0.00157918 -0.00119411 0)
(0.00181011 -0.00127858 0)
(0.0032329 -0.000233166 0)
(0.00415832 -0.000174654 0)
(0.0033692 -0.000214365 0)
(0.0033934 -0.000213058 0)
(0.00380383 -5.29418e-05 0)
(0.00290309 -0.000593352 0)
(0.00379886 -5.63562e-05 0)
(0.00280204 -0.000437371 0)
(0.00277076 -0.000458109 0)
(0.00107344 -0.00178754 0)
(0.00439425 -0.00010098 0)
(0.00395364 -6.92062e-05 0)
(0.0043187 -2.32031e-05 0)
(0.0043411 -1.94915e-05 0)
(0.00458055 -0.000181846 0)
(0.00120305 -0.00189642 0)
(0.00363009 -9.67487e-05 0)
(0.00163466 -0.00112262 0)
(0.0026154 -0.000655515 0)
(0.00463927 -7.6442e-05 0)
(0.00302541 -0.00108515 0)
(0.00458249 -1.48803e-05 0)
(0.00442424 -9.6672e-05 0)
(0.00275839 -0.000441008 0)
(0.00340968 -0.000182727 0)
(0.00400888 -3.33247e-06 0)
(0.00424973 -9.61293e-05 0)
(0.00460213 -0.000209488 0)
(0.00416019 -9.89903e-05 0)
(0.00376755 -0.000101968 0)
(0.00467265 -0.000139573 0)
(0.00369918 -0.000199351 0)
(0.00493307 -5.45835e-05 0)
(0.00326635 -0.000308038 0)
(0.00299567 -0.000345414 0)
(0.00293321 -0.000371817 0)
(0.00388596 -1.77795e-05 0)
(0.00368257 -0.000194474 0)
(0.00416609 -1.35322e-05 0)
(0.00485424 -3.22909e-05 0)
(0.00415013 -0.000288849 0)
(0.00440592 -0.00020599 0)
(0.000928842 -0.0022276 0)
(0.00468358 -1.86063e-05 0)
(0.00350726 -0.000179526 0)
(0.00459489 -6.52258e-05 0)
(0.00128354 -0.00135916 0)
(0.0028048 -0.000444625 0)
(0.00372823 -7.54139e-05 0)
(0.0028395 -0.000419223 0)
(0.00055467 -0.00241802 0)
(0.00369962 -0.000140721 0)
(0.00442407 -8.18005e-05 0)
(0.0046553 -7.41033e-06 0)
(0.00446865 -0.000352479 0)
(0.00330203 -0.000520143 0)
(0.00338253 -0.000463475 0)
(0.00290397 -0.00109579 0)
(0.0041214 -1.8195e-05 0)
(0.00138639 -0.00132002 0)
(0.00415941 -2.20049e-05 0)
(0.00430948 -0.000295843 0)
(0.000246652 -0.00272171 0)
(0.00437801 -1.08669e-05 0)
(0.00423187 -0.00026533 0)
(0.00300769 -0.000520292 0)
(0.00391484 -0.000138042 0)
(0.00395865 -0.000129131 0)
(0.00435051 -0.000453194 0)
(0.00408279 -0.000344416 0)
(0.00428445 -0.000383057 0)
(0.00343993 -0.000488616 0)
(0.00459517 -0.00016994 0)
(0.00354959 -0.000121388 0)
(0.00485798 -6.47006e-05 0)
(0.00108848 -0.00160034 0)
(0.00389926 -1.41533e-05 0)
(0.00415729 -0.000241429 0)
(0.00419192 -0.000232284 0)
(0.00486528 -9.13333e-05 0)
(0.00361707 -0.000101066 0)
(0.00385 -0.000444905 0)
(0.00392581 -7.7289e-06 0)
(0.00209572 -0.00175387 0)
(0.00358569 -0.00039934 0)
(0.00377049 -0.00027319 0)
(0.00399787 -3.98866e-06 0)
(0.00421061 -0.000309583 0)
(0.00164262 -0.00121251 0)
(0.00160699 -0.00112776 0)
(0.00168975 -0.00106529 0)
(0.00407724 -0.000447107 0)
(0.00457323 -0.000156993 0)
(0.00479414 -0.000123828 0)
(0.0045314 -0.000160435 0)
(0.0026233 -0.000601844 0)
(0.00410821 -0.00015848 0)
(0.00416525 -0.000321078 0)
(0.0025049 -0.000589206 0)
(0.00385374 -0.000486311 0)
(0.00332574 -0.000474141 0)
(0.00353797 -0.000161791 0)
(0.00349078 -0.0001678 0)
(0.00420466 -5.11129e-05 0)
(0.00155808 -0.00165075 0)
(0.00464179 -0.000231728 0)
(0.00255237 -0.00142538 0)
(0.00347311 -0.000286144 0)
(0.00220588 -0.000866694 0)
(0.00491219 -8.71133e-05 0)
(0.003216 -0.000256866 0)
(0.00451022 -3.56546e-05 0)
(0.00431478 -7.85086e-05 0)
(0.00166933 -0.00107665 0)
(0.00383633 -6.77919e-05 0)
(0.00162425 -0.00110404 0)
(0.00362251 -0.00034365 0)
(0.00363734 -0.00032414 0)
(0.00164439 -0.00156683 0)
(0.00440457 -4.22185e-05 0)
(0.00504555 -1.52718e-05 0)
(0.0046695 -0.00030178 0)
(0.00470768 -0.000298063 0)
(0.00500659 -2.25057e-05 0)
(0.00324449 -0.000803222 0)
(0.00418807 -8.12601e-05 0)
(0.00489803 -8.1518e-05 0)
(0.00381998 -6.457e-05 0)
(0.00378621 -7.82948e-05 0)
(0.00296195 -0.00075581 0)
(0.00270258 -0.000550399 0)
(0.00172658 -0.00115361 0)
(0.0035918 -0.000241343 0)
(0.00268781 -0.00108637 0)
(0.00397503 -0.000229269 0)
(0.00326786 -0.00036452 0)
(0.00247278 -0.000636224 0)
(0.00267356 -0.000697158 0)
(0.00460679 -0.000148006 0)
(0.00300026 -0.000385002 0)
(0.00211228 -0.000826684 0)
(0.000575841 -0.00242573 0)
(0.00311599 -0.000400847 0)
(0.00311117 -0.000422661 0)
(0.00468344 -1.35497e-05 0)
(0.00216189 -0.000786583 0)
(0.00390884 -3.69755e-05 0)
(0.00462807 -7.83884e-06 0)
(7.19016e-05 -0.00278675 0)
(0.00221718 -0.00102976 0)
(0.00434501 -0.000367157 0)
(0.00381138 -0.000294359 0)
(0.00238388 -0.000866466 0)
(0.0037606 -6.19999e-05 0)
(0.00379314 -6.2371e-05 0)
(0.00414234 -0.000130405 0)
(0.00468732 -6.20271e-05 0)
(0.00335524 -0.000784508 0)
(0.000894739 -0.00210316 0)
(0.00401949 -0.000261809 0)
(0.00333909 -0.000350364 0)
(0.00384444 -0.000136979 0)
(0.00381768 -0.000133887 0)
(0.00488066 -2.03687e-05 0)
(0.00229742 -0.000903804 0)
(0.000310797 -0.00265187 0)
(0.000164085 -0.00275527 0)
(0.00333128 -0.000264791 0)
(0.0025015 -0.000583508 0)
(0.00338523 -0.000468831 0)
(0.00345492 -0.000179585 0)
(0.00361938 -0.000109863 0)
(0.00382836 -0.000122488 0)
(0.00339535 -0.000189376 0)
(0.00339155 -0.000366492 0)
(0.00245808 -0.000623523 0)
(0.00400957 -0.000137279 0)
(0.00104915 -0.00203094 0)
(0.00327569 -0.000216117 0)
(0.0025473 -0.000571285 0)
(0.00323738 -0.000229387 0)
(0.00253186 -0.00060981 0)
(0.00309254 -0.000548844 0)
(0.00399313 -2.83824e-05 0)
(0.00240427 -0.000645259 0)
(0.00398497 -3.2562e-05 0)
(0.00414094 -0.000406551 0)
(0.003543 -0.000235298 0)
(0.00295775 -0.000382716 0)
(0.00458113 -7.40321e-05 0)
(0.000721269 -0.0023139 0)
(0.000822464 -0.00206962 0)
(0.00352753 -0.000251498 0)
(0.00170967 -0.00105049 0)
(0.00458167 -9.55817e-05 0)
(0.00465245 -8.34998e-05 0)
(0.00244085 -0.000628126 0)
(0.00492816 -3.50572e-05 0)
(0.00472903 -6.85658e-05 0)
(0.00212346 -0.000945051 0)
(0.00417343 -5.08146e-05 0)
(0.00387041 -3.86044e-05 0)
(0.0030852 -0.000530778 0)
(0.00438096 -0.000246297 0)
(0.00375205 -6.78089e-05 0)
(3.57926e-05 -0.00286847 0)
(0.00418433 -6.6387e-05 0)
(0.0036194 -0.00047369 0)
(0.00361733 -0.000512511 0)
(0.000760099 -0.00231462 0)
(0.00479377 -3.12672e-06 0)
(0.00334903 -0.0005145 0)
(0.00231703 -0.00159137 0)
(0.00373424 -0.000184518 0)
(0.00453679 -0.000113851 0)
(0.000805495 -0.00213204 0)
(0.00117666 -0.00188952 0)
(0.00324564 -0.000387579 0)
(0.00370532 -7.74619e-05 0)
(0.00352848 -0.000375975 0)
(0.0034746 -0.000382714 0)
(0.00416635 -0.00036367 0)
(0.0032583 -0.000384752 0)
(0.00240766 -0.000663427 0)
(0.00462027 -3.73336e-05 0)
(0.00353342 -0.000128894 0)
(0.00343804 -0.00016094 0)
(0.00192971 -0.000923049 0)
(0.00391326 -4.8923e-05 0)
(0.0033827 -0.000178898 0)
(0.00398185 -4.89618e-05 0)
(0.00265867 -0.000499809 0)
(0.00393517 -3.28242e-06 0)
(0.000632213 -0.00237487 0)
(0.00377541 -0.000145202 0)
(0.000530325 -0.00246865 0)
(0.00431188 -0.000270085 0)
(0.00489648 -5.06715e-05 0)
(0.00486379 -5.22498e-05 0)
(0.00195041 -0.00090452 0)
(0.00381675 -0.000275649 0)
(0.00459512 -0.000305872 0)
(0.000454077 -0.00244666 0)
(0.000375016 -0.002529 0)
(0.0034937 -0.00043261 0)
(0.00366529 -0.000142009 0)
(0.00215307 -0.0016446 0)
(0.00438767 -1.50599e-05 0)
(0.00390941 -4.3948e-06 0)
(0.00444434 -6.39881e-06 0)
(0.00392811 -5.14873e-05 0)
(0.000222237 -0.00268369 0)
(0.00406606 -8.22338e-05 0)
(0.00407668 -7.32302e-05 0)
(0.00404742 -3.99721e-05 0)
(0.00338973 -0.000176151 0)
(0.00327464 -0.000464813 0)
(0.00170923 -0.00112769 0)
(0.00396567 -6.25129e-05 0)
(0.00281581 -0.000568948 0)
(0.00446439 -0.000384016 0)
(0.00277716 -0.000429715 0)
(0.00273917 -0.000449613 0)
(0.00223513 -0.000777069 0)
(0.00143637 -0.00148777 0)
(0.0049838 -2.3405e-05 0)
(0.00463476 -0.000315774 0)
(0.00328908 -0.000321947 0)
(0.002059 -0.00120143 0)
(0.00336077 -0.000290873 0)
(0.00485865 -6.96449e-05 0)
(0.00451838 -0.000236458 0)
(0.00456364 -0.000228276 0)
(0.00217828 -0.00110186 0)
(0.000565645 -0.0022895 0)
(0.00498344 -1.95966e-05 0)
(0.00461513 -0.00033689 0)
(0.00296339 -0.000375794 0)
(0.00423712 -4.74071e-05 0)
(0.00368967 -0.000216065 0)
(0.00163931 -0.00118608 0)