/*--------------------------------*- C++ -*----------------------------------*\
| =========                 |                                                 |
| \\      /  F ield         | OpenFOAM: The Open Source CFD Toolbox           |
|  \\    /   O peration     | Version:  v2012                                 |
|   \\  /    A nd           | Website:  www.openfoam.com                      |
|    \\/     M anipulation  |                                                 |
\*---------------------------------------------------------------------------*/
FoamFile
{
    version     2.0;
    format      ascii;
    class       volScalarField;
    location    "11";
    object      epsilonEq;
}
// * * * * * * * * * * * * * * * * * * * * * * * * * * * * * * * * * * * * * //

dimensions      [0 0 0 0 0 0 0];


internalField   nonuniform List<scalar> 
1896
(
0.000996487
0.00132267
0.000986677
0.00266403
0.000998194
0.00101941
0.00283078
0.000961737
0.0015155
0.000909576
0.000948759
0.000772324
0.000709868
0.000743372
0.00264045
0.0018751
0.00150761
0.00288946
0.00161574
0.00123802
0.00156623
0.00128546
0.00250536
0.00249776
0.00135351
0.00132755
0.000597207
0.000698277
0.00100578
0.00175663
0.00176214
0.00133831
0.000620671
0.00131016
0.00234229
0.000997402
0.00169127
0.00121794
0.00399026
0.00179578
0.0013258
0.00207668
0.00156338
0.00220628
0.000606625
0.000641719
0.00264434
0.000961899
0.0023354
0.00265815
0.000965581
0.000987048
0.000984969
0.00128526
0.00167071
0.00138766
0.00198803
0.00100366
0.00119855
0.00175524
0.000942831
0.00267423
0.00259321
0.00111307
0.000767593
0.0013389
0.00231504
0.00105529
0.00120404
0.00243263
0.00042611
0.00255111
0.00120302
0.00138856
0.00238392
0.00132111
0.0013216
0.00110248
0.00110985
0.00134113
0.00171874
0.00244676
0.00071824
0.000944274
0.000946026
0.00146425
0.0011928
0.00112778
0.00188958
0.00140298
0.00121002
0.0158424
0.00128384
0.00242329
0.00263631
0.0013258
0.00128659
0.000939692
0.0013068
0.00125704
0.00134582
0.00106445
0.00108901
0.00143123
0.00169539
0.00148515
0.00144524
0.00237439
0.00227241
0.0103533
0.000956301
0.00129291
0.00216434
0.00191148
0.00628677
0.00123417
0.000735478
0.00128046
0.00197674
0.0017176
0.00215284
0.00157077
0.00123755
0.000842891
0.000795446
0.00184994
0.00231264
0.000965757
0.00166502
0.00135667
0.00139472
0.00124931
0.00215288
0.0022087
0.00158912
0.00259721
0.00242833
0.0025829
0.00132631
0.00187945
0.00123866
0.00222455
0.001853
0.00273525
0.001104
0.00146662
0.00144996
0.00168248
0.00243305
0.00124599
0.000713221
0.00126864
0.0012427
0.00115474
0.00116341
0.00205862
0.00075716
0.00209079
0.0101984
0.000950394
0.000996763
0.00252561
0.00159954
0.00116427
0.0041714
0.000906657
0.00185087
0.00097515
0.000977436
0.0012989
0.00129746
0.00135498
0.000764232
0.000694066
0.00259541
0.00262843
0.00238036
0.00133451
0.000966793
0.00158225
0.00069491
0.00176523
0.00115755
0.00239108
0.00262406
0.00359115
0.00128076
0.00278206
0.00192124
0.00089894
0.00245862
0.000974161
0.00216426
0.0026793
0.00119824
0.000926733
0.00152341
0.00224767
0.000854223
0.000775819
0.00117232
0.00178466
0.000962972
0.00117723
0.00318497
0.00113563
0.00228938
0.00212021
0.00191126
0.00140736
0.00253791
0.00166148
0.00143278
0.00141425
0.000880287
0.00147219
0.00166096
0.00199547
0.00199543
0.00179774
0.000903395
0.0011837
0.00281408
0.00230949
0.00126271
0.00188145
0.00242932
0.00142172
0.00230191
0.00132241
0.0018451
0.000951461
0.000963397
0.000932217
0.00131794
0.0010535
0.0010523
0.00224657
0.00319061
0.00177122
0.0022487
0.00238535
0.000931511
0.00328482
0.00126686
0.000814202
0.00116753
0.00076849
0.000628752
0.00212579
0.00153093
0.00158922
0.00133256
0.000925989
0.0013251
0.0012363
0.00110302
0.00277071
0.00256541
0.0022545
0.00163108
0.00164957
0.00127834
0.00106976
0.00155309
0.00171099
0.00181409
0.00127166
0.00182775
0.00122182
0.00130801
0.000728175
0.00272497
0.000598533
0.00151968
0.00105973
0.00224319
0.00108507
0.00126167
0.000976019
0.00134061
0.00217023
0.000859293
0.00132672
0.00139544
0.00216744
0.00140062
0.00127115
0.00133082
0.000954607
0.00170264
0.00163066
0.00163892
0.00143932
0.00320035
0.000362204
0.00205388
0.00118642
0.00321209
0.0011741
0.00273231
0.00167736
0.00246636
0.00286857
0.00123219
0.00107496
0.00110285
0.000790656
0.000754769
0.00124906
0.0011624
0.00136685
0.000688897
0.000963064
0.00129809
0.00165513
0.000837119
0.00120746
0.00161608
0.00115327
0.00110662
0.00248098
0.00248067
0.00165599
0.000947062
0.0014799
0.00161252
0.000904175
0.00104747
0.00127765
0.00109584
0.00162064
0.000946931
0.00131804
0.000887491
0.0018052
0.000923469
0.00252911
0.0010327
0.00129978
0.00173249
0.00112682
0.00179049
0.00158362
0.000779546
0.00165976
0.00160396
0.00240245
0.00121076
0.001351
0.000872773
0.00105318
0.00188063
0.00144934
0.001535
0.00165775
0.000226063
0.00310179
0.00128334
0.00210541
0.00182257
0.00261465
0.00328573
0.00102295
0.00129455
0.00147415
0.00195892
0.00196969
0.00134634
0.00142558
0.00269066
0.000708131
0.000909353
0.00132481
0.00129529
0.00131134
0.00325072
0.0019516
0.00117944
0.00125804
0.00110772
0.00132732
0.0010779
0.00114509
0.00123567
0.00106824
0.00399633
0.00127685
0.000944439
0.0035018
0.000978532
0.00102406
0.0024003
0.00255276
0.00110153
0.000967353
0.00182802
0.00203228
0.00128596
0.00127469
0.00140422
0.00150571
0.00165296
0.000347818
0.00184711
0.00170587
0.00137276
0.00263
0.000595688
0.00211836
0.00160809
0.000862808
0.000825375
0.00237333
0.00203829
0.00203593
0.00116712
0.00548149
0.0016259
0.00104111
0.00179142
0.000904165
0.00132539
0.00254697
0.00183238
0.00133254
0.000997133
0.00182183
0.00269103
0.00268073
0.00102481
0.00177549
0.00160705
0.00139392
0.00190414
0.00182603
0.00135687
0.00781885
0.00187416
0.00117148
0.00194632
0.00178791
0.00115037
0.00266723
0.000926311
0.00132224
0.00114845
0.00105307
0.00103477
0.00161221
0.00262378
0.00140198
0.00139599
0.00108802
0.00139365
0.000857003
0.00113052
0.0017514
0.00122968
0.00100487
0.0023253
0.00123542
0.00192477
0.00177728
0.00162798
0.00248062
0.00195669
0.00194161
0.000985137
0.00284079
0.00105138
0.000905879
0.00143221
0.0012507
0.00122821
0.00118805
0.00171208
0.000846876
0.00130471
0.00164121
0.00128453
0.000901707
0.00116548
0.00106368
0.00114207
0.00275385
0.000882965
0.00184462
0.00135522
0.00175123
0.00199528
0.00137613
0.00166457
0.00104038
0.00325344
0.0025024
0.00131376
0.00143577
0.000785982
0.00154281
0.00126676
0.00133829
0.000985531
0.00235443
0.00102333
0.000772978
0.000766882
0.0019584
0.00135772
0.001942
0.00148622
0.0017067
0.000577605
0.0010692
0.00127575
0.00226972
0.0007084
0.0013341
0.00111181
0.00112045
0.00096657
0.00127439
0.00252574
0.000996306
0.00257122
0.00122363
0.00115433
0.00254284
0.0012693
0.00124599
0.000997256
0.00119841
0.000782441
0.0016915
0.00109151
0.000782866
0.00136522
0.00133306
0.0010679
0.00231905
0.00263222
0.000463618
0.00173848
0.00103501
0.0010473
0.00137094
0.0020183
0.000964441
0.00116124
0.0011529
0.000927928
0.00244692
0.00195327
0.00164432
0.000710453
0.0023272
0.00181616
0.00215431
0.00133306
0.00226543
0.00236899
0.00128295
0.00145492
0.00254985
0.00122769
0.00347539
0.000563827
0.00147668
0.00184409
0.00125387
0.00134096
0.000732453
0.000568148
0.00443423
0.00210184
0.00249373
0.00105919
0.00163467
0.00195843
0.00107688
0.00128901
0.00231115
0.00137241
0.0012395
0.00202347
0.00193372
0.000447169
0.000509508
0.000725402
0.00224132
0.00253411
0.00337653
0.00197936
0.000459319
0.00345492
0.000650252
0.00129158
0.00189833
0.00210983
0.00126507
0.00186295
0.00246015
0.00147672
0.00383388
0.00242821
0.00273379
0.00222206
0.00218392
0.000825001
0.00100801
0.00118284
0.000768517
0.00099464
0.00589918
0.000663197
0.00120146
0.00104592
0.0037177
0.00201575
0.000734021
0.000583979
0.00212377
0.00148919
0.00261333
0.000756355
0.00120206
0.00257461
0.00256808
0.000835041
0.00134374
0.000639352
0.00640721
0.00155373
0.00222675
0.00188245
0.00112726
0.0011227
0.00158142
0.00232505
0.00121247
0.00101191
0.000990385
0.00258808
0.00274139
0.00144077
0.00164393
0.00180371
0.00098884
0.0025493
0.0014698
0.00171254
0.000940339
0.00203751
0.00168633
0.00256924
0.0011959
0.0021123
0.00154879
0.00180828
0.00204849
0.00138802
0.00129018
0.00139912
0.00201417
0.00216465
0.00208351
0.0012614
0.000978196
0.00173488
0.00159984
0.00153314
0.00116328
0.00182596
0.0018039
0.0013352
0.00272965
0.00235975
0.0030492
0.000495121
0.0010734
0.00133101
0.00148718
0.00254694
0.000927449
0.00152916
0.0014244
0.00147421
0.00100629
0.00264613
0.00153355
0.00156143
0.0024178
0.0015111
0.00285281
0.00135735
0.00134421
0.00138931
0.00143775
0.00306279
0.001377
0.00096639
0.00158182
0.00156939
0.00157796
0.00150098
0.0017869
0.00135776
0.0024155
0.000539688
0.00247046
0.00200303
0.000932646
0.00191436
0.0016346
0.00258623
0.000956746
0.00231813
0.00289335
0.00228773
0.00144927
0.0012155
0.00143349
0.002568
0.00051116
0.00230158
0.000546151
0.000911826
0.00132514
0.00140912
0.00235166
0.00149981
0.00063717
0.00130817
0.000644176
0.00169691
0.00254523
0.00129932
0.00186965
0.00160309
0.000569236
0.00137378
0.00183866
0.000960892
0.000547263
0.00114099
0.00107038
0.00128269
0.00624987
0.00175471
0.00115601
0.00220243
0.0014837
0.00211722
0.00148129
0.00066539
0.001442
0.0024176
0.0012573
0.00255404
0.00486186
0.00177417
0.0024678
0.00156289
0.000526431
0.00193463
0.0020477
0.0018095
0.00257521
0.00248555
0.000667291
0.00160638
0.0024912
0.0024629
0.00170761
0.00131705
0.00166359
0.0016266
0.000979258
0.00218231
0.00104355
0.00200907
0.00208392
0.00269383
0.00110912
0.00110428
0.000822929
0.000836825
0.00121592
0.0030626
0.00123752
0.00257036
0.00211429
0.00105267
0.000233572
0.000940459
0.0011053
0.00204728
0.00158369
0.000398585
0.00111748
0.00123546
0.0011442
0.00077137
0.00115177
0.00104622
0.0010122
0.00178177
0.00182615
0.00192638
0.000522253
0.00152695
0.000679966
0.000992658
0.00141788
0.00128328
0.00430985
0.000957474
0.00154546
0.00103588
0.0027606
0.00199408
0.00102926
0.00192634
0.00276015
0.00142351
0.00105427
0.00093339
0.00133148
0.00191607
0.00117866
0.000849036
0.000694343
0.00256904
0.000752244
0.00136292
0.00208715
0.000810558
0.00137232
0.00209714
0.00132519
0.00130213
0.00134833
0.00148156
0.00139417
0.00184671
0.00120606
0.00139034
0.0010312
0.00253149
0.000415296
0.00138698
0.00136952
0.001087
0.00126214
0.00159806
0.000424539
0.00239253
0.00110259
0.00156775
0.000451766
0.0014128
0.00250957
0.00260561
0.00261513
0.00147133
0.00118809
0.00113519
0.00120559
0.002055
0.00130101
0.00143146
0.00222762
0.00159209
0.00189949
0.0012347
0.00138372
0.000939015
0.00252876
0.00126781
0.00144648
0.00169028
0.00230942
0.00109556
0.00171982
0.00094297
0.00105182
0.00273471
0.000625502
0.002813
0.00168099
0.00164872
0.0025563
0.000927932
0.000918216
0.00131211
0.00132326
0.000949995
0.000826342
0.00108762
0.00106565
0.000667708
0.000811853
0.00144396
0.00208095
0.0024562
0.00102442
0.00125577
0.00144223
0.00183537
0.00233975
0.00203873
0.00117841
0.00196105
0.00233496
0.00375671
0.00193156
0.0019673
0.0009626
0.00228531
0.000880726
0.000952548
0.00218194
0.00226446
0.0013746
0.00155879
0.00218757
0.000934577
0.000808694
0.0012325
0.00104284
0.000652995
0.00324996
0.00145335
0.00182572
0.00133673
0.0013688
0.000984889
0.00230146
0.00202545
0.00207798
0.00174444
0.00224047
0.00187793
0.00156372
0.00134583
0.00132343
0.00143338
0.00178389
0.00214859
0.00129889
0.00830433
0.00164435
0.00214273
0.00169737
0.00212413
0.00208535
0.000759124
0.00220317
0.000839196
0.00144689
0.00161649
0.00192542
0.00104353
0.00380735
0.00270156
0.00166652
0.00262039
0.00110326
0.00107622
0.00232
0.000976686
0.00105218
0.00233284
0.000962981
0.000517344
0.00206882
0.00131473
0.00112597
0.00113245
0.00103233
0.00144193
0.00172832
0.00388331
0.000967202
0.00192294
0.00189495
0.000873593
0.00113392
0.00276146
0.00304849
0.00155655
0.00114786
0.00175827
0.00175573
0.00142893
0.00187439
0.00219271
0.000983586
0.00142203
0.00151501
0.00270817
0.0010171
0.00156571
0.000974806
0.00207837
0.000335148
0.00343395
0.000970497
0.00339156
0.00135185
0.00101455
0.001019
0.00261834
0.00154469
0.00131231
0.00205102
0.00205844
0.00180452
0.000961737
0.00222817
0.000843581
0.000384259
0.000849563
0.000990509
0.00284206
0.00112698
0.00107611
0.000901591
0.0015237
0.00128516
0.00248401
0.00104785
0.00222056
0.0013331
0.00197222
0.00204353
0.00259252
0.00263941
0.000953453
0.00131346
0.00151213
0.00230303
0.00146057
0.001048
0.00126672
0.00127308
0.00231613
0.00847458
0.000941332
0.00132329
0.00186835
0.000930994
0.00155755
0.00246794
0.00128006
0.00126735
0.0015741
0.00156272
0.00154479
0.0048265
0.00125278
0.000566095
0.000963698
0.00321373
0.00120783
0.00134141
0.00176463
0.00098487
0.00121521
0.00208544
0.00237957
0.00242954
0.00190919
0.00175141
0.00234656
0.00180381
0.00171127
0.00179469
0.000893236
0.00085043
0.00110749
0.00108567
0.00200464
0.00222757
0.00202681
0.00274176
0.00102799
0.000764186
0.00137207
0.00213758
0.000891695
0.000886241
0.00217613
0.000375626
0.00143655
0.00151855
0.00155707
0.00284664
0.00225064
0.000986679
0.00261839
0.00204371
0.000904011
0.000891247
0.0024545
0.00211816
0.00112635
0.00195426
0.00223972
0.00317785
0.000746938
0.00137675
0.00192391
0.00107038
0.00102105
0.000872457
0.0012627
0.00367647
0.00136538
0.00102993
0.00147024
0.000920719
0.00178907
0.00102209
0.00196475
0.00987278
0.00108584
0.00109618
0.000913916
0.00249087
0.00130288
0.00241739
0.00214813
0.00224125
0.000938086
0.00103057
0.000663471
0.00117908
0.00135324
0.000651941
0.00153271
0.00214733
0.00209612
0.000792439
0.000871938
0.00189047
0.000594559
0.000735272
0.00252345
0.00152464
0.00135198
0.000484791
0.00104113
0.00110826
0.000335131
0.00226153
0.00113839
0.00138734
0.00234806
0.000857016
0.00114178
0.00126451
0.00241075
0.00253987
0.00253666
0.00267068
0.00105125
0.00234376
0.000892483
0.00149812
0.000619505
0.00198698
0.00146797
0.00209196
0.00182005
0.00183808
0.00117972
0.00105818
0.00177288
0.00138013
0.0015171
0.00149713
0.00110218
0.00160521
0.000831208
0.00130344
0.000960541
0.00172327
0.000813339
0.000768092
0.00186318
0.00140203
0.00143566
0.0019355
0.00213798
0.00193791
0.002533
0.0012686
0.00127184
0.00252488
0.00143445
0.00148824
0.00221282
0.000967583
0.00100953
0.00259296
0.000483418
0.00056985
0.0021733
0.00206671
0.00127029
0.00139771
0.00102502
0.00114786
0.00080234
0.00187296
0.00114832
0.00115275
0.000390823
0.000650363
0.00122733
0.00122281
0.000942966
0.00115704
0.00201147
0.00127009
0.00149443
0.00190044
0.00141526
0.000974947
0.00125164
0.00102871
0.000978122
0.00112118
0.000952122
0.000449828
0.000805168
0.00086928
0.00124755
0.0107511
0.00139341
0.00149071
0.0024618
0.00155601
0.00242043
0.00262883
0.00147302
0.0014199
0.00106692
0.000992431
0.001215
0.000457548
0.000435102
0.00134009
0.000539986
0.000914377
0.00105173
0.000797025
0.00120797
0.00130093
0.00440421
0.00133939
0.0098306
0.00232936
0.00213268
0.00226336
0.0010392
0.00102075
0.00101894
0.00149503
0.00120619
0.000769702
0.00134728
0.00243042
0.00221686
0.00259197
0.00230833
0.00167273
0.00207359
0.00213401
0.00263878
0.00118506
0.00122115
0.00197418
0.00102449
0.00115824
0.00242525
0.00132898
0.00121316
0.00122832
0.00117323
0.000938777
0.000976198
0.000968609
0.00146847
0.00134505
0.0114624
0.00199964
0.00206103
0.00245963
0.00170571
0.000686058
0.00069154
0.00141768
0.00238153
0.00116877
0.00182598
0.00151111
0.00130739
0.00160255
0.00162187
0.0102193
0.00123599
0.00204743
0.000964154
0.00125067
0.000954837
0.000465295
0.00092232
0.0014271
0.00116274
0.00257773
0.00202633
0.00070457
0.0120276
0.00122484
0.0022254
0.000964982
0.000967857
0.00131074
0.00142479
0.00145005
0.00187552
0.00168318
0.000937052
0.00130915
0.0011416
0.00269581
0.00498191
0.00118425
0.000658864
0.00222175
0.00226129
0.00210761
0.00123806
0.00168711
0.00167561
0.000790623
0.00121003
0.00181986
0.00160088
0.00227633
0.00164812
0.000607956
0.0013542
0.000919054
0.000917191
0.00267112
0.010005
0.000957315
0.0010005
0.00110317
0.000481456
0.0010138
0.00102072
0.00173954
0.0010685
0.00123738
0.0011498
0.00101905
0.00241886
0.00241641
0.00149874
0.000556679
0.000381316
0.00157664
0.000505124
0.00218084
0.00211961
0.00208573
0.00125727
0.00131937
0.00101859
0.00102425
0.00249108
0.00148119
0.00116929
0.00136793
0.00145829
0.0113027
0.000534389
0.00123786
0.0006901
0.00155255
0.00120395
0.00284843
0.00152561
0.00181356
0.00127573
0.00170012
0.00170489
0.0012699
0.000649436
0.00132614
0.000543503
0.00118574
0.00119965
0.00244293
0.00223494
0.000995839
0.0019974
0.00237612
0.00222345
0.00266659
0.00151443
0.00149252
0.000905276
0.000901387
0.00132373
0.001325
0.000928081
0.00250646
0.00200485
0.00109525
0.00114305
0.00227018
0.00124458
0.00239716
0.00110373
0.00122321
0.00244058
0.00153224
0.00151682
0.00238334
0.00185726
0.00160707
0.0017186
0.0023173
0.00185201
0.000392845
0.00166746
0.00272912
0.00141321
0.00141334
0.00112489
0.00115673
0.00170904
0.00272121
0.00127717
0.00203362
0.00174354
0.00233317
0.00091248
0.00133064
0.00129995
0.0019097
0.00168851
0.00172386
0.00130327
0.00275207
0.0018672
0.00101993
0.00205098
0.000735756
0.000705825
0.0014961
0.00149902
0.00234086
0.00232734
0.00244354
0.0013182
0.00159578
0.0023905
0.00167112
0.000876217
0.00154399
0.000619146
0.000977257
0.00234198
0.00141169
0.00130834
0.000795556
0.0018926
0.00250906
0.000421092
0.00125373
0.000898022
0.000850703
0.0024108
0.00149559
0.00134097
0.0022795
0.00098922
0.00170972
0.00148084
0.00136321
0.0011794
0.00259015
0.00186869
0.00108619
0.00185396
0.000856534
0.00173817
0.00148628
0.00156078
0.00154756
0.0026013
0.00187816
0.00104537
0.00103521
0.00111979
0.00239847
0.0025556
0.00200132
0.00132457
0.00132225
0.00246034
0.00240639
0.00180932
0.00109768
0.00130672
0.00216373
0.00197253
0.00233908
0.00201008
0.00130248
0.00197748
0.00258493
0.00254312
0.00198605
0.0015066
0.00150611
0.00148495
0.00254884
0.0011611
0.00114509
0.00113729
0.00108885
0.00152629
0.00147462
0.00204176
0.000975812
0.000933494
0.0019976
0.00267531
0.00107495
0.001097
0.00197953
0.00152242
0.00141186
0.000873229
0.000843684
0.000983667
0.00249367
0.00113958
0.00100739
0.000977344
0.00139375
0.00242977
0.00240677
0.0010525
0.00104067
0.00149473
0.00144811
0.00133939
0.00187062
0.00134529
0.00226091
0.00111941
0.00113018
0.00226401
0.00105146
0.00151033
0.00187671
0.00217912
0.00187046
0.00263636
0.00110033
0.00255351
0.0017291
0.00134546
0.00235517
0.000951605
0.000940658
0.00101125
0.00183985
0.00116825
0.00117805
0.00222271
0.00120125
0.00216058
0.00147984
0.00146456
0.00143311
0.00142654
0.00224872
0.00108826
0.00212007
0.000793601
0.00078802
0.00163492
0.00141756
0.000612542
0.00116547
0.00108024
0.000960424
0.00273778
0.00113441
0.000524142
0.00113545
0.00115876
0.00161766
0.00100037
0.00121447
0.000933994
0.000613696
0.000527335
0.000473706
0.000433177
0.00112238
0.000459106
0.00108628
0.00173575
0.00131981
0.00135919
0.00134571
0.00269851
0.00211351
0.00218701
0.00250658
0.00221935
0.00239949
0.000929247
0.00132412
0.00260963
0.000341205
0.00200225
0.00113902
0.00107647
0.00144981
0.00146808
0.000981349
0.00100482
0.00171614
0.00118232
0.00105454
0.00134302
0.0018501
0.00184893
0.00262985
0.00277857
0.00193745
0.00139081
0.00460562
0.000970147
0.000980595
0.00220903
0.000797862
0.00250396
0.00136264
0.00239886
0.00140355
0.00152109
0.00105454
0.0024254
0.000911137
0.00135511
0.000840159
0.00110172
0.00165596
0.00169038
0.00232501
0.00103444
0.00103885
0.000895366
0.00148405
0.00150558
0.00131448
0.000894219
0.00240919
0.00138793
0.000845759
0.000928341
0.00159641
0.00223739
0.0024556
0.00259605
0.00112524
0.00245693
0.00257744
0.00196709
0.0013217
0.00130737
0.00130241
0.00130535
0.00175532
0.00235088
0.00134598
0.00115156
0.00147589
0.00142963
0.000379297
0.00207947
0.00210371
0.00161507
0.00110283
0.00167837
0.00140469
0.000882551
0.00170622
0.00116469
0.00138932
0.00150656
0.0019095
0.00229825
0.00141303
0.00144332
0.00139647
0.0021363
0.0034068
0.0018603
0.00244653
0.00367658
0.00254159
0.0010699
0.00238317
0.001177
0.000935993
0.00168831
0.00108365
0.00110018
0.00101432
0.0014268
0.00146043
0.00248008
0.00149819
0.00215897
0.00137463
0.00162461
0.00159087
0.00253696
0.00107648
0.00205018
0.000780474
0.00105621
0.00152778
0.0024715
0.000758185
0.00211961
0.00123906
0.000978751
0.00103284
0.00104498
0.000997692
0.00204629
0.00138249
0.00194578
0.001472
0.00194852
0.00137944
0.00396493
0.00262494
0.00184056
0.00104021
0.00143722
0.00265715
0.00171171
0.00390871
0.00118403
0.0015814
0.00133465
0.000942799
0.000838641
0.00102304
0.00118581
0.00146843
0.00132243
0.00137157
0.00136201
0.00123964
0.00129459
0.00140009
0.00158415
0.00155696
0.00174642
0.000469507
0.0010293
0.00238823
0.00155052
0.00109244
0.000876125
0.000864011
0.00111898
0.00112323
0.00136248
0.00144411
0.0025197
0.0018528
0.00159824
0.00107781
0.00144955
0.00107069
0.00256131
0.00252094
0.000736085
0.000737263
0.000985062
0.00132738
0.00102167
0.0014578
0.00110743
0.00111372
0.00167717
0.00180771
0.000911497
0.00213224
0.00135559
0.00142188
0.00115909
0.00163869
0.00139126
0.00206238
0.00206968
0.00216205
0.00154557
0.00173349
0.00230865
0.00239164
0.00110269
0.00107909
0.00122778
0.00130558
0.00140583
0.00110265
0.000967672
0.000893333
0.00124835
0.000806507
0.00145704
0.00233397
0.00136999
0.00160574
0.00159452
0.00163351
0.00166957
0.0011031
0.00154079
0.00119103
0.00117782
0.00130417
0.00219147
0.00169223
0.00164219
0.000572182
0.00220613
0.0020752
0.00212816
0.00175828
0.00137573
0.00091544
0.0013245
0.00132227
0.000924682
0.00175483
0.00141579
0.000981131
0.000982662
0.00112716
0.00169398
0.00170095
0.00254661
0.00253859
0.00171805
0.00176754
0.00171991
0.00158489
0.0015791
0.00180426
0.00231595
0.00233919
0.0013574
0.00134217
0.00153344
0.00163704
0.00162772
0.00183815
0.00103282
0.000801775
0.000802842
0.00262084
0.00257463
0.00165508
0.00163589
0.00170184
0.00167369
0.000954242
)
;

boundaryField
{
    back
    {
        type            empty;
    }
    front
    {
        type            empty;
    }
    down
    {
        type            symmetry;
    }
    right
    {
        type            calculated;
        value           nonuniform List<scalar> 
20
(
0.0009532
0.00129378
0.00126447
0.000919782
0.00131966
0.00116905
0.00106338
0.0010322
0.000910774
0.00132361
0.000978741
0.00093647
0.00130696
0.00123926
0.00121201
0.000903732
0.00132424
0.00110445
0.00114148
0.00100419
)
;
    }
    up
    {
        type            calculated;
        value           nonuniform List<scalar> 
40
(
0.00138417
0.00239396
0.00254167
0.00269828
0.00132414
0.00167472
0.00201974
0.00161352
0.00239574
0.00182574
0.0027546
0.00126544
0.00204323
0.00266653
0.00152117
0.00227291
0.00144477
0.00256353
0.00219603
0.00135095
0.00274188
0.00173149
0.0015613
0.00199719
0.00259623
0.00246851
0.00132318
0.00106309
0.00275526
0.00166933
0.00188715
0.00146741
0.000970878
0.00134201
0.00263711
0.00221114
0.00212308
0.00141781
0.00269955
0.00132465
)
;
    }
    left
    {
        type            symmetry;
    }
    hole
    {
        type            calculated;
        value           nonuniform List<scalar> 
16
(
0.00166664
0.000664152
0.0172272
0.0107646
0.00195785
0.000256541
0.000985556
0.00181799
0.000165484
0.00231446
0.00150671
0.000672317
0.00145952
0.00193402
0.00308092
0.0115557
)
;
    }
}


// ************************************************************************* //
