/*--------------------------------*- C++ -*----------------------------------*\
| =========                 |                                                 |
| \\      /  F ield         | OpenFOAM: The Open Source CFD Toolbox           |
|  \\    /   O peration     | Version:  v2012                                 |
|   \\  /    A nd           | Website:  www.openfoam.com                      |
|    \\/     M anipulation  |                                                 |
\*---------------------------------------------------------------------------*/
FoamFile
{
    version     2.0;
    format      ascii;
    class       pointVectorField;
    location    "11";
    object      pointD;
}
// * * * * * * * * * * * * * * * * * * * * * * * * * * * * * * * * * * * * * //

dimensions      [0 1 0 0 0 0 0];


internalField   nonuniform List<vector> 
2014
(
(0.003728 0 6.72999e-21)
(0.00498322 0 -7.0563e-22)
(0.00458558 -0.000378328 7.65089e-21)
(0 -0.00284371 1.53629e-21)
(0 -0.00151846 0)
(0.003728 0 6.72999e-21)
(0.00498322 0 -7.0563e-22)
(0.00458558 -0.000378328 7.65089e-21)
(0 -0.00284371 1.53629e-21)
(0 -0.00151846 0)
(0.00376406 0 0)
(0.00378843 0 0)
(0.00380397 0 0)
(0.00381768 0 0)
(0.00382942 0 0)
(0.00384325 0 0)
(0.00385904 0 0)
(0.00387571 0 0)
(0.00389836 0 0)
(0.00392734 0 0)
(0.00395665 0 0)
(0.00398786 0 0)
(0.00402343 0 0)
(0.00406271 0 0)
(0.0041044 0 0)
(0.0041485 0 0)
(0.00420059 0 0)
(0.00425384 0 0)
(0.00430405 0 0)
(0.00435931 0 0)
(0.00441619 0 0)
(0.00447797 0 0)
(0.00454593 0 0)
(0.00460902 0 0)
(0.0046687 0 0)
(0.00473224 0 0)
(0.00480493 0 0)
(0.00487417 0 0)
(0.00493436 0 0)
(0.00499942 -2.12556e-06 2.44616e-21)
(0.00499368 -4.85358e-06 3.15179e-21)
(0.0049842 -8.33818e-06 -1.41194e-21)
(0.00497122 -1.29518e-05 -1.21719e-22)
(0.00495414 -1.88914e-05 9.11292e-24)
(0.00493445 -2.71792e-05 -1.87945e-21)
(0.00491394 -3.68011e-05 -3.44651e-21)
(0.00489103 -4.88727e-05 -1.92481e-23)
(0.00486357 -6.57297e-05 -6.809e-22)
(0.00483531 -8.50686e-05 -5.97308e-21)
(0.00480985 -0.000104362 4.07126e-22)
(0.00478134 -0.000128781 6.27154e-21)
(0.00475315 -0.000156287 1.93643e-21)
(0.00472886 -0.000182767 1.16125e-21)
(0.0047035 -0.000213978 1.12315e-20)
(0.00467955 -0.000247896 9.44151e-21)
(0.00465908 -0.000280342 7.65724e-21)
(0.0046403 -0.000313042 9.63103e-21)
(0.00462234 -0.000346693 8.24182e-21)
(0.00452188 -0.000401158 2.21882e-21)
(0.00444918 -0.000417379 9.17691e-22)
(0.0043712 -0.000433604 -6.47792e-22)
(0.00429546 -0.000447784 -1.56548e-21)
(0.00421655 -0.000460069 -9.06489e-22)
(0.00413168 -0.000470826 -2.28135e-22)
(0.00405219 -0.00047926 1.46854e-21)
(0.00396045 -0.000487192 1.09894e-21)
(0.00386627 -0.000494011 -1.90631e-22)
(0.0037794 -0.000499421 -1.88764e-21)
(0.0036864 -0.000504572 -1.72687e-21)
(0.00359241 -0.000509964 2.53044e-21)
(0.00348364 -0.000517315 2.17489e-21)
(0.00337235 -0.000525607 -1.67335e-21)
(0.00325783 -0.000535888 -2.69939e-21)
(0.00313971 -0.000549819 -1.7202e-21)
(0.00302351 -0.000566182 1.13143e-21)
(0.00290034 -0.000585956 3.22028e-21)
(0.00277547 -0.000610877 -1.49382e-21)
(0.00262123 -0.000647735 -1.07931e-20)
(0.00246362 -0.000691531 -4.70095e-21)
(0.00231895 -0.000738961 3.44277e-21)
(0.00216553 -0.00079585 9.33269e-22)
(0.00200958 -0.000862145 -2.18432e-21)
(0.00185072 -0.000939709 -5.17968e-21)
(0.00169061 -0.00102688 -1.52236e-21)
(0.00152284 -0.00112906 -3.43195e-21)
(0.00134787 -0.0012471 -2.41152e-21)
(0.00117596 -0.00137662 2.49344e-21)
(0.00101052 -0.00151737 -5.86087e-22)
(0.000852829 -0.00166578 6.70056e-21)
(0.000694985 -0.00183216 1.39493e-20)
(0.000546667 -0.00200706 3.78891e-21)
(0.000417683 -0.00217812 -6.29241e-21)
(0.00029874 -0.00235993 -8.79419e-21)
(0.000205023 -0.00252431 3.50561e-21)
(0.000136451 -0.00265422 -2.17641e-21)
(8.27971e-05 -0.00275494 -1.18893e-20)
(3.58259e-05 -0.00281932 7.04571e-22)
(0 -0.00282438 0)
(0 -0.00278603 0)
(0 -0.00275162 0)
(0 -0.00271598 0)
(0 -0.00267372 0)
(0 -0.00261666 0)
(0 -0.00249475 0)
(0 -0.0022351 0)
(0 -0.00188325 0)
(0.000641018 -0.00142807 -1.93163e-20)
(0.00118505 -0.00159818 -1.7479e-21)
(0.00162852 -0.0017565 2.267e-20)
(0.00198028 -0.00178615 5.24936e-21)
(0.00224743 -0.00166278 -4.80012e-21)
(0.00247419 -0.00151514 1.57345e-21)
(0.00270629 -0.00134654 6.7432e-21)
(0.00292428 -0.00118302 -1.66926e-21)
(0.00309732 -0.00103857 -1.89115e-21)
(0.00324825 -0.00089401 -1.00066e-20)
(0.00338097 -0.000751874 -5.14667e-21)
(0.0034987 -0.000592778 2.19281e-21)
(0.00359674 -0.00043604 -4.70287e-21)
(0.00366117 -0.000295731 -2.0928e-21)
(0.00369632 -0.000157148 6.6605e-21)
(0.00376406 0 0)
(0.00378843 0 0)
(0.00380397 0 0)
(0.00381768 0 0)
(0.00382942 0 0)
(0.00384325 0 0)
(0.00385904 0 0)
(0.00387571 0 0)
(0.00389836 0 0)
(0.00392734 0 0)
(0.00395665 0 0)
(0.00398786 0 0)
(0.00402343 0 0)
(0.00406271 0 0)
(0.0041044 0 0)
(0.0041485 0 0)
(0.00420059 0 0)
(0.00425384 0 0)
(0.00430405 0 0)
(0.00435931 0 0)
(0.00441619 0 0)
(0.00447797 0 0)
(0.00454593 0 0)
(0.00460902 0 0)
(0.0046687 0 0)
(0.00473224 0 0)
(0.00480493 0 0)
(0.00487417 0 0)
(0.00493436 0 0)
(0.00499942 -2.12556e-06 2.44616e-21)
(0.00499368 -4.85358e-06 3.15179e-21)
(0.0049842 -8.33818e-06 -1.41194e-21)
(0.00497122 -1.29518e-05 -1.21719e-22)
(0.00495414 -1.88914e-05 9.11292e-24)
(0.00493445 -2.71792e-05 -1.87945e-21)
(0.00491394 -3.68011e-05 -3.44651e-21)
(0.00489103 -4.88727e-05 -1.92481e-23)
(0.00486357 -6.57297e-05 -6.809e-22)
(0.00483531 -8.50686e-05 -5.97308e-21)
(0.00480985 -0.000104362 4.07126e-22)
(0.00478134 -0.000128781 6.27154e-21)
(0.00475315 -0.000156287 1.93643e-21)
(0.00472886 -0.000182767 1.16125e-21)
(0.0047035 -0.000213978 1.12315e-20)
(0.00467955 -0.000247896 9.44151e-21)
(0.00465908 -0.000280342 7.65724e-21)
(0.0046403 -0.000313042 9.63103e-21)
(0.00462234 -0.000346693 8.24182e-21)
(0.00452188 -0.000401158 2.21882e-21)
(0.00444918 -0.000417379 9.17691e-22)
(0.0043712 -0.000433604 -6.47792e-22)
(0.00429546 -0.000447784 -1.56548e-21)
(0.00421655 -0.000460069 -9.06489e-22)
(0.00413168 -0.000470826 -2.28135e-22)
(0.00405219 -0.00047926 1.46854e-21)
(0.00396045 -0.000487192 1.09894e-21)
(0.00386627 -0.000494011 -1.90631e-22)
(0.0037794 -0.000499421 -1.88764e-21)
(0.0036864 -0.000504572 -1.72687e-21)
(0.00359241 -0.000509964 2.53044e-21)
(0.00348364 -0.000517315 2.17489e-21)
(0.00337235 -0.000525607 -1.67335e-21)
(0.00325783 -0.000535888 -2.69939e-21)
(0.00313971 -0.000549819 -1.7202e-21)
(0.00302351 -0.000566182 1.13143e-21)
(0.00290034 -0.000585956 3.22028e-21)
(0.00277547 -0.000610877 -1.49382e-21)
(0.00262123 -0.000647735 -1.07931e-20)
(0.00246362 -0.000691531 -4.70095e-21)
(0.00231895 -0.000738961 3.44277e-21)
(0.00216553 -0.00079585 9.33269e-22)
(0.00200958 -0.000862145 -2.18432e-21)
(0.00185072 -0.000939709 -5.17968e-21)
(0.00169061 -0.00102688 -1.52236e-21)
(0.00152284 -0.00112906 -3.43195e-21)
(0.00134787 -0.0012471 -2.41152e-21)
(0.00117596 -0.00137662 2.49344e-21)
(0.00101052 -0.00151737 -5.86087e-22)
(0.000852829 -0.00166578 6.70056e-21)
(0.000694985 -0.00183216 1.39493e-20)
(0.000546667 -0.00200706 3.78891e-21)
(0.000417683 -0.00217812 -6.29241e-21)
(0.00029874 -0.00235993 -8.79419e-21)
(0.000205023 -0.00252431 3.50561e-21)
(0.000136451 -0.00265422 -2.17641e-21)
(8.27971e-05 -0.00275494 -1.18893e-20)
(3.58259e-05 -0.00281932 7.04571e-22)
(0 -0.00282438 0)
(0 -0.00278603 0)
(0 -0.00275162 0)
(0 -0.00271598 0)
(0 -0.00267372 0)
(0 -0.00261666 0)
(0 -0.00249475 0)
(0 -0.0022351 0)
(0 -0.00188325 0)
(0.000641018 -0.00142807 -1.93163e-20)
(0.00118505 -0.00159818 -1.7479e-21)
(0.00162852 -0.0017565 2.267e-20)
(0.00198028 -0.00178615 5.24936e-21)
(0.00224743 -0.00166278 -4.80012e-21)
(0.00247419 -0.00151514 1.57345e-21)
(0.00270629 -0.00134654 6.7432e-21)
(0.00292428 -0.00118302 -1.66926e-21)
(0.00309732 -0.00103857 -1.89115e-21)
(0.00324825 -0.00089401 -1.00066e-20)
(0.00338097 -0.000751874 -5.14667e-21)
(0.0034987 -0.000592778 2.19281e-21)
(0.00359674 -0.00043604 -4.70287e-21)
(0.00366117 -0.000295731 -2.0928e-21)
(0.00369632 -0.000157148 6.6605e-21)
(0.00314383 -0.000238356 0)
(0.00405878 -0.00015844 0)
(0.00208109 -0.000902181 0)
(0.00341718 -0.00024664 0)
(0.0038491 -6.55939e-05 0)
(0.00425983 -0.000273103 0)
(0.00452025 -8.40215e-05 0)
(0.00112482 -0.00185181 0)
(0.00350332 -0.000159103 0)
(0.00244665 -0.000563987 0)
(0.00373604 -0.000307107 0)
(0.00418247 -5.90715e-05 0)
(0.00374004 -4.86588e-05 0)
(0.00284786 -0.000545193 0)
(0.00451169 -0.000154432 0)
(0.00286964 -0.000410166 0)
(0.00345021 -0.000155552 0)
(0.00379323 -0.000141138 0)
(0.00136742 -0.00143154 0)
(0.00190349 -0.00128709 0)
(0.0033561 -0.000370089 0)
(0.00397332 -0.000356921 0)
(0.00184678 -0.000946684 0)
(0.00271711 -0.000470137 0)
(0.00474695 -3.91152e-05 0)
(0.00440193 -0.000321344 0)
(0.00441716 -4.30898e-05 0)
(0.0040628 -2.79283e-05 0)
(0.00404036 -0.000250748 0)
(0.000454758 -0.00247394 0)
(0.00434384 -0.00013792 0)
(0.0030898 -0.000273478 0)
(0.00392801 -2.17925e-05 0)
(0.000914096 -0.00217219 0)
(0.0037535 -4.75417e-05 0)
(0.00469761 -8.73732e-05 0)
(0.00452141 -0.000213479 0)
(0.00345333 -0.000132038 0)
(0.00367273 -0.000149734 0)
(0.00431202 -8.91936e-05 0)
(0.00333756 -0.000350885 0)
(0.00367156 -0.000227227 0)
(0.00312471 -0.000283268 0)
(0.00403765 -0.000102196 0)
(0.00246552 -0.000581013 0)
(0.000852399 -0.0019523 0)
(0.0036503 -8.21545e-05 0)
(0.00303655 -0.000436675 0)
(0.00415743 -0.000379386 0)
(0.00253944 -0.000922977 0)
(0.00458784 -3.42944e-05 0)
(0.00427661 -0.000202402 0)
(0.00357566 -0.000397076 0)
(0.00420276 -2.62773e-05 0)
(0.00231489 -0.000669147 0)
(0.00279067 -0.000391118 0)
(0.00207502 -0.000777767 0)
(0.00157542 -0.00139611 0)
(0.0040128 -6.26589e-05 0)
(0.00158024 -0.00170263 0)
(0.00387269 -1.82093e-05 0)
(0.00390511 -0.000208512 0)
(0.00355806 -0.000166212 0)
(0.00237265 -0.000796474 0)
(0.00276515 -0.000413827 0)
(0.00142766 -0.00126072 0)
(0.00342527 -0.000139944 0)
(0.00314392 -0.000297624 0)
(0.00378374 -0.000412432 0)
(0.000441362 -0.00248163 0)
(0.00468042 -0.000118849 0)
(0.00298229 -0.000653672 0)
(0.00266602 -0.000540575 0)
(0.004332 -2.68016e-05 0)
(0.00448453 -0.000121873 0)
(0.00482811 -4.66689e-05 0)
(0.00453186 -0.000253825 0)
(0.00181356 -0.00104511 0)
(0.00368383 -0.000110387 0)
(0.00376992 -5.60167e-05 0)
(0.00323974 -0.000333566 0)
(0.00385115 -9.35318e-05 0)
(0.00402739 -1.43004e-05 0)
(0.00383376 -4.50544e-05 0)
(0.00487005 -1.49621e-05 0)
(0.00448647 -0.000353765 0)
(0.00357151 -0.000298674 0)
(0.00439568 -0.000205041 0)
(0.00415558 -0.000112918 0)
(0.00334566 -0.000211414 0)
(0.0038949 -0.000163346 0)
(0.00465405 -0.00015558 0)
(0.00360479 -9.26094e-05 0)
(0.00391627 -0.000305792 0)
(0.000999054 -0.00169097 0)
(0.00315074 -0.000349041 0)
(0.00467481 -6.69902e-05 0)
(0.00439172 -0.000274523 0)
(0.00408943 -0.000296176 0)
(0.00414242 -0.000191819 0)
(0.00226333 -0.00126146 0)
(0.000540855 -0.00229181 0)
(0.00393099 -4.14717e-05 0)
(0.000165636 -0.00272601 0)
(0.00321241 -0.000460015 0)
(0.00119472 -0.00167668 0)
(0.00151942 -0.00157283 0)
(0.00300575 -0.000309653 0)
(0.00263979 -0.000573211 0)
(0.00357969 -9.18753e-05 0)
(0.00400571 -0.000412359 0)
(0.00200963 -0.00106661 0)
(0.004276 -0.000390829 0)
(0.00329359 -0.000191514 0)
(0.00384193 -1.86424e-05 0)
(0.00451855 -5.39682e-05 0)
(0.00353606 -0.000317989 0)
(0.00469957 -2.12973e-05 0)
(0.00449585 -2.26962e-05 0)
(0.00429179 -6.24969e-05 0)
(0.00176631 -0.000971977 0)
(0.00414086 -1.50651e-05 0)
(0.00216555 -0.000733705 0)
(0.000799483 -0.00211312 0)
(0.000801815 -0.002124 0)
(0.00439628 -9.97715e-05 0)
(0.00338494 -0.000453404 0)
(0.00242004 -0.000655848 0)
(0.000817927 -0.00217007 0)
(0.00412649 -4.23154e-05 0)
(0.00302615 -0.000286161 0)
(0.00358808 -0.000205077 0)
(0.00425146 -0.00032002 0)
(0.00373361 -0.000129386 0)
(0.00439311 -0.000162877 0)
(0.00353275 -0.000203795 0)
(0.00367475 -8.90112e-05 0)
(0.003945 -9.11021e-06 0)
(0.00337814 -0.000175771 0)
(0.00324662 -0.000207343 0)
(0.00420069 -0.000143656 0)
(0.000241967 -0.00264258 0)
(0.00143154 -0.0019327 0)
(0.00217475 -0.000742384 0)
(0.00462266 -5.26636e-05 0)
(0.0034353 -0.000287514 0)
(0.0048708 -2.79485e-05 0)
(0.00454471 -0.000294036 0)
(0.0041965 -8.54673e-05 0)
(0.00377248 -3.88997e-05 0)
(0.00378853 -0.000350391 0)
(0.00383255 -3.30811e-05 0)
(0.00179861 -0.0011383 0)
(0.00123637 -0.00186613 0)
(0.00294801 -0.000349401 0)
(0.00283482 -0.000522096 0)
(0.0047876 -7.87955e-05 0)
(0.0042569 -3.98684e-05 0)
(0.000449551 -0.00245543 0)
(0.00305542 -0.000373444 0)
(0.00417576 -0.000240517 0)
(0.00257281 -0.000515505 0)
(0.00202419 -0.000855316 0)
(0.00463847 -0.000193759 0)
(0.00293875 -0.000416831 0)
(0.00411092 -0.000339432 0)
(0.00440077 -6.89523e-05 0)
(0.0038848 -0.000260117 0)
(0.00382164 -2.32526e-05 0)
(0.0023269 -0.000632731 0)
(0.00460335 -0.000118528 0)
(0.00267014 -0.000475045 0)
(0.00376774 -7.12982e-05 0)
(0.00452402 -0.000183221 0)
(0.0037569 -0.000251631 0)
(0.00408667 -7.39583e-05 0)
(0.00226084 -0.000991555 0)
(0.00359291 -0.000110146 0)
(0.00328971 -0.000532051 0)
(0.00459803 -9.58586e-05 0)
(0.00362836 -7.70367e-05 0)
(0.00243929 -0.000634741 0)
(0.00351762 -0.00035693 0)
(0.00401599 -0.000135425 0)
(0.00338024 -0.000152342 0)
(0.00372056 -5.82523e-05 0)
(0.00364384 -0.000451223 0)
(0.00373762 -0.000181649 0)
(0.00280883 -0.000911857 0)
(0.00307959 -0.00047733 0)
(0.00266274 -0.000451957 0)
(0.00427466 -1.43849e-05 0)
(0.00194458 -0.00158094 0)
(0.00388253 -0.000436347 0)
(0.00391529 -0.000116893 0)
(0.00112569 -0.00150129 0)
(0.00287874 -0.000453162 0)
(0.000701735 -0.00201245 0)
(0.000310342 -0.00256202 0)
(0.00152336 -0.00114915 0)
(0.00300329 -0.000505056 0)
(0.00370419 -0.000131454 0)
(0.00260462 -0.000737065 0)
(0.00373398 -7.7778e-05 0)
(0.00441569 -1.64966e-05 0)
(0.00401677 -0.000209467 0)
(0.0043898 -0.000238256 0)
(0.00411101 -0.000427655 0)
(0.0032047 -0.000387482 0)
(0.00426609 -0.000171377 0)
(0.0048281 -5.76999e-05 0)
(0.00255221 -0.000514218 0)
(0.00394788 -5.50063e-05 0)
(0.00429292 -0.000115257 0)
(0.00281366 -0.000391398 0)
(0.00462879 -1.61602e-05 0)
(0.00154467 -0.00122531 0)
(0.00291198 -0.000340728 0)
(0.00397967 -8.73274e-05 0)
(0.00431606 -0.000226735 0)
(0.00191387 -0.000878998 0)
(0.00399839 -8.1955e-06 0)
(0.0028572 -0.000408721 0)
(0.00246555 -0.000559237 0)
(0.00115885 -0.00164041 0)
(0.00428727 -0.000349477 0)
(0.00398596 -2.32321e-05 0)
(0.00335973 -0.000256742 0)
(0.00419439 -1.16413e-05 0)
(0.00438091 -0.000389328 0)
(0.00213468 -0.000824488 0)
(0.0023325 -0.000762806 0)
(0.00367189 -0.000343978 0)
(0.00449122 -3.96673e-05 0)
(0.00198732 -0.000834427 0)
(0.00184959 -0.00143743 0)
(0.000513931 -0.00242775 0)
(0.00349005 -0.000461953 0)
(0.00407842 -9.9904e-06 0)
(0.00480362 -1.29723e-05 0)
(0.00380205 -0.000203984 0)
(0.00323776 -0.000303775 0)
(0.00149907 -0.0013623 0)
(0.00435161 -3.9688e-05 0)
(0.00296905 -0.00031092 0)
(0.00352593 -0.000252096 0)
(0.00473127 -0.000121637 0)
(0.00252364 -0.00116873 0)
(0.00170284 -0.00138718 0)
(0.00137621 -0.00161216 0)
(0.00327263 -0.00021492 0)
(0.00364663 -0.00026309 0)
(0.00329134 -0.000241376 0)
(0.00389196 -7.66214e-06 0)
(0.00358055 -0.000142668 0)
(0.00347374 -0.000198312 0)
(0.00403023 -4.38376e-05 0)
(0.00363885 -0.000132063 0)
(0.00442006 -8.30697e-05 0)
(0.00461272 -0.000142776 0)
(0.00326123 -0.000195965 0)
(0.00128967 -0.00142209 0)
(0.00396292 -0.000179778 0)
(0.00379344 -8.68093e-05 0)
(0.00366702 -0.000164565 0)
(0.00172975 -0.00175131 0)
(0.00413375 -2.75741e-05 0)
(0.00356124 -0.000108121 0)
(0.00468672 -0.000161206 0)
(0.00380457 -3.47227e-05 0)
(0.00389058 -2.109e-05 0)
(0.00331456 -0.000247508 0)
(0.00490619 -7.77122e-06 0)
(0.00451276 -0.000369101 0)
(0.00467763 -3.72704e-05 0)
(0.00222129 -0.000691171 0)
(0.00315471 -0.000273682 0)
(0.00385619 -0.000372688 0)
(0.00415137 -0.000217639 0)
(0.00101211 -0.00188464 0)
(0.00281905 -0.00064662 0)
(0.00389966 -3.47385e-05 0)
(0.00441954 -0.000122148 0)
(0.00366137 -0.000395177 0)
(0.00263725 -0.000523407 0)
(0.00472515 -7.17882e-05 0)
(0.00451082 -0.000237185 0)
(0.00163074 -0.00109456 0)
(0.00412408 -9.68172e-05 0)
(0.00024351 -0.00258862 0)
(0.00473336 -5.232e-05 0)
(0.00443996 -0.000284905 0)
(0.00340401 -0.000158534 0)
(0.00371081 -5.76252e-05 0)
(0.0043706 -0.000187448 0)
(0.0039237 -6.87944e-06 0)
(0.00418465 -0.000427596 0)
(0.00373388 -0.000458041 0)
(0.0047892 -8.75627e-05 0)
(0.00301749 -0.000355369 0)
(0.00448106 -0.000142505 0)
(0.00401496 -0.000283569 0)
(0.00455731 -1.50235e-05 0)
(0.00123251 -0.00138024 0)
(0.00417623 -0.000295486 0)
(0.00489271 -3.04711e-05 0)
(0.0046017 -0.000256466 0)
(0.00175312 -0.00104331 0)
(0.00434459 -0.000308381 0)
(0.00408804 -5.86995e-05 0)
(0.00257593 -0.00067659 0)
(0.0040687 -1.77721e-05 0)
(0.0038835 -7.43125e-05 0)
(0.00308962 -0.000822025 0)
(0.000690517 -0.00229886 0)
(0.00408565 -0.000373559 0)
(0.00387328 -5.11829e-05 0)
(0.00352625 -0.000109925 0)
(0.00333521 -0.000333383 0)
(0.00327447 -0.000481847 0)
(0.00361274 -0.000324525 0)
(0.0039915 -0.000318555 0)
(0.000515069 -0.00220838 0)
(0.00492186 -1.58808e-05 0)
(0.00457372 -0.00031169 0)
(0.00269514 -0.000569178 0)
(0.00479675 -2.49859e-05 0)
(0.000124631 -0.00273185 0)
(0.00432524 -9.50541e-06 0)
(0.0044129 -0.000350703 0)
(0.0046748 -0.000105488 0)
(0.00449021 -0.000103127 0)
(0.0021789 -0.000910147 0)
(8.02473e-05 -0.00279095 0)
(0.00388048 -0.00013799 0)
(0.0038483 -1.26625e-05 0)
(0.0043972 -2.83844e-05 0)
(0.00459422 -7.02446e-05 0)
(0.00123694 -0.00195515 0)
(0.000766132 -0.00187251 0)
(0.00230245 -0.00107218 0)
(0.00349982 -0.000137002 0)
(0.000869344 -0.00209239 0)
(0.00344919 -0.000461936 0)
(0.0012848 -0.00195738 0)
(0.00159753 -0.00122852 0)
(0.00345485 -0.000181891 0)
(0.00380982 -2.60871e-05 0)
(0.000711433 -0.00214201 0)
(0.0019641 -0.000956114 0)
(0.00325146 -0.000218541 0)
(0.00341502 -0.000397934 0)
(0.00247331 -0.00058723 0)
(0.00393381 -0.000399559 0)
(0.00374962 -5.88997e-05 0)
(0.00419268 -4.42794e-05 0)
(0.0026386 -0.000465785 0)
(0.00412485 -0.000168815 0)
(0.00426738 -2.61046e-05 0)
(0.00379922 -0.000119099 0)
(0.0028127 -0.000409266 0)
(0.00365151 -0.000259735 0)
(0.00397444 -1.62977e-05 0)
(0.0036791 -7.4534e-05 0)
(0.00311572 -0.000255109 0)
(0.00372935 -9.0083e-05 0)
(0.000385548 -0.00236883 0)
(0.00357777 -0.000221054 0)
(0.00309505 -0.000510501 0)
(0.00228343 -0.000713631 0)
(0.00337495 -0.000188711 0)
(0.00404079 -5.26575e-06 0)
(0.00463884 -0.00021656 0)
(0.00199828 -0.00084322 0)
(0.00345399 -0.000321685 0)
(0.00382925 -2.49662e-05 0)
(0.00278407 -0.000469378 0)
(0.00259228 -0.000560293 0)
(0.00313052 -0.000382936 0)
(0.00409309 -0.000133936 0)
(0.0043074 -0.000289364 0)
(0.00460199 -0.000188433 0)
(0.00374203 -6.46296e-05 0)
(0.000142009 -0.0026706 0)
(0.00423075 -9.77334e-05 0)
(0.00445876 -0.000177534 0)
(0.000287164 -0.0026247 0)
(0.0034931 -0.000124881 0)
(0.000555607 -0.00234323 0)
(0.00371085 -5.49625e-05 0)
(0.00298445 -0.000435707 0)
(0.00276952 -0.000804557 0)
(0.00445938 -0.000210978 0)
(0.00312864 -0.000318357 0)
(0.000190466 -0.00267886 0)
(0.00381137 -2.81785e-05 0)
(0.00128509 -0.00176156 0)
(0.00398574 -0.000237596 0)
(0.00381854 -0.000314511 0)
(0.00205825 -0.00110659 0)
(0.00314523 -0.000522424 0)
(0.000884295 -0.00185118 0)
(0.00441032 -0.000141446 0)
(0.00348889 -0.000117832 0)
(0.00330446 -0.000414923 0)
(0.0037806 -5.3651e-05 0)
(0.00109682 -0.00209823 0)
(0.00311043 -0.000257107 0)
(0.00312218 -0.000264678 0)
(0.00468282 -5.21876e-05 0)
(0.00288571 -0.000346995 0)
(0.00222454 -0.000697478 0)
(0.00399513 -3.17972e-05 0)
(0.000943819 -0.00166198 0)
(0.00395083 -0.000446218 0)
(0.00359666 -0.000109099 0)
(0.00240578 -0.00134464 0)
(0.00443387 -0.000396951 0)
(0.0042674 -7.83552e-05 0)
(0.00334469 -0.000288264 0)
(0.000364214 -0.00243532 0)
(0.00254897 -0.000617406 0)
(0.00179047 -0.00120613 0)
(0.00199542 -0.00101132 0)
(0.0041737 -0.000269698 0)
(0.00424424 -5.35025e-05 0)
(0.00326204 -0.000328168 0)
(0.00457582 -4.70464e-05 0)
(0.00373489 -8.86871e-05 0)
(0.00473945 -0.000131028 0)
(0.00481489 -3.18446e-05 0)
(0.00144239 -0.0017092 0)
(0.00313914 -0.000324273 0)
(0.00485936 -7.02423e-06 0)
(0.00447023 -0.000316261 0)
(0.00155412 -0.00111317 0)
(0.00414754 -7.59506e-05 0)
(0.00367957 -6.47534e-05 0)
(0.00403838 -0.00018496 0)
(0.00363908 -7.89979e-05 0)
(0.00314581 -0.000238061 0)
(0.00468868 -8.92015e-06 0)
(0.00278509 -0.000529774 0)
(0.00325979 -0.000195669 0)
(0.00171748 -0.00145185 0)
(0.00339568 -0.000393621 0)
(0.00395255 -0.000269968 0)
(0.00132794 -0.00151663 0)
(0.000992516 -0.0020647 0)
(0.000490246 -0.00184771 0)
(0.00436385 -5.58282e-05 0)
(0.00446543 -1.27812e-05 0)
(0.0042705 -0.000152352 0)
(0.00397287 -0.000121685 0)
(0.00476391 -7.23084e-05 0)
(0.00036722 -0.00254701 0)
(0.00444502 -5.52937e-05 0)
(0.000681011 -0.00210506 0)
(0.00217208 -0.000747086 0)
(0.00201463 -0.000840587 0)
(0.00309504 -0.000457899 0)
(0.00272639 -0.000490848 0)
(0.00206541 -0.00127209 0)
(0.0010532 -0.00196194 0)
(0.00406911 -0.000116795 0)
(0.00391663 -0.000337363 0)
(0.00461681 -0.000127929 0)
(0.004119 -6.93591e-06 0)
(0.00140263 -0.00150559 0)
(0.00368578 -0.000284649 0)
(0.00346485 -0.000287852 0)
(0.00355048 -0.000161991 0)
(0.00452542 -6.90278e-05 0)
(0.00422032 -0.000192986 0)
(0.00368947 -0.00017259 0)
(0.00416972 -0.000347043 0)
(0.00436627 -9.13014e-05 0)
(0.00374049 -9.00409e-05 0)
(0.0042135 -0.000388918 0)
(0.00387309 -8.21364e-06 0)
(0.00429089 -0.000417847 0)
(0.002894 -0.000358397 0)
(0.000741875 -0.00228059 0)
(0.00403669 -0.000445424 0)
(0.00366798 -0.000202946 0)
(0.00353663 -0.000276625 0)
(0.00101581 -0.00182278 0)
(0.00253664 -0.000533328 0)
(0.000645037 -0.00229623 0)
(0.00480691 -4.16918e-05 0)
(0.00449962 -0.00028748 0)
(0.00382792 -1.52174e-05 0)
(0.00462921 -0.000101905 0)
(0.00435682 -0.000117337 0)
(0.00232591 -0.000633794 0)
(0.00286349 -0.000380361 0)
(0.00355233 -0.000400367 0)
(0.00349429 -0.000214626 0)
(0.00454636 -2.85495e-05 0)
(0.00182947 -0.000940988 0)
(0.00194124 -0.000859685 0)
(0.00037471 -0.00253324 0)
(0.00288596 -0.000544488 0)
(0.00248276 -0.000685983 0)
(0.0044391 -0.000243462 0)
(0.00387719 -3.15781e-05 0)
(0.00375307 -0.000110028 0)
(0.00422769 -0.000118719 0)
(0.00394738 -7.8309e-05 0)
(0.00433146 -0.000357214 0)
(0.0024598 -0.000882759 0)
(0.00463718 -2.85749e-05 0)
(0.00118668 -0.00174435 0)
(0.00445027 -3.21464e-05 0)
(0.00341166 -0.000489268 0)
(0.00397192 -4.89648e-06 0)
(0.00487515 -4.12312e-05 0)
(0.00119858 -0.00153849 0)
(0.0017118 -0.00100619 0)
(0.00431108 -0.000179899 0)
(0.00336645 -0.000167018 0)
(0.00350722 -0.000131245 0)
(0.00422398 -6.87441e-05 0)
(0.00405262 -0.000331016 0)
(0.00398395 -0.000154746 0)
(0.00234927 -0.000650049 0)
(0.0016469 -0.0018852 0)
(0.00417777 -1.97188e-05 0)
(0.00433351 -0.000158197 0)
(0.00356871 -0.000127801 0)
(0.0033383 -0.000167321 0)
(0.00484616 -5.88109e-05 0)
(0.00221804 -0.000945358 0)
(0.00384956 -0.000239423 0)
(0.00224079 -0.000782041 0)
(0.00371649 -8.29578e-05 0)
(0.00466972 -0.000135308 0)
(0.00336467 -0.000160257 0)
(0.00410072 -0.000264197 0)
(0.00349094 -0.000420308 0)
(0.00344726 -0.000259333 0)
(0.00378569 -4.70592e-05 0)
(0.00379057 -3.41307e-05 0)
(0.00407608 -3.73835e-05 0)
(0.00456365 -8.97235e-05 0)
(0.00291543 -0.000467739 0)
(0.0039785 -4.4179e-05 0)
(0.000100657 -0.00271437 0)
(0.00378733 -0.000271716 0)
(0.000874351 -0.00199137 0)
(0.00445822 -9.29848e-05 0)
(0.00207765 -0.000783675 0)
(0.00339367 -0.000188229 0)
(0.00376579 -4.56757e-05 0)
(0.00324622 -0.000696687 0)
(0.00433479 -7.21117e-05 0)
(0.00370636 -0.000184329 0)
(0.00465919 -8.42876e-05 0)
(0.00381098 -5.91384e-05 0)
(0.00492911 -1.94332e-05 0)
(0.00461158 -0.000278392 0)
(0.000209098 -0.00254769 0)
(0.00373877 -0.000110538 0)
(0.00417545 -3.41878e-05 0)
(0.00298905 -0.000419992 0)
(0.00380116 -3.19193e-05 0)
(0.00385265 -0.000410889 0)
(0.00456833 -0.000212428 0)
(0.00416254 -6.9025e-06 0)
(0.00279043 -0.000503359 0)
(0.00255418 -0.000507359 0)
(0.00293017 -0.000411634 0)
(0.00446668 -6.82438e-05 0)
(0.00229566 -0.000708265 0)
(0.00358304 -0.000182627 0)
(0.00159843 -0.00115263 0)
(0.00326294 -0.000232531 0)
(0.00413013 -0.000145852 0)
(0.00444742 -0.000164167 0)
(0.00333618 -0.000187133 0)
(0.00394042 -1.51127e-05 0)
(0.0029807 -0.000363657 0)
(0.00354436 -0.000102337 0)
(0.00407545 -0.000218936 0)
(0.00357123 -0.00047484 0)
(0.00212748 -0.000786961 0)
(0.00402864 -2.25114e-05 0)
(0.00304117 -0.00032269 0)
(0.00428091 -0.000131206 0)
(0.00340311 -0.000269952 0)
(0.00278936 -0.000394332 0)
(0.00438658 -8.64128e-06 0)
(0.00387201 -0.000190645 0)
(0.00295283 -0.00032448 0)
(0.00248998 -0.000645006 0)
(0.00391282 -1.29982e-05 0)
(0.00267594 -0.000470717 0)
(0.00425431 -0.000223638 0)
(0.00269979 -0.000442553 0)
(0.00378681 -3.59896e-05 0)
(0.00373007 -0.000162374 0)
(0.00374452 -0.000228072 0)
(0.00408963 -0.000406853 0)
(0.00363042 -0.000143204 0)
(0.00469341 -0.000183546 0)
(0.00186628 -0.000976429 0)
(0.00300947 -0.00029832 0)
(0.00266813 -0.000463782 0)
(0.000622642 -0.00233558 0)
(0.00364848 -7.35657e-05 0)
(0.00245158 -0.00106945 0)
(0.00382553 -0.000465516 0)
(0.00211513 -0.00114287 0)
(0.00479069 -9.64065e-05 0)
(0.00423999 -8.13342e-06 0)
(0.00217519 -0.00149331 0)
(0.00394679 -0.000142406 0)
(0.00365785 -8.92213e-05 0)
(0.00326144 -0.000249217 0)
(0.00147675 -0.0018255 0)
(0.00165912 -0.00105241 0)
(0.00200833 -0.00143672 0)
(0.0024432 -0.000567123 0)
(0.0024496 -0.000580532 0)
(0.00408405 -8.73387e-05 0)
(0.00410209 -2.0511e-05 0)
(0.00432306 -0.000245933 0)
(0.00137238 -0.00124848 0)
(0.00384251 -1.01907e-05 0)
(0.00420294 -0.000169738 0)
(0.00459194 -0.000162356 0)
(0.00179384 -0.00109837 0)
(0.00422053 -3.37401e-05 0)
(0.00276067 -0.0005761 0)
(0.00455511 -0.000134773 0)
(0.00402781 -7.4029e-05 0)
(0.00455521 -0.000187482 0)
(0.00293866 -0.00036758 0)
(0.00344715 -0.000131161 0)
(0.00397343 -0.000200933 0)
(0.00400989 -0.000379153 0)
(7.76499e-05 -0.00277924 0)
(0.00374486 -0.000334995 0)
(0.00430296 -3.54508e-05 0)
(0.00358677 -0.000363919 0)
(0.0041463 -5.26203e-05 0)
(0.00303997 -0.000304962 0)
(0.00483269 -6.94134e-05 0)
(0.00391331 -5.27619e-05 0)
(0.00238701 -0.000610133 0)
(0.00185589 -0.00122686 0)
(0.00405743 -4.92339e-05 0)
(0.000482743 -0.00245171 0)
(0.00200122 -0.00166568 0)
(0.00255516 -0.000506536 0)
(0.00397266 -0.000102182 0)
(0.00250155 -0.000581692 0)
(0.00381101 -0.000182524 0)
(0.00364429 -0.000479077 0)
(0.00273245 -0.000463072 0)
(0.00390453 -0.000101774 0)
(0.00375401 -0.000384623 0)
(0.000426232 -0.00244622 0)
(0.00092805 -0.00184902 0)
(0.00156123 -0.00146873 0)
(0.00473458 -2.87636e-05 0)
(0.00455631 -0.000117084 0)
(0.00473617 -9.7627e-05 0)
(0.00474161 -8.56095e-05 0)
(0.00379956 -3.49824e-05 0)
(0.00274572 -0.0010838 0)
(0.00113924 -0.00153542 0)
(0.00315538 -0.000344004 0)
(0.00387632 -0.000287619 0)
(0.0042357 -0.000299233 0)
(0.00257279 -0.000545987 0)
(0.00378211 -5.25533e-05 0)
(0.00462059 -4.01486e-05 0)
(0.00216441 -0.000774651 0)
(0.00410851 -0.000239815 0)
(0.00380617 -0.000161041 0)
(0.00162148 -0.00129957 0)
(0.00322754 -0.000409115 0)
(0.00193163 -0.00101462 0)
(0.00378222 -4.07233e-05 0)
(0.00231587 -0.000650728 0)
(0.00450175 -0.000323812 0)
(0.00475085 -9.89715e-06 0)
(0.00312159 -0.000656652 0)
(0.00457659 -0.000224308 0)
(0.00362778 -0.000222655 0)
(0.00422785 -1.74556e-05 0)
(0.00219172 -0.000708033 0)
(0.00436648 -8.06858e-05 0)
(0.00485773 -2.35734e-05 0)
(0.00494203 -8.31709e-06 0)
(0.0045676 -0.000342728 0)
(0.00424886 -0.000246886 0)
(0.00024532 -0.00257689 0)
(0.00358843 -0.000431166 0)
(0.00360062 -0.00024777 0)
(0.0045367 -0.000164929 0)
(0.000657493 -0.0023375 0)
(0.00451038 -9.49405e-06 0)
(0.00366444 -9.95501e-05 0)
(0.00367465 -6.42124e-05 0)
(0.00413156 -6.35886e-05 0)
(0.00454015 -0.000105223 0)
(0.00390996 -4.97815e-06 0)
(0.00310219 -0.000413583 0)
(0.0033622 -0.000163666 0)
(0.00374132 -0.000203453 0)
(0.00296386 -0.000485031 0)
(0.00241495 -0.000675181 0)
(0.00179389 -0.00157764 0)
(0.00360989 -0.000173 0)
(0.00164761 -0.00157315 0)
(0.00382332 -0.000220652 0)
(0.000281781 -0.00259748 0)
(0.00351469 -0.000231833 0)
(0.00447526 -0.000188692 0)
(0.00434733 -0.000419461 0)
(0.00139832 -0.00180368 0)
(0.00300061 -0.000558103 0)
(0.00338003 -0.000597059 0)
(0.00369601 -0.000420787 0)
(0.00263756 -0.000791733 0)
(0.00296906 -0.000508284 0)
(0.00417804 -0.00031902 0)
(0.000359808 -0.00211079 0)
(0.00304869 -0.000277995 0)
(0.00431813 -0.000209811 0)
(0.00103106 -0.00154414 0)
(0.00345152 -0.000353429 0)
(0.00478028 -0.000108722 0)
(0.00320131 -0.000221346 0)
(0.00293133 -0.000325877 0)
(0.0038129 -0.000436556 0)
(0.00199966 -0.000897925 0)
(0.00430245 -4.80281e-05 0)
(0.00348748 -0.000157095 0)
(0.00436257 -1.77353e-05 0)
(0.00333552 -0.000495974 0)
(0.00127481 -0.00139687 0)
(0.0026388 -0.000979835 0)
(0.00444524 -2.28004e-05 0)
(0.000588278 -0.00205542 0)
(0.00255735 -0.000577409 0)
(0.00235122 -0.000615934 0)
(0.00285742 -0.000362771 0)
(0.00385546 -0.000122945 0)
(0.00275337 -0.000407503 0)
(0.00299462 -0.000330129 0)
(0.00297874 -0.000541843 0)
(0.00376915 -5.23225e-05 0)
(0.00411924 -0.00031564 0)
(0.00352038 -0.000329631 0)
(0.00328079 -0.00043801 0)
(0.00358431 -9.2401e-05 0)
(0.00187629 -0.000945725 0)
(0.00372206 -0.000144349 0)
(0.00410056 -0.000451555 0)
(0.00399655 -5.30152e-05 0)
(0.00408234 -4.16498e-06 0)
(0.0047104 -0.000165216 0)
(0.00358974 -9.45723e-05 0)
(0.00166172 -0.00122339 0)
(0.00427875 -0.000104492 0)
(0.00456725 -5.86571e-05 0)
(0.00403141 -8.73074e-05 0)
(0.00140648 -0.00135173 0)
(0.0037104 -6.46687e-05 0)
(0.00142348 -0.00129963 0)
(0.00142981 -0.00123012 0)
(0.00417689 -9.81516e-05 0)
(0.00463738 -6.7519e-06 0)
(0.00216823 -0.000870939 0)
(0.00292967 -0.000960328 0)
(0.000991883 -0.00179208 0)
(0.00320233 -0.00041522 0)
(0.00427907 -6.40238e-06 0)
(0.00242152 -0.000829413 0)
(0.0033121 -0.000442205 0)
(0.00271665 -0.000626771 0)
(0.00360465 -8.33354e-05 0)
(0.00421181 -0.000215785 0)
(0.00435366 -0.000261259 0)
(0.0032672 -0.000279428 0)
(0.00266595 -0.000454766 0)
(0.00295373 -0.000790818 0)
(0.00338546 -0.000216917 0)
(0.00169436 -0.00133454 0)
(0.00324254 -0.000359257 0)
(0.00433949 -0.000381858 0)