/*--------------------------------*- C++ -*----------------------------------*\
| =========                 |                                                 |
| \\      /  F ield         | OpenFOAM: The Open Source CFD Toolbox           |
|  \\    /   O peration     | Version:  v2012                                 |
|   \\  /    A nd           | Website:  www.openfoam.com                      |
|    \\/     M anipulation  |                                                 |
\*---------------------------------------------------------------------------*/
FoamFile
{
    version     2.0;
    format      ascii;
    class       volSymmTensorField;
    location    "5";
    object      epsilon;
}
// * * * * * * * * * * * * * * * * * * * * * * * * * * * * * * * * * * * * * //

dimensions      [0 0 0 0 0 0 0];


internalField   nonuniform List<symmTensor> 
2000
(
(0.00386489 -0.000103099 -9.08019e-18 -0.00175157 -6.07153e-18 0)
(0.00324062 -0.000438463 -1.32544e-17 -0.00137914 1.51788e-18 0)
(0.00327688 2.58294e-05 -2.57498e-18 -0.00122926 5.20417e-18 0)
(0.00282565 -0.000288921 -3.65918e-18 -0.00112285 2.1684e-19 0)
(0.00285308 6.30563e-05 -6.50521e-19 -0.00097797 1.95156e-18 0)
(0.00250861 -0.00019911 -1.02999e-18 -0.000925431 4.33681e-19 0)
(0.00253048 8.16279e-05 -2.71051e-19 -0.00080732 1.73472e-18 0)
(0.0022607 -0.000137754 -3.79471e-19 -0.000780618 8.67362e-19 0)
(0.00227856 9.13429e-05 -8.13152e-20 -0.000689397 2.1684e-19 0)
(0.00206335 -9.35241e-05 -8.13152e-20 -0.000676069 -2.1684e-19 0)
(0.00207817 9.64847e-05 0 -0.000607817 -8.67362e-19 0)
(0.00190356 -6.07558e-05 5.42101e-20 -0.00060142 -4.33681e-19 0)
(0.00191605 9.92129e-05 2.71051e-20 -0.000551939 0 0)
(0.00177187 -3.60973e-05 8.13152e-20 -0.00054876 -4.33681e-19 0)
(0.00178257 0.000100728 0 -0.000514482 -4.33681e-19 0)
(0.00166114 -1.7402e-05 -2.71051e-20 -0.000512117 -4.33681e-19 0)
(0.00167047 0.000101762 -2.71051e-20 -0.000490274 -2.1684e-19 0)
(0.00156576 -3.28496e-06 5.42101e-20 -0.000486915 -8.67362e-19 0)
(0.00157408 0.000102817 0 -0.000475498 -8.67362e-19 0)
(0.00148095 6.99594e-06 5.42101e-20 -0.000469492 -2.1684e-19 0)
(0.00356802 -0.000385536 -1.64257e-17 -0.0013895 -1.30104e-18 0)
(0.00303527 -0.000663469 -7.48099e-18 -0.00124916 -4.33681e-19 0)
(0.00314099 -0.000210239 -5.47522e-18 -0.00113719 2.1684e-19 0)
(0.0026942 -0.000461958 -3.1984e-18 -0.00103044 -4.33681e-19 0)
(0.00278058 -9.19339e-05 -1.78893e-18 -0.000943985 8.67362e-19 0)
(0.00242199 -0.000309492 -1.46367e-18 -0.000870208 -2.1684e-19 0)
(0.00249237 -8.1855e-06 -7.58942e-19 -0.000802448 1.0842e-18 0)
(0.00220408 -0.000195179 -7.58942e-19 -0.000752963 0 0)
(0.00226193 5.2318e-05 -1.6263e-19 -0.000700255 2.1684e-19 0)
(0.00202767 -0.000108959 -3.79471e-19 -0.000667628 -4.33681e-19 0)
(0.00207574 9.65043e-05 -5.42101e-20 -0.00062724 6.50521e-19 0)
(0.0018828 -4.35096e-05 1.0842e-19 -0.000605892 0 0)
(0.0019232 0.000128961 -1.6263e-19 -0.000575678 1.0842e-18 0)
(0.00176187 6.3503e-06 -1.0842e-19 -0.000561525 2.1684e-19 0)
(0.00179623 0.000152798 0 -0.000539744 -1.30104e-18 0)
(0.00165905 4.42749e-05 -2.71051e-19 -0.000529845 0 0)
(0.00168862 0.00017006 5.42101e-20 -0.000514961 -6.50521e-19 0)
(0.00156992 7.28172e-05 -5.42101e-20 -0.000507341 -8.67362e-19 0)
(0.00159559 0.000181844 1.0842e-19 -0.000497724 -4.33681e-19 0)
(0.00149143 9.37438e-05 -5.42101e-20 -0.000491503 -2.1684e-19 0)
(0.00335182 -0.000661328 -6.77626e-18 -0.00125778 1.30104e-18 0)
(0.00278027 -0.000877733 -4.55365e-18 -0.00106704 1.0842e-18 0)
(0.0029646 -0.00041295 -3.46945e-18 -0.00105274 -2.1684e-19 0)
(0.00251104 -0.000604911 -2.1684e-18 -0.000916532 2.1684e-19 0)
(0.00266056 -0.000227639 -1.6263e-18 -0.000902121 2.1684e-19 0)
(0.00229489 -0.00039895 -9.75782e-19 -0.000807086 2.1684e-19 0)
(0.00241708 -9.02773e-05 -6.50521e-19 -0.000791536 -4.33681e-19 0)
(0.00211906 -0.000242913 -5.42101e-19 -0.000726627 -6.50521e-19 0)
(0.0022198 1.19023e-05 -1.0842e-19 -0.000710733 -6.50521e-19 0)
(0.00197411 -0.000124049 -1.0842e-19 -0.000667306 8.67362e-19 0)
(0.00205795 8.82181e-05 -4.87891e-19 -0.000652013 6.50521e-19 0)
(0.00185291 -3.30526e-05 -2.1684e-19 -0.000623535 0 0)
(0.00192331 0.000145305 0 -0.000609591 2.1684e-19 0)
(0.00175 3.68017e-05 -1.0842e-19 -0.000591193 0 0)
(0.00180962 0.000187868 0 -0.000579108 -1.0842e-18 0)
(0.00166118 9.03673e-05 0 -0.000567191 -1.73472e-18 0)
(0.00171206 0.000219251 0 -0.000557293 -6.50521e-19 0)
(0.0015832 0.000131159 0 -0.000549192 -6.50521e-19 0)
(0.00162697 0.000241929 -1.0842e-19 -0.000541844 4.33681e-19 0)
(0.00151335 0.000161767 0 -0.00053536 -2.1684e-19 0)
(0.00300224 -0.000899572 -3.57787e-18 -0.00106935 6.50521e-19 0)
(0.00245831 -0.00102925 -2.05998e-18 -0.00085219 -4.33681e-19 0)
(0.00271814 -0.00058098 -1.95156e-18 -0.000939959 4.33681e-19 0)
(0.00228098 -0.000709601 -1.0842e-18 -0.00078794 6.50521e-19 0)
(0.0024915 -0.000344379 -7.58942e-19 -0.000844621 -4.33681e-19 0)
(0.00213372 -0.000468745 -5.42101e-19 -0.000739477 -1.0842e-18 0)
(0.00230635 -0.000167501 -2.1684e-19 -0.000773633 -2.1684e-19 0)
(0.00200969 -0.000285509 -1.0842e-19 -0.000702451 -4.33681e-19 0)
(0.0021527 -3.45299e-05 -1.0842e-19 -0.000720583 2.1684e-19 0)
(0.00190391 -0.000145063 -5.42101e-19 -0.000673848 0 0)
(0.00202342 6.5837e-05 -4.33681e-19 -0.000680846 4.33681e-19 0)
(0.00181254 -3.68049e-05 -4.33681e-19 -0.00065147 0 0)
(0.00191319 0.000141699 -1.0842e-19 -0.000650966 -4.33681e-19 0)
(0.00173261 4.69229e-05 -4.33681e-19 -0.000633649 -4.33681e-19 0)
(0.0018179 0.000198882 -1.0842e-19 -0.000628329 -4.33681e-19 0)
(0.00166174 0.000111685 -1.0842e-19 -0.000619094 4.33681e-19 0)
(0.00173436 0.000241593 1.0842e-19 -0.000610931 4.33681e-19 0)
(0.00159803 0.000161539 -2.1684e-19 -0.000606785 -4.33681e-19 0)
(0.00166006 0.000272856 0 -0.000597156 -2.1684e-19 0)
(0.00153994 0.000199425 -3.25261e-19 -0.0005959 6.50521e-19 0)
(0.00256654 -0.00106037 -1.30104e-18 -0.000843392 -2.1684e-19 0)
(0.00209173 -0.00110473 -4.33681e-19 -0.000624367 -2.1684e-19 0)
(0.00241164 -0.00070448 -1.0842e-18 -0.000805062 1.0842e-18 0)
(0.00201646 -0.000771293 -2.1684e-19 -0.000652238 -8.67362e-19 0)
(0.00227793 -0.000439346 -4.33681e-19 -0.000773807 -8.67362e-19 0)
(0.00194511 -0.000518359 -6.50521e-19 -0.000668966 4.33681e-19 0)
(0.00216141 -0.000239812 -2.1684e-19 -0.000748164 0 0)
(0.00187825 -0.000324531 -4.33681e-19 -0.000678344 8.67362e-19 0)
(0.00205899 -8.85453e-05 -4.33681e-19 -0.000726948 -4.33681e-19 0)
(0.00181594 -0.000174802 -2.1684e-19 -0.000682674 -1.0842e-18 0)
(0.00196822 2.66914e-05 -8.67362e-19 -0.000709167 6.50521e-19 0)
(0.00175793 -5.84382e-05 1.0842e-19 -0.000683401 -2.1684e-19 0)
(0.00188709 0.000114663 2.1684e-19 -0.000693978 -4.33681e-19 0)
(0.00170385 3.23458e-05 2.1684e-19 -0.000681452 -4.33681e-19 0)
(0.00181394 0.000181698 3.25261e-19 -0.000680661 -4.33681e-19 0)
(0.00165332 0.00010324 -3.25261e-19 -0.000677429 2.1684e-19 0)
(0.00174741 0.000232383 -4.33681e-19 -0.000668593 6.50521e-19 0)
(0.00160596 0.000158411 -3.25261e-19 -0.000671725 4.33681e-19 0)
(0.00168634 0.000270028 -2.1684e-19 -0.000657237 2.1684e-19 0)
(0.00156142 0.000200897 1.0842e-19 -0.0006646 -2.1684e-19 0)
(0.0020882 -0.00112749 -8.67362e-19 -0.000604911 4.33681e-19 0)
(0.00170959 -0.00110176 0 -0.000406109 0 0)
(0.00206616 -0.000773338 -6.50521e-19 -0.00065907 2.1684e-19 0)
(0.00173383 -0.000787373 2.1684e-19 -0.00051996 -6.50521e-19 0)
(0.00202976 -0.000506388 -1.0842e-18 -0.000693408 -4.33681e-19 0)
(0.00173747 -0.000545783 -2.1684e-19 -0.000598576 0 0)
(0.00198571 -0.000303245 0 -0.000714414 -6.50521e-19 0)
(0.00172774 -0.000358449 -2.1684e-19 -0.00065254 -6.50521e-19 0)
(0.00193788 -0.000147521 -4.33681e-19 -0.000726195 -1.0842e-18 0)
(0.00170935 -0.000212097 2.1684e-19 -0.000688865 0 0)
(0.00188857 -2.75264e-05 -5.42101e-19 -0.000731423 0 0)
(0.00168537 -9.70948e-05 4.33681e-19 -0.000712321 -2.1684e-19 0)
(0.00183915 6.51844e-05 -5.42101e-19 -0.00073187 2.1684e-19 0)
(0.00165792 -6.36577e-06 -2.1684e-19 -0.000726232 -6.50521e-19 0)
(0.00179043 0.00013677 -2.1684e-19 -0.00072873 4.33681e-19 0)
(0.00162849 6.53279e-05 0 -0.000732968 -4.33681e-19 0)
(0.00174287 0.000191731 -3.25261e-19 -0.000722819 6.50521e-19 0)
(0.00159816 0.000121869 0 -0.000734269 0 0)
(0.00169677 0.00023334 -3.25261e-19 -0.0007147 0 0)
(0.00156777 0.000166109 0 -0.000731442 -6.50521e-19 0)
(0.00160757 -0.00110043 -4.33681e-19 -0.000380979 -2.1684e-19 0)
(0.00134017 -0.0010269 -8.67362e-19 -0.000218118 2.1684e-19 0)
(0.00170628 -0.000783619 -6.50521e-19 -0.000516633 0 0)
(0.00145066 -0.000759272 -6.50521e-19 -0.00040228 -6.50521e-19 0)
(0.00176084 -0.000540513 -4.33681e-19 -0.000610014 0 0)
(0.00152086 -0.000549646 -8.67362e-19 -0.000532683 2.1684e-19 0)
(0.00178594 -0.00035248 -2.1684e-19 -0.000673731 -2.1684e-19 0)
(0.0015629 -0.000384248 -8.67362e-19 -0.000624692 6.50521e-19 0)
(0.00179115 -0.000206093 -1.30104e-18 -0.000716222 6.50521e-19 0)
(0.00158504 -0.000252938 -6.50521e-19 -0.000688824 6.50521e-19 0)
(0.00178285 -9.15721e-05 2.1684e-19 -0.000743257 2.1684e-19 0)
(0.00159301 -0.000148175 -2.1684e-19 -0.000732404 2.1684e-19 0)
(0.00176535 -1.71157e-06 0 -0.000758865 4.33681e-19 0)
(0.00159085 -6.42905e-05 -6.50521e-19 -0.000760637 0 0)
(0.00174163 6.8847e-05 0 -0.000765928 -1.0842e-19 0)
(0.00158158 3.0208e-06 8.67362e-19 -0.000777316 -4.33681e-19 0)
(0.00171382 0.000124098 -2.1684e-19 -0.000766569 1.0842e-18 0)
(0.00156756 5.70346e-05 0 -0.000785308 0 0)
(0.00168351 0.000166978 2.1684e-19 -0.000762376 -3.25261e-19 0)
(0.00155076 0.000100194 0 -0.00078687 0 0)
(0.00115918 -0.000989872 -8.67362e-19 -0.00019553 -2.1684e-19 0)
(0.00100715 -0.000893451 -4.33681e-19 -7.66387e-05 0 0)
(0.00135572 -0.000738147 -6.50521e-19 -0.000392519 -2.1684e-19 0)
(0.00118313 -0.000692461 -1.73472e-18 -0.000308963 2.1684e-19 0)
(0.00148643 -0.000539911 -8.67362e-19 -0.000531682 5.42101e-19 0)
(0.00130572 -0.000530249 -4.33681e-19 -0.000475998 -2.1684e-19 0)
(0.00157114 -0.0003829 -4.33681e-19 -0.000629436 0 0)
(0.00138989 -0.00039878 0 -0.000595751 0 0)
(0.00162333 -0.000257945 -6.50521e-19 -0.000697066 4.33681e-19 0)
(0.00144607 -0.000291852 0 -0.000680768 0 0)
(0.0016523 -0.00015814 4.33681e-19 -0.000742458 -7.58942e-19 0)
(0.00148159 -0.000204644 6.50521e-19 -0.000739902 0 0)
(0.00166452 -7.82206e-05 6.50521e-19 -0.000771231 -4.33681e-19 0)
(0.00150171 -0.000133364 4.33681e-19 -0.000779512 -6.50521e-19 0)
(0.00166464 -1.41146e-05 -4.33681e-19 -0.000787505 1.0842e-19 0)
(0.00151031 -7.49773e-05 0 -0.000804277 -2.1684e-19 0)
(0.00165604 3.73646e-05 6.50521e-19 -0.000794428 -2.1684e-19 0)
(0.00151055 -2.70123e-05 4.33681e-19 -0.000817826 -2.1684e-19 0)
(0.00164136 7.86673e-05 2.1684e-19 -0.000794509 -1.0842e-19 0)
(0.00150552 1.24905e-05 2.1684e-19 -0.000823264 0 0)
(0.00076958 -0.000814278 2.1684e-19 -6.62777e-05 -2.1684e-19 0)
(0.000727402 -0.00071924 -4.33681e-19 8.13932e-06 -2.1684e-19 0)
(0.00103449 -0.000645457 -1.51788e-18 -0.000298804 7.58942e-19 0)
(0.000943899 -0.000595646 -4.33681e-19 -0.000246777 -4.33681e-19 0)
(0.00122094 -0.00050634 2.1684e-19 -0.000465985 -2.1684e-19 0)
(0.00110124 -0.000489819 -2.1684e-19 -0.000432413 -2.1684e-19 0)
(0.00135122 -0.000391677 -1.0842e-18 -0.000585659 2.1684e-19 0)
(0.00121517 -0.000399663 4.33681e-19 -0.000567276 0 0)
(0.00144083 -0.00029715 -4.33681e-19 -0.000670303 2.1684e-19 0)
(0.00129684 -0.000323098 6.50521e-19 -0.000664378 0 0)
(0.00150065 -0.00021922 -2.1684e-19 -0.000728781 -4.33681e-19 0)
(0.00135422 -0.000258229 2.1684e-19 -0.000733034 1.0842e-19 0)
(0.00153842 -0.000154978 0 -0.000767484 0 0)
(0.00139294 -0.000203367 6.50521e-19 -0.00077998 -2.1684e-19 0)
(0.00155975 -0.000101971 2.1684e-19 -0.000791149 -4.33681e-19 0)
(0.00141687 -0.00015694 0 -0.000810137 -6.50521e-19 0)
(0.00156877 -5.79985e-05 0 -0.000803533 -5.42101e-19 0)
(0.00142876 -0.000117326 6.50521e-19 -0.000827244 1.0842e-19 0)
(0.0015688 -2.09489e-05 0 -0.000808076 0 0)
(0.00143192 -8.27868e-05 6.50521e-19 -0.000834921 -1.0842e-19 0)
(0.000456289 -0.000596964 4.33681e-19 -2.96385e-06 -4.33681e-19 0)
(0.000509862 -0.000524335 0 3.30237e-05 1.0842e-19 0)
(0.000757247 -0.000518123 2.1684e-19 -0.000243045 -2.1684e-19 0)
(0.00074082 -0.000479749 -4.33681e-19 -0.000218658 1.0842e-19 0)
(0.000976246 -0.000444691 0 -0.00041832 -1.0842e-19 0)
(0.000913799 -0.000432851 4.33681e-19 -0.000404333 -3.25261e-19 0)
(0.00113546 -0.000378277 0 -0.000545658 2.1684e-19 0)
(0.00104344 -0.00038662 4.33681e-19 -0.000540663 1.0842e-19 0)
(0.00125054 -0.000319228 -2.1684e-19 -0.000637216 1.0842e-19 0)
(0.00114059 -0.000342518 -8.67362e-19 -0.000639734 4.33681e-19 0)
(0.00133277 -0.0002673 -4.33681e-19 -0.000701894 1.0842e-19 0)
(0.00121334 -0.000301156 -2.1684e-19 -0.000710415 0 0)
(0.00139035 -0.000221991 -4.33681e-19 -0.000746279 -1.0842e-19 0)
(0.00126765 -0.000262586 0 -0.000759192 -2.1684e-19 0)
(0.00142927 -0.000182621 2.1684e-19 -0.000775313 -2.1684e-19 0)
(0.00130744 -0.00022627 -4.33681e-19 -0.000790593 -1.0842e-19 0)
(0.00145397 -0.000148132 0 -0.000793016 0 0)
(0.00133334 -0.000190361 4.33681e-19 -0.000807061 0 0)
(0.00146816 -0.000116176 -2.1684e-19 -0.000804323 1.0842e-19 0)
(0.00133745 -0.000148707 -8.67362e-19 -0.000807473 1.0842e-19 0)
(0.000228043 -0.000363192 4.33681e-19 -7.44374e-06 0 0)
(0.000356379 -0.00032841 0 1.19982e-06 2.1684e-19 0)
(0.000533358 -0.000370981 -4.33681e-19 -0.000228732 -1.0842e-19 0)
(0.000577114 -0.000357993 8.67362e-19 -0.000225171 -1.0842e-19 0)
(0.00076133 -0.000362929 0 -0.000391709 0 0)
(0.000745323 -0.000368709 8.67362e-19 -0.000393545 -2.1684e-19 0)
(0.000931285 -0.000345813 6.50521e-19 -0.000510118 -3.25261e-19 0)
(0.000872862 -0.0003674 1.30104e-18 -0.000517331 -2.1684e-19 0)
(0.0010573 -0.000323683 2.1684e-19 -0.000594109 -2.1684e-19 0)
(0.000968691 -0.000358645 0 -0.000606607 -1.0842e-19 0)
(0.00114968 -0.00029902 6.50521e-19 -0.00065103 -3.25261e-19 0)
(0.00103954 -0.000345675 0 -0.000668858 0 0)
(0.00121592 -0.000273369 2.1684e-19 -0.000685893 0 0)
(0.00109053 -0.00033107 0 -0.000709527 2.1684e-19 0)
(0.00126114 -0.000247765 4.33681e-19 -0.000701304 -2.1684e-19 0)
(0.00112583 -0.000317677 4.33681e-19 -0.000732367 0 0)
(0.00128786 -0.000223133 -2.1684e-19 -0.000696032 1.0842e-19 0)
(0.00115042 -0.000310746 -4.33681e-19 -0.000739578 0 0)
(0.0012938 -0.000201009 2.1684e-19 -0.000659215 -1.6263e-19 0)
(0.00117594 -0.000324753 0 -0.000731802 -1.0842e-19 0)
(8.73848e-05 -0.00013636 -4.33681e-19 -7.97635e-05 0 0)
(0.000269797 -0.00014794 0 -8.46781e-05 -1.0842e-19 0)
(0.000370527 -0.000221073 0 -0.000262587 -4.33681e-19 0)
(0.000463236 -0.000240989 0 -0.000269585 -1.0842e-19 0)
(0.000587011 -0.000273934 8.67362e-19 -0.000398451 -4.33681e-19 0)
(0.000613949 -0.000302485 8.67362e-19 -0.000407887 -4.33681e-19 0)
(0.000752085 -0.000305046 4.33681e-19 -0.000497773 -1.0842e-19 0)
(0.000731047 -0.000341893 -8.67362e-19 -0.00050989 1.0842e-19 0)
(0.000877394 -0.000321435 -8.67362e-19 -0.000568585 1.0842e-19 0)
(0.000821698 -0.000366079 -8.67362e-19 -0.000583593 3.25261e-19 0)
(0.000971784 -0.000328134 -8.67362e-19 -0.000617041 3.25261e-19 0)
(0.000891614 -0.000380173 0 -0.000635193 -2.1684e-19 0)
(0.00104202 -0.000328973 -6.50521e-19 -0.000647939 2.71051e-19 0)
(0.000945538 -0.000388198 4.33681e-19 -0.000669593 1.0842e-19 0)
(0.00109347 -0.000327289 -2.1684e-19 -0.000665497 -5.42101e-20 0)
(0.000987754 -0.000393405 -1.30104e-18 -0.000691025 3.25261e-19 0)
(0.00113122 -0.000326926 -6.50521e-19 -0.00067537 -1.6263e-19 0)
(0.00102242 -0.000397653 -8.67362e-19 -0.000704178 0 0)
(0.00116318 -0.000334347 0 -0.000691844 -5.42101e-20 0)
(0.00105211 -0.000396543 4.33681e-19 -0.000717098 -1.0842e-19 0)
(2.43062e-05 6.66636e-05 -1.30104e-18 -0.000210366 2.1684e-19 0)
(0.000240806 4.22651e-06 0 -0.000214793 -2.1684e-19 0)
(0.000266646 -8.03518e-05 4.33681e-19 -0.000339356 -2.1684e-19 0)
(0.000393279 -0.000137556 8.67362e-19 -0.000345988 0 0)
(0.000455858 -0.000183649 0 -0.000435524 1.0842e-19 0)
(0.000515255 -0.00023857 8.67362e-19 -0.000444031 -1.0842e-19 0)
(0.000603419 -0.000255478 4.33681e-19 -0.000505988 -2.1684e-19 0)
(0.000612887 -0.000309949 -1.30104e-18 -0.000516202 2.1684e-19 0)
(0.000718339 -0.000304818 -4.33681e-19 -0.000556425 -2.1684e-19 0)
(0.000691152 -0.000359905 0 -0.00056826 5.42101e-20 0)
(0.000807719 -0.000338323 -8.67362e-19 -0.000591463 -2.1684e-19 0)
(0.000754132 -0.000394485 8.67362e-19 -0.000604847 -2.1684e-19 0)
(0.000877277 -0.000361017 4.33681e-19 -0.000615101 5.42101e-20 0)
(0.000805244 -0.00041804 -4.33681e-19 -0.000629871 0 0)
(0.000931874 -0.000376697 4.33681e-19 -0.000631158 2.71051e-19 0)
(0.000847334 -0.000433361 8.67362e-19 -0.000646858 -5.42101e-20 0)
(0.000975933 -0.000387764 6.50521e-19 -0.000643339 -1.6263e-19 0)
(0.000882535 -0.000441646 -1.30104e-18 -0.000659015 1.6263e-19 0)
(0.001013 -0.000393123 -4.33681e-19 -0.00065242 1.0842e-19 0)
(0.000912016 -0.000443894 4.33681e-19 -0.000667672 -5.42101e-20 0)
(2.57665e-05 0.000232151 -8.67362e-19 -0.000386035 1.0842e-19 0)
(0.000257127 0.000118218 0 -0.000376234 1.0842e-19 0)
(0.000214189 4.04115e-05 0 -0.000449914 -5.42101e-20 0)
(0.000359113 -5.50373e-05 -4.33681e-19 -0.000445428 -5.42101e-20 0)
(0.000364705 -9.95059e-05 0 -0.000496988 -5.42101e-20 0)
(0.00044431 -0.000181847 1.30104e-18 -0.000496294 0 0)
(0.000485163 -0.00020125 4.33681e-19 -0.000530839 -1.0842e-19 0)
(0.000515634 -0.00027427 -4.33681e-19 -0.000532918 1.6263e-19 0)
(0.000581795 -0.000274924 4.33681e-19 -0.0005544 0 0)
(0.000575555 -0.000341172 4.33681e-19 -0.000558562 -5.42101e-20 0)
(0.000659613 -0.000327992 8.67362e-19 -0.000570162 -1.0842e-19 0)
(0.000626178 -0.000389025 4.33681e-19 -0.000575903 -5.42101e-20 0)
(0.000722713 -0.000365897 4.33681e-19 -0.000580274 5.42101e-20 0)
(0.000669274 -0.000422475 1.30104e-18 -0.000587179 -1.6263e-19 0)
(0.000774479 -0.00039241 -8.67362e-19 -0.000586501 5.42101e-20 0)
(0.000706254 -0.000444783 8.67362e-19 -0.000594185 -1.0842e-19 0)
(0.000817587 -0.000409818 0 -0.00058994 -1.35525e-19 0)
(0.000738139 -0.000458323 8.67362e-19 -0.000598093 -5.42101e-20 0)
(0.000853831 -0.000419831 4.33681e-19 -0.000591265 -2.71051e-20 0)
(0.000765661 -0.000464879 4.33681e-19 -0.000599654 -5.42101e-20 0)
(7.65852e-05 0.000349954 0 -0.000590429 1.0842e-19 0)
(0.000304433 0.000187795 -4.33681e-19 -0.000553659 1.0842e-19 0)
(0.000202836 0.000133212 -8.67362e-19 -0.000582393 5.42101e-20 0)
(0.000351066 1.78594e-06 2.1684e-18 -0.000556931 -2.1684e-19 0)
(0.000307465 -2.75764e-05 -4.33681e-19 -0.000574737 0 0)
(0.000395242 -0.000136024 -4.33681e-19 -0.000557348 -5.42101e-20 0)
(0.000394542 -0.000146739 8.67362e-19 -0.000567079 -1.0842e-19 0)
(0.000436408 -0.000237853 -4.33681e-19 -0.000555511 -5.42101e-20 0)
(0.000467349 -0.000234806 4.33681e-19 -0.000559278 -1.6263e-19 0)
(0.000474406 -0.000312625 1.30104e-18 -0.000551958 -1.0842e-19 0)
(0.000528588 -0.000299507 2.1684e-18 -0.000551379 -8.13152e-20 0)
(0.000509315 -0.000366884 0 -0.000547193 5.42101e-20 0)
(0.000580494 -0.000346481 0 -0.000543509 -5.42101e-20 0)
(0.000541321 -0.000405443 4.33681e-19 -0.000541644 5.42101e-20 0)
(0.00062487 -0.000379804 1.30104e-18 -0.000535761 -8.13152e-20 0)
(0.000570609 -0.000431883 -8.67362e-19 -0.00053561 5.42101e-20 0)
(0.000663085 -0.000402489 -8.67362e-19 -0.000528162 5.42101e-20 0)
(0.000597334 -0.000448891 -1.30104e-18 -0.000529268 0 0)
(0.000696155 -0.000416794 4.33681e-19 -0.000520675 -8.13152e-20 0)
(0.000621629 -0.000458515 0 -0.000522691 2.71051e-20 0)
(0.0001602 0.000413945 4.33681e-19 -0.000804956 -1.0842e-19 0)
(0.000367539 0.000210935 0 -0.000730459 1.6263e-19 0)
(0.000221096 0.000193196 0 -0.000723617 2.1684e-19 0)
(0.000359179 3.10944e-05 -4.33681e-19 -0.000668908 5.42101e-20 0)
(0.000276962 2.80115e-05 -1.30104e-18 -0.000659992 1.0842e-19 0)
(0.00036216 -0.000103077 -8.67362e-19 -0.000619587 2.1684e-19 0)
(0.00032786 -9.56542e-05 0 -0.000609442 5.42101e-20 0)
(0.000372509 -0.000202962 -4.33681e-19 -0.00057949 2.71051e-20 0)
(0.000374053 -0.000188025 -4.33681e-19 -0.000568679 8.13152e-20 0)
(0.000387611 -0.000276838 1.73472e-18 -0.000546461 -1.0842e-19 0)
(0.000415937 -0.00025661 4.33681e-19 -0.000535392 -2.71051e-20 0)
(0.000405748 -0.000330814 0 -0.000518959 2.71051e-20 0)
(0.000453959 -0.00030697 4.33681e-19 -0.000507927 5.42101e-20 0)
(0.000425677 -0.000369539 1.73472e-18 -0.000495843 -8.13152e-20 0)
(0.000488522 -0.000343273 -4.33681e-19 -0.000485016 5.42101e-20 0)
(0.000446463 -0.000396532 -4.33681e-19 -0.000476208 8.13152e-20 0)
(0.000519952 -0.00036866 4.33681e-19 -0.000465645 0 0)
(0.000467391 -0.000414446 1.73472e-18 -0.000459311 -8.13152e-20 0)
(0.000548508 -0.000385512 0 -0.000449003 -6.77626e-20 0)
(0.000487925 -0.000425263 4.33681e-19 -0.000444543 2.71051e-20 0)
(0.000259485 0.000422622 0 -0.00100997 0 0)
(0.000431657 0.000190282 -8.67362e-19 -0.00089032 5.42101e-20 0)
(0.00025745 0.00021875 -4.33681e-19 -0.000860406 0 0)
(0.000374134 3.39742e-05 -4.33681e-19 -0.000770502 0 0)
(0.000266044 6.50993e-05 -8.67362e-19 -0.000744348 -1.0842e-19 0)
(0.000339476 -8.33939e-05 1.30104e-18 -0.000676111 0 0)
(0.000281355 -5.07376e-05 0 -0.000653068 2.71051e-20 0)
(0.000321051 -0.00017106 -1.30104e-18 -0.000600907 5.42101e-20 0)
(0.000300841 -0.000137779 8.67362e-19 -0.000580527 2.71051e-20 0)
(0.000314786 -0.000235681 4.33681e-19 -0.000540581 -5.42101e-20 0)
(0.000322929 -0.000202768 4.33681e-19 -0.000522664 -5.42101e-20 0)
(0.000317367 -0.000282805 2.1684e-18 -0.000492009 -5.42101e-20 0)
(0.000346494 -0.000250861 8.67362e-19 -0.000476307 -4.06576e-20 0)
(0.00032618 -0.000316706 1.73472e-18 -0.000452702 -6.77626e-20 0)
(0.000370679 -0.000285972 1.30104e-18 -0.000438906 -4.06576e-20 0)
(0.000339215 -0.000340584 8.67362e-19 -0.000420641 0 0)
(0.000394823 -0.000311046 -1.30104e-18 -0.000408403 -1.35525e-20 0)
(0.000354914 -0.000356795 -4.33681e-19 -0.000394184 0 0)
(0.000418426 -0.000328289 8.67362e-19 -0.000383157 -4.06576e-20 0)
(0.000372043 -0.000366999 0 -0.000372025 0 0)
(0.000357944 0.000379355 -4.33681e-19 -0.0011865 0 0)
(0.000483978 0.000133055 4.33681e-19 -0.00101931 -5.42101e-20 0)
(0.000301273 0.000210994 0 -0.00098107 -5.42101e-20 0)
(0.000387467 1.32855e-05 -4.33681e-19 -0.000852699 -1.0842e-19 0)
(0.000267968 8.2842e-05 4.33681e-19 -0.0008203 6.77626e-20 0)
(0.000319848 -7.72018e-05 4.33681e-19 -0.000720435 5.42101e-20 0)
(0.000250861 -1.38825e-05 4.33681e-19 -0.000692516 -6.77626e-20 0)
(0.000277817 -0.000142545 -1.30104e-18 -0.000615505 5.42101e-20 0)
(0.000246054 -8.63746e-05 1.30104e-18 -0.000591902 -9.48677e-20 0)
(0.000254835 -0.000189773 4.33681e-19 -0.000532569 -2.71051e-20 0)
(0.00025027 -0.000140568 8.67362e-19 -0.000512814 -1.0842e-19 0)
(0.000245584 -0.000223914 4.33681e-19 -0.000466952 -1.35525e-20 0)
(0.00026087 -0.000180955 1.30104e-18 -0.000450466 -4.06576e-20 0)
(0.000246137 -0.000248469 4.33681e-19 -0.000414822 0 0)
(0.0002758 -0.000210866 3.03577e-18 -0.000401036 -6.77626e-20 0)
(0.000253609 -0.000265979 -8.67362e-19 -0.000373109 1.35525e-20 0)
(0.000293473 -0.000232762 0 -0.000361472 6.77626e-21 0)
(0.000265812 -0.000278338 4.33681e-19 -0.000339312 1.35525e-20 0)
(0.000312639 -0.000248415 0 -0.000329261 -4.06576e-20 0)
(0.000280933 -0.000286852 0 -0.000311349 -6.77626e-21 0)
(0.00044147 0.000291045 0 -0.0013198 2.71051e-20 0)
(0.000516407 4.85277e-05 8.67362e-19 -0.0011092 -5.42101e-20 0)
(0.000343205 0.000170844 -4.33681e-19 -0.00107782 0 0)
(0.000378358 -3.27369e-05 4.33681e-19 -0.000904523 -1.35525e-20 0)
(0.000273541 8.13064e-05 -4.33681e-19 -0.000876059 4.74338e-20 0)
(0.00029202 -8.08898e-05 8.67362e-19 -0.000743328 -1.35525e-20 0)
(0.000230399 1.53986e-05 -1.73472e-18 -0.000719672 3.38813e-20 0)
(0.000238496 -0.000113777 1.30104e-18 -0.000618212 0 0)
(0.00020711 -3.38625e-05 -2.1684e-18 -0.000598855 4.06576e-20 0)
(0.00020745 -0.000137217 -1.73472e-18 -0.000520801 3.38813e-20 0)
(0.000198113 -7.10416e-05 1.30104e-18 -0.000505006 -4.06576e-20 0)
(0.000192345 -0.000154035 -1.30104e-18 -0.000444594 6.77626e-21 0)
(0.000199289 -9.92367e-05 4.33681e-19 -0.000431719 -3.38813e-20 0)
(0.000188759 -0.000166052 1.73472e-18 -0.00038473 -2.71051e-20 0)
(0.00020762 -0.000120706 0 -0.00037426 -5.75982e-20 0)
(0.000193601 -0.000174705 -4.33681e-19 -0.000337501 -1.35525e-20 0)
(0.000220839 -0.000137181 -4.33681e-19 -0.000329 -1.69407e-20 0)
(0.000204654 -0.000181425 -1.30104e-18 -0.000299847 2.03288e-20 0)
(0.000237103 -0.000149952 -4.33681e-19 -0.000292852 2.03288e-20 0)
(0.00022021 -0.000188155 -8.67362e-19 -0.000268598 0 0)
(0.000502276 0.000150566 0 -0.00142092 0 0)
(0.000427834 -8.71709e-05 0 -0.00112704 0 0)
(0.000358279 0.000102989 -4.33681e-19 -0.00111199 -2.71051e-20 0)
(0.000324642 -7.94544e-05 -8.67362e-19 -0.000905117 6.77626e-21 0)
(0.000269098 7.0639e-05 8.67362e-19 -0.000893237 0 0)
(0.00025351 -7.65329e-05 4.33681e-19 -0.000737559 0 0)
(0.000214236 4.46699e-05 4.33681e-19 -0.000727974 -6.77626e-21 0)
(0.000206279 -7.53478e-05 0 -0.000608007 0 0)
(0.000182652 2.34493e-05 4.33681e-19 -0.000600207 0 0)
(0.000177282 -7.45484e-05 0 -0.000506796 6.77626e-21 0)
(0.000167455 6.28986e-06 1.30104e-18 -0.000500429 6.77626e-21 0)
(0.000162129 -7.35406e-05 0 -0.000427351 0 0)
(0.000164023 -7.42636e-06 1.30104e-18 -0.000422159 -1.35525e-20 0)
(0.000157408 -7.2072e-05 -1.30104e-18 -0.000364967 1.35525e-20 0)
(0.000169139 -1.83803e-05 4.33681e-19 -0.000360766 -3.38813e-21 0)
(0.000160558 -7.00571e-05 -4.33681e-19 -0.000316297 0 0)
(0.000180501 -2.74565e-05 8.67362e-19 -0.00031298 -3.38813e-21 0)
(0.00016986 -6.7536e-05 -1.30104e-18 -0.000279195 -3.38813e-21 0)
(0.000196338 -3.61686e-05 -1.30104e-18 -0.000276771 -3.38813e-21 0)
(0.000184682 -6.47688e-05 -8.67362e-19 -0.000252984 0 0)
(0.000239044 -6.37008e-05 -4.33681e-19 -0.000252984 -3.38813e-21 0)
(0.000237077 -2.78967e-05 -4.33681e-19 -0.000171728 -3.38813e-21 0)
(0.000235657 -0.000181101 -8.67362e-19 -0.000267144 -1.52466e-20 0)
(0.000283046 -0.000118282 -4.33681e-19 -0.000184833 0 0)
(0.000280007 -0.000288772 8.67362e-19 -0.000312076 -2.71051e-20 0)
(0.000361752 -0.000199034 4.33681e-19 -0.000216175 -2.71051e-20 0)
(0.000357191 -0.000381348 -4.33681e-19 -0.000378937 -2.03288e-20 0)
(0.000466456 -0.000263423 0 -0.000261781 -5.42101e-20 0)
(0.000460703 -0.000453494 -4.33681e-19 -0.000461668 4.06576e-20 0)
(0.000590872 -0.00030754 -4.33681e-19 -0.000317344 0 0)
(0.00058447 -0.000501014 0 -0.000553979 -5.42101e-20 0)
(0.000728312 -0.000329156 -4.33681e-19 -0.000378371 0 0)
(0.000721964 -0.000520998 2.1684e-19 -0.000648806 2.71051e-20 0)
(0.000871726 -0.0003276 4.33681e-19 -0.000440362 0 0)
(0.000866203 -0.000511861 4.33681e-19 -0.000738045 -8.13152e-20 0)
(0.00101401 -0.000303651 0 -0.000499107 0 0)
(0.00101002 -0.000473351 -2.1684e-19 -0.00081204 -1.6263e-19 0)
(0.00114865 -0.000259223 -4.33681e-19 -0.00055108 1.0842e-19 0)
(0.00114665 -0.000406141 0 -0.000857244 -2.1684e-19 0)
(0.00127069 -0.000196409 -2.1684e-19 -0.000593883 1.6263e-19 0)
(0.000261466 -6.43265e-05 4.33681e-19 -0.000174495 -3.38813e-21 0)
(0.00027279 -3.81931e-05 8.67362e-19 -0.000130571 -3.38813e-21 0)
(0.000271562 -0.000170657 0 -0.00019652 -1.18585e-20 0)
(0.000314881 -0.00012403 0 -0.000146822 -1.35525e-20 0)
(0.000312245 -0.000271867 -1.30104e-18 -0.000242032 -2.03288e-20 0)
(0.00038421 -0.000201172 -1.30104e-18 -0.000178618 0 0)
(0.000380225 -0.000360347 -4.33681e-19 -0.000307655 6.77626e-21 0)
(0.000476225 -0.000263701 0 -0.000223306 0 0)
(0.000471164 -0.000430836 -4.33681e-19 -0.000389179 -8.13152e-20 0)
(0.00058581 -0.000307811 2.1684e-18 -0.000277225 -2.71051e-20 0)
(0.000580133 -0.000479327 0 -0.000481517 -6.77626e-20 0)
(0.000707274 -0.000331239 4.33681e-19 -0.000336245 8.13152e-20 0)
(0.000701591 -0.000503 -8.67362e-19 -0.000578695 4.06576e-20 0)
(0.000834491 -0.000333173 -8.67362e-19 -0.000396045 5.42101e-20 0)
(0.000829486 -0.000500207 4.33681e-19 -0.000673871 -2.71051e-20 0)
(0.0009611 -0.000314191 4.33681e-19 -0.000452369 5.42101e-20 0)
(0.000957429 -0.000470283 2.1684e-19 -0.000759219 -5.42101e-20 0)
(0.00108066 -0.000276102 8.67362e-19 -0.000501225 1.0842e-19 0)
(0.00107881 -0.000412781 -2.1684e-19 -0.000824971 -2.71051e-20 0)
(0.00118655 -0.000221658 -2.1684e-19 -0.000538916 1.0842e-19 0)
(0.000301624 -5.75554e-05 -4.33681e-19 -0.00013199 3.38813e-21 0)
(0.000314705 -4.02628e-05 4.33681e-19 -0.000109728 1.69407e-21 0)
(0.000313643 -0.000154889 -4.33681e-19 -0.000153444 0 0)
(0.000351234 -0.000120819 8.67362e-19 -0.00012543 -3.38813e-21 0)
(0.000348963 -0.000248111 -8.67362e-19 -0.000194415 0 0)
(0.000410155 -0.000193613 0 -0.000154553 -6.77626e-21 0)
(0.000406712 -0.000331114 -1.30104e-18 -0.000253213 1.35525e-20 0)
(0.000488515 -0.000254029 1.73472e-18 -0.000195144 -1.35525e-20 0)
(0.000484113 -0.000399287 -1.30104e-18 -0.000326913 6.77626e-21 0)
(0.000582488 -0.000298701 0 -0.000244315 2.71051e-20 0)
(0.000577508 -0.000449054 4.33681e-19 -0.000411714 -1.35525e-20 0)
(0.000687626 -0.000325447 -8.67362e-19 -0.000298656 5.42101e-20 0)
(0.000682582 -0.000477801 4.33681e-19 -0.000503025 6.77626e-20 0)
(0.000799016 -0.000333271 0 -0.000354491 5.42101e-20 0)
(0.000794502 -0.000483869 2.1684e-19 -0.000595504 -1.35525e-20 0)
(0.000911424 -0.000322357 -1.30104e-18 -0.000408082 5.42101e-20 0)
(0.000908034 -0.00046645 -6.50521e-19 -0.000683019 8.13152e-20 0)
(0.00101941 -0.000294011 8.67362e-19 -0.0004558 5.42101e-20 0)
(0.00101763 -0.00042513 1.0842e-18 -0.000758182 -8.13152e-20 0)
(0.00111723 -0.000250508 2.1684e-19 -0.000494171 -8.13152e-20 0)
(0.000347542 -4.97486e-05 4.33681e-19 -0.000110409 1.69407e-21 0)
(0.000359256 -3.92034e-05 -4.33681e-19 -0.00010144 -1.69407e-21 0)
(0.000358337 -0.000138276 -4.33681e-19 -0.000129067 1.69407e-21 0)
(0.000389984 -0.000113781 1.73472e-18 -0.000115375 3.38813e-21 0)
(0.000388032 -0.000223172 -4.33681e-19 -0.000164024 1.69407e-20 0)
(0.000439118 -0.000181735 -8.67362e-19 -0.000140816 1.35525e-20 0)
(0.000436155 -0.000299962 -1.73472e-18 -0.000214313 1.69407e-20 0)
(0.000504702 -0.000239496 8.67362e-19 -0.000176284 1.35525e-20 0)
(0.0005009 -0.000364878 4.33681e-19 -0.00027795 2.71051e-20 0)
(0.000583983 -0.000284213 1.73472e-18 -0.000219577 0 0)