/*--------------------------------*- C++ -*----------------------------------*\
| =========                 |                                                 |
| \\      /  F ield         | OpenFOAM: The Open Source CFD Toolbox           |
|  \\    /   O peration     | Version:  v2012                                 |
|   \\  /    A nd           | Website:  www.openfoam.com                      |
|    \\/     M anipulation  |                                                 |
\*---------------------------------------------------------------------------*/
FoamFile
{
    version     2.0;
    format      ascii;
    class       pointVectorField;
    location    "11";
    object      pointD;
}
// * * * * * * * * * * * * * * * * * * * * * * * * * * * * * * * * * * * * * //

dimensions      [0 1 0 0 0 0 0];


internalField   nonuniform List<vector> 
8282
(
(0.00377721 0 3.6663e-22)
(0.00500717 0 -3.80265e-21)
(0.00460545 -0.000377533 -4.83212e-21)
(0 -0.00285482 1.64186e-23)
(0 -0.00141749 0)
(0.00388028 0 0)
(0 -0.00269942 0)
(0.00247066 -0.000747499 0)
(0.00114065 -0.00139965 -8.03959e-21)
(0.00483565 -8.77356e-05 1.60848e-20)
(0.00294117 -0.00121148 1.35289e-20)
(0.00294117 -0.00121148 1.35289e-20)
(0.00247066 -0.000747499 0)
(0 -0.00269942 0)
(0 -0.00141749 0)
(0.00377721 0 3.6663e-22)
(0.00388028 0 0)
(0.00500717 0 -3.80265e-21)
(0.00483565 -8.77356e-05 1.60848e-20)
(0.00460545 -0.000377533 -4.83212e-21)
(0.00114065 -0.00139965 -8.03959e-21)
(0 -0.00285482 1.64186e-23)
(0.000104228 -0.00268473 0)
(0.000211978 -0.00264474 0)
(0.000322973 -0.00258352 0)
(0.000440102 -0.00250245 0)
(0.000564962 -0.00240305 0)
(0.000696808 -0.00228906 0)
(0.000833367 -0.00216543 0)
(0.000970562 -0.00203853 0)
(0.00110325 -0.0019151 0)
(0.00122904 -0.00179824 0)
(0.00135037 -0.00168595 0)
(0.00147088 -0.00157467 0)
(0.00159211 -0.00146357 0)
(0.00171426 -0.00135377 0)
(0.00183719 -0.00124621 0)
(0.00196072 -0.00114146 0)
(0.00208426 -0.00103976 0)
(0.00220614 -0.000941209 0)
(0.00232738 -0.000851111 0)
(0.00261654 -0.000648002 0)
(0.0027318 -0.000572541 0)
(0.00284473 -0.000503118 0)
(0.00295433 -0.000439238 0)
(0.0030599 -0.000380887 0)
(0.00316086 -0.000328021 0)
(0.00325666 -0.000280489 0)
(0.00334683 -0.000238066 0)
(0.00343095 -0.000200474 0)
(0.00350863 -0.000167386 0)
(0.00357953 -0.000138443 0)
(0.00364335 -0.000113258 0)
(0.00369983 -9.1425e-05 0)
(0.00374873 -7.25288e-05 0)
(0.00378989 -5.61545e-05 0)
(0.00382319 -4.1891e-05 0)
(0.00384868 -2.93373e-05 0)
(0.00386662 -1.8108e-05 0)
(0.0038775 -7.6809e-06 0)
(0.00378843 0 0)
(0.00380061 0 0)
(0.00381069 0 0)
(0.00381915 0 0)
(0.00382638 0 0)
(0.00383264 0 0)
(0.0038381 0 0)
(0.00384289 0 0)
(0.00384713 0 0)
(0.00385092 0 0)
(0.00385435 0 0)
(0.0038575 0 0)
(0.00386044 0 0)
(0.00386325 0 0)
(0.00386599 0 0)
(0.00386878 0 0)
(0.00387171 0 0)
(0.00387478 0 0)
(0.00387762 0 0)
(0.00388432 0 0)
(0.00388987 0 0)
(0.00389667 0 0)
(0.00390536 0 0)
(0.00391575 0 0)
(0.00392766 0 0)
(0.00394102 0 0)
(0.00395583 0 0)
(0.00397209 0 0)
(0.00398979 0 0)
(0.00400892 0 0)
(0.00402945 0 0)
(0.00405137 0 0)
(0.00407464 0 0)
(0.00409923 0 0)
(0.00412512 0 0)
(0.00415227 0 0)
(0.00418064 0 0)
(0.0042102 0 0)
(0.00424091 0 0)
(0.00427274 0 0)
(0.00430564 0 0)
(0.00433956 0 0)
(0.00437447 0 0)
(0.00441031 0 0)
(0.00444703 0 0)
(0.00448458 0 0)
(0.0045229 0 0)
(0.00456194 0 0)
(0.00460162 0 0)
(0.00464188 0 0)
(0.00468264 0 0)
(0.00472382 0 0)
(0.00476532 0 0)
(0.00480704 0 0)
(0.00484886 0 0)
(0.00489065 0 0)
(0.00493218 0 0)
(0.00497319 0 0)
(0.00502057 -1.17392e-06 -5.00174e-21)
(0.00501973 -1.46199e-06 -3.71458e-21)
(0.00501757 -1.80245e-06 2.70765e-21)
(0.00501409 -2.37901e-06 3.73124e-21)
(0.00500939 -3.27976e-06 8.10549e-23)
(0.0050035 -4.56288e-06 3.82509e-21)
(0.00499649 -6.28806e-06 4.51638e-21)
(0.0049884 -8.51582e-06 -3.9771e-21)
(0.00497929 -1.13035e-05 -8.09233e-21)
(0.00496921 -1.47037e-05 -6.00688e-21)
(0.00495825 -1.87647e-05 -4.13207e-21)
(0.00494646 -2.35292e-05 -4.28421e-21)
(0.00493393 -2.90348e-05 -4.27159e-21)
(0.00492074 -3.53133e-05 4.39914e-21)
(0.00490697 -4.23918e-05 2.17093e-21)
(0.00489271 -5.02922e-05 2.43729e-21)
(0.00487809 -5.90245e-05 -1.02165e-22)
(0.00486319 -6.85673e-05 -9.61579e-21)
(0.0048481 -7.8886e-05 -1.43177e-21)
(0.00482745 -9.37515e-05 -5.20142e-21)
(0.00482051 -9.90984e-05 -2.58084e-20)
(0.00481357 -0.000104644 -2.13258e-20)
(0.00480666 -0.000110353 -4.04164e-21)
(0.00479978 -0.00011624 1.33133e-20)
(0.00479295 -0.000122286 -9.24797e-21)
(0.0047862 -0.000128475 -2.62635e-20)
(0.00477951 -0.000134796 -2.16973e-20)
(0.00477289 -0.000141243 -1.34008e-20)
(0.00476636 -0.000147811 4.61497e-21)
(0.00475989 -0.000154494 1.3462e-20)
(0.00475351 -0.000161289 -9.24587e-21)
(0.0047472 -0.00016821 -2.66343e-20)
(0.00474099 -0.000175246 -1.74486e-20)
(0.00473486 -0.000182368 4.32767e-21)
(0.00472881 -0.000189575 8.61955e-21)
(0.00472284 -0.0001969 -1.3301e-20)
(0.00471697 -0.000204338 -8.93213e-21)
(0.00471119 -0.000211849 -1.83211e-23)
(0.00470551 -0.000219477 -1.79558e-20)
(0.00469997 -0.000227215 -2.6996e-20)
(0.00469456 -0.000235006 -2.24285e-20)
(0.00468928 -0.000242832 -1.34669e-20)
(0.00468412 -0.000250691 -8.99607e-21)
(0.00467907 -0.000258589 -9.02536e-21)
(0.00467412 -0.000266533 -4.4946e-21)
(0.00466927 -0.000274514 4.49786e-21)
(0.00466453 -0.000282527 4.49733e-21)
(0.00465989 -0.000290569 -1.34887e-20)
(0.00465536 -0.000298623 -1.80452e-20)
(0.00465092 -0.000306665 -9.12009e-21)
(0.00464657 -0.000314695 6.42085e-24)
(0.00464229 -0.000322715 9.14506e-21)
(0.00463807 -0.000330716 -4.41961e-21)
(0.00463391 -0.00033869 -8.99463e-21)
(0.00462978 -0.000346634 -1.75891e-22)
(0.00462568 -0.000354541 -8.97758e-21)
(0.00462158 -0.000362413 -2.23493e-20)
(0.00461748 -0.000370262 -1.81185e-20)
(0.0045662 -0.000387589 7.00343e-24)
(0.00450899 -0.000400535 -1.03053e-22)
(0.0044521 -0.000413161 -9.86536e-24)
(0.00439534 -0.000425099 -1.19253e-22)
(0.00433837 -0.000436049 -2.24472e-25)
(0.00428093 -0.000446013 -2.09892e-24)
(0.0042229 -0.000454926 -3.45874e-22)
(0.00416404 -0.000462707 5.77248e-22)
(0.00410408 -0.000469526 5.65763e-22)
(0.00404286 -0.000475488 -9.75903e-23)
(0.0039802 -0.000480675 -3.4835e-22)
(0.00391594 -0.000485291 1.34509e-23)
(0.00384996 -0.000489524 1.41293e-22)
(0.00378208 -0.000493444 -2.8757e-22)
(0.0037122 -0.000497259 -6.32119e-22)
(0.0036402 -0.00050124 -7.33543e-22)
(0.00356594 -0.000505595 -4.28583e-22)
(0.00348926 -0.000510552 -6.25243e-22)
(0.00341008 -0.00051641 -5.86765e-22)
(0.00332842 -0.000523353 -7.2528e-22)
(0.00324411 -0.000531572 -1.11427e-21)
(0.00315701 -0.000541443 1.92709e-23)
(0.0030671 -0.000553388 5.02992e-22)
(0.00297421 -0.000567759 -2.68187e-22)
(0.00287835 -0.000584703 -6.14195e-22)
(0.00277952 -0.000604588 5.46898e-23)
(0.00267763 -0.000627901 5.82286e-22)
(0.00257281 -0.000655034 5.90673e-22)
(0.00246513 -0.000686381 -1.81892e-22)
(0.00235457 -0.000722197 -6.00857e-22)
(0.00224119 -0.000762887 -8.69035e-22)
(0.00212528 -0.000808931 -1.28778e-22)
(0.00200709 -0.000860675 -3.5767e-22)
(0.00188696 -0.000918321 -7.72825e-23)
(0.00176511 -0.000982408 2.1816e-21)
(0.00164123 -0.00105327 -1.72238e-21)
(0.00151551 -0.00113085 -1.94959e-21)
(0.00138868 -0.001215 4.84214e-21)
(0.00126153 -0.00130571 7.99114e-22)
(0.00104083 -0.00148406 5.15909e-21)
(0.000953111 -0.00156375 3.15694e-21)
(0.000866598 -0.00164699 -5.64744e-21)
(0.000781734 -0.00173339 1.23983e-21)
(0.000699069 -0.00182268 0)
(0.000619188 -0.00191446 -1.27556e-21)
(0.000542721 -0.00200819 -1.27556e-21)
(0.00047034 -0.00210312 -3.32547e-21)
(0.000402713 -0.00219826 -1.05595e-22)
(0.000340435 -0.00229237 1.53477e-22)
(0.00028393 -0.00238401 2.6641e-21)
(0.000233391 -0.00247158 4.24283e-21)
(0.000188774 -0.00255354 -2.50618e-21)
(0.00014984 -0.00262837 -3.05068e-21)
(0.000116203 -0.00269469 1.36631e-21)
(8.73414e-05 -0.00275126 2.05189e-21)
(6.26602e-05 -0.00279695 -9.44254e-22)
(4.17021e-05 -0.00283053 8.22458e-22)
(2.30462e-05 -0.00284901 4.36806e-22)
(0 -0.00285453 0)
(0 -0.00285207 0)
(0 -0.00284941 0)
(0 -0.00284658 0)
(0 -0.00284359 0)
(0 -0.00284044 0)
(0 -0.00283712 0)
(0 -0.00283366 0)
(0 -0.00283005 0)
(0 -0.00282631 0)
(0 -0.00282245 0)
(0 -0.00281849 0)
(0 -0.00281444 0)
(0 -0.00281031 0)
(0 -0.0028061 0)
(0 -0.00280184 0)
(0 -0.00279754 0)
(0 -0.00279319 0)
(0 -0.00278881 0)
(0 -0.00278442 0)
(0 -0.00278001 0)
(0 -0.0027756 0)
(0 -0.00277119 0)
(0 -0.00276679 0)
(0 -0.0027624 0)
(0 -0.00275804 0)
(0 -0.0027537 0)
(0 -0.00274939 0)
(0 -0.00274511 0)
(0 -0.00274086 0)
(0 -0.00273666 0)
(0 -0.00273248 0)
(0 -0.00272834 0)
(0 -0.00272423 0)
(0 -0.00272015 0)
(0 -0.00271612 0)
(0 -0.00271214 0)
(0 -0.00270823 0)
(0 -0.00270433 0)
(0 -0.00269196 0)
(0 -0.00268181 0)
(0 -0.00266879 0)
(0 -0.00265193 0)
(0 -0.00263011 0)
(0 -0.00260225 0)
(0 -0.00256738 0)
(0 -0.00252478 0)
(0 -0.00247399 0)
(0 -0.00241478 0)
(0 -0.00234712 0)
(0 -0.00227109 0)
(0 -0.0021868 0)
(0 -0.00209445 0)
(0 -0.00199424 0)
(0 -0.00188639 0)
(0 -0.00177079 0)
(0 -0.00164727 0)
(0 -0.00151586 0)
(0.00254848 -0.000668071 0)
(0.00262497 -0.000590505 0)
(0.00269828 -0.000520502 0)
(0.00276996 -0.000458429 0)
(0.0028397 -0.000403996 0)
(0.00290749 -0.000356696 0)
(0.00297351 -0.000315979 0)
(0.0030379 -0.000281149 0)
(0.00310087 -0.000251597 0)
(0.00316264 -0.000226882 0)
(0.0032233 -0.000206517 0)
(0.00328298 -0.000189976 0)
(0.00334186 -0.000176824 0)
(0.0034001 -0.000166696 0)
(0.00345777 -0.000159237 0)
(0.00351493 -0.00015405 0)
(0.00357169 -0.000150795 0)
(0.00362814 -0.000149188 0)
(0.00368434 -0.000148943 0)
(0.00374031 -0.000149764 0)
(0.00379612 -0.000151433 0)
(0.00385182 -0.00015375 0)
(0.00390741 -0.00015646 0)
(0.00396294 -0.00015936 0)
(0.00401841 -0.000162284 0)
(0.0040738 -0.000165005 0)
(0.00412915 -0.000167389 0)
(0.0041844 -0.0001693 0)
(0.00423953 -0.000170529 0)
(0.00429456 -0.00017093 0)
(0.00434947 -0.00017034 0)
(0.00440426 -0.000168589 0)
(0.00445889 -0.000165502 0)
(0.00451336 -0.000160895 0)
(0.00456767 -0.000154559 0)
(0.00462181 -0.000146245 0)
(0.0046758 -0.000135669 0)
(0.00472967 -0.000122487 0)
(0.00478342 -0.000106187 0)
(0.0024027 -0.000781831 0)
(0.00236276 -0.000799708 0)
(0.00232399 -0.000816982 0)
(0.00228594 -0.000834005 0)
(0.00224846 -0.000850918 0)
(0.00221151 -0.00086778 0)
(0.00217508 -0.000884615 0)
(0.00213917 -0.000901425 0)
(0.00210376 -0.000918213 0)
(0.00206881 -0.000934977 0)
(0.00203431 -0.0009517 0)
(0.00200027 -0.000968373 0)
(0.00196666 -0.000984988 0)
(0.00193346 -0.00100154 0)
(0.00190065 -0.00101802 0)
(0.00186819 -0.00103444 0)
(0.00183607 -0.00105077 0)
(0.00180425 -0.00106704 0)
(0.00177272 -0.00108322 0)
(0.00174145 -0.00109932 0)
(0.0017104 -0.00111535 0)
(0.00167955 -0.00113129 0)
(0.00164888 -0.00114716 0)
(0.00161835 -0.00116295 0)
(0.00158794 -0.00117866 0)
(0.00155761 -0.00119431 0)
(0.00152733 -0.00120989 0)
(0.00149708 -0.00122542 0)
(0.00146681 -0.00124091 0)
(0.0014365 -0.00125637 0)
(0.00140609 -0.00127181 0)
(0.00137556 -0.00128727 0)
(0.00134486 -0.00130275 0)
(0.00131394 -0.0013183 0)
(0.00128275 -0.00133393 0)
(0.00125126 -0.00134968 0)
(0.00121941 -0.00136557 0)
(0.0011872 -0.00138164 0)
(0.00115473 -0.00139797 0)
(0.000225724 -0.00141036 -1.34326e-20)
(0.000464161 -0.00144538 1.52126e-20)
(0.000708482 -0.00148305 2.86452e-20)
(0.000934925 -0.00154042 1.06288e-22)
(0.00115051 -0.00160626 1.00787e-20)
(0.00135196 -0.00167674 1.1926e-20)
(0.00153916 -0.00174412 8.19283e-21)
(0.00170943 -0.00179913 3.57049e-21)
(0.00185911 -0.00183054 -5.27427e-21)
(0.00198484 -0.00182762 -1.31636e-20)
(0.00209104 -0.001788 7.04915e-21)
(0.00219076 -0.00172796 1.18808e-20)
(0.00229075 -0.00166432 -1.31469e-20)
(0.00239003 -0.00160023 -7.39869e-21)
(0.00248806 -0.00153584 -2.02013e-21)
(0.00258421 -0.00147113 -2.02551e-21)
(0.00267795 -0.00140618 5.7963e-21)
(0.00276889 -0.00134116 5.77989e-21)
(0.00285671 -0.00127621 1.08032e-20)
(0.00302211 -0.00114709 3.13711e-22)
(0.00309939 -0.00108312 5.47504e-21)
(0.0031729 -0.00101959 4.97481e-21)
(0.0032425 -0.000956536 2.6134e-23)
(0.00330808 -0.00089398 8.83034e-21)
(0.00336952 -0.00083195 -5.09453e-21)
(0.00342674 -0.000770472 -5.9588e-22)
(0.00347968 -0.000709557 6.96396e-21)
(0.0035283 -0.000649204 -9.35933e-21)
(0.00357256 -0.000589401 -5.9326e-21)
(0.00361246 -0.000530117 -2.63899e-21)
(0.003648 -0.000471313 -4.84326e-22)
(0.00367917 -0.000412933 -2.56848e-22)
(0.00370598 -0.00035491 -2.40056e-21)
(0.00372842 -0.000297163 3.31112e-21)
(0.00374648 -0.000239589 2.4996e-21)
(0.00376013 -0.000182027 1.04314e-21)
(0.0037691 -0.000124188 1.91774e-22)
(0.00377249 -6.60071e-05 -1.28324e-21)
(0.00290739 -0.0011586 0)
(0.00286301 -0.00111993 0)
(0.00282227 -0.00108462 0)
(0.00278479 -0.00105225 0)
(0.00275021 -0.00102249 0)
(0.00271825 -0.000995059 0)
(0.00268868 -0.000969707 0)
(0.0026613 -0.000946225 0)
(0.00263592 -0.00092442 0)
(0.00261239 -0.000904127 0)
(0.00259056 -0.000885194 0)
(0.0025703 -0.000867489 0)
(0.00255149 -0.000850898 0)
(0.00253405 -0.000835325 0)
(0.00251789 -0.000820698 0)
(0.00250298 -0.000806971 0)
(0.00248932 -0.000794133 0)
(0.00247691 -0.000782221 0)
(0.00246569 -0.000771341 0)
(0.00290739 -0.0011586 0)
(0.00286301 -0.00111993 0)
(0.00282227 -0.00108462 0)
(0.00278479 -0.00105225 0)
(0.00275021 -0.00102249 0)
(0.00271825 -0.000995059 0)
(0.00268868 -0.000969707 0)
(0.0026613 -0.000946225 0)
(0.00263592 -0.00092442 0)
(0.00261239 -0.000904127 0)
(0.00259056 -0.000885194 0)
(0.0025703 -0.000867489 0)
(0.00255149 -0.000850898 0)
(0.00253405 -0.000835325 0)
(0.00251789 -0.000820698 0)
(0.00250298 -0.000806971 0)
(0.00248932 -0.000794133 0)
(0.00247691 -0.000782221 0)
(0.00246569 -0.000771341 0)
(0.00232738 -0.000851111 0)
(0.00220614 -0.000941209 0)
(0.00208426 -0.00103976 0)
(0.00196072 -0.00114146 0)
(0.00183719 -0.00124621 0)
(0.00171426 -0.00135377 0)
(0.00159211 -0.00146357 0)
(0.00147088 -0.00157467 0)
(0.00135037 -0.00168595 0)
(0.00122904 -0.00179824 0)
(0.00110325 -0.0019151 0)
(0.000970562 -0.00203853 0)
(0.000833367 -0.00216543 0)
(0.000696808 -0.00228906 0)
(0.000564962 -0.00240305 0)
(0.000440102 -0.00250245 0)
(0.000322973 -0.00258352 0)
(0.000211978 -0.00264474 0)
(0.000104228 -0.00268473 0)
(0 -0.00269196 0)
(0 -0.00268181 0)
(0 -0.00266879 0)
(0 -0.00265193 0)
(0 -0.00263011 0)
(0 -0.00260225 0)
(0 -0.00256738 0)
(0 -0.00252478 0)
(0 -0.00247399 0)
(0 -0.00241478 0)
(0 -0.00234712 0)
(0 -0.00227109 0)
(0 -0.0021868 0)
(0 -0.00209445 0)
(0 -0.00199424 0)
(0 -0.00188639 0)
(0 -0.00177079 0)
(0 -0.00164727 0)
(0 -0.00151586 0)
(0.000225724 -0.00141036 -1.34326e-20)
(0.000464161 -0.00144538 1.52126e-20)
(0.000708482 -0.00148305 2.86452e-20)
(0.000934925 -0.00154042 1.06288e-22)
(0.00115051 -0.00160626 1.00787e-20)
(0.00135196 -0.00167674 1.1926e-20)
(0.00153916 -0.00174412 8.19283e-21)
(0.00170943 -0.00179913 3.57049e-21)
(0.00185911 -0.00183054 -5.27427e-21)
(0.00198484 -0.00182762 -1.31636e-20)
(0.00209104 -0.001788 7.04915e-21)
(0.00219076 -0.00172796 1.18808e-20)
(0.00229075 -0.00166432 -1.31469e-20)
(0.00239003 -0.00160023 -7.39869e-21)
(0.00248806 -0.00153584 -2.02013e-21)
(0.00258421 -0.00147113 -2.02551e-21)
(0.00267795 -0.00140618 5.7963e-21)
(0.00276889 -0.00134116 5.77989e-21)
(0.00285671 -0.00127621 1.08032e-20)
(0.00302211 -0.00114709 3.13711e-22)
(0.00309939 -0.00108312 5.47504e-21)
(0.0031729 -0.00101959 4.97481e-21)
(0.0032425 -0.000956536 2.6134e-23)
(0.00330808 -0.00089398 8.83034e-21)
(0.00336952 -0.00083195 -5.09453e-21)
(0.00342674 -0.000770472 -5.9588e-22)
(0.00347968 -0.000709557 6.96396e-21)
(0.0035283 -0.000649204 -9.35933e-21)
(0.00357256 -0.000589401 -5.9326e-21)
(0.00361246 -0.000530117 -2.63899e-21)
(0.003648 -0.000471313 -4.84326e-22)
(0.00367917 -0.000412933 -2.56848e-22)
(0.00370598 -0.00035491 -2.40056e-21)
(0.00372842 -0.000297163 3.31112e-21)
(0.00374648 -0.000239589 2.4996e-21)
(0.00376013 -0.000182027 1.04314e-21)
(0.0037691 -0.000124188 1.91774e-22)
(0.00377249 -6.60071e-05 -1.28324e-21)
(0.00378843 0 0)
(0.00380061 0 0)
(0.00381069 0 0)
(0.00381915 0 0)
(0.00382638 0 0)
(0.00383264 0 0)
(0.0038381 0 0)
(0.00384289 0 0)
(0.00384713 0 0)
(0.00385092 0 0)
(0.00385435 0 0)
(0.0038575 0 0)
(0.00386044 0 0)
(0.00386325 0 0)
(0.00386599 0 0)
(0.00386878 0 0)
(0.00387171 0 0)
(0.00387478 0 0)
(0.00387762 0 0)
(0.0038775 -7.6809e-06 0)
(0.00386662 -1.8108e-05 0)
(0.00384868 -2.93373e-05 0)
(0.00382319 -4.1891e-05 0)
(0.00378989 -5.61545e-05 0)
(0.00374873 -7.25288e-05 0)
(0.00369983 -9.1425e-05 0)
(0.00364335 -0.000113258 0)
(0.00357953 -0.000138443 0)
(0.00350863 -0.000167386 0)
(0.00343095 -0.000200474 0)
(0.00334683 -0.000238066 0)
(0.00325666 -0.000280489 0)
(0.00316086 -0.000328021 0)
(0.0030599 -0.000380887 0)
(0.00295433 -0.000439238 0)
(0.00284473 -0.000503118 0)
(0.0027318 -0.000572541 0)
(0.00261654 -0.000648002 0)
(0.00388432 0 0)
(0.00388987 0 0)
(0.00389667 0 0)
(0.00390536 0 0)
(0.00391575 0 0)
(0.00392766 0 0)
(0.00394102 0 0)
(0.00395583 0 0)
(0.00397209 0 0)
(0.00398979 0 0)
(0.00400892 0 0)
(0.00402945 0 0)
(0.00405137 0 0)
(0.00407464 0 0)
(0.00409923 0 0)
(0.00412512 0 0)
(0.00415227 0 0)
(0.00418064 0 0)
(0.0042102 0 0)
(0.00424091 0 0)
(0.00427274 0 0)
(0.00430564 0 0)
(0.00433956 0 0)
(0.00437447 0 0)
(0.00441031 0 0)
(0.00444703 0 0)
(0.00448458 0 0)
(0.0045229 0 0)
(0.00456194 0 0)
(0.00460162 0 0)
(0.00464188 0 0)
(0.00468264 0 0)
(0.00472382 0 0)
(0.00476532 0 0)
(0.00480704 0 0)
(0.00484886 0 0)
(0.00489065 0 0)
(0.00493218 0 0)
(0.00497319 0 0)
(0.00502057 -1.17392e-06 -5.00174e-21)
(0.00501973 -1.46199e-06 -3.71458e-21)
(0.00501757 -1.80245e-06 2.70765e-21)
(0.00501409 -2.37901e-06 3.73124e-21)
(0.00500939 -3.27976e-06 8.10549e-23)
(0.0050035 -4.56288e-06 3.82509e-21)
(0.00499649 -6.28806e-06 4.51638e-21)
(0.0049884 -8.51582e-06 -3.9771e-21)
(0.00497929 -1.13035e-05 -8.09233e-21)
(0.00496921 -1.47037e-05 -6.00688e-21)
(0.00495825 -1.87647e-05 -4.13207e-21)
(0.00494646 -2.35292e-05 -4.28421e-21)
(0.00493393 -2.90348e-05 -4.27159e-21)
(0.00492074 -3.53133e-05 4.39914e-21)
(0.00490697 -4.23918e-05 2.17093e-21)
(0.00489271 -5.02922e-05 2.43729e-21)
(0.00487809 -5.90245e-05 -1.02165e-22)
(0.00486319 -6.85673e-05 -9.61579e-21)
(0.0048481 -7.8886e-05 -1.43177e-21)
(0.00478342 -0.000106187 0)
(0.00472967 -0.000122487 0)
(0.0046758 -0.000135669 0)
(0.00462181 -0.000146245 0)
(0.00456767 -0.000154559 0)
(0.00451336 -0.000160895 0)
(0.00445889 -0.000165502 0)
(0.00440426 -0.000168589 0)
(0.00434947 -0.00017034 0)
(0.00429456 -0.00017093 0)
(0.00423953 -0.000170529 0)
(0.0041844 -0.0001693 0)
(0.00412915 -0.000167389 0)
(0.0040738 -0.000165005 0)
(0.00401841 -0.000162284 0)
(0.00396294 -0.00015936 0)
(0.00390741 -0.00015646 0)
(0.00385182 -0.00015375 0)
(0.00379612 -0.000151433 0)
(0.00374031 -0.000149764 0)
(0.00368434 -0.000148943 0)
(0.00362814 -0.000149188 0)
(0.00357169 -0.000150795 0)
(0.00351493 -0.00015405 0)
(0.00345777 -0.000159237 0)
(0.0034001 -0.000166696 0)
(0.00334186 -0.000176824 0)
(0.00328298 -0.000189976 0)
(0.0032233 -0.000206517 0)
(0.00316264 -0.000226882 0)
(0.00310087 -0.000251597 0)
(0.0030379 -0.000281149 0)
(0.00297351 -0.000315979 0)
(0.00290749 -0.000356696 0)
(0.0028397 -0.000403996 0)
(0.00276996 -0.000458429 0)
(0.00269828 -0.000520502 0)
(0.00262497 -0.000590505 0)
(0.00254848 -0.000668071 0)
(0.00482745 -9.37515e-05 -5.20142e-21)
(0.00482051 -9.90984e-05 -2.58084e-20)
(0.00481357 -0.000104644 -2.13258e-20)
(0.00480666 -0.000110353 -4.04164e-21)
(0.00479978 -0.00011624 1.33133e-20)
(0.00479295 -0.000122286 -9.24797e-21)
(0.0047862 -0.000128475 -2.62635e-20)
(0.00477951 -0.000134796 -2.16973e-20)
(0.00477289 -0.000141243 -1.34008e-20)
(0.00476636 -0.000147811 4.61497e-21)
(0.00475989 -0.000154494 1.3462e-20)
(0.00475351 -0.000161289 -9.24587e-21)
(0.0047472 -0.00016821 -2.66343e-20)
(0.00474099 -0.000175246 -1.74486e-20)
(0.00473486 -0.000182368 4.32767e-21)
(0.00472881 -0.000189575 8.61955e-21)
(0.00472284 -0.0001969 -1.3301e-20)
(0.00471697 -0.000204338 -8.93213e-21)
(0.00471119 -0.000211849 -1.83211e-23)
(0.00470551 -0.000219477 -1.79558e-20)
(0.00469997 -0.000227215 -2.6996e-20)
(0.00469456 -0.000235006 -2.24285e-20)
(0.00468928 -0.000242832 -1.34669e-20)
(0.00468412 -0.000250691 -8.99607e-21)
(0.00467907 -0.000258589 -9.02536e-21)
(0.00467412 -0.000266533 -4.4946e-21)
(0.00466927 -0.000274514 4.49786e-21)
(0.00466453 -0.000282527 4.49733e-21)
(0.00465989 -0.000290569 -1.34887e-20)
(0.00465536 -0.000298623 -1.80452e-20)
(0.00465092 -0.000306665 -9.12009e-21)
(0.00464657 -0.000314695 6.42085e-24)
(0.00464229 -0.000322715 9.14506e-21)
(0.00463807 -0.000330716 -4.41961e-21)
(0.00463391 -0.00033869 -8.99463e-21)
(0.00462978 -0.000346634 -1.75891e-22)
(0.00462568 -0.000354541 -8.97758e-21)
(0.00462158 -0.000362413 -2.23493e-20)
(0.00461748 -0.000370262 -1.81185e-20)
(0.0045662 -0.000387589 7.00343e-24)
(0.00450899 -0.000400535 -1.03053e-22)
(0.0044521 -0.000413161 -9.86536e-24)
(0.00439534 -0.000425099 -1.19253e-22)
(0.00433837 -0.000436049 -2.24472e-25)
(0.00428093 -0.000446013 -2.09892e-24)
(0.0042229 -0.000454926 -3.45874e-22)
(0.00416404 -0.000462707 5.77248e-22)
(0.00410408 -0.000469526 5.65763e-22)
(0.00404286 -0.000475488 -9.75903e-23)
(0.0039802 -0.000480675 -3.4835e-22)
(0.00391594 -0.000485291 1.34509e-23)
(0.00384996 -0.000489524 1.41293e-22)
(0.00378208 -0.000493444 -2.8757e-22)
(0.0037122 -0.000497259 -6.32119e-22)
(0.0036402 -0.00050124 -7.33543e-22)
(0.00356594 -0.000505595 -4.28583e-22)
(0.00348926 -0.000510552 -6.25243e-22)
(0.00341008 -0.00051641 -5.86765e-22)
(0.00332842 -0.000523353 -7.2528e-22)
(0.00324411 -0.000531572 -1.11427e-21)
(0.00315701 -0.000541443 1.92709e-23)
(0.0030671 -0.000553388 5.02992e-22)
(0.00297421 -0.000567759 -2.68187e-22)
(0.00287835 -0.000584703 -6.14195e-22)
(0.00277952 -0.000604588 5.46898e-23)
(0.00267763 -0.000627901 5.82286e-22)
(0.00257281 -0.000655034 5.90673e-22)
(0.00246513 -0.000686381 -1.81892e-22)
(0.00235457 -0.000722197 -6.00857e-22)
(0.00224119 -0.000762887 -8.69035e-22)
(0.00212528 -0.000808931 -1.28778e-22)
(0.00200709 -0.000860675 -3.5767e-22)
(0.00188696 -0.000918321 -7.72825e-23)
(0.00176511 -0.000982408 2.1816e-21)
(0.00164123 -0.00105327 -1.72238e-21)
(0.00151551 -0.00113085 -1.94959e-21)
(0.00138868 -0.001215 4.84214e-21)
(0.00126153 -0.00130571 7.99114e-22)
(0.00115473 -0.00139797 0)
(0.0011872 -0.00138164 0)
(0.00121941 -0.00136557 0)
(0.00125126 -0.00134968 0)
(0.00128275 -0.00133393 0)
(0.00131394 -0.0013183 0)
(0.00134486 -0.00130275 0)
(0.00137556 -0.00128727 0)
(0.00140609 -0.00127181 0)
(0.0014365 -0.00125637 0)
(0.00146681 -0.00124091 0)
(0.00149708 -0.00122542 0)
(0.00152733 -0.00120989 0)
(0.00155761 -0.00119431 0)
(0.00158794 -0.00117866 0)
(0.00161835 -0.00116295 0)
(0.00164888 -0.00114716 0)
(0.00167955 -0.00113129 0)
(0.0017104 -0.00111535 0)
(0.00174145 -0.00109932 0)
(0.00177272 -0.00108322 0)
(0.00180425 -0.00106704 0)
(0.00183607 -0.00105077 0)
(0.00186819 -0.00103444 0)
(0.00190065 -0.00101802 0)
(0.00193346 -0.00100154 0)
(0.00196666 -0.000984988 0)
(0.00200027 -0.000968373 0)
(0.00203431 -0.0009517 0)
(0.00206881 -0.000934977 0)
(0.00210376 -0.000918213 0)
(0.00213917 -0.000901425 0)
(0.00217508 -0.000884615 0)
(0.00221151 -0.00086778 0)
(0.00224846 -0.000850918 0)
(0.00228594 -0.000834005 0)
(0.00232399 -0.000816982 0)
(0.00236276 -0.000799708 0)
(0.0024027 -0.000781831 0)
(0.00104083 -0.00148406 5.15909e-21)
(0.000953111 -0.00156375 3.15694e-21)
(0.000866598 -0.00164699 -5.64744e-21)
(0.000781734 -0.00173339 1.23983e-21)
(0.000699069 -0.00182268 0)
(0.000619188 -0.00191446 -1.27556e-21)
(0.000542721 -0.00200819 -1.27556e-21)
(0.00047034 -0.00210312 -3.32547e-21)
(0.000402713 -0.00219826 -1.05595e-22)
(0.000340435 -0.00229237 1.53477e-22)
(0.00028393 -0.00238401 2.6641e-21)
(0.000233391 -0.00247158 4.24283e-21)
(0.000188774 -0.00255354 -2.50618e-21)
(0.00014984 -0.00262837 -3.05068e-21)
(0.000116203 -0.00269469 1.36631e-21)
(8.73414e-05 -0.00275126 2.05189e-21)
(6.26602e-05 -0.00279695 -9.44254e-22)
(4.17021e-05 -0.00283053 8.22458e-22)
(2.30462e-05 -0.00284901 4.36806e-22)
(0 -0.00285453 0)
(0 -0.00285207 0)
(0 -0.00284941 0)
(0 -0.00284658 0)
(0 -0.00284359 0)
(0 -0.00284044 0)
(0 -0.00283712 0)
(0 -0.00283366 0)
(0 -0.00283005 0)
(0 -0.00282631 0)
(0 -0.00282245 0)
(0 -0.00281849 0)
(0 -0.00281444 0)
(0 -0.00281031 0)
(0 -0.0028061 0)
(0 -0.00280184 0)
(0 -0.00279754 0)
(0 -0.00279319 0)
(0 -0.00278881 0)
(0 -0.00278442 0)
(0 -0.00278001 0)
(0 -0.0027756 0)
(0 -0.00277119 0)
(0 -0.00276679 0)
(0 -0.0027624 0)
(0 -0.00275804 0)
(0 -0.0027537 0)
(0 -0.00274939 0)
(0 -0.00274511 0)
(0 -0.00274086 0)
(0 -0.00273666 0)
(0 -0.00273248 0)
(0 -0.00272834 0)
(0 -0.00272423 0)
(0 -0.00272015 0)
(0 -0.00271612 0)
(0 -0.00271214 0)
(0 -0.00270823 0)
(0 -0.00270433 0)
(0.000261821 -0.00154922 0)
(0.000257669 -0.00167569 0)
(0.000253794 -0.00179572 0)
(0.000249418 -0.00190833 0)
(0.000244168 -0.00201341 0)
(0.000237883 -0.00211079 0)
(0.000230543 -0.00220024 0)
(0.000222163 -0.00228148 0)
(0.00021279 -0.00235432 0)
(0.000202456 -0.00241858 0)
(0.000191255 -0.00247424 0)
(0.000179386 -0.00252147 0)
(0.000167158 -0.00256068 0)
(0.000154965 -0.00259255 0)
(0.000143253 -0.002618 0)
(0.000132455 -0.0026381 0)
(0.000122931 -0.00265394 0)
(0.0001149 -0.00266652 0)
(0.000108491 -0.00267684 0)
(0.000503126 -0.00157736 0)
(0.000500952 -0.00169732 0)
(0.000496591 -0.00181195 0)
(0.000489747 -0.00191973 0)
(0.000480327 -0.00202017 0)
(0.000468382 -0.00211295 0)
(0.000453982 -0.00219766 0)
(0.000437236 -0.00227392 0)
(0.000418267 -0.00234142 0)
(0.000397304 -0.00240005 0)
(0.000374753 -0.00244996 0)
(0.000351211 -0.00249168 0)
(0.000327437 -0.00252603 0)
(0.000304268 -0.00255407 0)
(0.000282512 -0.00257692 0)
(0.000262859 -0.00259568 0)
(0.000245818 -0.00261129 0)
(0.000231643 -0.0026245 0)
(0.000220272 -0.00263586 0)
(0.000742157 -0.00161528 0)
(0.000737671 -0.00173061 0)
(0.000730984 -0.00183906 0)
(0.000721032 -0.00193987 0)
(0.000707363 -0.00203277 0)
(0.000689771 -0.00211747 0)
(0.000668205 -0.00219352 0)
(0.000642762 -0.0022605 0)
(0.000613796 -0.00231826 0)
(0.000581967 -0.00236709 0)
(0.000548254 -0.00240773 0)
(0.000513841 -0.00244135 0)
(0.000479969 -0.00246925 0)
(0.000447791 -0.00249272 0)
(0.000418254 -0.00251287 0)
(0.000392021 -0.00253056 0)
(0.000369437 -0.00254636 0)
(0.000350519 -0.00256059 0)
(0.000334931 -0.00257326 0)
(0.000966192 -0.00166734 0)
(0.000959905 -0.00177482 0)
(0.000950568 -0.00187442 0)
(0.000937082 -0.00196528 0)
(0.000918692 -0.00204701 0)
(0.000894922 -0.00211925 0)
(0.00086564 -0.0021817 0)
(0.000831199 -0.0022344 0)
(0.000792507 -0.00227802 0)
(0.00075095 -0.00231382 0)
(0.000708173 -0.00234339 0)
(0.000665821 -0.00236839 0)
(0.000625329 -0.00239023 0)
(0.000587782 -0.00240998 0)
(0.000553862 -0.0024283 0)
(0.000523852 -0.00244552 0)
(0.00049772 -0.00246174 0)
(0.000475186 -0.00247688 0)
(0.000455829 -0.00249075 0)
(0.00117605 -0.00172632 0)
(0.00116596 -0.00182424 0)
(0.00115226 -0.00191227 0)
(0.0011335 -0.00198947 0)
(0.00110869 -0.00205541 0)
(0.00107738 -0.0021101 0)
(0.00103981 -0.00215415 0)
(0.000996996 -0.00218897 0)
(0.000950626 -0.00221662 0)
(0.000902705 -0.00223933 0)
(0.000855147 -0.00225904 0)
(0.000809489 -0.00227718 0)
(0.000766778 -0.00229461 0)
(0.000727584 -0.00231172 0)
(0.000692106 -0.00232858 0)
(0.000660284 -0.00234507 0)
(0.000631905 -0.00236103 0)
(0.000606646 -0.00237621 0)
(0.000584109 -0.00239039 0)
(0.00136966 -0.00178622 0)
(0.00135326 -0.00187126 0)
(0.00133232 -0.00194354 0)
(0.00130545 -0.00200227 0)
(0.00127202 -0.00204769 0)
(0.00123225 -0.0020812 0)
(0.00118725 -0.0021052 0)
(0.00113887 -0.00212284 0)
(0.00108921 -0.00213705 0)
(0.00104008 -0.00214995 0)
(0.000992798 -0.0021628 0)
(0.000948121 -0.00217615 0)
(0.000906419 -0.0021901 0)
(0.000867831 -0.00220455 0)
(0.000832359 -0.0022193 0)
(0.000799898 -0.00223408 0)
(0.000770259 -0.00224864 0)
(0.00074321 -0.00226274 0)
(0.000718547 -0.00227623 0)
(0.00154559 -0.00183745 0)
(0.00151948 -0.00190471 0)
(0.00148804 -0.00195616 0)
(0.00145058 -0.00199232 0)
(0.00140745 -0.00201528 0)
(0.00136008 -0.00202869 0)
(0.00131073 -0.00203677 0)
(0.00126146 -0.00204285 0)
(0.00121351 -0.00204887 0)
(0.0011675 -0.00205574 0)
(0.00112367 -0.00206374 0)
(0.00108212 -0.00207287 0)
(0.00104292 -0.00208303 0)
(0.00100616 -0.00209404 0)
(0.000971817 -0.00210566 0)
(0.000939799 -0.00211759 0)
(0.000910016 -0.00212962 0)
(0.000882399 -0.00214161 0)
(0.000856775 -0.00215336 0)
(0.00170146 -0.00186841 0)
(0.00166307 -0.00191232 0)
(0.00161939 -0.00193934 0)
(0.00157085 -0.00195251 0)
(0.0015195 -0.00195693 0)
(0.00146822 -0.00195789 0)
(0.00141888 -0.00195836 0)
(0.00137205 -0.00195933 0)
(0.00132774 -0.00196119 0)
(0.0012857 -0.00196404 0)
(0.00124576 -0.00196792 0)
(0.00120786 -0.00197286 0)
(0.00117197 -0.00197891 0)
(0.00113799 -0.00198588 0)
(0.00110579 -0.00199351 0)
(0.00107538 -0.00200168 0)
(0.00104678 -0.00201032 0)
(0.00101991 -0.00201926 0)
(0.000994558 -0.00202824 0)
(0.00183517 -0.00186795 0)
(0.00178414 -0.0018855 0)
(0.00172953 -0.0018895 0)
(0.00167415 -0.00188703 0)
(0.00162081 -0.0018833 0)
(0.00157053 -0.00188022 0)
(0.0015232 -0.00187792 0)
(0.00147859 -0.00187639 0)
(0.00143654 -0.00187563 0)
(0.00139695 -0.00187565 0)
(0.00135968 -0.00187644 0)
(0.00132465 -0.00187808 0)
(0.00129159 -0.00188047 0)
(0.00126021 -0.00188347 0)
(0.0012305 -0.00188714 0)
(0.00120246 -0.00189151 0)
(0.00117596 -0.00189648 0)
(0.00115076 -0.00190181 0)
(0.0011267 -0.00190736 0)
(0.00194666 -0.00183117 0)
(0.00188711 -0.00182746 0)
(0.00182893 -0.00181996 0)
(0.00177414 -0.00181283 0)
(0.00172274 -0.00180653 0)
(0.00167435 -0.00180108 0)
(0.0016287 -0.00179647 0)
(0.00158564 -0.00179272 0)
(0.00154508 -0.00178976 0)
(0.00150691 -0.00178756 0)
(0.00147107 -0.00178606 0)
(0.00143744 -0.00178519 0)
(0.00140585 -0.00178484 0)
(0.00137619 -0.00178502 0)
(0.0013484 -0.0017858 0)
(0.00132227 -0.00178712 0)
(0.00129751 -0.00178883 0)
(0.0012739 -0.00179082 0)
(0.00125138 -0.00179312 0)
(0.00204543 -0.00176944 0)
(0.00198522 -0.00175805 0)
(0.00192869 -0.00174742 0)
(0.00187568 -0.00173763 0)
(0.00182586 -0.00172874 0)