/*--------------------------------*- C++ -*----------------------------------*\
| =========                 |                                                 |
| \\      /  F ield         | OpenFOAM: The Open Source CFD Toolbox           |
|  \\    /   O peration     | Version:  v2012                                 |
|   \\  /    A nd           | Website:  www.openfoam.com                      |
|    \\/     M anipulation  |                                                 |
\*---------------------------------------------------------------------------*/
FoamFile
{
    version     2.0;
    format      ascii;
    class       volScalarField;
    location    "11";
    object      sigmaHyd;
}
// * * * * * * * * * * * * * * * * * * * * * * * * * * * * * * * * * * * * * //

dimensions      [1 -1 -2 0 0 0 0];


internalField   nonuniform List<scalar> 
8000
(
1.20241e+08
1.21659e+08
1.27065e+08
1.28803e+08
1.3345e+08
1.35215e+08
1.39733e+08
1.41658e+08
1.46203e+08
1.48141e+08
1.52547e+08
1.54429e+08
1.58639e+08
1.60434e+08
1.6441e+08
1.66086e+08
1.69793e+08
1.71312e+08
1.747e+08
1.75993e+08
1.78984e+08
1.79962e+08
1.82463e+08
1.83025e+08
1.84937e+08
1.84976e+08
1.86209e+08
1.85642e+08
1.8614e+08
1.84959e+08
1.84724e+08
1.82992e+08
1.82078e+08
1.79898e+08
1.78348e+08
1.7578e+08
1.73415e+08
1.70326e+08
1.66617e+08
1.63224e+08
1.18982e+08
1.20699e+08
1.257e+08
1.28304e+08
1.32733e+08
1.3511e+08
1.39285e+08
1.41665e+08
1.45787e+08
1.48116e+08
1.52111e+08
1.54328e+08
1.58155e+08
1.60214e+08
1.6385e+08
1.65685e+08
1.69099e+08
1.70604e+08
1.73761e+08
1.74793e+08
1.77654e+08
1.78033e+08
1.80558e+08
1.80106e+08
1.82262e+08
1.80875e+08
1.8265e+08
1.80336e+08
1.8173e+08
1.78607e+08
1.79631e+08
1.75892e+08
1.76558e+08
1.7242e+08
1.727e+08
1.68323e+08
1.67982e+08
1.63419e+08
1.62022e+08
1.57432e+08
1.19097e+08
1.20886e+08
1.25824e+08
1.28449e+08
1.33017e+08
1.35391e+08
1.39696e+08
1.42009e+08
1.46214e+08
1.48429e+08
1.5247e+08
1.54515e+08
1.58359e+08
1.60133e+08
1.63759e+08
1.6511e+08
1.68493e+08
1.69211e+08
1.72332e+08
1.72188e+08
1.75037e+08
1.73851e+08
1.76427e+08
1.7414e+08
1.76459e+08
1.73164e+08
1.75245e+08
1.71156e+08
1.73011e+08
1.68399e+08
1.70026e+08
1.65151e+08
1.66537e+08
1.61594e+08
1.62698e+08
1.57799e+08
1.58472e+08
1.53656e+08
1.5357e+08
1.48829e+08
1.19064e+08
1.20791e+08
1.25802e+08
1.28414e+08
1.33135e+08
1.35432e+08
1.39855e+08
1.41989e+08
1.46301e+08
1.48213e+08
1.52358e+08
1.53901e+08
1.57832e+08
1.58799e+08
1.62483e+08
1.62614e+08
1.66034e+08
1.65083e+08
1.6824e+08
1.6608e+08
1.68999e+08
1.65694e+08
1.68408e+08
1.642e+08
1.66728e+08
1.6195e+08
1.64295e+08
1.59266e+08
1.61408e+08
1.56358e+08
1.58274e+08
1.53335e+08
1.55005e+08
1.50236e+08
1.5164e+08
1.4706e+08
1.48122e+08
1.43702e+08
1.44249e+08
1.40133e+08
1.19151e+08
1.20885e+08
1.25777e+08
1.28337e+08
1.33076e+08
1.352e+08
1.39653e+08
1.41417e+08
1.45761e+08
1.47015e+08
1.51188e+08
1.51661e+08
1.55595e+08
1.54983e+08
1.58646e+08
1.56724e+08
1.60129e+08
1.56899e+08
1.60097e+08
1.55823e+08
1.58856e+08
1.53946e+08
1.56825e+08
1.51683e+08
1.54396e+08
1.49304e+08
1.51824e+08
1.46914e+08
1.49216e+08
1.44512e+08
1.46581e+08
1.42072e+08
1.43903e+08
1.39579e+08
1.41168e+08
1.3701e+08
1.38323e+08
1.3434e+08
1.35327e+08
1.3154e+08
1.19383e+08
1.21036e+08
1.257e+08
1.2804e+08
1.32662e+08
1.34349e+08
1.38683e+08
1.39633e+08
1.43832e+08
1.43739e+08
1.47752e+08
1.4627e+08
1.50065e+08
1.47049e+08
1.50655e+08
1.46325e+08
1.49801e+08
1.44696e+08
1.4806e+08
1.42729e+08
1.45959e+08
1.40772e+08
1.4383e+08
1.38929e+08
1.41782e+08
1.37151e+08
1.39781e+08
1.35353e+08
1.37758e+08
1.33488e+08
1.35676e+08
1.31554e+08
1.33533e+08
1.29551e+08
1.31326e+08
1.27484e+08
1.29047e+08
1.25351e+08
1.26672e+08
1.23143e+08
1.19652e+08
1.21072e+08
1.25377e+08
1.272e+08
1.31493e+08
1.32231e+08
1.36153e+08
1.35478e+08
1.39189e+08
1.36771e+08
1.4034e+08
1.36165e+08
1.39745e+08
1.34364e+08
1.38057e+08
1.3234e+08
1.36093e+08
1.30629e+08
1.34309e+08
1.29281e+08
1.3279e+08
1.28133e+08
1.31424e+08
1.27004e+08
1.30055e+08
1.25788e+08
1.28599e+08
1.24456e+08
1.27042e+08
1.23023e+08
1.254e+08
1.21493e+08
1.23676e+08
1.1988e+08
1.2189e+08
1.18229e+08
1.20073e+08
1.16572e+08
1.18211e+08
1.14843e+08
1.1966e+08
1.20523e+08
1.24337e+08
1.24978e+08
1.28626e+08
1.2743e+08
1.30558e+08
1.27302e+08
1.30166e+08
1.25152e+08
1.28007e+08
1.22255e+08
1.25338e+08
1.19894e+08
1.23264e+08
1.18451e+08
1.21978e+08
1.17616e+08
1.21154e+08
1.16989e+08
1.20439e+08
1.1635e+08
1.19655e+08
1.15651e+08
1.18756e+08
1.1483e+08
1.17727e+08
1.13873e+08
1.16572e+08
1.12767e+08
1.1529e+08
1.11544e+08
1.13922e+08
1.10296e+08
1.12543e+08
1.09067e+08
1.11175e+08
1.07819e+08
1.09733e+08
1.06441e+08
1.18531e+08
1.18163e+08
1.21303e+08
1.1974e+08
1.22421e+08
1.18799e+08
1.20839e+08
1.15909e+08
1.1774e+08
1.1289e+08
1.14726e+08
1.106e+08
1.12702e+08
1.09282e+08
1.11617e+08
1.08492e+08
1.10924e+08
1.0782e+08
1.10293e+08
1.07168e+08
1.09701e+08
1.06621e+08
1.09167e+08
1.06008e+08
1.08506e+08
1.05256e+08
1.07689e+08
1.04348e+08
1.06694e+08
1.03337e+08
1.05615e+08
1.02358e+08
1.04562e+08
1.01405e+08
1.03532e+08
1.00441e+08
1.02482e+08
9.94283e+07
1.01329e+08
9.82817e+07
1.14704e+08
1.12714e+08
1.14958e+08
1.11724e+08
1.13316e+08
1.09385e+08
1.10363e+08
1.06697e+08
1.07777e+08
1.04724e+08
1.06006e+08
1.03375e+08
1.04877e+08
1.02435e+08
1.04079e+08
1.01683e+08
1.03381e+08
1.01008e+08
1.02726e+08
1.00373e+08
1.02093e+08
9.96676e+07
1.01341e+08
9.88176e+07
1.00446e+08
9.78599e+07
9.94598e+07
9.68887e+07
9.84986e+07
9.60012e+07
9.76285e+07
9.51116e+07
9.67357e+07
9.41789e+07
9.58065e+07
9.32355e+07
9.48485e+07
9.22775e+07
9.38107e+07
9.12442e+07
1.08373e+08
1.05977e+08
1.07414e+08
1.0453e+08
1.05239e+08
1.0224e+08
1.02885e+08
1.00053e+08
1.01022e+08
9.84197e+07
9.96733e+07
9.72351e+07
9.8682e+07
9.6335e+07
9.78899e+07
9.55968e+07
9.71998e+07
9.49445e+07
9.6555e+07
9.43138e+07
9.58782e+07
9.36497e+07
9.51169e+07
9.29287e+07
9.42917e+07
9.21724e+07
9.34486e+07
9.13698e+07
9.2566e+07
9.04774e+07
9.16049e+07
8.95124e+07
9.06059e+07
8.85534e+07
8.9646e+07
8.76615e+07
8.87435e+07
8.67883e+07
8.78141e+07
8.58847e+07
1.01953e+08
9.99574e+07
1.0102e+08
9.82612e+07
9.87991e+07
9.57405e+07
9.64605e+07
9.35523e+07
9.46686e+07
9.19773e+07
9.33896e+07
9.08618e+07
9.24468e+07
9.00323e+07
9.17059e+07
8.93759e+07
9.10823e+07
8.88184e+07
9.05133e+07
8.83054e+07
8.99514e+07
8.77986e+07
8.93677e+07
8.72765e+07
8.87558e+07
8.67243e+07
8.80987e+07
8.61252e+07
8.73747e+07
8.54767e+07
8.65982e+07
8.48022e+07
8.58187e+07
8.41338e+07
8.50676e+07
8.34559e+07
8.42942e+07
8.27374e+07
8.34758e+07
8.20034e+07
9.63188e+07
9.38814e+07
9.47179e+07
9.14852e+07
9.19907e+07
8.86834e+07
8.95956e+07
8.65496e+07
8.79012e+07
8.51158e+07
8.67424e+07
8.4147e+07
8.59189e+07
8.34625e+07
8.53022e+07
8.29546e+07
8.4812e+07
8.25546e+07
8.43924e+07
8.22145e+07
8.40037e+07
8.19009e+07
8.36206e+07
8.15918e+07
8.3226e+07
8.12726e+07
8.28069e+07
8.09351e+07
8.23604e+07
8.05807e+07
8.18969e+07
8.02187e+07
8.14324e+07
7.98587e+07
8.09676e+07
7.95073e+07
8.04975e+07
7.91703e+07
8.00328e+07
7.88656e+07
8.94529e+07
8.6426e+07
8.74496e+07
8.37833e+07
8.45223e+07
8.10143e+07
8.22162e+07
7.90767e+07
8.07101e+07
7.78715e+07
7.97498e+07
7.71234e+07
7.91185e+07
7.66502e+07
7.86907e+07
7.635e+07
7.83917e+07
7.61592e+07
7.81707e+07
7.6034e+07
7.7992e+07
7.59438e+07
7.7832e+07
7.58689e+07
7.76753e+07
7.57974e+07
7.7514e+07
7.57243e+07
7.73466e+07
7.56504e+07
7.71787e+07
7.55825e+07
7.70199e+07
7.55329e+07
7.68841e+07
7.55196e+07
7.67863e+07
7.5557e+07
7.67263e+07
7.56127e+07
8.11818e+07
7.77694e+07
7.91302e+07
7.5244e+07
7.63658e+07
7.27665e+07
7.43405e+07
7.11617e+07
7.31253e+07
7.0269e+07
7.24369e+07
6.9808e+07
7.20606e+07
6.96037e+07
7.18773e+07
6.95607e+07
7.18173e+07
6.96203e+07
7.18336e+07
6.97423e+07
7.18941e+07
6.98995e+07
7.19775e+07
7.00744e+07
7.20709e+07
7.02572e+07
7.21684e+07
7.04439e+07
7.22695e+07
7.06362e+07
7.2379e+07
7.08411e+07
7.25085e+07
7.1074e+07
7.26774e+07
7.13574e+07
7.29048e+07
7.16995e+07
7.31636e+07
7.20333e+07
7.19592e+07
6.83361e+07
7.00778e+07
6.61258e+07
6.76788e+07
6.40824e+07
6.60512e+07
6.28921e+07
6.51998e+07
6.23682e+07
6.48401e+07
6.22415e+07
6.4768e+07
6.2348e+07
6.48718e+07
6.25984e+07
6.50865e+07
6.29383e+07
6.5369e+07
6.33314e+07
6.56904e+07
6.37536e+07
6.60317e+07
6.41895e+07
6.63817e+07
6.46304e+07
6.67351e+07
6.50722e+07
6.70916e+07
6.55163e+07
6.74571e+07
6.59704e+07
6.78449e+07
6.64514e+07
6.82774e+07
6.69831e+07
6.87696e+07
6.7565e+07
6.92686e+07
6.80967e+07
6.213e+07
5.84118e+07
6.05386e+07
5.66259e+07
5.86222e+07
5.51016e+07
5.74634e+07
5.43766e+07
5.70216e+07
5.42563e+07
5.70271e+07
5.44934e+07
5.72916e+07
5.49371e+07
5.77109e+07
5.55044e+07
5.82248e+07
5.61451e+07
5.87943e+07
5.6827e+07
5.9394e+07
5.75297e+07
6.00076e+07
5.82407e+07
6.06252e+07
5.89526e+07
6.12406e+07
5.96609e+07
6.18518e+07
6.03642e+07
6.24621e+07
6.10664e+07
6.30842e+07
6.17815e+07
6.37424e+07
6.2534e+07
6.4454e+07
6.33315e+07
6.51658e+07
6.40964e+07
5.19488e+07
4.82214e+07
5.07108e+07
4.6916e+07
4.93413e+07
4.59537e+07
4.86915e+07
4.57197e+07
4.86854e+07
4.6021e+07
4.9077e+07
4.66367e+07
4.96966e+07
4.74314e+07
5.04487e+07
4.83285e+07
5.12774e+07
4.92823e+07
5.21481e+07
5.02646e+07
5.304e+07
5.12594e+07
5.39414e+07
5.2259e+07
5.48465e+07
5.32609e+07
5.57523e+07
5.42652e+07
5.66565e+07
5.52728e+07
5.75578e+07
5.62846e+07
5.84596e+07
5.73077e+07
5.93783e+07
5.83654e+07
6.03451e+07
5.95021e+07
6.13835e+07
6.07671e+07
4.16195e+07
3.79478e+07
4.07638e+07
3.71423e+07
3.99662e+07
3.67518e+07
3.98378e+07
3.70112e+07
4.02742e+07
3.77338e+07
4.10567e+07
3.87269e+07
4.20353e+07
3.98703e+07
4.3123e+07
4.10938e+07
4.42684e+07
4.23553e+07
4.54406e+07
4.36304e+07
4.66226e+07
4.49065e+07
4.78074e+07
4.61791e+07
4.89945e+07
4.74494e+07
5.01879e+07
4.87223e+07
5.13939e+07
5.00073e+07
5.26224e+07
5.13227e+07
5.38929e+07
5.27048e+07
5.52484e+07
5.42117e+07
5.67594e+07
5.58911e+07
5.84828e+07
5.77618e+07
3.13034e+07
2.77334e+07
3.08339e+07
2.74207e+07
3.06033e+07
2.75872e+07
3.09863e+07
2.83239e+07
3.18537e+07
2.94515e+07
3.30149e+07
3.08047e+07
3.43385e+07
3.22771e+07
3.57452e+07
3.38034e+07
3.71866e+07
3.53434e+07
3.86335e+07
3.6873e+07
4.00696e+07
3.83794e+07
4.14877e+07
3.98577e+07
4.28872e+07
4.13079e+07
4.42721e+07
4.27322e+07
4.56504e+07
4.41306e+07
4.70304e+07
4.54906e+07
4.84109e+07
4.676e+07
4.9753e+07
4.78057e+07
5.0944e+07
4.84488e+07
5.17722e+07
4.85031e+07
2.11206e+07
1.76817e+07
2.10248e+07
1.78399e+07
2.13384e+07
1.85376e+07
2.22102e+07
1.97283e+07
2.34874e+07
2.12389e+07
2.50053e+07
2.29296e+07
2.66504e+07
2.47068e+07
2.83496e+07
2.65097e+07
3.00562e+07
2.8299e+07
3.17413e+07
3.00503e+07
3.33873e+07
3.17478e+07
3.49829e+07
3.33798e+07
3.6519e+07
3.49344e+07
3.79848e+07
3.63958e+07
3.93629e+07
3.77377e+07
4.0617e+07
3.88983e+07
4.16558e+07
3.97272e+07
4.2303e+07
4.00361e+07
4.25441e+07
4.03161e+07
4.36232e+07
4.36108e+07
1.11538e+07
7.86401e+06
1.14131e+07
8.4705e+06
1.22461e+07
9.67742e+06
1.35852e+07
1.1304e+07
1.52537e+07
1.31821e+07
1.71116e+07
1.51969e+07
1.90625e+07
1.72684e+07
2.10403e+07
1.93406e+07
2.30006e+07
2.13764e+07
2.49153e+07
2.33527e+07
2.67667e+07
2.52548e+07
2.85425e+07
2.70722e+07
3.0232e+07
2.87943e+07
3.18222e+07
3.0405e+07
3.32887e+07
3.18677e+07
3.45683e+07
3.30812e+07
3.55016e+07
3.38415e+07
3.58871e+07
3.41099e+07
3.61916e+07
3.51574e+07
3.89565e+07
3.92705e+07
1.4591e+06
-1.668e+06
2.05888e+06
-627569
3.39447e+06
1.07538e+06
5.18777e+06
3.12743e+06
7.23713e+06
5.36496e+06
9.42713e+06
7.69873e+06
1.16797e+07
1.00634e+07
1.39366e+07
1.24092e+07
1.61574e+07
1.47026e+07
1.83164e+07
1.6923e+07
2.03983e+07
1.90579e+07
2.23922e+07
2.10975e+07
2.42878e+07
2.30308e+07
2.60709e+07
2.48391e+07
2.77103e+07
2.64764e+07
2.91221e+07
2.78237e+07
3.01246e+07
2.86869e+07
3.05975e+07
2.91479e+07
3.13048e+07
3.04697e+07
3.45198e+07
3.48702e+07
-7.91864e+06
-1.08692e+07
-6.98683e+06
-9.40319e+06
-5.1588e+06
-7.21423e+06
-2.92084e+06
-4.74678e+06
-499134
-2.1591e+06
2.01614e+06
485812
4.56574e+06
3.13747e+06
7.09992e+06
5.75253e+06
9.58225e+06
8.30079e+06
1.19899e+07
1.0764e+07
1.4309e+07
1.31308e+07
1.65296e+07
1.53914e+07
1.86409e+07
1.75329e+07
2.06255e+07
1.95323e+07
2.2446e+07
2.13354e+07
2.40069e+07
2.28161e+07
2.51254e+07
2.37868e+07
2.5717e+07
2.43366e+07
2.65511e+07
2.57596e+07
2.99491e+07
3.03677e+07
-1.69344e+07
-1.96932e+07
-1.56769e+07
-1.78113e+07
-1.33681e+07
-1.51513e+07
-1.06992e+07
-1.22845e+07
-7.9187e+06
-9.36226e+06
-5.09119e+06
-6.42135e+06
-2.25698e+06
-3.49745e+06
542649
-627629
3.27519e+06
2.16102e+06
5.92011e+06
4.85201e+06
8.46477e+06
7.43436e+06
1.08988e+07
9.89727e+06
1.32096e+07
1.22255e+07
1.53766e+07
1.43927e+07
1.73573e+07
1.6341e+07
1.90516e+07
1.79411e+07
2.02751e+07
1.90014e+07
2.09425e+07
1.9615e+07
2.18477e+07
2.11228e+07
2.53961e+07
2.59041e+07
-2.55399e+07
-2.80921e+07
-2.39662e+07
-2.58103e+07
-2.11954e+07
-2.27018e+07
-1.8116e+07
-1.94581e+07
-1.49965e+07
-1.62222e+07
-1.18755e+07
-1.30053e+07
-8.77502e+06
-9.82867e+06
-5.72805e+06
-6.72356e+06
-2.76351e+06
-3.71428e+06
99962.6
-815939
2.85039e+06
1.96074e+06
5.47692e+06
4.60418e+06
7.96536e+06
7.09782e+06
1.02932e+07
9.41368e+06
1.24158e+07
1.14923e+07
1.42307e+07
1.32017e+07
1.55496e+07
1.43462e+07
1.62865e+07
1.50243e+07
1.72608e+07
1.66096e+07
2.09343e+07
2.15247e+07
-3.3688e+07
-3.60215e+07
-3.18128e+07
-3.33621e+07
-2.86055e+07
-2.98335e+07
-2.51418e+07
-2.62394e+07
-2.17071e+07
-2.2714e+07
-1.83148e+07
-1.92435e+07
-1.49693e+07
-1.58361e+07
-1.1696e+07
-1.25172e+07
-8.52048e+06
-9.30877e+06
-5.45961e+06
-6.22447e+06
-2.52471e+06
-3.27456e+06
273232
-470814
2.91932e+06
2.16964e+06
5.39013e+06
4.61801e+06
7.63995e+06
6.81368e+06
9.56439e+06
8.62208e+06
1.09716e+07
9.84499e+06
1.17758e+07
1.0584e+07
1.28124e+07
1.2232e+07
1.65796e+07
1.72444e+07
-4.13384e+07
-4.34451e+07
-3.91805e+07
-4.04342e+07
-3.5567e+07
-3.65172e+07
-3.1748e+07
-3.26013e+07
-2.80239e+07
-2.88116e+07
-2.43842e+07
-2.51114e+07
-2.08165e+07
-2.14959e+07
-1.73391e+07
-1.79855e+07
-1.39742e+07
-1.45994e+07
-1.07372e+07
-1.13501e+07
-7.63853e+06
-8.24696e+06
-4.68885e+06
-5.30174e+06
-1.90335e+06
-2.5318e+06
694051
33496.7
3.05676e+06
2.33247e+06
5.0787e+06
4.22879e+06
6.56559e+06
5.52217e+06
7.43132e+06
6.31515e+06
8.51954e+06
8.01132e+06
1.23524e+07
1.30894e+07
-4.84609e+07
-5.03364e+07
-4.60411e+07
-4.70015e+07
-4.20533e+07
-4.27285e+07
-3.79092e+07
-3.85197e+07
-3.39223e+07
-3.44915e+07
-3.00594e+07
-3.05853e+07
-2.62926e+07
-2.67844e+07
-2.26332e+07
-2.31042e+07
-1.91005e+07
-1.95615e+07
-1.5708e+07
-1.61671e+07
-1.24651e+07
-1.29297e+07
-9.38227e+06
-9.86079e+06
-6.47456e+06
-6.97782e+06
-3.76633e+06
-4.31064e+06
-1.3049e+06
-1.92169e+06
802476
51477.3
2.35988e+06
1.40726e+06
3.28032e+06
2.24776e+06
4.41049e+06
3.97952e+06
8.28458e+06
9.09498e+06
-5.50345e+07
-5.66774e+07
-5.23743e+07
-5.30463e+07
-4.80442e+07
-4.84488e+07
-4.36046e+07
-4.39751e+07
-3.93808e+07
-3.9733e+07
-3.53184e+07
-3.56437e+07
-3.13749e+07
-3.16794e+07
-2.75551e+07
-2.78503e+07
-2.38751e+07
-2.41708e+07
-2.03468e+07
-2.06502e+07
-1.69783e+07
-1.72964e+07
-1.37796e+07
-1.41204e+07
-1.07659e+07
-1.11398e+07
-7.96174e+06
-8.38479e+06
-5.41495e+06
-5.91832e+06
-3.23351e+06
-3.87848e+06
-1.61417e+06
-2.46748e+06
-644856
-1.58465e+06
519307
172303
4.41312e+06
5.2996e+06
-6.10467e+07
-6.2458e+07
-5.81669e+07
-5.85568e+07
-5.3525e+07
-5.36647e+07
-4.8818e+07
-4.89519e+07
-4.43816e+07
-4.4519e+07
-4.01422e+07
-4.02682e+07
-3.60434e+07
-3.61609e+07
-3.20835e+07
-3.22026e+07
-2.82756e+07
-2.8405e+07
-2.46296e+07
-2.47757e+07
-2.11528e+07
-2.13219e+07
-1.78546e+07
-1.80543e+07
-1.47499e+07
-1.49903e+07
-1.18635e+07
-1.21604e+07
-9.24369e+06
-9.62767e+06
-6.99851e+06
-7.53024e+06
-5.32471e+06
-6.07e+06
-4.31109e+06
-5.14859e+06
-3.11906e+06
-3.37481e+06
775462
1.74095e+06
-6.64917e+07
-6.76742e+07
-6.34117e+07
-6.35268e+07
-5.84861e+07
-5.83665e+07
-5.35368e+07
-5.3438e+07
-4.89102e+07
-4.88352e+07
-4.45145e+07
-4.44427e+07
-4.02801e+07
-4.02116e+07
-3.61991e+07
-3.61422e+07
-3.22813e+07
-3.22436e+07
-2.85347e+07
-2.85219e+07
-2.49655e+07
-2.49832e+07
-2.15825e+07
-2.16379e+07
-1.84006e+07
-1.85035e+07
-1.54447e+07
-1.56104e+07
-1.27629e+07
-1.30217e+07
-1.04631e+07
-1.08745e+07
-8.74112e+06
-9.36976e+06
-7.68639e+06
-8.412e+06
-6.47082e+06
-6.62776e+06
-2.59242e+06
-1.54511e+06
-7.13691e+07
-7.23268e+07
-6.81063e+07
-6.79537e+07
-6.2921e+07
-6.25476e+07
-5.77516e+07
-5.74235e+07
-5.29546e+07
-5.26696e+07
-4.84215e+07
-4.81539e+07
-4.40699e+07
-4.38166e+07
-3.98853e+07
-3.96528e+07
-3.5874e+07
-3.56687e+07
-3.20423e+07
-3.1869e+07
-2.83951e+07
-2.82591e+07
-2.49408e+07
-2.48488e+07
-2.16942e+07
-2.16557e+07
-1.868e+07
-1.87099e+07
-1.59462e+07
-1.60741e+07
-1.35997e+07
-1.38839e+07
-1.18346e+07
-1.23379e+07
-1.07404e+07
-1.13443e+07
-9.50364e+06
-9.5537e+06
-5.65616e+06
-4.52441e+06
-7.56832e+07
-7.64205e+07
-7.22513e+07
-7.18377e+07
-6.6826e+07
-6.62038e+07
-6.14549e+07
-6.09009e+07
-5.65051e+07
-5.60129e+07
-5.1852e+07
-5.13906e+07
-4.74001e+07
-4.6963e+07
-4.31277e+07
-4.27193e+07
-3.90375e+07
-3.86632e+07
-3.51341e+07
-3.47982e+07
-3.14217e+07
-3.1129e+07
-2.79081e+07
-2.76652e+07
-2.4608e+07
-2.44241e+07
-2.15458e+07
-2.14353e+07
-1.87688e+07
-1.87604e+07
-1.63825e+07
-1.65326e+07
-1.45778e+07
-1.49472e+07
-1.3444e+07
-1.39157e+07
-1.21857e+07
-1.21195e+07
-8.38189e+06
-7.16327e+06
-7.94414e+07
-7.99639e+07
-7.58508e+07
-7.51823e+07
-7.01997e+07
-6.93324e+07
-6.46411e+07
-6.38628e+07
-5.95533e+07
-5.88545e+07
-5.47957e+07
-5.41399e+07
-5.0258e+07
-4.96348e+07
-4.59107e+07
-4.53227e+07
-4.17537e+07
-4.12056e+07
-3.77902e+07
-3.72864e+07
-3.40239e+07
-3.35695e+07
-3.04623e+07
-3.00637e+07
-2.71195e+07
-2.67856e+07
-2.40192e+07
-2.37638e+07
-2.12076e+07
-2.10578e+07
-1.87875e+07
-1.87972e+07
-1.69452e+07
-1.7172e+07
-1.57687e+07
-1.60962e+07
-1.44838e+07
-1.4289e+07
-1.07339e+07
-9.42676e+06
-8.2657e+07
-8.29711e+07
-7.89129e+07
-7.79924e+07
-7.30403e+07
-7.19206e+07
-6.72981e+07
-6.62851e+07
-6.20818e+07
-6.1167e+07
-5.72319e+07
-5.63722e+07
-5.26195e+07
-5.17996e+07
-4.82072e+07
-4.74288e+07
-4.39933e+07
-4.32616e+07
-3.99808e+07
-3.93008e+07
-3.61729e+07
-3.55497e+07
-3.25762e+07
-3.20165e+07
-2.92037e+07
-2.87159e+07
-2.60776e+07
-2.56745e+07
-2.32416e+07
-2.29483e+07
-2.07943e+07
-2.06608e+07
-1.8915e+07
-1.89927e+07
-1.76869e+07
-1.78573e+07
-1.63608e+07
-1.60215e+07
-1.26714e+07
-1.12774e+07
-8.53459e+07
-8.5449e+07
-8.14373e+07
-8.02343e+07
-7.5314e+07
-7.38975e+07
-6.9374e+07
-6.80983e+07
-6.4039e+07
-6.28944e+07
-5.91119e+07
-5.8037e+07
-5.44363e+07
-5.34097e+07
-4.99697e+07
-4.89935e+07
-4.57117e+07
-4.47915e+07
-4.16652e+07
-4.08059e+07
-3.78325e+07
-3.70395e+07
-3.42191e+07
-3.34993e+07
-3.08362e+07
-3.01981e+07
-2.77035e+07
-2.71589e+07
-2.48602e+07
-2.44319e+07
-2.23974e+07
-2.21291e+07
-2.04815e+07
-2.04139e+07
-1.91834e+07
-1.91896e+07
-1.77818e+07
-1.72852e+07
-1.415e+07
-1.26833e+07
-8.74766e+07
-8.73183e+07
-8.33421e+07
-8.1753e+07
-7.68937e+07
-7.51421e+07
-7.07753e+07
-6.92776e+07
-6.53769e+07
-6.40514e+07
-6.04047e+07
-5.91563e+07
-5.56835e+07
-5.4489e+07
-5.1179e+07
-5.00419e+07
-4.68941e+07
-4.58205e+07
-4.2832e+07
-4.18267e+07
-3.89947e+07
-3.80638e+07
-3.53875e+07
-3.45384e+07
-3.20202e+07
-3.12617e+07
-2.89089e+07
-2.82529e+07
-2.60865e+07
-2.55531e+07
-2.36312e+07
-2.32568e+07
-2.1686e+07
-2.14954e+07
-2.0293e+07
-2.01442e+07
-1.87571e+07
-1.81082e+07
-1.51604e+07
-1.3659e+07
-8.88947e+07
-8.84396e+07
-8.44317e+07
-8.24604e+07
-7.7727e+07
-7.59071e+07
-7.16556e+07
-7.01781e+07
-6.63015e+07
-6.49653e+07
-6.13068e+07
-6.00238e+07
-5.65436e+07
-5.53074e+07
-5.20037e+07
-5.0823e+07
-4.76951e+07
-4.65754e+07
-4.36209e+07
-4.25664e+07
-3.97844e+07
-3.88002e+07
-3.6192e+07
-3.52853e+07
-3.28537e+07
-3.20343e+07
-2.97836e+07
-2.90642e+07
-2.70069e+07
-2.64078e+07
-2.45845e+07
-2.41373e+07
-2.26235e+07
-2.23388e+07
-2.11148e+07
-2.08333e+07
-1.93778e+07
-1.8595e+07
-1.57803e+07
-1.42683e+07
-8.97846e+07
-8.91803e+07
-8.49161e+07
-8.30821e+07
-7.84861e+07
-7.68286e+07
-7.26813e+07
-7.11997e+07
-6.7351e+07
-6.59368e+07
-6.22857e+07
-6.0917e+07
-5.74478e+07
-5.61319e+07
-5.28457e+07
-5.15874e+07
-4.84827e+07
-4.72832e+07
-4.43593e+07
-4.322e+07
-4.04795e+07
-3.94042e+07
-3.68539e+07
-3.58495e+07
-3.34987e+07
-3.2575e+07
-3.04341e+07
-2.96045e+07
-2.7688e+07
-2.69727e+07
-2.53119e+07
-2.47394e+07
-2.33742e+07
-2.29432e+07
-2.17751e+07
-2.13126e+07
-1.97564e+07
-1.88067e+07
-1.59829e+07
-1.44639e+07
-9.34652e+06
-6.38308e+06
-8.81552e+06
-5.4741e+06
-7.82231e+06
-4.1979e+06
-6.50763e+06
-2.644e+06
-4.86641e+06
-831552
-2.89591e+06
1.25107e+06
-598829
3.61464e+06
2.01326e+06
6.25541e+06
4.91963e+06
9.15656e+06
8.09328e+06
1.22933e+07
1.15033e+07
1.56365e+07
1.51161e+07
1.91535e+07
1.8895e+07
2.28088e+07
2.28021e+07
2.65654e+07
2.68004e+07
3.03873e+07
3.08608e+07
3.42479e+07
3.49668e+07
3.81286e+07
3.90734e+07
4.19476e+07
4.30367e+07
4.55499e+07
4.71313e+07
4.98728e+07
-2.46476e+06
-919272
-1.843e+06
-77080.7
-635138
1.22996e+06
859002
2.73918e+06
2.54452e+06
4.40768e+06
4.4295e+06
6.26874e+06
6.54204e+06
8.35282e+06
8.89556e+06
1.06692e+07
1.14857e+07
1.32109e+07
1.42966e+07
1.59614e+07
1.73057e+07
1.88988e+07
2.04859e+07
2.19966e+07
2.38065e+07
2.52242e+07
2.72325e+07
2.85452e+07
3.0725e+07
3.19169e+07
3.42435e+07
3.52909e+07
3.77494e+07
3.86152e+07
4.11923e+07
4.18791e+07
4.45779e+07
4.54334e+07
4.83125e+07
4.8919e+07
1.11098e+06
2.21989e+06
1.67473e+06
2.98394e+06
2.77929e+06
4.13368e+06
4.10052e+06
5.43086e+06
5.55435e+06
6.85879e+06
7.17432e+06
8.46212e+06
8.99856e+06
1.02726e+07
1.10434e+07
1.23008e+07
1.33083e+07
1.4543e+07
1.57825e+07
1.69877e+07
1.84489e+07
1.9617e+07
2.12855e+07
2.24076e+07
2.42643e+07
2.53294e+07
2.735e+07
2.83422e+07
3.04972e+07
3.13961e+07
3.36557e+07
3.44516e+07
3.6797e+07
3.75427e+07
3.9991e+07
4.08824e+07
4.3478e+07
4.44536e+07
4.69629e+07
4.78153e+07
4.13039e+06
5.33519e+06
4.67809e+06
6.05671e+06
5.66922e+06
7.08306e+06
6.82482e+06
8.22901e+06
8.0938e+06
9.49566e+06
9.51698e+06
1.09272e+07
1.11316e+07
1.25522e+07
1.29535e+07
1.43805e+07
1.49834e+07
1.64101e+07
1.72134e+07
1.86317e+07
1.96292e+07
2.10296e+07
2.22106e+07
2.35814e+07
2.493e+07
2.6257e+07
2.77511e+07
2.90205e+07
3.06341e+07
3.18463e+07
3.356e+07
3.47574e+07
3.65835e+07
3.78643e+07
3.98593e+07
4.12335e+07
4.33597e+07
4.46394e+07
4.66771e+07
4.76473e+07
7.56217e+06
8.87956e+06
8.07008e+06
9.53398e+06
8.96695e+06
1.04639e+07
1.00096e+07
1.15075e+07
1.11602e+07
1.26659e+07
1.2455e+07
1.39773e+07
1.39266e+07
1.54664e+07
1.55889e+07
1.71414e+07
1.7443e+07
1.90008e+07
1.94825e+07
2.10366e+07
2.16947e+07
2.32347e+07
2.40611e+07
2.55759e+07
2.65572e+07
2.80377e+07
2.91572e+07
3.06044e+07
3.18483e+07
3.32834e+07
3.46548e+07
3.61172e+07
3.76469e+07
3.91432e+07
4.08471e+07
4.22892e+07
4.408e+07
4.53212e+07
4.69933e+07
4.79412e+07
1.12734e+07
1.26013e+07
1.17108e+07
1.31643e+07
1.25122e+07
1.39974e+07
1.34603e+07
1.49489e+07
1.45151e+07
1.60117e+07
1.57051e+07
1.72163e+07
1.70569e+07
1.8583e+07
1.85823e+07
2.01189e+07
2.02821e+07
2.18222e+07
2.21508e+07
2.36862e+07
2.41778e+07
2.57003e+07
2.63487e+07
2.78517e+07
2.86481e+07
3.01306e+07
3.10669e+07
3.25359e+07
3.36107e+07
3.5078e+07
3.63013e+07
3.77657e+07
3.91482e+07
4.05746e+07
4.20931e+07
4.34184e+07
4.49772e+07
4.61307e+07
4.75604e+07
4.84909e+07
1.4989e+07
1.62628e+07
1.5345e+07
1.67279e+07
1.60442e+07
1.74586e+07
1.68966e+07
1.83148e+07
1.78567e+07
1.92809e+07
1.8944e+07
2.03795e+07
2.01804e+07
2.1627e+07
2.15752e+07
2.30293e+07
2.3129e+07
2.4585e+07
2.48376e+07
2.62895e+07
2.66934e+07
2.81362e+07
2.86882e+07
3.01191e+07
3.08155e+07
3.22349e+07
3.30735e+07
3.44825e+07
3.54642e+07
3.68586e+07
3.79847e+07
3.93496e+07
4.06122e+07
4.19233e+07
4.32899e+07
4.45151e+07
4.5904e+07
4.69923e+07
4.82599e+07
4.91547e+07
1.85604e+07
1.97559e+07
1.88382e+07
2.01284e+07
1.94344e+07
2.07573e+07
2.0189e+07
2.15176e+07
2.10532e+07
2.23872e+07
2.20386e+07
2.33817e+07
2.31622e+07
2.45146e+07
2.4432e+07
2.57908e+07
2.58487e+07
2.72098e+07
2.74097e+07
2.87691e+07
2.91107e+07
3.04653e+07
3.09477e+07
3.22953e+07
3.29176e+07
3.4256e+07
3.5017e+07
3.63417e+07
3.72393e+07
3.85421e+07
3.95706e+07
4.08403e+07
4.19869e+07
4.3209e+07
4.44438e+07
4.55932e+07
4.6844e+07
4.7872e+07
4.90086e+07
4.98647e+07
2.19324e+07
2.30438e+07
2.21413e+07
2.33348e+07
2.2641e+07
2.38695e+07
2.33015e+07
2.45387e+07
2.40729e+07
2.53163e+07
2.49603e+07
2.62125e+07
2.59772e+07
2.72382e+07
2.71304e+07
2.83981e+07
2.84211e+07
2.96926e+07
2.98481e+07
3.11203e+07
3.14092e+07
3.26794e+07
3.3102e+07
3.43672e+07
3.49229e+07
3.61791e+07
3.68662e+07
3.81082e+07
3.89223e+07
4.0143e+07
4.10767e+07
4.22676e+07
4.33076e+07
4.44564e+07
4.55757e+07
4.66611e+07
4.77949e+07
4.87793e+07
4.98073e+07
5.06493e+07
2.50891e+07
2.61177e+07
2.52404e+07
2.63405e+07
2.56549e+07
2.67921e+07
2.62295e+07
2.73788e+07
2.69148e+07
2.80718e+07
2.77114e+07
2.88775e+07
2.86298e+07
2.9805e+07
2.96761e+07
3.08588e+07
3.0852e+07
3.20397e+07
3.21572e+07
3.33471e+07
3.35902e+07
3.47795e+07
3.51488e+07
3.63341e+07
3.68291e+07
3.80063e+07
3.86247e+07
3.97889e+07
4.05262e+07
4.16714e+07
4.25199e+07
4.36386e+07
4.45854e+07
4.56673e+07
4.6688e+07
4.77159e+07
4.87563e+07
4.96987e+07
5.06551e+07
5.14712e+07
2.80306e+07
2.8981e+07
2.81357e+07
2.91484e+07
2.84778e+07
2.95291e+07
2.89765e+07
3.00427e+07
2.95843e+07
3.06598e+07
3.02983e+07
3.13835e+07
3.11269e+07
3.22216e+07
3.20757e+07
3.31784e+07
3.31468e+07
3.4255e+07
3.434e+07
3.54512e+07
3.56544e+07
3.67656e+07
3.70877e+07
3.81956e+07
3.86363e+07
3.9737e+07
4.0294e+07
4.1383e+07
4.20522e+07
4.31237e+07
4.38975e+07
4.49444e+07
4.58111e+07
4.68236e+07
4.77623e+07
4.87253e+07
4.96907e+07
5.0577e+07
5.14786e+07
5.22511e+07
3.07654e+07
3.16434e+07
3.08344e+07
3.17669e+07
3.11161e+07
3.20878e+07
3.1549e+07
3.25377e+07
3.20879e+07
3.3087e+07
3.27276e+07
3.37367e+07
3.34747e+07
3.44935e+07
3.43345e+07
3.53614e+07
3.53091e+07
3.63417e+07
3.63986e+07
3.74344e+07
3.76023e+07
3.86382e+07
3.89182e+07
3.99511e+07
4.03429e+07
4.13691e+07
4.18711e+07
4.2886e+07
4.3494e+07
4.4492e+07
4.5199e+07
4.61729e+07
4.69683e+07
4.79096e+07
4.87756e+07
4.96734e+07
5.05715e+07
5.14052e+07
5.22562e+07
5.29974e+07
3.33062e+07
3.41183e+07
3.33477e+07
3.42073e+07
3.35794e+07
3.44779e+07
3.39554e+07
3.48722e+07
3.44333e+07
3.53612e+07
3.50062e+07
3.59441e+07
3.56793e+07
3.66267e+07
3.64575e+07
3.74127e+07
3.73428e+07
3.83035e+07
3.83357e+07
3.92993e+07
3.94356e+07
4.03993e+07
4.06409e+07
4.16015e+07
4.19486e+07
4.29025e+07
4.33535e+07
4.42964e+07
4.48476e+07
4.57739e+07
4.64188e+07
4.73226e+07
4.80519e+07
4.89274e+07
4.97265e+07
5.05664e+07
5.14035e+07
5.21913e+07
5.29972e+07
5.37003e+07
3.56679e+07
3.64204e+07
3.56883e+07
3.64822e+07
3.58788e+07
3.67104e+07
3.62055e+07
3.70558e+07
3.66292e+07
3.74908e+07
3.71417e+07
3.80132e+07
3.77474e+07
3.86277e+07
3.84504e+07
3.9338e+07
3.92529e+07
4.01455e+07
4.01555e+07
4.10506e+07
4.11578e+07
4.20526e+07
4.22586e+07
4.31502e+07
4.34553e+07
4.43401e+07
4.47431e+07
4.56172e+07
4.61148e+07
4.69736e+07
4.75603e+07
4.83993e+07
4.90674e+07
4.98825e+07
5.0621e+07
5.14062e+07
5.21893e+07
5.29287e+07
5.36937e+07
5.43544e+07
3.78655e+07
3.85642e+07
3.78698e+07
3.86043e+07
3.80259e+07
3.87964e+07
3.83096e+07
3.90988e+07
3.86848e+07
3.9485e+07
3.91426e+07
3.99521e+07
3.96864e+07
4.05041e+07
4.032e+07
4.11441e+07
4.10454e+07
4.18738e+07
4.18633e+07
4.26937e+07
4.27738e+07
4.36034e+07
4.37759e+07
4.4602e+07
4.48674e+07
4.56868e+07
4.60444e+07
4.68536e+07
4.73008e+07
4.8096e+07
4.86284e+07
4.94058e+07
5.00176e+07
5.07733e+07
5.14557e+07
5.21831e+07
5.29148e+07
5.35975e+07
5.43237e+07
5.49301e+07
3.99136e+07
4.05639e+07
3.99056e+07
4.05866e+07
4.00326e+07
4.07475e+07
4.02784e+07
4.10114e+07
4.06098e+07
4.13534e+07
4.10177e+07
4.17697e+07
4.15045e+07
4.22637e+07
4.20735e+07
4.28384e+07
4.27269e+07
4.34952e+07
4.34655e+07
4.42349e+07
4.42894e+07
4.50576e+07
4.51982e+07
4.59625e+07
4.61902e+07
4.69478e+07
4.72623e+07
4.801e+07
4.84096e+07
4.91439e+07
4.96251e+07
5.03422e+07
5.09004e+07
5.15959e+07
5.22238e+07
5.28915e+07
5.35708e+07
5.41981e+07
5.48818e+07
5.54492e+07
4.18263e+07
4.2433e+07
4.18085e+07
4.24414e+07
4.19105e+07
4.25749e+07
4.21226e+07
4.28042e+07
4.24143e+07
4.31057e+07
4.27762e+07
4.34751e+07
4.32101e+07
4.39152e+07
4.3719e+07
4.44286e+07
4.43049e+07
4.5017e+07
4.49688e+07
4.56812e+07
4.57111e+07
4.64216e+07
4.65315e+07
4.72377e+07
4.74291e+07
4.81283e+07
4.84014e+07
4.90906e+07
4.94442e+07
5.01199e+07
5.05514e+07
5.12102e+07
5.17157e+07
5.23539e+07
5.29273e+07
5.35407e+07
5.41673e+07
5.47472e+07
5.53891e+07
5.59159e+07
4.36168e+07
4.41846e+07
4.3591e+07
4.41806e+07
4.36711e+07
4.42898e+07
4.38528e+07
4.44876e+07
4.41081e+07
4.47516e+07
4.44275e+07
4.50774e+07
4.48121e+07
4.5467e+07
4.52647e+07
4.5923e+07
4.57871e+07
4.64469e+07
4.63805e+07
4.70397e+07
4.70455e+07
4.7702e+07
4.77822e+07
4.84337e+07
4.85899e+07
4.92339e+07
4.94666e+07
5.01004e+07
5.04091e+07
5.10295e+07
5.14121e+07
5.20162e+07
5.24699e+07
5.30551e+07
5.35755e+07
5.41387e+07
5.47148e+07
5.52487e+07
5.58488e+07
5.63349e+07
4.52978e+07
4.58307e+07
4.52652e+07
4.58158e+07
4.53257e+07
4.59029e+07
4.54797e+07
4.60717e+07
4.57012e+07
4.63011e+07
4.59809e+07
4.6586e+07
4.63194e+07
4.69282e+07
4.6719e+07
4.73299e+07
4.71815e+07
4.77929e+07
4.77082e+07
4.8318e+07
4.82998e+07
4.8906e+07
4.89568e+07
4.95572e+07
4.96786e+07
5.0271e+07
5.0464e+07
5.10459e+07
5.13103e+07
5.18791e+07
5.22137e+07
5.27668e+07
5.31697e+07
5.37046e+07
5.41728e+07
5.46862e+07
5.52113e+07
5.56949e+07
5.62503e+07
5.66836e+07
4.68811e+07
4.73831e+07
4.68423e+07
4.73582e+07
4.6885e+07
4.74249e+07
4.70133e+07
4.75668e+07
4.72035e+07
4.77636e+07
4.7446e+07
4.801e+07
4.7741e+07
4.83075e+07
4.80905e+07
4.86579e+07
4.84963e+07
4.90629e+07
4.89597e+07
4.95236e+07
4.94815e+07
5.00409e+07
5.00623e+07
5.06153e+07
5.07022e+07
5.12466e+07
5.14003e+07
5.19338e+07
5.21546e+07
5.26751e+07
5.29624e+07
5.34673e+07
5.38199e+07
5.43068e+07
5.47221e+07
5.51874e+07
5.5658e+07
5.60943e+07
5.65967e+07
5.69909e+07
4.83781e+07
4.88528e+07
4.83335e+07
4.88183e+07
4.83594e+07
4.8866e+07
4.84639e+07
4.89826e+07
4.86246e+07
4.91487e+07
4.88321e+07
4.93588e+07