/*--------------------------------*- C++ -*----------------------------------*\
| =========                 |                                                 |
| \\      /  F ield         | OpenFOAM: The Open Source CFD Toolbox           |
|  \\    /   O peration     | Version:  v2012                                 |
|   \\  /    A nd           | Website:  www.openfoam.com                      |
|    \\/     M anipulation  |                                                 |
\*---------------------------------------------------------------------------*/
FoamFile
{
    version     2.0;
    format      ascii;
    class       volSymmTensorField;
    location    "11";
    object      epsilon;
}
// * * * * * * * * * * * * * * * * * * * * * * * * * * * * * * * * * * * * * //

dimensions      [0 0 0 0 0 0 0];


internalField   nonuniform List<symmTensor> 
2000
(
(0.01938 -0.00205588 5.30995e-18 -0.0179953 -5.22436e-19 1.08479e-33)
(0.0115871 -0.000829264 2.91398e-18 -0.00874973 -3.16981e-18 0)
(0.0144421 -0.00115954 -4.19262e-18 -0.011375 -5.97039e-19 0)
(0.0108473 -0.000894713 -1.94902e-18 -0.00852361 1.67594e-18 0)
(0.0120258 -0.000782212 3.4325e-18 -0.00924847 3.79364e-19 0)
(0.00998197 -0.000822686 5.96322e-19 -0.00757841 -1.04239e-18 0)
(0.0103443 -0.000620768 -1.71332e-18 -0.0074206 6.09672e-19 0)
(0.00898413 -0.000685281 -3.64633e-18 -0.00635444 -1.36476e-18 0)
(0.00887282 -0.000544861 -5.98525e-18 -0.00578343 -1.23697e-18 0)
(0.0078199 -0.000496834 -8.36503e-19 -0.00498598 1.09122e-18 0)
(0.00745308 -0.000474983 0 -0.00425011 0 0)
(0.00659886 -0.000284504 0 -0.00358771 0 0)
(0.00613725 -0.00038082 -9.18038e-19 -0.00291616 1.08834e-19 0)
(0.0054968 -9.16134e-05 -1.50566e-18 -0.0023928 -4.2427e-19 0)
(0.0050276 -0.000271988 -6.241e-19 -0.00188765 -2.56892e-19 0)
(0.00462727 6.27809e-05 9.06995e-19 -0.00152903 3.54154e-19 0)
(0.00417496 -0.000165253 0 -0.00117027 0 0)
(0.00401226 0.000179391 0 -0.000972468 0 0)
(0.00359501 -6.62838e-05 0 -0.000775622 0 0)
(0.0035736 0.000266927 -3.21887e-19 -0.000703694 -1.32453e-19 0)
(0.00921762 -0.00204724 0 -0.00844141 0 0)
(0.0113937 -0.00248543 1.2409e-18 -0.00825928 8.44287e-19 0)
(0.00991554 -0.00201603 -7.94434e-20 -0.00771208 7.71299e-19 0)
(0.0103712 -0.00227152 1.21221e-18 -0.00763933 1.21749e-19 0)
(0.00935759 -0.00185484 4.61298e-19 -0.00694593 -9.12591e-19 0)
(0.00918499 -0.00193268 4.79634e-19 -0.00659335 -9.57714e-19 0)
(0.00829064 -0.00158168 -1.59105e-18 -0.00554263 9.64605e-19 0)
(0.00784497 -0.00148121 -3.08787e-18 -0.00521246 -8.50325e-19 0)
(0.0071066 -0.00126449 -5.81548e-18 -0.00411497 -1.80928e-18 0)
(0.00655652 -0.00100358 -3.84005e-18 -0.00387417 -5.24824e-19 0)
(0.00604638 -0.000937442 -1.01881e-18 -0.00298979 -5.43688e-19 0)
(0.00550672 -0.000574442 2.48331e-19 -0.00280081 2.039e-19 0)
(0.00519843 -0.000627188 1.57023e-18 -0.00221219 7.82523e-19 0)
(0.0047541 -0.000220817 1.33055e-19 -0.0020597 5.19392e-20 0)
(0.0045523 -0.000349096 -1.7123e-18 -0.00170652 -9.73468e-19 0)
(0.004251 6.68671e-05 -1.10694e-18 -0.00160461 -8.11308e-19 0)
(0.00406946 -0.000105252 5.21981e-19 -0.00137911 3.38951e-19 0)
(0.00391689 0.000307895 8.92781e-19 -0.00134173 6.31695e-19 0)
(0.00366851 0.000107803 1.23124e-18 -0.00112264 7.61516e-19 0)
(0.00359301 0.000482088 1.06332e-18 -0.00113728 8.05679e-19 0)
(0.0111816 -0.00447747 -1.90929e-18 -0.0101855 6.36915e-19 2.9378e-34)
(0.00989502 -0.00346637 -2.98138e-18 -0.00700228 6.59718e-19 0)
(0.00919486 -0.00327489 -1.27076e-19 -0.00670648 -6.7026e-19 0)
(0.00831953 -0.00287575 1.11234e-18 -0.00594137 6.30655e-19 0)
(0.00761197 -0.00252639 2.30135e-19 -0.0047714 4.35602e-19 0)
(0.00675981 -0.0021439 -2.32643e-18 -0.00454316 -1.52371e-18 0)
(0.00631613 -0.00186871 -2.80641e-18 -0.00318553 -7.10387e-19 0)
(0.00547789 -0.00145478 -2.30061e-18 -0.00326083 -4.0486e-19 0)
(0.00539793 -0.00133263 0 -0.00224827 0 0)
(0.00469115 -0.000932087 0 -0.0024488 0 0)
(0.00481109 -0.000910261 -6.51462e-19 -0.00186782 -3.86015e-19 0)
(0.0043288 -0.000538837 -2.17227e-18 -0.00204976 -1.22094e-18 0)
(0.00444383 -0.000559699 -2.22392e-18 -0.00177384 -1.3085e-18 0)
(0.00420472 -0.000209935 -2.43578e-19 -0.00188975 -4.77527e-19 0)
(0.00419907 -0.000252964 1.37622e-18 -0.00177147 1.06009e-18 0)
(0.00416439 8.69592e-05 1.07845e-18 -0.00183519 8.4624e-19 0)
(0.00399853 1.42168e-05 5.48723e-19 -0.00176383 2.71183e-19 0)
(0.00410161 0.000351227 -2.2539e-19 -0.0017788 -1.30622e-19 0)
(0.00380972 0.000238661 -1.21385e-19 -0.00168435 2.1407e-20 0)
(0.00392529 0.00056125 1.47952e-18 -0.00166615 1.29753e-18 0)
(0.0077319 -0.00447897 2.75122e-18 -0.00629128 -1.13098e-18 7.96142e-34)
(0.00717161 -0.00347516 1.53543e-18 -0.00485395 -1.31292e-18 0)
(0.0061489 -0.00305824 2.79591e-19 -0.00343626 7.55225e-19 0)
(0.0053257 -0.00235965 -1.03093e-18 -0.00336416 -8.57943e-20 0)
(0.00487903 -0.00205809 -3.58678e-19 -0.00193689 -1.11342e-19 0)
(0.00399697 -0.00147792 2.91738e-19 -0.00218553 1.06314e-19 0)
(0.0041252 -0.00138916 1.64667e-18 -0.00129855 9.55682e-19 0)
(0.00340575 -0.000962242 1.38275e-18 -0.00159607 1.04509e-18 0)
(0.00384888 -0.000938621 2.0379e-18 -0.00129051 1.76545e-18 0)
(0.00333696 -0.000667207 1.17832e-18 -0.00148184 1.36961e-18 0)
(0.0038342 -0.000614233 2.58292e-18 -0.00146562 2.27619e-18 0)
(0.0034813 -0.000436731 9.93468e-19 -0.00157834 1.04035e-18 0)
(0.00389774 -0.000353457 1.22952e-18 -0.00165853 5.85035e-19 0)
(0.00365236 -0.000207519 1.33748e-18 -0.00173105 9.26434e-19 0)
(0.00395226 -0.000115793 9.194e-19 -0.00183101 9.97555e-19 0)
(0.00377124 2.6054e-05 1.33975e-18 -0.00187608 1.39663e-18 0)
(0.00397128 0.000101242 6.58788e-19 -0.00195365 3.08409e-19 0)
(0.00385518 0.000245452 1.38485e-19 -0.0019572 6.06996e-20 0)
(0.00388772 0.000287909 -1.13045e-18 -0.00195575 -9.22608e-19 0)
(0.00380431 0.000425918 -4.31553e-19 -0.00189863 -3.93616e-19 0)
(0.00477914 -0.00346833 -1.11022e-18 -0.00263952 1.98089e-19 5.39407e-34)
(0.00402981 -0.00231208 1.45566e-18 -0.00219094 4.6472e-19 0)
(0.00338649 -0.00201741 3.4204e-19 -0.00107494 -1.97968e-19 0)
(0.00293963 -0.00140743 -1.10357e-18 -0.00117854 -1.01835e-18 0)
(0.0028793 -0.00132245 -2.99113e-19 -0.000807373 3.23855e-19 0)
(0.00273161 -0.00102144 3.61353e-19 -0.00103832 7.302e-19 0)
(0.00287205 -0.000959825 -4.00621e-19 -0.00105477 -7.29022e-19 0)
(0.00283956 -0.000762893 -7.20853e-19 -0.00111919 -7.00937e-19 0)
(0.00300223 -0.000693665 -1.47805e-18 -0.001176 -8.05832e-19 0)
(0.00294544 -0.000541437 2.89789e-19 -0.00123444 2.24553e-21 0)
(0.00312181 -0.000465804 -7.33247e-19 -0.00127496 -8.05813e-19 0)
(0.00300502 -0.000344482 -1.57408e-18 -0.00136553 -8.41924e-19 0)
(0.00327387 -0.000259859 -1.60196e-18 -0.00146544 -1.16456e-18 0)
(0.00309034 -0.000187534 -4.82815e-19 -0.00146145 -6.70444e-19 0)
(0.00345132 -8.63056e-05 6.63827e-20 -0.00162634 2.69604e-19 0)
(0.00325406 -3.53146e-05 -6.43461e-19 -0.00163755 -1.88698e-19 0)
(0.00354829 7.60542e-05 -4.58129e-19 -0.00175933 -6.08187e-19 0)
(0.00335525 0.000118106 -3.99423e-19 -0.00174673 -8.02535e-19 0)
(0.00356737 0.00021834 7.94692e-19 -0.00181944 7.4696e-19 0)
(0.00338149 0.000261257 1.11688e-19 -0.00179062 2.58608e-19 0)
(0.00241426 -0.00183738 4.81323e-19 -0.000512542 -2.58706e-19 -5.82118e-35)
(0.00243296 -0.0014845 2.76273e-18 -0.000584163 6.62964e-20 0)
(0.00236857 -0.00141066 1.90847e-18 -0.000591599 9.01419e-19 0)
(0.00246331 -0.00118062 5.25403e-20 -0.000773214 9.09075e-19 0)
(0.00251515 -0.00111469 -1.45074e-18 -0.000730466 -1.07037e-18 0)
(0.00253738 -0.00091143 -1.38506e-18 -0.000942174 -1.10416e-18 0)
(0.00265312 -0.000851138 -3.533e-19 -0.000909704 8.62874e-20 0)
(0.00262415 -0.000679281 1.49216e-18 -0.00108645 7.46987e-19 0)
(0.00277152 -0.00063246 8.08724e-19 -0.00109272 7.01107e-19 0)
(0.00272783 -0.000479243 1.86216e-18 -0.00121436 1.51636e-18 0)
(0.00288391 -0.000451791 1.33115e-18 -0.00124437 1.09804e-18 0)
(0.002829 -0.000308111 1.01802e-18 -0.00131835 1.11625e-18 0)
(0.00296867 -0.000290664 0 -0.00137697 0 0)
(0.00291929 -0.000158858 4.83305e-19 -0.00141584 3.78922e-19 0)
(0.00301835 -0.000138864 6.97605e-20 -0.00148705 2.99326e-19 0)
(0.00297551 -3.46103e-05 2.85972e-19 -0.0014979 3.42929e-19 0)
(0.00303673 1.21794e-06 6.64923e-19 -0.00156519 4.1357e-19 0)
(0.00300084 6.62574e-05 2.08364e-19 -0.00156105 5.11169e-20 0)
(0.00314008 0.000124703 1.81613e-18 -0.00166709 1.97515e-18 0)
(0.00307516 0.000151777 2.02734e-18 -0.00164077 2.16515e-18 0)
(0.00191282 -0.00171162 5.29473e-19 -0.00022444 -3.52967e-19 -9.75409e-35)
(0.00202376 -0.00137714 -1.18071e-18 -0.000432949 -1.27926e-18 0)
(0.00205707 -0.00130933 7.33296e-19 -0.000494895 4.02657e-19 0)
(0.00211609 -0.00105579 2.47219e-18 -0.000692963 1.01929e-18 0)
(0.002222 -0.000985265 1.47721e-18 -0.000723363 1.11129e-18 0)
(0.00225033 -0.000785299 8.17904e-19 -0.000891405 1.37049e-18 0)
(0.00238706 -0.00074018 -3.28885e-19 -0.000932391 1.22173e-19 0)
(0.00238664 -0.000577637 -6.00052e-19 -0.00106494 -3.9603e-19 0)
(0.00253158 -0.000555086 -4.72451e-19 -0.00112026 -1.19652e-18 0)
(0.00251547 -0.000414578 -1.52888e-18 -0.00121394 -1.48452e-18 0)
(0.0026492 -0.000406672 -1.079e-18 -0.00128113 -2.9034e-19 0)
(0.00263247 -0.000280636 0 -0.00133659 0 0)
(0.00274361 -0.000280526 -6.00391e-19 -0.00141007 -1.08085e-18 0)
(0.00273522 -0.000164457 -5.96494e-19 -0.0014313 -1.09833e-18 0)
(0.00281829 -0.00016989 1.79048e-19 -0.00150762 6.58256e-19 0)
(0.00281756 -6.64507e-05 2.87899e-18 -0.0015024 2.522e-18 0)
(0.00288294 -7.58763e-05 1.43051e-18 -0.00157286 1.07073e-18 0)
(0.00288045 1.12937e-05 9.76744e-19 -0.00154909 1.02646e-18 0)
(0.00292025 8.29942e-06 -8.14061e-19 -0.00162478 -6.93393e-19 0)
(0.00291784 7.15437e-05 -4.06953e-19 -0.00157682 -3.36795e-19 0)
(0.0014372 -0.00156379 -5.69133e-19 0.000106094 1.56619e-19 1.07181e-34)
(0.00153213 -0.00118416 -1.76982e-18 -0.000329266 3.50986e-19 0)
(0.00168596 -0.0011774 -2.78509e-18 -0.000379088 -1.55011e-18 0)
(0.00175014 -0.000883311 -3.61103e-18 -0.000635064 -2.65669e-18 0)
(0.00192623 -0.000874472 -1.66413e-18 -0.000709624 -1.4392e-18 0)
(0.00196308 -0.000652017 -3.29465e-19 -0.000862707 -1.44656e-18 0)
(0.00213569 -0.000660102 -6.09941e-19 -0.000963866 -4.02765e-19 0)
(0.0021512 -0.000486939 -8.47705e-19 -0.0010499 -2.66144e-19 0)
(0.0023071 -0.000507291 -2.6597e-19 -0.00116461 -3.22104e-19 0)
(0.00231216 -0.000365417 -1.33452e-18 -0.00120266 -1.12579e-18 0)
(0.00244367 -0.000390139 -1.34996e-18 -0.00132232 -1.09982e-18 0)
(0.00244725 -0.000269174 -5.60797e-19 -0.00132266 -7.91806e-19 0)
(0.00254986 -0.000293883 -7.97678e-20 -0.00144557 -3.78034e-19 0)
(0.00255644 -0.000187988 -2.16173e-18 -0.00141338 -1.37046e-18 0)
(0.00263183 -0.000212354 -2.74821e-18 -0.00154119 -2.09241e-18 0)
(0.00264067 -0.000118252 -1.79143e-18 -0.0014818 -1.76665e-18 0)
(0.00269909 -0.000144103 -2.1323e-19 -0.00161262 2.32372e-21 0)
(0.00270365 -6.09913e-05 8.0544e-19 -0.00153323 3.44162e-19 0)
(0.00276063 -9.00092e-05 1.37945e-18 -0.00165853 1.01751e-18 0)
(0.00274909 -1.76007e-05 5.58327e-19 -0.00156524 6.50854e-19 0)
(0.000946715 -0.00125142 1.03851e-18 0.000282205 -6.81327e-19 2.50012e-34)
(0.00106935 -0.000924038 -9.35336e-20 -0.000276263 -1.31161e-18 0)
(0.00132323 -0.000973782 1.29379e-18 -0.000283547 1.71613e-18 0)
(0.00139503 -0.000689482 -4.50605e-19 -0.000608264 1.27168e-18 0)
(0.00163117 -0.000749542 6.60086e-19 -0.000685723 3.85638e-19 0)
(0.00167472 -0.000521815 2.46985e-19 -0.000849452 -1.88998e-19 0)
(0.00187902 -0.000595608 1.44643e-18 -0.000977176 1.09866e-18 0)
(0.00190402 -0.000410796 1.88933e-19 -0.00103832 3.83654e-19 0)
(0.00207565 -0.000487421 8.19311e-19 -0.00118971 2.36767e-19 0)
(0.0020902 -0.000333894 0 -0.00118769 0 0)
(0.00223278 -0.000403083 5.92729e-19 -0.00134367 7.99836e-19 0)
(0.00224099 -0.000276716 7.84692e-19 -0.00130146 7.13242e-19 0)
(0.00235616 -0.000330824 1.8058e-18 -0.00145513 1.40291e-18 0)
(0.00236336 -0.000233217 7.82378e-19 -0.00137811 6.95061e-19 0)
(0.00244814 -0.000267267 6.7544e-19 -0.00153816 2.9882e-19 0)
(0.00246612 -0.000201325 -4.59658e-19 -0.00141029 -3.22111e-19 0)
(0.00251721 -0.000216803 -1.02825e-18 -0.00160538 -1.02568e-18 0)
(0.00256365 -0.000180379 -7.73373e-19 -0.00138326 -6.49304e-19 0)
(0.00259458 -0.000192137 -6.07028e-19 -0.00166275 -3.15356e-19 0)
(0.00265864 -0.000164936 7.78027e-19 -0.00129551 3.76052e-19 0)
(0.000555128 -0.00085406 -5.14259e-19 0.000323345 5.91817e-19 -1.4689e-34)
(0.000688305 -0.00061044 2.07959e-18 -0.000290095 1.37835e-18 0)
(0.00100772 -0.000721367 -3.8045e-19 -0.000254155 -6.87637e-19 0)
(0.00108413 -0.000477362 -2.38772e-19 -0.000624903 2.60337e-19 0)
(0.00135 -0.000606476 -1.55964e-18 -0.000680505 -4.41122e-19 0)
(0.00140129 -0.000394004 2.18493e-19 -0.000862135 -2.14489e-19 0)
(0.00161244 -0.000532385 -3.40468e-19 -0.000980791 -5.77139e-19 0)
(0.00165302 -0.00034795 -7.73177e-19 -0.00103585 -1.63596e-19 0)
(0.00181273 -0.000482065 -7.84381e-19 -0.00119154 -1.86898e-19 0)
(0.00185381 -0.000319547 0 -0.00116579 0 0)
(0.0019698 -0.000442174 -5.15401e-19 -0.00133838 -3.43475e-19 0)
(0.0020135 -0.000297613 0 -0.00126946 0 0)
(0.0020998 -0.000405294 1.23321e-19 -0.0014397 3.99978e-19 0)
(0.00214101 -0.000278752 1.40902e-18 -0.00136539 8.81948e-19 0)
(0.00221945 -0.000365085 8.36419e-19 -0.00151172 1.84585e-19 0)
(0.00225105 -0.000265467 -1.634e-19 -0.00146912 4.80483e-20 0)
(0.00235008 -0.000314351 -1.79766e-19 -0.00157537 4.49297e-20 0)
(0.00236505 -0.000270272 1.00669e-18 -0.00158225 5.56914e-19 0)
(0.00251079 -0.000246708 7.79388e-19 -0.00165716 6.10552e-19 0)
(0.00243495 -0.000305023 1.85143e-19 -0.00175908 3.42334e-19 0)
(0.000288809 -0.00042946 4.33201e-19 0.000230059 -5.96855e-19 -1.50226e-34)
(0.000408917 -0.000277355 -4.07881e-19 -0.000386674 -1.06988e-18 0)
(0.000764324 -0.000451366 6.4951e-19 -0.000294955 3.09339e-19 0)
(0.000834032 -0.00025789 8.08874e-19 -0.000690742 2.47345e-20 0)
(0.00110613 -0.000456576 1.35881e-18 -0.000700807 1.58952e-18 0)
(0.00115805 -0.000265081 2.60173e-18 -0.000904482 2.02776e-18 0)
(0.00136546 -0.000468785 2.75581e-18 -0.000980877 1.9218e-18 0)
(0.00140908 -0.000287565 7.80437e-19 -0.00105528 1.24424e-18 0)
(0.001563 -0.000477986 1.34385e-18 -0.00117205 9.3929e-19 0)
(0.00160838 -0.000311667 2.47596e-19 -0.00116045 3.57485e-19 0)
(0.00171307 -0.000477511 1.30429e-18 -0.00130379 9.13001e-19 0)
(0.00177243 -0.000328004 2.78529e-19 -0.00123289 3.40546e-19 0)
(0.00182513 -0.000462114 -4.23436e-19 -0.0013978 -8.08541e-19 0)
(0.00191921 -0.000326068 -3.01207e-19 -0.00129432 -3.25543e-19 0)
(0.00190881 -0.000421964 -1.73692e-19 -0.00147537 8.3593e-20 0)
(0.00206065 -0.000294201 -5.57359e-19 -0.00139986 -2.00107e-19 0)
(0.00195685 -0.00034849 -1.31302e-18 -0.00157448 -1.19316e-18 0)
(0.00214124 -0.000248614 -7.71584e-19 -0.00166339 -9.32924e-19 0)
(0.00187344 -0.000283162 1.67136e-19 -0.00177013 3.16981e-19 0)
(0.00232262 -0.000405345 9.46362e-19 -0.0015083 7.27609e-19 0)
(0.000153588 -2.78779e-05 0 1.1962e-05 0 0)
(0.000238843 4.20112e-05 0 -0.000565355 0 0)
(0.000601895 -0.000189772 0 -0.000410921 0 0)
(0.000653767 -4.78578e-05 -7.10316e-19 -0.000802826 1.35782e-20 0)
(0.000905791 -0.000305823 -7.52698e-19 -0.000756674 1.49485e-20 0)
(0.000957043 -0.000138912 8.2515e-19 -0.000964604 -2.02352e-19 0)
(0.0011352 -0.000398202 3.59618e-19 -0.00098993 -4.84015e-19 0)
(0.0011898 -0.000221346 0 -0.00107305 0 0)
(0.00131545 -0.000465259 -4.03814e-19 -0.00114315 1.87865e-19 0)
(0.00137461 -0.000289224 1.66893e-18 -0.0011506 1.10193e-18 0)
(0.00146335 -0.000506914 8.99199e-19 -0.00124501 9.53411e-19 0)
(0.00152545 -0.000339434 2.78719e-19 -0.0012178 8.76549e-19 0)
(0.00159101 -0.000516784 2.91807e-19 -0.00131854 -1.19192e-19 0)
(0.00165705 -0.000363333 -1.00878e-18 -0.00129373 -8.72969e-19 0)
(0.00170125 -0.000480446 5.95446e-19 -0.00138783 6.1001e-19 0)
(0.00177158 -0.000347116 1.09959e-18 -0.00139072 7.64233e-19 0)
(0.0017507 -0.000406913 3.56278e-19 -0.00148927 -1.62971e-19 0)
(0.00180437 -0.000306123 -1.17893e-18 -0.00150404 -7.14207e-19 0)
(0.00160485 -0.000394899 -1.20206e-18 -0.00167818 -7.34077e-19 0)
(0.00203929 -0.000495839 -5.69966e-19 -0.00121739 -4.58006e-19 0)
(0.000137036 0.000311841 1.11638e-19 -0.000307152 -5.77661e-19 -2.65723e-34)
(0.000172635 0.000318036 -1.02549e-18 -0.000810298 -9.24131e-19 0)
(0.000519501 3.94979e-05 -1.18566e-18 -0.000588933 -8.11899e-19 0)
(0.000542237 0.000136745 -1.0824e-18 -0.000953998 -8.87458e-19 0)
(0.000758066 -0.000165539 -1.15671e-18 -0.000843599 -2.07058e-19 0)
(0.000798675 -2.32976e-05 5.82592e-19 -0.00104633 4.1353e-21 0)
(0.000939263 -0.000320615 1.19837e-18 -0.00101113 7.64033e-19 0)
(0.000994538 -0.000154174 -1.39322e-20 -0.00110193 7.18313e-19 0)
(0.00108713 -0.000429663 -1.30026e-18 -0.00111816 -1.17408e-18 0)
(0.00115386 -0.000255572 -2.5683e-19 -0.00113851 -9.26927e-19 0)
(0.00121318 -0.000497867 -2.92953e-19 -0.00118938 1.60835e-19 0)
(0.00129053 -0.000327014 1.07556e-18 -0.00117138 7.03435e-19 0)
(0.00132614 -0.000523318 7.07551e-19 -0.00124241 4.53215e-19 0)
(0.00141524 -0.000361741 7.1812e-20 -0.0012134 4.72452e-19 0)
(0.00142608 -0.000502624 -1.65019e-18 -0.00129164 -1.21101e-18 0)
(0.00151492 -0.000357635 -1.92321e-18 -0.00127579 -1.39629e-18 0)
(0.00146812 -0.000463778 -1.23142e-19 -0.00136086 8.50742e-20 0)
(0.00151316 -0.000358642 -3.40956e-19 -0.00138475 -1.99523e-19 0)
(0.00134209 -0.000487083 -5.14562e-19 -0.00150478 -5.07661e-19 0)
(0.00169988 -0.000576564 -2.36978e-19 -0.00110845 5.49503e-20 0)
(0.000215748 0.00056234 0 -0.000692437 0 0)
(0.000192849 0.000526395 0 -0.00110017 0 0)
(0.000503766 0.000220026 9.94598e-19 -0.000810208 1.72929e-18 0)
(0.000489982 0.000281119 1.40729e-18 -0.00113271 1.67321e-18 0)
(0.000655399 -4.35355e-05 1.0659e-18 -0.000953448 7.03415e-19 0)
(0.000682123 7.44292e-05 9.78029e-19 -0.00114165 7.51695e-19 0)
(0.00077255 -0.000239639 5.29964e-19 -0.0010411 -1.55605e-20 0)
(0.000830025 -8.77814e-05 -7.75175e-20 -0.00113437 1.84203e-19 0)
(0.000876528 -0.00037701 -7.82558e-19 -0.00109112 -8.30211e-19 0)
(0.000954456 -0.000210553 -1.49794e-18 -0.0011238 -1.2527e-18 0)
(0.000972821 -0.000465957 -1.58229e-18 -0.00112202 -1.14733e-18 0)
(0.00106421 -0.000297479 -1.1997e-18 -0.00112105 -8.52946e-19 0)
(0.00106632 -0.000509207 -2.02193e-18 -0.0011468 -1.13885e-18 0)
(0.00116601 -0.000346216 -3.5094e-19 -0.00113454 -6.7399e-19 0)
(0.00115562 -0.000508156 1.23136e-18 -0.00117616 1.25498e-18 0)
(0.00124863 -0.000361077 1.99256e-18 -0.00117545 1.4175e-18 0)
(0.00119693 -0.000487906 1.55116e-18 -0.00123163 9.20813e-19 0)
(0.00124262 -0.000383079 1.43944e-18 -0.00127397 9.4356e-19 0)
(0.00107162 -0.000518389 1.32146e-18 -0.00136007 6.73964e-19 0)
(0.00139498 -0.000595425 8.73957e-19 -0.000991234 6.30196e-19 0)
(0.000359233 0.00070663 -8.0395e-20 -0.00110427 6.09037e-19 -2.11976e-34)
(0.000277816 0.000652887 3.34693e-19 -0.00140759 1.18071e-18 0)
(0.000538989 0.000338624 -1.34069e-18 -0.00105223 -1.45725e-18 0)
(0.000485449 0.000375691 -1.26134e-18 -0.00132372 -1.28278e-18 0)
(0.000593608 4.98494e-05 -1.33703e-18 -0.0010752 -5.58098e-19 0)
(0.000602334 0.00014727 -4.94454e-19 -0.00124541 -4.84708e-19 0)
(0.000639367 -0.000164103 -1.05157e-18 -0.00107723 -9.91195e-19 0)
(0.00069451 -2.85425e-05 -5.97423e-19 -0.00117344 -1.03996e-18 0)
(0.000693894 -0.000314624 4.943e-19 -0.00106682 5.31561e-19 0)
(0.000778022 -0.000160633 4.67966e-19 -0.00111451 5.33507e-19 0)
(0.000756207 -0.000415159 1.16719e-18 -0.00105505 7.9483e-19 0)
(0.000856785 -0.000255793 8.2576e-19 -0.00107487 5.05266e-19 0)
(0.000827695 -0.00047094 1.0425e-18 -0.00105019 3.35152e-19 0)
(0.000935152 -0.00031515 -2.89817e-19 -0.00106081 -1.36119e-19 0)
(0.000906044 -0.000484115 1.69404e-19 -0.00106077 2.60933e-19 0)
(0.00100233 -0.000344291 7.81296e-19 -0.00108336 4.59239e-19 0)
(0.000944405 -0.000475773 5.37333e-19 -0.00110475 3.052e-19 0)
(0.000988618 -0.000376771 1.7233e-19 -0.00116727 2.49663e-19 0)
(0.000814622 -0.000505761 2.73038e-19 -0.00121967 1.48381e-19 0)
(0.00110035 -0.000568545 -3.67475e-19 -0.000874919 -4.49563e-20 0)
(0.000534454 0.000740553 9.34433e-20 -0.00150406 -4.8122e-19 -1.251e-34)
(0.000402194 0.000692964 -9.15671e-20 -0.00170588 -5.95555e-19 0)
(0.000606652 0.000388571 2.89707e-19 -0.00129379 1.91784e-19 0)
(0.000515032 0.000415851 -2.46333e-21 -0.00151115 2.1124e-19 0)
(0.000565386 0.000107813 -4.46638e-19 -0.00119977 -3.77425e-19 0)
(0.000554292 0.000190572 -6.65634e-19 -0.00134881 -7.70314e-19 0)
(0.000540313 -0.000100361 7.32049e-19 -0.00111879 6.73839e-19 0)
(0.000589238 1.91279e-05 6.90791e-19 -0.0012152 5.23767e-19 0)
(0.000545632 -0.000248042 -9.66629e-20 -0.00105045 -4.61492e-19 0)
(0.000630829 -0.000109656 -7.17723e-19 -0.0011105 -3.45424e-19 0)
(0.0005736 -0.0003495 -1.5094e-18 -0.000998202 -8.14921e-19 0)
(0.00067802 -0.000204353 -5.50713e-19 -0.00103613 -6.88505e-19 0)
(0.000621713 -0.00041029 9.85911e-19 -0.000965465 9.68017e-19 0)
(0.000732829 -0.000267509 9.78002e-19 -0.000995985 8.96382e-19 0)
(0.000685953 -0.000432143 -5.13073e-19 -0.000957823 -6.4872e-19 0)
(0.000783769 -0.000303872 -1.03271e-18 -0.000999033 -7.13602e-19 0)
(0.000717108 -0.000431727 -1.4119e-19 -0.000988379 1.70704e-19 0)
(0.000759553 -0.000340105 4.58644e-19 -0.00106405 2.14518e-19 0)
(0.000583347 -0.000457347 5.11592e-19 -0.00108473 1.93249e-19 0)
(0.000829785 -0.00050373 7.43787e-20 -0.0007666 1.8132e-20 0)
(0.000711194 0.000672078 7.88935e-20 -0.00185869 -9.93334e-19 -5.62918e-34)
(0.000539402 0.000650554 -8.49672e-19 -0.00197364 -1.48545e-18 0)
(0.00068708 0.000370232 -4.93167e-19 -0.0015136 -3.60671e-19 0)
(0.000564205 0.000402122 -1.59636e-19 -0.00167729 -6.06302e-19 0)
(0.000558963 0.000127395 -1.52728e-20 -0.00131764 -1.78563e-19 0)
(0.000530649 0.000203434 -3.72403e-19 -0.00143972 -2.10227e-20 0)
(0.000470075 -5.2561e-05 -1.19013e-18 -0.00116484 -8.57938e-19 0)
(0.000512799 5.36867e-05 -1.05831e-18 -0.00125295 -1.03482e-18 0)
(0.000431568 -0.000182202 -1.78498e-20 -0.0010467 1.22667e-19 0)
(0.000516195 -5.95874e-05 0 -0.00111019 0 0)
(0.000428729 -0.000274292 5.68877e-19 -0.000958707 4.40076e-19 0)
(0.000534193 -0.000145208 3.36796e-19 -0.00100701 2.54128e-19 0)
(0.000455052 -0.000332814 1.63062e-19 -0.000899783 1.12284e-19 0)
(0.000566178 -0.000205502 5.32083e-19 -0.000943662 2.5619e-19 0)
(0.000504243 -0.000358434 1.14351e-18 -0.000872928 5.8614e-19 0)
(0.000599559 -0.000243277 8.38057e-19 -0.00092576 5.28755e-19 0)
(0.000525704 -0.000362724 7.29332e-19 -0.000886431 3.95491e-19 0)
(0.000563729 -0.000277785 8.27193e-19 -0.000966646 5.30262e-19 0)
(0.000389433 -0.000380473 5.92997e-19 -0.000958997 2.45928e-19 0)
(0.000599359 -0.000407114 4.70366e-19 -0.000667045 3.17046e-19 0)
(0.00086291 0.000515975 -1.97282e-20 -0.0021452 1.0876e-18 -4.49259e-34)
(0.000662751 0.000537925 4.16142e-19 -0.00220076 1.12638e-18 0)
(0.000756388 0.000290382 6.61786e-19 -0.00169535 1.06867e-18 0)
(0.000617544 0.000341914 4.95925e-19 -0.00180585 8.61643e-19 0)
(0.000558387 0.000111583 3.48895e-19 -0.00142045 6.70159e-20 0)
(0.000522373 0.000190146 3.52039e-19 -0.00150838 3.40689e-19 0)
(0.000422234 -2.09093e-05 2.63788e-19 -0.00121287 2.57373e-19 0)
(0.000462774 7.55209e-05 1.35982e-19 -0.00128419 3.39618e-19 0)
(0.000351153 -0.000120201 -7.02431e-19 -0.0010558 -6.43767e-19 0)
(0.000435872 -1.37445e-05 -4.76519e-19 -0.00111461 -4.93252e-19 0)
(0.000323607 -0.000194071 -7.49678e-19 -0.000937844 -3.99745e-19 0)
(0.000429053 -8.43064e-05 -2.39278e-19 -0.000990642 -2.16112e-19 0)
(0.000331293 -0.00024402 -5.46428e-20 -0.000854856 1.36372e-19 0)
(0.000439209 -0.000137269 3.63628e-19 -0.000909883 2.75247e-19 0)
(0.00036678 -0.000269747 -2.43026e-19 -0.000806942 -2.73736e-19 0)
(0.000452878 -0.000172894 -2.39875e-19 -0.000872486 -1.83131e-19 0)
(0.000379482 -0.000277204 -5.51299e-19 -0.000796744 -3.05778e-19 0)
(0.00040461 -0.000201809 -2.54629e-19 -0.000882563 -1.45432e-19 0)
(0.000247036 -0.00028601 3.54302e-20 -0.000834684 2.19441e-19 0)
(0.000415281 -0.000292567 -4.73454e-20 -0.000578878 -2.92069e-20 0)
(0.00096704 0.000289141 1.43341e-20 -0.00234992 -2.57962e-19 9.2706e-36)
(0.000776758 0.000386351 0 -0.00233844 0 0)
(0.000800721 0.000167808 -3.34796e-19 -0.00182067 -8.29593e-19 0)
(0.00066305 0.000257413 -1.8617e-19 -0.00190739 -8.76663e-19 0)
(0.000572336 7.39236e-05 1.00586e-19 -0.00148758 1.62694e-19 0)
(0.000529191 0.000154013 -1.91227e-20 -0.00157641 2.11501e-20 0)
(0.000414522 -2.30949e-06 3.12391e-19 -0.00124347 4.12718e-19 0)
(0.000441573 7.25073e-05 3.03698e-19 -0.00132404 5.62473e-19 0)
(0.000319102 -6.51366e-05 3.732e-19 -0.00106238 4.61416e-19 0)
(0.000387741 8.05546e-06 1.45765e-19 -0.00112903 2.19879e-19 0)
(0.000267163 -0.000113807 1.81296e-19 -0.000926657 1.2568e-19 0)
(0.000357584 -4.26539e-05 8.72905e-20 -0.000981925 1.22298e-19 0)
(0.000253932 -0.000148483 -4.33267e-19 -0.00082791 -4.17751e-19 0)
(0.000348786 -8.05244e-05 -3.07618e-19 -0.000880293 -3.65637e-19 0)
(0.000272079 -0.000169943 1.05958e-21 -0.000760575 3.32641e-20 0)
(0.000344739 -0.000105301 5.71686e-21 -0.000822918 2.46459e-20 0)
(0.000273989 -0.000180878 -8.07076e-20 -0.000718374 -6.66999e-20 0)
(0.0002824 -0.000121879 -7.63927e-20 -0.000808524 -1.06908e-19 0)
(0.000157411 -0.000186205 -3.25262e-19 -0.000702113 -2.6833e-19 0)
(0.000253375 -0.000177459 2.54685e-20 -0.000547491 2.11603e-20 0)
(0.0010646 1.88968e-05 -2.86175e-22 -0.002396 -1.25641e-22 -4.48541e-40)
(0.000819446 0.000194947 -1.92195e-19 -0.00242287 4.20608e-19 0)
(0.000947563 4.29245e-05 -7.89419e-20 -0.00179454 4.82056e-19 0)
(0.000615017 0.000129424 1.5488e-19 -0.00203049 2.46149e-19 0)
(0.000677966 2.53932e-05 4.50169e-20 -0.0014617 -2.82966e-19 0)
(0.000455356 7.58402e-05 4.42855e-20 -0.00167201 -2.70152e-19 0)
(0.000476885 -1.81839e-06 -1.18172e-19 -0.00122562 -4.27261e-19 0)
(0.000355477 3.7326e-05 -1.65759e-19 -0.00137975 -5.41601e-19 0)
(0.000345383 -2.54305e-05 -3.09134e-20 -0.00104755 -1.02471e-19 0)
(0.000291218 9.21014e-06 3.63512e-21 -0.00115569 -1.93995e-19 0)
(0.000265566 -4.17965e-05 -1.32815e-19 -0.000911905 -3.1578e-19 0)
(0.000251083 -1.4458e-05 -1.19746e-19 -0.000994085 -3.60117e-19 0)
(0.000230672 -5.37027e-05 -4.75262e-20 -0.000810976 -7.9254e-20 0)
(0.000231881 -3.49903e-05 -5.37491e-20 -0.000883927 -3.172e-19 0)
(0.000231776 -6.413e-05 -1.68317e-19 -0.000733807 -3.14693e-19 0)
(0.000220798 -4.56625e-05 -1.02035e-19 -0.000803189 -4.20324e-19 0)
(0.000220576 -7.12816e-05 -1.6865e-19 -0.000661477 -2.79546e-19 0)
(0.000175565 -3.40151e-05 -1.03932e-19 -0.000717399 -3.68525e-19 0)
(0.000110162 -6.76282e-05 -1.33911e-19 -0.00057467 -1.91765e-19 0)
(0.000139464 -3.24726e-05 -4.23676e-20 -0.000480063 -1.44484e-19 0)
(6.81809e-05 -3.60829e-05 1.34609e-20 -7.17914e-05 -1.94863e-20 0)
(0.000176603 -0.00012679 -2.90473e-20 -7.74764e-05 -7.01039e-21 0)
(0.000192251 -0.00021833 9.44303e-20 -8.60982e-05 1.93287e-20 0)
(0.000272751 -0.000282854 -2.81827e-20 -8.5313e-05 -1.61025e-20 0)
(0.000314082 -0.000382146 -4.42239e-20 -0.000170198 -4.50175e-20 0)
(0.000411782 -0.0004397 4.26761e-20 -0.000134052 -3.23244e-20 0)
(0.000524388 -0.000540742 -4.90732e-20 -0.000259186 -2.03789e-20 0)
(0.000584966 -0.000594061 2.14881e-19 -0.000228033 2.01298e-20 0)
(0.000792936 -0.000671349 -7.8233e-20 -0.000375762 -9.11127e-21 0)
(0.000794083 -0.000729698 -4.11168e-19 -0.000358098 -7.50208e-20 0)
(0.00109722 -0.000760277 2.84572e-19 -0.000521543 -6.4152e-20 0)
(0.00104128 -0.000830985 2.57063e-19 -0.000511349 -1.43506e-19 0)
(0.00142233 -0.000800177 1.56901e-19 -0.000687593 -8.48366e-20 0)
(0.00132299 -0.00089126 9.94808e-20 -0.00067523 -1.8247e-19 0)
(0.00175382 -0.000785367 1.21411e-19 -0.000858055 5.74391e-20 0)
(0.00162006 -0.000902736 2.55091e-19 -0.000838883 -2.29318e-20 0)
(0.00207418 -0.000713289 -2.42356e-19 -0.00100188 5.95171e-20 0)
(0.00184043 -0.000821865 -7.77536e-20 -0.00104744 1.598e-19 0)
(0.00232485 -0.0005945 4.88374e-19 -0.0011063 5.08744e-20 0)
(0.0021284 -0.000709565 1.99651e-19 -0.00136235 -1.62419e-19 0)
(1.80093e-05 -2.6019e-05 -7.871e-21 -0.000108765 -2.61588e-20 0)
(0.000176511 -0.000130635 -4.23499e-20 -0.000105129 -1.15393e-20 0)
(0.000125681 -0.00021161 5.41932e-20 -9.19935e-05 9.85473e-21 0)
(0.000273686 -0.000292639 -3.81816e-20 -0.000146379 -1.09407e-20 0)
(0.000253996 -0.000383955 9.34538e-20 -0.000149472 1.80441e-20 0)
(0.000399996 -0.000447765 -6.48446e-20 -0.00022373 -2.60359e-20 0)
(0.000429555 -0.000543471 -8.48032e-20 -0.000234513 -1.66584e-20 0)
(0.000558354 -0.000586806 0 -0.000330352 0 0)
(0.000656221 -0.000678822 1.08738e-19 -0.000339826 2.13943e-20 0)
(0.00074732 -0.000701222 1.22272e-19 -0.00046366 2.05998e-20 0)
(0.000920837 -0.000778789 -2.69137e-19 -0.000466582 -4.43174e-20 0)
(0.000961089 -0.000781258 -1.23845e-19 -0.000617972 1.13714e-20 0)
(0.00120674 -0.000837879 3.18651e-19 -0.00061048 1.10431e-19 0)
(0.00118489 -0.000817675 -4.06077e-20 -0.000791344 -1.07745e-20 0)
(0.00150215 -0.000855225 -1.80141e-19 -0.000760864 -7.42406e-20 0)
(0.00141158 -0.000809987 -2.97899e-19 -0.000970533 -1.66544e-19 0)
(0.00180284 -0.000831494 -1.9746e-19 -0.000903736 -9.40846e-20 0)
(0.00168744 -0.000781191 1.86783e-19 -0.00109676 1.10337e-19 0)
(0.00205244 -0.000766721 3.59842e-19 -0.00106233 2.14035e-19 0)
(0.00196045 -0.000692559 2.70055e-19 -0.00123976 1.76098e-19 0)
(0.000172341 -3.36406e-05 -1.31522e-20 -0.000153388 -2.12927e-20 0)
(0.000307268 -0.000123753 3.97406e-21 -0.000148333 -4.96237e-21 0)
(0.00025132 -0.000193562 -4.18593e-21 -0.00016313 -1.04503e-20 0)
(0.000401778 -0.000277393 8.90063e-20 -0.000196534 1.55234e-20 0)
(0.000374274 -0.000345849 4.00447e-20 -0.000216312 -1.23914e-21 0)
(0.000520523 -0.000418014 -5.85225e-20 -0.000276909 -2.58997e-20 0)
(0.000530724 -0.000480505 -2.66291e-20 -0.000294738 7.99707e-21 0)
(0.00066512 -0.000537934 1.36799e-19 -0.000376375 4.45081e-20 0)
(0.000720282 -0.000590468 0 -0.000388987 0 0)
(0.000832741 -0.000631287 -1.13376e-19 -0.000494539 -3.52667e-20 0)
(0.000939254 -0.000670458 -2.13868e-19 -0.000495603 -6.19874e-20 0)
(0.00101707 -0.00069353 9.94194e-20 -0.000629046 3.55853e-20 0)
(0.00117589 -0.000715864 2.12762e-19 -0.000612194 6.75917e-20 0)