/*--------------------------------*- C++ -*----------------------------------*\
| =========                 |                                                 |
| \\      /  F ield         | OpenFOAM: The Open Source CFD Toolbox           |
|  \\    /   O peration     | Version:  v2012                                 |
|   \\  /    A nd           | Website:  www.openfoam.com                      |
|    \\/     M anipulation  |                                                 |
\*---------------------------------------------------------------------------*/
FoamFile
{
    version     2.0;
    format      ascii;
    class       pointVectorField;
    location    "11";
    object      pointD;
}
// * * * * * * * * * * * * * * * * * * * * * * * * * * * * * * * * * * * * * //

dimensions      [0 1 0 0 0 0 0];


internalField   nonuniform List<vector> 
2142
(
(0.00392332 0 5.59913e-24)
(0.005043 0 3.82859e-21)
(0.00462201 -0.000361737 0)
(0 -0.00292836 4.23058e-22)
(0 -0.00158004 -2.00694e-20)
(0.00401605 0 0)
(0 -0.00280803 0)
(0.00257055 -0.000726985 0)
(0.00117043 -0.00139171 -3.97553e-21)
(0.00487671 -6.46615e-05 6.89737e-22)
(0.00307918 -0.00126182 -2.10186e-22)
(0.00307918 -0.00126182 -2.10186e-22)
(0.00257055 -0.000726985 0)
(0 -0.00280803 0)
(0 -0.00158004 -2.00694e-20)
(0.00392332 0 5.59913e-24)
(0.00401605 0 0)
(0.005043 0 3.82859e-21)
(0.00487671 -6.46615e-05 6.89737e-22)
(0.00462201 -0.000361737 0)
(0.00117043 -0.00139171 -3.97553e-21)
(0 -0.00292836 4.23058e-22)
(0.00021708 -0.00274482 0)
(0.000449254 -0.00259055 0)
(0.000704904 -0.00237241 0)
(0.000976207 -0.0021189 0)
(0.00124041 -0.00186593 0)
(0.00149488 -0.00162391 0)
(0.00174963 -0.00138735 0)
(0.00200614 -0.00115654 0)
(0.00226712 -0.000948102 0)
(0.00287408 -0.000518827 0)
(0.00310501 -0.000379527 0)
(0.00331838 -0.000269518 0)
(0.00350741 -0.000184034 0)
(0.00366817 -0.000120169 0)
(0.00379826 -7.45324e-05 0)
(0.00389671 -4.3348e-05 0)
(0.0039646 -2.28418e-05 0)
(0.00400506 -8.73109e-06 0)
(0.00394293 0 0)
(0.00396233 0 0)
(0.00397567 0 0)
(0.00398502 0 0)
(0.00399205 0 0)
(0.00399796 0 0)
(0.00400363 0 0)
(0.00400928 0 0)
(0.00401353 0 0)
(0.0040191 0 0)
(0.00402493 0 0)
(0.00403736 0 0)
(0.00405803 0 0)
(0.00408544 0 0)
(0.00411853 0 0)
(0.00415702 0 0)
(0.00420096 0 0)
(0.00425034 0 0)
(0.00430509 0 0)
(0.004365 0 0)
(0.00442978 0 0)
(0.00449906 0 0)
(0.0045724 0 0)
(0.00464927 0 0)
(0.00472903 0 0)
(0.00481086 0 0)
(0.00489351 0 0)
(0.00497506 0 0)
(0.00506975 -5.10007e-07 -2.31437e-23)
(0.00506675 3.04171e-06 5.13665e-23)
(0.00505724 5.43841e-06 4.29696e-21)
(0.0050417 5.44233e-06 -7.75102e-21)
(0.00502093 2.37508e-06 -8.2217e-21)
(0.00499578 -4.19366e-06 4.33758e-21)
(0.00496718 -1.45941e-05 6.78039e-21)
(0.00493622 -2.89852e-05 4.61814e-21)
(0.00490394 -4.73371e-05 7.94482e-21)
(0.00485982 -7.4712e-05 9.01091e-21)
(0.00484447 -8.43099e-05 1.75776e-20)
(0.00482813 -9.70412e-05 1.28116e-20)
(0.00481283 -0.000110801 4.66478e-21)
(0.00479812 -0.000124923 4.78306e-21)
(0.00478353 -0.000139248 2.20937e-20)
(0.00476993 -0.000154255 8.83739e-21)
(0.00475692 -0.000169572 2.02721e-23)
(0.00474411 -0.000184979 1.80634e-20)
(0.00473193 -0.000200755 2.27941e-20)
(0.00472028 -0.000216811 1.35197e-20)
(0.00470917 -0.000233083 1.81296e-20)
(0.00469859 -0.000249508 1.8198e-20)
(0.00468853 -0.000266027 -2.79121e-23)
(0.00467897 -0.000282581 1.35857e-20)
(0.00466986 -0.000299133 2.71855e-20)
(0.00466117 -0.000315626 2.26776e-20)
(0.00465284 -0.000331873 9.02735e-21)
(0.00464469 -0.000347729 -4.60021e-21)
(0.0045427 -0.000382265 0)
(0.00442978 -0.000407225 -1.31408e-22)
(0.00431709 -0.000429224 -1.31408e-22)
(0.00420215 -0.000447197 -3.66251e-22)
(0.00408294 -0.000461013 -2.285e-22)
(0.00395796 -0.000471509 2.84752e-22)
(0.00382582 -0.000479964 1.47001e-22)
(0.00368537 -0.000488003 1.31335e-22)
(0.00353564 -0.000497418 2.79598e-22)
(0.00337566 -0.000510213 3.49179e-22)
(0.00320465 -0.000528648 -3.2984e-22)
(0.00302212 -0.000554619 -2.93662e-22)
(0.00282726 -0.000591607 6.8942e-22)
(0.00261973 -0.000642927 3.66547e-22)
(0.00239981 -0.000710726 -8.05696e-22)
(0.00216826 -0.000798387 -7.19917e-22)
(0.00192686 -0.000908994 7.90744e-22)
(0.001678 -0.00104538 1.2117e-21)
(0.00142239 -0.00120751 1.91138e-21)
(0.000968341 -0.00156419 -5.16035e-21)
(0.000790193 -0.0017401 1.06088e-21)
(0.000620713 -0.00192965 1.06088e-21)
(0.000465323 -0.0021273 0)
(0.000329484 -0.00232601 -1.3867e-21)
(0.000218047 -0.00251601 -2.5916e-21)
(0.000133238 -0.00268525 -2.42137e-21)
(7.5493e-05 -0.00282048 -1.78446e-21)
(3.9269e-05 -0.00289965 -1.18877e-22)
(0 -0.002932 0)
(0 -0.00292655 0)
(0 -0.00292049 0)
(0 -0.00291406 0)
(0 -0.00290733 0)
(0 -0.00290036 0)
(0 -0.0028932 0)
(0 -0.0028859 0)
(0 -0.00287854 0)
(0 -0.00287117 0)
(0 -0.00286386 0)
(0 -0.00285664 0)
(0 -0.00284959 0)
(0 -0.00284274 0)
(0 -0.00283616 0)
(0 -0.00282992 0)
(0 -0.00282412 0)
(0 -0.00281877 0)
(0 -0.00281376 0)
(0 -0.0027961 0)
(0 -0.00277218 0)
(0 -0.00273049 0)
(0 -0.0026622 0)
(0 -0.00255983 0)
(0 -0.00242027 0)
(0 -0.00224416 0)
(0 -0.00203283 0)
(0 -0.00178939 0)
(0.00272416 -0.000586179 0)
(0.00285736 -0.000462296 0)
(0.00297763 -0.000356654 0)
(0.00309733 -0.000275669 0)
(0.00321489 -0.000217481 0)
(0.0033301 -0.000177774 0)
(0.00344363 -0.000152561 0)
(0.00355625 -0.000138508 0)
(0.00366827 -0.000132655 0)
(0.00378001 -0.000132429 0)
(0.00389163 -0.000136093 0)
(0.00400297 -0.000141795 0)
(0.00411407 -0.000147619 0)
(0.00422507 -0.000152353 0)
(0.00433577 -0.000154505 0)
(0.00444587 -0.000152391 0)
(0.00455519 -0.000144377 0)
(0.00466383 -0.000128427 0)
(0.00477193 -0.00010138 0)
(0.00242895 -0.000804218 0)
(0.00234564 -0.000841979 0)
(0.00226672 -0.000877288 0)
(0.00219061 -0.000911486 0)
(0.00211659 -0.000945116 0)
(0.00204439 -0.000978413 0)
(0.0019739 -0.00101145 0)
(0.00190505 -0.00104421 0)
(0.00183773 -0.00107666 0)
(0.00177178 -0.00110875 0)
(0.00170699 -0.00114047 0)
(0.00164313 -0.00117181 0)
(0.00157992 -0.00120279 0)
(0.00151711 -0.00123347 0)
(0.0014544 -0.00126396 0)
(0.00139152 -0.00129439 0)
(0.0013282 -0.00132499 0)
(0.00126423 -0.00135607 0)
(0.00119954 -0.00138782 0)
(0.000499056 -0.00158188 -2.04932e-20)
(0.000939862 -0.00169733 8.64084e-21)
(0.00140428 -0.00179577 -3.06748e-21)
(0.00177138 -0.00190414 -1.95376e-20)
(0.00205433 -0.00191918 -8.97474e-21)
(0.00227632 -0.00182599 -3.1134e-21)
(0.00248896 -0.00168695 -8.33981e-21)
(0.0026971 -0.0015449 -2.67568e-21)
(0.00289491 -0.00140267 6.51689e-21)
(0.00324761 -0.00112325 -3.03091e-21)
(0.00339859 -0.000987564 -7.81561e-21)
(0.00353084 -0.000855144 -7.81561e-21)
(0.0036435 -0.000726301 6.23478e-21)
(0.00373629 -0.000601158 3.71082e-21)
(0.00380946 -0.000479585 -9.16067e-21)
(0.00386362 -0.000361055 -2.97667e-23)
(0.00389898 -0.000244311 6.05581e-21)
(0.0039134 -0.000128276 -5.45418e-22)
(0.00300969 -0.00115119 0)
(0.00292245 -0.00107729 0)
(0.0028477 -0.00101419 0)
(0.00278297 -0.000959533 0)
(0.00272656 -0.00091161 0)
(0.00267733 -0.000869146 0)
(0.00263464 -0.00083131 0)
(0.00259846 -0.000797914 0)
(0.00256888 -0.000769852 0)
(0.00300969 -0.00115119 0)
(0.00292245 -0.00107729 0)
(0.0028477 -0.00101419 0)
(0.00278297 -0.000959533 0)
(0.00272656 -0.00091161 0)
(0.00267733 -0.000869146 0)
(0.00263464 -0.00083131 0)
(0.00259846 -0.000797914 0)
(0.00256888 -0.000769852 0)
(0.00226712 -0.000948102 0)
(0.00200614 -0.00115654 0)
(0.00174963 -0.00138735 0)
(0.00149488 -0.00162391 0)
(0.00124041 -0.00186593 0)
(0.000976207 -0.0021189 0)
(0.000704904 -0.00237241 0)
(0.000449254 -0.00259055 0)
(0.00021708 -0.00274482 0)
(0 -0.0027961 0)
(0 -0.00277218 0)
(0 -0.00273049 0)
(0 -0.0026622 0)
(0 -0.00255983 0)
(0 -0.00242027 0)
(0 -0.00224416 0)
(0 -0.00203283 0)
(0 -0.00178939 0)
(0.000499056 -0.00158188 -2.04932e-20)
(0.000939862 -0.00169733 8.64084e-21)
(0.00140428 -0.00179577 -3.06748e-21)
(0.00177138 -0.00190414 -1.95376e-20)
(0.00205433 -0.00191918 -8.97474e-21)
(0.00227632 -0.00182599 -3.1134e-21)
(0.00248896 -0.00168695 -8.33981e-21)
(0.0026971 -0.0015449 -2.67568e-21)
(0.00289491 -0.00140267 6.51689e-21)
(0.00324761 -0.00112325 -3.03091e-21)
(0.00339859 -0.000987564 -7.81561e-21)
(0.00353084 -0.000855144 -7.81561e-21)
(0.0036435 -0.000726301 6.23478e-21)
(0.00373629 -0.000601158 3.71082e-21)
(0.00380946 -0.000479585 -9.16067e-21)
(0.00386362 -0.000361055 -2.97667e-23)
(0.00389898 -0.000244311 6.05581e-21)
(0.0039134 -0.000128276 -5.45418e-22)
(0.00394293 0 0)
(0.00396233 0 0)
(0.00397567 0 0)
(0.00398502 0 0)
(0.00399205 0 0)
(0.00399796 0 0)
(0.00400363 0 0)
(0.00400928 0 0)
(0.00401353 0 0)
(0.00400506 -8.73109e-06 0)
(0.0039646 -2.28418e-05 0)
(0.00389671 -4.3348e-05 0)
(0.00379826 -7.45324e-05 0)
(0.00366817 -0.000120169 0)
(0.00350741 -0.000184034 0)
(0.00331838 -0.000269518 0)
(0.00310501 -0.000379527 0)
(0.00287408 -0.000518827 0)
(0.0040191 0 0)
(0.00402493 0 0)
(0.00403736 0 0)
(0.00405803 0 0)
(0.00408544 0 0)
(0.00411853 0 0)
(0.00415702 0 0)
(0.00420096 0 0)
(0.00425034 0 0)
(0.00430509 0 0)
(0.004365 0 0)
(0.00442978 0 0)
(0.00449906 0 0)
(0.0045724 0 0)
(0.00464927 0 0)
(0.00472903 0 0)
(0.00481086 0 0)
(0.00489351 0 0)
(0.00497506 0 0)
(0.00506975 -5.10007e-07 -2.31437e-23)
(0.00506675 3.04171e-06 5.13665e-23)
(0.00505724 5.43841e-06 4.29696e-21)
(0.0050417 5.44233e-06 -7.75102e-21)
(0.00502093 2.37508e-06 -8.2217e-21)
(0.00499578 -4.19366e-06 4.33758e-21)
(0.00496718 -1.45941e-05 6.78039e-21)
(0.00493622 -2.89852e-05 4.61814e-21)
(0.00490394 -4.73371e-05 7.94482e-21)
(0.00477193 -0.00010138 0)
(0.00466383 -0.000128427 0)
(0.00455519 -0.000144377 0)
(0.00444587 -0.000152391 0)
(0.00433577 -0.000154505 0)
(0.00422507 -0.000152353 0)
(0.00411407 -0.000147619 0)
(0.00400297 -0.000141795 0)
(0.00389163 -0.000136093 0)
(0.00378001 -0.000132429 0)
(0.00366827 -0.000132655 0)
(0.00355625 -0.000138508 0)
(0.00344363 -0.000152561 0)
(0.0033301 -0.000177774 0)
(0.00321489 -0.000217481 0)
(0.00309733 -0.000275669 0)
(0.00297763 -0.000356654 0)
(0.00285736 -0.000462296 0)
(0.00272416 -0.000586179 0)
(0.00485982 -7.4712e-05 9.01091e-21)
(0.00484447 -8.43099e-05 1.75776e-20)
(0.00482813 -9.70412e-05 1.28116e-20)
(0.00481283 -0.000110801 4.66478e-21)
(0.00479812 -0.000124923 4.78306e-21)
(0.00478353 -0.000139248 2.20937e-20)
(0.00476993 -0.000154255 8.83739e-21)
(0.00475692 -0.000169572 2.02721e-23)
(0.00474411 -0.000184979 1.80634e-20)
(0.00473193 -0.000200755 2.27941e-20)
(0.00472028 -0.000216811 1.35197e-20)
(0.00470917 -0.000233083 1.81296e-20)
(0.00469859 -0.000249508 1.8198e-20)
(0.00468853 -0.000266027 -2.79121e-23)
(0.00467897 -0.000282581 1.35857e-20)
(0.00466986 -0.000299133 2.71855e-20)
(0.00466117 -0.000315626 2.26776e-20)
(0.00465284 -0.000331873 9.02735e-21)
(0.00464469 -0.000347729 -4.60021e-21)
(0.0045427 -0.000382265 0)
(0.00442978 -0.000407225 -1.31408e-22)
(0.00431709 -0.000429224 -1.31408e-22)
(0.00420215 -0.000447197 -3.66251e-22)
(0.00408294 -0.000461013 -2.285e-22)
(0.00395796 -0.000471509 2.84752e-22)
(0.00382582 -0.000479964 1.47001e-22)
(0.00368537 -0.000488003 1.31335e-22)
(0.00353564 -0.000497418 2.79598e-22)
(0.00337566 -0.000510213 3.49179e-22)
(0.00320465 -0.000528648 -3.2984e-22)
(0.00302212 -0.000554619 -2.93662e-22)
(0.00282726 -0.000591607 6.8942e-22)
(0.00261973 -0.000642927 3.66547e-22)
(0.00239981 -0.000710726 -8.05696e-22)
(0.00216826 -0.000798387 -7.19917e-22)
(0.00192686 -0.000908994 7.90744e-22)
(0.001678 -0.00104538 1.2117e-21)
(0.00142239 -0.00120751 1.91138e-21)
(0.00119954 -0.00138782 0)
(0.00126423 -0.00135607 0)
(0.0013282 -0.00132499 0)
(0.00139152 -0.00129439 0)
(0.0014544 -0.00126396 0)
(0.00151711 -0.00123347 0)
(0.00157992 -0.00120279 0)
(0.00164313 -0.00117181 0)
(0.00170699 -0.00114047 0)
(0.00177178 -0.00110875 0)
(0.00183773 -0.00107666 0)
(0.00190505 -0.00104421 0)
(0.0019739 -0.00101145 0)
(0.00204439 -0.000978413 0)
(0.00211659 -0.000945116 0)
(0.00219061 -0.000911486 0)
(0.00226672 -0.000877288 0)
(0.00234564 -0.000841979 0)
(0.00242895 -0.000804218 0)
(0.000968341 -0.00156419 -5.16035e-21)
(0.000790193 -0.0017401 1.06088e-21)
(0.000620713 -0.00192965 1.06088e-21)
(0.000465323 -0.0021273 0)
(0.000329484 -0.00232601 -1.3867e-21)
(0.000218047 -0.00251601 -2.5916e-21)
(0.000133238 -0.00268525 -2.42137e-21)
(7.5493e-05 -0.00282048 -1.78446e-21)
(3.9269e-05 -0.00289965 -1.18877e-22)
(0 -0.002932 0)
(0 -0.00292655 0)
(0 -0.00292049 0)
(0 -0.00291406 0)
(0 -0.00290733 0)
(0 -0.00290036 0)
(0 -0.0028932 0)
(0 -0.0028859 0)
(0 -0.00287854 0)
(0 -0.00287117 0)
(0 -0.00286386 0)
(0 -0.00285664 0)
(0 -0.00284959 0)
(0 -0.00284274 0)
(0 -0.00283616 0)
(0 -0.00282992 0)
(0 -0.00282412 0)
(0 -0.00281877 0)
(0 -0.00281376 0)
(0.000542898 -0.00185802 0)
(0.000515681 -0.0020823 0)
(0.000488152 -0.00227337 0)
(0.000454018 -0.0024265 0)
(0.000411505 -0.00254101 0)
(0.000363817 -0.00262084 0)
(0.000316466 -0.00267354 0)
(0.000274252 -0.0027075 0)
(0.000240159 -0.00273006 0)
(0.000990594 -0.00193415 0)
(0.000959777 -0.00211722 0)
(0.000912064 -0.00226177 0)
(0.000846082 -0.00236508 0)
(0.000767391 -0.00243496 0)
(0.000685145 -0.00248284 0)
(0.000607864 -0.00251801 0)
(0.000541246 -0.00254635 0)
(0.000487637 -0.00257072 0)
(0.00141116 -0.0019992 0)
(0.00134481 -0.00212463 0)
(0.00126118 -0.00220014 0)
(0.00116437 -0.00224155 0)
(0.00106435 -0.00226673 0)
(0.000969327 -0.0022869 0)
(0.000884348 -0.00230702 0)
(0.000811762 -0.00232857 0)
(0.000751748 -0.00235099 0)
(0.00173397 -0.00201223 0)
(0.00163006 -0.00205306 0)
(0.00151983 -0.00206317 0)
(0.00141339 -0.00206464 0)
(0.00131613 -0.00206597 0)
(0.0012291 -0.00207005 0)
(0.00115221 -0.00207774 0)
(0.00108513 -0.00208886 0)
(0.0010268 -0.0021024 0)
(0.00197131 -0.00191943 0)
(0.0018488 -0.00190505 0)
(0.00173729 -0.00188915 0)
(0.0016383 -0.00187644 0)
(0.00155063 -0.00186673 0)
(0.00147305 -0.00186026 0)
(0.00140453 -0.0018569 0)
(0.00134412 -0.0018565 0)
(0.00128987 -0.00185797 0)
(0.00217924 -0.00176974 0)
(0.00206134 -0.00173824 0)
(0.00195766 -0.00171107 0)
(0.00186611 -0.0016882 0)
(0.00178506 -0.00166942 0)
(0.0017132 -0.0016542 0)
(0.0016495 -0.00164194 0)
(0.00159281 -0.00163193 0)
(0.00154224 -0.00162377 0)
(0.00239331 -0.00161219 0)
(0.00227981 -0.0015685 0)
(0.0021818 -0.0015309 0)
(0.00209635 -0.00149866 0)
(0.00202115 -0.00147109 0)
(0.00195456 -0.00144748 0)
(0.00189545 -0.00142707 0)
(0.00184286 -0.00140921 0)
(0.00179584 -0.00139334 0)
(0.00260674 -0.00145503 0)
(0.00249927 -0.00139955 0)
(0.00240743 -0.00135198 0)
(0.00232805 -0.00131088 0)
(0.00225866 -0.00127514 0)
(0.0021975 -0.00124378 0)
(0.00214321 -0.00121592 0)
(0.00209469 -0.0011908 0)
(0.00205117 -0.00116775 0)
(0.00281355 -0.00130072 0)
(0.00271493 -0.00123482 0)
(0.00263078 -0.00117847 0)
(0.00255818 -0.00112967 0)
(0.00249498 -0.00108696 0)
(0.00243963 -0.00104915 0)
(0.00239088 -0.00101539 0)
(0.00234774 -0.000985114 0)
(0.00230959 -0.000958147 0)
(0.00319193 -0.00100796 0)
(0.00311805 -0.000929084 0)
(0.00305425 -0.000861726 0)
(0.0029987 -0.000803388 0)
(0.00295018 -0.00075222 0)
(0.00290788 -0.000706924 0)
(0.0028715 -0.000666678 0)
(0.00284115 -0.00063122 0)
(0.00281607 -0.00060144 0)
(0.00335767 -0.00087182 0)
(0.00329831 -0.000791317 0)
(0.0032464 -0.000722493 0)
(0.00320084 -0.0006629 0)
(0.003161 -0.000610712 0)
(0.00312647 -0.000564601 0)
(0.00309711 -0.000523496 0)
(0.00307259 -0.000486546 0)
(0.00305098 -0.000453998 0)
(0.0035047 -0.000743169 0)
(0.00346021 -0.000664494 0)
(0.00342047 -0.000597035 0)
(0.00338507 -0.000538529 0)
(0.00335392 -0.000487238 0)
(0.00332701 -0.000441873 0)
(0.0033044 -0.000401361 0)
(0.00328579 -0.000364935 0)
(0.0032692 -0.000333061 0)
(0.00363125 -0.000622008 0)
(0.00360117 -0.000548437 0)
(0.00357325 -0.000485054 0)
(0.00354771 -0.000429937 0)
(0.00352496 -0.000381573 0)
(0.00350531 -0.000338829 0)
(0.00348897 -0.000300747 0)
(0.00347577 -0.000266642 0)
(0.00346385 -0.000236953 0)
(0.00373627 -0.000507863 0)
(0.00371944 -0.000442311 0)
(0.00370243 -0.000385475 0)
(0.003686 -0.000335886 0)
(0.00367097 -0.000292346 0)
(0.00365793 -0.00025394 0)
(0.00364726 -0.000219854 0)
(0.00363889 -0.00018946 0)
(0.00363107 -0.00016303 0)
(0.0038194 -0.000399827 0)
(0.00381405 -0.000344693 0)
(0.00380654 -0.000296512 0)
(0.00379806 -0.000254309 0)
(0.00378977 -0.000217256 0)
(0.00378248 -0.000184683 0)
(0.0037767 -0.000155925 0)
(0.00377246 -0.000130382 0)
(0.00376809 -0.000108104 0)
(0.00388082 -0.000296666 0)
(0.00388461 -0.000253877 0)
(0.00388475 -0.000216079 0)
(0.00388273 -0.000182796 0)
(0.00387999 -0.000153601 0)
(0.00387747 -0.000128093 0)
(0.00387576 -0.000105767 0)
(0.00387495 -8.60398e-05 0)
(0.00387348 -6.86756e-05 0)
(0.00392046 -0.000196988 0)
(0.0039309 -0.00016831 0)
(0.00393676 -0.000142233 0)
(0.00393978 -0.000118969 0)
(0.00394147 -9.85721e-05 0)
(0.00394281 -8.09359e-05 0)
(0.00394448 -6.57688e-05 0)
(0.00394661 -5.25776e-05 0)
(0.00394778 -4.08898e-05 0)
(0.00393657 -9.9939e-05 0)
(0.00395257 -8.61182e-05 0)
(0.00396344 -7.24546e-05 0)
(0.003971 -5.99872e-05 0)
(0.00397668 -4.91579e-05 0)
(0.00398144 -4.00528e-05 0)
(0.003986 -3.25148e-05 0)
(0.00399062 -2.60815e-05 0)
(0.00399427 -1.99962e-05 0)
(0.00400566 -7.96332e-06 0)
(0.00396562 -2.00128e-05 0)
(0.00389929 -3.83131e-05 0)
(0.00380497 -6.51919e-05 0)
(0.00368235 -0.00010383 0)
(0.00353242 -0.000157912 0)
(0.00335733 -0.000231215 0)
(0.00315989 -0.00032734 0)
(0.00294227 -0.000450441 0)
(0.00401321 -9.39217e-06 0)
(0.00397782 -2.11806e-05 0)
(0.00391812 -3.7179e-05 0)
(0.00383358 -5.94227e-05 0)
(0.00372448 -9.03494e-05 0)
(0.00359166 -0.000133163 0)
(0.00343612 -0.000191642 0)
(0.00325764 -0.000269042 0)
(0.00305421 -0.0003651 0)
(0.00402889 -9.40163e-06 0)
(0.00399733 -1.95165e-05 0)
(0.00394309 -3.24531e-05 0)
(0.00386619 -5.00797e-05 0)
(0.00376717 -7.44187e-05 0)
(0.00364649 -0.000107846 0)
(0.00350391 -0.000152716 0)
(0.00333864 -0.000210563 0)
(0.0031528 -0.000281676 0)
(0.00405264 -8.07944e-06 0)
(0.00402429 -1.57927e-05 0)
(0.00397453 -2.56754e-05 0)
(0.00390376 -3.92506e-05 0)
(0.00381248 -5.80461e-05 0)
(0.00370092 -8.35875e-05 0)
(0.0035692 -0.000117281 0)
(0.0034186 -0.00016062 0)
(0.00325275 -0.000215626 0)
(0.00408252 -6.45627e-06 0)
(0.0040569 -1.19682e-05 0)
(0.00401097 -1.93862e-05 0)
(0.00394543 -2.98811e-05 0)
(0.00386086 -4.4514e-05 0)
(0.00375783 -6.43578e-05 0)
(0.0036374 -9.06318e-05 0)
(0.00350168 -0.000124909 0)
(0.00335355 -0.000168944 0)
(0.00411757 -5.28228e-06 0)
(0.0040943 -9.34445e-06 0)
(0.00405193 -1.51275e-05 0)
(0.00399131 -2.35835e-05 0)
(0.00391328 -3.55279e-05 0)
(0.00381886 -5.18505e-05 0)
(0.0037095 -7.36029e-05 0)
(0.00358723 -0.000101961 0)
(0.00345435 -0.000138054 0)
(0.00415772 -4.80602e-06 0)
(0.00413653 -8.29169e-06 0)
(0.00409759 -1.33048e-05 0)
(0.00404184 -2.06884e-05 0)
(0.00397033 -3.11536e-05 0)
(0.00388424 -4.54561e-05 0)
(0.0037851 -6.44048e-05 0)
(0.00367474 -8.87823e-05 0)
(0.00355518 -0.000119278 0)
(0.00420312 -4.97755e-06 0)
(0.00418382 -8.63993e-06 0)
(0.00414818 -1.36409e-05 0)
(0.0040972 -2.07515e-05 0)
(0.00403196 -3.06149e-05 0)
(0.0039537 -4.38666e-05 0)
(0.00386388 -6.11231e-05 0)
(0.00376419 -8.29194e-05 0)
(0.00365647 -0.000109665 0)
(0.00425387 -5.63476e-06 0)
(0.00423629 -1.00239e-05 0)
(0.00420377 -1.55854e-05 0)
(0.0041573 -2.30257e-05 0)
(0.00409794 -3.29254e-05 0)
(0.00402692 -4.58178e-05 0)
(0.0039456 -6.21819e-05 0)
(0.00385557 -8.24071e-05 0)
(0.00375847 -0.000106759 0)
(0.00430989 -6.59276e-06 0)
(0.00429388 -1.20497e-05 0)
(0.00426426 -1.85422e-05 0)
(0.00422197 -2.67189e-05 0)
(0.00416805 -3.71047e-05 0)
(0.00410363 -5.01497e-05 0)
(0.00403004 -6.62256e-05 0)
(0.00394873 -8.56076e-05 0)
(0.00386121 -0.00010847 0)
(0.00437099 -7.6733e-06 0)
(0.00435641 -1.43465e-05 0)
(0.00432946 -2.1951e-05 0)
(0.00429101 -3.10867e-05 0)
(0.00424204 -4.22303e-05 0)
(0.00418362 -5.57662e-05 0)
(0.00411701 -7.19919e-05 0)
(0.00404357 -9.11128e-05 0)
(0.00396469 -0.000113251 0)
(0.00443686 -8.70997e-06 0)
(0.0044236 -1.65734e-05 0)
(0.0043991 -2.52988e-05 0)
(0.00436416 -3.54496e-05 0)
(0.00431968 -4.7463e-05 0)
(0.00426668 -6.16709e-05 0)
(0.00420636 -7.83174e-05 0)
(0.00413998 -9.75642e-05 0)
(0.00406881 -0.000119501 0)
(0.00450715 -9.54624e-06 0)
(0.00449512 -1.84125e-05 0)
(0.00447288 -2.81105e-05 0)
(0.00444114 -3.91794e-05 0)
(0.00440072 -5.20247e-05 0)
(0.00435259 -6.69363e-05 0)
(0.00429789 -8.41143e-05 0)
(0.0042378 -0.000103673 0)
(0.00417349 -0.000125645 0)
(0.00458142 -1.00307e-05 0)
(0.00457057 -1.95583e-05 0)
(0.00455044 -2.99309e-05 0)
(0.00452162 -4.16737e-05 0)
(0.00448486 -5.51664e-05 0)
(0.00444109 -7.06603e-05 0)
(0.00439139 -8.83158e-05 0)
(0.00433689 -0.000108219 0)
(0.00427872 -0.00013039 0)
(0.00465914 -1.00076e-05 0)
(0.00464948 -1.96992e-05 0)
(0.00463134 -3.02994e-05 0)
(0.00460522 -4.23275e-05 0)
(0.00457177 -5.61441e-05 0)
(0.0045319 -7.19701e-05 0)
(0.00448663 -8.99331e-05 0)
(0.00443709 -0.000110098 0)
(0.00438438 -0.000132491 0)
(0.00473969 -9.29768e-06 0)
(0.00473127 -1.84944e-05 0)
(0.00471507 -2.87353e-05 0)
(0.00469146 -4.05245e-05 0)
(0.00466104 -5.41983e-05 0)
(0.00462466 -6.99612e-05 0)
(0.00458332 -8.79304e-05 0)
(0.00453811 -0.000108137 0)
(0.00449009 -0.000130535 0)
(0.00482225 -7.69355e-06 0)
(0.00481516 -1.55923e-05 0)
(0.00480091 -2.47648e-05 0)
(0.0047797 -3.56414e-05 0)
(0.00475207 -4.85171e-05 0)
(0.00471886 -6.35965e-05 0)
(0.00468102 -8.10179e-05 0)
(0.00463959 -0.000100819 0)
(0.00459562 -0.000122895 0)
(0.00490564 -5.09705e-06 0)
(0.00490007 -1.08048e-05 0)
(0.00488782 -1.79778e-05 0)
(0.00486892 -2.69445e-05 0)
(0.0048439 -3.80281e-05 0)
(0.00481358 -5.14951e-05 0)
(0.00477896 -6.75198e-05 0)
(0.00474105 -8.6177e-05 0)
(0.00470086 -0.000107423 0)
(0.00498833 -1.98976e-06 0)
(0.00498474 -4.34117e-06 0)
(0.00497451 -7.85782e-06 0)
(0.00495778 -1.32515e-05 0)
(0.00493521 -2.10549e-05 0)
(0.00490769 -3.16302e-05 0)
(0.00487618 -4.51924e-05 0)
(0.00484172 -6.18171e-05 0)
(0.00480535 -8.14378e-05 0)
(0.00261072 -0.000644964 0)
(0.00252977 -0.000678577 0)
(0.00245239 -0.000710773 0)
(0.002378 -0.000742224 0)
(0.00230608 -0.000773315 0)
(0.00223627 -0.000804231 0)
(0.00216829 -0.000835034 0)
(0.00210193 -0.000865725 0)
(0.00203702 -0.000896286 0)
(0.00197342 -0.000926698 0)
(0.00191097 -0.000956956 0)
(0.00184954 -0.000987074 0)
(0.001789 -0.00101709 0)
(0.00172922 -0.00104707 0)
(0.00167009 -0.00107712 0)
(0.00161152 -0.00110736 0)
(0.00155346 -0.00113801 0)
(0.00149589 -0.00116932 0)
(0.00143901 -0.00120177 0)
(0.00275746 -0.000503932 0)
(0.0026847 -0.000532609 0)
(0.00261393 -0.000561632 0)
(0.00254518 -0.000590813 0)
(0.00247834 -0.00062006 0)
(0.00241326 -0.000649323 0)
(0.00234982 -0.000678572 0)
(0.00228789 -0.000707795 0)
(0.00222736 -0.000736995 0)
(0.00216813 -0.000766182 0)
(0.00211014 -0.000795374 0)
(0.0020533 -0.000824601 0)
(0.00199759 -0.000853909 0)
(0.00194298 -0.000883359 0)
(0.00188946 -0.000913028 0)
(0.00183705 -0.000943015 0)
(0.00178583 -0.000973448 0)
(0.00173589 -0.00100448 0)
(0.00168736 -0.00103648 0)
(0.00289091 -0.000392096 0)
(0.00282756 -0.000417781 0)
(0.00276507 -0.000443865 0)
(0.00270353 -0.00047031 0)
(0.00264302 -0.000497089 0)
(0.00258362 -0.000524154 0)
(0.00252541 -0.000551457 0)
(0.00246843 -0.000578959 0)
(0.00241269 -0.000606638 0)
(0.00235819 -0.000634487 0)
(0.00230494 -0.000662499 0)
(0.00225297 -0.000690685 0)
(0.00220232 -0.000719076 0)
(0.00215303 -0.000747718 0)
(0.00210514 -0.000776664 0)
(0.00205874 -0.000805977 0)
(0.00201392 -0.00083574 0)
(0.00197083 -0.000866081 0)
(0.00192952 -0.000897126 0)
(0.00302055 -0.000306546 0)
(0.00296438 -0.000329885 0)
(0.00290876 -0.000353633 0)
(0.00285375 -0.000377775 0)
(0.00279945 -0.000402319 0)
(0.00274595 -0.000427259 0)
(0.00269334 -0.000452576 0)
(0.00264168 -0.000478241 0)
(0.00259105 -0.000504219 0)
(0.00254161 -0.000530513 0)
(0.00249346 -0.000557146 0)
(0.0024466 -0.000584092 0)
(0.00240115 -0.000611355 0)
(0.00235721 -0.000638952 0)
(0.0023149 -0.000666912 0)
(0.00227437 -0.00069527 0)
(0.00223573 -0.00072408 0)
(0.00219913 -0.000753461 0)
(0.00216473 -0.00078353 0)
(0.00314653 -0.000244464 0)
(0.00309649 -0.000265685 0)
(0.00304684 -0.000287347 0)
(0.00299765 -0.000309416 0)
(0.00294896 -0.000331884 0)
(0.00290097 -0.000354773 0)
(0.00285382 -0.000378078 0)
(0.00280766 -0.000401795 0)
(0.00276228 -0.000426556 0)
(0.0027177 -0.000451828 0)
(0.00267453 -0.000476956 0)
(0.00263279 -0.000502498 0)
(0.00259257 -0.000528432 0)
(0.00255393 -0.000554768 0)
(0.00251714 -0.000581571 0)
(0.0024823 -0.000608794 0)
(0.00244956 -0.00063648 0)
(0.00241908 -0.00066472 0)
(0.00239106 -0.000693592 0)
(0.00326903 -0.00020154 0)
(0.00322456 -0.000220946 0)
(0.00318043 -0.000240852 0)
(0.00313648 -0.000261126 0)
(0.00309303 -0.000281874 0)
(0.00305024 -0.000303122 0)
(0.00300825 -0.000324867 0)
(0.00296721 -0.000347127 0)
(0.00292662 -0.000370464 0)
(0.00288694 -0.000393851 0)
(0.00284861 -0.000417701 0)
(0.00281176 -0.000441974 0)
(0.00277643 -0.000466633 0)
(0.00274284 -0.000491744 0)
(0.00271121 -0.000517309 0)
(0.00268163 -0.000543292 0)
(0.00265427 -0.000569739 0)
(0.00262928 -0.000596705 0)
(0.00260687 -0.000624224 0)
(0.0033892 -0.000173838 0)
(0.00334973 -0.000191758 0)
(0.00331038 -0.000210112 0)
(0.00327135 -0.000228923 0)
(0.00323277 -0.000248248 0)
(0.00319478 -0.000268119 0)
(0.00315724 -0.00028854 0)
(0.00312035 -0.000309484 0)
(0.00308446 -0.000330965 0)
(0.00304956 -0.000352965 0)
(0.00301586 -0.000375465 0)
(0.00298356 -0.000398444 0)
(0.00295285 -0.000421885 0)
(0.00292393 -0.000445775 0)
(0.00289701 -0.00047012 0)
(0.00287194 -0.000494874 0)
(0.00284913 -0.000520025 0)
(0.00282879 -0.000545686 0)
(0.00281103 -0.000571758 0)
(0.00350767 -0.000158002 0)
(0.00347236 -0.00017467 0)
(0.00343731 -0.000191803 0)
(0.0034026 -0.00020941 0)
(0.00336827 -0.00022753 0)
(0.00333441 -0.000246191 0)
(0.00330088 -0.000265366 0)
(0.00326822 -0.000285076 0)
(0.00323647 -0.000305356 0)
(0.00320577 -0.000326165 0)
(0.00317631 -0.000347489 0)
(0.00314823 -0.000369316 0)
(0.00312169 -0.000391628 0)
(0.00309687 -0.000414403 0)
(0.00307392 -0.000437642 0)
(0.00305266 -0.000461233 0)
(0.00303389 -0.00048524 0)
(0.00301733 -0.000509628 0)
(0.00300366 -0.000534332 0)
(0.0036247 -0.000150821 0)
(0.00359307 -0.000166535 0)
(0.00356179 -0.000182708 0)
(0.00353091 -0.000199201 0)
(0.00350011 -0.000216366 0)
(0.00346987 -0.000234054 0)
(0.00344033 -0.000252144 0)
(0.00341127 -0.000270966 0)
(0.00338318 -0.000290314 0)
(0.00335619 -0.000310162 0)
(0.0033304 -0.000330504 0)
(0.00330596 -0.000351326 0)
(0.00328299 -0.000372605 0)
(0.00326162 -0.000394315 0)
(0.00324199 -0.000416436 0)
(0.00322428 -0.000438944 0)
(0.00320872 -0.000461798 0)
(0.00319553 -0.000484952 0)
(0.00318494 -0.000508356 0)
(0.00374092 -0.000149658 0)
(0.00371248 -0.000164663 0)
(0.0036845 -0.000179952 0)
(0.00365667 -0.000195741 0)
(0.00362906 -0.000212223 0)
(0.00360219 -0.00022902 0)
(0.00357582 -0.000246364 0)
(0.00355001 -0.000264421 0)
(0.00352516 -0.000282958 0)
(0.00350133 -0.000301954 0)
(0.00347865 -0.000321396 0)
(0.00345723 -0.000341267 0)
(0.00343721 -0.000361549 0)
(0.00341873 -0.00038222 0)
(0.00340196 -0.000403258 0)
(0.00338704 -0.000424627 0)
(0.00337417 -0.000446279 0)
(0.00336352 -0.000468166 0)
(0.00335529 -0.000490225 0)
(0.00385649 -0.000152638 0)
(0.00383084 -0.000167032 0)
(0.00380545 -0.000181898 0)
(0.00378038 -0.000197215 0)
(0.00375567 -0.000212967 0)
(0.00373145 -0.000229206 0)
(0.00370785 -0.000245935 0)
(0.00368494 -0.000263137 0)
(0.00366283 -0.000280814 0)
(0.00364164 -0.000298947 0)
(0.00362149 -0.000317514 0)
(0.00360254 -0.000336494 0)
(0.00358491 -0.00035586 0)
(0.00356875 -0.000375585 0)
(0.00355421 -0.000395632 0)
(0.00354142 -0.000415958 0)
(0.00353056 -0.00043651 0)
(0.00352177 -0.00045723 0)
(0.00351523 -0.000478048 0)
(0.00397122 -0.000157837 0)
(0.00394793 -0.000171718 0)
(0.00392491 -0.000186029 0)
(0.00390223 -0.000200763 0)
(0.00387995 -0.000215929 0)
(0.00385817 -0.000231553 0)
(0.00383683 -0.000247676 0)
(0.00381609 -0.000264241 0)
(0.00379622 -0.00028122 0)
(0.0037772 -0.00029863 0)
(0.00375915 -0.000316445 0)
(0.0037422 -0.000334639 0)
(0.00372648 -0.000353187 0)
(0.00371213 -0.000372055 0)
(0.00369927 -0.000391205 0)
(0.00368804 -0.000410587 0)
(0.00367857 -0.000430145 0)
(0.00367099 -0.000449809 0)
(0.00366545 -0.000469501 0)
(0.00408534 -0.000163165 0)
(0.00406411 -0.000176732 0)
(0.00404306 -0.000190747 0)
(0.00402232 -0.00020499 0)
(0.00400199 -0.00021964 0)
(0.00398213 -0.00023472 0)
(0.00396265 -0.000250237 0)
(0.0039439 -0.000266136 0)
(0.00392586 -0.000282324 0)
(0.00390848 -0.000299099 0)
(0.00389205 -0.000316243 0)
(0.00387667 -0.000333731 0)
(0.00386242 -0.000351537 0)
(0.0038494 -0.000369627 0)
(0.00383774 -0.00038796 0)
(0.00382754 -0.000406485 0)
(0.00381891 -0.000425142 0)
(0.00381198 -0.000443854 0)
(0.00380686 -0.000462534 0)
(0.00419891 -0.000167584 0)
(0.00417931 -0.000180718 0)
(0.00415988 -0.000194127 0)
(0.00414077 -0.000207914 0)
(0.00412201 -0.00022209 0)
(0.00410365 -0.000236669 0)
(0.00408581 -0.000251653 0)
(0.00406859 -0.000266849 0)
(0.00405191 -0.000282468 0)
(0.00403589 -0.000298657 0)
(0.00402074 -0.000315181 0)
(0.00400652 -0.000332014 0)
(0.00399331 -0.000349128 0)
(0.00398119 -0.000366491 0)
(0.00397027 -0.000384067 0)
(0.00396063 -0.000401808 0)
(0.00395236 -0.000419654 0)
(0.00394557 -0.000437522 0)
(0.00394035 -0.000455315 0)
(0.00431161 -0.000169351 0)
(0.00429332 -0.000181869 0)
(0.00427526 -0.000194769 0)
(0.00425748 -0.000208043 0)
(0.00424003 -0.000221693 0)
(0.00422296 -0.000235727 0)
(0.00420632 -0.00025015 0)
(0.00419018 -0.000264965 0)
(0.00417463 -0.000280147 0)
(0.0041597 -0.00029567 0)
(0.00414549 -0.000311522 0)
(0.00413208 -0.000327686 0)
(0.00411955 -0.000344132 0)
(0.00410797 -0.000360825 0)
(0.00409744 -0.000377725 0)
(0.004088 -0.000394781 0)
(0.00407972 -0.000411931 0)
(0.00407268 -0.000429084 0)
(0.00406693 -0.000446137 0)
(0.00442343 -0.000166738 0)
(0.00440613 -0.000178764 0)
(0.00438906 -0.000191177 0)
(0.00437226 -0.000203969 0)
(0.00435579 -0.000217141 0)
(0.00433974 -0.000230653 0)
(0.00432397 -0.000244565 0)
(0.00430869 -0.000258831 0)
(0.004294 -0.000273434 0)
(0.00427985 -0.00028824 0)
(0.00426627 -0.000303566 0)