/*--------------------------------*- C++ -*----------------------------------*\
| =========                 |                                                 |
| \\      /  F ield         | OpenFOAM: The Open Source CFD Toolbox           |
|  \\    /   O peration     | Version:  v2012                                 |
|   \\  /    A nd           | Website:  www.openfoam.com                      |
|    \\/     M anipulation  |                                                 |
\*---------------------------------------------------------------------------*/
FoamFile
{
    version     2.0;
    format      ascii;
    class       volSymmTensorField;
    location    "19";
    object      epsilon;
}
// * * * * * * * * * * * * * * * * * * * * * * * * * * * * * * * * * * * * * //

dimensions      [0 0 0 0 0 0 0];


internalField   nonuniform List<symmTensor> 
8000
(
(0.00619045 -0.000501825 1.53924e-15 -0.00764569 1.70547e-14 0)
(0.00640509 -0.000328436 5.04043e-15 -0.00761554 2.31607e-14 0)
(0.00639867 -0.000491436 3.28204e-15 -0.00756514 3.34644e-14 0)
(0.00649776 -0.000380477 2.19871e-15 -0.00746013 3.63117e-14 0)
(0.00649473 -0.000456893 -1.13112e-15 -0.00736898 4.11347e-14 0)
(0.00650169 -0.000410831 -1.41006e-15 -0.0072396 3.30196e-14 0)
(0.00650147 -0.000414946 -2.2527e-16 -0.00709244 3.68517e-14 0)
(0.00642843 -0.000432853 -5.84149e-15 -0.00695594 2.3762e-14 0)
(0.00643077 -0.000371176 -5.2898e-15 -0.00675209 2.24111e-14 0)
(0.00628638 -0.000450255 -8.7565e-15 -0.00661327 9.56998e-15 0)
(0.00629111 -0.000327123 -3.05656e-15 -0.00635793 1.30022e-14 0)
(0.0060822 -0.000464023 -7.25581e-15 -0.00621636 1.68431e-15 0)
(0.00608921 -0.000282729 -3.81468e-15 -0.00591699 1.07781e-15 0)
(0.00582148 -0.000473992 -3.93861e-15 -0.00576977 -8.3644e-15 0)
(0.00583065 -0.000237237 5.11743e-17 -0.00543499 -4.58661e-15 0)
(0.00550977 -0.000479166 1.17777e-15 -0.00527913 -6.10644e-15 0)
(0.00552099 -0.000189925 1.04926e-15 -0.004918 -5.85578e-16 0)
(0.00515309 -0.000478283 3.50398e-15 -0.0047511 7.12212e-16 0)
(0.00516622 -0.00014029 2.23389e-15 -0.00437289 7.73275e-15 0)
(0.00475752 -0.000470865 3.94094e-15 -0.0041941 6.36275e-15 0)
(0.0047724 -8.82721e-05 1.46977e-15 -0.00380799 8.40842e-15 0)
(0.0043325 -0.000454426 8.83625e-16 -0.00362055 3.88708e-15 0)
(0.00434882 -3.49085e-05 -6.22197e-16 -0.00323546 5.24298e-15 0)
(0.00388907 -0.00042853 -1.32693e-15 -0.00304574 2.32757e-15 0)
(0.00390646 1.80278e-05 -6.15258e-16 -0.00266937 4.94396e-17 0)
(0.00344058 -0.000392951 1.65048e-15 -0.00248782 -1.01958e-15 0)
(0.00345853 6.78182e-05 2.12211e-15 -0.00212676 -1.54672e-15 0)
(0.00300197 -0.000348273 4.59729e-15 -0.00196576 2.05153e-15 0)
(0.00301989 0.000111431 2.13951e-15 -0.00162501 5.52509e-16 0)
(0.002588 -0.000296312 2.90719e-15 -0.0014957 2.17166e-15 0)
(0.00260526 0.000146303 5.63379e-16 -0.0011793 -2.81893e-17 0)
(0.0022116 -0.000239598 4.8247e-18 -0.00108886 1.3778e-15 0)
(0.00222761 0.000170967 -5.47685e-16 -0.000800455 -1.19262e-16 0)
(0.00188245 -0.000180942 -1.47203e-15 -0.000750666 2.02095e-15 0)
(0.00189674 0.0001853 -8.01971e-16 -0.000493908 6.76108e-16 0)
(0.00160666 -0.000122651 -5.98574e-16 -0.000481263 1.82905e-15 0)
(0.00161887 0.000190422 2.43254e-16 -0.000259985 -1.67531e-15 0)
(0.00138659 -6.66042e-05 1.1779e-15 -0.000276908 6.27536e-16 0)
(0.00139653 0.000188322 8.26162e-16 -9.54117e-05 2.46764e-16 0)
(0.00122722 -1.04979e-05 1.41303e-15 -0.000145319 3.81899e-15 0)
(0.00607239 -0.000971212 2.00266e-15 -0.00756452 2.3109e-14 0)
(0.00624511 -0.000800913 3.70385e-15 -0.00742626 2.43537e-14 0)
(0.00622055 -0.00100865 5.62701e-15 -0.00741034 2.7445e-14 0)
(0.00630355 -0.000882121 -1.97699e-15 -0.00721815 2.46621e-14 0)
(0.00628793 -0.00101382 -5.49848e-15 -0.00719189 2.61701e-14 0)
(0.00628538 -0.000935653 -8.31957e-15 -0.00695724 2.24643e-14 0)
(0.00627776 -0.000998903 -9.39906e-15 -0.00691122 1.70655e-14 0)
(0.00619474 -0.000970696 -1.57486e-14 -0.00664025 1.14652e-14 0)
(0.00619475 -0.000968598 -1.50693e-14 -0.00657239 6.10162e-15 0)
(0.00603633 -0.000990532 -1.16159e-14 -0.00626826 3.73724e-15 0)
(0.00604371 -0.000925443 -9.14546e-15 -0.00618005 -3.46332e-15 0)
(0.00581399 -0.000997168 -6.60518e-15 -0.00584291 -6.44602e-15 0)
(0.00582856 -0.000870546 -4.76415e-15 -0.00573862 -1.0168e-14 0)
(0.00553268 -0.000990526 -4.87555e-15 -0.0053683 -8.48139e-15 0)
(0.00555427 -0.000804073 -2.72498e-15 -0.00525366 -8.02364e-15 0)
(0.00519778 -0.000970175 -5.86884e-15 -0.00485004 -5.49929e-15 0)
(0.0052262 -0.000725735 8.20741e-16 -0.00473177 -2.12395e-15 0)
(0.00481698 -0.000934715 -2.71967e-15 -0.00429844 -4.5414e-15 0)
(0.00485172 -0.000636649 1.94473e-15 -0.00418122 -2.3885e-15 0)
(0.00440111 -0.000883612 -8.85414e-16 -0.00372767 -2.62637e-15 0)
(0.00444166 -0.000536446 7.10207e-16 -0.00361427 2.27336e-15 0)
(0.00396407 -0.000815383 -2.81638e-15 -0.00315776 3.52583e-16 0)
(0.00400937 -0.00042801 -3.1437e-15 -0.00304596 -5.82217e-16 0)
(0.00352275 -0.000731074 -3.11627e-15 -0.00261156 -1.52504e-15 0)
(0.00357138 -0.000315314 1.06382e-15 -0.00249413 4.43872e-16 0)
(0.00309465 -0.000633512 1.44237e-15 -0.00211026 3.43475e-16 0)
(0.00314493 -0.000203293 4.48399e-15 -0.00197738 2.2907e-15 0)
(0.00269493 -0.000527218 3.54258e-15 -0.00166879 2.35012e-15 0)
(0.00274511 -9.71721e-05 4.33377e-15 -0.00151159 3.58134e-15 0)
(0.00233483 -0.000417488 9.23767e-16 -0.00129416 5.11808e-15 0)
(0.00238326 -1.36628e-06 -1.0082e-15 -0.00110784 4.71693e-15 0)
(0.00202101 -0.000309412 -2.06793e-15 -0.000986327 5.15321e-15 0)
(0.00206632 8.10701e-05 -1.83591e-15 -0.000771539 3.54209e-15 0)
(0.00175615 -0.000206942 -3.15885e-15 -0.000740144 3.76175e-15 0)
(0.0017973 0.000148972 -2.40086e-15 -0.000502901 3.1444e-15 0)
(0.00154008 -0.000112229 -3.35173e-15 -0.000547888 1.38908e-15 0)
(0.00157634 0.000202514 -3.50306e-16 -0.000298348 2.13263e-15 0)
(0.00137159 -2.5597e-05 -1.14207e-15 -0.000402003 2.05565e-16 0)
(0.00140317 0.000249043 1.12535e-15 -0.000165986 2.23714e-15 0)
(0.00123565 5.1248e-05 6.3995e-17 -0.000286555 -1.43548e-15 0)
(0.00587157 -0.00143084 2.44639e-15 -0.00732479 1.38278e-14 0)
(0.00598979 -0.00127004 9.45273e-15 -0.00710663 9.77421e-15 0)
(0.00594535 -0.00149624 3.004e-15 -0.00711927 1.8182e-14 0)
(0.00598817 -0.00135735 1.74773e-16 -0.00682728 1.65335e-14 0)
(0.00595592 -0.00152283 -7.69003e-15 -0.00686278 1.97235e-14 0)
(0.00591817 -0.00141412 -4.19315e-15 -0.00650083 1.70248e-14 0)
(0.00589795 -0.00151929 -1.12908e-14 -0.00655206 1.43308e-14 0)
(0.00578021 -0.00144485 -1.36991e-14 -0.0061233 1.16516e-14 0)
(0.00577207 -0.00148936 -1.47713e-14 -0.0061881 6.31629e-15 0)
(0.00557554 -0.00145189 -1.10205e-14 -0.00569357 2.80917e-15 0)
(0.00557949 -0.00143574 -5.38046e-15 -0.00577242 -2.87368e-15 0)
(0.00530727 -0.00143656 -1.00321e-14 -0.00521359 -4.02543e-15 0)
(0.00532342 -0.00135931 -1.10549e-14 -0.00530895 -6.18039e-15 0)
(0.00497995 -0.00139905 -1.35808e-14 -0.0046888 -7.24529e-15 0)
(0.00500825 -0.001261 -9.94571e-15 -0.00480309 -7.08667e-15 0)
(0.00460339 -0.00133832 -7.29961e-15 -0.00413171 -8.60369e-15 0)
(0.00464337 -0.0011419 -6.35657e-15 -0.00426475 -9.05135e-15 0)
(0.00419077 -0.00125457 -5.23995e-15 -0.00356044 -1.06014e-14 0)
(0.00424143 -0.00100461 -4.03659e-15 -0.00370764 -5.88147e-15 0)
(0.00376232 -0.001148 -2.38329e-15 -0.00300228 -4.09243e-15 0)
(0.00382197 -0.000852544 -2.55904e-15 -0.00315104 -2.42503e-15 0)
(0.00334055 -0.00102143 -2.90816e-15 -0.00248662 -5.76774e-15 0)
(0.00340669 -0.000692101 -3.14251e-15 -0.00261698 -3.56594e-15 0)
(0.00294614 -0.000880586 -3.06737e-15 -0.00203617 -6.67543e-15 0)
(0.003016 -0.000530383 -2.431e-15 -0.00212601 -4.26417e-15 0)
(0.00259355 -0.000732819 -4.6238e-15 -0.00166158 -4.56254e-15 0)
(0.00266452 -0.000374064 -1.08046e-15 -0.00169271 5.20634e-16 0)
(0.00228969 -0.000585297 -1.97986e-15 -0.0013617 -7.61977e-16 0)
(0.00235964 -0.00022837 -2.86717e-16 -0.00132408 2.86988e-15 0)
(0.0020352 -0.000443631 -3.72488e-15 -0.0011274 1.07271e-15 0)
(0.00210249 -9.67636e-05 -3.30725e-15 -0.0010203 4.01805e-15 0)
(0.001826 -0.000311862 -2.60046e-15 -0.000945691 5.9501e-16 0)
(0.00188958 1.92113e-05 -2.62035e-15 -0.000776568 2.21242e-15 0)
(0.00165534 -0.000192189 -3.08656e-15 -0.000802969 -5.42101e-18 0)
(0.00171473 0.000120019 -4.49575e-15 -0.000585527 8.86877e-17 0)
(0.00151529 -8.4882e-05 -3.31064e-15 -0.000687002 -2.10379e-15 0)
(0.0015706 0.000208069 -2.74227e-15 -0.000440015 -2.33385e-15 0)
(0.00139412 9.18152e-06 -2.0299e-15 -0.000585796 -2.56305e-15 0)
(0.00144491 0.000279918 -1.23954e-15 -0.000323844 -3.24697e-15 0)
(0.00128911 9.10314e-05 -1.64712e-15 -0.000495414 -2.77642e-15 0)
(0.00555909 -0.00186477 1.38963e-14 -0.00695981 7.33552e-15 0)
(0.00560929 -0.00169812 1.54657e-14 -0.00663419 1.40742e-14 0)
(0.00554662 -0.00192827 7.84106e-15 -0.00668595 1.48957e-14 0)
(0.00552337 -0.00176891 -9.07911e-16 -0.00626357 1.67241e-14 0)
(0.00547498 -0.00195103 -5.19886e-15 -0.00636753 1.57806e-14 0)
(0.00537301 -0.0018047 -1.00494e-14 -0.0058458 1.18466e-14 0)
(0.00533967 -0.00193594 -1.13598e-14 -0.00600088 1.06262e-14 0)
(0.005157 -0.00180706 -2.01953e-14 -0.00537887 7.08288e-15 0)
(0.00513934 -0.00188515 -1.84809e-14 -0.0055849 4.70977e-15 0)
(0.00487661 -0.0017775 -1.96854e-14 -0.00486452 1.22797e-15 0)
(0.00487512 -0.00180064 -1.61966e-14 -0.00512135 -1.89605e-15 0)
(0.00453659 -0.0017174 -1.90892e-14 -0.00430968 1.50617e-15 0)
(0.00455153 -0.00168453 -1.50036e-14 -0.00461522 -2.05923e-15 0)
(0.00414902 -0.00162755 -1.01951e-14 -0.0037307 -1.22959e-15 0)
(0.00418011 -0.00153919 -6.26354e-15 -0.00407823 -8.17152e-15 0)
(0.0037318 -0.00150964 -4.61491e-15 -0.00315203 -5.22445e-15 0)
(0.0037777 -0.00136969 -4.67194e-15 -0.0035274 -7.40987e-15 0)
(0.00331296 -0.00136678 -4.24422e-15 -0.00261079 -4.48643e-15 0)
(0.00337098 -0.00118316 -3.18864e-15 -0.00298848 -6.048e-15 0)
(0.00292219 -0.00120549 -1.8245e-15 -0.0021431 -6.12249e-15 0)
(0.00298864 -0.000989201 -1.42854e-15 -0.00248932 -7.24312e-15 0)
(0.00258197 -0.0010349 -2.31249e-15 -0.00176915 -7.57315e-15 0)
(0.00265312 -0.000797258 -3.74722e-15 -0.00205179 -8.91767e-15 0)
(0.00230271 -0.000864261 -4.69243e-15 -0.00148941 -8.38609e-15 0)
(0.00237558 -0.000614457 -6.0106e-15 -0.00168654 -6.20662e-15 0)
(0.00208353 -0.00070059 -4.7333e-15 -0.00129011 -4.15163e-15 0)
(0.00215625 -0.000444838 -4.02759e-15 -0.00139308 -3.52149e-15 0)
(0.00191614 -0.000547941 -3.62948e-15 -0.00115129 -3.12771e-15 0)
(0.00198779 -0.000289759 -4.74788e-15 -0.00116316 -1.75489e-15 0)
(0.00178875 -0.000407809 -6.04025e-15 -0.0010529 -2.09403e-15 0)
(0.00185893 -0.000149381 -4.1197e-15 -0.000984614 -2.2096e-15 0)
(0.00168827 -0.00028089 -2.95819e-15 -0.000977294 -4.05405e-15 0)
(0.00175707 -2.30013e-05 -1.898e-15 -0.000844443 -2.95684e-15 0)
(0.00160288 -0.000166676 -2.02166e-15 -0.000911092 -4.65296e-15 0)
(0.00167062 9.06842e-05 -2.22386e-15 -0.000730737 -3.48094e-15 0)
(0.00152284 -6.43239e-05 -2.72503e-15 -0.000845899 -4.50313e-15 0)
(0.00158911 0.000190077 -3.10478e-15 -0.000631349 -3.17107e-15 0)
(0.00144314 2.59577e-05 -4.09812e-15 -0.000777283 -2.29222e-15 0)
(0.00150795 0.000276475 -3.183e-15 -0.000542377 -1.31427e-15 0)
(0.00135925 0.000104877 -2.92859e-15 -0.000702096 -1.11738e-15 0)
(0.00512142 -0.00222714 7.43372e-15 -0.00645437 8.57842e-15 0)
(0.00507892 -0.00204038 -4.34548e-15 -0.00599222 3.21916e-15 0)
(0.00500223 -0.00226415 -4.29615e-15 -0.00609363 1.09545e-14 0)
(0.00488124 -0.00206972 -1.42102e-14 -0.00550361 7.30736e-15 0)
(0.00482127 -0.00225424 -1.50847e-14 -0.00568955 9.5664e-15 0)
(0.00461999 -0.0020551 -1.6997e-14 -0.00496679 8.22281e-15 0)
(0.00457758 -0.00219829 -2.0388e-14 -0.0052404 7.14359e-15 0)
(0.00429717 -0.00199852 -1.89957e-14 -0.00438672 4.78502e-15 0)
(0.00427295 -0.00209858 -1.99835e-14 -0.00474767 1.35363e-15 0)
(0.00391947 -0.00190326 -1.3808e-14 -0.00377496 -4.88336e-15 0)
(0.00391367 -0.00195902 -1.65556e-14 -0.00421752 -1.43668e-15 0)
(0.00350302 -0.00177365 -1.29328e-14 -0.00315493 -2.52185e-15 0)
(0.00351517 -0.00178516 -1.09098e-14 -0.00366487 1.26429e-15 0)
(0.0030722 -0.00161583 -7.38092e-15 -0.00256023 -2.35857e-15 0)
(0.00310064 -0.00158549 -5.07038e-15 -0.00311217 -2.15875e-15 0)
(0.00266521 -0.00143792 -3.65246e-15 -0.00204145 -3.17856e-15 0)
(0.00270614 -0.00137263 -2.8534e-15 -0.00259371 -3.56085e-15 0)
(0.00231862 -0.00125177 -2.50234e-15 -0.00163936 -4.49066e-15 0)
(0.00236715 -0.00116088 -2.59569e-15 -0.00214331 -5.55057e-15 0)
(0.00205229 -0.00106959 -2.24896e-15 -0.00136326 -5.78454e-15 0)
(0.00210444 -0.000960856 -2.30848e-15 -0.00178063 -6.751e-15 0)
(0.00186661 -0.00089982 -2.97516e-15 -0.00119548 -5.13771e-15 0)
(0.00192024 -0.000777486 -3.93576e-15 -0.0015073 -5.67656e-15 0)
(0.00174858 -0.000745619 -3.85521e-15 -0.00110589 -3.33327e-15 0)
(0.00180324 -0.00061091 -3.48734e-15 -0.00131149 -4.23858e-15 0)
(0.00167957 -0.000606509 -3.42402e-15 -0.00106503 -2.74932e-15 0)
(0.00173581 -0.00045884 -4.31827e-15 -0.00117499 -2.34957e-15 0)
(0.00164111 -0.000480024 -4.96185e-15 -0.00104912 -1.22233e-15 0)
(0.00169977 -0.00031846 -5.51284e-15 -0.00107897 -2.38741e-15 0)
(0.00161618 -0.000364119 -4.82611e-15 -0.00104018 -2.62876e-15 0)
(0.00167795 -0.000188147 -4.17992e-15 -0.00100641 -4.10858e-15 0)
(0.00159223 -0.000256922 -3.30573e-15 -0.00102669 -3.32091e-15 0)
(0.00165743 -6.69866e-05 -2.1259e-15 -0.000944039 -4.91675e-15 0)
(0.00156269 -0.000157015 -3.63267e-15 -0.00100484 -3.20989e-15 0)
(0.00163074 4.43868e-05 -3.8905e-15 -0.000883042 -3.99919e-15 0)
(0.00152287 -6.51823e-05 -4.93529e-15 -0.000970898 -2.48131e-15 0)
(0.00159308 0.000144978 -4.58737e-15 -0.000818746 -2.20126e-15 0)
(0.00147265 1.90472e-05 -4.74154e-15 -0.000925284 -1.24228e-15 0)
(0.00154354 0.000233423 -3.87873e-15 -0.000747438 -1.16487e-15 0)
(0.00141296 9.3964e-05 -2.36584e-15 -0.000869362 -1.99233e-15 0)
(0.00455358 -0.00246838 -1.74241e-14 -0.00580117 -1.26006e-14 0)
(0.00437896 -0.00224413 -2.44878e-14 -0.00516487 -1.61721e-14 0)
(0.00429644 -0.0024502 -2.03819e-14 -0.00532911 -3.04162e-15 0)
(0.00403895 -0.00219987 -2.40597e-14 -0.00453099 -9.32262e-15 0)
(0.00397584 -0.00237475 -1.94014e-14 -0.00481414 4.36717e-16 0)
(0.00364144 -0.00210169 -1.70044e-14 -0.00385807 -6.76152e-15 0)
(0.00359749 -0.00224601 -1.34027e-14 -0.00426058 -6.68953e-16 0)
(0.0031981 -0.00195651 -1.07846e-14 -0.00316499 -6.76607e-15 0)
(0.00317255 -0.00207108 -1.07249e-14 -0.00367865 -7.00416e-15 0)
(0.00273229 -0.00177415 -1.01503e-14 -0.00248531 -8.17207e-15 0)
(0.00272344 -0.0018606 -9.95167e-15 -0.0030895 -6.81876e-15 0)
(0.0022773 -0.00156831 -7.80842e-15 -0.00186548 -4.23207e-15 0)
(0.00228215 -0.00162944 -7.50181e-15 -0.00252355 -3.30291e-15 0)
(0.00188508 -0.00135647 -5.30804e-15 -0.00137467 -3.94021e-15 0)
(0.00189807 -0.00139841 -3.83005e-15 -0.00202681 -3.90443e-15 0)
(0.00159681 -0.0011577 -2.637e-15 -0.00105346 -4.49976e-15 0)
(0.00161214 -0.00118682 -2.15084e-15 -0.00163724 -4.62965e-15 0)
(0.00142091 -0.000984971 -2.20169e-15 -0.000887213 -4.00027e-15 0)
(0.00143594 -0.00100317 -2.23183e-15 -0.0013653 -4.1783e-15 0)
(0.00134013 -0.000840754 -1.66859e-15 -0.000832553 -2.40324e-15 0)
(0.00135548 -0.000845744 -2.38503e-15 -0.00119677 -2.68969e-15 0)
(0.00132577 -0.000720227 -2.57574e-15 -0.000843339 -1.88152e-15 0)
(0.001344 -0.000707389 -3.16012e-15 -0.00110509 -2.25774e-15 0)
(0.00135055 -0.000615635 -2.67104e-15 -0.000886112 -1.55908e-15 0)
(0.00137424 -0.000581065 -3.36048e-15 -0.00106308 -1.34365e-15 0)
(0.00139247 -0.000520262 -3.04748e-15 -0.000938151 -6.02816e-16 0)
(0.00142362 -0.000461323 -3.8242e-15 -0.00104796 -1.02262e-15 0)
(0.00143461 -0.000429656 -3.45839e-15 -0.000984605 -1.33357e-15 0)
(0.00147424 -0.000345625 -4.05958e-15 -0.00104192 -1.83154e-15 0)
(0.00146612 -0.000341445 -3.62752e-15 -0.00101712 -1.85052e-15 0)
(0.00151445 -0.000233053 -3.58069e-15 -0.00103311 -2.02355e-15 0)
(0.00148546 -0.000253932 -3.07577e-15 -0.0010375 -1.21843e-15 0)
(0.00154117 -0.000124708 -4.22004e-15 -0.00101684 -1.11521e-15 0)
(0.00148844 -0.000169236 -4.32152e-15 -0.00104123 -7.66206e-16 0)
(0.00155039 -2.23291e-05 -4.72311e-15 -0.000989035 -1.61188e-15 0)
(0.00147703 -8.7753e-05 -3.53125e-15 -0.00103106 -4.87674e-16 0)
(0.00154363 7.29759e-05 -3.99599e-15 -0.000949547 -5.65303e-16 0)
(0.00145209 -1.11017e-05 -2.88593e-15 -0.00100712 2.90783e-16 0)
(0.00152166 0.000159251 -2.24527e-15 -0.000899636 -1.32446e-15 0)
(0.0014146 5.9165e-05 -2.19508e-15 -0.000970045 -3.46728e-16 0)
(0.00384653 -0.00253578 -3.11587e-14 -0.00499414 -1.48365e-14 0)
(0.00349818 -0.0022468 -2.89985e-14 -0.00414348 -3.73193e-15 0)
(0.003421 -0.0024264 -2.57093e-14 -0.0043866 -1.14049e-14 0)
(0.00299798 -0.00209417 -1.75821e-14 -0.00335819 -3.08889e-15 0)
(0.00294149 -0.0022529 -1.38032e-14 -0.00374512 -8.094e-15 0)
(0.00246329 -0.00188751 -1.07343e-14 -0.00256809 -2.68947e-15 0)
(0.00242512 -0.00202822 -1.15231e-14 -0.003086 -7.35881e-15 0)
(0.00192611 -0.00164444 -1.09687e-14 -0.00181736 -4.99644e-15 0)
(0.00190272 -0.00177039 -9.66957e-15 -0.0024393 -5.66767e-15 0)
(0.00143309 -0.00138681 -7.31988e-15 -0.00116629 -4.10436e-15 0)
(0.00141843 -0.00150371 -5.85339e-15 -0.001847 -4.21093e-15 0)
(0.00105593 -0.00114625 -3.63902e-15 -0.000710297 -4.8672e-15 0)
(0.0010404 -0.00126224 -3.65008e-15 -0.00137123 -5.43456e-15 0)
(0.000836086 -0.000950171 -1.78893e-15 -0.000479953 -6.41718e-15 0)
(0.000812451 -0.00106989 -2.40259e-15 -0.00105042 -5.37493e-15 0)
(0.000757656 -0.000807071 -9.99851e-16 -0.000419312 -5.01834e-15 0)
(0.000726372 -0.000926503 -1.36588e-15 -0.000875255 -3.51618e-15 0)
(0.000778421 -0.000707523 -8.84926e-16 -0.0004571 -3.16446e-15 0)
(0.000744935 -0.000817644 -1.24662e-15 -0.000809344 -1.96718e-15 0)
(0.000854286 -0.000635589 -1.88261e-15 -0.000539107 -2.51264e-15 0)
(0.000825213 -0.000726813 -2.50581e-15 -0.000811326 -2.15691e-15 0)
(0.000954934 -0.000576613 -2.75192e-15 -0.000637482 -3.04021e-15 0)
(0.000935009 -0.000642428 -2.36085e-15 -0.000849296 -2.02215e-15 0)
(0.00105913 -0.000521153 -2.40292e-15 -0.000734648 -2.66529e-15 0)
(0.00105133 -0.000557735 -2.46211e-15 -0.000900495 -1.388e-15 0)
(0.0011529 -0.000463826 -2.94328e-15 -0.000819835 -2.69381e-15 0)
(0.00115853 -0.000469942 -3.21401e-15 -0.000949348 -2.08926e-15 0)
(0.00122831 -0.000402366 -3.28979e-15 -0.000887292 -3.2577e-15 0)
(0.00124744 -0.000378677 -3.1585e-15 -0.000986638 -2.4079e-15 0)
(0.00129002 -0.000335569 -2.76201e-15 -0.000944595 -3.18029e-15 0)
(0.0013207 -0.000285687 -2.798e-15 -0.00101276 -1.74296e-15 0)
(0.00133188 -0.000266669 -2.43794e-15 -0.000982965 -2.24777e-15 0)
(0.00137297 -0.000193163 -2.94415e-15 -0.00102308 -1.29703e-15 0)
(0.00135853 -0.000196095 -2.09685e-15 -0.00100815 -2.21405e-15 0)
(0.00140788 -0.000103045 -2.50906e-15 -0.00101973 -5.21501e-16 0)
(0.00136938 -0.000126507 -2.22446e-15 -0.0010179 -8.38414e-16 0)
(0.00142555 -1.69173e-05 -2.29623e-15 -0.0010028 5.7788e-17 0)
(0.00136556 -5.92013e-05 -2.48e-15 -0.00101322 -1.77484e-15 0)
(0.00142672 6.32597e-05 -2.99912e-15 -0.000972709 -5.16405e-16 0)
(0.00134866 4.10132e-06 -3.4328e-15 -0.000995477 -2.18792e-16 0)
(0.00299108 -0.00237476 -2.08345e-14 -0.00403096 3.57711e-15 0)
(0.00245367 -0.001987 -1.38329e-14 -0.00295237 2.60686e-15 0)
(0.00239082 -0.00214082 -1.45248e-14 -0.00328358 3.03598e-15 0)
(0.00181303 -0.00170734 -1.03689e-14 -0.00205873 2.93754e-15 0)
(0.00176817 -0.00185311 -1.06133e-14 -0.0025322 1.74687e-15 0)
(0.00119217 -0.00140002 -9.80054e-15 -0.00123699 1.31492e-15 0)
(0.00116069 -0.00153966 -9.45554e-15 -0.00181558 -1.10057e-15 0)
(0.000646373 -0.00109846 -8.03914e-15 -0.000558417 7.30969e-16 0)
(0.000622017 -0.00123408 -7.3368e-15 -0.00118792 -1.90635e-15 0)
(0.000281902 -0.000847039 -4.13211e-15 -0.000154177 -1.85529e-15 0)
(0.000247578 -0.000991453 -2.07603e-15 -0.000733313 -4.78946e-15 0)
(0.000132552 -0.000678362 5.06973e-16 -2.4376e-05 -4.17093e-15 0)
(7.80602e-05 -0.000837751 5.41451e-16 -0.000483071 -5.27508e-15 0)
(0.0001404 -0.000585427 3.79904e-16 -4.83826e-05 -3.10201e-15 0)
(7.03988e-05 -0.000753372 -6.97793e-16 -0.000394936 -4.03594e-15 0)
(0.000236998 -0.000540427 -9.60386e-16 -0.000135865 -2.28279e-15 0)
(0.00016153 -0.000706212 -8.05562e-16 -0.000408771 -3.01137e-15 0)
(0.00037091 -0.000518072 -7.87781e-16 -0.000242554 -1.62663e-15 0)
(0.000299263 -0.000671386 -1.51311e-15 -0.000474769 -2.35749e-15 0)
(0.000518246 -0.000501437 -1.88196e-15 -0.000357227 -2.319e-15 0)
(0.000455774 -0.000635828 -2.5173e-15 -0.000564377 -3.33164e-15 0)
(0.000661562 -0.000482557 -2.85893e-15 -0.000469256 -2.34437e-15 0)
(0.000611893 -0.000593125 -3.09995e-15 -0.000658478 -2.68459e-15 0)
(0.000789385 -0.000457628 -3.14603e-15 -0.000571243 -2.52196e-15 0)
(0.000754821 -0.000540907 -2.88116e-15 -0.000744693 -3.71881e-15 0)
(0.000895757 -0.000424586 -2.96518e-15 -0.000657963 -3.22008e-15 0)
(0.000877187 -0.00047917 -3.11448e-15 -0.000816041 -3.28047e-15 0)
(0.000992017 -0.00038299 -3.21043e-15 -0.000743268 -2.39424e-15 0)
(0.000987432 -0.000410981 -2.99164e-15 -0.00087799 -3.14462e-15 0)
(0.00106582 -0.00033619 -3.01603e-15 -0.000808635 -2.0937e-15 0)
(0.00107521 -0.000337958 -2.41994e-15 -0.000922339 -2.619e-15 0)
(0.00112641 -0.000283706 -2.34372e-15 -0.000865104 -2.28626e-15 0)
(0.00114732 -0.000262695 -1.57556e-15 -0.000953783 -2.75062e-15 0)
(0.00116994 -0.000228811 -1.78026e-15 -0.000905838 -3.45579e-15 0)
(0.0012011 -0.000187213 -2.07191e-15 -0.00097027 -3.00508e-15 0)
(0.00119829 -0.000172644 -1.96436e-15 -0.000932678 -3.11285e-15 0)
(0.00123792 -0.000113357 -2.32323e-15 -0.000972525 -2.50494e-15 0)
(0.00121361 -0.000116849 -3.25889e-15 -0.000947155 -1.56017e-15 0)
(0.00125954 -4.33457e-05 -3.80251e-15 -0.000961626 -4.74664e-16 0)
(0.00121113 -6.43558e-05 -3.80924e-15 -0.000943089 7.55038e-16 0)
(0.00199982 -0.00194279 -1.04053e-14 -0.00293319 4.48177e-15 0)
(0.00131495 -0.00143474 -1.05636e-14 -0.00167845 5.07157e-15 0)
(0.00126613 -0.00157587 -1.00367e-14 -0.00208643 3.03067e-15 0)
(0.000613477 -0.00105372 -1.02143e-14 -0.000791693 4.19792e-15 0)
(0.000574582 -0.00119842 -9.75977e-15 -0.0013028 3.57863e-15 0)
(2.2348e-05 -0.000709863 -7.136e-15 -9.69448e-05 2.41235e-15 0)
(-1.35313e-05 -0.000856762 -5.92126e-15 -0.000645814 1.8413e-15 0)
(-0.000319769 -0.000483994 -4.08679e-15 0.00021561 9.81203e-17 0)
(-0.000369134 -0.00063164 -3.21878e-15 -0.00022542 -1.00603e-15 0)
(-0.000395888 -0.000386736 -5.01552e-16 0.000222196 -1.8709e-15 0)
(-0.000470783 -0.000541818 1.00072e-15 -4.94117e-05 -2.21362e-15 0)
(-0.00033175 -0.000373063 1.28456e-15 0.000140773 -1.31026e-15 0)
(-0.000420508 -0.000529834 5.95444e-16 -2.52925e-05 -1.32262e-15 0)
(-0.000211758 -0.000391165 -2.89916e-16 5.46421e-05 -4.85506e-16 0)
(-0.000302167 -0.000544255 -7.64146e-16 -7.64567e-05 -7.22838e-16 0)
(-7.22557e-05 -0.000412332 -3.47378e-16 -2.86681e-05 -4.25116e-16 0)
(-0.000159358 -0.000560518 -5.57063e-16 -0.000158988 -7.56773e-16 0)
(7.82348e-05 -0.000426566 -3.82507e-16 -0.000116789 -3.80555e-16 0)
(-3.55343e-06 -0.000569017 -1.03563e-15 -0.000258223 -1.31861e-15 0)
(0.000227752 -0.000430872 -8.75819e-16 -0.000205176 -9.1344e-16 0)
(0.000153152 -0.000565564 -2.14574e-15 -0.000361641 -1.08052e-15 0)
(0.000367826 -0.000425092 -1.78611e-15 -0.00029107 -3.1637e-16 0)
(0.000302067 -0.000549243 -2.62106e-15 -0.000460261 -1.56808e-15 0)
(0.000488992 -0.000411455 -1.44676e-15 -0.000370178 -1.72399e-15 0)
(0.000435462 -0.000519425 -2.15908e-15 -0.000547738 -2.30079e-15 0)
(0.000612207 -0.000389963 -1.45955e-15 -0.000465566 -1.61893e-15 0)
(0.000569184 -0.000481326 -2.47155e-15 -0.000634726 -1.78308e-15 0)
(0.000709289 -0.000364835 -2.0151e-15 -0.000542587 -1.40556e-15 0)
(0.000680762 -0.000434025 -2.84722e-15 -0.000704406 -1.10448e-15 0)
(0.00079859 -0.000332786 -1.69591e-15 -0.000620839 -7.12429e-16 0)
(0.000782659 -0.000380869 -1.85908e-15 -0.000765672 -1.50888e-15 0)
(0.000870161 -0.000296576 -1.13971e-15 -0.00068504 -8.31041e-16 0)
(0.000866789 -0.000323503 -1.86786e-15 -0.0008123 -2.4426e-15 0)
(0.0009276 -0.000256556 -1.04539e-15 -0.000738709 -7.30535e-16 0)
(0.000935263 -0.000264027 -9.41087e-16 -0.000845525 -2.04231e-15 0)
(0.000973461 -0.000214522 -1.06577e-16 -0.000783283 9.13115e-16 0)
(0.000990199 -0.000204801 -2.22804e-15 -0.000866414 4.58726e-16 0)
(0.00099961 -0.000173082 -1.44004e-15 -0.000808629 2.02941e-15 0)
(0.00102446 -0.000147758 -2.67169e-15 -0.000869183 9.93563e-16 0)
(0.00101023 -0.000132695 -6.12574e-17 -0.000818874 1.22135e-15 0)
(0.000932564 -0.00123631 -9.4189e-15 -0.00177281 6.27135e-15 0)
(0.00021635 -0.0006353 -8.20654e-15 -0.000493145 4.46149e-15 0)
(0.000168114 -0.000782626 -9.60386e-15 -0.0009311 4.39709e-15 0)
(-0.000409101 -0.00025314 -8.68663e-15 0.000199666 3.51585e-15 0)
(-0.000458141 -0.000405048 -6.77605e-15 -0.000256454 2.1928e-15 0)
(-0.000639783 -8.95569e-05 -4.02955e-15 0.000339715 1.0687e-15 0)
(-0.000736963 -0.000259321 -2.71202e-15 0.000106619 -3.71014e-16 0)
(-0.000597992 -0.000109208 -1.90017e-15 0.000257007 -6.98551e-16 0)
(-0.000719314 -0.000278083 -6.76976e-16 0.000186046 -1.08214e-15 0)
(-0.000497115 -0.00018309 -9.75782e-17 0.000194925 -5.35921e-16 0)
(-0.000609848 -0.000335692 3.89229e-16 0.00015105 -5.15972e-16 0)
(-0.000389068 -0.000253538 4.33247e-16 0.000137086 -3.13768e-16 0)
(-0.000486662 -0.000387548 4.67074e-16 8.93881e-05 -3.33609e-16 0)
(-0.000280031 -0.000308827 -3.42608e-17 7.64499e-05 -7.76289e-17 0)
(-0.000364289 -0.000427123 -4.05708e-16 2.19914e-05 2.81893e-17 0)
(-0.000171372 -0.00034971 -6.25368e-16 1.38585e-05 1.13841e-17 0)
(-0.000242604 -0.000453797 -3.90313e-16 -5.30294e-05 -1.08962e-16 0)
(-6.6082e-05 -0.000375286 -5.06106e-16 -4.95863e-05 -1.01156e-16 0)
(-0.000127021 -0.000468676 -3.66894e-16 -0.000128997 -3.65376e-17 0)
(3.51396e-05 -0.000387547 -4.98299e-16 -0.000112005 -1.11673e-17 0)
(-1.89311e-05 -0.000474263 -7.38992e-16 -0.000202152 -1.95698e-16 0)
(0.000134054 -0.000389184 -8.09032e-16 -0.000172536 -5.67471e-16 0)
(8.12613e-05 -0.000475235 -8.04261e-16 -0.000267626 -8.89913e-16 0)
(0.000238115 -0.000384612 -6.91938e-16 -0.000232633 -1.12529e-15 0)
(0.000192686 -0.000466069 -7.3639e-16 -0.000352314 -1.35547e-15 0)
(0.000330435 -0.000368447 -1.08377e-15 -0.000289545 -1.20997e-15 0)
(0.000287952 -0.000448881 -1.43765e-15 -0.000423229 -1.1408e-15 0)
(0.00043026 -0.000347402 -1.17593e-15 -0.000358078 -6.42823e-16 0)
(0.000391261 -0.000424546 -7.35414e-16 -0.000497697 -5.6205e-16 0)
(0.00051537 -0.000324024 -3.96818e-16 -0.000418773 5.7788e-17 0)
(0.000483871 -0.000392265 -7.5493e-16 -0.000561862 4.55256e-16 0)
(0.000591212 -0.000297537 -8.55436e-16 -0.000478997 1.21864e-15 0)
(0.000568168 -0.000354137 -5.00468e-16 -0.000617791 1.34116e-15 0)
(0.000661686 -0.00026831 -2.66931e-16 -0.000539362 1.59779e-15 0)
(0.000645951 -0.000313177 -4.68375e-17 -0.000665917 2.1555e-15 0)
(0.000712324 -0.000238888 -4.21538e-16 -0.00058386 2.11029e-15 0)
(0.000704756 -0.000270607 1.61329e-16 -0.000696541 2.28431e-15 0)
(0.000748595 -0.000209466 4.14924e-16 -0.000617973 9.63747e-16 0)
(0.000748511 -0.000228138 1.1267e-15 -0.000712832 9.59411e-16 0)
(0.000777892 -0.000180578 9.57893e-16 -0.000646515 9.86841e-16 0)
(-8.06864e-05 -0.000353923 -8.29697e-15 -0.000675283 3.75069e-15 0)
(-0.000605341 0.000174587 -8.32234e-15 0.000286207 2.93027e-15 0)
(-0.000695939 1.43897e-05 -7.37149e-15 2.7251e-05 2.83757e-15 0)
(-0.000675719 0.000191788 -5.75863e-15 0.000264451 1.85128e-15 0)
(-0.000817803 3.0721e-05 -4.44783e-15 0.000270617 1.45706e-15 0)
(-0.000610732 8.16434e-05 -3.20729e-15 0.000238164 8.94467e-16 0)
(-0.000742007 -6.66092e-05 -2.00187e-15 0.000246426 1.51246e-16 0)
(-0.000535988 -1.75459e-05 -1.23686e-15 0.000208789 -7.44847e-17 0)
(-0.00065613 -0.000156723 -5.6205e-16 0.000200363 -4.21429e-16 0)
(-0.000454275 -0.00010136 -7.12321e-16 0.00017127 -5.21501e-17 0)
(-0.000563694 -0.000231376 -1.57209e-16 0.000148688 5.85469e-18 0)
(-0.00036731 -0.000171253 -2.59341e-16 0.000127088 4.34765e-17 0)
(-0.000464106 -0.000289559 -1.28803e-16 9.207e-05 -4.18502e-17 0)
(-0.000278163 -0.000226966 -6.45534e-16 7.78786e-05 6.83047e-18 0)
(-0.000362034 -0.000332756 -7.46582e-16 3.25262e-05 -4.47775e-17 0)
(-0.000189639 -0.000269195 -1.70437e-16 2.58801e-05 -7.28584e-17 0)
(-0.000260856 -0.000362174 -1.84098e-16 -2.70306e-05 -9.75782e-18 0)
(-0.000103932 -0.00029923 1.04083e-16 -2.68112e-05 -1.43657e-16 0)
(-0.000163699 -0.000380075 -3.75568e-16 -8.40795e-05 -2.0177e-16 0)
(-2.21101e-05 -0.000319038 -3.34368e-16 -7.85564e-05 -3.4933e-16 0)
(-7.17344e-05 -0.000388685 -5.49907e-16 -0.000137642 -5.1131e-16 0)
(5.56517e-05 -0.000330443 -3.70797e-16 -0.000128509 -5.01769e-16 0)
(1.59602e-05 -0.000389386 -5.47305e-16 -0.000190563 -8.1055e-16 0)
(0.000128083 -0.000333681 -3.29597e-16 -0.000176177 -3.23418e-16 0)
(9.4297e-05 -0.0003852 -8.42208e-16 -0.000235152 -5.65195e-16 0)
(0.000198633 -0.000332641 -6.67001e-16 -0.000221487 -2.16949e-16 0)
(0.000174186 -0.000375719 -7.01045e-16 -0.000290684 -4.36283e-16 0)
(0.000263212 -0.000322468 -1.78243e-16 -0.000265266 -1.09613e-16 0)
(0.000240872 -0.00036403 -3.66243e-16 -0.000338535 2.56305e-16 0)
(0.000325951 -0.000308304 -4.92011e-16 -0.000306326 6.3892e-16 0)
(0.000305381 -0.00034945 -6.35993e-16 -0.00038695 1.16844e-15 0)
(0.00038538 -0.000290396 -4.58184e-16 -0.000345247 1.21366e-15 0)
(0.000369566 -0.000328974 -4.54498e-16 -0.000438986 1.522e-15 0)
(0.000435088 -0.000267179 -1.91362e-16 -0.000380807 1.00256e-15 0)
(0.000420338 -0.000305435 -3.65268e-16 -0.000478633 1.12616e-15 0)
(0.000479462 -0.000242586 1.40296e-16 -0.000413102 3.56919e-16 0)
(0.000465034 -0.000280394 3.25694e-16 -0.000510563 2.04047e-16 0)
(0.000525259 -0.0002183 1.81712e-16 -0.000447185 -1.59595e-16 0)
(0.000510799 -0.00025493 1.80953e-16 -0.000539094 7.20236e-16 0)
(0.000563078 -0.000195932 1.98084e-16 -0.000474384 8.30065e-16 0)
(-0.000724537 0.000336729 -6.05418e-15 0.000162042 1.89226e-15 0)
(-0.000580529 0.000365378 -4.0508e-15 0.00014171 1.31926e-15 0)
(-0.000731857 0.000232858 -4.87718e-15 0.000238515 1.44795e-15 0)
(-0.000559968 0.000239048 -2.98221e-15 0.000176157 1.08735e-15 0)
(-0.000693393 0.000113648 -2.73089e-15 0.000226223 9.57134e-16 0)