/*--------------------------------*- C++ -*----------------------------------*\
| =========                 |                                                 |
| \\      /  F ield         | OpenFOAM: The Open Source CFD Toolbox           |
|  \\    /   O peration     | Version:  v2012                                 |
|   \\  /    A nd           | Website:  www.openfoam.com                      |
|    \\/     M anipulation  |                                                 |
\*---------------------------------------------------------------------------*/
FoamFile
{
    version     2.0;
    format      ascii;
    class       volSymmTensorField;
    location    "19";
    object      epsilonP;
}
// * * * * * * * * * * * * * * * * * * * * * * * * * * * * * * * * * * * * * //

dimensions      [0 0 0 0 0 0 0];


internalField   nonuniform List<symmTensor> 
8000
(
(0.00956254 -0.000432263 3.95231e-19 -0.00878278 2.59678e-18 -0.000779751)
(0.0092933 -0.000602753 2.38706e-18 -0.00855484 1.89045e-18 -0.000738459)
(0.00921505 -0.000368497 1.84977e-18 -0.00839247 1.78578e-18 -0.000822573)
(0.00890032 -0.000579671 1.8635e-18 -0.00813477 -8.52592e-19 -0.000765547)
(0.00880886 -0.000305332 -4.3005e-20 -0.00794899 -2.15047e-18 -0.000859868)
(0.00847557 -0.000547343 -4.60437e-19 -0.00768822 -2.66903e-18 -0.000787346)
(0.00836781 -0.000250021 -3.1172e-19 -0.00747653 -5.40317e-18 -0.000891284)
(0.00802176 -0.000516829 1.40252e-18 -0.00721575 -3.28653e-18 -0.000806007)
(0.00789827 -0.000201981 1.65605e-18 -0.00698173 -6.61751e-18 -0.000916541)
(0.00753989 -0.000489168 -1.83024e-18 -0.00671842 -4.87367e-18 -0.000821474)
(0.0074023 -0.000159124 -3.37071e-18 -0.00646697 -4.22907e-18 -0.000935335)
(0.0070303 -0.000463323 -1.99609e-18 -0.0061975 2.43236e-19 -0.000832799)
(0.00688055 -0.000119543 1.41183e-18 -0.00593361 -3.06893e-18 -0.000946947)
(0.00649307 -0.000437796 2.71653e-18 -0.00565421 -2.46359e-20 -0.00083886)
(0.00633332 -8.16988e-05 1.33261e-18 -0.00538309 -5.21286e-18 -0.000950228)
(0.00592913 -0.000410654 -3.82103e-19 -0.00509132 -2.82734e-18 -0.000837808)
(0.00576166 -4.4989e-05 -1.65915e-18 -0.0048183 -3.51088e-18 -0.000943369)
(0.00534067 -0.000380173 -2.96586e-18 -0.00451303 -8.0871e-19 -0.000827637)
(0.00516811 -9.19753e-06 -1.22071e-18 -0.00424343 -6.7289e-19 -0.000924687)
(0.00473108 -0.000345771 -1.04527e-18 -0.00392533 -4.60447e-19 -0.000805748)
(0.00455611 2.45841e-05 1.80831e-19 -0.00366483 3.0161e-19 -0.000891283)
(0.00410785 -0.000305246 2.31807e-19 -0.00333864 -1.25074e-18 -0.000769207)
(0.00393359 5.42417e-05 2.71332e-20 -0.00309271 -1.99297e-19 -0.000840877)
(0.00348147 -0.000259252 6.55116e-19 -0.00276561 -1.20287e-18 -0.000715857)
(0.00331136 7.76937e-05 4.38586e-19 -0.00253881 -2.30773e-18 -0.000772547)
(0.00286598 -0.000209588 -2.50284e-19 -0.00222085 -1.46817e-18 -0.000645133)
(0.00270343 9.22162e-05 -5.60883e-19 -0.00201771 -1.02873e-18 -0.00068572)
(0.00227738 -0.000159062 -1.47725e-18 -0.00171963 -8.51637e-19 -0.00055775)
(0.002126 9.62898e-05 -8.63297e-19 -0.00154326 8.22054e-19 -0.000582743)
(0.00173147 -0.000111404 -7.63702e-19 -0.00127394 -8.61844e-20 -0.00045753)
(0.0015948 9.00311e-05 4.74603e-20 -0.00112627 5.26083e-19 -0.000468538)
(0.00124137 -7.01625e-05 2.32319e-19 -0.000890939 3.33251e-19 -0.000350428)
(0.00112255 7.52636e-05 2.01448e-19 -0.000772554 1.29878e-19 -0.000349998)
(0.00081594 -3.79263e-05 1.46614e-19 -0.000572585 1.82889e-20 -0.000243355)
(0.000717255 5.49114e-05 1.9831e-20 -0.000482611 -9.13035e-20 -0.000234644)
(0.000459345 -1.58064e-05 -1.07853e-19 -0.000316269 -1.62109e-19 -0.000143076)
(0.000382039 3.24035e-05 -6.22894e-20 -0.000252308 -1.70321e-19 -0.000129731)
(0.000171365 -3.56283e-06 -5.96011e-20 -0.000116242 -1.43043e-19 -5.51224e-05)
(0.000115749 1.06048e-05 -1.53605e-20 -7.5332e-05 -9.83073e-20 -4.04167e-05)
(0 0 0 0 0 0)
(0.00937807 -0.00100093 4.26239e-18 -0.0085781 3.49226e-18 -0.000799973)
(0.00903969 -0.00119355 7.69598e-18 -0.00830487 1.61415e-18 -0.000734818)
(0.00898128 -0.000965897 5.23333e-18 -0.00815763 1.00894e-18 -0.000823646)
(0.00861883 -0.00115259 8.65086e-18 -0.00785048 -2.12677e-18 -0.000768351)
(0.00856959 -0.000904312 4.55622e-18 -0.00772023 -4.95126e-18 -0.00084936)
(0.00818049 -0.00109888 8.62403e-18 -0.00738521 -7.74026e-18 -0.000795282)
(0.00813312 -0.000832391 5.21361e-18 -0.00726011 -7.22261e-18 -0.000873017)
(0.00771732 -0.00103927 6.89951e-18 -0.00690012 -2.6733e-18 -0.000817195)
(0.00766867 -0.000755133 -7.07158e-19 -0.00677602 -1.63183e-19 -0.000892644)
(0.00722598 -0.000975388 -2.70423e-18 -0.00639182 -1.1784e-18 -0.000834157)
(0.00717484 -0.000674324 -2.81651e-18 -0.00626802 -3.00897e-19 -0.00090683)
(0.00670382 -0.000907765 5.35631e-20 -0.00585831 -3.25242e-18 -0.000845505)
(0.00665036 -0.000590259 1.85163e-18 -0.00573646 1.35021e-18 -0.000913907)
(0.00615039 -0.000835113 -3.09242e-18 -0.00530081 -1.72806e-18 -0.000849575)
(0.00609569 -0.000502815 -3.5132e-18 -0.00518337 -8.62092e-19 -0.000912317)
(0.00556678 -0.00075641 -8.06487e-18 -0.00472223 -1.14758e-18 -0.000844543)
(0.00551233 -0.000411985 -5.99117e-18 -0.00461249 1.28558e-18 -0.000899836)
(0.00495749 -0.000670127 -5.24434e-18 -0.00413026 -1.26155e-18 -0.000827227)
(0.00490436 -0.000320078 -2.0748e-18 -0.00402984 -3.28391e-19 -0.00087452)
(0.00433131 -0.000576499 -1.8925e-18 -0.00353624 -6.20726e-19 -0.000795072)
(0.00428024 -0.000228117 -4.16555e-19 -0.00344575 -1.07503e-18 -0.000834484)
(0.00370171 -0.000476265 -1.78619e-18 -0.00295619 1.49723e-18 -0.000745528)
(0.00365173 -0.000141005 -3.65526e-19 -0.00287381 -7.45771e-19 -0.000777913)
(0.00308616 -0.000373757 -1.26362e-18 -0.00240817 7.2788e-19 -0.000677986)
(0.00303507 -6.42291e-05 -8.24452e-19 -0.00233025 -5.0878e-19 -0.000704814)
(0.00250308 -0.000275124 -1.45083e-18 -0.00190841 8.86591e-19 -0.000594671)
(0.00244853 -2.88223e-06 -1.79219e-18 -0.00183153 -6.36773e-19 -0.000617001)
(0.00196812 -0.000186828 -1.41731e-18 -0.00146773 1.17029e-18 -0.000500396)
(0.00190893 3.97445e-05 -1.0616e-18 -0.00139052 2.75304e-19 -0.00051841)
(0.0014921 -0.000113966 -2.31769e-19 -0.0010906 2.64576e-19 -0.000401493)
(0.00142902 6.31524e-05 2.54892e-19 -0.00101435 -2.51e-19 -0.00041467)
(0.00108036 -5.93011e-05 1.49174e-19 -0.000776119 -2.20959e-19 -0.000304239)
(0.00101584 6.91431e-05 2.04223e-19 -0.00070404 1.00287e-19 -0.000311801)
(0.000733479 -2.2898e-05 -1.66812e-19 -0.000519583 -4.27039e-20 -0.000213896)
(0.000670842 6.16171e-05 -8.01984e-20 -0.000455354 6.17217e-20 -0.000215488)
(0.000448659 -2.74358e-06 -1.49555e-19 -0.000314473 1.24123e-19 -0.000134185)
(0.000391068 4.4895e-05 -1.09189e-19 -0.000261077 -2.77534e-19 -0.00012999)
(0.000221998 4.39355e-06 -4.4489e-20 -0.000154477 -4.55514e-20 -6.75205e-05)
(0.000178583 2.44612e-05 -5.33512e-21 -0.000118071 -2.32065e-19 -6.0512e-05)
(3.69095e-05 1.77837e-06 1.34627e-21 -2.54047e-05 -2.15404e-20 -1.15048e-05)
(0.009089 -0.00160089 1.2358e-17 -0.00828845 6.87932e-19 -0.000800551)
(0.00865891 -0.00177313 2.12429e-17 -0.00792185 -4.75364e-18 -0.000737057)
(0.00864001 -0.00153059 1.9112e-17 -0.00782219 -5.6164e-18 -0.000817822)
(0.0081927 -0.00168395 2.50421e-17 -0.00742138 -1.00314e-17 -0.000771325)
(0.0081915 -0.00144128 1.81437e-17 -0.00735546 -9.90537e-18 -0.000836044)
(0.00771467 -0.00158815 8.97121e-18 -0.00691489 -4.38967e-18 -0.000799775)
(0.00772675 -0.0013383 1.38238e-18 -0.00687447 2.08067e-19 -0.000852284)
(0.00721472 -0.00148519 3.05324e-18 -0.00639235 5.36551e-19 -0.00082237)
(0.00723772 -0.00122383 5.57642e-18 -0.00637324 -9.93483e-19 -0.000864484)
(0.00668611 -0.00137415 2.602e-18 -0.00584784 -3.73251e-18 -0.000838267)
(0.0067188 -0.00109962 -3.73005e-18 -0.00584807 -2.35714e-18 -0.000870738)
(0.00612559 -0.00125431 -8.59494e-18 -0.00527952 1.88623e-18 -0.000846071)
(0.00616775 -0.000966036 -9.03369e-18 -0.00529869 -2.34663e-18 -0.00086906)
(0.00553274 -0.00112481 -1.14699e-17 -0.00468956 5.38826e-18 -0.000843178)
(0.00558439 -0.000824358 -8.99819e-18 -0.00472701 8.2417e-19 -0.000857387)
(0.00491381 -0.000984539 -5.6138e-18 -0.00408708 1.95856e-18 -0.000826732)
(0.00497403 -0.000676713 -4.82317e-18 -0.00414037 5.52326e-19 -0.000833657)
(0.00427975 -0.000834889 -3.2414e-18 -0.00348642 1.17632e-18 -0.000793331)
(0.00434618 -0.000527605 -3.3324e-18 -0.0035502 -1.07492e-18 -0.00079598)
(0.00365047 -0.000679495 -2.3877e-18 -0.00290899 3.9058e-19 -0.000741481)
(0.003718 -0.00038274 -2.16933e-18 -0.00297411 8.34816e-19 -0.000743896)
(0.00304918 -0.00052608 -6.80049e-19 -0.00237711 1.10633e-18 -0.000672068)
(0.00311032 -0.000250524 -1.07926e-18 -0.00243249 7.71046e-19 -0.000677824)
(0.00249712 -0.00038408 -4.38696e-19 -0.00190747 1.41285e-18 -0.000589656)
(0.0025444 -0.000138471 -1.17648e-18 -0.00194386 2.35979e-20 -0.000600543)
(0.00200846 -0.000261575 -7.01899e-19 -0.00150739 4.47049e-19 -0.000501073)
(0.00203686 -5.12144e-05 -8.01196e-19 -0.0015203 -3.52433e-19 -0.000516552)
(0.00158891 -0.000163111 -2.88489e-19 -0.00117568 -4.40803e-19 -0.000413221)
(0.00159706 1.03301e-05 -1.08985e-19 -0.00116598 -5.01804e-19 -0.000431072)
(0.00123703 -8.93311e-05 -1.49421e-19 -0.000905617 3.11459e-19 -0.000331415)
(0.001227 4.83763e-05 -3.65503e-19 -0.000878128 4.33952e-19 -0.000348869)
(0.00094627 -3.80018e-05 -4.46531e-19 -0.000687636 7.4487e-20 -0.000258634)
(0.000922541 6.71198e-05 -2.37496e-19 -0.000649097 1.38458e-19 -0.000273444)
(0.000707134 -5.2861e-06 -1.63816e-19 -0.000511291 -7.85656e-19 -0.000195843)
(0.000675735 7.17064e-05 -8.99109e-20 -0.000468874 -1.70186e-19 -0.000206861)
(0.000508981 1.29035e-05 -5.08444e-20 -0.000366654 -3.03299e-19 -0.000142327)
(0.000477461 6.63047e-05 -5.30145e-20 -0.000327893 -6.82157e-20 -0.000149567)
(0.000338088 1.93093e-05 -2.31218e-20 -0.000242894 -1.14052e-19 -9.51941e-05)
(0.000310625 5.28095e-05 6.21766e-21 -0.000211872 -1.33379e-20 -9.8753e-05)
(0.000189655 1.63e-05 -2.65863e-20 -0.000136197 1.06345e-19 -5.34577e-05)
(0.00864143 -0.00216618 4.16659e-17 -0.00785167 -7.83741e-18 -0.000789752)
(0.00811082 -0.00228836 4.20224e-17 -0.00737139 -8.09669e-18 -0.000739432)
(0.00814215 -0.00203344 2.69814e-17 -0.00733831 -9.0678e-18 -0.000803837)
(0.00758685 -0.00213384 1.57061e-17 -0.00681466 2.06099e-18 -0.000772187)
(0.00764119 -0.00189107 4.79181e-18 -0.0068255 5.38793e-18 -0.000815681)
(0.00704792 -0.00197564 4.59381e-18 -0.00624888 9.31923e-19 -0.000799044)
(0.00712498 -0.00173604 8.53059e-18 -0.00630135 -5.87895e-18 -0.000823634)
(0.00648481 -0.00180905 1.11985e-17 -0.00566642 -4.06742e-18 -0.000818389)
(0.00658426 -0.00156706 3.41495e-18 -0.00575836 -1.94827e-18 -0.000825904)
(0.00589229 -0.00163137 -8.42719e-18 -0.00506433 6.32688e-18 -0.000827951)
(0.00601356 -0.00138443 -1.33208e-17 -0.00519316 5.86527e-18 -0.000820396)
(0.00527003 -0.00144159 -1.23374e-17 -0.00444541 7.96941e-18 -0.000824618)
(0.00541168 -0.00119001 -8.9511e-18 -0.0046068 6.18599e-18 -0.00080488)
(0.00462651 -0.00123994 -5.0763e-18 -0.0038216 5.78104e-18 -0.000804907)
(0.0047853 -0.000986906 -4.59816e-18 -0.00400778 6.83975e-18 -0.000777518)
(0.00397743 -0.00102971 -2.45835e-18 -0.00321209 6.82335e-18 -0.000765342)
(0.00414716 -0.000782272 -2.81674e-18 -0.00341052 5.65425e-18 -0.000736641)
(0.00335076 -0.000819292 -2.11654e-18 -0.00264517 5.14738e-18 -0.000705596)
(0.00352113 -0.000585727 -2.16224e-18 -0.00283839 3.31634e-18 -0.000682745)
(0.00277684 -0.000621731 3.71296e-19 -0.00214702 1.9846e-18 -0.000629818)
(0.00293496 -0.000408819 8.95432e-19 -0.00231701 9.87843e-19 -0.000617948)
(0.00227796 -0.00044895 1.26892e-18 -0.00173164 1.93517e-18 -0.000546318)
(0.00241247 -0.000260369 3.54689e-19 -0.00186565 1.2386e-18 -0.000546823)
(0.00186313 -0.000307753 -2.76887e-19 -0.00139901 1.52862e-18 -0.000464114)
(0.00196735 -0.000143929 -3.88355e-19 -0.00149242 -5.4693e-19 -0.000474926)
(0.00152922 -0.000198632 -2.90355e-19 -0.00113949 1.4519e-18 -0.000389739)
(0.00160185 -5.79042e-05 1.35712e-19 -0.00119473 3.63939e-19 -0.000407117)
(0.00126512 -0.000117726 4.16429e-19 -0.000938995 4.47035e-19 -0.000326126)
(0.00130931 2.865e-06 -1.55881e-19 -0.000962715 7.61832e-19 -0.000346595)
(0.00105618 -5.8765e-05 8.44987e-20 -0.000782629 -1.13622e-19 -0.000273546)
(0.00107756 4.3898e-05 -3.353e-19 -0.000783173 6.22626e-19 -0.000294384)
(0.000886214 -1.69607e-05 1.68783e-19 -0.000656637 -2.12298e-19 -0.000229577)
(0.000892082 7.0068e-05 -7.92317e-20 -0.000642552 -1.42227e-19 -0.00024953)
(0.00074098 1.20718e-05 -4.41658e-20 -0.000549188 4.85662e-20 -0.000191791)
(0.000738942 8.57953e-05 -4.95361e-20 -0.000528511 -4.57697e-19 -0.00021043)
(0.000609222 3.06264e-05 -2.04481e-19 -0.000451645 1.01485e-19 -0.000157577)
(0.000604389 9.15688e-05 -1.62248e-19 -0.00042991 2.4305e-19 -0.000174479)
(0.000484285 3.95863e-05 -9.56876e-20 -0.000359223 -1.35146e-19 -0.000125061)
(0.000482325 8.87391e-05 -1.11151e-19 -0.000341453 1.50249e-19 -0.000140871)
(0.00036068 4.05853e-05 -5.43594e-20 -0.000267206 -3.44329e-20 -9.34738e-05)
(0.00802308 -0.00263799 4.50625e-17 -0.00725171 -4.86715e-18 -0.000771376)
(0.00737677 -0.00268715 3.02731e-17 -0.00663839 -8.69076e-18 -0.000738379)
(0.00746353 -0.00242669 1.60366e-17 -0.00668279 1.20612e-19 -0.000780745)
(0.0067754 -0.00244908 2.27759e-17 -0.00600825 -1.93357e-18 -0.000767151)
(0.00689224 -0.00220824 2.11994e-17 -0.00610772 -4.53208e-18 -0.000784523)
(0.00615106 -0.00220471 1.54138e-17 -0.00536356 -8.17436e-18 -0.0007875)
(0.00630031 -0.00197714 2.49923e-18 -0.00551893 -1.47659e-18 -0.000781385)
(0.00550026 -0.00194949 -9.99946e-18 -0.00470424 6.20714e-18 -0.000796027)
(0.00568235 -0.00173169 -1.13266e-17 -0.00491291 1.00505e-17 -0.000769441)
(0.00482554 -0.00168244 -1.19707e-17 -0.00403703 9.47648e-18 -0.000788511)
(0.00503827 -0.00147393 -9.1507e-18 -0.00429178 8.86914e-18 -0.000746497)
(0.0041404 -0.00140605 -3.13123e-18 -0.00337986 6.79578e-18 -0.000760538)
(0.00437784 -0.00120947 -3.31513e-18 -0.00366703 6.77631e-18 -0.000710808)
(0.00346787 -0.00112803 -2.69928e-18 -0.00275895 7.11879e-18 -0.000708923)
(0.00371955 -0.000948495 -2.33672e-18 -0.00305799 4.90627e-18 -0.000661567)
(0.00284696 -0.000864412 -4.35325e-19 -0.00221103 3.55598e-18 -0.000635933)
(0.00309638 -0.00070644 -1.65999e-19 -0.00249573 4.12356e-18 -0.000600658)
(0.00231484 -0.000634493 -5.41674e-19 -0.0017634 3.71664e-18 -0.000551441)
(0.00254372 -0.000498596 3.49342e-19 -0.00201058 2.32468e-18 -0.000533143)
(0.00189002 -0.000449724 -1.19545e-19 -0.00142172 1.95491e-18 -0.000468301)
(0.00208497 -0.000332666 5.74719e-19 -0.00161892 1.717e-18 -0.000466054)
(0.00157004 -0.000310527 -6.66192e-19 -0.00117387 1.60331e-18 -0.000396171)
(0.00172549 -0.000207418 -9.65724e-19 -0.00131997 2.72098e-18 -0.000405514)
(0.00133837 -0.000209051 -6.68445e-19 -0.000999538 1.07089e-18 -0.000338833)
(0.00145566 -0.000115634 -9.45048e-20 -0.00110079 1.47996e-18 -0.000354876)
(0.00117279 -0.000135183 1.16355e-19 -0.000877614 7.57664e-19 -0.000295178)
(0.00125767 -4.82524e-05 2.73538e-19 -0.000943024 1.04159e-18 -0.000314645)
(0.00105154 -7.95304e-05 1.95753e-19 -0.000789472 4.12482e-19 -0.000262072)
(0.00111156 2.53406e-06 2.17928e-19 -0.000828477 2.38149e-19 -0.000283079)
(0.000954811 -3.63417e-05 -6.45278e-20 -0.000719481 8.04052e-19 -0.00023533)
(0.000997945 4.1811e-05 2.3552e-20 -0.000740633 8.43577e-19 -0.000257312)
(0.000868092 -1.92366e-06 -2.95028e-19 -0.000656243 9.16565e-19 -0.00021185)
(0.000901376 7.22924e-05 1.08751e-19 -0.000666783 -6.26612e-19 -0.000234593)
(0.000783995 2.51288e-05 -3.08443e-19 -0.000594226 9.29091e-20 -0.000189769)
(0.000811666 9.50097e-05 -1.57687e-19 -0.000598666 2.08847e-19 -0.000212999)
(0.000696488 4.47432e-05 -1.80141e-19 -0.0005291 -1.83206e-19 -0.000167387)
(0.000722283 0.000109211 -1.6123e-19 -0.000531126 -5.33625e-20 -0.000191156)
(0.000604595 5.79249e-05 -1.71204e-19 -0.000459627 -1.30859e-19 -0.000144968)
(0.000629081 0.000116026 -1.32679e-19 -0.000461134 -1.79218e-19 -0.000167947)
(0.000507998 6.33942e-05 -7.5767e-20 -0.000386755 -1.36065e-19 -0.000121244)
(0.0072317 -0.00296302 2.88083e-17 -0.00648614 -6.59401e-18 -0.000745557)
(0.00644422 -0.0029123 2.22462e-17 -0.00571416 -2.5005e-18 -0.000730056)
(0.00658979 -0.00265348 3.16415e-17 -0.00584352 -8.94769e-18 -0.000746278)
(0.00574103 -0.00256468 1.43591e-17 -0.00499199 2.10444e-18 -0.000749044)
(0.0059246 -0.00233413 1.93221e-18 -0.0051869 1.88244e-18 -0.000737697)
(0.00501139 -0.00220708 -1.60647e-17 -0.00425846 1.26021e-17 -0.000752932)
(0.00523463 -0.00200288 -1.41056e-17 -0.00451673 1.05661e-17 -0.000717904)
(0.00426392 -0.00184065 -1.01404e-17 -0.00352783 1.1392e-17 -0.000736094)
(0.00452443 -0.0016632 -7.90629e-18 -0.00383991 8.32489e-18 -0.000684519)
(0.0035206 -0.0014727 -1.56962e-18 -0.0028274 8.31668e-18 -0.000693193)
(0.00381042 -0.00132465 -1.71204e-18 -0.00317448 8.11547e-18 -0.000635945)
(0.00281551 -0.0011181 -1.49121e-19 -0.00219361 6.11683e-18 -0.000621904)
(0.00311991 -0.00100337 -1.33634e-18 -0.00254724 4.76276e-18 -0.000572671)
(0.00220355 -0.000805505 -6.73253e-19 -0.001673 4.33678e-18 -0.000530547)
(0.00249974 -0.000722629 -2.03485e-19 -0.00199966 3.85771e-18 -0.000500079)
(0.00172703 -0.000560271 7.62288e-20 -0.00128931 3.15685e-18 -0.000437712)
(0.00199266 -0.000500464 -6.58755e-19 -0.00156499 2.54253e-18 -0.000427672)
(0.00139218 -0.000386361 -9.45223e-19 -0.00103217 1.35465e-18 -0.000360006)
(0.00161488 -0.000338543 -1.37315e-18 -0.00124998 2.46266e-18 -0.000364908)
(0.00117775 -0.000270097 -1.23837e-18 -0.000873835 6.22814e-19 -0.000303912)
(0.00135581 -0.000225819 -1.63077e-18 -0.001039 1.52802e-18 -0.000316811)
(0.00105008 -0.000192318 -1.51416e-18 -0.00078303 8.59452e-19 -0.000267051)
(0.00118944 -0.000146603 -9.11053e-19 -0.000905952 6.68383e-19 -0.000283485)
(0.000977726 -0.000136999 -6.97151e-19 -0.000733983 3.35398e-19 -0.000243744)
(0.00108681 -8.79719e-05 -2.98761e-19 -0.00082531 8.58931e-19 -0.000261498)
(0.000935179 -9.36506e-05 -1.56814e-19 -0.000706927 1.04868e-19 -0.000228252)
(0.0010228 -4.07262e-05 3.29661e-20 -0.00077581 4.01212e-19 -0.000246994)
(0.000903122 -5.68073e-05 -3.74645e-19 -0.000687049 6.04991e-19 -0.000216073)
(0.000976845 -2.85675e-07 -4.21131e-19 -0.00074077 6.31196e-19 -0.000236075)
(0.000869177 -2.40462e-05 -1.82709e-19 -0.000664854 4.96125e-20 -0.000204323)
(0.000934887 3.54464e-05 -3.65229e-19 -0.000708912 3.90243e-19 -0.000225974)
(0.000831716 5.19215e-06 -2.89115e-19 -0.000639131 1.86565e-19 -0.000192585)
(0.000891487 6.63768e-05 -1.52987e-19 -0.000675807 -3.994e-19 -0.00021568)
(0.00078489 3.01643e-05 -2.01082e-19 -0.000605438 3.93225e-19 -0.000179451)
(0.00084101 9.15363e-05 -4.21695e-20 -0.000636981 -2.98977e-19 -0.000204029)
(0.000730091 5.05731e-05 -1.38341e-19 -0.000565009 -4.93977e-20 -0.000165082)
(0.000782786 0.000111631 -2.21872e-19 -0.000592186 -1.4697e-19 -0.0001906)
(0.000667028 6.60592e-05 -2.06562e-19 -0.000517203 -4.87015e-20 -0.000149825)
(0.000716856 0.000124203 -1.06251e-19 -0.000541248 2.56586e-20 -0.000175608)
(0.000595439 7.58824e-05 -1.27944e-19 -0.000462271 8.78938e-20 -0.000133169)
(0.00626216 -0.00308734 8.88581e-18 -0.00555288 1.2657e-18 -0.000709272)
(0.00530794 -0.00289851 4.90809e-18 -0.00460094 5.87003e-19 -0.000706993)
(0.00551342 -0.00265326 3.10103e-18 -0.00481789 6.95023e-18 -0.00069553)
(0.00449171 -0.00241301 -1.28818e-17 -0.00378794 1.14287e-17 -0.000703768)
(0.00473761 -0.00220989 -1.82299e-17 -0.00407042 1.66291e-17 -0.000667185)
(0.00366275 -0.0019242 -1.36698e-17 -0.00299003 1.02135e-17 -0.000672725)
(0.00394538 -0.0017652 -8.73453e-18 -0.00332447 9.67847e-18 -0.000620909)
(0.00285244 -0.00144749 -7.66072e-18 -0.00224491 4.89185e-18 -0.00060753)
(0.00316189 -0.00133578 -3.61704e-18 -0.00260699 6.45546e-18 -0.000554906)
(0.00210829 -0.00100823 -2.52939e-18 -0.00160026 1.62864e-18 -0.000508022)
(0.00242745 -0.000946865 -1.86327e-19 -0.00195566 2.61122e-18 -0.000471798)
(0.00150775 -0.00065473 -2.70111e-18 -0.00111391 1.74361e-19 -0.000393833)
(0.00180943 -0.000634165 -1.79111e-18 -0.00142636 2.11335e-18 -0.000383073)
(0.00109546 -0.000415056 -1.78715e-18 -0.000799395 3.31215e-19 -0.000296066)
(0.00135715 -0.000415504 -3.48955e-19 -0.00105182 1.57523e-18 -0.000305324)
(0.00085444 -0.000273518 -6.37999e-19 -0.00062365 -1.35313e-19 -0.00023079)
(0.00106942 -0.000277974 -1.05952e-18 -0.000820117 5.00859e-19 -0.0002493)
(0.000738736 -0.000195113 -6.03901e-19 -0.000543135 -7.85325e-20 -0.000195601)
(0.000911768 -0.000194961 -9.76051e-19 -0.000696013 4.1922e-20 -0.000215755)
(0.000698689 -0.000149755 -6.11229e-19 -0.000518662 2.39227e-19 -0.000180027)
(0.000840105 -0.000141948 -8.57118e-19 -0.000640946 -1.19164e-19 -0.000199159)
(0.000699856 -0.000119052 -5.95917e-19 -0.000524745 1.08188e-19 -0.000175111)
(0.000818944 -0.000103289 -5.69504e-19 -0.00062598 -4.09758e-19 -0.000192965)
(0.000717651 -9.33508e-05 -3.89519e-19 -0.000543117 -1.06175e-19 -0.000174534)
(0.00082211 -7.00352e-05 -5.03394e-19 -0.000630235 -5.12909e-20 -0.000191874)
(0.000735675 -6.85394e-05 -2.34967e-19 -0.00056135 -1.97903e-19 -0.000174325)
(0.000831201 -3.82798e-05 -4.08446e-20 -0.000639137 -3.73825e-19 -0.000192065)
(0.000744386 -4.33572e-05 -1.93224e-19 -0.000572048 -2.0709e-19 -0.000172338)
(0.000834938 -7.03604e-06 -3.29098e-19 -0.000643647 2.90447e-19 -0.00019129)
(0.00074864 -1.8581e-05 -3.43839e-19 -0.000579089 4.35511e-19 -0.000169551)
(0.000833867 2.30529e-05 -2.40763e-19 -0.000644094 2.45321e-20 -0.000189773)
(0.000739825 5.14097e-06 -1.52812e-19 -0.000575401 -2.0402e-19 -0.000164424)
(0.000821451 5.08016e-05 -1.09201e-20 -0.000635291 -3.83391e-20 -0.00018616)
(0.000722494 2.7039e-05 1.09189e-19 -0.000564635 -3.95614e-19 -0.000157859)
(0.000799704 7.57433e-05 -1.67652e-19 -0.000618838 -3.12947e-20 -0.000180867)
(0.000694465 4.62752e-05 -2.18132e-19 -0.000544809 -9.80595e-20 -0.000149656)
(0.000767726 9.67308e-05 -1.22226e-19 -0.000593949 -1.14665e-19 -0.000173777)
(0.000656104 6.21404e-05 -1.37e-19 -0.000516137 -1.27286e-19 -0.000139966)
(0.000724984 0.00011291 -1.66777e-20 -0.000560468 -1.17948e-19 -0.000164516)
(0.000608105 7.37986e-05 1.15422e-19 -0.000479424 -4.09929e-19 -0.000128681)
(0.00511005 -0.0029548 -8.66084e-18 -0.004454 6.636e-19 -0.000656043)
(0.00399021 -0.00258409 4.30107e-19 -0.00333674 -9.81847e-19 -0.000653462)
(0.004248 -0.00237457 -9.54568e-19 -0.00362913 2.50649e-18 -0.000618864)
(0.00308787 -0.00195125 -7.05425e-18 -0.00248179 1.51746e-18 -0.000606085)
(0.00337372 -0.00180306 -1.58061e-17 -0.00281548 5.89417e-18 -0.000558244)
(0.00221933 -0.0013518 -1.18072e-17 -0.00170533 2.22106e-18 -0.000513994)
(0.00251971 -0.0012671 -9.13187e-18 -0.00204839 1.72344e-18 -0.000471323)
(0.00144231 -0.00082409 -5.81233e-18 -0.00106177 4.91458e-19 -0.000380542)
(0.00173761 -0.000803114 -3.87801e-18 -0.00137439 -1.05217e-18 -0.000363222)
(0.000863427 -0.000443132 -1.03991e-18 -0.000619557 -1.50238e-18 -0.00024387)
(0.0011253 -0.000466001 -2.74586e-18 -0.000869256 -1.67967e-18 -0.000256043)
(0.000522037 -0.000231315 -1.70428e-18 -0.000373161 -3.87852e-19 -0.000148876)
(0.000734979 -0.000267133 -2.21125e-18 -0.000559214 -2.40761e-19 -0.000175765)
(0.000363411 -0.00013531 -5.97633e-19 -0.000261992 2.38587e-19 -0.000101419)
(0.000533 -0.000167075 -4.81571e-19 -0.000403168 -2.76351e-19 -0.000129831)
(0.000316476 -9.79323e-05 -5.50575e-20 -0.000230893 4.85977e-20 -8.55833e-05)
(0.000456998 -0.000121052 9.70218e-20 -0.000345974 -2.99833e-19 -0.000111023)
(0.00032669 -8.35231e-05 -1.1865e-19 -0.000241154 8.4559e-20 -8.55362e-05)
(0.000451043 -9.87223e-05 -3.1858e-19 -0.000343028 -2.34528e-20 -0.000108015)
(0.000367656 -7.6783e-05 -4.10219e-19 -0.000274441 -5.29982e-20 -9.32152e-05)
(0.000482766 -8.46929e-05 -3.13225e-19 -0.000369393 -1.77743e-19 -0.000113373)
(0.000419586 -7.01256e-05 -3.78193e-19 -0.000316434 2.10423e-19 -0.000103152)
(0.000529593 -7.11382e-05 -3.3633e-19 -0.000407761 -8.22602e-20 -0.000121832)
(0.000468959 -6.06216e-05 -2.5826e-19 -0.000356955 -1.1721e-19 -0.000112003)
(0.000576273 -5.4867e-05 -2.22101e-19 -0.000446236 -1.98553e-19 -0.000130037)
(0.000507474 -4.75818e-05 -1.9302e-19 -0.000389502 -7.94671e-20 -0.000117972)
(0.000613734 -3.53716e-05 -4.19543e-19 -0.000477491 1.45601e-19 -0.000136243)
(0.000546856 -3.28126e-05 -2.88046e-19 -0.000423198 -5.40258e-20 -0.000123658)
(0.000648572 -1.418e-05 -2.65662e-19 -0.000506658 1.00611e-20 -0.000141914)
(0.000570424 -1.61388e-05 -1.30107e-19 -0.000444468 6.79029e-20 -0.000125956)
(0.000669741 8.16638e-06 -1.82728e-19 -0.00052482 3.34472e-19 -0.000144922)
(0.000587904 1.23095e-06 -6.29328e-20 -0.000460996 -8.05304e-20 -0.000126908)
(0.000682574 3.04774e-05 -4.41078e-20 -0.000536175 -3.06711e-19 -0.000146399)
(0.000593164 1.8361e-05 9.94822e-21 -0.000467648 -3.45974e-19 -0.000125516)
(0.000683647 5.15849e-05 -1.00701e-19 -0.000537813 -2.21578e-19 -0.000145834)
(0.000587566 3.42779e-05 -1.19154e-19 -0.000465333 -1.85813e-19 -0.000122233)
(0.000673191 7.06212e-05 4.45771e-21 -0.000530007 -1.12057e-19 -0.000143183)
(0.000572455 4.82768e-05 3.85058e-20 -0.000455125 -9.33553e-20 -0.000117329)
(0.00065186 8.63093e-05 6.0283e-20 -0.000513319 -3.00328e-19 -0.000138541)
(0.000541387 5.88898e-05 -2.31899e-20 -0.000431674 -9.01166e-20 -0.000109712)
(0.00379266 -0.00252084 9.845e-19 -0.00321867 -6.60578e-18 -0.000573995)
(0.00256591 -0.00194211 3.60534e-18 -0.00202533 -6.77309e-18 -0.000540576)
(0.00285001 -0.00180287 -2.90099e-18 -0.00235129 -3.08259e-18 -0.000498724)
(0.00166181 -0.00120759 -7.52286e-18 -0.00124107 1.84786e-18 -0.000420735)
(0.00194125 -0.00114899 -1.04067e-17 -0.00155189 3.13645e-18 -0.000389366)
(0.000874007 -0.000592734 -4.74099e-18 -0.000620472 1.19301e-18 -0.000253535)
(0.00112788 -0.000609887 -4.70568e-18 -0.000873049 -6.10503e-19 -0.000254833)
(0.000351803 -0.000212591 -7.38139e-19 -0.00024524 -2.45066e-19 -0.000106563)
(0.000546108 -0.000263898 -3.31944e-19 -0.000412109 -9.99506e-19 -0.000133998)
(0.000106596 -5.54159e-05 3.54151e-20 -7.51928e-05 -8.29845e-20 -3.14029e-05)
(0.000237397 -0.000101502 -2.62565e-19 -0.000176976 -1.23373e-20 -6.04215e-05)
(1.72265e-05 -7.57768e-06 -3.40276e-20 -1.23652e-05 2.55207e-20 -4.86125e-06)
(0.0001102 -4.12657e-05 -8.25538e-20 -8.21008e-05 1.51691e-19 -2.80988e-05)
(0 0 0 0 0 0)
(7.72947e-05 -2.50786e-05 1.64926e-19 -5.79467e-05 8.74793e-20 -1.9348e-05)
(5.80263e-06 -1.82712e-06 7.33396e-21 -4.26954e-06 5.50047e-21 -1.53309e-06)
(8.95434e-05 -2.47637e-05 3.20535e-20 -6.7667e-05 1.56772e-19 -2.18764e-05)
(4.02878e-05 -1.06051e-05 -3.71721e-20 -2.99442e-05 4.33675e-20 -1.03436e-05)
(0.000130446 -3.01175e-05 -1.50865e-19 -9.9418e-05 1.08349e-19 -3.10275e-05)
(8.73508e-05 -1.89096e-05 -3.92188e-20 -6.55349e-05 6.53647e-20 -2.18159e-05)
(0.000185249 -3.48793e-05 -1.6271e-19 -0.000142408 0 -4.28418e-05)
(0.000138676 -2.4122e-05 -1.01214e-19 -0.000104965 6.07286e-20 -3.37107e-05)
(0.000243235 -3.61277e-05 2.71211e-20 -0.00018849 -1.15848e-19 -5.47449e-05)
(0.000185105 -2.51303e-05 -3.74283e-21 -0.000141221 -9.9202e-20 -4.38835e-05)
(0.000295591 -3.24842e-05 -2.20318e-19 -0.000230547 9.94324e-20 -6.50443e-05)
(0.000247926 -2.46781e-05 -1.40666e-19 -0.000190935 1.04561e-19 -5.69906e-05)
(0.000356148 -2.61334e-05 -2.15617e-19 -0.000279428 1.53795e-19 -7.67194e-05)
(0.000293558 -1.96338e-05 -2.45654e-20 -0.000227832 2.09519e-20 -6.57254e-05)
(0.000402465 -1.56693e-05 -3.17317e-20 -0.000317313 -1.347e-19 -8.51524e-05)
(0.000340437 -1.21981e-05 -7.9286e-20 -0.000266324 7.9286e-20 -7.41127e-05)
(0.000445445 -2.82392e-06 -2.00685e-20 -0.000352689 5.34618e-20 -9.27561e-05)
(0.000374848 -2.51448e-06 -8.39913e-20 -0.000295261 1.28447e-20 -7.95875e-05)
(0.000476551 1.16304e-05 -1.18871e-19 -0.000378563 1.75875e-20 -9.79882e-05)
(0.000399899 8.25361e-06 -4.27333e-20 -0.000316911 -8.8519e-20 -8.29879e-05)
(0.000496901 2.65853e-05 6.09526e-20 -0.000395705 -1.69641e-19 -0.000101196)
(0.000417238 1.93241e-05 5.7207e-20 -0.000332467 -1.23124e-19 -8.47705e-05)
(0.000507512 4.09596e-05 0 -0.000404865 -2.29149e-19 -0.000102647)
(0.000416702 2.92774e-05 -5.05847e-20 -0.000333447 -1.86439e-19 -8.32552e-05)
(0.000500739 5.31322e-05 2.99347e-21 -0.000399764 -1.77828e-19 -0.000100974)
(0.000402294 3.7277e-05 -3.60317e-20 -0.000322966 7.5175e-20 -7.93277e-05)
(0.00237274 -0.00178267 1.42996e-18 -0.00193003 -4.5108e-18 -0.000442711)
(0.00117983 -0.00102943 -5.06852e-19 -0.00085034 -6.2114e-19 -0.000329487)
(0.0014348 -0.00100063 -3.90414e-18 -0.00112315 5.26168e-19 -0.000311649)
(0.000411927 -0.000332764 -1.35163e-19 -0.000279547 7.58202e-19 -0.00013238)
(0.000613571 -0.000388616 -1.23819e-18 -0.000461861 3.77026e-19 -0.000151711)
(2.30896e-05 -1.62326e-05 1.93473e-19 -1.57027e-05 1.71976e-20 -7.3869e-06)
(0.000133364 -7.60222e-05 4.20204e-20 -9.78054e-05 -9.91088e-20 -3.55581e-05)
(0 0 0 0 0 0)
(0 0 0 0 0 0)
(0 0 0 0 0 0)
(0 0 0 0 0 0)
(0 0 0 0 0 0)
(0 0 0 0 0 0)
(0 0 0 0 0 0)
(0 0 0 0 0 0)
(0 0 0 0 0 0)
(0 0 0 0 0 0)
(0 0 0 0 0 0)
(0 0 0 0 0 0)
(0 0 0 0 0 0)
(0 0 0 0 0 0)
(0 0 0 0 0 0)
(3.31373e-06 -5.04035e-07 5.07155e-22 -2.56011e-06 1.52146e-21 -7.53618e-07)
(0 0 0 0 0 0)
(5.39714e-05 -6.33393e-06 8.09109e-21 -4.21136e-05 1.61822e-20 -1.18579e-05)
(0 0 0 0 0 0)
(9.45287e-05 -8.04979e-06 -1.3952e-20 -7.43639e-05 0 -2.01648e-05)
(4.6693e-05 -3.5691e-06 0 -3.63313e-05 0 -1.03617e-05)
(0.000146699 -7.73538e-06 9.72697e-20 -0.000116118 -4.50971e-20 -3.05806e-05)
(9.04776e-05 -4.11035e-06 0 -7.08895e-05 0 -1.95881e-05)
(0.000192091 -4.17132e-06 -6.14791e-20 -0.000152777 5.54258e-20 -3.93143e-05)
(0.000132246 -2.2426e-06 -3.84204e-20 -0.000104353 1.15261e-19 -2.78929e-05)
(0.000232604 1.59783e-06 9.1241e-20 -0.000185841 -1.71357e-20 -4.67628e-05)
(0.000173911 1.63202e-06 -4.99162e-20 -0.000138207 7.48743e-20 -3.57045e-05)
(0.000269028 8.96042e-06 2.03685e-20 -0.000215784 3.56315e-20 -5.32443e-05)
(0.000198687 6.61867e-06 -2.83403e-20 -0.000158795 5.66806e-20 -3.98927e-05)
(0.000288854 1.67767e-05 5.98848e-20 -0.000232299 -8.17299e-20 -5.65549e-05)
(0.000211951 1.1753e-05 -3.02082e-20 -0.00017019 3.02082e-20 -4.17605e-05)
(0.000295455 2.39846e-05 -9.79793e-20 -0.000237973 1.14446e-19 -5.74825e-05)