/*--------------------------------*- C++ -*----------------------------------*\
| =========                 |                                                 |
| \\      /  F ield         | OpenFOAM: The Open Source CFD Toolbox           |
|  \\    /   O peration     | Version:  v2012                                 |
|   \\  /    A nd           | Website:  www.openfoam.com                      |
|    \\/     M anipulation  |                                                 |
\*---------------------------------------------------------------------------*/
FoamFile
{
    version     2.0;
    format      ascii;
    class       volSymmTensorField;
    location    "17";
    object      epsilon;
}
// * * * * * * * * * * * * * * * * * * * * * * * * * * * * * * * * * * * * * //

dimensions      [0 0 0 0 0 0 0];


internalField   nonuniform List<symmTensor> 
1000
(
(0.00826475 -0.000711034 7.39391e-20 -0.00863822 -6.0727e-19 3.3193e-34)
(0.00815941 -0.000729663 -6.4827e-19 -0.00809613 -1.0768e-18 0)
(0.00776102 -0.000708498 -5.88706e-19 -0.00725727 1.04229e-18 0)
(0.00698837 -0.000655456 5.28705e-19 -0.00613639 -6.13358e-21 0)
(0.00606743 -0.000538847 4.4182e-19 -0.00486778 1.59494e-20 0)
(0.00507307 -0.000412996 1.11339e-19 -0.00364673 5.05197e-19 0)
(0.00411675 -0.00026758 -2.78968e-19 -0.00249676 -4.18506e-20 0)
(0.00328956 -0.000142882 -2.07948e-19 -0.00161159 -4.40891e-19 0)
(0.00258871 -3.24825e-05 -3.39307e-19 -0.000887274 -2.8472e-19 0)
(0.00208355 6.08206e-05 9.20583e-20 -0.000457109 8.18113e-20 0)
(0.00769644 -0.00203124 0 -0.0079947 0 0)
(0.00730588 -0.00198447 5.98523e-19 -0.00717566 -1.37142e-19 0)
(0.00659435 -0.00181028 -6.13286e-19 -0.00604122 -7.33927e-19 0)
(0.00571216 -0.00158958 2.92491e-20 -0.00485885 -1.42048e-18 0)
(0.00482517 -0.00124343 2.64958e-19 -0.0036908 4.86972e-19 0)
(0.00400667 -0.000913051 9.39491e-19 -0.00273116 1.08523e-18 0)
(0.00328054 -0.000572878 -2.32012e-19 -0.00189307 -1.08379e-19 0)
(0.00272049 -0.000289609 -1.67536e-19 -0.00133277 -5.74794e-20 0)
(0.00228158 -3.92752e-05 -6.10837e-19 -0.000901322 -3.07371e-19 0)
(0.00201949 0.000169436 -1.65495e-19 -0.000704673 -6.81775e-20 0)
(0.00610799 -0.00283226 9.95877e-19 -0.00626214 -1.28745e-18 1.16925e-33)
(0.00524012 -0.00247505 4.40571e-19 -0.0050276 -2.7136e-19 0)
(0.00417691 -0.00198381 9.39443e-19 -0.00359575 4.24065e-19 0)
(0.00342586 -0.00160653 -3.46941e-19 -0.00264515 -3.59964e-19 0)
(0.00284798 -0.0011645 1.69495e-19 -0.00192116 1.15028e-19 0)
(0.00251455 -0.000854352 1.33881e-18 -0.00155002 6.35296e-19 0)
(0.00229669 -0.000530809 -4.21033e-19 -0.00129834 1.34597e-19 0)
(0.00222027 -0.000269638 -5.60863e-19 -0.00124274 -3.02392e-20 0)
(0.00219193 -6.09912e-06 2.02516e-24 -0.00120277 6.95447e-25 0)
(0.00218206 0.000194718 -3.59874e-19 -0.00121294 -2.54965e-19 0)
(0.00351627 -0.00245548 4.24583e-21 -0.00347368 -1.61463e-20 3.88621e-37)
(0.00235052 -0.0017692 -4.07888e-19 -0.00213289 -2.61824e-19 0)
(0.00150212 -0.00122804 1.52897e-19 -0.00102552 4.4848e-20 0)
(0.00127471 -0.000938268 5.59812e-19 -0.000765105 1.68014e-19 0)
(0.0012187 -0.000674606 -4.11619e-19 -0.00063943 -7.30735e-21 0)
(0.00143661 -0.000565388 -3.13735e-20 -0.000843216 -2.13749e-21 0)
(0.00164534 -0.000400805 5.06525e-19 -0.00100947 2.13805e-19 0)
(0.00192072 -0.000274118 -1.62935e-19 -0.00126366 -1.6305e-19 0)
(0.00207431 -8.81296e-05 -1.69589e-19 -0.00137469 -1.61116e-19 0)
(0.00212003 2.95241e-05 -1.54195e-19 -0.0014074 -1.50617e-19 0)
(0.00112587 -0.00122999 3.23843e-21 -0.000981715 -8.78066e-20 4.85572e-35)
(0.00038822 -0.000664528 -3.02757e-19 -0.000253149 2.16868e-20 0)
(0.000247415 -0.000506804 -3.20346e-19 1.86254e-06 7.604e-20 0)
(0.000437444 -0.000451036 -1.43459e-20 -0.000238366 2.45528e-21 0)
(0.00065311 -0.000435649 6.40773e-19 -0.000328501 -9.01629e-20 0)
(0.000964878 -0.000422494 1.87683e-19 -0.000584527 -1.40012e-19 0)
(0.00119751 -0.000372164 -1.20924e-19 -0.000729423 1.17188e-19 0)
(0.0014349 -0.000304194 -2.86491e-19 -0.000963794 -2.55131e-19 0)
(0.00151252 -0.000191073 7.65831e-21 -0.00100845 1.48911e-21 0)
(0.00156458 -0.000115327 -3.4153e-19 -0.00106344 -1.77046e-19 0)
(0.000163061 -0.00025078 2.03658e-19 -1.86293e-05 -8.16187e-20 5.56996e-36)
(6.19255e-05 -0.000219729 4.74018e-24 -1.88399e-05 -1.74391e-24 0)
(0.000240326 -0.000323295 1.81937e-19 -0.000123753 2.362e-19 0)
(0.000400157 -0.000334786 -3.82126e-20 -0.000253932 -4.17718e-19 0)
(0.000552652 -0.000401438 0 -0.000306037 0 0)
(0.000710746 -0.000353703 -1.35153e-19 -0.000439015 1.42274e-19 0)
(0.000846476 -0.00032812 6.56329e-19 -0.00049965 1.62009e-19 0)
(0.000947692 -0.000248129 3.32084e-19 -0.000604251 9.15276e-20 0)
(0.0010167 -0.000192029 -8.53008e-20 -0.000640362 1.18709e-19 0)
(0.00108375 -0.0001375 -4.81439e-19 -0.000700428 -2.06292e-19 0)
(0.000197381 -0.000108404 -3.23614e-19 -7.72874e-05 -1.19998e-20 9.15315e-35)
(0.000202108 -0.000155458 -6.96385e-19 -7.63635e-05 3.21966e-19 0)
(0.000308094 -0.000224098 2.41469e-19 -0.000143044 -4.15797e-19 0)
(0.000369091 -0.000225008 3.72771e-19 -0.000210245 -2.95081e-19 0)
(0.00050064 -0.000257731 -6.62799e-19 -0.000285789 -7.0722e-20 0)
(0.000602 -0.000238998 -3.17727e-19 -0.000389918 -4.76388e-20 0)
(0.00071045 -0.000230606 -4.14614e-19 -0.000444431 -1.55572e-19 0)
(0.000790634 -0.000184731 1.57734e-19 -0.000531391 -3.53933e-20 0)
(0.000866591 -0.000166073 3.31411e-19 -0.000551764 -7.26544e-20 0)
(0.000921284 -0.000130913 4.00429e-19 -0.000600626 -8.40838e-21 0)
(0.000145619 -8.06866e-05 -2.1569e-19 -4.06855e-05 1.3929e-19 2.22436e-36)
(0.000163735 -7.31565e-05 -3.58974e-24 -8.31167e-05 2.19024e-24 0)
(0.00029537 -9.02097e-05 2.22866e-19 -0.000171303 -1.27974e-19 0)
(0.000363538 -0.000110672 5.01035e-19 -0.000240461 2.40741e-19 0)
(0.000478574 -0.000143955 1.46808e-20 -0.000299348 -7.1882e-21 0)
(0.000558311 -0.000147509 -1.63338e-19 -0.000374744 7.33411e-20 0)
(0.000646762 -0.000162191 2.78948e-19 -0.000408221 2.33011e-20 0)
(0.000710657 -0.000145318 -1.32635e-19 -0.000470203 5.29077e-20 0)
(0.000765598 -0.000146186 -2.43671e-19 -0.000475057 -3.31782e-20 0)
(0.000819967 -0.000126414 2.29981e-19 -0.000521186 3.75994e-20 0)
(0.000102975 -1.16234e-05 -7.50978e-20 -6.98324e-05 2.71739e-19 -8.79484e-35)
(0.000176748 -3.35101e-05 -4.49536e-19 -0.000138848 5.33003e-19 0)
(0.000284193 -5.83649e-05 -8.61278e-20 -0.000213532 2.49513e-19 0)
(0.000344036 -7.82423e-05 5.27686e-19 -0.000266292 2.55875e-22 0)
(0.000433365 -0.000108862 2.48494e-19 -0.000313788 8.98133e-21 0)
(0.000493899 -0.000117668 -1.92227e-19 -0.000367146 2.73206e-19 0)
(0.000566512 -0.000137898 -5.02463e-20 -0.000393692 1.78772e-19 0)
(0.000618808 -0.000135806 5.64834e-19 -0.000441122 -3.18893e-20 0)
(0.000672364 -0.0001506 2.78358e-20 -0.000445405 -1.50636e-19 0)
(0.000712226 -0.000146693 7.25817e-20 -0.000480284 2.17675e-19 0)
(4.79573e-05 8.07475e-05 3.22901e-20 -0.000102389 8.30321e-20 -4.51653e-36)
(0.000139346 4.4279e-05 1.54816e-19 -0.000177448 -1.45394e-19 0)
(0.000265268 5.57044e-06 -9.50253e-20 -0.000257934 -1.20046e-19 0)
(0.000325231 -2.52775e-05 3.23922e-20 -0.000301914 -2.20795e-19 0)
(0.000418246 -6.42177e-05 2.77789e-20 -0.000348117 -2.05695e-19 0)
(0.000465799 -8.38073e-05 -1.18498e-19 -0.000379689 9.5605e-20 0)
(0.000535982 -0.000115349 -1.92851e-19 -0.000403826 -1.73695e-19 0)
(0.000575914 -0.000123748 1.00366e-20 -0.000427835 -1.58704e-19 0)
(0.000626634 -0.000150347 -2.91365e-19 -0.00043392 -7.41447e-20 0)
(0.00066573 -0.000151526 -1.79266e-19 -0.000457563 1.30687e-19 0)
(1.98417e-05 0.000156946 3.29728e-21 -0.000157784 -4.29112e-21 2.36227e-39)
(0.000115355 9.67741e-05 -3.31349e-19 -0.00021954 -6.37687e-20 0)
(0.000215963 3.03809e-05 9.68907e-20 -0.000282052 1.03945e-19 0)
(0.000279898 -3.54381e-06 1.30732e-19 -0.000316032 -3.40617e-19 0)
(0.000346134 -6.10083e-05 1.977e-19 -0.00034558 1.67629e-19 0)
(0.000398209 -7.54816e-05 -1.91135e-19 -0.000369471 1.99108e-20 0)
(0.000443579 -0.000123969 -9.37997e-20 -0.000381039 -7.22825e-20 0)
(0.000491418 -0.000125168 1.57147e-19 -0.000400836 -3.06787e-19 0)
(0.000523602 -0.00016381 9.35924e-20 -0.000404072 5.78452e-20 0)
(0.000573488 -0.000162741 -1.89566e-19 -0.000422159 2.7392e-19 0)
(2.37799e-05 0.000239783 2.44334e-19 -0.000246602 -3.43548e-19 -2.24915e-35)
(0.000116467 0.000151183 5.00529e-21 -0.000297999 -7.44138e-21 0)
(0.000205697 6.4428e-05 -2.96922e-19 -0.000342456 -4.7339e-20 0)
(0.000267131 1.11513e-05 -9.66894e-20 -0.000369025 -8.51204e-20 0)
(0.00032045 -5.39189e-05 1.74926e-19 -0.000382157 -2.25894e-20 0)
(0.000369515 -8.5458e-05 2.51681e-19 -0.000400917 -1.2638e-19 0)
(0.000399078 -0.000133711 2.86977e-21 -0.000395049 -3.34141e-21 0)
(0.000442728 -0.000150208 -1.52363e-19 -0.000412569 1.50239e-20 0)
(0.000456835 -0.000183551 2.88423e-20 -0.000395905 2.67562e-19 0)
(0.000496422 -0.000197451 -1.04264e-19 -0.000406001 -6.12296e-20 0)
(4.49199e-05 0.00030597 -2.74216e-20 -0.000351896 -7.70292e-20 -8.85894e-37)
(0.000120206 0.000199095 1.61427e-19 -0.000369705 -5.28009e-20 0)
(0.000180513 9.5414e-05 -9.40187e-21 -0.000385621 -2.28381e-19 0)
(0.000236432 3.46535e-05 -1.51095e-19 -0.000393139 3.7352e-20 0)
(0.000270695 -3.75607e-05 -2.13756e-19 -0.000389599 1.3765e-19 0)
(0.000318405 -7.32231e-05 7.92714e-20 -0.000394693 6.96531e-20 0)
(0.00033654 -0.000124053 1.94638e-19 -0.000379887 -1.11833e-19 0)
(0.000379256 -0.00014639 2.07921e-19 -0.000384583 2.75267e-20 0)
(0.000387062 -0.000180833 -4.82788e-20 -0.000362581 6.95069e-20 0)
(0.000423193 -0.000206091 -1.20158e-19 -0.000357064 2.04662e-20 0)
(9.18979e-05 0.000344263 2.71662e-20 -0.000468217 7.23674e-20 7.97667e-37)
(0.000143234 0.000223698 -8.05503e-20 -0.000458719 -8.86434e-20 0)
(0.000175615 0.00011227 1.30972e-19 -0.000444205 -4.4231e-20 0)
(0.00021797 4.13954e-05 8.02547e-20 -0.000435031 6.90948e-20 0)
(0.000232326 -3.28731e-05 -4.75391e-20 -0.000410112 9.9361e-20 0)
(0.000271501 -7.60598e-05 -2.28772e-19 -0.000404088 -1.68333e-19 0)
(0.000274912 -0.000125485 3.22289e-20 -0.000374381 1.28568e-19 0)
(0.000312183 -0.000153331 6.9479e-20 -0.000371126 4.95961e-20 0)
(0.000310719 -0.000185362 -3.38282e-20 -0.000341121 -1.02994e-19 0)
(0.000342921 -0.000215516 -3.10356e-20 -0.000327345 -9.84493e-20 0)
(0.000153047 0.00036291 6.4483e-20 -0.000598397 -3.55454e-19 -9.63338e-35)
(0.000175003 0.000236291 2.70642e-20 -0.000548864 -1.37807e-19 0)
(0.000176882 0.000125092 4.04223e-20 -0.000501645 1.84493e-19 0)
(0.000203209 4.88659e-05 1.37118e-19 -0.000467803 1.27361e-19 0)
(0.000198841 -2.15823e-05 1.27998e-19 -0.000423968 -1.24703e-19 0)
(0.000228266 -7.07919e-05 4.25294e-20 -0.000401166 1.19299e-19 0)
(0.000219984 -0.000114675 7.39601e-21 -0.000360503 1.86979e-19 0)
(0.000250107 -0.000149229 7.3367e-20 -0.000344752 -1.91752e-19 0)
(0.000241025 -0.000175153 -5.90035e-20 -0.000308257 -3.63061e-20 0)
(0.00026617 -0.000208715 -5.88128e-20 -0.000285376 6.66171e-20 0)
(0.00021921 0.000346041 -2.14775e-20 -0.000715922 1.16658e-19 -1.16086e-35)
(0.00020998 0.00022558 4.783e-20 -0.000633781 3.14742e-19 0)
(0.000184825 0.000123148 4.75109e-20 -0.000557848 1.69972e-19 0)
(0.000191852 4.87455e-05 -4.86149e-22 -0.000503012 3.71249e-21 0)
(0.000172321 -1.50406e-05 -5.85176e-20 -0.000442492 -4.41095e-20 0)
(0.000188432 -6.43976e-05 5.5053e-20 -0.000404799 4.90127e-20 0)
(0.000173035 -0.000103046 -5.48962e-20 -0.000355843 -3.50133e-20 0)
(0.000192976 -0.000138746 8.0726e-20 -0.000328421 -7.49861e-20 0)
(0.000182352 -0.000160996 6.57979e-20 -0.000289624 -2.1325e-20 0)
(0.000198966 -0.000193656 -1.37527e-20 -0.000258473 4.4661e-20 0)
(0.000287606 0.000305577 1.92201e-21 -0.000831819 -9.11833e-20 -1.14486e-35)
(0.000247798 0.000197882 -8.91998e-20 -0.00071368 -1.48494e-19 0)
(0.000198637 0.000111134 -9.15366e-20 -0.000611163 -1.21802e-19 0)
(0.000185798 4.3268e-05 -5.17548e-20 -0.000532123 -1.93189e-19 0)
(0.000153061 -8.41818e-06 -8.8113e-20 -0.000457209 -1.51418e-19 0)
(0.000155175 -5.47139e-05 -9.24397e-20 -0.000402241 -2.11278e-20 0)
(0.000133269 -8.39324e-05 3.12601e-20 -0.000346303 1.26815e-19 0)
(0.000142743 -0.000118054 -3.72549e-20 -0.000306165 -6.84772e-20 0)
(0.000129567 -0.000133188 4.73482e-20 -0.000264703 -1.86356e-20 0)
(0.00013901 -0.000161983 -1.3579e-20 -0.000227023 1.0912e-20 0)
(0.000343903 0.000237505 -2.08722e-20 -0.000919981 -1.67362e-19 -3.15784e-35)
(0.000278489 0.000154242 2.9743e-20 -0.000775684 6.51032e-20 0)
(0.000211283 8.82046e-05 6.78237e-20 -0.000653678 1.72765e-19 0)
(0.000181466 3.48308e-05 -3.35686e-20 -0.000556958 -4.71965e-20 0)
(0.000140014 -4.55379e-06 5.90596e-20 -0.000471942 3.09075e-20 0)
(0.0001296 -4.15532e-05 8.12553e-20 -0.000403832 1.83553e-19 0)
(0.000104935 -6.38379e-05 6.50039e-20 -0.000343847 9.12662e-20 0)
(0.000104418 -9.14403e-05 -2.91315e-21 -0.000293223 -6.40684e-20 0)
(9.18733e-05 -0.000103069 2.95147e-20 -0.000251281 1.89428e-20 0)
(9.42298e-05 -0.000125326 0 -0.000207965 0 0)
(0.000387551 0.000151008 2.75918e-20 -0.000987721 1.34345e-19 -2.45085e-35)
(0.000302755 9.71653e-05 8.21886e-20 -0.00082193 8.91815e-20 0)
(0.000222733 5.63497e-05 -5.03017e-20 -0.000685442 -6.77111e-20 0)
(0.000179565 2.16627e-05 -2.15459e-20 -0.0005737 -3.26125e-20 0)
(0.000131766 -1.65356e-06 4.85672e-20 -0.000481358 9.42995e-20 0)
(0.000111523 -2.59135e-05 1.17477e-20 -0.000402223 2.61178e-20 0)
(8.44921e-05 -3.81753e-05 -1.88794e-20 -0.000339249 -2.36224e-20 0)
(7.65327e-05 -5.63789e-05 -1.15758e-20 -0.000280415 -3.78093e-20 0)
(6.37968e-05 -6.20048e-05 -2.19256e-20 -0.000237855 -3.33088e-20 0)
(6.16594e-05 -7.6176e-05 -4.22365e-21 -0.000190962 -1.04224e-20 0)
(0.000409494 5.1852e-05 -5.60707e-20 -0.00102051 -3.18334e-20 -6.32039e-35)
(0.000314813 3.38507e-05 -6.67774e-20 -0.000844693 -2.25066e-19 0)
(0.000228553 1.96681e-05 3.96817e-20 -0.000701365 -1.41751e-19 0)
(0.000178645 7.86577e-06 3.18126e-20 -0.000582709 5.52166e-20 0)
(0.000128062 -7.02786e-07 -2.44694e-20 -0.000487017 -4.51541e-20 0)
(0.000102731 -9.03295e-06 -3.02888e-22 -0.000402657 -4.82244e-20 0)
(7.50472e-05 -1.39798e-05 3.22257e-21 -0.000338496 -1.54837e-20 0)
(6.30088e-05 -2.02298e-05 -2.29765e-20 -0.00027549 -3.06755e-20 0)
(5.07439e-05 -2.29051e-05 -6.18449e-21 -0.000232925 -1.46542e-20 0)
(4.59597e-05 -2.76574e-05 1.29942e-20 -0.000184074 1.15252e-20 0)
(4.17907e-05 -3.17223e-05 1.59462e-20 -0.000133447 2.34917e-20 0)
(5.72806e-05 -8.44149e-05 3.05431e-20 -0.000140908 1.52438e-20 0)
(9.1044e-05 -0.000141134 -5.21021e-21 -0.000160195 -7.8532e-21 0)
(0.000134694 -0.000180626 8.18632e-21 -0.000179772 7.32513e-21 0)
(0.000197042 -0.000218789 1.09009e-20 -0.000214154 1.75947e-20 0)
(0.000261586 -0.000234848 9.51869e-20 -0.000239068 1.57488e-20 0)
(0.000342877 -0.000248236 -5.71408e-20 -0.000283063 -5.15995e-20 0)
(0.000422569 -0.000236881 -7.21176e-20 -0.000309678 -3.42302e-20 0)
(0.000501693 -0.000233335 -9.33979e-20 -0.000358137 -1.1683e-19 0)
(0.000606838 -0.000214954 2.32394e-19 -0.00040576 1.36369e-19 0)
(6.45888e-05 -3.29592e-05 -1.25245e-20 -7.95412e-05 -6.97599e-21 0)
(7.85965e-05 -8.67041e-05 2.30296e-22 -8.91049e-05 2.85815e-22 0)
(0.000107224 -0.00014774 -3.77179e-20 -0.000110255 -2.12465e-20 0)
(0.000146702 -0.000189536 -6.05236e-20 -0.000136041 -1.05501e-20 0)
(0.000198633 -0.000237469 8.68558e-20 -0.000172798 2.90184e-20 0)
(0.000256898 -0.000256221 5.17544e-20 -0.000206595 1.72535e-20 0)
(0.000321651 -0.000286061 -4.1471e-20 -0.00024706 -3.69329e-21 0)
(0.000393293 -0.000271471 0 -0.000280331 0 0)
(0.000460358 -0.000276513 4.62605e-20 -0.000309156 5.34537e-20 0)
(0.000539376 -0.000234863 3.79989e-20 -0.000345484 -4.24564e-20 0)
(7.19243e-05 -3.20854e-05 4.62498e-21 -3.2979e-05 1.99922e-21 0)
(8.53163e-05 -8.17036e-05 3.08491e-20 -4.11275e-05 8.08748e-21 0)
(0.000112106 -0.000141613 -2.22333e-20 -5.86187e-05 -4.52998e-21 0)
(0.000151461 -0.000180445 -7.74752e-20 -8.26799e-05 -2.60809e-20 0)
(0.000201315 -0.000229301 4.94416e-21 -0.00011509 -1.54775e-20 0)
(0.000264511 -0.00025006 1.7905e-20 -0.000154792 -1.14344e-20 0)
(0.000327195 -0.000285158 -5.47405e-20 -0.000194396 -1.83391e-20 0)
(0.000409434 -0.000289385 -1.05207e-19 -0.000249111 -3.00482e-20 0)
(0.000465532 -0.000305806 1.1337e-19 -0.000277634 3.84185e-20 0)
(0.000538163 -0.000303007 2.2705e-19 -0.000330377 1.06624e-19 0)
(0.000109308 -3.2872e-05 -1.51517e-20 -2.06254e-05 -2.65437e-21 0)
(0.000120275 -8.45332e-05 7.54429e-21 -2.87007e-05 1.88571e-21 0)
(0.000138741 -0.000146648 5.71487e-20 -4.13524e-05 9.62132e-21 0)
(0.000170979 -0.000188472 3.85247e-20 -6.44192e-05 8.89958e-21 0)
(0.000204679 -0.000239259 7.23909e-20 -8.50354e-05 1.28395e-20 0)
(0.000257547 -0.000262679 -7.28572e-20 -0.00012128 -1.31469e-20 0)
(0.000303101 -0.000292959 -1.81114e-19 -0.000143615 -3.96176e-20 0)
(0.000376851 -0.000296627 3.6792e-20 -0.000193528 6.06005e-21 0)
(0.000438027 -0.000298694 3.94761e-20 -0.000219041 5.4047e-21 0)
(0.000509628 -0.000297207 -4.25655e-20 -0.000271544 -9.12658e-21 0)
(0.000129527 -2.86331e-05 -3.97579e-21 2.16741e-06 1.27815e-22 0)
(0.000141343 -7.53475e-05 -2.65643e-20 -6.43476e-06 -2.69832e-21 0)
(0.000159906 -0.000129993 -2.76524e-20 -1.85555e-05 -2.71931e-21 0)
(0.000194655 -0.000171273 1.1348e-20 -4.42084e-05 2.9868e-21 0)
(0.000228252 -0.000218295 7.07369e-20 -6.54326e-05 1.50196e-20 0)
(0.000282572 -0.000251558 4.61609e-20 -0.00010624 1.61394e-20 0)
(0.00032466 -0.00028477 6.46218e-20 -0.000130228 1.70274e-20 0)
(0.00038973 -0.000309325 -2.05515e-20 -0.00017846 -9.04843e-21 0)
(0.000438299 -0.000319224 4.41607e-20 -0.000201584 2.19278e-20 0)
(0.000494299 -0.000328133 1.75051e-20 -0.000240623 1.55315e-20 0)
(0.000164058 -2.82682e-05 0 1.6037e-06 0 0)
(0.000172864 -7.7169e-05 1.22709e-21 -5.18396e-06 6.89361e-23 0)
(0.000184676 -0.000129945 -7.90993e-21 -1.20697e-05 -6.62855e-22 0)
(0.000211286 -0.000172281 -8.3683e-20 -3.22502e-05 -7.12166e-21 0)
(0.00023501 -0.000213682 5.59223e-22 -4.49438e-05 4.02667e-23 0)
(0.000279584 -0.000245359 -1.57559e-20 -7.80144e-05 -2.36506e-21 0)
(0.000317176 -0.000269305 5.80658e-22 -9.71961e-05 1.37262e-22 0)
(0.000376425 -0.000291018 1.8807e-20 -0.000140028 4.69698e-21 0)
(0.000430353 -0.000298051 -1.29123e-19 -0.00016879 -3.40532e-20 0)
(0.000485784 -0.000309801 1.56274e-19 -0.000207867 4.58658e-20 0)
(0.000194807 -2.38712e-05 1.08098e-20 4.08282e-06 -1.04394e-22 0)
(0.000204149 -6.97808e-05 -1.98422e-20 -3.34281e-06 -4.25112e-22 0)
(0.000216935 -0.000115361 -2.73215e-21 -1.17415e-05 -7.23448e-22 0)
(0.00024365 -0.000159046 2.19658e-20 -3.29354e-05 2.04007e-21 0)
(0.000267228 -0.000197743 1.39795e-20 -4.78376e-05 2.45913e-21 0)
(0.000307104 -0.000236914 -1.73355e-20 -7.88132e-05 -9.85474e-22 0)
(0.000339606 -0.000263087 -5.78562e-20 -9.80919e-05 -8.29256e-21 0)
(0.00038697 -0.000293188 4.67698e-20 -0.000132252 8.8192e-21 0)
(0.000429924 -0.000303259 -3.1331e-20 -0.000156937 -7.44026e-21 0)
(0.000476335 -0.000317343 5.38634e-22 -0.000187403 3.27016e-21 0)
(0.000222684 -2.24739e-05 3.21784e-21 9.32955e-07 -6.86329e-23 0)
(0.000229462 -6.83112e-05 8.58957e-21 -4.39004e-06 2.4386e-22 0)
(0.000238668 -0.000109932 -4.12741e-20 -9.9122e-06 9.05798e-22 0)
(0.00025911 -0.000151684 -4.85625e-20 -2.57004e-05 1.21997e-22 0)
(0.000278929 -0.000184216 1.06665e-20 -3.76216e-05 2.68034e-21 0)
(0.000312465 -0.000219418 3.27817e-20 -6.27088e-05 -8.80784e-22 0)
(0.000344683 -0.000240249 -5.37352e-20 -8.26194e-05 -5.33421e-21 0)
(0.000388171 -0.000267547 -1.03873e-19 -0.000113294 -1.44437e-20 0)
(0.000431719 -0.000278107 2.08909e-21 -0.000140901 5.32541e-23 0)
(0.000475285 -0.000293923 1.02036e-19 -0.000169727 3.22885e-20 0)
(0.00025799 -1.94072e-05 -1.43127e-20 -8.92903e-06 1.28176e-22 0)
(0.000264512 -6.33384e-05 1.46592e-20 -1.43003e-05 -5.15502e-22 0)
(0.000274013 -0.000100266 1.39185e-20 -2.11157e-05 1.18499e-21 0)
(0.000292377 -0.000142526 -8.19016e-22 -3.59529e-05 6.38763e-23 0)
(0.000310676 -0.000173633 -1.06799e-19 -4.88193e-05 -6.34679e-21 0)
(0.000338039 -0.000211332 3.80777e-20 -6.97742e-05 -2.63254e-21 0)
(0.000364904 -0.000233057 6.76937e-20 -8.82382e-05 1.01897e-20 0)
(0.000399254 -0.000261612 9.17183e-27 -0.000112023 -3.74402e-28 0)
(0.000434819 -0.000272939 1.15297e-21 -0.000136094 7.83548e-21 0)
(0.000471848 -0.000288476 2.45018e-20 -0.000159789 9.47352e-21 0)
(0.000280363 -1.76153e-05 1.27996e-20 -1.21862e-05 -9.01479e-22 0)
(0.000285257 -5.90873e-05 1.65632e-20 -1.60867e-05 -7.33487e-22 0)
(0.000293309 -9.19241e-05 1.54029e-20 -2.19036e-05 -8.54108e-22 0)
(0.000307958 -0.000130437 5.24238e-20 -3.33179e-05 -1.02052e-21 0)
(0.000325051 -0.000157114 -4.15959e-20 -4.5771e-05 -1.05238e-21 0)
(0.000348879 -0.000190385 -5.14746e-20 -6.35069e-05 -7.05334e-21 0)
(0.000375302 -0.000209475 5.00003e-20 -8.29249e-05 3.46124e-21 0)
(0.000406878 -0.000235349 2.08009e-20 -0.000104762 -1.39839e-21 0)
(0.000440529 -0.000246811 8.38634e-20 -0.000129299 5.95466e-21 0)
(0.00047448 -0.00026278 6.55308e-20 -0.000151585 7.84219e-21 0)
(0.000314723 -1.58523e-05 1.74583e-20 -2.64748e-05 -1.11457e-22 0)
(0.000318958 -5.5431e-05 1.76604e-20 -3.00926e-05 -6.96827e-22 0)
(0.00032633 -8.56183e-05 1.79899e-20 -3.62117e-05 -8.6149e-22 0)
(0.000338373 -0.000123168 3.39559e-20 -4.61943e-05 5.21294e-21 0)
(0.000352918 -0.000148857 1.52701e-20 -5.80709e-05 -5.97826e-21 0)
(0.000371552 -0.000181551 -4.8738e-20 -7.25296e-05 -8.18603e-21 0)
(0.000393174 -0.000200366 2.86765e-20 -8.97637e-05 5.07246e-21 0)
(0.000418047 -0.000225091 -5.52396e-20 -0.000107326 -3.85384e-21 0)
(0.000446171 -0.000236042 3.87843e-20 -0.000129046 7.1813e-21 0)
(0.000474156 -0.00025081 -1.9455e-20 -0.000147794 7.74386e-21 0)
(0.000332852 -1.40337e-05 -2.38647e-21 -2.88886e-05 -1.80186e-21 0)
(0.00033626 -4.98983e-05 -1.78644e-20 -3.17776e-05 6.12191e-22 0)
(0.000343072 -7.64041e-05 -8.71663e-21 -3.77154e-05 3.05547e-21 0)
(0.000353242 -0.000109763 0 -4.61025e-05 0 0)
(0.000367202 -0.000132217 6.87872e-22 -5.82009e-05 -4.63576e-21 0)
(0.000383822 -0.000160875 9.17809e-22 -7.11887e-05 -6.9077e-23 0)
(0.000404512 -0.000177925 5.26901e-20 -8.89549e-05 1.0267e-20 0)
(0.000427126 -0.00019995 -2.28491e-20 -0.000105314 1.89924e-21 0)
(0.000452681 -0.000210484 6.89659e-20 -0.000126872 1.45969e-20 0)
(0.000478233 -0.000224617 3.52108e-20 -0.00014454 -1.46099e-21 0)
(0.000362703 -1.30089e-05 2.27398e-21 -4.17072e-05 2.61831e-21 0)
(0.000365413 -4.66085e-05 2.61607e-20 -4.4284e-05 2.21776e-21 0)
(0.000371015 -7.1481e-05 -1.04252e-20 -4.98646e-05 -3.06624e-21 0)
(0.00037891 -0.000102797 2.14767e-20 -5.71288e-05 -1.13974e-21 0)
(0.000390039 -0.000124321 -1.89967e-20 -6.79397e-05 -4.03353e-21 0)
(0.000402787 -0.00015088 -6.31227e-20 -7.89455e-05 -1.6783e-21 0)
(0.000419352 -0.000167221 4.95168e-20 -9.43988e-05 1.1185e-20 0)
(0.000436844 -0.00018707 -2.97015e-20 -0.000108349 -6.28628e-21 0)
(0.000458612 -0.000196788 -2.92223e-20 -0.000127564 -7.61349e-21 0)
(0.00047735 -0.000209582 1.89707e-19 -0.000142239 2.74628e-20 0)
(0.000376686 -1.12338e-05 -4.13552e-21 -4.17429e-05 -5.27392e-21 0)
(0.000379083 -4.07968e-05 4.32691e-20 -4.41459e-05 -6.57142e-22 0)
(0.000384316 -6.22475e-05 8.13436e-21 -4.9697e-05 3.12689e-21 0)
(0.000391476 -8.96321e-05 -2.06554e-20 -5.66877e-05 6.05351e-22 0)
(0.000401883 -0.000108303 3.22954e-20 -6.74757e-05 8.3914e-21 0)
(0.000413647 -0.00013151 -4.4723e-20 -7.84285e-05 1.75843e-21 0)
(0.000428799 -0.000146082 -2.14666e-20 -9.35539e-05 8.36742e-22 0)
(0.000444778 -0.000163382 2.16949e-20 -0.000107588 -1.06197e-21 0)
(0.000464125 -0.000172809 -5.04031e-20 -0.000125799 -6.77257e-21 0)
(0.000481564 -0.000182821 -2.31031e-20 -0.000140989 1.2387e-21 0)
(0.000399804 -1.03587e-05 -4.63024e-20 -4.87484e-05 -3.18833e-21 0)
(0.000401608 -3.7365e-05 -6.02856e-20 -5.09204e-05 3.61651e-21 0)
(0.000405671 -5.71915e-05 3.90717e-20 -5.61201e-05 7.08032e-21 0)
(0.000411045 -8.21667e-05 -6.72627e-20 -6.23772e-05 6.90698e-22 0)
(0.000419062 -9.93498e-05 -2.25814e-20 -7.22797e-05 1.72393e-22 0)
(0.000428002 -0.000120354 2.27065e-20 -8.20462e-05 -3.55438e-22 0)
(0.000439788 -0.000133288 1.53137e-21 -9.57988e-05 -6.4386e-21 0)
(0.000452301 -0.000148831 -2.7815e-22 -0.000108419 -7.38976e-21 0)
(0.000467556 -0.000156231 2.61189e-20 -0.000124964 8.04656e-21 0)
(0.000481887 -0.000165326 2.72662e-20 -0.000139028 8.91893e-21 0)
(0.000408632 -8.58986e-06 -2.44269e-20 -4.39378e-05 -2.95883e-21 0)
(0.000410343 -3.13057e-05 -3.79972e-20 -4.62101e-05 -9.12989e-21 0)
(0.000414226 -4.7783e-05 3.2029e-20 -5.15996e-05 3.8921e-21 0)
(0.000419287 -6.88239e-05 4.4264e-20 -5.81549e-05 8.06766e-21 0)
(0.000426866 -8.32536e-05 -2.78368e-20 -6.83769e-05 -8.94561e-21 0)
(0.000435017 -0.000101021 -1.05651e-20 -7.84663e-05 -9.56398e-21 0)
(0.000445954 -0.000112158 -2.25458e-20 -9.25305e-05 -8.05997e-22 0)
(0.000456689 -0.00012518 2.1105e-20 -0.000105033 6.95331e-21 0)
(0.000470669 -0.000131935 2.32632e-20 -0.000121871 7.87693e-22 0)
(0.000482216 -0.00013895 1.01647e-19 -0.000135021 1.44896e-20 0)
(0.000422885 -7.50315e-06 6.87377e-20 -4.0965e-05 -1.94271e-21 0)
(0.000424183 -2.7117e-05 1.89309e-20 -4.31765e-05 -2.21174e-21 0)
(0.00042725 -4.14913e-05 -2.34928e-20 -4.86213e-05 -9.90394e-22 0)
(0.000431118 -5.9601e-05 3.42873e-20 -5.49974e-05 4.89261e-21 0)
(0.000437063 -7.20855e-05 -4.53814e-22 -6.52298e-05 -4.10859e-23 0)
(0.000443442 -8.72082e-05 -7.08785e-21 -7.50978e-05 3.39332e-21 0)
(0.000451926 -9.66305e-05 -2.44769e-20 -8.89557e-05 -2.01892e-21 0)
(0.000460683 -0.000107384 -5.90746e-20 -0.000101414 -2.06911e-20 0)
(0.000471211 -0.000112827 -1.91996e-20 -0.00011743 -1.41536e-20 0)
(0.000481263 -0.000117999 9.59569e-20 -0.000131179 4.07477e-20 0)
(0.000424318 -5.55197e-06 4.85206e-20 -2.75464e-05 2.5475e-21 0)
(0.000425678 -2.0082e-05 2.77457e-20 -3.00635e-05 3.0928e-21 0)
(0.000428832 -3.07639e-05 7.01501e-21 -3.60534e-05 2.4012e-21 0)
(0.000432783 -4.42979e-05 9.53261e-21 -4.32735e-05 2.89255e-21 0)
(0.000438748 -5.36757e-05 2.36074e-20 -5.4448e-05 3.00673e-21 0)
(0.000444934 -6.52083e-05 -1.44955e-20 -6.54566e-05 -4.53211e-21 0)
(0.000453122 -7.23069e-05 7.59472e-21 -8.0383e-05 -1.80511e-21 0)
(0.000461024 -8.08365e-05 5.27662e-21 -9.39074e-05 -2.71589e-21 0)
(0.000470776 -8.46331e-05 -2.28666e-20 -0.000110848 -3.89721e-21 0)
(0.000479269 -8.92103e-05 -4.89166e-20 -0.000125323 -2.82285e-21 0)
(0.000426441 -3.89903e-06 -4.7305e-20 -9.16102e-06 -1.05186e-21 0)
(0.000427633 -1.41634e-05 5.1442e-20 -1.19005e-05 4.1186e-21 0)
(0.00043057 -2.16374e-05 6.27683e-21 -1.86792e-05 1.25268e-21 0)
(0.000434045 -3.1215e-05 4.7291e-20 -2.65427e-05 7.20453e-21 0)
(0.000439646 -3.76819e-05 -2.36501e-20 -3.93073e-05 -4.37079e-21 0)
(0.000445102 -4.58652e-05 6.04279e-20 -5.12834e-05 1.36602e-20 0)
(0.000452857 -5.05742e-05 -6.20954e-20 -6.85966e-05 -1.58916e-20 0)
(0.000459782 -5.66138e-05 -1.60099e-20 -8.31546e-05 -5.716e-21 0)
(0.00046897 -5.87995e-05 1.15099e-20 -0.000103165 8.40727e-21 0)
(0.000476424 -6.18566e-05 1.80507e-20 -0.000118363 8.2555e-21 0)
(0.000416395 -1.34029e-06 -2.47792e-20 1.87518e-05 2.21054e-21 -1.09922e-35)
(0.000417833 -4.62017e-06 9.78531e-21 1.54861e-05 3.48037e-21 -2.18506e-36)
(0.000421352 -7.24746e-06 2.84082e-21 7.54412e-06 -5.12284e-22 6.32573e-39)
(0.000425471 -1.03422e-05 1.97824e-20 -1.85627e-06 5.55384e-21 -4.24364e-36)
(0.000432103 -1.27693e-05 -2.33277e-20 -1.68671e-05 -1.27876e-20 -1.0023e-35)
(0.000438346 -1.54323e-05 1.16957e-20 -3.124e-05 7.52464e-21 -2.47859e-36)
(0.00044734 -1.74148e-05 -5.06968e-21 -5.16708e-05 -4.79496e-21 -1.06229e-36)
(0.000454868 -1.93017e-05 -2.60722e-20 -6.91929e-05 -1.77901e-20 -5.15194e-36)
(0.000465203 -2.04995e-05 0 -9.27708e-05 0 0)
(0.000473005 -2.12554e-05 2.23898e-20 -0.000111157 1.92477e-20 -4.25989e-36)
(0.000647693 -0.000205124 -1.50098e-19 -0.000428643 -2.82731e-20 0)
(0.000643892 -0.000193057 -3.19478e-19 -0.000411416 -1.36882e-20 0)
(0.000693099 -0.000193188 0 -0.000433942 0 0)
(0.000715708 -0.000188072 1.10121e-19 -0.000431818 -4.52398e-20 0)
(0.000768087 -0.000180115 -3.52501e-19 -0.000452214 -2.05895e-19 0)
(0.000801441 -0.00017272 -5.253e-20 -0.000456124 7.22623e-20 0)
(0.000846068 -0.000164206 4.03124e-19 -0.00047111 1.39203e-19 0)
(0.000888868 -0.000154442 -1.29937e-19 -0.000479861 -1.27264e-19 0)
(0.000926086 -0.000144721 -1.77001e-19 -0.000489337 -5.80669e-20 0)
(0.000966184 -0.000133136 2.11778e-20 -0.000494231 1.40093e-20 0)
(0.00100746 -0.000121353 2.63599e-19 -0.000506099 1.39724e-19 0)
(0.00104698 -0.000109393 -1.37509e-19 -0.000508854 -1.30038e-19 0)
(0.00109064 -9.64072e-05 -1.219e-19 -0.000521821 -1.1611e-20 0)
(0.0011319 -8.52666e-05 1.35973e-19 -0.000524251 2.49722e-20 0)
(0.001179 -7.26439e-05 -1.65912e-20 -0.000539308 -1.25123e-20 0)
(0.0012258 -6.2828e-05 -3.54841e-19 -0.00054439 -1.48884e-19 0)
(0.0012794 -5.22424e-05 9.0081e-20 -0.000564221 7.69753e-20 0)
(0.00133764 -4.26614e-05 6.06219e-19 -0.000576558 3.09363e-19 0)
(0.00140202 -3.62994e-05 -2.64317e-20 -0.000604818 -2.06566e-20 0)
(0.0014801 -2.30212e-05 -4.2205e-19 -0.000661353 -1.248e-19 1.47403e-34)
(0.000624058 -0.000201243 -2.31916e-19 -0.000375787 -4.65588e-20 0)
(0.000656877 -0.000212988 -1.79849e-19 -0.000379107 -5.60093e-20 0)
(0.000719818 -0.000200944 3.64536e-19 -0.000400308 1.18283e-19 0)
(0.000730956 -0.000209168 -1.61596e-33 -0.00039599 -1.24288e-33 0)
(0.000771234 -0.000199428 -1.06581e-19 -0.000408365 1.66735e-20 0)
(0.000804994 -0.000200835 -7.6014e-20 -0.000413092 -7.89377e-20 0)
(0.000845001 -0.000186149 1.79221e-19 -0.000426009 6.29384e-20 0)
(0.000879891 -0.000187333 2.23871e-19 -0.000430741 1.04215e-19 0)
(0.000920455 -0.000188356 -6.80729e-35 -0.000444578 -6.39139e-35 0)
(0.000956669 -0.000168912 -1.80341e-19 -0.000449453 -6.64021e-20 0)
(0.000998176 -0.000163102 -3.8252e-28 -0.000464408 -1.46084e-28 0)
(0.00103635 -0.000146199 4.89303e-20 -0.000469773 4.27221e-20 0)
(0.00107962 -0.000136573 -5.09733e-20 -0.000486449 -4.3048e-20 0)
(0.001121 -0.000119932 5.29267e-20 -0.000493082 4.36375e-20 0)
(0.00116738 -0.000107767 5.51168e-20 -0.000512631 4.38986e-20 0)
(0.00121442 -9.0018e-05 -1.23666e-33 -0.000522247 -1.25463e-33 0)
(0.00126543 -7.4915e-05 -4.42775e-19 -0.000546091 -2.50524e-19 0)
(0.00132257 -5.43673e-05 1.24111e-33 -0.000561915 7.78664e-34 0)