/*--------------------------------*- C++ -*----------------------------------*\
| =========                 |                                                 |
| \\      /  F ield         | OpenFOAM: The Open Source CFD Toolbox           |
|  \\    /   O peration     | Version:  v2012                                 |
|   \\  /    A nd           | Website:  www.openfoam.com                      |
|    \\/     M anipulation  |                                                 |
\*---------------------------------------------------------------------------*/
FoamFile
{
    version     2.0;
    format      ascii;
    class       volScalarField;
    location    "17";
    object      sigmaEq;
}
// * * * * * * * * * * * * * * * * * * * * * * * * * * * * * * * * * * * * * //

dimensions      [1 -1 -2 0 0 0 0];


internalField   nonuniform List<scalar> 
1000
(
1.07479e+08
7.29447e+07
6.08878e+07
6.28569e+07
7.11999e+07
7.86044e+07
8.57552e+07
9.27628e+07
1.00194e+08
1.07786e+08
1.00488e+08
7.04823e+07
6.41886e+07
7.02938e+07
7.82338e+07
8.44587e+07
8.83159e+07
9.30758e+07
9.6583e+07
1.03157e+08
8.68067e+07
6.54289e+07
6.51629e+07
7.43089e+07
7.95447e+07
8.49808e+07
8.70414e+07
9.06608e+07
9.34712e+07
9.95218e+07
6.44134e+07
5.3805e+07
5.96214e+07
6.77945e+07
7.08205e+07
7.85469e+07
8.22552e+07
8.8334e+07
9.179e+07
9.61655e+07
3.49803e+07
3.96542e+07
4.90949e+07
5.28337e+07
6.18266e+07
7.60688e+07
8.07888e+07
8.56255e+07
8.71883e+07
9.08515e+07
2.24317e+07
2.08684e+07
3.47452e+07
4.38264e+07
5.52198e+07
6.33749e+07
7.04562e+07
7.65409e+07
7.9965e+07
8.45661e+07
1.66351e+07
1.97561e+07
2.99858e+07
3.44748e+07
4.42283e+07
5.16624e+07
5.84309e+07
6.43904e+07
6.8457e+07
7.25281e+07
1.18359e+07
1.35562e+07
2.35696e+07
3.01799e+07
3.89808e+07
4.59004e+07
5.18683e+07
5.70776e+07
5.99516e+07
6.41488e+07
8.17976e+06
1.50796e+07
2.39156e+07
2.9456e+07
3.6433e+07
4.17647e+07
4.68185e+07
5.12476e+07
5.43279e+07
5.7607e+07
1.0393e+07
1.53734e+07
2.44043e+07
2.93467e+07
3.62847e+07
4.0261e+07
4.52664e+07
4.83734e+07
5.16664e+07
5.45431e+07
1.72238e+07
1.82542e+07
2.34633e+07
2.78085e+07
3.27541e+07
3.64924e+07
4.01896e+07
4.3283e+07
4.59906e+07
4.90167e+07
2.63643e+07
2.44182e+07
2.65152e+07
2.981e+07
3.31893e+07
3.68101e+07
3.90753e+07
4.22809e+07
4.33244e+07
4.59992e+07
3.50004e+07
3.01966e+07
2.84015e+07
2.98354e+07
3.11545e+07
3.40094e+07
3.53744e+07
3.81466e+07
3.88188e+07
4.11884e+07
4.26117e+07
3.59911e+07
3.15807e+07
3.1246e+07
3.04927e+07
3.24896e+07
3.25713e+07
3.4962e+07
3.49784e+07
3.71634e+07
5.01723e+07
4.15499e+07
3.48385e+07
3.24134e+07
2.97368e+07
3.04432e+07
2.93504e+07
3.11397e+07
3.04337e+07
3.22596e+07
5.58748e+07
4.60537e+07
3.78442e+07
3.37758e+07
2.96117e+07
2.89012e+07
2.69228e+07
2.77832e+07
2.67993e+07
2.79964e+07
6.12524e+07
5.00817e+07
4.07039e+07
3.49859e+07
2.96233e+07
2.7312e+07
2.43782e+07
2.40582e+07
2.24849e+07
2.29171e+07
6.48448e+07
5.29402e+07
4.28538e+07
3.60343e+07
2.99064e+07
2.62355e+07
2.26889e+07
2.10334e+07
1.91543e+07
1.85629e+07
6.76191e+07
5.50285e+07
4.44561e+07
3.67497e+07
3.01011e+07
2.53187e+07
2.12174e+07
1.82987e+07
1.59145e+07
1.41904e+07
6.88534e+07
5.60096e+07
4.52311e+07
3.71401e+07
3.02669e+07
2.49266e+07
2.05887e+07
1.68952e+07
1.4269e+07
1.16425e+07
9.03435e+06
1.23477e+07
1.77196e+07
2.23673e+07
2.80047e+07
3.20182e+07
3.72905e+07
4.07834e+07
4.57841e+07
5.15839e+07
7.40162e+06
1.12528e+07
1.71089e+07
2.20544e+07
2.81246e+07
3.22493e+07
3.76715e+07
4.04602e+07
4.43768e+07
4.70072e+07
5.82961e+06
9.70809e+06
1.54884e+07
2.0146e+07
2.60851e+07
3.05769e+07
3.62172e+07
4.11111e+07
4.51666e+07
4.97022e+07
7.19806e+06
1.07933e+07
1.62624e+07
2.09213e+07
2.62836e+07
3.04255e+07
3.46252e+07
3.8693e+07
4.18287e+07
4.62212e+07
7.41451e+06
1.04911e+07
1.51896e+07
1.98906e+07
2.49252e+07
3.00286e+07
3.4391e+07
3.9581e+07
4.26306e+07
4.6451e+07
9.17787e+06
1.18792e+07
1.58948e+07
2.02578e+07
2.43675e+07
2.883e+07
3.22382e+07
3.68399e+07
4.00362e+07
4.40125e+07
1.06174e+07
1.28532e+07
1.61243e+07
2.04588e+07
2.43078e+07
2.91523e+07
3.25718e+07
3.71613e+07
4.00361e+07
4.35256e+07
1.21479e+07
1.40081e+07
1.6656e+07
2.03964e+07
2.35646e+07
2.77501e+07
3.08039e+07
3.4989e+07
3.80405e+07
4.1519e+07
1.42537e+07
1.57898e+07
1.79781e+07
2.1419e+07
2.43511e+07
2.83247e+07
3.12162e+07
3.49794e+07
3.7702e+07
4.07678e+07
1.55222e+07
1.67437e+07
1.8519e+07
2.13526e+07
2.38804e+07
2.72786e+07
3.00039e+07
3.34244e+07
3.61408e+07
3.90967e+07
1.77642e+07
1.87657e+07
2.0263e+07
2.27031e+07
2.49612e+07
2.79348e+07
3.03826e+07
3.33302e+07
3.57356e+07
3.82823e+07
1.87947e+07
1.95807e+07
2.08248e+07
2.28027e+07
2.4795e+07
2.73162e+07
2.96153e+07
3.22381e+07
3.45355e+07
3.69183e+07
2.07799e+07
2.14161e+07
2.24589e+07
2.40919e+07
2.5802e+07
2.79047e+07
2.98951e+07
3.20775e+07
3.41096e+07
3.60313e+07
2.15208e+07
2.20296e+07
2.29015e+07
2.42464e+07
2.5732e+07
2.75396e+07
2.93329e+07
3.12742e+07
3.31586e+07
3.48941e+07
2.29736e+07
2.33794e+07
2.40986e+07
2.51838e+07
2.64196e+07
2.79008e+07
2.93952e+07
3.10175e+07
3.25703e+07
3.40782e+07
2.32903e+07
2.36199e+07
2.4229e+07
2.51282e+07
2.62066e+07
2.7464e+07
2.88185e+07
3.02007e+07
3.16716e+07
3.29208e+07
2.39602e+07
2.42198e+07
2.4725e+07
2.54422e+07
2.63449e+07
2.73715e+07
2.85112e+07
2.96803e+07
3.0902e+07
3.20249e+07
2.36302e+07
2.38455e+07
2.42903e+07
2.4897e+07
2.5711e+07
2.66052e+07
2.76608e+07
2.87086e+07
2.98635e+07
3.09015e+07
2.32156e+07
2.33907e+07
2.37892e+07
2.42931e+07
2.50472e+07
2.58171e+07
2.68434e+07
2.77797e+07
2.89635e+07
2.9925e+07
2.19342e+07
2.20978e+07
2.2498e+07
2.29804e+07
2.37641e+07
2.453e+07
2.56438e+07
2.66135e+07
2.79502e+07
2.89982e+07
5.40369e+07
5.27742e+07
5.59954e+07
5.68294e+07
5.99392e+07
6.15217e+07
6.41031e+07
6.63519e+07
6.83886e+07
7.03815e+07
7.27453e+07
7.46844e+07
7.72614e+07
7.93433e+07
8.22377e+07
8.47644e+07
8.82366e+07
9.1671e+07
9.60725e+07
9.64509e+07
5.07033e+07
5.27672e+07
5.61569e+07
5.67767e+07
5.88827e+07
6.07341e+07
6.2782e+07
6.47058e+07
6.72654e+07
6.88051e+07
7.13416e+07
7.31532e+07
7.58324e+07
7.79498e+07
8.09279e+07
8.35238e+07
8.69477e+07
9.03746e+07
9.43522e+07
9.23172e+07
5.14289e+07
5.26209e+07
5.41943e+07
5.51893e+07
5.71736e+07
5.7708e+07
6.0414e+07
6.41721e+07
6.39376e+07
6.469e+07
6.78032e+07
6.91837e+07
7.21067e+07
7.39786e+07
7.69674e+07
7.93218e+07
8.25477e+07
8.5435e+07
8.90377e+07
9.05197e+07
4.91299e+07
5.10913e+07
5.33416e+07
5.4505e+07
5.67871e+07
5.79601e+07
6.04154e+07
6.14957e+07
6.33716e+07
6.5161e+07
6.72613e+07
6.90235e+07
7.12793e+07
7.31702e+07
7.55781e+07
7.76733e+07
8.02671e+07
8.25482e+07
8.53938e+07
8.76664e+07
4.86917e+07
5.04316e+07
5.16988e+07
5.31361e+07
5.44945e+07
5.59386e+07
5.73478e+07
5.90945e+07
6.03316e+07
6.17779e+07
6.35186e+07
6.49497e+07
6.69873e+07
6.85539e+07
7.08104e+07
7.25912e+07
7.50525e+07
7.70732e+07
7.97531e+07
8.1975e+07
4.66545e+07
4.84683e+07
5.00693e+07
5.15185e+07
5.3181e+07
5.45126e+07
5.6198e+07
5.74886e+07
5.91281e+07
6.0485e+07
6.21621e+07
6.35482e+07
6.53014e+07
6.6737e+07
6.85981e+07
7.01255e+07
7.21329e+07
7.38131e+07
7.60055e+07
7.79496e+07
4.58166e+07
4.73994e+07
4.85262e+07
4.99646e+07
5.10833e+07
5.24416e+07
5.35781e+07
5.48819e+07
5.60615e+07
5.72917e+07
5.85857e+07
5.97797e+07
6.12052e+07
6.2423e+07
6.39754e+07
6.52974e+07
6.69542e+07
6.85035e+07
7.02069e+07
7.18125e+07
4.40029e+07
4.54343e+07
4.67448e+07
4.80961e+07
4.93841e+07
5.06351e+07
5.19019e+07
5.30738e+07
5.43206e+07
5.54395e+07
5.66796e+07
5.77668e+07
5.90159e+07
6.00993e+07
6.13793e+07
6.24922e+07
6.38464e+07
6.50127e+07
6.64586e+07
6.77539e+07
4.29969e+07
4.42009e+07
4.52624e+07
4.64804e+07
4.74749e+07
4.86089e+07
4.95615e+07
5.06119e+07
5.15475e+07
5.25148e+07
5.34604e+07
5.43464e+07
5.53299e+07
5.61277e+07
5.71891e+07
5.78637e+07
5.90746e+07
6.08311e+07
6.10193e+07
6.18355e+07
4.13515e+07
4.23993e+07
4.35342e+07
4.46406e+07
4.57067e+07
4.673e+07
4.77267e+07
4.86723e+07
4.96086e+07
5.04785e+07
5.13686e+07
5.21662e+07
5.3025e+07
5.37601e+07
5.45994e+07
5.52946e+07
5.61119e+07
5.6817e+07
5.76456e+07
5.83738e+07
4.03175e+07
4.11722e+07
4.21245e+07
4.30722e+07
4.39447e+07
4.48101e+07
4.56096e+07
4.63929e+07
4.71273e+07
4.78302e+07
4.85078e+07
4.9137e+07
4.97637e+07
5.03372e+07
5.09129e+07
5.14714e+07
5.19829e+07
5.26128e+07
5.30177e+07
5.35039e+07
3.87839e+07
3.95816e+07
4.06159e+07
4.13944e+07
4.22945e+07
4.30539e+07
4.38411e+07
4.45508e+07
4.5243e+07
4.58818e+07
4.64921e+07
4.7049e+07
4.75837e+07
4.80559e+07
4.85181e+07
4.8911e+07
4.93044e+07
4.9634e+07
4.99727e+07
5.02447e+07
3.78673e+07
3.85983e+07
3.92379e+07
3.9837e+07
4.06618e+07
4.12333e+07
4.19366e+07
4.24699e+07
4.30613e+07
4.3542e+07
4.40288e+07
4.44465e+07
4.48342e+07
4.5181e+07
4.54696e+07
4.57418e+07
4.5931e+07
4.61244e+07
4.62349e+07
4.63226e+07
3.65833e+07
3.70047e+07
3.77339e+07
3.84043e+07
3.90842e+07
3.96745e+07
4.02792e+07
4.08005e+07
4.13199e+07
4.1758e+07
4.21978e+07
4.25562e+07
4.28977e+07
4.31603e+07
4.34003e+07
4.35312e+07
4.3685e+07
4.37338e+07
4.37346e+07
4.36671e+07
3.54227e+07
3.58453e+07
3.64765e+07
3.6987e+07
3.75674e+07
3.80252e+07
3.8548e+07
3.89478e+07
3.94097e+07
3.97381e+07
4.01017e+07
4.03743e+07
4.06423e+07
4.083e+07
4.09944e+07
4.10704e+07
4.10755e+07
4.1048e+07
4.09154e+07
4.07143e+07
3.41796e+07
3.4505e+07
3.51412e+07
3.5562e+07
3.61298e+07
3.65413e+07
3.70303e+07
3.74471e+07
3.78258e+07
3.81292e+07
3.84946e+07
3.87876e+07
3.90052e+07
3.92657e+07
3.93159e+07
3.91677e+07
3.93711e+07
3.93584e+07
3.90961e+07
3.88272e+07
3.30281e+07
3.33526e+07
3.38574e+07
3.42477e+07
3.47072e+07
3.50692e+07
3.5504e+07
3.5823e+07
3.62764e+07
3.64901e+07
3.67827e+07
3.70452e+07
3.72444e+07
3.74459e+07
3.75254e+07
3.76298e+07
3.75874e+07
3.75098e+07
3.72676e+07
3.69601e+07
3.1819e+07
3.21578e+07
3.26447e+07
3.30304e+07
3.34858e+07
3.38365e+07
3.42903e+07
3.45693e+07
3.49993e+07
3.53373e+07
3.5616e+07
3.58795e+07
3.61191e+07
3.62947e+07
3.64609e+07
3.64978e+07
3.65616e+07
3.64729e+07
3.62932e+07
3.59694e+07
3.08422e+07
3.12028e+07
3.16892e+07
3.20937e+07
3.24738e+07
3.28869e+07
3.34629e+07
3.3706e+07
3.41081e+07
3.44044e+07
3.46951e+07
3.49838e+07
3.51914e+07
3.54277e+07
3.55532e+07
3.57021e+07
3.57296e+07
3.57472e+07
3.56326e+07
3.54489e+07
3.00111e+07
3.04579e+07
3.10279e+07
3.1493e+07
3.19619e+07
3.26134e+07
3.31242e+07
3.33599e+07
3.38766e+07
3.41657e+07
3.45425e+07
3.47974e+07
3.50712e+07
3.52542e+07
3.54377e+07
3.55345e+07
3.56323e+07
3.56435e+07
3.565e+07
3.55639e+07
1.06985e+08
9.97268e+07
9.2671e+07
8.81512e+07
8.33812e+07
8.02651e+07
7.59402e+07
7.28564e+07
6.85172e+07
6.52628e+07
6.07422e+07
5.7073e+07
5.21115e+07
4.77293e+07
4.19936e+07
3.65296e+07
2.96075e+07
2.2593e+07
1.39701e+07
4.78369e+06
1.0762e+08
1.11325e+08
1.09745e+08
1.06817e+08
1.02382e+08
9.78644e+07
9.20831e+07
8.8309e+07
8.3084e+07
7.90714e+07
7.38897e+07
6.94433e+07
6.39329e+07
5.88053e+07
5.26025e+07
4.64746e+07
3.91856e+07
3.16655e+07
2.28813e+07
1.35902e+07
1.01727e+08
1.05797e+08
1.0843e+08
1.12033e+08
1.14399e+08
1.15999e+08
1.10912e+08
1.04965e+08
9.82405e+07
9.31348e+07
8.72518e+07
8.23121e+07
7.64956e+07
7.11671e+07
6.48721e+07
5.87167e+07
5.153e+07
4.42249e+07
3.59744e+07
2.75867e+07
9.70485e+07
1.00303e+08
1.01783e+08
1.04491e+08
1.06493e+08
1.10105e+08
1.12897e+08
1.1495e+08
1.10031e+08
1.04767e+08
9.94038e+07
9.4389e+07
8.87914e+07
8.35025e+07
7.74401e+07
7.15125e+07
6.4808e+07
5.8106e+07
5.09403e+07
4.39321e+07
9.02915e+07
9.40114e+07
9.52647e+07
9.82719e+07
1.00065e+08
1.0318e+08
1.04878e+08
1.08296e+08
1.10392e+08
1.08741e+08
1.05485e+08
1.02099e+08
9.79426e+07
9.35776e+07
8.88313e+07
8.374e+07
7.86806e+07
7.33226e+07
6.86787e+07
6.41612e+07
8.41682e+07
8.82137e+07
8.909e+07
9.19055e+07
9.33351e+07
9.61854e+07
9.81168e+07
1.00732e+08
1.01554e+08
1.02401e+08
1.01388e+08
9.99476e+07
9.77892e+07
9.5028e+07
9.22728e+07
8.89521e+07
8.62203e+07
8.32307e+07
8.15772e+07
8.02171e+07
7.29077e+07
7.85223e+07
7.93926e+07
8.26418e+07
8.37787e+07
8.68797e+07
8.84687e+07
9.15472e+07
9.35082e+07
9.50958e+07
9.58193e+07
9.58581e+07
9.54826e+07
9.44573e+07
9.34476e+07
9.19984e+07
9.1092e+07
9.01338e+07
9.0489e+07
9.13035e+07
6.38924e+07
6.88432e+07
7.03949e+07
7.29832e+07
7.46389e+07
7.67282e+07
7.87027e+07
8.06306e+07
8.27729e+07
8.45048e+07
8.62329e+07
8.7345e+07
8.85112e+07
8.90709e+07
8.99372e+07
9.03791e+07
9.1541e+07
9.26021e+07
9.49436e+07
9.75651e+07
5.86158e+07
6.20659e+07
6.526e+07
6.73667e+07
7.02559e+07
7.20984e+07
7.46487e+07
7.64892e+07
7.87965e+07
8.05075e+07
8.25188e+07
8.39691e+07
8.56569e+07
8.69243e+07
8.84745e+07
8.98513e+07
9.16934e+07
9.35856e+07
9.63348e+07
9.90155e+07
5.53443e+07
5.62801e+07
5.92935e+07
6.07831e+07
6.37542e+07
6.55617e+07
6.83468e+07
7.03052e+07
7.28708e+07
7.4918e+07
7.73025e+07
7.9317e+07
8.15623e+07
8.35923e+07
8.58872e+07
8.81688e+07
9.0901e+07
9.37749e+07
9.75371e+07
1.01205e+08
)
;

boundaryField
{
    back
    {
        type            empty;
    }
    left
    {
        type            symmetry;
    }
    hole
    {
        type            calculated;
        value           nonuniform List<scalar> 
20
(
1.09752e+08
1.02109e+08
8.68238e+07
6.30788e+07
2.79032e+07
1.77329e+07
1.5331e+07
1.11211e+07
3.28479e+06
6.96128e+06
1.58895e+07
2.57162e+07
3.50123e+07
4.29383e+07
5.07753e+07
5.66541e+07
6.21492e+07
6.5825e+07
6.86424e+07
6.99005e+07
)
;
    }
    front
    {
        type            empty;
    }
    down
    {
        type            symmetry;
    }
    right
    {
        type            calculated;
        value           nonuniform List<scalar> 
30
(
2.19912e+07
2.21489e+07
2.2537e+07
2.30044e+07
2.37678e+07
2.45167e+07
2.56086e+07
2.65677e+07
2.78876e+07
2.89373e+07
2.99424e+07
3.0402e+07
3.09812e+07
3.14515e+07
3.19631e+07
3.2495e+07
3.29959e+07
3.33412e+07
3.38038e+07
3.41333e+07
3.44932e+07
3.47623e+07
3.50317e+07
3.5219e+07
3.54022e+07
3.5501e+07
3.56031e+07
3.56215e+07
3.56507e+07
3.56018e+07
)
;
    }
    up
    {
        type            calculated;
        value           nonuniform List<scalar> 
30
(
9.62328e+07
9.20477e+07
9.04293e+07
8.76826e+07
8.20384e+07
7.79952e+07
7.18762e+07
6.77942e+07
6.18839e+07
5.83838e+07
5.35281e+07
5.02502e+07
4.63282e+07
4.36657e+07
4.07158e+07
3.88275e+07
3.69552e+07
3.59737e+07
3.54476e+07
3.55699e+07
4.6468e+06
1.32999e+07
2.73296e+07
4.36809e+07
6.40366e+07
8.01996e+07
9.13228e+07
9.76282e+07
9.90263e+07
1.01207e+08
)
;
    }
}


// ************************************************************************* //
