/*--------------------------------*- C++ -*----------------------------------*\
| =========                 |                                                 |
| \\      /  F ield         | OpenFOAM: The Open Source CFD Toolbox           |
|  \\    /   O peration     | Version:  v2012                                 |
|   \\  /    A nd           | Website:  www.openfoam.com                      |
|    \\/     M anipulation  |                                                 |
\*---------------------------------------------------------------------------*/
FoamFile
{
    version     2.0;
    format      ascii;
    class       pointVectorField;
    location    "6";
    object      pointD;
}
// * * * * * * * * * * * * * * * * * * * * * * * * * * * * * * * * * * * * * //

dimensions      [0 1 0 0 0 0 0];


internalField   nonuniform List<vector> 
8282
(
(0.00213413 0 0)
(0.00304294 0 0)
(0.00280718 -0.000279539 0)
(0 -0.0015079 0)
(0 -0.00113595 0)
(0.00220431 0 0)
(0 -0.00139078 0)
(0.00129706 -0.000475669 0)
(0.000643384 -0.000888077 0)
(0.00293493 -8.70995e-05 0)
(0.00155678 -0.000697783 0)
(0.00155678 -0.000697783 0)
(0.00129706 -0.000475669 0)
(0 -0.00139078 0)
(0 -0.00113595 0)
(0.00213413 0 0)
(0.00220431 0 0)
(0.00304294 0 0)
(0.00293493 -8.70995e-05 0)
(0.00280718 -0.000279539 0)
(0.000643384 -0.000888077 0)
(0 -0.0015079 0)
(5.23647e-05 -0.00138653 0)
(0.000105177 -0.00137443 0)
(0.000158816 -0.00135471 0)
(0.000213619 -0.00132783 0)
(0.000269855 -0.00129434 0)
(0.000327727 -0.00125493 0)
(0.00038737 -0.00121031 0)
(0.000448859 -0.00116126 0)
(0.000512212 -0.00110853 0)
(0.000577398 -0.00105288 0)
(0.000644341 -0.000995055 0)
(0.000712927 -0.000935762 0)
(0.000783003 -0.000875667 0)
(0.000854385 -0.000815389 0)
(0.000926857 -0.000755493 0)
(0.00100018 -0.000696482 0)
(0.00107411 -0.000638788 0)
(0.00114838 -0.00058275 0)
(0.00122276 -0.000528531 0)
(0.00136948 -0.000428986 0)
(0.0014412 -0.000384429 0)
(0.00151175 -0.000342361 0)
(0.00158075 -0.000302986 0)
(0.0016478 -0.000266419 0)
(0.00171252 -0.000232712 0)
(0.00177457 -0.000201863 0)
(0.0018336 -0.000173831 0)
(0.00188926 -0.000148533 0)
(0.00194126 -0.000125856 0)
(0.00198928 -0.000105656 0)
(0.00203306 -8.776e-05 0)
(0.00207232 -7.19744e-05 0)
(0.00210685 -5.80816e-05 0)
(0.00213642 -4.58455e-05 0)
(0.00216086 -3.50122e-05 0)
(0.00218001 -2.53121e-05 0)
(0.00219373 -1.64598e-05 0)
(0.00220191 -8.14759e-06 0)
(0.00214204 0 0)
(0.0021489 0 0)
(0.00215487 0 0)
(0.00216005 0 0)
(0.00216458 0 0)
(0.00216857 0 0)
(0.0021721 0 0)
(0.00217527 0 0)
(0.00217814 0 0)
(0.0021808 0 0)
(0.00218329 0 0)
(0.00218566 0 0)
(0.00218795 0 0)
(0.00219021 0 0)
(0.00219245 0 0)
(0.00219471 0 0)
(0.00219701 0 0)
(0.00219936 0 0)
(0.00220179 0 0)
(0.00221164 0 0)
(0.00221946 0 0)
(0.00222801 0 0)
(0.0022374 0 0)
(0.00224769 0 0)
(0.00225891 0 0)
(0.00227106 0 0)
(0.00228414 0 0)
(0.00229814 0 0)
(0.00231304 0 0)
(0.00232881 0 0)
(0.00234543 0 0)
(0.00236288 0 0)
(0.00238113 0 0)
(0.00240016 0 0)
(0.00241995 0 0)
(0.00244045 0 0)
(0.00246166 0 0)
(0.00248353 0 0)
(0.00250606 0 0)
(0.0025292 0 0)
(0.00255294 0 0)
(0.00257723 0 0)
(0.00260207 0 0)
(0.00262741 0 0)
(0.00265323 0 0)
(0.00267949 0 0)
(0.00270617 0 0)
(0.00273322 0 0)
(0.00276061 0 0)
(0.0027883 0 0)
(0.00281625 0 0)
(0.00284442 0 0)
(0.00287274 0 0)
(0.00290118 0 0)
(0.00292967 0 0)
(0.00295816 0 0)
(0.00298656 0 0)
(0.00301484 0 0)
(0.00304233 -2.13161e-06 0)
(0.00304125 -4.35233e-06 0)
(0.00303958 -6.65531e-06 0)
(0.00303729 -9.06894e-06 0)
(0.00303439 -1.16275e-05 0)
(0.00303089 -1.4366e-05 0)
(0.00302681 -1.73184e-05 0)
(0.00302217 -2.05172e-05 0)
(0.00301699 -2.39934e-05 0)
(0.0030113 -2.7776e-05 0)
(0.00300515 -3.18916e-05 0)
(0.00299855 -3.63651e-05 0)
(0.00299156 -4.12184e-05 0)
(0.0029842 -4.6471e-05 0)
(0.00297653 -5.21399e-05 0)
(0.00296858 -5.82387e-05 0)
(0.0029604 -6.47785e-05 0)
(0.00295204 -7.17671e-05 0)
(0.00294354 -7.92088e-05 0)
(0.00293115 -9.07264e-05 0)
(0.00292736 -9.44398e-05 0)
(0.00292355 -9.82393e-05 0)
(0.00291975 -0.000102124 0)
(0.00291595 -0.000106094 0)
(0.00291216 -0.000110147 0)
(0.00290839 -0.000114283 0)
(0.00290463 -0.000118499 0)
(0.0029009 -0.000122795 0)
(0.00289719 -0.000127168 0)
(0.00289352 -0.000131616 0)
(0.00288987 -0.000136138 0)
(0.00288627 -0.000140731 0)
(0.0028827 -0.000145392 0)
(0.00287917 -0.000150119 0)
(0.00287569 -0.000154909 0)
(0.00287226 -0.00015976 0)
(0.00286888 -0.000164668 0)
(0.00286555 -0.000169629 0)
(0.00286228 -0.000174641 0)
(0.00285905 -0.0001797 0)
(0.00285589 -0.000184802 0)
(0.00285278 -0.000189944 0)
(0.00284974 -0.000195121 0)
(0.00284675 -0.00020033 0)
(0.00284381 -0.000205566 0)
(0.00284094 -0.000210825 0)
(0.00283811 -0.000216103 0)
(0.00283535 -0.000221395 0)
(0.00283263 -0.000226698 0)
(0.00282996 -0.000232007 0)
(0.00282734 -0.000237318 0)
(0.00282475 -0.000242628 0)
(0.0028222 -0.000247932 0)
(0.00281967 -0.000253228 0)
(0.00281716 -0.000258514 0)
(0.00281467 -0.000263788 0)
(0.00281218 -0.000269049 0)
(0.00280968 -0.000274299 0)
(0.00276892 -0.000287435 0)
(0.00273078 -0.000295219 0)
(0.0026927 -0.000302692 0)
(0.0026546 -0.000309705 0)
(0.00261633 -0.000316168 0)
(0.00257778 -0.00032204 0)
(0.00253881 -0.000327318 0)
(0.00249932 -0.000332027 0)
(0.00245919 -0.000336213 0)
(0.00241832 -0.000339937 0)
(0.00237663 -0.000343276 0)
(0.00233401 -0.000346317 0)
(0.0022904 -0.000349157 0)
(0.00224572 -0.000351902 0)
(0.0021999 -0.000354664 0)
(0.00215286 -0.000357567 0)
(0.00210455 -0.000360739 0)
(0.00205491 -0.000364317 0)
(0.00200388 -0.000368448 0)
(0.00195141 -0.000373285 0)
(0.00189747 -0.000378989 0)
(0.00184202 -0.000385731 0)
(0.00178504 -0.000393688 0)
(0.0017265 -0.000403046 0)
(0.0016664 -0.000413996 0)
(0.00160477 -0.000426735 0)
(0.00154162 -0.000441465 0)
(0.001477 -0.000458387 0)
(0.00141099 -0.000477703 0)
(0.00134368 -0.000499609 0)
(0.0012752 -0.000524289 0)
(0.0012057 -0.000551915 0)
(0.00113537 -0.000582635 0)
(0.00106443 -0.000616566 0)
(0.000993151 -0.000653788 0)
(0.000921826 -0.000694332 0)
(0.000850793 -0.000738169 0)
(0.000780425 -0.000785201 0)
(0.000711129 -0.00083525 0)
(0.000595532 -0.000927511 0)
(0.000548889 -0.000968034 0)
(0.000503591 -0.00100937 0)
(0.000459783 -0.00105125 0)
(0.0004176 -0.00109338 0)
(0.000377167 -0.00113546 0)
(0.000338588 -0.00117714 0)
(0.000301947 -0.00121806 0)
(0.000267301 -0.00125782 0)
(0.000234679 -0.00129602 0)
(0.000204073 -0.00133226 0)
(0.000175442 -0.0013661 0)
(0.000148707 -0.00139716 0)
(0.000123747 -0.00142502 0)
(0.000100404 -0.00144933 0)
(7.84802e-05 -0.00146973 0)
(5.77419e-05 -0.00148596 0)
(3.79238e-05 -0.00149778 0)
(1.87419e-05 -0.00150506 0)
(0 -0.00150586 0)
(0 -0.00150371 0)
(0 -0.00150148 0)
(0 -0.00149916 0)
(0 -0.00149677 0)
(0 -0.0014943 0)
(0 -0.00149176 0)
(0 -0.00148916 0)
(0 -0.0014865 0)
(0 -0.00148379 0)
(0 -0.00148103 0)
(0 -0.00147822 0)
(0 -0.00147537 0)
(0 -0.00147248 0)
(0 -0.00146955 0)
(0 -0.00146659 0)
(0 -0.0014636 0)
(0 -0.00146059 0)
(0 -0.00145755 0)
(0 -0.00145449 0)
(0 -0.0014514 0)
(0 -0.00144831 0)
(0 -0.00144519 0)
(0 -0.00144206 0)
(0 -0.00143892 0)
(0 -0.00143577 0)
(0 -0.00143261 0)
(0 -0.00142943 0)
(0 -0.00142625 0)
(0 -0.00142307 0)
(0 -0.00141987 0)
(0 -0.00141667 0)
(0 -0.00141346 0)
(0 -0.00141025 0)
(0 -0.00140702 0)
(0 -0.00140379 0)
(0 -0.00140056 0)
(0 -0.00139731 0)
(0 -0.00139405 0)
(0 -0.0013841 0)
(0 -0.00137735 0)
(0 -0.00137052 0)
(0 -0.00136357 0)
(0 -0.00135647 0)
(0 -0.00134918 0)
(0 -0.00134165 0)
(0 -0.00133382 0)
(0 -0.00132561 0)
(0 -0.00131694 0)
(0 -0.00130771 0)
(0 -0.00129777 0)
(0 -0.00128695 0)
(0 -0.00127502 0)
(0 -0.00126163 0)
(0 -0.00124624 0)
(0 -0.00122636 0)
(0 -0.00120145 0)
(0 -0.00117132 0)
(0.00135497 -0.000428177 0)
(0.00141087 -0.000384553 0)
(0.00146499 -0.000345253 0)
(0.00151735 -0.000310261 0)
(0.00156802 -0.000279399 0)
(0.00161706 -0.000252412 0)
(0.00166459 -0.000229012 0)
(0.0017107 -0.000208899 0)
(0.00175553 -0.000191772 0)
(0.0017992 -0.000177343 0)
(0.00184184 -0.000165334 0)
(0.00188358 -0.000155487 0)
(0.00192453 -0.000147557 0)
(0.0019648 -0.000141317 0)
(0.00200449 -0.000136556 0)
(0.0020437 -0.000133077 0)
(0.0020825 -0.0001307 0)
(0.00212095 -0.000129254 0)
(0.00215913 -0.000128584 0)
(0.00219709 -0.000128541 0)
(0.00223486 -0.00012899 0)
(0.00227248 -0.000129803 0)
(0.00230997 -0.00013086 0)
(0.00234737 -0.000132048 0)
(0.00238469 -0.000133259 0)
(0.00242193 -0.000134391 0)
(0.0024591 -0.000135348 0)
(0.00249621 -0.000136034 0)
(0.00253326 -0.000136358 0)
(0.00257023 -0.000136228 0)
(0.00260712 -0.000135553 0)
(0.00264394 -0.00013424 0)
(0.00268066 -0.000132193 0)
(0.00271728 -0.000129309 0)
(0.00275381 -0.000125477 0)
(0.00279022 -0.000120572 0)
(0.00282654 -0.000114457 0)
(0.00286276 -0.000106968 0)
(0.00289889 -9.79197e-05 0)
(0.00127462 -0.000487594 0)
(0.00125274 -0.000499479 0)
(0.00123141 -0.000511322 0)
(0.00121063 -0.000523118 0)
(0.00119038 -0.000534864 0)
(0.00117065 -0.000546557 0)
(0.00115142 -0.000558189 0)
(0.00113267 -0.000569755 0)
(0.0011144 -0.000581247 0)
(0.00109658 -0.000592659 0)
(0.00107919 -0.000603984 0)
(0.00106221 -0.000615214 0)
(0.00104562 -0.000626344 0)
(0.00102939 -0.000637368 0)
(0.0010135 -0.000648281 0)
(0.000997929 -0.000659079 0)
(0.000982644 -0.000669758 0)
(0.000967623 -0.000680316 0)
(0.000952837 -0.000690751 0)
(0.000938258 -0.000701061 0)
(0.000923859 -0.000711248 0)
(0.00090961 -0.00072131 0)
(0.000895482 -0.000731251 0)
(0.000881445 -0.000741072 0)
(0.000867469 -0.000750778 0)
(0.000853523 -0.000760372 0)
(0.000839575 -0.000769861 0)
(0.000825595 -0.000779249 0)
(0.00081155 -0.000788546 0)
(0.000797408 -0.000797759 0)
(0.000783136 -0.000806898 0)
(0.000768702 -0.000815975 0)
(0.000754072 -0.000825 0)
(0.000739212 -0.000833988 0)
(0.000724089 -0.000842953 0)
(0.000708668 -0.000851912 0)
(0.000692918 -0.000860883 0)
(0.000676804 -0.000869885 0)
(0.000660299 -0.000878942 0)
(9.92905e-05 -0.00114063 0)
(0.000196773 -0.00114169 0)
(0.000291727 -0.00113911 0)
(0.000383445 -0.00113258 0)
(0.000471792 -0.00112208 0)
(0.000556811 -0.00110719 0)
(0.000638904 -0.00108822 0)
(0.000718992 -0.00106588 0)
(0.000798624 -0.00104215 0)
(0.000877213 -0.00101671 0)
(0.000954396 -0.000989627 0)
(0.00102991 -0.000961036 0)
(0.00110357 -0.000931105 0)
(0.00117522 -0.000900008 0)
(0.00124472 -0.000867914 0)
(0.00131196 -0.000834986 0)
(0.00137686 -0.000801375 0)
(0.00143934 -0.000767222 0)
(0.00149933 -0.000732653 0)
(0.00161165 -0.000662708 0)
(0.0016639 -0.000627508 0)
(0.0017135 -0.000592245 0)
(0.00176044 -0.000556966 0)
(0.00180469 -0.000521706 0)
(0.00184623 -0.000486489 0)
(0.00188505 -0.000451329 0)
(0.00192111 -0.000416238 0)
(0.00195439 -0.000381219 0)
(0.00198488 -0.000346275 0)
(0.00201255 -0.000311404 0)
(0.00203738 -0.000276605 0)
(0.00205935 -0.000241873 0)
(0.00207845 -0.000207207 0)
(0.00209467 -0.000172601 0)
(0.00210801 -0.000138055 0)
(0.00211847 -0.000103567 0)
(0.00212611 -6.91349e-05 0)
(0.00213107 -3.47305e-05 0)
(0.00152662 -0.000673216 0)
(0.00149939 -0.000651289 0)
(0.00147481 -0.000631672 0)
(0.00145264 -0.000614082 0)
(0.00143265 -0.000598274 0)
(0.00141465 -0.000584036 0)
(0.00139846 -0.000571183 0)
(0.00138392 -0.000559552 0)
(0.00137088 -0.000549001 0)
(0.00135923 -0.000539405 0)
(0.00134883 -0.000530653 0)
(0.00133958 -0.000522647 0)
(0.00133139 -0.000515297 0)
(0.00132418 -0.000508525 0)
(0.00131785 -0.000502256 0)
(0.00131235 -0.00049642 0)
(0.00130761 -0.000490947 0)
(0.00130355 -0.000485758 0)
(0.00130009 -0.000480741 0)
(0.00152662 -0.000673216 0)
(0.00149939 -0.000651289 0)
(0.00147481 -0.000631672 0)
(0.00145264 -0.000614082 0)
(0.00143265 -0.000598274 0)
(0.00141465 -0.000584036 0)
(0.00139846 -0.000571183 0)
(0.00138392 -0.000559552 0)
(0.00137088 -0.000549001 0)
(0.00135923 -0.000539405 0)
(0.00134883 -0.000530653 0)
(0.00133958 -0.000522647 0)
(0.00133139 -0.000515297 0)
(0.00132418 -0.000508525 0)
(0.00131785 -0.000502256 0)
(0.00131235 -0.00049642 0)
(0.00130761 -0.000490947 0)
(0.00130355 -0.000485758 0)
(0.00130009 -0.000480741 0)
(0.00122276 -0.000528531 0)
(0.00114838 -0.00058275 0)
(0.00107411 -0.000638788 0)
(0.00100018 -0.000696482 0)
(0.000926857 -0.000755493 0)
(0.000854385 -0.000815389 0)
(0.000783003 -0.000875667 0)
(0.000712927 -0.000935762 0)
(0.000644341 -0.000995055 0)
(0.000577398 -0.00105288 0)
(0.000512212 -0.00110853 0)
(0.000448859 -0.00116126 0)
(0.00038737 -0.00121031 0)
(0.000327727 -0.00125493 0)
(0.000269855 -0.00129434 0)
(0.000213619 -0.00132783 0)
(0.000158816 -0.00135471 0)
(0.000105177 -0.00137443 0)
(5.23647e-05 -0.00138653 0)
(0 -0.0013841 0)
(0 -0.00137735 0)
(0 -0.00137052 0)
(0 -0.00136357 0)
(0 -0.00135647 0)
(0 -0.00134918 0)
(0 -0.00134165 0)
(0 -0.00133382 0)
(0 -0.00132561 0)
(0 -0.00131694 0)
(0 -0.00130771 0)
(0 -0.00129777 0)
(0 -0.00128695 0)
(0 -0.00127502 0)
(0 -0.00126163 0)
(0 -0.00124624 0)
(0 -0.00122636 0)
(0 -0.00120145 0)
(0 -0.00117132 0)
(9.92905e-05 -0.00114063 0)
(0.000196773 -0.00114169 0)
(0.000291727 -0.00113911 0)
(0.000383445 -0.00113258 0)
(0.000471792 -0.00112208 0)
(0.000556811 -0.00110719 0)
(0.000638904 -0.00108822 0)
(0.000718992 -0.00106588 0)
(0.000798624 -0.00104215 0)
(0.000877213 -0.00101671 0)
(0.000954396 -0.000989627 0)
(0.00102991 -0.000961036 0)
(0.00110357 -0.000931105 0)
(0.00117522 -0.000900008 0)
(0.00124472 -0.000867914 0)
(0.00131196 -0.000834986 0)
(0.00137686 -0.000801375 0)
(0.00143934 -0.000767222 0)
(0.00149933 -0.000732653 0)
(0.00161165 -0.000662708 0)
(0.0016639 -0.000627508 0)
(0.0017135 -0.000592245 0)
(0.00176044 -0.000556966 0)
(0.00180469 -0.000521706 0)
(0.00184623 -0.000486489 0)
(0.00188505 -0.000451329 0)
(0.00192111 -0.000416238 0)
(0.00195439 -0.000381219 0)
(0.00198488 -0.000346275 0)
(0.00201255 -0.000311404 0)
(0.00203738 -0.000276605 0)
(0.00205935 -0.000241873 0)
(0.00207845 -0.000207207 0)
(0.00209467 -0.000172601 0)
(0.00210801 -0.000138055 0)
(0.00211847 -0.000103567 0)
(0.00212611 -6.91349e-05 0)
(0.00213107 -3.47305e-05 0)
(0.00214204 0 0)
(0.0021489 0 0)
(0.00215487 0 0)
(0.00216005 0 0)
(0.00216458 0 0)
(0.00216857 0 0)
(0.0021721 0 0)
(0.00217527 0 0)
(0.00217814 0 0)
(0.0021808 0 0)
(0.00218329 0 0)
(0.00218566 0 0)
(0.00218795 0 0)
(0.00219021 0 0)
(0.00219245 0 0)
(0.00219471 0 0)
(0.00219701 0 0)
(0.00219936 0 0)
(0.00220179 0 0)
(0.00220191 -8.14759e-06 0)
(0.00219373 -1.64598e-05 0)
(0.00218001 -2.53121e-05 0)
(0.00216086 -3.50122e-05 0)
(0.00213642 -4.58455e-05 0)
(0.00210685 -5.80816e-05 0)
(0.00207232 -7.19744e-05 0)
(0.00203306 -8.776e-05 0)
(0.00198928 -0.000105656 0)
(0.00194126 -0.000125856 0)
(0.00188926 -0.000148533 0)
(0.0018336 -0.000173831 0)
(0.00177457 -0.000201863 0)
(0.00171252 -0.000232712 0)
(0.0016478 -0.000266419 0)
(0.00158075 -0.000302986 0)
(0.00151175 -0.000342361 0)
(0.0014412 -0.000384429 0)
(0.00136948 -0.000428986 0)
(0.00221164 0 0)
(0.00221946 0 0)
(0.00222801 0 0)
(0.0022374 0 0)
(0.00224769 0 0)
(0.00225891 0 0)
(0.00227106 0 0)
(0.00228414 0 0)
(0.00229814 0 0)
(0.00231304 0 0)
(0.00232881 0 0)
(0.00234543 0 0)
(0.00236288 0 0)
(0.00238113 0 0)
(0.00240016 0 0)
(0.00241995 0 0)
(0.00244045 0 0)
(0.00246166 0 0)
(0.00248353 0 0)
(0.00250606 0 0)
(0.0025292 0 0)
(0.00255294 0 0)
(0.00257723 0 0)
(0.00260207 0 0)
(0.00262741 0 0)
(0.00265323 0 0)
(0.00267949 0 0)
(0.00270617 0 0)
(0.00273322 0 0)
(0.00276061 0 0)
(0.0027883 0 0)
(0.00281625 0 0)
(0.00284442 0 0)
(0.00287274 0 0)
(0.00290118 0 0)
(0.00292967 0 0)
(0.00295816 0 0)
(0.00298656 0 0)
(0.00301484 0 0)
(0.00304233 -2.13161e-06 0)
(0.00304125 -4.35233e-06 0)
(0.00303958 -6.65531e-06 0)
(0.00303729 -9.06894e-06 0)
(0.00303439 -1.16275e-05 0)
(0.00303089 -1.4366e-05 0)
(0.00302681 -1.73184e-05 0)
(0.00302217 -2.05172e-05 0)
(0.00301699 -2.39934e-05 0)
(0.0030113 -2.7776e-05 0)
(0.00300515 -3.18916e-05 0)
(0.00299855 -3.63651e-05 0)
(0.00299156 -4.12184e-05 0)
(0.0029842 -4.6471e-05 0)
(0.00297653 -5.21399e-05 0)
(0.00296858 -5.82387e-05 0)
(0.0029604 -6.47785e-05 0)
(0.00295204 -7.17671e-05 0)
(0.00294354 -7.92088e-05 0)
(0.00289889 -9.79197e-05 0)
(0.00286276 -0.000106968 0)
(0.00282654 -0.000114457 0)
(0.00279022 -0.000120572 0)
(0.00275381 -0.000125477 0)
(0.00271728 -0.000129309 0)
(0.00268066 -0.000132193 0)
(0.00264394 -0.00013424 0)
(0.00260712 -0.000135553 0)
(0.00257023 -0.000136228 0)
(0.00253326 -0.000136358 0)
(0.00249621 -0.000136034 0)
(0.0024591 -0.000135348 0)
(0.00242193 -0.000134391 0)
(0.00238469 -0.000133259 0)
(0.00234737 -0.000132048 0)
(0.00230997 -0.00013086 0)
(0.00227248 -0.000129803 0)
(0.00223486 -0.00012899 0)
(0.00219709 -0.000128541 0)
(0.00215913 -0.000128584 0)
(0.00212095 -0.000129254 0)
(0.0020825 -0.0001307 0)
(0.0020437 -0.000133077 0)
(0.00200449 -0.000136556 0)
(0.0019648 -0.000141317 0)
(0.00192453 -0.000147557 0)
(0.00188358 -0.000155487 0)
(0.00184184 -0.000165334 0)
(0.0017992 -0.000177343 0)
(0.00175553 -0.000191772 0)
(0.0017107 -0.000208899 0)
(0.00166459 -0.000229012 0)
(0.00161706 -0.000252412 0)
(0.00156802 -0.000279399 0)
(0.00151735 -0.000310261 0)
(0.00146499 -0.000345253 0)
(0.00141087 -0.000384553 0)
(0.00135497 -0.000428177 0)
(0.00293115 -9.07264e-05 0)
(0.00292736 -9.44398e-05 0)
(0.00292355 -9.82393e-05 0)
(0.00291975 -0.000102124 0)
(0.00291595 -0.000106094 0)
(0.00291216 -0.000110147 0)
(0.00290839 -0.000114283 0)
(0.00290463 -0.000118499 0)
(0.0029009 -0.000122795 0)
(0.00289719 -0.000127168 0)
(0.00289352 -0.000131616 0)
(0.00288987 -0.000136138 0)
(0.00288627 -0.000140731 0)
(0.0028827 -0.000145392 0)
(0.00287917 -0.000150119 0)
(0.00287569 -0.000154909 0)
(0.00287226 -0.00015976 0)
(0.00286888 -0.000164668 0)
(0.00286555 -0.000169629 0)
(0.00286228 -0.000174641 0)
(0.00285905 -0.0001797 0)
(0.00285589 -0.000184802 0)
(0.00285278 -0.000189944 0)
(0.00284974 -0.000195121 0)
(0.00284675 -0.00020033 0)
(0.00284381 -0.000205566 0)
(0.00284094 -0.000210825 0)
(0.00283811 -0.000216103 0)
(0.00283535 -0.000221395 0)
(0.00283263 -0.000226698 0)
(0.00282996 -0.000232007 0)
(0.00282734 -0.000237318 0)
(0.00282475 -0.000242628 0)
(0.0028222 -0.000247932 0)
(0.00281967 -0.000253228 0)
(0.00281716 -0.000258514 0)
(0.00281467 -0.000263788 0)
(0.00281218 -0.000269049 0)
(0.00280968 -0.000274299 0)
(0.00276892 -0.000287435 0)
(0.00273078 -0.000295219 0)
(0.0026927 -0.000302692 0)
(0.0026546 -0.000309705 0)
(0.00261633 -0.000316168 0)
(0.00257778 -0.00032204 0)
(0.00253881 -0.000327318 0)
(0.00249932 -0.000332027 0)
(0.00245919 -0.000336213 0)
(0.00241832 -0.000339937 0)
(0.00237663 -0.000343276 0)
(0.00233401 -0.000346317 0)
(0.0022904 -0.000349157 0)
(0.00224572 -0.000351902 0)
(0.0021999 -0.000354664 0)
(0.00215286 -0.000357567 0)
(0.00210455 -0.000360739 0)
(0.00205491 -0.000364317 0)
(0.00200388 -0.000368448 0)
(0.00195141 -0.000373285 0)
(0.00189747 -0.000378989 0)
(0.00184202 -0.000385731 0)
(0.00178504 -0.000393688 0)
(0.0017265 -0.000403046 0)
(0.0016664 -0.000413996 0)
(0.00160477 -0.000426735 0)
(0.00154162 -0.000441465 0)
(0.001477 -0.000458387 0)
(0.00141099 -0.000477703 0)
(0.00134368 -0.000499609 0)
(0.0012752 -0.000524289 0)
(0.0012057 -0.000551915 0)
(0.00113537 -0.000582635 0)
(0.00106443 -0.000616566 0)
(0.000993151 -0.000653788 0)
(0.000921826 -0.000694332 0)
(0.000850793 -0.000738169 0)
(0.000780425 -0.000785201 0)
(0.000711129 -0.00083525 0)
(0.000660299 -0.000878942 0)
(0.000676804 -0.000869885 0)
(0.000692918 -0.000860883 0)
(0.000708668 -0.000851912 0)
(0.000724089 -0.000842953 0)
(0.000739212 -0.000833988 0)
(0.000754072 -0.000825 0)
(0.000768702 -0.000815975 0)
(0.000783136 -0.000806898 0)
(0.000797408 -0.000797759 0)
(0.00081155 -0.000788546 0)
(0.000825595 -0.000779249 0)
(0.000839575 -0.000769861 0)
(0.000853523 -0.000760372 0)
(0.000867469 -0.000750778 0)
(0.000881445 -0.000741072 0)
(0.000895482 -0.000731251 0)
(0.00090961 -0.00072131 0)
(0.000923859 -0.000711248 0)
(0.000938258 -0.000701061 0)
(0.000952837 -0.000690751 0)
(0.000967623 -0.000680316 0)
(0.000982644 -0.000669758 0)
(0.000997929 -0.000659079 0)
(0.0010135 -0.000648281 0)
(0.00102939 -0.000637368 0)
(0.00104562 -0.000626344 0)
(0.00106221 -0.000615214 0)
(0.00107919 -0.000603984 0)
(0.00109658 -0.000592659 0)
(0.0011144 -0.000581247 0)
(0.00113267 -0.000569755 0)
(0.00115142 -0.000558189 0)
(0.00117065 -0.000546557 0)
(0.00119038 -0.000534864 0)
(0.00121063 -0.000523118 0)
(0.00123141 -0.000511322 0)
(0.00125274 -0.000499479 0)
(0.00127462 -0.000487594 0)
(0.000595532 -0.000927511 0)
(0.000548889 -0.000968034 0)
(0.000503591 -0.00100937 0)
(0.000459783 -0.00105125 0)
(0.0004176 -0.00109338 0)
(0.000377167 -0.00113546 0)
(0.000338588 -0.00117714 0)
(0.000301947 -0.00121806 0)
(0.000267301 -0.00125782 0)
(0.000234679 -0.00129602 0)
(0.000204073 -0.00133226 0)
(0.000175442 -0.0013661 0)
(0.000148707 -0.00139716 0)
(0.000123747 -0.00142502 0)
(0.000100404 -0.00144933 0)
(7.84802e-05 -0.00146973 0)
(5.77419e-05 -0.00148596 0)
(3.79238e-05 -0.00149778 0)
(1.87419e-05 -0.00150506 0)
(0 -0.00150586 0)
(0 -0.00150371 0)
(0 -0.00150148 0)
(0 -0.00149916 0)
(0 -0.00149677 0)
(0 -0.0014943 0)
(0 -0.00149176 0)
(0 -0.00148916 0)
(0 -0.0014865 0)
(0 -0.00148379 0)
(0 -0.00148103 0)
(0 -0.00147822 0)
(0 -0.00147537 0)
(0 -0.00147248 0)
(0 -0.00146955 0)
(0 -0.00146659 0)
(0 -0.0014636 0)
(0 -0.00146059 0)
(0 -0.00145755 0)
(0 -0.00145449 0)
(0 -0.0014514 0)
(0 -0.00144831 0)
(0 -0.00144519 0)
(0 -0.00144206 0)
(0 -0.00143892 0)
(0 -0.00143577 0)
(0 -0.00143261 0)
(0 -0.00142943 0)
(0 -0.00142625 0)
(0 -0.00142307 0)
(0 -0.00141987 0)
(0 -0.00141667 0)
(0 -0.00141346 0)
(0 -0.00141025 0)
(0 -0.00140702 0)
(0 -0.00140379 0)
(0 -0.00140056 0)
(0 -0.00139731 0)
(0 -0.00139405 0)
(9.56281e-05 -0.00117378 0)
(9.09931e-05 -0.00120182 0)
(8.56694e-05 -0.00122479 0)
(7.95623e-05 -0.00124267 0)
(7.4727e-05 -0.00125771 0)
(7.10259e-05 -0.00127104 0)
(6.80522e-05 -0.00128299 0)
(6.55942e-05 -0.00129385 0)
(6.35243e-05 -0.00130382 0)
(6.17581e-05 -0.00131308 0)
(6.02359e-05 -0.00132176 0)
(5.89134e-05 -0.00132997 0)
(5.77559e-05 -0.00133779 0)
(5.67357e-05 -0.0013453 0)
(5.58298e-05 -0.00135256 0)
(5.50183e-05 -0.00135962 0)
(5.42836e-05 -0.00136651 0)
(5.36092e-05 -0.00137328 0)
(5.29772e-05 -0.00137995 0)
(0.000188303 -0.00117243 0)
(0.000178703 -0.00119773 0)
(0.000168175 -0.00121794 0)
(0.00015747 -0.00123395 0)
(0.000148941 -0.00124827 0)
(0.000142027 -0.00126116 0)
(0.00013631 -0.00127284 0)
(0.000131507 -0.0012835 0)
(0.000127424 -0.00129332 0)
(0.000123919 -0.00130245 0)
(0.000120887 -0.001311 0)
(0.000118246 -0.00131908 0)
(0.000115931 -0.00132678 0)
(0.000113889 -0.00133416 0)
(0.000112073 -0.00134128 0)
(0.000110446 -0.00134819 0)
(0.000108973 -0.00135493 0)
(0.000107622 -0.00136153 0)
(0.000106365 -0.00136802 0)
(0.00027798 -0.00116662 0)
(0.00026334 -0.00118868 0)
(0.000247933 -0.0012058 0)
(0.000234082 -0.00122042 0)
(0.000222578 -0.00123376 0)
(0.000212938 -0.00124592 0)
(0.000204786 -0.00125704 0)
(0.000197833 -0.00126726 0)
(0.000191859 -0.00127671 0)
(0.000186693 -0.00128551 0)
(0.000182202 -0.00129377 0)
(0.000178276 -0.00130158 0)
(0.000174826 -0.001309 0)
(0.000171778 -0.00131612 0)
(0.000169066 -0.00132297 0)
(0.000166636 -0.00132961 0)
(0.000164439 -0.00133607 0)
(0.000162429 -0.0013424 0)
(0.000160567 -0.0013486 0)
(0.000364662 -0.00115628 0)
(0.000345284 -0.00117468 0)
(0.000326108 -0.00118904 0)
(0.000309754 -0.00120231 0)
(0.000295789 -0.00121452 0)
(0.000283825 -0.00122575 0)
(0.000273535 -0.00123609 0)
(0.000264646 -0.00124565 0)
(0.000256936 -0.00125452 0)
(0.000250222 -0.0012628 0)
(0.000244354 -0.00127059 0)
(0.000239204 -0.00127795 0)
(0.000234667 -0.00128495 0)
(0.000230651 -0.00129166 0)
(0.000227076 -0.00129811 0)
(0.000223873 -0.00130435 0)
(0.000220979 -0.00131041 0)
(0.000218339 -0.00131633 0)
(0.000215901 -0.00132213 0)
(0.000448332 -0.00114143 0)
(0.000424503 -0.00115565 0)
(0.000403274 -0.00116839 0)
(0.000384799 -0.0011802 0)
(0.000368739 -0.00119112 0)
(0.000354772 -0.00120121 0)
(0.000342608 -0.00121056 0)
(0.000331996 -0.00121923 0)
(0.000322719 -0.00122732 0)
(0.000314591 -0.00123489 0)
(0.000307452 -0.00124202 0)
(0.000301165 -0.00124877 0)
(0.000295611 -0.00125519 0)
(0.000290686 -0.00126134 0)
(0.000286299 -0.00126725 0)
(0.000282369 -0.00127296 0)
(0.000278823 -0.00127851 0)
(0.000275594 -0.0012839 0)
(0.000272624 -0.00128918 0)
(0.000528997 -0.00112172 0)
(0.000502807 -0.00113347 0)
(0.00047973 -0.00114443 0)
(0.000459406 -0.00115462 0)
(0.000441533 -0.00116406 0)
(0.000425828 -0.00117282 0)
(0.000412029 -0.00118097 0)
(0.000399902 -0.00118856 0)
(0.000389234 -0.00119567 0)
(0.000379839 -0.00120235 0)
(0.000371554 -0.00120865 0)
(0.000364235 -0.00121462 0)
(0.000357753 -0.00122032 0)
(0.000351998 -0.00122577 0)
(0.000346868 -0.00123101 0)
(0.000342273 -0.00123607 0)
(0.000338133 -0.00124098 0)
(0.000334373 -0.00124574 0)
(0.000330925 -0.00125039 0)
(0.00060807 -0.00109882 0)
(0.00058035 -0.0011086 0)
(0.000555631 -0.00111764 0)
(0.000533676 -0.00112602 0)
(0.000514223 -0.0011338 0)
(0.000497014 -0.00114104 0)
(0.000481802 -0.00114781 0)
(0.000468359 -0.00115414 0)
(0.000456479 -0.0011601 0)
(0.000445975 -0.00116571 0)
(0.000436682 -0.00117104 0)
(0.00042845 -0.0011761 0)
(0.000421147 -0.00118094 0)
(0.000414653 -0.00118557 0)
(0.000408863 -0.00119003 0)
(0.000403679 -0.00119434 0)
(0.000399015 -0.00119851 0)
(0.00039479 -0.00120255 0)
(0.000390932 -0.00120648 0)
(0.000686508 -0.00107412 0)
(0.000657224 -0.00108157 0)
(0.000631007 -0.00108842 0)
(0.000607622 -0.00109478 0)
(0.000586812 -0.00110071 0)
(0.000568322 -0.00110626 0)
(0.000551911 -0.00111149 0)
(0.000537352 -0.00111642 0)
(0.000524441 -0.00112109 0)
(0.000512991 -0.00112552 0)
(0.000502834 -0.00112974 0)
(0.000493818 -0.00113378 0)
(0.000485807 -0.00113765 0)
(0.000478678 -0.00114137 0)
(0.00047232 -0.00114496 0)
(0.000466633 -0.00114842 0)
(0.000461524 -0.00115178 0)
(0.000456909 -0.00115503 0)
(0.000452711 -0.00115819 0)
(0.000764271 -0.00104754 0)
(0.000733462 -0.00105241 0)
(0.000705894 -0.00105689 0)
(0.000681273 -0.00106109 0)
(0.000659318 -0.00106505 0)
(0.00063976 -0.0010688 0)
(0.000622354 -0.00107239 0)
(0.000606872 -0.00107581 0)
(0.000593107 -0.00107909 0)
(0.000580872 -0.00108225 0)
(0.000569997 -0.00108528 0)
(0.000560329 -0.00108821 0)
(0.000551729 -0.00109104 0)
(0.000544071 -0.00109378 0)
(0.000537243 -0.00109644 0)
(0.00053114 -0.00109901 0)
(0.000525669 -0.0011015 0)
(0.000520743 -0.00110392 0)
(0.000516282 -0.00110626 0)
(0.000841207 -0.00101904 0)
(0.000809049 -0.00102118 0)
(0.00078032 -0.0010232 0)
(0.000754665 -0.00102516 0)
(0.000731768 -0.00102708 0)
(0.000711344 -0.00102898 0)
(0.000693136 -0.00103086 0)
(0.000676912 -0.00103272 0)
(0.000662463 -0.00103456 0)
(0.000649598 -0.00103639 0)
(0.000638148 -0.00103819 0)
(0.000627956 -0.00103996 0)
(0.000618884 -0.00104171 0)
(0.000610805 -0.00104342 0)
(0.000603603 -0.00104511 0)
(0.000597175 -0.00104675 0)
(0.000591425 -0.00104835 0)
(0.000586264 -0.00104991 0)
(0.000581614 -0.00105142 0)
(0.000917119 -0.000988781 0)
(0.000883896 -0.000988104 0)
(0.000854251 -0.000987607 0)
(0.000827786 -0.000987289 0)
(0.000804157 -0.000987142 0)
(0.000783065 -0.000987153 0)
(0.000764242 -0.000987304 0)
(0.00074745 -0.000987578 0)
(0.000732477 -0.000987959 0)
(0.000719132 -0.000988428 0)
(0.000707242 -0.000988971 0)
(0.000696651 -0.000989572 0)
(0.000687221 -0.000990218 0)
(0.000678823 -0.000990896 0)
(0.000671343 -0.000991595 0)
(0.000664676 -0.000992304 0)
(0.000658727 -0.000993014 0)
(0.000653407 -0.000993715 0)
(0.000648637 -0.000994398 0)
(0.00099181 -0.000956979 0)
(0.000957869 -0.000953459 0)
(0.000927594 -0.000950421 0)
(0.000900567 -0.000947814 0)
(0.00087643 -0.000945594 0)
(0.000854872 -0.000943717 0)
(0.000835619 -0.000942142 0)
(0.000818431 -0.000940832 0)
(0.000803091 -0.000939753 0)
(0.000789407 -0.000938871 0)
(0.000777208 -0.00093816 0)
(0.000766339 -0.000937591 0)
(0.000756659 -0.000937142 0)
(0.000748042 -0.000936791 0)
(0.000740374 -0.000936518 0)
(0.00073355 -0.000936305 0)
(0.000727477 -0.000936137 0)
(0.000722067 -0.000935999 0)
(0.000717242 -0.000935878 0)
(0.0010651 -0.00092387 0)
(0.00103081 -0.00091753 0)
(0.00100022 -0.000911971 0)
(0.000972898 -0.000907098 0)
(0.000948487 -0.000902827 0)
(0.000926671 -0.000899085 0)
(0.000907176 -0.000895808 0)
(0.000889759 -0.000892937 0)
(0.000874206 -0.00089042 0)
(0.000860325 -0.000888212 0)
(0.000847944 -0.000886269 0)
(0.00083691 -0.000884555 0)
(0.000827085 -0.000883036 0)
(0.000818343 -0.000881681 0)
(0.000810572 -0.000880464 0)
(0.00080367 -0.000879359 0)
(0.000797543 -0.000878346 0)
(0.000792107 -0.000877404 0)
(0.000787284 -0.000876516 0)
(0.00113682 -0.000889686 0)
(0.00110256 -0.000880597 0)
(0.00107197 -0.000872579 0)
(0.00104463 -0.000865493 0)
(0.00102019 -0.000859221 0)
(0.000998328 -0.000853662 0)
(0.00097878 -0.000848728 0)
(0.000961304 -0.000844339 0)
(0.000945689 -0.000840428 0)
(0.000931747 -0.000836933 0)
(0.000919308 -0.0008338 0)
(0.000908222 -0.00083098 0)
(0.000898352 -0.000828431 0)
(0.000889576 -0.000826114 0)
(0.000881784 -0.000823993 0)
(0.000874875 -0.00082204 0)
(0.000868759 -0.000820225 0)
(0.000863355 -0.000818526 0)
(0.000858586 -0.00081692 0)
(0.00120682 -0.000854646 0)
(0.00117297 -0.000842926 0)
(0.00114269 -0.000832548 0)
(0.00111561 -0.000823335 0)
(0.00109137 -0.000815141 0)
(0.00106968 -0.000807836 0)
(0.00105026 -0.000801309 0)
(0.0010329 -0.000795465 0)
(0.00101737 -0.000790218 0)
(0.0010035 -0.000785493 0)
(0.000991127 -0.000781224 0)
(0.000980097 -0.000777352 0)
(0.00097028 -0.000773826 0)
(0.000961557 -0.000770599 0)
(0.000953821 -0.000767629 0)
(0.000946975 -0.00076488 0)
(0.00094093 -0.000762318 0)
(0.000935609 -0.000759916 0)
(0.000930939 -0.000757648 0)
(0.00127497 -0.000818957 0)
(0.00124186 -0.000804762 0)
(0.00121221 -0.000792157 0)
(0.00118565 -0.000780936 0)
(0.00116185 -0.000770922 0)
(0.00114053 -0.000761965 0)
(0.00112144 -0.000753932 0)
(0.00110434 -0.000746711 0)
(0.00108905 -0.000740202 0)
(0.00107539 -0.000734317 0)
(0.00106319 -0.000728979 0)
(0.00105233 -0.000724121 0)
(0.00104266 -0.000719681 0)
(0.00103407 -0.000715606 0)
(0.00102647 -0.000711847 0)
(0.00101975 -0.000708363 0)