/*--------------------------------*- C++ -*----------------------------------*\
| =========                 |                                                 |
| \\      /  F ield         | OpenFOAM: The Open Source CFD Toolbox           |
|  \\    /   O peration     | Version:  v2012                                 |
|   \\  /    A nd           | Website:  www.openfoam.com                      |
|    \\/     M anipulation  |                                                 |
\*---------------------------------------------------------------------------*/
FoamFile
{
    version     2.0;
    format      ascii;
    class       volScalarField;
    location    "3";
    object      epsilonEq;
}
// * * * * * * * * * * * * * * * * * * * * * * * * * * * * * * * * * * * * * //

dimensions      [0 0 0 0 0 0 0];


internalField   nonuniform List<scalar> 
8000
(
0.00182375
0.00180202
0.00168142
0.00167297
0.00154674
0.00154535
0.0014292
0.00143218
0.00132949
0.00133452
0.00124387
0.00124984
0.00116932
0.00117588
0.00110398
0.00111101
0.00104654
0.00105394
0.00099591
0.00100357
0.000951131
0.000958965
0.000911377
0.000919312
0.000875938
0.000883923
0.000844194
0.000852199
0.000815586
0.000823614
0.000789603
0.00079769
0.000765774
0.000773951
0.000743659
0.000751821
0.00072278
0.000730456
0.00070258
0.000707935
0.00182308
0.00179014
0.0016812
0.00165794
0.00154542
0.00153151
0.00142676
0.00142093
0.00132627
0.00132568
0.00124037
0.00124294
0.00116594
0.00117058
0.00110091
0.0011071
0.00104385
0.00105128
0.000993591
0.00100205
0.000949153
0.000958474
0.000909705
0.000919739
0.000874533
0.000885156
0.000843028
0.000854127
0.00081467
0.000826126
0.00078901
0.000800688
0.000765632
0.000777373
0.000744022
0.000755642
0.000723359
0.000734691
0.000702591
0.000712532
0.00180382
0.00176815
0.00166444
0.00163625
0.00153142
0.00151183
0.00141551
0.00140426
0.00131721
0.0013122
0.00123308
0.00123252
0.00116024
0.00116295
0.00109674
0.00110199
0.00104116
0.00104845
0.000992315
0.00100129
0.000949206
0.000959595
0.000910995
0.000922577
0.000876969
0.000889559
0.000846521
0.00085996
0.000819123
0.000833278
0.000794298
0.000809063
0.000771578
0.00078687
0.000750401
0.000766141
0.000730005
0.000746144
0.000709645
0.000725348
0.00177538
0.00173426
0.00163718
0.00160503
0.00150663
0.0014843
0.00139433
0.00138083
0.00129978
0.0012929
0.00121913
0.0012172
0.00114945
0.0011514
0.00108885
0.00109394
0.00103593
0.00104362
0.000989561
0.00099941
0.000948759
0.000960406
0.000912691
0.000925842
0.000880651
0.000895058
0.000852035
0.000867492
0.000826323
0.000842655
0.000803044
0.000820111
0.000781728
0.000799418
0.00076181
0.000780038
0.00074254
0.000761305
0.000723176
0.000741863
0.00173543
0.00168999
0.00160048
0.00156455
0.00147353
0.00144873
0.00136553
0.00135052
0.00127549
0.00126776
0.00119927
0.00119697
0.0011338
0.00113579
0.00107713
0.00108264
0.00102787
0.0010363
0.000984881
0.000995741
0.000947194
0.000960067
0.000913991
0.000928525
0.000884577
0.000900475
0.000858357
0.00087537
0.000834818
0.00085274
0.000813495
0.000832165
0.00079393
0.000813228
0.000775583
0.000795435
0.000757754
0.000778195
0.000739796
0.000760271
0.00168485
0.00163601
0.0015546
0.00151559
0.00143271
0.0014058
0.00133016
0.00131385
0.00124553
0.00123718
0.00117456
0.00117216
0.00111409
0.00111637
0.00106212
0.00106823
0.00101724
0.00102649
0.000978304
0.000990136
0.000944334
0.00095828
0.000914524
0.000930185
0.000888191
0.000905231
0.000864757
0.000882896
0.000843725
0.000862734
0.000824651
0.000844353
0.0008071
0.000827369
0.000790568
0.000811338
0.000774422
0.00079575
0.000758078
0.000779479
0.00162467
0.0015731
0.0015003
0.00145882
0.00138471
0.00135611
0.00128872
0.00127136
0.00121047
0.00120161
0.00114556
0.00114311
0.0010908
0.00109339
0.00104417
0.00105083
0.00100425
0.0010142
0.000969859
0.000982477
0.000940044
0.000954799
0.000914003
0.000930452
0.000891071
0.000908844
0.00087069
0.000889483
0.00085239
0.000871956
0.000835755
0.000855906
0.000820383
0.000840989
0.00080582
0.00082682
0.000791499
0.00081296
0.000776897
0.000798387
0.00155582
0.00150213
0.00143837
0.00139499
0.00133017
0.00130032
0.00124171
0.00122359
0.00117069
0.00116149
0.00111259
0.00111015
0.00106418
0.00106704
0.00102345
0.00103053
0.000988927
0.000999395
0.000959468
0.000972614
0.000934118
0.00094936
0.000912094
0.000928953
0.000892759
0.000910837
0.000875586
0.00089456
0.000860137
0.000879748
0.000846031
0.000866086
0.000832909
0.000853278
0.000820371
0.000840996
0.000807921
0.000828873
0.000795101
0.000815984
0.0014793
0.00142409
0.00136965
0.00132493
0.00126979
0.00123911
0.0011897
0.00117112
0.00112665
0.00111728
0.00107598
0.0010736
0.00103446
0.00103754
0.00100004
0.00100743
0.000971274
0.00098205
0.00094701
0.000960412
0.000926319
0.000941725
0.000908453
0.000925352
0.000892808
0.000910786
0.000878898
0.000897622
0.000866328
0.000885535
0.00085476
0.000874256
0.000843883
0.000863541
0.000833356
0.00085312
0.000822757
0.000842693
0.000811698
0.000831434
0.00139614
0.00134
0.00129503
0.00124954
0.00120431
0.00117326
0.00113332
0.00111458
0.00107883
0.00106947
0.0010361
0.00103387
0.00100187
0.00100515
0.000974084
0.000981662
0.000951297
0.000962189
0.000932382
0.000945787
0.000916444
0.000931712
0.000902778
0.000919384
0.000890829
0.000908352
0.000880163
0.000898269
0.000870432
0.000888861
0.00086135
0.000879914
0.000852659
0.000871236
0.00084408
0.000862615
0.00083527
0.000853813
0.000825908
0.000844103
0.0013074
0.0012509
0.00121544
0.00116973
0.00113453
0.00110353
0.00107322
0.00105463
0.00102778
0.00101862
0.00099336
0.000991344
0.0009667
0.000970158
0.000945742
0.000953398
0.000929049
0.00093988
0.000915532
0.000928712
0.000904346
0.000919214
0.000894844
0.000910871
0.00088653
0.0009033
0.000879028
0.000896215
0.000872048
0.000889404
0.000865359
0.000882704
0.00085876
0.000875979
0.000852036
0.000869073
0.000844922
0.000861808
0.000837167
0.000853549
0.00121415
0.00115782
0.00113181
0.00108642
0.00106126
0.00103075
0.00101009
0.000991953
0.000974046
0.000965283
0.000948203
0.000946482
0.000929277
0.000932891
0.00091522
0.000922857
0.000904629
0.000915243
0.000896466
0.000909222
0.000889951
0.000904193
0.000884509
0.000899719
0.000879714
0.00089549
0.000875254
0.000891288
0.000870904
0.000886963
0.000866489
0.000882407
0.000861868
0.000877536
0.00085689
0.000872251
0.000851367
0.000866425
0.000845112
0.00085951
0.00111741
0.00106178
0.00104505
0.00100051
0.000985282
0.000955687
0.000944607
0.00092724
0.000918221
0.000910037
0.000901093
0.000899745
0.000889946
0.000893703
0.000882759
0.000890291
0.000878179
0.000888438
0.000875241
0.000887405
0.000873249
0.000886679
0.00087171
0.000885913
0.000870276
0.000884874
0.000868711
0.000883416
0.000866849
0.00088145
0.000864579
0.000878925
0.000861815
0.000875806
0.00085847
0.000872043
0.000854427
0.000867557
0.000849565
0.000861881
0.00101818
0.000963726
0.000956049
0.000912875
0.000907406
0.00087915
0.000877484
0.000861189
0.000860897
0.000853478
0.000852515
0.00085162
0.000849081
0.000852973
0.000848627
0.000855981
0.000849877
0.000859665
0.000851961
0.000863392
0.000854285
0.000866752
0.000856448
0.000869494
0.000858191
0.000871469
0.000859352
0.000872601
0.000859831
0.000872863
0.000859575
0.000872256
0.000858553
0.000870789
0.000856735
0.000868456
0.00085407
0.000865219
0.000850498
0.000860682
0.000917395
0.000864574
0.000865669
0.00082437
0.000828411
0.000801924
0.000809421
0.000794511
0.000802681
0.000796218
0.000802971
0.00080261
0.000807079
0.000811101
0.000813122
0.000820232
0.000819934
0.000829149
0.000826767
0.000837344
0.000833144
0.000844525
0.000838771
0.000850542
0.000843481
0.000855334
0.000847189
0.000858896
0.000849861
0.000861256
0.000851497
0.00086246
0.000852115
0.000862558
0.000851735
0.000861577
0.000850364
0.000859509
0.000847997
0.000856021
0.000815934
0.000765175
0.000774722
0.00073582
0.000749071
0.000724801
0.000741132
0.000727931
0.000744202
0.000738891
0.000752985
0.000753243
0.000764356
0.000768509
0.000776563
0.000783374
0.000788586
0.000797137
0.000799824
0.00080944
0.000809936
0.000820122
0.000818746
0.000829145
0.000826187
0.000836534
0.00083225
0.000842356
0.000836967
0.00084669
0.000840388
0.000849623
0.00084257
0.000851227
0.000843573
0.000851548
0.000843444
0.000850591
0.000842228
0.000848077
0.000714596
0.00066632
0.000683987
0.000648035
0.000670159
0.000648593
0.000673352
0.000662208
0.000686116
0.000682162
0.000703112
0.00070408
0.000721365
0.000725656
0.000739304
0.000745768
0.000756098
0.000763903
0.000771321
0.00077987
0.000784785
0.000793657
0.000796443
0.000805344
0.000806329
0.000815053
0.000814517
0.000822922
0.000821104
0.000829084
0.000826191
0.000833665
0.000829881
0.000836767
0.000832265
0.000838445
0.0008334
0.000838678
0.00083331
0.000837178
0.000614104
0.000568746
0.00059421
0.000561841
0.000592476
0.000574164
0.000606864
0.000598157
0.000629125
0.000626748
0.000653951
0.000655729
0.000678601
0.000683056
0.000701754
0.000707848
0.0007228
0.000729799
0.000741508
0.000748897
0.000757855
0.000765279
0.000771936
0.000779156
0.000783905
0.000790762
0.000793926
0.000800317
0.00080215
0.000807998
0.000808704
0.000813936
0.000813713
0.000818236
0.00081733
0.000821018
0.000819717
0.00082241
0.000820862
0.000822257
0.000515095
0.000473144
0.000506135
0.00047813
0.000516885
0.000502487
0.000542527
0.000536683
0.000573992
0.00057343
0.00060615
0.00060886
0.000636619
0.000641299
0.0006644
0.000670162
0.000689136
0.000695368
0.00071079
0.000717064
0.00072949
0.000735505
0.000745457
0.000750999
0.000758969
0.000763887
0.000770334
0.000774525
0.000779853
0.000783237
0.000787758
0.00079023
0.000794129
0.000795475
0.000798892
0.000798635
0.000802041
0.000799125
0.000804304
0.000796167
0.000418117
0.000380205
0.000420558
0.000397973
0.000444398
0.000434724
0.00048132
0.000478809
0.000521552
0.000523049
0.000560401
0.000564175
0.000596013
0.000601012
0.000627786
0.000633328
0.000655651
0.000661287
0.000679772
0.000685202
0.000700408
0.000705431
0.000717849
0.000722325
0.000732399
0.000736216
0.00074438
0.000747448
0.000754179
0.000756441
0.000762314
0.000763777
0.000769486
0.000770257
0.000776532
0.000776804
0.000784114
0.000783959
0.00079151
0.000790965
0.00032363
0.000290762
0.000338457
0.00032287
0.000376294
0.000372355
0.000424382
0.000425679
0.000472696
0.00047644
0.000517403
0.000522302
0.000557365
0.000562708
0.000592452
0.000597807
0.000622897
0.000628006
0.000649065
0.000653791
0.000671358
0.000675651
0.00069017
0.00069405
0.000705865
0.000709417
0.000718751
0.000722126
0.000729059
0.000732503
0.000736933
0.000740912
0.00074249
0.000747996
0.000746049
0.000755025
0.000748553
0.000763528
0.000751828
0.000771107
0.000232035
0.000206263
0.000261332
0.000255331
0.000314361
0.000317398
0.000373064
0.000378597
0.000428329
0.000434403
0.00047776
0.000483723
0.000521108
0.000526659
0.000558741
0.000563719
0.000591189
0.000595515
0.000619005
0.000622658
0.000642713
0.000645712
0.000662797
0.000665183
0.0006797
0.000681522
0.000693829
0.000695129
0.000705555
0.000706365
0.000715195
0.000715595
0.000722958
0.000723303
0.000728864
0.000730146
0.00073261
0.000736613
0.000733387
0.000744476
0.000143787
0.000130748
0.000192191
0.000200115
0.000261308
0.000272674
0.000328997
0.000339076
0.000389363
0.000397754
0.000441964
0.00044887
0.000487464
0.000493057
0.000526671
0.000531069
0.00056035
0.000563643
0.000589188
0.000591457
0.000613789
0.000615108
0.000634683
0.000635119
0.000652321
0.000651937
0.000667082
0.000665954
0.000679269
0.000677536
0.000689102
0.000687098
0.000696701
0.000695149
0.000702075
0.000702169
0.000705161
0.000708436
0.000705903
0.000716884
6.02359e-05
8.11233e-05
0.000138463
0.000165791
0.000221246
0.000241768
0.000294119
0.000308772
0.000356745
0.000367348
0.000410484
0.000418223
0.000456633
0.00046219
0.000496258
0.00050004
0.000530236
0.000532517
0.000559308
0.000560289
0.000584101
0.000583944
0.000605151
0.000603994
0.000622916
0.000620885
0.000637781
0.000635013
0.000650063
0.000646756
0.00065999
0.000656515
0.000667677
0.000664749
0.000673108
0.000671996
0.000676215
0.00067886
0.000676936
0.000688119
3.10029e-05
9.62372e-05
0.000116497
0.00016153
0.000199254
0.000227877
0.000270415
0.00028913
0.000331418
0.000343965
0.000383836
0.000392269
0.000428944
0.000434404
0.000467752
0.000470919
0.000501089
0.000502409
0.000529658
0.000529448
0.000554062
0.000552564
0.000574817
0.000572226
0.000592367
0.000588856
0.000607091
0.000602837
0.000619297
0.000614538
0.00062921
0.00062435
0.00063694
0.000632735
0.00064247
0.000640287
0.000645685
0.000647657
0.000646335
0.000657431
0.000104021
0.000152642
0.000136428
0.000185352
0.000198332
0.000231497
0.000259184
0.000280772
0.000314085
0.000328098
0.000362482
0.000371396
0.000404756
0.000410028
0.000441481
0.000444008
0.000473245
0.000473619
0.000500608
0.000499248
0.00052408
0.000521299
0.000544118
0.000540164
0.000561125
0.000556211
0.00057545
0.000569789
0.000587381
0.000581242
0.000597125
0.000590953
0.000604782
0.000599397
0.000610321
0.000607195
0.000613565
0.00061496
0.000614114
0.000624989
0.000176841
0.000216341
0.000180839
0.000225212
0.000215834
0.000249405
0.000260165
0.000283007
0.00030492
0.00031975
0.000346668
0.000355795
0.000384324
0.000389306
0.0004177
0.000419565
0.000446963
0.000446413
0.000472421
0.000469958
0.000494424
0.000490424
0.000513325
0.000508085
0.000529457
0.000523227
0.000543119
0.000536142
0.000554561
0.000547141
0.000563965
0.000556587
0.000571416
0.000564963
0.000576871
0.000572896
0.000580091
0.000580966
0.000580528
0.000591083
0.000245669
0.000279056
0.000232844
0.000271322
0.000245253
0.000276596
0.000271363
0.00029392
0.000303392
0.000318333
0.000336344
0.000345393
0.000367762
0.000372357
0.000396584
0.000397784
0.000422443
0.000421013
0.000445305
0.00044181
0.000465307
0.000460175
0.000482654
0.000476223
0.00049758
0.000490134
0.000510312
0.000502125
0.00052105
0.000512457
0.000529943
0.000521466
0.000537056
0.000529633
0.000542332
0.000537586
0.000545476
0.000545861
0.00054578
0.000555908
0.000310017
0.000338579
0.000285539
0.000318574
0.000280579
0.000308616
0.000289832
0.000311008
0.000308328
0.000322746
0.000331127
0.000339819
0.000355021
0.000359149
0.000378227
0.000378782
0.000399836
0.000397598
0.000419442
0.00041501
0.000436919
0.000430762
0.000452298
0.000444789
0.000465686
0.000457139
0.000477221
0.000467938
0.000487038
0.000477381
0.000495244
0.000485772
0.000501881
0.000493579
0.000506879
0.000501429
0.000509886
0.0005098
0.000510025
0.000519613
0.000369659
0.000394068
0.000336253
0.000364467
0.000317847
0.000342334
0.00031266
0.000331843
0.000318169
0.00033159
0.000330333
0.000338437
0.000345879
0.000349487
0.000362629
0.00036259
0.00037925
0.000376305
0.000394983
0.00038974
0.000409434
0.000402386
0.000422436
0.000413984
0.000433954
0.000424438
0.00044402
0.000433768
0.000452695
0.000442094
0.000460031
0.000449674
0.000466048
0.000456962
0.000470662
0.000464579
0.000473465
0.000472927
0.0004734
0.000482336
0.000424445
0.00044511
0.000383793
0.000407704
0.000354703
0.000375732
0.000337489
0.000354425
0.000331286
0.000343418
0.000333074
0.000340428
0.000339952
0.000343021
0.000349696
0.000349142
0.000360742
0.000357224
0.000372059
0.000366165
0.000383015
0.000375243
0.000393245
0.000384015
0.000402562
0.000392238
0.000410884
0.000399815
0.000418186
0.000406784
0.000424463
0.000413352
0.000429708
0.000419953
0.000433828
0.000427195
0.00043636
0.000435397
0.000436053
0.000444222
0.000474263
0.000491468
0.00042754
0.000447553
0.000389755
0.000407526
0.000362593
0.000377235
0.000346201
0.000356906
0.000338373
0.000344893
0.000336726
0.000339279
0.000339238
0.000338286
0.000344316
0.000340403
0.000350784
0.000344444
0.000357827
0.000349547
0.000364912
0.000355116
0.000371704
0.000360774
0.000378004
0.000366309
0.000383698
0.000371673
0.00038872
0.000377017
0.000393036
0.000382754
0.000396548
0.000389475
0.00039874
0.000397399
0.000398157
0.000405452
0.000519032
0.000532992
0.000467134
0.000483571
0.000422145
0.000436885
0.00038675
0.000399167
0.000361681
0.000370937
0.000345271
0.000350948
0.00033561
0.000337714
0.000330986
0.00032979
0.000329933
0.000325845
0.000331258
0.000324732
0.000334051
0.000325537
0.000337655
0.000327569
0.000341613
0.000330342
0.000345616
0.000333546
0.000349462
0.000337048
0.000353026
0.000340946
0.000356249
0.000345631
0.000359037
0.000351675
0.000360827
0.000359184
0.00035994
0.000366263
0.000558687
0.00056958
0.000502347
0.000515469
0.000451321
0.000463252
0.000409098
0.000419422
0.000376742
0.000384616
0.000352896
0.000357789
0.00033599
0.000337753
0.000324617
0.000323363
0.000317516
0.000313514
0.000313581
0.000307186
0.000311897
0.000303496
0.000311747
0.000301727
0.00031259
0.000301331
0.000314032
0.000301923
0.000315789
0.000303304
0.000317686
0.000305521
0.000319646
0.000308953
0.000321592
0.000314156
0.00032292
0.000321102
0.000321714
0.000326984
0.000593183
0.000601163
0.00053302
0.00054306
0.00047689
0.000486241
0.000429003
0.000437412
0.000390613
0.000397229
0.0003605
0.000364716
0.000337283
0.000338846
0.000319789
0.000318692
0.000306969
0.000303359
0.000297864
0.000291983
0.000291627
0.000283777
0.000287547
0.000278059
0.000285049
0.000274275
0.000283686
0.000272006
0.000283119
0.000271009
0.000283134
0.000271305
0.000283656
0.000273268
0.000284641
0.000277446
0.000285457
0.000283661
0.000283932
0.000288095
0.000622492
0.000627732
0.000558999
0.000566218
0.000498528
0.00050554
0.000445977
0.000452676
0.000402728
0.000408243
0.000367524
0.000371204
0.000339029
0.000340575
0.000316225
0.000315557
0.000298246
0.000295406
0.000284287
0.000279403
0.000273608
0.000266875
0.000265557
0.000257225
0.000259579
0.00024994
0.000255215
0.000244618
0.000252109
0.000241014
0.000250033
0.000239146
0.000248938
0.000239409
0.000248843
0.000242354
0.000249105
0.000247641
0.000247281
0.000250336
0.000646599
0.000649473
0.000580085
0.00058476
0.000515945
0.000520866
0.000459764
0.00046499
0.00041286
0.000417506
0.000373731
0.000377138
0.000341021
0.000342879
0.000313832
0.000314009
0.000291437
0.000289884
0.00027316
0.00026989
0.000258367
0.000253462
0.00024649
0.000240097
0.000237031
0.000229364
0.000229564
0.000220917
0.000223755
0.00021455
0.000219406
0.000210316
0.000216535
0.000208653
0.000215262
0.000210123
0.000214948
0.000214211
0.000212866
0.000214808
0.000665517
0.000666613
0.00059616
0.000598463
0.000529104
0.000532228
0.000470545
0.000474736
0.000421165
0.000425431
0.000379144
0.000382781
0.00034321
0.00034588
0.000312589
0.000314113
0.000286648
0.000286911
0.000264786
0.000263726
0.000246452
0.000244064
0.000231152
0.000227489
0.000218452
0.000213636
0.000207981
0.000202229
0.000199452
0.000193134
0.000192742
0.000186487
0.000187999
0.000182803
0.000185516
0.000182626
0.000184675
0.000185166
0.000182416
0.0001831
0.000679248
0.000676945
0.000607243
0.000607728
0.000538302
0.000541041
0.000478336
0.000482811
0.000427188
0.000432052
0.000383035
0.000387562
0.000344774
0.000348672
0.000311702
0.000314843
0.000283203
0.000285517
0.000258704
0.000260152
0.000237693
0.00023826
0.000219727
0.000219421
0.000204426
0.000203287
0.000191472
0.0001896
0.000180632
0.000178263
0.000171854
0.000169476
0.000165409
0.000163866
0.000161749
0.000162022
0.000160287
0.00016295
0.000157845
0.00015878
0.00068674
0.000679892
0.000612669
0.000612193
0.00054224
0.000545077
0.000481072
0.000485388
0.000428548
0.000433144
0.000383029
0.000387523
0.000343435
0.000347753
0.000309009
0.000313116
0.000279108
0.000282956
0.000253159
0.0002567
0.000230664
0.000233857
0.0002112
0.000214011
0.000194414
0.00019682
0.000180033
0.00018204
0.000167899
0.000169584
0.000158089
0.000159652
0.000151052
0.000152756
0.000147268
0.00014907
0.00014553
0.000146833
0.000141537
0.000140205
0.000114313
0.000130703
0.000130198
0.000148559
0.000156817
0.000176007
0.000190357
0.000209783
0.000227704
0.000247035
0.000266894
0.000286016
0.000306859
0.000325689
0.000346983
0.000365389
0.000386867
0.000404679
0.000426234
0.000443259
0.000464883
0.00048092
0.000502661
0.000517511
0.000539442
0.000552915
0.000575106
0.00058703
0.000609521
0.00061976
0.000642527
0.000650997
0.000673895
0.00068052
0.000703295
0.00070779
0.000730239
0.000732557
0.000752127
0.000761202
0.000114049
0.000131237
0.000125591
0.000150075
0.000151197
0.000177704
0.00018359
0.000210597
0.0002197
0.000246526
0.000257723
0.000284029
0.000296562
0.000322154
0.000335545
0.000360277
0.000374252
0.00039798
0.000412403
0.000434976
0.000449801
0.000471065
0.000486304
0.000506101
0.000521801
0.000539975
0.000556195
0.000572591
0.000589394
0.000603854
0.000621301
0.000633672
0.000651811
0.000661972
0.000680694
0.000688543
0.000707531
0.00071344
0.000732757
0.000738336
0.000119799
0.000136505
0.000130428
0.00015444
0.000154277
0.000180566
0.000184458
0.000211589
0.000218201
0.000245529
0.000253968
0.000281076
0.000290729
0.000317322
0.000327784
0.000353645
0.000364669
0.000389624
0.000401078
0.000424969
0.000436803
0.000459474
0.000471693
0.000492992
0.000505636
0.000525407
0.000538537
0.000556625
0.000570299
0.000586574
0.000600819
0.00061524
0.00062998
0.000642636
0.000657645
0.000668708
0.000683903
0.000693227
0.000709372
0.000715343
0.000126095
0.00014184
0.000135823
0.000158234
0.000158013
0.000182437
0.000186143
0.000211438
0.000217738
0.00024336
0.000251395
0.000276956
0.00028616
0.000311351
0.000321344
0.00034593
0.000356469
0.000380264
0.000391204
0.000414054
0.000425321
0.000447085
0.000458656
0.000479203
0.000491083
0.000510294
0.000522501
0.000540275
0.000552827
0.000569106
0.000582008
0.000596772
0.000610043
0.000623267
0.000637002
0.000648612
0.00066296
0.000672493
0.000687541
0.000693297
0.000132552
0.000147102
0.000141105
0.000161806
0.000161563
0.000184051
0.000187777
0.000211058
0.000217419
0.000241011
0.000249138
0.000272703
0.000282025
0.000305285
0.00031542
0.000338155
0.000348846
0.000370883
0.000381962
0.000403162
0.000414527
0.00043477
0.000446363
0.000465549
0.000477342
0.000495387
0.000507372
0.00052421
0.000536399
0.000551974
0.000564409
0.000578652
0.000591417
0.000604252
0.000617442
0.000628782
0.000642369
0.000651834
0.000665588
0.000671848
0.00013975
0.000153135
0.0001471
0.000166156
0.000165678
0.000186406
0.000189915
0.000211378
0.000217599
0.000239335
0.000247399
0.000269102
0.000278422
0.000299854
0.000310026
0.000330997
0.000341743
0.000362104
0.000373232
0.000392864
0.000404245
0.000423052
0.000434602
0.000452503
0.000464173
0.000481103
0.000492873
0.000508776
0.000520651
0.000535473
0.000547485
0.000561178
0.000573374
0.000585907
0.000598319
0.000609613
0.000622148
0.000631867
0.000644231
0.000651418
0.000147921
0.000160206
0.000154155
0.000171627
0.000170784
0.000189863
0.00019293
0.000212737
0.000218565
0.00023864
0.000246387
0.000266441
0.000275512
0.000295329
0.000305302
0.00032472
0.000335294
0.000354184
0.000365148
0.000383411
0.000394614
0.00041217
0.000423509
0.000440293
0.000451703
0.000467659
0.000479104
0.000494186
0.000505653
0.000519823
0.000531317
0.000544557
0.000556103
0.000568399
0.000580019
0.000591279
0.000602879
0.000612807
0.000624092
0.000631955
0.000156847
0.000168119
0.000162107
0.000178075
0.000176845
0.000194355
0.00019687
0.000215127
0.000220396
0.000238951
0.000246193
0.000264761
0.000273394
0.000291771
0.000301364
0.000319399
0.000329636
0.000347217
0.000357869
0.000374909
0.00038581
0.000402242
0.000413274
0.000429042
0.000440124
0.000455183
0.000466264
0.000480575
0.00049163
0.000505161
0.00051619
0.000528919
0.000539943
0.000551846
0.000562881
0.000573871
0.000584826
0.000594646
0.000605256
0.000613286
0.000166215
0.000176589
0.000170659
0.000185248
0.000183659
0.000199699
0.000201638
0.00021844
0.000223074
0.000240215
0.000246849
0.000264048
0.00027213
0.000289188
0.000298291
0.000315063
0.000324865
0.000341246
0.000351504
0.000367416
0.000377953
0.000393335
0.00040402
0.000418825
0.000429563
0.000443753
0.000454481
0.000468023
0.000478707
0.000491571
0.0005022
0.000514363
0.000524945
0.000536383
0.000546911
0.000557581
0.000567921
0.0005777
0.000587491
0.000595948
0.000175805
0.000185399
0.000179575
0.000192934
0.00019103
0.000205727
0.000207109
0.000222561
0.000226543
0.000242367
0.000248345
0.000264274
0.00027174
0.000287578
0.000296122
0.000311727
0.000321028
0.000336296
0.000346106
0.000360965
0.000371096
0.000385489
0.000395799
0.000409685
0.000420069
0.000433414
0.000443797
0.000456575
0.000466907
0.000479098
0.000489352
0.000500944
0.00051111
0.000522089
0.000532149
0.000542481
0.000552324
0.000561919
0.000571223
0.000579888
0.00018549
0.000194406
0.000188703
0.000200978
0.000198806
0.000212294
0.00021316
0.000227376
0.000230723
0.000245329
0.000250641
0.00026539
0.000272211
0.000286914
0.000294859
0.000309376
0.000318133
0.000332364
0.000341685
0.000355557
0.000365247
0.000378708
0.000388619
0.00040163
0.000411646
0.000424178
0.000434214
0.000446245
0.000456238
0.000467755
0.000477665
0.00048866
0.000498464
0.000508929
0.000518607
0.000528515
0.000537975
0.000547264
0.000556214
0.000564773
0.000195191
0.000203511
0.000197941
0.000209262
0.000206869
0.000219277
0.000219677
0.000232772
0.000235518
0.000249007
0.000253665
0.000267323
0.000273492
0.000287141
0.000294467
0.000307972
0.000316157
0.000329419
0.00033822
0.000351168
0.000360389
0.000372973
0.000382459
0.000394641
0.000404272
0.000416026
0.000425708
0.000437013
0.000446677
0.000457519
0.000467117
0.000477487
0.000486987
0.000496884
0.00050625
0.000515688
0.000524805
0.000533791
0.000542343
0.000550893
0.00020485
0.000212641
0.000207215
0.000217692
0.000215121
0.000226568
0.000226555
0.000238639
0.000240828
0.000253298
0.000257331
0.000269984
0.000275512
0.000288185
0.000294887
0.000307451
0.00031505
0.000327408
0.000335669
0.000347751
0.000356482
0.000368239
0.000377283
0.000388679
0.00039791
0.00040892
0.000418239
0.000428844
0.000438173
0.000448361
0.000457641
0.000467409
0.000476594
0.000485956
0.000494998
0.000503989
0.000512786
0.000521439
0.000529725
0.000538046
0.000214421
0.000221738
0.000216461
0.00022619
0.000223481
0.000234071
0.000233698
0.000244873
0.000246556
0.000258099
0.000261544
0.000273277
0.000278186
0.000289958
0.000296045
0.000307735
0.000314745
0.000326261
0.000333972
0.000345245
0.000353471
0.000364452
0.000373037
0.000383691
0.000392507
0.00040281
0.000411753
0.00042169
0.000430675
0.000440237
0.000449196
0.000458386
0.000467267
0.000476105
0.00048486
0.000493394
0.00050192
0.000510215
0.000518223
0.00052635
0.000223865
0.000230754
0.000225631
0.000234693
0.000231879
0.000241705
0.000241022
0.000251379
0.000252607
0.00026331
0.00026621
0.000277101
0.000281423
0.000292365
0.000297856
0.000308737
0.000315167
0.000325898
0.000333059
0.000343575
0.00035129
0.000361541
0.000369659
0.000379612
0.000388004
0.000397635
0.000406196
0.000415492
0.000424132
0.000433085
0.000441734
0.00045035
0.000458952
0.000467253
0.000475767
0.000483795
0.000492145
0.000499926
0.000507887
0.000515473
0.000233149
0.000239649
0.000234681
0.000243146
0.000240256
0.000249399
0.000248451
0.000258073
0.000258895
0.000268837
0.000271239
0.000281361
0.000285131
0.000295312
0.000300232
0.000310366
0.000316229
0.000326232
0.00033285
0.000342658
0.000349863
0.00035943
0.000367077
0.000376368
0.000384332
0.000393324
0.0004015
0.000410179
0.000418478
0.000426837
0.000435185
0.00044323
0.000451567
0.000459321
0.0004676
0.00047511
0.000483244
0.000490566
0.000498305
0.000505585
0.000242243
0.000248387
0.000243573
0.000251501
0.00024856
0.000257089
0.000255917
0.000264877
0.000265341
0.000274593
0.000276541
0.000285964
0.000289221
0.000298703
0.000303083
0.000312527
0.000317846
0.000327173
0.00033326
0.000342409
0.00034911
0.000358035
0.000365212
0.00037388
0.000381413
0.0003898
0.000397586
0.000405677
0.000413627
0.000421417
0.000429456
0.000436952
0.000445017
0.000452245
0.000460285
0.000467292
0.000475223
0.000482065
0.000489674
0.000496492
0.00025112
0.000256936
0.000252273
0.000259716
0.000256744
0.000264721
0.000263359
0.000271722
0.00027187
0.000280499
0.000282036
0.000290822
0.000293605
0.000302448
0.000306319
0.000315128
0.000319926
0.000328629
0.000334202
0.000342739
0.000348944
0.000357271
0.00036398
0.000372064
0.000379165
0.000386982
0.000394373
0.000401908
0.000409502
0.000416751
0.00042447
0.000431442
0.000439223
0.000445948
0.000453735
0.00046027
0.000467979
0.000474394
0.000481811
0.000488267
0.00025975
0.000265262
0.000260748
0.00026775
0.000264764
0.000272242
0.000270722
0.000278546
0.000278416
0.00028648
0.000287647
0.000295853
0.000298201
0.000306459
0.000309854
0.000318081
0.000322384
0.000330511
0.000335587
0.000343558
0.000349279
0.00035705
0.000363298
0.000370836
0.000377504
0.000384788
0.00039178
0.000398793
0.000406025
0.000412761
0.000420158
0.000426626
0.000434125
0.000440351
0.000447901
0.000453938
0.000461468
0.000467372
0.000474706
0.000480605
0.000268107
0.000273336
0.000268965
0.000275566
0.000272578
0.000279604
0.000277953
0.000285289
0.000284916
0.000292467
0.000293302
0.000300981
0.00030293
0.000310653
0.000313605
0.000321298
0.000325134
0.00033273
0.000337331
0.000344778
0.00035003
0.000357284
0.00036308
0.00037011
0.00037635
0.000383134
0.000389727
0.000396249
0.000403116
0.000409369
0.000416437
0.000422427
0.000429638
0.000435386
0.000442691
0.000448239
0.000455568
0.000460965
0.000468143
0.00047354
0.000276162
0.000281125
0.000276895
0.000283128
0.000280149
0.000286764
0.000285003
0.000291896
0.000291311
0.000298396
0.000298933
0.000306132
0.000307717
0.000314953
0.000317494
0.000324696
0.000328093
0.000335201
0.00033935
0.000346313
0.000351112
0.000357889
0.000363242
0.000369802
0.000375618
0.000381938
0.000388132
0.000394197
0.000400691
0.000406496
0.000413221
0.000418772
0.000425667
0.000430989
0.000437998
0.000443137
0.000450182
0.000455201
0.000462097
0.000467188
0.000283885
0.000288599
0.000284503
0.000290398
0.000287438
0.000293677
0.000291827
0.000298316
0.000297546
0.000304208
0.000304477
0.00031124
0.000312492
0.000319283
0.000321443
0.000328198
0.000331182
0.000337843
0.000341561
0.00034808
0.000352444
0.000358781
0.000363704
0.000369829
0.000375228
0.000381118
0.000386915
0.000392555
0.000398678