/*--------------------------------*- C++ -*----------------------------------*\
| =========                 |                                                 |
| \\      /  F ield         | OpenFOAM: The Open Source CFD Toolbox           |
|  \\    /   O peration     | Version:  v2012                                 |
|   \\  /    A nd           | Website:  www.openfoam.com                      |
|    \\/     M anipulation  |                                                 |
\*---------------------------------------------------------------------------*/
FoamFile
{
    version     2.0;
    format      ascii;
    class       volScalarField;
    location    "1";
    object      sigmaEq;
}
// * * * * * * * * * * * * * * * * * * * * * * * * * * * * * * * * * * * * * //

dimensions      [1 -1 -2 0 0 0 0];


internalField   nonuniform List<scalar> 
8000
(
3.97927e+07
3.89279e+07
3.44396e+07
3.35679e+07
3.01365e+07
2.94414e+07
2.67207e+07
2.62205e+07
2.40274e+07
2.36797e+07
2.18903e+07
2.16577e+07
2.01822e+07
2.00356e+07
1.88072e+07
1.87246e+07
1.76925e+07
1.76577e+07
1.67832e+07
1.67839e+07
1.60368e+07
1.60637e+07
1.54206e+07
1.54666e+07
1.49091e+07
1.49688e+07
1.44822e+07
1.45515e+07
1.4124e+07
1.41998e+07
1.38219e+07
1.39016e+07
1.35657e+07
1.36476e+07
1.33475e+07
1.343e+07
1.31607e+07
1.32428e+07
1.30005e+07
1.30812e+07
3.9085e+07
3.88931e+07
3.39115e+07
3.35785e+07
2.96892e+07
2.94642e+07
2.63668e+07
2.62567e+07
2.37495e+07
2.37293e+07
2.16734e+07
2.17206e+07
2.00144e+07
2.01113e+07
1.86792e+07
1.8812e+07
1.7597e+07
1.77554e+07
1.67141e+07
1.68901e+07
1.59891e+07
1.61769e+07
1.53902e+07
1.55853e+07
1.48926e+07
1.50915e+07
1.44767e+07
1.4677e+07
1.41272e+07
1.43269e+07
1.38318e+07
1.40296e+07
1.35809e+07
1.37757e+07
1.33666e+07
1.35576e+07
1.31827e+07
1.33693e+07
1.30249e+07
1.32044e+07
3.85523e+07
3.85847e+07
3.35707e+07
3.33109e+07
2.94356e+07
2.92694e+07
2.61927e+07
2.61317e+07
2.36426e+07
2.36675e+07
2.16239e+07
2.17146e+07
2.00137e+07
2.01536e+07
1.87197e+07
1.88953e+07
1.76721e+07
1.7873e+07
1.68178e+07
1.70359e+07
1.61162e+07
1.63453e+07
1.5536e+07
1.57714e+07
1.50531e+07
1.52912e+07
1.46486e+07
1.48867e+07
1.43075e+07
1.45436e+07
1.40182e+07
1.42509e+07
1.37712e+07
1.39994e+07
1.35592e+07
1.3782e+07
1.33761e+07
1.35926e+07
1.32172e+07
1.34227e+07
3.80337e+07
3.80417e+07
3.31796e+07
3.28793e+07
2.91343e+07
2.89534e+07
2.59822e+07
2.59215e+07
2.35155e+07
2.35526e+07
2.15711e+07
2.16834e+07
2.0026e+07
2.01945e+07
1.87881e+07
1.89974e+07
1.77879e+07
1.80259e+07
1.69731e+07
1.72302e+07
1.63039e+07
1.65728e+07
1.57497e+07
1.6025e+07
1.52873e+07
1.55648e+07
1.48983e+07
1.5175e+07
1.45688e+07
1.48423e+07
1.42875e+07
1.45563e+07
1.40457e+07
1.43085e+07
1.38362e+07
1.40922e+07
1.36536e+07
1.39015e+07
1.34936e+07
1.37269e+07
3.74101e+07
3.73262e+07
3.26849e+07
3.23193e+07
2.87531e+07
2.85421e+07
2.57144e+07
2.56457e+07
2.33533e+07
2.33984e+07
2.1504e+07
2.16359e+07
2.00427e+07
2.02387e+07
1.8877e+07
1.91188e+07
1.79378e+07
1.82112e+07
1.71737e+07
1.74675e+07
1.65457e+07
1.68516e+07
1.60245e+07
1.63362e+07
1.55878e+07
1.59007e+07
1.52185e+07
1.55291e+07
1.49033e+07
1.52093e+07
1.4632e+07
1.49316e+07
1.43963e+07
1.46884e+07
1.41899e+07
1.44735e+07
1.40079e+07
1.42817e+07
1.38464e+07
1.41025e+07
3.66482e+07
3.64533e+07
3.20729e+07
3.164e+07
2.8284e+07
2.80432e+07
2.5385e+07
2.53105e+07
2.31532e+07
2.32091e+07
2.14201e+07
2.15738e+07
2.00604e+07
2.0285e+07
1.89817e+07
1.92558e+07
1.81155e+07
1.84227e+07
1.74115e+07
1.77393e+07
1.68322e+07
1.71712e+07
1.63496e+07
1.6693e+07
1.59429e+07
1.62857e+07
1.55962e+07
1.59349e+07
1.52974e+07
1.56296e+07
1.50373e+07
1.53613e+07
1.48086e+07
1.51233e+07
1.46056e+07
1.49101e+07
1.44241e+07
1.47171e+07
1.42608e+07
1.45335e+07
3.57405e+07
3.54313e+07
3.1342e+07
3.08465e+07
2.77263e+07
2.7461e+07
2.49941e+07
2.49189e+07
2.29152e+07
2.2986e+07
2.13181e+07
2.14961e+07
2.00763e+07
2.03302e+07
1.90973e+07
1.94029e+07
1.83141e+07
1.86529e+07
1.76778e+07
1.80359e+07
1.71527e+07
1.75202e+07
1.67128e+07
1.70825e+07
1.6339e+07
1.67058e+07
1.60169e+07
1.63774e+07
1.57359e+07
1.60877e+07
1.54878e+07
1.58294e+07
1.52664e+07
1.55969e+07
1.5067e+07
1.53856e+07
1.48858e+07
1.51915e+07
1.47203e+07
1.50037e+07
3.46888e+07
3.42673e+07
3.0495e+07
2.99436e+07
2.70825e+07
2.67991e+07
2.45436e+07
2.44733e+07
2.26401e+07
2.27297e+07
2.11971e+07
2.14015e+07
2.00872e+07
2.03706e+07
1.92186e+07
1.95539e+07
1.8526e+07
1.8893e+07
1.79628e+07
1.83469e+07
1.74958e+07
1.78866e+07
1.71013e+07
1.74915e+07
1.67621e+07
1.71467e+07
1.64658e+07
1.68415e+07
1.62032e+07
1.6568e+07
1.59675e+07
1.63201e+07
1.57536e+07
1.60933e+07
1.55576e+07
1.58839e+07
1.53767e+07
1.56886e+07
1.52087e+07
1.54967e+07
3.34984e+07
3.29688e+07
2.95369e+07
2.89373e+07
2.63565e+07
2.60621e+07
2.40362e+07
2.39765e+07
2.23289e+07
2.24409e+07
2.1056e+07
2.12879e+07
2.00896e+07
2.04015e+07
1.93396e+07
1.97018e+07
1.87431e+07
1.91343e+07
1.82567e+07
1.86617e+07
1.785e+07
1.82583e+07
1.75022e+07
1.79067e+07
1.71984e+07
1.75944e+07
1.69282e+07
1.73128e+07
1.66842e+07
1.70556e+07
1.6461e+07
1.68182e+07
1.62545e+07
1.65971e+07
1.60618e+07
1.63896e+07
1.58808e+07
1.61932e+07
1.57103e+07
1.59974e+07
3.21763e+07
3.1544e+07
2.8474e+07
2.78344e+07
2.55533e+07
2.52555e+07
2.34754e+07
2.34317e+07
2.19828e+07
2.212e+07
2.08934e+07
2.11533e+07
2.00796e+07
2.04183e+07
1.94539e+07
1.98397e+07
1.89569e+07
1.93677e+07
1.8549e+07
1.89695e+07
1.82036e+07
1.86236e+07
1.79027e+07
1.83154e+07
1.76343e+07
1.80356e+07
1.73902e+07
1.77774e+07
1.71646e+07
1.75364e+07
1.69536e+07
1.73094e+07
1.67543e+07
1.70941e+07
1.65648e+07
1.68885e+07
1.63837e+07
1.66911e+07
1.62104e+07
1.64916e+07
3.07308e+07
3.0002e+07
2.73133e+07
2.66426e+07
2.46786e+07
2.4385e+07
2.2865e+07
2.28426e+07
2.16033e+07
2.17681e+07
2.07081e+07
2.09955e+07
2.00533e+07
2.04162e+07
1.95551e+07
1.99605e+07
1.91591e+07
1.95844e+07
1.883e+07
1.92604e+07
1.85454e+07
1.89711e+07
1.8291e+07
1.87059e+07
1.80574e+07
1.84579e+07
1.78387e+07
1.82227e+07
1.76311e+07
1.79977e+07
1.7432e+07
1.7781e+07
1.72398e+07
1.75714e+07
1.70533e+07
1.73679e+07
1.6872e+07
1.71697e+07
1.66961e+07
1.69668e+07
2.91707e+07
2.83525e+07
2.60628e+07
2.53705e+07
2.37391e+07
2.34575e+07
2.22094e+07
2.22131e+07
2.11919e+07
2.13859e+07
2.04987e+07
2.08124e+07
2.00065e+07
2.03904e+07
1.9637e+07
2.00573e+07
1.93414e+07
1.97759e+07
1.909e+07
1.95246e+07
1.8865e+07
1.92907e+07
1.86557e+07
1.90671e+07
1.84558e+07
1.885e+07
1.82617e+07
1.86372e+07
1.80715e+07
1.84279e+07
1.7884e+07
1.82214e+07
1.76987e+07
1.80176e+07
1.75154e+07
1.78164e+07
1.73341e+07
1.76177e+07
1.71557e+07
1.74118e+07
2.75055e+07
2.66061e+07
2.47309e+07
2.40272e+07
2.27419e+07
2.24803e+07
2.15134e+07
2.15476e+07
2.07505e+07
2.09744e+07
2.02639e+07
2.0602e+07
1.99353e+07
2.03363e+07
1.96933e+07
2.01236e+07
1.94961e+07
1.99344e+07
1.93202e+07
1.97533e+07
1.91525e+07
1.95726e+07
1.89865e+07
1.9389e+07
1.88189e+07
1.92016e+07
1.86485e+07
1.90105e+07
1.84751e+07
1.88164e+07
1.82989e+07
1.86202e+07
1.81206e+07
1.84225e+07
1.79405e+07
1.82241e+07
1.77595e+07
1.80254e+07
1.75792e+07
1.78169e+07
2.57456e+07
2.47741e+07
2.33272e+07
2.2623e+07
2.16949e+07
2.14612e+07
2.07823e+07
2.08509e+07
2.02809e+07
2.05349e+07
2.00025e+07
2.03624e+07
1.98358e+07
2.02497e+07
1.97182e+07
2.01534e+07
1.96159e+07
2.00526e+07
1.95121e+07
1.99383e+07
1.93991e+07
1.98082e+07
1.92741e+07
1.96626e+07
1.91371e+07
1.95035e+07
1.89892e+07
1.93332e+07
1.8832e+07
1.91541e+07
1.8667e+07
1.89682e+07
1.84957e+07
1.87771e+07
1.83194e+07
1.85821e+07
1.81393e+07
1.83842e+07
1.79576e+07
1.81738e+07
2.39018e+07
2.28682e+07
2.18616e+07
2.11689e+07
2.06065e+07
2.04091e+07
2.00215e+07
2.01278e+07
1.97853e+07
2.00687e+07
1.97134e+07
2.00917e+07
1.97044e+07
2.01264e+07
1.97063e+07
2.01411e+07
1.96942e+07
2.01238e+07
1.96585e+07
2.00725e+07
1.95966e+07
1.99897e+07
1.95101e+07
1.98798e+07
1.94018e+07
1.97474e+07
1.92751e+07
1.95971e+07
1.91334e+07
1.94326e+07
1.89795e+07
1.92572e+07
1.88157e+07
1.90732e+07
1.86439e+07
1.88827e+07
1.84657e+07
1.86868e+07
1.82837e+07
1.84754e+07
2.19854e+07
2.09013e+07
2.03452e+07
1.96768e+07
1.94861e+07
1.93331e+07
1.9237e+07
1.93836e+07
1.92657e+07
1.9577e+07
1.93954e+07
1.97883e+07
1.95378e+07
1.9963e+07
1.96526e+07
2.00818e+07
1.97251e+07
2.01423e+07
1.97525e+07
2.01493e+07
1.97381e+07
2.01105e+07
1.9687e+07
2.00336e+07
1.96053e+07
1.99262e+07
1.94984e+07
1.97946e+07
1.93714e+07
1.96442e+07
1.92284e+07
1.94795e+07
1.90727e+07
1.93036e+07
1.89066e+07
1.91188e+07
1.87319e+07
1.89265e+07
1.85512e+07
1.87154e+07
2.00082e+07
1.88868e+07
1.87898e+07
1.816e+07
1.83437e+07
1.82433e+07
1.8435e+07
1.86239e+07
1.87244e+07
1.90614e+07
1.90479e+07
1.9451e+07
1.93329e+07
1.97562e+07
1.95529e+07
1.99712e+07
1.97032e+07
2.01031e+07
1.97886e+07
2.01636e+07
1.98173e+07
2.01648e+07
1.97986e+07
2.01182e+07
1.9741e+07
2.00335e+07
1.96522e+07
1.99192e+07
1.95388e+07
1.97822e+07
1.94063e+07
1.96278e+07
1.9259e+07
1.94605e+07
1.90999e+07
1.92831e+07
1.8931e+07
1.90967e+07
1.87545e+07
1.88884e+07
1.79823e+07
1.68389e+07
1.72083e+07
1.66334e+07
1.71902e+07
1.71506e+07
1.76219e+07
1.78541e+07
1.81637e+07
1.85234e+07
1.86699e+07
1.90787e+07
1.90871e+07
1.95034e+07
1.94034e+07
1.98057e+07
1.96244e+07
2.00022e+07
1.9762e+07
2.01109e+07
1.98295e+07
2.01483e+07
1.98396e+07
2.01288e+07
1.98035e+07
2.00646e+07
1.97307e+07
1.99657e+07
1.96293e+07
1.98403e+07
1.95061e+07
1.96953e+07
1.93667e+07
1.95361e+07
1.92154e+07
1.93667e+07
1.90549e+07
1.91888e+07
1.88872e+07
1.89865e+07
1.59204e+07
1.47735e+07
1.56152e+07
1.51136e+07
1.60373e+07
1.60666e+07
1.68044e+07
1.70802e+07
1.75858e+07
1.79646e+07
1.82611e+07
1.86705e+07
1.87983e+07
1.92025e+07
1.9201e+07
1.95826e+07
1.9485e+07
1.98366e+07
1.9669e+07
1.99881e+07
1.9771e+07
2.00579e+07
1.98066e+07
2.00627e+07
1.97892e+07
2.00167e+07
1.973e+07
1.99309e+07
1.96382e+07
1.98148e+07
1.95218e+07
1.96761e+07
1.93876e+07
1.95217e+07
1.9242e+07
1.93581e+07
1.90906e+07
1.919e+07
1.89381e+07
1.90016e+07
1.38352e+07
1.27083e+07
1.40268e+07
1.36203e+07
1.48979e+07
1.50039e+07
1.59893e+07
1.63079e+07
1.69931e+07
1.73867e+07
1.78209e+07
1.82258e+07
1.84647e+07
1.88515e+07
1.89433e+07
1.92996e+07
1.92824e+07
1.96038e+07
1.95071e+07
1.97932e+07
1.96394e+07
1.98919e+07
1.96977e+07
1.99191e+07
1.9697e+07
1.98898e+07
1.96495e+07
1.98161e+07
1.9565e+07
1.97071e+07
1.94516e+07
1.95697e+07
1.93163e+07
1.94091e+07
1.91661e+07
1.92286e+07
1.901e+07
1.90316e+07
1.88633e+07
1.87968e+07
1.17401e+07
1.06648e+07
1.24625e+07
1.21769e+07
1.37863e+07
1.39762e+07
1.51837e+07
1.5543e+07
1.63879e+07
1.67913e+07
1.73493e+07
1.77441e+07
1.80847e+07
1.84492e+07
1.86282e+07
1.89547e+07
1.90144e+07
1.93019e+07
1.92743e+07
1.95244e+07
1.94334e+07
1.96494e+07
1.95126e+07
1.9698e+07
1.95282e+07
1.9687e+07
1.94934e+07
1.96295e+07
1.94183e+07
1.95359e+07
1.93106e+07
1.94146e+07
1.91759e+07
1.92731e+07
1.90192e+07
1.91202e+07
1.88468e+07
1.89734e+07
1.86728e+07
1.88342e+07
9.64886e+06
8.67236e+06
1.09461e+07
1.08125e+07
1.27182e+07
1.29981e+07
1.43945e+07
1.47915e+07
1.57723e+07
1.61802e+07
1.68459e+07
1.72253e+07
1.76571e+07
1.79944e+07
1.82538e+07
1.85465e+07
1.8679e+07
1.89289e+07
1.89685e+07
1.91793e+07
1.91509e+07
1.93272e+07
1.92494e+07
1.93954e+07
1.9282e+07
1.94019e+07
1.92632e+07
1.93608e+07
1.92047e+07
1.92835e+07
1.91158e+07
1.91792e+07
1.90048e+07
1.90558e+07
1.88787e+07
1.89202e+07
1.87427e+07
1.87737e+07
1.85909e+07
1.86501e+07
7.57656e+06
6.77763e+06
9.50848e+06
9.56405e+06
1.17108e+07
1.20849e+07
1.36287e+07
1.4059e+07
1.51484e+07
1.5555e+07
1.63108e+07
1.66694e+07
1.71809e+07
1.74865e+07
1.78188e+07
1.80738e+07
1.82743e+07
1.84836e+07
1.85871e+07
1.87564e+07
1.87886e+07
1.89233e+07
1.89033e+07
1.90084e+07
1.89503e+07
1.90303e+07
1.89449e+07
1.90038e+07
1.88991e+07
1.89403e+07
1.88225e+07
1.88487e+07
1.87225e+07
1.87356e+07
1.86045e+07
1.86046e+07
1.84701e+07
1.8457e+07
1.83102e+07
1.83672e+07
5.54144e+06
5.07184e+06
8.19178e+06
8.47826e+06
1.07829e+07
1.12528e+07
1.28931e+07
1.33512e+07
1.45185e+07
1.49178e+07
1.57444e+07
1.60771e+07
1.66558e+07
1.69255e+07
1.73224e+07
1.75365e+07
1.77994e+07
1.79656e+07
1.81294e+07
1.8255e+07
1.83454e+07
1.8437e+07
1.8473e+07
1.85361e+07
1.85321e+07
1.85714e+07
1.85381e+07
1.85575e+07
1.8503e+07
1.85057e+07
1.84361e+07
1.84246e+07
1.83444e+07
1.83201e+07
1.82324e+07
1.81959e+07
1.81026e+07
1.80577e+07
1.7949e+07
1.79964e+07
3.57347e+06
3.76483e+06
7.05457e+06
7.61122e+06
9.95463e+06
1.05178e+07
1.21945e+07
1.26735e+07
1.38848e+07
1.42707e+07
1.51474e+07
1.54493e+07
1.60819e+07
1.6312e+07
1.67647e+07
1.69351e+07
1.72543e+07
1.73754e+07
1.75952e+07
1.76758e+07
1.78213e+07
1.78688e+07
1.79587e+07
1.79791e+07
1.80274e+07
1.80257e+07
1.8043e+07
1.80232e+07
1.80173e+07
1.79824e+07
1.79595e+07
1.79119e+07
1.78762e+07
1.78176e+07
1.77726e+07
1.77042e+07
1.76521e+07
1.75792e+07
1.75074e+07
1.7544e+07
1.77572e+06
3.27079e+06
6.17513e+06
7.02067e+06
9.24612e+06
9.89431e+06
1.1539e+07
1.20309e+07
1.32496e+07
1.3616e+07
1.4521e+07
1.47876e+07
1.546e+07
1.56474e+07
1.61464e+07
1.62708e+07
1.66398e+07
1.67143e+07
1.69854e+07
1.70201e+07
1.72173e+07
1.72203e+07
1.73615e+07
1.73394e+07
1.74379e+07
1.73958e+07
1.7462e+07
1.74037e+07
1.74453e+07
1.73741e+07
1.73968e+07
1.73152e+07
1.73235e+07
1.72331e+07
1.72307e+07
1.71331e+07
1.71219e+07
1.70232e+07
1.69881e+07
1.70134e+07
1.11298e+06
3.81243e+06
5.64043e+06
6.74671e+06
8.67536e+06
9.39382e+06
1.09322e+07
1.14282e+07
1.26154e+07
1.29565e+07
1.38666e+07
1.40942e+07
1.47916e+07
1.49337e+07
1.5469e+07
1.5546e+07
1.59576e+07
1.59847e+07
1.63019e+07
1.62906e+07
1.65355e+07
1.64944e+07
1.66837e+07
1.66198e+07
1.67663e+07
1.66847e+07
1.6798e+07
1.67029e+07
1.67903e+07
1.66848e+07
1.67521e+07
1.66386e+07
1.66901e+07
1.65704e+07
1.66098e+07
1.64853e+07
1.65145e+07
1.63921e+07
1.63934e+07
1.64076e+07
2.49888e+06
4.9772e+06
5.50613e+06
6.78821e+06
8.25501e+06
9.02238e+06
1.03789e+07
1.08694e+07
1.19848e+07
1.22955e+07
1.31867e+07
1.33721e+07
1.40789e+07
1.41741e+07
1.47348e+07
1.47637e+07
1.52102e+07
1.51899e+07
1.55475e+07
1.54906e+07
1.57788e+07
1.56947e+07
1.59287e+07
1.58244e+07
1.60159e+07
1.58969e+07
1.60548e+07
1.5925e+07
1.60564e+07
1.5919e+07
1.60292e+07
1.58864e+07
1.59798e+07
1.58334e+07
1.59134e+07
1.57646e+07
1.5833e+07
1.56897e+07
1.57264e+07
1.57304e+07
4.15319e+06
6.35435e+06
5.74904e+06
7.09646e+06
7.98888e+06
8.77895e+06
9.88251e+06
1.0358e+07
1.13609e+07
1.16367e+07
1.24839e+07
1.26252e+07
1.33249e+07
1.33724e+07
1.39472e+07
1.39281e+07
1.44012e+07
1.43343e+07
1.47259e+07
1.46247e+07
1.49513e+07
1.48258e+07
1.51006e+07
1.4958e+07
1.51913e+07
1.50371e+07
1.5237e+07
1.50751e+07
1.52481e+07
1.50815e+07
1.52327e+07
1.50636e+07
1.5197e+07
1.50268e+07
1.51458e+07
1.49758e+07
1.50818e+07
1.49205e+07
1.49914e+07
1.49868e+07
5.76356e+06
7.7603e+06
6.27301e+06
7.59491e+06
7.86947e+06
8.65458e+06
9.44512e+06
9.8966e+06
1.0747e+07
1.09847e+07
1.17621e+07
1.18583e+07
1.25336e+07
1.25337e+07
1.31103e+07
1.30443e+07
1.35349e+07
1.34231e+07
1.38417e+07
1.36985e+07
1.40579e+07
1.38936e+07
1.42045e+07
1.40265e+07
1.42977e+07
1.41114e+07
1.435e+07
1.41593e+07
1.4371e+07
1.41787e+07
1.43681e+07
1.41763e+07
1.43472e+07
1.41569e+07
1.43124e+07
1.4125e+07
1.42662e+07
1.40909e+07
1.41941e+07
1.41831e+07
7.2826e+06
9.11681e+06
6.9637e+06
8.20566e+06
7.87825e+06
8.63323e+06
9.0671e+06
9.48683e+06
1.0147e+07
1.03449e+07
1.10261e+07
1.10778e+07
1.17101e+07
1.16645e+07
1.22295e+07
1.21189e+07
1.26168e+07
1.24631e+07
1.29008e+07
1.27189e+07
1.31045e+07
1.29052e+07
1.32466e+07
1.30372e+07
1.33415e+07
1.31274e+07
1.34003e+07
1.31852e+07
1.34316e+07
1.32182e+07
1.34422e+07
1.32322e+07
1.34371e+07
1.32316e+07
1.34203e+07
1.32202e+07
1.33933e+07
1.3209e+07
1.33417e+07
1.33274e+07
8.69099e+06
1.03847e+07
7.72801e+06
8.86427e+06
7.98865e+06
8.69385e+06
8.74705e+06
9.12934e+06
9.56556e+06
9.72394e+06
1.02817e+07
1.02915e+07
1.08607e+07
1.07731e+07
1.13114e+07
1.11604e+07
1.16541e+07
1.14628e+07
1.19103e+07
1.16945e+07
1.20987e+07
1.18692e+07
1.22348e+07
1.19992e+07
1.23307e+07
1.20942e+07
1.23962e+07
1.21623e+07
1.24385e+07
1.22096e+07
1.24636e+07
1.22411e+07
1.24757e+07
1.22606e+07
1.24782e+07
1.22713e+07
1.24722e+07
1.22848e+07
1.24434e+07
1.24297e+07
9.97609e+06
1.15405e+07
8.50108e+06
9.52247e+06
8.17055e+06
8.81326e+06
8.48186e+06
8.82378e+06
9.00807e+06
9.12977e+06
9.5368e+06
9.50964e+06
9.99395e+06
9.86991e+06
1.03646e+07
1.01793e+07
1.06553e+07
1.0433e+07
1.08793e+07
1.06362e+07
1.10497e+07
1.0797e+07
1.11785e+07
1.09238e+07
1.12754e+07
1.10236e+07
1.13479e+07
1.11025e+07
1.14023e+07
1.11652e+07
1.14432e+07
1.12156e+07
1.14741e+07
1.12567e+07
1.14976e+07
1.12914e+07
1.15145e+07
1.13316e+07
1.15109e+07
1.15034e+07
1.11279e+07
1.25685e+07
9.23976e+06
1.01455e+07
8.39436e+06
8.96865e+06
8.26691e+06
8.56884e+06
8.48107e+06
8.57199e+06
8.80124e+06
8.74533e+06
9.12043e+06
8.96898e+06
9.40008e+06
9.18972e+06
9.63186e+06
9.38773e+06
9.81927e+06
9.55835e+06
9.96955e+06
9.70321e+06
1.00903e+07
9.82604e+06
1.01883e+07
9.93093e+06
1.0269e+07
1.00216e+07
1.03368e+07
1.01011e+07
1.03952e+07
1.01721e+07
1.04467e+07
1.02366e+07
1.04933e+07
1.02972e+07
1.05351e+07
1.03662e+07
1.05597e+07
1.05653e+07
1.2138e+07
1.34567e+07
9.91527e+06
1.07088e+07
8.63379e+06
9.13937e+06
8.0965e+06
8.3623e+06
7.99214e+06
8.06168e+06
8.08767e+06
8.01534e+06
8.25446e+06
8.08895e+06
8.43271e+06
8.21089e+06
8.59876e+06
8.34649e+06
8.7458e+06
8.48063e+06
8.87415e+06
8.60768e+06
8.98664e+06
8.72636e+06
9.0866e+06
8.83712e+06
9.17703e+06
8.94102e+06
9.26037e+06
9.03919e+06
9.33855e+06
9.1327e+06
9.41305e+06
9.22269e+06
9.48493e+06
9.31122e+06
9.55392e+06
9.41116e+06
9.60978e+06
9.63732e+06
1.29992e+07
1.41956e+07
1.05085e+07
1.11949e+07
8.86715e+06
9.3077e+06
7.96405e+06
8.2006e+06
7.54961e+06
7.61085e+06
7.41232e+06
7.34123e+06
7.41546e+06
7.25563e+06
7.48311e+06
7.27011e+06
7.5773e+06
7.33715e+06
7.68063e+06
7.43125e+06
7.78592e+06
7.53911e+06
7.89068e+06
7.65382e+06
7.99432e+06
7.77176e+06
8.09692e+06
7.89086e+06
8.19865e+06
8.00991e+06
8.2996e+06
8.12821e+06
8.39987e+06
8.24564e+06
8.49954e+06
8.36381e+06
8.59792e+06
8.49625e+06
8.68796e+06
8.74867e+06
1.37059e+07
1.47757e+07
1.10083e+07
1.15914e+07
9.07738e+06
9.45735e+06
7.86142e+06
8.07677e+06
7.162e+06
7.23181e+06
6.79611e+06
6.75078e+06
6.63071e+06
6.50522e+06
6.58138e+06
6.40748e+06
6.59894e+06
6.40147e+06
6.65614e+06
6.45277e+06
6.7381e+06
6.54051e+06
6.83654e+06
6.65184e+06
6.94649e+06
6.77854e+06
7.06461e+06
6.91499e+06
7.18835e+06
7.05722e+06
7.31567e+06
7.20233e+06
7.44488e+06
7.34863e+06
7.57474e+06
7.49698e+06
7.70413e+06
7.66163e+06
7.8304e+06
7.93736e+06
1.42565e+07
1.51828e+07
1.14138e+07
1.18845e+07
9.24779e+06
9.56223e+06
7.77775e+06
7.97969e+06
6.83891e+06
6.93814e+06
6.26646e+06
6.27886e+06
5.93896e+06
5.88769e+06
5.77242e+06
5.68184e+06
5.71183e+06
5.60293e+06
5.72238e+06
5.61086e+06
5.78208e+06
5.67841e+06
5.87664e+06
5.78695e+06
5.99622e+06
5.92343e+06
6.13363e+06
6.0784e+06
6.28323e+06
6.24478e+06
6.44039e+06
6.41719e+06
6.60129e+06
6.59185e+06
6.76286e+06
6.76812e+06
6.92316e+06
6.95998e+06
7.08481e+06
7.25041e+06
1.46651e+07
1.53788e+07
1.17319e+07
1.20123e+07
9.34927e+06
9.57598e+06
7.70914e+06
7.90081e+06
6.5946e+06
6.74404e+06
5.85791e+06
5.96601e+06
5.39216e+06
5.46767e+06
5.12036e+06
5.17585e+06
4.98772e+06
5.03559e+06
4.95556e+06
5.00561e+06
4.99635e+06
5.05498e+06
5.09019e+06
5.16065e+06
5.22229e+06
5.30544e+06
5.38136e+06
5.47643e+06
5.55857e+06
5.66376e+06
5.74676e+06
5.85971e+06
5.93994e+06
6.05823e+06
6.13304e+06
6.25588e+06
6.3228e+06
6.46205e+06
6.51708e+06
6.74839e+06
1.51114e+07
1.50205e+07
1.18123e+07
1.16304e+07
9.40751e+06
9.3178e+06
7.67716e+06
7.67487e+06
6.45642e+06
6.5132e+06
5.61417e+06
5.70991e+06
5.05498e+06
5.17787e+06
4.70918e+06
4.85278e+06
4.52494e+06
4.68539e+06
4.46264e+06
4.63691e+06
4.49145e+06
4.67655e+06
4.5872e+06
4.7801e+06
4.73101e+06
4.92875e+06
4.90824e+06
5.10815e+06
5.10748e+06
5.30745e+06
5.31965e+06
5.5185e+06
5.53685e+06
5.7354e+06
5.75102e+06
5.95495e+06
5.95436e+06
6.18008e+06
6.157e+06
6.46853e+06
6.33185e+06
6.71973e+06
6.56132e+06
6.97062e+06
7.03911e+06
7.4588e+06
7.71198e+06
8.11533e+06
8.51215e+06
8.88967e+06
9.38983e+06
9.73613e+06
1.03064e+07
1.06192e+07
1.12331e+07
1.15118e+07
1.21485e+07
1.23934e+07
1.30361e+07
1.32482e+07
1.38835e+07
1.40639e+07
1.46809e+07
1.48309e+07
1.54205e+07
1.55415e+07
1.60964e+07
1.61898e+07
1.6704e+07
1.67713e+07
1.72398e+07
1.72823e+07
1.7701e+07
1.77206e+07
1.8085e+07
1.80818e+07
1.83886e+07
1.83798e+07
1.8589e+07
1.85251e+07
6.63101e+06
6.93138e+06
6.80138e+06
7.17264e+06
7.2147e+06
7.61566e+06
7.8007e+06
8.21161e+06
8.51565e+06
8.92039e+06
9.31484e+06
9.70244e+06
1.01614e+07
1.05251e+07
1.1027e+07
1.13626e+07
1.189e+07
1.21952e+07
1.27338e+07
1.30074e+07
1.35456e+07
1.37871e+07
1.43154e+07
1.45248e+07
1.50354e+07
1.52131e+07
1.56994e+07
1.5846e+07
1.63026e+07
1.6419e+07
1.68413e+07
1.69285e+07
1.73126e+07
1.73728e+07
1.77151e+07
1.77449e+07
1.80444e+07
1.80767e+07
1.83201e+07
1.82034e+07
6.84988e+06
7.10171e+06
6.99585e+06
7.33155e+06
7.38088e+06
7.73701e+06
7.9142e+06
8.28199e+06
8.56752e+06
8.93325e+06
9.30397e+06
9.65723e+06
1.00908e+07
1.04246e+07
1.09014e+07
1.12113e+07
1.17152e+07
1.19984e+07
1.25159e+07
1.27709e+07
1.3291e+07
1.35168e+07
1.40306e+07
1.42271e+07
1.47269e+07
1.48941e+07
1.53737e+07
1.55121e+07
1.59662e+07
1.60767e+07
1.65007e+07
1.65841e+07
1.69744e+07
1.70329e+07
1.73862e+07
1.74151e+07
1.77295e+07
1.77702e+07
1.80364e+07
1.79004e+07
7.04602e+06
7.26977e+06
7.16787e+06
7.48175e+06
7.52472e+06
7.85315e+06
8.01427e+06
8.35334e+06
8.61482e+06
8.95312e+06
9.29553e+06
9.62369e+06
1.00276e+07
1.0339e+07
1.07868e+07
1.1077e+07
1.15536e+07
1.18198e+07
1.23124e+07
1.25529e+07
1.30509e+07
1.3265e+07
1.37596e+07
1.39468e+07
1.44307e+07
1.45911e+07
1.50581e+07
1.51921e+07
1.56371e+07
1.57455e+07
1.61641e+07
1.62477e+07
1.66362e+07
1.66972e+07
1.70526e+07
1.70856e+07
1.74058e+07
1.74546e+07
1.77314e+07
1.76012e+07
7.2298e+06
7.43536e+06
7.3314e+06
7.62737e+06
7.65897e+06
7.96648e+06
8.10853e+06
8.42569e+06
8.66147e+06
8.97852e+06
9.29115e+06
9.5997e+06
9.97219e+06
1.0266e+07
1.06826e+07
1.09575e+07
1.14041e+07
1.16572e+07
1.2122e+07
1.23516e+07
1.28244e+07
1.30296e+07
1.35019e+07
1.36823e+07
1.4147e+07
1.43027e+07
1.47537e+07
1.48851e+07
1.53174e+07
1.54251e+07
1.58346e+07
1.59193e+07
1.63024e+07
1.6366e+07
1.672e+07
1.67575e+07
1.70797e+07
1.71334e+07
1.74162e+07
1.73019e+07
7.40365e+06
7.59552e+06
7.48866e+06
7.76825e+06
7.78742e+06
8.07701e+06
8.19967e+06
8.49821e+06
8.70883e+06
9.00774e+06
9.29137e+06
9.58308e+06
9.92471e+06
1.02034e+07
1.05889e+07
1.08505e+07
1.1267e+07
1.15088e+07
1.19451e+07
1.21653e+07
1.26119e+07
1.28096e+07
1.32583e+07
1.3433e+07
1.38769e+07
1.40287e+07
1.4462e+07
1.45911e+07
1.5009e+07
1.5116e+07
1.55143e+07
1.55999e+07
1.59753e+07
1.60411e+07
1.63909e+07
1.64325e+07
1.67539e+07
1.68099e+07
1.70957e+07
1.70008e+07
7.56801e+06
7.74843e+06
7.63938e+06
7.90365e+06
7.91098e+06
8.18437e+06
8.28844e+06
8.57032e+06
8.75706e+06
9.03973e+06
9.29586e+06
9.57241e+06
9.88457e+06
1.01496e+07
1.0505e+07
1.07547e+07
1.11417e+07
1.13731e+07
1.17813e+07
1.19929e+07
1.24133e+07
1.2604e+07
1.30289e+07
1.31982e+07
1.36208e+07
1.37687e+07
1.41836e+07
1.43103e+07
1.47126e+07
1.48187e+07
1.52044e+07
1.52905e+07
1.56564e+07
1.57239e+07
1.60673e+07
1.61125e+07
1.64306e+07
1.64875e+07
1.67733e+07
1.66983e+07
7.7229e+06
7.89317e+06
7.78291e+06
8.03285e+06
8.02954e+06
8.288e+06
8.37477e+06
8.6414e+06
8.80584e+06
9.07364e+06
9.30396e+06
9.5666e+06
9.85092e+06
1.01033e+07
1.04301e+07
1.06686e+07
1.10272e+07
1.12491e+07
1.16299e+07
1.18334e+07
1.2228e+07
1.24121e+07
1.28131e+07
1.29773e+07
1.33784e+07
1.35226e+07
1.39184e+07
1.40427e+07
1.44286e+07
1.45336e+07
1.49058e+07
1.49919e+07
1.53471e+07
1.54157e+07
1.57511e+07
1.57993e+07
1.6112e+07
1.61689e+07
1.64521e+07
1.63955e+07
7.86828e+06
8.02928e+06
7.91868e+06
8.15528e+06
8.14268e+06
8.3873e+06
8.45828e+06
8.71083e+06
8.85461e+06
9.10869e+06
9.31494e+06
9.56469e+06
9.82282e+06
1.00635e+07
1.03632e+07
1.05912e+07
1.09227e+07
1.11355e+07
1.14899e+07
1.16857e+07
1.20552e+07
1.22329e+07
1.26105e+07
1.27697e+07
1.31494e+07
1.32898e+07
1.36664e+07
1.37882e+07
1.41572e+07
1.42608e+07
1.46187e+07
1.47045e+07
1.5048e+07
1.51173e+07
1.54436e+07
1.54942e+07
1.58003e+07
1.58572e+07
1.61362e+07
1.60973e+07
8.00414e+06
8.15655e+06
8.04632e+06
8.27053e+06
8.24994e+06
8.48172e+06
8.53844e+06
8.77794e+06
8.90274e+06
9.1441e+06
9.32798e+06
9.56575e+06
9.79936e+06
1.00291e+07
1.03031e+07
1.05214e+07
1.0827e+07
1.10312e+07
1.13603e+07
1.15488e+07
1.18939e+07
1.20656e+07
1.24202e+07
1.25746e+07
1.2933e+07
1.30697e+07
1.3427e+07
1.35462e+07
1.38982e+07
1.40002e+07
1.43432e+07
1.44285e+07
1.47595e+07
1.4829e+07
1.51454e+07
1.51976e+07
1.54966e+07
1.55522e+07
1.58274e+07
1.58025e+07
8.13054e+06
8.27491e+06
8.16557e+06
8.37829e+06
8.35091e+06
8.57077e+06
8.61472e+06
8.8421e+06
8.94956e+06
9.17909e+06
9.34229e+06
9.5689e+06
9.77962e+06
9.9991e+06
1.0249e+07
1.04581e+07
1.07391e+07
1.09353e+07
1.12401e+07
1.14217e+07
1.17433e+07
1.19092e+07
1.22415e+07
1.23911e+07
1.27287e+07
1.28617e+07
1.31999e+07
1.33164e+07
1.36511e+07
1.37514e+07
1.40792e+07
1.41636e+07
1.44815e+07
1.45509e+07
1.48564e+07
1.49098e+07
1.52001e+07
1.52545e+07
1.55235e+07
1.55111e+07
8.24753e+06
8.38435e+06
8.27629e+06
8.47837e+06
8.44523e+06
8.65405e+06
8.68662e+06
8.90275e+06
8.99443e+06
9.21294e+06
9.35709e+06
9.57328e+06
9.76269e+06
9.97257e+06
1.01998e+07
1.04003e+07
1.06581e+07
1.08467e+07
1.11283e+07
1.13033e+07
1.16023e+07
1.17627e+07
1.20733e+07
1.22184e+07
1.25356e+07
1.26651e+07
1.29844e+07
1.30982e+07
1.34157e+07
1.35142e+07
1.38264e+07
1.39099e+07
1.42141e+07
1.42833e+07
1.4577e+07
1.46313e+07
1.49116e+07
1.49651e+07
1.52256e+07
1.52249e+07
8.3552e+06
8.48491e+06
8.37842e+06
8.57062e+06
8.53264e+06
8.7312e+06
8.75369e+06
8.95934e+06
9.03673e+06
9.24498e+06
9.37164e+06
9.57808e+06
9.74773e+06
9.9486e+06
1.01547e+07
1.0347e+07
1.05829e+07
1.07643e+07
1.10239e+07
1.11927e+07
1.14701e+07
1.16252e+07
1.19149e+07
1.20556e+07
1.2353e+07
1.2479e+07
1.27798e+07
1.2891e+07
1.31913e+07
1.3288e+07
1.35847e+07
1.36671e+07
1.39574e+07
1.40261e+07
1.43076e+07
1.43624e+07
1.46322e+07
1.46848e+07
1.49367e+07
1.49454e+07
8.45366e+06
8.57661e+06
8.47193e+06
8.65494e+06
8.61292e+06
8.80193e+06
8.8155e+06
9.01141e+06
9.0759e+06
9.27456e+06
9.38521e+06
9.58252e+06
9.73391e+06
9.92632e+06
1.01126e+07
1.02973e+07
1.05126e+07
1.06872e+07
1.0926e+07
1.10888e+07
1.13456e+07
1.14956e+07
1.17653e+07
1.19018e+07
1.218e+07
1.23026e+07
1.25853e+07
1.26939e+07
1.29775e+07
1.30722e+07
1.33535e+07
1.34347e+07
1.3711e+07
1.37791e+07
1.40481e+07
1.41032e+07
1.4362e+07
1.44138e+07
1.46565e+07
1.46728e+07
8.54297e+06
8.65951e+06
8.5568e+06
8.73124e+06
8.68587e+06
8.86599e+06
8.87171e+06
9.05853e+06
9.1114e+06
9.3011e+06
9.39715e+06
9.5859e+06
9.72044e+06
9.90488e+06
1.00728e+07
1.02502e+07
1.04463e+07
1.06144e+07
1.08335e+07
1.09907e+07
1.12278e+07
1.1373e+07
1.16236e+07
1.1756e+07
1.20158e+07
1.2135e+07
1.24002e+07
1.25062e+07
1.27734e+07
1.28661e+07
1.31323e+07
1.32122e+07
1.34747e+07
1.35421e+07
1.37985e+07
1.38536e+07
1.41011e+07
1.41521e+07
1.43849e+07
1.44069e+07
8.62322e+06
8.73364e+06
8.63304e+06
8.79948e+06
8.75134e+06
8.92318e+06
8.92199e+06
9.10032e+06
9.14276e+06
9.32407e+06
9.40682e+06
9.58753e+06
9.70659e+06
9.88352e+06
1.00344e+07
1.02049e+07
1.0383e+07
1.0545e+07
1.07456e+07
1.08974e+07
1.1116e+07
1.12565e+07
1.14888e+07
1.16173e+07
1.18594e+07
1.19754e+07
1.22237e+07
1.2327e+07
1.25783e+07
1.26691e+07
1.29205e+07
1.2999e+07
1.32479e+07
1.33145e+07
1.35585e+07
1.36135e+07
1.38501e+07
1.39004e+07
1.41239e+07
1.41504e+07
8.69446e+06
8.79902e+06
8.70062e+06
8.85957e+06
8.8092e+06
8.9733e+06
8.96605e+06
9.13643e+06
9.16952e+06
9.34297e+06
9.41364e+06
9.58679e+06
9.69163e+06
9.86149e+06
9.99663e+06
1.01606e+07
1.03219e+07
1.04781e+07
1.06613e+07
1.0808e+07
1.1009e+07
1.11451e+07
1.13601e+07
1.14847e+07
1.17099e+07
1.18228e+07
1.20548e+07
1.21556e+07
1.23915e+07
1.24803e+07
1.27172e+07
1.27943e+07
1.30298e+07
1.30955e+07
1.33273e+07
1.3382e+07
1.36075e+07
1.36572e+07
1.38705e+07
1.39028e+07
8.75673e+06
8.85565e+06
8.75955e+06
8.91144e+06
8.85932e+06
9.01614e+06
9.00361e+06
9.16654e+06
9.19128e+06
9.35732e+06
9.41706e+06
9.58308e+06
9.67493e+06
9.83809e+06
9.95868e+06
1.01165e+07
1.02622e+07
1.04128e+07
1.05798e+07
1.07216e+07
1.09061e+07
1.10379e+07
1.12364e+07
1.13575e+07
1.15665e+07
1.16763e+07
1.18928e+07
1.19911e+07
1.22121e+07
1.2299e+07
1.25218e+07
1.25974e+07
1.28198e+07
1.28845e+07
1.31042e+07
1.31584e+07
1.3373e+07
1.34218e+07
1.36258e+07
1.36615e+07
8.81003e+06
8.9035e+06
8.80978e+06
8.95502e+06
8.90155e+06
9.05153e+06
9.03442e+06
9.19033e+06
9.20763e+06
9.3667e+06
9.41656e+06
9.57584e+06
9.65583e+06
9.81265e+06
9.91986e+06
1.00719e+07
1.02031e+07
1.03484e+07
1.05002e+07
1.06373e+07
1.08064e+07
1.09341e+07
1.11171e+07
1.12346e+07
1.14283e+07
1.15352e+07
1.17368e+07
1.18327e+07
1.20393e+07
1.21244e+07
1.23336e+07
1.24078e+07
1.26174e+07
1.2681e+07
1.28889e+07
1.29425e+07
1.31461e+07
1.31942e+07
1.33884e+07
1.34268e+07
8.85434e+06
8.94252e+06
8.85126e+06
8.99019e+06
8.93576e+06
9.07927e+06
9.05822e+06
9.2075e+06
9.2182e+06
9.37068e+06
9.41165e+06
9.56455e+06
9.63375e+06
9.78453e+06
9.87947e+06
1.00259e+07
1.01438e+07
1.0284e+07
1.04218e+07
1.05543e+07
1.07089e+07
1.08327e+07
1.10011e+07
1.11152e+07
1.12945e+07
1.13985e+07
1.15859e+07
1.16795e+07
1.18725e+07
1.19556e+07
1.21518e+07
1.22246e+07
1.24218e+07
1.24845e+07
1.26807e+07
1.27338e+07
1.29267e+07
1.29741e+07
1.31587e+07
1.31991e+07
8.88962e+06
8.97264e+06
8.88389e+06
9.01682e+06
8.96177e+06
9.09915e+06
9.07474e+06
9.21774e+06
9.22263e+06
9.36885e+06
9.40184e+06
9.54868e+06
9.6081e+06
9.75314e+06
9.83686e+06
9.97797e+06
1.00835e+07
1.02189e+07
1.03436e+07
1.04719e+07
1.06129e+07
1.07329e+07
1.08876e+07
1.09985e+07
1.11642e+07
1.12654e+07
1.14394e+07
1.15307e+07
1.17108e+07
1.1792e+07
1.19758e+07
1.20471e+07
1.22325e+07
1.22941e+07
1.24792e+07
1.25316e+07
1.27142e+07
1.27608e+07
1.29361e+07
1.2978e+07
8.91577e+06
8.99373e+06
8.90758e+06
9.03477e+06
8.97942e+06
9.11096e+06
9.08374e+06
9.22075e+06
9.22055e+06