/*--------------------------------*- C++ -*----------------------------------*\
| =========                 |                                                 |
| \\      /  F ield         | OpenFOAM: The Open Source CFD Toolbox           |
|  \\    /   O peration     | Version:  v2012                                 |
|   \\  /    A nd           | Website:  www.openfoam.com                      |
|    \\/     M anipulation  |                                                 |
\*---------------------------------------------------------------------------*/
FoamFile
{
    version     2.0;
    format      ascii;
    class       volVectorField;
    location    "16";
    object      D_0;
}
// * * * * * * * * * * * * * * * * * * * * * * * * * * * * * * * * * * * * * //

dimensions      [0 1 0 0 0 0 0];


internalField   nonuniform List<vector> 
30465
(
(0.00178915 -0.000122287 0)
(0.00210135 -3.46778e-05 0)
(0.000946183 -0.000603841 0)
(0.00195565 -0.000129158 0)
(0.00212992 -0.000173601 0)
(0.00213259 -0.000175737 0)
(0.000858907 -0.000620932 0)
(0.000216584 -0.00144361 0)
(0.000608791 -0.00103335 0)
(0.00123176 -0.000396083 0)
(0.00014667 -0.0014801 0)
(0.00106477 -0.000398213 0)
(0.0018142 -8.5283e-05 0)
(0.00188935 -0.000110814 0)
(0.00148107 -0.000250881 0)
(0.00081623 -0.000695006 0)
(0.00212235 -0.000157442 0)
(0.00130633 -0.000461349 0)
(0.000617174 -0.00102006 0)
(0.00232844 -0.000113273 0)
(0.00211546 -5.64876e-06 0)
(0.00211848 -5.45213e-06 0)
(0.00193991 -3.03987e-05 0)
(0.000452978 -0.00115802 0)
(0.00193577 -3.12437e-05 0)
(0.00235343 -5.58043e-05 0)
(0.00234868 -5.73468e-05 0)
(0.00214675 -3.54923e-05 0)
(0.00226098 -2.76261e-05 0)
(0.00107697 -0.000746896 0)
(0.00164584 -0.00013356 0)
(0.00246049 -2.5327e-05 0)
(0.00179113 -0.000105687 0)
(0.00201269 -0.000109582 0)
(0.00179609 -0.000209433 0)
(0.00220707 -2.43591e-05 0)
(0.000570263 -0.00104832 0)
(0.00162763 -0.000624208 0)
(0.00206698 -0.000108802 0)
(0.00107662 -0.000391458 0)
(0.0020389 -1.80816e-05 0)
(0.00148216 -0.000222455 0)
(0.000435153 -0.00117365 0)
(0.00211368 -3.07305e-05 0)
(0.00212014 -3.03e-05 0)
(0.0007147 -0.000962344 0)
(0.00127749 -0.000318502 0)
(0.00210625 -3.43893e-05 0)
(0.00240916 -4.58026e-05 0)
(0.0020969 -1.24072e-05 0)
(0.00209449 -1.31184e-05 0)
(0.00195702 -8.93805e-05 0)
(0.000288808 -0.00120429 0)
(0.000278103 -0.00122312 0)
(0.00107121 -0.0010309 0)
(0.00201532 -4.75023e-05 0)
(0.00107937 -0.00104336 0)
(0.00224354 -8.56925e-05 0)
(0.00227568 -3.04237e-05 0)
(0.00250133 -6.89893e-06 0)
(0.00250017 -6.75921e-06 0)
(0.00115506 -0.000487485 0)
(0.00223306 -9.53878e-07 0)
(0.00175632 -0.000180735 0)
(0.0017593 -0.0001781 0)
(0.00203023 -1.05197e-05 0)
(0.00165578 -0.000207775 0)
(0.000629998 -0.00110994 0)
(0.0021212 -1.32161e-06 0)
(0.00213905 -7.68038e-05 0)
(0.00191406 -3.65544e-05 0)
(0.00243057 -5.24265e-05 0)
(0.000681936 -0.000650533 0)
(0.00119703 -0.000334683 0)
(0.0017898 -0.000107614 0)
(0.00109806 -0.000382583 0)
(0.00235084 -1.35211e-05 0)
(0.00235213 -1.2781e-05 0)
(0.00171851 -0.000344835 0)
(0.000169136 -0.00146496 0)
(0.000559424 -0.000834934 0)
(0.000543712 -0.000847405 0)
(0.00210804 -0.000138072 0)
(0.00227843 -5.61431e-05 0)
(0.00188332 -7.95324e-05 0)
(0.00244616 -3.91421e-05 0)
(0.00227738 -3.12181e-05 0)
(0.00110719 -0.00037692 0)
(0.0021469 -0.000191585 0)
(0.00216421 -1.40523e-05 0)
(0.00248348 -1.87596e-05 0)
(0.00248242 -1.88612e-05 0)
(0.00212646 -0.000162055 0)
(0.00212833 -0.000159425 0)
(0.00122824 -0.000402701 0)
(0.00240014 -2.05493e-05 0)
(0.00227123 -3.52451e-05 0)
(0.00227652 -3.50015e-05 0)
(0.000232604 -0.00140507 0)
(0.00229881 -2.88887e-05 0)
(0.00202053 -0.000147711 0)
(0.00208578 -7.24769e-06 0)
(0.00208586 -7.59787e-06 0)
(0.0016123 -0.000131066 0)
(0.00191049 -7.97135e-05 0)
(0.00155732 -0.000246742 0)
(0.00156685 -0.000245483 0)
(0.00236958 -6.44198e-05 0)
(0.00190649 -3.82208e-05 0)
(0.00200272 -3.37412e-05 0)
(0.000898507 -0.000681276 0)
(0.00196832 -0.000155489 0)
(0.00174095 -0.000207332 0)
(0.00174715 -0.000208122 0)
(0.00173064 -9.90463e-05 0)
(0.00173543 -9.66443e-05 0)
(0.00207655 -4.30821e-06 0)
(0.00243733 -5.09505e-05 0)
(0.00243272 -6.74486e-06 0)
(0.000264885 -0.001311 0)
(0.00100388 -0.000434505 0)
(0.00220338 -2.46115e-05 0)
(0.00193259 -5.21833e-05 0)
(0.00205395 -1.87796e-05 0)
(0.00212901 -3.19279e-05 0)
(0.00212832 -3.08546e-05 0)
(0.00210916 -2.12835e-06 0)
(0.0018102 -0.000179362 0)
(0.00239891 -8.84282e-05 0)
(0.00204374 -3.29523e-05 0)
(0.000492553 -0.00123674 0)
(0.00245494 -4.35457e-06 0)
(0.000880957 -0.000693172 0)
(0.000102398 -0.00153792 0)
(0.00232338 -8.72903e-05 0)
(0.00205472 -9.25809e-06 0)
(0.00070484 -0.000648945 0)
(0.00224261 -5.38479e-05 0)
(0.000522893 -0.00113724 0)
(0.000712345 -0.000640906 0)
(0.00191312 -4.87356e-05 0)
(0.000112992 -0.00154462 0)
(0.00206378 -8.69223e-06 0)
(0.00203633 -1.87793e-05 0)
(0.00225984 -1.5724e-05 0)
(0.00115379 -0.000520327 0)
(0.00250126 -1.33231e-05 0)
(0.00249872 -1.40067e-05 0)
(0.0015415 -0.000173368 0)
(0.00254455 -2.79128e-07 0)
(0.00233341 -0.000161513 0)
(0.00147179 -0.000192393 0)
(0.00240962 -3.68361e-05 0)
(0.00241228 -3.67414e-05 0)
(0.00203135 -0.000180406 0)
(0.00186663 -0.000109463 0)
(0.00160411 -0.000224803 0)
(0.00208274 -0.000118327 0)
(0.00135585 -0.000267867 0)
(0.00213795 -2.70392e-05 0)
(0.00214219 -2.6309e-05 0)
(0.0013494 -0.000272645 0)
(0.00155167 -0.000204608 0)
(0.00154669 -0.000207971 0)
(0.00206758 -7.3436e-06 0)
(0.00242787 -1.6712e-06 0)
(0.00230493 -3.39063e-05 0)
(0.000274968 -0.00141484 0)
(0.00224765 -6.09961e-05 0)
(0.00137609 -0.00027708 0)
(0.0018058 -6.96268e-05 0)
(0.00246168 -1.16125e-05 0)
(0.00238018 -2.48837e-05 0)
(0.00238423 -2.49025e-05 0)
(0.00223203 -5.43345e-05 0)
(0.00135323 -0.000290867 0)
(0.00182218 -0.000183782 0)
(0.00167991 -0.000104339 0)
(0.00207062 -6.15474e-06 0)
(0.000110242 -0.00154752 0)
(0.000932426 -0.000518968 0)
(0.00171235 -0.000130774 0)
(0.00172017 -0.000128806 0)
(0.00219124 -0.000192168 0)
(0.00238659 -9.28707e-05 0)
(0.00180472 -9.70538e-05 0)
(0.000381127 -0.00118908 0)
(0.00200123 -0.000112906 0)
(0.00243689 -6.61491e-06 0)
(0.00213768 -0.000156283 0)
(0.00127755 -0.000320347 0)
(0.00238177 -5.75671e-05 0)
(0.00202186 -1.36344e-05 0)
(0.000129492 -0.00153323 0)
(0.00210614 -0.000152273 0)
(0.00210323 -0.000151046 0)
(0.000868491 -0.000609952 0)
(0.00203889 -8.78695e-05 0)
(0.00214355 -0.000115574 0)
(0.00178128 -0.000124805 0)
(0.0024536 -1.00572e-05 0)
(0.00230325 -2.90132e-05 0)
(0.00252538 -3.81606e-06 0)
(0.000117849 -0.00152634 0)
(0.00170226 -9.72091e-05 0)
(0.00191615 -4.73171e-05 0)
(0.00205179 -1.89962e-05 0)
(0.000212488 -0.00146537 0)
(0.0016287 -0.000123185 0)
(0.00213473 -2.12239e-05 0)
(0.000935047 -0.000592619 0)
(0.00192687 -4.39171e-05 0)
(0.00211226 -7.70335e-07 0)
(0.00231392 -4.11285e-05 0)
(0.000730811 -0.000949346 0)
(0.00159483 -0.000225935 0)
(0.00158668 -0.000229687 0)
(0.00233638 -6.22853e-05 0)
(0.00234041 -6.05954e-05 0)
(0.00128463 -0.000315516 0)
(0.00186864 -0.000176577 0)
(0.00183978 -9.72273e-05 0)
(0.00241924 -3.37927e-05 0)
(0.00231388 -8.88252e-05 0)
(0.00169487 -0.000218213 0)
(0.00202298 -7.19856e-05 0)
(0.00116456 -0.000478223 0)
(0.00148921 -0.000220644 0)
(0.00216291 -1.3432e-05 0)
(0.001808 -8.65858e-05 0)
(0.00114331 -0.000494186 0)
(0.00236687 -2.96336e-05 0)
(0.00236978 -2.99235e-05 0)
(0.00180921 -0.000243934 0)
(0.00190965 -6.04228e-05 0)
(0.0020662 -7.03725e-06 0)
(0.0018573 -0.000194605 0)
(0.00186323 -0.000191918 0)
(0.000703415 -0.000736803 0)
(0.000719798 -0.000719886 0)
(0.00132839 -0.000312158 0)
(0.00181381 -8.30976e-05 0)
(0.00186689 -6.53708e-05 0)
(0.00174331 -0.000166848 0)
(0.00222059 -4.30205e-05 0)
(0.00148579 -0.000261464 0)
(0.00163261 -0.000122006 0)
(0.0017848 -8.56985e-05 0)
(0.000691557 -0.00104589 0)
(0.00190261 -6.34869e-05 0)
(0.00207018 -9.18704e-05 0)
(0.00204344 -3.64073e-05 0)
(0.00204428 -3.38902e-05 0)
(0.00116712 -0.000491688 0)
(0.00171418 -9.6721e-05 0)
(0.000515283 -0.00121893 0)
(0.00132334 -0.000690942 0)
(0.00133427 -0.000675879 0)
(0.0014996 -0.00017486 0)
(3.89749e-05 -0.00155121 0)
(0.00243535 -5.0297e-05 0)
(0.00186714 -5.61269e-05 0)
(0.00185791 -5.86112e-05 0)
(0.00202895 -4.82916e-05 0)
(0.00109305 -0.000607515 0)
(0.00110045 -0.000594351 0)
(0.00205825 -8.11136e-05 0)
(0.00125605 -0.000293918 0)
(0.00174477 -9.37401e-05 0)
(0.00207794 -7.13639e-05 0)
(0.00242722 -2.21686e-06 0)
(0.00227291 -0.000129597 0)
(0.00222962 -2.80295e-05 0)
(0.00212373 -0.000174007 0)
(0.00191608 -7.86481e-05 0)
(0.00151641 -0.000309814 0)
(0.00185029 -0.000249462 0)
(0.0018384 -5.47285e-05 0)
(0.000971223 -0.000751127 0)
(0.00210248 -4.90186e-06 0)
(0.000954056 -0.000761387 0)
(0.00193157 -0.000200611 0)
(0.00184156 -0.000249579 0)
(0.00219415 -0.000109781 0)
(0.00213059 -2.16299e-05 0)
(0.0022035 -9.4754e-05 0)
(0.00148189 -0.000191608 0)
(0.00235095 -6.38352e-05 0)
(0.00254337 -2.36523e-07 0)
(0.0023309 -0.000163563 0)
(0.00169502 -9.98847e-05 0)
(0.00176301 -8.14372e-05 0)
(0.00193859 -5.12465e-05 0)
(0.0012575 -0.000666434 0)
(0.00246932 -8.6188e-06 0)
(0.00234736 -8.77743e-05 0)
(0.00244458 -2.62346e-06 0)
(0.002096 -2.291e-06 0)
(0.00209791 -2.13045e-06 0)
(0.00232513 -2.01671e-05 0)
(0.00194471 -0.00018778 0)
(0.00195054 -0.000186406 0)
(0.000669913 -0.000660277 0)
(0.00214741 -1.06791e-05 0)
(0.00221844 -9.31855e-06 0)
(0.00124156 -0.000345519 0)
(0.00125229 -0.000337082 0)
(0.00245053 -1.14276e-05 0)
(0.00189265 -0.000140806 0)
(0.00178511 -0.000465417 0)
(0.00181906 -8.78216e-05 0)
(0.00181661 -8.71653e-05 0)
(0.000222258 -0.00143991 0)
(0.00238895 -7.85236e-05 0)
(0.00089525 -0.00082738 0)
(0.00171018 -0.000235968 0)
(6.2618e-05 -0.00154765 0)
(5.5961e-05 -0.00154673 0)
(0.00129968 -0.000267951 0)
(0.000929522 -0.001097 0)
(0.00142915 -0.000222142 0)
(0.000910888 -0.0010966 0)
(0.00133835 -0.000307823 0)
(0.00203053 -1.88162e-05 0)
(0.00206732 -3.7775e-05 0)
(0.00206983 -3.65093e-05 0)
(0.00123488 -0.000922957 0)
(0.00160355 -0.000244559 0)
(0.0019771 -5.8692e-05 0)
(0.000979697 -0.000640781 0)
(0.00207919 -3.19842e-07 0)
(0.00114715 -0.000429016 0)
(0.00202447 -1.84648e-05 0)
(0.000175412 -0.00149217 0)
(0.00194893 -7.46757e-05 0)
(0.00145922 -0.000239333 0)
(0.00247737 -2.3501e-05 0)
(0.0019913 -2.00664e-05 0)
(0.00199555 -1.94527e-05 0)
(0.00141167 -0.000224952 0)
(0.00150583 -0.000180356 0)
(0.00195263 -9.14808e-05 0)
(0.00104211 -0.000602361 0)
(0.00230339 -3.32195e-05 0)
(0.00201732 -5.21404e-05 0)
(0.00140199 -0.000220187 0)
(0.00139623 -0.000222263 0)
(0.000799476 -0.000584597 0)
(0.00150043 -0.00029193 0)
(0.00251342 -9.03426e-06 0)
(0.00144353 -0.000198594 0)
(0.00220362 -1.44731e-05 0)
(0.000386036 -0.00110272 0)
(0.000165073 -0.0015015 0)
(0.00183191 -6.83342e-05 0)
(0.00154727 -0.000203075 0)
(0.00205143 -9.96885e-06 0)
(0.000669912 -0.000720545 0)
(0.00189004 -0.000107406 0)
(0.00194893 -0.000184579 0)
(0.00145184 -0.000235891 0)
(0.00145183 -0.000232648 0)
(0.0023717 -4.90677e-05 0)
(0.00180827 -0.000236417 0)
(0.00194681 -0.000180327 0)
(0.000925048 -0.00052721 0)
(0.000179176 -0.0014534 0)
(0.00212734 -4.4026e-07 0)
(0.00201325 -1.52917e-05 0)
(0.00166281 -0.000114244 0)
(0.00107164 -0.000988534 0)
(0.00248417 -1.79759e-05 0)
(0.00055129 -0.00106339 0)
(0.00147076 -0.000427852 0)
(0.00147514 -0.000415728 0)
(0.0014756 -0.000209943 0)
(0.00223327 -0.000161333 0)
(0.00174147 -0.000139411 0)
(0.00225263 -6.09499e-05 0)
(0.00208586 -0.000158154 0)
(0.00173251 -0.000250259 0)
(0.00225026 -0.000131055 0)
(0.00230954 -0.000104836 0)
(0.00152894 -0.000218033 0)
(0.000381196 -0.00111582 0)
(0.00217811 -1.29793e-05 0)
(0.00204357 -2.21026e-05 0)
(0.00100404 -0.000465159 0)
(0.00101766 -0.000456094 0)
(0.00204268 -2.21009e-05 0)
(0.000903162 -0.000828392 0)
(0.00207487 -6.61698e-06 0)
(0.00215037 -1.07793e-05 0)
(0.00228862 -9.77516e-06 0)
(0.00179971 -9.5096e-05 0)
(0.00227147 -0.00014778 0)
(0.00205676 -1.24557e-05 0)
(0.00236174 -2.90629e-06 0)
(0.00226725 -0.000164064 0)
(0.00227117 -0.000161201 0)
(0.00251128 -9.16775e-06 0)
(0.00250605 -1.05771e-05 0)
(0.00172289 -0.000230523 0)
(0.002123 -3.01641e-07 0)
(0.00181994 -0.000223435 0)
(0.0018137 -6.75392e-05 0)
(0.00162585 -0.000124552 0)
(0.0019222 -0.000146593 0)
(0.00221906 -0.000111686 0)
(0.0022174 -9.85913e-06 0)
(0.0023301 -0.000145738 0)
(0.00165225 -0.000231803 0)
(0.0021338 -2.66146e-05 0)
(0.00137127 -0.000245303 0)
(0.00202698 -0.000146568 0)
(0.00190977 -0.000205949 0)
(0.00217542 -2.16534e-05 0)
(0.000268152 -0.00139248 0)
(0.00108064 -0.000391788 0)
(0.00107098 -0.000397228 0)
(0.00208309 -1.83762e-05 0)
(0.000197678 -0.00147461 0)
(0.000818775 -0.00074641 0)
(0.00160208 -0.000161206 0)
(0.00237382 -6.27472e-06 0)
(0.00161049 -0.00015698 0)
(0.000746428 -0.000774728 0)
(0.00172823 -8.98881e-05 0)
(0.00194978 -0.000129219 0)
(0.00156355 -0.000163548 0)
(0.000784117 -0.000865501 0)
(0.00227788 -4.43198e-05 0)
(0.00176262 -0.000361953 0)
(0.00216418 -0.000166043 0)
(0.00216465 -0.000168031 0)
(0.00236268 -0.000151449 0)
(0.00256672 4.60348e-07 0)
(0.00205303 -0.000197019 0)
(0.00104302 -0.000823291 0)
(0.00217847 -8.11529e-07 0)
(0.00102928 -0.000609885 0)
(0.00187235 -0.000104768 0)
(0.00210891 -0.000110352 0)
(0.00134409 -0.000297579 0)
(0.0025119 -8.12833e-06 0)
(0.00242725 -2.5147e-05 0)
(0.00170909 -9.50592e-05 0)
(0.00171637 -9.25796e-05 0)
(0.000675912 -0.000704713 0)
(0.00195443 -0.000140487 0)
(0.00179817 -9.42117e-05 0)
(0.0018796 -5.24553e-05 0)
(0.00198791 -1.99174e-05 0)
(0.00164204 -0.000238486 0)
(0.00182028 -0.000181508 0)
(0.00118094 -0.000332685 0)
(0.00211611 -0.000145042 0)
(0.00194629 -3.10435e-05 0)
(0.00194708 -3.05133e-05 0)
(0.00222949 -9.06344e-07 0)
(0.00231863 -8.54213e-05 0)
(0.00231342 -8.73699e-05 0)
(0.000168199 -0.00149458 0)
(0.00233572 -2.1759e-05 0)
(0.00209749 -2.99462e-05 0)
(0.00182703 -0.000223096 0)
(0.00220588 -0.000107249 0)
(0.00247708 -7.19564e-06 0)
(0.00202251 -0.000160264 0)
(0.00202696 -0.000158035 0)
(0.000710384 -0.00084382 0)
(0.00069013 -0.000858859 0)
(0.00208813 -0.000183896 0)
(0.00185445 -5.21597e-05 0)
(0.00245744 -3.31866e-05 0)
(0.00126886 -0.000323981 0)
(0.00241478 -2.30274e-05 0)
(0.00241116 -2.29546e-05 0)
(0.00206387 -9.53304e-06 0)
(0.00189248 -4.26924e-05 0)
(0.00203212 -5.37082e-05 0)
(0.00203023 -5.2496e-05 0)
(0.00234759 -8.8702e-05 0)
(0.0018928 -4.16413e-05 0)
(0.00142825 -0.00024325 0)
(0.00215033 -3.45916e-05 0)
(0.00159705 -0.000238769 0)
(0.0015878 -0.000241467 0)
(0.001889 -5.84524e-05 0)
(0.00164663 -0.000240785 0)
(0.00200278 -0.000108478 0)
(0.0024554 -3.31172e-07 0)
(0.00222295 -0.000191481 0)
(0.00127838 -0.000283706 0)
(0.00126552 -0.000484511 0)
(0.00112252 -0.000364189 0)
(0.00191798 -3.59809e-05 0)
(0.00235855 -3.73199e-05 0)
(0.002042 -7.10443e-05 0)
(0.00193311 -4.96056e-05 0)
(0.000275859 -0.00142195 0)
(0.00240816 -5.06915e-05 0)
(0.00240338 -5.23676e-05 0)
(0.0013323 -0.000889764 0)
(0.00201503 -1.85146e-05 0)
(0.00181897 -0.000217458 0)
(1.39049e-05 -0.00162668 0)
(0.000828819 -0.000652958 0)
(0.00201785 -1.42886e-05 0)
(0.000989421 -0.000637935 0)
(0.00113426 -0.000581971 0)
(0.000663251 -0.000716845 0)
(0.00177426 -7.3247e-05 0)
(0.00246279 -2.49921e-05 0)
(0.002089 -3.16342e-05 0)
(0.00208476 -3.1422e-05 0)
(0.00200694 -2.42919e-05 0)
(0.00205524 -1.79771e-05 0)
(0.00199602 -0.000131208 0)
(0.00149876 -0.000182502 0)
(0.000908931 -0.00108673 0)
(0.00163376 -0.000154341 0)
(0.00140138 -0.000229915 0)
(0.002052 -5.31977e-05 0)
(0.00245113 -4.43282e-05 0)
(0.00175701 -0.000165943 0)
(0.000778901 -0.000790048 0)
(0.000353623 -0.00119366 0)
(0.00178903 -0.000171141 0)
(0.00175228 -0.000363703 0)
(0.00223782 -5.32797e-05 0)
(0.00202143 -1.37179e-05 0)
(0.00152177 -0.000253777 0)
(0.00210696 -2.09844e-06 0)
(0.0012609 -0.000394675 0)
(0.00228016 -4.77086e-06 0)
(0.00131417 -0.000888403 0)
(0.0023125 -4.04186e-05 0)
(5.33367e-05 -0.0015976 0)
(0.00152787 -0.000300626 0)
(0.00182613 -6.06757e-05 0)
(0.00165424 -0.00013075 0)
(0.00184018 -9.55495e-05 0)
(0.000267973 -0.00133467 0)
(0.00113618 -0.000872312 0)
(0.00147988 -0.000224897 0)
(0.00240228 -6.68886e-05 0)
(0.00239802 -6.89984e-05 0)
(0.00158445 -0.000233518 0)
(0.00219314 -0.000171755 0)
(0.00162677 -0.000152387 0)
(0.000794718 -0.000801698 0)
(0.00219141 -0.000179947 0)
(0.00208181 -0.000160344 0)
(0.00251446 -7.65206e-06 0)
(0.00162271 -0.000192194 0)
(0.00153061 -0.000499302 0)
(0.0024132 -1.94703e-05 0)
(0.00178373 -7.80075e-05 0)
(0.00155665 -0.000307416 0)
(0.00170511 -0.000352252 0)
(0.002043 -1.33657e-05 0)
(0.00171169 -0.000146974 0)
(0.00125327 -0.000926202 0)
(0.000983385 -0.000905354 0)
(0.00193855 -3.33881e-05 0)
(0.0019309 -3.5076e-05 0)
(0.0021323 -2.99942e-05 0)
(0.00204312 -1.05531e-05 0)
(0.00204725 -9.86361e-06 0)
(0.00149505 -0.000208976 0)
(0.00198456 -9.27873e-05 0)
(0.00206274 -1.03831e-05 0)
(0.000261709 -0.00141566 0)
(0.00210229 -0.000139343 0)
(0.000244048 -0.00143218 0)
(0.00246627 -1.86097e-05 0)
(0.00246295 -1.95929e-05 0)
(0.00168672 -0.000219377 0)
(0.0019704 -0.000124862 0)
(0.00103964 -0.000480857 0)
(0.00223499 -7.30825e-05 0)
(0.00208281 -4.14338e-06 0)
(0.00217497 -1.34372e-05 0)
(0.00252878 -3.29611e-06 0)
(0.000137831 -0.00148778 0)
(0.00223759 -0.000160728 0)
(0.00224267 -9.4162e-05 0)
(0.00203554 -5.96619e-05 0)
(0.00203861 -6.03812e-05 0)
(0.00225045 -0.000115423 0)
(0.00204818 -1.12972e-05 0)
(0.00236568 -0.000151598 0)
(0.00256971 5.2015e-07 0)
(0.00115575 -0.000495893 0)
(0.00215689 -5.51824e-05 0)
(0.00216213 -5.5172e-05 0)
(0.0015339 -0.000176645 0)
(0.00178353 -0.000213366 0)
(0.00191368 -4.29478e-05 0)
(0.001787 -0.000146773 0)
(0.00200701 -1.83286e-05 0)
(0.00213573 -2.50322e-05 0)
(0.00200916 -1.83738e-05 0)
(0.000800613 -0.000853689 0)
(0.00228684 -1.03147e-05 0)
(0.00220645 -9.04409e-06 0)
(0.00221001 -9.19215e-06 0)
(0.00149066 -0.000187627 0)
(0.00182397 -0.000166406 0)
(0.00118376 -0.00033917 0)
(0.0011692 -0.000347135 0)
(0.000495563 -0.000815337 0)
(0.00219186 -0.00018995 0)
(0.000273198 -0.00123682 0)
(0.00174211 -9.95123e-05 0)
(0.000192707 -0.00147996 0)
(0.00196627 -0.000126744 0)
(0.000231342 -0.00124724 0)
(0.00106308 -0.00051063 0)
(0.00231983 -2.29055e-05 0)
(0.00228905 -1.08037e-05 0)
(0.0016548 -0.000234646 0)
(0.00232359 -1.5843e-05 0)
(0.00204587 -2.79573e-05 0)
(0.000750172 -0.000959146 0)
(0.00223177 -2.71006e-05 0)
(0.00184305 -5.61906e-05 0)
(0.00232835 -2.63835e-05 0)
(0.00196201 -0.000144542 0)
(0.00212733 -1.78557e-06 0)
(0.00155492 -0.000196337 0)
(0.00131497 -0.000292578 0)
(0.00243508 -2.81249e-05 0)
(0.00242909 -2.9243e-05 0)
(0.00241496 -3.4642e-05 0)
(0.0016606 -0.000115656 0)
(0.00238224 -2.73833e-05 0)
(0.00205506 -1.88377e-05 0)
(0.00208868 -1.79218e-05 0)
(0.00174296 -0.000140995 0)
(0.00145869 -0.000755869 0)
(0.00202518 -6.7666e-05 0)
(0.00241066 -1.92806e-05 0)
(0.00200092 -2.11421e-05 0)
(0.0015008 -0.000208089 0)
(0.00151485 -0.0001962 0)
(0.000454507 -0.00116518 0)
(0.00232221 -1.9918e-05 0)
(0.00211053 -0.000108275 0)
(0.00222491 -0.000109979 0)
(0.000978552 -0.000915647 0)
(0.00201414 -1.52402e-05 0)
(0.00203176 -2.04224e-05 0)
(0.001827 -8.81597e-05 0)
(0.00231894 -1.41416e-05 0)
(0.00190931 -4.48452e-05 0)
(0.00239598 -6.73856e-05 0)
(0.00224581 -0.000116288 0)
(0.0010643 -0.000398101 0)
(0.00208856 -5.91067e-06 0)
(0.00241089 -2.96636e-05 0)
(0.00241511 -2.8753e-05 0)
(0.00224767 -9.23792e-05 0)
(0.0025568 1.27996e-06 0)
(0.00238893 -0.00011002 0)
(0.00204858 -4.31177e-05 0)
(0.00205417 -4.24841e-05 0)
(0.00194853 -3.02133e-05 0)
(0.00022135 -0.00145745 0)
(0.00237521 -8.41845e-05 0)
(0.00189378 -0.000123636 0)
(0.00212035 -3.07023e-07 0)
(0.00115502 -0.000845353 0)
(0.00080108 -0.000696971 0)
(0.00212221 -0.00015933 0)
(0.00218503 -0.000144751 0)
(6.94331e-05 -0.00152576 0)
(0.00229255 -3.45369e-05 0)
(0.00190169 -3.91193e-05 0)
(0.00159091 -0.000137476 0)
(0.00146734 -0.000237784 0)
(0.00225629 -0.000120305 0)
(0.00163893 -0.000133681 0)
(1.90575e-05 -0.00140882 0)
(0.000372495 -0.00133293 0)
(0.00237228 -8.60795e-05 0)
(0.00245577 -3.04214e-05 0)
(0.00245188 -3.19382e-05 0)
(0.000170439 -0.00136923 0)
(0.00188936 -7.89831e-05 0)
(0.00231125 -9.26827e-05 0)
(0.00168289 -0.000217954 0)
(0.00186268 -0.000177655 0)
(0.00232353 -2.2968e-05 0)
(0.00145266 -0.000194378 0)
(0.00241668 -1.62276e-05 0)
(0.00241672 -1.56049e-05 0)
(0.000855568 -0.000593701 0)
(0.00103416 -0.000648279 0)
(0.000846717 -0.000594987 0)
(0.000775411 -0.000646185 0)
(0.00178096 -0.000147435 0)
(0.00201515 -6.43415e-05 0)
(0.00202079 -6.41057e-05 0)
(0.000223046 -0.00146041 0)
(0.00174175 -0.000249022 0)
(0.000439487 -0.00118546 0)
(0.000308903 -0.00130496 0)
(0.00233125 -6.70367e-05 0)
(0.000299607 -0.0013088 0)
(0.0023656 -9.25208e-06 0)
(0.00236926 -8.66435e-06 0)
(0.00153711 -0.000163508 0)
(0.000798904 -0.00065673 0)
(0.00195363 -0.000129698 0)
(0.000866382 -0.000529704 0)
(0.00088077 -0.000519281 0)
(0.00173718 -8.56424e-05 0)
(0.00218037 -2.15678e-05 0)
(0.00116065 -0.000342474 0)
(0.0011747 -0.000334707 0)
(0.00157952 -0.000499344 0)
(0.00118828 -0.000349782 0)
(0.000585678 -0.000853212 0)
(0.00241304 -4.36621e-05 0)
(0.00188534 -0.000197946 0)
(0.00105458 -0.000810065 0)
(0.0016003 -0.000133837 0)
(0.0021008 -0.000125549 0)
(0.00210501 -2.79019e-05 0)
(0.00209979 -2.81774e-05 0)
(0.00165905 -0.000137525 0)
(0.000681898 -0.00120094 0)
(0.00165085 -0.000138962 0)
(0.00066813 -0.00120327 0)
(0.00248641 -1.21646e-05 0)
(0.001935 -0.000198384 0)
(0.00161608 -0.000237636 0)
(0.00172826 -8.82883e-05 0)
(0.00198111 -2.17657e-05 0)
(0.00198532 -2.11742e-05 0)
(0.00222399 -3.77267e-06 0)
(0.00222763 -3.94286e-06 0)
(0.00148768 -0.000296254 0)
(0.00093317 -0.000984734 0)
(0.00116472 -0.000887709 0)
(0.00166433 -0.000260777 0)
(0.0012598 -0.000325946 0)
(0.00213549 -0.000184935 0)
(0.00183673 -6.19938e-05 0)
(0.00104948 -0.000471635 0)
(0.00120133 -0.00058304 0)
(0.00253045 -3.84949e-06 0)
(0.000650313 -0.0010997 0)
(0.00128298 -0.000280355 0)
(0.00131132 -0.000412508 0)
(0.00199264 -5.67696e-05 0)
(0.00151117 -0.000199086 0)
(0.00202006 -1.53099e-05 0)
(0.00182969 -0.000117133 0)
(0.00202457 -1.44708e-05 0)
(0.000563088 -0.00115557 0)
(0.00225571 -1.60957e-05 0)
(0.00195826 -0.00012793 0)
(0.00151697 -0.000173827 0)
(0.00154398 -0.00048942 0)
(0.0022112 -7.09401e-06 0)
(0.00221164 -6.63887e-06 0)
(0.00236471 -1.2518e-05 0)
(0.00162301 -0.000127307 0)
(0.00162644 -0.000125339 0)
(0.00213087 -2.60255e-06 0)
(0.00209218 -0.000111602 0)
(0.00188477 -5.30589e-05 0)
(0.00222543 -8.53844e-05 0)
(0.00155694 -0.000224978 0)
(0.00155564 -0.000228541 0)
(0.00245912 -4.48401e-06 0)
(0.00119321 -0.000581571 0)
(0.00175655 -8.40542e-05 0)
(0.00229861 -1.42394e-05 0)
(0.00163991 -0.000360316 0)
(0.00247539 -2.35891e-05 0)
(0.00247144 -2.48639e-05 0)
(0.000232498 -0.0014008 0)
(0.00155662 -0.000695362 0)
(0.00227249 -0.000143988 0)
(0.00226937 -0.000146378 0)
(0.0017336 -8.66019e-05 0)
(0.00194339 -3.00204e-05 0)
(0.00193849 -3.09388e-05 0)
(0.000556339 -0.00111354 0)
(0.00241108 -3.58647e-05 0)
(0.00144864 -0.00020359 0)
(0.00226998 -0.000135253 0)
(0.00193153 -3.61339e-05 0)
(0.00194038 -0.000249352 0)
(0.00238785 -9.09247e-05 0)
(0.00221471 -1.38095e-05 0)
(0.0020826 -2.94148e-06 0)
(0.0016604 -0.000124981 0)
(0.00236636 -1.63711e-05 0)
(0.00236401 -1.71658e-05 0)
(0.0014163 -0.000213261 0)
(0.000593374 -0.000835773 0)
(0.00250812 -6.19572e-06 0)
(0.00155758 -0.000171577 0)
(0.00206099 -7.88551e-06 0)
(0.00211728 -1.99327e-07 0)
(0.00209455 -3.09575e-05 0)
(0.000574365 -0.000866898 0)
(0.00204843 -1.70089e-05 0)
(0.00227124 -3.04427e-05 0)
(0.00241196 -5.07505e-05 0)
(0.00241343 -4.95877e-05 0)
(0.00186398 -0.000253973 0)
(0.00221571 -0.000155564 0)
(0.00221008 -0.000157297 0)
(0.00222592 -6.72974e-06 0)
(0.00222984 -6.58494e-06 0)
(0.00209731 -2.52759e-06 0)
(0.00226691 -7.89346e-05 0)
(0.00226548 -8.02745e-05 0)
(0.00207628 -4.40482e-06 0)
(0.00193128 -3.45295e-05 0)
(0.000101458 -0.00153932 0)
(0.00232194 -4.72754e-05 0)
(0.00198141 -5.72187e-05 0)
(0.00229639 -0.000146404 0)
(0.00216288 -0.00015574 0)
(0.00222662 -2.32734e-06 0)
(0.000660849 -0.000722905 0)
(0.00144047 -0.000236481 0)
(0.00078104 -0.000781758 0)
(0.00188695 -0.000148083 0)
(0.00205803 -0.000196569 0)
(0.000830836 -0.000737592 0)
(0.00143613 -0.000311587 0)
(0.00142495 -0.000314624 0)
(0.000125547 -0.00153488 0)
(0.00203856 -3.00202e-05 0)
(5.33292e-05 -0.00159647 0)
(0.00172982 -8.99532e-05 0)
(0.00224241 -0.000103126 0)
(0.00224452 -0.000101136 0)
(0.00173104 -8.68919e-05 0)
(0.00176557 -0.000102495 0)
(0.00209663 -4.03574e-06 0)
(0.000938994 -0.000479578 0)
(0.000940221 -0.000477629 0)
(0.00179587 -0.000160426 0)
(0.000726608 -0.00105946 0)
(0.00181716 -8.34492e-05 0)
(0.00180399 -0.000154529 0)
(0.000630803 -0.00121948 0)
(0.00239066 -7.88482e-05 0)
(0.0011937 -0.000344769 0)
(0.00253949 -2.08602e-06 0)
(0.00203491 -2.6757e-05 0)
(0.00144176 -0.000326815 0)
(0.00225416 -1.47894e-06 0)
(0.000817432 -0.00055383 0)
(0.00225894 -4.34626e-05 0)
(0.001092 -0.00038994 0)
(0.00161492 -0.000138942 0)
(0.00193294 -6.04993e-05 0)
(0.00127277 -0.000428252 0)
(0.00218807 -0.000137301 0)
(0.00182523 -0.000204358 0)
(0.00120696 -0.000373619 0)
(0.00222059 -0.000161952 0)
(0.00210872 -3.03154e-06 0)
(0.0011974 -0.000376529 0)
(0.001027 -0.000431845 0)
(0.00226212 -4.38052e-05 0)
(0.00211436 -4.14625e-05 0)
(0.002109 -4.13321e-05 0)
(0.00212359 -4.25226e-05 0)
(0.000647837 -0.00110804 0)
(0.0024467 -4.63138e-05 0)
(0.00206375 -1.91731e-05 0)
(0.00206897 -1.84027e-05 0)
(0.00225144 -0.000129318 0)
(0.00217746 -1.07691e-05 0)
(0.00230808 -2.82755e-05 0)
(0.0022011 -4.22436e-06 0)
(0.00203879 -0.000104199 0)
(0.00177562 -8.10128e-05 0)
(0.00219024 -0.000144423 0)
(0.00205281 -8.19109e-05 0)
(0.00213282 -7.70648e-05 0)
(0.00141144 -0.000225492 0)
(0.00136266 -0.000250948 0)
(0.00202517 -6.85133e-05 0)
(0.00185292 -0.000103031 0)
(0.0016661 -0.000237609 0)
(0.00193356 -8.1618e-05 0)
(0.00211222 -0.000147309 0)
(0.00235105 -6.76113e-06 0)
(0.00114024 -0.000843536 0)
(0.00153072 -0.000250146 0)
(0.0020331 -8.91039e-05 0)
(0.00213413 -0.000158323 0)
(0.00233315 -3.71327e-05 0)
(0.00216677 -2.5069e-05 0)
(0.000591615 -0.000922583 0)
(0.0021418 -0.000113878 0)
(0.000914785 -0.000703797 0)
(0.00208054 -3.93267e-05 0)
(0.000154765 -0.0014233 0)
(0.00201735 -1.46826e-05 0)
(0.00202191 -1.38048e-05 0)
(0.00203669 -1.90851e-05 0)
(0.00217826 -6.04783e-07 0)
(0.00183924 -5.74873e-05 0)
(0.000963752 -0.000729873 0)
(0.00145272 -0.000199552 0)
(0.0019852 -3.371e-05 0)
(0.000947947 -0.00073712 0)
(0.00176621 -0.000103853 0)
(0.000805984 -0.000706907 0)
(0.00224801 -0.00015345 0)
(0.00106952 -0.000396097 0)
(0.00194995 -4.98237e-05 0)
(0.00161971 -0.000128147 0)
(0.00195322 -6.04378e-05 0)
(0.000520914 -0.00105371 0)
(0.00213032 -2.74683e-05 0)
(0.000874615 -0.000579137 0)
(0.0018888 -0.000148139 0)
(0.000882002 -0.000568867 0)
(0.0024423 -1.37942e-05 0)
(0.00125859 -0.000323826 0)
(0.00127227 -0.000390819 0)
(0.000625837 -0.000706595 0)
(0.00201445 -4.8963e-05 0)
(0.00237815 -7.89985e-05 0)
(0.00192963 -7.10306e-05 0)
(0.000700338 -0.000899766 0)
(0.00166397 -0.000113128 0)
(0.00218869 -0.000110978 0)
(0.000931833 -0.000617736 0)
(0.00068378 -0.000910997 0)
(0.00114271 -0.000626273 0)
(0.000992342 -0.000441636 0)
(0.00170013 -0.000215153 0)
(0.00182302 -0.000206974 0)
(0.00180083 -0.000104991 0)
(0.00165051 -0.000125925 0)
(0.00202637 -0.000181852 0)
(0.00234776 -6.60554e-06 0)
(0.00233818 -6.27213e-05 0)
(0.00149925 -0.00031196 0)
(0.00244159 -3.23327e-06 0)
(0.00176714 -0.000114245 0)
(0.00227634 -4.53782e-05 0)
(0.000545777 -0.00112693 0)
(0.00227432 -0.000172985 0)
(0.00249349 -1.7644e-06 0)
(0.00232404 -1.8477e-05 0)
(0.00232288 -1.77621e-05 0)
(0.0016819 -0.000206396 0)
(0.00147347 -0.000350954 0)
(0.000666769 -0.000862489 0)
(0.00147023 -0.000344492 0)
(0.00203891 -0.000102635 0)
(0.00165603 -0.000179196 0)
(0.00203962 -1.12686e-05 0)
(0.00195545 -6.70502e-05 0)
(0.000348904 -0.00130324 0)
(0.00117225 -0.000838699 0)
(0.00199861 -0.000125314 0)
(0.00207238 -7.10713e-06 0)
(0.00195294 -2.85561e-05 0)
(0.00196283 -7.52144e-05 0)
(0.00211871 -4.3377e-05 0)
(0.00196286 -2.82065e-05 0)
(0.00129769 -0.000281691 0)
(0.00223875 -2.14099e-06 0)
(0.00200014 -0.000168006 0)
(0.00180556 -0.000132939 0)
(0.00202922 -4.94631e-05 0)
(0.00236314 -3.40619e-05 0)
(0.00224707 -9.08496e-05 0)
(0.0021285 -0.000180139 0)
(1.51628e-05 -0.00153992 0)
(0.00250458 -6.63026e-06 0)
(0.00188052 -0.000200066 0)
(0.00011138 -0.00136491 0)
(0.00199863 -3.29901e-05 0)
(0.00229573 -9.79701e-05 0)
(0.00202966 -1.70902e-05 0)
(0.00211544 -1.62155e-06 0)
(0.00211525 -1.51213e-06 0)
(0.00163836 -0.00014102 0)
(0.00153307 -0.000583775 0)
(0.00112491 -0.000593855 0)
(0.00108462 -0.00102355 0)
(0.00151562 -0.000587156 0)
(0.00220796 -0.000115913 0)
(0.00135476 -0.00028303 0)
(0.00219799 -1.52255e-05 0)
(0.00206718 -9.03985e-05 0)
(0.00242522 -4.78346e-05 0)
(0.00186428 -6.36837e-05 0)
(0.00146617 -0.000209112 0)
(0.00147855 -0.000203465 0)
(0.00205306 -2.12726e-05 0)
(0.00118899 -0.00101073 0)
(0.00210627 -3.1637e-06 0)
(0.00116857 -0.00101512 0)
(0.00241791 -4.36935e-05 0)
(0.000215159 -0.00143098 0)
(0.00223266 -1.28048e-05 0)
(0.00223731 -1.29643e-05 0)
(0.000280005 -0.00119868 0)
(0.000263249 -0.00121388 0)
(0.00217161 -2.60673e-05 0)
(0.00157598 -0.000149017 0)
(0.00244877 -1.26004e-05 0)
(0.00113198 -0.000362034 0)
(0.00113167 -0.000361212 0)
(0.00230348 -9.83125e-05 0)
(0.00204133 -6.97387e-05 0)
(0.0014841 -0.000435688 0)
(0.00146519 -0.000193625 0)
(0.00221404 -0.000144304 0)
(0.00221933 -0.000143731 0)
(0.00040153 -0.000977771 0)
(0.00217344 -1.30143e-06 0)
(0.00237357 -2.42929e-05 0)
(0.000382863 -0.000988631 0)
(0.00197927 -3.54859e-05 0)
(0.00185227 -0.000278609 0)
(0.00203389 -1.74405e-05 0)
(0.00107953 -0.000966062 0)
(0.00207266 -0.000120546 0)
(0.00217263 -2.67608e-05 0)
(0.00208157 -3.81725e-05 0)
(0.0020461 -1.32625e-05 0)
(0.00184282 -0.000239139 0)
(0.00143082 -0.000248982 0)
(0.00162685 -0.000169877 0)
(0.00144168 -0.000243408 0)
(0.00227649 -0.000146851 0)