/*--------------------------------*- C++ -*----------------------------------*\
| =========                 |                                                 |
| \\      /  F ield         | OpenFOAM: The Open Source CFD Toolbox           |
|  \\    /   O peration     | Version:  v2012                                 |
|   \\  /    A nd           | Website:  www.openfoam.com                      |
|    \\/     M anipulation  |                                                 |
\*---------------------------------------------------------------------------*/
FoamFile
{
    version     2.0;
    format      ascii;
    class       volScalarField;
    location    "16";
    object      epsilonEq;
}
// * * * * * * * * * * * * * * * * * * * * * * * * * * * * * * * * * * * * * //

dimensions      [0 0 0 0 0 0 0];


internalField   nonuniform List<scalar> 
30465
(
0.000807322
0.000529434
0.00117993
0.000727998
0.000647381
0.000641535
0.00123454
0.00138113
0.00188994
0.00101175
0.00100884
0.00125011
0.000759595
0.000512339
0.00107321
0.00126067
0.000652719
0.000934175
0.00185232
0.000575415
0.000314678
0.000316479
0.000525594
0.00174056
0.000533589
0.000514597
0.000517119
0.00051481
0.000455464
0.00103978
0.000789787
0.000457313
0.000791371
0.000689451
0.000853595
0.000451168
0.00181825
0.000102019
0.000662651
0.00126883
0.000473706
0.00103027
0.00172245
0.000508566
0.00050865
0.00172616
0.00100717
0.000527078
0.000497041
0.000408458
0.000417949
0.000697953
0.00122638
0.00122865
0.00366359
0.000603086
0.00292435
0.00057427
0.000464861
0.000409017
0.000407336
0.00105128
0.000304282
0.000862552
0.000855247
0.00088683
0.00093662
0.00229177
0.00020173
0.000604032
0.000598328
0.000523882
0.00155997
0.0010857
0.00079388
0.00129215
0.000410797
0.000409444
0.000498639
0.00111276
0.00137842
0.00137485
0.000656013
0.000528424
0.000720072
0.000495904
0.000469262
0.00126852
0.000630384
0.000397222
0.000447529
0.000445624
0.000650111
0.000647383
0.00102391
0.000440726
0.000481662
0.00048011
0.00130815
0.000460557
0.00069979
0.000347541
0.000355539
0.000870009
0.000501515
0.00103189
0.00103212
0.000524762
0.000599844
0.00035691
0.00120891
0.00072882
0.000886552
0.000880161
0.000807202
0.000793506
0.000154569
0.000528155
0.000413105
0.00590375
0.00131107
0.000452018
0.000652706
0.000345981
0.000508129
0.000503535
0.000212073
0.000830752
0.000570581
0.000497946
0.0025553
0.00040998
0.00121913
0.00151746
0.000555202
0.000269827
0.00144422
0.0005319
0.00212423
0.00143658
0.000651974
0.00129521
0.000198104
0.000483653
0.000402189
0.00105842
0.000438892
0.000438442
0.000947702
0.000384595
0.000587505
0.000925906
0.00047818
0.000478292
0.000695884
0.000540617
0.000985654
0.000659487
0.00112175
0.000482113
0.000481837
0.00114118
0.00098779
0.000997361
0.000173674
0.000406521
0.000475734
0.0021627
0.000543966
0.000946147
0.000724344
0.000420582
0.000450594
0.000449119
0.000536034
0.000964987
0.000822673
0.00080547
0.000156876
0.00122337
0.0012183
0.000843958
0.000848823
0.000605937
0.000569026
0.000631579
0.00149249
0.000695713
0.000410433
0.000643456
0.00124402
0.000515943
0.000410475
0.00125797
0.000657782
0.000660196
0.00122754
0.000660835
0.000630342
0.000811482
0.000417869
0.000458326
0.000396629
0.00168384
0.000775928
0.000643693
0.00042743
0.00194098
0.000850918
0.000458387
0.00118039
0.000630015
0.000168196
0.0004928
0.00160693
0.000990378
0.000997109
0.000526222
0.000522865
0.00122658
0.000794551
0.000764136
0.000471917
0.000557197
0.000925287
0.000571448
0.00105286
0.00087968
0.000393106
0.000638725
0.00106166
0.000462287
0.000462346
0.000522841
0.00051854
0.00020992
0.000805041
0.00079581
0.0013205
0.00131487
0.000972525
0.000631192
0.00070509
0.000665074
0.000515484
0.00108515
0.000844528
0.000769631
0.00211167
0.00051736
0.000647128
0.000457581
0.000454807
0.00104139
0.000797287
0.00247436
0.000646961
0.000666431
0.000941223
0.00169954
0.000522864
0.000588337
0.000602683
0.000348948
0.00108951
0.0010789
0.000643345
0.00108273
0.000790928
0.000622964
0.000406375
0.000589484
0.000462628
0.000646506
0.00048099
0.00080961
0.000491268
0.000657154
0.00118688
0.000300701
0.00120886
0.00075555
0.000497939
0.000607873
0.000459165
0.000594654
0.000982725
0.000525024
0.000382129
0.000586865
0.000778438
0.000704239
0.000650652
0.000810384
0.000414478
0.000554188
0.000410077
0.000189453
0.000190618
0.00042776
0.000745589
0.000743575
0.00153904
0.000375674
0.000353047
0.00102362
0.00102527
0.000421742
0.000491531
0.000431537
0.000757204
0.000761021
0.0014484
0.000551672
0.00126697
0.000648912
0.00164925
0.00173679
0.00108058
0.00272879
0.000940213
0.00335503
0.000965722
0.00029912
0.000558031
0.000549852
0.000633183
0.000762769
0.000647705
0.00116796
0.000113663
0.00107187
0.000321307
0.00136126
0.000431235
0.00106392
0.000467334
0.000489844
0.000484803
0.000956082
0.000964556
0.000704484
0.00111975
0.000471124
0.000614073
0.000973767
0.000988877
0.00136027
0.000837537
0.000436346
0.000960948
0.000393249
0.00137576
0.00133822
0.000722509
0.000988117
0.000267956
0.00135775
0.000499215
0.000643909
0.000908294
0.000900529
0.000501722
0.000514641
0.000584889
0.00122863
0.00113063
0.00017943
0.000437062
0.000789651
0.00489447
0.000443028
0.00182519
0.000771349
0.000767773
0.00101726
0.000604507
0.000844206
0.000542997
0.000666046
0.000608373
0.000596283
0.000569603
0.00101737
0.00137887
0.000386708
0.000246808
0.00118249
0.00118305
0.000254612
0.00126058
0.000329429
0.000370896
0.000378195
0.000774559
0.000593681
0.000203913
0.000391142
0.000597014
0.000594421
0.000419085
0.000422719
0.000634315
0.000171709
0.000834265
0.000723327
0.000829425
0.000749491
0.000599515
0.000356345
0.00058835
0.000965791
0.000487183
0.000975778
0.000697746
0.000522829
0.000444444
0.00440616
0.00120411
0.00121744
0.000461246
0.00161562
0.00126092
0.000807963
0.000399124
0.000811234
0.00130215
0.000780948
0.000729529
0.000843725
0.00136062
0.000505562
0.000426132
0.000632025
0.000629806
0.000589145
0.000367516
0.000676203
0.00103014
0.000251665
0.00113426
0.000534085
0.000644476
0.000962899
0.00041338
0.000452878
0.00076283
0.000763069
0.00137246
0.000495846
0.000776675
0.000672128
0.000459987
0.000724731
0.000822296
0.00114686
0.000651978
0.000501857
0.000498078
0.000305551
0.000552372
0.000556681
0.00209772
0.00043591
0.000514239
0.000836374
0.000601666
0.000410953
0.000702098
0.000698303
0.00135931
0.00138193
0.00066346
0.000667437
0.000486997
0.001234
0.000446563
0.000446312
0.000174066
0.000576526
0.000612226
0.000611425
0.000553316
0.000616942
0.000918289
0.000510567
0.00100533
0.00100804
0.000682838
0.000726247
0.000634001
0.000407663
0.000593263
0.00105695
0.00097132
0.00120557
0.000591145
0.000480476
0.000635336
0.000644342
0.00225904
0.000506028
0.000508482
0.000527528
0.000483669
0.000833806
0.00052072
0.00124792
0.000410584
0.00115385
0.00106
0.0013725
0.000722324
0.000459135
0.000524111
0.000526482
0.000527801
0.000228018
0.000951907
0.000964525
0.00152854
0.000904467
0.000956192
0.000603442
0.00052327
0.00064145
0.00130404
0.00139192
0.000589179
0.000453898
0.000534918
0.000396321
0.00105881
0.000219723
0.00100048
0.00035387
0.000535419
0.000491042
0.000706972
0.00081358
0.000655049
0.000781596
0.00076067
0.00553123
0.000815161
0.000886203
0.000536058
0.00053816
0.00100813
0.000617163
0.00090267
0.00129685
0.000614283
0.000671004
0.00041209
0.000774175
0.000562362
0.000437065
0.000685923
0.000765785
0.000517809
0.000434637
0.000711579
0.000590537
0.00109298
0.000507753
0.000520631
0.000500281
0.000320522
0.000311986
0.00088266
0.000690697
0.000185341
0.00175788
0.000656646
0.00169302
0.000438986
0.00043996
0.00092539
0.000716997
0.00113093
0.000564354
0.000243756
0.000387873
0.000396525
0.00095704
0.000604873
0.000580544
0.000623995
0.000620955
0.000591041
0.000550163
0.000588808
0.000367067
0.00105957
0.000562141
0.000561459
0.000957304
0.000859709
0.000528601
0.000827324
0.000480856
0.000477735
0.000479724
0.00134676
0.000377693
0.000351478
0.000349669
0.000974951
0.000815887
0.00123567
0.00124512
0.00149226
0.000608037
0.00680174
0.000803146
0.00226228
0.000721895
0.00681501
0.00110385
0.000439441
0.000383699
0.000962808
0.000412618
0.000507242
0.00162879
0.000458705
0.000681137
0.000451025
0.000730285
0.000223983
0.000978898
0.000987673
0.000460039
0.000464212
0.00047456
0.000796754
0.000455659
0.000279833
0.000457743
0.000841501
0.000347023
0.000531811
0.000436374
0.000503026
0.00087981
0.000986062
0.00180986
0.000428754
0.000642154
0.00059582
0.00109833
0.000435057
0.0004939
0.000755167
0.000405565
0.000538125
0.000534938
0.000590234
0.00125598
0.000323405
0.000462228
0.000460696
0.000577092
0.000379895
0.000588071
0.000578377
0.000576633
0.000563665
0.002032
0.000553201
0.000502943
0.000174103
0.000795859
0.00127023
0.00064949
0.000621698
0.00262293
0.000476711
0.000608621
0.00085269
0.00105923
0.000591093
0.000799179
0.00507122
0.00232819
0.000555401
0.000473407
0.000475762
0.000978393
0.000719137
0.000558865
0.000932073
0.000793221
0.00043638
0.000964943
0.000430234
0.000427412
0.00124658
0.00112907
0.00126159
0.00130645
0.000826092
0.000639031
0.000638246
0.00216906
0.000578579
0.00179836
0.00145351
0.000531906
0.00139591
0.000401805
0.000404427
0.000932379
0.00126783
0.000481972
0.00134422
0.00135213
0.000763666
0.000442166
0.00118391
0.00118576
0.000473857
0.00108158
0.00137306
0.000492584
0.00078352
0.0010327
0.000852928
0.00065297
0.000503194
0.000505127
0.000765946
0.00290684
0.000784205
0.00263671
0.000421198
0.000749474
0.000761993
0.000757342
0.000502928
0.000495263
0.00031342
0.000312085
0.000856795
0.0011437
0.000754709
0.000674409
0.00124738
0.000640126
0.000627365
0.00113373
0.000980119
0.00039732
0.00222533
0.00105113
0.000951625
0.000635657
0.000995803
0.000365784
0.000587282
0.0003567
0.00238428
0.00040131
0.000464358
0.000953967
0.000555553
0.000334114
0.000326866
0.000412657
0.000828861
0.000821217
0.000247833
0.000651929
0.000671024
0.000580123
0.00100499
0.00101357
0.000410211
0.000995698
0.000709547
0.00040147
0.000594387
0.000463027
0.000464906
0.00130433
0.000193879
0.000593315
0.00059545
0.000745563
0.000561264
0.00056192
0.00217652
0.00047623
0.00093488
0.000590236
0.000515356
0.000894711
0.000566392
0.000383834
0.00015177
0.000861036
0.000423901
0.000423809
0.00100939
0.00136807
0.000404599
0.000843814
0.00025243
0.000162153
0.000521356
0.00137797
0.000464615
0.000466535
0.000507113
0.000506244
0.000501228
0.000612003
0.000614023
0.000334839
0.00033369
0.00021043
0.000561272
0.000562155
0.0001519
0.000522166
0.00145505
0.000505571
0.000640834
0.000590848
0.00063189
0.000307419
0.0013766
0.000921171
0.00129038
0.000493445
0.000677407
0.00125379
0.000881714
0.000904669
0.0013114
0.000267698
0.000725483
0.000779495
0.000586873
0.000583656
0.000764327
0.000800042
0.00027209
0.00131234
0.00131445
0.000594358
0.00207184
0.000750358
0.000599746
0.00276663
0.000551721
0.00107484
0.000394218
0.000281975
0.000875155
0.000325402
0.00157795
0.000507766
0.00116816
0.000816632
0.000474187
0.000981417
0.000620463
0.000826162
0.00103584
0.000609921
0.000249353
0.00105041
0.00137433
0.000505693
0.000544945
0.000546719
0.000546185
0.00238162
0.00052265
0.000474063
0.000469527
0.0005956
0.000367669
0.000457866
0.000303373
0.000672664
0.000686204
0.00062134
0.000645065
0.000606227
0.00104038
0.000980647
0.000660745
0.000763148
0.0009545
0.000461269
0.000655399
0.000390917
0.000840715
0.0010544
0.000662446
0.000646848
0.00048096
0.000463017
0.00144661
0.000633157
0.00120515
0.000556408
0.00457453
0.000385532
0.000387245
0.000277947
0.000248742
0.0006911
0.00119001
0.000935274
0.000399796
0.00121202
0.000796118
0.00126198
0.000601958
0.00129266
0.000458741
0.000862219
0.000440608
0.0016001
0.000488429
0.00124582
0.00077148
0.00123384
0.000425126
0.00124168
0.000983625
0.00147621
0.000611818
0.000548824
0.000471627
0.00141872
0.000834095
0.000609979
0.00118073
0.00143425
0.00103405
0.00132521
0.000916495
0.000831859
0.000627819
0.000797364
0.00069841
0.000391408
0.000526356
0.000828248
0.000407399
0.000811947
0.000508077
0.00212176
0.000589733
0.000404063
0.000424095
0.000418058
0.000918498
0.000837909
0.00138191
0.000833945
0.000671863
0.000751772
0.000326669
0.000670872
0.00174078
0.000760468
0.000859168
0.000339236
0.000553758
0.000680832
0.000546937
0.000553022
0.00102729
0.000315767
0.000712139
0.000808974
0.000366328
0.000471638
0.000576449
0.000642143
0.00230908
0.000407461
0.000790608
0.00081654
0.000571139
0.000567801
0.000316329
0.000208109
0.000194636
0.000790353
0.000396171
0.00105793
0.000984045
0.000439119
0.000603981
0.00115264
0.000398432
0.000649021
0.000507047
0.000578182
0.000907107
0.00090147
0.00027206
0.00200914
0.000255488
0.0031196
0.000493412
0.00129215
0.000381872
0.000380362
0.00121605
0.00117316
0.000467225
0.000848919
0.000424343
0.00116895
0.00116888
0.000566924
0.000638432
0.000746003
0.000934346
0.00061034
0.000609616
0.00136159
0.000250031
0.000447914
0.00136109
0.000403263
0.000531629
0.000293117
0.00568491
0.000665501
0.000472041
0.000550009
0.000428247
0.000488432
0.000910686
0.000785283
0.000908482
0.000594396
0.000554508
0.0013963
0.000651127
0.00052588
0.000459363
0.000766231
0.000430792
0.000406926
0.000591393
0.00110801
0.000477978
0.00113845
0.000921537
0.00140023
0.000473219
0.000468878
0.000591368
0.000207258
0.000606418
0.000603594
0.000204203
0.00134437
0.000395103
0.000534958
0.00115438
0.000741287
0.000745055
0.000400544
0.00081281
0.00131884
0.00109055
0.000602109
0.000815407
0.000494987
0.000569285
0.00154942
0.00046864
0.000336369
0.000343224
0.00102692
0.000980642
0.00101208
0.000526416
0.00055786
0.000812307
0.000506654
0.000852725
0.00053891
0.000660863
0.000741737
0.000408402
0.000146451
0.000402693
0.000763675
0.000535332
0.000537433
0.000348824
0.000344969
0.000404238
0.0004067
0.000939926
0.00069039
0.000547076
0.000437111
0.000374476
0.000590912
0.000865378
0.000355625
0.000822335
0.000765283
0.00105825
0.000333095
0.000821491
0.000600092
0.000216163
0.000222843
0.00134992
0.00062816
0.000647195
0.00109094
0.00040941
0.00040907
0.000802932
0.000771952
0.000800964
0.000778468
0.000563514
0.000411778
0.00229546
0.000298018
0.000796709
0.00147459
0.00128819
0.000801281
0.00101714
0.000512279
0.000514555
0.00019337
0.000295054
0.000418323
0.000415156
0.000239232
0.000322599
0.000604313
0.000453848
0.000403433
0.0010055
0.000443354
0.00129701
0.000734473
0.00130602
0.000697624
0.000435835
0.000410262
0.000407218
0.00112761
0.000606614
0.00016624
0.000412147
0.000792784
0.000971791
0.000585513
0.000583296
0.000530482
0.000624111
0.000705794
0.00239848
0.000610526
0.00091675
0.000896178
0.000467223
0.00079009
0.00055444
0.00140253
0.000545913
0.000529207
0.000460739
0.000569123
0.00018856
0.00101909
0.000935408
0.00138044
0.000221093
0.000417891
0.000551109
0.00129729
0.00072691
0.000725213
0.000661027
0.000705007
0.000417878
0.000420899
0.000482152
0.000859109
0.000966413
0.000858169
0.000476405
0.000957775
0.000645114
0.000647647
0.0010794
0.000402019
0.00058988
0.000268076
0.00148181
0.000708059
0.000712733
0.000396972
0.00111702
0.00141758
0.000480566
0.000249674
0.00160229
0.000557954
0.000595857
0.00040973
0.000408206
0.000959344
0.000421431
0.000969065
0.000632033
0.000633595
0.00120074
0.000756752
0.000407406
0.00826726
0.000971388
0.000388566
0.000585241
0.000567791
0.000458544
0.0036618
0.000615278
0.00256305
0.000504792
0.000688931
0.000522618
0.000506012
0.000497285
0.000710886
0.000350565
0.0013232
0.000924511
0.000936256
0.000870465
0.000530878
0.000598023
0.000670367
0.000596218
0.000975738
0.000800675
0.000374564
0.000372881
0.000616038
0.000723165
0.000351359
0.000649839
0.00126396
0.0011996
0.000372888
0.000589345
0.000848249
0.000382902
0.000586406
0.00147718
0.000633137
0.000567145
0.000661976
0.000501866
0.000496343
0.000561548
0.000675105
0.000679035
0.000598192
0.000594249
0.0012466
0.000407609
0.000411154
0.0009436
0.000167171
0.00197849
0.00067646
0.000563715
0.000903397
0.000651156
0.000918288
0.000304097
0.000528902
0.000992952
0.00118464
0.000783471
0.000494036
0.000773207
0.00029629
0.000950405
0.0010811
0.000491035
0.000394607
0.000850104
0.000435397
0.00132612
0.000401866
0.00155085
0.000188057
0.000421011
0.000178304
0.000348884
0.000338791
0.00150386
0.00132478
0.000402604
0.00114886
0.000189059
0.000465561
0.00478023
0.000122579
0.000403979
0.00033989
0.000606261
0.00048402
0.00061675
0.000613162
0.000595458
0.000636523
0.000595404
0.000589597
0.000233866
0.000624677
0.000930619
0.000508811
0.000573407
0.00107341
0.000630252
0.000585789
0.000629575
0.000417197
0.0010109
0.000436739
0.00111926
0.000402993
0.000399958
0.000384371
0.000651075
0.000143632
0.00162539
0.000406506
0.000395145
0.000326573
0.00109306
0.000383301
0.000528472
0.000229267
0.000243625
0.000458245
0.000745314
0.000381911
0.00107681
0.000378109
0.000567613
0.00140595
0.00141039
0.000206672
0.00170509
0.000291601
0.000400983
0.000606341
0.00060965
0.000593179
0.000945303
0.000446275
0.000470131
0.00121593
0.000554681
0.000941813
0.000293026
0.000530299
0.00041699
0.000210476
0.00135502
0.00135064
0.0004218
0.00042246
0.000574789
0.000753233
0.000537173
0.000419842
0.000589973
0.000795093
0.000586324
0.000962177
0.000587267
0.000520411
0.000677041
0.000953055
0.00042067
0.000329042
0.000708783
0.000540285
0.000481493
0.000452633
0.000495963
0.000561893
0.000869997
0.000681497
0.000516241
0.000424166
0.000868484
0.00147904
0.00244487
0.000579976
0.000650493
0.00091281
0.000521033
0.000908323
0.000222184
0.00123382
0.000309656
0.00126631
0.000200452
0.000435747
0.000559642
0.000446183
0.000445065
0.000830662
0.000687251
0.000657529
0.000652521
0.00131866
0.000704231
0.000398928
0.000927558
0.00123165
0.000894164
0.000705393
0.00050564
0.00109097
0.000407909
0.000848452
0.00130678
0.000435786
0.00063576
0.00122187
0.000553517
0.000282943
0.000511908
0.000776893
0.000597575
0.000948145
0.000961096
0.000349662
0.00058308
0.000603472
0.000737101
0.000754527
0.000545448
0.000502984
0.000525043
0.000758041
0.00114827
0.000964988
0.000213672
0.000771719
0.000713528
0.000661552
0.000537533
0.000468708
0.000948771
0.000708835
0.000488158
0.000531017
0.0013941
0.000821633
0.000581579
0.000954994
0.000543864
0.000858092
0.000770078
0.000418194
0.00137039
0.000589861
0.000810922
0.000437917
0.00103918
0.000786245
0.000624477
0.000423841
0.000730272
0.000842219
0.0010386
0.0005402
0.000539989
0.00039702
0.000407054
0.000339553
0.00120393
0.000793985
0.000615477
0.00067585
0.000716093
0.000711911
0.001267
0.000529282
0.000419016
0.000658528
0.000665966
0.000734945
0.000356259
0.000914888
0.00048059
0.000161804
0.000269265
0.00112683
0.000424997
0.000702212
0.000656496
0.000853321
0.00122112
0.000739829
0.000555044
0.000887775
0.000880328
0.000413374
0.000596391
0.000579268
0.000617785
0.00100682
0.00100653
0.000525764
0.000201736
0.000582202
0.00100457
0.000998121
0.00139117
0.000416912
0.000397766
0.000818412
0.0011734
0.000884308
0.000648007
0.000759994
0.000342767
0.000707263
0.000393261
0.000393399
0.000669111
0.000658795
0.000732062
0.000512473
0.00100471
0.0013783
0.000567459
0.000978961
0.000582681
0.000914084
0.000453646
0.000237867
0.00189637
0.00223156
0.00025903
0.000772729
0.000457467
0.000585362
0.000575242
0.00132539
0.00081653
0.000619723
0.000443517
0.00055353
0.00211939
0.000437599
0.000568264
0.000525569
0.000892009
0.000547755
0.000380999
0.000338508
0.00131337
0.00203044
0.00199107
0.000901062
0.000498524
0.000490069
0.000488813
0.000167234
0.00027208
0.000443928
0.000490351
0.00136832
0.000236732
0.000536701
0.000867281
0.000860936
0.00133304
0.000953376
0.000683561
0.000762136
0.000689147
0.0004084
0.00139549
0.000404258
0.000565671
0.000391397
0.000639374
0.000471942
0.000596677
0.000705411
0.000502515
0.000614013
0.000634111
0.00056206
0.000562996
0.000566201
0.000567275
0.000399008
0.000427387
0.00057266
0.00108434
0.000928672
0.000172126
0.000433658
0.00110876
0.000686441
0.000836578
0.000618974
0.00135352
0.000556163
0.000555447
0.000881747
0.000422168
0.000590561
0.00031943
0.00109741
0.000642014
0.000405834
0.000835835
0.00109757
0.000187851
0.00100267
0.00045432
0.000857212
0.000852929
0.000597621
0.000768016
0.000488111
0.000590418
0.000479763
0.000313332
0.000796469
0.000561293
0.00199837
0.00090051
0.00143703
0.00112598
0.00108181
0.000546262
0.00182781
0.00065753
0.00112441
0.00044478
0.00105147
0.000450835
0.000887207
0.000461898
0.000644644
0.000800489
0.000508098
0.000411755
0.000511663
0.000522696
0.000968205
0.000154315
0.00065652
0.00110054
0.000390072
0.000420377
0.00106886
0.000849803
0.000272481
0.000520047
0.00077487
0.000663226
0.00041481
0.000534488
0.00100177
0.00134106
0.00110976
0.0048203
0.000398419
0.000602331
0.00097903
0.000980952
0.00106762
0.000490587
0.000513542
0.000509392
0.00116153
0.000552946
0.000973886
0.000687312
0.000682876
0.000911372
0.000961693
0.000708645
0.000630285
0.00046143
0.00104001
0.000134403
0.00108027
0.000653126
0.000346464
0.000781594
0.0014527
0.000342853
0.000397103
0.00125263
0.000588602
0.000752121
0.000572236
0.000573234
0.000706281
0.000602796
0.000414159
0.000413653
0.000955505
0.000458649
0.000963557
0.00200409
0.00044216
0.00086238
0.000813327
0.000729552
0.000597735
0.000408722
0.000790866
0.00122082
0.000451797
0.00719298
0.00101834
0.00707874
0.000566474
0.00112264
0.000927327
0.000937258
0.000868656
0.000934042
0.000702181
0.00065119
0.000521382
0.000607051
0.000270855
0.000446384
0.000621573
0.00119984
0.000435818
0.000438774
0.00057491
0.000928993
0.0011493
0.000213591
0.000212422
0.000345169
0.000348244
0.00104053
0.00110209
0.000700682
0.000846361
0.000291936
0.000932967
0.00149054
0.000792868
0.000535749
0.000660763
0.00066083
0.0009444
0.000531406
0.000390815
0.00058939
0.00037745
0.000304921
0.000972375
0.000438201
0.000558063
0.000410789
0.000673679
0.000948273
0.00104528
0.000473602
0.000220424
0.000351665
0.000286856
0.000520021
0.000402354
0.00131721
0.000653666
0.000431385
0.000433808
0.000255251
0.000413946
0.000591272
0.000289213
0.000249834
0.000749628
0.000572478
0.0010443
0.0020905
0.000407424
0.000404594
0.00153275
0.001038
0.000486931
0.000619489
0.000925476
0.000770218
0.00159434
0.000576522
0.000353589
0.00140625
0.000913385
0.00040103
0.00102662
0.000746556
0.000494893
0.00160419
0.000512301
0.000602832
0.00014957
0.000498031
0.000235756
0.000618779
0.000575163
0.000459821
0.000693171
0.00109645
0.00105504
0.000442948
0.000770095
0.0010286
0.000900607
0.00104157
0.000532456
0.000871903
0.00052686
0.000508123
0.000637711
0.00137806
0.00102324
0.000559276
0.000624198
0.000456742
0.000847703
0.000704593
0.00125011
0.000681402
0.00068197
0.000658086
0.000661897
0.000362281
0.000362787
0.000824192
0.000444844
0.000411428
0.000409116
0.000492461
0.000317107
0.000314808
0.000499912
0.00135959
0.00132963
0.000415508
0.000748815
0.000935087
0.000668908
0.000204111
0.000353083
0.000766731
0.00103917
0.000148643
0.000580654
0.00103525
0.00109559
0.000787088
0.000158475
0.000418709
0.000496132
0.00104836
0.000721457
0.000721059
0.000875269
0.000601262
0.000705673
0.000421098
0.00110997
0.000698542
0.000446591
0.00115738
0.00117075
0.000575844
0.000734178
0.000389885
0.00039374
0.00041912
0.00136598
0.00200766
0.000754986
0.00237338
0.000856523
0.00132804
0.000412544
0.000946372
0.000283238
0.000501337
0.000496945
0.000669513
0.000848442
0.00101739
0.00345253
0.000144006
0.000491982
0.000794173
0.000693871
0.000415434
0.00134467
0.000298278
0.000578556
0.000579834
0.000649741
0.000397587
0.000772844
0.000584184
0.00100392
0.00099504
0.000555397
0.0019438
0.00181757
0.00120522
0.00137983
0.000406967
0.000460726
0.000553686
0.000774941
0.00222115
0.000390277
0.00144662
0.000447835
0.00039777
0.000584399
0.00042055
0.00247107
0.000211865
0.00026283
0.000183142
0.000459013
0.000562803
0.00100502
0.000473031
0.000496485
0.00049722
0.000532178
0.000606747
0.000419404
0.000447736
0.00102241
0.000922611
0.000731468
0.00108533
0.00135342
0.000861491
0.000412807
0.00148645
0.00059423
0.000586975
0.000394512
0.000756017
0.000617495
0.000729237
0.000206295
0.00799904
0.000439807
0.000893099
0.000523634
0.000725502
0.000903653
0.000897851
0.000718375
0.000890465
0.000591973
0.000445454
0.0004116
0.000612927
0.000300564
0.000675972
0.000603645
0.000979414
0.000309423
0.000490502
0.000490526
0.00016581
0.000586282
0.000396165
0.000504268
0.00125727
0.000352395
0.00054041
0.00116079
0.00111404
0.000385466
0.000649066
0.000362422
0.000506179
0.000931824
0.00123104
0.000690074
0.00122461
0.000647222
0.000510175
0.000511646
0.000762299
0.000771728
0.000803576
0.000441638
0.000465963
0.000463999
0.000986752
0.000477838
0.0010268
0.000222565
0.000558368
0.000607967
0.00132998
0.00132856
0.00109136
0.000696923
0.000455691
0.00100378
0.0015776
0.000571528
0.00057229
0.000789202
0.000404468
0.000594862
0.00101797
0.00059011
0.000376493
0.000899385
0.000616005
0.000731598
0.000143153
0.000754103
0.00111126
0.000382704
0.000379873
0.000548593
0.00050014
0.000480631
0.000369095
0.00031339
0.000161918
0.00177962
0.0010887
0.00107193
0.000575616
0.00843052
0.000522277
0.000997552
0.000622945
0.000843928
0.00103453
0.000907187
0.000912479
0.000454348
0.0010274
0.000600129
0.000597123
0.000675577
0.00119091
0.000971553
0.00137421
0.000507408
0.000803135
0.00136999
0.00197703
0.000506546
0.000507926
0.000910286
0.000424653
0.000632896
0.000634225
0.00828719
0.000446975
0.000171908
0.00084173
0.000545713
0.000555773
0.000317362
0.000322621
0.000207482
0.000424836
0.000819879
0.000617834
0.000611849
0.00147096
0.000596953
0.00103998
0.000320984
0.000366362
0.00808622
0.000764687
0.000610355
0.000326722
0.00104647
0.000752105
0.000320853
0.000422867
0.000471993
0.000585109
0.000582144
0.00117037
0.00079081
0.00151053
0.00042554
0.000340337
0.000680665
0.000534579
0.000579317
0.00461417
0.000527009
0.00127289
0.00415159
0.000642721
0.000766067
0.000599095
0.00195455
0.000266817
0.000977772
0.000714148
0.00127631
0.000968786
0.000599859
0.000708343
0.00042882
0.00134556
0.00134765
0.00034101
0.000420054
0.00104369
0.000895368
0.001004
0.00065649
0.000718734
0.000601603
0.00136366
0.000685034
0.000366598
0.000821159
0.00144189
0.00080331
0.00103392
0.000499389
0.00095829
0.00094126
0.000253353
0.000705854
0.000823888
0.000594666
0.0017237
0.000325227
0.0015385
0.000693471
0.000661345
0.000363572
0.00109429
0.00130883
0.000332105
0.000486595
0.00048996
0.00380981
0.000409727
0.000407348
0.000842588
0.000742519
0.000713823
0.000634596
0.00135437
0.00107756
0.000623617
0.00121645
0.00128564
0.000524328
0.00104838
0.000291839
0.000482803
0.000866486
0.000976495
0.000955056
0.00103996
0.0010715
0.000829913
0.00102311
0.000576273
0.000450039
0.000501925
0.00135587
0.000451741
0.000763833
0.00109506
0.00109455
0.000398952
0.000699401
0.00041818
0.000691851
0.000705308
0.00138853
0.00138584
0.00116681
0.0011915
0.000703052
0.00177251
0.000426184
0.000797747
0.000132715
0.000429391
0.000303297
0.000695362
0.000535699
0.000532703
0.00146174
0.000578796
0.00044405
0.00112602
0.000453431
0.000641726
0.000418289
0.000583689
0.000476275
0.000875097
0.00069846
0.00070544
0.00116534
0.000793681
0.000360971
0.000521289
0.00105704
0.000518173
0.000718529
0.000295692
0.000665652
0.000658034
0.000660787
0.00110978
0.000707619
0.00156901
0.000787285
0.000769221
0.00095892
0.000259909
0.000477784
0.000722592
0.000843608
0.00150571
0.00040116
0.000399979
0.000619237
0.000679688
0.000128571
0.000416493
0.000533961
0.000419757
0.000359914
0.000363093
0.000492426
0.000761424
0.000332294
0.000540183
0.000838785
0.000715557
0.000472469
0.00221064
0.00218443
0.000568408
0.000443874
0.000374518
0.000489381
0.000300213
0.00153954
0.00123882
0.000806085
0.000413298
0.00105392
0.000563336
0.000453569
0.000973585
0.000490398
0.000414494
0.000412673
0.000397462
0.000637671
0.000333803
0.000611512
0.000322013
0.000313404
0.000536396
0.000309433
0.00041796
0.000813167
0.00043718
0.000668376
0.000689906
0.000691758
0.000583877
0.000683596
0.000679428
0.000518461
0.00125913
0.000961369
0.00038869
0.000859729
0.000355698
0.00197365
0.00210652
0.000407865
0.000406589
0.000706767
0.000406762
0.00047945
0.00151082
0.00154955
0.000680503
0.000419788
0.000363998
0.000368624
0.00119747
0.000660698
0.000454754
0.000545781
0.000693364
0.000268029
0.000405807
0.000697016
0.00853847
0.000825845
0.000606826
0.000599534
0.000574732
0.000723866
0.000721514
0.000390986
0.000357682
0.000355214
0.000418419
0.000420581
0.000603349
0.000405543
0.000403334
0.000719013
0.000688782
0.000527364
0.000885241
0.000519453
0.000827986
0.00082069
0.000789513
0.00149285
0.000733397
0.000856794
0.000885513
0.000875429
0.000927838
0.000402212
0.000400024
0.000579406
0.000579666
0.00111575
0.00211454
0.00062427
0.000567642
0.000679181
0.000563521
0.00180861
0.000635739
0.000612616
0.000611259
0.000746673
0.00045833
0.00104074
0.000794705
0.00100536
0.000486043
0.000669973
0.00048626
0.00106209
0.000366371
0.00149801
0.000971797
0.000777641
0.000402806
0.000591671
0.000665922
0.000472517
0.000457541
0.00142055
0.000637816
0.000587236
0.00085087
0.000901715
0.000658437
0.000864439
0.00075975
0.000501429
0.000502644
0.0007279
0.000921392
0.00121973
0.00121982
0.000395209
0.000996909
0.00117454
0.000622073
0.000495006
0.000599736
0.000599943
0.000441085
0.000778294
0.000705341
0.000486042
0.000711055
0.000603494
0.00143021
0.000588142
0.000472707
0.00101253
0.00037511
0.00039555
0.000931676
0.000537377
0.00075645
0.000533032
0.000345991
0.00031177
0.000682441
0.000596297
0.00120184
0.000441058
0.00048776
0.000183968
0.000405113
0.000579875
0.000407982
0.000594338
0.000295932
0.000493826
0.000648613
0.000650329
0.00150002
0.00156472
0.000525547
0.000375031
0.00100444
0.00216103
0.000500241
0.00125787
0.000539771
0.000832077
0.000313111
0.000945471
0.000598076
0.000406969
0.000479334
0.00119483
0.00109651
0.000574498
0.000549715
0.00062347
0.000321506
0.00109489
0.000793387
0.000564941
0.000545792
0.000405247
0.000612175
0.000227169
0.000535403
0.000128395
0.000444524
0.000789417
0.00108805
0.000828523
0.000831314
0.00190199