/*--------------------------------*- C++ -*----------------------------------*\
| =========                 |                                                 |
| \\      /  F ield         | OpenFOAM: The Open Source CFD Toolbox           |
|  \\    /   O peration     | Version:  v2012                                 |
|   \\  /    A nd           | Website:  www.openfoam.com                      |
|    \\/     M anipulation  |                                                 |
\*---------------------------------------------------------------------------*/
FoamFile
{
    version     2.0;
    format      ascii;
    class       volScalarField;
    location    "16";
    object      sigmaHyd;
}
// * * * * * * * * * * * * * * * * * * * * * * * * * * * * * * * * * * * * * //

dimensions      [1 -1 -2 0 0 0 0];


internalField   nonuniform List<scalar> 
30465
(
3.07166e+07
2.39491e+07
3.65258e+07
2.8786e+07
2.57767e+07
2.56708e+07
4.22923e+07
5.77227e+07
4.19806e+07
2.86551e+07
3.8738e+07
4.80268e+07
2.77078e+07
-4.36315e+06
4.22721e+07
4.03279e+07
2.63205e+07
1.99757e+07
4.1039e+07
2.45222e+07
1.7449e+07
1.75006e+07
1.42293e+07
5.22059e+07
1.44777e+07
2.72412e+07
2.71781e+07
2.45005e+07
2.5491e+07
2.62617e+07
1.95748e+07
2.91484e+07
2.9608e+07
2.77969e+07
3.34197e+07
2.42474e+07
4.35337e+07
-461103
2.73042e+07
4.93637e+07
1.9429e+07
4.01247e+07
5.3423e+07
2.36032e+07
2.36399e+07
3.61604e+07
3.16138e+07
2.39742e+07
2.76372e+07
1.96329e+07
1.97835e+07
2.7625e+07
4.4497e+07
4.39942e+07
3.64752e+07
2.46822e+07
3.64883e+07
2.65111e+07
2.5927e+07
3.10292e+07
3.09974e+07
2.85344e+07
2.21953e+07
3.36046e+07
3.34464e+07
-3.9283e+07
3.67665e+07
5.13878e+07
1.4264e+07
2.65414e+07
1.91193e+07
2.60916e+07
5.7953e+07
3.86635e+07
2.9748e+07
5.01949e+07
2.67497e+07
2.67584e+07
-6.8131e+06
4.29777e+07
5.09959e+07
5.13223e+07
2.68217e+07
2.67404e+07
2.73202e+07
2.73604e+07
2.60012e+07
4.96655e+07
2.48645e+07
2.19071e+07
2.96359e+07
2.96555e+07
2.61256e+07
2.61507e+07
2.84394e+07
2.8235e+07
2.61021e+07
2.61746e+07
5.10424e+07
2.62686e+07
2.7966e+07
1.64908e+07
1.67381e+07
2.9905e+07
-673055
4.07458e+07
4.0492e+07
2.6694e+07
1.9258e+07
-506242
3.52696e+07
2.88504e+07
3.48073e+07
3.46674e+07
2.84157e+07
2.81064e+07
4.1105e+06
2.59138e+07
2.88995e+07
9.11674e+07
5.11001e+07
2.4204e+07
2.46027e+07
-1.88114e+07
2.39502e+07
2.38082e+07
1.35261e+07
3.24388e+07
2.39226e+07
-2.65214e+07
6.42889e+07
2.95604e+07
3.57427e+07
9.17231e+07
2.59508e+07
6.84526e+06
5.62509e+07
2.63969e+07
5.00875e+07
5.65537e+07
2.36611e+07
6.60107e+07
-8.65758e+06
1.9617e+07
2.44848e+07
2.71615e+07
2.9998e+07
2.99999e+07
3.5312e+07
3.27243e+07
2.31357e+07
2.92688e+07
2.82317e+07
2.82495e+07
2.75461e+07
-1.12647e+06
3.86694e+07
2.72172e+07
4.39079e+07
2.34691e+07
2.34522e+07
4.43688e+07
3.82896e+07
3.85762e+07
1.83301e+06
2.87184e+07
2.6597e+07
8.01285e+07
2.65681e+07
2.67266e+07
2.47006e+07
2.9798e+07
2.78259e+07
2.79124e+07
2.63149e+07
2.73406e+07
3.22021e+07
2.62295e+07
1.60242e+06
6.36229e+07
4.50189e+07
3.18925e+07
3.16919e+07
2.38868e+07
2.4062e+07
8.78835e+06
4.99371e+07
-3.1888e+07
2.90246e+07
2.60579e+07
4.87249e+07
2.70253e+07
1.39408e+07
6.21252e+07
2.66214e+07
2.66934e+07
4.23739e+07
2.70931e+07
2.66761e+07
3.09347e+07
2.95662e+07
2.63567e+07
3.18623e+07
9.80534e+07
2.29761e+07
2.34229e+07
-2.26325e+07
8.85576e+07
2.84166e+07
2.25899e+07
3.81187e+07
2.29706e+07
1.22994e+07
2.69408e+07
3.51601e+07
3.89033e+07
3.92797e+07
2.70014e+07
2.70512e+07
4.82702e+07
3.10372e+07
2.88158e+07
2.84556e+07
2.6009e+07
3.63201e+07
-2.81776e+07
2.83796e+07
2.24191e+07
2.1759e+07
1.06889e+07
2.90221e+07
2.76458e+07
2.77046e+07
-1.06547e+07
4.59052e+06
5.54503e+06
3.15794e+07
3.13665e+07
4.64843e+07
4.64415e+07
2.75335e+07
1.08131e+07
2.56661e+07
4.38707e+06
2.58255e+07
4.28371e+07
2.84802e+07
2.74385e+07
4.49865e+07
4.64575e+06
2.70284e+07
-2.37665e+07
-2.44568e+07
2.75611e+07
2.7175e+07
6.26769e+07
1.70659e+07
1.64597e+07
3.31261e+07
1.1126e+08
2.61332e+07
1.2097e+07
1.25507e+07
-1.62452e+07
2.73097e+07
2.73786e+07
2.68184e+07
3.87351e+07
2.78389e+07
2.63971e+07
2.87025e+07
2.4879e+07
2.49536e+07
2.58777e+07
-1.25955e+06
1.24409e+07
-1.67885e+07
1.948e+07
2.94956e+07
1.59716e+07
2.99095e+07
2.97045e+07
-1.54743e+07
2.63782e+07
2.25798e+07
2.65406e+07
3.64645e+07
2.68871e+07
3.26816e+07
2.31183e+07
2.3044e+07
1.84799e+07
2.45277e+07
1.95032e+07
3.00284e+07
2.55141e+07
2.92443e+07
1.08962e+07
1.10652e+07
2.63956e+07
2.93795e+07
2.92482e+07
5.80737e+07
2.07036e+07
2.25766e+07
3.21599e+07
3.20347e+07
2.94654e+07
-1.00491e+07
-1.77179e+07
2.80244e+07
2.79484e+07
5.95843e+07
2.5064e+07
3.11403e+07
671125
1.07171e+08
1.10194e+08
4.01013e+07
5.21718e+07
2.86591e+07
5.3832e+07
2.70626e+07
2.63771e+06
2.39907e+07
2.38441e+07
2.21846e+07
9.81206e+06
2.56066e+07
3.22642e+07
1.87221e+06
3.29895e+07
4.59819e+06
6.23505e+07
-5.26284e+06
4.15947e+07
2.873e+07
1.66806e+07
1.67987e+07
3.03272e+07
3.54427e+07
2.77577e+07
3.02776e+07
2.65396e+07
2.51254e+07
3.33239e+07
3.37883e+07
5.30958e+07
1.48869e+07
3.01266e+07
3.34121e+07
2.29401e+07
4.68752e+07
6.1004e+07
2.54354e+07
3.82318e+07
6.81971e+06
5.11196e+07
-3.82832e+06
-2.81963e+07
2.41715e+07
2.45869e+07
2.75457e+07
-9.90272e+06
-2.67034e+07
4.48622e+07
4.39729e+07
1.43362e+07
1.46979e+07
2.26606e+07
2.97927e+07
2.97734e+07
4.47646e+07
1.05878e+07
1.06549e+07
3.88429e+07
2.43817e+07
3.2165e+07
2.66e+07
2.68493e+07
-2.68724e+06
2.51921e+07
2.53064e+07
3.94459e+07
4.6823e+07
2.20457e+07
-5.03081e+06
4.35048e+07
4.30687e+07
-4.41716e+06
3.10386e+07
1.46465e+07
2.08268e+07
2.47863e+07
2.8674e+07
2.42613e+07
-813550
2.67483e+07
2.37375e+07
2.37813e+07
3.09018e+07
3.07278e+07
-120313
1.36763e+07
3.3025e+07
2.45051e+07
2.55875e+07
2.95666e+07
2.61315e+07
2.26095e+07
2.34062e+07
3.78926e+07
2.33684e+07
3.17147e+07
2.78712e+07
-2.19733e+07
2.33672e+07
1.00845e+08
4.57386e+07
4.62367e+07
2.09536e+07
7.78721e+07
3.68238e+07
1.93848e+07
2.71495e+07
1.9178e+07
4.03433e+07
2.58342e+07
2.88598e+07
2.33332e+07
3.22767e+07
2.65297e+07
-1.25581e+07
2.53903e+07
2.53123e+07
2.31263e+07
3.36552e+07
2.67978e+07
2.79385e+07
1.9193e+07
3.07298e+07
-974588
2.69865e+07
2.74945e+07
3.1172e+07
2.88544e+07
2.2579e+07
2.23954e+07
5.21895e+07
-2.09939e+07
2.85801e+07
2.34349e+07
1.35208e+07
6.80153e+06
3.22212e+07
4.24029e+07
2.66099e+07
1.16856e+07
1.20451e+07
2.20288e+07
2.61174e+07
2.60808e+07
1.00901e+08
2.66972e+07
2.33234e+07
3.28283e+07
2.6333e+07
3.02693e+07
2.7923e+07
2.78495e+07
3.83724e+07
3.89989e+07
2.62766e+07
2.15292e+07
2.78318e+07
4.90078e+07
2.86072e+07
2.85301e+07
-4.55985e+06
1.47884e+07
2.53297e+07
2.52214e+07
2.54478e+07
1.98009e+07
2.56519e+07
2.44531e+07
3.95296e+07
3.98389e+07
2.49254e+07
6.26105e+06
-3.05558e+07
2.95711e+07
2.33407e+07
3.723e+07
2.16442e+07
4.60123e+07
1.93078e+07
2.75825e+07
2.64614e+07
2.42249e+07
8.68267e+07
2.71632e+07
2.71006e+07
2.11589e+07
1.8302e+07
3.29093e+07
2.24597e+07
4.23347e+07
1.28123e+07
3.17895e+07
2.59456e+07
5.22053e+07
2.22941e+07
2.91468e+07
2.34595e+07
2.33755e+07
2.03584e+07
-1.02428e+07
-3.92054e+07
3.5521e+07
4.59483e+07
3.39941e+07
3.07011e+07
2.53622e+07
2.60541e+07
3.06174e+06
3.68467e+07
4.76938e+07
-1.07022e+06
-1.13268e+07
2.63405e+07
1.25262e+07
4.17968e+07
1.32761e+07
2.64776e+07
2.42172e+07
2.13146e+07
2.69016e+07
3.159e+07
1.20771e+07
1.70345e+07
1.91449e+07
2.86936e+07
9.40884e+07
2.50507e+07
2.28125e+07
2.56546e+07
2.56003e+07
3.95309e+07
2.46865e+07
3.38267e+07
3.49396e+07
2.44142e+07
2.68943e+07
3.12293e+07
1.31972e+07
5.1965e+06
2.85399e+07
1.63786e+07
9.41041e+06
-5.80662e+06
1.73547e+07
1.01928e+07
2.1667e+07
3.08585e+07
1.1648e+07
1.20168e+07
2.37473e+07
9.42958e+06
9.29304e+06
2.33562e+07
2.75961e+07
-5.05868e+06
7.29321e+07
2.6872e+07
7.41108e+07
2.97585e+07
2.96501e+07
3.65747e+07
2.85275e+07
3.80532e+07
2.65956e+07
1.11126e+07
2.20504e+07
3.19967e+07
3.70769e+07
2.43396e+07
2.6366e+07
2.57877e+07
2.58399e+07
2.57123e+07
-2.81368e+07
2.31341e+07
3.36978e+07
2.81014e+07
2.5846e+07
2.58729e+07
3.56285e+07
3.38305e+07
1.05609e+07
3.18895e+07
1.74343e+07
2.31783e+07
1.76566e+07
3.22007e+07
2.47675e+07
2.2157e+07
2.22721e+07
3.61059e+07
3.18696e+07
4.81369e+07
4.86497e+07
5.91989e+07
2.39794e+07
8.14295e+07
2.87221e+07
9.84596e+07
2.86154e+07
8.25976e+07
3.37875e+07
2.64144e+07
2.48652e+07
3.79378e+07
2.61213e+07
-2.62883e+07
3.61454e+07
2.49129e+07
2.24607e+07
2.67545e+07
2.88897e+07
1.53937e+07
3.76952e+07
3.09347e+07
2.88754e+07
2.87554e+07
2.83824e+07
2.24491e+07
2.79098e+07
-1.38977e+07
2.09794e+07
3.22258e+07
1.39697e+07
-2.70524e+07
2.84772e+07
1.86375e+07
2.28921e+07
3.77209e+07
5.23085e+07
2.63128e+07
2.69673e+07
2.61278e+07
3.13546e+07
1.49656e+07
2.00024e+07
2.80597e+07
2.59105e+07
1.03684e+07
2.58266e+07
2.573e+07
4.8527e+07
1.55386e+07
2.84864e+07
2.85773e+07
2.63752e+07
3.29354e+07
2.32095e+07
2.44224e+07
2.44119e+07
1.9204e+07
8.65825e+07
2.50529e+07
-7.22602e+06
1.33255e+07
2.4596e+07
4.1397e+07
2.62696e+07
2.56852e+07
1.15313e+08
2.64143e+07
1.91432e+07
2.71332e+07
4.14633e+07
2.54828e+07
2.04033e+07
1.03574e+08
7.22213e+07
2.50021e+07
2.84717e+07
2.8357e+07
3.64151e+07
2.72797e+07
2.58394e+07
3.6614e+07
3.11766e+07
2.64931e+07
3.31903e+07
2.85776e+07
2.85633e+07
4.50997e+07
2.90403e+07
4.5856e+07
4.79655e+07
3.19991e+07
2.60809e+07
2.60714e+07
9.31177e+07
-3.55954e+06
5.35491e+07
5.25505e+07
2.68258e+07
5.10284e+07
2.69716e+07
2.70519e+07
3.34313e+07
4.4704e+07
-1.87116e+07
5.31924e+07
5.28974e+07
2.46281e+07
2.34407e+07
4.53865e+07
4.50489e+07
1.78109e+06
3.72878e+07
4.75588e+07
2.77668e+07
3.08904e+07
2.74502e+07
2.68571e+07
2.70441e+07
2.3142e+07
2.31087e+07
1.73281e+07
6.93251e+07
1.79557e+07
6.8603e+07
3.04552e+07
2.96034e+07
9.26489e+06
2.23384e+07
1.66569e+07
1.68373e+07
2.19955e+07
2.21596e+07
1.55894e+07
3.44776e+07
2.46091e+07
3.12816e+06
4.90648e+07
2.53249e+07
1.43978e+07
3.79826e+07
2.25577e+07
3.19227e+07
5.07641e+07
3.73675e+07
2.17708e+07
2.54524e+07
3.79943e+07
9.27099e+06
2.04073e+06
9.06286e+06
5.477e+07
2.4418e+07
-1.93978e+07
3.4681e+07
4.36702e+06
2.19859e+07
2.19107e+07
2.7096e+07
2.47592e+07
2.495e+07
1.64431e+07
2.71232e+07
2.37992e+07
2.65479e+07
3.95053e+07
3.97544e+07
2.96933e+07
2.30033e+07
1.84307e+07
2.53989e+07
-186370
2.88846e+07
2.88238e+07
4.99255e+07
7.04014e+06
2.43855e+07
2.43544e+07
2.20339e+07
1.83633e+07
1.83497e+07
4.86151e+07
2.82879e+07
2.99386e+07
2.47324e+07
1.11747e+07
-3.60916e+07
2.41231e+07
2.31121e+07
5.83489e+06
3.09358e+07
2.72504e+07
2.72144e+07
3.6908e+07
4.81686e+07
3.12589e+07
2.25218e+07
7.2425e+06
1.28615e+07
2.34285e+07
4.74902e+07
1.94782e+07
2.58562e+07
2.70942e+07
2.71671e+07
-1.92734e+07
2.4881e+07
2.49096e+07
2.24458e+07
2.25716e+07
1.17424e+07
2.65798e+07
2.65667e+07
3.74129e+06
1.23103e+07
8.92552e+07
2.7122e+07
2.54692e+07
2.38865e+07
2.57173e+07
2.19691e+07
5.17908e+07
2.52706e+07
3.72779e+07
-1.0347e+07
2.66948e+07
3.64975e+07
1.86255e+07
1.92953e+07
6.74389e+07
-9.17012e+06
3.00473e+07
2.60444e+07
2.61721e+07
2.61911e+07
2.40473e+07
2.92987e+07
1.43514e+07
5.11165e+07
5.14542e+07
-477915
4.74142e+07
2.74979e+07
-663018
7.07538e+07
2.49746e+07
3.73994e+07
3.22336e+07
-5.06491e+06
1.71233e+07
2.30891e+07
5.62796e+07
2.62701e+07
4.38503e+07
2.2292e+07
1.28935e+06
2.35689e+07
2.58498e+07
3.25129e+07
3.25982e+07
2.45722e+07
1.47395e+07
3.31878e+07
5.42117e+07
2.63139e+07
2.47513e+07
2.46931e+07
2.48894e+07
5.19413e+07
2.60257e+07
2.06774e+07
2.06083e+07
2.52308e+07
2.15935e+07
2.64115e+07
2.10557e+07
2.74705e+07
1.65338e+07
2.56247e+07
2.6841e+07
2.65482e+07
3.95177e+07
3.1763e+07
-3.16009e+07
2.90902e+07
3.77628e+07
-4.51967e+06
2.66284e+07
2.65124e+07
2.50649e+07
4.14453e+07
2.71647e+07
2.60767e+07
2.71689e+07
2.36664e+07
4.323e+07
2.6711e+07
3.30979e+07
2.42785e+07
1.05121e+08
1.14261e+07
1.14441e+07
538270
1.91444e+07
2.26983e+07
2.99709e+07
3.0437e+07
2.97248e+06
3.04331e+07
2.94187e+07
4.02897e+07
2.44367e+07
4.99258e+07
2.12781e+06
2.95821e+07
-1.86812e+06
4.58061e+07
2.34185e+07
4.46372e+07
3.01543e+07
4.4937e+07
2.9248e+07
4.87997e+07
2.58456e+07
5.76847e+07
2.48194e+07
2.53922e+07
-1.33549e+06
3.42633e+07
2.84916e+07
2.639e+07
3.66967e+07
3.48984e+07
2.45121e+07
5.17251e+07
3.60405e+07
3.26322e+07
7.59775e+06
2.07484e+07
2.76278e+07
2.64124e+07
2.69904e+07
1.3586e+07
2.91353e+07
3.03457e+07
2.6546e+07
4.9706e+07
2.33163e+07
3.08189e+07
2.62785e+07
2.61945e+07
3.61416e+07
1.33672e+07
4.06862e+07
1.39726e+07
2.74429e+07
1.15363e+07
9.26079e+06
2.62533e+07
6.17785e+07
2.39524e+07
-3.78917e+07
1.48203e+07
1.86609e+07
2.68614e+07
2.49145e+07
1.94633e+07
3.46007e+07
2.24884e+07
2.82317e+07
3.10478e+07
-1.70807e+07
2.76228e+07
2.64158e+07
2.56136e+07
1.16707e+08
3.1134e+07
3.10459e+07
3.2065e+07
2.23427e+07
2.58141e+07
4.54381e+06
1.38022e+07
1.35922e+07
1.89812e+07
5.15176e+06
2.60712e+07
3.04105e+07
6.29856e+06
2.61338e+07
4.53312e+07
2.29154e+07
2.70212e+07
2.70067e+07
9.84778e+06
2.64988e+07
2.60125e+07
-1.4e+07
2.63192e+07
1.45249e+07
2.70112e+07
2.76932e+07
5.15519e+07
2.34591e+07
2.36014e+07
4.4337e+07
4.36088e+07
2.38759e+07
2.52116e+07
2.94217e+07
4.36217e+07
4.40327e+07
2.57162e+07
2.64106e+07
9.42948e+06
3.00727e+07
2.5279e+07
2.52194e+07
5.20861e+07
1.88998e+07
2.76546e+07
5.24263e+07
3.20889e+06
-1.96356e+07
2.87385e+06
2.64008e+07
2.73119e+07
2.39654e+07
2.41633e+07
1.7546e+07
-1.46267e+07
2.46527e+07
1.55641e+07
2.42367e+07
2.42051e+07
1.84565e+07
4.66754e+07
1.18705e+07
-2.182e+06
2.34662e+07
3.01577e+07
-1.46306e+07
2.96925e+07
2.33199e+07
3.47804e+07
2.61879e+07
2.89144e+07
3.01552e+07
4.13358e+07
2.69476e+07
2.69385e+07
2.47993e+07
3.50472e+06
2.40827e+07
2.3993e+07
8.40464e+06
3.62741e+07
2.52959e+07
2.316e+07
4.50956e+07
2.92189e+07
2.92808e+07
2.70267e+07
2.35912e+07
5.17785e+07
2.82752e+07
2.38099e+07
2.38656e+07
-9.89959e+06
2.53721e+07
1.05379e+08
2.52777e+06
5.07249e+06
1.72606e+07
2.98142e+07
3.78762e+07
3.27291e+07
2.68395e+07
1.94005e+07
1.37854e+07
2.40065e+07
1.59387e+07
2.5324e+07
2.54877e+07
2.43098e+07
1.80438e+07
-5.1199e+06
1.81126e+07
2.91835e+07
2.6864e+07
2.5541e+07
2.1629e+07
2.15762e+07
2.66229e+07
2.65109e+07
3.37017e+07
2.76358e+07
2.53121e+07
2.66306e+07
3.32494e+07
2.30761e+07
3.382e+07
-1.48697e+07
1.85961e+07
3.00294e+07
4.13074e+07
-1.42204e+07
3.21348e+07
2.43695e+07
1.67202e+07
1.6869e+07
5.21352e+07
2.48967e+07
2.56978e+07
4.05554e+07
2.90322e+07
2.90145e+07
2.60852e+07
2.61518e+07
2.63296e+07
1.10852e+07
-3.70928e+06
-2.28679e+07
5.3249e+07
8.96509e+06
3.03437e+07
9.34851e+07
4.49751e+07
3.13674e+07
3.96376e+07
2.66184e+07
2.65345e+07
1.50192e+07
-5.07244e+06
2.81758e+07
2.83098e+07
1.82487e+07
-5.06183e+06
1.97355e+07
2.67621e+07
-9.62155e+06
4.85028e+07
2.05581e+07
4.53642e+07
2.26751e+07
4.58666e+07
2.75971e+07
2.96078e+07
2.83144e+07
2.82672e+07
4.18361e+07
728783
1.3133e+07
2.70077e+07
3.07739e+07
3.2703e+07
2.44106e+07
2.44517e+07
2.62837e+07
2.32838e+06
2.74066e+07
6.99243e+07
-2.70064e+06
3.20447e+07
3.37408e+07
2.35855e+07
3.02722e+07
2.588e+07
6.59347e+07
1.8188e+07
2.31855e+07
1.93758e+07
1.81591e+07
1.37336e+07
4.64292e+07
3.2779e+07
5.42442e+07
1.74208e+07
2.82839e+07
2.62036e+07
4.81472e+07
2.88091e+07
2.87402e+07
2.65075e+07
2.49923e+07
1.68549e+07
1.68819e+07
-8.00193e+06
3.56628e+07
3.79694e+07
2.37407e+07
2.62689e+07
3.24822e+07
2.69664e+07
2.70123e+07
3.22741e+07
3.11344e+07
2.33167e+07
2.01057e+07
9.33522e+07
2.8283e+07
2.83911e+07
2.65881e+07
3.36644e+07
9.09961e+07
8.02878e+06
1.89058e+07
4.28558e+07
2.50374e+07
2.62905e+07
2.96798e+07
2.95583e+07
3.73149e+07
2.70689e+07
3.73398e+07
2.55399e+07
2.56126e+07
3.27021e+07
1.2005e+07
2.86335e+07
1.64921e+07
3.7678e+07
3.25174e+07
2.33789e+07
2.51532e+07
806914
9.53859e+07
2.54548e+07
1.16443e+08
2.74707e+07
1.00511e+07
6.21194e+06
2.74142e+07
2.72197e+07
2.37848e+07
2.41375e+07
3.17316e+07
3.23601e+07
3.27629e+07
3.41814e+07
2.64373e+07
1.13542e+07
2.7404e+07
2.38676e+07
3.24331e+07
1.9419e+07
2.43685e+07
2.42755e+07
2.63158e+07
-3.47005e+07
1.85865e+07
2.70747e+07
7.808e+07
7.53055e+07
2.33534e+07
2.39058e+07
3.24567e+07
3.29232e+07
2.32189e+07
4.58256e+07
2.57623e+07
2.47242e+07
2.67582e+07
2.74353e+07
-1.90539e+07
2.33765e+07
2.63764e+07
1.54983e+07
2.48403e+07
2.48794e+07
4.23438e+07
3.03498e+07
3.0203e+07
2.74872e+07
1.20223e+07
4.69716e+07
2.67449e+07
-1.09521e+06
2.15741e+07
2.51112e+07
2.22326e+07
2.15167e+07
2.58188e+07
3.5895e+07
3.48387e+07
2.55581e+07
2.73037e+07
2.47002e+07
2.14143e+07
2.74868e+07
3.02085e+07
2.75597e+07
2.32409e+07
2.65897e+07
2.45813e+07
6.17353e+07
2.22832e+07
2.63763e+07
7.98591e+06
2.82069e+07
8.31448e+06
1.15098e+07
1.13261e+07
5.86577e+07
5.12126e+07
2.64531e+07
2.83119e+07
-8.92741e+06
-4.06371e+06
8.01144e+07
-934204
6.77852e+06
2.34931e+07
1.25124e+07
2.7194e+07
2.44964e+07
2.44059e+07
2.47327e+07
2.52388e+07
2.46904e+07
2.45792e+07
-5.93446e+06
1.4415e+07
3.6508e+07
1.83246e+07
5.95792e+06
4.16866e+07
1.82252e+07
6.49128e+06
2.97793e+06
6.06022e+06
3.25778e+07
6.50418e+06
3.52566e+07
2.68594e+07
2.67793e+07
2.63864e+07
2.56797e+07
9.59095e+06
7.9664e+07
2.50876e+07
2.29939e+07
2.1473e+07
2.97083e+07
-6.97676e+06
5.72409e+06
7.43469e+06
-9.91482e+06
1.83974e+07
1.22574e+07
3.2875e+07
4.18257e+07
3.30346e+07
1.85096e+07
4.70075e+07
4.6988e+07
1.64218e+07
6.88514e+07
-8.6425e+06
-5.57363e+06
2.41371e+07
2.40946e+07
2.65253e+07
3.09315e+07
6.20247e+06
2.30759e+07
4.78317e+07
2.58504e+07
2.62729e+07
-1.03161e+07
1.92452e+07
-2.32841e+07
1.66509e+07
4.53444e+07
4.55465e+07
2.9786e+07
2.98629e+07
1.10565e+07
2.25143e+07
1.94287e+07
2.71718e+07
2.32697e+07
3.03749e+07
1.8598e+07
2.72224e+07
1.88402e+07
2.65226e+07
2.10702e+07
2.75492e+07
3.0847e+07
2.13588e+07
2.52426e+07
2.53443e+07
2.6464e+07
2.63701e+07
2.76361e+07
-2.80003e+07
1.75813e+07
2.10234e+07
1.88656e+07
1.5658e+07
2.19468e+07
5.8136e+07
6.41716e+07
2.37123e+07
2.259e+07
2.93787e+07
2.70882e+07
1.87463e+07
1.03303e+07
4.64667e+07
-280410
6.18767e+07
1.51548e+07
2.99087e+07
2.58354e+07
2.82779e+07
2.83578e+07
3.27057e+07
2.51143e+07
2.66907e+07
2.69909e+07
4.42344e+07
2.78286e+07
2.60731e+07
3.08436e+07
4.58192e+07
1.74437e+07
-3.3759e+07
3.28685e+06
2.96814e+07
1.40501e+07
3.347e+07
5.17054e+07
1.58715e+07
7.96556e+06
4.42032e+07
-2.26869e+07
1.8303e+06
9.59778e+06
3.02276e+07
2.62912e+07
3.48311e+07
3.51472e+07
1.91831e+07
-2.79909e+07
2.57598e+07
1.96027e+07
1.91704e+07
-2.70894e+07
2.75357e+07
2.67597e+07
2.37619e+07
4.28439e+07
2.17652e+07
1.5174e+07
2.90827e+07
2.6894e+07
2.65706e+07
2.6281e+07
2.86454e+07
3.7319e+07
2.49891e+07
2.79704e+07
2.67446e+07
4.68026e+07
3.21922e+07
2.50333e+07
4.30465e+07
-2.84595e+07
4.01354e+07
8.97871e+06
2.90413e+07
4.81351e+07
2.42132e+07
2.60773e+07
2.38613e+07
3.22929e+07
3.05835e+07
1.63702e+06
2.81157e+07
2.22049e+07
3.33728e+07
2.65864e+07
2.63884e+07
2.64375e+07
1.75644e+07
1.77862e+07
2.13785e+07
4.47877e+07
2.71446e+07
1.11363e+07
2.72565e+07
2.83994e+07
2.83348e+07
3.34798e+07
2.0337e+07
2.83676e+07
2.70412e+07
2.71495e+07
2.74606e+07
1.93457e+07
-3.69499e+07
2.02513e+07
-760184
2.01707e+07
3.00112e+07
1.74708e+07
2.74508e+07
2.67256e+07
2.13568e+07
4.82215e+07
2.92795e+07
2.60054e+07
2.56743e+07
2.5893e+07
3.06294e+07
2.47173e+07
1.87593e+07
2.47222e+07
3.28185e+07
3.23565e+07
2.60464e+07
1.42341e+07
2.43264e+07
3.14146e+07
2.79812e+07
5.42993e+07
3.05448e+07
1.92507e+07
1.99173e+07
4.35455e+07
3.39116e+07
2.55792e+07
2.98185e+07
2.17162e+07
2.6231e+07
2.33736e+07
2.34553e+07
2.30069e+07
2.31156e+07
1.2587e+07
2.32028e+07
3.91008e+07
3.68938e+07
2.65812e+07
3.8133e+07
1.82317e+07
-3.95015e+07
2.9335e+07
1.84638e+07
4.73105e+07
5.34123e+07
7.28048e+06
3.03051e+07
2.79641e+07
2.64262e+07
2.38537e+07
5.08544e+07
3.21437e+07
2.64964e+07
2.52683e+06
2.51794e+07
4.6803e+07
2.96056e+07
2.65404e+07
1.75712e+07
2.23888e+07
2.62426e+07
2.54874e+07
1.0932e+07
5.08848e+07
4.42517e+07
7.43053e+07
3.34759e+07
1.6181e+07
1.92861e+07
1.92919e+07
1.29157e+07
1.44707e+07
2.70543e+07
1.85401e+07
4.67034e+07
1.72714e+07
-2.14751e+07
3.11027e+07
3.11512e+07
4.62062e+07
3.74604e+07
1.70165e+07
2.46003e+07
2.53577e+07
1.18141e+07
4.73088e+07
1.21486e+07
2.62337e+07
2.689e+07
2.51412e+07
2.76729e+07
2.53027e+07
9.57432e+06
2.71829e+07
2.55783e+07
1.82543e+07
2.52083e+07
2.51281e+07
2.43086e+07
2.42655e+07
2.69709e+07
2.84663e+07
1.80134e+07
3.17685e+07
2.8243e+07
1.25848e+07
1.63151e+07
3.68843e+07
1.58398e+07
3.27063e+07
1.09541e+07
5.14071e+07
2.55414e+07
2.55942e+07
3.31425e+07
1.78535e+07
1.85543e+07
2.12462e+07
4.3277e+07
2.53491e+07
2.85356e+07
3.29853e+07
4.30864e+07
-7.98271e+06
2.995e+07
1.37957e+07
2.05161e+07
3.31826e+07
2.52089e+07
2.89678e+07
2.79411e+07
2.42565e+07
2.23736e+07
2.11692e+07
3.11711e+07
2.46868e+07
7.54459e+07
3.53646e+07
4.54045e+07
-4.52225e+07
4.23605e+07
2.50943e+07
4.7094e+07
2.4243e+07
3.17921e+07
1.96058e+07
2.8221e+07
2.89394e+07
1.85618e+07
2.36471e+07
2.67543e+07
3.16162e+07
2.69403e+07
2.94965e+07
1.9412e+07
1.96372e+07
3.65623e+07
5.75218e+06
1.92867e+07
3.01383e+07
2.65143e+07
2.99707e+07
4.0755e+07
3.25425e+07
62374.5
9.5199e+06
1.37126e+07
3.79671e+06
2.61327e+07
-5.83738e+06
2.37818e+07
3.18057e+07
3.75482e+07
8.29704e+07
2.23705e+07
2.37729e+07
3.28017e+07
3.24419e+07
2.58034e+07
2.78233e+07
2.01545e+07
2.03027e+07
3.58598e+07
2.60634e+07
3.2919e+07
2.77679e+07
2.76943e+07
3.45171e+07
3.25071e+07
4.59767e+06
1.00854e+07
2.41697e+07
3.35298e+07
9.4096e+06
3.05519e+07
2.50978e+07
-2.03577e+06
2.42119e+07
7.61948e+07
-1.90047e+06
3.20547e+07
4.07758e+07
9.44416e+06
2.47368e+07
2.47433e+07
2.4701e+07
2.82404e+07
2.63657e+07
3.01377e+07
3.0042e+07
3.27168e+07
3.01979e+06
3.65515e+07
4.65121e+07
2.31412e+07
3.38816e+07
2.20824e+07
9.81549e+06
2.35879e+07
2.92548e+07
3.05972e+07
4.60017e+07
2.49621e+07
7.33329e+07
3.23303e+07
7.35961e+07
2.38706e+07
3.74022e+07
2.74925e+07
2.80145e+07
2.18914e+07
3.05549e+07
2.79566e+07
2.40972e+07
1.13747e+07
-1.01594e+06
2.00213e+07
2.77377e+07
-1.39905e+06
4.5825e+07
3.01314e+07
2.9991e+07
2.51625e+07
3.35451e+07
3.38317e+07
757390
674890
2.40991e+07
2.41337e+07
3.67326e+07
3.76389e+07
2.35219e+07
3.32807e+07
1.62241e+07
3.52784e+07
5.07783e+07
1.09978e+07
2.59293e+07
2.66885e+07
2.25567e+07
2.96115e+07
2.45544e+07
-6.02634e+06
2.31363e+07
3.30843e+07
-1.28174e+07
2.81056e+07
2.83339e+07
1.90544e+07
2.71542e+07
2.36101e+07
3.51367e+07
3.24066e+07
2.30082e+07
3.77048e+06
1.85799e+07
1.64131e+07
2.64401e+07
2.47136e+07
3.992e+07
4.59314e+06
2.60087e+07
2.58987e+07
-9.34915e+06
2.53367e+07
2.47709e+07
2.04743e+07
-8.97348e+06
2.94066e+07
2.5239e+07
3.31748e+07
5.13577e+07
3.06429e+07
3.07826e+07
5.85571e+07
3.35354e+07
2.7998e+07
2.59683e+07
1.94015e+07
9.3338e+06
4.6824e+07
2.51618e+07
2.37179e+07
7.17554e+07
2.84595e+07
2.71548e+07
3.17227e+07
2.70419e+07
2.78008e+07
4.51839e+07
2.70944e+07
2.39492e+07
-1.21212e+06
2.74219e+07
1.74342e+07
2.66954e+07
2.45838e+07
2.19754e+07
2.78857e+07
3.75365e+07
4.14769e+07
2.9833e+07
3.01657e+07
3.03029e+07
3.33173e+07
3.0876e+07
1.17472e+07
2.81302e+07
1.20178e+07
2.5781e+07
2.62931e+07
4.93502e+07
5.54199e+07
2.5967e+07
1.31932e+07
2.20616e+07
3.00989e+07
2.77397e+07
4.82179e+07
2.75345e+07
2.74974e+07
1.18132e+07
1.22427e+07
1.84175e+07
1.84893e+07
3.19668e+07
2.43681e+07
3.13144e+07
3.14497e+07
-8.46519e+06
1.97049e+07
1.98074e+07
2.72902e+07
5.24069e+07
4.72673e+07
3.10108e+07
2.94573e+07
3.65613e+07
2.70297e+07
1.63929e+07
8.59938e+06
2.61395e+07
3.86336e+07
3.15153e+06
2.61441e+07
2.73172e+07
4.18405e+07
1.99917e+07
1.76125e+06
2.94504e+07
-5.92835e+06
3.94565e+07
2.8354e+07
2.82569e+07
2.94525e+07
2.3873e+07
1.39023e+07
-2.4792e+06
3.13366e+07
2.74997e+07
2.96965e+07
4.43279e+07
4.47719e+07
6.80428e+06
2.58921e+07
1.94779e+07
1.94868e+07
-2.03332e+07
4.37723e+07
6.03325e+07
2.79069e+07
5.62713e+07
3.04698e+07
6.39654e+07
3.07491e+07
3.70209e+07
1.38408e+06
2.5695e+07
2.5654e+07
2.6834e+07
3.33138e+07
3.23887e+07
7.81106e+07
5.58065e+06
2.77556e+07
2.90612e+07
2.53116e+07
2.66369e+07
6.64869e+07
259779
2.36824e+07
2.35803e+07
2.56335e+07
2.2789e+07
1.37076e+07
2.26143e+07
3.72279e+07
3.73402e+07
2.58052e+07
7.32284e+07
7.24487e+07
4.56111e+07
5.30275e+07
3.16059e+07
2.29691e+07
2.60968e+07
2.61319e+07
7.92204e+07
1.08379e+07
5.63605e+07
-2.40007e+07
3.14818e+07
2.30461e+07
3.0859e+07
8.81986e+07
1.35409e+07
1.98517e+07
1.35351e+06
2.82226e+07
-4.46923e+06
3.92446e+07
2.84732e+07
2.75663e+07
2.75144e+07
2.46483e+07
-397300
-2.01047e+07
2.04412e+07
2.8809e+07
2.97866e+07
2.57492e+07
3.27264e+07
5.65378e+07
2.02527e+07
2.22805e+07
4.55946e+07
2.01953e+06
2.31123e+07
3.17854e+07
2.91579e+07
1.68054e+07
2.88579e+07
1.21001e+07
6.52083e+07
2.8161e+07
2.02112e+07
2.31019e+07
2.86884e+07
3.28304e+07
3.29108e+07
2.83135e+07
2.17479e+07
2.55217e+07
2.39959e+07
1.36417e+07
1.95871e+07
2.19381e+07
2.72662e+07
2.57864e+07
3.78614e+07
2.23055e+07
2.54088e+07
2.54094e+07
6.30696e+06
2.31357e+07
3.16194e+07
7.51835e+06
4.16684e+07
2.42691e+07
7.94528e+06
3.36904e+07
4.03821e+07
2.64859e+07
2.55717e+07
2.38529e+07
2.74162e+07
3.48541e+07
4.34866e+07
1.2905e+07
4.39454e+07
2.63698e+07
2.72987e+07
2.72472e+07
8.63092e+06
9.27031e+06
1.93389e+07
2.46555e+07
2.87649e+07
2.88073e+07
3.21631e+07
2.05753e+07
3.3621e+07
8.71935e+06
1.85494e+07
2.39793e+07
4.30822e+07
4.32404e+07
3.84989e+07
1.74178e+07
2.5386e+07
3.68803e+07
7.91617e+07
2.41518e+07
2.40582e+07
1.6037e+07
3.04069e+07
2.35011e+07
4.64883e+07
2.3109e+07
3.31484e+07
2.28762e+07
2.50279e+07
2.89366e+07
3.54193e+06
2.90406e+07
3.28638e+07
2.58091e+07
2.57346e+07
2.33932e+07
2.75654e+07
-1.06558e+07
2.40136e+07
-1.1897e+07
1.13554e+07
4.17925e+07
4.26015e+07
3.97072e+07
2.44673e+07
6.08479e+07
2.70382e+07
3.95074e+07
-2.59588e+07
3.30751e+07
3.30494e+07
2.71749e+07
2.75579e+07
2.17681e+06
3.30865e+07
2.43028e+07
2.43046e+07
2.31853e+07
3.4335e+07
2.9663e+07
5.13054e+07
2.73439e+07
3.08999e+07
5.07098e+07
4.48052e+07
2.73081e+07
2.72976e+07
3.55951e+07
1.83505e+07
2.62901e+07
2.63432e+07
1.07082e+07
2.96552e+07
1.32e+07
3.12406e+07
2.52292e+07
2.53496e+07
2.26663e+07
2.27637e+07
1.37498e+07
2.53672e+07
1.70305e+07
2.45171e+07
2.55924e+07
5.52569e+07
2.52418e+07
2.48657e+07
2.06846e+07
2.21874e+07
6.49875e+07
1.62521e+07
2.43887e+07
9.93098e+06
4.10017e+07
2.90517e+07
1.0106e+07
2.2431e+07
2.70205e+07
2.5353e+07
2.53597e+07
4.24188e+07
3.07618e+07
5.90339e+07
3.06831e+07
2.33778e+07
1.4851e+07
2.45574e+07
2.61351e+07
5.04457e+07
-5.53174e+06
3.72694e+07
5.31957e+07
2.41963e+07
2.99449e+07
2.64252e+07
6.03618e+07
1.1198e+07
2.45989e+07
1.81735e+07
4.92068e+07
2.48768e+07
2.66248e+07
-2.81248e+07
2.64729e+07
5.1376e+07
5.21838e+07
2.36176e+07
2.99273e+07
4.04274e+07
3.30525e+07
2.77475e+07
2.3291e+07
5.39429e+06
-2.14252e+06
5.28423e+07
2.70211e+07
2.52284e+07
-3.72463e+07
5.71688e+07
2.92397e+07
3.89722e+07
-1.3497e+07
3.76121e+07
3.42851e+07
1.62779e+07
1.82524e+07
1.55785e+07
2.6203e+07
7.82269e+07
2.30895e+07
3.95958e+07
2.51333e+07
2.54135e+07
2.21241e+07
4.15455e+07
5.12046e+07
2.17398e+07
2.77086e+07
2.76562e+07
8.09274e+07
-3.27502e+06
-3.55515e+06
2.81342e+07
2.9358e+07
2.51944e+07
2.68788e+07
5.24169e+07
3.20282e+07
1.70151e+07
4.63249e+07
5.00343e+07
2.5197e+07
3.14027e+07
2.03555e+07
2.76088e+07
2.74003e+07
3.78484e+07
3.73132e+07
2.8677e+07
3.34136e+07
1.31516e+07
3.6377e+07
2.6553e+07
2.40664e+07
-2.70298e+07
5.03965e+07
-133664
2.96767e+07
4.28933e+07
4.32901e+07
1.11552e+07
2.76399e+07
2.4607e+07
2.75052e+07
2.81222e+07
5.2716e+07
5.31763e+07
4.04636e+07
4.37593e+07
2.81133e+07
6.05762e+07
2.00503e+07
1.06822e+07
-2.93865e+06
2.53442e+07
-7.07926e+06
6.58314e+06
1.67508e+07
1.68064e+07
3.47068e+07
2.37635e+07
1.26771e+07
4.09286e+07
1.29326e+07
2.67661e+07
3.03966e+07
2.43253e+07
2.57455e+07
3.22945e+07
2.31937e+07
2.34244e+07
4.05246e+07
2.8929e+07
-641965
-2.98853e+06
4.10799e+07
-1.90943e+07
2.55513e+07
-7.37278e+06
2.71597e+07
2.69896e+07
2.6177e+07
3.3546e+07
1.02516e+07
3.55965e+07
3.07349e+07
1.60166e+07
3.35788e+07
-1.35191e+07
5.53021e+06
1.41698e+07
1.45053e+07
3.9417e+07
2.27539e+07
2.63833e+07
2.54532e+07
1.05472e+07
-2.41235e+06
3.095e+07
2.58277e+07
3.06883e+07
2.45203e+07
2.46073e+07
2.77105e+07
2.94868e+07
1.65343e+07
2.63764e+07
3.23339e+07
2.84889e+07
2.61273e+07
5.65266e+07
5.75917e+07
2.65666e+07
2.89822e+07
2.24021e+07
2.74126e+07
2.12248e+07
4.1506e+07
4.40283e+07
3.15531e+07
2.45636e+07
3.13701e+07
2.50566e+07
-2.0183e+07
3.79862e+07
2.77992e+07
3.03094e+07
3.02418e+07
3.20198e+07
9.93458e+06
2.07827e+07
2.43694e+07
2.04769e+07
5.8889e+06
2.4814e+07
-1.2932e+07
2.96036e+07
2.9693e+07
1.74234e+07
2.6963e+07
2.71396e+07
2.71792e+07
2.021e+07
2.73625e+07
2.7293e+07
1.77293e+07
4.287e+07
3.65104e+07
2.67117e+07
3.32394e+07
1.26261e+07
4.71587e+07
5.66874e+07
2.77563e+07
2.78593e+07
1.42208e+07
2.57484e+07
2.76304e+07
6.69634e+07
5.6462e+07
2.76343e+07
3.06313e+07
2.49682e+07
2.50363e+07
4.65124e+07
5.56566e+06
2.85092e+07
-2.3719e+07
2.69083e+07
1.99802e+07
2.84239e+07
2.54534e+07
5.66703e+07
3.2238e+07
2.59878e+07
2.58959e+07
2.65432e+07
2.84873e+07
2.84611e+07
1.26477e+06
-8.76103e+06
-9.45857e+06
3.02713e+07
3.02557e+07
2.38858e+07
1.96747e+07
1.98758e+07
2.85183e+07
2.78236e+07
8.34465e+06
3.17073e+07
8.49986e+06
2.28459e+07
2.30736e+07
3.06379e+07
3.8631e+07
2.90007e+07
1.49654e+07
3.41873e+07
3.39237e+07
2.16992e+07
3.17506e+07
3.17568e+07
2.3793e+07
2.37698e+07
2.87942e+07
8.43468e+07
2.67075e+07
2.57098e+07
2.72139e+07
1.13123e+07
6.48556e+07
2.55595e+07
2.63841e+07
2.63524e+07
2.93548e+07
2.37301e+07
2.90537e+07
2.66443e+07
3.7499e+07
678246
2.74341e+07
1.1361e+06
2.96802e+07
2.31809e+07
4.16322e+07
2.31607e+07
3.06258e+07
3.078e+07
2.33751e+07
3.30407e+06
2.59021e+07
2.90963e+07
5.5069e+07
2.53967e+07
2.51305e+07
1.5216e+07
1.82828e+07
2.47526e+07
3.376e+07
2.02396e+07
2.66434e+07
2.65834e+07
2.28078e+07
3.59329e+07
4.62882e+07
4.61035e+07
2.4407e+07
3.03409e+07
5.07101e+07
2.67812e+07
-5.48683e+06
2.65576e+07
2.65326e+07
2.98819e+07
2.86659e+07
6.49742e+06
2.2781e+07
2.61587e+07
550052
3.47334e+07
2.57275e+06
2.63116e+07
2.94985e+07
1.31305e+07
2.44558e+07
2.88084e+07
2.60886e+07
2.25159e+07
2.60752e+07
-1.58594e+07
8.57258e+06
2.6901e+07
2.39105e+07
4.59107e+07
2.99358e+07