/*--------------------------------*- C++ -*----------------------------------*\
| =========                 |                                                 |
| \\      /  F ield         | OpenFOAM: The Open Source CFD Toolbox           |
|  \\    /   O peration     | Version:  v2012                                 |
|   \\  /    A nd           | Website:  www.openfoam.com                      |
|    \\/     M anipulation  |                                                 |
\*---------------------------------------------------------------------------*/
FoamFile
{
    version     2.0;
    format      ascii;
    class       volSymmTensorField;
    location    "18";
    object      epsilon;
}
// * * * * * * * * * * * * * * * * * * * * * * * * * * * * * * * * * * * * * //

dimensions      [0 0 0 0 0 0 0];


internalField   nonuniform List<symmTensor> 
32000
(
(0.00934012 -0.00026076 -5.58881e-18 -0.010338 6.60023e-19 4.09469e-33)
(0.0077336 -0.000204569 -9.56147e-18 -0.00860371 3.25802e-18 0)
(0.00862049 -0.0001538 0 -0.00917376 0 0)
(0.00769745 -0.000236456 3.11292e-18 -0.00861058 4.21065e-18 0)
(0.00831872 -0.00010457 1.57238e-17 -0.00887479 -3.52987e-18 0)
(0.0077129 -0.000247573 1.0556e-17 -0.00854217 -2.31533e-18 0)
(0.00816388 -8.82244e-05 1.27102e-17 -0.00862696 4.74097e-18 0)
(0.00771231 -0.000250465 5.69976e-18 -0.00840976 -4.03547e-18 0)
(0.00806251 -8.57384e-05 0 -0.00842543 0 0)
(0.00768855 -0.00024995 -3.63656e-19 -0.00826266 2.88908e-18 0)
(0.0079729 -8.8095e-05 9.10261e-18 -0.00823582 4.0248e-19 0)
(0.00763767 -0.000247324 2.09007e-18 -0.00809127 -4.74335e-18 0)
(0.00787619 -9.23005e-05 5.74072e-18 -0.00803695 -3.47597e-18 0)
(0.00756068 -0.000242948 4.9413e-18 -0.00789625 1.88355e-18 0)
(0.00776407 -9.72533e-05 6.39205e-18 -0.00782244 7.50401e-18 0)
(0.0074592 -0.000237607 -6.23765e-18 -0.00767931 -7.13518e-18 0)
(0.00763358 -0.000102387 -2.27704e-17 -0.00759107 2.27571e-18 0)
(0.00733644 -0.000230998 -1.86168e-17 -0.0074423 3.71867e-18 0)
(0.00748493 -0.000107281 -1.15634e-17 -0.00734355 -3.91614e-18 0)
(0.00719478 -0.000223421 -8.13301e-18 -0.0071892 -2.35436e-19 0)
(0.00731974 -0.000111597 -3.0585e-18 -0.0070809 -3.30728e-18 0)
(0.00703674 -0.000214816 -2.9787e-18 -0.00692264 -3.14511e-18 0)
(0.00713942 -0.000115239 -8.01416e-18 -0.00680569 -4.69317e-19 0)
(0.00686398 -0.000206208 -4.7969e-18 -0.00664419 2.70414e-18 0)
(0.00694592 -0.000118293 0 -0.00652095 0 0)
(0.0066799 -0.000196658 -5.70729e-18 -0.00635558 -3.57749e-18 0)
(0.00674157 -0.000120771 -1.21913e-17 -0.00622875 1.89389e-18 0)
(0.00648564 -0.000186997 -8.96163e-18 -0.00606116 2.72004e-18 0)
(0.00652889 -0.000122346 -2.77395e-18 -0.00593018 -2.6748e-18 0)
(0.00628321 -0.000177023 0 -0.00576252 0 0)
(0.00630894 -0.000123362 4.30664e-18 -0.00562693 -2.05738e-18 0)
(0.00607293 -0.000167215 9.42183e-18 -0.00545866 4.53358e-18 0)
(0.0060833 -0.000124066 1.19307e-17 -0.005322 5.16843e-18 0)
(0.00585712 -0.000157471 1.3389e-18 -0.0051537 -5.79538e-18 0)
(0.00585355 -0.000124206 -5.02402e-18 -0.0050152 -4.40862e-18 0)
(0.00563733 -0.000147585 1.19155e-19 -0.00484901 1.56188e-18 0)
(0.00561995 -0.000123862 2.41947e-18 -0.004707 2.05183e-18 0)
(0.00541299 -0.000137727 0 -0.00454224 0 0)
(0.00538317 -0.000123357 -3.57024e-18 -0.0044002 1.49133e-18 0)
(0.0051852 -0.000127885 -5.5248e-18 -0.00423693 9.69928e-19 0)
(0.00514405 -0.000122363 3.38686e-18 -0.00409374 -1.3604e-18 0)
(0.00495513 -0.000118039 3.2579e-18 -0.00393401 -1.29828e-18 0)
(0.00490264 -0.000120846 -3.20386e-18 -0.00378791 1.23254e-18 0)
(0.00472259 -0.000107712 -7.19455e-18 -0.00363054 -1.92235e-18 0)
(0.00465931 -0.000119275 -1.01066e-17 -0.00348548 -7.26843e-19 0)
(0.00448798 -9.75219e-05 -9.73453e-18 -0.00333121 -7.60636e-19 0)
(0.00441435 -0.000117147 -6.70335e-18 -0.00318425 -1.68411e-18 0)
(0.00425216 -8.7436e-05 -2.73427e-18 -0.00303477 9.05372e-19 0)
(0.00416853 -0.000114376 0 -0.00288739 0 0)
(0.00401645 -7.65384e-05 2.06736e-19 -0.00274137 8.44948e-19 0)
(0.00392301 -0.000111122 6.69975e-18 -0.00259648 -4.56084e-19 0)
(0.00378139 -6.58024e-05 4.78749e-18 -0.00245592 -1.33285e-18 0)
(0.0036789 -0.000106923 -2.31287e-18 -0.00231006 6.62961e-19 0)
(0.00354809 -5.4691e-05 -5.15488e-18 -0.00217573 -6.56218e-19 0)
(0.00343792 -0.000102281 -5.81356e-18 -0.00203397 2.89444e-19 0)
(0.00331859 -4.37348e-05 -1.61338e-18 -0.00190642 1.4026e-18 0)
(0.0032017 -9.68867e-05 3.96326e-18 -0.00176692 -9.45676e-19 0)
(0.00309477 -3.27355e-05 2.86945e-18 -0.00164846 -4.34764e-19 0)
(0.00297231 -9.06215e-05 1.32591e-18 -0.0015133 6.2663e-19 0)
(0.00287877 -2.13939e-05 2.11414e-19 -0.00140359 4.25592e-19 0)
(0.00275218 -8.36994e-05 2.90824e-18 -0.00127588 2.2065e-19 0)
(0.00267285 -1.04299e-05 4.23096e-19 -0.00117681 -7.33761e-19 0)
(0.00254346 -7.58652e-05 -4.21828e-18 -0.00105423 3.61066e-20 0)
(0.00247891 7.8501e-07 -3.39196e-18 -0.000966001 -3.73745e-19 0)
(0.0023483 -6.78972e-05 -3.51603e-18 -0.000853855 -5.49227e-19 0)
(0.00229915 1.14481e-05 -3.39878e-19 -0.000777411 4.50003e-19 0)
(0.00216824 -5.93289e-05 3.56296e-18 -0.000673115 4.55399e-20 0)
(0.00213462 2.2063e-05 1.17425e-18 -0.00060866 -9.80968e-20 0)
(0.00200466 -5.04462e-05 2.08787e-18 -0.000515234 1.54295e-19 0)
(0.00198632 3.23547e-05 1.53013e-18 -0.000462959 3.45526e-19 0)
(0.00185798 -4.10374e-05 2.75572e-18 -0.000378855 3.22541e-19 0)
(0.00185412 4.21967e-05 3.24911e-18 -0.000339164 5.74598e-19 0)
(0.00172838 -3.04259e-05 3.82192e-18 -0.000264596 1.20901e-19 0)
(0.00173814 5.14348e-05 4.77062e-18 -0.000236487 8.11816e-19 0)
(0.00161283 -1.90323e-05 2.14259e-18 -0.000165228 3.1843e-19 0)
(0.00163533 6.08596e-05 -1.50793e-19 -0.000151001 -6.02893e-20 0)
(0.00151404 -7.75574e-06 -6.65359e-19 -0.00011711 -8.92205e-20 0)
(0.00154935 6.44598e-05 5.38963e-19 -9.01275e-05 9.90049e-20 0)
(0.00144328 -2.3146e-06 -8.4698e-19 -0.000108716 -2.67699e-20 0)
(0.00146964 7.34167e-05 -1.1246e-18 -9.28718e-05 -1.73388e-19 0)
(0.00715141 -0.000397669 2.20008e-18 -0.00846652 -1.51707e-18 9.77172e-33)
(0.00774692 -0.000549335 6.02025e-18 -0.00841101 -4.80108e-18 0)
(0.0076399 -0.000402664 5.96666e-18 -0.00841895 -4.61332e-18 0)
(0.00780243 -0.000566401 8.35164e-18 -0.00848956 2.22276e-18 0)
(0.00779825 -0.000409668 4.71224e-18 -0.00853367 1.89977e-18 0)
(0.00782134 -0.000575986 5.946e-18 -0.00844122 -4.60039e-18 0)
(0.00783476 -0.000415307 -5.89056e-18 -0.00847115 4.24422e-18 0)
(0.00781361 -0.000578992 -5.8698e-18 -0.00831657 4.41597e-18 0)
(0.00781218 -0.000423048 2.20944e-18 -0.00834696 -4.96507e-18 0)
(0.00777982 -0.000579117 5.35712e-18 -0.00816881 -1.33822e-18 0)
(0.0077519 -0.000431272 1.10013e-17 -0.00818494 -4.794e-18 0)
(0.00771853 -0.000576983 1.41389e-17 -0.00799555 -1.65863e-18 0)
(0.00766301 -0.000438358 4.95495e-18 -0.00799338 2.06523e-18 0)
(0.00763208 -0.000572739 8.70232e-18 -0.00779839 -3.3698e-19 0)
(0.00755111 -0.000443581 3.17114e-18 -0.00777975 3.62628e-18 0)
(0.00752374 -0.0005662 3.36849e-18 -0.00758136 7.60379e-19 0)
(0.00741915 -0.000446851 3.32151e-18 -0.00754764 8.18094e-19 0)
(0.00739571 -0.000557557 0 -0.00734599 0 0)
(0.00726929 -0.000448239 0 -0.00729968 0 0)
(0.00725008 -0.000546576 9.90838e-20 -0.0070953 -2.4188e-18 0)
(0.0071033 -0.000447509 -1.29614e-17 -0.00703772 2.6275e-18 0)
(0.00708843 -0.00053405 -9.7978e-18 -0.00683119 1.40822e-18 0)
(0.00692422 -0.00044494 -6.0933e-18 -0.00676389 -6.18216e-18 0)
(0.0069139 -0.000519847 3.01494e-18 -0.00655701 2.87835e-18 0)
(0.00673369 -0.000440667 4.6425e-18 -0.00648034 -3.16072e-19 0)
(0.00672754 -0.000504316 4.60404e-18 -0.00627328 -2.62155e-18 0)
(0.00653313 -0.000435139 -1.57745e-18 -0.00618932 3.05287e-18 0)
(0.00653059 -0.000487359 -4.51888e-18 -0.00598301 4.49088e-19 0)
(0.00632344 -0.000428132 5.57926e-18 -0.00589183 -7.05703e-18 0)
(0.00632424 -0.000469927 8.75449e-18 -0.00568697 -7.49122e-19 0)
(0.00610744 -0.000419985 7.00344e-18 -0.00558961 2.37395e-18 0)
(0.00611155 -0.000452023 1.64492e-18 -0.00538725 -8.77542e-19 0)
(0.00588576 -0.000410916 5.19867e-18 -0.00528377 2.94711e-18 0)
(0.00589283 -0.000432642 -2.47542e-18 -0.00508479 -5.46126e-19 0)
(0.00565795 -0.000400836 -6.04596e-18 -0.00497582 1.14551e-18 0)
(0.00566687 -0.000413089 -1.55979e-18 -0.00478048 6.99772e-19 0)
(0.0054262 -0.000389817 -6.01774e-18 -0.00466563 -5.34316e-19 0)
(0.00543646 -0.000393226 -1.02886e-18 -0.00447511 3.48182e-18 0)
(0.00519129 -0.000377833 6.88634e-18 -0.00435434 -1.33544e-18 0)
(0.00520245 -0.000371739 6.67888e-18 -0.00416916 -2.78332e-18 0)
(0.00495253 -0.000364964 0 -0.00404417 0 0)
(0.0049634 -0.000349953 2.30888e-18 -0.00386465 1.67153e-18 0)
(0.00471124 -0.000351055 5.18978e-18 -0.00373343 5.77213e-19 0)
(0.00472118 -0.000327368 3.26683e-18 -0.00356057 3.84506e-20 0)
(0.00446809 -0.000336088 2.16719e-18 -0.00342471 1.53588e-18 0)
(0.00447654 -0.0003033 -3.0871e-19 -0.00325857 -1.01806e-18 0)
(0.00422398 -0.000319951 4.93547e-19 -0.00312061 -2.2165e-18 0)
(0.00422977 -0.000278665 3.24416e-18 -0.00296173 1.05624e-18 0)
(0.00398013 -0.00030223 9.49908e-18 -0.00281833 1.83234e-19 0)
(0.00398244 -0.000252467 4.42509e-18 -0.00266772 -1.86311e-18 0)
(0.00373767 -0.000283399 -3.37857e-19 -0.00252465 1.7163e-18 0)
(0.00373555 -0.000225737 -1.91737e-18 -0.00238172 1.2457e-18 0)
(0.00349856 -0.00026325 4.46525e-18 -0.00223863 -1.26882e-19 0)
(0.00349184 -0.000198401 4.15535e-18 -0.00210477 -7.66541e-19 0)
(0.00326472 -0.000241599 7.12778e-19 -0.00196291 9.7312e-19 0)
(0.00325338 -0.000169867 -1.57903e-18 -0.0018383 8.3142e-19 0)
(0.00303812 -0.000218913 2.63098e-18 -0.00170224 -1.80913e-19 0)
(0.00302218 -0.000141692 6.53779e-18 -0.00158711 1.31963e-18 0)
(0.00282166 -0.000194476 6.60411e-18 -0.00145464 9.05502e-19 0)
(0.00280136 -0.000112608 6.56581e-18 -0.00135003 9.79498e-19 0)
(0.00261667 -0.000169577 1.30791e-18 -0.00122699 1.38759e-18 0)
(0.00259276 -8.42819e-05 -3.10659e-18 -0.00113252 -1.03992e-18 0)
(0.00242544 -0.000143657 -2.02289e-18 -0.0010172 -7.04168e-19 0)
(0.00239895 -5.59586e-05 -2.27398e-18 -0.000934321 -3.88971e-19 0)
(0.00224902 -0.000117322 0 -0.000829036 0 0)
(0.00222129 -2.83707e-05 5.76788e-19 -0.000758018 4.94469e-19 0)
(0.00208836 -9.06967e-05 3.22271e-18 -0.000661465 6.58022e-19 0)
(0.00206102 -1.47819e-06 3.98188e-18 -0.000603184 1.03632e-18 0)
(0.00194391 -6.3828e-05 5.78415e-19 -0.000515171 3.57798e-19 0)
(0.00191876 2.48935e-05 -2.20646e-18 -0.00047122 -9.95518e-19 0)
(0.00181555 -3.72432e-05 -3.45334e-18 -0.000390722 -1.0677e-18 0)
(0.00179442 5.02505e-05 -2.89146e-18 -0.000361432 -9.21911e-19 0)
(0.00170282 -1.10744e-05 -1.51098e-18 -0.000285592 -5.02419e-19 0)
(0.00168762 7.44694e-05 2.19817e-19 -0.000271737 1.1012e-19 0)
(0.00160582 1.42874e-05 2.27914e-18 -0.000192984 7.0399e-19 0)
(0.00159804 9.57247e-05 -2.73615e-19 -0.000195336 -1.21972e-19 0)
(0.00152878 4.10272e-05 -2.87617e-19 -0.000138665 -8.41461e-20 0)
(0.00153111 0.000110514 -3.03027e-19 -0.000133279 -1.113e-19 0)
(0.00146664 6.08764e-05 1.33517e-18 -0.000123744 4.05508e-19 0)
(0.00146226 0.000127889 6.04546e-19 -0.000128993 2.18009e-19 0)
(0.00791499 -0.000784662 -5.86747e-18 -0.00913074 1.54245e-18 5.62737e-33)
(0.00760556 -0.000853025 -1.73256e-18 -0.0082961 2.66104e-18 0)
(0.00778215 -0.000726715 -1.25635e-17 -0.00853616 2.81647e-19 0)
(0.00762493 -0.000876263 -5.25943e-18 -0.0083286 2.03597e-18 0)
(0.00774399 -0.000727683 -2.90913e-18 -0.00844651 -3.84312e-18 0)
(0.00763397 -0.000891089 6.35966e-18 -0.00827034 4.1317e-18 0)
(0.00772113 -0.000737822 1.47088e-17 -0.00830933 -5.33884e-18 0)
(0.00762084 -0.000898707 1.39891e-17 -0.00814237 -2.99748e-18 0)
(0.00768334 -0.000749985 1.40533e-17 -0.00815895 -1.97912e-18 0)
(0.00758615 -0.000901794 1.43638e-17 -0.00799253 -5.57016e-18 0)
(0.00762173 -0.000760483 -3.94317e-19 -0.00799145 2.93268e-18 0)
(0.00752784 -0.000900694 -3.4076e-18 -0.00781941 -5.84646e-19 0)
(0.0075363 -0.000768178 0 -0.00780232 0 0)
(0.00744612 -0.000895903 3.35661e-18 -0.00762492 5.90034e-19 0)
(0.00742909 -0.000772846 -1.97145e-18 -0.00759255 4.35687e-18 0)
(0.00734303 -0.0008878 -1.97844e-18 -0.00741125 4.40636e-18 0)
(0.00730292 -0.000774265 5.16445e-18 -0.00736555 -3.47268e-18 0)
(0.00722122 -0.000876626 8.34413e-18 -0.00718135 -2.98999e-18 0)
(0.00715999 -0.000772619 -1.7923e-18 -0.00712326 3.90779e-18 0)
(0.00708288 -0.000862512 -1.74698e-18 -0.00693628 1.56162e-18 0)
(0.00700171 -0.000768402 -6.53046e-18 -0.00686812 4.3054e-18 0)
(0.0069293 -0.000845257 -6.51976e-18 -0.00667924 2.29182e-18 0)
(0.00682927 -0.000761149 -1.08291e-17 -0.0066016 -3.04366e-18 0)
(0.00676091 -0.000825736 -4.67826e-18 -0.00641119 7.4183e-19 0)
(0.00664539 -0.000751246 -3.05483e-18 -0.00632543 -2.8102e-18 0)
(0.00658115 -0.000804492 -2.87924e-18 -0.00613482 -5.65955e-19 0)
(0.00645163 -0.000739013 -1.45207e-18 -0.00604052 3.02566e-18 0)
(0.00639203 -0.000781094 -7.20896e-18 -0.00585002 -1.89247e-20 0)
(0.00624848 -0.000725145 -8.39679e-18 -0.00574983 -3.71417e-18 0)
(0.00619348 -0.000755738 2.88698e-18 -0.0055602 2.3751e-18 0)
(0.00603674 -0.000709091 -6.24902e-18 -0.00545371 3.32708e-18 0)
(0.00598514 -0.000728716 9.99008e-19 -0.00526648 1.40969e-18 0)
(0.00581744 -0.000691051 -1.60777e-18 -0.00515065 -4.68542e-18 0)
(0.00576848 -0.000700528 -1.50002e-18 -0.00496671 -4.52455e-18 0)
(0.00559187 -0.00067159 2.04876e-18 -0.0048439 -1.09034e-18 0)
(0.00554561 -0.00067007 2.98921e-18 -0.00466384 3.51043e-18 0)
(0.00536005 -0.0006503 8.67491e-18 -0.0045354 2.54703e-18 0)
(0.00531506 -0.000637978 5.59784e-18 -0.00436078 -1.01416e-18 0)
(0.00512288 -0.000626903 0 -0.00422305 0 0)
(0.00507807 -0.000604554 -2.13944e-18 -0.00405488 -4.78955e-19 0)
(0.00488129 -0.000601975 -5.92391e-18 -0.00390924 2.29267e-18 0)
(0.00483645 -0.000568561 -6.33157e-18 -0.00374809 1.0943e-18 0)
(0.00463597 -0.000575048 1.18687e-18 -0.00359754 -4.07239e-18 0)
(0.00458975 -0.000531038 5.9726e-18 -0.0034446 -8.45459e-19 0)
(0.00438859 -0.000545547 4.15554e-18 -0.00328552 1.98518e-18 0)
(0.00434008 -0.00049124 4.03696e-18 -0.00314164 1.89374e-18 0)
(0.00413953 -0.000514578 1.15731e-18 -0.00297814 -1.42161e-19 0)
(0.00408864 -0.000449519 4.54094e-18 -0.00284337 7.13009e-19 0)
(0.00389102 -0.000481245 -2.74596e-18 -0.00267821 -2.09459e-20 0)
(0.00383759 -0.000407295 3.17453e-18 -0.00255257 8.93504e-19 0)
(0.0036462 -0.000445603 5.27772e-19 -0.00238557 -7.89017e-19 0)
(0.00359068 -0.000362352 1.15851e-19 -0.00226915 -1.45904e-18 0)
(0.00340593 -0.000408595 -4.49904e-20 -0.00210667 -1.32274e-18 0)
(0.00334843 -0.000317333 4.62017e-18 -0.00199965 2.13614e-18 0)
(0.00317345 -0.000369164 4.14655e-18 -0.0018399 2.60995e-18 0)
(0.0031146 -0.000271244 -3.45941e-18 -0.00174227 -1.96042e-18 0)
(0.00295071 -0.000328916 -6.58061e-18 -0.00159234 -1.87407e-18 0)
(0.00289143 -0.000225707 -5.221e-18 -0.00150286 -1.52789e-18 0)
(0.00274002 -0.000287425 -5.79452e-18 -0.00136259 -2.19441e-18 0)
(0.00268202 -0.000180456 -2.53346e-18 -0.00128161 -5.99435e-19 0)
(0.00254338 -0.000245547 -2.78083e-19 -0.00115503 1.96906e-19 0)
(0.00248806 -0.000136316 -3.1048e-19 -0.00108134 1.54723e-19 0)
(0.002362 -0.00020344 2.51877e-19 -0.000968209 -1.18158e-19 0)
(0.00231114 -9.33934e-05 4.81212e-18 -0.000902219 2.13073e-18 0)
(0.00219717 -0.000161434 1.97442e-18 -0.000803644 8.56286e-19 0)
(0.00215206 -5.1861e-05 1.1256e-18 -0.00074517 3.77094e-19 0)
(0.00204883 -0.000120178 -1.63877e-18 -0.000659746 -6.87341e-19 0)
(0.00201056 -1.19546e-05 -3.53589e-19 -0.000609313 -2.15736e-19 0)
(0.00191749 -7.93143e-05 -3.69932e-19 -0.000535819 -1.95318e-19 0)
(0.00188657 2.67157e-05 0 -0.000494895 0 0)
(0.00180157 -3.98826e-05 9.23803e-19 -0.000430376 3.84722e-19 0)
(0.00177809 6.38435e-05 1.23638e-18 -0.000400538 6.07097e-19 0)
(0.00169997 -1.34305e-06 2.06779e-18 -0.000341228 9.2489e-19 0)
(0.00168353 9.98356e-05 2.60658e-18 -0.000324302 1.31959e-18 0)
(0.00161138 3.57189e-05 2.29096e-18 -0.000264679 1.02233e-18 0)
(0.00160162 0.000132256 6.11684e-19 -0.000260204 3.40062e-19 0)
(0.00152654 7.0143e-05 -1.05946e-18 -0.00019035 -5.0392e-19 0)
(0.00152744 0.000156944 1.09488e-18 -0.000197469 5.29448e-19 0)
(0.00147182 0.000109656 1.26884e-18 -0.000180892 6.24908e-19 0)
(0.00146773 0.000173992 1.92878e-18 -0.000174659 1.04774e-18 0)
(0.00741223 -0.00105418 6.85984e-18 -0.00866135 -1.43416e-19 1.46892e-33)
(0.00738678 -0.00115293 -4.22193e-18 -0.00809674 2.84934e-18 0)
(0.00749687 -0.00102317 1.19951e-17 -0.00822846 -1.38301e-18 0)
(0.00740209 -0.00117904 2.54533e-18 -0.00811079 -5.71845e-18 0)
(0.0075037 -0.00103221 -8.34489e-18 -0.00818294 1.05188e-17 0)
(0.00740308 -0.00119533 -1.42669e-17 -0.00803898 7.21441e-18 0)
(0.00748428 -0.0010431 -4.20926e-19 -0.00805327 -8.70128e-18 0)
(0.00738339 -0.0012036 -4.34009e-18 -0.00790232 -5.96339e-18 0)
(0.00744489 -0.00105508 -5.6343e-18 -0.00790025 4.59301e-18 0)
(0.00734451 -0.00120795 -6.02372e-18 -0.00774908 7.57679e-18 0)
(0.00738483 -0.00106556 -4.1467e-19 -0.00773114 2.87863e-18 0)
(0.0072862 -0.00120814 -2.54087e-18 -0.0075768 -5.84036e-18 0)
(0.00730356 -0.00107311 2.64712e-18 -0.00754392 -1.01298e-17 0)
(0.00720914 -0.00120342 1.45237e-18 -0.00738614 6.37669e-19 0)
(0.00720193 -0.00107684 1.45197e-17 -0.00734023 2.95955e-18 0)
(0.00711287 -0.00119416 1.90487e-18 -0.00717862 -4.39576e-18 0)
(0.00708199 -0.00107651 -6.8061e-18 -0.00712091 7.71846e-18 0)
(0.00699841 -0.00118061 -1.28256e-17 -0.00695611 2.13249e-18 0)
(0.00694574 -0.00107228 -4.75841e-18 -0.00688719 -1.56369e-18 0)
(0.00686751 -0.00116325 -7.82984e-18 -0.00672059 6.85125e-19 0)
(0.00679485 -0.00106417 1.40477e-18 -0.00664015 1.80565e-18 0)
(0.00672218 -0.00114273 1.39614e-18 -0.00647159 4.14715e-18 0)
(0.00663086 -0.00105287 2.96655e-18 -0.00638257 5.1823e-19 0)
(0.00656476 -0.00111847 5.96097e-18 -0.00621235 3.05683e-18 0)
(0.00645383 -0.00103822 1.88622e-19 -0.00611519 2.13283e-18 0)
(0.00639396 -0.00109079 5.67109e-18 -0.00594443 9.56747e-19 0)
(0.0062656 -0.00102019 8.19412e-18 -0.00583921 -4.9156e-18 0)
(0.00621022 -0.00106039 5.64982e-18 -0.0056693 -3.60638e-18 0)
(0.00606753 -0.000999021 -9.16587e-19 -0.00555366 4.66249e-18 0)
(0.00601536 -0.00102725 -7.11844e-18 -0.00538534 -1.76676e-18 0)
(0.00585917 -0.000975364 -1.85164e-18 -0.00525967 -1.03677e-18 0)
(0.00581047 -0.000990665 -8.29314e-19 -0.00509393 4.21564e-18 0)
(0.00564092 -0.000948734 3.93239e-18 -0.00495987 -1.45954e-19 0)
(0.00559463 -0.000950834 3.52377e-18 -0.00479875 -1.83995e-18 0)
(0.00541452 -0.000918521 9.59179e-19 -0.00465444 -2.12074e-18 0)
(0.00536871 -0.000908903 3.33206e-18 -0.00449852 -1.62403e-18 0)
(0.00518108 -0.000885585 -8.72621e-19 -0.00434305 1.9145e-18 0)
(0.0051353 -0.000862857 -4.60183e-19 -0.00419329 3.24645e-18 0)
(0.00493941 -0.000850125 6.40304e-18 -0.00402825 -1.08932e-18 0)
(0.00489289 -0.000813523 8.96502e-18 -0.00388723 5.70986e-19 0)
(0.00469231 -0.000810522 1.27227e-17 -0.00371239 1.91855e-18 0)
(0.00464322 -0.000761925 3.98897e-18 -0.00357995 -1.3546e-18 0)
(0.00444197 -0.000767812 3.12661e-18 -0.00339608 2.89729e-19 0)
(0.00439005 -0.000706326 6.54148e-19 -0.00327283 -1.29739e-18 0)
(0.00418896 -0.000722589 4.17867e-18 -0.0030845 -1.22895e-19 0)
(0.00413357 -0.000648758 5.23496e-18 -0.00297172 1.78662e-18 0)
(0.00393743 -0.000673397 4.6529e-18 -0.00277856 2.81264e-18 0)
(0.0038778 -0.000588883 -2.23484e-18 -0.00267537 -1.36063e-18 0)
(0.00368904 -0.000622397 -3.00388e-18 -0.00248299 2.65121e-19 0)
(0.00362573 -0.00052706 -2.97829e-18 -0.00238984 2.32849e-19 0)
(0.00344649 -0.000568768 -3.11492e-19 -0.00220141 -1.34087e-18 0)
(0.00337997 -0.000465166 3.84973e-18 -0.0021174 1.14516e-18 0)
(0.00321345 -0.000513251 -7.64196e-19 -0.00193604 1.07299e-19 0)
(0.00314526 -0.000402512 1.93218e-18 -0.00185983 1.12807e-18 0)
(0.00299192 -0.000456999 3.44137e-18 -0.0016915 1.21843e-18 0)
(0.00292404 -0.000341547 1.50914e-18 -0.00162232 2.2558e-19 0)
(0.00278545 -0.000399722 1.20798e-18 -0.00146826 5.12999e-19 0)
(0.00272008 -0.000280988 1.72767e-18 -0.00140466 9.93691e-19 0)
(0.00259435 -0.000343261 -6.74001e-19 -0.00126882 6.58179e-20 0)
(0.00253373 -0.000223171 -2.34211e-18 -0.00121003 -1.21195e-18 0)
(0.00242099 -0.000286812 -3.35756e-18 -0.00109235 -1.65095e-18 0)
(0.00236696 -0.000166842 -5.23862e-18 -0.00103719 -2.77319e-18 0)
(0.0022644 -0.00023225 -2.05398e-18 -0.000938491 -1.1239e-18 0)
(0.0022186 -0.000113425 2.85862e-18 -0.000886608 1.63254e-18 0)
(0.00212509 -0.00017869 3.83941e-18 -0.000805417 2.00504e-18 0)
(0.00208836 -6.19934e-05 1.03053e-18 -0.000756594 5.81556e-19 0)
(0.00200133 -0.000127414 1.80118e-18 -0.000690607 9.76953e-19 0)
(0.00197373 -1.30474e-05 1.40441e-18 -0.000645173 8.32221e-19 0)
(0.00189221 -7.76152e-05 1.21586e-18 -0.000591842 6.45885e-19 0)
(0.00187302 3.40369e-05 0 -0.00055131 0 0)
(0.00179491 -3.03419e-05 1.5859e-19 -0.000505448 1.31713e-19 0)
(0.00178223 7.90961e-05 1.61421e-18 -0.000471556 9.70878e-19 0)
(0.00170844 1.52847e-05 2.60978e-18 -0.000430974 1.55453e-18 0)
(0.00170004 0.000122211 2.95186e-18 -0.000405229 1.94886e-18 0)
(0.00162725 5.75348e-05 -5.83705e-20 -0.000359595 -1.7547e-19 0)
(0.00162121 0.000162044 -3.80298e-18 -0.000344802 -2.40685e-18 0)
(0.00155474 9.84797e-05 -3.8812e-18 -0.000287866 -2.31557e-18 0)
(0.00154811 0.000199115 -2.72139e-18 -0.000293212 -1.87976e-18 0)
(0.00147824 0.000138825 -1.37864e-18 -0.000234498 -7.89142e-19 0)
(0.00146287 0.000210142 9.05793e-19 -0.000222566 5.63313e-19 0)
(0.00725814 -0.00135047 -6.61571e-18 -0.00848083 3.51847e-19 1.02763e-33)
(0.00713115 -0.00142588 7.28826e-18 -0.0078401 -3.16768e-18 0)
(0.0072642 -0.00130913 2.18543e-19 -0.0079745 -8.89919e-18 0)
(0.00712568 -0.00145704 4.10512e-18 -0.00783117 2.97085e-19 0)
(0.00724273 -0.00131875 4.96368e-18 -0.00789193 6.43453e-18 0)
(0.0071127 -0.00147569 2.45558e-18 -0.00774667 2.99081e-18 0)
(0.00720954 -0.00132902 -1.54869e-18 -0.00774563 -2.38155e-18 0)
(0.00708392 -0.00148489 5.51204e-18 -0.00760054 -5.24192e-18 0)
(0.00716248 -0.00133965 -3.23564e-18 -0.00758393 -1.94392e-19 0)
(0.00704054 -0.00148957 -2.66829e-18 -0.00744167 -2.89083e-18 0)
(0.00709958 -0.00134842 4.30385e-19 -0.00741144 -2.80811e-18 0)
(0.00698103 -0.00148923 -3.84643e-19 -0.00726947 2.6692e-18 0)
(0.00702023 -0.00135378 -6.675e-18 -0.00722537 2.1644e-18 0)
(0.006905 -0.00148429 2.77821e-19 -0.00708253 -2.56861e-18 0)
(0.00692495 -0.00135545 -6.06931e-18 -0.00702649 -3.21103e-18 0)
(0.00681441 -0.00147465 0 -0.00688188 0 0)
(0.00681359 -0.00135322 -1.72174e-18 -0.00681505 4.05383e-18 0)
(0.00670988 -0.00145992 -7.68202e-18 -0.00666825 1.18318e-18 0)
(0.00668577 -0.00134669 -3.02434e-18 -0.0065908 -2.74983e-18 0)
(0.00659021 -0.00144019 -5.96904e-18 -0.00644171 -5.13977e-18 0)
(0.00654309 -0.00133559 -9.07248e-18 -0.006355 1.84189e-18 0)
(0.00645493 -0.00141538 -1.17928e-17 -0.00620443 4.07738e-18 0)
(0.0063868 -0.00131992 -8.70543e-18 -0.00610712 3.72582e-18 0)
(0.00630406 -0.00138641 -1.16162e-17 -0.00595608 1.59143e-18 0)
(0.00621811 -0.00130015 -8.65762e-18 -0.00584763 1.29003e-18 0)
(0.00613973 -0.00135324 -5.315e-18 -0.00569667 5.90923e-18 0)
(0.00603604 -0.00127646 2.33646e-18 -0.00557641 -5.78685e-18 0)
(0.00596244 -0.00131522 8.02056e-18 -0.00542685 -3.186e-18 0)
(0.00583957 -0.00124854 9.35381e-18 -0.00529409 5.19568e-19 0)
(0.00577063 -0.0012719 1.44247e-18 -0.00514827 -9.68375e-19 0)
(0.00563098 -0.00121533 2.98284e-18 -0.005003 2.17428e-18 0)
(0.00556406 -0.00122439 -2.4979e-18 -0.00486131 -4.48205e-19 0)
(0.00541231 -0.00117758 0 -0.00470269 0 0)
(0.00534579 -0.00117215 -2.8667e-18 -0.00456605 -1.95655e-18 0)
(0.00518252 -0.00113591 -9.09328e-18 -0.004394 1.03034e-18 0)
(0.0051161 -0.00111435 -6.68524e-18 -0.00426536 1.62416e-18 0)
(0.00494175 -0.00108945 -2.82473e-18 -0.00407922 -1.86398e-18 0)
(0.004874 -0.00105199 0 -0.00396008 0 0)
(0.00469426 -0.00103723 -2.11883e-18 -0.00376118 -5.24239e-19 0)
(0.00462335 -0.000985422 2.66825e-18 -0.00365084 1.69194e-18 0)
(0.00444157 -0.000981196 6.13859e-18 -0.00344259 -1.82268e-18 0)
(0.0043677 -0.000914046 8.66904e-18 -0.00334296 -2.02792e-19 0)
(0.00418548 -0.00092102 3.30395e-18 -0.00312803 2.59072e-18 0)
(0.00410809 -0.000840271 -6.47375e-19 -0.00303943 -9.53557e-19 0)
(0.00393102 -0.000856217 -8.49653e-18 -0.00282022 -1.32186e-18 0)
(0.00385047 -0.000763311 -6.57295e-18 -0.00274152 -8.21573e-19 0)
(0.00367999 -0.000789296 -2.42283e-18 -0.00252503 -1.40352e-18 0)
(0.00359788 -0.000685051 -2.31823e-18 -0.00245651 -1.38634e-18 0)
(0.00343748 -0.000718983 -2.66084e-18 -0.00224613 -1.41241e-19 0)
(0.0033548 -0.000606689 -6.3565e-18 -0.00218541 -2.15867e-18 0)
(0.00320681 -0.000647984 -7.61716e-18 -0.00198779 -2.86059e-18 0)
(0.0031259 -0.000528976 -2.39238e-18 -0.00193403 -4.45261e-19 0)
(0.00299107 -0.000576143 -2.12443e-18 -0.00175264 -1.18878e-18 0)
(0.00291411 -0.000453212 -1.33567e-18 -0.00170398 -6.61873e-19 0)
(0.00279264 -0.000505115 1.31668e-18 -0.00154315 4.33516e-19 0)
(0.00272191 -0.000379951 1.97965e-18 -0.00149813 9.85295e-19 0)
(0.00261285 -0.000434933 1.91389e-18 -0.00135871 1.06976e-18 0)
(0.00255052 -0.00030961 0 -0.00131602 0 0)
(0.00245193 -0.000367119 3.36046e-18 -0.00119971 1.833e-18 0)
(0.00239957 -0.000243098 5.1897e-18 -0.00115783 3.1147e-18 0)
(0.00231019 -0.000300943 4.06071e-18 -0.00106274 2.28531e-18 0)
(0.00226891 -0.000179215 -2.81312e-18 -0.00102165 -1.65968e-18 0)
(0.00218481 -0.000238314 -7.78909e-18 -0.000946048 -4.77119e-18 0)
(0.00215485 -0.000119247 -3.20207e-18 -0.000904982 -2.23791e-18 0)
(0.002075 -0.000177732 -2.0353e-18 -0.000845957 -1.04025e-18 0)
(0.00205582 -6.17172e-05 1.49909e-18 -0.000805192 1.04063e-18 0)
(0.00197708 -0.000120757 5.37254e-19 -0.000758548 2.69984e-19 0)
(0.00196732 -7.20412e-06 8.46178e-19 -0.000718808 5.77159e-19 0)
(0.00188854 -6.65227e-05 0 -0.000681307 0 0)
(0.00188675 4.42173e-05 4.44476e-19 -0.000643007 2.35451e-19 0)
(0.00180704 -1.55479e-05 1.43455e-18 -0.000610218 1.07938e-18 0)
(0.00181077 9.34165e-05 1.05292e-18 -0.000575159 9.5085e-19 0)
(0.00172904 3.20609e-05 -2.40146e-18 -0.000544535 -1.79588e-18 0)
(0.00173681 0.000138911 -2.12252e-18 -0.000513076 -1.64341e-18 0)
(0.00165448 7.62307e-05 -2.84273e-18 -0.000479906 -2.12756e-18 0)
(0.00166338 0.000182413 -2.89576e-18 -0.000454513 -2.18989e-18 0)
(0.00157781 0.000116047 -3.04739e-18 -0.000409552 -1.99845e-18 0)
(0.00158615 0.000216926 -1.12348e-18 -0.000385911 -8.60231e-19 0)
(0.00150478 0.000153459 -8.88145e-19 -0.000331427 -5.55942e-19 0)
(0.00149636 0.000249766 9.52085e-19 -0.000329018 6.82145e-19 0)
(0.00693016 -0.00159979 -2.32448e-18 -0.00812893 3.31943e-18 4.78858e-32)
(0.0068299 -0.00167139 -1.54756e-17 -0.00753191 1.57853e-17 0)
(0.00694775 -0.0015634 1.70201e-18 -0.00763384 -2.52213e-18 0)
(0.00680513 -0.00170514 7.70344e-18 -0.00749788 -3.28642e-18 0)
(0.00692062 -0.00157645 2.24855e-18 -0.00753732 2.90223e-18 0)
(0.00677624 -0.0017256 0 -0.00739984 0 0)
(0.00687963 -0.00158638 5.43001e-18 -0.00738114 -5.28123e-18 0)
(0.00673572 -0.00173491 1.06403e-17 -0.00724452 -2.94286e-18 0)
(0.00682662 -0.00159521 1.30285e-17 -0.00721206 -7.16203e-18 0)
(0.00668565 -0.00173939 9.26547e-18 -0.00708008 -4.87025e-18 0)
(0.0067607 -0.0016017 1.23615e-17 -0.00703609 -3.89268e-18 0)
(0.00662438 -0.00173917 1.25472e-17 -0.00690544 -7.08564e-18 0)
(0.00668171 -0.00160495 5.72102e-18 -0.00685115 2.7666e-18 0)
(0.00655155 -0.00173374 0 -0.00672104 0 0)
(0.0065894 -0.00160433 4.75917e-18 -0.0066566 -4.08877e-18 0)
(0.00646569 -0.00172262 7.24724e-18 -0.00652705 6.26167e-19 0)
(0.00648339 -0.00159921 1.48868e-17 -0.00645128 -2.45579e-18 0)
(0.00636521 -0.00170573 8.91522e-18 -0.00632219 -5.54295e-18 0)
(0.0063639 -0.00158935 -1.48345e-18 -0.00623471 6.01867e-18 0)
(0.00625026 -0.00168348 -4.35354e-18 -0.00610533 1.4435e-18 0)
(0.00623031 -0.0015749 1.25522e-18 -0.00600629 -5.66737e-18 0)
(0.00612149 -0.00165561 4.27215e-18 -0.00587623 -1.25786e-18 0)
(0.00608123 -0.00155547 5.78751e-18 -0.00576497 2.65602e-18 0)
(0.0059781 -0.00162147 0 -0.00563531 0 0)
(0.00591526 -0.0015304 -1.12711e-18 -0.00550969 3.00964e-18 0)
(0.00581789 -0.00158032 -6.74591e-18 -0.00538249 5.95901e-19 0)
(0.00573245 -0.00149887 -5.66161e-18 -0.00524026 -2.56413e-18 0)
(0.00563905 -0.00153202 2.96025e-18 -0.00511701 2.07236e-18 0)
(0.00553535 -0.00146053 -2.09556e-18 -0.00495852 1.31741e-18 0)
(0.00544282 -0.00147787 2.5068e-18 -0.00483917 3.83074e-19 0)
(0.00532499 -0.0014164 4.02056e-18 -0.00466489 -4.13961e-18 0)
(0.00523259 -0.00141635 4.47978e-18 -0.00455198 -2.66831e-18 0)
(0.0050999 -0.00136616 2.9644e-18 -0.00436034 1.93987e-18 0)
(0.00500712 -0.00134747 0 -0.00425658 0 0)
(0.0048614 -0.00130889 -5.52302e-19 -0.0040468 1.80304e-18 0)
(0.00476683 -0.00127216 -3.39519e-18 -0.00395315 2.14233e-20 0)
(0.00461424 -0.00124449 -5.47857e-18 -0.00372916 -7.35132e-19 0)
(0.00451649 -0.00119119 -3.23058e-18 -0.00364506 -1.52466e-19 0)
(0.00436094 -0.00117478 -4.18266e-19 -0.00341105 -2.4537e-18 0)
(0.00426078 -0.00110446 1.0564e-18 -0.0033383 -2.66407e-19 0)
(0.00410413 -0.00109977 -1.14835e-18 -0.00309712 4.05807e-19 0)
(0.00400181 -0.00101463 -2.63769e-18 -0.00303529 -1.58205e-18 0)
(0.00385 -0.00101966 -2.819e-18 -0.0027927 -6.35012e-19 0)
(0.00374654 -0.000921709 6.05447e-19 -0.00274056 1.73289e-18 0)
(0.00360146 -0.000937236 4.38688e-18 -0.00250366 1.42725e-18 0)
(0.00349909 -0.000827988 1.76756e-18 -0.00246094 2.31519e-20 0)
(0.00336468 -0.000851762 0 -0.00223494 0 0)
(0.00326493 -0.000735212 1.58118e-18 -0.0021986 7.31927e-19 0)
(0.00314308 -0.000766636 5.00215e-20 -0.00199103 3.69138e-19 0)
(0.00304922 -0.000644363 -6.02943e-18 -0.00196001 -3.13711e-18 0)
(0.00294028 -0.000681383 -1.73405e-18 -0.0017739 -1.13044e-18 0)
(0.00285467 -0.000556619 2.99286e-18 -0.0017458 1.85252e-18 0)
(0.00275764 -0.000598678 3.05196e-18 -0.00158568 1.75121e-18 0)
(0.00268269 -0.000473242 5.25956e-19 -0.00155898 2.91634e-19 0)
(0.00259725 -0.000517566 -3.35937e-18 -0.00142438 -1.93665e-18 0)
(0.00253484 -0.00039356 -1.23479e-18 -0.00139747 -7.78175e-19 0)
(0.00245686 -0.00044046 -1.07397e-18 -0.00128825 -7.74612e-19 0)
(0.00240824 -0.000318641 -6.45009e-19 -0.00126037 -4.7777e-19 0)
(0.00233567 -0.000366479 -3.00431e-18 -0.00117428 -1.8342e-18 0)
(0.00230073 -0.00024768 0 -0.00114442 0 0)