/*--------------------------------*- C++ -*----------------------------------*\
| =========                 |                                                 |
| \\      /  F ield         | OpenFOAM: The Open Source CFD Toolbox           |
|  \\    /   O peration     | Version:  v2012                                 |
|   \\  /    A nd           | Website:  www.openfoam.com                      |
|    \\/     M anipulation  |                                                 |
\*---------------------------------------------------------------------------*/
FoamFile
{
    version     2.0;
    format      ascii;
    class       pointVectorField;
    location    "18";
    object      pointD;
}
// * * * * * * * * * * * * * * * * * * * * * * * * * * * * * * * * * * * * * //

dimensions      [0 1 0 0 0 0 0];


internalField   nonuniform List<vector> 
32562
(
(0.00125476 0 4.14733e-22)
(0.00146323 0 2.10442e-22)
(0.00134532 -5.21415e-05 0)
(0 -0.00109165 -5.64261e-23)
(0 -6.09168e-06 9.04818e-21)
(0.00127858 0 0)
(0 -0.00106364 0)
(0.000933732 -0.000200413 0)
(0.000377142 -0.000376349 2.43473e-22)
(0.0014116 1.42982e-05 2.63683e-21)
(0.00110627 -0.00037229 1.48668e-21)
(0.00110627 -0.00037229 1.48668e-21)
(0.000933732 -0.000200413 0)
(0 -0.00106364 0)
(0 -6.09168e-06 9.04818e-21)
(0.00125476 0 4.14733e-22)
(0.00127858 0 0)
(0.00146323 0 2.10442e-22)
(0.0014116 1.42982e-05 2.63683e-21)
(0.00134532 -5.21415e-05 0)
(0.000377142 -0.000376349 2.43473e-22)
(0 -0.00109165 -5.64261e-23)
(2.18309e-05 -0.00106084 0)
(4.42733e-05 -0.00105357 0)
(6.71164e-05 -0.00104256 0)
(9.03492e-05 -0.00102817 0)
(0.000114142 -0.00101066 0)
(0.000138893 -0.000990016 0)
(0.000165049 -0.000966203 0)
(0.000192872 -0.000939304 0)
(0.000222414 -0.000909553 0)
(0.000253549 -0.000877305 0)
(0.000286065 -0.000843003 0)
(0.000319671 -0.000807185 0)
(0.000353973 -0.000770461 0)
(0.00038852 -0.000733487 0)
(0.000422823 -0.00069692 0)
(0.000456303 -0.000661469 0)
(0.000488232 -0.000627938 0)
(0.00051777 -0.000597215 0)
(0.000544265 -0.00056992 0)
(0.000567809 -0.000545852 0)
(0.000589202 -0.000524062 0)
(0.000609487 -0.000503324 0)
(0.000629421 -0.000482913 0)
(0.000649124 -0.000462684 0)
(0.000668579 -0.000442717 0)
(0.000687778 -0.000423113 0)
(0.00070673 -0.000403948 0)
(0.000725449 -0.000385268 0)
(0.000743952 -0.000367097 0)
(0.000762252 -0.00034944 0)
(0.000780352 -0.000332283 0)
(0.000798233 -0.000315602 0)
(0.000815896 -0.000299416 0)
(0.000833414 -0.000283798 0)
(0.000850857 -0.000268745 0)
(0.000868023 -0.000254006 0)
(0.000884444 -0.000239312 0)
(0.00089972 -0.000224904 0)
(0.000915276 -0.000213372 0)
(0.000953405 -0.000186051 0)
(0.000968572 -0.000174677 0)
(0.000983668 -0.000163842 0)
(0.000998577 -0.000153414 0)
(0.00101325 -0.000143403 0)
(0.00102767 -0.000133822 0)
(0.0010418 -0.000124673 0)
(0.00105563 -0.000115956 0)
(0.00106913 -0.000107668 0)
(0.00108229 -9.98049e-05 0)
(0.00109509 -9.23612e-05 0)
(0.00110751 -8.53294e-05 0)
(0.00111954 -7.87003e-05 0)
(0.00113118 -7.24634e-05 0)
(0.0011424 -6.66065e-05 0)
(0.00115321 -6.11167e-05 0)
(0.00116359 -5.59798e-05 0)
(0.00117354 -5.11812e-05 0)
(0.00118305 -4.67055e-05 0)
(0.00119212 -4.25368e-05 0)
(0.00120074 -3.8659e-05 0)
(0.00120891 -3.50557e-05 0)
(0.00121662 -3.17106e-05 0)
(0.00122387 -2.86071e-05 0)
(0.00123067 -2.57288e-05 0)
(0.001237 -2.30595e-05 0)
(0.00124287 -2.05831e-05 0)
(0.00124828 -1.82839e-05 0)
(0.00125322 -1.61466e-05 0)
(0.00125769 -1.41567e-05 0)
(0.0012617 -1.23005e-05 0)
(0.00126524 -1.05658e-05 0)
(0.00126832 -8.94258e-06 0)
(0.00127094 -7.42363e-06 0)
(0.00127311 -6.00365e-06 0)
(0.00127488 -4.67456e-06 0)
(0.0012763 -3.41749e-06 0)
(0.00127743 -2.19788e-06 0)
(0.0012783 -9.49635e-07 0)
(0.00125642 0 0)
(0.0012584 0 0)
(0.00126013 0 0)
(0.00126169 0 0)
(0.00126312 0 0)
(0.00126444 0 0)
(0.00126566 0 0)
(0.00126679 0 0)
(0.00126783 0 0)
(0.00126881 0 0)
(0.00126971 0 0)
(0.00127054 0 0)
(0.0012713 0 0)
(0.00127201 0 0)
(0.00127266 0 0)
(0.00127326 0 0)
(0.0012738 0 0)
(0.0012743 0 0)
(0.00127475 0 0)
(0.00127516 0 0)
(0.00127553 0 0)
(0.00127586 0 0)
(0.00127616 0 0)
(0.00127643 0 0)
(0.00127666 0 0)
(0.00127687 0 0)
(0.00127706 0 0)
(0.00127722 0 0)
(0.00127737 0 0)
(0.0012775 0 0)
(0.00127762 0 0)
(0.00127773 0 0)
(0.00127785 0 0)
(0.00127797 0 0)
(0.00127809 0 0)
(0.00127824 0 0)
(0.0012784 0 0)
(0.00127856 0 0)
(0.00127863 0 0)
(0.00127821 0 0)
(0.00127748 0 0)
(0.00127673 0 0)
(0.00127609 0 0)
(0.00127556 0 0)
(0.0012751 0 0)
(0.00127473 0 0)
(0.00127442 0 0)
(0.00127418 0 0)
(0.00127401 0 0)
(0.00127392 0 0)
(0.0012739 0 0)
(0.00127395 0 0)
(0.00127409 0 0)
(0.00127431 0 0)
(0.00127461 0 0)
(0.001275 0 0)
(0.00127548 0 0)
(0.00127604 0 0)
(0.0012767 0 0)
(0.00127745 0 0)
(0.00127829 0 0)
(0.00127923 0 0)
(0.00128027 0 0)
(0.0012814 0 0)
(0.00128264 0 0)
(0.00128397 0 0)
(0.00128541 0 0)
(0.00128695 0 0)
(0.00128859 0 0)
(0.00129033 0 0)
(0.00129219 0 0)
(0.00129414 0 0)
(0.0012962 0 0)
(0.00129837 0 0)
(0.00130064 0 0)
(0.00130302 0 0)
(0.0013055 0 0)
(0.00130808 0 0)
(0.00131077 0 0)
(0.00131356 0 0)
(0.00131644 0 0)
(0.00131942 0 0)
(0.00132249 0 0)
(0.00132566 0 0)
(0.00132891 0 0)
(0.00133224 0 0)
(0.00133565 0 0)
(0.00133914 0 0)
(0.00134269 0 0)
(0.00134632 0 0)
(0.00135 0 0)
(0.00135374 0 0)
(0.00135753 0 0)
(0.00136136 0 0)
(0.00136524 0 0)
(0.00136915 0 0)
(0.0013731 0 0)
(0.00137708 0 0)
(0.00138108 0 0)
(0.00138511 0 0)
(0.00138917 0 0)
(0.00139324 0 0)
(0.00139734 0 0)
(0.00140146 0 0)
(0.00140561 0 0)
(0.00140976 0 0)
(0.00141394 0 0)
(0.00141813 0 0)
(0.00142234 0 0)
(0.00142655 0 0)
(0.00143077 0 0)
(0.001435 0 0)
(0.00143921 0 0)
(0.00144342 0 0)
(0.0014476 0 0)
(0.00145176 0 0)
(0.00145586 0 0)
(0.00145989 0 0)
(0.00146465 9.86394e-07 1.1728e-21)
(0.00146472 1.98635e-06 1.47265e-21)
(0.0014647 2.99928e-06 1.35551e-23)
(0.00146456 4.01104e-06 -1.23721e-21)
(0.00146432 5.01174e-06 -7.40821e-22)
(0.00146398 5.99506e-06 -2.83945e-22)
(0.00146352 6.95571e-06 -7.32735e-22)
(0.00146296 7.88905e-06 -9.89038e-24)
(0.0014623 8.79097e-06 9.05613e-24)
(0.00146154 9.65785e-06 -8.51461e-22)
(0.00146069 1.04863e-05 -7.69052e-22)
(0.00145975 1.12734e-05 4.19617e-22)
(0.00145873 1.20161e-05 -1.14997e-21)
(0.00145762 1.2712e-05 -1.91702e-21)
(0.00145644 1.33587e-05 -7.86378e-22)
(0.00145519 1.39543e-05 -1.1762e-21)
(0.00145387 1.44973e-05 -3.89825e-22)
(0.00145248 1.49864e-05 3.79915e-23)
(0.00145104 1.54209e-05 -1.00687e-23)
(0.00144955 1.58008e-05 -4.33208e-22)
(0.00144801 1.61265e-05 -9.00191e-22)
(0.00144643 1.63988e-05 1.44955e-23)
(0.00144481 1.66195e-05 6.37771e-23)
(0.00144316 1.67909e-05 -7.46235e-23)
(0.00144148 1.69159e-05 1.35003e-21)
(0.00143978 1.69981e-05 1.35495e-21)
(0.00143805 1.70419e-05 3.96058e-22)
(0.0014363 1.70518e-05 -1.39791e-21)
(0.00143452 1.70324e-05 -1.79874e-21)
(0.00143272 1.6988e-05 1.02839e-21)
(0.00143088 1.69212e-05 1.30391e-21)
(0.001429 1.68329e-05 -1.45097e-21)
(0.00142706 1.67205e-05 -7.77184e-22)
(0.00142505 1.65786e-05 3.6808e-22)
(0.00142296 1.63971e-05 -5.56319e-22)
(0.00142077 1.6159e-05 -9.78769e-22)
(0.00141848 1.58344e-05 -3.4409e-22)
(0.00141609 1.53838e-05 1.26213e-21)
(0.00141365 1.47839e-05 2.56929e-21)
(0.00141019 1.39521e-05 2.91036e-21)
(0.00140896 1.35141e-05 3.70318e-21)
(0.00140772 1.29927e-05 4.53138e-21)
(0.00140651 1.23823e-05 3.7782e-21)
(0.00140534 1.16803e-05 3.0463e-21)
(0.00140424 1.0882e-05 3.88902e-21)
(0.00140323 9.98013e-06 3.92984e-21)
(0.00140234 8.96653e-06 5.96157e-21)
(0.0014016 7.83342e-06 4.98136e-21)
(0.00140106 6.57537e-06 9.94654e-22)
(0.00140074 5.19082e-06 9.09799e-22)
(0.00140071 3.68342e-06 2.95082e-21)
(0.00140101 2.063e-06 3.33255e-21)
(0.00140169 3.4598e-07 1.93357e-21)
(0.0014028 -1.44418e-06 4.1194e-21)
(0.00140437 -3.27325e-06 6.09208e-21)
(0.00140646 -5.05712e-06 5.90993e-21)
(0.0014091 -6.40445e-06 3.2952e-21)
(0.00141189 -8.07447e-06 -1.31654e-21)
(0.00141515 -9.36473e-06 -2.05874e-21)
(0.00141889 -9.25467e-06 2.22154e-21)
(0.00142233 -8.44524e-06 2.96374e-21)
(0.00142529 -6.79265e-06 -2.56464e-22)
(0.00142742 -4.27488e-06 4.15226e-22)
(0.00142835 -1.03648e-06 9.62544e-22)
(0.00142778 2.67075e-06 1.22629e-21)
(0.00142554 6.4632e-06 2.51996e-21)
(0.00142161 9.86341e-06 -1.04616e-21)
(0.00141619 1.23695e-05 -2.18103e-21)
(0.00140964 1.35937e-05 1.18805e-22)
(0.00140247 1.34252e-05 -3.15071e-21)
(0.00139521 1.20413e-05 -8.98238e-21)
(0.00138827 9.76906e-06 -3.57079e-21)
(0.00138193 6.94531e-06 3.54031e-21)
(0.00137632 3.846e-06 2.76001e-21)
(0.00137147 6.64908e-07 2.56104e-21)
(0.00136735 -2.47779e-06 7.49605e-22)
(0.0013639 -5.514e-06 -2.73174e-21)
(0.00136107 -8.40617e-06 -1.10266e-21)
(0.00135879 -1.11334e-05 4.15067e-21)
(0.001357 -1.3684e-05 6.04286e-21)
(0.00135563 -1.60477e-05 2.3067e-21)
(0.00135464 -1.82156e-05 -1.25823e-21)
(0.00135396 -2.01857e-05 2.15767e-21)
(0.00135354 -2.19656e-05 4.34386e-21)
(0.00135333 -2.35664e-05 3.33338e-21)
(0.00135328 -2.4988e-05 2.04962e-21)
(0.00135334 -2.62403e-05 1.20351e-21)
(0.00135346 -2.73556e-05 -1.63921e-21)
(0.00135362 -2.8357e-05 -4.28693e-21)
(0.00135377 -2.9266e-05 -2.30298e-21)
(0.00135392 -3.01037e-05 1.11958e-21)
(0.00135403 -3.08827e-05 1.11958e-21)
(0.0013541 -3.16176e-05 0)
(0.00135412 -3.23223e-05 -8.44744e-22)
(0.00135409 -3.3009e-05 -3.82149e-21)
(0.00135401 -3.3688e-05 -2.97674e-21)
(0.00135387 -3.43675e-05 0)
(0.00135369 -3.50541e-05 0)
(0.00135346 -3.57523e-05 0)
(0.0013532 -3.64643e-05 0)
(0.00135291 -3.71912e-05 1.01751e-21)
(0.00135258 -3.79332e-05 -9.34759e-22)
(0.00135224 -3.869e-05 -2.96696e-21)
(0.00135188 -3.94611e-05 1.89541e-21)
(0.00135151 -4.02463e-05 2.9101e-21)
(0.00135113 -4.10451e-05 6.03616e-23)
(0.00135074 -4.18572e-05 -9.56726e-22)
(0.00135035 -4.26821e-05 -1.01709e-21)
(0.00134995 -4.35191e-05 -1.02081e-21)
(0.00134956 -4.43665e-05 2.05605e-24)
(0.00134917 -4.52221e-05 6.20265e-23)
(0.00134878 -4.60861e-05 -2.94817e-21)
(0.0013484 -4.69593e-05 -3.97572e-21)
(0.00134802 -4.78398e-05 -2.06388e-21)
(0.00134765 -4.87252e-05 1.91283e-21)
(0.0013473 -4.96126e-05 3.02429e-21)
(0.00134695 -5.04988e-05 -9.50116e-22)
(0.0013466 -5.13813e-05 -1.98609e-21)
(0.00134101 -5.29953e-05 9.36426e-24)
(0.00133463 -5.40422e-05 -4.11529e-23)
(0.00132822 -5.50637e-05 -5.05172e-23)
(0.00132173 -5.60651e-05 1.04728e-23)
(0.00131512 -5.7074e-05 3.25368e-24)
(0.00130838 -5.81439e-05 -5.55084e-23)
(0.00130148 -5.9356e-05 -4.82893e-23)
(0.00129449 -6.08237e-05 6.48943e-23)
(0.00128786 -6.2575e-05 6.48943e-23)
(0.00128246 -6.36901e-05 9.34516e-23)
(0.00127644 -6.29168e-05 9.34516e-23)
(0.00126892 -6.41821e-05 2.69106e-22)
(0.00126254 -6.78047e-05 2.69522e-22)
(0.00125642 -6.96347e-05 8.30106e-23)
(0.00124936 -7.05346e-05 3.94503e-23)
(0.00124231 -7.15133e-05 -3.83579e-23)
(0.00123527 -7.25335e-05 4.78627e-24)
(0.00122822 -7.35468e-05 -8.64613e-23)
(0.00122112 -7.45041e-05 -3.97675e-23)
(0.00121394 -7.53956e-05 5.67513e-23)
(0.00120665 -7.62049e-05 9.88391e-23)
(0.00119925 -7.69401e-05 1.09312e-22)
(0.00119169 -7.76249e-05 5.43275e-23)
(0.00118397 -7.82645e-05 -5.30949e-23)
(0.00117609 -7.88804e-05 -3.04089e-23)
(0.00116804 -7.94957e-05 6.23115e-23)
(0.00115983 -8.01244e-05 -5.79393e-23)
(0.00115147 -8.07567e-05 -6.82163e-23)
(0.00114296 -8.13912e-05 -4.44915e-24)
(0.00113429 -8.20428e-05 3.66671e-23)
(0.00112547 -8.27176e-05 6.30482e-24)
(0.00111649 -8.34217e-05 -1.38145e-22)
(0.00110735 -8.41616e-05 -1.07782e-22)
(0.00109804 -8.49334e-05 0)
(0.00108856 -8.57352e-05 7.11429e-23)
(0.00107891 -8.65681e-05 1.433e-22)
(0.00106906 -8.74373e-05 7.21568e-23)
(0.001059 -8.83627e-05 7.27542e-23)
(0.00104874 -8.93548e-05 7.27542e-23)
(0.00103826 -9.04174e-05 -5.34527e-23)
(0.00102757 -9.15588e-05 7.58233e-23)
(0.00101665 -9.27929e-05 2.14283e-22)
(0.00100549 -9.41429e-05 1.44847e-22)
(0.0009941 -9.55848e-05 -5.56353e-24)
(0.000982457 -9.71218e-05 -6.54032e-23)
(0.000970534 -9.88027e-05 7.45964e-24)
(0.000958341 -0.000100658 -5.99472e-23)
(0.000945866 -0.000102701 -2.45521e-22)
(0.000933108 -0.000104941 -2.11461e-23)
(0.000920076 -0.000107397 1.70964e-22)
(0.000906766 -0.000110055 1.74777e-22)
(0.000893168 -0.000112941 4.29132e-23)
(0.000879272 -0.000116099 -7.05035e-23)
(0.000865082 -0.000119522 4.73637e-23)
(0.000850578 -0.000123228 -3.84356e-23)
(0.000835747 -0.000127249 -1.60869e-22)
(0.000820614 -0.00013161 4.35407e-23)
(0.00080517 -0.000136325 8.76014e-24)
(0.000789406 -0.00014141 1.89802e-23)
(0.000773316 -0.000146891 1.76194e-22)
(0.000756901 -0.00015279 -2.19847e-22)
(0.000740182 -0.000159077 5.43334e-24)
(0.000723103 -0.000165849 2.46798e-22)
(0.00070567 -0.000173148 5.2333e-23)
(0.00068795 -0.000180923 3.08151e-23)
(0.000669943 -0.000189226 -3.45547e-22)
(0.000651674 -0.000198061 3.36011e-22)
(0.000633152 -0.000207454 3.55955e-22)
(0.000614301 -0.000217483 -3.25603e-22)
(0.000594946 -0.000228219 8.47229e-23)
(0.000574994 -0.000239719 8.47229e-23)
(0.000554453 -0.00025199 -4.22869e-22)
(0.000533327 -0.000264991 -4.22869e-22)
(0.000511664 -0.000278751 3.45174e-22)
(0.000489572 -0.000293258 3.45174e-22)
(0.000467164 -0.000308447 0)
(0.00044451 -0.000324347 0)
(0.00042174 -0.000341004 2.07737e-22)
(0.000398911 -0.000358542 4.52173e-22)
(0.000358805 -0.000392376 1.43754e-21)
(0.000342633 -0.00040736 5.38993e-22)
(0.000326362 -0.000423013 -2.15035e-21)
(0.000309907 -0.000439264 -1.07583e-21)
(0.000293329 -0.000456124 -1.56484e-21)
(0.000276676 -0.000473609 5.79538e-22)
(0.000259992 -0.000491735 4.21022e-21)
(0.000243321 -0.000510516 -2.95675e-21)
(0.000226712 -0.000529958 -1.84224e-21)
(0.000210216 -0.000550062 5.10739e-21)
(0.00019389 -0.000570823 4.86279e-21)
(0.000177792 -0.000592226 7.80591e-22)
(0.000161989 -0.000614249 -2.97212e-21)
(0.000146551 -0.000636858 -2.33009e-21)
(0.000131552 -0.000660007 6.48316e-22)
(0.00011707 -0.000683636 9.97075e-22)
(0.000103183 -0.000707669 -9.88399e-22)
(8.99684e-05 -0.000732014 0)
(7.74993e-05 -0.000756561 0)
(6.58382e-05 -0.000781185 0)
(5.50344e-05 -0.000805746 2.363e-21)
(4.51224e-05 -0.000830102 1.48296e-21)
(3.61215e-05 -0.000854107 -8.80037e-22)
(2.8038e-05 -0.000877617 -6.79175e-22)
(2.08668e-05 -0.000900495 7.47808e-22)
(1.45939e-05 -0.000922609 6.95938e-22)
(9.1981e-06 -0.000943835 -7.31045e-22)
(4.65228e-06 -0.000964053 0)
(9.2451e-07 -0.000983153 -5.93281e-22)
(-2.02152e-06 -0.00100103 -4.94978e-23)
(-4.22654e-06 -0.00101758 1.91294e-21)
(-5.73618e-06 -0.0010327 9.50377e-23)
(-6.60164e-06 -0.00104632 -1.27412e-21)
(-6.88042e-06 -0.00105834 9.61398e-22)
(-6.63597e-06 -0.00106868 -3.61615e-22)
(-5.93352e-06 -0.00107727 -8.87593e-22)
(-4.82639e-06 -0.00108404 1.31404e-22)
(-3.31508e-06 -0.00108883 -2.97503e-23)
(-1.54059e-06 -0.00109102 2.17607e-22)
(0 -0.00109199 0)
(0 -0.00109204 0)
(0 -0.00109203 0)
(0 -0.001092 0)
(0 -0.00109193 0)
(0 -0.00109183 0)
(0 -0.0010917 0)
(0 -0.00109154 0)
(0 -0.00109136 0)
(0 -0.00109116 0)
(0 -0.00109092 0)
(0 -0.00109067 0)
(0 -0.00109039 0)
(0 -0.00109009 0)
(0 -0.00108977 0)
(0 -0.00108943 0)
(0 -0.00108908 0)
(0 -0.0010887 0)
(0 -0.00108831 0)
(0 -0.0010879 0)
(0 -0.00108748 0)
(0 -0.00108705 0)
(0 -0.0010866 0)
(0 -0.00108614 0)
(0 -0.00108567 0)
(0 -0.0010852 0)
(0 -0.00108471 0)
(0 -0.00108422 0)
(0 -0.00108372 0)
(0 -0.00108321 0)
(0 -0.0010827 0)
(0 -0.00108219 0)
(0 -0.00108167 0)
(0 -0.00108115 0)
(0 -0.00108063 0)
(0 -0.00108011 0)
(0 -0.00107958 0)
(0 -0.00107906 0)
(0 -0.00107853 0)
(0 -0.00107801 0)
(0 -0.00107749 0)
(0 -0.00107698 0)
(0 -0.00107646 0)
(0 -0.00107595 0)
(0 -0.00107545 0)
(0 -0.00107495 0)
(0 -0.00107446 0)
(0 -0.00107397 0)
(0 -0.00107349 0)
(0 -0.00107301 0)
(0 -0.00107255 0)
(0 -0.00107209 0)
(0 -0.00107164 0)
(0 -0.00107121 0)
(0 -0.00107078 0)
(0 -0.00107036 0)
(0 -0.00106995 0)
(0 -0.00106955 0)
(0 -0.00106916 0)
(0 -0.00106879 0)
(0 -0.00106842 0)
(0 -0.00106807 0)
(0 -0.00106773 0)
(0 -0.00106739 0)
(0 -0.00106707 0)
(0 -0.00106676 0)
(0 -0.00106646 0)
(0 -0.00106617 0)
(0 -0.00106589 0)
(0 -0.00106563 0)
(0 -0.00106537 0)
(0 -0.00106512 0)
(0 -0.00106489 0)
(0 -0.00106467 0)
(0 -0.00106447 0)
(0 -0.00106428 0)
(0 -0.00106411 0)
(0 -0.00106396 0)
(0 -0.0010638 0)
(0 -0.00106338 0)
(0 -0.00106284 0)
(0 -0.00106188 0)
(0 -0.00106038 0)
(0 -0.00105821 0)
(0 -0.00105521 0)
(0 -0.00105123 0)
(0 -0.00104615 0)
(0 -0.00103982 0)
(0 -0.00103212 0)
(0 -0.00102294 0)
(0 -0.00101217 0)
(0 -0.000999749 0)
(0 -0.000985594 0)
(0 -0.000969657 0)
(0 -0.000951895 0)
(0 -0.000932276 0)
(0 -0.00091078 0)
(0 -0.000887385 0)
(0 -0.000862081 0)
(0 -0.000834861 0)
(0 -0.000805713 0)
(0 -0.00077464 0)
(0 -0.000741645 0)
(0 -0.000706729 0)
(0 -0.000669913 0)
(0 -0.000631222 0)
(0 -0.000590686 0)
(0 -0.000548354 0)
(0 -0.000504292 0)
(0 -0.000458574 0)
(0 -0.00041129 0)
(0 -0.00036255 0)
(0 -0.000312475 0)
(0 -0.000261191 0)
(0 -0.000208806 0)
(0 -0.000155356 0)
(0 -0.000100861 0)
(0 -4.5284e-05 0)
(0.000939617 -0.000187832 0)
(0.000945493 -0.000173471 0)
(0.000951332 -0.0001598 0)
(0.000957408 -0.000146935 0)
(0.000963528 -0.000134847 0)
(0.000969604 -0.000123504 0)
(0.000975616 -0.000112846 0)
(0.000981589 -0.000102854 0)
(0.000987534 -9.35082e-05 0)
(0.000993459 -8.47937e-05 0)
(0.000999358 -7.66839e-05 0)
(0.00100523 -6.9139e-05 0)
(0.0010111 -6.21465e-05 0)
(0.00101698 -5.56983e-05 0)
(0.00102285 -4.97622e-05 0)
(0.00102871 -4.42985e-05 0)
(0.00103457 -3.92795e-05 0)
(0.00104042 -3.46909e-05 0)
(0.00104629 -3.05138e-05 0)
(0.00105216 -2.67331e-05 0)
(0.00105803 -2.33168e-05 0)
(0.00106392 -2.02418e-05 0)
(0.00106981 -1.75022e-05 0)
(0.00107571 -1.5067e-05 0)
(0.00108162 -1.29118e-05 0)
(0.00108753 -1.10272e-05 0)
(0.00109347 -9.40431e-06 0)
(0.0010994 -8.01715e-06 0)
(0.00110533 -6.84547e-06 0)
(0.00111128 -5.88557e-06 0)
(0.00111723 -5.08988e-06 0)
(0.0011232 -4.45144e-06 0)
(0.00112919 -3.9853e-06 0)
(0.00113518 -3.66984e-06 0)
(0.00114119 -3.48928e-06 0)
(0.00114719 -3.43058e-06 0)
(0.00115322 -3.46041e-06 0)
(0.00115927 -3.59161e-06 0)
(0.00116534 -3.81845e-06 0)
(0.0011714 -4.10627e-06 0)
(0.00117747 -4.45174e-06 0)
(0.00118355 -4.84585e-06 0)
(0.00118962 -5.26917e-06 0)
(0.00119568 -5.70996e-06 0)
(0.0012017 -6.16564e-06 0)
(0.00120767 -6.64774e-06 0)
(0.00121353 -7.19798e-06 0)
(0.00121922 -7.91479e-06 0)
(0.00122469 -8.97776e-06 0)
(0.00122994 -1.06074e-05 0)
(0.001235 -1.28364e-05 0)
(0.00123978 -1.50397e-05 0)
(0.00124565 -1.50516e-05 0)
(0.0012559 -3.81392e-06 0)
(0.00125181 3.05043e-05 0)
(0.0012696 4.64718e-05 0)
(0.00130664 2.48559e-05 0)
(0.0013182 7.95231e-06 0)
(0.00132133 6.91793e-07 0)
(0.00132202 -2.34405e-06 0)
(0.00132288 -3.97782e-06 0)
(0.00132448 -5.17998e-06 0)
(0.00132699 -6.13496e-06 0)
(0.00133027 -7.08229e-06 0)
(0.0013341 -7.97085e-06 0)
(0.00133833 -8.59868e-06 0)
(0.00134292 -8.94241e-06 0)
(0.00134784 -8.96992e-06 0)
(0.00135306 -8.63705e-06 0)
(0.00135856 -7.89162e-06 0)
(0.0013643 -6.66279e-06 0)
(0.00137016 -4.87049e-06 0)
(0.00137593 -2.50649e-06 0)
(0.00138136 2.59429e-07 0)
(0.00138628 3.02646e-06 0)
(0.00139087 5.40147e-06 0)
(0.00139552 7.27917e-06 0)
(0.00140056 9.03492e-06 0)
(0.00140614 1.12734e-05 0)
(0.000921807 -0.000205403 0)
(0.000914745 -0.000207587 0)
(0.000907843 -0.000209487 0)
(0.000900956 -0.000211283 0)
(0.000894052 -0.000213043 0)
(0.000887132 -0.000214793 0)
(0.000880204 -0.000216542 0)
(0.000873274 -0.000218292 0)
(0.000866343 -0.000220044 0)
(0.00085941 -0.000221797 0)
(0.000852471 -0.000223552 0)
(0.000845525 -0.000225309 0)
(0.000838569 -0.00022707 0)
(0.000831603 -0.000228836 0)
(0.000824627 -0.000230608 0)
(0.00081764 -0.000232388 0)
(0.000810644 -0.000234176 0)
(0.000803638 -0.000235973 0)
(0.000796624 -0.000237779 0)
(0.0007896 -0.000239595 0)
(0.000782566 -0.000241423 0)
(0.000775522 -0.000243262 0)
(0.000768472 -0.000245112 0)
(0.000761417 -0.000246974 0)
(0.000754359 -0.000248846 0)
(0.0007473 -0.00025073 0)
(0.000740241 -0.000252627 0)
(0.000733182 -0.000254536 0)
(0.000726117 -0.000256461 0)
(0.000719046 -0.0002584 0)
(0.000711967 -0.000260355 0)
(0.000704856 -0.000262355 0)
(0.000697717 -0.00026439 0)
(0.000690606 -0.000266411 0)
(0.000683513 -0.000268433 0)
(0.000676434 -0.000270462 0)
(0.000669343 -0.000272519 0)
(0.000662248 -0.000274594 0)
(0.000655152 -0.000276688 0)
(0.000648057 -0.000278799 0)
(0.000640966 -0.000280928 0)
(0.00063388 -0.000283075 0)
(0.000626801 -0.000285239 0)
(0.000619729 -0.00028742 0)
(0.000612667 -0.000289618 0)
(0.000605614 -0.000291833 0)
(0.000598573 -0.000294065 0)
(0.000591544 -0.000296313 0)
(0.000584527 -0.000298579 0)
(0.00057752 -0.000300863 0)
(0.000570519 -0.000303165 0)
(0.000563523 -0.000305488 0)
(0.000556536 -0.00030783 0)
(0.00054956 -0.000310173 0)
(0.000542601 -0.000312523 0)
(0.000535659 -0.000314908 0)
(0.000528729 -0.000317312 0)
(0.000521815 -0.000319734 0)
(0.000514919 -0.000322174 0)
(0.00050804 -0.000324632 0)
(0.00050118 -0.000327108 0)
(0.000494338 -0.000329603 0)
(0.000487514 -0.000332117 0)
(0.000480708 -0.000334651 0)
(0.000473915 -0.000337207 0)
(0.000467131 -0.00033979 0)
(0.000460353 -0.000342417 0)
(0.000453577 -0.000345079 0)
(0.000446813 -0.000347747 0)
(0.000440065 -0.000350442 0)
(0.00043333 -0.000353165 0)
(0.000426609 -0.000355917 0)
(0.000419902 -0.000358698 0)
(0.000413213 -0.000361508 0)
(0.000406518 -0.000364342 0)
(0.000399827 -0.000367202 0)
(0.000393165 -0.000370091 0)
(0.000386545 -0.000373015 0)
(0.000380081 -0.000376054 0)
(6.73058e-05 -1.62693e-06 -2.53045e-21)
(0.000140713 -1.25226e-05 -1.58849e-21)
(0.000215777 -2.58329e-05 1.2622e-20)
(0.000287073 -4.64237e-05 7.85778e-22)
(0.000356124 -7.2329e-05 2.25182e-20)
(0.000421826 -0.000103483 7.45059e-22)
(0.000484302 -0.000138901 -4.7587e-20)
(0.000543381 -0.000177885 -1.11873e-20)
(0.000599136 -0.000219633 -1.11949e-20)
(0.000651756 -0.000263363 1.26447e-20)
(0.00070134 -0.000308402 2.38034e-20)
(0.000748012 -0.000354059 -2.40285e-20)
(0.000791701 -0.00039966 -5.76524e-22)
(0.000832156 -0.000444371 7.96064e-22)
(0.000868933 -0.00048706 -8.72748e-21)
(0.000901482 -0.000526213 -6.17997e-21)
(0.000929238 -0.000560039 -1.73906e-20)
(0.00095187 -0.000586781 -1.35751e-20)
(0.000969292 -0.000605011 -3.4715e-21)
(0.000981362 -0.0006135 3.04459e-22)
(0.000988254 -0.000611573 3.12677e-22)
(0.000991611 -0.000601024 1.39866e-21)
(0.000994462 -0.000586833 -1.01693e-21)
(0.00099829 -0.000572556 -3.84739e-21)
(0.00100286 -0.000558626 -9.20207e-22)
(0.00100809 -0.000545014 1.43051e-21)
(0.00101383 -0.000531654 -1.44539e-21)
(0.00102001 -0.0005185 -9.10515e-22)
(0.00102653 -0.000505526 1.45373e-21)
(0.00103332 -0.000492712 -9.11555e-22)
(0.00104033 -0.000480047 -2.35887e-21)
(0.0010475 -0.000467523 -8.07858e-24)
(0.00105478 -0.000455138 1.43924e-21)
(0.00106214 -0.000442889 -3.25952e-21)
(0.00106954 -0.000430776 -4.58347e-22)
(0.00107696 -0.000418799 1.41805e-21)
(0.00108436 -0.000406961 -4.56975e-22)
(0.00109172 -0.000395263 3.19429e-21)
(0.00109903 -0.000383706 4.12172e-21)
(0.00111343 -0.000361018 -3.67649e-22)
(0.00112048 -0.000349886 -9.22781e-22)
(0.00112743 -0.000338895 -4.26363e-21)
(0.00113427 -0.000328041 -2.15956e-21)
(0.00114097 -0.000317321 3.24519e-21)
(0.00114754 -0.000306733 9.43148e-22)
(0.00115396 -0.000296272 1.9615e-21)
(0.00116023 -0.000285937 7.38574e-23)
(0.00116633 -0.000275725 -2.87415e-21)
(0.00117226 -0.000265633 2.88611e-21)
(0.00117801 -0.00025566 3.62578e-21)
(0.00118358 -0.000245803 -4.2743e-23)
(0.00118896 -0.000236059 -9.15915e-22)
(0.00119415 -0.000226428 -1.68737e-21)
(0.00119913 -0.000216905 -4.88078e-23)
(0.00120391 -0.000207489 4.9853e-23)
(0.00120849 -0.000198176 6.77938e-22)
(0.00121286 -0.000188963 4.55217e-21)
(0.00121702 -0.000179846 -1.8815e-21)
(0.00122097 -0.000170822 -2.94438e-21)
(0.0012247 -0.000161887 1.79407e-21)
(0.00122822 -0.000153037 1.31239e-21)
(0.00123153 -0.000144266 2.47038e-22)
(0.00123463 -0.000135571 1.37987e-21)
(0.00123751 -0.000126946 3.50998e-22)
(0.00124018 -0.000118384 -2.50168e-21)
(0.00124264 -0.000109882 -9.7888e-22)
(0.00124488 -0.000101431 1.58417e-21)
(0.00124691 -9.30266e-05 1.5833e-21)
(0.00124872 -8.46604e-05 -1.43849e-21)
(0.00125032 -7.63253e-05 -1.4385e-21)
(0.00125169 -6.80131e-05 -7.13736e-22)
(0.00125285 -5.9715e-05 1.43045e-22)
(0.00125377 -5.14211e-05 7.35022e-22)
(0.00125447 -4.31205e-05 -1.16533e-21)
(0.00125492 -3.47999e-05 -5.99473e-22)
(0.00125511 -2.64383e-05 1.13879e-22)
(0.00125501 -1.80071e-05 -2.51159e-22)
(0.00125451 -9.51674e-06 4.95276e-22)
(0.00110214 -0.000364037 0)
(0.00109682 -0.000357829 0)
(0.00109156 -0.000351782 0)
(0.00108637 -0.000345887 0)
(0.00108124 -0.000340136 0)
(0.00107618 -0.000334522 0)
(0.00107117 -0.000329039 0)
(0.00106622 -0.000323684 0)
(0.00106132 -0.000318451 0)
(0.00105648 -0.000313337 0)
(0.00105168 -0.000308338 0)
(0.00104693 -0.000303452 0)
(0.00104224 -0.000298674 0)
(0.00103759 -0.000294002 0)
(0.00103298 -0.000289431 0)
(0.00102842 -0.00028496 0)
(0.0010239 -0.000280584 0)
(0.00101943 -0.000276301 0)
(0.001015 -0.000272108 0)
(0.00101062 -0.000268001 0)
(0.00100628 -0.000263977 0)
(0.00100198 -0.000260034 0)
(0.000997724 -0.000256169 0)
(0.000993513 -0.00025238 0)
(0.000989346 -0.000248663 0)
(0.000985222 -0.000245016 0)
(0.000981142 -0.000241439 0)
(0.000977106 -0.000237928 0)
(0.000973113 -0.000234482 0)
(0.000969164 -0.000231101 0)
(0.000965259 -0.000227784 0)
(0.000961397 -0.000224531 0)
(0.000957579 -0.000221346 0)
(0.000953811 -0.000218236 0)
(0.000950099 -0.000215211 0)
(0.000946454 -0.000212292 0)
(0.000942886 -0.000209505 0)
(0.000939396 -0.000206882 0)
(0.000935944 -0.000204448 0)
(0.00110214 -0.000364037 0)
(0.00109682 -0.000357829 0)
(0.00109156 -0.000351782 0)
(0.00108637 -0.000345887 0)
(0.00108124 -0.000340136 0)
(0.00107618 -0.000334522 0)
(0.00107117 -0.000329039 0)
(0.00106622 -0.000323684 0)
(0.00106132 -0.000318451 0)
(0.00105648 -0.000313337 0)
(0.00105168 -0.000308338 0)
(0.00104693 -0.000303452 0)
(0.00104224 -0.000298674 0)
(0.00103759 -0.000294002 0)
(0.00103298 -0.000289431 0)
(0.00102842 -0.00028496 0)
(0.0010239 -0.000280584 0)
(0.00101943 -0.000276301 0)
(0.001015 -0.000272108 0)
(0.00101062 -0.000268001 0)
(0.00100628 -0.000263977 0)
(0.00100198 -0.000260034 0)
(0.000997724 -0.000256169 0)
(0.000993513 -0.00025238 0)
(0.000989346 -0.000248663 0)
(0.000985222 -0.000245016 0)
(0.000981142 -0.000241439 0)
(0.000977106 -0.000237928 0)
(0.000973113 -0.000234482 0)
(0.000969164 -0.000231101 0)
(0.000965259 -0.000227784 0)
(0.000961397 -0.000224531 0)
(0.000957579 -0.000221346 0)
(0.000953811 -0.000218236 0)
(0.000950099 -0.000215211 0)
(0.000946454 -0.000212292 0)
(0.000942886 -0.000209505 0)
(0.000939396 -0.000206882 0)
(0.000935944 -0.000204448 0)
(0.000915276 -0.000213372 0)
(0.00089972 -0.000224904 0)
(0.000884444 -0.000239312 0)
(0.000868023 -0.000254006 0)
(0.000850857 -0.000268745 0)
(0.000833414 -0.000283798 0)
(0.000815896 -0.000299416 0)
(0.000798233 -0.000315602 0)
(0.000780352 -0.000332283 0)
(0.000762252 -0.00034944 0)
(0.000743952 -0.000367097 0)
(0.000725449 -0.000385268 0)
(0.00070673 -0.000403948 0)
(0.000687778 -0.000423113 0)
(0.000668579 -0.000442717 0)
(0.000649124 -0.000462684 0)
(0.000629421 -0.000482913 0)
(0.000609487 -0.000503324 0)
(0.000589202 -0.000524062 0)
(0.000567809 -0.000545852 0)
(0.000544265 -0.00056992 0)
(0.00051777 -0.000597215 0)
(0.000488232 -0.000627938 0)
(0.000456303 -0.000661469 0)
(0.000422823 -0.00069692 0)
(0.00038852 -0.000733487 0)
(0.000353973 -0.000770461 0)
(0.000319671 -0.000807185 0)
(0.000286065 -0.000843003 0)
(0.000253549 -0.000877305 0)
(0.000222414 -0.000909553 0)
(0.000192872 -0.000939304 0)
(0.000165049 -0.000966203 0)
(0.000138893 -0.000990016 0)
(0.000114142 -0.00101066 0)
(9.03492e-05 -0.00102817 0)
(6.71164e-05 -0.00104256 0)
(4.42733e-05 -0.00105357 0)
(2.18309e-05 -0.00106084 0)
(0 -0.00106338 0)
(0 -0.00106284 0)
(0 -0.00106188 0)
(0 -0.00106038 0)
(0 -0.00105821 0)
(0 -0.00105521 0)
(0 -0.00105123 0)
(0 -0.00104615 0)
(0 -0.00103982 0)
(0 -0.00103212 0)
(0 -0.00102294 0)
(0 -0.00101217 0)
(0 -0.000999749 0)
(0 -0.000985594 0)
(0 -0.000969657 0)
(0 -0.000951895 0)
(0 -0.000932276 0)
(0 -0.00091078 0)
(0 -0.000887385 0)
(0 -0.000862081 0)
(0 -0.000834861 0)
(0 -0.000805713 0)
(0 -0.00077464 0)
(0 -0.000741645 0)
(0 -0.000706729 0)
(0 -0.000669913 0)
(0 -0.000631222 0)
(0 -0.000590686 0)
(0 -0.000548354 0)
(0 -0.000504292 0)
(0 -0.000458574 0)
(0 -0.00041129 0)
(0 -0.00036255 0)
(0 -0.000312475 0)
(0 -0.000261191 0)
(0 -0.000208806 0)
(0 -0.000155356 0)
(0 -0.000100861 0)
(0 -4.5284e-05 0)
(6.73058e-05 -1.62693e-06 -2.53045e-21)
(0.000140713 -1.25226e-05 -1.58849e-21)
(0.000215777 -2.58329e-05 1.2622e-20)
(0.000287073 -4.64237e-05 7.85778e-22)
(0.000356124 -7.2329e-05 2.25182e-20)
(0.000421826 -0.000103483 7.45059e-22)
(0.000484302 -0.000138901 -4.7587e-20)
(0.000543381 -0.000177885 -1.11873e-20)
(0.000599136 -0.000219633 -1.11949e-20)
(0.000651756 -0.000263363 1.26447e-20)
(0.00070134 -0.000308402 2.38034e-20)
(0.000748012 -0.000354059 -2.40285e-20)
(0.000791701 -0.00039966 -5.76524e-22)
(0.000832156 -0.000444371 7.96064e-22)
(0.000868933 -0.00048706 -8.72748e-21)
(0.000901482 -0.000526213 -6.17997e-21)
(0.000929238 -0.000560039 -1.73906e-20)
(0.00095187 -0.000586781 -1.35751e-20)
(0.000969292 -0.000605011 -3.4715e-21)
(0.000981362 -0.0006135 3.04459e-22)
(0.000988254 -0.000611573 3.12677e-22)
(0.000991611 -0.000601024 1.39866e-21)
(0.000994462 -0.000586833 -1.01693e-21)
(0.00099829 -0.000572556 -3.84739e-21)
(0.00100286 -0.000558626 -9.20207e-22)
(0.00100809 -0.000545014 1.43051e-21)
(0.00101383 -0.000531654 -1.44539e-21)
(0.00102001 -0.0005185 -9.10515e-22)
(0.00102653 -0.000505526 1.45373e-21)
(0.00103332 -0.000492712 -9.11555e-22)
(0.00104033 -0.000480047 -2.35887e-21)
(0.0010475 -0.000467523 -8.07858e-24)
(0.00105478 -0.000455138 1.43924e-21)
(0.00106214 -0.000442889 -3.25952e-21)
(0.00106954 -0.000430776 -4.58347e-22)
(0.00107696 -0.000418799 1.41805e-21)
(0.00108436 -0.000406961 -4.56975e-22)
(0.00109172 -0.000395263 3.19429e-21)
(0.00109903 -0.000383706 4.12172e-21)
(0.00111343 -0.000361018 -3.67649e-22)
(0.00112048 -0.000349886 -9.22781e-22)
(0.00112743 -0.000338895 -4.26363e-21)
(0.00113427 -0.000328041 -2.15956e-21)
(0.00114097 -0.000317321 3.24519e-21)
(0.00114754 -0.000306733 9.43148e-22)