/*--------------------------------*- C++ -*----------------------------------*\
| =========                 |                                                 |
| \\      /  F ield         | OpenFOAM: The Open Source CFD Toolbox           |
|  \\    /   O peration     | Version:  v2012                                 |
|   \\  /    A nd           | Website:  www.openfoam.com                      |
|    \\/     M anipulation  |                                                 |
\*---------------------------------------------------------------------------*/
FoamFile
{
    version     2.0;
    format      ascii;
    class       volScalarField;
    location    "18";
    object      sigmaEq;
}
// * * * * * * * * * * * * * * * * * * * * * * * * * * * * * * * * * * * * * //

dimensions      [1 -1 -2 0 0 0 0];


internalField   nonuniform List<scalar> 
32000
(
1.6569e+08
1.63838e+08
1.49854e+08
1.52146e+08
1.37482e+08
1.39301e+08
1.25198e+08
1.27298e+08
1.13886e+08
1.16456e+08
1.03656e+08
1.06614e+08
9.45075e+07
9.7734e+07
8.6446e+07
8.98307e+07
7.94586e+07
8.29179e+07
7.35273e+07
7.69849e+07
6.86296e+07
7.20088e+07
6.47256e+07
6.79542e+07
6.17586e+07
6.47731e+07
5.9637e+07
6.23742e+07
5.82572e+07
6.06748e+07
5.75129e+07
5.95834e+07
5.72685e+07
5.89838e+07
5.74151e+07
5.87783e+07
5.78626e+07
5.88827e+07
5.85035e+07
5.92e+07
5.92737e+07
5.96687e+07
6.01392e+07
6.02502e+07
6.10422e+07
6.08876e+07
6.19744e+07
6.15752e+07
6.29413e+07
6.23201e+07
6.39468e+07
6.31247e+07
6.50305e+07
6.40319e+07
6.62144e+07
6.50713e+07
6.75428e+07
6.62904e+07
6.90482e+07
6.77291e+07
7.07522e+07
6.94156e+07
7.26522e+07
7.13471e+07
7.47348e+07
7.3502e+07
7.69582e+07
7.58464e+07
7.92646e+07
7.82929e+07
8.16279e+07
8.08397e+07
8.38596e+07
8.33721e+07
8.59335e+07
8.56906e+07
8.48573e+07
8.61657e+07
8.08015e+07
8.20361e+07
1.67399e+08
1.63254e+08
1.50643e+08
1.50972e+08
1.37235e+08
1.38172e+08
1.2479e+08
1.26127e+08
1.13644e+08
1.15187e+08
1.03611e+08
1.05291e+08
9.46242e+07
9.64072e+07
8.672e+07
8.85245e+07
7.99262e+07
8.16371e+07
7.42333e+07
7.57332e+07
6.96084e+07
7.0795e+07
6.6003e+07
6.67932e+07
6.3345e+07
6.36762e+07
6.15161e+07
6.13587e+07
6.03944e+07
5.97527e+07
5.98679e+07
5.87626e+07
5.98037e+07
5.82754e+07
6.00706e+07
5.81783e+07
6.05835e+07
5.83861e+07
6.12608e+07
5.88148e+07
6.20258e+07
5.93883e+07
6.28491e+07
6.00628e+07
6.3697e+07
6.08022e+07
6.45583e+07
6.15863e+07
6.54558e+07
6.24207e+07
6.63927e+07
6.33142e+07
6.74096e+07
6.42945e+07
6.85426e+07
6.53969e+07
6.98228e+07
6.66576e+07
7.12834e+07
6.81116e+07
7.29255e+07
6.97765e+07
7.47444e+07
7.16523e+07
7.67102e+07
7.37259e+07
7.87687e+07
7.59781e+07
8.08419e+07
7.83167e+07
8.28485e+07
8.07494e+07
8.47406e+07
8.3232e+07
8.66213e+07
8.55869e+07
8.63798e+07
8.68704e+07
8.27016e+07
8.3288e+07
1.66986e+08
1.63603e+08
1.50558e+08
1.50441e+08
1.3728e+08
1.37301e+08
1.24707e+08
1.25282e+08
1.13431e+08
1.14477e+08
1.03364e+08
1.0472e+08
9.44037e+07
9.59737e+07
8.6534e+07
8.82442e+07
7.97617e+07
8.153e+07
7.40885e+07
7.58192e+07
6.94864e+07
7.10739e+07
6.59006e+07
6.72519e+07
6.32633e+07
6.43024e+07
6.1478e+07
6.21517e+07
6.04084e+07
6.06885e+07
5.99145e+07
5.9809e+07
5.98807e+07
5.94147e+07
6.01833e+07
5.93877e+07
6.07111e+07
5.9628e+07
6.1394e+07
6.00641e+07
6.21691e+07
6.06173e+07
6.29908e+07
6.12363e+07
6.38524e+07
6.18968e+07
6.47417e+07
6.25741e+07
6.56722e+07
6.32777e+07
6.66777e+07
6.40295e+07
6.77778e+07
6.48532e+07
6.90069e+07
6.57984e+07
7.03778e+07
6.69034e+07
7.19074e+07
6.8205e+07
7.35826e+07
6.97234e+07
7.53843e+07
7.14658e+07
7.72762e+07
7.34054e+07
7.9218e+07
7.55302e+07
8.11443e+07
7.77436e+07
8.30474e+07
8.00471e+07
8.48626e+07
8.24306e+07
8.66183e+07
8.49169e+07
8.80168e+07
8.71039e+07
8.51601e+07
8.568e+07
1.67025e+08
1.62593e+08
1.49407e+08
1.49275e+08
1.35867e+08
1.36025e+08
1.23409e+08
1.23994e+08
1.1231e+08
1.1329e+08
1.02416e+08
1.03725e+08
9.36409e+07
9.52277e+07
8.59753e+07
8.77753e+07
7.94204e+07
8.13556e+07
7.39699e+07
7.595e+07
6.95994e+07
7.15327e+07
6.62544e+07
6.80456e+07
6.3842e+07
6.54056e+07
6.22512e+07
6.35287e+07
6.13625e+07
6.23239e+07
6.10372e+07
6.16611e+07
6.11297e+07
6.14116e+07
6.15229e+07
6.14873e+07
6.21278e+07
6.17871e+07
6.28512e+07
6.22002e+07
6.36331e+07
6.26809e+07
6.44526e+07
6.31831e+07
6.52845e+07
6.36688e+07
6.61347e+07
6.41465e+07
6.70187e+07
6.462e+07
6.79563e+07
6.51268e+07
6.89751e+07
6.57183e+07
7.00942e+07
6.64412e+07
7.13284e+07
6.7344e+07
7.26766e+07
6.84588e+07
7.41273e+07
6.97984e+07
7.56716e+07
7.13617e+07
7.7281e+07
7.31101e+07
7.89441e+07
7.50314e+07
8.06187e+07
7.70329e+07
8.23318e+07
7.9146e+07
8.40126e+07
8.13258e+07
8.58871e+07
8.37313e+07
8.76557e+07
8.59705e+07
8.75668e+07
8.76153e+07
1.66048e+08
1.60897e+08
1.47966e+08
1.47394e+08
1.34068e+08
1.34143e+08
1.21505e+08
1.22228e+08
1.10488e+08
1.11713e+08
1.00786e+08
1.02395e+08
9.22679e+07
9.42059e+07
8.4911e+07
8.7124e+07
7.87071e+07
8.11221e+07
7.36309e+07
7.61589e+07
6.96388e+07
7.21788e+07
6.66638e+07
6.91236e+07
6.46144e+07
6.69168e+07
6.33659e+07
6.54387e+07
6.27647e+07
6.45441e+07
6.26581e+07
6.41177e+07
6.29256e+07
6.40514e+07
6.34461e+07
6.42024e+07
6.41031e+07
6.44637e+07
6.48278e+07
6.47786e+07
6.55795e+07
6.5075e+07
6.63188e+07
6.53179e+07
6.70461e+07
6.55123e+07
6.77704e+07
6.56627e+07
6.85054e+07
6.58204e+07
6.92787e+07
6.60384e+07
7.0113e+07
6.6378e+07
7.10218e+07
6.68979e+07
7.20215e+07
6.76392e+07
7.31092e+07
6.86213e+07
7.42923e+07
6.98328e+07
7.55695e+07
7.12668e+07
7.69185e+07
7.28659e+07
7.83492e+07
7.46167e+07
7.98273e+07
7.64537e+07
8.13701e+07
7.83648e+07
8.29723e+07
8.03525e+07
8.46851e+07
8.24576e+07
8.66344e+07
8.47332e+07
8.83621e+07
8.65918e+07
1.6414e+08
1.58393e+08
1.45817e+08
1.44824e+08
1.31731e+08
1.31668e+08
1.19149e+08
1.19959e+08
1.08234e+08
1.09731e+08
9.87375e+07
1.00772e+08
9.05125e+07
9.29969e+07
8.35165e+07
8.6369e+07
7.77242e+07
8.08534e+07
7.31024e+07
7.64091e+07
6.95936e+07
7.29752e+07
6.71069e+07
7.04541e+07
6.55109e+07
6.8714e+07
6.46477e+07
6.76157e+07
6.43631e+07
6.70355e+07
6.45183e+07
6.68307e+07
6.49592e+07
6.68389e+07
6.55483e+07
6.69439e+07
6.62048e+07
6.7072e+07
6.68734e+07
6.71435e+07
6.75003e+07
6.71197e+07
6.80796e+07
6.70056e+07
6.86173e+07
6.68167e+07
6.91256e+07
6.66167e+07
6.96357e+07
6.64698e+07
7.01721e+07
6.64506e+07
7.07558e+07
6.66266e+07
7.14172e+07
6.7043e+07
7.21765e+07
6.77135e+07
7.30383e+07
6.86333e+07
7.40253e+07
6.97732e+07
7.51334e+07
7.11207e+07
7.63329e+07
7.26042e+07
7.76383e+07
7.42023e+07
7.90153e+07
7.59006e+07
8.04473e+07
7.76189e+07
8.20065e+07
7.94165e+07
8.36133e+07
8.13374e+07
8.54138e+07
8.32891e+07
8.72462e+07
8.50578e+07
1.61346e+08
1.55179e+08
1.43065e+08
1.41614e+08
1.28901e+08
1.28629e+08
1.1638e+08
1.17206e+08
1.05629e+08
1.07352e+08
9.63866e+07
9.88346e+07
8.84968e+07
9.15596e+07
8.19092e+07
8.54866e+07
7.65904e+07
8.05696e+07
7.24854e+07
7.67356e+07
6.95044e+07
7.38828e+07
6.75189e+07
7.18813e+07
6.63716e+07
7.0584e+07
6.58957e+07
6.98419e+07
6.5924e+07
6.94873e+07
6.62758e+07
6.93462e+07
6.67943e+07
6.92844e+07
6.73781e+07
6.92119e+07
6.79568e+07
6.90478e+07
6.84664e+07
6.87461e+07
6.889e+07
6.83191e+07
6.92354e+07
6.78e+07
6.95157e+07
6.72632e+07
6.97673e+07
6.67894e+07
7.00219e+07
6.64646e+07
7.03145e+07
6.636e+07
7.06898e+07
6.6519e+07
7.11843e+07
6.69442e+07
7.18071e+07
6.76371e+07
7.25655e+07
6.85536e+07
7.34804e+07
6.96531e+07
7.4529e+07
7.09237e+07
7.56662e+07
7.22981e+07
7.69015e+07
7.37364e+07
7.8239e+07
7.52709e+07
7.96001e+07
7.68574e+07
8.104e+07
7.84637e+07
8.26541e+07
8.0162e+07
8.42478e+07
8.19514e+07
8.59545e+07
8.34123e+07
1.57784e+08
1.51241e+08
1.39731e+08
1.37757e+08
1.25614e+08
1.25026e+08
1.13257e+08
1.13968e+08
1.02752e+08
1.04571e+08
9.38265e+07
9.65872e+07
8.63212e+07
8.99059e+07
8.01803e+07
8.44658e+07
7.53547e+07
8.01937e+07
7.1765e+07
7.69863e+07
6.92925e+07
7.47066e+07
6.77816e+07
7.31927e+07
6.70499e+07
7.22674e+07
6.69011e+07
7.17439e+07
6.71338e+07
7.1441e+07
6.75694e+07
7.12055e+07
6.80757e+07
7.09258e+07
6.8561e+07
7.05217e+07
6.89569e+07
6.9951e+07
6.92331e+07
6.92313e+07
6.93978e+07
6.84175e+07
6.94691e+07
6.75957e+07
6.949e+07
6.68633e+07
6.95064e+07
6.63125e+07
6.95715e+07
6.60125e+07
6.97408e+07
6.59974e+07
7.00546e+07
6.62592e+07
7.05287e+07
6.67825e+07
7.11601e+07
6.75332e+07
7.19446e+07
6.84521e+07
7.28769e+07
6.95088e+07
7.39233e+07
7.06934e+07
7.50347e+07
7.19563e+07
7.62139e+07
7.32506e+07
7.74776e+07
7.46173e+07
7.87966e+07
7.60546e+07
8.01361e+07
7.75072e+07
8.15664e+07
7.90023e+07
8.31933e+07
8.05815e+07
8.47353e+07
8.20146e+07
1.53404e+08
1.46594e+08
1.35803e+08
1.33284e+08
1.2187e+08
1.20884e+08
1.09785e+08
1.10255e+08
9.9614e+07
1.01376e+08
9.1078e+07
9.39854e+07
8.40077e+07
8.79528e+07
7.8335e+07
8.31879e+07
7.39939e+07
7.95773e+07
7.08843e+07
7.69743e+07
6.88631e+07
7.52027e+07
6.77464e+07
7.40633e+07
6.73187e+07
7.33489e+07
6.73588e+07
7.28676e+07
6.7667e+07
7.24524e+07
6.80781e+07
7.19718e+07
6.84698e+07
7.13428e+07
6.87629e+07
7.05334e+07
6.89151e+07
6.95669e+07
6.89251e+07
6.85187e+07
6.88234e+07
6.7492e+07
6.86634e+07
6.6595e+07
6.85118e+07
6.59201e+07
6.84412e+07
6.55253e+07
6.85096e+07
6.54298e+07
6.87512e+07
6.56117e+07
6.91745e+07
6.60347e+07
6.97672e+07
6.66646e+07
7.05024e+07
6.74526e+07
7.13632e+07
6.83538e+07
7.23298e+07
6.93508e+07
7.33761e+07
7.04406e+07
7.44601e+07
7.15927e+07
7.55811e+07
7.27649e+07
7.67686e+07
7.39679e+07
7.80105e+07
7.52488e+07
7.92659e+07
7.65841e+07
8.05791e+07
7.79061e+07
8.1996e+07
7.92871e+07
8.35671e+07
8.06016e+07
1.48325e+08
1.41292e+08
1.31316e+08
1.2823e+08
1.17703e+08
1.16229e+08
1.06002e+08
1.06087e+08
9.62548e+07
9.7773e+07
8.81704e+07
9.10143e+07
8.15671e+07
8.56482e+07
7.63597e+07
8.15398e+07
7.24635e+07
7.85299e+07
6.97575e+07
7.64274e+07
6.80737e+07
7.50154e+07
6.72037e+07
7.40713e+07
6.69207e+07
7.33873e+07
6.70056e+07
7.27836e+07
6.72659e+07
7.21187e+07
6.75472e+07
7.13011e+07
6.77419e+07
7.03032e+07
6.77903e+07
6.91642e+07
6.76818e+07
6.7975e+07
6.74571e+07
6.6852e+07
6.71868e+07
6.5908e+07
6.69615e+07
6.52267e+07
6.68652e+07
6.48458e+07
6.69488e+07
6.47637e+07
6.72299e+07
6.49418e+07
6.76979e+07
6.53303e+07
6.83251e+07
6.58894e+07
6.90769e+07
6.65848e+07
6.99267e+07
6.73762e+07
7.08513e+07
6.82439e+07
7.18369e+07
6.91764e+07
7.28692e+07
7.01736e+07
7.39177e+07
7.12181e+07
7.49809e+07
7.22783e+07
7.60851e+07
7.33573e+07
7.72297e+07
7.44753e+07
7.84274e+07
7.56597e+07
7.96274e+07
7.6899e+07
8.09212e+07
7.81124e+07
8.23206e+07
7.92606e+07
1.42553e+08
1.35376e+08
1.26235e+08
1.22658e+08
1.1308e+08
1.11127e+08
1.01873e+08
1.01511e+08
9.263e+07
9.378e+07
8.50514e+07
8.76412e+07
7.8936e+07
8.28856e+07
7.41762e+07
7.93339e+07
7.06658e+07
7.67815e+07
6.8258e+07
7.49975e+07
6.67676e+07
7.3747e+07
6.59866e+07
7.28123e+07
6.57001e+07
7.20009e+07
6.57012e+07
7.11602e+07
6.58097e+07
7.0195e+07
6.58797e+07
6.9082e+07
6.58209e+07
6.78681e+07
6.56128e+07
6.66574e+07
6.53077e+07
6.55704e+07
6.5003e+07
6.47156e+07
6.48094e+07
6.41528e+07
6.48041e+07
6.38949e+07
6.50183e+07
6.39167e+07
6.54433e+07
6.41629e+07
6.6042e+07
6.45785e+07
6.67686e+07
6.51247e+07
6.75882e+07
6.57736e+07
6.84757e+07
6.64984e+07
6.94076e+07
6.72837e+07
7.03697e+07
6.81163e+07
7.13576e+07
6.89846e+07
7.23649e+07
6.98955e+07
7.33702e+07
7.08424e+07
7.4379e+07
7.18e+07
7.54088e+07
7.27719e+07
7.64626e+07
7.37548e+07
7.75535e+07
7.47969e+07
7.8695e+07
7.59041e+07
7.98757e+07
7.70286e+07
8.11503e+07
7.80429e+07
1.36173e+08
1.28927e+08
1.20565e+08
1.16629e+08
1.07959e+08
1.05622e+08
9.73191e+07
9.65539e+07
8.8631e+07
8.93818e+07
8.15882e+07
8.3784e+07
7.59719e+07
7.952e+07
7.16489e+07
7.63655e+07
6.84716e+07
7.40716e+07
6.62712e+07
7.23948e+07
6.48669e+07
7.11145e+07
6.4072e+07
7.00378e+07
6.36945e+07
6.90056e+07
6.35323e+07
6.79131e+07
6.33907e+07
6.67411e+07
6.31558e+07
6.55497e+07
6.28071e+07
6.44457e+07
6.24255e+07
6.35416e+07
6.2142e+07
6.29198e+07
6.20706e+07
6.26078e+07
6.22589e+07
6.25891e+07
6.27014e+07
6.28089e+07
6.33514e+07
6.31982e+07
6.41444e+07
6.37026e+07
6.50236e+07
6.42905e+07
6.59559e+07
6.49436e+07
6.69211e+07
6.56474e+07
6.79024e+07
6.63901e+07
6.88885e+07
6.71604e+07
6.98725e+07
6.79486e+07
7.08545e+07
6.87573e+07
7.18313e+07
6.9601e+07
7.2795e+07
7.04645e+07
7.37561e+07
7.1328e+07
7.47154e+07
7.22002e+07
7.56842e+07
7.3085e+07
7.66886e+07
7.39956e+07
7.77534e+07
7.49834e+07
7.88459e+07
7.60177e+07
8.00194e+07
7.69268e+07
1.29225e+08
1.21999e+08
1.14282e+08
1.10181e+08
1.02259e+08
9.97306e+07
9.22033e+07
9.11904e+07
8.40746e+07
8.44964e+07
7.7576e+07
7.93203e+07
7.24741e+07
7.53824e+07
6.85857e+07
7.24237e+07
6.57373e+07
7.02016e+07
6.37569e+07
6.84909e+07
6.24722e+07
6.70861e+07
6.16932e+07
6.58108e+07
6.11906e+07
6.45622e+07
6.0732e+07
6.33464e+07
6.0197e+07
6.22305e+07
5.95993e+07
6.13246e+07
5.90804e+07
6.07233e+07
5.88151e+07
6.04643e+07
5.88998e+07
6.05229e+07
5.93266e+07
6.08403e+07
6.00371e+07
6.13334e+07
6.09462e+07
6.19306e+07
6.19682e+07
6.25865e+07
6.3038e+07
6.32799e+07
6.41234e+07
6.40006e+07
6.52087e+07
6.47419e+07
6.62826e+07
6.54953e+07
6.73351e+07
6.62508e+07
6.83585e+07
6.70036e+07
6.93517e+07
6.77631e+07
7.03166e+07
6.85337e+07
7.12675e+07
6.9315e+07
7.21996e+07
7.00925e+07
7.31093e+07
7.087e+07
7.40055e+07
7.16531e+07
7.49039e+07
7.24508e+07
7.58265e+07
7.32575e+07
7.68094e+07
7.41378e+07
7.78421e+07
7.50612e+07
7.89394e+07
7.58914e+07
1.21732e+08
1.14616e+08
1.07361e+08
1.03292e+08
9.58752e+07
9.33801e+07
8.63567e+07
8.52968e+07
7.87512e+07
7.89658e+07
7.27802e+07
7.40598e+07
6.81991e+07
7.03023e+07
6.48166e+07
6.74486e+07
6.24396e+07
6.52548e+07
6.0864e+07
6.34844e+07
5.98523e+07
6.19323e+07
5.9089e+07
6.04984e+07
5.82804e+07
5.92163e+07
5.73415e+07
5.81669e+07
5.63776e+07
5.74808e+07
5.5655e+07
5.72284e+07
5.53835e+07
5.73837e+07
5.56118e+07
5.78594e+07
5.62545e+07
5.85518e+07
5.71916e+07
5.93595e+07
5.83169e+07
6.02171e+07
5.95395e+07
6.10856e+07
6.0789e+07
6.19463e+07
6.20303e+07
6.27951e+07
6.32482e+07
6.36284e+07
6.4435e+07
6.44402e+07
6.55795e+07
6.52236e+07
6.66711e+07
6.59792e+07
6.77117e+07
6.67218e+07
6.87109e+07
6.74664e+07
6.96773e+07
6.82066e+07
7.06094e+07
6.89327e+07
7.15041e+07
6.96478e+07
7.23704e+07
7.03612e+07
7.32207e+07
7.1078e+07
7.4066e+07
7.17981e+07
7.49313e+07
7.25291e+07
7.58546e+07
7.33242e+07
7.68224e+07
7.41734e+07
7.78683e+07
7.49237e+07
1.13648e+08
1.06726e+08
9.97414e+07
9.58496e+07
8.86879e+07
8.63869e+07
7.96218e+07
7.86435e+07
7.24787e+07
7.25531e+07
6.70304e+07
6.78374e+07
6.30735e+07
6.42489e+07
6.03853e+07
6.1515e+07
5.86957e+07
5.93341e+07
5.76481e+07
5.74729e+07
5.68117e+07
5.58623e+07
5.5807e+07
5.45811e+07
5.45571e+07
5.37156e+07
5.33185e+07
5.33819e+07
5.2526e+07
5.35779e+07
5.23395e+07
5.41926e+07
5.27158e+07
5.50742e+07
5.35051e+07
5.60821e+07
5.45557e+07
5.71299e+07
5.57472e+07
5.8194e+07
5.7051e+07
5.92562e+07
5.84031e+07
6.02959e+07
5.97542e+07
6.13006e+07
6.10814e+07
6.22499e+07
6.23685e+07
6.31429e+07
6.36091e+07
6.39811e+07
6.47852e+07
6.47709e+07
6.58943e+07
6.55378e+07
6.69481e+07
6.62911e+07
6.79533e+07
6.70227e+07
6.891e+07
6.77252e+07
6.98151e+07
6.84066e+07
7.06796e+07
6.90825e+07
7.15163e+07
6.97561e+07
7.23341e+07
7.04266e+07
7.31373e+07
7.11012e+07
7.39504e+07
7.17836e+07
7.4819e+07
7.25223e+07
7.57584e+07
7.33023e+07
7.67644e+07
7.40025e+07
1.04869e+08
9.82071e+07
9.13374e+07
8.76516e+07
8.05983e+07
7.84887e+07
7.18944e+07
7.09622e+07
6.52019e+07
6.50574e+07
6.03972e+07
6.05475e+07
5.72478e+07
5.71034e+07
5.54265e+07
5.43467e+07
5.44167e+07
5.20669e+07
5.34919e+07
5.03209e+07
5.22187e+07
4.92919e+07
5.10059e+07
4.89892e+07
4.99572e+07
4.93596e+07
4.963e+07
5.02021e+07
4.99761e+07
5.13195e+07
5.07563e+07
5.25452e+07
5.17656e+07
5.38076e+07
5.28931e+07
5.50727e+07
5.41134e+07
5.62993e+07
5.53753e+07
5.74864e+07
5.66616e+07
5.86719e+07
5.79482e+07
5.98155e+07
5.92406e+07
6.08374e+07
6.04974e+07
6.17737e+07
6.17106e+07
6.26549e+07
6.2897e+07
6.34737e+07
6.40197e+07
6.42673e+07
6.50924e+07
6.50305e+07
6.61158e+07
6.5751e+07
6.7092e+07
6.64265e+07
6.80077e+07
6.70736e+07
6.88751e+07
6.77205e+07
6.97085e+07
6.83662e+07
7.05131e+07
6.9001e+07
7.12962e+07
6.96282e+07
7.20735e+07
7.02649e+07
7.28693e+07
7.09301e+07
7.37128e+07
7.16445e+07
7.4619e+07
7.23959e+07
7.55989e+07
7.30708e+07
9.52597e+07
8.88978e+07
8.20825e+07
7.8463e+07
7.15079e+07
6.94083e+07
6.30834e+07
6.20012e+07
5.69587e+07
5.62536e+07
5.30165e+07
5.18168e+07
5.09164e+07
4.8314e+07
4.97601e+07
4.57371e+07
4.87067e+07
4.42365e+07
4.68027e+07
4.41352e+07
4.52499e+07
4.44602e+07
4.45005e+07
4.50464e+07
4.49985e+07
4.60806e+07
4.62031e+07
4.73669e+07
4.7699e+07
4.87538e+07
4.93209e+07
5.01711e+07
5.09803e+07
5.15721e+07
5.25833e+07
5.29414e+07
5.38384e+07
5.46202e+07
5.52013e+07
5.62169e+07
5.65478e+07
5.75025e+07
5.78014e+07
5.86995e+07
5.89455e+07
5.98795e+07
6.00838e+07
6.09194e+07
6.12699e+07
6.18604e+07
6.23508e+07
6.28074e+07
6.33981e+07
6.36642e+07
6.44044e+07
6.44215e+07
6.53689e+07
6.51199e+07
6.6268e+07
6.57562e+07
6.71331e+07
6.63943e+07
6.7966e+07
6.70203e+07
6.87642e+07
6.76214e+07
6.95282e+07
6.82e+07
7.02699e+07
6.87789e+07
7.10126e+07
6.93869e+07
7.17786e+07
7.00339e+07
7.25872e+07
7.07203e+07
7.34558e+07
7.14453e+07
7.44049e+07
7.21261e+07
8.47221e+07
7.86664e+07
7.18058e+07
6.81136e+07
6.11607e+07
5.89697e+07
5.30814e+07
5.1559e+07
4.78645e+07
4.58236e+07
4.53759e+07
4.17722e+07
4.43058e+07
3.96895e+07
4.16863e+07
3.95476e+07
3.91158e+07
3.9295e+07
3.82579e+07
3.92564e+07
3.87746e+07
3.99639e+07
3.97534e+07
4.10481e+07
4.10268e+07
4.22584e+07
4.2515e+07
4.3584e+07
4.41371e+07
4.5011e+07
4.58304e+07
4.65073e+07
4.75696e+07
4.80488e+07
4.94062e+07
4.96347e+07
5.12994e+07
5.12488e+07
5.31794e+07
5.28705e+07
5.49587e+07
5.44281e+07
5.66452e+07
5.5898e+07
5.8173e+07
5.73287e+07
5.9228e+07
5.9087e+07
6.03088e+07
6.02074e+07
6.13041e+07
6.12261e+07
6.22938e+07
6.21608e+07
6.32684e+07
6.30566e+07
6.4213e+07
6.38279e+07
6.50976e+07
6.46045e+07
6.59499e+07
6.53128e+07
6.6754e+07
6.59405e+07
6.75117e+07
6.65123e+07
6.82395e+07
6.70714e+07
6.89699e+07
6.76661e+07
6.97119e+07
6.82847e+07
7.04691e+07
6.89167e+07
7.1257e+07
6.95788e+07
7.20944e+07
7.02832e+07
7.30139e+07
7.09795e+07
7.29783e+07
6.73943e+07
6.0079e+07
5.65122e+07
4.94326e+07
4.70584e+07
4.25111e+07
3.98711e+07
3.98033e+07
3.58543e+07
3.72256e+07
3.53331e+07
3.43019e+07
3.47855e+07
3.31825e+07
3.39989e+07
3.31233e+07
3.44869e+07
3.36182e+07
3.51233e+07
3.44714e+07
3.58982e+07
3.56299e+07
3.69277e+07
3.70511e+07
3.81658e+07
3.86627e+07
3.95489e+07
4.03952e+07
4.10344e+07
4.21986e+07
4.25972e+07
4.40444e+07
4.42279e+07
4.59171e+07
4.59364e+07
4.77959e+07
4.76482e+07
4.96043e+07
4.9309e+07
5.1301e+07
5.09153e+07
5.29314e+07
5.24645e+07
5.46404e+07
5.39567e+07
5.641e+07
5.5509e+07
5.80111e+07
5.69732e+07
5.94551e+07
5.83466e+07
6.07449e+07
5.96547e+07
6.17713e+07
6.10512e+07
6.25903e+07
6.19402e+07
6.33805e+07
6.27564e+07
6.42023e+07
6.35175e+07
6.50238e+07
6.42365e+07
6.5834e+07
6.4924e+07
6.6606e+07
6.56256e+07
6.73413e+07
6.627e+07
6.80823e+07
6.68865e+07
6.88212e+07
6.74954e+07
6.95776e+07
6.81349e+07
7.03851e+07
6.88475e+07
7.12752e+07
6.95859e+07
5.97511e+07
5.49366e+07
4.72514e+07
4.37079e+07
3.79075e+07
3.47907e+07
3.41002e+07
3.1482e+07
3.12518e+07
3.13289e+07
2.95016e+07
2.98379e+07
2.87445e+07
2.97767e+07
2.85649e+07
2.98531e+07
2.88116e+07
3.02164e+07
2.94592e+07
3.08702e+07
3.04434e+07
3.1758e+07
3.17073e+07
3.28596e+07
3.32027e+07
3.41535e+07
3.48742e+07
3.56029e+07
3.66652e+07
3.71685e+07
3.85303e+07
3.88198e+07
4.0439e+07
4.05348e+07
4.23646e+07
4.22881e+07
4.42755e+07
4.40397e+07
4.61387e+07
4.57563e+07
4.79367e+07
4.7432e+07
4.96744e+07
4.90821e+07
5.13598e+07
5.07319e+07
5.29708e+07
5.22853e+07
5.44504e+07
5.37456e+07
5.58336e+07
5.51146e+07
5.72461e+07
5.64198e+07
5.87401e+07
5.77738e+07
6.00668e+07
5.90294e+07
6.12497e+07
6.02065e+07
6.23018e+07
6.1306e+07
6.31502e+07
6.2253e+07
6.37784e+07
6.29397e+07
6.44546e+07
6.36199e+07
6.51787e+07
6.43009e+07
6.59234e+07
6.49903e+07
6.66767e+07
6.56921e+07
6.74664e+07
6.6448e+07
6.83132e+07
6.72319e+07
6.92033e+07
6.8019e+07
4.67992e+07
4.15363e+07
3.5741e+07
3.15535e+07
2.94129e+07
2.89651e+07
2.71333e+07
2.65563e+07
2.58733e+07
2.59474e+07
2.50843e+07
2.56393e+07
2.4638e+07
2.55431e+07
2.45472e+07
2.56999e+07
2.48243e+07
2.61023e+07
2.54838e+07
2.6777e+07
2.6508e+07
2.77226e+07
2.78445e+07
2.89058e+07
2.94242e+07
3.02846e+07
3.11778e+07
3.18177e+07
3.30461e+07
3.34675e+07
3.49829e+07
3.52012e+07
3.69528e+07
3.69897e+07
3.89259e+07
3.88014e+07
4.08743e+07
4.06067e+07
4.27767e+07
4.23853e+07
4.46238e+07
4.41297e+07
4.64167e+07
4.58402e+07
4.81498e+07
4.75122e+07
4.98076e+07
4.91146e+07
5.13782e+07
5.06425e+07
5.28672e+07
5.21091e+07
5.42827e+07
5.35316e+07
5.56063e+07
5.48612e+07
5.68126e+07
5.6098e+07
5.79359e+07
5.72544e+07
5.9065e+07
5.83721e+07
6.02325e+07
5.94771e+07
6.12758e+07
6.0505e+07
6.22322e+07
6.14859e+07
6.31385e+07
6.24221e+07
6.39856e+07
6.32363e+07
6.46637e+07
6.39261e+07
6.53102e+07
6.46511e+07
6.60396e+07
6.54286e+07
6.68366e+07
6.62139e+07
3.57662e+07
2.97559e+07
2.80701e+07
2.65161e+07
2.47767e+07
2.38948e+07
2.30014e+07
2.26816e+07
2.19438e+07
2.20161e+07
2.12058e+07
2.17002e+07
2.07477e+07
2.16032e+07
2.06315e+07
2.17494e+07
2.09152e+07
2.21709e+07
2.16159e+07
2.28817e+07
2.27036e+07
2.38755e+07
2.41151e+07
2.51223e+07
2.57739e+07
2.65775e+07
2.76062e+07
2.81934e+07
2.95494e+07
2.99261e+07
3.15548e+07
3.17378e+07
3.35848e+07
3.35954e+07
3.56102e+07
3.54687e+07
3.76076e+07
3.73332e+07
3.95606e+07
3.91727e+07
4.14592e+07
4.09783e+07
4.32968e+07
4.27432e+07
4.50662e+07
4.44549e+07
4.67598e+07
4.61015e+07
4.83746e+07
4.76794e+07
4.99144e+07
4.91938e+07
5.13788e+07
5.06474e+07
5.27613e+07
5.20261e+07
5.40593e+07
5.33316e+07
5.52791e+07
5.45712e+07
5.64224e+07
5.57452e+07
5.74773e+07
5.68434e+07
5.84414e+07
5.78695e+07
5.93395e+07
5.88407e+07
6.02168e+07
5.97977e+07
6.1131e+07
6.07407e+07
6.20091e+07
6.16472e+07
6.28441e+07
6.25608e+07
6.36644e+07
6.35111e+07
6.4477e+07
6.44919e+07
2.70692e+07
2.39727e+07
2.34132e+07
2.16765e+07
2.10684e+07
2.02173e+07
1.96057e+07
1.93203e+07
1.85223e+07
1.86634e+07
1.76833e+07
1.82116e+07
1.71296e+07
1.80001e+07
1.69485e+07
1.80709e+07
1.721e+07
1.84591e+07
1.7932e+07
1.91771e+07
1.90741e+07
2.02095e+07
2.05579e+07
2.15169e+07
2.22946e+07
2.30466e+07
2.42028e+07
2.47432e+07
2.62167e+07
2.65564e+07
2.82855e+07
2.84433e+07
3.03716e+07
3.03684e+07
3.24465e+07
3.23031e+07
3.44896e+07
3.42255e+07
3.64863e+07
3.61203e+07
3.8427e+07
3.79765e+07
4.03044e+07
3.9785e+07
4.21125e+07
4.15359e+07
4.38462e+07
4.3223e+07
4.55029e+07
4.48444e+07
4.70815e+07
4.64001e+07
4.85808e+07
4.78867e+07
4.99989e+07
4.92996e+07
5.13363e+07
5.06387e+07
5.25955e+07
5.19078e+07
5.37775e+07
5.31089e+07
5.4882e+07
5.42427e+07
5.59154e+07
5.53189e+07
5.68878e+07
5.63466e+07
5.78044e+07
5.73243e+07
5.86597e+07
5.82485e+07
5.94534e+07
5.91221e+07
6.01991e+07
5.99527e+07
6.09185e+07
6.07593e+07
6.1639e+07
6.16364e+07
2.0145e+07
1.95955e+07
1.88681e+07
1.79486e+07
1.75372e+07
1.68792e+07
1.64736e+07
1.61688e+07
1.54793e+07
1.55699e+07
1.45744e+07
1.50519e+07
1.38922e+07
1.4708e+07
1.35856e+07
1.46503e+07
1.3769e+07
1.49582e+07
1.44764e+07
1.56581e+07
1.5657e+07
1.6725e+07
1.72099e+07
1.81005e+07
1.90258e+07
1.9714e+07
2.10112e+07
2.14975e+07
2.30942e+07
2.3393e+07
2.52228e+07
2.53541e+07
2.73596e+07
2.73445e+07
2.94783e+07
2.93365e+07
3.15599e+07
3.13098e+07
3.35913e+07
3.32497e+07
3.55635e+07
3.51453e+07
3.74696e+07
3.69877e+07
3.93047e+07
3.877e+07
4.10651e+07
4.04873e+07
4.27488e+07
4.21373e+07
4.43544e+07
4.37178e+07
4.58806e+07
4.52261e+07
4.73268e+07
4.66606e+07
4.86929e+07
4.8022e+07
4.99801e+07
4.93119e+07
5.11899e+07
5.05312e+07
5.23245e+07
5.16811e+07
5.33872e+07
5.27649e+07
5.43815e+07
5.37861e+07
5.53101e+07
5.47447e+07
5.61753e+07
5.56423e+07
5.69833e+07
5.64876e+07
5.77442e+07
5.729e+07
5.84677e+07
5.8052e+07
5.91614e+07
5.88004e+07
1.62678e+07
1.60343e+07
1.56221e+07
1.50596e+07
1.47323e+07
1.42343e+07
1.38312e+07
1.35088e+07
1.28381e+07
1.28113e+07
1.1829e+07
1.21616e+07
1.09768e+07
1.16618e+07
1.04929e+07
1.14542e+07
1.0558e+07
1.16628e+07
1.12397e+07
1.23395e+07
1.24703e+07
1.34514e+07
1.41096e+07
1.49126e+07
1.60178e+07
1.66258e+07
1.80861e+07
1.85058e+07
2.0238e+07
2.04868e+07
2.24214e+07
2.25199e+07
2.46013e+07
2.45696e+07
2.67536e+07
2.66101e+07
2.8862e+07
2.86231e+07
3.0915e+07
3.05952e+07
3.2905e+07
3.25167e+07
3.48261e+07
3.43802e+07
3.66744e+07
3.61802e+07
3.84472e+07
3.79128e+07
4.01424e+07
3.95753e+07
4.1759e+07
4.11658e+07
4.3296e+07
4.26825e+07
4.47531e+07
4.41245e+07
4.61307e+07
4.54919e+07
4.74296e+07
4.6785e+07
4.86507e+07
4.80042e+07
4.97956e+07
4.91509e+07
5.08664e+07
5.02266e+07
5.18654e+07
5.12333e+07
5.27959e+07
5.21727e+07
5.36619e+07
5.30475e+07
5.44683e+07
5.38614e+07
5.52208e+07
5.4619e+07
5.5928e+07
5.53252e+07
5.65993e+07
5.60027e+07
1.33859e+07
1.34224e+07
1.32129e+07
1.2806e+07
1.25912e+07
1.21549e+07
1.17529e+07
1.14052e+07
1.06965e+07
1.05566e+07
9.5257e+06
9.68764e+06
8.42989e+06
8.94225e+06
7.67877e+06
8.51364e+06
7.56343e+06
8.58849e+06
8.22286e+06
9.25037e+06
9.54685e+06
1.04396e+07
1.13143e+07
1.20186e+07
1.33384e+07
1.38516e+07
1.54965e+07
1.58356e+07
1.7713e+07
1.78998e+07
1.99407e+07
1.99963e+07
2.21497e+07
2.20929e+07
2.43201e+07
2.41673e+07
2.64388e+07
2.62039e+07
2.84968e+07
2.81918e+07
3.04878e+07
3.01231e+07
3.24075e+07
3.19917e+07
3.42529e+07
3.37936e+07
3.60217e+07
3.55255e+07
3.77125e+07
3.71853e+07
3.93243e+07
3.87713e+07
4.08567e+07
4.02821e+07
4.23094e+07
4.17172e+07
4.36826e+07
4.30763e+07
4.4977e+07
4.43596e+07
4.61936e+07
4.55674e+07
4.7334e+07
4.67008e+07
4.84002e+07
4.7761e+07
4.9395e+07
4.87495e+07
5.03215e+07
4.9668e+07
5.1183e+07
5.05186e+07
5.19827e+07
5.13028e+07
5.27244e+07
5.20229e+07
5.34164e+07
5.26844e+07
5.40712e+07
5.33252e+07
1.13556e+07
1.15737e+07
1.14405e+07
1.11891e+07
1.10008e+07
1.06423e+07
1.02131e+07
9.86582e+06
9.10421e+06
8.88147e+06
7.77609e+06
7.77734e+06
6.39715e+06
6.71246e+06
5.26243e+06
5.94465e+06
4.84717e+06
5.79975e+06
5.49574e+06
6.45426e+06
6.99064e+06
7.7761e+06
8.93565e+06
9.51553e+06
1.10883e+07
1.14837e+07
1.33275e+07
1.35672e+07
1.55899e+07
1.56992e+07
1.78395e+07
1.78391e+07
2.00543e+07
1.99609e+07
2.222e+07
2.20472e+07
2.43273e+07
2.40863e+07
2.63697e+07
2.60699e+07
2.83425e+07
2.79919e+07
3.02425e+07
2.9848e+07
3.20676e+07
3.1635e+07
3.38162e+07
3.33506e+07
3.54871e+07
3.49929e+07
3.70797e+07
3.65607e+07
3.85935e+07
3.80532e+07
4.00287e+07
3.94697e+07
4.13854e+07
4.08101e+07
4.26645e+07
4.20747e+07
4.3867e+07
4.32638e+07
4.49946e+07
4.43784e+07
4.60493e+07
4.54196e+07
4.70337e+07
4.63888e+07
4.79505e+07
4.72873e+07
4.88027e+07
4.81164e+07
4.95931e+07
4.88774e+07
5.0326e+07
4.95727e+07
5.1012e+07
5.02107e+07
5.16672e+07
5.08394e+07
1.00318e+07
1.03637e+07
1.02401e+07
1.01445e+07
9.92637e+06
9.68875e+06
9.20477e+06
8.92024e+06
8.10368e+06
7.86434e+06
6.70384e+06
6.59183e+06
5.11659e+06
5.22413e+06
3.55154e+06
4.00963e+06
2.61648e+06
3.47513e+06
3.27691e+06
4.11955e+06
5.04069e+06
5.6414e+06
7.16401e+06
7.55945e+06
9.40368e+06
9.64213e+06
1.16746e+07
1.17892e+07
1.39369e+07
1.39504e+07
1.6168e+07
1.60969e+07
1.83536e+07
1.82105e+07
2.04842e+07
2.02791e+07
2.25532e+07
2.22942e+07
2.4556e+07
2.42498e+07
2.64892e+07
2.61415e+07
2.83505e+07
2.79662e+07
3.0138e+07
2.97214e+07
3.18506e+07
3.14053e+07
3.34873e+07
3.30165e+07
3.50476e+07
3.45541e+07
3.65313e+07
3.60174e+07
3.79386e+07
3.7406e+07
3.92697e+07
3.87199e+07
4.05256e+07
3.99594e+07
4.17074e+07
4.1125e+07
4.28167e+07
4.22176e+07
4.38556e+07
4.32384e+07
4.48266e+07
4.41887e+07
4.57324e+07
4.50699e+07
4.65761e+07
4.58829e+07
4.73607e+07
4.6629e+07
4.80916e+07
4.7312e+07
4.87809e+07
4.79431e+07
4.94463e+07
4.85746e+07
9.27189e+06
9.68347e+06
9.53119e+06
9.59858e+06
9.32307e+06
9.24828e+06
8.7023e+06
8.54941e+06
7.69541e+06
7.52897e+06
6.37438e+06
6.2465e+06
4.82479e+06
4.78609e+06
3.18329e+06
3.31158e+06
1.90898e+06
2.32428e+06
2.36948e+06
2.80476e+06
4.14562e+06
4.40797e+06
6.23755e+06
6.37408e+06
8.4166e+06
8.45905e+06
1.0615e+07
1.05812e+07
1.2801e+07
1.27024e+07
1.49557e+07
1.48007e+07
1.70667e+07
1.68619e+07
1.91254e+07
1.88763e+07
2.11257e+07
2.08369e+07
2.30633e+07
2.27387e+07
2.49349e+07
2.45779e+07
2.67381e+07
2.63519e+07
2.84712e+07
2.80585e+07
3.0133e+07
2.96962e+07
3.17225e+07
3.12637e+07
3.32392e+07
3.27603e+07
3.46829e+07
3.41853e+07
3.60537e+07
3.55384e+07
3.7352e+07
3.68196e+07
3.85786e+07
3.80292e+07
3.97346e+07
3.91677e+07
4.08219e+07
4.02361e+07
4.18425e+07
4.12358e+07
4.2799e+07
4.21681e+07
4.36943e+07
4.30346e+07
4.45316e+07
4.38367e+07
4.53142e+07
4.45762e+07
4.60481e+07
4.52578e+07
4.67461e+07
4.58945e+07
4.74254e+07
4.65384e+07
8.97199e+06
9.44048e+06
9.24148e+06
9.4711e+06
9.13129e+06
9.24126e+06
8.64223e+06
8.66551e+06
7.8014e+06
7.77713e+06
6.68838e+06
6.64317e+06
5.40847e+06
5.35722e+06
4.13698e+06
4.0847e+06
3.25483e+06
3.19529e+06
3.37754e+06
3.30003e+06
4.54875e+06
4.44921e+06
6.24835e+06
6.12295e+06
8.16159e+06
8.00739e+06
1.01591e+07
9.97471e+06
1.21814e+07
1.19666e+07
1.41964e+07
1.39517e+07
1.61848e+07
1.59111e+07
1.81339e+07
1.78323e+07
2.00351e+07
1.97068e+07
2.18821e+07
2.15287e+07
2.36708e+07
2.32937e+07
2.53979e+07
2.49984e+07
2.70611e+07
2.66406e+07
2.86587e+07
2.82186e+07
3.01895e+07
2.97309e+07
3.16527e+07
3.11768e+07
3.30479e+07
3.25556e+07
3.4375e+07
3.38669e+07
3.56344e+07
3.51106e+07
3.68268e+07
3.62868e+07
3.79533e+07
3.7396e+07
3.90155e+07
3.84389e+07
4.00157e+07
3.94169e+07
4.09566e+07
4.03316e+07
4.18413e+07
4.11852e+07
4.26732e+07
4.198e+07
4.34561e+07
4.27189e+07
4.41959e+07
4.34084e+07
4.49048e+07
4.40623e+07
4.55968e+07
4.47319e+07
9.04946e+06
9.55456e+06
9.30359e+06
9.67987e+06
9.2806e+06
9.57076e+06
8.93283e+06
9.14086e+06
8.28571e+06
8.42838e+06
7.42359e+06
7.50863e+06
6.4612e+06
6.48558e+06
5.56671e+06
5.51789e+06
4.99169e+06
4.85449e+06
5.0151e+06
4.79472e+06
5.7269e+06
5.45705e+06
6.96276e+06
6.67258e+06
8.50973e+06
8.21024e+06
1.02225e+07
9.9151e+06
1.20164e+07
1.16994e+07
1.38418e+07
1.3513e+07
1.56682e+07
1.53258e+07
1.74759e+07
1.71186e+07
1.92519e+07
1.88787e+07
2.09869e+07
2.05974e+07
2.26744e+07
2.22686e+07
2.43098e+07
2.38876e+07
2.58897e+07
2.54514e+07
2.74115e+07
2.69576e+07
2.88735e+07
2.84044e+07