/*--------------------------------*- C++ -*----------------------------------*\
| =========                 |                                                 |
| \\      /  F ield         | OpenFOAM: The Open Source CFD Toolbox           |
|  \\    /   O peration     | Version:  v2012                                 |
|   \\  /    A nd           | Website:  www.openfoam.com                      |
|    \\/     M anipulation  |                                                 |
\*---------------------------------------------------------------------------*/
FoamFile
{
    version     2.0;
    format      ascii;
    class       volScalarField;
    location    "3";
    object      epsilonEq;
}
// * * * * * * * * * * * * * * * * * * * * * * * * * * * * * * * * * * * * * //

dimensions      [0 0 0 0 0 0 0];


internalField   nonuniform List<scalar> 
32000
(
0.00192454
0.00185818
0.00183798
0.00177764
0.00175664
0.00170198
0.00168127
0.00163134
0.00161158
0.0015656
0.00154709
0.00150448
0.00148733
0.00144766
0.00143188
0.00139482
0.00138035
0.00134564
0.0013324
0.00129984
0.00128775
0.00125714
0.00124611
0.00121731
0.00120725
0.00118011
0.00117094
0.00114533
0.00113699
0.00111281
0.00110521
0.00108235
0.00107544
0.0010538
0.00104753
0.00102703
0.00102133
0.00100189
0.000996718
0.000978263
0.000973579
0.000956042
0.000951803
0.000935121
0.00093129
0.000915405
0.000911948
0.000896804
0.000893692
0.000879238
0.000876443
0.000862631
0.000860127
0.000846913
0.000844677
0.000832019
0.000830028
0.000817887
0.000816124
0.00080446
0.000802908
0.000791687
0.00079033
0.000779518
0.000778343
0.000767905
0.000766902
0.000756805
0.000755967
0.000746176
0.000745499
0.000735977
0.000735461
0.000726165
0.000725819
0.000716694
0.000716534
0.000707503
0.000707554
0.000698488
0.00191069
0.00185092
0.00182613
0.00177017
0.00174783
0.00169527
0.00167483
0.00162558
0.00160681
0.0015607
0.00154349
0.00150031
0.00148455
0.00144408
0.00142969
0.00139172
0.00137861
0.00134293
0.00133102
0.00129745
0.00128665
0.00125503
0.00124525
0.00121543
0.0012066
0.00117844
0.00117047
0.00114386
0.00113669
0.0011115
0.00110506
0.0010812
0.00107543
0.0010528
0.00104765
0.00102617
0.00102157
0.00100116
0.000997081
0.000977661
0.000974053
0.000955559
0.000952381
0.000934751
0.000931968
0.000915142
0.00091272
0.000896644
0.000894553
0.000879176
0.000877388
0.000862661
0.000861151
0.00084703
0.000845776
0.000832218
0.000831198
0.000818162
0.000817358
0.000804807
0.000804201
0.000792098
0.000791675
0.000779986
0.000779732
0.000768423
0.000768325
0.000757363
0.00075741
0.000746764
0.000746944
0.000736584
0.000736886
0.000726785
0.000727192
0.000717332
0.000717821
0.000708209
0.000708728
0.000699464
0.00190438
0.00184432
0.00181894
0.00176306
0.00174051
0.00168812
0.00166795
0.00161872
0.00160059
0.0015543
0.00153797
0.00149442
0.0014797
0.00143871
0.00142546
0.00138685
0.00137494
0.00133853
0.00132785
0.00129349
0.00128393
0.00125148
0.00124294
0.00121226
0.00120466
0.00117563
0.00116889
0.00114138
0.00113543
0.00110933
0.0011041
0.00107933
0.00107476
0.00105122
0.00104724
0.00102485
0.00102142
0.0010001
0.000997165
0.000976844
0.000974365
0.000954975
0.00095291
0.000934389
0.000932702
0.000914993
0.00091365
0.000896697
0.000895669
0.000879422
0.000878681
0.000863091
0.000862612
0.000847635
0.000847395
0.000832988
0.000832966
0.00081909
0.000819268
0.000805884
0.000806243
0.000793315
0.000793842
0.000781336
0.000782014
0.000769897
0.000770714
0.000758956
0.000759898
0.000748471
0.000749525
0.000738403
0.000739556
0.000728721
0.000729958
0.000719395
0.000720706
0.000710405
0.000711797
0.000701715
0.00189541
0.00183516
0.00181034
0.00175411
0.0017321
0.0016794
0.00165987
0.00161033
0.00159298
0.00154634
0.00153092
0.00148695
0.00147325
0.00143177
0.00141962
0.00138045
0.0013697
0.00133267
0.00132319
0.00128816
0.00127983
0.00124666
0.00123937
0.00120794
0.00120159
0.00117178
0.00116629
0.00113799
0.00113328
0.00110638
0.00110239
0.0010768
0.00107345
0.00104909
0.00104633
0.00102311
0.00102088
0.000998729
0.000996981
0.000975829
0.000974519
0.0009543
0.000953386
0.00093404
0.000933486
0.000914956
0.000914727
0.000896959
0.000897025
0.000879968
0.000880302
0.00086391
0.000864486
0.000848714
0.000849509
0.000834315
0.000835309
0.000820652
0.000821826
0.00080767
0.000809007
0.000795316
0.000796799
0.00078354
0.000785156
0.000772296
0.000774031
0.000761542
0.000763384
0.000751237
0.000753174
0.000741345
0.000743367
0.000731832
0.000733931
0.000722666
0.000724837
0.000713815
0.000716054
0.000705248
0.00188333
0.00182301
0.00179914
0.00174264
0.00172154
0.0016685
0.00164989
0.00159999
0.00158361
0.00153657
0.00152219
0.00147779
0.0014652
0.00142324
0.00141224
0.00137255
0.001363
0.00132541
0.00131716
0.00128153
0.00127445
0.00124065
0.00123463
0.00120253
0.00119747
0.00116696
0.00116276
0.00113374
0.00113032
0.00110269
0.00109997
0.00107365
0.00107156
0.00104645
0.00104494
0.00102097
0.00101997
0.000997065
0.000996535
0.000974625
0.000974514
0.000953538
0.000953804
0.000933702
0.000934306
0.000915023
0.000915932
0.000897415
0.000898596
0.000880797
0.000882223
0.000865094
0.00086674
0.000850238
0.00085208
0.000836163
0.000838181
0.00082281
0.000824985
0.000810123
0.000812438
0.000798051
0.00080049
0.000786543
0.000789093
0.000775556
0.000778204
0.000765047
0.000767782
0.000754976
0.000757789
0.000745307
0.000748189
0.000736005
0.000738949
0.000727036
0.000730036
0.000718369
0.00072142
0.000709973
0.00186818
0.00180788
0.00178512
0.00172848
0.00170848
0.0016552
0.0016377
0.00158749
0.00157224
0.00152486
0.00151163
0.00146685
0.00145544
0.00141306
0.00140329
0.00136314
0.00135484
0.00131676
0.00130979
0.00127363
0.00126784
0.00123348
0.00122877
0.00119609
0.00119233
0.00116122
0.00115833
0.00112868
0.00112657
0.0010983
0.00109688
0.0010699
0.0010691
0.00104332
0.00104309
0.00101844
0.0010187
0.000995116
0.000995827
0.000973234
0.000974343
0.000952682
0.000954146
0.000933361
0.00093514
0.000915176
0.000917235
0.000898041
0.000900348
0.000881876
0.000884402
0.000866607
0.000869326
0.000852164
0.000855054
0.000838485
0.000841524
0.000825509
0.000828679
0.000813182
0.000816466
0.000801452
0.000804836
0.000790271
0.000793741
0.000779595
0.000783139
0.000769381
0.00077299
0.000759592
0.000763256
0.000750189
0.000753901
0.000741139
0.000744891
0.000732408
0.000736196
0.000723966
0.000727783
0.000715782
0.00185005
0.00178988
0.0017683
0.00171166
0.00169285
0.00163946
0.00162316
0.00157277
0.00155875
0.00151111
0.00149914
0.00145405
0.00144393
0.00140119
0.00139273
0.00135219
0.00134521
0.0013067
0.00130106
0.00126445
0.00126001
0.00122516
0.0012218
0.00118861
0.00118621
0.00115456
0.00115302
0.00112282
0.00112205
0.00109321
0.00109312
0.00106556
0.00106608
0.00103971
0.00104077
0.00101552
0.00101707
0.000992876
0.000994843
0.000971643
0.000973985
0.000951716
0.000954388
0.000932995
0.000935955
0.000915385
0.000918598
0.000898801
0.000902234
0.000883163
0.000886787
0.000868398
0.000872186
0.000854437
0.000858367
0.000841216
0.000845267
0.000828679
0.000832831
0.000816769
0.000821006
0.000805436
0.000809744
0.000794632
0.000798999
0.000784315
0.000788729
0.000774443
0.000778894
0.000764977
0.000769457
0.000755881
0.000760382
0.000747121
0.000751637
0.000738665
0.000743191
0.000730482
0.000735013
0.000722545
0.00182904
0.00176912
0.00174875
0.00169223
0.00167467
0.0016213
0.00160629
0.00155582
0.0015431
0.00149533
0.00148468
0.00143939
0.00143061
0.00138763
0.00138052
0.00133968
0.00133408
0.00129524
0.00129098
0.001254
0.00125094
0.0012157
0.00121372
0.00118011
0.00117909
0.00114699
0.00114683
0.00111616
0.00111675
0.00108743
0.00108869
0.00106063
0.00106248
0.0010356
0.00103798
0.00101221
0.00101505
0.00099033
0.000993562
0.000969833
0.000973413
0.000950613
0.000954494
0.00093257
0.000936711
0.00091561
0.000919974
0.000899648
0.000904201
0.000884605
0.000889317
0.000870408
0.000875252
0.000856988
0.000861942
0.000844285
0.000849326
0.000832238
0.00083735
0.000820796
0.000825961
0.000809908
0.000815112
0.000799528
0.000804759
0.000789611
0.000794859
0.00078012
0.000785374
0.000771014
0.000776267
0.00076226
0.000767505
0.000753823
0.000759054
0.000745674
0.000750885
0.000737782
0.00074297
0.00073012
0.00180524
0.00174568
0.00172656
0.0016703
0.00165403
0.0016008
0.00158711
0.00153671
0.00152534
0.00147754
0.00146827
0.00142289
0.0014155
0.00137238
0.00136668
0.00132564
0.00132145
0.00128237
0.00127954
0.00124228
0.00124065
0.0012051
0.00120454
0.00117058
0.00117097
0.00113852
0.00113975
0.00110871
0.00111068
0.00108096
0.00108358
0.0010551
0.0010583
0.001031
0.00103469
0.00100849
0.00101261
0.000987455
0.000991952
0.000967774
0.000972589
0.000949338
0.000954422
0.000932045
0.000937357
0.000915803
0.000921304
0.000900528
0.000906183
0.00088614
0.00089192
0.000872567
0.000878445
0.000859743
0.000865695
0.000847606
0.000853611
0.000836098
0.000842139
0.000825168
0.000831227
0.000814766
0.00082083
0.000804846
0.000810904
0.000795367
0.000801407
0.000786289
0.000792303
0.000777576
0.000783555
0.000769193
0.000775132
0.000761109
0.000767001
0.000753292
0.000759133
0.000745716
0.000751501
0.000738353
0.00177874
0.00171968
0.00170183
0.00164594
0.00163099
0.00157804
0.00156571
0.00151548
0.0015055
0.00145781
0.00144994
0.0014046
0.00139863
0.00135547
0.00135121
0.00131009
0.00130735
0.00126814
0.00126675
0.00122931
0.00122913
0.00119337
0.00119425
0.00116005
0.00116187
0.00112914
0.00113179
0.00110045
0.00110382
0.00107378
0.00107778
0.00104897
0.00105352
0.00102587
0.00103088
0.00100433
0.00100974
0.000984225
0.000989978
0.000965434
0.000971472
0.00094785
0.000954124
0.000931373
0.000937838
0.00091591
0.000922528
0.000901378
0.000908114
0.000887699
0.000894522
0.000874801
0.000881684
0.000862618
0.000869538
0.000851091
0.000858027
0.000840162
0.000847096
0.000829781
0.000836697
0.000819899
0.000826783
0.000810472
0.000817313
0.00080146
0.000808248
0.000792824
0.00079955
0.000784529
0.000791185
0.000776542
0.000783122
0.000768832
0.000775331
0.00076137
0.000767784
0.00075413
0.000760454
0.000747085
0.00174966
0.00169121
0.00167465
0.00161927
0.00160566
0.00155311
0.00154215
0.00149223
0.00148366
0.00143619
0.00142976
0.00138456
0.00138004
0.00133697
0.00133417
0.00129307
0.00129179
0.00125255
0.00125263
0.00121513
0.0012164
0.00118053
0.00118286
0.00114852
0.00115177
0.00111887
0.00112294
0.0010914
0.00109616
0.00106591
0.00107127
0.00104223
0.00104811
0.00102021
0.00102653
0.000999715
0.0010064
0.000980609
0.000987603
0.000962776
0.000970018
0.000946107
0.000953547
0.000930503
0.000938096
0.000915873
0.00092358
0.000902134
0.00090992
0.00088921
0.000897043
0.000877029
0.000884883
0.000865527
0.000873378
0.000854645
0.000862473
0.000844329
0.000852116
0.000834527
0.000842257
0.000825194
0.000832854
0.000816287
0.000823865
0.000807766
0.000815253
0.000799594
0.000806982
0.000791738
0.000799019
0.000784165
0.000791335
0.000776847
0.000783899
0.000769756
0.000776687
0.000762867
0.000769673
0.000756155
0.0017181
0.0016604
0.00164514
0.00159039
0.00157813
0.0015261
0.00151653
0.00146704
0.00145989
0.00141276
0.00140778
0.00136284
0.00135979
0.00131691
0.00131559
0.00127462
0.00127483
0.00123566
0.00123722
0.00119975
0.00120249
0.00116661
0.00117039
0.00113601
0.0011407
0.00110772
0.0011132
0.00108156
0.00108771
0.00105733
0.00106405
0.00103486
0.00104207
0.001014
0.00102162
0.000994619
0.00100256
0.000976578
0.000984788
0.000959761
0.00096818
0.000944062
0.000952639
0.000929383
0.000938072
0.000915633
0.000924394
0.00090273
0.000911528
0.000890598
0.000899404
0.00087917
0.000887955
0.000868382
0.000877123
0.000858176
0.000866852
0.000848498
0.000857093
0.000839301
0.000847799
0.000830539
0.000838927
0.000822171
0.000830439
0.000814159
0.000822297
0.000806468
0.000814468
0.000799065
0.000806922
0.000791921
0.000799628
0.000785008
0.000792561
0.0007783
0.000785696
0.000771772
0.000779008
0.000765404
0.00168419
0.00162735
0.00161341
0.0015594
0.0015485
0.00149712
0.00148895
0.00144
0.00143429
0.00138761
0.00138409
0.00133953
0.00133795
0.00129537
0.00129553
0.00125481
0.0012565
0.00121752
0.00122055
0.00118322
0.00118742
0.00115164
0.00115687
0.00112254
0.00112866
0.00109571
0.00110258
0.00107093
0.00107845
0.00104804
0.0010561
0.00102686
0.00103537
0.00100723
0.00101611
0.000989022
0.00099819
0.000972101
0.000981496
0.000956354
0.000965915
0.000941672
0.000951349
0.00092796
0.000937707
0.000915129
0.000924904
0.000903097
0.000912867
0.000891791
0.000901525
0.000881145
0.000890815
0.000871096
0.00088068
0.000861588
0.000871066
0.00085257
0.000861925
0.000843995
0.000853213
0.00083582
0.000844889
0.000828006
0.000836914
0.000820516
0.000829256
0.000813318
0.000821881
0.000806379
0.000814761
0.000799673
0.000807869
0.000793173
0.000801178
0.000786855
0.000794666
0.000780697
0.000788311
0.000774677
0.00164805
0.00159218
0.00157957
0.00152642
0.00151689
0.00146626
0.0014595
0.00141121
0.00140694
0.00136082
0.00135876
0.00131469
0.00131458
0.00127242
0.00127406
0.00123369
0.00123685
0.00119817
0.00120267
0.00116558
0.00117124
0.00113565
0.00114232
0.00110815
0.00111567
0.00108284
0.0010911
0.00105954
0.00106841
0.00103806
0.00104743
0.00101822
0.001028
0.000999883
0.00100999
0.000982902
0.000993259
0.000967152
0.000977692
0.000952518
0.000963181
0.000938894
0.000949628
0.000926185
0.000936944
0.000914304
0.000925048
0.000903171
0.000913866
0.000892717
0.00090333
0.000882874
0.000893381
0.000873583
0.000883962
0.000864791
0.000875021
0.000856447
0.000866513
0.000848508
0.000858396
0.000840931
0.00085063
0.000833681
0.00084318
0.000826721
0.000836014
0.000820022
0.0008291
0.000813554
0.000822413
0.000807291
0.000815927
0.000801208
0.000809617
0.000795284
0.000803464
0.000789498
0.000797445
0.000783831
0.00160981
0.00155503
0.00154375
0.00149156
0.00148341
0.00143364
0.00142829
0.00138077
0.00137793
0.00133249
0.00133188
0.00128841
0.00128977
0.00124814
0.00125124
0.00121133
0.00121596
0.00117768
0.00118363
0.00114689
0.00115398
0.0011187
0.00112677
0.00109286
0.00110177
0.00106916
0.00107876
0.0010474
0.00105757
0.00102738
0.00103803
0.00100895
0.00101996
0.00099195
0.00100325
0.000976243
0.000987746
0.000961705
0.000973345
0.00094822
0.000959938
0.000935686
0.000947429
0.000924008
0.000935731
0.000913103
0.000924765
0.000902892
0.000914459
0.000893306
0.000904749
0.000884283
0.000895576
0.000875764
0.000886885
0.000867698
0.00087863
0.000860039
0.000870765
0.000852742
0.000863251
0.00084577
0.00085605
0.000839088
0.00084913
0.000832663
0.00084246
0.000826466
0.000836012
0.00082047
0.000829761
0.000814651
0.000823683
0.000808987
0.000817758
0.000803458
0.000811964
0.000798044
0.000806284
0.000792729
0.00156961
0.00151602
0.00150606
0.00145496
0.00144817
0.00139937
0.00139542
0.00134877
0.00134736
0.00130271
0.00130354
0.00126077
0.00126359
0.00122259
0.00122714
0.0011878
0.00119387
0.0011561
0.00116348
0.00112719
0.0011357
0.00110081
0.00111027
0.00107671
0.00108697
0.00105468
0.0010656
0.00103451
0.00104597
0.00101602
0.0010279
0.000999043
0.00101125
0.000983425
0.000995865
0.000969031
0.000981631
0.000955738
0.000968428
0.000943432
0.000956152
0.000932012
0.000944711
0.000921388
0.00093402
0.000911476
0.000924001
0.000902201
0.000914587
0.000893497
0.000905714
0.000885303
0.000897327
0.000877564
0.000889375
0.000870231
0.000881811
0.000863259
0.000874594
0.000856609
0.000867687
0.000850243
0.000861054
0.00084413
0.000854666
0.000838239
0.000848494
0.000832543
0.000842513
0.000827019
0.000836698
0.000821643
0.000831029
0.000816395
0.000825486
0.000811258
0.000820052
0.000806214
0.00081471
0.000801248
0.00152759
0.00147529
0.00146665
0.00141672
0.00141129
0.00136356
0.00136101
0.00131533
0.00131533
0.00127157
0.00127384
0.00123188
0.00123613
0.00119586
0.00120185
0.00116317
0.00117067
0.0011335
0.00114228
0.00110654
0.00111643
0.00108204
0.00109285
0.00105975
0.00107132
0.00103944
0.00105163
0.00102092
0.0010336
0.00100399
0.00101706
0.000988507
0.00100185
0.000974306
0.000987836
0.000961256
0.000974897
0.000949233
0.000962916
0.000938127
0.000951793
0.000927841
0.000941438
0.000918284
0.000931767
0.000909376
0.000922708
0.000901047
0.000914194
0.000893231
0.000906166
0.000885871
0.000898571
0.000878914
0.00089136
0.000872315
0.00088449
0.000866032
0.000877923
0.000860026
0.000871623
0.000854265
0.000865558
0.000848718
0.000859701
0.000843358
0.000854026
0.00083816
0.000848508
0.000833102
0.000843128
0.000828164
0.000837865
0.000823328
0.000832703
0.000818579
0.000827626
0.0008139
0.000822619
0.000809279
0.0014839
0.00143297
0.00142564
0.00137697
0.0013729
0.00132633
0.00132516
0.00128055
0.00128196
0.00123918
0.00124286
0.0012018
0.00120747
0.00116803
0.00117543
0.00113752
0.0011464
0.00110994
0.0011201
0.00108501
0.00109623
0.00106244
0.00107455
0.001042
0.00105484
0.00102346
0.00103688
0.00100663
0.00102049
0.000991314
0.00100551
0.000977352
0.000991774
0.000964595
0.000979157
0.000952909
0.000967533
0.000942175
0.000956792
0.000932285
0.000946836
0.000923143
0.000937577
0.000914662
0.000928936
0.000906765
0.000920842
0.000899384
0.000913233
0.000892458
0.000906052
0.000885931
0.00089925
0.000879755
0.00089278
0.000873887
0.000886603
0.000868287
0.000880682
0.000862922
0.000874987
0.000857759
0.000869487
0.000852773
0.000864157
0.000847937
0.000858974
0.00084323
0.000853916
0.000838632
0.000848966
0.000834126
0.000844106
0.000829695
0.00083932
0.000825326
0.000834596
0.000821006
0.00082992
0.000816723
0.00143866
0.0013892
0.00138316
0.00133585
0.00133311
0.0012878
0.00128799
0.00124454
0.00124733
0.00120563
0.0012107
0.00117064
0.0011777
0.00113919
0.00114797
0.00111092
0.00112116
0.0010855
0.00109698
0.00106264
0.00107516
0.00104206
0.00105543
0.00102352
0.00103757
0.0010068
0.00102138
0.000991684
0.00100667
0.000978003
0.000993267
0.000965589
0.000981032
0.000954295
0.000969827
0.00094399
0.000959533
0.000934557
0.000950043
0.00092589
0.000941262
0.000917896
0.000933104
0.000910493
0.000925495
0.000903607
0.000918368
0.000897173
0.000911663
0.000891132
0.000905327
0.000885434
0.000899314
0.000880033
0.000893581
0.000874889
0.000888092
0.000869966
0.000882813
0.000865232
0.000877716
0.00086066
0.000872775
0.000856225
0.000867966
0.000851905
0.000863269
0.00084768
0.000858665
0.000843534
0.000854139
0.00083945
0.000849674
0.000835416
0.00084526
0.00083142
0.000840883
0.00082745
0.000836533
0.000823497
0.00139204
0.00134411
0.00133935
0.00129347
0.00129205
0.00124807
0.00124961
0.00120741
0.00121156
0.00117103
0.00117747
0.0011385
0.00114691
0.00110942
0.00111954
0.00108345
0.00109501
0.00106024
0.00107301
0.0010395
0.00105327
0.00102095
0.00103553
0.00100435
0.00101956
0.00098947
0.00100516
0.000976107
0.00099215
0.000964083
0.000980355
0.000953234
0.000969633
0.000943415
0.000959852
0.000934499
0.000950895
0.000926371
0.000942661
0.000918929
0.000935056
0.000912083
0.000928
0.000905756
0.000921421
0.000899875
0.000915257
0.000894381
0.00090945
0.000889218
0.000903954
0.00088434
0.000898722
0.000879704
0.000893719
0.000875273
0.00088891
0.000871016
0.000884265
0.000866903
0.000879758
0.000862911
0.000875367
0.000859016
0.000871071
0.000855201
0.000866852
0.000851448
0.000862694
0.000847743
0.000858584
0.000844072
0.000854509
0.000840425
0.000850458
0.000836791
0.000846421
0.000833163
0.000842392
0.000829531
0.00134416
0.00129784
0.00129434
0.00124997
0.00124984
0.00120728
0.00121014
0.00116928
0.00117476
0.00113548
0.00114325
0.00110546
0.0011152
0.00107882
0.00109024
0.00105519
0.00106803
0.00103424
0.00104825
0.00101566
0.00103063
0.000999178
0.00101491
0.000984543
0.00100086
0.000971529
0.000988274
0.000959935
0.000976974
0.00094958
0.000966795
0.000940305
0.000957593
0.000931968
0.00094924
0.000924442
0.000941623
0.000917618
0.000934642
0.000911396
0.00092821
0.000905693
0.00092225
0.000900432
0.000916695
0.000895547
0.000911485
0.000890982
0.000906569
0.000886685
0.000901901
0.000882614
0.000897442
0.00087873
0.000893158
0.000875
0.000889018
0.000871396
0.000884996
0.000867891
0.000881069
0.000864465
0.000877218
0.000861099
0.000873424
0.000857776
0.000869674
0.000854483
0.000865953
0.000851207
0.00086225
0.000847937
0.000858556
0.000844666
0.000854861
0.000841385
0.000851158
0.000838087
0.000847441
0.000834768
0.00129517
0.00125052
0.00124825
0.00120546
0.00120661
0.00116554
0.00116969
0.00113024
0.00113703
0.00109908
0.00110815
0.00107162
0.00108265
0.00104746
0.00106015
0.00102622
0.00104029
0.00100756
0.00102277
0.000991183
0.0010073
0.000976794
0.000993619
0.000964147
0.000981503
0.000953017
0.000970747
0.000943202
0.00096117
0.000934525
0.000952612
0.000926826
0.000944932
0.000919968
0.000938005
0.000913829
0.000931722
0.000908301
0.000925989
0.000903291
0.000920722
0.000898718
0.000915848
0.00089451
0.000911305
0.000890608
0.000907037
0.000886957
0.000902998
0.000883511
0.000899147
0.000880232
0.000895447
0.000877085
0.000891869
0.00087404
0.000888385
0.000871072
0.000884974
0.000868161
0.000881615
0.000865286
0.000878292
0.000862434
0.00087499
0.00085959
0.000871697
0.000856743
0.000868402
0.000853883
0.000865097
0.000851003
0.000861774
0.000848096
0.000858427
0.000845156
0.000855049
0.000842179
0.000851637
0.000839161
0.0012452
0.00120228
0.00120123
0.00116008
0.00116247
0.00112296
0.00112838
0.00109041
0.00109847
0.00106193
0.00107227
0.00103708
0.00104936
0.00101544
0.00102935
0.000996625
0.00101188
0.000980296
0.000996643
0.000966136
0.00098334
0.00095386
0.000971718
0.000943217
0.000961548
0.00093398
0.000952627
0.000925949
0.000944775
0.000918948
0.000937837
0.000912822
0.000931673
0.000907436
0.000926165
0.000902672
0.000921207
0.000898428
0.000916709
0.000894615
0.000912593
0.000891156
0.000908791
0.000887986
0.000905244
0.000885048
0.000901904
0.000882293
0.000898727
0.00087968
0.000895676
0.000877175
0.00089272
0.000874746
0.000889832
0.000872368
0.00088699
0.000870021
0.000884175
0.000867685
0.00088137
0.000865346
0.000878562
0.000862992
0.000875739
0.000860612
0.000872892
0.000858197
0.000870013
0.00085574
0.000867095
0.000853237
0.000864133
0.000850681
0.000861124
0.000848071
0.000858063
0.000845404
0.000854949
0.000842677
0.0011944
0.00115325
0.00115339
0.00111393
0.00111755
0.00107966
0.00108632
0.00104989
0.0010592
0.00102413
0.00103572
0.00100193
0.00101542
0.00098284
0.000997933
0.000966485
0.000982879
0.000952508
0.000969938
0.000940588
0.00095882
0.000930439
0.000949265
0.000921806
0.000941045
0.000914464
0.000933958
0.000908215
0.000927828
0.000902884
0.000922501
0.00089832
0.000917843
0.000894393
0.00091374
0.000890989
0.000910092
0.000888011
0.000906813
0.000885376
0.00090383
0.000883012
0.000901082
0.000880858
0.000898514
0.000878863
0.000896083
0.000876984
0.000893748
0.000875183
0.00089148
0.000873431
0.00088925
0.0008717
0.000887036
0.000869971
0.000884819
0.000868224
0.000882584
0.000866447
0.000880318
0.000864627
0.00087801
0.000862754
0.000875653
0.000860822
0.000873239
0.000858824
0.000870763
0.000856756
0.000868221
0.000854616
0.000865611
0.0008524
0.00086293
0.000850108
0.000860177
0.000847738
0.000857352
0.000845292
0.0011429
0.00110356
0.00110487
0.00106715
0.00107196
0.00103574
0.00104362
0.0010088
0.00101932
0.000985795
0.000998577
0.000966262
0.000980932
0.000949759
0.000965983
0.000935885
0.00095336
0.000924276
0.000942733
0.000914609
0.000933807
0.000906593
0.000926322
0.000899972
0.000920049
0.000894521
0.000914789
0.000890044
0.000910369
0.00088637
0.00090664
0.000883352
0.000903472
0.000880865
0.000900756
0.000878801
0.000898398
0.000877067
0.000896317
0.000875587
0.000894447
0.000874293
0.000892731
0.000873132
0.00089112
0.000872057
0.000889575
0.000871029
0.000888063
0.000870018
0.000886557
0.000868995
0.000885033
0.000867942
0.000883474
0.000866839
0.000881864
0.000865674
0.000880192
0.000864435
0.000878449
0.000863115
0.000876626
0.000861707
0.00087472
0.000860207
0.000872726
0.000858611
0.000870641
0.000856918
0.000868464
0.000855126
0.000866195
0.000853237
0.000863833
0.000851251
0.000861378
0.000849169
0.000858833
0.000846992
0.00109082
0.00105332
0.00105577
0.00101984
0.00102582
0.000991326
0.00100039
0.000967228
0.00097894
0.00094701
0.000960955
0.000930179
0.000945979
0.000916282
0.000933589
0.000904906
0.000923409
0.000895679
0.000915102
0.000888271
0.000908369
0.000882387
0.000902949
0.000877772
0.000898615
0.000874201
0.000895169
0.00087148
0.000892443
0.000869445
0.000890292
0.000867952
0.000888593
0.000866881
0.000887241
0.000866131
0.000886148
0.000865615
0.000885241
0.000865262
0.000884459
0.000865013
0.000883749
0.000864817
0.000883071
0.000864635
0.00088239
0.000864434
0.000881677
0.000864186
0.000880911
0.00086387
0.000880072
0.00086347
0.000879147
0.000862972
0.000878125
0.000862367
0.000876998
0.000861647
0.000875761
0.000860808
0.000874408
0.000859847
0.000872938
0.000858762
0.00087135
0.000857552
0.000869643
0.000856218
0.000867819
0.000854763
0.000865879
0.000853188
0.000863825
0.000851495
0.000861661
0.000849689
0.000859388
0.000847772
0.00103829
0.00100266
0.00100622
0.000972111
0.000979243
0.000946515
0.000956741
0.000925289
0.000938151
0.000907878
0.00092295
0.000893771
0.000910657
0.000882498
0.000900839
0.000873632
0.000893109
0.000866793
0.000887121
0.000861643
0.000882576
0.000857886
0.000879211
0.000855264
0.0008768
0.000853555
0.00087515
0.000852571
0.000874096
0.00085215
0.000873498
0.000852154
0.000873241
0.000852472
0.000873225
0.000853006
0.00087337
0.000853678
0.000873608
0.000854423
0.000873885
0.000855187
0.000874156
0.000855928
0.000874384
0.00085661
0.00087454
0.000857207
0.000874601
0.000857696
0.000874551
0.000858061
0.000874374
0.00085829
0.000874063
0.000858375
0.000873609
0.000858308
0.000873008
0.000858086
0.000872258
0.000857709
0.000871358
0.000857176
0.000870309
0.000856488
0.000869112
0.000855649
0.000867771
0.00085466
0.000866287
0.000853526
0.000864666
0.000852252
0.00086291
0.000850842
0.000861026
0.0008493
0.000859016
0.000847633
0.000985419
0.000951694
0.000956338
0.000924081
0.000932332
0.000901414
0.00091277
0.000883079
0.000897061
0.000868497
0.000884658
0.000857132
0.000875061
0.000848496
0.000867821
0.000842148
0.00086254
0.000837697
0.000858868
0.000834799
0.000856499
0.000833155
0.000855172
0.000832508
0.000854663
0.000832639
0.000854783
0.000833364
0.000855373
0.000834527
0.0008563
0.000835997
0.000857453
0.000837669
0.000858742
0.000839454
0.000860093
0.00084128
0.000861445
0.00084309
0.000862751
0.000844835
0.000863971
0.000846481
0.000865076
0.000847997
0.000866042
0.000849363
0.000866851
0.000850562
0.000867491
0.000851581
0.000867954
0.000852414
0.000868233
0.000853057
0.000868325
0.000853505
0.000868231
0.000853761
0.000867951
0.000853826
0.000867486
0.000853702
0.000866842
0.000853395
0.000866022
0.000852909
0.000865032
0.00085225
0.000863877
0.000851424
0.000862562
0.000850438
0.000861095
0.000849298
0.000859481
0.00084801
0.000857727
0.000846583
0.00093233
0.000900521
0.000906222
0.00087585
0.000885194
0.000856125
0.000868584
0.000840698
0.000855769
0.000828962
0.000846176
0.000820355
0.000839282
0.000814366
0.000834623
0.000810538
0.000831788
0.00080847
0.000830419
0.000807811
0.000830209
0.000808261
0.000830898
0.000809564
0.000832264
0.000811506
0.000834124
0.000813907
0.000836324
0.000816619
0.00083874
0.00081952
0.000841269
0.000822509
0.000843828
0.000825508
0.000846349
0.000828451
0.000848781
0.000831289
0.000851082
0.000833981
0.000853219
0.000836497
0.00085517
0.000838816
0.000856916
0.00084092
0.000858446
0.000842799
0.000859751
0.000844446
0.000860828
0.000845857
0.000861674
0.000847033
0.000862292
0.000847975
0.000862684
0.000848686
0.000862854
0.000849172
0.000862808
0.00084944
0.000862552
0.000849495
0.000862094
0.000849346
0.000861442
0.000849002
0.000860602
0.000848469
0.000859583
0.000847758
0.000858393
0.000846877
0.000857041
0.000845833
0.000855534
0.000844635
0.000879128
0.000849248
0.00085598
0.000827518
0.000837933
0.000810745
0.000824283
0.000798244
0.000814374
0.000789371
0.0008076
0.000783534
0.000803415
0.000780197
0.000801334
0.000778887
0.000800934
0.00077919
0.000801852
0.000780752
0.000803778
0.000783271
0.000806453
0.000786494
0.000809661
0.000790212
0.000813225
0.000794251
0.000816999
0.000798472
0.000820865
0.000802761
0.00082473
0.000807027
0.000828519
0.000811198
0.000832172
0.000815219
0.000835646
0.000819047
0.000838906
0.000822648
0.000841927
0.000826001
0.000844691
0.000829088
0.000847187
0.0008319
0.000849408
0.000834429
0.000851352
0.000836675
0.000853017
0.000838639
0.000854408
0.000840324
0.000855528
0.000841735
0.000856386
0.00084288
0.000856987
0.000843768
0.000857342
0.000844406
0.000857459
0.000844806
0.000857347
0.000844978
0.000857018
0.000844932
0.00085648
0.00084468
0.000855746
0.000844231
0.000854823
0.000843596
0.000853722
0.000842785
0.000852454
0.000841808
0.000825917
0.000797974
0.000805714
0.000779184
0.000790646
0.000765374
0.000779966
0.000755814
0.000772974
0.000749819
0.000769027
0.000746761
0.000767552
0.000746078
0.000768042
0.000747279
0.000770063
0.000749938
0.000773245
0.000753697
0.000777278
0.000758253
0.000781905
0.000763359
0.000786917
0.000768811
0.000792143
0.000774445
0.000797447
0.000780131
0.00080272
0.000785762
0.000807877
0.00079126
0.000812853
0.00079656
0.000817597
0.000801616
0.000822073
0.000806392
0.000826255
0.000810865
0.000830123
0.000815017
0.000833668
0.000818838
0.000836882
0.000822325
0.000839765
0.000825475
0.000842318
0.000828292
0.000844547
0.000830782
0.000846458
0.000832951
0.000848059
0.000834809
0.000849362
0.000836367
0.000850375
0.000837635
0.000851112
0.000838626
0.000851584
0.000839353
0.000851804
0.000839828
0.000851783
0.000840065
0.000851535
0.000840077
0.000851072
0.000839876
0.000850406
0.000839476
0.000849548
0.000838888
0.000848509
0.000838123
0.000772794
0.000746794
0.000755518
0.000730939
0.000743431
0.000720104
0.000735731
0.000713502
0.000731666
0.000710401
0.000730553
0.000710131
0.000731786
0.000712102
0.000734838
0.000715802
0.00073926
0.000720795
0.000744678
0.000726719
0.000750782
0.000733275
0.000757321
0.00074022
0.000764092
0.00074736
0.000770933
0.000754541
0.000777719
0.00076164
0.00078435
0.000768565
0.000790752
0.000775245
0.000796869
0.000781627
0.00080266