/*--------------------------------*- C++ -*----------------------------------*\
| =========                 |                                                 |
| \\      /  F ield         | OpenFOAM: The Open Source CFD Toolbox           |
|  \\    /   O peration     | Version:  v2012                                 |
|   \\  /    A nd           | Website:  www.openfoam.com                      |
|    \\/     M anipulation  |                                                 |
\*---------------------------------------------------------------------------*/
FoamFile
{
    version     2.0;
    format      ascii;
    class       volSymmTensorField;
    location    "3";
    object      epsilon;
}
// * * * * * * * * * * * * * * * * * * * * * * * * * * * * * * * * * * * * * //

dimensions      [0 0 0 0 0 0 0];


internalField   nonuniform List<symmTensor> 
32000
(
(0.00227618 -1.26892e-05 2.37232e-15 -0.000970817 -3.95463e-15 0)
(0.00218837 -7.25057e-05 2.57913e-15 -0.00094577 2.22478e-16 0)
(0.0021897 -4.39969e-06 1.85934e-16 -0.000906329 -2.20201e-15 0)
(0.00210517 -6.53531e-05 2.57581e-15 -0.000889943 5.45787e-16 0)
(0.00210647 1.03778e-06 2.3569e-15 -0.000848106 -3.40439e-17 0)
(0.00202678 -5.88104e-05 2.43576e-15 -0.000837653 1.52829e-15 0)
(0.00202802 4.5411e-06 5.82488e-17 -0.000795766 2.00165e-15 0)
(0.00195337 -5.32212e-05 -9.45248e-16 -0.000789001 2.93298e-15 0)
(0.00195454 6.84871e-06 -9.90107e-16 -0.000748525 2.87574e-15 0)
(0.00188471 -4.84255e-05 4.18224e-16 -0.000744013 3.17368e-15 0)
(0.00188583 8.42704e-06 1.39729e-15 -0.000705691 3.03598e-15 0)
(0.00182052 -4.42394e-05 9.57689e-16 -0.000702566 4.1423e-15 0)
(0.00182157 9.55473e-06 -4.4621e-16 -0.000666713 4.23056e-15 0)
(0.00176045 -4.05246e-05 9.12587e-16 -0.00066446 4.72474e-15 0)
(0.00176145 1.03965e-05 1.34295e-15 -0.000631151 3.60822e-15 0)
(0.0017042 -3.71845e-05 1.86141e-15 -0.000629462 3.66569e-15 0)
(0.00170515 1.10504e-05 4.97222e-16 -0.000598645 2.95922e-15 0)
(0.00165148 -3.41519e-05 6.74635e-16 -0.000597335 2.52446e-15 0)
(0.00165238 1.15758e-05 1.69539e-16 -0.000568896 1.34961e-15 0)
(0.00160202 -3.1379e-05 -2.76987e-16 -0.000567848 1.1382e-15 0)
(0.00160286 1.20094e-05 -4.41264e-16 -0.000541645 3.21141e-16 0)
(0.00155555 -2.88307e-05 -1.87486e-15 -0.000540788 1.10437e-15 0)
(0.00155636 1.23747e-05 -1.40556e-15 -0.00051667 6.83915e-16 0)
(0.00151187 -2.64801e-05 -1.07373e-15 -0.000515955 2.50733e-15 0)
(0.00151264 1.2687e-05 3.42252e-16 -0.000493772 2.94946e-15 0)
(0.00147076 -2.43058e-05 8.37099e-16 -0.000493169 3.42044e-15 0)
(0.00147149 1.29571e-05 4.8249e-16 -0.000472776 2.95727e-15 0)
(0.00143203 -2.22906e-05 1.30423e-15 -0.000472262 2.35987e-15 0)
(0.00143273 1.31923e-05 8.01751e-16 -0.000453523 2.20744e-15 0)
(0.00139551 -2.04197e-05 1.78227e-15 -0.000453083 1.59746e-15 0)
(0.00139617 1.33984e-05 9.53319e-16 -0.000435872 1.31991e-15 0)
(0.00136103 -1.86808e-05 2.30267e-15 -0.000435492 5.12611e-16 0)
(0.00136166 1.35795e-05 1.31292e-15 -0.000419692 7.12538e-16 0)
(0.00132845 -1.70629e-05 1.51335e-15 -0.000419364 -4.25875e-16 0)
(0.00132905 1.3739e-05 1.79507e-16 -0.000404865 -7.14923e-16 0)
(0.00129763 -1.55564e-05 3.55103e-16 -0.000404583 -1.68724e-15 0)
(0.00129821 1.38798e-05 1.69881e-16 -0.000391285 -7.72386e-16 0)
(0.00126845 -1.41529e-05 5.38574e-16 -0.000391042 -5.39282e-16 0)
(0.001269 1.40042e-05 3.59294e-16 -0.000378854 -3.66677e-16 0)
(0.00124079 -1.28447e-05 5.42653e-16 -0.000378643 -8.25078e-16 0)
(0.00124132 1.41141e-05 1.74668e-16 -0.00036748 -1.11087e-15 0)
(0.00121455 -1.1625e-05 -1.13011e-16 -0.000367299 -8.18573e-16 0)
(0.00121505 1.42113e-05 -2.84525e-16 -0.000357082 -8.38522e-16 0)
(0.00118962 -1.04875e-05 -6.52564e-16 -0.000356925 -7.906e-16 0)
(0.0011901 1.42973e-05 -3.56323e-16 -0.000347583 -4.12214e-16 0)
(0.00116591 -9.4265e-06 1.43711e-16 -0.000347448 -5.57497e-16 0)
(0.00116638 1.43734e-05 4.95223e-16 -0.000338913 4.40186e-17 0)
(0.00114334 -8.43689e-06 8.27538e-16 -0.000338797 -2.42861e-16 0)
(0.00114379 1.44409e-05 3.17502e-16 -0.000331008 -1.91687e-16 0)
(0.00112183 -7.51392e-06 2.33669e-16 -0.000330907 -5.68772e-16 0)
(0.00112226 1.45008e-05 -8.71868e-17 -0.000323808 -3.44993e-16 0)
(0.0011013 -6.65321e-06 -4.54681e-16 -0.00032372 -5.05889e-16 0)
(0.00110171 1.45543e-05 -3.58037e-16 -0.000317258 -2.05565e-16 0)
(0.00108169 -5.85072e-06 -2.59765e-16 -0.00031718 -7.46582e-16 0)
(0.00108209 1.46023e-05 1.02173e-16 -0.000311308 -3.28513e-16 0)
(0.00106292 -5.10264e-06 2.10179e-16 -0.000311236 -7.1926e-16 0)
(0.00106331 1.46458e-05 1.03795e-16 -0.000305909 -2.51752e-16 0)
(0.00104495 -4.40539e-06 5.90314e-16 -0.000305841 -2.13371e-16 0)
(0.00104533 1.46859e-05 4.73471e-16 -0.00030102 2.38524e-18 0)
(0.00102771 -3.75548e-06 6.18182e-16 -0.000300951 -2.66714e-16 0)
(0.00102808 1.47236e-05 1.32693e-16 -0.000296598 -3.39572e-16 0)
(0.00101116 -3.14948e-06 3.77272e-16 -0.000296525 -3.73182e-16 0)
(0.00101151 1.47602e-05 2.36285e-16 -0.000292608 -5.22585e-17 0)
(0.000995233 -2.58391e-06 6.54279e-16 -0.000292523 7.09068e-17 0)
(0.000995574 1.47972e-05 4.03354e-16 -0.000289015 -1.21431e-17 0)
(0.000979894 -2.05505e-06 9.55226e-16 -0.000288911 -4.10479e-16 0)
(0.000980225 1.48366e-05 5.30385e-16 -0.000285788 -1.02392e-15 0)
(0.000965095 -1.55887e-06 -3.13948e-16 -0.000285654 -9.64723e-16 0)
(0.000965417 1.4881e-05 -8.3368e-16 -0.0002829 -6.95624e-16 0)
(0.000950794 -1.09086e-06 -9.49043e-16 -0.00028272 1.25984e-16 0)
(0.000951109 1.49339e-05 -9.54606e-17 -0.000280325 3.46728e-16 0)
(0.000936951 -6.45998e-07 -3.02696e-16 -0.000280076 5.12177e-16 0)
(0.000937258 1.50003e-05 -1.99876e-16 -0.000278042 2.8276e-16 0)
(0.000923523 -2.19241e-07 -1.07885e-15 -0.00027769 2.36573e-16 0)
(0.000923824 1.50875e-05 -8.51543e-16 -0.000276032 -7.69784e-17 0)
(0.000910463 1.92451e-07 -1.10401e-15 -0.000275527 -4.33681e-18 0)
(0.000910757 1.5206e-05 -2.27259e-16 -0.000274275 -3.92481e-17 0)
(0.000897704 5.82989e-07 -6.31744e-16 -0.000273544 2.2443e-16 0)
(0.000897994 1.53714e-05 -3.88432e-16 -0.00027275 1.64799e-17 0)
(0.00088513 9.13551e-07 -5.12926e-16 -0.000271682 2.62811e-16 0)
(0.00227125 -6.03627e-05 2.5842e-16 -0.000946279 4.32087e-15 0)
(0.00217731 -0.00012695 -3.83824e-15 -0.000937289 3.90801e-15 0)
(0.00218151 -5.48479e-05 9.11773e-16 -0.000890385 2.498e-15 0)
(0.00209483 -0.000116695 6.37402e-16 -0.000880867 1.48687e-15 0)
(0.00209884 -4.79638e-05 2.3945e-15 -0.000838107 1.08171e-15 0)
(0.00201779 -0.000106552 8.41354e-16 -0.000829215 2.03635e-15 0)
(0.00202161 -4.11382e-05 -1.14329e-16 -0.000789502 3.40461e-15 0)
(0.00194567 -9.69088e-05 -4.6683e-16 -0.000781657 3.39811e-15 0)
(0.00194929 -3.47953e-05 1.00831e-16 -0.000744573 3.21683e-15 0)
(0.0018781 -8.79284e-05 -3.04295e-16 -0.000737816 3.69431e-15 0)
(0.00188154 -2.90297e-05 -4.07064e-16 -0.000703187 4.74295e-15 0)
(0.0018148 -7.96397e-05 3.88863e-16 -0.000697412 4.79499e-15 0)
(0.00181806 -2.38231e-05 3.09338e-15 -0.000665138 4.68072e-15 0)
(0.00175547 -7.20142e-05 3.67912e-15 -0.000660203 3.85803e-15 0)
(0.00175856 -1.91226e-05 1.98828e-15 -0.000630192 3.96146e-15 0)
(0.00169983 -6.50021e-05 1.15683e-15 -0.000625958 3.10602e-15 0)
(0.00170276 -1.48695e-05 1.2039e-15 -0.000598112 2.38199e-15 0)
(0.00164762 -5.8549e-05 -1.02098e-16 -0.000594459 2.05088e-15 0)
(0.0016504 -1.10091e-05 -1.0661e-15 -0.000568667 1.97802e-15 0)
(0.00159859 -5.26026e-05 -2.0492e-15 -0.000565499 2.17036e-15 0)
(0.00160123 -7.49417e-06 -2.66393e-15 -0.000541643 2.08861e-15 0)
(0.00155251 -4.71151e-05 -2.0965e-15 -0.000538881 1.98517e-15 0)
(0.00155502 -4.28425e-06 -9.72265e-16 -0.000516844 2.80136e-15 0)
(0.00150916 -4.20439e-05 2.04094e-15 -0.000514425 2.2456e-15 0)
(0.00151154 -1.34537e-06 2.39689e-15 -0.000494086 2.43143e-15 0)
(0.00146834 -3.73513e-05 2.69435e-15 -0.00049196 1.52157e-15 0)
(0.00147061 1.35132e-06 1.92446e-15 -0.000473205 1.93769e-15 0)
(0.00142988 -3.30038e-05 1.96448e-15 -0.00047133 1.73559e-15 0)
(0.00143203 3.8304e-06 2.30519e-15 -0.000454049 1.55778e-15 0)
(0.00139359 -2.89719e-05 1.14162e-15 -0.000452392 1.68637e-15 0)
(0.00139564 6.11304e-06 1.96441e-15 -0.00043648 9.17018e-16 0)
(0.00135933 -2.52292e-05 1.73734e-15 -0.000435012 7.59375e-16 0)
(0.00136128 8.21758e-06 2.27027e-15 -0.00042037 -7.76722e-16 0)
(0.00132694 -2.17522e-05 1.3825e-15 -0.000419069 -1.07856e-15 0)
(0.00132881 1.01601e-05 7.88872e-16 -0.000405605 -1.68897e-15 0)
(0.0012963 -1.85198e-05 1.36498e-15 -0.00040445 -1.18308e-15 0)
(0.00129809 1.19548e-05 1.27876e-15 -0.000392078 -9.47159e-16 0)
(0.00126728 -1.55132e-05 1.15169e-15 -0.000391052 -8.59339e-16 0)
(0.00126899 1.36142e-05 5.8345e-16 -0.000379693 -9.02273e-16 0)
(0.00123977 -1.27153e-05 4.77252e-17 -0.00037878 -1.18829e-15 0)
(0.00124141 1.51496e-05 -2.74689e-16 -0.000368361 -8.18356e-16 0)
(0.00121367 -1.01105e-05 -6.5601e-16 -0.000367548 -1.03736e-15 0)
(0.00121523 1.65711e-05 -8.52976e-16 -0.000357998 -9.86624e-16 0)
(0.00118886 -7.68483e-06 -4.79976e-16 -0.000357273 -1.07379e-15 0)
(0.00119036 1.78877e-05 2.17945e-16 -0.00034853 -1.01264e-15 0)
(0.00116527 -5.42556e-06 1.15299e-15 -0.000347882 -5.28223e-16 0)
(0.00116671 1.91077e-05 1.39429e-15 -0.000339888 -3.5345e-16 0)
(0.00114281 -3.32105e-06 1.06526e-15 -0.000339306 4.00721e-16 0)
(0.00114419 2.02386e-05 4.04848e-16 -0.000332006 1.22732e-16 0)
(0.0011214 -1.36065e-06 8.38332e-16 -0.000331483 7.23163e-16 0)
(0.00112272 2.12871e-05 2.84305e-16 -0.000324826 -1.49186e-16 0)
(0.00110096 4.65351e-07 6.09037e-16 -0.000324352 5.14562e-16 0)
(0.00110224 2.22596e-05 -4.97852e-17 -0.000318292 -3.96384e-16 0)
(0.00108143 2.16588e-06 7.43695e-16 -0.00031786 2.87747e-16 0)
(0.00108266 2.31617e-05 6.26161e-16 -0.000312354 -4.65773e-16 0)
(0.00106275 3.74914e-06 1.10918e-15 -0.000311957 -3.17454e-16 0)
(0.00106393 2.39988e-05 1.15714e-15 -0.000306964 -5.3191e-16 0)
(0.00104484 5.22267e-06 1.5783e-15 -0.000306594 -2.35922e-16 0)
(0.00104599 2.47757e-05 1.13342e-15 -0.000302079 -1.82146e-16 0)
(0.00102767 6.59343e-06 1.18398e-15 -0.000301729 -5.61834e-16 0)
(0.00102878 2.54971e-05 8.92542e-16 -0.000297656 -6.7394e-16 0)
(0.00101117 7.86784e-06 9.2662e-16 -0.00029732 -4.31729e-16 0)
(0.00101225 2.61671e-05 8.14053e-16 -0.000293659 -4.11997e-18 0)
(0.000995296 9.05177e-06 8.64021e-16 -0.000293329 8.43509e-17 0)
(0.000996338 2.67898e-05 1.24406e-15 -0.000290051 -2.40259e-16 0)
(0.000979997 1.01505e-05 1.14236e-15 -0.00028972 -5.09575e-16 0)
(0.000981009 2.73689e-05 1.94479e-18 -0.000286797 -6.28404e-16 0)
(0.000965229 1.11688e-05 -8.39125e-16 -0.000286458 -4.17201e-16 0)
(0.000966213 2.79073e-05 -1.26512e-15 -0.000283865 5.7029e-17 0)
(0.000950949 1.21104e-05 -5.05577e-16 -0.000283511 7.7412e-17 0)
(0.000951907 2.84072e-05 -3.91112e-16 -0.000281223 3.1572e-16 0)
(0.000937115 1.29776e-05 -7.45348e-16 -0.000280848 4.33681e-19 0)
(0.00093805 2.8868e-05 -1.51807e-15 -0.000278838 1.58077e-16 0)
(0.000923688 1.37706e-05 -1.31302e-15 -0.000278439 -2.88398e-17 0)
(0.0009246 2.92833e-05 -1.11594e-15 -0.000276675 1.21431e-16 0)
(0.000910633 1.44861e-05 -6.63166e-16 -0.000276259 1.75641e-16 0)
(0.000911523 2.96299e-05 -1.0463e-15 -0.00027469 3.05094e-16 0)
(0.000897937 1.51175e-05 -9.85709e-16 -0.000274292 3.70797e-17 0)
(0.000898803 2.98384e-05 -6.8195e-16 -0.000272823 2.02529e-16 0)
(0.000885665 1.56645e-05 -4.44374e-16 -0.000272552 9.32414e-17 0)
(0.00226186 -0.000118476 -4.42493e-15 -0.000938085 5.22358e-15 0)
(0.0021645 -0.000183862 -2.98807e-15 -0.00092728 5.52162e-15 0)
(0.00217194 -0.000107018 -2.65085e-15 -0.000881747 3.17606e-15 0)
(0.00208227 -0.000167867 -3.77189e-15 -0.000871305 3.23873e-15 0)
(0.00208926 -9.56816e-05 -1.97315e-15 -0.00083018 2.48228e-15 0)
(0.00200591 -0.000152906 -3.17885e-15 -0.000820248 2.90154e-15 0)
(0.00201252 -8.47518e-05 -6.83671e-16 -0.000782716 2.45181e-15 0)
(0.00193469 -0.000138887 -4.53342e-15 -0.000773476 1.09114e-15 0)
(0.00194094 -7.4427e-05 -4.65941e-15 -0.000738974 2.5379e-15 0)
(0.00186811 -0.000125804 -7.12694e-15 -0.000730524 1.62479e-15 0)
(0.00187403 -6.47943e-05 -1.90669e-15 -0.00069867 2.86641e-15 0)
(0.00180577 -0.000113638 -2.41871e-15 -0.00069103 1.38236e-15 0)
(0.00181138 -5.58702e-05 5.13261e-16 -0.000661558 2.53226e-15 0)
(0.00174735 -0.000102354 -1.31343e-15 -0.000654697 1.4743e-15 0)
(0.00175266 -4.76332e-05 1.06668e-15 -0.000627405 1.97824e-15 0)
(0.00169254 -9.19004e-05 1.13942e-15 -0.000621269 1.12345e-15 0)
(0.00169758 -4.00433e-05 -6.93347e-17 -0.000595991 1.93855e-15 0)
(0.00164109 -8.22225e-05 1.04951e-16 -0.000590514 7.5287e-16 0)
(0.00164587 -3.30532e-05 -9.18699e-16 -0.000567108 1.07466e-15 0)
(0.00159275 -7.32628e-05 5.68935e-16 -0.000562223 -2.76905e-16 0)
(0.00159728 -2.66144e-05 -3.92075e-17 -0.000540561 7.47883e-16 0)
(0.00154729 -6.49655e-05 2.02717e-15 -0.000536206 3.26128e-16 0)
(0.00155159 -2.06801e-05 2.92384e-15 -0.000516169 1.03888e-15 0)
(0.0015045 -5.72777e-05 3.16382e-15 -0.000512285 1.04387e-15 0)
(0.00150859 -1.52068e-05 2.56674e-15 -0.000493762 1.36002e-15 0)
(0.0014642 -5.01506e-05 9.4991e-16 -0.000490297 2.70422e-15 0)
(0.00146809 -1.01545e-05 1.13706e-15 -0.000473185 2.64914e-15 0)
(0.0014262 -4.3539e-05 1.39609e-15 -0.000470093 3.3864e-15 0)
(0.0014299 -5.48702e-06 1.07573e-15 -0.000454294 2.57346e-15 0)
(0.00139034 -3.74019e-05 1.04083e-15 -0.000451533 2.68774e-15 0)
(0.00139386 -1.17164e-06 8.92949e-16 -0.000436956 1.62218e-15 0)
(0.00135646 -3.17018e-05 1.79757e-15 -0.000434491 9.49761e-16 0)
(0.00135982 2.82115e-06 1.76019e-15 -0.000421051 -2.30501e-16 0)
(0.00132443 -2.64046e-05 6.75851e-16 -0.000418849 -1.17744e-16 0)
(0.00132764 6.51796e-06 8.78231e-16 -0.000406466 -4.83554e-16 0)
(0.00129412 -2.14794e-05 4.50215e-16 -0.000404499 -3.84675e-16 0)
(0.00129718 9.94278e-06 8.23858e-16 -0.000393099 -1.00506e-15 0)
(0.0012654 -1.68979e-05 -1.61262e-16 -0.00039134 -1.0044e-15 0)
(0.00126833 1.31173e-05 -3.50861e-16 -0.000380854 -1.14383e-15 0)
(0.00123817 -1.26346e-05 2.04101e-17 -0.000379281 -9.77517e-16 0)
(0.00124096 1.60612e-05 3.35561e-17 -0.000369646 -1.23968e-15 0)
(0.00121231 -8.66616e-06 2.78382e-16 -0.000368238 -9.79685e-16 0)
(0.00121499 1.87922e-05 -5.79642e-17 -0.000359394 -8.66278e-16 0)
(0.00118774 -4.97126e-06 2.46073e-16 -0.000358132 -2.57606e-16 0)
(0.00119031 2.13265e-05 7.52369e-16 -0.000350023 6.50521e-19 0)
(0.00116437 -1.53053e-06 1.30306e-15 -0.00034889 1.40946e-16 0)
(0.00116683 2.36788e-05 1.37492e-15 -0.000341465 3.53016e-16 0)
(0.00114211 1.67375e-06 1.24897e-15 -0.000340446 5.05889e-16 0)
(0.00114447 2.58626e-05 1.3578e-15 -0.000333658 1.14427e-15 0)
(0.00112088 4.65778e-06 1.2374e-15 -0.000332737 7.87348e-16 0)
(0.00112315 2.78899e-05 1.02584e-15 -0.000326542 1.01221e-15 0)
(0.00110062 7.43634e-06 -2.50857e-17 -0.000325708 7.65664e-16 0)
(0.0011028 2.9772e-05 3.52379e-16 -0.000320063 9.29161e-16 0)
(0.00108125 1.0023e-05 8.09343e-16 -0.000319303 5.33211e-16 0)
(0.00108335 3.15191e-05 1.67558e-15 -0.000314171 2.36356e-17 0)
(0.00106271 1.243e-05 2.07641e-15 -0.000313474 -3.90096e-16 0)
(0.00106473 3.31404e-05 1.91085e-15 -0.000308819 -4.37367e-16 0)
(0.00104494 1.46689e-05 2.09048e-15 -0.000308174 -4.22405e-16 0)
(0.00104689 3.46444e-05 1.79018e-15 -0.000303963 -5.97179e-16 0)
(0.00102789 1.67497e-05 1.36173e-15 -0.000303362 -4.25224e-16 0)
(0.00102978 3.60389e-05 7.83011e-16 -0.000299563 -1.55258e-16 0)
(0.00101151 1.86818e-05 9.35843e-16 -0.000298995 -7.82794e-17 0)
(0.00101333 3.73307e-05 1.12616e-15 -0.000295579 -2.68015e-16 0)
(0.000995743 2.04737e-05 8.44309e-16 -0.000295038 -2.50451e-16 0)
(0.000997509 3.85259e-05 4.90195e-16 -0.000291977 -1.661e-16 0)
(0.000980545 2.21327e-05 1.24927e-16 -0.000291455 2.85579e-16 0)
(0.000982257 3.96297e-05 -6.04172e-17 -0.000288721 1.32923e-16 0)
(0.000965872 2.36651e-05 -2.9226e-16 -0.000288212 6.3621e-16 0)
(0.000967534 4.0646e-05 -3.33636e-16 -0.000285779 9.15067e-17 0)
(0.000951683 2.50762e-05 -1.35214e-16 -0.00028528 8.38088e-16 0)
(0.000953299 4.15772e-05 -6.65781e-16 -0.00028312 4.96131e-16 0)
(0.000937941 2.63702e-05 -1.27096e-16 -0.000282629 1.4717e-15 0)
(0.000939514 4.24234e-05 -3.44912e-17 -0.000280715 7.58508e-16 0)
(0.000924613 2.75502e-05 8.80616e-16 -0.000280235 1.70198e-15 0)
(0.000926145 4.31827e-05 5.27193e-18 -0.000278538 9.30679e-16 0)
(0.000911671 2.86195e-05 2.4877e-16 -0.000278075 1.58033e-15 0)
(0.000913165 4.3855e-05 -3.88659e-16 -0.000276573 5.27356e-16 0)
(0.000899096 2.95845e-05 2.21543e-16 -0.000276133 1.0623e-15 0)
(0.000900555 4.44641e-05 -1.62278e-16 -0.000274838 4.42788e-16 0)
(0.000886849 3.04584e-05 5.2451e-16 -0.000274384 8.97936e-16 0)
(0.00224545 -0.000178329 -3.65208e-15 -0.000928214 4.66857e-15 0)
(0.00214637 -0.000240649 -3.42695e-15 -0.000913947 2.65163e-15 0)
(0.00215724 -0.000160247 -3.87337e-15 -0.000872465 3.58079e-15 0)
(0.00206545 -0.000218795 -3.47449e-15 -0.000859328 9.62988e-16 0)
(0.00207564 -0.000143494 -4.56178e-15 -0.0008216 1.06393e-15 0)
(0.0019903 -0.000198681 -4.81792e-16 -0.000809427 -1.82124e-15 0)
(0.00199988 -0.000127856 -2.95098e-15 -0.000775004 -1.28695e-15 0)
(0.00192027 -0.000180054 -4.27111e-15 -0.000763751 -1.62348e-15 0)
(0.00192932 -0.000113269 -8.30426e-15 -0.000732215 -1.15793e-16 0)
(0.00185487 -0.000162773 -6.4816e-15 -0.000721868 2.50234e-16 0)
(0.00186342 -9.96958e-05 -5.78083e-15 -0.000692875 5.3668e-16 0)
(0.00179369 -0.000146736 -3.52274e-15 -0.000683412 1.18178e-16 0)
(0.00180177 -8.7095e-05 -1.95089e-15 -0.000656686 -6.44016e-17 0)
(0.00173637 -0.000131858 6.76596e-16 -0.000648072 -7.99708e-16 0)
(0.00174402 -7.54171e-05 1.37694e-15 -0.000623392 -8.30499e-17 0)
(0.0016826 -0.000118059 2.33087e-15 -0.000615578 -7.39209e-16 0)
(0.00168985 -6.46061e-05 2.23763e-15 -0.000592761 -6.81963e-16 0)
(0.00163212 -0.000105263 2.25852e-15 -0.000585694 -1.17593e-15 0)
(0.001639 -5.46034e-05 1.57246e-15 -0.000564585 -1.06013e-15 0)
(0.00158468 -9.33958e-05 1.456e-15 -0.000558207 -1.1692e-15 0)
(0.0015912 -4.53502e-05 2.49249e-15 -0.000538672 -7.84746e-16 0)
(0.00154005 -8.2388e-05 2.97284e-15 -0.000532925 -1.05948e-15 0)
(0.00154624 -3.67897e-05 2.74341e-15 -0.000514847 7.95804e-17 0)
(0.00149803 -7.21742e-05 2.47102e-15 -0.000509674 2.10335e-17 0)
(0.00150391 -2.88679e-05 1.28563e-15 -0.000492946 2.33776e-15 0)
(0.00145843 -6.26937e-05 4.03635e-16 -0.000488295 1.86895e-15 0)
(0.00146402 -2.15345e-05 3.38949e-16 -0.00047282 2.97939e-15 0)
(0.00142108 -5.389e-05 2.65372e-16 -0.000468641 1.07575e-15 0)
(0.0014264 -1.47427e-05 1.29774e-15 -0.000454331 1.62283e-15 0)
(0.00138581 -4.57113e-05 4.55528e-16 -0.000450579 8.65193e-17 0)
(0.00139088 -8.44983e-06 1.1082e-15 -0.000437354 5.10659e-16 0)
(0.00135249 -3.81097e-05 3.11315e-16 -0.000433986 -1.90386e-16 0)
(0.00135731 -2.6164e-06 -5.53892e-17 -0.000421769 3.64075e-16 0)
(0.00132096 -3.10417e-05 -6.37443e-16 -0.000418748 -2.81893e-17 0)
(0.00132557 2.79347e-06 -3.08835e-16 -0.000407471 -4.159e-16 0)
(0.00129111 -2.44671e-05 4.09259e-16 -0.000404761 -4.8724e-16 0)
(0.00129551 7.81259e-06 1.90372e-16 -0.000394359 -4.62304e-16 0)
(0.00126282 -1.83494e-05 2.7639e-16 -0.000391928 -5.46438e-17 0)
(0.00126702 1.24709e-05 2.84915e-16 -0.000382343 -4.49077e-16 0)
(0.00123599 -1.26551e-05 9.7135e-16 -0.000380163 -4.73796e-16 0)
(0.00124 1.67957e-05 9.33295e-16 -0.000371338 -7.53087e-16 0)
(0.0012105 -7.35356e-06 9.8764e-16 -0.000369381 -4.01588e-16 0)
(0.00121434 2.08119e-05 6.19513e-16 -0.000361265 -2.9924e-17 0)
(0.00118627 -2.41676e-06 6.81204e-16 -0.000359508 9.14199e-16 0)
(0.00118994 2.45422e-05 8.56371e-16 -0.000352054 8.08815e-16 0)
(0.00116321 2.1809e-06 1.27009e-15 -0.000350474 1.06208e-15 0)
(0.00116673 2.80074e-05 1.59092e-15 -0.000343637 5.34295e-16 0)
(0.00114124 6.46284e-06 1.77942e-15 -0.000342215 6.63749e-16 0)
(0.00114462 3.12264e-05 1.31014e-15 -0.000335954 2.87097e-16 0)
(0.00112028 1.04505e-05 1.99263e-15 -0.000334669 -1.29454e-16 0)
(0.00112352 3.42166e-05 8.55368e-16 -0.000328946 1.43332e-16 0)
(0.00110026 1.41635e-05 8.91783e-16 -0.000327782 -2.92735e-17 0)
(0.00110338 3.69937e-05 4.57059e-16 -0.000322561 2.12504e-16 0)
(0.00108112 1.76198e-05 1.41723e-15 -0.000321503 -8.84709e-17 0)
(0.00108412 3.95722e-05 2.16778e-15 -0.00031675 -1.77159e-16 0)
(0.0010628 2.08357e-05 1.86565e-15 -0.000315782 1.40513e-16 0)
(0.00106569 4.19652e-05 1.95526e-15 -0.000311466 -6.98226e-17 0)
(0.00104524 2.38263e-05 1.82695e-15 -0.000310576 3.52149e-16 0)
(0.00104802 4.41847e-05 1.53585e-15 -0.000306668 1.51571e-16 0)
(0.00102838 2.6605e-05 1.2284e-15 -0.000305843 4.21538e-16 0)
(0.00103106 4.62413e-05 1.19974e-15 -0.000302314 -9.02056e-17 0)
(0.00101217 2.91842e-05 1.41239e-15 -0.000301544 -4.54931e-16 0)
(0.00101477 4.81449e-05 8.61561e-16 -0.000298368 -4.20454e-16 0)
(0.000996569 3.1575e-05 2.16488e-16 -0.000297643 -3.62991e-16 0)
(0.000999079 4.9904e-05 -1.55583e-16 -0.000294795 2.60425e-16 0)
(0.000981528 3.37875e-05 -2.25473e-16 -0.000294105 2.54137e-16 0)
(0.000983958 5.15261e-05 -1.72117e-16 -0.000291561 7.77807e-16 0)
(0.000967006 3.58305e-05 1.67238e-17 -0.000290901 4.36066e-16 0)
(0.000969361 5.30177e-05 8.60314e-17 -0.000288637 1.02978e-15 0)
(0.000952963 3.7712e-05 3.05813e-16 -0.000288 8.87745e-16 0)
(0.000955249 5.43843e-05 5.99415e-16 -0.000285993 1.65775e-15 0)
(0.000939364 3.94393e-05 7.67534e-16 -0.000285375 1.50509e-15 0)
(0.000941585 5.56311e-05 9.33647e-16 -0.000283606 2.24278e-15 0)
(0.000926175 4.10196e-05 1.05383e-15 -0.000283003 2.12482e-15 0)
(0.000928336 5.67644e-05 1.21984e-15 -0.000281453 2.20679e-15 0)
(0.000913366 4.24602e-05 1.28336e-15 -0.000280859 1.44242e-15 0)
(0.00091547 5.77932e-05 8.82554e-16 -0.000279517 1.3327e-15 0)
(0.000900902 4.37694e-05 9.14308e-16 -0.00027892 8.2768e-16 0)
(0.000902955 5.87256e-05 9.1241e-16 -0.000277774 1.00462e-15 0)
(0.000888751 4.49543e-05 8.04492e-16 -0.000277165 2.64762e-16 0)
(0.00222275 -0.000237557 -1.33918e-15 -0.000914907 2.62811e-16 0)
(0.00212256 -0.000296309 2.30667e-15 -0.000897082 -2.05565e-16 0)
(0.00213699 -0.000213278 5.4885e-16 -0.000860639 -3.8847e-16 0)
(0.00204378 -0.000268862 -5.91432e-16 -0.000844433 -1.28478e-15 0)
(0.0020573 -0.000191046 -5.82325e-16 -0.000811044 -2.78022e-15 0)
(0.00197046 -0.000243664 -1.83658e-15 -0.000796232 -2.83606e-15 0)
(0.00198318 -0.000170543 -3.05298e-15 -0.000765638 -2.19941e-15 0)
(0.00190211 -0.000220431 -5.51967e-15 -0.000752074 -1.24423e-15 0)
(0.00191409 -0.000151575 -4.93618e-15 -0.000723997 -3.00107e-16 0)
(0.00183826 -0.000198956 -1.96837e-15 -0.000711582 -7.8583e-16 0)
(0.00184957 -0.000134007 -1.31698e-15 -0.000685761 -6.37728e-16 0)
(0.00177854 -0.000179076 1.89893e-15 -0.000674416 -1.64972e-15 0)
(0.00178922 -0.00011773 2.25482e-15 -0.000650623 -1.60527e-15 0)
(0.00172258 -0.000160656 4.40265e-15 -0.000640277 -2.29569e-15 0)
(0.00173269 -0.000102652 3.73323e-15 -0.000618314 -2.11745e-15 0)
(0.0016701 -0.000143581 4.22554e-15 -0.000608899 -2.20071e-15 0)
(0.00167967 -8.86832e-05 2.82126e-15 -0.000588598 -1.29801e-15 0)
(0.00162082 -0.000127746 2.16897e-15 -0.000580048 -1.83816e-15 0)
(0.00162988 -7.57437e-05 1.48747e-15 -0.000561266 -1.81214e-15 0)
(0.00157448 -0.000113056 2.20795e-15 -0.000553513 -2.5418e-15 0)
(0.00158308 -6.37563e-05 2.6538e-15 -0.000536124 -2.14867e-15 0)
(0.00153089 -9.9422e-05 3.05471e-15 -0.000529107 -2.61401e-15 0)
(0.00153905 -5.2649e-05 3.09713e-15 -0.000513001 -1.55041e-15 0)
(0.00148982 -8.67641e-05 2.17789e-15 -0.000506659 -1.43418e-15 0)
(0.00149758 -4.23545e-05 6.68736e-16 -0.000491739 -2.86663e-16 0)
(0.00145111 -7.50075e-05 -5.73272e-16 -0.000486013 -6.88902e-16 0)
(0.00145848 -3.28106e-05 -8.94033e-16 -0.000472191 -3.82723e-16 0)
(0.00141457 -6.40837e-05 -5.42806e-16 -0.000467027 -8.12718e-16 0)
(0.00142158 -2.39595e-05 -2.00713e-16 -0.000454224 -8.50448e-16 0)
(0.00138006 -5.39297e-05 -5.43971e-16 -0.000449572 -1.19587e-15 0)
(0.00138673 -1.5748e-05 -6.58057e-16 -0.000437717 -9.33064e-16 0)
(0.00134743 -4.44875e-05 -9.6513e-16 -0.00043353 -6.7741e-16 0)
(0.00135379 -8.12726e-06 -5.61508e-16 -0.000422558 -3.13985e-16 0)
(0.00131656 -3.57039e-05 -8.10875e-16 -0.000418791 -7.8236e-16 0)
(0.00132262 -1.05234e-06 -1.64528e-16 -0.000408641 -5.60533e-16 0)
(0.0012873 -2.75303e-05 -2.63515e-16 -0.000405255 -4.67725e-16 0)
(0.00129309 5.5179e-06 4.02293e-16 -0.000395873 1.27936e-17 0)
(0.00125957 -1.99219e-05 -3.64997e-16 -0.00039283 -4.92228e-17 0)
(0.00126509 1.16211e-05 2.04887e-16 -0.000384164 -1.45283e-16 0)
(0.00123324 -1.28378e-05 -1.59974e-16 -0.000381431 -4.2479e-16 0)
(0.00123852 1.72919e-05 6.77925e-16 -0.000373434 -4.05492e-16 0)
(0.00120823 -6.24051e-06 1.82417e-16 -0.000370979 -4.77916e-16 0)
(0.00121327 2.25619e-05 5.62321e-16 -0.000363607 4.72929e-16 0)
(0.00118443 -9.56409e-08 5.96935e-16 -0.000361401 7.98406e-16 0)
(0.00118926 2.74598e-05 1.13126e-15 -0.000354615 1.49013e-15 0)
(0.00116178 5.62831e-06 1.30058e-15 -0.00035263 1.43592e-15 0)
(0.0011664 3.20123e-05 1.63055e-15 -0.000346392 1.12345e-15 0)
(0.00114018 1.09602e-05 1.79544e-15 -0.000344605 1.09591e-15 0)
(0.00114462 3.62435e-05 2.61458e-15 -0.00033888 2.0795e-16 0)
(0.00111958 1.59264e-05 2.52652e-15 -0.000337268 3.40873e-16 0)
(0.00112383 4.01756e-05 1.91377e-15 -0.000332023 -1.73689e-16 0)
(0.00109989 2.05512e-05 1.81585e-15 -0.000330565 3.29814e-16 0)
(0.00110397 4.38288e-05 1.72701e-15 -0.00032577 1.70437e-16 0)
(0.00108105 2.48567e-05 2.17388e-15 -0.000324446 4.70977e-16 0)
(0.00108498 4.72216e-05 1.56116e-15 -0.000320073 5.16297e-16 0)
(0.00106301 2.88631e-05 1.65653e-15 -0.000318867 6.72639e-16 0)
(0.00106679 5.03709e-05 1.8381e-15 -0.000314888 7.05165e-16 0)
(0.00104571 3.2589e-05 2.85521e-15 -0.000313783 5.55112e-16 0)
(0.00104935 5.3292e-05 2.50928e-15 -0.000310174 4.64472e-16 0)
(0.0010291 3.60513e-05 2.26646e-15 -0.000309155 1.00961e-15 0)
(0.00103261 5.59989e-05 1.17889e-15 -0.000305891 5.80482e-16 0)
(0.00101313 3.92653e-05 1.11094e-15 -0.000304945 1.15706e-15 0)
(0.00101651 5.85042e-05 6.98253e-16 -0.000302005 1.47235e-16 0)
(0.000997745 4.22451e-05 4.04611e-16 -0.00030112 1.16877e-15 0)
(0.00100102 6.08195e-05 -1.56057e-16 -0.000298481 6.31439e-16 0)
(0.000982913 4.50034e-05 -5.20498e-16 -0.000297646 1.61459e-15 0)
(0.000986075 6.29549e-05 -3.93294e-16 -0.000295288 8.76252e-16 0)
(0.000968589 4.75518e-05 -7.09543e-16 -0.000294494 1.46606e-15 0)
(0.000971649 6.492e-05 -6.34394e-17 -0.000292398 8.71915e-16 0)
(0.000954735 4.99011e-05 -1.21471e-16 -0.000291635 1.37173e-15 0)
(0.000957701 6.67235e-05 4.2994e-16 -0.000289784 1.23859e-15 0)
(0.000941317 5.20611e-05 -1.68864e-16 -0.000289043 1.15814e-15 0)
(0.000944195 6.83741e-05 3.14324e-16 -0.00028742 1.3327e-15 0)
(0.0009283 5.40414e-05 5.14793e-16 -0.000286693 9.30029e-16 0)
(0.000931095 6.98801e-05 1.33132e-15 -0.000285284 9.92262e-16 0)
(0.00091565 5.58506e-05 1.57491e-15 -0.000284563 6.02166e-16 0)
(0.000918369 7.12495e-05 1.54209e-15 -0.000283354 5.68122e-16 0)
(0.000903337 5.74971e-05 1.39854e-15 -0.000282629 4.26091e-16 0)
(0.000905985 7.24897e-05 6.53394e-16 -0.000281606 -3.57787e-17 0)
(0.000891328 5.8988e-05 5.54298e-17 -0.000280869 -1.76074e-16 0)
(0.00219417 -0.000295305 4.69224e-15 -0.000897974 -7.82686e-16 0)
(0.00209327 -0.000350287 2.1713e-15 -0.000876783 -7.84637e-16 0)
(0.00211134 -0.000265282 -1.34837e-15 -0.000845794 -1.0971e-15 0)
(0.0020172 -0.000317559 -4.86387e-15 -0.000826571 -1.79089e-15 0)
(0.00203416 -0.000237795 -5.30178e-15 -0.000798006 -2.03949e-15 0)
(0.00194628 -0.000287493 -5.8217e-15 -0.000780524 -2.37831e-15 0)
(0.00196223 -0.000212524 -4.78445e-15 -0.000754215 -2.22175e-15 0)
(0.00188008 -0.000259799 -5.26836e-15 -0.000738288 -2.87791e-15 0)
(0.00189509 -0.000189225 -3.0459e-15 -0.000714051 -2.35716e-15 0)
(0.0018182 -0.000234238 -6.60089e-16 -0.000699531 -3.23222e-15 0)
(0.00183236 -0.000167702 3.59811e-15 -0.000677179 -2.6396e-15 0)
(0.00176028 -0.000210607 4.1229e-15 -0.000663944 -3.52192e-15 0)
(0.00177365 -0.000147798 4.54007e-15 -0.000643305 -3.19688e-15 0)
(0.00170599 -0.000188736 2.33041e-15 -0.000631251 -3.68499e-15 0)
(0.00171864 -0.000129377 2.70774e-15 -0.000612167 -2.8508e-15 0)
(0.00165506 -0.000168474 1.25605e-15 -0.000601199 -1.48557e-15 0)
(0.00166703 -0.00011232 2.14789e-15 -0.000583535 -1.37976e-15 0)
(0.00160721 -0.00014969 1.06089e-15 -0.000573567 -3.46945e-16 0)
(0.00161855 -9.65169e-05 1.80872e-15 -0.000557199 -1.55193e-15 0)
(0.00156221 -0.000132266 2.29179e-15 -0.000548151 3.57787e-17 0)
(0.00157296 -8.18716e-05 3.09141e-15 -0.000532973 -1.44914e-15 0)
(0.00151985 -0.000116093 2.16835e-15 -0.000524771 -5.4904e-16 0)
(0.00153005 -6.82937e-05 1.23225e-15 -0.000510687 -1.61394e-15 0)
(0.00147993 -0.000101075 9.126e-16 -0.000503261 -9.42172e-16 0)
(0.00148961 -5.57008e-05 6.21546e-16 -0.000490189 -1.1601e-15 0)
(0.00144227 -8.71224e-05 1.03135e-16 -0.000483474 -5.86337e-16 0)
(0.00145148 -4.40173e-05 -7.51379e-16 -0.000471338 -5.42318e-16 0)
(0.00140672 -7.4154e-05 -1.40155e-15 -0.000465271 -7.63712e-16 0)
(0.00141547 -3.31736e-05 -1.51672e-15 -0.000454004 -1.3765e-15 0)
(0.00137312 -6.20952e-05 -2.08118e-15 -0.000448531 -1.36718e-15 0)
(0.00138145 -2.31058e-05 -1.39334e-15 -0.000438072 -9.26993e-16 0)
(0.00134133 -5.08779e-05 -1.09738e-15 -0.000433138 -5.63351e-16 0)
(0.00134927 -1.37553e-05 -9.11895e-16 -0.000423432 -7.80626e-16 0)
(0.00131123 -4.04394e-05 -3.69523e-16 -0.000418988 -1.37303e-15 0)
(0.0013188 -5.06842e-06 -3.66975e-16 -0.000409985 -1.26787e-15 0)
(0.0012827 -3.07225e-05 -6.026e-16 -0.000405987 -1.59269e-15 0)
(0.00128992 3.0043e-06 -1.24759e-15 -0.000397641 -8.29632e-16 0)
(0.00125563 -2.16747e-05 -1.37639e-15 -0.000394045 -1.12562e-15 0)
(0.00126252 1.0508e-05 -8.33995e-16 -0.000386314 -6.07804e-16 0)
(0.00122993 -1.32478e-05 -9.89633e-16 -0.000383082 -7.43329e-16 0)
(0.00123651 1.74842e-05 -7.8377e-16 -0.000375926 -6.27103e-16 0)
(0.00120549 -5.39775e-06 -1.00554e-15 -0.000373022 -8.90347e-16 0)
(0.00121178 2.39709e-05 1.93259e-17 -0.000366407 -3.96601e-16 0)
(0.00118223 1.916e-06 -8.36679e-16 -0.000363797 -3.25261e-18 0)
(0.00118825 3.00029e-05 -5.64869e-17 -0.000357688 1.15793e-15 0)
(0.00116007 8.7305e-06 -4.93691e-16 -0.000355343 9.22656e-16 0)
(0.00116583 3.56121e-05 1.06268e-15 -0.00034971 1.17723e-15 0)
(0.00113894 1.50798e-05 1.29581e-15 -0.0003476 7.18392e-16 0)