/*--------------------------------*- C++ -*----------------------------------*\
| =========                 |                                                 |
| \\      /  F ield         | OpenFOAM: The Open Source CFD Toolbox           |
|  \\    /   O peration     | Version:  v2012                                 |
|   \\  /    A nd           | Website:  www.openfoam.com                      |
|    \\/     M anipulation  |                                                 |
\*---------------------------------------------------------------------------*/
FoamFile
{
    version     2.0;
    format      ascii;
    class       pointVectorField;
    location    "3";
    object      pointD;
}
// * * * * * * * * * * * * * * * * * * * * * * * * * * * * * * * * * * * * * //

dimensions      [0 1 0 0 0 0 0];


internalField   nonuniform List<vector> 
32562
(
(0.0010629 0 0)
(0.00151771 0 0)
(0.00140038 -0.000140035 0)
(0 -0.00074887 0)
(0 -0.000576835 0)
(0.00109869 0 0)
(0 -0.00068983 0)
(0.000643643 -0.000239535 0)
(0.000319839 -0.000444441 0)
(0.00146406 -4.36663e-05 0)
(0.000773777 -0.000349413 0)
(0.000773777 -0.000349413 0)
(0.000643643 -0.000239535 0)
(0 -0.00068983 0)
(0 -0.000576835 0)
(0.0010629 0 0)
(0.00109869 0 0)
(0.00151771 0 0)
(0.00146406 -4.36663e-05 0)
(0.00140038 -0.000140035 0)
(0.000319839 -0.000444441 0)
(0 -0.00074887 0)
(1.3038e-05 -0.000689331 0)
(2.60999e-05 -0.000687897 0)
(3.92067e-05 -0.000685524 0)
(5.23805e-05 -0.000682222 0)
(6.56428e-05 -0.000678007 0)
(7.90138e-05 -0.000672898 0)
(9.25128e-05 -0.000666918 0)
(0.000106158 -0.000660096 0)
(0.000119966 -0.000652462 0)
(0.000133952 -0.000644049 0)
(0.000148129 -0.000634896 0)
(0.00016251 -0.00062504 0)
(0.000177104 -0.000614525 0)
(0.000191919 -0.000603392 0)
(0.000206963 -0.000591687 0)
(0.000222239 -0.000579456 0)
(0.000237751 -0.000566744 0)
(0.000253499 -0.0005536 0)
(0.000269482 -0.00054007 0)
(0.000285699 -0.000526201 0)
(0.000302145 -0.00051204 0)
(0.000318814 -0.000497631 0)
(0.0003357 -0.000483021 0)
(0.000352794 -0.000468252 0)
(0.000370086 -0.000453368 0)
(0.000387566 -0.000438409 0)
(0.000405221 -0.000423414 0)
(0.000423037 -0.000408421 0)
(0.000441002 -0.000393467 0)
(0.000459099 -0.000378584 0)
(0.000477313 -0.000363806 0)
(0.000495626 -0.000349163 0)
(0.000514022 -0.000334682 0)
(0.000532483 -0.00032039 0)
(0.000550991 -0.00030631 0)
(0.000569527 -0.000292462 0)
(0.000588074 -0.000278865 0)
(0.000606616 -0.000265529 0)
(0.000625142 -0.000252446 0)
(0.000661913 -0.0002274 0)
(0.000680116 -0.00021553 0)
(0.000698215 -0.000203966 0)
(0.000716184 -0.000192731 0)
(0.000733995 -0.00018184 0)
(0.000751626 -0.000171305 0)
(0.000769051 -0.000161133 0)
(0.00078625 -0.000151329 0)
(0.000803198 -0.000141898 0)
(0.000819873 -0.000132839 0)
(0.000836253 -0.000124155 0)
(0.000852316 -0.000115843 0)
(0.00086804 -0.000107902 0)
(0.000883404 -0.000100327 0)
(0.000898387 -9.31146e-05 0)
(0.000912968 -8.62587e-05 0)
(0.000927127 -7.97527e-05 0)
(0.000940844 -7.35892e-05 0)
(0.0009541 -6.77595e-05 0)
(0.000966875 -6.22544e-05 0)
(0.000979152 -5.70637e-05 0)
(0.000990913 -5.21765e-05 0)
(0.00100214 -4.75811e-05 0)
(0.00101282 -4.32653e-05 0)
(0.00102293 -3.9216e-05 0)
(0.00103247 -3.54196e-05 0)
(0.00104141 -3.18618e-05 0)
(0.00104974 -2.85279e-05 0)
(0.00105745 -2.54026e-05 0)
(0.00106453 -2.24702e-05 0)
(0.00107097 -1.97145e-05 0)
(0.00107676 -1.71189e-05 0)
(0.00108189 -1.46663e-05 0)
(0.00108635 -1.23395e-05 0)
(0.00109013 -1.01207e-05 0)
(0.00109323 -7.9921e-06 0)
(0.00109565 -5.93535e-06 0)
(0.00109737 -3.93179e-06 0)
(0.00109839 -1.96172e-06 0)
(0.00106506 0 0)
(0.00106708 0 0)
(0.00106895 0 0)
(0.00107069 0 0)
(0.00107231 0 0)
(0.00107381 0 0)
(0.0010752 0 0)
(0.0010765 0 0)
(0.00107771 0 0)
(0.00107883 0 0)
(0.00107989 0 0)
(0.00108087 0 0)
(0.0010818 0 0)
(0.00108267 0 0)
(0.00108349 0 0)
(0.00108427 0 0)
(0.00108502 0 0)
(0.00108572 0 0)
(0.0010864 0 0)
(0.00108705 0 0)
(0.00108769 0 0)
(0.0010883 0 0)
(0.00108889 0 0)
(0.00108948 0 0)
(0.00109005 0 0)
(0.00109062 0 0)
(0.00109118 0 0)
(0.00109173 0 0)
(0.00109229 0 0)
(0.00109284 0 0)
(0.0010934 0 0)
(0.00109396 0 0)
(0.00109452 0 0)
(0.00109509 0 0)
(0.00109567 0 0)
(0.00109626 0 0)
(0.00109685 0 0)
(0.00109745 0 0)
(0.00109807 0 0)
(0.00110038 0 0)
(0.00110214 0 0)
(0.00110398 0 0)
(0.00110592 0 0)
(0.00110797 0 0)
(0.00111012 0 0)
(0.00111239 0 0)
(0.00111478 0 0)
(0.00111728 0 0)
(0.0011199 0 0)
(0.00112264 0 0)
(0.0011255 0 0)
(0.00112848 0 0)
(0.00113158 0 0)
(0.0011348 0 0)
(0.00113813 0 0)
(0.00114158 0 0)
(0.00114514 0 0)
(0.00114881 0 0)
(0.0011526 0 0)
(0.00115649 0 0)
(0.0011605 0 0)
(0.00116461 0 0)
(0.00116883 0 0)
(0.00117315 0 0)
(0.00117757 0 0)
(0.00118209 0 0)
(0.00118671 0 0)
(0.00119143 0 0)
(0.00119624 0 0)
(0.00120115 0 0)
(0.00120615 0 0)
(0.00121124 0 0)
(0.00121642 0 0)
(0.00122169 0 0)
(0.00122704 0 0)
(0.00123248 0 0)
(0.00123799 0 0)
(0.00124359 0 0)
(0.00124927 0 0)
(0.00125503 0 0)
(0.00126086 0 0)
(0.00126676 0 0)
(0.00127274 0 0)
(0.00127879 0 0)
(0.0012849 0 0)
(0.00129109 0 0)
(0.00129733 0 0)
(0.00130365 0 0)
(0.00131002 0 0)
(0.00131645 0 0)
(0.00132294 0 0)
(0.00132948 0 0)
(0.00133608 0 0)
(0.00134273 0 0)
(0.00134943 0 0)
(0.00135618 0 0)
(0.00136297 0 0)
(0.0013698 0 0)
(0.00137667 0 0)
(0.00138358 0 0)
(0.00139052 0 0)
(0.0013975 0 0)
(0.00140451 0 0)
(0.00141154 0 0)
(0.00141859 0 0)
(0.00142567 0 0)
(0.00143276 0 0)
(0.00143986 0 0)
(0.00144698 0 0)
(0.0014541 0 0)
(0.00146122 0 0)
(0.00146834 0 0)
(0.00147545 0 0)
(0.00148255 0 0)
(0.00148963 0 0)
(0.00149669 0 0)
(0.00150373 0 0)
(0.00151073 0 0)
(0.00151763 -5.4143e-07 0)
(0.0015175 -1.09239e-06 0)
(0.00151728 -1.64932e-06 0)
(0.001517 -2.21334e-06 0)
(0.00151663 -2.78648e-06 0)
(0.00151618 -3.37099e-06 0)
(0.00151566 -3.96915e-06 0)
(0.00151505 -4.58326e-06 0)
(0.00151437 -5.21555e-06 0)
(0.00151361 -5.86823e-06 0)
(0.00151278 -6.54348e-06 0)
(0.00151187 -7.24343e-06 0)
(0.00151089 -7.97016e-06 0)
(0.00150984 -8.72573e-06 0)
(0.00150872 -9.51211e-06 0)
(0.00150753 -1.03312e-05 0)
(0.00150627 -1.1185e-05 0)
(0.00150495 -1.20753e-05 0)
(0.00150356 -1.30038e-05 0)
(0.00150212 -1.39723e-05 0)
(0.00150061 -1.49823e-05 0)
(0.00149905 -1.60355e-05 0)
(0.00149743 -1.71333e-05 0)
(0.00149576 -1.82772e-05 0)
(0.00149404 -1.94685e-05 0)
(0.00149227 -2.07084e-05 0)
(0.00149046 -2.19982e-05 0)
(0.00148861 -2.33388e-05 0)
(0.00148671 -2.47314e-05 0)
(0.00148478 -2.61768e-05 0)
(0.00148282 -2.76758e-05 0)
(0.00148082 -2.92292e-05 0)
(0.0014788 -3.08375e-05 0)
(0.00147675 -3.25013e-05 0)
(0.00147467 -3.4221e-05 0)
(0.00147258 -3.59969e-05 0)
(0.00147047 -3.78294e-05 0)
(0.00146834 -3.97185e-05 0)
(0.00146621 -4.16644e-05 0)
(0.00146311 -4.45695e-05 0)
(0.00146217 -4.54835e-05 0)
(0.00146122 -4.64083e-05 0)
(0.00146026 -4.7344e-05 0)
(0.00145931 -4.82905e-05 0)
(0.00145836 -4.92479e-05 0)
(0.00145741 -5.02159e-05 0)
(0.00145646 -5.11946e-05 0)
(0.00145551 -5.2184e-05 0)
(0.00145456 -5.31839e-05 0)
(0.00145362 -5.41942e-05 0)
(0.00145267 -5.52149e-05 0)
(0.00145173 -5.62459e-05 0)
(0.00145079 -5.72872e-05 0)
(0.00144985 -5.83385e-05 0)
(0.00144891 -5.93998e-05 0)
(0.00144798 -6.0471e-05 0)
(0.00144705 -6.15521e-05 0)
(0.00144613 -6.26428e-05 0)
(0.0014452 -6.3743e-05 0)
(0.00144428 -6.48527e-05 0)
(0.00144337 -6.59717e-05 0)
(0.00144246 -6.70999e-05 0)
(0.00144155 -6.8237e-05 0)
(0.00144065 -6.93831e-05 0)
(0.00143975 -7.05379e-05 0)
(0.00143886 -7.17013e-05 0)
(0.00143797 -7.28731e-05 0)
(0.00143709 -7.40531e-05 0)
(0.00143622 -7.52412e-05 0)
(0.00143534 -7.64373e-05 0)
(0.00143448 -7.7641e-05 0)
(0.00143362 -7.88523e-05 0)
(0.00143277 -8.00709e-05 0)
(0.00143192 -8.12967e-05 0)
(0.00143108 -8.25295e-05 0)
(0.00143025 -8.3769e-05 0)
(0.00142942 -8.5015e-05 0)
(0.0014286 -8.62673e-05 0)
(0.00142779 -8.75258e-05 0)
(0.00142698 -8.87901e-05 0)
(0.00142618 -9.00601e-05 0)
(0.00142539 -9.13354e-05 0)
(0.00142461 -9.2616e-05 0)
(0.00142383 -9.39014e-05 0)
(0.00142306 -9.51916e-05 0)
(0.0014223 -9.64862e-05 0)
(0.00142154 -9.77849e-05 0)
(0.00142079 -9.90876e-05 0)
(0.00142005 -0.000100394 0)
(0.00141932 -0.000101704 0)
(0.00141859 -0.000103017 0)
(0.00141787 -0.000104332 0)
(0.00141716 -0.000105651 0)
(0.00141645 -0.000106971 0)
(0.00141575 -0.000108294 0)
(0.00141506 -0.000109618 0)
(0.00141438 -0.000110944 0)
(0.0014137 -0.000112271 0)
(0.00141303 -0.000113599 0)
(0.00141236 -0.000114928 0)
(0.0014117 -0.000116257 0)
(0.00141104 -0.000117586 0)
(0.00141039 -0.000118915 0)
(0.00140975 -0.000120244 0)
(0.00140911 -0.000121573 0)
(0.00140847 -0.0001229 0)
(0.00140784 -0.000124226 0)
(0.00140721 -0.000125552 0)
(0.00140658 -0.000126876 0)
(0.00140596 -0.000128198 0)
(0.00140534 -0.000129519 0)
(0.00140472 -0.000130838 0)
(0.0014041 -0.000132156 0)
(0.00140348 -0.000133472 0)
(0.00140286 -0.000134787 0)
(0.00140225 -0.0001361 0)
(0.00140163 -0.000137412 0)
(0.00140101 -0.000138724 0)
(0.00139081 -0.000141983 0)
(0.00138125 -0.000143935 0)
(0.0013717 -0.000145879 0)
(0.00136217 -0.000147799 0)
(0.00135265 -0.000149683 0)
(0.00134313 -0.000151518 0)
(0.00133361 -0.000153296 0)
(0.00132408 -0.000155011 0)
(0.00131453 -0.000156657 0)
(0.00130495 -0.000158231 0)
(0.00129534 -0.000159732 0)
(0.00128568 -0.000161158 0)
(0.00127597 -0.000162509 0)
(0.0012662 -0.000163788 0)
(0.00125637 -0.000164995 0)
(0.00124646 -0.000166133 0)
(0.00123648 -0.000167206 0)
(0.00122641 -0.000168217 0)
(0.00121624 -0.00016917 0)
(0.00120598 -0.00017007 0)
(0.00119562 -0.000170921 0)
(0.00118514 -0.00017173 0)
(0.00117455 -0.000172501 0)
(0.00116384 -0.000173241 0)
(0.00115301 -0.000173955 0)
(0.00114205 -0.000174651 0)
(0.00113095 -0.000175335 0)
(0.00111972 -0.000176014 0)
(0.00110834 -0.000176695 0)
(0.00109681 -0.000177386 0)
(0.00108514 -0.000178094 0)
(0.00107331 -0.000178828 0)
(0.00106131 -0.000179596 0)
(0.00104916 -0.000180405 0)
(0.00103684 -0.000181266 0)
(0.00102435 -0.000182187 0)
(0.00101168 -0.000183177 0)
(0.000998838 -0.000184246 0)
(0.000985817 -0.000185403 0)
(0.000972613 -0.000186659 0)
(0.000959225 -0.000188024 0)
(0.000945649 -0.000189509 0)
(0.000931884 -0.000191123 0)
(0.000917928 -0.000192879 0)
(0.00090378 -0.000194788 0)
(0.000889438 -0.000196861 0)
(0.000874902 -0.00019911 0)
(0.000860172 -0.000201547 0)
(0.000845247 -0.000204184 0)
(0.000830128 -0.000207034 0)
(0.000814816 -0.000210109 0)
(0.000799313 -0.000213422 0)
(0.000783621 -0.000216985 0)
(0.000767743 -0.000220811 0)
(0.000751682 -0.000224913 0)
(0.000735442 -0.000229304 0)
(0.000719029 -0.000233996 0)
(0.000702449 -0.000239001 0)
(0.000685707 -0.000244332 0)
(0.000668812 -0.000250001 0)
(0.000651772 -0.000256018 0)
(0.000634597 -0.000262395 0)
(0.000617298 -0.000269141 0)
(0.000599885 -0.000276267 0)
(0.000582372 -0.000283781 0)
(0.000564773 -0.00029169 0)
(0.000547103 -0.000300001 0)
(0.000529378 -0.000308718 0)
(0.000511615 -0.000317846 0)
(0.000493833 -0.000327387 0)
(0.000476053 -0.000337341 0)
(0.000458293 -0.000347706 0)
(0.000440578 -0.000358478 0)
(0.000422929 -0.000369651 0)
(0.00040537 -0.000381217 0)
(0.000387927 -0.000393164 0)
(0.000370625 -0.000405477 0)
(0.00035349 -0.000418141 0)
(0.00033655 -0.000431135 0)
(0.000307915 -0.000454195 0)
(0.000296133 -0.000464091 0)
(0.000284501 -0.000474109 0)
(0.000273029 -0.000484235 0)
(0.000261726 -0.000494453 0)
(0.0002506 -0.000504748 0)
(0.000239662 -0.000515103 0)
(0.000228918 -0.0005255 0)
(0.000218378 -0.000535922 0)
(0.00020805 -0.000546349 0)
(0.000197939 -0.00055676 0)
(0.000188053 -0.000567136 0)
(0.000178398 -0.000577454 0)
(0.000168978 -0.000587691 0)
(0.000159798 -0.000597825 0)
(0.000150862 -0.000607832 0)
(0.000142171 -0.000617688 0)
(0.000133727 -0.000627368 0)
(0.000125532 -0.000636847 0)
(0.000117584 -0.000646101 0)
(0.000109881 -0.000655103 0)
(0.000102422 -0.00066383 0)
(9.52021e-05 -0.000672255 0)
(8.82164e-05 -0.000680355 0)
(8.14588e-05 -0.000688105 0)
(7.49219e-05 -0.000695482 0)
(6.85974e-05 -0.000702462 0)
(6.24757e-05 -0.000709024 0)
(5.65459e-05 -0.000715146 0)
(5.07964e-05 -0.000720809 0)
(4.52143e-05 -0.000725993 0)
(3.9786e-05 -0.000730681 0)
(3.44967e-05 -0.000734858 0)
(2.93311e-05 -0.000738509 0)
(2.42728e-05 -0.000741621 0)
(1.9305e-05 -0.000744185 0)
(1.44102e-05 -0.000746192 0)
(9.57044e-06 -0.000747638 0)
(4.76839e-06 -0.000748522 0)
(0 -0.000748369 0)
(0 -0.000747857 0)
(0 -0.000747332 0)
(0 -0.000746796 0)
(0 -0.000746249 0)
(0 -0.000745691 0)
(0 -0.000745122 0)
(0 -0.000744543 0)
(0 -0.000743954 0)
(0 -0.000743356 0)
(0 -0.000742748 0)
(0 -0.000742131 0)
(0 -0.000741506 0)
(0 -0.000740872 0)
(0 -0.000740229 0)
(0 -0.000739579 0)
(0 -0.000738921 0)
(0 -0.000738256 0)
(0 -0.000737584 0)
(0 -0.000736905 0)
(0 -0.000736219 0)
(0 -0.000735527 0)
(0 -0.000734829 0)
(0 -0.000734125 0)
(0 -0.000733416 0)
(0 -0.000732701 0)
(0 -0.00073198 0)
(0 -0.000731255 0)
(0 -0.000730525 0)
(0 -0.000729791 0)
(0 -0.000729052 0)
(0 -0.000728308 0)
(0 -0.000727561 0)
(0 -0.00072681 0)
(0 -0.000726055 0)
(0 -0.000725297 0)
(0 -0.000724535 0)
(0 -0.000723771 0)
(0 -0.000723002 0)
(0 -0.000722232 0)
(0 -0.000721458 0)
(0 -0.000720681 0)
(0 -0.000719902 0)
(0 -0.00071912 0)
(0 -0.000718337 0)
(0 -0.00071755 0)
(0 -0.000716762 0)
(0 -0.000715971 0)
(0 -0.000715179 0)
(0 -0.000714385 0)
(0 -0.000713588 0)
(0 -0.00071279 0)
(0 -0.000711991 0)
(0 -0.000711189 0)
(0 -0.000710386 0)
(0 -0.000709582 0)
(0 -0.000708776 0)
(0 -0.000707968 0)
(0 -0.000707159 0)
(0 -0.000706349 0)
(0 -0.000705537 0)
(0 -0.000704724 0)
(0 -0.000703909 0)
(0 -0.000703093 0)
(0 -0.000702276 0)
(0 -0.000701457 0)
(0 -0.000700637 0)
(0 -0.000699815 0)
(0 -0.000698992 0)
(0 -0.000698168 0)
(0 -0.000697342 0)
(0 -0.000696514 0)
(0 -0.000695685 0)
(0 -0.000694854 0)
(0 -0.000694021 0)
(0 -0.000693187 0)
(0 -0.000692351 0)
(0 -0.000691513 0)
(0 -0.000690673 0)
(0 -0.000688126 0)
(0 -0.000686411 0)
(0 -0.000684686 0)
(0 -0.000682948 0)
(0 -0.000681196 0)
(0 -0.000679428 0)
(0 -0.000677642 0)
(0 -0.000675836 0)
(0 -0.000674007 0)
(0 -0.000672153 0)
(0 -0.000670272 0)
(0 -0.00066836 0)
(0 -0.000666414 0)
(0 -0.000664431 0)
(0 -0.000662408 0)
(0 -0.000660339 0)
(0 -0.000658221 0)
(0 -0.000656048 0)
(0 -0.000653816 0)
(0 -0.00065152 0)
(0 -0.000649152 0)
(0 -0.000646706 0)
(0 -0.000644176 0)
(0 -0.000641553 0)
(0 -0.000638829 0)
(0 -0.000635994 0)
(0 -0.000633039 0)
(0 -0.000629953 0)
(0 -0.000626724 0)
(0 -0.000623339 0)
(0 -0.000619783 0)
(0 -0.000616042 0)
(0 -0.000612097 0)
(0 -0.00060793 0)
(0 -0.000603519 0)
(0 -0.000598841 0)
(0 -0.000593868 0)
(0 -0.000588567 0)
(0 -0.000582902 0)
(0.000658383 -0.000227009 0)
(0.000672866 -0.000214989 0)
(0.000687115 -0.000203543 0)
(0.000701131 -0.000192688 0)
(0.000714913 -0.000182426 0)
(0.000728461 -0.000172747 0)
(0.000741776 -0.00016364 0)
(0.000754862 -0.000155087 0)
(0.000767723 -0.000147071 0)
(0.000780364 -0.000139572 0)
(0.000792791 -0.000132571 0)
(0.000805012 -0.000126047 0)
(0.000817033 -0.000119979 0)
(0.000828862 -0.000114347 0)
(0.000840508 -0.00010913 0)
(0.000851979 -0.000104309 0)
(0.000863284 -9.98635e-05 0)
(0.000874432 -9.57745e-05 0)
(0.00088543 -9.20234e-05 0)
(0.000896288 -8.85924e-05 0)
(0.000907015 -8.54639e-05 0)
(0.000917618 -8.26211e-05 0)
(0.000928106 -8.00477e-05 0)
(0.000938486 -7.77282e-05 0)
(0.000948767 -7.56473e-05 0)
(0.000958954 -7.37907e-05 0)
(0.000969056 -7.21443e-05 0)
(0.000979079 -7.06946e-05 0)
(0.000989029 -6.94287e-05 0)
(0.000998913 -6.83343e-05 0)
(0.00100873 -6.73992e-05 0)
(0.0010185 -6.66119e-05 0)
(0.00102822 -6.59614e-05 0)
(0.00103788 -6.5437e-05 0)
(0.00104751 -6.50282e-05 0)
(0.0010571 -6.47252e-05 0)
(0.00106665 -6.45185e-05 0)
(0.00107617 -6.43986e-05 0)
(0.00108567 -6.43568e-05 0)
(0.00109514 -6.43843e-05 0)
(0.00110458 -6.44728e-05 0)
(0.00111401 -6.46142e-05 0)
(0.00112342 -6.48008e-05 0)
(0.00113281 -6.50249e-05 0)
(0.00114219 -6.52792e-05 0)
(0.00115155 -6.55566e-05 0)
(0.0011609 -6.585e-05 0)
(0.00117024 -6.61528e-05 0)
(0.00117957 -6.64584e-05 0)
(0.00118889 -6.67604e-05 0)
(0.00119821 -6.70524e-05 0)
(0.00120751 -6.73284e-05 0)
(0.0012168 -6.75823e-05 0)
(0.00122609 -6.78083e-05 0)
(0.00123537 -6.80003e-05 0)
(0.00124464 -6.81528e-05 0)
(0.00125391 -6.826e-05 0)
(0.00126316 -6.83162e-05 0)
(0.00127241 -6.83157e-05 0)
(0.00128165 -6.8253e-05 0)
(0.00129088 -6.81222e-05 0)
(0.0013001 -6.79176e-05 0)
(0.0013093 -6.76335e-05 0)
(0.0013185 -6.72638e-05 0)
(0.00132769 -6.68024e-05 0)
(0.00133686 -6.62431e-05 0)
(0.00134603 -6.55792e-05 0)
(0.00135518 -6.4804e-05 0)
(0.00136432 -6.39104e-05 0)
(0.00137344 -6.28907e-05 0)
(0.00138256 -6.1737e-05 0)
(0.00139166 -6.04407e-05 0)
(0.00140075 -5.89926e-05 0)
(0.00140982 -5.73829e-05 0)
(0.00141889 -5.56008e-05 0)
(0.00142794 -5.36348e-05 0)
(0.00143698 -5.14724e-05 0)
(0.00144602 -4.91e-05 0)
(0.00145504 -4.65029e-05 0)
(0.00063804 -0.00024247 0)
(0.000632508 -0.000245402 0)
(0.000627046 -0.000248329 0)
(0.000621653 -0.000251254 0)
(0.00061633 -0.000254175 0)
(0.000611075 -0.000257094 0)
(0.000605889 -0.00026001 0)
(0.000600769 -0.000262924 0)
(0.000595716 -0.000265834 0)
(0.000590729 -0.000268741 0)
(0.000585807 -0.000271644 0)
(0.000580949 -0.000274541 0)
(0.000576154 -0.000277434 0)
(0.000571421 -0.00028032 0)
(0.000566749 -0.0002832 0)
(0.000562137 -0.000286073 0)
(0.000557585 -0.000288937 0)
(0.00055309 -0.000291794 0)
(0.000548652 -0.000294641 0)
(0.00054427 -0.000297478 0)
(0.000539941 -0.000300305 0)
(0.000535666 -0.000303121 0)
(0.000531442 -0.000305925 0)
(0.000527268 -0.000308718 0)
(0.000523143 -0.000311498 0)
(0.000519065 -0.000314266 0)
(0.000515032 -0.00031702 0)
(0.000511044 -0.000319761 0)
(0.000507099 -0.000322488 0)
(0.000503194 -0.0003252 0)
(0.000499329 -0.000327898 0)
(0.000495502 -0.000330582 0)
(0.000491711 -0.00033325 0)
(0.000487954 -0.000335903 0)
(0.00048423 -0.000338541 0)
(0.000480537 -0.000341163 0)
(0.000476873 -0.000343769 0)
(0.000473237 -0.00034636 0)
(0.000469626 -0.000348935 0)
(0.000466039 -0.000351495 0)
(0.000462475 -0.000354038 0)
(0.00045893 -0.000356566 0)
(0.000455404 -0.000359078 0)
(0.000451895 -0.000361575 0)
(0.0004484 -0.000364056 0)
(0.000444918 -0.000366522 0)
(0.000441447 -0.000368973 0)
(0.000437984 -0.000371409 0)
(0.000434529 -0.000373831 0)
(0.000431079 -0.000376238 0)
(0.000427632 -0.000378631 0)
(0.000424187 -0.00038101 0)
(0.00042074 -0.000383376 0)
(0.000417291 -0.000385728 0)
(0.000413837 -0.000388069 0)
(0.000410376 -0.000390397 0)
(0.000406907 -0.000392713 0)
(0.000403426 -0.000395018 0)
(0.000399933 -0.000397313 0)
(0.000396425 -0.000399598 0)
(0.000392899 -0.000401873 0)
(0.000389355 -0.00040414 0)
(0.000385789 -0.000406399 0)
(0.0003822 -0.00040865 0)
(0.000378585 -0.000410895 0)
(0.000374943 -0.000413134 0)
(0.000371271 -0.000415368 0)
(0.000367567 -0.000417598 0)
(0.000363829 -0.000419825 0)
(0.000360055 -0.00042205 0)
(0.000356242 -0.000424274 0)
(0.000352389 -0.000426498 0)
(0.000348493 -0.000428723 0)
(0.000344551 -0.000430951 0)
(0.000340562 -0.000433182 0)
(0.000336524 -0.000435418 0)
(0.000332434 -0.00043766 0)
(0.000328291 -0.00043991 0)
(0.000324093 -0.00044217 0)
(2.23449e-05 -0.00057699 0)
(4.46725e-05 -0.000576553 0)
(6.69861e-05 -0.000575678 0)
(8.92637e-05 -0.000574401 0)
(0.000111489 -0.000572737 0)
(0.000133648 -0.000570695 0)
(0.000155727 -0.000568284 0)
(0.000177714 -0.000565513 0)
(0.000199597 -0.000562388 0)
(0.000221363 -0.00055892 0)
(0.000243001 -0.000555117 0)
(0.0002645 -0.000550988 0)
(0.000285847 -0.000546544 0)
(0.000307033 -0.000541796 0)
(0.000328046 -0.000536754 0)
(0.000348876 -0.00053143 0)
(0.000369513 -0.000525835 0)
(0.000389949 -0.000519982 0)
(0.000410173 -0.000513883 0)
(0.000430177 -0.00050755 0)
(0.000449952 -0.000500996 0)
(0.000469492 -0.000494232 0)
(0.000488787 -0.00048727 0)
(0.000507831 -0.000480124 0)
(0.000526617 -0.000472805 0)
(0.000545138 -0.000465324 0)
(0.000563389 -0.000457694 0)
(0.000581363 -0.000449924 0)
(0.000599055 -0.000442027 0)
(0.000616459 -0.000434012 0)
(0.000633572 -0.00042589 0)
(0.000650388 -0.000417671 0)
(0.000666903 -0.000409362 0)
(0.000683113 -0.000400974 0)
(0.000699014 -0.000392515 0)
(0.000714604 -0.000383993 0)
(0.000729877 -0.000375415 0)
(0.000744833 -0.000366788 0)
(0.000759467 -0.000358118 0)
(0.000787761 -0.000340677 0)
(0.000801417 -0.000331916 0)
(0.000814742 -0.000323134 0)
(0.000827735 -0.000314335 0)
(0.000840393 -0.000305524 0)
(0.000852715 -0.000296705 0)
(0.0008647 -0.000287879 0)
(0.000876345 -0.00027905 0)
(0.00088765 -0.00027022 0)
(0.000898613 -0.000261391 0)
(0.000909232 -0.000252565 0)
(0.000919506 -0.000243744 0)
(0.000929434 -0.000234928 0)
(0.000939015 -0.00022612 0)
(0.000948246 -0.000217319 0)
(0.000957127 -0.000208527 0)
(0.000965657 -0.000199743 0)
(0.000973834 -0.00019097 0)
(0.000981658 -0.000182205 0)
(0.000989126 -0.000173451 0)
(0.000996238 -0.000164706 0)
(0.00100299 -0.000155971 0)
(0.00100939 -0.000147246 0)
(0.00101543 -0.00013853 0)
(0.0010211 -0.000129824 0)
(0.00102642 -0.000121126 0)
(0.00103137 -0.000112437 0)
(0.00103597 -0.000103756 0)
(0.00104019 -9.50828e-05 0)
(0.00104406 -8.64167e-05 0)
(0.00104756 -7.77573e-05 0)
(0.00105069 -6.91041e-05 0)
(0.00105346 -6.04568e-05 0)
(0.00105587 -5.18149e-05 0)
(0.00105791 -4.3178e-05 0)
(0.00105958 -3.4546e-05 0)
(0.0010609 -2.59188e-05 0)
(0.00106187 -1.72959e-05 0)
(0.0010625 -8.67274e-06 0)
(0.000765971 -0.000343068 0)
(0.000758555 -0.000337079 0)
(0.000751511 -0.000331425 0)
(0.000744821 -0.000326082 0)
(0.000738469 -0.000321032 0)
(0.000732437 -0.000316256 0)
(0.00072671 -0.000311735 0)
(0.000721275 -0.000307456 0)
(0.000716118 -0.000303401 0)
(0.000711225 -0.000299558 0)
(0.000706585 -0.000295913 0)
(0.000702185 -0.000292455 0)
(0.000698014 -0.000289171 0)
(0.000694063 -0.000286052 0)
(0.00069032 -0.000283087 0)
(0.000686778 -0.000280268 0)
(0.000683425 -0.000277585 0)
(0.000680255 -0.00027503 0)
(0.000677259 -0.000272596 0)
(0.000674429 -0.000270276 0)
(0.000671759 -0.000268063 0)
(0.00066924 -0.00026595 0)
(0.000666866 -0.000263931 0)
(0.000664631 -0.000262002 0)
(0.00066253 -0.000260157 0)
(0.000660556 -0.00025839 0)
(0.000658703 -0.000256698 0)
(0.000656968 -0.000255075 0)
(0.000655344 -0.000253518 0)
(0.000653827 -0.000252022 0)
(0.000652413 -0.000250584 0)
(0.000651098 -0.000249199 0)
(0.000649877 -0.000247865 0)
(0.000648747 -0.000246577 0)
(0.000647705 -0.000245332 0)
(0.000646745 -0.000244126 0)
(0.000645866 -0.000242953 0)
(0.000645063 -0.000241807 0)
(0.000644328 -0.000240677 0)
(0.000765971 -0.000343068 0)
(0.000758555 -0.000337079 0)
(0.000751511 -0.000331425 0)
(0.000744821 -0.000326082 0)
(0.000738469 -0.000321032 0)
(0.000732437 -0.000316256 0)
(0.00072671 -0.000311735 0)
(0.000721275 -0.000307456 0)
(0.000716118 -0.000303401 0)
(0.000711225 -0.000299558 0)
(0.000706585 -0.000295913 0)
(0.000702185 -0.000292455 0)
(0.000698014 -0.000289171 0)
(0.000694063 -0.000286052 0)
(0.00069032 -0.000283087 0)
(0.000686778 -0.000280268 0)
(0.000683425 -0.000277585 0)
(0.000680255 -0.00027503 0)
(0.000677259 -0.000272596 0)
(0.000674429 -0.000270276 0)
(0.000671759 -0.000268063 0)
(0.00066924 -0.00026595 0)
(0.000666866 -0.000263931 0)
(0.000664631 -0.000262002 0)
(0.00066253 -0.000260157 0)
(0.000660556 -0.00025839 0)
(0.000658703 -0.000256698 0)
(0.000656968 -0.000255075 0)
(0.000655344 -0.000253518 0)
(0.000653827 -0.000252022 0)
(0.000652413 -0.000250584 0)
(0.000651098 -0.000249199 0)
(0.000649877 -0.000247865 0)
(0.000648747 -0.000246577 0)
(0.000647705 -0.000245332 0)
(0.000646745 -0.000244126 0)
(0.000645866 -0.000242953 0)
(0.000645063 -0.000241807 0)
(0.000644328 -0.000240677 0)
(0.000625142 -0.000252446 0)
(0.000606616 -0.000265529 0)
(0.000588074 -0.000278865 0)
(0.000569527 -0.000292462 0)
(0.000550991 -0.00030631 0)
(0.000532483 -0.00032039 0)
(0.000514022 -0.000334682 0)
(0.000495626 -0.000349163 0)
(0.000477313 -0.000363806 0)
(0.000459099 -0.000378584 0)
(0.000441002 -0.000393467 0)
(0.000423037 -0.000408421 0)
(0.000405221 -0.000423414 0)
(0.000387566 -0.000438409 0)
(0.000370086 -0.000453368 0)
(0.000352794 -0.000468252 0)
(0.0003357 -0.000483021 0)
(0.000318814 -0.000497631 0)
(0.000302145 -0.00051204 0)
(0.000285699 -0.000526201 0)
(0.000269482 -0.00054007 0)
(0.000253499 -0.0005536 0)
(0.000237751 -0.000566744 0)
(0.000222239 -0.000579456 0)
(0.000206963 -0.000591687 0)
(0.000191919 -0.000603392 0)
(0.000177104 -0.000614525 0)
(0.00016251 -0.00062504 0)
(0.000148129 -0.000634896 0)
(0.000133952 -0.000644049 0)
(0.000119966 -0.000652462 0)
(0.000106158 -0.000660096 0)
(9.25128e-05 -0.000666918 0)
(7.90138e-05 -0.000672898 0)
(6.56428e-05 -0.000678007 0)
(5.23805e-05 -0.000682222 0)
(3.92067e-05 -0.000685524 0)
(2.60999e-05 -0.000687897 0)
(1.3038e-05 -0.000689331 0)
(0 -0.000688126 0)
(0 -0.000686411 0)
(0 -0.000684686 0)
(0 -0.000682948 0)
(0 -0.000681196 0)
(0 -0.000679428 0)
(0 -0.000677642 0)
(0 -0.000675836 0)
(0 -0.000674007 0)
(0 -0.000672153 0)
(0 -0.000670272 0)
(0 -0.00066836 0)
(0 -0.000666414 0)
(0 -0.000664431 0)
(0 -0.000662408 0)
(0 -0.000660339 0)
(0 -0.000658221 0)
(0 -0.000656048 0)
(0 -0.000653816 0)
(0 -0.00065152 0)
(0 -0.000649152 0)
(0 -0.000646706 0)
(0 -0.000644176 0)
(0 -0.000641553 0)
(0 -0.000638829 0)
(0 -0.000635994 0)
(0 -0.000633039 0)
(0 -0.000629953 0)
(0 -0.000626724 0)
(0 -0.000623339 0)
(0 -0.000619783 0)
(0 -0.000616042 0)
(0 -0.000612097 0)
(0 -0.00060793 0)
(0 -0.000603519 0)
(0 -0.000598841 0)
(0 -0.000593868 0)
(0 -0.000588567 0)
(0 -0.000582902 0)
(2.23449e-05 -0.00057699 0)
(4.46725e-05 -0.000576553 0)
(6.69861e-05 -0.000575678 0)
(8.92637e-05 -0.000574401 0)
(0.000111489 -0.000572737 0)
(0.000133648 -0.000570695 0)
(0.000155727 -0.000568284 0)
(0.000177714 -0.000565513 0)
(0.000199597 -0.000562388 0)
(0.000221363 -0.00055892 0)
(0.000243001 -0.000555117 0)
(0.0002645 -0.000550988 0)
(0.000285847 -0.000546544 0)
(0.000307033 -0.000541796 0)
(0.000328046 -0.000536754 0)
(0.000348876 -0.00053143 0)
(0.000369513 -0.000525835 0)
(0.000389949 -0.000519982 0)
(0.000410173 -0.000513883 0)
(0.000430177 -0.00050755 0)
(0.000449952 -0.000500996 0)
(0.000469492 -0.000494232 0)
(0.000488787 -0.00048727 0)
(0.000507831 -0.000480124 0)
(0.000526617 -0.000472805 0)
(0.000545138 -0.000465324 0)
(0.000563389 -0.000457694 0)
(0.000581363 -0.000449924 0)
(0.000599055 -0.000442027 0)
(0.000616459 -0.000434012 0)
(0.000633572 -0.00042589 0)
(0.000650388 -0.000417671 0)
(0.000666903 -0.000409362 0)
(0.000683113 -0.000400974 0)
(0.000699014 -0.000392515 0)
(0.000714604 -0.000383993 0)
(0.000729877 -0.000375415 0)
(0.000744833 -0.000366788 0)
(0.000759467 -0.000358118 0)
(0.000787761 -0.000340677 0)
(0.000801417 -0.000331916 0)
(0.000814742 -0.000323134 0)
(0.000827735 -0.000314335 0)
(0.000840393 -0.000305524 0)
(0.000852715 -0.000296705 0)
(0.0008647 -0.000287879 0)
(0.000876345 -0.00027905 0)
(0.00088765 -0.00027022 0)
(0.000898613 -0.000261391 0)
(0.000909232 -0.000252565 0)
(0.000919506 -0.000243744 0)
(0.000929434 -0.000234928 0)
(0.000939015 -0.00022612 0)
(0.000948246 -0.000217319 0)
(0.000957127 -0.000208527 0)
(0.000965657 -0.000199743 0)
(0.000973834 -0.00019097 0)
(0.000981658 -0.000182205 0)
(0.000989126 -0.000173451 0)
(0.000996238 -0.000164706 0)
(0.00100299 -0.000155971 0)
(0.00100939 -0.000147246 0)
(0.00101543 -0.00013853 0)
(0.0010211 -0.000129824 0)
(0.00102642 -0.000121126 0)
(0.00103137 -0.000112437 0)
(0.00103597 -0.000103756 0)
(0.00104019 -9.50828e-05 0)
(0.00104406 -8.64167e-05 0)
(0.00104756 -7.77573e-05 0)
(0.00105069 -6.91041e-05 0)
(0.00105346 -6.04568e-05 0)
(0.00105587 -5.18149e-05 0)
(0.00105791 -4.3178e-05 0)
(0.00105958 -3.4546e-05 0)
(0.0010609 -2.59188e-05 0)
(0.00106187 -1.72959e-05 0)
(0.0010625 -8.67274e-06 0)
(0.00106506 0 0)
(0.00106708 0 0)
(0.00106895 0 0)
(0.00107069 0 0)
(0.00107231 0 0)
(0.00107381 0 0)
(0.0010752 0 0)
(0.0010765 0 0)
(0.00107771 0 0)
(0.00107883 0 0)
(0.00107989 0 0)
(0.00108087 0 0)
(0.0010818 0 0)
(0.00108267 0 0)
(0.00108349 0 0)
(0.00108427 0 0)
(0.00108502 0 0)
(0.00108572 0 0)
(0.0010864 0 0)
(0.00108705 0 0)
(0.00108769 0 0)
(0.0010883 0 0)
(0.00108889 0 0)
(0.00108948 0 0)
(0.00109005 0 0)
(0.00109062 0 0)
(0.00109118 0 0)
(0.00109173 0 0)
(0.00109229 0 0)
(0.00109284 0 0)
(0.0010934 0 0)
(0.00109396 0 0)
(0.00109452 0 0)
(0.00109509 0 0)
(0.00109567 0 0)
(0.00109626 0 0)
(0.00109685 0 0)
(0.00109745 0 0)
(0.00109807 0 0)
(0.00109839 -1.96172e-06 0)
(0.00109737 -3.93179e-06 0)
(0.00109565 -5.93535e-06 0)
(0.00109323 -7.9921e-06 0)
(0.00109013 -1.01207e-05 0)
(0.00108635 -1.23395e-05 0)
(0.00108189 -1.46663e-05 0)
(0.00107676 -1.71189e-05 0)
(0.00107097 -1.97145e-05 0)
(0.00106453 -2.24702e-05 0)
(0.00105745 -2.54026e-05 0)
(0.00104974 -2.85279e-05 0)
(0.00104141 -3.18618e-05 0)
(0.00103247 -3.54196e-05 0)
(0.00102293 -3.9216e-05 0)
(0.00101282 -4.32653e-05 0)
(0.00100214 -4.75811e-05 0)
(0.000990913 -5.21765e-05 0)
(0.000979152 -5.70637e-05 0)
(0.000966875 -6.22544e-05 0)
(0.0009541 -6.77595e-05 0)
(0.000940844 -7.35892e-05 0)
(0.000927127 -7.97527e-05 0)
(0.000912968 -8.62587e-05 0)
(0.000898387 -9.31146e-05 0)
(0.000883404 -0.000100327 0)
(0.00086804 -0.000107902 0)
(0.000852316 -0.000115843 0)
(0.000836253 -0.000124155 0)
(0.000819873 -0.000132839 0)
(0.000803198 -0.000141898 0)
(0.00078625 -0.000151329 0)
(0.000769051 -0.000161133 0)
(0.000751626 -0.000171305 0)
(0.000733995 -0.00018184 0)
(0.000716184 -0.000192731 0)
(0.000698215 -0.000203966 0)
(0.000680116 -0.00021553 0)
(0.000661913 -0.0002274 0)
(0.00110038 0 0)
(0.00110214 0 0)
(0.00110398 0 0)
(0.00110592 0 0)
(0.00110797 0 0)
(0.00111012 0 0)
(0.00111239 0 0)
(0.00111478 0 0)
(0.00111728 0 0)
(0.0011199 0 0)
(0.00112264 0 0)
(0.0011255 0 0)
(0.00112848 0 0)
(0.00113158 0 0)
(0.0011348 0 0)
(0.00113813 0 0)
(0.00114158 0 0)
(0.00114514 0 0)
(0.00114881 0 0)
(0.0011526 0 0)
(0.00115649 0 0)
(0.0011605 0 0)
(0.00116461 0 0)
(0.00116883 0 0)
(0.00117315 0 0)
(0.00117757 0 0)
(0.00118209 0 0)
(0.00118671 0 0)
(0.00119143 0 0)
(0.00119624 0 0)
(0.00120115 0 0)
(0.00120615 0 0)
(0.00121124 0 0)
(0.00121642 0 0)
(0.00122169 0 0)
(0.00122704 0 0)
(0.00123248 0 0)
(0.00123799 0 0)
(0.00124359 0 0)
(0.00124927 0 0)
(0.00125503 0 0)
(0.00126086 0 0)
(0.00126676 0 0)
(0.00127274 0 0)