/*--------------------------------*- C++ -*----------------------------------*\
| =========                 |                                                 |
| \\      /  F ield         | OpenFOAM: The Open Source CFD Toolbox           |
|  \\    /   O peration     | Version:  v2012                                 |
|   \\  /    A nd           | Website:  www.openfoam.com                      |
|    \\/     M anipulation  |                                                 |
\*---------------------------------------------------------------------------*/
FoamFile
{
    version     2.0;
    format      ascii;
    class       volSymmTensorField;
    location    "2";
    object      epsilon;
}
// * * * * * * * * * * * * * * * * * * * * * * * * * * * * * * * * * * * * * //

dimensions      [0 0 0 0 0 0 0];


internalField   nonuniform List<symmTensor> 
7666
(
(0.000113079 -2.95598e-05 9.49761e-17 -5.23402e-05 -6.4366e-18 0)
(0.000276584 -9.55131e-05 -8.23994e-17 -8.57898e-05 1.39374e-16 0)
(0.000956739 -0.000225641 -1.36864e-15 -0.000337491 1.06891e-15 0)
(0.00032614 -0.000121393 6.71555e-16 -0.000124777 3.21737e-17 0)
(0.000506948 -8.06603e-05 7.46148e-16 -0.000277266 -8.43238e-17 0)
(0.000569049 9.44558e-06 1.36631e-15 -0.000273246 8.39118e-16 0)
(0.000328933 -1.88353e-05 2.39609e-16 -0.00010458 -2.5764e-16 0)
(0.000341707 -0.000111616 3.9053e-16 -0.000129657 -5.6243e-17 0)
(0.000609207 1.07339e-05 5.02528e-16 -0.000263774 -5.37276e-16 0)
(0.000320715 -3.44929e-05 9.95298e-17 -9.15338e-05 -5.1791e-17 0)
(0.000235274 -0.000116333 5.85469e-18 -8.52405e-05 2.17762e-16 0)
(0.00035809 -4.70921e-05 -9.88792e-17 -0.000142852 -1.09125e-16 0)
(0.000334081 -0.00011449 -2.42861e-17 -0.000126405 -2.3103e-16 0)
(0.000310686 -9.57871e-05 -2.86446e-16 -0.000102289 -2.8421e-16 0)
(0.000321083 -1.32123e-05 -6.04985e-17 -8.93754e-05 9.65618e-18 0)
(0.000559817 -0.000118198 5.41017e-17 -0.000282041 4.39265e-16 0)
(0.000341609 -0.000110883 2.37657e-16 -0.000128078 -1.92283e-16 0)
(0.000590269 -1.25656e-05 -8.0643e-16 -0.000253147 -4.29452e-16 0)
(0.000373456 -7.18197e-05 -9.43256e-17 -0.000149443 -1.89586e-16 0)
(0.000293678 -6.33934e-05 -6.83047e-17 -8.30593e-05 -1.35451e-16 0)
(0.000237051 -2.88013e-05 -2.83627e-16 -5.68885e-05 -1.69818e-16 0)
(0.000455712 -8.63512e-05 1.71521e-16 -0.000196798 1.16741e-16 0)
(0.000321803 -9.74246e-05 -3.14419e-17 -0.000110091 -4.38831e-17 0)
(0.000308419 -0.000138485 -8.80372e-17 -0.000127352 -1.88841e-16 0)
(0.000580737 3.2466e-05 1.52265e-15 -0.000295581 -2.62648e-16 0)
(0.000320963 -1.28569e-05 -2.08167e-16 -8.69557e-05 -2.82096e-17 0)
(0.00058724 4.28172e-05 5.11635e-16 -0.000293549 -4.97866e-16 0)
(0.000195534 -0.00012322 1.65883e-16 -9.01108e-05 7.18453e-17 0)
(0.00033842 -0.000112932 1.80845e-16 -0.000125903 -2.543e-16 0)
(0.000351138 -6.46767e-06 -7.69784e-17 -0.000147937 2.10606e-17 0)
(0.000357442 -6.58069e-06 4.77049e-17 -0.000153216 -2.63732e-17 0)
(0.00059085 -1.85717e-05 1.73256e-16 -0.000255071 6.12574e-17 0)
(0.000114066 -0.000107132 5.20417e-18 -9.85943e-05 3.51485e-17 0)
(0.000344403 -1.95738e-05 -1.6263e-17 -0.000136195 9.78357e-17 0)
(0.000109367 -9.1007e-05 8.23994e-18 -0.000166252 -8.91079e-18 0)
(0.000269163 -7.13208e-05 -1.63715e-16 -7.62288e-05 8.39037e-17 0)
(0.000267967 -6.50193e-05 -3.01842e-16 -7.32014e-05 1.21061e-16 0)
(0.000354802 -1.56598e-05 1.91253e-16 -0.000148269 -2.61022e-17 0)
(0.000548023 -3.91392e-05 -7.17525e-16 -0.000246687 2.27737e-16 0)
(0.000322191 -4.47282e-05 2.71051e-16 -9.6048e-05 3.53179e-17 0)
(0.000328146 -0.000155773 -1.26635e-16 -0.000250347 -2.12504e-17 0)
(0.000666825 6.51401e-05 1.5783e-15 -0.000223615 -1.09645e-15 0)
(0.000642489 1.89327e-05 1.04513e-15 -0.000197482 4.23923e-17 0)
(0.000241366 -0.000149665 3.5822e-16 -0.000119677 1.01115e-16 0)
(0.000553068 7.49218e-05 -3.2007e-16 -0.000187062 -1.37694e-16 0)
(0.000326682 -1.46617e-05 1.42898e-16 -0.000102777 -2.9409e-17 0)
(0.00058272 1.37906e-05 5.61834e-16 -0.000256924 2.33266e-16 0)
(0.0003512 -0.000162788 -2.84711e-16 -0.000261122 1.02837e-16 0)
(0.000422305 -0.000144487 -1.17419e-16 -0.000268848 -2.03125e-16 0)
(0.000185102 -3.14849e-05 1.89519e-16 -4.38799e-05 -1.13519e-16 0)
(0.000179668 -0.000127012 1.48319e-16 -8.93274e-05 2.69458e-17 0)
(0.000452976 -5.31068e-05 -1.1666e-16 -0.000195019 -3.99339e-16 0)
(0.000331829 -1.11259e-05 -1.07119e-16 -0.000111026 -2.58582e-17 0)
(0.000617974 4.30865e-06 5.80536e-16 -0.000262849 -2.35435e-16 0)
(0.00022019 -1.7013e-05 -1.88434e-16 -4.92156e-05 7.42568e-17 0)
(0.000529029 -0.000122965 -3.03577e-18 -0.000268938 1.87025e-16 0)
(0.000188888 -4.64481e-05 4.70544e-17 -4.63662e-05 -1.56271e-16 0)
(0.000179193 -3.84563e-05 9.43256e-17 -4.44346e-05 -1.77497e-16 0)
(0.000604022 1.53481e-05 1.33845e-15 -0.000324907 -2.67581e-16 0)
(0.000570321 1.35022e-05 4.48318e-16 -0.000264759 8.26813e-16 0)
(0.000218493 -6.92976e-05 -9.5193e-17 -5.81598e-05 3.96276e-17 0)
(0.000355539 -1.49728e-05 -6.09322e-17 -0.000147635 -5.31259e-17 0)
(0.000320558 -0.000109486 -2.23562e-16 -0.000114491 -1.46957e-16 0)
(0.000321275 -0.000111729 -7.26415e-17 -0.000116837 -1.84877e-16 0)
(0.000179179 -5.60846e-05 -1.88651e-17 -4.85043e-05 -7.94593e-17 0)
(0.000431632 -0.000143906 -5.35813e-16 -0.000268314 2.16596e-16 0)
(0.000306951 -3.60915e-05 -2.23129e-16 -7.80134e-05 -1.09091e-16 0)
(0.0001885 -5.65071e-05 5.74627e-17 -4.89866e-05 -9.42333e-17 0)
(0.000621514 -3.98038e-05 -3.02492e-16 -0.000322071 1.2895e-15 0)
(0.000606064 1.28653e-05 1.40068e-15 -0.000329569 -5.9501e-16 0)
(0.000616692 -3.81606e-05 1.50867e-15 -0.000318216 1.62966e-15 0)
(0.000303404 -5.96904e-06 3.0336e-16 -4.75787e-05 1.23159e-18 0)
(0.000304434 -6.62969e-06 1.2837e-16 -5.08401e-05 5.74797e-18 0)
(0.000347827 -3.1978e-06 3.92481e-17 -0.000146793 2.85254e-16 0)
(0.000347612 -3.12447e-06 -6.59195e-17 -0.000146636 2.48255e-16 0)
(0.000330363 -3.56057e-06 -3.26562e-16 -0.000108866 1.45602e-16 0)
(0.000473395 6.29283e-05 5.18384e-16 -0.000180447 -7.26958e-16 0)
(0.00030719 -0.000102436 -2.58474e-16 -0.000102834 -4.60989e-17 0)
(0.000306696 -0.000104417 -2.06866e-16 -0.00010562 -2.20161e-16 0)
(0.000218861 -6.95155e-05 -2.23562e-16 -5.97287e-05 2.52585e-17 0)
(0.000334591 -3.66085e-05 2.2443e-16 -0.000113833 4.32461e-17 0)
(0.000307042 -1.71933e-05 9.95298e-17 -6.18765e-05 6.45744e-17 0)
(0.00030033 -0.000158621 -5.31259e-17 -0.000159759 -1.13841e-18 0)
(0.000609921 2.40872e-05 1.55681e-15 -0.00017978 -1.73472e-17 0)
(0.000372712 -3.76295e-05 2.05782e-16 -0.000156316 1.59947e-16 0)
(0.000440554 -1.27682e-05 -1.5786e-16 -0.000187846 -1.28776e-16 0)
(0.000435478 -2.01498e-05 7.80626e-18 -0.000187751 -3.18213e-17 0)
(0.00046744 -6.46185e-05 -4.48426e-16 -0.000197799 6.34285e-16 0)
(0.000385431 -0.000159097 5.60533e-17 -0.00026043 -3.90584e-17 0)
(0.000354914 -9.71045e-06 -1.32273e-17 -0.000150616 -1.95698e-17 0)
(0.00033042 -7.52071e-05 1.55041e-16 -0.000112937 -1.94587e-16 0)
(0.000332871 -7.31221e-05 4.9483e-16 -0.0001123 -2.20188e-16 0)
(0.000473704 -4.93434e-06 9.13982e-16 -0.000202162 -2.70102e-16 0)
(0.00065812 4.78955e-05 -1.08583e-16 -0.000317284 1.64436e-15 0)
(0.00056178 1.11088e-05 1.81588e-15 -0.000242643 -2.28116e-16 0)
(0.000509477 -0.000113568 -6.69278e-16 -0.000316533 -3.24962e-16 0)
(8.50325e-05 -3.58004e-05 -3.46945e-17 -0.000214819 -1.06564e-16 0)
(0.0009718 -0.000334419 -3.58887e-15 -0.000329521 -7.45714e-16 0)
(0.000376951 -6.79485e-05 -6.61363e-17 -0.000150878 -1.30701e-16 0)
(0.000288737 -6.03258e-05 -7.069e-17 -8.13753e-05 -1.39334e-16 0)
(0.000474267 -6.46393e-06 6.55725e-16 -0.000204722 5.68393e-17 0)
(0.000348932 -4.5716e-06 1.22732e-16 -0.000147262 1.01834e-16 0)
(0.000161708 -0.000125009 8.21825e-17 -0.000103371 7.8896e-17 0)
(0.000738363 1.70961e-05 1.99894e-15 -0.000265668 -1.30267e-15 0)
(0.000220253 -0.00016963 1.58294e-16 -0.000177913 1.54878e-16 0)
(0.000533761 -4.61531e-05 -6.65592e-16 -0.000235506 3.17292e-16 0)
(0.000628884 7.1397e-05 1.03105e-15 -0.000209637 6.38595e-16 0)
(0.000494156 -7.86908e-05 -2.85579e-16 -0.000243495 -3.38271e-16 0)
(0.00032817 -1.287e-05 3.59955e-16 -0.000105212 -8.13084e-17 0)
(0.000453662 -3.73542e-05 6.01949e-16 -0.000195061 -7.31836e-16 0)
(0.00030197 -0.00011574 2.43729e-16 -0.000107974 -1.73215e-16 0)
(0.000459544 -0.000106834 -5.50016e-16 -0.000225783 -2.8894e-16 0)
(0.000264113 -0.000111865 1.47451e-17 -8.89521e-05 -1.16389e-16 0)
(0.000213305 -6.1824e-05 -1.77159e-16 -5.60847e-05 7.87622e-17 0)
(0.000222587 -0.000117626 3.20924e-17 -8.22357e-05 1.06685e-16 0)
(0.000522597 -5.60941e-05 5.39933e-17 -0.000275677 1.28668e-16 0)
(0.000201409 -0.000124716 -1.043e-16 -8.60634e-05 2.83214e-17 0)
(0.00010082 -6.61006e-05 5.68122e-17 -0.00020375 4.48318e-17 0)
(0.000361005 -2.36156e-05 1.56992e-16 -0.000149995 -4.05763e-17 0)
(0.00036008 -2.64838e-05 -1.22081e-16 -0.000147857 -6.59195e-17 0)
(0.000600252 5.57771e-06 2.86013e-16 -0.00026338 -1.16704e-15 0)
(0.000345316 -1.49127e-06 3.65376e-16 -0.000143824 -3.13768e-16 0)
(0.000348716 -5.25289e-05 8.06646e-17 -0.000129165 7.97024e-17 0)
(0.000320951 -1.81422e-05 -1.13408e-16 -8.65747e-05 -1.75302e-17 0)
(0.000304232 -0.000132765 3.23092e-17 -0.000121522 -2.45213e-16 0)
(0.000178658 -6.69087e-06 4.11997e-18 -4.10659e-05 -4.18981e-17 0)
(0.000487358 -8.62838e-05 1.68919e-16 -0.000243056 9.80661e-17 0)
(0.00043107 -0.000115376 2.24647e-16 -0.000196137 1.58022e-17 0)
(0.000343965 -0.000141489 -1.9494e-16 -0.000156193 -6.9931e-17 0)
(0.00033813 -9.00252e-05 -4.67074e-16 -0.000120657 1.77525e-16 0)
(0.000556554 -0.000120147 -1.03758e-16 -0.000268861 3.54534e-16 0)
(0.000403489 -4.94651e-05 2.93168e-16 -0.000168921 2.03342e-16 0)
(0.000268306 -3.92204e-05 -5.96962e-16 -6.84392e-05 -1.02862e-16 0)
(0.000453557 3.12746e-05 5.5418e-16 -0.000168837 -1.07488e-15 0)
(0.000349423 -5.08817e-05 2.47632e-16 -0.000132108 8.98261e-17 0)
(0.000537297 -5.0539e-05 -9.34365e-16 -0.000239705 9.24011e-17 0)
(0.00033309 -3.63658e-05 1.54607e-16 -0.000113072 3.99935e-17 0)
(0.000322574 -4.45557e-05 3.49764e-16 -9.69673e-05 -2.95106e-17 0)
(0.000315766 -8.43747e-05 -1.0777e-16 -0.000104572 4.78743e-17 0)
(0.000295285 -0.000127024 1.13624e-16 -0.000113016 1.18923e-17 0)
(0.000356325 -0.000144026 -2.9577e-16 -0.000165012 -1.5023e-16 0)
(0.000307005 -1.49229e-05 3.79471e-17 -5.95968e-05 7.4749e-17 0)
(0.000299989 -8.21719e-06 1.52222e-16 -6.79997e-05 8.1604e-17 0)
(0.000301613 -8.65674e-06 1.40513e-16 -6.78926e-05 1.9829e-17 0)
(0.000309619 -3.70779e-05 3.96818e-17 -7.98109e-05 -2.05971e-16 0)
(0.000312495 -6.19918e-05 -3.92481e-17 -9.34811e-05 2.58169e-16 0)
(0.000327663 -1.97938e-05 -1.2902e-16 -0.000104989 -1.8199e-16 0)
(0.000308359 -1.35296e-05 -1.18612e-16 -6.02556e-05 1.24141e-17 0)
(0.00011177 -5.39744e-05 -3.27429e-17 -5.42572e-05 4.16478e-17 0)
(0.00035736 -9.44902e-05 -4.74447e-16 -0.000137887 1.99764e-17 0)
(0.000321925 -3.07946e-05 1.1666e-16 -8.9525e-05 8.11864e-17 0)
(0.000419627 -0.000145673 -3.33717e-16 -0.000280574 1.1788e-16 0)
(0.000225918 -7.83069e-05 -2.81242e-16 -6.26129e-05 2.80402e-17 0)
(0.0003159 -0.000162084 -1.29671e-16 -0.000246029 -3.28784e-17 0)
(0.000296643 -3.77501e-05 -1.05168e-16 -7.59993e-05 -7.67547e-17 0)
(0.00029563 -3.7076e-05 8.58688e-17 -7.64437e-05 1.11503e-17 0)
(0.000316143 -0.000167619 -3.23526e-16 -0.000240322 6.95922e-17 0)
(0.000381625 -0.000142637 2.00794e-16 -0.000184581 -1.86835e-16 0)
(0.000321718 -0.000130942 -1.38778e-16 -0.000129471 -2.70292e-16 0)
(0.000340031 -1.75128e-05 1.50054e-16 -0.000125911 -1.96512e-17 0)
(0.000671975 7.13555e-05 1.48731e-15 -0.000263505 -2.47415e-16 0)
(0.000417604 1.61372e-05 -3.34991e-16 -0.000179449 -1.62847e-16 0)
(0.000450678 -8.62276e-05 2.86229e-16 -0.000192359 -8.9528e-17 0)
(0.00062713 6.37946e-05 1.50888e-15 -0.000195853 6.40872e-16 0)
(0.000806809 -1.89253e-05 -5.39282e-16 -0.000279165 7.78457e-17 0)
(0.000761545 -2.49953e-05 -2.2714e-16 -0.000271231 4.55148e-16 0)
(0.000329004 -0.000135955 -1.30104e-16 -0.000135553 -1.69773e-16 0)
(0.000176997 -4.57409e-05 -2.1684e-18 -4.53645e-05 -1.07086e-16 0)
(0.000177271 -4.60681e-05 6.50521e-17 -4.6223e-05 -1.3136e-16 0)
(0.000671255 9.41295e-05 -7.36932e-16 -0.000267222 2.2508e-16 0)
(0.000268741 -0.00010035 2.92084e-16 -8.551e-05 -2.23549e-17 0)
(0.000222947 -0.00010842 6.87384e-17 -7.83378e-05 1.03684e-16 0)
(0.000427858 -8.9521e-05 -1.11846e-15 -0.000180917 1.71168e-16 0)
(0.000409187 -4.14627e-05 -3.51932e-16 -0.000175237 -1.21214e-16 0)
(0.000396072 -0.000156289 -2.96855e-16 -0.000278589 1.19723e-16 0)
(0.000211263 -1.67866e-05 -2.91867e-16 -4.86015e-05 1.0078e-17 0)
(0.000459879 -0.00010457 -9.49219e-16 -0.000218068 -2.0467e-16 0)
(0.000524602 1.32441e-05 -2.97288e-16 -0.000225675 2.47198e-16 0)
(0.000368956 -1.59151e-05 -1.53957e-16 -0.000157357 -9.47051e-17 0)
(0.000332921 -0.000123876 3.29814e-16 -0.000129478 9.85269e-18 0)
(0.000439742 -9.82999e-05 2.43512e-16 -0.000190785 3.07995e-16 0)
(9.51852e-05 -1.82751e-05 -1.24466e-16 -0.000269612 -2.53331e-17 0)
(0.000419323 -7.94352e-05 -7.06249e-16 -0.000175115 -3.72396e-16 0)
(9.33746e-05 -6.5643e-05 -2.90566e-17 -0.000204755 2.09319e-17 0)
(0.00040786 -0.000148846 -8.58471e-16 -0.000255254 2.62025e-16 0)
(0.000506295 -0.000101572 -4.06359e-16 -0.000311508 -8.0128e-16 0)
(0.000304204 -1.48863e-06 2.03613e-16 -5.12271e-05 7.58922e-17 0)
(0.000347702 4.68302e-08 -5.66387e-16 -0.000148995 1.47479e-16 0)
(0.000596945 8.35758e-06 4.64039e-16 -0.000322299 -4.21267e-16 0)
(0.0003411 -2.65312e-05 6.657e-17 -0.000128496 -2.67717e-16 0)
(0.000272144 -0.00010648 -3.40439e-17 -8.93863e-05 -2.57566e-17 0)
(0.000320798 -5.92783e-05 -1.02349e-16 -0.000100409 1.61817e-17 0)
(0.000321068 -5.80714e-05 -3.01408e-17 -9.75685e-05 -1.99019e-17 0)
(0.000314588 -8.04913e-05 2.44162e-16 -0.000102726 1.33221e-17 0)
(0.000478247 -9.56864e-05 -4.12864e-16 -0.000250295 7.16983e-16 0)
(0.000546855 8.90686e-05 1.28863e-15 -0.000242591 3.24285e-16 0)
(0.000290949 -0.00010251 -2.14889e-16 -9.58589e-05 -2.34255e-16 0)
(0.000331444 -4.35928e-06 -3.49764e-16 -0.000112111 1.88272e-16 0)
(0.000326845 -1.97889e-05 -1.98843e-16 -9.87708e-05 3.59277e-17 0)
(0.000115425 8.56488e-05 2.10552e-16 -0.000315164 6.73018e-17 0)
(0.000462571 -9.69493e-05 -6.1149e-16 -0.000213472 -3.8294e-16 0)
(0.000189327 -0.000114355 -7.30752e-17 -7.97733e-05 -1.79571e-19 0)
(0.000369227 -1.65234e-05 -3.16153e-16 -0.000156605 -1.38236e-16 0)
(0.000548945 -4.30983e-05 -1.37694e-16 -0.000244918 7.7366e-16 0)
(0.000266739 -2.74465e-05 -8.26162e-17 -6.67505e-05 -5.90077e-17 0)
(0.000615369 0.000116116 3.98661e-16 -0.000243037 6.48353e-16 0)
(0.000302392 -4.15376e-05 -3.94216e-16 -7.90427e-05 2.83112e-17 0)
(0.000249154 -0.000156648 -5.91974e-17 -0.000223538 1.77538e-16 0)
(0.000195138 -0.000105314 -8.32667e-17 -7.23444e-05 -5.29429e-17 0)
(0.000100716 -0.000105097 3.57787e-17 -0.000152311 1.87262e-16 0)
(0.000586049 9.06241e-05 -1.45934e-16 -0.000277166 -7.67073e-16 0)
(0.000194775 -0.000106064 5.20417e-18 -7.16289e-05 1.1025e-17 0)
(0.000298078 -9.03206e-06 7.00395e-17 -6.83382e-05 9.52997e-17 0)
(0.000307054 -1.84873e-05 -3.46945e-18 -6.40303e-05 -1.44707e-17 0)
(0.000309137 -1.32663e-05 1.11239e-16 -6.06199e-05 -2.06303e-17 0)
(0.000221339 -9.75514e-05 -1.50487e-16 -7.03845e-05 6.62244e-17 0)
(0.000294802 -0.000113644 2.34621e-16 -0.000103126 -2.33273e-16 0)
(0.000582205 1.59091e-05 8.22042e-16 -0.000264285 4.18123e-16 0)
(0.000210639 -8.95269e-05 -4.03323e-17 -6.53872e-05 -2.19924e-17 0)
(0.000488639 -1.77317e-05 6.7741e-16 -0.000211225 1.06734e-15 0)
(0.000567055 0.000115009 1.04151e-15 -0.000221397 -1.65232e-16 0)
(0.000660577 8.43517e-05 1.19943e-15 -0.000240334 -1.35688e-15 0)
(0.000358217 -5.66763e-06 1.13408e-16 -0.000152807 -1.5271e-16 0)
(0.000299584 -4.76444e-06 -1.79978e-17 -6.65046e-05 5.83267e-17 0)
(0.000420159 -4.85234e-05 6.20164e-17 -0.000177345 6.72205e-17 0)
(0.000383223 -0.000132884 3.05311e-16 -0.000174998 4.658e-17 0)
(0.000588637 8.95206e-05 6.45155e-16 -0.000214596 -8.112e-16 0)
(0.000479155 3.81033e-05 1.04411e-15 -0.000179712 -2.99023e-16 0)
(0.000237944 -3.47785e-06 5.3256e-16 -5.58541e-05 -8.06998e-17 0)
(0.000331831 -0.000132478 -7.15573e-17 -0.000135088 -1.07702e-16 0)
(0.00032625 -0.000127999 1.51788e-18 -0.000129433 -1.62034e-16 0)
(0.000347269 -2.87471e-05 4.31512e-17 -0.000133076 -1.96634e-16 0)
(0.000385072 -0.000164392 2.37332e-16 -0.000261926 2.97071e-17 0)
(0.000484623 -0.000123721 -1.5271e-15 -0.000303748 5.78259e-16 0)
(0.000303492 -5.21747e-07 -3.53884e-16 -4.70148e-05 1.40163e-16 0)
(0.00034692 5.03345e-07 1.86483e-17 -0.000148548 -6.70308e-17 0)
(0.000566708 6.20869e-05 3.12291e-16 -0.00019294 -2.56089e-16 0)
(0.000456599 -4.57512e-05 2.95554e-16 -0.00019413 -6.69386e-16 0)
(0.000111003 -6.85078e-05 -1.36609e-17 -0.000230156 -5.5091e-17 0)
(0.000346753 -2.18507e-05 -4.18502e-17 -0.000134985 4.95887e-17 0)
(0.000299017 -2.40225e-05 -3.69062e-16 -7.22009e-05 -1.53054e-16 0)
(0.00039456 -0.000106763 -1.79544e-16 -0.000164529 1.31066e-16 0)
(0.000315322 -0.000112359 1.21431e-16 -0.000113603 8.02987e-18 0)
(0.000186706 -8.04699e-05 -5.20417e-17 -5.78384e-05 -1.0034e-17 0)
(0.000263897 -0.000112572 1.43765e-16 -9.1235e-05 -1.42695e-16 0)
(0.000252728 -9.79087e-05 3.08347e-16 -7.94922e-05 -1.29799e-17 0)
(0.000146903 2.44502e-05 -1.01915e-17 -0.000378519 -2.80043e-16 0)
(0.000256952 -0.000107407 -3.40439e-17 -8.59639e-05 -5.22823e-17 0)
(0.000717402 4.98241e-05 3.48023e-15 -0.000279673 -7.20127e-16 0)
(0.000465852 -0.000100294 -6.2179e-16 -0.000226703 1.60543e-16 0)
(0.000462512 -9.9489e-05 -7.39968e-16 -0.000220627 -2.10308e-16 0)
(0.000232547 -8.60385e-05 6.78711e-17 -6.81135e-05 9.04258e-17 0)
(0.00053621 -4.78506e-05 -1.29128e-16 -0.000284403 3.36103e-16 0)
(0.000409343 -4.2614e-05 5.26922e-17 -0.0001721 -8.39986e-17 0)
(0.000303117 -2.28862e-06 4.24574e-16 -5.39067e-05 -4.92607e-17 0)
(0.000349029 -1.43592e-06 -3.56919e-16 -0.000149278 1.61898e-16 0)
(0.000464813 1.69619e-05 1.15779e-15 -0.000165434 -8.09791e-16 0)
(0.000456986 -7.96726e-05 7.89733e-16 -0.000194571 2.27276e-16 0)
(0.00048767 -8.79004e-05 -1.53848e-16 -0.000245348 6.80608e-16 0)
(0.000201325 -9.45006e-05 5.22585e-17 -0.0002444 1.12215e-16 0)
(0.000379777 -0.000156151 6.91721e-17 -0.000216328 -1.94777e-16 0)
(0.000571432 7.50388e-06 1.42811e-15 -0.000294546 6.27265e-16 0)
(0.000546571 -3.80297e-05 -2.55655e-16 -0.000245943 6.72991e-16 0)
(0.000460387 -6.88074e-05 -3.46945e-18 -0.000198512 7.66965e-16 0)
(0.000323537 -2.233e-05 -1.48969e-16 -9.092e-05 -1.98816e-17 0)
(0.000138696 4.10268e-05 -4.38018e-17 -0.000381253 2.33822e-16 0)
(0.000302298 -0.0001156 3.34585e-16 -0.000107985 -1.8798e-16 0)
(0.000541562 -3.24052e-05 8.48713e-16 -0.000259004 -4.29832e-16 0)
(0.000684572 1.6231e-05 -7.3887e-16 -0.000199938 6.08454e-16 0)
(7.70901e-05 -4.64074e-05 -6.28837e-18 -7.66556e-05 1.17179e-17 0)
(0.000328801 -4.17487e-06 -2.18358e-16 -0.000104536 6.02071e-17 0)
(0.000326361 -1.39901e-05 2.42861e-17 -9.53481e-05 -5.61752e-18 0)
(0.000349407 -2.90627e-05 -4.71411e-16 -0.000135578 -2.57593e-16 0)
(0.000457857 -4.58614e-05 3.747e-16 -0.000194725 -6.60469e-16 0)
(8.80941e-05 -4.82005e-05 -2.34188e-17 -8.66865e-05 1.3273e-18 0)
(0.000261941 -0.000107558 -4.09828e-17 -8.60496e-05 -1.28241e-16 0)
(0.00049576 0.000101338 -8.29171e-16 -0.00019597 -4.09286e-16 0)
(0.000490656 9.38051e-05 4.94776e-16 -0.000205647 -3.59955e-17 0)
(0.000390769 -0.000139902 -8.00141e-17 -0.00019598 8.15185e-17 0)
(0.000400898 -0.000133596 2.65196e-16 -0.000193816 6.451e-18 0)
(0.000332941 -1.17822e-05 -3.81639e-17 -0.000115003 -1.29671e-16 0)
(0.000546258 -3.279e-05 2.81784e-16 -0.000236579 -3.57109e-16 0)
(0.00028356 -0.000126306 -3.09431e-16 -0.000106538 -2.4425e-16 0)
(0.000351753 -1.36628e-05 -6.36644e-16 -0.000144884 -1.44226e-16 0)
(0.000213616 -0.000148243 9.58435e-17 -0.000120492 -2.31003e-17 0)
(0.000244445 -0.000174438 2.19659e-16 -0.000186822 2.19497e-16 0)
(0.000452215 -8.11894e-05 5.36246e-16 -0.000194608 1.43819e-16 0)
(0.00060102 -2.2764e-05 -8.22476e-16 -0.000334199 1.31801e-15 0)
(0.000231566 -0.000161158 2.67581e-16 -0.000174033 1.98043e-16 0)
(0.00030846 -2.16907e-05 -6.72205e-17 -6.80479e-05 2.23989e-17 0)
(0.000307691 -2.42473e-05 3.5345e-17 -7.0441e-05 -1.32429e-16 0)
(0.000629408 0.000105921 -5.61996e-16 -0.000271624 -6.026e-16 0)
(0.000577556 2.66888e-05 1.82146e-17 -0.000261353 4.27718e-17 0)
(0.000242677 -0.000147078 2.57823e-16 -0.000119868 7.57383e-17 0)
(0.000297757 -0.000111276 3.54534e-16 -0.000104088 -2.11264e-16 0)
(0.000684336 4.86527e-05 1.61926e-15 -0.000275005 -3.10299e-16 0)
(0.000308054 -1.90179e-05 -2.55872e-17 -6.69381e-05 -8.76645e-17 0)
(0.000141214 -6.7715e-05 -4.29344e-17 -5.31692e-05 -6.94618e-17 0)
(0.000157148 -6.74699e-05 -8.5652e-17 -5.33052e-05 -7.69529e-17 0)
(0.000378566 -5.81446e-05 3.46945e-17 -0.000154743 -1.16443e-16 0)
(0.000289252 -4.9722e-05 -1.34658e-16 -7.76904e-05 -1.36955e-16 0)
(0.000257694 -9.76674e-05 1.71304e-16 -7.98089e-05 -8.45407e-17 0)
(0.000312001 -6.19579e-05 -1.72388e-16 -9.24569e-05 1.95502e-16 0)
(0.000300598 -3.67019e-06 -1.55258e-16 -4.07207e-05 -4.78938e-17 0)
(0.000347674 -1.10644e-07 7.05382e-16 -0.000148657 7.41594e-17 0)
(0.000201937 -8.76623e-05 7.41594e-17 -6.24005e-05 7.03664e-17 0)
(0.000241538 -4.0128e-06 1.17094e-16 -5.64587e-05 4.5312e-17 0)
(0.000406981 -0.000142581 -5.03612e-16 -0.000278054 3.16831e-16 0)
(0.000317621 -0.000148199 -4.20454e-16 -0.000145151 -2.42231e-16 0)
(0.000222654 -5.12105e-05 -9.17235e-17 -5.47005e-05 -5.72035e-17 0)
(0.000122144 -9.82021e-05 -1.95156e-17 -8.27403e-05 7.31836e-19 0)
(0.000173486 -3.27029e-05 8.13152e-17 -4.30759e-05 -6.06984e-17 0)
(0.000155138 -4.92182e-05 -2.19009e-17 -4.53216e-05 1.43852e-17 0)
(0.00016041 -4.18126e-05 2.1684e-18 -4.5181e-05 1.81468e-17 0)
(0.000251405 -9.16011e-05 9.02056e-17 -7.57676e-05 -5.86519e-17 0)
(0.000381075 -5.29375e-05 3.21574e-16 -0.000158247 3.49384e-17 0)
(0.000287439 -4.42009e-05 -6.22332e-17 -7.50173e-05 -1.44877e-16 0)
(0.000295202 -0.0001648 1.18829e-16 -0.000160154 1.53686e-17 0)
(0.000380793 -5.96799e-05 -5.33427e-17 -0.000155453 -6.02003e-17 0)
(0.000286598 -5.08688e-05 -2.25948e-16 -7.72465e-05 -1.04263e-16 0)
(0.000375446 -0.000130231 1.10372e-16 -0.000161204 2.82828e-16 0)
(0.000375901 -0.000127301 -2.39175e-16 -0.000161929 3.14649e-16 0)
(0.000537662 1.46942e-05 3.10407e-16 -0.000229653 -1.12107e-16 0)
(0.000387572 -8.52946e-05 1.50704e-16 -0.000155828 -2.5556e-16 0)
(0.00033814 -1.51058e-05 1.96457e-16 -0.000128242 -4.49673e-17 0)
(0.000248648 -9.20469e-05 3.55401e-16 -7.54676e-05 -1.07912e-16 0)
(0.000149291 -7.93252e-06 -5.20417e-17 -4.00047e-05 5.94024e-18 0)
(0.000360803 -4.50198e-05 3.40439e-17 -0.000141741 -9.83371e-17 0)
(0.000188835 -5.78659e-05 -7.15573e-18 -5.08512e-05 -6.18791e-17 0)
(0.000232904 -0.000156761 1.6675e-16 -0.000133438 -4.68917e-17 0)
(0.000233338 -0.000156243 9.6494e-17 -0.000133631 -3.36713e-17 0)
(0.000444131 -8.94577e-05 1.54174e-16 -0.000192497 -1.5786e-16 0)
(0.00105957 -0.000250516 1.54282e-16 -0.00035786 1.01015e-15 0)
(0.000342984 -2.5349e-05 -8.50015e-17 -0.000129161 -2.02664e-16 0)
(0.000604719 1.26205e-05 9.51875e-16 -0.000260412 6.70525e-16 0)
(0.000607296 1.40515e-05 1.47999e-15 -0.000262697 3.24231e-16 0)
(0.000527647 -7.24844e-05 -1.10459e-15 -0.000310736 -6.09295e-16 0)
(0.000157329 -0.000113558 2.47198e-17 -8.91178e-05 4.69561e-17 0)
(0.000302677 -3.72096e-06 1.78026e-16 -4.94105e-05 1.43091e-16 0)
(0.000348224 -9.31808e-07 -4.92011e-16 -0.000148205 9.07206e-17 0)
(0.000259673 -0.000140582 7.15573e-17 -0.000113828 9.54504e-17 0)
(0.000506868 -0.000104949 -2.14022e-16 -0.000316822 -4.21809e-16 0)
(0.0001518 -0.000116938 -5.42101e-18 -8.44135e-05 5.18757e-17 0)
(0.000346107 -0.000173684 5.12719e-16 -0.000160247 -1.62251e-16 0)
(0.000430959 -8.85375e-05 -1.00527e-15 -0.000180708 -7.74662e-17 0)
(0.000391864 -5.27294e-05 7.37257e-18 -0.000161511 2.43945e-17 0)
(0.000277854 -4.32658e-05 -1.92771e-16 -7.31206e-05 1.19567e-17 0)
(0.000537562 -6.37779e-05 -1.27654e-15 -0.000304549 -2.67662e-16 0)
(0.000138441 -0.00012066 3.27429e-17 -0.000164208 1.90603e-16 0)
(0.000301084 -1.93754e-06 -1.96674e-16 -4.20365e-05 2.67501e-17 0)
(0.000348102 -2.1431e-07 5.91758e-16 -0.000148788 1.1685e-16 0)
(0.000513483 0.000107957 -6.41387e-16 -0.000217785 4.76182e-16 0)
(0.000582053 -3.23768e-05 -4.96131e-16 -0.000333743 1.48254e-15 0)
(0.000240217 -2.40943e-05 -5.01335e-16 -5.51364e-05 -1.13563e-16 0)
(0.000620359 2.05725e-05 9.63856e-16 -0.000331622 -6.44558e-17 0)
(0.000499365 8.37033e-05 -5.30365e-16 -0.000183133 -9.86299e-16 0)
(0.000312669 -0.000135381 -2.37007e-16 -0.000128132 -2.061e-16 0)
(0.000298841 -2.40189e-05 -2.99023e-16 -7.21585e-05 -9.42002e-17 0)
(0.0005495 -2.26939e-05 1.46562e-15 -0.000262443 -5.94251e-16 0)
(8.06693e-05 -1.43949e-06 -1.10155e-16 -0.000246507 -8.31431e-17 0)
(0.000372109 -8.78078e-05 -5.4492e-16 -0.000144687 -6.25314e-17 0)
(0.0004991 8.13234e-05 -8.8643e-16 -0.000197615 -4.92228e-16 0)
(0.000446185 -4.54691e-05 2.39609e-16 -0.000190722 -2.71267e-16 0)
(0.00050588 0.000105717 -7.38802e-16 -0.00020636 5.89047e-16 0)
(0.000304922 -1.79589e-05 3.88144e-16 -6.55048e-05 -3.43692e-17 0)
(0.000600713 1.07074e-05 -4.27284e-16 -0.000260201 -3.91939e-17 0)
(0.000532602 -4.47817e-05 2.00794e-16 -0.000261718 4.04001e-16 0)
(0.000518536 -5.86176e-05 1.83013e-16 -0.000238714 -1.39428e-16 0)
(0.000326712 -3.42936e-05 1.94506e-16 -0.000102966 4.30496e-17 0)
(0.000536252 8.85865e-05 2.02919e-15 -0.000237531 -8.70614e-17 0)
(0.000362702 -4.91127e-05 -1.37477e-16 -0.0001425 -1.16877e-16 0)
(0.000387196 -8.2968e-05 -7.24247e-17 -0.000157803 -1.89519e-16 0)
(0.0001165 2.46316e-05 -1.17744e-16 -0.000346496 1.92622e-16 0)
(0.000368315 -8.73624e-05 -4.83554e-16 -0.000144681 -7.97295e-17 0)
(0.000319193 -3.7563e-06 2.29634e-16 -8.28732e-05 -1.25158e-16 0)
(0.000114913 -1.17802e-05 -4.74881e-17 -0.000327549 -1.98267e-16 0)
(0.000394923 -0.000107987 2.46114e-16 -0.000161648 3.17576e-16 0)
(0.000877487 -0.00015299 1.99493e-17 -0.000299469 1.04246e-15 0)
(0.000125995 -0.00010904 -1.19262e-17 -9.40374e-05 4.12302e-17 0)
(0.000576049 0.000116613 4.47613e-16 -0.000228712 2.09034e-16 0)
(0.000582745 8.41503e-05 8.06484e-16 -0.000279353 -9.50954e-16 0)
(0.000149431 -0.000121273 1.13191e-16 -0.000200279 1.29562e-16 0)
(0.000113301 -1.10925e-05 7.80626e-18 -5.00604e-05 -1.78597e-18 0)
(0.000400896 -0.000155995 -5.58364e-16 -0.000283389 3.22415e-16 0)
(0.000524182 -5.622e-05 -1.72377e-15 -0.000234936 3.65972e-16 0)
(0.000384664 -7.89444e-05 -2.74954e-16 -0.00015623 -2.25894e-16 0)
(0.000460452 -0.000121947 -1.60169e-15 -0.000292511 3.45427e-16 0)
(0.000541997 0.000100145 1.48725e-15 -0.000239063 2.11094e-16 0)
(0.000765703 -9.12403e-06 1.3984e-15 -0.000277087 1.29801e-15 0)
(0.000351843 -9.75116e-06 -5.72459e-17 -0.000146461 -2.34161e-16 0)
(0.000349959 -7.92998e-06 -1.18178e-16 -0.000146907 -7.71139e-17 0)
(0.000149972 -8.53828e-05 -7.37257e-18 -5.90102e-05 -2.1762e-17 0)
(0.000152165 -7.18148e-05 -3.23092e-17 -5.72629e-05 -3.78099e-17 0)
(0.000479042 4.3443e-05 1.75644e-15 -0.000164815 -2.78423e-16 0)
(0.000535236 9.02346e-05 2.50906e-15 -0.000236242 -3.78712e-16 0)
(0.000746362 2.14667e-05 1.10751e-16 -0.000235671 9.68951e-16 0)
(0.000288153 -9.78504e-05 -8.93383e-17 -9.23135e-05 -1.18022e-16 0)
(0.000345878 -4.04437e-06 -3.10082e-17 -0.000144468 -2.72257e-16 0)
(0.000244983 -0.000114167 1.19262e-17 -8.52897e-05 1.74126e-16 0)
(0.000118233 -7.9764e-05 -7.37257e-18 -0.000207531 7.35157e-17 0)
(0.00055737 -3.76941e-05 -1.12139e-15 -0.00024609 -1.68621e-16 0)
(0.000367202 -0.000146623 -7.89299e-17 -0.000180395 -1.08854e-16 0)
(0.000234434 -0.0001066 1.22515e-16 -7.97659e-05 9.54403e-17 0)
(0.000126155 -0.000104309 1.36609e-17 -9.84512e-05 4.27853e-17 0)
(0.000984888 -7.77491e-05 -9.80905e-16 -0.000325102 -1.46476e-16 0)
(0.00037971 -0.000104469 -9.54098e-18 -0.000152774 1.29657e-16 0)
(0.00038231 -0.000100797 -9.43256e-17 -0.000154104 2.11189e-16 0)
(0.000523637 -5.25814e-05 1.69569e-16 -0.000255349 3.12819e-16 0)
(0.000548838 -2.20113e-05 1.17506e-15 -0.000275251 8.85034e-16 0)
(0.000574447 5.76958e-05 1.50135e-15 -0.000259356 3.12196e-16 0)
(0.000608512 9.4719e-05 9.16693e-17 -0.000291046 -4.365e-16 0)
(0.000349094 -1.12231e-05 -3.541e-16 -0.000144782 6.71392e-17 0)
(0.000119413 -0.000120951 3.16587e-17 -0.0001513 1.66079e-16 0)
(0.000553577 -1.762e-05 9.11055e-16 -0.000272611 7.55472e-16 0)
(0.000599889 8.7957e-05 -2.55709e-16 -0.000294368 -7.86047e-16 0)
(0.000470332 -8.83631e-05 3.22008e-17 -0.000206781 4.30428e-17 0)
(0.00045811 -9.20717e-05 1.5851e-16 -0.000202405 2.80971e-16 0)
(0.000308597 -5.97809e-05 -2.82543e-16 -9.06086e-05 1.51544e-16 0)
(0.000306033 -2.63674e-05 3.77953e-16 -7.16483e-05 -1.86439e-16 0)
(0.000590124 9.36195e-05 1.13481e-15 -0.000203596 -4.5981e-16 0)
(0.000152577 -0.00013996 2.77556e-17 -0.000165907 5.30988e-17 0)
(0.000325811 -8.13996e-05 2.38524e-17 -0.000109758 1.90833e-16 0)
(0.000337896 -7.2393e-06 1.4962e-16 -0.000128572 2.50003e-16 0)
(0.000333069 -8.98228e-05 -5.55979e-16 -0.000115892 8.26975e-17 0)
(0.000231293 -8.66133e-05 2.05998e-16 -6.74355e-05 1.18002e-16 0)
(0.000328757 -7.61788e-05 -1.06902e-16 -0.000112259 -2.45572e-17 0)
(0.000211819 -0.000148203 -1.38127e-16 -0.00012662 3.96886e-17 0)
(0.000523671 -4.27417e-05 1.68864e-15 -0.000224965 -9.60061e-17 0)
(0.000378678 -3.94531e-05 5.1608e-17 -0.000155918 4.01697e-17 0)
(0.000648507 -3.68355e-05 2.07072e-15 -0.000317088 1.28153e-15 0)
(0.000266086 -0.000152668 6.38161e-16 -0.000136291 -4.90601e-17 0)
(0.00100066 -0.000215878 1.16801e-15 -0.000370463 1.10307e-15 0)
(0.000317521 -0.000135168 -4.90059e-17 -0.000128211 -2.94734e-16 0)
(0.000347994 6.94863e-07 1.34094e-15 -0.00014955 -8.94196e-17 0)
(0.000297671 7.20824e-07 2.3332e-16 -3.41096e-05 1.43631e-17 0)
(0.000307946 -2.11221e-05 1.61546e-16 -6.86165e-05 -5.90517e-17 0)
(0.000218085 -0.00015001 1.98192e-16 -0.000120179 -2.24633e-17 0)
(0.000304059 -9.73351e-05 -1.53089e-16 -0.000102469 -2.29742e-16 0)
(0.000340557 -9.20768e-05 -3.26128e-16 -0.000124038 2.70007e-16 0)