/*--------------------------------*- C++ -*----------------------------------*\
| =========                 |                                                 |
| \\      /  F ield         | OpenFOAM: The Open Source CFD Toolbox           |
|  \\    /   O peration     | Version:  v2012                                 |
|   \\  /    A nd           | Website:  www.openfoam.com                      |
|    \\/     M anipulation  |                                                 |
\*---------------------------------------------------------------------------*/
FoamFile
{
    version     2.0;
    format      ascii;
    class       pointScalarField;
    location    "2";
    object      pEpsilonEq;
}
// * * * * * * * * * * * * * * * * * * * * * * * * * * * * * * * * * * * * * //

dimensions      [0 0 0 0 0 0 0];


internalField   nonuniform List<scalar> 
7900
(
0.000471865
0.00020928
0.000294131
0.000220295
0.00121814
0.000471865
0.00020928
0.000294131
0.000220295
0.00121814
0.000386338
0.000302634
0.000250609
0.000200075
0.00016284
0.000138129
0.000120069
0.000108052
9.79585e-05
9.14125e-05
8.57167e-05
8.70502e-05
8.73208e-05
8.82218e-05
9.21125e-05
9.48099e-05
9.84009e-05
0.000103002
0.000107091
0.000112401
0.00011821
0.000122329
0.000127842
0.000132274
0.00013799
0.000142499
0.000147441
0.000152886
0.000157407
0.000162728
0.000166767
0.000171565
0.000176469
0.000180613
0.000185133
0.000189092
0.000192613
0.000196331
0.000200102
0.000203869
0.000207183
0.000210234
0.00021265
0.000215499
0.000218232
0.000220277
0.000221703
0.000223513
0.000224603
0.000225221
0.000225741
0.000225986
0.000225442
0.000224742
0.000223201
0.00022177
0.000218772
0.000215241
0.000212147
0.000209005
0.000207338
0.000211276
0.000210806
0.000212583
0.000213889
0.000215164
0.000217187
0.000219765
0.000221566
0.000224571
0.000227396
0.000229626
0.000233591
0.000237043
0.000239501
0.000243401
0.000247798
0.000250609
0.000255027
0.000258361
0.000261722
0.000266229
0.000270034
0.000272621
0.000276603
0.00027987
0.000282126
0.000285136
0.000287576
0.000289919
0.000291302
0.000293204
0.000294002
0.000294693
0.000295154
0.00029475
0.000294977
0.000294456
0.000293772
0.000293348
0.000293294
0.000292946
0.000293312
0.000293858
0.000295239
0.000296384
0.000299044
0.000301098
0.000304353
0.000306909
0.000311001
0.000313963
0.00031822
0.00032356
0.000328524
0.000332489
0.000338148
0.000343581
0.000350067
0.000356284
0.000362261
0.000368442
0.00037609
0.000381664
0.000389907
0.000395656
0.000404334
0.000410724
0.000419483
0.000425587
0.000435952
0.000442516
0.000451284
0.000457322
0.000467001
0.000473098
0.000483001
0.00049028
0.000495048
0.000504887
0.000509136
0.00051538
0.000522883
0.000527484
0.000529365
0.000535748
0.000537344
0.000539042
0.000540408
0.000541574
0.000540903
0.000537039
0.000532042
0.000524261
0.000520807
0.000517626
0.000502832
0.00049244
0.000482437
0.000467637
0.000453306
0.000434502
0.000421019
0.000402759
0.000381848
0.000367437
0.000346468
0.000324959
0.000311931
0.000295355
0.000274315
0.000262891
0.00025449
0.000234554
0.000230997
0.000220407
0.000214214
0.000253032
0.000279876
0.000308291
0.000335919
0.000362294
0.000384469
0.00040369
0.000419335
0.000443774
0.000466348
0.000490417
0.000519773
0.000552175
0.000597508
0.000652342
0.000721151
0.000809727
0.000912513
0.00106488
0.00122835
0.00120951
0.00115832
0.00111574
0.00108869
0.00103633
0.000941552
0.000881433
0.000825982
0.00072334
0.000646115
0.000552851
0.000468348
0.000393266
0.000311028
0.000228994
0.000164404
8.71349e-05
3.69272e-05
7.94281e-05
0.000132069
0.000191533
0.000230388
0.000285785
0.000324334
0.000371072
0.000394708
0.000415995
0.000436784
0.000452841
0.000455054
0.000386338
0.000302634
0.000250609
0.000200075
0.00016284
0.000138129
0.000120069
0.000108052
9.79585e-05
9.14125e-05
8.57167e-05
8.70502e-05
8.73208e-05
8.82218e-05
9.21125e-05
9.48099e-05
9.84009e-05
0.000103002
0.000107091
0.000112401
0.00011821
0.000122329
0.000127842
0.000132274
0.00013799
0.000142499
0.000147441
0.000152886
0.000157407
0.000162728
0.000166767
0.000171565
0.000176469
0.000180613
0.000185133
0.000189092
0.000192613
0.000196331
0.000200102
0.000203869
0.000207183
0.000210234
0.00021265
0.000215499
0.000218232
0.000220277
0.000221703
0.000223513
0.000224603
0.000225221
0.000225741
0.000225986
0.000225442
0.000224742
0.000223201
0.00022177
0.000218772
0.000215241
0.000212147
0.000209005
0.000207338
0.000211276
0.000210806
0.000212583
0.000213889
0.000215164
0.000217187
0.000219765
0.000221566
0.000224571
0.000227396
0.000229626
0.000233591
0.000237043
0.000239501
0.000243401
0.000247798
0.000250609
0.000255027
0.000258361
0.000261722
0.000266229
0.000270034
0.000272621
0.000276603
0.00027987
0.000282126
0.000285136
0.000287576
0.000289919
0.000291302
0.000293204
0.000294002
0.000294693
0.000295154
0.00029475
0.000294977
0.000294456
0.000293772
0.000293348
0.000293294
0.000292946
0.000293312
0.000293858
0.000295239
0.000296384
0.000299044
0.000301098
0.000304353
0.000306909
0.000311001
0.000313963
0.00031822
0.00032356
0.000328524
0.000332489
0.000338148
0.000343581
0.000350067
0.000356284
0.000362261
0.000368442
0.00037609
0.000381664
0.000389907
0.000395656
0.000404334
0.000410724
0.000419483
0.000425587
0.000435952
0.000442516
0.000451284
0.000457322
0.000467001
0.000473098
0.000483001
0.00049028
0.000495048
0.000504887
0.000509136
0.00051538
0.000522883
0.000527484
0.000529365
0.000535748
0.000537344
0.000539042
0.000540408
0.000541574
0.000540903
0.000537039
0.000532042
0.000524261
0.000520807
0.000517626
0.000502832
0.00049244
0.000482437
0.000467637
0.000453306
0.000434502
0.000421019
0.000402759
0.000381848
0.000367437
0.000346468
0.000324959
0.000311931
0.000295355
0.000274315
0.000262891
0.00025449
0.000234554
0.000230997
0.000220407
0.000214214
0.000253032
0.000279876
0.000308291
0.000335919
0.000362294
0.000384469
0.00040369
0.000419335
0.000443774
0.000466348
0.000490417
0.000519773
0.000552175
0.000597508
0.000652342
0.000721151
0.000809727
0.000912513
0.00106488
0.00122835
0.00120951
0.00115832
0.00111574
0.00108869
0.00103633
0.000941552
0.000881433
0.000825982
0.00072334
0.000646115
0.000552851
0.000468348
0.000393266
0.000311028
0.000228994
0.000164404
8.71349e-05
3.69272e-05
7.94281e-05
0.000132069
0.000191533
0.000230388
0.000285785
0.000324334
0.000371072
0.000394708
0.000415995
0.000436784
0.000452841
0.000455054
0.000380547
0.000293308
0.000525614
0.000297136
0.000249998
0.000372825
0.000250714
0.00054507
0.000290562
0.000460364
0.000336441
0.000230381
0.00044552
0.000212962
0.000266712
0.000432785
0.000331768
0.000233228
0.00029561
0.000280681
0.000512146
0.000562476
0.000376972
0.000198049
0.000495746
0.000458522
0.000322947
0.000226005
0.000336372
0.000257183
0.000394685
0.000425577
0.000174557
0.000307847
0.000246611
0.000279802
0.000300396
0.000599989
0.000203071
0.000414794
0.000172246
0.000385845
0.000308287
0.00026192
0.000309831
0.00046818
0.000472448
0.00046875
0.000293112
0.000360951
0.000197744
0.000485522
0.000431171
0.000553702
0.000602965
0.000309999
0.000228123
0.00031531
0.000242651
0.000491037
0.000280992
0.000518958
0.000342486
0.000209169
0.000147541
0.000495783
0.000224842
0.000294595
0.000264685
0.000494535
0.000253576
0.000430898
0.000238114
0.000344961
0.00034266
0.000291598
0.000166153
0.000266797
0.000516507
0.000378298
0.000234137
0.000285912
0.000303226
0.000237956
0.000296504
0.00026227
0.000399467
0.000447848
0.000365144
0.000365787
0.000229813
0.000351899
0.000224902
0.000405517
0.000326326
0.000266445
0.00047082
0.000140597
0.000289835
0.000131149
0.000440118
0.000398527
0.000314027
0.000503638
0.000178273
0.000286619
0.000228403
0.000300792
0.000353498
0.000368975
0.000575466
0.000337288
0.000283754
0.000286941
0.000552684
0.000497063
0.000523839
0.00020087
0.000414103
0.000384956
0.000245926
0.000227813
0.000471493
0.000482635
0.000503782
0.000321905
0.000220676
0.000389283
0.000291635
0.000243736
0.000482517
0.000333232
0.000222866
0.000257089
0.000346443
0.000265295
0.000749893
0.00053039
0.000215093
0.000399253
0.000230346
0.000267507
0.000330216
0.000707615
0.00013793
0.000422785
0.000310848
0.000238073
0.000267217
0.000540406
0.000412503
0.000197197
0.000329992
0.000242923
0.000244306
0.000578571
0.00027353
0.000214997
0.000462468
0.000308635
0.000564088
0.000500241
0.000274363
0.000498469
0.000472444
0.00022468
0.000290394
0.000321574
0.000243975
0.000533789
0.000447352
0.000243928
0.000440366
0.000184485
0.000113158
0.000357444
0.000196949
0.000479418
0.000587666
0.000278642
0.000274394
0.000381518
0.000321707
0.000239134
0.000346753
0.000212712
0.000329289
0.00043856
0.000431397
0.00036531
0.000205613
0.000152144
0.000344827
0.00047965
0.000373611
0.00033342
0.000212307
0.000483872
0.000395583
0.000312095
0.000230685
0.000284
0.000326805
0.000415981
0.00027493
0.000242471
0.000294746
0.000349458
0.000501135
0.000506504
0.000255151
0.000492854
0.000416484
0.000145796
0.000321783
0.00018471
0.000257432
0.0005039
0.000495475
0.000373494
0.00046649
0.000436294
0.000361645
0.000276363
0.000306422
0.000226013
0.000219059
0.000294413
0.000234279
0.000320972
0.000478621
0.00016412
0.000392855
0.000409871
0.000303462
0.000232409
0.000572685
0.000535661
0.00030844
0.000303936
0.00025044
0.000254007
0.000280119
0.000386439
0.000263069
0.000115951
0.000259256
0.000291155
0.000568684
0.000555889
0.000489708
0.000270564
0.00034192
0.00028594
0.000511394
0.000292557
0.000453618
0.00022546
0.000296848
0.000246046
0.000480257
0.000426442
0.000308848
0.000683436
0.000167793
0.000494143
0.000321125
0.000232572
0.00053197
0.000253657
0.00025696
0.000499712
0.000226521
0.000313943
0.000223127
0.000229567
0.000293434
0.000178498
0.000349609
0.000216905
0.000393911
0.000514495
0.000286356
0.000363168
0.000351927
0.000238825
0.000274102
0.000451727
0.000434298
0.000423328
0.000238252
0.000338866
0.000432848
0.000305926
0.000473018
0.000330992
0.000217971
0.000126744
0.000511642
0.000403396
0.000345906
0.000378452
0.000458994
0.00025407
0.00017713
0.00027055
0.000359766
0.000390444
0.000465968
0.000275544
0.00034581
0.00020358
0.000324845
0.000235729
0.000247479
0.000164126
0.000106972
0.000219602
0.000292905
0.000504521
0.000431553
0.000217803
0.000364559
0.000232098
0.000219158
0.000537774
0.000267195
0.000381512
0.000215038
0.000404504
0.000388956
0.000614132
0.000268483
0.000339574
0.000243828
0.000494996
0.000367987
0.000281883
0.000250643
0.000223516
0.00029799
0.000226529
0.000286898
0.000284356
0.000513296
0.000296912
0.000522425
0.000300147
0.000855354
0.000325303
0.000510476
0.00030385
0.000298112
0.000286646
0.000365134
0.000240251
0.000303029
0.00044961
0.00030735
0.000446385
0.000411149
0.000246668
0.00028942
0.000273063
0.000379726
0.000458351
0.000355217
0.000174694
0.000151795
0.000184844
0.000377374
0.000306127
0.000233095
0.000244944
0.000345215
0.000300863
0.000512213
0.000183002
0.00041567
0.000329922
0.000191448
0.000657443
0.000280699
0.000110904
0.000230283
0.000297826
0.000350935
0.000205799
0.000470978
0.000372172
0.000429549
0.000230597
0.000259876
0.000264093
0.000440364
0.000210461
0.000404091
0.00032
0.000396212
0.000553886
0.000352784
0.000246932
0.000330311
0.000433426
0.000516665
0.000412314
0.000413585
0.000286004
0.000138472
0.000328917
0.000565667
0.000205073
0.000155823
0.000319161
0.000225165
0.000484637
0.000508226
0.000344601
0.000707961
0.000304445
0.000229626
0.000295566
0.000325985
0.000305455
0.000541041
0.000454732
0.000552347
0.000443115
0.000523335
0.000940401
0.000240888
0.000465892
0.000589203
0.000257737
0.000263984
0.000538078
0.000265544
0.000516427
0.000272688
0.000500512
0.000488892
0.000491317
0.000192379
0.000225756
0.000231044
0.000575521
0.000256876
0.000175002
0.00032555
0.000215846
0.000569717
0.000265311
0.000283848
0.000328406
0.000324489
0.000245087
0.000211773
0.000551932
0.000103311
0.000458564
0.00063605
0.000118515
0.000492013
0.000301657
0.000226661
0.000375598
0.000365461
0.000173811
0.000387667
0.000481765
0.00054653
0.00041602
0.00029636
0.000187298
0.000494824
0.00024504
0.000538831
0.000189174
0.000350099
0.000417402
0.00034081
0.0002148
0.000254463
0.000496121
0.000407232
0.000273897
0.000394306
0.000255245
0.000514665
0.000431072
0.000498634
0.000493245
0.000513299
0.000468609
0.000321706
0.000461146
0.000499507
0.000250549
0.000351694
0.000279454
0.000478576
0.000266943
0.000222318
0.000294652
0.000466141
0.000140083
0.000207984
0.000395055
0.000304885
0.000397644
0.00040372
0.000289354
0.000450214
0.000531007
0.000133393
0.000302582
0.000188617
0.00033806
0.000222871
0.000289117
0.000329028
0.000223243
0.000249671
0.000537022
0.000240068
0.000498142
0.000430881
0.000392264
0.00026748
0.000249094
0.000314119
0.000316172
0.000224664
0.000501005
0.000260253
0.000337084
0.000508217
0.000283249
0.00027023
0.000261616
0.000471814
0.000237116
0.000378134
0.000315697
0.000308618
0.000232073
0.00021376
0.000290409
0.000482792
0.000367459
0.000355164
0.000340544
0.00028009
0.000239121
0.000192219
0.000268671
0.000276885
0.000438602
0.000267853
0.000241601
0.000795266
0.000314358
0.000265968
0.000211646
0.000226981
0.000297199
0.000308192
0.000233261
0.000251249
0.000418253
0.000193626
0.00046632
0.000319382
0.000399803
0.000277999
0.000508466
0.000377112
0.000303369
0.00024158
0.000507459
0.000319465
0.000219106
0.000325545
0.000219668
0.000545146
0.000550892
0.000319288
0.000286104
0.000124347
0.00020583
0.000314783
0.000179356
0.000304425
0.000423891
0.000166868
0.000319704
0.000354812
0.00020776
0.000275436
0.000403246
0.00044351
0.000644467
0.000213355
0.000519905
0.00026211
0.000442618
0.00019222
0.000316661
0.000415518
0.000471749
0.0004537
0.0004439
0.000143382
0.000395905
0.000527875
0.000487739
0.000230865
0.000243953
0.000292635
0.000337567
0.000228138
0.000280035
0.000312384
0.000156971
0.000329852
0.000316088
0.000313348
0.000253587
0.000247141
0.000329351
0.00023565
0.000657733
0.000277895
0.000566527
0.000466551
0.000241512
0.000450154
0.000560445
0.000219249
0.00029182
0.000355358
0.000197427
0.000363186
0.000137031
0.000429017
0.000390181
0.000480211
0.000231818
0.000300241
0.000416848
0.000271542
0.000499299
0.000527505
0.000575554
0.000283784
0.000395414
0.00015896
0.000258389
0.000367124
0.000297229
0.000376078
0.000496325
0.000356622
0.000207917
0.000338555
0.000493778
0.000463541
0.000269194
0.000478446
0.000314191
0.000394931
0.000513726
0.000241983
0.000305031
0.000334888
0.000235609
0.000418189
0.0003557
0.000216347
9.60307e-05
0.000458161
0.000271867
0.000424962
0.000149299
0.000253911
0.000297428
0.00059192
0.000225413
0.000292593
0.00016688
0.000366825
0.000545925
0.000214033
0.000294206
0.000183707
0.000222472
0.000238187
0.000940001
0.000301853
0.000440748
0.000218449
0.000241312
0.000524888
0.000225989
0.00029787
0.000313365
0.000155872
0.000357074
0.000215714
0.000294097
0.000598724
0.000586583
0.00030867
0.000223929
0.000385853
0.000417569
0.000440333
0.000252808
0.000259872
0.000753808
0.000305612
0.000484032
0.000488981
0.000489396
0.00011182
0.000455642
0.000275866
0.000460261
0.000382028
0.000349085
0.000202633
0.000353497
0.000287245
0.0003092
0.000255595
0.000233661
0.000376151
0.000234992
0.000413005
0.00044315
0.000519579
0.000402576
0.000280177
0.000291098
0.000432275
0.000361709
0.000261116
0.000570399
0.000427266
0.000197802
0.000310626
0.00022542
0.000312847
0.000269884
0.000489834
0.00049999
0.000506657
0.000280439
0.000236922
0.000374584
0.000461308
0.000344492
0.00021957
0.000300678
0.000398648
0.000469322
0.00026875
0.000197667
0.000208953
0.000339803
0.000255373
0.000284908
0.000388422
0.000139914
0.000502378
0.000335417
0.000216908
0.000276588
0.000289453
0.000254508
0.000263608
0.000186873
0.000395661
0.000285984
0.00027156
0.000254575
0.000297085
0.000430222
0.000504028
0.000457015
0.000415967
0.000499036
0.000291696
0.000341437
0.000272694
0.000143723
0.000384138
0.000234774
0.000227982
0.000313396
0.00051901
0.000423918
0.000141243
0.000485673
0.000270361
0.00048215
0.000499302
0.000476356
0.00050593
0.000560834
0.000310215
0.000498579
0.000308577
0.000359172
0.000368858
0.000405814
0.000156614
0.000332701
0.00036238
0.000446881
0.000350914
0.000167751
0.000172583
0.000397664
0.000221087
0.000289959
0.000242383
0.000280953
0.000328024
0.000286006
0.000288881
0.000199933
0.000371769
0.000221173
0.000293871
0.00045425
0.000350699
0.000233334
0.000253505
0.000327247
0.000216682
0.000447207
0.000277529
0.000266006
0.000189821
0.000180061
0.00027156
0.000505147
0.000402235
0.000234376
0.00039194
0.000252094
0.000345507
0.000125624
0.000241996
0.000452139
0.000510923
0.000262765
0.000460642
0.000589965
0.000290859
0.000292234
0.000211727
0.000331625
0.000475367
0.000248502
0.000302912
0.000248774
0.000396094
0.000485032
0.000225904
0.000275274
0.000334572
0.000245063
0.00040665
9.47209e-05
0.000162702
0.000427877
0.000423171
0.000342965
0.00031733
0.000347341
0.000387537
0.000327585
0.000313226
0.000282288
0.000258184
0.000480253
0.000533731
0.000285162
0.000236075
0.000259878
0.000304242
0.000227511
0.000250724
0.000316069
0.000342703
0.000271165
0.000297213
0.000232192
0.000383902
0.000381857
0.000398087
0.000510466
0.000239603
0.000319041
0.000336418
0.000285903
0.000224001
0.000295371
0.000305014
0.000233802
0.000409962
0.000887324
0.000493678
0.00050765
0.000376094
0.000358865
0.000263594
0.000525475
0.000326851
0.000229781
0.000552686
0.00056764
0.000525705
0.000293298
0.000459963
0.000306771
0.000508291
0.000336883
0.00031088
0.000487798
0.000520725
0.000480309
0.000303614
0.000226048
0.000320481
0.000236119
0.000275849
0.000298791
0.00030211
0.000404171
0.000429077
0.000144076
0.000180909
0.000227477
0.000256888
0.000181736
0.000277898
0.000515369
0.000523016
0.000255944
0.000231193
0.000291735
0.000652669
0.000476996
0.000626362
0.000230154
0.000318427
0.000212429
0.000299384
0.000287767
0.000290035
0.000188216
0.000283985
0.00029102
0.00045429
0.000379653
0.000355799
0.000203956
0.000471482
0.000219655
0.000294002
0.000104074
0.000456634
0.000461208
0.000224479
0.000295424
0.000347652
0.000279838
0.000260119
0.000502583
0.000460373
0.000502421
0.000431819
0.000428812
0.000229048
0.000227301
0.000295097
9.46884e-05
0.00018098
0.000570271
0.000544396
0.000574719
0.00033885
0.000268166
0.000384707
0.000365357
0.000256823
0.00042003
0.000301225
0.000229717
0.000442912
0.000209552
0.000146782
0.000503775
0.000373788
0.000231462
0.000343756
0.000287451
0.000279874
0.000207552
0.000287618
0.000305231
0.000263761
0.000347352
0.000478419
0.000279354
0.000491972
0.000551043
0.000331199
0.000228514
0.000174732
0.000309611
0.000498
0.000454598
0.00025647
0.000391413
0.000361005
0.000397391
0.000458572
0.000492584
0.000569826
0.000234768
0.000247674
0.00031751
0.000198098
0.000465477
0.000227059
0.00029946
0.000181934
0.000168229
0.000466988
0.000244903
0.000388837
0.00017882
0.000248978
0.000286847
0.000307283
0.000227589
0.000218124
0.000481364
0.000360318
0.000172879
0.000348636
0.00023237
0.000416165
0.000202384
0.000355137
0.000396831
0.000203094
0.000289022
0.000118524
0.000430132
0.000259124
0.000420922
0.000240692
0.000413492
0.000385567
0.000114641
0.000155539
0.000234353
0.000345632
0.000387418
0.000224261
0.000510509
0.000289333
0.000237575
0.000345114
0.000277309
0.000317215
0.00024668
0.000561504
0.000317867
0.000229151
0.000189634
0.000281656
0.000754749
0.000474712
0.000284334
0.000261773
0.00030025
0.000408248
0.000301601
0.000356004
0.000324192
0.000227321
0.000135751
0.000399683
0.00050931
0.000254273
0.000306834
0.000540612
0.000295933
0.000412251
0.000530469
0.000291935
0.000314732
0.000221248
0.000318517
0.000305425
0.000595845
0.000302434
0.000185294
0.000299933
0.000360734
0.000425294
0.000198563
0.000280171
0.000153391
0.000243914
0.000237018
0.000405849
0.000467692
0.00029144
0.000192619
0.000116715
0.000450095
0.000320355
0.000367603
0.000484714
0.000293658
0.000335295
0.000573964
0.000238215
0.000189568
0.000246919
0.000188276
0.000272883
0.000271867
0.000459148
0.000336183
0.00035665
0.000373382
0.000242053
0.000228536
0.00052971
0.000104981
0.000278273
0.000335697
0.000423211
0.000331327
0.000215437
0.000519327
0.000409399
0.000357422
0.000316584
0.000222428
0.000209214
0.000177486
0.000212929
0.000336736
0.00031199
0.000321227
0.000241044
0.000118999
0.000262347
0.000496364
0.000395699
0.000370227
0.000270461
0.000326455
0.000221918
0.000286657
0.000256322
0.000488365
0.000322255
0.000536587
0.000264446
0.000448743
0.000231856
0.000370813
0.000295802
0.000348048
0.000561875
0.000209696
0.000492241
0.00041831
0.000393022
0.000547787
0.000221921
0.000216183
0.000293328
0.000289808
0.000257668
0.000356842
0.000319016
0.000210772
0.000498436
0.000225195
0.000125978
0.000520008
0.000337349
0.000448382
0.000283518
0.000428404
0.000225413
0.000325261
0.000295863
0.000370149
0.000752383
0.000434259
0.000542648
0.000562601
0.000288587
0.000159479
0.000516013
0.000513672
0.000291328
0.000231618
0.000283566
0.000562363
0.000259163
0.000742553
0.000172158
0.000451586
0.000325591
0.000430146
0.000256667
0.000161333
0.000501481
0.000537894
0.000280537
0.000238668
0.00048581
0.000351216
0.000206936
0.000455215
0.000260475
0.000361537
0.000357194
0.000440772
9.30009e-05
0.000160989
0.000662328
0.000340145
0.000218162
0.000399433
0.000530494
0.000504093
0.000133737
0.000459703
0.000157905
0.000266094
0.000229322
0.000467467
0.000213239
0.000294435
0.000291862
0.000487251
0.000311383
0.000247227
0.000247
0.000380496
0.000299003
0.000293945
0.000371553
0.000483916
0.000334827
0.000168033
0.000353001
0.000701284
0.000354217
0.000484399
0.000300924
0.000192391
0.000346596
0.000202307
0.000526432
0.000348969
0.000260235
0.00031175
0.000482096
0.000372962
0.000249956
0.000248556
0.000248623
0.000274322
0.000558843
0.000442197
0.000345701
0.000210964
0.00036969
0.000540388
0.000445033
0.000281268
0.000454406
0.0003069
0.000386015
0.000606958
0.000405849
0.000528045
0.000616812
0.000474386
0.000229025
0.000368311
0.000332223
0.00017245
0.000357965
0.000222748
0.000291946
0.000266874
0.00022141
0.000225093
0.000183679
0.000237194
0.000281601
0.000375636
0.000542494
0.000236973
0.000283666
0.00047745
0.000287118
0.000244434
0.000237048
0.000262492
0.000303405
0.000251066
0.000545819
0.000248595
0.000517314
0.00039176
0.000287805
0.00046556
0.000371199
0.000445947
0.000295299
0.000637868
0.00058217
0.000246049
0.000565152
0.000195205
0.000240584
0.000504168
0.00103208
0.000338866
0.000235299
0.000439697
0.000318564
0.000500276
0.000621183
0.000309898
0.000193737
0.000266205
0.000234999
0.000411783
0.000510418
0.000202482
0.000376016
0.000396362
0.000544448
0.000377731
0.000972848
0.000375086
0.000187045
0.00053377
0.000464835
0.000270127
0.000222337
0.000228898
0.000298754
0.000262665
0.000329315
0.000301821
0.000281286
0.000690012
0.000384095
0.000288709
0.000119243
0.000384913
0.000555214
0.000357732
0.000293369
0.000645405
0.000276491
0.000493208
0.000359969
0.000322634
0.000487667
0.000264844
0.000553468
0.000403102
0.000169761
0.000198781
0.00027079
0.000159949
0.000334367
0.000228898
0.000295717
0.000321766
0.000217048
0.000273033
0.000478889
0.000610822
0.000179704
0.000222625
0.000293061
0.000314479
0.000506082
0.000245697
0.000326733
0.000227324
0.000344845
0.000209341
0.000475172
0.000440478
0.000420343
0.000221745
0.000294761
0.0002733
0.000358365
0.000226001
0.000246557
0.000391299
0.000510978
0.000137158
0.00047067
0.000551658
0.000532842
0.00050873
0.000255476
0.000286554
0.000336322
0.000374932
0.000441489
0.000367503
0.000443292
0.000164441
0.000529102
0.000288291
0.000293797
0.000373897
0.000436872
0.000407682
0.000331537
0.00023094
0.00049616
0.000305142
0.000536381
0.000482923
0.000241304
0.000289058
0.000230379
0.000197289
0.000527139
0.000426232
0.000359615
0.000361656
0.000354308
0.000308515
0.000233853
0.000387391
0.000283378
0.000266031
0.000485528
0.000249314
0.00022556
0.000500378
0.000532373
0.00047557
0.000331763
0.000527764
0.000268167
0.000243378
0.000251265
0.000449949
0.000150844
0.000305976
0.000260928
0.000342519
0.000126647
0.000430106
0.000229878
0.000322422
0.000218052
0.000304327
0.000134428
0.000382145
0.000502362
0.000465752
0.000306305
0.000265625
0.000525898
0.000230268
0.000134792
0.00047625
0.000193984
0.000388116
0.000422016
0.000332844
0.00033476
0.00051825
0.000276227
0.000308292
0.00033554
0.000383918
0.000312824
0.000592801
0.000461862
0.000264535
0.000407591
0.000105599
0.000401872
0.000256676
0.000497947
0.000228914
0.000448529
0.00036837
0.000319371
0.000223209
0.000448502
0.000286798
0.00034899
0.000847227
0.00105642
0.000245866
0.000272695
0.000273258
0.000513869
0.000266689
0.000406866
0.000411355
0.000237126
0.000347746
0.000512287
0.000237052
0.00023334
0.000215447
0.000267119
0.000446992
0.000335799
0.000218698
0.0004339
0.000694448
0.000406863
0.000498452
0.000321933
0.000224204
0.000268447
0.000286037
0.000199311
0.000856454
0.000242444
0.000357343
0.000487786
0.000186048
0.000234887
0.000319893
0.000239776
0.000483086
0.00024617
0.000295996
0.000457398
0.000284734
0.000333143
0.000270033
0.00039765
0.000771215
0.000421364
0.000502551
0.000493807
0.000319541
0.000477297
0.0002362
0.000226011
0.000298756
0.00039954
0.000236999
0.000249589
0.000499098
0.000337649
0.000305346
0.000547284
0.000463801
0.000163602
0.000276954
0.000312938
0.000313773
0.000223984
0.000512639
0.000509651
0.000231782
0.000160454
0.00017177
0.000302694
0.00023135
0.000361867
0.000422743
0.000532867
0.000305614
0.000415062
0.000469316
0.000435183
0.000443097
0.000449278
0.000274389
0.000365404
0.000409095
0.000412502
0.000263433
0.000345167
0.000274573
0.000491871
0.000405954
0.000349342
0.000214213
0.000283048
0.000322156
0.000358399
0.000200429
0.000367431
0.000425121
0.000216892
0.00027368
0.000269349
0.000225521
0.000315244
0.000209893
0.000228848
0.000519535
0.000506627
9.48171e-05
0.00027491
0.000227944
0.000620222
0.000249521
0.000227433
0.000327401
0.000366435
0.000285317
0.000230725
0.000378512
0.000523081
0.000323249
0.000230462
0.000250397
0.000509347
0.000420248
0.000256734
0.000421598
0.000500956
0.000499196
0.00044984
0.000581631
0.000438141
0.000551203
0.000838276
0.000174747
0.000494234
0.000551483
0.000440091
0.000514959
0.000159572
0.000251543
0.000294375
0.000374169
0.000434525
0.000262622
0.000422051
0.00045219
0.000312452
0.000151961
0.000241789
0.000318818
0.000499563
0.000205804
0.000269982
0.000260333
0.000295226
0.000593468
0.000154687
0.00026732
0.000499254
0.0002536
0.000317353
0.000533932
0.00035172
0.000368139
0.000287166
0.00055622
0.000260133
0.000256968
0.000713978
0.000558851
0.000382843
0.000201816
0.000293184
0.000244864
0.000184817
0.000525565
0.00026073
0.00039637
0.000433917
0.000318125
0.00057488
0.000326471
0.000214181
0.000327012
0.000376418
0.000303951
0.000227148
0.000296746
0.00014949
0.000378511
0.000115012
0.000201666
0.000270714
0.000274246
0.000299986
0.000188251
0.000519225
0.000285014
0.000327656
0.000270192
0.000408188
0.0004603
0.000247058
0.000220055
0.000297461
0.000288121
9.47474e-05
0.000443705
0.000396346
0.000553765
0.000450619
0.000281996
0.000312554
0.000131131
0.000295557
0.000225336
0.000244142
0.000236984
0.000634976
0.000277423
0.000261652
0.000370054
0.000470474
0.000490075
0.00033123
0.000314882
0.000474657
0.000503342
0.000419377
0.000545626
0.000490886
0.000482174
0.000506115
0.000267598
0.000168034
0.000502055
0.000198436
0.000382052
0.000344565
0.000407685
0.000105637
0.000431849
0.000237587
0.000301447
0.000157141
0.00030534
0.000339847
0.00021329
0.000154064
0.000142922
0.000500005
0.000578366
0.000341275
0.000470945
0.000192693
0.000302891
0.000344154
0.00020652
0.000365485
0.000427469
0.000283306
0.000427854
0.000487838
0.000352209
0.00012851
0.000240294
0.000225019
0.000499305
0.000255463
0.00048635
0.000255397
0.000281924
0.000371701
0.000294331
0.000213675
0.000448701
0.000323457
0.00047821
0.000205161
0.000523442
0.000494787
0.000248944
0.000239001
0.000279905
0.000485314
0.000414951
0.000491268
0.000396453
0.000249771
0.000295477
0.000485384
0.000519236
0.000282514
0.000279187
0.000307492
0.000491058
0.00024178
0.000293576
0.00031585
0.000484517
0.000357956
0.000279232
0.000253357
0.000232897
0.000198933
0.000353003
0.000373561
0.000222687
0.000293842
0.0003899
0.000301385
0.000282884
0.000227601
0.000289343
0.000396617
0.00037931
0.000311448
0.000461641
0.000472083
0.000329745
0.000214073
0.000290842
0.000494351
0.000312157
0.000370888
0.000237898
0.00049788
0.000278375
0.00047924
0.000385461
0.000208253
0.000194156
0.000543598
0.000148928
0.000334044
0.000363585
0.000451982
0.000237896
0.000272157
0.000300498
0.000527362
0.000273895
0.000310355
0.000222626
0.000176811
0.000180097
0.000466943
0.000516187
0.000526543
0.000229595
0.000313208
0.00042591
0.000157827
0.000464191
0.00049732
0.000172428
0.000423255
0.000111508
0.000334708
0.000567283
0.000246661
0.000468477
0.000228459
0.000291491
0.000226723
0.000464782
0.000483159
0.000506445
0.000390537
0.000311323
0.000225045
0.000463408
0.000305737
0.000224805
0.000179787
0.000596623
0.000313652
0.000346225
0.000201811
0.000289244
0.000923278
0.000235221
0.000359241
0.000380588
0.000194646
0.000471844
0.000408071
0.000476718
0.000219135
0.000593334
0.000492975
0.000257206
0.000435266
0.000329083
0.000218042
0.000211389
0.000516243
0.000467128
0.000289981
0.000478668
0.00026707
0.000549627
0.000398444
0.000250791
0.000372344
0.000399704
0.000251119
0.000240274
0.000394273
0.000414012
0.000300911
0.00022594
0.000487549
0.000164416
0.000508777
0.000276623
0.00017609
0.000222269
0.000352168
0.000198793
0.000387614
0.000465982
0.00022447
0.000316863
0.000251713
0.000279838
0.000548654
0.000130854
0.000280599
0.000225231
0.000296764
0.000349991
0.000229385
0.000225534
0.000502795
0.000222474
0.000240514
0.000153628
0.000477298
0.000548518
0.000232454
0.000590679
0.00051488
0.000405708
0.000410937
0.000217966
0.000291526
0.000271249
0.000212121
0.000335664
0.000468387
0.000440082
0.000197116
0.000317208
0.000251648
0.000349949
0.000208944
0.000335504
0.000312668
0.000248392
0.000295684