/*--------------------------------*- C++ -*----------------------------------*\
| =========                 |                                                 |
| \\      /  F ield         | OpenFOAM: The Open Source CFD Toolbox           |
|  \\    /   O peration     | Version:  v2012                                 |
|   \\  /    A nd           | Website:  www.openfoam.com                      |
|    \\/     M anipulation  |                                                 |
\*---------------------------------------------------------------------------*/
FoamFile
{
    version     2.0;
    format      ascii;
    class       pointVectorField;
    location    "2";
    object      pointD;
}
// * * * * * * * * * * * * * * * * * * * * * * * * * * * * * * * * * * * * * //

dimensions      [0 1 0 0 0 0 0];


internalField   nonuniform List<vector> 
7900
(
(0.000707916 0 0)
(0.00101121 0 0)
(0.000933258 -9.34749e-05 0)
(0 -0.000498415 0)
(0 -0.000384714 0)
(0.000707916 0 0)
(0.00101121 0 0)
(0.000933258 -9.34749e-05 0)
(0 -0.000498415 0)
(0 -0.000384714 0)
(0.000713158 0 0)
(0.000716961 0 0)
(0.000720005 0 0)
(0.000722314 0 0)
(0.000724082 0 0)
(0.000725682 0 0)
(0.000727172 0 0)
(0.000728684 0 0)
(0.000730242 0 0)
(0.00073195 0 0)
(0.000733635 0 0)
(0.000735563 0 0)
(0.000737748 0 0)
(0.000739969 0 0)
(0.000742547 0 0)
(0.00074522 0 0)
(0.000748109 0 0)
(0.000751247 0 0)
(0.00075455 0 0)
(0.000758071 0 0)
(0.000761804 0 0)
(0.000765717 0 0)
(0.00076982 0 0)
(0.000774105 0 0)
(0.000778572 0 0)
(0.000783218 0 0)
(0.000788032 0 0)
(0.000793021 0 0)
(0.000798169 0 0)
(0.000803481 0 0)
(0.000808942 0 0)
(0.000814546 0 0)
(0.000820301 0 0)
(0.000826202 0 0)
(0.000832241 0 0)
(0.000838407 0 0)
(0.000844699 0 0)
(0.000851112 0 0)
(0.000857644 0 0)
(0.00086429 0 0)
(0.000871045 0 0)
(0.000877904 0 0)
(0.000884857 0 0)
(0.0008919 0 0)
(0.000899036 0 0)
(0.000906248 0 0)
(0.000913533 0 0)
(0.000920883 0 0)
(0.000928304 0 0)
(0.00093576 0 0)
(0.00094327 0 0)
(0.00095081 0 0)
(0.00095838 0 0)
(0.000965966 0 0)
(0.000973559 0 0)
(0.000981151 0 0)
(0.000988746 0 0)
(0.00099626 0 0)
(0.00100375 0 0)
(0.00101109 -7.02876e-07 0)
(0.00101077 -1.40895e-06 0)
(0.00101034 -2.14627e-06 0)
(0.00100966 -2.89051e-06 0)
(0.0010088 -3.68797e-06 0)
(0.00100777 -4.57011e-06 0)
(0.00100656 -5.46413e-06 0)
(0.0010052 -6.45779e-06 0)
(0.00100367 -7.51994e-06 0)
(0.00100197 -8.63431e-06 0)
(0.00100013 -9.87227e-06 0)
(0.000998167 -1.12262e-05 0)
(0.000996058 -1.26591e-05 0)
(0.000993852 -1.42219e-05 0)
(0.00099154 -1.59156e-05 0)
(0.000989112 -1.77131e-05 0)
(0.000986629 -1.96412e-05 0)
(0.000984097 -2.17131e-05 0)
(0.000981465 -2.3893e-05 0)
(0.000978841 -2.62167e-05 0)
(0.000976154 -2.86683e-05 0)
(0.000973444 -3.12626e-05 0)
(0.000970771 -3.39842e-05 0)
(0.000968096 -3.68378e-05 0)
(0.000965422 -3.98054e-05 0)
(0.000962814 -4.28891e-05 0)
(0.000960224 -4.60911e-05 0)
(0.000957685 -4.9409e-05 0)
(0.000955241 -5.28106e-05 0)
(0.000952856 -5.63105e-05 0)
(0.00095056 -5.98799e-05 0)
(0.000948343 -6.3523e-05 0)
(0.000946221 -6.72109e-05 0)
(0.000944175 -7.0953e-05 0)
(0.000942224 -7.47019e-05 0)
(0.000940343 -7.84749e-05 0)
(0.000938524 -8.22494e-05 0)
(0.000936762 -8.60044e-05 0)
(0.000935009 -8.97478e-05 0)
(0.000924575 -9.52327e-05 0)
(0.000915909 -9.69911e-05 0)
(0.000907257 -9.87266e-05 0)
(0.000898616 -0.000100412 0)
(0.000889978 -0.000102041 0)
(0.000881334 -0.000103586 0)
(0.000872657 -0.000105059 0)
(0.000863946 -0.000106424 0)
(0.000855172 -0.000107718 0)
(0.00084634 -0.000108913 0)
(0.000837431 -0.000110023 0)
(0.000828434 -0.000111031 0)
(0.000819331 -0.000111993 0)
(0.000810133 -0.000112833 0)
(0.000800801 -0.00011362 0)
(0.000791336 -0.000114389 0)
(0.000781727 -0.000115095 0)
(0.000771982 -0.00011573 0)
(0.000762079 -0.000116371 0)
(0.000752008 -0.000116979 0)
(0.000741766 -0.000117606 0)
(0.000731338 -0.000118222 0)
(0.000720696 -0.000118855 0)
(0.000709918 -0.000119526 0)
(0.000698933 -0.000120286 0)
(0.000687706 -0.000121037 0)
(0.000676296 -0.000121929 0)
(0.000664644 -0.000122844 0)
(0.000652802 -0.000123966 0)
(0.000640707 -0.000125136 0)
(0.000628402 -0.000126498 0)
(0.000615856 -0.00012797 0)
(0.000603092 -0.000129714 0)
(0.000590035 -0.000131561 0)
(0.000576795 -0.00013369 0)
(0.000563271 -0.000136016 0)
(0.000549538 -0.000138654 0)
(0.00053556 -0.000141536 0)
(0.000521386 -0.000144765 0)
(0.000506914 -0.000148285 0)
(0.000492239 -0.000152142 0)
(0.000477366 -0.000156415 0)
(0.000462241 -0.000161056 0)
(0.000446991 -0.00016609 0)
(0.000431569 -0.00017158 0)
(0.00041588 -0.000177489 0)
(0.000400161 -0.000183866 0)
(0.000384302 -0.000190754 0)
(0.000368257 -0.000198091 0)
(0.00035225 -0.000205954 0)
(0.000336129 -0.000214313 0)
(0.000320023 -0.000223186 0)
(0.000303855 -0.000232571 0)
(0.000287824 -0.000242474 0)
(0.000271948 -0.00025281 0)
(0.000256162 -0.000263617 0)
(0.000240558 -0.000274946 0)
(0.000225165 -0.000286683 0)
(0.000210016 -0.000298671 0)
(0.000195219 -0.000311047 0)
(0.00018076 -0.000323762 0)
(0.000166716 -0.000336628 0)
(0.000153121 -0.000349667 0)
(0.000140005 -0.000362682 0)
(0.000127447 -0.00037576 0)
(0.000115316 -0.000388651 0)
(0.000103797 -0.000401299 0)
(9.29296e-05 -0.000413767 0)
(8.24895e-05 -0.000425636 0)
(7.27347e-05 -0.000436981 0)
(6.36468e-05 -0.000447687 0)
(5.49404e-05 -0.000457644 0)
(4.67116e-05 -0.000466652 0)
(3.92077e-05 -0.000474785 0)
(3.18707e-05 -0.00048178 0)
(2.49297e-05 -0.000487575 0)
(1.85716e-05 -0.000492252 0)
(1.20847e-05 -0.000495557 0)
(6.15803e-06 -0.000497567 0)
(0 -0.000495415 0)
(0 -0.000491916 0)
(0 -0.000488571 0)
(0 -0.000484639 0)
(0 -0.000480737 0)
(0 -0.000476437 0)
(0 -0.000472152 0)
(0 -0.000467875 0)
(0 -0.000463601 0)
(0 -0.000458986 0)
(0 -0.000454415 0)
(0 -0.000449769 0)
(0 -0.00044477 0)
(0 -0.000439445 0)
(0 -0.000433677 0)
(0 -0.000426877 0)
(0 -0.000419101 0)
(0 -0.000409981 0)
(0 -0.000398715 0)
(3.72535e-05 -0.000383568 0)
(7.46763e-05 -0.000380981 0)
(0.00011074 -0.000377335 0)
(0.000147216 -0.000371921 0)
(0.000182283 -0.000364742 0)
(0.000218308 -0.000357015 0)
(0.000252426 -0.000348042 0)
(0.000285498 -0.000337814 0)
(0.000318907 -0.000326486 0)
(0.000350348 -0.00031454 0)
(0.000380692 -0.000301826 0)
(0.000410126 -0.000288796 0)
(0.000438162 -0.000274932 0)
(0.000465167 -0.000260991 0)
(0.000490514 -0.000246609 0)
(0.000514763 -0.000232282 0)
(0.000537597 -0.000217576 0)
(0.000559337 -0.000203229 0)
(0.000579521 -0.00018867 0)
(0.000598319 -0.000173613 0)
(0.000615621 -0.00015904 0)
(0.00063147 -0.000144444 0)
(0.000645878 -0.000129517 0)
(0.000658751 -0.000115232 0)
(0.000670248 -0.000100767 0)
(0.000680045 -8.6417e-05 0)
(0.000688488 -7.14965e-05 0)
(0.000695395 -5.741e-05 0)
(0.000700654 -4.28029e-05 0)
(0.000704433 -2.88854e-05 0)
(0.000707147 -1.45984e-05 0)
(0.000713158 0 0)
(0.000716961 0 0)
(0.000720005 0 0)
(0.000722314 0 0)
(0.000724082 0 0)
(0.000725682 0 0)
(0.000727172 0 0)
(0.000728684 0 0)
(0.000730242 0 0)
(0.00073195 0 0)
(0.000733635 0 0)
(0.000735563 0 0)
(0.000737748 0 0)
(0.000739969 0 0)
(0.000742547 0 0)
(0.00074522 0 0)
(0.000748109 0 0)
(0.000751247 0 0)
(0.00075455 0 0)
(0.000758071 0 0)
(0.000761804 0 0)
(0.000765717 0 0)
(0.00076982 0 0)
(0.000774105 0 0)
(0.000778572 0 0)
(0.000783218 0 0)
(0.000788032 0 0)
(0.000793021 0 0)
(0.000798169 0 0)
(0.000803481 0 0)
(0.000808942 0 0)
(0.000814546 0 0)
(0.000820301 0 0)
(0.000826202 0 0)
(0.000832241 0 0)
(0.000838407 0 0)
(0.000844699 0 0)
(0.000851112 0 0)
(0.000857644 0 0)
(0.00086429 0 0)
(0.000871045 0 0)
(0.000877904 0 0)
(0.000884857 0 0)
(0.0008919 0 0)
(0.000899036 0 0)
(0.000906248 0 0)
(0.000913533 0 0)
(0.000920883 0 0)
(0.000928304 0 0)
(0.00093576 0 0)
(0.00094327 0 0)
(0.00095081 0 0)
(0.00095838 0 0)
(0.000965966 0 0)
(0.000973559 0 0)
(0.000981151 0 0)
(0.000988746 0 0)
(0.00099626 0 0)
(0.00100375 0 0)
(0.00101109 -7.02876e-07 0)
(0.00101077 -1.40895e-06 0)
(0.00101034 -2.14627e-06 0)
(0.00100966 -2.89051e-06 0)
(0.0010088 -3.68797e-06 0)
(0.00100777 -4.57011e-06 0)
(0.00100656 -5.46413e-06 0)
(0.0010052 -6.45779e-06 0)
(0.00100367 -7.51994e-06 0)
(0.00100197 -8.63431e-06 0)
(0.00100013 -9.87227e-06 0)
(0.000998167 -1.12262e-05 0)
(0.000996058 -1.26591e-05 0)
(0.000993852 -1.42219e-05 0)
(0.00099154 -1.59156e-05 0)
(0.000989112 -1.77131e-05 0)
(0.000986629 -1.96412e-05 0)
(0.000984097 -2.17131e-05 0)
(0.000981465 -2.3893e-05 0)
(0.000978841 -2.62167e-05 0)
(0.000976154 -2.86683e-05 0)
(0.000973444 -3.12626e-05 0)
(0.000970771 -3.39842e-05 0)
(0.000968096 -3.68378e-05 0)
(0.000965422 -3.98054e-05 0)
(0.000962814 -4.28891e-05 0)
(0.000960224 -4.60911e-05 0)
(0.000957685 -4.9409e-05 0)
(0.000955241 -5.28106e-05 0)
(0.000952856 -5.63105e-05 0)
(0.00095056 -5.98799e-05 0)
(0.000948343 -6.3523e-05 0)
(0.000946221 -6.72109e-05 0)
(0.000944175 -7.0953e-05 0)
(0.000942224 -7.47019e-05 0)
(0.000940343 -7.84749e-05 0)
(0.000938524 -8.22494e-05 0)
(0.000936762 -8.60044e-05 0)
(0.000935009 -8.97478e-05 0)
(0.000924575 -9.52327e-05 0)
(0.000915909 -9.69911e-05 0)
(0.000907257 -9.87266e-05 0)
(0.000898616 -0.000100412 0)
(0.000889978 -0.000102041 0)
(0.000881334 -0.000103586 0)
(0.000872657 -0.000105059 0)
(0.000863946 -0.000106424 0)
(0.000855172 -0.000107718 0)
(0.00084634 -0.000108913 0)
(0.000837431 -0.000110023 0)
(0.000828434 -0.000111031 0)
(0.000819331 -0.000111993 0)
(0.000810133 -0.000112833 0)
(0.000800801 -0.00011362 0)
(0.000791336 -0.000114389 0)
(0.000781727 -0.000115095 0)
(0.000771982 -0.00011573 0)
(0.000762079 -0.000116371 0)
(0.000752008 -0.000116979 0)
(0.000741766 -0.000117606 0)
(0.000731338 -0.000118222 0)
(0.000720696 -0.000118855 0)
(0.000709918 -0.000119526 0)
(0.000698933 -0.000120286 0)
(0.000687706 -0.000121037 0)
(0.000676296 -0.000121929 0)
(0.000664644 -0.000122844 0)
(0.000652802 -0.000123966 0)
(0.000640707 -0.000125136 0)
(0.000628402 -0.000126498 0)
(0.000615856 -0.00012797 0)
(0.000603092 -0.000129714 0)
(0.000590035 -0.000131561 0)
(0.000576795 -0.00013369 0)
(0.000563271 -0.000136016 0)
(0.000549538 -0.000138654 0)
(0.00053556 -0.000141536 0)
(0.000521386 -0.000144765 0)
(0.000506914 -0.000148285 0)
(0.000492239 -0.000152142 0)
(0.000477366 -0.000156415 0)
(0.000462241 -0.000161056 0)
(0.000446991 -0.00016609 0)
(0.000431569 -0.00017158 0)
(0.00041588 -0.000177489 0)
(0.000400161 -0.000183866 0)
(0.000384302 -0.000190754 0)
(0.000368257 -0.000198091 0)
(0.00035225 -0.000205954 0)
(0.000336129 -0.000214313 0)
(0.000320023 -0.000223186 0)
(0.000303855 -0.000232571 0)
(0.000287824 -0.000242474 0)
(0.000271948 -0.00025281 0)
(0.000256162 -0.000263617 0)
(0.000240558 -0.000274946 0)
(0.000225165 -0.000286683 0)
(0.000210016 -0.000298671 0)
(0.000195219 -0.000311047 0)
(0.00018076 -0.000323762 0)
(0.000166716 -0.000336628 0)
(0.000153121 -0.000349667 0)
(0.000140005 -0.000362682 0)
(0.000127447 -0.00037576 0)
(0.000115316 -0.000388651 0)
(0.000103797 -0.000401299 0)
(9.29296e-05 -0.000413767 0)
(8.24895e-05 -0.000425636 0)
(7.27347e-05 -0.000436981 0)
(6.36468e-05 -0.000447687 0)
(5.49404e-05 -0.000457644 0)
(4.67116e-05 -0.000466652 0)
(3.92077e-05 -0.000474785 0)
(3.18707e-05 -0.00048178 0)
(2.49297e-05 -0.000487575 0)
(1.85716e-05 -0.000492252 0)
(1.20847e-05 -0.000495557 0)
(6.15803e-06 -0.000497567 0)
(0 -0.000495415 0)
(0 -0.000491916 0)
(0 -0.000488571 0)
(0 -0.000484639 0)
(0 -0.000480737 0)
(0 -0.000476437 0)
(0 -0.000472152 0)
(0 -0.000467875 0)
(0 -0.000463601 0)
(0 -0.000458986 0)
(0 -0.000454415 0)
(0 -0.000449769 0)
(0 -0.00044477 0)
(0 -0.000439445 0)
(0 -0.000433677 0)
(0 -0.000426877 0)
(0 -0.000419101 0)
(0 -0.000409981 0)
(0 -0.000398715 0)
(3.72535e-05 -0.000383568 0)
(7.46763e-05 -0.000380981 0)
(0.00011074 -0.000377335 0)
(0.000147216 -0.000371921 0)
(0.000182283 -0.000364742 0)
(0.000218308 -0.000357015 0)
(0.000252426 -0.000348042 0)
(0.000285498 -0.000337814 0)
(0.000318907 -0.000326486 0)
(0.000350348 -0.00031454 0)
(0.000380692 -0.000301826 0)
(0.000410126 -0.000288796 0)
(0.000438162 -0.000274932 0)
(0.000465167 -0.000260991 0)
(0.000490514 -0.000246609 0)
(0.000514763 -0.000232282 0)
(0.000537597 -0.000217576 0)
(0.000559337 -0.000203229 0)
(0.000579521 -0.00018867 0)
(0.000598319 -0.000173613 0)
(0.000615621 -0.00015904 0)
(0.00063147 -0.000144444 0)
(0.000645878 -0.000129517 0)
(0.000658751 -0.000115232 0)
(0.000670248 -0.000100767 0)
(0.000680045 -8.6417e-05 0)
(0.000688488 -7.14965e-05 0)
(0.000695395 -5.741e-05 0)
(0.000700654 -4.28029e-05 0)
(0.000704433 -2.88854e-05 0)
(0.000707147 -1.45984e-05 0)
(0.000597245 -5.69236e-05 0)
(0.000778798 -4.03876e-05 0)
(0.000371616 -0.000190165 0)
(0.000847574 -6.26354e-05 0)
(0.000892363 -2.50231e-05 0)
(0.000639119 -6.81107e-05 0)
(0.000738115 -1.88914e-05 0)
(0.000176948 -0.000360913 0)
(0.000658446 -3.37071e-05 0)
(0.000459275 -0.000130534 0)
(0.000748737 -7.47859e-05 0)
(0.00083067 -1.71952e-05 0)
(0.000517527 -0.000108791 0)
(0.000718964 -1.24866e-05 0)
(0.000910334 -3.94359e-05 0)
(0.00053584 -0.000106768 0)
(0.000668074 -4.11604e-05 0)
(0.000946433 -1.27254e-05 0)
(0.000880593 -7.73635e-05 0)
(0.000840892 -4.20908e-05 0)
(0.000244878 -0.000290615 0)
(0.000315527 -0.000255374 0)
(0.000666725 -8.86413e-05 0)
(0.000792865 -1.00129e-05 0)
(0.000343386 -0.000205123 0)
(0.000499774 -0.000103908 0)
(0.000798079 -8.62017e-05 0)
(0.000882197 -1.23166e-05 0)
(0.000715416 -5.87278e-05 0)
(0.000776511 -2.39565e-05 0)
(0.000583973 -7.27074e-05 0)
(7.73791e-05 -0.000445448 0)
(0.000758461 -7.31199e-06 0)
(0.000722374 -3.86097e-05 0)
(0.000944069 -2.37156e-05 0)
(0.00090949 -5.48914e-05 0)
(0.00067774 -2.81237e-05 0)
(0.000121225 -0.000402082 0)
(0.000695377 -2.92757e-05 0)
(0.00059328 -0.00010236 0)
(0.000716687 -1.08243e-05 0)
(0.000591306 -5.81545e-05 0)
(0.000790281 -5.52892e-05 0)
(0.000827749 -2.93725e-05 0)
(0.000615968 -7.22464e-05 0)
(0.000153141 -0.000377416 0)
(0.000454283 -0.000142594 0)
(0.000441065 -0.000182017 0)
(0.000667897 -2.7179e-05 0)
(0.000711557 -9.51784e-05 0)
(0.000827895 -7.76506e-06 0)
(0.00042636 -0.000148159 0)
(0.000524865 -9.17576e-05 0)
(0.000263151 -0.000282713 0)
(0.000231434 -0.000331596 0)
(0.000836697 -9.10125e-05 0)
(0.000918519 -8.85101e-06 0)
(0.000800307 -6.86521e-05 0)
(0.000861884 -2.14057e-05 0)
(0.000382816 -0.00017978 0)
(0.000868611 -4.77672e-05 0)
(0.000420321 -0.000165681 0)
(0.000754774 -9.72527e-05 0)
(0.00085795 -7.56634e-06 0)
(0.000747088 -5.14524e-06 0)
(0.000264399 -0.000265681 0)
(0.000974958 -6.1509e-06 0)
(0.000902008 -8.45217e-05 0)
(0.000886626 -3.52579e-05 0)
(6.89917e-05 -0.000439583 0)
(0.000949915 -2.96798e-05 0)
(0.000522527 -0.000101231 0)
(0.000721453 -1.60785e-05 0)
(0.000543432 -0.000128071 0)
(0.000675217 -5.06311e-05 0)
(0.000716561 -2.96939e-05 0)
(0.000783738 -5.14608e-06 0)
(0.000937016 -4.11053e-05 0)
(0.000320206 -0.000226343 0)
(0.000591036 -6.59234e-05 0)
(0.0009687 -1.4724e-05 0)
(0.000915062 -6.44136e-05 0)
(0.000848325 -7.50022e-05 0)
(0.000913646 -1.68827e-05 0)
(0.000828913 -5.47069e-05 0)
(0.00085722 -3.12837e-05 0)
(0.000587673 -8.17581e-05 0)
(0.00053703 -0.000121005 0)
(0.000620463 -5.30538e-05 0)
(0.000668641 -7.25808e-05 0)
(0.000770676 -1.62948e-05 0)
(0.000709037 -7.43615e-05 0)
(0.00080208 -1.57632e-05 0)
(0.000626535 -0.000106402 0)
(0.000749873 -6.07871e-05 0)
(0.000796561 -2.88079e-05 0)
(0.000188281 -0.000336112 0)
(0.000719215 -1.07829e-05 0)
(0.000806116 -4.32501e-05 0)
(0.000736745 -4.88265e-06 0)
(0.000531934 -8.99507e-05 0)
(9.74553e-05 -0.000429045 0)
(0.000739138 -4.54588e-05 0)
(0.00036927 -0.000247189 0)
(0.000808765 -4.78303e-06 0)
(0.000759666 -3.3731e-05 0)
(0.000947162 -6.20551e-06 0)
(0.000867565 -9.24092e-05 0)
(3.9413e-05 -0.000474387 0)
(0.000629685 -6.09179e-05 0)
(0.000235251 -0.00031545 0)
(0.000640303 -3.82818e-05 0)
(0.000882607 -5.46579e-05 0)
(0.000701557 -2.61441e-05 0)
(0.000334512 -0.000225852 0)
(0.000442928 -0.000141094 0)
(0.000204102 -0.000332888 0)
(0.000769309 -1.06244e-05 0)
(0.00055918 -7.2375e-05 0)
(0.000669073 -0.000105141 0)
(0.000921743 -2.244e-05 0)
(0.00066676 -5.89298e-05 0)
(0.000486196 -0.000137018 0)
(0.000404343 -0.000162943 0)
(0.000321186 -0.00021992 0)
(0.000803247 -9.92388e-05 0)
(0.000895673 -6.25255e-06 0)
(0.000628044 -8.3939e-05 0)
(0.000879619 -6.67589e-05 0)
(0.000689505 -1.99069e-05 0)
(0.000131841 -0.000400125 0)
(0.00076886 -8.34087e-05 0)
(0.000855974 -1.34929e-05 0)
(0.000917242 -3.12238e-05 0)
(0.000685228 -5.74348e-05 0)
(0.00074902 -2.39929e-05 0)
(8.35044e-05 -0.000410563 0)
(0.000123892 -0.000404124 0)
(0.000693355 -2.26161e-05 0)
(0.000573837 -7.04935e-05 0)
(0.000710271 -2.54423e-05 0)
(0.000659292 -4.27089e-05 0)
(0.000658568 -3.80482e-05 0)
(0.000173536 -0.000373057 0)
(0.000764551 -3.14993e-06 0)
(4.2868e-05 -0.00046219 0)
(0.000822917 -7.4613e-05 0)
(0.000887654 -1.82914e-05 0)
(0.000693255 -2.057e-05 0)
(0.000311308 -0.000238358 0)
(0.000579407 -9.48403e-05 0)
(0.000737837 -1.00848e-05 0)
(0.000637593 -3.88293e-05 0)
(0.000966116 -2.19549e-05 0)
(0.000807872 -2.15168e-05 0)
(0.000177639 -0.000363646 0)
(0.000938578 -4.71249e-05 0)
(0.000746744 -1.26038e-05 0)
(0.00047626 -0.000117097 0)
(0.000772123 -5.02092e-05 0)
(5.73969e-05 -0.000433759 0)
(0.000371297 -0.000186018 0)
(0.000908051 -4.75471e-05 0)
(0.000407854 -0.000169709 0)
(0.000432109 -0.000149299 0)
(0.00098326 -9.05521e-06 0)
(0.000919909 -7.20718e-05 0)
(0.000776086 -6.5896e-05 0)
(0.000838194 -2.20888e-05 0)
(0.000381594 -0.000204205 0)
(0.00049812 -0.000118375 0)
(0.000604799 -0.00010719 0)
(0.000568941 -0.00012038 0)
(0.000720567 -1.01677e-05 0)
(0.00072936 -5.32362e-06 0)
(0.00072534 -0.000105157 0)
(0.000843094 -4.64938e-06 0)
(0.000480554 -0.000122135 0)
(0.000304579 -0.000299881 0)
(0.000804351 -3.54847e-05 0)
(0.000829581 -3.62909e-05 0)
(0.000563882 -9.38287e-05 0)
(0.000691929 -3.98717e-05 0)
(0.000946023 -1.75546e-05 0)
(0.00073916 -8.70967e-05 0)
(0.00083892 -1.13929e-05 0)
(0.000500056 -0.000175966 0)
(0.000506575 -0.000104208 0)
(0.00014218 -0.000379074 0)
(0.000695883 -8.74298e-05 0)
(0.000811026 -1.08406e-05 0)
(0.000719136 -1.22191e-05 0)
(6.23958e-05 -0.000459694 0)
(0.000213453 -0.000306877 0)
(0.000603402 -5.23157e-05 0)
(0.000774618 -0.000103756 0)
(0.000876281 -4.80676e-06 0)
(0.000462819 -0.000148441 0)
(0.000628996 -9.4347e-05 0)
(0.000826721 -8.39901e-05 0)
(0.000902403 -1.28239e-05 0)
(0.000743562 -3.03335e-05 0)
(0.000710816 -4.80625e-05 0)
(0.000547924 -8.54132e-05 0)
(0.000865078 -4.12293e-05 0)
(0.000697681 -1.74542e-05 0)
(0.000816394 -4.92868e-05 0)
(0.000634006 -4.33653e-05 0)
(0.000413222 -0.000158274 0)
(0.000282219 -0.000255288 0)
(0.000902509 -2.89031e-05 0)
(0.000443675 -0.000155686 0)
(0.000551792 -9.29569e-05 0)
(0.000775832 -2.95897e-06 0)
(0.000743489 -5.30293e-05 0)
(0.000824557 -4.0626e-06 0)
(0.000956574 -3.24707e-05 0)
(0.000274235 -0.000253867 0)
(0.000199775 -0.000332349 0)
(0.000695484 -0.000107434 0)
(0.000453543 -0.000131547 0)
(0.000522992 -9.09887e-05 0)
(0.000632988 -5.37862e-05 0)
(0.0008907 -4.67549e-05 0)
(0.000844063 -9.9494e-05 0)
(0.000930021 -4.49341e-06 0)
(0.000989527 -3.09244e-06 0)
(0.000913629 -8.84247e-05 0)
(0.00097739 -1.62122e-05 0)
(0.000631169 -4.98059e-05 0)
(9.40145e-05 -0.000428972 0)
(0.000797471 -3.19688e-06 0)
(0.000607893 -8.12925e-05 0)
(0.000559184 -7.38933e-05 0)
(0.000855661 -8.31707e-05 0)
(0.000928281 -1.20833e-05 0)
(0.000288293 -0.000288361 0)
(0.000261711 -0.00027972 0)
(0.000803453 -6.02117e-05 0)
(0.000824984 -6.28902e-05 0)
(0.000871836 -2.52883e-05 0)
(0.00084892 -2.66453e-05 0)
(0.000935709 -5.42439e-05 0)
(0.000442493 -0.000218675 0)
(0.000930837 -3.74929e-05 0)
(0.000746856 -2.89095e-06 0)
(0.000879532 -3.06913e-05 0)
(0.000850132 -5.47969e-05 0)
(0.000281338 -0.000273222 0)
(0.00022115 -0.000321772 0)
(0.000373661 -0.000183994 0)
(0.000889807 -4.06222e-05 0)
(0.000632209 -4.03356e-05 0)
(0.000847233 -4.80003e-05 0)
(0.000346011 -0.000204326 0)
(0.000867956 -6.28887e-05 0)
(0.00047285 -0.000126715 0)
(0.000964634 -3.75631e-06 0)
(0.000884628 -9.42745e-05 0)
(0.000692846 -4.71858e-05 0)
(0.000457862 -0.000128617 0)
(0.000598106 -0.000117515 0)
(0.000691921 -3.2846e-05 0)
(0.000246558 -0.000337908 0)
(0.000733983 -7.64612e-06 0)
(0.00023802 -0.000291602 0)
(0.000796082 -7.77375e-05 0)
(0.000869798 -1.64865e-05 0)
(0.000384544 -0.000186306 0)
(0.000936634 -2.93669e-05 0)
(0.000814357 -2.61497e-05 0)
(0.000303068 -0.000234455 0)
(0.00075723 -1.48678e-05 0)
(0.000821466 -0.00010244 0)
(0.000912122 -4.24154e-06 0)
(0.000965284 -1.01841e-05 0)
(0.000898037 -7.78878e-05 0)
(0.000794851 -6.42329e-06 0)
(0.000723841 -8.16111e-05 0)
(0.000822236 -1.32648e-05 0)
(0.000108979 -0.000412463 0)
(0.000361161 -0.000195281 0)
(0.000900022 -6.33927e-05 0)
(0.000608887 -5.27937e-05 0)
(0.000697371 -6.84257e-05 0)
(0.000782528 -1.86751e-05 0)
(0.000702074 -2.25026e-05 0)
(0.000502528 -0.000123074 0)
(0.000536429 -8.44814e-05 0)
(0.000549563 -8.53922e-05 0)
(0.000930959 -1.66307e-05 0)
(0.00072467 -6.46145e-05 0)
(0.000509987 -0.000127545 0)
(0.00066585 -2.90523e-05 0)
(0.000505144 -0.000137106 0)
(0.000779832 -9.36077e-05 0)
(0.000873787 -9.0596e-06 0)
(0.000756311 -2.6123e-06 0)
(0.000167811 -0.000367392 0)
(0.000642711 -0.000113124 0)
(0.000660879 -4.89891e-05 0)
(0.000653683 -8.24446e-05 0)
(3.30067e-05 -0.000456997 0)
(0.000724374 -1.9033e-05 0)
(0.000771929 -7.19109e-06 0)
(0.00085939 -3.67796e-05 0)
(0.000651454 -5.90215e-05 0)
(0.000597157 -7.23225e-05 0)
(0.000494132 -0.000109166 0)
(0.000720791 -2.45443e-05 0)
(0.000749616 -0.000107668 0)
(0.000860469 -3.51711e-06 0)
(0.000779351 -7.28891e-05 0)
(0.000850303 -1.87394e-05 0)
(0.000968173 -2.46964e-05 0)
(0.000751042 -6.52343e-06 0)
(0.000736676 -3.24396e-06 0)
(0.000991414 -5.78397e-06 0)
(0.000922709 -7.82688e-05 0)
(0.000320225 -0.000223848 0)
(0.000550776 -0.000108303 0)
(0.00078725 -1.39431e-05 0)
(0.000682083 -7.81063e-05 0)
(0.000714918 -1.51966e-05 0)
(0.000697236 -1.80194e-05 0)
(9.53781e-05 -0.000420908 0)
(0.000951368 -3.99738e-05 0)
(0.000618454 -7.07273e-05 0)
(0.000644288 -9.15663e-05 0)
(0.000571465 -6.99546e-05 0)
(0.000654681 -9.90452e-05 0)
(0.000167623 -0.000373542 0)
(0.000779572 -2.81307e-05 0)
(0.000735906 -7.07391e-05 0)
(0.000908273 -2.11044e-05 0)
(0.000240008 -0.000281107 0)
(2.3861e-05 -0.000476056 0)
(0.000778487 -3.40743e-05 0)
(0.000925427 -2.59903e-05 0)
(0.000570144 -0.000141742 0)
(1.98615e-05 -0.000487568 0)
(0.000986227 -1.10889e-05 0)
(0.000932767 -6.31123e-05 0)
(0.000891168 -5.79849e-05 0)
(0.000135957 -0.000396043 0)
(0.000868408 -7.36063e-05 0)
(0.000286447 -0.000255228 0)
(0.000720509 -3.3941e-05 0)
(0.00013685 -0.000386546 0)
(0.000699277 -4.51047e-05 0)
(0.000387809 -0.000216524 0)
(0.000739401 -3.93077e-05 0)
(0.000758708 -3.96201e-05 0)
(0.000665585 -2.85188e-05 0)
(0.000660043 -6.76641e-05 0)
(0.000959444 -1.90862e-05 0)
(0.000843184 -7.07361e-05 0)
(0.000125872 -0.000404436 0)
(0.000758589 -4.58016e-05 0)
(0.000493568 -0.000108786 0)
(0.000557128 -8.56884e-05 0)
(0.00075085 -1.89898e-05 0)
(0.000899297 -6.90541e-05 0)
(0.000924776 -4.79082e-05 0)
(0.000599436 -5.84822e-05 0)
(0.000539182 -0.00012984 0)
(0.000598192 -7.04098e-05 0)
(0.00071219 -1.30729e-05 0)
(0.000787354 -2.35347e-06 0)
(0.000780531 -8.16018e-06 0)
(0.000608905 -6.10502e-05 0)
(0.000681069 -3.02599e-05 0)
(0.000958557 -1.37184e-05 0)
(0.000793219 -2.06732e-05 0)
(0.000647373 -4.49041e-05 0)
(0.000791076 -4.86582e-05 0)
(3.1175e-05 -0.000448496 0)
(0.0007047 -1.97146e-05 0)
(0.000564776 -9.38287e-05 0)
(0.000755301 -6.6855e-05 0)
(0.000806435 -8.04993e-06 0)
(4.37384e-05 -0.000428448 0)
(0.000918319 -5.68626e-05 0)
(0.000727801 -5.23529e-06 0)
(0.000952687 -9.04076e-06 0)
(0.000879644 -8.45322e-05 0)
(0.00073528 -9.59759e-05 0)
(0.000845722 -8.03232e-06 0)
(0.00043033 -0.000147694 0)
(0.000687827 -9.61168e-05 0)
(0.000565232 -0.000109715 0)
(0.000814799 -1.72328e-05 0)
(0.000926574 -3.44173e-05 0)
(0.000649933 -5.65243e-05 0)
(0.000156968 -0.000358146 0)
(0.000776734 -1.24487e-05 0)
(0.000601945 -9.21501e-05 0)
(0.000768411 -6.01378e-05 0)
(5.31443e-05 -0.000462655 0)
(0.00034573 -0.000224926 0)
(0.000686808 -6.40962e-05 0)
(0.000767536 -2.01491e-05 0)
(0.000580659 -0.000100057 0)
(9.94216e-05 -0.00042882 0)
(0.00037177 -0.000190793 0)
(0.000488533 -0.000156988 0)
(0.000605651 -0.000106725 0)
(0.000868256 -5.32737e-05 0)
(0.000728582 -6.74754e-06 0)
(0.000719398 -5.2042e-05 0)
(0.000195064 -0.000347437 0)
(0.000708123 -1.36813e-05 0)
(0.000768124 -4.86253e-06 0)
(0.000810234 -9.06908e-05 0)
(0.0008949 -1.02133e-05 0)
(0.000413198 -0.000162857 0)
(0.000369738 -0.00027241 0)
(7.50682e-05 -0.000446246 0)
(0.000127378 -0.000395417 0)
(0.000854444 -8.90858e-05 0)
(0.0009333 -8.94071e-06 0)
(0.000788446 -4.35854e-05 0)
(0.000653201 -3.54862e-05 0)
(4.1167e-05 -0.000476386 0)
(0.000341829 -0.000215479 0)
(0.00051298 -0.000124494 0)
(0.000304273 -0.000247797 0)
(0.000496229 -0.000112303 0)
(0.000230405 -0.000306806 0)
(5.52523e-05 -0.000405057 0)
(0.000823957 -2.07305e-05 0)
(0.000169571 -0.000357773 0)
(0.000217125 -0.000335238 0)
(0.000671398 -3.16275e-05 0)
(0.000906142 -3.62234e-05 0)
(0.000378683 -0.000196435 0)
(0.000840903 -3.19366e-05 0)
(0.00041598 -0.000162339 0)
(0.000761902 -2.8081e-05 0)
(0.000395468 -0.000169495 0)
(0.000402379 -0.000164008 0)
(0.000376678 -0.000181635 0)
(0.000760922 -9.50053e-06 0)
(0.000677162 -4.23685e-05 0)
(0.000683357 -3.04024e-05 0)
(0.000274428 -0.000288301 0)
(0.000792993 -2.48692e-05 0)
(0.000815197 -2.49649e-06 0)
(0.000790204 -0.000106923 0)
(0.000889184 -3.2154e-06 0)
(0.000142231 -0.000389735 0)
(0.000700902 -2.02357e-05 0)
(0.000824265 -4.1711e-05 0)
(0.000632118 -4.44954e-05 0)
(0.000712883 -1.93883e-05 0)
(0.000935363 -2.22697e-05 0)
(0.000738294 -1.20095e-05 0)
(0.000160809 -0.000375386 0)
(0.000742482 -2.44168e-06 0)
(6.55315e-05 -0.000447211 0)
(8.94769e-05 -0.000415519 0)
(0.000725938 -5.64605e-06 0)
(0.000461131 -0.000139483 0)
(0.000856835 -0.000100822 0)
(0.000942736 -3.00828e-06 0)
(0.000641587 -7.42163e-05 0)
(0.000612729 -4.92579e-05 0)
(0.000740718 -7.69801e-06 0)
(0.000673352 -0.00011376 0)
(0.000403855 -0.00016524 0)
(0.000337031 -0.000252276 0)
(0.000547186 -8.25955e-05 0)
(0.000863424 -6.91044e-05 0)
(0.000720083 -1.08808e-05 0)
(0.000462933 -0.00015214 0)
(0.00088544 -2.21175e-05 0)
(0.000236383 -0.000304075 0)
(0.000817561 -6.52944e-06 0)
(0.000672276 -5.62049e-05 0)
(0.000620796 -0.000117539 0)
(0.000754272 -8.95163e-05 0)
(0.0008518 -1.06367e-05 0)
(0.000633916 -7.82601e-05 0)
(0.000342322 -0.000205412 0)
(0.000567802 -6.84869e-05 0)
(0.000732831 -2.54562e-05 0)
(0.000582835 -6.17763e-05 0)
(0.000679625 -2.444e-05 0)
(0.0002912 -0.000240415 0)
(0.000525307 -0.000104154 0)
(0.000174967 -0.000358921 0)
(0.000216724 -0.000313324 0)
(0.00040703 -0.000164918 0)
(0.000107295 -0.000421085 0)
(0.000673477 -3.65737e-05 0)
(0.000180352 -0.000334295 0)
(0.00042504 -0.000178169 0)
(0.000672578 -7.359e-05 0)
(0.000635301 -4.55058e-05 0)
(0.000900199 -5.28697e-05 0)
(0.000470737 -0.000121782 0)
(0.000808081 -3.0404e-05 0)
(0.00097858 -2.2817e-06 0)
(0.000898899 -9.45008e-05 0)
(0.000477716 -0.000135142 0)
(0.000740852 -5.10812e-06 0)
(0.000699697 -3.27157e-05 0)
(6.96801e-05 -0.000453357 0)
(0.000831274 -6.77195e-05 0)
(0.000567281 -8.22295e-05 0)
(0.000575551 -8.15573e-05 0)
(0.000909999 -7.02597e-05 0)
(0.000517539 -0.000102445 0)
(0.000338412 -0.000214978 0)
(0.000770656 -1.7638e-06 0)
(0.000633936 -5.55098e-05 0)
(0.000835344 -2.63347e-06 0)
(0.000754281 -8.07019e-05 0)
(0.000842223 -1.44068e-05 0)
(0.000832674 -4.73861e-05 0)
(0.000782356 -8.62679e-05 0)
(0.000869168 -1.23113e-05 0)
(0.00090764 -2.48034e-05 0)
(0.000193847 -0.00034458 0)
(0.000899863 -1.8944e-05 0)
(0.000352662 -0.000198681 0)
(0.000126037 -0.000401349 0)
(0.000586088 -6.82731e-05 0)
(0.000681541 -2.23604e-05 0)
(0.000952874 -2.61283e-05 0)
(0.000703881 -3.78577e-05 0)
(0.000818343 -9.56674e-05 0)
(0.000906624 -7.72858e-06 0)
(0.000291353 -0.000245527 0)
(0.000901477 -3.27514e-05 0)
(0.000691047 -5.1042e-05 0)
(0.000415102 -0.000170578 0)
(0.00073416 -2.87248e-05 0)
(0.000846002 -3.51729e-05 0)
(0.00096076 -3.42036e-05 0)
(0.000435112 -0.000143462 0)
(0.000980179 -1.76211e-05 0)
(0.000612243 -6.36942e-05 0)
(0.000814293 -8.14429e-05 0)
(0.00083241 -7.75665e-05 0)
(0.000889605 -1.46586e-05 0)
(0.000800024 -1.30927e-05 0)
(0.000864162 -5.86603e-05 0)
(0.000148035 -0.000384666 0)
(0.000709269 -0.000111572 0)
(0.00061792 -4.63548e-05 0)
(0.000701975 -5.68889e-05 0)
(0.000814061 -3.78859e-05 0)
(0.000737246 -1.62787e-05 0)
(0.000747998 -9.39058e-06 0)
(0.000916241 -4.21789e-05 0)
(0.000946589 -4.85767e-05 0)
(0.000526294 -8.90429e-05 0)
(0.000685735 -2.16305e-05 0)
(0.000703955 -1.65345e-05 0)
(0.00021015 -0.000358872 0)
(0.000707679 -3.89725e-05 0)
(0.000874368 -3.51425e-05 0)
(0.000712099 -1.31383e-05 0)
(0.000962094 -6.36149e-06 0)
(0.000886388 -8.79103e-05 0)
(0.000840461 -8.49618e-05 0)
(0.000913411 -1.34805e-05 0)
(0.000969105 -2.69289e-05 0)
(0.000555552 -7.57614e-05 0)
(0.000543593 -0.000173458 0)
(0.00045411 -0.000139028 0)
(0.000664118 -3.3794e-05 0)
(0.000614282 -9.30271e-05 0)
(0.000791837 -3.37602e-05 0)
(9.53866e-05 -0.000424494 0)
(0.000673916 -9.32697e-05 0)
(0.000805658 -5.47784e-05 0)
(0.00087457 -2.05364e-05 0)
(0.000340004 -0.000209455 0)
(0.000805124 -0.000106158 0)
(0.000900476 -3.13497e-06 0)
(0.000794904 -9.55222e-05 0)
(0.000885831 -8.12155e-06 0)
(0.00035294 -0.000230558 0)
(0.000322572 -0.000276875 0)
(0.000755171 -5.4707e-05 0)
(0.000682584 -2.49451e-05 0)
(0.000763339 -1.63859e-06 0)
(0.000727409 -1.14839e-05 0)
(0.000808605 -7.30174e-05 0)
(0.000709622 -2.10612e-05 0)
(0.000657198 -3.09669e-05 0)
(2.22482e-05 -0.000466082 0)
(0.000805984 -2.04341e-06 0)
(0.000686095 -3.76434e-05 0)
(0.000720866 -8.85356e-05 0)
(0.000828536 -1.04817e-05 0)
(0.000875077 -4.2972e-05 0)
(0.000588169 -8.68246e-05 0)
(0.000576543 -0.000125299 0)
(0.000209115 -0.000351702 0)
(0.000756173 -1.25467e-05 0)
(0.0003152 -0.000224209 0)
(0.00076065 -2.43179e-05 0)
(0.000500884 -0.000113394 0)
(0.000832053 -5.27368e-06 0)
(0.000653063 -3.27027e-05 0)
(0.000425189 -0.000249929 0)