/*--------------------------------*- C++ -*----------------------------------*\
| =========                 |                                                 |
| \\      /  F ield         | OpenFOAM: The Open Source CFD Toolbox           |
|  \\    /   O peration     | Version:  v2012                                 |
|   \\  /    A nd           | Website:  www.openfoam.com                      |
|    \\/     M anipulation  |                                                 |
\*---------------------------------------------------------------------------*/
FoamFile
{
    version     2.0;
    format      ascii;
    class       volScalarField;
    location    "2";
    object      sigmaHyd;
}
// * * * * * * * * * * * * * * * * * * * * * * * * * * * * * * * * * * * * * //

dimensions      [1 -1 -2 0 0 0 0];


internalField   nonuniform List<scalar> 
7666
(
3.54312e+06
1.11297e+07
3.61228e+07
1.17462e+07
1.33981e+07
1.72552e+07
1.30872e+07
1.23696e+07
2.01503e+07
1.33689e+07
8.75198e+06
1.25555e+07
1.21145e+07
1.21565e+07
1.35163e+07
1.62036e+07
1.2456e+07
1.96654e+07
1.30674e+07
1.22861e+07
1.05095e+07
1.51033e+07
1.23498e+07
1.05622e+07
1.66341e+07
1.36504e+07
1.7132e+07
6.1497e+06
1.23968e+07
1.18534e+07
1.19132e+07
1.95871e+07
902491
1.21454e+07
-3.31826e+06
1.12545e+07
1.13613e+07
1.20477e+07
1.7578e+07
1.31917e+07
4.53825e+06
2.58539e+07
2.59587e+07
7.0985e+06
2.13503e+07
1.30611e+07
1.90048e+07
5.25454e+06
8.95168e+06
8.23796e+06
5.26987e+06
1.50475e+07
1.28802e+07
2.07156e+07
9.97351e+06
1.5172e+07
8.31377e+06
7.86092e+06
1.62817e+07
1.78245e+07
9.35279e+06
1.21278e+07
1.20206e+07
1.19256e+07
7.62268e+06
9.52687e+06
1.33547e+07
8.1383e+06
1.74675e+07
1.61289e+07
1.74111e+07
1.49232e+07
1.4793e+07
1.1727e+07
1.17236e+07
1.29207e+07
1.70886e+07
1.19208e+07
1.17294e+07
9.28269e+06
1.28776e+07
1.43013e+07
8.2e+06
2.50915e+07
1.26231e+07
1.47413e+07
1.44507e+07
1.57291e+07
7.29173e+06
1.19174e+07
1.26865e+07
1.28666e+07
1.584e+07
1.98821e+07
1.86163e+07
1.12551e+07
-7.57086e+06
3.74663e+07
1.31876e+07
1.20961e+07
1.57234e+07
1.17641e+07
3.40302e+06
2.75739e+07
2.46981e+06
1.73982e+07
2.44561e+07
1.46219e+07
1.30059e+07
1.50851e+07
1.13164e+07
1.36361e+07
1.02177e+07
9.17121e+06
8.18719e+06
1.44036e+07
6.72848e+06
-6.00424e+06
1.23089e+07
1.23797e+07
1.96508e+07
1.17537e+07
1.28071e+07
1.3672e+07
1.06581e+07
8.02621e+06
1.4251e+07
1.37044e+07
1.09534e+07
1.26859e+07
1.67821e+07
1.36831e+07
1.16589e+07
1.66086e+07
1.26767e+07
1.73596e+07
1.28344e+07
1.31604e+07
1.23197e+07
1.06324e+07
1.11599e+07
1.44321e+07
1.35327e+07
1.36337e+07
1.34054e+07
1.27758e+07
1.29893e+07
1.44727e+07
3.35491e+06
1.28026e+07
1.35566e+07
8.11137e+06
9.52614e+06
4.07581e+06
1.28709e+07
1.27859e+07
4.42291e+06
1.14943e+07
1.12144e+07
1.24903e+07
2.38274e+07
1.38924e+07
1.50686e+07
2.51578e+07
3.07792e+07
2.86016e+07
1.12847e+07
7.67858e+06
7.64449e+06
2.35686e+07
1.06885e+07
8.43556e+06
1.44049e+07
1.36471e+07
6.85314e+06
9.48857e+06
1.41057e+07
1.74374e+07
1.23433e+07
1.18675e+07
1.45225e+07
-1.01749e+07
1.42455e+07
-6.4972e+06
8.90203e+06
1.13626e+07
1.4757e+07
1.15912e+07
1.6021e+07
1.24019e+07
1.06609e+07
1.2856e+07
1.30375e+07
1.23586e+07
1.32972e+07
1.77487e+07
1.13803e+07
1.27944e+07
1.33043e+07
-1.16514e+07
1.45308e+07
6.39064e+06
1.2403e+07
1.77349e+07
1.1666e+07
2.17194e+07
1.30287e+07
1.49424e+06
7.16299e+06
-3.00971e+06
1.80182e+07
7.1835e+06
1.34015e+07
1.41764e+07
1.44968e+07
8.80566e+06
1.11811e+07
1.85454e+07
8.47301e+06
1.61825e+07
2.01634e+07
2.45142e+07
1.19822e+07
1.35963e+07
1.41641e+07
1.21464e+07
2.18191e+07
1.74675e+07
1.06219e+07
1.14767e+07
1.14809e+07
1.24946e+07
7.18349e+06
1.05511e+07
1.49612e+07
1.15717e+07
2.18032e+07
1.53107e+07
-6.95058e+06
1.23531e+07
1.32309e+07
1.34185e+07
1.1767e+07
7.51727e+06
1.0072e+07
1.01054e+07
-1.35109e+07
9.97433e+06
2.55341e+07
1.39504e+07
1.411e+07
9.59192e+06
1.46887e+07
1.38392e+07
1.45373e+07
1.16521e+07
1.74638e+07
1.53076e+07
1.41354e+07
-2.51274e+06
9.53452e+06
1.61517e+07
1.75366e+07
1.52761e+07
1.35693e+07
-1.41492e+07
1.13349e+07
1.64826e+07
2.82703e+07
25345
1.30821e+07
1.34758e+07
1.24734e+07
1.53494e+07
82107.7
1.02603e+07
1.74877e+07
1.66256e+07
1.13627e+07
1.20798e+07
1.27131e+07
1.80646e+07
1.03263e+07
1.20673e+07
5.43222e+06
3.36134e+06
1.50271e+07
1.55645e+07
3.35609e+06
1.4024e+07
1.38396e+07
2.08708e+07
1.84452e+07
7.16387e+06
1.12974e+07
2.38777e+07
1.40651e+07
5.13594e+06
6.05747e+06
1.30563e+07
1.23411e+07
1.03766e+07
1.28067e+07
1.51595e+07
1.16094e+07
8.13964e+06
1.07963e+07
7.52073e+06
1.00608e+07
9.79728e+06
2.29857e+06
7.60726e+06
6.40598e+06
6.72168e+06
1.02455e+07
1.29983e+07
1.23912e+07
7.87778e+06
1.31448e+07
1.22122e+07
1.24975e+07
1.24817e+07
1.79672e+07
1.35184e+07
1.22441e+07
1.01022e+07
6.37503e+06
1.27786e+07
8.04904e+06
5.80215e+06
5.81623e+06
1.46787e+07
4.09333e+07
1.2473e+07
2.00845e+07
2.01016e+07
1.26531e+07
3.97899e+06
1.47739e+07
1.16678e+07
8.50765e+06
1.1086e+07
3.93087e+06
1.08418e+07
1.45979e+07
1.34373e+07
1.19428e+07
1.35924e+07
-1.50309e+06
1.51111e+07
1.16267e+07
1.7249e+07
1.44847e+07
1.07964e+07
1.6843e+07
1.84469e+07
1.07647e+07
1.32231e+07
1.6745e+07
-9.67387e+06
1.32663e+07
1.75867e+07
1.4902e+07
1.7472e+07
1.3966e+07
1.98632e+07
1.58016e+07
1.63229e+07
1.30519e+07
1.74254e+07
1.28451e+07
1.33813e+07
-1.34165e+07
1.30453e+07
1.37853e+07
-1.24038e+07
1.36077e+07
3.37178e+07
1.86417e+06
2.02613e+07
1.76978e+07
-2.96614e+06
3.68905e+06
6.85457e+06
1.68727e+07
1.33253e+07
9.79653e+06
1.76712e+07
2.85026e+07
1.19806e+07
1.18447e+07
5.30612e+06
5.53593e+06
1.83299e+07
1.74413e+07
2.97903e+07
1.14239e+07
1.17489e+07
9.31544e+06
-5.20903e+06
1.8158e+07
1.0897e+07
9.02228e+06
1.61606e+06
3.84875e+07
1.32379e+07
1.3312e+07
1.56502e+07
1.59592e+07
1.83803e+07
1.85188e+07
1.19182e+07
-1.86006e+06
1.63897e+07
1.7822e+07
1.53738e+07
1.49161e+07
1.2716e+07
1.36725e+07
2.25475e+07
-777599
1.26031e+07
1.22105e+07
1.26687e+07
9.55836e+06
1.26291e+07
4.96991e+06
1.74245e+07
1.29943e+07
1.93328e+07
7.57139e+06
3.67614e+07
1.10431e+07
1.15759e+07
1.53744e+07
1.39609e+07
5.71119e+06
1.17594e+07
1.26302e+07
1.28725e+07
1.30705e+07
3.25993e+06
1.18561e+07
1.22094e+07
1.38823e+07
1.1874e+07
-9.91982e+06
1.26607e+07
1.25794e+07
1.3442e+07
3.60628e+06
-5.05433e+06
1.08031e+07
1.76638e+07
9.138e+06
1.42808e+07
1.32649e+07
9.33024e+06
1.2225e+07
1.31812e+07
1.86499e+07
9.21896e+06
3.34878e+07
1.98012e+07
-433090
1.32346e+07
1.31883e+07
1.41284e+07
1.44666e+07
2.52453e+06
1.38181e+07
1.28784e+07
1.30709e+07
1.55977e+07
1.81252e+07
1.43001e+07
1.42301e+07
1.41008e+07
1.28031e+07
7.78791e+06
-1.39094e+06
1.21429e+07
1.26351e+07
1.27671e+07
1.24308e+07
1.297e+07
4.62915e+06
1.11355e+07
2.26236e+07
1.27365e+07
1.27361e+07
1.08144e+07
1.15368e+07
1.55341e+07
1.19561e+07
1.87626e+07
2.23723e+07
2.322e+07
1.27801e+07
3.3919e+06
1.04588e+07
9.5714e+06
1.8315e+07
1.51783e+06
9.44708e+06
9.32893e+06
1.44529e+07
3.63067e+07
-1.66503e+06
1.24711e+07
1.0477e+07
1.72987e+07
1.79329e+07
1.44485e+07
1.44051e+07
1.17231e+07
1.16765e+07
1.26763e+07
9.00393e+06
8.42133e+06
8.89992e+06
2.92056e+07
1.3642e+07
1.45131e+06
1.29864e+07
-1.03518e+07
1.41697e+07
3.67003e+07
1.07174e+07
1.4826e+07
1.15748e+07
1.81693e+07
1.67687e+07
9.05474e+06
1.85192e+07
-2.02399e+06
1.55753e+07
1.56812e+07
1.26994e+07
1.29134e+07
1.82654e+07
1.66659e+07
2.06731e+07
1.31842e+07
1.52819e+07
1.87284e+07
1.98873e+07
2.11395e+07
1.40672e+07
1.37943e+07
1.60158e+07
-2.30058e+06
1.28115e+07
2.03498e+07
1.26613e+07
-7.39606e+06
1.19843e+07
3.15995e+06
1.52947e+07
1.26631e+07
1.37986e+07
1.6719e+07
1.21853e+07
8.44228e+06
985458
4.02941e+06
1.07356e+07
1.47372e+07
3.35959e+07
1.19525e+07
1.30747e+07
1.2291e+07
1.49473e+07
1.43187e+07
8.53057e+06
3.16691e+06
1.867e+07
1.96752e+07
1.86614e+07
1.58655e+07
1.77096e+07
8.16412e+06
1.24824e+07
-3.71109e+06
1.45614e+07
1.77548e+07
1.70087e+07
1.40093e+07
1.24226e+07
1.38907e+07
1.19175e+07
1.74638e+07
1.37583e+07
6.4897e+06
1.16312e+07
-2.20217e+06
1.28679e+07
1.42277e+07
1.17594e+07
1.29103e+07
-3.33572e+06
1.91563e+07
1.70052e+07
1.68599e+07
9.28168e+06
1.09185e+07
1.36915e+07
1.05585e+07
1.28441e+07
2.16293e+07
1.7373e+07
2.05554e+07
4.86983e+06
-2.00627e+06
1.13922e+07
1.2644e+07
1.47161e+07
1.47354e+07
1.17976e+07
1.1814e+07
1.33107e+07
4.58519e+06
1.45096e+07
-4.25146e+06
1.34812e+07
3.11489e+06
8.74096e+06
-2.89441e+06
1.28944e+07
1.83816e+07
1.25361e+07
2.80381e+07
2.61369e+06
1.48598e+07
-9.02962e+06
8.49791e+06
1.27076e+07
-3.31097e+06
1.31617e+07
1.21887e+07
1.43376e+07
1.19477e+07
2.04416e+06
-4.73011e+06
4.09746e+06
1.1896e+07
4.62873e+06
1.41363e+06
1.78429e+07
4.91917e+06
1.67115e+07
1.62584e+07
1.31006e+07
1.28112e+07
1.82159e+07
1.5828e+07
1.53514e+07
1.58554e+07
1.45422e+07
1.46308e+07
-3.31584e+06
1.61466e+07
5.92857e+06
1.94241e+07
1.16262e+07
4.9569e+06
2.70214e+06
2.95107e+07
1.84381e+07
1.29895e+07
1.1449e+07
1.93905e+06
9.77297e+06
8.33126e+06
1.4684e+07
2.09548e+07
1.2501e+07
1.38726e+07
1.75755e+07
9.41256e+06
1.78089e+07
1.64804e+07
1.89657e+07
1.23301e+07
1.34908e+07
9.85037e+06
1.12693e+07
1.23908e+07
1.85101e+07
1.84525e+07
1.97293e+07
1.21356e+07
9.29062e+06
1.33141e+07
1.33192e+07
1.58647e+07
1.6496e+07
1.72916e+07
1.71541e+07
1.95091e+07
1.32292e+07
1.5247e+07
1.72087e+07
1.5788e+07
1.14805e+07
1.6457e+07
3.37088e+07
-1.8242e+06
1.27703e+07
1.83226e+07
4.97525e+06
1.32271e+07
3.3971e+07
1.59876e+07
1.3751e+07
1.15532e+07
1.24363e+07
1.29045e+07
9.08178e+06
1.62019e+07
1.86472e+07
9.60889e+06
1.53751e+07
1.15553e+07
8.79689e+06
2.062e+07
1.42145e+07
1.72456e+07
2.06796e+07
1.32873e+07
6.73375e+06
1.28002e+07
1.25986e+07
1.42968e+07
1.42308e+07
1.91561e+07
1.48977e+07
1.2679e+07
3.13325e+07
1.02327e+07
2.0455e+07
4.19297e+07
1.62781e+07
1.83912e+07
1.24347e+07
7.80362e+06
1.42485e+07
1.5236e+07
2.96594e+07
1.25295e+07
7.34177e+06
1.27438e+07
1.28625e+07
8.06427e+06
8.96966e+06
1.23521e+07
1.669e+07
1.71194e+07
1.69124e+07
8.7505e+06
1.78707e+07
1.28552e+07
1.69224e+07
1.38633e+07
1.76145e+07
1.17488e+07
1.06593e+07
1.84041e+07
1.36367e+07
1.54777e+07
1.1074e+07
1.82377e+07
1.20647e+07
1.40477e+07
1.33238e+07
1.05488e+07
1.79268e+07
8.46882e+06
1.36075e+07
1.36337e+07
1.36121e+07
1.57312e+07
1.13628e+07
1.23667e+07
1.26393e+07
1.25325e+07
-2.04064e+06
1.82376e+07
1.79515e+07
3.37657e+07
1.55893e+07
1.16794e+07
1.19981e+07
1.19956e+07
2.08009e+07
1.2936e+07
1.52645e+07
1.08642e+07
1.0926e+07
1.09149e+07
1.04554e+07
1.27213e+07
1.32649e+07
1.8793e+07
5.76504e+06
1.72086e+07
1.24352e+07
1.49536e+07
1.01097e+07
1.33642e+07
9.7308e+06
1.2245e+07
1.14486e+07
1.87439e+07
1.33394e+07
1.33533e+07
1.43811e+07
1.27148e+07
9.82613e+06
1.02768e+07
2.31789e+07
1.45303e+07
1.48734e+07
7.43723e+06
1.21153e+07
1.30292e+07
1.2198e+07
-3.84691e+06
1.01719e+07
1.66683e+07
2.17557e+07
1.1729e+07
1.42253e+07
1.6902e+06
3.26223e+06
1.45273e+07
1.45817e+07
1.26638e+07
1.27329e+07
1.46473e+07
1.20643e+07
1.35537e+07
3.5563e+07
1.25087e+07
1.64272e+07
5.67387e+06
1.36551e+07
1.13238e+07
1.27717e+07
5.41117e+06
-6.07967e+06
1.07714e+07
9.37274e+06
1.12136e+07
-6.94931e+06
-1.90559e+07
1.39974e+07
2.72031e+07
1.21948e+07
1.26809e+07
1.28944e+07
1.27269e+07
1.52342e+07
1.13705e+07
1.12615e+07
1.69199e+07
1.51247e+07
1.2045e+07
1.7395e+07
1.805e+07
1.68415e+07
-106452
1.13545e+07
1.17718e+07
1.33162e+06
1.02393e+07
9.92179e+06
1.26575e+07
1.24775e+07
6.96544e+06
7.61993e+06
-6.8434e+06
8.42636e+06
1.29941e+07
2.72183e+06
-1.14461e+06
4.18827e+06
6.48825e+06
1.2832e+07
1.32764e+07
1.29112e+07
1.08537e+07
1.3665e+07
1.15231e+07
1.06984e+07
7.03409e+06
1.10248e+07
1.27782e+07
1.05892e+07
1.3046e+07
2.09542e+07
1.36568e+07
1.16975e+07
1.77733e+07
1.41596e+07
1.27997e+07
1.28448e+07
9.03134e+06
1.32145e+07
1.59962e+07
1.66046e+07
1.44068e+07
1.68065e+07
3.7076e+06
1.11332e+07
2.22164e+06
1.24556e+07
1.12799e+07
4.43364e+07
5.2615e+06
1.40987e+07
1.39137e+07
9.15209e+06
1.31118e+07
1.21053e+07
5.20252e+06
1.29719e+07
1.70248e+07
1.96305e+07
-4.20979e+06
1.26837e+07
1.67307e+07
1.66339e+07
9.78481e+06
1.08478e+07
1.54298e+07
1.56458e+07
1.39236e+07
3.24611e+07
1.05658e+07
1.33727e+07
1.96544e+07
2.04554e+07
1.9898e+07
1.34001e+07
1.16861e+07
-1.90924e+06
1.46003e+07
4.25661e+06
1.19615e+07
1.41965e+07
1.18421e+07
1.35056e+07
-1.74004e+07
1.2416e+07
4.60192e+07
1.66114e+07
1.61191e+07
1.71398e+07
1.76304e+07
1.6183e+07
1.22374e+07
2.11974e+07
5.55679e+06
1.27198e+07
-1.02453e+07
1.44661e+07
5.39577e+06
1.15519e+07
9.73962e+06
1.15275e+07
1.11698e+07
1.21327e+07
1.28434e+07
1.25276e+07
9.65817e+06
2.54826e+06
1.66808e+07
1.33542e+07
1.3806e+07
1.94358e+07
1.01931e+07
81671.7
9.62747e+06
-3.59462e+06
1.55002e+07
7.39137e+06
3.61377e+07
1.90484e+07
4.91216e+06
1.49142e+07
2.18866e+07
1.82025e+07
1.64919e+07
8.16176e+06
1.67852e+07
3.04864e+06
2.0646e+07
1.38381e+07
4.2668e+06
2.14948e+07
1.09449e+07
1.23897e+07
1.2916e+07
2.46069e+07
3.25145e+06
1.66998e+07
1.24499e+07
1.28115e+07
2.20951e+07
1.41092e+07
1.4762e+07
1.29075e+07
1.42202e+07
1.86446e+07
1.39603e+07
1.13513e+07
2.48323e+07
2.26169e+07
1.27953e+07
1.25367e+07
1.28947e+07
1.21568e+07
9.50757e+06
3.55083e+07
1.29127e+07
9.5942e+06
1.19064e+07
8.38679e+06
1.77097e+07
1.12351e+07
1.63084e+07
1.04706e+06
1.64454e+07
1.3758e+07
1.28823e+07
3.38672e+07
1.38752e+07
1.18672e+07
1.2255e+07
2.42404e+07
1.28246e+07
-5.01696e+06
1.29769e+07
1.24765e+07
9.56123e+06
1.25904e+07
1.32489e+07
1.2055e+07
9.9071e+06
1.26215e+07
1.02999e+07
1.02086e+07
1.25203e+07
1.7609e+07
1.27785e+07
1.94004e+07
1.42163e+07
-1.16928e+07
-5.51808e+06
1.24269e+07
1.91187e+07
1.14832e+07
-1.35778e+07
2.33408e+07
1.47369e+07
-4.03145e+06
2.04282e+06
1.30536e+07
-6.43106e+06
1.04116e+07
1.16911e+07
1.03749e+07
1.61427e+07
6.45896e+06
1.84359e+07
1.84053e+07
1.88478e+07
1.65365e+07
1.34444e+07
1.34859e+07
1.6701e+07
1.46696e+07
-878012
1.85745e+07
2.69182e+07
1.26916e+07
1.23432e+07
1.14362e+07
9.70191e+06
1.23907e+07
9.98909e+06
1.6043e+07
1.32921e+07
9.2298e+06
1.51202e+07
1.43312e+07
1.2664e+07
1.16621e+07
1.5074e+07
1.25845e+07
1.24354e+07
1.11146e+07
-2.68382e+06
1.17197e+07
1.3824e+07
1.16926e+07
1.26911e+07
6.81834e+06
4.24315e+07
1.0159e+07
1.684e+07
1.33775e+07
1.01262e+07
1.27542e+07
5.58341e+06
8.34759e+06
-3.80465e+06
6.43489e+06
4.09006e+06
-816304
9.00344e+06
1.28357e+07
1.25014e+07
1.44577e+07
1.07857e+07
-1.32554e+07
2.63141e+06
1.14273e+07
2.21906e+07
1.27811e+07
2.17112e+07
2.00905e+07
1.29558e+07
1.59283e+07
3.68091e+06
1.33959e+07
1.2746e+07
1.46068e+07
1.28004e+07
8.86584e+06
1.2611e+07
1.25708e+07
1.28679e+07
1.2794e+07
1.27761e+07
1.30724e+07
1.2266e+07
1.71205e+07
7.48789e+06
1.73155e+07
1.80473e+07
1.32497e+07
1.27265e+07
6.98217e+06
1.24593e+07
1.18019e+07
1.48462e+07
1.25226e+07
2.71489e+07
1.60401e+07
1.87127e+07
9.93862e+06
1.1912e+07
1.31063e+07
1.53969e+07
1.84265e+07
1.19683e+07
1.19945e+07
9.77733e+06
1.25935e+07
1.19557e+07
1.52973e+07
1.66369e+07
-141297
1.08515e+07
-2.1158e+06
1.01039e+07
1.24887e+07
1.18479e+07
8.90513e+06
1.33038e+07
1.30425e+07
1.23733e+07
1.35554e+07
2.67779e+07
1.30982e+07
1.28576e+07
4.00432e+06
1.76673e+07
2.18481e+07
4.76183e+06
1.85082e+07
5.07314e+07
1.72766e+07
1.88713e+07
1.25227e+07
1.36637e+07
1.17706e+07
1.29596e+07
9.81085e+06
-1.85598e+06
1.48471e+07
1.23566e+07
-984451
7.68544e+06
1.13493e+07
1.30963e+07
1.40322e+07
1.11946e+07
1.44675e+07
-6.5518e+06
1.17435e+07
2.00172e+07
1.49105e+07
1.13608e+07
1.14219e+07
2.84842e+07
1.39036e+07
1.42395e+07
1.72564e+07
1.32601e+07
1.26481e+07
1.26929e+07
4.26743e+07
3.55021e+06
3.82956e+06
1.325e+07
1.8682e+07
1.24929e+07
1.46924e+07
1.99175e+07
1.67305e+07
1.28499e+07
1.311e+07
1.9052e+07
-1.03709e+07
1.59255e+07
1.24511e+07
1.38729e+07
1.5246e+07
1.60532e+07
8.66017e+06
1.51463e+07
1.74023e+07
9.19778e+06
2.56759e+07
1.64345e+07
1.43649e+06
2.05077e+07
2.06648e+07
2.3444e+07
8.93295e+06
9.91421e+06
1.64963e+07
1.63191e+07
2.99137e+07
1.34428e+07
1.62766e+07
1.19704e+07
1.00906e+07
1.50791e+07
1.219e+07
1.26484e+07
2.3923e+06
1.18083e+07
1.17709e+07
1.82042e+07
1.24982e+07
1.16502e+07
1.34052e+07
1.40818e+07
3.84732e+06
1.79699e+07
4.32272e+06
1.26235e+07
1.2631e+07
1.4467e+07
1.81771e+07
1.7665e+07
1.64206e+07
4.00909e+06
4.59785e+06
1.77397e+07
1.89093e+07
1.37452e+07
-3.08694e+06
4.09189e+06
1.29214e+07
8.02059e+06
3.6412e+06
1.28054e+07
1.63874e+07
1.29978e+07
2.78241e+07
8.30492e+06
8.81103e+06
7.51968e+06
1.32455e+07
1.99364e+07
2.01671e+07
1.59285e+07
1.95052e+07
1.42494e+07
2.73601e+07
1.91683e+07
1.23072e+07
7.0982e+06
1.31373e+07
6.90409e+06
1.44114e+07
6.932e+06
1.27296e+07
1.35123e+07
1.71818e+07
1.07771e+07
-5.73353e+06
1.01326e+07
9.26297e+06
7.85077e+06
1.34976e+07
8.5208e+06
1.55984e+07
1.34689e+07
1.31724e+07
1.5713e+07
1.53624e+07
1.5448e+07
1.5711e+07
1.63014e+07
1.98862e+07
1.81144e+07
7.33289e+06
9.66736e+06
1.6748e+07
1.41033e+07
3.29785e+07
1.32121e+07
1.35846e+07
1.96801e+07
1.26567e+07
1.21791e+07
2.14782e+06
1.23605e+07
1.59315e+07
1.43952e+07
8.99255e+06
1.19543e+07
-8.17592e+06
7.17396e+06
7.01647e+06
2.76272e+07
1.34485e+07
9.91081e+06
1.54969e+07
1.92439e+07
1.13669e+07
1.45297e+07
1.37691e+07
4.75323e+06
9.07921e+06
1.98109e+07
5.65184e+06
9.39673e+06
1.14289e+07
-8.90892e+06
-752673
1.7664e+07
8.7523e+06
-1.24793e+07
1.22672e+07
1.3107e+07
1.20809e+07
1.33502e+07
1.3417e+07
1.18993e+07
9.21119e+06
7.64558e+06
1.24435e+07
1.28597e+07
1.29763e+07
1.29445e+07
278025
-228759
1.35456e+07
1.34262e+07
56718.8
43421.7
1.91272e+07
4.02549e+06
2.73621e+07
1.17428e+07
1.77653e+07
1.94326e+07
-481676
1.82934e+07
2.00256e+07
1.28063e+07
1.78353e+07
1.31692e+07
1.79133e+07
1.74467e+07
1.27089e+07
1.26055e+07
1.25951e+07
1.18848e+06
-5.92102e+06
2.13033e+07
2.09897e+07
1.59464e+07
8.74423e+06
1.53533e+07
9.70283e+06
-3.17741e+06
1.32587e+07
1.28413e+07
1.37769e+07
1.12216e+07
9.61136e+06
1.72375e+07
1.67475e+07
9.52003e+06
1.27201e+07
2.23019e+07
1.74789e+07
1.93468e+07
1.31015e+07
6.79719e+06
7.51205e+06
1.15238e+07
1.10824e+07
1.40718e+07
9.65678e+06
1.33523e+07
1.34623e+07
6.94246e+06
1.36779e+07
1.1438e+07
1.29839e+07
1.24362e+07
1.32846e+07
9.96126e+06
1.2699e+07
1.47969e+07
1.27092e+07
1.28803e+07
1.37881e+07
1.16391e+07
1.17896e+07
1.28511e+07
3.51789e+07
1.18306e+07
1.37272e+07
1.20454e+07
1.01039e+07
1.00379e+07
1.26907e+07
1.07209e+07
1.73181e+07
1.18206e+07
1.10263e+07
2.34932e+07
1.57441e+07
1.32499e+07
1.22135e+07
1.29952e+07
1.2444e+07
1.18081e+07
1.29781e+07
1.69427e+07
1.39047e+07
1.15563e+07
1.15322e+07
1.21382e+07
1.69826e+07
1.2399e+07
1.61947e+07
1.71091e+07
1.69959e+07
4.90227e+06
5.78465e+06
4.58003e+07
2.46281e+07
1.81957e+07
-1.40746e+07
1.81443e+07
9.30448e+06
1.20727e+07
1.32837e+07
1.30736e+07
-6.71564e+06
1.00018e+07
1.26108e+07
3.15329e+07
1.29059e+07
8.51853e+06
1.30026e+07
1.4681e+07
1.42852e+07
1.26258e+07
1.30305e+07
1.2458e+07
2.25187e+07
1.55633e+07
1.19017e+07
7.69793e+06
1.67927e+07
1.81115e+07
7.86512e+06
1.89641e+07
8.98336e+06
2.68675e+07
1.68559e+07
1.37834e+07
1.32559e+07
1.2757e+07
1.71958e+07
9.70974e+06
9.40871e+06
1.6038e+07
1.21498e+07
1.20083e+07
1.70448e+07
-340180
1.2057e+07
1.87412e+07
1.0436e+07
1.77614e+07
6.11216e+06
1.31044e+07
1.60853e+07
1.24285e+07
6.06976e+06
-1.00041e+07
-2.17419e+06
1.29009e+07
1.27658e+07
1.32591e+07
9.16602e+06
1.56458e+07
7.70837e+06
1.07908e+07
1.77214e+07
1.74918e+07
1.21607e+07
1.19737e+07
1.0285e+07
8.22721e+06
2.4206e+07
1.78941e+07
1.8333e+07
1.15247e+07
159184
2.33637e+07
4.05816e+06
7.24921e+06
4.24014e+06
1.28744e+07
1.25129e+07
1.56652e+07
1.2704e+07
6.42479e+06
6.37746e+06
1.52929e+07
1.68303e+07
1.76001e+07
1.37587e+07
1.5158e+07
4.27123e+06
4.45795e+06
2.04038e+07
6.83501e+06
1.38343e+07
1.07112e+07
1.3238e+07
1.46906e+07
1.50585e+07
2.79268e+07
8.3923e+06
1.37269e+07
1.39785e+07
4.70465e+07
4.01707e+07
1.3617e+07
1.18645e+07
1.28174e+07
1.25084e+07
1.55528e+07
8.10798e+06
1.27679e+07
1.69231e+07
1.22894e+07
1.31049e+07
1.41299e+07
1.385e+07
7.25707e+06
1.22787e+07
1.124e+07
1.25415e+07
1.81789e+07
3.94785e+07
1.04191e+07
1.21061e+07
5.72337e+06
1.13338e+07
1.70616e+07
1.28012e+07
1.30352e+07
1.78931e+07
2.15029e+06
1.80406e+07
4.77438e+06
1.87121e+07
1.36417e+07
1.80508e+07
7.82118e+06
2.94658e+06
1.10926e+07
1.35439e+07
2.39695e+07
8.87479e+06
1.77571e+07
2.46643e+06
1.26484e+07
1.21976e+07
5.07623e+06
1.26963e+07
1.25011e+07
1.46268e+07
1.23511e+07
1.82535e+07
1.44245e+07
1.09446e+07
858864
7.75866e+06
1.17176e+07
1.76595e+07
1.44988e+07
1.80598e+07
1.65376e+07
1.45022e+07
1.31273e+07
1.04475e+07
-8.47352e+06
1.32785e+07
1.32754e+07
1.0052e+07
1.44037e+07
1.27451e+07
1.92816e+07
1.91793e+07
1.76328e+07
1.35719e+07
1.33736e+07
1.70004e+07
1.25127e+07
1.27801e+07
1.85221e+07
1.25825e+07
1.27788e+07
1.77724e+07
1.14218e+07
1.30689e+07
2.41771e+07
1.77561e+07
1.70353e+07
1.52514e+07
1.49009e+07
2.20891e+07
1.10899e+07
1.71027e+07
1.44038e+07
2.50408e+07
1.38794e+07
1.36212e+07
1.30251e+07
1.23597e+07
1.66092e+07
2.18658e+07
1.48514e+07
1.49967e+07
6.54888e+06
1.59259e+07
1.10705e+07
1.37009e+07
-9.22695e+06
260930
4.02619e+07
1.37374e+07
1.48615e+07
1.02646e+07
1.05091e+07
1.21245e+07
1.45951e+07
1.15928e+07
3.17634e+07
1.20766e+07
1.00527e+07
1.08069e+07
7.59295e+06
-1.0899e+07
1.41113e+07
1.31293e+07
1.24618e+07
8.31072e+06
1.77788e+07
2.01449e+07
1.47741e+07
1.01409e+07
1.5246e+07
1.15945e+07
1.94405e+07
1.2431e+07
1.84468e+07
1.27884e+07
1.28611e+07
3.06824e+07
1.44513e+07
1.25047e+07
6.93216e+06
-1.51047e+06
3.64708e+07
1.50191e+07
1.1726e+07
1.31073e+07
1.29068e+07
1.43907e+07
1.02903e+07
-4.49769e+06
4.7127e+06
1.13187e+07
-2.16147e+06
1.26234e+07
1.77313e+07
-1.17153e+07
1.59281e+07
1.37632e+07
1.40009e+07
1.53515e+07
1.62713e+07
1.26936e+07
2.87323e+07
1.39615e+07
1.74773e+07
1.1625e+07
1.05392e+07
1.63071e+07
-3.74858e+06
1.31184e+07
1.23297e+07
-939738
1.28997e+07
1.62411e+07
1.59393e+07
1.24212e+07
-2.67594e+06
8.33625e+06
1.35347e+07
1.70714e+07
1.4334e+07
1.44363e+07
1.23679e+07
1.4376e+07
1.08852e+07
1.06801e+07
1.12531e+07
1.14791e+07
-3.27097e+06
-5.79159e+06
1.0337e+07
1.46681e+07
3.17185e+07
-2.57281e+06
4.74808e+06
-1.99256e+06
6.16822e+06
1.23442e+07
2.53397e+07
1.98481e+07
1.38732e+07
1.41952e+07
1.21345e+07
3.17776e+07
953120
2.7989e+06
1.82831e+07
-1.71571e+06
-5.07739e+06
1.25888e+07
2.20242e+07
1.32686e+07
8.7067e+06
2.91979e+07
1.13144e+07
1.13118e+07
1.30099e+07
1.83038e+07
1.28084e+07
1.16901e+07
1.80957e+07
3.18947e+07
1.51656e+07
1.16266e+07
1.63807e+07
1.46193e+07
-583996
1.982e+07
1.34294e+07
1.43011e+07
-5.26161e+06
37280.4
6.05355e+06
1.35451e+07
1.99559e+07
1.23575e+07
1.25255e+07
5.09022e+06
9.47561e+06
1.23953e+07
1.31285e+07
1.30279e+07
1.03903e+07
1.82023e+07
1.88684e+07
1.82899e+07
-1.08805e+07
1.17387e+07
1.79494e+07
1.79926e+07
1.81916e+07
1.57407e+07
1.07872e+07
1.03551e+07
1.44132e+07
1.79431e+07
9.8565e+06
1.29168e+07
1.25121e+07
1.09773e+07
9.52685e+06
1.82894e+07
3.44861e+07
1.51725e+07
1.76518e+07
2.17525e+07
1.63798e+07
1.0961e+07
1.25953e+07
1.55619e+07
2.2882e+07
1.26614e+07
1.81295e+07
1.30063e+07
1.03683e+07
1.05522e+07
6.71487e+06
6.37544e+06
1.73514e+07
1.55055e+07
1.59621e+07
1.33408e+07
2.51733e+07
1.39803e+07
1.26175e+07
1.37351e+07
1.72731e+07
1.25931e+07
9.31889e+06
1.32131e+07
1.22302e+07
-1.5118e+06
-5.36752e+06
2.58219e+07
1.38855e+07
7.39651e+06
1.80315e+07
1.26554e+07
1.25306e+07
1.0634e+07
1.35318e+07
1.74507e+07
1.56538e+07
1.54133e+07
1.15751e+07
1.1575e+07
1.29259e+07
1.29809e+07
1.6391e+07
1.45036e+07
7.66784e+06
1.2509e+07
1.26716e+07
1.47854e+07
1.53951e+07
1.89654e+07
-3.82598e+06
1.77674e+07
1.2036e+07
1.49152e+07
1.08038e+07
1.60452e+07
1.33218e+07
1.29015e+07
1.29159e+07
3.17066e+07
1.40584e+07
1.40816e+07
3.51019e+07
7.48009e+06
1.64576e+07
2.67788e+06
1.34944e+07
1.196e+07
2.92799e+07
1.25742e+07
1.33021e+07
1.21781e+07
2.93101e+07
1.03345e+07
1.14742e+07
2.35205e+07
1.64594e+07
7.80966e+06
6.59775e+06
1.20121e+07
1.40335e+07
7.82042e+06
3.98959e+07
1.353e+07
1.44613e+07
1.1837e+07
1.4001e+07
3.08479e+07
2.22849e+07
1.62402e+07
1.17721e+07
1.36488e+07
1.42079e+07
2.44064e+07
1.28942e+07
1.34104e+07
1.34076e+07
1.64856e+07
1.27389e+07
2.5237e+06
-1.13341e+06
1.46728e+07
1.4778e+07
1.71388e+07
1.80779e+07
1.29555e+07
1.26871e+07
9.68139e+06
1.80188e+07
1.2659e+07
1.77459e+07
9.09926e+06
1.28194e+07
9.08364e+06
2.06037e+07
1.23881e+07
1.28356e+07
1.78949e+07
2.58655e+07
1.32947e+07
1.19769e+07
1.40909e+07
1.90084e+07
2.90633e+06
9.77157e+06
1.29646e+07
1.24334e+07
1.19137e+07
3.00229e+07
1.24201e+07
1.30525e+07
2.33949e+07
1.37293e+07
1.15855e+07
1.29519e+07
1.31317e+07
1.06045e+07
1.37848e+07
-753780
6.77978e+06
1.32294e+07
1.20247e+07
1.45566e+07
1.24502e+07
1.27566e+07
1.01866e+07
8.71191e+06
1.32808e+07
8.81811e+06
1.60571e+07
9.18596e+06
3.03984e+07
1.30849e+07
7.6499e+06
1.43336e+07
1.33326e+07
7.51197e+06
1.23086e+07
2.86019e+07
1.21779e+07
9.43868e+06
8.26579e+06
6.25882e+06
1.49235e+07
1.17271e+07
9.39382e+06
9.63117e+06
1.19565e+07
-3.86029e+06
1.44534e+07
1.81024e+07
1.69001e+07
1.75308e+07
8.80834e+06
1.23284e+07
1.25811e+07
1.09344e+07
1.27088e+07
1.27351e+07
2.05756e+07
1.22628e+07
1.76586e+07
1.31563e+07
1.21897e+07
1.21397e+07
1.27538e+07
2.09383e+07
9.42701e+06
1.361e+07
1.31858e+07
9.72511e+06
456712
1.09638e+07
1.81634e+07
1.25711e+07
1.41858e+07
1.52086e+07
1.38261e+07
-5.73687e+06
1.08001e+07
1.85576e+07
1.25415e+07
1.30314e+07
1.10254e+07
1.99456e+07
1.78163e+07
1.33925e+07
1.44978e+07
1.09377e+07
1.92694e+07
1.1973e+07
1.50246e+07
1.15782e+07
1.24598e+07
1.29683e+07
1.2513e+07
1.13414e+07
7.46355e+06
1.83859e+07
1.1887e+07
1.18735e+07
3.15608e+06
1.12238e+07
1.15782e+07
2.00827e+07
1.37496e+07
1.93494e+07
-1.60978e+07
1.57671e+07
1.27916e+07
1.5783e+07
1.24941e+07
1.29249e+07
1.26649e+07
1.33915e+07
1.57304e+07
1.3513e+07
1.33541e+07
1.19025e+07
1.35448e+07
1.28764e+07
2.13333e+07
1.26572e+07
1.30515e+07
1.2054e+07
1.33042e+07
9.31949e+06
-8.99256e+06
2.27121e+07
1.32446e+07
1.10082e+07
4.39476e+06
1.13939e+07
1.3134e+07
-1.474e+07
8.17684e+06
2.09156e+07
1.52769e+07
1.28045e+07
1.16217e+07
1.19621e+07
1.31209e+07
1.51207e+07
1.16644e+07
1.53689e+07
1.1568e+07
1.55567e+07
1.39283e+07
1.48708e+07
-1.38347e+07
1.11232e+07
1.12065e+07
1.82354e+07
1.68068e+07
1.52856e+07
1.0093e+07
1.2241e+07
6.70868e+06
1.37575e+07
1.15048e+07
1.31162e+07
1.35408e+07
1.1763e+07
1.03246e+07
1.14179e+07
1.37095e+07
1.15019e+07
1.2105e+07
-1.8381e+06
1.83344e+07
1.66925e+07
1.87283e+07
1.80652e+07
1.21324e+07
1.57527e+07
2.00268e+07
1.26683e+07
1.28608e+07
1.2966e+07
1.27234e+07
1.16202e+07
1.22442e+07
1.24614e+07
1.76713e+07
1.26107e+07
1.20948e+07
1.38326e+07
1.3641e+07
1.17078e+07
1.1817e+07
1.30893e+07
1.32093e+07
1.69903e+07
1.48858e+07
2.85071e+07
1.22724e+07
9.57673e+06
9.86141e+06
1.21854e+07
7.84593e+06
1.302e+07
1.31359e+07
1.87272e+07
1.02797e+07
2.11065e+07
1.28446e+07
1.2585e+07
7.05216e+06
1.67298e+07
1.08879e+07
9.87948e+06
1.41487e+07
1.39188e+07
1.59638e+07
2.76507e+07
1.50011e+07
1.47846e+07
-4.52834e+06
5.82943e+06
1.98876e+07
1.64811e+07
1.80994e+07
1.25254e+07
-763695
2.07618e+06
1.12566e+07
1.29876e+07
1.05147e+07
1.04586e+07
4.06908e+07
1.66261e+06
1.88297e+07
6.91429e+06
1.83455e+07
2.50332e+07
1.27217e+07
1.355e+07
1.36195e+07
1.27622e+07
1.254e+07
3.33652e+06
1.50291e+07
1.53929e+07
1.25285e+07
6.61704e+06
1.28907e+07
1.3451e+07
1.66126e+07
1.29135e+07
1.27831e+07
1.29135e+07
1.56169e+07
1.36409e+07
1.19608e+07
1.67529e+07
1.41861e+07
8.69382e+06
1.06331e+07
1.4439e+07
1.62331e+07
1.28484e+07
1.27357e+07
1.3956e+07
1.29258e+07
1.27691e+07
1.29147e+07
1.30362e+07
8.74717e+06
1.32763e+07
1.81283e+07
1.30996e+07
1.3003e+07
1.88212e+07
1.17604e+07
2.70579e+07
1.28599e+07
1.25996e+07
2.81846e+07
9.06723e+06
8.27846e+06
9.35119e+06
1.47754e+07
1.10396e+07
2.30407e+06
9.63921e+06
1.27039e+07
1.26483e+07
1.25473e+07
1.77266e+07
1.22332e+07
1.80414e+07
1.30393e+07
1.23094e+07
1.5106e+07
1.34006e+07
1.18482e+07
1.23012e+07
1.3732e+07
1.23103e+07
1.58155e+07
1.75436e+07
1.50671e+07
1.18179e+07
6.90542e+06
1.10422e+07
1.26887e+07
1.79265e+07
5.59087e+06
3.23106e+07
1.26172e+07
1.27403e+07
1.29664e+07
1.65098e+07
1.74361e+07
1.8444e+07
5.4508e+06
1.283e+07
1.30661e+07
1.05902e+07
9.07661e+06
-1.45392e+07
751865
1.25873e+07
1.27847e+07
1.1623e+07
3.16533e+07
7.38063e+06
1.53296e+07
1.2957e+07
1.28596e+07
9.73242e+06
1.60589e+07
1.37785e+07
1.39643e+07
1.28635e+07
1.20003e+07
1.20915e+07
1.2918e+07
-5.68587e+06
-517680
3.59738e+06
1.3198e+07
3.10418e+07
1.33068e+07
1.19173e+07
1.12792e+07
1.17689e+07
1.3087e+07
9.7874e+06
1.33219e+07
-5.74695e+06
1.93539e+07
1.89037e+07
8.84951e+06
1.22981e+07
1.25823e+07
1.28883e+07
1.23078e+07
1.39145e+07
1.26485e+07
-1.59263e+07
9.42632e+06
1.35666e+07
1.32926e+07
1.2309e+07
1.29273e+07
1.26256e+07
1.38974e+07
2.02813e+07
1.05061e+07
1.34283e+07
2.67437e+06
3.36621e+07
1.06539e+07
9.46429e+06
1.29767e+07
1.23714e+07
1.35473e+07
1.18855e+07
3.3853e+07
1.62493e+07
2.7999e+07
1.44974e+07
1.01758e+07
1.29933e+07
1.72187e+07
2.84093e+07
1.26122e+07
8.48286e+06
1.74798e+07
1.13476e+07
3.61707e+07
1.38442e+07
1.29204e+07
1.3842e+07
6.57421e+06
1.35914e+07
1.16835e+07
1.11611e+07
1.7502e+07
1.90108e+07
1.28514e+07
1.03408e+07
3.4764e+07
1.27036e+07
8.66538e+06
1.36179e+07
1.00227e+07
1.32948e+07
1.21337e+07
1.1442e+07
1.31573e+07
1.23395e+07
2.28841e+06
1.81287e+07
1.33919e+07
1.08503e+06
2.05603e+06
1.26859e+07
2.92198e+07
1.80265e+07
1.23104e+07
2.06287e+07
1.44752e+07
1.27347e+07
1.10493e+07
1.39959e+07
1.39292e+07
2.01178e+07
1.56923e+07
1.9931e+07
1.82146e+07
1.57018e+07
2.306e+06
5.25801e+06
7.11838e+06
1.08668e+07
1.40165e+07
1.40727e+07
7.28076e+06
1.32924e+07
1.19595e+07
3.40314e+07
1.79841e+07
1.77481e+07
2.60334e+07
-1.60607e+07
1.27622e+07
1.26866e+07
9.23312e+06
1.3454e+07
1.51179e+07
1.16542e+07
1.29169e+07
1.30255e+07
1.93873e+07
1.27758e+07
1.24664e+07
1.26442e+07
1.0918e+07
1.56022e+07
1.15364e+07
1.50275e+07
1.69993e+07
6.85341e+06
1.12463e+07
5.51466e+06
1.0182e+07
-7.46692e+06
1.15465e+07
1.86021e+07
1.49023e+07
1.16663e+07
1.18432e+07
1.33021e+07
1.69899e+07
4.81005e+06
1.35677e+07
1.25725e+07
1.1856e+07
2.48827e+07
7.75407e+06
-403787
1.28056e+07
-5.07912e+06
1.74718e+07
1.55805e+07
1.1566e+07