/*--------------------------------*- C++ -*----------------------------------*\
| =========                 |                                                 |
| \\      /  F ield         | OpenFOAM: The Open Source CFD Toolbox           |
|  \\    /   O peration     | Version:  v2012                                 |
|   \\  /    A nd           | Website:  www.openfoam.com                      |
|    \\/     M anipulation  |                                                 |
\*---------------------------------------------------------------------------*/
FoamFile
{
    version     2.0;
    format      ascii;
    class       volScalarField;
    location    "16";
    object      sigmaEq;
}
// * * * * * * * * * * * * * * * * * * * * * * * * * * * * * * * * * * * * * //

dimensions      [1 -1 -2 0 0 0 0];


internalField   nonuniform List<scalar> 
7666
(
1.09566e+07
3.73173e+07
5.95533e+07
5.08969e+07
7.43953e+07
9.2854e+07
4.08063e+07
5.25831e+07
1.16251e+08
3.88737e+07
3.60063e+07
4.98296e+07
5.10728e+07
4.35223e+07
3.81519e+07
5.94723e+07
5.12158e+07
1.00541e+08
5.43493e+07
3.61462e+07
2.39479e+07
7.13862e+07
4.57861e+07
4.8702e+07
9.0496e+07
3.76663e+07
9.10301e+07
3.22144e+07
5.07834e+07
4.75709e+07
4.94692e+07
9.77399e+07
2.48491e+07
4.61502e+07
2.84829e+07
3.37925e+07
3.24055e+07
4.88391e+07
9.038e+07
3.96759e+07
5.33776e+07
1.10406e+08
1.23048e+08
4.02159e+07
1.28058e+08
3.9785e+07
1.03566e+08
5.21611e+07
6.27418e+07
1.60215e+07
3.10966e+07
6.89674e+07
4.17465e+07
1.16084e+08
1.94175e+07
5.87917e+07
1.79679e+07
1.77473e+07
8.58927e+07
9.48879e+07
2.47615e+07
4.82952e+07
4.77363e+07
4.84888e+07
2.04048e+07
6.26784e+07
3.60639e+07
1.90947e+07
7.42983e+07
8.53934e+07
7.57798e+07
3.21161e+07
3.18866e+07
4.72545e+07
4.7422e+07
4.10799e+07
9.37187e+07
4.37215e+07
4.48527e+07
2.66912e+07
4.3105e+07
3.42333e+07
5.12312e+07
1.21639e+08
5.29487e+07
6.46267e+07
6.48379e+07
7.15392e+07
5.95075e+07
4.86203e+07
4.52199e+07
4.50346e+07
7.03436e+07
9.27135e+07
1.19268e+08
6.54057e+07
3.50296e+07
5.75479e+07
5.42699e+07
3.58451e+07
7.13128e+07
4.77378e+07
2.88312e+07
1.01919e+08
4.01362e+07
8.85975e+07
1.2276e+08
7.68889e+07
4.06071e+07
6.95055e+07
4.51299e+07
7.11209e+07
3.79797e+07
2.46745e+07
3.39074e+07
7.96456e+07
3.15209e+07
3.78655e+07
4.95666e+07
4.98143e+07
1.05319e+08
4.69874e+07
4.75453e+07
3.77877e+07
4.79868e+07
1.45036e+07
7.65026e+07
6.78706e+07
5.64871e+07
4.83416e+07
5.61858e+07
5.88341e+07
3.00672e+07
8.23615e+07
4.76905e+07
8.69775e+07
4.26363e+07
4.03255e+07
4.37368e+07
4.66565e+07
5.65808e+07
3.38044e+07
3.28799e+07
3.28496e+07
3.59824e+07
4.00487e+07
4.03163e+07
3.37067e+07
1.55968e+07
5.30285e+07
3.88768e+07
5.93672e+07
2.69903e+07
4.93938e+07
3.39813e+07
3.40268e+07
5.27213e+07
6.01917e+07
5.11138e+07
4.44203e+07
1.08587e+08
9.22154e+07
7.06044e+07
1.16892e+08
9.71534e+07
9.7821e+07
5.13773e+07
1.6556e+07
1.87239e+07
1.11789e+08
3.77686e+07
3.30319e+07
6.5706e+07
5.99754e+07
5.90234e+07
1.97305e+07
7.22126e+07
1.15144e+08
5.171e+07
5.10512e+07
6.91607e+07
4.1585e+07
6.32799e+07
3.62714e+07
6.28802e+07
6.85394e+07
3.18409e+07
4.7472e+07
8.49851e+07
4.50649e+07
3.86802e+07
4.1498e+07
4.11152e+07
4.2809e+07
7.45268e+07
1.12135e+08
4.13352e+07
4.15504e+07
4.02655e+07
6.33903e+07
7.37416e+07
3.1538e+07
5.13192e+07
8.85873e+07
2.9061e+07
1.18047e+08
3.55133e+07
4.36637e+07
2.9291e+07
3.0416e+07
1.01588e+08
2.81425e+07
3.28412e+07
3.43052e+07
3.33974e+07
2.99809e+07
4.33411e+07
9.97319e+07
2.90723e+07
7.60417e+07
1.26666e+08
1.15892e+08
4.90432e+07
3.29772e+07
6.1754e+07
6.23011e+07
1.26113e+08
9.03551e+07
2.32576e+07
5.23411e+07
5.16714e+07
4.62329e+07
5.71441e+07
6.0952e+07
3.1423e+07
4.73621e+07
1.31251e+08
6.87302e+07
3.65996e+07
4.63631e+07
3.36858e+07
6.20621e+07
4.74967e+07
2.28808e+07
3.9375e+07
3.49977e+07
6.72769e+07
3.75531e+07
1.04683e+08
7.36591e+07
7.28237e+07
2.95379e+07
7.98407e+07
5.94313e+07
3.25178e+07
4.75509e+07
8.60015e+07
7.02858e+07
7.44818e+07
3.87253e+07
5.83774e+07
8.68891e+07
8.89041e+07
7.23238e+07
3.88325e+07
6.67056e+07
4.56028e+07
8.74818e+07
1.14109e+08
1.5459e+07
4.07837e+07
3.97202e+07
4.68456e+07
6.78659e+07
1.55115e+07
3.66022e+07
1.15449e+08
1.103e+08
6.2911e+07
6.28861e+07
4.19406e+07
8.94946e+07
4.35089e+07
4.74458e+07
3.9121e+07
4.36578e+07
7.16936e+07
7.96917e+07
4.31946e+07
3.44048e+07
3.46703e+07
1.10269e+08
1.01148e+08
4.15177e+07
4.45941e+07
1.03956e+08
3.38861e+07
1.85483e+07
1.81107e+07
5.4635e+07
3.39679e+07
3.47995e+07
3.95002e+07
3.08795e+07
4.75328e+07
2.73986e+07
2.34467e+07
5.9279e+07
5.1755e+07
2.28847e+07
2.4276e+07
1.64042e+07
1.65723e+07
1.44875e+07
3.3348e+07
5.5198e+07
3.29205e+07
4.78489e+07
5.49173e+07
3.41189e+07
5.87774e+07
6.05976e+07
1.18324e+08
5.75324e+07
4.42274e+07
3.38892e+07
1.11622e+07
4.96757e+07
2.12699e+07
4.22814e+07
4.02002e+07
7.01223e+07
5.54189e+07
4.49787e+07
1.1567e+08
1.1658e+08
7.5367e+07
2.89312e+07
3.21322e+07
4.76115e+07
4.22471e+07
6.97281e+07
2.65428e+07
3.36902e+07
6.64483e+07
5.60338e+07
3.2192e+07
7.61393e+07
3.07579e+07
3.11872e+07
4.74912e+07
1.26216e+08
7.87572e+07
2.35758e+07
8.57569e+07
1.21298e+08
5.03199e+07
3.36455e+07
8.68785e+07
4.36686e+07
5.45359e+07
1.11559e+08
6.78636e+07
1.26061e+08
3.40422e+07
1.1026e+08
8.26678e+07
8.42914e+07
4.05319e+07
1.1085e+08
5.00731e+07
5.81252e+07
5.95553e+07
5.44212e+07
3.74843e+07
5.0853e+07
6.03886e+07
7.74106e+07
2.34523e+07
1.20827e+08
1.004e+08
3.53371e+07
9.07106e+06
5.57503e+07
8.27068e+07
5.72851e+07
6.16191e+07
1.1396e+08
9.68806e+07
4.78365e+07
4.78524e+07
2.08642e+07
1.92158e+07
1.00406e+08
1.13383e+08
1.01021e+08
4.0462e+07
4.66203e+07
3.59987e+07
3.34455e+07
9.03518e+07
5.82399e+07
3.49224e+07
2.55616e+07
7.73744e+07
5.7902e+07
5.87869e+07
8.27522e+07
8.63544e+07
1.04401e+08
1.01063e+08
4.76798e+07
3.12603e+07
8.60881e+07
9.88773e+07
7.34181e+07
7.36508e+07
3.91948e+07
3.50278e+07
1.21594e+08
3.31768e+07
4.5051e+07
4.41723e+07
4.73297e+07
3.04694e+07
4.48681e+07
3.8588e+07
8.35876e+07
5.31077e+07
7.63268e+07
3.38142e+07
6.65434e+07
4.95171e+07
4.76467e+07
3.00578e+07
3.453e+07
3.73502e+07
4.36434e+07
4.93696e+07
5.09639e+07
6.22279e+07
1.77935e+07
4.29972e+07
4.25308e+07
3.60748e+07
4.79131e+07
5.42374e+07
4.21885e+07
4.24735e+07
3.83506e+07
1.30475e+07
3.1459e+07
5.91672e+07
1.25072e+08
3.25027e+07
7.03337e+07
4.10207e+07
4.75688e+07
4.23602e+07
6.49486e+07
1.03044e+08
4.92793e+07
9.14248e+07
1.23664e+08
2.72752e+07
3.97038e+07
3.95924e+07
7.20337e+07
6.933e+07
3.07827e+07
6.50071e+07
4.13707e+07
4.14137e+07
8.3969e+07
9.50438e+07
6.93601e+07
3.37099e+07
6.38802e+07
3.17707e+07
3.85478e+07
3.04722e+07
6.99874e+07
5.23958e+07
3.17661e+07
5.1872e+07
3.19773e+07
3.92431e+07
5.33812e+07
1.11253e+08
4.89014e+07
4.54464e+07
4.56132e+07
4.76152e+07
2.99625e+07
3.84038e+07
9.16089e+07
1.09474e+08
1.11229e+08
3.84968e+07
2.86303e+07
3.74239e+07
3.97199e+07
1.25745e+08
3.45933e+07
4.1771e+07
2.36944e+07
3.38533e+07
9.58259e+07
1.72039e+07
3.35548e+07
3.06296e+07
8.55077e+07
8.83679e+07
3.24747e+07
3.27202e+07
4.78408e+07
4.78203e+07
4.88554e+07
5.85422e+07
2.32229e+07
2.38181e+07
1.08159e+08
7.76946e+07
4.33687e+07
5.39306e+07
5.70801e+07
3.36378e+07
8.22619e+07
2.49509e+07
3.20469e+07
4.73661e+07
8.04502e+07
8.34911e+07
2.79416e+07
9.93267e+07
3.29365e+07
9.71483e+07
7.78268e+07
4.70667e+07
4.66022e+07
1.28453e+08
7.94137e+07
1.29776e+08
5.6502e+07
7.64246e+07
9.99759e+07
1.04559e+08
1.14791e+08
6.17141e+07
3.69434e+07
8.45955e+07
4.19953e+07
7.33676e+07
1.28158e+08
5.55678e+07
3.75236e+07
4.45844e+07
1.1265e+07
8.64429e+07
6.34456e+07
7.70133e+07
9.03183e+07
4.6724e+07
4.91259e+07
4.5286e+07
1.95042e+07
3.08927e+07
3.27501e+07
8.91696e+07
4.38938e+07
5.40665e+07
3.56022e+07
6.5703e+07
3.46698e+07
6.11216e+07
2.23295e+07
9.86785e+07
9.43952e+07
9.89795e+07
8.57203e+07
1.12553e+08
3.75008e+07
3.18132e+07
3.64984e+07
6.35865e+07
1.06478e+08
9.02504e+07
3.47879e+07
4.42016e+07
7.92389e+07
4.78607e+07
9.3892e+07
6.23e+07
3.57281e+07
3.41086e+07
3.00411e+07
4.90477e+07
3.29254e+07
4.81272e+07
4.57337e+07
3.90501e+07
1.10641e+08
7.78966e+07
7.9755e+07
1.75309e+07
3.8048e+07
6.14303e+07
2.90714e+07
6.61434e+07
1.28285e+08
9.24141e+07
1.14332e+08
1.12138e+07
3.99299e+07
3.5685e+07
4.4713e+07
3.22006e+07
3.2692e+07
4.70666e+07
4.7218e+07
4.04687e+07
1.23058e+07
9.85196e+07
3.31506e+07
3.95639e+07
3.84505e+07
4.75077e+07
1.94179e+07
5.56753e+07
1.00481e+08
4.74455e+07
1.11801e+08
3.88637e+07
8.86298e+07
6.18463e+07
3.0858e+07
5.35564e+07
4.08634e+07
5.72106e+07
3.10465e+07
7.00314e+07
4.08665e+07
1.29212e+07
3.60248e+07
2.91493e+07
4.7533e+07
2.94524e+07
1.1947e+07
1.05941e+08
2.73302e+07
8.53147e+07
9.76785e+07
5.50742e+07
5.51881e+07
1.02783e+08
8.42917e+07
7.95977e+07
7.98384e+07
3.35633e+07
3.32466e+07
2.95079e+07
8.84517e+07
5.17892e+07
1.26968e+08
3.54543e+07
5.27246e+07
1.01118e+07
1.11062e+08
1.04524e+08
5.35781e+07
2.70094e+07
1.49229e+07
3.69476e+07
2.78014e+07
7.0212e+07
8.19772e+07
4.94089e+07
3.67271e+07
8.73599e+07
3.57596e+07
9.05621e+07
7.81604e+07
1.02649e+08
5.01945e+07
5.64502e+07
6.26367e+07
2.47037e+07
6.744e+07
1.00847e+08
1.00109e+08
1.069e+08
3.84594e+07
2.29217e+07
5.56458e+07
3.98025e+07
8.48589e+07
8.81393e+07
8.19993e+07
8.93361e+07
1.05587e+08
3.58669e+07
8.67008e+07
8.4751e+07
7.46087e+07
5.35808e+07
7.81157e+07
9.54968e+07
1.96029e+07
4.94556e+07
9.18648e+07
2.9838e+07
7.05295e+07
9.78148e+07
7.48465e+07
5.95304e+07
2.98313e+07
5.30927e+07
3.13543e+07
4.83506e+07
7.68751e+07
1.06744e+08
6.34537e+07
3.09544e+07
4.74085e+07
2.57341e+07
1.15049e+08
3.3159e+07
1.12072e+08
9.47017e+07
3.34952e+07
5.39433e+07
5.29147e+07
3.16137e+07
6.21036e+07
6.17483e+07
1.21529e+08
7.0331e+07
4.60911e+07
9.65447e+07
6.41063e+07
1.17022e+08
6.53444e+07
1.11714e+08
1.19682e+08
4.71198e+07
5.28686e+07
3.34866e+07
8.07752e+07
1.11172e+08
4.45713e+07
4.04705e+07
4.76428e+07
4.76736e+07
3.91939e+07
2.66919e+07
4.58002e+07
8.607e+07
8.62134e+07
8.66953e+07
2.73263e+07
9.05403e+07
3.59046e+07
7.75041e+07
6.12067e+07
9.59873e+07
2.80501e+07
2.6085e+07
9.64158e+07
3.85635e+07
7.73452e+07
5.94093e+07
9.7928e+07
4.85993e+07
3.31091e+07
3.31959e+07
3.38678e+07
5.72941e+07
4.11629e+07
3.79454e+07
3.76453e+07
3.71211e+07
8.41615e+07
3.23938e+07
4.98203e+07
4.29094e+07
4.22369e+07
3.81752e+07
8.71587e+07
6.35293e+07
1.02598e+08
9.82511e+07
4.34152e+07
4.71966e+07
4.70695e+07
9.60972e+07
4.8747e+07
9.87387e+07
2.44937e+07
2.7339e+07
2.74077e+07
2.44974e+07
5.04586e+07
5.71761e+07
1.27573e+08
2.55813e+07
8.25134e+07
4.29293e+07
7.00148e+07
3.075e+07
3.84623e+07
2.45603e+07
7.11851e+07
5.97697e+07
1.12827e+08
3.88146e+07
6.74854e+07
3.4337e+07
3.08727e+07
2.25023e+07
2.20674e+07
1.2452e+08
3.27019e+07
8.05211e+07
1.82808e+07
4.63079e+07
5.55736e+07
4.83323e+07
2.0941e+07
2.55528e+07
8.97741e+07
2.96212e+07
4.51247e+07
6.44148e+07
1.9913e+07
3.11829e+07
6.78249e+07
3.3233e+07
4.58597e+07
4.57785e+07
6.55686e+07
4.93952e+07
6.54727e+07
9.61112e+07
5.23315e+07
8.02329e+07
5.38201e+07
7.21448e+07
4.50031e+07
4.3127e+07
4.56881e+07
2.88963e+07
3.77717e+07
5.79499e+07
5.25985e+07
3.40174e+07
8.22056e+07
6.06581e+07
1.03118e+08
4.63159e+07
4.4924e+07
4.38171e+07
4.91019e+07
6.72444e+07
6.4202e+07
6.50563e+07
7.68615e+07
9.47855e+07
4.67153e+07
8.59054e+07
9.58489e+07
8.32061e+07
4.17465e+07
3.36593e+07
3.40006e+07
4.29012e+07
4.07805e+07
3.95184e+07
4.29304e+07
4.25203e+07
1.40707e+07
1.3409e+07
4.19373e+07
3.80836e+07
4.14043e+07
1.36633e+07
3.40959e+07
3.6469e+07
2.5301e+07
3.38846e+07
6.13579e+07
6.08196e+07
3.93434e+07
6.03244e+07
3.03507e+07
5.23016e+07
3.67697e+07
5.19828e+07
5.62277e+07
5.13371e+07
5.65522e+07
1.21881e+08
5.92558e+07
2.9131e+07
1.10301e+08
6.38685e+07
4.45026e+07
3.32068e+07
1.70265e+07
3.6241e+07
7.58751e+07
7.48952e+07
7.67136e+07
7.54505e+07
4.56962e+07
5.4915e+07
9.37757e+06
3.62685e+07
6.39708e+07
5.82254e+07
4.71389e+07
3.34517e+07
7.66669e+07
6.26098e+07
3.66911e+07
4.65638e+07
5.15441e+07
5.46298e+07
1.19574e+08
8.09382e+07
2.64904e+07
4.04331e+07
7.96751e+07
1.19524e+08
1.62044e+07
2.27533e+07
6.88846e+07
2.76354e+07
6.94189e+07
9.91108e+07
4.47834e+07
5.53692e+07
1.02336e+08
1.03806e+08
1.04383e+08
3.85397e+07
4.71926e+07
3.50246e+07
3.14998e+07
1.63245e+07
4.911e+07
7.83553e+07
2.99656e+07
5.82094e+07
7.7311e+07
4.75017e+07
5.42631e+07
7.81726e+07
7.27512e+07
8.60248e+07
8.47248e+07
1.09573e+08
4.79892e+07
1.28895e+08
3.31502e+07
4.19901e+07
4.78383e+07
3.27122e+07
3.26671e+07
5.74613e+07
4.567e+07
5.852e+07
3.82943e+07
6.83116e+07
3.71676e+07
3.7183e+07
3.73842e+07
3.03889e+07
7.57757e+07
7.72975e+07
7.65954e+07
1.05178e+08
5.02276e+07
4.1158e+07
5.20518e+07
3.87452e+07
7.30462e+07
5.08001e+07
8.97994e+07
8.0366e+07
5.02892e+07
6.71122e+07
9.88617e+07
1.25976e+08
8.85373e+07
6.01807e+07
8.54033e+07
1.36969e+07
1.12452e+08
7.60367e+07
3.853e+07
6.72009e+07
5.72136e+07
5.25587e+07
3.12431e+07
6.49065e+07
4.64311e+07
8.8829e+07
5.30363e+07
5.32015e+07
1.27806e+08
3.56317e+07
6.66819e+07
5.23151e+07
3.39036e+07
1.30778e+08
6.00589e+07
2.97938e+07
1.10729e+08
1.20766e+08
5.35042e+07
5.18101e+07
3.24253e+07
6.2761e+07
2.02192e+07
8.69124e+07
6.06082e+07
1.89404e+07
4.08454e+07
3.93768e+07
1.10638e+08
5.33716e+07
8.60374e+07
2.53333e+07
8.85314e+07
3.6664e+07
4.07164e+07
9.58626e+07
7.00756e+07
3.51181e+07
4.661e+07
1.13696e+08
4.3379e+07
2.98519e+07
5.43637e+07
3.25642e+07
4.89565e+07
4.16486e+07
5.65468e+07
3.31568e+07
4.9871e+07
5.09396e+07
5.82571e+07
5.97553e+07
6.04402e+07
1.13839e+08
4.52207e+07
1.17174e+08
6.30531e+07
5.07757e+07
3.99661e+07
4.75307e+07
1.21104e+08
3.51606e+07
8.00084e+07
1.27282e+08
3.26567e+07
2.83285e+07
9.9129e+06
5.32682e+07
3.41398e+07
2.57926e+07
5.1639e+07
3.14717e+07
8.40104e+07
1.29251e+07
9.5582e+07
9.12817e+07
9.0464e+07
8.78435e+07
5.79746e+07
3.5917e+07
7.7377e+07
6.81579e+07
4.21619e+07
8.91494e+07
1.18655e+08
4.31828e+07
4.33501e+07
3.67753e+07
4.57415e+07
4.64154e+07
4.92774e+07
8.67384e+07
5.6509e+07
5.29985e+07
7.92166e+07
6.58653e+07
3.34096e+07
5.70408e+07
6.77691e+07
4.84249e+07
4.81685e+07
5.08178e+07
3.77161e+07
4.83768e+07
3.29723e+07
3.68299e+07
7.03685e+07
1.20514e+07
6.31653e+07
3.45241e+07
9.10129e+07
6.59437e+07
4.46486e+07
4.66921e+07
3.53994e+07
2.03595e+07
3.80646e+07
3.47031e+07
4.04095e+07
1.68888e+07
2.08521e+07
4.73952e+07
5.2354e+07
6.3438e+07
5.38897e+07
5.71221e+07
4.28285e+07
7.01533e+07
1.29293e+08
4.21442e+07
1.04963e+08
1.01087e+08
5.06892e+07
7.25149e+07
1.62285e+07
7.3659e+07
6.84468e+07
7.4281e+07
6.11885e+07
4.86162e+07
4.14906e+07
4.18137e+07
7.16444e+07
6.3408e+07
6.15395e+07
5.50816e+07
4.59956e+07
9.09229e+07
4.29186e+07
8.86732e+07
1.26846e+08
7.26146e+07
4.16991e+07
2.3787e+07
5.32797e+07
5.01483e+07
6.55833e+07
4.92569e+07
6.88489e+07
7.73209e+07
8.81038e+07
3.66017e+07
5.70857e+07
5.34625e+07
7.01648e+07
1.19982e+08
4.91174e+07
4.48539e+07
4.52021e+07
2.63132e+07
4.67778e+07
7.17748e+07
8.07081e+07
3.67358e+07
3.01144e+07
4.07467e+07
3.15022e+07
4.49514e+07
7.26232e+07
5.05059e+07
3.84782e+07
3.84616e+07
6.38799e+07
3.40234e+07
1.17434e+08
4.11278e+07
4.13042e+07
1.3611e+07
8.10804e+07
1.1272e+08
1.28962e+07
1.17957e+08
6.44147e+07
9.3092e+07
9.77717e+07
4.80811e+07
5.88945e+07
2.76039e+07
4.93496e+07
6.1801e+07
2.42765e+07
6.93485e+07
4.69864e+07
4.18593e+07
1.42176e+07
6.9764e+07
5.58395e+07
6.02902e+07
3.021e+07
6.74794e+07
4.70816e+07
3.72179e+07
1.20273e+08
6.7605e+07
2.74036e+07
2.8128e+07
1.0111e+08
3.59515e+07
3.56576e+07
8.94462e+07
3.21841e+07
5.17723e+07
5.18884e+07
5.58247e+07
3.70235e+07
4.05838e+07
5.45797e+07
9.41482e+07
5.06243e+07
7.77664e+07
1.04371e+08
7.91941e+07
4.9783e+07
6.61975e+07
1.03093e+08
5.32008e+07
1.19389e+07
4.46037e+07
6.80748e+07
6.7956e+07
6.39707e+07
3.39262e+07
1.02378e+08
8.93323e+07
3.48657e+07
1.1724e+08
7.91515e+07
4.00237e+07
1.01225e+08
1.14609e+08
1.09451e+08
6.43736e+07
3.40798e+07
7.43886e+07
7.38838e+07
1.12951e+08
3.31896e+07
8.02877e+07
4.68663e+07
2.24432e+07
8.39867e+07
4.75858e+07
4.51162e+07
1.11896e+07
4.81319e+07
4.78339e+07
9.23658e+07
6.2278e+07
3.64412e+07
3.5228e+07
3.55314e+07
5.08279e+07
8.79914e+07
3.55115e+07
5.33502e+07
3.08188e+07
6.31534e+07
1.04022e+08
9.01266e+07
8.70758e+07
1.37058e+07
1.43442e+07
9.34405e+07
1.12474e+08
3.34475e+07
1.97969e+07
1.23882e+07
3.52846e+07
1.38567e+07
4.90367e+07
4.27589e+07
8.01462e+07
4.11306e+07
9.92694e+07
1.4892e+07
5.23067e+07
1.76192e+07
3.95017e+07
1.09578e+08
1.09111e+08
8.40331e+07
3.27948e+07
6.80472e+07
1.16197e+08
1.01824e+08
6.09391e+07
5.66908e+07
3.26365e+07
2.30556e+07
7.2649e+07
2.17851e+07
4.75519e+07
5.74837e+07
8.04634e+07
3.87161e+07
4.30671e+07
6.3604e+07
6.38958e+07
5.56453e+07
7.41576e+07
5.90274e+07
6.82312e+07
6.29847e+07
5.40001e+07
8.09282e+07
7.91511e+07
7.77317e+07
7.97659e+07
8.83224e+07
1.02307e+08
8.08654e+07
3.54391e+07
2.60165e+07
8.71668e+07
7.5318e+07
8.33559e+07
7.50066e+07
3.82384e+07
1.19539e+08
3.72989e+07
4.88108e+07
1.24867e+07
4.44092e+07
7.98427e+07
9.88027e+07
1.81677e+07
6.3818e+07
3.33619e+07
1.68896e+07
1.62221e+07
8.53154e+07
3.36974e+07
6.11211e+07
7.98066e+07
1.31055e+08
4.26135e+07
8.04732e+07
6.09792e+07
4.1675e+07
5.51357e+07
1.04288e+08
4.40562e+07
5.49569e+07
4.45047e+07
3.91198e+07
1.95052e+07
9.33884e+07
3.11478e+07
5.99326e+07
3.10388e+07
5.64436e+07
3.14999e+07
5.58416e+07
5.63687e+07
3.31355e+07
1.80099e+07
2.87908e+07
4.49799e+07
3.23824e+07
3.20376e+07
5.2543e+07
1.76759e+07
2.42647e+07
6.09451e+07
3.90523e+07
1.75421e+07
3.98147e+07
1.22816e+08
4.21791e+07
8.51358e+07
4.49487e+07
9.15354e+07
1.0034e+08
3.9899e+07
1.27629e+08
1.18581e+08
4.62723e+07
9.08304e+07
5.40105e+07
1.09356e+08
1.23919e+08
4.56648e+07
5.11122e+07
4.97498e+07
3.63203e+07
2.79982e+07
1.25024e+08
1.16778e+08
8.66658e+07
3.00334e+07
8.37966e+07
4.27678e+07
3.42245e+07
3.69099e+07
4.16231e+07
7.30072e+07
4.44087e+07
4.78746e+07
8.3408e+07
8.32784e+07
4.64227e+07
4.66134e+07
9.58665e+07
7.98927e+07
1.05459e+08
5.48313e+07
1.17462e+07
3.02717e+07
4.25827e+07
6.34297e+07
6.39475e+07
3.46686e+07
3.91337e+07
3.93263e+07
5.73962e+07
3.74597e+07
3.90319e+07
3.86232e+07
6.32362e+07
3.90892e+07
2.57734e+07
5.27327e+07
6.94768e+07
4.62338e+07
4.56792e+07
6.0626e+07
2.67899e+07
4.63094e+07
4.66686e+07
8.98783e+07
4.84271e+07
3.29011e+07
4.19464e+07
2.07874e+07
2.62439e+07
4.4808e+07
5.18894e+07
8.95855e+07
7.13289e+07
2.57175e+07
1.25519e+08
7.27011e+07
5.4685e+07
3.31732e+07
5.45177e+07
3.29088e+07
4.21249e+07
3.8846e+07
8.9528e+07
5.95091e+07
2.75835e+07
5.52944e+07
7.11253e+07
1.0896e+08
7.25561e+07
8.86585e+07
9.20248e+07
8.87374e+07
3.85573e+07
2.25545e+07
5.39945e+07
1.09603e+08
1.05153e+08
6.97025e+07
9.34103e+07
2.03396e+07
4.6016e+07
4.07379e+07
4.07772e+07
2.97754e+07
4.13593e+07
3.39879e+07
1.04509e+08
5.91603e+07
5.06917e+07
5.2755e+07
7.85405e+07
3.48106e+07
4.43134e+07
5.4596e+07
3.25467e+07
1.25059e+08
1.10758e+08
4.68231e+07
1.5416e+07
9.15897e+07
8.76967e+07
5.91883e+07
1.15987e+08
1.95895e+07
1.13866e+08
9.14433e+07
3.61661e+07
6.45121e+07
4.92983e+07
9.42055e+07
2.76201e+07
2.8318e+07
1.03467e+08
4.67212e+07
4.72759e+07
1.16505e+08
2.21656e+07
4.93035e+07
9.85366e+07
2.90937e+07
9.54413e+07
3.77018e+07
4.14566e+07
1.08035e+08
4.74872e+07
1.13614e+07
4.67029e+07
1.83907e+07
4.12446e+07
4.10864e+07
3.91187e+07
2.96449e+07
8.42706e+07
4.42673e+07
2.47259e+07
8.29615e+07
8.55087e+07
6.01871e+07
6.22548e+07
2.13861e+07
2.23731e+07
1.27499e+08
9.27962e+07
1.12479e+08
5.70354e+07
3.32491e+07
8.25089e+07
3.51293e+07
1.28093e+07
3.31974e+07
5.47743e+07
3.0633e+07
8.59135e+07
4.46829e+07
4.82102e+07
5.03487e+07
6.94052e+07
1.1277e+08
9.24866e+07
3.46475e+07
6.60984e+07
5.04224e+07
3.15029e+07
1.02938e+08
5.13494e+07
3.74837e+07
6.13704e+07
3.87971e+07
6.92538e+07
6.85174e+07
1.18249e+08
2.61774e+07
3.66012e+07
3.63396e+07
5.62293e+07
6.85352e+07
3.48082e+07
4.69764e+07
5.37046e+07
3.05318e+07
8.32205e+07
2.66849e+07
4.68688e+07
1.15534e+08
5.17861e+07
3.18752e+07
7.48701e+07
7.78534e+07
2.61697e+07
5.27671e+07
6.90558e+07
5.37873e+07
9.6701e+07
7.5399e+07
4.69624e+07
4.8702e+07
2.071e+07
3.8087e+07
9.07081e+07
5.89828e+07
5.99808e+07
1.09766e+08
2.08859e+07
1.01478e+08
3.16057e+07
1.23878e+08
6.23358e+07
1.22708e+08
5.67286e+07
4.52682e+07
2.68747e+07
7.11523e+07
1.06537e+08
3.98184e+07
1.04223e+08
4.61497e+07
7.48109e+07
6.03013e+07
4.3939e+07
4.30434e+07
4.26433e+07
3.27413e+07
5.0238e+07
9.72949e+07
7.10516e+07
5.27067e+07
3.34323e+07
4.21209e+07
4.6914e+07
1.12224e+08
6.54346e+07
8.87247e+07
8.37592e+07
6.65687e+07
4.07101e+07
4.21387e+07
3.68124e+07
3.58217e+07
3.574e+07
4.18283e+07
7.51946e+07
4.25429e+07
1.0063e+08
9.42275e+07
8.7393e+07
3.76823e+07
3.76442e+07
9.02677e+07
5.28628e+07
3.0926e+07
7.59636e+07
5.86275e+07
4.19554e+07
8.73384e+07
4.58201e+07
4.20816e+07
6.61342e+07
9.09503e+07
9.19321e+07
6.92326e+07
6.90068e+07
1.13116e+08
5.44413e+07
8.46242e+07
7.38897e+07
1.10228e+08
6.17632e+07
6.17919e+07
5.42997e+07
3.44987e+07
7.4542e+07
3.66109e+07
3.20093e+07
3.18362e+07
5.01026e+07
7.79259e+07
4.69904e+07
3.31133e+07
4.19348e+07
3.54182e+07
6.45404e+07
6.42381e+07
7.93202e+07
2.3285e+07
2.2248e+07
6.03044e+07
3.22357e+07
4.75527e+07
9.40373e+07
4.8054e+07
3.0393e+07
3.69824e+07
3.92591e+07
5.05983e+07
6.07121e+07
4.1902e+07
6.54728e+07
2.27335e+07
6.45257e+07
9.91563e+07
7.42126e+07
3.29506e+07
3.04563e+07
4.76108e+07
9.60171e+07
4.60288e+07
1.08415e+08
5.16796e+07
5.06497e+07
5.49712e+07
7.88255e+07
4.77274e+07
1.26469e+07
1.90739e+07
7.84807e+07
3.16613e+07
4.70562e+07
3.82788e+07
4.30903e+07
7.92467e+07
4.44615e+07
4.57586e+07
5.19156e+07
3.39002e+07
1.84657e+07
4.81815e+07
1.16915e+08
5.32392e+07
1.11268e+08
3.78383e+07
3.39826e+07
8.14776e+07
7.39473e+07
5.51008e+07
4.20702e+07
8.86212e+07
1.16881e+08
7.17672e+07
6.63766e+07
7.44476e+07
3.32133e+07
5.3618e+07
4.8741e+07
3.474e+07
4.14038e+07
8.34379e+07
7.01375e+07
6.49593e+07
3.07585e+07
3.61978e+07
3.72622e+07
8.74707e+07
6.40763e+07
6.3478e+07
5.14085e+07
3.34645e+07
2.8138e+07
2.81089e+07
4.11045e+07
2.57848e+07
2.51019e+07
4.35187e+07
5.32894e+07
6.75758e+07
9.7382e+07
2.24638e+07
4.08113e+07
2.20314e+07
1.31435e+07
3.1168e+07
6.15065e+07
1.13687e+08
5.96003e+07
6.61019e+07
4.14993e+07
5.98823e+07
3.09716e+07
2.76705e+07
9.0632e+07
1.56433e+07
4.00387e+07
3.61353e+07
1.02925e+08
7.2689e+07
4.70787e+07
8.71085e+07
2.61785e+07
3.80664e+07
4.0385e+07
9.42487e+07
7.13988e+07
6.18387e+07
1.05725e+08
1.07355e+08
3.1276e+07
4.72486e+07
8.80983e+07
6.87424e+07
2.66916e+07
9.87595e+07
5.58188e+07
3.53182e+07
4.20985e+07
2.42458e+07
4.85244e+07
3.74579e+07
1.17488e+08
4.49152e+07
4.42569e+07
2.85815e+07
2.90202e+07
4.3792e+07
3.62567e+07
3.59236e+07
3.56541e+07
9.57858e+07
8.94645e+07
9.41308e+07
4.8606e+07
5.891e+07
8.45876e+07
8.65635e+07
8.54825e+07
6.93636e+07
2.57521e+07
2.69694e+07
7.66517e+07
1.09857e+08
6.67356e+07
5.35736e+07
3.15859e+07
5.6107e+07
6.37e+07
9.80743e+07
1.02444e+08
8.35058e+07
8.53304e+07
9.97767e+07
8.66304e+07
2.52341e+07
4.78683e+07
6.98664e+07
1.05882e+08
4.69338e+07
9.63307e+07
4.16295e+07
3.53616e+07
3.49248e+07
3.37185e+07
3.31788e+07
8.51851e+07
7.47697e+07
7.56697e+07
3.75201e+07
5.31381e+07
6.59297e+07
3.63471e+07
7.25174e+07
1.16915e+08
4.54079e+07
3.86218e+07
5.49596e+07
3.18338e+07
3.95288e+07
3.84814e+07
5.27564e+07
6.62101e+07
4.9853e+07
8.92329e+07
5.0568e+07
4.8051e+07
3.14283e+07
6.74354e+07
9.35221e+07
2.98811e+07
2.99016e+07
4.75301e+07
4.74993e+07
5.02905e+07
7.48059e+07
1.16713e+08
7.97532e+07
1.6187e+07
4.09821e+07
4.04566e+07
6.51994e+07
7.61726e+07
1.27326e+08
3.96307e+07
9.24758e+07
5.91116e+07
6.85677e+07
5.98415e+07
8.11449e+07
4.00699e+07
4.21935e+07
4.2104e+07
6.85518e+07
3.35416e+07
3.37747e+07
6.81721e+07
3.79073e+07
8.26289e+07
1.18638e+07
3.41468e+07
6.47456e+07
6.55445e+07
5.70924e+07
3.9367e+07
4.74508e+07
7.6843e+07
6.31388e+07
3.84966e+07
4.59433e+07
8.33196e+07
4.44412e+07
1.22884e+07
4.17497e+07
6.23418e+07
2.40938e+07
7.37902e+07
3.72691e+07
3.35375e+07
2.90267e+07
5.23734e+07
9.50613e+07
1.13729e+08
8.1829e+07
4.88869e+07
3.28412e+07
6.56201e+07
3.84602e+07
4.60552e+07
3.36385e+07
7.46839e+07
7.73266e+07
4.36292e+07
1.82098e+07
3.97866e+07
6.59369e+07
6.54712e+07
7.89549e+07
1.07523e+08
4.97726e+07
4.95716e+07
2.50866e+07
1.0759e+08
5.02568e+07
1.19386e+08
4.70448e+07
4.62151e+07
4.59075e+07
1.14418e+08
4.86127e+07
5.07675e+07
9.86453e+07
1.02274e+08
5.45933e+07
3.61489e+07
9.67959e+07
9.72128e+07
2.45252e+07
5.84371e+07
5.56182e+07
3.13842e+07
4.23041e+07
1.08527e+08
5.16257e+07
3.26598e+07
1.24888e+08
5.81012e+07
3.10043e+07
5.37344e+07
5.31346e+07
2.38113e+07
7.33278e+07
3.04905e+07
5.19968e+07
5.68803e+07
3.34004e+07
3.30092e+07
4.67085e+07
5.23799e+07
2.20071e+07
5.93982e+07
5.71731e+07
5.21523e+07
7.8229e+07
3.61505e+07
1.04884e+08
7.3849e+07
4.80504e+07
3.3888e+07
7.66543e+07
4.63274e+07
4.77305e+07
1.09482e+08
6.29931e+07
5.62745e+07
5.8152e+07
2.17715e+07
3.13545e+07
4.7442e+07
6.1496e+07
6.3591e+07
6.86035e+07
3.95151e+07
6.63536e+07
1.0406e+08
8.06487e+07
9.04182e+07
5.23783e+07
4.9891e+07
6.38091e+07
5.65938e+07
4.9897e+07
5.11716e+07
1.19639e+08
5.20842e+07
1.02455e+08
5.70776e+07
2.8952e+07
4.81611e+07
3.21538e+07
1.16671e+08
6.19169e+07
3.64491e+07
5.71686e+07
6.48177e+07
4.37329e+07
6.52659e+07
1.09188e+08
5.09039e+07
6.68029e+07
6.84935e+07
3.28439e+07
2.82734e+07
5.22542e+07
1.09448e+08
4.64292e+07
6.032e+07
2.38734e+07
6.15671e+07
8.5096e+07
3.93073e+07
7.83752e+07
4.7814e+07
6.41758e+07
4.82466e+07
6.60667e+07
6.9422e+07
5.2454e+07
3.18377e+07
5.29811e+07
4.1773e+07
2.63746e+07
8.9979e+07
7.19745e+07
4.65258e+07
2.49567e+07
5.97739e+07
3.7639e+07
1.20352e+08
7.29311e+07
1.19075e+08
7.27411e+07
7.68589e+07
3.82057e+07
8.15624e+07
4.77731e+07
5.30891e+07
5.77045e+07
6.95018e+07
9.70762e+07
3.32206e+07
4.00943e+07
4.88859e+07
3.28024e+07
3.6383e+07
1.09922e+08
4.41256e+07
4.21816e+07
2.86462e+07
5.69923e+07
3.75646e+07
4.57954e+07
1.141e+08
3.94209e+07
6.46711e+07
4.51404e+07
3.99821e+07
6.04372e+07
8.54391e+07
2.94445e+07
1.13528e+08
6.97356e+07
5.99723e+07
4.34101e+07
7.07978e+07
4.10119e+07
3.06396e+07
4.75548e+07
2.9817e+07
4.75714e+07
8.37974e+07
3.64105e+07
8.19358e+07
6.85013e+07
4.60267e+07
4.2917e+07
1.00188e+08
5.18848e+07
8.12343e+07
4.05382e+07
4.90585e+07
3.82479e+07
5.7906e+07
3.20862e+07
4.13821e+07
5.90425e+07
3.00897e+07
6.64196e+07
5.74825e+07
5.98086e+07
3.03352e+07
4.10992e+07
3.78879e+07
9.60498e+07
8.42487e+07
9.501e+07
1.03319e+08
3.72713e+07
7.35344e+07
1.01242e+08
4.68635e+07
4.64754e+07
4.97067e+07
4.96094e+07
6.3452e+07
5.21639e+07
4.14146e+07
9.55009e+07
4.53895e+07
3.68818e+07
6.11012e+07
5.82672e+07
2.98246e+07
4.11989e+07
3.5435e+07
3.48306e+07
1.1364e+08
6.81018e+07
1.0795e+08
4.81328e+07
2.01564e+07
1.93434e+07
3.73644e+07
4.94994e+07
5.37084e+07
4.12586e+07
1.09449e+08
4.06156e+07
1.1531e+08
4.17674e+07
4.79737e+07
2.49923e+07
1.07556e+08
4.36146e+07
2.05132e+07
6.35345e+07
6.51786e+07
1.08579e+08
1.17706e+08
6.61938e+07
6.76685e+07
2.3839e+07
2.38476e+07
1.16051e+08
8.85108e+07
1.06363e+08
5.59748e+07
3.12296e+07
4.58246e+07
6.83992e+07
4.11248e+07
4.62389e+07
4.54995e+07
5.33929e+07
2.38991e+07
1.19151e+08
3.45858e+07
1.01441e+08
1.08571e+08
5.04614e+07
3.58669e+07
3.54132e+07
5.45508e+07
3.0233e+07
4.53781e+07
8.21966e+07
8.23618e+07
6.12785e+07
1.98208e+07
6.37065e+07
3.87009e+07
7.76132e+07
5.30729e+07
3.87547e+07
3.89053e+07
8.3882e+07
6.02299e+07
5.94964e+07
7.85294e+07
3.51813e+07
5.64815e+07
4.24317e+07
6.49573e+07
7.76782e+07
5.10748e+07
5.43826e+07
6.23635e+07
4.14028e+07
5.36157e+07
5.43295e+07
6.79647e+07
3.50655e+07
6.88987e+07
9.19324e+07
5.47382e+07
5.57919e+07
9.67442e+07
4.4984e+07
1.13454e+08
4.95655e+07
5.21288e+07
1.1396e+08
1.39576e+07
4.39201e+07
1.8766e+07
3.2963e+07
2.38671e+07
2.88154e+07
1.82913e+07
5.29568e+07
3.1283e+07
3.28768e+07
9.88328e+07
4.56974e+07
1.00136e+08
5.61434e+07
3.0078e+07
6.68516e+07
5.78728e+07
5.82051e+07
5.79964e+07
7.06077e+07
5.59496e+07
8.56272e+07
9.85728e+07
6.85112e+07
4.83952e+07
1.69782e+07
5.05652e+07
4.39466e+07
9.94822e+07
2.91133e+07
1.01742e+08
3.53842e+07
5.12945e+07
5.07234e+07
8.79094e+07
9.04654e+07
9.03214e+07
1.62754e+07
3.78726e+07
4.18986e+07
6.28645e+07
6.26575e+07
8.42541e+07
4.35009e+07
4.47189e+07
4.46419e+07
4.45014e+07
1.07522e+08
2.41873e+07
8.39212e+07
4.1887e+07
4.20851e+07
2.14837e+07
7.54888e+07
3.31421e+07
3.28427e+07
5.11387e+07
4.76305e+07
6.1078e+07
6.47739e+07
4.41433e+07
4.1984e+07
2.58885e+07
4.05561e+07
1.03692e+08
5.64717e+07
3.47922e+07
5.29421e+07
5.28834e+07
4.07511e+07
4.03564e+07
6.66554e+07
4.79518e+07
1.01015e+08
9.14014e+07
5.92116e+07
4.79543e+07
4.08389e+07
4.38182e+07
4.04823e+07
3.52225e+07
5.15617e+07
7.11692e+07
5.74152e+07
6.48139e+07
5.99968e+07
5.89249e+07
4.12897e+07
4.58051e+07
3.55534e+07
1.25371e+08
6.17037e+07
7.11359e+07
1.58017e+07
9.52484e+07
2.53978e+07
3.96361e+07
5.54336e+07
3.02701e+07
5.70494e+07
2.91433e+07
8.89897e+07
4.17831e+07
4.37667e+07
7.81598e+07
5.44992e+07
5.11924e+07
9.00693e+07
1.07466e+08
4.78884e+07
1.5945e+07
8.24364e+07
4.84628e+07
9.43626e+07
6.23699e+07
4.20779e+07
7.79523e+07
5.61386e+07
5.92627e+07
3.03159e+07
4.71877e+07
9.60269e+07
1.18256e+08
4.30444e+07
2.18048e+07
9.28386e+07
5.11529e+07
1.81621e+07
6.92482e+07
2.44239e+07
5.58423e+07
3.04652e+07
5.04084e+07
7.514e+07
4.10744e+07
4.87366e+07
9.94777e+07
5.94929e+07
3.6398e+07
4.72816e+07
4.35326e+07
1.0933e+08
9.59326e+07
5.50543e+07
1.15934e+08
6.24552e+07
4.36787e+07
2.53702e+07
6.16355e+07
6.84847e+07
9.81575e+07
8.59721e+07
1.18611e+08
1.13047e+08
7.6193e+07
3.94487e+07
4.66594e+07
3.42785e+07
4.69463e+07
3.52559e+07
3.55359e+07
1.23231e+07
5.77408e+07
3.21958e+07
1.02822e+08
9.12648e+07
9.09688e+07
1.19376e+08
8.4629e+07
3.6204e+07
4.85141e+07
5.75408e+07
3.83422e+07
3.14324e+07
4.72992e+07
4.84137e+07
5.70314e+07
1.19976e+08
5.45714e+07
3.00829e+07
5.7202e+07
2.7164e+07
7.3875e+07
4.73819e+07
3.12546e+07
8.43856e+07
2.14484e+07
3.22343e+07
5.28031e+07
5.14287e+07
3.51579e+07
2.90477e+07
1.04548e+08
3.17387e+07
4.75965e+07
4.00667e+07
6.11977e+07
7.76908e+07
5.25304e+07
3.78015e+07
4.35513e+07
7.11537e+07
8.41819e+07
5.0617e+07
2.96941e+07
4.40033e+07
3.79831e+07
9.35623e+07