/*--------------------------------*- C++ -*----------------------------------*\
| =========                 |                                                 |
| \\      /  F ield         | OpenFOAM: The Open Source CFD Toolbox           |
|  \\    /   O peration     | Version:  v2012                                 |
|   \\  /    A nd           | Website:  www.openfoam.com                      |
|    \\/     M anipulation  |                                                 |
\*---------------------------------------------------------------------------*/
FoamFile
{
    version     2.0;
    format      ascii;
    class       volSymmTensorField;
    location    "5";
    object      sigma;
}
// * * * * * * * * * * * * * * * * * * * * * * * * * * * * * * * * * * * * * //

dimensions      [1 -1 -2 0 0 0 0];


internalField   nonuniform List<symmTensor> 
470
(
(3.00906e+07 -1.01759e+07 1.60896e-05 2.53948e+06 -1.12677e-05 9.78904e+06)
(3.91569e+07 -2.43984e+06 -2.75554e-06 7.52764e+06 4.62444e-06 1.40053e+07)
(7.48005e+07 -7.36352e+06 -2.29084e-05 967571 4.92261e-05 2.27304e+07)
(6.50487e+07 -1.48147e+06 3.35802e-05 1.37127e+07 -3.47132e-05 2.36284e+07)
(5.70919e+07 -1.91531e+07 3.49347e-05 -2.25077e+06 -3.80755e-05 1.64523e+07)
(6.9114e+07 -1.5637e+06 -1.27969e-05 -281404 -0.000112218 2.06498e+07)
(6.14528e+07 -1.51554e+07 7.77623e-05 4.32867e+06 7.16397e-06 1.97344e+07)
(4.58992e+07 -2.19486e+07 1.80745e-05 -8.09768e+06 -2.30164e-05 1.13405e+07)
(9.64336e+07 -8.34246e+06 -8.42192e-05 -4.80599e+06 3.15953e-05 2.74883e+07)
(7.4637e+07 -1.18055e+07 -0.000157369 3.97058e+06 -0.000108526 2.35823e+07)
(9.54902e+07 -7.48978e+06 8.8154e-05 -3.29985e+06 0.000102927 2.76571e+07)
(1.08067e+08 8.70266e+06 -6.55492e-05 -5.49537e+06 -4.79826e-05 3.07714e+07)
(1.06469e+08 3.81446e+06 -0.00026661 -6.00105e+06 -0.00016152 3.01405e+07)
(6.29538e+07 -3.03401e+06 3.40006e-05 1.25007e+07 -6.0795e-05 2.26363e+07)
(1.1107e+08 -2.45472e+06 0.000293033 -2.45472e+06 0.000195007 3.25847e+07)
(8.5982e+07 -1.06837e+07 6.30972e-05 -943367 2.13321e-05 2.55116e+07)
(7.0806e+07 -1.28703e+07 -3.37904e-05 1.69403e+06 -0.000124466 2.175e+07)
(5.68907e+07 -3.87836e+06 -4.78717e-05 1.06999e+07 9.20235e-06 2.02772e+07)
(5.4625e+07 -1.63334e+06 0.000126662 1.16784e+07 -1.55492e-06 1.9891e+07)
(4.19154e+07 -9.38429e+06 -4.06326e-06 7.72981e+06 -3.54619e-05 1.48935e+07)
(8.96621e+07 -6.5575e+06 -0.000159308 722811 -0.000119825 2.71155e+07)
(6.69324e+07 -4.7232e+06 -1.42447e-06 8.98545e+06 2.73131e-05 2.27754e+07)
(7.71318e+07 -4.86305e+06 0.000122458 978713 0.000134698 2.34331e+07)
(6.06672e+07 -4.78592e+06 -1.77476e-06 1.09238e+07 2.61784e-05 2.14773e+07)
(1.01091e+08 -6.22148e+06 -0.00011216 -1.77184e+07 1.91487e-06 2.50118e+07)
(5.97128e+07 -1.28396e+07 0.000136423 6.57874e+06 2.84829e-05 1.98875e+07)
(9.36437e+07 -8.44318e+06 -6.71138e-05 -1.28332e+07 -0.000110117 2.42431e+07)
(7.9761e+07 -2.99413e+06 -0.000119843 -594944 4.51745e-05 2.37498e+07)
(6.92489e+07 -3.84064e+06 2.53603e-05 1.54088e+06 -9.79035e-06 2.12369e+07)
(6.03186e+07 -2.09067e+06 -1.20497e-05 1.15887e+07 -6.45252e-05 2.15722e+07)
(4.06142e+07 -9.10054e+06 -1.61596e-05 7.18103e+06 -2.78962e-05 1.43386e+07)
(1.19507e+08 744353 0.000138162 -476682 9.25033e-05 3.5709e+07)
(7.39907e+07 -1.04404e+07 -6.70437e-05 1.71963e+06 -8.07981e-05 2.27131e+07)
(1.28016e+08 -1.38117e+07 0.000451745 1.55797e+06 -0.00032499 3.88721e+07)
(7.29443e+07 -2.33385e+06 1.61129e-05 1.40095e+06 -3.50047e-05 2.23036e+07)
(7.02898e+07 -2.18946e+06 0.000118395 719807 -0.000125044 2.13029e+07)
(1.11554e+08 2.69743e+06 -0.000141011 -457158 -7.30102e-05 3.33292e+07)
(4.20595e+07 -8.72628e+06 -4.62371e-05 6.24027e+06 -2.27566e-05 1.44899e+07)
(5.0157e+07 -8.31298e+06 -5.86837e-05 9.70012e+06 4.53537e-05 1.79571e+07)
(4.14072e+07 -1.22215e+07 1.63464e-06 4.82966e+06 -1.59662e-05 1.38711e+07)
(8.43037e+07 -1.47506e+07 -6.13458e-05 -1.26119e+07 -1.52576e-05 2.15076e+07)
(5.08755e+07 -2.03629e+06 3.07546e-05 1.06047e+07 2.72726e-06 1.84441e+07)
(1.09635e+08 1.30904e+07 0.000266768 -607303 3.02993e-05 3.27082e+07)
(7.02778e+07 -1.83632e+07 6.10423e-05 -1.16201e+07 8.31625e-06 1.75973e+07)
(8.60442e+07 -2.60107e+06 4.4112e-05 280729 4.5843e-05 2.58975e+07)
(1.00534e+08 1.32646e+07 -3.10641e-05 -3.39626e+06 -6.19413e-05 2.91413e+07)
(4.91387e+07 -1.3653e+07 -5.07673e-05 5.0656e+06 -4.75616e-06 1.62613e+07)
(9.01038e+07 -1.11073e+07 -9.88025e-05 -1.58991e+07 -2.9949e-05 2.22614e+07)
(8.37093e+07 -1.36577e+07 -0.000134718 -1.10713e+07 1.28261e-05 2.17914e+07)
(9.76647e+07 -6.82108e+06 -7.94203e-05 -9.82902e+06 3.3049e-05 2.63507e+07)
(1.12836e+08 3.34902e+06 -2.35739e-05 -1.31955e+06 -2.27274e-05 3.3455e+07)
(1.23248e+08 -1.19931e+07 0.000117753 -2.49388e+06 -0.000325387 3.62261e+07)
(5.93377e+07 -5.69281e+06 3.2506e-05 1.10243e+07 2.84968e-06 2.11086e+07)
(5.20777e+07 -3.63095e+06 3.56119e-05 9.85057e+06 4.71821e-06 1.85785e+07)
(6.66457e+07 -4.46364e+06 5.89873e-05 1.18099e+07 -3.00161e-05 2.35367e+07)
(6.63256e+07 -5.08097e+06 -6.95891e-06 9.10921e+06 -2.75773e-05 2.26305e+07)
(7.93574e+07 6.20202e+06 3.50719e-06 1.356e+06 5.91974e-06 2.4214e+07)
(5.55327e+07 856619 -4.63115e-05 -1.54631e+06 -8.37171e-06 1.61959e+07)
(7.43863e+07 -1.79712e+07 1.74673e-05 -4.35243e+06 2.70986e-05 2.10101e+07)
(8.2414e+07 -4.57907e+06 -0.000256966 1.53527e+06 2.70417e-05 2.51848e+07)
(6.22651e+07 -1.21772e+07 1.43615e-05 6.42907e+06 1.13637e-05 2.06083e+07)
(1.01021e+08 -942726 -3.7842e-05 -9.60044e+06 5.83626e-05 2.74263e+07)
(1.05709e+08 456741 8.40323e-05 -6.20748e+06 -8.02843e-05 2.98505e+07)
(1.13379e+08 1.11068e+07 -8.76869e-06 -5.63951e+06 7.95721e-05 3.23219e+07)
(5.44051e+07 -2.34883e+07 -0.000175607 -613260 -0.000140924 1.61375e+07)
(1.21177e+08 7.95503e+06 0.000655346 1.42007e+07 0.000145226 4.06133e+07)
(4.62456e+07 -1.4861e+07 -4.72879e-05 4.99151e+06 -2.73142e-05 1.53711e+07)
(6.71542e+07 -4.98801e+06 1.92888e-05 6.69571e+06 9.87792e-06 2.2155e+07)
(3.62207e+07 -2.45865e+07 -5.59515e-05 -2.18308e+07 1.97223e-05 4.31695e+06)
(8.22793e+07 -1.25402e+07 0.000103473 1.03658e+06 0.00015936 2.49948e+07)
(2.81377e+07 -4.53684e+06 2.59675e-05 3.1994e+06 -5.52568e-06 9.40113e+06)
(7.1694e+07 -1.31771e+07 -5.4924e-05 4.10563e+06 -8.24327e-05 2.27399e+07)
(1.26234e+08 5.29713e+06 5.86253e-05 -6.08615e+06 0.000169454 3.60443e+07)
(6.63613e+07 -1.62946e+07 -4.43689e-06 2.30035e+06 4.91429e-05 2.05985e+07)
(1.15148e+08 1.07086e+07 -2.82093e-05 -3.35525e+06 0.000177219 3.35378e+07)
(6.65865e+07 -1.72449e+06 -0.000141397 1.1634e+07 1.59516e-05 2.34661e+07)
(7.01455e+07 -1.07899e+07 9.97366e-05 4.43572e+06 -0.000107098 2.23744e+07)
(6.88594e+07 -1.18723e+07 0.000123462 5.15948e+06 -5.66871e-06 2.22057e+07)
(7.05353e+07 -1.66808e+07 2.96571e-05 -539179 2.88909e-05 2.09988e+07)
(1.2027e+08 6.265e+06 0.000192165 1.5736e+07 0.000116807 4.08018e+07)
(7.94862e+07 -1.62635e+07 -4.21037e-05 -6.49626e+06 0.000104427 2.1897e+07)
(1.34995e+08 1.30111e+07 0.000593662 1.1111e+07 -5.48656e-05 4.38317e+07)
(7.82787e+07 -7.46497e+06 -2.47532e-06 2.13959e+06 -2.73774e-05 2.41255e+07)
(3.15147e+07 -1.83707e+07 -2.65746e-05 -2.51384e+07 -2.01076e-05 1.91287e+06)
(9.66093e+07 -5.95657e+06 0.000164375 -8.53634e+06 3.04511e-05 2.64219e+07)
(6.67237e+07 -2.09778e+06 -1.86816e-05 8.7791e+06 2.97753e-05 2.26508e+07)
(1.07595e+08 1.22229e+07 0.000377813 -8.62617e+06 0.000155548 2.96907e+07)
(8.8324e+07 -3.32581e+07 0.000208183 1.73539e+07 0.000100589 3.17034e+07)
(1.08795e+08 1.60081e+07 -7.00561e-06 1.35596e+06 0.000126358 3.30453e+07)
(1.10436e+08 4.75804e+06 0.000284638 -1.17945e+07 9.19487e-05 2.95925e+07)
(1.17719e+08 1.39673e+07 0.000135127 -3.59402e+06 0.000189222 3.42374e+07)
(1.08618e+08 4.68551e+06 -0.000267685 -4.14411e+06 -0.000188941 3.13423e+07)
(6.6093e+07 -1.68435e+07 -3.60789e-05 2.2378e+06 6.83777e-05 2.04993e+07)
(6.74759e+07 -1.25316e+07 3.06612e-05 4.22002e+06 -5.28296e-05 2.15088e+07)
(1.08024e+08 -502621 -0.00013118 -2.25674e+06 -6.41364e-05 3.17303e+07)
(1.11511e+08 1.40598e+06 -2.66213e-05 136183 0.000185404 3.34941e+07)
(5.27842e+07 -1.78306e+07 -2.97272e-05 1.43955e+06 -9.19049e-06 1.62671e+07)
(6.55845e+07 -1.38211e+07 -3.59154e-05 5.09587e+06 1.88079e-05 2.12041e+07)
(5.60208e+07 -1.96546e+07 9.1937e-05 -4.31537e+06 -8.12797e-06 1.55116e+07)
(7.26116e+07 -4.2118e+06 -5.49707e-05 916834 5.73293e-06 2.20585e+07)
(6.5373e+07 -6.52421e+06 9.8172e-05 9.76302e+06 1.92771e-05 2.25408e+07)
(8.88553e+07 -1.0799e+07 -0.000155688 -8.09855e+06 9.47918e-05 2.4227e+07)
(1.26745e+08 6.45144e+06 0.000253125 -2.54073e+06 2.34571e-05 3.72613e+07)
(6.50251e+07 -4.02522e+06 4.24307e-05 1.2189e+07 5.93215e-06 2.31642e+07)
(6.67344e+07 -2.73281e+06 -1.94289e-05 1.50103e+07 -3.28242e-06 2.45234e+07)
(6.71376e+07 -2.89131e+06 0.000206479 1.45482e+06 2.77656e-05 2.05777e+07)
(6.89793e+07 -3.76389e+06 0.000119936 5.06135e+06 3.51653e-05 2.22122e+07)
(5.60524e+07 -1.69775e+07 -2.64345e-05 2.1203e+06 -5.80955e-05 1.74518e+07)
(6.54174e+06 -2.27261e+06 7.5754e-05 -4.4369e+07 -0.000136007 -1.13482e+07)
(1.43734e+08 -1.74637e+06 0.000665884 1.11649e+07 6.49187e-06 4.64696e+07)
(1.05551e+08 1.3561e+07 -1.23883e-05 -1.91865e+06 -1.69186e-05 3.10896e+07)
(1.46721e+08 -232427 0.000913036 9.95012e+06 -0.00017068 4.70013e+07)
(6.70506e+07 -1.7472e+06 -6.21164e-05 1.33414e+07 4.75944e-06 2.41176e+07)
(6.90383e+07 -1.27361e+06 -4.99267e-05 742432 -6.58061e-05 2.09342e+07)
(5.05677e+07 -2.17498e+07 -6.17895e-05 -1.68674e+07 1.76906e-05 1.01101e+07)
(7.46069e+07 -1.49308e+07 -3.76435e-05 1.43248e+06 4.03494e-05 2.28118e+07)
(6.33408e+07 -1.33575e+06 -6.7791e-05 1.37436e+07 -2.12686e-06 2.31253e+07)
(1.0767e+08 -2.15088e+06 -0.000299303 19019.8 -0.000108272 3.23067e+07)
(5.78744e+07 -1.58942e+07 -2.11103e-05 3.73355e+06 5.32252e-05 1.84824e+07)
(4.09756e+07 -2.9111e+06 1.80278e-05 8.57251e+06 8.57567e-06 1.48644e+07)
(6.22995e+07 -1.82329e+07 3.1969e-05 1.03924e+06 3.02832e-05 1.90016e+07)
(6.57362e+07 -4.55512e+06 2.4543e-05 1.28584e+07 3.34919e-05 2.35784e+07)
(5.93802e+07 -3.44955e+06 3.4561e-06 1.12047e+07 -2.43389e-05 2.11755e+07)
(6.67764e+07 -1.07629e+06 4.67975e-05 1.80151e+07 -1.44695e-05 2.54375e+07)
(6.69346e+07 -993115 -3.90913e-05 1.8983e+06 -9.71328e-05 2.06499e+07)
(7.76319e+07 -1.59428e+07 1.53656e-05 -1.66527e+06 5.60172e-05 2.279e+07)
(7.96246e+07 -1.40868e+07 -8.99054e-06 -374975 2.47882e-05 2.37749e+07)
(6.5501e+07 -6.68367e+06 1.4992e-05 8.82057e+06 -4.65859e-05 2.22965e+07)
(1.11947e+08 -3.73436e+06 0.000232213 383314 -5.77029e-05 3.36991e+07)
(6.25018e+07 -5.58712e+06 3.82039e-05 1.06106e+07 7.63718e-05 2.19337e+07)
(4.77939e+07 -1.74033e+07 2.10168e-06 1.11943e+06 -4.64735e-05 1.4674e+07)
(4.57374e+07 -1.94969e+07 -1.84248e-05 -2.14841e+06 -7.708e-05 1.30767e+07)
(6.27496e+07 -1.49546e+07 8.42775e-05 4.64823e+06 3.87323e-05 2.02193e+07)
(6.45913e+07 -7.38556e+06 2.57807e-05 9.60297e+06 -2.78517e-05 2.22583e+07)
(6.72828e+07 -1.76014e+06 -6.78143e-05 8.01217e+06 4.2562e-05 2.25885e+07)
(7.42971e+07 -4.17438e+06 0.000222101 402194 0.000101847 2.24098e+07)
(6.93352e+07 -1.49558e+07 -8.18489e-05 2.78185e+06 -4.0545e-06 2.16351e+07)
(9.6579e+07 -2.28952e+07 -0.000185731 -1.37935e+06 -0.000146423 2.85599e+07)
(1.08546e+08 8.19466e+06 -0.00018977 -1.75676e+06 -0.000209153 3.20369e+07)
(6.73774e+07 -939939 0.000128576 249029 6.35263e-05 2.02879e+07)
(6.91971e+07 -1.65225e+06 0.000157043 1.43317e+06 -4.72587e-05 2.11891e+07)
(1.0823e+08 -2.31885e+06 6.25368e-05 -1.67639e+07 6.30038e-05 2.74397e+07)
(6.74732e+07 -7.10382e+06 -1.43382e-05 8.58646e+06 2.43007e-06 2.28179e+07)
(6.55558e+07 -1.1153e+07 1.82146e-05 5.40903e+06 6.49099e-05 2.12895e+07)
(6.7854e+07 -1.02456e+07 4.56533e-05 6.87469e+06 2.59106e-05 2.24186e+07)
(4.33107e+07 -8.95603e+06 -3.45844e-05 6.7355e+06 -2.82702e-05 1.50139e+07)
(6.6426e+07 -1.40008e+06 -0.000121431 1.58315e+07 -7.3829e-05 2.46773e+07)
(1.02184e+08 996631 -0.000160592 -1.4997e+07 0.000120724 2.6156e+07)
(6.39863e+07 -9.57719e+06 -0.000109334 7.76765e+06 -1.19957e-05 2.15262e+07)
(1.04471e+08 7.266e+06 -0.000188451 -1.22948e+07 4.50753e-05 2.76529e+07)
(5.4934e+07 -5.61806e+06 -3.72699e-05 1.089e+07 1.4336e-05 1.97472e+07)
(6.41148e+07 -1.9897e+06 4.94129e-05 1.48018e+07 -3.79914e-05 2.3675e+07)
(5.15897e+07 -2.12894e+07 -0.0001417 -1.4889e+07 -3.29176e-05 1.10102e+07)
(6.53111e+07 -3.77773e+06 9.10263e-05 1.04521e+07 -1.07981e-05 2.2729e+07)
(1.37274e+08 -3.40217e+07 -0.000917222 4.96251e+06 0.000512753 4.26709e+07)
(8.39898e+07 -1.34343e+07 0.00017883 -1.25273e+06 0.000179697 2.48211e+07)
(-4.99405e+06 1.10749e+07 6.235e-06 -7.96511e+07 -0.000111169 -2.53935e+07)
(5.74897e+07 -1.27714e+07 6.14626e-05 6.08702e+06 3.77136e-05 1.9073e+07)
(6.27546e+07 -1.22314e+07 -2.02229e-05 8.38206e+06 -4.16615e-06 2.1341e+07)
(7.11624e+07 -1.16879e+07 -0.000118628 2.58009e+06 -0.000122823 2.21227e+07)
(1.62769e+08 -1.8493e+07 0.000394323 1.15026e+07 -0.000273978 5.22815e+07)
(1.02386e+08 -3.77613e+06 5.76212e-05 -4.27125e+06 4.66457e-06 2.94344e+07)
(7.48616e+07 6.43797e+06 1.96595e-05 1.05282e+06 0.000214302 2.27743e+07)
(1.17464e+08 -2.69518e+06 0.000294493 -2.45982e+06 -2.67965e-05 3.45013e+07)
(1.05655e+08 -961506 0.000278853 8.25977e+06 3.1969e-05 3.41744e+07)
(7.00561e+07 -1.88106e+07 7.42595e-05 -2.07981e+07 5.19583e-06 1.47774e+07)
(5.93318e+07 -2.42981e+07 -3.61723e-05 -2.22256e+07 -8.08273e-06 1.11319e+07)
(1.09043e+08 -685554 0.000426595 -874298 7.49017e-06 3.24507e+07)
(6.92733e+07 -1.80191e+07 -4.40186e-05 -931631 1.42564e-05 2.05025e+07)
(7.40882e+07 -1.88736e+07 3.65927e-05 -1.77318e+07 8.37755e-07 1.69069e+07)
(7.40335e+07 -1.80954e+07 -5.51225e-05 -1.40908e+07 3.33059e-06 1.79828e+07)
(6.79807e+07 -8.38688e+06 2.13204e-05 5.31159e+06 4.779e-05 2.19877e+07)
(6.89585e+07 -7.61862e+06 -6.43115e-05 4.55908e+06 6.02716e-05 2.20553e+07)
(6.93501e+07 -1.01114e+07 -1.39645e-05 4.05747e+06 -3.33526e-05 2.20223e+07)
(6.80632e+07 -9.54756e+06 3.33934e-05 5.38974e+06 4.01392e-05 2.20359e+07)
(6.32512e+07 -1.16591e+07 2.3352e-07 6.3534e+06 1.46125e-05 2.08814e+07)
(5.795e+07 -3.42278e+06 1.13024e-05 1.23676e+07 6.11532e-07 2.10953e+07)
(1.43171e+07 -5.98803e+06 -9.85456e-06 -1.41785e+07 -3.4032e-06 41558.5)
(9.47036e+07 -6.6502e+06 -0.000176495 -1.80722e+07 -2.2091e-05 2.29894e+07)
(6.03413e+07 -2.17565e+07 -8.5632e-05 -1.38592e+07 -2.27215e-05 1.39446e+07)
(7.18836e+07 -1.88203e+07 0.00017904 -7.7148e+06 8.82999e-06 1.92506e+07)
(9.93488e+07 1.05102e+07 -3.88403e-05 -6.63914e+06 -0.000137672 2.78129e+07)
(6.94543e+07 -1.49461e+07 -0.00019924 2.83436e+06 -4.14616e-05 2.16866e+07)
(7.88575e+07 -1.37954e+07 0.000142681 -799657 0.000177035 2.34173e+07)
(8.4139e+07 -1.02568e+07 0.000109007 1.74501e+06 0.000114997 2.57652e+07)
(1.01991e+08 -4.82676e+06 -4.35282e-05 -781015 -0.000140104 3.03631e+07)
(7.1632e+07 -6.4371e+06 -0.000160639 3.90092e+06 2.6563e-07 2.26599e+07)
(9.01974e+06 -4.65319e+06 -1.89152e-06 -1.00863e+07 -4.48651e-06 -319975)
(9.24221e+07 6.96232e+06 -3.49755e-05 159232 6.68919e-05 2.77744e+07)
(6.23163e+07 -6.0519e+06 -2.69483e-05 1.06951e+07 4.12353e-05 2.19034e+07)
(7.03448e+07 -4.27358e+06 8.85743e-05 3.68992e+06 7.40844e-05 2.22104e+07)
(5.74732e+07 -1.37603e+07 0.000102119 6.80812e+06 2.79495e-07 1.92844e+07)
(7.80897e+07 -1.33875e+07 5.88238e-05 2.71596e+06 3.66087e-05 2.42417e+07)
(7.26921e+07 -1.40687e+07 -7.05932e-05 810606 4.03699e-06 2.20508e+07)
(2.79607e+07 -1.2395e+07 2.42161e-05 -938337 -3.04274e-05 8.1067e+06)
(5.47607e+07 -5.73823e+06 -9.48093e-06 9.15687e+06 5.71249e-06 1.91753e+07)
(7.66391e+07 -4.57592e+06 -0.000145834 -900343 0.000108149 2.27216e+07)
(7.25462e+07 -9.06604e+06 -0.000122085 2.81419e+06 -0.00013752 2.26081e+07)
(7.3499e+07 -7.10768e+06 2.14839e-06 1.8587e+06 1.42156e-06 2.26073e+07)
(2.73938e+08 -2.0785e+07 -0.00318663 3.22607e+07 -0.00031189 9.18595e+07)
(3.61657e+07 -3.73888e+06 3.46544e-05 6.33331e+06 -9.99084e-06 1.27497e+07)
(2.3515e+07 -3.71323e+06 1.40346e-05 924200 -8.55597e-06 7.33177e+06)
(1.89284e+08 2.77556e+06 -0.000136566 1.52881e+07 -0.000359505 6.13716e+07)
(6.94098e+07 -2.17939e+07 0.000156739 -2.4498e+07 -4.58926e-05 1.34736e+07)
(8.08108e+07 -1.1041e+07 1.64865e-05 149626 -4.71128e-06 2.42881e+07)
(8.37083e+07 -6.97006e+06 0.00014198 -764453 -0.000149412 2.48832e+07)
(5.06588e+07 -5.94934e+06 1.58327e-05 1.07884e+07 3.55121e-05 1.84341e+07)
(5.1273e+07 -5.89371e+06 -2.89098e-05 9.42774e+06 3.21175e-05 1.82102e+07)
(8.34315e+07 -1.65923e+07 2.48232e-05 -2.10696e+07 -8.57837e-05 1.87086e+07)
(-1.23966e+07 8.0561e+06 -1.90553e-05 -1.03924e+08 -6.38292e-05 -3.4896e+07)
(6.64822e+07 -6.11708e+06 6.77443e-05 1.07229e+07 -3.36656e-05 2.31615e+07)
(7.45087e+07 -9.22521e+06 0.000169536 -152855 -8.44731e-05 2.23068e+07)
(-4.48416e+06 -5.4518e+06 -6.54558e-05 -5.42303e+07 -4.6626e-05 -1.76143e+07)
(5.79064e+07 -7.13457e+06 5.67922e-05 9.56393e+06 -4.15597e-05 2.02411e+07)
(1.00708e+08 -7.42057e+06 -0.00015772 -3.7354e+06 -0.000129242 2.90916e+07)
(9.45663e+07 -7.73985e+06 -0.000368577 -998899 -4.57321e-05 2.80702e+07)
(6.59482e+07 -9.13024e+06 -3.32066e-05 8.47819e+06 -3.14713e-05 2.23279e+07)
(5.16901e+07 -1.19918e+07 1.18395e-05 6.11586e+06 6.16275e-06 1.73418e+07)
(6.14268e+07 -8.63281e+06 -9.96899e-05 9.0125e+06 -2.83165e-05 2.11318e+07)
(8.37835e+07 -1.41582e+07 8.24678e-05 -1.78218e+07 7.24059e-05 1.97885e+07)
(7.25263e+06 -8.59697e+06 -1.02282e-05 -4.76252e+07 -0.000108092 -1.21118e+07)
(3.87145e+07 -1.40831e+07 -2.14138e-05 1.59025e+06 -3.41414e-05 1.20914e+07)
(7.00994e+07 -5.87843e+06 -0.000330058 973000 -2.21698e-05 2.13217e+07)
(6.08971e+07 -6.51677e+06 -1.4922e-05 1.06542e+07 -3.44837e-05 2.14654e+07)
(8.42826e+07 -1.47847e+07 -7.30452e-05 -2.12348e+07 -6.16552e-05 1.89143e+07)
(6.9445e+07 -3.49868e+06 -0.000123672 -229855 -9.47743e-05 2.07645e+07)
(9.08382e+07 -1.13918e+07 8.54685e-06 -8.98342e+06 0.000117221 2.45564e+07)
(8.58597e+06 -1.26775e+07 -6.37511e-06 -1.82104e+07 1.35508e-05 -2.88732e+06)
(1.19418e+08 1.16025e+07 0.00027159 8.68153e+06 0.000216006 3.843e+07)
(1.04587e+08 5.49933e+06 -0.000295999 -959347 -0.000160592 3.10884e+07)
(8.93988e+07 -1.18133e+07 -0.000197161 -9.4289e+06 5.30675e-05 2.3991e+07)
(2.1594e+07 -1.85319e+07 -9.6444e-06 -2.41832e+07 2.85822e-05 -776740)
(6.62288e+07 -1.19802e+06 -9.9433e-05 1.7289e+07 -1.85656e-05 2.50553e+07)
(6.72324e+07 -553813 -4.90393e-06 1.29906e+06 -6.20464e-05 2.05594e+07)
(8.47281e+07 -7.39009e+06 -9.03724e-05 1.20271e+06 -7.3845e-05 2.57792e+07)
(6.62489e+07 -1.38852e+07 -5.72592e-05 5.396e+06 4.92144e-06 2.14935e+07)
(5.24835e+07 -1.82734e+07 -0.000146347 -5.55077e+06 -0.000120771 1.40798e+07)
(6.64424e+07 -2.79654e+06 6.20697e-05 2.88391e+06 -2.12898e-05 2.07979e+07)
(6.70679e+07 -1.44256e+06 -1.21431e-05 4.39019e+06 -3.85907e-05 2.14374e+07)
(6.65058e+07 -1.59947e+06 4.32947e-05 1.39822e+07 -8.5432e-06 2.41464e+07)
(6.73045e+07 -2.65399e+06 8.98587e-05 1.51501e+07 -8.5016e-07 2.47364e+07)
(6.58156e+07 -2.73311e+06 -5.02536e-05 1.50918e+07 -4.42145e-05 2.42722e+07)
(6.83202e+07 -2.32313e+06 0.000213811 3.00085e+06 -3.44063e-05 2.13963e+07)
(1.47472e+08 5.25408e+06 0.000755015 1.62696e+07 -9.16334e-05 4.91226e+07)
(1.33544e+08 -2.92078e+06 0.000201038 2.13391e+07 -1.65099e-05 4.64649e+07)
(1.01469e+08 8.00549e+06 0.000400807 1.38968e+07 0.000175257 3.46097e+07)
(1.00291e+08 5.55694e+06 7.81374e-05 1.02335e+07 -4.09128e-05 3.31574e+07)
(6.71885e+07 -4.4604e+06 4.39486e-05 5.38937e+06 3.25396e-05 2.17734e+07)
(4.81255e+07 -1.88334e+06 -1.52489e-05 9.85481e+06 1.15687e-05 1.73941e+07)
(7.08334e+07 -8.6955e+06 -0.00012059 3.49542e+06 -8.74242e-05 2.22987e+07)
(6.94782e+07 -7.62394e+06 -0.000159121 3.31801e+06 -7.99516e-06 2.18389e+07)
(7.90121e+07 -7.53234e+06 2.24413e-05 315581 -5.01135e-05 2.37983e+07)
(6.68784e+07 -320904 3.80171e-05 2.07741e+07 1.03234e-05 2.62957e+07)
(6.71985e+07 -281770 -1.88451e-05 77532.8 -0.000183541 2.01828e+07)
(8.98811e+07 -1.11789e+07 2.50334e-05 -264105 5.71279e-05 2.68851e+07)
(4.25391e+07 -6.51765e+06 -2.65046e-05 7.20953e+06 4.25763e-05 1.49246e+07)
(5.18262e+07 -9.4084e+06 -3.94883e-05 8.37345e+06 3.24747e-05 1.80599e+07)
(6.61212e+07 -1.31914e+06 -1.68602e-05 1.6439e+07 -4.53836e-05 2.47681e+07)
(6.70538e+07 -1.07234e+06 0.000107279 1.46315e+06 -0.000126466 2.05551e+07)
(3.49388e+07 -3.35064e+06 3.17588e-05 5.46996e+06 -3.47416e-06 1.21226e+07)
(7.14656e+07 -1.5604e+07 -4.11697e-05 180694 -5.26297e-06 2.14939e+07)
(1.17954e+08 1.14425e+07 -5.98805e-05 6.25264e+06 -3.83441e-05 3.72619e+07)
(1.94887e+07 -4.38293e+06 6.30505e-07 -1.05325e+06 -2.50359e-06 5.53064e+06)
(1.40137e+07 -5.98038e+06 -6.00148e-06 -2.93763e+07 -6.74641e-05 -4.60879e+06)
(4.58231e+07 -1.04247e+07 -7.2835e-05 6.10759e+06 3.48602e-06 1.55792e+07)
(6.59795e+07 -1.16773e+06 -0.000111903 1.71799e+07 -7.55716e-05 2.49478e+07)
(6.78581e+07 -1.14847e+06 0.000141233 853310 1.31355e-07 2.06134e+07)
(5.87613e+07 -1.3591e+06 1.69769e-05 1.14483e+07 -8.02727e-09 2.10629e+07)
(5.44338e+07 -1.00089e+07 -5.44336e-05 9.68857e+06 2.30674e-06 1.92367e+07)
(8.78776e+07 -2.94514e+06 0.00015013 28395.7 -6.96767e-05 2.63718e+07)
(7.52809e+07 -1.71351e+06 -6.16027e-05 -21900.5 0.000145979 2.25777e+07)
(3.38841e+07 -2.12594e+07 3.78537e-05 -2.16198e+07 -3.87644e-05 3.67929e+06)
(1.1947e+08 1.58972e+06 9.13299e-05 -999665 0.000160055 3.55411e+07)
(5.446e+07 -1.80325e+07 8.45344e-06 -2.26338e+07 1.20526e-05 9.54787e+06)
(8.15898e+07 274570 7.93751e-05 4.03483e+06 7.50068e-05 2.56874e+07)
(9.29536e+07 -1.02517e+07 5.6979e-05 -1.49877e+07 -0.000242108 2.33898e+07)
(1.00894e+08 -1.26839e+07 0.000220922 -1.21236e+07 -0.000239271 2.66311e+07)
(7.78696e+07 -1.07859e+07 -3.96751e-05 1.85925e+06 -6.55025e-06 2.39186e+07)
(1.009e+08 -3.0542e+06 7.77973e-05 -5.44003e+06 3.35569e-05 2.86379e+07)
(6.63621e+07 -7.01345e+06 -1.67201e-05 5.91528e+06 5.74314e-05 2.16832e+07)
(6.88815e+07 -1.39251e+07 -0.000268735 2.3515e+06 -3.41261e-05 2.13699e+07)
(8.51838e+07 -1.21398e+07 -0.000144339 -2.27871e+06 1.53948e-05 2.48715e+07)
(5.89906e+07 -1.60063e+07 6.89119e-05 4.21403e+06 3.58819e-05 1.89614e+07)
(8.40264e+07 -1.47301e+07 4.0399e-06 -3.36644e+06 3.54017e-05 2.4198e+07)
(6.1952e+07 -3.17689e+06 4.94129e-05 1.20698e+07 -3.34474e-05 2.22065e+07)
(6.62558e+07 -2.19096e+06 8.62625e-05 1.44819e+07 -6.65935e-06 2.42213e+07)
(9.198e+07 -6.12373e+06 -7.58942e-06 1.78767e+06 -0.000135086 2.81303e+07)
(8.85591e+07 1.09649e+07 -0.000122254 -2.86307e+06 -0.000130036 2.57088e+07)
(6.31165e+07 -8.21099e+06 -0.000119609 9.61797e+06 -1.92727e-05 2.18203e+07)
(3.58692e+07 -1.65454e+07 7.02897e-06 -5.74107e+06 4.65217e-06 9.03842e+06)
(4.68677e+07 -1.66246e+07 -0.000207903 -2.45129e+07 -0.000111611 6.70645e+06)
(5.25217e+07 -1.80572e+07 -8.10316e-06 -2.71598e+07 5.65411e-06 7.60859e+06)
(2.61053e+07 -1.62643e+07 -3.50281e-06 -5.63404e+06 -2.28142e-05 6.14137e+06)
(9.99456e+07 -4.10261e+06 -0.000292765 -973165 -3.10699e-05 2.96917e+07)
(9.38301e+07 -1.04111e+07 -0.000203116 -2.57257e+06 1.88276e-06 2.73773e+07)
(6.1983e+07 -1.03971e+07 -7.59175e-05 7.98436e+06 -1.78395e-05 2.09902e+07)
(6.39831e+07 -7.53566e+06 -3.28563e-05 9.58744e+06 -1.7733e-06 2.20712e+07)
(7.0875e+07 -1.58398e+06 6.35176e-05 -350921 8.42951e-05 2.11572e+07)
(8.8741e+07 -1.15682e+07 5.70374e-05 -4.63314e+06 5.77554e-05 2.52324e+07)
(6.2204e+07 -1.41761e+06 3.16654e-05 1.29723e+07 -2.661e-05 2.25529e+07)
(6.80975e+07 -6.29563e+06 1.99894e-05 7.68485e+06 1.64077e-05 2.27347e+07)
(3.57108e+07 -1.14946e+07 -0.0002324 -1.36018e+07 -8.9485e-05 6.63272e+06)
(6.83063e+07 -3.40889e+06 3.06379e-05 7.34145e+06 2.00054e-05 2.26943e+07)
(6.64101e+07 -1.85127e+06 -4.05392e-05 4.90036e+06 2.23596e-06 2.13931e+07)
(1.18057e+08 1.44959e+07 -0.000188901 3.34915e+06 8.18139e-05 3.64218e+07)
(6.16434e+07 -2.19395e+07 0.000221844 -1.07531e+07 3.75545e-05 1.52671e+07)
(6.83164e+07 -6.42013e+06 0.000138898 5.12902e+06 5.65966e-05 2.20336e+07)
(6.78493e+07 -8.02789e+06 3.9932e-05 7.41222e+06 4.20906e-05 2.25785e+07)
(3.41628e+07 -2.23677e+07 -2.81159e-05 -1.42079e+07 5.74854e-05 5.98648e+06)
(4.54664e+07 -2.21667e+07 -3.0311e-05 -9.91852e+06 1.79519e-07 1.06644e+07)
(1.11335e+08 5.43935e+06 -0.000361443 -9.44305e+06 0.00013724 3.05676e+07)
(9.65904e+07 -6.16097e+06 0.0002834 -2.21825e+07 -0.000168672 2.23224e+07)
(2.39503e+08 -4.53913e+07 -0.00322212 3.48619e+07 0.000437722 8.23095e+07)
(6.60967e+07 -1.12913e+07 -2.18108e-05 7.46667e+06 3.31234e-05 2.2069e+07)
(5.24958e+07 -2.29978e+07 -3.68262e-05 -2.72702e+07 1.21664e-05 7.56768e+06)
(1.071e+08 3.62438e+06 -0.000129697 -7.01979e+06 -5.42818e-05 3.0024e+07)
(5.44485e+07 -2.30056e+07 -2.15539e-05 -2.27133e+07 2.19568e-05 9.52057e+06)
(2.26022e+07 -1.56625e+07 -7.72953e-06 -1.2208e+07 -9.93192e-06 3.11827e+06)
(1.00805e+08 -4.83469e+06 -6.95657e-05 -637725 -0.000124221 3.00503e+07)
(5.94441e+07 -1.15662e+07 5.45971e-05 9.47622e+06 3.4445e-05 2.06761e+07)
(9.92808e+07 -3.31502e+06 -4.04924e-05 61470.6 7.14806e-05 2.98027e+07)
(5.54577e+07 -1.04489e+07 -4.65406e-05 7.97358e+06 -2.23421e-05 1.90294e+07)
(6.31409e+07 -1.06994e+07 -2.37957e-05 8.69534e+06 -4.11084e-05 2.15509e+07)
(6.3102e+07 -5.81904e+06 -2.14372e-05 1.10676e+07 6.12809e-05 2.22509e+07)
(9.52435e+07 -8.98349e+06 -0.00032025 -1.89054e+06 -9.86449e-05 2.80059e+07)
(5.59598e+07 -1.31713e+06 4.82453e-05 1.06336e+07 -3.46614e-06 1.9978e+07)
(7.83792e+07 -1.97126e+06 -0.000243632 162649 0.000110289 2.35626e+07)
(5.98372e+07 -2.27492e+07 -6.76742e-05 -1.41719e+07 2.12372e-05 1.36996e+07)
(4.95948e+07 -1.95963e+07 1.26101e-06 -7.19158e+06 7.31649e-06 1.2721e+07)
(2.48647e+07 -2.08646e+07 -2.19509e-05 -2.78729e+07 -5.43358e-05 -902474)
(5.31288e+07 -1.37805e+07 1.31939e-05 4.94965e+06 -9.91221e-06 1.74235e+07)
(7.88515e+06 -1.13289e+07 -3.19923e-05 -2.90822e+07 -4.213e-05 -6.35912e+06)
(7.06195e+07 -1.88405e+07 2.4543e-05 -7.2135e+06 0.000114349 1.90218e+07)
(7.84008e+07 -1.55534e+07 -4.80352e-05 -2.77955e+06 8.98178e-05 2.26864e+07)
(2.549e+07 -1.69286e+07 -2.40993e-05 -1.75249e+07 4.76199e-05 2.38953e+06)
(6.76841e+07 -1.90279e+07 1.67901e-05 -2.14704e+06 4.80118e-05 1.96611e+07)
(4.74707e+07 -2.70467e+06 1.25868e-05 1.09825e+07 1.8416e-05 1.7536e+07)
(6.12956e+07 -8.94264e+06 -3.60089e-05 9.34284e+06 -6.23317e-05 2.11915e+07)
(1.03354e+08 5.48143e+06 3.14435e-05 -1.23633e+06 -6.14509e-05 3.06354e+07)
(6.80841e+07 -5.22638e+06 -3.21791e-05 1.71634e+06 5.78897e-05 2.09401e+07)
(5.60471e+07 -8.32979e+06 -3.70363e-05 9.19368e+06 -3.07835e-05 1.95722e+07)
(1.50762e+08 3.23083e+06 1.88728e-05 1.67851e+07 -0.00026821 5.02642e+07)
(1.07687e+08 -3.37451e+06 -0.000171731 431208 4.38026e-05 3.24354e+07)
(1.13283e+07 -1.02727e+07 -2.30251e-05 -2.58655e+07 1.96048e-05 -4.36117e+06)
(6.50098e+07 -9.64855e+06 4.22672e-05 6.17927e+06 -1.92144e-05 2.13567e+07)
(9.70965e+07 -3.03184e+06 -0.000164982 2.14701e+06 -3.44735e-05 2.9773e+07)
(1.06763e+08 6.85639e+06 2.31185e-06 2.21636e+06 -0.000127058 3.26938e+07)
(6.3651e+07 -1.03256e+07 -0.000110035 7.96994e+06 1.83284e-05 2.14863e+07)
(6.74372e+07 -281977 -7.01963e-05 1.98039e+07 -1.11488e-05 2.61723e+07)
(6.65034e+07 -167162 -7.4493e-05 -222790 -5.5753e-06 1.98842e+07)
(4.59738e+07 -2.08014e+06 1.1279e-05 9.50446e+06 9.45922e-06 1.66435e+07)
(5.56979e+07 -1.97921e+07 -6.08554e-05 -1.43777e+06 -6.91512e-06 1.6278e+07)
(8.8723e+07 -9.66451e+06 0.000167458 876151 0.000107776 2.68797e+07)
(9.30587e+07 -2.59763e+06 0.000293162 -97422.1 -7.26832e-05 2.78884e+07)
(9.03217e+07 7.0556e+06 0.000146715 -138818 3.44092e-05 2.70549e+07)
(-209542 -2.74037e+06 -1.0415e-05 -2.19438e+07 7.23074e-06 -6.64599e+06)
(8.83999e+07 1.29947e+07 0.000116781 4.99079e+06 0.000114565 2.80172e+07)
(6.73276e+07 -1.54387e+07 -0.000218482 3.43406e+06 -2.137e-05 2.12285e+07)
(6.64635e+07 -101356 -4.17535e-05 1.79535e+07 -4.80324e-05 2.53251e+07)
(1.73044e+07 -2.70232e+06 -5.7446e-06 -5.91388e+06 -7.8545e-06 3.41714e+06)
(6.57201e+07 -1.28529e+06 -0.000143662 1.65045e+07 -8.85606e-05 2.46674e+07)
(6.64765e+07 -1.57941e+06 -4.60035e-05 1.54862e+07 2.77452e-06 2.45888e+07)
(6.72735e+07 -1.53164e+06 -9.9433e-05 4.6449e+06 -1.73126e-05 2.15755e+07)
(7.73476e+07 -1.30298e+07 -5.58347e-05 3.12029e+06 -1.97033e-05 2.41404e+07)
(1.65557e+08 -5.05197e+07 -0.000302082 3.52887e+07 0.000414487 6.02536e+07)
(6.70458e+07 -133007 0.000181118 -179328 8.28443e-05 2.00599e+07)
(5.63904e+07 -8.58233e+06 -7.1177e-05 9.72757e+06 -1.9307e-05 1.98354e+07)
(9.347e+07 7.00695e+06 0.000136072 -3.48485e+06 -0.000112522 2.69955e+07)
(1.04603e+07 -9.16886e+06 -2.23012e-05 -9.76284e+06 -1.38844e-05 209243)
(6.77124e+07 -723490 2.81392e-05 1.24917e+06 6.81062e-05 2.06885e+07)
(5.37125e+07 -1.33754e+07 -8.19657e-05 6.99759e+06 -7.72077e-06 1.8213e+07)
(6.06389e+07 -1.80827e+07 -1.34508e-05 366159 1.75739e-05 1.83015e+07)
(8.09011e+07 5.18858e+06 0.000123935 2.20678e+06 0.00010986 2.49324e+07)
(6.34079e+07 -4.22591e+06 1.35909e-05 1.19652e+07 3.52981e-06 2.26119e+07)
(1.17114e+07 -4.54258e+06 -3.79704e-05 -3.38669e+07 -8.44498e-05 -6.64664e+06)
(1.17763e+07 4.2022e+06 -6.38445e-05 -4.78426e+07 -3.99699e-05 -1.08199e+07)
(3.27724e+06 -5.06466e+06 2.87464e-05 -2.94477e+07 5.92449e-06 -7.85114e+06)
(6.72631e+07 -4.59368e+06 0.000202696 2.92656e+06 6.49333e-05 2.10569e+07)
(1.86271e+08 -9.88046e+06 0.000362628 2.2757e+07 0.000103683 6.27083e+07)
(1.50163e+07 -6.50328e+06 1.39412e-05 -3.98815e+07 -6.25864e-05 -7.45953e+06)
(7.08265e+07 -1.80552e+07 0.000178667 -4.75367e+06 5.88851e-05 1.98219e+07)
(1.26444e+08 4.24947e+06 0.000372862 4.33537e+06 -9.54515e-05 3.92339e+07)
(5.71526e+07 3.51791e+06 7.50185e-07 2.12897e+06 9.43423e-06 1.77845e+07)
(6.63102e+07 -4.33164e+06 9.59769e-05 1.27818e+07 1.53087e-05 2.37276e+07)
(6.54423e+07 -8.32347e+06 1.56926e-05 7.69028e+06 -6.1302e-05 2.19398e+07)
(1.68742e+08 -1.67663e+07 -0.0029119 -8.79185e+06 -8.39389e-05 4.79849e+07)
(9.94008e+07 1.52348e+07 -0.000121472 2.82825e+06 -3.23776e-05 3.06687e+07)
(9.86888e+07 1.05586e+07 0.000119014 1.41223e+06 0.000179624 3.00303e+07)
(8.83658e+07 -3.48221e+06 0.000101722 -1.33244e+06 -0.000130094 2.611e+07)
(5.86144e+07 -9.38621e+06 -1.07886e-05 8.58646e+06 -9.63104e-05 2.01602e+07)