/*--------------------------------*- C++ -*----------------------------------*\
| =========                 |                                                 |
| \\      /  F ield         | OpenFOAM: The Open Source CFD Toolbox           |
|  \\    /   O peration     | Version:  v2012                                 |
|   \\  /    A nd           | Website:  www.openfoam.com                      |
|    \\/     M anipulation  |                                                 |
\*---------------------------------------------------------------------------*/
FoamFile
{
    version     2.0;
    format      ascii;
    class       volScalarField;
    location    "5";
    object      sigmaHyd;
}
// * * * * * * * * * * * * * * * * * * * * * * * * * * * * * * * * * * * * * //

dimensions      [1 -1 -2 0 0 0 0];


internalField   nonuniform List<scalar> 
470
(
1.41397e+07
2.02299e+07
3.28328e+07
3.413e+07
2.37645e+07
2.98275e+07
2.85053e+07
1.63807e+07
3.97053e+07
3.40633e+07
3.99492e+07
4.44475e+07
4.35363e+07
3.26969e+07
4.70668e+07
3.68501e+07
3.14167e+07
2.92892e+07
2.87314e+07
2.15129e+07
3.91668e+07
3.28977e+07
3.38479e+07
3.10228e+07
3.61282e+07
2.87263e+07
3.50179e+07
3.43053e+07
3.06756e+07
3.11598e+07
2.07112e+07
5.15797e+07
3.28078e+07
5.61486e+07
3.22163e+07
3.07708e+07
4.81421e+07
2.09299e+07
2.59381e+07
2.0036e+07
3.10665e+07
2.66414e+07
4.72452e+07
2.54183e+07
3.74075e+07
4.2093e+07
2.34885e+07
3.21554e+07
3.14765e+07
3.80621e+07
4.8324e+07
5.23266e+07
3.04902e+07
2.68356e+07
3.39974e+07
3.26884e+07
3.49758e+07
2.33941e+07
3.0348e+07
3.6378e+07
2.97675e+07
3.96158e+07
4.31174e+07
4.66871e+07
2.33098e+07
5.86636e+07
2.22027e+07
3.20016e+07
6.23559e+06
3.61035e+07
1.35794e+07
3.28465e+07
5.2064e+07
2.97534e+07
4.84434e+07
3.38955e+07
3.23185e+07
3.20748e+07
3.03317e+07
5.8936e+07
3.1629e+07
6.33125e+07
3.48479e+07
2.76304e+06
3.81649e+07
3.27179e+07
4.28866e+07
4.57938e+07
4.7732e+07
4.27447e+07
4.9454e+07
4.52722e+07
2.961e+07
3.10682e+07
4.58326e+07
4.83804e+07
2.3497e+07
3.06282e+07
2.24057e+07
3.18623e+07
3.2559e+07
3.49946e+07
5.38219e+07
3.34594e+07
3.54227e+07
2.97234e+07
3.20843e+07
2.52082e+07
-1.63918e+07
6.71227e+07
4.49072e+07
6.78908e+07
3.48366e+07
3.02383e+07
1.46035e+07
3.29504e+07
3.34032e+07
4.66652e+07
2.66968e+07
2.14709e+07
2.74468e+07
3.40577e+07
3.05868e+07
3.6743e+07
2.98276e+07
3.29189e+07
3.43415e+07
3.2206e+07
4.86765e+07
3.16821e+07
2.11958e+07
1.88886e+07
2.92057e+07
3.21508e+07
3.26278e+07
3.23697e+07
3.12507e+07
4.12532e+07
4.62755e+07
2.93048e+07
3.06065e+07
3.96351e+07
3.29592e+07
3.07514e+07
3.23824e+07
2.16867e+07
3.56449e+07
3.77809e+07
3.10934e+07
3.9943e+07
2.85237e+07
3.41972e+07
1.59037e+07
3.28307e+07
6.16357e+07
3.58527e+07
-3.66796e+07
2.75499e+07
3.08259e+07
3.19551e+07
7.55178e+07
4.25164e+07
3.28962e+07
4.98353e+07
4.9363e+07
2.13451e+07
1.60794e+07
4.68732e+07
2.96147e+07
2.44211e+07
2.59752e+07
3.176e+07
3.18576e+07
3.181e+07
3.18296e+07
3.0162e+07
3.0471e+07
60028.9
3.32069e+07
2.01422e+07
2.78065e+07
4.01742e+07
3.13251e+07
3.38251e+07
3.72164e+07
4.38578e+07
3.27309e+07
-462186
4.01186e+07
3.16383e+07
3.20817e+07
2.78552e+07
3.50158e+07
3.18512e+07
1.17097e+07
2.76976e+07
3.28201e+07
3.26562e+07
3.2655e+07
1.32686e+08
1.84162e+07
1.05903e+07
8.86478e+07
1.94618e+07
3.50829e+07
3.59423e+07
2.66271e+07
2.63036e+07
2.70235e+07
-5.04054e+07
3.34555e+07
3.22209e+07
-2.54429e+07
2.92371e+07
4.20212e+07
4.05459e+07
3.22515e+07
2.50493e+07
3.05237e+07
2.85834e+07
-1.74948e+07
1.74654e+07
3.07981e+07
3.10056e+07
2.73207e+07
2.99932e+07
3.54704e+07
-4.17057e+06
5.551e+07
4.49055e+07
3.46536e+07
-1.12196e+06
3.6191e+07
2.9697e+07
3.72367e+07
3.10461e+07
2.03375e+07
3.00414e+07
3.09652e+07
3.48781e+07
3.57303e+07
3.50599e+07
3.09058e+07
7.09548e+07
6.7116e+07
4.99918e+07
4.7894e+07
3.14504e+07
2.51248e+07
3.22092e+07
3.1545e+07
3.43753e+07
3.79827e+07
2.91529e+07
3.8834e+07
2.15577e+07
2.60865e+07
3.57761e+07
2.96907e+07
1.75105e+07
3.10467e+07
5.38228e+07
7.98871e+06
-6.65714e+06
2.25033e+07
3.60357e+07
2.97749e+07
3.04242e+07
2.77864e+07
3.80926e+07
3.26122e+07
5.31453e+06
5.13371e+07
1.37914e+07
3.7104e+07
3.37852e+07
3.84672e+07
3.45492e+07
4.13659e+07
3.13202e+07
3.08676e+07
3.59255e+07
2.73887e+07
3.49526e+07
3.20761e+07
3.49863e+07
4.06326e+07
3.71349e+07
3.15183e+07
1.30555e+07
9.68709e+06
1.09902e+07
8.87086e+06
4.28881e+07
3.95449e+07
3.03192e+07
3.18806e+07
3.05604e+07
3.64467e+07
3.25764e+07
3.2839e+07
9.58059e+06
3.27807e+07
3.09012e+07
5.26093e+07
2.20525e+07
3.18263e+07
3.26133e+07
8.64714e+06
1.54041e+07
4.41532e+07
3.22434e+07
1.18891e+08
3.18774e+07
1.09311e+07
4.3368e+07
1.37519e+07
4.50417e+06
4.3406e+07
2.98655e+07
4.30483e+07
2.74869e+07
3.1129e+07
3.21402e+07
4.0453e+07
2.88571e+07
3.40348e+07
1.97883e+07
1.83747e+07
-1.30357e+06
2.51673e+07
-9.18539e+06
2.74759e+07
3.27692e+07
3.45154e+06
2.83994e+07
2.53297e+07
3.061e+07
4.42511e+07
3.02469e+07
2.8271e+07
7.26039e+07
4.68511e+07
-6.29946e+06
3.08486e+07
4.30055e+07
4.72244e+07
3.10357e+07
3.78045e+07
2.87216e+07
2.40406e+07
2.35127e+07
3.88263e+07
4.02832e+07
3.90793e+07
-9.59977e+06
4.04693e+07
3.06634e+07
3.65807e+07
4.93587e+06
3.56307e+07
3.55172e+07
3.11646e+07
3.48694e+07
8.7033e+07
2.89755e+07
2.86511e+07
3.89935e+07
302239
2.98834e+07
2.63077e+07
2.64355e+07
3.60134e+07
3.26617e+07
-9.60071e+06
-1.56287e+07
-1.13405e+07
3.04155e+07
9.05786e+07
-1.07749e+07
2.86316e+07
5.66712e+07
2.56887e+07
3.42732e+07
3.16908e+07
6.93115e+07
4.42993e+07
4.33771e+07
3.77144e+07
2.91204e+07
4.60208e+07
3.07386e+07
3.23737e+07
5.93813e+07
3.21882e+07
3.00682e+07
3.49045e+07
2.94301e+07
4.64434e+07
3.41158e+07
4.33228e+07
9.15212e+07
3.27425e+07
4.33437e+06
4.24228e+07
4.47207e+07
3.88796e+07
3.27937e+07
3.73127e+07
3.82773e+07
2.90221e+07
2.89665e+07
2.84584e+07
3.54838e+07
3.6709e+07
4.38024e+07
3.21142e+07
9.6676e+06
4.58278e+07
9.97865e+06
2.47227e+07
1.36022e+07
3.36597e+07
3.22446e+07
3.41968e+07
7.18872e+07
4.7627e+07
2.05082e+07
3.90287e+07
3.51428e+07
4.11676e+07
3.419e+07
3.49546e+07
3.56963e+07
-1.48713e+07
-2.15972e+07
3.52593e+07
2.89933e+07
3.28217e+07
3.26111e+07
2.67623e+07
4.70224e+07
3.38696e+07
2.81153e+07
3.84863e+07
3.60829e+07
2.79906e+07
3.25515e+07
6.98649e+06
3.08772e+07
3.62709e+07
4.43827e+07
3.96378e+07
3.23936e+07
3.17213e+07
1.06005e+07
3.17003e+07
4.19621e+07
1.97458e+07
1.5053e+07
3.31534e+07
2.62237e+07
1.83751e+07
4.31217e+07
3.88324e+07
4.05266e+07
2.83954e+07
3.02854e+07
3.17178e+07
3.64538e+07
)
;

boundaryField
{
    back
    {
        type            empty;
    }
    front
    {
        type            empty;
    }
    down
    {
        type            zeroGradient;
    }
    right
    {
        type            zeroGradient;
    }
    up
    {
        type            zeroGradient;
    }
    left
    {
        type            zeroGradient;
    }
    hole
    {
        type            zeroGradient;
    }
}


// ************************************************************************* //
