/*--------------------------------*- C++ -*----------------------------------*\
| =========                 |                                                 |
| \\      /  F ield         | OpenFOAM: The Open Source CFD Toolbox           |
|  \\    /   O peration     | Version:  v2012                                 |
|   \\  /    A nd           | Website:  www.openfoam.com                      |
|    \\/     M anipulation  |                                                 |
\*---------------------------------------------------------------------------*/
FoamFile
{
    version     2.0;
    format      ascii;
    class       pointSymmTensorField;
    location    "8";
    object      pEpsilon;
}
// * * * * * * * * * * * * * * * * * * * * * * * * * * * * * * * * * * * * * //

dimensions      [0 0 0 0 0 0 0];


internalField   nonuniform List<symmTensor> 
2142
(
(0.000725659 -0.000103904 0 -0.00218023 0 0)
(0.00120458 -1.80139e-05 0 -0.000110882 0 0)
(0.00138569 2.03657e-06 0 -0.000594241 2.71051e-19 0)
(0.000936241 0.000162035 0 -0.000448734 0 0)
(0.00799996 -0.000557237 0 -0.00554854 4.33681e-18 0)
(0.000322213 -0.000102254 0 -0.000416469 0 0)
(0.00260395 0.000251059 0 -0.000653041 0 0)
(0.00197936 -0.000453539 -1.0842e-18 -0.00125631 0 0)
(0.00254329 1.79702e-05 0 -0.00106511 0 0)
(0.00130891 -3.74624e-05 0 -0.000396365 0 0)
(0.000508487 -0.000649281 0 1.23363e-05 0 0)
(0.000508487 -0.000649281 0 1.23363e-05 0 0)
(0.00197936 -0.000453539 -1.0842e-18 -0.00125631 0 0)
(0.00260395 0.000251059 0 -0.000653041 0 0)
(0.00799996 -0.000557237 0 -0.00554854 4.33681e-18 0)
(0.000725659 -0.000103904 0 -0.00218023 0 0)
(0.000322213 -0.000102254 0 -0.000416469 0 0)
(0.00120458 -1.80139e-05 0 -0.000110882 0 0)
(0.00130891 -3.74624e-05 0 -0.000396365 0 0)
(0.00138569 2.03657e-06 0 -0.000594241 2.71051e-19 0)
(0.00254329 1.79702e-05 0 -0.00106511 0 0)
(0.000936241 0.000162035 0 -0.000448734 0 0)
(0.00257133 0.00021545 5.42101e-19 -0.00080242 0 0)
(0.00263541 0.000346169 -2.71051e-19 -0.000931013 0 0)
(0.00268292 0.000393215 0 -0.00105493 0 0)
(0.002698 0.000375756 0 -0.00115355 0 0)
(0.00267776 0.000312612 5.42101e-19 -0.00122565 0 0)
(0.00262345 0.00021581 0 -0.00127539 0 0)
(0.00253577 9.38777e-05 0 -0.00130514 0 0)
(0.00241514 -4.33565e-05 0 -0.00131518 0 0)
(0.00226571 -0.000175169 0 -0.00130957 0 0)
(0.00174883 -0.000599335 0 -0.00110278 0 0)
(0.00153138 -0.000676095 0 -0.00104551 0 0)
(0.00130257 -0.000712923 0 -0.000950717 0 0)
(0.0010749 -0.000708488 0 -0.00083856 0 0)
(0.00085998 -0.000662826 0 -0.000722219 0 0)
(0.000668804 -0.000578059 0 -0.000612628 0 0)
(0.000511728 -0.000458422 0 -0.000519526 0 0)
(0.000398636 -0.00030995 0 -0.00045192 0 0)
(0.000340501 -0.000138278 0 -0.000418557 1.69407e-20 0)
(0.000621952 -0.000122615 0 -0.00171667 0 0)
(0.000477181 -0.000115528 0 -0.00138938 0 0)
(0.000377723 -0.000113452 0 -0.00113913 0 0)
(0.00031222 -0.000112927 0 -0.00094392 0 0)
(0.00027257 -0.000112419 0 -0.000790227 0 0)
(0.000252557 -0.000111258 0 -0.00066873 0 0)
(0.000247444 -0.000109175 0 -0.000572801 0 0)
(0.000253841 -0.000106135 0 -0.000497919 0 0)
(0.000269886 -0.000102383 0 -0.000441755 0 0)
(0.00037743 -9.17764e-05 0 -0.000316339 0 0)
(0.000424005 -8.70841e-05 0 -0.000225277 0 0)
(0.000490065 -7.71489e-05 0 -0.000176029 0 0)
(0.000562741 -6.70089e-05 0 -0.000152491 0 0)
(0.000636255 -5.80301e-05 0 -0.000145391 0 0)
(0.000707909 -5.04246e-05 0 -0.000148993 0 0)
(0.00077642 -4.40629e-05 0 -0.000159537 0 0)
(0.000841167 -3.87436e-05 0 -0.000174396 0 0)
(0.000901817 -3.42777e-05 0 -0.00019161 0 0)
(0.00095815 -3.05082e-05 0 -0.000209604 0 0)
(0.00100996 -2.73096e-05 0 -0.000227022 0 0)
(0.00105702 -2.45819e-05 0 -0.000242617 0 0)
(0.00109901 -2.22443e-05 0 -0.000255168 0 0)
(0.00113553 -2.02313e-05 0 -0.000263412 0 0)
(0.00116604 -1.84941e-05 0 -0.000265966 0 0)
(0.00118984 -1.70132e-05 0 -0.000261245 0 0)
(0.00120606 -1.58435e-05 0 -0.000247346 0 0)
(0.00121381 -1.52533e-05 0 -0.000221861 0 0)
(0.00121236 -1.61918e-05 0 -0.000181173 0 0)
(0.00120031 -1.76016e-06 0 -0.00010924 1.27055e-20 0)
(0.00120616 -3.04543e-06 0 -0.000122893 -8.47033e-21 0)
(0.00121385 -7.81627e-06 0 -0.000141598 0 0)
(0.00122372 -1.31543e-05 0 -0.00016652 0 0)
(0.00123561 -1.85327e-05 0 -0.000197298 0 0)
(0.00124923 -2.37395e-05 0 -0.000233166 0 0)
(0.00126422 -2.86089e-05 0 -0.000273158 3.38813e-20 0)
(0.00128014 -3.2988e-05 0 -0.000316141 0 0)
(0.00129621 -3.68843e-05 0 -0.000360651 0 0)
(0.0013189 -3.64207e-05 0 -0.000421223 0 0)
(0.00132699 -3.692e-05 0 -0.000440648 0 0)
(0.00133464 -3.65336e-05 0 -0.000459647 0 0)
(0.00134196 -3.55828e-05 0 -0.000478052 0 0)
(0.00134895 -3.42e-05 0 -0.0004957 0 0)
(0.0013556 -3.24436e-05 0 -0.000512439 0 0)
(0.00136186 -3.03428e-05 0 -0.000528117 0 0)
(0.00136767 -2.79169e-05 0 -0.000542593 0 0)
(0.00137301 -2.51848e-05 0 -0.000555728 0 0)
(0.00137781 -2.21708e-05 0 -0.000567394 0 0)
(0.00138202 -1.89098e-05 0 -0.000577471 0 0)
(0.00138559 -1.54527e-05 0 -0.000585856 0 0)
(0.00138846 -1.1873e-05 0 -0.000592467 0 0)
(0.00139058 -8.27595e-06 0 -0.00059725 0 0)
(0.00139189 -4.80974e-06 0 -0.000600192 0 0)
(0.00139231 -1.68e-06 0 -0.000601337 0 0)
(0.00139177 8.3278e-07 0 -0.000600807 0 0)
(0.00139021 2.35664e-06 0 -0.000598842 0 0)
(0.00138763 2.42534e-06 0 -0.000595864 0 0)
(0.00138557 2.23863e-06 0 -0.000595775 0 0)
(0.00138956 -3.02329e-07 0 -0.000600087 0 0)
(0.0014096 -3.47439e-06 0 -0.000610129 0 0)
(0.00144615 -6.59759e-06 0 -0.000626134 0 0)
(0.0014976 -9.50284e-06 0 -0.000647725 0 0)
(0.00156211 -1.22057e-05 0 -0.000674368 0 0)
(0.00163811 -1.47539e-05 0 -0.000705527 0 0)
(0.00172427 -1.71797e-05 0 -0.000740693 0 0)
(0.00181932 -1.94833e-05 0 -0.000779351 0 0)
(0.00192191 -2.16248e-05 0 -0.000820915 0 0)
(0.00203037 -2.35174e-05 0 -0.000864646 5.42101e-19 0)
(0.00214242 -2.50208e-05 0 -0.000909567 0 0)
(0.002255 -2.5935e-05 0 -0.000954369 0 0)
(0.00236395 -2.59943e-05 0 -0.000997321 0 0)
(0.00246383 -2.48641e-05 0 -0.00103619 0 0)
(0.00254768 -2.21432e-05 0 -0.00106819 0 0)
(0.00260694 -1.73713e-05 0 -0.00108994 0 0)
(0.0026314 -1.00264e-05 0 -0.00109752 0 0)
(0.00260862 7.21428e-07 0 -0.00108605 0 0)
(0.00244175 2.98908e-05 0 -0.00102328 0 0)
(0.0023047 3.37155e-05 0 -0.000972645 0 0)
(0.00213773 3.70582e-05 0 -0.000908998 0 0)
(0.00194398 4.02819e-05 0 -0.000833896 0 0)
(0.00173074 4.31817e-05 -2.71051e-19 -0.000750592 0 0)
(0.00150955 4.53955e-05 0 -0.000664154 0 0)
(0.00129658 4.62763e-05 0 -0.00058166 0 0)
(0.00111221 4.48552e-05 -6.77626e-20 -0.000511663 0 0)
(0.00097493 4.05935e-05 -3.38813e-20 -0.00046009 0 0)
(0.00106828 0.000165291 0 -0.000471184 0 0)
(0.00118605 0.000164162 0 -0.000510858 0 0)
(0.00129307 0.000163859 0 -0.000543447 0 0)
(0.00139123 0.000164288 0 -0.000570073 0 0)
(0.00148199 0.000165372 0 -0.000591584 0 0)
(0.00156655 0.000167056 0 -0.000608656 0 0)
(0.00164593 0.000169304 0 -0.00062186 0 0)
(0.00172102 0.000172096 0 -0.000631694 0 0)
(0.00179264 0.000175431 0 -0.000638609 0 0)
(0.00186155 0.000179318 0 -0.000643019 0 0)
(0.00192848 0.000183779 0 -0.000645318 0 0)
(0.00199416 0.000188848 0 -0.000645887 0 0)
(0.00205929 0.000194566 0 -0.000645104 0 0)
(0.00212463 0.000200983 0 -0.000643354 0 0)
(0.00219094 0.000208156 0 -0.00064104 0 0)
(0.00225907 0.000216146 0 -0.000638596 0 0)
(0.00232992 0.000225016 0 -0.000636506 0 0)
(0.00240455 0.000234826 0 -0.000635324 0 0)
(0.00248413 0.000245621 0 -0.000635709 0 0)
(0.00279992 0.000260796 0 -0.000677264 1.0842e-18 0)
(0.00304643 0.000274724 0 -0.000711687 2.1684e-18 0)
(0.00337785 0.000286149 0 -0.000793608 2.1684e-18 0)
(0.00386246 0.000271382 0 -0.00102689 2.1684e-18 0)
(0.00453793 0.000193047 0 -0.00155943 -3.25261e-18 0)
(0.00531557 5.52355e-05 0 -0.00233259 6.50521e-18 0)
(0.00609629 -9.75625e-05 0 -0.00320333 2.60209e-17 0)
(0.0068548 -0.000260328 0 -0.00412974 2.1684e-17 0)
(0.00757039 -0.000431703 0 -0.00507444 1.40946e-17 0)
(0.00191938 -0.00045224 0 -0.00111585 0 0)
(0.00180559 -0.000481711 0 -0.00100948 0 0)
(0.00170818 -0.000516557 0 -0.000912513 0 0)
(0.00162274 -0.000542342 0 -0.000821525 0 0)
(0.00155068 -0.00055522 0 -0.000740353 0 0)
(0.00149258 -0.000555456 0 -0.000671677 0 0)
(0.00144773 -0.000544904 0 -0.000616213 0 0)
(0.00141449 -0.000525835 0 -0.000573176 0 0)
(0.00139077 -0.000500398 0 -0.000540876 0 0)
(0.0013744 -0.000470384 0 -0.000517197 -1.35525e-19 0)
(0.0013633 -0.000437162 0 -0.000499918 1.35525e-19 0)
(0.00135564 -0.00040168 0 -0.000486924 0 0)
(0.00134985 -0.000364493 0 -0.000476323 0 0)
(0.00134467 -0.000325783 0 -0.000466538 0 0)
(0.00133915 -0.00028534 0 -0.000456385 0 0)
(0.0013327 -0.000242498 0 -0.000445165 0 0)
(0.00132514 -0.000195977 0 -0.000432786 0 0)
(0.0013168 -0.000143602 0 -0.000419913 0 0)
(0.00130856 -8.1925e-05 0 -0.000408257 0 0)
(0.00208145 -0.000442431 -1.0842e-18 -0.0014706 0 0)
(0.002155 -0.000356266 0 -0.00144969 0 0)
(0.00221155 -0.000276575 -1.0842e-18 -0.00142746 0 0)
(0.00225541 -0.000202837 0 -0.00140402 0 0)
(0.00228915 -0.000134973 0 -0.00137915 -5.42101e-19 0)
(0.00231455 -7.31379e-05 0 -0.00135271 0 0)
(0.00233305 -1.76071e-05 0 -0.00132471 0 0)
(0.00234594 3.1283e-05 0 -0.00129534 0 0)
(0.00235445 7.31758e-05 0 -0.00126499 0 0)
(0.00235982 0.000107719 0 -0.00123417 0 0)
(0.00236329 0.000134578 0 -0.00120352 0 0)
(0.00236614 0.000153453 0 -0.00117381 0 0)
(0.00236972 0.00016408 0 -0.00114587 0 0)
(0.00237544 0.000166242 0 -0.00112065 0 0)
(0.00238478 0.000159784 0 -0.0010992 0 0)
(0.00239937 0.000144636 0 -0.00108265 0 0)
(0.00242098 0.000120875 0 -0.00107231 0 0)
(0.00245167 8.8884e-05 0 -0.00106964 0 0)
(0.00249403 4.98224e-05 0 -0.0010765 0 0)
(0.00765232 -0.00105799 -3.38813e-17 -0.00513087 2.92735e-17 0)
(0.00694701 -0.00174615 3.57787e-17 -0.00435372 1.95156e-17 0)
(0.00576746 -0.00217214 -4.17418e-17 -0.00311968 -5.42101e-18 0)
(0.00423239 -0.002121 1.0842e-17 -0.00162425 -1.19262e-17 0)
(0.00301681 -0.00179417 5.42101e-18 -0.000760975 -1.0842e-18 0)
(0.00237679 -0.00163766 0 -0.000532358 1.0842e-18 0)
(0.00184104 -0.00151473 0 -0.000278646 0 0)
(0.00131631 -0.00128725 0 -9.04581e-05 0 0)
(0.00086131 -0.000986921 -2.1684e-18 9.65522e-06 1.0842e-18 0)
(0.000272357 -0.000310071 0 -8.14699e-05 0 0)
(0.000152007 4.45496e-07 0 -0.000265633 0 0)
(0.000131183 0.000259755 0 -0.000523255 0 0)
(0.00018873 0.000450506 0 -0.000831842 0 0)
(0.000300294 0.000561452 0 -0.00116448 0 0)
(0.000440014 0.000588392 0 -0.00149167 0 0)
(0.000582528 0.000534925 0 -0.00178388 0 0)
(0.000706049 0.000411836 0 -0.00201577 0 0)
(0.000802375 0.0002258 0 -0.00218299 -6.77626e-20 0)
(0.000755979 -0.000581743 0 -0.000193568 0 0)
(0.00110732 -0.000568568 0 -0.000500521 0 0)
(0.00137494 -0.000544857 0 -0.000727337 0 0)
(0.00157984 -0.000514702 0 -0.000893871 0 0)
(0.00173702 -0.000480525 0 -0.00101403 0 0)
(0.00185726 -0.000443879 0 -0.00109751 0 0)
(0.00194817 -0.000405728 0 -0.00115065 0 0)
(0.00201384 -0.000366357 0 -0.00117599 0 0)
(0.0020516 -0.00032444 0 -0.00116901 0 0)
(0.000755979 -0.000581743 0 -0.000193568 0 0)
(0.00110732 -0.000568568 0 -0.000500521 0 0)
(0.00137494 -0.000544857 0 -0.000727337 0 0)
(0.00157984 -0.000514702 0 -0.000893871 0 0)
(0.00173702 -0.000480525 0 -0.00101403 0 0)
(0.00185726 -0.000443879 0 -0.00109751 0 0)
(0.00194817 -0.000405728 0 -0.00115065 0 0)
(0.00201384 -0.000366357 0 -0.00117599 0 0)
(0.0020516 -0.00032444 0 -0.00116901 0 0)
(0.00226571 -0.000175169 0 -0.00130957 0 0)
(0.00241514 -4.33565e-05 0 -0.00131518 0 0)
(0.00253577 9.38777e-05 0 -0.00130514 0 0)
(0.00262345 0.00021581 0 -0.00127539 0 0)
(0.00267776 0.000312612 5.42101e-19 -0.00122565 0 0)
(0.002698 0.000375756 0 -0.00115355 0 0)
(0.00268292 0.000393215 0 -0.00105493 0 0)
(0.00263541 0.000346169 -2.71051e-19 -0.000931013 0 0)
(0.00257133 0.00021545 5.42101e-19 -0.00080242 0 0)
(0.00279992 0.000260796 0 -0.000677264 1.0842e-18 0)
(0.00304643 0.000274724 0 -0.000711687 2.1684e-18 0)
(0.00337785 0.000286149 0 -0.000793608 2.1684e-18 0)
(0.00386246 0.000271382 0 -0.00102689 2.1684e-18 0)
(0.00453793 0.000193047 0 -0.00155943 -3.25261e-18 0)
(0.00531557 5.52355e-05 0 -0.00233259 6.50521e-18 0)
(0.00609629 -9.75625e-05 0 -0.00320333 2.60209e-17 0)
(0.0068548 -0.000260328 0 -0.00412974 2.1684e-17 0)
(0.00757039 -0.000431703 0 -0.00507444 1.40946e-17 0)
(0.00765232 -0.00105799 -3.38813e-17 -0.00513087 2.92735e-17 0)
(0.00694701 -0.00174615 3.57787e-17 -0.00435372 1.95156e-17 0)
(0.00576746 -0.00217214 -4.17418e-17 -0.00311968 -5.42101e-18 0)
(0.00423239 -0.002121 1.0842e-17 -0.00162425 -1.19262e-17 0)
(0.00301681 -0.00179417 5.42101e-18 -0.000760975 -1.0842e-18 0)
(0.00237679 -0.00163766 0 -0.000532358 1.0842e-18 0)
(0.00184104 -0.00151473 0 -0.000278646 0 0)
(0.00131631 -0.00128725 0 -9.04581e-05 0 0)
(0.00086131 -0.000986921 -2.1684e-18 9.65522e-06 1.0842e-18 0)
(0.000272357 -0.000310071 0 -8.14699e-05 0 0)
(0.000152007 4.45496e-07 0 -0.000265633 0 0)
(0.000131183 0.000259755 0 -0.000523255 0 0)
(0.00018873 0.000450506 0 -0.000831842 0 0)
(0.000300294 0.000561452 0 -0.00116448 0 0)
(0.000440014 0.000588392 0 -0.00149167 0 0)
(0.000582528 0.000534925 0 -0.00178388 0 0)
(0.000706049 0.000411836 0 -0.00201577 0 0)
(0.000802375 0.0002258 0 -0.00218299 -6.77626e-20 0)
(0.000621952 -0.000122615 0 -0.00171667 0 0)
(0.000477181 -0.000115528 0 -0.00138938 0 0)
(0.000377723 -0.000113452 0 -0.00113913 0 0)
(0.00031222 -0.000112927 0 -0.00094392 0 0)
(0.00027257 -0.000112419 0 -0.000790227 0 0)
(0.000252557 -0.000111258 0 -0.00066873 0 0)
(0.000247444 -0.000109175 0 -0.000572801 0 0)
(0.000253841 -0.000106135 0 -0.000497919 0 0)
(0.000269886 -0.000102383 0 -0.000441755 0 0)
(0.000340501 -0.000138278 0 -0.000418557 1.69407e-20 0)
(0.000398636 -0.00030995 0 -0.00045192 0 0)
(0.000511728 -0.000458422 0 -0.000519526 0 0)
(0.000668804 -0.000578059 0 -0.000612628 0 0)
(0.00085998 -0.000662826 0 -0.000722219 0 0)
(0.0010749 -0.000708488 0 -0.00083856 0 0)
(0.00130257 -0.000712923 0 -0.000950717 0 0)
(0.00153138 -0.000676095 0 -0.00104551 0 0)
(0.00174883 -0.000599335 0 -0.00110278 0 0)
(0.00037743 -9.17764e-05 0 -0.000316339 0 0)
(0.000424005 -8.70841e-05 0 -0.000225277 0 0)
(0.000490065 -7.71489e-05 0 -0.000176029 0 0)
(0.000562741 -6.70089e-05 0 -0.000152491 0 0)
(0.000636255 -5.80301e-05 0 -0.000145391 0 0)
(0.000707909 -5.04246e-05 0 -0.000148993 0 0)
(0.00077642 -4.40629e-05 0 -0.000159537 0 0)
(0.000841167 -3.87436e-05 0 -0.000174396 0 0)
(0.000901817 -3.42777e-05 0 -0.00019161 0 0)
(0.00095815 -3.05082e-05 0 -0.000209604 0 0)
(0.00100996 -2.73096e-05 0 -0.000227022 0 0)
(0.00105702 -2.45819e-05 0 -0.000242617 0 0)
(0.00109901 -2.22443e-05 0 -0.000255168 0 0)
(0.00113553 -2.02313e-05 0 -0.000263412 0 0)
(0.00116604 -1.84941e-05 0 -0.000265966 0 0)
(0.00118984 -1.70132e-05 0 -0.000261245 0 0)
(0.00120606 -1.58435e-05 0 -0.000247346 0 0)
(0.00121381 -1.52533e-05 0 -0.000221861 0 0)
(0.00121236 -1.61918e-05 0 -0.000181173 0 0)
(0.00120031 -1.76016e-06 0 -0.00010924 1.27055e-20 0)
(0.00120616 -3.04543e-06 0 -0.000122893 -8.47033e-21 0)
(0.00121385 -7.81627e-06 0 -0.000141598 0 0)
(0.00122372 -1.31543e-05 0 -0.00016652 0 0)
(0.00123561 -1.85327e-05 0 -0.000197298 0 0)
(0.00124923 -2.37395e-05 0 -0.000233166 0 0)
(0.00126422 -2.86089e-05 0 -0.000273158 3.38813e-20 0)
(0.00128014 -3.2988e-05 0 -0.000316141 0 0)
(0.00129621 -3.68843e-05 0 -0.000360651 0 0)
(0.00130856 -8.1925e-05 0 -0.000408257 0 0)
(0.0013168 -0.000143602 0 -0.000419913 0 0)
(0.00132514 -0.000195977 0 -0.000432786 0 0)
(0.0013327 -0.000242498 0 -0.000445165 0 0)
(0.00133915 -0.00028534 0 -0.000456385 0 0)
(0.00134467 -0.000325783 0 -0.000466538 0 0)
(0.00134985 -0.000364493 0 -0.000476323 0 0)
(0.00135564 -0.00040168 0 -0.000486924 0 0)
(0.0013633 -0.000437162 0 -0.000499918 1.35525e-19 0)
(0.0013744 -0.000470384 0 -0.000517197 -1.35525e-19 0)
(0.00139077 -0.000500398 0 -0.000540876 0 0)
(0.00141449 -0.000525835 0 -0.000573176 0 0)
(0.00144773 -0.000544904 0 -0.000616213 0 0)
(0.00149258 -0.000555456 0 -0.000671677 0 0)
(0.00155068 -0.00055522 0 -0.000740353 0 0)
(0.00162274 -0.000542342 0 -0.000821525 0 0)
(0.00170818 -0.000516557 0 -0.000912513 0 0)
(0.00180559 -0.000481711 0 -0.00100948 0 0)
(0.00191938 -0.00045224 0 -0.00111585 0 0)
(0.0013189 -3.64207e-05 0 -0.000421223 0 0)
(0.00132699 -3.692e-05 0 -0.000440648 0 0)
(0.00133464 -3.65336e-05 0 -0.000459647 0 0)
(0.00134196 -3.55828e-05 0 -0.000478052 0 0)
(0.00134895 -3.42e-05 0 -0.0004957 0 0)
(0.0013556 -3.24436e-05 0 -0.000512439 0 0)
(0.00136186 -3.03428e-05 0 -0.000528117 0 0)
(0.00136767 -2.79169e-05 0 -0.000542593 0 0)
(0.00137301 -2.51848e-05 0 -0.000555728 0 0)
(0.00137781 -2.21708e-05 0 -0.000567394 0 0)
(0.00138202 -1.89098e-05 0 -0.000577471 0 0)
(0.00138559 -1.54527e-05 0 -0.000585856 0 0)
(0.00138846 -1.1873e-05 0 -0.000592467 0 0)
(0.00139058 -8.27595e-06 0 -0.00059725 0 0)
(0.00139189 -4.80974e-06 0 -0.000600192 0 0)
(0.00139231 -1.68e-06 0 -0.000601337 0 0)
(0.00139177 8.3278e-07 0 -0.000600807 0 0)
(0.00139021 2.35664e-06 0 -0.000598842 0 0)
(0.00138763 2.42534e-06 0 -0.000595864 0 0)
(0.00138557 2.23863e-06 0 -0.000595775 0 0)
(0.00138956 -3.02329e-07 0 -0.000600087 0 0)
(0.0014096 -3.47439e-06 0 -0.000610129 0 0)
(0.00144615 -6.59759e-06 0 -0.000626134 0 0)
(0.0014976 -9.50284e-06 0 -0.000647725 0 0)
(0.00156211 -1.22057e-05 0 -0.000674368 0 0)
(0.00163811 -1.47539e-05 0 -0.000705527 0 0)
(0.00172427 -1.71797e-05 0 -0.000740693 0 0)
(0.00181932 -1.94833e-05 0 -0.000779351 0 0)
(0.00192191 -2.16248e-05 0 -0.000820915 0 0)
(0.00203037 -2.35174e-05 0 -0.000864646 5.42101e-19 0)
(0.00214242 -2.50208e-05 0 -0.000909567 0 0)
(0.002255 -2.5935e-05 0 -0.000954369 0 0)
(0.00236395 -2.59943e-05 0 -0.000997321 0 0)
(0.00246383 -2.48641e-05 0 -0.00103619 0 0)
(0.00254768 -2.21432e-05 0 -0.00106819 0 0)
(0.00260694 -1.73713e-05 0 -0.00108994 0 0)
(0.0026314 -1.00264e-05 0 -0.00109752 0 0)
(0.00260862 7.21428e-07 0 -0.00108605 0 0)
(0.00249403 4.98224e-05 0 -0.0010765 0 0)
(0.00245167 8.8884e-05 0 -0.00106964 0 0)
(0.00242098 0.000120875 0 -0.00107231 0 0)
(0.00239937 0.000144636 0 -0.00108265 0 0)
(0.00238478 0.000159784 0 -0.0010992 0 0)
(0.00237544 0.000166242 0 -0.00112065 0 0)
(0.00236972 0.00016408 0 -0.00114587 0 0)
(0.00236614 0.000153453 0 -0.00117381 0 0)
(0.00236329 0.000134578 0 -0.00120352 0 0)
(0.00235982 0.000107719 0 -0.00123417 0 0)
(0.00235445 7.31758e-05 0 -0.00126499 0 0)
(0.00234594 3.1283e-05 0 -0.00129534 0 0)
(0.00233305 -1.76071e-05 0 -0.00132471 0 0)
(0.00231455 -7.31379e-05 0 -0.00135271 0 0)
(0.00228915 -0.000134973 0 -0.00137915 -5.42101e-19 0)
(0.00225541 -0.000202837 0 -0.00140402 0 0)
(0.00221155 -0.000276575 -1.0842e-18 -0.00142746 0 0)
(0.002155 -0.000356266 0 -0.00144969 0 0)
(0.00208145 -0.000442431 -1.0842e-18 -0.0014706 0 0)
(0.00244175 2.98908e-05 0 -0.00102328 0 0)
(0.0023047 3.37155e-05 0 -0.000972645 0 0)
(0.00213773 3.70582e-05 0 -0.000908998 0 0)
(0.00194398 4.02819e-05 0 -0.000833896 0 0)
(0.00173074 4.31817e-05 -2.71051e-19 -0.000750592 0 0)
(0.00150955 4.53955e-05 0 -0.000664154 0 0)
(0.00129658 4.62763e-05 0 -0.00058166 0 0)
(0.00111221 4.48552e-05 -6.77626e-20 -0.000511663 0 0)
(0.00097493 4.05935e-05 -3.38813e-20 -0.00046009 0 0)
(0.00106828 0.000165291 0 -0.000471184 0 0)
(0.00118605 0.000164162 0 -0.000510858 0 0)
(0.00129307 0.000163859 0 -0.000543447 0 0)
(0.00139123 0.000164288 0 -0.000570073 0 0)
(0.00148199 0.000165372 0 -0.000591584 0 0)
(0.00156655 0.000167056 0 -0.000608656 0 0)
(0.00164593 0.000169304 0 -0.00062186 0 0)
(0.00172102 0.000172096 0 -0.000631694 0 0)
(0.00179264 0.000175431 0 -0.000638609 0 0)
(0.00186155 0.000179318 0 -0.000643019 0 0)
(0.00192848 0.000183779 0 -0.000645318 0 0)
(0.00199416 0.000188848 0 -0.000645887 0 0)
(0.00205929 0.000194566 0 -0.000645104 0 0)
(0.00212463 0.000200983 0 -0.000643354 0 0)
(0.00219094 0.000208156 0 -0.00064104 0 0)
(0.00225907 0.000216146 0 -0.000638596 0 0)
(0.00232992 0.000225016 0 -0.000636506 0 0)
(0.00240455 0.000234826 0 -0.000635324 0 0)
(0.00248413 0.000245621 0 -0.000635709 0 0)
(0.00699056 -0.00100475 -5.42101e-18 -0.00452544 1.84314e-17 0)
(0.00619187 -0.000826168 3.14419e-17 -0.00359109 0 0)
(0.00538288 -0.000629891 1.6263e-18 -0.00269237 -2.1684e-18 0)
(0.00459333 -0.000431557 1.6263e-17 -0.00187272 -5.42101e-18 0)
(0.00394089 -0.000226735 2.84603e-18 -0.00128361 -3.25261e-18 0)
(0.0035011 -2.83153e-05 -2.71051e-19 -0.00101526 -1.0842e-18 0)
(0.00319276 0.000109079 1.35525e-19 -0.000910678 -1.0842e-18 0)
(0.00294183 0.000178567 5.42101e-19 -0.000839103 0 0)
(0.0027355 0.000215296 8.13152e-19 -0.000793748 -1.0842e-18 0)
(0.0061332 -0.00154236 6.28837e-17 -0.0036947 8.67362e-18 0)
(0.00523387 -0.00119707 5.74627e-17 -0.00269567 -1.0842e-18 0)
(0.0044189 -0.000860031 2.33103e-17 -0.00184805 5.42101e-18 0)
(0.00385457 -0.000548112 7.04731e-18 -0.0013272 5.42101e-18 0)
(0.00356298 -0.000259411 2.43945e-18 -0.00115031 2.1684e-18 0)
(0.00335993 -2.09569e-05 1.0842e-18 -0.00109627 1.0842e-18 0)
(0.00315129 0.000143027 0 -0.00103383 0 0)
(0.00295774 0.000251688 -2.71051e-19 -0.000978185 0 0)
(0.00278463 0.000322869 2.71051e-19 -0.000933885 0 0)
(0.00484874 -0.00173275 -2.1684e-18 -0.00249421 -2.27682e-17 0)
(0.00401492 -0.00122717 -4.93312e-17 -0.00162027 -6.50521e-18 0)
(0.00356943 -0.000836751 -8.13152e-18 -0.00122036 -5.42101e-18 0)
(0.00343178 -0.000525736 -1.6263e-18 -0.0011768 -1.0842e-18 0)
(0.00334044 -0.000262882 0 -0.00118353 -1.0842e-18 0)
(0.00321782 -4.41692e-05 5.42101e-19 -0.00116569 -1.0842e-18 0)
(0.00308104 0.000126607 -5.42101e-19 -0.00113466 0 0)
(0.00294267 0.000254929 0 -0.00109931 0 0)
(0.00280923 0.00034904 5.42101e-19 -0.00106457 0 0)
(0.00352276 -0.00158208 -1.73472e-17 -0.00131758 -4.33681e-18 0)
(0.00321429 -0.00111819 -1.02999e-17 -0.00104908 -5.42101e-18 0)
(0.00319001 -0.00080026 -6.50521e-18 -0.00110458 -3.25261e-18 0)
(0.00316925 -0.000530556 -1.6263e-18 -0.0011555 -3.25261e-18 0)
(0.00312547 -0.000291253 -5.42101e-19 -0.00118727 -2.1684e-18 0)
(0.00306004 -8.73859e-05 0 -0.0011996 -1.0842e-18 0)
(0.00297929 8.00655e-05 -5.42101e-19 -0.00119659 -1.0842e-18 0)
(0.00288988 0.000213684 0 -0.00118313 0 0)
(0.00279683 0.000317757 -5.42101e-19 -0.00116309 0 0)
(0.00278865 -0.00144149 -2.1684e-18 -0.00080738 1.0842e-18 0)
(0.00284087 -0.00109362 -4.33681e-18 -0.000924269 0 0)
(0.0028813 -0.000798093 -2.1684e-18 -0.00102652 -1.0842e-18 0)
(0.00290422 -0.00054385 -1.0842e-18 -0.00110895 -1.0842e-18 0)
(0.00290632 -0.000324905 -5.42101e-19 -0.00116954 -1.0842e-18 0)
(0.0028882 -0.000138614 -5.42101e-19 -0.00120901 -1.0842e-18 0)
(0.00285322 1.72113e-05 -5.42101e-19 -0.00123016 0 0)
(0.00280565 0.00014522 0 -0.00123659 -1.0842e-18 0)
(0.00274951 0.000248405 0 -0.00123175 0 0)
(0.00234219 -0.00138937 -1.0842e-18 -0.000612754 1.0842e-18 0)
(0.00246567 -0.00105533 -1.0842e-18 -0.000791569 0 0)
(0.00256501 -0.000781524 -1.0842e-18 -0.000939933 0 0)
(0.00263732 -0.000552784 -1.0842e-18 -0.00105693 0 0)
(0.00268351 -0.000359565 0 -0.00114491 0 0)
(0.00270622 -0.00019607 -1.0842e-18 -0.00120716 0 0)
(0.00270911 -5.83938e-05 0 -0.00124748 0 0)
(0.0026962 5.65144e-05 0 -0.00126976 0 0)
(0.00267137 0.000151251 0 -0.00127765 0 0)
(0.00187829 -0.00126839 0 -0.000419394 0 0)
(0.0020889 -0.000978835 -1.0842e-18 -0.000668691 0 0)
(0.00225059 -0.000746828 0 -0.000861988 0 0)
(0.00237121 -0.00055573 0 -0.00100978 0 0)
(0.00245739 -0.000395604 0 -0.00112018 -1.0842e-18 0)
(0.00251487 -0.000260279 0 -0.00119969 -1.0842e-18 0)
(0.00254875 -0.000145661 0 -0.0012538 0 0)
(0.00256371 -4.87649e-05 0 -0.00128726 0 0)
(0.00256409 3.27451e-05 0 -0.00130434 0 0)
(0.00144084 -0.00108026 0 -0.00027607 0 0)
(0.00172779 -0.000867637 0 -0.00057593 0 0)
(0.00194392 -0.000695551 0 -0.000801072 1.0842e-18 0)
(0.0021061 -0.000552603 0 -0.000969958 0 0)
(0.00222599 -0.000431802 0 -0.00109513 0 0)
(0.0023121 -0.000328718 0 -0.00118562 0 0)
(0.002371 -0.000240354 0 -0.00124827 0 0)
(0.00240799 -0.000164418 0 -0.00128859 0 0)
(0.00242788 -9.88845e-05 0 -0.00131154 0 0)
(0.00106024 -0.000843609 0 -0.000198683 0 0)
(0.00139658 -0.000727812 0 -0.000518893 0 0)
(0.00165017 -0.000627636 0 -0.000756662 0 0)
(0.00184224 -0.000539781 0 -0.000933462 0 0)
(0.00198731 -0.000462014 0 -0.00106397 0 0)
(0.00209568 -0.000392896 0 -0.00115863 0 0)
(0.00217475 -0.000331432 0 -0.00122513 0 0)
(0.00222987 -0.000276606 0 -0.00126939 0 0)
(0.00226541 -0.000226643 0 -0.001297 0 0)
(0.000539145 -0.000321134 0 -0.00026462 0 0)
(0.000871448 -0.000406515 0 -0.000530075 0 0)
(0.00112712 -0.000459488 0 -0.000725884 0 0)
(0.00132378 -0.00049 0 -0.000868315 0 0)
(0.00147441 -0.000505062 0 -0.000969296 0 0)
(0.00158865 -0.000510043 0 -0.00103756 0 0)
(0.00167392 -0.000509792 0 -0.00107964 0 0)
(0.0017371 -0.000510351 0 -0.00110118 0 0)
(0.00178888 -0.000523409 0 -0.00111048 0 0)
(0.000414536 -8.23099e-05 0 -0.000408068 0 0)
(0.000703432 -0.000251902 0 -0.000610021 0 0)
(0.00092975 -0.000371992 0 -0.000758613 0 0)
(0.00110727 -0.0004565 0 -0.000866117 0 0)
(0.00124663 -0.000515677 0 -0.000941989 0 0)
(0.00135628 -0.000557327 0 -0.000993711 0 0)
(0.0014433 -0.00058759 0 -0.00102768 0 0)
(0.0015142 -0.000610895 0 -0.00105023 2.71051e-19 0)
(0.00157459 -0.000627031 0 -0.00106833 0 0)
(0.000370153 0.00011736 0 -0.000609755 0 0)
(0.000596465 -0.000115285 0 -0.000731302 0 0)
(0.000778108 -0.000286133 0 -0.000819263 0 0)
(0.000924503 -0.000411512 0 -0.000881493 0 0)
(0.00104314 -0.000503453 0 -0.000924224 0 0)
(0.0011401 -0.000570769 0 -0.000952563 0 0)
(0.00122038 -0.000619653 0 -0.000970854 0 0)
(0.001288 -0.000653876 0 -0.000982734 0 0)
(0.0013457 -0.000675579 0 -0.000990426 0 0)
(0.000389158 0.000264335 0 -0.000850544 0 0)
(0.000540024 -6.14039e-06 0 -0.000880756 0 0)
(0.000666284 -0.000207773 0 -0.000899153 2.71051e-19 0)
(0.000772548 -0.000358058 0 -0.00090865 0 0)
(0.00086262 -0.000469797 0 -0.000911643 0 0)
(0.000939649 -0.000552298 0 -0.000910135 0 0)
(0.00100619 -0.000612239 0 -0.000905735 0 0)
(0.00106417 -0.000654417 0 -0.00089954 0 0)
(0.00111496 -0.000682421 0 -0.000892158 0 0)
(0.000451789 0.00035022 0 -0.00110798 0 0)
(0.000521338 6.91525e-05 0 -0.00104289 0 0)
(0.000587024 -0.000141935 0 -0.000988269 0 0)
(0.000648386 -0.000300447 0 -0.000941745 0 0)
(0.000705408 -0.000419079 0 -0.000901676 0 0)
(0.000758306 -0.000507158 0 -0.000866923 0 0)
(0.000807347 -0.000571602 0 -0.000836612 0 0)
(0.000852747 -0.000617597 0 -0.000809977 0 0)
(0.000894658 -0.000649074 0 -0.00078632 1.35525e-19 0)
(0.000537353 0.000372507 0 -0.00135844 0 0)
(0.000527284 0.000107919 0 -0.00120195 0 0)
(0.000532977 -9.18189e-05 0 -0.00107683 0 0)
(0.000549153 -0.000242443 0 -0.000975582 1.35525e-19 0)
(0.000572387 -0.000355494 0 -0.000892981 0 0)
(0.000600289 -0.000439685 0 -0.000825218 0 0)
(0.000631057 -0.000501639 0 -0.000769263 0 0)
(0.000663296 -0.000546359 0 -0.000722645 0 0)
(0.00069592 -0.0005776 0 -0.000683338 0 0)
(0.000626062 0.000334662 0 -0.0015796 0 0)
(0.000545428 0.000110693 0 -0.00134368 0 0)
(0.000496542 -5.90438e-05 0 -0.0011556 0 0)
(0.00047132 -0.000186645 0 -0.00100484 1.35525e-19 0)
(0.000463812 -0.000282033 0 -0.00088405 0 0)
(0.000469195 -0.000353043 0 -0.000787043 0 0)
(0.000483691 -0.000405568 0 -0.00070872 0 0)
(0.000504369 -0.000443972 0 -0.000644954 0 0)
(0.000528924 -0.000471425 0 -0.000592376 0 0)
(0.000700679 0.00024387 0 -0.00175418 0 0)
(0.000561124 7.86571e-05 0 -0.00145398 -1.35525e-19 0)
(0.000467102 -4.32173e-05 0 -0.00121271 0 0)
(0.000409628 -0.000132829 0 -0.00102258 0 0)
(0.000379038 -0.000199346 0 -0.000872639 0 0)
(0.000367892 -0.000248983 0 -0.000753858 0 0)
(0.000370717 -0.00028612 0 -0.000659244 0 0)
(0.000383428 -0.000314009 0 -0.000583349 0 0)
(0.000402803 -0.000335073 0 -0.000521701 0 0)
(0.000727216 0.000100632 0 -0.00185951 -6.77626e-20 0)
(0.000547182 2.03435e-05 0 -0.001504 -6.77626e-20 0)
(0.000432061 -3.37788e-05 0 -0.00123344 -3.38813e-20 0)
(0.000360258 -7.4094e-05 0 -0.00102338 -3.38813e-20 0)
(0.000319002 -0.000104786 0 -0.000858489 0 0)
(0.00029985 -0.000128171 0 -0.000728217 0 0)
(0.000296945 -0.000146021 0 -0.00062491 0 0)
(0.000306113 -0.000160061 0 -0.000542851 1.69407e-20 0)
(0.000324258 -0.000172564 0 -0.000477538 0 0)
(0.000399119 -0.000153873 0 -0.00029821 0 0)
(0.000467201 -0.000303656 0 -0.000340971 0 0)
(0.000581908 -0.000435932 0 -0.000412889 0 0)
(0.000734765 -0.000541645 0 -0.000507466 0 0)
(0.000917058 -0.000614911 0 -0.000617473 0 0)
(0.00111938 -0.000652139 0 -0.000735032 0 0)
(0.00133177 -0.000651918 2.1684e-18 -0.000851795 0 0)
(0.0015441 -0.000614788 0 -0.000959139 0 0)
(0.00174656 -0.00054242 0 -0.0010478 0 0)
(0.000455404 -0.00015248 0 -0.000223427 0 0)
(0.000517217 -0.000294034 0 -0.000266618 0 0)
(0.000617623 -0.00042057 0 -0.000335352 0 0)
(0.000751189 -0.000524057 0 -0.000425165 0 0)
(0.000911143 -0.000598899 0 -0.000530224 6.77626e-20 0)
(0.00108976 -0.000641496 0 -0.000643821 0 0)
(0.0012786 -0.000650165 0 -0.000758645 1.35525e-19 0)
(0.00146874 -0.000625012 0 -0.000866968 0 0)
(0.00165082 -0.000567495 0 -0.000960466 0 0)
(0.000520898 -0.000143046 0 -0.000181572 0 0)
(0.000574206 -0.000275069 0 -0.000220602 1.69407e-20 0)
(0.000659507 -0.000394412 0 -0.000281803 3.38813e-20 0)
(0.000773242 -0.0004946 0 -0.000362004 6.77626e-20 0)
(0.000910452 -0.000570705 0 -0.000456774 6.77626e-20 0)
(0.00106521 -0.000619322 0 -0.000560831 0 0)
(0.00123086 -0.00063859 0 -0.000668283 1.35525e-19 0)
(0.00140016 -0.000628156 0 -0.000772797 0 0)
(0.00156539 -0.000588958 0 -0.000867548 0 0)
(0.000590197 -0.000131185 0 -0.00016141 -8.47033e-21 0)
(0.000634974 -0.000253047 0 -0.000195034 0 0)
(0.000706315 -0.000364412 0 -0.000247646 0 0)
(0.000801808 -0.000460165 0 -0.00031696 0 0)
(0.000917912 -0.000536139 0 -0.000399699 0 0)
(0.00105025 -0.000589278 0 -0.00049186 0 0)
(0.00119377 -0.000617711 0 -0.000588898 1.35525e-19 0)
(0.00134289 -0.000620778 0 -0.000685854 0 0)
(0.00149152 -0.000598956 0 -0.000777374 0 0)
(0.000659939 -0.000119184 0 -0.000155728 0 0)
(0.000697087 -0.000230964 0 -0.000184074 0 0)
(0.000756318 -0.000334153 0 -0.000228534 1.69407e-20 0)
(0.000835946 -0.000424691 0 -0.000287435 0 0)
(0.000933466 -0.000499133 0 -0.000358371 0 0)