/*--------------------------------*- C++ -*----------------------------------*\
| =========                 |                                                 |
| \\      /  F ield         | OpenFOAM: The Open Source CFD Toolbox           |
|  \\    /   O peration     | Version:  v2012                                 |
|   \\  /    A nd           | Website:  www.openfoam.com                      |
|    \\/     M anipulation  |                                                 |
\*---------------------------------------------------------------------------*/
FoamFile
{
    version     2.0;
    format      ascii;
    class       volSymmTensorField;
    location    "3";
    object      sigma;
}
// * * * * * * * * * * * * * * * * * * * * * * * * * * * * * * * * * * * * * //

dimensions      [1 -1 -2 0 0 0 0];


internalField   nonuniform List<symmTensor> 
7666
(
(1.17928e+07 -2.61376e+06 -1.91488e-09 -625682 -1.77951e-10 3.61427e+06)
(3.34132e+07 -7.7147e+06 6.69972e-09 4.47583e+06 1.18894e-09 1.16221e+07)
(1.14924e+08 -2.13458e+07 -2.37063e-08 1.2776e+07 -9.29634e-09 3.7371e+07)
(3.87518e+07 -9.9959e+06 -2.74462e-09 2.12357e+06 -5.54661e-09 1.22627e+07)
(5.46046e+07 -6.45423e+06 2.42956e-10 -8.0912e+06 1.42181e-10 1.3911e+07)
(6.42096e+07 996757 4.85363e-09 -3.46256e+06 4.05908e-09 1.79161e+07)
(4.01393e+07 -1.32118e+06 1.99431e-08 5.06509e+06 6.02773e-09 1.35614e+07)
(4.09037e+07 -9.12278e+06 -9.94174e-10 2.41789e+06 7.3011e-10 1.28128e+07)
(7.13024e+07 364270 -1.21004e-08 -72937.6 -8.95049e-09 2.1146e+07)
(3.99091e+07 -2.69136e+06 -1.08723e-09 6.7048e+06 -4.35716e-10 1.39277e+07)
(2.87624e+07 -9.29183e+06 0 2.27993e+06 0 9.19363e+06)
(4.22229e+07 -3.85927e+06 -5.17945e-09 1.75242e+06 4.10357e-09 1.31164e+07)
(3.9999e+07 -9.23985e+06 -5.19737e-09 2.59941e+06 1.49939e-09 1.25725e+07)
(3.7274e+07 -7.82632e+06 -3.63911e-09 4.19872e+06 -1.20855e-09 1.25451e+07)
(4.01143e+07 -926274 0 6.99593e+06 0 1.40569e+07)
(5.99273e+07 -8.96274e+06 2.93415e-08 -7.03761e+06 1.57766e-08 1.68651e+07)
(4.02356e+07 -9.16067e+06 1.28115e-08 2.5202e+06 1.42743e-09 1.30001e+07)
(6.91311e+07 -1.25975e+06 -7.02106e-10 -311780 -5.7215e-09 2.04923e+07)
(4.3911e+07 -5.76365e+06 7.07523e-09 1.56493e+06 2.73429e-09 1.35716e+07)
(3.61082e+07 -5.17782e+06 -4.20599e-09 5.91784e+06 5.77341e-10 1.27503e+07)
(3.03344e+07 -2.17904e+06 8.01858e-09 6.44567e+06 -5.11622e-10 1.09837e+07)
(5.26934e+07 -6.72534e+06 1.23299e-08 -64949.4 -3.88103e-09 1.56362e+07)
(3.84388e+07 -7.94749e+06 -3.1798e-09 3.81844e+06 1.23833e-09 1.27866e+07)
(3.6051e+07 -1.08761e+07 7.63846e-09 972363 1.10791e-09 1.09715e+07)
(6.46742e+07 2.86518e+06 8.34873e-10 -6.51093e+06 1.76518e-09 1.72856e+07)
(4.00276e+07 -1.1757e+06 -9.728e-09 7.22183e+06 -4.58766e-09 1.421e+07)
(6.46227e+07 3.05408e+06 -3.70739e-09 -6.37465e+06 -1.97613e-09 1.76032e+07)
(2.12762e+07 -1.04285e+07 7.12582e-10 -1.00825e+06 -2.62381e-10 6.11181e+06)
(3.99139e+07 -9.12985e+06 1.87453e-09 2.58906e+06 5.27185e-10 1.28799e+07)
(4.05188e+07 -482662 -1.99734e-09 436268 3.97332e-09 1.22595e+07)
(4.14306e+07 -622965 -8.06912e-10 112201 -9.81403e-11 1.23913e+07)
(6.77025e+07 -1.43499e+06 -1.48052e-08 -108368 -7.75626e-09 2.04152e+07)
(1.0846e+07 -8.3597e+06 -1.94337e-09 -7.39255e+06 -1.46842e-09 993466)
(4.06174e+07 -1.63048e+06 -1.54069e-08 1.8007e+06 -3.89876e-09 1.26461e+07)
(3.80852e+06 -7.25771e+06 1.4568e-08 -1.6376e+07 6.57482e-09 -3.53487e+06)
(3.36875e+07 -5.69345e+06 2.89555e-09 5.68094e+06 1.29516e-09 1.16917e+07)
(3.32576e+07 -5.39087e+06 -6.18898e-09 5.84587e+06 -4.77342e-10 1.17708e+07)
(4.13545e+07 -1.36918e+06 1.81619e-08 656880 1.09493e-08 1.25052e+07)
(6.29458e+07 -2.77319e+06 -2.93768e-08 -1.51882e+06 -1.83177e-08 1.82073e+07)
(3.96379e+07 -3.62096e+06 4.15266e-09 6.13391e+06 1.11427e-09 1.37595e+07)
(3.25371e+07 -1.30276e+07 1.22183e-08 -1.63187e+07 1.29451e-08 4.80498e+06)
(8.19397e+07 6.31967e+06 7.4609e-09 8.16992e+06 3.43708e-09 2.66075e+07)
(7.72163e+07 1.86828e+06 -1.07939e-08 1.21785e+07 -4.56473e-09 2.68702e+07)
(2.68884e+07 -1.17589e+07 -1.65996e-08 -1.96293e+06 -5.03505e-09 7.38506e+06)
(6.699e+07 4.87015e+06 -6.264e-10 6.66783e+06 2.56129e-09 2.22639e+07)
(4.01097e+07 -1.21068e+06 9.77996e-09 5.80414e+06 1.75247e-09 1.36362e+07)
(6.71425e+07 1.2666e+06 -2.51437e-08 -1.55809e+06 -1.78573e-08 1.97896e+07)
(3.23443e+07 -1.29343e+07 4.83154e-09 -1.52515e+07 2.28714e-09 5.44131e+06)
(4.28039e+07 -1.23197e+07 -6.67123e-09 -1.30743e+07 -4.93651e-09 9.2343e+06)
(2.26531e+07 -2.71974e+06 -3.95431e-10 4.88452e+06 -1.71474e-09 8.52533e+06)
(2.08465e+07 -9.91818e+06 4.34994e-09 -1.59802e+06 1.47409e-09 5.66257e+06)
(5.26292e+07 -4.07802e+06 -9.41987e-10 268286 -3.48313e-09 1.56905e+07)
(4.01174e+07 -786221 -2.04814e-09 4.22222e+06 5.01135e-10 1.33913e+07)
(7.13758e+07 731271 -1.47694e-08 -51057.2 -1.08891e-08 2.14905e+07)
(2.7379e+07 -1.17668e+06 2.34947e-09 6.22545e+06 9.26218e-10 1.02421e+07)
(6.13377e+07 -1.01098e+07 2.90918e-09 -6.37385e+06 5.22894e-09 1.58508e+07)
(2.30838e+07 -3.62232e+06 1.69313e-09 4.74609e+06 1.3053e-09 8.49845e+06)
(2.35106e+07 -3.05337e+06 -1.97993e-09 4.83666e+06 -1.58187e-10 8.24295e+06)
(6.62968e+07 938033 1.31124e-08 -9.79564e+06 8.65875e-09 1.70244e+07)
(6.45321e+07 809499 -4.96374e-09 -3.42444e+06 -3.64207e-09 1.85103e+07)
(2.68958e+07 -5.40712e+06 -5.03227e-09 4.98305e+06 2.57576e-11 9.65692e+06)
(4.11163e+07 -1.16696e+06 -6.99263e-09 571391 3.95461e-09 1.2584e+07)
(3.81803e+07 -9.07049e+06 -6.08446e-10 3.14855e+06 2.18112e-09 1.24812e+07)
(3.86885e+07 -9.03775e+06 3.53123e-09 3.0852e+06 -1.11253e-09 1.23808e+07)
(2.28131e+07 -4.8572e+06 -4.44594e-09 4.02853e+06 -2.92175e-10 7.94362e+06)
(4.3664e+07 -1.16927e+07 -1.09886e-08 -1.13985e+07 -5.53882e-09 9.65202e+06)
(3.89034e+07 -2.8274e+06 -1.08655e-08 7.70622e+06 -2.809e-09 1.38602e+07)
(2.29112e+07 -4.32291e+06 -9.16222e-10 4.35507e+06 -6.98569e-10 8.31647e+06)
(6.71706e+07 -3.96208e+06 -1.66259e-08 -7.75912e+06 -1.08576e-08 1.80885e+07)
(6.56285e+07 1.49209e+06 0 -9.31279e+06 0 1.6754e+07)
(6.94306e+07 -2.40531e+06 5.96482e-09 -7.71961e+06 7.31135e-10 1.83268e+07)
(4.00061e+07 -547238 -1.05261e-09 1.14419e+07 -2.53987e-09 1.55042e+07)
(3.98492e+07 -543849 -9.95638e-09 1.15253e+07 -1.78447e-09 1.53826e+07)
(4.02442e+07 -270701 -4.75925e-10 374656 -9.5001e-10 1.21837e+07)
(4.03203e+07 -297946 -4.17792e-10 309892 -8.60552e-10 1.21799e+07)
(4.00953e+07 -116858 -3.21273e-10 4.65996e+06 9.31205e-10 1.34181e+07)
(5.494e+07 4.06134e+06 1.84183e-08 3.73629e+06 9.48147e-09 1.77441e+07)
(3.67573e+07 -8.32006e+06 -1.13707e-08 3.91171e+06 -7.07085e-10 1.23476e+07)
(3.73529e+07 -8.34154e+06 0 3.77124e+06 0 1.22163e+07)
(2.77412e+07 -5.83026e+06 3.49885e-09 4.90913e+06 1.469e-10 9.69626e+06)
(4.0324e+07 -3.01358e+06 -7.36744e-09 4.1081e+06 -7.35159e-10 1.33955e+07)
(3.98157e+07 -1.38512e+06 8.823e-09 9.69178e+06 1.04966e-09 1.48514e+07)
(3.32429e+07 -1.3219e+07 3.02082e-09 -4.84984e+06 1.10449e-09 8.51419e+06)
(7.68895e+07 2.62586e+06 1.27147e-08 1.03999e+07 3.87088e-09 2.61616e+07)
(4.36067e+07 -3.10598e+06 -8.8214e-09 754441 1.20353e-09 1.31346e+07)
(5.0635e+07 -1.26296e+06 7.39041e-09 -105337 -3.40271e-09 1.53631e+07)
(5.08123e+07 -1.43838e+06 -5.12952e-09 114738 -9.97083e-09 1.5032e+07)
(5.35316e+07 -5.38779e+06 -1.50316e-08 135843 -2.4706e-09 1.62683e+07)
(3.98966e+07 -1.27326e+07 1.47403e-08 -1.35791e+07 5.84741e-09 7.49697e+06)
(4.10689e+07 -844839 -5.17114e-09 349597 4.83735e-10 1.23786e+07)
(3.99554e+07 -6.07884e+06 -1.06205e-09 4.13776e+06 -3.21795e-10 1.32185e+07)
(3.99583e+07 -5.95772e+06 3.53519e-09 4.17343e+06 -2.70233e-09 1.32866e+07)
(5.43492e+07 -169787 -1.74319e-08 114571 -1.41927e-09 1.63045e+07)
(7.26743e+07 3.48038e+06 -5.02329e-08 -5.11813e+06 -4.27222e-08 2.05716e+07)
(6.47834e+07 250563 1.85739e-08 -106369 5.62722e-09 1.93329e+07)
(5.15577e+07 -8.70095e+06 -1.70174e-08 -1.36585e+07 -1.20852e-08 1.16601e+07)
(-716927 -4.41572e+06 -4.65565e-09 -2.43439e+07 -4.59103e-09 -7.79485e+06)
(1.19278e+08 -2.3815e+07 -1.87977e-08 1.1073e+07 -7.03155e-09 3.93135e+07)
(4.39595e+07 -5.57135e+06 7.4748e-09 1.48255e+06 2.15305e-09 1.36459e+07)
(3.61935e+07 -4.92031e+06 -3.59473e-09 6.05776e+06 -2.61397e-09 1.26263e+07)
(5.48255e+07 -679789 4.86787e-09 42464.9 -6.27378e-09 1.63332e+07)
(4.05096e+07 -414347 -6.87861e-09 327997 -4.70712e-10 1.22192e+07)
(1.5111e+07 -1.01493e+07 -9.5511e-10 -4.82157e+06 -3.59922e-10 3.35435e+06)
(8.91151e+07 2.2393e+06 -1.47774e-08 6.56047e+06 -9.51908e-09 2.87229e+07)
(2.01907e+07 -1.27322e+07 -1.6367e-08 -1.13302e+07 -5.68657e-09 2.58025e+06)
(6.18951e+07 -3.85233e+06 6.29903e-09 -1.44884e+06 1.77417e-09 1.81835e+07)
(7.5234e+07 5.52862e+06 -1.69233e-08 9.39185e+06 -1.27414e-08 2.57386e+07)
(5.47359e+07 -6.76675e+06 -3.08696e-09 -4.94684e+06 -1.94728e-09 1.52397e+07)
(4.00884e+07 -1.25179e+06 7.34333e-09 5.12065e+06 1.44907e-09 1.35903e+07)
(5.32049e+07 -3.16072e+06 -5.23492e-09 159610 5.20384e-09 1.57461e+07)
(3.62545e+07 -9.24334e+06 3.44993e-09 3.16792e+06 3.66972e-09 1.17652e+07)
(5.101e+07 -8.50295e+06 1.85353e-09 -3.6275e+06 1.19245e-09 1.40511e+07)
(3.13811e+07 -9.019e+06 4.27348e-09 3.32955e+06 -4.39087e-10 1.05516e+07)
(2.70919e+07 -5.11002e+06 -1.38068e-09 5.17875e+06 1.64064e-09 9.44149e+06)
(2.71007e+07 -9.21532e+06 1.11548e-08 2.10912e+06 1.66139e-09 8.50775e+06)
(5.78756e+07 -4.43738e+06 -1.34931e-08 -7.55663e+06 -8.51098e-09 1.49595e+07)
(2.28602e+07 -9.67799e+06 -1.2737e-09 83846 -8.47294e-10 6.85345e+06)
(2.97498e+06 -5.90921e+06 -4.37685e-10 -2.41451e+07 -2.76317e-10 -6.42805e+06)
(4.1882e+07 -1.95018e+06 1.07509e-09 758401 -8.38527e-11 1.27903e+07)
(4.19902e+07 -2.10761e+06 6.067e-10 787633 2.84082e-09 1.28374e+07)
(6.8651e+07 82444 5.83341e-09 -494512 3.34836e-09 2.04172e+07)
(4.01358e+07 -198643 -9.62952e-09 425380 -4.18262e-09 1.22147e+07)
(4.13622e+07 -4.26662e+06 2.25125e-09 2.6555e+06 -4.15915e-09 1.32844e+07)
(4.00187e+07 -1.61018e+06 1.17076e-08 7.24371e+06 2.36827e-09 1.42045e+07)
(3.5354e+07 -1.10136e+07 -1.46584e-09 1.00867e+06 -2.93076e-10 1.10342e+07)
(2.2691e+07 -236560 -3.12787e-09 4.97447e+06 -3.08298e-10 8.30148e+06)
(5.47939e+07 -6.761e+06 9.98155e-09 -4.47747e+06 4.27015e-09 1.4767e+07)
(4.87186e+07 -9.32711e+06 -9.76045e-09 -1.5271e+06 -3.26339e-09 1.42101e+07)
(3.96553e+07 -1.16776e+07 -1.00988e-08 -1.56154e+06 -6.28107e-09 1.14463e+07)
(4.03847e+07 -7.36203e+06 0 3.37781e+06 0 1.31693e+07)
(6.08933e+07 -1.11502e+07 -1.19461e-08 -2.8929e+06 -1.27013e-08 1.733e+07)
(4.66422e+07 -4.14359e+06 -5.69291e-10 463885 2.84961e-09 1.42165e+07)
(3.39212e+07 -3.31698e+06 -2.28264e-09 6.61801e+06 9.83716e-10 1.20945e+07)
(5.36649e+07 1.34345e+06 -1.35764e-08 3.71735e+06 -5.53336e-09 1.72798e+07)
(4.1447e+07 -4.14727e+06 -3.40505e-09 2.62323e+06 -4.00441e-10 1.31609e+07)
(6.15478e+07 -3.51988e+06 -8.60009e-09 -949893 -1.77684e-09 1.82636e+07)
(4.02663e+07 -2.89891e+06 -1.01469e-09 4.34244e+06 -1.87599e-09 1.33667e+07)
(3.98367e+07 -3.54228e+06 5.30427e-09 5.95861e+06 1.61085e-09 1.37076e+07)
(3.85737e+07 -6.84517e+06 6.91493e-09 4.48846e+06 2.31799e-09 1.28595e+07)
(3.52638e+07 -1.04824e+07 -5.8629e-09 1.89729e+06 6.29254e-10 1.11024e+07)
(4.00144e+07 -1.14968e+07 -9.08696e-09 -1.553e+06 -3.35231e-09 1.16339e+07)
(3.98964e+07 -1.16569e+06 5.47182e-09 1.00308e+07 1.49404e-09 1.49923e+07)
(3.82381e+07 -798032 3.99163e-09 8.56535e+06 -6.40645e-10 1.40388e+07)
(3.83513e+07 -575117 5.06879e-09 8.76169e+06 5.98644e-10 1.41635e+07)
(3.86882e+07 -3.01926e+06 4.15811e-09 7.54238e+06 2.53203e-09 1.39526e+07)
(3.85572e+07 -5.07469e+06 2.53439e-09 5.70533e+06 3.77739e-09 1.32696e+07)
(4.0074e+07 -1.67365e+06 -6.82508e-09 5.41725e+06 -1.96412e-09 1.35759e+07)
(4.0022e+07 -939936 3.63805e-10 1.03611e+07 1.15343e-09 1.50225e+07)
(1.33352e+07 -4.5498e+06 2.39537e-09 -1.11271e+06 3.7165e-10 3.4627e+06)
(4.24735e+07 -7.63869e+06 -2.77691e-09 2.44897e+06 2.46055e-09 1.33008e+07)
(3.99386e+07 -2.60057e+06 -1.62531e-08 6.65251e+06 -1.10803e-09 1.40652e+07)
(4.05667e+07 -1.24195e+07 5.49084e-09 -1.44637e+07 -1.16492e-09 8.28749e+06)
(2.76028e+07 -6.13056e+06 -3.96703e-09 4.79106e+06 -8.94307e-10 9.90161e+06)
(2.81454e+07 -1.34293e+07 1.08554e-08 -1.51693e+07 1.15489e-08 4.27911e+06)
(3.70249e+07 -3.15384e+06 -5.42529e-09 7.11567e+06 -7.86024e-10 1.33079e+07)
(3.72365e+07 -2.87729e+06 4.16907e-09 7.23802e+06 -1.1766e-09 1.33086e+07)
(3.18367e+07 -1.31918e+07 -1.0027e-08 -1.55607e+07 -6.48989e-09 4.52293e+06)
(4.24165e+07 -1.12481e+07 -4.74391e-09 -2.79274e+06 -2.61038e-10 1.19987e+07)
(3.7541e+07 -1.09326e+07 -1.73466e-09 916934 -1.80867e-09 1.17084e+07)
(4.02633e+07 -1.33785e+06 -7.86157e-09 2.47564e+06 -2.74865e-09 1.29285e+07)
(8.00136e+07 6.6389e+06 -1.08419e-09 3.11287e+06 -8.63291e-10 2.47437e+07)
(4.93663e+07 415928 0 -441372 0 1.46674e+07)
(5.18265e+07 -7.25683e+06 -5.61316e-09 -130059 -1.16985e-09 1.56903e+07)
(7.84838e+07 5.59653e+06 -6.18848e-09 9.20737e+06 -7.69253e-10 2.57536e+07)
(9.39853e+07 -2.48759e+06 -4.20191e-08 9.03772e+06 -2.5002e-08 3.17808e+07)
(9.31741e+07 -360345 -2.90189e-08 7.81342e+06 -1.79927e-08 2.98439e+07)
(3.79937e+07 -1.07498e+07 1.20903e-08 980582 2.58828e-09 1.16532e+07)
(2.1999e+07 -3.2328e+06 -5.22904e-09 4.34247e+06 -1.20149e-09 8.0138e+06)
(2.29943e+07 -3.93242e+06 -1.96181e-09 4.47521e+06 5.51533e-10 8.00369e+06)
(7.73488e+07 7.02342e+06 3.26128e-08 3.25783e+06 2.63473e-08 2.44861e+07)
(3.25441e+07 -8.3415e+06 0 3.99871e+06 0 1.11092e+07)
(2.62155e+07 -9.14784e+06 -6.44729e-09 2.14437e+06 -1.59937e-10 8.72138e+06)
(4.95754e+07 -7.07772e+06 9.35935e-09 545259 -1.77881e-10 1.49482e+07)
(4.76479e+07 -3.30907e+06 6.36367e-10 324427 5.92454e-09 1.42452e+07)
(4.0775e+07 -1.19873e+07 3.35328e-08 -1.5216e+07 1.4394e-08 7.37089e+06)
(2.7245e+07 -1.4805e+06 -5.20067e-09 6.04771e+06 -5.21215e-10 9.93016e+06)
(5.19454e+07 -8.13564e+06 3.07323e-09 -2.4659e+06 -2.9097e-09 1.45978e+07)
(6.05646e+07 361610 8.39142e-09 68662.9 5.42743e-09 1.82092e+07)
(4.27961e+07 -1.28863e+06 6.0652e-09 151627 -6.35905e-10 1.2845e+07)
(3.90813e+07 -9.91073e+06 -4.15795e-09 2.0439e+06 -5.101e-09 1.23704e+07)
(5.08607e+07 -7.75764e+06 8.56594e-09 -42689.7 -1.16832e-09 1.50955e+07)
(-3.76917e+06 -983078 6.92952e-09 -3.06266e+07 1.20533e-08 -1.0584e+07)
(4.84884e+07 -6.31796e+06 -7.75073e-09 647759 2.06645e-09 1.47947e+07)
(625778 -4.05825e+06 1.25434e-08 -2.44229e+07 1.32305e-08 -6.83828e+06)
(4.31862e+07 -1.20473e+07 1.5057e-08 -1.1666e+07 8.13595e-09 9.31204e+06)
(5.41971e+07 -8.43158e+06 -1.68499e-08 -1.40552e+07 -7.84124e-09 1.1769e+07)
(3.97252e+07 -286239 -7.23079e-09 1.13678e+07 -1.44318e-09 1.53143e+07)
(4.01063e+07 -67951.6 -5.88209e-09 48657.8 -2.53418e-09 1.2043e+07)
(6.48215e+07 302879 1.00182e-08 -1.00985e+07 6.38172e-09 1.66326e+07)
(4.0562e+07 -2.20033e+06 7.37579e-10 2.66729e+06 4.38125e-09 1.28836e+07)
(3.30266e+07 -8.43798e+06 0 3.93056e+06 0 1.10666e+07)
(3.94672e+07 -4.74448e+06 -3.98992e-09 5.46251e+06 2.46216e-09 1.33803e+07)
(3.92944e+07 -4.78926e+06 4.88121e-09 5.47757e+06 -6.50926e-10 1.35364e+07)
(3.85109e+07 -6.46015e+06 -8.0512e-09 4.79544e+06 -3.23929e-09 1.28649e+07)
(5.35649e+07 -7.30142e+06 -1.02377e-08 -5.90549e+06 -5.74502e-09 1.39291e+07)
(6.25045e+07 7.37259e+06 -2.85775e-08 -1.17099e+06 -2.51204e-08 1.8419e+07)
(3.53827e+07 -8.15039e+06 -6.25528e-09 4.13793e+06 4.48128e-10 1.18624e+07)
(4.00904e+07 -507377 0 4.35018e+06 0 1.33198e+07)
(4.01412e+07 -1.5305e+06 5.3529e-09 5.48332e+06 1.40981e-09 1.37543e+07)
(-1.4501e+06 5.66928e+06 -5.68448e-09 -3.95793e+07 -8.76936e-10 -1.26206e+07)
(5.25727e+07 -8.19887e+06 9.84337e-09 -2.56713e+06 3.69622e-09 1.50436e+07)
(2.25763e+07 -9.65855e+06 0 74643.8 0 6.7448e+06)
(4.26012e+07 -1.41834e+06 0 241492 0 1.28565e+07)
(6.23149e+07 -3.34003e+06 -6.71712e-10 -1.01889e+06 2.59941e-09 1.83084e+07)
(3.39504e+07 -2.30839e+06 0 6.85766e+06 0 1.21458e+07)
(7.17852e+07 8.84846e+06 -6.40541e-09 3.0393e+06 -5.23121e-09 2.26475e+07)
(3.77016e+07 -3.51162e+06 -1.56553e-10 7.00453e+06 3.47546e-10 1.35068e+07)
(2.154e+07 -1.14726e+07 -1.3031e-09 -1.71139e+07 1.3144e-08 1.28805e+06)
(2.28e+07 -8.87586e+06 -3.33827e-09 1.40523e+06 -1.04613e-09 7.35764e+06)
(6.03003e+06 -7.85113e+06 -1.3216e-08 -1.63274e+07 -5.18036e-09 -2.96051e+06)
(6.56777e+07 7.22965e+06 1.4862e-08 -3.79909e+06 1.13446e-08 1.87214e+07)
(2.31325e+07 -8.18398e+06 5.20498e-09 1.76125e+06 -2.19882e-11 7.36651e+06)
(3.81002e+07 -623332 3.26632e-09 8.44048e+06 3.38247e-09 1.39765e+07)
(3.96083e+07 -1.57083e+06 1.91902e-09 9.37906e+06 1.21812e-09 1.47024e+07)
(3.98716e+07 -1.05631e+06 4.49163e-09 1.04134e+07 1.27368e-09 1.50405e+07)
(2.66153e+07 -7.72758e+06 -4.6476e-09 3.41902e+06 -2.2303e-11 9.06245e+06)
(3.5382e+07 -9.02641e+06 -6.18987e-09 3.39404e+06 -4.30576e-09 1.16682e+07)
(6.63691e+07 1.13734e+06 2.13014e-08 -1.53461e+06 1.51834e-08 1.92445e+07)
(2.66106e+07 -7.35693e+06 3.49051e-09 3.75581e+06 2.05709e-09 8.75407e+06)
(5.72061e+07 -1.48518e+06 -4.89891e-09 -126975 -4.37926e-09 1.69098e+07)
(6.58741e+07 8.92638e+06 -2.5616e-09 3.59979e+06 -3.36643e-09 2.08177e+07)
(7.77129e+07 7.39235e+06 -1.68436e-08 6.49541e+06 -1.25462e-08 2.54859e+07)
(4.11426e+07 -441974 -9.94171e-09 63998.2 -3.47581e-09 1.24309e+07)
(3.84708e+07 -489689 -5.13393e-09 8.78296e+06 -3.34335e-10 1.4123e+07)
(4.85366e+07 -4.08636e+06 -2.67828e-08 377725 -2.75234e-09 1.46911e+07)
(4.41971e+07 -1.07581e+07 -7.56916e-09 -1.5337e+06 -5.22337e-09 1.2663e+07)
(6.9651e+07 8.02237e+06 1.98411e-08 6.33463e+06 1.6865e-08 2.25319e+07)
(5.549e+07 3.44896e+06 4.52129e-09 4.60748e+06 4.80631e-09 1.82619e+07)
(3.04342e+07 -450583 6.24659e-09 6.61506e+06 1.71244e-09 1.1091e+07)
(3.89683e+07 -1.0505e+07 -8.36988e-11 1.2442e+06 1.61783e-09 1.19365e+07)
(3.83645e+07 -1.06586e+07 5.4969e-09 1.33123e+06 2.06287e-10 1.19167e+07)
(4.08129e+07 -2.2883e+06 1.24733e-09 2.05098e+06 5.04613e-09 1.29443e+07)
(3.78036e+07 -1.28644e+07 1.6255e-08 -1.33976e+07 8.82655e-09 7.42862e+06)
(4.79653e+07 -9.99388e+06 -1.28237e-08 -1.33696e+07 -1.19298e-08 1.08698e+07)
(3.98767e+07 -141359 7.5126e-09 1.19491e+07 1.42598e-09 1.55125e+07)
(4.00129e+07 -6744.88 4.48477e-09 16166.1 3.18205e-09 1.20186e+07)
(6.89495e+07 6.32637e+06 8.66039e-09 7.33178e+06 5.17434e-09 2.26211e+07)
(5.26698e+07 -3.95783e+06 0 202152 0 1.59197e+07)
(583010 -4.0398e+06 -2.11326e-08 -2.49102e+07 -1.67551e-08 -6.92432e+06)
(4.06871e+07 -1.70321e+06 8.50865e-09 1.67972e+06 -1.90644e-09 1.2774e+07)
(3.80052e+07 -1.82322e+06 -1.08181e-09 7.99695e+06 9.14426e-10 1.377e+07)
(4.64209e+07 -8.55099e+06 9.68686e-09 825858 9.60594e-09 1.4037e+07)
(3.77117e+07 -9.34573e+06 1.58683e-08 2.93729e+06 2.41249e-09 1.23071e+07)
(2.23059e+07 -6.30985e+06 -5.12602e-09 3.0845e+06 -1.11334e-09 7.83935e+06)
(3.21728e+07 -9.1907e+06 5.02869e-09 3.23286e+06 -4.95991e-10 1.04664e+07)
(3.09995e+07 -8.02474e+06 6.86252e-09 4.11279e+06 -1.3051e-10 1.05859e+07)
(-3.18894e+06 4.07021e+06 -2.59864e-10 -4.65988e+07 -5.24569e-10 -1.50616e+07)
(3.13067e+07 -8.84385e+06 6.45144e-09 3.39745e+06 1.46504e-09 1.04009e+07)
(8.26987e+07 3.27182e+06 1.72608e-08 4.08252e+06 1.40167e-08 2.61166e+07)
(5.27863e+07 -7.79932e+06 -1.11926e-08 -3.58672e+06 -5.69216e-09 1.45306e+07)
(5.1699e+07 -8.50111e+06 -1.11676e-08 -3.76513e+06 -5.76402e-09 1.46821e+07)
(2.86178e+07 -6.77881e+06 -7.54004e-09 4.64629e+06 5.75501e-10 9.95024e+06)
(5.82869e+07 -4.03068e+06 5.18001e-10 -7.41899e+06 3.25478e-10 1.52164e+07)
(4.71157e+07 -3.57764e+06 -1.76041e-08 282238 -7.80192e-09 1.43771e+07)
(3.96526e+07 -301971 1.19906e-08 1.06373e+07 -1.99078e-09 1.51118e+07)
(4.01807e+07 -86031.9 -1.53874e-09 65716.3 -5.47798e-10 1.20765e+07)
(5.51872e+07 2.49326e+06 -1.15469e-08 4.28629e+06 -2.65559e-09 1.80434e+07)
(5.23528e+07 -6.36807e+06 -1.55758e-08 98076.7 -1.62065e-09 1.59335e+07)
(5.3337e+07 -7.41936e+06 -1.37052e-10 -5.42197e+06 -8.5112e-10 1.46659e+07)
(1.26987e+07 -8.2665e+06 1.51342e-08 -1.95992e+07 5.04653e-09 -2.58308e+06)
(3.9248e+07 -1.27103e+07 -5.46953e-09 -7.53447e+06 -2.47382e-09 9.77539e+06)
(6.30483e+07 596518 9.32486e-09 -7.76375e+06 6.4949e-09 1.67699e+07)
(6.20716e+07 -3.40981e+06 -1.20669e-08 -1.66944e+06 -9.11405e-09 1.82064e+07)
(5.37653e+07 -5.55861e+06 6.47081e-09 -3840.32 9.96085e-09 1.60238e+07)
(4.00306e+07 -1.84845e+06 5.35166e-09 6.46466e+06 2.56981e-10 1.40705e+07)
(-3.1399e+06 1.66731e+06 3.74607e-09 -4.72987e+07 3.4139e-09 -1.5645e+07)
(3.61999e+07 -9.49577e+06 7.88227e-09 2.96375e+06 3.69696e-10 1.18169e+07)
(6.15407e+07 -2.28837e+06 -2.57923e-09 -3.76935e+06 -1.35915e-09 1.71279e+07)
(8.49097e+07 -386208 -6.44154e-09 1.33875e+07 -3.77706e-09 2.96519e+07)
(7.12349e+06 -3.25574e+06 3.43377e-09 -6.5639e+06 3.19784e-09 -9174.96)
(4.01098e+07 -480468 -5.92608e-09 4.88158e+06 -1.50276e-09 1.35673e+07)
(4.01522e+07 -1.16165e+06 -2.55586e-09 5.84423e+06 5.33704e-10 1.3852e+07)
(4.09838e+07 -2.32394e+06 -6.99599e-09 1.79279e+06 -1.98754e-09 1.29287e+07)
(5.23507e+07 -3.57134e+06 -2.19812e-09 218415 -3.31064e-09 1.59203e+07)
(5.99223e+06 -4.19705e+06 0 -6.65339e+06 0 -53039.9)
(3.12995e+07 -8.52051e+06 7.23678e-09 3.74391e+06 2.91522e-09 1.06003e+07)
(5.7746e+07 7.47264e+06 8.49342e-09 2.06024e+06 7.45009e-09 1.82604e+07)
(5.56168e+07 7.30431e+06 1.35581e-08 406453 1.54418e-08 1.72008e+07)
(4.43102e+07 -1.09972e+07 1.14919e-09 -3.72452e+06 1.79834e-09 1.18962e+07)
(4.41879e+07 -1.10832e+07 1.68991e-10 -3.37398e+06 1.56179e-09 1.25318e+07)
(4.01187e+07 -970116 -7.59062e-09 4.13376e+06 -2.68609e-09 1.31934e+07)
(6.38339e+07 -2.52945e+06 4.13325e-09 -219811 7.71466e-09 1.88576e+07)
(3.29705e+07 -1.04352e+07 -1.98224e-08 1.73269e+06 -4.96763e-09 1.06358e+07)
(4.07225e+07 -1.0382e+06 1.37367e-09 798942 4.18376e-09 1.25242e+07)
(2.32177e+07 -1.23772e+07 1.16696e-08 -4.4156e+06 3.73653e-09 5.70437e+06)
(2.37674e+07 -1.32922e+07 5.64096e-09 -1.1133e+07 2.516e-09 3.47411e+06)
(5.27802e+07 -6.6202e+06 1.14823e-08 -76319.1 -1.61277e-09 1.55969e+07)
(6.36082e+07 -2.37211e+06 1.50928e-08 -1.08721e+07 1.13921e-08 1.58943e+07)
(2.18478e+07 -1.38495e+07 1.29342e-08 -1.10031e+07 5.93388e-09 3.44776e+06)
(3.95138e+07 -1.64091e+06 -1.22942e-09 9.31306e+06 1.40047e-09 1.45807e+07)
(3.9303e+07 -1.81905e+06 -9.48182e-09 8.89418e+06 -7.01107e-10 1.43699e+07)
(7.36734e+07 8.47657e+06 4.96733e-08 -428726 4.3368e-08 2.17695e+07)
(6.60053e+07 2.23556e+06 2.69697e-09 -2.33773e+06 1.4027e-09 1.92391e+07)
(2.67954e+07 -1.23343e+07 3.74719e-09 -2.43722e+06 7.38788e-10 7.35441e+06)
(3.58938e+07 -9.25075e+06 -6.01835e-09 3.35343e+06 -4.07163e-09 1.1691e+07)
(8.24641e+07 4.26625e+06 -1.75487e-09 2.14521e+06 1.69773e-10 2.49747e+07)
(3.93637e+07 -1.51793e+06 2.92171e-09 9.46004e+06 -6.0277e-10 1.46277e+07)
(1.77152e+07 -5.41021e+06 6.054e-09 1.21645e+06 2.30266e-09 5.39352e+06)
(1.78173e+07 -5.47559e+06 0 1.88563e+06 0 6.21912e+06)
(4.42913e+07 -4.71203e+06 -3.30799e-09 1.07417e+06 -4.95024e-09 1.36341e+07)
(3.59871e+07 -4.01736e+06 -8.15861e-09 6.55784e+06 -3.05887e-09 1.27592e+07)
(3.115e+07 -7.80684e+06 2.80721e-09 4.24471e+06 -1.6168e-10 1.06915e+07)
(3.83219e+07 -5.03463e+06 2.11219e-10 5.80532e+06 2.96111e-10 1.32814e+07)
(4.00517e+07 -118226 -1.16206e-09 1.26592e+07 -9.79651e-10 1.58054e+07)
(4.01305e+07 14504.2 -1.01502e-09 20495.3 -3.44153e-09 1.20415e+07)
(2.48772e+07 -7.35484e+06 1.17593e-08 3.31012e+06 1.02629e-09 8.3801e+06)
(3.06984e+07 -116300 7.61976e-10 6.73013e+06 8.51543e-10 1.12024e+07)
(4.14112e+07 -1.21508e+07 -7.59311e-09 -1.51327e+07 -8.40372e-09 7.49938e+06)
(3.65642e+07 -1.16846e+07 1.35695e-09 -1.08929e+06 1.76065e-09 1.04566e+07)
(2.7552e+07 -4.04156e+06 2.64654e-09 5.67472e+06 -9.44334e-10 1.01262e+07)
(1.3141e+07 -8.35685e+06 -2.01134e-09 -4.40546e+06 -6.7876e-10 2.42788e+06)
(2.20011e+07 -3.08453e+06 -3.60795e-09 4.4022e+06 -3.20676e-10 7.86661e+06)
(1.99984e+07 -3.82372e+06 2.76472e-09 3.05203e+06 5.79598e-10 6.76462e+06)
(1.89024e+07 -3.36825e+06 3.26054e-09 3.19905e+06 6.9593e-10 6.91629e+06)
(3.09726e+07 -7.2575e+06 4.24484e-09 4.59359e+06 1.15024e-09 1.05497e+07)
(4.46733e+07 -4.32627e+06 1.03163e-08 959791 6.05023e-09 1.3474e+07)
(3.56994e+07 -3.63338e+06 4.60439e-09 6.63967e+06 1.12724e-09 1.29067e+07)
(3.15145e+07 -1.28079e+07 -4.04491e-09 -4.49519e+06 -1.68513e-09 8.04138e+06)
(4.44039e+07 -4.87847e+06 1.53546e-08 1.12154e+06 -1.75956e-09 1.36472e+07)
(3.59024e+07 -4.17327e+06 -1.18934e-09 6.43661e+06 -3.23255e-09 1.26969e+07)
(4.2861e+07 -1.04335e+07 4.83649e-09 63832.6 3.58109e-09 1.29623e+07)
(4.38467e+07 -1.03623e+07 2.73517e-08 -124455 1.24862e-08 1.29611e+07)
(6.17632e+07 1.73081e+06 -1.28892e-08 -79391.1 -1.11156e-08 1.85868e+07)
(4.50949e+07 -6.85465e+06 -5.65278e-09 1.33095e+06 1.11402e-09 1.40233e+07)
(4.02243e+07 -1.27042e+06 -2.15506e-09 2.6722e+06 -2.47105e-09 1.27796e+07)
(3.07809e+07 -7.59803e+06 -3.91224e-09 4.41042e+06 -1.34325e-10 1.06222e+07)
(1.85962e+07 -212547 -3.91384e-11 3.44468e+06 7.29012e-10 6.63609e+06)
(4.21394e+07 -3.59436e+06 -6.95276e-09 1.59389e+06 -1.2718e-09 1.32018e+07)
(2.37877e+07 -5.00421e+06 -8.48649e-09 4.336e+06 -3.2974e-10 8.47708e+06)
(2.58979e+07 -1.27951e+07 8.65906e-09 -4.86464e+06 2.87094e-09 5.98437e+06)
(2.39608e+07 -1.25466e+07 -1.82106e-09 -4.77586e+06 -4.96155e-10 6.02454e+06)
(5.17522e+07 -6.97797e+06 -1.08621e-08 -88846.6 -1.4293e-09 1.5491e+07)
(1.23219e+08 -2.07212e+07 -1.44572e-08 1.05141e+07 -7.87549e-09 4.30317e+07)
(4.04728e+07 -1.9733e+06 9.57959e-09 2.49282e+06 1.65842e-09 1.292e+07)
(6.97855e+07 1.36576e+06 1.56936e-09 -319564 1.06879e-09 2.10736e+07)
(7.09487e+07 626805 2.74801e-11 -159174 8.981e-11 2.10265e+07)
(5.69465e+07 -5.2289e+06 2.44289e-11 -1.1296e+07 1.60704e-09 1.3382e+07)
(1.67786e+07 -9.93828e+06 1.11742e-08 -3.35887e+06 3.38348e-09 4.15168e+06)
(3.98736e+07 -205148 6.01392e-10 1.12908e+07 -3.77595e-10 1.53251e+07)
(4.01949e+07 -27678.7 4.12593e-09 40564.1 -5.90228e-09 1.20851e+07)
(2.93121e+07 -1.17153e+07 -1.63213e-10 -564428 -2.4884e-12 8.77888e+06)
(5.37758e+07 -7.64651e+06 1.8182e-10 -1.3614e+07 7.00847e-10 1.14614e+07)
(1.70696e+07 -8.9106e+06 -1.13781e-08 -2.45339e+06 -3.34142e-09 4.10348e+06)
(3.39745e+07 -1.17126e+07 3.40643e-08 -4.01159e+06 1.39771e-08 1.08125e+07)
(4.96924e+07 -7.36179e+06 1.56045e-08 470865 6.17218e-09 1.50278e+07)
(4.51955e+07 -4.20394e+06 6.10445e-09 722546 -5.53407e-09 1.39095e+07)
(3.52271e+07 -3.44086e+06 0 6.65359e+06 0 1.24542e+07)
(5.65446e+07 -5.50485e+06 -1.3217e-08 -1.08991e+07 -7.43074e-09 1.41361e+07)
(8.08894e+06 -9.54725e+06 -1.11168e-08 -1.44135e+07 -1.59458e-09 -1.78948e+06)
(4.00173e+07 -336057 -4.38905e-09 1.22569e+07 3.892e-11 1.57084e+07)
(4.01573e+07 -40265.1 1.31442e-08 96370.5 5.94119e-10 1.20717e+07)
(6.09809e+07 9.16443e+06 2.21532e-08 549742 1.98815e-08 1.81511e+07)
(6.355e+07 -2.11364e+06 2.33367e-08 -1.14485e+07 1.50343e-08 1.53708e+07)
(3.0086e+07 -1.92555e+06 1.09297e-09 6.41057e+06 -2.7677e-09 1.10839e+07)
(6.6452e+07 1.72593e+06 -1.29329e-08 -8.78121e+06 -9.17822e-09 1.72108e+07)
(6.0459e+07 7.03484e+06 -1.40817e-08 3.23537e+06 -1.20344e-08 1.92179e+07)
(3.68274e+07 -1.10115e+07 1.65219e-09 807812 1.80848e-09 1.12217e+07)
(3.78255e+07 -2.07296e+06 -1.5278e-09 7.88211e+06 -3.13274e-09 1.37276e+07)
(6.13617e+07 -2.2323e+06 -9.84266e-09 -3.73937e+06 -6.42223e-09 1.75688e+07)
(-2.9662e+06 -1.22086e+06 -3.00871e-09 -3.11925e+07 -6.14119e-09 -1.01571e+07)
(4.34152e+07 -7.21155e+06 6.49873e-09 1.94048e+06 -7.53021e-11 1.37049e+07)
(5.79867e+07 6.5309e+06 -4.72451e-09 3.79168e+06 -3.52616e-09 1.84949e+07)
(5.20797e+07 -3.77625e+06 3.0407e-09 203530 3.5114e-09 1.54676e+07)
(6.01845e+07 8.88341e+06 7.18942e-09 1.24516e+06 6.75772e-09 1.82191e+07)
(3.93566e+07 -1.32008e+06 -7.04939e-10 9.30462e+06 -1.1823e-11 1.45315e+07)
(6.99122e+07 448474 6.71386e-09 -585822 4.66142e-09 2.07861e+07)
(5.89657e+07 -3.82339e+06 -1.37291e-08 -4.66366e+06 -8.23535e-09 1.64951e+07)
(5.94805e+07 -4.44418e+06 -7.47038e-09 -2.4415e+06 -4.51211e-09 1.70817e+07)
(4.00597e+07 -2.80827e+06 0 5.6729e+06 0 1.35996e+07)
(6.20142e+07 6.99203e+06 -6.93558e-09 -929653 -8.16769e-09 1.81061e+07)
(4.22941e+07 -3.94563e+06 1.28442e-08 1.65916e+06 1.19623e-09 1.3301e+07)
(4.54622e+07 -6.75384e+06 -1.8999e-08 1.28223e+06 -3.49086e-09 1.39515e+07)
(-3.60195e+06 -116648 8.96087e-10 -4.29512e+07 -2.22957e-09 -1.43223e+07)
(4.3464e+07 -7.00224e+06 -7.88759e-09 1.94248e+06 1.00039e-09 1.35373e+07)
(4.01716e+07 -106612 3.19204e-10 7.51195e+06 -4.15268e-10 1.42867e+07)
(-4.18913e+06 432240 2.74936e-09 -3.74775e+07 3.94123e-09 -1.32663e+07)
(4.55345e+07 -8.73696e+06 3.84941e-09 979221 -1.3592e-09 1.41332e+07)
(1.09404e+08 -1.07273e+07 -3.71753e-08 1.03938e+07 -1.67887e-08 3.54635e+07)
(1.17049e+07 -8.12027e+06 7.07133e-09 -5.59625e+06 2.70701e-09 1.74797e+06)
(6.88068e+07 9.46755e+06 4.69887e-09 2.21671e+06 3.47834e-09 2.10684e+07)
(6.58879e+07 6.95162e+06 -5.69728e-09 -3.91688e+06 -9.11617e-09 1.83976e+07)
(8.34831e+06 -8.4232e+06 1.90514e-08 -1.93082e+07 1.00301e-08 -3.14666e+06)
(1.15736e+07 -1.1804e+06 1.46006e-10 -346009 6.33367e-10 3.6761e+06)
(3.87928e+07 -1.18726e+07 3.38666e-08 -1.50417e+07 7.19579e-09 7.48583e+06)
(5.90396e+07 -5.03652e+06 8.56818e-09 -1.56584e+06 4.80688e-09 1.73352e+07)
(4.51978e+07 -6.4248e+06 -3.25238e-09 1.3113e+06 4.64659e-09 1.38905e+07)
(4.88213e+07 -1.0574e+07 -1.93981e-08 -1.36751e+07 -1.37267e-08 1.00427e+07)
(6.21107e+07 7.80948e+06 -3.3158e-09 -1.15928e+06 -9.06033e-11 1.83766e+07)
(9.20268e+07 -2.12564e+06 1.67085e-08 7.33114e+06 1.02956e-08 2.93412e+07)
(4.0696e+07 -731285 1.59805e-08 444155 5.49721e-09 1.24361e+07)
(4.06718e+07 -678728 -3.96867e-10 449717 -2.45152e-09 1.23232e+07)
(1.80106e+07 -6.41935e+06 -7.41166e-09 759442 -1.36647e-09 5.51517e+06)
(1.69614e+07 -6.1197e+06 -1.8117e-09 978696 5.52963e-11 5.63079e+06)
(5.85766e+07 3.19137e+06 0 4.37043e+06 0 1.8718e+07)
(6.16392e+07 7.68425e+06 1.3677e-08 -822409 1.77804e-08 1.80456e+07)
(9.49343e+07 1.75321e+06 2.38251e-09 1.17694e+07 3.41614e-09 3.11866e+07)
(3.5004e+07 -8.07571e+06 -5.20472e-09 4.33438e+06 -1.5942e-09 1.1818e+07)
(4.01083e+07 -258641 9.48547e-09 695753 -2.71362e-09 1.21911e+07)
(2.87913e+07 -9.41911e+06 -4.91034e-09 2.61422e+06 -1.89728e-09 9.57676e+06)