/*--------------------------------*- C++ -*----------------------------------*\
| =========                 |                                                 |
| \\      /  F ield         | OpenFOAM: The Open Source CFD Toolbox           |
|  \\    /   O peration     | Version:  v2012                                 |
|   \\  /    A nd           | Website:  www.openfoam.com                      |
|    \\/     M anipulation  |                                                 |
\*---------------------------------------------------------------------------*/
FoamFile
{
    version     2.0;
    format      ascii;
    class       volVectorField;
    location    "5";
    object      D_0;
}
// * * * * * * * * * * * * * * * * * * * * * * * * * * * * * * * * * * * * * //

dimensions      [0 1 0 0 0 0 0];


internalField   nonuniform List<vector> 
470
(
(0.00182434 -1.06855e-05 0)
(0.00188134 -7.71488e-06 0)
(0.00185143 -0.000204892 0)
(0.00224543 -1.22443e-05 0)
(0.00162718 -7.0256e-05 0)
(0.0020321 -0.000232496 0)
(0.00182212 -7.34561e-05 0)
(0.00162132 -6.78855e-05 0)
(0.00112846 -0.000314883 0)
(0.00181496 -0.00014833 0)
(0.00119522 -0.000277639 0)
(0.000664694 -0.000642433 0)
(0.000746435 -0.000571007 0)
(0.00217108 -2.24914e-05 0)
(0.000892893 -0.000459185 0)
(0.0015142 -0.000218863 0)
(0.00178613 -0.000140672 0)
(0.00209473 -1.8899e-05 0)
(0.00203319 -7.28841e-06 0)
(0.00184259 -1.53187e-05 0)
(0.00150824 -0.000240274 0)
(0.00225452 -8.6188e-05 0)
(0.00185557 -0.000225934 0)
(0.00217209 -3.01671e-05 0)
(0.0009931 -0.00039488 0)
(0.00185996 -6.21808e-05 0)
(0.00109707 -0.00032216 0)
(0.0017225 -0.000264012 0)
(0.0020675 -0.000195753 0)
(0.00220794 -1.1585e-05 0)
(0.00186961 -1.1278e-05 0)
(0.000898243 -0.0004665 0)
(0.00178947 -0.000166433 0)
(0.000664182 -0.000767849 0)
(0.00198921 -0.000240956 0)
(0.00207914 -0.000210168 0)
(0.0006713 -0.000609092 0)
(0.00187586 -1.80852e-05 0)
(0.0018962 -1.81084e-05 0)
(0.00179364 -1.91616e-05 0)
(0.00128513 -0.000211835 0)
(0.00200536 -3.01348e-06 0)
(0.000502863 -0.000806933 0)
(0.00136796 -0.00017224 0)
(0.00166756 -0.000272793 0)
(0.000427634 -0.00087985 0)
(0.00180235 -3.69386e-05 0)
(0.00113107 -0.000292906 0)
(0.00122344 -0.000249039 0)
(0.00111008 -0.000316805 0)
(0.00057001 -0.000684628 0)
(0.000824987 -0.000668064 0)
(0.00206891 -2.52964e-05 0)
(0.00203655 -1.22395e-05 0)
(0.00227033 -6.53621e-05 0)
(0.00224238 -7.83011e-05 0)
(2.0772e-05 -0.00123246 0)
(4.03492e-05 -0.00122897 0)
(0.0014959 -0.000140706 0)
(0.00175297 -0.000240042 0)
(0.00191969 -7.77231e-05 0)
(0.00094089 -0.000428429 0)
(0.000904739 -0.000445021 0)
(0.000653621 -0.00068238 0)
(0.00114574 -0.000512552 0)
(0.00023226 -0.00106151 0)
(0.00180958 -3.15132e-05 0)
(0.0022157 -0.000102427 0)
(0.00156163 -0.000106154 0)
(0.00152262 -0.000176102 0)
(0.00182947 -1.87518e-06 0)
(0.00181386 -0.000123086 0)
(0.000624035 -0.000741282 0)
(0.00167059 -9.38594e-05 0)
(0.000527226 -0.000817886 0)
(0.00235307 -5.62217e-05 0)
(0.00191513 -0.000132041 0)
(0.00191702 -0.000113935 0)
(0.00155994 -0.000118046 0)
(4.661e-05 -0.00114831 0)
(0.00137797 -0.00016752 0)
(0.000325604 -0.00099947 0)
(0.00180123 -0.000203829 0)
(0.00152619 -0.000141681 0)
(0.00104244 -0.000357235 0)
(0.00231059 -7.46633e-05 0)
(0.00055929 -0.00076571 0)
(0.00108497 -0.000631175 0)
(0.000402768 -0.000920702 0)
(0.000716576 -0.000647502 0)
(0.000506192 -0.00082761 0)
(0.000738493 -0.000562575 0)
(0.00172021 -9.02504e-05 0)
(0.00187284 -0.000107656 0)
(0.000834423 -0.000496949 0)
(0.000811315 -0.000504934 0)
(0.00175296 -4.99993e-05 0)
(0.001879 -9.02766e-05 0)
(0.00158194 -8.84458e-05 0)
(0.00194435 -0.000218821 0)
(0.00218838 -6.30706e-05 0)
(0.00117314 -0.000278607 0)
(0.000619997 -0.000773728 0)
(0.00230012 -4.42898e-05 0)
(0.00231143 -3.37693e-05 0)
(0.00216034 -0.000164794 0)
(0.0021854 -0.00014507 0)
(0.00170407 -5.26062e-05 0)
(0.00170861 -0.000112989 0)
(0.000419957 -0.000940937 0)
(0.000383584 -0.000928857 0)
(0.000418249 -0.000920263 0)
(0.00234851 -5.09915e-05 0)
(0.00205582 -0.000245452 0)
(0.00154453 -0.000111652 0)
(0.00159812 -0.000132159 0)
(0.00227219 -3.588e-06 0)
(0.00119014 -0.000336976 0)
(0.00174451 -6.11485e-05 0)
(0.00190694 -6.3585e-07 0)
(0.00168366 -7.66265e-05 0)
(0.00223062 -4.32587e-05 0)
(0.00213669 -1.64117e-05 0)
(0.00240081 -2.36474e-05 0)
(0.00227452 -0.00013659 0)
(0.00153022 -0.000156214 0)
(0.0014779 -0.000160404 0)
(0.00219311 -8.06298e-05 0)
(0.00113674 -0.000371324 0)
(0.00220268 -4.08897e-05 0)
(0.00173339 -3.90754e-05 0)
(0.00169465 -5.35367e-05 0)
(0.00177227 -7.65711e-05 0)
(0.0021492 -6.64621e-05 0)
(0.00232414 -8.0173e-05 0)
(0.0019048 -0.000231595 0)
(0.00170804 -0.000110425 0)
(0.00109905 -0.000494812 0)
(0.000577034 -0.00071319 0)
(0.00214784 -0.000205597 0)
(0.00211276 -0.000211258 0)
(0.00090349 -0.000482675 0)
(0.00215917 -9.07456e-05 0)
(0.00197305 -9.87206e-05 0)
(0.00201536 -0.000103945 0)
(0.00183716 -2.21847e-05 0)
(0.0023393 -1.55237e-05 0)
(0.000851438 -0.000495613 0)
(0.00206125 -7.25644e-05 0)
(0.000695766 -0.00062788 0)
(0.00201175 -1.76179e-05 0)
(0.00231066 -1.45201e-05 0)
(0.00148355 -0.000130922 0)
(0.00231213 -5.50346e-05 0)
(0.000638889 -0.000847952 0)
(0.00146506 -0.000201082 0)
(0.00165905 -0.000189267 0)
(0.00190326 -5.708e-05 0)
(0.00192668 -6.32865e-05 0)
(0.00187219 -0.000147057 0)
(0.000600286 -0.000828384 0)
(0.000981886 -0.000398371 0)
(0.000190487 -0.00107954 0)
(0.000999127 -0.000423099 0)
(7.81631e-05 -0.00116194 0)
(0.0013441 -0.000208813 0)
(0.00139668 -0.000169401 0)
(0.00106314 -0.000388464 0)
(0.00160783 -0.000112638 0)
(0.00129266 -0.000214015 0)
(0.00137034 -0.000176807 0)
(0.00206412 -0.000121679 0)
(0.00206593 -0.000137635 0)
(0.00197003 -0.000134112 0)
(0.00201156 -0.000121673 0)
(0.00195935 -7.73276e-05 0)
(0.00207592 -1.26512e-05 0)
(0.00177333 -1.26069e-05 0)
(0.000985251 -0.000414012 0)
(0.00144828 -0.000134642 0)
(0.00145537 -0.000128501 0)
(0.000507049 -0.000780625 0)
(0.00174243 -0.000107728 0)
(0.00158293 -0.000171311 0)
(0.00158123 -0.000194066 0)
(0.0011284 -0.000321777 0)
(0.00202901 -0.000170296 0)
(0.00178681 -6.16635e-06 0)
(0.000259635 -0.00101389 0)
(0.00213982 -3.77736e-05 0)
(0.00210489 -0.000177928 0)
(0.0018581 -4.60018e-05 0)
(0.00164043 -0.000150714 0)
(0.00169375 -0.000140396 0)
(0.00178092 -1.97278e-05 0)
(0.00202565 -2.56058e-05 0)
(0.00181088 -0.000242262 0)
(0.00191856 -0.000168464 0)
(0.00191133 -0.000189154 0)
(0.000208067 -0.000993832 0)
(0.00184226 -1.02654e-05 0)
(0.00181413 -6.26959e-06 0)
(8.6041e-05 -0.001056 0)
(0.0012284 -0.000319594 0)
(0.00163484 -0.000195091 0)
(0.00161166 -0.00024213 0)
(0.00195925 -1.47583e-05 0)
(0.00197137 -2.00301e-05 0)
(0.00117893 -0.000371181 0)
(0.00172544 -7.59632e-05 0)
(0.0022033 -7.04305e-05 0)
(0.00179558 -0.000189019 0)
(0.00175547 -2.71124e-05 0)
(0.0020723 -3.4411e-05 0)
(0.00118599 -0.00030635 0)
(0.00125696 -0.000273393 0)
(0.00207581 -8.19106e-05 0)
(0.00189314 -4.18541e-05 0)
(0.00207622 -5.07914e-05 0)
(0.00122955 -0.000256582 0)
(0.00169329 -9.09658e-05 0)
(0.00176945 -2.99422e-05 0)
(0.00200109 -0.000186743 0)
(0.00209909 -3.97697e-05 0)
(0.00114807 -0.000304607 0)
(0.00198207 -0.000217662 0)
(0.00120465 -0.000265198 0)
(0.00172335 -4.57034e-05 0)
(0.000209731 -0.00109362 0)
(0.00053571 -0.000727446 0)
(0.00123382 -0.000241878 0)
(0.00167411 -7.2199e-05 0)
(0.0023981 -1.27382e-05 0)
(0.0022261 -0.000183817 0)
(0.00164919 -0.00022198 0)
(0.00182772 -8.8292e-05 0)
(0.0013596 -0.000369208 0)
(0.00223006 -0.000129929 0)
(0.00226856 -0.000125507 0)
(0.00237188 -3.40942e-05 0)
(0.00233048 -4.38072e-05 0)
(0.00234922 -2.47633e-05 0)
(0.00219236 -0.000169146 0)
(0.000185022 -0.00107091 0)
(8.06556e-05 -0.00111873 0)
(0.000141989 -0.00113742 0)
(3.00184e-05 -0.00119686 0)
(0.0022174 -0.000113183 0)
(0.00197585 -6.38791e-06 0)
(0.00197263 -0.000153433 0)
(0.00201813 -0.000153799 0)
(0.00174577 -0.00022397 0)
(0.0024194 -1.30882e-05 0)
(0.00226056 -0.000167498 0)
(0.00140124 -0.00021232 0)
(0.00192726 -8.43583e-06 0)
(0.00194365 -2.76564e-05 0)
(0.00238974 -2.24553e-05 0)
(0.00224273 -0.000155509 0)
(0.00186343 6.17481e-07 0)
(0.00164512 -0.000127319 0)
(0.000364648 -0.000954965 0)
(0.00180418 -4.05796e-06 0)
(0.00142493 -0.00032435 0)
(0.00188033 -2.97031e-05 0)
(0.00235571 -1.89428e-05 0)
(0.00217936 -0.000187136 0)
(0.0021247 -3.71824e-06 0)
(0.00190796 -2.97887e-05 0)
(0.00161978 -0.000263548 0)
(0.00186382 -0.000266123 0)
(0.00145957 -0.000255611 0)
(0.00070728 -0.000578838 0)
(0.00132014 -0.000268731 0)
(5.58415e-05 -0.00119658 0)
(0.000993943 -0.000513737 0)
(0.000860947 -0.000580602 0)
(0.00169273 -0.000176968 0)
(0.00104905 -0.000351307 0)
(0.00214688 -0.000104237 0)
(0.00178362 -0.000114718 0)
(0.00137684 -0.000211 0)
(0.00178173 -5.7648e-05 0)
(0.00141149 -0.000187522 0)
(0.00224779 -2.23482e-05 0)
(0.00228243 -2.3964e-05 0)
(0.00154879 -0.000245654 0)
(0.000304233 -0.000986491 0)
(0.00209252 -5.99085e-05 0)
(0.00170971 -3.74824e-05 0)
(0.00119607 -0.000410629 0)
(0.00140967 -0.000242319 0)
(0.00174064 -2.76258e-05 0)
(0.00125581 -0.000313525 0)
(0.00129407 -0.000242963 0)
(0.00201645 -6.30231e-05 0)
(0.00213621 -5.69108e-05 0)
(0.00195456 -0.000259457 0)
(0.00127056 -0.0002428 0)
(0.00218954 -4.07317e-06 0)
(0.0021667 -0.0001087 0)
(0.00133627 -0.000493462 0)
(0.00224574 -0.000112306 0)
(0.00229031 -9.86148e-05 0)
(0.000340827 -0.000980854 0)
(0.00151388 -0.000109835 0)
(0.00210489 -0.000135416 0)
(0.0020962 -0.000110404 0)
(0.00160871 -7.44207e-05 0)
(0.00162061 -6.66913e-05 0)
(0.000805777 -0.000536959 0)
(0.000913638 -0.000493983 0)
(0.000515791 -0.000912206 0)
(0.00198559 -8.65263e-05 0)
(0.00144848 -0.000183549 0)
(0.000830812 -0.000505448 0)
(0.00136516 -0.000212442 0)
(0.00173407 -3.48188e-05 0)
(0.00115895 -0.000330251 0)
(0.00192095 -4.52912e-05 0)
(0.00142047 -0.0003053 0)
(0.00195419 -4.17698e-05 0)
(0.0019829 -6.5068e-05 0)
(0.00216117 -4.65023e-05 0)
(0.00130071 -0.000264361 0)
(0.00209168 -6.1667e-06 0)
(0.00181869 -0.000260074 0)
(0.00151759 -0.000107087 0)
(0.00158073 -8.24247e-05 0)
(0.00159499 -0.000137389 0)
(0.00182804 -4.77177e-05 0)
(0.00166064 -9.75707e-05 0)
(0.00145299 -0.00014386 0)
(0.00144715 -0.00015028 0)
(0.0016376 -7.8604e-05 0)
(0.00158374 -0.000100745 0)
(0.00192933 -8.39883e-06 0)
(0.00203659 -5.25846e-05 0)
(0.000424979 -0.000813001 0)
(0.00208196 -0.000164023 0)
(0.00200521 -3.11123e-05 0)
(4.38642e-05 -0.00111809 0)
(0.00130433 -0.000325323 0)
(0.00174053 -4.17951e-05 0)
(0.00205616 -9.50016e-05 0)
(0.001466 -0.000283701 0)
(0.000423651 -0.000842346 0)
(0.00202491 -7.34723e-05 0)
(0.00240554 -8.07439e-06 0)
(0.00222449 -0.00019778 0)
(0.00195359 -1.46553e-06 0)
(0.00165563 -7.27669e-05 0)
(0.00145938 -0.000218412 0)
(0.00155604 -0.000286373 0)
(0.000284563 -0.000962927 0)
(0.00176697 -1.67067e-05 0)
(0.000190099 -0.00110804 0)
(0.0017892 -0.000104925 0)
(0.00237102 -5.15111e-06 0)
(0.00179259 -6.8933e-06 0)
(0.00236832 -8.35293e-06 0)
(0.00238622 -3.589e-05 0)
(0.00230725 -0.000104015 0)
(0.00171579 -0.000154047 0)
(0.00083554 -0.000779885 0)
(0.00217156 -0.000224388 0)
(0.00196901 -3.34479e-05 0)
(0.000363116 -0.0008995 0)
(0.00176374 -1.93289e-05 0)
(0.00217774 -0.000211144 0)
(0.00184267 -3.33116e-05 0)
(0.00164744 -7.95988e-05 0)
(0.000138577 -0.00115498 0)
(0.00227513 -3.24167e-05 0)
(0.00159209 -0.000220493 0)
(0.00153107 -0.000324885 0)
(0.00177519 -9.66001e-06 0)
(0.00215672 -0.000139956 0)
(0.000314528 -0.000980994 0)
(0.00155058 -0.000195589 0)
(0.00150748 -0.000119874 0)
(0.000494944 -0.000867082 0)
(0.00010213 -0.00117656 0)
(0.00225763 -5.28346e-05 0)
(0.00211774 -7.83162e-05 0)
(0.000336549 -0.000988052 0)
(0.000307971 -0.0010042 0)
(0.000246892 -0.00106082 0)
(0.00151864 -0.000274073 0)
(0.00201562 -4.51236e-05 0)
(0.000833799 -0.00057927 0)
(0.00214976 -8.48587e-06 0)
(0.00190918 -0.000254294 0)
(0.00045938 -0.000883954 0)
(0.00210991 -0.00015007 0)
(0.00202914 -3.74241e-05 0)
(0.00233635 -1.57676e-06 0)
(0.00212807 -0.000238338 0)
(0.000986983 -0.000398216 0)
(0.0017061 -0.000214096 0)
(0.00105763 -0.000364361 0)
(0.000113747 -0.00106233 0)
(0.00187301 -0.000163067 0)
(0.00170254 -4.31453e-05 0)
(0.00072228 -0.000620139 0)
(0.000128153 -0.00116166 0)
(0.000821821 -0.000541437 0)
(0.00195282 -0.000192744 0)
(0.00241035 -1.90679e-06 0)
(0.00243269 -3.56697e-06 0)
(0.00221251 -0.000221972 0)
(0.00224631 -0.000204254 0)
(0.00206519 -2.30891e-06 0)
(0.00176935 -0.000273588 0)
(9.32974e-05 -0.00119205 0)
(0.000894697 -0.000697403 0)
(0.00224634 -6.19419e-05 0)
(0.00165689 -6.14399e-05 0)
(0.000375011 -0.00091608 0)
(0.00177445 -2.00983e-05 0)
(0.00156254 -0.000101639 0)
(0.00179469 -1.28434e-05 0)
(0.00173737 -0.000177988 0)
(0.00222234 -5.33697e-05 0)
(0.00182283 -0.00017361 0)
(0.000198105 -0.00106583 0)
(0.000259802 -0.00105021 0)
(0.00124743 -0.00025631 0)
(0.000964904 -0.000407615 0)
(0.000166049 -0.00112527 0)
(0.00089937 -0.000452931 0)
(0.00107556 -0.000357046 0)
(0.00136798 -0.000192883 0)
(0.0013109 -0.000220034 0)
(0.0017413 -4.67655e-05 0)
(0.00174929 -3.37463e-05 0)
(0.00230568 -8.59784e-06 0)
(0.00209851 -0.000233881 0)
(0.00217357 -0.000126716 0)
(0.00134017 -0.000194234 0)
(0.00109047 -0.00036416 0)
(0.00107825 -0.000365383 0)
(0.00221435 -2.99939e-05 0)
(0.00103992 -0.000433603 0)
(0.00144971 -0.000264064 0)
(0.00101906 -0.00043013 0)
(0.00118914 -0.000314527 0)
(0.00201871 -0.000200243 0)
(0.00177751 -1.87429e-05 0)
(0.00214507 -0.000124383 0)
(0.00174006 -0.000194394 0)
(0.00130048 -0.000285884 0)
(0.00136831 -0.000265446 0)
(0.00208985 -9.88269e-05 0)
(0.00212396 -8.83352e-05 0)
(0.00166863 -5.21659e-05 0)
(0.00128552 -0.000220474 0)
(0.00136524 -0.00030342 0)
(0.00167565 -4.91157e-05 0)
(0.00171368 -3.9011e-05 0)
(0.00173605 -0.000125137 0)
(0.00160665 -8.09943e-05 0)
(0.00174613 -2.98349e-05 0)
(0.00139242 -0.000274331 0)
(0.0013644 -0.000239967 0)
(0.00140085 -0.000241718 0)
(0.00196617 -5.77278e-05 0)
(0.00197974 -4.76515e-05 0)
(0.00138253 -0.000180373 0)
(0.0012736 -0.000230347 0)
)
;

boundaryField
{
    back
    {
        type            empty;
    }
    front
    {
        type            empty;
    }
    down
    {
        type            symmetry;
    }
    right
    {
        type            calculated;
        value           nonuniform List<vector> 10((0.00238094 -4.60979e-05 -3.30473e-21) (0.00242515 -1.67987e-05 3.18175e-21) (0.0023017 -0.000127598 -3.66185e-21) (0.00235193 -6.97301e-05 2.67226e-21) (0.00243794 -1.00518e-05 1.70862e-21) (0.00228162 -0.000162624 -3.667e-21) (0.00240441 -3.06006e-05 -3.52243e-21) (0.00232625 -9.8053e-05 2.72725e-21) (0.00244609 -2.62874e-06 -1.29023e-21) (0.00226167 -0.000200949 -5.02903e-21));
    }
    up
    {
        type            calculated;
        value           nonuniform List<vector> 
20
(
(0.00088056 -0.000483147 0)
(0.00166716 -0.000288729 0)
(0.000524306 -0.000705813 -1.68825e-20)
(2.42127e-05 -0.00123955 -2.79132e-21)
(0.00205286 -0.000257266 9.1869e-22)
(0.00112409 -0.000385641 5.72146e-21)
(0.000155131 -0.00109199 -1.68051e-21)
(0.000982156 -0.000438918 0)
(0.00186287 -0.000276424 -1.97981e-21)
(0.000678237 -0.000595813 3.00003e-21)
(0.0019527 -0.000269367 -3.63896e-21)
(0.00141591 -0.000316694 1.92821e-21)
(0.000391995 -0.000826093 5.86863e-21)
(0.00129859 -0.00033932 1.69411e-21)
(0.00155358 -0.000298056 1.80922e-21)
(0.000255612 -0.000974131 -2.28068e-21)
(8.46288e-05 -0.00118533 2.1134e-21)
(0.00212498 -0.000245487 -9.73567e-22)
(0.00220927 -0.000228572 -1.94914e-21)
(0.00176779 -0.00028223 1.11661e-21)
)
;
    }
    left
    {
        type            symmetry;
    }
    hole
    {
        type            calculated;
        value           nonuniform List<vector> 8((0.00116926 -0.000679278 -1.09688e-21) (0.00166172 -0.000232652 4.64792e-21) (0.000234615 -0.000956266 -1.03652e-20) (0.00171403 -9.19846e-05 -2.79135e-21) (0.00138135 -0.000545684 6.27745e-21) (0.000572021 -0.000899825 -1.05695e-20) (0.000893066 -0.000788716 0) (0.00155127 -0.000366309 -1.10287e-20));
    }
}


// ************************************************************************* //
