/*--------------------------------*- C++ -*----------------------------------*\
| =========                 |                                                 |
| \\      /  F ield         | OpenFOAM: The Open Source CFD Toolbox           |
|  \\    /   O peration     | Version:  v2012                                 |
|   \\  /    A nd           | Website:  www.openfoam.com                      |
|    \\/     M anipulation  |                                                 |
\*---------------------------------------------------------------------------*/
FoamFile
{
    version     2.0;
    format      ascii;
    class       pointVectorField;
    location    "5";
    object      pointD;
}
// * * * * * * * * * * * * * * * * * * * * * * * * * * * * * * * * * * * * * //

dimensions      [0 1 0 0 0 0 0];


internalField   nonuniform List<vector> 
530
(
(0.00180696 0 -1.4612e-21)
(0.00252939 0 -6.71867e-22)
(0.00232862 -0.000223696 -3.63468e-21)
(0 -0.0012876 -1.45384e-21)
(0 -0.00104789 -5.42874e-21)
(0.00180696 0 -1.4612e-21)
(0.00252939 0 -6.71867e-22)
(0.00232862 -0.000223696 -3.63468e-21)
(0 -0.0012876 -1.45384e-21)
(0 -0.00104789 -5.42874e-21)
(0.00183893 0 0)
(0.00185524 0 0)
(0.00187032 0 0)
(0.00189254 0 0)
(0.00192341 0 0)
(0.00196376 0 0)
(0.00201072 0 0)
(0.00206198 0 0)
(0.0021201 0 0)
(0.00218225 0 0)
(0.00224702 0 0)
(0.00232383 0 0)
(0.00240028 0 0)
(0.00247224 0 0)
(0.00254376 -6.60883e-06 2.18208e-22)
(0.00253287 -1.39855e-05 2.54702e-21)
(0.0025154 -2.46825e-05 -1.77558e-22)
(0.00249238 -3.99448e-05 -3.55555e-21)
(0.00246504 -6.03188e-05 -3.29022e-22)
(0.00243655 -8.73775e-05 2.81237e-21)
(0.00241039 -0.000117514 -4.87137e-22)
(0.00238714 -0.000151151 -3.81737e-21)
(0.0023663 -0.000189356 -4.5293e-21)
(0.00225742 -0.000246899 -1.52223e-21)
(0.00217597 -0.000261846 -2.81563e-23)
(0.00208624 -0.000274283 -1.41607e-21)
(0.00198727 -0.000284263 -2.92587e-21)
(0.00189097 -0.000290962 -4.4955e-22)
(0.00178904 -0.000297369 5.81443e-22)
(0.00167748 -0.000305612 9.42383e-22)
(0.00154661 -0.000320175 1.94661e-21)
(0.00141381 -0.000341666 1.88632e-21)
(0.00126181 -0.000377581 3.86151e-21)
(0.001097 -0.000429451 2.97942e-21)
(0.000970159 -0.000480228 0)
(0.000811849 -0.000561953 1.56301e-21)
(0.000626291 -0.000677934 -7.23041e-21)
(0.000477199 -0.000797888 -5.73632e-21)
(0.000337254 -0.000937674 1.86911e-21)
(0.000213896 -0.00107618 -2.06264e-21)
(0.000124862 -0.00118619 2.25506e-22)
(5.66895e-05 -0.00126306 -3.53678e-22)
(0 -0.00126537 0)
(0 -0.00122152 0)
(0 -0.00118051 0)
(0 -0.00113247 0)
(0.000420195 -0.000966737 -1.09102e-20)
(0.000763132 -0.00087946 -5.50823e-21)
(0.00107421 -0.000764666 -5.72046e-22)
(0.00132857 -0.000638121 2.70226e-21)
(0.00152751 -0.000475039 -2.47066e-21)
(0.00167347 -0.00031195 -3.32499e-21)
(0.00175822 -0.000169087 9.65985e-22)
(0.00183893 0 0)
(0.00185524 0 0)
(0.00187032 0 0)
(0.00189254 0 0)
(0.00192341 0 0)
(0.00196376 0 0)
(0.00201072 0 0)
(0.00206198 0 0)
(0.0021201 0 0)
(0.00218225 0 0)
(0.00224702 0 0)
(0.00232383 0 0)
(0.00240028 0 0)
(0.00247224 0 0)
(0.00254376 -6.60883e-06 2.18208e-22)
(0.00253287 -1.39855e-05 2.54702e-21)
(0.0025154 -2.46825e-05 -1.77558e-22)
(0.00249238 -3.99448e-05 -3.55555e-21)
(0.00246504 -6.03188e-05 -3.29022e-22)
(0.00243655 -8.73775e-05 2.81237e-21)
(0.00241039 -0.000117514 -4.87137e-22)
(0.00238714 -0.000151151 -3.81737e-21)
(0.0023663 -0.000189356 -4.5293e-21)
(0.00225742 -0.000246899 -1.52223e-21)
(0.00217597 -0.000261846 -2.81563e-23)
(0.00208624 -0.000274283 -1.41607e-21)
(0.00198727 -0.000284263 -2.92587e-21)
(0.00189097 -0.000290962 -4.4955e-22)
(0.00178904 -0.000297369 5.81443e-22)
(0.00167748 -0.000305612 9.42383e-22)
(0.00154661 -0.000320175 1.94661e-21)
(0.00141381 -0.000341666 1.88632e-21)
(0.00126181 -0.000377581 3.86151e-21)
(0.001097 -0.000429451 2.97942e-21)
(0.000970159 -0.000480228 0)
(0.000811849 -0.000561953 1.56301e-21)
(0.000626291 -0.000677934 -7.23041e-21)
(0.000477199 -0.000797888 -5.73632e-21)
(0.000337254 -0.000937674 1.86911e-21)
(0.000213896 -0.00107618 -2.06264e-21)
(0.000124862 -0.00118619 2.25506e-22)
(5.66895e-05 -0.00126306 -3.53678e-22)
(0 -0.00126537 0)
(0 -0.00122152 0)
(0 -0.00118051 0)
(0 -0.00113247 0)
(0.000420195 -0.000966737 -1.09102e-20)
(0.000763132 -0.00087946 -5.50823e-21)
(0.00107421 -0.000764666 -5.72046e-22)
(0.00132857 -0.000638121 2.70226e-21)
(0.00152751 -0.000475039 -2.47066e-21)
(0.00167347 -0.00031195 -3.32499e-21)
(0.00175822 -0.000169087 9.65985e-22)
(0.00150772 -0.000145365 0)
(0.00201127 -9.6913e-05 0)
(0.000937283 -0.000490738 0)
(0.00165372 -0.000159075 0)
(0.00186817 -4.96983e-05 0)
(0.00215346 -0.000158597 0)
(0.00227531 -5.52994e-05 0)
(0.00044811 -0.000938289 0)
(0.00167047 -8.91591e-05 0)
(0.00117581 -0.000321648 0)
(0.00207488 -4.09258e-05 0)
(0.00185139 -0.000187454 0)
(0.00182819 -3.09295e-05 0)
(0.00133253 -0.000276745 0)
(0.00228801 -9.69816e-05 0)
(0.00138747 -0.000251069 0)
(0.00184255 -9.75969e-05 0)
(0.00169143 -0.000101229 0)
(0.000616054 -0.000749588 0)
(0.000765864 -0.000707141 0)
(0.00220747 -2.9623e-05 0)
(0.00198356 -0.000218751 0)
(0.00241516 -2.41621e-05 0)
(0.00221903 -0.000198784 0)
(0.00125342 -0.000274267 0)
(0.000861507 -0.000525709 0)
(0.00164392 -0.000231482 0)
(0.00200519 -2.21196e-05 0)
(0.00214151 -0.000112948 0)
(0.00213662 -6.45226e-05 0)
(0.000194213 -0.00115714 0)
(0.00148891 -0.000175983 0)
(0.00238116 -5.62652e-05 0)
(0.00229283 -0.000133152 0)
(0.00200126 -0.000155925 0)
(0.000309623 -0.00104851 0)
(0.00171258 -7.29838e-05 0)
(0.00193351 -1.74573e-05 0)
(0.00181668 -2.97178e-05 0)
(0.00177722 -6.80615e-05 0)
(0.00150188 -0.000150573 0)
(0.00156175 -0.000199959 0)
(0.00182729 -0.000138321 0)
(0.00196577 -5.26233e-05 0)
(0.00116772 -0.000351938 0)
(0.00037482 -0.000982499 0)
(0.00150019 -0.000257089 0)
(0.00230373 -2.26593e-05 0)
(0.00211056 -0.000224569 0)
(0.00114197 -0.00046661 0)
(0.0021364 -1.93708e-05 0)
(0.00187656 -0.000232961 0)
(0.00170214 -6.6062e-05 0)
(0.00107967 -0.000377347 0)
(0.00135475 -0.000217709 0)
(0.000642712 -0.000757932 0)
(0.00094248 -0.000467462 0)
(0.000563596 -0.000882418 0)
(0.00225103 -8.01816e-05 0)
(0.00193242 -0.000136119 0)
(0.00203293 -7.07924e-05 0)
(0.00188644 -1.20838e-05 0)
(0.00182633 -4.35574e-05 0)
(0.00104052 -0.00044078 0)
(0.00239466 -6.93292e-05 0)
(0.000668968 -0.000672226 0)
(0.00130523 -0.000256648 0)
(0.000146227 -0.00115935 0)
(0.00175572 -0.000252768 0)
(0.00208278 -1.19775e-05 0)
(0.00172756 -0.000115827 0)
(0.00151505 -0.000194497 0)
(0.00180101 -7.90614e-05 0)
(0.00137851 -0.000333395 0)
(0.00220237 -0.000125183 0)
(0.00231522 -0.000152544 0)
(0.00244894 -3.35836e-05 0)
(0.000800187 -0.000585014 0)
(0.00128764 -0.000313843 0)
(0.00151578 -0.000166763 0)
(0.00211218 -9.08755e-05 0)
(0.00247072 -1.32718e-05 0)
(0.00228158 -0.000205691 0)
(0.00190325 -0.000109575 0)
(0.00235905 -9.98285e-05 0)
(0.00182327 -2.97356e-05 0)
(0.00176868 -6.82044e-05 0)
(0.0015833 -0.000204987 0)
(0.00171639 -0.000176316 0)
(0.00197868 -1.0669e-05 0)
(0.00192662 -2.83687e-05 0)
(0.00214 -4.5095e-05 0)
(0.00201093 -3.81984e-05 0)
(0.00220615 -5.06117e-05 0)
(0.00157925 -0.000129889 0)
(0.00160964 -0.000142264 0)
(0.0020486 -0.000122404 0)
(0.00222171 -0.000163264 0)
(0.00235838 -4.55345e-05 0)
(0.000450855 -0.000889407 0)
(0.00024807 -0.00109773 0)
(0.00103059 -0.000607742 0)
(0.00205505 -0.000180617 0)
(0.00220041 -1.13717e-05 0)
(0.00136805 -0.000222622 0)
(0.00193826 -0.000257065 0)
(0.000784678 -0.000572857 0)
(0.00192915 -0.000192155 0)
(0.00160874 -0.000102287 0)
(0.00237344 -1.47635e-05 0)
(0.00216447 -0.000234606 0)
(0.00195609 -7.58498e-05 0)
(0.00210195 -0.000142778 0)
(0.000567925 -0.000850943 0)
(0.000484742 -0.000889373 0)
(0.00110453 -0.000373419 0)
(8.60783e-05 -0.00124185 0)
(0.00156074 -0.000272244 0)
(0.000852723 -0.000584011 0)
(0.00170462 -0.000155972 0)
(0.00232269 -7.42437e-05 0)
(0.0014236 -0.000181845 0)
(0.0021927 -7.23896e-05 0)
(0.000487226 -0.000956737 0)
(0.000301833 -0.00106525 0)
(0.00101383 -0.000419129 0)
(0.00176387 -0.000205735 0)
(0.00226894 -3.86208e-05 0)
(0.00213616 -0.000190029 0)
(0.000218645 -0.00106795 0)
(0.0019305 -9.44053e-06 0)
(0.00173014 -5.82939e-05 0)
(0.0018679 -1.19694e-05 0)
(0.0018013 -6.69267e-05 0)
(0.00167833 -0.000109385 0)
(0.00138602 -0.000307183 0)
(0.0014565 -0.000174949 0)
(0.0020303 -8.19265e-06 0)
(0.00175798 -5.85126e-05 0)
(0.000430158 -0.000963367 0)
(0.00176522 -0.000132082 0)
(0.00244782 -4.57686e-05 0)
(0.00236302 -0.000118792 0)
(0.00202957 -0.000247804 0)
(0.00162498 -9.90793e-05 0)
(0.00226122 -1.30644e-05 0)
(0.000129504 -0.00113243 0)
(0.00227415 -0.000120084 0)
(9.27475e-05 -0.00121825 0)
(0.001574 -0.000276221 0)
(0.00189561 -6.25878e-05 0)
(0.000336386 -0.00103295 0)
(0.00207039 -2.71367e-05 0)
(0.00188698 -2.28783e-05 0)
(0.00147725 -0.000231881 0)
(0.00174763 -5.51995e-05 0)
(0.0012235 -0.000287193 0)
(0.00194626 -3.94312e-05 0)
(0.000774163 -0.000624044 0)
(0.00161933 -0.000104377 0)
(0.00104076 -0.000424479 0)
(0.00184095 -2.2946e-05 0)
(0.00182846 -0.000167843 0)
(0.00182777 -3.10304e-05 0)
(0.000934289 -0.000477463 0)
(0.0011002 -0.000372785 0)
(0.00222711 -0.000140906 0)
(0.00231311 -0.000179259 0)
(0.00248084 -1.94624e-05 0)
(0.000778859 -0.000796449 0)
(0.00221103 -0.000102854 0)
(0.00233567 -3.33173e-05 0)
(0.00139522 -0.000224876 0)
(0.00163635 -0.000273523 0)
(0.000983636 -0.000525491 0)
(0.00191121 -0.000166406 0)
(0.00125912 -0.000294372 0)
(0.00208273 -5.73772e-05 0)
(0.00206258 -0.000211782 0)
(0.00202374 -5.40873e-05 0)
(0.00207707 -7.64627e-05 0)
(0.00167969 -9.03183e-05 0)
(0.00121204 -0.000322091 0)
(0.00140266 -0.000270357 0)
(0.000330933 -0.000995431 0)
(0.00127732 -0.000474238 0)
(0.00144364 -0.000236207 0)
(0.00177972 -4.10779e-05 0)
(0.000143477 -0.00119967 0)
(0.000514028 -0.000807196 0)
(0.00212484 -3.21138e-05 0)
(0.00214718 -8.39354e-06 0)
(0.00185303 -1.33407e-05 0)
(0.00117032 -0.000373489 0)
(0.00128582 -0.000257489 0)
(0.00184917 -0.000266856 0)
(0.00183661 -0.000117672 0)
(0.00218003 -9.21898e-05 0)
(0.00183014 -0.000213644 0)
(0.00117045 -0.00038796 0)
(0.00243454 -9.17996e-06 0)
(0.00222662 -0.000230854 0)
(0.00147695 -0.000297865 0)
(0.00231638 -6.27707e-05 0)
(0.00249944 -5.57109e-06 0)
(0.00230068 -0.000220232 0)
(0.00138196 -0.000215074 0)
(0.00150772 -0.000145365 0)
(0.00201127 -9.6913e-05 0)
(0.000937283 -0.000490738 0)
(0.00165372 -0.000159075 0)
(0.00186817 -4.96983e-05 0)
(0.00215346 -0.000158597 0)
(0.00227531 -5.52994e-05 0)
(0.00044811 -0.000938289 0)
(0.00167047 -8.91591e-05 0)
(0.00117581 -0.000321648 0)
(0.00207488 -4.09258e-05 0)
(0.00185139 -0.000187454 0)
(0.00182819 -3.09295e-05 0)
(0.00133253 -0.000276745 0)
(0.00228801 -9.69816e-05 0)
(0.00138747 -0.000251069 0)
(0.00184255 -9.75969e-05 0)
(0.00169143 -0.000101229 0)
(0.000616054 -0.000749588 0)
(0.000765864 -0.000707141 0)
(0.00220747 -2.9623e-05 0)
(0.00198356 -0.000218751 0)
(0.00241516 -2.41621e-05 0)
(0.00221903 -0.000198784 0)
(0.00125342 -0.000274267 0)
(0.000861507 -0.000525709 0)
(0.00164392 -0.000231482 0)
(0.00200519 -2.21196e-05 0)
(0.00214151 -0.000112948 0)
(0.00213662 -6.45226e-05 0)
(0.000194213 -0.00115714 0)
(0.00148891 -0.000175983 0)
(0.00238116 -5.62652e-05 0)
(0.00229283 -0.000133152 0)
(0.00200126 -0.000155925 0)
(0.000309623 -0.00104851 0)
(0.00171258 -7.29838e-05 0)
(0.00193351 -1.74573e-05 0)
(0.00181668 -2.97178e-05 0)
(0.00177722 -6.80615e-05 0)
(0.00150188 -0.000150573 0)
(0.00156175 -0.000199959 0)
(0.00182729 -0.000138321 0)
(0.00196577 -5.26233e-05 0)
(0.00116772 -0.000351938 0)
(0.00037482 -0.000982499 0)
(0.00150019 -0.000257089 0)
(0.00230373 -2.26593e-05 0)
(0.00211056 -0.000224569 0)
(0.00114197 -0.00046661 0)
(0.0021364 -1.93708e-05 0)
(0.00187656 -0.000232961 0)
(0.00170214 -6.6062e-05 0)
(0.00107967 -0.000377347 0)
(0.00135475 -0.000217709 0)
(0.000642712 -0.000757932 0)
(0.00094248 -0.000467462 0)
(0.000563596 -0.000882418 0)
(0.00225103 -8.01816e-05 0)
(0.00193242 -0.000136119 0)
(0.00203293 -7.07924e-05 0)
(0.00188644 -1.20838e-05 0)
(0.00182633 -4.35574e-05 0)
(0.00104052 -0.00044078 0)
(0.00239466 -6.93292e-05 0)
(0.000668968 -0.000672226 0)
(0.00130523 -0.000256648 0)
(0.000146227 -0.00115935 0)
(0.00175572 -0.000252768 0)
(0.00208278 -1.19775e-05 0)
(0.00172756 -0.000115827 0)
(0.00151505 -0.000194497 0)
(0.00180101 -7.90614e-05 0)
(0.00137851 -0.000333395 0)
(0.00220237 -0.000125183 0)
(0.00231522 -0.000152544 0)
(0.00244894 -3.35836e-05 0)
(0.000800187 -0.000585014 0)
(0.00128764 -0.000313843 0)
(0.00151578 -0.000166763 0)
(0.00211218 -9.08755e-05 0)
(0.00247072 -1.32718e-05 0)
(0.00228158 -0.000205691 0)
(0.00190325 -0.000109575 0)
(0.00235905 -9.98285e-05 0)
(0.00182327 -2.97356e-05 0)
(0.00176868 -6.82044e-05 0)
(0.0015833 -0.000204987 0)
(0.00171639 -0.000176316 0)
(0.00197868 -1.0669e-05 0)
(0.00192662 -2.83687e-05 0)
(0.00214 -4.5095e-05 0)
(0.00201093 -3.81984e-05 0)
(0.00220615 -5.06117e-05 0)
(0.00157925 -0.000129889 0)
(0.00160964 -0.000142264 0)
(0.0020486 -0.000122404 0)
(0.00222171 -0.000163264 0)
(0.00235838 -4.55345e-05 0)
(0.000450855 -0.000889407 0)
(0.00024807 -0.00109773 0)
(0.00103059 -0.000607742 0)
(0.00205505 -0.000180617 0)
(0.00220041 -1.13717e-05 0)
(0.00136805 -0.000222622 0)
(0.00193826 -0.000257065 0)
(0.000784678 -0.000572857 0)
(0.00192915 -0.000192155 0)
(0.00160874 -0.000102287 0)
(0.00237344 -1.47635e-05 0)
(0.00216447 -0.000234606 0)
(0.00195609 -7.58498e-05 0)
(0.00210195 -0.000142778 0)
(0.000567925 -0.000850943 0)
(0.000484742 -0.000889373 0)
(0.00110453 -0.000373419 0)
(8.60783e-05 -0.00124185 0)
(0.00156074 -0.000272244 0)
(0.000852723 -0.000584011 0)
(0.00170462 -0.000155972 0)
(0.00232269 -7.42437e-05 0)
(0.0014236 -0.000181845 0)
(0.0021927 -7.23896e-05 0)
(0.000487226 -0.000956737 0)
(0.000301833 -0.00106525 0)
(0.00101383 -0.000419129 0)
(0.00176387 -0.000205735 0)
(0.00226894 -3.86208e-05 0)
(0.00213616 -0.000190029 0)
(0.000218645 -0.00106795 0)
(0.0019305 -9.44053e-06 0)
(0.00173014 -5.82939e-05 0)
(0.0018679 -1.19694e-05 0)
(0.0018013 -6.69267e-05 0)
(0.00167833 -0.000109385 0)
(0.00138602 -0.000307183 0)
(0.0014565 -0.000174949 0)
(0.0020303 -8.19265e-06 0)
(0.00175798 -5.85126e-05 0)
(0.000430158 -0.000963367 0)
(0.00176522 -0.000132082 0)
(0.00244782 -4.57686e-05 0)
(0.00236302 -0.000118792 0)
(0.00202957 -0.000247804 0)
(0.00162498 -9.90793e-05 0)
(0.00226122 -1.30644e-05 0)
(0.000129504 -0.00113243 0)
(0.00227415 -0.000120084 0)
(9.27475e-05 -0.00121825 0)
(0.001574 -0.000276221 0)
(0.00189561 -6.25878e-05 0)
(0.000336386 -0.00103295 0)
(0.00207039 -2.71367e-05 0)
(0.00188698 -2.28783e-05 0)
(0.00147725 -0.000231881 0)
(0.00174763 -5.51995e-05 0)
(0.0012235 -0.000287193 0)
(0.00194626 -3.94312e-05 0)
(0.000774163 -0.000624044 0)
(0.00161933 -0.000104377 0)
(0.00104076 -0.000424479 0)
(0.00184095 -2.2946e-05 0)
(0.00182846 -0.000167843 0)
(0.00182777 -3.10304e-05 0)
(0.000934289 -0.000477463 0)
(0.0011002 -0.000372785 0)
(0.00222711 -0.000140906 0)
(0.00231311 -0.000179259 0)
(0.00248084 -1.94624e-05 0)
(0.000778859 -0.000796449 0)
(0.00221103 -0.000102854 0)
(0.00233567 -3.33173e-05 0)
(0.00139522 -0.000224876 0)
(0.00163635 -0.000273523 0)
(0.000983636 -0.000525491 0)
(0.00191121 -0.000166406 0)
(0.00125912 -0.000294372 0)
(0.00208273 -5.73772e-05 0)
(0.00206258 -0.000211782 0)
(0.00202374 -5.40873e-05 0)
(0.00207707 -7.64627e-05 0)
(0.00167969 -9.03183e-05 0)
(0.00121204 -0.000322091 0)
(0.00140266 -0.000270357 0)
(0.000330933 -0.000995431 0)
(0.00127732 -0.000474238 0)
(0.00144364 -0.000236207 0)
(0.00177972 -4.10779e-05 0)
(0.000143477 -0.00119967 0)
(0.000514028 -0.000807196 0)
(0.00212484 -3.21138e-05 0)
(0.00214718 -8.39354e-06 0)
(0.00185303 -1.33407e-05 0)
(0.00117032 -0.000373489 0)
(0.00128582 -0.000257489 0)
(0.00184917 -0.000266856 0)
(0.00183661 -0.000117672 0)
(0.00218003 -9.21898e-05 0)
(0.00183014 -0.000213644 0)
(0.00117045 -0.00038796 0)
(0.00243454 -9.17996e-06 0)
(0.00222662 -0.000230854 0)
(0.00147695 -0.000297865 0)
(0.00231638 -6.27707e-05 0)
(0.00249944 -5.57109e-06 0)
(0.00230068 -0.000220232 0)
(0.00138196 -0.000215074 0)
)
;

boundaryField
{
    back
    {
        type            empty;
    }
    front
    {
        type            empty;
    }
    down
    {
        type            symmetry;
    }
    right
    {
        type            calculated;
    }
    up
    {
        type            calculated;
    }
    left
    {
        type            symmetry;
    }
    hole
    {
        type            calculated;
    }
}


// ************************************************************************* //
