/*--------------------------------*- C++ -*----------------------------------*\
| =========                 |                                                 |
| \\      /  F ield         | OpenFOAM: The Open Source CFD Toolbox           |
|  \\    /   O peration     | Version:  v2012                                 |
|   \\  /    A nd           | Website:  www.openfoam.com                      |
|    \\/     M anipulation  |                                                 |
\*---------------------------------------------------------------------------*/
FoamFile
{
    version     2.0;
    format      ascii;
    class       volScalarField;
    location    "5";
    object      sigmaHyd;
}
// * * * * * * * * * * * * * * * * * * * * * * * * * * * * * * * * * * * * * //

dimensions      [1 -1 -2 0 0 0 0];


internalField   nonuniform List<scalar> 
470
(
1.64673e+07
1.92466e+07
3.3485e+07
3.34267e+07
2.0097e+07
3.06119e+07
2.90695e+07
1.75358e+07
4.16539e+07
3.31212e+07
3.92776e+07
4.49755e+07
4.54425e+07
3.18939e+07
5.0446e+07
3.87499e+07
3.30276e+07
3.00691e+07
2.7721e+07
1.84989e+07
3.98161e+07
3.30043e+07
3.33611e+07
3.21858e+07
3.61926e+07
2.82905e+07
3.33871e+07
3.61561e+07
3.09966e+07
3.25472e+07
1.97185e+07
5.11168e+07
3.37879e+07
5.89044e+07
3.10436e+07
3.05289e+07
4.91535e+07
2.14015e+07
2.29477e+07
1.57102e+07
2.9006e+07
2.65605e+07
4.54345e+07
2.80684e+07
3.75079e+07
4.50556e+07
2.32306e+07
3.4188e+07
3.21598e+07
3.70433e+07
4.88254e+07
5.00914e+07
2.96298e+07
2.81364e+07
3.38421e+07
3.32507e+07
3.06278e+07
2.92454e+07
3.13935e+07
3.5266e+07
3.0277e+07
3.91153e+07
4.53128e+07
4.43465e+07
2.71265e+07
6.43478e+07
2.08576e+07
3.24606e+07
4.51803e+06
3.58498e+07
1.23045e+07
3.2178e+07
5.08377e+07
2.91766e+07
5.20747e+07
3.41166e+07
3.23057e+07
3.18178e+07
2.97969e+07
6.05487e+07
2.97064e+07
6.38123e+07
3.41672e+07
2.11552e+06
3.97382e+07
3.32789e+07
4.61553e+07
3.70582e+07
4.91504e+07
4.58844e+07
4.93758e+07
4.76989e+07
2.97419e+07
3.15925e+07
4.7799e+07
5.01571e+07
2.40293e+07
3.06717e+07
2.28061e+07
3.20571e+07
3.28502e+07
3.63271e+07
5.70879e+07
3.4836e+07
3.51991e+07
3.06302e+07
3.10408e+07
2.28407e+07
-2.69446e+07
7.61735e+07
4.62045e+07
6.84336e+07
3.46848e+07
3.01693e+07
9.96259e+06
3.23559e+07
3.41522e+07
4.70994e+07
2.62081e+07
2.10985e+07
2.72851e+07
3.34627e+07
3.10445e+07
3.67171e+07
3.01277e+07
3.40509e+07
3.36783e+07
3.28674e+07
4.80873e+07
3.29448e+07
1.8163e+07
2.03572e+07
2.86172e+07
3.23333e+07
3.25758e+07
3.24857e+07
3.12093e+07
2.72797e+07
4.58614e+07
2.97128e+07
2.99514e+07
3.72448e+07
3.24954e+07
3.15989e+07
3.182e+07
2.0513e+07
3.61241e+07
4.12746e+07
3.14531e+07
4.36163e+07
2.75973e+07
3.53324e+07
1.48628e+07
3.45317e+07
7.5218e+07
3.7667e+07
-2.40888e+07
2.86696e+07
2.93786e+07
3.27955e+07
7.11117e+07
4.49154e+07
3.54334e+07
5.00909e+07
5.28113e+07
1.72586e+07
1.78317e+07
4.88218e+07
3.05025e+07
2.57047e+07
2.22354e+07
3.2057e+07
3.19689e+07
3.21875e+07
3.20353e+07
3.06937e+07
2.92793e+07
-4.91043e+06
3.47689e+07
2.17336e+07
2.42534e+07
4.52992e+07
3.14261e+07
3.55238e+07
3.67571e+07
4.36862e+07
3.18194e+07
-2.07085e+06
3.84574e+07
3.17068e+07
3.09895e+07
2.70104e+07
3.39547e+07
3.34739e+07
1.32201e+07
2.8455e+07
3.4182e+07
3.27146e+07
3.27765e+07
1.00886e+08
1.49645e+07
9.94466e+06
1.00499e+08
1.86422e+07
3.62979e+07
3.84031e+07
2.51295e+07
2.63187e+07
2.15919e+07
-3.23173e+07
3.29973e+07
3.41258e+07
-3.13893e+07
3.00661e+07
4.39075e+07
4.20523e+07
3.17486e+07
2.6947e+07
3.09159e+07
2.57041e+07
-2.01312e+07
1.84582e+07
3.18991e+07
3.09021e+07
2.94898e+07
3.15395e+07
3.73251e+07
-5.84606e+06
5.38842e+07
4.72693e+07
3.3964e+07
-5.33396e+06
3.72789e+07
2.94175e+07
3.70533e+07
3.02828e+07
9.25081e+06
3.10668e+07
3.07191e+07
3.59651e+07
3.522e+07
3.62056e+07
3.00469e+07
7.24996e+07
7.01765e+07
5.01012e+07
4.40788e+07
3.1987e+07
2.53439e+07
3.2277e+07
3.20371e+07
3.52724e+07
3.72864e+07
2.95298e+07
3.84583e+07
2.36108e+07
2.65566e+07
3.68077e+07
2.98821e+07
1.6883e+07
3.25253e+07
5.74583e+07
6.19796e+06
220308
2.44493e+07
3.64712e+07
2.97439e+07
3.04621e+07
2.58446e+07
3.85288e+07
3.3138e+07
-667138
5.02379e+07
1.2588e+07
3.88106e+07
3.34096e+07
4.17857e+07
3.50023e+07
4.19974e+07
3.23175e+07
3.19232e+07
3.76888e+07
2.69493e+07
3.53918e+07
3.36894e+07
3.45455e+07
3.94855e+07
4.13372e+07
3.14753e+07
9.14636e+06
1.83807e+07
4.86107e+06
1.01057e+07
4.61262e+07
3.9334e+07
3.06226e+07
3.20575e+07
3.13878e+07
3.84494e+07
3.20303e+07
3.22439e+07
1.58956e+07
3.16844e+07
3.18886e+07
5.21694e+07
2.4291e+07
3.18553e+07
3.2138e+07
9.47851e+06
1.23646e+07
4.14856e+07
3.65717e+07
8.68686e+07
3.11779e+07
6.59105e+06
4.33353e+07
1.27372e+07
72431.3
4.60307e+07
2.79456e+07
4.28997e+07
2.82579e+07
3.02981e+07
3.22784e+07
4.22894e+07
2.95727e+07
3.41049e+07
1.78507e+07
1.64111e+07
-7.82028e+06
2.61912e+07
-1.17584e+07
2.90199e+07
3.10368e+07
964443
2.7589e+07
2.2855e+07
3.03757e+07
4.57583e+07
3.1496e+07
2.8484e+07
8.04154e+07
4.55434e+07
-1.16203e+07
3.18848e+07
4.17823e+07
4.43711e+07
3.11377e+07
3.75348e+07
2.92277e+07
2.40082e+07
2.44912e+07
3.91755e+07
3.98977e+07
4.03615e+07
-1.12008e+07
3.80368e+07
3.11449e+07
3.70229e+07
3.33589e+06
3.68858e+07
3.54462e+07
3.12576e+07
3.38972e+07
6.31464e+07
2.92459e+07
2.77705e+07
4.25851e+07
569722
2.93559e+07
2.46442e+07
2.64842e+07
3.77403e+07
3.44111e+07
-1.60722e+07
-9.21484e+06
-1.75158e+07
3.14921e+07
8.48427e+07
-9.70493e+06
2.69094e+07
6.12807e+07
3.19719e+07
3.39662e+07
3.20907e+07
9.27808e+07
4.30242e+07
4.2729e+07
4.06368e+07
2.95964e+07
4.16918e+07
3.11669e+07
3.22912e+07
5.69964e+07
3.15873e+07
2.93543e+07
3.61457e+07
2.94693e+07
4.73814e+07
3.59373e+07
4.64525e+07
8.87734e+07
3.30856e+07
4.81274e+06
4.37613e+07
4.22482e+07
4.05183e+07
3.22406e+07
3.77923e+07
3.79424e+07
2.90504e+07
2.90541e+07
2.8741e+07
3.51778e+07
3.21715e+07
4.97068e+07
3.36259e+07
5.15216e+06
4.31839e+07
8.06722e+06
2.6464e+07
1.06432e+07
3.46271e+07
3.33766e+07
3.36319e+07
8.28603e+07
4.93814e+07
2.22264e+07
4.05262e+07
3.4564e+07
4.31902e+07
3.07086e+07
3.47614e+07
3.62969e+07
-1.88e+07
-2.3354e+07
3.51625e+07
2.98131e+07
3.18197e+07
3.22778e+07
2.8423e+07
4.73399e+07
3.30325e+07
2.95936e+07
4.14502e+07
3.11929e+07
2.34609e+07
3.15255e+07
4.60176e+06
3.19967e+07
3.49628e+07
4.38814e+07
4.24346e+07
3.20617e+07
3.22108e+07
1.2321e+07
3.39197e+07
4.39299e+07
1.52634e+07
1.55577e+07
3.23339e+07
2.43955e+07
1.33445e+07
4.25567e+07
4.05194e+07
4.07391e+07
2.95833e+07
2.91302e+07
3.27958e+07
3.57976e+07
)
;

boundaryField
{
    back
    {
        type            empty;
    }
    front
    {
        type            empty;
    }
    down
    {
        type            symmetry;
    }
    right
    {
        type            zeroGradient;
    }
    up
    {
        type            zeroGradient;
    }
    left
    {
        type            symmetry;
    }
    hole
    {
        type            zeroGradient;
    }
}


// ************************************************************************* //
