/*--------------------------------*- C++ -*----------------------------------*\
| =========                 |                                                 |
| \\      /  F ield         | OpenFOAM: The Open Source CFD Toolbox           |
|  \\    /   O peration     | Version:  v2012                                 |
|   \\  /    A nd           | Website:  www.openfoam.com                      |
|    \\/     M anipulation  |                                                 |
\*---------------------------------------------------------------------------*/
FoamFile
{
    version     2.0;
    format      ascii;
    class       volScalarField;
    location    "5";
    object      sigmaEq;
}
// * * * * * * * * * * * * * * * * * * * * * * * * * * * * * * * * * * * * * //

dimensions      [1 -1 -2 0 0 0 0];


internalField   nonuniform List<scalar> 
470
(
3.44372e+07
2.87387e+07
6.87112e+07
4.44642e+07
6.1649e+07
6.27547e+07
5.63477e+07
6.06164e+07
9.31778e+07
6.62533e+07
9.06293e+07
1.046e+08
1.03332e+08
4.40482e+07
1.05576e+08
8.08065e+07
6.68458e+07
4.32633e+07
3.74372e+07
3.2394e+07
8.31483e+07
5.2893e+07
6.78807e+07
4.66633e+07
9.89868e+07
5.42221e+07
9.9436e+07
7.55168e+07
6.16563e+07
4.59626e+07
3.02316e+07
1.04592e+08
6.94013e+07
1.24204e+08
6.27822e+07
6.08324e+07
1.06746e+08
3.78053e+07
3.49817e+07
3.35648e+07
8.70593e+07
3.62988e+07
1.00295e+08
8.59431e+07
7.56838e+07
1.01539e+08
4.88748e+07
9.2081e+07
9.51674e+07
9.50867e+07
1.00638e+08
1.0395e+08
4.24839e+07
3.97013e+07
5.0666e+07
5.18305e+07
5.379e+07
6.28758e+07
7.41917e+07
7.22711e+07
5.63033e+07
1.06149e+08
9.92552e+07
1.10686e+08
7.55295e+07
1.14815e+08
4.18854e+07
5.44427e+07
6.01649e+07
7.82351e+07
2.13882e+07
6.45265e+07
1.09837e+08
6.71294e+07
1.13974e+08
5.00478e+07
6.29088e+07
6.06303e+07
7.35656e+07
9.27187e+07
7.91853e+07
1.13045e+08
6.90789e+07
6.72446e+07
9.85588e+07
5.17874e+07
1.10794e+08
7.04281e+07
1.07229e+08
1.21189e+08
1.07329e+08
1.01338e+08
6.23711e+07
6.2157e+07
1.03872e+08
1.05745e+08
5.24064e+07
5.81838e+07
6.93884e+07
6.45762e+07
5.06493e+07
9.24473e+07
1.2034e+08
4.81316e+07
4.69261e+07
5.89012e+07
5.74464e+07
5.73042e+07
6.50182e+07
1.43738e+08
9.77301e+07
1.11729e+08
4.89456e+07
6.12255e+07
6.49009e+07
7.26837e+07
4.54992e+07
9.606e+07
5.77574e+07
2.91973e+07
6.20709e+07
4.84318e+07
4.34684e+07
4.61396e+07
5.73766e+07
7.49008e+07
7.88887e+07
5.29182e+07
9.93608e+07
4.82949e+07
4.71871e+07
5.53849e+07
6.0595e+07
5.18852e+07
5.33168e+07
6.65889e+07
6.68592e+07
7.62246e+07
1.01666e+08
6.00662e+07
6.01804e+07
1.07006e+08
5.36897e+07
5.8308e+07
5.71948e+07
3.89354e+07
4.49005e+07
1.03984e+08
5.31511e+07
1.07263e+08
3.86853e+07
4.56044e+07
7.92196e+07
4.97832e+07
1.5199e+08
8.13342e+07
4.44219e+07
5.29615e+07
5.23472e+07
6.48762e+07
1.1821e+08
9.94052e+07
7.39595e+07
1.04008e+08
8.88068e+07
8.57903e+07
8.06668e+07
1.03778e+08
6.92227e+07
8.88024e+07
8.33621e+07
5.82108e+07
5.88949e+07
6.10822e+07
5.95952e+07
5.57906e+07
3.97769e+07
1.79974e+07
1.09005e+08
7.96118e+07
7.5245e+07
1.01379e+08
6.49565e+07
7.5396e+07
7.72745e+07
9.46276e+07
6.13954e+07
2.10854e+07
7.7273e+07
4.64954e+07
5.95982e+07
4.88637e+07
7.21382e+07
7.02345e+07
3.78609e+07
4.30461e+07
7.02972e+07
6.48024e+07
6.56707e+07
1.94363e+08
2.50608e+07
2.26698e+07
1.93019e+08
8.69875e+07
7.5792e+07
7.91329e+07
3.45628e+07
3.96151e+07
7.88728e+07
6.21182e+07
5.19532e+07
6.95823e+07
6.51859e+07
4.56029e+07
9.2692e+07
9.18307e+07
5.41498e+07
4.88912e+07
4.86488e+07
9.34287e+07
3.61559e+07
4.60857e+07
6.32229e+07
4.73455e+07
9.68103e+07
6.48459e+07
8.91693e+07
4.2249e+07
8.99971e+07
1.02188e+08
8.96217e+07
4.14334e+07
4.33987e+07
5.94902e+07
7.47462e+07
6.11178e+07
3.26195e+07
5.64664e+07
5.71283e+07
4.60052e+07
4.80493e+07
4.64488e+07
5.81855e+07
1.05247e+08
1.11788e+08
9.5706e+07
7.50996e+07
5.51365e+07
3.5262e+07
6.20573e+07
6.14144e+07
7.27353e+07
4.42435e+07
5.86072e+07
8.19481e+07
3.52065e+07
4.20069e+07
4.47955e+07
5.82917e+07
2.36541e+07
6.99013e+07
1.17448e+08
1.91158e+07
4.25086e+07
4.27349e+07
4.56765e+07
5.89887e+07
4.15079e+07
4.25953e+07
7.89376e+07
6.7836e+07
5.52669e+07
1.04104e+08
8.17102e+07
8.11001e+07
9.94171e+07
1.10438e+08
7.20729e+07
9.56237e+07
5.55981e+07
6.45288e+07
8.47163e+07
5.48529e+07
7.99904e+07
4.65365e+07
4.58899e+07
7.86606e+07
8.88163e+07
5.11988e+07
4.3228e+07
8.83333e+07
6.9296e+07
3.99611e+07
9.66995e+07
8.59506e+07
5.17114e+07
4.98877e+07
6.38274e+07
8.92889e+07
4.34602e+07
5.56204e+07
3.76916e+07
5.47193e+07
5.42465e+07
1.02869e+08
7.19273e+07
5.85032e+07
5.6576e+07
6.10878e+07
5.56573e+07
1.06808e+08
1.11369e+08
1.70975e+08
5.60338e+07
6.34579e+07
1.04094e+08
8.39882e+07
3.22256e+07
9.92654e+07
4.74998e+07
8.81292e+07
4.6952e+07
5.25179e+07
4.89395e+07
8.8506e+07
4.08457e+07
6.96509e+07
6.79209e+07
6.56965e+07
5.10084e+07
5.25745e+07
4.87115e+07
7.92414e+07
7.87823e+07
5.73596e+07
6.75122e+07
3.06444e+07
4.95667e+07
9.41998e+07
6.03299e+07
4.31172e+07
1.29918e+08
9.33007e+07
2.56123e+07
5.6017e+07
8.50127e+07
9.10924e+07
5.38306e+07
4.3286e+07
5.93116e+07
3.18159e+07
6.24464e+07
8.28461e+07
8.20823e+07
8.365e+07
3.47769e+07
7.76464e+07
6.32087e+07
4.4295e+07
2.16657e+07
4.41911e+07
4.78176e+07
5.53122e+07
7.02823e+07
1.26741e+08
5.96475e+07
4.43973e+07
9.13466e+07
3.39948e+07
5.98795e+07
4.56672e+07
6.51561e+07
7.5788e+07
4.72199e+07
5.401e+07
2.11631e+07
3.53043e+07
5.78078e+07
1.30406e+08
5.4752e+07
7.40456e+07
1.26076e+08
6.50522e+07
4.93595e+07
5.254e+07
1.89153e+08
9.07001e+07
8.7502e+07
8.513e+07
4.73447e+07
1.09692e+08
4.32446e+07
6.60068e+07
1.09673e+08
5.86747e+07
4.5946e+07
4.44688e+07
6.00577e+07
9.8373e+07
7.46673e+07
1.00614e+08
1.27582e+08
6.57775e+07
4.63195e+07
1.12536e+08
7.49967e+07
1.14631e+08
6.41523e+07
4.30875e+07
4.33545e+07
5.95291e+07
5.91552e+07
3.89573e+07
7.18434e+07
5.53462e+07
1.09128e+08
4.96125e+07
4.80401e+07
8.94626e+07
3.21751e+07
7.13589e+07
2.59129e+07
7.10593e+07
4.9751e+07
6.69278e+07
1.4616e+08
9.80879e+07
9.13694e+07
9.94771e+07
6.5971e+07
1.00778e+08
1.02131e+08
8.38409e+07
8.34039e+07
4.65302e+07
3.39814e+07
4.50949e+07
6.05634e+07
5.67183e+07
8.65799e+07
1.04328e+08
9.85559e+07
4.62213e+07
1.07999e+08
8.71764e+07
1.0492e+08
9.39251e+07
6.18027e+07
2.42428e+07
5.67442e+07
7.13827e+07
8.96208e+07
8.97003e+07
5.62055e+07
5.44096e+07
5.50542e+07
8.70224e+07
9.23584e+07
5.24001e+07
5.02701e+07
6.71475e+07
6.46657e+07
4.08137e+07
8.76811e+07
8.91058e+07
8.3308e+07
5.11049e+07
4.86207e+07
7.96791e+07
8.84369e+07
)
;

boundaryField
{
    back
    {
        type            empty;
    }
    front
    {
        type            empty;
    }
    down
    {
        type            symmetry;
    }
    right
    {
        type            calculated;
        value           nonuniform List<scalar> 10(5.00431e+07 4.56178e+07 5.72925e+07 5.29455e+07 4.46869e+07 5.82748e+07 4.7785e+07 5.52308e+07 4.35395e+07 5.91637e+07);
    }
    up
    {
        type            calculated;
        value           nonuniform List<scalar> 
20
(
1.05339e+08
7.63046e+07
1.0107e+08
6.15254e+07
6.14526e+07
9.9304e+07
7.2962e+07
1.04465e+08
6.79579e+07
1.02602e+08
6.42811e+07
8.85702e+07
9.4707e+07
9.33569e+07
8.16594e+07
8.20178e+07
6.476e+07
6.03146e+07
5.95809e+07
7.23548e+07
)
;
    }
    left
    {
        type            symmetry;
    }
    hole
    {
        type            calculated;
        value           nonuniform List<scalar> 8(7.03201e+07 4.65571e+07 1.95564e+08 6.20691e+07 4.16246e+07 1.7142e+08 1.23337e+08 2.14075e+07);
    }
}


// ************************************************************************* //
