/*--------------------------------*- C++ -*----------------------------------*\
| =========                 |                                                 |
| \\      /  F ield         | OpenFOAM: The Open Source CFD Toolbox           |
|  \\    /   O peration     | Version:  v2012                                 |
|   \\  /    A nd           | Website:  www.openfoam.com                      |
|    \\/     M anipulation  |                                                 |
\*---------------------------------------------------------------------------*/
FoamFile
{
    version     2.0;
    format      ascii;
    class       volSymmTensorField;
    location    "7";
    object      epsilon;
}
// * * * * * * * * * * * * * * * * * * * * * * * * * * * * * * * * * * * * * //

dimensions      [0 0 0 0 0 0 0];


internalField   nonuniform List<symmTensor> 
500
(
(0.00605411 -0.00050114 2.1684e-18 -0.00364753 -1.10589e-17 0)
(0.00446956 -0.00110857 5.42101e-18 -0.00226553 -8.67362e-19 0)
(0.00464326 5.53531e-06 1.51788e-18 -0.00199685 -1.0842e-18 0)
(0.00334443 -0.000689974 3.25261e-18 -0.00112178 3.46945e-18 0)
(0.00349934 0.000297961 5.42101e-19 -0.00102712 1.95156e-18 0)
(0.00277577 -0.00026512 1.30104e-18 -0.000933398 1.30104e-18 0)
(0.00286891 0.000332023 2.71051e-19 -0.000795852 1.95156e-18 0)
(0.00240927 -7.24573e-05 0 -0.000801434 4.33681e-19 0)
(0.00247269 0.000334024 0 -0.000710148 1.73472e-18 0)
(0.0021485 2.70252e-05 -1.0842e-19 -0.000725801 4.33681e-19 0)
(0.00463034 -0.00112804 8.67362e-18 -0.00226339 -8.67362e-19 0)
(0.0030739 -0.00127926 7.15573e-18 -0.000977268 -2.1684e-18 0)
(0.00350896 -0.000401971 4.01155e-18 -0.00121714 1.51788e-18 0)
(0.00282537 -0.000665836 2.38524e-18 -0.000975896 -1.30104e-18 0)
(0.00318417 7.24444e-05 1.40946e-18 -0.00105057 1.51788e-18 0)
(0.00256938 -0.000244026 0 -0.000946908 8.67362e-19 0)
(0.00283266 0.000306072 3.25261e-19 -0.000931961 2.1684e-19 0)
(0.00235244 1.71484e-05 2.1684e-19 -0.000905096 -8.67362e-19 0)
(0.0025454 0.000424235 -2.1684e-19 -0.000861581 4.33681e-19 0)
(0.00217216 0.000176886 0 -0.000864575 -4.33681e-19 0)
(0.00301077 -0.00124107 6.93889e-18 -0.000995421 -3.90313e-18 0)
(0.00231059 -0.0012352 1.30104e-18 -0.00060832 -8.67362e-19 0)
(0.00294055 -0.000566754 8.67362e-19 -0.00105244 -1.0842e-18 0)
(0.00234258 -0.000667708 0 -0.000832949 4.33681e-19 0)
(0.00283958 -0.000114691 8.67362e-19 -0.00105948 -8.67362e-19 0)
(0.00230821 -0.000282448 8.67362e-19 -0.00095742 -1.73472e-18 0)
(0.00269307 0.000165531 -4.33681e-19 -0.00103748 -4.33681e-19 0)
(0.00223974 -2.56226e-05 2.1684e-19 -0.00101004 4.33681e-19 0)
(0.00253636 0.000333514 -4.33681e-19 -0.00100481 -6.50521e-19 0)
(0.00215759 0.000144112 4.33681e-19 -0.00101928 -4.33681e-19 0)
(0.00203134 -0.0011929 1.51788e-18 -0.000578933 -1.0842e-18 0)
(0.00159311 -0.00103078 -4.33681e-19 -0.000294429 2.1684e-19 0)
(0.00229818 -0.000629036 6.50521e-19 -0.00086083 -8.67362e-19 0)
(0.00186629 -0.000632424 1.73472e-18 -0.000725508 -6.50521e-19 0)
(0.00242332 -0.000263928 1.30104e-18 -0.00100618 -2.05998e-18 0)
(0.00199811 -0.000357007 0 -0.00096011 4.33681e-19 0)
(0.00244623 -2.3703e-05 2.1684e-19 -0.0010656 2.1684e-19 0)
(0.00204541 -0.000163578 -8.67362e-19 -0.00107642 -2.1684e-19 0)
(0.00240873 0.000133661 6.50521e-19 -0.00107383 4.33681e-19 0)
(0.00204341 -2.70969e-05 8.67362e-19 -0.00112063 -6.50521e-19 0)
(0.00107186 -0.000847108 8.67362e-19 -0.000286166 -4.33681e-19 0)
(0.00104058 -0.000694704 8.67362e-19 -0.00018179 0 0)
(0.00163981 -0.000566157 1.30104e-18 -0.000702248 -4.33681e-19 0)
(0.0014298 -0.000552185 1.0842e-18 -0.000662141 0 0)
(0.00194369 -0.000362755 -8.67362e-19 -0.000923028 2.1684e-19 0)
(0.00165633 -0.000425204 4.33681e-19 -0.000925326 3.25261e-19 0)
(0.00209403 -0.000213482 -8.67362e-19 -0.00102957 0 0)
(0.00178016 -0.000313748 0 -0.00105613 2.1684e-19 0)
(0.00215273 -0.000101596 -8.67362e-19 -0.00107008 6.50521e-19 0)
(0.00181906 -0.000207579 1.0842e-18 -0.00109448 -3.25261e-19 0)
(0.000390619 -0.000346287 4.33681e-19 -0.000228664 0 0)
(0.00066364 -0.000352811 4.33681e-19 -0.000238165 -2.1684e-19 0)
(0.00103802 -0.000395378 1.73472e-18 -0.000583969 -4.33681e-19 0)
(0.000994974 -0.000473161 4.33681e-19 -0.000614043 0 0)
(0.00140526 -0.000382823 -8.67362e-19 -0.000759016 1.0842e-19 0)
(0.00119415 -0.000521715 -4.33681e-19 -0.000813727 1.0842e-19 0)
(0.00160224 -0.000346658 0 -0.000812384 -1.0842e-19 0)
(0.00131301 -0.000547847 -4.33681e-19 -0.000900809 0 0)
(0.00168077 -0.000306913 4.33681e-19 -0.000757522 -1.0842e-19 0)
(0.00139948 -0.000602588 0 -0.000910739 0 0)
(0.000124873 0.000109886 -4.33681e-19 -0.000491204 -1.0842e-19 0)
(0.000559071 -0.000103882 0 -0.000493633 -1.0842e-19 0)
(0.000642972 -0.000214128 0 -0.000660257 -2.1684e-19 0)
(0.00075386 -0.000397882 8.67362e-19 -0.000677054 1.0842e-19 0)
(0.000963002 -0.000388111 2.60209e-18 -0.000743617 -1.6263e-19 0)
(0.000892938 -0.000562393 -8.67362e-19 -0.00077096 2.1684e-19 0)
(0.00116191 -0.00048763 2.1684e-18 -0.000780338 -1.0842e-19 0)
(0.000996921 -0.000656202 8.67362e-19 -0.000815539 -3.79471e-19 0)
(0.00129518 -0.000565213 4.33681e-19 -0.000816027 5.42101e-20 0)
(0.00108104 -0.000698033 4.33681e-19 -0.000848542 -5.42101e-20 0)
(0.000146938 0.000415179 4.33681e-19 -0.000943594 -2.1684e-19 0)
(0.000581828 2.78446e-06 1.73472e-18 -0.000827859 -2.71051e-19 0)
(0.000435226 -4.34375e-05 2.1684e-18 -0.000840998 -1.0842e-19 0)
(0.000592919 -0.000327868 -8.67362e-19 -0.000779003 1.0842e-19 0)
(0.000636583 -0.000310532 -8.67362e-19 -0.000772132 -2.71051e-20 0)
(0.000631105 -0.000517232 1.73472e-18 -0.000739986 -1.0842e-19 0)
(0.000782997 -0.000469054 0 -0.000726135 2.71051e-20 0)
(0.000686441 -0.000618138 -8.67362e-19 -0.00071185 0 0)
(0.000898204 -0.000557073 0 -0.000697594 1.0842e-19 0)
(0.000747851 -0.000665909 -1.73472e-18 -0.000693124 1.35525e-19 0)
(0.000323248 0.000497248 -4.33681e-19 -0.00142216 5.42101e-20 0)
(0.000619244 -3.26157e-05 1.73472e-18 -0.0011145 -1.35525e-19 0)
(0.000359737 7.46672e-05 0 -0.00104803 -5.42101e-20 0)
(0.000448825 -0.000284979 0 -0.000856435 -5.42101e-20 0)
(0.000414592 -0.000174104 -1.73472e-18 -0.000801225 0 0)
(0.000404926 -0.000404873 1.73472e-18 -0.000690362 -5.42101e-20 0)
(0.000484864 -0.000317502 8.67362e-19 -0.000653017 5.42101e-20 0)
(0.000423672 -0.000465746 8.67362e-19 -0.000588983 -5.42101e-20 0)
(0.000560939 -0.000399112 8.67362e-19 -0.0005649 -5.42101e-20 0)
(0.000473953 -0.000500105 8.67362e-19 -0.000525907 6.77626e-20 0)
(0.000520766 0.000331861 -1.30104e-18 -0.00179126 0 0)
(0.000393269 -0.000224049 8.67362e-19 -0.00120047 2.71051e-20 0)
(0.000327265 0.000121673 2.60209e-18 -0.00114564 -2.71051e-20 0)
(0.000262598 -0.000211967 -1.73472e-18 -0.000829364 2.71051e-20 0)
(0.000277593 5.40584e-06 0 -0.000795242 -6.77626e-20 0)
(0.000231848 -0.00020193 -4.33681e-19 -0.000616169 -1.35525e-20 0)
(0.000297574 -6.71671e-05 -8.67362e-19 -0.000595364 4.06576e-20 0)
(0.000255621 -0.000191416 -8.67362e-19 -0.000495465 1.35525e-20 0)
(0.000351834 -0.00011787 8.67362e-19 -0.000484484 1.35525e-20 0)
(0.000311924 -0.000180697 -8.67362e-19 -0.000436006 1.35525e-20 0)
(0.000462073 -0.000174788 -4.33681e-19 -0.000436006 1.35525e-20 0)
(0.000488667 -6.23395e-05 8.67362e-19 -0.00021351 -1.35525e-20 0)
(0.000481287 -0.000476377 0 -0.000514937 -3.38813e-20 0)
(0.000698856 -0.000242698 -1.73472e-18 -0.000277922 5.42101e-20 0)
(0.000685012 -0.000699715 -1.73472e-18 -0.000710348 1.21973e-19 0)
(0.00100067 -0.000350363 8.67362e-19 -0.000391225 0 0)
(0.000985773 -0.000799722 -8.67362e-19 -0.000937398 -2.71051e-20 0)
(0.00132765 -0.000363971 1.73472e-18 -0.000514762 0 0)
(0.00131844 -0.000754376 4.33681e-19 -0.0011109 -5.42101e-20 0)
(0.0016251 -0.000286096 4.33681e-19 -0.000612235 -2.71051e-20 0)
(0.000506361 -0.000158942 -8.67362e-19 -0.000227418 -6.77626e-21 0)
(0.000569459 -9.22474e-05 8.67362e-19 -0.000157435 6.77626e-21 0)
(0.00056374 -0.00041291 -1.73472e-18 -0.000345618 6.77626e-21 0)
(0.000739929 -0.000251909 -8.67362e-19 -0.000226592 0 0)
(0.000729013 -0.000612147 1.30104e-18 -0.000548948 -2.71051e-20 0)
(0.000978151 -0.000350515 -8.67362e-19 -0.000332108 5.42101e-20 0)
(0.00096611 -0.00071398 0 -0.000789921 9.48677e-20 0)
(0.00123567 -0.000373065 0 -0.00044419 -1.0842e-19 0)
(0.00122803 -0.000697356 -6.50521e-19 -0.00100683 8.13152e-20 0)
(0.00146559 -0.0003251 -8.67362e-19 -0.000531867 8.13152e-20 0)
(0.000608138 -0.000121506 -1.30104e-18 -0.000161351 0 0)
(0.000660087 -8.96237e-05 0 -0.000156749 0 0)
(0.000655733 -0.000333535 -2.60209e-18 -0.000255214 2.03288e-20 0)
(0.000784954 -0.000233291 8.67362e-19 -0.000212778 1.35525e-20 0)
(0.000776527 -0.000511022 8.67362e-19 -0.000416648 -2.71051e-20 0)
(0.00096385 -0.000331871 1.73472e-18 -0.000299678 2.71051e-20 0)
(0.000954208 -0.000622531 -1.73472e-18 -0.0006199 6.77626e-20 0)
(0.00116656 -0.000372718 1.73472e-18 -0.000397903 0 0)
(0.00116004 -0.00064898 -1.0842e-18 -0.000826014 1.6263e-19 0)
(0.00135865 -0.000357869 0 -0.00048491 0 0)
(0.000717162 -9.00048e-05 -1.30104e-18 -0.000156976 -1.01644e-20 0)
(0.00075377 -7.8857e-05 8.67362e-19 -0.00017998 -1.35525e-20 0)
(0.000750457 -0.000264312 1.73472e-18 -0.00022242 -1.35525e-20 0)
(0.000841327 -0.000205833 0 -0.000222057 1.35525e-20 0)
(0.000834908 -0.000417068 -4.33681e-19 -0.000338449 5.42101e-20 0)
(0.000971016 -0.000301231 -1.73472e-18 -0.000289956 0 0)
(0.0009635 -0.000527412 -2.1684e-18 -0.00049227 5.42101e-20 0)
(0.00112612 -0.000354459 8.67362e-19 -0.000372093 5.42101e-20 0)
(0.00112077 -0.000581089 8.67362e-19 -0.000661456 -1.35525e-20 0)
(0.00128517 -0.00036447 0 -0.000453934 0 0)
(0.000818183 -6.73058e-05 -4.33681e-19 -0.000179001 -3.38813e-21 0)
(0.000843109 -6.64896e-05 0 -0.000210483 -1.35525e-20 0)
(0.000840552 -0.000209533 -1.30104e-18 -0.000223138 -2.03288e-20 0)
(0.000903474 -0.000176911 -1.73472e-18 -0.000241676 0 0)
(0.000898589 -0.000337484 8.67362e-19 -0.000303592 -2.03288e-20 0)
(0.00099557 -0.000265262 8.67362e-19 -0.000294062 -5.42101e-20 0)
(0.000989832 -0.00043764 0 -0.000414284 -5.42101e-20 0)
(0.00111118 -0.000322873 -8.67362e-19 -0.000361197 0 0)
(0.00110698 -0.000500377 0 -0.000543057 0 0)
(0.00123868 -0.000346975 -4.33681e-19 -0.000434389 5.42101e-20 0)
(0.000906207 -5.15814e-05 0 -0.000209358 -1.35525e-20 0)
(0.000923211 -5.40319e-05 8.67362e-19 -0.000237943 0 0)
(0.000921188 -0.000167166 -1.30104e-18 -0.000239523 -3.38813e-21 0)
(0.000964429 -0.000148788 -3.46945e-18 -0.000261423 0 0)
(0.000960672 -0.000272154 1.73472e-18 -0.000295418 -2.71051e-20 0)
(0.00102879 -0.000227577 -3.46945e-18 -0.000302352 1.0842e-19 0)
(0.00102446 -0.000357493 -8.67362e-19 -0.000374128 5.42101e-20 0)
(0.00111288 -0.000283336 -8.67362e-19 -0.000357255 5.42101e-20 0)
(0.00110972 -0.000416727 -1.73472e-18 -0.000469213 -1.35525e-20 0)
(0.00121119 -0.000312615 0 -0.000420932 2.71051e-20 0)
(0.000979113 -4.07817e-05 -2.60209e-18 -0.00023712 0 0)
(0.000990656 -4.14918e-05 -8.67362e-19 -0.000254411 0 0)
(0.000989003 -0.000133945 3.46945e-18 -0.000258689 -6.09864e-20 0)
(0.00101818 -0.000121458 0 -0.000272514 -2.71051e-20 0)
(0.00101524 -0.000218121 -3.46945e-18 -0.000298789 0 0)
(0.00106211 -0.000189162 0 -0.000305655 -2.71051e-20 0)
(0.00105885 -0.000286943 0 -0.00035593 -2.71051e-20 0)
(0.00112153 -0.000238929 -1.73472e-18 -0.000351855 0 0)
(0.00111924 -0.000335886 0 -0.000426549 -5.42101e-20 0)
(0.00119414 -0.000267235 -4.33681e-19 -0.000407348 0 0)
(0.00103516 -3.35005e-05 8.67362e-19 -0.000254035 6.77626e-21 0)
(0.0010421 -2.84734e-05 1.73472e-18 -0.000251749 -1.35525e-20 0)
(0.0010407 -0.00010668 -4.33681e-18 -0.0002704 1.35525e-20 0)
(0.00105918 -9.34463e-05 -1.73472e-18 -0.000265674 0 0)
(0.00105682 -0.000171156 8.67362e-19 -0.000301017 5.42101e-20 0)
(0.0010881 -0.000148382 -1.73472e-18 -0.0002949 -2.71051e-20 0)
(0.00108562 -0.00022279 -8.67362e-19 -0.000345026 4.06576e-20 0)
(0.00112886 -0.00018934 1.73472e-18 -0.000337362 -5.42101e-20 0)
(0.00112722 -0.000258457 8.67362e-19 -0.000399923 2.71051e-20 0)
(0.00118008 -0.000213007 -8.67362e-19 -0.000388185 0 0)
(0.00107208 -2.9197e-05 -8.67362e-19 -0.000251782 -1.35525e-20 0)
(0.00107213 -1.47614e-05 -3.46945e-18 -0.000218042 2.03288e-20 0)
(0.00107093 -8.17768e-05 8.67362e-19 -0.000264514 2.03288e-20 0)
(0.00108035 -6.07685e-05 1.73472e-18 -0.000227521 1.35525e-20 0)
(0.00107842 -0.000124652 1.30104e-18 -0.000290821 -4.74338e-20 0)
(0.00110051 -9.90973e-05 0 -0.00026153 0 0)
(0.00109855 -0.000158275 8.67362e-19 -0.000329663 4.06576e-20 0)
(0.00112896 -0.00012958 1.73472e-18 -0.000307799 0 0)
(0.00112777 -0.000179761 -4.33681e-19 -0.000377135 5.42101e-20 0)
(0.00116418 -0.000147331 0 -0.000360931 1.0842e-19 0)
(0.00108673 -2.91043e-05 0 -0.000218291 0 0)
(0.00106466 -1.77924e-08 8.67362e-19 -0.000119501 -1.01644e-20 0)
(0.0010638 -4.89348e-05 -1.73472e-18 -0.000226902 -1.35525e-20 0)
(0.00107509 -9.6871e-06 0 -0.000149427 0 0)
(0.00107337 -6.7002e-05 -1.73472e-18 -0.000258763 1.35525e-20 0)
(0.00109428 -2.86905e-05 -1.73472e-18 -0.000196158 1.35525e-20 0)
(0.00109256 -8.08842e-05 -1.73472e-18 -0.000301998 8.13152e-20 0)
(0.00111919 -4.70248e-05 -4.33681e-19 -0.000258959 -2.71051e-20 0)
(0.00111822 -8.82299e-05 -3.46945e-18 -0.000352031 1.0842e-19 0)
(0.0011464 -6.11192e-05 8.67362e-19 -0.000330994 -2.71051e-20 0)
(0.0016251 -0.000541323 -4.33681e-19 -0.00115295 2.1684e-19 0)
(0.00175197 -0.000298191 -4.33681e-19 -0.000873648 2.1684e-19 0)
(0.00175197 -0.000396888 0 -0.00114225 1.0842e-19 0)
(0.00183558 -0.000227966 4.33681e-19 -0.000903684 -3.25261e-19 0)
(0.00183558 -0.000271916 -8.67362e-19 -0.00111567 1.0842e-19 0)
(0.00189015 -0.000154823 -1.30104e-18 -0.000917231 0 0)
(0.00189015 -0.000167616 2.1684e-19 -0.00107878 -2.1684e-19 0)
(0.00192551 -8.66114e-05 0 -0.000918071 4.33681e-19 0)
(0.00192551 -8.55606e-05 -2.1684e-19 -0.00103584 1.0842e-19 0)
(0.00194984 -2.74797e-05 0 -0.000910538 -2.1684e-19 0)
(0.00194984 -2.71754e-05 -8.67362e-19 -0.000991011 1.0842e-19 0)
(0.00197086 2.03781e-05 -4.33681e-19 -0.000899229 -2.1684e-19 0)
(0.00197086 6.52698e-06 -6.50521e-19 -0.000948859 0 0)
(0.00199642 5.60855e-05 8.67362e-19 -0.000888964 -4.33681e-19 0)
(0.00199642 1.5191e-05 -6.50521e-19 -0.000914606 3.25261e-19 0)
(0.00203475 7.99211e-05 -4.33681e-19 -0.000884818 2.1684e-19 0)
(0.00203475 -2.67817e-07 2.1684e-19 -0.000894581 0 0)
(0.00209434 9.33791e-05 -8.67362e-19 -0.000892035 2.1684e-19 0)
(0.00209434 -3.56369e-05 4.33681e-19 -0.000897161 -1.0842e-19 0)
(0.00218237 9.91734e-05 0 -0.000915439 0 0)
(0.00146559 -0.000498345 4.33681e-19 -0.000873648 -1.0842e-19 0)
(0.00155629 -0.000332695 -8.67362e-19 -0.000725025 1.0842e-19 0)
(0.00155629 -0.000442491 8.67362e-19 -0.000903684 5.42101e-20 0)
(0.00163709 -0.00029212 8.67362e-19 -0.000753809 -2.1684e-19 0)
(0.00163709 -0.000377108 0 -0.000917231 -1.0842e-19 0)
(0.00170619 -0.000246402 8.67362e-19 -0.000775781 -1.0842e-19 0)
(0.00170619 -0.000311974 2.1684e-19 -0.000918071 2.1684e-19 0)
(0.00176567 -0.000198703 1.30104e-18 -0.000791622 1.0842e-19 0)
(0.00176567 -0.000252659 -6.50521e-19 -0.000910538 2.71051e-19 0)
(0.00181934 -0.000151517 4.33681e-19 -0.000803116 -3.25261e-19 0)
(0.00181934 -0.000202302 -6.50521e-19 -0.000899229 1.6263e-19 0)
(0.00187184 -0.000106348 8.67362e-19 -0.000812723 -2.1684e-19 0)
(0.00187184 -0.000162342 -1.0842e-18 -0.000888964 1.0842e-19 0)
(0.00192822 -6.36356e-05 8.67362e-19 -0.000823308 2.1684e-19 0)
(0.00192822 -0.000132775 6.50521e-19 -0.000884818 -5.42101e-20 0)
(0.00199376 -2.27427e-05 0 -0.000837944 0 0)
(0.00199376 -0.000112234 2.1684e-19 -0.000892035 3.25261e-19 0)
(0.00207376 1.80842e-05 0 -0.000859753 2.1684e-19 0)
(0.00207376 -9.8361e-05 0 -0.000915439 0 0)
(0.00217372 6.18114e-05 0 -0.00089187 -2.1684e-19 0)
(0.00135865 -0.000499301 0 -0.000725025 0 0)
(0.00143491 -0.000362932 0 -0.000618302 1.0842e-19 0)
(0.00143491 -0.000465621 0 -0.000753809 1.6263e-19 0)
(0.0015074 -0.000335282 1.73472e-18 -0.000647855 -3.25261e-19 0)
(0.0015074 -0.000425576 -6.50521e-19 -0.000775781 -8.13152e-20 0)
(0.00157559 -0.000302661 0 -0.000674211 -2.1684e-19 0)
(0.00157559 -0.000381852 -1.51788e-18 -0.000791622 3.79471e-19 0)
(0.00164007 -0.000265955 0 -0.000697663 1.0842e-19 0)
(0.00164007 -0.000336818 -1.0842e-18 -0.000803116 2.1684e-19 0)
(0.00170235 -0.000225934 1.73472e-18 -0.000718973 -3.25261e-19 0)
(0.00170235 -0.000292026 1.51788e-18 -0.000812723 -1.6263e-19 0)
(0.00176454 -0.000182979 0 -0.000739268 -1.0842e-19 0)
(0.00176454 -0.000248067 4.33681e-19 -0.000823308 0 0)
(0.00182911 -0.000136918 8.67362e-19 -0.0007599 -3.25261e-19 0)
(0.00182911 -0.000204533 4.33681e-19 -0.000837944 -1.0842e-19 0)
(0.00189858 -8.69438e-05 0 -0.000782303 0 0)
(0.00189858 -0.000159973 1.73472e-18 -0.000859753 -4.87891e-19 0)
(0.00197534 -3.15756e-05 -8.67362e-19 -0.000807839 -2.1684e-19 0)
(0.00197534 -0.000111717 8.67362e-19 -0.00089187 -5.42101e-20 0)
(0.00206122 3.13206e-05 -4.33681e-19 -0.000837583 1.0842e-19 0)
(0.00128517 -0.000484116 8.67362e-19 -0.000618302 0 0)
(0.00135131 -0.000368732 -8.67362e-19 -0.000543842 5.42101e-20 0)
(0.00135131 -0.000461498 -4.33681e-19 -0.000647855 -2.71051e-20 0)
(0.00141542 -0.000349386 0 -0.000573947 -1.6263e-19 0)
(0.00141542 -0.000433296 -1.73472e-18 -0.000674211 2.98156e-19 0)
(0.00147752 -0.000324632 2.60209e-18 -0.000602179 -2.1684e-19 0)
(0.00147752 -0.000400094 0 -0.000697663 0 0)
(0.00153786 -0.000294662 -8.67362e-19 -0.000628673 0 0)
(0.00153786 -0.000362494 4.33681e-19 -0.000718973 -3.79471e-19 0)
(0.00159698 -0.000259562 -1.73472e-18 -0.000653703 0 0)
(0.00159698 -0.000320847 6.50521e-19 -0.000739268 0 0)
(0.00165565 -0.000219215 0 -0.000677654 2.1684e-19 0)
(0.00165565 -0.000275073 0 -0.0007599 1.0842e-19 0)
(0.00171473 -0.000173219 -8.67362e-19 -0.000700974 -1.0842e-19 0)
(0.00171473 -0.000224574 -8.67362e-19 -0.000782303 3.79471e-19 0)
(0.00177508 -0.000120847 -1.73472e-18 -0.000724095 -2.1684e-19 0)
(0.00177508 -0.0001682 -4.33681e-19 -0.000807839 3.79471e-19 0)
(0.0018374 -6.10271e-05 0 -0.000747361 1.0842e-19 0)
(0.0018374 -0.000104314 -4.33681e-19 -0.000837583 2.1684e-19 0)
(0.00190215 7.63201e-06 -4.33681e-19 -0.000770959 0 0)
(0.00123868 -0.000445342 0 -0.000543842 5.42101e-20 0)
(0.00129406 -0.000350916 8.67362e-19 -0.000495192 0 0)
(0.00129406 -0.000430031 4.33681e-19 -0.000573947 8.13152e-20 0)
(0.00134817 -0.000337396 0 -0.000523993 -1.6263e-19 0)
(0.00134817 -0.000408805 1.30104e-18 -0.000602179 -2.98156e-19 0)
(0.00140092 -0.000318189 0 -0.000551546 2.1684e-19 0)
(0.00140092 -0.000381768 -4.33681e-19 -0.000628673 0 0)
(0.00145226 -0.000293309 0 -0.000577781 0 0)
(0.00145226 -0.000348966 -1.73472e-18 -0.000653703 2.1684e-19 0)
(0.0015022 -0.000262672 8.67362e-19 -0.000602642 -2.1684e-19 0)
(0.0015022 -0.000310305 -2.1684e-18 -0.000677654 2.1684e-19 0)
(0.00155077 -0.000226065 -1.73472e-18 -0.000626077 1.0842e-19 0)
(0.00155077 -0.000265484 -2.60209e-18 -0.000700974 -1.6263e-19 0)
(0.00159801 -0.000183115 8.67362e-19 -0.000648014 0 0)
(0.00159801 -0.00021395 3.03577e-18 -0.000724095 -2.71051e-19 0)
(0.00164388 -0.000133269 8.67362e-19 -0.000668329 0 0)
(0.00164388 -0.000154883 0 -0.000747361 1.6263e-19 0)
(0.00168825 -7.57857e-05 0 -0.000686818 -1.0842e-19 0)
(0.00168825 -8.71957e-05 4.33681e-19 -0.000770959 -5.42101e-20 0)
(0.00173083 -9.74758e-06 0 -0.000703173 1.0842e-19 0)
(0.00121119 -0.000389719 -8.67362e-19 -0.000495192 1.0842e-19 0)
(0.00125498 -0.000316141 1.73472e-18 -0.000463427 -5.42101e-20 0)
(0.00125498 -0.000379105 -1.30104e-18 -0.000523993 -2.71051e-20 0)
(0.00129789 -0.000306454 8.67362e-19 -0.000489492 5.42101e-20 0)
(0.00129789 -0.000362476 4.33681e-19 -0.000551546 -2.71051e-20 0)
(0.00133964 -0.000291268 -1.73472e-18 -0.000514716 2.1684e-19 0)
(0.00133964 -0.000339843 1.30104e-18 -0.000577781 -3.79471e-19 0)
(0.00137992 -0.000270595 -2.60209e-18 -0.000538846 0 0)
(0.00137992 -0.000311144 -1.30104e-18 -0.000602642 5.42101e-20 0)
(0.0014184 -0.000244386 -2.60209e-18 -0.000561603 1.0842e-19 0)
(0.0014184 -0.000276221 4.33681e-19 -0.000626077 5.42101e-20 0)
(0.00145468 -0.000212514 0 -0.000582656 2.1684e-19 0)
(0.00145468 -0.000234795 1.30104e-18 -0.000648014 0 0)
(0.00148833 -0.000174744 -1.73472e-18 -0.00060162 2.1684e-19 0)
(0.00148833 -0.000186446 -4.33681e-19 -0.000668329 1.6263e-19 0)
(0.00151881 -0.000130721 8.67362e-19 -0.00061803 2.1684e-19 0)
(0.00151881 -0.0001306 -2.1684e-18 -0.000686818 0 0)
(0.00154552 -7.99472e-05 -2.60209e-18 -0.000631341 5.42101e-19 0)
(0.00154552 -6.65282e-05 4.33681e-19 -0.000703173 5.42101e-20 0)
(0.00156776 -2.17736e-05 -8.67362e-19 -0.000640918 2.1684e-19 0)
(0.00119414 -0.000324639 -8.67362e-19 -0.000463427 1.0842e-19 0)
(0.00122658 -0.000270022 -1.73472e-18 -0.000439318 0 0)
(0.00122658 -0.000316613 4.33681e-19 -0.000489492 -1.35525e-19 0)
(0.00125844 -0.000262444 1.73472e-18 -0.000462436 -1.0842e-19 0)
(0.00125844 -0.000302988 1.30104e-18 -0.000514716 -1.35525e-19 0)
(0.00128929 -0.000249977 8.67362e-19 -0.000485025 1.0842e-19 0)
(0.00128929 -0.000283792 -2.1684e-18 -0.000538846 1.6263e-19 0)
(0.00131865 -0.000232716 -2.60209e-18 -0.000506712 3.25261e-19 0)
(0.00131865 -0.000259006 8.67362e-19 -0.000561603 -1.6263e-19 0)
(0.00134597 -0.000210743 1.73472e-18 -0.000527067 2.1684e-19 0)
(0.00134597 -0.000228553 8.67362e-19 -0.000582656 -2.1684e-19 0)
(0.0013706 -0.0001841 0 -0.000545602 0 0)
(0.0013706 -0.000192276 -8.67362e-19 -0.00060162 -5.42101e-20 0)
(0.00139178 -0.000152772 8.67362e-19 -0.000561749 2.1684e-19 0)
(0.00139178 -0.00014992 4.33681e-19 -0.00061803 -4.87891e-19 0)
(0.00140863 -0.000116658 -1.73472e-18 -0.000574825 3.25261e-19 0)
(0.00140863 -0.000101107 8.67362e-19 -0.000631341 5.42101e-20 0)
(0.00142015 -7.55183e-05 -2.60209e-18 -0.000584013 0 0)
(0.00142015 -4.53182e-05 -1.73472e-18 -0.000640918 2.1684e-19 0)
(0.00142527 -2.8905e-05 -8.67362e-19 -0.000588353 2.1684e-19 0)
(0.00118008 -0.000253791 0 -0.000439318 0 0)
(0.00120274 -0.000214599 8.67362e-19 -0.000415905 -5.42101e-20 0)
(0.00120274 -0.000246796 -1.30104e-18 -0.000462436 -5.42101e-20 0)
(0.00122509 -0.000207823 1.73472e-18 -0.00043742 0 0)
(0.00122509 -0.000235075 2.60209e-18 -0.000485025 -1.35525e-19 0)
(0.00124667 -0.000197082 0 -0.000458535 0 0)
(0.00124667 -0.000218716 -1.30104e-18 -0.000506712 -1.35525e-19 0)
(0.0012669 -0.000182595 0 -0.000478711 -1.0842e-19 0)
(0.0012669 -0.000197787 -1.30104e-18 -0.000527067 1.35525e-19 0)
(0.00128513 -0.00016454 8.67362e-19 -0.000497501 -1.0842e-19 0)
(0.00128513 -0.000172341 -4.33681e-19 -0.000545602 5.42101e-20 0)
(0.0013006 -0.000143151 -8.67362e-19 -0.000514422 3.25261e-19 0)
(0.0013006 -0.000142402 4.33681e-19 -0.000561749 -5.42101e-20 0)
(0.00131238 -0.000118724 0 -0.000528879 -2.1684e-19 0)
(0.00131238 -0.000107939 3.90313e-18 -0.000574825 -5.42101e-19 0)
(0.00131929 -9.15806e-05 0 -0.000540117 0 0)
(0.00131929 -6.88155e-05 2.1684e-18 -0.000584013 -2.1684e-19 0)
(0.00131988 -6.19994e-05 -2.60209e-18 -0.000547156 1.0842e-19 0)
(0.00131988 -2.47121e-05 -1.30104e-18 -0.000588353 -5.42101e-20 0)
(0.00131241 -3.00722e-05 -2.60209e-18 -0.000548706 1.0842e-19 0)
(0.00116418 -0.000175731 0 -0.000415905 1.0842e-19 0)
(0.00118022 -0.000146779 0 -0.000391797 0 0)
(0.00118022 -0.0001691 -1.73472e-18 -0.00043742 1.89735e-19 0)
(0.00119618 -0.000140637 1.73472e-18 -0.00041555 -1.0842e-19 0)
(0.00119618 -0.000159098 -4.33681e-19 -0.000458535 -1.6263e-19 0)
(0.00121132 -0.000132081 0 -0.000437695 1.0842e-19 0)
(0.00121132 -0.000145755 -1.30104e-18 -0.000478711 2.71051e-20 0)
(0.0012252 -0.000120779 0 -0.000458268 2.1684e-19 0)
(0.0012252 -0.000129157 -1.30104e-18 -0.000497501 2.1684e-19 0)
(0.00123734 -0.000106892 8.67362e-19 -0.000477011 0 0)
(0.00123734 -0.000109476 -8.67362e-19 -0.000514422 8.13152e-20 0)
(0.00124711 -9.0841e-05 -8.67362e-19 -0.000493532 1.0842e-19 0)
(0.00124711 -8.69637e-05 -1.73472e-18 -0.000528879 5.42101e-20 0)
(0.00125367 -7.32623e-05 8.67362e-19 -0.000507342 0 0)
(0.00125367 -6.19252e-05 1.73472e-18 -0.000540117 0 0)
(0.00125581 -5.50287e-05 0 -0.000517838 1.0842e-19 0)
(0.00125581 -3.46735e-05 -1.73472e-18 -0.000547156 1.0842e-19 0)
(0.00125178 -3.73159e-05 0 -0.000524241 1.0842e-19 0)
(0.00125178 -5.4199e-06 -1.73472e-18 -0.000548706 0 0)
(0.00123898 -2.17308e-05 8.67362e-19 -0.00052545 0 0)
(0.0011464 -8.22571e-05 -1.73472e-18 -0.000391797 5.42101e-20 0)
(0.00116285 -5.43506e-05 -8.67362e-19 -0.000378273 2.71051e-20 0)
(0.00116285 -7.74486e-05 -8.67362e-19 -0.00041555 1.6263e-19 0)
(0.00117682 -5.44437e-05 -8.67362e-19 -0.000408327 5.42101e-20 0)
(0.00117682 -7.10682e-05 8.67362e-19 -0.000437695 -1.0842e-19 0)
(0.00118926 -5.14267e-05 4.33681e-19 -0.000436579 -1.35525e-19 0)
(0.00118926 -6.28547e-05 -1.73472e-18 -0.000458268 1.0842e-19 0)
(0.0012003 -4.61978e-05 0 -0.000462182 5.42101e-20 0)
(0.0012003 -5.28672e-05 2.60209e-18 -0.000477011 -5.42101e-20 0)
(0.00120976 -3.9243e-05 -8.67362e-19 -0.000484325 2.71051e-20 0)
(0.00120976 -4.13229e-05 0 -0.000493532 0 0)
(0.00121726 -3.09797e-05 -4.33681e-19 -0.000502253 0 0)
(0.00121726 -2.8579e-05 0 -0.000507342 -1.0842e-19 0)
(0.00122232 -2.19327e-05 1.30104e-18 -0.000515298 1.6263e-19 0)
(0.00122232 -1.51765e-05 8.67362e-19 -0.000517838 0 0)
(0.00122431 -1.28679e-05 -4.33681e-19 -0.00052293 1.0842e-19 0)
(0.00122431 -1.93871e-06 -8.67362e-19 -0.000524241 2.1684e-19 0)
(0.00122246 -4.93488e-06 -2.60209e-18 -0.000524839 1.0842e-19 0)
(0.00122246 9.83499e-06 -8.67362e-19 -0.00052545 1.0842e-19 0)
(0.00121584 1.76945e-07 -2.1684e-18 -0.000521108 0 0)
(0.00219616 0.00033282 5.42101e-20 -0.000649915 1.73472e-18 0)
(0.00202871 2.64304e-05 -2.1684e-19 -0.000783201 8.67362e-19 0)
(0.00206975 0.000318703 2.71051e-20 -0.000634215 6.50521e-19 0)
(0.00192284 4.50529e-05 5.42101e-20 -0.000755685 8.67362e-19 0)
(0.00195574 0.000305476 -8.13152e-20 -0.000625325 1.0842e-18 0)
(0.00182226 5.33176e-05 1.6263e-19 -0.000732111 4.33681e-19 0)
(0.00184916 0.000293629 5.42101e-20 -0.000619974 -6.50521e-19 0)
(0.001723 5.26647e-05 5.42101e-20 -0.000710659 0 0)
(0.00174544 0.000283453 2.71051e-20 -0.000615224 0 0)
(0.00162115 4.38517e-05 5.42101e-20 -0.000689223 -4.33681e-19 0)
(0.00164013 0.00027511 2.71051e-20 -0.000608272 2.1684e-19 0)
(0.00151257 2.70105e-05 1.6263e-19 -0.000665413 -8.67362e-19 0)
(0.00152864 0.00026869 -5.42101e-20 -0.000596253 -2.1684e-19 0)
(0.00139273 1.60675e-06 -5.42101e-20 -0.000636499 -4.33681e-19 0)
(0.00140599 0.000264233 0 -0.000576022 0 0)
(0.00125628 -3.37272e-05 0 -0.000599322 8.67362e-19 0)
(0.00126634 0.00026175 5.42101e-20 -0.000543861 -8.67362e-19 0)
(0.00109654 -8.15796e-05 5.42101e-20 -0.000550159 -8.67362e-19 0)
(0.00110244 0.000261207 0 -0.000495034 0 0)
(0.000904592 -0.000146576 -5.42101e-20 -0.000484592 8.67362e-19 0)
(0.00231609 0.000491187 -5.42101e-20 -0.00074337 8.67362e-19 0)
(0.00206967 0.00018219 0 -0.000926669 1.30104e-18 0)
(0.00219901 0.000502174 -1.6263e-19 -0.000716496 1.0842e-18 0)
(0.00198606 0.000222003 0 -0.000893167 4.33681e-19 0)
(0.00208743 0.000501486 4.87891e-19 -0.000693679 2.1684e-19 0)
(0.00190117 0.000245324 5.42101e-19 -0.000858889 0 0)
(0.00198019 0.000491221 2.1684e-19 -0.000673047 -8.67362e-19 0)
(0.001814 0.000252945 -2.1684e-19 -0.000824428 0 0)
(0.00187538 0.000472543 5.42101e-20 -0.000652462 -8.67362e-19 0)
(0.00172313 0.000245147 1.0842e-19 -0.000789825 4.33681e-19 0)
(0.00177062 0.000445718 -5.42101e-20 -0.000629527 6.50521e-19 0)
(0.00162687 0.000221589 3.25261e-19 -0.000754683 -1.73472e-18 0)
(0.00166318 0.000410058 0 -0.000601527 1.73472e-18 0)
(0.00152336 0.000181199 -3.25261e-19 -0.000718328 -4.33681e-19 0)
(0.00155019 0.000363729 1.0842e-19 -0.000565349 1.95156e-18 0)
(0.00141081 0.000122105 -4.33681e-19 -0.000680002 1.73472e-18 0)
(0.00142887 0.000303313 -5.42101e-20 -0.00051735 4.33681e-19 0)
(0.00128801 4.1692e-05 -1.0842e-19 -0.000639136 0 0)
(0.0012972 0.000222941 1.0842e-19 -0.000453232 -4.33681e-19 0)
(0.00115549 -6.29595e-05 5.42101e-20 -0.000595799 -4.33681e-19 0)
(0.00239389 0.00045598 1.0842e-19 -0.000890696 0 0)
(0.00209171 0.000179728 -2.1684e-19 -0.00103892 8.67362e-19 0)
(0.00230292 0.000496293 2.1684e-19 -0.000857092 1.0842e-18 0)
(0.00204733 0.000244275 -4.33681e-19 -0.0010106 4.33681e-19 0)
(0.00220865 0.000517723 3.25261e-19 -0.000823028 0 0)
(0.0019944 0.000290697 1.30104e-18 -0.000975007 -2.1684e-18 0)
(0.00211358 0.000521874 3.25261e-19 -0.000789006 0 0)
(0.00193455 0.000318494 -6.50521e-19 -0.000934917 0 0)
(0.00201923 0.000509773 -2.1684e-19 -0.000754975 8.67362e-19 0)
(0.00186906 0.000326999 2.1684e-19 -0.000892651 0 0)
(0.00192636 0.000481708 2.1684e-19 -0.000720466 6.50521e-19 0)
(0.00179892 0.000315232 0 -0.000850131 1.73472e-18 0)
(0.00183524 0.000437111 -1.0842e-19 -0.000684746 -4.33681e-19 0)
(0.00172497 0.000281688 0 -0.000809004 4.33681e-19 0)
(0.00174585 0.000374511 -1.0842e-19 -0.000647008 -2.1684e-19 0)
(0.00164787 0.000224125 0 -0.000770823 4.33681e-19 0)
(0.00165812 0.000291665 1.0842e-19 -0.00060664 -6.50521e-19 0)
(0.00156812 0.000139359 -2.1684e-19 -0.000737191 0 0)
(0.00157177 0.000186145 0 -0.000563638 -6.50521e-19 0)
(0.0014856 2.31122e-05 0 -0.000709728 0 0)
(0.0023602 0.000259325 8.67362e-19 -0.00102943 0 0)
(0.00203928 5.2346e-05 4.33681e-19 -0.00110119 8.67362e-19 0)
(0.00231628 0.000332666 0 -0.000999937 1.0842e-18 0)
(0.00204719 0.00013751 0 -0.00108937 4.33681e-19 0)
(0.00225697 0.00038438 -2.1684e-19 -0.000963601 4.33681e-19 0)
(0.00203736 0.000207046 0 -0.001062 -4.33681e-19 0)
(0.00218797 0.000414887 1.0842e-19 -0.000923105 -4.33681e-19 0)
(0.00201401 0.000259018 0 -0.00102395 0 0)
(0.0021144 0.000424415 -2.1684e-19 -0.000880666 3.25261e-19 0)
(0.00198102 0.000291537 -4.33681e-19 -0.000979649 0 0)
(0.00204073 0.000412837 -1.0842e-19 -0.000838104 -4.33681e-19 0)
(0.0019423 0.000302816 6.50521e-19 -0.000933257 -4.33681e-19 0)
(0.00197096 0.000379422 -2.1684e-19 -0.000796979 1.30104e-18 0)
(0.00190184 0.000290988 -6.50521e-19 -0.000888787 4.33681e-19 0)
(0.00190895 0.000322597 -1.0842e-19 -0.000758767 1.0842e-18 0)
(0.00186379 0.00025379 -6.50521e-19 -0.000850352 8.67362e-19 0)
(0.00185876 0.000239709 -3.25261e-19 -0.000725016 6.50521e-19 0)