/*--------------------------------*- C++ -*----------------------------------*\
| =========                 |                                                 |
| \\      /  F ield         | OpenFOAM: The Open Source CFD Toolbox           |
|  \\    /   O peration     | Version:  v2012                                 |
|   \\  /    A nd           | Website:  www.openfoam.com                      |
|    \\/     M anipulation  |                                                 |
\*---------------------------------------------------------------------------*/
FoamFile
{
    version     2.0;
    format      ascii;
    class       volScalarField;
    location    "15";
    object      sigmaEq;
}
// * * * * * * * * * * * * * * * * * * * * * * * * * * * * * * * * * * * * * //

dimensions      [1 -1 -2 0 0 0 0];


internalField   nonuniform List<scalar> 
8000
(
5.4073e+07
5.46705e+07
5.99866e+07
6.12272e+07
6.97022e+07
6.96348e+07
7.78828e+07
7.84838e+07
8.59355e+07
8.66868e+07
9.35558e+07
9.3962e+07
1.00494e+08
1.00415e+08
1.066e+08
1.06074e+08
1.1182e+08
1.10932e+08
1.16181e+08
1.14977e+08
1.19757e+08
1.18245e+08
1.2268e+08
1.20842e+08
1.25157e+08
1.22963e+08
1.27438e+08
1.24882e+08
1.29777e+08
1.26901e+08
1.32375e+08
1.29271e+08
1.35312e+08
1.32138e+08
1.3857e+08
1.35702e+08
1.42041e+08
1.39897e+08
1.38639e+08
1.39193e+08
5.49494e+07
5.32531e+07
5.56889e+07
6.02655e+07
6.65057e+07
6.84177e+07
7.68222e+07
7.68683e+07
8.60066e+07
8.50398e+07
9.40823e+07
9.25277e+07
1.01237e+08
9.92138e+07
1.07523e+08
1.05046e+08
1.1293e+08
1.1e+08
1.1749e+08
1.14086e+08
1.21325e+08
1.17362e+08
1.24621e+08
1.1996e+08
1.27592e+08
1.22114e+08
1.30424e+08
1.24112e+08
1.33225e+08
1.26213e+08
1.36e+08
1.28607e+08
1.38688e+08
1.31411e+08
1.41267e+08
1.3488e+08
1.44005e+08
1.38879e+08
1.43038e+08
1.41591e+08
5.60456e+07
5.30413e+07
5.76598e+07
6.04593e+07
6.70112e+07
6.95851e+07
7.61119e+07
7.84211e+07
8.47352e+07
8.65794e+07
9.26044e+07
9.39611e+07
9.96683e+07
1.00523e+08
1.05914e+08
1.06165e+08
1.11359e+08
1.10803e+08
1.16084e+08
1.14445e+08
1.20232e+08
1.17238e+08
1.23954e+08
1.19461e+08
1.27367e+08
1.21455e+08
1.30524e+08
1.23506e+08
1.33428e+08
1.25786e+08
1.36085e+08
1.28344e+08
1.38561e+08
1.31165e+08
1.41002e+08
1.34344e+08
1.43562e+08
1.37964e+08
1.45636e+08
1.41143e+08
5.5494e+07
5.39063e+07
5.69413e+07
6.2165e+07
6.75435e+07
7.19873e+07
7.71739e+07
8.12471e+07
8.57795e+07
8.96485e+07
9.3503e+07
9.70476e+07
1.00423e+08
1.03328e+08
1.06547e+08
1.08373e+08
1.11901e+08
1.12191e+08
1.16571e+08
1.14988e+08
1.20665e+08
1.17156e+08
1.24265e+08
1.19119e+08
1.27421e+08
1.21196e+08
1.30184e+08
1.23511e+08
1.3264e+08
1.26041e+08
1.34907e+08
1.2872e+08
1.37079e+08
1.31478e+08
1.39283e+08
1.34264e+08
1.41689e+08
1.37109e+08
1.43969e+08
1.39264e+08
5.57921e+07
5.45757e+07
5.83146e+07
6.43957e+07
6.94093e+07
7.52657e+07
7.93469e+07
8.49438e+07
8.79889e+07
9.33296e+07
9.55583e+07
1.00323e+08
1.02213e+08
1.0581e+08
1.08027e+08
1.09814e+08
1.13039e+08
1.12643e+08
1.17294e+08
1.14821e+08
1.20862e+08
1.16849e+08
1.23863e+08
1.19039e+08
1.26478e+08
1.21464e+08
1.28872e+08
1.24036e+08
1.31157e+08
1.26623e+08
1.33403e+08
1.29178e+08
1.35615e+08
1.31645e+08
1.37902e+08
1.33986e+08
1.40138e+08
1.36244e+08
1.42437e+08
1.37914e+08
5.64583e+07
5.61025e+07
6.05441e+07
6.71561e+07
7.2143e+07
7.86474e+07
8.22231e+07
8.82933e+07
9.07225e+07
9.60685e+07
9.79975e+07
1.02021e+08
1.04262e+08
1.06342e+08
1.09552e+08
1.09457e+08
1.13835e+08
1.11966e+08
1.17215e+08
1.14342e+08
1.2e+08
1.16822e+08
1.22545e+08
1.19426e+08
1.25048e+08
1.22056e+08
1.27521e+08
1.24604e+08
1.29936e+08
1.2701e+08
1.32268e+08
1.29302e+08
1.34497e+08
1.31418e+08
1.36706e+08
1.33422e+08
1.38918e+08
1.35257e+08
1.4105e+08
1.36708e+08
5.80191e+07
5.87413e+07
6.3634e+07
7.02438e+07
7.527e+07
8.14508e+07
8.53002e+07
9.01747e+07
9.37245e+07
9.66888e+07
1.00879e+08
1.01558e+08
1.0664e+08
1.05366e+08
1.10763e+08
1.08681e+08
1.13736e+08
1.11747e+08
1.1624e+08
1.14642e+08
1.18723e+08
1.1741e+08
1.21318e+08
1.20052e+08
1.23968e+08
1.22509e+08
1.26523e+08
1.24793e+08
1.28943e+08
1.26924e+08
1.31214e+08
1.28918e+08
1.33373e+08
1.30749e+08
1.35476e+08
1.32499e+08
1.37539e+08
1.34194e+08
1.39587e+08
1.35512e+08
6.02109e+07
6.22595e+07
6.68575e+07
7.29927e+07
7.83518e+07
8.29689e+07
8.87551e+07
9.06696e+07
9.76871e+07
9.66238e+07
1.04628e+08
1.01477e+08
1.08529e+08
1.05741e+08
1.11273e+08
1.09433e+08
1.13783e+08
1.12789e+08
1.16223e+08
1.15764e+08
1.18735e+08
1.18296e+08
1.21425e+08
1.20536e+08
1.23884e+08
1.22676e+08
1.26191e+08
1.24631e+08
1.28362e+08
1.26439e+08
1.30397e+08
1.28122e+08
1.32353e+08
1.29744e+08
1.34256e+08
1.31327e+08
1.3615e+08
1.32871e+08
1.38066e+08
1.34103e+08
6.2294e+07
6.57963e+07
7.02172e+07
7.5158e+07
8.25491e+07
8.43687e+07
9.39703e+07
9.22987e+07
1.00921e+08
9.82402e+07
1.022e+08
9.98288e+07
1.04328e+08
1.03232e+08
1.08122e+08
1.06874e+08
1.12269e+08
1.10296e+08
1.15946e+08
1.13714e+08
1.18593e+08
1.17258e+08
1.21213e+08
1.19506e+08
1.23328e+08
1.21577e+08
1.25341e+08
1.23386e+08
1.27289e+08
1.25088e+08
1.29246e+08
1.26725e+08
1.31034e+08
1.28299e+08
1.32762e+08
1.29762e+08
1.34457e+08
1.3115e+08
1.36162e+08
1.323e+08
6.44597e+07
6.9869e+07
7.63213e+07
7.93387e+07
8.91987e+07
8.8887e+07
9.14998e+07
8.88472e+07
9.27654e+07
9.18703e+07
9.52674e+07
9.48185e+07
9.84144e+07
9.78989e+07
1.01936e+08
1.01224e+08
1.05665e+08
1.04645e+08
1.09607e+08
1.08104e+08
1.13541e+08
1.11814e+08
1.17217e+08
1.15188e+08
1.20534e+08
1.18252e+08
1.23349e+08
1.20904e+08
1.25137e+08
1.23024e+08
1.26803e+08
1.24572e+08
1.28394e+08
1.26055e+08
1.30033e+08
1.27504e+08
1.3163e+08
1.28887e+08
1.33238e+08
1.30188e+08
7.02397e+07
7.76539e+07
8.15826e+07
8.03359e+07
8.28314e+07
8.28476e+07
8.43454e+07
8.44237e+07
8.62576e+07
8.60253e+07
8.88615e+07
8.84869e+07
9.21866e+07
9.163e+07
9.59701e+07
9.51733e+07
9.99431e+07
9.89384e+07
1.03914e+08
1.02813e+08
1.07723e+08
1.06579e+08
1.11207e+08
1.10117e+08
1.14401e+08
1.13366e+08
1.1753e+08
1.1637e+08
1.20348e+08
1.19173e+08
1.22831e+08
1.21633e+08
1.25048e+08
1.23827e+08
1.27046e+08
1.25749e+08
1.28663e+08
1.27192e+08
1.29972e+08
1.28441e+08
7.62685e+07
7.7993e+07
7.68107e+07
7.8213e+07
7.77353e+07
7.77985e+07
7.85526e+07
7.84024e+07
8.03143e+07
8.01158e+07
8.30992e+07
8.27853e+07
8.66264e+07
8.61461e+07
9.05896e+07
8.9932e+07
9.47431e+07
9.39391e+07
9.88949e+07
9.8008e+07
1.02895e+08
1.01964e+08
1.06637e+08
1.05701e+08
1.10065e+08
1.09165e+08
1.13147e+08
1.12343e+08
1.15878e+08
1.15197e+08
1.18268e+08
1.17732e+08
1.204e+08
1.20023e+08
1.22413e+08
1.222e+08
1.24232e+08
1.24118e+08
1.25818e+08
1.25823e+08
7.90484e+07
7.49772e+07
7.48497e+07
7.33729e+07
7.30592e+07
7.25177e+07
7.32148e+07
7.29769e+07
7.50542e+07
7.48272e+07
7.81074e+07
7.77593e+07
8.19093e+07
8.14041e+07
8.60981e+07
8.5454e+07
9.04141e+07
8.96754e+07
9.46746e+07
9.38868e+07
9.87528e+07
9.79478e+07
1.0257e+08
1.01769e+08
1.06083e+08
1.05304e+08
1.09267e+08
1.0853e+08
1.12116e+08
1.11429e+08
1.14641e+08
1.14006e+08
1.16868e+08
1.1628e+08
1.1881e+08
1.18252e+08
1.20467e+08
1.19905e+08
1.21837e+08
1.21243e+08
7.50329e+07
7.03174e+07
7.05448e+07
6.7628e+07
6.82647e+07
6.6689e+07
6.83783e+07
6.7601e+07
7.04534e+07
6.99753e+07
7.38067e+07
7.33445e+07
7.78746e+07
7.73219e+07
8.2265e+07
8.16117e+07
8.67161e+07
8.59897e+07
9.10562e+07
9.02884e+07
9.51761e+07
9.43911e+07
9.90109e+07
9.82259e+07
1.02526e+08
1.01753e+08
1.05709e+08
1.0495e+08
1.08558e+08
1.07808e+08
1.11084e+08
1.10329e+08
1.13299e+08
1.12519e+08
1.15217e+08
1.14363e+08
1.16849e+08
1.15842e+08
1.18206e+08
1.16943e+08
6.87469e+07
6.36885e+07
6.43578e+07
6.11347e+07
6.25158e+07
6.07114e+07
6.33478e+07
6.23537e+07
6.61051e+07
6.54306e+07
6.99739e+07
6.93549e+07
7.43843e+07
7.37192e+07
7.89781e+07
7.825e+07
8.35311e+07
8.27564e+07
8.79028e+07
8.7104e+07
9.20084e+07
9.12022e+07
9.58015e+07
9.49969e+07
9.92614e+07
9.84608e+07
1.02385e+08
1.01585e+08
1.05181e+08
1.04375e+08
1.07664e+08
1.06841e+08
1.09854e+08
1.0899e+08
1.11772e+08
1.10818e+08
1.13441e+08
1.12322e+08
1.14873e+08
1.13497e+08
6.06735e+07
5.56785e+07
5.70456e+07
5.39491e+07
5.62169e+07
5.46022e+07
5.81621e+07
5.72702e+07
6.1846e+07
6.11623e+07
6.6374e+07
6.56694e+07
7.12035e+07
7.04152e+07
7.60324e+07
7.51702e+07
8.06909e+07
7.97874e+07
8.5082e+07
8.41687e+07
8.91515e+07
8.8249e+07
9.28731e+07
9.19893e+07
9.62414e+07
9.53728e+07
9.92673e+07
9.84039e+07
1.01974e+08
1.01105e+08
1.04394e+08
1.03509e+08
1.06566e+08
1.05653e+08
1.08531e+08
1.07571e+08
1.10325e+08
1.09302e+08
1.11933e+08
1.10857e+08
5.12742e+07
4.67125e+07
4.89139e+07
4.63558e+07
4.9598e+07
4.84942e+07
5.29464e+07
5.238e+07
5.76757e+07
5.71291e+07
6.2898e+07
6.2186e+07
6.81508e+07
6.72526e+07
7.3211e+07
7.21683e+07
7.79726e+07
7.68421e+07
8.23868e+07
8.12193e+07
8.64316e+07
8.5264e+07
9.00981e+07
8.895e+07
9.33864e+07
9.22593e+07
9.63092e+07
9.51887e+07
9.88983e+07
9.77607e+07
1.01208e+08
1.00031e+08
1.03312e+08
1.02086e+08
1.05288e+08
1.0402e+08
1.07196e+08
1.05883e+08
1.09017e+08
1.07557e+08
4.10271e+07
3.72046e+07
4.03213e+07
3.87059e+07
4.29167e+07
4.26206e+07
4.78423e+07
4.77843e+07
5.36319e+07
5.33366e+07
5.95029e+07
5.88516e+07
6.51209e+07
6.41391e+07
7.03568e+07
6.91141e+07
7.51723e+07
7.37406e+07
7.95704e+07
7.80086e+07
8.35711e+07
8.19224e+07
8.71965e+07
8.54884e+07
9.04598e+07
8.87014e+07
9.336e+07
9.1536e+07
9.58909e+07
9.39533e+07
9.80681e+07
9.59326e+07
9.99709e+07
9.75226e+07
1.01767e+08
9.88759e+07
1.03656e+08
1.0019e+08
1.05686e+08
1.01431e+08
3.03145e+07
2.75985e+07
3.1658e+07
3.14765e+07
3.65102e+07
3.73272e+07
4.30491e+07
4.36828e+07
4.97983e+07
4.98903e+07
5.61979e+07
5.57251e+07
6.20766e+07
6.11215e+07
6.74027e+07
6.60665e+07
7.21947e+07
7.05647e+07
7.64904e+07
7.46302e+07
8.03374e+07
7.82876e+07
8.37922e+07
8.15775e+07
8.69194e+07
8.45556e+07
8.9782e+07
8.72773e+07
9.24171e+07
8.97585e+07
9.47989e+07
9.19148e+07
9.68184e+07
9.35047e+07
9.83522e+07
9.41376e+07
9.95404e+07
9.34546e+07
1.01381e+08
9.17937e+07
1.94701e+07
1.85391e+07
2.3482e+07
2.541e+07
3.08684e+07
3.30977e+07
3.8861e+07
4.03707e+07
4.63413e+07
4.6996e+07
5.3078e+07
5.29794e+07
5.90729e+07
5.8373e+07
6.43838e+07
6.32294e+07
6.90789e+07
6.75928e+07
7.3222e+07
7.14993e+07
7.6867e+07
7.49787e+07
8.00571e+07
7.80584e+07
8.28302e+07
8.07753e+07
8.52349e+07
8.3198e+07
8.73565e+07
8.5462e+07
8.93469e+07
8.78099e+07
9.14498e+07
9.06417e+07
9.40242e+07
9.45789e+07
9.75409e+07
1.00437e+08
1.02131e+08
1.0941e+08
8.8486e+06
1.17377e+07
1.69188e+07
2.16612e+07
2.67014e+07
3.04851e+07
3.5661e+07
3.81506e+07
4.35075e+07
4.48607e+07
5.03427e+07
5.07891e+07
5.63025e+07
5.60627e+07
6.15046e+07
6.07729e+07
6.60474e+07
6.49875e+07
7.00133e+07
6.87618e+07
7.3473e+07
7.21474e+07
7.64877e+07
7.51979e+07
7.91103e+07
7.79721e+07
8.1384e+07
8.05376e+07
8.33447e+07
8.29882e+07
8.50407e+07
8.55139e+07
8.65878e+07
8.85718e+07
8.82635e+07
9.30591e+07
9.04831e+07
9.96785e+07
9.30542e+07
1.01397e+08
3.24534e+06
1.17582e+07
1.43464e+07
2.14028e+07
2.48232e+07
2.98877e+07
3.38254e+07
3.72037e+07
4.15427e+07
4.35796e+07
4.81992e+07
4.91991e+07
5.39732e+07
5.41952e+07
5.90007e+07
5.86638e+07
6.3389e+07
6.26755e+07
6.7226e+07
6.62863e+07
7.05862e+07
6.95475e+07
7.35375e+07
7.2515e+07
7.61487e+07
7.52582e+07
7.84967e+07
7.78679e+07
8.06672e+07
8.04632e+07
8.27421e+07
8.31992e+07
8.47711e+07
8.62199e+07
8.6739e+07
8.93078e+07
8.84537e+07
9.0973e+07
8.93225e+07
9.19123e+07
1.26343e+07
1.82695e+07
1.73186e+07
2.45504e+07
2.56325e+07
3.12882e+07
3.35484e+07
3.75223e+07
4.05774e+07
4.31336e+07
4.67448e+07
4.81668e+07
5.21526e+07
5.26938e+07
5.69021e+07
5.67804e+07
6.10828e+07
6.04804e+07
6.47724e+07
6.38401e+07
6.80389e+07
6.69036e+07
7.09413e+07
6.97181e+07
7.3529e+07
7.23356e+07
7.58405e+07
7.48154e+07
7.79007e+07
7.72268e+07
7.97203e+07
7.96438e+07
8.13024e+07
8.20656e+07
8.2663e+07
8.41893e+07
8.38022e+07
8.54745e+07
8.48328e+07
8.7008e+07
2.25331e+07
2.66292e+07
2.35333e+07
2.98177e+07
2.86959e+07
3.42617e+07
3.47228e+07
3.89362e+07
4.05667e+07
4.34392e+07
4.59275e+07
4.76391e+07
5.07531e+07
5.15141e+07
5.50666e+07
5.50789e+07
5.89119e+07
5.8356e+07
6.23356e+07
6.1369e+07
6.53806e+07
6.41444e+07
6.80837e+07
6.67134e+07
7.04755e+07
6.91134e+07
7.2581e+07
7.13876e+07
7.44203e+07
7.35793e+07
7.60115e+07
7.57114e+07
7.73821e+07
7.77448e+07
7.8599e+07
7.95762e+07
7.9727e+07
8.10116e+07
8.07753e+07
8.27076e+07
3.21846e+07
3.52652e+07
3.08199e+07
3.60422e+07
3.3155e+07
3.82456e+07
3.70136e+07
4.11842e+07
4.1347e+07
4.43748e+07
4.56346e+07
4.75606e+07
4.96676e+07
5.06332e+07
5.33757e+07
5.35522e+07
5.67445e+07
5.63034e+07
5.97823e+07
5.88847e+07
6.25057e+07
6.13034e+07
6.49336e+07
6.35763e+07
6.70852e+07
6.57278e+07
6.89795e+07
6.77866e+07
7.06375e+07
6.9778e+07
7.20867e+07
7.17146e+07
7.33778e+07
7.35977e+07
7.46019e+07
7.53972e+07
7.57632e+07
7.68567e+07
7.66921e+07
7.81342e+07
4.14686e+07
4.37148e+07
3.83039e+07
4.25556e+07
3.82916e+07
4.27606e+07
4.00383e+07
4.39896e+07
4.27273e+07
4.57946e+07
4.57697e+07
4.78622e+07
4.88508e+07
5.00267e+07
5.18186e+07
5.22041e+07
5.4602e+07
5.43481e+07
5.71701e+07
5.64325e+07
5.95126e+07
5.84458e+07
6.16304e+07
6.03894e+07
6.35306e+07
6.2274e+07
6.5225e+07
6.41144e+07
6.67305e+07
6.59257e+07
6.80779e+07
6.77259e+07
6.93289e+07
6.95424e+07
7.05745e+07
7.13451e+07
7.17449e+07
7.27657e+07
7.25089e+07
7.34327e+07
5.02807e+07
5.17793e+07
4.56252e+07
4.90045e+07
4.36548e+07
4.74701e+07
4.34824e+07
4.71138e+07
4.45382e+07
4.75557e+07
4.62611e+07
4.8472e+07
4.8292e+07
4.96712e+07
5.04256e+07
5.10443e+07
5.25446e+07
5.25224e+07
5.45821e+07
5.40595e+07
5.65006e+07
5.56272e+07
5.82807e+07
5.72113e+07
5.99146e+07
5.88084e+07
6.14028e+07
6.04212e+07
6.27561e+07
6.20587e+07
6.40053e+07
6.37426e+07
6.52193e+07
6.55089e+07
6.64859e+07
6.73079e+07
6.76616e+07
6.86662e+07
6.82545e+07
6.86657e+07
5.85358e+07
5.93512e+07
5.26037e+07
5.51954e+07
4.89789e+07
5.21538e+07
4.71154e+07
5.03723e+07
4.6637e+07
4.95331e+07
4.70463e+07
4.9322e+07
4.79857e+07
4.9544e+07
4.92279e+07
5.0082e+07
5.0626e+07
5.08562e+07
5.2084e+07
5.18077e+07
5.3539e+07
5.28946e+07
5.4951e+07
5.4089e+07
5.62957e+07
5.53749e+07
5.75613e+07
5.67447e+07
5.87513e+07
5.82014e+07
5.98957e+07
5.97672e+07
6.10692e+07
6.14799e+07
6.23549e+07
6.32668e+07
6.35353e+07
6.45528e+07
6.39562e+07
6.38508e+07
6.61758e+07
6.63679e+07
5.9138e+07
6.10166e+07
5.41032e+07
5.66688e+07
5.07712e+07
5.36278e+07
4.89024e+07
5.16211e+07
4.80621e+07
5.03474e+07
4.79182e+07
4.96184e+07
4.82459e+07
4.93206e+07
4.88871e+07
4.93735e+07
4.97268e+07
4.97132e+07
5.06822e+07
5.02898e+07
5.16947e+07
5.1066e+07
5.27243e+07
5.20157e+07
5.37472e+07
5.31226e+07
5.47592e+07
5.43838e+07
5.57888e+07
5.58202e+07
5.69152e+07
5.74694e+07
5.82155e+07
5.92351e+07
5.93975e+07
6.04419e+07
5.96436e+07
5.90126e+07
7.3168e+07
7.27942e+07
6.51694e+07
6.64019e+07
5.89261e+07
6.09214e+07
5.43287e+07
5.67787e+07
5.12294e+07
5.37307e+07
4.92412e+07
5.14848e+07
4.80628e+07
4.9861e+07
4.74863e+07
4.87542e+07
4.73569e+07
4.80897e+07
4.75526e+07
4.78059e+07
4.79785e+07
4.78513e+07
4.85622e+07
4.81845e+07
4.92508e+07
4.87735e+07
5.00097e+07
4.95954e+07
5.0827e+07
5.06425e+07
5.17295e+07
5.19339e+07
5.27996e+07
5.35061e+07
5.41068e+07
5.5239e+07
5.5284e+07
5.63594e+07
5.5351e+07
5.41821e+07
7.94996e+07
7.86152e+07
7.06658e+07
7.13137e+07
6.3383e+07
6.48498e+07
5.7699e+07
5.9749e+07
5.35281e+07
5.57869e+07
5.0514e+07
5.26731e+07
4.83807e+07
5.02321e+07
4.69409e+07
4.83665e+07
4.60516e+07
4.70099e+07
4.55944e+07
4.61076e+07
4.54709e+07
4.56125e+07
4.56017e+07
4.54847e+07
4.59253e+07
4.56912e+07
4.63986e+07
4.62061e+07
4.70036e+07
4.70186e+07
4.77648e+07
4.81464e+07
4.87672e+07
4.9625e+07
5.0071e+07
5.13107e+07
5.1234e+07
5.23353e+07
5.11151e+07
4.9392e+07
8.51732e+07
8.38314e+07
7.5613e+07
7.57333e+07
6.74322e+07
6.84135e+07
6.08158e+07
6.24827e+07
5.57222e+07
5.77279e+07
5.18117e+07
5.38552e+07
4.88238e+07
5.06881e+07
4.65875e+07
4.81325e+07
4.4974e+07
4.61289e+07
4.38745e+07
4.46309e+07
4.31952e+07
4.35998e+07
4.28571e+07
4.30026e+07
4.2796e+07
4.28101e+07
4.29643e+07
4.29979e+07
4.33395e+07
4.35545e+07
4.39445e+07
4.44982e+07
4.48659e+07
4.58635e+07
4.6153e+07
4.74838e+07
4.72885e+07
4.83996e+07
4.69733e+07
4.46747e+07
9.02032e+07
8.84558e+07
8.00083e+07
7.96553e+07
7.1046e+07
7.15869e+07
6.36284e+07
6.49382e+07
5.77482e+07
5.95039e+07
5.30714e+07
5.49811e+07
4.93412e+07
5.11854e+07
4.63945e+07
4.80208e+07
4.4114e+07
4.54309e+07
4.24029e+07
4.3377e+07
4.11777e+07
4.18303e+07
4.03666e+07
4.07677e+07
3.99088e+07
4.01684e+07
3.9757e+07
4.00138e+07
3.98874e+07
4.02951e+07
4.03222e+07
4.10329e+07
4.11484e+07
4.22617e+07
4.24016e+07
4.37924e+07
4.34899e+07
4.45803e+07
4.29623e+07
4.00602e+07
9.46133e+07
9.25113e+07
8.38553e+07
8.30841e+07
7.42034e+07
7.43555e+07
6.60959e+07
6.70867e+07
5.95544e+07
6.10769e+07
5.42398e+07
5.60079e+07
4.98853e+07
5.16812e+07
4.63262e+07
4.79939e+07
4.34521e+07
4.48895e+07
4.11781e+07
4.23349e+07
3.94341e+07
4.03101e+07
3.81604e+07
3.88029e+07
3.73054e+07
3.78032e+07
3.68273e+07
3.73008e+07
3.67041e+07
3.72929e+07
3.69581e+07
3.78039e+07
3.76749e+07
3.88682e+07
3.8872e+07
4.02748e+07
3.98824e+07
4.09031e+07
3.91158e+07
3.55785e+07
9.84343e+07
9.60273e+07
8.71569e+07
8.60317e+07
7.6882e+07
7.67126e+07
6.8183e+07
6.89087e+07
6.11033e+07
6.24196e+07
5.52797e+07
5.69027e+07
5.04198e+07
5.21389e+07
4.63498e+07
4.80154e+07
4.29642e+07
4.4475e+07
4.01898e+07
4.14879e+07
3.79706e+07
3.90411e+07
3.62616e+07
3.71312e+07
3.50245e+07
3.57581e+07
3.4227e+07
3.49202e+07
3.38519e+07
3.46214e+07
3.39218e+07
3.48894e+07
3.45165e+07
3.57559e+07
3.56266e+07
3.69856e+07
3.65087e+07
3.7399e+07
3.54598e+07
3.12723e+07
1.01701e+08
9.90394e+07
8.99024e+07
8.85099e+07
7.90533e+07
7.86514e+07
6.98667e+07
7.03988e+07
6.23849e+07
6.35355e+07
5.61833e+07
5.7672e+07
5.09299e+07
5.25605e+07
4.64451e+07
4.80817e+07
4.26315e+07
4.41808e+07
3.94276e+07
4.08335e+07
3.67909e+07
3.80327e+07
3.46908e+07
3.57816e+07
3.31038e+07
3.40861e+07
3.20098e+07
3.29499e+07
3.1398e+07
3.23791e+07
3.12897e+07
3.23995e+07
3.17503e+07
3.30303e+07
3.27285e+07
3.40055e+07
3.34012e+07
3.41144e+07
3.20024e+07
2.72304e+07
1.04448e+08
1.01609e+08
9.20555e+07
9.05025e+07
8.06923e+07
8.01847e+07
7.11735e+07
7.16354e+07
6.34508e+07
6.45453e+07
5.69896e+07
5.84357e+07
5.14328e+07
5.30409e+07
4.66142e+07
4.82553e+07
4.24513e+07
4.40399e+07
3.88931e+07
4.03826e+07
3.59069e+07
3.72851e+07
3.34737e+07
3.47564e+07
3.15827e+07
3.28054e+07
3.02266e+07
3.14345e+07
2.94018e+07
3.0642e+07
2.91252e+07
3.04351e+07
2.94353e+07
3.07972e+07
3.02155e+07
3.14134e+07
3.05593e+07
3.10848e+07
2.8712e+07
2.35853e+07
1.06712e+08
1.03764e+08
9.35635e+07
9.20193e+07
8.18393e+07
8.14694e+07
7.22217e+07
7.28903e+07
6.44006e+07
6.56911e+07
5.77502e+07
5.93536e+07
5.19469e+07
5.36677e+07
4.6859e+07
4.85706e+07
4.24186e+07
4.4045e+07
3.85812e+07
4.00911e+07
3.53201e+07
3.672e+07
3.26233e+07
3.3948e+07
3.04875e+07
3.17887e+07
2.89116e+07
3.02444e+07
2.78946e+07
2.93033e+07
2.74431e+07
2.89415e+07
2.75579e+07
2.90719e+07
2.80387e+07
2.92799e+07
2.78989e+07
2.83817e+07
2.54678e+07
2.0537e+07
1.08466e+08
1.04863e+08
9.43422e+07
9.34001e+07
8.26113e+07
8.30234e+07
7.30576e+07
7.43831e+07
6.51519e+07
6.68843e+07
5.83331e+07
6.01722e+07
5.23423e+07
5.41383e+07
4.70636e+07
4.87439e+07
4.24299e+07
4.3962e+07
3.83995e+07
3.97774e+07
3.49513e+07
3.61917e+07
3.20784e+07
3.32187e+07
2.97803e+07
3.0873e+07
2.80543e+07
2.91555e+07
2.68893e+07
2.80444e+07
2.62649e+07
2.74925e+07
2.61204e+07
2.73711e+07
2.6151e+07
2.7221e+07
2.53213e+07
2.59401e+07
2.21827e+07
1.881e+07
1.08909e+08
1.04984e+08
9.46976e+07
9.40025e+07
8.28566e+07
8.3288e+07
7.32583e+07
7.40141e+07
6.52705e+07
6.60514e+07
5.83678e+07
5.91444e+07
5.23005e+07
5.3093e+07
4.6951e+07
4.7757e+07
4.22535e+07
4.30502e+07
3.81699e+07
3.89319e+07
3.4682e+07
3.53952e+07
3.17826e+07
3.24564e+07
2.94643e+07
3.01422e+07
2.77088e+07
2.84688e+07
2.64779e+07
2.74133e+07
2.57116e+07
2.68723e+07
2.52912e+07
2.65549e+07
2.48275e+07
2.5733e+07
2.32082e+07
2.31504e+07
1.90203e+07
1.66451e+07
5.1621e+06
6.74469e+06
8.12113e+06
8.62195e+06
1.15957e+07
1.21271e+07
1.59912e+07
1.66038e+07
2.10828e+07
2.16699e+07
2.64216e+07
2.70024e+07
3.18194e+07
3.24317e+07
3.72371e+07
3.78777e+07
4.26712e+07
4.33061e+07
4.81142e+07
4.87009e+07
5.35486e+07
5.40499e+07
5.89501e+07
5.93388e+07
6.42894e+07
6.45505e+07
6.95326e+07
6.96654e+07
7.4642e+07
7.46653e+07
7.95714e+07
7.95728e+07
8.42497e+07
8.44775e+07
8.85008e+07
8.89714e+07
9.18496e+07
9.12231e+07
9.35182e+07
1.00153e+08
2.89323e+06
5.09122e+06
5.61934e+06
8.70011e+06
1.02159e+07
1.30031e+07
1.51676e+07
1.768e+07
2.04914e+07
2.26586e+07
2.59955e+07
2.78065e+07
3.15181e+07
3.30079e+07
3.69932e+07
3.8196e+07
4.24091e+07
4.33405e+07
4.77681e+07
4.84274e+07
5.30689e+07
5.34476e+07
5.83015e+07
5.83902e+07
6.34464e+07
6.32409e+07
6.84752e+07
6.7979e+07
7.33497e+07
7.25597e+07
7.80238e+07
7.68623e+07
8.24678e+07
8.06998e+07
8.67427e+07
8.42581e+07
9.10658e+07
8.89886e+07
9.51602e+07
9.43938e+07
4.40139e+06
6.38419e+06
7.24388e+06
1.01672e+07
1.17658e+07
1.46561e+07
1.65998e+07
1.92873e+07
2.15005e+07
2.39946e+07
2.64719e+07
2.87793e+07
3.14917e+07
3.36094e+07
3.65139e+07
3.84403e+07
4.15011e+07
4.32375e+07
4.64318e+07
4.79787e+07
5.1294e+07
5.26485e+07
5.6077e+07
5.72305e+07
6.07663e+07
6.16987e+07
6.53378e+07
6.60007e+07
6.97496e+07
7.00449e+07
7.39331e+07
7.37815e+07
7.78005e+07
7.7508e+07
8.13774e+07
8.21558e+07
8.51689e+07
8.74836e+07
8.93776e+07
9.12103e+07
7.07202e+06
8.87334e+06
9.53261e+06
1.22868e+07
1.34651e+07
1.64997e+07
1.79205e+07
2.09006e+07
2.24634e+07
2.53423e+07
2.70148e+07
2.98182e+07
3.1589e+07
3.43281e+07
3.61856e+07
3.8851e+07
4.0781e+07
4.33572e+07
4.53464e+07
4.78186e+07
4.98572e+07
5.22102e+07
5.42905e+07
5.65034e+07
5.86178e+07
6.06572e+07
6.27947e+07
6.46266e+07
6.67583e+07
6.84277e+07
7.04665e+07
7.22683e+07
7.40509e+07
7.65859e+07
7.80136e+07
8.1478e+07
8.27495e+07
8.60672e+07
8.75556e+07
8.92246e+07
9.07776e+06
1.0934e+07
1.13168e+07
1.40721e+07
1.48229e+07
1.79697e+07
1.88444e+07
2.20986e+07
2.30498e+07
2.63042e+07
2.73096e+07
3.05505e+07
3.15941e+07
3.4827e+07
3.59003e+07
3.91192e+07
4.02178e+07
4.34036e+07
4.45238e+07
4.76517e+07
4.87894e+07
5.18326e+07
5.29815e+07
5.59146e+07
5.70615e+07
5.98773e+07
6.09903e+07
6.37471e+07
6.47642e+07
6.76471e+07
6.85046e+07
7.17861e+07
7.25234e+07
7.62471e+07
7.7075e+07
8.07011e+07
8.18077e+07
8.46114e+07
8.58089e+07
8.73675e+07
1.03502e+07
1.23715e+07
1.23861e+07
1.53458e+07
1.57028e+07
1.90118e+07
1.94482e+07
2.29128e+07
2.33926e+07
2.69205e+07
2.74388e+07
3.09912e+07
3.15368e+07
3.50993e+07
3.56622e+07
3.92227e+07
3.9799e+07
4.33386e+07
4.39274e+07
4.74212e+07
4.80206e+07
5.14453e+07
5.20478e+07
5.53967e+07
5.59852e+07
5.92925e+07
5.98428e+07
6.31985e+07
6.37039e+07
6.72136e+07
6.77325e+07
7.13883e+07
7.20555e+07
7.56088e+07
7.65338e+07
7.96043e+07
8.07149e+07
8.30782e+07
8.41642e+07
8.56351e+07
1.12835e+07
1.34253e+07
1.30904e+07
1.62689e+07
1.63076e+07
1.97663e+07
1.99142e+07
2.34977e+07
2.36975e+07
2.73488e+07
2.75917e+07
3.12777e+07
3.15547e+07
3.52522e+07
3.55531e+07
3.92434e+07
3.95616e+07
4.32263e+07
4.3559e+07
4.71802e+07
4.75251e+07
5.10932e+07
5.1446e+07
5.49708e+07
5.53288e+07
5.88429e+07
5.92183e+07
6.2756e+07
6.31928e+07
6.67401e+07
6.73102e+07
7.07615e+07
7.15198e+07
7.46993e+07
7.56279e+07
7.83677e+07
7.93737e+07
8.15469e+07
8.24994e+07
8.39787e+07
1.21545e+07
1.43231e+07
1.37228e+07
1.70166e+07
1.68355e+07
2.03634e+07
2.0353e+07
2.39599e+07
2.40375e+07
2.7686e+07
2.78246e+07
3.1496e+07
3.16796e+07
3.53557e+07
3.55714e+07
3.92344e+07
3.94731e+07
4.31077e+07
4.33645e+07
4.69606e+07
4.72347e+07
5.07905e+07
5.10863e+07
5.46084e+07
5.49404e+07
5.84339e+07
5.88311e+07
6.22817e+07
6.27824e+07
6.61419e+07
6.6776e+07
6.99667e+07
7.07358e+07
7.36653e+07
7.45373e+07
7.70984e+07
7.80076e+07
8.00789e+07
8.09291e+07
8.24116e+07
1.30964e+07
1.52075e+07
1.44293e+07
1.77148e+07
1.73972e+07
2.08994e+07
2.0815e+07
2.4367e+07
2.44143e+07
2.79814e+07
2.81136e+07
3.16856e+07
3.1875e+07
3.54418e+07
3.56697e+07
3.92199e+07
3.94746e+07
4.29982e+07
4.32744e+07
4.6765e+07
4.70645e+07
5.0519e+07
5.08517e+07
5.42661e+07
5.46504e+07
5.80122e+07
5.84709e+07
6.17536e+07
6.23056e+07
6.5468e+07
6.61197e+07
6.91066e+07
6.98512e+07
7.25925e+07
7.341e+07
7.5827e+07
7.66685e+07
7.86969e+07
7.94701e+07
8.10356e+07
1.41557e+07
1.61528e+07
1.52628e+07
1.84422e+07
1.80419e+07
2.14416e+07
2.13252e+07
2.47682e+07
2.4823e+07
2.82674e+07
2.84316e+07
3.18681e+07
3.21028e+07
3.55262e+07
3.5806e+07
3.92106e+07
3.95209e+07
4.29007e+07
4.32357e+07
4.65848e+07
4.6947e+07
5.02586e+07
5.0657e+07
5.39208e+07
5.43686e+07
5.7568e+07
5.80784e+07
6.11891e+07
6.17711e+07
6.47591e+07
6.5415e+07
6.82346e+07
6.89568e+07
7.15502e+07
7.23159e+07
7.46196e+07
7.53856e+07
7.73461e+07
7.80522e+07
7.96493e+07
1.53333e+07
1.71877e+07
1.62305e+07
1.92409e+07
1.87881e+07
2.2033e+07
2.19004e+07
2.51995e+07
2.52696e+07
2.85707e+07
2.87722e+07
3.20614e+07
3.23477e+07
3.56197e+07
3.59601e+07
3.92112e+07
3.95875e+07
4.28133e+07
4.32179e+07
4.6412e+07
4.6845e+07
4.99986e+07
5.04654e+07
5.35662e+07
5.40745e+07
5.71063e+07
5.76633e+07
6.0605e+07
6.12145e+07
6.40376e+07
6.46989e+07
6.73635e+07
6.8071e+07
7.05235e+07
7.12653e+07
7.34446e+07
7.41933e+07
7.60554e+07
7.67529e+07
7.83181e+07
1.66102e+07
1.83144e+07
1.7319e+07
2.01283e+07
1.96388e+07
2.26982e+07
2.25524e+07
2.56859e+07
2.57666e+07
2.89126e+07
2.91439e+07
3.22814e+07
3.26122e+07
3.57325e+07
3.61282e+07
3.92259e+07
3.96652e+07
4.27352e+07
4.32073e+07
4.62425e+07
4.67442e+07
4.9735e+07
5.02678e+07
5.32019e+07
5.37696e+07
5.66318e+07
5.72382e+07
6.00084e+07
6.06558e+07
6.33068e+07
6.39952e+07
6.64893e+07
6.7215e+07
6.95064e+07
7.02591e+07
7.23033e+07
7.30581e+07
7.48289e+07
7.55417e+07
7.70577e+07
1.79629e+07
1.95226e+07
1.85081e+07
2.11061e+07
2.05889e+07
2.34477e+07
2.32874e+07
2.62424e+07
2.63259e+07
2.93088e+07
2.95594e+07
3.25418e+07
3.2906e+07
3.5874e+07
3.63151e+07
3.92601e+07
3.97538e+07
4.26684e+07
4.32007e+07
4.60768e+07
4.6641e+07
4.94688e+07
5.00629e+07
5.28307e+07
5.34553e+07
5.61481e+07
5.68049e+07
5.94034e+07
6.00935e+07
6.25716e+07
6.32943e+07
6.56205e+07
6.63713e+07
6.85116e+07
6.92795e+07
7.12029e+07
7.19678e+07
7.36482e+07
7.43832e+07
7.58321e+07
1.93702e+07
2.07973e+07
1.97766e+07
2.21672e+07
2.16282e+07
2.42829e+07
2.41058e+07
2.68761e+07
2.69549e+07
2.97693e+07
3.00287e+07
3.28526e+07
3.32389e+07
3.60533e+07
3.6528e+07
3.93205e+07
3.98572e+07
4.26179e+07
4.31998e+07
4.59193e+07
4.65363e+07
4.92046e+07
4.98515e+07
5.24572e+07
5.31319e+07
5.56609e+07
5.63625e+07
5.87972e+07
5.95248e+07
6.18431e+07
6.25942e+07
6.47706e+07
6.55399e+07
6.75465e+07
6.8326e+07
7.01362e+07
7.09115e+07
7.25097e+07
7.3254e+07
7.4665e+07
2.08148e+07
2.21233e+07
2.11052e+07
2.33003e+07
2.27435e+07
2.51988e+07
2.50027e+07
2.75876e+07
2.76551e+07
3.02986e+07
3.05573e+07
3.32207e+07
3.36177e+07
3.62776e+07
3.67737e+07
3.94143e+07
3.99814e+07
4.25907e+07
4.32095e+07
4.57766e+07
4.64343e+07
4.8949e+07
4.96377e+07
5.20887e+07
5.28034e+07
5.51779e+07
5.59154e+07
5.81981e+07
5.89556e+07
6.11283e+07
6.19024e+07
6.39435e+07
6.47296e+07
6.66139e+07
6.74047e+07
6.9103e+07
6.98889e+07
7.13767e+07
7.21467e+07
7.34657e+07
2.22827e+07
2.34862e+07
2.24769e+07
2.44918e+07
2.39206e+07
2.61858e+07
2.59693e+07
2.83728e+07
2.84231e+07
3.08967e+07
3.1146e+07
3.36489e+07
3.40458e+07
3.65519e+07
3.70573e+07
3.95479e+07
4.01326e+07
4.25935e+07
4.32365e+07
4.5656e+07
4.63422e+07
4.87094e+07
4.94287e+07
5.17326e+07
5.24778e+07
5.47066e+07
5.54726e+07
5.76128e+07
5.83953e+07
6.04306e+07
6.12256e+07
6.31356e+07
6.39389e+07
6.56979e+07
6.65053e+07
6.80855e+07
6.88904e+07
7.02757e+07
7.10652e+07
7.23151e+07
2.37619e+07
2.48729e+07
2.38764e+07
2.57276e+07
2.51445e+07
2.72323e+07
2.69941e+07
2.92236e+07
2.92519e+07
3.15598e+07
3.17918e+07
3.4137e+07
3.4524e+07
3.68785e+07
3.7382e+07
3.97253e+07
4.03159e+07
4.26322e+07
4.32874e+07
4.55639e+07
4.62673e+07
4.84926e+07
4.92323e+07
5.13955e+07
5.21627e+07
5.42525e+07
5.50409e+07
5.70439e+07
5.78489e+07
5.97492e+07
6.05667e+07
6.23446e+07
6.31704e+07
6.48037e+07
6.56314e+07
6.71002e+07
6.79212e+07
6.92168e+07
7.00262e+07
7.12053e+07
2.5242e+07
2.62709e+07
2.529e+07
2.69937e+07
2.64005e+07
2.83249e+07
2.80643e+07
3.01298e+07
3.01321e+07
3.2281e+07
3.24892e+07
3.46815e+07
3.50499e+07
3.72568e+07
3.77486e+07
3.99484e+07
4.05341e+07
4.27101e+07
4.33668e+07
4.5505e+07
4.62153e+07
4.8304e+07
4.90546e+07
5.10826e+07
5.18637e+07
5.38196e+07
5.46238e+07
5.64949e+07
5.73162e+07
5.9088e+07
5.9921e+07
6.15771e+07
6.24154e+07
6.39386e+07
6.47751e+07
6.61489e+07
6.69784e+07
6.81942e+07
6.90164e+07
7.01301e+07
2.67133e+07
2.76689e+07
2.67051e+07
2.82765e+07
2.76747e+07
2.94499e+07
2.91664e+07
3.10792e+07
3.10527e+07
3.30512e+07
3.32301e+07
3.52763e+07
3.56187e+07
3.76838e+07
3.81549e+07
4.02166e+07
4.07877e+07
4.28284e+07
4.34767e+07
4.5482e+07
4.61892e+07
4.81467e+07
4.88988e+07
5.07973e+07
5.15834e+07
5.34117e+07
5.42231e+07
5.59696e+07
5.67991e+07
5.84513e+07
5.92922e+07
6.08362e+07
6.16819e+07
6.31019e+07
6.39463e+07
6.52249e+07
6.60654e+07
6.71895e+07
6.80318e+07
6.90547e+07
2.81663e+07
2.90559e+07
2.81099e+07
2.95626e+07
2.89534e+07
3.05934e+07
3.02868e+07
3.2059e+07
3.20014e+07
3.38595e+07
3.40049e+07
3.59132e+07
3.62234e+07
3.81537e+07
3.85964e+07
4.05264e+07
4.10743e+07
4.2986e+07
4.36164e+07
4.54948e+07
4.61895e+07
4.80222e+07
4.87663e+07
5.0542e+07
5.13238e+07
5.30317e+07
5.38416e+07
5.54712e+07
5.63012e+07
5.78412e+07
5.86843e+07
6.01216e+07
6.09715e+07
6.229e+07
6.31414e+07
6.43234e+07
6.51749e+07
6.62067e+07
6.70666e+07
6.80003e+07
2.95918e+07
3.04215e+07
2.94933e+07
3.08397e+07
3.02237e+07
3.17416e+07
3.1412e+07
3.30558e+07
3.29657e+07
3.46941e+07
3.48026e+07
3.65823e+07
3.68552e+07
3.86591e+07
3.90668e+07
4.08727e+07
4.13896e+07
4.31792e+07
4.37834e+07
4.55419e+07
4.62151e+07
4.79299e+07
4.86569e+07
5.03171e+07
5.10856e+07
5.2681e+07
5.34806e+07
5.50011e+07
5.58236e+07
5.72584e+07
5.80964e+07
5.94336e+07
6.02801e+07
6.15053e+07
6.23534e+07
6.34519e+07
6.42977e+07
6.52628e+07
6.61113e+07
6.70032e+07
3.09809e+07
3.17554e+07
3.08445e+07
3.20954e+07
3.14731e+07
3.28811e+07
3.25288e+07
3.4056e+07
3.39325e+07
3.55422e+07