/*--------------------------------*- C++ -*----------------------------------*\
| =========                 |                                                 |
| \\      /  F ield         | OpenFOAM: The Open Source CFD Toolbox           |
|  \\    /   O peration     | Version:  v2012                                 |
|   \\  /    A nd           | Website:  www.openfoam.com                      |
|    \\/     M anipulation  |                                                 |
\*---------------------------------------------------------------------------*/
FoamFile
{
    version     2.0;
    format      ascii;
    class       volVectorField;
    location    "17";
    object      D;
}
// * * * * * * * * * * * * * * * * * * * * * * * * * * * * * * * * * * * * * //

dimensions      [0 1 0 0 0 0 0];


internalField   nonuniform List<vector> 
1896
(
(0.00187969 -6.98628e-06 0)
(0.00175084 -7.92244e-05 0)
(0.00185465 -2.68531e-06 0)
(0.000736798 -0.000658036 0)
(0.00186157 -7.62769e-06 0)
(0.00184831 -8.7605e-06 0)
(0.000658315 -0.000700254 0)
(0.00175867 -8.13408e-06 0)
(0.00140946 -9.3086e-05 0)
(0.00175549 -5.10106e-06 0)
(0.00190206 -6.85632e-07 0)
(0.00161312 -1.77538e-06 0)
(0.00165121 -2.14646e-07 0)
(0.00162244 -2.89803e-07 0)
(0.000725113 -0.000585821 0)
(0.000144211 -0.00102281 0)
(0.00157114 -0.000106827 0)
(0.000796463 -0.000844007 0)
(0.00148925 -8.70309e-05 0)
(0.00125593 -0.000493034 0)
(0.0015615 -0.000127501 0)
(0.00172361 -5.42047e-05 0)
(0.00085208 -0.000275654 0)
(0.000809116 -0.000304365 0)
(0.00170315 -8.32116e-05 0)
(0.00171904 -7.81273e-05 0)
(0.00165403 3.59562e-07 0)
(0.00166953 -2.82653e-07 0)
(0.00188857 -5.48743e-06 0)
(0.00136149 -8.208e-05 0)
(0.00138469 -7.70016e-05 0)
(0.00174008 -0.000101568 0)
(0.0016102 -5.99146e-06 0)
(0.00175309 -8.28545e-05 0)
(0.00109632 -0.000188546 0)
(0.00191151 -2.41756e-06 0)
(0.00142033 -7.51987e-05 0)
(0.00182217 -4.04791e-05 0)
(0.000682728 -0.000879081 0)
(0.0013282 -8.4536e-05 0)
(0.00172383 -0.000118942 0)
(0.0010932 -0.000569639 0)
(0.00144692 -3.8222e-05 0)
(0.0010712 -0.000302109 0)
(0.00166878 -2.57189e-08 0)
(0.00166107 7.36572e-07 0)
(0.000662255 -0.000642123 0)
(0.00190147 -2.02135e-06 0)
(0.000951454 -0.000314499 0)
(0.000534274 -0.000681519 0)
(0.00184916 -4.17132e-06 0)
(0.00179313 -9.54255e-06 0)
(0.00178243 -8.84762e-06 0)
(0.00172969 -5.58806e-05 0)
(0.00138611 -9.45888e-05 0)
(0.00164238 -0.000131901 0)
(0.0012315 -0.000152836 0)
(0.00190099 -5.05971e-06 0)
(0.001854 -2.61305e-05 0)
(0.00140844 -0.000144043 0)
(0.00176367 -6.67113e-06 0)
(0.000587466 -0.00063238 0)
(0.000602921 -0.0005905 0)
(0.00180023 -2.14571e-05 0)
(0.00129794 -0.000495769 0)
(0.00172515 -0.000114362 0)
(0.00098821 -0.000203852 0)
(0.00156466 -6.33882e-06 0)
(0.00181058 -3.84676e-05 0)
(0.000957253 -0.00022052 0)
(0.00163185 -1.66756e-06 0)
(0.000697853 -0.000501545 0)
(0.00181047 -4.06218e-05 0)
(0.001655 -0.000132864 0)
(0.00106883 -0.000202208 0)
(0.00173406 -7.72508e-05 0)
(0.00173364 -8.24801e-05 0)
(0.00184168 -1.9665e-05 0)
(0.00183026 -2.24554e-05 0)
(0.00162311 -4.00993e-05 0)
(0.00113751 -0.000561416 0)
(0.000869601 -0.00026622 0)
(0.00170046 -1.08049e-06 0)
(0.00170448 -7.76955e-06 0)
(0.00171358 -7.00217e-06 0)
(0.00157017 -6.09686e-05 0)
(0.00158254 -1.1871e-05 0)
(0.00158383 -1.0094e-05 0)
(0.00128145 -0.000141222 0)
(0.00149922 -2.21105e-05 0)
(0.00163369 -2.17501e-05 0)
(0.000224325 -0.000396294 0)
(0.00148516 -4.66634e-05 0)
(0.000942987 -0.000686406 0)
(0.000774356 -0.000322691 0)
(0.00171004 -6.8837e-05 0)
(0.00181873 -5.40288e-05 0)
(0.00193478 2.3008e-06 0)
(0.0018116 -6.43884e-05 0)
(0.00151395 -1.51271e-05 0)
(0.00150582 -1.77442e-05 0)
(0.00156506 -7.09445e-06 0)
(0.00179939 -1.94008e-05 0)
(0.00146595 -4.82317e-05 0)
(0.00136664 -7.25704e-05 0)
(0.00146353 -3.24455e-05 0)
(0.0015858 -6.04607e-05 0)
(0.00101035 -0.000396903 0)
(0.000976542 -0.000218841 0)
(6.84328e-05 -0.000478308 0)
(0.00193654 3.49943e-06 0)
(0.00182246 -5.70668e-05 0)
(0.00108095 -0.000167069 0)
(0.00124461 -0.000137034 0)
(0.00101076 -0.000833475 0)
(0.00156527 -1.46241e-05 0)
(0.00171451 -4.57844e-07 0)
(0.00157763 -2.00356e-05 0)
(0.00116086 -0.0003771 0)
(0.0013963 -8.1691e-05 0)
(0.00112193 -0.00038535 0)
(0.00141332 -0.000100847 0)
(0.00180738 -4.63783e-05 0)
(0.00169806 -3.3531e-06 0)
(0.00169944 -2.87196e-06 0)
(0.00129487 -0.00014639 0)
(0.00101823 -0.000365739 0)
(0.00174652 -8.80595e-06 0)
(0.00147537 -0.000119091 0)
(0.00147735 -2.18317e-05 0)
(0.00146393 -2.66223e-05 0)
(0.00162964 -2.49767e-05 0)
(0.00104863 -0.00018369 0)
(0.000992964 -0.000671868 0)
(0.00150352 -8.83753e-05 0)
(0.000573565 -0.000592691 0)
(0.0009048 -0.000541242 0)
(0.000852605 -0.000582504 0)
(0.00174215 -0.000106193 0)
(0.00125656 -9.18994e-05 0)
(0.00178049 -4.72693e-05 0)
(0.00106416 -0.000259314 0)
(0.00131684 -8.4059e-05 0)
(0.000213627 -0.00114368 0)
(0.00168137 -1.5258e-05 0)
(0.00159312 -8.1792e-05 0)
(0.00161312 -8.06622e-05 0)
(0.00146052 -0.000115786 0)
(0.00077841 -0.000343125 0)
(0.00157989 -1.7199e-05 0)
(0.00165507 -4.01326e-07 0)
(0.00180074 -5.99325e-05 0)
(0.00177255 -4.69347e-05 0)
(0.00178848 -2.81631e-05 0)
(0.00176608 -2.90174e-05 0)
(0.00114014 -0.000168615 0)
(0.00170672 -5.45069e-07 0)
(0.00114317 -0.000175509 0)
(0.000866488 -0.000688445 0)
(0.00180326 -5.73174e-06 0)
(0.00180374 -8.35747e-06 0)
(0.000957754 -0.000239405 0)
(0.00139942 -0.000115746 0)
(0.00184792 -2.60785e-05 0)
(0.000210224 -0.00116973 0)
(0.00174574 -5.22517e-06 0)
(1.87109e-05 -0.0013096 0)
(0.00190546 -3.77142e-06 0)
(0.0019103 -2.86918e-06 0)
(0.00178413 -6.75048e-05 0)
(0.00178526 -7.16352e-05 0)
(0.00171017 -0.000112914 0)
(0.00159921 -5.82109e-06 0)
(0.00160468 -4.13892e-06 0)
(0.000818237 -0.00058374 0)
(0.000756609 -0.000618001 0)
(0.000881154 -0.000342829 0)
(0.00170694 -7.33157e-05 0)
(0.00190858 -1.34146e-06 0)
(0.00141841 -6.00768e-05 0)
(0.0016021 -7.40279e-06 0)
(0.00140652 -0.000127845 0)
(0.00179471 -2.94554e-05 0)
(0.000860955 -0.00034167 0)
(0.000762259 -0.000584577 0)
(0.000172794 -0.00120842 0)
(0.00153419 -1.30291e-05 0)
(0.000315938 -0.000964418 0)
(0.00158545 -3.28803e-05 0)
(0.00157418 -4.90224e-05 0)
(0.000912927 -0.000504692 0)
(0.00190814 -2.20091e-06 0)
(0.00109894 -0.000244358 0)
(0.000488677 -0.00053033 0)
(0.00122476 -0.000524872 0)
(0.00158311 -6.21215e-06 0)
(0.00146031 -3.81103e-05 0)
(0.00110835 -0.000274713 0)
(0.00159172 -3.97493e-06 0)
(0.00170008 -1.70004e-06 0)
(0.00157428 -8.83191e-06 0)
(0.00117283 -0.000513859 0)
(0.00190156 -3.03616e-06 0)
(0.00177167 -3.10974e-05 0)
(0.000375386 -0.000950223 0)
(0.00177653 -2.5814e-05 0)
(0.000990378 -0.000292381 0)
(0.00114907 -0.000146708 0)
(0.00159359 -1.53912e-05 0)
(0.00164046 -0.000127234 0)
(0.000989293 -0.000225025 0)
(0.00143597 -7.68308e-05 0)
(0.00164081 -9.92511e-05 0)
(0.00164545 -0.000103637 0)
(0.00160812 -2.04142e-06 0)
(0.0014287 -5.15632e-05 0)
(0.00117239 -0.000468501 0)
(0.00126509 -0.000141314 0)
(0.00129114 -0.000138154 0)
(0.00135235 -7.84639e-05 0)
(0.00156385 -6.10134e-05 0)
(0.00174978 -3.08582e-05 0)
(0.000614169 -0.000430149 0)
(0.000942573 -0.000237506 0)
(0.00183382 -4.57279e-05 0)
(0.00128323 -8.35293e-05 0)
(0.000937546 -0.000551462 0)
(0.00162249 -6.98205e-05 0)
(9.66661e-05 -0.00125725 0)
(0.00175524 -9.32499e-05 0)
(8.21525e-05 -0.00126606 0)
(0.00178393 -7.79055e-06 0)
(0.00179285 -5.68772e-06 0)
(0.00194759 2.98632e-06 0)
(0.00180699 -7.78025e-05 0)
(0.00176022 -1.5395e-05 0)
(0.00157821 -5.11474e-06 0)
(0.00109548 -0.000353868 0)
(0.000211231 -0.00115355 0)
(0.00142649 -0.00014242 0)
(0.000987964 -0.000532519 0)
(0.000979462 -0.000373808 0)
(0.00160698 -3.04815e-06 0)
(0.000262309 -0.00111133 0)
(0.00173096 -5.03423e-05 0)
(0.001603 -3.12377e-06 0)
(0.00186845 -1.95785e-05 0)
(0.00161233 -1.88256e-06 0)
(0.00161891 -1.25048e-06 0)
(0.00117508 -0.000137117 0)
(0.00130892 -0.000279535 0)
(0.00142406 -4.31046e-05 0)
(0.00175355 -8.95696e-05 0)
(0.00192903 -3.02391e-07 0)
(0.00177323 -9.58485e-05 0)
(0.0017132 -3.80254e-05 0)
(0.00152769 -3.76426e-05 0)
(0.000262461 -0.00109157 0)
(0.000661562 -0.000546358 0)
(0.00110316 -0.000174001 0)
(0.00148891 -0.000128654 0)
(0.00154817 -0.000141706 0)
(0.00154339 -0.000131335 0)
(0.00159001 -5.81582e-06 0)
(0.00155705 -0.000112928 0)
(0.00133637 -8.44697e-05 0)
(2.6791e-05 -0.00131151 0)
(0.00151037 -1.95416e-05 0)
(0.00139637 -0.000136354 0)
(0.00172316 -3.50228e-05 0)
(0.00150828 -1.58898e-05 0)
(0.00161389 -1.07913e-05 0)
(0.000467589 -0.000557593 0)
(0.00163117 -3.12854e-07 0)
(0.00156978 -9.97295e-05 0)
(0.00154707 -2.95259e-05 0)
(0.000996084 -0.000204332 0)
(0.00189128 -7.51258e-06 0)
(0.0016764 -3.70954e-05 0)
(0.00189077 -1.14657e-06 0)
(0.00170954 -0.000117 0)
(0.00113089 -0.000148762 0)
(0.00157579 -1.85516e-05 0)
(0.00173543 -0.000118137 0)
(0.00163441 -6.59997e-05 0)
(0.000191761 -0.0010178 0)
(0.00158492 -4.48629e-05 0)
(0.00156365 -1.73172e-05 0)
(0.00161791 -3.64101e-05 0)
(0.00190957 -3.50684e-07 0)
(9.43771e-05 -0.00108302 0)
(0.00147259 -7.89085e-05 0)
(0.00143298 -6.68654e-05 0)
(0.00156727 -4.84604e-05 0)
(4.60452e-05 -0.00127176 0)
(0.00163474 -2.53307e-07 0)
(0.000147598 -0.000968191 0)
(0.0015606 -1.12763e-05 0)
(0.000376521 -0.000981274 0)
(0.00152723 -0.000111057 0)
(0.000320459 -0.00100224 0)
(0.00142374 -6.47564e-05 0)
(0.000770364 -0.00035646 0)
(0.000641493 -0.000693325 0)
(0.00174903 -4.10466e-05 0)
(0.00171806 -1.66989e-05 0)
(0.00170659 -1.72113e-05 0)
(0.00158871 -1.27809e-05 0)
(0.00158857 -1.12333e-05 0)
(0.00169251 -3.57006e-05 0)
(0.00184115 -2.72812e-05 0)
(0.00150914 -2.1951e-05 0)
(0.00161455 -2.22208e-06 0)
(0.00192366 -5.97786e-08 0)
(0.00179672 -6.95818e-05 0)
(0.00146751 -0.000109705 0)
(0.00174866 -4.67389e-07 0)
(0.00182496 -3.66589e-05 0)
(0.00141041 -4.42551e-05 0)
(0.00183293 -2.72032e-05 0)
(0.00166928 -1.51548e-05 0)
(0.000388639 -0.000725698 0)
(0.000341316 -0.000776367 0)
(0.00137712 -4.79394e-05 0)
(0.0015584 -2.36243e-05 0)
(0.00148389 -2.88533e-05 0)
(0.00141361 -4.20004e-05 0)
(0.00157872 -1.16062e-05 0)
(0.00186314 -1.16126e-05 0)
(0.00177002 -6.46455e-05 0)
(0.00157854 -7.62419e-05 0)
(0.00150417 -0.000144646 0)
(0.00192996 4.07851e-07 0)
(0.00178 -8.94364e-05 0)
(0.00175785 -3.80664e-06 0)
(0.00157491 -9.80117e-05 0)
(0.00159696 -3.11765e-06 0)
(0.00074792 -0.000357238 0)
(0.0018655 -1.06849e-05 0)
(0.00176239 -6.92943e-05 0)
(0.00131881 -6.76293e-05 0)
(0.00155165 -0.000111795 0)
(0.00133119 -6.63125e-05 0)
(0.00138814 -7.05623e-05 0)
(0.00166477 -1.02155e-06 0)
(0.00146951 -9.32522e-05 0)
(0.00147826 -7.1399e-05 0)
(0.000912999 -0.000711983 0)
(0.00154141 -1.23761e-05 0)
(0.00157831 -7.64624e-05 0)
(0.00157164 -3.82589e-05 0)
(0.00185177 -1.42235e-05 0)
(0.00129087 -0.000188097 0)
(0.0015561 -4.76411e-05 0)
(0.00154119 -9.8496e-05 0)
(0.00145188 -9.42788e-05 0)
(0.0014064 -0.000366852 0)
(0.00066373 -0.000809032 0)
(0.00154692 -1.5962e-05 0)
(0.00113255 -0.000346488 0)
(0.001299 -0.000169101 0)
(6.59875e-05 -0.00126685 0)
(0.000640725 -0.000867458 0)
(0.00150776 -0.000134309 0)
(0.00174784 -6.75712e-05 0)
(0.00158599 -9.37185e-05 0)
(0.00119616 -0.000108041 0)
(0.00121899 -0.000100043 0)
(0.00157192 -3.15864e-05 0)
(4.44633e-05 -0.00129669 0)
(0.000630596 -0.00064884 0)
(0.00163033 -6.11326e-07 0)
(0.00194354 1.82126e-06 0)
(0.00179667 -8.45406e-05 0)
(0.00174675 -7.24001e-05 0)
(0.00149233 -3.3356e-05 0)
(0.000942003 -0.000824703 0)
(0.00124953 -0.000157156 0)
(0.00159926 -1.39745e-05 0)
(0.00154695 -1.37932e-05 0)
(0.00157779 -8.07158e-06 0)
(0.00175771 -0.000102625 0)
(0.00154006 -6.59235e-05 0)
(0.00182863 -2.72511e-05 0)
(0.00150882 -2.98244e-05 0)
(0.00190303 -2.94176e-06 0)
(0.000507978 -0.000944066 0)
(0.00175985 -6.41866e-05 0)
(0.00191992 -3.52658e-07 0)
(0.000467949 -0.0009456 0)
(0.0017393 -9.55813e-06 0)
(0.0018575 -1.03616e-05 0)
(0.000270079 -0.000772067 0)
(0.0010527 -0.000737562 0)
(0.00175758 -1.89425e-05 0)
(0.00155853 -4.39573e-05 0)
(0.00135238 -0.000110079 0)
(0.00118196 -0.00011919 0)
(0.00170259 -4.73402e-05 0)
(0.00170277 -4.4359e-05 0)
(0.00156211 -3.66179e-05 0)
(5.53685e-05 -0.00127077 0)
(0.00148323 -0.000135784 0)
(0.00163095 -1.47642e-06 0)
(0.00135133 -0.000104827 0)
(0.0013465 -0.000172644 0)
(0.00161094 -4.43573e-05 0)
(0.000640212 -0.000417697 0)
(0.00163707 -8.92976e-08 0)
(0.000195118 -0.000909471 0)
(0.00139821 -4.27773e-05 0)
(0.00167925 -3.40922e-06 0)
(0.00167457 -2.81259e-06 0)
(0.000207567 -0.00111796 0)
(0.001197 -0.000120162 0)
(0.00119603 -0.000125078 0)
(0.00174508 -2.82644e-05 0)
(0.000112592 -0.00115644 0)
(0.00137673 -4.86758e-05 0)
(0.001719 -1.32596e-05 0)
(0.00133194 -0.000108409 0)
(0.00194811 1.26807e-06 0)
(0.00179191 -9.48886e-05 0)
(0.000805653 -0.000546246 0)
(0.00129329 -8.29601e-05 0)
(0.00151157 -1.86423e-05 0)
(0.00154399 -6.71563e-05 0)
(0.00139416 -0.000151662 0)
(0.000748532 -0.000672993 0)
(0.000732281 -0.000715922 0)
(0.00147961 -0.000185929 0)
(0.00131781 -0.000188745 0)
(0.00139596 -4.322e-05 0)
(0.0016527 -7.7274e-05 0)
(0.00125245 -8.8608e-05 0)
(0.00127087 -8.29965e-05 0)
(0.00169918 -0.000113038 0)
(0.000108711 -0.00109073 0)
(0.00124564 -0.000257726 0)
(0.00184131 -3.02654e-05 0)
(0.00127102 -0.000233701 0)
(0.00137559 -0.000122537 0)
(0.00175604 -2.57595e-05 0)
(0.00020676 -0.00116087 0)
(0.00193785 6.73902e-07 0)
(0.0017807 -9.72895e-05 0)
(0.00169265 -2.23982e-05 0)
(0.00177158 -1.49784e-05 0)
(0.00191234 1.54073e-08 0)
(0.00150591 -0.000124613 0)
(0.000488906 -0.000556443 0)
(0.00161955 -5.96278e-05 0)
(0.00161878 -5.50236e-05 0)
(0.0017676 -1.95546e-05 0)
(0.00159518 -4.59945e-05 0)
(0.00168955 -3.53273e-06 0)
(0.00175514 -2.37385e-05 0)
(0.00133887 -6.01183e-05 0)
(0.00150457 -0.000215742 0)
(0.00164631 -6.30607e-06 0)
(0.000995071 -0.000341582 0)
(0.00175592 -4.2606e-05 0)
(0.00125041 -9.10993e-05 0)
(0.00138583 -9.11822e-05 0)
(0.00146117 -7.05202e-05 0)
(0.000389108 -0.000690797 0)
(0.00122885 -0.000106423 0)
(0.0012504 -0.000101916 0)
(0.00187521 -2.90035e-06 0)
(0.00102722 -0.000781203 0)
(0.00183506 -1.43513e-05 0)
(0.00162054 -2.42324e-06 0)
(0.00160563 -7.01947e-05 0)
(0.00174804 -4.68313e-05 0)
(0.0017958 -4.89312e-05 0)
(0.00165159 -1.99644e-05 0)
(0.00138666 -6.49171e-05 0)
(0.00161261 -6.56534e-06 0)
(0.0017246 -6.49197e-05 0)
(2.20355e-05 -0.00131968 0)
(0.00159721 -2.42197e-05 0)
(0.00176657 -3.37811e-06 0)
(0.00166562 -2.1361e-05 0)
(0.00182318 -1.61886e-05 0)
(0.0015995 -1.1433e-05 0)
(0.000634268 -0.000413872 0)
(0.00161871 -2.19127e-06 0)
(0.00136643 -0.000118177 0)
(0.00159774 -3.72089e-05 0)
(0.00142995 -0.000125402 0)
(0.00120739 -0.000108674 0)
(0.00158597 -3.97916e-05 0)
(0.00147319 -0.000125011 0)
(0.00190262 -3.45969e-06 0)
(0.000619414 -0.000808765 0)
(0.000922148 -0.000773342 0)
(0.00165346 -4.39192e-05 0)
(0.00161578 -8.64406e-05 0)
(0.00165644 -1.06185e-06 0)
(0.00155641 -9.65768e-05 0)
(0.00178381 -5.98052e-05 0)
(0.00165167 -5.15991e-05 0)
(0.00165558 -7.22144e-06 0)
(0.00103528 -0.00069768 0)
(0.00186661 -8.54733e-06 0)
(0.0016122 -2.1229e-05 0)
(0.00169324 -1.08671e-06 0)
(0.00106487 -0.000618012 0)
(0.00146552 -3.65385e-05 0)
(0.00132086 -0.000141321 0)
(0.00145336 -3.66642e-05 0)
(0.00134499 -9.48814e-05 0)
(0.00166723 6.83317e-09 0)
(0.00184132 -1.51005e-05 0)
(5.90834e-05 -0.00120939 0)
(0.00024856 -0.000951215 0)
(0.00164197 3.15386e-07 0)
(0.00164188 -4.31737e-05 0)
(0.00181879 -2.19403e-05 0)
(0.0018098 -2.25261e-05 0)
(0.00186842 -2.36245e-06 0)
(0.00179884 -5.66212e-05 0)
(0.000333528 -0.000712827 0)
(0.00181225 -9.43903e-06 0)
(0.000657174 -0.000431301 0)
(0.0015386 -1.06176e-05 0)
(0.00154642 -9.72014e-06 0)
(0.000667112 -0.000413135 0)
(0.00171882 -4.69467e-05 0)
(0.00173346 -4.33109e-05 0)
(0.0018539 -5.15231e-06 0)
(0.00175973 -3.46265e-05 0)
(0.00168671 -1.05987e-06 0)
(0.00140108 -6.33509e-05 0)
(0.00181203 -2.0266e-05 0)
(0.00167713 -2.04388e-06 0)
(0.00167298 -0.000126762 0)
(3.3942e-05 -0.00124805 0)
(0.00149501 -0.000254667 0)
(0.00112323 -0.000180988 0)
(0.000964232 -0.000778436 0)
(0.00162061 -3.97764e-06 0)
(0.00133893 -6.67728e-05 0)
(0.0016576 -9.8355e-06 0)
(0.00165088 -9.20303e-06 0)
(0.00148571 -2.04417e-05 0)
(0.0012128 -0.000215869 0)
(0.00160999 -3.4414e-06 0)
(0.00161287 -1.31966e-05 0)
(0.00170681 -2.1526e-05 0)
(0.00180708 -2.97525e-06 0)
(0.000801083 -0.000409822 0)
(0.00120452 -0.000107902 0)
(0.00136656 -0.000135268 0)
(0.00169312 -4.43141e-07 0)
(0.000198216 -0.00110739 0)
(0.00133861 -0.000142053 0)
(0.00111922 -0.000145971 0)
(0.0016681 -4.94371e-05 0)
(0.000244766 -0.000880323 0)
(0.000254186 -0.000811535 0)
(0.00169018 -4.27895e-05 0)
(0.00161048 -0.000122641 0)
(0.000282144 -0.000944918 0)
(0.00183348 -3.6522e-05 0)
(0.000210264 -0.00118875 0)
(0.00166224 4.31153e-07 0)
(0.0015902 -7.60326e-05 0)
(0.00113987 -0.000457617 0)
(0.00158954 -2.01563e-05 0)
(0.00147232 -4.0783e-05 0)
(0.00160504 -3.15363e-06 0)
(0.00160376 -1.61859e-05 0)
(0.000843817 -0.000870553 0)
(0.00109394 -0.000478324 0)
(0.000694348 -0.000466627 0)
(0.00186403 -1.35674e-05 0)
(0.00138184 -4.62345e-05 0)
(0.00130166 -0.000143267 0)
(0.00175502 -1.76318e-05 0)
(0.00150796 -1.63485e-05 0)
(0.00108853 -0.000173246 0)
(0.00167193 -7.51943e-05 0)
(0.00151122 -3.59007e-05 0)
(0.00117626 -0.000129864 0)
(0.00122111 -9.95265e-05 0)
(0.00162422 -1.87659e-06 0)
(0.00161779 -6.62624e-06 0)
(0.00160244 -2.82028e-05 0)
(0.00103918 -0.000287769 0)
(0.000674923 -0.000498107 0)
(0.000534883 -0.000818407 0)
(0.00119759 -0.00017328 0)
(0.00161736 -6.01962e-06 0)
(0.000494066 -0.000882955 0)
(0.0016831 1.09579e-07 0)
(0.00167662 -4.47404e-05 0)
(0.00127745 -9.3321e-05 0)
(0.00112708 -0.000140529 0)
(0.00151657 -1.56625e-05 0)
(0.00135941 -0.000138918 0)
(0.000273276 -0.000994266 0)
(6.70712e-06 -0.00132346 0)
(8.34792e-05 -0.00124394 0)
(0.00096124 -0.00046829 0)
(0.000529397 -0.000725473 0)
(0.00113394 -0.00016034 0)
(0.00115467 -0.000157368 0)
(0.00174045 -6.17201e-07 0)
(0.00186703 -6.0324e-06 0)
(0.00171066 -2.65897e-05 0)
(0.00171895 -7.18776e-08 0)
(0.00171788 -1.03492e-05 0)
(0.000226061 -0.00117268 0)
(0.00160413 -1.89511e-05 0)
(0.00185064 -2.97369e-05 0)
(0.00160053 -5.23429e-06 0)
(0.000523596 -0.000874276 0)
(0.00114699 -0.000146496 0)
(0.00163687 -4.71573e-07 0)
(0.00161086 -6.15963e-06 0)
(0.00120248 -0.000151795 0)
(0.00144891 -3.00359e-05 0)
(0.000576673 -0.000496567 0)
(0.0015956 -3.60914e-05 0)
(0.00173919 -3.38546e-05 0)
(0.000529758 -0.000532946 0)
(0.000728634 -0.000530327 0)
(0.00158735 -6.09929e-06 0)
(0.00166814 -5.75679e-05 0)
(0.00162556 -6.56042e-07 0)
(0.000722064 -0.000889551 0)
(0.00153857 -0.000112968 0)
(0.00099401 -0.000202652 0)
(0.00124353 -0.000284652 0)
(0.00183697 -2.35767e-05 0)
(0.00182854 -2.46369e-05 0)
(0.00145062 -4.34733e-05 0)
(0.000969924 -0.000213672 0)
(0.00151683 -4.61125e-05 0)
(0.00176544 -1.17417e-05 0)
(0.00176785 -9.91882e-06 0)
(0.000749746 -0.000533174 0)
(0.00056293 -0.000712558 0)
(0.00162224 -0.000123914 0)
(0.00133254 -0.00024453 0)
(0.00137488 -0.0001091 0)
(0.00188858 -4.83923e-06 0)
(0.000607335 -0.000544853 0)
(0.00160862 -0.000111194 0)
(0.00144007 -0.000119562 0)
(0.00164992 -5.3626e-06 0)
(0.00127327 -0.000162073 0)
(0.00137674 -8.2068e-05 0)
(0.000450825 -0.000634835 0)
(0.00170016 -2.89022e-05 0)
(0.00114588 -0.000263675 0)
(0.00141398 -3.77541e-05 0)
(0.00130256 -0.000218078 0)
(0.00118015 -0.000281502 0)
(0.00167794 -0.000105339 0)
(0.00176708 -7.17396e-05 0)
(0.00164499 -7.37261e-05 0)
(0.0012276 -0.00022905 0)
(0.00114587 -0.000289025 0)
(0.00110866 -0.000156508 0)
(0.00176913 -5.81463e-05 0)
(0.00186368 -5.09713e-06 0)
(0.00136428 -7.03289e-05 0)
(0.00149182 -7.96349e-05 0)
(0.00142613 -3.4541e-05 0)
(0.00167644 -1.98608e-05 0)
(0.00132025 -7.55879e-05 0)
(0.00131078 -8.93858e-05 0)
(0.00169808 -6.71005e-05 0)
(0.000163609 -0.00120159 0)
(0.000284248 -0.000819083 0)
(0.000464976 -0.000832265 0)
(0.00163735 -2.34708e-07 0)
(0.00173079 -1.60172e-05 0)
(0.00174129 -9.02532e-05 0)
(0.00157293 -0.000138277 0)
(2.24163e-05 -0.00128729 0)
(0.00155807 -3.17165e-05 0)
(0.00144003 -7.61851e-05 0)
(0.00144843 -6.75782e-05 0)
(0.00158969 -0.000134982 0)
(0.00184207 -8.54871e-06 0)
(0.00083549 -0.000293332 0)
(0.00151068 -6.08333e-05 0)
(0.00150299 -5.77562e-05 0)
(0.000996004 -0.000208961 0)
(0.00156449 -0.000143086 0)
(0.000438126 -0.000843195 0)
(0.00170015 -8.80212e-05 0)
(0.00172051 -8.82689e-05 0)
(0.00167326 -0.000115751 0)
(0.00160412 -6.45793e-05 0)
(0.000563842 -0.000758034 0)
(0.00168157 -0.000118762 0)
(0.00192565 1.1778e-06 0)
(0.00141079 -5.25126e-05 0)
(0.00152869 -0.000110758 0)
(0.00153026 -0.0001033 0)
(0.00142458 -4.44533e-05 0)
(0.00130381 -7.42533e-05 0)
(0.00165613 -6.02337e-05 0)
(0.0010053 -0.000211026 0)
(0.00165951 -8.60645e-08 0)
(0.000917942 -0.000444173 0)
(0.0011979 -0.000107956 0)
(0.0017319 -6.59483e-06 0)
(0.00121914 -0.000100343 0)
(0.0014881 -0.000141315 0)
(0.000342891 -0.000875143 0)
(0.00184806 -2.17191e-06 0)
(0.000264119 -0.00089787 0)
(0.000540924 -0.000763895 0)
(0.00113421 -0.000187042 0)
(0.00160071 -0.000139269 0)
(0.0016593 -2.51503e-05 0)
(0.00163485 -0.000110815 0)
(0.000344217 -0.000677511 0)
(0.00164108 8.42566e-08 0)
(0.000912845 -0.000257052 0)
(0.00162557 -1.56916e-06 0)
(0.00195198 2.16498e-06 0)
(0.0018015 -8.83013e-05 0)
(0.00164697 -0.000121739 0)
(0.000904971 -0.000267716 0)
(0.00158045 -8.78193e-05 0)
(0.00167351 2.79642e-07 0)
(0.00151921 -0.000188731 0)
(0.00168108 -1.95334e-07 0)
(9.1719e-05 -0.00119491 0)
(0.000588344 -0.000543174 0)
(0.00173667 -6.78278e-05 0)
(5.56018e-05 -0.00129195 0)
(0.00146786 -6.47877e-05 0)
(0.00161916 -2.90964e-06 0)
(0.00146219 -3.22963e-05 0)
(0.00126134 -0.000214978 0)
(0.00180972 -4.20816e-06 0)
(0.00165386 3.65843e-07 0)
(0.00150504 -0.0001581 0)
(0.00185329 -1.50842e-05 0)
(0.00149542 -2.10356e-05 0)
(0.000468087 -0.00101977 0)
(0.00131441 -8.30788e-05 0)
(0.0018135 -2.78404e-05 0)
(0.00110218 -0.000162837 0)
(0.00149421 -3.72545e-05 0)
(0.00114353 -0.000139568 0)
(0.0015916 -0.000113837 0)
(0.00168956 -2.60215e-07 0)
(4.20328e-05 -0.00129897 0)
(0.000927105 -0.000408986 0)
(0.00178328 -5.46828e-05 0)
(0.000856681 -0.00027518 0)
(0.000360378 -0.00108249 0)
(0.00132786 -6.18371e-05 0)
(0.000890145 -0.000416963 0)
(0.00146388 -5.02365e-05 0)
(0.00165045 1.91817e-07 0)
(0.00158639 -5.74799e-05 0)
(0.00115764 -0.000125882 0)
(0.00157609 -8.09207e-05 0)
(0.000833509 -0.000543869 0)
(0.000787041 -0.000435656 0)
(0.00137156 -0.000375161 0)
(0.00137916 -6.26762e-05 0)
(0.00068783 -0.000419974 0)
(0.000878561 -0.000480254 0)
(0.00136295 -6.34664e-05 0)
(0.00164158 -3.92908e-05 0)
(0.00138363 -4.70882e-05 0)
(0.00139053 -4.6319e-05 0)
(0.00156779 -8.35128e-06 0)
(0.00118314 -0.000175961 0)
(0.00156371 -8.16097e-06 0)
(0.00116602 -0.000120782 0)
(0.00115135 -0.000127732 0)
(0.000494844 -0.000704139 0)
(0.00172846 -2.03875e-05 0)
(0.00159743 -7.87887e-06 0)
(0.00171856 -2.639e-06 0)
(0.00172543 -2.26141e-06 0)
(0.00177559 -4.23008e-05 0)
(0.000647116 -0.000756558 0)
(0.00150749 -2.07374e-05 0)
(0.000701728 -0.000387477 0)
(0.00117505 -0.000235154 0)
(0.00180887 -1.52835e-05 0)
(0.00135677 -0.000432166 0)
(0.00179797 -2.67809e-06 0)
(0.00173874 -1.94411e-05 0)
(0.00115946 -0.000124254 0)
(0.00140782 -3.95961e-05 0)
(0.00164063 7.19981e-08 0)
(0.0016838 -1.78789e-05 0)
(0.00177915 -4.97382e-05 0)
(0.00165472 -1.76131e-05 0)
(0.00157869 -4.01177e-05 0)
(0.00180962 -2.99466e-05 0)
(0.00155972 -8.04154e-05 0)
(0.0019 -5.35917e-06 0)
(0.00133021 -7.56093e-05 0)
(0.00128257 -0.000105112 0)
(0.00125691 -0.000112924 0)
(0.00161744 -7.18255e-06 0)
(0.00148341 -4.11865e-05 0)
(0.00167687 -6.21972e-08 0)
(0.00188047 -5.06046e-06 0)
(0.00162694 -7.55817e-05 0)
(0.00171803 -5.02393e-05 0)
(0.000586292 -0.0009515 0)
(0.00182863 -3.33964e-06 0)
(0.00143326 -3.64765e-05 0)
(0.00179669 -1.27038e-05 0)
(0.000542346 -0.000489688 0)
(0.00121503 -0.000141067 0)
(0.00155341 -2.15603e-05 0)
(0.00122366 -0.000130124 0)
(0.000255518 -0.00106577 0)
(0.00150078 -2.53878e-05 0)
(0.00174095 -1.55429e-05 0)
(0.0018205 -1.29733e-06 0)
(0.00172637 -9.51095e-05 0)
(0.00132761 -0.000150235 0)
(0.00145938 -0.000184596 0)
(0.00131948 -0.000438147 0)
(0.00166336 -8.34076e-08 0)
(0.00059487 -0.000472629 0)
(0.0016727 -6.35174e-07 0)
(0.00167851 -7.79133e-05 0)
(0.000103688 -0.00124557 0)
(0.00173726 -1.55443e-06 0)
(0.00165568 -6.82717e-05 0)
(0.00122222 -0.00014918 0)
(0.00156869 -2.59156e-05 0)
(0.00158427 -2.36892e-05 0)
(0.0016848 -0.0001286 0)
(0.00160073 -9.33374e-05 0)
(0.0016655 -0.000106044 0)
(0.00137644 -0.000139536 0)
(0.00178171 -3.89437e-05 0)
(0.00147615 -2.71163e-05 0)
(0.00187691 -9.98953e-06 0)
(0.000465012 -0.000603712 0)
(0.00162025 -5.21891e-06 0)
(0.00163352 -6.00885e-05 0)
(0.00164572 -5.7575e-05 0)
(0.00187326 -1.3661e-05 0)
(0.00150565 -2.41227e-05 0)
(0.00151857 -0.000126171 0)
(0.00162487 -2.62137e-06 0)
(0.00110894 -0.000735069 0)
(0.00152383 -0.000158677 0)
(0.00150177 -6.76204e-05 0)
(0.00163848 -2.39002e-07 0)
(0.00164536 -8.24627e-05 0)
(0.000737531 -0.000433577 0)
(0.000685552 -0.00038862 0)
(0.000719201 -0.000362076 0)
(0.00159524 -0.000127811 0)
(0.00177661 -3.55942e-05 0)
(0.00184764 -2.30471e-05 0)
(0.00176325 -3.68914e-05 0)
(0.00116625 -0.000208001 0)
(0.00162779 -3.41146e-05 0)
(0.00162946 -8.59291e-05 0)
(0.00104542 -0.000174883 0)
(0.00151936 -0.00014046 0)
(0.00133658 -0.000134101 0)
(0.0014954 -5.65897e-05 0)
(0.00147597 -5.58928e-05 0)
(0.00167872 -6.25678e-06 0)
(0.000827643 -0.000647286 0)
(0.00178896 -5.5453e-05 0)
(0.00122476 -0.000581553 0)
(0.00140103 -6.96157e-05 0)
(0.00100315 -0.000304506 0)
(0.00188648 -9.83615e-06 0)
(0.00133052 -6.12875e-05 0)
(0.00177433 -6.12642e-06 0)
(0.00170717 -1.3772e-05 0)
(0.000705442 -0.000366744 0)
(0.001601 -2.68734e-05 0)
(0.000687231 -0.000378313 0)
(0.00144558 -9.00696e-05 0)
(0.00145196 -8.34308e-05 0)
(0.000853251 -0.000607112 0)
(0.00174125 -6.69266e-06 0)
(0.00193986 2.38534e-06 0)
(0.00179256 -7.60638e-05 0)
(0.00180466 -7.4067e-05 0)
(0.00192755 1.36908e-08 0)
(0.00142037 -0.000318098 0)
(0.001667 -1.31779e-05 0)
(0.00188404 -1.00686e-05 0)
(0.00159421 -2.47774e-05 0)
(0.00158234 -2.95503e-05 0)
(0.0013281 -0.000299182 0)
(0.00119442 -0.000188712 0)
(0.000777699 -0.000409094 0)
(0.00152253 -9.62887e-05 0)
(0.00124956 -0.000434405 0)
(0.00157459 -5.47386e-05 0)
(0.00132281 -9.49277e-05 0)
(0.00102661 -0.000191668 0)
(0.00120972 -0.000260602 0)
(0.00178832 -3.29338e-05 0)
(0.00123349 -0.000101457 0)
(0.000922877 -0.00027277 0)
(0.000301275 -0.00108046 0)
(0.00126819 -0.000106678 0)
(0.00126444 -0.000115357 0)
(0.00182888 -2.49856e-06 0)
(0.000938616 -0.00025599 0)
(0.00159869 -2.58381e-06 0)
(0.00181212 -1.34473e-06 0)
(2.99757e-05 -0.00129713 0)
(0.00105251 -0.000387859 0)
(0.00168584 -0.000100756 0)
(0.00151347 -7.50578e-05 0)
(0.00110476 -0.000321022 0)
(0.00156253 -1.576e-05 0)
(0.00158049 -2.06902e-05 0)
(0.0016432 -2.57727e-05 0)
(0.00182557 -1.19565e-05 0)
(0.00145343 -0.000308093 0)
(0.000447164 -0.000878918 0)
(0.00158586 -6.58574e-05 0)
(0.0013485 -9.06367e-05 0)
(0.00154622 -2.47641e-05 0)
(0.00153857 -2.39051e-05 0)
(0.00188953 -2.97925e-06 0)
(0.00106564 -0.000332968 0)
(0.000132115 -0.00120326 0)
(7.47943e-05 -0.00127833 0)
(0.00135871 -6.19332e-05 0)
(0.00104682 -0.000172833 0)
(0.00135755 -0.000132273 0)
(0.0014191 -3.72432e-05 0)
(0.00149258 -2.0925e-05 0)
(0.00154474 -2.07014e-05 0)
(0.00143741 -5.92937e-05 0)
(0.00136476 -9.64082e-05 0)
(0.00107184 -0.000200301 0)
(0.00159914 -2.65449e-05 0)
(0.000704004 -0.000790918 0)
(0.00136903 -5.35772e-05 0)
(0.0011057 -0.000181134 0)
(0.00135765 -5.87176e-05 0)
(0.00111408 -0.000201297 0)
(0.00125216 -0.000159609 0)
(0.00162566 -1.46823e-06 0)
(0.00104363 -0.000205353 0)
(0.0016214 -1.95863e-06 0)
(0.00161747 -0.000114013 0)
(0.00143119 -5.29e-05 0)
(0.00122205 -0.00010133 0)
(0.00179117 -1.47063e-05 0)
(0.000389252 -0.00100774 0)
(0.000375532 -0.000854041 0)
(0.00142362 -5.84116e-05 0)
(0.000725533 -0.000355463 0)
(0.00178818 -1.98018e-05 0)
(0.00181194 -1.68746e-05 0)
(0.00101804 -0.000188642 0)
(0.00190246 -3.69259e-06 0)
(0.00183749 -1.31258e-05 0)
(0.000976106 -0.000337238 0)
(0.00166934 -6.03323e-06 0)
(0.00161116 -1.48989e-05 0)
(0.00124978 -0.000153609 0)
(0.0017058 -6.24538e-05 0)
(0.0015459 -1.09039e-05 0)
(9.35911e-06 -0.00132548 0)
(0.00166892 -9.47382e-06 0)
(0.00153198 -0.000183922 0)
(0.00143826 -0.000148732 0)
(0.000447313 -0.0010098 0)
(0.00186329 -5.71878e-07 0)
(0.00134399 -0.000148185 0)
(0.00116317 -0.000655214 0)
(0.00156969 -7.44347e-05 0)
(0.00177154 -2.43443e-05 0)
(0.000376961 -0.000893933 0)
(0.000628545 -0.000755871 0)
(0.00140816 -0.00014891 0)
(0.00153053 -1.32457e-05 0)
(0.00141114 -0.000100467 0)
(0.0013922 -0.000102826 0)
(0.00162755 -9.9914e-05 0)
(0.00131799 -0.000101998 0)
(0.00105654 -0.000216653 0)
(0.0018079 -7.086e-06 0)
(0.00146573 -2.70546e-05 0)
(0.00142824 -3.59787e-05 0)
(0.000811708 -0.000303366 0)
(0.001593 -3.54375e-06 0)
(0.00140737 -4.13002e-05 0)
(0.00161267 -3.90841e-06 0)
(0.00114396 -0.000153232 0)
(0.00162673 -2.60993e-07 0)
(0.000311606 -0.00104827 0)
(0.00158333 -5.88251e-05 0)
(0.0002867 -0.0011138 0)
(0.00168143 -6.99024e-05 0)
(0.00189065 -6.81567e-06 0)
(0.00188068 -7.97316e-06 0)
(0.000820762 -0.000296651 0)
(0.00151678 -6.84215e-05 0)
(0.0017689 -7.8583e-05 0)
(0.000186696 -0.00107012 0)
(0.000148271 -0.00111912 0)
(0.00139627 -0.00012034 0)
(0.00154322 -5.46213e-05 0)
(0.00111526 -0.000678801 0)
(0.00173968 -2.13973e-06 0)
(0.00162288 -1.69485e-06 0)
(0.0017569 -1.00885e-06 0)
(0.00159656 -4.37395e-06 0)
(0.000108802 -0.00125365 0)
(0.00162878 -1.23073e-05 0)
(0.00163396 -9.98087e-06 0)
(0.00163501 -2.882e-06 0)
(0.00141798 -4.43103e-05 0)
(0.00142301 -0.000183624 0)
(0.000755663 -0.000394417 0)
(0.00160372 -6.83059e-06 0)
(0.00115204 -0.000166947 0)
(0.00172367 -0.00010509 0)
(0.00117909 -0.000124392 0)
(0.0011605 -0.000129899 0)
(0.000931638 -0.000244706 0)
(0.000680017 -0.000561139 0)
(0.00192065 -8.71495e-07 0)
(0.00178088 -8.09779e-05 0)
(0.00141814 -0.000120697 0)
(0.00100487 -0.000461829 0)
(0.00144293 -0.000109506 0)
(0.00187605 -1.06986e-05 0)