/*--------------------------------*- C++ -*----------------------------------*\
| =========                 |                                                 |
| \\      /  F ield         | OpenFOAM: The Open Source CFD Toolbox           |
|  \\    /   O peration     | Version:  v2012                                 |
|   \\  /    A nd           | Website:  www.openfoam.com                      |
|    \\/     M anipulation  |                                                 |
\*---------------------------------------------------------------------------*/
FoamFile
{
    version     2.0;
    format      ascii;
    class       volScalarField;
    location    "18";
    object      sigmaEq;
}
// * * * * * * * * * * * * * * * * * * * * * * * * * * * * * * * * * * * * * //

dimensions      [1 -1 -2 0 0 0 0];


internalField   nonuniform List<scalar> 
8000
(
1.83884e+08
1.56371e+08
1.51714e+08
1.27882e+08
1.24849e+08
1.0447e+08
1.03073e+08
8.59849e+07
8.60006e+07
7.22903e+07
7.33037e+07
6.31797e+07
6.46251e+07
5.82026e+07
5.94509e+07
5.65135e+07
5.70418e+07
5.70612e+07
5.66022e+07
5.88893e+07
5.73753e+07
6.13164e+07
5.88914e+07
6.40019e+07
6.09783e+07
6.6851e+07
6.36154e+07
6.98727e+07
6.68945e+07
7.31394e+07
7.08415e+07
7.6688e+07
7.5329e+07
8.04894e+07
8.00944e+07
8.44602e+07
8.48327e+07
8.85027e+07
8.92996e+07
8.90453e+07
1.78282e+08
1.51944e+08
1.47354e+08
1.23757e+08
1.22193e+08
1.0097e+08
1.0206e+08
8.3227e+07
8.6557e+07
7.03873e+07
7.53358e+07
6.22638e+07
6.79322e+07
5.83112e+07
6.36903e+07
5.75732e+07
6.17616e+07
5.88716e+07
6.12964e+07
6.12384e+07
6.16349e+07
6.40137e+07
6.23539e+07
6.6843e+07
6.33659e+07
6.95942e+07
6.48335e+07
7.22783e+07
6.70249e+07
7.49855e+07
7.01146e+07
7.7828e+07
7.40477e+07
8.08947e+07
7.85683e+07
8.42164e+07
8.33344e+07
8.7766e+07
8.80514e+07
9.14666e+07
1.73436e+08
1.46631e+08
1.43317e+08
1.18693e+08
1.19302e+08
9.65013e+07
1.00683e+08
7.97139e+07
8.69605e+07
6.81857e+07
7.76027e+07
6.16354e+07
7.18918e+07
5.92684e+07
6.8893e+07
5.98465e+07
6.759e+07
6.2054e+07
6.7098e+07
6.4888e+07
6.68291e+07
6.76708e+07
6.65256e+07
7.00797e+07
6.63077e+07
7.20884e+07
6.65361e+07
7.38757e+07
6.75948e+07
7.56974e+07
6.96873e+07
7.77814e+07
7.27591e+07
8.02471e+07
7.65661e+07
8.30907e+07
8.08086e+07
8.62468e+07
8.52091e+07
8.96318e+07
1.66231e+08
1.39224e+08
1.37625e+08
1.12045e+08
1.15274e+08
9.084e+07
9.85862e+07
7.54046e+07
8.69741e+07
6.56187e+07
7.96605e+07
6.09979e+07
7.55831e+07
6.03923e+07
7.35503e+07
6.22215e+07
7.24309e+07
6.50064e+07
7.14368e+07
6.76442e+07
7.01802e+07
6.9632e+07
6.87568e+07
7.09933e+07
6.75602e+07
7.20617e+07
6.70346e+07
7.32078e+07
6.74833e+07
7.46994e+07
6.8961e+07
7.66036e+07
7.13304e+07
7.88919e+07
7.43785e+07
8.14733e+07
7.78779e+07
8.42731e+07
8.16552e+07
8.72391e+07
1.56639e+08
1.29656e+08
1.29982e+08
1.03657e+08
1.09786e+08
8.38653e+07
9.54267e+07
7.02082e+07
8.60929e+07
6.25124e+07
8.06441e+07
5.99658e+07
7.76983e+07
6.09343e+07
7.59055e+07
6.33627e+07
7.42371e+07
6.56063e+07
7.22473e+07
6.70522e+07
7.00711e+07
6.79094e+07
6.81288e+07
6.86804e+07
6.68251e+07
6.97253e+07
6.63929e+07
7.11753e+07
6.68536e+07
7.29721e+07
6.81062e+07
7.50175e+07
6.99883e+07
7.72191e+07
7.23597e+07
7.95343e+07
7.50927e+07
8.19538e+07
7.80936e+07
8.44601e+07
1.44719e+08
1.17998e+08
1.20329e+08
9.35025e+07
1.02614e+08
7.55663e+07
9.07393e+07
6.41896e+07
8.34878e+07
5.89558e+07
7.93045e+07
5.84404e+07
7.66042e+07
5.99728e+07
7.41743e+07
6.12757e+07
7.15873e+07
6.19083e+07
6.90863e+07
6.24711e+07
6.70775e+07
6.35e+07
6.58187e+07
6.50735e+07
6.53312e+07
6.70219e+07
6.55246e+07
6.9131e+07
6.6255e+07
7.1257e+07
6.74005e+07
7.33286e+07
6.88878e+07
7.53622e+07
7.06631e+07
7.73761e+07
7.27031e+07
7.94128e+07
7.49638e+07
8.14909e+07
1.30517e+08
1.04202e+08
1.08524e+08
8.14971e+07
9.33457e+07
6.607e+07
8.3727e+07
5.79565e+07
7.79138e+07
5.58548e+07
7.4048e+07
5.60259e+07
7.07398e+07
5.55685e+07
6.77251e+07
5.49504e+07
6.53891e+07
5.53907e+07
6.39907e+07
5.70927e+07
6.34744e+07
5.95558e+07
6.35989e+07
6.22916e+07
6.41354e+07
6.49648e+07
6.49066e+07
6.74175e+07
6.5808e+07
6.95907e+07
6.68337e+07
7.15682e+07
6.79828e+07
7.33875e+07
6.92912e+07
7.51237e+07
7.07609e+07
7.68221e+07
7.24036e+07
7.85244e+07
1.14016e+08
8.79501e+07
9.41826e+07
6.74632e+07
8.11525e+07
5.60711e+07
7.31254e+07
5.32427e+07
6.78518e+07
5.24145e+07
6.372e+07
4.98455e+07
6.0721e+07
4.81611e+07
5.92365e+07
4.88151e+07
5.91029e+07
5.12623e+07
5.98189e+07
5.43894e+07
6.09435e+07
5.76443e+07
6.21864e+07
6.07291e+07
6.33726e+07
6.348e+07
6.44201e+07
6.58439e+07
6.53857e+07
6.79301e+07
6.62903e+07
6.97439e+07
6.72072e+07
7.13804e+07
6.81744e+07
7.28867e+07
6.92324e+07
7.4324e+07
7.0414e+07
7.57358e+07
9.50159e+07
6.86117e+07
7.65075e+07
5.17704e+07
6.46707e+07
4.73549e+07
5.73419e+07
4.60895e+07
5.26623e+07
4.25732e+07
5.07756e+07
4.23378e+07
5.13916e+07
4.47885e+07
5.32716e+07
4.86253e+07
5.56252e+07
5.20488e+07
5.78938e+07
5.51415e+07
5.98961e+07
5.78824e+07
6.158e+07
6.0366e+07
6.29042e+07
6.2503e+07
6.40353e+07
6.45398e+07
6.49521e+07
6.6312e+07
6.57633e+07
6.79101e+07
6.65106e+07
6.93445e+07
6.72551e+07
7.06798e+07
6.80585e+07
7.19501e+07
6.89303e+07
7.31764e+07
7.29499e+07
4.64437e+07
5.43094e+07
3.80453e+07
4.27567e+07
3.18523e+07
3.91814e+07
2.77032e+07
3.96644e+07
2.88072e+07
4.05156e+07
3.22732e+07
4.23095e+07
3.64332e+07
4.49196e+07
4.08826e+07
4.81617e+07
4.52085e+07
5.18061e+07
4.9364e+07
5.56809e+07
5.34909e+07
5.94863e+07
5.8148e+07
6.11154e+07
6.22476e+07
6.2512e+07
6.38353e+07
6.36535e+07
6.5048e+07
6.45641e+07
6.62005e+07
6.53285e+07
6.73107e+07
6.60731e+07
6.84184e+07
6.6801e+07
6.95219e+07
6.75603e+07
7.06417e+07
4.70654e+07
2.79748e+07
3.00209e+07
2.14794e+07
2.9342e+07
1.88852e+07
2.89023e+07
1.91005e+07
2.96015e+07
2.13863e+07
3.13721e+07
2.4987e+07
3.37416e+07
2.91659e+07
3.65939e+07
3.34848e+07
3.97199e+07
3.77067e+07
4.29669e+07
4.17524e+07
4.62323e+07
4.56112e+07
4.95593e+07
4.91635e+07
5.26134e+07
5.27185e+07
5.62972e+07
5.58479e+07
5.95227e+07
5.89443e+07
6.15997e+07
6.19544e+07
6.25932e+07
6.44665e+07
6.35183e+07
6.6375e+07
6.44319e+07
6.71705e+07
6.53847e+07
6.80641e+07
2.2534e+07
1.90762e+07
2.36278e+07
1.50063e+07
2.13707e+07
1.26272e+07
2.07066e+07
1.25206e+07
2.13606e+07
1.47081e+07
2.31493e+07
1.83223e+07
2.57434e+07
2.25381e+07
2.88633e+07
2.69048e+07
3.22646e+07
3.11996e+07
3.57763e+07
3.53162e+07
3.92867e+07
3.91893e+07
4.26838e+07
4.27974e+07
4.6005e+07
4.60865e+07
4.90688e+07
4.90222e+07
5.18735e+07
5.16103e+07
5.44068e+07
5.38566e+07
5.65103e+07
5.58681e+07
5.83524e+07
5.77575e+07
6.03791e+07
5.94331e+07
6.19686e+07
6.10707e+07
1.83224e+07
1.49075e+07
1.67582e+07
1.139e+07
1.49428e+07
8.18361e+06
1.38768e+07
6.92071e+06
1.41647e+07
8.885e+06
1.59009e+07
1.26865e+07
1.86948e+07
1.70393e+07
2.20891e+07
2.14632e+07
2.57513e+07
2.57673e+07
2.94749e+07
2.98606e+07
3.31309e+07
3.36944e+07
3.66446e+07
3.72321e+07
3.9944e+07
4.0456e+07
4.29891e+07
4.33479e+07
4.57349e+07
4.59094e+07
4.81517e+07
4.81662e+07
5.02721e+07
5.01533e+07
5.21664e+07
5.1883e+07
5.38127e+07
5.33564e+07
5.52336e+07
5.45515e+07
1.4404e+07
1.26576e+07
1.27522e+07
9.53563e+06
1.04026e+07
5.75372e+06
8.37419e+06
2.46259e+06
7.9512e+06
4.37551e+06
9.72646e+06
8.66522e+06
1.28846e+07
1.3121e+07
1.66005e+07
1.74847e+07
2.04693e+07
2.16652e+07
2.42988e+07
2.56119e+07
2.79872e+07
2.92925e+07
3.14709e+07
3.26863e+07
3.47089e+07
3.57819e+07
3.76738e+07
3.85742e+07
4.0346e+07
4.10681e+07
4.27248e+07
4.32757e+07
4.48207e+07
4.52122e+07
4.66416e+07
4.68941e+07
4.82e+07
4.8334e+07
4.94733e+07
4.95562e+07
1.29833e+07
1.19382e+07
1.11582e+07
9.33453e+06
8.38809e+06
6.07523e+06
5.31221e+06
3.00106e+06
3.45086e+06
3.57533e+06
5.33319e+06
7.19292e+06
8.9393e+06
1.11934e+07
1.28447e+07
1.51708e+07
1.67349e+07
1.901e+07
2.04961e+07
2.26531e+07
2.40679e+07
2.60654e+07
2.74129e+07
2.92259e+07
3.05068e+07
3.21231e+07
3.33353e+07
3.4753e+07
3.58915e+07
3.71177e+07
3.81753e+07
3.92252e+07
4.01918e+07
4.10885e+07
4.19515e+07
4.27253e+07
4.34686e+07
4.41586e+07
4.47635e+07
4.54168e+07
1.31128e+07
1.23717e+07
1.13086e+07
1.0277e+07
8.74801e+06
7.94514e+06
5.91029e+06
6.17219e+06
3.8222e+06
6.17812e+06
4.66611e+06
8.16328e+06
7.64896e+06
1.11133e+07
1.11326e+07
1.43697e+07
1.46689e+07
1.76591e+07
1.81133e+07
2.08579e+07
2.13981e+07
2.39013e+07
2.44846e+07
2.67532e+07
2.73496e+07
2.93935e+07
2.99803e+07
3.18123e+07
3.23706e+07
3.40074e+07
3.45206e+07
3.59825e+07
3.64362e+07
3.77473e+07
3.81293e+07
3.9317e+07
3.96184e+07
4.07128e+07
4.09273e+07
4.19607e+07
1.42556e+07
1.36097e+07
1.24898e+07
1.18349e+07
1.03513e+07
1.01386e+07
8.24338e+06
8.9979e+06
6.83891e+06
8.92958e+06
6.95833e+06
1.0076e+07
8.63922e+06
1.20996e+07
1.11725e+07
1.45844e+07
1.40268e+07
1.72522e+07
1.69456e+07
1.99434e+07
1.98043e+07
2.25672e+07
2.25369e+07
2.50706e+07
2.51062e+07
2.74225e+07
2.74911e+07
2.96053e+07
2.96811e+07
3.16104e+07
3.16727e+07
3.34353e+07
3.34688e+07
3.5083e+07
3.50781e+07
3.65614e+07
3.65148e+07
3.78851e+07
3.77988e+07
3.90776e+07
1.60652e+07
1.53838e+07
1.42306e+07
1.37069e+07
1.23636e+07
1.23109e+07
1.07129e+07
1.14369e+07
9.65021e+06
1.13194e+07
9.53672e+06
1.2029e+07
1.04538e+07
1.34261e+07
1.21467e+07
1.52786e+07
1.4281e+07
1.73794e+07
1.66118e+07
1.95815e+07
1.89891e+07
2.17894e+07
2.13246e+07
2.39425e+07
2.35661e+07
2.60029e+07
2.56829e+07
2.79475e+07
2.76571e+07
2.9762e+07
2.94798e+07
3.14378e+07
3.11476e+07
3.29692e+07
3.26621e+07
3.43524e+07
3.40297e+07
3.55876e+07
3.52634e+07
3.66884e+07
1.83012e+07
1.75005e+07
1.62849e+07
1.57492e+07
1.44853e+07
1.44106e+07
1.30177e+07
1.35827e+07
1.20683e+07
1.33627e+07
1.18075e+07
1.37714e+07
1.22832e+07
1.47287e+07
1.3386e+07
1.60935e+07
1.49252e+07
1.772e+07
1.67196e+07
1.94891e+07
1.86335e+07
2.13141e+07
2.05759e+07
2.31361e+07
2.24886e+07
2.49164e+07
2.4335e+07
2.66306e+07
2.60932e+07
2.82635e+07
2.775e+07
2.98045e+07
2.92973e+07
3.12431e+07
3.07293e+07
3.25633e+07
3.20418e+07
3.37375e+07
3.32359e+07
3.47328e+07
2.07899e+07
1.98205e+07
1.85189e+07
1.78854e+07
1.66317e+07
1.64465e+07
1.51564e+07
1.5522e+07
1.41707e+07
1.51358e+07
1.37477e+07
1.52763e+07
1.39032e+07
1.58808e+07
1.45737e+07
1.68501e+07
1.56414e+07
1.80761e+07
1.69772e+07
1.9463e+07
1.84707e+07
2.09354e+07
2.00395e+07
2.24391e+07
2.16266e+07
2.39372e+07
2.31956e+07
2.54068e+07
2.47252e+07
2.6836e+07
2.62051e+07
2.82202e+07
2.76321e+07
2.95587e+07
2.90065e+07
3.08437e+07
3.03275e+07
3.20277e+07
3.15949e+07
3.29055e+07
2.34055e+07
2.22444e+07
2.08479e+07
2.00672e+07
1.87769e+07
1.84347e+07
1.7172e+07
1.73235e+07
1.60492e+07
1.67183e+07
1.54277e+07
1.65878e+07
1.52996e+07
1.68736e+07
1.5615e+07
1.74953e+07
1.62895e+07
1.8365e+07
1.7225e+07
1.94004e+07
1.83291e+07
2.05319e+07
1.9525e+07
2.17043e+07
2.07525e+07
2.28753e+07
2.19657e+07
2.40125e+07
2.31285e+07
2.5091e+07
2.421e+07
2.6092e+07
2.51781e+07
2.70038e+07
2.59885e+07
2.78331e+07
2.65569e+07
2.86518e+07
2.66706e+07
2.97866e+07
2.60618e+07
2.4704e+07
2.32135e+07
2.22623e+07
2.09093e+07
2.03899e+07
1.91048e+07
1.90441e+07
1.77832e+07
1.81905e+07
1.69344e+07
1.77883e+07
1.65364e+07
1.77817e+07
1.65444e+07
1.81018e+07
1.6892e+07
1.86744e+07
1.75016e+07
1.94285e+07
1.82966e+07
2.03026e+07
1.92099e+07
2.1247e+07
2.01873e+07
2.22244e+07
2.11878e+07
2.32082e+07
2.21817e+07
2.41828e+07
2.31509e+07
2.51439e+07
2.40903e+07
2.61012e+07
2.50203e+07
2.70833e+07
2.60284e+07
2.81311e+07
2.74225e+07
2.92113e+07
2.87035e+07
2.71535e+07
2.55761e+07
2.44462e+07
2.30207e+07
2.23173e+07
2.09834e+07
2.07164e+07
1.94309e+07
1.96014e+07
1.83384e+07
1.89279e+07
1.76765e+07
1.86438e+07
1.74039e+07
1.86888e+07
1.74653e+07
1.89981e+07
1.77972e+07
1.95093e+07
1.83351e+07
2.01671e+07
1.90208e+07
2.0926e+07
1.98063e+07
2.17513e+07
2.06558e+07
2.26188e+07
2.15457e+07
2.3514e+07
2.24655e+07
2.44309e+07
2.34192e+07
2.53692e+07
2.44261e+07
2.63278e+07
2.5509e+07
2.72909e+07
2.6602e+07
2.82268e+07
3.12957e+07
2.95621e+07
2.79072e+07
2.65991e+07
2.51014e+07
2.42146e+07
2.28213e+07
2.23559e+07
2.10266e+07
2.09785e+07
1.96851e+07
2.00384e+07
1.87651e+07
1.94877e+07
1.82283e+07
1.92731e+07
1.80279e+07
1.93377e+07
1.81103e+07
1.96257e+07
1.84205e+07
2.00858e+07
1.89066e+07
2.06745e+07
1.95246e+07
2.13569e+07
2.024e+07
2.21066e+07
2.1028e+07
2.29042e+07
2.18726e+07
2.37353e+07
2.27634e+07
2.4587e+07
2.36889e+07
2.54444e+07
2.46251e+07
2.62901e+07
2.5547e+07
2.71071e+07
3.38161e+07
3.19086e+07
3.01859e+07
2.87046e+07
2.714e+07
2.60745e+07
2.46211e+07
2.39655e+07
2.25857e+07
2.2333e+07
2.0999e+07
2.11347e+07
1.98284e+07
2.0327e+07
1.90391e+07
1.98628e+07
1.85909e+07
1.96919e+07
1.8438e+07
1.97636e+07
1.85323e+07
2.003e+07
1.88266e+07
2.0448e+07
1.92781e+07
2.09811e+07
1.98506e+07
2.15992e+07
2.05144e+07
2.22776e+07
2.1245e+07
2.29958e+07
2.20208e+07
2.37355e+07
2.28207e+07
2.44804e+07
2.3625e+07
2.5216e+07
2.4416e+07
2.59304e+07
3.62497e+07
3.41772e+07
3.23964e+07
3.07484e+07
2.91248e+07
2.78869e+07
2.6378e+07
2.55404e+07
2.41112e+07
2.36647e+07
2.22884e+07
2.22195e+07
2.08772e+07
2.11646e+07
1.98456e+07
2.04584e+07
1.91584e+07
2.00564e+07
1.87762e+07
1.99128e+07
1.86565e+07
1.99824e+07
1.87556e+07
2.02228e+07
1.90318e+07
2.05963e+07
1.94468e+07
2.10697e+07
1.99668e+07
2.16152e+07
2.05626e+07
2.22091e+07
2.12088e+07
2.28314e+07
2.18836e+07
2.34659e+07
2.25686e+07
2.4099e+07
2.3249e+07
2.47205e+07
3.85851e+07
3.63553e+07
3.45255e+07
3.27174e+07
3.10438e+07
2.96401e+07
2.80832e+07
2.70712e+07
2.55983e+07
2.49666e+07
2.35517e+07
2.32873e+07
2.19117e+07
2.19963e+07
2.06479e+07
2.10558e+07
1.97291e+07
2.04263e+07
1.9121e+07
2.00666e+07
1.87858e+07
1.99348e+07
1.86837e+07
1.99901e+07
1.87745e+07
2.01946e+07
1.90198e+07
2.0514e+07
1.93842e+07
2.09188e+07
1.98366e+07
2.13837e+07
2.03503e+07
2.18878e+07
2.09029e+07
2.24142e+07
2.14762e+07
2.29496e+07
2.2056e+07
2.34837e+07
4.0812e+07
3.84314e+07
3.65613e+07
3.45994e+07
3.2885e+07
3.13218e+07
2.9726e+07
2.85461e+07
2.70376e+07
2.62279e+07
2.47816e+07
2.43289e+07
2.29259e+07
2.28137e+07
2.14413e+07
2.16478e+07
2.02992e+07
2.07957e+07
1.9469e+07
2.02207e+07
1.89179e+07
1.98846e+07
1.861e+07
1.97492e+07
1.85081e+07
1.97779e+07
1.85752e+07
1.99367e+07
1.87765e+07
2.01954e+07
1.90804e+07
2.0528e+07
1.94594e+07
2.09128e+07
1.98907e+07
2.13319e+07
2.03555e+07
2.17714e+07
2.08388e+07
2.22202e+07
4.29204e+07
4.03947e+07
3.84926e+07
3.63827e+07
3.46369e+07
3.292e+07
3.12948e+07
2.99531e+07
2.84183e+07
2.74369e+07
2.59681e+07
2.5333e+07
2.39111e+07
2.3607e+07
2.22184e+07
2.22264e+07
2.0863e+07
2.11592e+07
1.98176e+07
2.03723e+07
1.9053e+07
1.98319e+07
1.8538e+07
1.9503e+07
1.82392e+07
1.93514e+07
1.81225e+07
1.93446e+07
1.81549e+07
1.94527e+07
1.83055e+07
1.96495e+07
1.85467e+07
1.99124e+07
1.88549e+07
2.02229e+07
1.92105e+07
2.05658e+07
1.95978e+07
2.0929e+07
4.49002e+07
4.22346e+07
4.03089e+07
3.80562e+07
3.62883e+07
3.44231e+07
3.27783e+07
3.12804e+07
2.97293e+07
2.85819e+07
2.71004e+07
2.62885e+07
2.48573e+07
2.4366e+07
2.29708e+07
2.27834e+07
2.14146e+07
2.15108e+07
2.01634e+07
2.05189e+07
1.91916e+07
1.97772e+07
1.84718e+07
1.92549e+07
1.79752e+07
1.89209e+07
1.76716e+07
1.87448e+07
1.75305e+07
1.86982e+07
1.75227e+07
1.8755e+07
1.76213e+07
1.88924e+07
1.78024e+07
1.9091e+07
1.80456e+07
1.93346e+07
1.8334e+07
1.961e+07
4.67408e+07
4.39407e+07
4.19996e+07
3.96094e+07
3.78286e+07
3.58205e+07
3.41659e+07
3.25172e+07
3.096e+07
2.9652e+07
2.81682e+07
2.71848e+07
2.5755e+07
2.50812e+07
2.36902e+07
2.33106e+07
2.19475e+07
2.1845e+07
2.0503e+07
2.06574e+07
1.93335e+07
1.97209e+07
1.84152e+07
1.90083e+07
1.77233e+07
1.8492e+07
1.72318e+07
1.81445e+07
1.69139e+07
1.79394e+07
1.67429e+07
1.78518e+07
1.66932e+07
1.7859e+07
1.67414e+07
1.79411e+07
1.68667e+07
1.80811e+07
1.7051e+07
1.82647e+07
4.84317e+07
4.55027e+07
4.35546e+07
4.10326e+07
3.9248e+07
3.71024e+07
3.54479e+07
3.36537e+07
3.21007e+07
3.06374e+07
2.91622e+07
2.80124e+07
2.65952e+07
2.57435e+07
2.43684e+07
2.38003e+07
2.24553e+07
2.21557e+07
2.08323e+07
2.07844e+07
1.94776e+07
1.96623e+07
1.83704e+07
1.87654e+07
1.74892e+07
1.80696e+07
1.68121e+07
1.75506e+07
1.63161e+07
1.71845e+07
1.59778e+07
1.69482e+07
1.5774e+07
1.682e+07
1.56824e+07
1.67801e+07
1.56824e+07
1.68109e+07
1.57557e+07
1.68973e+07
4.99624e+07
4.69109e+07
4.49646e+07
4.23168e+07
4.05378e+07
3.82604e+07
3.66156e+07
3.46815e+07
3.3143e+07
3.15296e+07
3.00739e+07
2.87625e+07
2.73696e+07
2.63445e+07
2.49979e+07
2.42448e+07
2.29313e+07
2.24365e+07
2.11463e+07
2.08957e+07
1.96218e+07
1.96e+07
1.83385e+07
1.85278e+07
1.72777e+07
1.76581e+07
1.64207e+07
1.69699e+07
1.57483e+07
1.64421e+07
1.52407e+07
1.6054e+07
1.48777e+07
1.57855e+07
1.46392e+07
1.56175e+07
1.45058e+07
1.55326e+07
1.44593e+07
1.55153e+07
5.13225e+07
4.81565e+07
4.62208e+07
4.34543e+07
4.169e+07
3.92871e+07
3.76618e+07
3.55931e+07
3.40794e+07
3.23207e+07
3.08954e+07
2.9427e+07
2.80703e+07
2.68757e+07
2.55707e+07
2.46358e+07
2.33684e+07
2.26805e+07
2.14393e+07
2.0986e+07
1.97624e+07
1.9531e+07
1.83191e+07
1.82957e+07
1.70922e+07
1.72613e+07
1.60653e+07
1.64095e+07
1.52224e+07
1.57221e+07
1.45468e+07
1.51811e+07
1.40219e+07
1.47684e+07
1.36304e+07
1.44668e+07
1.3355e+07
1.42593e+07
1.31789e+07
1.41307e+07
5.25022e+07
4.92315e+07
4.73159e+07
4.44392e+07
4.26985e+07
4.01768e+07
3.85801e+07
3.63817e+07
3.49029e+07
3.30024e+07
3.16191e+07
2.99963e+07
2.86888e+07
2.73273e+07
2.60782e+07
2.49641e+07
2.37584e+07
2.28792e+07
2.17045e+07
2.10488e+07
1.98949e+07
1.94516e+07
1.83106e+07
1.80686e+07
1.69351e+07
1.68823e+07
1.57531e+07
1.58765e+07
1.47504e+07
1.50354e+07
1.39132e+07
1.43436e+07
1.32278e+07
1.37856e+07
1.26801e+07
1.33461e+07
1.22557e+07
1.30098e+07
1.194e+07
1.27619e+07
5.3492e+07
5.01302e+07
4.82445e+07
4.52679e+07
4.3559e+07
4.09244e+07
3.9365e+07
3.70389e+07
3.56057e+07
3.35633e+07
3.22349e+07
3.0458e+07
2.92141e+07
2.76872e+07
2.65097e+07
2.52185e+07
2.40917e+07
2.30235e+07
2.19339e+07
2.10771e+07
2.00133e+07
1.93574e+07
1.83103e+07
1.78454e+07
1.68076e+07
1.65242e+07
1.54902e+07
1.53785e+07
1.43448e+07
1.43945e+07
1.3359e+07
1.35587e+07
1.25212e+07
1.28583e+07
1.18198e+07
1.22801e+07
1.12434e+07
1.18107e+07
1.07799e+07
1.14364e+07
5.42834e+07
5.08512e+07
4.90056e+07
4.594e+07
4.42696e+07
4.15208e+07
4.00086e+07
3.75451e+07
3.61732e+07
3.39821e+07
3.27264e+07
3.07934e+07
2.96314e+07
2.79403e+07
2.68527e+07
2.53877e+07
2.43582e+07
2.31046e+07
2.21197e+07
2.10646e+07
2.01125e+07
1.92449e+07
1.83156e+07
1.76259e+07
1.67109e+07
1.61905e+07
1.52829e+07
1.49239e+07
1.4018e+07
1.38132e+07
1.29043e+07
1.28463e+07
1.19311e+07
1.20124e+07
1.10881e+07
1.13005e+07
1.03653e+07
1.06991e+07
9.75241e+06
1.01953e+07
5.48731e+07
5.14062e+07
4.96071e+07
4.64501e+07
4.48244e+07
4.19133e+07
4.04794e+07
3.78527e+07
3.65729e+07
3.42264e+07
3.3069e+07
3.09827e+07
2.99238e+07
2.80752e+07
2.70963e+07
2.54649e+07
2.4551e+07
2.31192e+07
2.22575e+07
2.10103e+07
2.01899e+07
1.91148e+07
1.83261e+07
1.74126e+07
1.66472e+07
1.58866e+07
1.5137e+07
1.4522e+07
1.37814e+07
1.33059e+07
1.25684e+07
1.22274e+07
1.14871e+07
1.12767e+07
1.05276e+07
1.04447e+07
9.67971e+06
9.72227e+06
8.9312e+06
9.09707e+06
5.52904e+07
5.18561e+07
5.00758e+07
4.65752e+07
4.51165e+07
4.19728e+07
4.06952e+07
3.79042e+07
3.67609e+07
3.42757e+07
3.32434e+07
3.10226e+07
3.00853e+07
2.80963e+07
2.7241e+07
2.54581e+07
2.46734e+07
2.30759e+07
2.23519e+07
2.09229e+07
2.02503e+07
1.89757e+07
1.83465e+07
1.72145e+07
1.66213e+07
1.5622e+07
1.50584e+07
1.41834e+07
1.36436e+07
1.2886e+07
1.23646e+07
1.17193e+07
1.12109e+07
1.06747e+07
1.01734e+07
9.74523e+06
9.24233e+06
8.92494e+06
8.4033e+06
8.20534e+06
5.58849e+07
5.08737e+07
4.98597e+07
4.5991e+07
4.49165e+07
4.16445e+07
4.05941e+07
3.77219e+07
3.67378e+07
3.41714e+07
3.32705e+07
3.09556e+07
3.01415e+07
2.80417e+07
2.73114e+07
2.53999e+07
2.47474e+07
2.30033e+07
2.24215e+07
2.08274e+07
2.03094e+07
1.88504e+07
1.83896e+07
1.70526e+07
1.66434e+07
1.54165e+07
1.50547e+07
1.39265e+07
1.36093e+07
1.25686e+07
1.22952e+07
1.13309e+07
1.11026e+07
1.02037e+07
1.00246e+07
9.18143e+06
9.0576e+06
8.26735e+06
8.20414e+06
7.48659e+06
7.79191e+06
5.72686e+06
8.09149e+06
5.91152e+06
9.01089e+06
6.61817e+06
1.02257e+07
7.64663e+06
1.16109e+07
8.85485e+06
1.30933e+07
1.01552e+07
1.46263e+07
1.14951e+07
1.61793e+07
1.2843e+07
1.77325e+07
1.41795e+07
1.92732e+07
1.54934e+07
2.07935e+07
1.67788e+07
2.22894e+07
1.8034e+07
2.37596e+07
1.92612e+07
2.52051e+07
2.0466e+07
2.66281e+07
2.16571e+07
2.80303e+07
2.28468e+07
2.94093e+07
2.40494e+07
3.07491e+07
2.52788e+07
3.19949e+07
2.65403e+07
3.29646e+07
2.78017e+07
5.88069e+06
4.18798e+06
6.49855e+06
4.61696e+06
7.66963e+06
5.62229e+06
9.13134e+06
6.93268e+06
1.07365e+07
8.37873e+06
1.24087e+07
9.87594e+06
1.41059e+07
1.1381e+07
1.58033e+07
1.28701e+07
1.74853e+07
1.43291e+07
1.91426e+07
1.575e+07
2.07696e+07
1.71286e+07
2.23637e+07
1.84636e+07
2.39245e+07
1.97564e+07
2.54536e+07
2.10104e+07
2.69532e+07
2.22311e+07
2.84254e+07
2.34252e+07
2.98695e+07
2.46003e+07
3.12758e+07
2.5762e+07
3.261e+07
2.6908e+07
3.37615e+07
2.80072e+07
4.43851e+06
3.02723e+06
5.3374e+06
3.7422e+06
6.74465e+06
5.03677e+06
8.39662e+06
6.56419e+06
1.01533e+07
8.17142e+06
1.19486e+07
9.79471e+06
1.37487e+07
1.14037e+07
1.55349e+07
1.29819e+07
1.72956e+07
1.45194e+07
1.90241e+07
1.60106e+07
2.07164e+07
1.74524e+07
2.23712e+07
1.88437e+07
2.39886e+07
2.01855e+07
2.55703e+07
2.14804e+07
2.71192e+07
2.27321e+07
2.86379e+07
2.39458e+07
3.01278e+07
2.51267e+07
3.15851e+07
2.62795e+07
3.29921e+07
2.74043e+07
3.42889e+07
2.84864e+07
3.38307e+06
2.21943e+06
4.53589e+06
3.23346e+06
6.13777e+06
4.7533e+06
7.9198e+06
6.41918e+06
9.7685e+06
8.12103e+06
1.1634e+07
9.81698e+06
1.34915e+07
1.14868e+07
1.53268e+07
1.31187e+07
1.71313e+07
1.47056e+07
1.89e+07
1.62427e+07
2.063e+07
1.77276e+07
2.23203e+07
1.91593e+07
2.39714e+07
2.05384e+07
2.55853e+07
2.18667e+07
2.71646e+07
2.31472e+07
2.87127e+07
2.43839e+07
3.02321e+07
2.55813e+07
3.1723e+07
2.67435e+07
3.31777e+07
2.78725e+07
3.45649e+07
2.89622e+07
2.67649e+06
1.77248e+06
4.03239e+06
3.02141e+06
5.76367e+06
4.66936e+06
7.61825e+06
6.40437e+06
9.51204e+06
8.15204e+06
1.14094e+07
9.88406e+06
1.3292e+07
1.15857e+07
1.51489e+07
1.32477e+07
1.69732e+07
1.48639e+07
1.87608e+07
1.64304e+07
2.05092e+07
1.79444e+07
2.22177e+07
1.94051e+07
2.38867e+07
2.08125e+07
2.55182e+07
2.2168e+07
2.71147e+07
2.3474e+07
2.86797e+07
2.47338e+07
3.02166e+07
2.59512e+07
3.17275e+07
2.71301e+07
3.32104e+07
2.82733e+07
3.46504e+07
2.93791e+07
2.30481e+06
1.68338e+06
3.76707e+06
3.02145e+06
5.55396e+06
4.70626e+06
7.43248e+06
6.45969e+06
9.33662e+06
8.2201e+06
1.12388e+07
9.96369e+06
1.31242e+07
1.16775e+07
1.49836e+07
1.33531e+07
1.68109e+07
1.49847e+07
1.86023e+07
1.65682e+07
2.03554e+07
1.81009e+07
2.20695e+07
1.95815e+07
2.37449e+07
2.10099e+07
2.53832e+07
2.23869e+07
2.6987e+07
2.37145e+07
2.85596e+07
2.49954e+07
3.01046e+07
2.6233e+07
3.16254e+07
2.7431e+07
3.3123e+07
2.85925e+07
3.45915e+07
2.97183e+07
2.23741e+06
1.86393e+06
3.68422e+06
3.15793e+06
5.45984e+06
4.81509e+06
7.32431e+06
6.55254e+06
9.21349e+06
8.30311e+06
1.11013e+07
1.00412e+07
1.29738e+07
1.17532e+07
1.48221e+07
1.34303e+07
1.66402e+07
1.50665e+07
1.84243e+07
1.66573e+07
2.01719e+07
1.82001e+07
2.18821e+07
1.9693e+07
2.35549e+07
2.11357e+07
2.51918e+07
2.25286e+07
2.67949e+07
2.38733e+07
2.83676e+07
2.51721e+07
2.99133e+07
2.6428e+07
3.1436e+07
2.76444e+07
3.29385e+07
2.88249e+07
3.44198e+07
2.99715e+07
2.40066e+06
2.19396e+06
3.73813e+06
3.38148e+06
5.4509e+06
4.97143e+06
7.27242e+06
6.66901e+06
9.12762e+06
8.39316e+06
1.09868e+07
1.01128e+07
1.28346e+07
1.1812e+07
1.46615e+07
1.34809e+07
1.64612e+07
1.51128e+07
1.82293e+07
1.6703e+07
1.99634e+07
1.82482e+07
2.1662e+07
1.97466e+07
2.33251e+07
2.11972e+07
2.49536e+07
2.26003e+07
2.65495e+07
2.39571e+07
2.81158e+07
2.52695e+07
2.96559e+07
2.65402e+07
3.11739e+07
2.77726e+07
3.26735e+07
2.89701e+07
3.41565e+07
3.01357e+07
2.71078e+06
2.60168e+06
3.89629e+06
3.66712e+06
5.51092e+06
5.16655e+06
7.26722e+06
6.80642e+06
9.07327e+06
8.49069e+06
1.08924e+07
1.0181e+07
1.2706e+07
1.18581e+07
1.45032e+07
1.35104e+07
1.62767e+07
1.51303e+07
1.80219e+07
1.67124e+07
1.97357e+07
1.82532e+07
2.14163e+07
1.97504e+07
2.30634e+07
2.12028e+07
2.46775e+07
2.26103e+07
2.62604e+07
2.39738e+07
2.78146e+07
2.52949e+07
2.93435e+07
2.65761e+07
3.0851e+07
2.78204e+07
3.23412e+07
2.90313e+07
3.38175e+07
3.02123e+07
3.11028e+06
3.05808e+06
4.13793e+06
4.0044e+06
5.63283e+06
5.39994e+06
7.3065e+06
6.96796e+06
9.05049e+06
8.60053e+06
1.08194e+07
1.02516e+07
1.25906e+07
1.1898e+07
1.43508e+07
1.35259e+07
1.60916e+07
1.51265e+07
1.78077e+07
1.66938e+07
1.94952e+07
1.82237e+07
2.11522e+07
1.97134e+07
2.27777e+07
2.11616e+07
2.43721e+07
2.25676e+07
2.59367e+07
2.39322e+07
2.74736e+07
2.52566e+07
2.8986e+07
2.65431e+07
3.04777e+07
2.77945e+07
3.19527e+07
2.90142e+07
3.34152e+07
3.02058e+07
3.56882e+06
3.55286e+06
4.45e+06
4.3892e+06
5.81432e+06
5.67413e+06
7.39186e+06
7.15899e+06
9.06248e+06
8.72925e+06
1.0772e+07
1.03319e+07
1.2493e+07
1.19393e+07
1.42095e+07
1.35354e+07
1.59115e+07
1.51099e+07
1.75926e+07
1.66558e+07
1.92486e+07
1.81685e+07
2.08766e+07
1.96447e+07
2.24755e+07
2.10826e+07
2.40452e+07
2.24814e+07
2.55866e+07
2.38414e+07
2.71014e+07
2.51636e+07
2.85925e+07
2.645e+07
3.00634e+07
2.77031e+07
3.1518e+07
2.89262e+07
3.29608e+07
3.01228e+07
4.07132e+06
4.08157e+06
4.82343e+06
4.81888e+06
6.05448e+06
5.99154e+06
7.52619e+06
7.38484e+06
9.11363e+06
8.88343e+06
1.07553e+07
1.04289e+07
1.24187e+07
1.19895e+07
1.4085e+07
1.35467e+07
1.57424e+07
1.50884e+07
1.73832e+07
1.66067e+07
1.90024e+07
1.8096e+07
2.05966e+07
1.95528e+07
2.21642e+07
2.09747e+07
2.37045e+07
2.23606e+07
2.5218e+07
2.37104e+07
2.67063e+07
2.50249e+07
2.81715e+07
2.63055e+07
2.9617e+07
2.75548e+07
3.10464e+07
2.87756e+07
3.24641e+07
2.99715e+07
4.6094e+06
4.64083e+06
5.25067e+06
5.29024e+06
6.35181e+06
6.35294e+06
7.71181e+06
7.64931e+06
9.20808e+06
9.06854e+06
1.07741e+07
1.0549e+07
1.2373e+07
1.20555e+07
1.3983e+07
1.35669e+07
1.55901e+07
1.50694e+07
1.71855e+07
1.6554e+07
1.8763e+07
1.80142e+07
2.03188e+07
1.94459e+07
2.18505e+07
2.08462e+07
2.3357e+07
2.22137e+07
2.48384e+07
2.35478e+07
2.62958e+07
2.4849e+07
2.7731e+07
2.61185e+07
2.91467e+07
2.73584e+07
3.05465e+07
2.85714e+07
3.19344e+07
2.97606e+07
5.17711e+06
5.22681e+06
5.72448e+06
5.79894e+06
6.7032e+06
6.75688e+06
7.94946e+06
7.95407e+06
9.34876e+06
9.28827e+06
1.08326e+07
1.06971e+07
1.23608e+07
1.21429e+07
1.39085e+07
1.36021e+07
1.546e+07
1.50594e+07
1.70049e+07
1.65044e+07
1.85362e+07
1.793e+07
2.00491e+07
1.93311e+07
2.15406e+07
2.07045e+07
2.30093e+07
2.20483e+07
2.44545e+07
2.33615e+07
2.5877e+07
2.46442e+07
2.72781e+07
2.58973e+07
2.86603e+07
2.71225e+07
3.00264e+07
2.83222e+07
3.13804e+07
2.94993e+07
5.76922e+06
5.83499e+06
6.23761e+06
6.33957e+06
7.10386e+06
7.19988e+06
8.23779e+06
8.29851e+06
9.53682e+06
9.54421e+06
1.09335e+07
1.08762e+07
1.23854e+07
1.22556e+07
1.38657e+07
1.3657e+07
1.53566e+07
1.50635e+07
1.68464e+07
1.64637e+07
1.8327e+07
1.78493e+07
1.97928e+07
1.92148e+07
2.12402e+07
2.05564e+07
2.2667e+07
2.18715e+07
2.40724e+07
2.31588e+07
2.54563e+07
2.44181e+07
2.68197e+07
2.56498e+07
2.81647e+07
2.68553e+07
2.94936e+07
2.80365e+07
3.08098e+07
2.91963e+07
6.38056e+06
6.46035e+06
6.78269e+06
6.90606e+06
7.54755e+06
7.67688e+06
8.57343e+06
8.6799e+06
9.77141e+06
9.83591e+06
1.10776e+07
1.10876e+07
1.2449e+07
1.23961e+07
1.38573e+07
1.37348e+07
1.52833e+07
1.50857e+07
1.67138e+07
1.64361e+07
1.81396e+07
1.77771e+07
1.95544e+07
1.91023e+07
2.09539e+07
2.04072e+07
2.23354e+07
2.1689e+07
2.36972e+07
2.29459e+07
2.50392e+07
2.41772e+07
2.63617e+07
2.53829e+07
2.76661e+07
2.6564e+07
2.89546e+07
2.77221e+07
3.023e+07
2.88596e+07
7.00587e+06
7.09755e+06
7.35246e+06
7.49202e+06
8.02714e+06
8.18178e+06
8.95128e+06
9.0939e+06
1.00498e+07
1.0161e+07
1.1264e+07
1.13307e+07
1.25522e+07
1.25651e+07
1.3885e+07
1.38373e+07
1.52422e+07
1.51284e+07
1.66096e+07
1.64249e+07
1.7977e+07
1.77169e+07
1.93374e+07
1.89975e+07
2.06856e+07
2.02617e+07
2.20183e+07
2.1506e+07
2.33336e+07
2.27282e+07
2.46305e+07
2.39272e+07
2.59091e+07
2.51026e+07
2.71702e+07
2.62551e+07
2.84154e+07
2.73858e+07
2.96471e+07
2.84967e+07
7.63988e+06
7.74117e+06
7.93982e+06
8.091e+06
8.53502e+06
8.70795e+06
9.36499e+06
9.53498e+06
1.03675e+07
1.05157e+07
1.14903e+07
1.16033e+07
1.26936e+07
1.27618e+07
1.39486e+07
1.39648e+07
1.52342e+07
1.51928e+07
1.65354e+07
1.64317e+07
1.78414e+07
1.76712e+07
1.91441e+07
1.89035e+07
2.0438e+07
2.01231e+07
2.17192e+07
2.13261e+07
2.2985e+07
2.25098e+07
2.42342e+07
2.36728e+07
2.54662e+07
2.48142e+07
2.66813e+07
2.59342e+07
2.78809e+07
2.70337e+07
2.90666e+07
2.81141e+07
8.27731e+06
8.38581e+06
8.53798e+06
8.69668e+06
9.06351e+06
9.24855e+06
9.80746e+06
9.99686e+06
1.07189e+07
1.0895e+07
1.17522e+07
1.19017e+07
1.28708e+07
1.29839e+07
1.40467e+07
1.4116e+07
1.52587e+07
1.52786e+07
1.64915e+07
1.64573e+07
1.77334e+07
1.76412e+07
1.8976e+07
1.8822e+07
2.02131e+07
1.99938e+07
2.14401e+07
2.11522e+07
2.26541e+07
2.22942e+07
2.3853e+07
2.34177e+07
2.50361e+07
2.45217e+07
2.62033e+07
2.56059e+07
2.73551e+07
2.66707e+07
2.84928e+07
2.77173e+07
8.91297e+06
9.02617e+06
9.14046e+06
9.30293e+06
9.60513e+06
9.79682e+06
1.02712e+07
1.04729e+07
1.10974e+07
1.1293e+07
1.20447e+07
1.22213e+07
1.30799e+07
1.32279e+07
1.41765e+07
1.42886e+07
1.5314e+07
1.53845e+07
1.64768e+07
1.6501e+07
1.76529e+07
1.76269e+07
1.88334e+07
1.87537e+07
2.00115e+07
1.9875e+07
2.11823e+07
2.0986e+07
2.23423e+07
2.20833e+07
2.34891e+07
2.31645e+07
2.46214e+07
2.42282e+07
2.57387e+07
2.52736e+07
2.6841e+07
2.63009e+07
2.79293e+07
2.73107e+07
9.54178e+06
9.65711e+06
9.74112e+06
9.90392e+06
1.01527e+07
1.03462e+07
1.07488e+07
1.09565e+07
1.14961e+07
1.17035e+07
1.23616e+07
1.25568e+07
1.33158e+07
1.34895e+07
1.43342e+07
1.44792e+07
1.53972e+07
1.55078e+07
1.64892e+07
1.65609e+07
1.75984e+07
1.76273e+07
1.87153e+07
1.86982e+07
1.98329e+07
1.97669e+07
2.09459e+07
2.08283e+07
2.20503e+07
2.18786e+07
2.31434e+07
2.2915e+07
2.42234e+07
2.39358e+07
2.52893e+07
2.49401e+07
2.63409e+07
2.59273e+07
2.73786e+07
2.68979e+07
1.01588e+07
1.02736e+07
1.03341e+07
1.0494e+07
1.06993e+07
1.08903e+07
1.12328e+07
1.14409e+07
1.19077e+07
1.21202e+07
1.26963e+07
1.29023e+07
1.35727e+07