/*--------------------------------*- C++ -*----------------------------------*\
| =========                 |                                                 |
| \\      /  F ield         | OpenFOAM: The Open Source CFD Toolbox           |
|  \\    /   O peration     | Version:  v2012                                 |
|   \\  /    A nd           | Website:  www.openfoam.com                      |
|    \\/     M anipulation  |                                                 |
\*---------------------------------------------------------------------------*/
FoamFile
{
    version     2.0;
    format      ascii;
    class       volVectorField;
    location    "9";
    object      D;
}
// * * * * * * * * * * * * * * * * * * * * * * * * * * * * * * * * * * * * * //

dimensions      [0 1 0 0 0 0 0];


internalField   nonuniform List<vector> 
16000
(
(4.9407e-05 -0.00156766 0)
(4.91122e-05 -0.00161501 0)
(4.87903e-05 -0.0016599 0)
(4.84427e-05 -0.00170418 0)
(4.80803e-05 -0.00174624 0)
(4.76829e-05 -0.0017875 0)
(4.72629e-05 -0.00182671 0)
(4.68162e-05 -0.00186497 0)
(4.63322e-05 -0.00190135 0)
(4.58211e-05 -0.00193663 0)
(4.528e-05 -0.00197014 0)
(4.47164e-05 -0.00200246 0)
(4.41097e-05 -0.00203311 0)
(4.34713e-05 -0.00206249 0)
(4.27961e-05 -0.00209025 0)
(4.20948e-05 -0.00211669 0)
(4.13368e-05 -0.00214158 0)
(4.05361e-05 -0.00216507 0)
(3.97238e-05 -0.00218703 0)
(3.88187e-05 -0.00220762 0)
(3.79037e-05 -0.00222664 0)
(3.69427e-05 -0.0022443 0)
(3.59054e-05 -0.00226046 0)
(3.48862e-05 -0.0022752 0)
(3.37849e-05 -0.00228858 0)
(3.26738e-05 -0.00230054 0)
(3.15798e-05 -0.00231122 0)
(3.04304e-05 -0.00232066 0)
(2.9342e-05 -0.00232883 0)
(2.82204e-05 -0.00233598 0)
(2.71736e-05 -0.00234196 0)
(2.62687e-05 -0.00234728 0)
(2.55074e-05 -0.00235233 0)
(2.48512e-05 -0.00235707 0)
(2.42877e-05 -0.00236163 0)
(2.37884e-05 -0.00236601 0)
(2.33552e-05 -0.00237029 0)
(2.29605e-05 -0.00237446 0)
(2.26159e-05 -0.00237858 0)
(2.22917e-05 -0.00238265 0)
(0.000148111 -0.00157016 0)
(0.000147221 -0.00161738 0)
(0.000146249 -0.00166214 0)
(0.000145207 -0.00170628 0)
(0.000144102 -0.00174818 0)
(0.000142907 -0.00178927 0)
(0.000141643 -0.00182832 0)
(0.000140291 -0.00186639 0)
(0.000138855 -0.00190257 0)
(0.000137312 -0.00193765 0)
(0.00013569 -0.00197096 0)
(0.000133967 -0.00200306 0)
(0.000132158 -0.00203347 0)
(0.000130231 -0.0020626 0)
(0.000128185 -0.0020901 0)
(0.000126062 -0.00211626 0)
(0.000123783 -0.00214082 0)
(0.00012136 -0.00216401 0)
(0.000118869 -0.00218561 0)
(0.000116176 -0.0022058 0)
(0.000113358 -0.00222448 0)
(0.000110472 -0.00224168 0)
(0.000107365 -0.00225744 0)
(0.000104231 -0.00227177 0)
(0.000100995 -0.00228467 0)
(9.76472e-05 -0.00229628 0)
(9.4378e-05 -0.00230653 0)
(9.09766e-05 -0.00231563 0)
(8.76892e-05 -0.00232351 0)
(8.44459e-05 -0.00233038 0)
(8.13542e-05 -0.00233626 0)
(7.87509e-05 -0.00234153 0)
(7.65165e-05 -0.0023466 0)
(7.46015e-05 -0.00235136 0)
(7.29287e-05 -0.00235597 0)
(7.14615e-05 -0.0023604 0)
(7.01663e-05 -0.00236473 0)
(6.89992e-05 -0.00236895 0)
(6.79646e-05 -0.00237313 0)
(6.70005e-05 -0.00237724 0)
(0.000246434 -0.0015751 0)
(0.000244927 -0.00162209 0)
(0.000243295 -0.00166657 0)
(0.000241556 -0.00171042 0)
(0.000239693 -0.001752 0)
(0.000237687 -0.00179277 0)
(0.000235565 -0.00183147 0)
(0.000233281 -0.00186918 0)
(0.000230883 -0.00190498 0)
(0.000228313 -0.00193966 0)
(0.000225587 -0.00197254 0)
(0.000222688 -0.00200419 0)
(0.000219631 -0.00203413 0)
(0.000216399 -0.00206274 0)
(0.000212955 -0.00208969 0)
(0.000209319 -0.00211526 0)
(0.000205497 -0.00213918 0)
(0.000201422 -0.00216169 0)
(0.000197126 -0.00218258 0)
(0.000192643 -0.00220199 0)
(0.000187874 -0.00221987 0)
(0.000182939 -0.00223626 0)
(0.000177823 -0.00225114 0)
(0.00017248 -0.00226467 0)
(0.000167126 -0.00227672 0)
(0.000161605 -0.00228756 0)
(0.000156119 -0.00229709 0)
(0.000150669 -0.00230552 0)
(0.000145263 -0.0023129 0)
(0.000140149 -0.00231932 0)
(0.000135271 -0.00232503 0)
(0.000131147 -0.00233027 0)
(0.000127602 -0.00233536 0)
(0.000124502 -0.00234017 0)
(0.000121805 -0.00234485 0)
(0.0001194 -0.00234937 0)
(0.000117285 -0.0023538 0)
(0.000115356 -0.00235811 0)
(0.000113649 -0.00236239 0)
(0.000112048 -0.00236658 0)
(0.000344192 -0.00158242 0)
(0.000342023 -0.00162905 0)
(0.000339687 -0.00167312 0)
(0.000337209 -0.00171653 0)
(0.00033458 -0.00175763 0)
(0.000331761 -0.0017979 0)
(0.000328762 -0.00183606 0)
(0.000325539 -0.00187323 0)
(0.000322132 -0.00190844 0)
(0.000318491 -0.0019425 0)
(0.00031464 -0.00197472 0)
(0.00031053 -0.00200567 0)
(0.000306166 -0.00203486 0)
(0.000301539 -0.00206268 0)
(0.000296644 -0.00208876 0)
(0.000291426 -0.00211341 0)
(0.000285923 -0.00213634 0)
(0.000280101 -0.00215778 0)
(0.000273953 -0.00217755 0)
(0.000267492 -0.00219579 0)
(0.000260751 -0.00221241 0)
(0.000253706 -0.00222759 0)
(0.000246469 -0.00224121 0)
(0.000239039 -0.00225351 0)
(0.000231485 -0.00226445 0)
(0.000223947 -0.00227417 0)
(0.000216384 -0.00228281 0)
(0.000209057 -0.00229041 0)
(0.00020185 -0.00229716 0)
(0.000195133 -0.00230316 0)
(0.000188836 -0.00230863 0)
(0.000183474 -0.00231389 0)
(0.000178781 -0.00231897 0)
(0.00017466 -0.00232387 0)
(0.00017102 -0.00232863 0)
(0.000167765 -0.00233326 0)
(0.000164868 -0.0023378 0)
(0.000162222 -0.00234224 0)
(0.000159859 -0.00234663 0)
(0.000157641 -0.00235093 0)
(0.00044112 -0.00159192 0)
(0.000438253 -0.00163808 0)
(0.000435167 -0.0016816 0)
(0.000431903 -0.00172445 0)
(0.000428459 -0.00176495 0)
(0.00042477 -0.00180456 0)
(0.000420871 -0.001842 0)
(0.000416687 -0.00187841 0)
(0.000412252 -0.00191279 0)
(0.000407485 -0.00194599 0)
(0.000402444 -0.00197728 0)
(0.000397048 -0.00200724 0)
(0.000391325 -0.00203536 0)
(0.00038522 -0.00206204 0)
(0.00037873 -0.0020869 0)
(0.000371836 -0.00211022 0)
(0.000364525 -0.00213176 0)
(0.000356814 -0.00215171 0)
(0.000348678 -0.00216992 0)
(0.000340167 -0.00218657 0)
(0.000331323 -0.00220158 0)
(0.000322173 -0.00221511 0)
(0.000312819 -0.00222722 0)
(0.000303329 -0.00223799 0)
(0.000293802 -0.00224759 0)
(0.000284346 -0.00225611 0)
(0.00027508 -0.00226371 0)
(0.000266055 -0.00227051 0)
(0.000257481 -0.00227665 0)
(0.000249433 -0.00228229 0)
(0.000242162 -0.00228759 0)
(0.000235797 -0.00229286 0)
(0.000230183 -0.00229796 0)
(0.000225156 -0.00230294 0)
(0.000220701 -0.0023078 0)
(0.000216656 -0.00231254 0)
(0.000213044 -0.0023172 0)
(0.000209713 -0.00232175 0)
(0.000206726 -0.00232626 0)
(0.00020391 -0.00233067 0)
(0.000537051 -0.00160351 0)
(0.000533444 -0.00164907 0)
(0.000529576 -0.00169189 0)
(0.00052549 -0.00173403 0)
(0.000521173 -0.00177371 0)
(0.000516537 -0.00181248 0)
(0.000511658 -0.00184901 0)
(0.000506413 -0.00188444 0)
(0.000500859 -0.00191776 0)
(0.00049491 -0.00194982 0)
(0.000488578 -0.00197989 0)
(0.000481809 -0.00200852 0)
(0.000474588 -0.00203522 0)
(0.000466867 -0.00206034 0)
(0.00045865 -0.00208355 0)
(0.000449918 -0.00210511 0)
(0.000440681 -0.0021248 0)
(0.000430913 -0.00214281 0)
(0.000420703 -0.00215904 0)
(0.000410075 -0.0021737 0)
(0.000399084 -0.00218672 0)
(0.000387871 -0.00219839 0)
(0.000376499 -0.00220868 0)
(0.000365105 -0.00221789 0)
(0.00035384 -0.00222604 0)
(0.00034279 -0.00223341 0)
(0.0003321 -0.00224003 0)
(0.000321878 -0.00224616 0)
(0.000312281 -0.00225185 0)
(0.000303348 -0.00225725 0)
(0.000295284 -0.00226254 0)
(0.00028825 -0.00226779 0)
(0.000281838 -0.0022729 0)
(0.000276095 -0.00227793 0)
(0.000270905 -0.00228285 0)
(0.000266173 -0.00228768 0)
(0.000261899 -0.00229243 0)
(0.000257937 -0.00229708 0)
(0.000254357 -0.00230168 0)
(0.000250971 -0.00230617 0)
(0.000631749 -0.00161697 0)
(0.000627308 -0.00166179 0)
(0.000622571 -0.00170376 0)
(0.000617578 -0.001745 0)
(0.000612324 -0.00178368 0)
(0.000606699 -0.0018214 0)
(0.000600762 -0.00185677 0)
(0.000594388 -0.00189095 0)
(0.00058762 -0.00192294 0)
(0.000580362 -0.00195354 0)
(0.000572615 -0.00198201 0)
(0.000564293 -0.00200892 0)
(0.00055541 -0.00203373 0)
(0.000545904 -0.00205686 0)
(0.000535793 -0.00207793 0)
(0.000525063 -0.00209725 0)
(0.000513714 -0.0021146 0)
(0.000501821 -0.00213023 0)
(0.000489468 -0.00214412 0)
(0.000476687 -0.00215644 0)
(0.000463684 -0.00216732 0)
(0.000450531 -0.00217695 0)
(0.000437402 -0.00218549 0)
(0.000424461 -0.00219315 0)
(0.000411812 -0.0022001 0)
(0.000399631 -0.00220647 0)
(0.000387952 -0.00221243 0)
(0.000377027 -0.00221808 0)
(0.000366707 -0.0022235 0)
(0.000357276 -0.00222873 0)
(0.000348664 -0.00223403 0)
(0.000340854 -0.00223924 0)
(0.000333883 -0.00224434 0)
(0.000327461 -0.0022494 0)
(0.000321662 -0.00225434 0)
(0.000316308 -0.00225922 0)
(0.00031144 -0.00226401 0)
(0.000306905 -0.00226871 0)
(0.000302769 -0.00227337 0)
(0.000298856 -0.00227791 0)
(0.000725073 -0.00163198 0)
(0.000719735 -0.00167591 0)
(0.000714041 -0.00171687 0)
(0.000708042 -0.00175703 0)
(0.000701737 -0.00179453 0)
(0.000694997 -0.00183096 0)
(0.000687879 -0.00186491 0)
(0.000680235 -0.00189754 0)
(0.000672096 -0.00192782 0)
(0.000663341 -0.00195656 0)
(0.000653978 -0.00198299 0)
(0.000643913 -0.00200769 0)
(0.000633167 -0.00203014 0)
(0.000621685 -0.00205074 0)
(0.00060949 -0.00206917 0)
(0.000596607 -0.00208575 0)
(0.000583072 -0.00210033 0)
(0.000569036 -0.00211328 0)
(0.000554574 -0.00212453 0)
(0.00053985 -0.00213447 0)
(0.00052507 -0.00214317 0)
(0.000510339 -0.00215095 0)
(0.000495895 -0.00215795 0)
(0.000481839 -0.00216439 0)
(0.000468309 -0.0021704 0)
(0.000455386 -0.0021761 0)
(0.000443206 -0.00218163 0)
(0.00043173 -0.00218696 0)
(0.000420997 -0.00219217 0)
(0.000411115 -0.00219732 0)
(0.000402205 -0.00220252 0)
(0.00039386 -0.00220761 0)
(0.000386333 -0.00221272 0)
(0.000379371 -0.0022177 0)
(0.000373009 -0.00222268 0)
(0.000367119 -0.00222751 0)
(0.000361707 -0.00223234 0)
(0.000356653 -0.00223702 0)
(0.000352004 -0.00224171 0)
(0.000347598 -0.00224624 0)
(0.000816758 -0.00164836 0)
(0.000810441 -0.00169121 0)
(0.000803704 -0.00173091 0)
(0.000796604 -0.00176976 0)
(0.000789127 -0.00180578 0)
(0.000781121 -0.00184061 0)
(0.000772649 -0.00187279 0)
(0.000763533 -0.00190348 0)
(0.000753809 -0.00193161 0)
(0.000743337 -0.00195801 0)
(0.000732123 -0.00198189 0)
(0.000720088 -0.00200385 0)
(0.000707245 -0.00202338 0)
(0.000693577 -0.00204093 0)
(0.000679156 -0.00205623 0)
(0.000664035 -0.00206969 0)
(0.000648371 -0.00208126 0)
(0.000632301 -0.00209136 0)
(0.000616023 -0.00210004 0)
(0.000599734 -0.00210775 0)
(0.000583613 -0.00211459 0)
(0.000567857 -0.00212087 0)
(0.000552579 -0.00212672 0)
(0.000537911 -0.00213229 0)
(0.000523897 -0.00213768 0)
(0.000510661 -0.00214297 0)
(0.000498129 -0.00214816 0)
(0.000486336 -0.00215324 0)
(0.000475296 -0.00215827 0)
(0.000465145 -0.00216335 0)
(0.000455764 -0.00216841 0)
(0.000447106 -0.00217343 0)
(0.000439132 -0.00217844 0)
(0.000431731 -0.00218336 0)
(0.000424911 -0.00218827 0)
(0.000418545 -0.00219306 0)
(0.00041267 -0.00219783 0)
(0.000407142 -0.00220248 0)
(0.000402036 -0.00220712 0)
(0.000397176 -0.00221161 0)
(0.000906616 -0.00166569 0)
(0.000899202 -0.00170723 0)
(0.000891282 -0.00174543 0)
(0.000882927 -0.00178267 0)
(0.000874117 -0.00181687 0)
(0.000864659 -0.00184973 0)
(0.000854622 -0.00187969 0)
(0.000843798 -0.00190796 0)
(0.00083223 -0.00193342 0)
(0.000819773 -0.00195691 0)
(0.000806441 -0.00197765 0)
(0.000792185 -0.00199629 0)
(0.000777042 -0.00201237 0)
(0.000761071 -0.00202641 0)
(0.000744389 -0.00203827 0)
(0.000727147 -0.00204846 0)
(0.000709572 -0.00205704 0)
(0.000691855 -0.00206451 0)
(0.000674239 -0.00207101 0)
(0.000656933 -0.00207694 0)
(0.000640057 -0.00208241 0)
(0.00062378 -0.00208767 0)
(0.000608165 -0.00209275 0)
(0.000593254 -0.00209779 0)
(0.000579111 -0.00210277 0)
(0.000565671 -0.00210772 0)
(0.000552947 -0.0021126 0)
(0.00054094 -0.00211746 0)
(0.000529771 -0.00212235 0)
(0.000519367 -0.00212727 0)
(0.000509742 -0.00213219 0)
(0.000500737 -0.00213708 0)
(0.000492412 -0.00214196 0)
(0.000484617 -0.00214676 0)
(0.000477394 -0.00215155 0)
(0.000470614 -0.00215622 0)
(0.000464318 -0.0021609 0)
(0.000458373 -0.00216543 0)
(0.000452846 -0.00216998 0)
(0.000447578 -0.00217436 0)
(0.000994402 -0.00168358 0)
(0.000985775 -0.00172351 0)
(0.00097653 -0.00175983 0)
(0.00096674 -0.00179509 0)
(0.000956386 -0.00182703 0)
(0.000945233 -0.00185743 0)
(0.000933352 -0.00188463 0)
(0.000920533 -0.00190989 0)
(0.000906811 -0.00193205 0)
(0.000892078 -0.001952 0)
(0.00087636 -0.00196902 0)
(0.000859682 -0.0019838 0)
(0.000842138 -0.00199602 0)
(0.000823889 -0.00200636 0)
(0.00080516 -0.00201477 0)
(0.000786151 -0.00202192 0)
(0.000767177 -0.00202795 0)
(0.000748414 -0.00203338 0)
(0.000730087 -0.00203832 0)
(0.000712337 -0.00204309 0)
(0.000695249 -0.00204769 0)
(0.00067887 -0.00205233 0)
(0.000663221 -0.00205691 0)
(0.000648284 -0.00206154 0)
(0.000634034 -0.00206613 0)
(0.000620499 -0.00207074 0)
(0.000607679 -0.00207535 0)
(0.000595635 -0.00208002 0)
(0.000584341 -0.00208473 0)
(0.000573793 -0.00208947 0)
(0.000563898 -0.00209419 0)
(0.00055467 -0.0020989 0)
(0.000546022 -0.00210359 0)
(0.000537929 -0.00210821 0)
(0.000530356 -0.00211282 0)
(0.000523233 -0.00211733 0)
(0.000516574 -0.00212184 0)
(0.000510267 -0.00212621 0)
(0.000504372 -0.00213061 0)
(0.000498742 -0.00213483 0)
(0.00107977 -0.00170146 0)
(0.00106975 -0.00173943 0)
(0.001059 -0.00177344 0)
(0.00104756 -0.00180624 0)
(0.00103542 -0.00183536 0)
(0.00102229 -0.00186268 0)
(0.00100827 -0.00188646 0)
(0.000993158 -0.00190802 0)
(0.000976982 -0.0019262 0)
(0.00095972 -0.00194198 0)
(0.000941443 -0.00195474 0)
(0.000922293 -0.00196536 0)
(0.000902489 -0.00197366 0)
(0.000882274 -0.00198051 0)
(0.000861981 -0.00198598 0)
(0.000841866 -0.00199081 0)
(0.000822188 -0.00199509 0)
(0.000803074 -0.00199923 0)
(0.000784603 -0.00200325 0)
(0.000766831 -0.00200733 0)
(0.000749797 -0.00201141 0)
(0.000733483 -0.00201557 0)
(0.000717877 -0.00201973 0)
(0.000702968 -0.00202395 0)
(0.000688773 -0.00202821 0)
(0.000675288 -0.00203254 0)
(0.000662534 -0.00203693 0)
(0.000650484 -0.00204136 0)
(0.000639137 -0.00204583 0)
(0.00062844 -0.0020503 0)
(0.000618399 -0.00205478 0)
(0.000608931 -0.00205922 0)
(0.000600056 -0.00206367 0)
(0.000591678 -0.00206804 0)
(0.000583826 -0.00207242 0)
(0.000576394 -0.0020767 0)
(0.000569425 -0.00208099 0)
(0.0005628 -0.00208514 0)
(0.000556582 -0.00208932 0)
(0.000550634 -0.00209334 0)
(0.00116249 -0.00171859 0)
(0.00115088 -0.00175417 0)
(0.00113837 -0.00178535 0)
(0.00112501 -0.00181509 0)
(0.00111073 -0.00184071 0)
(0.00109532 -0.00186421 0)
(0.00107881 -0.00188381 0)
(0.00106109 -0.00190091 0)
(0.00104222 -0.00191445 0)
(0.00102229 -0.00192557 0)
(0.00100151 -0.00193386 0)
(0.000980168 -0.00194044 0)
(0.000958592 -0.00194533 0)
(0.000937151 -0.00194951 0)
(0.00091606 -0.00195304 0)
(0.000895583 -0.00195651 0)
(0.000875807 -0.00195986 0)
(0.000856763 -0.00196332 0)
(0.000838462 -0.00196678 0)
(0.000820875 -0.0019704 0)
(0.000804011 -0.00197406 0)
(0.000787842 -0.00197783 0)
(0.000772379 -0.00198164 0)
(0.000757617 -0.00198555 0)
(0.000743559 -0.00198949 0)
(0.000730175 -0.00199352 0)
(0.000717461 -0.00199758 0)
(0.000705412 -0.00200169 0)
(0.00069399 -0.00200582 0)
(0.000683224 -0.00200997 0)
(0.000672975 -0.0020141 0)
(0.000663421 -0.00201825 0)
(0.000654328 -0.00202238 0)
(0.000645765 -0.00202647 0)
(0.000637672 -0.00203055 0)
(0.000630004 -0.00203455 0)
(0.000622775 -0.00203856 0)
(0.000615889 -0.00204244 0)
(0.000609397 -0.00204636 0)
(0.000603181 -0.00205012 0)
(0.00124217 -0.00173422 0)
(0.00122874 -0.00176686 0)
(0.00121416 -0.00179449 0)
(0.00119851 -0.00182036 0)
(0.00118175 -0.00184161 0)
(0.00116369 -0.00186043 0)
(0.00114436 -0.001875 0)
(0.00112381 -0.00188697 0)
(0.00110217 -0.00189543 0)
(0.00107978 -0.00190188 0)
(0.00105696 -0.0019062 0)
(0.00103415 -0.00190969 0)
(0.00101174 -0.00191243 0)
(0.000989976 -0.00191517 0)
(0.000968942 -0.00191778 0)
(0.000948655 -0.00192067 0)
(0.000929118 -0.00192353 0)
(0.000910303 -0.0019266 0)
(0.000892245 -0.00192968 0)
(0.00087489 -0.00193291 0)
(0.000858245 -0.00193617 0)
(0.000842279 -0.00193955 0)
(0.000826996 -0.00194297 0)
(0.000812376 -0.00194648 0)
(0.000798423 -0.00195006 0)
(0.000785119 -0.00195368 0)
(0.000772459 -0.00195737 0)
(0.000760426 -0.00196107 0)
(0.000748999 -0.00196484 0)
(0.000738161 -0.0019686 0)
(0.000727891 -0.0019724 0)
(0.000718142 -0.00197617 0)
(0.000708936 -0.00197995 0)
(0.000700178 -0.00198369 0)
(0.000691914 -0.00198743 0)
(0.000684041 -0.0019911 0)
(0.000676604 -0.00199479 0)
(0.000669502 -0.00199836 0)
(0.000662781 -0.00200197 0)
(0.000656343 -0.00200543 0)
(0.00131848 -0.00174731 0)
(0.00130285 -0.00177621 0)
(0.00128576 -0.00179928 0)
(0.00126745 -0.0018203 0)
(0.00124779 -0.0018362 0)
(0.00122676 -0.00184943 0)
(0.00120444 -0.00185835 0)
(0.00118113 -0.00186495 0)
(0.00115713 -0.00186877 0)
(0.00113304 -0.00187167 0)
(0.00110934 -0.00187355 0)
(0.00108629 -0.0018756 0)
(0.00106402 -0.00187753 0)
(0.0010425 -0.00187978 0)
(0.0010218 -0.00188199 0)
(0.00100182 -0.00188443 0)
(0.000982561 -0.00188686 0)
(0.000964004 -0.00188947 0)
(0.000946159 -0.00189211 0)
(0.000929003 -0.00189489 0)
(0.000912537 -0.0018977 0)
(0.000896742 -0.00190064 0)
(0.000881611 -0.00190363 0)
(0.000867133 -0.00190671 0)
(0.000853296 -0.00190985 0)
(0.000840086 -0.00191306 0)
(0.000827493 -0.00191632 0)
(0.000815487 -0.00191962 0)
(0.000804087 -0.00192297 0)
(0.000793201 -0.00192631 0)
(0.000782948 -0.00192972 0)
(0.000773062 -0.00193307 0)
(0.000763765 -0.00193648 0)
(0.000754881 -0.00193981 0)
(0.000746473 -0.0019432 0)
(0.000738455 -0.00194649 0)
(0.000730847 -0.00194983 0)
(0.000723582 -0.00195305 0)
(0.000716674 -0.00195633 0)
(0.000710061 -0.00195945 0)
(0.00139079 -0.0017563 0)
(0.0013725 -0.00178028 0)
(0.00135243 -0.00179764 0)
(0.00133108 -0.00181277 0)
(0.00130824 -0.00182248 0)
(0.00128421 -0.00182973 0)
(0.0012592 -0.0018333 0)
(0.00123392 -0.00183574 0)
(0.00120892 -0.00183679 0)
(0.0011846 -0.00183818 0)
(0.00116107 -0.00183934 0)
(0.0011384 -0.00184093 0)
(0.00111647 -0.00184239 0)
(0.00109526 -0.00184416 0)
(0.0010748 -0.00184586 0)
(0.00105505 -0.0018478 0)
(0.00103602 -0.00184973 0)
(0.0010177 -0.00185185 0)
(0.00100007 -0.00185399 0)
(0.000983129 -0.0018563 0)
(0.000966862 -0.00185865 0)
(0.000951245 -0.00186112 0)
(0.000936283 -0.00186365 0)
(0.000921943 -0.00186627 0)
(0.000908232 -0.00186896 0)
(0.000895113 -0.00187171 0)
(0.000882597 -0.00187452 0)
(0.000870638 -0.00187738 0)
(0.000859248 -0.00188028 0)
(0.000848377 -0.0018832 0)
(0.000838037 -0.00188615 0)
(0.000828174 -0.00188909 0)
(0.000818797 -0.00189209 0)
(0.000809849 -0.00189502 0)
(0.000801344 -0.00189801 0)
(0.00079322 -0.00190091 0)
(0.000785493 -0.00190387 0)
(0.0007781 -0.00190671 0)
(0.000771054 -0.00190962 0)
(0.000764304 -0.00191238 0)
(0.00145825 -0.0017589 0)
(0.00143688 -0.00177669 0)
(0.00141352 -0.00178748 0)
(0.00138907 -0.00179613 0)
(0.00136323 -0.0017998 0)
(0.00133691 -0.00180217 0)
(0.00131061 -0.00180242 0)
(0.00128501 -0.00180314 0)
(0.00126019 -0.00180345 0)
(0.00123628 -0.00180435 0)
(0.00121309 -0.001805 0)
(0.00119064 -0.00180604 0)
(0.00116896 -0.00180694 0)
(0.00114801 -0.00180816 0)
(0.0011278 -0.00180932 0)
(0.0011083 -0.00181073 0)
(0.00108952 -0.00181214 0)
(0.00107143 -0.00181374 0)
(0.00105403 -0.00181539 0)
(0.00103729 -0.00181719 0)
(0.00102121 -0.00181904 0)
(0.00100578 -0.00182102 0)
(0.000990971 -0.00182307 0)
(0.00097678 -0.00182521 0)
(0.000963193 -0.00182742 0)
(0.000950186 -0.0018297 0)
(0.000937756 -0.00183204 0)
(0.000925863 -0.00183443 0)
(0.000914526 -0.00183688 0)
(0.000903674 -0.00183934 0)
(0.000893355 -0.00184185 0)
(0.000883464 -0.00184435 0)
(0.000874065 -0.00184691 0)
(0.000865066 -0.00184942 0)
(0.000856503 -0.00185199 0)
(0.000848308 -0.00185448 0)
(0.000840497 -0.00185704 0)
(0.000833018 -0.00185948 0)
(0.000825868 -0.00186201 0)
(0.000819023 -0.00186438 0)
(0.00152024 -0.00175281 0)
(0.00149568 -0.00176377 0)
(0.0014692 -0.00176805 0)
(0.00144213 -0.00177103 0)
(0.00141454 -0.00177059 0)
(0.00138767 -0.00177072 0)
(0.00136145 -0.00177008 0)
(0.00133624 -0.00177027 0)
(0.00131173 -0.00177002 0)
(0.00128803 -0.00177031 0)
(0.00126508 -0.00177035 0)
(0.00124291 -0.0017708 0)
(0.00122148 -0.00177113 0)
(0.0012008 -0.00177178 0)
(0.00118084 -0.00177239 0)
(0.00116159 -0.00177324 0)
(0.00114305 -0.00177412 0)
(0.00112518 -0.00177519 0)
(0.001108 -0.00177631 0)
(0.00109147 -0.00177758 0)
(0.00107559 -0.00177893 0)
(0.00106033 -0.0017804 0)
(0.0010457 -0.00178194 0)
(0.00103166 -0.00178359 0)
(0.00101822 -0.0017853 0)
(0.00100532 -0.00178709 0)
(0.000992999 -0.00178896 0)
(0.000981179 -0.00179086 0)
(0.000969905 -0.00179284 0)
(0.000959103 -0.00179483 0)
(0.000948799 -0.00179689 0)
(0.000938938 -0.00179893 0)
(0.000929528 -0.00180105 0)
(0.000920526 -0.00180311 0)
(0.000911931 -0.00180526 0)
(0.000903707 -0.00180732 0)
(0.000895844 -0.00180947 0)
(0.000888317 -0.0018115 0)
(0.000881101 -0.00181363 0)
(0.000874196 -0.00181561 0)
(0.00157702 -0.00173736 0)
(0.00154965 -0.00174199 0)
(0.0015209 -0.00174133 0)
(0.00149278 -0.00174112 0)
(0.00146503 -0.0017394 0)
(0.00143848 -0.00173891 0)
(0.00141256 -0.00173769 0)
(0.00138754 -0.00173721 0)
(0.00136326 -0.00173632 0)
(0.00133982 -0.00173597 0)
(0.00131712 -0.00173541 0)
(0.00129521 -0.00173524 0)
(0.00127404 -0.00173499 0)
(0.00125361 -0.00173504 0)
(0.0012339 -0.00173508 0)
(0.00121489 -0.00173536 0)
(0.00119659 -0.00173568 0)
(0.00117896 -0.0017362 0)
(0.00116199 -0.00173678 0)
(0.00114567 -0.00173752 0)
(0.00112999 -0.00173834 0)
(0.00111492 -0.00173929 0)
(0.00110046 -0.00174032 0)
(0.00108658 -0.00174145 0)
(0.00107327 -0.00174267 0)
(0.00106051 -0.00174396 0)
(0.00104829 -0.00174533 0)
(0.00103658 -0.00174676 0)
(0.00102539 -0.00174825 0)
(0.00101465 -0.00174977 0)
(0.00100441 -0.00175136 0)
(0.000994584 -0.00175295 0)
(0.000985203 -0.00175461 0)
(0.000976215 -0.00175623 0)
(0.000967623 -0.00175794 0)
(0.000959393 -0.00175957 0)
(0.000951513 -0.00176129 0)
(0.000943967 -0.0017629 0)
(0.000936717 -0.00176463 0)
(0.000929785 -0.0017662 0)
(0.00162989 -0.00171433 0)
(0.00160063 -0.00171425 0)
(0.0015713 -0.00171163 0)
(0.00154326 -0.0017104 0)
(0.0015158 -0.0017082 0)
(0.0014894 -0.00170693 0)
(0.00146366 -0.00170508 0)
(0.00143889 -0.00170387 0)
(0.00141484 -0.00170237 0)
(0.00139164 -0.00170134 0)
(0.00136919 -0.00170017 0)
(0.00134753 -0.00169936 0)
(0.00132661 -0.00169851 0)
(0.00130643 -0.00169795 0)
(0.00128697 -0.00169741 0)
(0.00126821 -0.00169711 0)
(0.00125014 -0.00169686 0)
(0.00123274 -0.00169682 0)
(0.001216 -0.00169685 0)
(0.00119989 -0.00169705 0)
(0.00118442 -0.00169733 0)
(0.00116954 -0.00169775 0)
(0.00115526 -0.00169826 0)
(0.00114154 -0.00169888 0)
(0.0011284 -0.00169959 0)
(0.00111577 -0.00170037 0)
(0.00110373 -0.00170127 0)
(0.00109208 -0.00170218 0)
(0.001081 -0.0017032 0)
(0.00107035 -0.00170424 0)
(0.00106017 -0.00170536 0)
(0.00105041 -0.00170648 0)
(0.00104107 -0.00170769 0)
(0.00103213 -0.00170887 0)
(0.00102356 -0.00171013 0)
(0.00101536 -0.00171133 0)
(0.00100748 -0.00171263 0)
(0.000999952 -0.00171382 0)
(0.000992696 -0.00171513 0)
(0.000985769 -0.0017163 0)
(0.00168062 -0.00168716 0)
(0.00165089 -0.00168484 0)
(0.0016218 -0.00168191 0)
(0.0015939 -0.00167967 0)
(0.00156657 -0.00167691 0)
(0.00154036 -0.00167476 0)
(0.00151483 -0.00167229 0)
(0.00149026 -0.00167032 0)
(0.00146644 -0.00166818 0)
(0.00144348 -0.00166644 0)
(0.00142127 -0.00166464 0)
(0.00139986 -0.00166317 0)
(0.00137919 -0.00166171 0)
(0.00135926 -0.00166053 0)
(0.00134005 -0.0016594 0)
(0.00132154 -0.00165851 0)
(0.00130371 -0.00165769 0)
(0.00128654 -0.00165708 0)
(0.00127003 -0.00165656 0)
(0.00125414 -0.0016562 0)
(0.00123887 -0.00165595 0)
(0.00122419 -0.00165584 0)
(0.0012101 -0.00165582 0)
(0.00119656 -0.00165592 0)
(0.00118357 -0.00165612 0)
(0.00117111 -0.0016564 0)
(0.00115915 -0.00165678 0)
(0.00114767 -0.00165722 0)
(0.00113669 -0.00165776 0)
(0.00112616 -0.00165832 0)
(0.00111607 -0.00165898 0)
(0.0011064 -0.00165964 0)
(0.00109713 -0.0016604 0)
(0.00108826 -0.00166112 0)
(0.00107974 -0.00166195 0)
(0.00107159 -0.00166271 0)
(0.00106375 -0.00166359 0)
(0.00105625 -0.00166436 0)
(0.00104902 -0.00166526 0)
(0.00104212 -0.00166602 0)
(0.00173099 -0.00165902 0)
(0.00170132 -0.00165572 0)
(0.00167233 -0.00165209 0)
(0.00164449 -0.00164889 0)
(0.00161736 -0.00164543 0)
(0.0015913 -0.00164244 0)
(0.00156598 -0.00163927 0)
(0.00154162 -0.00163653 0)
(0.00151803 -0.00163372 0)
(0.00149531 -0.00163128 0)
(0.00147335 -0.00162883 0)
(0.00145219 -0.0016267 0)
(0.00143177 -0.00162462 0)
(0.0014121 -0.00162281 0)
(0.00139313 -0.00162108 0)
(0.00137487 -0.00161959 0)
(0.00135729 -0.0016182 0)
(0.00134036 -0.00161701 0)
(0.00132407 -0.00161593 0)
(0.00130841 -0.00161503 0)
(0.00129335 -0.00161424 0)
(0.00127888 -0.00161359 0)
(0.00126497 -0.00161305 0)
(0.00125162 -0.00161264 0)
(0.00123878 -0.00161233 0)
(0.0012265 -0.00161211 0)
(0.00121464 -0.00161198 0)
(0.00120338 -0.00161196 0)
(0.0011925 -0.00161201 0)
(0.00118211 -0.00161211 0)
(0.00117212 -0.00161231 0)
(0.00116256 -0.00161251 0)
(0.00115337 -0.00161282 0)
(0.00114458 -0.0016131 0)
(0.00113614 -0.0016135 0)
(0.00112806 -0.00161383 0)
(0.00112028 -0.00161429 0)
(0.00111284 -0.00161464 0)
(0.00110565 -0.00161514 0)
(0.00109881 -0.0016155 0)
(0.00178159 -0.0016308 0)
(0.0017518 -0.00162653 0)
(0.00172289 -0.00162205 0)
(0.00169511 -0.00161796 0)
(0.00166815 -0.00161372 0)
(0.00164223 -0.0016099 0)
(0.00161713 -0.001606 0)
(0.00159297 -0.0016025 0)
(0.00156962 -0.001599 0)
(0.00154713 -0.00159585 0)
(0.00152543 -0.00159274 0)
(0.00150451 -0.00158995 0)
(0.00148435 -0.00158724 0)
(0.00146493 -0.00158481 0)
(0.00144623 -0.00158248 0)
(0.00142821 -0.0015804 0)
(0.00141088 -0.00157843 0)
(0.00139419 -0.00157667 0)
(0.00137814 -0.00157504 0)
(0.0013627 -0.00157358 0)
(0.00134787 -0.00157226 0)
(0.00133361 -0.00157108 0)
(0.00131991 -0.00157003 0)
(0.00130675 -0.0015691 0)
(0.00129411 -0.00156829 0)
(0.00128199 -0.00156758 0)
(0.00127034 -0.00156699 0)
(0.00125917 -0.00156647 0)
(0.00124846 -0.00156605 0)
(0.00123818 -0.00156568 0)
(0.00122832 -0.00156542 0)
(0.00121887 -0.00156517 0)
(0.0012098 -0.00156504 0)
(0.00120111 -0.00156489 0)
(0.00119276 -0.00156486 0)
(0.00118477 -0.00156477 0)
(0.00117706 -0.00156481 0)
(0.00116971 -0.00156476 0)
(0.00116259 -0.00156487 0)
(0.00115582 -0.00156483 0)
(0.00183213 -0.00160241 0)
(0.00180229 -0.00159718 0)
(0.00177342 -0.0015918 0)
(0.00174571 -0.00158682 0)
(0.0017189 -0.00158177 0)
(0.00169315 -0.00157713 0)
(0.00166825 -0.00157248 0)
(0.0016443 -0.00156823 0)
(0.00162119 -0.00156402 0)
(0.00159894 -0.00156017 0)
(0.00157748 -0.0015564 0)
(0.00155683 -0.00155295 0)
(0.00153693 -0.00154961 0)
(0.00151776 -0.00154656 0)
(0.00149932 -0.00154363 0)
(0.00148156 -0.00154096 0)
(0.00146447 -0.00153842 0)
(0.00144803 -0.0015361 0)
(0.00143222 -0.00153391 0)
(0.00141702 -0.00153192 0)
(0.00140241 -0.00153006 0)
(0.00138837 -0.00152837 0)
(0.00137487 -0.0015268 0)
(0.00136192 -0.00152537 0)
(0.00134946 -0.00152407 0)
(0.00133753 -0.00152288 0)
(0.00132605 -0.0015218 0)
(0.00131506 -0.00152081 0)
(0.00130449 -0.00151994 0)
(0.00129438 -0.00151912 0)
(0.00128465 -0.00151841 0)
(0.00127534 -0.00151773 0)
(0.00126639 -0.00151716 0)
(0.00125782 -0.00151658 0)
(0.00124957 -0.00151614 0)
(0.00124169 -0.00151564 0)
(0.00123409 -0.00151529 0)
(0.00122684 -0.00151484 0)
(0.0012198 -0.00151456 0)
(0.00121313 -0.00151414 0)
(0.00188259 -0.00157391 0)
(0.00185271 -0.00156768 0)
(0.0018239 -0.00156135 0)
(0.00179627 -0.00155548 0)
(0.00176961 -0.00154959 0)
(0.00174402 -0.00154414 0)
(0.00171933 -0.00153873 0)
(0.0016956 -0.00153373 0)
(0.00167273 -0.00152881 0)
(0.00165073 -0.00152426 0)
(0.00162953 -0.00151983 0)
(0.00160913 -0.00151573 0)
(0.00158949 -0.00151177 0)
(0.00157059 -0.0015081 0)
(0.00155241 -0.00150458 0)
(0.00153491 -0.00150132 0)
(0.00151808 -0.00149822 0)
(0.0015019 -0.00149534 0)
(0.00148633 -0.00149262 0)
(0.00147137 -0.00149009 0)
(0.00145699 -0.00148772 0)
(0.00144318 -0.00148551 0)
(0.0014299 -0.00148345 0)
(0.00141716 -0.00148152 0)
(0.00140491 -0.00147974 0)
(0.00139316 -0.00147807 0)
(0.00138188 -0.00147654 0)
(0.00137105 -0.00147509 0)
(0.00136066 -0.00147376 0)
(0.0013507 -0.0014725 0)
(0.00134112 -0.00147136 0)
(0.00133196 -0.00147025 0)
(0.00132314 -0.00146927 0)
(0.00131471 -0.00146828 0)
(0.00130658 -0.00146743 0)
(0.00129883 -0.00146653 0)
(0.00129133 -0.00146579 0)
(0.00128419 -0.00146496 0)
(0.00127726 -0.0014643 0)
(0.0012707 -0.00146351 0)
(0.00193282 -0.00154524 0)
(0.00190297 -0.00153799 0)
(0.00187423 -0.00153071 0)
(0.00184673 -0.00152394 0)
(0.00182023 -0.00151721 0)
(0.00179483 -0.00151094 0)
(0.00177035 -0.00150477 0)
(0.00174685 -0.00149902 0)
(0.00172422 -0.0014934 0)
(0.00170247 -0.00148816 0)
(0.00168154 -0.00148307 0)
(0.00166141 -0.00147833 0)
(0.00164204 -0.00147375 0)
(0.00162341 -0.00146947 0)
(0.00160549 -0.00146537 0)
(0.00158826 -0.00146154 0)
(0.00157169 -0.00145788 0)
(0.00155576 -0.00145446 0)
(0.00154045 -0.0014512 0)
(0.00152573 -0.00144816 0)
(0.00151159 -0.00144527 0)
(0.00149801 -0.00144257 0)
(0.00148496 -0.00144002 0)
(0.00147243 -0.00143762 0)
(0.00146039 -0.00143537 0)
(0.00144885 -0.00143324 0)
(0.00143775 -0.00143125 0)
(0.00142712 -0.00142936 0)
(0.0014169 -0.0014276 0)
(0.00140712 -0.00142591 0)
(0.0013977 -0.00142435 0)
(0.0013887 -0.00142282 0)
(0.00138003 -0.00142144 0)
(0.00137175 -0.00142005 0)
(0.00136376 -0.00141882 0)
(0.00135614 -0.00141754 0)
(0.00134877 -0.00141642 0)
(0.00134177 -0.00141522 0)
(0.00133495 -0.00141421 0)
(0.00132852 -0.00141307 0)
(0.00198277 -0.00151641 0)
(0.001953 -0.00150814 0)
(0.00192439 -0.0014999 0)
(0.00189704 -0.00149223 0)
(0.00187073 -0.00148465 0)
(0.00184553 -0.00147758 0)
(0.00182129 -0.00147064 0)
(0.00179803 -0.00146415 0)
(0.00177566 -0.00145783 0)
(0.00175418 -0.00145191 0)
(0.00173351 -0.00144617 0)
(0.00171365 -0.00144079 0)
(0.00169456 -0.0014356 0)
(0.00167621 -0.00143073 0)
(0.00165857 -0.00142606 0)
(0.00164161 -0.00142167 0)
(0.00162531 -0.00141746 0)
(0.00160964 -0.00141351 0)
(0.00159459 -0.00140974 0)
(0.00158013 -0.00140619 0)
(0.00156623 -0.00140281 0)
(0.00155289 -0.00139962 0)
(0.00154007 -0.0013966 0)
(0.00152777 -0.00139373 0)