/*--------------------------------*- C++ -*----------------------------------*\
| =========                 |                                                 |
| \\      /  F ield         | OpenFOAM: The Open Source CFD Toolbox           |
|  \\    /   O peration     | Version:  v2012                                 |
|   \\  /    A nd           | Website:  www.openfoam.com                      |
|    \\/     M anipulation  |                                                 |
\*---------------------------------------------------------------------------*/
FoamFile
{
    version     2.0;
    format      ascii;
    class       volSymmTensorField;
    location    "9";
    object      DEpsilonP;
}
// * * * * * * * * * * * * * * * * * * * * * * * * * * * * * * * * * * * * * //

dimensions      [0 0 0 0 0 0 0];


internalField   nonuniform List<symmTensor> 
16000
(
(0.000427652 -8.25598e-06 -4.44306e-21 -0.000411661 2.19774e-19 -1.59913e-05)
(0.000430208 -8.27025e-06 1.54296e-19 -0.000412611 2.17186e-19 -1.75966e-05)
(0.000432495 -8.29643e-06 8.71425e-22 -0.000413151 -2.18684e-19 -1.93449e-05)
(0.000433448 -8.29011e-06 3.09178e-19 -0.00041236 -4.38397e-19 -2.10874e-05)
(0.000433862 -8.27619e-06 -1.52878e-19 -0.000410799 1.78278e-21 -2.3063e-05)
(0.000433302 -8.24215e-06 -2.42504e-27 -0.000408315 1.13581e-25 -2.49868e-05)
(0.000432263 -8.19586e-06 -1.50057e-19 -0.000405071 -4.18174e-19 -2.71916e-05)
(0.000430604 -8.13938e-06 3.27833e-22 -0.000401277 4.13077e-19 -2.93271e-05)
(0.000428665 -8.06744e-06 -1.4671e-19 -0.000396894 2.0394e-19 -3.17715e-05)
(0.000426414 -7.99251e-06 -2.91664e-19 -0.000392217 -1.96722e-19 -3.41967e-05)
(0.000424081 -7.90904e-06 -1.43134e-19 -0.000387133 1.95315e-19 -3.69488e-05)
(0.0004217 -7.81643e-06 1.42587e-19 -0.000381991 -6.9839e-22 -3.97095e-05)
(0.000419307 -7.7107e-06 -1.5514e-27 -0.00037652 -3.90138e-26 -4.27874e-05)
(0.000417059 -7.61556e-06 3.65124e-21 -0.000371094 3.6105e-19 -4.59649e-05)
(0.00041495 -7.48413e-06 4.14745e-19 -0.000365439 -1.75616e-19 -4.95109e-05)
(0.000412851 -7.36024e-06 -5.21099e-21 -0.000359744 -3.40498e-19 -5.31068e-05)
(0.000410966 -7.2272e-06 3.1392e-21 -0.000353854 1.64749e-19 -5.71118e-05)
(0.00040909 -7.03568e-06 -6.77433e-28 -0.000347745 2.85948e-26 -6.13454e-05)
(0.000406813 -6.86258e-06 -2.096e-27 -0.000341104 -2.66693e-26 -6.57086e-05)
(0.000404502 -6.62303e-06 -2.6503e-19 -0.000334117 1.43267e-19 -7.0385e-05)
(0.000401381 -6.30698e-06 -5.57026e-21 -0.000326145 -1.39271e-19 -7.52368e-05)
(0.000397191 -5.99975e-06 -1.45734e-19 -0.000317277 -2.65946e-19 -7.99144e-05)
(0.000392189 -5.53686e-06 -1.31647e-19 -0.000307361 -2.94922e-21 -8.48283e-05)
(0.000385327 -5.03034e-06 -1.22009e-19 -0.000296059 1.11319e-19 -8.92676e-05)
(0.000377235 -4.48028e-06 8.46489e-21 -0.000283785 1.05598e-19 -9.34504e-05)
(0.000368538 -3.78435e-06 1.16111e-19 -0.000271007 -9.18339e-20 -9.75302e-05)
(0.000359101 -3.09103e-06 -2.44425e-19 -0.000258182 -9.74882e-21 -0.000100919)
(0.000350508 -2.38948e-06 1.39363e-19 -0.00024589 1.61939e-19 -0.000104618)
(0.000333885 -1.60435e-06 2.1928e-19 -0.000228557 -5.72664e-20 -0.000105328)
(0.000191381 -5.01885e-07 -1.37649e-19 -0.000127759 -4.241e-20 -6.36218e-05)
(6.99648e-06 7.04124e-09 0 -4.56837e-06 0 -2.42811e-06)
(0 0 0 0 0 0)
(0 0 0 0 0 0)
(0 0 0 0 0 0)
(0 0 0 0 0 0)
(0 0 0 0 0 0)
(0 0 0 0 0 0)
(0 0 0 0 0 0)
(0 0 0 0 0 0)
(0 0 0 0 0 0)
(0.000425106 -2.4636e-05 -1.61533e-19 -0.000409089 1.16554e-19 -1.60169e-05)
(0.000427301 -2.46688e-05 4.60009e-19 -0.000409691 1.88262e-19 -1.76102e-05)
(0.000429367 -2.4726e-05 1.58857e-19 -0.000410004 -4.4359e-19 -1.93622e-05)
(0.000430341 -2.47149e-05 2.07794e-21 -0.000409233 -2.21197e-19 -2.11076e-05)
(0.00043095 -2.46755e-05 -1.54843e-19 -0.000407843 4.38619e-19 -2.31067e-05)
(0.00043073 -2.45928e-05 9.12734e-28 -0.000405668 5.64105e-26 -2.50618e-05)
(0.000430122 -2.44777e-05 3.35215e-22 -0.000402815 -4.15496e-19 -2.73073e-05)
(0.00042895 -2.43296e-05 -1.47201e-19 -0.000399438 4.18032e-19 -2.95114e-05)
(0.000427495 -2.41541e-05 2.97404e-19 -0.000395491 5.97295e-19 -3.2004e-05)
(0.000425736 -2.39463e-05 -2.92877e-19 -0.000391243 -1.83422e-19 -3.44924e-05)
(0.000423771 -2.3715e-05 -5.49893e-21 -0.000386466 -3.863e-19 -3.73045e-05)
(0.000421743 -2.34668e-05 2.82021e-19 -0.000381585 -2.00193e-19 -4.01579e-05)
(0.000419694 -2.31622e-05 -1.37106e-19 -0.00037637 1.88678e-19 -4.33235e-05)
(0.000417588 -2.28648e-05 1.34881e-19 -0.000371016 -1.8315e-19 -4.65717e-05)
(0.000415622 -2.25185e-05 5.51161e-19 -0.000365428 -1.88598e-19 -5.01945e-05)
(0.000413684 -2.20981e-05 8.15946e-21 -0.000359731 1.69935e-19 -5.39522e-05)
(0.000411462 -2.16855e-05 9.72095e-21 -0.000353484 1.64174e-19 -5.79776e-05)
(0.000409352 -2.11294e-05 2.74079e-19 -0.000347111 1.95448e-21 -6.22403e-05)
(0.000406619 -2.04575e-05 1.62596e-19 -0.000339862 3.05363e-19 -6.67567e-05)
(0.0004032 -1.97548e-05 2.85942e-19 -0.000331958 1.5451e-19 -7.12414e-05)
(0.000399336 -1.86908e-05 -3.4531e-20 -0.000323266 -2.74086e-19 -7.60698e-05)
(0.000393957 -1.76035e-05 -1.9258e-20 -0.000313309 -1.27609e-19 -8.06477e-05)
(0.000387681 -1.62302e-05 -1.30682e-19 -0.000302541 -6.79153e-21 -8.51406e-05)
(0.000380296 -1.45486e-05 1.29089e-19 -0.000290698 1.0582e-20 -8.95976e-05)
(0.000371524 -1.28558e-05 -2.53959e-20 -0.000278141 -1.0197e-19 -9.33838e-05)
(0.000362569 -1.08041e-05 1.50238e-19 -0.000265393 1.04319e-19 -9.71757e-05)
(0.000353806 -8.75442e-06 -2.41928e-19 -0.000253131 -2.62821e-20 -0.000100675)
(0.000343281 -6.74588e-06 -5.8488e-20 -0.000239935 -1.5058e-19 -0.000103346)
(0.000321225 -4.24665e-06 1.66938e-19 -0.000219161 1.42487e-19 -0.000102064)
(0.000158235 -1.01094e-06 1.45595e-20 -0.000105552 2.93746e-20 -5.26824e-05)
(0 0 0 0 0 0)
(0 0 0 0 0 0)
(0 0 0 0 0 0)
(0 0 0 0 0 0)
(0 0 0 0 0 0)
(0 0 0 0 0 0)
(0 0 0 0 0 0)
(0 0 0 0 0 0)
(0 0 0 0 0 0)
(0 0 0 0 0 0)
(0.000420493 -4.0682e-05 -1.32386e-19 -0.000404422 -2.04727e-19 -1.60714e-05)
(0.000422075 -4.06847e-05 1.5746e-19 -0.00040442 -2.37418e-19 -1.76551e-05)
(0.00042375 -4.07467e-05 -7.99755e-21 -0.000404329 4.27885e-19 -1.94211e-05)
(0.00042473 -4.07318e-05 -1.51123e-19 -0.000403544 1.9596e-20 -2.11865e-05)
(0.000425618 -4.06872e-05 1.23492e-27 -0.000402394 -5.9509e-26 -2.32237e-05)
(0.000425928 -4.05965e-05 1.50627e-19 -0.000400703 -2.22824e-19 -2.5225e-05)
(0.000426029 -4.04584e-05 1.48652e-19 -0.00039848 -2.21807e-19 -2.75488e-05)
(0.000425658 -4.02856e-05 -2.94759e-19 -0.000395812 2.48845e-20 -2.98459e-05)
(0.000425013 -4.00495e-05 2.97007e-19 -0.000392547 3.74682e-19 -3.24659e-05)
(0.000424062 -3.9787e-05 2.94107e-19 -0.00038899 1.78757e-19 -3.50723e-05)
(0.000422885 -3.94412e-05 -3.03255e-19 -0.000384857 -5.66083e-19 -3.80275e-05)
(0.000421493 -3.90796e-05 -1.36929e-19 -0.000380464 1.94678e-19 -4.10284e-05)
(0.000420075 -3.86385e-05 -1.34135e-19 -0.000375681 1.92927e-19 -4.43941e-05)
(0.000418512 -3.81278e-05 -3.02259e-20 -0.000370666 -5.41791e-19 -4.78461e-05)
(0.00041668 -3.75594e-05 -1.40788e-19 -0.000365062 1.61272e-21 -5.16179e-05)
(0.000414879 -3.68557e-05 2.93235e-20 -0.000359266 3.38052e-19 -5.56131e-05)
(0.000412421 -3.59926e-05 -1.56342e-19 -0.000352593 -1.62708e-19 -5.98276e-05)
(0.000409336 -3.50136e-05 1.17356e-19 -0.000345228 -1.57494e-19 -6.41084e-05)
(0.000405793 -3.36824e-05 -1.37317e-19 -0.000337062 -5.55331e-21 -6.87305e-05)
(0.00040074 -3.21752e-05 4.59466e-19 -0.000327579 2.95077e-19 -7.31609e-05)
(0.000394861 -3.03448e-05 3.03721e-20 -0.000317241 1.32392e-19 -7.76207e-05)
(0.000387886 -2.80678e-05 9.80232e-20 -0.000305806 -1.13128e-19 -8.20794e-05)
(0.000379383 -2.56552e-05 2.22124e-19 -0.000293391 -8.60539e-20 -8.59919e-05)
(0.000370352 -2.27338e-05 1.26243e-19 -0.000280511 1.44589e-20 -8.98403e-05)
(0.000360771 -1.96451e-05 4.2491e-20 -0.000267463 9.49398e-20 -9.33076e-05)
(0.000350995 -1.64221e-05 -7.6627e-20 -0.000254666 6.47568e-20 -9.63285e-05)
(0.000340341 -1.28671e-05 4.58985e-20 -0.000241403 7.68514e-20 -9.89378e-05)
(0.000322331 -9.30777e-06 -1.57394e-19 -0.000223829 -9.0699e-20 -9.85015e-05)
(0.000266446 -4.83802e-06 -3.16959e-19 -0.000181064 -1.1534e-19 -8.5382e-05)
(0.000102899 -6.10195e-07 1.37187e-19 -6.86381e-05 6.26805e-20 -3.42611e-05)
(0 0 0 0 0 0)
(0 0 0 0 0 0)
(0 0 0 0 0 0)
(0 0 0 0 0 0)
(0 0 0 0 0 0)
(0 0 0 0 0 0)
(0 0 0 0 0 0)
(0 0 0 0 0 0)
(0 0 0 0 0 0)
(0 0 0 0 0 0)
(0.00041464 -5.6303e-05 1.43571e-20 -0.000398452 -1.08435e-19 -1.61876e-05)
(0.000415492 -5.62178e-05 -3.00757e-19 -0.000397726 4.6945e-20 -1.77656e-05)
(0.000416668 -5.62424e-05 -6.37795e-23 -0.000397111 2.57707e-21 -1.9557e-05)
(0.000417597 -5.62144e-05 -1.44536e-19 -0.000396232 -1.93217e-19 -2.13651e-05)
(0.000418708 -5.61815e-05 -1.4815e-19 -0.000395245 1.93446e-20 -2.34622e-05)
(0.000419563 -5.61238e-05 1.63299e-21 -0.000394021 -2.09723e-19 -2.55422e-05)
(0.000420409 -5.60203e-05 -1.12993e-22 -0.000392441 2.0496e-19 -2.79676e-05)
(0.000420928 -5.58824e-05 -1.44698e-19 -0.000390547 2.20738e-19 -3.0381e-05)
(0.000421267 -5.56547e-05 -1.48948e-19 -0.000388102 -1.82463e-19 -3.3165e-05)
(0.0004213 -5.53962e-05 3.05862e-19 -0.000385329 5.57448e-19 -3.59711e-05)
(0.000421154 -5.50131e-05 1.5216e-19 -0.000382016 1.86943e-19 -3.91372e-05)
(0.000420745 -5.45798e-05 -3.07182e-19 -0.000378361 -3.52187e-19 -4.23839e-05)
(0.000420055 -5.40241e-05 1.43328e-19 -0.000374048 -8.37789e-21 -4.60078e-05)
(0.000419099 -5.33279e-05 1.27392e-19 -0.000369333 -1.83218e-19 -4.97668e-05)
(0.000417499 -5.24457e-05 -4.44927e-19 -0.000363661 -1.569e-19 -5.38386e-05)
(0.000415275 -5.13575e-05 -1.18729e-19 -0.000357257 1.68513e-19 -5.80181e-05)
(0.000412219 -4.99323e-05 -2.80763e-19 -0.00034972 -5.50724e-22 -6.24994e-05)
(0.000407872 -4.8186e-05 -2.78236e-19 -0.000340967 -6.66225e-21 -6.69058e-05)
(0.000402475 -4.60581e-05 -1.37073e-19 -0.000331052 -4.4678e-21 -7.14238e-05)
(0.000395869 -4.34426e-05 4.09062e-22 -0.000320004 1.35156e-21 -7.5865e-05)
(0.000387585 -4.04434e-05 1.33654e-19 -0.000307607 1.43811e-20 -7.9978e-05)
(0.000378507 -3.69589e-05 -1.88156e-20 -0.000294639 -3.26724e-19 -8.38684e-05)
(0.000368127 -3.30604e-05 2.55022e-19 -0.00028077 4.07445e-20 -8.73573e-05)
(0.000356847 -2.88377e-05 -1.34105e-19 -0.000266714 1.41441e-19 -9.01327e-05)
(0.000344887 -2.4289e-05 -6.13035e-20 -0.00025237 5.76974e-20 -9.25172e-05)
(0.000331285 -1.95539e-05 -1.71476e-19 -0.000237569 1.7043e-20 -9.37154e-05)
(0.000312842 -1.45364e-05 0 -0.000219895 0 -9.29468e-05)
(0.000283868 -9.37369e-06 1.56154e-19 -0.000195793 8.60799e-20 -8.80753e-05)
(0.000176613 -3.17896e-06 -7.00881e-21 -0.000119768 -4.33459e-20 -5.6845e-05)
(4.12799e-05 -3.92165e-08 -3.05165e-20 -2.76112e-05 -1.9067e-20 -1.36687e-05)
(0 0 0 0 0 0)
(0 0 0 0 0 0)
(0 0 0 0 0 0)
(0 0 0 0 0 0)
(0 0 0 0 0 0)
(0 0 0 0 0 0)
(0 0 0 0 0 0)
(0 0 0 0 0 0)
(0 0 0 0 0 0)
(0 0 0 0 0 0)
(0.000408362 -7.1528e-05 1.49933e-19 -0.000391961 -2.12836e-20 -1.64009e-05)
(0.000408473 -7.13111e-05 -1.4074e-19 -0.0003905 -1.81041e-19 -1.7973e-05)
(0.000409135 -7.12486e-05 2.88283e-19 -0.000389335 1.53396e-19 -1.98e-05)
(0.000409924 -7.1186e-05 -4.98381e-21 -0.000388275 2.13257e-19 -2.16494e-05)
(0.000411147 -7.11603e-05 -1.4264e-19 -0.000387313 -1.79302e-19 -2.38337e-05)
(0.000412395 -7.11437e-05 1.48609e-19 -0.000386362 -4.29845e-19 -2.60329e-05)
(0.000413807 -7.10929e-05 -2.90368e-19 -0.000385207 4.37215e-20 -2.85993e-05)
(0.000415094 -7.10179e-05 4.37245e-19 -0.000383915 1.38906e-19 -3.11794e-05)
(0.000416378 -7.08541e-05 -1.49757e-19 -0.000382201 -1.78392e-19 -3.41769e-05)
(0.000417426 -7.06353e-05 1.36886e-19 -0.000380206 -2.10666e-19 -3.72198e-05)
(0.000418349 -7.02809e-05 7.3319e-19 -0.000377645 1.08594e-19 -4.07042e-05)
(0.000418956 -6.98196e-05 1.58807e-19 -0.00037467 1.73911e-19 -4.42853e-05)
(0.000418957 -6.91147e-05 -1.81051e-19 -0.000370694 -3.55052e-19 -4.82634e-05)
(0.000418325 -6.8178e-05 2.22214e-20 -0.000365953 1.72264e-19 -5.2372e-05)
(0.000416671 -6.68711e-05 -8.80546e-20 -0.000359838 3.44546e-19 -5.68326e-05)
(0.000413701 -6.51483e-05 -2.52352e-19 -0.000352417 1.63888e-19 -6.1284e-05)
(0.000409351 -6.29177e-05 2.84015e-19 -0.000343438 9.76074e-21 -6.5913e-05)
(0.00040351 -6.01401e-05 -8.96615e-20 -0.000333065 -2.88644e-19 -7.04457e-05)
(0.000395978 -5.67741e-05 1.73428e-19 -0.000321112 -2.45831e-19 -7.48662e-05)
(0.000386905 -5.27913e-05 -4.07833e-19 -0.000308021 -5.37124e-20 -7.88844e-05)
(0.000376399 -4.82353e-05 3.97648e-19 -0.000293821 6.5021e-20 -8.25776e-05)
(0.00036431 -4.3157e-05 -6.89747e-21 -0.000278806 -1.81037e-19 -8.55045e-05)
(0.000351035 -3.76114e-05 -3.5729e-19 -0.000263278 6.43218e-20 -8.77573e-05)
(0.000336616 -3.17837e-05 2.21779e-19 -0.000247497 2.47748e-19 -8.91194e-05)
(0.000319728 -2.56862e-05 -3.97741e-20 -0.000230688 3.74489e-20 -8.90404e-05)
(0.000299532 -1.94765e-05 2.15657e-19 -0.00021228 7.43237e-20 -8.72519e-05)
(0.000271018 -1.32572e-05 6.06015e-20 -0.000188975 -3.38887e-20 -8.20427e-05)
(0.000212041 -6.72915e-06 -1.05658e-19 -0.000145754 -7.78325e-20 -6.62874e-05)
(9.36593e-05 -1.20995e-06 1.22331e-19 -6.3631e-05 5.69146e-20 -3.00283e-05)
(0 0 0 0 0 0)
(0 0 0 0 0 0)
(0 0 0 0 0 0)
(0 0 0 0 0 0)
(0 0 0 0 0 0)
(0 0 0 0 0 0)
(0 0 0 0 0 0)
(0 0 0 0 0 0)
(0 0 0 0 0 0)
(0 0 0 0 0 0)
(0 0 0 0 0 0)
(0.000402402 -8.65166e-05 1.2828e-19 -0.000385662 8.09026e-20 -1.674e-05)
(0.000401946 -8.61483e-05 3.00176e-19 -0.000383597 -2.77644e-19 -1.83487e-05)
(0.000402173 -8.59797e-05 -1.38422e-19 -0.000381928 -1.77952e-19 -2.02456e-05)
(0.000402742 -8.58486e-05 1.34322e-19 -0.000380579 3.75759e-19 -2.21638e-05)
(0.000403875 -8.57886e-05 1.47088e-19 -0.000379419 -2.33265e-19 -2.44555e-05)
(0.000405179 -8.57586e-05 2.4178e-23 -0.000378414 -4.717e-21 -2.67648e-05)
(0.000406858 -8.57072e-05 -2.88528e-19 -0.00037735 -1.42499e-19 -2.95074e-05)
(0.000408621 -8.56743e-05 -2.87328e-19 -0.000376328 4.14368e-20 -3.22931e-05)
(0.000410645 -8.55584e-05 1.51497e-19 -0.000375077 1.74229e-19 -3.55683e-05)
(0.000412576 -8.53985e-05 -3.38469e-20 -0.000373655 -5.74578e-19 -3.89208e-05)
(0.00041437 -8.50549e-05 -2.73997e-19 -0.000371583 2.18103e-19 -4.27869e-05)
(0.000415619 -8.44952e-05 2.26766e-19 -0.000368831 7.15134e-19 -4.67884e-05)
(0.000415933 -8.35288e-05 2.66685e-20 -0.000364708 1.8098e-19 -5.12248e-05)
(0.000415142 -8.21379e-05 -1.77039e-19 -0.000359375 -1.61601e-19 -5.57668e-05)
(0.000412747 -8.01404e-05 3.29239e-19 -0.000352184 1.6134e-19 -6.05624e-05)
(0.000408596 -7.74428e-05 -9.30104e-20 -0.000343311 -3.07523e-19 -6.52844e-05)
(0.000402655 -7.40411e-05 1.74588e-19 -0.000332596 -2.74784e-19 -7.00596e-05)
(0.000394683 -6.9822e-05 2.80754e-19 -0.000320185 2.93418e-20 -7.44981e-05)
(0.000384536 -6.47771e-05 -6.74963e-20 -0.00030607 3.2508e-19 -7.84656e-05)
(0.000372553 -5.90099e-05 -2.07798e-19 -0.000290739 -1.33303e-19 -8.1814e-05)
(0.000358358 -5.25569e-05 -3.28198e-19 -0.000274131 -3.99484e-19 -8.42274e-05)
(0.000342136 -4.55324e-05 3.40281e-19 -0.000256664 3.51737e-19 -8.54721e-05)
(0.000324088 -3.82525e-05 -1.47539e-19 -0.000238563 1.76984e-21 -8.55243e-05)
(0.00030367 -3.08086e-05 2.53215e-20 -0.000219709 -2.6506e-20 -8.39615e-05)
(0.000280673 -2.34565e-05 -8.15431e-20 -0.000199908 -5.73778e-20 -8.0765e-05)
(0.000252618 -1.64573e-05 -5.87119e-20 -0.000177515 -5.80404e-20 -7.51024e-05)
(0.000216205 -9.86725e-06 3.63101e-19 -0.000150186 1.84827e-19 -6.60189e-05)
(0.000120928 -3.08016e-06 -4.35679e-20 -8.33028e-05 -2.05616e-20 -3.76256e-05)
(3.609e-05 -1.63532e-07 -3.59639e-20 -2.47028e-05 -1.86394e-20 -1.13872e-05)
(0 0 0 0 0 0)
(0 0 0 0 0 0)
(0 0 0 0 0 0)
(0 0 0 0 0 0)
(0 0 0 0 0 0)
(0 0 0 0 0 0)
(0 0 0 0 0 0)
(0 0 0 0 0 0)
(0 0 0 0 0 0)
(0 0 0 0 0 0)
(0 0 0 0 0 0)
(0.00039726 -0.000101472 1.70013e-19 -0.000380022 -1.3793e-19 -1.72379e-05)
(0.00039646 -0.000100947 2.81121e-19 -0.000377534 1.25602e-19 -1.89252e-05)
(0.00039635 -0.000100651 -1.56753e-19 -0.000375418 4.55448e-19 -2.09315e-05)
(0.000396602 -0.000100392 -2.811e-19 -0.000373641 -1.29963e-19 -2.29616e-05)
(0.000397426 -0.000100217 1.42463e-19 -0.00037203 -3.63189e-20 -2.53961e-05)
(0.000398501 -0.000100088 3.57314e-22 -0.000370651 2.03645e-19 -2.78493e-05)
(0.00040019 -9.99777e-05 2.91595e-19 -0.000369383 3.33168e-19 -3.08072e-05)
(0.000402179 -9.99284e-05 -5.8431e-19 -0.000368335 -2.67402e-19 -3.3844e-05)
(0.00040462 -9.98147e-05 1.08682e-19 -0.00036716 -5.99018e-19 -3.74597e-05)
(0.000407022 -9.96172e-05 3.32055e-20 -0.000365792 3.753e-19 -4.12305e-05)
(0.000409056 -9.91119e-05 7.44304e-22 -0.000363489 6.03504e-21 -4.55671e-05)
(0.000410206 -9.82054e-05 -1.7495e-19 -0.000360151 -1.64076e-19 -5.00557e-05)
(0.000410032 -9.66595e-05 2.91413e-19 -0.000355067 -1.86953e-20 -5.49651e-05)
(0.000408233 -9.44495e-05 9.99736e-20 -0.000348339 -1.65586e-19 -5.98939e-05)
(0.000404336 -9.1261e-05 3.45017e-19 -0.000339348 1.58525e-19 -6.4988e-05)
(0.000398398 -8.71973e-05 3.52814e-19 -0.000328556 1.63397e-19 -6.98416e-05)
(0.000390067 -8.20923e-05 -1.47404e-19 -0.000315579 -2.59913e-19 -7.44882e-05)
(0.000379094 -7.58952e-05 3.0435e-19 -0.000300808 2.61026e-19 -7.82858e-05)
(0.000365418 -6.87793e-05 -1.78415e-19 -0.000284134 4.54574e-20 -8.12847e-05)
(0.000349058 -6.08018e-05 1.97412e-19 -0.0002661 -7.71266e-20 -8.29575e-05)
(0.000329783 -5.22088e-05 -9.61842e-20 -0.000246692 -7.95092e-20 -8.30916e-05)
(0.000308255 -4.33904e-05 -1.69071e-26 -0.000226598 -1.16306e-26 -8.16565e-05)
(0.000284204 -3.46356e-05 3.06964e-19 -0.000205723 1.4907e-19 -7.8481e-05)
(0.000258101 -2.62564e-05 8.75931e-20 -0.000184446 5.04668e-20 -7.36548e-05)
(0.0002294 -1.8629e-05 -7.85152e-21 -0.000162188 3.28367e-22 -6.7212e-05)
(0.000195924 -1.17836e-05 -3.4378e-19 -0.000137388 -1.76661e-19 -5.85358e-05)
(0.000129219 -4.98957e-06 -3.98009e-22 -9.00969e-05 -2.04771e-22 -3.91224e-05)
(6.25542e-05 -1.07158e-06 8.2004e-20 -4.34348e-05 4.31828e-20 -1.91195e-05)
(5.74136e-06 2.72723e-08 3.15441e-23 -3.97419e-06 1.70267e-23 -1.76717e-06)
(0 0 0 0 0 0)
(0 0 0 0 0 0)
(0 0 0 0 0 0)
(0 0 0 0 0 0)
(0 0 0 0 0 0)
(0 0 0 0 0 0)
(0 0 0 0 0 0)
(0 0 0 0 0 0)
(0 0 0 0 0 0)
(0 0 0 0 0 0)
(0 0 0 0 0 0)
(0.000393084 -0.00011658 -1.46494e-19 -0.000375156 3.25959e-20 -1.79278e-05)
(0.000392096 -0.000115904 -2.95048e-19 -0.000372379 2.97093e-19 -1.97161e-05)
(0.000391677 -0.000115448 1.25915e-19 -0.000369809 5.72439e-19 -2.18683e-05)
(0.00039151 -0.000114985 -3.982e-23 -0.000367471 2.42876e-21 -2.40381e-05)
(0.000391962 -0.000114618 -1.40317e-19 -0.00036529 -5.6111e-19 -2.66719e-05)
(0.000392788 -0.000114332 2.79775e-19 -0.000363433 -2.71543e-19 -2.93553e-05)
(0.000394443 -0.000114103 1.62658e-19 -0.000361814 5.42734e-19 -3.26296e-05)
(0.00039647 -0.000113954 5.812e-19 -0.000360431 7.16812e-20 -3.60382e-05)
(0.000398811 -0.000113646 -3.39646e-19 -0.000358699 -5.04343e-19 -4.01119e-05)
(0.000400818 -0.000113114 -4.9526e-20 -0.000356454 -3.63571e-19 -4.43642e-05)
(0.000402009 -0.000112019 3.55221e-19 -0.000352793 3.13012e-19 -4.9216e-05)
(0.00040192 -0.000110277 2.30599e-19 -0.000347761 3.27603e-19 -5.41584e-05)
(0.000400157 -0.000107623 -5.23267e-20 -0.000340664 -1.58618e-19 -5.94933e-05)
(0.000396317 -0.000103949 -2.09878e-19 -0.000331618 -1.54008e-19 -6.46995e-05)
(0.000390091 -9.90456e-05 -2.90996e-19 -0.000320241 -2.73838e-20 -6.98502e-05)
(0.000381156 -9.29315e-05 1.42711e-19 -0.000306753 2.07987e-20 -7.4403e-05)
(0.000368941 -8.54328e-05 -9.71888e-20 -0.000290867 -1.12251e-19 -7.80747e-05)
(0.000353407 -7.67642e-05 7.20707e-20 -0.000273031 1.579e-19 -8.03755e-05)
(0.000334356 -6.71166e-05 3.66395e-19 -0.000253259 1.69946e-19 -8.10964e-05)
(0.000311894 -5.6875e-05 -4.49079e-19 -0.000232124 -2.62959e-19 -7.97701e-05)
(0.000286869 -4.6549e-05 1.15564e-19 -0.000210166 3.5434e-20 -7.67023e-05)
(0.000260039 -3.67135e-05 9.74778e-20 -0.000188112 5.38258e-20 -7.19267e-05)
(0.000232126 -2.76273e-05 8.98583e-20 -0.000166238 4.26761e-20 -6.5888e-05)
(0.000204115 -1.97948e-05 7.86646e-20 -0.000145111 2.90958e-20 -5.90037e-05)
(0.000174352 -1.30459e-05 2.00113e-19 -0.000123272 1.03804e-19 -5.10801e-05)
(0.000125359 -6.60983e-06 -1.37541e-19 -8.83696e-05 -6.1587e-20 -3.69894e-05)
(7.46444e-05 -2.30643e-06 -1.09727e-19 -5.25025e-05 -6.07576e-20 -2.21419e-05)
(2.7362e-05 -2.68156e-07 2.0166e-20 -1.92117e-05 1.19624e-20 -8.15025e-06)
(0 0 0 0 0 0)
(0 0 0 0 0 0)
(0 0 0 0 0 0)
(0 0 0 0 0 0)
(0 0 0 0 0 0)
(0 0 0 0 0 0)
(0 0 0 0 0 0)
(0 0 0 0 0 0)
(0 0 0 0 0 0)
(0 0 0 0 0 0)
(0 0 0 0 0 0)
(0 0 0 0 0 0)
(0.000389823 -0.00013198 -6.36669e-22 -0.000370963 2.7254e-21 -1.88604e-05)
(0.000388733 -0.00013114 -2.80369e-19 -0.000367925 -1.06048e-19 -2.08073e-05)
(0.00038797 -0.000130456 1.42461e-19 -0.000364807 -4.63963e-20 -2.31633e-05)
(0.000387384 -0.000129717 5.65923e-19 -0.00036185 2.42325e-20 -2.55343e-05)
(0.000387623 -0.000129128 -2.88796e-19 -0.00035916 -3.11918e-19 -2.84628e-05)
(0.00038838 -0.000128675 -1.48916e-19 -0.000356893 -1.56645e-19 -3.14869e-05)
(0.000390003 -0.00012826 -4.26712e-19 -0.000354781 1.02942e-19 -3.52223e-05)
(0.000391653 -0.000127804 4.48331e-19 -0.000352528 9.15262e-20 -3.91254e-05)
(0.000393054 -0.000126905 2.7809e-20 -0.000349304 1.81283e-19 -4.37508e-05)
(0.000393508 -0.000125491 -2.18797e-19 -0.000344992 -3.25339e-19 -4.85166e-05)
(0.000392654 -0.000123173 -4.86023e-19 -0.00033879 -1.31518e-19 -5.38639e-05)
(0.000390191 -0.000119909 -8.81464e-20 -0.000330992 1.52328e-19 -5.91993e-05)
(0.000385592 -0.000115377 -1.47429e-19 -0.000320833 2.69721e-19 -6.47586e-05)
(0.000378521 -0.000109466 -5.85518e-20 -0.000308676 1.13807e-19 -6.98451e-05)
(0.000368241 -0.000101997 -3.84594e-19 -0.000293888 -1.66458e-19 -7.43534e-05)
(0.000354052 -9.28782e-05 -2.49617e-19 -0.000276609 -1.36775e-19 -7.74426e-05)
(0.000335323 -8.22703e-05 -1.32776e-19 -0.000256594 -4.23508e-20 -7.87286e-05)
(0.000312679 -7.06877e-05 -2.50639e-19 -0.000234815 -9.63058e-20 -7.78639e-05)
(0.000286447 -5.86944e-05 3.47139e-19 -0.000211609 1.61991e-19 -7.48389e-05)
(0.000257919 -4.70788e-05 -2.17726e-19 -0.000188117 -9.9356e-20 -6.98021e-05)
(0.000229311 -3.64934e-05 -2.84439e-19 -0.000165569 -1.38652e-19 -6.37413e-05)
(0.000201489 -2.73556e-05 9.4676e-20 -0.00014454 2.3918e-20 -5.69492e-05)
(0.000175719 -1.97758e-05 1.44912e-19 -0.000125496 6.91776e-20 -5.02235e-05)
(0.000150733 -1.35639e-05 -1.21329e-19 -0.000107379 -5.91048e-20 -4.3354e-05)
(0.000111917 -7.56192e-06 1.2905e-19 -7.96551e-05 7.8906e-20 -3.22619e-05)
(7.53248e-05 -3.4633e-06 5.75762e-20 -5.35918e-05 2.34432e-20 -2.1733e-05)
(3.94555e-05 -9.90234e-07 -4.34329e-20 -2.80528e-05 -2.14206e-20 -1.14027e-05)
(8.19916e-06 -3.59589e-08 2.80991e-21 -5.82891e-06 1.24628e-21 -2.37025e-06)
(0 0 0 0 0 0)
(0 0 0 0 0 0)
(0 0 0 0 0 0)
(0 0 0 0 0 0)
(0 0 0 0 0 0)
(0 0 0 0 0 0)
(0 0 0 0 0 0)
(0 0 0 0 0 0)
(0 0 0 0 0 0)
(0 0 0 0 0 0)
(0 0 0 0 0 0)
(0 0 0 0 0 0)
(0.000386951 -0.000147629 -5.11751e-20 -0.000366893 2.18825e-19 -2.00575e-05)
(0.000385674 -0.000146519 1.43471e-19 -0.000363465 -5.30212e-20 -2.22084e-05)
(0.000384596 -0.000145538 1.4452e-19 -0.00035976 -6.66819e-19 -2.48358e-05)
(0.000383905 -0.000144549 1.51962e-19 -0.000356389 5.47962e-19 -2.75164e-05)
(0.000384378 -0.000143827 1.68933e-20 -0.000353474 3.94174e-19 -3.09044e-05)
(0.000385233 -0.00014322 -2.85701e-19 -0.000350796 7.85893e-20 -3.44369e-05)
(0.000386534 -0.000142426 -1.65734e-19 -0.00034772 -1.48251e-19 -3.88144e-05)
(0.000387039 -0.000141229 -2.07993e-19 -0.000343712 -3.30721e-19 -4.33268e-05)
(0.000386544 -0.000139139 3.34561e-19 -0.000337946 1.29988e-19 -4.85979e-05)
(0.000384569 -0.000136163 5.51092e-20 -0.000330652 1.60079e-19 -5.39175e-05)
(0.000380819 -0.000131874 1.40143e-19 -0.000321101 2.99478e-19 -5.9718e-05)
(0.000374972 -0.000126243 -2.08258e-19 -0.00030975 1.18668e-19 -6.52218e-05)
(0.00036594 -0.000118768 -9.74323e-20 -0.000295527 -1.17391e-19 -7.0413e-05)
(0.000352914 -0.000109357 3.06701e-20 -0.000278662 -7.18694e-20 -7.42518e-05)
(0.000334847 -9.79225e-05 1.38342e-19 -0.000258487 4.20377e-20 -7.63597e-05)
(0.00031174 -8.48989e-05 -2.56361e-19 -0.000235805 -1.21342e-19 -7.59354e-05)
(0.000283569 -7.09142e-05 -1.19421e-19 -0.000210701 -5.25709e-20 -7.2868e-05)
(0.000252669 -5.71835e-05 -2.23365e-19 -0.000185181 -9.97956e-20 -6.74873e-05)
(0.000221401 -4.46027e-05 -1.07195e-19 -0.00016061 -3.85128e-20 -6.07919e-05)
(0.000191744 -3.38821e-05 9.15484e-20 -0.000138237 3.06683e-20 -5.35069e-05)
(0.000165629 -2.52383e-05 -1.35866e-19 -0.000118981 -8.1603e-20 -4.66483e-05)
(0.000143752 -1.84869e-05 -7.92702e-21 -0.000103133 1.45697e-20 -4.06189e-05)
(0.000118813 -1.25746e-05 5.28673e-20 -8.52281e-05 1.75514e-20 -3.3585e-05)
(8.94677e-05 -7.48978e-06 3.56516e-20 -6.42309e-05 2.2798e-20 -2.52368e-05)
(6.3268e-05 -3.94455e-06 -7.80716e-27 -4.5449e-05 -2.91124e-27 -1.78191e-05)
(3.68236e-05 -1.5473e-06 4.30139e-20 -2.64649e-05 2.41631e-20 -1.03587e-05)
(1.29631e-05 -2.84494e-07 4.09825e-23 -9.32028e-06 1.34844e-21 -3.64285e-06)
(0 0 0 0 0 0)
(0 0 0 0 0 0)
(0 0 0 0 0 0)
(0 0 0 0 0 0)
(0 0 0 0 0 0)
(0 0 0 0 0 0)
(0 0 0 0 0 0)
(0 0 0 0 0 0)
(0 0 0 0 0 0)
(0 0 0 0 0 0)
(0 0 0 0 0 0)
(0 0 0 0 0 0)
(0 0 0 0 0 0)
(0.000383371 -0.000163115 -1.23331e-19 -0.000361801 -6.30091e-20 -2.15696e-05)
(0.000381848 -0.000161606 -1.43024e-19 -0.000357863 -3.63568e-19 -2.39848e-05)
(0.000380952 -0.000160461 -1.30993e-27 -0.000353941 -6.08442e-26 -2.70104e-05)
(0.000380903 -0.000159489 -1.23476e-19 -0.000350726 4.49712e-19 -3.01776e-05)
(0.000382101 -0.000158807 3.06102e-19 -0.000347836 1.05621e-19 -3.42655e-05)
(0.000382938 -0.000157928 -1.45456e-19 -0.000344417 3.86346e-20 -3.85214e-05)
(0.000383297 -0.000156313 2.57416e-19 -0.000339567 -2.38358e-19 -4.37298e-05)
(0.000382074 -0.000153804 -3.96181e-19 -0.000333076 -2.95283e-19 -4.89975e-05)
(0.000379304 -0.0001499 -7.31563e-22 -0.000324262 -1.76834e-21 -5.50416e-05)
(0.000374522 -0.000144634 -3.0133e-19 -0.000313617 -4.37162e-21 -6.0905e-05)
(0.000366851 -0.000137337 2.47397e-19 -0.0003 1.39144e-19 -6.68518e-05)
(0.000355046 -0.00012778 4.11839e-19 -0.000283464 1.6472e-19 -7.15826e-05)
(0.000337486 -0.000115478 1.25679e-20 -0.000262827 -5.38153e-20 -7.46586e-05)
(0.000313184 -0.000100638 1.34585e-19 -0.000238437 4.81682e-20 -7.47467e-05)
(0.00028211 -8.40718e-05 3.81388e-19 -0.000210482 1.65085e-19 -7.16285e-05)
(0.000247269 -6.74119e-05 3.44596e-19 -0.000181703 1.5331e-19 -6.55658e-05)
(0.000211465 -5.20574e-05 -9.23237e-20 -0.000153696 -5.07613e-20 -5.77694e-05)
(0.000177441 -3.90249e-05 -1.66869e-20 -0.0001282 1.89828e-20 -4.92401e-05)
(0.000148023 -2.87075e-05 7.94407e-22 -0.000106621 2.14174e-22 -4.14016e-05)
(0.000124691 -2.10658e-05 -1.06447e-19 -8.97774e-05 -6.74238e-20 -3.49138e-05)
(9.82673e-05 -1.42777e-05 -5.65686e-20 -7.08168e-05 -3.09493e-22 -2.74505e-05)
(7.525e-05 -9.2356e-06 -3.16929e-20 -5.4325e-05 -2.06319e-20 -2.0925e-05)
(5.59309e-05 -5.66067e-06 3.06785e-21 -4.04396e-05 -7.3759e-21 -1.54913e-05)
(3.84829e-05 -3.11016e-06 -1.60325e-21 -2.78677e-05 5.00509e-21 -1.06153e-05)
(2.05239e-05 -1.24775e-06 -1.68122e-20 -1.48785e-05 -8.40035e-21 -5.64538e-06)
(5.71851e-06 -2.34795e-07 8.96602e-21 -4.15102e-06 5.38101e-21 -1.56749e-06)
(0 0 0 0 0 0)
(0 0 0 0 0 0)
(0 0 0 0 0 0)
(0 0 0 0 0 0)
(0 0 0 0 0 0)
(0 0 0 0 0 0)
(0 0 0 0 0 0)
(0 0 0 0 0 0)
(0 0 0 0 0 0)
(0 0 0 0 0 0)
(0 0 0 0 0 0)
(0 0 0 0 0 0)
(0 0 0 0 0 0)
(0 0 0 0 0 0)
(0.000377537 -0.000177584 1.03954e-19 -0.000354156 1.72068e-19 -2.33809e-05)
(0.000376643 -0.000175984 -5.37805e-21 -0.000350433 -2.01335e-19 -2.62097e-05)
(0.000377537 -0.000175432 -3.27252e-19 -0.000347599 -4.97614e-19 -2.99373e-05)
(0.000379142 -0.000174992 1.66525e-19 -0.000345237 1.46125e-19 -3.39045e-05)
(0.000381327 -0.00017443 2.10399e-19 -0.000342265 3.34583e-19 -3.90612e-05)
(0.000381796 -0.000172918 1.50821e-19 -0.000337503 -3.10239e-20 -4.42931e-05)
(0.000380992 -0.000169942 3.05571e-19 -0.000330373 -4.24029e-20 -5.06193e-05)
(0.000378097 -0.000165533 8.85736e-22 -0.000321233 1.75958e-21 -5.68633e-05)
(0.000372738 -0.000158955 -5.7813e-20 -0.000309036 1.32207e-19 -6.3702e-05)
(0.000363102 -0.000149723 -1.53667e-19 -0.00029356 -1.93728e-20 -6.95428e-05)
(0.000346671 -0.000136808 -4.22902e-19 -0.000272726 -2.32581e-19 -7.39451e-05)
(0.000321576 -0.000120043 2.89974e-19 -0.000246643 1.25845e-19 -7.49329e-05)
(0.000287853 -0.000100414 1.59143e-21 -0.000215692 6.32685e-22 -7.21607e-05)
(0.000246333 -7.93126e-05 -3.87043e-19 -0.000181365 -1.41663e-19 -6.49685e-05)
(0.000199444 -5.85478e-05 -3.02468e-19 -0.00014499 -1.32764e-19 -5.44544e-05)
(0.000156577 -4.14908e-05 2.54718e-19 -0.000113119 8.49824e-20 -4.3458e-05)
(0.000122371 -2.90257e-05 1.27523e-19 -8.8167e-05 5.05429e-20 -3.42038e-05)
(8.74172e-05 -1.84773e-05 -1.0029e-19 -6.30291e-05 -2.18053e-20 -2.43881e-05)
(5.95673e-05 -1.11489e-05 3.90205e-20 -4.30256e-05 -2.76065e-21 -1.65417e-05)
(4.20363e-05 -6.897e-06 -3.65282e-20 -3.04397e-05 -2.44614e-20 -1.15966e-05)
(2.88525e-05 -4.09871e-06 -2.72568e-20 -2.09397e-05 -1.20359e-20 -7.91277e-06)
(1.72911e-05 -2.09368e-06 -5.99381e-21 -1.25764e-05 -7.70342e-21 -4.71466e-06)
(5.8019e-06 -5.85224e-07 -2.71434e-21 -4.22688e-06 -7.461e-22 -1.57503e-06)
(0 0 0 0 0 0)
(0 0 0 0 0 0)
(0 0 0 0 0 0)
(0 0 0 0 0 0)
(0 0 0 0 0 0)
(0 0 0 0 0 0)
(0 0 0 0 0 0)
(0 0 0 0 0 0)
(0 0 0 0 0 0)
(0 0 0 0 0 0)
(0 0 0 0 0 0)
(0 0 0 0 0 0)
(0 0 0 0 0 0)
(0 0 0 0 0 0)
(0 0 0 0 0 0)
(0 0 0 0 0 0)
(0 0 0 0 0 0)
(0.000370832 -0.00019148 5.14877e-23 -0.00034514 6.89927e-23 -2.56924e-05)
(0.000373016 -0.000191129 3.06618e-19 -0.000343699 8.28213e-20 -2.93167e-05)
(0.000377943 -0.00019245 -3.23463e-19 -0.000343641 -9.08628e-20 -3.43015e-05)
(0.000381502 -0.000192703 -1.8997e-19 -0.000341993 -1.48081e-19 -3.95096e-05)
(0.000384136 -0.000191676 5.32182e-20 -0.000337989 1.81e-19 -4.61469e-05)
(0.000383765 -0.000188648 2.46898e-19 -0.000331083 -2.09148e-19 -5.26821e-05)
(0.000381012 -0.000183114 -3.27497e-19 -0.00032066 5.95783e-21 -6.03527e-05)
(0.000373964 -0.00017466 2.82129e-19 -0.000306718 1.4368e-19 -6.72454e-05)
(0.000359749 -0.000161672 1.41577e-19 -0.000286431 1.08283e-19 -7.33182e-05)
(0.000335568 -0.000143585 3.12981e-19 -0.000259736 9.52062e-20 -7.58321e-05)
(0.000297621 -0.000119804 -3.04503e-19 -0.000224143 -1.18628e-19 -7.34777e-05)
(0.000245383 -9.18247e-05 -2.39889e-19 -0.000180987 -1.17807e-19 -6.43966e-05)