/*--------------------------------*- C++ -*----------------------------------*\
| =========                 |                                                 |
| \\      /  F ield         | OpenFOAM: The Open Source CFD Toolbox           |
|  \\    /   O peration     | Version:  v2012                                 |
|   \\  /    A nd           | Website:  www.openfoam.com                      |
|    \\/     M anipulation  |                                                 |
\*---------------------------------------------------------------------------*/
FoamFile
{
    version     2.0;
    format      ascii;
    class       volSymmTensorField;
    location    "9";
    object      epsilon;
}
// * * * * * * * * * * * * * * * * * * * * * * * * * * * * * * * * * * * * * //

dimensions      [0 0 0 0 0 0 0];


internalField   nonuniform List<symmTensor> 
16000
(
(0.00999705 -0.000173066 1.06135e-20 -0.00760437 4.22298e-18 1.87509e-32)
(0.00981517 -0.000168416 3.43266e-18 -0.00737663 4.07988e-18 0)
(0.00963224 -0.000164224 -2.97015e-20 -0.00713139 -3.95975e-18 0)
(0.00944905 -0.000159702 6.33665e-18 -0.00690416 -7.69033e-18 0)
(0.00926642 -0.000155416 -3.10088e-18 -0.00666259 9.46719e-21 0)
(0.00908212 -0.000151074 -2.58062e-26 -0.00643552 1.90637e-24 0)
(0.00889772 -0.00014658 -2.98563e-18 -0.00619602 -6.87567e-18 0)
(0.00871221 -0.000142245 8.25833e-20 -0.00596895 6.62829e-18 0)
(0.00852532 -0.00013788 -2.67993e-18 -0.00573091 3.18193e-18 0)
(0.0083365 -0.000133317 -5.31474e-18 -0.00550207 -3.0595e-18 0)
(0.00814697 -0.000128429 -2.49671e-18 -0.00526561 2.91887e-18 0)
(0.00795605 -0.000123914 2.45895e-18 -0.00503659 7.02486e-21 0)
(0.00776357 -0.000119392 -3.25148e-26 -0.00480141 -5.61377e-25 0)
(0.00756865 -0.000114574 1.16589e-19 -0.00457117 5.07561e-18 0)
(0.00737117 -0.000109251 6.55692e-18 -0.00433566 -2.36298e-18 0)
(0.00717342 -0.000104555 -1.29509e-19 -0.00410598 -4.55884e-18 0)
(0.00697075 -9.9489e-05 6.91688e-20 -0.00387052 2.14862e-18 0)
(0.00676449 -9.34227e-05 -6.30358e-27 -0.00363702 3.62956e-25 0)
(0.00655905 -8.81566e-05 -3.20751e-26 -0.00340479 -3.29802e-25 0)
(0.00634573 -8.23023e-05 -3.52717e-18 -0.00317001 1.69958e-18 0)
(0.00613117 -7.55758e-05 -8.32328e-20 -0.00293619 -1.62961e-18 0)
(0.00591623 -6.95832e-05 -1.82619e-18 -0.00270736 -3.04165e-18 0)
(0.00569368 -6.21718e-05 -1.57141e-18 -0.00247428 -3.98584e-20 0)
(0.00547513 -5.5023e-05 -1.40247e-18 -0.00225136 1.20616e-18 0)
(0.00525351 -4.79783e-05 9.81782e-20 -0.0020301 1.12622e-18 0)
(0.0050315 -3.95012e-05 1.25148e-18 -0.00181441 -9.57565e-19 0)
(0.00481727 -3.1496e-05 -2.55961e-18 -0.00161259 -1.03677e-19 0)
(0.00459996 -2.37649e-05 1.40937e-18 -0.00141297 1.62052e-18 0)
(0.00439325 -1.58961e-05 2.19334e-18 -0.0012292 -5.7078e-19 0)
(0.00419072 -8.24799e-06 -2.26212e-18 -0.00105403 -6.96967e-19 0)
(0.00400035 2.98871e-06 0 -0.000908449 0 0)
(0.00383648 1.55091e-05 -7.39853e-20 -0.000834093 -4.61917e-19 0)
(0.00369406 2.51127e-05 -9.28942e-19 -0.000787489 -5.41122e-20 0)
(0.00356935 3.24978e-05 -8.35437e-19 -0.000747692 3.61099e-19 0)
(0.00345871 3.77432e-05 -8.54465e-19 -0.00071891 -5.15016e-20 0)
(0.00335949 4.1816e-05 -1.68688e-18 -0.000696283 -4.85778e-19 0)
(0.00327028 4.47203e-05 -1.58795e-18 -0.00067966 -9.76194e-20 0)
(0.00318835 4.69681e-05 9.85665e-20 -0.000667264 1.10821e-18 0)
(0.00311407 4.84724e-05 7.13521e-19 -0.000658688 -3.18382e-19 0)
(0.00304412 4.97262e-05 -8.0133e-19 -0.000652597 -1.129e-18 0)
(0.00996468 -0.000517661 -3.48643e-18 -0.00757219 2.21136e-18 4.65043e-33)
(0.00978159 -0.00050378 1.02715e-17 -0.00734349 3.74081e-18 0)
(0.0095979 -0.000490963 3.11402e-18 -0.00709742 -7.98318e-18 0)
(0.00941472 -0.000477817 -9.75152e-20 -0.00687032 -3.91216e-18 0)
(0.00923059 -0.000464494 -2.88682e-18 -0.00662723 7.48517e-18 0)
(0.00904555 -0.000451477 5.15918e-26 -0.00639957 9.48144e-25 0)
(0.00886042 -0.000437967 -2.30849e-19 -0.00615934 -6.80936e-18 0)
(0.00867314 -0.00042464 -2.559e-18 -0.00593073 6.6386e-18 0)
(0.00848652 -0.000411602 5.82844e-18 -0.00569302 9.45835e-18 0)
(0.00829747 -0.000398199 -5.38792e-18 -0.00546414 -2.91592e-18 0)
(0.00810696 -0.000384147 -2.95147e-19 -0.00522681 -5.77722e-18 0)
(0.00791389 -0.00036988 4.74103e-18 -0.00499606 -2.82355e-18 0)
(0.00771988 -0.000355696 -2.19832e-18 -0.00475952 2.64354e-18 0)
(0.00752366 -0.000341801 2.10338e-18 -0.00452834 -2.50495e-18 0)
(0.00732417 -0.000325718 8.59337e-18 -0.00429135 -2.3793e-18 0)
(0.00712167 -0.000310269 1.95328e-19 -0.00405735 2.2524e-18 0)
(0.0069177 -0.00029564 2.08652e-19 -0.0038214 2.12069e-18 0)
(0.00670936 -0.000277544 3.90163e-18 -0.00358652 1.0227e-19 0)
(0.00649645 -0.000260155 2.33012e-18 -0.00334789 3.77497e-18 0)
(0.00628381 -0.000243602 3.83176e-18 -0.00311536 1.90936e-18 0)
(0.0060645 -0.000222301 -5.06234e-19 -0.00287794 -3.18773e-18 0)
(0.00584448 -0.000203338 -2.63324e-19 -0.00264619 -1.44995e-18 0)
(0.00562468 -0.000182556 -1.55479e-18 -0.00241796 -9.57397e-20 0)
(0.00539973 -0.000159102 1.48381e-18 -0.00219075 1.3078e-19 0)
(0.00518164 -0.000137414 -2.92167e-19 -0.00197576 -1.08974e-18 0)
(0.00496204 -0.000112916 1.62674e-18 -0.00176442 1.10146e-18 0)
(0.00474724 -8.93178e-05 -2.52709e-18 -0.001565 -2.78918e-19 0)
(0.00453994 -6.76358e-05 -5.96498e-19 -0.00137655 -1.51728e-18 0)
(0.00433622 -4.33095e-05 1.71012e-18 -0.00119826 1.45831e-18 0)
(0.00414846 -1.98839e-05 2.86366e-19 -0.00103988 5.7776e-19 0)
(0.00397105 1.24555e-05 -2.54777e-18 -0.000912319 -1.31685e-18 0)
(0.00381974 4.85609e-05 0 -0.000847471 0 0)
(0.00368654 7.53279e-05 -7.44198e-19 -0.000806455 2.85261e-19 0)
(0.00356758 9.60994e-05 1.05261e-18 -0.00076868 5.73664e-19 0)
(0.00346153 0.000111076 -7.16807e-19 -0.000741756 2.56515e-19 0)
(0.00336518 0.000123 -8.24079e-19 -0.000719537 -1.38683e-19 0)
(0.00327812 0.000131319 -1.01469e-18 -0.000703013 -8.97095e-19 0)
(0.00319761 0.00013817 -7.71382e-19 -0.000690303 -1.38005e-19 0)
(0.00312425 0.000142498 2.24088e-18 -0.00068106 4.0018e-19 0)
(0.00305492 0.000146475 -1.25772e-18 -0.000674358 3.60671e-19 0)
(0.00990157 -0.000858542 -3.54745e-18 -0.00750946 -3.98705e-18 1.8398e-32)
(0.00971551 -0.000835072 3.23675e-18 -0.00727827 -4.33841e-18 0)
(0.0095294 -0.000813001 2.97309e-19 -0.0070297 7.79645e-18 0)
(0.00934424 -0.000791079 -3.16954e-18 -0.00680085 2.37541e-19 0)
(0.00915904 -0.000768878 -3.60497e-26 -0.00655671 -1.02619e-24 0)
(0.00897342 -0.000746972 2.79406e-18 -0.00632862 -3.64416e-18 0)
(0.00878679 -0.00072433 2.68437e-18 -0.00608701 -3.53209e-18 0)
(0.00859807 -0.000701831 -5.57475e-18 -0.00585717 2.05769e-19 0)
(0.00840896 -0.000678699 5.82743e-18 -0.00561725 6.01554e-18 0)
(0.00821809 -0.000656555 5.44897e-18 -0.00538691 2.89424e-18 0)
(0.00802549 -0.000633405 -5.78835e-18 -0.00514777 -8.55499e-18 0)
(0.00783006 -0.000609601 -2.16954e-18 -0.00491527 2.72624e-18 0)
(0.00763143 -0.000584532 -2.06225e-18 -0.00467482 2.63272e-18 0)
(0.00743052 -0.000560332 -8.91868e-19 -0.00443969 -7.42958e-18 0)
(0.00722736 -0.00053499 -2.17814e-18 -0.0042 -5.43533e-20 0)
(0.00701799 -0.00050725 6.61944e-19 -0.00396065 4.39613e-18 0)
(0.00680725 -0.00047998 -2.35807e-18 -0.00371913 -2.12803e-18 0)
(0.00659339 -0.000452014 1.54656e-18 -0.003481 -1.88182e-18 0)
(0.00637345 -0.000420306 -1.84736e-18 -0.00323753 -1.23039e-19 0)
(0.00615302 -0.00038975 6.09295e-18 -0.00299991 3.62032e-18 0)
(0.00593082 -0.000356888 4.30582e-19 -0.00276341 1.52259e-18 0)
(0.00570389 -0.000321101 1.15351e-18 -0.00252775 -1.23877e-18 0)
(0.00548228 -0.000286762 2.59103e-18 -0.00230279 -8.9413e-19 0)
(0.00525903 -0.000248528 1.44287e-18 -0.00208069 1.79877e-19 0)
(0.00503943 -0.000210208 4.82606e-19 -0.00186942 1.01755e-18 0)
(0.0048291 -0.000172565 -8.21119e-19 -0.00167132 6.72478e-19 0)
(0.00461955 -0.00013319 4.85323e-19 -0.00148113 7.98481e-19 0)
(0.00442785 -9.68359e-05 -1.65675e-18 -0.00131179 -9.51238e-19 0)
(0.00424095 -5.83177e-05 -3.82063e-18 -0.00115335 -1.39031e-18 0)
(0.00407479 -1.81278e-05 4.07559e-18 -0.00102128 1.86213e-18 0)
(0.0039234 3.04959e-05 7.23484e-21 -0.00092678 8.82038e-21 0)
(0.00379244 8.38531e-05 1.26278e-18 -0.000876479 -4.0289e-19 0)
(0.0036735 0.000124043 1.56919e-18 -0.000841591 6.65372e-20 0)
(0.00356514 0.000154536 2.52954e-19 -0.000808821 4.15183e-19 0)
(0.00346661 0.000178218 4.53253e-19 -0.000784266 8.18746e-19 0)
(0.00337572 0.000196441 6.29943e-19 -0.000763179 -1.65481e-19 0)
(0.00329249 0.000210161 8.03063e-19 -0.000746784 2.26859e-19 0)
(0.0032147 0.000221089 6.18392e-19 -0.000733553 -1.54677e-19 0)
(0.00314313 0.000228637 7.52038e-19 -0.000723265 2.12625e-19 0)
(0.00307501 0.000235258 7.20091e-19 -0.000715388 1.77182e-18 0)
(0.00980766 -0.00119267 -4.89013e-20 -0.00741611 -2.08308e-18 4.62131e-33)
(0.00961822 -0.00115917 -6.70594e-18 -0.00718223 5.54513e-19 0)
(0.00942805 -0.00112796 2.58833e-21 -0.00692943 4.70827e-20 0)
(0.00923896 -0.00109629 -3.37567e-18 -0.0066972 -3.58836e-18 0)
(0.00905132 -0.00106456 -3.04698e-18 -0.0064506 1.87486e-19 0)
(0.00886307 -0.00103371 -2.61126e-19 -0.00622032 -3.52355e-18 0)
(0.00867448 -0.00100209 2.76057e-19 -0.00597683 3.34481e-18 0)
(0.00848447 -0.000970597 -2.46383e-18 -0.00574614 3.37106e-18 0)
(0.00829235 -0.000937495 -2.97862e-18 -0.0055035 -2.94386e-18 0)
(0.00809704 -0.000904711 6.14724e-18 -0.0052694 8.61453e-18 0)
(0.00790053 -0.000870869 2.85452e-18 -0.00502701 2.84725e-18 0)
(0.00769997 -0.000837423 -5.54628e-18 -0.00479011 -5.22821e-18 0)
(0.0074962 -0.000801876 2.31384e-18 -0.0045457 -2.94019e-21 0)
(0.00728772 -0.000765195 1.80894e-18 -0.00430439 -2.34649e-18 0)
(0.00707573 -0.00072786 -6.86189e-18 -0.0040575 -2.34945e-18 0)
(0.00685902 -0.000688947 -1.57954e-18 -0.00381291 2.03873e-18 0)
(0.0066371 -0.000647674 -3.93468e-18 -0.00356304 -1.83624e-19 0)
(0.00641324 -0.000605439 -3.76625e-18 -0.00331782 -2.41771e-19 0)
(0.00618545 -0.000561148 -1.79096e-18 -0.00307069 -1.24622e-19 0)
(0.0059548 -0.000514523 5.88736e-21 -0.00282697 1.55668e-20 0)
(0.00572679 -0.000466993 1.6392e-18 -0.00258985 2.15536e-19 0)
(0.00549805 -0.000416944 -3.41261e-19 -0.00235834 -3.59675e-18 0)
(0.00527345 -0.000365996 2.95413e-18 -0.00213565 5.1333e-19 0)
(0.00505708 -0.000314261 -1.48444e-18 -0.00192817 1.49175e-18 0)
(0.004845 -0.000261701 -6.69738e-19 -0.00172891 6.06977e-19 0)
(0.00464663 -0.000209497 -1.87063e-18 -0.00155049 1.65269e-19 0)
(0.00445906 -0.000157777 0 -0.00138535 0 0)
(0.00428359 -0.000107323 1.79843e-18 -0.00123852 9.90487e-19 0)
(0.00412801 -5.62105e-05 -1.2393e-19 -0.00111261 -7.66443e-19 0)
(0.00398568 -2.84456e-06 -2.21351e-18 -0.00101132 -1.38302e-18 0)
(0.0038684 5.86501e-05 2.5055e-18 -0.000953269 5.79875e-19 0)
(0.00376019 0.000120989 -9.01128e-19 -0.000920887 -9.28632e-19 0)
(0.00365831 0.000168853 2.32043e-19 -0.00089084 9.81609e-19 0)
(0.00356246 0.000206392 1.04023e-18 -0.000864741 1.29791e-18 0)
(0.00347328 0.000235864 1.7407e-18 -0.000841953 6.5484e-19 0)
(0.00338924 0.000259523 -2.73305e-19 -0.000822724 -4.0816e-19 0)
(0.00331098 0.000277479 -4.92612e-19 -0.000805973 -7.99154e-19 0)
(0.00323697 0.000292423 -3.78826e-21 -0.000792538 -6.68635e-21 0)
(0.00316784 0.000302961 2.05264e-19 -0.000780649 3.90193e-19 0)
(0.00310167 0.000312486 7.40224e-19 -0.000771664 2.88146e-19 0)
(0.00968378 -0.00151748 3.43197e-18 -0.00729308 -3.27597e-19 -2.96885e-37)
(0.00949121 -0.00147402 -3.58238e-18 -0.00705684 -3.61058e-18 0)
(0.00929749 -0.00143331 6.70973e-18 -0.00680031 3.19987e-18 0)
(0.00910488 -0.00139184 3.04751e-19 -0.0065651 3.7895e-18 0)
(0.0089125 -0.00134989 -3.32509e-18 -0.00631387 -3.27645e-18 0)
(0.00871819 -0.00130864 2.24442e-18 -0.00607812 -7.01302e-18 0)
(0.0085251 -0.00126627 -5.63608e-18 -0.00583043 3.60739e-19 0)
(0.00832947 -0.00122454 8.55361e-18 -0.00559481 2.69169e-18 0)
(0.00813205 -0.00118164 -3.03939e-18 -0.00534744 -2.88119e-18 0)
(0.00793153 -0.00113842 2.10443e-18 -0.00510905 -2.95304e-18 0)
(0.00772743 -0.00109311 1.26882e-17 -0.00486016 2.31146e-18 0)
(0.00751943 -0.00104737 2.85284e-18 -0.00461715 2.55435e-18 0)
(0.00730693 -0.000999505 -3.32578e-18 -0.00436556 -4.9022e-18 0)
(0.00708817 -0.000950512 5.46904e-19 -0.00411614 2.24003e-18 0)
(0.00686392 -0.000899194 -8.98921e-19 -0.00385957 4.224e-18 0)
(0.00663594 -0.000845865 -3.37366e-18 -0.003607 1.78319e-18 0)
(0.00640335 -0.000789959 3.84284e-18 -0.00335036 3.23899e-19 0)
(0.00616648 -0.000732116 -1.39917e-18 -0.00309704 -3.37315e-18 0)
(0.0059297 -0.000672236 2.00759e-18 -0.00284636 -2.65774e-18 0)
(0.00569398 -0.000609736 -4.99675e-18 -0.00260431 -8.06557e-19 0)
(0.0054599 -0.000545857 4.73736e-18 -0.00236788 8.85425e-19 0)
(0.0052346 -0.000481127 -1.46095e-19 -0.00214769 -1.95773e-18 0)
(0.00501614 -0.000415035 -4.04692e-18 -0.00193901 5.87305e-19 0)
(0.00480969 -0.000349701 2.54021e-18 -0.00174879 2.72573e-18 0)
(0.00461851 -0.000284458 -4.44232e-19 -0.00157787 4.04365e-19 0)
(0.00444018 -0.000220955 2.4759e-18 -0.00142532 8.57362e-19 0)
(0.00428108 -0.000159581 7.34379e-19 -0.00129321 -4.05587e-19 0)
(0.00413564 -9.99872e-05 -1.56995e-18 -0.00118078 -1.1565e-18 0)
(0.00401384 -3.92645e-05 3.96982e-18 -0.00109046 1.84696e-18 0)
(0.00390316 2.41719e-05 -1.03041e-18 -0.00102415 -4.34377e-19 0)
(0.0038138 9.26337e-05 -6.11027e-19 -0.000994094 -4.74697e-19 0)
(0.00372955 0.0001562 1.00349e-19 -0.000976503 5.01723e-19 0)
(0.00364312 0.000206818 -4.22068e-18 -0.000951388 -2.12162e-18 0)
(0.0035605 0.000248003 -8.49776e-19 -0.000930795 -8.83006e-19 0)
(0.00348081 0.000281854 7.48613e-19 -0.000910172 8.46804e-19 0)
(0.00340418 0.000309302 3.40153e-19 -0.000892235 4.18175e-19 0)
(0.00333156 0.000331354 8.24929e-19 -0.000875583 3.86893e-19 0)
(0.00326177 0.000349729 -1.07581e-18 -0.000861577 -7.74859e-19 0)
(0.00319579 0.000363559 5.16316e-19 -0.000848422 -2.974e-20 0)
(0.00313191 0.000375973 2.37011e-19 -0.000838037 3.91991e-19 0)
(0.00953104 -0.00183104 3.49244e-18 -0.00714148 1.61925e-18 4.38237e-33)
(0.00933276 -0.00177665 6.23024e-18 -0.0069004 -4.69892e-18 0)
(0.00913364 -0.00172512 -3.53123e-18 -0.00663837 -3.46623e-18 0)
(0.00893573 -0.00167325 3.80675e-18 -0.00639858 6.86183e-18 0)
(0.00873762 -0.00162086 2.57164e-18 -0.00614179 -3.76566e-18 0)
(0.00853791 -0.00156881 -9.87467e-21 -0.00590141 -7.82137e-20 0)
(0.00833759 -0.00151488 -5.98337e-18 -0.005647 -2.70341e-18 0)
(0.00813411 -0.00146181 -5.36952e-18 -0.00540456 2.37997e-19 0)
(0.0079283 -0.00140621 3.09846e-18 -0.00514972 2.80371e-18 0)
(0.00771913 -0.0013507 -1.6408e-18 -0.00490398 -8.30796e-18 0)
(0.00750451 -0.00129237 -4.21871e-18 -0.00464604 2.68261e-18 0)
(0.00728404 -0.00123292 4.7808e-18 -0.0043926 9.79272e-18 0)
(0.00705739 -0.00117098 6.77335e-19 -0.00412946 2.35132e-18 0)
(0.00682459 -0.00110682 -2.81328e-18 -0.00386912 -2.18074e-18 0)
(0.006587 -0.00103919 4.81228e-18 -0.00360316 2.24117e-18 0)
(0.006345 -0.000969116 -1.58627e-18 -0.00334132 -3.64577e-18 0)
(0.00609918 -0.000896976 1.98717e-18 -0.00307742 -2.95974e-18 0)
(0.00585283 -0.000821848 3.51455e-18 -0.00282127 5.20592e-19 0)
(0.00561083 -0.000744587 -5.88196e-19 -0.0025733 3.47754e-18 0)
(0.00537203 -0.000666427 -2.5142e-18 -0.00233638 -1.53768e-18 0)
(0.00514402 -0.000587561 -3.96117e-18 -0.00211532 -4.41216e-18 0)
(0.00492842 -0.000508444 4.00919e-18 -0.0019134 3.90494e-18 0)
(0.00472765 -0.000431254 -1.69214e-18 -0.00173115 -2.2843e-20 0)
(0.00454592 -0.000355038 2.92079e-19 -0.00157258 -2.93428e-19 0)
(0.0043825 -0.000281507 -9.90548e-19 -0.00143599 -6.90406e-19 0)
(0.00423941 -0.00021152 -7.59918e-19 -0.00132148 -7.45967e-19 0)
(0.00411316 -0.000143748 5.29182e-18 -0.00122657 2.69362e-18 0)
(0.00401104 -7.79206e-05 -1.10216e-18 -0.00115552 -5.20159e-19 0)
(0.00391842 -1.34967e-05 -2.96819e-18 -0.00109897 -1.53836e-18 0)
(0.00384317 5.23877e-05 7.47957e-19 -0.00106575 4.70823e-19 0)
(0.00377429 0.00012434 -2.6802e-18 -0.00105215 -1.47941e-18 0)
(0.00370105 0.000187753 2.12723e-19 -0.00103634 4.18439e-19 0)
(0.00362938 0.000235823 2.03087e-18 -0.00101747 1.39662e-18 0)
(0.00355718 0.000279571 -2.31111e-18 -0.0010003 -1.39644e-18 0)
(0.00348648 0.000315345 -1.77048e-18 -0.000981613 -9.35742e-19 0)
(0.00341752 0.000345917 6.21215e-20 -0.000965589 -3.89701e-19 0)
(0.00335048 0.000371158 -3.69015e-19 -0.000948823 -4.21433e-19 0)
(0.00328584 0.00039265 -2.85157e-21 -0.000935174 -3.50206e-21 0)
(0.00322325 0.000409691 -7.89241e-19 -0.000920741 -4.35636e-19 0)
(0.00316254 0.000424916 7.74299e-19 -0.000909629 9.90824e-19 0)
(0.00934967 -0.00213048 3.21015e-18 -0.00696156 -2.46292e-18 4.48841e-33)
(0.00914489 -0.00206387 6.86411e-18 -0.00671497 2.8756e-18 0)
(0.00893788 -0.00200077 -2.25101e-18 -0.00644501 7.88012e-18 0)
(0.00873183 -0.00193671 -6.48716e-18 -0.00619808 -2.78875e-18 0)
(0.00852571 -0.00187203 2.91037e-18 -0.00593359 -3.55889e-19 0)
(0.00831832 -0.00180822 5.25009e-19 -0.00568665 3.32143e-18 0)
(0.00810853 -0.00174168 6.52512e-18 -0.00542351 5.72398e-18 0)
(0.00789516 -0.00167566 -1.16079e-17 -0.00517257 -4.98735e-18 0)
(0.00767743 -0.00160606 6.41114e-19 -0.00490711 -8.53355e-18 0)
(0.00745335 -0.00153571 1.33899e-18 -0.00464845 5.27647e-18 0)
(0.00722313 -0.00146217 2.36331e-20 -0.00437719 8.15411e-20 0)
(0.00698525 -0.00138644 -2.99809e-18 -0.00410946 -2.32138e-18 0)
(0.0067418 -0.00130679 4.2614e-18 -0.0038332 1.13549e-19 0)
(0.00649262 -0.00122453 1.16506e-18 -0.00356112 -1.84732e-18 0)
(0.00623922 -0.00113822 4.80669e-18 -0.00328516 2.14658e-18 0)
(0.00598338 -0.00105069 4.68546e-18 -0.00301649 2.11852e-18 0)
(0.00572722 -0.000959651 -2.0519e-18 -0.00275009 -2.91606e-18 0)
(0.00547893 -0.000866874 3.82012e-18 -0.00250123 2.97515e-18 0)
(0.00523728 -0.000774444 -2.04108e-18 -0.00226287 3.69028e-19 0)
(0.00500906 -0.000681937 2.22445e-18 -0.00204708 -7.08635e-19 0)
(0.00480044 -0.000591093 -1.13779e-18 -0.00185415 -8.93831e-19 0)
(0.00460912 -0.000503103 -2.01443e-25 -0.00168595 -1.34765e-25 0)
(0.00444255 -0.000418355 3.76434e-18 -0.00154395 1.82593e-18 0)
(0.00429797 -0.000337341 1.136e-18 -0.00142874 6.49627e-19 0)
(0.00417446 -0.000260847 -1.10503e-19 -0.00133405 2.37413e-21 0)
(0.00407056 -0.000188253 -5.499e-18 -0.00126105 -2.82551e-18 0)
(0.00398632 -0.000118153 -9.42482e-21 -0.00120707 -4.84897e-21 0)
(0.00391376 -5.13497e-05 3.92959e-18 -0.00116518 2.06929e-18 0)
(0.00384859 1.39787e-05 1.61683e-20 -0.00113124 8.72722e-21 0)
(0.00379399 8.14559e-05 7.31736e-21 -0.00112032 4.27523e-21 0)
(0.00372834 0.000152885 -1.30459e-18 -0.00110861 -7.50971e-19 0)
(0.00367764 0.000205927 -1.62629e-18 -0.00109937 -1.01008e-18 0)
(0.00361765 0.000256788 9.43216e-19 -0.00108473 5.4169e-19 0)
(0.00355312 0.000300517 -3.83115e-19 -0.00106976 -9.59013e-20 0)
(0.00349052 0.000338201 4.03946e-19 -0.00105269 9.40821e-20 0)
(0.00342826 0.000371174 -4.5803e-19 -0.00103841 -4.33689e-19 0)
(0.00336682 0.000398628 -4.2767e-19 -0.00102173 -8.6124e-20 0)
(0.00330722 0.000423137 3.27844e-21 -0.00100876 3.54243e-21 0)
(0.00324842 0.000442635 -2.76239e-18 -0.00099339 -1.88679e-18 0)
(0.00319115 0.000460809 -5.70779e-19 -0.000982033 -6.16612e-19 0)
(0.00913836 -0.00241276 -3.29761e-18 -0.00675211 4.86279e-19 -9.31279e-39)
(0.00892769 -0.00233338 -5.86894e-18 -0.00650068 4.74355e-18 0)
(0.00871245 -0.00225789 4.61895e-18 -0.00622248 1.03264e-17 0)
(0.00849754 -0.00218076 6.53824e-21 -0.00596786 4.13039e-20 0)
(0.00828055 -0.002102 -4.59236e-18 -0.005693 -9.51122e-18 0)
(0.00806014 -0.00202365 4.8753e-18 -0.00543457 -3.7676e-18 0)
(0.00783639 -0.00194162 4.60015e-18 -0.0051586 8.57382e-18 0)
(0.00760656 -0.00185965 1.08885e-17 -0.00489323 2.07193e-18 0)
(0.00737082 -0.00177307 -7.13747e-18 -0.00461182 -7.60823e-18 0)
(0.00712721 -0.00168508 -1.6168e-18 -0.00433661 -4.92847e-18 0)
(0.00687632 -0.0015923 6.19209e-18 -0.00404812 4.49611e-18 0)
(0.0066189 -0.00149673 4.00555e-18 -0.00376539 4.29333e-18 0)
(0.00635551 -0.00139657 -9.86267e-19 -0.00347463 -1.91247e-18 0)
(0.00608832 -0.00129382 -3.00217e-18 -0.00319144 -1.95316e-18 0)
(0.0058207 -0.0011878 -3.71058e-18 -0.00290953 -5.76266e-19 0)
(0.00555563 -0.00108083 1.74927e-18 -0.00264069 3.40896e-19 0)
(0.00530109 -0.000972443 -1.23613e-18 -0.00238661 -1.23614e-18 0)
(0.00505979 -0.000865337 9.41643e-19 -0.00215505 1.67465e-18 0)
(0.00483634 -0.000760649 4.30067e-18 -0.00194621 1.98895e-18 0)
(0.00463843 -0.000659762 -5.36699e-18 -0.00176975 -3.05777e-18 0)
(0.00446366 -0.000563161 1.41277e-18 -0.00161965 4.62791e-19 0)
(0.00431684 -0.000472645 1.27194e-18 -0.00150128 6.83847e-19 0)
(0.00419478 -0.000386542 1.26529e-18 -0.00140819 5.97884e-19 0)
(0.00409446 -0.000306948 1.22365e-18 -0.00133825 4.50238e-19 0)
(0.00401279 -0.000231998 3.56192e-18 -0.00128478 1.84766e-18 0)
(0.0039473 -0.00016071 -3.34415e-18 -0.00124925 -1.49741e-18 0)
(0.0038922 -9.27517e-05 -4.41258e-18 -0.00122093 -2.44333e-18 0)
(0.00383781 -2.89796e-05 2.17934e-18 -0.00119541 1.29277e-18 0)
(0.00379201 3.58423e-05 -1.08373e-18 -0.00117995 -6.48881e-19 0)
(0.0037501 0.000104463 3.53631e-18 -0.00117744 2.00741e-18 0)
(0.00370414 0.000163847 6.93485e-21 -0.00117099 4.14407e-21 0)
(0.00365466 0.000216743 2.76466e-19 -0.00116107 1.54295e-19 0)
(0.00360079 0.000268261 3.319e-19 -0.00114951 2.99271e-19 0)
(0.0035465 0.000312288 3.48505e-19 -0.00113632 1.53936e-19 0)
(0.00349078 0.000350902 -5.48963e-19 -0.00112217 -4.39959e-19 0)
(0.00343516 0.000385762 -8.80716e-19 -0.00110806 -5.69487e-19 0)
(0.00337951 0.000414913 -4.64913e-19 -0.00109312 -4.22877e-19 0)
(0.00332459 0.000441904 1.69672e-18 -0.00107959 1.38438e-18 0)
(0.00327018 0.000463632 -8.09295e-19 -0.0010648 -5.38293e-19 0)
(0.0032162 0.000484413 4.38063e-20 -0.00105241 -2.72346e-19 0)
(0.00889416 -0.00267416 5.93611e-21 -0.0065102 4.7686e-20 2.64809e-36)
(0.00867487 -0.00258039 -6.79731e-18 -0.00625153 -2.53434e-18 0)
(0.00844876 -0.00248991 3.00365e-18 -0.00596255 -4.62263e-19 0)
(0.00822221 -0.00239762 1.22128e-17 -0.00569798 1.67018e-18 0)
(0.00799147 -0.00230256 -6.93633e-18 -0.00541012 -5.57204e-18 0)
(0.00775467 -0.00220737 -3.40906e-18 -0.00513742 -2.69742e-18 0)
(0.00751219 -0.00210673 -7.70637e-18 -0.00484433 6.66831e-19 0)
(0.00726097 -0.00200531 8.20486e-18 -0.00456042 2.09758e-18 0)
(0.0070024 -0.00189769 9.06177e-19 -0.00425917 2.44924e-18 0)
(0.00673519 -0.00178807 -4.16873e-18 -0.00396462 -4.44939e-18 0)
(0.00646061 -0.00167256 -7.47073e-18 -0.00365758 -2.27316e-18 0)
(0.00618094 -0.0015543 -9.66511e-19 -0.00335915 1.63631e-18 0)
(0.00589787 -0.0014316 -1.53431e-18 -0.00305676 2.79869e-18 0)
(0.00561715 -0.00130716 -5.83726e-19 -0.00276962 1.14721e-18 0)
(0.00534367 -0.00118184 -4.77748e-18 -0.00249249 -2.06225e-18 0)
(0.00508367 -0.00105785 -3.0222e-18 -0.0022406 -1.58948e-18 0)
(0.00484592 -0.000937272 -1.55764e-18 -0.00201492 -5.30611e-19 0)
(0.00463199 -0.000821556 -2.97677e-18 -0.00182221 -1.18197e-18 0)
(0.00444898 -0.000712495 4.28726e-18 -0.00166285 2.00002e-18 0)
(0.00429768 -0.000611321 -2.863e-18 -0.0015405 -1.28735e-18 0)
(0.00417388 -0.00051665 -4.0523e-18 -0.00144526 -1.97519e-18 0)
(0.00407857 -0.000430131 1.49394e-18 -0.00138005 3.73705e-19 0)
(0.00400325 -0.000349733 2.56719e-18 -0.00133287 1.22534e-18 0)
(0.00394435 -0.000275569 -2.46563e-18 -0.00130106 -1.20112e-18 0)
(0.00389836 -0.000204462 3.48929e-18 -0.00128143 2.13349e-18 0)
(0.00385802 -0.000137665 2.28864e-18 -0.00126638 9.31859e-19 0)
(0.0038172 -7.43228e-05 -3.25989e-18 -0.00124969 -1.60774e-18 0)
(0.00377868 -1.28557e-05 1.00458e-18 -0.00123651 4.45559e-19 0)
(0.00374671 5.04291e-05 9.67107e-19 -0.0012336 4.61679e-19 0)
(0.00371279 0.000112843 1.76624e-19 -0.001233 2.24718e-19 0)
(0.00367067 0.000170707 2.02919e-18 -0.00122656 1.32708e-18 0)
(0.00363048 0.000223657 -9.93669e-19 -0.00122053 -6.55595e-19 0)
(0.00358449 0.000271915 2.90583e-18 -0.00121044 1.93816e-18 0)
(0.00353693 0.000315575 2.82076e-18 -0.00119912 1.90135e-18 0)
(0.00348795 0.000354777 5.90805e-19 -0.00118619 4.34824e-19 0)
(0.00343782 0.000390236 3.52382e-19 -0.00117321 1.92211e-19 0)
(0.00338756 0.000421421 1.23977e-18 -0.00115881 7.97722e-19 0)
(0.00333718 0.00044982 -3.78399e-19 -0.0011459 -1.86245e-19 0)
(0.00328696 0.000474133 1.21187e-18 -0.00113098 7.70927e-19 0)
(0.00323653 0.000496761 6.98406e-19 -0.00111871 4.32486e-19 0)
(0.0086166 -0.00291061 6.0797e-19 -0.00623549 3.67295e-18 1.62893e-32)
(0.00838684 -0.00280008 3.0451e-18 -0.00596814 -5.3858e-19 0)
(0.00814676 -0.00269203 7.54455e-19 -0.0056655 -1.05608e-17 0)
(0.00790415 -0.00258124 5.07317e-18 -0.00538707 9.00518e-18 0)
(0.00765492 -0.00246623 1.63071e-18 -0.00508184 5.9919e-18 0)
(0.00739666 -0.00235064 -5.17243e-18 -0.00479041 5.30043e-19 0)
(0.00712973 -0.00222731 -3.38386e-18 -0.00447518 -2.3595e-18 0)
(0.0068526 -0.00210258 -4.35513e-18 -0.00416925 -4.69054e-18 0)
(0.00656634 -0.00196977 5.56688e-18 -0.00384487 2.16134e-18 0)
(0.00627219 -0.00183461 1.14427e-18 -0.00352959 1.96537e-18 0)
(0.00597273 -0.00169315 2.47523e-18 -0.00320544 3.53903e-18 0)
(0.00567294 -0.00154998 -2.50863e-18 -0.0028964 1.02479e-18 0)
(0.00537801 -0.00140445 -1.35078e-18 -0.00259339 -1.30991e-18 0)
(0.00509649 -0.00126115 2.7592e-19 -0.00231793 -6.89925e-19 0)
(0.00483603 -0.00112157 1.63343e-18 -0.00206706 5.40084e-19 0)
(0.00460386 -0.000988789 -3.07965e-18 -0.00185567 -1.43382e-18 0)
(0.00440636 -0.00086486 -1.47786e-18 -0.00168132 -6.63169e-19 0)
(0.00424456 -0.000751468 -2.96755e-18 -0.00154932 -1.32082e-18 0)
(0.00411887 -0.000647554 -1.56611e-18 -0.00145203 -5.58422e-19 0)
(0.0040244 -0.000554303 1.50236e-18 -0.00138828 5.01757e-19 0)
(0.00395604 -0.000469596 -2.53196e-18 -0.0013472 -1.52123e-18 0)
(0.00390631 -0.000391475 -1.67791e-19 -0.0013243 3.08827e-19 0)
(0.00386933 -0.000319265 1.34228e-18 -0.0013112 4.45623e-19 0)
(0.00383899 -0.000250672 1.19321e-18 -0.00130507 7.63015e-19 0)
(0.00381091 -0.000185385 -3.66919e-25 -0.00129854 -1.36822e-25 0)
(0.00378062 -0.000123982 3.44662e-18 -0.00129056 1.93614e-18 0)
(0.00375191 -6.42779e-05 9.25946e-21 -0.00128274 3.04662e-19 0)
(0.0037273 -3.85633e-06 -1.01967e-18 -0.00128151 -4.29178e-19 0)
(0.00370417 5.65187e-05 8.69358e-20 -0.00128389 2.7369e-19 0)
(0.00367577 0.000115584 -1.66536e-19 -0.00128437 -2.78313e-19 0)
(0.00364197 0.000169694 2.67126e-18 -0.00127955 1.57051e-18 0)
(0.00360564 0.000219944 -5.32277e-19 -0.00127372 -1.72014e-19 0)
(0.00356528 0.000267532 -4.74828e-19 -0.00126432 -1.88698e-19 0)
(0.0035237 0.000310566 3.75484e-19 -0.00125463 1.7457e-19 0)
(0.00347972 0.000350481 1.5458e-18 -0.00124251 1.08175e-18 0)
(0.00343527 0.000386735 -2.60085e-19 -0.00123092 -1.78814e-19 0)
(0.00338955 0.000419405 -3.49887e-19 -0.00121729 -2.44613e-19 0)
(0.00334401 0.000449387 2.74884e-18 -0.0012052 2.08715e-18 0)
(0.00329775 0.000475662 -1.21528e-19 -0.00119078 -1.68099e-19 0)
(0.00325119 0.000500238 1.16369e-18 -0.00117873 8.96039e-19 0)
(0.00829738 -0.00311443 -3.46043e-18 -0.00591997 -1.10804e-18 3.92196e-33)
(0.00805396 -0.00298404 -4.55851e-18 -0.00564159 -6.27705e-18 0)
(0.00779682 -0.00285575 -2.51953e-25 -0.00532229 -9.50525e-25 0)
(0.00753442 -0.00272347 -9.16631e-19 -0.00502696 6.41226e-18 0)
(0.00726156 -0.00258432 6.15909e-18 -0.00469946 2.1722e-18 0)
(0.00697644 -0.00244368 -2.4781e-18 -0.0043848 2.19006e-19 0)
(0.00668058 -0.00229278 3.63541e-18 -0.00404407 -2.5391e-18 0)
(0.00637399 -0.0021398 -6.85004e-18 -0.00371448 -4.21236e-18 0)
(0.00605805 -0.00197755 -1.42664e-20 -0.00336734 -2.11436e-20 0)
(0.0057384 -0.00181377 -4.04047e-18 -0.00303585 -4.47551e-19 0)
(0.00541969 -0.00164528 3.3126e-18 -0.00270363 1.71242e-18 0)
(0.00511142 -0.00147917 5.09912e-18 -0.00239926 2.05196e-18 0)
(0.00482336 -0.0013164 7.48201e-20 -0.00211758 -4.98137e-19 0)
(0.00456505 -0.00116219 1.58838e-18 -0.00187963 6.00415e-19 0)
(0.00434546 -0.00102 4.70889e-18 -0.00168266 2.04151e-18 0)
(0.00416944 -0.000891713 4.60182e-18 -0.00153757 2.04897e-18 0)
(0.00403682 -0.000777318 -1.38448e-18 -0.00143424 -7.63771e-19 0)
(0.00394245 -0.000677293 -2.90468e-19 -0.00137177 3.32222e-19 0)
(0.0038782 -0.000587199 1.62625e-20 -0.00133479 4.38132e-21 0)
(0.00383487 -0.000506062 -2.5576e-18 -0.00131815 -1.62002e-18 0)
(0.00380722 -0.000432385 -1.71312e-18 -0.0013133 -9.37266e-21 0)
(0.00378638 -0.000363603 -1.24774e-18 -0.00131495 -8.12273e-19 0)
(0.00376829 -0.000298662 1.61862e-19 -0.00131629 -3.89159e-19 0)
(0.00375003 -0.000237548 -1.22453e-19 -0.00131771 3.8228e-19 0)
(0.00373055 -0.000177873 -2.39665e-18 -0.00131623 -1.19751e-18 0)
(0.00371254 -0.000119638 4.56857e-18 -0.00131642 2.74186e-18 0)
(0.00369694 -6.15945e-05 1.64793e-25 -0.00131988 6.55749e-26 0)
(0.00368212 -3.99129e-06 1.02684e-18 -0.0013256 4.13058e-19 0)
(0.00366262 5.35426e-05 8.83299e-19 -0.00132815 9.61553e-20 0)
(0.00363819 0.000108332 -1.94344e-18 -0.0013278 -1.15426e-18 0)
(0.0036088 0.000161036 -6.69562e-19 -0.00132356 -1.06119e-19 0)
(0.0035775 0.000211004 9.91895e-19 -0.00131876 7.15898e-19 0)
(0.00354217 0.000256974 5.17189e-19 -0.00131034 1.20703e-19 0)
(0.00350567 0.000300662 -9.48221e-19 -0.00130207 -6.98535e-19 0)
(0.00346676 0.000340282 -1.59082e-18 -0.00129106 -1.10236e-18 0)
(0.00342711 0.000377582 1.52831e-18 -0.00128084 1.08919e-18 0)
(0.00338608 0.000411112 -3.82093e-18 -0.00126815 -2.81925e-18 0)
(0.00334489 0.000442396 1.19151e-18 -0.00125717 9.43578e-19 0)
(0.00330278 0.0004703 1.26378e-25 -0.00124339 9.52899e-26 0)
(0.00325995 0.00049636 7.46164e-19 -0.00123205 5.85259e-19 0)
(0.00793463 -0.00327929 3.9674e-18 -0.00556234 2.70795e-18 1.56144e-32)
(0.00767356 -0.00312478 -8.9909e-19 -0.00526957 -3.11859e-18 0)
(0.00739361 -0.00297176 -8.44415e-18 -0.00492794 -8.07523e-18 0)
(0.00710544 -0.00281334 3.65515e-18 -0.00461034 2.40361e-18 0)
(0.00680174 -0.00264439 4.72629e-18 -0.00425398 4.7789e-18 0)
(0.00648554 -0.00247332 2.37223e-18 -0.0039135 -9.36145e-20 0)
(0.0061567 -0.00228915 4.47899e-18 -0.00354554 2.52341e-20 0)
(0.00581942 -0.00210372 1.58672e-20 -0.00319413 2.01833e-20 0)
(0.00547803 -0.00190987 -4.99588e-19 -0.00283234 1.25955e-18 0)
(0.00514195 -0.00171737 -1.84628e-18 -0.0024978 -3.58938e-19 0)
(0.00482217 -0.00152712 -5.07305e-18 -0.00218004 -2.56853e-18 0)
(0.0045322 -0.00134696 3.37723e-18 -0.00190978 1.43358e-18 0)
(0.00428343 -0.00118112 1.92022e-20 -0.00168326 7.28653e-21 0)