/*--------------------------------*- C++ -*----------------------------------*\
| =========                 |                                                 |
| \\      /  F ield         | OpenFOAM: The Open Source CFD Toolbox           |
|  \\    /   O peration     | Version:  v2012                                 |
|   \\  /    A nd           | Website:  www.openfoam.com                      |
|    \\/     M anipulation  |                                                 |
\*---------------------------------------------------------------------------*/
FoamFile
{
    version     2.0;
    format      ascii;
    class       pointVectorField;
    location    "9";
    object      pointD;
}
// * * * * * * * * * * * * * * * * * * * * * * * * * * * * * * * * * * * * * //

dimensions      [0 1 0 0 0 0 0];


internalField   nonuniform List<vector> 
32562
(
(0.00345448 0 2.08609e-21)
(0.00476784 0 2.30703e-21)
(0.00438835 -0.000399918 -3.01028e-21)
(0 -0.00254084 6.08662e-22)
(0 -0.00155572 2.64062e-20)
(0.00356366 0 0)
(0 -0.00238417 0)
(0.0021772 -0.000740987 0)
(0.00102669 -0.00138287 3.49119e-21)
(0.00460071 -0.000111315 -1.46794e-20)
(0.0026144 -0.00112798 7.67396e-22)
(0.0026144 -0.00112798 7.67396e-22)
(0.0021772 -0.000740987 0)
(0 -0.00238417 0)
(0 -0.00155572 2.64062e-20)
(0.00345448 0 2.08609e-21)
(0.00356366 0 0)
(0.00476784 0 2.30703e-21)
(0.00460071 -0.000111315 -1.46794e-20)
(0.00438835 -0.000399918 -3.01028e-21)
(0.00102669 -0.00138287 3.49119e-21)
(0 -0.00254084 6.08662e-22)
(4.43762e-05 -0.00238148 0)
(8.8984e-05 -0.0023735 0)
(0.000134033 -0.00236041 0)
(0.000179693 -0.00234254 0)
(0.000226089 -0.00232025 0)
(0.000273297 -0.00229396 0)
(0.00032135 -0.00226408 0)
(0.000370261 -0.002231 0)
(0.000420011 -0.00219511 0)
(0.000470565 -0.00215676 0)
(0.000521877 -0.00211627 0)
(0.000573893 -0.00207391 0)
(0.000626559 -0.00202995 0)
(0.000679824 -0.00198459 0)
(0.000733643 -0.00193802 0)
(0.000787974 -0.00189044 0)
(0.000842783 -0.00184201 0)
(0.000898037 -0.00179286 0)
(0.000953706 -0.00174315 0)
(0.00100976 -0.001693 0)
(0.00106618 -0.00164253 0)
(0.00112294 -0.00159188 0)
(0.00118001 -0.00154114 0)
(0.00123736 -0.00149042 0)
(0.00129498 -0.00143983 0)
(0.00135282 -0.00138945 0)
(0.00141088 -0.00133939 0)
(0.0014691 -0.00128972 0)
(0.00152747 -0.00124052 0)
(0.00158595 -0.00119189 0)
(0.00164451 -0.00114388 0)
(0.00170309 -0.00109657 0)
(0.00176169 -0.00105001 0)
(0.00182023 -0.00100428 0)
(0.0018787 -0.000959414 0)
(0.00193701 -0.000915508 0)
(0.0019952 -0.00087253 0)
(0.0020531 -0.000830648 0)
(0.00211086 -0.000789732 0)
(0.00224001 -0.000698875 0)
(0.00229645 -0.000661396 0)
(0.00235232 -0.000625173 0)
(0.0024076 -0.000590175 0)
(0.00246224 -0.000556418 0)
(0.00251621 -0.000523868 0)
(0.00256944 -0.000492532 0)
(0.00262189 -0.000462393 0)
(0.00267348 -0.000433454 0)
(0.00272416 -0.000405704 0)
(0.00277388 -0.000379138 0)
(0.00282257 -0.000353743 0)
(0.00287017 -0.000329505 0)
(0.00291663 -0.000306409 0)
(0.00296189 -0.000284432 0)
(0.0030059 -0.000263552 0)
(0.00304859 -0.000243753 0)
(0.00308992 -0.000225004 0)
(0.00312982 -0.000207272 0)
(0.00316825 -0.00019053 0)
(0.00320515 -0.000174742 0)
(0.00324049 -0.000159875 0)
(0.0032742 -0.000145891 0)
(0.00330624 -0.000132751 0)
(0.00333658 -0.000120414 0)
(0.00336516 -0.000108838 0)
(0.00339195 -9.79796e-05 0)
(0.00341691 -8.77931e-05 0)
(0.00344001 -7.8232e-05 0)
(0.00346121 -6.92486e-05 0)
(0.00348049 -6.07939e-05 0)
(0.00349781 -5.28181e-05 0)
(0.00351315 -4.52703e-05 0)
(0.00352649 -3.80989e-05 0)
(0.00353781 -3.12513e-05 0)
(0.0035471 -2.46746e-05 0)
(0.00355434 -1.83152e-05 0)
(0.00355951 -1.21193e-05 0)
(0.00356262 -6.03232e-06 0)
(0.00345981 0 0)
(0.00346642 0 0)
(0.00347251 0 0)
(0.00347817 0 0)
(0.00348339 0 0)
(0.00348824 0 0)
(0.00349273 0 0)
(0.00349691 0 0)
(0.00350078 0 0)
(0.0035044 0 0)
(0.00350776 0 0)
(0.00351091 0 0)
(0.00351386 0 0)
(0.00351662 0 0)
(0.00351922 0 0)
(0.00352167 0 0)
(0.00352398 0 0)
(0.00352618 0 0)
(0.00352827 0 0)
(0.00353027 0 0)
(0.00353218 0 0)
(0.00353402 0 0)
(0.00353579 0 0)
(0.00353752 0 0)
(0.00353919 0 0)
(0.00354083 0 0)
(0.00354244 0 0)
(0.00354402 0 0)
(0.00354559 0 0)
(0.00354714 0 0)
(0.00354869 0 0)
(0.00355023 0 0)
(0.00355178 0 0)
(0.00355334 0 0)
(0.0035549 0 0)
(0.00355649 0 0)
(0.00355809 0 0)
(0.00355971 0 0)
(0.00356136 0 0)
(0.00356737 0 0)
(0.00357191 0 0)
(0.00357672 0 0)
(0.0035818 0 0)
(0.00358717 0 0)
(0.00359285 0 0)
(0.00359884 0 0)
(0.00360517 0 0)
(0.00361183 0 0)
(0.00361884 0 0)
(0.00362618 0 0)
(0.00363388 0 0)
(0.00364193 0 0)
(0.00365033 0 0)
(0.00365907 0 0)
(0.00366816 0 0)
(0.0036776 0 0)
(0.00368739 0 0)
(0.00369751 0 0)
(0.00370798 0 0)
(0.00371878 0 0)
(0.00372991 0 0)
(0.00374138 0 0)
(0.00375317 0 0)
(0.00376528 0 0)
(0.00377771 0 0)
(0.00379045 0 0)
(0.0038035 0 0)
(0.00381686 0 0)
(0.00383052 0 0)
(0.00384447 0 0)
(0.00385872 0 0)
(0.00387325 0 0)
(0.00388807 0 0)
(0.00390316 0 0)
(0.00391853 0 0)
(0.00393417 0 0)
(0.00395007 0 0)
(0.00396623 0 0)
(0.00398264 0 0)
(0.0039993 0 0)
(0.00401621 0 0)
(0.00403335 0 0)
(0.00405073 0 0)
(0.00406834 0 0)
(0.00408616 0 0)
(0.00410421 0 0)
(0.00412246 0 0)
(0.00414092 0 0)
(0.00415958 0 0)
(0.00417843 0 0)
(0.00419747 0 0)
(0.00421669 0 0)
(0.00423608 0 0)
(0.00425564 0 0)
(0.00427536 0 0)
(0.00429523 0 0)
(0.00431525 0 0)
(0.0043354 0 0)
(0.00435569 0 0)
(0.0043761 0 0)
(0.00439662 0 0)
(0.00441724 0 0)
(0.00443797 0 0)
(0.00445877 0 0)
(0.00447965 0 0)
(0.0045006 0 0)
(0.0045216 0 0)
(0.00454265 0 0)
(0.00456372 0 0)
(0.00458481 0 0)
(0.00460591 0 0)
(0.004627 0 0)
(0.00464806 0 0)
(0.00466908 0 0)
(0.00469005 0 0)
(0.00471094 0 0)
(0.00473174 0 0)
(0.00475242 0 0)
(0.00477284 -1.03924e-06 2.3649e-21)
(0.00477245 -2.08605e-06 2.24221e-21)
(0.00477179 -3.14798e-06 4.46609e-21)
(0.00477087 -4.23254e-06 -2.47462e-21)
(0.00476968 -5.34724e-06 2.10921e-21)
(0.00476824 -6.49951e-06 2.28385e-21)
(0.00476655 -7.69673e-06 6.62534e-24)
(0.0047646 -8.94621e-06 4.93948e-21)
(0.00476239 -1.02552e-05 7.35683e-22)
(0.00475994 -1.16307e-05 -3.80109e-21)
(0.00475724 -1.30799e-05 -6.96963e-21)
(0.00475431 -1.46096e-05 -5.60505e-21)
(0.00475113 -1.62266e-05 4.1488e-21)
(0.00474773 -1.79374e-05 7.55647e-21)
(0.00474409 -1.97486e-05 -5.12587e-22)
(0.00474024 -2.16665e-05 -1.04714e-20)
(0.00473617 -2.36971e-05 -1.07648e-20)
(0.00473188 -2.58464e-05 -4.47787e-21)
(0.0047274 -2.81202e-05 -3.08871e-21)
(0.00472272 -3.05239e-05 -3.5763e-27)
(0.00471784 -3.30628e-05 1.54652e-21)
(0.00471279 -3.57421e-05 3.93694e-21)
(0.00470755 -3.85665e-05 2.39001e-21)
(0.00470215 -4.15407e-05 3.33987e-21)
(0.00469659 -4.46689e-05 9.13459e-21)
(0.00469087 -4.79554e-05 5.79472e-21)
(0.00468501 -5.14035e-05 -2.43337e-21)
(0.00467902 -5.50173e-05 -1.38285e-21)
(0.00467289 -5.87994e-05 -4.92994e-21)
(0.00466665 -6.27532e-05 -4.62252e-21)
(0.0046603 -6.68808e-05 3.82671e-21)
(0.00465385 -7.11851e-05 4.94737e-21)
(0.00464731 -7.56673e-05 2.47814e-21)
(0.00464068 -8.03296e-05 -1.08729e-21)
(0.00463399 -8.51728e-05 1.1437e-20)
(0.00462723 -9.01979e-05 1.49874e-20)
(0.00462041 -9.54058e-05 1.00055e-20)
(0.00461356 -0.000100796 7.5402e-21)
(0.00460667 -0.000106369 -1.11516e-20)
(0.00459668 -0.00011473 -6.93517e-22)
(0.00459361 -0.000117376 3.17318e-21)
(0.00459053 -0.000120058 -5.11238e-21)
(0.00458746 -0.000122775 -5.42288e-21)
(0.00458438 -0.000125527 6.0223e-21)
(0.00458131 -0.000128314 -1.69149e-21)
(0.00457824 -0.000131136 -1.88654e-20)
(0.00457517 -0.000133993 -1.11516e-20)
(0.0045721 -0.000136885 2.8513e-21)
(0.00456904 -0.00013981 -2.58325e-21)
(0.00456598 -0.00014277 -5.43454e-21)
(0.00456293 -0.000145763 5.90779e-21)
(0.00455989 -0.00014879 -1.89289e-21)
(0.00455685 -0.00015185 -1.88646e-20)
(0.00455382 -0.000154943 -1.10639e-20)
(0.0045508 -0.000158069 1.9019e-22)
(0.00454779 -0.000161226 -2.60228e-21)
(0.00454479 -0.000164416 -2.79247e-21)
(0.0045418 -0.000167637 -2.62364e-21)
(0.00453883 -0.000170889 -2.62364e-21)
(0.00453586 -0.000174172 -2.63107e-21)
(0.00453291 -0.000177486 -5.36447e-21)
(0.00452997 -0.000180829 -2.65203e-21)
(0.00452705 -0.000184201 5.55556e-21)
(0.00452414 -0.000187603 -2.4617e-21)
(0.00452125 -0.000191033 -1.59344e-20)
(0.00451838 -0.00019449 -5.33289e-21)
(0.00451552 -0.000197976 -5.28727e-21)
(0.00451268 -0.000201488 -1.3203e-20)
(0.00450986 -0.000205026 -7.91185e-21)
(0.00450705 -0.00020859 3.07939e-24)
(0.00450427 -0.00021218 9.41288e-23)
(0.0045015 -0.000215794 1.00066e-22)
(0.00449876 -0.000219431 5.0613e-21)
(0.00449604 -0.000223092 -2.79794e-21)
(0.00449333 -0.000226776 -5.00135e-21)
(0.00449065 -0.000230482 -2.32631e-23)
(0.00448799 -0.000234209 -2.89463e-21)
(0.00448536 -0.000237956 -2.68419e-21)
(0.00448274 -0.000241724 2.40739e-21)
(0.00448015 -0.00024551 -2.66947e-21)
(0.00447758 -0.000249315 -7.77032e-21)
(0.00447504 -0.000253137 1.635e-21)
(0.00447252 -0.000256976 -3.38561e-21)
(0.00447002 -0.000260831 -1.46035e-20)
(0.00446755 -0.000264702 -6.76734e-23)
(0.0044651 -0.000268587 3.66717e-21)
(0.00446267 -0.000272485 -1.03167e-20)
(0.00446027 -0.000276396 -1.20743e-20)
(0.00445789 -0.000280319 -4.91227e-21)
(0.00445553 -0.000284253 -5.47501e-22)
(0.0044532 -0.000288197 -3.25755e-21)
(0.0044509 -0.00029215 -7.53844e-21)
(0.00444861 -0.000296111 -6.92397e-21)
(0.00444635 -0.00030008 2.69174e-21)
(0.00444411 -0.000304056 2.07342e-21)
(0.00444189 -0.000308037 -4.74666e-21)
(0.0044397 -0.000312023 4.00561e-21)
(0.00443753 -0.000316013 -2.10885e-21)
(0.00443537 -0.000320005 -1.13547e-20)
(0.00443324 -0.000324 -3.96756e-21)
(0.00443112 -0.000327996 1.17905e-21)
(0.00442903 -0.000331992 2.73326e-21)
(0.00442695 -0.000335988 7.94163e-22)
(0.00442489 -0.000339983 -2.71681e-21)
(0.00442284 -0.000343975 -6.48884e-26)
(0.00442081 -0.000347964 2.07775e-25)
(0.00441878 -0.00035195 -4.57271e-21)
(0.00441678 -0.000355932 -9.86707e-22)
(0.00441478 -0.000359909 3.58516e-21)
(0.00441279 -0.000363881 9.09459e-21)
(0.0044108 -0.000367846 5.49065e-21)
(0.00440883 -0.000371806 -5.42621e-21)
(0.00440685 -0.00037576 -1.82391e-21)
(0.00440488 -0.000379707 1.82269e-21)
(0.00440291 -0.000383647 -5.42931e-21)
(0.00440093 -0.000387581 -4.53792e-21)
(0.00439895 -0.00039151 -1.5572e-29)
(0.00439696 -0.000395433 -1.84279e-21)
(0.00436625 -0.000405608 -2.32342e-21)
(0.00433756 -0.000411852 -3.47937e-21)
(0.00430893 -0.000418066 -3.47583e-21)
(0.00428034 -0.000424209 -3.46971e-21)
(0.0042518 -0.000430229 -4.44677e-21)
(0.00422327 -0.000436092 -8.0697e-22)
(0.00419473 -0.00044177 1.32754e-21)
(0.00416616 -0.000447241 0)
(0.00413752 -0.000452488 1.01299e-21)
(0.0041088 -0.0004575 -1.46813e-21)
(0.00407996 -0.00046227 -3.79183e-21)
(0.00405098 -0.000466797 -2.49188e-21)
(0.00402184 -0.000471077 -3.43744e-21)
(0.0039925 -0.000475118 -3.4537e-21)
(0.00396295 -0.000478925 -3.6114e-21)
(0.00393316 -0.000482505 -2.41397e-21)
(0.00390312 -0.000485869 -2.55183e-21)
(0.00387279 -0.000489028 -5.03298e-21)
(0.00384217 -0.000491995 -3.48402e-21)
(0.00381123 -0.000494784 1.68815e-21)
(0.00377995 -0.000497412 3.74967e-21)
(0.00374831 -0.000499895 -3.11102e-21)
(0.0037163 -0.000502251 -6.72648e-21)
(0.0036839 -0.000504497 -3.75649e-21)
(0.00365109 -0.000506656 -2.4826e-21)
(0.00361786 -0.00050875 -2.64587e-21)
(0.00358419 -0.000510796 -2.80408e-21)
(0.00355007 -0.00051282 -2.84103e-21)
(0.00351548 -0.000514845 -4.15091e-23)
(0.0034804 -0.000516894 -1.4577e-21)
(0.00344483 -0.000518992 -2.75156e-21)
(0.00340874 -0.000521165 -2.96448e-21)
(0.00337213 -0.000523439 -3.1004e-21)
(0.00333499 -0.000525843 -1.59578e-21)
(0.00329729 -0.000528404 -2.98969e-21)
(0.00325903 -0.00053115 -1.55368e-21)
(0.00322019 -0.000534117 -1.68179e-21)
(0.00318078 -0.000537326 -1.28181e-21)
(0.00314078 -0.000540809 1.95323e-21)
(0.00310015 -0.000544608 -2.72052e-22)
(0.00305892 -0.00054875 -2.04881e-21)
(0.00301706 -0.000553271 -3.42118e-21)
(0.00297456 -0.000558205 -3.28603e-21)
(0.00293142 -0.000563597 -5.48291e-21)
(0.00288763 -0.000569476 -7.46877e-21)
(0.00284319 -0.000575864 -5.21013e-21)
(0.00279809 -0.000582826 1.15213e-21)
(0.00275233 -0.000590396 5.75749e-21)
(0.00270591 -0.000598609 -2.52497e-22)
(0.00265882 -0.000607508 2.22109e-21)
(0.00261107 -0.000617134 5.18382e-21)
(0.00256266 -0.000627529 -6.51088e-22)
(0.00251359 -0.000638733 -3.2615e-21)
(0.00246386 -0.000650795 -1.28127e-21)
(0.00241348 -0.000663753 -8.36674e-22)
(0.00236247 -0.000677659 -4.10691e-21)
(0.00231083 -0.000692547 -2.7913e-21)
(0.0022586 -0.000708458 1.58515e-21)
(0.00220577 -0.000725467 5.60671e-22)
(0.00215236 -0.000743583 3.44314e-23)
(0.00209839 -0.000762839 3.39344e-21)
(0.0020439 -0.000783298 3.46727e-21)
(0.00198891 -0.000804996 1.34609e-21)
(0.00193345 -0.000827968 2.21288e-21)
(0.00187757 -0.00085225 7.48145e-22)
(0.00182129 -0.000877873 4.15585e-23)
(0.00176467 -0.000904869 3.96444e-21)
(0.00170774 -0.000933261 1.35187e-21)
(0.00165055 -0.000963077 -8.30862e-21)
(0.00159317 -0.00099433 -7.84141e-21)
(0.00153564 -0.00102704 -1.33135e-21)
(0.00147804 -0.00106121 -5.73273e-30)
(0.00142041 -0.00109684 4.55787e-21)
(0.00136286 -0.00113392 5.7213e-21)
(0.00130542 -0.00117247 2.26158e-21)
(0.00124819 -0.00121247 -1.51658e-22)
(0.00119123 -0.00125387 4.13239e-23)
(0.00113462 -0.00129663 7.1449e-21)
(0.00107849 -0.00134068 8.73977e-21)
(0.000983302 -0.00141946 -3.54164e-21)
(0.000944006 -0.00145352 -2.5807e-21)
(0.00090511 -0.00148816 9.84984e-21)
(0.000866652 -0.00152332 4.88159e-21)
(0.000828664 -0.00155899 -9.73208e-21)
(0.000791189 -0.0015951 -2.65932e-21)
(0.000754259 -0.00163164 8.12785e-21)
(0.000717915 -0.00166853 1.28401e-21)
(0.000682192 -0.00170573 -1.10859e-20)
(0.00064713 -0.00174318 -1.27158e-20)
(0.000612764 -0.00178083 -5.24346e-21)
(0.000579129 -0.0018186 -4.493e-22)
(0.000546264 -0.00185643 -4.60946e-22)
(0.0005142 -0.00189425 -9.24516e-22)
(0.000482974 -0.00193197 7.24174e-25)
(0.000452614 -0.00196951 -3.95256e-21)
(0.000423154 -0.00200679 -7.35719e-21)
(0.000394618 -0.00204371 -1.23916e-20)
(0.000367037 -0.00208018 -1.21623e-20)
(0.000340427 -0.00211609 -5.86222e-23)
(0.000314814 -0.00215134 -2.43991e-21)
(0.000290207 -0.00218582 -3.06232e-21)
(0.000266623 -0.00221941 8.6436e-21)
(0.000244062 -0.00225201 7.37681e-21)
(0.00022253 -0.00228348 -2.83541e-22)
(0.000202016 -0.0023137 1.98229e-21)
(0.000182512 -0.00234256 1.76697e-21)
(0.000163993 -0.00236992 1.63561e-21)
(0.000146435 -0.00239567 3.22075e-21)
(0.000129799 -0.00241967 -1.11583e-21)
(0.000114041 -0.00244182 -3.37966e-21)
(9.9106e-05 -0.00246199 -2.26964e-21)
(8.49318e-05 -0.00248007 -3.28947e-22)
(7.14457e-05 -0.00249597 0)
(5.8568e-05 -0.00250959 -4.36024e-23)
(4.62102e-05 -0.00252085 2.31077e-22)
(3.42776e-05 -0.00252968 2.79898e-21)
(2.26691e-05 -0.00253603 2.40603e-21)
(1.12795e-05 -0.00253985 4.92911e-22)
(0 -0.00253996 0)
(0 -0.00253873 0)
(0 -0.00253745 0)
(0 -0.00253611 0)
(0 -0.00253473 0)
(0 -0.00253329 0)
(0 -0.00253181 0)
(0 -0.00253028 0)
(0 -0.00252871 0)
(0 -0.00252711 0)
(0 -0.00252546 0)
(0 -0.00252378 0)
(0 -0.00252206 0)
(0 -0.00252031 0)
(0 -0.00251853 0)
(0 -0.00251672 0)
(0 -0.00251488 0)
(0 -0.00251302 0)
(0 -0.00251113 0)
(0 -0.00250922 0)
(0 -0.00250729 0)
(0 -0.00250533 0)
(0 -0.00250336 0)
(0 -0.00250137 0)
(0 -0.00249936 0)
(0 -0.00249733 0)
(0 -0.0024953 0)
(0 -0.00249325 0)
(0 -0.00249118 0)
(0 -0.00248911 0)
(0 -0.00248702 0)
(0 -0.00248493 0)
(0 -0.00248282 0)
(0 -0.00248071 0)
(0 -0.0024786 0)
(0 -0.00247647 0)
(0 -0.00247435 0)
(0 -0.00247221 0)
(0 -0.00247008 0)
(0 -0.00246794 0)
(0 -0.0024658 0)
(0 -0.00246366 0)
(0 -0.00246152 0)
(0 -0.00245937 0)
(0 -0.00245723 0)
(0 -0.00245509 0)
(0 -0.00245295 0)
(0 -0.00245081 0)
(0 -0.00244868 0)
(0 -0.00244655 0)
(0 -0.00244442 0)
(0 -0.00244229 0)
(0 -0.00244017 0)
(0 -0.00243806 0)
(0 -0.00243594 0)
(0 -0.00243384 0)
(0 -0.00243173 0)
(0 -0.00242964 0)
(0 -0.00242754 0)
(0 -0.00242546 0)
(0 -0.00242338 0)
(0 -0.0024213 0)
(0 -0.00241923 0)
(0 -0.00241717 0)
(0 -0.00241511 0)
(0 -0.00241306 0)
(0 -0.00241101 0)
(0 -0.00240897 0)
(0 -0.00240693 0)
(0 -0.0024049 0)
(0 -0.00240287 0)
(0 -0.00240084 0)
(0 -0.00239882 0)
(0 -0.0023968 0)
(0 -0.00239478 0)
(0 -0.00239276 0)
(0 -0.00239074 0)
(0 -0.00238872 0)
(0 -0.0023867 0)
(0 -0.00238062 0)
(0 -0.00237652 0)
(0 -0.00237237 0)
(0 -0.00236815 0)
(0 -0.00236382 0)
(0 -0.00235935 0)
(0 -0.0023547 0)
(0 -0.00234981 0)
(0 -0.00234462 0)
(0 -0.00233897 0)
(0 -0.0023324 0)
(0 -0.00232475 0)
(0 -0.00231594 0)
(0 -0.00230588 0)
(0 -0.00229456 0)
(0 -0.00228189 0)
(0 -0.00226783 0)
(0 -0.00225238 0)
(0 -0.00223547 0)
(0 -0.00221713 0)
(0 -0.00219733 0)
(0 -0.00217605 0)
(0 -0.00215332 0)
(0 -0.00212913 0)
(0 -0.00210347 0)
(0 -0.00207637 0)
(0 -0.0020478 0)
(0 -0.00201779 0)
(0 -0.0019863 0)
(0 -0.00195338 0)
(0 -0.00191899 0)
(0 -0.00188316 0)
(0 -0.00184584 0)
(0 -0.0018071 0)
(0 -0.00176687 0)
(0 -0.00172521 0)
(0 -0.00168204 0)
(0 -0.00163746 0)
(0 -0.00159133 0)
(0.00222351 -0.000697468 0)
(0.00226515 -0.000657852 0)
(0.00230627 -0.000620311 0)
(0.0023467 -0.000584802 0)
(0.00238653 -0.000551376 0)
(0.00242572 -0.000519859 0)
(0.00246429 -0.00049031 0)
(0.00250224 -0.000462559 0)
(0.00253957 -0.000436626 0)
(0.0025763 -0.000412372 0)
(0.00261245 -0.000389783 0)
(0.00264802 -0.00036874 0)
(0.00268305 -0.000349212 0)
(0.00271755 -0.0003311 0)
(0.00275155 -0.000314356 0)
(0.00278506 -0.000298904 0)
(0.00281812 -0.000284682 0)
(0.00285074 -0.000271623 0)
(0.00288295 -0.000259668 0)
(0.00291478 -0.000248754 0)
(0.00294625 -0.000238828 0)
(0.00297738 -0.00022983 0)
(0.0030082 -0.000221712 0)
(0.00303872 -0.000214414 0)
(0.00306897 -0.000207892 0)
(0.00309897 -0.000202097 0)
(0.00312874 -0.000196983 0)
(0.0031583 -0.000192507 0)
(0.00318766 -0.000188625 0)
(0.00321684 -0.0001853 0)
(0.00324586 -0.00018249 0)
(0.00327473 -0.000180152 0)
(0.00330347 -0.000178256 0)
(0.00333209 -0.000176764 0)
(0.00336059 -0.000175643 0)
(0.003389 -0.000174862 0)
(0.00341732 -0.000174388 0)
(0.00344556 -0.000174192 0)
(0.00347373 -0.000174244 0)
(0.00350183 -0.000174517 0)
(0.00352988 -0.000174983 0)
(0.00355788 -0.000175617 0)
(0.00358584 -0.000176391 0)
(0.00361376 -0.000177282 0)
(0.00364164 -0.000178266 0)
(0.00366948 -0.000179319 0)
(0.00369731 -0.00018042 0)
(0.0037251 -0.000181546 0)
(0.00375287 -0.000182676 0)
(0.00378062 -0.00018379 0)
(0.00380835 -0.000184867 0)
(0.00383606 -0.000185887 0)
(0.00386375 -0.000186831 0)
(0.00389142 -0.00018768 0)
(0.00391908 -0.000188415 0)
(0.00394671 -0.000189018 0)
(0.00397432 -0.00018947 0)
(0.0040019 -0.000189753 0)
(0.00402947 -0.000189849 0)
(0.00405701 -0.000189738 0)
(0.00408452 -0.000189405 0)
(0.004112 -0.000188829 0)
(0.00413946 -0.000187992 0)
(0.00416688 -0.000186874 0)
(0.00419427 -0.000185457 0)
(0.00422162 -0.000183719 0)
(0.00424894 -0.000181641 0)
(0.00427622 -0.0001792 0)
(0.00430346 -0.00017637 0)
(0.00433066 -0.000173127 0)
(0.00435782 -0.000169453 0)
(0.00438495 -0.000165312 0)
(0.00441203 -0.000160678 0)
(0.00443908 -0.000155515 0)
(0.00446609 -0.000149795 0)
(0.00449307 -0.000143469 0)
(0.00452002 -0.000136512 0)
(0.00454694 -0.00012886 0)
(0.00457384 -0.000120487 0)
(0.00214991 -0.000754255 0)
(0.00213176 -0.000762609 0)
(0.00211373 -0.00077101 0)
(0.00209587 -0.000779423 0)
(0.00207815 -0.000787874 0)
(0.00206059 -0.000796341 0)
(0.00204318 -0.000804838 0)
(0.00202593 -0.000813352 0)
(0.00200883 -0.000821887 0)
(0.00199188 -0.000830437 0)
(0.0019751 -0.000839001 0)
(0.00195846 -0.000847576 0)
(0.001942 -0.000856162 0)
(0.00192566 -0.00086475 0)
(0.00190949 -0.000873337 0)
(0.00189348 -0.000881929 0)
(0.00187761 -0.000890516 0)
(0.0018619 -0.000899098 0)
(0.00184634 -0.000907673 0)
(0.00183093 -0.000916238 0)
(0.00181567 -0.000924792 0)
(0.00180054 -0.000933332 0)
(0.00178556 -0.000941857 0)
(0.00177072 -0.000950364 0)
(0.00175601 -0.000958855 0)
(0.00174142 -0.000967322 0)
(0.00172697 -0.000975764 0)
(0.00171265 -0.000984185 0)
(0.00169844 -0.00099258 0)
(0.00168436 -0.00100095 0)
(0.0016704 -0.00100929 0)
(0.00165654 -0.0010176 0)
(0.0016428 -0.00102588 0)
(0.00162916 -0.00103412 0)
(0.00161561 -0.00104234 0)
(0.00160217 -0.00105052 0)
(0.00158882 -0.00105866 0)
(0.00157555 -0.00106677 0)
(0.00156236 -0.00107485 0)
(0.00154926 -0.00108288 0)
(0.00153622 -0.00109089 0)
(0.00152325 -0.00109885 0)
(0.00151035 -0.00110678 0)
(0.0014975 -0.00111467 0)
(0.0014847 -0.00112253 0)
(0.00147196 -0.00113034 0)
(0.00145926 -0.00113812 0)
(0.00144659 -0.00114586 0)
(0.00143396 -0.00115357 0)
(0.00142135 -0.00116124 0)
(0.00140877 -0.00116888 0)
(0.0013962 -0.00117648 0)
(0.00138364 -0.00118405 0)
(0.00137108 -0.00119159 0)
(0.00135853 -0.00119909 0)
(0.00134596 -0.00120657 0)
(0.00133339 -0.00121401 0)
(0.00132079 -0.00122143 0)
(0.00130817 -0.00122883 0)
(0.00129552 -0.0012362 0)
(0.00128283 -0.00124355 0)
(0.00127009 -0.00125088 0)
(0.00125731 -0.00125819 0)
(0.00124448 -0.00126549 0)
(0.00123158 -0.00127278 0)
(0.00121862 -0.00128006 0)
(0.00120558 -0.00128733 0)
(0.00119246 -0.00129459 0)
(0.00117926 -0.00130186 0)
(0.00116597 -0.00130913 0)
(0.00115257 -0.00131641 0)
(0.00113908 -0.0013237 0)
(0.00112547 -0.001331 0)
(0.00111175 -0.00133832 0)
(0.00109791 -0.00134566 0)
(0.00108393 -0.00135303 0)
(0.00106984 -0.00136044 0)
(0.00105559 -0.00136787 0)
(0.00104121 -0.00137536 0)
(9.90537e-05 -0.00154502 3.96425e-20)
(0.000197869 -0.00154883 -1.28283e-20)
(0.000296228 -0.0015551 -3.90616e-20)
(0.000393912 -0.00156372 -1.31615e-20)
(0.000490703 -0.00157454 1.2311e-20)
(0.000586412 -0.00158739 -3.00956e-22)
(0.000680857 -0.00160203 -1.27374e-20)
(0.00077383 -0.00161822 3.02077e-22)
(0.000865117 -0.00163566 2.35711e-20)
(0.000954513 -0.00165399 1.20073e-20)
(0.00104174 -0.00167276 1.08259e-20)
(0.00112652 -0.00169135 2.20647e-20)
(0.00120856 -0.00170905 -2.4415e-23)
(0.00128753 -0.00172505 9.01616e-21)
(0.00136301 -0.0017382 -7.15152e-22)
(0.00143433 -0.00174671 -1.88626e-20)
(0.00150067 -0.00174822 -1.97007e-20)
(0.00156163 -0.00174078 -1.02051e-20)
(0.00161767 -0.00172435 1.60283e-20)
(0.00167016 -0.00170114 2.8791e-20)
(0.00172104 -0.00167451 1.3072e-20)
(0.0017717 -0.00164692 -1.5807e-20)
(0.00182239 -0.00161915 -2.05699e-20)
(0.00187297 -0.00159124 -7.93843e-21)
(0.00192336 -0.00156321 -1.52965e-20)
(0.00197345 -0.00153501 6.61364e-21)
(0.00202318 -0.00150665 2.28306e-20)
(0.00207247 -0.00147813 2.22611e-22)
(0.00212128 -0.00144946 -2.0414e-21)
(0.00216955 -0.00142065 -9.63424e-21)
(0.00221723 -0.00139171 -9.81022e-21)
(0.00226428 -0.00136266 7.35278e-21)
(0.00231067 -0.00133351 1.28477e-20)
(0.00235636 -0.00130428 1.40839e-20)
(0.00240133 -0.00127498 2.18014e-20)
(0.00244554 -0.00124563 1.11059e-20)
(0.00248898 -0.00121624 -1.50382e-20)
(0.00253161 -0.00118683 -4.92031e-21)
(0.00257343 -0.00115741 7.7105e-21)
(0.00265452 -0.00109858 7.40839e-22)
(0.00269376 -0.00106919 -4.45284e-21)
(0.00273212 -0.00103984 -1.78491e-22)
(0.00276957 -0.00101053 -4.79557e-21)
(0.00280612 -0.000981276 -2.06828e-20)
(0.00284174 -0.000952073 -1.55125e-22)
(0.00287642 -0.000922929 5.41369e-21)
(0.00291015 -0.000893859 -4.45717e-21)
(0.00294293 -0.00086486 5.53144e-21)
(0.00297474 -0.000835938 5.21157e-21)
(0.00300558 -0.000807095 4.55908e-21)
(0.00303544 -0.000778331 8.30857e-21)
(0.00306432 -0.000749649 2.96764e-21)
(0.0030922 -0.00072105 -1.24771e-20)
(0.00311908 -0.000692533 -9.81949e-21)
(0.00314496 -0.000664098 1.46939e-20)
(0.00316982 -0.000635745 1.66084e-20)
(0.00319366 -0.000607473 1.4356e-21)
(0.00321649 -0.000579278 -5.84793e-21)
(0.00323828 -0.000551161 -8.15586e-21)
(0.00325904 -0.000523118 -3.28214e-21)
(0.00327877 -0.000495147 -6.18145e-23)
(0.00329746 -0.000467244 -1.45218e-21)
(0.00331509 -0.000439408 1.14089e-21)
(0.00333169 -0.000411634 -2.98944e-21)
(0.00334722 -0.000383918 -1.13057e-20)
(0.0033617 -0.000356259 1.43464e-22)
(0.00337513 -0.000328649 9.67892e-21)
(0.00338748 -0.00030109 4.22527e-21)
(0.00339877 -0.000273574 3.70546e-21)
(0.003409 -0.0002461 -2.73339e-21)
(0.00341815 -0.000218664 -2.19229e-21)
(0.00342623 -0.000191259 7.80531e-21)
(0.00343324 -0.000163884 5.50237e-21)
(0.00343918 -0.000136532 -1.86802e-21)
(0.00344403 -0.000109201 -6.50039e-21)
(0.00344781 -8.18865e-05 -7.43219e-21)
(0.00345051 -5.45843e-05 -2.90585e-21)
(0.00345213 -2.72901e-05 2.06502e-21)
(0.00259113 -0.00110775 0)
(0.00256894 -0.00108857 0)
(0.00254772 -0.00107033 0)
(0.00252745 -0.00105298 0)
(0.00250806 -0.00103647 0)
(0.00248953 -0.00102076 0)
(0.00247179 -0.00100577 0)
(0.00245483 -0.000991498 0)
(0.0024386 -0.000977875 0)
(0.00242306 -0.000964876 0)
(0.00240819 -0.000952461 0)
(0.00239396 -0.0009406 0)
(0.00238033 -0.000929262 0)
(0.00236729 -0.000918417 0)
(0.0023548 -0.00090804 0)
(0.00234285 -0.000898105 0)
(0.0023314 -0.000888585 0)
(0.00232045 -0.000879464 0)
(0.00230996 -0.000870718 0)
(0.00229993 -0.000862328 0)
(0.00229032 -0.000854276 0)
(0.00228114 -0.000846542 0)
(0.00227235 -0.000839112 0)
(0.00226395 -0.000831968 0)
(0.00225592 -0.000825099 0)
(0.00224824 -0.000818485 0)
(0.00224091 -0.00081212 0)
(0.00223391 -0.000805984 0)
(0.00222723 -0.000800072 0)
(0.00222085 -0.000794367 0)
(0.00221477 -0.000788865 0)
(0.00220897 -0.000783549 0)
(0.00220345 -0.000778417 0)
(0.00219819 -0.000773453 0)
(0.00219319 -0.000768656 0)
(0.00218845 -0.000764013 0)
(0.00218393 -0.000759524 0)
(0.00217968 -0.000755179 0)
(0.00217562 -0.00075098 0)
(0.00259113 -0.00110775 0)
(0.00256894 -0.00108857 0)
(0.00254772 -0.00107033 0)
(0.00252745 -0.00105298 0)
(0.00250806 -0.00103647 0)
(0.00248953 -0.00102076 0)
(0.00247179 -0.00100577 0)
(0.00245483 -0.000991498 0)
(0.0024386 -0.000977875 0)
(0.00242306 -0.000964876 0)
(0.00240819 -0.000952461 0)
(0.00239396 -0.0009406 0)
(0.00238033 -0.000929262 0)
(0.00236729 -0.000918417 0)
(0.0023548 -0.00090804 0)
(0.00234285 -0.000898105 0)
(0.0023314 -0.000888585 0)
(0.00232045 -0.000879464 0)
(0.00230996 -0.000870718 0)
(0.00229993 -0.000862328 0)
(0.00229032 -0.000854276 0)
(0.00228114 -0.000846542 0)
(0.00227235 -0.000839112 0)
(0.00226395 -0.000831968 0)
(0.00225592 -0.000825099 0)
(0.00224824 -0.000818485 0)
(0.00224091 -0.00081212 0)
(0.00223391 -0.000805984 0)
(0.00222723 -0.000800072 0)
(0.00222085 -0.000794367 0)
(0.00221477 -0.000788865 0)
(0.00220897 -0.000783549 0)
(0.00220345 -0.000778417 0)
(0.00219819 -0.000773453 0)
(0.00219319 -0.000768656 0)
(0.00218845 -0.000764013 0)
(0.00218393 -0.000759524 0)
(0.00217968 -0.000755179 0)
(0.00217562 -0.00075098 0)
(0.00211086 -0.000789732 0)
(0.0020531 -0.000830648 0)
(0.0019952 -0.00087253 0)
(0.00193701 -0.000915508 0)
(0.0018787 -0.000959414 0)
(0.00182023 -0.00100428 0)
(0.00176169 -0.00105001 0)
(0.00170309 -0.00109657 0)
(0.00164451 -0.00114388 0)
(0.00158595 -0.00119189 0)
(0.00152747 -0.00124052 0)
(0.0014691 -0.00128972 0)
(0.00141088 -0.00133939 0)
(0.00135282 -0.00138945 0)
(0.00129498 -0.00143983 0)
(0.00123736 -0.00149042 0)
(0.00118001 -0.00154114 0)
(0.00112294 -0.00159188 0)
(0.00106618 -0.00164253 0)
(0.00100976 -0.001693 0)
(0.000953706 -0.00174315 0)
(0.000898037 -0.00179286 0)
(0.000842783 -0.00184201 0)
(0.000787974 -0.00189044 0)
(0.000733643 -0.00193802 0)
(0.000679824 -0.00198459 0)
(0.000626559 -0.00202995 0)
(0.000573893 -0.00207391 0)
(0.000521877 -0.00211627 0)
(0.000470565 -0.00215676 0)
(0.000420011 -0.00219511 0)
(0.000370261 -0.002231 0)
(0.00032135 -0.00226408 0)
(0.000273297 -0.00229396 0)
(0.000226089 -0.00232025 0)
(0.000179693 -0.00234254 0)
(0.000134033 -0.00236041 0)
(8.8984e-05 -0.0023735 0)
(4.43762e-05 -0.00238148 0)
(0 -0.00238062 0)
(0 -0.00237652 0)
(0 -0.00237237 0)
(0 -0.00236815 0)
(0 -0.00236382 0)
(0 -0.00235935 0)
(0 -0.0023547 0)
(0 -0.00234981 0)
(0 -0.00234462 0)
(0 -0.00233897 0)
(0 -0.0023324 0)
(0 -0.00232475 0)
(0 -0.00231594 0)
(0 -0.00230588 0)
(0 -0.00229456 0)
(0 -0.00228189 0)
(0 -0.00226783 0)
(0 -0.00225238 0)
(0 -0.00223547 0)
(0 -0.00221713 0)
(0 -0.00219733 0)
(0 -0.00217605 0)
(0 -0.00215332 0)
(0 -0.00212913 0)
(0 -0.00210347 0)
(0 -0.00207637 0)
(0 -0.0020478 0)
(0 -0.00201779 0)
(0 -0.0019863 0)
(0 -0.00195338 0)
(0 -0.00191899 0)
(0 -0.00188316 0)
(0 -0.00184584 0)
(0 -0.0018071 0)
(0 -0.00176687 0)
(0 -0.00172521 0)
(0 -0.00168204 0)
(0 -0.00163746 0)
(0 -0.00159133 0)
(9.90537e-05 -0.00154502 3.96425e-20)
(0.000197869 -0.00154883 -1.28283e-20)
(0.000296228 -0.0015551 -3.90616e-20)
(0.000393912 -0.00156372 -1.31615e-20)
(0.000490703 -0.00157454 1.2311e-20)
(0.000586412 -0.00158739 -3.00956e-22)
(0.000680857 -0.00160203 -1.27374e-20)
(0.00077383 -0.00161822 3.02077e-22)
(0.000865117 -0.00163566 2.35711e-20)
(0.000954513 -0.00165399 1.20073e-20)
(0.00104174 -0.00167276 1.08259e-20)
(0.00112652 -0.00169135 2.20647e-20)
(0.00120856 -0.00170905 -2.4415e-23)
(0.00128753 -0.00172505 9.01616e-21)
(0.00136301 -0.0017382 -7.15152e-22)
(0.00143433 -0.00174671 -1.88626e-20)
(0.00150067 -0.00174822 -1.97007e-20)
(0.00156163 -0.00174078 -1.02051e-20)
(0.00161767 -0.00172435 1.60283e-20)
(0.00167016 -0.00170114 2.8791e-20)
(0.00172104 -0.00167451 1.3072e-20)
(0.0017717 -0.00164692 -1.5807e-20)
(0.00182239 -0.00161915 -2.05699e-20)
(0.00187297 -0.00159124 -7.93843e-21)
(0.00192336 -0.00156321 -1.52965e-20)
(0.00197345 -0.00153501 6.61364e-21)
(0.00202318 -0.00150665 2.28306e-20)
(0.00207247 -0.00147813 2.22611e-22)
(0.00212128 -0.00144946 -2.0414e-21)
(0.00216955 -0.00142065 -9.63424e-21)
(0.00221723 -0.00139171 -9.81022e-21)
(0.00226428 -0.00136266 7.35278e-21)
(0.00231067 -0.00133351 1.28477e-20)
(0.00235636 -0.00130428 1.40839e-20)
(0.00240133 -0.00127498 2.18014e-20)
(0.00244554 -0.00124563 1.11059e-20)
(0.00248898 -0.00121624 -1.50382e-20)
(0.00253161 -0.00118683 -4.92031e-21)
(0.00257343 -0.00115741 7.7105e-21)
(0.00265452 -0.00109858 7.40839e-22)
(0.00269376 -0.00106919 -4.45284e-21)
(0.00273212 -0.00103984 -1.78491e-22)
(0.00276957 -0.00101053 -4.79557e-21)
(0.00280612 -0.000981276 -2.06828e-20)
(0.00284174 -0.000952073 -1.55125e-22)
(0.00287642 -0.000922929 5.41369e-21)
(0.00291015 -0.000893859 -4.45717e-21)
(0.00294293 -0.00086486 5.53144e-21)
(0.00297474 -0.000835938 5.21157e-21)
(0.00300558 -0.000807095 4.55908e-21)
(0.00303544 -0.000778331 8.30857e-21)
(0.00306432 -0.000749649 2.96764e-21)
(0.0030922 -0.00072105 -1.24771e-20)
(0.00311908 -0.000692533 -9.81949e-21)