/*--------------------------------*- C++ -*----------------------------------*\
| =========                 |                                                 |
| \\      /  F ield         | OpenFOAM: The Open Source CFD Toolbox           |
|  \\    /   O peration     | Version:  v2012                                 |
|   \\  /    A nd           | Website:  www.openfoam.com                      |
|    \\/     M anipulation  |                                                 |
\*---------------------------------------------------------------------------*/
FoamFile
{
    version     2.0;
    format      ascii;
    class       volScalarField;
    location    "9";
    object      sigmaEq;
}
// * * * * * * * * * * * * * * * * * * * * * * * * * * * * * * * * * * * * * //

dimensions      [1 -1 -2 0 0 0 0];


internalField   nonuniform List<scalar> 
16000
(
2.43e+08
2.43e+08
2.43e+08
2.43e+08
2.43e+08
2.43e+08
2.43e+08
2.43e+08
2.43e+08
2.43e+08
2.43e+08
2.43e+08
2.43e+08
2.43e+08
2.43e+08
2.43e+08
2.43e+08
2.43e+08
2.43e+08
2.43e+08
2.43e+08
2.43e+08
2.43e+08
2.43e+08
2.43e+08
2.43e+08
2.43e+08
2.43e+08
2.43e+08
2.43e+08
2.43e+08
2.3232e+08
2.23167e+08
2.15191e+08
2.08339e+08
2.02302e+08
1.97001e+08
1.92231e+08
1.87996e+08
1.84076e+08
2.43e+08
2.43e+08
2.43e+08
2.43e+08
2.43e+08
2.43e+08
2.43e+08
2.43e+08
2.43e+08
2.43e+08
2.43e+08
2.43e+08
2.43e+08
2.43e+08
2.43e+08
2.43e+08
2.43e+08
2.43e+08
2.43e+08
2.43e+08
2.43e+08
2.43e+08
2.43e+08
2.43e+08
2.43e+08
2.43e+08
2.43e+08
2.43e+08
2.43e+08
2.43e+08
2.42157e+08
2.31932e+08
2.23517e+08
2.1598e+08
2.09495e+08
2.03684e+08
1.9855e+08
1.9389e+08
1.89715e+08
1.85842e+08
2.43e+08
2.43e+08
2.43e+08
2.43e+08
2.43e+08
2.43e+08
2.43e+08
2.43e+08
2.43e+08
2.43e+08
2.43e+08
2.43e+08
2.43e+08
2.43e+08
2.43e+08
2.43e+08
2.43e+08
2.43e+08
2.43e+08
2.43e+08
2.43e+08
2.43e+08
2.43e+08
2.43e+08
2.43e+08
2.43e+08
2.43e+08
2.43e+08
2.43e+08
2.43e+08
2.40149e+08
2.31575e+08
2.24226e+08
2.17526e+08
2.11626e+08
2.06238e+08
2.01398e+08
1.96942e+08
1.9289e+08
1.89102e+08
2.43e+08
2.43e+08
2.43e+08
2.43e+08
2.43e+08
2.43e+08
2.43e+08
2.43e+08
2.43e+08
2.43e+08
2.43e+08
2.43e+08
2.43e+08
2.43e+08
2.43e+08
2.43e+08
2.43e+08
2.43e+08
2.43e+08
2.43e+08
2.43e+08
2.43e+08
2.43e+08
2.43e+08
2.43e+08
2.43e+08
2.43e+08
2.43e+08
2.43e+08
2.43e+08
2.38212e+08
2.31562e+08
2.25392e+08
2.19698e+08
2.14466e+08
2.09615e+08
2.05123e+08
2.00956e+08
1.97057e+08
1.93413e+08
2.43e+08
2.43e+08
2.43e+08
2.43e+08
2.43e+08
2.43e+08
2.43e+08
2.43e+08
2.43e+08
2.43e+08
2.43e+08
2.43e+08
2.43e+08
2.43e+08
2.43e+08
2.43e+08
2.43e+08
2.43e+08
2.43e+08
2.43e+08
2.43e+08
2.43e+08
2.43e+08
2.43e+08
2.43e+08
2.43e+08
2.43e+08
2.43e+08
2.43e+08
2.42503e+08
2.36864e+08
2.3209e+08
2.26997e+08
2.22289e+08
2.17734e+08
2.13416e+08
2.09325e+08
2.05454e+08
2.01767e+08
1.98282e+08
2.43e+08
2.43e+08
2.43e+08
2.43e+08
2.43e+08
2.43e+08
2.43e+08
2.43e+08
2.43e+08
2.43e+08
2.43e+08
2.43e+08
2.43e+08
2.43e+08
2.43e+08
2.43e+08
2.43e+08
2.43e+08
2.43e+08
2.43e+08
2.43e+08
2.43e+08
2.43e+08
2.43e+08
2.43e+08
2.43e+08
2.43e+08
2.43e+08
2.43e+08
2.40867e+08
2.36983e+08
2.32931e+08
2.28876e+08
2.24912e+08
2.20965e+08
2.17199e+08
2.1348e+08
2.09977e+08
2.06509e+08
2.03247e+08
2.43e+08
2.43e+08
2.43e+08
2.43e+08
2.43e+08
2.43e+08
2.43e+08
2.43e+08
2.43e+08
2.43e+08
2.43e+08
2.43e+08
2.43e+08
2.43e+08
2.43e+08
2.43e+08
2.43e+08
2.43e+08
2.43e+08
2.43e+08
2.43e+08
2.43e+08
2.43e+08
2.43e+08
2.43e+08
2.43e+08
2.43e+08
2.43e+08
2.43e+08
2.40325e+08
2.36758e+08
2.34116e+08
2.30887e+08
2.27439e+08
2.24025e+08
2.20733e+08
2.17368e+08
2.14228e+08
2.1099e+08
2.07979e+08
2.43e+08
2.43e+08
2.43e+08
2.43e+08
2.43e+08
2.43e+08
2.43e+08
2.43e+08
2.43e+08
2.43e+08
2.43e+08
2.43e+08
2.43e+08
2.43e+08
2.43e+08
2.43e+08
2.43e+08
2.43e+08
2.43e+08
2.43e+08
2.43e+08
2.43e+08
2.43e+08
2.43e+08
2.43e+08
2.43e+08
2.43e+08
2.43e+08
2.42307e+08
2.40192e+08
2.37839e+08
2.35258e+08
2.32489e+08
2.29661e+08
2.26739e+08
2.2384e+08
2.20879e+08
2.18017e+08
2.1508e+08
2.12268e+08
2.43e+08
2.43e+08
2.43e+08
2.43e+08
2.43e+08
2.43e+08
2.43e+08
2.43e+08
2.43e+08
2.43e+08
2.43e+08
2.43e+08
2.43e+08
2.43e+08
2.43e+08
2.43e+08
2.43e+08
2.43e+08
2.43e+08
2.43e+08
2.43e+08
2.43e+08
2.43e+08
2.43e+08
2.43e+08
2.43e+08
2.43e+08
2.43e+08
2.41944e+08
2.40332e+08
2.38192e+08
2.36257e+08
2.33933e+08
2.31524e+08
2.29007e+08
2.26443e+08
2.23813e+08
2.21235e+08
2.18559e+08
2.15974e+08
2.43e+08
2.43e+08
2.43e+08
2.43e+08
2.43e+08
2.43e+08
2.43e+08
2.43e+08
2.43e+08
2.43e+08
2.43e+08
2.43e+08
2.43e+08
2.43e+08
2.43e+08
2.43e+08
2.43e+08
2.43e+08
2.43e+08
2.43e+08
2.43e+08
2.43e+08
2.43e+08
2.43e+08
2.43e+08
2.43e+08
2.43e+08
2.42676e+08
2.41616e+08
2.40337e+08
2.38677e+08
2.36927e+08
2.34908e+08
2.32855e+08
2.30625e+08
2.28408e+08
2.26055e+08
2.23775e+08
2.21351e+08
2.19007e+08
2.43e+08
2.43e+08
2.43e+08
2.43e+08
2.43e+08
2.43e+08
2.43e+08
2.43e+08
2.43e+08
2.43e+08
2.43e+08
2.43e+08
2.43e+08
2.43e+08
2.43e+08
2.43e+08
2.43e+08
2.43e+08
2.43e+08
2.43e+08
2.43e+08
2.43e+08
2.43e+08
2.43e+08
2.43e+08
2.43e+08
2.42609e+08
2.41986e+08
2.41119e+08
2.39996e+08
2.38566e+08
2.37101e+08
2.35348e+08
2.33601e+08
2.31654e+08
2.29734e+08
2.27654e+08
2.25647e+08
2.23475e+08
2.21364e+08
2.43e+08
2.43e+08
2.43e+08
2.43e+08
2.43e+08
2.43e+08
2.43e+08
2.43e+08
2.43e+08
2.43e+08
2.43e+08
2.43e+08
2.43e+08
2.43e+08
2.43e+08
2.43e+08
2.43e+08
2.43e+08
2.43e+08
2.43e+08
2.43e+08
2.43e+08
2.43e+08
2.42753e+08
2.42263e+08
2.41867e+08
2.41455e+08
2.40886e+08
2.40061e+08
2.39094e+08
2.3779e+08
2.36636e+08
2.35171e+08
2.33684e+08
2.32042e+08
2.30383e+08
2.28591e+08
2.26839e+08
2.24929e+08
2.2305e+08
2.43e+08
2.43e+08
2.43e+08
2.43e+08
2.43e+08
2.43e+08
2.43e+08
2.43e+08
2.43e+08
2.43e+08
2.43e+08
2.43e+08
2.43e+08
2.43e+08
2.43e+08
2.43e+08
2.43e+08
2.43e+08
2.42512e+08
2.42097e+08
2.41646e+08
2.4126e+08
2.40908e+08
2.4065e+08
2.40353e+08
2.40033e+08
2.39586e+08
2.39053e+08
2.38377e+08
2.37525e+08
2.36645e+08
2.3572e+08
2.34441e+08
2.33246e+08
2.31841e+08
2.30474e+08
2.28931e+08
2.27449e+08
2.25785e+08
2.24142e+08
2.43e+08
2.43e+08
2.43e+08
2.43e+08
2.43e+08
2.43e+08
2.43e+08
2.43e+08
2.43e+08
2.43e+08
2.43e+08
2.43e+08
2.43e+08
2.42969e+08
2.41534e+08
2.40932e+08
2.4031e+08
2.39928e+08
2.3947e+08
2.39168e+08
2.38821e+08
2.38612e+08
2.38356e+08
2.38166e+08
2.37878e+08
2.37638e+08
2.37311e+08
2.36925e+08
2.36497e+08
2.35826e+08
2.34694e+08
2.34296e+08
2.3343e+08
2.32371e+08
2.31245e+08
2.30114e+08
2.28807e+08
2.27576e+08
2.26135e+08
2.24725e+08
2.43e+08
2.43e+08
2.43e+08
2.43e+08
2.43e+08
2.43e+08
2.43e+08
2.43e+08
2.43e+08
2.43e+08
2.43e+08
2.4076e+08
2.39403e+08
2.38723e+08
2.38065e+08
2.37569e+08
2.37016e+08
2.36691e+08
2.36278e+08
2.36025e+08
2.35757e+08
2.35607e+08
2.35453e+08
2.3536e+08
2.35226e+08
2.35087e+08
2.3487e+08
2.34627e+08
2.34244e+08
2.33913e+08
2.33274e+08
2.3259e+08
2.31945e+08
2.31176e+08
2.30285e+08
2.29391e+08
2.28322e+08
2.27305e+08
2.26096e+08
2.24883e+08
2.43e+08
2.43e+08
2.43e+08
2.43e+08
2.43e+08
2.43e+08
2.43e+08
2.43e+08
2.42273e+08
2.39034e+08
2.37484e+08
2.36711e+08
2.35735e+08
2.35082e+08
2.34223e+08
2.33709e+08
2.33216e+08
2.3298e+08
2.32728e+08
2.32638e+08
2.32527e+08
2.32519e+08
2.32482e+08
2.32492e+08
2.32457e+08
2.32419e+08
2.32321e+08
2.32181e+08
2.31947e+08
2.31696e+08
2.31201e+08
2.30909e+08
2.30356e+08
2.29806e+08
2.29111e+08
2.284e+08
2.27549e+08
2.26711e+08
2.25717e+08
2.24678e+08
2.43e+08
2.43e+08
2.43e+08
2.43e+08
2.43e+08
2.43e+08
2.42233e+08
2.38043e+08
2.35911e+08
2.34889e+08
2.33479e+08
2.3241e+08
2.31262e+08
2.30658e+08
2.30018e+08
2.29704e+08
2.29366e+08
2.29263e+08
2.29133e+08
2.29161e+08
2.29167e+08
2.29274e+08
2.29354e+08
2.29481e+08
2.2957e+08
2.29657e+08
2.29691e+08
2.29692e+08
2.29602e+08
2.295e+08
2.29259e+08
2.28994e+08
2.28633e+08
2.28237e+08
2.27717e+08
2.27194e+08
2.26516e+08
2.25866e+08
2.25051e+08
2.24189e+08
2.43e+08
2.43e+08
2.43e+08
2.43e+08
2.43e+08
2.38191e+08
2.34952e+08
2.33547e+08
2.31489e+08
2.30055e+08
2.28498e+08
2.27682e+08
2.26742e+08
2.26283e+08
2.25766e+08
2.25576e+08
2.25376e+08
2.25401e+08
2.2542e+08
2.25586e+08
2.25735e+08
2.25978e+08
2.2618e+08
2.26447e+08
2.26634e+08
2.26869e+08
2.26988e+08
2.27109e+08
2.27159e+08
2.27189e+08
2.27094e+08
2.27022e+08
2.26791e+08
2.26577e+08
2.26204e+08
2.25846e+08
2.25329e+08
2.24835e+08
2.24186e+08
2.23472e+08
2.43e+08
2.43e+08
2.43e+08
2.40678e+08
2.35109e+08
2.33117e+08
2.30267e+08
2.28343e+08
2.26156e+08
2.2498e+08
2.23605e+08
2.22876e+08
2.22081e+08
2.21742e+08
2.21392e+08
2.21352e+08
2.21313e+08
2.21487e+08
2.21652e+08
2.21961e+08
2.22245e+08
2.22624e+08
2.22958e+08
2.23346e+08
2.23686e+08
2.24019e+08
2.24362e+08
2.24558e+08
2.24742e+08
2.24896e+08
2.24941e+08
2.24984e+08
2.24894e+08
2.24809e+08
2.24576e+08
2.24359e+08
2.23985e+08
2.23632e+08
2.2313e+08
2.22555e+08
2.43e+08
2.43e+08
2.38104e+08
2.34098e+08
2.30482e+08
2.27671e+08
2.24686e+08
2.2286e+08
2.20907e+08
2.19727e+08
2.18541e+08
2.17921e+08
2.17326e+08
2.17131e+08
2.16967e+08
2.17079e+08
2.17218e+08
2.17539e+08
2.17874e+08
2.18322e+08
2.18767e+08
2.19275e+08
2.19755e+08
2.20287e+08
2.20725e+08
2.21301e+08
2.21586e+08
2.21875e+08
2.2227e+08
2.22543e+08
2.22729e+08
2.22909e+08
2.22938e+08
2.22993e+08
2.22878e+08
2.22796e+08
2.22544e+08
2.2232e+08
2.21947e+08
2.21495e+08
2.43e+08
2.36992e+08
2.32861e+08
2.28259e+08
2.24676e+08
2.21587e+08
2.19025e+08
2.17072e+08
2.15389e+08
2.14293e+08
2.13348e+08
2.12873e+08
2.12495e+08
2.12468e+08
2.12505e+08
2.1279e+08
2.13112e+08
2.136e+08
2.141e+08
2.14704e+08
2.15293e+08
2.15947e+08
2.16544e+08
2.17206e+08
2.17725e+08
2.18385e+08
2.19179e+08
2.19409e+08
2.1976e+08
2.20223e+08
2.20495e+08
2.20794e+08
2.20944e+08
2.211e+08
2.21112e+08
2.21131e+08
2.21005e+08
2.20883e+08
2.20635e+08
2.20288e+08
2.38188e+08
2.315e+08
2.26561e+08
2.2174e+08
2.18363e+08
2.15258e+08
2.12929e+08
2.11102e+08
2.09679e+08
2.08753e+08
2.08057e+08
2.07775e+08
2.07628e+08
2.07799e+08
2.08046e+08
2.08521e+08
2.0903e+08
2.09698e+08
2.10363e+08
2.11133e+08
2.1187e+08
2.1267e+08
2.13418e+08
2.14173e+08
2.14901e+08
2.15507e+08
2.16241e+08
2.16978e+08
2.17384e+08
2.17923e+08
2.18289e+08
2.1868e+08
2.18932e+08
2.19187e+08
2.19302e+08
2.19422e+08
2.19399e+08
2.19375e+08
2.19233e+08
2.18982e+08
2.3196e+08
2.2502e+08
2.19756e+08
2.15148e+08
2.11711e+08
2.08832e+08
2.06681e+08
2.05065e+08
2.03885e+08
2.03181e+08
2.02736e+08
2.02676e+08
2.02769e+08
2.03151e+08
2.03616e+08
2.04287e+08
2.04991e+08
2.05834e+08
2.06672e+08
2.07599e+08
2.08489e+08
2.09431e+08
2.10315e+08
2.11218e+08
2.12062e+08
2.12873e+08
2.1368e+08
2.14339e+08
2.14978e+08
2.15574e+08
2.16064e+08
2.16548e+08
2.16893e+08
2.17244e+08
2.17445e+08
2.17658e+08
2.17723e+08
2.17788e+08
2.17737e+08
2.17572e+08
2.24683e+08
2.18025e+08
2.12621e+08
2.08256e+08
2.04907e+08
2.02275e+08
2.00331e+08
1.98975e+08
1.98052e+08
1.97606e+08
1.97424e+08
1.97611e+08
1.9795e+08
1.9856e+08
1.99249e+08
2.00124e+08
2.01027e+08
2.02048e+08
2.03062e+08
2.04139e+08
2.05187e+08
2.06253e+08
2.07279e+08
2.08283e+08
2.09247e+08
2.1016e+08
2.11026e+08
2.11878e+08
2.1257e+08
2.13294e+08
2.1385e+08
2.14432e+08
2.14852e+08
2.15289e+08
2.15569e+08
2.15861e+08
2.16006e+08
2.16146e+08
2.16179e+08
2.16089e+08
2.16727e+08
2.10302e+08
2.05087e+08
2.01026e+08
1.97879e+08
1.95565e+08
1.93881e+08
1.92833e+08
1.92193e+08
1.92037e+08
1.92132e+08
1.92584e+08
1.93179e+08
1.94027e+08
1.94942e+08
1.96027e+08
1.97127e+08
1.98331e+08
1.99514e+08
2.00753e+08
2.01945e+08
2.03154e+08
2.04302e+08
2.05436e+08
2.06502e+08
2.07528e+08
2.08485e+08
2.09384e+08
2.10199e+08
2.10973e+08
2.11636e+08
2.12277e+08
2.12785e+08
2.13288e+08
2.13647e+08
2.14005e+08
2.14226e+08
2.14431e+08
2.14538e+08
2.14514e+08
2.08034e+08
2.02031e+08
1.97153e+08
1.9348e+08
1.90651e+08
1.88704e+08
1.87344e+08
1.8664e+08
1.86318e+08
1.86478e+08
1.8687e+08
1.87605e+08
1.88466e+08
1.8956e+08
1.90708e+08
1.92003e+08
1.93304e+08
1.94686e+08
1.9604e+08
1.97427e+08
1.98765e+08
2.00099e+08
2.01369e+08
2.02612e+08
2.03779e+08
2.04909e+08
2.05943e+08
2.06951e+08
2.07831e+08
2.087e+08
2.09424e+08
2.10147e+08
2.10716e+08
2.11289e+08
2.11709e+08
2.12132e+08
2.12414e+08
2.12679e+08
2.1285e+08
2.12884e+08
1.9885e+08
1.93308e+08
1.88872e+08
1.85639e+08
1.83212e+08
1.81683e+08
1.80705e+08
1.80384e+08
1.80416e+08
1.80919e+08
1.81629e+08
1.82662e+08
1.838e+08
1.8515e+08
1.86535e+08
1.88046e+08
1.89546e+08
1.9111e+08
1.9263e+08
1.9417e+08
1.95644e+08
1.97109e+08
1.98492e+08
1.99844e+08
2.01106e+08
2.02324e+08
2.03443e+08
2.04517e+08
2.05479e+08
2.06403e+08
2.07203e+08
2.07977e+08
2.08614e+08
2.09238e+08
2.09721e+08
2.10192e+08
2.10535e+08
2.10847e+08
2.11078e+08
2.11161e+08
1.89205e+08
1.84189e+08
1.80264e+08
1.77531e+08
1.75576e+08
1.74511e+08
1.73966e+08
1.74065e+08
1.74485e+08
1.75353e+08
1.76401e+08
1.77746e+08
1.79173e+08
1.80784e+08
1.82411e+08
1.84139e+08
1.85838e+08
1.8758e+08
1.89265e+08
1.90951e+08
1.92561e+08
1.94145e+08
1.9564e+08
1.97094e+08
1.98446e+08
1.99754e+08
2.00948e+08
2.02101e+08
2.03126e+08
2.04122e+08
2.04977e+08
2.05813e+08
2.06503e+08
2.07182e+08
2.07715e+08
2.08236e+08
2.08628e+08
2.08985e+08
2.09266e+08
2.09395e+08
1.79218e+08
1.7476e+08
1.71393e+08
1.69202e+08
1.6777e+08
1.67211e+08
1.6714e+08
1.67689e+08
1.68526e+08
1.69783e+08
1.71187e+08
1.72859e+08
1.74583e+08
1.76465e+08
1.78335e+08
1.80284e+08
1.82183e+08
1.84104e+08
1.8595e+08
1.87782e+08
1.89521e+08
1.91224e+08
1.92824e+08
1.94374e+08
1.95812e+08
1.97198e+08
1.98464e+08
1.99679e+08
2.00768e+08
2.01814e+08
2.02726e+08
2.03606e+08
2.04347e+08
2.05066e+08
2.05647e+08
2.06205e+08
2.06643e+08
2.07036e+08
2.07363e+08
2.07528e+08
1.68941e+08
1.65068e+08
1.62296e+08
1.60685e+08
1.59816e+08
1.59796e+08
1.60234e+08
1.6126e+08
1.62538e+08
1.642e+08
1.65974e+08
1.67981e+08
1.70009e+08
1.72163e+08
1.74281e+08
1.76448e+08
1.78546e+08
1.80642e+08
1.82647e+08
1.84619e+08
1.86486e+08
1.88301e+08
1.90003e+08
1.91645e+08
1.93166e+08
1.94628e+08
1.95962e+08
1.97243e+08
1.98389e+08
1.99491e+08
2.00453e+08
2.01382e+08
2.02168e+08
2.02929e+08
2.03552e+08
2.04148e+08
2.04627e+08
2.05055e+08
2.05421e+08
2.05622e+08
1.58442e+08
1.55175e+08
1.53027e+08
1.52027e+08
1.51756e+08
1.52306e+08
1.53281e+08
1.54807e+08
1.56544e+08
1.58627e+08
1.60783e+08
1.63134e+08
1.65472e+08
1.67903e+08
1.70268e+08
1.72657e+08
1.74951e+08
1.77223e+08
1.79383e+08
1.81493e+08
1.83483e+08
1.85408e+08
1.87207e+08
1.88936e+08
1.90534e+08
1.92065e+08
1.93461e+08
1.94797e+08
1.95994e+08
1.97141e+08
1.98146e+08
1.99112e+08
1.99937e+08
2.0073e+08
2.01388e+08
2.02013e+08
2.02526e+08
2.02979e+08
2.0338e+08
2.03608e+08
1.47769e+08
1.45124e+08
1.43621e+08
1.43259e+08
1.43611e+08
1.44754e+08
1.46287e+08
1.48328e+08
1.50539e+08
1.53049e+08
1.55592e+08
1.58289e+08
1.60937e+08
1.63642e+08
1.66253e+08
1.68857e+08
1.71344e+08
1.73784e+08
1.76095e+08
1.78337e+08
1.80446e+08
1.82474e+08
1.84367e+08
1.86178e+08
1.87851e+08
1.89447e+08
1.90905e+08
1.92294e+08
1.93543e+08
1.94735e+08
1.95784e+08
1.9679e+08
1.97653e+08
1.98482e+08
1.99176e+08
1.99833e+08
2.00379e+08
2.00863e+08
2.01295e+08
2.01552e+08
1.36973e+08
1.34965e+08
1.34131e+08
1.34432e+08
1.35434e+08
1.37193e+08
1.39303e+08
1.41874e+08
1.44568e+08
1.47514e+08
1.50448e+08
1.53493e+08
1.56452e+08
1.59431e+08
1.62286e+08
1.65104e+08
1.67781e+08
1.70389e+08
1.72848e+08
1.75221e+08
1.77444e+08
1.79575e+08
1.81557e+08
1.83447e+08
1.85191e+08
1.86849e+08
1.88361e+08
1.89799e+08
1.91091e+08
1.92322e+08
1.93406e+08
1.94444e+08
1.95335e+08
1.9619e+08
1.96907e+08
1.97586e+08
1.98155e+08
1.98656e+08
1.99112e+08
1.99387e+08
1.2609e+08
1.2473e+08
1.24583e+08
1.25569e+08
1.2724e+08
1.29632e+08
1.3233e+08
1.35437e+08
1.38617e+08
1.41997e+08
1.45319e+08
1.48705e+08
1.51968e+08
1.55211e+08
1.58302e+08
1.61324e+08
1.64183e+08
1.66946e+08
1.69546e+08
1.72037e+08
1.7437e+08
1.76591e+08
1.78658e+08
1.80617e+08
1.82428e+08
1.8414e+08
1.85707e+08
1.87187e+08
1.88525e+08
1.89791e+08
1.90914e+08
1.91982e+08
1.92909e+08
1.93793e+08
1.94543e+08
1.95252e+08
1.95848e+08
1.96381e+08
1.96859e+08
1.97164e+08
1.15167e+08
1.14468e+08
1.15032e+08
1.1673e+08
1.19094e+08
1.22136e+08
1.25433e+08
1.29084e+08
1.32752e+08
1.36565e+08
1.40271e+08
1.43995e+08
1.47556e+08
1.51061e+08
1.54382e+08
1.57605e+08
1.60641e+08
1.6356e+08
1.66297e+08
1.68909e+08
1.71348e+08
1.73661e+08
1.75812e+08
1.77843e+08
1.79719e+08
1.81487e+08
1.83106e+08
1.84631e+08
1.86008e+08
1.8731e+08
1.88464e+08
1.89561e+08
1.90509e+08
1.91417e+08
1.9218e+08
1.92907e+08
1.93514e+08
1.94058e+08
1.94547e+08
1.9486e+08
1.04222e+08
1.04201e+08
1.05497e+08
1.07932e+08
1.11005e+08
1.1471e+08
1.1861e+08
1.22802e+08
1.26951e+08
1.31185e+08
1.35265e+08
1.3931e+08
1.43157e+08
1.46905e+08
1.50444e+08
1.5385e+08
1.57053e+08
1.60108e+08
1.62971e+08
1.65684e+08
1.6822e+08
1.70608e+08
1.72833e+08
1.74918e+08
1.76854e+08
1.78659e+08
1.80327e+08
1.81876e+08
1.83296e+08
1.84614e+08
1.85808e+08
1.86917e+08
1.87903e+08
1.88825e+08
1.89623e+08
1.90372e+08
1.91007e+08
1.91587e+08
1.92091e+08
1.92447e+08
9.33059e+07
9.39815e+07
9.60441e+07
9.92454e+07
1.03053e+08
1.07431e+08
1.11941e+08
1.16669e+08
1.21293e+08
1.25938e+08
1.30379e+08
1.34736e+08
1.38856e+08
1.42841e+08
1.46585e+08
1.50173e+08
1.5353e+08
1.56725e+08
1.5971e+08
1.62529e+08
1.65162e+08
1.6763e+08
1.69934e+08
1.7208e+08
1.74081e+08
1.75935e+08
1.77655e+08
1.79246e+08
1.8071e+08
1.82063e+08
1.83291e+08
1.84433e+08
1.85444e+08
1.86395e+08
1.87208e+08
1.87981e+08
1.8862e+08
1.8921e+08
1.89714e+08
1.90057e+08
8.24216e+07
8.38226e+07
8.66855e+07
9.06894e+07
9.52471e+07
1.00309e+08
1.05419e+08
1.10673e+08
1.15753e+08
1.2079e+08
1.25572e+08
1.30218e+08
1.34593e+08
1.3879e+08
1.42726e+08
1.46469e+08
1.49972e+08
1.53279e+08
1.56373e+08
1.59274e+08
1.61988e+08
1.64516e+08
1.66882e+08
1.69068e+08
1.71119e+08
1.72992e+08
1.74759e+08
1.76349e+08
1.7786e+08
1.79194e+08
1.80474e+08
1.8158e+08
1.82652e+08
1.83558e+08
1.84441e+08
1.85174e+08
1.85885e+08
1.8647e+08
1.87019e+08
1.87419e+08
7.16265e+07
7.37909e+07
7.75077e+07
8.23526e+07
8.76856e+07
9.34313e+07
9.91379e+07
1.049e+08
1.10417e+08
1.15823e+08
1.20925e+08
1.25839e+08
1.30449e+08
1.34843e+08
1.38952e+08
1.42845e+08
1.4647e+08
1.49899e+08
1.53094e+08
1.5608e+08
1.5888e+08
1.61466e+08
1.63906e+08
1.66134e+08
1.68249e+08
1.70156e+08
1.7198e+08
1.73599e+08
1.75163e+08
1.76526e+08
1.77857e+08
1.78996e+08
1.80118e+08
1.81064e+08
1.81998e+08
1.82775e+08
1.83543e+08
1.8415e+08
1.84792e+08
1.85095e+08
6.09093e+07
6.39003e+07
6.85345e+07
7.42728e+07
8.03902e+07
8.68222e+07
9.3099e+07
9.93459e+07
1.0527e+08
1.11012e+08
1.16406e+08
1.21557e+08
1.26381e+08
1.30945e+08
1.35214e+08
1.3923e+08
1.42978e+08
1.46487e+08
1.4977e+08
1.52825e+08
1.55684e+08
1.58325e+08
1.60809e+08
1.63075e+08
1.65229e+08
1.67154e+08
1.69019e+08
1.70633e+08
1.72247e+08
1.73574e+08
1.74975e+08
1.76033e+08
1.77263e+08
1.78061e+08
1.79175e+08
1.79713e+08
1.80793e+08
1.81063e+08
1.82247e+08
1.82209e+08
5.03385e+07
5.42471e+07
5.98929e+07
6.65696e+07
7.34882e+07
8.05809e+07
8.74035e+07
9.40935e+07
1.00385e+08
1.06431e+08
1.1208e+08
1.17441e+08
1.22452e+08
1.27159e+08
1.31566e+08
1.35678e+08
1.39492e+08
1.43114e+08
1.46485e+08
1.4958e+08
1.52518e+08
1.55179e+08
1.57727e+08
1.60005e+08
1.62211e+08
1.64144e+08
1.66053e+08
1.67669e+08
1.69324e+08
1.70649e+08
1.72089e+08
1.73143e+08
1.74404e+08
1.75209e+08
1.76329e+08
1.76915e+08
1.77934e+08
1.78365e+08
1.79327e+08
1.79909e+08
3.99015e+07
4.48883e+07
5.16626e+07
5.93364e+07
6.70301e+07
7.47639e+07
8.20673e+07
8.91633e+07
9.5779e+07
1.02074e+08
1.07944e+08
1.13467e+08
1.18631e+08
1.23446e+08
1.27974e+08
1.32154e+08
1.36111e+08
1.39804e+08
1.43181e+08
1.46369e+08
1.49308e+08
1.52042e+08
1.546e+08
1.56934e+08
1.59155e+08
1.61137e+08
1.63063e+08
1.64733e+08
1.664e+08
1.67798e+08
1.69235e+08
1.70401e+08
1.71627e+08
1.72607e+08
1.73617e+08
1.74471e+08
1.75222e+08
1.76025e+08
1.764e+08
1.77447e+08
2.96923e+07
3.60222e+07
4.40741e+07
5.27511e+07
6.11927e+07
6.94734e+07
7.72045e+07
8.46215e+07
9.14778e+07
9.79929e+07
1.04011e+08
1.09691e+08
1.14956e+08
1.19884e+08
1.24505e+08
1.28739e+08
1.32849e+08
1.3642e+08
1.39918e+08
1.43068e+08
1.46068e+08
1.48802e+08
1.51392e+08
1.53733e+08
1.55972e+08
1.57958e+08
1.59892e+08
1.61561e+08
1.6323e+08
1.64621e+08
1.66052e+08
1.67209e+08
1.68415e+08
1.69389e+08
1.70359e+08
1.7122e+08
1.71899e+08
1.72741e+08
1.72994e+08
1.74164e+08
1.9791e+07
2.79534e+07
3.73999e+07
4.70302e+07
5.60706e+07
6.48197e+07
7.28218e+07
8.05246e+07
8.76003e+07
9.42286e+07
1.00371e+08
1.06141e+08
1.11457e+08
1.16482e+08
1.21077e+08
1.25445e+08
1.29415e+08
1.33117e+08
1.36629e+08
1.39824e+08
1.42856e+08
1.45608e+08
1.48221e+08
1.50579e+08
1.52828e+08
1.54838e+08
1.56767e+08
1.58472e+08
1.60116e+08
1.61557e+08
1.62938e+08
1.6416e+08
1.65281e+08
1.66338e+08
1.67179e+08
1.68141e+08
1.6865e+08
1.69612e+08
1.697e+08
1.71039e+08
1.06914e+07
2.14307e+07
3.2125e+07
4.24298e+07
5.19012e+07
6.08759e+07
6.91155e+07
7.69076e+07
8.40343e+07
9.07391e+07
9.69499e+07
1.02739e+08
1.0813e+08
1.13128e+08
1.17796e+08
1.22114e+08
1.26108e+08
1.29881e+08
1.33378e+08
1.36584e+08
1.39609e+08
1.42357e+08
1.44963e+08
1.47316e+08
1.49555e+08
1.51562e+08
1.53478e+08
1.55184e+08
1.56809e+08
1.58259e+08
1.59611e+08
1.60855e+08
1.61935e+08
1.63033e+08
1.63818e+08
1.64845e+08
1.65281e+08
1.66337e+08
1.66341e+08
1.6778e+08
6.28334e+06
1.7981e+07
2.89209e+07
3.93241e+07
4.88393e+07
5.78212e+07
6.5962e+07
7.38219e+07
8.10119e+07
8.76648e+07
9.3797e+07
9.96389e+07
1.04946e+08
1.09999e+08
1.14604e+08
1.18958e+08
1.22954e+08
1.26698e+08
1.30164e+08
1.33379e+08
1.36378e+08
1.39138e+08
1.41722e+08
1.44086e+08
1.46304e+08
1.48325e+08
1.50216e+08
1.5194e+08
1.53532e+08
1.55007e+08
1.56319e+08
1.57596e+08
1.58627e+08
1.59767e+08
1.605e+08
1.6158e+08
1.61974e+08
1.63092e+08
1.63083e+08
1.64574e+08
1.24932e+07
1.90611e+07
2.8247e+07
3.79258e+07
4.69583e+07
5.56588e+07
6.36973e+07
7.10933e+07
7.83204e+07
8.49083e+07
9.10227e+07
9.67528e+07
1.02038e+08
1.06999e+08
1.11575e+08
1.15868e+08
1.19823e+08
1.23539e+08
1.26969e+08
1.30163e+08
1.3313e+08
1.35871e+08
1.38428e+08
1.40778e+08
1.42971e+08
1.44982e+08
1.46848e+08
1.48571e+08
1.50139e+08
1.51622e+08
1.52906e+08
1.54203e+08
1.55204e+08
1.56376e+08
1.57077e+08
1.58201e+08
1.58564e+08
1.59734e+08
1.59702e+08
1.61223e+08
2.12943e+07
2.38111e+07
3.01872e+07
3.8308e+07
4.6385e+07
5.45356e+07
6.21803e+07
6.94303e+07
7.61112e+07
8.26079e+07
8.85659e+07
9.4143e+07
9.93484e+07
1.04187e+08
1.08709e+08
1.12908e+08
1.16828e+08
1.20466e+08
1.23859e+08
1.27001e+08
1.29931e+08
1.3264e+08
1.35162e+08
1.37492e+08
1.39653e+08
1.41654e+08
1.4349e+08
1.4521e+08
1.46748e+08
1.48237e+08
1.49493e+08
1.50802e+08
1.51779e+08
1.5297e+08
1.53652e+08
1.548e+08
1.55155e+08
1.56351e+08
1.56325e+08
1.57844e+08
3.03022e+07
3.04416e+07
3.42118e+07
4.03478e+07
4.71703e+07
5.43656e+07
6.13344e+07
6.82115e+07
7.45529e+07
8.06643e+07
8.6384e+07
9.17724e+07
9.68067e+07
1.01526e+08
1.05921e+08
1.10035e+08
1.13856e+08
1.17432e+08
1.20747e+08
1.23842e+08
1.26712e+08
1.29383e+08
1.31856e+08
1.34157e+08
1.36278e+08
1.38259e+08
1.40061e+08
1.41769e+08
1.43279e+08
1.44764e+08
1.45995e+08
1.47308e+08
1.48264e+08
1.49466e+08
1.50131e+08
1.51294e+08
1.51637e+08
1.52848e+08
1.52819e+08
1.54324e+08
3.9247e+07
3.7839e+07
3.95165e+07
4.37616e+07
4.90902e+07
5.52076e+07
6.13559e+07
6.7544e+07
7.34125e+07
7.92019e+07
8.45699e+07
8.97454e+07
9.45443e+07
9.91012e+07
1.03337e+08
1.07322e+08
1.11031e+08
1.14503e+08
1.17735e+08
1.2075e+08
1.23552e+08
1.26163e+08
1.28582e+08
1.30839e+08
1.32914e+08
1.34864e+08
1.36629e+08
1.38316e+08
1.39795e+08
1.41267e+08
1.42474e+08
1.43783e+08
1.4472e+08
1.45924e+08
1.46577e+08
1.47746e+08
1.48085e+08
1.493e+08
1.49277e+08
1.50755e+08
4.8008e+07
4.54795e+07
4.5556e+07
4.80922e+07
5.19369e+07
5.68655e+07
6.20432e+07
6.75449e+07
7.28392e+07
7.81292e+07
8.31293e+07
8.79668e+07
9.25097e+07
9.68362e+07
1.00883e+08
1.04707e+08
1.08273e+08
1.11628e+08
1.14749e+08
1.17677e+08
1.20392e+08
1.22937e+08
1.25287e+08
1.27494e+08
1.29515e+08
1.31427e+08
1.33148e+08
1.34808e+08
1.36253e+08
1.37706e+08
1.38887e+08
1.40182e+08
1.411e+08
1.42295e+08
1.42935e+08
1.44097e+08
1.4443e+08
1.4564e+08
1.45618e+08
1.47063e+08
5.6579e+07
5.31809e+07
5.19803e+07
5.30776e+07
5.55304e+07
5.92424e+07
6.34204e+07
6.80774e+07
7.27216e+07
7.74767e+07
8.20227e+07
8.65064e+07
9.07263e+07
9.48033e+07
9.86174e+07
1.02256e+08
1.05651e+08
1.08864e+08
1.11855e+08
1.14673e+08
1.17289e+08
1.19749e+08
1.22021e+08
1.24162e+08
1.2612e+08
1.27982e+08
1.29654e+08
1.31276e+08
1.32683e+08
1.34107e+08
1.3526e+08
1.36536e+08
1.37434e+08
1.38619e+08
1.39245e+08
1.40404e+08
1.40727e+08
1.41926e+08
1.41912e+08
1.43314e+08
6.49259e+07
6.08011e+07
5.85726e+07
5.84409e+07
5.96425e+07
6.21931e+07
6.53426e+07
6.91467e+07
7.3065e+07
7.72149e+07
8.12614e+07
8.53154e+07
8.91832e+07
9.29516e+07
9.6509e+07
9.99226e+07
1.03125e+08
1.06171e+08
1.09014e+08
1.11706e+08
1.14207e+08
1.16571e+08
1.18753e+08
1.20821e+08
1.22708e+08
1.24514e+08
1.2613e+08
1.27709e+08
1.29073e+08
1.30465e+08
1.31586e+08
1.32834e+08
1.33711e+08
1.34867e+08
1.35485e+08
1.36614e+08
1.36929e+08
1.38118e+08
1.38098e+08
1.39468e+08
7.304e+07
6.82952e+07
6.52004e+07
6.40289e+07
6.41213e+07
6.55803e+07
6.77386e+07
7.06543e+07
7.38221e+07
7.73249e+07
8.0824e+07
8.44169e+07
8.78851e+07
9.13201e+07
9.4582e+07
9.77489e+07
1.00729e+08
1.03588e+08
1.06262e+08
1.08811e+08
1.1118e+08
1.13434e+08
1.15512e+08
1.17493e+08
1.19299e+08
1.21036e+08
1.22588e+08
1.24112e+08
1.25427e+08
1.26772e+08
1.27859e+08
1.29066e+08
1.29923e+08
1.3105e+08
1.31656e+08
1.32797e+08
1.33085e+08
1.34228e+08
1.34235e+08
1.35531e+08
8.09153e+07
7.56186e+07
7.1784e+07
6.97131e+07
6.8826e+07
6.92888e+07
7.04957e+07
7.25458e+07
7.49407e+07
7.77712e+07
8.06883e+07
8.37787e+07
8.68163e+07
8.98778e+07
9.28189e+07
9.57061e+07
9.84433e+07
1.01091e+08
1.03578e+08
1.05965e+08
1.0819e+08
1.10318e+08
1.12282e+08
1.14167e+08
1.15883e+08
1.17546e+08
1.19027e+08
1.20495e+08
1.21754e+08
1.23058e+08
1.24104e+08
1.25277e+08
1.26117e+08
1.27196e+08
1.27837e+08
1.28856e+08
1.29092e+08
1.30296e+08
1.30263e+08
1.31566e+08
8.85349e+07
8.2745e+07
7.82619e+07
7.54106e+07
7.36589e+07
7.32158e+07
7.35382e+07
7.47467e+07
7.63802e+07
7.85245e+07
8.08401e+07
8.34029e+07
8.59804e+07
8.8643e+07
9.12342e+07
9.38191e+07
9.62887e+07
9.87057e+07
1.00986e+08
1.03195e+08
1.05258e+08
1.07249e+08
1.09085e+08
1.10864e+08
1.12476e+08
1.14059e+08
1.15454e+08
1.16864e+08
1.18048e+08
1.19312e+08
1.2029e+08
1.21434e+08
1.22208e+08
1.23248e+08
1.23834e+08
1.24734e+08
1.25185e+08
1.26243e+08
1.26282e+08
1.27484e+08
9.59048e+07
8.96621e+07
8.46024e+07
8.10607e+07
7.85393e+07
7.72777e+07
7.67771e+07
7.71887e+07
7.80754e+07
7.95376e+07
8.1239e+07
8.32565e+07
8.53519e+07
8.75914e+07
8.98099e+07
9.20688e+07
9.42505e+07
9.64154e+07
9.84721e+07
1.00485e+08
1.02372e+08
1.04208e+08
1.05907e+08
1.07563e+08
1.09067e+08
1.10551e+08
1.11861e+08
1.1319e+08
1.14308e+08
1.15508e+08
1.16426e+08
1.17533e+08
1.18236e+08
1.193e+08
1.19747e+08
1.20839e+08
1.21187e+08
1.2218e+08
1.22207e+08
1.23329e+08
1.03004e+08
9.63474e+07
9.07698e+07
8.6616e+07
8.34092e+07
8.14093e+07
8.01553e+07
7.98171e+07
7.99906e+07
8.07817e+07
8.18721e+07
8.33331e+07
8.49335e+07
8.67291e+07
8.85567e+07
9.04674e+07
9.23427e+07
9.42354e+07
9.60519e+07
9.78513e+07
9.95497e+07
1.01218e+08
1.02767e+08
1.04289e+08
1.05676e+08
1.07051e+08
1.08272e+08
1.09508e+08
1.10562e+08
1.11679e+08
1.12563e+08
1.13586e+08
1.14293e+08
1.15265e+08
1.15771e+08
1.16775e+08
1.17011e+08
1.18021e+08
1.1803e+08
1.19115e+08
1.09843e+08
1.02801e+08
9.67518e+07
9.20456e+07
8.82213e+07
8.55523e+07
8.36048e+07
8.25682e+07
8.20606e+07
8.22039e+07
8.26888e+07
8.35961e+07
8.46906e+07
8.6035e+07
8.74533e+07
8.90044e+07
9.05534e+07
9.21616e+07
9.37192e+07
9.52934e+07
9.67861e+07
9.82755e+07
9.96613e+07
1.01041e+08
1.02297e+08
1.03561e+08
1.04673e+08
1.05826e+08
1.06788e+08
1.07845e+08
1.08647e+08
1.09632e+08
1.10264e+08
1.11208e+08
1.11656e+08
1.12597e+08
1.12849e+08
1.13822e+08
1.13825e+08
1.1486e+08
1.16399e+08
1.09001e+08
1.02522e+08
9.73198e+07
9.29393e+07
8.96671e+07
8.7088e+07
8.54051e+07
8.42607e+07
8.37818e+07
8.3683e+07
8.40361e+07
8.46298e+07
8.55055e+07
8.651e+07
8.76782e+07
8.88921e+07
9.0193e+07
9.14819e+07
9.2811e+07
9.40892e+07
9.53827e+07
9.65978e+07
9.782e+07
9.89407e+07
1.00076e+08
1.01084e+08
1.0213e+08
1.03012e+08
1.03978e+08
1.04724e+08
1.05631e+08
1.06225e+08
1.07103e+08
1.07523e+08
1.0841e+08
1.08626e+08
1.09559e+08
1.09545e+08
1.10527e+08
1.22688e+08
1.14954e+08
1.08079e+08
1.02422e+08
9.75368e+07
9.37134e+07
9.05546e+07
8.8273e+07
8.65282e+07
8.54604e+07
8.47927e+07
8.46126e+07
8.47012e+07
8.51228e+07
8.56969e+07
8.64893e+07
8.7347e+07
8.83405e+07
8.93397e+07
9.04191e+07
9.14637e+07
9.25551e+07
9.35819e+07
9.46414e+07
9.56099e+07
9.66147e+07
9.74985e+07
9.84408e+07
9.9222e+07
1.00106e+08
1.00769e+08
1.01608e+08
1.02138e+08
1.02955e+08
1.03333e+08
1.04159e+08
1.04359e+08
1.05237e+08
1.05219e+08
1.06138e+08
1.28682e+08
1.20639e+08
1.13398e+08
1.07331e+08
1.01984e+08
9.76655e+07
9.39771e+07
9.11496e+07
8.88511e+07
8.72283e+07
8.60296e+07
8.532e+07
8.49322e+07
8.48736e+07
8.5033e+07
8.54183e+07
8.59251e+07
8.65849e+07
8.72933e+07
8.81023e+07
8.89089e+07
8.97817e+07
9.06156e+07
9.14977e+07
9.23107e+07
9.31707e+07
9.39304e+07
9.47535e+07
9.54365e+07
9.62213e+07
9.68084e+07
9.75643e+07
9.80361e+07
9.87827e+07
9.91164e+07
9.98824e+07
1.0005e+08
1.00873e+08
1.00841e+08
1.01696e+08
1.34402e+08
1.26064e+08
1.18488e+08
1.12038e+08
1.06276e+08
1.01498e+08
9.73276e+07
9.39905e+07
9.11736e+07
8.90288e+07
8.73116e+07
8.61097e+07
8.52344e+07
8.47505e+07
8.44694e+07
8.44847e+07
8.46142e+07
8.49545e+07
8.53502e+07
8.5888e+07
8.64396e+07
8.70859e+07
8.77125e+07
8.8408e+07
8.90526e+07
8.97599e+07
9.03827e+07
9.10811e+07
9.16533e+07
9.23354e+07
9.28343e+07
9.35041e+07
9.39081e+07
9.458e+07
9.48657e+07
9.5564e+07
9.57029e+07
9.64624e+07
9.64188e+07
9.72051e+07
1.39819e+08
1.31211e+08
1.23319e+08
1.16526e+08
1.10373e+08
1.05188e+08
1.00568e+08
9.67795e+07
9.34821e+07
9.08641e+07
8.86797e+07
8.69917e+07
8.57065e+07
8.47182e+07
8.40441e+07
8.36386e+07
8.34127e+07
8.34087e+07
8.3497e+07
8.37517e+07
8.40441e+07
8.44568e+07
8.48686e+07
8.53708e+07
8.58392e+07
8.63863e+07
8.68657e+07
8.74312e+07