/*--------------------------------*- C++ -*----------------------------------*\
| =========                 |                                                 |
| \\      /  F ield         | OpenFOAM: The Open Source CFD Toolbox           |
|  \\    /   O peration     | Version:  v2012                                 |
|   \\  /    A nd           | Website:  www.openfoam.com                      |
|    \\/     M anipulation  |                                                 |
\*---------------------------------------------------------------------------*/
FoamFile
{
    version     2.0;
    format      ascii;
    class       volScalarField;
    location    "1";
    object      epsilonPEq;
}
// * * * * * * * * * * * * * * * * * * * * * * * * * * * * * * * * * * * * * //

dimensions      [0 0 0 0 0 0 0];


internalField   nonuniform List<scalar> 
15946
(
0.000416441
9.46011e-05
0.000515139
0.00100048
0.000855359
0.000478488
0.000536799
0.000121344
0.000438896
0.000394571
0.000429279
0.000429628
4.98749e-05
0.000485384
0.00037755
0.000210204
0.000363769
0.000412046
0.000288499
0.000431359
0.000400485
0.000377017
0.000359447
0.000392815
0.000360429
0.000555222
0.000653402
0.000429585
0.000435328
0.00016895
0.000488483
1.20285e-05
0.000373807
0.000248971
0.000220602
0.000419275
0.00054128
0.000332254
0.000179831
0.000425084
0.000427115
0.000716979
0.000223017
0.000147663
0.000196309
0.000117326
0.000386327
0.000885942
0.00037621
0.000732162
0.000166559
0.000209099
0.000232011
0.000156105
0.000555123
0.000315311
0.000356397
0.00037513
0.000265275
0.000348454
0.000201924
0.00037643
0.000163249
0.000469251
0.00052476
0.000444204
3.22164e-05
2.57918e-05
0.000140018
0.000198645
0.000222345
0.000184868
0.000327754
0.000515397
0.000483473
0.000299778
0.000104098
0.000554475
0.000365415
0.000193663
0.000186847
0.000177966
0.000260103
0.000223682
0.000512227
0.000468746
0.000322739
0.000201229
0.000142918
0.000428219
0.000399611
0.000515007
0.000464199
0.000384059
0.000298156
0.000243694
0.000352647
0.000466793
0.000389897
0.000404553
0.000421742
0.000310425
0.000250036
0.000280403
0.000318141
0.000245234
0.000349054
0.000331827
0.000329022
0.000409723
0.000385363
0.000446477
0.000393815
0.000454035
0.000363844
0.000295659
0.000231527
0.000430076
0.000285936
0.000304625
0.000310524
0.000283413
0.000310155
0.000313802
0.000371507
0.000620986
0.000382123
0.000161806
0.000172347
0.000216468
0.00042423
0.000310855
0.00032237
0.00022445
0.000423507
0.000407136
0.000222638
0.000404323
0.000206327
0.000823641
0.000466375
0.000121369
0.000528979
0.000414124
0.000506629
6.18558e-05
0.000977837
0.000305503
0.000318234
0.000333029
0.000316469
0.000349725
0.000313876
0.000369011
0.000373181
0.000112726
0.000491822
0.000961479
0.00082735
0.000472524
0.00011113
0.000535528
0.000428353
7.82723e-05
0.000355057
0.000532042
0.000670566
0.000421783
0.000472235
4.89433e-05
0.000521772
5.56761e-05
0.00033579
0.000401239
0.000252484
0.000151296
0.000252751
0.000240366
0.000545714
0.000453921
0.000413114
8.66359e-05
0.000378258
0.000369688
0.000251449
0.000293002
0.000169721
0.000514176
0.000353096
0.000196455
0.000122727
0.000894868
0.000433733
0.000160854
0.000159777
0.000358314
0.000834184
0.000124111
0.000420424
0.000619313
0.000387415
0.00014189
0.000161368
0.000888382
0.000174525
0.00019596
0.000460223
0.000199901
0.000299634
0.00024118
0.000369688
0.000378258
0.000286612
0.00029518
0.000190171
0.000272933
0.000540614
7.79036e-05
0.000174525
0.000161368
6.07312e-05
0.00039825
0.000549314
0.000418336
0.000782298
0.00013389
0.000585761
0.000537787
0.000592751
0.000727923
0.000492512
2.91662e-05
0.000267084
0.000158677
0.000332986
0.000323645
0.000138859
0.000544432
0.000396829
0.00057497
0.00026304
0.000100304
0.000214045
0.000150679
0.000121369
0.000465747
0.000721965
0.000343177
0.000289484
0.000454269
0.000828153
6.18558e-05
0.000112726
0.000444494
0.000268495
0.0009206
0.000752142
0.000496012
0.0003544
0.00011113
0.000150679
0.000162573
0.000429543
0.000205598
0.000156612
0.000217962
0.000903498
0.000523951
0.000229463
0.000214045
0.000409734
0.0003909
0.000653738
0.000636865
0.000217049
0.000135453
0.000142016
0.000101587
5.30975e-05
0.000155012
0.000362288
0.000213134
0.000109017
0.000244734
2.62208e-05
0.000249048
4.89264e-05
0.000117042
0.00012007
0.000135595
0.000137565
0.000165364
0.000335099
0.000298584
0.000229175
0.000168146
0.000106235
0.000124396
0.000338594
0.000301152
0.000310634
4.82837e-05
0.000243649
0.000225608
0.000251151
0.000307371
7.49927e-05
7.50338e-05
0.000151675
0.000123156
0.00010894
0.000106543
0.000124223
0.000179602
0.000245923
0.000134543
0.000158865
7.44427e-05
0.000174158
0.000118415
0.000298802
0.000336309
0.000235415
0.000141308
0.000166978
0.000217548
5.8113e-05
0.000220615
0.000241281
0.000586569
0.000596402
6.94018e-05
0.000644454
0.000153634
0.000660141
0.000298313
5.10272e-05
0.000256644
0.000419069
0.000249361
0.000151537
0.000282108
0.000179977
0.000126574
0.000281362
7.75789e-05
0.000316781
0.0006449
0.000199453
0.000333552
0.000153735
0.00015699
5.36176e-05
8.7095e-05
0.000264067
0.000484946
0.000302416
0.000328998
0.000105225
0.00027725
0.000197223
0.000312936
0.00027669
9.55437e-05
0.000308108
0.000150849
0.000168206
0.000343235
0.000323419
0.000207957
0.000286835
0.000286934
0.000180127
0.000174363
0.000280073
0.000255143
0.000168196
0.000296656
0.000387676
0.000302385
0.000114286
0.000178192
0.000126969
0.000597286
0.000281088
0.000247084
0.000336195
0.000149703
0.000116869
0.000259298
0.000650301
0.000243517
0.000134375
0.000290957
0.000126859
0.000393858
0.000130127
0.000150472
0.000285106
0.000108894
0.000200763
0.000318696
0.000315155
0.000243468
0.000181848
0.00022948
7.92926e-05
0.000247705
0.000290554
0.000398797
0.000371076
0.00010749
0.000291581
0.000224134
0.000129762
0.000302434
9.86773e-05
0.000185482
0.00015915
0.000172577
0.000124035
0.000187066
0.000122928
0.000592318
0.000652692
0.000259442
0.000264394
0.0002043
0.00023655
0.00022736
0.000229468
0.000204681
0.000239606
0.000239602
2.82077e-05
2.8372e-05
0.000309012
0.000143842
0.000299527
4.77535e-05
0.000118461
0.000653107
6.58741e-06
0.000319964
0.000249236
0.000105788
0.000657936
0.000147443
4.32239e-05
0.00021217
0.00059207
0.000160675
0.000123527
0.000339351
0.00024423
0.000244001
0.000270555
3.80153e-06
0.000136918
9.22691e-05
0.000633681
0.000633347
0.00031446
0.000316606
0.000243081
0.000178328
0.000440469
1.68916e-05
0.000644347
7.41028e-05
0.000282108
0.000110113
0.000256189
5.51737e-05
0.000121459
0.000357006
0.000235103
0.000318263
0.000197648
0.000581902
0.000204317
0.000257741
1.87569e-05
0.000373923
0.000213079
6.63387e-05
0.000230961
2.31325e-05
0.000295997
0.000310201
0.000310919
3.05324e-05
0.000318198
0.000223902
0.000249646
8.66774e-05
0.000207034
0.000149405
0.000157949
0.000174928
0.000293689
0.000576544
0.000122099
0.000238242
0.000181486
0.000158544
0.000186391
0.000185141
0.000269318
0.000267723
0.000194084
0.000172052
0.000237628
0.000223788
0.000320199
0.00021629
0.000224875
0.000127625
0.000164647
0.000232406
6.55232e-05
7.97111e-05
0.000154488
0.000205094
5.62802e-05
0.000277364
0.000195924
0.000248698
0.000226234
0.000405584
0.000144924
0.000119737
9.68269e-05
0.000169651
0.000302774
0.000344953
0.000206906
0.000246104
0.000236901
1.67226e-05
7.12398e-05
2.50592e-05
0.000185299
0.000185624
0.000282225
2.09945e-05
0.000271527
0.000217086
0.000354928
0.000266344
0.000656857
0.000164546
0.000312361
9.89804e-05
7.14448e-05
6.89175e-05
0.000194322
0.000263167
0.000160856
0.00015634
0.000220833
0.000106206
9.43973e-05
4.60548e-05
0.000173307
0.000132094
0.000347575
6.58383e-05
9.72227e-05
0.000141696
0.000150864
9.52284e-05
0.000603831
0.00022446
0.000251739
0.000206555
0.00016884
0.000124138
0.000304715
0.000285878
0.000347256
0.000416839
0.000261827
0.000220999
0.00030716
0.000216899
0.000380155
0.00037338
0.000207184
0.000273552
0.000227995
0.000226348
0.000197519
0.000152286
0.000204071
0.000230553
0.00036849
7.79439e-05
0.000225178
0.000102879
8.6824e-05
0.000197819
0.000146761
0.000228011
0.000145059
0.000195611
0.000105754
7.69688e-05
0.000348817
0.000229115
0.000432618
0.000149716
0.000258722
0.000412265
0.000347828
0.00030214
0.000263489
0.000172831
0.000394475
0.000218734
0.000593515
0.000170185
0.00011144
0.000232532
0.000196459
0.000207803
0.00012746
0.000171242
0.000223228
0.000174897
1.68509e-05
0.000138371
0.000249363
0.000334651
0.000285786
0.000202494
1.77119e-05
7.12718e-05
0.000652273
3.89932e-05
0.00022002
7.30623e-05
0.000148058
0.0001418
0.000118117
0.000147678
0.000199915
0.000238279
0.000598358
0.000173654
0.000400322
0.000232798
0.000139577
0.000217571
0.000340583
7.43597e-05
0.000212163
0.000128354
0.000433349
0.000409587
0.000110979
0.000147384
0.000258716
0.000301579
0.000212934
0.00035544
0.000110978
0.000100984
0.000289452
0.000291504
0.00025851
7.08405e-05
0.000132609
0.000182099
0.000218684
6.04913e-05
0.000119368
0.00015052
0.00029728
0.000348523
0.000224185
0.000214827
0.000173464
1.97219e-05
0.00017078
0.00016072
0.000260591
0.000328401
9.18407e-05
3.78266e-05
7.69105e-06
0.000236281
0.000230405
0.00026789
0.000170738
0.000255003
0.000649688
0.000230177
0.000310683
0.000371011
0.000253666
0.000227148
0.000201491
0.000332664
0.000337168
8.29372e-05
0.000594038
0.000315004
0.000120359
8.70568e-05
7.66578e-05
0.000186529
1.29195e-05
0.000153422
0.000110999
0.000275937
0.00011043
0.000128903
0.000223307
0.000260175
0.00011464
0.000145812
0.000435779
0.000121093
0.000197283
0.000210217
0.000266781
0.000178052
0.000393355
0.000398004
7.76282e-05
0.000641293
0.000641495
0.000612766
0.000292067
0.000611821
9.76129e-05
0.00044662
0.000249599
0.00024993
0.000400229
0.000156448
0.00013328
0.000119842
0.000295157
0.00028812
0.000211151
2.73882e-05
0.000126481
0.000360282
0.00015797
2.80775e-05
1.38365e-05
0.000311057
0.000103494
0.000163158
0.00033648
0.00021201
0.000233188
0.000253722
3.72908e-05
0.000286614
0.000142545
0.000364569
0.00037664
0.000227523
0.000604794
1.63534e-05
0.000205423
0.000174491
0.000105494
0.00032816
0.000254043
0.000602394
0.00025082
0.000164414
7.16732e-05
0.000391623
0.000383643
0.000201998
0.000131204
0.000212045
0.00028394
0.000225812
0.000263518
0.000262656
0.000261577
0.000224231
4.90904e-05
0.000255924
0.000350065
0.000320742
0.000284952
0.000209352
0.000354106
0.000191782
0.000285823
0.0002186
0.000185588
0.000207848
0.000131327
0.000378944
0.000145687
6.92763e-05
0.000394766
0.000264965
0.000215911
0.000398487
3.9441e-05
0.000313221
1.20787e-05
0.000196576
0.00023244
9.41074e-05
0.000368474
0.000214541
0.000279614
0.000250556
0.000418685
0.000367699
0.000182022
0.00039759
0.000181797
0.000222795
0.000275246
0.000231852
0.00023396
0.000242805
0.000121285
0.00065736
6.92686e-06
0.000271992
0.000629264
0.000264091
0.000253981
1.77482e-05
0.000193827
0.000114721
4.47005e-05
0.000299798
0.000153742
0.000585349
0.000663322
0.00039483
0.000364917
0.000659139
0.000377464
0.000369836
0.000351905
0.00037676
0.00063769
0.000291516
0.000304783
1.79424e-05
0.000257955
0.000207144
0.000143937
0.000198019
0.000206836
0.000180371
0.000651363
0.000319572
0.000395301
0.000398573
0.000580581
0.000553438
0.000366758
2.6733e-05
0.000477542
0.000185468
0.000273549
0.000477973
0.000270945
0.000162491
0.000110399
0.000330766
0.000244381
9.74458e-05
0.000195952
0.00040802
0.000184595
0.000223152
0.00011919
0.000284349
6.5333e-05
0.000186
0.00012283
0.000241241
0.000115935
0.000235386
8.91718e-05
0.000142793
0.000208053
0.000210669
0.000135087
1.20929e-05
0.000165892
0.000194558
0.000178169
0.000215538
0.000148685
8.76735e-05
0.000224523
0.00027333
0.000153152
0.00038782
0.000356856
0.000242006
1.73744e-05
0.000270679
0.000206278
0.000428324
0.000187702
2.9473e-05
0.000241696
0.000245034
0.000174441
0.000619926
1.38445e-05
0.000280459
0.000163502
0.000390155
0.000330909
9.73458e-05
0.000383215
0.000278018
0.000164495
0.000377792
0.000259575
0.000213329
0.000386822
0.000100243
0.000171177
0.000402914
0.000612358
0.000256808
0.000322307
9.71963e-05
0.000261032
0.000175489
0.000405085
0.000447404
0.000205596
0.000351742
0.00016758
0.000323076
0.000380196
0.000217723
0.000337294
0.000384612
5.24478e-05
0.000356742
0.00043238
0.000176194
0.000250926
0.00027999
0.000200971
0.000330264
4.06394e-05
0.000166973
0.000200904
0.000177634
0.000189752
0.000280538
9.8282e-05
0.000102089
0.000364812
0.000146313
0.000191354
0.00028987
3.31347e-05
0.00039288
1.15449e-05
0.000139096
0.000272479
0.000100432
0.000379605
0.000616214
0.000383506
0.000166509
0.00035172
8.62284e-05
0.000200245
0.000286684
0.000264624
6.35314e-05
3.9121e-05
0.000134556
0.000368347
0.00040294
3.27507e-05
0.000274194
6.17871e-06
0.000276678
0.000146532
0.000152278
0.000124163
0.000141127
0.00016122
0.000175146
3.13092e-05
0.000265938
0.000235746
0.00036212
0.000395542
0.000187023
0.000324495
0.000394945
0.000158231
0.000249104
0.00024473
0.0001068
0.000367421
0.000237617
0.00025392
0.000258021
0.000162941
0.000278484
0.000100425
0.000406788
0.000406651
0.000232941
0.000172012
3.51912e-05
0
0.000193571
0.00020383
0.000151664
0.000310713
0.000276123
0.00024636
0.000183941
6.72611e-05
0.000284776
0.000264045
0.000377326
0.000252885
0.000187788
0.000139448
0.000223494
0.000144608
0.000242706
0.000138447
0.000308802
4.37599e-05
0.000566144
0.000259982
0.000264372
0.000337594
0.000360714
0.000634699
0.00023099
0.000376786
0.000365688
0.000180012
0.000169707
0.000510554
0.000149252
0.000512665
0.000316326
0.00021031
0.00038586
0.000121312
0.000381706
0.000256344
0.000204767
0.00043048
0.000231476
0.000239593
0.000132003
0.000392199
0.000109452
0.000356129
4.28066e-05
0.000202971
0.00018445
0.000250307
0.000244018
0.000382184
0.000477554
1.7461e-05
0.00038578
2.62648e-05
0.000242451
0.000360023
3.79231e-05
0.000121913
0.000108258
0.000237988
0.000106665
0.000362068
0.000319171
0.000231812
1.68341e-05
0.000158734
0.000347304
0.000555911
0.00013497
0.000308135
0.000128982
0.000325679
0.00017489
0.000388156
0.0002187
0.000144161
0.000306316
0.000140996
0.000653172
0.000307884
9.07596e-06
0.000626806
0.000106852
0.0001921
0.000308747
0.000314469
0.000304772
0.000265731
0.000307373
2.45426e-05
0.000285571
6.29695e-05
0.000208161
0.000137897
0.000204933
0.000184962
0.000189884
0.000414551
0.000591908
0.000423822
0.000289886
0.000134371
5.65826e-06
0.000236397
0.000207375
0.000462342
0.000135291
0.00059588
0.000325542
0.000289627
0.000201654
0.000146765
0.000144755
0.000387074
0.000644434
0.000122596
0.000276753
0.000149492
0.000362582
0.000141932
0.00011538
0.000182245
0.000335727
0.000311269
0.000124875
0.000655141
0.000617623
0.000165934
3.63143e-05
8.97928e-05
0.00018941
8.80406e-05
0.000191208
0.000622084
0.000159414
0.000393723
0.000102283
0.000116173
0.000355067
3.21043e-05
9.02102e-05
0.000388418
0.000245894
0.00053069
0.000628513
0.000617824
0.00014301
0.000411856
0.000380165
0.000278275
0.000121657
0.000265046
0.000102953
5.05645e-05
0.000287958
0.000265664
0.000267596
0.000174752
0.000227844
0.000153861
0.000159949
0.000196655
0.000278179
4.63686e-05
0.000342795
0.000201681
0.000131282
0.000313141
0.000234205
0.000312565
0.000257117
0.000646559
0.000129914
0.00019968
0.000194492
0.000348701
0.000355195
0.000352146
0.000126087
0.000189717
0.000187476
0.000223684
8.17883e-05
0.000163447
0.000183499
0.000443576
0.000317636
0.000112393
0.000116064
0.000458546
0.000204251
0.000400644
8.60017e-06
0.000607616
0.0002402
0.000396131
0.000206596
0.000204305
9.41614e-06
6.73467e-05
8.44999e-05
0.000168252
0.000385695
0.000348222
0.000260521
0.000274611
0.000258138
0.00025523
0.000170359
0.000281351
2.16659e-05
0.000368472
0.000207134
0.000361886
0.000321309
0.000110401
7.22593e-05
0.000113116
0.000207444
0.000242366
0.000371967
0.000332508
0.00035609
0.000120057
0.000106064
0.000389315
0.000380352
0.000651007
2.44265e-05
0.000284703
0.000379002
3.06617e-05
0.000654962
0.000288845
0.000388373
0.000269352
0.000222117
5.05932e-05
0.00024701
0.000292412
0.000202696
0.000311515
0.000405752
0.000215932
0.000118744
0.000434365
0.000137522
5.57202e-05
0.00027813
0.000275569
0.000291269
2.9115e-05
0.000142829
0.000253372
0.000444073
0.000436689
0.00060332
0.000284416
0.000163924
0.000256407
0.0003444
0.000158588
0.000162514
0.000254668
0.000361099
0.000150138
0.000269326
0.000279252
0.000346691
0.000319123
0.000399303
0.000344274
0.000240053
5.05532e-05
0.00040477
2.81298e-05
7.75247e-05
0.000449242
0.000389666
0.000260956
0.000391358
0.000273879
0.000339488
0.000309045
0.000200787
0.000150256
0.000205148
0.000199342
0.000189114
0.000342336
0.000333043
0.000119906
0.000644367
1.74503e-05
0.000302275
0.000165912
0.000592065
0.000613475
0.000139216
0.000200996
0.00017869
7.84351e-05
5.67846e-05
0.000383385
0.000188925
0.000151321
0.000340839
0.000272696
0.000144484
3.66587e-05
0.000329937
0.000116772
9.95809e-05
0.000207611
0.00021595
0.000117108
0.000273834
0.000331566
0.00031562
0.000141543
0.000626921
0.000133624
5.3191e-05
0.000134087
0.000110717
0.000113026
0.000173037
0.000192412
0.000229861
0.000240349
0.000288399
0.000209096
0.000381526
0.000172088
1.99e-05
4.3561e-05
0.000176865
0.000400607
8.46195e-05
0.000623145
0.000616457
0.000257888
0.000118168
6.0124e-05
0.000212316
0.00016982
0.000300203
0.000658039
0.000381673
8.79513e-05
0.000102227
0.000605921
0.000216911
5.14232e-05
0.000371391
0.000353123
0.000622667
0.000227216
0.000284039
0.000385503
0.000247639
0.000354929
0.000111079
0.000362759
0.000260768
5.79979e-05
0.000330193
0.000213272
0.000137471
0.000650828
0.000106722
5.83075e-06
0.000388373
0.00022396
0.000363161
0.00014653
0.000597936
0.000331926
0.000658898
0.000101278
6.1802e-05
0.000132156
0.000296929
0.000246116
0.00039666
0.000308075
0.000298969
0.00024377
3.24509e-05
0.000610601
0.000373615
0.000332723
0.000241874
0.00044621
0.0004177
0.000388903
8.11535e-05
7.51617e-05
0.000340985
0.000190796
0.000463813
0.000102926
0.000287528
0.000438041
0.000212458
0.000641895
0.000161033
0.0003943
0.000251748
0.000244625
0.000302476
0.000386687
0.000360472
0.000116222
0.000160302
0.0002578
0.000189081
0.000661551
0.000123896
0.000392164
0.000116015
0.000602008
4.31076e-05
0.000379232
0.000390749
0.000452472
0.00062193
0.000641484
2.23476e-05
0.00032738
0.000314834
0.000374849
1.28028e-05
0.000164709
0.000350819
0.000205364
0.000310904
0.000393771
0.000247939
0.000257134
0.000345262
0.000645455
0.000299567
0.000126579
0.000274443
5.0274e-05
7.63011e-05
3.30191e-05
0.000164946
0.000356724
0.000164532
0.00034339
0.000413875
0.000266491
0.000263993
0.000163717
6.41839e-05
0.000282933
0.000199713
0.000430171
0.000633093
0.000368674
0.000364916
0.000215645
0.0001539
0.000239523
0.000350448
0.000148705
0.000391702
0.000278807
0.000283881
0.000175232
1.58755e-05
0.000422421
0.000328408
0.000370373
0.000378316
0.000176315
2.64694e-05
0.000365557
1.18218e-05
0.000297873
0.000385808
0.000321512
0.000631375
0.000115987
0.000177435
0.000144091
0.000225881
5.30739e-05
9.02077e-05
2.96817e-05
8.26211e-05
0.0001989
0.000160356
0.000110088
8.29649e-05
0.000209676
3.01548e-05
7.16128e-05
5.35392e-05
0.000281302
0.000110676
0
0.000386714
0.000331541
0.000574723
0.000177297
0.000136727
0.000165467
0.000374812
0.000606891
0.000619059
0.00019548
0.000407301
0.000133282
0.000372527
0.000504925
0.000258199
0.000340935
0.000504408
0.000668781
0.000643544
0.000615295
2.25715e-05
0.000633563
0.000166245
0.000587252
0.000384029
0.000186162
0.000357038
0.000143398
0.000325005
0.000415827
6.1333e-05
0.000410122
0.00026448
0.000100407
5.9222e-06
0.000208511
0.000340134
0.000178742
7.92746e-05
0.000282656
0.000671317
0.000395406
0.00039202
0.000288081
0.000241964
0.000251912
0.000171081
0.000195156
8.95651e-05
0.000469176
0.000260751
6.8907e-05
2.24944e-05
1.80573e-05
4.81138e-05
0.000156382
0.000216722
6.07599e-05
0.000401423
0.000115556
0.000381119
0.000596025
0.000423497
0.000375679
1.79434e-05
0.000595695
0.000389957
0.000274797
8.9476e-05
0.000210846
0.000462484
0.000643857
6.53324e-05
0.000362299
0.00031401
0.000299706
8.18824e-05
1.51217e-05
0.000121616
0.000657561
0.000275591
0.000635353
0.000212453
0.000182839
0.000397732
0.000391011
7.07082e-05
0.000152281
0.000633415
0.000634041
0.000163996
0.000302277
0.000429725
9.72931e-05
7.33461e-05
6.41399e-05
0.000392287
0.000344284
0.000342967
0.000378769
0.000114469
0.000238256
3.72093e-05
0.000405249
0.000308803
0.000408621
0.000245361
0.000121954
0.000383586
1.41934e-05
0.000192102
0.000249844
0.000250995
0.000671539
0.000175131
0.00017259
0.00066971
0.000285878
0.000255123
0.000106213
0.000286426
0.000141526
0.000198887
0.000183618
0.000277028
0.000179454
0.000140266
3.51441e-05
0.000406164
0.000420623
0.000360733
0.000382893
8.06825e-05
0.000592408
0.000617534
1.33121e-05
7.62631e-05
0.000146615
0.000106564
0.000260451
0.000138588
0.000156483
0.000234586
0.000450571
3.32169e-05
0.000479696
7.72302e-06
0.000213643
4.72425e-05
0.000234347
0.000227399
4.35447e-05
0.000233039
0.000119761
3.06756e-05
0.000282508
0.000123521
0.000237893
3.22557e-06
0.000402143
0.000597648
0.000302962
0.000249682
0.000139536
0.000256506
0.000379434
0.000244185
5.81479e-06
0.000199956
0.000379098
0.000439651
0.000338211
1.20922e-05
0.000490331
0.000186726
0.000210175
0.000655215
0.00013636
0.00023219
2.15826e-05
3.17768e-05
0.000184323
2.54877e-05
0.000144419
0.000268334
0.000196556
0.000190544
2.43725e-05
0.000263651
0.000156804
0.000372435
0.000340698
0.000373481
0.000457337
0.000197681
0.000315163
0.000611722
0.000187492
0.000268273
0.000134826
0.000498722
0.000462071
0.000124405
1.72814e-05
0.000332222
0.00065582
0.000649225
4.91796e-06
7.82017e-05
0.000306584
0.000312915
0.000283072
0.000302162
7.04857e-05
9.51947e-05
0.000291289
6.18677e-05
0.000339336
9.6074e-05
0.000234183
0.000380272
0.000209945
0.000580715
0.000289114
0.000350841
7.23471e-06
2.97892e-05
0.000102252
0.000399386
4.21849e-05
0.000128547
0.000101899
0.000308929
0.000101784
0.000294228
0.000235984
0.000216128
0.000360238
0.000274206
0.000386582
0.000233198
0.000330816
0.00059443
0.000582312
0.000250236
0.000108648
0.00014494
0.00013482
0.000297133
0.00021387
0.00016563
4.44556e-05
0.00047462
0.000385629
0.000663491
7.74389e-05
0.000407051
0.000189052
0.000210249
0.000318465
0.000657098
0.000211279
0.000391482
0.000555034
7.92052e-05
0.00036818
0.000124373
0.00054044
0.000516678
0.000586418
0.000289808
0.000288503
0.000378105
0.000283561
0.00023032
0.000386566
0.000392723
0.000289996
0.000106063
0.000143686
0.000113225
0.00027754
0.000626105
0.000193247
0.00014701
9.95457e-06
0.000355793
0.000181391
0.000199129
0.00015023
0.000426149
0.000107039
0.000301604
0.000200171
0.00018393
0.000295037
0.000122182
3.6619e-05
0.000175637
6.98282e-05
0.000376178
0.000440406
0.00049607
0.000603195
0.000605729
0.000427468
0.000270679
5.79834e-06
0.000250296
0.000397671
0.000653152
0.000350484
0.000639947
0.000264656
0.000643996
5.02444e-05
0.00015547
0.000101806
0.000402741
0.000376729
0.000154542
0.000117161
0.000196095
8.65996e-05
0.000433778
0.000447729
0.000385563
0.000407088
0.000657652
0.000663185
0.000370344
0.000663625
0.000146173
0.000276887
0.000266772
8.69611e-05
5.07202e-05
0.000382413
0.000209862
0.000265664
0.000138558
0.000153617
8.11026e-05
0.000675424
7.32264e-05
0.000399992
4.16331e-05
7.4062e-05
0.000402008
9.3097e-05
1.39675e-05
0.000122174
0.000318784
0.00046144
0.000427389
0.000167723
0.000256992
0.000187107
0.00014186
0.000386917
0.000164211
0.000318322
4.85595e-05
9.8621e-05
0.000379349
0.000335777
0.000151814
0.000187631
0.000117545
0.000132954
0.000412877
0.000176216
0.000279383
0.000396546
1.61488e-05
0.000251678
0.000207487
0.00017073
0.000245184
0.000214829
8.23335e-05
0.00024164
3.82623e-05
0.000394546
4.44871e-05
0.000167392
0.000270697
0.000399979
0.000340129
7.23883e-05
0.000270452
0.000164187
0.00023919
0.000378026
0.000333417
0.000391844
0.000332691
0.000292633
3.96713e-05
0.000267743
0.000408781
0.000484418
9.7074e-05
0.000171336
0.000444431
5.19404e-05
0.000474303
0.000199655
0.000103635
0.000621314
0.000166026
0.000213196
1.03923e-05
0.000408941
8.09396e-05
5.80861e-06
0.000660245
0.000142412
0.000256235
0.000105513
0.000421778
0.00016154
0.000289305
7.63551e-05
0.000194042
0.000236315
6.80325e-05
0.000177705
3.74663e-05
7.71079e-05
2.12687e-05
4.38578e-05
1.59724e-05
2.78801e-05
9.32799e-06
0.000368376
0.00039663
0.000430524
7.05108e-05
0.000147115
1.9359e-05
0.000243265
0.000673941
4.49599e-05
0.000217063
9.44009e-05
1.21974e-05
0.000227156
0.000388115
0.000355951
0.000275928
6.88707e-05
7.12774e-05
0.000167057
0.000400682
0.000232392
6.38237e-05
0.000284414
0.000331858
0.000495766
0.000555852
0.000391121
0.000225045
0.00061874
0.000616181
5.91909e-05
0.000598253
0.000212604
0.000196331
0.000169072
0.000114551
0.000413632
0.000261217
4.95153e-05
1.12079e-05
0.000383961
8.32834e-05
0.000169197
0.000501961
0.000531508
0.000186631
5.83772e-05
0.000276436
0.000118172
0.000147136
9.82729e-05
0.000433382
0.00023026
0.000408292
0.000517189
0.00049314
0.000314514
0.000190093
2.87284e-05
0.000113816
0.000332179
0.000472394
0.00032608
0.000152906
9.85529e-05
0.000385388
0.00028831
0.000137038
0.000181786
0.000191428
0.000265187
0.000650554
0.000608348
0.000656551
0.00029008
1.7769e-05
0.000616466
0.000130749
0.000395782
7.19439e-05
0.000141585
0.000273439
0.000301137
0.000618392
6.34576e-05
0.000523605
0.000197265
0.0002343
5.61514e-05
4.87085e-05
0.000173642
0.000634321
0.000659544
0.000105467
0.000394519
0.000227065
3.36937e-05
0.00039194
0.00011553
0.000146597
0.000210649
0.000315566
3.88853e-05
0.000643004
0.000178755
0.000352036
0.000403285
0.000170003
0.000475389
7.55231e-05
9.85596e-05
6.02742e-05
3.08516e-05
0.000245083
5.18539e-05
0.000168401
0.000165031
0.000385679
1.42304e-05
5.17397e-06
1.44289e-05
0.00027706
0.000168693
0.000395433
4.85329e-05
0.000241504
0.000406842
8.88999e-05
0.000201654
0.000227742
0.000260837
0.000142872
0.000138925
0.00014503
0.000306724
0.000227205
0.00021147
0.000314258
0.000285199
0.00027402
0.000311802
0.000354894
0.000398089
0.000221755
0.000218385
0.000174248
0.000169699
0.000176067
0.000172934
0.000315152
0.000336876
0.000222563
0.000172988
4.69054e-05
1.85008e-05
0.00026097
0.000250235
0.000117042
0.000152387
0.000204501
0.000154482
0.000197427
0.000159595
0.000315293
0.000158859
0.000343569
0.000301048
0.000224236
0.000220735
0.000259781
0.00026712
0.000247042
0.000256218
0.00019039
0.000192249
0.000220895
0.000226834
0.000249646
0.000262957
0.00028226
0.000294403
0.000354826
0.000349334
0.000382964
0.000421893
0.000400451
0.000385618
0.000362914
0.000348369
2.65068e-05
3.84932e-05
0.000151147
0.000152688
0.000171923
0.000192446
0.000346253
0.000326623
0.000250428
0.000237441
0.000266565
0.000238401
9.85092e-05
7.05711e-05
0.000341425
0.000309027
0.000527242
0.000532435
0.000116969
0.000131839
0.000103747
0.000103179
0.000220551
0.000271697
2.02425e-05
1.22071e-05
0.000382576
0.000402255
3.0179e-05
2.4402e-05
2.33995e-05
1.25021e-05
2.81913e-05
3.0196e-05
8.4771e-06
1.28473e-05
0.000363161
0.000410294
0.00034457
0.000345496
0.00041356
0.000578094
0.000482251
0.00050899
0.00035384
0.000333559
0.000151547
0.000147347
0.000240589
0.000244312
0.000230729
0.000228536
0.000189261
0.000188646
0.000181547
0.00017715
0.000358702
0.00036391
0.000122986
0.000119199
0.000646962
0.000651767
0.000621056
0.000645315
0.000186949
0.000172112
1.83571e-05
1.02067e-05
0.000433654
0.000528561
0.000347415
0.000358558
0.000620835
0.00049002
0.000551581
0.000526624
0.00062414
0.000404065
0.000503504
0.000429112
0.000576459
0.000587652
0.000600774
0.000252156
0.000457155
0.000557658
0.000435395
0.000356795
0.000530021
0.000539708
0.000443907
0.000495999
0.000463017
0.000388516
0.000512073
0.000438448
0.00027184
0.000315608
0.000561895
0.00050418
0.0005362
0.000544297
0.000502567
0.000259406
0.000585196
0.000482432
0.000285022
0.000488654
0.00041766
0.000527211
0.000464064
0.000433376
0.000294818
0.000398302
0.000388289
0.000401071
0.00020729
0.000365384
0.000436817
0.000603226
0.000451301
0.000423547
0.000437376
0.000645945
0.000462717
0.000486762
0.000642617
0.000246884
0.000454717
0.000396348
0.000291625
0.000445531
0.000333508
0.000431902
0.000453635
0.000319882
0.000231762
0.000467452
0.000374447
0.000372645
0.000447543
0.000366221
0.000243458
0.000386022
0.000353534
0.000466729
0.000484234
0.000477485
0.000446859
0.000255918
0.000503388
0.000352142
0.000488375
0.000649129
0.000489731
0.000579621
0.000562698
0.000480155
0.000646745
0.000207837
0.000432848
0.000274251
0.000621679
0.000626748
0.000385432
0.000628683
0.000562333
0.000583667
0.000463802
0.00057034
0.000549777
0.00049336
0.000600201
0.000447199
0.000419402
0.000625245
0.000426678
0.000382272
0.000302871
0.000466634
0.000554101
0.000379622
0.000543371
0.000456262
0.000470357
0.000581112
0.000531479
0.000363756
0.000459552
0.000386029
0.000400588
0.000489405
0.00050894
0.00056256
0.000317283
0.000433902
0.00050715
0.000435372
0.000484458
0.000636065
0.000567801
0.000471461
0.000510577
0.000652338
0.000371617
0.000355495
0.000586723
0.000330579
0.000465528
0.000429223
0.000352567
0.0004564
0.000589365
0.00037566
0.000403521
0.000180799
0.000439258
0.000449929
0.000629419
0.000511333
0.000491826
0.000467689
0.000606441
0.000246853
0.000432636
0.000393068
0.000275649
0.000343745
0.000334959
0.000577045
0.00048635
0.000368673
0.000425751
0.000501083
0.000444757
0.000407059
0.000222928
0.000477447
0.000550469
0.000474788
0.000609328
0.0004062
0.000447269
0.000247113
0.000587448
0.00051018
0.000541599
0.000466141
0.000617572
0.000451369
0.000647204
0.00032531
0.000156107
0.000542146
0.000383499
0.000597651
0.000150084
0.00014854
0.000429293
0.000444782
0.000469809
0.000467556
0.00043252
0.000557693
0.000516897
0.000452332
0.000383556
0.000405192
0.000645571
0.000343499
0.000353246
0.000569804
0.000506424
0.000525139
0.000472188
0.000333788
0.000459837
0.000481095
0.000605941
0.000506994
0.000507607
0.000396368
0.000428086
0.000388452
0.000110898
0.000493963
0.000484251
0.000483446
0.00056561
0.000466764
0.000554534
0.000354662
0.000308463
0.000386336
0.000292383