/*--------------------------------*- C++ -*----------------------------------*\
| =========                 |                                                 |
| \\      /  F ield         | OpenFOAM: The Open Source CFD Toolbox           |
|  \\    /   O peration     | Version:  v2012                                 |
|   \\  /    A nd           | Website:  www.openfoam.com                      |
|    \\/     M anipulation  |                                                 |
\*---------------------------------------------------------------------------*/
FoamFile
{
    version     2.0;
    format      ascii;
    class       volScalarField;
    location    "1";
    object      epsilonEq;
}
// * * * * * * * * * * * * * * * * * * * * * * * * * * * * * * * * * * * * * //

dimensions      [0 0 0 0 0 0 0];


internalField   nonuniform List<scalar> 
15946
(
3.03047e-05
3.6672e-05
4.85909e-05
9.66479e-05
8.4812e-05
2.8454e-05
4.80445e-05
3.75015e-05
3.90791e-05
2.92506e-05
4.15196e-05
3.18353e-05
1.84716e-05
5.50806e-05
4.12156e-05
3.87367e-05
3.20213e-05
4.89053e-05
3.6136e-05
3.96466e-05
3.55088e-05
3.47464e-05
3.53209e-05
3.33131e-05
3.69763e-05
5.45367e-05
5.96547e-05
4.05619e-05
3.14842e-05
3.91181e-05
3.11855e-05
1.64838e-05
3.46546e-05
4.47927e-05
3.32831e-05
5.00411e-05
5.32675e-05
3.49255e-05
4.0572e-05
3.31672e-05
3.7628e-05
7.7799e-05
2.95332e-05
3.26156e-05
3.00015e-05
3.19459e-05
3.66665e-05
9.71966e-05
3.88916e-05
8.43488e-05
2.48289e-05
4.38261e-05
4.02786e-05
2.44528e-05
6.90855e-05
3.70087e-05
4.229e-05
4.76001e-05
3.80472e-05
4.52385e-05
3.70188e-05
3.21107e-05
3.78534e-05
3.31323e-05
3.33947e-05
3.24639e-05
1.50591e-05
1.4605e-05
2.67399e-05
3.41717e-05
4.63179e-05
2.82532e-05
3.52091e-05
6.76252e-05
7.07301e-05
5.00149e-05
2.86577e-05
7.23249e-05
3.43413e-05
2.99401e-05
3.59296e-05
2.85218e-05
4.36401e-05
3.42273e-05
6.49462e-05
6.43128e-05
3.53539e-05
4.0356e-05
2.59721e-05
4.71815e-05
4.10727e-05
5.06878e-05
4.39516e-05
4.55069e-05
3.92887e-05
3.76615e-05
2.85609e-05
4.18212e-05
3.47429e-05
3.21648e-05
3.81114e-05
2.95781e-05
3.68046e-05
3.81248e-05
4.30202e-05
3.72738e-05
2.77227e-05
4.37451e-05
4.46178e-05
3.87853e-05
3.10623e-05
4.79244e-05
4.58505e-05
4.2211e-05
3.22651e-05
2.68262e-05
3.65298e-05
5.17947e-05
3.63256e-05
4.40603e-05
2.50185e-05
2.7327e-05
4.19854e-05
3.69109e-05
4.83385e-05
0.000105982
3.79627e-05
2.73812e-05
5.5718e-05
5.68099e-05
4.16389e-05
3.20827e-05
3.45902e-05
2.59305e-05
3.82223e-05
3.31439e-05
3.03873e-05
3.59568e-05
2.74949e-05
8.02839e-05
2.59807e-05
3.56698e-05
4.78447e-05
2.94896e-05
4.79066e-05
3.23171e-05
9.17551e-05
3.3589e-05
3.31054e-05
3.91685e-05
3.18351e-05
4.61232e-05
4.42371e-05
3.50872e-05
2.7625e-05
3.78275e-05
4.83114e-05
8.95551e-05
8.15692e-05
2.76415e-05
3.68938e-05
4.78721e-05
3.34293e-05
2.00916e-05
3.82598e-05
5.61767e-05
6.00841e-05
3.89321e-05
3.10885e-05
2.03388e-05
3.45862e-05
1.98966e-05
4.00377e-05
4.99335e-05
2.87351e-05
2.64183e-05
6.18395e-05
6.3659e-05
5.19434e-05
4.12264e-05
3.26124e-05
2.191e-05
9.01896e-05
8.77264e-05
3.06928e-05
3.10557e-05
4.23157e-05
8.24804e-05
3.41178e-05
2.92245e-05
2.28191e-05
0.000116837
4.02296e-05
4.39812e-05
2.88795e-05
3.55894e-05
9.99032e-05
2.5578e-05
3.87463e-05
0.000107851
3.7801e-05
2.43104e-05
5.08059e-05
0.000116466
5.02959e-05
3.21552e-05
8.20332e-05
3.01327e-05
3.11231e-05
3.0068e-05
8.77264e-05
9.01896e-05
7.28339e-05
7.20308e-05
2.70286e-05
2.91726e-05
3.10236e-05
3.09511e-05
5.02959e-05
5.08059e-05
2.02133e-05
3.53385e-05
0.000107116
3.57461e-05
0.000118451
2.30708e-05
5.95495e-05
5.4476e-05
5.53843e-05
6.42252e-05
2.86685e-05
2.62945e-05
2.92612e-05
2.66671e-05
7.62187e-05
7.92184e-05
2.35567e-05
0.000103501
3.61851e-05
0.00011101
3.23239e-05
2.17455e-05
5.51716e-05
5.27182e-05
3.56698e-05
4.71952e-05
9.33368e-05
2.54579e-05
2.77282e-05
4.80502e-05
0.000101506
3.23171e-05
3.78275e-05
4.65516e-05
2.62351e-05
0.000101526
9.46235e-05
4.83735e-05
2.77025e-05
3.68938e-05
5.27182e-05
4.84458e-05
4.02246e-05
3.02838e-05
2.60384e-05
3.37358e-05
0.000112869
8.1137e-05
5.07637e-05
5.51716e-05
3.7203e-05
3.80582e-05
8.72862e-05
0.00011335
2.94824e-05
2.50356e-05
1.93282e-05
1.72034e-05
1.78197e-05
1.44479e-05
3.1183e-05
2.99537e-05
1.91092e-05
2.29583e-05
1.54996e-05
2.28656e-05
1.74588e-05
2.15714e-05
1.09713e-05
2.54653e-05
1.74156e-05
1.25996e-05
2.84283e-05
2.40742e-05
2.79568e-05
1.39689e-05
1.60866e-05
1.67856e-05
3.36663e-05
2.7915e-05
2.64605e-05
1.54072e-05
2.06749e-05
1.27059e-05
2.30205e-05
3.16836e-05
2.01558e-05
1.87713e-05
1.26872e-05
1.74323e-05
1.59438e-05
1.88683e-05
2.43031e-05
2.16019e-05
2.88165e-05
2.30884e-05
2.58476e-05
1.92441e-05
2.17728e-05
2.13664e-05
2.38849e-05
3.55455e-05
1.77177e-05
1.11146e-05
2.55688e-05
1.7596e-05
1.8175e-05
1.5259e-05
2.71486e-05
3.12609e-05
3.10336e-05
1.91333e-05
3.04441e-05
1.24931e-05
3.21166e-05
2.74e-05
1.40673e-05
2.04799e-05
3.73755e-05
2.92568e-05
2.50334e-05
2.4778e-05
1.94414e-05
1.68062e-05
2.51696e-05
2.30165e-05
2.42695e-05
3.02106e-05
2.67641e-05
2.85766e-05
1.21426e-05
1.46451e-05
1.39966e-05
1.3856e-05
1.35908e-05
3.05176e-05
2.36065e-05
3.00667e-05
2.2937e-05
2.18538e-05
2.75058e-05
2.82177e-05
1.83093e-05
2.29477e-05
2.79504e-05
1.39117e-05
1.36258e-05
2.98352e-05
2.69516e-05
1.33886e-05
2.65012e-05
2.28529e-05
2.65251e-05
1.36299e-05
3.12498e-05
1.60523e-05
1.48188e-05
2.36369e-05
3.17788e-05
2.31206e-05
2.50352e-05
2.29662e-05
1.98573e-05
2.89768e-05
2.18482e-05
1.25713e-05
2.73515e-05
1.87618e-05
1.1326e-05
1.32038e-05
3.13077e-05
1.93731e-05
1.09859e-05
2.48161e-05
2.06404e-05
3.52252e-05
2.4838e-05
1.4398e-05
2.28394e-05
1.13427e-05
2.7096e-05
3.13711e-05
2.66248e-05
2.68971e-05
1.34241e-05
1.74523e-05
1.74877e-05
1.79812e-05
2.70322e-05
3.38611e-05
2.99316e-05
1.70819e-05
2.5899e-05
1.4703e-05
2.39632e-05
2.58855e-05
2.24743e-05
2.5552e-05
1.30536e-05
1.34768e-05
1.90329e-05
2.97633e-05
1.87036e-05
3.16302e-05
3.0383e-05
3.02612e-05
2.18109e-05
1.33808e-05
2.67489e-05
1.9455e-05
1.95124e-05
1.46919e-05
1.38898e-05
1.60849e-05
1.46113e-05
1.11822e-05
2.88346e-05
1.61201e-05
2.26009e-05
1.29088e-05
1.51675e-05
3.00108e-05
8.2242e-06
2.68186e-05
2.1304e-05
1.41995e-05
3.15504e-05
1.51865e-05
1.29647e-05
1.7257e-05
2.9662e-05
1.45417e-05
1.10925e-05
2.63669e-05
1.68629e-05
2.65842e-05
2.2157e-05
1.07869e-05
2.25254e-05
1.9102e-05
3.01876e-05
3.0208e-05
2.58297e-05
2.63367e-05
1.39975e-05
1.38829e-05
3.26727e-05
8.70893e-06
3.06385e-05
2.20699e-05
2.56255e-05
1.12812e-05
2.32471e-05
2.06897e-05
1.98768e-05
3.29504e-05
2.39484e-05
2.24164e-05
2.46383e-05
2.95171e-05
2.78376e-05
2.06109e-05
1.24974e-05
3.10489e-05
2.03596e-05
1.52154e-05
1.61615e-05
1.1893e-05
2.30397e-05
2.54766e-05
3.00819e-05
1.13063e-05
2.32176e-05
1.78238e-05
1.73922e-05
1.73232e-05
2.07215e-05
1.20246e-05
1.17016e-05
1.66282e-05
3.36485e-05
3.08411e-05
1.69736e-05
2.55494e-05
2.73763e-05
1.35898e-05
1.41608e-05
1.23572e-05
2.14729e-05
3.09778e-05
2.5504e-05
1.46847e-05
1.71625e-05
2.07573e-05
2.75079e-05
2.49155e-05
2.23255e-05
1.37108e-05
1.62951e-05
2.65344e-05
1.53471e-05
2.19223e-05
1.25228e-05
2.80035e-05
1.89237e-05
2.51154e-05
1.29442e-05
1.53061e-05
1.7495e-05
3.23262e-05
1.33471e-05
1.44316e-05
2.23274e-05
2.76648e-05
3.36256e-05
3.32076e-05
1.73693e-05
1.45765e-05
1.70923e-05
6.53617e-06
1.67305e-05
1.03872e-05
1.33142e-05
1.5767e-05
1.84656e-05
1.48726e-05
1.83378e-05
1.4319e-05
3.05107e-05
3.10204e-05
3.02745e-05
1.53017e-05
2.25627e-05
2.24421e-05
2.11336e-05
1.77245e-05
1.34039e-05
2.6472e-05
2.38936e-05
1.38518e-05
1.84019e-05
2.50453e-05
2.39032e-05
1.6287e-05
1.71798e-05
1.33269e-05
2.91695e-05
1.85262e-05
1.80392e-05
1.4476e-05
2.30668e-05
2.14542e-05
2.89558e-05
2.86119e-05
2.69245e-05
1.81321e-05
2.29236e-05
1.3145e-05
2.25971e-05
2.34677e-05
2.60369e-05
3.51467e-05
3.09973e-05
2.25425e-05
2.31664e-05
1.32744e-05
3.15832e-05
2.88144e-05
2.16837e-05
2.13201e-05
1.29242e-05
1.99777e-05
1.9534e-05
1.45982e-05
2.43775e-05
2.06527e-05
3.14203e-05
1.70685e-05
1.76374e-05
1.26065e-05
2.06574e-05
1.30735e-05
1.0167e-05
2.048e-05
1.11107e-05
2.574e-05
1.9245e-05
1.2993e-05
2.7661e-05
1.76941e-05
2.80124e-05
1.39789e-05
3.07687e-05
2.55221e-05
2.9232e-05
2.43466e-05
2.58187e-05
1.18714e-05
3.31702e-05
2.08627e-05
2.94635e-05
1.50308e-05
1.47389e-05
2.64719e-05
2.73078e-05
2.31649e-05
2.3936e-05
1.66168e-05
2.09857e-05
2.52936e-05
8.553e-06
1.34583e-05
2.34243e-05
2.39119e-05
2.44603e-05
1.5917e-05
1.26124e-05
1.66124e-05
3.30397e-05
1.42013e-05
1.90017e-05
1.68752e-05
1.55305e-05
1.18817e-05
1.35177e-05
1.22616e-05
1.3363e-05
2.82548e-05
2.96553e-05
1.35892e-05
3.37676e-05
1.72892e-05
1.27521e-05
1.62656e-05
3.07088e-05
1.75006e-05
1.32253e-05
2.55818e-05
2.51455e-05
2.73127e-05
2.45091e-05
1.08573e-05
2.13117e-05
2.29096e-05
1.98376e-05
2.8309e-05
1.44012e-05
2.21635e-05
2.16402e-05
2.1664e-05
1.32425e-05
1.56635e-05
1.7473e-05
1.50148e-05
1.50723e-05
2.13219e-05
2.45241e-05
1.27716e-05
2.22659e-05
2.80939e-05
2.9155e-05
1.43558e-05
2.08512e-05
6.70243e-06
1.43052e-05
1.18877e-05
1.20685e-05
2.64521e-05
1.66097e-05
1.33936e-05
5.59249e-06
1.98619e-05
2.00306e-05
3.2734e-05
1.60137e-05
2.16756e-05
3.25035e-05
1.25347e-05
3.19035e-05
2.6042e-05
2.10681e-05
1.59072e-05
1.35913e-05
2.40522e-05
3.0326e-05
1.20983e-05
3.01819e-05
2.6824e-05
1.32596e-05
2.01739e-05
1.87382e-05
1.25058e-05
1.16083e-05
2.3649e-05
1.77983e-05
3.32511e-05
1.34238e-05
1.26361e-05
2.16605e-05
2.77499e-05
9.86988e-06
2.49549e-05
3.72305e-05
1.08584e-05
1.83312e-05
1.70502e-05
2.24072e-05
1.6848e-05
3.43576e-05
3.31183e-05
1.87887e-05
2.96132e-05
2.96165e-05
3.08023e-05
3.39948e-05
3.0804e-05
1.71574e-05
3.79517e-05
2.05201e-05
2.05123e-05
3.18357e-05
1.16681e-05
1.13515e-05
1.10304e-05
2.34525e-05
2.31257e-05
3.11927e-05
8.97262e-06
1.03833e-05
2.9148e-05
2.65473e-05
1.23502e-05
9.98665e-06
3.52775e-05
2.10761e-05
1.64923e-05
2.67402e-05
2.06948e-05
1.68623e-05
2.4427e-05
9.36364e-06
2.48351e-05
1.4418e-05
3.26788e-05
3.3001e-05
2.45192e-05
2.91983e-05
1.16525e-05
1.38108e-05
1.25429e-05
2.38418e-05
2.44394e-05
2.86432e-05
2.8393e-05
1.96687e-05
2.68099e-05
2.14655e-05
2.41515e-05
2.53146e-05
3.00037e-05
2.33271e-05
2.75083e-05
1.62326e-05
2.93743e-05
2.15037e-05
3.03261e-05
2.1277e-05
1.97923e-05
1.1875e-05
1.61148e-05
2.98677e-05
3.12131e-05
2.34305e-05
2.49803e-05
2.85833e-05
2.48746e-05
2.46661e-05
1.85567e-05
1.51311e-05
1.97008e-05
2.41505e-05
2.99488e-05
2.23857e-05
9.11916e-06
2.44736e-05
3.1491e-05
1.69814e-05
2.54272e-05
1.32732e-05
2.59659e-05
1.01725e-05
1.82738e-05
2.87831e-05
2.33109e-05
3.07523e-05
1.40318e-05
2.22592e-05
2.14859e-05
2.83783e-05
3.06999e-05
2.09987e-05
3.22659e-05
2.16251e-05
1.70978e-05
2.36794e-05
2.65942e-05
1.9505e-05
2.05268e-05
1.08854e-05
3.21543e-05
8.89454e-06
3.23424e-05
3.06361e-05
2.25049e-05
1.77067e-05
1.03766e-05
2.46218e-05
1.3743e-05
1.20894e-05
2.36121e-05
1.32821e-05
2.94371e-05
3.26836e-05
3.46187e-05
2.31642e-05
2.94355e-05
3.54592e-05
3.29555e-05
2.96346e-05
3.11419e-05
2.94448e-05
2.50007e-05
2.78433e-05
1.21598e-05
2.28456e-05
2.95798e-05
1.42919e-05
1.66812e-05
1.28214e-05
1.48974e-05
3.10518e-05
2.6017e-05
3.59039e-05
2.71937e-05
3.15534e-05
3.0467e-05
2.69228e-05
1.33034e-05
3.09903e-05
1.44451e-05
1.89105e-05
3.05494e-05
1.2094e-05
1.27243e-05
1.57368e-05
2.79499e-05
2.92091e-05
1.38655e-05
1.13982e-05
2.79721e-05
1.18517e-05
1.51737e-05
9.51932e-06
2.27128e-05
2.06735e-05
2.58767e-05
2.38563e-05
1.99467e-05
1.39302e-05
1.75193e-05
1.9652e-05
1.37278e-05
1.66978e-05
1.73767e-05
1.38919e-05
9.21342e-06
1.70634e-05
1.19242e-05
1.69108e-05
2.59114e-05
2.39437e-05
1.99726e-05
1.87636e-05
2.09502e-05
1.19244e-05
3.36765e-05
3.0921e-05
2.06054e-05
7.0772e-06
2.3953e-05
2.04153e-05
3.50857e-05
1.12538e-05
8.5293e-06
1.92585e-05
2.55351e-05
1.24633e-05
2.96363e-05
1.36531e-05
2.21552e-05
2.42783e-05
3.16232e-05
2.56438e-05
1.66721e-05
3.10533e-05
2.16399e-05
2.45149e-05
3.0829e-05
2.17357e-05
2.90072e-05
3.08383e-05
1.64364e-05
1.51805e-05
2.82366e-05
2.99298e-05
2.17024e-05
3.29259e-05
1.5041e-05
2.96303e-05
1.13319e-05
2.78e-05
3.30277e-05
3.04597e-05
3.34304e-05
1.46316e-05
2.64483e-05
2.97904e-05
1.48736e-05
2.61923e-05
3.107e-05
1.03837e-05
3.00114e-05
3.0636e-05
2.58965e-05
2.59045e-05
2.05381e-05
1.85675e-05
2.80257e-05
9.49259e-06
1.52932e-05
2.57989e-05
1.51445e-05
2.47601e-05
2.2814e-05
1.29427e-05
1.25506e-05
2.8908e-05
1.39132e-05
1.33879e-05
2.46508e-05
1.25936e-05
3.45337e-05
9.66821e-06
1.70059e-05
1.59301e-05
1.655e-05
3.03946e-05
2.89649e-05
3.30913e-05
2.44848e-05
2.76679e-05
1.39028e-05
1.767e-05
2.9281e-05
3.26457e-05
1.74802e-05
9.97348e-06
1.847e-05
3.02602e-05
3.65413e-05
9.62146e-06
2.00212e-05
1.16854e-05
2.06751e-05
1.22173e-05
2.36326e-05
2.26407e-05
1.08441e-05
1.51164e-05
1.51037e-05
1.25258e-05
2.76156e-05
2.02566e-05
3.07661e-05
3.55643e-05
1.7239e-05
2.93362e-05
3.1261e-05
1.68424e-05
1.94901e-05
1.67426e-05
1.88016e-05
2.69318e-05
2.29951e-05
2.02027e-05
2.09539e-05
1.86234e-05
2.87733e-05
1.58112e-05
2.87378e-05
2.87267e-05
3.02095e-05
1.43486e-05
1.43109e-05
9.13914e-06
1.47185e-05
1.54551e-05
2.32713e-05
2.97745e-05
1.91171e-05
2.26397e-05
1.17223e-05
8.89681e-06
2.5796e-05
2.69384e-05
3.11154e-05
1.22516e-05
1.33406e-05
2.36396e-05
1.7254e-05
1.42383e-05
3.0898e-05
1.09546e-05
3.07858e-05
9.71711e-06
3.11445e-05
2.16858e-05
1.68473e-05
2.87246e-05
2.53249e-05
2.87903e-05
3.03115e-05
2.96154e-05
3.01791e-05
1.62893e-05
1.38813e-05
2.73324e-05
1.49238e-05
2.78415e-05
2.49736e-05
1.86692e-05
3.02109e-05
1.44334e-05
3.12043e-05
2.78133e-05
2.01337e-05
3.44699e-05
1.97496e-05
2.04771e-05
1.21177e-05
3.24636e-05
1.34294e-05
2.85184e-05
1.24662e-05
2.03977e-05
2.61866e-05
2.62441e-05
2.59305e-05
2.80282e-05
3.4502e-05
1.20321e-05
3.45882e-05
1.33934e-05
2.57818e-05
2.81968e-05
1.56134e-05
1.06246e-05
1.71426e-05
2.43533e-05
1.37555e-05
2.8882e-05
3.37758e-05
1.72313e-05
9.95002e-06
2.09718e-05
2.76247e-05
2.91237e-05
1.43448e-05
3.31049e-05
1.11641e-05
3.41505e-05
1.85853e-05
3.36485e-05
1.34185e-05
2.36023e-05
2.64873e-05
1.10089e-05
3.02507e-05
2.74354e-05
5.1515e-06
2.9889e-05
1.04478e-05
1.18725e-05
2.33569e-05
2.93876e-05
2.48321e-05
2.33146e-05
2.82263e-05
1.07198e-05
2.23563e-05
8.44458e-06
2.82857e-05
1.08198e-05
1.83577e-05
2.43531e-05
2.79262e-05
2.87332e-05
3.08167e-05
2.96558e-05
2.40652e-05
1.38978e-05
1.08764e-05
2.57962e-05
2.55856e-05
3.05477e-05
1.26464e-05
3.12705e-05
2.65465e-05
3.34089e-05
1.23986e-05
1.12964e-05
1.17429e-05
3.1392e-05
3.20806e-05
1.09717e-05
2.04236e-05
1.20192e-05
3.04397e-05
1.41764e-05
1.48791e-05
1.46428e-05
2.98043e-05
2.72941e-05
1.08698e-05
3.3907e-05
3.23967e-05
1.15587e-05
1.48128e-05
1.48022e-05
1.51608e-05
1.33112e-05
2.84868e-05
2.87553e-05
1.40782e-05
3.27786e-05
1.53365e-05
1.0052e-05
2.91258e-05
8.96772e-06
8.84649e-06
3.14938e-05
3.12811e-05
3.15724e-05
2.89063e-05
2.97478e-05
2.28153e-05
2.56323e-05
3.02818e-05
2.74722e-05
1.32533e-05
2.25882e-05
1.74791e-05
1.26057e-05
3.20642e-05
2.98295e-05
3.27109e-05
1.1355e-05
2.07539e-05
1.82811e-05
1.09443e-05
3.01878e-05
2.43891e-05
1.31489e-05
2.94919e-05
3.02539e-05
1.72328e-05
3.05404e-05
1.73042e-05
2.8269e-05
2.20889e-05
3.36881e-05
1.06414e-05
1.12253e-05
1.90936e-05
2.96141e-05
2.90293e-05
2.91968e-05
1.3245e-05
1.4546e-05
1.8478e-05
2.17174e-05
1.30161e-05
1.76653e-05
1.30076e-05
3.37231e-05
2.56347e-05
1.03269e-05
2.35139e-05
3.17191e-05
2.93277e-05
3.62867e-05
9.87752e-06
3.03031e-05
2.20837e-05
3.34016e-05
1.20697e-05
1.883e-05
1.31645e-05
1.45615e-05
1.69047e-05
1.32099e-05
3.07364e-05
2.85092e-05
3.03625e-05
2.7536e-05
2.17998e-05
1.9945e-05
2.11694e-05
2.83114e-05
9.93287e-06
3.60386e-05
1.50186e-05
2.99113e-05
2.63818e-05
1.53699e-05
1.72955e-05
1.01939e-05
1.86426e-05
1.65348e-05
3.06245e-05
3.04306e-05
2.7843e-05
2.06297e-05
1.96376e-05
2.75516e-05
3.47515e-05
3.27011e-05
8.61258e-06
3.29854e-05
3.58109e-05
1.02094e-05
3.21817e-05
2.5469e-05
3.41865e-05
2.94935e-05
1.93809e-05
1.18973e-05
2.96317e-05
3.2388e-05
1.85609e-05
2.58376e-05
3.56458e-05
2.01114e-05
9.74735e-06
3.34266e-05
1.26054e-05
1.91907e-05
3.04219e-05
3.37284e-05
2.39852e-05
1.34097e-05
2.59457e-05
2.77748e-05
3.02089e-05
3.62311e-05
3.12137e-05
2.68014e-05
2.11709e-05
3.04233e-05
2.75709e-05
2.1256e-05
1.37557e-05
2.57702e-05
3.41855e-05
1.15729e-05
2.13905e-05
2.34694e-05
3.27633e-05
3.01648e-05
3.50605e-05
3.40663e-05
2.15651e-05
1.10679e-05
3.44246e-05
8.9099e-06
8.48891e-06
3.13264e-05
3.45347e-05
2.30251e-05
3.28657e-05
2.49943e-05
3.3439e-05
2.74726e-05
1.42932e-05
2.04743e-05
1.93136e-05
1.7891e-05
2.99454e-05
3.14104e-05
2.74342e-05
1.02677e-05
3.18004e-05
8.55396e-06
3.05748e-05
1.45934e-05
3.03421e-05
3.13064e-05
2.01659e-05
2.67169e-05
2.34816e-05
8.84803e-06
7.79019e-06
3.42508e-05
1.2133e-05
2.69679e-05
3.3726e-05
2.14298e-05
1.8247e-05
1.21341e-05
3.31255e-05
1.28653e-05
1.03633e-05
3.02622e-05
1.94725e-05
1.03998e-05
1.85497e-05
3.25426e-05
2.75536e-05
1.16676e-05
2.89737e-05
1.13815e-05
1.22732e-05
1.59122e-05
1.48818e-05
1.24582e-05
2.60908e-05
2.74948e-05
1.81445e-05
2.18919e-05
2.78661e-05
1.28256e-05
3.04508e-05
2.89129e-05
5.66787e-06
1.36815e-05
1.24611e-05
3.00694e-05
8.19977e-06
3.10498e-05
3.26177e-05
3.05414e-05
1.02897e-05
8.16846e-06
3.10258e-05
1.49399e-05
3.13864e-05
3.30686e-05
3.13607e-05
9.88355e-06
9.474e-06
3.16133e-05
1.98055e-05
1.24646e-05
3.58452e-05
3.14546e-05
3.32097e-05
3.06535e-05
2.42697e-05
3.08265e-05
2.19553e-05
2.819e-05
1.8728e-05
2.89973e-05
2.32569e-05
1.09644e-05
2.74017e-05
1.92229e-05
1.21136e-05
3.26745e-05
2.49123e-05
7.24334e-06
3.40512e-05
2.38252e-05
2.98009e-05
1.30006e-05
3.19348e-05
2.67254e-05
3.15518e-05
1.62208e-05
1.51462e-05
1.30996e-05
3.3278e-05
2.31778e-05
3.26678e-05
3.36526e-05
2.73233e-05
1.3494e-05
1.24922e-05
3.19899e-05
3.16848e-05
3.29766e-05
2.22982e-05
2.92983e-05
2.93067e-05
3.18929e-05
8.56048e-06
9.15442e-06
2.76078e-05
1.66292e-05
3.01756e-05
9.39849e-06
2.24779e-05
3.10832e-05
1.94022e-05
3.19318e-05
2.69235e-05
3.55195e-05
2.14893e-05
1.98208e-05
3.24652e-05
3.21595e-05
3.34229e-05
1.87553e-05
1.14531e-05
3.05451e-05
1.68255e-05
3.37677e-05
1.26747e-05
2.9329e-05
2.12823e-05
3.31095e-05
5.62063e-06
3.36957e-05
2.87588e-05
4.23081e-05
2.87154e-05
2.99901e-05
9.23723e-06
3.28172e-05
2.4439e-05
3.46066e-05
1.02108e-05
2.69863e-05
2.65727e-05
3.05807e-05
2.61688e-05
3.37525e-05
2.08887e-05
1.73291e-05
2.73145e-05
3.1726e-05
3.39386e-05
1.03299e-05
2.69176e-05
1.23597e-05
1.71837e-05
8.7123e-06
2.11772e-05
2.58797e-05
2.71784e-05
2.92076e-05
2.86958e-05
2.00366e-05
2.18776e-05
1.30436e-05
7.42335e-06
2.8677e-05
1.90899e-05
2.93982e-05
3.14553e-05
2.85011e-05
2.95379e-05
1.88319e-05
2.68819e-05
2.11818e-05
2.85788e-05
1.01473e-05
3.26119e-05
2.15928e-05
2.05419e-05
2.21652e-05
5.30732e-06
3.33094e-05
2.64028e-05
3.01678e-05
3.3351e-05
2.34342e-05
7.11645e-06
3.01589e-05
7.72531e-06
2.04289e-05
3.23366e-05
3.28397e-05
3.02282e-05
2.49204e-05
1.12144e-05
2.33152e-05
2.02632e-05
1.28071e-05
1.4198e-05
1.3585e-05
1.61352e-05
1.16769e-05
2.30888e-05
1.20835e-05
1.72031e-05
2.86623e-05
8.33021e-06
7.26797e-06
7.07352e-06
2.66649e-05
2.37955e-05
8.27605e-06
3.37084e-05
2.66879e-05
3.13421e-05
2.45362e-05
2.13048e-05
1.37108e-05
2.70568e-05
2.841e-05
3.00734e-05
2.969e-05
3.41765e-05
1.94005e-05
3.18787e-05
3.30071e-05
2.30111e-05
3.24388e-05
3.29263e-05
3.10966e-05
3.10915e-05
2.97449e-05
6.00367e-06
3.09862e-05
1.03941e-05
2.84974e-05
3.47256e-05
1.2217e-05
2.78493e-05
1.08774e-05
3.51178e-05
3.02988e-05
1.54654e-05
2.95613e-05
2.41837e-05
8.72506e-06
7.47375e-06
2.62771e-05
2.7182e-05
1.40027e-05
1.83105e-05
2.04184e-05
3.38841e-05
2.60345e-05
2.36318e-05
3.32732e-05
1.33195e-05
3.16973e-05
1.49339e-05
2.62283e-05
7.69539e-06
2.91987e-05
2.21612e-05
8.59739e-06
9.52586e-06
6.39825e-06
1.09746e-05
2.31876e-05
3.04279e-05
1.41021e-05
3.28167e-05
9.82363e-06
3.3504e-05
3.04089e-05
3.63478e-05
3.3687e-05
6.27754e-06
2.92207e-05
3.56267e-05
3.24286e-05
9.37955e-06
2.62385e-05
3.83098e-05
3.21766e-05
1.49025e-05
3.39261e-05
2.96094e-05
2.62004e-05
8.98663e-06
5.24514e-06
2.2391e-05
3.26384e-05
3.29907e-05
3.1394e-05
1.36072e-05
2.47994e-05
3.59985e-05
3.4456e-05
8.72512e-06
1.16256e-05
3.14759e-05
3.24123e-05
1.30353e-05
3.32851e-05
3.57033e-05
1.86665e-05
8.84407e-06
7.59134e-06
3.19083e-05
3.22389e-05
3.32348e-05
3.01646e-05
1.01115e-05
3.30385e-05
9.65826e-06
3.57745e-05
2.03966e-05
2.80809e-05
1.34675e-05
9.96342e-06
3.28806e-05
4.74017e-06
1.73328e-05
2.08278e-05
3.17555e-05
3.37509e-05
1.23689e-05
2.41403e-05
3.40104e-05
2.79382e-05
3.08339e-05
1.62555e-05
2.55889e-05
1.42843e-05
1.76727e-05
2.32646e-05
2.39589e-05
1.51065e-05
1.8364e-05
1.35413e-05
2.42975e-05
2.64028e-05
3.25357e-05
3.70657e-05
1.6433e-05
2.86736e-05
3.02937e-05
5.59267e-06
1.14662e-05
1.14495e-05
1.12322e-05
1.80406e-05
1.81503e-05
1.92475e-05
2.10816e-05
2.97797e-05
1.46059e-05
3.18852e-05
5.29306e-06
2.64211e-05
6.50204e-06
1.44273e-05
3.13399e-05
1.07371e-05
1.50101e-05
1.14272e-05
1.35695e-05
1.9888e-05
1.21602e-05
1.89697e-05
4.94066e-06
3.09244e-05
3.09353e-05
2.5661e-05
3.21342e-05
2.00908e-05
2.3425e-05
3.1054e-05
2.22018e-05
6.74709e-06
2.90499e-05
2.99363e-05
3.50013e-05
2.57947e-05
3.53671e-06
4.02034e-05
2.77542e-05
2.02112e-05
3.23752e-05
1.42308e-05
2.19103e-05
1.13215e-05
8.13226e-06
1.45945e-05
7.19037e-06
1.16603e-05
2.05964e-05
2.79052e-05
1.34233e-05
1.33197e-05
3.14839e-05
1.73621e-05
3.04546e-05
2.8304e-05
3.15659e-05
3.8768e-05
1.11568e-05
3.45809e-05
3.1356e-05
1.80539e-05
3.24099e-05
2.09831e-05
3.13863e-05
3.00441e-05
1.06676e-05
5.8489e-06
3.52306e-05
3.05387e-05
3.30374e-05
8.28234e-06
7.74552e-06
2.6947e-05
3.36577e-05
3.36864e-05
1.9426e-05
1.45335e-05
8.74775e-06
2.50243e-05
7.84866e-06
3.11328e-05
1.00669e-05
2.44735e-05
3.09729e-05
2.06226e-05
3.08427e-05
1.5973e-05
2.85192e-05
3.08113e-06
7.33813e-06
1.02714e-05
2.92883e-05
5.51095e-06
1.34491e-05
9.55079e-06
3.44043e-05
1.18473e-05
3.07929e-05
2.28457e-05
2.5211e-05
3.519e-05
3.46902e-05
3.36084e-05
3.0203e-05
3.37013e-05
2.90461e-05
2.80666e-05
3.18077e-05
2.00759e-05
1.13189e-05
1.76869e-05
3.20546e-05
1.16022e-05
2.72079e-05
1.67952e-05
2.98685e-05
3.47184e-05
3.48652e-05
9.90055e-06
3.44873e-05
2.33032e-05
1.57589e-05
2.25699e-05
3.37306e-05
1.95051e-05
3.56225e-05
3.23598e-05
7.59584e-06
3.31451e-05
1.34047e-05
3.00066e-05
3.29484e-05
3.24553e-05
2.73679e-05
1.5833e-05
3.48124e-05
2.54731e-05
2.12785e-05
3.36745e-05
3.51519e-05
1.4986e-05
8.7812e-06
2.55577e-05
1.21048e-05
2.47749e-05
3.0656e-05
2.69503e-05
1.32222e-05
9.45268e-06
2.73362e-05
2.46097e-05
2.87606e-05
2.66865e-05
3.29109e-05
9.18132e-06
3.42923e-05
1.82765e-05
2.69463e-05
2.50008e-05
1.23996e-05
9.71302e-06
1.11554e-05
6.84537e-06
3.2016e-05
2.93411e-05
3.17024e-05
3.08908e-05
3.3642e-05
2.93203e-05
3.26249e-05
5.73411e-06
3.33533e-05
3.57099e-05
3.30458e-05
3.38576e-05
3.02011e-05
3.19025e-05
3.16265e-05
5.65242e-06
1.12816e-05
1.35835e-05
2.72865e-05
2.95383e-05
2.10493e-05
9.62107e-06
2.77638e-05
8.1797e-06
3.86549e-05
3.61803e-05
3.37952e-05
3.52766e-05
2.9644e-05
3.22101e-05
3.32833e-05
3.08784e-05
1.11792e-05
2.05918e-05
2.07839e-05
1.2695e-05
1.34925e-05
3.13971e-05
1.23284e-05
1.98123e-05
2.59181e-05
2.26967e-05
2.21318e-05
3.35915e-05
1.14608e-05
3.58564e-05
5.65739e-06
8.33142e-06
3.53314e-05
8.27098e-06
8.13591e-06
9.93777e-06
3.21728e-05
4.03046e-05
3.58886e-05
1.20014e-05
1.78733e-05
1.33008e-05
2.12362e-05
3.59734e-05
1.1126e-05
2.28017e-05
9.7204e-06
1.22951e-05
2.9058e-05
3.3296e-05
1.09628e-05
1.16151e-05
1.03447e-05
1.03777e-05
3.48543e-05
1.25129e-05
3.51754e-05
3.38695e-05
5.05718e-06
3.19341e-05
1.28683e-05
2.20638e-05
2.74915e-05
2.76013e-05
1.96203e-05
2.04814e-05
1.71533e-05
3.41538e-05
6.09113e-06
1.29048e-05
2.43984e-05
3.411e-05
3.11652e-05
1.90924e-05
1.35816e-05
2.69937e-05
1.35476e-05
3.35647e-05
2.90371e-05
3.36483e-05
3.6214e-05
3.20121e-05
1.43034e-05
1.27265e-05
3.55046e-05
3.95422e-05
9.35328e-06
2.67879e-05
4.04089e-05
1.03339e-05
3.25213e-05
3.03452e-05
9.40522e-06
3.09305e-05
2.19539e-05
3.01864e-05
7.89e-06
2.93473e-05
9.55593e-06
4.62562e-06
3.39686e-05
1.04876e-05
3.1494e-05
1.09842e-05
2.4978e-05
2.05971e-05
3.30041e-05
1.38499e-05
2.47721e-05
2.43776e-05
1.76263e-05
1.11747e-05
4.92513e-06
9.72416e-06
8.39576e-06
1.2142e-05
6.66755e-06
7.21631e-06
7.99225e-06
3.46476e-05
3.46552e-05
2.67934e-05
7.23507e-06
1.17874e-05
5.15476e-06
1.69206e-05
3.42835e-05
6.85515e-06
1.25844e-05
2.35241e-05
5.28642e-06
1.44646e-05
3.50023e-05
2.93878e-05
2.13856e-05
7.04635e-06
1.48645e-05
1.2126e-05
2.84692e-05
2.9296e-05
1.17395e-05
2.16385e-05
2.9261e-05
2.98773e-05
3.26271e-05
3.12273e-05
2.61254e-05
3.10531e-05
3.341e-05
6.40915e-06
3.0819e-05
2.45016e-05
2.23721e-05
1.16907e-05
1.00397e-05
2.97e-05
1.46056e-05
1.81919e-05
7.87709e-06
3.27468e-05
9.90355e-06
2.3463e-05
2.97423e-05
3.25668e-05
2.56711e-05
9.7677e-06
1.40858e-05
1.19656e-05
1.24209e-05
1.98358e-05
3.90012e-05
2.67546e-05
3.33778e-05
3.36574e-05
4.00804e-05
2.88944e-05
1.22373e-05
6.01571e-06
1.94451e-05
3.38295e-05
4.12681e-05
3.64242e-05
2.08065e-05
1.08333e-05
3.40711e-05
2.71617e-05
1.98402e-05
1.13539e-05
1.29859e-05
1.4256e-05
3.5978e-05
3.36186e-05
3.26164e-05
3.17453e-05
1.01838e-05
3.08278e-05
2.00415e-05
3.48686e-05
9.72027e-06
1.10746e-05
2.48348e-05
2.73607e-05
3.38674e-05
1.42113e-05
3.02915e-05
1.14456e-05
2.81766e-05
5.87635e-06
6.04615e-06
2.13008e-05
3.05915e-05
3.31558e-05
1.12116e-05
3.41011e-05
2.89604e-05
4.83544e-06
3.32263e-05
2.06195e-05
1.14152e-05
1.96455e-05
1.94196e-05
1.07357e-05
3.1743e-05
1.20607e-05
2.75402e-05
3.26103e-05
1.28506e-05
4.08262e-05
7.43762e-06
2.05163e-05
9.18825e-06
8.92949e-06
3.141e-05
6.85425e-06
1.12762e-05
1.19121e-05
3.85361e-05
5.08034e-06
3.88899e-06
9.59981e-06
1.32207e-05
1.11367e-05
3.44887e-05
5.47289e-06
2.41113e-05
3.3711e-05
1.90895e-05
1.65625e-05
1.76161e-05
3.08117e-05
2.56495e-05
1.20082e-05
1.40247e-05
2.57183e-05
1.24929e-05
1.44236e-05
2.38487e-05
2.22618e-05
2.47419e-05
2.54403e-05
2.57193e-05
2.75285e-05
1.79635e-05
1.66635e-05
1.46568e-05
1.27366e-05
1.51474e-05
1.3807e-05
3.1535e-05
3.53214e-05
1.71454e-05
1.4906e-05
1.3778e-05
1.21368e-05
3.07753e-05
2.96921e-05
1.0473e-05
1.33921e-05
1.30187e-05
1.39395e-05
1.26729e-05
1.31201e-05
3.18072e-05
2.6119e-05
2.99619e-05
2.71094e-05
2.25101e-05
2.2668e-05
2.85346e-05
3.05363e-05
2.82397e-05
2.95293e-05
2.35446e-05
2.40582e-05
2.33745e-05
2.63814e-05
2.92169e-05
3.09708e-05
2.29255e-05
2.3896e-05
2.86456e-05
2.71314e-05
3.07304e-05
3.26909e-05
3.13307e-05
3.13228e-05
2.60191e-05
2.7255e-05
1.05468e-05
9.52662e-06
1.43167e-05
1.42808e-05
1.69967e-05
1.77842e-05
2.90865e-05
2.70669e-05
2.03872e-05
1.98363e-05
2.03957e-05
1.92083e-05
2.12633e-05
1.94291e-05
2.91458e-05
2.47269e-05
3.04708e-05
2.89028e-05
1.86253e-05
1.9773e-05
1.73052e-05
1.786e-05
1.64641e-05
1.99183e-05
1.39471e-05
1.31279e-05
3.11367e-05
3.60172e-05
1.03553e-05
9.44649e-06
8.74013e-06
8.07703e-06
8.68305e-06
7.80958e-06
5.41805e-06
6.43396e-06
3.28784e-05
3.65742e-05
2.7627e-05
2.76363e-05
2.97161e-05
3.28288e-05
2.94534e-05
2.95127e-05
3.14434e-05
2.99232e-05
2.62563e-05
2.58842e-05
2.12973e-05
2.16041e-05
1.92436e-05
1.91252e-05
2.29656e-05
2.55451e-05
2.1617e-05
2.42403e-05
3.17498e-05
3.21663e-05
1.21644e-05
1.26363e-05
3.06575e-05
3.06964e-05
3.11118e-05
3.14228e-05
1.1039e-05
1.25981e-05
5.15428e-06
4.76825e-06
3.99722e-05
4.53407e-05
3.03548e-05
3.05831e-05
3.06897e-05
4.34613e-05
4.23271e-05
5.93487e-05
3.13843e-05
3.9487e-05
3.35231e-05
4.25708e-05
3.69124e-05
3.88899e-05
3.74907e-05
3.09711e-05
4.33954e-05
4.67175e-05
4.2038e-05
3.09009e-05
3.56955e-05
4.24285e-05
3.42768e-05
3.87785e-05
4.72474e-05
3.45451e-05
4.44317e-05
4.60867e-05
3.25725e-05
3.51191e-05
3.71452e-05
4.47928e-05
5.12569e-05
3.7435e-05
5.71185e-05
3.24814e-05
3.68665e-05
4.34503e-05
3.33825e-05
3.78997e-05
5.32658e-05
3.42298e-05
4.93605e-05
3.80413e-05
3.27037e-05
3.47899e-05
3.6418e-05
3.95988e-05
3.06167e-05
3.86954e-05
4.75234e-05
3.77693e-05
5.26029e-05
3.81516e-05
3.54218e-05
3.98545e-05
4.38139e-05
4.04481e-05
4.16081e-05
2.96104e-05
4.2083e-05
2.9733e-05
3.03752e-05
4.36701e-05
3.57556e-05
4.30032e-05
3.43329e-05
3.64485e-05
3.24676e-05
4.30431e-05
4.06644e-05
3.56645e-05
4.16876e-05
3.62464e-05
2.98751e-05
4.55202e-05
3.81978e-05
5.33587e-05
4.84716e-05
3.45101e-05
3.5765e-05
3.09631e-05
3.92274e-05
2.903e-05
4.42054e-05
3.51628e-05
4.02754e-05
3.17196e-05
3.13801e-05
3.66202e-05
3.68421e-05
3.05178e-05
3.47075e-05
3.23036e-05
3.50036e-05
3.45628e-05
4.23009e-05
4.4441e-05
4.57854e-05
3.23199e-05
4.83183e-05
3.62918e-05
3.68462e-05
5.28289e-05
3.8261e-05
3.55109e-05
2.77343e-05
3.46635e-05
3.72781e-05
4.57041e-05
3.50661e-05
4.33415e-05
4.1251e-05
4.48788e-05
3.64342e-05
3.60875e-05
3.884e-05
3.23032e-05
4.62855e-05
3.73887e-05
4.30242e-05
4.5325e-05
3.63405e-05
5.43256e-05
5.05772e-05
3.731e-05
3.51892e-05
5.32507e-05
3.99985e-05
4.57143e-05
3.77694e-05
4.0133e-05
3.58597e-05
4.66008e-05
4.32546e-05
3.69823e-05
3.87646e-05
3.78922e-05
4.80039e-05
3.07558e-05
3.6491e-05
4.77794e-05
3.78111e-05
3.37165e-05
3.57327e-05
3.88646e-05
3.6027e-05
2.58283e-05
3.90118e-05
3.79498e-05
3.42632e-05
6.10784e-05
4.36243e-05
4.62987e-05
3.35314e-05
3.22277e-05
4.63791e-05
4.20189e-05
3.11686e-05
3.21828e-05
4.12085e-05
4.68133e-05
5.48048e-05
3.57174e-05
4.00586e-05
3.82694e-05
4.87445e-05
3.74708e-05
3.07535e-05
4.27617e-05
4.50654e-05
4.24479e-05
5.29329e-05
4.23103e-05
4.65976e-05
3.17913e-05
3.87362e-05
3.98193e-05
4.73022e-05
4.34796e-05
4.20856e-05
4.88918e-05
3.55951e-05
3.64529e-05
2.84761e-05
3.38528e-05
3.21364e-05
7.38052e-05
2.58607e-05
2.57255e-05
4.83924e-05
3.993e-05
4.74349e-05
4.43075e-05
5.58289e-05
4.0819e-05
5.25075e-05
5.40567e-05
3.54563e-05
3.7663e-05
5.30978e-05
3.74506e-05
4.75493e-05
3.41804e-05
4.4267e-05
3.18437e-05
3.67499e-05
3.65793e-05
3.72329e-05
3.96125e-05
3.42249e-05
4.94772e-05
5.58052e-05
4.66583e-05
4.91946e-05
4.01363e-05
2.10302e-05
4.1592e-05
5.53892e-05
3.78654e-05
5.40813e-05
3.21826e-05
6.35744e-05
4.50183e-05
3.25999e-05
4.09465e-05