/*--------------------------------*- C++ -*----------------------------------*\
| =========                 |                                                 |
| \\      /  F ield         | OpenFOAM: The Open Source CFD Toolbox           |
|  \\    /   O peration     | Version:  v2012                                 |
|   \\  /    A nd           | Website:  www.openfoam.com                      |
|    \\/     M anipulation  |                                                 |
\*---------------------------------------------------------------------------*/
FoamFile
{
    version     2.0;
    format      ascii;
    class       volScalarField;
    location    "1";
    object      epsilonEq;
}
// * * * * * * * * * * * * * * * * * * * * * * * * * * * * * * * * * * * * * //

dimensions      [0 0 0 0 0 0 0];


internalField   nonuniform List<scalar> 
15946
(
0.000428822
0.000106982
0.00052752
0.00101286
0.00086774
0.000490869
0.00054918
0.000133725
0.000451277
0.000406952
0.00044166
0.000442009
6.22559e-05
0.000497765
0.000389931
0.000222585
0.00037615
0.000424427
0.00030088
0.00044374
0.000412866
0.000389398
0.000371828
0.000405196
0.00037281
0.000567603
0.000665783
0.000441966
0.000447709
0.000181331
0.000500864
2.44095e-05
0.000386188
0.000261352
0.000232983
0.000431656
0.000553661
0.000344635
0.000192212
0.000437465
0.000439495
0.00072936
0.000235398
0.000160044
0.00020869
0.000129707
0.000398708
0.000898323
0.000388591
0.000744542
0.00017894
0.00022148
0.000244392
0.000168486
0.000567504
0.000327691
0.000368778
0.000387511
0.000277656
0.000360835
0.000214305
0.00038881
0.00017563
0.000481632
0.000537141
0.000456585
4.45973e-05
3.81728e-05
0.000152399
0.000211026
0.000234726
0.000197249
0.000340135
0.000527778
0.000495854
0.000312159
0.000116479
0.000566856
0.000377796
0.000206044
0.000199228
0.000190347
0.000272484
0.000236063
0.000524608
0.000481127
0.00033512
0.00021361
0.000155299
0.0004406
0.000411992
0.000527388
0.00047658
0.00039644
0.000310537
0.000256075
0.000365027
0.000479174
0.000402278
0.000416934
0.000434123
0.000322806
0.000262417
0.000292784
0.000330522
0.000257615
0.000361435
0.000344208
0.000341403
0.000422104
0.000397744
0.000458858
0.000406196
0.000466416
0.000376225
0.00030804
0.000243908
0.000442457
0.000298317
0.000317006
0.000322905
0.000295793
0.000322536
0.000326183
0.000383888
0.000633367
0.000394504
0.000174187
0.000184728
0.000228849
0.000436611
0.000323236
0.000334751
0.000236831
0.000435888
0.000419517
0.000235019
0.000416704
0.000218708
0.000836022
0.000478756
0.00013375
0.00054136
0.000426505
0.00051901
7.42368e-05
0.000990218
0.000317884
0.000330615
0.00034541
0.00032885
0.000362106
0.000326257
0.000381392
0.000385562
0.000125107
0.000504203
0.00097386
0.000839731
0.000484905
0.000123511
0.000547909
0.000440734
9.06533e-05
0.000367438
0.000544423
0.000682947
0.000434164
0.000484616
6.13243e-05
0.000534153
6.8057e-05
0.000348171
0.00041362
0.000264865
0.000163677
0.000265132
0.000252747
0.000558095
0.000466302
0.000425495
9.90169e-05
0.000390639
0.000382069
0.00026383
0.000305383
0.000182102
0.000526557
0.000365477
0.000208836
0.000135108
0.000907249
0.000446114
0.000173234
0.000172158
0.000370695
0.000846565
0.000136492
0.000432805
0.000631694
0.000399796
0.000154271
0.000173749
0.000900763
0.000186906
0.000208341
0.000472604
0.000212282
0.000312014
0.000253561
0.000382069
0.000390639
0.000298993
0.000307561
0.000202552
0.000285314
0.000552995
9.02845e-05
0.000186906
0.000173749
7.31122e-05
0.000410631
0.000561695
0.000430717
0.000794679
0.000146271
0.000598142
0.000550168
0.000605132
0.000740304
0.000504893
4.15471e-05
0.000279465
0.000171058
0.000345367
0.000336026
0.00015124
0.000556813
0.00040921
0.000587351
0.000275421
0.000112685
0.000226426
0.00016306
0.00013375
0.000478127
0.000734346
0.000355558
0.000301865
0.00046665
0.000840534
7.42368e-05
0.000125107
0.000456875
0.000280876
0.000932981
0.000764523
0.000508392
0.000366781
0.000123511
0.00016306
0.000174954
0.000441924
0.000217979
0.000168993
0.000230343
0.000915879
0.000536332
0.000241844
0.000226426
0.000422115
0.000403281
0.000666119
0.000649246
0.00022943
0.000147833
0.000154397
0.000113968
6.54784e-05
0.000167393
0.000374669
0.000225515
0.000121398
0.000257115
3.86017e-05
0.000261429
6.13073e-05
0.000129423
0.000132451
0.000147976
0.000149946
0.000177745
0.00034748
0.000310965
0.000241556
0.000180527
0.000118616
0.000136777
0.000350975
0.000313533
0.000323015
6.06647e-05
0.00025603
0.000237989
0.000263531
0.000319752
8.73737e-05
8.74147e-05
0.000164056
0.000135537
0.000121321
0.000118924
0.000136604
0.000191983
0.000258304
0.000146924
0.000171246
8.68237e-05
0.000186539
0.000130796
0.000311183
0.00034869
0.000247796
0.000153689
0.000179359
0.000229929
7.04939e-05
0.000232996
0.000253662
0.00059895
0.000608783
8.17827e-05
0.000656835
0.000166015
0.000672522
0.000310694
6.34081e-05
0.000269024
0.00043145
0.000261742
0.000163918
0.000294489
0.000192358
0.000138955
0.000293743
8.99598e-05
0.000329162
0.000657281
0.000211834
0.000345932
0.000166116
0.000169371
6.59986e-05
9.9476e-05
0.000276448
0.000497327
0.000314797
0.000341379
0.000117606
0.000289631
0.000209604
0.000325317
0.000289071
0.000107925
0.000320489
0.000163229
0.000180587
0.000355616
0.0003358
0.000220338
0.000299215
0.000299315
0.000192508
0.000186744
0.000292454
0.000267524
0.000180577
0.000309037
0.000400057
0.000314766
0.000126667
0.000190573
0.00013935
0.000609667
0.000293469
0.000259465
0.000348576
0.000162084
0.00012925
0.000271678
0.000662681
0.000255898
0.000146756
0.000303338
0.00013924
0.000406239
0.000142507
0.000162853
0.000297487
0.000121275
0.000213144
0.000331077
0.000327536
0.000255849
0.000194229
0.000241861
9.16735e-05
0.000260086
0.000302935
0.000411178
0.000383457
0.000119871
0.000303962
0.000236515
0.000142143
0.000314815
0.000111058
0.000197863
0.000171531
0.000184958
0.000136416
0.000199447
0.000135309
0.000604699
0.000665072
0.000271823
0.000276775
0.000216681
0.00024893
0.000239741
0.000241849
0.000217062
0.000251987
0.000251983
4.05886e-05
4.07529e-05
0.000321393
0.000156223
0.000311908
6.01344e-05
0.000130841
0.000665488
1.89684e-05
0.000332345
0.000261617
0.000118169
0.000670317
0.000159824
5.56048e-05
0.000224551
0.000604451
0.000173056
0.000135908
0.000351732
0.000256611
0.000256382
0.000282936
1.61825e-05
0.000149299
0.00010465
0.000646062
0.000645727
0.000326841
0.000328987
0.000255462
0.000190709
0.00045285
2.92726e-05
0.000656728
8.64837e-05
0.000294489
0.000122494
0.00026857
6.75547e-05
0.00013384
0.000369387
0.000247484
0.000330644
0.000210029
0.000594283
0.000216698
0.000270122
3.11379e-05
0.000386304
0.00022546
7.87196e-05
0.000243342
3.55135e-05
0.000308378
0.000322582
0.0003233
4.29134e-05
0.000330579
0.000236283
0.000262027
9.90583e-05
0.000219415
0.000161786
0.00017033
0.000187309
0.00030607
0.000588925
0.00013448
0.000250623
0.000193867
0.000170925
0.000198772
0.000197522
0.000281699
0.000280104
0.000206465
0.000184433
0.000250009
0.000236169
0.00033258
0.000228671
0.000237256
0.000140006
0.000177028
0.000244787
7.79042e-05
9.20921e-05
0.000166869
0.000217475
6.86612e-05
0.000289745
0.000208305
0.000261079
0.000238615
0.000417965
0.000157305
0.000132118
0.000109208
0.000182032
0.000315155
0.000357334
0.000219287
0.000258485
0.000249282
2.91035e-05
8.36207e-05
3.74402e-05
0.00019768
0.000198005
0.000294606
3.33755e-05
0.000283908
0.000229467
0.000367309
0.000278725
0.000669238
0.000176927
0.000324742
0.000111361
8.38257e-05
8.12984e-05
0.000206703
0.000275548
0.000173237
0.000168721
0.000233214
0.000118587
0.000106778
5.84358e-05
0.000185687
0.000144475
0.000359956
7.82192e-05
0.000109604
0.000154077
0.000163245
0.000107609
0.000616212
0.000236841
0.00026412
0.000218936
0.000181221
0.000136519
0.000317096
0.000298258
0.000359637
0.00042922
0.000274208
0.00023338
0.000319541
0.00022928
0.000392536
0.000385761
0.000219565
0.000285933
0.000240376
0.000238729
0.0002099
0.000164667
0.000216452
0.000242934
0.000380871
9.03249e-05
0.000237559
0.00011526
9.9205e-05
0.0002102
0.000159142
0.000240392
0.00015744
0.000207992
0.000118135
8.93497e-05
0.000361198
0.000241496
0.000444999
0.000162097
0.000271103
0.000424646
0.000360209
0.00031452
0.00027587
0.000185212
0.000406856
0.000231115
0.000605896
0.000182566
0.000123821
0.000244913
0.00020884
0.000220184
0.000139841
0.000183623
0.000235609
0.000187278
2.92319e-05
0.000150752
0.000261744
0.000347032
0.000298167
0.000214875
3.00928e-05
8.36527e-05
0.000664654
5.13742e-05
0.000232401
8.54433e-05
0.000160439
0.000154181
0.000130498
0.000160059
0.000212296
0.00025066
0.000610739
0.000186035
0.000412703
0.000245179
0.000151958
0.000229952
0.000352964
8.67407e-05
0.000224544
0.000140735
0.00044573
0.000421968
0.00012336
0.000159765
0.000271097
0.00031396
0.000225315
0.000367821
0.000123359
0.000113365
0.000301833
0.000303885
0.000270891
8.32214e-05
0.00014499
0.00019448
0.000231065
7.28722e-05
0.000131749
0.000162901
0.000309661
0.000360903
0.000236566
0.000227208
0.000185845
3.21028e-05
0.000183161
0.000173101
0.000272972
0.000340782
0.000104222
5.02075e-05
2.0072e-05
0.000248662
0.000242786
0.000280271
0.000183119
0.000267384
0.000662069
0.000242558
0.000323064
0.000383392
0.000266047
0.000239529
0.000213871
0.000345045
0.000349549
9.53182e-05
0.000606419
0.000327385
0.00013274
9.94377e-05
8.90387e-05
0.00019891
2.53004e-05
0.000165803
0.00012338
0.000288318
0.000122811
0.000141284
0.000235688
0.000272556
0.000127021
0.000158193
0.00044816
0.000133474
0.000209664
0.000222598
0.000279162
0.000190433
0.000405736
0.000410385
9.00091e-05
0.000653674
0.000653876
0.000625147
0.000304448
0.000624202
0.000109994
0.000459001
0.00026198
0.000262311
0.00041261
0.000168829
0.000145661
0.000132223
0.000307538
0.000300501
0.000223532
3.97691e-05
0.000138862
0.000372663
0.000170351
4.04585e-05
2.62174e-05
0.000323438
0.000115875
0.000175539
0.000348861
0.000224391
0.000245569
0.000266103
4.96718e-05
0.000298995
0.000154926
0.00037695
0.000389021
0.000239904
0.000617174
2.87343e-05
0.000217804
0.000186872
0.000117875
0.000340541
0.000266424
0.000614775
0.000263201
0.000176794
8.40542e-05
0.000404004
0.000396024
0.000214379
0.000143585
0.000224426
0.000296321
0.000238193
0.000275899
0.000275037
0.000273958
0.000236612
6.14713e-05
0.000268305
0.000362446
0.000333123
0.000297333
0.000221733
0.000366487
0.000204163
0.000298204
0.000230981
0.000197969
0.000220229
0.000143708
0.000391325
0.000158068
8.16573e-05
0.000407147
0.000277346
0.000228292
0.000410868
5.18219e-05
0.000325602
2.44596e-05
0.000208957
0.000244821
0.000106488
0.000380855
0.000226922
0.000291995
0.000262937
0.000431066
0.00038008
0.000194403
0.000409971
0.000194178
0.000235176
0.000287627
0.000244233
0.000246341
0.000255186
0.000133666
0.000669741
1.93078e-05
0.000284373
0.000641645
0.000276472
0.000266362
3.01291e-05
0.000206208
0.000127102
5.70815e-05
0.000312179
0.000166123
0.00059773
0.000675703
0.000407211
0.000377298
0.00067152
0.000389845
0.000382217
0.000364286
0.000389141
0.000650071
0.000303897
0.000317164
3.03234e-05
0.000270336
0.000219525
0.000156318
0.0002104
0.000219216
0.000192752
0.000663744
0.000331953
0.000407682
0.000410954
0.000592962
0.000565819
0.000379139
3.91139e-05
0.000489923
0.000197849
0.00028593
0.000490354
0.000283326
0.000174872
0.00012278
0.000343147
0.000256762
0.000109827
0.000208332
0.000420401
0.000196976
0.000235533
0.000131571
0.00029673
7.7714e-05
0.000198381
0.000135211
0.000253622
0.000128316
0.000247767
0.000101553
0.000155174
0.000220434
0.00022305
0.000147468
2.44738e-05
0.000178273
0.000206939
0.00019055
0.000227919
0.000161066
0.000100054
0.000236904
0.000285711
0.000165533
0.000400201
0.000369237
0.000254387
2.97553e-05
0.00028306
0.000218659
0.000440705
0.000200083
4.18539e-05
0.000254077
0.000257414
0.000186822
0.000632307
2.62254e-05
0.00029284
0.000175883
0.000402536
0.00034329
0.000109727
0.000395596
0.000290399
0.000176876
0.000390173
0.000271956
0.00022571
0.000399203
0.000112624
0.000183558
0.000415295
0.000624739
0.000269189
0.000334688
0.000109577
0.000273413
0.00018787
0.000417466
0.000459785
0.000217977
0.000364123
0.000179961
0.000335457
0.000392577
0.000230104
0.000349675
0.000396993
6.48287e-05
0.000369123
0.000444761
0.000188575
0.000263307
0.000292371
0.000213352
0.000342645
5.30204e-05
0.000179354
0.000213285
0.000190015
0.000202133
0.000292919
0.000110663
0.00011447
0.000377193
0.000158694
0.000203735
0.000302251
4.55156e-05
0.000405261
2.39259e-05
0.000151477
0.00028486
0.000112813
0.000391986
0.000628595
0.000395887
0.00017889
0.0003641
9.86094e-05
0.000212626
0.000299065
0.000277005
7.59123e-05
5.1502e-05
0.000146937
0.000380728
0.000415321
4.51317e-05
0.000286575
1.85597e-05
0.000289059
0.000158913
0.000164658
0.000136544
0.000153508
0.000173601
0.000187527
4.36902e-05
0.000278319
0.000248127
0.000374501
0.000407923
0.000199404
0.000336876
0.000407326
0.000170612
0.000261485
0.000257111
0.000119181
0.000379802
0.000249998
0.000266301
0.000270402
0.000175321
0.000290865
0.000112806
0.000419169
0.000419032
0.000245322
0.000184393
4.75722e-05
1.14005e-05
0.000205952
0.000216211
0.000164045
0.000323094
0.000288504
0.000258741
0.000196322
7.9642e-05
0.000297157
0.000276426
0.000389707
0.000265266
0.000200168
0.000151829
0.000235874
0.000156989
0.000255087
0.000150828
0.000321183
5.61408e-05
0.000578525
0.000272363
0.000276753
0.000349975
0.000373095
0.00064708
0.000243371
0.000389167
0.000378069
0.000192393
0.000182088
0.000522935
0.000161633
0.000525046
0.000328707
0.000222691
0.000398241
0.000133693
0.000394086
0.000268725
0.000217148
0.000442861
0.000243857
0.000251974
0.000144384
0.00040458
0.000121833
0.00036851
5.51876e-05
0.000215352
0.000196831
0.000262688
0.000256399
0.000394565
0.000489935
2.9842e-05
0.000398161
3.86458e-05
0.000254832
0.000372404
5.03041e-05
0.000134294
0.000120639
0.000250369
0.000119046
0.000374449
0.000331552
0.000244193
2.9215e-05
0.000171115
0.000359685
0.000568292
0.000147351
0.000320515
0.000141363
0.00033806
0.000187271
0.000400536
0.000231081
0.000156542
0.000318697
0.000153377
0.000665553
0.000320265
2.14569e-05
0.000639187
0.000119233
0.000204481
0.000321127
0.00032685
0.000317153
0.000278112
0.000319754
3.69236e-05
0.000297952
7.53504e-05
0.000220542
0.000150278
0.000217314
0.000197343
0.000202265
0.000426932
0.000604289
0.000436203
0.000302267
0.000146751
1.80392e-05
0.000248778
0.000219756
0.000474723
0.000147672
0.000608261
0.000337923
0.000302008
0.000214035
0.000159146
0.000157136
0.000399455
0.000656815
0.000134977
0.000289134
0.000161873
0.000374963
0.000154313
0.00012776
0.000194626
0.000348108
0.00032365
0.000137256
0.000667522
0.000630004
0.000178315
4.86952e-05
0.000102174
0.000201791
0.000100422
0.000203589
0.000634465
0.000171795
0.000406104
0.000114663
0.000128554
0.000367448
4.44853e-05
0.000102591
0.000400799
0.000258275
0.000543071
0.000640894
0.000630205
0.000155391
0.000424237
0.000392546
0.000290656
0.000134038
0.000277427
0.000115334
6.29454e-05
0.000300339
0.000278045
0.000279977
0.000187133
0.000240225
0.000166242
0.00017233
0.000209036
0.000290559
5.87496e-05
0.000355176
0.000214062
0.000143663
0.000325522
0.000246585
0.000324946
0.000269498
0.00065894
0.000142295
0.000212061
0.000206873
0.000361082
0.000367576
0.000364526
0.000138468
0.000202098
0.000199857
0.000236065
9.41693e-05
0.000175828
0.00019588
0.000455957
0.000330017
0.000124774
0.000128445
0.000470927
0.000216632
0.000413025
2.09811e-05
0.000619997
0.000252581
0.000408512
0.000218977
0.000216686
2.17971e-05
7.97277e-05
9.68809e-05
0.000180633
0.000398076
0.000360603
0.000272902
0.000286992
0.000270519
0.000267611
0.00018274
0.000293732
3.40468e-05
0.000380852
0.000219515
0.000374266
0.00033369
0.000122782
8.46403e-05
0.000125497
0.000219825
0.000254747
0.000384348
0.000344889
0.000368471
0.000132438
0.000118445
0.000401696
0.000392733
0.000663388
3.68074e-05
0.000297084
0.000391383
4.30427e-05
0.000667343
0.000301226
0.000400754
0.000281733
0.000234498
6.29741e-05
0.00025939
0.000304793
0.000215077
0.000323896
0.000418132
0.000228313
0.000131125
0.000446746
0.000149903
6.81011e-05
0.000290511
0.00028795
0.00030365
4.14959e-05
0.00015521
0.000265753
0.000456454
0.00044907
0.000615701
0.000296797
0.000176305
0.000268788
0.000356781
0.000170969
0.000174895
0.000267049
0.00037348
0.000162519
0.000281707
0.000291633
0.000359071
0.000331504
0.000411684
0.000356655
0.000252434
6.29342e-05
0.000417151
4.05108e-05
8.99057e-05
0.000461623
0.000402047
0.000273337
0.000403739
0.00028626
0.000351869
0.000321426
0.000213168
0.000162637
0.000217529
0.000211723
0.000201495
0.000354716
0.000345424
0.000132287
0.000656748
2.98313e-05
0.000314656
0.000178293
0.000604446
0.000625856
0.000151597
0.000213377
0.000191071
9.0816e-05
6.91655e-05
0.000395766
0.000201306
0.000163702
0.00035322
0.000285077
0.000156865
4.90397e-05
0.000342318
0.000129153
0.000111962
0.000219992
0.00022833
0.000129489
0.000286215
0.000343947
0.000328001
0.000153924
0.000639302
0.000146005
6.5572e-05
0.000146468
0.000123098
0.000125407
0.000185418
0.000204793
0.000242242
0.00025273
0.00030078
0.000221477
0.000393907
0.000184468
3.22809e-05
5.5942e-05
0.000189246
0.000412988
9.70004e-05
0.000635526
0.000628838
0.000270269
0.000130549
7.2505e-05
0.000224697
0.000182201
0.000312584
0.00067042
0.000394054
0.000100332
0.000114608
0.000618302
0.000229292
6.38042e-05
0.000383772
0.000365504
0.000635047
0.000239597
0.00029642
0.000397884
0.00026002
0.00036731
0.00012346
0.00037514
0.000273149
7.03788e-05
0.000342574
0.000225653
0.000149852
0.000663209
0.000119103
1.82117e-05
0.000400754
0.000236341
0.000375542
0.000158911
0.000610317
0.000344307
0.000671279
0.000113659
7.41829e-05
0.000144537
0.00030931
0.000258497
0.000409041
0.000320456
0.00031135
0.000256151
4.48318e-05
0.000622982
0.000385995
0.000345104
0.000254255
0.000458591
0.000430081
0.000401284
9.35345e-05
8.75427e-05
0.000353366
0.000203177
0.000476194
0.000115307
0.000299909
0.000450422
0.000224838
0.000654276
0.000173414
0.000406681
0.000264129
0.000257006
0.000314857
0.000399068
0.000372853
0.000128603
0.000172683
0.000270181
0.000201462
0.000673932
0.000136277
0.000404545
0.000128396
0.000614389
5.54885e-05
0.000391613
0.00040313
0.000464853
0.000634311
0.000653865
3.47286e-05
0.000339761
0.000327215
0.00038723
2.51837e-05
0.00017709
0.0003632
0.000217745
0.000323285
0.000406152
0.00026032
0.000269515
0.000357643
0.000657836
0.000311948
0.00013896
0.000286824
6.26549e-05
8.86821e-05
4.54001e-05
0.000177327
0.000369105
0.000176913
0.000355771
0.000426256
0.000278872
0.000276373
0.000176098
7.65648e-05
0.000295314
0.000212094
0.000442552
0.000645474
0.000381055
0.000377297
0.000228026
0.00016628
0.000251904
0.000362829
0.000161085
0.000404083
0.000291188
0.000296262
0.000187613
2.82564e-05
0.000434802
0.000340789
0.000382754
0.000390697
0.000188695
3.88503e-05
0.000377938
2.42028e-05
0.000310254
0.000398189
0.000333893
0.000643756
0.000128368
0.000189816
0.000156472
0.000238262
6.54549e-05
0.000102589
4.20627e-05
9.5002e-05
0.000211281
0.000172737
0.000122469
9.53458e-05
0.000222057
4.25358e-05
8.39937e-05
6.59201e-05
0.000293683
0.000123056
1.22182e-05
0.000399095
0.000343922
0.000587104
0.000189678
0.000149108
0.000177848
0.000387193
0.000619272
0.00063144
0.00020786
0.000419682
0.000145663
0.000384908
0.000517306
0.00027058
0.000353316
0.000516789
0.000681162
0.000655925
0.000627676
3.49525e-05
0.000645943
0.000178626
0.000599633
0.00039641
0.000198543
0.000369418
0.000155779
0.000337386
0.000428208
7.3714e-05
0.000422503
0.000276861
0.000112788
1.83031e-05
0.000220892
0.000352515
0.000191123
9.16556e-05
0.000295037
0.000683698
0.000407787
0.000404401
0.000300462
0.000254345
0.000264293
0.000183462
0.000207537
0.000101946
0.000481557
0.000273132
8.1288e-05
3.48753e-05
3.04383e-05
6.04947e-05
0.000168763
0.000229102
7.31409e-05
0.000413804
0.000127937
0.0003935
0.000608406
0.000435878
0.00038806
3.03244e-05
0.000608076
0.000402338
0.000287178
0.000101857
0.000223227
0.000474865
0.000656238
7.77133e-05
0.00037468
0.000326391
0.000312087
9.42634e-05
2.75026e-05
0.000133997
0.000669942
0.000287972
0.000647734
0.000224834
0.00019522
0.000410113
0.000403392
8.30892e-05
0.000164662
0.000645796
0.000646422
0.000176377
0.000314658
0.000442106
0.000109674
8.5727e-05
7.65209e-05
0.000404668
0.000356665
0.000355348
0.00039115
0.00012685
0.000250637
4.95903e-05
0.00041763
0.000321184
0.000421002
0.000257742
0.000134335
0.000395967
2.65743e-05
0.000204483
0.000262225
0.000263376
0.00068392
0.000187512
0.000184971
0.000682091
0.000298259
0.000267504
0.000118594
0.000298807
0.000153907
0.000211268
0.000195999
0.000289409
0.000191835
0.000152647
4.7525e-05
0.000418545
0.000433004
0.000373114
0.000395274
9.30635e-05
0.000604789
0.000629915
2.5693e-05
8.86441e-05
0.000158996
0.000118945
0.000272832
0.000150969
0.000168864
0.000246967
0.000462952
4.55979e-05
0.000492077
2.0104e-05
0.000226024
5.96235e-05
0.000246728
0.00023978
5.59256e-05
0.00024542
0.000132142
4.30566e-05
0.000294889
0.000135902
0.000250274
1.56065e-05
0.000414524
0.000610029
0.000315343
0.000262063
0.000151916
0.000268887
0.000391815
0.000256566
1.81957e-05
0.000212336
0.000391479
0.000452032
0.000350591
2.44732e-05
0.000502712
0.000199107
0.000222556
0.000667596
0.000148741
0.000244571
3.39635e-05
4.41577e-05
0.000196704
3.78687e-05
0.0001568
0.000280715
0.000208937
0.000202925
3.67535e-05
0.000276032
0.000169185
0.000384816
0.000353079
0.000385862
0.000469718
0.000210062
0.000327544
0.000624103
0.000199873
0.000280654
0.000147207
0.000511103
0.000474452
0.000136786
2.96624e-05
0.000344603
0.000668201
0.000661606
1.72989e-05
9.05826e-05
0.000318965
0.000325296
0.000295453
0.000314543
8.28667e-05
0.000107576
0.00030367
7.42487e-05
0.000351717
0.000108455
0.000246564
0.000392653
0.000222326
0.000593096
0.000301495
0.000363222
1.96157e-05
4.21701e-05
0.000114633
0.000411767
5.45659e-05
0.000140928
0.00011428
0.00032131
0.000114165
0.000306608
0.000248365
0.000228509
0.000372619
0.000286587
0.000398963
0.000245579
0.000343197
0.000606811
0.000594693
0.000262617
0.000121029
0.000157321
0.000147201
0.000309514
0.000226251
0.000178011
5.68366e-05
0.000487001
0.00039801
0.000675872
8.98199e-05
0.000419432
0.000201433
0.00022263
0.000330846
0.000669479
0.00022366
0.000403863
0.000567415
9.15861e-05
0.000380561
0.000136754
0.000552821
0.000529059
0.000598799
0.000302189
0.000300884
0.000390486
0.000295942
0.000242701
0.000398946
0.000405104
0.000302377
0.000118444
0.000156067
0.000125606
0.000289921
0.000638486
0.000205628
0.000159391
2.23355e-05
0.000368174
0.000193771
0.00021151
0.000162611
0.00043853
0.00011942
0.000313985
0.000212552
0.000196311
0.000307418
0.000134563
4.89999e-05
0.000188018
8.22091e-05
0.000388559
0.000452787
0.000508451
0.000615576
0.000618109
0.000439849
0.00028306
1.81793e-05
0.000262677
0.000410052
0.000665533
0.000362865
0.000652328
0.000277037
0.000656377
6.26254e-05
0.000167851
0.000114187
0.000415122
0.00038911
0.000166923
0.000129542
0.000208476
9.89805e-05
0.000446159
0.00046011
0.000397944
0.000419469
0.000670033
0.000675566
0.000382725
0.000676006
0.000158554
0.000289268
0.000279153
9.93421e-05
6.31011e-05
0.000394794
0.000222243
0.000278045
0.000150939
0.000165998
9.34836e-05
0.000687805
8.56073e-05
0.000412373
5.4014e-05
8.64429e-05
0.000414389
0.000105478
2.63484e-05
0.000134555
0.000331165
0.000473821
0.00043977
0.000180104
0.000269373
0.000199488
0.000154241
0.000399298
0.000176592
0.000330703
6.09405e-05
0.000111002
0.00039173
0.000348158
0.000164195
0.000200012
0.000129926
0.000145335
0.000425258
0.000188597
0.000291764
0.000408927
2.85297e-05
0.000264059
0.000219868
0.000183111
0.000257565
0.00022721
9.47145e-05
0.000254021
5.06432e-05
0.000406926
5.68681e-05
0.000179773
0.000283078
0.00041236
0.00035251
8.47692e-05
0.000282833
0.000176568
0.000251571
0.000390407
0.000345798
0.000404225
0.000345072
0.000305014
5.20523e-05
0.000280124
0.000421162
0.000496799
0.000109455
0.000183717
0.000456812
6.43214e-05
0.000486684
0.000212036
0.000116016
0.000633695
0.000178407
0.000225577
2.27733e-05
0.000421322
9.33205e-05
1.81896e-05
0.000672626
0.000154793
0.000268616
0.000117894
0.000434159
0.000173921
0.000301686
8.8736e-05
0.000206423
0.000248696
8.04135e-05
0.000190086
4.98473e-05
8.94888e-05
3.36496e-05
5.62387e-05
2.83534e-05
4.0261e-05
2.17089e-05
0.000380757
0.000409011
0.000442905
8.28918e-05
0.000159496
3.174e-05
0.000255646
0.000686322
5.73409e-05
0.000229444
0.000106782
2.45784e-05
0.000239537
0.000400496
0.000368332
0.000288309
8.12517e-05
8.36583e-05
0.000179438
0.000413063
0.000244773
7.62047e-05
0.000296795
0.000344239
0.000508146
0.000568233
0.000403502
0.000237426
0.000631121
0.000628562
7.15719e-05
0.000610634
0.000224985
0.000208711
0.000181453
0.000126932
0.000426013
0.000273598
6.18962e-05
2.35889e-05
0.000396342
9.56644e-05
0.000181578
0.000514342
0.000543889
0.000199012
7.07582e-05
0.000288817
0.000130553
0.000159517
0.000110654
0.000445763
0.000242641
0.000420673
0.00052957
0.000505521
0.000326895
0.000202474
4.11094e-05
0.000126197
0.00034456
0.000484775
0.00033846
0.000165287
0.000110934
0.000397769
0.000300691
0.000149419
0.000194167
0.000203809
0.000277568
0.000662935
0.000620729
0.000668932
0.000302461
3.01499e-05
0.000628847
0.00014313
0.000408163
8.43249e-05
0.000153966
0.00028582
0.000313518
0.000630773
7.58386e-05
0.000535986
0.000209646
0.000246681
6.85323e-05
6.10895e-05
0.000186023
0.000646702
0.000671925
0.000117847
0.0004069
0.000239446
4.60747e-05
0.000404321
0.000127911
0.000158978
0.00022303
0.000327947
5.12662e-05
0.000655385
0.000191136
0.000364417
0.000415666
0.000182384
0.00048777
8.79041e-05
0.000110941
7.26552e-05
4.32326e-05
0.000257464
6.42348e-05
0.000180781
0.000177412
0.00039806
2.66114e-05
1.75549e-05
2.68098e-05
0.000289441
0.000181074
0.000407814
6.09139e-05
0.000253885
0.000419223
0.000101281
0.000214035
0.000240123
0.000273218
0.000155253
0.000151306
0.000157411
0.000319105
0.000239585
0.000223851
0.000326639
0.00029758
0.000286401
0.000324183
0.000367275
0.00041047
0.000234136
0.000230766
0.000186629
0.00018208
0.000188448
0.000185315
0.000327533
0.000349257
0.000234944
0.000185369
5.92863e-05
3.08818e-05
0.00027335
0.000262616
0.000129423
0.000164768
0.000216881
0.000166863
0.000209808
0.000171976
0.000327673
0.00017124
0.00035595
0.000313429
0.000236617
0.000233116
0.000272162
0.000279501
0.000259423
0.000268599
0.000202771
0.00020463
0.000233276
0.000239215
0.000262027
0.000275337
0.000294641
0.000306784
0.000367207
0.000361715
0.000395345
0.000434274
0.000412832
0.000397999
0.000375295
0.00036075
3.88877e-05
5.08741e-05
0.000163528
0.000165069
0.000184304
0.000204827
0.000358634
0.000339004
0.000262809
0.000249822
0.000278946
0.000250782
0.00011089
8.29521e-05
0.000353806
0.000321408
0.000539623
0.000544816
0.00012935
0.00014422
0.000116128
0.00011556
0.000232932
0.000284078
3.26235e-05
2.45881e-05
0.000394957
0.000414636
4.25599e-05
3.6783e-05
3.57805e-05
2.48831e-05
4.05723e-05
4.2577e-05
2.08581e-05
2.52283e-05
0.000375542
0.000422675
0.000356951
0.000357877
0.000425941
0.000590475
0.000494632
0.000521371
0.00036622
0.00034594
0.000163928
0.000159728
0.00025297
0.000256693
0.000243109
0.000240917
0.000201642
0.000201026
0.000193928
0.000189531
0.000371083
0.000376291
0.000135367
0.00013158
0.000659343
0.000664148
0.000633437
0.000657696
0.00019933
0.000184493
3.0738e-05
2.25876e-05
0.000446035
0.000540942
0.000359796
0.000370939
0.000633216
0.000502401
0.000563962
0.000539005
0.000636521
0.000416446
0.000515885
0.000441493
0.00058884
0.000600033
0.000613155
0.000264537
0.000469536
0.000570039
0.000447776
0.000369176
0.000542402
0.000552089
0.000456287
0.00050838
0.000475398
0.000400896
0.000524454
0.000450829
0.000284221
0.000327989
0.000574276
0.000516561
0.000548581
0.000556677
0.000514948
0.000271787
0.000597577
0.000494813
0.000297403
0.000501035
0.000430041
0.000539592
0.000476445
0.000445757
0.000307199
0.000410683
0.00040067
0.000413452
0.000219671
0.000377765
0.000449198
0.000615607
0.000463682
0.000435928
0.000449757
0.000658326
0.000475098
0.000499143
0.000654998
0.000259265
0.000467098
0.000408729
0.000304006
0.000457912
0.000345889
0.000444283
0.000466016
0.000332263
0.000244143
0.000479833
0.000386828
0.000385026
0.000459924
0.000378602
0.000255839
0.000398403
0.000365915
0.00047911
0.000496615
0.000489866
0.00045924
0.000268299
0.000515769
0.000364523
0.000500756
0.00066151
0.000502112
0.000592002
0.000575078
0.000492536
0.000659126
0.000220218
0.000445229
0.000286632
0.000634059
0.000639129
0.000397813
0.000641064
0.000574714
0.000596048
0.000476183
0.000582721
0.000562158
0.000505741
0.000612582
0.00045958
0.000431783
0.000637626
0.000439059
0.000394653
0.000315252
0.000479015
0.000566482
0.000392003
0.000555752
0.000468643
0.000482738
0.000593493
0.00054386
0.000376137
0.000471933
0.00039841
0.000412969
0.000501786
0.000521321
0.000574941
0.000329664
0.000446283
0.000519531
0.000447753
0.000496839
0.000648445
0.000580182
0.000483842
0.000522958
0.000664719
0.000383998
0.000367876
0.000599104
0.00034296
0.000477909
0.000441604
0.000364948
0.000468781
0.000601746
0.000388041
0.000415902
0.00019318
0.000451639
0.00046231
0.0006418
0.000523713
0.000504207
0.00048007
0.000618822
0.000259234
0.000445017
0.000405449
0.00028803
0.000356125
0.00034734
0.000589426
0.000498731
0.000381054
0.000438132
0.000513464
0.000457138
0.000419439
0.000235309
0.000489828
0.00056285
0.000487169
0.000621709
0.000418581
0.000459649
0.000259494
0.000599829
0.000522561
0.00055398
0.000478522
0.000629953
0.00046375
0.000659585
0.000337691
0.000168488
0.000554527
0.00039588
0.000610031
0.000162465
0.000160921
0.000441674
0.000457163
0.00048219
0.000479937
0.000444901
0.000570074
0.000529278
0.000464713
0.000395937
0.000417573
0.000657952
0.00035588
0.000365627
0.000582185
0.000518805
0.00053752
0.000484569
0.000346169
0.000472218
0.000493476
0.000618322
0.000519375
0.000519988
0.000408749
0.000440467
0.000400833
0.000123279
0.000506344
0.000496632
0.000495827
0.000577991
0.000479145
0.000566914
0.000367043