/*--------------------------------*- C++ -*----------------------------------*\
| =========                 |                                                 |
| \\      /  F ield         | OpenFOAM: The Open Source CFD Toolbox           |
|  \\    /   O peration     | Version:  v2012                                 |
|   \\  /    A nd           | Website:  www.openfoam.com                      |
|    \\/     M anipulation  |                                                 |
\*---------------------------------------------------------------------------*/
FoamFile
{
    version     2.0;
    format      ascii;
    class       volSymmTensorField;
    location    "1";
    object      epsilon;
}
// * * * * * * * * * * * * * * * * * * * * * * * * * * * * * * * * * * * * * //

dimensions      [0 0 0 0 0 0 0];


internalField   nonuniform List<symmTensor> 
15946
(
(1.63459e-05 -2.35491e-05 7.84199e-07 -3.42739e-06 7.42284e-07 -3.83311e-06)
(-3.25148e-05 -2.30509e-05 4.80714e-06 1.73512e-08 2.71692e-06 7.13103e-06)
(-5.74824e-05 -4.31952e-06 -2.59977e-06 1.84323e-05 6.02971e-07 1.06874e-05)
(0.000101812 -1.44448e-05 -3.22684e-06 -5.32108e-05 3.49217e-06 -2.36471e-05)
(-9.263e-05 -1.59992e-05 -5.48098e-06 4.11335e-05 9.08136e-08 1.79194e-05)
(-1.40962e-05 -2.26124e-05 1.07708e-06 1.33488e-06 5.59764e-07 3.85137e-06)
(5.76643e-05 -2.45171e-06 3.86275e-07 -1.74685e-05 5.93652e-07 -1.05678e-05)
(3.3981e-05 -2.36762e-05 -2.49184e-06 -1.02781e-08 1.61432e-06 -7.29694e-06)
(2.02952e-05 -3.06361e-05 -4.5823e-06 -5.43498e-06 -3.30722e-07 -3.53753e-07)
(2.57939e-06 -2.52331e-05 1.38091e-06 -1.4106e-07 -6.36996e-07 -3.53753e-07)
(2.89729e-06 -3.57758e-05 2.49709e-06 -3.21981e-07 -1.81069e-06 -3.53753e-07)
(2.28599e-06 -2.73876e-05 -5.02461e-07 -1.85611e-06 -1.61317e-07 -3.83438e-06)
(3.13175e-06 -1.48141e-05 -9.82026e-07 2.81749e-06 5.44061e-07 -7.29544e-06)
(-6.29531e-05 -2.25739e-06 -2.94311e-06 2.03659e-05 3.67251e-06 1.79229e-05)
(-4.13052e-05 -1.54352e-05 -1.70359e-06 1.74004e-05 -6.60528e-07 1.06886e-05)
(3.42908e-05 -2.29396e-05 -1.23897e-06 -8.75906e-06 3.60406e-07 -7.29791e-06)
(1.54643e-05 -2.51127e-05 1.60795e-07 -5.81782e-06 -3.98627e-07 -3.82943e-06)
(-4.97571e-05 -1.76552e-05 -1.30594e-07 1.53585e-05 -3.48865e-06 1.78673e-05)
(-3.82431e-05 -1.28618e-05 -4.33329e-07 1.12676e-05 2.54648e-06 1.06638e-05)
(-2.26606e-05 -3.04712e-05 -7.10182e-06 3.42212e-06 -1.12511e-06 -3.53753e-07)
(7.44853e-06 -2.94494e-05 4.23594e-06 -1.59737e-06 -6.03329e-06 -3.53753e-07)
(1.0745e-05 -2.76251e-05 7.36917e-06 2.45311e-06 7.39804e-06 -3.53753e-07)
(-5.15282e-06 -2.85315e-05 6.73744e-06 -3.43224e-06 -8.38583e-06 -3.53753e-07)
(-9.38993e-07 -2.78545e-05 5.24295e-06 1.8882e-07 5.35152e-06 -3.53753e-07)
(3.97988e-05 -1.22797e-05 5.82788e-07 -1.19478e-05 -2.27397e-06 -1.05514e-05)
(5.39784e-05 -1.87338e-05 3.21779e-06 -1.77968e-05 1.2468e-06 -2.36193e-05)
(6.7612e-05 -2.10058e-06 1.50013e-06 -1.9366e-05 -3.19077e-06 -2.36538e-05)
(4.17877e-05 -1.36695e-05 -2.12028e-07 -1.73319e-05 -2.63431e-07 -1.05669e-05)
(-1.39014e-05 -2.52301e-05 -4.33455e-07 4.02615e-06 7.45394e-07 3.85827e-06)
(-3.30267e-05 -2.33538e-05 -5.52669e-08 1.11466e-05 -2.378e-06 7.12553e-06)
(-1.90743e-07 -2.68964e-05 3.32768e-07 4.67931e-07 1.08149e-06 3.8521e-06)
(5.30067e-07 -1.3174e-05 -1.65212e-06 -2.47032e-06 -1.8278e-06 7.13744e-06)
(2.0435e-05 -2.58529e-05 4.99148e-07 -6.02655e-06 -1.2267e-06 -5.70276e-06)
(4.31484e-05 -2.32097e-05 -7.26042e-07 -1.04092e-05 2.6731e-06 -1.05372e-05)
(-3.72721e-05 -1.20124e-05 -1.43154e-06 9.48907e-06 -2.07364e-06 6.1226e-06)
(-4.48182e-05 -2.50311e-05 5.18572e-08 2.1505e-05 2.75862e-06 9.1438e-06)
(4.73907e-05 -2.69564e-05 2.93194e-06 -1.79608e-05 -1.06097e-05 -1.05372e-05)
(3.91756e-05 -1.15118e-05 -7.65535e-07 -1.19137e-05 2.14647e-06 -5.70276e-06)
(-3.57022e-05 -2.28404e-05 1.04564e-06 1.11664e-05 -3.13005e-06 9.1438e-06)
(-1.79985e-05 -2.52543e-05 5.00649e-07 4.6695e-06 2.01348e-06 6.1226e-06)
(4.00382e-05 -9.76686e-06 1.38222e-06 -1.64516e-05 5.02072e-07 -1.05611e-05)
(-8.44613e-05 -1.04569e-05 -1.41671e-06 4.03846e-05 -1.90964e-07 1.7893e-05)
(-1.41357e-05 -2.27172e-05 9.46261e-07 7.58728e-06 -1.49388e-06 3.86459e-06)
(3.5939e-05 -8.8446e-06 -2.91789e-06 -1.07688e-05 -5.76983e-06 -7.34461e-06)
(1.61939e-05 -2.21913e-05 6.80279e-07 -8.9712e-06 2.30401e-06 -3.84316e-06)
(-3.41174e-05 -1.09429e-05 4.78532e-06 9.98022e-06 3.69523e-06 7.13726e-06)
(-3.75351e-05 -1.0303e-05 2.26964e-07 1.75779e-05 8.08723e-07 1.06689e-05)
(0.000103535 -1.14797e-05 -5.34947e-06 -5.28356e-05 3.36455e-06 -2.36609e-05)
(3.53201e-05 -1.92092e-05 7.30093e-07 -1.40948e-05 -2.26617e-06 -1.05506e-05)
(0.000101914 -1.19602e-05 -5.16398e-06 -2.12949e-05 2.65614e-06 -2.36637e-05)
(-1.63953e-05 -1.77097e-05 -1.28761e-07 5.29159e-06 -1.24172e-06 3.86871e-06)
(-3.50122e-05 -3.02817e-05 7.71133e-07 6.53757e-07 2.75838e-06 7.15262e-06)
(3.48891e-05 -2.52602e-05 -1.23793e-07 -2.74563e-06 -6.47927e-06 -7.33391e-06)
(1.84258e-05 -1.60858e-05 5.76591e-07 -6.14136e-06 2.28951e-06 -3.84356e-06)
(-8.34113e-05 -1.09513e-05 -2.30103e-06 1.84518e-05 -3.87575e-06 1.7879e-05)
(-3.33063e-05 -1.84634e-05 -1.69267e-07 1.29679e-05 2.51589e-06 1.06624e-05)
(-4.43417e-05 -1.39604e-05 -2.48163e-06 1.67158e-05 -4.29932e-07 1.11724e-05)
(-5.63422e-05 -3.41791e-06 -4.88338e-06 1.67158e-05 -1.15568e-06 1.15599e-05)
(-4.19846e-05 -1.17837e-05 -1.33825e-06 1.1015e-05 2.98739e-06 1.10038e-05)
(-4.32973e-05 -2.07713e-05 -3.33852e-06 1.41663e-05 -6.63526e-06 1.12854e-05)
(3.38201e-05 -2.12931e-05 -1.22957e-06 -1.1297e-05 -4.42745e-06 -2.7891e-07)
(1.53899e-05 -2.53691e-05 4.57561e-07 -6.1734e-06 2.17737e-06 -4.51756e-07)
(-3.30289e-05 -2.34411e-05 7.91326e-07 1.01616e-05 3.08165e-06 6.53259e-07)
(-1.33359e-05 -2.70179e-05 -1.02746e-06 4.75013e-06 -2.03632e-06 7.6623e-08)
(1.82216e-06 -2.88712e-05 6.39263e-07 1.36276e-06 -1.23977e-06 -1.69936e-08)
(1.82216e-06 -2.79595e-05 5.765e-07 -2.4595e-06 1.94344e-06 -4.37148e-07)
(1.11058e-06 -1.26366e-05 6.01465e-07 -2.32143e-06 2.56404e-06 6.41152e-07)
(1.11058e-06 -1.21926e-05 6.32024e-07 -2.5299e-07 -3.2151e-06 -1.6433e-07)
(-1.74287e-05 -1.87495e-05 2.16818e-06 4.24546e-06 1.05143e-06 6.98858e-06)
(-2.76417e-05 -2.00771e-05 -1.56397e-06 1.18033e-05 -2.68073e-06 6.98858e-06)
(-4.38505e-05 -2.53472e-05 4.69918e-06 -3.76942e-07 -3.50624e-06 1.50211e-05)
(2.33024e-05 -1.68642e-05 1.02632e-06 -6.76721e-06 -1.56338e-06 -7.67654e-06)
(3.19561e-05 -1.75143e-05 -6.63989e-07 -1.41207e-05 1.26933e-07 -7.67654e-06)
(7.75286e-05 -2.16241e-05 -4.66994e-06 -1.62377e-05 -5.66103e-06 -1.55191e-05)
(-8.05665e-05 -1.9289e-05 -1.8739e-06 2.42227e-05 3.06684e-06 1.50211e-05)
(4.49555e-05 -2.97438e-05 2.13376e-06 9.60807e-08 1.14266e-06 -1.55191e-05)
(-2.8897e-05 -5.18962e-06 -1.75014e-06 8.38885e-06 -5.04464e-06 1.50211e-05)
(-7.79622e-05 -1.22298e-05 -3.32078e-06 3.76403e-05 -2.99882e-06 1.50211e-05)
(3.53072e-05 -1.07656e-05 -9.19727e-07 -1.64316e-05 -9.45177e-07 -7.67654e-06)
(-1.35237e-05 -2.31047e-05 -9.17386e-07 6.10101e-06 1.78745e-06 6.98858e-06)
(3.67951e-05 -1.02766e-05 -6.56126e-06 -8.72686e-06 3.21674e-06 -1.55191e-05)
(2.29105e-05 -1.80892e-05 7.87574e-07 -6.61931e-06 5.93364e-07 -5.70276e-06)
(4.30062e-05 -2.30721e-05 1.22875e-07 -6.48647e-06 -2.68385e-06 -1.05372e-05)
(-3.10678e-05 -1.81835e-05 -3.2917e-06 1.12891e-05 -1.77887e-06 6.1226e-06)
(7.47842e-05 -1.51372e-05 -6.33452e-06 -2.23947e-05 -9.14125e-06 -1.05372e-05)
(-7.22836e-05 -1.92955e-05 -6.2679e-06 2.40126e-05 1.75713e-06 9.1438e-06)
(3.14042e-05 -1.86545e-05 -7.65535e-07 -1.39823e-05 2.14647e-06 -5.70276e-06)
(-3.6103e-05 -2.50432e-05 7.13728e-07 -6.72725e-07 -5.2245e-06 9.1438e-06)
(-2.06333e-05 -1.685e-05 5.00649e-07 3.5216e-06 2.01348e-06 6.1226e-06)
(4.64849e-05 -1.94104e-05 -2.87271e-06 -1.7375e-05 3.43826e-06 -1.30067e-05)
(4.52822e-05 -1.246e-05 4.45682e-07 -1.21535e-05 -1.61953e-06 -1.25441e-05)
(6.00671e-05 -9.8379e-07 -2.97723e-06 -1.8071e-05 1.86665e-06 -1.30854e-05)
(4.64229e-05 -1.29354e-05 -4.62632e-07 -1.8071e-05 1.0439e-06 -1.26745e-05)
(4.30857e-05 -2.22951e-05 -1.87724e-06 -1.53164e-05 1.02552e-06 -1.05372e-05)
(2.73057e-05 -2.61936e-05 -1.17102e-06 -1.34766e-05 1.16546e-06 -5.70276e-06)
(-7.90136e-06 -3.09303e-05 5.72516e-06 -2.70616e-07 -1.19587e-06 9.1438e-06)
(-5.48685e-06 -2.36822e-05 4.08546e-06 1.23244e-06 5.31775e-07 6.1226e-06)
(1.39983e-05 -3.41265e-05 1.32537e-06 -7.31602e-06 3.19676e-06 -4.70658e-06)
(1.56141e-05 -2.61331e-05 2.45435e-06 -9.3014e-06 -5.62431e-06 -6.2532e-06)
(-1.76006e-07 -2.75874e-05 -1.33534e-06 -8.17146e-07 -3.31638e-06 -2.93516e-06)
(-1.54365e-06 -3.27481e-05 -2.03387e-06 9.66346e-07 2.13256e-06 -4.7589e-06)
(1.06097e-05 -2.38825e-05 3.21279e-06 -2.71915e-06 -1.05075e-07 -5.70276e-06)
(1.11561e-05 -2.94678e-05 5.47005e-06 2.29712e-07 1.12071e-07 -1.05372e-05)
(-2.51757e-05 -2.67263e-05 -1.5903e-06 9.88099e-06 -1.68955e-06 6.1226e-06)
(-4.05045e-05 -2.1017e-05 -1.36421e-06 1.56787e-05 -6.67372e-07 9.1438e-06)
(-4.95641e-06 -3.20019e-05 1.15369e-06 -2.07497e-07 2.72474e-06 6.53259e-07)
(-5.09645e-06 -2.36605e-05 2.31427e-07 1.07308e-06 -2.34198e-06 1.36132e-07)
(-2.90872e-05 -2.93347e-05 -1.78218e-06 1.29106e-05 3.01186e-06 1.10038e-05)
(-4.28362e-05 -1.95055e-05 -1.89375e-06 1.76382e-05 -2.78524e-06 1.10843e-05)
(6.31758e-06 -3.29695e-05 -7.83864e-07 -1.93278e-06 -4.84733e-06 2.76318e-06)
(4.07427e-06 -2.6691e-05 -9.06527e-07 2.97841e-08 2.50354e-06 2.4851e-06)
(4.70521e-05 -2.01699e-05 -2.85319e-06 -1.73578e-05 3.43803e-06 -1.30067e-05)
(3.21547e-05 -3.00195e-05 -5.47473e-07 -1.24578e-05 -3.06685e-06 -1.26186e-05)
(-1.19219e-05 -3.48116e-05 1.46987e-06 5.0206e-06 -5.02745e-06 5.25825e-06)
(-1.40051e-05 -2.49712e-05 1.72981e-06 6.81078e-06 3.94926e-06 5.93765e-06)
(6.55753e-06 -2.26099e-05 5.71572e-07 -2.86166e-06 2.06338e-06 -4.51756e-07)
(5.40817e-06 -3.11897e-05 -3.86637e-07 1.21703e-07 -4.213e-06 -3.03497e-07)
(4.84912e-05 -2.95551e-05 3.14168e-06 -1.18278e-05 -3.97032e-06 -6.36344e-06)
(2.95997e-05 -2.27236e-05 6.43416e-07 -1.01135e-05 3.00026e-06 -4.70658e-06)
(-1.74194e-05 -3.61877e-05 -2.19524e-06 -2.99069e-06 -5.14103e-06 3.55695e-06)
(-1.37042e-05 -1.95729e-05 -1.58389e-06 -7.6067e-07 3.23672e-06 2.4851e-06)
(1.47287e-05 -2.14178e-05 -4.60168e-07 -1.38544e-06 -1.97858e-06 -3.17304e-06)
(1.73848e-05 -3.42468e-05 -2.17823e-06 3.11619e-06 4.30124e-06 -4.7589e-06)
(-2.6201e-05 -2.53097e-05 -4.53225e-07 9.02781e-06 -3.23601e-06 4.86218e-06)
(-4.50686e-05 -2.71822e-05 2.6353e-06 1.25624e-05 3.48772e-06 5.93765e-06)
(-0.000120815 -2.57666e-05 1.4102e-06 4.42313e-05 8.78103e-07 1.50211e-05)
(4.45428e-05 -5.87863e-06 5.29796e-07 -1.46243e-05 2.42669e-07 -7.67654e-06)
(-2.39604e-05 -1.62258e-05 4.85993e-07 4.85397e-06 7.49118e-08 6.98858e-06)
(-5.94132e-05 -2.71205e-05 5.20492e-06 3.06869e-07 3.4426e-06 1.50211e-05)
(6.0214e-05 -2.80944e-05 -5.17974e-06 -1.14335e-07 1.53088e-06 -1.55191e-05)
(3.25747e-05 -2.58689e-05 3.89914e-06 -8.57853e-06 -6.65405e-07 -1.20084e-05)
(1.88944e-05 -2.34204e-05 9.27042e-08 -7.786e-06 3.22369e-06 -4.70658e-06)
(1.56663e-05 -2.66827e-05 2.36444e-06 -5.47981e-06 -5.06808e-06 -6.17591e-06)
(6.44874e-06 -2.11001e-05 -1.42154e-06 -4.42516e-06 4.04933e-06 -4.7589e-06)
(4.39186e-06 -3.25542e-05 -8.04603e-07 -3.17002e-06 -4.1139e-06 -2.87976e-06)
(1.57082e-07 -2.86928e-05 -2.15187e-07 -8.25108e-07 -5.5482e-07 -1.0093e-07)
(3.03022e-07 -2.61884e-05 -9.17327e-07 1.13186e-06 -2.34488e-06 -5.1079e-08)
(-2.86818e-06 -3.0806e-05 -5.53372e-07 3.26992e-06 3.03228e-06 2.4851e-06)
(-4.87716e-06 -2.20408e-05 -2.0873e-06 5.96858e-06 -6.72055e-06 3.14427e-06)
(-9.2568e-05 -5.03368e-06 4.18709e-06 3.11463e-05 -1.39322e-06 2.30387e-05)
(-8.48756e-06 -2.17423e-05 -1.76944e-07 1.32992e-06 -2.16168e-07 1.71656e-06)
(3.02186e-05 -2.54924e-05 1.06687e-21 6.0001e-22 -1.80003e-21 0)
(5.76565e-05 -3.81445e-06 1.59906e-06 -1.2233e-05 8.93721e-07 -1.51483e-05)
(1.03633e-05 -2.43411e-05 -1.01756e-06 -3.42283e-06 2.98928e-08 -2.32322e-06)
(-5.7489e-05 -5.48051e-06 -1.58165e-06 1.33964e-05 1.00537e-06 1.39348e-05)
(-3.08685e-05 -2.00028e-05 8.09727e-06 0 0 0)
(0.000101869 -4.34117e-06 5.70387e-06 -3.84402e-05 5.9716e-06 -3.08675e-05)
(-1.46741e-05 -2.6131e-05 1.57602e-06 6.48003e-06 3.92635e-06 5.93765e-06)
(-1.80613e-05 -2.48803e-05 -4.20224e-07 6.71187e-06 -3.55606e-06 4.81803e-06)
(-2.92568e-05 -2.52181e-05 3.01556e-06 8.98411e-06 4.2307e-07 1.0344e-05)
(1.93907e-05 -2.29279e-05 -2.57007e-06 -6.61227e-06 3.16776e-06 -5.70276e-06)
(2.44347e-05 -3.3154e-05 -7.7389e-06 -8.19596e-06 -7.36359e-06 -1.05372e-05)
(-2.72601e-05 -3.08758e-05 -5.47338e-06 9.05914e-06 6.60991e-06 9.1438e-06)
(-2.22003e-05 -2.46033e-05 -3.20573e-06 8.06872e-06 -4.55044e-06 6.1226e-06)
(1.21804e-05 -2.2296e-05 1.38847e-06 -3.42033e-06 -3.6215e-07 -1.70424e-06)
(-3.41845e-05 -2.61469e-05 3.99878e-22 7.9523e-21 6.11715e-22 0)
(-5.74849e-05 -3.87963e-06 -2.23282e-06 1.1993e-05 1.29702e-06 1.68261e-05)
(0.000101769 -6.73466e-06 -9.98052e-06 -3.93446e-05 -4.73659e-06 -1.98594e-05)
(-9.26687e-05 -9.13521e-06 -1.15131e-05 3.13315e-05 2.07807e-06 2.20331e-05)
(-1.20424e-05 -2.24476e-05 1.37212e-06 1.33579e-06 7.00795e-07 2.77545e-06)
(3.77359e-05 -2.18529e-05 -8.28563e-06 3.06753e-21 2.1153e-21 1.16307e-21)
(5.76716e-05 -3.74652e-06 -7.45865e-07 -1.39882e-05 3.69681e-07 -1.36673e-05)
(3.46284e-06 -2.87259e-05 1.52616e-06 -9.70032e-07 -2.17704e-06 -4.70776e-07)
(1.31303e-05 -1.33953e-05 8.58267e-06 2.34133e-06 7.80444e-07 0)
(-3.81592e-05 -1.22378e-05 -7.49796e-06 1.38516e-05 8.84248e-07 1.32322e-05)
(-6.27933e-05 -2.62856e-06 -3.5343e-06 2.12241e-05 5.05268e-06 2.01007e-05)
(6.5823e-05 -4.83555e-06 -1.74898e-06 -2.19068e-05 -5.36049e-06 -2.47839e-05)
(3.8848e-05 -1.0833e-05 -6.25138e-06 -1.32646e-05 -6.73619e-07 -1.72562e-05)
(-1.61506e-06 -2.67495e-05 2.58784e-06 8.16445e-07 9.90078e-07 3.36449e-07)
(-1.20533e-05 -7.48941e-06 1.29659e-05 -5.00746e-06 -8.57222e-06 -9.20409e-06)
(-2.30478e-06 -2.97868e-05 -2.13254e-06 1.2454e-06 -1.46041e-06 -6.59889e-08)
(-1.4395e-05 -1.15214e-05 -9.98391e-06 -1.06048e-06 3.53492e-07 0)
(-4.04066e-05 -9.46327e-06 5.91587e-06 1.1916e-05 -2.86801e-07 2.01007e-05)
(-5.38951e-05 -6.88265e-06 9.24578e-07 1.73819e-05 -5.28125e-06 2.1384e-05)
(2.54607e-05 -1.36832e-05 4.47744e-07 -1.28288e-05 2.51059e-07 -7.67654e-06)
(-2.33955e-05 -1.31707e-05 3.54111e-07 1.05778e-05 -1.21497e-06 6.98858e-06)
(6.40578e-05 -1.09979e-05 -5.81947e-06 -3.33801e-05 -4.72605e-06 -1.55191e-05)
(-6.3537e-05 -8.99361e-06 5.50999e-06 4.02026e-05 4.58923e-07 1.50211e-05)
(5.71313e-05 -5.59661e-06 2.94624e-06 -2.13625e-05 5.6255e-06 -1.72562e-05)
(4.35361e-05 -9.48136e-06 5.1528e-06 -1.53957e-05 1.8639e-06 -1.52498e-05)
(4.47876e-06 -2.79312e-05 -1.48583e-06 -2.83608e-06 1.36311e-06 3.36449e-07)
(1.72151e-05 -6.82522e-06 -1.38188e-05 1.51866e-06 -7.80101e-06 9.72639e-06)
(-0.000103682 -4.91676e-05 9.99181e-06 0 5.24035e-21 -2.12988e-21)
(0.000101439 -4.63784e-05 -1.38219e-05 -4.94307e-21 -7.36581e-22 0)
(-3.61547e-05 -5.58707e-06 -1.04872e-06 8.16976e-06 -2.22966e-06 9.12141e-06)
(3.59838e-05 -6.63809e-06 -1.53009e-07 -9.26167e-06 -1.02215e-06 -8.98313e-06)
(5.12847e-05 -1.59357e-05 8.59909e-06 -6.85151e-06 -2.36537e-06 0)
(-8.02284e-05 -1.56107e-05 -6.11297e-06 4.91205e-05 8.18938e-06 2.58473e-05)
(3.75217e-05 -5.49988e-06 -4.33303e-06 -1.12022e-05 -2.21336e-07 -1.31332e-05)
(-1.61296e-05 -2.21665e-05 2.46002e-06 5.80168e-06 6.99266e-07 3.03589e-06)
(9.37164e-06 -1.78409e-05 -1.99026e-06 -5.80582e-06 1.01971e-07 -3.87604e-06)
(0.000127844 -5.49597e-06 6.89189e-06 -4.97695e-05 -5.69446e-06 -4.29641e-05)
(-4.56253e-05 -8.04758e-06 -1.93685e-06 1.39574e-05 1.7782e-06 1.18037e-05)
(-5.18288e-05 -1.89291e-05 -7.10078e-06 7.14852e-06 -2.46791e-06 0)
(2.05735e-05 -1.96556e-05 -1.3719e-06 -7.99893e-06 4.96529e-07 -3.65504e-06)
(-3.9583e-05 -5.34222e-06 3.56717e-06 1.14896e-05 -1.94199e-07 1.36957e-05)
(0.000103508 -1.05869e-05 -5.22114e-06 -5.97276e-05 5.68882e-06 -2.2348e-05)
(2.23074e-05 -1.5035e-05 1.36538e-06 -5.7648e-06 -2.60685e-07 -5.76581e-06)
(-4.58765e-05 -3.81904e-06 5.55244e-07 1.11337e-05 5.94794e-07 1.25369e-05)
(-0.000119869 -1.67041e-05 1.10086e-05 5.02283e-05 6.92519e-06 2.11021e-05)
(4.4709e-05 -4.21601e-06 -1.02359e-06 -1.09752e-05 3.39453e-07 -1.19896e-05)
(-1.84587e-05 -1.61598e-05 -1.37705e-06 4.83146e-06 -2.06086e-07 4.74867e-06)
(-5.58808e-05 -2.99173e-05 0 8.87943e-22 0 0)
(0.000126001 -2.00306e-05 -1.10781e-05 -5.68796e-05 1.03035e-05 -2.49835e-05)
(5.61918e-05 -2.90647e-05 -2.08471e-21 -3.45055e-21 2.1566e-21 0)
(1.99567e-05 -2.26129e-05 -2.54792e-06 -9.31938e-06 -2.47013e-06 -5.25397e-06)
(7.74237e-05 -1.89851e-05 9.55709e-06 -3.65205e-05 -1.37301e-05 -3.85646e-05)
(-3.41041e-05 -6.18162e-06 -1.9037e-06 8.87259e-06 -9.74262e-07 1.03919e-05)
(3.61396e-05 -6.42227e-06 1.24383e-06 -8.98581e-06 1.4554e-06 -9.17159e-06)
(-3.59289e-05 -5.56349e-06 9.61204e-07 7.89674e-06 2.50422e-07 8.29662e-06)
(0.000101439 -4.63784e-05 -1.38219e-05 -7.41461e-21 -1.10487e-21 0)
(-0.000103682 -4.91676e-05 9.99181e-06 -7.86052e-21 7.98706e-22 0)
(-7.97816e-05 -2.7592e-05 -6.3255e-06 1.92503e-05 -1.41145e-05 9.46592e-06)
(7.88152e-05 -2.64098e-05 3.8054e-06 -1.73137e-05 -1.51122e-05 -1.30945e-05)
(-2.83429e-05 -9.4011e-06 2.46588e-06 7.98593e-06 -1.95681e-06 8.76942e-06)
(3.13909e-05 -8.99564e-06 -2.38971e-06 -9.3838e-06 -1.14108e-06 -9.09888e-06)
(1.76204e-06 -2.67181e-05 3.57596e-07 -1.30567e-06 -2.33976e-06 -1.04639e-07)
(1.80842e-06 -2.67841e-05 1.10552e-22 2.30443e-21 -3.27472e-21 0)
(5.61918e-05 -2.90647e-05 -2.50165e-21 3.45055e-21 2.58791e-21 0)
(-5.58808e-05 -2.99173e-05 -2.07318e-21 1.77589e-21 -2.21986e-21 0)
(-2.18571e-05 -7.56776e-06 1.10231e-06 5.16685e-06 1.08718e-06 5.53202e-06)
(3.75508e-05 -1.02333e-05 -7.21477e-07 -1.30683e-05 1.85384e-06 -1.14666e-05)
(-0.000119719 -2.20553e-05 7.59621e-06 4.8114e-05 4.5537e-06 1.89318e-05)
(-3.7128e-05 -1.0979e-05 1.31201e-08 1.36153e-05 2.41837e-06 1.20068e-05)
(0.000128142 -2.13176e-05 -1.26487e-05 -5.64556e-05 1.03397e-05 -2.6189e-05)
(2.53678e-05 -7.35427e-06 -7.86315e-07 -6.6435e-06 1.40657e-06 -6.73119e-06)
(-6.57752e-05 -5.14452e-06 -2.54034e-06 2.40133e-05 7.16704e-06 2.01007e-05)
(-5.98124e-05 -8.73543e-06 -3.72095e-06 2.11184e-05 -6.13738e-06 1.78198e-05)
(6.17861e-05 -5.38248e-06 1.39465e-06 -2.24931e-05 6.32213e-06 -1.72562e-05)
(7.06302e-05 -7.64755e-06 1.56274e-06 -2.53093e-05 -7.18815e-06 -2.25048e-05)
(6.32202e-07 -2.47187e-05 8.84272e-07 -1.56937e-06 1.78535e-06 3.36449e-07)
(4.12743e-07 -2.27654e-05 4.80489e-07 -1.64941e-21 2.59461e-21 -1.08789e-22)
(3.03634e-05 -1.01417e-05 3.61716e-06 -1.06484e-05 1.65095e-06 -7.72174e-06)
(-2.79957e-05 -9.90312e-06 -2.6293e-06 8.64283e-06 3.60058e-08 7.00611e-06)
(8.26464e-05 -2.72996e-05 -2.3826e-05 -1.93654e-05 1.03075e-05 -1.16916e-07)
(-8.31462e-05 -2.65211e-05 2.26106e-05 2.47569e-05 1.48533e-05 3.699e-06)
(2.50624e-05 -9.408e-06 2.09707e-06 -6.81465e-06 -1.66505e-06 -4.99768e-06)
(0.000115737 -1.98959e-05 -1.76485e-05 -3.76486e-05 -1.0713e-05 -2.41333e-05)
(3.74656e-05 -1.1936e-05 1.32922e-06 -1.41619e-05 -1.68116e-06 -1.0839e-05)
(-0.000124987 -1.43279e-05 1.38373e-05 4.22113e-05 -7.76489e-06 3.20281e-05)
(-3.32205e-05 -1.13914e-05 -1.53353e-06 1.0891e-05 -2.82449e-06 1.05432e-05)
(-2.27055e-05 -8.65838e-06 -1.38186e-07 5.84207e-06 -1.75635e-06 6.35048e-06)
(6.38542e-05 -2.7013e-05 -1.39324e-05 -1.60349e-21 -2.017e-21 -1.65405e-21)
(-6.261e-05 -2.44107e-05 1.34853e-05 0 7.24509e-22 -8.00487e-22)
(3.02186e-05 -2.54924e-05 -6.66796e-22 -4.50008e-22 1.12502e-21 0)
(5.37401e-05 -8.83161e-06 1.26609e-06 -1.71675e-05 2.2137e-06 -1.31332e-05)
(-0.000104985 -9.5191e-07 2.43386e-06 4.20335e-05 5.2965e-06 2.58473e-05)
(-1.13299e-05 -2.03128e-05 5.00786e-07 3.47509e-06 1.50248e-06 3.03589e-06)
(1.46086e-05 -2.14954e-05 6.37064e-07 -4.48526e-06 -9.15429e-07 -3.09947e-06)
(-5.42856e-05 -9.6241e-06 -5.00245e-07 1.74854e-05 -1.00896e-06 1.40017e-05)
(0.000112891 -6.38656e-06 6.43186e-06 -4.05801e-05 2.10186e-06 -3.63555e-05)
(-3.08685e-05 -2.00028e-05 8.09727e-06 -1.177e-22 8.47726e-22 -6.67044e-22)
(-3.41845e-05 -2.61469e-05 -7.4977e-22 -1.37636e-21 -1.14697e-21 0)
(-5.32126e-05 -8.4567e-06 -1.13823e-06 1.61762e-05 1.69188e-06 1.36957e-05)
(1.71131e-05 -1.90153e-05 2.07233e-08 -4.78932e-06 1.6046e-06 -3.65504e-06)
(0.000112783 -1.53525e-06 -8.42324e-06 -5.10233e-05 2.18586e-06 -2.2348e-05)
(-0.000104043 -6.5511e-06 -1.38666e-05 3.97114e-05 -5.96724e-06 2.97558e-05)
(5.49892e-05 -8.14684e-06 -1.28019e-06 -1.86319e-05 -1.67232e-06 -1.32462e-05)
(-1.45454e-05 -2.14159e-05 8.31513e-07 3.9466e-06 -1.16236e-06 4.09191e-06)
(3.77359e-05 -2.18529e-05 -8.28563e-06 -1.53376e-21 2.64895e-21 2.22921e-21)
(-6.261e-05 -2.44107e-05 1.34853e-05 2.89804e-21 6.48532e-22 -1.60097e-21)
(-5.66132e-05 -8.35798e-06 2.30646e-05 8.45435e-06 -2.2238e-06 -7.19543e-06)
(-4.55445e-05 -7.08313e-06 -2.69041e-06 1.6289e-05 1.96688e-06 9.64508e-06)
(-3.39541e-05 -6.86648e-06 -1.85962e-06 1.19773e-05 -1.44131e-06 6.98858e-06)
(2.03744e-05 -1.66602e-05 2.12607e-06 -5.93189e-06 1.39515e-06 -5.20403e-06)
(2.68979e-05 -2.09123e-05 6.42618e-07 -8.90304e-06 -1.65491e-06 -7.67654e-06)
(0.000126289 -2.30036e-05 -8.21017e-06 -4.71383e-05 5.36128e-06 -2.54621e-05)
(8.224e-05 -2.89935e-05 -4.91502e-06 -3.72501e-05 -4.63357e-06 -1.55191e-05)
(5.89763e-05 -1.36693e-05 -2.14977e-05 -9.78352e-06 -1.94707e-06 7.45446e-06)
(6.38542e-05 -2.7013e-05 -1.39324e-05 -1.60349e-21 1.99172e-21 2.48107e-21)
(4.15109e-05 -6.19743e-06 3.68867e-06 -1.20578e-05 7.58391e-07 -1.36314e-05)
(4.44764e-05 -5.39341e-06 1.29536e-06 -1.18561e-05 1.33843e-07 -1.17362e-05)
(-8.64859e-05 -1.46043e-05 -6.23262e-07 4.06081e-05 -1.24486e-05 3.96863e-05)
(-0.000121812 -1.71705e-05 -7.75823e-06 4.0968e-05 -1.07953e-05 4.68765e-05)
(-1.76043e-05 -2.17508e-05 -1.16665e-06 7.32256e-06 -8.6922e-07 2.86345e-06)
(-1.97175e-05 -1.61439e-05 2.23042e-06 4.84898e-06 -1.84317e-08 5.24741e-06)
(2.09963e-05 -2.72604e-06 6.9056e-08 -8.08821e-06 -1.27451e-06 -6.92285e-06)
(1.87678e-05 -3.47105e-06 -7.42594e-07 -6.80275e-06 -4.06058e-08 -5.75262e-06)
(1.39641e-05 -1.02125e-05 4.92936e-07 -7.37626e-06 -2.8864e-07 -4.39013e-06)
(1.59301e-05 2.00001e-07 3.79037e-07 -5.08067e-06 -9.84241e-07 -6.19945e-06)
(2.08082e-05 -2.18161e-05 4.96379e-07 -8.12678e-06 -2.09643e-08 -5.12072e-06)
(2.85508e-05 -1.3736e-05 1.44993e-06 -1.10502e-05 -9.07518e-07 -7.61336e-06)
(2.09993e-05 -3.02533e-06 -6.67645e-08 -7.57258e-06 -8.93319e-07 -6.68382e-06)
(2.48072e-05 1.18908e-06 4.04048e-07 -6.80977e-06 -2.15231e-06 -1.14362e-05)
(1.59323e-05 -6.05011e-06 7.91776e-08 -5.19393e-06 -3.14558e-07 -4.41205e-06)
(2.12161e-05 9.307e-06 4.92395e-08 -9.74165e-06 -2.78571e-06 -7.47065e-06)
(1.37894e-05 -9.95116e-06 -1.35411e-07 -7.33222e-06 -4.03226e-07 -4.09353e-06)
(2.05067e-05 -8.87662e-06 -1.23263e-06 -8.99951e-06 -7.21211e-07 -6.55552e-06)
(9.63575e-06 2.12756e-06 -2.51208e-06 -1.69121e-06 -6.28401e-07 -7.89823e-06)
(2.18244e-05 -1.37093e-05 6.7838e-07 -9.87649e-06 -8.28912e-07 -5.77745e-06)
(1.91368e-05 -3.12895e-06 -6.38524e-07 -6.95741e-06 -1.20634e-07 -5.78931e-06)
(1.03441e-05 2.46719e-06 -3.14261e-06 -2.07554e-06 -1.98037e-06 -9.35067e-06)
(2.99463e-05 6.14818e-06 -3.14213e-06 -1.03617e-05 -4.03256e-06 -1.04072e-05)
(2.58619e-05 1.53328e-06 -3.55225e-07 -9.01011e-06 -4.30871e-07 -1.11699e-05)
(2.00107e-05 -1.86449e-05 -1.93856e-06 -8.0227e-06 -3.2297e-07 -4.71442e-06)
(1.59613e-05 3.99939e-08 7.32329e-08 -4.81473e-06 -4.5148e-07 -5.13549e-06)
(1.74422e-05 -3.59853e-06 -2.35317e-07 -5.82498e-06 2.25926e-07 -5.89885e-06)
(8.77563e-06 -1.28797e-05 1.53748e-06 -3.65737e-06 3.07407e-07 -1.04468e-06)
(3.49828e-05 -9.02197e-06 2.89483e-07 -1.65968e-05 -2.26547e-07 -8.42123e-06)
(3.18074e-05 3.36008e-06 -1.57004e-06 -7.7152e-06 -1.67139e-06 -1.10218e-05)
(2.6773e-05 -1.9005e-06 -7.86821e-06 -1.08668e-05 -8.91307e-07 -9.7625e-06)
(1.6736e-05 -3.30272e-06 -7.33682e-07 -6.65943e-06 -5.0791e-07 -4.36844e-06)
(2.08688e-05 4.95886e-06 -3.0653e-06 -6.74363e-06 -2.38272e-06 -9.39769e-06)
(1.46539e-05 -2.4177e-07 6.2286e-07 -4.8483e-06 5.00632e-09 -3.85208e-06)
(2.48814e-05 2.26431e-06 -1.15817e-06 -7.8492e-06 -1.75767e-06 -1.04636e-05)
(3.55918e-05 -5.72278e-06 -3.2056e-06 -1.1024e-05 -7.9233e-07 -1.00302e-05)
(1.53218e-05 -1.21475e-05 -1.27629e-06 -7.83258e-06 -5.11645e-07 -4.23187e-06)
(1.4854e-05 -1.1269e-05 4.36917e-07 -6.52296e-06 -6.60199e-07 -4.03382e-06)
(1.39347e-05 1.72384e-07 1.38472e-07 -4.14843e-06 -3.28881e-07 -5.89817e-06)
(7.63161e-06 -1.37389e-05 4.13177e-07 -3.96726e-06 -4.20221e-07 -2.10895e-06)
(6.15182e-06 -1.26735e-05 -3.63631e-07 -4.29018e-06 -4.31115e-07 -1.78472e-06)
(2.1139e-05 -2.9691e-06 7.01134e-07 -7.60959e-06 -1.50688e-07 -5.61188e-06)
(2.51732e-05 -7.46574e-06 4.95197e-08 -1.01959e-05 -1.25124e-06 -7.30325e-06)
(2.36718e-05 -2.64429e-06 -2.99109e-07 -9.40447e-06 -5.70148e-07 -7.26051e-06)
(2.23847e-05 -1.81278e-05 -1.42983e-06 -8.38817e-06 7.0388e-07 -5.83471e-06)
(1.83405e-05 -1.44686e-05 -5.59179e-07 -6.95986e-06 -1.98463e-07 -3.80991e-06)
(2.25521e-05 -1.31727e-05 2.99175e-07 -1.09668e-05 -3.01929e-07 -6.01767e-06)
(1.53384e-05 -1.16018e-05 -1.10132e-06 -6.53457e-06 5.02777e-07 -3.73622e-06)
(2.39664e-05 -2.26557e-06 -2.1027e-06 -8.25323e-06 6.55535e-08 -8.24829e-06)
(2.00028e-05 -9.09781e-06 -3.66239e-06 -8.90907e-06 -2.11116e-07 -5.01565e-06)
(2.54133e-05 -6.36958e-07 -1.50593e-06 -1.03986e-05 -8.92487e-07 -1.01368e-05)
(3.78741e-05 -1.05392e-05 -3.34413e-07 -1.44104e-05 -1.43517e-06 -9.54807e-06)
(1.74345e-05 4.96242e-06 -6.33813e-07 -4.3735e-06 -6.08334e-07 -1.00051e-05)
(1.2468e-05 4.83709e-07 2.67757e-08 -2.90373e-06 6.92647e-07 -5.1471e-06)
(2.53213e-05 -1.01307e-05 -1.54564e-07 -1.02111e-05 1.40895e-07 -7.1429e-06)
(1.64711e-05 5.64792e-06 -3.32205e-06 -2.0487e-06 -8.24013e-07 -1.03548e-05)
(1.66855e-05 -9.93812e-06 6.09755e-07 -5.81792e-06 -3.66681e-07 -2.66686e-06)
(1.53234e-05 1.87834e-06 -3.86304e-07 -2.85694e-06 -7.39945e-07 -9.99377e-06)
(2.91841e-05 -4.81021e-06 6.69231e-07 -1.00919e-05 1.79305e-07 -1.12036e-05)
(2.90744e-06 -2.69385e-05 -4.48574e-07 -2.37729e-06 -2.20845e-07 3.88739e-08)
(2.34593e-06 -2.67694e-05 -1.44699e-07 -2.41537e-06 -9.90689e-10 2.40671e-07)
(1.71412e-05 -1.05067e-05 -2.72063e-06 -5.88385e-06 -5.7091e-07 -2.83998e-06)
(7.67225e-06 -2.56109e-05 -9.89772e-08 -4.44563e-06 1.3244e-07 -1.11442e-06)
(1.2916e-05 1.80563e-06 -1.73753e-06 -3.29945e-06 -3.54129e-07 -6.8002e-06)
(6.84214e-06 -2.71968e-05 3.73943e-07 -4.40294e-06 -5.16779e-07 -1.1825e-06)
(1.59308e-05 -2.01433e-05 9.51788e-07 -7.73036e-06 3.85342e-07 -2.89275e-06)
(1.51566e-05 -3.364e-06 -2.15438e-07 -5.73829e-06 -1.7878e-07 -4.43509e-06)
(1.97881e-05 3.9496e-06 -6.39686e-07 -6.67351e-06 -1.66594e-06 -1.24741e-05)
(4.23716e-05 -1.10639e-06 -6.09366e-06 -1.144e-05 -2.35754e-06 -1.35097e-05)
(2.35225e-05 -1.80219e-05 6.49559e-07 -8.82763e-06 -3.50133e-07 -5.49859e-06)
(1.76781e-05 -1.63645e-05 -1.42011e-06 -7.83691e-06 2.51136e-07 -5.6683e-06)
(1.03887e-05 -1.96158e-05 1.15498e-06 -5.87602e-06 -2.74614e-07 -2.68473e-06)
(2.07383e-05 -2.32315e-06 -4.02055e-07 -8.54932e-06 -6.86308e-07 -7.65367e-06)
(6.71465e-06 -1.30407e-05 -3.1441e-06 -3.21846e-06 -2.2844e-06 -7.0453e-07)
(2.82279e-05 2.79137e-06 -2.84824e-06 -7.90957e-06 -2.05053e-06 -9.47825e-06)
(2.3104e-05 -8.86522e-06 -4.40659e-08 -8.81894e-06 3.01873e-08 -6.70895e-06)
(2.44118e-05 5.29015e-06 -2.15552e-06 -5.62047e-06 -6.87088e-07 -1.40459e-05)
(7.75823e-06 -2.54307e-05 -2.20312e-07 -4.1016e-06 -1.16641e-07 -9.43983e-07)
(2.40873e-05 -1.20198e-05 -1.08735e-06 -1.23328e-05 -8.86877e-07 -7.44787e-06)
(2.96549e-05 5.9206e-06 -3.85149e-06 -1.02641e-05 -5.24631e-06 -1.05536e-05)
(1.27858e-05 1.06173e-06 -3.76562e-07 -2.69959e-06 -3.33657e-08 -7.12605e-06)
(1.61546e-05 6.32281e-08 -3.70979e-07 -4.18228e-06 -6.67956e-08 -7.12661e-06)
(1.43384e-05 -3.95083e-06 3.47206e-07 -6.08646e-06 3.72797e-07 -4.83489e-06)
(7.16901e-06 -1.07635e-05 -7.02547e-08 -2.1276e-06 5.19167e-07 -1.81212e-06)
(1.53959e-05 4.84397e-07 9.72944e-07 -5.05008e-06 1.64977e-07 -4.74888e-06)
(1.43138e-05 -2.4035e-05 -1.78577e-06 -6.14829e-06 7.92351e-08 -2.14777e-06)
(2.31131e-05 5.33882e-06 -1.87384e-06 -5.70668e-06 -1.35233e-06 -1.43051e-05)
(1.75576e-05 -2.18511e-05 1.46436e-06 -8.07101e-06 -4.85126e-08 -5.38328e-06)
(2.19564e-05 -9.53602e-06 -1.65544e-07 -9.74329e-06 -5.09565e-07 -6.40003e-06)
(1.99475e-05 8.12147e-06 -2.08231e-06 -4.19289e-06 -5.8604e-07 -1.27525e-05)
(2.02641e-05 -1.70804e-05 1.05605e-06 -1.07799e-05 -3.95624e-07 -5.27983e-06)
(1.54546e-05 -2.09911e-05 3.4662e-07 -8.0625e-06 -5.10213e-07 -3.6338e-06)
(1.83444e-05 4.68201e-06 1.53404e-07 -4.37997e-06 -5.13165e-07 -1.03483e-05)
(2.29157e-05 -8.88729e-06 2.99554e-07 -8.7124e-06 -1.36003e-07 -6.94527e-06)
(1.70764e-05 -2.01465e-05 -1.42959e-06 -7.73091e-06 3.34613e-07 -3.81812e-06)
(1.6036e-05 -8.93222e-07 2.92334e-07 -5.05403e-06 -2.59797e-07 -4.45929e-06)
(1.48725e-05 7.18972e-08 -4.88866e-07 -4.61627e-06 -2.87879e-07 -6.35659e-06)
(1.99304e-05 -2.09415e-05 -2.26479e-07 -8.14387e-06 -3.54773e-07 -3.87994e-06)
(2.90645e-05 2.21485e-06 -2.47805e-07 -8.87691e-06 -4.91999e-07 -1.31246e-05)
(1.52411e-05 -3.09218e-07 4.31606e-07 -5.48117e-06 -3.90712e-07 -4.06212e-06)
(2.82178e-05 -5.30089e-06 -2.54175e-06 -1.09119e-05 -5.32469e-07 -9.43921e-06)
(2.03434e-05 8.21158e-06 -2.06485e-06 -4.39182e-06 -1.16839e-06 -1.43183e-05)
(2.56533e-05 -1.06733e-05 -5.4692e-07 -1.06206e-05 -6.94579e-07 -8.36157e-06)
(1.27669e-05 3.63401e-06 1.43773e-06 -1.51368e-06 1.97044e-07 -9.17569e-06)
(2.45938e-05 -1.99585e-05 -5.49057e-08 -8.0168e-06 1.41751e-08 -6.01587e-06)
(1.77151e-05 2.92999e-06 1.24152e-06 -5.87676e-06 2.38832e-07 -5.56075e-06)
(1.5543e-05 2.20747e-06 -1.29127e-06 -3.67858e-06 -1.40708e-06 -7.90357e-06)
(2.50992e-05 2.60575e-06 2.52885e-07 -8.88304e-06 -3.58096e-07 -1.11282e-05)
(3.52332e-05 -3.15255e-06 -2.11577e-06 -1.22055e-05 -1.86101e-06 -1.15252e-05)
(9.16028e-06 -1.88932e-05 8.97913e-07 -3.24991e-06 1.79069e-07 -7.71356e-07)
(2.60105e-05 -9.37338e-06 -8.21953e-07 -8.97461e-06 7.34428e-08 -6.53594e-06)