/*--------------------------------*- C++ -*----------------------------------*\
| =========                 |                                                 |
| \\      /  F ield         | OpenFOAM: The Open Source CFD Toolbox           |
|  \\    /   O peration     | Version:  v2012                                 |
|   \\  /    A nd           | Website:  www.openfoam.com                      |
|    \\/     M anipulation  |                                                 |
\*---------------------------------------------------------------------------*/
FoamFile
{
    version     2.0;
    format      ascii;
    class       volVectorField;
    location    "17";
    object      D;
}
// * * * * * * * * * * * * * * * * * * * * * * * * * * * * * * * * * * * * * //

dimensions      [0 1 0 0 0 0 0];


internalField   nonuniform List<vector> 
250
(
(0.000431634 -0.000452059 0)
(0.000404718 -0.000885878 0)
(0.000322764 -0.00107979 0)
(0.000254524 -0.00125167 0)
(0.000186371 -0.00129122 0)
(0.000935855 -0.000739159 0)
(0.000843495 -0.000922607 0)
(0.000679762 -0.000942188 0)
(0.000557176 -0.00100837 0)
(0.000419816 -0.00099273 0)
(0.00111371 -0.000750075 0)
(0.00101917 -0.000742299 0)
(0.000888132 -0.000697067 0)
(0.000801976 -0.000708421 0)
(0.000698573 -0.000683029 0)
(0.00112201 -0.000651715 0)
(0.00106105 -0.000617871 0)
(0.000983065 -0.000580774 0)
(0.000928677 -0.000569363 0)
(0.000863266 -0.000539294 0)
(0.00130402 -0.00051032 0)
(0.00124145 -0.000462964 0)
(0.00117591 -0.00041343 0)
(0.00113186 -0.000387606 0)
(0.0010795 -0.000350725 0)
(0.00134022 -0.000391606 0)
(0.00131279 -0.000345545 0)
(0.00127184 -0.000304916 0)
(0.00125342 -0.000274623 0)
(0.00121934 -0.000250745 0)
(0.00146965 -0.000305136 0)
(0.00144535 -0.000253897 0)
(0.00141647 -0.000206471 0)
(0.00140045 -0.000178913 0)
(0.00137524 -0.000143912 0)
(0.00152127 -0.000188137 0)
(0.00152131 -0.000153133 0)
(0.00150877 -0.000120401 0)
(0.00150778 -0.000100324 0)
(0.00149331 -7.53942e-05 0)
(0.00158186 -0.000127988 0)
(0.00158923 -9.87244e-05 0)
(0.00158557 -7.33907e-05 0)
(0.0015891 -5.82178e-05 0)
(0.00158185 -3.90869e-05 0)
(0.00160381 -2.66581e-05 0)
(0.00161941 -2.11166e-05 0)
(0.00162157 -1.43554e-05 0)
(0.00162913 -1.15038e-05 0)
(0.00162642 -5.9556e-06 0)
(0.00163516 -2.92722e-06 0)
(0.00159605 -2.26715e-05 0)
(0.00151686 -4.45322e-05 0)
(0.00140332 -9.29729e-05 0)
(0.00126275 -0.000161096 0)
(0.00163338 2.88536e-06 0)
(0.00160019 -9.96317e-06 0)
(0.00153236 -1.29896e-05 0)
(0.00144401 -4.77057e-05 0)
(0.00133264 -6.9866e-05 0)
(0.00165739 3.2586e-06 0)
(0.00162921 -5.62247e-06 0)
(0.00157605 -4.83896e-06 0)
(0.00149158 -3.15526e-05 0)
(0.00139728 -4.41214e-05 0)
(0.00167193 5.47496e-06 0)
(0.00164879 -3.90024e-06 0)
(0.00160663 4.80154e-06 0)
(0.00154282 -1.4633e-05 0)
(0.00147225 -1.5425e-05 0)
(0.00170831 2.35619e-06 0)
(0.0016868 -8.27915e-06 0)
(0.00165124 -5.89441e-06 0)
(0.00159018 -2.3057e-05 0)
(0.00152883 -2.66182e-05 0)
(0.00174218 3.06326e-06 0)
(0.00172511 -7.09079e-06 0)
(0.00169724 -3.29184e-06 0)
(0.00165041 -1.79804e-05 0)
(0.00160252 -2.1808e-05 0)
(0.00178803 1.4294e-07 0)
(0.00177209 -1.17309e-05 0)
(0.00174756 -1.33989e-05 0)
(0.0017045 -2.81001e-05 0)
(0.00166329 -3.4814e-05 0)
(0.00183657 9.01715e-07 0)
(0.0018237 -9.465e-06 0)
(0.00180382 -1.04024e-05 0)
(0.00176925 -2.44109e-05 0)
(0.00173566 -3.2239e-05 0)
(0.00188901 7.51123e-07 0)
(0.00187743 -8.73398e-06 0)
(0.00186027 -9.87802e-06 0)
(0.00182964 -2.29597e-05 0)
(0.00180134 -3.06535e-05 0)
(0.00194302 3.13761e-06 0)
(0.00193339 -2.32812e-06 0)
(0.0019193 3.38077e-07 0)
(0.00189368 -9.74079e-06 0)
(0.00187051 -1.59961e-05 0)
(0.00112143 -0.000234951 0)
(0.00106037 -0.000246652 0)
(0.000993042 -0.000270522 0)
(0.000930823 -0.000285589 0)
(0.000868167 -0.000309643 0)
(0.000808152 -0.000328287 0)
(0.000750475 -0.00035252 0)
(0.000694589 -0.000374678 0)
(0.000642373 -0.000399558 0)
(0.000591964 -0.000426257 0)
(0.00124806 -0.000116492 0)
(0.00119776 -0.00012857 0)
(0.00115176 -0.000148904 0)
(0.00110196 -0.000164137 0)
(0.00105526 -0.000185669 0)
(0.00100734 -0.000204041 0)
(0.000962679 -0.000226829 0)
(0.000918533 -0.000248622 0)
(0.000878625 -0.00027289 0)
(0.000840836 -0.000298672 0)
(0.00131109 -7.77037e-05 0)
(0.00126747 -8.60054e-05 0)
(0.00122288 -0.000103517 0)
(0.00118077 -0.000114378 0)
(0.00113945 -0.000132935 0)
(0.00110061 -0.00014705 0)
(0.0010646 -0.000166651 0)
(0.00103118 -0.000184467 0)
(0.00100246 -0.000205308 0)
(0.000976946 -0.000227129 0)
(0.00140912 -3.93745e-05 0)
(0.00137664 -4.6489e-05 0)
(0.00134544 -6.18352e-05 0)
(0.00131323 -7.23908e-05 0)
(0.00128412 -8.93514e-05 0)
(0.00125438 -0.000103283 0)
(0.0012292 -0.000121643 0)
(0.00120437 -0.000138827 0)
(0.00118525 -0.000158434 0)
(0.00116821 -0.000178708 0)
(0.00147236 -4.35693e-05 0)
(0.0014457 -5.06157e-05 0)
(0.00141756 -6.2956e-05 0)
(0.00139153 -7.23574e-05 0)
(0.00136639 -8.6277e-05 0)
(0.00134307 -9.81737e-05 0)
(0.00132274 -0.000113457 0)
(0.00130437 -0.000127847 0)
(0.00129068 -0.000144219 0)
(0.00127971 -0.000160898 0)
(0.00155858 -3.67269e-05 0)
(0.00153894 -4.35053e-05 0)
(0.00151796 -5.48612e-05 0)
(0.00149841 -6.40627e-05 0)
(0.00147996 -7.70393e-05 0)
(0.00146236 -8.85599e-05 0)
(0.00144776 -0.000102878 0)
(0.00143411 -0.000116478 0)
(0.00142474 -0.000131712 0)
(0.00141722 -0.000146997 0)
(0.00162496 -4.81337e-05 0)
(0.00160885 -5.49143e-05 0)
(0.00158988 -6.48046e-05 0)
(0.00157417 -7.33669e-05 0)
(0.00155768 -8.45079e-05 0)
(0.00154376 -9.47499e-05 0)
(0.00153105 -0.000106952 0)
(0.00152043 -0.000118666 0)
(0.00151274 -0.000131533 0)
(0.00150718 -0.000144282 0)
(0.00170452 -4.56908e-05 0)
(0.00169141 -5.22186e-05 0)
(0.00167609 -6.17084e-05 0)
(0.00166313 -6.99344e-05 0)
(0.00164985 -8.06034e-05 0)
(0.00163819 -9.04102e-05 0)
(0.00162787 -0.000102049 0)
(0.00161862 -0.000113117 0)
(0.00161175 -0.00012526 0)
(0.0016062 -0.000137132 0)
(0.00177432 -4.36734e-05 0)
(0.00176278 -4.94631e-05 0)
(0.00174776 -5.8025e-05 0)
(0.00173726 -6.5633e-05 0)
(0.00172421 -7.53027e-05 0)
(0.00171474 -8.40657e-05 0)
(0.00170415 -9.46542e-05 0)
(0.00169564 -0.000104785 0)
(0.00168872 -0.000115421 0)
(0.00168273 -0.000126004 0)
(0.00184672 -2.77533e-05 0)
(0.00183675 -3.34398e-05 0)
(0.00182314 -4.17034e-05 0)
(0.00181322 -4.92308e-05 0)
(0.00180137 -5.85305e-05 0)
(0.0017922 -6.75555e-05 0)
(0.0017825 -7.76577e-05 0)
(0.00177476 -8.77558e-05 0)
(0.00176764 -9.83896e-05 0)
(0.00176166 -0.000108979 0)
(0.000148817 -0.00132658 0)
(0.000123364 -0.00132862 0)
(0.000105039 -0.00134427 0)
(9.20121e-05 -0.00134547 0)
(7.90893e-05 -0.00135805 0)
(6.91366e-05 -0.00135939 0)
(5.70994e-05 -0.00136976 0)
(4.62687e-05 -0.00137127 0)
(3.1496e-05 -0.00137849 0)
(1.59154e-05 -0.00137847 0)
(0.000352476 -0.00102854 0)
(0.000299372 -0.00104525 0)
(0.000257028 -0.00108182 0)
(0.000217914 -0.0010956 0)
(0.000180369 -0.00112344 0)
(0.000148759 -0.00113586 0)
(0.000113548 -0.00115818 0)
(8.08531e-05 -0.00116926 0)
(4.01605e-05 -0.00118609 0)
(-2.52508e-06 -0.00119591 0)
(0.000645186 -0.00071642 0)
(0.00058526 -0.000741467 0)
(0.000529532 -0.00078517 0)
(0.000473121 -0.000806408 0)
(0.000419556 -0.00084178 0)
(0.000370864 -0.000861604 0)
(0.000321306 -0.000891245 0)
(0.000274029 -0.000909809 0)
(0.000221405 -0.000933673 0)
(0.000167008 -0.000952054 0)
(0.000810648 -0.000548271 0)
(0.000745732 -0.00056384 0)
(0.00067874 -0.000595823 0)
(0.000615934 -0.000614923 0)
(0.000551637 -0.000647491 0)
(0.00049393 -0.000668997 0)
(0.000433428 -0.000699304 0)
(0.000376911 -0.000721473 0)
(0.000315574 -0.000748116 0)
(0.000253593 -0.000771451 0)
(0.00103718 -0.000356578 0)
(0.00097583 -0.000364859 0)
(0.000910694 -0.000395029 0)
(0.000847842 -0.00040805 0)
(0.000781572 -0.000437904 0)
(0.000718307 -0.000455916 0)
(0.000653669 -0.000484733 0)
(0.000590559 -0.000507012 0)
(0.00052621 -0.00053451 0)
(0.000461055 -0.000561643 0)
)
;

boundaryField
{
    back
    {
        type            empty;
    }
    left
    {
        type            symmetry;
    }
    hole
    {
        type            calculated;
        value           nonuniform List<vector> 10((0.000421242 -0.000231766 -1.80859e-21) (0.000942528 -0.000624957 1.55285e-20) (0.00114174 -0.000743782 -5.89903e-21) (0.00116332 -0.000674156 7.23713e-21) (0.00134378 -0.000544537 -1.03111e-23) (0.00136379 -0.000424142 3.21376e-21) (0.00148624 -0.000342206 1.64747e-21) (0.00152403 -0.00021567 -3.14558e-21) (0.00157725 -0.000147837 -5.78398e-21) (0.00159416 -3.26882e-05 1.14597e-21));
    }
    front
    {
        type            empty;
    }
    down
    {
        type            symmetry;
    }
    right
    {
        type            calculated;
        value           nonuniform List<vector> 
15
(
(0.00196965 5.86038e-06 2.77947e-21)
(0.00196084 4.4236e-06 4.55697e-21)
(0.00194806 1.19909e-05 1.53228e-21)
(0.00192475 5.07212e-06 2.66729e-21)
(0.001904 2.06487e-06 -8.78959e-22)
(0.00188226 -8.89259e-06 -6.30209e-21)
(0.00187269 -1.4995e-05 4.44665e-21)
(0.0018597 -2.33033e-05 2.71842e-21)
(0.00185013 -3.21977e-05 -7.48584e-22)
(0.00183878 -4.20843e-05 0)
(0.00182988 -5.27946e-05 3.60757e-21)
(0.00182054 -6.4016e-05 2.01541e-21)
(0.00181298 -7.61358e-05 -3.79167e-21)
(0.00180603 -8.81387e-05 -1.83766e-21)
(0.00180005 -9.99013e-05 0)
)
;
    }
    up
    {
        type            calculated;
        value           nonuniform List<vector> 
15
(
(0.000569111 -0.000439989 1.79766e-21)
(0.000824927 -0.000311854 -1.92601e-21)
(0.000967362 -0.000238338 -1.18145e-21)
(0.00116292 -0.000189074 -1.51458e-21)
(0.00127718 -0.000169424 -1.36547e-21)
(0.00141589 -0.000154786 -1.01453e-21)
(0.00150639 -0.000150752 -1.02327e-21)
(0.00160474 -0.000143143 1.55822e-21)
(0.00168049 -0.000131327 7.84095e-22)
(0.00175885 -0.000114311 0)
(5.05192e-06 -0.00137879 -1.49485e-21)
(-2.97408e-05 -0.00119989 -1.75673e-21)
(0.000136311 -0.000959743 8.00844e-23)
(0.000220438 -0.000781851 2.30448e-21)
(0.000428228 -0.000575247 2.88657e-22)
)
;
    }
}


// ************************************************************************* //
