/*--------------------------------*- C++ -*----------------------------------*\
| =========                 |                                                 |
| \\      /  F ield         | OpenFOAM: The Open Source CFD Toolbox           |
|  \\    /   O peration     | Version:  v2012                                 |
|   \\  /    A nd           | Website:  www.openfoam.com                      |
|    \\/     M anipulation  |                                                 |
\*---------------------------------------------------------------------------*/
FoamFile
{
    version     2.0;
    format      ascii;
    class       volSymmTensorField;
    location    "18";
    object      epsilon;
}
// * * * * * * * * * * * * * * * * * * * * * * * * * * * * * * * * * * * * * //

dimensions      [0 0 0 0 0 0 0];


internalField   nonuniform List<symmTensor> 
470
(
(0.00012092 -9.31751e-05 -2.30778e-20 2.19632e-05 9.93523e-22 0)
(7.72953e-05 -5.70552e-05 6.45117e-21 1.0112e-05 -1.89164e-21 0)
(0.000438059 -9.35998e-05 -7.93545e-21 -0.000170353 4.15055e-21 0)
(0.000248588 -1.96035e-05 -2.31248e-20 -2.30953e-05 -1.48111e-21 0)
(0.000155687 -0.000222682 4.80165e-20 -7.58946e-05 7.35981e-21 0)
(0.000392908 -2.96176e-05 -7.25028e-20 -0.000136522 -1.13836e-20 0)
(0.000284614 -0.00017857 1.81847e-20 -2.8372e-05 1.94236e-22 0)
(0.000153224 -0.000184861 -4.62055e-20 -9.3838e-05 -1.00091e-21 0)
(0.000674453 -0.000169442 -1.37443e-20 -0.000279995 -2.86874e-21 0)
(0.000373748 -0.00016339 -5.47248e-20 -0.000159581 -7.54482e-21 0)
(0.000573168 -0.000236982 4.14396e-20 -0.000270179 2.16689e-20 0)
(0.000824585 -9.15201e-05 -1.28386e-19 -0.000507373 -5.96447e-20 0)
(0.000809488 -6.48048e-05 -8.44221e-20 -0.00036745 -4.79908e-20 0)
(0.00022886 -5.31506e-05 1.70747e-20 -2.379e-05 2.39923e-21 0)
(0.000990888 -3.27653e-05 5.40171e-20 -0.000360514 3.08265e-20 0)
(0.000553063 -0.000149426 1.41773e-20 -0.000214361 -1.88303e-20 0)
(0.00040031 -0.000173712 2.54219e-20 -0.000107911 1.30889e-20 0)
(0.000236158 -5.8327e-05 -5.30453e-21 5.03535e-06 4.93978e-22 0)
(0.000174092 -2.86516e-05 -1.71738e-20 1.07681e-05 4.88815e-22 0)
(6.2163e-05 -9.81242e-05 -1.39855e-20 -2.70134e-07 1.08723e-21 0)
(0.000573575 -0.000131115 3.88139e-20 -0.000247522 2.57913e-20 0)
(0.000307442 -5.48617e-05 5.3703e-21 -7.72623e-05 2.32233e-21 0)
(0.000418766 -7.65083e-05 -2.04758e-20 -0.000185621 -7.90892e-21 0)
(0.00027741 -5.91516e-05 2.45448e-20 -1.89388e-06 3.87701e-22 0)
(0.000428764 -0.000192732 -8.24319e-20 -0.000306232 -2.69911e-20 0)
(0.000212704 -0.000188189 1.37269e-20 -6.62914e-05 -4.30992e-21 0)
(0.000496213 -0.000206385 -1.60924e-20 -0.000294979 -8.03116e-21 0)
(0.000505249 -5.29873e-05 6.37932e-20 -0.000215661 2.30099e-20 0)
(0.000372597 -4.64575e-05 2.66364e-20 -0.00014798 -7.29312e-21 0)
(0.000265333 -2.32299e-05 -9.06299e-21 -1.79108e-05 -5.85353e-22 0)
(9.13676e-05 -6.26057e-05 -3.30852e-21 2.54659e-05 7.42791e-22 0)
(0.000886417 -2.59989e-05 0 -0.000398918 0 0)
(0.000418189 -0.000163813 -3.80859e-20 -0.000155038 -1.07734e-20 0)
(-0.000215564 -0.000202861 2.53192e-20 -0.00043749 -6.45523e-20 0)
(0.000360461 -2.07471e-05 -4.7084e-20 -0.00019031 -4.83185e-21 0)
(0.000370914 -3.63737e-05 3.03559e-21 -0.000143508 9.92572e-21 0)
(0.00112834 -8.07189e-05 8.24208e-21 -0.00046723 3.78956e-21 0)
(0.000147965 -9.90344e-05 -1.65473e-20 1.31485e-05 1.15489e-21 0)
(6.04804e-05 -9.19946e-05 -3.13802e-20 -2.89384e-05 -1.58406e-20 0)
(2.27949e-05 -0.000110221 1.57888e-20 -2.71111e-05 3.87417e-21 0)
(0.000349882 -0.000256802 -3.16091e-20 -0.000200868 7.24658e-21 0)
(0.000171859 -1.0635e-05 -1.18995e-20 2.31303e-05 -2.88374e-21 0)
(0.00111452 5.87097e-05 1.26263e-19 -0.00046813 1.19884e-19 0)
(0.000389113 -0.000239655 3.67634e-20 -0.000166443 2.05761e-20 0)
(0.000506277 -7.03305e-06 0 -0.000218771 0 0)
(0.000929034 5.62163e-05 2.0357e-19 -0.000574601 2.53697e-19 0)
(0.000178838 -0.000177804 -5.36494e-20 6.56863e-06 -3.68838e-21 0)
(0.000457283 -0.000206376 6.84953e-21 -0.000195657 2.24679e-20 0)
(0.000490828 -0.000225843 -5.3493e-20 -0.000209184 -2.81326e-20 0)
(0.000525665 -0.000253053 8.23321e-20 -0.000287306 3.3184e-20 0)
(0.001055 -3.02913e-05 2.10214e-19 -0.000423502 5.69582e-20 1.37883e-35)
(0.000447869 -6.05608e-05 0 9.73185e-05 0 0)
(0.000198858 -7.47947e-05 1.02254e-20 -2.24718e-05 -7.54432e-22 0)
(0.000206202 -4.3486e-05 -3.82904e-20 2.22171e-05 5.38572e-21 0)
(0.000289982 -5.67355e-05 0 -6.10386e-05 0 0)
(0.000308969 -7.01296e-05 1.515e-20 -5.17952e-05 2.18574e-21 0)
(0.000109299 2.65556e-05 -3.8812e-20 -0.000284652 -1.48971e-20 0)
(0.000538392 0.000103632 3.92185e-20 -0.000225446 4.29498e-20 -4.83805e-36)
(0.000365033 -0.000239047 7.48627e-21 -0.000138741 1.80266e-21 0)
(0.000448193 -6.78556e-05 2.16356e-21 -0.000227056 3.66232e-22 0)
(0.000278979 -0.00016979 4.28455e-20 -6.98148e-05 3.64241e-21 0)
(0.000678572 -0.000179854 7.79115e-20 -0.000275032 4.99653e-20 0)
(0.000740994 -0.000167089 2.01055e-19 -0.000361967 8.16117e-20 0)
(0.000911865 -0.000106992 -1.09037e-19 -0.000414257 -9.22896e-20 0)
(1.166e-05 0.000163858 -4.73926e-20 -0.000248394 1.70279e-19 0)
(0.00132517 0.000135842 -1.89059e-19 -0.00139976 -3.0784e-19 0)
(0.000113487 -0.000139154 4.30229e-20 -2.12735e-05 9.05446e-22 0)
(0.000327809 -7.00425e-05 -4.18534e-22 -7.73537e-05 2.17844e-21 0)
(0.000119405 -8.86525e-05 -2.94704e-21 -0.000206738 4.50318e-20 0)
(0.000459718 -0.00021478 -4.68597e-20 -0.000206334 -1.46322e-20 0)
(2.22384e-05 -2.27065e-05 -2.45134e-21 -1.20236e-05 5.46262e-21 0)
(0.000336548 -0.000190965 -2.56673e-20 -0.000136833 -3.36295e-21 0)
(0.000493992 -0.0002199 1.72123e-19 -0.000385146 1.73753e-19 0)
(0.000314751 -0.000237022 0 -9.10293e-05 0 0)
(0.000618671 -5.43083e-05 -6.54092e-20 -0.000563272 4.41782e-20 0)
(0.00030195 -8.76591e-06 4.24537e-21 -4.45964e-05 1.04766e-20 -3.02191e-36)
(0.000364805 -0.000152275 -6.30263e-21 -0.000113668 -9.69113e-21 0)
(0.000325124 -0.00016127 -6.79295e-21 -0.000111683 -6.50126e-21 0)
(0.000359402 -0.00025156 4.58609e-20 -0.00012023 9.86806e-21 0)
(0.00216418 -0.000247985 3.80176e-20 -0.000194312 -2.54685e-21 0)
(0.000342384 -0.000257994 -3.7182e-20 -0.000148404 -1.61688e-20 0)
(0.00200217 -0.000301935 -1.71207e-20 -0.00102527 -1.12249e-19 0)
(0.000420129 -0.00011011 -2.5956e-20 -0.00018863 2.32126e-20 0)
(0.000129671 -7.9393e-05 -4.50723e-20 -0.000223862 -3.10923e-20 0)
(0.000625834 -0.000190758 2.90783e-20 -0.00027367 9.50778e-21 0)
(0.000318621 -3.83072e-05 2.10525e-21 -5.75128e-05 5.97753e-22 0)
(0.000652768 -4.02523e-05 -2.44065e-19 -0.000555399 -2.13393e-19 0)
(-0.00011379 0.000109711 -7.06142e-20 -0.000123507 5.96072e-20 -8.80585e-37)
(0.00111037 0.000145723 9.24301e-20 -0.000613003 9.25096e-21 0)
(0.00055556 -0.000101822 1.33323e-19 -0.000352274 1.56263e-20 0)
(0.000852268 -3.96743e-05 -1.68917e-19 -0.000654614 -7.95001e-20 0)
(0.000889496 -0.000130239 -2.5075e-19 -0.000391609 -1.54743e-19 0)
(0.000285878 -0.000212033 -1.36533e-20 -9.65805e-05 8.79258e-22 0)
(0.000345959 -0.000172421 -6.68853e-20 -0.000101716 -2.74335e-21 0)
(0.000918949 -7.22488e-05 1.44038e-19 -0.00036512 6.8542e-20 0)
(0.000932098 -9.3685e-05 -5.40658e-20 -0.000429942 -1.44556e-20 0)
(0.000158417 -0.000186337 -4.31733e-20 -4.49353e-05 -2.09092e-21 0)
(0.000305111 -0.000181941 2.79409e-20 -6.315e-05 3.51892e-21 0)
(0.00025219 -0.000233219 1.50011e-21 -8.26025e-05 -1.27052e-20 0)
(0.000390081 -6.56125e-05 5.9933e-20 -0.000166172 2.20084e-20 0)
(0.000286455 -8.46699e-05 7.34202e-21 -4.93635e-05 -4.18565e-21 0)
(0.000533608 -0.000210239 -6.45292e-20 -0.00026011 -2.33084e-20 0)
(0.000820682 -0.000275715 0 -0.000113015 0 0)
(0.00029225 -4.6955e-05 2.01087e-20 -1.40249e-05 3.30603e-21 0)
(0.000267721 -4.92346e-05 -1.77033e-20 -3.13962e-05 -1.91791e-21 0)
(0.000363851 -3.50129e-05 -1.28041e-20 -0.000116373 -3.66958e-22 0)
(0.000337996 -4.99671e-05 1.15355e-20 -0.000122369 -3.43022e-22 0)
(0.000196071 -0.00021729 2.95477e-20 -5.58623e-05 5.26845e-21 0)
(9.56196e-05 0.000136891 -1.88059e-21 -0.000631235 -1.88174e-20 0)
(0.000556118 -0.000389917 -1.48617e-20 -0.000372216 9.87293e-20 0)
(0.00101051 0.000164344 9.65056e-20 -0.000879013 2.68064e-20 0)
(0.000495889 -0.000485862 1.40176e-19 -0.000707036 5.62189e-20 0)
(0.000295198 -3.16558e-05 3.99184e-21 -3.37269e-05 9.28095e-22 0)
(0.000362618 -4.11815e-06 1.11929e-20 -0.000158811 -2.77071e-21 6.57881e-37)
(8.19162e-05 -0.000155047 -4.98655e-22 -0.000146576 3.01738e-20 0)
(0.000378385 -0.000234595 -1.61019e-21 -0.000147664 -6.39563e-22 0)
(0.000264703 -9.50429e-06 1.49142e-20 -1.12456e-05 -3.09042e-21 0)
(0.000726932 -7.2495e-05 -3.36166e-20 -0.00034341 -2.26141e-20 0)
(0.000249002 -0.00020838 -2.86229e-21 -2.48608e-05 -2.45529e-21 0)
(9.57131e-05 -4.62594e-06 8.37747e-22 3.54759e-05 -2.02195e-21 0)
(0.000249431 -0.000225848 -1.05546e-20 -7.49721e-05 -3.455e-21 0)
(0.000267905 -6.7337e-05 7.10874e-21 -4.6552e-05 -7.25779e-22 0)
(0.000240537 -3.65166e-05 2.20128e-20 -3.42354e-06 -2.03357e-21 0)
(0.000283226 -5.81239e-06 -5.73581e-21 3.80432e-06 -9.36531e-21 -3.20757e-36)
(0.000343893 -6.53394e-06 7.44365e-21 -0.000125305 1.12699e-20 -4.20021e-36)
(0.000431442 -0.00022145 -3.68129e-20 -0.000152106 -8.53718e-21 0)
(0.000430884 -0.000244585 -1.82426e-20 -0.00018295 -6.39202e-21 0)
(0.000316383 -8.38364e-05 3.63855e-20 -5.15174e-05 7.8623e-21 0)
(0.000830367 -2.31452e-05 -1.09474e-19 -0.000309702 -3.16086e-20 1.79888e-35)
(0.000283791 -6.74055e-05 -2.24667e-20 -2.24139e-05 1.17676e-21 0)
(7.29633e-05 -0.000170734 2.35956e-20 -6.07768e-05 6.72379e-21 0)
(0.000173866 -0.000189825 6.02187e-21 -3.9557e-05 8.51086e-22 0)
(0.000270318 -0.000223417 -1.05004e-20 -5.74978e-05 -3.51506e-21 0)
(0.000296062 -0.000101306 -6.07093e-20 -4.82327e-05 -9.16214e-21 0)
(0.000318366 -9.01736e-06 -6.59009e-21 -8.25777e-05 -1.02425e-20 -1.5692e-36)
(0.000416531 -5.66416e-05 3.3917e-20 -0.000172345 -4.90909e-22 0)
(0.000341604 -0.000218523 -1.6213e-20 -9.84519e-05 -1.03843e-21 0)
(7.74844e-06 4.14456e-05 -1.11659e-19 -0.000148964 -1.40082e-20 0)
(0.00110644 7.63231e-06 8.69628e-20 -0.000373179 4.2959e-20 0)
(0.000364896 -2.10391e-05 3.23671e-20 -0.000140138 7.41371e-21 0)
(0.000341012 -2.25225e-05 -1.11007e-20 -0.000169224 -1.72384e-21 0)
(0.00045516 -0.00018068 0 -0.000328613 0 0)
(0.000302442 -8.9559e-05 -3.53146e-20 -8.06385e-05 -8.96375e-21 0)
(0.000331475 -0.000148849 1.70599e-20 -7.33349e-05 2.0959e-21 0)
(0.000313861 -0.000139526 1.17881e-21 -9.21754e-05 -5.30022e-21 0)
(9.86058e-05 -0.000125468 2.00401e-20 -2.94927e-06 -5.3372e-22 0)
(0.000274105 -2.71823e-05 -2.30679e-20 4.33859e-06 2.88621e-22 0)
(0.000609626 -0.00012792 5.59351e-20 -0.000320146 1.02365e-20 0)
(0.000299729 -0.000127153 2.82571e-20 -4.63649e-05 -8.19492e-21 0)
(0.000623725 -8.8991e-05 2.40781e-20 -0.000400086 4.8827e-20 0)
(0.00015598 -5.84651e-05 -1.54543e-20 -1.22708e-05 2.88457e-21 0)
(0.000268539 -2.35717e-05 -9.87791e-21 -7.13541e-07 1.621e-22 0)
(0.000227186 -0.000180779 2.41255e-21 -0.000172506 -1.58794e-20 0)
(0.000311093 -3.85287e-05 -3.10698e-20 -2.47499e-05 -9.9944e-21 0)
(-0.000351127 -0.00017921 -1.03812e-19 0.000100756 6.71665e-20 0)
(0.000546698 -0.000187886 -3.53067e-20 -0.00018522 -3.51124e-21 0)
(0.000205706 0.000198706 2.39414e-21 -0.000434375 1.74536e-20 2.13167e-36)
(0.000253599 -0.000161852 -3.23339e-20 -4.84584e-05 -6.52473e-21 0)
(0.000245866 -0.000159741 -4.293e-20 -4.41397e-05 9.34864e-22 0)
(0.000386621 -0.0001466 5.35329e-20 -0.000124996 5.29186e-21 0)
(2.92857e-05 -0.000290428 -4.11943e-20 8.0462e-05 3.49342e-20 0)
(0.000768595 -0.000128559 -1.01702e-19 -0.000338034 -6.10193e-20 0)
(0.000871718 1.99441e-05 1.26069e-19 -0.000313358 5.99193e-21 3.82024e-36)
(0.000923499 -2.10641e-06 0 -0.000363004 0 0)
(0.0009648 0.000315228 6.26183e-20 -0.00040639 6.32636e-20 0)
(0.000260591 -0.00016751 9.42778e-21 -0.000196769 2.15296e-20 0)
(0.000192267 -0.000162823 2.56973e-20 -0.000163812 5.48765e-20 0)
(0.000835378 -8.03662e-05 2.45963e-20 -0.000404454 2.36187e-20 0)
(0.000337965 -0.000234919 1.38841e-20 -0.000115963 4.49476e-21 0)
(0.00028589 -0.000203498 6.59508e-20 -0.000215704 2.40814e-20 0)
(0.000268452 -0.000223973 5.98307e-20 -0.000180474 -9.54016e-21 0)
(0.000336437 -0.000109447 -2.84591e-20 -0.000103344 -1.10826e-21 0)
(0.000341022 -0.000100869 -1.31592e-20 -0.000108514 3.76931e-21 0)
(0.000343272 -0.000135089 8.57057e-21 -0.000122144 7.50574e-21 0)
(0.000345347 -0.000131638 3.21886e-20 -9.86733e-05 -5.93115e-21 0)
(0.000303709 -0.000158443 -7.27206e-20 -5.90446e-05 -2.95102e-22 0)
(0.000192167 -3.43972e-05 8.73121e-21 -9.6657e-07 -3.30528e-22 0)
(2.43913e-05 -3.9782e-05 0 -6.88044e-05 0 0)
(0.000412629 -0.00013087 1.32024e-19 -0.000305515 9.1039e-20 0)
(0.000257403 -0.000197685 6.23976e-21 -0.000161617 2.34963e-21 0)
(0.000249743 -0.00024841 1.44421e-20 -0.000126815 2.86099e-20 0)
(0.00100126 -3.5097e-05 1.29172e-19 -0.000428053 3.85701e-20 0)
(0.000329634 -0.000202559 1.9488e-20 -0.00012958 -6.40136e-21 0)
(0.00047358 -0.000191787 -8.30812e-21 -0.000162767 -8.45026e-21 0)
(0.000481155 -0.000174941 2.62741e-20 -0.000224159 -1.22446e-21 0)
(0.00071164 -0.0002004 6.07032e-20 -0.00030051 2.67272e-20 0)
(0.000357454 -8.4779e-05 -2.46137e-20 -0.000148397 1.80329e-21 0)
(3.48548e-05 -7.2038e-07 0 -0.000131543 0 0)
(0.000935511 0.000222148 -3.05674e-21 -0.000517759 1.62281e-19 0)
(0.000256168 -7.427e-05 -4.23462e-20 -2.14927e-05 -1.75307e-21 0)
(0.000346162 -5.30265e-05 5.73971e-21 -0.000142872 -3.92981e-21 0)
(0.000200971 -0.000156604 -1.06602e-20 -2.63016e-05 3.70172e-21 0)
(0.000401667 -0.000208524 0 -0.000173801 0 0)
(0.000419552 -0.000188018 -6.26763e-21 -0.000127493 5.35021e-21 0)
(8.58185e-05 -0.000110799 0 -3.61614e-05 0 0)
(0.000216636 -9.24919e-05 -9.31744e-21 -4.63744e-06 9.49278e-22 0)
(0.000457885 -5.38834e-05 -4.88979e-20 -0.000184213 3.65862e-21 0)
(0.000383493 -0.00012208 -3.0044e-21 -0.000153623 -8.88488e-21 0)
(0.000414384 -0.000100476 4.87861e-20 -0.000142747 1.13905e-20 0)
(0.00869685 -0.0020923 4.62206e-19 -0.0128266 -6.86103e-19 6.33062e-34)
(4.12372e-05 -4.89926e-05 2.10435e-21 3.90988e-06 4.18389e-21 0)
(2.161e-05 -4.37074e-05 -8.79003e-21 -1.73016e-05 -1.6331e-21 0)
(0.00536023 -0.000436312 -7.24869e-19 -0.00438517 -3.10404e-19 0)
(0.00020987 -3.88861e-05 1.12058e-19 -0.000272789 3.81947e-20 0)
(0.000483659 -0.000147571 -3.33584e-20 -0.000207902 7.54282e-21 0)
(0.000570889 -9.46923e-05 1.77327e-21 -0.000185195 -9.97013e-21 0)
(0.000109511 -6.09037e-05 1.12697e-20 1.22951e-05 -9.18183e-21 0)
(0.000176855 -9.611e-05 9.96833e-21 1.35305e-05 2.04358e-21 0)
(0.000217795 -3.051e-05 1.37228e-20 -0.000130307 2.94173e-21 0)
(0.000307473 8.39639e-05 -5.84643e-21 -0.000545202 -3.74224e-20 -2.74487e-36)
(0.000292698 -8.63257e-05 5.17776e-21 -6.50178e-05 3.56825e-22 0)
(0.000434212 -0.000125313 1.50971e-21 -0.000168937 -1.02092e-20 0)
(0.000120185 3.79237e-05 -8.90483e-21 -0.000645733 -4.60053e-20 0)
(0.000233035 -7.68279e-05 8.85794e-21 -2.5321e-05 -1.91168e-21 0)
(0.000684226 -0.000136578 -3.60301e-20 -0.000302144 -1.49178e-20 0)
(0.000661933 -0.000162202 6.33078e-20 -0.000282435 2.73075e-20 0)
(0.000291307 -0.000127414 3.87538e-20 -7.22986e-05 9.67837e-21 0)
(0.000222349 -0.000161299 7.12122e-21 1.11208e-05 3.0861e-21 0)
(0.000252691 -0.000105783 1.40375e-20 -3.51695e-05 4.42407e-21 0)
(0.000319226 -0.000208578 -4.52036e-20 -0.000228491 -4.39694e-20 0)
(9.1655e-05 2.2428e-05 -3.80761e-20 -0.000308777 -3.37189e-20 0)
(0.000138279 -0.00015921 -1.45799e-20 -1.18397e-05 -7.4454e-22 0)
(0.000396339 -8.57615e-05 -5.43447e-20 -0.000132353 -1.7228e-21 0)
(0.000252752 -9.53029e-05 -9.68661e-21 -2.72009e-05 -1.20009e-21 0)
(0.000354521 -0.000152508 -5.79813e-20 -0.000218013 -8.65114e-20 0)
(0.000412813 -5.20634e-05 -4.25399e-20 -0.000151958 -3.43625e-20 0)
(0.000526089 -0.000213822 -6.56726e-20 -0.000265435 -3.04444e-20 0)
(0.000104167 -4.89201e-05 2.10528e-20 -0.000210111 1.78909e-20 0)
(0.00113656 0.000239746 9.60212e-20 -0.000704328 1.20846e-19 0)
(0.00113579 -5.40047e-05 -6.67449e-20 -0.000502989 -7.25693e-20 0)
(0.000491793 -0.000253521 -8.79141e-20 -0.000183353 -5.1472e-20 0)
(4.17544e-05 -6.5749e-05 -3.02963e-20 -0.000182847 -4.03493e-20 0)
(0.000266963 -3.95338e-06 -4.10412e-21 2.95089e-05 -2.31722e-22 0)
(0.00035001 -5.3191e-06 2.52718e-20 -0.000147741 1.31308e-20 0)
(0.000475321 -0.000105249 -4.34425e-21 -0.000221171 1.73496e-20 0)
(0.000281993 -0.000200663 -1.62729e-20 -0.000126732 8.87575e-22 0)
(-8.46809e-05 0.000229548 4.94348e-20 -0.000275011 1.08713e-19 0)
(0.000336718 -3.5177e-05 0 -0.000108416 0 0)
(0.000340117 -2.3559e-05 -1.97688e-20 -0.000123174 -1.39673e-20 0)
(0.000279637 -2.30599e-05 -1.53616e-20 3.06939e-07 -2.46673e-21 0)
(0.000283911 -4.15323e-05 0 -2.92961e-05 0 0)
(0.000291102 -1.93267e-05 4.03777e-21 5.83225e-07 3.65359e-22 0)
(0.000332239 -2.37602e-05 -2.15938e-21 -0.000147964 -3.06993e-21 0)
(0.00203537 -0.000533892 1.09944e-20 -0.000411624 1.26023e-19 0)
(0.00299838 -0.000150039 2.58365e-19 -0.00173397 1.26761e-20 0)
(0.00132291 0.00031347 -1.14056e-19 -0.00043655 -1.00305e-19 0)
(0.000979575 -3.89002e-05 1.1861e-19 -0.000225251 5.48389e-20 0)
(0.000334211 -5.4396e-05 1.59159e-20 -8.4928e-05 3.3014e-21 0)
(0.000132226 -3.82888e-05 2.36579e-20 -1.43891e-05 9.24317e-22 0)
(0.000360498 -0.000117894 -3.43743e-21 -0.000133557 -6.21612e-21 0)
(0.000369396 -0.00010433 -3.1369e-21 -0.000121583 5.90133e-21 0)
(0.000479087 -8.96891e-05 5.78325e-20 -0.000192042 -3.05551e-20 0)
(0.000270331 -4.62166e-06 -5.23175e-21 1.35076e-05 -4.11901e-21 -1.31627e-36)
(0.000348373 -2.16125e-06 1.36875e-20 -0.000135383 8.56394e-21 -5.64612e-36)
(0.000517044 -0.000197341 5.0729e-20 -0.000233306 1.29309e-20 0)
(0.000153044 -6.80426e-05 -5.53948e-21 6.53607e-05 2.704e-21 0)
(0.000194719 -0.000111772 1.45343e-20 1.01959e-05 -9.16732e-22 0)
(0.000292827 -1.8431e-05 1.1183e-20 2.76587e-05 -6.04622e-23 0)
(0.000333782 -1.5572e-05 4.44503e-20 -0.000145806 1.70588e-20 0)
(3.96498e-05 -6.44505e-06 3.41173e-21 1.34079e-05 -2.43075e-21 0)
(0.000387325 -0.000218696 -8.68761e-21 -0.000117773 -6.44255e-21 0)
(0.00144525 6.49e-06 -2.04506e-19 -0.00112213 -1.29347e-19 0)
(3.82556e-05 3.43598e-06 1.35438e-21 -2.65533e-05 -2.08738e-23 0)
(0.00012405 0.000163724 1.70212e-20 -0.000299433 -1.02988e-19 0)
(0.000186103 -0.000118398 1.57413e-20 1.87683e-05 -1.52426e-21 0)
(0.000283722 -2.57801e-05 2.37886e-20 1.45908e-05 1.11753e-21 0)
(0.000345845 -1.7251e-05 -1.049e-20 -0.000140873 -9.78068e-21 0)
(0.000215116 -5.73654e-06 1.33296e-20 -4.5953e-06 -9.35491e-22 0)
(0.000174901 -0.000131836 0 -6.53179e-06 0 0)
(0.0005437 -5.9538e-05 -2.77778e-20 -0.000226617 -2.01541e-20 0)
(0.000428895 -1.14286e-05 2.65749e-20 -0.000181898 4.64211e-21 4.3007e-36)
(-3.01012e-06 9.51884e-05 3.2925e-20 -0.000325121 -2.09399e-20 0)
(0.00101026 -1.61995e-05 -4.0011e-20 -0.000438076 -1.90878e-20 -6.1371e-36)
(0.000118192 -7.7966e-05 0 -0.000280505 0 0)
(0.0011048 0.000350239 9.9331e-20 -0.000220056 1.05258e-19 0)
(0.000276975 -6.46007e-05 8.1372e-20 -0.000144611 -2.79324e-20 0)
(0.000132452 -5.79306e-05 2.48124e-20 -0.000304982 8.21551e-20 0)
(0.000448518 -0.000170388 -5.31179e-20 -0.000150881 -1.63277e-20 0)
(0.00065776 -0.000223916 -1.12804e-20 -0.000307406 3.00744e-21 0)
(0.000340695 -9.29695e-05 -1.10745e-20 -6.63627e-05 -3.86296e-21 0)
(0.000366067 -0.0001866 2.3407e-20 -9.21508e-05 -3.31499e-21 0)
(0.000552757 -0.000208921 1.02897e-20 -0.000211543 2.01012e-21 0)
(0.000213812 -0.000195688 4.99179e-20 -6.28048e-05 6.22336e-21 0)
(0.000455053 -0.000229161 1.56585e-20 -0.000194532 3.59002e-21 0)
(0.000277832 -3.82519e-05 -1.03062e-20 -1.03412e-05 -3.68133e-22 0)
(0.000268803 -4.3332e-05 3.11389e-20 -1.80493e-05 1.034e-21 0)
(0.000525005 -9.81154e-05 -9.30185e-20 -0.000227673 3.01416e-21 0)
(0.00113458 0.000212158 1.24184e-20 -0.000313896 3.20493e-20 0)
(0.000270143 -0.000113928 -5.27622e-20 -5.54428e-05 -2.97247e-21 0)
(2.44011e-05 -0.00015002 -2.06501e-20 -6.86403e-05 -9.26154e-21 0)
(0.000186853 4.91069e-05 6.29238e-20 -0.000359816 -1.17175e-19 0)
(0.00018017 -4.51115e-05 -5.02176e-20 -0.000187301 3.13816e-20 0)
(8.10238e-05 -0.000108919 -2.66862e-20 -5.16348e-05 2.16425e-21 0)
(0.000785371 -7.15125e-05 1.08522e-19 -0.00027661 3.03014e-20 0)
(0.000547866 -0.000204844 -1.20197e-20 -0.000267151 1.93463e-21 0)
(0.000274565 -0.000131299 4.68427e-20 -3.94105e-05 2.17037e-21 0)
(0.000282268 -9.62417e-05 3.30807e-20 -3.08084e-05 1.76465e-21 0)
(0.000391606 -1.10672e-05 3.2484e-20 -0.000156993 1.35518e-20 1.14129e-35)
(0.000605028 -0.000211972 -1.90217e-20 -0.000237097 -6.97626e-21 0)
(0.000238402 -4.86836e-06 -1.28254e-20 -9.30095e-06 -7.64134e-22 0)
(0.000311324 -8.62078e-05 -2.83803e-20 -0.00010753 -1.86412e-21 0)
(0.000110786 0.000200674 -2.76195e-20 -2.62834e-05 8.93005e-20 -9.57779e-36)
(0.000312453 -4.28564e-05 1.48665e-20 -0.000107339 3.2996e-21 0)
(0.000321848 -2.9355e-05 -2.18624e-20 -9.09085e-05 -8.32756e-21 0)
(0.00141364 3.11136e-05 -2.58729e-19 -0.00112202 -1.23167e-19 0)
(0.000250766 -0.000227331 -5.12672e-21 -0.000107023 -2.01254e-20 0)
(0.000343874 -8.6468e-05 1.52725e-21 -0.000120092 6.26249e-21 0)
(0.000318827 -0.000111648 -3.0001e-20 -8.98718e-05 -1.02019e-20 0)
(0.000133733 -0.000146838 -2.92118e-20 -0.000147964 -4.43531e-20 0)
(9.75126e-05 -0.000169689 4.33435e-20 -7.61604e-05 1.24961e-21 0)
(0.000706287 -0.000177828 1.26135e-20 -0.000312623 -2.66913e-21 0)
(0.000362769 -6.96333e-05 2.56777e-20 -0.000305958 -9.45076e-20 0)
(-0.000425104 -0.000197747 -6.20945e-20 -0.00149976 -3.39971e-20 4.85231e-35)
(0.000291867 -0.000155376 -3.24131e-20 -7.79241e-05 3.37154e-21 0)
(0.000182581 -2.63021e-05 -5.86916e-20 -0.000195763 -3.95538e-20 0)
(0.000723235 -0.00017412 1.33985e-21 -0.000417504 5.47449e-20 0)
(0.00017068 -8.40091e-05 7.86181e-20 -0.000279347 -4.29839e-20 0)
(-7.75561e-06 -7.8294e-05 -2.27825e-20 -0.000121795 9.9826e-21 0)
(0.000781254 -9.70272e-05 -1.1356e-19 -0.000340075 -4.61744e-20 0)
(0.000211272 -0.000141711 -5.64936e-20 -1.45969e-05 -4.43742e-22 0)
(0.000667538 -1.07509e-05 -1.01833e-20 -0.000256551 -9.27664e-21 4.46816e-36)
(0.000214602 -0.00012871 3.84854e-20 -1.68617e-05 8.88669e-22 0)
(0.000267093 -0.000148982 -2.77186e-20 -4.51676e-05 -5.77394e-21 0)
(0.000269036 -8.60347e-05 -5.83703e-21 -3.57214e-05 6.12827e-22 0)
(0.000632939 -0.000142839 0 -0.000269873 0 0)
(0.000206623 -2.26877e-05 1.8846e-20 -6.90046e-07 -5.67265e-23 0)
(0.000446101 -3.25943e-05 -5.31345e-20 -0.000189546 -3.39233e-21 0)
(0.000157158 -0.000210134 4.53561e-20 -0.000128872 7.60139e-21 0)
(0.000159439 -0.000207337 -3.28843e-20 -0.000117309 -2.39512e-21 0)
(0.000129067 2.1171e-05 4.38415e-20 -0.000282224 -2.54036e-20 0)
(0.000208526 -0.000193432 -1.10236e-20 -4.21653e-05 -4.25769e-22 0)
(0.000113114 3.58392e-06 1.14429e-21 -0.000313059 -2.13471e-21 0)
(0.000378586 -0.000236818 -1.13827e-19 -0.000126028 -2.65178e-20 0)
(0.000377705 -0.000262016 -3.80122e-20 -0.000167936 -1.08763e-20 0)
(0.000111273 -0.000105407 2.34168e-21 -0.000175502 1.62759e-20 0)
(0.000268472 -0.000233619 -3.32833e-20 -0.000115071 -5.53102e-21 0)
(0.00011447 -3.99049e-05 4.59548e-21 4.72956e-05 -5.28416e-21 0)
(0.000254191 -0.00012584 4.24978e-20 -3.43731e-05 -1.01648e-21 0)
(0.0010891 3.23936e-06 -2.13444e-19 -0.000438977 -5.18084e-20 2.89552e-35)
(0.000371822 -7.49479e-05 6.1711e-21 -0.00011985 -4.12516e-21 0)
(0.000207761 -9.78228e-05 -1.78902e-20 3.11168e-06 7.41731e-22 0)
(0.00399426 -0.00022904 3.00423e-19 -0.00270186 3.56505e-20 0)
(0.00071168 -5.52072e-06 -5.02368e-20 -0.000315614 -6.40853e-21 1.5138e-36)
(-2.47298e-05 -3.28943e-06 9.33779e-21 -0.000214844 1.73275e-20 0)
(0.000319859 -0.00012452 4.23968e-20 -6.74245e-05 7.37726e-21 0)
(0.000601674 -5.3424e-05 2.50894e-21 -0.000265212 -1.26762e-20 0)
(0.00113735 4.0772e-05 -1.00554e-19 -0.000488139 -6.3097e-20 0)
(0.000276242 -0.000135683 7.67996e-20 -7.05768e-05 -2.49369e-21 0)
(0.000264813 -9.54798e-06 -6.48272e-21 2.52652e-05 1.85558e-21 0)
(0.000347743 -4.42802e-06 1.10165e-20 -0.000147027 -2.50575e-21 0)
(0.000128072 -2.72328e-06 2.14428e-21 2.69459e-05 -1.90082e-21 0)
(0.000226672 -0.000214708 8.46339e-20 -8.26412e-05 1.54392e-20 0)
(0.000560703 -0.000171205 -4.17033e-20 -0.000216576 -3.99356e-21 0)
(0.000573599 -8.54029e-06 -2.22027e-22 -0.000256686 -8.18987e-21 3.5247e-36)
(0.000928773 1.5459e-05 -6.73447e-21 -0.000522785 3.44334e-20 -5.70189e-36)
(9.1015e-06 -6.20191e-05 0 -0.000293936 0 0)
(0.000902078 0.000215697 -1.67402e-19 -0.000433122 -2.16201e-19 0)
(0.000338107 -0.000198086 2.13005e-20 -7.00532e-05 -6.5918e-21 0)
(0.000277699 -1.76912e-05 4.63849e-21 2.69535e-05 -4.03551e-22 0)
(-1.57188e-05 -6.47402e-05 9.29824e-21 -8.57103e-05 5.64555e-21 0)
(0.000271376 2.34887e-07 4.94616e-21 2.54438e-05 -2.31664e-21 0)
(0.000295924 -3.51905e-06 1.36363e-20 -1.73512e-05 1.06718e-20 -5.50472e-36)
(0.000325184 -2.56278e-06 -9.66631e-21 -0.000109871 -1.12551e-20 -3.90658e-36)
(0.000396813 -0.000188114 2.73769e-20 -0.000181485 4.3702e-21 0)
(-9.36259e-05 0.000116849 0 -0.000127631 0 0)
(0.000347549 -6.11284e-06 7.06244e-21 -0.000155157 7.5428e-21 0)
(0.000205614 -0.000117515 3.16143e-20 -1.25251e-05 1.95836e-21 0)
(0.00115013 2.6892e-05 -1.42737e-19 -0.000406526 -9.52645e-20 0)
(4.94699e-05 -7.11038e-05 -5.90152e-21 -0.00014453 -6.40548e-21 0)
(0.000350816 -4.08092e-06 0 -0.000151265 0 0)
(0.00016459 -0.000163709 7.22865e-21 -3.63076e-06 -5.57317e-21 0)
(0.000263835 -0.000242374 6.33041e-22 -7.98855e-05 -2.08095e-22 0)
(0.000772643 0.000439215 -1.23296e-19 -0.000342754 -1.87522e-19 0)
(0.000290187 -4.13668e-05 1.44836e-20 -1.77324e-06 1.03725e-21 0)
(5.77101e-05 0.000199758 -7.0468e-20 -0.000537006 -1.15016e-19 0)
(8.41661e-05 0.000256452 3.31164e-20 -0.0003127 -1.73006e-19 -4.43477e-35)
(0.00012617 1.50686e-05 0 -0.000313834 0 0)
(0.000354018 -6.36244e-05 1.18156e-20 -0.000106428 -3.79535e-22 0)
(0.000810509 -0.00108648 2.81702e-19 -0.00123089 1.73808e-20 0)
(0.000112792 5.29278e-05 -6.09798e-21 -0.000402855 1.17071e-21 0)
(0.000276451 -0.000257353 3.53148e-20 -0.000139651 -7.20926e-22 0)
(0.000374383 -0.000245683 9.25923e-20 -0.000480139 -6.28278e-20 0)
(0.000617118 4.48425e-05 7.7934e-20 -0.000302538 -6.14681e-20 -3.25481e-35)
(0.000292 -6.39126e-05 -7.53661e-21 -3.5648e-05 -1.31376e-21 0)
(0.000282989 -0.000111352 -1.18201e-20 -6.47154e-05 1.17506e-21 0)
(0.00509272 -0.00179815 -9.09391e-20 -0.00202972 -1.28887e-19 0)
(0.00109248 0.00026009 1.15645e-19 -0.000495716 8.27507e-20 0)
(0.00103579 0.000485916 3.3242e-20 -0.000461492 8.83079e-21 0)
(0.000608791 -4.45562e-05 5.73738e-20 -0.000259182 -1.78106e-20 0)
(0.000232894 -0.000113791 2.19584e-20 -2.60167e-05 -4.68712e-23 0)
(0.000459314 -0.00014587 -1.28601e-19 -0.000150557 -1.19454e-19 0)
(0.000243182 -2.71254e-05 1.02164e-20 4.49397e-06 -5.82464e-22 0)
(0.000409278 -2.77813e-05 3.5546e-20 -0.00017834 -2.03469e-21 0)
(0.00070909 -0.000215815 1.20805e-19 -0.000868232 4.2032e-20 0)
(0.000334625 -8.07791e-05 1.98879e-21 -0.000129648 6.39193e-21 0)
(0.000229225 -0.00011205 1.69568e-20 -2.17644e-05 1.75139e-21 0)
(0.000271453 6.79882e-06 1.95439e-20 1.81658e-05 2.59597e-21 0)
(0.000355737 1.42537e-06 1.05042e-20 -0.000145045 3.39297e-21 1.85746e-36)
(0.000793506 -0.000170366 -7.61489e-20 -0.000316974 -4.03967e-20 0)
(0.000500691 -0.000119933 4.97813e-20 -0.000187156 6.68339e-21 0)
(0.000805094 -0.000126359 2.79177e-20 -0.000351834 1.19798e-20 0)
(0.00464166 -0.000359881 2.60441e-20 -0.00325828 3.61324e-19 0)
(0.000407333 -0.000134436 2.04267e-20 -0.00012454 -2.69837e-21 0)
(8.34866e-05 -0.000102242 7.89774e-21 -0.000126814 4.10676e-21 0)
(0.000552739 -0.000144087 6.80328e-20 -0.000440939 -4.43713e-20 0)
(0.00099288 0.000236906 9.70566e-20 -0.000246634 1.24516e-19 0)
(0.000578855 -8.45485e-05 -5.24019e-20 -0.00028094 1.95116e-20 0)
(0.000371826 -7.58967e-05 -2.63616e-20 -0.000179566 -4.52511e-21 0)
(0.000266442 6.85188e-06 -1.80661e-20 3.0891e-05 1.13798e-21 0)
(0.00026964 -2.97271e-06 6.06045e-21 2.6642e-05 2.98869e-21 -1.26159e-36)
(0.000348397 -6.25076e-07 2.86627e-20 -0.000149076 8.95225e-21 7.15855e-36)
(0.000348414 4.56001e-07 2.9194e-20 -0.000142058 2.54192e-20 -1.8311e-35)
(0.000193662 -5.91172e-07 1.98677e-20 8.09995e-06 -2.99076e-22 0)
(0.000482188 -2.32675e-06 -7.67779e-21 -0.000186378 -4.39916e-21 2.08262e-36)
(0.000305588 0.000136152 4.37798e-20 -0.000217848 -8.83057e-20 0)
(0.000165736 8.09203e-05 -7.71449e-20 4.7752e-05 -4.37388e-20 0)
(0.000285077 -6.41293e-05 -3.48785e-20 -4.38569e-05 -7.34899e-21 0)
(6.14141e-05 -0.000117067 -1.22823e-21 -0.000108412 1.64256e-20 0)
(0.00109111 0.000213918 4.40208e-20 -0.000513708 1.61669e-19 0)
(4.13494e-05 -9.53926e-05 2.74423e-22 -1.35293e-05 1.31723e-20 0)
(0.000284582 -0.000241638 3.85987e-20 -0.000134733 1.72284e-20 0)
(-4.016e-06 -6.44386e-05 9.45513e-21 -2.52833e-05 1.33277e-20 0)
(0.000440877 -0.000146591 3.38687e-20 -0.000172938 6.21549e-21 0)
(0.000297359 -7.36285e-05 -6.68565e-21 -2.95855e-05 -6.76049e-22 0)
(0.000396396 -0.000136391 -7.87583e-20 -0.000159854 -1.84816e-20 0)
(0.00562685 -0.000966019 -9.42492e-20 -0.00204933 -1.26222e-19 0)
(0.00181131 0.000385653 1.76779e-19 -0.000675545 1.15036e-19 0)
(0.000252414 -0.000125795 -5.81015e-20 -0.000239518 1.26051e-20 0)
(0.000627912 -0.00019735 -1.23226e-19 -0.00027592 -7.18218e-20 0)
(0.000623903 0.000281354 -1.65484e-21 -0.000431693 -1.0133e-19 0)
(0.000738502 -0.000135451 -1.27178e-20 -0.000328051 7.12379e-20 0)
(0.000429536 -0.000191528 4.38556e-20 -0.000206071 4.48638e-20 0)
(0.000483181 -0.000240972 -2.60558e-20 -0.000204583 -9.27824e-21 0)
(0.0005013 -0.0002168 -9.94143e-20 -0.000186393 -2.61048e-20 0)
(0.000124809 4.26812e-06 1.78487e-20 -0.000392241 3.23272e-20 0)
(0.000139817 -9.24106e-06 9.92037e-21 -0.00028672 1.50889e-20 0)
(0.000268674 -1.74364e-05 1.83277e-20 -3.26049e-06 -7.61393e-22 0)
(0.000351327 -1.18529e-05 -2.30877e-20 -0.000164316 -8.00003e-21 0)
(0.000337418 -6.45672e-05 -1.46087e-20 -9.66789e-05 -1.32977e-21 0)
(0.000431822 -0.000261012 1.62671e-19 -0.000210741 5.76278e-20 0)
(0.000315513 -9.92903e-05 -2.09145e-19 -0.000281814 -5.82853e-20 0)