/*--------------------------------*- C++ -*----------------------------------*\
| =========                 |                                                 |
| \\      /  F ield         | OpenFOAM: The Open Source CFD Toolbox           |
|  \\    /   O peration     | Version:  v2012                                 |
|   \\  /    A nd           | Website:  www.openfoam.com                      |
|    \\/     M anipulation  |                                                 |
\*---------------------------------------------------------------------------*/
FoamFile
{
    version     2.0;
    format      ascii;
    class       pointVectorField;
    location    "18";
    object      pointD;
}
// * * * * * * * * * * * * * * * * * * * * * * * * * * * * * * * * * * * * * //

dimensions      [0 1 0 0 0 0 0];


internalField   nonuniform List<vector> 
530
(
(0.00124356 0 -7.14165e-22)
(0.00145147 0 -2.23063e-22)
(0.00132722 -5.3918e-05 -1.53123e-21)
(0 -0.00113179 -3.51016e-21)
(0 -0.000318688 -5.05828e-20)
(0.00124356 0 -7.14165e-22)
(0.00145147 0 -2.23063e-22)
(0.00132722 -5.3918e-05 -1.53123e-21)
(0 -0.00113179 -3.51016e-21)
(0 -0.000318688 -5.05828e-20)
(0.00126089 0 0)
(0.00126676 0 0)
(0.00126616 0 0)
(0.00126613 0 0)
(0.00126949 0 0)
(0.00127607 0 0)
(0.00128555 0 0)
(0.00129744 0 0)
(0.00131292 0 0)
(0.00133153 0 0)
(0.0013526 0 0)
(0.00137841 0 0)
(0.00140479 0 0)
(0.00143102 0 0)
(0.00145546 5.24721e-06 6.77967e-23)
(0.00144882 1.00442e-05 8.814e-22)
(0.00143789 1.23274e-05 -2.20523e-22)
(0.00142344 1.13946e-05 -1.27768e-21)
(0.0014062 8.01648e-06 2.34724e-22)
(0.00138821 -1.19424e-07 1.25441e-21)
(0.00137194 -1.07273e-05 -2.26746e-22)
(0.00135774 -2.40898e-05 -1.54691e-21)
(0.00134526 -3.96633e-05 -1.85758e-21)
(0.0012977 -6.60541e-05 -6.4419e-22)
(0.00126584 -7.48566e-05 -3.41399e-24)
(0.00122961 -8.17227e-05 -5.66166e-22)
(0.00118819 -8.68208e-05 -1.1895e-21)
(0.00114682 -8.94086e-05 -1.74593e-22)
(0.00110181 -9.14162e-05 2.48711e-22)
(0.00105022 -9.42512e-05 4.62436e-22)
(0.000986137 -0.000100272 9.4764e-22)
(0.000919888 -0.000110662 8.91632e-22)
(0.000837789 -0.000130338 2.02426e-21)
(0.000745332 -0.000161987 1.61783e-21)
(0.000673964 -0.00019165 0)
(0.0005721 -0.000243681 1.15807e-21)
(0.000441999 -0.000326473 -5.26117e-21)
(0.000323949 -0.00042422 -3.77119e-21)
(0.00019161 -0.000567509 8.95967e-22)
(6.8935e-05 -0.000743447 -2.38125e-21)
(-1.73163e-06 -0.000919668 2.58704e-21)
(-3.06906e-05 -0.00106442 -2.93958e-22)
(0 -0.00113329 0)
(0 -0.00110026 0)
(0 -0.00100485 0)
(0 -0.000789514 0)
(0.000677532 -0.000295545 -5.52101e-20)
(0.000978142 -0.000581892 -4.87687e-21)
(0.00102173 -0.000517655 1.60589e-22)
(0.00109999 -0.000409755 1.98024e-21)
(0.0011555 -0.000287543 -1.1426e-21)
(0.00119736 -0.000179693 -2.12002e-21)
(0.00122392 -9.42179e-05 1.31584e-22)
(0.00126089 0 0)
(0.00126676 0 0)
(0.00126616 0 0)
(0.00126613 0 0)
(0.00126949 0 0)
(0.00127607 0 0)
(0.00128555 0 0)
(0.00129744 0 0)
(0.00131292 0 0)
(0.00133153 0 0)
(0.0013526 0 0)
(0.00137841 0 0)
(0.00140479 0 0)
(0.00143102 0 0)
(0.00145546 5.24721e-06 6.77967e-23)
(0.00144882 1.00442e-05 8.814e-22)
(0.00143789 1.23274e-05 -2.20523e-22)
(0.00142344 1.13946e-05 -1.27768e-21)
(0.0014062 8.01648e-06 2.34724e-22)
(0.00138821 -1.19424e-07 1.25441e-21)
(0.00137194 -1.07273e-05 -2.26746e-22)
(0.00135774 -2.40898e-05 -1.54691e-21)
(0.00134526 -3.96633e-05 -1.85758e-21)
(0.0012977 -6.60541e-05 -6.4419e-22)
(0.00126584 -7.48566e-05 -3.41399e-24)
(0.00122961 -8.17227e-05 -5.66166e-22)
(0.00118819 -8.68208e-05 -1.1895e-21)
(0.00114682 -8.94086e-05 -1.74593e-22)
(0.00110181 -9.14162e-05 2.48711e-22)
(0.00105022 -9.42512e-05 4.62436e-22)
(0.000986137 -0.000100272 9.4764e-22)
(0.000919888 -0.000110662 8.91632e-22)
(0.000837789 -0.000130338 2.02426e-21)
(0.000745332 -0.000161987 1.61783e-21)
(0.000673964 -0.00019165 0)
(0.0005721 -0.000243681 1.15807e-21)
(0.000441999 -0.000326473 -5.26117e-21)
(0.000323949 -0.00042422 -3.77119e-21)
(0.00019161 -0.000567509 8.95967e-22)
(6.8935e-05 -0.000743447 -2.38125e-21)
(-1.73163e-06 -0.000919668 2.58704e-21)
(-3.06906e-05 -0.00106442 -2.93958e-22)
(0 -0.00113329 0)
(0 -0.00110026 0)
(0 -0.00100485 0)
(0 -0.000789514 0)
(0.000677532 -0.000295545 -5.52101e-20)
(0.000978142 -0.000581892 -4.87687e-21)
(0.00102173 -0.000517655 1.60589e-22)
(0.00109999 -0.000409755 1.98024e-21)
(0.0011555 -0.000287543 -1.1426e-21)
(0.00119736 -0.000179693 -2.12002e-21)
(0.00122392 -9.42179e-05 1.31584e-22)
(0.00105286 -3.46909e-05 0)
(0.00123379 -1.19981e-05 0)
(0.000774051 -0.000229684 0)
(0.00106648 -2.66363e-05 0)
(0.00120995 3.82762e-06 0)
(0.00127065 -3.57748e-05 0)
(0.00134936 -5.7518e-06 0)
(0.000502869 -0.000599692 0)
(0.00118303 -4.45247e-05 0)
(0.000837993 -0.000106923 0)
(0.00128406 6.25576e-08 0)
(0.00113992 -4.26732e-05 0)
(0.00122581 -5.06765e-07 0)
(0.0010451 -0.000148312 0)
(0.00133829 -1.43914e-05 0)
(0.000923879 -6.47001e-05 0)
(0.00116895 -8.04675e-06 0)
(0.00111701 -8.16175e-06 0)
(0.000510036 -0.000401793 0)
(0.000799857 -0.000416794 0)
(0.00133414 -1.43127e-06 0)
(0.00119126 -5.88688e-05 0)
(0.00140749 2.74662e-07 0)
(0.00128886 -4.93822e-05 0)
(0.00094519 -0.000106468 0)
(0.00064313 -0.00022717 0)
(0.0010401 -5.8776e-05 0)
(0.00127286 3.52922e-06 0)
(0.00127865 -2.00503e-05 0)
(0.00129523 -6.03885e-06 0)
(0.000165878 -0.000938622 0)
(0.00100598 -3.51591e-05 0)
(0.00138532 -2.98057e-06 0)
(0.00132869 -2.39855e-05 0)
(0.00121043 -3.33317e-05 0)
(0.000535016 -0.000773702 0)
(0.00115432 -6.28796e-06 0)
(0.00125976 2.84515e-06 0)
(0.00124066 -1.15615e-05 0)
(0.00123714 -4.23219e-05 0)
(0.00108884 -5.918e-05 0)
(0.00115548 -0.000120632 0)
(0.00114399 -2.17597e-05 0)
(0.00123948 1.16048e-06 0)
(0.000798278 -0.000117733 0)
(0.000303182 -0.000644857 0)
(0.000969787 -6.83837e-05 0)
(0.00136946 -1.6662e-06 0)
(0.0012431 -6.13972e-05 0)
(0.000991031 -0.000280463 0)
(0.00131388 6.58744e-07 0)
(0.00114365 -6.3499e-05 0)
(0.00117675 -1.77038e-05 0)
(0.000820582 -0.000149788 0)
(0.000966298 -6.43506e-05 0)
(0.0006295 -0.000428198 0)
(0.000670952 -0.00018488 0)
(0.00075095 -0.00056054 0)
(0.00133127 -1.10442e-05 0)
(0.00118783 -2.3774e-05 0)
(0.00125376 -4.91261e-06 0)
(0.00125704 5.24568e-07 0)
(0.00120762 1.79708e-06 0)
(0.000884876 -0.000224051 0)
(0.00138386 -3.04798e-06 0)
(0.000497857 -0.000328155 0)
(0.000902914 -7.13279e-05 0)
(0.000194155 -0.000986321 0)
(0.00108805 -7.05725e-05 0)
(0.00130052 1.05827e-06 0)
(0.00111726 -1.19291e-05 0)
(0.000998381 -4.03113e-05 0)
(0.00116619 -1.9953e-06 0)
(0.0010884 -0.000201736 0)
(0.00129812 -2.40057e-05 0)
(0.0013319 -2.88648e-05 0)
(0.00141578 2.70522e-06 0)
(0.000642714 -0.000275255 0)
(0.000860282 -9.60709e-05 0)
(0.00111896 -8.62436e-05 0)
(0.00127535 -1.27118e-05 0)
(0.00142929 1.63498e-06 0)
(0.00131162 -4.95604e-05 0)
(0.00118602 -1.31646e-05 0)
(0.0013609 -1.10555e-05 0)
(0.00125191 -1.73236e-05 0)
(0.0011665 -4.62898e-07 0)
(0.00101992 -4.5194e-05 0)
(0.00108512 -3.49401e-05 0)
(0.00127432 2.70056e-06 0)
(0.00124712 3.86053e-06 0)
(0.00130493 -2.20254e-06 0)
(0.00126368 1.84668e-06 0)
(0.00132628 -4.50757e-06 0)
(0.00106918 -2.07211e-05 0)
(0.0010621 -2.08007e-05 0)
(0.0012392 -2.16187e-05 0)
(0.00129561 -3.64723e-05 0)
(0.00138183 -2.86567e-06 0)
(0.000342133 -0.000526096 0)
(0.000166159 -0.000804376 0)
(0.000967271 -0.000383663 0)
(0.00122701 -4.39367e-05 0)
(0.00133625 -1.95153e-08 0)
(0.00103303 -9.84897e-05 0)
(0.00116834 -7.50345e-05 0)
(0.000563814 -0.000253828 0)
(0.00117231 -4.66528e-05 0)
(0.00112092 -2.62681e-05 0)
(0.00139477 -4.2634e-07 0)
(0.00126343 -6.4621e-05 0)
(0.00122279 -4.26549e-06 0)
(0.00125455 -2.9995e-05 0)
(0.000655445 -0.000512231 0)
(0.000447845 -0.000541571 0)
(0.00088209 -0.000167053 0)
(4.94673e-05 -0.00106808 0)
(0.000995468 -7.67128e-05 0)
(0.000780637 -0.000308746 0)
(0.00121156 -9.62988e-05 0)
(0.00135896 -8.5453e-06 0)
(0.00103046 -6.13219e-05 0)
(0.00131293 -8.94704e-06 0)
(0.000848707 -0.000653634 0)
(0.000356021 -0.000783023 0)
(0.000743961 -0.000161616 0)
(0.00109801 -4.88192e-05 0)
(0.00135313 -3.25844e-06 0)
(0.00125795 -4.7828e-05 0)
(0.000474357 -0.000721241 0)
(0.00126552 1.71243e-06 0)
(0.00120077 -2.23973e-05 0)
(0.00125947 -3.2579e-06 0)
(0.00124559 -4.18053e-05 0)
(0.00119637 -6.51515e-05 0)
(0.000907391 -9.24267e-05 0)
(0.00100816 -4.01191e-05 0)
(0.00128802 2.05655e-06 0)
(0.00122328 -3.13883e-05 0)
(0.00057075 -0.000619586 0)
(0.00112188 -1.80487e-05 0)
(0.00141003 3.48485e-06 0)
(0.00135627 -1.54683e-05 0)
(0.00120746 -7.14742e-05 0)
(0.00115004 -3.83473e-05 0)
(0.0013564 -7.94034e-07 0)
(0.000263271 -0.000926037 0)
(0.00132579 -2.10064e-05 0)
(8.29614e-05 -0.00106121 0)
(0.00116716 -0.000169772 0)
(0.00120903 6.54961e-07 0)
(0.000318563 -0.000728912 0)
(0.00128989 1.33502e-06 0)
(0.00124382 3.15216e-06 0)
(0.000966428 -5.59689e-05 0)
(0.00118588 -7.07419e-06 0)
(0.000893156 -9.68477e-05 0)
(0.00124173 4.1951e-06 0)
(0.000676826 -0.000316006 0)
(0.00110621 -1.6431e-05 0)
(0.000719067 -0.000158452 0)
(0.00124231 -3.69629e-06 0)
(0.00113493 -3.37246e-05 0)
(0.00125681 -1.99585e-05 0)
(0.00072277 -0.000204138 0)
(0.000770788 -0.000130335 0)
(0.00130286 -2.86887e-05 0)
(0.00132657 -3.84367e-05 0)
(0.00143124 3.56328e-06 0)
(0.000903481 -0.000525775 0)
(0.00130853 -1.7367e-05 0)
(0.00137792 -2.14927e-06 0)
(0.000943834 -5.4274e-05 0)
(0.00103091 -7.81618e-05 0)
(0.000898893 -0.000297679 0)
(0.00117016 -3.53462e-05 0)
(0.000861063 -8.78506e-05 0)
(0.00127874 -3.12203e-06 0)
(0.0012251 -5.62984e-05 0)
(0.00125919 -9.22295e-07 0)
(0.00126791 -7.62097e-06 0)
(0.00112596 -7.54864e-06 0)
(0.000966855 -0.000155851 0)
(0.000922541 -7.36989e-05 0)
(0.000218816 -0.000646281 0)
(0.0010636 -0.000299997 0)
(0.00110333 -0.00013482 0)
(0.00121312 -8.6531e-06 0)
(7.27111e-05 -0.00097362 0)
(0.000372835 -0.000437266 0)
(0.00130514 -4.68511e-08 0)
(0.00132016 3.20058e-07 0)
(0.00126009 -6.32647e-06 0)
(0.000791212 -0.000130013 0)
(0.000909536 -7.59257e-05 0)
(0.001129 -7.84369e-05 0)
(0.00115636 -1.44173e-05 0)
(0.00130053 -1.39741e-05 0)
(0.0011258 -5.38431e-05 0)
(0.000978657 -0.000215756 0)
(0.00141685 2.60109e-07 0)
(0.00128777 -6.13255e-05 0)
(0.000952822 -8.87632e-05 0)
(0.00136117 -6.65162e-06 0)
(0.00144042 1.35869e-06 0)
(0.00131719 -5.40757e-05 0)
(0.000955774 -5.4216e-05 0)
(0.00105286 -3.46909e-05 0)
(0.00123379 -1.19981e-05 0)
(0.000774051 -0.000229684 0)
(0.00106648 -2.66363e-05 0)
(0.00120995 3.82762e-06 0)
(0.00127065 -3.57748e-05 0)
(0.00134936 -5.7518e-06 0)
(0.000502869 -0.000599692 0)
(0.00118303 -4.45247e-05 0)
(0.000837993 -0.000106923 0)
(0.00128406 6.25576e-08 0)
(0.00113992 -4.26732e-05 0)
(0.00122581 -5.06765e-07 0)
(0.0010451 -0.000148312 0)
(0.00133829 -1.43914e-05 0)
(0.000923879 -6.47001e-05 0)
(0.00116895 -8.04675e-06 0)
(0.00111701 -8.16175e-06 0)
(0.000510036 -0.000401793 0)
(0.000799857 -0.000416794 0)
(0.00133414 -1.43127e-06 0)
(0.00119126 -5.88688e-05 0)
(0.00140749 2.74662e-07 0)
(0.00128886 -4.93822e-05 0)
(0.00094519 -0.000106468 0)
(0.00064313 -0.00022717 0)
(0.0010401 -5.8776e-05 0)
(0.00127286 3.52922e-06 0)
(0.00127865 -2.00503e-05 0)
(0.00129523 -6.03885e-06 0)
(0.000165878 -0.000938622 0)
(0.00100598 -3.51591e-05 0)
(0.00138532 -2.98057e-06 0)
(0.00132869 -2.39855e-05 0)
(0.00121043 -3.33317e-05 0)
(0.000535016 -0.000773702 0)
(0.00115432 -6.28796e-06 0)
(0.00125976 2.84515e-06 0)
(0.00124066 -1.15615e-05 0)
(0.00123714 -4.23219e-05 0)
(0.00108884 -5.918e-05 0)
(0.00115548 -0.000120632 0)
(0.00114399 -2.17597e-05 0)
(0.00123948 1.16048e-06 0)
(0.000798278 -0.000117733 0)
(0.000303182 -0.000644857 0)
(0.000969787 -6.83837e-05 0)
(0.00136946 -1.6662e-06 0)
(0.0012431 -6.13972e-05 0)
(0.000991031 -0.000280463 0)
(0.00131388 6.58744e-07 0)
(0.00114365 -6.3499e-05 0)
(0.00117675 -1.77038e-05 0)
(0.000820582 -0.000149788 0)
(0.000966298 -6.43506e-05 0)
(0.0006295 -0.000428198 0)
(0.000670952 -0.00018488 0)
(0.00075095 -0.00056054 0)
(0.00133127 -1.10442e-05 0)
(0.00118783 -2.3774e-05 0)
(0.00125376 -4.91261e-06 0)
(0.00125704 5.24568e-07 0)
(0.00120762 1.79708e-06 0)
(0.000884876 -0.000224051 0)
(0.00138386 -3.04798e-06 0)
(0.000497857 -0.000328155 0)
(0.000902914 -7.13279e-05 0)
(0.000194155 -0.000986321 0)
(0.00108805 -7.05725e-05 0)
(0.00130052 1.05827e-06 0)
(0.00111726 -1.19291e-05 0)
(0.000998381 -4.03113e-05 0)
(0.00116619 -1.9953e-06 0)
(0.0010884 -0.000201736 0)
(0.00129812 -2.40057e-05 0)
(0.0013319 -2.88648e-05 0)
(0.00141578 2.70522e-06 0)
(0.000642714 -0.000275255 0)
(0.000860282 -9.60709e-05 0)
(0.00111896 -8.62436e-05 0)
(0.00127535 -1.27118e-05 0)
(0.00142929 1.63498e-06 0)
(0.00131162 -4.95604e-05 0)
(0.00118602 -1.31646e-05 0)
(0.0013609 -1.10555e-05 0)
(0.00125191 -1.73236e-05 0)
(0.0011665 -4.62898e-07 0)
(0.00101992 -4.5194e-05 0)
(0.00108512 -3.49401e-05 0)
(0.00127432 2.70056e-06 0)
(0.00124712 3.86053e-06 0)
(0.00130493 -2.20254e-06 0)
(0.00126368 1.84668e-06 0)
(0.00132628 -4.50757e-06 0)
(0.00106918 -2.07211e-05 0)
(0.0010621 -2.08007e-05 0)
(0.0012392 -2.16187e-05 0)
(0.00129561 -3.64723e-05 0)
(0.00138183 -2.86567e-06 0)
(0.000342133 -0.000526096 0)
(0.000166159 -0.000804376 0)
(0.000967271 -0.000383663 0)
(0.00122701 -4.39367e-05 0)
(0.00133625 -1.95153e-08 0)
(0.00103303 -9.84897e-05 0)
(0.00116834 -7.50345e-05 0)
(0.000563814 -0.000253828 0)
(0.00117231 -4.66528e-05 0)
(0.00112092 -2.62681e-05 0)
(0.00139477 -4.2634e-07 0)
(0.00126343 -6.4621e-05 0)
(0.00122279 -4.26549e-06 0)
(0.00125455 -2.9995e-05 0)
(0.000655445 -0.000512231 0)
(0.000447845 -0.000541571 0)
(0.00088209 -0.000167053 0)
(4.94673e-05 -0.00106808 0)
(0.000995468 -7.67128e-05 0)
(0.000780637 -0.000308746 0)
(0.00121156 -9.62988e-05 0)
(0.00135896 -8.5453e-06 0)
(0.00103046 -6.13219e-05 0)
(0.00131293 -8.94704e-06 0)
(0.000848707 -0.000653634 0)
(0.000356021 -0.000783023 0)
(0.000743961 -0.000161616 0)
(0.00109801 -4.88192e-05 0)
(0.00135313 -3.25844e-06 0)
(0.00125795 -4.7828e-05 0)
(0.000474357 -0.000721241 0)
(0.00126552 1.71243e-06 0)
(0.00120077 -2.23973e-05 0)
(0.00125947 -3.2579e-06 0)
(0.00124559 -4.18053e-05 0)
(0.00119637 -6.51515e-05 0)
(0.000907391 -9.24267e-05 0)
(0.00100816 -4.01191e-05 0)
(0.00128802 2.05655e-06 0)
(0.00122328 -3.13883e-05 0)
(0.00057075 -0.000619586 0)
(0.00112188 -1.80487e-05 0)
(0.00141003 3.48485e-06 0)
(0.00135627 -1.54683e-05 0)
(0.00120746 -7.14742e-05 0)
(0.00115004 -3.83473e-05 0)
(0.0013564 -7.94034e-07 0)
(0.000263271 -0.000926037 0)
(0.00132579 -2.10064e-05 0)
(8.29614e-05 -0.00106121 0)
(0.00116716 -0.000169772 0)
(0.00120903 6.54961e-07 0)
(0.000318563 -0.000728912 0)
(0.00128989 1.33502e-06 0)
(0.00124382 3.15216e-06 0)
(0.000966428 -5.59689e-05 0)
(0.00118588 -7.07419e-06 0)
(0.000893156 -9.68477e-05 0)
(0.00124173 4.1951e-06 0)
(0.000676826 -0.000316006 0)
(0.00110621 -1.6431e-05 0)
(0.000719067 -0.000158452 0)
(0.00124231 -3.69629e-06 0)
(0.00113493 -3.37246e-05 0)
(0.00125681 -1.99585e-05 0)
(0.00072277 -0.000204138 0)
(0.000770788 -0.000130335 0)
(0.00130286 -2.86887e-05 0)
(0.00132657 -3.84367e-05 0)
(0.00143124 3.56328e-06 0)
(0.000903481 -0.000525775 0)
(0.00130853 -1.7367e-05 0)
(0.00137792 -2.14927e-06 0)
(0.000943834 -5.4274e-05 0)
(0.00103091 -7.81618e-05 0)
(0.000898893 -0.000297679 0)
(0.00117016 -3.53462e-05 0)
(0.000861063 -8.78506e-05 0)
(0.00127874 -3.12203e-06 0)
(0.0012251 -5.62984e-05 0)
(0.00125919 -9.22295e-07 0)
(0.00126791 -7.62097e-06 0)
(0.00112596 -7.54864e-06 0)
(0.000966855 -0.000155851 0)
(0.000922541 -7.36989e-05 0)
(0.000218816 -0.000646281 0)
(0.0010636 -0.000299997 0)
(0.00110333 -0.00013482 0)
(0.00121312 -8.6531e-06 0)
(7.27111e-05 -0.00097362 0)
(0.000372835 -0.000437266 0)
(0.00130514 -4.68511e-08 0)
(0.00132016 3.20058e-07 0)
(0.00126009 -6.32647e-06 0)
(0.000791212 -0.000130013 0)
(0.000909536 -7.59257e-05 0)
(0.001129 -7.84369e-05 0)
(0.00115636 -1.44173e-05 0)
(0.00130053 -1.39741e-05 0)
(0.0011258 -5.38431e-05 0)
(0.000978657 -0.000215756 0)
(0.00141685 2.60109e-07 0)
(0.00128777 -6.13255e-05 0)
(0.000952822 -8.87632e-05 0)
(0.00136117 -6.65162e-06 0)
(0.00144042 1.35869e-06 0)
(0.00131719 -5.40757e-05 0)
(0.000955774 -5.4216e-05 0)
)
;

boundaryField
{
    back
    {
        type            empty;
    }
    front
    {
        type            empty;
    }
    down
    {
        type            symmetry;
    }
    right
    {
        type            calculated;
    }
    up
    {
        type            calculated;
    }
    left
    {
        type            symmetry;
    }
    hole
    {
        type            calculated;
    }
}


// ************************************************************************* //
