/*--------------------------------*- C++ -*----------------------------------*\
| =========                 |                                                 |
| \\      /  F ield         | OpenFOAM: The Open Source CFD Toolbox           |
|  \\    /   O peration     | Version:  v2012                                 |
|   \\  /    A nd           | Website:  www.openfoam.com                      |
|    \\/     M anipulation  |                                                 |
\*---------------------------------------------------------------------------*/
FoamFile
{
    version     2.0;
    format      ascii;
    class       volSymmTensorField;
    location    "18";
    object      sigma;
}
// * * * * * * * * * * * * * * * * * * * * * * * * * * * * * * * * * * * * * //

dimensions      [1 -1 -2 0 0 0 0];


internalField   nonuniform List<symmTensor> 
470
(
(7.89406e+06 -5.01712e+06 -1.24265e-09 2.5656e+06 5.34974e-11 1.38297e+06)
(8.41702e+06 -3.0722e+06 3.4737e-10 4.79946e+06 -1.01858e-10 4.25497e+06)
(3.34634e+07 -5.03999e+06 -4.27293e-10 702769 2.23491e-10 9.87563e+06)
(2.38753e+07 -1.05557e+06 -1.24518e-09 9.24623e+06 -7.97519e-11 1.04898e+07)
(1.27158e+07 -1.19906e+07 2.5855e-09 246003 3.96297e-10 4.33264e+06)
(2.9261e+07 -1.59479e+06 -3.904e-09 753241 -6.12964e-10 8.10441e+06)
(2.27335e+07 -9.61533e+06 9.79177e-10 5.88039e+06 1.04589e-11 7.40812e+06)
(1.11507e+07 -9.95407e+06 -2.48799e-09 -2.15261e+06 -5.38952e-11 2.90021e+06)
(5.09811e+07 -9.12378e+06 -7.40078e-10 -412244 -1.54471e-10 1.46644e+07)
(3.08574e+07 -8.79791e+06 -2.94672e-09 2.13969e+06 -4.0626e-10 1.07325e+07)
(4.50624e+07 -1.27606e+07 2.23136e-09 -348647 1.16679e-09 1.41995e+07)
(6.51254e+07 -4.92801e+06 -6.91311e-09 -6.59539e+06 -3.21164e-09 2.07247e+07)
(6.23731e+07 -3.48949e+06 -4.54581e-09 -1.00044e+06 -2.58412e-09 1.87853e+07)
(2.2323e+07 -2.86196e+06 9.19409e-10 8.7188e+06 1.2919e-10 9.9998e+06)
(7.30978e+07 -1.76428e+06 2.90861e-09 329982 1.65989e-09 1.97423e+07)
(4.24499e+07 -8.04603e+06 7.63393e-10 1.12702e+06 -1.01394e-09 1.26696e+07)
(3.08554e+07 -9.35373e+06 1.36887e-09 3.48965e+06 7.04788e-10 9.30025e+06)
(2.09417e+07 -3.14069e+06 -2.85629e-10 8.49662e+06 2.65988e-11 8.22549e+06)
(1.70594e+07 -1.54278e+06 -9.24744e-10 8.26503e+06 2.63208e-11 7.68521e+06)
(7.47927e+06 -5.28361e+06 -7.53065e-10 4.11748e+06 5.85433e-11 4.13203e+06)
(4.44603e+07 -7.06006e+06 2.08998e-09 247430 1.38876e-09 1.35755e+07)
(2.67023e+07 -2.95409e+06 2.8917e-10 5.98745e+06 1.25048e-10 1.01477e+07)
(3.29258e+07 -4.11968e+06 -1.10254e-09 381949 -4.25865e-10 1.03769e+07)
(2.38838e+07 -3.18509e+06 1.32164e-09 8.84432e+06 2.08762e-11 8.9463e+06)
(3.42695e+07 -1.03779e+07 -4.43864e-09 -5.30723e+06 -1.45337e-09 1.11822e+07)
(2.03117e+07 -1.01332e+07 7.39141e-10 5.28889e+06 -2.32072e-10 8.85842e+06)
(3.49799e+07 -1.11131e+07 -8.66515e-10 -7.62274e+06 -4.32447e-10 8.26076e+06)
(3.84775e+07 -2.85316e+06 3.43502e-09 -340761 1.239e-09 1.12717e+07)
(2.89915e+07 -2.50156e+06 1.43427e-09 960377 -3.92706e-10 8.92852e+06)
(2.38695e+07 -1.25084e+06 -4.88007e-10 8.61786e+06 -3.1519e-11 9.58228e+06)
(8.8997e+06 -3.37108e+06 -1.78151e-10 5.35115e+06 3.99964e-11 3.97991e+06)
(6.9986e+07 -1.39994e+06 0 775671 0 2.22559e+07)
(3.28118e+07 -8.82072e+06 -2.05078e-09 1.94577e+06 -5.80105e-10 1.0294e+07)
(561803 -1.09233e+07 1.36334e-09 -1.13881e+07 -3.4759e-09 1.21691e+07)
(2.93387e+07 -1.11715e+06 -2.53529e-09 -318201 -2.60177e-10 9.92924e+06)
(2.85237e+07 -1.95858e+06 1.63455e-10 824136 5.34462e-10 8.55147e+06)
(8.02428e+07 -4.37247e+06 4.24815e-10 -1.14108e+06 1.9258e-10 2.26059e+07)
(1.21788e+07 -5.33262e+06 -8.91009e-10 4.91941e+06 6.21866e-11 4.21142e+06)
(1.07788e+07 -4.95355e+06 -1.6897e-09 5.96396e+06 -8.52958e-10 7.52218e+06)
(4.74996e+06 -5.93497e+06 8.50165e-10 2.06271e+06 2.08609e-10 3.52254e+06)
(2.65428e+07 -1.38278e+07 -1.70203e-09 -3.11294e+06 3.902e-10 7.70303e+06)
(1.6008e+07 -572651 -6.40744e-10 7.99957e+06 -1.55278e-10 6.75409e+06)
(7.45601e+07 3.16129e+06 6.7988e-09 -1.06597e+07 6.4553e-09 1.45473e+07)
(2.73329e+07 -1.29045e+07 1.97957e-09 -2.58165e+06 1.10794e-09 6.38069e+06)
(3.95173e+07 -378703 0 476288 0 1.22563e+07)
(7.1073e+07 3.02703e+06 1.09614e-08 -9.89197e+06 1.36606e-08 2.10481e+07)
(1.45673e+07 -9.57406e+06 -2.88881e-09 5.29124e+06 -1.98605e-10 4.93755e+06)
(3.3509e+07 -1.11126e+07 3.68821e-10 -1.64924e+06 1.20981e-09 8.88611e+06)
(3.40885e+07 -1.21608e+07 -2.88039e-09 -3.60454e+06 -1.51483e-09 7.65924e+06)
(4.10378e+07 -1.36259e+07 4.43327e-09 -2.73759e+06 1.78683e-09 1.27327e+07)
(8.10414e+07 -1.63107e+06 1.13192e-08 1.43004e+06 3.06698e-09 2.4234e+07)
(1.31532e+07 -3.26097e+06 0 -5.72258e+06 0 -1.09628e+07)
(1.98129e+07 -4.02741e+06 5.50597e-10 7.8952e+06 -4.06233e-11 9.10522e+06)
(1.82899e+07 -2.34155e+06 -2.06179e-09 8.38302e+06 2.9e-10 7.18672e+06)
(2.63265e+07 -3.05499e+06 0 7.42542e+06 0 1.07121e+07)
(2.64741e+07 -3.77621e+06 8.15767e-10 7.04831e+06 1.17693e-10 9.83729e+06)
(2.82366e+07 1.42992e+06 -2.08988e-09 7.02388e+06 -8.02153e-10 2.23513e+07)
(3.99075e+07 5.58017e+06 2.11176e-09 -1.22222e+06 2.31268e-09 1.09172e+07)
(2.9029e+07 -1.28718e+07 4.03107e-10 1.9027e+06 9.70661e-11 9.37338e+06)
(3.60419e+07 -3.65376e+06 1.16499e-10 -317744 1.97202e-11 1.19084e+07)
(2.39858e+07 -9.14253e+06 2.30707e-09 5.20457e+06 1.9613e-10 8.96383e+06)
(4.63961e+07 -9.68444e+06 4.19523e-09 -4.95183e+06 2.69044e-09 9.85761e+06)
(5.89488e+07 -8.99711e+06 1.0826e-08 -441391 4.39447e-09 1.90491e+07)
(5.8139e+07 -5.76112e+06 -5.87122e-09 -1.32676e+07 -4.96944e-09 9.03855e+06)
(-2.5518e+06 8.82312e+06 -2.55191e-09 -1.65547e+07 9.16888e-09 -3.17965e+06)
(7.92456e+07 2.25053e+06 -4.30227e-09 3.61352e+06 -1.10432e-08 5.37348e+07)
(1.11426e+07 -7.49289e+06 2.31662e-09 3.88626e+06 4.87548e-11 5.03176e+06)
(2.70959e+07 -3.77152e+06 -2.25364e-11 5.27944e+06 1.17301e-10 9.44464e+06)
(3.10105e+06 -4.7736e+06 -1.58687e-10 -1.44605e+07 2.42479e-09 -3.32845e+06)
(3.69469e+07 -1.15651e+07 -2.52322e-09 1.0826e+06 -7.8789e-10 1.21929e+07)
(2.51614e+06 -1.22266e+06 -1.31995e-10 671267 2.94141e-10 1.31869e+06)
(2.85026e+07 -1.02827e+07 -1.38209e-09 3.0129e+06 -1.81082e-10 1.03808e+07)
(3.38066e+07 -1.18408e+07 9.26816e-09 -1.35316e+07 9.35592e-09 7.20707e+06)
(2.50087e+07 -1.27627e+07 0 3.15902e+06 0 8.06059e+06)
(4.60109e+07 -2.92429e+06 -3.52203e-09 -1.76321e+07 2.37882e-09 1.26979e+07)
(2.66076e+07 -472011 2.28597e-10 7.94745e+06 5.64124e-10 1.03488e+07)
(2.91294e+07 -8.19941e+06 -3.39373e-10 3.36545e+06 -5.2183e-10 9.48606e+06)
(2.73636e+07 -8.68378e+06 -3.65774e-10 3.84319e+06 -3.50068e-10 9.85691e+06)
(2.74539e+07 -1.35455e+07 2.46943e-09 1.62759e+06 5.31357e-10 8.1015e+06)
(1.33724e+08 -1.16602e+07 1.4515e-09 3.76758e+07 1.04739e-10 4.24161e+07)
(2.67961e+07 -1.3892e+07 -2.00211e-09 369011 -8.70627e-10 8.36e+06)
(7.14116e+07 -1.55407e+07 8.13619e-10 -2.02482e+06 -3.15154e-09 2.48106e+07)
(3.3635e+07 -5.92899e+06 -1.39763e-09 855672 1.24991e-09 1.10127e+07)
(1.75501e+06 -4.27501e+06 -2.42697e-09 -1.72814e+07 -1.6742e-09 -5.22728e+06)
(4.69044e+07 -1.02716e+07 1.56576e-09 -1.53041e+06 5.11957e-10 1.32057e+07)
(2.69091e+07 -2.06269e+06 1.1336e-10 6.65573e+06 3.21867e-11 9.75257e+06)
(5.30912e+07 -2.16743e+06 -1.3142e-08 -1.1964e+07 -1.14904e-08 1.79421e+07)
(-9.35395e+06 5.90752e+06 -3.8023e-09 -9.87717e+06 3.20962e-09 -3.2268e+06)
(6.95823e+07 6.62208e+06 4.68652e-09 -1.31194e+07 4.26281e-10 1.67378e+07)
(3.54169e+07 -5.48274e+06 7.17895e-09 -1.34665e+07 8.41418e-10 5.5021e+06)
(5.98295e+07 -2.13631e+06 -9.09553e-09 -2.13103e+07 -4.28077e-09 1.39381e+07)
(6.92596e+07 -7.01287e+06 -1.35019e-08 277110 -8.33231e-09 2.13637e+07)
(2.4436e+07 -1.14172e+07 -7.35178e-10 3.84204e+06 4.73447e-11 9.04252e+06)
(2.7809e+07 -9.28418e+06 -3.60151e-09 3.70346e+06 -1.47719e-10 9.18048e+06)
(6.8837e+07 -3.89032e+06 7.7559e-09 -305173 3.69072e-09 1.93552e+07)
(7.3219e+07 -5.04457e+06 -2.91123e-09 -121637 -7.78379e-10 2.30291e+07)
(1.51972e+07 -1.00335e+07 -2.32472e-09 4.24747e+06 -1.12588e-10 6.66707e+06)
(2.50628e+07 -9.79681e+06 1.50451e-09 5.23336e+06 1.8948e-10 8.63374e+06)
(1.79754e+07 -1.25579e+07 8.07749e-11 -51946.3 -6.84128e-10 4.39588e+06)
(3.06693e+07 -3.53298e+06 3.22716e-09 717212 1.18507e-09 9.66495e+06)
(2.54284e+07 -4.55915e+06 3.9534e-10 7.34587e+06 -2.25381e-10 1.00039e+07)
(4.05675e+07 -1.13206e+07 -3.47465e-09 -2.17117e+06 -1.25507e-09 1.18348e+07)
(3.76738e+07 -1.48462e+07 0 -1.26022e+07 0 -6.51676e+06)
(2.62319e+07 -2.52834e+06 1.08277e-09 9.74016e+06 1.78017e-10 1.04953e+07)
(2.5919e+07 -2.65109e+06 -9.53252e-10 9.81264e+06 -1.03272e-10 1.15032e+07)
(2.78599e+07 -1.88531e+06 -6.8945e-10 2.00174e+06 -1.97593e-11 8.26795e+06)
(2.7329e+07 -2.69054e+06 6.21143e-10 2.54008e+06 -1.84704e-11 9.12918e+06)
(1.5913e+07 -1.17003e+07 1.59103e-09 2.34736e+06 2.83686e-10 5.35534e+06)
(-4.68278e+06 7.37107e+06 -1.01262e-10 -4.38211e+07 -1.01325e-09 -9.83153e+06)
(1.97303e+07 -1.72067e+07 -1.84399e-09 2.86061e+06 3.96152e-09 1.39126e+07)
(7.85861e+07 8.84929e+06 5.19645e-09 -2.31572e+07 1.44342e-09 2.41743e+07)
(4.74561e+07 -2.61618e+07 7.54794e-09 -1.73168e+07 3.02717e-09 2.07544e+07)
(2.65432e+07 -1.70454e+06 2.14945e-10 8.83187e+06 4.99743e-11 1.06479e+07)
(2.826e+07 -221746 6.02696e-10 183044 -1.49192e-10 8.7344e+06)
(4.0034e+06 -8.34866e+06 -2.68507e-11 -8.30002e+06 1.62474e-09 -407478)
(3.04872e+07 -1.26321e+07 -8.67028e-11 2.16151e+06 -3.4438e-11 1.01127e+07)
(2.46844e+07 -511769 8.03072e-10 9.82562e+06 -1.66407e-10 1.04312e+07)
(5.78002e+07 -3.90358e+06 -1.81013e-09 166339 -1.21768e-09 1.86577e+07)
(1.95452e+07 -1.12205e+07 -1.54123e-10 4.7988e+06 -1.32208e-10 6.13746e+06)
(9.81243e+06 -249089 4.51095e-11 6.56888e+06 -1.08874e-10 4.65864e+06)
(2.10956e+07 -1.21611e+07 -5.68324e-10 3.62777e+06 -1.86038e-10 7.66473e+06)
(2.51267e+07 -3.62584e+06 3.82778e-10 8.19437e+06 -3.90804e-11 1.0701e+07)
(2.18593e+07 -1.96628e+06 1.18531e-09 8.72294e+06 -1.095e-10 8.90728e+06)
(2.67588e+07 -312975 -3.08851e-10 1.1713e+07 -5.04286e-10 1.15081e+07)
(2.69811e+07 -351827 4.00812e-10 1.71657e+06 6.06843e-10 8.46376e+06)
(3.36614e+07 -1.19242e+07 -1.98223e-09 2.23961e+06 -4.59694e-10 1.04299e+07)
(3.38912e+07 -1.317e+07 -9.82293e-10 838595 -3.44186e-10 1.06898e+07)
(2.65161e+07 -4.51427e+06 1.95922e-09 6.70604e+06 4.23354e-10 9.48006e+06)
(6.18398e+07 -1.24628e+06 -5.89473e-09 451541 -1.702e-09 1.71278e+07)
(2.49596e+07 -3.62953e+06 -1.20975e-09 8.47159e+06 6.33641e-11 9.67849e+06)
(8.54416e+06 -9.19335e+06 1.27053e-09 1.34277e+06 3.6205e-10 4.61537e+06)
(1.31427e+07 -1.02214e+07 3.24255e-10 1.65063e+06 4.58277e-11 3.78063e+06)
(2.2468e+07 -1.20301e+07 -5.65406e-10 4.81639e+06 -1.89272e-10 7.91243e+06)
(2.54612e+07 -5.45492e+06 -3.26896e-09 6.92222e+06 -4.93346e-10 9.51937e+06)
(2.68768e+07 -485550 -3.54851e-10 5.28757e+06 -5.51521e-10 9.73406e+06)
(3.20004e+07 -3.04993e+06 1.8263e-09 291674 -2.64335e-11 9.57176e+06)
(2.74474e+07 -1.17666e+07 -8.73007e-10 3.75209e+06 -5.59152e-11 9.05335e+06)
(-1.93337e+06 2.23169e+06 -6.0124e-09 -1.03717e+07 -7.54286e-10 -2.35059e+06)
(7.73914e+07 410970 4.68261e-09 -2.28044e+06 2.31318e-09 1.78138e+07)
(2.76655e+07 -1.13287e+06 1.74285e-09 471387 3.992e-10 8.01726e+06)
(2.74865e+07 -1.21275e+06 -5.97731e-10 12190.2 -9.28222e-11 9.12425e+06)
(3.21763e+07 -9.72891e+06 0 -1.00269e+07 0 7.66767e+06)
(2.63077e+07 -4.82241e+06 -1.90156e-09 5.68034e+06 -4.82664e-10 1.00224e+07)
(2.67698e+07 -8.01493e+06 9.18612e-10 4.97237e+06 1.12856e-10 8.92118e+06)
(2.65809e+07 -7.51295e+06 6.34745e-11 4.71741e+06 -2.85397e-10 9.6807e+06)
(1.00914e+07 -6.75596e+06 1.07908e-09 4.62308e+06 -2.87388e-11 4.78189e+06)
(2.61182e+07 -1.46366e+06 -1.24212e-09 1.15923e+07 1.55411e-11 1.13587e+07)
(4.63254e+07 -6.88798e+06 3.01189e-09 -3.73924e+06 5.51199e-10 1.34994e+07)
(2.50319e+07 -6.8467e+06 1.52154e-09 6.39604e+06 -4.41265e-10 8.89261e+06)
(5.0282e+07 -4.79183e+06 1.29652e-09 -4.84623e+06 2.62914e-09 1.66969e+07)
(1.67858e+07 -3.14812e+06 -8.32155e-10 7.72615e+06 1.55323e-10 8.38688e+06)
(2.54948e+07 -1.26924e+06 -5.31887e-10 1.09965e+07 8.72847e-12 1.10349e+07)
(1.21261e+07 -9.73424e+06 1.29906e-10 -9.39574e+06 -8.55045e-10 -106940)
(2.68619e+07 -2.07462e+06 -1.67299e-09 8.77801e+06 -5.3816e-10 1.01107e+07)
(-2.2236e+07 -9.64977e+06 -5.58988e-09 2.09617e+06 3.61666e-09 -3.32917e+06)
(4.10502e+07 -1.01169e+07 -1.90113e-09 1.63922e+06 -1.89067e-10 1.16126e+07)
(-3.95057e+06 1.06996e+07 1.28915e-10 -3.84165e+07 9.3981e-10 -1.5027e+07)
(2.16985e+07 -8.71513e+06 -1.74106e-09 5.43387e+06 -3.51332e-10 8.04316e+06)
(2.17719e+07 -8.60144e+06 -2.31161e-09 6.15618e+06 5.03388e-11 8.53293e+06)
(3.04507e+07 -7.89387e+06 2.88254e-09 2.90204e+06 2.84946e-10 9.63259e+06)
(-1.27218e+06 -1.56384e+07 -2.21816e-09 1.48347e+06 1.88107e-09 -2.8491e+06)
(5.8896e+07 -6.92243e+06 -5.47626e-09 -691695 -3.28566e-09 1.75101e+07)
(6.44901e+07 1.07391e+06 6.78831e-09 678386 3.22642e-10 1.75515e+07)
(6.85802e+07 -113422 0 -692991 0 1.88534e+07)
(1.01489e+08 1.69738e+07 3.37175e-09 2.76556e+07 3.4065e-09 4.95382e+07)
(1.32762e+07 -9.01976e+06 5.0765e-10 -1.13509e+07 1.15929e-09 -755622)
(1.16705e+07 -8.76737e+06 1.3837e-09 -7.50296e+06 2.95489e-09 1.31766e+06)
(6.46644e+07 -4.32741e+06 1.32442e-09 -2.09581e+06 1.27178e-09 1.96825e+07)
(2.71549e+07 -1.26495e+07 7.47605e-10 2.71257e+06 2.42026e-10 8.95675e+06)
(2.1231e+07 -1.09576e+07 3.5512e-09 -5.77792e+06 1.29669e-09 5.83691e+06)
(1.80164e+07 -1.20601e+07 3.22165e-09 -6.15651e+06 -5.13701e-10 3.56134e+06)
(2.76343e+07 -5.8933e+06 -1.53241e-09 3.95377e+06 -5.96753e-11 9.51845e+06)
(2.78043e+07 -5.4314e+06 -7.08572e-10 3.59851e+06 2.02963e-10 9.44157e+06)
(2.83545e+07 -7.274e+06 4.61492e-10 3.29361e+06 4.04155e-10 9.87062e+06)
(2.79135e+07 -7.08823e+06 1.73323e-09 4.00471e+06 -3.1937e-10 9.31789e+06)
(2.495e+07 -8.53155e+06 -3.91572e-09 5.41715e+06 -1.58901e-11 8.59647e+06)
(1.89371e+07 -1.85216e+06 4.70142e-10 8.53763e+06 -1.77977e-11 8.58968e+06)
(-5.68284e+06 -2.14211e+06 0 -1.07011e+07 0 -6.99622e+06)
(3.02856e+07 -7.04684e+06 7.10896e-09 -8.38377e+06 4.9021e-09 8.06705e+06)
(1.77906e+07 -1.06446e+07 3.35987e-10 -4.77193e+06 1.26518e-10 3.93051e+06)
(1.90251e+07 -1.33759e+07 7.77649e-10 -1.25108e+06 1.54053e-09 5.57741e+06)
(7.41368e+07 -1.88984e+06 6.9554e-09 -2.82604e+06 2.07685e-09 2.0223e+07)
(2.76742e+07 -1.0907e+07 1.04935e-09 2.94727e+06 -3.44688e-10 9.92465e+06)
(3.63548e+07 -1.0327e+07 -4.4736e-10 2.08991e+06 -4.55014e-10 1.08543e+07)
(3.85463e+07 -9.41991e+06 1.41476e-09 567906 -6.59325e-11 1.2638e+07)
(5.43425e+07 -1.07908e+07 3.26864e-09 -157853 1.43916e-09 1.60235e+07)
(2.90297e+07 -4.56502e+06 -1.32535e-09 1.79153e+06 9.71001e-11 9.78215e+06)
(-2.72088e+06 -38789.7 0 -1.16808e+07 0 -4.59768e+06)
(7.26884e+07 1.19618e+07 -1.64593e-10 -5.56451e+06 8.73819e-09 2.23148e+07)
(2.31754e+07 -3.99915e+06 -2.28018e-09 8.22445e+06 -9.43961e-11 9.38175e+06)
(2.79376e+07 -2.85528e+06 3.09061e-10 1.60501e+06 -2.11605e-10 9.29814e+06)
(1.83981e+07 -8.43252e+06 -5.74013e-10 6.1604e+06 1.99323e-10 7.57664e+06)
(3.28488e+07 -1.12282e+07 0 1.86202e+06 0 1.12205e+07)
(3.22657e+07 -1.0124e+07 -3.37488e-10 2.80942e+06 2.88088e-10 9.67442e+06)
(5.68844e+06 -5.96608e+06 0 -879713 0 1.06744e+06)
(1.94093e+07 -4.98033e+06 -5.01708e-10 7.49455e+06 5.1115e-11 7.74426e+06)
(3.48602e+07 -2.90142e+06 -2.63296e-09 285727 1.97002e-10 1.02049e+07)
(3.07166e+07 -6.57355e+06 -1.61775e-10 1.79497e+06 -4.78416e-10 1.0067e+07)
(3.16546e+07 -5.41027e+06 2.62694e-09 1.65524e+06 6.13334e-10 9.34162e+06)
(-6.75976e+07 6.73657e+06 1.42256e-08 -1.71184e+06 -3.45835e-09 3.57238e+07)
(4.49483e+06 -2.63806e+06 1.13311e-10 2.4849e+06 2.25286e-10 2.27436e+06)
(1.26218e+06 -2.35347e+06 -4.73309e-10 -833058 -8.79361e-11 98567.9)
(-5.40481e+07 65603.9 1.39671e-08 7.01419e+06 6.01223e-10 5.28294e+07)
(9.80677e+06 -2.09387e+06 6.03391e-09 -1.61826e+07 2.05664e-09 -1.49393e+06)
(3.79351e+07 -7.94613e+06 -1.79622e-09 697239 4.06152e-10 1.18919e+07)
(4.20387e+07 -5.09881e+06 9.54837e-11 1.32645e+06 -5.36853e-10 1.12985e+07)
(1.31046e+07 -3.27943e+06 6.06831e-10 7.8699e+06 -4.94406e-10 7.20786e+06)
(1.63077e+07 -5.17515e+06 5.36756e-10 7.51329e+06 1.10039e-10 6.78472e+06)
(7.0224e+06 -1.64285e+06 7.38921e-10 -1.17216e+07 1.58401e-10 -4.70503e+06)
(-367202 4.52113e+06 -3.14808e-10 -4.62804e+07 -2.01505e-09 -1.69234e+07)
(2.59948e+07 -4.64831e+06 2.78802e-10 6.73317e+06 1.92136e-11 1.02341e+07)
(3.3795e+07 -6.74765e+06 8.1292e-11 1.31774e+06 -5.49725e-10 1.04143e+07)
(-4.66098e+06 2.04205e+06 -4.79491e-10 -4.59027e+07 -2.47721e-09 -1.11325e+07)
(2.13648e+07 -4.13688e+06 4.76966e-10 7.45333e+06 -1.02937e-10 8.81677e+06)
(5.32319e+07 -7.35421e+06 -1.94008e-09 119625 -8.03266e-10 1.63889e+07)
(5.05065e+07 -8.73395e+06 3.40888e-09 -344054 1.4704e-09 1.4864e+07)
(2.53575e+07 -6.86076e+06 2.08674e-09 5.77879e+06 5.21143e-10 9.67179e+06)
(1.85257e+07 -8.68532e+06 3.8345e-10 7.15193e+06 1.66174e-10 6.55312e+06)
(2.27775e+07 -5.69601e+06 7.55864e-10 7.27726e+06 2.38219e-10 9.171e+06)
(2.14544e+07 -1.12311e+07 -2.43404e-09 -8.03805e+06 -2.36758e-09 4.26531e+06)
(-7.25521e+06 1.20766e+06 -2.05025e-09 -2.88169e+07 -1.81563e-09 -1.21905e+07)
(1.02947e+07 -8.57283e+06 -7.85073e-10 2.21137e+06 -4.00906e-11 2.8489e+06)
(3.02045e+07 -4.61793e+06 -2.92626e-09 1.73647e+06 -9.2766e-11 8.86316e+06)
(2.26373e+07 -5.1317e+06 -5.21587e-10 7.5629e+06 -6.46201e-11 9.02756e+06)
(2.46536e+07 -8.21197e+06 -3.12207e-09 -6.17517e+06 -4.65831e-09 5.56398e+06)
(3.08963e+07 -2.80341e+06 -2.29061e-09 485538 -1.85029e-09 8.66792e+06)
(4.14123e+07 -1.15135e+07 -3.53622e-09 -1.20825e+06 -1.63931e-09 1.30844e+07)
(-1.40162e+06 -2.63416e+06 1.13361e-09 -1.83243e+07 9.63356e-10 -7.01064e+06)
(9.86223e+07 1.29094e+07 5.17037e-09 -502393 6.50709e-09 3.7423e+07)
(8.44929e+07 -2.90794e+06 -3.59396e-09 -3.74913e+06 -3.90758e-09 2.33349e+07)
(3.56805e+07 -1.36511e+07 -4.73384e-09 -673458 -2.77157e-09 9.19938e+06)
(-4.36055e+06 -3.54033e+06 -1.63134e-09 -1.64545e+07 -2.17265e-09 -6.60887e+06)
(2.61101e+07 -212874 -2.20991e-10 1.33241e+07 -1.24773e-11 1.17352e+07)
(2.71053e+07 -286413 1.36079e-09 303338 7.07041e-10 8.25862e+06)
(3.83307e+07 -5.66726e+06 -2.33921e-10 827334 9.34211e-10 1.27365e+07)
(2.51263e+07 -1.08049e+07 -8.76234e-10 3.11801e+06 4.77925e-11 9.94206e+06)
(-8.61411e+06 1.23603e+07 2.66187e-09 -1.88626e+07 5.8538e-09 -4.05436e+06)
(2.70345e+07 -1.89415e+06 0 3.06578e+06 0 8.90358e+06)
(2.71834e+07 -1.26856e+06 -1.06447e-09 2.23694e+06 -7.52086e-10 8.8694e+06)
(2.61998e+07 -1.24169e+06 -8.27161e-10 1.11589e+07 -1.32824e-10 1.11424e+07)
(2.64175e+07 -2.23636e+06 0 9.55253e+06 0 1.113e+07)
(2.68202e+07 -1.04067e+06 2.17418e-10 1.11769e+07 1.96732e-11 1.11455e+07)
(2.68892e+07 -1.2794e+06 -1.16274e-10 1.03217e+06 -1.65304e-10 8.99945e+06)
(1.013e+08 -2.52022e+07 -9.33638e-10 2.34685e+07 5.2086e-09 3.62841e+07)
(1.01397e+08 -1.4326e+07 2.3134e-09 2.29285e+07 -1.71414e-09 7.08092e+07)
(1.03738e+08 1.68792e+07 -6.1415e-09 8.99744e+06 -5.40102e-09 3.2504e+07)
(8.52895e+07 -2.09463e+06 6.38672e-09 2.04143e+07 2.95287e-09 3.25432e+07)
(2.71403e+07 -2.92902e+06 8.57011e-10 4.57127e+06 1.77768e-10 9.14432e+06)
(1.45035e+07 -2.0617e+06 1.27389e-09 6.60889e+06 4.97709e-11 7.38368e+06)
(2.92027e+07 -6.34814e+06 -1.85092e-10 2.59974e+06 -3.34714e-10 9.79127e+06)
(2.91242e+07 -5.61778e+06 -1.6891e-10 2.6869e+06 3.17764e-10 9.23366e+06)
(3.6586e+07 -4.82941e+06 3.11406e-09 448285 -1.64527e-09 1.0789e+07)
(2.65246e+07 -248859 -2.8171e-10 1.26956e+07 -2.21793e-10 1.19683e+07)
(2.68965e+07 -116375 7.37022e-10 848117 4.61135e-10 8.13798e+06)
(4.14704e+07 -1.0626e+07 2.73156e-09 1.06694e+06 6.9628e-10 1.36296e+07)
(1.28276e+07 -3.66383e+06 -2.9828e-10 8.10619e+06 1.456e-10 4.58677e+06)
(1.72831e+07 -6.0185e+06 7.82618e-10 7.34724e+06 -4.93625e-11 6.79822e+06)
(2.67695e+07 -992439 6.02159e-10 1.24912e+07 -3.25566e-12 1.10019e+07)
(2.68017e+07 -838494 2.39348e-09 977777 9.18553e-10 8.82887e+06)
(5.46309e+06 -347041 1.83709e-10 4.05006e+06 -1.30887e-10 3.3281e+06)
(3.03717e+07 -1.1776e+07 -4.67794e-10 3.17414e+06 -3.46906e-10 9.51579e+06)
(6.22425e+07 -4.84326e+06 -7.36604e-09 -1.22396e+07 -4.72649e-09 2.74608e+07)
(16914.4 185014 7.2928e-11 -3.47279e+06 -1.12397e-12 -2.043e+06)
(-2.96751e+06 8.8159e+06 9.16525e-10 -2.57705e+07 -5.54552e-09 -9.64714e+06)
(1.54719e+07 -6.37527e+06 8.4761e-10 6.46153e+06 -8.20756e-11 5.45093e+06)
(2.64857e+07 -1.38816e+06 1.28092e-09 1.19941e+07 6.01747e-11 1.12084e+07)
(2.70339e+07 -928900 -5.64847e-10 826022 -5.26652e-10 8.41149e+06)
(2.0569e+07 -308891 7.17749e-10 8.7384e+06 -5.03726e-11 8.98584e+06)
(1.64718e+07 -7.09887e+06 0 6.70237e+06 0 7.05408e+06)
(4.17869e+07 -3.20589e+06 -1.49573e-09 308289 -1.08522e-09 1.25108e+07)
(3.30396e+07 -615386 1.43095e-09 150765 2.4996e-10 9.94526e+06)
(-5.67304e+06 5.12553e+06 1.77289e-09 -2.30175e+07 -1.12753e-09 -5.51096e+06)
(7.78942e+07 -872279 -2.15444e-09 -93386.4 -1.02781e-09 2.34953e+07)
(4.52754e+06 -4.19817e+06 0 -1.69408e+07 0 -1.83667e+06)
(7.84046e+07 1.8859e+07 5.34859e-09 7.06644e+06 5.66775e-09 1.89156e+07)
(1.14029e+07 -3.4785e+06 4.38157e-09 -1.12979e+07 -1.50405e-09 -3.51114e+06)
(1.12255e+07 -3.11934e+06 1.33605e-09 -1.23287e+07 4.42373e-09 4.09344e+06)
(3.47428e+07 -9.17472e+06 -2.8602e-09 2.46746e+06 -8.79182e-10 1.05918e+07)
(5.12691e+07 -1.2057e+07 -6.07405e-10 -701308 1.61939e-10 1.58513e+07)
(2.7303e+07 -5.00605e+06 -5.96321e-10 5.38446e+06 -2.08006e-10 8.95783e+06)
(2.86264e+07 -1.00477e+07 1.26037e-09 3.9531e+06 -1.78499e-10 8.91506e+06)
(4.18093e+07 -1.12496e+07 5.54059e-10 654642 1.08237e-10 1.20454e+07)
(1.94423e+07 -1.05371e+07 2.68789e-09 4.54752e+06 3.35104e-10 7.92931e+06)
(3.62329e+07 -1.23394e+07 8.43148e-10 1.25526e+06 1.93309e-10 1.17301e+07)
(2.49413e+07 -2.05972e+06 -5.54948e-10 9.42422e+06 -1.98225e-11 9.98105e+06)
(2.53214e+07 -2.33326e+06 1.67671e-09 9.87547e+06 5.56771e-11 1.08474e+07)
(4.19934e+07 -5.28314e+06 -5.00869e-09 1.46459e+06 1.62301e-10 1.37239e+07)
(7.70846e+07 1.14239e+07 6.68681e-10 -909963 1.72573e-09 1.59921e+07)
(2.41276e+07 -6.1346e+06 -2.84104e-09 6.59611e+06 -1.60056e-10 9.58149e+06)
(1.40847e+06 -8.078e+06 -1.11193e-09 -3.60144e+06 -4.98699e-10 94571.2)
(6.85599e+06 2.64422e+06 3.3882e-09 -2.258e+07 -6.30944e-09 -3.20534e+06)
(1.7597e+06 -2.42908e+06 -2.70403e-09 -1.80272e+07 1.68978e-09 -7.94177e+06)
(3.85706e+06 -5.86487e+06 -1.43695e-09 -3.28609e+06 1.16536e-10 -505755)
(5.77218e+07 -3.85067e+06 5.84352e-09 538227 1.63161e-09 1.54326e+07)
(4.39987e+07 -1.10301e+07 -6.47213e-10 113130 1.04173e-10 1.44982e+07)
(2.34838e+07 -7.06994e+06 2.5223e-09 6.57739e+06 1.16866e-10 8.69949e+06)
(2.45049e+07 -5.18225e+06 1.78127e-09 7.64691e+06 9.50197e-11 9.30583e+06)
(3.00753e+07 -595925 1.74914e-09 535395 7.29711e-10 8.98886e+06)
(4.48878e+07 -1.14139e+07 -1.02425e-09 -457347 -3.75645e-10 1.23094e+07)
(2.24464e+07 -262142 -6.906e-10 9.10851e+06 -4.11457e-11 9.60933e+06)
(2.69131e+07 -4.64196e+06 -1.52817e-09 4.35938e+06 -1.00376e-10 1.01495e+07)
(-5.11089e+06 1.08055e+07 -1.48721e-09 -1.24916e+07 4.80849e-09 -1.10763e+07)
(2.65423e+07 -2.30765e+06 8.00503e-10 3.93811e+06 1.77671e-10 9.71791e+06)
(2.66914e+07 -1.58065e+06 -1.17721e-09 4.46606e+06 -4.48407e-10 9.36113e+06)
(7.81065e+07 -2.26088e+06 -1.1361e-08 -1.82727e+07 -5.06642e-09 2.76187e+07)
(1.9063e+07 -1.22409e+07 -2.76054e-10 -202563 -1.08368e-09 5.56021e+06)
(2.80229e+07 -4.65597e+06 8.22365e-11 3.04008e+06 3.37211e-10 9.50659e+06)
(2.68268e+07 -6.01184e+06 -1.61544e-09 4.8199e+06 -5.49335e-10 9.65916e+06)
(6.29027e+06 -7.90665e+06 -1.57294e-09 -8.87802e+06 -2.38824e-09 -910722)
(5.5703e+06 -9.13707e+06 2.33388e-09 -3.78133e+06 6.72867e-11 319619)
(4.82041e+07 -9.57538e+06 6.79186e-10 -6.66028e+06 -1.43722e-10 1.01733e+07)
(2.48618e+07 -3.74949e+06 1.38265e-09 -1.11465e+07 -5.08887e-09 5.32813e+06)
(-3.45404e+07 1.14183e+07 4.08282e-09 -1.89142e+07 -2.23426e-09 2.76286e+07)
(2.5167e+07 -8.36637e+06 -1.74532e-09 5.25514e+06 1.81545e-10 9.45106e+06)
(4.52912e+06 -1.41627e+06 -3.16032e-09 -1.58433e+07 -2.12982e-09 -5.30218e+06)
(5.63278e+07 -9.37572e+06 7.21457e-11 -5.09665e+06 2.9478e-09 1.73843e+07)
(8.2998e+06 -4.52357e+06 4.23328e-09 -1.59325e+07 -2.31452e-09 -890679)
(-3.77828e+06 -4.21583e+06 -1.22675e-09 -9.91887e+06 5.37525e-10 -3.36067e+06)
(5.90152e+07 -5.22454e+06 -6.11479e-09 -1.36404e+06 -2.48632e-09 1.69477e+07)
(1.91743e+07 -7.63059e+06 -3.04196e-09 7.01213e+06 -2.38938e-11 7.79812e+06)
(5.02347e+07 -578896 -5.48334e-10 476059 -4.99512e-10 1.42903e+07)
(1.95007e+07 -6.93052e+06 2.07229e-09 7.03727e+06 4.78514e-11 7.9452e+06)
(2.31185e+07 -8.02211e+06 -1.49254e-09 6.30448e+06 -3.10905e-10 8.73658e+06)
(2.42576e+07 -4.63264e+06 -3.14302e-10 7.84764e+06 3.29984e-11 9.7711e+06)
(4.92731e+07 -7.69133e+06 0 660091 0 1.51917e+07)
(1.96237e+07 -1.22164e+06 1.01478e-09 8.46067e+06 -3.0545e-12 8.49783e+06)
(3.44724e+07 -1.75508e+06 -2.86109e-09 245249 -1.82664e-10 1.04516e+07)
(1.13016e+07 -1.13149e+07 2.44225e-09 -4.10002e+06 4.09305e-10 2.83923e+06)
(1.07725e+07 -1.11643e+07 -1.77069e-09 -4.12927e+06 -1.28968e-10 2.18739e+06)
(-2.22882e+06 1.13998e+06 2.36069e-09 -2.43753e+07 -1.36789e-09 -9.17859e+06)
(1.84135e+07 -1.04156e+07 -5.93579e-10 4.91473e+06 -2.2926e-11 7.18517e+06)
(-3.08238e+06 192980 6.16155e-11 -2.60301e+07 -1.14946e-10 -9.17313e+06)
(2.73475e+07 -1.27517e+07 -6.12916e-09 175953 -1.42788e-09 6.96208e+06)
(2.96447e+07 -1.41086e+07 -2.04681e-09 264010 -5.85649e-10 9.3067e+06)
(1.06215e+06 -5.67576e+06 1.2609e-10 -1.43796e+07 8.76395e-10 -4.92949e+06)
(2.25469e+07 -1.25795e+07 -1.79218e-09 1.89452e+06 -2.97824e-10 8.09067e+06)
(1.13452e+07 -2.14872e+06 2.47449e-10 7.72811e+06 -2.84532e-10 5.18142e+06)
(2.24895e+07 -6.77602e+06 2.28834e-09 6.95145e+06 -5.47334e-11 8.8023e+06)
(8.25268e+07 174427 -1.14932e-08 245770 -2.78968e-09 2.3883e+07)
(2.87937e+07 -4.03566e+06 3.3229e-10 2.3191e+06 -2.22124e-10 8.77254e+06)
(1.90216e+07 -5.26738e+06 -9.63318e-10 8.00207e+06 3.99394e-11 7.83452e+06)
(7.41327e+07 -3.15188e+06 3.54131e-10 1.76795e+07 -7.53731e-10 6.80809e+07)
(5.50974e+07 -297269 -2.70506e-09 -218497 -3.45075e-10 1.67761e+07)
(-8.54361e+06 -177123 5.02804e-10 -1.87805e+07 9.3302e-10 -7.21201e+06)
(2.63739e+07 -6.70495e+06 2.2829e-09 5.52015e+06 3.97237e-10 9.1507e+06)
(4.71314e+07 -2.87668e+06 1.35097e-10 452946 -6.82564e-10 1.47336e+07)
(8.35903e+07 2.19541e+06 -5.41447e-09 -3.93608e+06 -3.39753e-09 2.23483e+07)
(2.44329e+07 -7.30602e+06 4.13536e-09 5.75807e+06 -1.34276e-10 9.55836e+06)
(2.62598e+07 -514122 -3.49069e-10 1.33611e+07 9.99157e-11 1.20007e+07)
(2.68903e+07 -238432 5.93196e-10 248846 -1.34925e-10 8.16567e+06)
(1.28695e+07 -146638 1.15461e-10 7.42432e+06 -1.02352e-10 5.97338e+06)
(1.8468e+07 -1.15612e+07 4.55721e-09 1.8127e+06 8.31343e-10 6.26261e+06)
(4.3193e+07 -9.21872e+06 -2.24556e-09 1.3395e+06 -2.15038e-10 1.30013e+07)
(4.44116e+07 -459862 -1.19553e-11 -296090 -4.40993e-10 1.35255e+07)
(7.452e+07 832407 -3.62625e-10 -3.64079e+06 1.85411e-09 2.45092e+07)
(-5.39198e+06 -3.33949e+06 0 -2.17094e+07 0 -5.88206e+06)
(7.00685e+07 1.16144e+07 -9.01395e-09 -1.82683e+06 -1.16416e-08 2.14951e+07)
(2.67027e+07 -1.06662e+07 1.14695e-09 4.72484e+06 -3.54943e-10 8.49693e+06)
(2.64317e+07 -952605 2.49765e-10 1.293e+07 -2.17297e-11 1.14787e+07)
(-2.50482e+06 -3.48601e+06 5.00674e-10 -6.2736e+06 3.03991e-10 -1.65843e+06)
(2.61327e+07 12647.8 2.66332e-10 1.28902e+07 -1.24742e-10 1.15202e+07)
(2.67722e+07 -189487 7.34262e-10 9.90357e+06 5.74638e-10 1.08379e+07)
(2.67279e+07 -137996 -5.20494e-10 3.30188e+06 -6.06044e-10 9.21799e+06)
(3.26652e+07 -1.01292e+07 1.47414e-09 1.52604e+06 2.35318e-10 1.12983e+07)
(-9.68535e+06 6.29187e+06 0 -1.15164e+07 0 -4.64396e+06)
(2.70211e+07 -329153 3.80285e-10 -47741.7 4.06151e-10 8.30686e+06)
(1.88243e+07 -6.32775e+06 1.70231e-09 7.07838e+06 1.0545e-10 7.75281e+06)
(8.14356e+07 1.44803e+06 -7.68585e-09 -2.38436e+06 -5.12963e-09 1.95055e+07)
(-818524 -3.82867e+06 -3.17774e-10 -1.12647e+07 -3.44911e-10 -3.48229e+06)
(2.714e+07 -219742 0 104864 0 8.24988e+06)
(1.51914e+07 -8.81509e+06 3.89235e-10 6.13336e+06 -3.00094e-10 6.32886e+06)
(2.1094e+07 -1.30509e+07 3.40868e-11 2.58595e+06 -1.12051e-11 6.88748e+06)
(6.46381e+07 2.36501e+07 -6.63901e-09 4.57826e+06 -1.00974e-08 2.30343e+07)
(2.57256e+07 -2.22744e+06 7.79884e-10 1.00046e+07 5.58517e-11 1.01001e+07)
(-5.18817e+06 1.07562e+07 -3.79443e-09 -3.72113e+07 -6.19318e-09 -8.29564e+06)
(-6.84255e+06 1.38089e+07 1.78319e-09 -2.82122e+07 -9.31568e-09 -1.13746e+07)
(-3.75726e+06 811385 0 -2.74498e+07 0 -1.0551e+07)
(2.79201e+07 -3.42593e+06 6.36222e-10 3.12685e+06 -2.04365e-11 8.8576e+06)
(2.43047e+07 -4.30835e+07 1.06662e-08 -1.02818e+06 5.36979e-10 3.64587e+07)
(-2.7463e+06 2.84996e+06 -3.28353e-10 -3.05119e+07 6.30385e-11 -8.81974e+06)
(2.25215e+07 -1.38575e+07 1.90156e-09 115962 -3.88191e-11 7.63563e+06)
(3.40014e+07 -1.32291e+07 4.98574e-09 -1.20113e+07 -3.38303e-09 1.38424e+07)
(4.96287e+07 2.4146e+06 4.19644e-09 108800 -3.30982e-09 1.63993e+07)
(2.60718e+07 -3.44145e+06 -4.05817e-10 8.42916e+06 -7.0741e-11 1.03487e+07)
(2.51115e+07 -5.9959e+06 -6.36467e-10 6.38895e+06 6.32725e-11 9.87363e+06)
(-4.83579e+07 -8.66278e+06 5.57073e-09 2.2864e+07 -2.69001e-10 2.58909e+07)
(7.87317e+07 1.40049e+07 6.22705e-09 -6.78648e+06 4.45581e-09 1.99059e+07)
(7.8243e+07 2.61647e+07 1.78995e-09 -2.38e+06 4.75504e-10 2.24696e+07)
(4.63371e+07 -2.39918e+06 3.08936e-09 -399947 -9.59034e-10 1.3556e+07)
(2.10887e+07 -6.12721e+06 1.18238e-09 7.14735e+06 -2.52383e-12 8.54825e+06)
(2.48714e+07 -7.85455e+06 -6.92468e-09 -7.96778e+06 -6.43216e-09 139147)
(2.18664e+07 -1.4606e+06 5.50114e-10 9.01392e+06 -3.13635e-11 8.77194e+06)
(3.16968e+07 -1.49592e+06 1.91402e-09 55859.9 -1.0956e-10 9.65876e+06)
(5.51089e+07 -1.17441e+07 6.30691e-09 -2.47487e+07 2.18408e-09 2.02093e+07)
(2.7683e+07 -4.34964e+06 1.07089e-10 2.68366e+06 3.44181e-10 9.66473e+06)
(2.07478e+07 -6.03346e+06 9.13057e-10 7.23295e+06 9.43058e-11 8.40488e+06)
(2.58159e+07 366090 1.05237e-09 1.21774e+07 1.39783e-10 1.11992e+07)
(2.72746e+07 76750.9 5.65608e-10 309478 1.82698e-10 8.11958e+06)