/*--------------------------------*- C++ -*----------------------------------*\
| =========                 |                                                 |
| \\      /  F ield         | OpenFOAM: The Open Source CFD Toolbox           |
|  \\    /   O peration     | Version:  v2012                                 |
|   \\  /    A nd           | Website:  www.openfoam.com                      |
|    \\/     M anipulation  |                                                 |
\*---------------------------------------------------------------------------*/
FoamFile
{
    version     2.0;
    format      ascii;
    class       volScalarField;
    location    "18";
    object      sigmaEq;
}
// * * * * * * * * * * * * * * * * * * * * * * * * * * * * * * * * * * * * * //

dimensions      [1 -1 -2 0 0 0 0];


internalField   nonuniform List<scalar> 
470
(
1.05644e+07
6.6082e+06
3.05467e+07
1.41671e+07
2.35065e+07
2.57836e+07
2.31944e+07
2.07976e+07
4.84094e+07
2.97319e+07
4.58439e+07
6.32748e+07
5.64829e+07
1.39234e+07
6.53356e+07
3.94722e+07
2.97677e+07
1.37084e+07
9.48243e+06
9.74692e+06
4.11422e+07
1.96574e+07
2.9743e+07
1.59717e+07
3.88422e+07
2.22002e+07
4.19654e+07
3.48619e+07
2.539e+07
1.49508e+07
7.30965e+06
6.1406e+07
3.15934e+07
2.78242e+07
2.61606e+07
2.49889e+07
7.28834e+07
1.19854e+07
9.57713e+06
1.05404e+07
3.53457e+07
8.75472e+06
7.60241e+07
3.47373e+07
3.46915e+07
7.0958e+07
1.90903e+07
3.67037e+07
3.95818e+07
4.51153e+07
7.1067e+07
2.26841e+07
1.33318e+07
1.13083e+07
1.82738e+07
1.93324e+07
1.91287e+07
3.78569e+07
3.29551e+07
3.26651e+07
2.33885e+07
4.87531e+07
5.47026e+07
6.40565e+07
2.05238e+07
6.6759e+07
1.46316e+07
2.10976e+07
1.74699e+07
3.7583e+07
2.66702e+06
2.88688e+07
4.59334e+07
2.97153e+07
5.53689e+07
1.76019e+07
2.72991e+07
2.59645e+07
3.30478e+07
9.59186e+07
3.36159e+07
6.97631e+07
3.08248e+07
1.82495e+07
4.65388e+07
1.9231e+07
5.65252e+07
1.20714e+07
7.34394e+07
4.37301e+07
7.05674e+07
6.24193e+07
2.71129e+07
2.71595e+07
6.20743e+07
6.5523e+07
2.00318e+07
2.50055e+07
2.71605e+07
2.73246e+07
1.86638e+07
4.2528e+07
5.40369e+07
1.67114e+07
1.6004e+07
2.35911e+07
2.27219e+07
2.37267e+07
3.89846e+07
3.32941e+07
8.95056e+07
7.23345e+07
1.71331e+07
2.49298e+07
1.80461e+07
3.34522e+07
1.45924e+07
5.14157e+07
2.40251e+07
4.5334e+06
2.63549e+07
1.70289e+07
1.34824e+07
1.5159e+07
2.26655e+07
3.49803e+07
3.72056e+07
2.01573e+07
5.50232e+07
1.71152e+07
1.71043e+07
2.0629e+07
2.64705e+07
1.97878e+07
1.97631e+07
2.87264e+07
2.96533e+07
9.09949e+06
7.177e+07
2.43948e+07
2.43296e+07
4.03906e+07
2.06045e+07
2.4441e+07
2.37374e+07
1.28837e+07
1.48619e+07
4.56391e+07
2.11574e+07
4.88312e+07
1.03083e+07
1.4645e+07
2.51759e+07
1.78217e+07
2.77278e+07
3.95814e+07
3.56689e+07
2.13721e+07
2.08408e+07
2.83857e+07
2.73515e+07
5.42324e+07
5.73009e+07
6.18615e+07
7.19644e+07
2.64932e+07
2.25145e+07
5.9443e+07
3.10455e+07
3.01809e+07
2.96681e+07
2.37519e+07
2.38144e+07
2.57917e+07
2.49711e+07
2.34073e+07
1.08583e+07
5.83803e+06
3.576e+07
2.69884e+07
2.92582e+07
6.84934e+07
2.90597e+07
3.56444e+07
3.73611e+07
5.19573e+07
2.55076e+07
8.18478e+06
7.17523e+07
1.59859e+07
2.39681e+07
1.86483e+07
3.37045e+07
3.19385e+07
1.18712e+07
1.46102e+07
3.12424e+07
2.82007e+07
2.85704e+07
9.13508e+07
5.0384e+06
4.46346e+06
9.28722e+07
2.28606e+07
3.58405e+07
3.78013e+07
7.97308e+06
1.28307e+07
1.66477e+07
4.10281e+07
1.95103e+07
3.12839e+07
3.85795e+07
1.50918e+07
4.88237e+07
4.76715e+07
2.15284e+07
1.90483e+07
1.76585e+07
3.21984e+07
1.96781e+07
1.67652e+07
2.68758e+07
1.69206e+07
3.04734e+07
2.76859e+07
4.2536e+07
1.5612e+07
8.94688e+07
7.84577e+07
4.02396e+07
1.27173e+07
1.3655e+07
2.38466e+07
3.46129e+07
2.70368e+07
2.51174e+07
2.18957e+07
2.24875e+07
1.5202e+07
1.65926e+07
1.57624e+07
2.30427e+07
8.4439e+07
7.2859e+07
9.03104e+07
5.98516e+07
2.12792e+07
8.34033e+06
2.62491e+07
2.57564e+07
3.33038e+07
1.42132e+07
2.32769e+07
4.02669e+07
9.56899e+06
1.45995e+07
1.51759e+07
2.29756e+07
1.97468e+06
3.19917e+07
6.50931e+07
3.05541e+06
2.54055e+07
1.46029e+07
1.50928e+07
2.34133e+07
1.17211e+07
1.55985e+07
3.73372e+07
2.9268e+07
1.95571e+07
6.92903e+07
2.04361e+07
7.38324e+07
2.08685e+07
2.16071e+07
3.31363e+07
5.05053e+07
2.2137e+07
2.85278e+07
4.16453e+07
2.27158e+07
3.77301e+07
1.56581e+07
1.55191e+07
3.7145e+07
7.37705e+07
1.94121e+07
1.46971e+07
2.63158e+07
1.7646e+07
1.19199e+07
5.18129e+07
4.32037e+07
2.01098e+07
1.84267e+07
2.63708e+07
4.50677e+07
1.31025e+07
2.18232e+07
1.99075e+07
2.07288e+07
2.04115e+07
8.35903e+07
2.72556e+07
2.38629e+07
2.25755e+07
1.89803e+07
1.7787e+07
5.14293e+07
3.18899e+07
5.94039e+07
2.32492e+07
1.78163e+07
5.62244e+07
2.25909e+07
9.68325e+06
5.43802e+07
1.77103e+07
4.45015e+07
1.69983e+07
2.09951e+07
1.74874e+07
4.52265e+07
1.13436e+07
3.05872e+07
2.37185e+07
2.32757e+07
1.97168e+07
2.19585e+07
2.05922e+07
3.29814e+07
3.57277e+07
1.66874e+07
2.84899e+07
6.52927e+06
1.88107e+07
7.33763e+07
2.4911e+07
1.43715e+07
5.39607e+07
4.90801e+07
1.09678e+07
2.25215e+07
4.17258e+07
7.78821e+07
2.12687e+07
1.3659e+07
2.37002e+07
6.30245e+06
2.49814e+07
4.06765e+07
3.9655e+07
6.85812e+07
1.70868e+07
6.66393e+07
2.74891e+07
1.43777e+07
7.38693e+06
1.3978e+07
1.64247e+07
2.11008e+07
3.26902e+07
1.25205e+07
2.40145e+07
1.5831e+07
7.53421e+07
1.15051e+07
2.40246e+07
1.7704e+07
2.81499e+07
6.7211e+07
1.61413e+07
3.5815e+07
3.08612e+07
2.1178e+07
2.32524e+07
8.16451e+07
2.57595e+07
3.10831e+07
4.60544e+07
4.39134e+07
1.77936e+07
2.01317e+07
7.43131e+07
7.95711e+07
8.46634e+07
4.17627e+07
1.70124e+07
3.26036e+07
1.32195e+07
2.82176e+07
7.22633e+07
2.35783e+07
1.66551e+07
1.41672e+07
2.40319e+07
5.56655e+07
3.50032e+07
5.65544e+07
5.65353e+07
2.88154e+07
1.37281e+07
4.83404e+07
6.50601e+07
4.16419e+07
2.71668e+07
1.36068e+07
1.38604e+07
2.38109e+07
2.35369e+07
1.0217e+07
3.21785e+07
2.76155e+07
1.09665e+07
1.76983e+07
1.35471e+07
7.89944e+07
9.28772e+06
3.01081e+07
6.14196e+06
3.25309e+07
1.82091e+07
2.95838e+07
3.67357e+07
8.68092e+07
2.57682e+07
4.69574e+07
5.60214e+07
5.24913e+07
3.51253e+07
3.98742e+07
3.88473e+07
2.51664e+07
2.0298e+07
1.46462e+07
2.45919e+07
2.20917e+07
3.90622e+07
2.93676e+07
5.59663e+07
1.54543e+07
2.6552e+07
4.3802e+07
2.84827e+07
2.63445e+07
2.53447e+07
6.00731e+06
2.26506e+07
3.27655e+07
4.63267e+07
4.58716e+07
2.30388e+07
2.13116e+07
1.79786e+07
3.8674e+07
4.75195e+07
1.87167e+07
1.73866e+07
3.0729e+07
2.63249e+07
1.36916e+07
4.46521e+07
4.622e+07
4.13927e+07
1.97871e+07
1.83865e+07
3.50736e+07
4.24334e+07
)
;

boundaryField
{
    back
    {
        type            empty;
    }
    front
    {
        type            empty;
    }
    down
    {
        type            symmetry;
    }
    right
    {
        type            calculated;
        value           nonuniform List<scalar> 10(1.77652e+07 1.51061e+07 2.22937e+07 1.95292e+07 1.45144e+07 2.30357e+07 1.63582e+07 2.11025e+07 1.39994e+07 2.35527e+07);
    }
    up
    {
        type            calculated;
        value           nonuniform List<scalar> 
20
(
6.22229e+07
3.5212e+07
7.25729e+07
3.52907e+07
2.51292e+07
5.54637e+07
5.7992e+07
6.11192e+07
2.9414e+07
6.91712e+07
2.69353e+07
4.50032e+07
7.36422e+07
4.88364e+07
3.93203e+07
6.44248e+07
4.38368e+07
2.43696e+07
2.38591e+07
3.26748e+07
)
;
    }
    left
    {
        type            symmetry;
    }
    hole
    {
        type            calculated;
        value           nonuniform List<scalar> 8(1.53777e+07 3.67071e+07 1.01098e+08 4.09421e+07 1.63385e+07 4.20098e+07 1.58916e+07 3.09129e+07);
    }
}


// ************************************************************************* //
