/*--------------------------------*- C++ -*----------------------------------*\
| =========                 |                                                 |
| \\      /  F ield         | OpenFOAM: The Open Source CFD Toolbox           |
|  \\    /   O peration     | Version:  v2012                                 |
|   \\  /    A nd           | Website:  www.openfoam.com                      |
|    \\/     M anipulation  |                                                 |
\*---------------------------------------------------------------------------*/
FoamFile
{
    version     2.0;
    format      ascii;
    class       volScalarField;
    location    "11";
    object      epsilonEq;
}
// * * * * * * * * * * * * * * * * * * * * * * * * * * * * * * * * * * * * * //

dimensions      [0 0 0 0 0 0 0];


internalField   nonuniform List<scalar> 
500
(
0.0324632
0.00962612
0.0151062
0.00779435
0.00852194
0.00473541
0.00476625
0.00303562
0.00299845
0.00251018
0.00730832
0.00719407
0.00522313
0.00431485
0.00399808
0.00303531
0.00343652
0.00287684
0.00316032
0.00293911
0.00460738
0.002623
0.00271452
0.00240434
0.0026409
0.00247812
0.00271887
0.00261248
0.00303769
0.00285819
0.00216073
0.00195557
0.00207777
0.00205593
0.00226368
0.00223829
0.00249115
0.00239762
0.00267982
0.00250405
0.00145871
0.00121537
0.00168633
0.00171476
0.00206987
0.00209158
0.00235281
0.00237823
0.00263362
0.00260737
0.00046227
0.000818005
0.0012496
0.00138729
0.00176825
0.00182313
0.00206059
0.00229967
0.00225156
0.00224951
0.000536186
0.00103672
0.000930494
0.00126749
0.00137532
0.00153765
0.00165001
0.001718
0.00175617
0.00162572
0.00119979
0.00134353
0.00091391
0.0012326
0.00101735
0.0012724
0.00115083
0.00130927
0.00119705
0.00109789
0.00158533
0.00152084
0.00105716
0.00123503
0.000852984
0.00111585
0.000816901
0.00105275
0.000769272
0.000738456
0.00171019
0.00159014
0.00120434
0.00125062
0.000903093
0.00103578
0.000712974
0.000830684
0.000460479
0.000437338
0.000214364
0.00032446
0.000539882
0.000688961
0.00106678
0.00112498
0.00169151
0.00150927
0.00220804
0.00210541
9.70227e-05
0.000299612
0.000430098
0.000671765
0.000870914
0.00107045
0.00136295
0.00148742
0.00180518
0.0018444
0.000224682
0.000435134
0.000486722
0.000767063
0.000842112
0.00114983
0.00120918
0.00151807
0.0015526
0.00176054
0.00039872
0.000582997
0.000591916
0.000883578
0.000895549
0.00122251
0.00124143
0.00150861
0.00155102
0.00169497
0.000488509
0.000687974
0.000681637
0.000966047
0.000977279
0.00125054
0.00128101
0.001471
0.00151391
0.00161498
0.000577271
0.000779949
0.000764233
0.00102149
0.00103586
0.00125238
0.00128142
0.0014231
0.00145939
0.00153395
0.000683382
0.000863434
0.000830318
0.00105584
0.00105381
0.00123619
0.00124832
0.00136561
0.00138889
0.00144814
0.000773938
0.000915461
0.000863936
0.00105959
0.00103354
0.00119349
0.00118553
0.00128697
0.00129796
0.00134557
0.000816075
0.000899048
0.000853744
0.00101162
0.000977023
0.00110802
0.00109596
0.00118092
0.00119015
0.00123278
0.000818291
0.000847465
0.000832559
0.000902079
0.000916927
0.000985272
0.00101204
0.00107551
0.00110108
0.00115186
0.00238769
0.0021
0.00230539
0.00213631
0.0022932
0.00216443
0.00230396
0.00218082
0.0023294
0.00219503
0.00237406
0.00223228
0.00244336
0.00230238
0.00254217
0.00238499
0.00265618
0.00250186
0.00286682
0.0026673
0.00213334
0.00195398
0.00218139
0.00198145
0.0021898
0.00200678
0.00220094
0.00204623
0.00220243
0.00206208
0.00222791
0.00212596
0.00230357
0.00220197
0.0023907
0.00228865
0.00248454
0.00239
0.00258055
0.00252501
0.00177123
0.00186114
0.00185386
0.00189448
0.00191859
0.00191988
0.00198159
0.00194922
0.00205834
0.00198387
0.00211793
0.00202715
0.00218401
0.00208015
0.00225493
0.00214367
0.00233056
0.00221659
0.00240244
0.00232117
0.00170848
0.00176939
0.00175524
0.00179037
0.00179218
0.00181114
0.00183783
0.00183617
0.00189215
0.00186732
0.00195152
0.00190223
0.00201437
0.00194239
0.0020783
0.00198399
0.00214017
0.00202428
0.00219213
0.00208511
0.00163654
0.00167319
0.00167316
0.00168877
0.00169912
0.00170473
0.00173137
0.001725
0.00176906
0.00174806
0.00180869
0.00176754
0.00185998
0.00180454
0.00190865
0.0018223
0.00194084
0.0018358
0.0019637
0.00185912
0.00155745
0.00158047
0.00158718
0.00159146
0.00160654
0.00160219
0.00163004
0.00161695
0.00165834
0.0016355
0.00169215
0.00165318
0.00171717
0.00166449
0.00173913
0.00166883
0.00175161
0.00166488
0.00175358
0.00166049
0.00146946
0.00148244
0.00149489
0.00149121
0.00151228
0.00149957
0.00153048
0.00151293
0.0015519
0.0015241
0.00156962
0.00153387
0.00158465
0.00153793
0.00159256
0.00153328
0.00159011
0.0015174
0.00157697
0.00149272
0.00136291
0.0013693
0.00138538
0.0013793
0.00140057
0.00138937
0.00141908
0.00140214
0.00143857
0.00141331
0.00145393
0.00142156
0.00146405
0.00142491
0.00146661
0.00142017
0.00145818
0.00140392
0.00143904
0.00136964
0.0012539
0.00126279
0.00128589
0.00128151
0.0013093
0.00129724
0.00132865
0.00131125
0.00134544
0.00132437
0.00135906
0.00133605
0.00136814
0.00134474
0.00137074
0.00134793
0.00136507
0.00134268
0.00134948
0.00131384
0.00116964
0.00119546
0.00121338
0.00123378
0.00124608
0.00126546
0.00127217
0.0012921
0.00129337
0.00131376
0.00130986
0.00132987
0.00132101
0.00133987
0.00132586
0.00134335
0.0013237
0.00134038
0.00131654
0.00133102
0.00239842
0.00232427
0.00216189
0.00224914
0.00198964
0.00219802
0.00186074
0.00214842
0.00175134
0.00208168
0.00164489
0.00199156
0.0015388
0.0018847
0.00144558
0.00177617
0.00138272
0.00168424
0.00135355
0.00141185
0.00297038
0.00269098
0.0026967
0.00265368
0.00257756
0.00264244
0.00243941
0.00261371
0.00227025
0.00254886
0.00209128
0.00245745
0.00191866
0.00235101
0.00176211
0.00224376
0.00162598
0.00215323
0.00151221
0.00198669
0.00325563
0.00295129
0.00323603
0.00308386
0.00318075
0.00303749
0.00284696
0.00277407
0.00266267
0.00265259
0.00253033
0.00258725
0.00239117
0.00252803
0.00225792
0.00248768
0.00214643
0.00248762
0.00207804
0.0025379
0.00315415
0.00266549
0.00347233
0.00291236
0.00310559
0.00273464
0.00290019
0.00268637
0.00274859
0.00264669
0.00268298
0.00260254
0.00261534
0.00257479
0.00255698
0.00258217
0.00253121
0.0026467
0.00254484
0.00281266
0.00374474
0.00275347
0.00279395
0.00268795
0.00276005
0.0025998
0.00273592
0.00252703
0.00271498
0.00247377
0.00269387
0.00244558
0.0026789
0.00245134
0.00268294
0.0025016
0.00272107
0.00261771
0.00284636
0.00295019
)
;

boundaryField
{
    back
    {
        type            empty;
    }
    front
    {
        type            empty;
    }
    left
    {
        type            symmetry;
    }
    hole
    {
        type            calculated;
        value           nonuniform List<scalar> 10(0.03435 0.00816329 0.00490226 0.0022156 0.00148511 0.000480959 0.000450732 0.00113623 0.00154395 0.00169981);
    }
    down
    {
        type            symmetry;
    }
    right
    {
        type            calculated;
        value           nonuniform List<scalar> 
15
(
0.00086008
0.000906035
0.000972819
0.00105542
0.0011408
0.00117888
0.00120486
0.00123105
0.00125518
0.00127583
0.00129254
0.00130535
0.00131467
0.001321
0.00132189
)
;
    }
    up
    {
        type            calculated;
        value           nonuniform List<scalar> 
15
(
0.00269262
0.00253616
0.00233214
0.00209099
0.00186234
0.00166155
0.00149439
0.00137251
0.00131873
0.00133173
0.00141264
0.00190695
0.0024754
0.00276736
0.00296524
)
;
    }
}


// ************************************************************************* //
