/*--------------------------------*- C++ -*----------------------------------*\
| =========                 |                                                 |
| \\      /  F ield         | OpenFOAM: The Open Source CFD Toolbox           |
|  \\    /   O peration     | Version:  v2012                                 |
|   \\  /    A nd           | Website:  www.openfoam.com                      |
|    \\/     M anipulation  |                                                 |
\*---------------------------------------------------------------------------*/
FoamFile
{
    version     2.0;
    format      ascii;
    class       volScalarField;
    location    "8";
    object      epsilonEq;
}
// * * * * * * * * * * * * * * * * * * * * * * * * * * * * * * * * * * * * * //

dimensions      [0 0 0 0 0 0 0];


internalField   nonuniform List<scalar> 
7666
(
0.000373095
0.000959743
0.00291103
0.00122663
0.00185857
0.00202881
0.00104349
0.00125793
0.00220448
0.00100322
0.000937953
0.00121641
0.00123029
0.0010787
0.000991109
0.00191317
0.00123361
0.00210185
0.00129813
0.00094327
0.000714705
0.00161973
0.0011235
0.00120395
0.00211795
0.000981868
0.00211336
0.000868765
0.00122345
0.00117797
0.00121544
0.0020502
0.00069384
0.00114817
0.000713285
0.000892898
0.000867894
0.00120106
0.00194253
0.00101841
0.00154524
0.00247072
0.00202593
0.00106411
0.0019436
0.00102376
0.00208632
0.00151312
0.0017283
0.000534524
0.000851711
0.00157762
0.00106256
0.00220393
0.00062208
0.00195177
0.000569133
0.000571234
0.00221547
0.00203759
0.000710107
0.00119302
0.00116119
0.00117741
0.000611441
0.00170116
0.000948873
0.000589406
0.00213939
0.00218907
0.00219492
0.000871063
0.000865783
0.00117109
0.00117499
0.00104994
0.00158809
0.00108313
0.00110583
0.00074784
0.00108603
0.000913363
0.00132813
0.00210016
0.00127879
0.00150507
0.00150838
0.00162065
0.00167093
0.00119823
0.00111908
0.00111556
0.0016136
0.00230663
0.00202568
0.00189699
0.000753303
0.0029958
0.00129787
0.000939011
0.0016316
0.0011808
0.000801016
0.00258
0.00113392
0.00191177
0.00218512
0.00179654
0.00103975
0.00159107
0.00111328
0.00167959
0.000971897
0.000707413
0.000897676
0.00193093
0.000853835
0.000862686
0.00121594
0.00121967
0.00210399
0.00116582
0.00117012
0.000983495
0.00118727
0.000513011
0.00179063
0.00157907
0.00137858
0.00117646
0.00186862
0.00138788
0.000831915
0.00149675
0.00117323
0.00188448
0.00107747
0.00102953
0.00108659
0.00115133
0.00138279
0.000905605
0.000890984
0.000888962
0.000946405
0.00102006
0.00103431
0.00090208
0.000479367
0.0012678
0.00100329
0.00169462
0.000752407
0.00142205
0.000908703
0.000909997
0.00151608
0.00146891
0.00124528
0.00111559
0.00244961
0.00154677
0.00160191
0.00231352
0.00263942
0.00259756
0.0012517
0.000540677
0.000583578
0.00240183
0.000966674
0.000871999
0.00151441
0.00141484
0.0017066
0.000627145
0.00167571
0.00189258
0.00125802
0.00123368
0.00157986
0.000832359
0.00146722
0.000786466
0.00170362
0.00198033
0.000865278
0.00117569
0.00218026
0.00112636
0.000985235
0.00104881
0.00104182
0.00106934
0.00179195
0.00201677
0.00103653
0.00105861
0.00103271
0.00122129
0.00169738
0.000848151
0.00124992
0.00191135
0.00081522
0.0022868
0.000936508
0.00124964
0.00079547
0.000776434
0.00214739
0.000772985
0.000889616
0.000915594
0.000896077
0.000807915
0.0010776
0.00205789
0.000791097
0.00171416
0.00208881
0.00237808
0.00120679
0.000892438
0.00144661
0.00148181
0.00212795
0.00155734
0.000702978
0.00126637
0.00125157
0.00114966
0.0016135
0.00180196
0.000855883
0.00117357
0.00201682
0.00157654
0.000798256
0.00115266
0.000904467
0.00144233
0.00115956
0.00065864
0.00100171
0.000913315
0.00135535
0.000963771
0.00244886
0.00172178
0.00170265
0.000802975
0.00193703
0.00140095
0.000880438
0.00117742
0.001534
0.00159773
0.00177301
0.00101652
0.00152335
0.00208409
0.00191998
0.00163553
0.00100452
0.00135283
0.00112263
0.001949
0.00227763
0.000425406
0.00104401
0.00102209
0.00116193
0.00156214
0.000426401
0.000944975
0.00182152
0.00178335
0.00153819
0.00152659
0.00106684
0.00193258
0.00109175
0.00117488
0.00105291
0.00123168
0.00162246
0.00214466
0.00120608
0.000916239
0.000921876
0.00237067
0.00207136
0.00109216
0.00110031
0.00248312
0.000906513
0.000560821
0.000546762
0.0013068
0.000904936
0.00090849
0.00100937
0.000843598
0.00117706
0.000754237
0.000707392
0.00172305
0.00128733
0.000679621
0.000681297
0.000537793
0.0005321
0.0004847
0.000881355
0.00131867
0.000886231
0.00126213
0.00131157
0.0009077
0.00139741
0.00143026
0.00193945
0.00135644
0.00111089
0.000889171
0.00043074
0.00121403
0.000632183
0.00113667
0.00108331
0.00159508
0.003229
0.00112564
0.00215416
0.00218822
0.00198677
0.000798445
0.000871569
0.00117846
0.00109037
0.0019604
0.000746539
0.00118284
0.00152497
0.00133629
0.000872572
0.00197061
0.000831478
0.000851532
0.00117595
0.00199669
0.00215356
0.000705068
0.00219703
0.00186552
0.00123259
0.000903251
0.0019389
0.000875593
0.00129762
0.00175807
0.00155956
0.00195272
0.000909811
0.00215342
0.00189285
0.00186339
0.00103629
0.0019909
0.00122068
0.00136811
0.00120666
0.00129642
0.000977503
0.0010225
0.00141299
0.00282585
0.000664547
0.00222725
0.00215338
0.000917943
0.000335051
0.0016411
0.00183021
0.0013535
0.00184253
0.00201343
0.0025958
0.00118283
0.00118275
0.000610345
0.000568239
0.00167198
0.00199142
0.00277896
0.0010192
0.00115847
0.000933948
0.000784135
0.00193795
0.00144223
0.000911622
0.000710152
0.00445755
0.00136144
0.00137771
0.00189748
0.00198895
0.00207377
0.00222899
0.00117955
0.000837538
0.00196403
0.00223711
0.00166256
0.00166553
0.00100438
0.000929662
0.00222598
0.00091449
0.00111268
0.00111039
0.0011554
0.000819528
0.00111165
0.00104708
0.00183317
0.00128187
0.0022062
0.00121975
0.00413739
0.00121489
0.00117908
0.00082727
0.000919634
0.0010143
0.00108166
0.00119565
0.00122614
0.00188968
0.000532907
0.00106865
0.00105934
0.000948723
0.00116804
0.00103219
0.00105821
0.00106404
0.000995198
0.000417832
0.000721526
0.00146417
0.00191581
0.000865183
0.00161292
0.00104534
0.00120762
0.00105842
0.00151916
0.00168327
0.00124887
0.00341533
0.00214388
0.000754087
0.00101794
0.0010136
0.00166963
0.00157823
0.000863657
0.00150559
0.00105381
0.00105561
0.00207693
0.00201492
0.00159411
0.000902544
0.0014788
0.000868839
0.00119098
0.000823367
0.00195668
0.00127143
0.000870189
0.00126201
0.000873838
0.00125054
0.00129707
0.0023854
0.00119351
0.00113005
0.00113166
0.0011784
0.000824247
0.000984659
0.00232054
0.002408
0.00244053
0.000991149
0.000691422
0.00096092
0.00101685
0.0019519
0.00084715
0.00105954
0.000693968
0.0009067
0.00308094
0.000412698
0.000899738
0.000830489
0.00186721
0.00190575
0.000879011
0.000884994
0.00118304
0.00118274
0.00118806
0.00152747
0.000674059
0.000682846
0.00244755
0.00195674
0.00123823
0.00129512
0.00110352
0.000902072
0.00402192
0.000730436
0.000869696
0.00117388
0.00220494
0.00184667
0.00076968
0.00205597
0.000880264
0.00160935
0.00174843
0.00115783
0.00114905
0.00206354
0.00222356
0.00203081
0.00133383
0.00172525
0.0020607
0.00210653
0.00222203
0.00144412
0.000966075
0.00190175
0.00101563
0.00185838
0.00208144
0.00131519
0.000816815
0.0011004
0.00039232
0.00149651
0.00150147
0.00189814
0.00157031
0.00114298
0.0012782
0.00128292
0.000564182
0.000833782
0.000884595
0.00299765
0.00108667
0.00129402
0.00093488
0.00152451
0.000922533
0.00169134
0.000635368
0.00204322
0.00233878
0.00204824
0.00209558
0.00186652
0.000976965
0.000870077
0.000927367
0.0014766
0.00207873
0.00220719
0.000924001
0.00111116
0.00207744
0.00118336
0.00208552
0.00144573
0.000955595
0.000900461
0.000794739
0.00119525
0.000888844
0.00118848
0.00113423
0.0010219
0.002075
0.0017379
0.00177116
0.000582088
0.000973257
0.0014316
0.000800026
0.00198262
0.00208888
0.00223026
0.0022384
0.000398674
0.00103854
0.000929114
0.00112008
0.000871693
0.000882928
0.00116774
0.00117105
0.00103471
0.000429185
0.00164556
0.000824846
0.00101529
0.00107856
0.00121625
0.00044226
0.00131948
0.00206469
0.00117228
0.00240902
0.0010749
0.00151199
0.00117438
0.00082612
0.00129032
0.000963411
0.00135619
0.000851957
0.00161918
0.00102835
0.000392011
0.000875837
0.000811609
0.00117678
0.000814108
0.00037144
0.00170763
0.000756827
0.00186608
0.0016119
0.00130659
0.00130894
0.00224343
0.00216355
0.00180493
0.00179486
0.000899223
0.000892891
0.000730687
0.00214813
0.00146036
0.00213193
0.00092461
0.0014765
0.000359259
0.00254574
0.00220261
0.00128981
0.000774421
0.000451884
0.000952757
0.000763395
0.00159696
0.00226766
0.00120909
0.000963916
0.00225339
0.000932482
0.00226743
0.00173902
0.00207326
0.00122775
0.00133696
0.00165226
0.000732482
0.00165689
0.00206966
0.00206278
0.00211029
0.000984999
0.000674345
0.00132022
0.00101938
0.00203525
0.00197126
0.002198
0.00197445
0.0021161
0.000944527
0.0015032
0.00226284
0.00168134
0.00130222
0.00174299
0.00330895
0.000496333
0.00119687
0.00195673
0.000823364
0.00170948
0.0027798
0.00168976
0.00140143
0.000825155
0.00128446
0.000862032
0.00123099
0.00172413
0.00171729
0.00168235
0.000845163
0.00117426
0.000724354
0.00230821
0.00089305
0.00197208
0.00236678
0.000901048
0.00162097
0.0012816
0.0008672
0.00145585
0.00144784
0.00217493
0.0015978
0.00114068
0.00288932
0.00169264
0.0022811
0.00676162
0.00186058
0.00216798
0.00115126
0.00159895
0.000899977
0.00186424
0.00256857
0.00110328
0.00105947
0.00117049
0.00117096
0.00103008
0.000743793
0.00114143
0.00191614
0.00188312
0.00189074
0.000748878
0.00194181
0.000944682
0.00173318
0.00143863
0.00223587
0.000796206
0.000750181
0.00202066
0.000998251
0.00217627
0.00120207
0.00222842
0.0011982
0.000892975
0.000896482
0.00088894
0.00195805
0.00106751
0.000985512
0.000979331
0.00096853
0.00148008
0.00086742
0.00122018
0.00107044
0.00105846
0.00103358
0.00189194
0.00204709
0.00290252
0.001629
0.00107732
0.001169
0.00116805
0.00232875
0.00118677
0.00165238
0.000725307
0.000773163
0.000776625
0.000714924
0.00114127
0.00134927
0.00202088
0.000716316
0.0018182
0.00107028
0.00159386
0.0008281
0.000994545
0.000710742
0.00181818
0.00145783
0.00223439
0.00100402
0.00157281
0.000914491
0.000852766
0.000678763
0.000671465
0.00215412
0.000883144
0.002084
0.000570751
0.001152
0.00131894
0.00119014
0.000461049
0.000736921
0.00208727
0.00173095
0.00111018
0.00148799
0.000571845
0.00086422
0.00155047
0.000894291
0.00113941
0.00113762
0.00151047
0.00121431
0.00152706
0.00356778
0.00125499
0.00177447
0.00158103
0.00170436
0.00111026
0.00107863
0.00139907
0.000621392
0.000967325
0.00174786
0.00127956
0.000720643
0.00168229
0.00142791
0.00255909
0.00115143
0.00112311
0.00109317
0.00119461
0.00155587
0.00160534
0.00162877
0.0021498
0.00155151
0.00116089
0.00187107
0.00202395
0.00183327
0.00117075
0.000894792
0.000899589
0.00120783
0.00102932
0.00100692
0.00107231
0.00106418
0.000493014
0.000482224
0.000843599
0.000989145
0.00105104
0.000430667
0.00092149
0.00101016
0.0007047
0.000906668
0.00143701
0.00142662
0.000997332
0.00141489
0.000832777
0.00129452
0.000979368
0.00127201
0.0013285
0.00125987
0.00133472
0.00217715
0.00139964
0.000813747
0.00196318
0.00148046
0.00110378
0.00089364
0.000571734
0.00095014
0.00170262
0.00168573
0.00183212
0.00170425
0.00127613
0.0013439
0.000319327
0.000949155
0.00191579
0.00695295
0.00142857
0.000899395
0.00183081
0.00185066
0.000958552
0.00115595
0.00151038
0.00129918
0.00187344
0.0022635
0.000642224
0.00102703
0.0017656
0.0018993
0.00114623
0.000694226
0.001575
0.00137143
0.00160487
0.00298614
0.0011156
0.00131418
0.00209061
0.00213261
0.00214446
0.000997958
0.00115209
0.00094497
0.00136479
0.000497453
0.00120759
0.00196464
0.000830144
0.00137836
0.00154313
0.00117287
0.00671495
0.00174931
0.00164648
0.00187127
0.00184867
0.00176649
0.001183
0.00206897
0.000900876
0.00105602
0.000963039
0.000884515
0.000887512
0.00139463
0.00114933
0.0014168
0.000978371
0.0016775
0.00096584
0.000965839
0.000994412
0.000843942
0.00170445
0.0020333
0.00200406
0.00210113
0.00125048
0.00114236
0.00131971
0.000983077
0.00164895
0.00136531
0.00296266
0.00224775
0.0014745
0.00155276
0.00240865
0.0019357
0.00207455
0.00166694
0.00186698
0.00042559
0.00232663
0.00209471
0.00106212
0.0022447
0.00140563
0.00127508
0.000860442
0.00217113
0.00136072
0.00211852
0.00126829
0.00126807
0.00195633
0.000940699
0.00154276
0.00126637
0.000907588
0.00199944
0.00141173
0.000824004
0.0024805
0.00189316
0.00127459
0.00125979
0.000882198
0.00150495
0.000628254
0.00291927
0.00124274
0.00061355
0.00102935
0.00102078
0.001988
0.00113199
0.00198654
0.000704267
0.00201093
0.000959785
0.00104251
0.00329629
0.00161992
0.000921733
0.00115681
0.00239581
0.0010836
0.000691609
0.00130457
0.000882296
0.00123046
0.00104911
0.00134194
0.000887859
0.00124912
0.0012368
0.00147367
0.00150646
0.00143881
0.00194502
0.00112565
0.00221988
0.00147415
0.0010267
0.000889337
0.00117601
0.00204538
0.00092128
0.00159674
0.0019606
0.000881248
0.00067063
0.000339216
0.00127069
0.000736318
0.000738956
0.00115917
0.000843996
0.00185389
0.000465746
0.00200639
0.00197081
0.00195335
0.00223691
0.00136344
0.000943819
0.00173346
0.00155835
0.00116225
0.00192613
0.00228775
0.00109087
0.00109438
0.000951499
0.00106769
0.00115229
0.00123069
0.00208143
0.00133599
0.00134559
0.00184012
0.00151649
0.000898054
0.00118477
0.0015529
0.00119139
0.0011852
0.00124414
0.000975805
0.00119399
0.000891631
0.000951974
0.00170581
0.000447127
0.00649502
0.000901495
0.00204955
0.00154069
0.00111795
0.00115125
0.000958262
0.0006179
0.000959501
0.000930384
0.00112344
0.00044464
0.000638776
0.00116664
0.00127028
0.00148137
0.00133068
0.00114864
0.00119499
0.00192998
0.00204408
0.00106982
0.00242006
0.00210377
0.0012281
0.00163949
0.000488625
0.00204593
0.00201041
0.00169741
0.00143734
0.00124866
0.00104478
0.00105134
0.00173126
0.00149028
0.00145687
0.00130939
0.00114507
0.00197083
0.00112895
0.00193356
0.00198326
0.00177947
0.00105065
0.00067751
0.001272
0.00121331
0.0015208
0.00119249
0.00229316
0.00172476
0.00191839
0.000943926
0.0018116
0.00128029
0.00160564
0.00199875
0.0012089
0.00110589
0.00113611
0.00140774
0.00116109
0.00162813
0.00178385
0.00100878
0.00132171
0.000665846
0.000842308
0.00112321
0.00134701
0.00129077
0.000992877
0.000992107
0.00153916
0.000910896
0.00221111
0.00105036
0.00105345
0.000435393
0.00180527
0.00234157
0.000428862
0.00205202
0.00728583
0.00212651
0.00203845
0.00116979
0.0013978
0.000789465
0.00119938
0.00161169
0.000633933
0.00202891
0.00116344
0.00111006
0.000506427
0.00193321
0.00132716
0.00141565
0.000829339
0.00154716
0.00098333
0.000958789
0.00213398
0.00155764
0.000781469
0.000795172
0.00268287
0.000947127
0.000941419
0.00222072
0.000877549
0.00125626
0.00125812
0.00634175
0.00103006
0.00111797
0.0012977
0.00198784
0.00123613
0.00210081
0.00230267
0.00176657
0.0012127
0.00155644
0.00232205
0.00106844
0.00103855
0.00111731
0.00198781
0.0015588
0.00199963
0.000891054
0.00169047
0.00224299
0.00091308
0.00224332
0.00175685
0.00113405
0.00212234
0.00220931
0.00244538
0.00181874
0.000894206
0.00168308
0.00166718
0.00239733
0.000895617
0.00178587
0.00114584
0.000679793
0.00213945
0.00117815
0.00111566
0.000364798
0.00118872
0.00118275
0.0022573
0.00148531
0.000945284
0.000933137
0.000938198
0.00147251
0.00190011
0.000974217
0.00129097
0.000851757
0.0014673
0.00206626
0.00194377
0.00214952
0.000444492
0.00046699
0.00199114
0.00208981
0.000900037
0.000454744
0.000419603
0.000933969
0.000496529
0.00144419
0.00107185
0.00177392
0.00105072
0.00248356
0.00052139
0.00134029
0.000554921
0.00101455
0.00215062
0.00214065
0.00213486
0.00189324
0.00203894
0.00214654
0.00207723
0.00145596
0.00154913
0.000886227
0.000656285
0.00167077
0.00063463
0.00116937
0.00135829
0.00178557
0.000978634
0.000743808
0.00166357
0.00173736
0.00151545
0.00135464
0.00157487
0.00156892
0.00146386
0.00128867
0.00182775
0.00178673
0.00176155
0.00180899
0.00219752
0.00212375
0.00224323
0.000940952
0.000734846
0.00191632
0.00208716
0.00288206
0.00186544
0.000992679
0.00221935
0.000967571
0.0012013
0.000392689
0.00111373
0.00177769
0.00163433
0.000593875
0.00188928
0.00067071
0.000534723
0.000529728
0.00252452
0.00090484
0.00159012
0.00218178
0.00199754
0.00106288
0.00201112
0.00142021
0.0011465
0.00141169
0.00211615
0.00119796
0.001413
0.00109932
0.000791312
0.000521705
0.0020054
0.000835357
0.00110883
0.000853063
0.00134372
0.000861071
0.00133286
0.00133993
0.000887603
0.00058858
0.000786016
0.0011256
0.000881479
0.000874476
0.0012566
0.000487296
0.000661316
0.00141989
0.00100442
0.000487064
0.0011176
0.00216004
0.0011682
0.00243134
0.00110678
0.00195024
0.00233589
0.00110677
0.00203364
0.00217026
0.00114661
0.00194676
0.00128586
0.00199655
0.00204296
0.00113506
0.00122928
0.00120288
0.00100728
0.000594057
0.00190417
0.00219669
0.00218467
0.000911683
0.00201506
0.00108265
0.000883557
0.000962715
0.00105041
0.0017417
0.00103951
0.00120587
0.00182623
0.00182679
0.00117361
0.00114563
0.00235049
0.00178097
0.0021065
0.00130438
0.00044106
0.00081437
0.00106085
0.001574
0.00148037
0.000906051
0.00100679
0.00101118
0.00160635
0.000977359
0.000992358
0.000994621
0.00151502
0.00101005
0.000858599
0.00127407
0.00158335
0.0011387
0.00112835
0.00142922
0.000772439
0.00115174
0.00115326
0.00399167
0.00119495
0.000890519
0.00104959
0.000652134
0.000746789
0.00111084
0.00166276
0.00219706
0.00132258
0.000750243
0.00212951
0.00164648
0.00130982
0.000891642
0.00130685
0.000887489
0.00105239
0.000999223
0.00217672
0.00140872
0.00078854
0.00172746
0.00183329
0.0017488
0.00186592
0.00217813
0.00207235
0.00198113
0.00105937
0.000645376
0.00638906
0.00247818
0.00220485
0.00137213
0.00227447
0.000627641
0.00112837
0.00103831
0.00103824
0.000608912
0.00104606
0.0009088
0.00264861
0.00183378
0.00132145
0.00127296
0.00214074
0.000923333
0.00110083
0.00130902
0.00088098
0.00216399
0.00180447
0.00116285
0.000526963
0.00211914
0.0019121
0.00175324
0.0020208
0.000617082
0.00248462
0.00203811
0.000950737
0.0015064
0.00120547
0.00208205
0.000765899
0.000776226
0.00169747
0.00116032
0.00117102
0.00188545
0.000601386
0.00121272
0.0020384
0.000800832
0.00205583
0.00100616
0.0010557
0.0017337
0.0011723
0.000428947
0.000947301
0.000441947
0.00104316
0.00104005
0.00100502
0.00080456
0.00198396
0.00115513
0.000725861
0.00182479
0.00186944
0.00120426
0.00123224
0.000663657
0.000655525
0.00200602
0.00198268
0.00196428
0.00137407
0.000932285
0.00234902
0.000961292
0.000472416
0.000920712
0.00131781
0.000846979
0.00204992
0.00110642
0.00131103
0.00136724
0.00159314
0.00179231
0.00199249
0.000922053
0.00153323
0.00148347
0.000863871
0.00214944
0.00140253
0.000978866
0.00153156
0.000998095
0.00157938
0.00156688
0.00223527
0.000732679
0.000959499
0.000954478
0.00613821
0.0052877
0.000925693
0.00116482
0.00129797
0.000847282
0.00200293
0.000741688
0.00115479
0.00182878
0.00126038
0.000872003
0.00179961
0.00211885
0.000727141
0.00126392
0.00192893
0.00127829
0.00202392
0.00498703
0.00116563
0.00118061
0.000606354
0.00100397
0.002078
0.00139131
0.00140835
0.0019927
0.00058578
0.00221038
0.000869293
0.00210541
0.00144962
0.00211223
0.00154604
0.00129067
0.000772563
0.00132544
0.00240459
0.00102088
0.00211732
0.00130963
0.00200602
0.00120906
0.00121385
0.00108796
0.00108073
0.000882458
0.00122866
0.00203489
0.00135685
0.00129046
0.000928951
0.00109119
0.00116421
0.00194849
0.00151313
0.00191603
0.00220444
0.00152944
0.00103487
0.00106072
0.000756428
0.000943052
0.000941407
0.00105542
0.00214195
0.00106749
0.00209115
0.00200765
0.00189441
0.00097886
0.000978669
0.00202434
0.00128203
0.000854362
0.00218373
0.00138342
0.00106618
0.0018927
0.00107629
0.00106038
0.00230594
0.00228784
0.00206869
0.00157934
0.00157562
0.00238463
0.00132186
0.00185158
0.00172385
0.00246896
0.00143742
0.00143835
0.00129987
0.000914708
0.0016835
0.00176478
0.000867944
0.000864254
0.00134677
0.00215374
0.00115491
0.000893453
0.000868901
0.000994544
0.00571903
0.00148463
0.00190373
0.00069982
0.00067891
0.00143618
0.000874195
0.00117768
0.00286377
0.00118735
0.000823434
0.000949951
0.00102729
0.00103525
0.00142494
0.00106086
0.00156916
0.00065812
0.00202759
0.00208035
0.00169674
0.000868915
0.000835137
0.00117862
0.00202625
0.00114606
0.00216865
0.0012411
0.00122136
0.00261483
0.00202895
0.00116246
0.000466862
0.000492027
0.00289777
0.00086094
0.00116782
0.000988501
0.00108637
0.00190358
0.00110662
0.000960658
0.00147254
0.000893816
0.000451814
0.00117282
0.00203428
0.00107472
0.00178575
0.000985663
0.000909342
0.00195816
0.00167274
0.00130981
0.00234683
0.00148646
0.0020113
0.00195118
0.00188902
0.00216515
0.000834297
0.00128428
0.00118199
0.000950883
0.00104692
0.00184017
0.00160645
0.00154903
0.000793049
0.000943906
0.000970877
0.00190861
0.00148991
0.00147566
0.00123539
0.000898335
0.000785851
0.000787044
0.00103231
0.000754475
0.000620957
0.000964758
0.00132611
0.00154821
0.00297099
0.000560436
0.00111859
0.000558642
0.000464105
0.000858313
0.00234888
0.00230845
0.00139699
0.00152205
0.0010419
0.00251532
0.000871657
0.000773227
0.00194378
0.000382271
0.000947699
0.000947671
0.00235928
0.00177455
0.00146653
0.00251799
0.000761172
0.00097425
0.00102947
0.00199509
0.00174841
0.00150266
0.00207617
0.00267566
0.00085258
0.00117109
0.00199185
0.00156834
0.000720545
0.00206173
0.00132425
0.000934664
0.000970601
0.000669933
0.00131212
0.000978013
0.00219211
0.00110993
0.0010952
0.000787869
0.00079271
0.00110214
0.000949259
0.000944909
0.00097701
0.00201201
0.00194561
0.00198665
0.000976336
0.0014132
0.00224494
0.00188789
0.00187136
0.00158853
0.000749184
0.000761214
0.00181562
0.00201178
0.00185247
0.00129396
0.000865955
0.00117886
0.00178451
0.00205344
0.00284817
0.00209282
0.00185969
0.00171913
0.00201212
0.000737077
0.00117983
0.00159379
0.00237395
0.00115806
0.00203366
0.00105463
0.000918589
0.000910819
0.000904317
0.00089004
0.00186007
0.00168449
0.00169519
0.000975656
0.0023318
0.00151841
0.000948851
0.00171533
0.00189404
0.00112077
0.000994741
0.00131762
0.000868282
0.00107933
0.0009
0.00221659
0.00152731
0.00130903
0.00191855
0.00121836
0.00118233
0.000843421
0.00158252
0.00203674
0.000823529
0.000823167
0.00117687
0.0011763
0.00121475
0.00189741
0.00189615
0.00215018
0.000539966
0.00103657
0.00102585
0.00151047
0.00171335
0.00205446
0.000909999
0.00197497
0.00141885
0.00156716
0.00149369
0.00219669
0.00102961
0.00106942
0.00106787
0.00251365
0.00090012
0.000905297
0.00265776
0.00100196
0.00150716
0.000392704
0.000913019
0.00156462
0.00265832
0.00135492
0.00101215
0.00117257
0.00256075
0.00164398
0.00098183
0.00193922
0.00183522
0.00116582
0.000444108
0.00104535
0.00145742
0.000688409
0.00521383
0.000971346
0.000899784
0.000811839
0.001799
0.00279187
0.00235851
0.00182945
0.00120446
0.000889197
0.00151013
0.00221921
0.00113966
0.000903281
0.001812
0.00172957
0.00108867
0.000532498
0.00107694
0.00152252
0.00151021
0.00176932
0.00206065
0.001207
0.00120302
0.000720694
0.00204258
0.00122397
0.00189284
0.00119242
0.00113727
0.00117146
0.00179926
0.00119513
0.00123495
0.00214511
0.0025365
0.00130219
0.000944137
0.00162881
0.00202681
0.000692709
0.0014925
0.00132792
0.00086048
0.00105664
0.00265623
0.00125517
0.000886644
0.00196459
0.001373
0.000850385
0.00128691
0.00127551
0.000713232
0.0017384
0.000830219
0.00140476
0.00134811
0.000891082
0.000888526
0.00114231
0.00127025
0.000674982
0.00156425
0.00134853
0.00162839
0.00174197
0.00094238
0.00276276
0.00188739
0.0012569
0.000906332
0.00205518
0.00121955
0.00117881
0.00263324
0.00188553
0.0014545
0.00156559
0.000636671
0.000854724
0.00117413
0.00162488
0.0017959
0.00175628
0.000962626
0.00152437
0.00211661
0.00179333
0.00195425
0.00134898
0.00122244
0.00151718
0.00116657
0.00121484
0.00123868
0.0021559
0.0012501
0.00209829
0.00136109
0.000815886
0.0011881
0.00087569
0.00230639
0.00166777
0.000955985
0.00134793
0.00172395
0.00122941
0.001684
0.00205261
0.00123771
0.0015362
0.00156637
0.000889097
0.00060253
0.00128492
0.00202944
0.0011398
0.00141295
0.000714997
0.00207838
0.00185787
0.00101466
0.00190895
0.00117325
0.00208782
0.00119099
0.0015317
0.00185261
0.00127223
0.000870664
0.00126699
0.00104445
0.00073229
0.00193475
0.00189829
0.00115631
0.000731323
0.00146703
0.000966509
0.00221872
0.00175866
0.00222095
0.00147361
0.00172676
0.000985095
0.00186277
0.00118034
0.00128235
0.00136491
0.0016471
0.00162396
0.000896704
0.00102561
0.00120418
0.000889088
0.00095074
0.0022172
0.00110883
0.00106633
0.0008107
0.00136148
0.000985333
0.00093991
0.00186045
0.00101626
0.00163998
0.00124585
0.0010108
0.00141645
0.0017705
0.000801842
0.00222287
0.00159113
0.00141583
0.00107704
0.00186238
0.00104231
0.000839234
0.00117702
0.000820946
0.00117756
0.00210463
0.000957268
0.00196186
0.00139382
0.00113441
0.00106834
0.00226677
0.0018669
0.00193173
0.00100529
0.00120588
0.00128881
0.00136872
0.000867433
0.00105351
0.00139134
0.000830568
0.0019244
0.00139178
0.00140466
0.00083304
0.00103368
0.00101749
0.00201292
0.0022233
0.00199627
0.00217575
0.000961396
0.00210004
0.00211775
0.00115602
0.00114892
0.00120958
0.00120834
0.00157415
0.00124786
0.00104248
0.00205459
0.00113056
0.000956123
0.00143397
0.00137907
0.000828831
0.00103482
0.000936313
0.00092553
0.00192164
0.00156744
0.00245437
0.0011878
0.000636961
0.000620886
0.000965516
0.00130983
0.00128426
0.00104692
0.00205562
0.00103253
0.00221647
0.00106223
0.00118069
0.000700274
0.00179721
0.00108513
0.000646297
0.00148516
0.00150126
0.00180931
0.00230853
0.00152761
0.00155418
0.000534523
0.000945417
0.00226476
0.00203598
0.00209021
0.00133177
0.000861277
0.00130945
0.00175553
0.00104444
0.00114656
0.0011308
0.00399828
0.00066674
0.00216727
0.000913039
0.00207279
0.00245975
0.00122488
0.000944814
0.000936451
0.00131239
0.000842042
0.00132324
0.00198421
0.00215685
0.00145976
0.000587932
0.00150825
0.00100319
0.00173073
0.00127005
0.000996437
0.000999073
0.00198714
0.0014083
0.00143349
0.00174536
0.000932663
0.00168685
0.00106381
0.00195863
0.00173053
0.00123933
0.00130801
0.00146426
0.0010537
0.00127808
0.00129015
0.00161111
0.000914335
0.00161018
0.00195534
0.00130064
0.00131955
0.00202433
0.00107606
0.00235413
0.00119951
0.00126239
0.00247009
0.00052002
0.00113868
0.000608619
0.000887343
0.00071573
0.000806355
0.000599098
0.00128293
0.000860555
0.00088834
0.00207316
0.0011396
0.00209801
0.00134369
0.00083457
0.00153787
0.00136327
0.00139336
0.00138401
0.00163415
0.00132987
0.00209553
0.00210492
0.00157753
0.00119307
0.000531713
0.00123165
0.00109423
0.00212333
0.000794943
0.00290847
0.000931961
0.00124303
0.00123127
0.00221212
0.00196565
0.00195848
0.000503866
0.000979427
0.00105966
0.00161577
0.00181902
0.00173389
0.00122999
0.00111788
0.00111765
0.00151703
0.00267648
0.000684908
0.00210806
0.00105615
0.00106046
0.000846199
0.00169396
0.000895479
0.000888093
0.00123787
0.00117882
0.00147265
0.00153756
0.000785507
0.00115995
0.000728656
0.00154762
0.00266574
0.0013368
0.000916595
0.0012836
0.00127802
0.00103794
0.00102224
0.00156548
0.000900434
0.00206575
0.00195885
0.00160066
0.00118077
0.00103418
0.00109994
0.0010246
0.000932903
0.00124946
0.00144127
0.00149216
0.00150229
0.00140392
0.0013965
0.001053
0.00112763
0.000939291
0.00212676
0.00155301
0.00167736
0.000550809
0.00276258
0.000733387
0.00101098
0.0013286
0.00084109
0.00136091
0.000819195
0.00313858
0.00161333
0.0024672
0.00183657
0.0013504
0.00123965
0.00195271
0.00258003
0.00117934
0.000544795
0.00183104
0.00161114
0.00339494
0.00144756
0.00106819
0.00209053
0.00162553
0.00139634
0.000835041
0.00115735
0.00207678
0.00222942
0.00108539
0.000673454
0.00314835
0.00124395
0.000587288
0.00163114
0.000715558
0.00133589
0.000843565
0.00122682
0.00204813
0.00103499
0.00139658
0.0020848
0.00139193
0.00103862
0.00134872
0.00109756
0.00252741
0.00202594
0.00130962
0.00218305
0.00146421
0.00109688
0.000745511
0.00144783
0.00160004
0.00207026
0.0020272
0.00224363
0.00191536
0.00171415
0.00110969
0.00127669
0.000917318
0.00116102
0.000932531
0.000938349
0.000459109
0.00136626
0.000868093
0.00291083
0.00195088
0.0019459
0.00228272
0.00175942
0.000947617
0.00118221
0.00148809
0.000993157
0.000857207
0.00117184
0.00118056
0.00134374
0.0021313
0.00131501
0.000838455
0.001353
0.00076602
0.00166385
0.00117418
0.000853485
0.00184482
0.000624297
0.00086298
0.00150832
0.00127429
0.000718391
0.000813517
0.00227113
0.000863551
0.00117799
0.00101363
0.00142714
0.00174723
0.00150514
0.000983525
0.00108258
0.00185858
0.00234292
0.00134668
0.000635407
0.0011042
0.000903387
0.00206077
0.000827862
0.00117851
0.00196672
0.00182062
0.00189229
0.00140761
0.000782271
0.00100861
0.00231974
0.000956868
0.00106788
0.00123644
0.000649046
0.00490634
0.000977169
0.00119154
0.000629558
0.00233843
0.00144122
0.00111178
0.000965278
0.00125607
0.00125072
0.000986968
0.00177899
0.00164125
0.00143655
0.000720396
0.000745351
0.00151343
0.000993097
0.00116671
0.00183263
0.0011175
0.00111014
0.00218112
0.00155344
0.000899047
0.00190994
0.000383716
0.00209106
0.00109259
0.00209733
0.00173652
0.00169206
0.00171496
0.00200679
0.00137736
0.00202252
0.00173153
0.00169221
0.0019122
0.00207776
0.00147363
0.000958588
0.000874184
0.00213055
0.00204718
0.00235794
0.00117129
0.00131122
0.00223243
0.00150489
0.000979025
0.000974695
0.000934363
0.001089
0.00108556
0.00198439
0.00136101
0.00121899
0.00121234
0.00145882
0.00116269
0.00211421
0.00172669
0.000996518
0.00112518
0.00179396
0.00155198
0.00154256
0.000542502
0.00144285
0.000948908
0.000948416
0.00115259
0.00115258
0.000893586
0.000987866
0.000780006
0.000638965
0.000946749
0.00230219
0.00194252
0.000933648
0.00203189
0.00208542
0.00225343
0.00216849
0.00613711
0.00209026
0.00129712
0.00160384
0.000983581
0.00147213
0.000339236
0.00143556
0.0015768
0.00160355
0.00114915
0.00185572
0.000404688
0.000360753
0.00173321
0.000377566
0.00243303
0.00080159
0.00109426
0.00088115
0.00156439
0.00128536
0.00238674
0.00139868
0.00176879
0.00102826
0.00119277
0.0017505
0.00217686
0.000725026
0.00282899
0.00176054
0.00137839
0.00214374
0.000828372
0.00155186
0.00160932
0.0010034
0.000988745
0.00523901
0.00214518
0.00129581
0.000723391
0.00138509
0.000850176
0.00350422
0.00219491
0.00072864
0.00125456
0.00214752
0.000937019
0.00076094
0.00118865
0.00213608
0.00108002
0.00123366
0.00212761
0.00148757
0.0014904
0.00182307
0.000816778
0.00182161