/*--------------------------------*- C++ -*----------------------------------*\
| =========                 |                                                 |
| \\      /  F ield         | OpenFOAM: The Open Source CFD Toolbox           |
|  \\    /   O peration     | Version:  v2012                                 |
|   \\  /    A nd           | Website:  www.openfoam.com                      |
|    \\/     M anipulation  |                                                 |
\*---------------------------------------------------------------------------*/
FoamFile
{
    version     2.0;
    format      ascii;
    class       volSymmTensorField;
    location    "8";
    object      epsilon;
}
// * * * * * * * * * * * * * * * * * * * * * * * * * * * * * * * * * * * * * //

dimensions      [0 0 0 0 0 0 0];


internalField   nonuniform List<symmTensor> 
7666
(
(0.000378348 -0.000129481 -8.88925e-20 -0.000205216 -9.89733e-21 0)
(0.00105967 -0.000397968 3.33472e-19 -0.000339175 5.49632e-20 0)
(0.0033009 -0.00119042 -1.17898e-18 -0.00092705 -5.24739e-19 0)
(0.00130295 -0.000519826 -1.6577e-19 -0.00048935 -2.67923e-19 0)
(0.00200644 -0.000359593 9.56758e-21 -0.001086 8.2133e-21 0)
(0.0023538 1.32182e-05 2.09209e-19 -0.00108259 2.2135e-19 0)
(0.00131316 -6.86338e-05 9.89066e-19 -0.000412306 3.06046e-19 0)
(0.00138892 -0.000474655 -4.59988e-20 -0.000504555 3.55472e-20 0)
(0.00261154 1.21312e-05 -6.28361e-19 -0.00110646 -4.74855e-19 0)
(0.00128181 -0.00013975 -5.46279e-20 -0.000345819 -2.1168e-20 0)
(0.000944565 -0.000474625 0 -0.000324267 0 0)
(0.00144414 -0.000200496 -2.49474e-19 -0.000560298 2.02035e-19 0)
(0.00135271 -0.000480804 -2.5024e-19 -0.000481107 7.40815e-20 0)
(0.00121458 -0.000406413 -1.84605e-19 -0.000400768 -5.76041e-20 0)
(0.00128617 -4.79871e-05 0 -0.000338025 0 0)
(0.00200789 -0.000448763 1.48674e-18 -0.00114259 7.91309e-19 0)
(0.0013412 -0.000477011 6.38057e-19 -0.000509349 6.70001e-20 0)
(0.00248352 -7.34215e-05 -4.65642e-20 -0.00105996 -2.89999e-19 0)
(0.00150754 -0.000300457 3.5692e-19 -0.000593906 1.34571e-19 0)
(0.00114437 -0.000268208 -2.04555e-19 -0.000324458 2.82717e-20 0)
(0.000936027 -0.000113165 3.86888e-19 -0.000205618 -2.48211e-20 0)
(0.00185752 -0.000357768 6.03706e-19 -0.000783304 -1.9668e-19 0)
(0.00126243 -0.000413099 -1.52246e-19 -0.000433118 6.12227e-20 0)
(0.00122386 -0.000561934 3.77404e-19 -0.000479255 5.47508e-20 0)
(0.00239179 0.00010219 8.44769e-21 -0.00120639 1.01166e-19 0)
(0.00127292 -6.09993e-05 -4.88481e-19 -0.000334487 -2.24589e-19 0)
(0.00237431 0.000107664 -2.27478e-19 -0.00121834 -9.432e-20 0)
(0.000721631 -0.000523315 2.40845e-20 -0.000336361 -6.14377e-21 0)
(0.00133201 -0.000474534 9.46826e-20 -0.000500889 2.54218e-20 0)
(0.00139994 -2.50131e-05 -9.46129e-20 -0.000584712 1.9509e-19 0)
(0.0014399 -3.18653e-05 -4.00091e-20 -0.000608916 -5.02078e-21 0)
(0.00241151 -8.40192e-05 -7.58973e-19 -0.00104697 -3.96259e-19 0)
(0.000461923 -0.000408298 -7.9122e-20 -0.000419445 -8.54101e-20 0)
(0.00138536 -8.45776e-05 -7.65168e-19 -0.000534217 -1.97143e-19 0)
(0.000352849 -0.000344159 7.24654e-19 -0.00065786 3.35636e-19 0)
(0.00107365 -0.000295301 1.47278e-19 -0.000280311 6.00805e-20 0)
(0.00104723 -0.000278456 -3.05033e-19 -0.000276178 -2.15185e-20 0)
(0.00143096 -7.13435e-05 9.10699e-19 -0.00058634 5.44692e-19 0)
(0.00226863 -0.000167054 -1.52903e-18 -0.000997916 -9.30346e-19 0)
(0.00127475 -0.000188049 2.06926e-19 -0.000367014 5.40599e-20 0)
(0.00132088 -0.000624203 5.84798e-19 -0.00104104 6.7464e-19 0)
(0.00301228 0.000339472 3.6231e-19 -0.00105979 2.35798e-19 0)
(0.00266783 0.00015907 -5.83184e-19 -0.00062081 -2.43588e-19 0)
(0.000933415 -0.000594073 -8.33108e-19 -0.000447373 -2.45736e-19 0)
(0.0023646 0.00035523 -1.63024e-20 -0.000799485 1.10291e-19 0)
(0.00130734 -6.26329e-05 4.80646e-19 -0.000378122 9.33898e-20 0)
(0.00243508 3.76665e-05 -1.28355e-18 -0.00109378 -9.3714e-19 0)
(0.00128232 -0.000625632 2.41753e-19 -0.00101533 1.14446e-19 0)
(0.00161894 -0.000622095 -3.18938e-19 -0.00108635 -2.59502e-19 0)
(0.000670354 -0.00013839 -2.81052e-20 -0.000163195 -7.67056e-20 0)
(0.000723583 -0.00049719 2.21498e-19 -0.000343832 6.92628e-20 0)
(0.00185348 -0.000215799 -5.09856e-20 -0.00077141 -1.7448e-19 0)
(0.00132003 -4.09908e-05 -9.73784e-20 -0.000448339 2.15277e-20 0)
(0.00259961 3.33686e-05 -7.63774e-19 -0.00112036 -5.77671e-19 0)
(0.00082434 -6.01343e-05 1.14447e-19 -0.000179617 4.1236e-20 0)
(0.00211674 -0.00048924 1.24844e-19 -0.00106122 2.77632e-19 0)
(0.000694468 -0.000184263 8.88618e-20 -0.000167771 5.83936e-20 0)
(0.000729225 -0.000154862 -9.5572e-20 -0.000148631 -6.98183e-21 0)
(0.00243825 -9.09535e-06 7.13764e-19 -0.00134693 4.37633e-19 0)
(0.00233927 4.4041e-06 -2.37527e-19 -0.00111889 -1.93245e-19 0)
(0.000827186 -0.000276083 -2.4233e-19 -0.000213084 1.21886e-21 0)
(0.00141336 -6.01478e-05 -3.40563e-19 -0.000594615 1.92822e-19 0)
(0.00126332 -0.000471386 -1.98299e-20 -0.000450106 1.06175e-19 0)
(0.00129463 -0.000469886 1.6914e-19 -0.000448002 -5.48455e-20 0)
(0.000709198 -0.000246288 -2.14283e-19 -0.000176428 -1.49067e-20 0)
(0.00164397 -0.000597869 -5.59633e-19 -0.00102518 -2.75121e-19 0)
(0.00123307 -0.000146667 -5.41712e-19 -0.000289522 -1.33574e-19 0)
(0.000693916 -0.000219513 -4.86363e-20 -0.000178352 -3.14341e-20 0)
(0.00235541 -0.000248597 -8.59919e-19 -0.00126193 -5.52067e-19 0)
(0.00242545 1.71736e-05 0 -0.00131098 0 0)
(0.0024481 -0.000176866 3.50869e-19 -0.00127615 2.15944e-20 0)
(0.00120467 -2.83332e-05 -5.75195e-20 -0.000182744 -1.13611e-19 0)
(0.0012033 -2.82896e-05 -4.9182e-19 -0.00017179 -8.4167e-20 0)
(0.0013897 -1.41321e-05 -2.46114e-20 -0.000584499 -4.70055e-20 0)
(0.00139348 -1.55106e-05 -2.15273e-20 -0.000587504 -4.2582e-20 0)
(0.00131804 -6.20461e-06 -1.44044e-20 -0.000426029 4.23118e-20 -1.35199e-35)
(0.00189997 0.000286448 9.44558e-19 -0.000699544 5.8353e-19 0)
(0.00119649 -0.00043173 -5.63044e-19 -0.000405133 -3.17145e-20 0)
(0.00123479 -0.000432748 0 -0.000405388 0 0)
(0.000870211 -0.000297793 1.70397e-19 -0.000216317 6.32264e-21 0)
(0.00133069 -0.000156384 -3.63372e-19 -0.000453739 -3.83961e-20 0)
(0.00122877 -7.2313e-05 4.34822e-19 -0.000239387 5.31419e-20 0)
(0.00119589 -0.000671304 1.52181e-19 -0.000644751 5.45698e-20 0)
(0.00270271 0.000227142 6.83647e-19 -0.00072005 2.54454e-19 0)
(0.00151567 -0.000161515 -4.36897e-19 -0.000612652 5.95705e-20 0)
(0.00176439 -6.63099e-05 3.68391e-19 -0.000775745 -1.71006e-19 0)
(0.0017924 -7.56543e-05 -2.58536e-19 -0.000744681 -4.97511e-19 0)
(0.00187005 -0.000285644 -7.55992e-19 -0.000809107 -1.22795e-19 0)
(0.0015569 -0.000633642 7.55515e-19 -0.00102697 2.81816e-19 0)
(0.00142206 -4.34699e-05 -2.55164e-19 -0.000595901 2.25102e-20 0)
(0.0013198 -0.000315596 -5.34149e-20 -0.000441265 -1.55558e-20 0)
(0.00131694 -0.00030944 1.66585e-19 -0.000442465 -1.32094e-19 0)
(0.0019108 -9.36036e-06 -8.75318e-19 -0.000810864 -7.08088e-20 1.35301e-34)
(0.00259696 8.54017e-05 -2.61863e-18 -0.00132662 -2.25569e-18 0)
(0.00239337 1.19793e-05 9.76524e-19 -0.00102503 3.05393e-19 -3.25105e-35)
(0.00190853 -0.000440791 -8.48007e-19 -0.00123252 -6.16153e-19 0)
(0.000355086 -0.000201808 -2.29046e-19 -0.000852045 -2.36135e-19 0)
(0.00322924 -0.00129139 -1.17486e-18 -0.00110002 -2.61754e-19 0)
(0.00150619 -0.000290118 3.75513e-19 -0.000601937 1.06102e-19 0)
(0.00115569 -0.000254741 -1.86262e-19 -0.000309579 -1.23208e-19 0)
(0.00193268 -3.57901e-05 2.43117e-19 -0.000818164 -3.15143e-19 0)
(0.00140183 -2.14885e-05 -3.40045e-19 -0.000588247 -2.5723e-20 0)
(0.000554926 -0.000501516 -4.04164e-20 -0.000399405 -2.258e-20 0)
(0.00308726 -5.3522e-05 -5.27917e-19 -0.00125278 -5.71037e-19 0)
(0.00083575 -0.000619173 -8.19148e-19 -0.000686209 -2.79397e-19 0)
(0.00221274 -0.000219784 3.14771e-19 -0.000992769 9.13479e-20 0)
(0.00266795 0.000381295 -9.82665e-19 -0.000895053 -7.64563e-19 0)
(0.00196617 -0.000374721 -1.63857e-19 -0.00100221 -9.66373e-20 0)
(0.0013087 -6.50628e-05 3.61449e-19 -0.000411128 7.61002e-20 0)
(0.00188102 -0.00016671 -2.58915e-19 -0.000779624 2.61416e-19 0)
(0.00119985 -0.000478631 1.88414e-19 -0.000410845 1.76228e-19 0)
(0.00183391 -0.000458499 9.92024e-20 -0.00087027 5.8373e-20 0)
(0.00101085 -0.000463424 2.05033e-19 -0.000339955 -2.05311e-20 0)
(0.000850495 -0.000261378 -5.48232e-20 -0.000189988 7.28787e-20 0)
(0.000894063 -0.000469168 5.49939e-19 -0.000296763 7.98992e-20 0)
(0.00213394 -0.000261769 -6.83781e-19 -0.00111666 -4.35657e-19 0)
(0.000764337 -0.000486659 -7.12627e-20 -0.000319014 -3.76132e-20 0)
(0.000456764 -0.000268777 -2.15274e-20 -0.00091237 -1.42315e-20 0)
(0.00144272 -0.000101174 5.30719e-20 -0.000595774 -3.94595e-21 0)
(0.00144659 -0.000109307 3.32769e-20 -0.000596468 1.4047e-19 0)
(0.0024773 -1.53265e-05 2.91932e-19 -0.00107582 1.75795e-19 0)
(0.00138233 -1.02511e-05 -4.79297e-19 -0.000583448 -2.10883e-19 0)
(0.00139018 -0.000221566 1.02114e-19 -0.000523083 -2.04283e-19 0)
(0.00127308 -8.35558e-05 5.77222e-19 -0.000332917 1.22161e-19 0)
(0.00118495 -0.000567763 -7.30946e-20 -0.000480586 -1.43421e-20 0)
(0.0006856 -1.26776e-05 -1.49029e-19 -0.000146217 -1.26841e-20 0)
(0.00199632 -0.000375023 4.95177e-19 -0.000952068 2.17565e-19 0)
(0.00171346 -0.00049597 -4.92821e-19 -0.000777403 -1.62499e-19 0)
(0.00138172 -0.00060551 -5.39961e-19 -0.000629859 -3.00758e-19 0)
(0.00134391 -0.000382616 0 -0.000477116 0 0)
(0.00203262 -0.000535367 -5.68226e-19 -0.000958001 -6.67565e-19 0)
(0.00161646 -0.00021591 -2.51435e-20 -0.000686569 1.42528e-19 0)
(0.00106541 -0.000171308 -1.08573e-19 -0.000253312 4.59351e-20 0)
(0.00184131 0.000104612 -6.88891e-19 -0.000649364 -2.98998e-19 0)
(0.00140132 -0.000215457 -1.69058e-19 -0.000517959 -2.00237e-20 0)
(0.00219044 -0.000198526 -4.27597e-19 -0.000972055 -9.28084e-20 0)
(0.00132893 -0.000150796 -5.52866e-20 -0.000439783 -9.09593e-20 0)
(0.00128873 -0.000183908 2.65431e-19 -0.000374337 7.89616e-20 0)
(0.00126661 -0.000355011 3.49811e-19 -0.000403602 1.11161e-19 0)
(0.00118012 -0.000541555 -2.80588e-19 -0.000438602 2.86149e-20 0)
(0.00138971 -0.00059787 -4.62341e-19 -0.000639861 -1.64262e-19 0)
(0.00122513 -6.02031e-05 2.71847e-19 -0.000229275 7.21761e-20 0)
(0.00118907 -4.10154e-05 1.95597e-19 -0.000254411 -2.95386e-20 0)
(0.00118827 -3.02038e-05 2.49407e-19 -0.000252241 2.8078e-20 0)
(0.00121646 -0.000156126 2.11221e-19 -0.000304085 1.20339e-19 0)
(0.00124517 -0.000263318 1.37614e-19 -0.000362453 1.81119e-19 0)
(0.0013084 -8.66445e-05 -3.38585e-19 -0.000394894 -9.93334e-20 0)
(0.00123131 -4.91128e-05 2.22339e-20 -0.000212958 5.14555e-20 0)
(0.000463328 -0.000225634 1.13505e-19 -0.00021922 1.98406e-20 0)
(0.00144577 -0.000398737 -1.30921e-19 -0.000530821 1.22279e-19 0)
(0.00127625 -0.000134686 -7.9754e-19 -0.000356266 -6.18933e-20 0)
(0.0015444 -0.000614103 3.00823e-19 -0.00110959 -7.83668e-20 0)
(0.000850185 -0.000313714 -1.97938e-19 -0.000235515 -4.11902e-20 0)
(0.00113475 -0.000648498 5.17319e-19 -0.000956633 6.04768e-19 0)
(0.00116342 -0.000162986 -2.68218e-19 -0.000291832 -3.69316e-20 0)
(0.00117478 -0.000148787 2.01869e-19 -0.00028538 -5.54138e-20 0)
(0.00130188 -0.000636952 -4.92905e-19 -0.000987154 -3.33264e-19 0)
(0.00149117 -0.000587399 -2.23423e-19 -0.000721392 -1.68069e-20 0)
(0.00126458 -0.000566683 -9.68155e-20 -0.00051939 -8.66425e-20 0)
(0.0013515 -6.93763e-05 -3.90886e-19 -0.000514145 -1.3843e-19 0)
(0.00287906 0.000253305 -5.45363e-20 -0.00122357 -4.87526e-20 0)
(0.00182046 2.28737e-05 0 -0.00079154 0 0)
(0.00180911 -0.000385326 -2.82446e-19 -0.000790642 -5.86944e-20 0)
(0.00286806 0.000392513 -2.91675e-19 -0.000892187 -1.10318e-19 0)
(0.00317219 -0.000361982 -2.35294e-18 -0.001195 -1.46987e-18 0)
(0.0031605 -0.000229565 -1.42937e-18 -0.00116416 -1.06574e-18 0)
(0.0012893 -0.000558148 6.04806e-19 -0.00051462 1.2589e-19 0)
(0.00066337 -0.000164028 -2.55575e-19 -0.00016529 -5.43086e-20 0)
(0.000716576 -0.000199084 -8.98057e-20 -0.000153818 2.33094e-20 0)
(0.00279692 0.000290294 1.77964e-18 -0.00122069 1.50908e-18 0)
(0.00104252 -0.000429739 0 -0.000335107 0 0)
(0.000840219 -0.000465513 -3.0935e-19 -0.000308777 -1.0386e-20 0)
(0.00173025 -0.00037279 4.65757e-19 -0.000715379 -1.01861e-20 0)
(0.0016675 -0.000172944 3.58701e-20 -0.000692308 2.95092e-19 0)
(0.00159507 -0.000586695 1.69931e-18 -0.00110307 7.07031e-19 0)
(0.000833206 -7.62357e-05 -2.5175e-19 -0.000172328 -2.34227e-20 0)
(0.00185987 -0.000438081 1.15548e-19 -0.000844308 -1.36502e-19 0)
(0.00223774 1.76857e-05 4.17318e-19 -0.00095541 3.01749e-19 -6.60312e-34)
(0.00148769 -6.7179e-05 3.00541e-19 -0.000629986 -3.12381e-20 0)
(0.00131206 -0.000515507 -2.31587e-19 -0.00049984 -2.47428e-19 0)
(0.00178807 -0.000411506 4.1983e-19 -0.000752179 -5.82058e-20 0)
(0.000346286 -4.30271e-05 3.38696e-19 -0.00103655 6.19606e-19 0)
(0.00168318 -0.000331404 -3.83083e-19 -0.000704152 1.04891e-19 0)
(0.000365521 -0.000183248 6.18009e-19 -0.000908453 6.83047e-19 0)
(0.00163865 -0.000613662 7.52072e-19 -0.00102093 4.1207e-19 0)
(0.00203247 -0.000429698 -8.70673e-19 -0.00125792 -3.83333e-19 0)
(0.00120063 -1.51048e-05 -3.56122e-19 -0.00017606 -6.44979e-20 0)
(0.00138983 -3.49517e-06 -2.92589e-19 -0.000594002 -1.27291e-19 0)
(0.00238868 -3.47262e-05 5.48273e-19 -0.00133795 3.19819e-19 0)
(0.00136979 -0.000114021 4.49804e-20 -0.000501808 2.14064e-19 0)
(0.00106876 -0.0004356 0 -0.000336326 0 0)
(0.00128726 -0.000246323 -1.88471e-19 -0.000381173 1.18168e-19 0)
(0.00126935 -0.000248597 2.38145e-19 -0.000389188 -3.14282e-20 0)
(0.00126328 -0.000335335 -4.09347e-19 -0.000387468 -1.55068e-19 0)
(0.00196858 -0.000400533 -5.32972e-19 -0.000974574 -2.85159e-19 0)
(0.00229746 0.000377798 -1.53725e-18 -0.00103408 -1.36338e-18 0)
(0.00115059 -0.000422106 -3.05248e-19 -0.000368102 2.30552e-20 0)
(0.00132258 -2.65273e-05 0 -0.000437546 0 0)
(0.00130292 -7.9463e-05 2.64809e-19 -0.000400891 7.19826e-20 0)
(0.000567547 0.000316639 -2.71748e-19 -0.00139361 -5.21968e-20 0)
(0.00187178 -0.000442323 4.96481e-19 -0.000871826 1.86347e-19 0)
(0.000755144 -0.000486182 0 -0.000316517 0 0)
(0.00147699 -7.3492e-05 0 -0.000626353 0 0)
(0.00223036 -0.000192378 -1.79685e-20 -0.000977163 1.30015e-19 0)
(0.0010648 -0.0001192 0 -0.000243698 0 0)
(0.00262366 0.000468881 -3.05934e-19 -0.00112621 -3.11394e-19 0)
(0.0011881 -0.000182128 -6.76354e-21 -0.000308818 1.65524e-20 0)
(0.000960552 -0.000538365 -9.4728e-20 -0.000916901 6.94691e-19 0)
(0.000735856 -0.000447713 -1.70465e-19 -0.000277275 -4.87285e-20 0)
(0.000427558 -0.000372452 -6.5772e-19 -0.000682405 -2.62372e-19 0)
(0.00240896 0.000336245 8.4189e-19 -0.00117961 5.95928e-19 0)
(0.00075253 -0.000414142 2.45409e-19 -0.000260228 2.68473e-21 0)
(0.00118492 -3.2686e-05 1.62776e-19 -0.000258694 1.58062e-19 0)
(0.00122584 -8.19131e-05 9.76026e-20 -0.000246762 5.68235e-20 0)
(0.00122234 -5.48172e-05 2.23461e-19 -0.000211663 6.09381e-20 0)
(0.000842716 -0.000394698 -2.24436e-19 -0.000263219 3.25777e-22 0)
(0.0011589 -0.000467182 -3.2724e-19 -0.000395579 -2.06347e-19 0)
(0.00241325 3.02039e-05 1.0632e-18 -0.00106449 7.96885e-19 0)
(0.000860981 -0.00037483 1.87623e-19 -0.000225763 9.19614e-20 0)
(0.00203002 -7.84985e-05 -2.4806e-19 -0.000856373 -2.20011e-19 0)
(0.00239595 0.000527389 -2.17583e-19 -0.000964713 -1.62853e-19 0)
(0.00280827 0.000375134 -9.63481e-19 -0.00112319 -7.54597e-19 0)
(0.00142333 -2.28622e-05 -4.94168e-19 -0.000613402 -1.7404e-19 0)
(0.00119686 -2.50902e-05 -2.52492e-19 -0.000247591 -1.56118e-20 0)
(0.00168996 -0.000213522 -1.3393e-18 -0.000713796 -1.34593e-19 0)
(0.00155802 -0.000565168 -4.04299e-19 -0.000691257 -2.53183e-19 0)
(0.00252263 0.000500615 1.14086e-18 -0.000898269 9.82129e-19 0)
(0.00190515 0.000243078 2.41591e-19 -0.000646634 2.43275e-19 0)
(0.00093831 -2.31692e-05 3.04318e-19 -0.000201642 7.73992e-20 0)
(0.00132694 -0.000546117 6.04954e-21 -0.000516791 7.80541e-20 0)
(0.00129733 -0.000553101 2.69476e-19 -0.000510816 1.04766e-20 0)
(0.0013795 -0.00011883 7.09324e-20 -0.000536727 2.47729e-19 0)
(0.00145733 -0.000639149 8.12232e-19 -0.00101466 4.45713e-19 0)
(0.001765 -0.000489833 -6.2203e-19 -0.00117897 -6.18423e-19 0)
(0.00119844 -7.33799e-06 3.70046e-19 -0.000156319 6.31656e-20 0)
(0.00138615 -3.95199e-07 2.24203e-19 -0.000594489 1.58787e-19 0)
(0.00246156 0.000441943 4.67276e-19 -0.000774618 3.2126e-19 0)
(0.00184161 -0.000208135 0 -0.000787625 0 0)
(0.000370514 -0.000178974 -1.04154e-18 -0.000925901 -8.6195e-19 0)
(0.001382 -8.83595e-05 4.15633e-19 -0.000547377 -9.03556e-20 0)
(0.00119104 -9.4706e-05 -5.15729e-20 -0.000270384 4.28066e-20 0)
(0.00161152 -0.000449225 5.13878e-19 -0.000652848 4.7521e-19 0)
(0.00124546 -0.00048555 7.92408e-19 -0.000451811 1.146e-19 0)
(0.000686895 -0.000319332 -2.53551e-19 -0.000218936 -5.17101e-20 0)
(0.00105495 -0.000472724 2.41376e-19 -0.000340045 -2.33776e-20 0)
(0.000988322 -0.000412188 3.32842e-19 -0.000302421 -6.61605e-21 0)
(0.000608717 0.000219003 -1.27908e-20 -0.00162215 -2.68758e-20 0)
(0.00101454 -0.000454502 3.241e-19 -0.000328337 6.87435e-20 0)
(0.00290633 2.61582e-05 8.73725e-19 -0.0012219 7.8784e-19 0)
(0.00190411 -0.000423906 -5.76356e-19 -0.000895076 -2.83993e-19 0)
(0.00183871 -0.000458774 -5.75718e-19 -0.000912513 -2.87389e-19 0)
(0.000900002 -0.000347464 -3.62054e-19 -0.000243564 2.82331e-20 0)
(0.0021407 -0.000244553 2.34122e-20 -0.00112642 1.74745e-20 0)
(0.00163225 -0.00018652 -8.85276e-19 -0.000704866 -3.89378e-19 0)
(0.00120687 -1.56338e-05 5.88112e-19 -0.000203416 -8.89079e-20 0)
(0.00139187 -4.38309e-06 -7.64331e-20 -0.000594874 -2.75929e-20 0)
(0.00188783 0.000173254 -5.8649e-19 -0.000647202 -1.75983e-19 0)
(0.00182198 -0.000338784 -7.79029e-19 -0.000794778 -7.84351e-20 0)
(0.00191619 -0.000406951 -2.55378e-20 -0.000996994 -3.77803e-20 0)
(0.000737217 -0.000366579 7.48814e-19 -0.000861922 2.56039e-19 0)
(0.00142713 -0.000651801 -2.87624e-19 -0.000841829 -1.17653e-19 0)
(0.00232019 -1.39795e-05 5.05811e-19 -0.00123461 3.27918e-19 0)
(0.00222182 -0.000200745 -6.42994e-19 -0.00100355 -4.59994e-19 0)
(0.00189518 -0.000294889 3.42871e-19 -0.000802851 4.99266e-19 0)
(0.00128049 -9.58115e-05 2.60832e-19 -0.000366279 1.70574e-20 0)
(0.00063715 9.49642e-05 1.94401e-19 -0.00162726 1.66834e-19 0)
(0.00119324 -0.00049185 3.88432e-19 -0.000424191 1.70011e-20 0)
(0.00224258 -0.000151095 -1.25288e-19 -0.00104815 -7.13942e-20 0)
(0.00300052 -2.51441e-05 -3.57083e-19 -0.000717352 -1.70255e-19 0)
(0.000333898 -0.000158865 1.7536e-19 -0.000330899 1.60325e-19 0)
(0.00131082 -2.50135e-05 -2.91815e-19 -0.000422485 -7.86989e-20 0)
(0.00129868 -6.04611e-05 -1.21927e-19 -0.00038728 2.22376e-20 0)
(0.00138895 -0.000120593 -3.48118e-19 -0.000549381 -9.944e-20 0)
(0.00182446 -0.000187569 -1.12463e-19 -0.00078736 -1.65973e-19 0)
(0.000280451 -0.000203982 0 -0.000334406 0 0)
(0.00100313 -0.00043817 3.72248e-19 -0.000322162 1.3697e-19 0)
(0.00206598 0.000471297 4.7272e-19 -0.000863796 4.2024e-19 0)
(0.00200414 0.000426525 6.86663e-19 -0.000894658 9.05467e-19 0)
(0.00159263 -0.000576338 7.52272e-20 -0.000760844 8.42896e-20 0)
(0.00155569 -0.000580618 2.67468e-20 -0.000776859 7.20717e-20 0)
(0.00133068 -5.03374e-05 -3.77235e-19 -0.000441555 -1.35626e-19 0)
(0.00228234 -0.000139269 2.1977e-19 -0.000965594 3.90332e-19 0)
(0.00108468 -0.000536349 -9.97314e-19 -0.00042535 -2.39937e-19 0)
(0.00139622 -5.38424e-05 7.32094e-20 -0.000580556 2.06765e-19 0)
(0.000836462 -0.00061823 5.59781e-19 -0.000488963 2.00293e-19 0)
(0.00097059 -0.000652027 2.80395e-19 -0.000711097 1.26688e-19 0)
(0.00186557 -0.00035155 5.67506e-19 -0.000782391 -8.03812e-20 0)
(0.00232951 -0.000168002 7.72454e-19 -0.0013241 5.84387e-19 0)
(0.000871123 -0.000679501 6.40783e-19 -0.000712748 3.03536e-19 0)
(0.00122738 -8.56141e-05 -5.67713e-20 -0.000244819 6.42061e-20 0)
(0.00122798 -9.41672e-05 -4.67109e-19 -0.000254703 -3.61913e-20 0)
(0.00271544 0.000392896 2.68039e-18 -0.00122139 2.41625e-18 0)
(0.00239769 8.34305e-05 1.64886e-19 -0.0011079 6.73431e-20 0)
(0.00093336 -0.0006217 1.77051e-19 -0.00046656 4.25441e-20 0)
(0.00118556 -0.000479176 -3.18009e-19 -0.000397702 -1.94693e-19 0)
(0.0029398 9.63903e-05 -1.77155e-19 -0.00124369 1.31512e-20 0)
(0.00121709 -7.88722e-05 1.42165e-19 -0.000239581 -2.7074e-20 0)
(0.000582468 -0.000270658 3.07916e-19 -0.000191934 1.05541e-19 0)
(0.000544493 -0.000275011 0 -0.000200391 0 0)
(0.00152393 -0.000245738 -1.71625e-19 -0.000623486 -2.45823e-19 0)
(0.00113842 -0.000208249 -4.09438e-19 -0.00029128 -1.426e-19 0)
(0.000992007 -0.000401755 1.35823e-19 -0.000300719 -7.95815e-21 0)
(0.00123198 -0.000261184 1.13516e-20 -0.000358377 1.42148e-20 0)
(0.00119253 -6.32914e-06 -5.86909e-20 -0.000134834 -4.23437e-20 0)
(0.00139094 7.59781e-07 -5.34701e-20 -0.000595358 -1.70175e-19 0)
(0.000790773 -0.000373696 5.72288e-19 -0.000230734 4.8685e-20 0)
(0.000945617 -6.0257e-06 3.70577e-20 -0.000201843 3.84009e-20 0)
(0.00161979 -0.000591051 -3.59093e-19 -0.00110433 -4.3927e-19 0)
(0.00127313 -0.000603373 8.17894e-20 -0.000555459 8.27803e-20 0)
(0.000837287 -0.000206917 1.22983e-19 -0.000201848 -4.35943e-20 0)
(0.000504194 -0.000411722 -1.07778e-19 -0.000335415 -2.92233e-20 0)
(0.000672236 -0.000156101 -1.73656e-19 -0.000152471 -1.44764e-20 0)
(0.000626628 -0.000192496 1.34966e-19 -0.000167707 2.66925e-20 0)
(0.000564278 -0.000169783 1.58368e-19 -0.000168765 3.2313e-20 0)
(0.000990586 -0.000373052 2.13875e-19 -0.000275628 5.27838e-20 0)
(0.00155346 -0.000225346 5.21905e-19 -0.000619774 2.99217e-19 0)
(0.00111498 -0.000188125 2.28998e-19 -0.000296093 5.29549e-20 0)
(0.0011308 -0.000648334 -2.13415e-19 -0.000602566 -7.7668e-20 0)
(0.0015299 -0.000254071 7.60248e-19 -0.000621191 -8.84431e-20 0)
(0.00113698 -0.000215936 -6.92755e-20 -0.000294297 -1.52225e-19 0)
(0.00147435 -0.00054574 2.57766e-19 -0.000630282 1.74687e-19 0)
(0.00152719 -0.000543486 1.41134e-18 -0.000639033 6.10601e-19 0)
(0.00228408 8.89528e-05 -6.88456e-19 -0.000985576 -6.04987e-19 0)
(0.00154551 -0.000358397 -2.78674e-19 -0.000628325 5.65173e-20 0)
(0.00135798 -6.60611e-05 -1.10973e-19 -0.000495964 -1.21267e-19 0)
(0.000976532 -0.000390126 -1.91225e-19 -0.0002909 -6.33574e-21 0)
(0.000562811 -1.10209e-05 -2.00682e-21 -0.000142301 3.25263e-20 0)
(0.00143495 -0.000186708 -3.4611e-19 -0.000573779 -6.3274e-20 0)
(0.000731076 -0.000253697 -4.08808e-19 -0.000186988 -1.619e-20 0)
(0.000956656 -0.000640571 4.30512e-19 -0.000516499 1.43751e-19 0)
(0.000855838 -0.000627892 -8.32378e-20 -0.000525202 -2.87106e-20 0)
(0.00181438 -0.000370007 -5.43816e-19 -0.000779511 -7.09859e-20 0)
(0.00346384 -0.00125182 -1.22962e-18 -0.00139212 -1.95804e-19 0)
(0.00136302 -0.000102426 4.73784e-19 -0.000512658 8.54566e-20 0)
(0.00253025 5.81664e-05 8.30202e-20 -0.00110744 5.57462e-20 0)
(0.00259073 1.89742e-05 1.30199e-22 -0.0011002 5.07726e-21 0)
(0.00213628 -0.00029665 -3.80258e-20 -0.00121101 9.93415e-20 0)
(0.000597341 -0.000493288 5.50118e-19 -0.000362234 1.73792e-19 0)
(0.00120749 -1.07043e-05 2.92081e-20 -0.000180667 -1.67321e-20 0)
(0.00139216 -1.3584e-06 1.9829e-19 -0.000596652 -2.89748e-19 0)
(0.000989227 -0.000594959 -7.54123e-21 -0.000443045 -4.14607e-22 0)
(0.00204225 -0.000399179 2.75506e-21 -0.0012241 3.89112e-20 0)
(0.000611635 -0.000442682 -5.64504e-19 -0.000315064 -1.64924e-19 0)
(0.00104857 -0.000492906 1.66219e-18 -0.000738456 7.15096e-19 0)
(0.00173256 -0.00038854 7.93842e-19 -0.000723776 3.05945e-19 0)
(0.00155728 -0.000218557 2.9756e-19 -0.000655114 -2.76266e-19 0)
(0.00111439 -0.000177814 0 -0.000271581 0 0)
(0.00208108 -0.00031445 -7.23044e-19 -0.0012382 -3.5969e-19 0)
(0.000471194 -0.000456983 -5.61012e-19 -0.000637634 -7.15219e-20 0)
(0.00119523 -1.73796e-05 -2.15375e-19 -0.000150157 -4.01442e-22 0)
(0.00139095 -1.98617e-06 6.48932e-19 -0.000593083 3.47572e-20 0)
(0.00225702 0.000526305 1.20734e-18 -0.000949611 1.13186e-18 0)
(0.00234785 -0.000150758 1.2273e-18 -0.00132259 7.54978e-19 0)
(0.00092067 -9.8822e-05 4.71193e-20 -0.000213088 -1.26528e-19 0)
(0.00243803 2.52939e-05 -6.96082e-19 -0.00131095 -4.69893e-19 0)
(0.00216228 0.000465797 -7.66531e-19 -0.000835344 -6.89127e-19 0)
(0.00125282 -0.000569199 9.3895e-20 -0.000500183 8.59922e-20 0)
(0.00118406 -0.000107195 -8.12793e-20 -0.000273838 -1.46703e-19 0)
(0.00220576 -0.000149999 -5.16237e-19 -0.00107473 -3.27346e-19 0)
(0.000367868 -5.19862e-05 -1.50722e-19 -0.00108705 -3.18294e-19 0)
(0.00147344 -0.000376711 3.22284e-19 -0.000580322 -5.18506e-21 0)
(0.00205859 0.000430509 -2.50908e-19 -0.00076514 -2.07924e-19 0)
(0.00183729 -0.000198612 1.56897e-19 -0.000761365 1.75179e-19 0)
(0.00221083 0.000530907 3.58824e-19 -0.000911552 4.13243e-19 0)
(0.00122248 -6.8685e-05 -3.46639e-20 -0.000241666 -7.38562e-22 0)
(0.00253356 5.82654e-06 3.61962e-19 -0.00110375 2.40013e-19 0)
(0.0021275 -0.000229825 -7.04234e-19 -0.00105953 -4.20846e-19 0)
(0.00213685 -0.000254038 -3.89204e-19 -0.000979566 -2.27806e-19 0)
(0.0013068 -0.000145356 0 -0.000382017 0 0)
(0.00228658 0.000360774 -3.49582e-19 -0.00100298 -4.5266e-19 0)
(0.00143748 -0.000204875 6.37621e-19 -0.000576229 5.94279e-20 0)
(0.00156776 -0.000353348 -9.52864e-19 -0.000627994 -1.69747e-19 0)
(0.000544683 5.02685e-06 4.9231e-20 -0.00147508 -1.17045e-19 0)
(0.00148515 -0.000364925 -3.89196e-19 -0.0005719 5.09351e-20 0)
(0.00127756 -5.46837e-06 1.45497e-20 -0.000323345 -1.62512e-20 -1.39704e-35)
(0.000468984 2.67457e-05 1.40705e-19 -0.00124379 2.00243e-19 0)
(0.00155877 -0.000457859 1.85962e-19 -0.000649238 -6.81782e-20 0)
(0.00327116 -0.000827147 -2.12666e-18 -0.00117321 -9.39033e-19 0)
(0.000467948 -0.000396893 3.48584e-19 -0.000363395 1.38786e-19 0)
(0.00255552 0.000531407 2.02065e-19 -0.00104952 2.22292e-19 0)
(0.00244032 0.000324079 -2.10676e-19 -0.00115721 -5.05959e-19 0)
(0.00055339 -0.000392658 9.43684e-19 -0.000820425 5.12394e-19 0)
(0.000364727 -5.84032e-05 8.34282e-21 -0.000195236 3.06954e-20 0)
(0.00148902 -0.000575619 1.74182e-18 -0.00110017 3.20541e-19 0)
(0.00210036 -0.000283637 4.43195e-19 -0.000946504 2.42035e-19 0)
(0.00155819 -0.000334474 -1.5143e-19 -0.000622804 2.30461e-19 0)
(0.00184461 -0.000512722 -9.58173e-19 -0.00115084 -7.01728e-19 0)
(0.00228178 0.000407951 -2.16301e-19 -0.00103101 1.02775e-20 0)
(0.00315021 -0.000305301 9.14551e-19 -0.00115224 5.79864e-19 0)
(0.00139984 -3.7807e-05 7.94481e-19 -0.000593903 2.764e-19 0)
(0.0014045 -3.49093e-05 -2.19857e-20 -0.00058786 -1.21099e-19 0)
(0.000589063 -0.000321543 -3.59711e-19 -0.000222919 -6.85539e-20 0)
(0.000531826 -0.000305725 -8.24913e-20 -0.000217804 9.98254e-23 0)
(0.00204727 0.000234207 0 -0.000703171 0 0)
(0.00227265 0.000400873 6.65848e-19 -0.00100076 9.95694e-19 0)
(0.0035097 3.43049e-06 2.83957e-19 -0.00109775 1.74314e-19 0)
(0.00113408 -0.000417729 -2.64164e-19 -0.000354436 -7.51855e-20 0)
(0.00138226 -1.32301e-05 4.62812e-19 -0.000568276 -1.27979e-19 0)
(0.000926071 -0.000481969 -2.52007e-19 -0.000325948 -8.88165e-20 0)
(0.000401412 -0.000292944 -3.77535e-19 -0.000801868 -3.3837e-19 0)
(0.00227644 -0.000164471 -1.87471e-18 -0.00097895 -7.91328e-19 0)
(0.00144103 -0.000610784 9.83963e-20 -0.000694913 -5.56777e-20 0)
(0.000942462 -0.00045452 2.43241e-19 -0.000292923 9.04069e-20 0)
(0.000476496 -0.000443757 2.2377e-19 -0.000373033 1.07425e-19 0)
(0.00502995 -0.000799603 0 -0.00236493 0 0)
(0.0015257 -0.000436672 0 -0.000598239 0 0)
(0.0015428 -0.000432527 0 -0.00061579 0 0)
(0.00214499 -0.000241022 -2.08006e-19 -0.00104316 -1.07673e-19 0)
(0.00226521 -0.000116046 -3.16274e-18 -0.00110616 -2.12526e-18 0)
(0.00238385 0.000222328 -8.27939e-19 -0.0011028 -7.08732e-19 0)
(0.00248264 0.00034044 0 -0.00125037 0 0)
(0.00140603 -5.05575e-05 -6.02881e-19 -0.000577681 -1.84717e-19 0)
(0.000507856 -0.000435596 -8.07072e-19 -0.000649199 -5.14899e-19 0)
(0.0022254 -0.000124785 -7.00852e-19 -0.001105 -4.68675e-19 0)
(0.00251495 0.000335427 -7.05198e-19 -0.00122832 -6.18677e-19 0)
(0.00186946 -0.000386836 -2.94476e-19 -0.000839856 1.22404e-19 0)
(0.00188941 -0.000392886 1.93381e-20 -0.000816263 4.69155e-21 0)
(0.00123725 -0.000249189 -5.66982e-19 -0.000348525 -5.62995e-20 0)
(0.00121964 -0.00011426 4.78773e-20 -0.000278891 -2.58479e-20 0)
(0.0026361 0.000472093 5.41668e-19 -0.000977251 3.5008e-19 0)
(0.000582825 -0.000486337 8.57181e-19 -0.000666357 5.10963e-19 0)
(0.0013026 -0.000344366 6.01719e-19 -0.000424477 1.15816e-19 0)
(0.00135913 -3.38428e-05 -2.89559e-19 -0.00049742 -2.40531e-19 0)
(0.00131902 -0.00038585 -5.9973e-19 -0.000459493 -1.21211e-19 0)
(0.000898582 -0.000370429 2.8105e-19 -0.000253504 8.45476e-20 0)
(0.00131206 -0.000318166 4.90747e-20 -0.000432851 2.11022e-21 0)
(0.000780952 -0.0006271 1.4902e-19 -0.000520375 6.84373e-20 0)
(0.00214239 -0.000203093 -1.17017e-19 -0.000927568 -1.79972e-19 0)
(0.00150215 -0.000162522 4.85272e-19 -0.000636583 1.79488e-19 0)
(0.00246375 -0.000168896 0 -0.00128077 0 0)
(0.00117609 -0.00055974 -1.80309e-18 -0.000582514 -9.29846e-19 0)
(0.00460769 -0.00148677 -1.39013e-18 -0.00169127 -7.14837e-19 0)
(0.00123559 -0.000558533 3.61028e-19 -0.000495751 1.98835e-20 0)
(0.00139015 2.23104e-07 1.4871e-19 -0.000600552 -3.75552e-20 0)
(0.00118055 -6.18698e-06 -1.64661e-19 -0.000112895 5.47569e-21 0)
(0.00121646 -9.71156e-05 -5.00517e-20 -0.000266271 -9.06662e-20 0)
(0.000830145 -0.00058769 3.74258e-19 -0.000457749 9.65704e-20 0)
(0.00122386 -0.000406605 2.1649e-19 -0.000394616 -4.97411e-20 0)
(0.00136864 -0.000384835 4.4831e-19 -0.000485033 8.24239e-21 0)
(0.00137796 -0.000404563 5.67619e-19 -0.000522463 -4.17604e-21 0)
(0.00197099 -0.000403633 4.3608e-21 -0.00116676 -4.32053e-20 0)
(0.000478291 -0.000279881 -1.43075e-19 -0.000242938 -6.12812e-20 0)
(0.00122649 -0.000389653 1.77304e-19 -0.000379641 3.16036e-20 0)
(0.00120186 -0.000385153 1.69785e-19 -0.00039734 -1.36935e-19 0)
(0.00125249 -9.10586e-05 1.87493e-19 -0.000281353 1.01092e-19 0)
(0.00125979 -0.000482972 2.32475e-19 -0.000456206 -1.3716e-19 0)
(0.000548266 0.000148412 -5.9886e-19 -0.00117696 -2.74474e-19 0)
(0.00126041 -0.000307824 -5.61634e-20 -0.000391478 1.0342e-19 0)
(0.00126441 -0.000311768 -1.74576e-19 -0.000395767 -1.64509e-19 0)
(0.00128104 -8.37965e-05 3.08125e-19 -0.000347696 6.91525e-20 0)
(0.000391348 -0.000197734 -1.38885e-19 -0.00020514 -4.08866e-20 0)
(0.00036287 -0.000262801 5.66957e-19 -0.000748834 3.64271e-19 0)