/*--------------------------------*- C++ -*----------------------------------*\
| =========                 |                                                 |
| \\      /  F ield         | OpenFOAM: The Open Source CFD Toolbox           |
|  \\    /   O peration     | Version:  v2012                                 |
|   \\  /    A nd           | Website:  www.openfoam.com                      |
|    \\/     M anipulation  |                                                 |
\*---------------------------------------------------------------------------*/
FoamFile
{
    version     2.0;
    format      ascii;
    class       volSymmTensorField;
    location    "1";
    object      epsilon;
}
// * * * * * * * * * * * * * * * * * * * * * * * * * * * * * * * * * * * * * //

dimensions      [0 0 0 0 0 0 0];


internalField   nonuniform List<symmTensor> 
6678
(
(-1.13367e-06 2.513e-06 5.93764e-07 2.1387e-07 2.59316e-06 -6.11855e-07)
(8.60856e-06 5.45569e-06 2.11298e-06 -2.26118e-06 9.05385e-06 4.93611e-07)
(3.34999e-06 -9.82074e-07 -6.08951e-07 8.00653e-07 4.23318e-06 -3.18866e-06)
(-9.52636e-07 -6.59536e-07 2.79868e-06 3.17947e-07 7.60278e-06 -6.4548e-08)
(2.17893e-06 -8.2723e-07 2.58158e-06 1.10791e-06 2.00417e-06 -1.91641e-06)
(5.90908e-07 -4.49178e-06 2.94862e-06 -1.75846e-06 1.79751e-06 -7.42733e-08)
(-8.20395e-07 -4.09274e-07 2.43137e-06 7.11694e-07 6.35015e-06 -2.93578e-06)
(2.01018e-07 -3.23698e-07 1.41861e-06 1.13974e-06 6.12328e-06 -1.35418e-06)
(1.58216e-06 -1.64259e-06 3.78363e-06 -1.28604e-06 7.40386e-06 -7.02972e-07)
(1.53897e-06 -1.43286e-06 2.5466e-06 -1.35538e-06 4.27689e-06 -1.43628e-06)
(2.97533e-06 -7.2539e-07 -2.78893e-07 -1.05504e-06 4.99488e-06 -2.36657e-06)
(4.38867e-06 -3.16337e-06 4.86279e-06 1.23504e-06 -5.84226e-07 -2.52505e-06)
(1.47448e-06 -5.07485e-08 1.27917e-06 -1.37186e-06 3.57457e-06 -1.90727e-06)
(-4.68483e-06 4.12943e-07 -6.05286e-07 1.83292e-06 6.68214e-06 3.36517e-06)
(5.31678e-06 -7.9895e-06 3.19301e-06 -1.6327e-06 1.62259e-06 -1.91861e-06)
(-3.93226e-06 3.42412e-06 4.96375e-06 7.82084e-07 -1.08959e-06 -3.30372e-06)
(8.20899e-07 -5.49012e-06 2.91693e-06 -3.00468e-06 1.60116e-06 -1.86457e-07)
(2.07841e-06 -2.02788e-06 1.62809e-06 -9.24789e-07 5.95543e-06 -1.83375e-06)
(6.99605e-06 -2.08811e-06 8.20666e-07 -8.65258e-06 4.88819e-06 -4.19772e-07)
(-4.60474e-06 9.09349e-07 6.67313e-07 1.12714e-06 5.03004e-06 -4.73556e-07)
(9.01771e-07 -3.90373e-06 3.57269e-06 -7.73193e-07 3.2121e-06 7.47655e-07)
(2.45911e-06 -1.57389e-06 2.08379e-06 -2.35386e-06 2.23444e-06 -1.25248e-06)
(9.59846e-06 -5.68486e-06 3.38311e-06 7.1169e-07 2.05085e-06 -4.21925e-06)
(-4.86598e-07 -1.97538e-06 1.6351e-06 -1.22348e-06 7.14286e-06 -1.26678e-06)
(-4.83855e-06 7.67869e-08 1.23626e-06 2.23158e-06 6.66097e-06 -4.24144e-06)
(-4.98402e-06 1.52636e-06 1.04681e-06 7.38666e-07 3.62782e-06 -2.61842e-06)
(-4.73123e-06 9.18887e-08 -1.4667e-06 1.36745e-06 4.90599e-06 -2.65671e-06)
(-4.74063e-06 1.3924e-06 8.28486e-07 2.52203e-06 1.07123e-06 -2.93951e-06)
(5.64768e-06 -4.55902e-09 -5.48113e-08 -1.15668e-06 1.26501e-06 -2.82669e-06)
(1.22553e-06 -1.34205e-06 1.3105e-06 -1.57356e-06 1.05044e-05 -1.86472e-06)
(4.36659e-06 8.38307e-07 -7.12323e-07 9.65266e-07 5.29154e-06 -8.00941e-07)
(1.0379e-06 -5.19546e-06 1.98597e-06 -7.01247e-07 3.73073e-06 -1.45378e-06)
(4.75239e-06 -6.5233e-06 2.95965e-06 -4.22701e-07 3.74494e-06 -1.86773e-06)
(-4.2457e-06 1.1597e-06 2.07377e-06 2.96129e-06 1.08857e-06 -1.27388e-06)
(5.37928e-06 -7.96646e-06 3.10194e-06 -3.93806e-06 2.31446e-06 -2.01334e-06)
(3.78103e-06 -3.25587e-06 2.48457e-06 -1.33114e-05 9.86209e-06 4.69068e-07)
(-2.14492e-07 -7.45892e-07 1.3812e-06 9.24701e-06 5.24277e-06 -4.25002e-06)
(8.00845e-06 -2.02887e-06 8.87423e-07 -1.07131e-06 2.75273e-06 -3.3293e-06)
(-3.66537e-06 3.38714e-06 -4.9421e-08 2.17506e-06 1.74684e-06 -1.81532e-06)
(-1.11522e-07 -8.73506e-07 2.03218e-06 1.05864e-06 5.69592e-06 -4.53855e-06)
(2.42576e-06 -3.52169e-06 1.03507e-06 -4.25807e-06 5.65216e-06 6.11267e-07)
(-4.78616e-06 1.44238e-06 1.7581e-06 4.00277e-06 5.51902e-06 -2.44562e-06)
(-1.83923e-07 -5.0637e-07 9.47986e-07 6.40674e-06 7.80588e-06 -5.63498e-06)
(4.0733e-06 -2.83767e-06 3.43652e-06 1.02554e-06 8.91592e-10 -2.76162e-06)
(-4.72505e-06 1.36401e-06 3.8588e-07 2.17123e-06 8.72935e-07 7.12565e-06)
(-4.61887e-07 -1.40607e-07 1.7021e-06 -1.80004e-06 6.36701e-06 4.32627e-06)
(1.32087e-05 -5.90374e-06 1.67936e-08 -6.6595e-07 2.1687e-06 -3.64332e-06)
(9.38563e-06 -3.02887e-06 4.50771e-07 -1.13261e-06 5.46489e-06 -2.87573e-06)
(6.22778e-06 -6.08253e-06 4.13198e-06 1.84857e-06 2.86114e-06 -1.98589e-06)
(-1.26084e-06 5.57542e-07 2.61237e-06 2.63151e-06 6.52125e-07 -1.7319e-06)
(-4.28174e-07 3.88759e-07 3.18954e-06 2.17729e-06 7.71495e-06 -1.67017e-06)
(-2.30466e-07 4.95306e-06 4.66385e-07 6.84397e-06 5.00386e-06 -5.43244e-06)
(-3.89127e-06 3.15933e-06 3.25221e-06 9.85096e-07 -3.01268e-07 -1.77672e-06)
(-5.28838e-07 5.5154e-08 7.61582e-07 7.70128e-07 1.92504e-06 -2.70314e-06)
(-1.02099e-06 -7.94257e-07 1.48896e-06 2.49079e-07 1.3661e-06 -2.94623e-07)
(1.8647e-06 -2.2951e-06 3.0333e-06 1.25038e-07 9.56538e-06 -6.26534e-07)
(-3.78116e-06 -1.19359e-06 2.74366e-06 3.79587e-06 2.74015e-06 -4.80181e-07)
(9.82682e-06 -5.20511e-06 -7.13186e-08 -6.31049e-07 2.87375e-06 -3.29638e-06)
(2.2258e-06 -3.35893e-06 3.87188e-06 4.75388e-08 2.72401e-06 -1.24682e-07)
(-2.15586e-06 1.5491e-06 1.02633e-06 2.37623e-06 1.1677e-05 -2.06198e-06)
(9.61371e-06 -4.77871e-06 5.6462e-07 1.2554e-08 4.94817e-06 -2.16885e-06)
(1.78094e-06 -3.86706e-07 3.24605e-06 -5.63866e-07 2.05492e-07 -2.77745e-06)
(8.94481e-07 1.97894e-07 1.14831e-06 -9.69488e-07 2.31622e-06 1.45792e-06)
(-2.64659e-06 1.78546e-06 -3.22101e-07 7.24415e-06 5.96331e-06 -3.69036e-06)
(3.87236e-06 -1.50579e-06 -7.16101e-08 -6.20854e-06 5.07321e-06 1.05842e-06)
(-2.27417e-07 5.42442e-07 4.71519e-06 7.27832e-07 -1.99216e-06 -2.61085e-06)
(-3.59552e-06 4.40282e-06 2.49514e-06 1.23773e-06 3.80322e-07 -2.84057e-06)
(7.82071e-06 -2.94469e-06 1.3951e-06 4.26366e-07 -4.61422e-07 -5.52996e-06)
(-3.15382e-07 1.09049e-06 4.26083e-06 -3.12864e-06 3.32881e-06 -2.57026e-06)
(-6.45183e-07 4.10401e-06 1.22891e-06 5.11264e-06 6.70917e-06 -3.84948e-06)
(9.2548e-06 -2.0083e-06 9.97346e-07 -3.619e-06 5.54158e-06 -2.33789e-06)
(-3.08428e-06 1.04172e-06 -1.62528e-06 8.03719e-06 5.06576e-06 -5.1476e-06)
(-6.91797e-08 6.28666e-07 4.77995e-06 1.629e-07 2.44731e-06 2.67907e-07)
(-4.71544e-06 2.79754e-07 -5.25938e-08 4.37955e-06 5.89153e-06 -1.87574e-06)
(1.16673e-06 -3.28808e-07 2.52897e-06 8.91331e-07 4.54519e-06 -2.23008e-06)
(-7.15612e-06 7.4819e-06 1.10384e-06 -8.18014e-07 2.93684e-06 -3.66484e-07)
(1.25626e-05 -3.98255e-06 -5.24171e-07 -2.03569e-06 2.0098e-06 -3.37694e-06)
(-3.42691e-06 1.30766e-06 6.3193e-07 7.35662e-07 4.20833e-06 -6.13607e-07)
(3.43125e-06 4.92441e-07 -7.00181e-07 -9.07592e-06 5.86105e-06 1.93346e-06)
(4.56815e-07 -8.29751e-07 1.88342e-06 3.26119e-06 8.60902e-06 -3.73768e-06)
(-2.6798e-07 5.48103e-07 5.80656e-06 8.93315e-07 6.09317e-08 -2.7227e-06)
(5.50784e-06 -1.00405e-06 2.28647e-06 -8.95171e-07 -5.32645e-08 -1.51678e-06)
(1.46703e-07 -5.06462e-07 1.81803e-06 -7.02995e-07 7.81046e-06 -5.84771e-07)
(-4.42338e-06 1.7276e-06 2.36895e-07 7.98861e-06 4.0697e-06 -4.56133e-06)
(4.8671e-06 -1.93196e-06 7.96361e-07 -1.85001e-07 1.16335e-06 -3.54663e-06)
(3.40343e-06 -1.50006e-06 -3.33046e-07 -2.62134e-06 4.23106e-06 -2.60996e-06)
(2.5766e-06 -6.18766e-06 -6.43453e-08 -5.04593e-06 4.57275e-06 -2.65821e-06)
(7.76789e-07 -1.95801e-07 -4.47674e-07 8.85929e-07 3.03147e-06 -6.64154e-06)
(2.27284e-06 -4.66881e-06 2.65085e-07 -1.71223e-06 6.28377e-06 -1.98349e-06)
(2.97914e-07 -1.68811e-07 2.6648e-06 -6.7367e-06 5.402e-06 1.27863e-06)
(1.03871e-06 -7.23135e-07 1.63306e-06 -3.4273e-06 1.01686e-05 3.08905e-07)
(2.83731e-06 1.13456e-06 3.39052e-08 -4.35505e-06 6.31387e-06 1.31308e-06)
(-7.68088e-07 6.07559e-07 4.9483e-07 1.55659e-06 3.17189e-06 -2.80748e-06)
(-1.54072e-06 3.01616e-06 9.32461e-07 4.31956e-06 5.40785e-06 -5.35852e-06)
(1.34878e-05 -4.39291e-06 4.30136e-07 -1.87679e-06 3.02161e-06 -3.22864e-06)
(-4.37278e-07 4.67633e-07 -1.40936e-07 2.84384e-07 1.39969e-05 -2.17568e-06)
(3.52778e-07 -6.68445e-07 2.81887e-06 -6.51503e-07 6.96514e-06 4.23071e-06)
(-5.54885e-06 6.25325e-07 6.63205e-06 3.68649e-06 8.84458e-06 -5.0225e-06)
(-3.73802e-06 4.51781e-07 1.73443e-06 1.12767e-06 3.87644e-06 -6.05084e-07)
(4.17076e-06 -7.79997e-07 -9.86187e-07 -2.87598e-06 2.97216e-06 -2.55199e-06)
(1.12212e-06 1.73867e-06 -2.46104e-07 9.38267e-07 2.06176e-06 -2.86028e-06)
(4.30003e-06 -2.9783e-06 7.3773e-08 -4.31156e-07 4.48239e-06 -3.99533e-06)
(3.23717e-06 -3.32952e-06 1.17381e-06 -6.62665e-08 4.3595e-06 -2.49027e-06)
(3.27692e-06 -3.99528e-06 3.33831e-06 -6.50491e-07 -2.59001e-07 -7.1834e-07)
(-8.19816e-06 2.34495e-06 6.57251e-07 7.92175e-06 5.26257e-06 -3.36932e-06)
(5.42681e-06 -1.14732e-06 1.16379e-06 4.84987e-07 2.04695e-06 -6.85467e-06)
(1.31752e-05 -6.81564e-06 2.60039e-06 8.57124e-07 2.0926e-06 -4.24751e-06)
(-4.37416e-06 -7.70395e-07 -6.73463e-07 1.07822e-05 5.49994e-06 -5.69584e-06)
(7.90503e-06 -3.0137e-06 1.80062e-06 -9.31718e-07 3.45173e-07 -4.49603e-06)
(-1.38728e-06 2.39713e-06 2.79994e-06 2.77985e-06 7.62127e-06 -1.5941e-06)
(-1.55821e-06 6.01421e-06 1.21067e-06 5.06555e-06 2.66272e-06 -4.45126e-06)
(-6.654e-06 7.59647e-06 2.29502e-06 5.86326e-06 3.64721e-06 -2.54552e-06)
(-1.61613e-06 3.01914e-06 1.10017e-06 4.35136e-06 4.89395e-06 2.32916e-06)
(-7.02569e-06 1.58535e-06 1.90321e-06 5.76725e-06 7.51138e-06 -3.66675e-06)
(-3.16027e-06 1.10172e-06 2.93332e-06 5.91092e-06 1.21671e-05 -5.64802e-06)
(2.81593e-06 1.64905e-06 2.02293e-06 3.81159e-06 8.29655e-06 -3.83202e-06)
(1.45306e-06 -4.79406e-06 3.36587e-06 -4.59629e-06 5.67284e-06 7.53002e-07)
(-2.41954e-06 4.66175e-06 2.16842e-06 2.6445e-06 3.33919e-06 -3.49925e-06)
(3.27549e-06 -1.25663e-06 -1.09698e-06 -2.96127e-06 4.6417e-06 -8.54385e-07)
(5.69374e-06 -1.47987e-06 2.33766e-06 -3.33448e-06 3.3818e-06 -2.40855e-06)
(-3.35237e-06 -1.03514e-06 2.47042e-07 5.74273e-06 6.0297e-06 -4.98213e-06)
(-4.50766e-06 3.31575e-07 2.70432e-07 1.35059e-05 5.51002e-06 -7.62919e-06)
(1.98696e-07 -1.59103e-07 3.17685e-06 8.23703e-07 4.29681e-06 -4.10089e-06)
(4.40148e-06 -5.37735e-06 1.26444e-06 -2.70805e-06 4.41508e-06 -1.31248e-06)
(-1.02925e-05 2.19417e-06 -6.98071e-07 4.46592e-06 3.72678e-06 -4.80314e-07)
(-3.12456e-06 4.51821e-06 4.05138e-07 2.61995e-06 3.1509e-06 -1.67034e-06)
(2.93314e-06 -1.13597e-06 -2.24164e-08 -1.59287e-06 2.90474e-06 -3.07593e-06)
(3.87998e-06 -4.613e-07 -6.30506e-07 -6.51551e-07 3.11893e-06 -2.87518e-06)
(6.89191e-06 -3.12529e-06 -5.70634e-07 -5.97961e-07 3.21462e-06 -3.2494e-06)
(3.1847e-06 -8.21545e-06 1.6076e-06 1.61463e-06 2.68606e-06 -2.06442e-06)
(-4.28174e-07 7.37844e-08 3.47119e-06 3.76181e-06 7.54068e-06 -4.248e-06)
(-8.13495e-06 1.8762e-06 9.77746e-07 9.0501e-06 6.05658e-06 -3.58109e-06)
(1.23851e-05 -5.04237e-06 3.98934e-06 -2.30189e-08 2.27179e-06 -3.93409e-06)
(1.98967e-06 5.93176e-08 3.84793e-06 6.1999e-07 5.80514e-06 -3.53894e-06)
(-4.91701e-06 4.42512e-06 3.62061e-06 2.96589e-06 -7.72567e-07 -3.05527e-06)
(3.13653e-07 -1.34541e-06 1.40727e-06 3.76432e-07 3.15359e-06 -3.84712e-06)
(-4.28174e-07 1.5184e-07 3.66795e-06 1.00471e-06 8.89884e-06 -1.67017e-06)
(4.29325e-06 -1.90204e-07 -1.1491e-06 -3.6965e-08 2.16225e-06 -3.13169e-06)
(-9.7868e-06 -1.66088e-06 1.88727e-06 6.56559e-06 1.21834e-06 -1.31213e-06)
(-4.1376e-06 2.40033e-06 3.07751e-06 1.89678e-06 2.99258e-06 -4.11541e-07)
(-4.14234e-06 4.17357e-06 1.91483e-06 2.62679e-06 1.66992e-06 -2.93536e-06)
(-3.52731e-06 3.57497e-06 2.15823e-06 2.67489e-06 3.20658e-06 -1.36777e-06)
(1.27437e-05 -1.78224e-06 2.33551e-08 -2.33284e-06 2.5249e-06 -3.02574e-06)
(-2.83957e-06 4.00577e-06 3.16611e-06 2.30886e-06 6.78773e-06 -6.81166e-07)
(-5.5892e-06 5.42476e-06 9.62768e-07 2.76129e-06 2.65597e-06 -7.29583e-07)
(-1.47212e-07 1.71145e-08 1.6898e-06 9.62772e-07 1.84401e-06 -2.38621e-06)
(2.267e-06 -6.23746e-06 2.69679e-06 -2.39925e-06 1.09761e-06 -1.04674e-06)
(5.52376e-06 -1.04402e-06 2.12586e-06 -1.83338e-06 1.59215e-06 -1.38168e-06)
(4.22973e-06 -1.21139e-06 9.7904e-07 5.01921e-07 1.49496e-06 -2.8083e-06)
(9.76568e-06 -2.50508e-06 -1.57868e-07 -7.33198e-06 6.58196e-06 -6.66985e-07)
(-8.21934e-06 4.94066e-06 3.27652e-06 7.01791e-06 5.18904e-06 -3.18984e-06)
(5.41816e-06 -7.85438e-06 2.02943e-06 -4.12001e-06 3.53239e-06 -1.79718e-06)
(-8.48561e-06 7.5746e-06 2.07682e-06 7.34117e-07 1.91883e-06 -4.99302e-07)
(8.09837e-06 -3.24197e-06 -1.32379e-06 -6.82073e-07 7.60437e-06 -1.14333e-06)
(7.98133e-06 -5.96041e-06 1.5374e-06 -5.10656e-06 4.97952e-06 -1.82575e-07)
(-7.08898e-06 6.28508e-08 -5.32213e-07 2.31099e-06 2.27136e-06 -4.03362e-07)
(1.10729e-05 -4.40671e-06 7.38783e-07 -4.3381e-06 4.6443e-06 -1.5193e-06)
(4.89701e-06 -2.4228e-06 2.0209e-06 -3.56571e-06 3.22002e-06 -1.94091e-06)
(1.02911e-05 -5.17681e-06 7.48681e-08 -2.60963e-06 2.72619e-06 -4.02022e-06)
(3.81739e-06 -2.45734e-06 2.34908e-06 1.92407e-06 3.20721e-06 -2.40297e-06)
(9.11659e-06 -3.87159e-06 2.80335e-07 -3.76245e-06 4.91539e-06 -2.95888e-06)
(2.37974e-07 5.49227e-08 2.32779e-06 1.91687e-06 9.2783e-06 -2.90649e-06)
(5.38434e-06 -2.99146e-06 2.99375e-06 -3.12062e-06 2.55529e-06 -2.35434e-06)
(4.70299e-06 -7.43203e-06 1.47326e-06 6.91028e-06 3.94821e-06 -2.46953e-06)
(-1.97544e-06 6.45974e-06 1.36042e-06 5.34724e-06 3.05501e-06 -4.10245e-06)
(-2.69128e-06 4.07105e-06 2.99342e-06 2.74957e-06 7.69434e-06 -3.42132e-06)
(-5.21812e-06 7.66698e-07 2.31873e-07 2.9463e-06 3.18668e-06 -1.46845e-06)
(6.86051e-06 -7.03607e-06 5.13271e-07 -2.18193e-06 5.32296e-06 -1.35455e-06)
(-4.07198e-06 5.10024e-07 2.41885e-07 3.52515e-06 1.85666e-06 -1.4961e-06)
(4.12778e-07 -1.13432e-06 3.31341e-06 1.87889e-06 6.54951e-07 -3.36314e-06)
(-1.12455e-05 7.21785e-06 1.71903e-06 -3.90545e-07 2.25933e-06 1.01089e-06)
(-3.10307e-06 -2.04521e-08 2.45653e-07 2.99513e-06 1.06511e-05 -2.33751e-06)
(2.54562e-06 -2.65873e-06 1.68344e-06 -2.2575e-06 4.19647e-06 -2.12488e-06)
(3.84166e-06 -1.69197e-06 6.44176e-07 -5.40494e-07 2.92784e-06 -2.63225e-06)
(3.32798e-06 5.00069e-06 3.70168e-06 1.74363e-06 4.74205e-06 -3.53894e-06)
(5.22705e-06 -4.11176e-06 1.31676e-06 -3.48571e-06 5.443e-06 -2.61946e-06)
(-4.06413e-06 2.62347e-06 2.39562e-06 2.27632e-06 2.59709e-06 -3.49835e-06)
(6.15995e-07 2.13707e-07 -3.55289e-07 2.24768e-07 2.62551e-06 -6.61832e-06)
(-6.7168e-06 1.09551e-06 2.67372e-06 3.16165e-06 1.0434e-06 -8.57045e-07)
(2.45574e-06 -5.04709e-06 8.66534e-07 -4.28981e-06 4.62549e-06 -5.67875e-08)
(-4.28174e-07 5.15673e-07 3.57398e-06 -4.14948e-06 6.05696e-06 1.41767e-07)
(-2.63995e-06 3.205e-07 1.42111e-08 2.5861e-06 2.45552e-07 -1.4723e-06)
(-3.86443e-06 2.34871e-06 7.78802e-07 8.78293e-06 6.13754e-06 -3.60501e-06)
(3.06166e-06 -4.80782e-07 1.62214e-07 -3.47591e-07 4.78813e-06 -2.5899e-06)
(-7.12041e-06 2.40556e-06 3.04981e-06 2.42308e-06 6.15587e-07 -7.54004e-07)
(-2.63969e-07 7.32687e-07 2.53606e-06 7.72052e-07 6.48661e-06 -2.05236e-06)
(3.19402e-06 -2.99424e-06 2.95436e-06 1.87154e-07 2.87802e-06 -3.839e-06)
(1.01297e-05 -2.30548e-06 2.17502e-06 -3.19059e-06 3.06797e-06 -2.79296e-06)
(-2.31536e-06 1.82151e-06 2.21744e-06 -2.77126e-07 7.18041e-06 4.57593e-07)
(-1.04778e-06 1.28214e-06 3.28417e-06 3.36976e-06 6.67251e-06 -2.62671e-06)
(-1.52075e-05 6.05795e-06 6.25372e-07 4.5594e-06 3.33386e-06 -3.53708e-07)
(3.19791e-06 -3.07438e-06 7.22515e-07 -6.58053e-06 5.40846e-06 1.0635e-06)
(2.36439e-06 1.59995e-06 3.71997e-07 -3.62962e-07 1.27892e-05 -1.16666e-06)
(-6.60405e-06 2.65297e-06 3.45721e-06 2.52806e-06 7.68474e-07 -5.64535e-07)
(-8.76382e-06 2.79955e-06 -7.75226e-07 9.01681e-06 5.14272e-06 -4.2734e-06)
(1.32579e-06 1.89093e-06 3.21684e-06 -2.48485e-07 5.214e-06 -4.248e-06)
(3.75583e-07 -1.90696e-07 9.5249e-08 5.86376e-07 6.55486e-06 -2.10247e-06)
(3.27219e-07 -1.64955e-07 2.71086e-06 -1.0025e-05 3.75167e-06 5.16824e-07)
(-4.28174e-07 -4.78206e-08 3.58972e-06 5.94095e-06 6.50674e-06 -4.30271e-06)
(3.95364e-07 1.28053e-07 6.32116e-06 3.28433e-08 9.08305e-06 -1.73301e-06)
(-6.71364e-06 2.03656e-06 -7.3143e-07 6.19249e-06 4.41759e-06 -4.43411e-06)
(-3.11314e-06 4.64852e-06 2.96964e-06 4.64595e-06 8.19089e-06 -3.34253e-06)
(-4.24486e-06 1.18916e-06 5.8792e-07 2.57168e-06 7.67065e-08 -2.08559e-06)
(-1.11273e-05 5.94436e-06 1.32469e-06 2.54394e-06 3.06098e-06 1.22493e-06)
(-1.59742e-06 5.31548e-07 -1.6776e-07 2.3509e-06 2.29566e-06 -8.85168e-07)
(-2.24822e-06 1.3997e-06 2.53621e-06 2.27316e-06 5.96489e-06 -4.24439e-06)
(-6.19309e-06 3.19434e-07 6.01946e-07 4.65884e-06 4.59231e-06 -2.61096e-06)
(5.23355e-06 -7.92682e-06 1.69681e-06 -2.26423e-06 2.37102e-06 -1.8325e-06)
(7.06783e-06 -3.62303e-06 2.27544e-07 -8.25731e-06 5.13028e-06 -2.91945e-07)
(-6.04899e-06 6.85609e-06 2.11435e-06 7.55546e-07 1.719e-06 -1.73137e-06)
(-1.16234e-05 4.51148e-06 1.87465e-06 4.19461e-06 4.00159e-06 5.52479e-07)
(2.17756e-06 -4.92736e-06 2.62378e-06 7.46301e-07 2.11466e-06 -1.10622e-06)
(-5.43272e-06 2.92378e-06 1.05274e-06 1.03914e-05 3.47456e-06 -3.77787e-06)
(3.22051e-07 -1.18928e-06 5.58864e-07 5.08798e-07 2.54872e-06 -1.18676e-06)
(1.95152e-06 -2.30492e-06 1.99095e-06 -1.18131e-06 4.29761e-06 -1.69166e-06)
(4.85642e-06 -2.29885e-06 -1.14201e-06 4.07012e-07 3.62645e-06 -2.18268e-06)
(-3.46491e-06 3.88515e-06 6.377e-07 -7.75019e-06 1.09349e-05 2.509e-07)
(-6.49275e-06 5.01178e-07 -6.92465e-07 6.69347e-07 4.17057e-06 -5.24072e-07)
(-3.04754e-06 3.68299e-06 2.46718e-06 1.58822e-06 2.9875e-06 -7.64445e-07)
(-2.66435e-06 3.58555e-06 1.8066e-06 7.32834e-06 5.79459e-06 -5.82979e-06)
(9.75525e-06 -2.60891e-06 -5.15865e-07 -8.16821e-06 4.59868e-06 -3.01004e-07)
(3.22437e-07 4.80605e-07 2.71481e-06 1.46388e-06 1.15109e-05 -1.16375e-06)
(3.76875e-07 -2.60306e-06 2.13343e-06 -1.80345e-06 5.00714e-06 -9.96503e-07)
(-1.17933e-05 4.45197e-06 3.4032e-08 2.31512e-06 9.35894e-07 -2.93023e-07)
(-6.26325e-06 4.09242e-06 1.02628e-06 8.26076e-06 5.31078e-06 -4.52336e-06)
(2.39213e-06 8.31008e-07 -1.58561e-06 -3.54982e-06 3.93298e-06 -3.42083e-06)
(-1.11536e-06 2.9514e-06 3.27217e-06 -3.05136e-06 1.69395e-06 -2.1661e-06)
(1.18601e-05 -5.90894e-06 -8.86243e-07 -7.41646e-08 3.49895e-06 -3.39737e-06)
(-1.15398e-07 1.47235e-06 1.61566e-06 3.87308e-06 4.13709e-06 -4.92443e-06)
(1.2915e-05 -4.42838e-06 -7.94701e-07 -8.15692e-07 1.77947e-06 -4.88756e-06)
(-2.75226e-06 5.23872e-06 1.37264e-06 2.52441e-06 7.4913e-06 -3.24426e-06)
(1.70973e-06 -6.3595e-07 5.7296e-07 5.18433e-07 1.02356e-05 -4.84027e-06)
(1.27648e-07 -2.32125e-06 1.79037e-06 -1.64616e-06 5.89912e-06 -9.3487e-07)
(-1.73654e-06 6.26808e-06 1.43272e-06 5.99699e-06 2.53015e-06 -4.70169e-06)
(-5.69659e-06 2.89327e-06 2.93204e-06 1.19426e-06 4.86983e-06 3.88463e-07)
(-8.57339e-06 3.56165e-06 2.47033e-06 3.17914e-06 9.90903e-07 -9.1939e-07)
(9.09846e-06 -8.25372e-06 4.88807e-07 2.12714e-06 3.04373e-06 -3.7228e-06)
(6.09522e-07 -2.01727e-06 3.42658e-06 -2.19979e-06 1.00861e-05 -1.07884e-06)
(9.08017e-06 -3.4259e-06 2.16796e-06 -4.06346e-06 3.20161e-06 -2.73136e-06)
(-7.12226e-06 7.31939e-07 3.57223e-06 2.77381e-06 -9.40559e-07 -1.02025e-06)
(-6.67516e-06 2.71043e-06 3.56297e-06 8.15254e-06 5.88345e-07 -1.78371e-06)
(-8.00202e-06 6.1313e-06 2.82058e-06 2.53286e-06 -4.89889e-08 -1.38353e-06)
(-2.71296e-06 6.78754e-07 2.11048e-06 1.7303e-06 7.59128e-08 -1.15792e-06)
(-4.32028e-07 6.69698e-08 1.71287e-06 -3.57015e-07 6.44423e-06 -3.20202e-06)
(-1.58165e-06 4.32243e-07 -1.99168e-06 1.57108e-06 2.06116e-06 -1.67337e-06)
(9.721e-07 -3.25866e-06 1.05954e-06 3.73212e-06 5.79986e-06 -2.68518e-06)
(-2.78845e-06 3.69658e-06 2.25251e-06 1.40977e-06 5.83205e-06 4.76291e-07)
(-4.14545e-06 -2.97716e-07 1.66212e-06 2.29153e-06 8.04526e-07 -1.19711e-06)
(-4.71489e-06 2.46335e-06 4.37963e-07 2.19427e-06 2.69434e-06 -1.71865e-06)
(3.76038e-07 -2.28053e-07 2.27083e-06 -3.43062e-07 5.31184e-06 -2.0343e-06)
(-3.79515e-06 3.36177e-06 5.99535e-07 2.32731e-06 4.43433e-06 -3.22186e-06)
(3.67298e-06 -4.10224e-07 -1.59268e-06 -3.62747e-07 4.9012e-06 -1.8277e-06)
(-3.8724e-06 7.38036e-06 1.57464e-06 1.44623e-06 2.3612e-06 -2.70362e-06)
(-1.80833e-07 -3.9375e-07 5.45577e-07 8.64034e-07 7.0907e-06 -2.07458e-06)
(-7.53211e-06 5.32909e-06 4.88118e-07 8.06052e-06 4.5525e-06 -3.49243e-06)
(-5.28331e-06 9.04839e-07 4.15933e-06 2.88058e-06 1.14917e-06 -1.89084e-06)
(-5.65487e-06 8.66529e-06 2.26795e-06 4.57751e-06 2.40933e-06 -1.64837e-06)
(-6.93331e-06 2.65219e-06 -4.90399e-07 1.21808e-05 4.09588e-06 -2.74159e-06)
(-5.50446e-07 4.13814e-06 1.68598e-06 2.50427e-06 4.61378e-06 -3.59333e-06)
(-1.44216e-06 1.00804e-06 1.98811e-06 1.58787e-06 4.3175e-06 -3.12437e-06)
(2.79854e-06 -9.17506e-07 -1.79155e-07 1.2579e-06 5.24841e-06 -1.89664e-06)
(-4.67174e-06 1.69393e-06 5.09565e-06 5.45365e-07 4.23052e-06 -2.21546e-06)
(-8.19778e-06 2.30341e-06 6.31295e-07 1.07781e-05 5.93283e-06 -4.37034e-06)
(-5.8405e-06 2.77487e-06 4.97451e-06 3.7496e-07 -1.48094e-06 -1.12347e-06)
(4.41098e-07 -6.51998e-07 3.36194e-06 -2.04778e-07 1.84529e-06 -2.61071e-06)
(1.06036e-06 3.36251e-07 2.22295e-06 7.72812e-07 5.98649e-06 -3.05533e-06)
(-6.00536e-06 7.26808e-06 9.52374e-09 3.70908e-06 3.31402e-06 -3.34824e-06)
(2.09965e-07 1.55946e-06 2.93456e-06 3.62867e-07 1.41974e-05 -1.66905e-06)
(-1.12444e-06 1.80067e-06 3.55313e-06 3.71328e-07 1.80147e-07 -9.4907e-07)
(1.12242e-05 -2.27327e-06 1.99019e-06 -7.92621e-06 3.38127e-06 -2.78319e-06)
(-9.25308e-06 1.53595e-06 -9.77183e-07 1.02203e-05 4.79434e-06 -4.35005e-06)
(-2.6154e-07 -1.52325e-06 -2.08139e-07 3.75302e-07 3.8042e-06 -1.91399e-06)
(4.98291e-06 -5.80307e-06 5.33864e-07 -2.7115e-06 3.64948e-06 -7.25903e-07)
(3.12338e-06 -2.35507e-06 -1.49446e-06 -4.97912e-06 3.94455e-06 -1.09452e-06)
(6.79833e-06 -1.52376e-06 -3.07402e-07 -8.55944e-06 5.85199e-06 -1.57974e-06)
(-1.42098e-07 7.21506e-07 -1.10785e-06 -1.37039e-07 2.98904e-06 -1.46807e-06)
(1.75943e-06 -4.44372e-07 -3.90141e-07 1.19438e-06 7.62139e-06 -5.46838e-06)
(-2.8412e-06 2.45922e-06 2.35257e-06 -1.66028e-06 3.99663e-06 -3.0824e-07)
(-8.73517e-07 2.86728e-06 4.78766e-06 2.67963e-06 4.5302e-06 -5.36989e-06)
(2.84258e-06 -2.03611e-07 -1.89603e-07 -5.20927e-07 4.64349e-06 -1.90838e-06)
(2.69377e-06 -7.68594e-07 3.13991e-06 1.72942e-06 1.61715e-07 -6.28136e-06)
(-2.38866e-06 5.7636e-06 2.31643e-06 1.04733e-06 8.89454e-07 -2.53649e-06)
(6.16676e-06 -4.27566e-06 8.8137e-07 -8.92753e-06 5.14208e-06 1.05758e-06)
(5.32326e-06 -1.86654e-06 3.20075e-06 -1.90619e-06 8.66708e-07 -4.54988e-07)
(2.58404e-06 -1.1007e-06 3.12757e-06 -6.99995e-06 5.91661e-06 6.03303e-07)
(2.65612e-06 -3.29827e-06 2.56069e-06 -6.83218e-06 3.42586e-06 9.12885e-07)
(-5.57126e-06 8.7285e-06 2.17628e-06 3.95508e-06 2.21351e-06 -1.57174e-06)
(-3.74069e-07 -1.9203e-06 3.35366e-06 -2.39125e-06 4.34117e-06 2.9875e-06)
(-1.11901e-05 6.66387e-06 1.95229e-06 8.80004e-07 1.4965e-06 1.41588e-06)
(3.22026e-06 -1.31753e-06 4.48882e-06 -4.65864e-07 -1.92364e-07 -3.22545e-06)
(3.21101e-06 -6.57046e-06 1.38369e-06 1.90161e-07 2.3089e-06 -2.71991e-06)
(-9.50409e-07 2.44528e-06 3.25421e-06 -6.06672e-07 7.16194e-06 -1.19823e-06)
(1.95224e-07 6.66018e-06 1.49615e-06 2.90543e-06 3.11275e-06 -2.99539e-06)
(2.45897e-06 -2.70174e-06 3.88678e-06 1.47326e-06 8.52023e-06 -5.29444e-06)
(-4.66536e-06 2.1685e-06 1.37858e-06 2.01817e-06 -5.56167e-09 -9.87529e-07)
(4.94999e-06 -6.02874e-06 2.94165e-06 -2.54034e-06 4.32615e-06 -1.39833e-06)
(-1.43691e-06 -6.0832e-08 1.84417e-06 1.68987e-06 1.60388e-07 -2.21732e-06)
(2.23167e-06 -3.58855e-07 -1.88738e-06 -8.49253e-07 2.24203e-06 -1.44363e-06)
(5.45093e-06 -2.09929e-06 4.08242e-06 -1.94424e-06 9.53162e-07 -5.71272e-07)
(2.06543e-06 -8.81016e-07 1.4298e-06 -3.44059e-06 1.06822e-05 -7.32056e-07)
(-6.602e-06 7.76598e-06 3.60569e-07 6.48927e-06 4.06687e-06 -1.1015e-06)
(-9.68478e-07 3.83885e-06 2.08994e-06 6.74415e-06 4.93808e-06 -4.26332e-06)
(1.2502e-06 1.91031e-06 2.21898e-06 4.88502e-06 5.31669e-06 -8.37692e-06)
(9.27799e-06 -3.85879e-06 3.33559e-07 -8.65924e-06 6.65007e-06 -9.49803e-07)
(-1.31936e-07 -6.32146e-06 1.86729e-06 -2.60966e-06 3.83955e-06 -1.05398e-06)
(-1.10526e-05 7.47801e-08 -1.64374e-06 5.01789e-06 5.6398e-06 -2.19327e-08)
(6.79055e-06 2.25773e-07 -1.31896e-06 -2.16166e-06 3.46758e-06 -2.95394e-06)
(-6.31062e-06 7.61826e-06 2.19828e-06 1.7472e-06 1.88486e-06 -1.98026e-06)
(-7.02998e-06 7.11981e-06 2.79006e-06 1.09388e-05 4.1765e-06 -3.19563e-06)
(1.15144e-06 -4.44323e-07 4.18113e-06 4.51349e-07 1.10145e-05 -2.22557e-06)
(-6.66409e-06 9.73751e-06 2.2568e-06 1.19681e-06 3.16923e-06 -1.76998e-06)
(-1.77139e-06 3.85787e-06 3.2545e-07 6.32488e-06 6.40944e-06 -2.43973e-06)
(4.19224e-07 -1.6225e-06 -1.11287e-06 1.22238e-06 1.87842e-06 -1.49807e-06)
(-5.68913e-07 1.31962e-06 -1.10887e-06 3.00701e-06 3.15975e-06 -1.76856e-06)
(-4.58513e-07 1.49253e-06 5.57119e-06 9.67979e-08 7.60487e-06 -1.89794e-06)
(-4.27312e-06 6.56296e-06 2.61602e-06 1.47289e-06 2.39033e-06 -2.81877e-06)
(-2.47549e-07 -1.40947e-06 1.15358e-07 -1.53106e-06 3.3334e-06 -5.47526e-06)
(1.01636e-06 -2.27079e-07 3.26134e-06 6.3274e-07 -2.41405e-07 -2.31908e-06)
(-1.30998e-07 -3.74817e-06 7.82107e-07 -6.14256e-06 4.9754e-06 1.50893e-06)
(-6.52609e-06 2.74639e-06 2.89665e-06 3.97652e-06 5.32547e-07 -3.3263e-06)
(3.52556e-06 -1.60075e-06 5.30792e-06 -7.14554e-07 -3.43443e-07 -2.2689e-06)
(9.85937e-06 -7.84693e-07 -1.91285e-06 -9.06977e-07 2.25783e-06 -3.3843e-06)
(2.7487e-07 1.62072e-06 -3.78004e-07 1.68165e-07 2.68972e-06 -1.31678e-06)
(9.98696e-06 -4.38493e-06 5.13641e-07 -4.67109e-06 6.16468e-06 -2.47834e-06)
(-1.21031e-05 4.9115e-06 -4.93378e-07 5.44487e-06 8.72593e-07 -1.0034e-06)
(-6.29779e-06 7.32218e-07 3.37041e-07 2.93928e-06 1.6658e-06 -8.29432e-07)
(-4.00442e-06 4.89095e-06 8.69646e-07 2.72258e-06 1.7851e-06 -1.53327e-06)
(-5.93455e-06 4.78027e-07 2.67696e-06 1.34515e-06 2.22915e-06 -6.11694e-07)
(2.90458e-06 -5.24018e-06 4.36573e-06 2.54869e-06 1.07784e-06 -3.92206e-06)
(9.51749e-06 -4.4332e-06 3.30323e-06 -1.31956e-06 2.26742e-06 -2.35e-06)
(-7.79927e-07 3.85919e-07 5.95916e-07 1.44766e-06 1.45485e-07 -8.61045e-07)
(-1.73694e-06 4.85969e-06 2.83401e-06 4.57709e-06 6.33626e-06 -3.69226e-06)
(3.62526e-06 -7.33142e-07 -7.3917e-07 2.001e-07 2.02905e-06 -2.37287e-06)
(1.88641e-06 -3.99018e-06 5.33636e-07 -7.35722e-07 4.21571e-06 -2.16154e-06)
(-8.41641e-07 -1.08588e-06 -1.37433e-07 5.92064e-07 -9.24366e-07 -2.68464e-06)
(9.10836e-06 -3.28104e-06 7.13062e-07 -9.23243e-06 3.85825e-06 -1.87237e-07)
(-8.65338e-06 3.82052e-07 -2.79364e-06 3.26793e-06 1.42422e-06 -7.52123e-07)
(1.04383e-05 -6.40511e-06 1.05077e-06 -6.06865e-07 4.76587e-06 -2.64145e-06)
(1.43026e-05 -9.59357e-07 2.49361e-07 -9.33395e-07 2.42235e-06 -4.2026e-06)
(-5.76163e-06 9.83111e-06 -2.99927e-07 1.04003e-05 5.26402e-06 -7.41607e-06)
(-3.62631e-06 5.51589e-08 3.22252e-06 1.51576e-06 4.07177e-06 -3.53894e-06)
(-8.33592e-06 1.51438e-06 1.1982e-06 5.20441e-06 4.59004e-07 -8.58959e-07)
(1.07228e-05 -3.05978e-06 -1.88123e-06 -8.01383e-06 3.06266e-06 -3.78582e-06)
(-6.74911e-06 3.19119e-06 4.57711e-06 3.98696e-06 5.55425e-07 -3.30219e-06)
(3.22549e-06 1.96031e-07 2.93672e-06 -1.05086e-06 1.46422e-06 -1.58834e-06)
(5.93413e-06 -6.50693e-06 8.14368e-07 -5.22764e-06 3.67492e-06 -2.35812e-06)
(-2.37051e-06 -2.26495e-07 2.87124e-06 3.52248e-06 8.37962e-06 -3.84217e-06)
(-8.13299e-07 3.8566e-08 1.79425e-06 2.66072e-06 1.10218e-06 -8.55197e-06)
(-8.625e-06 8.15599e-07 1.22266e-06 2.99042e-06 1.77553e-07 -2.8836e-07)
(8.65586e-06 -3.36488e-06 1.38371e-06 -8.4918e-06 4.88219e-06 -1.10773e-07)
(1.52427e-06 2.24591e-06 4.28613e-06 1.41607e-06 7.15936e-06 -3.3642e-06)
(-8.16999e-06 9.60686e-06 1.25707e-06 1.25707e-06 1.50999e-06 -1.2906e-06)
(2.55448e-07 -2.8271e-07 3.18916e-06 1.79567e-06 4.67373e-06 -4.88942e-06)
(7.5022e-07 -6.9409e-07 4.91056e-06 1.04196e-06 5.74821e-06 -4.63044e-06)
(3.08498e-06 -2.24621e-06 1.33372e-06 -1.2723e-05 6.94913e-06 5.89765e-06)
(2.04739e-06 1.55064e-06 2.85205e-06 6.61156e-07 6.38172e-07 -1.98466e-06)
(4.30118e-06 2.12737e-07 4.76286e-07 -1.88821e-06 1.33256e-06 -2.44972e-06)
(-4.15412e-06 4.41555e-06 3.26945e-06 2.52068e-06 2.42956e-06 -2.78722e-06)
(-6.41896e-06 -5.42862e-07 -1.08401e-06 3.7602e-06 2.64709e-06 -1.22933e-06)
(3.3192e-06 -8.27395e-07 5.73908e-07 -3.73993e-06 1.09923e-05 -5.46399e-07)
(6.78e-06 -3.44842e-07 -2.06088e-07 -4.14508e-07 -5.68928e-07 -3.23188e-06)
(-1.17506e-05 4.51843e-06 -2.09538e-06 5.63713e-06 4.07081e-06 -1.09197e-06)
(4.07475e-06 -1.86876e-06 8.48628e-07 -1.95492e-06 1.33613e-06 -2.44886e-06)
(1.09785e-05 -2.19028e-06 3.66641e-07 -1.07756e-06 2.82006e-06 -3.54152e-06)
(-2.89623e-06 2.78914e-06 -8.04913e-07 5.9209e-06 3.95317e-06 -2.30316e-06)
(-5.49989e-07 6.13949e-07 -1.34693e-06 7.99484e-07 2.52521e-06 -1.44172e-06)
(9.84946e-06 -7.62192e-06 2.5723e-06 -2.45659e-06 1.54231e-06 -2.06618e-06)
(-1.92308e-07 5.28758e-07 2.36928e-06 4.0278e-06 9.5185e-06 -6.14184e-06)
(-7.83641e-06 7.05567e-06 2.2167e-06 1.27651e-05 6.1636e-06 -8.11309e-06)
(-8.39914e-06 2.29044e-06 3.0425e-06 1.08517e-05 1.74952e-06 3.09051e-07)
(-1.46957e-06 4.17082e-06 1.23843e-06 2.27324e-06 4.93558e-06 -4.3635e-06)
(7.61573e-06 -9.25592e-06 1.47277e-06 1.81146e-06 2.53121e-06 -2.79287e-06)
(-1.22713e-05 4.32231e-06 3.14958e-06 3.74884e-06 -5.05142e-07 -1.49195e-06)
(-1.34503e-06 6.41717e-06 1.94621e-06 1.61727e-05 8.18562e-06 -7.74693e-06)
(-5.93455e-06 4.61531e-07 2.6474e-06 9.17762e-07 1.82686e-06 -6.80926e-07)
(-7.12059e-06 9.19445e-07 -1.65036e-06 2.72741e-06 2.0277e-06 -1.54508e-06)
(1.24821e-05 -5.07658e-06 9.93551e-08 -3.84532e-06 1.98557e-06 -4.46354e-06)
(-3.41877e-06 2.26615e-06 5.55706e-06 2.45832e-06 -1.24606e-06 -2.22275e-06)
(8.30079e-06 -9.37223e-06 1.81156e-06 -1.11711e-05 3.34792e-06 -6.92177e-07)
(-3.63797e-06 1.88733e-06 3.03746e-06 6.16217e-07 7.23941e-07 -1.1469e-06)
(2.77282e-06 -5.72932e-06 2.67685e-06 -1.3398e-05 6.02603e-06 5.83193e-06)
(1.82579e-06 -4.0459e-06 2.33125e-06 -3.08891e-06 5.89345e-06 -2.11458e-07)
(-1.38514e-06 6.32629e-06 2.32285e-06 1.0137e-05 5.93441e-06 -8.34497e-06)
(1.20094e-05 -2.42695e-06 2.1473e-06 -2.21803e-06 1.67616e-06 -3.63949e-06)