/*--------------------------------*- C++ -*----------------------------------*\
| =========                 |                                                 |
| \\      /  F ield         | OpenFOAM: The Open Source CFD Toolbox           |
|  \\    /   O peration     | Version:  v2012                                 |
|   \\  /    A nd           | Website:  www.openfoam.com                      |
|    \\/     M anipulation  |                                                 |
\*---------------------------------------------------------------------------*/
FoamFile
{
    version     2.0;
    format      ascii;
    class       pointSymmTensorField;
    location    "1";
    object      pEpsilon;
}
// * * * * * * * * * * * * * * * * * * * * * * * * * * * * * * * * * * * * * //

dimensions      [0 0 0 0 0 0 0];


internalField   nonuniform List<symmTensor> 
1705
(
(-4.71085e-06 -2.08111e-07 -4.17253e-08 1.72537e-05 1.00238e-07 -4.86331e-06)
(-2.83552e-05 4.86583e-07 1.38853e-05 3.43251e-07 2.85659e-07 1.62581e-06)
(1.45549e-05 -5.48439e-07 2.49643e-06 -3.5109e-06 -7.47575e-07 -4.15522e-06)
(4.0026e-07 9.91541e-08 7.69808e-08 -4.20265e-05 1.84066e-05 2.63881e-06)
(-2.77592e-06 -7.29174e-08 4.26368e-07 1.26891e-05 2.89294e-07 -3.83738e-06)
(7.41479e-06 -6.54535e-07 1.03841e-06 -1.80258e-05 6.70506e-06 2.94194e-06)
(9.72089e-06 -6.45341e-06 2.99537e-06 -7.06857e-07 -2.62276e-07 -1.48531e-06)
(9.85094e-07 -1.03603e-05 2.21611e-06 -2.68246e-06 2.73588e-06 7.95647e-07)
(-1.33264e-05 -1.77218e-05 1.04881e-05 -2.27805e-05 1.45091e-05 1.92803e-06)
(-1.12874e-05 7.40175e-06 3.49337e-06 2.99306e-06 -5.87573e-07 -1.81239e-06)
(-1.5007e-05 7.64242e-07 1.85511e-06 5.25629e-06 3.41882e-07 -3.76272e-07)
(-6.29906e-06 1.06758e-06 1.12448e-06 1.80728e-05 5.07318e-06 -7.34575e-06)
(-5.5222e-07 1.11513e-05 1.97035e-06 3.83216e-06 3.12376e-06 -4.34063e-06)
(4.63185e-06 8.81876e-08 4.39564e-07 -1.43496e-05 2.78974e-07 2.12362e-07)
(7.18821e-06 3.01614e-07 -9.53534e-08 -1.98037e-05 8.86992e-08 1.32254e-06)
(2.99655e-05 -5.94726e-07 1.60204e-05 -3.0804e-07 1.15084e-07 -2.51756e-06)
(1.1273e-05 1.59209e-05 1.12091e-05 2.15473e-05 1.58266e-05 -2.08285e-06)
(-7.34021e-07 -1.05581e-07 -1.85428e-07 4.21771e-05 2.10672e-05 -3.2274e-06)
(9.74981e-06 -8.47964e-06 1.92035e-06 1.34769e-06 2.69215e-07 -6.1106e-06)
(8.27251e-06 -8.59451e-06 1.96802e-06 2.3702e-06 6.09429e-07 -6.4612e-06)
(6.45999e-06 -1.01364e-05 1.26142e-06 2.27024e-06 8.72719e-07 -4.9595e-06)
(5.39411e-06 -1.09294e-05 1.28711e-06 1.13344e-06 1.8673e-06 -3.47113e-06)
(-8.62252e-07 -1.22879e-05 1.97047e-06 -7.44699e-06 1.7498e-06 9.56469e-08)
(-2.82555e-06 -1.32637e-05 1.94162e-06 -1.2522e-05 3.75933e-06 4.19124e-06)
(-5.4413e-06 -1.41492e-05 2.80717e-06 -1.53234e-05 4.08295e-06 3.87463e-06)
(-9.99813e-06 -1.71025e-05 3.66389e-06 -2.0987e-05 4.08863e-06 1.03119e-05)
(1.26509e-05 -5.65302e-06 2.01735e-06 -2.3997e-06 -2.85101e-07 -3.85691e-06)
(1.31656e-05 -3.73007e-06 2.45241e-06 -3.24848e-06 -2.08664e-07 -2.46363e-06)
(1.42858e-05 -2.66132e-06 1.08524e-06 -3.61016e-06 -3.83907e-07 -2.76179e-06)
(1.48464e-05 -1.24404e-06 1.63635e-06 -3.37153e-06 -4.97869e-07 -3.19295e-06)
(9.33544e-06 -6.81959e-06 4.68635e-06 2.54945e-07 1.41331e-07 -1.75192e-06)
(7.24934e-06 -8.25058e-06 3.52514e-06 3.29948e-06 1.04418e-06 -2.01647e-06)
(4.59294e-06 -8.01315e-06 4.51969e-06 3.33117e-06 -1.95433e-06 -1.43259e-06)
(3.72826e-06 -8.41431e-06 4.61107e-06 5.02068e-06 -2.69837e-06 -1.14326e-06)
(2.42417e-06 -9.23516e-06 4.23393e-06 6.71392e-06 -1.33132e-06 -2.01706e-06)
(1.24902e-06 -8.66048e-06 3.70446e-06 6.75462e-06 -3.87009e-06 -4.20334e-06)
(-5.49698e-07 -7.60795e-06 3.14939e-06 9.70847e-06 -2.45659e-06 -2.30132e-06)
(-2.1312e-06 -6.70921e-06 1.77705e-06 1.15598e-05 -2.69821e-06 -4.51913e-06)
(-2.1271e-06 -6.09935e-06 9.45469e-07 1.21107e-05 -3.88631e-06 -4.06612e-06)
(-2.51464e-06 -4.75227e-06 1.07788e-06 1.41034e-05 -1.77797e-06 -3.94112e-06)
(-3.52489e-06 -4.21103e-06 8.09858e-07 1.5267e-05 -1.47901e-06 -4.16151e-06)
(-3.94535e-06 -2.8323e-06 -1.55952e-08 1.58618e-05 -1.07353e-06 -4.51811e-06)
(-4.7315e-06 -1.56118e-06 -2.86418e-07 1.69912e-05 -3.46019e-07 -5.02657e-06)
(-3.81853e-06 -5.62763e-08 -1.18544e-07 1.57306e-05 -4.18567e-09 -5.06447e-06)
(-3.12577e-06 -1.2373e-07 -3.25355e-08 1.44361e-05 -8.60002e-09 -4.71123e-06)
(-3.02525e-06 -1.29429e-07 4.35001e-07 1.22687e-05 1.46315e-07 -4.20405e-06)
(-3.81326e-06 -2.26341e-07 5.26912e-07 1.20559e-05 1.39284e-07 -3.77048e-06)
(-4.81281e-06 -1.88528e-07 1.05554e-06 1.09674e-05 5.09078e-07 -2.32579e-06)
(-5.93916e-06 -6.91368e-07 1.02981e-06 1.09966e-05 3.19671e-07 -2.78807e-06)
(-8.24064e-06 -1.21925e-06 8.04172e-07 1.09915e-05 3.78376e-07 -1.60416e-06)
(-1.03495e-05 -9.28963e-07 1.92336e-06 1.05806e-05 2.08075e-07 -9.36552e-07)
(-1.25814e-05 -7.97629e-07 2.13477e-06 9.42408e-06 3.12519e-07 6.46276e-08)
(-1.5859e-05 -8.5622e-07 2.95017e-06 7.19867e-06 9.12929e-07 3.31774e-06)
(-1.8838e-05 -1.67694e-06 2.74094e-06 5.97883e-06 1.197e-06 3.60815e-06)
(-2.2279e-05 -1.79578e-06 3.40423e-06 4.81737e-06 6.63203e-08 4.53747e-06)
(-2.7017e-05 -1.31369e-06 6.32506e-06 2.8012e-06 4.17362e-07 7.59242e-06)
(1.68284e-05 -8.44058e-07 2.33411e-06 -3.1127e-06 5.68088e-07 -6.63469e-06)
(1.66487e-05 -1.14715e-06 1.56765e-06 -2.83467e-06 1.59015e-06 -7.41162e-06)
(1.37265e-05 -1.73225e-06 1.64291e-06 -4.50532e-06 2.39794e-06 -5.12158e-06)
(1.19747e-05 -1.90722e-06 1.04733e-06 -6.68113e-06 2.85435e-06 -4.02175e-06)
(9.5639e-06 -2.52628e-06 1.48796e-08 -1.17766e-05 3.27119e-06 -2.73459e-06)
(5.83339e-06 -3.14062e-06 1.0403e-07 -2.1715e-05 5.88827e-06 3.87922e-06)
(3.36039e-06 -3.62464e-06 -1.43724e-07 -2.90956e-05 4.59184e-06 7.11194e-06)
(1.89839e-06 -2.89586e-06 4.91774e-07 -3.55814e-05 8.24328e-06 9.19007e-06)
(-2.85654e-06 -4.2491e-07 4.16214e-07 1.28535e-05 -3.95923e-08 -4.06561e-06)
(-3.28562e-06 -8.40643e-07 5.30228e-07 1.28661e-05 -2.64042e-07 -3.96616e-06)
(-3.2875e-06 -1.16888e-06 4.81889e-07 1.26087e-05 -3.77722e-07 -3.8246e-06)
(-3.49804e-06 -1.87116e-06 7.36873e-07 1.24124e-05 -1.4432e-07 -3.56655e-06)
(-4.59422e-06 -2.07106e-06 1.14527e-06 1.22874e-05 -1.6773e-07 -2.70335e-06)
(-4.30424e-06 -3.01953e-06 8.33542e-07 1.24369e-05 -7.67254e-07 -2.79772e-06)
(-4.69268e-06 -4.23883e-06 1.34774e-06 1.20092e-05 -3.6902e-07 -2.00022e-06)
(-5.3824e-06 -4.8643e-06 1.95682e-06 1.20728e-05 3.76631e-07 -2.56968e-06)
(-5.5344e-06 -5.97444e-06 1.98861e-06 1.07577e-05 -6.56207e-08 -1.63247e-06)
(-4.9555e-06 -7.22082e-06 2.48357e-06 8.95518e-06 4.32047e-07 -4.30505e-07)
(-4.96895e-06 -8.66266e-06 2.82835e-06 8.66206e-06 1.16195e-06 -8.52144e-07)
(-4.69002e-06 -8.22945e-06 2.98159e-06 6.6461e-06 8.64833e-07 1.18336e-06)
(-3.89233e-06 -9.41296e-06 2.59305e-06 5.18213e-06 1.39973e-06 8.46485e-07)
(-3.79503e-06 -1.01359e-05 2.95433e-06 3.94056e-06 1.46973e-06 1.20905e-06)
(-2.94081e-06 -1.06896e-05 2.09145e-06 1.09827e-06 2.50178e-06 2.19036e-06)
(-1.68021e-06 -1.13893e-05 1.76271e-06 -1.22901e-06 2.85794e-06 2.35688e-06)
(-1.22786e-05 -1.81975e-05 1.06021e-05 -2.54535e-05 1.59098e-05 1.95758e-06)
(-1.05615e-05 -1.75255e-05 1.00149e-05 -2.86541e-05 1.80518e-05 3.87062e-07)
(-7.35148e-06 -1.51982e-05 7.34058e-06 -2.70762e-05 1.54768e-05 1.95609e-06)
(-5.87005e-06 -1.42968e-05 7.90112e-06 -3.3913e-05 1.88144e-05 3.33163e-07)
(-3.71171e-06 -1.15058e-05 5.8979e-06 -2.99758e-05 1.60104e-05 1.53616e-06)
(-2.51933e-06 -1.06283e-05 6.24005e-06 -3.73024e-05 1.99002e-05 3.24236e-07)
(-1.398e-06 -7.01487e-06 5.10173e-06 -3.04483e-05 1.85126e-05 1.53627e-06)
(-1.71966e-06 -7.88198e-06 4.00833e-06 -3.80593e-05 2.12362e-05 2.91867e-07)
(-4.41424e-07 -6.28116e-06 2.7951e-06 -3.95868e-05 1.97281e-05 2.66618e-07)
(-5.07716e-08 -3.70539e-06 1.92194e-06 -4.04389e-05 2.01677e-05 1.91732e-07)
(1.57173e-07 -1.70399e-06 3.62133e-07 -4.03221e-05 1.89135e-05 1.35131e-06)
(-3.14106e-05 -2.73772e-06 1.5694e-05 1.71089e-08 1.34313e-06 3.52674e-07)
(-2.9451e-05 -4.52188e-06 1.56049e-05 -4.2668e-07 2.57085e-06 3.11728e-07)
(-2.81681e-05 -6.63618e-06 1.57175e-05 -1.17176e-06 3.84591e-06 2.65388e-07)
(-2.3509e-05 -7.392e-06 1.34072e-05 -1.86298e-06 4.36014e-06 1.33325e-06)
(-2.50231e-05 -1.07101e-05 1.50061e-05 -4.22914e-06 6.64526e-06 3.9807e-07)
(-2.17714e-05 -1.03534e-05 1.20902e-05 -4.50117e-06 5.85624e-06 1.37503e-06)
(-2.49875e-05 -1.46797e-05 1.41757e-05 -8.37482e-06 8.6829e-06 3.51153e-07)
(-2.1662e-05 -1.51719e-05 1.36697e-05 -9.78331e-06 9.87897e-06 3.52299e-07)
(-2.07995e-05 -1.61031e-05 1.29139e-05 -1.24497e-05 1.08546e-05 3.56505e-07)
(-2.01882e-05 -1.83928e-05 1.27797e-05 -1.57801e-05 1.17846e-05 2.16034e-07)
(-1.72211e-05 -1.77598e-05 1.20971e-05 -1.76778e-05 1.32808e-05 3.20411e-07)
(-1.61185e-05 -1.84918e-05 1.20199e-05 -2.0539e-05 1.43314e-05 2.23472e-07)
(2.05837e-06 -1.0753e-05 1.84229e-06 -8.89336e-06 3.65085e-06 4.24489e-06)
(2.06633e-06 -1.11028e-05 1.4036e-06 -1.0841e-05 5.02046e-06 4.72805e-06)
(3.52474e-06 -9.17678e-06 1.57665e-06 -1.17238e-05 4.83051e-06 4.06961e-06)
(5.4864e-06 -7.05158e-06 2.77684e-06 -1.18587e-05 6.3643e-06 7.01312e-08)
(5.09385e-06 -7.18822e-06 2.99046e-06 -1.66774e-05 5.74712e-06 5.79229e-06)
(5.40073e-06 -5.38794e-06 1.68087e-06 -1.64522e-05 5.73745e-06 5.94244e-06)
(5.8577e-06 -2.74035e-06 3.81895e-07 -1.78175e-05 6.05822e-06 6.46984e-06)
(6.88251e-06 -9.07209e-07 -1.71167e-08 -2.05317e-05 4.99772e-06 7.23877e-06)
(-1.26304e-05 5.84051e-06 3.45272e-06 4.57952e-06 -1.29398e-06 -2.24576e-07)
(-1.30238e-05 4.66195e-06 1.53351e-06 3.59329e-06 -6.1156e-08 -8.79526e-07)
(-1.48603e-05 3.07675e-06 2.2622e-06 5.10112e-06 -4.19699e-07 -7.88255e-07)
(-1.51316e-05 1.7577e-06 5.8982e-07 5.41449e-06 -2.69727e-07 -1.2659e-06)
(-1.65321e-05 1.08247e-06 8.48255e-07 5.27544e-06 1.06546e-06 2.80356e-06)
(-1.57095e-05 9.30885e-07 9.33586e-07 4.92623e-06 9.3492e-07 2.28386e-06)
(-1.35743e-05 1.56952e-06 2.35908e-06 5.50666e-06 2.15785e-06 9.88409e-07)
(-1.25046e-05 1.72032e-06 1.55501e-06 8.27657e-06 2.82173e-06 7.46856e-07)
(-9.99438e-06 2.44823e-06 1.70018e-07 1.32059e-05 2.85035e-06 -9.80257e-07)
(-6.9373e-06 2.38996e-06 7.09484e-08 2.04946e-05 4.14099e-06 -1.04717e-05)
(-6.289e-06 3.77898e-06 6.43002e-07 2.06897e-05 6.36608e-06 -1.09752e-05)
(-5.71095e-06 6.27954e-06 1.00597e-06 1.81966e-05 5.67565e-06 -1.0463e-05)
(-5.99273e-06 7.01695e-06 1.67994e-06 1.69356e-05 8.14668e-06 -7.02109e-06)
(-4.71074e-06 6.96197e-06 8.91258e-07 1.61779e-05 5.91879e-06 -9.56988e-06)
(-3.09082e-06 9.41121e-06 2.35015e-06 1.27064e-05 4.68151e-06 -8.20963e-06)
(-3.34778e-06 1.06637e-05 1.27602e-06 1.09666e-05 3.44616e-06 -8.34876e-06)
(-9.98e-07 1.19514e-05 1.57802e-06 8.68931e-06 3.63736e-06 -7.47269e-06)
(-4.19578e-06 1.11838e-05 1.09471e-06 1.69826e-07 2.1729e-06 -9.63607e-07)
(-6.40529e-06 1.09152e-05 6.89797e-07 -1.12412e-06 1.27535e-06 9.84748e-07)
(-9.61781e-06 9.97506e-06 1.80072e-06 -1.12477e-06 8.67672e-07 2.15051e-06)
(-1.11656e-05 9.36646e-06 1.49397e-06 2.49478e-07 6.43525e-07 1.49806e-06)
(3.36501e-06 -1.60466e-06 4.47858e-06 -3.52437e-07 1.06156e-07 -1.9243e-06)
(-3.95566e-06 2.35618e-06 4.36214e-06 2.1582e-06 -9.12019e-08 -1.13341e-06)
(4.71395e-06 5.6331e-07 2.03158e-06 4.49477e-07 -8.89953e-07 -2.57775e-06)
(-4.63793e-06 7.56682e-07 1.52207e-06 2.95773e-06 -6.078e-07 -1.4042e-06)
(2.01212e-06 -1.05114e-07 5.242e-07 -5.87056e-06 9.40444e-06 2.98415e-07)
(-2.369e-06 -7.47729e-09 1.5227e-06 7.62204e-06 9.22347e-06 -4.76807e-06)
(2.29777e-07 -3.30003e-06 3.51917e-06 -5.68792e-07 6.08974e-06 -7.78388e-07)
(-4.53966e-07 3.71908e-06 3.80602e-06 1.91294e-06 5.58376e-06 -2.96897e-06)
(4.66468e-06 4.87639e-07 3.77327e-07 -1.45225e-05 -6.37468e-08 4.4894e-07)
(4.85571e-06 9.38696e-07 4.4627e-07 -1.41632e-05 -3.12258e-07 3.15913e-07)
(4.9895e-06 1.63021e-06 5.99328e-07 -1.38621e-05 -3.41284e-07 -2.35331e-07)
(5.24608e-06 2.66676e-06 7.73305e-07 -1.41035e-05 -2.5561e-08 7.50217e-08)
(5.59672e-06 2.92143e-06 1.22692e-06 -1.3325e-05 -2.53775e-07 -8.86445e-07)
(5.66339e-06 3.908e-06 7.40967e-07 -1.32805e-05 -8.8043e-07 -1.29369e-06)
(5.63134e-06 5.23796e-06 1.42663e-06 -1.2602e-05 -5.21916e-07 -1.32058e-06)
(6.24891e-06 6.1936e-06 1.36364e-06 -1.18905e-05 1.3456e-07 -2.27026e-06)
(6.01839e-06 6.60112e-06 1.64948e-06 -1.14171e-05 -1.22943e-07 -1.7496e-06)
(5.27057e-06 7.86211e-06 2.22298e-06 -9.40685e-06 1.40559e-07 -2.8894e-06)
(5.48697e-06 9.1127e-06 2.35943e-06 -8.36111e-06 8.03447e-07 -3.36765e-06)
(5.05793e-06 9.12414e-06 2.37324e-06 -6.64903e-06 7.89933e-07 -4.90694e-06)
(4.06483e-06 1.01247e-05 2.11538e-06 -4.91789e-06 1.02501e-06 -4.56949e-06)
(3.10243e-06 1.08074e-05 2.71259e-06 -3.66825e-06 9.00263e-07 -4.355e-06)
(2.93041e-06 1.15872e-05 1.86943e-06 -5.77031e-08 2.37075e-06 -5.92846e-06)
(2.19943e-06 1.23446e-05 2.345e-06 2.41055e-06 2.26534e-06 -7.45591e-06)
(-1.02251e-05 8.51765e-06 3.31837e-06 1.39688e-06 6.03818e-07 -2.26995e-06)
(-6.67318e-06 8.1948e-06 3.79593e-06 -9.00379e-07 -2.11499e-07 -2.40835e-06)
(-5.1936e-06 1.02774e-05 5.04773e-06 -3.33477e-07 -3.519e-06 -7.28946e-07)
(-3.91695e-06 1.07218e-05 5.19517e-06 -3.94644e-06 -1.37738e-06 -3.16967e-06)
(-1.47547e-06 1.07024e-05 3.99978e-06 -5.09525e-06 -2.03634e-06 -2.59257e-06)
(-6.10316e-08 9.96101e-06 3.4294e-06 -8.13102e-06 -2.0337e-06 -2.1531e-06)
(1.82253e-06 9.22854e-06 2.0482e-06 -9.83352e-06 -2.74496e-06 -1.17099e-06)
(2.90333e-06 8.71718e-06 1.6818e-06 -1.11439e-05 -3.60727e-06 -8.98344e-08)
(3.55203e-06 8.10642e-06 1.51892e-06 -1.32698e-05 -3.8016e-06 -3.27414e-07)
(4.66749e-06 7.10524e-06 9.94329e-07 -1.60096e-05 -2.30945e-06 9.06328e-07)
(5.29279e-06 5.73196e-06 8.39326e-07 -1.70952e-05 -1.69102e-06 3.49404e-07)
(6.44342e-06 3.70065e-06 -4.78702e-08 -1.8272e-05 -1.2125e-06 1.08692e-06)
(7.25707e-06 2.01197e-06 -3.28649e-07 -1.95122e-05 -3.24463e-07 1.42012e-06)
(6.06593e-06 7.62715e-08 -9.52471e-08 -1.77158e-05 1.69322e-09 1.37976e-06)
(5.16194e-06 1.02349e-07 6.42365e-09 -1.62363e-05 -1.23122e-07 1.26638e-06)
(-2.6228e-06 -4.71798e-08 8.99761e-07 1.07508e-05 1.2975e-07 -3.50724e-06)
(-2.43798e-06 -9.53109e-08 1.56983e-06 9.3808e-06 6.90102e-08 -3.32035e-06)
(-1.88226e-06 3.10317e-08 2.19758e-06 8.08367e-06 2.2783e-07 -3.03274e-06)
(-1.29054e-06 1.7855e-08 2.86997e-06 6.33865e-06 1.22955e-07 -2.86422e-06)
(-8.35225e-07 9.60185e-09 3.39674e-06 4.14987e-06 2.72755e-07 -2.4797e-06)
(-1.85913e-07 2.11717e-08 3.76873e-06 2.03039e-06 3.42682e-07 -2.10785e-06)
(6.20729e-07 -9.04638e-08 4.14274e-06 6.6282e-08 3.84397e-07 -1.75435e-06)
(1.39042e-06 1.24607e-09 4.01917e-06 -2.18312e-06 2.95591e-07 -1.63466e-06)
(1.95639e-06 5.94441e-08 3.63474e-06 -3.63961e-06 3.10732e-07 -1.55214e-06)
(2.65491e-06 1.51076e-07 3.41171e-06 -5.7771e-06 2.7466e-07 -1.14824e-06)
(3.09984e-06 6.57293e-08 2.82436e-06 -7.7899e-06 1.96781e-07 -7.40656e-07)
(3.6588e-06 1.50942e-07 2.25225e-06 -9.35128e-06 3.41814e-07 -5.5198e-07)
(4.32589e-06 1.71045e-07 1.60071e-06 -1.10207e-05 1.21436e-07 -2.55479e-07)
(4.4796e-06 1.10314e-07 8.85858e-07 -1.24053e-05 1.45254e-07 -1.20078e-07)
(-5.29868e-06 -4.77596e-07 1.15993e-07 1.62564e-05 -4.5863e-08 -4.04997e-06)
(-3.96143e-06 -3.93543e-07 1.23524e-08 1.42666e-05 -2.67976e-07 -3.47859e-06)
(-3.85921e-06 -1.24551e-07 4.42735e-07 1.1664e-05 -1.83543e-07 -2.73651e-06)
(-2.3681e-06 -2.4699e-07 7.10389e-07 9.28692e-06 -2.6916e-07 -2.38743e-06)
(-1.39404e-06 8.90126e-08 1.07147e-06 6.21453e-06 -1.38647e-07 -1.96341e-06)
(-1.04075e-06 -2.82963e-07 7.87373e-07 2.85256e-06 -1.9048e-07 -1.63243e-06)
(1.33514e-06 2.13231e-07 8.13316e-07 1.69305e-07 -2.42273e-07 -1.69235e-06)
(1.47863e-06 -1.377e-07 8.3428e-07 -3.36159e-06 -4.27026e-07 -1.60257e-06)
(3.72241e-06 3.22695e-07 8.29118e-07 -5.86904e-06 -4.38891e-07 -1.8846e-06)
(4.03212e-06 3.92047e-09 9.96888e-07 -9.03295e-06 -2.36244e-07 -1.54413e-06)
(5.10429e-06 4.9458e-07 6.58292e-07 -1.20435e-05 -2.00979e-07 -1.2099e-06)
(6.57773e-06 2.79462e-07 4.36003e-07 -1.45764e-05 -8.58962e-08 -7.73946e-07)
(6.62683e-06 5.39093e-07 -1.79426e-08 -1.74038e-05 -2.30831e-07 3.582e-08)
(8.00204e-06 5.93599e-07 9.04669e-08 -1.9148e-05 -3.35519e-08 5.24319e-07)
(4.76428e-06 1.72667e-07 4.9324e-07 -1.36282e-05 1.48607e-07 5.84237e-07)
(5.47264e-06 2.14955e-07 6.05622e-07 -1.29017e-05 1.9219e-07 -2.79255e-08)
(6.42499e-06 2.7038e-07 1.20866e-06 -1.18553e-05 4.59738e-07 -1.48698e-06)
(7.44225e-06 8.7282e-07 1.47197e-06 -1.21737e-05 6.86657e-07 -1.21605e-06)
(9.06652e-06 7.91004e-07 2.13335e-06 -1.12496e-05 2.93974e-07 -1.66392e-06)
(1.14675e-05 8.45134e-07 2.39849e-06 -1.05127e-05 5.16438e-07 -3.21587e-06)
(1.30933e-05 9.05643e-07 2.56531e-06 -8.59825e-06 7.85505e-07 -4.80803e-06)
(1.56121e-05 2.16145e-06 2.96683e-06 -6.39032e-06 3.30835e-07 -5.34572e-06)
(1.95619e-05 3.04233e-06 2.63666e-06 -5.809e-06 4.43983e-07 -7.10972e-06)
(2.21603e-05 1.33031e-06 5.15409e-06 -5.15733e-06 4.04648e-07 -8.30293e-06)
(2.69244e-05 1.72496e-06 6.03701e-06 -2.67897e-06 1.28266e-06 -1.166e-05)
(3.35302e-05 3.04943e-06 1.80118e-05 -1.5225e-07 1.68806e-06 -3.45899e-07)
(2.94864e-05 5.15405e-06 1.75212e-05 6.3928e-07 2.85189e-06 -3.60825e-07)
(2.65249e-05 6.23677e-06 1.69151e-05 1.27664e-06 4.34055e-06 -2.75232e-07)
(2.76433e-05 8.47025e-06 1.74764e-05 2.13573e-06 5.49355e-06 -4.6717e-07)
(2.82141e-05 1.16673e-05 1.77635e-05 4.37239e-06 7.65807e-06 -4.56248e-07)
(2.41702e-05 1.22034e-05 1.6277e-05 5.87742e-06 8.53882e-06 -4.04631e-07)
(2.30091e-05 1.34062e-05 1.58207e-05 7.40364e-06 9.76855e-06 -4.0821e-07)
(2.15573e-05 1.52422e-05 1.54321e-05 1.00734e-05 1.09555e-05 -4.12035e-07)
(2.07935e-05 1.62362e-05 1.53751e-05 1.27289e-05 1.27521e-05 -3.9928e-07)
(2.00187e-05 1.81962e-05 1.47988e-05 1.54697e-05 1.40276e-05 -2.64867e-07)
(1.6731e-05 1.77483e-05 1.39154e-05 1.79758e-05 1.50742e-05 -3.13092e-07)
(1.54433e-05 1.81456e-05 1.36242e-05 2.07198e-05 1.64199e-05 -3.00827e-07)
(1.0381e-05 1.65494e-05 7.60739e-06 2.03587e-05 9.16499e-06 -9.22958e-06)
(8.11074e-06 1.66344e-05 1.88592e-06 1.73381e-05 2.25477e-06 -9.81561e-06)
(3.16902e-06 1.30217e-05 1.79638e-06 1.08274e-05 3.20211e-06 -6.59073e-06)
(1.06798e-06 1.26563e-05 2.91626e-06 6.67321e-06 3.93152e-06 -4.66151e-06)
(-7.66388e-06 -8.71734e-08 1.15202e-05 0 5.04564e-07 3.59934e-07)
(7.18887e-06 8.98043e-08 1.19629e-05 0 5.06657e-07 -6.134e-07)
(-3.98293e-06 -4.9594e-06 8.49915e-06 -6.11342e-06 1.18904e-05 2.66301e-07)
(3.41164e-06 4.56833e-06 8.76613e-06 5.87305e-06 1.23265e-05 -5.36105e-07)
(1.12039e-05 1.7053e-05 1.14705e-05 2.54347e-05 1.82989e-05 -2.07499e-07)
(9.64653e-06 1.68844e-05 1.01673e-05 2.82294e-05 1.82289e-05 -3.54622e-07)
(7.22636e-06 1.51204e-05 1.00663e-05 2.93001e-05 1.97706e-05 -2.83274e-07)
(5.64682e-06 1.38075e-05 8.05332e-06 3.05401e-05 1.83288e-05 -3.30084e-06)
(4.04877e-06 1.26122e-05 7.88681e-06 3.64728e-05 2.25056e-05 -3.82014e-07)
(3.53851e-06 1.20094e-05 6.49374e-06 3.71242e-05 2.17181e-05 -3.22617e-07)
(1.97508e-06 9.12431e-06 5.50368e-06 3.7977e-05 2.17583e-05 -3.1981e-07)
(1.51115e-06 8.15946e-06 4.18404e-06 3.79374e-05 2.16096e-05 -3.10954e-07)
(5.24071e-07 5.77679e-06 3.22903e-06 3.71312e-05 2.14253e-05 -2.64642e-07)
(1.27521e-07 4.39253e-06 2.19753e-06 4.0433e-05 2.22878e-05 -1.99793e-07)
(-9.54993e-08 1.92182e-06 5.08676e-07 4.22841e-05 2.16652e-05 -1.5953e-06)
(-2.96207e-06 3.08698e-06 1.14314e-06 3.69604e-05 9.34221e-06 -1.31066e-05)
(-2.85228e-06 4.32894e-06 3.68925e-07 3.07389e-05 4.03106e-06 -1.19228e-05)
(-5.25406e-06 2.59148e-06 1.21741e-08 2.3864e-05 4.37745e-06 -7.62925e-06)
(0 3.15661e-07 3.36964e-07 -1.13485e-05 1.41737e-05 -1.40305e-07)
(0 -2.60205e-07 2.98221e-07 1.15789e-05 1.56637e-05 -4.39773e-07)
(8.96497e-06 -3.79231e-06 1.61072e-06 -2.82666e-06 2.8532e-06 -1.0492e-06)
(7.45727e-06 -6.4902e-06 1.32611e-07 -2.64843e-06 4.64001e-06 -1.39319e-06)
(9.02921e-06 -2.8718e-06 1.41985e-07 -7.31175e-06 5.22653e-06 -8.19785e-07)
(1.01291e-05 -5.34303e-06 7.67761e-07 -8.23071e-07 2.58803e-06 -3.75875e-06)
(1.19047e-05 -2.24036e-06 -2.38244e-07 -2.60043e-06 2.04849e-06 -2.11441e-06)
(8.32314e-06 -6.32213e-06 -2.3658e-08 -4.63978e-06 3.76091e-06 -1.78997e-06)
(4.94905e-06 -6.99894e-06 2.46354e-06 -1.35275e-06 2.63459e-06 -1.30868e-06)
(1.04821e-05 -1.83632e-06 -4.40952e-07 -4.14872e-06 3.25546e-06 -1.57534e-06)
(8.43517e-06 -6.21735e-06 2.7311e-06 -2.15717e-07 5.67786e-07 -2.23713e-06)
(7.45201e-06 -5.31409e-06 1.18331e-06 -9.5975e-06 4.12175e-06 1.33913e-06)
(1.18118e-05 -3.37127e-06 1.14242e-06 -2.54969e-06 4.06601e-07 -1.59992e-06)
(9.56811e-06 -6.00013e-06 3.33789e-07 -2.77972e-06 3.54389e-06 -1.82443e-06)
(5.53599e-06 -7.89871e-06 1.23661e-06 -5.59394e-06 3.32407e-06 -2.0677e-06)
(7.05019e-06 -2.1299e-06 -3.8243e-08 -1.06564e-05 4.49845e-06 2.44183e-06)
(6.71249e-06 -8.00373e-06 1.35209e-06 3.68365e-07 2.17191e-06 -1.04372e-06)
(9.96659e-06 -6.11036e-06 2.29396e-06 -1.03528e-06 1.72151e-07 -1.45551e-06)
(5.71838e-06 -7.00917e-06 7.65107e-07 -7.78256e-06 5.16626e-06 1.80004e-06)
(9.49037e-06 -1.65254e-06 -5.74286e-07 -5.78494e-06 4.40915e-06 -5.0786e-07)
(5.82059e-06 -2.67504e-06 1.58621e-06 -1.02436e-05 5.42774e-06 2.66567e-06)
(8.90169e-06 -3.28034e-06 1.45255e-07 -4.51363e-06 4.21904e-06 -2.28798e-06)
(1.37025e-05 -8.1947e-07 7.48207e-08 -2.96388e-06 1.5365e-07 -2.29983e-06)
(1.2636e-05 -5.04506e-06 6.93308e-07 -2.08633e-06 5.87749e-07 -4.69213e-06)
(1.0686e-05 -4.65261e-06 3.60135e-07 -1.28822e-06 1.09758e-06 -3.135e-06)
(1.33813e-05 -1.47574e-06 -1.11776e-06 -3.18203e-06 1.80937e-06 -3.07496e-06)
(1.12224e-05 -3.093e-06 2.51206e-07 -2.64005e-06 2.36295e-06 -2.91259e-06)
(8.85949e-06 -5.9263e-06 1.77965e-06 -2.46809e-06 1.6227e-06 -2.41173e-06)
(6.79075e-06 -7.19209e-06 2.92291e-06 -1.07025e-05 5.01648e-06 1.67915e-06)
(1.30979e-05 -2.04034e-06 1.05272e-06 -2.98379e-06 4.5962e-07 -1.92623e-06)
(6.98071e-06 -6.37673e-06 1.66737e-06 -3.0367e-06 4.55541e-06 -6.09293e-07)
(8.71352e-06 -4.11961e-06 1.51525e-06 -3.19787e-06 4.40696e-06 -6.59793e-07)
(3.85771e-06 -8.09134e-06 2.07869e-06 -2.43807e-06 2.2338e-06 3.00521e-07)
(4.05779e-06 -8.46068e-06 1.40227e-06 -5.49422e-06 3.06673e-06 -7.22514e-07)
(1.15485e-05 -3.67296e-06 2.64289e-07 -1.96489e-06 2.81497e-06 -1.89866e-06)
(1.1044e-05 -2.42954e-06 5.01461e-07 -5.4485e-06 3.43872e-06 -3.15888e-06)
(5.1167e-06 -8.87331e-06 3.66092e-06 2.09598e-07 8.83763e-07 -5.1285e-07)
(7.83018e-06 -7.09871e-06 1.8486e-06 -2.51425e-06 2.72152e-06 -1.04671e-06)
(9.72449e-06 -7.98947e-06 2.16942e-06 9.62252e-07 1.87912e-06 -4.27161e-06)
(8.67731e-06 -1.76545e-06 1.45282e-07 -7.63714e-06 5.08742e-06 1.23679e-06)
(2.11254e-06 -7.26083e-06 2.96802e-06 3.27624e-06 6.60027e-08 -8.42131e-07)
(4.93044e-07 -9.03625e-06 3.69161e-06 5.96462e-06 -6.44009e-07 -8.56913e-07)
(-1.82774e-06 -7.79222e-06 3.05395e-06 1.0179e-05 -5.00838e-07 -3.84623e-06)
(-1.67216e-06 -6.2112e-06 1.34316e-06 1.07944e-05 -1.24724e-06 -3.89546e-06)
(-3.35806e-06 -7.29391e-07 -9.91942e-08 1.46163e-05 -4.34768e-07 -4.80149e-06)
(6.13594e-06 -7.25542e-06 1.07144e-06 2.34011e-06 1.08259e-06 1.12257e-07)
(-2.91618e-06 -4.31227e-06 1.03556e-06 1.299e-05 -1.44772e-06 -3.11419e-06)
(-2.84577e-06 -5.19496e-06 1.84717e-06 1.16976e-05 -1.62491e-06 -3.36269e-06)
(3.17997e-06 -9.16662e-06 2.27594e-06 3.33366e-06 9.43716e-07 -4.21251e-06)
(-3.21514e-06 -1.90907e-06 1.68404e-07 1.34457e-05 -6.07081e-07 -3.84157e-06)
(4.04549e-06 -8.09132e-06 3.4752e-06 4.63921e-06 -2.26462e-06 -3.70737e-06)
(-1.37544e-07 -8.90764e-06 2.97956e-06 5.53578e-06 8.11383e-07 -2.29052e-06)
(-3.04624e-06 -3.3815e-06 8.46274e-07 1.34574e-05 -1.40373e-06 -3.59434e-06)
(-1.66796e-06 -7.73138e-06 3.47203e-06 8.24965e-06 -8.58043e-07 -1.55597e-06)
(1.2922e-06 -8.21154e-06 3.04151e-06 7.17037e-06 -2.22919e-07 -1.89727e-06)
(-3.15428e-06 -6.60456e-06 2.55737e-06 1.02759e-05 -1.20171e-06 -1.1375e-06)
(-2.05048e-07 -7.24145e-06 2.64669e-06 8.81151e-06 -8.13938e-07 -2.27667e-06)
(4.93247e-06 -6.95183e-06 4.24199e-06 2.88334e-06 -8.03771e-08 -1.23955e-06)
(-1.50812e-07 -8.53951e-06 1.38889e-06 3.14009e-06 1.69139e-06 1.78157e-07)
(-3.07078e-06 -2.11804e-06 7.23952e-07 1.33556e-05 -4.73952e-07 -4.21342e-06)
(-1.3174e-06 -7.72357e-06 2.29595e-06 6.115e-06 1.9145e-06 -1.31167e-06)
(5.41425e-06 -8.94237e-06 2.56929e-06 2.62487e-06 5.08139e-07 -1.13389e-06)
(-3.70466e-06 -4.86755e-06 1.81586e-06 1.12275e-05 -7.28739e-07 -1.61373e-06)
(7.21241e-06 -6.53278e-06 2.59124e-06 1.96755e-06 2.51524e-07 -2.39338e-06)
(-3.08028e-06 -7.80355e-06 3.01209e-06 9.43144e-06 -8.28075e-08 -2.85638e-06)
(2.69241e-06 -8.79196e-06 3.59319e-06 5.9781e-06 -2.69636e-06 -1.86219e-06)
(-1.5377e-06 -5.89967e-06 2.5838e-06 9.69133e-06 -1.28816e-06 -2.6606e-06)
(1.13288e-06 -7.72057e-06 3.01915e-06 7.51609e-06 -1.25385e-06 -4.19534e-06)
(-3.58916e-06 -4.1758e-06 1.53074e-06 1.25205e-05 -9.34494e-07 -3.99741e-06)
(-3.76175e-06 -1.55921e-06 1.41348e-07 1.54378e-05 -1.54154e-07 -5.12731e-06)
(1.29275e-06 -8.73484e-06 3.19006e-06 4.77597e-06 -4.51664e-07 -2.75066e-06)
(-3.3918e-06 -3.34036e-06 6.56539e-07 1.44494e-05 -9.53319e-07 -4.31286e-06)
(4.81322e-07 -9.58386e-06 2.1443e-06 1.69681e-06 2.123e-06 -9.88356e-07)
(1.78529e-06 -1.01757e-05 1.0518e-06 1.08717e-06 2.15981e-06 -7.90268e-07)
(-4.14597e-06 -8.71531e-07 4.61744e-08 1.57014e-05 -3.3339e-07 -4.6349e-06)
(-2.97875e-06 -5.62918e-07 2.81037e-07 1.35097e-05 -4.36561e-07 -3.70757e-06)
(-4.1979e-06 -5.98049e-06 2.11095e-06 1.20826e-05 -9.66179e-07 -3.10726e-06)
(4.45673e-06 -8.62139e-06 2.38637e-06 3.21854e-06 9.07794e-07 -2.158e-06)
(-3.0726e-06 -9.55939e-07 2.61699e-07 1.35554e-05 -5.84823e-07 -3.88582e-06)
(-2.4512e-06 -5.68014e-06 1.20321e-06 1.21451e-05 -2.5956e-06 -3.4454e-06)
(3.99757e-06 -8.9175e-06 1.13459e-06 1.73438e-06 2.14472e-06 -1.38964e-06)
(-3.37262e-06 -3.02363e-06 1.09121e-06 1.24251e-05 -3.80437e-07 -3.40185e-06)
(-1.58411e-06 -8.75321e-06 2.68279e-06 5.94016e-06 8.51399e-07 -1.67125e-06)
(-3.37936e-06 -4.62844e-07 -6.6259e-08 1.45431e-05 -4.46957e-07 -4.40571e-06)
(-1.83267e-05 -6.07305e-06 4.17187e-06 6.06936e-06 8.57043e-07 6.37632e-06)
(-8.27104e-06 -1.83089e-06 2.48856e-06 9.45574e-06 3.83873e-07 -2.276e-08)
(-1.22192e-05 -9.67845e-06 3.38573e-06 1.7943e-06 3.26721e-06 2.70412e-06)
(-1.00403e-05 -1.3255e-05 5.04481e-06 -6.27279e-06 6.55286e-06 7.32043e-06)
(-8.37221e-06 -3.82025e-06 2.77828e-06 8.78358e-06 6.46519e-07 2.58123e-07)
(-1.54111e-05 -3.13114e-06 5.16683e-06 5.79724e-06 1.06143e-06 3.46313e-06)
(-4.68628e-06 -6.1058e-07 1.24338e-06 1.12463e-05 -1.51644e-08 -2.4241e-06)
(-9.25995e-06 -8.14255e-06 2.94287e-06 7.12588e-06 3.74605e-07 -1.01901e-07)
(-2.2871e-05 -5.69541e-06 3.95743e-06 1.82128e-06 5.58281e-07 4.01e-06)
(-2.09154e-05 -1.09892e-05 5.99794e-06 -7.2357e-07 3.00789e-06 4.63034e-06)
(-6.24114e-06 -8.51024e-06 4.54933e-06 2.65104e-06 3.68107e-06 1.11304e-06)
(-4.98342e-06 -1.29961e-06 1.78605e-06 1.12295e-05 2.42139e-07 -2.48174e-06)
(-1.6176e-05 -1.366e-05 5.2219e-06 -5.26081e-06 3.8103e-06 6.32776e-06)
(-1.27994e-05 -7.35676e-06 5.09376e-06 2.56776e-06 1.48616e-06 2.48622e-06)
(-7.89263e-06 -6.36907e-07 2.64943e-06 9.89598e-06 -2.52308e-07 -2.84455e-07)
(-1.12686e-05 -3.27173e-06 3.84613e-06 8.0413e-06 9.0052e-07 5.29266e-07)
(-5.99065e-06 -1.20563e-05 4.96376e-06 -3.76343e-06 4.06223e-06 1.94554e-06)
(-1.13012e-05 -1.18728e-06 2.51594e-06 8.15116e-06 2.77202e-07 1.0487e-06)
(-1.15003e-05 -1.4673e-05 2.74054e-06 -1.15915e-05 3.5869e-06 5.24632e-06)
(-6.37559e-06 -2.6299e-06 2.2896e-06 1.14394e-05 8.99512e-07 -2.52739e-06)
(-2.0499e-05 -2.94706e-06 6.80807e-06 5.28761e-06 1.43649e-06 4.29549e-06)
(-6.80998e-06 -1.11336e-05 3.4608e-06 -7.34753e-07 3.61757e-06 3.79626e-06)
(-3.78771e-06 -2.44502e-07 9.2377e-07 1.16862e-05 -5.25731e-07 -2.80788e-06)
(-1.89414e-05 -1.20332e-05 4.29827e-06 -2.96192e-06 2.76712e-06 5.51476e-06)
(-7.34159e-06 -5.30751e-06 1.92245e-06 9.96217e-06 1.08845e-06 -9.53275e-07)
(-1.98555e-05 -6.90276e-06 5.68459e-06 2.39215e-06 1.65237e-06 3.37467e-06)
(-1.02186e-05 -5.46783e-06 4.8319e-06 7.21507e-06 1.35144e-06 7.54135e-07)
(-1.20373e-05 -1.20157e-05 5.09066e-06 -1.94297e-06 3.38046e-06 3.0775e-06)
(-6.23499e-06 -7.58585e-06 3.48847e-06 7.04212e-06 2.33401e-06 2.02733e-07)
(-1.43399e-05 -1.42848e-05 5.6202e-06 -8.31995e-06 4.07866e-06 7.2233e-06)
(-2.34092e-05 -3.28051e-06 8.66229e-06 1.00674e-06 1.67777e-06 1.49172e-06)
(-1.5622e-05 -4.80857e-06 7.73418e-06 4.06928e-06 1.58492e-06 1.83895e-06)
(-4.47184e-06 -5.93648e-07 1.53612e-06 1.11325e-05 -3.11013e-07 -2.4251e-06)
(-7.20948e-06 -4.80317e-06 1.97403e-06 1.11464e-05 2.73877e-07 -1.76898e-06)
(-8.55382e-06 -3.30104e-06 2.36958e-06 1.05431e-05 3.13957e-07 -1.06755e-06)
(-5.76546e-06 -6.23987e-07 1.39072e-06 1.06019e-05 -2.29092e-08 -1.80649e-06)
(-1.07822e-05 -2.68173e-06 4.09426e-06 8.83028e-06 8.5748e-07 3.74828e-07)
(-1.50664e-05 -1.76665e-06 2.41793e-06 7.2175e-06 2.87612e-07 1.53587e-06)
(-6.32833e-06 -6.23007e-06 2.74309e-06 8.10094e-06 1.32531e-06 -4.98195e-07)
(-6.81561e-06 -8.36593e-07 2.00752e-06 1.02098e-05 4.7441e-07 -1.24271e-06)
(-2.3738e-05 -7.38746e-06 9.27063e-06 -5.02001e-08 2.91462e-06 2.79124e-06)
(-7.57404e-06 -1.39831e-05 2.91659e-06 -9.76246e-06 4.61813e-06 8.41706e-06)
(-2.31774e-05 -9.31805e-06 7.05976e-06 -1.57006e-06 2.56612e-06 6.43356e-06)
(-7.98921e-06 -7.35629e-06 4.29521e-06 4.35437e-06 1.87311e-06 1.08472e-06)
(-5.31116e-06 -1.90305e-06 1.6422e-06 1.18009e-05 5.21557e-07 -2.38843e-06)
(-9.09442e-06 -6.61569e-07 3.03296e-06 9.2833e-06 -8.44896e-07 9.45698e-07)
(-1.83465e-05 -1.06003e-05 4.58977e-06 6.04298e-08 2.93653e-06 4.27966e-06)
(-1.78773e-05 -7.45148e-06 5.16773e-06 4.13238e-06 2.909e-06 1.95289e-06)
(-5.07192e-06 -9.50792e-06 3.50193e-06 2.94043e-06 2.96541e-06 2.0495e-07)
(-2.19651e-05 -1.01021e-05 7.56388e-06 -1.92664e-06 2.34861e-06 3.65015e-06)
(-1.05569e-05 -4.49149e-06 3.6211e-06 8.1599e-06 9.19939e-07 1.19339e-06)
(-8.78239e-06 -1.44039e-06 3.25896e-06 8.42097e-06 7.33357e-07 2.8062e-07)
(-1.79667e-05 -1.19985e-05 5.88665e-06 -5.48797e-06 4.57508e-06 2.69139e-06)
(-3.8061e-06 -5.40514e-07 8.33444e-07 1.21997e-05 7.22712e-08 -3.36295e-06)
(-1.64419e-05 -4.7569e-06 5.28026e-06 6.26233e-06 2.29444e-06 4.31689e-06)
(-4.255e-06 -2.79096e-07 9.08324e-07 1.13759e-05 -3.01075e-07 -2.76672e-06)