/*--------------------------------*- C++ -*----------------------------------*\
| =========                 |                                                 |
| \\      /  F ield         | OpenFOAM: The Open Source CFD Toolbox           |
|  \\    /   O peration     | Version:  v2012                                 |
|   \\  /    A nd           | Website:  www.openfoam.com                      |
|    \\/     M anipulation  |                                                 |
\*---------------------------------------------------------------------------*/
FoamFile
{
    version     2.0;
    format      ascii;
    class       volVectorField;
    location    "2";
    object      D_0;
}
// * * * * * * * * * * * * * * * * * * * * * * * * * * * * * * * * * * * * * //

dimensions      [0 1 0 0 0 0 0];


internalField   nonuniform List<vector> 
500
(
(3.33772e-05 -0.000411584 0)
(5.74056e-05 -0.000411195 0)
(2.64729e-05 -0.000425872 0)
(4.90955e-05 -0.00042574 0)
(2.28162e-05 -0.000436705 0)
(4.44273e-05 -0.000435109 0)
(2.05187e-05 -0.000444628 0)
(4.14595e-05 -0.000441637 0)
(1.88199e-05 -0.000451071 0)
(3.90718e-05 -0.000447086 0)
(0.00014369 -0.000385883 0)
(0.00016272 -0.000375359 0)
(0.000118893 -0.000397405 0)
(0.000137935 -0.000385601 0)
(0.000103467 -0.000405795 0)
(0.000123434 -0.000392429 0)
(9.38113e-05 -0.000411661 0)
(0.000114639 -0.000397059 0)
(8.73625e-05 -0.000416525 0)
(0.000108564 -0.000400517 0)
(0.000249076 -0.000347592 0)
(0.000265721 -0.000329061 0)
(0.000213583 -0.000349833 0)
(0.000232059 -0.000328918 0)
(0.00019045 -0.000351526 0)
(0.000211221 -0.000328906 0)
(0.000175327 -0.000352411 0)
(0.000198017 -0.000328808 0)
(0.000165092 -0.000353143 0)
(0.000189146 -0.000328595 0)
(0.000348586 -0.00030037 0)
(0.00036468 -0.000275396 0)
(0.000308748 -0.000291261 0)
(0.000328177 -0.000264076 0)
(0.000282542 -0.000284618 0)
(0.000305151 -0.000256543 0)
(0.000265219 -0.000279343 0)
(0.000290367 -0.000251008 0)
(0.000253403 -0.000275137 0)
(0.000280591 -0.000246648 0)
(0.000438712 -0.000249407 0)
(0.000455018 -0.000221551 0)
(0.000401278 -0.000230241 0)
(0.000421858 -0.000200778 0)
(0.000376331 -0.000215979 0)
(0.000400448 -0.000186709 0)
(0.000359969 -0.000205049 0)
(0.000386871 -0.000176514 0)
(0.000349387 -0.000196706 0)
(0.000378785 -0.00016858 0)
(0.00051684 -0.000199312 0)
(0.000533255 -0.00017165 0)
(0.000486662 -0.000173674 0)
(0.000507647 -0.000145306 0)
(0.000466109 -0.000154658 0)
(0.000490174 -0.000127215 0)
(0.000452635 -0.00014074 0)
(0.000478246 -0.000114436 0)
(0.000444727 -0.000131992 0)
(0.000469789 -0.00010595 0)
(0.000581732 -0.000151276 0)
(0.00059772 -0.000126274 0)
(0.000561589 -0.000123777 0)
(0.000581871 -9.92662e-05 0)
(0.000547989 -0.000103333 0)
(0.000570897 -8.02961e-05 0)
(0.000539028 -8.82401e-05 0)
(0.000563325 -6.59598e-05 0)
(0.000533593 -7.7899e-05 0)
(0.000557074 -5.4697e-05 0)
(0.000630686 -0.000106216 0)
(0.000644586 -8.56689e-05 0)
(0.000620711 -8.20992e-05 0)
(0.000638082 -6.27672e-05 0)
(0.00061413 -6.39968e-05 0)
(0.000633123 -4.64858e-05 0)
(0.000609894 -5.07331e-05 0)
(0.000629656 -3.40718e-05 0)
(0.00060735 -4.19582e-05 0)
(0.000626586 -2.37539e-05 0)
(0.000662198 -6.42011e-05 0)
(0.000672217 -4.91605e-05 0)
(0.000660734 -4.82571e-05 0)
(0.000673049 -3.44274e-05 0)
(0.000659791 -3.58367e-05 0)
(0.000672851 -2.35877e-05 0)
(0.000659221 -2.66639e-05 0)
(0.000672607 -1.50816e-05 0)
(0.000659024 -2.08765e-05 0)
(0.00067209 -7.64488e-06 0)
(0.000674779 -2.56141e-05 0)
(0.000679747 -1.62717e-05 0)
(0.00067979 -2.02012e-05 0)
(0.000685917 -1.16362e-05 0)
(0.000683322 -1.51554e-05 0)
(0.00068959 -7.3607e-06 0)
(0.000685881 -1.11799e-05 0)
(0.000691979 -3.3989e-06 0)
(0.000688067 -8.44987e-06 0)
(0.000693243 6.30311e-07 0)
(0.000695277 -2.94207e-06 0)
(0.000696213 -3.67345e-06 0)
(0.000677184 -9.26804e-06 0)
(0.000674444 -1.04238e-05 0)
(0.00063737 -2.17658e-05 0)
(0.000632019 -2.33274e-05 0)
(0.000575549 -4.57744e-05 0)
(0.000568634 -4.68285e-05 0)
(0.000494494 -8.73845e-05 0)
(0.000486992 -8.6713e-05 0)
(0.000703379 -1.6907e-06 0)
(0.000704689 -3.84166e-06 0)
(0.000688251 -6.8639e-06 0)
(0.000687044 -9.57123e-06 0)
(0.000655078 -1.55553e-05 0)
(0.00065244 -1.88982e-05 0)
(0.000604964 -3.08735e-05 0)
(0.000601977 -3.40541e-05 0)
(0.000540551 -5.52884e-05 0)
(0.000537662 -5.7046e-05 0)
(0.000715902 -6.84489e-07 0)
(0.000719271 -3.58639e-06 0)
(0.000703443 -4.66149e-06 0)
(0.000704489 -7.82126e-06 0)
(0.000675691 -1.08429e-05 0)
(0.000675472 -1.44212e-05 0)
(0.000634667 -2.10928e-05 0)
(0.000634147 -2.46552e-05 0)
(0.000583113 -3.71177e-05 0)
(0.000582913 -3.98047e-05 0)
(0.000733301 -4.08997e-07 0)
(0.000738451 -3.52009e-06 0)
(0.00072318 -3.81135e-06 0)
(0.000726128 -7.16018e-06 0)
(0.000700388 -8.86221e-06 0)
(0.000702081 -1.25736e-05 0)
(0.0006669 -1.68324e-05 0)
(0.000668301 -2.06614e-05 0)
(0.000624986 -2.86999e-05 0)
(0.00062681 -3.20945e-05 0)
(0.000754959 -6.50793e-07 0)
(0.000761494 -3.72882e-06 0)
(0.000746708 -4.41448e-06 0)
(0.000751253 -7.82162e-06 0)
(0.000728008 -9.4601e-06 0)
(0.000731431 -1.32791e-05 0)
(0.000700526 -1.66319e-05 0)
(0.000703719 -2.07056e-05 0)
(0.000666252 -2.64219e-05 0)
(0.000669894 -3.03562e-05 0)
(0.000780324 -1.06101e-06 0)
(0.000788057 -4.06441e-06 0)
(0.000773538 -5.66178e-06 0)
(0.0007795 -9.01268e-06 0)
(0.000758113 -1.12413e-05 0)
(0.000763111 -1.50163e-05 0)
(0.000735468 -1.84082e-05 0)
(0.000740295 -2.2516e-05 0)
(0.000707367 -2.74501e-05 0)
(0.00071266 -3.16337e-05 0)
(0.00080896 -1.36221e-06 0)
(0.000817703 -4.25207e-06 0)
(0.000803374 -6.76545e-06 0)
(0.000810521 -9.88643e-06 0)
(0.000790605 -1.29763e-05 0)
(0.000796929 -1.64534e-05 0)
(0.000771911 -2.04916e-05 0)
(0.000778121 -2.43048e-05 0)
(0.000748859 -2.95562e-05 0)
(0.000755547 -3.35506e-05 0)
(0.000840293 -1.38618e-06 0)
(0.000849767 -4.01683e-06 0)
(0.000835774 -7.18765e-06 0)
(0.000843774 -9.78151e-06 0)
(0.000825206 -1.38023e-05 0)
(0.000832485 -1.65774e-05 0)
(0.000809711 -2.16059e-05 0)
(0.000816967 -2.46377e-05 0)
(0.000790728 -3.07832e-05 0)
(0.000798541 -3.40074e-05 0)
(0.000873457 -1.04753e-06 0)
(0.000883359 -3.14374e-06 0)
(0.000870035 -6.48937e-06 0)
(0.000878562 -8.13344e-06 0)
(0.000861407 -1.28136e-05 0)
(0.000869275 -1.43208e-05 0)
(0.000848516 -2.03845e-05 0)
(0.000856457 -2.19493e-05 0)
(0.000832731 -2.94074e-05 0)
(0.000841326 -3.10933e-05 0)
(0.00090726 -2.9284e-07 0)
(0.000917747 -1.76065e-06 0)
(0.000905112 -3.79382e-06 0)
(0.000914534 -4.36625e-06 0)
(0.000898322 -8.19616e-06 0)
(0.000907165 -8.06646e-06 0)
(0.000887643 -1.43199e-05 0)
(0.000896524 -1.38003e-05 0)
(0.000874445 -2.24154e-05 0)
(0.000883944 -2.18583e-05 0)
(0.000422164 -0.000133122 0)
(0.000437124 -0.000115889 0)
(0.000395155 -0.000146896 0)
(0.000411349 -0.000129674 0)
(0.000370931 -0.000160053 0)
(0.000388153 -0.000142819 0)
(0.000348925 -0.000172684 0)
(0.00036689 -0.000155348 0)
(0.000328549 -0.000184835 0)
(0.000346988 -0.000167327 0)
(0.000309279 -0.000196525 0)
(0.000328 -0.000178856 0)
(0.000290642 -0.000207794 0)
(0.00030953 -0.000190045 0)
(0.000272169 -0.000218797 0)
(0.000291179 -0.000201113 0)
(0.000253202 -0.000228437 0)
(0.00027291 -0.000211961 0)
(0.000234557 -0.000239391 0)
(0.000254261 -0.000223257 0)
(0.00048435 -8.42971e-05 0)
(0.000498578 -7.56408e-05 0)
(0.000462566 -9.58921e-05 0)
(0.000477218 -8.62718e-05 0)
(0.0004416 -0.000107507 0)
(0.000457041 -9.71215e-05 0)
(0.000421635 -0.000118974 0)
(0.000437993 -0.000108055 0)
(0.000402662 -0.000130227 0)
(0.000419708 -0.000119149 0)
(0.00038477 -0.000141231 0)
(0.000402748 -0.000129997 0)
(0.000367716 -0.000152019 0)
(0.00038657 -0.000140823 0)
(0.000351386 -0.000162699 0)
(0.000371116 -0.000151726 0)
(0.000335816 -0.000173449 0)
(0.000356396 -0.00016286 0)
(0.00032118 -0.000184471 0)
(0.000342303 -0.000174094 0)
(0.000538322 -5.65816e-05 0)
(0.000552055 -5.29953e-05 0)
(0.000520909 -6.57617e-05 0)
(0.000535014 -6.15654e-05 0)
(0.000503747 -7.52418e-05 0)
(0.000518604 -7.048e-05 0)
(0.000487074 -8.49001e-05 0)
(0.000502855 -7.96904e-05 0)
(0.000471076 -9.4688e-05 0)
(0.000487817 -8.91241e-05 0)
(0.00045584 -0.00010457 0)
(0.000473603 -9.88059e-05 0)
(0.000441483 -0.000114541 0)
(0.000460313 -0.000108724 0)
(0.000428127 -0.000124645 0)
(0.000448027 -0.000118912 0)
(0.000415979 -0.000134947 0)
(0.000436816 -0.000129393 0)
(0.000405401 -0.000145473 0)
(0.000426759 -0.000140011 0)
(0.000588755 -4.26605e-05 0)
(0.000602116 -4.21653e-05 0)
(0.000574685 -5.02344e-05 0)
(0.000588426 -4.94144e-05 0)
(0.000560728 -5.81816e-05 0)
(0.000575183 -5.70461e-05 0)
(0.000547113 -6.64296e-05 0)
(0.000562452 -6.50381e-05 0)
(0.000534048 -7.49542e-05 0)
(0.000550367 -7.33793e-05 0)
(0.000521723 -8.37365e-05 0)
(0.000539088 -8.20532e-05 0)
(0.000510331 -9.27582e-05 0)
(0.000528816 -9.10505e-05 0)
(0.000500084 -0.000102042 0)
(0.000519647 -0.00010034 0)
(0.000491226 -0.000111608 0)
(0.000511661 -0.000109898 0)
(0.000484154 -0.000121372 0)
(0.000505053 -0.000119586 0)
(0.000636848 -3.73296e-05 0)
(0.000650077 -3.86869e-05 0)
(0.000625475 -4.3881e-05 0)
(0.000639073 -4.50812e-05 0)
(0.000614197 -5.08167e-05 0)
(0.000628427 -5.18422e-05 0)
(0.000603211 -5.80811e-05 0)
(0.000618215 -5.8958e-05 0)
(0.000592726 -6.56546e-05 0)
(0.000608566 -6.64271e-05 0)
(0.000582979 -7.3516e-05 0)
(0.000599627 -7.42333e-05 0)
(0.000574263 -8.17596e-05 0)
(0.00059244 -8.2328e-05 0)
(0.000566485 -9.02686e-05 0)
(0.000585329 -9.07979e-05 0)
(0.00056012 -9.90442e-05 0)
(0.000579611 -9.95357e-05 0)
(0.000555542 -0.000107943 0)
(0.000575387 -0.000108368 0)
(0.000683499 -3.68865e-05 0)
(0.000696716 -3.91317e-05 0)
(0.00067427 -4.27905e-05 0)
(0.00068782 -4.50147e-05 0)
(0.000665195 -4.90471e-05 0)
(0.000679265 -5.12249e-05 0)
(0.000656473 -5.56243e-05 0)
(0.000671139 -5.77597e-05 0)
(0.000648304 -6.25596e-05 0)
(0.000663534 -6.46491e-05 0)
(0.000640007 -7.00214e-05 0)
(0.00065639 -7.17723e-05 0)
(0.000633066 -7.75482e-05 0)
(0.000650153 -7.93158e-05 0)
(0.000627219 -8.53513e-05 0)
(0.000644978 -8.70798e-05 0)
(0.000622678 -9.33482e-05 0)
(0.000640976 -9.49857e-05 0)
(0.000619698 -0.000101425 0)
(0.000638267 -0.000102944 0)
(0.000729451 -3.85348e-05 0)
(0.000742591 -4.07185e-05 0)
(0.000721749 -4.4059e-05 0)
(0.00073519 -4.6289e-05 0)
(0.000714225 -4.98868e-05 0)
(0.00072809 -5.21607e-05 0)
(0.000707046 -5.59829e-05 0)
(0.000721491 -5.7737e-05 0)
(0.000700018 -6.24616e-05 0)
(0.000714966 -6.42714e-05 0)
(0.000693598 -6.92063e-05 0)
(0.000709137 -7.10379e-05 0)
(0.000687955 -7.62073e-05 0)
(0.000704066 -7.80115e-05 0)
(0.000683236 -8.34195e-05 0)
(0.000699859 -8.51536e-05 0)
(0.000679609 -9.07651e-05 0)
(0.00069662 -9.23921e-05 0)
(0.000677255 -9.81337e-05 0)
(0.000694456 -9.96576e-05 0)
(0.000774869 -3.95462e-05 0)
(0.000787892 -4.08495e-05 0)
(0.000768216 -4.47211e-05 0)
(0.00078151 -4.60407e-05 0)
(0.000761711 -5.01954e-05 0)
(0.000775314 -5.14941e-05 0)
(0.00075544 -5.59525e-05 0)
(0.000769473 -5.72542e-05 0)
(0.000749537 -6.19896e-05 0)
(0.000763986 -6.32449e-05 0)
(0.000744101 -6.82892e-05 0)
(0.000758962 -6.94698e-05 0)
(0.000739251 -7.48173e-05 0)
(0.000754502 -7.5908e-05 0)
(0.000735105 -8.15259e-05 0)
(0.000750698 -8.25117e-05 0)
(0.000731774 -8.83399e-05 0)
(0.000747618 -8.92025e-05 0)
(0.000729349 -9.51592e-05 0)
(0.000745316 -9.59256e-05 0)
(0.000819604 -3.79375e-05 0)
(0.000832396 -3.76153e-05 0)
(0.000813504 -4.27812e-05 0)
(0.000826647 -4.25588e-05 0)
(0.000807611 -4.79176e-05 0)
(0.000821075 -4.77654e-05 0)
(0.000801971 -5.33338e-05 0)
(0.000815752 -5.32248e-05 0)
(0.000796668 -5.9008e-05 0)
(0.000810761 -5.89213e-05 0)
(0.000791777 -6.4921e-05 0)
(0.000806166 -6.48357e-05 0)
(0.000787362 -7.10468e-05 0)
(0.000802014 -7.09409e-05 0)
(0.000783475 -7.73444e-05 0)
(0.000798333 -7.71986e-05 0)
(0.000780145 -8.37515e-05 0)
(0.000795134 -8.35605e-05 0)
(0.000777371 -9.01838e-05 0)
(0.000792433 -8.98142e-05 0)
(0.000863706 -3.05833e-05 0)
(0.000876314 -2.80774e-05 0)
(0.000857833 -3.55529e-05 0)
(0.000870773 -3.30206e-05 0)
(0.000852127 -4.07705e-05 0)
(0.000865364 -3.83758e-05 0)
(0.000846711 -4.6237e-05 0)
(0.000860238 -4.4071e-05 0)
(0.00084167 -5.19352e-05 0)
(0.000855479 -5.00394e-05 0)
(0.000837061 -5.78403e-05 0)
(0.00085113 -5.62181e-05 0)
(0.000832914 -6.39168e-05 0)
(0.000847205 -6.25425e-05 0)
(0.000829229 -7.01184e-05 0)
(0.000843684 -6.89457e-05 0)
(0.000825963 -7.63881e-05 0)
(0.000840505 -7.53655e-05 0)
(0.000823031 -8.26658e-05 0)
(0.000837607 -8.17765e-05 0)
(1.93023e-05 -0.000455216 0)
(3.80246e-05 -0.000449947 0)
(1.77927e-05 -0.000457397 0)
(3.58424e-05 -0.000452212 0)
(1.63103e-05 -0.000459743 0)
(3.35572e-05 -0.000454659 0)
(1.48586e-05 -0.000462261 0)
(3.11802e-05 -0.00045729 0)
(1.34337e-05 -0.0004649 0)
(2.87198e-05 -0.00046006 0)
(1.20163e-05 -0.000467606 0)
(2.61736e-05 -0.000462905 0)
(1.05602e-05 -0.000470341 0)
(2.35326e-05 -0.000465742 0)
(8.9614e-06 -0.000473084 0)
(2.08078e-05 -0.000468471 0)
(6.99647e-06 -0.000475819 0)
(1.81012e-05 -0.000470954 0)
(4.21339e-06 -0.0004785 0)
(1.57644e-05 -0.000473011 0)
(8.36927e-05 -0.000420528 0)
(0.000103355 -0.000404718 0)
(7.80786e-05 -0.000424823 0)
(9.68263e-05 -0.000410063 0)
(7.27872e-05 -0.000429118 0)
(9.05283e-05 -0.000415198 0)
(6.76608e-05 -0.000433462 0)
(8.43057e-05 -0.000420212 0)
(6.25535e-05 -0.000437843 0)
(7.80186e-05 -0.00042514 0)
(5.7315e-05 -0.000442232 0)
(7.15251e-05 -0.000429987 0)
(5.17726e-05 -0.000446595 0)
(6.46833e-05 -0.000434736 0)
(4.57e-05 -0.000450894 0)
(5.7361e-05 -0.000439362 0)
(3.87711e-05 -0.000455092 0)
(4.94523e-05 -0.000443833 0)
(3.04886e-05 -0.000459176 0)
(4.0898e-05 -0.000448224 0)
(0.000157579 -0.000355715 0)
(0.000179096 -0.00033426 0)
(0.000146819 -0.000363214 0)
(0.0001671 -0.000343083 0)
(0.000136951 -0.000370461 0)
(0.000156011 -0.000351356 0)
(0.000127642 -0.000377504 0)
(0.000145477 -0.000359211 0)
(0.000118561 -0.000384375 0)
(0.000135149 -0.000366723 0)
(0.000109383 -0.000391086 0)
(0.000124678 -0.000373935 0)
(9.97704e-05 -0.000397639 0)
(0.000113715 -0.000380877 0)
(8.93445e-05 -0.000404033 0)
(0.000101912 -0.000387583 0)
(7.7628e-05 -0.000410273 0)
(8.89304e-05 -0.000394129 0)
(6.39771e-05 -0.000416427 0)
(7.44436e-05 -0.000400724 0)
(0.000242666 -0.000276036 0)
(0.000265306 -0.000253499 0)
(0.000225878 -0.000287546 0)
(0.000246835 -0.000265994 0)
(0.000210724 -0.000298134 0)
(0.000230318 -0.000277647 0)
(0.000196745 -0.000307973 0)
(0.000215127 -0.000288474 0)
(0.000183455 -0.000317269 0)
(0.00020068 -0.000298583 0)
(0.000170379 -0.000326179 0)
(0.000186432 -0.000308096 0)
(0.000157035 -0.00033481 0)
(0.000171846 -0.000317134 0)
(0.000142894 -0.000343232 0)
(0.000156382 -0.000325832 0)
(0.00012732 -0.000351524 0)
(0.000139486 -0.000334405 0)
(0.000109594 -0.000359823 0)
(0.000120638 -0.000343107 0)
(0.000336455 -0.000197722 0)
(0.000358791 -0.000175946 0)
(0.000313159 -0.000209565 0)
(0.00033363 -0.000190161 0)
(0.000292222 -0.000221977 0)
(0.000311128 -0.000203692 0)
(0.000272986 -0.000234354 0)
(0.000290582 -0.000216822 0)
(0.000254997 -0.000246438 0)
(0.000271462 -0.000229529 0)
(0.000237816 -0.000258076 0)
(0.000253258 -0.000241707 0)
(0.000220938 -0.000269185 0)
(0.000235403 -0.000253276 0)
(0.000203757 -0.000279768 0)
(0.00021725 -0.000264269 0)
(0.000185588 -0.000289977 0)
(0.000198099 -0.000274893 0)
(0.000165553 -0.000300075 0)
(0.000177172 -0.000285373 0)
)
;

boundaryField
{
    back
    {
        type            empty;
    }
    front
    {
        type            empty;
    }
    left
    {
        type            symmetry;
    }
    hole
    {
        type            calculated;
        value           nonuniform List<vector> 10((3.7847e-05 -0.00040355 1.36788e-22) (0.000157502 -0.000381386 -2.83724e-21) (0.000267154 -0.000348054 6.76675e-21) (0.000368038 -0.000306559 -3.36288e-21) (0.000456073 -0.000260092 -3.30317e-21) (0.000529922 -0.000212451 2.26924e-21) (0.000589821 -0.000164752 -1.07371e-21) (0.000633932 -0.000117499 0) (0.00066171 -7.14312e-05 -1.55475e-21) (0.000672107 -2.76758e-05 -3.4235e-22));
    }
    down
    {
        type            symmetry;
    }
    right
    {
        type            calculated;
        value           nonuniform List<vector> 
15
(
(0.000929169 -1.03794e-06 2.608e-21)
(0.000926391 -1.89176e-06 6.86063e-22)
(0.000919604 -4.0093e-06 0)
(0.000909784 -8.56552e-06 4.61043e-21)
(0.000898229 -1.61523e-05 -3.29141e-21)
(0.000890851 -2.19469e-05 -5.33396e-21)
(0.000885436 -2.70387e-05 -5.17535e-21)
(0.000880159 -3.26852e-05 0)
(0.000875158 -3.8765e-05 -5.43986e-21)
(0.000870502 -4.51778e-05 8.67072e-23)
(0.000866233 -5.18339e-05 1.78811e-21)
(0.000862372 -5.86392e-05 -9.02575e-21)
(0.00085891 -6.54866e-05 -3.61244e-21)
(0.000855794 -7.22678e-05 -5.46202e-21)
(0.000852927 -7.88603e-05 -1.86062e-21)
)
;
    }
    up
    {
        type            calculated;
        value           nonuniform List<vector> 
15
(
(0.000248313 -0.000226948 0)
(0.00033808 -0.000177776 -1.29202e-22)
(0.000424131 -0.000143514 -1.75882e-22)
(0.000503586 -0.000122838 -7.93727e-23)
(0.000574669 -0.000111328 0)
(0.000637912 -0.000105629 -1.18442e-22)
(0.000694143 -0.000102109 1.09462e-22)
(0.000744796 -9.81993e-05 6.11809e-23)
(0.000791631 -9.19728e-05 -1.43857e-22)
(0.000836666 -8.38666e-05 -3.52268e-23)
(1.42044e-05 -0.00047404 8.32017e-23)
(3.72002e-05 -0.000449603 0)
(6.86729e-05 -0.000402619 9.70762e-22)
(0.000113351 -0.000345726 -4.33412e-22)
(0.00016927 -0.000288816 -4.74414e-22)
)
;
    }
}


// ************************************************************************* //
