/*--------------------------------*- C++ -*----------------------------------*\
| =========                 |                                                 |
| \\      /  F ield         | OpenFOAM: The Open Source CFD Toolbox           |
|  \\    /   O peration     | Version:  v2012                                 |
|   \\  /    A nd           | Website:  www.openfoam.com                      |
|    \\/     M anipulation  |                                                 |
\*---------------------------------------------------------------------------*/
FoamFile
{
    version     2.0;
    format      ascii;
    class       volScalarField;
    location    "2";
    object      epsilonEq;
}
// * * * * * * * * * * * * * * * * * * * * * * * * * * * * * * * * * * * * * //

dimensions      [0 0 0 0 0 0 0];


internalField   nonuniform List<scalar> 
500
(
0.00109399
0.00101589
0.000800952
0.000806251
0.000626581
0.000661874
0.000523852
0.000571627
0.000460125
0.00050887
0.00105458
0.000911362
0.00078445
0.000747589
0.000633644
0.000654433
0.000553337
0.000603539
0.000503835
0.000564989
0.000889757
0.000749714
0.000695925
0.000654983
0.000613582
0.000622467
0.000580884
0.000611419
0.000560153
0.000596075
0.000671623
0.000546592
0.000570952
0.000538777
0.000565224
0.000564906
0.000577283
0.000585191
0.000582347
0.000586932
0.000427992
0.000347364
0.000430407
0.000418268
0.000491722
0.00048393
0.000537547
0.000525272
0.000566401
0.000543104
0.000194666
0.000204344
0.00030035
0.000326493
0.000399365
0.000406425
0.000449716
0.000462889
0.000467203
0.00049577
3.11589e-05
0.000189462
0.000221811
0.000271484
0.000327041
0.000327041
0.000376462
0.000365073
0.00039016
0.000403567
0.000178411
0.000262137
0.000194804
0.000249377
0.000248392
0.000253286
0.000277281
0.0002679
0.000284562
0.000293986
0.000291768
0.000321989
0.000210847
0.000246956
0.000189232
0.000201939
0.0001874
0.00018884
0.000185229
0.000193368
0.000352281
0.000348823
0.000237197
0.00024949
0.000165142
0.000177596
0.00012929
0.000135265
0.000107067
0.000107635
5.30236e-05
0.000108945
0.000149255
0.000199278
0.000261081
0.000300128
0.000372946
0.000395335
0.000465444
0.000476481
7.2003e-05
0.000124837
0.00013537
0.000201106
0.000225347
0.000284973
0.000314618
0.000362339
0.000393207
0.000425362
0.000102731
0.000144312
0.000146473
0.000203837
0.000215679
0.000270731
0.000285385
0.000332299
0.000349093
0.000383067
0.000128026
0.000161214
0.000161082
0.000206523
0.000217242
0.000259694
0.000274946
0.000309739
0.000326485
0.000351642
0.000151726
0.000177863
0.000176371
0.000211451
0.000221159
0.000253284
0.000268025
0.00029384
0.00030974
0.00032822
0.000174948
0.000195199
0.000191945
0.000219198
0.00022584
0.000251023
0.000262884
0.000283012
0.000296712
0.000310742
0.000195141
0.000210683
0.000205732
0.000227343
0.000230443
0.000250678
0.000258946
0.000274856
0.000285838
0.000296322
0.00020894
0.000220436
0.000214485
0.000232218
0.00023218
0.000249058
0.000253644
0.000266647
0.000274506
0.000282473
0.000213648
0.000220619
0.000215618
0.00022995
0.000228357
0.000242754
0.000244708
0.000256251
0.000261325
0.000268642
0.000210918
0.000212667
0.000212537
0.000220287
0.000222176
0.00023157
0.000235583
0.00024484
0.000250563
0.000257535
0.000521232
0.000486474
0.000517884
0.000487818
0.00051614
0.000488756
0.000514556
0.0004886
0.000512499
0.000487414
0.000510311
0.000486935
0.000508767
0.000489202
0.000510018
0.00049773
0.000519819
0.000511045
0.000532439
0.000531463
0.000447821
0.000439647
0.000455497
0.000444483
0.000462433
0.000449071
0.000468831
0.000454436
0.000473867
0.000458634
0.000480054
0.000465743
0.000489588
0.000475021
0.000502363
0.000487493
0.000518501
0.000503278
0.000534212
0.000522203
0.000393732
0.000398043
0.000404684
0.00040675
0.00041645
0.000415156
0.000428679
0.00042376
0.000441186
0.000432538
0.000453483
0.000442244
0.000466875
0.000453392
0.000481881
0.000465919
0.000497667
0.000478286
0.000510654
0.000491247
0.000361961
0.00036672
0.000372461
0.000376395
0.000383889
0.000385931
0.000396212
0.000395458
0.000409026
0.000405014
0.00042214
0.000414706
0.000435861
0.000425417
0.000449728
0.000435558
0.000462802
0.000443481
0.000472501
0.000450456
0.000338636
0.000342607
0.00034846
0.000351857
0.000358731
0.000360948
0.000369591
0.000369926
0.000380511
0.00037846
0.000390805
0.000384703
0.000403676
0.000396
0.000415922
0.00040167
0.000423646
0.000405403
0.000428721
0.000407836
0.000320464
0.000323474
0.000329281
0.000331039
0.000338022
0.000338136
0.000346955
0.000345099
0.000355771
0.000352887
0.000366072
0.000360479
0.000372638
0.000365581
0.000379469
0.00036903
0.000384325
0.000370076
0.000386508
0.000369107
0.000304929
0.000306877
0.000312447
0.000312972
0.000319648
0.000318466
0.00032745
0.000325262
0.000334278
0.000330546
0.000340037
0.00033533
0.000345053
0.000338772
0.000348716
0.000340358
0.000350433
0.000339469
0.000349943
0.000336309
0.000289204
0.000290555
0.000295285
0.000295587
0.000300821
0.000300392
0.000306491
0.000305488
0.000312126
0.00030985
0.000316761
0.000313375
0.00032033
0.000315834
0.00032249
0.000316738
0.000322717
0.000315529
0.000321074
0.00031177
0.000273941
0.000275844
0.000280346
0.00028084
0.000285961
0.000285217
0.000290841
0.000289121
0.000295178
0.000292689
0.000298886
0.000295829
0.000301736
0.000298273
0.000303392
0.00029961
0.000303553
0.000299407
0.000302123
0.000296386
0.000262858
0.000265048
0.000270438
0.000271354
0.000276836
0.000277028
0.00028225
0.000282163
0.000286864
0.000286685
0.000290646
0.000290449
0.00029343
0.000293292
0.00029499
0.00029506
0.000295162
0.000295647
0.000294247
0.000295083
0.000432248
0.000459522
0.000416229
0.000443193
0.000401959
0.000426501
0.000386577
0.000408055
0.000368995
0.00038747
0.000348779
0.000364629
0.000325803
0.000339643
0.000300514
0.0003132
0.000274319
0.000287434
0.000251588
0.000258458
0.000487173
0.000523892
0.000463375
0.000510205
0.000442119
0.000493528
0.000421211
0.000473805
0.00039944
0.000451256
0.00037607
0.00042605
0.000350964
0.000398482
0.000324789
0.000369484
0.000299219
0.000342356
0.000278996
0.000318075
0.000551246
0.000570979
0.000531615
0.000558588
0.000511694
0.000542926
0.000491243
0.000524623
0.000469285
0.000503721
0.000445272
0.000480336
0.000419275
0.000454995
0.000392227
0.000429378
0.000366932
0.000408495
0.000349666
0.000397381
0.000579884
0.000579805
0.000570017
0.000572955
0.000556335
0.00056371
0.000540197
0.000550819
0.00052204
0.000534202
0.000502032
0.000514738
0.000480582
0.00049414
0.000459054
0.000475693
0.000441152
0.000465746
0.000431917
0.000469914
0.000572287
0.000561172
0.000566111
0.00055775
0.000561362
0.000548495
0.00055452
0.000537736
0.000544849
0.000526162
0.000532518
0.000514059
0.000518623
0.000502696
0.000505561
0.000495416
0.000497196
0.000497401
0.000496729
0.000515644
)
;

boundaryField
{
    back
    {
        type            empty;
    }
    front
    {
        type            empty;
    }
    left
    {
        type            symmetry;
    }
    hole
    {
        type            calculated;
        value           nonuniform List<scalar> 10(0.00111971 0.00106899 0.000907179 0.000687243 0.000441876 0.000204784 5.66579e-06 0.000173992 0.000292142 0.000352145);
    }
    down
    {
        type            symmetry;
    }
    right
    {
        type            calculated;
        value           nonuniform List<scalar> 
15
(
0.000214648
0.000221529
0.000231295
0.000243593
0.00025716
0.000264305
0.000269327
0.000274448
0.000279282
0.000283561
0.000287153
0.00029001
0.000292137
0.000293519
0.000293742
)
;
    }
    up
    {
        type            calculated;
        value           nonuniform List<scalar> 
15
(
0.000536283
0.000525552
0.000494251
0.000452279
0.000409027
0.000369328
0.000336098
0.000311277
0.000296489
0.000295187
0.000258541
0.0003104
0.000392644
0.000467662
0.00051559
)
;
    }
}


// ************************************************************************* //
