/*--------------------------------*- C++ -*----------------------------------*\
| =========                 |                                                 |
| \\      /  F ield         | OpenFOAM: The Open Source CFD Toolbox           |
|  \\    /   O peration     | Version:  v2012                                 |
|   \\  /    A nd           | Website:  www.openfoam.com                      |
|    \\/     M anipulation  |                                                 |
\*---------------------------------------------------------------------------*/
FoamFile
{
    version     2.0;
    format      ascii;
    class       volSymmTensorField;
    location    "2";
    object      epsilon;
}
// * * * * * * * * * * * * * * * * * * * * * * * * * * * * * * * * * * * * * //

dimensions      [0 0 0 0 0 0 0];


internalField   nonuniform List<symmTensor> 
500
(
(0.0013118 -0.000175778 -1.03217e-19 -0.000488451 8.59314e-21 4.49664e-37)
(0.00130015 -5.36689e-05 -1.07808e-19 -0.000372491 -6.93058e-21 0)
(0.000974349 -9.60968e-05 0 -0.000351699 0 0)
(0.00101909 3.91205e-06 6.19382e-20 -0.000317284 2.9925e-20 0)
(0.000795416 -5.17926e-05 1.11647e-19 -0.000235377 1.61496e-20 0)
(0.000839578 4.32506e-05 6.78753e-20 -0.00025207 1.18756e-20 0)
(0.000681429 -2.68842e-05 0 -0.000176025 0 0)
(0.000722243 6.63151e-05 1.15269e-19 -0.000214016 6.04046e-20 0)
(0.00059728 -1.53711e-05 1.57768e-19 -0.000157533 3.06601e-20 0)
(0.00062762 8.15325e-05 9.53321e-20 -0.000203164 2.62334e-20 0)
(0.00117795 -0.000427949 -1.46992e-19 -0.000366123 1.0178e-20 -2.68854e-35)
(0.00110757 -0.000217183 -2.02997e-19 -0.000344696 -8.69518e-20 0)
(0.000914004 -0.0001855 -1.83157e-19 -0.000352182 -8.29255e-20 0)
(0.000923564 -6.77833e-05 1.25629e-19 -0.000315386 6.67959e-20 0)
(0.000779039 -4.58462e-05 5.95671e-20 -0.000275239 3.62115e-20 0)
(0.00081175 3.05435e-05 1.61906e-20 -0.000277231 1.17523e-20 0)
(0.000693917 2.9518e-05 -1.22147e-19 -0.000223265 -8.15088e-20 0)
(0.000733042 8.68529e-05 -2.32439e-19 -0.000261126 -1.67812e-19 0)
(0.000629271 6.83581e-05 -3.82735e-20 -0.000195421 -2.40091e-20 0)
(0.0006591 0.000118069 6.69511e-20 -0.000262563 5.33057e-20 0)
(0.000861504 -0.000537525 2.22152e-19 -0.000167419 -3.81092e-20 -5.22598e-37)
(0.000844165 -0.000294957 -4.40618e-20 -0.0002629 2.94382e-20 0)
(0.000772431 -0.000254791 -2.74259e-20 -0.000282708 -2.21803e-20 0)
(0.000782947 -0.000113962 8.63456e-20 -0.000291564 1.23988e-20 0)
(0.000725497 -7.97622e-05 2.4518e-20 -0.000295461 1.46793e-21 0)
(0.000750954 1.22999e-06 -3.74036e-20 -0.000294482 -3.54311e-20 0)
(0.000687352 1.87056e-05 1.64579e-19 -0.000291791 1.31988e-19 0)
(0.00072284 6.66667e-05 1.75292e-20 -0.000298821 2.63584e-20 0)
(0.000651837 7.27393e-05 -3.67457e-20 -0.000283544 -3.17505e-20 0)
(0.000682142 0.000102466 0 -0.000306193 0 0)
(0.000522042 -0.000499532 -3.0772e-20 1.21605e-05 -5.16967e-21 -1.27869e-35)
(0.000560678 -0.000276236 -2.88609e-19 -0.000175214 -1.36252e-19 0)
(0.000585026 -0.000267922 -3.47733e-19 -0.00021879 -2.66539e-19 0)
(0.000619449 -0.000124647 -4.39179e-20 -0.000254841 -1.82272e-19 0)
(0.000626658 -0.000116461 1.01317e-19 -0.000306035 1.07479e-19 0)
(0.000658211 -3.25111e-05 2.10789e-19 -0.000295325 1.92131e-19 0)
(0.000642222 -2.86349e-05 8.51932e-20 -0.000340726 6.97733e-20 0)
(0.000674329 1.80375e-05 1.89326e-20 -0.00031743 3.5482e-20 0)
(0.000642067 2.12199e-05 -6.10892e-20 -0.000351647 -6.41031e-20 0)
(0.000668146 4.48621e-05 -2.13824e-20 -0.000324902 -3.17562e-20 0)
(0.000243056 -0.000350076 -5.33895e-22 0.000108036 -3.51263e-20 -1.73784e-35)
(0.000320808 -0.000192312 -8.09406e-20 -0.0001283 -7.7102e-20 0)
(0.000401167 -0.000233549 -1.6923e-19 -0.00016339 -1.59274e-19 0)
(0.000455494 -0.000107871 -2.37373e-19 -0.00022294 -1.87205e-19 0)
(0.00049923 -0.000146428 -1.70998e-19 -0.000291477 -5.0335e-20 0)
(0.000540488 -6.01655e-05 1.54727e-20 -0.000274705 -8.20088e-21 0)
(0.000556749 -9.07118e-05 1.95656e-20 -0.000348515 -5.60561e-21 0)
(0.000589623 -3.52654e-05 -1.33898e-20 -0.000302118 3.28352e-21 0)
(0.000595822 -5.21359e-05 -1.5905e-20 -0.00037098 8.70983e-22 0)
(0.000610647 -2.51476e-05 -5.76764e-20 -0.000312818 -3.40852e-20 0)
(8.17878e-05 -0.00016039 4.23193e-20 9.6313e-05 -2.5611e-20 6.69112e-36)
(0.000162418 -8.20772e-05 1.50629e-19 -0.000151079 2.81426e-20 0)
(0.000253765 -0.000167667 2.26313e-19 -0.000138332 1.20435e-19 0)
(0.000316417 -7.64578e-05 7.97209e-20 -0.000225482 6.96058e-20 0)
(0.000352148 -0.000156083 9.02534e-20 -0.000262978 5.73574e-20 0)
(0.000409844 -7.98561e-05 6.82957e-20 -0.000271048 7.40901e-20 0)
(0.00039912 -0.000140658 4.78461e-20 -0.00032601 2.96055e-20 0)
(0.000459102 -8.4483e-05 0 -0.000320546 0 0)
(0.000398614 -0.000124694 0 -0.000371053 0 0)
(0.000506069 -0.000117659 -6.10405e-20 -0.000312132 -4.62882e-20 0)
(3.73008e-05 -2.77749e-06 2.35399e-20 -1.47834e-05 -5.39033e-20 -6.45422e-36)
(9.3444e-05 2.0128e-05 1.00728e-20 -0.000223466 -9.87264e-20 0)
(0.000170455 -0.000101033 1.56038e-20 -0.000156197 -3.1174e-20 0)
(0.000225052 -3.33583e-05 -8.03106e-21 -0.000240331 1.85273e-20 0)
(0.000250017 -0.000145891 3.00533e-21 -0.000235432 5.85629e-20 0)
(0.000298601 -7.30262e-05 6.95191e-20 -0.000247915 5.01276e-20 0)
(0.000293185 -0.00015787 1.19997e-19 -0.000277249 6.47781e-20 0)
(0.000336861 -9.53367e-05 1.11746e-19 -0.000264586 5.61123e-20 0)
(0.000284012 -0.00015075 1.78473e-19 -0.000320414 1.0724e-19 0)
(0.000390775 -0.000139426 5.04064e-20 -0.000244615 4.09206e-20 0)
(6.69506e-05 8.50682e-05 0 -0.000182273 0 0)
(8.35278e-05 7.81478e-05 0 -0.000320253 0 0)
(0.000123424 -4.36358e-05 -1.43199e-20 -0.000199528 -4.42577e-20 0)
(0.000165127 2.76646e-06 -8.30972e-20 -0.000263055 -6.22819e-20 0)
(0.000151229 -0.000112209 -1.35825e-19 -0.000214035 -6.39641e-20 0)
(0.000200992 -4.92954e-05 -8.14302e-20 -0.000226242 -4.98991e-20 0)
(0.000171244 -0.00014031 -1.7737e-19 -0.00021759 -9.63977e-20 0)
(0.000215714 -8.25269e-05 -6.98319e-20 -0.000217953 -5.66681e-20 0)
(0.00016384 -0.000143202 -5.03194e-20 -0.000235163 -7.56283e-22 0)
(0.000251162 -0.000129532 2.89689e-20 -0.00018557 1.19448e-20 0)
(0.000125633 8.44145e-05 1.71061e-21 -0.000335083 -5.1389e-20 -7.51239e-36)
(0.000110702 8.48012e-05 6.83421e-22 -0.000394657 -2.17358e-20 0)
(0.000110892 -1.48019e-05 0 -0.000244799 0 0)
(0.000131259 2.43618e-05 0 -0.000284398 0 0)
(8.86905e-05 -7.12376e-05 7.43259e-20 -0.00019947 6.53091e-20 0)
(0.00012984 -1.8267e-05 6.2348e-20 -0.000214559 5.93875e-20 0)
(8.44873e-05 -9.63965e-05 1.01017e-19 -0.000171734 4.54359e-20 0)
(0.000125335 -4.90561e-05 1.5082e-20 -0.00018479 1.30706e-20 0)
(7.3075e-05 -0.000100505 -8.36511e-21 -0.000170557 -1.92995e-20 0)
(0.00013757 -9.00388e-05 -1.34146e-20 -0.000144792 -8.33852e-21 0)
(0.000185907 1.9121e-05 -3.37795e-21 -0.000409253 6.602e-21 -3.05032e-36)
(0.000122448 4.54142e-05 -1.65301e-20 -0.000445079 -3.24122e-20 0)
(0.000146365 -1.03539e-05 3.8859e-20 -0.000258784 6.46235e-20 0)
(9.26967e-05 2.24263e-05 2.71386e-20 -0.000317105 7.97824e-20 0)
(9.07323e-05 -3.04308e-05 -3.35697e-21 -0.000183564 -4.24905e-21 0)
(7.02388e-05 5.0842e-06 2.36163e-21 -0.000224088 7.36877e-21 0)
(6.11383e-05 -3.91648e-05 -9.69122e-21 -0.000143229 -9.84461e-21 0)
(5.9349e-05 -7.9504e-06 -2.73349e-21 -0.000166122 -5.81612e-21 0)
(3.38758e-05 -3.60854e-05 -5.36612e-22 -0.000128063 2.87141e-21 0)
(6.57991e-05 -2.61152e-05 -3.91348e-21 -0.000111232 -1.17753e-22 0)
(3.46444e-05 -1.9359e-05 -6.03783e-22 -4.82628e-05 -1.61489e-21 0)
(0.000104226 -5.33305e-05 5.07109e-21 -4.80142e-05 4.90196e-22 0)
(0.000110601 -9.67879e-05 7.99848e-21 -5.80381e-05 1.6279e-21 0)
(0.000156547 -0.000120314 0 -8.76948e-05 0 0)
(0.00022803 -0.000148504 -1.18158e-20 -0.00010555 -2.64995e-21 0)
(0.00023967 -0.000167342 5.61282e-21 -0.000155086 2.29629e-21 0)
(0.000378044 -0.000163959 -1.40606e-20 -0.000164692 -1.23058e-20 0)
(0.000344082 -0.000179296 6.76926e-20 -0.000235901 2.59622e-20 0)
(0.00050828 -0.000140375 -5.69738e-20 -0.000230173 -1.0931e-20 0)
(0.000444393 -0.000157399 -4.07425e-21 -0.000314822 2.24877e-20 0)
(7.01224e-05 -8.93964e-06 0 -5.29009e-05 0 0)
(0.00012538 -5.59633e-05 6.18071e-21 -5.51179e-05 1.75507e-21 0)
(0.000111728 -7.60137e-05 4.74136e-21 -6.46973e-05 -1.5969e-21 0)
(0.000172417 -0.00011318 -2.47631e-20 -8.77818e-05 -9.10064e-21 0)
(0.000189258 -0.000126281 8.82039e-21 -0.000104252 3.6534e-21 0)
(0.00024152 -0.000152775 7.49376e-21 -0.00014183 5.96576e-21 0)
(0.000295499 -0.000149773 3.89547e-20 -0.000152134 1.80225e-20 0)
(0.0003279 -0.000166293 2.90186e-20 -0.000199097 1.75053e-20 0)
(0.000409306 -0.000142866 -3.42959e-20 -0.000196588 -1.50516e-20 0)
(0.000407347 -0.000152894 4.06971e-20 -0.000257325 1.98736e-20 0)
(0.000124788 -7.82869e-06 0 -4.66148e-05 0 0)
(0.000164887 -5.16833e-05 6.94648e-21 -5.34027e-05 4.28844e-22 0)
(0.000152166 -6.2962e-05 -1.33266e-21 -6.18081e-05 3.32907e-21 0)
(0.000202493 -0.000101964 -1.09551e-20 -7.63582e-05 8.6923e-22 0)
(0.000209359 -0.000105329 -2.037e-20 -9.15563e-05 -9.51106e-22 0)
(0.000256996 -0.000137473 -1.06968e-20 -0.000113748 2.76859e-21 0)
(0.000284626 -0.000128954 1.04633e-20 -0.000127138 5.91594e-21 0)
(0.000320953 -0.000153544 5.66889e-22 -0.000156485 5.49502e-21 0)
(0.00036908 -0.000133724 -1.30088e-21 -0.000159536 6.50953e-21 0)
(0.000381544 -0.000149271 1.87453e-20 -0.000201831 1.81963e-20 0)
(0.000166247 -7.24717e-06 -8.70869e-21 -4.33393e-05 4.69692e-21 0)
(0.000199335 -4.56287e-05 -1.07176e-20 -5.01005e-05 4.96054e-21 0)
(0.000186636 -5.6637e-05 4.46479e-21 -5.71267e-05 -4.67847e-21 0)
(0.000226405 -9.06909e-05 2.24757e-20 -6.80373e-05 -2.3437e-21 0)
(0.000231687 -9.55233e-05 1.05319e-20 -8.05063e-05 2.08939e-21 0)
(0.000266171 -0.000123462 -1.31191e-21 -9.68673e-05 -1.40343e-21 0)
(0.000289251 -0.00011972 -2.35737e-21 -0.000109029 -1.67351e-21 0)
(0.000313605 -0.000140856 -1.02547e-20 -0.000130563 1.88329e-22 0)
(0.00035135 -0.000128847 2.50433e-20 -0.000136485 1.17244e-20 0)
(0.000361063 -0.000142128 -1.7528e-20 -0.000165649 1.21822e-21 0)
(0.0002007 -7.63241e-06 6.93444e-21 -4.59776e-05 4.72224e-22 0)
(0.000228432 -3.89298e-05 -1.361e-20 -5.16061e-05 -2.57e-21 0)
(0.000215126 -5.17101e-05 -1.93233e-20 -5.75411e-05 4.7889e-21 0)
(0.00024731 -7.86819e-05 -3.0821e-20 -6.64936e-05 6.87687e-21 0)
(0.000250022 -8.6985e-05 -1.05146e-20 -7.6154e-05 8.31228e-21 0)
(0.000276252 -0.0001083 1.38514e-20 -8.97358e-05 1.19023e-20 0)
(0.000293676 -0.000109894 -1.20864e-20 -9.95754e-05 -1.29494e-20 0)
(0.000311647 -0.000125485 -1.56011e-20 -0.000116549 -1.51081e-20 0)
(0.000340375 -0.00012026 1.15207e-20 -0.000122359 1.47047e-20 0)
(0.000348172 -0.000129913 -1.76732e-20 -0.000143466 1.21847e-20 0)
(0.000232078 -7.85201e-06 1.04967e-20 -5.21437e-05 -2.54684e-21 0)
(0.00025459 -3.22677e-05 2.39808e-20 -5.70835e-05 1.14812e-23 0)
(0.000240879 -4.55701e-05 2.28878e-20 -6.16324e-05 -4.79915e-21 0)
(0.000267622 -6.63965e-05 -5.36146e-21 -6.9081e-05 -8.80868e-21 0)
(0.000266793 -7.6286e-05 5.38864e-21 -7.61635e-05 1.00327e-20 0)
(0.000288502 -9.22791e-05 -1.34338e-20 -8.77115e-05 1.06126e-20 0)
(0.000299444 -9.71527e-05 -7.31707e-21 -9.50777e-05 -1.2237e-20 0)
(0.000314361 -0.000108215 -9.11023e-21 -0.000109215 -1.20912e-20 0)
(0.000334636 -0.000107891 3.35537e-20 -0.000114068 -3.44159e-21 0)
(0.000341696 -0.000113989 1.55309e-21 -0.000130339 -5.33668e-21 0)
(0.000259578 -7.32426e-06 -2.37133e-20 -5.72498e-05 5.31069e-21 0)
(0.000276587 -2.6141e-05 -1.23813e-20 -6.28193e-05 6.85354e-21 0)
(0.000263404 -3.83945e-05 -9.09602e-21 -6.52086e-05 -4.39264e-21 0)
(0.000285487 -5.45522e-05 8.09056e-21 -7.22807e-05 -2.40415e-21 0)
(0.000282002 -6.42985e-05 9.7707e-21 -7.68005e-05 1.95273e-21 0)
(0.000300126 -7.63306e-05 3.43707e-20 -8.73246e-05 3.5368e-21 0)
(0.000305983 -8.26884e-05 -3.61741e-21 -9.22378e-05 -9.3939e-21 0)
(0.000318057 -8.99309e-05 2.98817e-20 -0.000105254 -8.43233e-21 0)
(0.000332019 -9.28552e-05 -2.11039e-22 -0.00010838 -4.18797e-21 0)
(0.00033733 -9.50677e-05 9.49537e-21 -0.000123068 -5.96671e-21 0)
(0.00028106 -6.14605e-06 2.27773e-20 -5.66151e-05 -1.59609e-21 0)
(0.000291423 -2.03973e-05 6.05427e-21 -6.49735e-05 -2.9865e-22 0)
(0.000280434 -3.04425e-05 2.80852e-20 -6.41001e-05 -2.68095e-21 0)
(0.000297916 -4.29758e-05 1.02111e-20 -7.29088e-05 -7.33567e-21 0)
(0.00029322 -5.15454e-05 1.12827e-20 -7.43813e-05 5.04843e-21 0)
(0.000308234 -6.01996e-05 -2.17031e-20 -8.55472e-05 2.34329e-21 0)
(0.000310562 -6.68249e-05 0 -8.76622e-05 0 0)
(0.000320318 -7.05686e-05 2.3994e-20 -0.00010077 2.77987e-21 0)
(0.000329797 -7.50816e-05 1.06233e-20 -0.000101671 -4.38121e-21 0)
(0.000333093 -7.38104e-05 -1.35e-20 -0.000116247 -7.35601e-21 0)
(0.000294578 -4.21696e-06 1.99827e-20 -4.65309e-05 -6.83473e-21 0)
(0.000296148 -1.40875e-05 3.22042e-20 -5.96282e-05 -4.83289e-21 0)
(0.000290669 -2.08467e-05 5.44975e-21 -5.45011e-05 3.11332e-21 0)
(0.000302255 -2.91705e-05 -2.16671e-21 -6.77376e-05 1.07716e-21 0)
(0.000299529 -3.68085e-05 -1.40692e-21 -6.46585e-05 1.14674e-21 0)
(0.000310175 -4.00555e-05 -2.05592e-20 -8.07542e-05 -7.98152e-21 0)
(0.00031201 -4.83023e-05 -3.1567e-20 -7.79224e-05 -1.68885e-21 0)
(0.000318741 -4.59381e-05 -8.73603e-21 -9.60073e-05 7.45447e-21 0)
(0.000325774 -5.43931e-05 -1.09526e-20 -9.24202e-05 -3.82782e-23 0)
(0.000327008 -4.65648e-05 -3.20626e-20 -0.000111584 -1.0896e-20 0)
(0.00030223 -7.37041e-07 -4.98184e-20 -2.66095e-05 -4.50398e-23 0)
(0.000299014 -6.48712e-06 -1.58106e-20 -3.64436e-05 2.58671e-22 -8.70273e-36)
(0.000300932 -7.84071e-06 -1.87681e-20 -3.26525e-05 -3.00159e-21 0)
(0.000304749 -9.9057e-06 -4.12381e-21 -4.57069e-05 -2.74959e-21 -4.39776e-37)
(0.000308902 -1.7197e-05 1.85885e-21 -4.20481e-05 -3.5275e-22 0)
(0.00031106 -1.15624e-05 0 -6.28394e-05 0 0)
(0.000317008 -2.3723e-05 -3.36136e-20 -6.01614e-05 -2.41682e-21 0)
(0.000318465 -1.1891e-05 -2.67791e-20 -8.24091e-05 -1.61803e-20 -2.16279e-35)
(0.000325221 -2.71668e-05 -1.36835e-21 -8.17637e-05 -7.66258e-21 0)
(0.000324103 -1.03094e-05 1.9699e-20 -0.000102766 1.0089e-20 -9.18146e-36)
(0.000560328 -0.000101561 2.70206e-20 -0.000307089 2.70576e-20 0)
(0.000503073 -0.000101127 -1.55331e-21 -0.00030702 4.8278e-21 0)
(0.000567915 -6.72449e-05 2.36796e-20 -0.000305955 2.5171e-20 0)
(0.000527953 -6.70705e-05 6.92326e-20 -0.000295377 5.14971e-20 0)
(0.000574787 -3.89415e-05 6.44417e-20 -0.00030173 4.59783e-20 0)
(0.000544343 -3.98708e-05 0 -0.00028504 0 0)
(0.000579449 -1.57067e-05 -2.61351e-21 -0.00029608 2.9077e-21 0)
(0.000554729 -1.93923e-05 3.90472e-21 -0.000275103 6.0433e-21 0)
(0.000581797 2.59406e-06 2.73062e-20 -0.000289695 2.59235e-20 0)
(0.000561491 -5.08858e-06 4.75948e-21 -0.000265154 6.40699e-21 0)
(0.000582838 1.62678e-05 -2.78346e-20 -0.000283359 -2.63667e-20 0)
(0.000567943 3.15251e-06 -9.22683e-20 -0.000255971 -7.15564e-20 0)
(0.000584258 2.48356e-05 -4.45034e-20 -0.000277546 -3.83318e-20 0)
(0.000575785 5.25236e-06 3.60504e-20 -0.000250381 2.06556e-20 0)
(0.000588176 2.74161e-05 8.91381e-20 -0.000274725 7.27099e-20 0)
(0.000589257 1.45355e-06 1.75843e-20 -0.00025033 1.1511e-20 0)
(0.000603024 2.42306e-05 -1.49376e-20 -0.000275972 -7.65788e-21 0)
(0.000607832 -6.44896e-06 7.28395e-20 -0.000253226 4.98921e-20 0)
(0.000619011 1.7527e-05 6.34667e-20 -0.000281726 4.57648e-20 0)
(0.00064077 -1.15037e-05 0 -0.000251612 0 0)
(0.000478755 -0.000121998 2.91787e-20 -0.000245047 1.80004e-20 0)
(0.000444179 -0.000130074 3.86137e-20 -0.000263886 2.1227e-20 0)
(0.000496888 -9.65068e-05 1.42345e-21 -0.000255254 -5.57978e-22 0)
(0.000463473 -0.000112606 0 -0.000263618 0 0)
(0.000513004 -7.41541e-05 2.3037e-20 -0.000260482 1.61866e-20 0)
(0.000483741 -9.40725e-05 4.1564e-20 -0.000259819 2.41349e-20 0)
(0.000527464 -5.46784e-05 2.0472e-20 -0.000262501 1.24627e-20 0)
(0.000503454 -7.71399e-05 -3.97226e-20 -0.00025493 -2.29788e-20 0)
(0.000539428 -3.77106e-05 -3.02116e-20 -0.000262014 -2.04991e-20 0)
(0.000518814 -6.20623e-05 3.97293e-20 -0.000250342 2.31497e-20 0)
(0.000551451 -2.56022e-05 1.95299e-20 -0.000261374 1.25677e-20 0)
(0.000536642 -4.97832e-05 2.07652e-20 -0.00024611 1.19109e-20 0)
(0.000567348 -1.6175e-05 3.51893e-20 -0.000261413 2.13658e-20 0)
(0.000554321 -4.03124e-05 1.35999e-19 -0.000244731 7.6222e-20 0)
(0.00058583 -8.86278e-06 8.28902e-20 -0.000264037 5.27042e-20 0)
(0.000572922 -3.17518e-05 2.18323e-20 -0.000247868 1.20043e-20 0)
(0.000606586 -3.20779e-06 -1.41883e-20 -0.00027021 -1.02141e-20 0)
(0.000592571 -2.23122e-05 4.95497e-20 -0.000256029 2.61031e-20 0)
(0.00062891 1.74378e-06 1.0936e-19 -0.000273301 5.99802e-20 0)
(0.000624732 -9.84934e-06 2.07509e-20 -0.000253813 4.53666e-22 -8.04296e-37)
(0.000422626 -0.000128237 1.72988e-21 -0.000195519 -3.54943e-22 0)
(0.000410299 -0.000137987 6.80534e-20 -0.000210911 2.24775e-20 0)
(0.000442518 -0.000113473 7.55265e-20 -0.00020651 2.95158e-20 0)
(0.000426583 -0.000129515 9.00604e-20 -0.000217349 3.12114e-20 0)
(0.000463576 -9.96951e-05 9.70849e-20 -0.000214559 4.08685e-20 0)
(0.000445538 -0.00011826 7.60417e-20 -0.000221037 2.72626e-20 0)
(0.00048442 -8.6145e-05 9.62743e-20 -0.000221702 4.32224e-20 0)
(0.000465158 -0.000105468 4.04791e-21 -0.000223916 -9.43246e-22 0)
(0.000505419 -7.26934e-05 2.50796e-20 -0.000227407 9.1364e-21 0)
(0.000484404 -9.23828e-05 2.22345e-20 -0.000226157 8.02852e-21 0)
(0.00052435 -5.93581e-05 5.732e-20 -0.000233737 2.76756e-20 0)
(0.000503864 -7.89666e-05 -3.62124e-20 -0.000228628 -1.64255e-20 0)
(0.000543997 -4.62462e-05 -3.76376e-20 -0.00023993 -1.91518e-20 0)
(0.000523587 -6.50656e-05 -3.17411e-21 -0.000232385 1.42357e-21 0)
(0.000564489 -3.34354e-05 8.92363e-20 -0.00024703 3.8576e-20 0)
(0.000543164 -4.98061e-05 6.14336e-20 -0.000238045 2.5827e-20 0)
(0.00058475 -2.07325e-05 1.18602e-19 -0.000254914 4.96746e-20 0)
(0.000560923 -3.14837e-05 1.13606e-19 -0.000244662 4.13448e-20 0)
(0.000602799 -7.81744e-06 9.95002e-20 -0.000258974 4.06292e-20 0)
(0.000585293 -8.21752e-06 4.59346e-20 -0.000242002 6.14996e-22 -9.08594e-37)
(0.000392714 -0.000128846 -4.75133e-20 -0.000163244 -1.1545e-20 0)
(0.000385492 -0.000136083 -1.80844e-20 -0.000175464 1.68437e-22 0)
(0.000409484 -0.000119274 -1.59187e-20 -0.000174335 -3.86273e-21 0)
(0.000399749 -0.000131273 1.4946e-20 -0.000183814 5.8756e-21 0)
(0.000428152 -0.000109863 1.96507e-20 -0.000183277 4.37471e-21 0)
(0.000416676 -0.000123587 5.14155e-20 -0.000190518 1.03283e-20 0)
(0.000447842 -9.98436e-05 3.76723e-20 -0.000191875 9.39254e-21 0)
(0.000434554 -0.000113619 5.33205e-20 -0.000196867 1.12765e-20 0)
(0.000467867 -8.88e-05 -2.70894e-21 -0.000200346 2.15584e-21 0)
(0.000452629 -0.000101797 -3.20377e-20 -0.000203034 -1.08061e-20 0)
(0.000487972 -7.64388e-05 -5.90192e-20 -0.000208605 -1.57857e-20 0)
(0.000470724 -8.81229e-05 -2.47644e-20 -0.00020902 -1.54136e-21 0)
(0.000508458 -6.23652e-05 -1.02223e-20 -0.00021681 -7.42911e-21 0)
(0.000489218 -7.26814e-05 5.88234e-20 -0.000215669 1.33863e-20 0)
(0.000528535 -4.76036e-05 2.41641e-20 -0.000224367 5.8734e-21 0)
(0.000505535 -5.45646e-05 9.60631e-21 -0.000222882 -2.86271e-21 0)
(0.000546633 -3.21969e-05 -1.99531e-20 -0.000231364 -5.80279e-21 0)
(0.000518507 -3.24444e-05 -1.88296e-20 -0.000228317 -4.81549e-21 0)
(0.000560904 -1.51007e-05 -5.29115e-20 -0.000234995 -9.92337e-21 0)
(0.000533054 -5.198e-06 -1.26823e-20 -0.000226787 2.741e-22 2.42973e-37)
(0.000373097 -0.000122446 -2.02814e-20 -0.000143054 -4.65057e-21 0)
(0.000368821 -0.000126667 2.70212e-20 -0.000153152 5.44636e-21 0)
(0.000387459 -0.000115795 1.30043e-20 -0.000153236 4.51479e-21 0)
(0.000380841 -0.000123348 -1.29942e-20 -0.000161904 -4.56324e-21 0)
(0.000403254 -0.00010878 -2.83707e-20 -0.000161812 -6.9261e-21 0)
(0.000395203 -0.000117386 -1.50617e-20 -0.00016936 -1.68859e-21 0)
(0.000419997 -0.000100784 -2.20136e-20 -0.000170231 8.81482e-22 0)
(0.000410629 -0.000109025 -2.13489e-20 -0.000176497 1.87291e-21 0)
(0.00043664 -9.14518e-05 2.3346e-20 -0.000178787 -6.80701e-22 0)
(0.000426125 -9.82955e-05 3.54846e-20 -0.000183294 3.66834e-21 0)
(0.000452165 -8.07194e-05 7.89407e-20 -0.00018714 7.59201e-21 0)
(0.000436791 -8.44011e-05 7.62729e-20 -0.000192132 4.60774e-21 0)
(0.000471554 -6.94883e-05 -1.07645e-20 -0.000194791 -4.9384e-21 0)
(0.000456513 -6.96118e-05 2.46256e-20 -0.000198354 8.9559e-21 0)
(0.000489618 -5.3802e-05 -1.78472e-20 -0.000203244 -3.2966e-21 0)
(0.00046634 -5.1482e-05 0 -0.000204959 0 0)
(0.000500679 -3.59639e-05 -1.80581e-20 -0.000210021 -3.49529e-21 0)
(0.000474198 -2.93087e-05 -1.03309e-20 -0.000208509 -6.32031e-21 0)
(0.000508938 -1.74586e-05 -1.08685e-20 -0.000212838 -6.80315e-21 0)
(0.000481019 -2.98031e-06 0 -0.000207467 0 0)
(0.00036005 -0.000110879 1.87778e-20 -0.000131358 3.57643e-21 0)
(0.000358293 -0.000112328 0 -0.000139125 0 0)
(0.000371831 -0.000106105 1.39961e-20 -0.000140412 6.89144e-22 0)
(0.000367273 -0.000109313 2.52759e-20 -0.000147356 4.39632e-21 0)
(0.000384473 -0.00010056 3.1994e-20 -0.000148175 1.01434e-21 0)
(0.000377609 -0.000103651 4.56168e-20 -0.000154829 1.40962e-21 0)
(0.000397634 -9.38518e-05 2.61981e-20 -0.000155925 5.28098e-21 0)
(0.000388076 -9.54898e-05 1.44551e-20 -0.000163248 9.1072e-22 0)
(0.000410069 -8.6066e-05 7.45986e-21 -0.000164356 -4.00029e-21 0)
(0.000401179 -8.52686e-05 -3.64343e-21 -0.000170451 -8.90679e-21 0)
(0.000427759 -7.64165e-05 -5.0961e-20 -0.000169224 -3.86705e-21 0)
(0.000413883 -7.50829e-05 -6.00916e-20 -0.000176452 -8.19974e-21 0)
(0.000435746 -6.38421e-05 -8.063e-20 -0.000179367 -1.33458e-21 0)
(0.00042263 -6.07596e-05 -2.70962e-20 -0.000183239 1.30665e-20 0)
(0.000446865 -4.98237e-05 0 -0.000184954 0 0)
(0.000429544 -4.37687e-05 -9.56254e-21 -0.000188073 -5.28232e-21 0)
(0.000455304 -3.42356e-05 -9.76543e-21 -0.000188696 -5.47918e-21 0)
(0.000433314 -2.3892e-05 -1.53434e-20 -0.000190304 -1.78777e-21 0)
(0.000459815 -1.74654e-05 -2.81325e-20 -0.000190373 1.72778e-21 0)
(0.00043365 -9.64081e-07 -1.19186e-20 -0.000189988 4.09844e-22 3.63301e-37)
(0.000350801 -9.54659e-05 -1.88526e-20 -0.000123884 3.26846e-21 0)
(0.000349824 -9.40915e-05 -1.60127e-20 -0.000130945 2.82154e-22 0)
(0.000359756 -9.20397e-05 -2.37095e-20 -0.000131842 -3.77552e-21 0)
(0.000356482 -9.1083e-05 -1.3282e-20 -0.000138293 -5.62563e-22 0)
(0.000368999 -8.76726e-05 2.0258e-20 -0.000139094 -3.31773e-21 0)
(0.000363732 -8.60678e-05 3.01261e-20 -0.000144856 5.73559e-22 0)
(0.000378646 -8.2203e-05 3.82777e-20 -0.000147502 5.49617e-21 0)
(0.000372907 -7.98728e-05 0 -0.00015208 0 0)
(0.000388864 -7.45321e-05 -2.18129e-20 -0.00015391 2.80452e-21 0)
(0.000380574 -7.16899e-05 -6.92852e-20 -0.000158698 -8.02628e-21 0)
(0.000397893 -6.5402e-05 -7.98565e-20 -0.00015964 -4.28985e-21 0)
(0.000387977 -6.12287e-05 -8.7418e-20 -0.000164987 -9.21133e-21 0)
(0.000405935 -5.48736e-05 -9.96373e-20 -0.000164821 -5.60488e-21 0)
(0.000393876 -4.87819e-05 -9.25067e-20 -0.00017012 2.11026e-21 0)
(0.000412144 -4.29067e-05 -9.16547e-21 -0.000169009 -4.72924e-21 0)
(0.000397624 -3.43199e-05 8.49346e-21 -0.000173393 4.85412e-21 0)
(0.000415866 -2.96908e-05 8.63048e-21 -0.000171482 4.86013e-21 0)
(0.000398331 -1.7832e-05 -2.17679e-20 -0.000174108 -6.52372e-21 0)
(0.000416287 -1.55424e-05 1.76551e-20 -0.000172435 -7.02866e-21 0)
(0.000394175 5.21117e-07 1.09205e-20 -0.000174332 -3.78708e-22 3.35701e-37)
(0.000343562 -7.58716e-05 -1.23983e-20 -0.00011526 5.86537e-21 0)
(0.000341932 -7.2795e-05 -1.2169e-20 -0.000122912 5.7472e-21 0)
(0.000350258 -7.30317e-05 6.46881e-21 -0.000121811 -3.01507e-21 0)
(0.000346404 -6.97989e-05 6.31481e-21 -0.000130069 -2.99301e-21 0)
(0.000356476 -6.94336e-05 -1.31201e-20 -0.000128096 -9.89728e-22 0)
(0.000351231 -6.56633e-05 -1.294e-20 -0.00013675 -1.30416e-21 0)
(0.000362781 -6.49658e-05 0 -0.000134819 0 0)
(0.000356972 -5.99397e-05 9.30058e-21 -0.000143424 4.10575e-21 0)
(0.000370156 -5.90911e-05 6.50204e-20 -0.000140444 8.79521e-22 0)
(0.000362086 -5.28425e-05 4.13242e-20 -0.000149578 -3.4232e-21 0)
(0.000376116 -5.17231e-05 2.72892e-20 -0.000146061 2.70091e-21 0)
(0.000366503 -4.42548e-05 1.75533e-20 -0.000154891 9.01257e-21 0)
(0.00038068 -4.3099e-05 8.96618e-20 -0.000151148 8.01156e-21 0)
(0.000369839 -3.42856e-05 6.03512e-20 -0.000159069 6.34168e-21 0)
(0.000383535 -3.34426e-05 3.06389e-20 -0.000155104 1.06679e-20 0)
(0.000371542 -2.31038e-05 0 -0.000161493 0 0)
(0.000384198 -2.30386e-05 2.318e-20 -0.00015723 -1.47088e-21 0)
(0.000370934 -1.10047e-05 3.58083e-20 -0.000161591 8.93036e-22 0)
(0.00038212 -1.23376e-05 -1.34995e-20 -0.000158198 -1.93171e-21 0)
(0.00036483 1.73685e-06 -1.2922e-20 -0.000162356 -2.1187e-22 6.26034e-38)
(0.000335604 -5.32053e-05 -4.51209e-20 -0.000107668 -5.67161e-21 0)
(0.000334842 -4.69408e-05 -2.47338e-20 -0.000116307 6.50288e-22 0)
(0.000341543 -5.13061e-05 -1.25462e-20 -0.000114625 -1.80234e-21 0)
(0.00033869 -4.43689e-05 0 -0.000123094 0 0)
(0.000346845 -4.84507e-05 -3.22818e-20 -0.000121063 -1.64708e-21 0)
(0.000341898 -4.10884e-05 -1.56249e-20 -0.000129548 -2.34869e-21 0)
(0.000351393 -4.45392e-05 -5.45354e-20 -0.00012723 -7.65594e-21 0)
(0.000344908 -3.67416e-05 -5.83931e-20 -0.000135455 -1.61191e-20 0)
(0.000355503 -3.96275e-05 -1.05833e-19 -0.000132965 -1.81296e-20 0)
(0.000347763 -3.14409e-05 -4.00281e-20 -0.000140889 -7.30414e-22 0)
(0.000358946 -3.38667e-05 1.56984e-20 -0.000138216 -4.78846e-21 0)
(0.000350315 -2.53202e-05 8.26183e-20 -0.000145693 1.51673e-20 0)
(0.000361361 -2.7469e-05 1.65899e-20 -0.000142816 8.95309e-21 0)
(0.000352281 -1.85577e-05 1.2658e-20 -0.000149537 2.63629e-21 0)
(0.000362321 -2.07056e-05 0 -0.000146501 0 0)
(0.000353286 -1.14527e-05 -4.04463e-20 -0.000151948 -1.51597e-20 0)
(0.000361452 -1.39151e-05 -7.16503e-20 -0.000149058 -1.18526e-20 0)
(0.000352956 -4.4586e-06 -4.27467e-20 -0.00015247 -7.71974e-22 0)
(0.000358506 -7.48538e-06 -2.48025e-20 -0.000150616 1.9551e-20 0)
(0.000347876 2.31646e-06 3.65564e-21 -0.000152974 4.9747e-22 5.87969e-37)
(0.000329931 -2.42811e-05 4.64114e-20 -0.000103462 1.26614e-20 0)
(0.000330137 -1.36308e-05 3.67718e-20 -0.000110183 1.32357e-20 -1.38891e-35)
(0.000334417 -2.43072e-05 7.96618e-20 -0.000113699 2.1654e-20 0)
(0.000335137 -1.18344e-05 3.56553e-20 -0.000117066 9.29453e-21 -1.68343e-35)
(0.000337692 -2.26968e-05 4.58167e-20 -0.000123323 1.51575e-20 0)
(0.000339136 -1.01736e-05 0 -0.000123868 0 0)
(0.000340501 -2.01831e-05 4.42487e-20 -0.000131526 9.44392e-21 0)
(0.000342555 -8.53658e-06 3.75127e-20 -0.000130234 1.24707e-20 -1.4169e-35)
(0.000343073 -1.71584e-05 6.14224e-20 -0.000138298 1.87718e-20 0)
(0.000345386 -6.83429e-06 -6.15987e-22 -0.000136039 -5.63584e-21 5.81665e-38)
(0.000345337 -1.37905e-05 -4.07323e-20 -0.000143646 -1.01356e-20 0)
(0.000347568 -5.01555e-06 -1.23196e-20 -0.00014107 5.2899e-22 -2.32663e-36)
(0.000347086 -1.02219e-05 5.33427e-20 -0.00014749 6.31888e-21 0)
(0.000349064 -3.11224e-06 6.22187e-20 -0.000145051 1.39057e-20 -4.11263e-35)
(0.000348029 -6.68354e-06 8.10692e-20 -0.000149739 2.60856e-20 0)
(0.000349896 -1.2825e-06 2.48977e-20 -0.000147636 3.5469e-21 -7.05311e-36)
(0.000347817 -3.55082e-06 6.15297e-20 -0.000150515 1.05761e-20 0)
(0.000350093 1.77765e-07 3.76388e-20 -0.000148592 9.23818e-22 -1.77708e-35)
(0.000346391 -1.29115e-06 6.51163e-20 -0.000150552 1.52627e-20 0)
(0.000349622 3.35857e-07 9.75763e-21 -0.000148051 3.11829e-21 -2.76418e-36)
(0.000547482 1.22151e-05 0 -0.000168002 0 0)
(0.000570781 6.66095e-05 -4.37909e-20 -0.000180934 -2.26895e-20 0)
(0.000524641 4.84381e-06 -8.54241e-20 -0.000165814 -1.93413e-20 0)
(0.000549775 7.13854e-05 -7.1768e-20 -0.000172291 -2.89983e-20 0)
(0.000499643 -1.38027e-06 0 -0.000170054 0 0)
(0.000527011 7.39018e-05 1.72751e-20 -0.000166137 1.07332e-20 0)
(0.000472513 -6.29456e-06 7.89011e-20 -0.000174442 1.99284e-20 0)
(0.00050207 7.46609e-05 6.6632e-20 -0.000159899 2.79396e-20 0)
(0.000443231 -1.02611e-05 -3.7963e-20 -0.000176754 -6.24531e-21 0)
(0.000474618 7.38076e-05 -6.3481e-20 -0.000153216 -2.73434e-20 0)
(0.000411786 -1.3736e-05 7.0223e-20 -0.000176158 1.23447e-20 0)
(0.000444428 7.12879e-05 1.14211e-19 -0.000146248 5.30862e-20 0)
(0.000378309 -1.70004e-05 1.45944e-21 -0.000172268 7.87432e-21 0)
(0.000411748 6.66444e-05 -1.69291e-20 -0.000139201 -5.40473e-21 0)
(0.000343701 -1.99326e-05 5.74767e-20 -0.000164905 1.28157e-20 0)
(0.000378372 5.85733e-05 1.12551e-19 -0.000131821 6.11883e-20 0)
(0.000311198 -2.15239e-05 8.5052e-20 -0.000153094 3.55836e-20 0)
(0.000349982 4.41966e-05 1.28288e-20 -0.000121936 5.55385e-21 0)
(0.000289644 -1.91729e-05 -2.33985e-20 -0.000135168 -8.44357e-21 0)
(0.000303482 1.85991e-05 -9.27275e-21 -0.000131432 -3.36928e-22 -5.35071e-37)
(0.000587827 9.53587e-05 -1.13058e-20 -0.000203655 -6.91881e-21 0)
(0.000608281 0.000121709 -2.78324e-20 -0.000239548 -2.29246e-20 0)
(0.000562719 9.34522e-05 7.68943e-20 -0.000187066 5.63036e-20 0)
(0.000586883 0.000126198 1.7332e-19 -0.000235327 1.46505e-19 0)
(0.000537491 8.85852e-05 1.57981e-19 -0.00017801 1.17516e-19 0)
(0.000563139 0.000127023 7.64597e-20 -0.000230079 6.29455e-20 0)
(0.000510981 8.21893e-05 -6.79603e-20 -0.000172412 -5.05164e-20 0)
(0.000537459 0.000124737 -2.24828e-21 -0.000222982 1.62779e-21 0)
(0.000482825 7.42247e-05 1.46676e-19 -0.000168007 1.12318e-19 0)
(0.000510094 0.000119389 1.37422e-19 -0.000214277 1.21053e-19 0)
(0.000452775 6.43537e-05 0 -0.000163532 0 0)
(0.000481243 0.000110691 1.82472e-20 -0.000204308 1.68046e-20 0)
(0.000420983 5.23848e-05 6.02804e-20 -0.00015828 4.79382e-20 0)
(0.000451528 9.78612e-05 2.3052e-20 -0.000193324 2.19052e-20 0)
(0.000388439 3.85219e-05 -2.00843e-20 -0.000151803 -1.70521e-20 0)
(0.000422761 7.94924e-05 8.57217e-20 -0.000181257 8.18248e-20 0)
(0.000357402 2.36103e-05 7.3687e-20 -0.000143746 6.97033e-20 0)
(0.000398966 5.31314e-05 8.24315e-20 -0.00016912 9.00085e-20 0)
(0.000331651 8.87433e-06 5.42169e-20 -0.000138158 4.54528e-20 0)
(0.000363584 1.36479e-05 0 -0.000175884 0 0)
(0.000623785 0.000101105 9.63553e-20 -0.00028912 9.31936e-20 0)
(0.000646708 0.000118352 5.49908e-20 -0.000291335 5.45249e-20 0)
(0.000604 0.000114532 1.76901e-20 -0.000266258 1.43734e-20 0)
(0.000629303 0.000127716 -3.11891e-20 -0.000282085 -2.9304e-20 0)
(0.000581877 0.000121654 -8.72923e-20 -0.000248306 -8.68277e-20 0)