/*--------------------------------*- C++ -*----------------------------------*\
| =========                 |                                                 |
| \\      /  F ield         | OpenFOAM: The Open Source CFD Toolbox           |
|  \\    /   O peration     | Version:  v2012                                 |
|   \\  /    A nd           | Website:  www.openfoam.com                      |
|    \\/     M anipulation  |                                                 |
\*---------------------------------------------------------------------------*/
FoamFile
{
    version     2.0;
    format      ascii;
    class       volSymmTensorField;
    location    "2";
    object      sigma;
}
// * * * * * * * * * * * * * * * * * * * * * * * * * * * * * * * * * * * * * //

dimensions      [1 -1 -2 0 0 0 0];


internalField   nonuniform List<symmTensor> 
500
(
(9.97905e+07 -9.46495e+06 -5.55784e-09 2.85397e+06 4.62707e-10 2.91552e+07)
(9.63449e+07 -2.88986e+06 -5.80503e-09 6.27947e+06 -3.73185e-10 2.63367e+07)
(8.23002e+07 -5.17445e+06 0 1.08976e+07 0 2.98352e+07)
(8.10446e+07 210649 3.33513e-09 9.08622e+06 1.61135e-09 2.61707e+07)
(6.85056e+07 -2.78883e+06 6.01174e-09 1.30014e+07 8.69592e-10 2.56755e+07)
(6.8117e+07 2.32888e+06 3.65482e-09 9.33596e+06 6.39453e-10 2.29089e+07)
(5.84486e+07 -1.44761e+06 0 1.2278e+07 0 2.17563e+07)
(5.87535e+07 3.57081e+06 6.20679e-09 8.33957e+06 3.25256e-09 1.98635e+07)
(5.1052e+07 -827674 8.49522e-09 1.04082e+07 1.65093e-09 1.88907e+07)
(5.14693e+07 4.39021e+06 5.13326e-09 6.73484e+06 1.41257e-09 1.76744e+07)
(9.02055e+07 -2.30434e+07 -7.91494e-09 7.06321e+06 5.48046e-10 2.67775e+07)
(8.49803e+07 -1.16945e+07 -1.09306e-08 6.78146e+06 -4.68202e-09 2.5342e+07)
(7.70757e+07 -9.98848e+06 -9.86228e-09 8.89641e+06 -4.46522e-09 2.78601e+07)
(7.34245e+07 -3.64987e+06 6.76464e-09 6.71182e+06 3.5967e-09 2.36942e+07)
(6.57956e+07 -2.46864e+06 3.20746e-09 9.0268e+06 1.94985e-09 2.38473e+07)
(6.41179e+07 1.64465e+06 8.71801e-10 5.48047e+06 6.32815e-10 2.04083e+07)
(5.75838e+07 1.58943e+06 -6.57716e-09 8.19707e+06 -4.38894e-09 2.02191e+07)
(5.74735e+07 4.67669e+06 -1.25159e-08 3.94137e+06 -9.03601e-09 1.8002e+07)
(5.142e+07 3.68082e+06 -2.06088e-09 7.01358e+06 -1.2928e-09 1.75362e+07)
(5.19989e+07 6.35755e+06 3.60506e-09 2.37091e+06 2.8703e-09 1.65089e+07)
(6.90869e+07 -2.89437e+07 1.1962e-08 1.36834e+07 -2.05204e-09 2.26982e+07)
(6.68871e+07 -1.58823e+07 -2.37256e-09 7.27593e+06 1.58513e-09 2.14321e+07)
(6.47115e+07 -1.37195e+07 -1.47678e-09 7.89629e+06 -1.19432e-09 2.3119e+07)
(6.15042e+07 -6.13639e+06 4.64938e-09 3.64591e+06 6.67629e-10 1.93455e+07)
(5.91762e+07 -4.29489e+06 1.3202e-09 4.20147e+06 7.90425e-11 2.01109e+07)
(5.71111e+07 66230.3 -2.01404e-09 818447 -1.90783e-09 1.66751e+07)
(5.47346e+07 1.00722e+06 8.86194e-09 2.01153e+06 7.10706e-09 1.77234e+07)
(5.39703e+07 3.58975e+06 9.43881e-10 -1.04224e+06 1.4193e-09 1.50481e+07)
(5.11129e+07 3.91673e+06 -1.97861e-09 746210 -1.70964e-09 1.6014e+07)
(5.10463e+07 5.5174e+06 0 -2.17176e+06 0 1.43156e+07)
(4.51096e+07 -2.68979e+07 -1.65696e-09 1.76544e+07 -2.78367e-10 1.69996e+07)
(4.62204e+07 -1.48742e+07 -1.55405e-08 6.59548e+06 -7.33662e-09 1.60301e+07)
(4.8999e+07 -1.44266e+07 -1.87241e-08 5.71661e+06 -1.43521e-08 1.74976e+07)
(4.72916e+07 -6.71177e+06 -2.36481e-09 214511 -9.81465e-09 1.39367e+07)
(4.9456e+07 -6.27096e+06 5.45555e-09 -765966 5.78731e-09 1.57129e+07)
(4.77104e+07 -1.7506e+06 1.13502e-08 -3.63387e+06 1.03455e-08 1.22683e+07)
(4.91219e+07 -1.54188e+06 4.58733e-09 -3.80611e+06 3.75702e-09 1.45407e+07)
(4.7923e+07 971249 1.01945e-09 -5.47941e+06 1.91057e-09 1.1613e+07)
(4.84589e+07 1.14261e+06 -3.28942e-09 -5.04873e+06 -3.4517e-09 1.38861e+07)
(4.7521e+07 2.41565e+06 -1.15136e-09 -5.95084e+06 -1.70995e-09 1.15439e+07)
(2.3895e+07 -1.88502e+07 -2.87482e-11 1.66247e+07 -1.89142e-09 1.08074e+07)
(2.74269e+07 -1.03553e+07 -4.35834e-09 3.24417e+06 -4.15165e-09 1.01526e+07)
(3.29225e+07 -1.25757e+07 -9.1124e-09 2.52325e+06 -8.57629e-09 1.13212e+07)
(3.28364e+07 -5.80842e+06 -1.27816e-08 -3.69463e+06 -1.00803e-08 8.30981e+06)
(3.7706e+07 -7.88459e+06 -9.20757e-09 -4.87061e+06 -2.71035e-09 1.08243e+07)
(3.65982e+07 -3.23968e+06 8.33145e-10 -7.29678e+06 -4.41586e-10 7.49505e+06)
(4.06755e+07 -4.88448e+06 1.05353e-09 -8.06945e+06 -3.01841e-10 1.06967e+07)
(3.92575e+07 -1.8989e+06 -7.20991e-10 -8.75939e+06 1.76805e-10 7.50852e+06)
(4.28208e+07 -2.80732e+06 -8.56422e-10 -9.23778e+06 4.68991e-11 1.07381e+07)
(4.09518e+07 -1.3541e+06 -3.10565e-09 -8.77324e+06 -1.83536e-09 8.07083e+06)
(9.07237e+06 -8.6364e+06 2.27873e-09 9.8545e+06 -1.37906e-09 4.66841e+06)
(1.33429e+07 -4.41954e+06 8.11079e-09 -3.53774e+06 1.51537e-09 4.59727e+06)
(1.88917e+07 -9.02823e+06 1.21861e-08 -2.22117e+06 6.48495e-09 5.22745e+06)
(2.02265e+07 -4.11696e+06 4.29266e-09 -8.95265e+06 3.748e-09 3.18866e+06)
(2.4884e+07 -8.40445e+06 4.8598e-09 -8.23819e+06 3.08847e-09 5.92214e+06)
(2.52466e+07 -4.29994e+06 3.67746e-09 -1.14168e+07 3.98947e-09 3.17812e+06)
(2.84565e+07 -7.5739e+06 2.57633e-09 -1.0589e+07 1.59414e-09 6.96541e+06)
(2.90246e+07 -4.54909e+06 0 -1.29565e+07 0 4.3037e+06)
(3.04868e+07 -6.71429e+06 0 -1.09568e+07 0 9.02295e+06)
(3.26543e+07 -6.33549e+06 -3.28679e-09 -1.14027e+07 -2.49244e-09 5.40443e+06)
(1.3051e+06 -149557 1.26753e-09 -1.49943e+06 -2.90248e-09 -703402)
(4.66067e+06 1.08381e+06 5.4238e-10 -1.24037e+07 -5.31603e-09 -370928)
(8.93857e+06 -5.44024e+06 8.40207e-10 -8.65039e+06 -1.6786e-09 -239780)
(1.07809e+07 -1.79622e+06 -4.32442e-10 -1.42782e+07 9.97624e-10 -1.33728e+06)
(1.45784e+07 -7.85565e+06 1.61825e-10 -1.15611e+07 3.15338e-09 1.11597e+06)
(1.54474e+07 -3.93218e+06 3.74334e-09 -1.39804e+07 2.69918e-09 -631098)
(1.85129e+07 -8.50067e+06 6.46137e-09 -1.22028e+07 3.48805e-09 2.72603e+06)
(1.91146e+07 -5.13351e+06 6.0171e-09 -1.3271e+07 3.02143e-09 975880)
(2.11122e+07 -8.11731e+06 9.6101e-09 -1.14338e+07 5.77444e-09 5.81923e+06)
(2.3269e+07 -7.50755e+06 2.71419e-09 -1.09443e+07 2.20342e-09 2.22729e+06)
(-1.16541e+06 4.58059e+06 0 -1.45851e+07 0 -4.77045e+06)
(286483 4.20796e+06 0 -2.14556e+07 0 -4.21117e+06)
(2.28668e+06 -2.34962e+06 -7.71071e-10 -1.51031e+07 -2.38311e-09 -4.35923e+06)
(4.20808e+06 148963 -4.47447e-09 -1.88479e+07 -3.35364e-09 -4.68338e+06)
(5.88775e+06 -6.04202e+06 -7.31366e-09 -1.37803e+07 -3.44422e-09 -2.25537e+06)
(7.53828e+06 -2.65437e+06 -4.3847e-09 -1.54666e+07 -2.68687e-09 -3.28436e+06)
(9.02546e+06 -7.55513e+06 -9.55071e-09 -1.19117e+07 -5.19065e-09 -195348)
(1.03507e+07 -4.44376e+06 -3.76018e-09 -1.30006e+07 -3.05136e-09 -1.26464e+06)
(1.15524e+07 -7.7109e+06 -2.70951e-09 -9.93233e+06 -4.07229e-11 2.73028e+06)
(1.36489e+07 -6.97481e+06 1.55987e-09 -9.86742e+06 6.43183e-10 124809)
(-886827 4.54539e+06 9.21096e-11 -2.56946e+07 -2.7671e-09 -7.65168e+06)
(-1.1754e+06 4.56622e+06 3.67996e-11 -2.83871e+07 -1.17039e-09 -7.1363e+06)
(-1.24673e+06 -797026 0 -2.03993e+07 0 -7.21784e+06)
(349351 1.31179e+06 0 -2.20322e+07 0 -6.71842e+06)
(157210 -3.83587e+06 4.00216e-09 -1.53591e+07 3.51664e-09 -4.61843e+06)
(2.13857e+06 -983610 3.3572e-09 -1.6406e+07 3.19779e-09 -4.85281e+06)
(2.15515e+06 -5.19058e+06 5.43936e-09 -1.16414e+07 2.44655e-09 -2.39417e+06)
(3.96485e+06 -2.64148e+06 8.1211e-10 -1.27342e+07 7.038e-10 -2.78399e+06)
(4.20266e+06 -5.41183e+06 -4.50429e-10 -8.91598e+06 -1.0392e-09 267847)
(6.19533e+06 -4.84824e+06 -7.22323e-10 -9.00881e+06 -4.48997e-10 -1.21229e+06)
(-59384.2 1.02959e+06 -1.8189e-10 -3.21064e+07 3.55492e-10 -1.00697e+07)
(-1.71769e+06 2.44538e+06 -8.9008e-10 -3.22768e+07 -1.74527e-09 -8.31104e+06)
(-1.72936e+06 -557516 2.09241e-09 -2.35451e+07 3.47973e-09 -9.61056e+06)
(-1.7851e+06 1.20757e+06 1.46131e-09 -2.38513e+07 4.29597e-09 -6.77646e+06)
(-1.77087e+06 -1.63858e+06 -1.8076e-10 -1.65407e+07 -2.28795e-10 -6.65646e+06)
(-1.09139e+06 273764 1.27165e-10 -1.69397e+07 3.9678e-10 -4.87348e+06)
(-869720 -2.10888e+06 -5.21835e-10 -1.18741e+07 -5.30094e-10 -4.16178e+06)
(66967.5 -428098 -1.47188e-10 -1.20738e+07 -3.13176e-10 -3.12875e+06)
(415460 -1.94306e+06 -2.88945e-11 -8.30435e+06 1.54615e-10 -1.40862e+06)
(1.84206e+06 -1.4062e+06 -2.10726e-10 -7.69039e+06 -6.34055e-12 -1.70096e+06)
(1.87583e+06 -1.04241e+06 -3.25114e-11 -2.5884e+06 -8.69555e-11 10368.4)
(5.97668e+06 -2.87164e+06 2.73059e-10 -2.22088e+06 2.63951e-11 364497)
(6.01806e+06 -5.21166e+06 4.30687e-10 -3.06249e+06 8.7656e-11 62643.3)
(1.02655e+07 -6.47842e+06 0 -2.88594e+06 0 1.83609e+06)
(1.36582e+07 -7.99635e+06 -6.36236e-10 -4.3038e+06 -1.4269e-10 1.37965e+06)
(1.7099e+07 -9.01074e+06 3.02229e-10 -4.15709e+06 1.23646e-10 4.19368e+06)
(2.33436e+07 -8.82857e+06 -7.57111e-10 -5.8806e+06 -6.62621e-10 2.98743e+06)
(2.52332e+07 -9.65439e+06 3.64499e-09 -5.99667e+06 1.39797e-09 6.70571e+06)
(3.25058e+07 -7.55868e+06 -3.06782e-09 -7.2571e+06 -5.88594e-10 5.13684e+06)
(3.29857e+07 -8.47533e+06 -2.19382e-10 -7.89514e+06 1.21088e-09 9.05682e+06)
(6.61319e+06 -481365 0 -11147.2 0 2.83736e+06)
(9.64465e+06 -3.01341e+06 3.32807e-10 -74488.3 9.45038e-11 2.8934e+06)
(9.34926e+06 -4.09304e+06 2.55304e-10 -150564 -8.59868e-11 3.33314e+06)
(1.31747e+07 -6.09431e+06 -1.3334e-09 -836057 -4.90035e-10 3.89066e+06)
(1.47771e+07 -6.79973e+06 4.74944e-10 -1.02725e+06 1.96722e-10 4.58632e+06)
(1.84719e+07 -8.22633e+06 4.0351e-10 -2.16999e+06 3.21233e-10 5.46699e+06)
(2.17156e+07 -8.06473e+06 2.09756e-09 -2.38767e+06 9.7044e-10 5.80413e+06)
(2.45798e+07 -8.95422e+06 1.56254e-09 -3.79698e+06 9.42594e-10 6.9236e+06)
(2.87339e+07 -7.69281e+06 -1.8467e-09 -3.89117e+06 -8.1047e-10 6.69435e+06)
(3.03207e+07 -8.23276e+06 2.19138e-09 -5.46942e+06 1.07012e-09 8.38657e+06)
(1.06902e+07 -421545 0 1.46077e+06 0 3.9708e+06)
(1.30579e+07 -2.78295e+06 3.74041e-10 1.30382e+06 2.30916e-11 4.17935e+06)
(1.2697e+07 -3.39026e+06 -7.17587e-11 1.17534e+06 1.79257e-10 4.50346e+06)
(1.57327e+07 -5.49039e+06 -5.89892e-10 717623 4.68047e-11 4.82922e+06)
(1.66603e+07 -5.67156e+06 -1.09684e-09 457166 -5.12134e-11 5.38712e+06)
(1.97078e+07 -7.40239e+06 -5.7598e-10 -255307 1.49078e-10 5.8696e+06)
(2.1626e+07 -6.94368e+06 5.63409e-10 -545915 3.18551e-10 6.29998e+06)
(2.42772e+07 -8.26776e+06 3.05248e-11 -1.43105e+06 2.95886e-10 6.99505e+06)
(2.68613e+07 -7.20052e+06 -7.00477e-11 -1.60257e+06 3.50513e-10 6.98782e+06)
(2.87251e+07 -8.03767e+06 1.00936e-09 -2.68746e+06 9.79798e-10 8.18038e+06)
(1.40824e+07 -390232 -4.6893e-10 2.79701e+06 2.52911e-10 5.13067e+06)
(1.61142e+07 -2.45693e+06 -5.77104e-10 2.68305e+06 2.67106e-10 5.38076e+06)
(1.562e+07 -3.04969e+06 2.40412e-10 2.49435e+06 -2.51918e-10 5.5704e+06)
(1.80859e+07 -4.88336e+06 1.21023e-09 2.23133e+06 -1.26199e-10 5.89488e+06)
(1.86826e+07 -5.14356e+06 5.67104e-10 1.87221e+06 1.12506e-10 6.20716e+06)
(2.10349e+07 -6.64794e+06 -7.06412e-11 1.48672e+06 -7.55695e-11 6.70265e+06)
(2.24979e+07 -6.44645e+06 -1.26935e-10 1.05199e+06 -9.01118e-11 6.9228e+06)
(2.44774e+07 -7.58456e+06 -5.52179e-10 560610 1.01408e-11 7.59095e+06)
(2.6471e+07 -6.93794e+06 1.34849e-09 202934 6.31312e-10 7.55214e+06)
(2.7892e+07 -7.65303e+06 -9.43818e-10 -469379 6.55965e-11 8.45019e+06)
(1.71432e+07 -410976 3.73393e-10 3.86056e+06 2.54275e-11 6.33628e+06)
(1.88423e+07 -2.09622e+06 -7.32847e-10 3.76328e+06 -1.38385e-10 6.54207e+06)
(1.82615e+07 -2.78439e+06 -1.04049e-09 3.57941e+06 2.57864e-10 6.67778e+06)
(2.02434e+07 -4.23672e+06 -1.65959e-09 3.34626e+06 3.70293e-10 6.92668e+06)
(2.05714e+07 -4.68381e+06 -5.66172e-10 3.00811e+06 4.47584e-10 7.10871e+06)
(2.23806e+07 -5.83152e+06 7.45846e-10 2.67363e+06 6.40894e-10 7.50556e+06)
(2.34352e+07 -5.91736e+06 -6.50804e-10 2.26014e+06 -6.97274e-10 7.6219e+06)
(2.49083e+07 -6.75686e+06 -8.40061e-10 1.85159e+06 -8.13512e-10 8.12729e+06)
(2.64046e+07 -6.47553e+06 6.20345e-10 1.48814e+06 7.91792e-10 8.07672e+06)
(2.74496e+07 -6.99532e+06 -9.51633e-10 976731 6.56099e-10 8.70185e+06)
(1.98637e+07 -422800 5.65207e-10 4.55947e+06 -1.37137e-10 7.36721e+06)
(2.12384e+07 -1.73749e+06 1.29127e-09 4.45596e+06 6.18217e-13 7.52968e+06)
(2.05856e+07 -2.45378e+06 1.23242e-09 4.29651e+06 -2.58416e-10 7.61518e+06)
(2.21753e+07 -3.57519e+06 -2.88694e-10 4.04514e+06 -4.74314e-10 7.76488e+06)
(2.22212e+07 -4.10771e+06 2.90158e-10 3.75428e+06 5.40225e-10 7.85539e+06)
(2.36568e+07 -4.96887e+06 -7.23359e-10 3.39915e+06 5.71446e-10 8.12208e+06)
(2.42846e+07 -5.2313e+06 -3.93996e-10 3.04111e+06 -6.58914e-10 8.16068e+06)
(2.5437e+07 -5.82696e+06 -4.90551e-10 2.62905e+06 -6.51067e-10 8.50986e+06)
(2.64545e+07 -5.80951e+06 1.80674e-09 2.29351e+06 -1.85316e-10 8.43561e+06)
(2.72518e+07 -6.13789e+06 8.36278e-11 1.8346e+06 -2.87359e-10 8.85284e+06)
(2.21737e+07 -394383 -1.27687e-09 5.11374e+06 2.8596e-10 8.19643e+06)
(2.32822e+07 -1.40759e+06 -6.66685e-10 5.00648e+06 3.69037e-10 8.38906e+06)
(2.25565e+07 -2.06739e+06 -4.89786e-10 4.86193e+06 -2.36527e-10 8.37316e+06)
(2.38629e+07 -2.93743e+06 4.35646e-10 4.59843e+06 -1.29454e-10 8.49047e+06)
(2.36456e+07 -3.46223e+06 5.26115e-10 4.32547e+06 1.05147e-10 8.46088e+06)
(2.48234e+07 -4.11011e+06 1.85073e-09 3.96071e+06 1.90443e-10 8.66281e+06)
(2.50609e+07 -4.45245e+06 -1.94784e-10 3.61819e+06 -5.05825e-10 8.58484e+06)
(2.5982e+07 -4.84243e+06 1.60901e-09 3.18829e+06 -4.54048e-10 8.85583e+06)
(2.65632e+07 -4.99989e+06 -1.13636e-11 2.84948e+06 -2.25506e-10 8.68532e+06)
(2.71616e+07 -5.11903e+06 5.11289e-10 2.37095e+06 -3.21284e-10 8.99768e+06)
(2.40541e+07 -330941 1.22647e-09 5.87162e+06 -8.59434e-11 8.92012e+06)
(2.49463e+07 -1.09832e+06 3.25999e-10 5.7557e+06 -1.60812e-11 9.25428e+06)
(2.41657e+07 -1.63921e+06 1.51228e-09 5.61383e+06 -1.44359e-10 9.06537e+06)
(2.52888e+07 -2.31408e+06 5.49829e-10 5.32133e+06 -3.94998e-10 9.24719e+06)
(2.48337e+07 -2.77552e+06 6.07531e-10 5.03982e+06 2.71838e-10 9.04497e+06)
(2.58429e+07 -3.24152e+06 -1.16863e-09 4.63927e+06 1.26177e-10 9.24566e+06)
(2.57219e+07 -3.59827e+06 0 4.2791e+06 0 8.99937e+06)
(2.6475e+07 -3.79985e+06 1.29198e-09 3.80097e+06 1.49685e-10 9.22707e+06)
(2.66595e+07 -4.04286e+06 5.72022e-10 3.42663e+06 -2.35911e-10 8.9012e+06)
(2.70901e+07 -3.97441e+06 -7.26922e-10 2.89482e+06 -3.96093e-10 9.15429e+06)
(2.54932e+07 -227067 1.07599e-09 7.12575e+06 -3.68024e-10 9.63126e+06)
(2.61302e+07 -758559 1.73407e-09 6.97301e+06 -2.60233e-10 1.01838e+07)
(2.54078e+07 -1.12251e+06 2.93448e-10 6.8217e+06 1.6764e-10 9.75637e+06)
(2.63258e+07 -1.57072e+06 -1.16669e-10 6.40314e+06 5.80007e-11 1.00506e+07)
(2.57411e+07 -1.98199e+06 -7.5757e-11 6.13101e+06 6.17475e-11 9.61262e+06)
(2.65693e+07 -2.15683e+06 -1.10703e-09 5.51921e+06 -4.29774e-10 9.86752e+06)
(2.6186e+07 -2.60089e+06 -1.69976e-09 5.18965e+06 -9.09378e-11 9.38547e+06)
(2.67893e+07 -2.47359e+06 -4.70402e-10 4.45668e+06 4.01394e-10 9.6263e+06)
(2.66342e+07 -2.92886e+06 -5.89754e-10 4.116e+06 -2.06114e-12 9.09248e+06)
(2.69458e+07 -2.50733e+06 -1.72645e-09 3.32935e+06 -5.86708e-10 9.33771e+06)
(2.64503e+07 -39686.8 -2.68253e-09 8.74359e+06 -2.42522e-12 1.01764e+07)
(2.66157e+07 -349307 -8.51339e-10 8.55257e+06 1.39284e-11 1.05149e+07)
(2.62787e+07 -422192 -1.01059e-09 8.31645e+06 -1.61624e-10 1.00747e+07)
(2.66465e+07 -533384 -2.22051e-10 7.77582e+06 -1.48055e-10 1.0237e+07)
(2.63536e+07 -925990 1.00092e-10 7.45625e+06 -1.89942e-11 9.72038e+06)
(2.6724e+07 -622593 0 6.59094e+06 0 9.9746e+06)
(2.64791e+07 -1.27739e+06 -1.80996e-09 6.16996e+06 -1.30136e-10 9.40943e+06)
(2.67773e+07 -640283 -1.44195e-09 5.1918e+06 -8.71247e-10 9.62922e+06)
(2.6596e+07 -1.46283e+06 -7.36802e-11 4.68141e+06 -4.126e-10 9.08407e+06)
(2.67355e+07 -555119 1.06072e-09 3.75023e+06 5.43253e-10 9.28376e+06)
(3.88516e+07 -5.46867e+06 1.45496e-09 -7.85548e+06 1.45695e-09 8.68011e+06)
(3.67474e+07 -5.44529e+06 -8.36397e-11 -6.87302e+06 2.59958e-10 9.65884e+06)
(4.01193e+07 -3.62088e+06 1.27505e-09 -6.93525e+06 1.35536e-09 9.53926e+06)
(3.84567e+07 -3.61149e+06 3.72791e-09 -5.87652e+06 2.77292e-09 1.00284e+07)
(4.11789e+07 -2.09685e+06 3.46994e-09 -6.01817e+06 2.47576e-09 1.02288e+07)
(3.97925e+07 -2.14689e+06 0 -4.86657e+06 0 1.04818e+07)
(4.20427e+07 -845743 -1.40728e-10 -5.10118e+06 1.56569e-10 1.08416e+07)
(4.08501e+07 -1.0442e+06 2.10254e-10 -3.83318e+06 3.25408e-10 1.09801e+07)
(4.27371e+07 139680 1.47033e-09 -4.18942e+06 1.39588e-09 1.14096e+07)
(4.17093e+07 -274001 2.5628e-10 -2.80238e+06 3.44992e-10 1.14751e+07)
(4.33344e+07 875958 -1.49879e-09 -3.30696e+06 -1.41975e-09 1.19508e+07)
(4.25459e+07 169751 -4.96829e-09 -1.81867e+06 -3.85304e-09 1.19644e+07)
(4.39636e+07 1.3373e+06 -2.39634e-09 -2.44117e+06 -2.06402e-09 1.25036e+07)
(4.35446e+07 282819 1.94118e-09 -941237 1.11222e-09 1.25408e+07)
(4.48355e+07 1.47625e+06 4.79975e-09 -1.62836e+06 3.91515e-09 1.31645e+07)
(4.49375e+07 78268.3 9.46848e-10 -271026 6.19823e-10 1.32083e+07)
(4.63182e+07 1.30472e+06 -8.04332e-10 -1.01231e+06 -4.12348e-10 1.38477e+07)
(4.66683e+07 -347252 3.92212e-09 303633 2.6865e-09 1.39389e+07)
(4.78903e+07 943759 3.41744e-09 -610912 2.46426e-09 1.45589e+07)
(4.84238e+07 -619431 0 372424 0 1.39208e+07)
(3.38376e+07 -6.56914e+06 1.57116e-09 -5.13642e+06 9.69253e-10 8.05843e+06)
(3.30712e+07 -7.00399e+06 2.0792e-09 -5.05539e+06 1.14299e-09 9.15386e+06)
(3.56367e+07 -5.19652e+06 7.66473e-11 -4.86321e+06 -3.0045e-11 8.88122e+06)
(3.46827e+07 -6.06338e+06 0 -4.46841e+06 0 9.72641e+06)
(3.7266e+07 -3.99291e+06 1.24045e-09 -4.38332e+06 8.71587e-10 9.64265e+06)
(3.62999e+07 -5.06544e+06 2.23806e-09 -3.73796e+06 1.29957e-09 1.02523e+07)
(3.87875e+07 -2.94422e+06 1.10234e-09 -3.74907e+06 6.71069e-10 1.03856e+07)
(3.78962e+07 -4.15369e+06 -2.13891e-09 -2.93984e+06 -1.23732e-09 1.07872e+07)
(4.01353e+07 -2.03057e+06 -1.62678e-09 -3.01923e+06 -1.1038e-09 1.10892e+07)
(3.92971e+07 -3.34182e+06 2.13927e-09 -2.119e+06 1.24652e-09 1.1361e+07)
(4.1467e+07 -1.37858e+06 1.05161e-09 -2.30054e+06 6.7672e-10 1.17735e+07)
(4.08294e+07 -2.68064e+06 1.11813e-09 -1.31874e+06 6.41354e-10 1.19333e+07)
(4.29917e+07 -870960 1.89481e-09 -1.63391e+06 1.15046e-09 1.24422e+07)
(4.24211e+07 -2.17067e+06 7.32301e-09 -604814 4.10426e-09 1.2573e+07)
(4.46874e+07 -477227 4.46332e-09 -1.07466e+06 2.83792e-09 1.31427e+07)
(4.41425e+07 -1.70971e+06 1.17559e-09 -53843.1 6.46384e-10 1.32929e+07)
(4.65596e+07 -172727 -7.63985e-10 -652494 -5.49991e-10 1.38973e+07)
(4.59322e+07 -1.20142e+06 2.66806e-09 238401 1.40555e-09 1.40246e+07)
(4.81906e+07 93895.9 5.88859e-09 -389932 3.2297e-09 1.43263e+07)
(4.75641e+07 -530349 1.11735e-09 257824 2.44282e-11 1.39247e+07)
(3.07911e+07 -6.90505e+06 9.31473e-11 -2.49355e+06 -1.91123e-11 8.03437e+06)
(3.09302e+07 -7.43005e+06 3.66441e-09 -2.5196e+06 1.21033e-09 8.83716e+06)
(3.25082e+07 -6.11008e+06 4.06681e-09 -2.43948e+06 1.58931e-09 8.68029e+06)
(3.23746e+07 -6.9739e+06 4.84941e-09 -2.29866e+06 1.68062e-09 9.40472e+06)
(3.42456e+07 -5.3682e+06 5.22765e-09 -2.26935e+06 2.20061e-09 9.2838e+06)
(3.39199e+07 -6.36782e+06 4.09456e-09 -1.97261e+06 1.46799e-09 9.92941e+06)
(3.60127e+07 -4.63858e+06 5.184e-09 -2.00924e+06 2.32736e-09 9.92855e+06)
(3.55229e+07 -5.67907e+06 2.17965e-10 -1.58107e+06 -5.07902e-11 1.04759e+07)
(3.77697e+07 -3.91426e+06 1.35044e-09 -1.69012e+06 4.9196e-10 1.05549e+07)
(3.71209e+07 -4.97446e+06 1.19724e-09 -1.14009e+06 4.32305e-10 1.10376e+07)
(3.94808e+07 -3.19621e+06 3.08646e-09 -1.33928e+06 1.49022e-09 1.12465e+07)
(3.87384e+07 -4.25205e+06 -1.9499e-09 -703468 -8.84452e-10 1.16073e+07)
(4.12194e+07 -2.49018e+06 -2.02664e-09 -992043 -1.03125e-09 1.19273e+07)
(4.03906e+07 -3.50353e+06 -1.70913e-10 -315543 7.66536e-11 1.21975e+07)
(4.30048e+07 -1.80037e+06 4.80503e-09 -692402 2.07717e-09 1.26092e+07)
(4.20579e+07 -2.68187e+06 3.30797e-09 -7181.27 1.39068e-09 1.28106e+07)
(4.47489e+07 -1.11636e+06 6.38625e-09 -463755 2.67479e-09 1.32624e+07)
(4.35665e+07 -1.69528e+06 6.11724e-09 188807 2.22626e-09 1.33629e+07)
(4.60847e+07 -420939 5.3577e-09 -318514 2.18773e-09 1.36263e+07)
(4.47757e+07 -442482 2.4734e-09 229025 3.31151e-11 1.32599e+07)
(2.94362e+07 -6.93787e+06 -2.55841e-09 -500071 -6.21652e-10 8.29001e+06)
(2.96788e+07 -7.32757e+06 -9.73773e-10 -526547 9.0697e-12 8.92154e+06)
(3.08509e+07 -6.42244e+06 -8.5716e-10 -585527 -2.07993e-10 8.80173e+06)
(3.08887e+07 -7.06853e+06 8.04786e-10 -533904 3.16379e-10 9.36379e+06)
(3.23175e+07 -5.91568e+06 1.05811e-09 -605608 2.35561e-10 9.26313e+06)
(3.22031e+07 -6.65466e+06 2.76853e-09 -492042 5.5614e-10 9.76664e+06)
(3.38693e+07 -5.37619e+06 2.02851e-09 -576960 5.05752e-10 9.75477e+06)
(3.35952e+07 -6.11795e+06 2.87111e-09 -404434 6.07195e-10 1.01961e+07)
(3.54657e+07 -4.78154e+06 -1.45866e-10 -515030 1.16084e-10 1.02728e+07)
(3.50156e+07 -5.48138e+06 -1.72511e-09 -289257 -5.81869e-10 1.06433e+07)
(3.70735e+07 -4.11593e+06 -3.17795e-09 -434479 -8.49997e-10 1.07981e+07)
(3.64391e+07 -4.74508e+06 -1.33347e-09 -162493 -8.29965e-11 1.10924e+07)
(3.87075e+07 -3.35813e+06 -5.50433e-10 -345429 -4.00029e-10 1.1329e+07)
(3.79168e+07 -3.91362e+06 3.16741e-09 -38691.9 7.20799e-10 1.15743e+07)
(4.03103e+07 -2.56327e+06 1.30114e-09 -230599 3.1626e-10 1.18507e+07)
(3.92851e+07 -2.93809e+06 5.17263e-10 62625.8 -1.54146e-10 1.2064e+07)
(4.17357e+07 -1.73368e+06 -1.0744e-09 -156405 -3.12458e-10 1.23016e+07)
(4.03382e+07 -1.74701e+06 -1.0139e-09 124632 -2.59296e-10 1.24186e+07)
(4.27105e+07 -813116 -2.84908e-09 -145590 -5.34335e-10 1.2508e+07)
(4.10516e+07 -279893 -6.82893e-10 137084 1.47592e-11 1.23487e+07)
(2.8656e+07 -6.59323e+06 -1.09208e-09 863250 -2.50415e-10 8.56616e+06)
(2.88743e+07 -6.82052e+06 1.45499e-09 768044 2.93266e-10 9.01467e+06)
(2.97901e+07 -6.2351e+06 7.00232e-10 675754 2.43104e-10 8.92692e+06)
(2.98371e+07 -6.64183e+06 -6.99686e-10 612399 -2.45713e-10 9.33029e+06)
(3.09546e+07 -5.85738e+06 -1.52765e-09 528016 -3.72944e-10 9.24096e+06)
(3.08798e+07 -6.32077e+06 -8.11017e-10 480232 -9.09241e-11 9.59959e+06)
(3.21906e+07 -5.42681e+06 -1.18535e-09 409081 4.74644e-11 9.57538e+06)
(3.19893e+07 -5.87057e+06 -1.14955e-09 374827 1.00849e-10 9.87852e+06)
(3.34488e+07 -4.92433e+06 1.25709e-09 310414 -3.66532e-11 9.9374e+06)
(3.31083e+07 -5.29283e+06 1.91071e-09 293422 1.97526e-10 1.01631e+07)
(3.46557e+07 -4.34643e+06 4.25065e-09 231579 4.088e-10 1.03084e+07)
(3.4082e+07 -4.54467e+06 4.107e-09 216941 2.48109e-10 1.05625e+07)
(3.60497e+07 -3.74168e+06 -5.79629e-10 169550 -2.65914e-10 1.06583e+07)
(3.54213e+07 -3.74833e+06 1.326e-09 159203 4.82241e-10 1.08398e+07)
(3.73807e+07 -2.89703e+06 -9.61004e-10 72763.5 -1.77509e-10 1.10167e+07)
(3.62618e+07 -2.77211e+06 0 114936 0 1.11512e+07)
(3.82599e+07 -1.93652e+06 -9.72358e-10 -8554.38 -1.88208e-10 1.13003e+07)
(3.68468e+07 -1.57816e+06 -5.5628e-10 85667.8 -3.40324e-10 1.13131e+07)
(3.87965e+07 -940079 -5.85224e-10 -68358.8 -3.66323e-10 1.13921e+07)
(3.71608e+07 -160478 0 88480.6 0 1.12598e+07)
(2.81351e+07 -5.97041e+06 1.01111e-09 1.67462e+06 1.92577e-10 8.74775e+06)
(2.83141e+07 -6.04843e+06 0 1.53006e+06 0 9.02139e+06)
(2.89939e+07 -5.71332e+06 7.53634e-10 1.41152e+06 3.71077e-11 8.97216e+06)
(2.89956e+07 -5.8861e+06 1.36101e-09 1.28489e+06 2.36725e-10 9.21943e+06)
(2.98531e+07 -5.41478e+06 1.72275e-09 1.17204e+06 5.46184e-11 9.1507e+06)
(2.97144e+07 -5.58122e+06 2.45629e-09 1.04464e+06 7.59024e-11 9.38161e+06)
(3.0759e+07 -5.05356e+06 1.41067e-09 952033 2.8436e-10 9.34797e+06)
(3.04955e+07 -5.14176e+06 7.78353e-10 808818 4.90388e-11 9.59907e+06)
(3.16848e+07 -4.63433e+06 4.01685e-10 754200 -2.154e-10 9.60411e+06)
(3.13648e+07 -4.59138e+06 -1.96185e-10 584734 -4.79596e-10 9.76284e+06)
(3.27138e+07 -4.11473e+06 -2.74405e-09 568544 -2.08226e-10 9.68063e+06)
(3.21885e+07 -4.04293e+06 -3.2357e-09 401239 -4.41524e-10 9.90248e+06)
(3.35207e+07 -3.43765e+06 -4.34161e-09 399271 -7.18619e-11 1.00575e+07)
(3.28585e+07 -3.27167e+06 -1.45902e-09 234787 7.0358e-10 1.01015e+07)
(3.42741e+07 -2.68281e+06 0 253107 0 1.02122e+07)
(3.33577e+07 -2.35678e+06 -5.14906e-10 101376 -2.84433e-10 1.02284e+07)
(3.48053e+07 -1.84346e+06 -5.25831e-10 128346 -2.95033e-10 1.02889e+07)
(3.36018e+07 -1.28649e+06 -8.26183e-10 22312.5 -9.62645e-11 1.02694e+07)
(3.50408e+07 -940444 -1.51483e-09 30683 9.30345e-11 1.02815e+07)
(3.35969e+07 -51912 -6.41772e-10 16333.3 2.20685e-11 1.02465e+07)
(2.7731e+07 -5.14047e+06 -1.01514e-09 2.17098e+06 1.75994e-10 8.84167e+06)
(2.78625e+07 -5.06647e+06 -8.6222e-10 1.97492e+06 1.51929e-11 9.02581e+06)
(2.83137e+07 -4.95599e+06 -1.27667e-09 1.84306e+06 -2.03297e-10 8.94226e+06)
(2.8297e+07 -4.90447e+06 -7.15182e-10 1.65532e+06 -3.02919e-11 9.10185e+06)
(2.88784e+07 -4.72083e+06 1.09081e-09 1.51951e+06 -1.78647e-10 9.00921e+06)
(2.87376e+07 -4.63442e+06 1.62218e-09 1.35214e+06 3.08839e-11 9.15206e+06)
(2.95249e+07 -4.42632e+06 2.06111e-09 1.19389e+06 2.95948e-10 9.13629e+06)
(2.93325e+07 -4.30084e+06 0 1.06393e+06 0 9.25287e+06)
(3.01817e+07 -4.01327e+06 -1.17454e-09 955401 1.51012e-10 9.24288e+06)
(2.98248e+07 -3.86022e+06 -3.73074e-09 787065 -4.32184e-10 9.33233e+06)
(3.07511e+07 -3.52165e+06 -4.29997e-09 730093 -2.30992e-10 9.32608e+06)
(3.02881e+07 -3.29693e+06 -4.70712e-09 513110 -4.95995e-10 9.397e+06)
(3.12577e+07 -2.95473e+06 -5.36509e-09 524679 -3.01801e-10 9.39964e+06)
(3.06522e+07 -2.62672e+06 -4.98113e-09 283164 1.13629e-10 9.44347e+06)
(3.16344e+07 -2.31036e+06 -4.93525e-10 341495 -2.54651e-10 9.442e+06)
(3.08548e+07 -1.84799e+06 4.5734e-10 107735 2.61376e-10 9.44426e+06)
(3.18146e+07 -1.59874e+06 4.64718e-10 188261 2.61699e-10 9.42188e+06)
(3.08247e+07 -960187 -1.17212e-09 1062.88 -3.51277e-10 9.37611e+06)
(3.17738e+07 -836898 9.50658e-10 73407.5 -3.78466e-10 9.35835e+06)
(3.05965e+07 28060.1 5.88026e-10 -15409.1 -2.0392e-11 9.37172e+06)
(2.73748e+07 -4.08539e+06 -6.67599e-10 2.66899e+06 3.15827e-10 8.87529e+06)
(2.7451e+07 -3.91973e+06 -6.55254e-10 2.42092e+06 3.09465e-10 9.03925e+06)
(2.77244e+07 -3.93248e+06 3.4832e-10 2.30526e+06 -1.6235e-10 8.86432e+06)
(2.76906e+07 -3.7584e+06 3.40028e-10 2.03436e+06 -1.61162e-10 9.03809e+06)
(2.80455e+07 -3.73873e+06 -7.06467e-10 1.95312e+06 -5.3293e-11 8.85062e+06)
(2.79413e+07 -3.53572e+06 -6.96769e-10 1.66541e+06 -7.02237e-11 9.02886e+06)
(2.84113e+07 -3.49816e+06 0 1.61746e+06 0 8.87695e+06)
(2.8235e+07 -3.22752e+06 5.008e-10 1.2906e+06 2.21079e-10 9.01341e+06)
(2.87857e+07 -3.18183e+06 3.5011e-09 1.29193e+06 4.73588e-11 8.85428e+06)
(2.84901e+07 -2.84536e+06 2.22515e-09 938989 -1.84326e-10 8.99317e+06)
(2.90981e+07 -2.78509e+06 1.46942e-09 980896 1.45433e-10 8.84574e+06)
(2.86969e+07 -2.38295e+06 9.4518e-10 621814 4.85292e-10 8.9621e+06)
(2.93338e+07 -2.32072e+06 4.82794e-09 696885 4.31391e-10 8.83563e+06)
(2.88283e+07 -1.84615e+06 3.24968e-09 348675 3.41475e-10 8.91393e+06)
(2.94541e+07 -1.80075e+06 1.64979e-09 450464 5.74425e-10 8.80224e+06)
(2.88357e+07 -1.24405e+06 0 133841 0 8.82964e+06)
(2.94058e+07 -1.24054e+06 1.24815e-09 251972 -7.92012e-11 8.71819e+06)
(2.86721e+07 -592559 1.92814e-09 -2307.29 4.80866e-11 8.69876e+06)
(2.92056e+07 -664332 -7.26897e-10 111608 -1.04015e-10 8.62995e+06)
(2.83513e+07 93522.6 -6.958e-10 -35603.5 -1.14084e-11 8.70662e+06)
(2.69952e+07 -2.8649e+06 -2.42959e-09 3.12666e+06 -3.05394e-10 8.92418e+06)
(2.70701e+07 -2.52758e+06 -1.33182e-09 2.77738e+06 3.50155e-11 9.04009e+06)
(2.72163e+07 -2.76264e+06 -6.75563e-10 2.65341e+06 -9.70492e-11 8.82551e+06)
(2.71816e+07 -2.38909e+06 0 2.31633e+06 0 8.94448e+06)
(2.74058e+07 -2.60888e+06 -1.73825e-09 2.21074e+06 -8.86889e-11 8.72949e+06)
(2.72572e+07 -2.21245e+06 -8.41341e-10 1.87168e+06 -1.26468e-10 8.84734e+06)
(2.75617e+07 -2.39826e+06 -2.93652e-09 1.78972e+06 -4.12243e-10 8.64055e+06)
(2.73174e+07 -1.97839e+06 -3.14424e-09 1.45164e+06 -8.67949e-10 8.74537e+06)
(2.76959e+07 -2.13379e+06 -5.69868e-09 1.39376e+06 -9.76209e-10 8.55343e+06)
(2.73735e+07 -1.69297e+06 -2.15536e-09 1.06147e+06 -3.933e-11 8.64782e+06)
(2.78024e+07 -1.82359e+06 8.45298e-10 1.03211e+06 -2.5784e-10 8.47453e+06)
(2.74197e+07 -1.36339e+06 4.44868e-09 711649 8.167e-10 8.55665e+06)
(2.78617e+07 -1.4791e+06 8.93302e-10 713729 4.8209e-10 8.40383e+06)
(2.74357e+07 -999258 6.81587e-10 414748 1.41954e-10 8.46674e+06)
(2.78437e+07 -1.11492e+06 0 445657 0 8.33416e+06)
(2.73915e+07 -616684 -2.17788e-09 186597 -8.1629e-10 8.36843e+06)
(2.77222e+07 -749275 -3.85809e-09 233147 -6.38219e-10 8.25935e+06)
(2.72623e+07 -240078 -2.30174e-09 47063.1 -4.15679e-11 8.257e+06)
(2.74924e+07 -403059 -1.33552e-09 78112 1.05274e-09 8.18818e+06)
(2.69772e+07 124733 1.96842e-10 8385.89 2.67868e-11 8.24546e+06)
(2.67075e+07 -1.30744e+06 2.49907e-09 3.37104e+06 6.81766e-10 8.94205e+06)
(2.67453e+07 -733967 1.98002e-09 3.03575e+06 7.12689e-10 8.96866e+06)
(2.68394e+07 -1.30885e+06 4.28948e-09 2.71004e+06 1.16598e-09 8.83229e+06)
(2.68236e+07 -637239 1.9199e-09 2.4742e+06 5.00475e-10 8.77777e+06)
(2.69135e+07 -1.22213e+06 2.46705e-09 2.08959e+06 8.16171e-10 8.73008e+06)
(2.686e+07 -547807 0 1.92898e+06 0 8.59879e+06)
(2.69507e+07 -1.08678e+06 2.38262e-09 1.53386e+06 5.08519e-10 8.61601e+06)
(2.68814e+07 -459662 2.01991e-09 1.42349e+06 6.71497e-10 8.43608e+06)
(2.69745e+07 -923913 3.30736e-09 1.0546e+06 1.01079e-09 8.50139e+06)
(2.68989e+07 -368000 -3.31685e-11 976075 -3.03468e-10 8.30123e+06)
(2.69896e+07 -742565 -2.19328e-09 659737 -5.45762e-10 8.39455e+06)
(2.69118e+07 -270068 -6.63362e-10 600485 2.84841e-11 8.19656e+06)
(2.69873e+07 -550412 2.8723e-09 356264 3.40247e-10 8.29806e+06)
(2.69133e+07 -167582 3.35024e-09 307153 7.48769e-10 8.11757e+06)
(2.69516e+07 -359883 4.36527e-09 148660 1.40461e-09 8.21152e+06)
(2.68943e+07 -69057.8 1.34064e-09 104061 1.90987e-10 8.05371e+06)
(2.68676e+07 -191198 3.31314e-09 34349.7 5.69484e-10 8.13899e+06)
(2.68497e+07 9571.95 2.0267e-09 -2526.54 4.97441e-11 7.99856e+06)
(2.67574e+07 -69523.4 3.50626e-09 -1095.7 8.2184e-10 8.10556e+06)
(2.68055e+07 18084.6 5.25411e-10 7704.19 1.67908e-10 7.97968e+06)
(4.63397e+07 657735 0 7.81367e+06 0 1.68599e+07)
(4.6673e+07 3.58666e+06 -2.35797e-09 6.19607e+06 -1.22174e-09 1.59387e+07)
(4.38812e+07 260821 -4.59976e-09 6.70287e+06 -1.04146e-09 1.56313e+07)
(4.43249e+07 3.84383e+06 -3.86443e-09 5.44445e+06 -1.56145e-09 1.47217e+07)
(4.16009e+07 -74322.5 0 5.54029e+06 0 1.46971e+07)
(4.20113e+07 3.97933e+06 9.30195e-10 4.68799e+06 5.77942e-10 1.36338e+07)
(3.92265e+07 -338938 4.24852e-09 4.39044e+06 1.07307e-09 1.37835e+07)