/*--------------------------------*- C++ -*----------------------------------*\
| =========                 |                                                 |
| \\      /  F ield         | OpenFOAM: The Open Source CFD Toolbox           |
|  \\    /   O peration     | Version:  v2012                                 |
|   \\  /    A nd           | Website:  www.openfoam.com                      |
|    \\/     M anipulation  |                                                 |
\*---------------------------------------------------------------------------*/
FoamFile
{
    version     2.0;
    format      ascii;
    class       volVectorField;
    location    "19";
    object      D;
}
// * * * * * * * * * * * * * * * * * * * * * * * * * * * * * * * * * * * * * //

dimensions      [0 1 0 0 0 0 0];


internalField   nonuniform List<vector> 
30465
(
(0.000731368 -1.80133e-06 0)
(0.00084305 1.03244e-05 0)
(0.000482491 -0.000196852 0)
(0.000774831 -6.73608e-06 0)
(0.000814748 -2.00644e-05 0)
(0.000815266 -2.05934e-05 0)
(0.000420222 -0.000199288 0)
(0.000105967 -0.000718054 0)
(0.000349495 -0.000433672 0)
(0.000608572 -0.000113442 0)
(5.68219e-05 -0.000733882 0)
(0.000475854 -9.44873e-05 0)
(0.000751703 7.04311e-06 0)
(0.000851267 -4.0833e-05 0)
(0.000621754 -3.91182e-05 0)
(0.000412901 -0.000237997 0)
(0.000814403 -1.60805e-05 0)
(0.000680975 -0.000158621 0)
(0.000352905 -0.000425022 0)
(0.000867255 -2.82617e-06 0)
(0.000871692 7.73623e-06 0)
(0.000872459 7.49048e-06 0)
(0.000832448 6.02187e-06 0)
(0.000239242 -0.000518328 0)
(0.000830759 6.12775e-06 0)
(0.00088857 4.92361e-06 0)
(0.000887107 4.68576e-06 0)
(0.00085305 8.78867e-06 0)
(0.000882462 5.78796e-06 0)
(0.000633806 -0.000284671 0)
(0.000742956 -2.04242e-05 0)
(0.000918455 1.08359e-05 0)
(0.000737248 2.57809e-06 0)
(0.000793913 -2.68595e-06 0)
(0.000721928 -2.7649e-05 0)
(0.000872627 7.37673e-06 0)
(0.000317 -0.000444119 0)
(0.000821324 -0.000253221 0)
(0.000808166 -3.51322e-06 0)
(0.000477382 -9.14501e-05 0)
(0.000843964 1.21119e-05 0)
(0.000625097 -2.95907e-05 0)
(0.000227216 -0.000528804 0)
(0.000848124 1.03351e-05 0)
(0.000849856 1.01396e-05 0)
(0.000426384 -0.000386952 0)
(0.000602718 -7.55273e-05 0)
(0.000844297 1.0229e-05 0)
(0.000901211 8.5133e-06 0)
(0.000859544 1.05167e-05 0)
(0.000858378 1.0678e-05 0)
(0.000784687 3.60332e-06 0)
(0.000117826 -0.000538253 0)
(0.000112649 -0.000551096 0)
(0.000773846 -0.000438289 0)
(0.000816097 1.1024e-05 0)
(0.000776686 -0.000452625 0)
(0.000856395 -4.21825e-07 0)
(0.000884238 5.44189e-06 0)
(0.000936696 5.33552e-06 0)
(0.000936599 5.08021e-06 0)
(0.000592984 -0.000154423 0)
(0.000890497 6.09212e-07 0)
(0.00071187 -1.85183e-05 0)
(0.000712995 -1.777e-05 0)
(0.000884741 -4.06395e-06 0)
(0.00067956 -2.59045e-05 0)
(0.000406737 -0.00048033 0)
(0.000881724 2.81115e-06 0)
(0.000834614 2.32337e-06 0)
(0.000811397 1.05799e-05 0)
(0.000899395 1.21187e-05 0)
(0.000300565 -0.000206063 0)
(0.000548224 -7.38508e-05 0)
(0.000736219 2.10885e-06 0)
(0.000483991 -8.78315e-05 0)
(0.000906616 3.11054e-06 0)
(0.000907084 2.95286e-06 0)
(0.000824799 -0.000136707 0)
(7.11888e-05 -0.000725295 0)
(0.000254491 -0.000306256 0)
(0.000245692 -0.00031312 0)
(0.000813267 -1.12365e-05 0)
(0.000873843 3.74976e-06 0)
(0.000769849 7.46287e-06 0)
(0.00090723 1.31981e-05 0)
(0.000884237 5.40539e-06 0)
(0.000487951 -8.56222e-05 0)
(0.000817773 -2.43879e-05 0)
(0.000870587 8.38396e-06 0)
(0.000924046 1.27599e-05 0)
(0.000924126 1.2397e-05 0)
(0.000814932 -1.72184e-05 0)
(0.000815665 -1.65615e-05 0)
(0.000609071 -0.000116684 0)
(0.000913272 4.5261e-06 0)
(0.000881053 5.421e-06 0)
(0.000882308 5.34081e-06 0)
(0.000108919 -0.000686824 0)
(0.000889774 5.0612e-06 0)
(0.000789349 -1.27693e-05 0)
(0.000866029 8.77363e-06 0)
(0.000865364 8.95906e-06 0)
(0.000693563 -4.73018e-06 0)
(0.000851903 -2.61885e-05 0)
(0.000646824 -3.79695e-05 0)
(0.000649927 -3.75914e-05 0)
(0.000887518 5.53779e-06 0)
(0.000808961 1.03947e-05 0)
(0.000873293 -9.40097e-06 0)
(0.000474386 -0.00023623 0)
(0.000774428 -1.41629e-05 0)
(0.000705508 -2.6527e-05 0)
(0.000707364 -2.67839e-05 0)
(0.000728556 4.11392e-06 0)
(0.000731039 4.54893e-06 0)
(0.00088683 3.40162e-07 0)
(0.000900532 1.31457e-05 0)
(0.000924164 2.00621e-06 0)
(0.000207536 -0.000620816 0)
(0.000447989 -0.000108782 0)
(0.000871661 7.52078e-06 0)
(0.000795293 1.18531e-05 0)
(0.000893541 -7.91853e-06 0)
(0.000850921 9.70975e-06 0)
(0.00085139 9.81523e-06 0)
(0.000879928 3.9839e-06 0)
(0.000727696 -1.87813e-05 0)
(0.000884915 5.62898e-06 0)
(0.000890896 -1.36623e-05 0)
(0.000317212 -0.00057395 0)
(0.000928945 1.57685e-06 0)
(0.000464689 -0.00024158 0)
(5.54047e-05 -0.000802554 0)
(0.000872155 9.68848e-07 0)
(0.000877397 1.93281e-06 0)
(0.000315051 -0.000205942 0)
(0.000866905 4.31541e-06 0)
(0.000301085 -0.000504459 0)
(0.000318181 -0.000201837 0)
(0.000794397 1.23053e-05 0)
(5.57397e-05 -0.000795329 0)
(0.000893521 -3.3029e-06 0)
(0.000842648 1.22665e-05 0)
(0.000888272 5.06867e-06 0)
(0.000604874 -0.00017218 0)
(0.000927899 1.4876e-05 0)
(0.000927628 1.43091e-05 0)
(0.000654303 -1.45919e-05 0)
(0.000947232 1.14913e-06 0)
(0.000862368 -1.23504e-05 0)
(0.000661581 -2.80594e-05 0)
(0.000906404 7.38847e-06 0)
(0.000906764 7.62401e-06 0)
(0.000789047 -2.15959e-05 0)
(0.000842809 -3.7994e-05 0)
(0.000662549 -3.09807e-05 0)
(0.00081023 -6.098e-06 0)
(0.000580373 -4.48081e-05 0)
(0.000855884 9.70325e-06 0)
(0.000857238 9.62561e-06 0)
(0.000577703 -4.64671e-05 0)
(0.000648306 -2.40934e-05 0)
(0.000646365 -2.51722e-05 0)
(0.000887059 -7.81226e-07 0)
(0.000923887 4.82474e-07 0)
(0.000888776 4.99158e-06 0)
(0.000162266 -0.000710967 0)
(0.000865336 3.33195e-06 0)
(0.000650971 -6.58623e-05 0)
(0.000762761 8.83947e-06 0)
(0.000928051 4.58184e-06 0)
(0.000907669 4.7336e-06 0)
(0.000908375 4.82195e-06 0)
(0.00086434 4.40242e-06 0)
(0.000642516 -7.05248e-05 0)
(0.000730806 -2.02512e-05 0)
(0.000725364 1.64507e-08 0)
(0.000888063 -6.83233e-07 0)
(5.37486e-05 -0.000796288 0)
(0.000437395 -0.00014875 0)
(0.000709117 -3.11425e-06 0)
(0.000711722 -2.70839e-06 0)
(0.000828346 -2.38715e-05 0)
(0.000881891 4.03645e-06 0)
(0.000812073 -2.29059e-05 0)
(0.000185197 -0.000535421 0)
(0.000880865 -4.49114e-05 0)
(0.000925002 2.04247e-06 0)
(0.000818317 -1.57892e-05 0)
(0.000549662 -6.35808e-05 0)
(0.000892115 6.57317e-06 0)
(0.000854933 8.2229e-06 0)
(6.31027e-05 -0.000785139 0)
(0.000810907 -1.47432e-05 0)
(0.000810324 -1.44123e-05 0)
(0.000423702 -0.000193857 0)
(0.000806215 2.07938e-06 0)
(0.000825963 -6.14604e-06 0)
(0.000728571 -2.36962e-06 0)
(0.000927221 3.61137e-06 0)
(0.00089064 4.98865e-06 0)
(0.000941821 6.00577e-06 0)
(6.64865e-05 -0.000797595 0)
(0.000743882 -2.06683e-06 0)
(0.000796189 1.23433e-05 0)
(0.000893049 -7.99197e-06 0)
(0.000125316 -0.000751116 0)
(0.000703727 -3.68947e-06 0)
(0.000859024 9.98742e-06 0)
(0.000469311 -0.00018963 0)
(0.000800796 1.26108e-05 0)
(0.000883504 1.38771e-06 0)
(0.000887422 4.76802e-06 0)
(0.000436527 -0.000378948 0)
(0.00065955 -3.13361e-05 0)
(0.000656811 -3.24834e-05 0)
(0.000882943 3.96188e-06 0)
(0.000884322 4.2252e-06 0)
(0.000552357 -6.17881e-05 0)
(0.000744676 -1.8729e-05 0)
(0.000752218 4.02271e-06 0)
(0.000909357 7.74029e-06 0)
(0.000869948 3.86686e-07 0)
(0.000691115 -2.95142e-05 0)
(0.000886279 -2.93994e-05 0)
(0.000595869 -0.000150435 0)
(0.000696174 -4.98979e-05 0)
(0.000870811 8.37879e-06 0)
(0.000808169 -1.64275e-05 0)
(0.000587252 -0.00015671 0)
(0.000902979 4.94997e-06 0)
(0.000903405 5.00181e-06 0)
(0.00084153 -9.68807e-05 0)
(0.00084438 -1.43288e-05 0)
(0.000882267 1.12534e-06 0)
(0.000740309 -2.38743e-05 0)
(0.000742119 -2.31558e-05 0)
(0.000337313 -0.000255284 0)
(0.000344978 -0.000246411 0)
(0.000636272 -7.92372e-05 0)
(0.000809243 -1.49942e-05 0)
(0.000773993 1.03517e-05 0)
(0.000808492 -5.54681e-05 0)
(0.000866424 5.91198e-06 0)
(0.000622878 -4.27087e-05 0)
(0.000704429 -3.19807e-06 0)
(0.000746021 6.95142e-06 0)
(0.000441533 -0.000436464 0)
(0.000842619 -1.53466e-05 0)
(0.000813089 4.66268e-07 0)
(0.000891174 -1.51983e-05 0)
(0.000891216 -1.41395e-05 0)
(0.000603064 -0.000158175 0)
(0.000730016 3.57764e-06 0)
(0.000333777 -0.000560451 0)
(0.000749006 -0.000277007 0)
(0.000749839 -0.000270107 0)
(0.00065228 -1.695e-05 0)
(2.28886e-05 -0.000820662 0)
(0.000900668 1.27946e-05 0)
(0.000819188 -4.0626e-06 0)
(0.000815825 -4.30846e-06 0)
(0.000887771 -2.00187e-05 0)
(0.000594899 -0.000212944 0)
(0.00059525 -0.000206504 0)
(0.000813151 3.19773e-06 0)
(0.000565253 -5.74187e-05 0)
(0.000734433 5.15564e-06 0)
(0.000821281 4.82105e-06 0)
(0.000923714 6.4822e-07 0)
(0.000853163 -8.02453e-06 0)
(0.000875555 6.59577e-06 0)
(0.000813196 -2.01862e-05 0)
(0.000853772 -2.61602e-05 0)
(0.00074605 -0.000104304 0)
(0.000851678 -9.96596e-05 0)
(0.000790597 6.53472e-06 0)
(0.000558954 -0.000279699 0)
(0.000872143 7.25714e-06 0)
(0.000549613 -0.000284097 0)
(0.00076107 -2.63253e-05 0)
(0.000849811 -9.96637e-05 0)
(0.000839219 -5.07636e-06 0)
(0.000857852 1.01436e-05 0)
(0.000844914 -2.05372e-06 0)
(0.000635105 -2.02529e-05 0)
(0.000884827 4.44863e-06 0)
(0.000947017 8.64841e-07 0)
(0.000861632 -1.2895e-05 0)
(0.000741815 -2.88137e-06 0)
(0.00077522 -3.42815e-06 0)
(0.00079717 1.18838e-05 0)
(0.000713259 -0.000258734 0)
(0.000930605 3.73108e-06 0)
(0.000876299 2.10736e-06 0)
(0.000927108 8.60797e-07 0)
(0.00088169 2.97678e-06 0)
(0.000881941 2.86002e-06 0)
(0.000899007 4.2277e-06 0)
(0.00076523 -2.28495e-05 0)
(0.000766911 -2.25272e-05 0)
(0.000294851 -0.000211016 0)
(0.000870363 8.48308e-06 0)
(0.000884268 5.14675e-06 0)
(0.000590949 -8.61146e-05 0)
(0.000594325 -8.27064e-05 0)
(0.000926173 3.93488e-06 0)
(0.000856452 -5.55215e-05 0)
(0.000842466 -0.000181777 0)
(0.000751389 6.49059e-06 0)
(0.000751221 6.63459e-06 0)
(0.000110014 -0.0007163 0)
(0.000885535 6.16133e-06 0)
(0.000529051 -0.000316164 0)
(0.000810152 -8.7406e-05 0)
(3.60388e-05 -0.000816397 0)
(3.29992e-05 -0.000816873 0)
(0.000572577 -4.62359e-05 0)
(0.000696473 -0.000476523 0)
(0.000654055 -4.0614e-05 0)
(0.000687044 -0.000472403 0)
(0.000640953 -7.82079e-05 0)
(0.000876761 -2.77875e-06 0)
(0.000833476 1.10022e-05 0)
(0.000834775 1.10826e-05 0)
(0.000784258 -0.000396423 0)
(0.00076866 -8.04055e-05 0)
(0.000801535 9.94456e-06 0)
(0.000523135 -0.000220426 0)
(0.000890021 -9.31382e-09 0)
(0.000562171 -0.000121018 0)
(0.00087279 -1.27584e-06 0)
(8.69081e-05 -0.000755394 0)
(0.000865028 -2.73109e-05 0)
(0.000615783 -3.51672e-05 0)
(0.000918614 1.50871e-05 0)
(0.000839437 1.04946e-05 0)
(0.000840246 1.06545e-05 0)
(0.000641952 -3.92776e-05 0)
(0.000645078 -1.69625e-05 0)
(0.000782893 3.19806e-06 0)
(0.000555842 -0.000205119 0)
(0.000888761 4.99279e-06 0)
(0.000814189 1.01865e-05 0)
(0.000626396 -3.3728e-05 0)
(0.000622936 -3.39948e-05 0)
(0.000362597 -0.000175452 0)
(0.000732661 -9.26682e-05 0)
(0.000929917 1.72242e-05 0)
(0.00063663 -2.53774e-05 0)
(0.000878041 6.85113e-06 0)
(0.00017426 -0.000472682 0)
(8.0936e-05 -0.000761469 0)
(0.000766212 9.73805e-06 0)
(0.000647291 -2.35789e-05 0)
(0.000876542 1.8942e-06 0)
(0.000308193 -0.00024426 0)
(0.000850855 -3.9168e-05 0)
(0.000870825 -7.31113e-05 0)
(0.000679941 -5.31279e-05 0)
(0.000678034 -5.11466e-05 0)
(0.000894583 5.84424e-06 0)
(0.000840763 -9.36953e-05 0)
(0.000870716 -7.18759e-05 0)
(0.000435218 -0.000152627 0)
(7.65804e-05 -0.000717429 0)
(0.000883093 1.11595e-06 0)
(0.000850764 8.872e-06 0)
(0.000735725 -8.63504e-06 0)
(0.000768554 -0.000398442 0)
(0.000925079 1.21244e-05 0)
(0.000303653 -0.000454218 0)
(0.000753705 -0.000159436 0)
(0.000753029 -0.000153875 0)
(0.000626112 -2.55496e-05 0)
(0.000840445 -1.58591e-05 0)
(0.000714267 -5.95335e-06 0)
(0.00086644 3.32034e-06 0)
(0.000805111 -1.61356e-05 0)
(0.000819807 -9.59361e-05 0)
(0.000848009 -8.91096e-06 0)
(0.000865191 -2.21717e-06 0)
(0.000639707 -2.83158e-05 0)
(0.00017273 -0.000481617 0)
(0.000874139 7.69069e-06 0)
(0.000886798 -7.51473e-06 0)
(0.000468697 -0.000125569 0)
(0.000474958 -0.000121893 0)
(0.000886217 -7.35925e-06 0)
(0.000535995 -0.00031698 0)
(0.000867743 7.78628e-06 0)
(0.000870784 8.39632e-06 0)
(0.000896384 3.20311e-06 0)
(0.000743677 5.03981e-06 0)
(0.000850434 -1.18555e-05 0)
(0.00088686 -2.94933e-06 0)
(0.000911129 7.35582e-07 0)
(0.000847817 -1.55062e-05 0)
(0.000848956 -1.47601e-05 0)
(0.000934054 1.1845e-05 0)
(0.000932773 1.14763e-05 0)
(0.00081371 -8.58559e-05 0)
(0.000883369 7.98909e-07 0)
(0.000728866 -3.20332e-05 0)
(0.00076548 9.18536e-06 0)
(0.000714899 -7.93915e-06 0)
(0.000762949 -1.09584e-05 0)
(0.000844559 -5.40578e-06 0)
(0.000883769 5.31364e-06 0)
(0.000863253 -9.15226e-06 0)
(0.000677527 -3.35434e-05 0)
(0.000855183 9.92037e-06 0)
(0.000625781 -4.55254e-05 0)
(0.000791204 -1.25608e-05 0)
(0.000863624 -8.24072e-05 0)
(0.000867462 8.48269e-06 0)
(0.000203675 -0.000695209 0)
(0.000487221 -9.2642e-05 0)
(0.000482603 -9.46842e-05 0)
(0.000850878 1.15474e-05 0)
(0.000105073 -0.000750491 0)
(0.000433429 -0.000267543 0)
(0.000733772 -3.13617e-05 0)
(0.000912939 1.50509e-06 0)
(0.000736416 -3.00362e-05 0)
(0.000383433 -0.000279714 0)
(0.000739014 4.1786e-06 0)
(0.000773237 -6.64056e-06 0)
(0.00070902 -2.58359e-05 0)
(0.000449098 -0.000333619 0)
(0.000878517 4.7947e-06 0)
(0.00083618 -0.000143889 0)
(0.000823792 -1.80248e-05 0)
(0.000823723 -1.84977e-05 0)
(0.000869598 -8.92992e-06 0)
(0.00095155 2.01358e-06 0)
(0.000793875 -2.61152e-05 0)
(0.000639277 -0.000322008 0)
(0.000884763 1.0206e-06 0)
(0.000549137 -0.000207993 0)
(0.000843846 -3.60375e-05 0)
(0.000818455 -4.55512e-06 0)
(0.000639627 -7.31025e-05 0)
(0.0009362 9.45995e-06 0)
(0.000915559 6.55393e-06 0)
(0.000747085 -1.90798e-06 0)
(0.000749591 -1.3423e-06 0)
(0.000308559 -0.00023558 0)
(0.000872462 -5.70401e-05 0)
(0.000743768 5.24418e-06 0)
(0.000786609 1.16146e-05 0)
(0.000846832 7.21028e-06 0)
(0.000784048 -8.18266e-05 0)
(0.000730447 -1.95595e-05 0)
(0.000529612 -7.02825e-05 0)
(0.000814324 -1.30032e-05 0)
(0.000840113 2.83897e-06 0)
(0.000839506 3.38357e-06 0)
(0.000890039 6.40325e-07 0)
(0.000871805 1.0238e-06 0)
(0.000870275 5.66026e-07 0)
(0.000106151 -0.000777763 0)
(0.000900431 4.27624e-06 0)
(0.000845001 1.08991e-05 0)
(0.000730952 -3.1968e-05 0)
(0.000842509 -4.57666e-06 0)
(0.000932505 3.48763e-06 0)
(0.000788402 -1.61475e-05 0)
(0.000789834 -1.56105e-05 0)
(0.000376331 -0.000318561 0)
(0.000363986 -0.000326732 0)
(0.000803534 -2.27201e-05 0)
(0.000787506 9.80839e-06 0)
(0.000911309 1.40788e-05 0)
(0.000546456 -6.49077e-05 0)
(0.00091472 5.41823e-06 0)
(0.00091412 5.27421e-06 0)
(0.000891407 -3.09853e-06 0)
(0.000818645 3.60562e-06 0)
(0.000816968 9.52705e-06 0)
(0.000817098 9.78102e-06 0)
(0.000876093 2.01104e-06 0)
(0.000803521 1.02958e-05 0)
(0.000667987 -5.37595e-05 0)
(0.000854343 8.76058e-06 0)
(0.000659834 -3.55307e-05 0)
(0.000656793 -3.63719e-05 0)
(0.000782815 1.12619e-05 0)
(0.000786561 -8.35192e-05 0)
(0.0008815 -4.34354e-05 0)
(0.000929386 1.13054e-07 0)
(0.000835689 -2.29667e-05 0)
(0.000577028 -5.45629e-05 0)
(0.000664434 -0.000166015 0)
(0.000500459 -8.12901e-05 0)
(0.000811801 1.08991e-05 0)
(0.000897845 5.16876e-06 0)
(0.000812393 5.80986e-06 0)
(0.000797204 1.21485e-05 0)
(0.000174558 -0.000718802 0)
(0.000898474 8.85369e-06 0)
(0.000897149 8.43374e-06 0)
(0.000803063 -0.000385313 0)
(0.000841121 1.17945e-05 0)
(0.000728578 -3.02523e-05 0)
(2.85773e-06 -0.000835542 0)
(0.000408122 -0.000215086 0)
(0.00085662 7.02207e-06 0)
(0.00052963 -0.000219721 0)
(0.00061408 -0.000203298 0)
(0.000302556 -0.000241822 0)
(0.000764429 4.80875e-06 0)
(0.000918753 1.11766e-05 0)
(0.000842017 1.10416e-05 0)
(0.000841227 1.11759e-05 0)
(0.000832147 1.27958e-05 0)
(0.000892159 -7.09551e-06 0)
(0.000877569 -4.99441e-05 0)
(0.000642931 -1.76586e-05 0)
(0.00066597 -0.000469863 0)
(0.000682106 -9.17798e-06 0)
(0.000637703 -4.07239e-05 0)
(0.000821991 9.07687e-06 0)
(0.000904227 1.52228e-05 0)
(0.000813821 -5.64829e-05 0)
(0.000415935 -0.000290322 0)
(0.000164401 -0.000536135 0)
(0.000827023 -6.24353e-05 0)
(0.000833928 -0.000144679 0)
(0.000866065 4.43741e-06 0)
(0.000858203 6.77088e-06 0)
(0.00063501 -4.02412e-05 0)
(0.000879952 4.04367e-06 0)
(0.000628031 -0.000116559 0)
(0.00089661 1.87249e-06 0)
(0.000798054 -0.000383047 0)
(0.00088745 4.78891e-06 0)
(1.79065e-05 -0.000817684 0)
(0.000748973 -0.000100875 0)
(0.000795401 1.3131e-06 0)
(0.00074642 -2.00143e-05 0)
(0.000753023 4.39852e-06 0)
(0.000208624 -0.000642616 0)
(0.000716396 -0.00035652 0)
(0.000692417 -5.09725e-05 0)
(0.000890934 8.35147e-06 0)
(0.000889679 7.80043e-06 0)
(0.000655937 -3.37472e-05 0)
(0.000830193 -1.90356e-05 0)
(0.000681104 -8.61456e-06 0)
(0.00043361 -0.000297895 0)
(0.000829152 -2.0998e-05 0)
(0.000803851 -1.66731e-05 0)
(0.000936602 9.83489e-06 0)
(0.000760757 -5.37756e-05 0)
(0.000787223 -0.000197706 0)
(0.000916115 4.68456e-06 0)
(0.000786811 -5.2999e-06 0)
(0.000763891 -0.000107821 0)
(0.000821865 -0.000139495 0)
(0.00085163 1.08553e-05 0)
(0.000787878 -4.00424e-05 0)
(0.000792847 -0.000400735 0)
(0.00063171 -0.00036174 0)
(0.000838213 2.15826e-06 0)
(0.000835439 2.1575e-06 0)
(0.000852824 9.74514e-06 0)
(0.00087011 4.01259e-06 0)
(0.000871448 3.88777e-06 0)
(0.000693156 -4.36334e-05 0)
(0.000790793 2.14591e-06 0)
(0.000891415 -3.46795e-06 0)
(0.000140769 -0.000706677 0)
(0.000811647 -1.14954e-05 0)
(0.000130285 -0.000718787 0)
(0.000924487 8.23066e-06 0)
(0.000923469 8.24544e-06 0)
(0.000688548 -2.98099e-05 0)
(0.00077959 -5.86081e-06 0)
(0.00050404 -0.000137657 0)
(0.000858327 1.6728e-06 0)
(0.000877647 4.36352e-06 0)
(0.000873126 7.8967e-06 0)
(0.000942597 5.98885e-06 0)
(5.15535e-05 -0.000738654 0)
(0.000841483 -1.56233e-05 0)
(0.000853897 -1.90839e-06 0)
(0.000815163 8.32239e-06 0)
(0.000815626 8.09115e-06 0)
(0.00085077 -5.77679e-06 0)
(0.000891616 -4.6708e-06 0)
(0.000870226 -8.83348e-06 0)
(0.000952148 1.84647e-06 0)
(0.000596745 -0.000159117 0)
(0.000846541 5.86436e-06 0)
(0.000847752 5.76291e-06 0)
(0.00065133 -1.55339e-05 0)
(0.00071812 -2.87305e-05 0)
(0.000834311 -1.86395e-06 0)
(0.000725258 -8.7689e-06 0)
(0.000841536 1.12325e-05 0)
(0.000856685 9.88628e-06 0)
(0.000841511 1.13305e-05 0)
(0.000458964 -0.000327475 0)
(0.000895857 3.33838e-06 0)
(0.000882361 5.57666e-06 0)
(0.00088291 5.43482e-06 0)
(0.000638661 -1.90808e-05 0)
(0.000732921 -1.51333e-05 0)
(0.000517224 -7.09373e-05 0)
(0.00051132 -7.39393e-05 0)
(0.000209376 -0.000291978 0)
(0.000828612 -2.33221e-05 0)
(0.000216105 -0.000552573 0)
(0.00072992 4.18762e-06 0)
(0.000122862 -0.000765976 0)
(0.000778124 -6.27868e-06 0)
(0.000183018 -0.000560889 0)
(0.000534956 -0.000156654 0)
(0.000896785 4.49859e-06 0)
(0.000896042 3.43641e-06 0)
(0.000678313 -3.44668e-05 0)
(0.000900512 3.72655e-06 0)
(0.000891398 -1.16074e-05 0)
(0.000459842 -0.000383722 0)
(0.000876465 6.59531e-06 0)
(0.00078115 9.8548e-06 0)
(0.000896941 4.64044e-06 0)
(0.000774107 -1.10432e-05 0)
(0.000880628 3.67439e-06 0)
(0.000650674 -2.14546e-05 0)
(0.000615488 -6.57877e-05 0)
(0.000914753 7.95754e-06 0)
(0.000913338 7.70363e-06 0)
(0.000908344 7.50225e-06 0)
(0.000735956 -9.42404e-06 0)
(0.000906869 5.04802e-06 0)
(0.000893171 -7.76706e-06 0)
(0.000852337 1.13778e-05 0)
(0.000714276 -6.41866e-06 0)
(0.000802025 -0.000316239 0)
(0.000886847 -2.78031e-05 0)
(0.000915747 4.56365e-06 0)
(0.000836157 1.20089e-05 0)
(0.000696565 -4.40194e-05 0)
(0.000639884 -2.12813e-05 0)
(0.000242473 -0.000523687 0)
(0.000898555 4.23422e-06 0)
(0.000819312 -4.08636e-06 0)
(0.000846239 -5.0337e-06 0)
(0.000632757 -0.000367157 0)
(0.000850307 9.13541e-06 0)
(0.00084006 1.24632e-05 0)
(0.000752988 6.32872e-06 0)
(0.000900302 3.52893e-06 0)
(0.000833612 -2.69621e-06 0)
(0.000889973 7.69462e-06 0)
(0.000849592 -6.01302e-06 0)
(0.000474621 -9.42855e-05 0)
(0.000869378 7.78377e-06 0)
(0.000910601 6.40652e-06 0)
(0.000911747 6.48933e-06 0)
(0.000855463 -1.5433e-06 0)
(0.000947357 9.74161e-06 0)
(0.000879626 1.04433e-06 0)
(0.000826159 1.08126e-05 0)
(0.000827784 1.07671e-05 0)
(0.000820263 1.17316e-05 0)
(0.000129243 -0.000744311 0)
(0.000881897 4.39645e-06 0)
(0.000854757 -4.7527e-05 0)
(0.000883463 7.63551e-07 0)
(0.0007167 -0.000343509 0)
(0.000401421 -0.000238136 0)
(0.000814145 -1.65314e-05 0)
(0.000831129 -1.28418e-05 0)
(4.64112e-05 -0.000804737 0)
(0.000885908 5.13081e-06 0)
(0.000808156 1.00474e-05 0)
(0.000699925 -1.04378e-05 0)
(0.000618469 -3.46499e-05 0)
(0.000851122 -6.61954e-06 0)
(0.000738201 -1.91219e-05 0)
(1.45065e-05 -0.000705034 0)
(0.000229329 -0.000647869 0)
(0.000880935 3.95537e-06 0)
(0.000913865 1.23447e-05 0)
(0.000912661 1.20714e-05 0)
(5.49003e-05 -0.000650308 0)
(0.000771527 7.48389e-06 0)
(0.000868412 -2.51016e-07 0)
(0.000687411 -2.93374e-05 0)
(0.000742884 -1.8984e-05 0)
(0.000897466 4.49586e-06 0)
(0.000639779 -2.39943e-05 0)
(0.000918137 4.09828e-06 0)
(0.000918392 3.9629e-06 0)
(0.000407689 -0.000183908 0)
(0.000567408 -0.000229353 0)
(0.000401362 -0.000184024 0)
(0.000364699 -0.00020789 0)
(0.000723461 -8.86526e-06 0)
(0.000808214 7.91009e-06 0)
(0.000809708 7.81535e-06 0)
(0.000140539 -0.000749637 0)
(0.000822585 -9.59379e-05 0)
(0.000234149 -0.000537928 0)
(0.000149538 -0.000616889 0)
(0.000880207 3.44289e-06 0)
(0.000142728 -0.000618616 0)
(0.000910712 2.24393e-06 0)
(0.000911571 2.03279e-06 0)
(0.000660495 -1.25748e-05 0)
(0.000386018 -0.000215242 0)
(0.000872035 -5.28138e-05 0)
(0.000391205 -0.00014983 0)
(0.000397577 -0.000145147 0)
(0.000745984 4.04699e-06 0)
(0.000868563 8.30844e-06 0)
(0.000514657 -7.28489e-05 0)
(0.000520108 -6.98989e-05 0)
(0.00080137 -0.000199572 0)
(0.000551654 -8.14524e-05 0)
(0.000277544 -0.000318698 0)
(0.00090282 8.67022e-06 0)
(0.000748164 -2.5145e-05 0)
(0.000642157 -0.000315878 0)
(0.000703292 -9.47931e-06 0)
(0.000813474 -8.10442e-06 0)
(0.000848023 1.07814e-05 0)
(0.000846652 1.09534e-05 0)
(0.000754316 -2.56243e-05 0)
(0.000509699 -0.000547451 0)
(0.000750209 -2.51495e-05 0)
(0.000495211 -0.000549218 0)
(0.000931266 7.37016e-06 0)
(0.000762104 -2.57363e-05 0)
(0.000772468 -7.82498e-05 0)
(0.000752773 8.45507e-09 0)
(0.000836822 1.03007e-05 0)
(0.000837421 1.05504e-05 0)
(0.000888461 2.51477e-06 0)
(0.000888898 2.5058e-06 0)
(0.000727387 -9.33069e-05 0)
(0.000631139 -0.000403799 0)
(0.000738877 -0.000368131 0)
(0.000797718 -9.54494e-05 0)
(0.000543196 -6.56528e-05 0)
(0.00081534 -2.28492e-05 0)
(0.000805585 -2.78598e-06 0)
(0.000507448 -0.00013359 0)
(0.000657693 -0.000210754 0)
(0.000941481 8.77408e-06 0)
(0.000423538 -0.000472804 0)
(0.000577866 -5.31164e-05 0)
(0.000667456 -0.000133083 0)
(0.000806112 9.95733e-06 0)
(0.000638152 -2.21694e-05 0)
(0.000864264 3.45288e-06 0)
(0.000830407 -3.81711e-05 0)
(0.000865806 3.3526e-06 0)
(0.000355106 -0.000514141 0)
(0.000887254 5.25418e-06 0)
(0.000873088 -5.21515e-05 0)
(0.000650718 -1.52059e-05 0)
(0.00079008 -0.000193786 0)
(0.000884568 4.62661e-06 0)
(0.000884976 4.3967e-06 0)
(0.000909594 2.87767e-06 0)
(0.000717455 -1.01123e-05 0)
(0.00071749 -9.10954e-06 0)
(0.000878944 4.84578e-06 0)
(0.000813985 -4.61258e-06 0)
(0.000786493 1.17539e-05 0)
(0.000852446 -3.68159e-07 0)
(0.000647703 -3.08134e-05 0)
(0.000647003 -3.19363e-05 0)
(0.000929747 1.7168e-06 0)
(0.0006522 -0.000209215 0)
(0.000773756 -4.40758e-06 0)
(0.000896432 3.83723e-06 0)
(0.000803954 -0.00014036 0)
(0.000918952 1.42718e-05 0)
(0.000918079 1.37861e-05 0)
(0.000107794 -0.000683113 0)
(0.000814 -0.000287113 0)
(0.0008511 -1.1029e-05 0)
(0.000850127 -1.16128e-05 0)
(0.000755221 1.45792e-07 0)
(0.00082169 1.09094e-05 0)
(0.000820395 1.07625e-05 0)
(0.000327143 -0.000487214 0)
(0.000907128 7.38241e-06 0)
(0.000652918 -3.14971e-05 0)
(0.000851702 -9.26246e-06 0)
(0.000837494 8.4977e-07 0)
(0.000866874 -9.40959e-05 0)
(0.000882481 4.40074e-06 0)
(0.00088062 6.31713e-06 0)
(0.000886188 8.86263e-07 0)
(0.000700804 -1.6925e-06 0)
(0.000908563 3.52512e-06 0)
(0.000907797 3.64228e-06 0)
(0.000616152 -2.78135e-05 0)
(0.000279366 -0.000308392 0)
(0.000938041 5.68351e-06 0)
(0.000711085 -3.02677e-05 0)
(0.000878459 2.22253e-06 0)
(0.000883762 2.68033e-07 0)
(0.000843752 1.08761e-05 0)
(0.000272084 -0.000326567 0)
(0.000846548 1.19601e-05 0)
(0.000883268 5.56706e-06 0)
(0.000898802 9.31447e-06 0)
(0.000899521 9.42153e-06 0)
(0.00085473 -0.000101257 0)
(0.000837009 -1.49243e-05 0)
(0.000835529 -1.54179e-05 0)
(0.000887186 3.91718e-06 0)
(0.000887838 3.80668e-06 0)
(0.000880396 3.6078e-06 0)
(0.00086346 7.77308e-07 0)
(0.000862741 5.65672e-07 0)
(0.00088722 1.63422e-07 0)
(0.000834836 2.66609e-06 0)
(5.42889e-05 -0.000802518 0)
(0.000886373 4.55277e-06 0)
(0.000803256 1.01248e-05 0)
(0.000855989 -1.06831e-05 0)
(0.000824505 -1.5572e-05 0)
(0.000889367 1.59406e-06 0)
(0.000302311 -0.000245163 0)
(0.000672447 -5.16197e-05 0)
(0.000414745 -0.000285621 0)
(0.000855495 -5.84919e-05 0)
(0.000795195 -2.59596e-05 0)
(0.000440182 -0.000263305 0)
(0.000704441 -9.46435e-05 0)
(0.000699114 -9.47645e-05 0)
(6.25442e-05 -0.000788889 0)
(0.00088784 -1.16129e-05 0)
(1.68814e-05 -0.000816112 0)
(0.00073854 4.41145e-06 0)
(0.000851655 -3.53502e-06 0)
(0.000852573 -3.17689e-06 0)
(0.00074689 2.86396e-06 0)
(0.000732749 3.60916e-06 0)
(0.000874512 6.17324e-06 0)
(0.000423561 -0.000127978 0)
(0.000423372 -0.000127019 0)
(0.000827459 -5.76301e-05 0)
(0.000483945 -0.000443815 0)
(0.000753337 7.37867e-06 0)
(0.000829265 -5.53923e-05 0)
(0.000464868 -0.000561113 0)
(0.000885723 6.26155e-06 0)
(0.00055282 -7.92736e-05 0)
(0.000943129 9.78691e-06 0)
(0.000884795 -9.21164e-06 0)
(0.000712961 -0.000103808 0)
(0.000893306 7.31772e-07 0)
(0.000364223 -0.000160516 0)
(0.000874776 5.12233e-06 0)
(0.000496778 -9.28578e-05 0)
(0.00072538 -1.81579e-05 0)
(0.000854704 -1.74816e-05 0)
(0.000649182 -0.000136663 0)
(0.000832888 -1.11234e-05 0)
(0.000730656 -2.64092e-05 0)
(0.000579942 -9.7493e-05 0)
(0.000837481 -1.62703e-05 0)
(0.000877081 5.40176e-06 0)
(0.000574172 -9.78662e-05 0)
(0.000453858 -0.000107433 0)
(0.000875317 5.04795e-06 0)
(0.000842439 9.11221e-06 0)
(0.000841243 9.2959e-06 0)
(0.000844071 8.71039e-06 0)
(0.000424919 -0.000478399 0)
(0.000903117 1.45293e-05 0)
(0.000846534 1.20355e-05 0)
(0.000848236 1.1882e-05 0)
(0.000848544 -8.52989e-06 0)
(0.000875825 7.25302e-06 0)
(0.000891967 4.91564e-06 0)
(0.0008851 3.47673e-06 0)
(0.000801939 -1.85497e-06 0)
(0.000784349 -6.10991e-06 0)
(0.000832414 -1.2721e-05 0)
(0.000811528 3.13605e-06 0)
(0.000833008 2.3932e-06 0)
(0.000606461 -3.07575e-05 0)
(0.000623384 -4.77118e-05 0)
(0.000885802 -2.76396e-05 0)
(0.000753586 2.29763e-06 0)
(0.000681882 -3.54736e-05 0)
(0.000861038 -2.95717e-05 0)
(0.000813052 -1.35302e-05 0)
(0.000908585 1.70508e-06 0)
(0.000708017 -0.000341036 0)
(0.000638044 -3.90278e-05 0)
(0.000804373 1.91934e-06 0)
(0.000817204 -1.63002e-05 0)
(0.000893057 4.87631e-06 0)
(0.000863427 8.79684e-06 0)
(0.000299381 -0.000362269 0)
(0.00082586 -5.7401e-06 0)
(0.000496016 -0.00025011 0)
(0.000835657 1.04093e-05 0)
(0.000117533 -0.00071969 0)
(0.000859352 5.67376e-06 0)
(0.000860519 5.75507e-06 0)
(0.000880619 -4.15316e-06 0)
(0.000884813 7.27045e-07 0)
(0.000779285 9.79164e-06 0)
(0.000545085 -0.000267859 0)
(0.000651819 -2.93048e-05 0)
(0.000865014 -6.83209e-06 0)
(0.000535369 -0.000270744 0)
(0.000732258 3.27469e-06 0)
(0.000408834 -0.000244116 0)
(0.000844594 -1.37453e-05 0)
(0.000473972 -9.32984e-05 0)
(0.000857568 -1.29211e-05 0)
(0.000696615 -4.04019e-06 0)
(0.000862967 -1.98117e-05 0)
(0.000273131 -0.000446767 0)
(0.000853897 9.97078e-06 0)
(0.000416896 -0.000177288 0)
(0.000753508 -1.08379e-05 0)
(0.00041869 -0.000172169 0)
(0.000923757 4.33875e-06 0)
(0.000542884 -6.48702e-05 0)
(0.000634117 -0.000115971 0)
(0.0002753 -0.000234566 0)
(0.000815165 1.07713e-05 0)
(0.000883761 5.20832e-06 0)
(0.00085692 -2.33621e-05 0)
(0.000387198 -0.000351531 0)
(0.000712 -1.8362e-07 0)
(0.000837708 -5.36567e-06 0)
(0.000476609 -0.00020335 0)
(0.00037625 -0.000357921 0)
(0.000635159 -0.000227596 0)
(0.000442754 -0.000111701 0)
(0.000692809 -2.86076e-05 0)
(0.00072993 -2.71765e-05 0)
(0.000813713 -2.73219e-05 0)
(0.00073976 -1.5728e-05 0)
(0.000787631 -2.19525e-05 0)
(0.000908001 1.70618e-06 0)
(0.000883101 4.00354e-06 0)
(0.000738261 -0.000103335 0)
(0.000926466 1.08154e-06 0)
(0.000728279 6.78187e-07 0)
(0.000877742 4.73629e-06 0)
(0.000321555 -0.000496478 0)
(0.000848567 -1.72199e-05 0)
(0.000936937 1.10369e-06 0)
(0.000899518 4.05338e-06 0)
(0.000899609 3.97328e-06 0)
(0.000687645 -2.56945e-05 0)
(0.000736694 -0.000120714 0)
(0.000345195 -0.000328005 0)
(0.000733289 -0.000116997 0)
(0.000802346 -1.47186e-06 0)
(0.000772702 -5.10197e-05 0)
(0.00086945 3.84277e-06 0)
(0.000792518 8.76092e-06 0)
(0.000183314 -0.000621698 0)
(0.000723409 -0.000341276 0)
(0.000878488 -4.81352e-05 0)
(0.000866683 7.9904e-06 0)
(0.000823283 1.14553e-05 0)
(0.000790999 6.82216e-06 0)
(0.000842553 8.70733e-06 0)
(0.000823222 1.22337e-05 0)
(0.000593495 -5.64656e-05 0)
(0.000891022 1.31811e-06 0)
(0.00078171 -1.79821e-05 0)
(0.000733133 -5.06375e-06 0)
(0.000887898 -2.05636e-05 0)
(0.000900229 5.1377e-06 0)
(0.000855739 -1.28942e-06 0)
(0.000813933 -2.16965e-05 0)
(9.93614e-06 -0.000815672 0)
(0.000937285 5.58151e-06 0)
(0.000746722 -2.5682e-05 0)
(1.12304e-05 -0.000642713 0)
(0.000822215 1.29804e-05 0)
(0.000864044 -1.57636e-06 0)
(0.000874166 -1.00651e-06 0)
(0.000881135 3.26101e-06 0)
(0.000881534 3.01449e-06 0)
(0.000743565 -2.42702e-05 0)
(0.000797874 -0.000236149 0)
(0.000612015 -0.000208709 0)
(0.000757716 -0.000444164 0)
(0.000793629 -0.000237262 0)
(0.000841176 -6.34948e-06 0)
(0.000578169 -5.01222e-05 0)
(0.00087641 7.19586e-06 0)
(0.000812724 8.60088e-07 0)
(0.000901326 1.08917e-05 0)
(0.000823719 -9.52226e-06 0)
(0.000672568 -3.86579e-05 0)
(0.000677582 -3.71542e-05 0)
(0.000892688 -8.77701e-06 0)
(0.00081397 -0.000444815 0)
(0.000876929 5.39683e-06 0)
(0.000808866 -0.000444139 0)
(0.000903201 9.29185e-06 0)
(0.000100751 -0.000705663 0)
(0.00088467 5.49304e-06 0)
(0.000885476 5.3329e-06 0)
(0.000110748 -0.000533466 0)
(0.000100713 -0.000543256 0)
(0.000863912 8.58525e-06 0)
(0.000704293 -1.74681e-05 0)
(0.000925403 4.24152e-06 0)
(0.000510422 -8.14489e-05 0)
(0.000508946 -8.09111e-05 0)
(0.000865487 -1.39502e-06 0)
(0.000812699 6.08522e-06 0)
(0.000760759 -0.000164534 0)