/*--------------------------------*- C++ -*----------------------------------*\
| =========                 |                                                 |
| \\      /  F ield         | OpenFOAM: The Open Source CFD Toolbox           |
|  \\    /   O peration     | Version:  v2012                                 |
|   \\  /    A nd           | Website:  www.openfoam.com                      |
|    \\/     M anipulation  |                                                 |
\*---------------------------------------------------------------------------*/
FoamFile
{
    version     2.0;
    format      ascii;
    class       volSymmTensorField;
    location    "19";
    object      sigma;
}
// * * * * * * * * * * * * * * * * * * * * * * * * * * * * * * * * * * * * * //

dimensions      [1 -1 -2 0 0 0 0];


internalField   nonuniform List<symmTensor> 
30465
(
(2.02253e+07 -7.29758e+06 6.62848e-09 1.40828e+06 -5.55766e-11 6.51024e+06)
(1.02106e+07 -6.19649e+06 -5.83786e-09 4.25477e+06 -2.2009e-10 4.41884e+06)
(3.02723e+07 -7.00008e+06 -5.40761e-08 -6.20985e+06 -6.30072e-08 7.08147e+06)
(1.81872e+07 -5.2874e+06 8.64975e-09 1.22306e+06 6.20395e-09 5.74969e+06)
(1.57732e+07 -1.56257e+06 9.61513e-09 271750 6.99652e-10 4.78987e+06)
(1.55968e+07 -1.37704e+06 9.02235e-09 275263 4.14742e-09 4.81572e+06)
(3.99005e+07 -6.30303e+06 -9.22109e-08 -4.23682e+06 -8.22365e-08 1.102e+07)
(6.5206e+07 2.01224e+07 -1.37562e-08 6.26076e+06 -3.24501e-08 2.22123e+07)
(4.4892e+07 -2.63934e+06 -1.57748e-08 -2.23397e+07 4.07805e-08 1.29965e+07)
(1.71536e+07 -8.30334e+06 2.86534e-08 -3.00475e+06 4.05149e-09 4.26549e+06)
(3.89725e+07 1.52583e+07 1.7925e-08 2.79953e+06 4.40437e-08 1.18003e+07)
(4.49762e+07 -5.85545e+06 -3.93401e-09 57771.8 -7.33409e-09 1.33522e+07)
(1.62546e+07 -8.76353e+06 1.76196e-08 2.27933e+06 4.46798e-09 5.52815e+06)
(-4.33151e+06 -956692 2.1171e-08 -1.03123e+07 1.70108e-08 -4.26085e+06)
(3.43234e+07 -2.09422e+06 1.85972e-08 104321 9.77931e-09 1.03498e+07)
(3.87285e+07 -5.24546e+06 7.0087e-08 -7.39318e+06 3.49133e-08 9.20958e+06)
(1.60589e+07 -2.3885e+06 -6.13797e-10 607275 -1.39361e-09 4.94125e+06)
(4.17408e+06 -5.19849e+06 2.18543e-08 -7.24816e+06 6.39953e-09 -977663)
(4.37368e+07 -1.48845e+06 8.82298e-08 -2.09929e+07 8.35586e-08 1.06104e+07)
(1.37053e+07 -933399 -4.86101e-09 1.02088e+06 -2.22508e-09 4.42311e+06)
(3.54658e+06 -3.55316e+06 1.17751e-08 4.58717e+06 -3.53682e-09 2.51656e+06)
(3.69974e+06 -3.51194e+06 3.24157e-09 4.62838e+06 -1.1107e-09 2.39148e+06)
(2.88598e+06 -6.70833e+06 -1.03832e-08 1.69186e+06 5.61901e-10 1.40536e+06)
(6.4958e+07 1.26516e+07 2.79649e-08 -1.0498e+07 4.36736e-08 1.85832e+07)
(3.23573e+06 -6.71364e+06 -1.05706e-08 1.65331e+06 5.86415e-10 1.38917e+06)
(1.3324e+07 -2.81801e+06 2.68009e-10 4.20502e+06 -1.33035e-10 5.28035e+06)
(1.33445e+07 -2.86649e+06 1.2337e-08 4.15667e+06 2.26791e-09 5.22658e+06)
(1.06107e+07 -5.60913e+06 1.12027e-08 4.47141e+06 -7.43459e-10 4.47743e+06)
(1.07106e+07 -3.84123e+06 -1.70878e-09 5.20335e+06 2.33833e-10 4.84477e+06)
(2.16497e+06 -1.05758e+07 0 -1.27818e+07 0 -3.50145e+06)
(8.69432e+06 -8.59871e+06 -1.5064e-08 -276901 8.83204e-10 2.39691e+06)
(1.32852e+07 -1.36215e+06 0 6.19422e+06 0 5.74694e+06)
(1.87504e+07 -8.07278e+06 2.27842e-09 1.80645e+06 5.18463e-10 6.11419e+06)
(1.65901e+07 -5.68977e+06 -9.96463e-10 1.75513e+06 2.99346e-09 5.49013e+06)
(2.4145e+07 -1.52829e+06 1.51716e-08 71477.4 3.49269e-09 7.05459e+06)
(9.688e+06 -4.40485e+06 -2.28969e-09 5.111e+06 1.26321e-10 4.41242e+06)
(4.97365e+07 2.2128e+06 -1.46167e-08 -1.93788e+07 3.69715e-08 1.31792e+07)
(-1.78522e+07 1.67541e+07 -9.00195e-09 -1.72444e+07 -9.93851e-09 -9.79553e+06)
(1.59446e+07 -5.12564e+06 -6.09641e-09 1.8258e+06 6.45557e-10 5.33425e+06)
(4.61048e+07 -4.48083e+06 -5.81825e-09 -195149 -4.15063e-09 1.41794e+07)
(5.93877e+06 -6.23476e+06 6.90403e-09 4.017e+06 -3.32419e-10 3.10842e+06)
(3.19848e+07 -4.79766e+06 -4.133e-09 353993 -6.24662e-09 9.76751e+06)
(6.79791e+07 1.42312e+07 3.02732e-08 -9.65267e+06 -1.83008e-08 1.92264e+07)
(9.6428e+06 -5.94795e+06 3.67287e-10 4.38094e+06 9.10401e-10 4.39524e+06)
(9.79456e+06 -5.88835e+06 4.453e-09 4.52379e+06 -1.81146e-10 4.14694e+06)
(3.29035e+07 -1.02089e+07 5.39256e-08 -2.45463e+07 3.51055e-08 5.43379e+06)
(2.15516e+07 -9.57857e+06 -3.57705e-08 -807364 1.33962e-08 6.34959e+06)
(1.02257e+07 -6.13015e+06 9.73644e-09 4.36901e+06 4.05589e-10 4.31798e+06)
(1.33679e+07 -1.86869e+06 2.44289e-09 4.54635e+06 1.25676e-09 5.34926e+06)
(5.61583e+06 -5.08273e+06 4.34849e-09 4.63164e+06 -6.79947e-10 3.1306e+06)
(5.89856e+06 -5.14854e+06 -7.71158e-10 4.58779e+06 1.16108e-10 3.08023e+06)
(1.59687e+07 -7.01595e+06 -9.28773e-09 2.26054e+06 1.76535e-10 5.52249e+06)
(5.19342e+07 1.30004e+07 -6.62065e-09 -1.67099e+06 -5.63523e-09 1.49982e+07)
(5.15284e+07 1.3694e+07 1.51939e-08 -1.59903e+06 3.95152e-08 1.43989e+07)
(-7.82873e+07 -8.45379e+06 -7.1785e-08 5.91429e+06 -6.85625e-08 1.20502e+07)
(1.16117e+07 -7.29303e+06 9.48833e-09 3.64481e+06 1.40327e-09 4.62499e+06)
(-7.63284e+07 -1.29208e+07 4.1852e-08 8.37515e+06 2.30544e-08 1.08273e+07)
(1.40333e+07 -3.75737e+06 1.37029e-10 2.80839e+06 1.83147e-10 5.07339e+06)
(1.11823e+07 -3.77688e+06 3.59454e-09 5.18789e+06 -4.18976e-10 4.92516e+06)
(1.31273e+07 -693645 -3.83065e-09 8.17612e+06 4.15527e-10 6.39559e+06)
(1.30798e+07 -694224 -4.75852e-10 8.2132e+06 -1.21149e-09 6.3673e+06)
(1.64455e+07 -7.85088e+06 -4.64088e-08 -5.62522e+06 3.99785e-09 3.39569e+06)
(6.92256e+06 -296844 -1.64719e-09 5.80698e+06 1.07418e-09 3.9017e+06)
(2.41749e+07 -4.00305e+06 -1.28929e-08 337843 -2.55068e-10 7.32256e+06)
(2.38984e+07 -4.02008e+06 1.23863e-09 348498 6.23804e-09 7.38413e+06)
(-2.50662e+06 163592 1.3817e-08 -3.43432e+07 1.20756e-08 -1.09061e+07)
(2.77717e+07 -2.90828e+06 -2.1293e-08 138696 1.82401e-09 8.4504e+06)
(3.88559e+07 -1.55153e+07 -7.35002e-09 -1.59308e+07 -3.65864e-08 2.02482e+07)
(1.26414e+06 -1.3886e+06 0 4.00117e+06 0 1.49893e+06)
(1.40277e+07 -5.40469e+06 -6.43851e-09 2.9876e+06 -1.98257e-09 5.09264e+06)
(6.82132e+06 -7.95967e+06 3.38201e-10 2.76142e+06 -7.54635e-10 2.80453e+06)
(1.33573e+07 -600854 1.09919e-08 2.84159e+06 5.63559e-09 4.96116e+06)
(6.20063e+07 -1.05195e+06 -1.57891e-09 -4480.28 -9.06723e-09 2.0033e+07)
(3.11447e+07 -9.06713e+06 1.41804e-09 122685 7.46384e-09 9.57341e+06)
(1.88654e+07 -8.08553e+06 -1.65604e-08 1.75167e+06 -7.86763e-09 6.24171e+06)
(4.71576e+07 -3.40019e+06 -5.97015e-09 -97356.4 -3.01005e-09 1.37161e+07)
(1.10605e+07 -1.78795e+06 0 6.14426e+06 0 5.1232e+06)
(1.10424e+07 -1.75419e+06 3.96903e-09 6.13716e+06 -6.00625e-11 5.16262e+06)
(-8.12693e+06 7.25538e+06 -2.85298e-10 -1.67798e+07 -3.08057e-08 -7.88962e+06)
(4.54362e+07 1.65486e+07 9.46551e-10 2.95226e+06 -3.11143e-08 1.40525e+07)
(5.8992e+07 -189754 1.34691e-09 -3.19351e+06 -2.60487e-08 1.68604e+07)
(5.95631e+07 478387 4.03077e-08 -2.6516e+06 3.13749e-08 1.70353e+07)
(1.61496e+07 -3.40556e+06 7.66328e-09 1.06665e+06 3.19286e-09 5.10689e+06)
(1.296e+07 -4.02321e+06 2.74516e-09 4.14361e+06 -1.21983e-10 5.14556e+06)
(1.55315e+07 -8.14449e+06 -9.24376e-11 2.47535e+06 8.18319e-11 5.47566e+06)
(1.33459e+07 -863597 4.39014e-09 4.21776e+06 3.49721e-09 5.27235e+06)
(1.13191e+07 -3.79635e+06 -7.6765e-11 5.14726e+06 -1.06039e-10 4.92359e+06)
(4.58218e+07 -3.69316e+06 -2.47524e-08 -207509 -1.37469e-08 1.42341e+07)
(1.50239e+07 -579730 -1.37358e-08 62434.7 -2.99594e-09 4.48427e+06)
(7.31246e+06 -4.21192e+06 6.39799e-10 5.17016e+06 -1.56008e-10 3.77533e+06)
(1.3337e+07 -924289 5.10783e-10 6.53585e+06 -2.86682e-09 5.95922e+06)
(1.33033e+07 -1.00005e+06 -4.91465e-09 6.60772e+06 -9.06192e-10 5.94582e+06)
(1.59403e+07 -2.12381e+06 7.68289e-09 491251 -1.14989e-09 4.89151e+06)
(1.58543e+07 -2.20847e+06 -2.51629e-09 531654 1.21827e-09 4.97706e+06)
(1.72525e+07 -8.1674e+06 -5.48045e-08 -3.62951e+06 -2.87363e-09 4.0542e+06)
(1.23399e+07 -2.0601e+06 0 6.27468e+06 0 5.55331e+06)
(1.15515e+07 -4.0043e+06 -5.22539e-10 4.98094e+06 1.91873e-10 4.97713e+06)
(1.15995e+07 -3.92637e+06 3.58394e-09 5.02054e+06 -7.57867e-11 4.97935e+06)
(5.73288e+07 1.94459e+07 2.88029e-08 3.21729e+06 1.761e-08 1.84754e+07)
(1.14073e+07 -3.44435e+06 1.4582e-09 5.32954e+06 -1.7917e-10 4.98109e+06)
(1.75681e+07 -3.80976e+06 9.47968e-09 746902 -2.76331e-09 5.59664e+06)
(3.1457e+06 -4.28395e+06 3.6975e-09 4.06576e+06 -8.83499e-10 2.20238e+06)
(3.35973e+06 -4.42484e+06 -7.12283e-09 4.17526e+06 2.05668e-09 2.18647e+06)
(1.94432e+07 -9.66793e+06 -1.70298e-09 1.53014e+06 -5.66727e-10 6.1856e+06)
(-3.26786e+06 -2.56879e+06 -7.87945e-09 -7.28925e+06 -5.17132e-09 -3.15129e+06)
(3.21423e+07 -1.09329e+06 -7.9937e-09 -79221.4 -4.63487e-09 9.95508e+06)
(3.21549e+07 -881294 5.30191e-09 74811.2 7.64247e-09 9.38741e+06)
(1.34898e+07 -2.07816e+06 -5.87196e-09 3.46847e+06 -1.95747e-09 5.07654e+06)
(6.86545e+06 -7.95664e+06 -1.774e-09 2.72569e+06 -1.02182e-09 2.95001e+06)
(-3.7545e+06 -2.53283e+06 -4.28202e-09 -5.18202e+06 -3.45665e-09 -2.71939e+06)
(2.90266e+07 -7.01036e+06 -6.76668e-08 -9.69833e+06 -3.39487e-08 5.88191e+06)
(1.86826e+07 -3.8285e+06 5.36646e-09 674875 -3.33646e-09 5.76449e+06)
(2.55726e+07 -2.14491e+06 5.4894e-09 118763 -1.55024e-09 7.64954e+06)
(2.53273e+07 -1.91004e+06 6.06348e-09 59134.5 -1.62371e-09 7.73445e+06)
(1.74134e+07 -9.2953e+06 8.36049e-09 1.94106e+06 1.5253e-09 5.72067e+06)
(1.68732e+07 -9.18017e+06 -7.03295e-09 2.07455e+06 -1.39275e-09 5.68636e+06)
(-3.22805e+06 -1.22868e+06 2.22072e-09 -901248 1.86955e-10 -1.30594e+06)
(1.34107e+07 -363847 -8.01303e-09 2.71415e+06 -4.41743e-09 4.79033e+06)
(1.22603e+07 -771255 -7.22294e-09 6.9939e+06 -1.26783e-09 5.77072e+06)
(3.02052e+07 -1.83953e+07 5.95517e-09 1.93488e+07 -1.86253e-08 7.12198e+07)
(4.93892e+07 -4.5465e+06 4.62873e-08 27250 2.35427e-08 1.50802e+07)
(9.66642e+06 -4.43946e+06 3.59079e-09 5.04049e+06 -1.98784e-10 4.45162e+06)
(1.20214e+07 -8.1893e+06 -7.51206e-09 3.16338e+06 -9.69516e-10 4.63035e+06)
(-5.70651e+06 329674 1.9205e-09 -1.72682e+07 7.20435e-09 -6.80159e+06)
(1.00033e+07 -5.7635e+06 -4.63268e-10 4.49087e+06 5.83637e-11 4.36803e+06)
(9.83325e+06 -5.73338e+06 -1.44275e-09 4.53361e+06 -2.90638e-10 4.30931e+06)
(738477 -1.97982e+06 1.50872e-09 3.60843e+06 -8.33881e-10 1.47715e+06)
(2.29399e+07 -3.55094e+06 2.45361e-10 346241 -2.83288e-09 6.83622e+06)
(1.33554e+07 -160397 -7.96828e-10 752764 -4.08829e-10 4.21424e+06)
(-5.00028e+06 1.21796e+06 -1.94615e-09 -2.33053e+07 -3.30708e-09 -8.74492e+06)
(5.25087e+07 -1.09317e+07 -2.17084e-08 -4.78351e+06 1.58049e-08 3.08299e+07)
(1.25128e+07 -459100 -2.78589e-09 7.38628e+06 1.87524e-10 5.95794e+06)
(3.00621e+07 -6.2638e+06 7.42604e-08 -9.698e+06 2.11178e-08 6.00334e+06)
(9.98189e+07 1.26765e+07 4.8672e-08 3.20147e+07 3.90372e-08 3.99197e+07)
(1.37742e+07 -2.16762e+06 0 2.39765e+06 0 4.89726e+06)
(-1.93923e+06 -2.89254e+06 0 78905 0 -577355)
(6.22344e+07 -3.05338e+06 -4.10532e-08 -349468 -3.66075e-08 1.85659e+07)
(1.26438e+07 -4.50284e+06 5.34208e-09 4.11176e+06 1.22778e-10 5.10639e+06)
(5.34278e+07 1.81616e+06 -1.21993e-09 -1.46541e+07 2.25397e-08 1.82605e+07)
(6.20233e+07 -3.00942e+06 -3.15271e-08 -95256.8 -2.3914e-08 1.89663e+07)
(1.10811e+07 -8.45995e+06 -1.31151e-08 3.15998e+06 -9.54756e-10 4.31453e+06)
(7.07675e+07 1.46797e+07 -2.11721e-08 1.63609e+07 -1.95705e-08 2.61156e+07)
(-5.61547e+06 -229634 -1.46104e-09 -9.50626e+06 -1.96474e-09 -4.4486e+06)
(6.24107e+06 -6.36704e+06 1.05603e-09 4.08718e+06 -2.43961e-10 2.98162e+06)
(9.44358e+06 -2.90747e+06 3.30401e-09 5.60264e+06 -5.96169e-10 4.44232e+06)
(1.41687e+07 -7.095e+06 1.07196e-08 -6.9796e+06 2.54751e-08 1.84141e+06)
(1.33393e+07 -512949 9.7828e-09 6.81418e+06 3.40565e-09 6.13617e+06)
(1.3334e+07 -647412 -3.79126e-09 6.93946e+06 -1.64848e-09 6.02412e+06)
(2.60822e+07 -7.97301e+06 1.11665e-10 857608 -3.13682e-10 8.24066e+06)
(1.33531e+07 -38034.7 3.02801e-09 9.62332e+06 5.85341e-10 6.8877e+06)
(1.3334e+07 45085.6 4.792e-09 2935.98 3.51909e-09 3.99441e+06)
(1.89922e+07 -9.98282e+06 -7.47936e-09 600337 -9.61947e-09 5.77919e+06)
(1.31447e+07 -2.20116e+06 -2.39137e-09 5.40548e+06 7.68024e-12 5.52612e+06)
(1.31445e+07 -2.19157e+06 -1.47164e-09 5.35292e+06 -8.88095e-10 5.59845e+06)
(1.76372e+07 -2.01205e+06 3.49278e-09 254583 -4.04679e-09 5.33671e+06)
(-3.47382e+06 -2.17782e+06 9.81146e-09 -8.28253e+06 3.00239e-09 -3.65469e+06)
(3.00802e+07 -2.11884e+06 -7.89503e-09 181641 -4.12372e-09 8.82961e+06)
(1.60414e+07 -4.57784e+06 -2.28082e-09 1.5899e+06 2.59378e-09 5.31342e+06)
(3.68541e+07 -4.21169e+06 2.75458e-08 226714 1.06265e-08 1.12586e+07)
(9.29413e+06 -5.45951e+06 6.66637e-09 4.68789e+06 -9.89941e-10 4.26716e+06)
(9.34553e+06 -5.44352e+06 -7.76125e-09 4.71152e+06 1.56178e-10 4.17667e+06)
(3.7706e+07 -3.85988e+06 4.48364e-09 54472.7 -2.87251e-10 1.12628e+07)
(2.97189e+07 -4.88234e+06 -5.15348e-09 224773 2.69731e-09 9.16837e+06)
(3.02241e+07 -4.74239e+06 -6.5897e-09 350677 -4.21061e-09 8.94154e+06)
(-3.92509e+06 -1.36818e+06 0 -2.32744e+06 0 -1.85776e+06)
(1.20647e+07 -230073 -4.23236e-09 7.01673e+06 -7.55739e-11 5.72114e+06)
(1.18673e+07 -3.54703e+06 -7.91302e-09 5.14151e+06 1.46143e-10 5.10831e+06)
(8.28714e+07 4.0471e+06 7.68969e-08 1.12932e+07 6.40688e-08 3.71703e+07)
(1.30887e+07 -4.35803e+06 -1.65405e-09 3.86376e+06 -5.66713e-10 5.09549e+06)
(1.5588e+07 -8.89126e+06 7.21209e-09 -1.23041e+06 9.78676e-09 4.31983e+06)
(1.27429e+07 -9.1713e+06 -5.82598e-09 2.54684e+06 -1.59627e-09 4.55549e+06)
(1.27711e+07 -1.17992e+06 1.15375e-09 7.31649e+06 -7.37902e-10 6.05168e+06)
(1.22816e+07 -2.41653e+06 1.63511e-09 5.96645e+06 -3.51537e-10 5.39106e+06)
(1.22542e+07 -2.45035e+06 -4.9859e-09 5.93185e+06 -4.47108e-10 5.5603e+06)
(1.26262e+07 -4.65804e+06 0 4.07483e+06 0 5.06055e+06)
(1.65274e+07 -8.9148e+06 -4.0269e-08 -1.4763e+06 -1.95571e-08 4.42216e+06)
(2.26341e+07 -3.17435e+06 8.96251e-09 182975 -6.20439e-09 6.92086e+06)
(1.49096e+07 -9.80352e+06 7.73335e-10 1.76257e+06 1.28717e-09 5.08065e+06)
(-3.99545e+06 -1.10598e+06 1.20602e-09 -2.39674e+06 -2.72658e-10 -1.95016e+06)
(6.63955e+07 1.40256e+07 2.17721e-08 1.66612e+07 2.12662e-08 2.49336e+07)
(4.19888e+07 -6.62483e+06 -2.1483e-09 -697900 -1.41702e-08 1.23988e+07)
(2.15655e+07 -7.66405e+06 0 1.38322e+06 0 6.99671e+06)
(2.15865e+07 -7.81391e+06 1.00064e-08 1.31392e+06 -2.42892e-09 6.74857e+06)
(1.40332e+07 -216703 -5.11793e-09 -17942 -3.90987e-09 4.25271e+06)
(1.34072e+07 -316491 6.5043e-09 887017 3.55748e-09 4.2153e+06)
(605424 -5.56976e+06 -1.254e-08 -3.00689e+06 -1.28904e-09 -799020)
(6.17453e+07 1.81399e+07 -2.64373e-08 -5.476e+06 -5.10974e-08 1.65368e+07)
(-4.54756e+06 4.75715e+06 -6.55356e-09 -2.93438e+07 -2.10696e-08 -9.59363e+06)
(1.2254e+07 -746156 -3.72564e-10 7.08673e+06 5.65232e-11 5.84059e+06)
(1.5724e+07 -2.24655e+06 6.4958e-10 578704 2.06562e-09 4.93244e+06)
(4.29685e+07 -931967 1.46982e-08 -90125.3 8.94222e-09 1.27339e+07)
(1.34547e+07 -2.08515e+06 -1.55801e-09 3.86016e+06 -8.23361e-10 5.15373e+06)
(1.92672e+06 -5.30478e+06 -3.68403e-09 2.69166e+06 -3.63583e-10 1.4214e+06)
(6.61148e+07 1.5333e+07 0 1.39164e+07 0 2.43464e+07)
(1.62163e+07 -2.76363e+06 -8.67408e-09 681233 4.47949e-10 5.12234e+06)
(1.63051e+07 -2.85622e+06 -6.23791e-09 762488 1.55822e-09 5.05524e+06)
(3.98495e+07 -6.12176e+06 -2.32788e-08 -3.47952e+06 -2.96009e-08 1.06095e+07)
(1.52518e+07 -6.25379e+06 7.86131e-09 2.4313e+06 6.8399e-10 5.25191e+06)
(1.53074e+07 -3.96737e+06 6.92497e-09 1.68952e+06 -6.61318e-10 5.16713e+06)
(2.04864e+07 -7.21609e+06 0 1.36615e+06 0 6.59496e+06)
(1.26367e+07 -1.02216e+06 -3.5343e-09 7.28313e+06 1.13946e-09 5.93616e+06)
(1.14052e+07 -3.40172e+06 -3.79272e-09 5.37859e+06 2.44398e-10 5.04115e+06)
(1.32312e+07 -474837 5.94451e-09 8.86378e+06 -2.80305e-10 6.66073e+06)
(1.05598e+08 1.1515e+07 -3.00895e-08 3.48948e+07 -2.97484e-08 4.43162e+07)
(1.16635e+07 -9.49239e+06 -1.01871e-08 1.36088e+06 -4.01993e-09 3.87942e+06)
(1.08156e+07 -8.33661e+06 -3.57566e-09 3.27292e+06 -1.19776e-10 4.14465e+06)
(-5.4167e+06 423435 -9.2436e-10 -2.05517e+07 -1.15995e-08 -7.49099e+06)
(9.15732e+07 3.46723e+06 -3.02104e-09 1.96632e+07 -4.40202e-09 4.28418e+07)
(1.76321e+07 -9.89694e+06 -4.87426e-10 1.55394e+06 -2.14653e-09 5.73581e+06)
(8.37464e+06 -5.28816e+06 -1.10131e-08 4.82661e+06 1.41841e-09 3.93039e+06)
(3.24098e+07 -7.30908e+06 1.66312e-08 -5.09505e+06 -8.32179e-09 8.52916e+06)
(1.0247e+07 -8.21356e+06 -5.57994e-09 3.35155e+06 -1.84242e-10 4.02378e+06)
(179959 -597447 -5.69185e-10 3.21744e+06 1.05064e-10 960157)
(1.24012e+07 -3.59611e+06 -9.05881e-09 4.92488e+06 -1.59776e-10 5.1998e+06)
(3.15365e+07 -1.12482e+07 1.00121e-07 -2.55756e+07 8.99455e-08 4.772e+06)
(3.02353e+07 -2.35078e+06 -8.3246e-09 41803.6 -3.0177e-10 9.18877e+06)
(3.0659e+07 -1.98604e+06 -1.20264e-09 138447 -4.38268e-09 9.20756e+06)
(1.3453e+07 -2.92254e+06 1.11293e-08 3.86332e+06 1.99721e-09 5.18408e+06)
(1.3388e+07 -2.9277e+06 -3.57837e-09 3.93747e+06 -6.3294e-10 5.23571e+06)
(4.21946e+07 -1.48165e+06 -3.15157e-08 42643.1 -1.39777e-08 1.26749e+07)
(2.14003e+07 -3.33293e+06 1.10626e-08 270705 2.72161e-09 6.4487e+06)
(1.76981e+07 -7.97758e+06 -8.34467e-10 1.97007e+06 1.35932e-10 5.8671e+06)
(1.31301e+07 -2.09998e+06 2.4178e-09 5.64632e+06 5.78898e-12 5.58751e+06)
(1.38301e+07 -2.27363e+06 4.17654e-09 2.4416e+06 1.16466e-09 4.88639e+06)
(2.73161e+07 -1.66413e+06 6.34764e-09 112318 -2.1317e-09 8.05017e+06)
(-4.80671e+06 2.64007e+06 -2.55513e-09 -2.55531e+07 -5.02479e-09 -9.05604e+06)
(1.65234e+07 -7.69455e+06 0 -5.57562e+06 0 3.38569e+06)
(1.10876e+07 -8.69128e+06 -6.36134e-09 -1.34927e+06 -9.36386e-09 2.99755e+06)
(7.20531e+06 -4.10707e+06 4.01278e-09 5.16845e+06 -7.63341e-10 3.69532e+06)
(1.67525e+06 -6.32542e+06 7.56236e-09 -1.94413e+06 -2.0304e-09 -97651.1)
(1.72013e+07 -7.43861e+06 4.2555e-08 -5.56172e+06 -8.58531e-09 3.42171e+06)
(1.23581e+07 -2.74945e+06 2.40089e-09 5.69421e+06 -1.30018e-10 5.36169e+06)
(1.23715e+07 -2.75111e+06 -3.95896e-09 5.65663e+06 2.63988e-10 5.45659e+06)
(-6.53768e+06 5.05323e+06 2.01477e-09 -1.74255e+07 -1.02358e-08 -7.06973e+06)
(-1.56403e+06 -4.32721e+06 -1.16685e-09 -3.79815e+06 4.65508e-09 -1.59574e+06)
(-2.74344e+06 -2.05092e+06 -6.02607e-09 -348787 1.58724e-09 -787595)
(2.20815e+07 -2.17284e+06 8.70825e-09 199868 -3.13924e-09 6.48584e+06)
(2.16648e+07 -2.31607e+06 0 119475 0 6.6947e+06)
(4.94828e+07 -3.40995e+06 -6.93742e-08 -4.866e+06 -4.29977e-08 1.36736e+07)
(4.92581e+07 -3.35263e+06 6.63737e-08 -4.41722e+06 7.01784e-08 1.3238e+07)
(1.64904e+07 -8.68797e+06 -3.81698e-08 -1.65922e+06 -1.50391e-08 4.26839e+06)
(1.7436e+06 -6.16246e+06 -1.96543e-08 -1.87396e+06 -3.1848e-09 25331)
(1.36002e+07 -8.67884e+06 -9.40924e-09 2.82794e+06 -1.34765e-09 4.83323e+06)
(-1.63299e+06 -2.98496e+06 -2.55335e-08 -7.20434e+06 -1.23508e-08 -2.82271e+06)
(1.18576e+07 -4.76077e+06 -7.46688e-09 4.48983e+06 3.9301e-10 4.83829e+06)
(3.4752e+07 -793465 2.3112e-08 -39959.4 1.58582e-08 1.06293e+07)
(1.75741e+07 -9.80429e+06 -1.15631e-08 1.67658e+06 -3.50255e-09 5.77696e+06)
(1.60537e+07 -9.08664e+06 -8.70724e-09 2.2927e+06 -1.23104e-09 5.37384e+06)
(3.36854e+07 -1.54865e+07 -1.56254e-08 -1.89657e+07 -2.20765e-08 1.25841e+07)
(-1.70041e+06 -4.32926e+06 7.06266e-09 -3.68927e+06 3.99991e-09 -1.61461e+06)
(1.51415e+07 -5.72268e+06 -2.34086e-09 2.34116e+06 2.45772e-09 5.31367e+06)
(-5.15719e+06 1.20728e+06 1.29707e-09 -2.14898e+07 6.26844e-09 -7.9968e+06)
(-5.18967e+06 1.06469e+06 8.95722e-10 -2.17291e+07 -1.34288e-09 -8.30355e+06)
(1.4864e+07 -7.62634e+06 6.29825e-08 -5.86976e+06 3.2043e-09 2.65375e+06)
(1.58271e+07 -9.64203e+06 1.52904e-08 2.07781e+06 2.31104e-09 5.36678e+06)
(5.1186e+07 -1.26788e+07 4.77231e-08 -7.16259e+06 3.73429e-08 2.92162e+07)
(-1.79583e+07 2.00807e+06 0 -8.68235e+06 0 -8.02048e+06)
(-1.71919e+07 2.77687e+06 1.82716e-08 -9.40407e+06 1.19515e-08 -7.39472e+06)
(2.3568e+07 -9.4081e+06 -2.624e-08 1.08203e+06 -7.52684e-09 7.34492e+06)
(1.17332e+08 1.81638e+06 6.47061e-09 4.81321e+07 2.24435e-09 5.42501e+07)
(1.33868e+07 -534914 4.41474e-09 2.96831e+06 1.30692e-09 4.85456e+06)
(2.15629e+06 -6.67164e+06 1.93951e-09 -252116 -3.02378e-09 569963)
(2.61322e+06 -6.7296e+06 6.55656e-09 -287534 -6.14974e-09 654750)
(-5.67972e+06 509363 -9.82444e-10 -1.5712e+07 -2.97929e-10 -6.56824e+06)
(1.30808e+07 -7.74881e+06 1.73423e-09 -1.01113e+07 4.62084e-09 876940)
(1.30493e+07 -7.1471e+06 4.37798e-08 -9.21948e+06 4.51812e-09 1.07632e+06)
(1.47013e+07 -6.18738e+06 -2.65596e-09 2.72328e+06 9.58456e-10 5.14617e+06)
(3.14233e+07 -9.17412e+06 2.14085e-08 367663 3.24765e-09 9.32436e+06)
(1.65485e+07 -9.33972e+06 0 2.08943e+06 0 5.62596e+06)
(1.39335e+07 -6.25341e+06 5.96281e-09 3.02295e+06 -5.8835e-10 5.05244e+06)
(1.20612e+07 -226747 -1.70002e-09 7.00503e+06 7.78766e-11 5.71655e+06)
(1.41305e+07 -1.35253e+06 -1.17029e-10 954434 -2.01986e-10 4.55824e+06)
(1.04113e+07 -4.26578e+06 -4.51709e-09 5.09167e+06 3.4285e-10 4.56926e+06)
(1.57928e+07 -1.53989e+06 7.0038e-09 316177 3.3838e-09 4.86341e+06)
(-3.68566e+06 -2.38503e+06 1.04372e-08 -7.30091e+06 1.20688e-08 -3.30114e+06)
(541084 -3.39975e+06 -5.04609e-09 -6.71122e+06 9.68322e-09 -1.83577e+06)
(-7.15007e+06 7.02222e+06 6.20968e-09 -2.086e+07 4.12838e-09 -8.50366e+06)
(7.55498e+06 -8.51447e+06 -9.64349e-09 2.0878e+06 5.22487e-10 2.92554e+06)
(1.57633e+07 -9.87844e+06 4.63567e-08 -1.61365e+07 3.71031e-08 307873)
(2.53213e+06 -3.50202e+06 -3.25506e-10 4.16528e+06 4.32458e-11 2.10916e+06)
(1.72815e+07 -9.59742e+06 -2.88625e-08 -1.62679e+07 -1.06809e-08 -154824)
(2.00399e+07 -1.41924e+06 1.33486e-08 97703.5 4.39725e-10 5.95293e+06)
(-7.16793e+06 6.88444e+06 -1.74244e-08 -2.02637e+07 -2.77443e-08 -8.04677e+06)
(1.48255e+07 -3.54033e+06 -1.70719e-10 1.95453e+06 -2.86894e-10 4.94837e+06)
(8.34113e+06 -5.32802e+06 -1.92066e-09 4.76895e+06 5.46068e-10 4.00711e+06)
(1.44243e+07 -3.98687e+06 -1.00432e-09 2.43239e+06 -4.68778e-10 5.12937e+06)
(2.76881e+07 -8.1197e+06 2.87413e-09 789981 1.19647e-09 8.57782e+06)
(1.34289e+07 -2.59761e+06 -4.14795e-09 3.65254e+06 -1.02291e-09 5.23599e+06)
(1.32761e+07 -64092.3 9.75649e-10 9.66479e+06 -6.74267e-11 6.8702e+06)
(1.33087e+07 32460.4 -1.9982e-09 1723.8 8.6215e-10 3.99828e+06)
(1.16218e+07 -9.62669e+06 1.02291e-09 1.34984e+06 -4.44564e-10 3.98353e+06)
(7.18017e+06 -8.4558e+06 1.14857e-09 935989 -4.87789e-09 2.41307e+06)
(1.19286e+07 -8.22123e+06 -6.40914e-09 3.28727e+06 -6.20964e-10 4.50466e+06)
(-9.95325e+06 -2.84024e+06 0 -9.09802e+06 0 -6.21132e+06)
(1.27866e+07 -861444 5.26268e-10 7.56771e+06 -6.22952e-10 6.08206e+06)
(1.36642e+07 -1.54346e+06 -3.14989e-09 2.09185e+06 -1.47586e-09 4.70763e+06)
(1.2389e+07 -305449 -4.27623e-09 7.25221e+06 1.28381e-09 5.82206e+06)
(-615844 -1.78271e+06 8.07323e-10 2.63012e+06 -4.40456e-10 612303)
(-372109 -1.63308e+06 -6.74643e-10 2.63019e+06 4.61743e-10 578118)
(1.1017e+07 -2.62478e+06 -5.54027e-09 5.79373e+06 5.20163e-10 5.06593e+06)
(1.95983e+07 -2.15184e+06 -4.55824e-09 167647 1.73274e-09 5.94587e+06)
(1.94819e+07 -2.23383e+06 -4.50523e-09 178464 1.57322e-09 5.87579e+06)
(6.20636e+07 -1.11722e+06 -2.09334e-08 202868 -7.3219e-09 2.04771e+07)
(6.29786e+06 -4.05212e+06 1.57219e-09 5.04222e+06 -3.5555e-10 3.41028e+06)
(7.5459e+06 -2.61625e+06 5.20769e-09 5.57577e+06 -1.27691e-09 3.98026e+06)
(2.2295e+07 -9.34314e+06 -3.60031e-08 -1.13221e+06 -2.13046e-08 6.40204e+06)
(2.23602e+07 -9.17053e+06 5.23565e-09 -1.08868e+06 -6.1046e-09 6.24395e+06)
(1.26534e+07 -1.16235e+06 -1.47305e-09 7.13545e+06 2.49001e-10 5.93316e+06)
(-5.4915e+06 1.55327e+06 2.03178e-08 -1.45399e+07 6.76601e-09 -5.82979e+06)
(-1.17314e+07 1.64581e+07 7.84545e-09 -2.3754e+07 -1.4934e-08 -1.13169e+07)
(1.65402e+07 -8.5708e+06 -5.69702e-10 2.25539e+06 -7.8736e-10 5.69991e+06)
(1.65768e+07 -8.61811e+06 -1.55815e-08 2.24346e+06 -2.41256e-09 5.57624e+06)
(6.95109e+07 2.03543e+07 -1.70106e-08 6.333e+06 -7.18897e-09 2.18224e+07)
(1.34856e+07 -785357 -2.73891e-11 1.79562e+06 -9.83715e-11 4.55592e+06)
(1.99737e+07 -1.15761e+07 2.01051e-09 -1.99302e+07 -5.72777e-09 -3441.12)
(-4.1946e+06 533705 1.17508e-08 -1.09386e+07 5.16549e-09 -4.29341e+06)
(1.14964e+08 5.53659e+06 -4.38721e-08 4.45975e+07 -1.77582e-08 4.99971e+07)
(1.16344e+08 1.25938e+06 9.67985e-08 4.72076e+07 3.53408e-08 5.30425e+07)
(3.29148e+07 -8.05602e+06 -2.68486e-08 347521 -1.22277e-08 1.00343e+07)
(-3.75251e+07 -3.32404e+07 4.68832e-08 1.77153e+07 4.44152e-08 1.73108e+07)
(1.82578e+07 -9.90787e+06 5.17833e-09 -16227.5 1.12249e-09 5.44247e+06)
(-3.65173e+07 -3.0232e+07 5.61756e-08 1.07188e+07 4.98063e-08 2.62404e+07)
(1.58881e+07 -8.97848e+06 -3.1395e-08 -1.7706e+06 -1.85546e-08 4.21494e+06)
(-3.23217e+06 -2.71983e+06 6.70743e-10 -2.58142e+06 5.62902e-09 -1.78609e+06)
(1.0565e+07 -6.72266e+06 0 4.08573e+06 0 4.30189e+06)
(1.02876e+07 -6.65465e+06 0 4.08177e+06 0 4.38522e+06)
(-4.83856e+07 2.92449e+06 -1.52999e-08 -3.7584e+06 -1.39745e-08 -1.74982e+07)
(30540.5 -3.35723e+06 1.64659e-08 -6.55678e+06 -1.11736e-08 -1.86336e+06)
(1.31034e+07 -7.61082e+06 8.08406e-10 3.20369e+06 9.92309e-10 4.80664e+06)
(2.31545e+07 -7.30371e+06 4.50523e-09 -9.69211e+06 -1.88019e-08 3.84162e+06)
(-3.94044e+06 33107.5 9.86734e-10 -2.18408e+06 -2.35224e-11 -1.80918e+06)
(2.37094e+07 -8.71294e+06 2.94472e-08 -2.70833e+06 2.96066e-08 6.20826e+06)
(-2.59099e+06 -3.17733e+06 -7.4368e-11 -1.56496e+06 2.10711e-09 -1.22163e+06)
(6.87753e+07 1.91775e+07 -2.68074e-08 1.13069e+07 -3.18087e-08 2.41469e+07)
(-4.63001e+06 -1.19187e+06 1.32994e-09 -9.4807e+06 3.10854e-10 -4.18673e+06)
(3.3737e+07 -3.85933e+06 -2.03033e-08 177875 -7.00705e-09 1.02853e+07)
(1.33829e+07 -695170 -1.12173e-09 5.57237e+06 -6.93858e-10 5.67929e+06)
(4.15582e+06 -6.54117e+06 -1.38964e-08 3.08146e+06 2.22934e-10 2.18317e+06)
(4.28234e+06 -6.39985e+06 -3.35663e-09 3.09994e+06 -6.09824e-10 2.20171e+06)
(2.03189e+07 -1.00558e+07 -2.19628e-08 301137 -1.29317e-08 6.05967e+06)
(2.64205e+07 -8.40082e+06 -2.78857e-08 861454 -8.82223e-09 8.22353e+06)
(1.62521e+07 -6.96504e+06 -3.22719e-09 2.19198e+06 1.9222e-09 5.48931e+06)
(1.87338e+07 -7.53166e+06 1.98461e-09 -8.95823e+06 2.43085e-08 3.29297e+06)
(1.17181e+07 -3.55631e+06 -3.7419e-09 5.23171e+06 1.22341e-10 5.09466e+06)
(1.22032e+07 -7.27535e+06 4.60093e-09 3.48216e+06 6.12652e-10 4.76181e+06)
(2.38613e+07 -9.6941e+06 -2.3669e-09 766855 -4.16107e-09 7.38816e+06)
(2.46211e+07 -9.94716e+06 4.22185e-09 605439 4.34894e-09 7.58984e+06)
(5.53261e+07 -4.19374e+06 2.23987e-08 -18747.8 1.86163e-08 1.69332e+07)
(2.99675e+06 -5.02276e+06 6.4363e-09 -5.31784e+06 2.12988e-08 -828716)
(1.33509e+07 -183544 -1.48127e-09 6.92804e+06 1.42764e-09 6.15968e+06)
(2.38428e+07 -9.71918e+06 2.91711e-09 902040 -1.54362e-09 7.5593e+06)
(8.13335e+06 -3.61338e+06 -3.74355e-09 5.34751e+06 7.72412e-10 4.08954e+06)
(5.71094e+07 1.25767e+07 -3.98908e-08 -5.36849e+06 -4.57323e-08 1.51676e+07)
(6.75189e+07 1.758e+07 1.55705e-08 1.0327e+07 3.11821e-08 2.35931e+07)
(1.35096e+07 -9.02557e+06 8.40523e-09 2.62363e+06 9.41254e-10 4.78744e+06)
(2.97292e+07 -5.08402e+06 2.05414e-09 450181 4.9731e-10 8.89969e+06)
(-2.05821e+06 -2.85704e+06 -2.42662e-10 65973.8 1.22677e-09 -505190)
(5.60721e+07 -2.64926e+06 4.91171e-08 -1.80093e+06 8.80785e-09 1.60817e+07)
(-4.31368e+06 -1.17896e+06 0 -9.59191e+06 0 -4.26854e+06)
(-5.74241e+06 7.67854e+06 -1.84789e-09 -2.75574e+07 -1.68577e-08 -9.40587e+06)
(1.30531e+07 -8.86033e+06 1.48904e-08 -1.16845e+06 -1.17192e-08 3.42499e+06)
(1.32403e+07 -9.04191e+06 1.75007e-08 -872638 3.22197e-09 3.78917e+06)
(1.32371e+07 -2.6604e+06 0 4.65607e+06 0 5.30987e+06)
(-6.46694e+06 4.46164e+06 0 -1.65554e+07 0 -6.9803e+06)
(-5.64222e+06 6.75779e+06 -3.4313e-09 -2.59699e+07 -1.27026e-08 -9.79343e+06)
(4.22591e+07 -6.95514e+06 -1.32632e-08 -1.23141e+06 -2.91172e-08 1.23186e+07)
(4.62647e+07 1.76433e+07 -2.32631e-08 3.45025e+06 -8.67259e-08 1.47768e+07)
(1.13887e+06 -508699 -4.42683e-10 4.06233e+06 1.63474e-11 1.63283e+06)
(2.64448e+06 -5.65479e+06 9.27581e-09 2.73881e+06 1.12423e-10 1.56676e+06)
(1.12409e+07 -9.5091e+06 -2.99648e-09 1.11573e+06 -1.6743e-09 3.72876e+06)
(-1.00307e+08 7.52589e+06 -4.47478e-08 -783036 -4.27997e-08 1.36719e+07)
(1.32941e+07 -992237 -7.51603e-11 6.72068e+06 1.45896e-10 5.9959e+06)
(5.26523e+07 3.96766e+06 1.23443e-08 -1.87541e+07 -1.48891e-08 1.40591e+07)
(-4.54924e+06 245087 -1.52937e-08 -9.69811e+06 -1.16303e-08 -4.50618e+06)
(-4.42834e+06 44839.4 1.35603e-08 -9.26963e+06 1.19881e-08 -4.04705e+06)
(3.06361e+07 -6.35928e+06 5.87187e-09 486296 8.14338e-10 9.31044e+06)
(1.42466e+07 -783705 4.24116e-09 327120 1.94644e-09 4.39233e+06)
(2.21869e+07 -6.81751e+06 -1.24777e-09 1.08813e+06 -1.03725e-10 6.90656e+06)
(1.31225e+07 -4.3045e+06 -6.72108e-09 3.85991e+06 2.70121e-10 5.10109e+06)
(1.65119e+07 -2.65974e+06 1.0982e-09 577320 9.01166e-10 5.23654e+06)
(-5.309e+06 2.14251e+06 2.84727e-09 -1.31278e+07 1.6814e-09 -5.44739e+06)
(1.43896e+07 -1.71926e+06 1.36516e-08 1.06383e+06 4.5125e-09 4.61696e+06)
(1.38703e+07 -1.67119e+06 -1.00554e-10 1.66865e+06 7.90742e-11 4.67359e+06)
(3.13282e+07 -4.08244e+06 -1.76287e-09 212612 4.26554e-10 9.21696e+06)
(5.70213e+07 1.32586e+07 2.33593e-08 -5.82225e+06 5.06763e-11 1.55819e+07)
(7.36781e+06 -3.85567e+06 -8.6797e-09 5.32791e+06 1.88156e-09 3.73026e+06)
(-5.0489e+06 -1.08742e+06 5.24608e-09 -7.32178e+06 1.64019e-09 -3.66747e+06)
(3.89417e+07 -7.47073e+06 1.30216e-08 -271912 1.48704e-08 1.16472e+07)
(3.85493e+07 -7.79479e+06 2.15534e-08 -369791 3.10099e-09 1.12227e+07)
(-4.94485e+06 -1.34892e+06 -5.75108e-09 -6.84176e+06 1.69081e-09 -3.58385e+06)
(1.86554e+07 -1.17968e+07 6.54447e-08 -1.93717e+07 1.78662e-08 -373062)
(1.88391e+06 -4.11072e+06 4.33213e-09 3.49983e+06 -8.67281e-10 1.71273e+06)
(6.26517e+06 -3.99572e+06 2.16974e-09 5.17924e+06 -5.19751e-10 3.46152e+06)
(9.42419e+06 -1.82433e+06 -5.15577e-09 5.87458e+06 1.16389e-09 4.5638e+06)
(1.74187e+07 -8.51078e+06 -1.03674e-08 2.056e+06 -1.15283e-09 5.92346e+06)
(1.39708e+07 -713095 -8.10635e-10 475596 6.33109e-10 4.37405e+06)
(-4.39925e+06 -1.36194e+06 -2.89457e-09 -4.20417e+06 -1.04273e-09 -2.58563e+06)
(1.08354e+07 -396334 7.47942e-10 6.37245e+06 7.74074e-10 5.11725e+06)
(1.38217e+07 -328579 9.99726e-09 139654 3.34784e-09 4.14497e+06)
(1.37699e+07 -308362 -1.79885e-09 193814 3.86123e-10 4.20426e+06)