/*--------------------------------*- C++ -*----------------------------------*\
| =========                 |                                                 |
| \\      /  F ield         | OpenFOAM: The Open Source CFD Toolbox           |
|  \\    /   O peration     | Version:  v2012                                 |
|   \\  /    A nd           | Website:  www.openfoam.com                      |
|    \\/     M anipulation  |                                                 |
\*---------------------------------------------------------------------------*/
FoamFile
{
    version     2.0;
    format      ascii;
    class       volSymmTensorField;
    location    "15";
    object      epsilon;
}
// * * * * * * * * * * * * * * * * * * * * * * * * * * * * * * * * * * * * * //

dimensions      [0 0 0 0 0 0 0];


internalField   nonuniform List<symmTensor> 
4000
(
(0.00998363 -0.00039669 -1.93788e-18 -0.00964777 4.07557e-18 1.33826e-32)
(0.00988656 -0.000387203 -3.25146e-20 -0.00934837 5.19662e-18 0)
(0.00965859 -0.000384005 -1.7686e-26 -0.00892163 -5.3863e-24 0)
(0.00935488 -0.000373941 2.98095e-18 -0.0084388 -4.72944e-18 0)
(0.00899404 -0.000361297 -4.38364e-18 -0.00789541 -4.35549e-18 0)
(0.00858166 -0.000348902 6.00893e-20 -0.0073259 2.03513e-18 0)
(0.00814646 -0.000331129 -2.48006e-18 -0.00672372 -4.78286e-21 0)
(0.00767943 -0.000313716 0 -0.00611825 0 0)
(0.00720102 -0.000292143 1.78186e-19 -0.00549044 3.04924e-18 0)
(0.00669613 -0.000268207 2.01431e-18 -0.00486739 1.3908e-18 0)
(0.00618754 -0.000239017 -2.11432e-19 -0.00423299 -2.34959e-18 0)
(0.00566401 -0.000208879 -2.26696e-19 -0.00361945 -2.00815e-18 0)
(0.00514712 -0.00017395 -1.18112e-19 -0.00301229 -8.3513e-19 0)
(0.00463854 -0.000136768 2.38247e-19 -0.00245452 1.35988e-18 0)
(0.00415928 -9.82714e-05 6.58324e-19 -0.00193218 5.84068e-19 0)
(0.00371106 -6.05155e-05 -1.10067e-19 -0.0014839 -4.09976e-19 0)
(0.00331483 -2.42566e-05 -5.16504e-19 -0.00109448 -3.54215e-19 0)
(0.00296648 9.05477e-06 -8.19245e-19 -0.000790002 -3.20362e-19 0)
(0.00268511 4.14903e-05 -3.25677e-19 -0.000551489 -4.92831e-20 0)
(0.0024613 7.28361e-05 -5.13063e-19 -0.000416345 6.03778e-20 0)
(0.00964179 -0.00115042 -3.93463e-19 -0.00929406 2.66045e-18 5.91473e-33)
(0.00954594 -0.00112873 1.57183e-18 -0.00899904 2.32421e-18 0)
(0.0093493 -0.00112191 1.51348e-18 -0.00860136 -4.97513e-18 0)
(0.0090834 -0.0010954 3.03923e-18 -0.00815912 1.94238e-18 0)
(0.00876551 -0.00106253 -4.19281e-18 -0.00765645 3.98489e-19 0)
(0.00837748 -0.00102344 -5.97531e-25 -0.0071133 -7.03483e-24 0)
(0.00795689 -0.00097072 8.94608e-21 -0.00652503 7.82852e-20 0)
(0.00748306 -0.00091463 -2.73328e-18 -0.00591576 -3.2803e-18 0)
(0.00698518 -0.000842169 0 -0.00527191 0 0)
(0.00645776 -0.000765195 3.09689e-18 -0.00463375 1.36255e-18 0)
(0.00592362 -0.00067169 4.28491e-25 -0.00398462 1.42843e-24 0)
(0.00538622 -0.000575745 -6.90562e-19 -0.00337159 -1.85531e-18 0)
(0.00486934 -0.000467987 -3.54806e-19 -0.00278206 -7.6069e-19 0)
(0.00437564 -0.000360682 3.54252e-19 -0.00225799 6.12451e-19 0)
(0.00392481 -0.000251555 8.5871e-19 -0.00178338 6.12545e-19 0)
(0.00351894 -0.000147495 -1.41356e-19 -0.00139347 2.19766e-19 0)
(0.00317128 -4.90884e-05 -1.16377e-19 -0.00106397 1.31127e-19 0)
(0.00287809 4.22832e-05 -9.60729e-19 -0.000820571 -4.95135e-19 0)
(0.00264786 0.000125763 3.32958e-21 -0.000632652 2.68656e-21 0)
(0.00246123 0.000206155 -8.68102e-19 -0.000512981 -4.84518e-19 0)
(0.00906049 -0.00181129 9.63383e-19 -0.00869006 2.21953e-18 5.08003e-33)
(0.00895022 -0.00178166 1.4209e-18 -0.00838397 1.99142e-18 0)
(0.00878396 -0.00177215 -7.82514e-21 -0.00801574 -2.34059e-18 0)
(0.00855895 -0.00173703 -1.20915e-18 -0.00761702 4.55509e-18 0)
(0.00827721 -0.00168601 2.6675e-18 -0.00715073 -3.25117e-19 0)
(0.0079133 -0.00162388 7.14999e-19 -0.00663408 -3.8566e-18 0)
(0.00749409 -0.00152779 6.6863e-19 -0.00605063 3.32903e-18 0)
(0.00700209 -0.00142151 1.72986e-20 -0.00543042 6.39353e-20 0)
(0.00647799 -0.00128436 -3.36695e-18 -0.0047713 -4.07079e-18 0)
(0.00592748 -0.00113792 1.39329e-18 -0.00412702 1.20904e-18 0)
(0.00538226 -0.000971875 1.34961e-18 -0.00348991 1.08992e-18 0)
(0.00485847 -0.000805472 -4.6033e-19 -0.00291821 -1.37948e-18 0)
(0.00437574 -0.00063295 -1.83836e-18 -0.00239479 -1.04742e-18 0)
(0.00394463 -0.000469306 1.80965e-20 -0.00196339 2.69923e-19 0)
(0.00357343 -0.000310214 1.08533e-18 -0.00159598 7.8959e-19 0)
(0.00326446 -0.000164727 5.03727e-19 -0.00132043 3.21988e-19 0)
(0.00301499 -2.98621e-05 4.02108e-19 -0.00109954 2.40884e-19 0)
(0.00281719 9.2687e-05 -1.09325e-18 -0.000949122 -6.58434e-19 0)
(0.00265772 0.000200897 -4.95931e-21 -0.00082591 -3.10362e-21 0)
(0.00252083 0.000299282 -8.59072e-19 -0.000735968 -5.94427e-19 0)
(0.00838147 -0.00236482 -3.78289e-18 -0.00797481 3.21208e-18 5.83803e-33)
(0.00821209 -0.00232393 -3.13024e-19 -0.00761815 4.50053e-18 0)
(0.00803109 -0.00229755 1.3458e-18 -0.00723003 -3.47145e-19 0)
(0.0077864 -0.00224613 -9.85256e-20 -0.00682063 -1.94587e-18 0)
(0.00748954 -0.00216195 3.19087e-18 -0.00633607 -4.43116e-18 0)
(0.0070995 -0.00205282 7.08642e-19 -0.00580699 3.29577e-18 0)
(0.00665088 -0.0018971 4.99252e-19 -0.00520299 1.53735e-18 0)
(0.00613899 -0.00172482 2.89115e-18 -0.00458183 6.22817e-20 0)
(0.00561158 -0.00151209 2.34034e-19 -0.00394218 -9.11975e-19 0)
(0.00508559 -0.0012978 -1.48612e-18 -0.00335288 -1.78248e-18 0)
(0.00459785 -0.00106892 1.40833e-18 -0.00280774 4.79432e-19 0)
(0.00416353 -0.000854357 7.79967e-19 -0.00236146 5.71163e-19 0)
(0.0037978 -0.000645231 8.10441e-19 -0.00198725 4.85428e-19 0)
(0.00350515 -0.000457246 -1.77486e-18 -0.00171858 -1.04244e-18 0)
(0.00327972 -0.000282495 -4.7976e-19 -0.0015104 -3.34344e-19 0)
(0.00311381 -0.000126173 4.33352e-19 -0.00138019 3.22201e-19 0)
(0.0029843 1.59321e-05 1.44968e-18 -0.00127238 8.31479e-19 0)
(0.00287864 0.000141484 7.83054e-19 -0.00120039 6.01085e-19 0)
(0.00277172 0.000250728 -3.56454e-19 -0.0011132 -2.77257e-19 0)
(0.00265811 0.000340204 4.77819e-19 -0.00103015 3.59574e-19 0)
(0.0076878 -0.0028304 -1.39061e-18 -0.00723349 5.12733e-19 1.21906e-35)
(0.00741225 -0.00274668 1.61744e-18 -0.00677679 -4.75537e-18 0)
(0.00711908 -0.00266229 3.0587e-20 -0.00628383 -2.01077e-18 0)
(0.0067679 -0.00254698 1.12857e-18 -0.00577353 -4.04268e-19 0)
(0.00634457 -0.00238111 -6.60394e-21 -0.0051785 -3.46048e-20 0)
(0.0058649 -0.00219848 -5.00587e-19 -0.00457521 1.47154e-18 0)
(0.00538244 -0.00196243 2.04692e-18 -0.00395874 -1.11864e-18 0)
(0.00489353 -0.00172869 4.42998e-20 -0.00339472 -8.09982e-19 0)
(0.00443567 -0.00146543 6.92923e-19 -0.00286211 1.79857e-19 0)
(0.00404182 -0.00122284 0 -0.00244574 0 0)
(0.00371757 -0.000982296 9.2796e-19 -0.00210074 4.59264e-19 0)
(0.0034789 -0.000771045 -1.13512e-18 -0.00187663 -7.66173e-19 0)
(0.00331455 -0.000573991 1.93423e-18 -0.001718 1.12872e-18 0)
(0.00321467 -0.00040072 2.16924e-18 -0.00164299 1.03525e-18 0)
(0.00315351 -0.000239606 -2.40804e-19 -0.00159041 1.01294e-19 0)
(0.00311107 -9.65884e-05 -6.48717e-19 -0.00156922 -2.95325e-19 0)
(0.00305809 3.46943e-05 -1.22705e-19 -0.00152203 7.91605e-20 0)
(0.00299503 0.000149454 3.91141e-19 -0.00147841 3.34158e-19 0)
(0.00290013 0.000251944 2.1025e-20 -0.00139101 -7.62151e-20 0)
(0.00279297 0.000337009 5.40453e-19 -0.00130684 5.63372e-19 0)
(0.00696837 -0.00318743 2.52409e-18 -0.00644968 -1.0246e-18 1.62867e-36)
(0.00652312 -0.00301417 -1.24586e-18 -0.00584478 2.45062e-18 0)
(0.00600603 -0.00279518 1.02913e-18 -0.00513556 -3.94031e-19 0)
(0.00544242 -0.00256242 -2.23025e-19 -0.0044343 -1.38739e-18 0)
(0.00497211 -0.00229283 -1.72919e-18 -0.00378864 3.1527e-19 0)
(0.00432479 -0.0019868 -1.36857e-18 -0.00307261 -8.70426e-19 0)
(0.0038422 -0.00167939 -7.70028e-19 -0.00250274 -6.77211e-19 0)
(0.0034702 -0.0014302 1.13115e-18 -0.00209769 7.55991e-19 0)
(0.00319401 -0.00118807 -5.57913e-19 -0.00179395 -3.12954e-19 0)
(0.00304014 -0.00099034 -2.13896e-18 -0.00164642 -1.0771e-18 0)
(0.00296758 -0.000809998 9.22326e-19 -0.00157021 -3.0467e-19 0)
(0.00297713 -0.000653771 -1.46816e-18 -0.00159291 -6.90195e-19 0)
(0.00301658 -0.00050536 -1.77997e-18 -0.00162823 -5.3402e-19 0)
(0.00307233 -0.000369038 4.7759e-19 -0.00169287 4.18208e-19 0)
(0.00310411 -0.000235774 7.04452e-19 -0.00171764 2.82105e-19 0)
(0.00311039 -0.000113386 4.77474e-19 -0.00173311 4.07582e-19 0)
(0.00307793 6.6965e-06 5.74923e-19 -0.00169775 2.85832e-19 0)
(0.00302364 0.000113672 1.50132e-18 -0.00165829 9.58319e-19 0)
(0.0029409 0.000216315 -1.33676e-18 -0.0015786 -8.92039e-19 0)
(0.00285353 0.000301449 -1.88328e-19 -0.00150966 -7.46515e-20 0)
(0.00609221 -0.0033641 -1.01832e-18 -0.00549991 3.00053e-18 8.73644e-33)
(0.00544415 -0.00303189 -9.84755e-19 -0.00471789 -9.81493e-19 0)
(0.00466522 -0.00262506 -4.53011e-19 -0.00376117 -2.55913e-18 0)
(0.00391816 -0.00223736 5.20791e-19 -0.00292049 2.92326e-18 0)
(0.00326101 -0.00181726 -2.86247e-20 -0.00215416 6.32459e-19 0)
(0.00274949 -0.00147957 -1.65205e-19 -0.00160535 -2.4308e-19 0)
(0.00237745 -0.00119477 -8.33084e-19 -0.00120432 -2.2051e-19 0)
(0.00222532 -0.00100714 -4.61764e-19 -0.00105521 -3.27134e-19 0)
(0.00220721 -0.000863802 1.88204e-18 -0.00103009 8.62216e-19 0)
(0.00231268 -0.000763024 3.24567e-20 -0.00113707 -6.81081e-19 0)
(0.00245997 -0.000666446 1.82128e-20 -0.0012687 2.95457e-21 0)
(0.00262666 -0.000575749 -1.74295e-18 -0.00143106 -3.79358e-19 0)
(0.00276446 -0.000476343 -1.31235e-18 -0.00154983 -6.40095e-19 0)
(0.00286986 -0.000376171 1.04188e-18 -0.00165347 7.75429e-20 0)
(0.0029263 -0.000266749 -1.64956e-18 -0.00169727 -1.07938e-18 0)
(0.00295287 -0.000159989 -1.13808e-18 -0.00173077 -6.80883e-19 0)
(0.00294654 -4.84725e-05 -1.04747e-18 -0.00172002 -6.62339e-19 0)
(0.00292662 5.11594e-05 5.23073e-19 -0.00171249 2.41982e-19 0)
(0.00288834 0.000152274 1.42462e-18 -0.0016725 8.83554e-19 0)
(0.00284327 0.000235324 -8.52457e-19 -0.00164041 -6.18425e-19 0)
(0.00488057 -0.00318012 -1.06923e-18 -0.00421265 1.22325e-18 9.79455e-34)
(0.0040628 -0.00265422 1.81646e-18 -0.00330589 4.5426e-19 0)
(0.00315869 -0.00208917 -1.89351e-18 -0.00225827 3.66062e-19 0)
(0.00243402 -0.00162087 5.51017e-19 -0.00150089 7.56599e-20 0)
(0.00186554 -0.00122208 -6.48023e-19 -0.000893198 9.84954e-20 0)
(0.00156823 -0.000979049 -1.3372e-18 -0.000619179 2.35159e-19 0)
(0.00146045 -0.000794749 7.93927e-20 -0.000506261 -6.98731e-19 0)
(0.00153012 -0.000705698 -3.86723e-19 -0.000580987 -3.50587e-19 0)
(0.00166845 -0.000643478 2.72476e-20 -0.0006934 -7.25093e-19 0)
(0.00185794 -0.000611191 1.22141e-18 -0.000867596 4.00742e-19 0)
(0.00203449 -0.000569375 4.09844e-19 -0.00101295 3.66325e-19 0)
(0.0022083 -0.000523877 9.25564e-25 -0.00117362 1.40493e-25 0)
(0.00234782 -0.000456244 -1.15632e-18 -0.00129049 -5.14152e-19 0)
(0.0024675 -0.000385533 2.46966e-19 -0.0014082 -2.17838e-19 0)
(0.00255155 -0.000294138 6.58751e-19 -0.001481 1.7865e-19 0)
(0.0026186 -0.000207469 -1.04044e-18 -0.00155506 -5.77718e-19 0)
(0.00266478 -0.000110786 -5.3599e-25 -0.00159397 -1.82963e-25 0)
(0.00269687 -2.62292e-05 -1.2436e-18 -0.00163477 -1.1599e-18 0)
(0.00270891 6.65022e-05 -9.66232e-20 -0.00164027 1.76942e-19 0)
(0.0027028 0.00013944 -1.14942e-18 -0.00164272 -7.9106e-19 0)
(0.00333221 -0.00248997 -1.39676e-18 -0.00261243 4.87486e-19 -8.10689e-38)
(0.00249222 -0.00183485 5.29853e-19 -0.0017502 5.13308e-19 0)
(0.00172565 -0.00131563 -7.30496e-19 -0.000896142 -1.66645e-19 0)
(0.00132935 -0.00100534 -1.70644e-18 -0.000523331 2.25011e-20 0)
(0.00111407 -0.000769287 1.18628e-18 -0.000302037 2.23948e-19 0)
(0.00115649 -0.000698468 2.18986e-18 -0.000385345 -6.51284e-19 0)
(0.00122885 -0.000647337 1.4612e-19 -0.000449964 -7.79141e-19 0)
(0.0013485 -0.000616811 -3.4869e-19 -0.000547712 -3.36275e-19 0)
(0.00145066 -0.000582197 -1.43504e-18 -0.0006026 -6.20203e-19 0)
(0.00156137 -0.000546186 -1.44349e-18 -0.000686278 3.56726e-20 0)
(0.00167358 -0.00050208 6.8604e-19 -0.000767199 1.88336e-21 0)
(0.00179684 -0.000457224 7.59646e-19 -0.000888081 6.53427e-19 0)
(0.0019077 -0.000401065 -7.2702e-25 -0.000981445 -6.16352e-26 0)
(0.00201294 -0.000351084 6.17823e-19 -0.0010916 7.78146e-20 0)
(0.00210058 -0.000289441 -1.96293e-19 -0.00117081 2.51329e-19 0)
(0.00219344 -0.000232537 2.10693e-19 -0.00126867 5.76863e-19 0)
(0.00226994 -0.000161798 9.17326e-19 -0.00133709 4.74221e-19 0)
(0.00233114 -0.000101176 7.69882e-19 -0.00140423 7.01939e-19 0)
(0.00237238 -2.53895e-05 -7.58218e-19 -0.00143977 -7.05995e-19 0)
(0.00239201 3.21333e-05 4.62023e-19 -0.0014658 1.48058e-19 0)
(0.00188716 -0.00154399 -1.42635e-18 -0.00117669 1.92853e-20 5.5359e-34)
(0.00126982 -0.00101228 -7.38686e-19 -0.000588541 -1.02148e-20 0)
(0.000952479 -0.000746837 0 -0.000202753 0 0)
(0.000959289 -0.000665539 -7.91614e-19 -0.000285306 1.47215e-19 0)
(0.0010231 -0.000633559 -1.523e-18 -0.000328986 -5.64906e-19 0)
(0.00113958 -0.000618602 4.04068e-19 -0.000440134 -4.49224e-19 0)
(0.00121062 -0.000609504 1.11174e-18 -0.000470102 2.3716e-19 0)
(0.00129158 -0.000593503 7.35254e-19 -0.00054721 6.53465e-19 0)
(0.00135896 -0.00055453 1.08032e-18 -0.000584288 9.68888e-19 0)
(0.00143825 -0.000514753 -6.55342e-19 -0.000661644 4.2644e-20 0)
(0.00151249 -0.000459172 -1.26419e-18 -0.000706673 6.3366e-20 0)
(0.00158282 -0.000412831 -2.32534e-20 -0.000775374 5.0688e-22 0)
(0.00164527 -0.000359865 5.70588e-19 -0.000812843 -5.51845e-21 0)
(0.00170622 -0.000316288 3.38661e-19 -0.000872615 3.06105e-19 0)
(0.00178122 -0.000264147 1.67949e-19 -0.000936752 5.90183e-19 0)
(0.00185564 -0.000219233 -4.99216e-19 -0.00102269 -4.41149e-20 0)
(0.0019166 -0.000165269 -8.26935e-21 -0.00107863 -9.47116e-22 0)
(0.00196517 -0.000122054 1.67392e-18 -0.00113919 5.04842e-19 0)
(0.00200482 -6.6545e-05 7.83086e-19 -0.00117819 3.85734e-19 0)
(0.00203847 -2.80065e-05 -1.74722e-19 -0.00121738 4.73998e-19 0)
(0.00105343 -0.000855614 -1.07929e-18 -0.000377926 4.75027e-19 -5.93334e-36)
(0.000811264 -0.000619199 -8.29222e-19 -0.000187772 2.13128e-19 0)
(0.000869812 -0.000621414 -4.16179e-20 -0.000212406 9.02922e-19 0)
(0.000948439 -0.000577025 3.36822e-19 -0.000321744 3.62236e-19 0)
(0.00101337 -0.000599948 1.52652e-18 -0.000327517 -3.28977e-19 0)
(0.00108668 -0.000568089 1.60564e-20 -0.00041841 -3.06865e-21 0)
(0.00114504 -0.00054624 -6.85142e-19 -0.000440298 9.29528e-19 0)
(0.00123582 -0.000518226 -1.02405e-18 -0.000536711 5.45874e-19 0)
(0.00129983 -0.000489228 9.94135e-19 -0.000571545 2.30104e-19 0)
(0.0013813 -0.000460257 9.78032e-19 -0.000655963 2.47225e-19 0)
(0.00143453 -0.000421284 9.58315e-19 -0.000689071 2.49732e-19 0)
(0.00149632 -0.000381404 -6.8375e-19 -0.000757038 -6.20497e-19 0)
(0.00154201 -0.000335888 -5.41147e-19 -0.00078657 3.69403e-20 0)
(0.00159738 -0.000292764 -8.5072e-19 -0.000844533 -2.80042e-19 0)
(0.00164457 -0.000245645 -3.43998e-19 -0.000873811 -2.96208e-19 0)
(0.00168184 -0.000204361 -5.24028e-19 -0.000917317 -8.84606e-19 0)
(0.00171225 -0.000159674 -6.38819e-19 -0.000938381 -5.84015e-19 0)
(0.00173983 -0.000123442 -4.09766e-19 -0.000973381 -7.83227e-21 0)
(0.00177438 -7.95051e-05 2.0952e-19 -0.00100622 5.63642e-19 0)
(0.00180462 -4.88704e-05 6.26435e-19 -0.00104325 1.76529e-19 0)
(0.000815959 -0.000620813 8.53661e-19 -0.000182576 4.13357e-19 5.05146e-36)
(0.000793754 -0.000569798 -1.52007e-18 -0.000181987 4.66816e-19 0)
(0.000871017 -0.000589159 -7.79054e-19 -0.000233122 2.21012e-19 0)
(0.000896753 -0.000536345 3.71327e-19 -0.000277814 -5.66632e-19 0)
(0.000958325 -0.000536053 3.58487e-19 -0.000316495 3.4409e-19 0)
(0.00103554 -0.000491377 4.47407e-20 -0.000401619 8.59211e-19 0)
(0.00109592 -0.000486979 3.40169e-19 -0.000438064 3.37502e-19 0)
(0.00117602 -0.000449639 2.8242e-19 -0.000521974 -4.69867e-19 0)
(0.00123617 -0.000432228 -7.12551e-19 -0.0005598 -6.45207e-19 0)
(0.00131131 -0.000395105 -9.42411e-19 -0.000637473 -2.13853e-19 0)
(0.00136965 -0.000368241 5.47249e-19 -0.000675861 -9.1388e-20 0)
(0.00143266 -0.00033274 8.81589e-19 -0.000741783 2.34003e-19 0)
(0.0014808 -0.000301669 6.91235e-19 -0.000774046 6.09106e-19 0)
(0.00152874 -0.000267012 4.91137e-19 -0.000826503 -5.35166e-20 0)
(0.00156527 -0.000228644 1.41052e-19 -0.000852743 -3.44245e-19 0)
(0.00159964 -0.000189588 3.42492e-19 -0.000893949 2.92574e-19 0)
(0.00162866 -0.000150706 -9.05782e-19 -0.000914387 3.79714e-19 0)
(0.00165533 -0.000115672 2.29614e-19 -0.000945206 5.96029e-19 0)
(0.00167982 -7.84205e-05 3.7603e-19 -0.000961564 -1.91722e-20 0)
(0.00169456 -4.89777e-05 -9.01281e-19 -0.000980591 -4.20771e-19 0)
(0.000760006 -0.000600828 1.27623e-18 -0.000150155 -2.87525e-20 6.18e-34)
(0.000758354 -0.000556821 6.76642e-19 -0.000155828 -1.25521e-18 0)
(0.000818419 -0.000522715 -3.58649e-19 -0.000219887 -3.66491e-19 0)
(0.000862406 -0.000474351 -1.0762e-18 -0.000273842 -1.14369e-19 0)
(0.000931537 -0.000471132 -6.70992e-19 -0.000328022 2.20189e-19 0)
(0.000991432 -0.000431574 -1.41561e-20 -0.000395983 4.47735e-21 0)
(0.00105724 -0.000423148 -1.06275e-19 -0.000442437 -8.57342e-19 0)
(0.00112505 -0.000390452 1.32806e-18 -0.000515325 4.91078e-19 0)
(0.0011859 -0.000374418 9.46891e-19 -0.000556518 1.64494e-19 0)
(0.00125158 -0.000343997 -5.34476e-19 -0.000625552 1.33181e-19 0)
(0.00130524 -0.00032039 -5.12077e-19 -0.000661074 1.22357e-19 0)
(0.00136345 -0.000288765 -3.05993e-19 -0.000722024 8.37398e-19 0)
(0.00141039 -0.000260406 -1.8032e-20 -0.000752495 3.78156e-21 0)
(0.00145964 -0.00022891 5.53261e-19 -0.000804 -4.70227e-19 0)
(0.00149983 -0.000198897 -1.04168e-19 -0.000829474 3.75675e-19 0)
(0.00153577 -0.000168751 5.46567e-19 -0.000868007 9.50425e-19 0)
(0.00156531 -0.000138099 -8.27943e-20 -0.000885674 3.54482e-19 0)
(0.00158865 -0.000109626 -6.31791e-19 -0.000911799 -5.69499e-19 0)
(0.00160993 -7.74189e-05 7.01321e-19 -0.000924039 -1.09381e-19 0)
(0.00162487 -5.26459e-05 6.41218e-19 -0.000939196 2.25785e-19 0)
(0.000665677 -0.000577856 2.33047e-18 -9.66076e-05 -1.71674e-18 -1.33516e-33)
(0.000696899 -0.000514008 7.77851e-19 -0.000145569 -3.25258e-19 0)
(0.000772338 -0.000474628 -9.94632e-19 -0.000216998 9.26615e-19 0)
(0.000813931 -0.000431868 1.52524e-20 -0.000270525 -6.2022e-21 0)
(0.000886342 -0.000413409 -1.40036e-18 -0.000330295 -4.39514e-19 0)
(0.00094502 -0.000380161 2.45195e-19 -0.000395646 -5.78906e-19 0)
(0.00101035 -0.000368095 -1.52579e-18 -0.000444532 9.3489e-20 0)
(0.00107442 -0.000339639 -1.13725e-18 -0.000512019 4.01916e-19 0)
(0.00113305 -0.000326078 1.7686e-18 -0.000552996 2.8447e-19 0)
(0.00119471 -0.000299428 7.0193e-19 -0.000616358 6.36852e-19 0)
(0.0012465 -0.000282037 -8.46822e-19 -0.000650657 -1.54222e-19 0)
(0.00130075 -0.000255981 1.14413e-18 -0.000705887 4.77345e-19 0)
(0.00134461 -0.000234677 -1.69783e-20 -0.000733199 -1.58747e-18 0)
(0.00138938 -0.000208379 -9.85395e-19 -0.000778701 -8.92e-19 0)
(0.00142561 -0.000183647 -1.85294e-18 -0.000799503 -2.55791e-19 0)
(0.00146083 -0.000156919 -3.71123e-25 -0.000835167 9.65269e-26 0)
(0.00149045 -0.000131423 9.94984e-20 -0.000850018 -7.52789e-19 0)
(0.00151616 -0.000106485 -5.99178e-19 -0.00087533 -5.60794e-19 0)
(0.00154006 -8.23333e-05 -1.2556e-18 -0.000884777 -3.79501e-19 0)
(0.00155736 -6.28489e-05 1.39774e-18 -0.000898428 3.28486e-19 0)
(0.000566476 -0.000529924 -9.54839e-19 -6.21374e-05 2.35888e-19 3.34268e-34)
(0.000626883 -0.000472724 4.80363e-19 -0.00013121 1.45018e-18 0)
(0.000707155 -0.00042477 4.01972e-19 -0.000210474 3.57176e-19 0)
(0.000767961 -0.000385908 1.25127e-18 -0.000276134 -5.90429e-19 0)
(0.000840878 -0.000365163 2.70812e-20 -0.000339653 -1.24746e-20 0)
(0.000902899 -0.00033556 -1.95671e-19 -0.000404107 5.99221e-19 0)
(0.000968194 -0.000323526 3.73079e-19 -0.000455458 3.31859e-19 0)
(0.00102934 -0.000299362 -1.75634e-18 -0.000517287 -2.1781e-19 0)
(0.00108696 -0.000287719 -8.6126e-19 -0.000558871 -1.11603e-19 0)
(0.00114408 -0.000266322 9.41128e-19 -0.000615562 -3.76692e-19 0)
(0.001194 -0.000252069 -1.13549e-18 -0.000648732 -4.42798e-19 0)
(0.0012446 -0.000231821 4.23454e-19 -0.00069829 -1.59856e-19 0)
(0.00128707 -0.000214833 2.7514e-18 -0.000723922 -1.82315e-19 0)
(0.00132944 -0.000195342 6.70622e-19 -0.000764927 5.79307e-19 0)
(0.00136469 -0.000176562 -1.48102e-18 -0.000783516 5.30744e-19 0)
(0.00139755 -0.000157768 -6.75729e-19 -0.000814849 -1.5612e-19 0)
(0.00142593 -0.000138292 3.28339e-20 -0.000826787 -3.96175e-19 0)
(0.00144938 -0.000120294 3.00921e-19 -0.00084842 2.72397e-19 0)
(0.00147248 -0.000101605 5.29687e-21 -0.000855026 -1.86511e-21 0)
(0.00148917 -8.67035e-05 -8.53228e-19 -0.000867544 4.25455e-20 0)
(0.000458637 -0.000466382 2.50814e-19 -2.77571e-05 1.52549e-19 -3.67875e-36)
(0.000542299 -0.000413706 -1.08925e-18 -0.00011693 1.45914e-20 0)
(0.000636745 -0.000373078 6.20966e-19 -0.00020426 -3.40493e-19 0)
(0.000705671 -0.000339896 2.24279e-19 -0.000275757 -6.85038e-19 0)
(0.000785953 -0.000318972 -8.27276e-21 -0.00034369 1.65031e-18 0)
(0.000849671 -0.000296169 -3.9008e-19 -0.000407552 -3.30009e-19 0)
(0.000917908 -0.000283698 1.31831e-19 -0.000460383 -5.88073e-19 0)
(0.000977484 -0.00026619 0 -0.000518433 0 0)
(0.00103563 -0.000255802 -7.09136e-19 -0.000559544 -6.33073e-19 0)
(0.00108973 -0.000240732 9.89752e-20 -0.000611161 -5.2612e-19 0)
(0.00113919 -0.000229501 6.18442e-19 -0.000642798 1.10338e-18 0)
(0.00118639 -0.000215364 -2.21724e-18 -0.000687078 -3.30791e-19 0)
(0.00122809 -0.000202451 6.87399e-19 -0.0007106 1.25485e-19 0)
(0.00126766 -0.000188545 1.69037e-18 -0.00074711 5.30367e-19 0)
(0.00130245 -0.000174351 6.30723e-19 -0.000763518 5.58301e-19 0)
(0.00133427 -0.000160584 3.35346e-19 -0.000792233 -1.48412e-19 0)
(0.00136303 -0.000146303 3.09129e-19 -0.000802369 2.64963e-19 0)
(0.00138719 -0.000133046 -2.99542e-19 -0.000823297 1.3249e-19 0)
(0.00141105 -0.00012002 3.03363e-19 -0.000828249 6.38527e-19 0)
(0.00142888 -0.000109038 1.126e-20 -0.000841182 3.75743e-19 0)
(0.00036044 -0.000390205 6.77064e-19 -9.58673e-06 -4.69201e-19 3.95468e-35)
(0.000462851 -0.000351645 1.56788e-20 -0.000110436 -9.85453e-21 0)
(0.000566307 -0.000319371 1.42889e-20 -0.000205256 -8.91954e-21 0)
(0.000648172 -0.000295503 9.97101e-19 -0.000283644 1.7384e-18 0)
(0.000730969 -0.000279495 -3.97682e-19 -0.000354169 -3.31074e-19 0)
(0.000800823 -0.000263364 1.55497e-18 -0.000419314 -9.35093e-19 0)
(0.000868967 -0.000254844 -4.63545e-19 -0.000472689 2.74512e-19 0)
(0.000930092 -0.000242914 -4.5885e-19 -0.000528373 2.66951e-19 0)
(0.000986987 -0.00023634 -7.07657e-19 -0.00056894 -6.22077e-19 0)
(0.00104033 -0.000226655 -1.24145e-18 -0.000616517 6.9835e-19 0)
(0.00108803 -0.000219265 7.15948e-19 -0.000646922 8.75372e-20 0)
(0.0011337 -0.000210764 4.59191e-19 -0.000686822 -1.19606e-18 0)
(0.0011736 -0.000201686 -1.00059e-18 -0.000708745 -3.78172e-19 0)
(0.0012115 -0.000193874 -1.28213e-20 -0.000741093 4.55467e-19 0)
(0.00124475 -0.000183363 -3.06505e-21 -0.000755736 4.41088e-19 0)
(0.00127482 -0.000175926 -3.1872e-19 -0.000780633 -2.58935e-19 0)
(0.00130263 -0.000165024 2.87576e-19 -0.000789048 -1.541e-19 0)
(0.00132526 -0.000157337 2.06666e-20 -0.000806962 3.98625e-19 0)
(0.00134882 -0.000148019 -8.60362e-19 -0.000810061 -3.40994e-19 0)
(0.00136512 -0.00014028 -2.89e-19 -0.00082155 -2.39272e-19 0)
(0.000266152 -0.00029887 -2.35085e-19 -2.21986e-06 -1.54467e-19 1.82174e-36)
(0.000381786 -0.000276415 -6.31985e-19 -0.000110403 4.51194e-19 0)
(0.000494369 -0.000258187 -9.4648e-19 -0.000208577 1.92658e-18 0)
(0.00058315 -0.000244831 1.41945e-18 -0.000289529 -3.83552e-19 0)
(0.000671773 -0.000236243 2.73703e-19 -0.000361854 -1.38617e-18 0)
(0.000743876 -0.000228362 -1.25267e-19 -0.000425745 6.67918e-19 0)
(0.000815461 -0.000224132 8.01124e-19 -0.000479656 2.26217e-20 0)
(0.000875791 -0.000219249 8.55337e-19 -0.000531595 -5.72507e-19 0)
(0.000934761 -0.000215936 3.63317e-19 -0.000571929 2.95028e-19 0)
(0.000985459 -0.000212486 -1.11551e-18 -0.00061434 2.08571e-19 0)
(0.00103477 -0.000208372 -6.46337e-19 -0.000644278 -1.10205e-18 0)
(0.00107683 -0.000205417 3.34695e-19 -0.000678437 2.77871e-19 0)
(0.00111846 -0.000200098 -9.90991e-19 -0.000700028 1.53675e-19 0)
(0.00115262 -0.000197108 -6.38959e-19 -0.000726896 -6.31536e-20 0)
(0.00118779 -0.000191014 2.71348e-19 -0.000741337 -6.30307e-19 0)
(0.00121502 -0.000187768 5.73082e-19 -0.000762015 -3.60261e-19 0)
(0.00124394 -0.000181468 -5.31259e-19 -0.000769575 3.38313e-19 0)
(0.00126593 -0.000178214 2.50365e-19 -0.000785705 -1.57899e-19 0)
(0.00129005 -0.000172751 -3.51239e-20 -0.000787719 -3.95263e-19 0)
(0.00130651 -0.000168414 -7.47482e-19 -0.0007997 6.9917e-20 0)
(0.000188659 -0.000206764 -2.08582e-19 -1.01931e-05 -1.69172e-19 -3.63004e-36)
(0.000312583 -0.000201956 -1.3347e-18 -0.000120512 1.742e-18 0)
(0.000429361 -0.000199165 -9.43408e-19 -0.000220914 1.00607e-19 0)
(0.000524381 -0.000197979 4.05804e-19 -0.000302635 -2.2304e-18 0)
(0.000614308 -0.00019987 3.77779e-19 -0.000375445 3.25006e-19 0)
(0.000690028 -0.000200519 -7.32095e-19 -0.000438168 -6.40804e-19 0)
(0.000761212 -0.000204257 9.08737e-21 -0.00049163 -6.94366e-21 0)
(0.000823025 -0.000205584 -7.56474e-19 -0.000540847 1.45941e-21 0)
(0.000880654 -0.000209036 1.41729e-18 -0.000580318 6.02913e-19 0)
(0.000931617 -0.000210384 3.64007e-19 -0.000619234 -2.68951e-19 0)
(0.000979057 -0.000212378 -3.32161e-19 -0.000648169 2.43803e-19 0)
(0.00102102 -0.000213497 1.30864e-18 -0.000678797 5.74104e-19 0)
(0.00106056 -0.000213605 -8.77394e-21 -0.000699466 -4.89422e-19 0)
(0.00109464 -0.000214727 -5.96558e-19 -0.000723082 -5.35068e-20 0)
(0.0011281 -0.000212847 -1.47711e-18 -0.000737187 -3.49987e-19 0)
(0.00115459 -0.000215026 -2.70961e-19 -0.000754165 1.92494e-19 0)
(0.00118396 -0.000210854 8.439e-19 -0.000763529 2.90133e-19 0)
(0.00120347 -0.000212677 -8.7546e-19 -0.000776096 -6.80932e-19 0)
(0.00122964 -0.00020908 5.68081e-19 -0.000779693 4.46071e-19 0)
(0.00123905 -0.000209339 1.24893e-18 -0.000786993 2.58098e-19 0)
(0.000122217 -0.000103494 -9.41955e-19 -3.41661e-05 1.24362e-18 -5.37303e-34)
(0.00025057 -0.000118142 -1.82237e-19 -0.00014292 8.59535e-19 0)
(0.000370304 -0.000131928 -6.16567e-19 -0.00024101 -1.47913e-18 0)
(0.000468076 -0.000143807 3.76003e-19 -0.000320718 3.26018e-19 0)
(0.000560194 -0.000156442 4.31224e-19 -0.000391716 -3.80442e-19 0)
(0.000636756 -0.000166422 9.10921e-21 -0.000451345 -7.95467e-21 0)
(0.000709544 -0.000177296 -3.6759e-19 -0.000503288 -2.9165e-19 0)
(0.000770562 -0.000185661 -7.43116e-21 -0.00054836 5.97913e-19 0)
(0.000829631 -0.000194163 -3.54273e-19 -0.000586691 3.01185e-19 0)
(0.000878431 -0.000200994 6.60224e-19 -0.000620548 2.31939e-21 0)
(0.00092779 -0.000206947 -6.26172e-19 -0.000649044 5.25535e-19 0)
(0.000966277 -0.000212242 9.33714e-19 -0.000673727 2.78474e-19 0)
(0.00100915 -0.000216089 1.19077e-18 -0.000695222 4.08839e-20 0)
(0.00103827 -0.00021969 5.70483e-19 -0.000711922 2.78993e-20 0)
(0.00107792 -0.000222825 5.61144e-19 -0.000729033 2.43673e-20 0)
(0.00109775 -0.000224147 -9.97561e-19 -0.000738213 3.52083e-19 0)
(0.00113298 -0.00022615 2.20451e-19 -0.000751552 -1.84624e-19 0)
(0.00114795 -0.000227284 -6.91482e-20 -0.000755312 -3.96376e-19 0)
(0.00118398 -0.000232716 -3.64491e-20 -0.00076681 9.29057e-19 0)
(0.00119109 -0.00022769 7.15215e-19 -0.000768434 1.99316e-19 0)
(7.36967e-05 -7.04608e-06 1.77798e-19 -7.11726e-05 1.82818e-19 -3.49124e-36)
(0.000201465 -3.93488e-05 1.36878e-19 -0.000173844 -8.59724e-19 0)
(0.000318706 -7.03655e-05 -8.21174e-20 -0.000267703 7.84989e-19 0)
(0.00041671 -9.46792e-05 7.24114e-19 -0.000342631 6.43598e-19 0)
(0.000506445 -0.000120194 7.79335e-19 -0.000410275 -1.03971e-19 0)
(0.000583049 -0.000138686 3.736e-19 -0.000465364 -3.65392e-19 0)
(0.000653249 -0.000159948 -6.96885e-19 -0.000514479 4.48864e-20 0)
(0.00071388 -0.000173759 -6.9102e-19 -0.000554912 6.6207e-19 0)
(0.00077002 -0.000191589 -1.31165e-20 -0.00059079 -5.78789e-19 0)
(0.000818243 -0.000201231 -3.64289e-19 -0.000620038 -8.04364e-19 0)
(0.000864053 -0.000216537 -2.39623e-19 -0.000646253 7.80226e-19 0)
(0.000902411 -0.000221981 -9.08136e-19 -0.000666888 -2.36722e-19 0)
(0.00094039 -0.000236012 1.13796e-18 -0.000685775 3.81604e-21 0)
(0.000971123 -0.000236529 0 -0.00070019 0 0)
(0.00100284 -0.000251032 -8.46454e-21 -0.000713136 7.74095e-21 0)
(0.00103043 -0.000249183 2.35988e-20 -0.000722579 1.50458e-19 0)
(0.00105488 -0.000262141 -6.57098e-19 -0.000731967 -8.1434e-19 0)
(0.00107565 -0.000252301 -1.03731e-19 -0.000737295 5.61218e-19 0)
(0.00110087 -0.00026881 -4.67545e-19 -0.000747091 -1.94053e-20 0)
(0.00112435 -0.000263711 8.03297e-20 -0.000746534 -5.25871e-19 0)
(4.01983e-05 9.39117e-05 0 -0.000125509 0 0)
(0.000165371 4.3157e-05 -9.24704e-20 -0.000220378 8.56481e-19 0)
(0.000279246 -4.11476e-06 -8.64996e-19 -0.000306513 9.87704e-19 0)
(0.000375785 -4.1485e-05 -7.22583e-19 -0.000375595 -6.06698e-19 0)
(0.000463014 -7.87021e-05 1.44898e-18 -0.000437315 -9.19681e-19 0)
(0.000538798 -0.000106571 7.02251e-19 -0.000487807 -7.73365e-19 0)
(0.000606823 -0.000136492 -7.0416e-21 -0.000532122 7.64322e-21 0)
(0.000667249 -0.000157192 -6.32089e-19 -0.00056899 4.97432e-20 0)
(0.000721149 -0.000181707 2.9084e-19 -0.000600704 -3.09514e-19 0)
(0.000770031 -0.000196651 -2.61692e-19 -0.000627498 2.77691e-19 0)
(0.000813111 -0.000217232 1.13022e-19 -0.000649756 1.03603e-18 0)
(0.000853368 -0.000227281 -1.24576e-18 -0.000669233 -9.39347e-19 0)
(0.000887476 -0.000245067 3.04435e-19 -0.000683856 2.29251e-19 0)
(0.00092164 -0.000250801 6.5002e-19 -0.000698424 -6.78523e-19 0)
(0.000947207 -0.000266265 -7.94255e-19 -0.000706042 -2.12383e-19 0)
(0.000977782 -0.000268302 -3.48676e-21 -0.000718064 3.64574e-21 0)
(0.000998625 -0.000284477 6.64866e-19 -0.000719896 -1.96262e-19 0)
(0.00102341 -0.000279754 3.81193e-19 -0.000730185 5.6369e-19 0)
(0.0010371 -0.00029426 -4.3211e-19 -0.00072664 -1.73759e-20 0)
(0.00106273 -0.000298532 5.39278e-21 -0.00072721 1.51736e-19 0)
(2.25499e-05 0.000184741 -6.06333e-19 -0.000190418 3.86952e-19 2.50752e-34)
(0.000140596 0.000118428 -6.42293e-19 -0.000273209 -1.48972e-18 0)
(0.000246128 5.57858e-05 7.77819e-19 -0.000349244 -1.00263e-18 0)
(0.000338349 7.2162e-06 -1.01958e-18 -0.000409466 -1.75129e-19 0)
(0.000419158 -4.16573e-05 -6.68842e-19 -0.000463581 1.21605e-19 0)
(0.0004923 -7.73408e-05 9.56753e-19 -0.000507173 -4.91207e-19 0)