/*--------------------------------*- C++ -*----------------------------------*\
| =========                 |                                                 |
| \\      /  F ield         | OpenFOAM: The Open Source CFD Toolbox           |
|  \\    /   O peration     | Version:  v2012                                 |
|   \\  /    A nd           | Website:  www.openfoam.com                      |
|    \\/     M anipulation  |                                                 |
\*---------------------------------------------------------------------------*/
FoamFile
{
    version     2.0;
    format      ascii;
    class       volVectorField;
    location    "13";
    object      D_0;
}
// * * * * * * * * * * * * * * * * * * * * * * * * * * * * * * * * * * * * * //

dimensions      [0 1 0 0 0 0 0];


internalField   nonuniform List<vector> 
470
(
(0.00323158 -4.60248e-06 0)
(0.00331131 -1.23519e-05 0)
(0.00317368 -0.000277514 0)
(0.00381692 -1.51164e-05 0)
(0.00292087 -8.68112e-05 0)
(0.00344396 -0.000319378 0)
(0.00317565 -8.17447e-05 0)
(0.00291828 -8.92193e-05 0)
(0.00204163 -0.00044667 0)
(0.00313079 -0.00018988 0)
(0.00215902 -0.000388111 0)
(0.00127178 -0.0010294 0)
(0.00140264 -0.000891975 0)
(0.00370808 -2.72146e-05 0)
(0.00161642 -0.000682562 0)
(0.00265084 -0.000292515 0)
(0.00308908 -0.00017727 0)
(0.00359841 -2.05372e-05 0)
(0.00351479 -8.0286e-06 0)
(0.00325589 -1.45841e-05 0)
(0.0026386 -0.000326601 0)
(0.00380332 -0.000103293 0)
(0.0031784 -0.00031045 0)
(0.00370641 -3.5121e-05 0)
(0.00189752 -0.000608526 0)
(0.00323848 -6.98318e-05 0)
(0.00207027 -0.00048412 0)
(0.00296959 -0.000368913 0)
(0.00350172 -0.000263749 0)
(0.00376159 -1.2524e-05 0)
(0.00329159 -7.6752e-06 0)
(0.00162533 -0.000697077 0)
(0.00308756 -0.000217366 0)
(0.00151587 -0.00133234 0)
(0.00338022 -0.000334493 0)
(0.00352002 -0.00028792 0)
(0.00122709 -0.000956637 0)
(0.00329851 -2.06554e-05 0)
(0.00332202 -1.41712e-05 0)
(0.0031881 -2.01296e-05 0)
(0.00236846 -0.000302112 0)
(0.0034767 -2.0876e-06 0)
(0.00098733 -0.00136167 0)
(0.00249781 -0.000238089 0)
(0.00288434 -0.000380235 0)
(0.000826176 -0.00151125 0)
(0.00317254 -3.32462e-05 0)
(0.00211043 -0.000427081 0)
(0.00225844 -0.000359081 0)
(0.00205119 -0.000460248 0)
(0.0010353 -0.0010937 0)
(0.00180014 -0.00114713 0)
(0.00355835 -2.66663e-05 0)
(0.0035183 -1.2181e-05 0)
(0.00383513 -7.64518e-05 0)
(0.00379094 -9.41758e-05 0)
(2.05805e-05 -0.00247828 0)
(3.96087e-05 -0.00244679 0)
(0.00266547 -0.000175496 0)
(0.00301954 -0.000329769 0)
(0.00331632 -9.01625e-05 0)
(0.00178742 -0.000656112 0)
(0.00166795 -0.000667261 0)
(0.00132076 -0.00111136 0)
(0.00228082 -0.000903749 0)
(0.000561468 -0.00200399 0)
(0.00320095 -3.51056e-05 0)
(0.00374293 -0.000127469 0)
(0.00286449 -0.000177981 0)
(0.00267873 -0.000226689 0)
(0.00324923 -1.30254e-08 0)
(0.00313913 -0.00015433 0)
(0.00137501 -0.00125241 0)
(0.00294368 -0.000108373 0)
(0.00115167 -0.00139366 0)
(0.00395394 -5.66312e-05 0)
(0.00328743 -0.000168446 0)
(0.00329785 -0.000144162 0)
(0.00277159 -0.000142642 0)
(0.000135284 -0.00232097 0)
(0.00250122 -0.00022493 0)
(0.000820779 -0.00179159 0)
(0.00309734 -0.000274965 0)
(0.00281182 -0.000240347 0)
(0.0019251 -0.000522269 0)
(0.0038876 -8.36142e-05 0)
(0.00111882 -0.0012822 0)
(0.00220565 -0.00111777 0)
(0.000857589 -0.00160836 0)
(0.00150879 -0.00106187 0)
(0.00110373 -0.00141684 0)
(0.00136732 -0.000872951 0)
(0.00301608 -0.000101142 0)
(0.00323156 -0.000129131 0)
(0.00153202 -0.000754572 0)
(0.00147725 -0.000767532 0)
(0.0030961 -5.34639e-05 0)
(0.00324939 -0.000108642 0)
(0.00284105 -0.000111578 0)
(0.00331413 -0.000301162 0)
(0.0037179 -7.58422e-05 0)
(0.0021469 -0.000393132 0)
(0.00142357 -0.00133544 0)
(0.00388626 -4.96619e-05 0)
(0.00390765 -3.70941e-05 0)
(0.00364374 -0.000215618 0)
(0.00368669 -0.000188347 0)
(0.00302622 -5.25857e-05 0)
(0.00309139 -0.000196823 0)
(0.00118354 -0.00166568 0)
(0.000790494 -0.00163891 0)
(0.00111961 -0.00162421 0)
(0.00395116 -5.1746e-05 0)
(0.00347987 -0.000339027 0)
(0.00282469 -0.000176007 0)
(0.00281313 -0.00016283 0)
(0.00385437 -1.57062e-06 0)
(0.00211838 -0.00048239 0)
(0.00307292 -6.49973e-05 0)
(0.00334631 5.50904e-06 0)
(0.00297419 -8.44581e-05 0)
(0.00378788 -5.09129e-05 0)
(0.00365882 -1.72226e-05 0)
(0.00403634 -1.77024e-05 0)
(0.00381709 -0.000169942 0)
(0.00270021 -0.000196047 0)
(0.00262347 -0.000202864 0)
(0.00371708 -9.89479e-05 0)
(0.00202565 -0.000538351 0)
(0.00374712 -4.77774e-05 0)
(0.00309011 -4.23528e-05 0)
(0.0030182 -6.11092e-05 0)
(0.00310001 -8.74837e-05 0)
(0.00366003 -7.98222e-05 0)
(0.0039036 -8.85886e-05 0)
(0.00325148 -0.00031902 0)
(0.00298743 -0.000135105 0)
(0.00219641 -0.000859452 0)
(0.00108587 -0.00115858 0)
(0.00362099 -0.00027789 0)
(0.00356719 -0.000285316 0)
(0.00179663 -0.00077745 0)
(0.00366496 -0.000113401 0)
(0.00338395 -0.000120855 0)
(0.0034484 -0.00013003 0)
(0.00323929 -1.83067e-05 0)
(0.00395142 -1.76948e-05 0)
(0.0016352 -0.000766579 0)
(0.00352782 -8.85583e-05 0)
(0.00136043 -0.00100128 0)
(0.00348063 -1.71584e-05 0)
(0.0039096 -1.36366e-05 0)
(0.00272769 -0.000200445 0)
(0.00389816 -6.05536e-05 0)
(0.00161044 -0.00153589 0)
(0.00258144 -0.000264575 0)
(0.00301622 -0.000322442 0)
(0.00330242 -6.19537e-05 0)
(0.00333461 -7.20413e-05 0)
(0.0032177 -0.000191033 0)
(0.00153237 -0.00146439 0)
(0.0017924 -0.000584755 0)
(0.000286601 -0.0019919 0)
(0.00179596 -0.000628931 0)
(0.000176912 -0.00232422 0)
(0.00252522 -0.000333334 0)
(0.00259015 -0.000264278 0)
(0.00190478 -0.000569983 0)
(0.00284017 -0.000132748 0)
(0.00240402 -0.000319292 0)
(0.00253486 -0.000261125 0)
(0.00351543 -0.000155794 0)
(0.00351194 -0.000180841 0)
(0.00337026 -0.000172771 0)
(0.00343465 -0.000156189 0)
(0.00337422 -9.11726e-05 0)
(0.00357329 -1.34937e-05 0)
(0.0031807 -2.29504e-05 0)
(0.00191684 -0.00064896 0)
(0.00264881 -0.00019274 0)
(0.00264734 -0.000175678 0)
(0.000952125 -0.00129299 0)
(0.00303725 -0.000126376 0)
(0.00276908 -0.000217852 0)
(0.00276185 -0.000256478 0)
(0.00203282 -0.000458091 0)
(0.00344916 -0.00022845 0)
(0.00320282 -1.06759e-05 0)
(0.000443271 -0.00182235 0)
(0.00365714 -4.40315e-05 0)
(0.0035619 -0.000239748 0)
(0.00324487 -4.42351e-05 0)
(0.00286671 -0.000191942 0)
(0.00294879 -0.000172263 0)
(0.00317313 -2.12944e-05 0)
(0.00349861 -2.7601e-05 0)
(0.00310727 -0.000334898 0)
(0.00328374 -0.00022365 0)
(0.00326862 -0.000255609 0)
(0.000622905 -0.00149559 0)
(0.00326484 -1.58238e-05 0)
(0.00323228 -6.11619e-06 0)
(0.000228156 -0.00179121 0)
(0.0023627 -0.000538988 0)
(0.00284145 -0.000257355 0)
(0.00279878 -0.000331172 0)
(0.00341199 -1.57586e-05 0)
(0.00342763 -1.99645e-05 0)
(0.00230107 -0.000631973 0)
(0.0031097 -0.000128888 0)
(0.00373781 -8.60611e-05 0)
(0.0030914 -0.000251957 0)
(0.00315794 -4.73264e-05 0)
(0.00356051 -3.89575e-05 0)
(0.00212168 -0.000431625 0)
(0.00224221 -0.000377135 0)
(0.0035466 -0.000100489 0)
(0.00329723 -4.36704e-05 0)
(0.00355928 -5.9218e-05 0)
(0.00231899 -0.000392994 0)
(0.00306507 -0.000158392 0)
(0.00313779 -2.7567e-05 0)
(0.00340359 -0.000251795 0)
(0.00359723 -4.52699e-05 0)
(0.00218206 -0.000468576 0)
(0.00337013 -0.000296643 0)
(0.0021884 -0.000370346 0)
(0.00311159 -7.65763e-05 0)
(0.00045274 -0.00213087 0)
(0.00097948 -0.00117494 0)
(0.00225899 -0.000339062 0)
(0.0030357 -0.000124796 0)
(0.00403716 -1.01679e-05 0)
(0.00373899 -0.000241293 0)
(0.00285975 -0.00030132 0)
(0.00317322 -0.000101044 0)
(0.00259789 -0.00064118 0)
(0.0037541 -0.000163249 0)
(0.00381148 -0.000155118 0)
(0.00399072 -3.14621e-05 0)
(0.0039299 -4.64709e-05 0)
(0.00396158 -2.48508e-05 0)
(0.00369266 -0.000222371 0)
(0.000561566 -0.0020785 0)
(0.000237669 -0.0022599 0)
(0.000284859 -0.00223757 0)
(5.88684e-05 -0.00242115 0)
(0.00374132 -0.000141045 0)
(0.00343543 -5.60259e-06 0)
(0.00336794 -0.00020294 0)
(0.00343663 -0.00020212 0)
(0.00300947 -0.000305816 0)
(0.00406735 -8.51528e-06 0)
(0.0037915 -0.000216303 0)
(0.00248092 -0.00027978 0)
(0.00337131 -4.09345e-07 0)
(0.00337786 -2.84239e-05 0)
(0.00402319 -1.94817e-05 0)
(0.00376579 -0.000199252 0)
(0.00329126 6.2493e-06 0)
(0.00288269 -0.000152334 0)
(0.000870295 -0.00169138 0)
(0.00322007 -6.47394e-06 0)
(0.00268229 -0.000561639 0)
(0.00328683 -2.97824e-05 0)
(0.00397482 -1.86899e-05 0)
(0.00366911 -0.000248563 0)
(0.00364314 -3.90303e-06 0)
(0.00332915 -2.81368e-05 0)
(0.00280924 -0.000364471 0)
(0.00318784 -0.000372152 0)
(0.00273257 -0.000442305 0)
(0.00128734 -0.00089936 0)
(0.00251242 -0.000450555 0)
(9.36661e-05 -0.00238764 0)
(0.00202562 -0.000872406 0)
(0.00181159 -0.000987682 0)
(0.00293706 -0.000230526 0)
(0.00191793 -0.000509532 0)
(0.00364288 -0.000131805 0)
(0.00309573 -0.000138243 0)
(0.00244727 -0.000279176 0)
(0.00312758 -5.88713e-05 0)
(0.0025139 -0.000244237 0)
(0.00381736 -2.46937e-05 0)
(0.00386873 -2.84824e-05 0)
(0.00269874 -0.000334943 0)
(0.000553223 -0.00176393 0)
(0.00357933 -7.12175e-05 0)
(0.00307422 -5.37143e-05 0)
(0.00233402 -0.000709927 0)
(0.00264329 -0.000413482 0)
(0.00311797 -3.68897e-05 0)
(0.00222399 -0.000439169 0)
(0.00231232 -0.000329583 0)
(0.00346594 -7.344e-05 0)
(0.00364384 -6.80808e-05 0)
(0.00332599 -0.000361746 0)
(0.0022805 -0.000328233 0)
(0.00373652 -4.93187e-06 0)
(0.00366834 -0.000136332 0)
(0.00256369 -0.000858295 0)
(0.00378238 -0.000138525 0)
(0.00384909 -0.000115993 0)
(0.000775 -0.00178252 0)
(0.00273468 -0.000142324 0)
(0.00357037 -0.000174483 0)
(0.003564 -0.000141277 0)
(0.00292237 -0.000112355 0)
(0.00293292 -9.60982e-05 0)
(0.0015755 -0.000849123 0)
(0.00184408 -0.000806505 0)
(0.00150794 -0.00158605 0)
(0.00341203 -0.000106269 0)
(0.00270403 -0.000306144 0)
(0.0015699 -0.000781482 0)
(0.00256093 -0.000351528 0)
(0.00312106 -5.83722e-05 0)
(0.00207057 -0.000470357 0)
(0.00333748 -4.78508e-05 0)
(0.00249168 -0.000429325 0)
(0.00338555 -4.46862e-05 0)
(0.00341544 -7.55042e-05 0)
(0.00368556 -5.50589e-05 0)
(0.0023078 -0.000360189 0)
(0.00359656 -6.56764e-06 0)
(0.00311953 -0.000362314 0)
(0.00276444 -0.000153737 0)
(0.00286462 -0.000114096 0)
(0.00292488 -0.000239004 0)
(0.00320064 -4.84563e-05 0)
(0.00302112 -0.000168239 0)
(0.00261827 -0.000187221 0)
(0.00259582 -0.000191799 0)
(0.0029777 -0.00012895 0)
(0.00281966 -0.000119984 0)
(0.00337328 -1.06393e-05 0)
(0.0035009 -6.02327e-05 0)
(0.000757211 -0.00135017 0)
(0.00352905 -0.00021664 0)
(0.00346459 -3.27322e-05 0)
(0.00017222 -0.00214587 0)
(0.00230452 -0.000461445 0)
(0.00313472 -7.39025e-05 0)
(0.0035098 -0.00011908 0)
(0.00256574 -0.000395205 0)
(0.000766608 -0.00141508 0)
(0.00347336 -8.69786e-05 0)
(0.00404827 -6.3488e-06 0)
(0.00373512 -0.00026234 0)
(0.00340795 5.66987e-07 0)
(0.00294494 -8.29019e-05 0)
(0.00256652 -0.00029008 0)
(0.00270839 -0.000400326 0)
(0.000467386 -0.00169051 0)
(0.00317537 -2.7744e-05 0)
(0.000345479 -0.00210273 0)
(0.00311036 -0.000127917 0)
(0.00399881 -6.16622e-06 0)
(0.00320557 -8.66144e-06 0)
(0.00399452 -7.53494e-06 0)
(0.0040094 -3.02033e-05 0)
(0.00387159 -0.000121786 0)
(0.00297877 -0.000197655 0)
(0.00185967 -0.00139772 0)
(0.00365365 -0.000304121 0)
(0.00341384 -3.46562e-05 0)
(0.000644085 -0.00153896 0)
(0.00316733 -2.86194e-05 0)
(0.00366437 -0.00028391 0)
(0.00323653 -2.76599e-05 0)
(0.00292316 -8.86477e-05 0)
(0.000248076 -0.00225199 0)
(0.00385347 -3.51322e-05 0)
(0.00292399 -0.000379164 0)
(0.00283307 -0.000554359 0)
(0.00319068 -1.81967e-05 0)
(0.00364478 -0.000180725 0)
(0.00105816 -0.00178985 0)
(0.00285802 -0.000338387 0)
(0.00271043 -0.000152452 0)
(0.0011905 -0.0014824 0)
(0.000123044 -0.00227667 0)
(0.0038225 -6.14913e-05 0)
(0.00360829 -9.58301e-05 0)
(0.00127267 -0.00183312 0)
(0.000589147 -0.0018249 0)
(0.000487582 -0.00199482 0)
(0.00264897 -0.000380017 0)
(0.00347336 -5.04075e-05 0)
(0.00173706 -0.000967967 0)
(0.00367871 -1.0209e-05 0)
(0.00325819 -0.000354924 0)
(0.00108538 -0.00152725 0)
(0.00357403 -0.000198143 0)
(0.00349754 -4.09029e-05 0)
(0.00394817 2.0173e-08 0)
(0.00358761 -0.000326524 0)
(0.00179019 -0.000584608 0)
(0.00294863 -0.00028773 0)
(0.00190675 -0.000525723 0)
(0.000318138 -0.00196169 0)
(0.00321517 -0.000213998 0)
(0.00306915 -6.4632e-05 0)
(0.00148342 -0.00102015 0)
(0.000257749 -0.00229182 0)
(0.00163503 -0.000867663 0)
(0.00333089 -0.000259064 0)
(0.00405664 -1.38576e-06 0)
(0.00408842 -1.42608e-06 0)
(0.00371416 -0.000298254 0)
(0.00376633 -0.000270333 0)
(0.00355965 -2.12871e-06 0)
(0.00304241 -0.000382664 0)
(0.000136202 -0.00234159 0)
(0.00192045 -0.00125369 0)
(0.00380235 -7.30012e-05 0)
(0.00300129 -9.85025e-05 0)
(0.000700926 -0.00159899 0)
(0.00317454 -2.76685e-05 0)
(0.00279441 -0.000123284 0)
(0.00319964 -1.5295e-05 0)
(0.00300396 -0.000232653 0)
(0.00377066 -6.35261e-05 0)
(0.00313623 -0.000228906 0)
(0.000697282 -0.00207899 0)
(0.000521172 -0.00196605 0)
(0.0023639 -0.000408447 0)
(0.0018078 -0.000612206 0)
(0.000261944 -0.00213419 0)
(0.00167698 -0.000683991 0)
(0.00208069 -0.000566741 0)
(0.00245169 -0.00025307 0)
(0.00235618 -0.000296274 0)
(0.0031421 -8.17513e-05 0)
(0.00314717 -5.86555e-05 0)
(0.00390357 -1.15531e-05 0)
(0.00354417 -0.000322075 0)
(0.00367384 -0.000162485 0)
(0.00242769 -0.000262035 0)
(0.00212372 -0.000590649 0)
(0.00193715 -0.000529819 0)
(0.00376861 -3.49979e-05 0)
(0.00207601 -0.000731186 0)
(0.00254069 -0.000363691 0)
(0.00202876 -0.00071077 0)
(0.00229011 -0.000512001 0)
(0.00343062 -0.000272994 0)
(0.00318111 -2.98771e-05 0)
(0.00363267 -0.000160279 0)
(0.00300545 -0.000259032 0)
(0.00230432 -0.000397907 0)
(0.00241232 -0.000363809 0)
(0.00356025 -0.000123817 0)
(0.00361375 -0.000109536 0)
(0.00300549 -7.18318e-05 0)
(0.00233572 -0.000302215 0)
(0.00240277 -0.000427022 0)
(0.00300971 -6.22576e-05 0)
(0.0030634 -4.57904e-05 0)
(0.00302095 -0.00015547 0)
(0.00287176 -9.46545e-05 0)
(0.00312189 -3.63496e-05 0)
(0.0024503 -0.000378951 0)
(0.00241487 -0.000324346 0)
(0.00247015 -0.000326673 0)
(0.00339494 -6.54959e-05 0)
(0.00342097 -5.25761e-05 0)
(0.00248676 -0.000238068 0)
(0.00230262 -0.000314248 0)
)
;

boundaryField
{
    back
    {
        type            empty;
    }
    front
    {
        type            empty;
    }
    down
    {
        type            symmetry;
    }
    right
    {
        type            calculated;
        value           nonuniform List<vector> 10((0.00399514 -3.90256e-05 -4.5065e-21) (0.00407201 -5.36454e-06 4.62421e-21) (0.00385772 -0.000153887 -5.53361e-21) (0.00394483 -7.01633e-05 4.30077e-21) (0.00409443 -3.54736e-06 2.43435e-21) (0.00382303 -0.000208428 -5.5084e-21) (0.00403621 -2.11223e-05 -5.43432e-21) (0.00389984 -0.000111586 4.05798e-21) (0.00410793 3.09032e-07 -1.83835e-21) (0.00378939 -0.000264578 -7.63316e-21));
    }
    up
    {
        type            calculated;
        value           nonuniform List<vector> 
20
(
(0.0015973 -0.000726351 0)
(0.00288501 -0.000405334 0)
(0.000950901 -0.00113329 -3.11336e-20)
(-1.22887e-05 -0.00246423 -1.00235e-20)
(0.00347567 -0.000356938 1.40489e-21)
(0.0020039 -0.000561781 9.42178e-21)
(0.000187572 -0.00201492 -3.05396e-21)
(0.00176848 -0.000655257 0)
(0.00318677 -0.00038801 -2.98685e-21)
(0.00123455 -0.000929604 5.59048e-21)
(0.003323 -0.000376875 -5.46049e-21)
(0.0024843 -0.000447571 3.05705e-21)
(0.000688236 -0.00137491 1.16614e-20)
(0.00229628 -0.000484299 2.63429e-21)
(0.00270481 -0.000418852 2.88897e-21)
(0.000395314 -0.00171192 -5.9833e-21)
(6.90321e-05 -0.00229279 8.72357e-21)
(0.00358219 -0.000337267 -1.45846e-21)
(0.00370854 -0.000308175 -2.99576e-21)
(0.00303993 -0.000395999 1.70086e-21)
)
;
    }
    left
    {
        type            symmetry;
    }
    hole
    {
        type            calculated;
        value           nonuniform List<vector> 8((0.002337 -0.00120633 -9.05451e-22) (0.00301589 -0.000388162 6.69855e-21) (0.000629682 -0.00103065 -1.12032e-19) (0.00308925 -0.000152434 -4.45394e-21) (0.00263138 -0.000944979 1.06648e-20) (0.00160193 -0.00157024 -2.13088e-20) (0.00194335 -0.00142217 0) (0.00286069 -0.000619626 -1.78851e-20));
    }
}


// ************************************************************************* //
