/*--------------------------------*- C++ -*----------------------------------*\
| =========                 |                                                 |
| \\      /  F ield         | OpenFOAM: The Open Source CFD Toolbox           |
|  \\    /   O peration     | Version:  v2012                                 |
|   \\  /    A nd           | Website:  www.openfoam.com                      |
|    \\/     M anipulation  |                                                 |
\*---------------------------------------------------------------------------*/
FoamFile
{
    version     2.0;
    format      ascii;
    class       volSymmTensorField;
    location    "13";
    object      epsilon;
}
// * * * * * * * * * * * * * * * * * * * * * * * * * * * * * * * * * * * * * //

dimensions      [0 0 0 0 0 0 0];


internalField   nonuniform List<symmTensor> 
470
(
(0.000630318 -0.000270588 -1.05401e-19 -6.97177e-05 -1.41402e-21 0)
(0.000499012 -0.000161419 -8.65303e-21 -0.000126966 1.31824e-20 0)
(0.00144156 -0.000228573 -2.82851e-20 -0.000574603 1.25485e-20 0)
(0.000972001 -5.2563e-05 -8.82467e-20 -0.000197715 -1.01705e-20 0)
(0.000804965 -0.000641268 1.32117e-19 -0.000435465 3.79651e-20 0)
(0.00132732 -7.17485e-05 -2.45128e-19 -0.000503437 -3.18305e-20 0)
(0.0010684 -0.000452968 6.55339e-20 -0.000270301 1.7885e-21 0)
(0.000842919 -0.000558817 -1.06888e-19 -0.000457505 -2.73522e-20 0)
(0.00202433 -0.000294226 -1.29381e-20 -0.000860959 -1.21781e-20 0)
(0.00128813 -0.000395536 -1.70564e-19 -0.000554917 -3.44071e-20 0)
(0.00180444 -0.000438378 1.23363e-19 -0.000909153 6.00081e-20 0)
(0.00230239 6.97903e-05 -2.40283e-19 -0.00120512 -1.40977e-19 0)
(0.0022658 4.77384e-05 -1.8651e-19 -0.00107608 -1.24912e-19 0)
(0.000925058 -0.000136015 5.3442e-20 -0.000209991 2.45321e-20 0)
(0.00253755 -1.79539e-05 1.31569e-19 -0.00102224 8.2974e-20 0)
(0.00171891 -0.000335586 6.01199e-20 -0.000696399 -5.51152e-20 0)
(0.00135194 -0.000422942 5.10078e-20 -0.000450291 5.31331e-20 0)
(0.00093458 -0.000147528 -3.72729e-21 -0.0001509 -1.60785e-20 0)
(0.000781392 -7.92585e-05 -7.71572e-20 -0.000131469 1.36541e-21 0)
(0.000480622 -0.000284777 -7.76195e-20 -0.000148546 7.80972e-22 0)
(0.00176031 -0.000295773 9.88482e-20 -0.00077199 8.05273e-20 0)
(0.0011216 -0.000139808 8.40005e-21 -0.000337861 1.29928e-20 0)
(0.00139533 -0.000187365 -6.35385e-20 -0.000612311 -2.67647e-20 0)
(0.00103794 -0.00014769 7.93302e-20 -0.000164824 1.51441e-20 0)
(0.0017839 -0.000262636 -1.79167e-19 -0.00104118 -8.71997e-20 0)
(0.000918021 -0.000480251 7.05719e-20 -0.000333757 -1.32995e-20 0)
(0.00179423 -0.000405266 -4.0745e-20 -0.00106439 -2.34808e-20 0)
(0.00160838 -0.000126188 1.96871e-19 -0.000685348 7.53046e-20 0)
(0.00128107 -0.000116149 9.6895e-20 -0.000516848 -2.49422e-20 0)
(0.00101139 -5.59158e-05 -3.26781e-20 -0.000200267 -7.4456e-21 0)
(0.000556942 -0.000176126 9.51905e-21 -7.77441e-05 -1.06528e-20 0)
(0.00243661 -4.96092e-05 0 -0.00102612 0 0)
(0.00139799 -0.000396045 -1.09106e-19 -0.000549311 -4.08266e-20 0)
(0.00159239 -0.000393938 -5.50996e-20 -0.00119437 -1.33548e-19 0)
(0.0012554 -5.55881e-05 -1.64732e-19 -0.000613225 -1.29616e-20 0)
(0.00126921 -9.07999e-05 1.51114e-21 -0.000509368 3.64042e-20 0)
(0.00265334 -1.26032e-05 1.66591e-20 -0.00118243 9.60751e-21 0)
(0.000709059 -0.000264842 -4.5938e-20 -0.000126105 -1.10326e-20 0)
(0.000510303 -0.000259948 -1.20875e-19 -0.000232456 -3.58559e-20 0)
(0.000382451 -0.000340659 5.42505e-20 -0.000211363 1.49516e-20 0)
(0.00142841 -0.000580705 -4.708e-20 -0.00085812 -1.02346e-21 0)
(0.000774895 -2.37946e-05 -5.59493e-20 -0.000101863 2.00124e-20 0)
(0.0024966 0.000325056 2.57885e-19 -0.00112596 2.48933e-19 0)
(0.00148226 -0.000577518 1.20448e-19 -0.000763067 6.13678e-20 0)
(0.00161121 -1.79016e-05 0 -0.000694229 0 0)
(0.00238039 0.000330264 4.48428e-19 -0.00117618 4.82526e-19 0)
(0.000797314 -0.00048047 -1.52495e-19 -0.000193923 -2.74278e-20 0)
(0.0017464 -0.000389378 5.98037e-20 -0.000803326 5.1503e-20 0)
(0.00179291 -0.000483443 -1.62743e-19 -0.000848223 -8.46109e-20 0)
(0.00177251 -0.000437177 1.93419e-19 -0.00102468 1.05344e-19 0)
(0.00255009 -2.39615e-05 5.03775e-19 -0.00102369 1.35e-19 3.26805e-35)
(0.00192335 -0.000360905 0 -0.000527437 0 0)
(0.000852908 -0.000186127 4.34635e-20 -0.000208778 -1.28082e-21 0)
(0.000864512 -0.000109831 -1.32324e-19 -0.000101072 -1.96839e-20 0)
(0.00107389 -0.000144188 0 -0.000302198 0 0)
(0.00111819 -0.00017668 5.62224e-20 -0.000280531 4.6326e-21 0)
(0.000863967 1.61884e-05 -3.928e-20 -0.000662658 -4.7077e-20 0)
(0.00146479 0.00014786 1.29006e-19 -0.000605878 6.06256e-20 -6.82912e-36)
(0.00135331 -0.000560127 1.87678e-20 -0.000569892 7.26306e-21 0)
(0.00146949 -0.000167012 6.97932e-21 -0.000710695 1.21945e-21 0)
(0.00106296 -0.0004256 1.3588e-19 -0.00033796 2.1044e-20 0)
(0.00213496 -0.00019349 2.06243e-19 -0.00106428 1.45781e-19 0)
(0.00214567 -0.000188018 4.19576e-19 -0.00104462 2.32858e-19 0)
(0.00235536 9.86401e-05 -2.28557e-19 -0.00128942 -2.06737e-19 0)
(0.000972034 -0.000233899 -4.63342e-20 -0.000669585 3.89132e-19 0)
(0.002998 0.000287575 -3.92389e-19 -0.00208935 -4.17065e-19 0)
(0.000655316 -0.000386524 7.91852e-20 -0.000200216 3.14385e-20 0)
(0.00115995 -0.000175865 -8.91784e-21 -0.000347005 1.15969e-20 0)
(0.000735954 -0.000435088 3.67668e-20 -0.000679677 9.21208e-20 0)
(0.00151792 -0.000487971 -1.28782e-19 -0.000699653 -4.8661e-20 0)
(0.00034305 -5.54753e-05 -3.79952e-20 -0.000131413 1.04022e-20 0)
(0.00121338 -0.000465129 -7.85902e-20 -0.000498591 -1.55307e-20 0)
(0.00195408 -8.68362e-05 3.97442e-19 -0.00123118 3.8295e-19 0)
(0.00117368 -0.000590533 0 -0.000452645 0 0)
(0.00223653 0.000181875 -3.2126e-20 -0.00126747 9.31538e-20 0)
(0.00110685 -2.13932e-05 1.98742e-20 -0.0002557 1.72436e-20 -1.41467e-35)
(0.00125666 -0.000375311 3.09812e-21 -0.000454469 -3.82744e-20 0)
(0.00117676 -0.000396271 -1.20869e-20 -0.000433521 -2.28705e-20 0)
(0.00130427 -0.000610076 1.29419e-19 -0.00054911 3.93438e-20 0)
(0.00357577 -0.00024855 8.61821e-20 -0.000694096 -2.90698e-20 0)
(0.00135868 -0.000593927 -1.18927e-19 -0.000659461 -4.76254e-20 0)
(0.00362524 -0.000169663 -8.45804e-20 -0.00176493 -1.77689e-19 0)
(0.00139965 -0.000268329 -1.06487e-19 -0.000621351 7.23445e-20 0)
(0.000728284 -0.000498963 -1.68074e-19 -0.000783507 -9.35414e-20 0)
(0.00203768 -0.000296966 6.56064e-20 -0.000921203 3.09336e-20 0)
(0.00113461 -9.56801e-05 -3.9876e-22 -0.00029376 7.9182e-21 0)
(0.00221891 0.000238918 -5.11447e-19 -0.00124879 -4.45672e-19 0)
(0.000183576 -0.000626082 -2.13279e-19 -9.92963e-05 1.70606e-19 2.35496e-36)
(0.00264515 0.000440273 1.25999e-19 -0.00123419 2.67958e-20 0)
(0.0023106 -3.40269e-05 2.62708e-19 -0.00115922 6.81908e-20 0)
(0.00235425 0.000251061 -2.79131e-19 -0.00132712 -1.61363e-19 0)
(0.00239546 -9.11149e-05 -5.81087e-19 -0.00099313 -3.78183e-19 0)
(0.0011125 -0.000524878 -5.23362e-20 -0.000413328 4.43062e-23 0)
(0.00121667 -0.000426771 -2.15344e-19 -0.000420481 -2.08522e-20 0)
(0.002451 -5.26447e-06 3.15495e-19 -0.00100085 1.83249e-19 0)
(0.00248445 -0.00012018 -9.79128e-20 -0.00108607 -4.02468e-20 0)
(0.000817749 -0.00050426 -1.68909e-19 -0.000278714 -1.35169e-20 0)
(0.0011184 -0.000446784 7.70891e-20 -0.000336877 2.15778e-20 0)
(0.00109047 -0.000635254 -3.65231e-20 -0.000470882 -2.17623e-20 0)
(0.00132523 -0.000162306 1.88156e-19 -0.000567215 7.1487e-20 0)
(0.0010694 -0.000214154 4.01228e-20 -0.0002702 -1.99248e-20 0)
(0.00177648 -0.000388898 -1.54346e-19 -0.000942699 -7.99443e-20 0)
(0.00261655 -0.000240366 0 -0.000832524 0 0)
(0.00107964 -0.000116366 6.84968e-20 -0.00018544 1.37225e-20 0)
(0.00101726 -0.000119656 -6.29431e-20 -0.000224557 -1.14417e-20 0)
(0.00125515 -9.32119e-05 -4.88493e-20 -0.000439778 3.9254e-21 0)
(0.00118788 -0.000123473 4.64683e-20 -0.000459095 -5.42549e-21 0)
(0.000858968 -0.000580794 1.02307e-19 -0.000363783 2.14755e-20 0)
(0.000343726 0.00023213 -4.27266e-21 -0.00167755 -5.50359e-20 0)
(0.00281659 -0.00055113 1.11154e-19 -0.0010461 1.7414e-19 0)
(0.00234045 0.000510072 1.24917e-19 -0.00147241 4.28032e-20 0)
(0.00214659 -0.000327383 2.1228e-19 -0.00135134 1.04558e-19 0)
(0.00108502 -7.91564e-05 1.11146e-20 -0.000231388 5.30168e-21 0)
(0.00125438 -1.10466e-05 3.88326e-20 -0.000547249 -9.46723e-21 2.24791e-36)
(0.000614559 -0.000605677 3.2068e-20 -0.000671071 5.73839e-20 0)
(0.00133308 -0.000558702 -2.29978e-21 -0.000577632 -2.72336e-21 0)
(0.00101663 -2.07367e-05 5.29402e-20 -0.000172825 -2.77174e-20 0)
(0.00209952 -0.00014906 -8.62236e-20 -0.000980373 -6.36998e-20 0)
(0.000985874 -0.000543967 -3.85099e-20 -0.000289199 3.89911e-21 0)
(0.000578503 -1.92135e-05 -1.33036e-21 -6.41944e-05 3.49647e-21 0)
(0.00104121 -0.000568152 -8.45738e-21 -0.000392492 -1.77084e-20 0)
(0.00102257 -0.000172575 3.3288e-20 -0.000260099 -6.36477e-21 0)
(0.000949684 -9.21323e-05 8.40903e-20 -0.000163486 3.82449e-21 0)
(0.00106201 -1.35997e-05 -2.18109e-20 -0.000133604 -2.34303e-20 -1.2197e-35)
(0.00119865 -1.47896e-05 2.56842e-20 -0.000465581 2.89767e-20 -1.44928e-35)
(0.00146576 -0.000506745 -1.03461e-19 -0.0005775 -3.32918e-20 0)
(0.00147459 -0.000557845 -3.38864e-20 -0.000678772 -2.52562e-20 0)
(0.00113709 -0.000210529 1.02896e-19 -0.000282956 3.9374e-20 0)
(0.00229418 -4.23445e-05 -2.90048e-19 -0.000917911 -8.97023e-20 5.10506e-35)
(0.00105209 -0.000165409 -9.2444e-20 -0.000215444 1.06672e-20 0)
(0.000557892 -0.000502517 8.10921e-20 -0.000326473 2.18574e-20 0)
(0.000844095 -0.000530476 1.71911e-20 -0.000316199 4.32533e-21 0)
(0.00105212 -0.000558303 -1.38437e-20 -0.000355892 -1.81397e-20 0)
(0.0010823 -0.000253928 -1.81517e-19 -0.000283264 -5.3973e-20 0)
(0.00114251 -2.14659e-05 -1.9685e-20 -0.000356866 -3.4723e-20 -4.68728e-36)
(0.0013886 -0.000137427 1.13005e-19 -0.000581222 1.61057e-21 0)
(0.0012363 -0.000534917 -6.05703e-20 -0.00045179 -2.46034e-21 0)
(0.000716099 -0.000345897 -3.28231e-19 -0.000862338 -8.31373e-20 0)
(0.00253779 0.000197649 1.6959e-19 -0.00104272 1.05029e-19 0)
(0.00125822 -5.2477e-05 1.10834e-19 -0.000495995 2.25738e-20 0)
(0.00120567 -5.5193e-05 -4.00696e-20 -0.000565007 -3.85525e-21 0)
(0.00187135 -0.000218421 0 -0.00118697 0 0)
(0.00110597 -0.000228789 -1.09818e-19 -0.000351257 -3.96844e-20 0)
(0.00117886 -0.000371983 5.1612e-20 -0.000346185 1.01841e-20 0)
(0.00113195 -0.000343852 1.40288e-20 -0.000391017 -1.86963e-20 0)
(0.000591691 -0.000357614 9.44568e-20 -0.000175002 4.44877e-21 0)
(0.00102681 -6.31113e-05 -8.68012e-20 -0.000136668 -4.06251e-22 0)
(0.00207722 -7.38507e-05 1.0464e-19 -0.00103441 3.94629e-20 0)
(0.00109482 -0.000315656 1.15869e-19 -0.000278683 -2.64974e-20 0)
(0.00209967 0.000122203 8.92373e-20 -0.00114966 1.17622e-19 0)
(0.000749663 -0.000154962 -8.41566e-20 -0.000186827 1.46234e-20 0)
(0.00102603 -5.65911e-05 -3.76902e-20 -0.000152016 -6.78638e-22 0)
(0.00112257 -0.000649102 -1.51278e-20 -0.000683142 -3.25294e-20 0)
(0.00112552 -9.63114e-05 -1.19441e-19 -0.000207219 -2.0535e-20 0)
(0.00206178 -0.000801521 -4.89512e-20 -0.000235349 1.72594e-19 0)
(0.00172233 -0.000415094 -1.11344e-19 -0.000643803 -1.48316e-20 0)
(0.000463849 0.000432777 2.18164e-20 -0.000993931 2.59456e-20 8.23066e-36)
(0.000995434 -0.000404823 -7.12367e-20 -0.000292702 -3.79942e-20 0)
(0.000974115 -0.000405806 -1.43905e-19 -0.000286412 -1.01307e-20 0)
(0.00132161 -0.000361983 1.6801e-19 -0.000468623 2.63862e-20 0)
(0.00167073 -0.000669344 -5.01874e-20 -0.000648043 5.41937e-20 0)
(0.00218264 -0.000151543 -2.66408e-19 -0.00101451 -1.67948e-19 0)
(0.00194557 4.15467e-05 2.01486e-19 -0.000782322 1.42085e-20 9.05885e-36)
(0.00248109 5.66399e-06 0 -0.000967013 0 0)
(0.00227359 0.00051681 1.13764e-19 -0.000903117 1.05104e-19 0)
(0.00121351 -0.000602342 4.5736e-20 -0.000864728 5.08458e-20 0)
(0.00114111 -0.000549416 1.39979e-19 -0.000741949 1.27612e-19 0)
(0.00232758 -0.000139964 5.00763e-20 -0.00108499 6.41173e-20 0)
(0.00126211 -0.000562706 2.32117e-20 -0.000488729 1.90959e-20 0)
(0.00141239 -0.000532356 1.80917e-19 -0.000854141 8.1244e-20 0)
(0.00120882 -0.000642262 1.24818e-19 -0.000812412 1.2501e-20 0)
(0.00119328 -0.000275888 -9.71309e-20 -0.00040657 -8.04675e-21 0)
(0.00120597 -0.000251946 -6.23827e-20 -0.000428307 1.91993e-20 0)
(0.00122011 -0.000333486 1.80069e-20 -0.000453323 2.67429e-20 0)
(0.00121052 -0.000328368 1.25913e-19 -0.000406153 -2.08681e-20 0)
(0.00110771 -0.000391663 -2.30369e-19 -0.000311996 -2.59913e-20 0)
(0.000833506 -8.81735e-05 3.45618e-20 -0.00015727 4.3589e-21 0)
(0.00017852 -0.000153132 0 -0.000225989 0 0)
(0.00184787 -0.000240393 3.6486e-19 -0.00118007 2.57835e-19 0)
(0.00122438 -0.000572383 1.90987e-20 -0.000707054 8.24858e-21 0)
(0.00111341 -0.000653785 9.29277e-20 -0.000642721 5.89566e-20 0)
(0.00245185 0.000166896 2.23584e-19 -0.00106423 9.59415e-20 0)
(0.00119984 -0.000494372 8.51558e-20 -0.000489649 -1.95191e-20 0)
(0.00154204 -0.000443647 -1.20112e-20 -0.000585324 -2.86046e-20 0)
(0.00155504 -0.000404149 8.76484e-20 -0.000707367 -5.37026e-22 0)
(0.00204735 -0.000353472 1.35949e-19 -0.000923112 8.21943e-20 0)
(0.00124292 -0.000211855 -9.18959e-20 -0.000520525 8.26795e-21 0)
(0.000272665 -2.7527e-05 0 -0.000344398 0 0)
(0.00202428 0.000397601 4.51502e-20 -0.001009 2.64686e-19 0)
(0.000988792 -0.000189887 -1.38631e-19 -0.000206233 -2.88908e-20 0)
(0.00121841 -0.00013006 2.62346e-20 -0.000503896 -1.5031e-20 0)
(0.0008684 -0.000408865 -5.43031e-20 -0.000236123 1.10068e-20 0)
(0.00137125 -0.000494014 0 -0.000610852 0 0)
(0.00141245 -0.000453764 -3.45344e-20 -0.000493951 1.86783e-20 0)
(0.000531965 -0.000349178 0 -0.000227941 0 0)
(0.000882972 -0.000233686 -4.56393e-20 -0.000168316 7.13821e-21 0)
(0.00149082 -0.000129568 -1.59911e-19 -0.000609672 7.05645e-21 0)
(0.00130871 -0.000299154 -1.81493e-21 -0.000535528 -2.94022e-20 0)
(0.00137516 -0.000249516 1.5073e-19 -0.000516399 4.11462e-20 0)
(0.0113199 -0.00248684 3.77456e-19 -0.0142586 -7.47334e-19 7.01824e-34)
(0.000385051 -0.000163445 3.47308e-20 -0.000124761 4.57944e-21 0)
(0.000319065 -0.000156903 -3.01648e-20 -0.000135128 -1.00178e-20 0)
(0.00850817 -0.000579194 -1.13965e-18 -0.00512555 -4.03958e-19 0)
(0.00123449 -0.000350669 3.17496e-19 -0.000998379 1.29173e-19 0)
(0.0015607 -0.000348987 -1.16555e-19 -0.000665145 2.15823e-20 0)
(0.00175933 -0.000218165 9.46967e-21 -0.000618313 -3.17936e-20 0)
(0.000646479 -0.00016485 7.91123e-20 -0.000120402 -3.43328e-20 0)
(0.000785472 -0.000240979 6.18961e-20 -0.000130351 -3.64801e-21 0)
(0.00128781 -0.000340686 4.05558e-20 -0.00057685 1.03789e-20 0)
(0.000789721 0.000213542 -1.87123e-20 -0.0013637 -1.0535e-19 -8.37623e-36)
(0.00108374 -0.000218815 2.06896e-20 -0.000308718 -5.25125e-23 0)
(0.0014362 -0.000304003 1.44309e-20 -0.000573908 -3.27777e-20 0)
(0.000350453 8.1793e-05 -2.86716e-20 -0.00171933 -1.22326e-19 0)
(0.000938943 -0.000200063 4.11293e-20 -0.000217599 -9.03729e-21 0)
(0.00203352 -0.000253444 -1.05905e-19 -0.000880935 -4.05104e-20 0)
(0.0019614 -0.00032047 1.72968e-19 -0.000883301 7.85712e-20 0)
(0.00107969 -0.000316808 1.01705e-19 -0.000338323 4.51742e-20 0)
(0.000919768 -0.000414909 -1.05362e-20 -0.000159926 2.4458e-20 0)
(0.000988114 -0.000265968 2.76096e-20 -0.000244169 2.77929e-20 0)
(0.00142381 -0.000551256 -1.59239e-19 -0.00100273 -1.1814e-19 0)
(0.000244284 -0.000113534 -1.32232e-19 -0.000855955 -9.28139e-20 0)
(0.000690784 -0.000456494 -7.30214e-20 -0.000220873 -1.26973e-21 0)
(0.0013342 -0.000210933 -1.79814e-19 -0.000485101 -1.55885e-20 0)
(0.000977526 -0.000239824 -2.65003e-20 -0.000227171 -1.03872e-20 0)
(0.00165125 -0.000370393 -2.30091e-19 -0.000922404 -2.07967e-19 0)
(0.00137031 -0.000127034 -1.16767e-19 -0.000537918 -1.20934e-19 0)
(0.00177666 -0.000398288 -1.83855e-19 -0.00085283 -9.2305e-20 0)
(0.000500436 -0.000294388 7.70585e-20 -0.000573867 4.67871e-20 0)
(0.00250297 0.000491699 1.81465e-19 -0.00112096 1.84418e-19 0)
(0.00262651 4.99833e-05 -1.5534e-19 -0.00113433 -1.55099e-19 0)
(0.00169043 -0.000506243 -2.75343e-19 -0.000811995 -1.46489e-19 0)
(0.000315036 -0.000360874 -1.13316e-19 -0.000577649 -1.02873e-19 0)
(0.00101622 -9.44177e-06 -1.51444e-20 -7.26428e-05 -2.35826e-21 0)
(0.00122091 -1.46299e-05 8.40893e-20 -0.000519838 4.19963e-20 0)
(0.00153097 -0.000253969 -2.65916e-20 -0.000705524 5.41384e-20 0)
(0.00108002 -0.000494636 -6.0804e-20 -0.000471767 7.53874e-22 0)
(7.73892e-05 0.000181552 1.92024e-19 -0.000768191 2.8417e-19 0)
(0.00119182 -9.06022e-05 0 -0.000417087 0 0)
(0.00119445 -5.82316e-05 -5.47583e-20 -0.000454785 -5.07086e-20 0)
(0.00104959 -5.91401e-05 -4.89688e-20 -0.000143606 -1.47134e-20 0)
(0.00105867 -0.000105259 0 -0.000218638 0 0)
(0.00107563 -4.84769e-05 1.27016e-20 -0.000137396 3.95924e-21 0)
(0.00117749 -5.71173e-05 -4.99516e-21 -0.000517627 -1.09009e-20 0)
(0.00381257 -0.000484046 1.05632e-19 -0.000720736 1.57443e-19 0)
(0.00479205 0.00010117 4.19982e-19 -0.0021477 7.1046e-20 0)
(0.00276154 0.000507039 -2.20328e-19 -0.000944983 -1.68086e-19 0)
(0.00213647 -5.85618e-05 2.09977e-19 -0.00061708 1.03209e-19 0)
(0.00118344 -0.000136712 6.2436e-20 -0.000358526 4.42411e-21 0)
(0.000683721 -9.94196e-05 1.01718e-19 -0.000175077 1.78369e-20 0)
(0.00125489 -0.000292649 -1.15102e-21 -0.00048369 -2.23398e-20 0)
(0.0012702 -0.000258939 -1.88196e-20 -0.000458799 2.11686e-20 0)
(0.00153625 -0.000216173 1.96095e-19 -0.000632555 -8.97507e-20 0)
(0.00102153 -1.0096e-05 -2.12576e-20 -0.000111587 -4.82734e-21 -5.34825e-36)
(0.00121922 -5.77647e-06 4.77787e-20 -0.000484798 2.44292e-20 -1.97087e-35)
(0.00165769 -0.0004316 1.51576e-19 -0.000746421 4.21385e-20 0)
(0.000734107 -0.000181821 -2.11129e-20 -1.053e-05 8.82892e-22 0)
(0.000830949 -0.000285686 4.18346e-20 -0.000136221 6.70201e-21 0)
(0.0010633 -4.71674e-05 3.5772e-20 -8.2977e-05 7.33737e-21 0)
(0.0011881 -4.09805e-05 1.54951e-19 -0.000506832 4.7875e-20 0)
(0.000421722 -1.16823e-05 8.07584e-21 -8.25151e-05 1.48254e-20 0)
(0.00134465 -0.000518047 -8.15673e-21 -0.000492091 -2.44965e-20 0)
(0.00317263 0.000325045 -2.9597e-19 -0.00175575 -1.94825e-19 0)
(0.000311358 -3.83453e-06 1.27225e-20 -0.000156281 -3.48105e-21 0)
(0.000649573 -3.41556e-05 5.53422e-20 -0.000558001 -2.7728e-19 0)
(0.000813821 -0.00032724 5.29894e-20 -0.000113368 4.51127e-21 0)
(0.00105799 -6.50696e-05 7.73245e-20 -0.000112775 1.62135e-20 0)
(0.00121283 -4.64887e-05 -2.78324e-20 -0.000503473 -3.4857e-20 0)
(0.000890578 -1.38683e-05 5.50035e-20 -0.000168147 -8.49949e-21 0)
(0.000765006 -0.000344211 0 -0.000193003 0 0)
(0.00169978 -0.000140684 -8.12469e-20 -0.00071208 -6.39846e-20 0)
(0.0014221 -2.53546e-05 8.85469e-20 -0.000604799 1.59243e-20 1.47532e-35)
(0.000500785 -7.81252e-05 9.13849e-20 -0.000957271 -4.58097e-20 0)
(0.0024977 -1.59207e-05 -1.03042e-19 -0.00113639 -4.50355e-20 -1.44798e-35)
(0.000989234 -0.000494407 0 -0.000950677 0 0)
(0.00232933 0.000501267 2.11373e-19 -0.000645413 1.49662e-19 0)
(0.001562 -0.000466128 2.16518e-19 -0.000808883 -3.89381e-20 0)
(0.00164847 -0.000231053 1.5063e-19 -0.00109489 2.01521e-19 0)
(0.00146407 -0.000405672 -1.45033e-19 -0.000563271 -6.19725e-20 0)
(0.001986 -0.000343283 -3.13023e-21 -0.000982279 2.86511e-21 0)
(0.00119331 -0.000230966 -2.36161e-20 -0.000322023 -1.98782e-20 0)
(0.00127017 -0.000457745 9.26301e-20 -0.000414475 -1.20715e-20 0)
(0.00174315 -0.000451505 5.17523e-20 -0.00072484 1.24675e-21 0)
(0.000922972 -0.000497781 1.44075e-19 -0.000328968 3.43784e-20 0)
(0.00155325 -0.000502735 6.47544e-20 -0.000685952 9.6373e-21 0)
(0.00103909 -9.41289e-05 -3.47536e-20 -0.000179245 -9.19002e-21 0)
(0.00101616 -0.000104792 1.13734e-19 -0.000189739 8.93183e-21 0)
(0.00166189 -0.000228176 -2.98843e-19 -0.000712573 3.24004e-21 0)
(0.00244429 0.000448623 3.12025e-20 -0.000781017 5.55468e-20 0)
(0.00103437 -0.000287895 -1.8092e-19 -0.000286837 -2.00758e-20 0)
(0.000362941 -0.000496466 -7.60337e-20 -0.000344219 -2.91713e-20 0)
(0.0012045 -0.000308578 1.26748e-19 -0.00110341 -2.63909e-19 0)
(0.00083395 -0.000477455 -1.51244e-19 -0.000734644 5.90967e-20 0)
(0.000523596 -0.000385868 -6.07524e-20 -0.00024174 -1.03672e-20 0)
(0.00222847 -0.000139127 3.07799e-19 -0.000838686 8.31652e-20 0)
(0.00174217 -0.000413214 -5.86431e-20 -0.000832471 4.17966e-21 0)
(0.00103846 -0.000330898 1.47817e-19 -0.000261429 2.14096e-20 0)
(0.0010523 -0.000239655 1.0721e-19 -0.000239759 1.70539e-20 0)
(0.00132942 -2.39938e-05 1.0338e-19 -0.000548492 4.69482e-20 3.95382e-35)
(0.00186021 -0.000424908 -4.76383e-20 -0.000807138 -2.2655e-20 0)
(0.000946508 -1.4742e-05 -5.01444e-20 -0.000178553 -4.87089e-21 0)
(0.00113108 -0.000215225 -1.12409e-19 -0.000414498 -9.82376e-23 0)
(0.000586367 -0.000122272 -6.2997e-20 0.000416818 2.35762e-19 -2.7367e-35)
(0.00112878 -0.000105615 5.96592e-20 -0.000420295 4.82405e-21 0)
(0.00115657 -7.36486e-05 -7.68981e-20 -0.0003707 -2.3101e-20 0)
(0.00285831 0.000360321 -3.26965e-19 -0.00173086 -1.8775e-19 0)
(0.0011388 -0.000616358 -8.66945e-20 -0.000518765 -2.98845e-20 0)
(0.0012064 -0.000219031 -5.42905e-21 -0.000444597 2.3767e-20 0)
(0.00115054 -0.000277667 -8.29959e-20 -0.000381245 -4.36566e-20 0)
(0.000732112 -0.000527407 -1.32637e-19 -0.000612781 -1.09233e-19 0)
(0.00065718 -0.000560709 1.13613e-19 -0.000408168 2.39373e-20 0)
(0.0021597 -0.000102908 1.81178e-20 -0.00111568 -1.37771e-21 0)
(0.00183099 -0.000133562 -4.15653e-20 -0.00119098 -2.01491e-19 0)
(0.00168046 -0.001167 -3.66871e-19 -0.00245863 -1.77022e-21 1.03836e-34)
(0.00108481 -0.000385734 -1.20121e-19 -0.000355781 8.15181e-21 0)
(0.000874112 -0.000318916 -1.92603e-19 -0.000730595 -1.13612e-19 0)
(0.00217168 -0.000122043 8.40927e-20 -0.00116517 1.24729e-19 0)
(0.00112169 -0.000425122 1.67148e-19 -0.000988953 -7.09948e-20 0)
(0.000191709 -0.000325435 -4.98637e-20 -0.000405445 1.23765e-20 0)
(0.00223756 -0.000183279 -3.22076e-19 -0.000951867 -1.25454e-19 0)
(0.000880059 -0.000370895 -1.77703e-19 -0.000211795 -2.60268e-20 0)
(0.00197366 -2.51606e-05 -2.91941e-20 -0.000786952 -2.84564e-20 1.37062e-35)
(0.00090361 -0.000331647 1.15585e-19 -0.000201395 2.16294e-20 0)
(0.00102431 -0.00037451 -6.38586e-20 -0.000274047 -3.34115e-20 0)
(0.0010264 -0.000219339 -2.67604e-20 -0.000241844 4.75899e-21 0)
(0.00191028 -0.000293763 0 -0.000821107 0 0)
(0.000869558 -5.73837e-05 6.93894e-20 -0.000160873 2.09092e-20 0)
(0.00146372 -8.15343e-05 -1.74113e-19 -0.000623855 -1.3693e-20 0)
(0.000890278 -0.0006294 1.22022e-19 -0.000577199 3.50684e-20 0)
(0.000814069 -0.000645893 -8.41211e-20 -0.000555955 -2.3117e-20 0)
(0.000644438 -0.000164308 1.26543e-19 -0.000802772 -5.79678e-20 0)
(0.000895083 -0.000492115 -4.89581e-20 -0.000278938 -3.09542e-22 0)
(0.000547198 -0.000232739 3.16716e-21 -0.000800804 -5.35777e-21 0)
(0.00145047 -0.000579 -3.03837e-19 -0.000571469 -1.04603e-19 0)
(0.00138389 -0.000610125 -1.02014e-19 -0.000672644 -3.89879e-20 0)
(0.000656739 -0.000514822 2.44788e-20 -0.000539359 3.6284e-20 0)
(0.00111592 -0.000577598 -6.78185e-20 -0.00051512 -3.05993e-20 0)
(0.000618817 -0.000110072 1.1195e-20 -4.61887e-05 6.24001e-21 0)
(0.000986795 -0.000316036 1.49305e-19 -0.000248129 6.90284e-21 0)
(0.00248926 2.77748e-05 -4.43788e-19 -0.000997419 -1.11701e-19 6.24289e-35)
(0.00127236 -0.000187852 2.65682e-20 -0.000451375 -1.56158e-20 0)
(0.000870848 -0.000248152 -5.36575e-20 -0.000158216 -1.02178e-20 0)
(0.00596312 -0.000284718 4.50631e-19 -0.00343421 7.3356e-20 0)
(0.00207665 -1.34651e-05 -1.48894e-19 -0.000903017 -2.02159e-20 4.77531e-36)
(4.9188e-05 -0.000138331 3.7754e-20 -0.000584723 4.40888e-20 0)
(0.00115327 -0.000312348 1.24291e-19 -0.000325431 3.69593e-20 0)
(0.00183532 -0.000123282 1.14449e-20 -0.000804393 -3.81605e-20 0)
(0.00242222 0.000165542 -1.95675e-19 -0.0011025 -1.32833e-19 0)
(0.00104808 -0.000340429 2.7456e-19 -0.000337238 9.24969e-21 0)
(0.00100745 -2.489e-05 -2.17711e-20 -8.35012e-05 -7.46572e-21 0)
(0.00121602 -1.12031e-05 4.33047e-20 -0.000517587 -1.30384e-20 0)
(0.00064958 -7.10045e-06 3.80688e-21 -8.95891e-05 6.18222e-21 0)
(0.00100481 -0.000571688 2.35359e-19 -0.000412706 6.82323e-20 0)
(0.00174065 -0.00038686 -1.32239e-19 -0.000713197 -1.41299e-20 0)
(0.00176461 -2.06892e-05 -2.31052e-21 -0.000784069 -2.49134e-20 1.0722e-35)
(0.00211227 4.3583e-05 1.44988e-20 -0.00109612 5.78574e-20 -9.58071e-36)
(0.000184618 -0.000236222 0 -0.000763948 0 0)
(0.00197076 0.000346235 -3.21104e-19 -0.000980705 -3.50154e-19 0)
(0.00122364 -0.000488425 8.89828e-20 -0.000359772 -1.87529e-20 0)
(0.00103763 -4.05562e-05 1.71024e-20 -8.50568e-05 3.81764e-22 0)
(0.000179836 -0.000195452 2.6703e-20 -0.000275976 1.81936e-20 0)
(0.00102748 -2.24838e-06 1.45899e-20 -8.86687e-05 9.18797e-21 0)
(0.00108249 -8.91564e-06 4.44496e-20 -0.000193417 4.15948e-20 -1.79435e-35)
(0.00116357 -7.00811e-06 -3.44675e-20 -0.000417064 -3.01735e-20 -1.39298e-35)
(0.0013607 -0.000448411 8.36495e-20 -0.00060076 1.84637e-20 0)
(0.000946519 -0.00103242 0 -0.000506248 0 0)
(0.00121697 -1.55632e-05 2.02539e-20 -0.000533423 2.55086e-20 0)
(0.000853926 -0.000304638 7.76599e-20 -0.000198071 2.98503e-20 0)
(0.00249652 0.000158131 -2.63952e-19 -0.000943887 -1.8472e-19 0)
(0.000352852 -0.000295629 -3.31323e-20 -0.000419042 -1.33002e-20 0)
(0.00122464 -1.10593e-05 0 -0.000528898 0 0)
(0.000776319 -0.000423418 6.5511e-20 -0.000191211 -2.0036e-20 0)
(0.00106807 -0.000617757 -1.59223e-21 -0.000419328 4.68552e-22 0)
(0.00186138 0.000659975 -2.4861e-19 -0.000775715 -2.95916e-19 0)
(0.00106711 -0.00010523 4.9057e-20 -0.000165078 8.58167e-21 0)
(0.000299057 0.000272588 -2.69586e-19 -0.00138136 -3.02717e-19 0)
(9.04311e-05 0.000379195 9.12214e-20 -0.000642717 -4.97318e-19 -1.3045e-34)
(0.000396615 2.31409e-05 0 -0.000796384 0 0)
(0.00122665 -0.000160062 4.70746e-20 -0.000415711 -5.61123e-21 0)
(0.00282348 -0.00114473 3.17392e-19 -0.00190282 3.22043e-20 0)
(0.000530742 -0.000182072 -2.20801e-20 -0.00105327 3.383e-21 0)
(0.00116768 -0.000635828 4.96978e-20 -0.000627302 2.13431e-20 0)
(0.00221715 -0.000182599 3.78185e-20 -0.00125806 -1.15544e-19 0)
(0.00154495 6.3085e-05 5.35539e-20 -0.00073453 -8.24968e-20 -4.36831e-35)
(0.00107241 -0.000161611 -2.31391e-20 -0.0002403 -7.37813e-21 0)
(0.00106694 -0.000276209 -4.88069e-20 -0.000310809 4.58324e-21 0)
(0.00812175 -0.00228269 -2.01001e-19 -0.0026816 -1.69179e-19 0)
(0.00236113 0.00050888 1.91922e-19 -0.00106807 1.46779e-19 0)
(0.00231019 0.000776862 4.97353e-20 -0.000902108 2.13994e-20 0)
(0.00185733 -0.00010325 1.80225e-19 -0.000782872 -5.18056e-20 0)
(0.000942447 -0.000289171 7.47235e-20 -0.000220471 7.12629e-21 0)
(0.00197584 -0.000145209 -3.67186e-19 -0.000949203 -3.16428e-19 0)
(0.000954487 -6.57434e-05 3.74678e-20 -0.000150651 6.66744e-21 0)
(0.00137317 -7.14516e-05 1.2024e-19 -0.000592017 -6.30348e-21 0)
(0.00236625 -1.41244e-05 1.72925e-19 -0.0014496 6.49767e-20 0)
(0.00119421 -0.000196919 -4.80132e-21 -0.000469489 2.37772e-20 0)
(0.000914903 -0.000283603 4.40672e-20 -0.000215475 1.77456e-20 0)
(0.00102542 1.38348e-05 7.35622e-20 -0.000108936 -7.22487e-21 0)
(0.00123617 3.15675e-06 3.0839e-20 -0.000517999 1.1823e-20 6.47244e-36)
(0.00222698 -0.000258803 -2.07797e-19 -0.000932805 -1.10399e-19 0)
(0.00158753 -0.000284433 1.52565e-19 -0.000622201 2.50233e-20 0)
(0.00226082 -0.000203008 7.93512e-20 -0.00100294 3.37231e-20 0)
(0.0065404 -0.000333346 9.46323e-20 -0.00399948 4.52457e-19 0)
(0.00136459 -0.000333246 7.11223e-20 -0.000473518 -7.26513e-21 0)
(0.000524844 -0.000427416 2.71154e-20 -0.00042514 1.1358e-20 0)
(0.00210372 -1.11637e-06 3.87129e-20 -0.00125081 -8.84045e-20 0)
(0.00216214 0.00035085 2.20118e-19 -0.000594146 1.85446e-19 0)
(0.00222218 -3.40141e-05 -7.13507e-20 -0.00105358 2.03841e-20 0)
(0.00128642 -0.000193086 -8.83441e-20 -0.000588128 -1.53384e-20 0)
(0.00101258 1.45851e-05 -6.67267e-20 -6.80018e-05 -1.04631e-20 0)
(0.00102379 -6.11882e-06 2.42434e-20 -6.70171e-05 6.68567e-22 -5.04668e-36)
(0.00121947 -1.03095e-06 8.8065e-20 -0.000521369 2.96002e-20 2.36695e-35)
(0.00121796 8.91753e-07 9.93727e-20 -0.000506643 7.35295e-20 -6.23282e-35)
(0.000834183 -1.15359e-06 8.52885e-20 -0.000134803 8.36582e-21 0)
(0.00154653 -5.52564e-06 -2.47945e-20 -0.000619628 -1.46319e-20 6.92696e-36)
(0.0010916 0.000177877 2.11726e-20 -0.00059395 -1.15993e-19 0)
(0.00166756 -0.000516662 -2.80627e-19 -0.000362933 -1.17333e-19 0)
(0.00106322 -0.000162331 -1.08593e-19 -0.000258094 -3.4246e-20 0)
(0.000479267 -0.000475794 1.48577e-20 -0.000424347 3.49987e-20 0)
(0.00238714 0.000414324 1.28199e-19 -0.00104343 2.77932e-19 0)
(0.000366735 -0.000336198 3.39629e-20 -0.000168675 2.58421e-20 0)
(0.00114368 -0.00061097 1.55965e-19 -0.000598102 4.55685e-20 0)
(0.000280723 -0.000223673 6.66652e-20 -0.000185298 3.30162e-20 0)
(0.0014572 -0.000350194 1.03222e-19 -0.000583975 2.48512e-20 0)
(0.00108769 -0.000183352 -2.4847e-20 -0.000226882 -1.50856e-21 0)
(0.00134499 -0.000332305 -2.40111e-19 -0.000553857 -6.97546e-20 0)
(0.00783827 -0.0010112 -1.2993e-19 -0.00287751 -1.72973e-19 0)
(0.00320394 0.000654813 2.6681e-19 -0.00124603 1.92226e-19 0)
(0.00134989 -0.000428688 -1.24736e-19 -0.000992024 -5.68847e-22 0)
(0.0020227 -0.000249215 -3.09396e-19 -0.000979195 -1.97721e-19 0)
(0.00154308 0.000425465 -3.70416e-20 -0.000865645 -1.5227e-19 0)
(0.0021647 -0.000109975 7.58067e-20 -0.00101536 1.50119e-19 0)
(0.00176827 -0.000400701 1.44759e-19 -0.00099811 1.17818e-19 0)
(0.0016148 -0.000521165 -7.59331e-20 -0.000746556 -2.90263e-20 0)
(0.00165994 -0.000454674 -2.24972e-19 -0.000712327 -1.03444e-19 0)
(0.000479972 -0.000107585 6.78093e-20 -0.000999073 8.36719e-20 0)
(0.000375114 -0.000112644 3.43368e-20 -0.000734168 3.98339e-20 0)
(0.00101525 -4.19271e-05 7.43978e-20 -0.000161638 -2.44208e-20 0)
(0.00123409 -3.23053e-05 -7.95164e-20 -0.000547793 -2.41128e-20 0)
(0.0011907 -0.000165427 -5.7937e-20 -0.000399639 1.58319e-21 0)
(0.0015302 -0.000579013 4.43098e-19 -0.000837501 1.97848e-19 0)
(0.00169242 -0.000342088 -5.42176e-19 -0.001061 -2.12226e-19 0)
(0.0021718 -0.000190678 1.16474e-21 -0.00105435 -2.54429e-20 0)
(0.000991937 -0.000140584 9.43908e-20 -0.000214285 5.33673e-21 0)
(0.00165816 -0.00023323 -3.03872e-19 -0.00117486 -2.95942e-19 0)
(0.00191777 -0.000196164 2.25307e-19 -0.000784219 1.20924e-19 0)
(0.0016107 -0.000357491 7.57289e-20 -0.00114491 -3.88349e-20 0)
(0.00144975 -0.00045643 1.61596e-19 -0.000940576 1.10434e-19 0)