/*--------------------------------*- C++ -*----------------------------------*\
| =========                 |                                                 |
| \\      /  F ield         | OpenFOAM: The Open Source CFD Toolbox           |
|  \\    /   O peration     | Version:  v2012                                 |
|   \\  /    A nd           | Website:  www.openfoam.com                      |
|    \\/     M anipulation  |                                                 |
\*---------------------------------------------------------------------------*/
FoamFile
{
    version     2.0;
    format      ascii;
    class       pointVectorField;
    location    "13";
    object      pointD;
}
// * * * * * * * * * * * * * * * * * * * * * * * * * * * * * * * * * * * * * //

dimensions      [0 1 0 0 0 0 0];


internalField   nonuniform List<vector> 
530
(
(0.00305114 0 -2.17934e-21)
(0.00398108 0 -8.92313e-22)
(0.00365582 -0.000277425 -5.16918e-21)
(0 -0.0024199 -4.95475e-21)
(0 -0.00136723 -5.60769e-20)
(0.00305114 0 -2.17934e-21)
(0.00398108 0 -8.92313e-22)
(0.00365582 -0.000277425 -5.16918e-21)
(0 -0.0024199 -4.95475e-21)
(0 -0.00136723 -5.60769e-20)
(0.00310074 0 0)
(0.00312255 0 0)
(0.00313665 0 0)
(0.00315895 0 0)
(0.00319331 0 0)
(0.00324025 0 0)
(0.00329672 0 0)
(0.00335985 0 0)
(0.00343337 0 0)
(0.0035141 0 0)
(0.00359994 0 0)
(0.00370247 0 0)
(0.00380523 0 0)
(0.00390349 0 0)
(0.00399941 -1.36279e-06 2.89509e-22)
(0.00398189 -3.90193e-06 3.4274e-21)
(0.00395348 -1.22572e-05 -3.9821e-22)
(0.00391598 -2.84788e-05 -4.82819e-21)
(0.00387138 -5.21785e-05 -8.9461e-23)
(0.00382487 -8.7374e-05 4.06703e-21)
(0.00378236 -0.000128033 -7.18642e-22)
(0.00374489 -0.000175112 -5.36841e-21)
(0.00371155 -0.000228929 -6.38954e-21)
(0.00355506 -0.000312844 -2.16623e-21)
(0.00344189 -0.000336628 -2.5434e-23)
(0.00331589 -0.000355933 -1.9709e-21)
(0.00317539 -0.000371069 -4.10648e-21)
(0.00303771 -0.000380361 -6.24876e-22)
(0.00289091 -0.000388763 8.27232e-22)
(0.00272781 -0.000399859 1.40672e-21)
(0.00253269 -0.000420395 2.89509e-21)
(0.00233373 -0.000452259 2.77046e-21)
(0.00209962 -0.00050793 5.87333e-21)
(0.00184231 -0.000591337 4.59125e-21)
(0.00164408 -0.000671596 0)
(0.00138346 -0.000805499 2.73234e-21)
(0.00106767 -0.00100433 -1.24823e-20)
(0.000800465 -0.00122221 -9.50526e-21)
(0.000528254 -0.00150594 2.76536e-21)
(0.000282814 -0.00182044 -4.4359e-21)
(0.000123263 -0.00210651 2.82458e-21)
(2.60959e-05 -0.00232813 -6.3826e-22)
(0 -0.00239925 0)
(0 -0.0023223 0)
(0 -0.00218629 0)
(0 -0.00192336 0)
(0.00109901 -0.00126185 -6.62365e-20)
(0.00174216 -0.00146106 -1.04361e-20)
(0.00209723 -0.00128369 -4.29465e-22)
(0.00243103 -0.00105013 4.76988e-21)
(0.00268493 -0.000763307 -3.51422e-21)
(0.00287137 -0.000491426 -5.46161e-21)
(0.00298225 -0.000263521 1.08336e-21)
(0.00310074 0 0)
(0.00312255 0 0)
(0.00313665 0 0)
(0.00315895 0 0)
(0.00319331 0 0)
(0.00324025 0 0)
(0.00329672 0 0)
(0.00335985 0 0)
(0.00343337 0 0)
(0.0035141 0 0)
(0.00359994 0 0)
(0.00370247 0 0)
(0.00380523 0 0)
(0.00390349 0 0)
(0.00399941 -1.36279e-06 2.89509e-22)
(0.00398189 -3.90193e-06 3.4274e-21)
(0.00395348 -1.22572e-05 -3.9821e-22)
(0.00391598 -2.84788e-05 -4.82819e-21)
(0.00387138 -5.21785e-05 -8.9461e-23)
(0.00382487 -8.7374e-05 4.06703e-21)
(0.00378236 -0.000128033 -7.18642e-22)
(0.00374489 -0.000175112 -5.36841e-21)
(0.00371155 -0.000228929 -6.38954e-21)
(0.00355506 -0.000312844 -2.16623e-21)
(0.00344189 -0.000336628 -2.5434e-23)
(0.00331589 -0.000355933 -1.9709e-21)
(0.00317539 -0.000371069 -4.10648e-21)
(0.00303771 -0.000380361 -6.24876e-22)
(0.00289091 -0.000388763 8.27232e-22)
(0.00272781 -0.000399859 1.40672e-21)
(0.00253269 -0.000420395 2.89509e-21)
(0.00233373 -0.000452259 2.77046e-21)
(0.00209962 -0.00050793 5.87333e-21)
(0.00184231 -0.000591337 4.59125e-21)
(0.00164408 -0.000671596 0)
(0.00138346 -0.000805499 2.73234e-21)
(0.00106767 -0.00100433 -1.24823e-20)
(0.000800465 -0.00122221 -9.50526e-21)
(0.000528254 -0.00150594 2.76536e-21)
(0.000282814 -0.00182044 -4.4359e-21)
(0.000123263 -0.00210651 2.82458e-21)
(2.60959e-05 -0.00232813 -6.3826e-22)
(0 -0.00239925 0)
(0 -0.0023223 0)
(0 -0.00218629 0)
(0 -0.00192336 0)
(0.00109901 -0.00126185 -6.62365e-20)
(0.00174216 -0.00146106 -1.04361e-20)
(0.00209723 -0.00128369 -4.29465e-22)
(0.00243103 -0.00105013 4.76988e-21)
(0.00268493 -0.000763307 -3.51422e-21)
(0.00287137 -0.000491426 -5.46161e-21)
(0.00298225 -0.000263521 1.08336e-21)
(0.00256065 -0.000179962 0)
(0.00324516 -0.000108895 0)
(0.00171132 -0.000720644 0)
(0.0027202 -0.000185561 0)
(0.0030783 -4.56951e-05 0)
(0.00342416 -0.000194341 0)
(0.00362493 -6.10016e-05 0)
(0.000950668 -0.00153911 0)
(0.00285391 -0.000133717 0)
(0.00201376 -0.000428487 0)
(0.00335927 -4.08522e-05 0)
(0.00299135 -0.000229991 0)
(0.00305433 -3.14118e-05 0)
(0.00237782 -0.000425278 0)
(0.00362646 -0.000111298 0)
(0.0023113 -0.00031557 0)
(0.00301164 -0.000105603 0)
(0.00280847 -0.000109174 0)
(0.00112595 -0.001152 0)
(0.00156534 -0.00112497 0)
(0.00354194 -3.10307e-05 0)
(0.00317487 -0.000277596 0)
(0.00382287 -2.38775e-05 0)
(0.00350794 -0.000248111 0)
(0.00219874 -0.000380775 0)
(0.00150424 -0.000752669 0)
(0.00268406 -0.000290219 0)
(0.00327845 -1.85482e-05 0)
(0.00342025 -0.00013296 0)
(0.00343209 -7.05319e-05 0)
(0.000360129 -0.00209648 0)
(0.00249492 -0.000210962 0)
(0.00376669 -5.91999e-05 0)
(0.0036216 -0.000157046 0)
(0.00321176 -0.00018924 0)
(0.000844645 -0.001823 0)
(0.00286704 -7.90857e-05 0)
(0.00319374 -1.4657e-05 0)
(0.00305776 -4.12717e-05 0)
(0.00301479 -0.000110373 0)
(0.00259093 -0.000209727 0)
(0.00271803 -0.000320697 0)
(0.00297138 -0.000159994 0)
(0.00320551 -5.14524e-05 0)
(0.00196579 -0.000469471 0)
(0.000677725 -0.00162846 0)
(0.00246998 -0.000325346 0)
(0.00367352 -2.43212e-05 0)
(0.00335375 -0.000285904 0)
(0.00213291 -0.000747475 0)
(0.00345065 -1.86892e-05 0)
(0.00302026 -0.000296459 0)
(0.00287915 -8.37248e-05 0)
(0.00190033 -0.000527093 0)
(0.00232117 -0.000281981 0)
(0.00127178 -0.00118701 0)
(0.00161306 -0.000651957 0)
(0.00131457 -0.001444 0)
(0.00358249 -9.11569e-05 0)
(0.00312033 -0.000159842 0)
(0.00328687 -7.57094e-05 0)
(0.00314391 -1.15174e-05 0)
(0.00303424 -4.17111e-05 0)
(0.00192537 -0.000665138 0)
(0.00377869 -7.22944e-05 0)
(0.00116646 -0.00100039 0)
(0.0022082 -0.000327777 0)
(0.000340317 -0.00214611 0)
(0.00284382 -0.000323313 0)
(0.00338371 -1.09129e-05 0)
(0.0028449 -0.000127614 0)
(0.00251343 -0.000234644 0)
(0.00296731 -8.0938e-05 0)
(0.00246761 -0.000535251 0)
(0.00350058 -0.000149136 0)
(0.00364712 -0.000181292 0)
(0.00386494 -3.08452e-05 0)
(0.00144268 -0.000860483 0)
(0.00214784 -0.000409768 0)
(0.00263508 -0.000252931 0)
(0.00338768 -0.000103551 0)
(0.00390021 -1.165e-05 0)
(0.00359323 -0.000255153 0)
(0.00308939 -0.000122684 0)
(0.00372008 -0.000110774 0)
(0.00307552 -4.69669e-05 0)
(0.00293532 -6.84779e-05 0)
(0.00260325 -0.000250041 0)
(0.00280155 -0.00021116 0)
(0.00325346 -7.93435e-06 0)
(0.00317416 -2.44818e-05 0)
(0.00344525 -4.72829e-05 0)
(0.00327492 -3.63991e-05 0)
(0.00353272 -5.51016e-05 0)
(0.00264849 -0.000150503 0)
(0.00267172 -0.000162898 0)
(0.00328789 -0.000143989 0)
(0.00351735 -0.000199687 0)
(0.00374045 -4.83608e-05 0)
(0.000792762 -0.00141639 0)
(0.00041413 -0.00190302 0)
(0.00199769 -0.000992228 0)
(0.00328213 -0.000224531 0)
(0.00353699 -1.13788e-05 0)
(0.00240125 -0.000321084 0)
(0.00310661 -0.000332111 0)
(0.0013481 -0.000826363 0)
(0.00310152 -0.000238762 0)
(0.00272985 -0.000128468 0)
(0.00376846 -1.51957e-05 0)
(0.00342795 -0.000299186 0)
(0.00317903 -8.01048e-05 0)
(0.00335659 -0.000172763 0)
(0.00122311 -0.00136432 0)
(0.000932363 -0.00143199 0)
(0.00198677 -0.000540562 0)
(0.000135608 -0.00231047 0)
(0.0025562 -0.000348891 0)
(0.00163319 -0.000893145 0)
(0.00291672 -0.000252193 0)
(0.00368186 -8.27414e-05 0)
(0.00245418 -0.000243094 0)
(0.00350586 -8.12992e-05 0)
(0.00133642 -0.00161052 0)
(0.000657631 -0.00184946 0)
(0.00175748 -0.00058057 0)
(0.00286189 -0.00025441 0)
(0.00362241 -4.18639e-05 0)
(0.00339417 -0.000237839 0)
(0.000693227 -0.00178959 0)
(0.00319645 -7.75646e-06 0)
(0.00293124 -8.06136e-05 0)
(0.00312779 -1.51977e-05 0)
(0.00304736 -0.000108727 0)
(0.00287521 -0.000174564 0)
(0.00229337 -0.000399478 0)
(0.00246473 -0.000214956 0)
(0.00331879 -6.08454e-06 0)
(0.00298173 -8.99363e-05 0)
(0.00100071 -0.001584 0)
(0.0028872 -0.000150054 0)
(0.00385803 -4.22226e-05 0)
(0.00371936 -0.000134134 0)
(0.00323702 -0.000319258 0)
(0.00277535 -0.000137399 0)
(0.00361793 -1.38393e-05 0)
(0.000392642 -0.00205902 0)
(0.00360004 -0.000141023 0)
(0.000175757 -0.00228 0)
(0.00274208 -0.00044581 0)
(0.00310484 -6.18613e-05 0)
(0.000654633 -0.00176294 0)
(0.00336067 -2.58128e-05 0)
(0.00313119 -1.97262e-05 0)
(0.00244368 -0.000287682 0)
(0.00293382 -6.22351e-05 0)
(0.00211678 -0.000384066 0)
(0.00318825 -3.51397e-05 0)
(0.00145078 -0.000940487 0)
(0.00272564 -0.000120704 0)
(0.00175963 -0.000582679 0)
(0.00308365 -2.65807e-05 0)
(0.00296347 -0.000201433 0)
(0.00308491 -5.09065e-05 0)
(0.00165682 -0.000681561 0)
(0.00187068 -0.000502828 0)
(0.00353005 -0.000169535 0)
(0.00363966 -0.000217595 0)
(0.00391229 -1.58908e-05 0)
(0.00168227 -0.0013234 0)
(0.00351969 -0.000120185 0)
(0.00371388 -3.54345e-05 0)
(0.00233911 -0.00027896 0)
(0.00266722 -0.000351609 0)
(0.00188225 -0.000823723 0)
(0.00308143 -0.00020167 0)
(0.00212009 -0.000382073 0)
(0.00336174 -6.04954e-05 0)
(0.00328778 -0.000267993 0)
(0.00328321 -5.5023e-05 0)
(0.00334516 -8.40485e-05 0)
(0.00280571 -9.76563e-05 0)
(0.00217901 -0.000478047 0)
(0.00232515 -0.00034389 0)
(0.000549543 -0.00164272 0)
(0.00234152 -0.000774068 0)
(0.00254742 -0.000370984 0)
(0.00299318 -4.96889e-05 0)
(0.000216296 -0.00217398 0)
(0.000886606 -0.0012449 0)
(0.00343031 -3.21414e-05 0)
(0.0034677 -8.0684e-06 0)
(0.00311341 -1.95931e-05 0)
(0.00196142 -0.00050341 0)
(0.00219546 -0.00033332 0)
(0.00297818 -0.000345321 0)
(0.00299314 -0.000132051 0)
(0.00348069 -0.000106101 0)
(0.002956 -0.000267403 0)
(0.00214911 -0.000604024 0)
(0.00385159 -8.93829e-06 0)
(0.0035144 -0.000292121 0)
(0.00242973 -0.000386582 0)
(0.00367777 -6.93827e-05 0)
(0.00394006 -4.22168e-06 0)
(0.00361789 -0.000274174 0)
(0.00233783 -0.000269153 0)
(0.00256065 -0.000179962 0)
(0.00324516 -0.000108895 0)
(0.00171132 -0.000720644 0)
(0.0027202 -0.000185561 0)
(0.0030783 -4.56951e-05 0)
(0.00342416 -0.000194341 0)
(0.00362493 -6.10016e-05 0)
(0.000950668 -0.00153911 0)
(0.00285391 -0.000133717 0)
(0.00201376 -0.000428487 0)
(0.00335927 -4.08522e-05 0)
(0.00299135 -0.000229991 0)
(0.00305433 -3.14118e-05 0)
(0.00237782 -0.000425278 0)
(0.00362646 -0.000111298 0)
(0.0023113 -0.00031557 0)
(0.00301164 -0.000105603 0)
(0.00280847 -0.000109174 0)
(0.00112595 -0.001152 0)
(0.00156534 -0.00112497 0)
(0.00354194 -3.10307e-05 0)
(0.00317487 -0.000277596 0)
(0.00382287 -2.38775e-05 0)
(0.00350794 -0.000248111 0)
(0.00219874 -0.000380775 0)
(0.00150424 -0.000752669 0)
(0.00268406 -0.000290219 0)
(0.00327845 -1.85482e-05 0)
(0.00342025 -0.00013296 0)
(0.00343209 -7.05319e-05 0)
(0.000360129 -0.00209648 0)
(0.00249492 -0.000210962 0)
(0.00376669 -5.91999e-05 0)
(0.0036216 -0.000157046 0)
(0.00321176 -0.00018924 0)
(0.000844645 -0.001823 0)
(0.00286704 -7.90857e-05 0)
(0.00319374 -1.4657e-05 0)
(0.00305776 -4.12717e-05 0)
(0.00301479 -0.000110373 0)
(0.00259093 -0.000209727 0)
(0.00271803 -0.000320697 0)
(0.00297138 -0.000159994 0)
(0.00320551 -5.14524e-05 0)
(0.00196579 -0.000469471 0)
(0.000677725 -0.00162846 0)
(0.00246998 -0.000325346 0)
(0.00367352 -2.43212e-05 0)
(0.00335375 -0.000285904 0)
(0.00213291 -0.000747475 0)
(0.00345065 -1.86892e-05 0)
(0.00302026 -0.000296459 0)
(0.00287915 -8.37248e-05 0)
(0.00190033 -0.000527093 0)
(0.00232117 -0.000281981 0)
(0.00127178 -0.00118701 0)
(0.00161306 -0.000651957 0)
(0.00131457 -0.001444 0)
(0.00358249 -9.11569e-05 0)
(0.00312033 -0.000159842 0)
(0.00328687 -7.57094e-05 0)
(0.00314391 -1.15174e-05 0)
(0.00303424 -4.17111e-05 0)
(0.00192537 -0.000665138 0)
(0.00377869 -7.22944e-05 0)
(0.00116646 -0.00100039 0)
(0.0022082 -0.000327777 0)
(0.000340317 -0.00214611 0)
(0.00284382 -0.000323313 0)
(0.00338371 -1.09129e-05 0)
(0.0028449 -0.000127614 0)
(0.00251343 -0.000234644 0)
(0.00296731 -8.0938e-05 0)
(0.00246761 -0.000535251 0)
(0.00350058 -0.000149136 0)
(0.00364712 -0.000181292 0)
(0.00386494 -3.08452e-05 0)
(0.00144268 -0.000860483 0)
(0.00214784 -0.000409768 0)
(0.00263508 -0.000252931 0)
(0.00338768 -0.000103551 0)
(0.00390021 -1.165e-05 0)
(0.00359323 -0.000255153 0)
(0.00308939 -0.000122684 0)
(0.00372008 -0.000110774 0)
(0.00307552 -4.69669e-05 0)
(0.00293532 -6.84779e-05 0)
(0.00260325 -0.000250041 0)
(0.00280155 -0.00021116 0)
(0.00325346 -7.93435e-06 0)
(0.00317416 -2.44818e-05 0)
(0.00344525 -4.72829e-05 0)
(0.00327492 -3.63991e-05 0)
(0.00353272 -5.51016e-05 0)
(0.00264849 -0.000150503 0)
(0.00267172 -0.000162898 0)
(0.00328789 -0.000143989 0)
(0.00351735 -0.000199687 0)
(0.00374045 -4.83608e-05 0)
(0.000792762 -0.00141639 0)
(0.00041413 -0.00190302 0)
(0.00199769 -0.000992228 0)
(0.00328213 -0.000224531 0)
(0.00353699 -1.13788e-05 0)
(0.00240125 -0.000321084 0)
(0.00310661 -0.000332111 0)
(0.0013481 -0.000826363 0)
(0.00310152 -0.000238762 0)
(0.00272985 -0.000128468 0)
(0.00376846 -1.51957e-05 0)
(0.00342795 -0.000299186 0)
(0.00317903 -8.01048e-05 0)
(0.00335659 -0.000172763 0)
(0.00122311 -0.00136432 0)
(0.000932363 -0.00143199 0)
(0.00198677 -0.000540562 0)
(0.000135608 -0.00231047 0)
(0.0025562 -0.000348891 0)
(0.00163319 -0.000893145 0)
(0.00291672 -0.000252193 0)
(0.00368186 -8.27414e-05 0)
(0.00245418 -0.000243094 0)
(0.00350586 -8.12992e-05 0)
(0.00133642 -0.00161052 0)
(0.000657631 -0.00184946 0)
(0.00175748 -0.00058057 0)
(0.00286189 -0.00025441 0)
(0.00362241 -4.18639e-05 0)
(0.00339417 -0.000237839 0)
(0.000693227 -0.00178959 0)
(0.00319645 -7.75646e-06 0)
(0.00293124 -8.06136e-05 0)
(0.00312779 -1.51977e-05 0)
(0.00304736 -0.000108727 0)
(0.00287521 -0.000174564 0)
(0.00229337 -0.000399478 0)
(0.00246473 -0.000214956 0)
(0.00331879 -6.08454e-06 0)
(0.00298173 -8.99363e-05 0)
(0.00100071 -0.001584 0)
(0.0028872 -0.000150054 0)
(0.00385803 -4.22226e-05 0)
(0.00371936 -0.000134134 0)
(0.00323702 -0.000319258 0)
(0.00277535 -0.000137399 0)
(0.00361793 -1.38393e-05 0)
(0.000392642 -0.00205902 0)
(0.00360004 -0.000141023 0)
(0.000175757 -0.00228 0)
(0.00274208 -0.00044581 0)
(0.00310484 -6.18613e-05 0)
(0.000654633 -0.00176294 0)
(0.00336067 -2.58128e-05 0)
(0.00313119 -1.97262e-05 0)
(0.00244368 -0.000287682 0)
(0.00293382 -6.22351e-05 0)
(0.00211678 -0.000384066 0)
(0.00318825 -3.51397e-05 0)
(0.00145078 -0.000940487 0)
(0.00272564 -0.000120704 0)
(0.00175963 -0.000582679 0)
(0.00308365 -2.65807e-05 0)
(0.00296347 -0.000201433 0)
(0.00308491 -5.09065e-05 0)
(0.00165682 -0.000681561 0)
(0.00187068 -0.000502828 0)
(0.00353005 -0.000169535 0)
(0.00363966 -0.000217595 0)
(0.00391229 -1.58908e-05 0)
(0.00168227 -0.0013234 0)
(0.00351969 -0.000120185 0)
(0.00371388 -3.54345e-05 0)
(0.00233911 -0.00027896 0)
(0.00266722 -0.000351609 0)
(0.00188225 -0.000823723 0)
(0.00308143 -0.00020167 0)
(0.00212009 -0.000382073 0)
(0.00336174 -6.04954e-05 0)
(0.00328778 -0.000267993 0)
(0.00328321 -5.5023e-05 0)
(0.00334516 -8.40485e-05 0)
(0.00280571 -9.76563e-05 0)
(0.00217901 -0.000478047 0)
(0.00232515 -0.00034389 0)
(0.000549543 -0.00164272 0)
(0.00234152 -0.000774068 0)
(0.00254742 -0.000370984 0)
(0.00299318 -4.96889e-05 0)
(0.000216296 -0.00217398 0)
(0.000886606 -0.0012449 0)
(0.00343031 -3.21414e-05 0)
(0.0034677 -8.0684e-06 0)
(0.00311341 -1.95931e-05 0)
(0.00196142 -0.00050341 0)
(0.00219546 -0.00033332 0)
(0.00297818 -0.000345321 0)
(0.00299314 -0.000132051 0)
(0.00348069 -0.000106101 0)
(0.002956 -0.000267403 0)
(0.00214911 -0.000604024 0)
(0.00385159 -8.93829e-06 0)
(0.0035144 -0.000292121 0)
(0.00242973 -0.000386582 0)
(0.00367777 -6.93827e-05 0)
(0.00394006 -4.22168e-06 0)
(0.00361789 -0.000274174 0)
(0.00233783 -0.000269153 0)
)
;

boundaryField
{
    back
    {
        type            empty;
    }
    front
    {
        type            empty;
    }
    down
    {
        type            symmetry;
    }
    right
    {
        type            calculated;
    }
    up
    {
        type            calculated;
    }
    left
    {
        type            symmetry;
    }
    hole
    {
        type            calculated;
    }
}


// ************************************************************************* //
