/*--------------------------------*- C++ -*----------------------------------*\
| =========                 |                                                 |
| \\      /  F ield         | OpenFOAM: The Open Source CFD Toolbox           |
|  \\    /   O peration     | Version:  v2012                                 |
|   \\  /    A nd           | Website:  www.openfoam.com                      |
|    \\/     M anipulation  |                                                 |
\*---------------------------------------------------------------------------*/
FoamFile
{
    version     2.0;
    format      ascii;
    class       volScalarField;
    location    "13";
    object      sigmaEq;
}
// * * * * * * * * * * * * * * * * * * * * * * * * * * * * * * * * * * * * * //

dimensions      [1 -1 -2 0 0 0 0];


internalField   nonuniform List<scalar> 
470
(
4.39352e+07
3.43376e+07
9.919e+07
5.85995e+07
8.37962e+07
8.84602e+07
7.83803e+07
8.06308e+07
1.40844e+08
9.55883e+07
1.35149e+08
1.66336e+08
1.59159e+08
5.77331e+07
1.70949e+08
1.20097e+08
9.59596e+07
5.65393e+07
4.66145e+07
4.05727e+07
1.24151e+08
7.24372e+07
9.75426e+07
6.23546e+07
1.35481e+08
7.52398e+07
1.39945e+08
1.10439e+08
8.70056e+07
6.07994e+07
3.62249e+07
1.65944e+08
1.00659e+08
1.35471e+08
8.8988e+07
8.58431e+07
1.7919e+08
4.87154e+07
4.29349e+07
4.23959e+07
1.20574e+08
4.47756e+07
1.75549e+08
1.19328e+08
1.10319e+08
1.71774e+08
6.63966e+07
1.26888e+08
1.33599e+08
1.38138e+08
1.7166e+08
1.24926e+08
5.52557e+07
5.05455e+07
6.87769e+07
7.09541e+07
7.14118e+07
1.00243e+08
1.0591e+08
1.04862e+08
7.88943e+07
1.53014e+08
1.52705e+08
1.72615e+08
8.00151e+07
1.77156e+08
5.51479e+07
7.54077e+07
7.7503e+07
1.15109e+08
2.34256e+07
9.28732e+07
1.50024e+08
9.57169e+07
1.66336e+08
6.75742e+07
8.97702e+07
8.60518e+07
1.05453e+08
1.86287e+08
1.10812e+08
1.77608e+08
9.97359e+07
8.44851e+07
1.43906e+08
7.09137e+07
1.65311e+08
5.99055e+07
1.8016e+08
1.64778e+08
1.75452e+08
1.62687e+08
8.83931e+07
8.87247e+07
1.65635e+08
1.71072e+08
7.09697e+07
8.23675e+07
9.53392e+07
9.18342e+07
6.9023e+07
1.33783e+08
1.69347e+08
6.46345e+07
6.27167e+07
8.24892e+07
8.01009e+07
7.97688e+07
1.03163e+08
1.62954e+08
1.85533e+08
1.67325e+08
6.59627e+07
8.61502e+07
8.23857e+07
1.05203e+08
5.997e+07
1.47406e+08
8.03806e+07
3.30631e+07
8.7078e+07
6.52545e+07
5.67139e+07
6.11138e+07
8.00891e+07
1.09014e+08
1.15105e+08
7.27972e+07
1.54352e+08
6.51084e+07
6.27379e+07
7.46812e+07
8.58699e+07
7.1265e+07
7.3076e+07
9.52602e+07
9.556e+07
8.04613e+07
1.72737e+08
8.44792e+07
8.45099e+07
1.45237e+08
7.40667e+07
8.22417e+07
8.04369e+07
5.01647e+07
5.96039e+07
1.47953e+08
7.38366e+07
1.54089e+08
4.84315e+07
5.99952e+07
1.0438e+08
6.74861e+07
1.39574e+08
1.20484e+08
8.03369e+07
7.3428e+07
7.23217e+07
9.29325e+07
1.27856e+08
1.53025e+08
1.31063e+08
1.6588e+08
1.60091e+08
1.1241e+08
1.02235e+08
1.63137e+08
9.92659e+07
1.17737e+08
1.12186e+08
8.17098e+07
8.24527e+07
8.6505e+07
8.42043e+07
7.85887e+07
5.03361e+07
2.36943e+07
1.44094e+08
1.05621e+08
1.02883e+08
1.68884e+08
9.32655e+07
1.1053e+08
1.14333e+08
1.45569e+08
8.67809e+07
2.89538e+07
1.48761e+08
6.21529e+07
8.34725e+07
6.6308e+07
1.05286e+08
1.01517e+08
4.88185e+07
5.6996e+07
1.01504e+08
9.27789e+07
9.41099e+07
1.39761e+08
2.90974e+07
2.62155e+07
1.2963e+08
1.09324e+08
1.1142e+08
1.16837e+08
4.14229e+07
5.13817e+07
9.45346e+07
1.03534e+08
7.1191e+07
1.00644e+08
1.03597e+08
6.02825e+07
1.41394e+08
1.39043e+08
7.51262e+07
6.67147e+07
6.5716e+07
1.24803e+08
5.49151e+07
6.14815e+07
9.00394e+07
6.37521e+07
1.2642e+08
9.25251e+07
1.30514e+08
5.71616e+07
1.79013e+08
1.79979e+08
1.28085e+08
5.39966e+07
5.67833e+07
8.33514e+07
1.09233e+08
8.73657e+07
4.67699e+07
7.83291e+07
7.96293e+07
6.10026e+07
6.44644e+07
6.21144e+07
8.11935e+07
1.81526e+08
1.73258e+08
1.8575e+08
1.34873e+08
7.63296e+07
4.3328e+07
8.80286e+07
8.69547e+07
1.05957e+08
5.82505e+07
8.18871e+07
1.21617e+08
4.32761e+07
5.56227e+07
5.97764e+07
8.12286e+07
2.52484e+07
1.00982e+08
1.77957e+08
2.2206e+07
5.64556e+07
5.61829e+07
6.05399e+07
8.2396e+07
5.30795e+07
5.71271e+07
1.16313e+08
9.70749e+07
6.94772e+07
1.7339e+08
1.01541e+08
1.53244e+08
1.20517e+08
1.30585e+08
1.04677e+08
1.44619e+08
7.75084e+07
9.23294e+07
1.25579e+08
7.62847e+07
1.1682e+08
6.19739e+07
6.126e+07
1.15613e+08
1.6241e+08
7.01561e+07
5.68473e+07
1.11437e+08
8.56766e+07
5.12486e+07
1.4841e+08
1.28451e+08
7.11648e+07
6.78852e+07
9.00874e+07
1.33588e+08
5.64078e+07
7.72642e+07
3.03649e+07
7.5359e+07
7.4613e+07
1.82907e+08
9.77638e+07
8.22515e+07
7.8752e+07
7.97685e+07
7.24408e+07
1.55599e+08
1.42516e+08
1.49247e+08
7.86915e+07
8.06181e+07
1.58356e+08
1.0617e+08
4.15903e+07
1.53658e+08
6.41299e+07
1.3266e+08
6.30028e+07
7.27582e+07
6.60475e+07
1.33543e+08
5.1977e+07
1.00228e+08
9.05521e+07
8.80827e+07
6.93356e+07
7.33412e+07
6.6852e+07
1.11203e+08
1.13144e+08
7.36641e+07
9.45965e+07
3.6121e+07
6.76798e+07
1.67499e+08
8.51862e+07
5.66263e+07
1.7553e+08
1.42502e+08
3.53293e+07
7.81034e+07
1.26709e+08
1.68869e+08
7.44819e+07
5.66773e+07
8.30066e+07
3.76279e+07
8.64083e+07
1.23129e+08
1.21762e+08
1.52149e+08
5.18195e+07
1.43861e+08
8.98223e+07
5.84202e+07
2.81208e+07
5.78614e+07
6.41383e+07
7.64022e+07
1.02634e+08
1.18327e+08
8.36859e+07
5.93768e+07
1.66444e+08
4.53764e+07
8.38957e+07
6.19938e+07
9.18444e+07
1.4059e+08
6.31481e+07
8.73838e+07
5.13871e+07
5.67048e+07
8.1025e+07
1.67889e+08
7.70873e+07
1.03607e+08
1.64982e+08
1.08673e+08
6.69052e+07
7.21509e+07
1.27905e+08
1.704e+08
1.70662e+08
1.26837e+08
6.36081e+07
1.3983e+08
5.623e+07
9.42589e+07
1.75195e+08
8.20791e+07
6.19092e+07
5.83836e+07
8.40553e+07
1.53323e+08
1.09532e+08
1.57064e+08
1.69735e+08
9.42793e+07
5.96549e+07
1.58105e+08
1.39188e+08
1.55995e+08
9.12086e+07
5.64598e+07
5.70202e+07
8.33266e+07
8.26705e+07
4.89523e+07
1.04051e+08
8.14423e+07
1.11898e+08
6.70488e+07
6.12116e+07
1.68505e+08
4.04346e+07
1.00299e+08
3.02329e+07
1.03342e+08
6.77301e+07
9.62018e+07
1.60393e+08
1.84236e+08
1.16696e+08
1.44656e+08
1.20515e+08
1.51834e+08
1.35897e+08
1.22615e+08
1.21189e+08
7.10845e+07
5.36621e+07
5.96269e+07
8.51761e+07
7.86861e+07
1.24316e+08
1.3339e+08
1.54448e+08
6.14344e+07
1.34519e+08
1.30928e+08
1.33346e+08
1.20103e+08
8.69829e+07
2.91937e+07
7.92225e+07
1.0396e+08
1.35646e+08
1.35425e+08
7.9024e+07
7.53891e+07
7.26132e+07
1.24343e+08
1.398e+08
6.95571e+07
6.67462e+07
9.72118e+07
8.95272e+07
5.34483e+07
1.32334e+08
1.35064e+08
1.24419e+08
7.00043e+07
6.62256e+07
1.13492e+08
1.29606e+08
)
;

boundaryField
{
    back
    {
        type            empty;
    }
    front
    {
        type            empty;
    }
    down
    {
        type            symmetry;
    }
    right
    {
        type            calculated;
        value           nonuniform List<scalar> 10(6.77505e+07 6.05757e+07 7.95665e+07 7.24463e+07 5.90376e+07 8.12908e+07 6.40316e+07 7.63375e+07 5.73548e+07 8.26948e+07);
    }
    up
    {
        type            calculated;
        value           nonuniform List<scalar> 
20
(
1.67629e+08
1.11502e+08
1.7369e+08
9.6858e+07
8.65937e+07
1.54791e+08
1.31031e+08
1.6566e+08
9.73656e+07
1.71556e+08
9.11985e+07
1.33625e+08
1.68368e+08
1.42213e+08
1.20971e+08
1.46312e+08
1.08381e+08
8.46976e+07
8.34351e+07
1.05136e+08
)
;
    }
    left
    {
        type            symmetry;
    }
    hole
    {
        type            calculated;
        value           nonuniform List<scalar> 8(5.44089e+07 8.28991e+07 1.36652e+08 1.0293e+08 2.98956e+07 1.37237e+08 1.06906e+08 5.23878e+07);
    }
}


// ************************************************************************* //
