/*--------------------------------*- C++ -*----------------------------------*\
| =========                 |                                                 |
| \\      /  F ield         | OpenFOAM: The Open Source CFD Toolbox           |
|  \\    /   O peration     | Version:  v2012                                 |
|   \\  /    A nd           | Website:  www.openfoam.com                      |
|    \\/     M anipulation  |                                                 |
\*---------------------------------------------------------------------------*/
FoamFile
{
    version     2.0;
    format      ascii;
    class       volSymmTensorField;
    location    "2";
    object      epsilon;
}
// * * * * * * * * * * * * * * * * * * * * * * * * * * * * * * * * * * * * * //

dimensions      [0 0 0 0 0 0 0];


internalField   nonuniform List<symmTensor> 
2000
(
(0.00138017 -8.93921e-05 4.59032e-19 -0.000574898 -2.88706e-20 3.75507e-35)
(0.0013944 -4.356e-05 3.33069e-19 -0.000493187 -1.41856e-19 0)
(0.00118548 -7.29866e-05 -3.41772e-19 -0.00048049 -2.43434e-20 0)
(0.00121915 -1.91011e-05 -2.19497e-19 -0.000426955 5.99479e-20 0)
(0.00104578 -5.70709e-05 2.97868e-19 -0.000381177 2.07301e-20 0)
(0.00107691 3.07267e-07 6.93319e-20 -0.000353286 -3.99351e-20 0)
(0.000938648 -4.31337e-05 -1.56532e-19 -0.00030748 2.07529e-20 0)
(0.000964357 1.39623e-05 -3.76871e-19 -0.000297991 -1.03141e-19 0)
(0.000853967 -3.23037e-05 -5.70197e-19 -0.000260313 -7.08498e-20 0)
(0.000875417 2.35828e-05 -1.16736e-19 -0.000260335 4.42963e-20 0)
(0.000785032 -2.39455e-05 0 -0.000230212 0 0)
(0.000803987 3.05702e-05 0 -0.0002341 0 0)
(0.000727474 -1.75022e-05 -1.14769e-19 -0.000210201 7.79504e-21 0)
(0.000745356 3.5598e-05 -1.99295e-19 -0.000215217 -3.71593e-20 0)
(0.000678226 -1.27699e-05 -7.51927e-20 -0.000196766 -2.47116e-20 0)
(0.000696061 3.91428e-05 1.27003e-19 -0.000201211 3.23949e-20 0)
(0.000634927 -9.66749e-06 0 -0.000187829 0 0)
(0.000652997 4.19865e-05 0 -0.000190224 0 0)
(0.000595362 -8.08048e-06 0 -0.000181962 0 0)
(0.000608382 4.61427e-05 -5.17013e-20 -0.000184799 -1.39487e-20 0)
(0.0013497 -0.000242468 0 -0.000536563 0 0)
(0.00132873 -0.000166815 1.84507e-19 -0.00048225 8.05084e-20 0)
(0.00116254 -0.000166298 1.96202e-20 -0.000464625 3.90182e-20 0)
(0.00116889 -0.000104125 1.4541e-19 -0.00042076 4.22362e-20 0)
(0.00102984 -0.000107214 3.80573e-20 -0.000374048 -2.92339e-20 0)
(0.00104344 -5.24712e-05 4.89398e-20 -0.000353629 -2.60977e-20 0)
(0.000928616 -6.37124e-05 -1.88775e-19 -0.000304847 5.1143e-21 0)
(0.000944207 -1.39377e-05 -3.56155e-19 -0.000304235 -1.27366e-19 0)
(0.000849192 -3.2542e-05 -6.52363e-19 -0.00025901 -1.93649e-19 0)
(0.000864461 1.42497e-05 -5.25783e-19 -0.000270686 -1.32014e-19 0)
(0.000784902 -9.70966e-06 -9.73068e-20 -0.000228737 -4.51704e-20 0)
(0.000799133 3.50624e-05 1.24254e-20 -0.000247046 1.791e-20 0)
(0.000731546 7.43879e-06 2.02155e-19 -0.000207969 6.50196e-20 0)
(0.000744594 5.05502e-05 9.23052e-20 -0.000229823 -3.37011e-21 0)
(0.000686214 2.04329e-05 -2.40127e-19 -0.000193288 -8.01862e-20 0)
(0.000698009 6.21863e-05 -2.17213e-19 -0.000217217 -6.37234e-20 0)
(0.000646276 3.02777e-05 9.72674e-20 -0.00018236 2.48185e-20 0)
(0.000656732 7.1223e-05 1.26909e-19 -0.000207806 6.49928e-20 0)
(0.000608722 3.76193e-05 1.75198e-19 -0.000173615 7.80308e-20 0)
(0.000614411 7.87749e-05 1.72669e-19 -0.000202456 8.12543e-20 0)
(0.00124474 -0.000367073 -1.79363e-19 -0.000469951 2.44726e-20 -1.28019e-35)
(0.0012303 -0.000270349 -3.9771e-19 -0.000437447 -9.91823e-20 0)
(0.00109529 -0.000251944 -3.65913e-20 -0.000418875 -2.96343e-20 0)
(0.00109566 -0.000176344 1.73623e-19 -0.000393691 7.66795e-20 0)
(0.000985955 -0.000160668 3.09364e-20 -0.000351361 2.38335e-20 0)
(0.000993046 -9.93119e-05 -3.19083e-19 -0.000342091 -1.63061e-19 0)
(0.000900814 -9.29497e-05 -3.90416e-19 -0.000300379 -1.45008e-19 0)
(0.000912624 -4.11878e-05 -4.417e-19 -0.000304512 -1.49372e-19 0)
(0.000832574 -4.38191e-05 0 -0.000266523 0 0)
(0.000847256 1.94911e-06 0 -0.000279283 0 0)
(0.000776316 -7.5742e-06 -8.62454e-20 -0.000243505 -4.14122e-20 0)
(0.000792533 3.42064e-05 -2.2359e-19 -0.000261438 -1.42443e-19 0)
(0.000728818 1.96806e-05 -2.50324e-19 -0.000227043 -1.38634e-19 0)
(0.000745766 5.85011e-05 -1.01245e-19 -0.000248185 -4.0559e-20 0)
(0.000687749 4.03402e-05 1.94249e-19 -0.000214808 1.04697e-19 0)
(0.000704979 7.69352e-05 1.42859e-19 -0.000238092 9.02631e-20 0)
(0.000651099 5.60231e-05 3.65707e-20 -0.00020497 3.16564e-20 0)
(0.000668263 9.11665e-05 -1.61887e-20 -0.00023013 -1.66995e-20 0)
(0.000616826 6.78162e-05 1.63603e-20 -0.000196173 -5.07485e-22 0)
(0.000629906 0.000102444 2.09847e-19 -0.000226558 1.45415e-19 0)
(0.0011062 -0.000461306 2.96037e-19 -0.000375082 -4.03527e-20 -9.67307e-35)
(0.0010973 -0.000347123 1.91381e-19 -0.000370383 5.39036e-20 0)
(0.000996379 -0.000316866 6.32997e-20 -0.000360766 2.01833e-20 0)
(0.000999337 -0.000231168 -1.92438e-19 -0.00035134 -7.56676e-20 0)
(0.000917398 -0.000203422 -4.19537e-20 -0.000321766 -1.48207e-20 0)
(0.000926243 -0.000137409 2.96857e-20 -0.000321523 1.30693e-20 0)
(0.000855753 -0.000119821 2.88572e-19 -0.000291441 1.4219e-19 0)
(0.000868727 -6.66883e-05 2.83285e-19 -0.000300276 1.49507e-19 0)
(0.000804936 -5.87453e-05 3.91358e-19 -0.000271957 2.16814e-19 0)
(0.000820907 -1.37242e-05 2.92879e-19 -0.000286367 1.71628e-19 0)
(0.000761615 -1.3079e-05 4.53227e-19 -0.000258686 2.69929e-19 0)
(0.000779606 2.64072e-05 2.07826e-19 -0.000276168 1.3094e-19 0)
(0.000723904 2.17491e-05 1.30112e-19 -0.000248662 7.89889e-20 0)
(0.000743094 5.70462e-05 1.82723e-19 -0.000267969 1.24275e-19 0)
(0.000690412 4.85433e-05 1.67011e-19 -0.000240472 1.13296e-19 0)
(0.000710171 8.05462e-05 2.46062e-19 -0.000261042 1.7379e-19 0)
(0.000659811 6.92653e-05 5.26792e-20 -0.000232961 3.69512e-20 0)
(0.000679648 9.87318e-05 9.08457e-21 -0.000254867 8.09192e-21 0)
(0.000630591 8.5255e-05 -1.43534e-19 -0.000225342 -1.07426e-19 0)
(0.000646583 0.000113059 -6.13605e-20 -0.000252279 -4.934e-20 0)
(0.000938729 -0.000517566 -2.38183e-19 -0.00026658 5.61519e-20 7.79368e-35)
(0.000939443 -0.000393842 3.34227e-19 -0.000293994 1.45318e-19 0)
(0.000877047 -0.000359145 2.80555e-20 -0.00029339 -2.20263e-20 0)
(0.000884152 -0.000267202 -3.02926e-19 -0.000301903 -1.57448e-19 0)
(0.00083307 -0.000234323 -4.18241e-21 -0.000287465 2.78591e-20 0)
(0.000844916 -0.000165855 1.42717e-19 -0.000295691 9.72875e-20 0)
(0.000797817 -0.000142627 -1.33492e-19 -0.000280349 -9.72246e-20 0)
(0.000813175 -8.96174e-05 -1.70532e-19 -0.000292187 -1.06898e-19 0)
(0.000766832 -7.5381e-05 -2.50043e-19 -0.00027654 -1.3505e-19 0)
(0.00078489 -3.21748e-05 2.79513e-20 -0.000290788 8.18286e-21 0)
(0.000738599 -2.46345e-05 -1.59706e-19 -0.000273923 -1.1527e-19 0)
(0.000758539 1.18423e-05 -2.39836e-19 -0.000289205 -1.47922e-19 0)
(0.000712504 1.45079e-05 -2.60856e-19 -0.000271171 -1.76195e-19 0)
(0.000733569 4.58874e-05 -1.23468e-19 -0.000286783 -9.89339e-20 0)
(0.000688081 4.49897e-05 3.54157e-20 -0.00026784 3.55871e-20 0)
(0.000709643 7.23165e-05 -6.02297e-20 -0.00028355 -3.54435e-20 0)
(0.000664788 6.88727e-05 -9.68262e-20 -0.000263461 -8.44986e-20 0)
(0.000686285 9.2902e-05 -1.31242e-19 -0.00027956 -1.18393e-19 0)
(0.000641846 8.75582e-05 1.25023e-19 -0.000257771 1.03672e-19 0)
(0.000659487 0.000109172 3.98605e-20 -0.000277809 3.70131e-20 0)
(0.000757017 -0.000532609 7.81006e-20 -0.000157989 -3.91151e-20 -4.91819e-36)
(0.000770419 -0.000408305 5.34745e-19 -0.000216201 6.64668e-20 0)
(0.000745556 -0.000376276 4.34188e-19 -0.000224045 1.63094e-19 0)
(0.000758413 -0.000283105 8.73193e-20 -0.00025083 1.22987e-19 0)
(0.000737991 -0.000252113 -3.31696e-19 -0.000250999 -1.82811e-19 0)
(0.000753187 -0.000183741 -3.16184e-19 -0.000267745 -1.87515e-19 0)
(0.000729902 -0.00016078 -4.65296e-20 -0.000267112 3.11668e-21 0)
(0.000747445 -0.000109078 2.7939e-19 -0.000281416 1.4176e-19 0)
(0.000719358 -9.33342e-05 1.70267e-19 -0.00027904 1.17075e-19 0)
(0.000739088 -5.24153e-05 3.84515e-19 -0.000292197 2.61109e-19 0)
(0.00070684 -4.19066e-05 2.61546e-19 -0.000287197 1.85317e-19 0)
(0.000728178 -8.48522e-06 2.30231e-19 -0.000299188 1.84137e-19 0)
(0.000693027 -1.80277e-06 0 -0.000291916 0 0)
(0.000715288 2.59341e-05 8.96317e-20 -0.000302699 6.59267e-20 0)
(0.000678341 2.97637e-05 3.62209e-20 -0.000293745 4.46208e-20 0)
(0.000700902 5.29777e-05 6.41802e-20 -0.000303412 5.62828e-20 0)
(0.000662984 5.47487e-05 1.01303e-19 -0.000292916 7.13565e-20 0)
(0.000685237 7.4231e-05 2.25662e-20 -0.000301869 1.15468e-20 0)
(0.000646898 7.45148e-05 3.50101e-19 -0.000289594 3.17855e-19 0)
(0.000665247 9.1208e-05 3.98267e-19 -0.000301023 3.57917e-19 0)
(0.00057681 -0.000508653 8.76893e-20 -6.0177e-05 -5.47107e-20 -1.24492e-35)
(0.00060297 -0.000391808 -2.98475e-19 -0.000145336 -2.00265e-19 0)
(0.000611551 -0.000368691 1.6634e-19 -0.000159337 6.97194e-20 0)
(0.000630505 -0.000279036 5.20855e-19 -0.000203066 1.91845e-19 0)
(0.000637602 -0.000256221 3.33068e-19 -0.000215344 1.92564e-19 0)
(0.000656028 -0.000190314 2.29024e-19 -0.000240149 2.22526e-19 0)
(0.000654786 -0.000173154 -4.88576e-20 -0.00025216 1.18084e-20 0)
(0.000673984 -0.000123652 -1.23739e-19 -0.000268766 -7.20263e-20 0)
(0.00066359 -0.000111164 -1.51397e-19 -0.000278261 -1.88949e-19 0)
(0.00068415 -7.25646e-05 -3.3777e-19 -0.000290265 -2.56336e-19 0)
(0.000666239 -6.32293e-05 -1.75574e-19 -0.000296299 -6.66252e-20 0)
(0.000687931 -3.23862e-05 0 -0.000305013 0 0)
(0.000664498 -2.5331e-05 -1.61374e-19 -0.000308045 -1.74999e-19 0)
(0.000686803 -4.52676e-07 -1.69455e-19 -0.000314108 -1.77598e-19 0)
(0.000659539 4.86174e-06 7.52708e-20 -0.000314893 1.03083e-19 0)
(0.000681931 2.49259e-05 5.60099e-19 -0.000318679 4.4328e-19 0)
(0.000652198 2.89859e-05 2.52433e-19 -0.000317672 1.91131e-19 0)
(0.000674132 4.49987e-05 2.01585e-19 -0.000319494 1.76094e-19 0)
(0.000643084 4.82267e-05 -1.4722e-19 -0.000316864 -1.21444e-19 0)
(0.000661251 6.11851e-05 -7.32294e-20 -0.000319199 -5.9822e-20 0)
(0.000411211 -0.00045166 -1.33459e-19 1.73821e-05 4.47957e-20 2.12666e-35)
(0.000448013 -0.000348733 -3.52876e-19 -8.86697e-05 4.60937e-20 0)
(0.000483715 -0.000339078 -6.15135e-19 -0.000105266 -2.66269e-19 0)
(0.000507953 -0.000257002 -8.04164e-19 -0.000163105 -4.57797e-19 0)
(0.000537295 -0.000247078 -3.74189e-19 -0.000183565 -2.47188e-19 0)
(0.00055839 -0.000185675 -1.24988e-19 -0.000215145 -2.32505e-19 0)
(0.000575512 -0.000178684 -1.281e-19 -0.000236483 -7.2313e-20 0)
(0.00059577 -0.000132045 -1.60804e-19 -0.000254871 -5.6016e-20 0)
(0.000600928 -0.00012684 -6.1097e-20 -0.000273723 -5.46717e-20 0)
(0.000621511 -9.03343e-05 -2.82253e-19 -0.000284468 -1.99549e-19 0)
(0.000617057 -8.59087e-05 -2.75629e-19 -0.000299664 -1.95521e-19 0)
(0.000638032 -5.68543e-05 -1.36327e-19 -0.000305278 -1.32524e-19 0)
(0.000626371 -5.2898e-05 -3.51955e-20 -0.000317195 -5.93209e-20 0)
(0.000647401 -2.97281e-05 -4.03939e-19 -0.000318986 -2.58102e-19 0)
(0.000630517 -2.61797e-05 -5.22282e-19 -0.000328402 -3.77638e-19 0)
(0.000651128 -7.83613e-06 -3.73802e-19 -0.000327173 -3.08998e-19 0)
(0.000630798 -4.59434e-06 -2.73306e-20 -0.000334582 -4.26951e-21 0)
(0.000650312 9.63921e-06 1.29141e-19 -0.000330943 7.22732e-20 0)
(0.000628372 1.28022e-05 2.4789e-19 -0.000336322 1.85426e-19 0)
(0.000643867 2.3721e-05 1.21807e-19 -0.000332208 1.11707e-19 0)
(0.000270196 -0.000370308 2.13197e-19 6.82866e-05 -1.36561e-19 5.73497e-35)
(0.000314058 -0.000285715 -4.51325e-20 -5.15699e-05 -2.20966e-19 0)
(0.000369297 -0.000291937 3.00905e-19 -6.63985e-05 2.91102e-19 0)
(0.000397088 -0.000220625 -5.77059e-20 -0.000134731 2.08377e-19 0)
(0.000442097 -0.000226232 1.4013e-19 -0.000158439 6.82866e-20 0)
(0.000465052 -0.000171162 4.13128e-20 -0.000194951 -2.81811e-20 0)
(0.000495258 -0.00017697 3.0729e-19 -0.000221525 1.93601e-19 0)
(0.000516341 -0.000133981 4.91721e-20 -0.000240529 6.3632e-20 0)
(0.000532996 -0.000138714 1.55714e-19 -0.000265854 4.96004e-20 0)
(0.000553565 -0.000104235 0 -0.000274387 0 0)
(0.000559806 -0.000107424 1.35777e-19 -0.000296845 1.3489e-19 0)
(0.000579785 -7.94044e-05 1.65563e-19 -0.00029861 1.25326e-19 0)
(0.000578676 -8.11725e-05 3.6002e-19 -0.000318002 2.50934e-19 0)
(0.000597558 -5.86721e-05 1.61485e-19 -0.000314955 1.22603e-19 0)
(0.000591337 -5.91049e-05 1.18827e-19 -0.000331797 6.0213e-20 0)
(0.000608938 -4.18272e-05 -8.77961e-20 -0.000324398 -5.96029e-20 0)
(0.00059891 -4.09007e-05 -2.11418e-19 -0.000340041 -1.76176e-19 0)
(0.000615626 -2.86671e-05 -1.52717e-19 -0.000326989 -1.16533e-19 0)
(0.000602968 -2.67406e-05 -1.0359e-19 -0.00034401 -6.15204e-20 0)
(0.000617026 -1.82947e-05 1.3303e-19 -0.000323694 8.03775e-20 0)
(0.00016011 -0.00027463 -9.64225e-20 8.96047e-05 1.09353e-19 -2.45288e-35)
(0.0002067 -0.00021042 4.52441e-19 -3.74903e-05 2.38086e-19 0)
(0.000273812 -0.000233095 -8.78581e-20 -4.57264e-05 -1.1931e-19 0)
(0.000302725 -0.000174462 -4.38841e-20 -0.000121463 4.41525e-20 0)
(0.000356745 -0.000196424 -3.19867e-19 -0.00014244 -8.18129e-20 0)
(0.000380168 -0.000149125 3.78849e-20 -0.000183114 -3.41588e-20 0)
(0.000417838 -0.000168634 -7.95571e-20 -0.000209188 -9.80935e-20 0)
(0.000439287 -0.000130523 -1.50721e-19 -0.000229058 -3.58128e-20 0)
(0.000462156 -0.000146044 -1.50738e-19 -0.000256038 -3.98551e-20 0)
(0.000483504 -0.000114693 0 -0.000262459 0 0)
(0.000494627 -0.00012641 -1.03878e-19 -0.000288921 -6.23435e-20 0)
(0.000516111 -9.99947e-05 0 -0.000286065 0 0)
(0.000519073 -0.000109 3.81305e-20 -0.000311559 6.3757e-20 0)
(0.000539758 -8.62658e-05 2.76576e-19 -0.000302767 1.6375e-19 0)
(0.000538888 -9.34058e-05 1.43858e-19 -0.000326364 4.6887e-20 0)
(0.000556692 -7.4119e-05 -2.27879e-20 -0.000315199 3.04792e-21 0)
(0.000557195 -7.8824e-05 -2.50162e-20 -0.000335028 1.70949e-21 0)
(0.000568781 -6.50912e-05 1.82503e-19 -0.0003247 1.04402e-19 0)
(0.000575338 -6.38031e-05 1.50313e-19 -0.000338886 1.06125e-19 0)
(0.000575517 -6.15367e-05 4.93959e-20 -0.000330735 5.27923e-20 0)
(8.34901e-05 -0.000174576 8.36171e-20 8.11313e-05 -1.12841e-19 -2.69496e-35)
(0.000128451 -0.000130419 -9.51191e-20 -4.75029e-05 -1.93738e-19 0)
(0.000200537 -0.000168965 1.37988e-19 -4.48506e-05 5.4431e-20 0)
(0.000228118 -0.000123171 1.66389e-19 -0.000124782 4.73338e-21 0)
(0.000285001 -0.000161268 2.95843e-19 -0.000137698 2.79651e-19 0)
(0.000307164 -0.000121737 5.53418e-19 -0.000182055 3.60902e-19 0)
(0.000347748 -0.000155312 5.75411e-19 -0.00020172 3.42574e-19 0)
(0.000367777 -0.000121941 1.78825e-19 -0.000224844 2.12878e-19 0)
(0.0003941 -0.000148932 2.77262e-19 -0.000246466 1.68056e-19 0)
(0.000413784 -0.000120948 5.64044e-20 -0.000256322 6.04125e-20 0)
(0.000428112 -0.000141363 2.65995e-19 -0.000278019 1.63889e-19 0)
(0.000448443 -0.000118082 6.19622e-20 -0.00027888 5.75511e-20 0)
(0.000452146 -0.000132817 -1.03885e-19 -0.000300274 -1.31231e-19 0)
(0.000474681 -0.000113376 -6.56484e-20 -0.000294914 -5.52821e-20 0)
(0.000467882 -0.000123649 -2.62675e-20 -0.000315916 8.09021e-21 0)
(0.000495148 -0.000106898 -1.05964e-19 -0.000308072 -4.37992e-20 0)
(0.000476625 -0.000114665 -2.72445e-19 -0.000327409 -2.002e-19 0)
(0.000509702 -0.000100287 -1.75013e-19 -0.000324755 -1.5245e-19 0)
(0.000477905 -0.000109478 4.45134e-20 -0.000337786 4.61399e-20 0)
(0.000528025 -0.000104979 1.99239e-19 -0.000323413 1.36427e-19 0)
(3.9407e-05 -7.9023e-05 0 4.46013e-05 0 0)
(7.87893e-05 -5.2747e-05 0 -7.98232e-05 0 0)
(0.00015025 -0.000105552 0 -6.35263e-05 0 0)
(0.000174208 -7.12635e-05 -1.47425e-19 -0.000142839 3.06166e-21 0)
(0.00022876 -0.000123882 -1.53668e-19 -0.000144944 1.11364e-21 0)
(0.000248255 -9.09514e-05 1.64627e-19 -0.000189098 -3.19173e-20 0)
(0.000287733 -0.000137645 6.40059e-20 -0.000200449 -8.08983e-20 0)
(0.000305518 -0.000107389 0 -0.000223048 0 0)
(0.000332941 -0.000146226 -7.40239e-20 -0.000238713 2.69126e-20 0)
(0.000350131 -0.000118788 3.46999e-19 -0.000247682 2.01502e-19 0)
(0.000368341 -0.0001503 1.9432e-19 -0.00026529 1.65452e-19 0)
(0.000384977 -0.000125454 7.69989e-20 -0.000265204 1.40911e-19 0)
(0.000396291 -0.00015064 4.95836e-20 -0.00028367 -1.2635e-20 0)
(0.000412617 -0.000127973 -2.14368e-19 -0.000277501 -1.51527e-19 0)
(0.000417808 -0.000147174 1.28126e-19 -0.000296698 1.01541e-19 0)
(0.000435152 -0.000126461 2.25996e-19 -0.000287053 1.34287e-19 0)
(0.000430287 -0.000139996 5.58526e-20 -0.000308488 -1.23185e-20 0)
(0.000450782 -0.000122291 -2.34372e-19 -0.000298892 -1.26296e-19 0)
(0.00042297 -0.000132978 -2.34884e-19 -0.000326681 -1.30034e-19 0)
(0.000476263 -0.000130074 -1.21457e-19 -0.000293292 -8.19835e-20 0)
(2.41471e-05 4.65739e-06 1.56338e-20 -1.60187e-05 -1.06823e-19 -5.39917e-35)
(5.48154e-05 1.59757e-05 -2.24916e-19 -0.00013037 -1.7291e-19 0)
(0.000120727 -4.7922e-05 -2.54786e-19 -9.85888e-05 -1.50447e-19 0)
(0.00013911 -2.33649e-05 -2.32853e-19 -0.000173061 -1.65237e-19 0)
(0.000186666 -8.72619e-05 -2.40727e-19 -0.000162233 -3.99241e-20 0)
(0.000202411 -5.99093e-05 1.19822e-19 -0.000203288 2.86647e-21 0)
(0.000236473 -0.000116675 2.50773e-19 -0.000204522 1.4139e-19 0)
(0.00025162 -8.92468e-05 7.1258e-21 -0.000224546 1.23244e-19 0)
(0.0002756 -0.000136851 -2.76404e-19 -0.000233017 -2.11202e-19 0)
(0.000290898 -0.00011055 -6.77655e-20 -0.000239298 -1.55337e-19 0)
(0.000306973 -0.000149636 -5.24418e-20 -0.000252439 2.16212e-20 0)
(0.000322596 -0.000124885 2.24495e-19 -0.00024929 1.28603e-19 0)
(0.000332323 -0.000156545 1.45576e-19 -0.000265413 8.23688e-20 0)
(0.000348693 -0.000133372 2.61873e-20 -0.000256163 7.17082e-20 0)
(0.000352664 -0.000158183 -3.42614e-19 -0.000273727 -2.10405e-19 0)
(0.000370277 -0.000136863 -4.03116e-19 -0.000262334 -2.40319e-19 0)
(0.000365731 -0.000155624 -1.92592e-20 -0.000280238 8.11023e-21 0)
(0.000384421 -0.000137806 -6.9087e-20 -0.000272779 -3.51301e-20 0)
(0.000361684 -0.000152684 -1.12459e-19 -0.000291772 -8.01801e-20 0)
(0.000409348 -0.000149945 -3.98771e-20 -0.000265848 -1.52543e-21 0)
(3.25516e-05 7.03347e-05 0 -9.39599e-05 0 0)
(5.22656e-05 7.02e-05 0 -0.000193747 0 0)
(0.000108545 -3.75722e-07 2.15719e-19 -0.000145245 3.33713e-19 0)
(0.000119946 1.63613e-05 3.07054e-19 -0.000212283 3.20743e-19 0)
(0.000156696 -5.46299e-05 2.27205e-19 -0.000186394 1.33626e-19 0)
(0.000168213 -3.17437e-05 2.09441e-19 -0.00022322 1.42199e-19 0)
(0.000193287 -9.52204e-05 1.07996e-19 -0.000211832 7.68872e-22 0)
(0.000205984 -6.99572e-05 -1.39046e-20 -0.000229316 3.16284e-20 0)
(0.000223262 -0.000123919 -1.69148e-19 -0.000227587 -1.49936e-19 0)
(0.000237073 -9.82909e-05 -3.20318e-19 -0.000232418 -2.28037e-19 0)
(0.00024842 -0.000143458 -3.33169e-19 -0.00023737 -2.09086e-19 0)
(0.000263064 -0.000118387 -2.5429e-19 -0.000233652 -1.54616e-19 0)
(0.000269698 -0.000155809 -4.17295e-19 -0.00024318 -2.11131e-19 0)
(0.000285391 -0.000131706 -8.34613e-20 -0.000234084 -1.07137e-19 0)
(0.000287671 -0.000161813 2.68087e-19 -0.000246439 2.04893e-19 0)
(0.000304835 -0.000139492 4.21804e-19 -0.000235819 2.41392e-19 0)
(0.000299836 -0.000162507 3.18172e-19 -0.000249668 1.60764e-19 0)
(0.000318022 -0.000144564 3.00354e-19 -0.000243951 1.57922e-19 0)
(0.000295964 -0.00016127 2.62157e-19 -0.000258822 1.19786e-19 0)
(0.000340614 -0.000160008 1.93268e-19 -0.00023549 1.13365e-19 0)
(5.82367e-05 0.000113661 -1.30563e-20 -0.000181079 1.20928e-19 -4.51639e-35)
(6.60635e-05 0.00010644 7.6594e-20 -0.000263819 2.39924e-19 0)
(0.000110128 3.3648e-05 -2.94929e-19 -0.000198725 -2.86808e-19 0)
(0.000113838 4.5112e-05 -2.77729e-19 -0.000256678 -2.5191e-19 0)
(0.000137676 -2.86538e-05 -2.87564e-19 -0.000214929 -1.10511e-19 0)
(0.000144575 -8.7075e-06 -1.07501e-19 -0.000246942 -9.35207e-20 0)
(0.000158837 -7.53066e-05 -2.26857e-19 -0.000221716 -1.87992e-19 0)
(0.000168939 -5.12842e-05 -1.3318e-19 -0.0002368 -1.91293e-19 0)
(0.000177884 -0.00010874 1.0766e-19 -0.000223455 9.72895e-20 0)
(0.000190234 -8.32355e-05 1.02374e-19 -0.000227383 9.6262e-20 0)
(0.00019538 -0.000132206 2.47371e-19 -0.00022268 1.47235e-19 0)
(0.000209191 -0.000106538 1.75431e-19 -0.000219117 9.3971e-20 0)
(0.000211443 -0.000147921 2.12604e-19 -0.000220627 7.08153e-20 0)
(0.000226629 -0.000122859 -6.0798e-20 -0.000212543 -2.57882e-20 0)
(0.000226279 -0.000156787 3.90732e-20 -0.000218316 4.01284e-20 0)
(0.000242952 -0.000133611 1.64719e-19 -0.000209434 7.99615e-20 0)
(0.000237081 -0.00015962 1.11126e-19 -0.000218036 5.27064e-20 0)
(0.0002543 -0.000141551 4.09655e-20 -0.000214498 3.54275e-20 0)
(0.000232713 -0.000159175 5.53051e-20 -0.000225347 2.52503e-20 0)
(0.000273384 -0.000158882 -7.36925e-20 -0.000204265 -1.9881e-20 0)
(9.39549e-05 0.000133015 2.13115e-20 -0.000269372 -1.04966e-19 -2.61137e-35)
(9.03327e-05 0.000123259 -2.07769e-20 -0.000334421 -1.25254e-19 0)
(0.000121091 5.24206e-05 6.59336e-20 -0.00025405 3.80187e-20 0)
(0.000117321 6.14784e-05 -4.03182e-22 -0.000302121 4.30315e-20 0)
(0.000127431 -1.08428e-05 -9.8319e-20 -0.00024517 -7.5374e-20 0)
(0.000129899 7.89515e-06 -1.47021e-19 -0.000271946 -1.51959e-19 0)
(0.000132568 -5.81161e-05 1.59709e-19 -0.000233176 1.30961e-19 0)
(0.0001403 -3.43275e-05 1.501e-19 -0.00024581 1.0236e-19 0)
(0.000140166 -9.21669e-05 -2.56372e-20 -0.000220863 -8.08345e-20 0)
(0.000151284 -6.6226e-05 -1.53631e-19 -0.0002241 -6.91847e-20 0)
(0.000149499 -0.000116444 -3.19985e-19 -0.000209546 -1.58347e-19 0)
(0.000162706 -8.99025e-05 -1.21977e-19 -0.000206493 -1.19706e-19 0)
(0.000159826 -0.000133147 2.1625e-19 -0.000199659 1.65049e-19 0)
(0.000174757 -0.000107048 2.13063e-19 -0.000192985 1.51958e-19 0)
(0.000170992 -0.000143103 -1.14833e-19 -0.000191791 -1.00459e-19 0)
(0.000187414 -0.000119088 -2.20751e-19 -0.000184939 -1.18598e-19 0)
(0.000179982 -0.000146885 -2.35914e-20 -0.000187908 1.79171e-20 0)
(0.000196305 -0.000128618 9.38436e-20 -0.000186532 3.74026e-20 0)
(0.00017522 -0.000146543 1.00738e-19 -0.000193093 3.56608e-20 0)
(0.000211164 -0.000146502 1.56576e-20 -0.000174584 5.23876e-21 0)
(0.000132563 0.000129157 1.59765e-20 -0.000351494 -2.14501e-19 -1.24521e-34)
(0.000118978 0.0001212 -2.05885e-19 -0.000400084 -3.06243e-19 0)
(0.00013655 5.58088e-05 -1.17592e-19 -0.000306152 -7.22141e-20 0)
(0.000126545 6.55302e-05 -3.59601e-20 -0.00034414 -1.26167e-19 0)
(0.000122931 -1.6792e-06 -3.15433e-21 -0.00027413 -3.51652e-20 0)
(0.000121889 1.79217e-05 -8.28002e-20 -0.000295243 -6.74649e-21 0)
(0.000113125 -4.41762e-05 -2.62161e-19 -0.000244849 -1.75043e-19 0)
(0.000119175 -1.93713e-05 -2.33991e-19 -0.000254783 -2.0451e-19 0)
(0.000110137 -7.48035e-05 -2.40848e-21 -0.000219713 2.06129e-20 0)
(0.000120546 -4.77054e-05 0 -0.000222194 0 0)
(0.000111826 -9.68745e-05 1.23969e-19 -0.000198759 8.23192e-20 0)
(0.000124855 -6.90681e-05 7.32109e-20 -0.000196302 4.71414e-20 0)
(0.000116651 -0.000112264 3.51523e-20 -0.000181651 2.02797e-20 0)
(0.000131687 -8.49557e-05 1.13591e-19 -0.000176544 4.84957e-20 0)
(0.000124154 -0.000121606 2.41075e-19 -0.000168617 1.06467e-19 0)
(0.000140632 -9.66605e-05 1.77717e-19 -0.000163849 8.89086e-20 0)
(0.000131236 -0.000125194 1.51984e-19 -0.000161342 6.68503e-20 0)
(0.000146953 -0.000106501 1.7166e-19 -0.000161841 8.36099e-20 0)
(0.000126305 -0.00012429 1.1736e-19 -0.000164434 4.35431e-20 0)
(0.000157585 -0.000123683 1.09004e-19 -0.000148391 5.4531e-20 0)
(0.000167185 0.000104564 -4.54305e-22 -0.000421551 2.32087e-19 -1.04451e-34)
(0.000146234 0.000102972 1.02952e-19 -0.000455956 2.39606e-19 0)
(0.000151326 4.53492e-05 1.57383e-19 -0.000350764 2.24578e-19 0)
(0.000137638 5.93913e-05 1.18414e-19 -0.000378115 1.80584e-19 0)
(0.000120996 -9.55558e-08 8.39329e-20 -0.000299099 1.8894e-20 0)
(0.000118368 2.28378e-05 8.07146e-20 -0.000313871 7.1941e-20 0)
(9.95519e-05 -3.3023e-05 5.95182e-20 -0.000255433 5.28524e-20 0)
(0.000105063 -5.85438e-06 3.073e-20 -0.000262513 6.53416e-20 0)
(8.83637e-05 -5.6929e-05 -1.56561e-19 -0.000219707 -1.27144e-19 0)
(9.86338e-05 -2.80294e-05 -1.04974e-19 -0.000221601 -9.58786e-20 0)
(8.37687e-05 -7.43385e-05 -1.62524e-19 -0.000190712 -8.38583e-20 0)
(9.69395e-05 -4.5098e-05 -5.21121e-20 -0.000189117 -4.02367e-20 0)
(8.37831e-05 -8.65124e-05 -9.43876e-21 -0.000167547 1.78687e-20 0)
(9.91728e-05 -5.81369e-05 7.78758e-20 -0.000164196 4.89249e-20 0)
(8.79336e-05 -9.38421e-05 -5.3428e-20 -0.000150157 -4.25884e-20 0)
(0.000104674 -6.82154e-05 -5.02311e-20 -0.000147414 -2.99522e-20 0)
(9.32478e-05 -9.63314e-05 -1.14885e-19 -0.000139921 -5.24446e-20 0)
(0.00010859 -7.72487e-05 -4.96675e-20 -0.00014169 -2.44244e-20 0)
(8.8443e-05 -9.43589e-05 1.61946e-20 -0.000140972 2.68681e-20 0)
(0.000115819 -9.25025e-05 -1.05235e-20 -0.000126102 -5.41059e-21 0)
(0.000192861 6.32382e-05 8.3982e-22 -0.000473938 -4.95112e-20 2.87326e-36)
(0.000171396 7.43992e-05 0 -0.000489774 0 0)
(0.00016331 2.49039e-05 -8.59167e-20 -0.000383171 -1.76433e-19 0)
(0.000148324 4.7795e-05 -5.18627e-20 -0.000400618 -1.8261e-19 0)
(0.000122597 -3.17875e-06 2.13587e-20 -0.000316303 3.25343e-20 0)
(0.000119417 2.47568e-05 -3.72936e-21 -0.000327703 4.11747e-21 0)
(9.42658e-05 -2.37813e-05 7.30792e-20 -0.000262167 8.93997e-20 0)
(9.94938e-05 5.96691e-06 6.64129e-20 -0.000269254 1.13857e-19 0)
(7.73219e-05 -3.92331e-05 8.49886e-20 -0.00021891 9.22374e-20 0)
(8.72931e-05 -8.91567e-06 3.07222e-20 -0.000222274 4.29127e-20 0)
(6.75767e-05 -5.04665e-05 3.96893e-20 -0.000184332 2.8271e-20 0)
(8.05907e-05 -2.05236e-05 1.82735e-20 -0.000184672 2.23487e-20 0)
(6.32255e-05 -5.80572e-05 -9.66588e-20 -0.000157125 -7.6245e-20 0)
(7.87853e-05 -2.96093e-05 -6.2869e-20 -0.000155562 -6.32593e-20 0)
(6.39268e-05 -6.22444e-05 5.79821e-22 -0.000136906 3.95112e-21 0)
(8.10748e-05 -3.71239e-05 2.04428e-21 -0.000135458 3.11102e-21 0)
(6.6996e-05 -6.29788e-05 -1.73615e-20 -0.000124519 -1.11466e-20 0)
(8.22538e-05 -4.45827e-05 -1.71704e-20 -0.000126982 -1.41956e-20 0)
(6.23827e-05 -5.99222e-05 -6.84049e-20 -0.000123219 -4.51258e-20 0)
(8.53942e-05 -5.72366e-05 5.34678e-21 -0.000111573 3.65816e-21 0)
(0.000218943 1.20294e-05 -6.08244e-23 -0.000492487 -9.96778e-24 -9.35262e-41)
(0.000179481 3.5501e-05 -3.78299e-20 -0.000509435 8.62518e-20 0)
(0.000184038 3.43042e-07 -3.83395e-21 -0.000390046 1.02549e-19 0)
(0.000140565 2.69136e-05 3.53271e-20 -0.000423824 5.19561e-20 0)
(0.000135137 -9.23437e-06 2.92674e-21 -0.000317242 -6.2205e-20 0)
(0.000106158 1.89718e-05 1.3216e-20 -0.000346443 -5.59986e-20 0)
(9.98849e-05 -1.72403e-05 -3.04355e-20 -0.000259655 -9.013e-20 0)
(8.30468e-05 1.23585e-05 -3.3301e-20 -0.000282247 -1.11103e-19 0)
(7.73737e-05 -2.33891e-05 -7.69219e-21 -0.000213538 -2.12847e-20 0)
(6.82541e-05 7.10677e-06 3.66617e-21 -0.000230344 -3.73289e-20 0)
(6.37327e-05 -2.74254e-05 -3.18332e-20 -0.000176578 -6.09626e-20 0)
(5.96166e-05 2.79603e-06 -2.55648e-20 -0.000188877 -7.07813e-20 0)
(5.67607e-05 -2.94209e-05 -1.14898e-20 -0.000147842 -1.26809e-20 0)
(5.65728e-05 -1.14099e-06 -1.05844e-20 -0.000156461 -5.43653e-20 0)
(5.542e-05 -2.93555e-05 -3.92822e-20 -0.000127194 -5.47308e-20 0)
(5.84287e-05 -5.09306e-06 -2.0855e-20 -0.000132413 -6.90141e-20 0)
(5.61558e-05 -2.68452e-05 -3.791e-20 -0.000114755 -4.86331e-20 0)
(6.12781e-05 -8.81124e-06 -1.88609e-20 -0.000116444 -5.98466e-20 0)
(4.94487e-05 -2.10735e-05 -2.83737e-20 -0.000110582 -3.69559e-20 0)
(6.72704e-05 -1.48199e-05 -8.41774e-21 -9.62087e-05 -2.84844e-20 0)
(5.03156e-05 -9.50846e-06 9.95524e-21 -6.47499e-05 -8.33272e-21 0)
(8.46755e-05 -3.01433e-05 -7.1214e-21 -6.34359e-05 -5.44181e-21 0)
(7.38412e-05 -5.44852e-05 2.36556e-20 -6.53303e-05 1.08814e-20 0)
(0.000101401 -7.06796e-05 -1.06359e-20 -7.2785e-05 -3.51271e-21 0)
(0.000103782 -9.28395e-05 -2.16292e-20 -8.04961e-05 -6.17369e-21 0)
(0.000126275 -0.000108819 5.14998e-21 -9.09581e-05 -6.63423e-22 0)
(0.000147394 -0.000125554 -1.2992e-20 -0.000101398 -5.22239e-21 0)
(0.000161544 -0.000141585 4.99249e-20 -0.000116871 1.47693e-20 0)
(0.000201923 -0.000149624 -1.67549e-20 -0.000128678 -4.45946e-21 0)
(0.000206775 -0.000166067 -9.32586e-20 -0.000148745 -3.11219e-20 0)
(0.000264402 -0.0001632 5.18255e-20 -0.000160951 3.78955e-22 0)
(0.000260163 -0.000180274 4.18011e-20 -0.000184605 -9.86142e-21 0)
(0.00033146 -0.000165423 2.42884e-20 -0.000195929 -7.56956e-21 0)
(0.000318895 -0.000183312 6.53648e-21 -0.000222041 -2.29373e-20 0)
(0.000399608 -0.000156376 2.51811e-20 -0.000230718 1.27856e-20 0)
(0.000379445 -0.000174894 4.43463e-20 -0.000258488 7.25371e-21 0)
(0.000465628 -0.000137078 -3.80015e-20 -0.000261501 6.15904e-22 0)
(0.000437523 -0.000155047 -1.56811e-21 -0.000292129 2.1729e-20 0)
(0.000518168 -0.00010928 8.40944e-20 -0.000289622 2.49934e-20 0)
(0.000491478 -0.000128651 1.75181e-20 -0.000323124 -1.49706e-20 0)
(6.87547e-05 -5.79309e-06 -2.27295e-22 -5.70812e-05 -1.32837e-20 0)
(9.53782e-05 -3.33627e-05 -4.4369e-21 -6.03709e-05 -9.70338e-21 0)
(8.22382e-05 -4.74579e-05 1.86432e-20 -5.98506e-05 6.79923e-21 0)
(0.000111931 -7.12198e-05 -1.20698e-20 -6.88093e-05 -3.17187e-21 0)
(0.000107618 -8.48704e-05 2.14985e-20 -7.31113e-05 8.54697e-21 0)
(0.000135224 -0.000106351 -2.34947e-20 -8.62813e-05 -4.8929e-21 0)
(0.000142673 -0.00011665 -2.19221e-20 -9.32623e-05 -7.17106e-21 0)
(0.00016697 -0.000136215 0 -0.000109998 0 0)
(0.000187381 -0.000141067 2.13863e-20 -0.000118784 6.7304e-21 0)
(0.000207022 -0.000158724 2.40225e-20 -0.000138718 8.48165e-21 0)
(0.000239854 -0.000156644 -5.17862e-20 -0.000148619 -1.50191e-20 0)
(0.000253882 -0.000172367 -1.71036e-20 -0.000171052 -3.9941e-21 0)
(0.000297429 -0.000162524 7.1208e-20 -0.000181185 3.05333e-20 0)
(0.000305483 -0.000176419 -8.1415e-21 -0.000205068 -3.13555e-21 0)
(0.000357305 -0.000158527 -3.89287e-20 -0.000214267 -1.86972e-20 0)
(0.000359761 -0.000170881 -6.8234e-20 -0.000237799 -3.43428e-20 0)
(0.00041681 -0.000145011 -4.15624e-20 -0.000244731 -2.22477e-20 0)
(0.000414139 -0.000156232 4.03005e-20 -0.000266087 2.20107e-20 0)
(0.000472212 -0.000123009 7.63485e-20 -0.000271449 4.70535e-20 0)
(0.00046245 -0.000134109 5.66391e-20 -0.000293636 3.41943e-20 0)
(9.58608e-05 -5.70832e-06 -6.23957e-21 -4.8943e-05 -7.30795e-21 0)
(0.000117497 -3.2191e-05 4.04627e-21 -5.41992e-05 -2.92342e-21 0)
(0.000104643 -4.31778e-05 1.63143e-21 -5.51607e-05 -2.71187e-21 0)
(0.00013131 -6.74352e-05 2.72925e-20 -6.19105e-05 2.94869e-21 0)