/*--------------------------------*- C++ -*----------------------------------*\
| =========                 |                                                 |
| \\      /  F ield         | OpenFOAM: The Open Source CFD Toolbox           |
|  \\    /   O peration     | Version:  v2012                                 |
|   \\  /    A nd           | Website:  www.openfoam.com                      |
|    \\/     M anipulation  |                                                 |
\*---------------------------------------------------------------------------*/
FoamFile
{
    version     2.0;
    format      ascii;
    class       volScalarField;
    location    "2";
    object      epsilonEq;
}
// * * * * * * * * * * * * * * * * * * * * * * * * * * * * * * * * * * * * * //

dimensions      [0 0 0 0 0 0 0];


internalField   nonuniform List<scalar> 
2000
(
0.00116482
0.00113156
0.000993722
0.000986627
0.000855663
0.000860236
0.000751236
0.000762085
0.000674109
0.000687572
0.000615257
0.000629715
0.000568522
0.00058351
0.000530262
0.000545543
0.000497973
0.000512985
0.00046956
0.000482169
0.00115666
0.00109997
0.000986684
0.00095863
0.000848576
0.00084092
0.000745512
0.000751866
0.000670436
0.00068481
0.000613989
0.000632721
0.000569879
0.000591055
0.000534224
0.000556825
0.000503998
0.00052754
0.000476381
0.000499554
0.00110744
0.00104615
0.000948524
0.000914115
0.000821768
0.000808968
0.000729748
0.00073291
0.000663953
0.000677406
0.000615059
0.000634969
0.000577103
0.000601154
0.000546405
0.000573214
0.000520177
0.000549042
0.0004961
0.000525909
0.00103659
0.000968197
0.000890342
0.000852066
0.00077874
0.000764709
0.00070229
0.000705235
0.000650177
0.000663841
0.000612647
0.000632964
0.00058397
0.000608417
0.000560789
0.000587777
0.000540668
0.000569344
0.000521676
0.000551032
0.000944257
0.00087191
0.000816377
0.00077574
0.000724444
0.000709828
0.000666601
0.000669434
0.000630208
0.000643585
0.000605421
0.000624967
0.000586908
0.00060994
0.000571766
0.00059662
0.000558064
0.000583816
0.00054441
0.000570017
0.000834972
0.000762158
0.000729638
0.000689214
0.000661161
0.000647018
0.000624187
0.000626775
0.000604502
0.000616741
0.000592687
0.000610222
0.000584168
0.000604354
0.000576715
0.000597924
0.00056903
0.000590313
0.000560292
0.000580567
0.000714057
0.000643901
0.000634078
0.00059643
0.000591481
0.000578983
0.000576344
0.000578697
0.000573296
0.000583742
0.000573902
0.000588504
0.000574676
0.000591079
0.000574226
0.000590957
0.00057193
0.000588024
0.000567532
0.000581738
0.000586605
0.000522025
0.000533709
0.000501384
0.000518182
0.000508439
0.000524519
0.000526647
0.000536984
0.00054507
0.00054878
0.000559664
0.000557785
0.000569617
0.000563528
0.000575124
0.000566066
0.000576551
0.000565604
0.000573687
0.000457336
0.000401324
0.000432559
0.000408443
0.000444293
0.000438599
0.000470471
0.000472586
0.000496291
0.000501646
0.000517385
0.000523816
0.000533241
0.000539466
0.000544243
0.000549273
0.000550956
0.000553649
0.000554371
0.00055226
0.000330375
0.000286519
0.000335051
0.000322819
0.000373642
0.000373802
0.000416902
0.000420144
0.000452872
0.000456569
0.000480267
0.000483433
0.000500609
0.000502771
0.000515951
0.000516917
0.00052832
0.000527609
0.000538741
0.000534295
0.000208923
0.000183648
0.000246639
0.000250853
0.000310879
0.000318241
0.000367654
0.000373045
0.000410817
0.000414656
0.000441989
0.000445106
0.00046346
0.000467071
0.000477212
0.000483921
0.000485278
0.000499316
0.000489843
0.000510876
9.54952e-05
0.000109981
0.000175852
0.000200965
0.000260374
0.000274185
0.000324882
0.000330544
0.000372056
0.000372971
0.000406361
0.00040434
0.000431024
0.000427339
0.000447976
0.000444545
0.000457941
0.000458084
0.000460362
0.000472952
2.39589e-05
0.000111381
0.000138382
0.000182591
0.00022538
0.000244233
0.000288253
0.000293734
0.00033377
0.000332105
0.000366741
0.000361123
0.000390216
0.000382909
0.000406009
0.000399586
0.000414965
0.00041313
0.000417086
0.000429219
0.000111131
0.000170203
0.000147037
0.000195183
0.000208121
0.00022968
0.000258524
0.000264098
0.000297038
0.000293867
0.000325757
0.000317845
0.000346595
0.000336708
0.00036082
0.000352007
0.000368975
0.000365713
0.00037071
0.000382095
0.000194916
0.000236062
0.000184874
0.000225258
0.000207849
0.000228824
0.000237222
0.000242679
0.000263984
0.000259856
0.000285737
0.000276214
0.000302344
0.000290584
0.00031412
0.000303554
0.000321023
0.000316463
0.000322068
0.000332021
0.00026648
0.000294984
0.000229213
0.000259765
0.00021903
0.000236963
0.000224093
0.000229133
0.000235579
0.000231102
0.000247893
0.00023754
0.000258632
0.000245752
0.000266877
0.000255197
0.000271824
0.000266312
0.000271822
0.00027994
0.000325071
0.000343765
0.000269587
0.000291264
0.000234726
0.00024853
0.000217359
0.000221717
0.000212278
0.000208181
0.000213324
0.000203245
0.000216645
0.000203754
0.000220247
0.000208376
0.00022256
0.00021664
0.000221213
0.000227186
0.000370545
0.000381672
0.000301982
0.000315904
0.000249702
0.000259266
0.000214846
0.000218718
0.000194612
0.000192123
0.000183718
0.000175875
0.000178366
0.000167622
0.000176261
0.000166103
0.000175322
0.000170171
0.0001724
0.000175867
0.000402886
0.000405411
0.000325185
0.000332512
0.000261522
0.000268843
0.000215022
0.000220396
0.000183114
0.000184592
0.000161441
0.000158808
0.000147169
0.000141881
0.000138572
0.000133398
0.000133724
0.000132158
0.000129156
0.000131819
0.000420973
0.000414703
0.000338487
0.000340675
0.000268354
0.000274185
0.000215226
0.000221568
0.000176066
0.00018085
0.000147199
0.000149833
0.00012661
0.000127429
0.000113302
0.000113062
0.000105258
0.000104738
9.76933e-05
9.64072e-05
6.7506e-05
9.25956e-05
0.00010209
0.000129867
0.000151235
0.000177925
0.000204661
0.000229758
0.000258608
0.000281561
0.000311464
0.00033152
0.000362271
0.00037866
0.000410135
0.000421974
0.000453787
0.000460289
0.000489116
0.000496397
7.30623e-05
9.852e-05
9.89365e-05
0.000133636
0.000143611
0.00017805
0.000192275
0.000225101
0.000241458
0.000271947
0.000289733
0.000317121
0.00033627
0.000359869
0.000380367
0.000399515
0.000420959
0.00043499
0.000457162
0.000466585
8.53077e-05
0.000107951
0.000106161
0.000137997
0.000144567
0.000176856
0.000187268
0.000218593
0.000230828
0.000260555
0.000273832
0.000301377
0.000315398
0.000340299
0.000354853
0.000376625
0.000391602
0.000409595
0.000425552
0.000437874
9.76077e-05
0.000116958
0.000114458
0.000141778
0.000147285
0.000175299
0.000184777
0.000212202
0.000223568
0.000249865
0.000262185
0.000286866
0.000299779
0.000322324
0.000335773
0.000355676
0.000369637
0.000386371
0.000400481
0.000412515
0.000109665
0.000126016
0.000122985
0.000146183
0.0001508
0.000174848
0.000183674
0.000207349
0.000218315
0.000241091
0.000253138
0.000274581
0.000287217
0.000306903
0.000319905
0.000337508
0.000350599
0.000365757
0.000378357
0.000390073
0.000122074
0.00013598
0.000132454
0.000152163
0.000155652
0.000176346
0.000184144
0.000204659
0.000214841
0.000234643
0.000246063
0.000264791
0.000276797
0.000294175
0.00030638
0.000322193
0.000334232
0.000348154
0.000359441
0.00037085
0.000134864
0.000146788
0.000142895
0.000159673
0.000161971
0.000179798
0.000186296
0.000204129
0.000213172
0.000230479
0.000240935
0.000257397
0.000268543
0.000283943
0.000295326
0.000309472
0.000320711
0.000333287
0.000343855
0.000354278
0.000147649
0.000157967
0.000153864
0.000168205
0.000169436
0.000184797
0.000189967
0.000205462
0.000213247
0.000228364
0.00023775
0.000252174
0.000262447
0.000275965
0.000286626
0.000299034
0.000309646
0.000320715
0.000330712
0.000340506
0.000160069
0.00016909
0.000164897
0.000177247
0.000177598
0.000190863
0.000194815
0.000208266
0.000214813
0.000227977
0.000236264
0.000248827
0.000258192
0.000269939
0.000279874
0.000290656
0.000300698
0.000310431
0.000320046
0.000328789
0.000171895
0.000179863
0.000175656
0.000186393
0.000186035
0.00019755
0.000200424
0.000212125
0.000217493
0.000228954
0.000236124
0.000247047
0.000255429
0.000265612
0.000274716
0.000284046
0.00029343
0.000301889
0.000311057
0.000318788
0.000182964
0.000190055
0.000185879
0.000195306
0.000194377
0.000204452
0.000206381
0.000216613
0.000220875
0.000230888
0.00023694
0.00024646
0.000253807
0.000262648
0.000270872
0.000278917
0.000287642
0.000294821
0.000303613
0.000310043
0.00019311
0.000199449
0.000195332
0.000203686
0.000202298
0.000211191
0.000212304
0.000221319
0.000224571
0.000233368
0.000238354
0.000246676
0.000252997
0.000260668
0.000267958
0.00027488
0.000282785
0.000288919
0.000297005
0.000302503
0.000202148
0.000207825
0.000203782
0.000211247
0.000209494
0.000217418
0.000217834
0.00022585
0.000228193
0.000235985
0.000239969
0.000247294
0.000252616
0.000259304
0.000265667
0.000271601
0.000278692
0.000283793
0.00029123
0.000295684
0.000209864
0.000214936
0.000210979
0.000217702
0.000215664
0.000222796
0.000222625
0.000229831
0.000231371
0.000238345
0.0002414
0.00024791
0.00025226
0.000258151
0.000263558
0.000268749
0.000274944
0.000279365
0.000286031
0.000289592
0.000216007
0.000220503
0.000216651
0.000222742
0.000220503
0.000226986
0.000226341
0.000232895
0.000233733
0.000240069
0.000242269
0.000248153
0.000251584
0.000256845
0.000261347
0.000265867
0.000271225
0.000274933
0.000280836
0.00028382
0.000220262
0.000224165
0.000220478
0.000226002
0.000223687
0.000229609
0.000228629
0.000234648
0.000234905
0.000240745
0.000242182
0.000247615
0.000250178
0.000255017
0.000258618
0.000262711
0.000267171
0.000270435
0.000275438
0.000278041
0.000222197
0.000225402
0.000222045
0.000226981
0.000224795
0.000230165
0.000229028
0.000234557
0.000234403
0.000239823
0.000240666
0.000245762
0.0002476
0.000252199
0.000254975
0.000258916
0.000262515
0.000265605
0.000269874
0.000272056
0.000221233
0.000223511
0.000220793
0.000224987
0.000223224
0.000227931
0.000226912
0.000231873
0.000231634
0.000236597
0.00023721
0.000241981
0.000243465
0.000247886
0.000250183
0.00025413
0.000257113
0.000260435
0.000264002
0.000266289
0.000217003
0.00021814
0.000216416
0.000219629
0.000218674
0.00022254
0.000222106
0.000226387
0.000226542
0.000231026
0.000231862
0.000236397
0.000237934
0.000242341
0.00024459
0.000248634
0.000251542
0.000255008
0.000258311
0.000261119
0.000211145
0.000211522
0.000211164
0.000213571
0.000213415
0.00021641
0.000216888
0.000220217
0.000221377
0.000225031
0.000226761
0.000230718
0.000232918
0.000237093
0.000239718
0.000243931
0.00024703
0.000250885
0.000254586
0.000257037
0.000512914
0.000505279
0.000515791
0.000508575
0.000517233
0.0005106
0.000518177
0.000511731
0.000518906
0.000512089
0.000519298
0.000511723
0.000519195
0.000510713
0.000518511
0.000509168
0.000517239
0.000507216
0.000515445
0.000505004
0.00051325
0.000502699
0.000510826
0.000500497
0.000508393
0.000498625
0.000506217
0.00049735
0.000504608
0.000496979
0.000503929
0.000497884
0.000504651
0.000500593
0.000507457
0.000505876
0.000513008
0.000514116
0.000520051
0.000525141
0.000485204
0.000476564
0.000489082
0.000480095
0.000492355
0.000483012
0.000494856
0.000485427
0.000496565
0.000487257
0.000497562
0.000488494
0.000497995
0.000489217
0.000498022
0.000489552
0.000497803
0.00048965
0.000497492
0.000489678
0.000497256
0.000489821
0.00049728
0.000490284
0.000497781
0.00049129
0.000498999
0.000493082
0.000501193
0.000495916
0.000504623
0.000500067
0.000509582
0.000505868
0.000516432
0.000513703
0.000525312
0.000523365
0.000534291
0.000534505
0.00045095
0.000447305
0.000455683
0.000452036
0.000460634
0.000456292
0.000465305
0.000460073
0.000469335
0.000463298
0.000472624
0.000466009
0.000475281
0.00046832
0.000477487
0.000470382
0.000479446
0.000472352
0.000481351
0.000474376
0.00048339
0.000476607
0.000485749
0.00047924
0.00048866
0.000482483
0.000492343
0.000486537
0.000497001
0.000491586
0.000502803
0.000497783
0.000509895
0.000505285
0.000518428
0.000514206
0.000528242
0.000524059
0.000537388
0.000534596
0.000422903
0.000421323
0.000427455
0.00042649
0.000432622
0.000431474
0.000438006
0.000436226
0.000443209
0.000440636
0.000447945
0.000444631
0.000452249
0.000448302
0.000456249
0.00045179
0.00046009
0.000455226
0.000463897
0.000458689
0.000467817
0.00046254
0.000472067
0.000466772
0.000476821
0.000471556
0.000482273
0.000477066
0.0004886
0.000483417
0.00049589
0.000490657
0.0005042
0.000498841
0.000513586
0.000507945
0.000523749
0.000517333
0.000532724
0.000526823
0.000398828
0.000398631
0.000403605
0.000404247
0.000409103
0.000409984
0.000415049
0.000414907
0.000420781
0.000419985
0.000426308
0.000424769
0.000431583
0.000429444
0.000436721
0.000434202
0.000441891
0.000439237
0.000447211
0.000443654
0.000452096
0.000448157
0.000457442
0.00045316
0.000463282
0.000458745
0.000469763
0.000465109
0.000476946
0.000472028
0.000484855
0.000479537
0.000493562
0.000487727
0.000503025
0.000496429
0.000512808
0.000504907
0.000521053
0.000513029
0.000378336
0.000379077
0.000383306
0.000384402
0.000388887
0.000390285
0.000396087
0.000397046
0.000401797
0.000402448
0.000407582
0.000407564
0.000413484
0.000412372
0.000419493
0.000416737
0.000425616
0.000420526
0.000431249
0.000427499
0.000436722
0.000433338
0.000442491
0.000439006
0.000448679
0.000444791
0.000455754
0.000451612
0.000463291
0.000458375
0.000470971
0.000465654
0.000479343
0.000473382
0.000488275
0.00048126
0.000497134
0.000488474
0.000504292
0.000494986
0.000361264
0.000362125
0.000366294
0.00036837
0.000373112
0.000375041
0.000379307
0.000380866
0.000385469
0.000386594
0.000391608
0.000392266
0.000397683
0.000397999
0.000403566
0.000402791
0.000409176
0.000408121
0.000415428
0.000413507
0.000421556
0.00041895
0.000427598
0.000424529
0.000433766
0.000430366
0.000440306
0.00043665
0.000447385
0.000443229
0.000454861
0.000450267
0.000462709
0.000456573
0.000470669
0.000463754
0.000478318
0.000469126
0.000484136
0.000474397
0.000346985
0.000348973
0.000352328
0.000354864
0.000358361
0.000360714
0.00036453
0.00036645
0.000370694
0.000371885
0.000376647
0.000376859
0.000382365
0.000382968
0.000389648
0.000389458
0.000395058
0.000394522
0.00040062
0.000399571
0.000406391
0.000404704
0.000412321
0.00040992
0.000418406
0.000415191
0.000424544
0.000420373
0.00043067
0.000425466
0.000436814
0.000432212
0.000445156
0.000438894
0.000451315
0.000444707
0.000458456
0.000449616
0.000462802
0.000452643
0.000335285
0.000337067
0.000340592
0.000342658
0.000346192
0.000348244
0.000352077
0.000354162
0.000357992
0.00035973
0.000363841
0.000365058
0.000369738
0.000370476
0.000375766
0.000375687
0.000381394
0.00038064
0.000386829
0.000385564
0.000392268
0.000390505
0.000397726
0.000395452
0.000403176
0.000400399
0.000408601
0.000405348
0.000414087
0.000410323
0.000419853
0.00041525
0.000425895
0.000420188
0.000431527
0.000424543
0.000436628
0.000428037
0.00044014
0.000430578
0.000324981
0.000326761
0.000330079
0.000331834
0.000335369
0.000336607
0.000341987
0.000343077
0.000348055
0.000348044
0.000353003
0.000352751
0.000358961
0.000358655
0.000364479
0.00036347
0.000369088
0.000368084
0.000373836
0.000372602
0.000378646
0.000377008
0.000383436
0.0003813
0.000388181
0.000385503
0.000392908
0.000389668
0.000397686
0.000393861
0.000402529
0.000397963
0.000407261
0.000401786
0.00041167
0.000405048
0.00041534
0.000407247
0.000417643
0.000408649
0.000316155
0.000317602
0.000320962
0.000322573
0.00032591
0.000327525
0.000330898
0.000332673
0.000336451
0.000337596
0.000341631
0.000342298
0.000346574
0.000347054
0.000351739
0.000351514
0.000356536
0.000355734
0.000361064
0.000359761
0.000365399
0.000363618
0.000369583
0.000367334
0.000373651
0.00037093
0.000377631
0.000374416
0.000381534
0.000377777
0.000385338
0.000380945
0.000388958
0.000383777
0.000392216
0.000386014
0.000394763
0.000387235
0.000396164
0.000387688
0.000308191
0.000309534
0.000312721
0.000314121
0.000317398
0.000318738
0.000322187
0.000323324
0.000326951
0.000327814
0.000331661
0.000332254
0.000336232
0.000336608
0.000340633
0.000340226
0.000344792
0.000344038
0.0003488
0.000347599
0.000352605
0.000350954
0.000356221
0.000354128
0.000359668
0.000357127
0.000362948
0.000359942
0.000366052
0.000362545
0.000368953
0.000364878
0.000371585
0.000366821
0.000373788
0.000368137
0.000375271
0.000368486
0.000375783
0.00036812
0.000301071
0.000302274
0.00030533
0.000306733
0.000309666
0.000310692
0.000313887
0.000314614
0.000318114
0.000318339
0.000322196
0.000321824
0.000326119
0.00032592
0.000330782
0.00033011
0.000334186
0.000333362
0.000337487
0.000336297
0.000340671
0.000339074
0.000343701
0.000341712
0.000346543
0.000344164
0.000349163
0.000346388
0.00035154
0.000348339
0.000353644
0.000349961
0.000355414
0.000351144
0.000356705
0.000351674
0.000357268
0.000351279
0.000357021
0.000350219
0.000294586
0.000295025
0.000298452
0.000298792
0.000302683
0.000302934
0.000306229
0.000306646
0.000309816
0.000310208
0.000313433
0.000313619
0.00031712
0.000316762
0.000320859
0.000319678
0.000324246
0.000322617
0.000327078
0.000325397
0.000329586
0.000327928
0.000332009
0.000330204
0.000334271
0.000332204
0.000336309
0.000333916
0.000338078
0.000335316
0.000339534
0.000336353
0.00034061
0.000336924
0.000341167
0.00033683
0.000340993
0.000335852
0.000340142
0.000334236
0.000288202
0.00028897
0.000291558
0.00029234
0.0002951
0.000295636
0.000298507
0.000298821
0.000301792
0.000301915
0.000304988
0.000304943
0.000308073
0.000307811
0.000310906
0.000310429
0.000313709
0.000313071
0.000316437
0.000315436
0.000318851
0.000317548
0.000320996
0.000319434
0.000322885
0.000321084
0.000324507
0.000322463
0.000325831
0.000323523
0.000326812
0.000324196
0.000327378
0.000324374
0.000327396
0.00032387
0.000326681
0.000322512
0.000325397
0.00032051
0.000281863
0.000282622
0.000284976
0.000285674
0.000288065
0.000288607
0.000291089
0.000291394
0.000294008
0.000294079
0.00029686
0.000296783
0.000299591
0.000299313
0.000302204
0.000301663
0.000304607
0.000303912
0.000306862
0.000306052
0.000308974
0.000307929
0.000310872
0.000309641
0.000312538
0.000311151
0.000313931
0.000312391
0.000315004
0.000313294
0.000315706
0.000313792
0.000315969
0.000313777
0.000315664
0.000313071
0.000314633
0.000311541
0.00031312
0.000309347
0.000275486
0.000276148
0.00027842
0.000279163
0.000281262
0.000281839
0.000283961
0.000284253
0.000286505
0.000286524
0.000289404
0.00028937
0.000292142
0.000291546
0.000294424
0.000293654
0.0002968
0.000295655
0.000298901
0.000297474
0.000300613
0.000299483
0.000302234
0.000301244
0.000303702
0.000302724
0.000304938
0.000303899
0.000305877
0.000304744
0.000306461
0.000305222
0.000306617
0.000305253
0.000306195
0.000304577
0.000305093
0.000303163
0.000303614
0.000301077
0.000269378
0.0002698
0.000272768
0.000272953
0.000275748
0.00027558
0.000278055
0.000278123
0.000280361
0.000280399
0.000282581
0.000282636
0.000284957
0.000284784
0.000287161
0.000286852
0.00028919
0.000288837
0.000291354
0.000290894
0.000293353
0.000292739
0.0002951
0.000294397
0.0002966
0.000295856
0.000297838
0.000297072
0.000298786
0.000297986
0.000299412
0.000298539
0.000299759
0.000298885
0.000299514
0.000298536
0.000298519
0.000297569
0.000297311
0.000296159
0.000263731
0.000265258
0.000267068
0.000268776
0.00027034
0.000271041
0.000273391
0.000273496
0.000276066
0.000275813
0.000278273
0.000278178
0.000280582
0.000280414
0.00028291
0.000282651
0.000285108
0.000284824
0.000287165
0.000286746
0.000289076
0.000288498
0.00029081
0.000290097
0.000292329
0.000291523
0.000293593
0.000292755
0.000294558
0.000293763
0.000295188
0.000294513
0.00029544
0.000295072
0.000295457
0.000295272
0.000295063
0.000294794
0.000294009
0.000294048
0.000260262
0.000260618
0.000264243
0.000265169
0.000268041
0.000267931
0.000270504
0.000270852
0.000273602
0.000274533
0.000276487
0.000276901
0.000278796
0.000279285
0.000281624
0.00028253
0.000284309
0.00028448
0.000286416
0.000286462
0.000288357
0.000288322
0.000290079
0.000289968
0.000291541
0.000291367
0.00029272
0.000292502
0.000293605
0.000293372
0.0002942
0.00029398
0.000294489
0.000294333
0.00029446
0.000294452
0.000294099
0.000294394
0.000293706
0.000294197
0.000452039
0.000459763
0.000444384
0.000450767
0.000437163
0.000442005
0.000429194
0.000432758
0.000420416
0.000423096
0.00041104
0.000413172
0.000401213
0.000403031
0.000390999
0.000392641
0.000380405
0.00038193
0.000369402
0.000370807
0.000357938
0.000359178
0.000345941
0.000346947
0.000333338
0.000334025
0.000320051
0.000320337
0.000306009
0.000305843
0.000291181
0.000290591
0.000275655
0.000274826
0.000259766
0.000259083
0.000244164
0.000244412
0.000230838
0.000229599
0.000462353
0.000476528
0.000452545
0.0004691
0.000443632
0.000460793
0.000434386
0.000451499
0.000424793
0.000441566
0.000414969
0.000431267
0.000404943
0.000420715
0.000394675
0.000409916
0.000384101
0.000398823
0.000373144
0.000387363
0.000361722
0.000375444
0.00034975
0.000362969
0.000337137
0.000349839
0.000323798
0.00033596
0.00030967
0.000321276
0.000294773
0.000305829
0.000279293
0.000289845
0.000263588
0.000273747
0.000248095
0.000258577
0.000234772
0.000243838
0.000486528
0.000503696
0.00047622
0.000496726
0.000466773
0.000488661
0.000457153
0.000479483
0.00044729
0.000469554
0.000437234
0.000459152
0.000426982
0.000448406
0.000416482
0.000437341
0.000405664
0.000425926
0.000394448
0.000414099
0.00038275
0.000401781
0.000370479
0.000388883
0.000357543
0.000375312
0.000343854
0.000360987
0.000329357
0.000345866
0.000314088
0.000330014
0.00029824
0.000313665
0.000282153
0.000297289
0.000266464
0.000282248
0.000253792
0.00026886
0.000515021
0.000531231
0.00050492
0.000524489
0.000495592
0.000516658
0.000486206
0.000507761
0.000476603
0.00049809
0.000466748
0.000487871
0.000456598
0.000477216
0.0004461
0.000466155
0.000435192
0.000454671
0.000423813
0.000442722
0.0004119
0.000430248
0.000399386
0.000417185
0.000386209
0.000403467
0.000372322
0.000389047
0.000357721
0.000373929
0.000342505
0.000358233
0.000326929
0.000342273
0.000311461
0.000326719
0.000297052
0.000313248
0.000286175
0.000302447
0.000539891
0.000553529
0.00053086
0.000547224
0.000522306
0.000539931
0.000513679
0.000531681
0.00050479
0.000522674
0.000495552
0.000513069
0.000485908
0.000502947
0.000475811
0.00049234
0.000465223
0.000481249
0.000454107
0.000469654
0.000442427
0.00045753
0.000430149
0.000444845
0.000417243
0.000431576
0.0004037
0.00041772
0.000389555
0.000403331
0.000374946
0.000388582
0.000360172
0.000373858
0.000345804
0.000359984
0.000332945
0.000348751
0.000323777
0.000340881
0.000557273
0.000567862
0.000550047
0.000562384
0.000542877
0.000556028
0.000535515
0.000548818
0.000527789
0.000540866
0.000519598
0.000532268
0.000510888
0.000523086
0.000501635
0.000513355
0.000491824
0.000503098
0.000481447
0.000492325
0.000470499
0.000481045
0.000458977
0.000469268
0.00044689
0.000457013
0.000434267
0.000444327
0.000421183
0.000431318
0.000407808
0.000418207
0.000394477
0.000405444
0.000381824
0.000393949
0.000371038
0.000385516
0.000363956
0.000380879
0.000565585
0.000573028
0.000560756
0.000568731
0.000555454
0.000563643
0.000549749
0.000557781
0.000543537
0.000551197
0.000536723
0.000543938
0.000529273
0.000536047
0.000521192
0.000527567
0.000512498
0.000518536
0.000503219
0.000508992
0.00049339
0.000498977
0.000483047
0.000488543
0.000472241
0.00047776
0.000461041
0.000466731
0.000449564
0.00045562
0.00043801
0.000444704
0.000426743
0.000434487
0.000416446
0.00042595
0.000408349
0.0004208
0.000403846
0.000419622
0.000564482
0.000569148
0.000562482
0.000566476
0.000559491
0.00056294
0.000555848
0.000558723
0.000551397
0.000553829
0.000546104
0.00054825
0.000540027
0.000541996
0.000533255
0.000535092
0.000525871
0.000527582
0.000517949
0.000519532
0.000509555
0.000511027
0.000500754
0.000502174
0.000491623
0.000493105
0.000482266
0.00048399
0.000472834
0.000475058
0.000463561
0.000466645
0.000454842
0.000459311
0.0004474
0.000454081
0.00044246
0.000452503
0.000440885
0.000454881
0.000555035
0.000553194
0.000556575
0.000553797
0.000556121
0.000554226
0.00055428
0.000553695
0.000551419
0.000551876
0.000547727
0.000548725
0.000543305
0.000544355
0.000538223
0.000538953
0.000532543
0.000532725
0.000526322
0.000525877
0.000519632
0.000518602
0.000512566
0.000511094
0.000505247
0.000503554
0.000497838
0.000496215
0.000490554
0.000489366
0.000483688
0.000483397
0.000477686
0.000478918
0.000473322
0.000476974
0.000471747
0.000478847
0.00047316
0.000484449
0.0005412
0.000541725
0.000542228
0.000542077
0.000543352
0.000540628
0.000543945
0.000539053
0.000543824
0.000537424
0.000542806
0.000535453
0.000540791
0.000532895
0.000537785
0.000529636
0.000533879
0.000525683
0.000529227
0.000521132
0.000524015
0.00051614
0.000518451
0.000510908
0.000512763
0.00050568
0.000507198
0.000500745
0.00050204
0.000496456
0.000497628
0.00049327
0.000494437
0.000491866
0.000493243
0.00049333
0.000495024
0.000498721
0.00049918
0.000507561
)
;

boundaryField
{
    back
    {
        type            empty;
    }
    front
    {
        type            empty;
    }
    left
    {
        type            symmetry;
    }
    hole
    {
        type            calculated;
        value           nonuniform List<scalar> 
20
(
0.00117935
0.00116981
0.0011213
0.00105004
0.000957431
0.000847524
0.000725634
0.000596904
0.000466142
0.000337492
0.000214004
9.76024e-05
1.1089e-05
0.000108507
0.000194586
0.000267858
0.000327945
0.000374843
0.000408084
0.000424123
)
;
    }
    down
    {
        type            symmetry;
    }
    right
    {
        type            calculated;
        value           nonuniform List<scalar> 
30
(
0.000211578
0.000213446
0.000216053
0.000219778
0.000224561
0.00023021
0.000236527
0.000243297
0.000250327
0.000257609
0.000261791
0.000264347
0.000267489
0.000270657
0.000273422
0.000276385
0.000279114
0.000281313
0.000283626
0.000285738
0.000287592
0.000289199
0.000290567
0.000291695
0.000292585
0.000293244
0.000293707
0.000294043
0.000294251
0.000294236
)
;
    }
    up
    {
        type            calculated;
        value           nonuniform List<scalar> 
30
(
0.000527354
0.000536381
0.000536395
0.000528509
0.000514495
0.000496193
0.000475202
0.000453431
0.000430963
0.00040887
0.000387734
0.000368006
0.000349986
0.000333919
0.000320137
0.00030896
0.000300701
0.000295931
0.000293887
0.000294193
0.000229698
0.000240184
0.000266075
0.000300485
0.000339595
0.000380251
0.000419568
0.000455245
0.000485121
0.000508063
)
;
    }
}


// ************************************************************************* //
