/*--------------------------------*- C++ -*----------------------------------*\
| =========                 |                                                 |
| \\      /  F ield         | OpenFOAM: The Open Source CFD Toolbox           |
|  \\    /   O peration     | Version:  v2012                                 |
|   \\  /    A nd           | Website:  www.openfoam.com                      |
|    \\/     M anipulation  |                                                 |
\*---------------------------------------------------------------------------*/
FoamFile
{
    version     2.0;
    format      ascii;
    class       volVectorField;
    location    "8";
    object      D_0;
}
// * * * * * * * * * * * * * * * * * * * * * * * * * * * * * * * * * * * * * //

dimensions      [0 1 0 0 0 0 0];


internalField   nonuniform List<vector> 
32000
(
(2.81846e-05 -0.0014577 0)
(5.40227e-05 -0.00146797 0)
(2.72998e-05 -0.00149152 0)
(5.18448e-05 -0.00150167 0)
(2.64275e-05 -0.00152322 0)
(5.04302e-05 -0.00153319 0)
(2.57093e-05 -0.00155335 0)
(4.93305e-05 -0.00156292 0)
(2.50896e-05 -0.0015819 0)
(4.83898e-05 -0.00159102 0)
(2.4539e-05 -0.00160896 0)
(4.75307e-05 -0.00161763 0)
(2.40356e-05 -0.0016346 0)
(4.67056e-05 -0.00164281 0)
(2.35583e-05 -0.00165885 0)
(4.58787e-05 -0.00166657 0)
(2.30801e-05 -0.00168171 0)
(4.50283e-05 -0.00168895 0)
(2.2591e-05 -0.00170321 0)
(4.41499e-05 -0.00170996 0)
(2.20879e-05 -0.00172335 0)
(4.32373e-05 -0.00172961 0)
(2.15679e-05 -0.00174215 0)
(4.22789e-05 -0.00174792 0)
(2.10127e-05 -0.00175961 0)
(4.12697e-05 -0.00176488 0)
(2.04298e-05 -0.00177574 0)
(4.02157e-05 -0.00178052 0)
(1.98238e-05 -0.00179056 0)
(3.91114e-05 -0.00179485 0)
(1.91923e-05 -0.00180409 0)
(3.79474e-05 -0.00180787 0)
(1.85254e-05 -0.00181631 0)
(3.67367e-05 -0.00181961 0)
(1.78314e-05 -0.00182726 0)
(3.54632e-05 -0.00183007 0)
(1.71053e-05 -0.00183697 0)
(3.41307e-05 -0.00183929 0)
(1.63498e-05 -0.00184544 0)
(3.27608e-05 -0.00184733 0)
(1.55804e-05 -0.00185264 0)
(3.13294e-05 -0.00185396 0)
(1.48957e-05 -0.00185875 0)
(3.02288e-05 -0.00186009 0)
(1.44395e-05 -0.00186451 0)
(2.93584e-05 -0.00186573 0)
(1.40752e-05 -0.00186989 0)
(2.86318e-05 -0.00187099 0)
(1.37623e-05 -0.00187495 0)
(2.80021e-05 -0.00187595 0)
(1.34881e-05 -0.00187976 0)
(2.74481e-05 -0.00188069 0)
(1.32463e-05 -0.00188438 0)
(2.69575e-05 -0.00188525 0)
(1.30321e-05 -0.00188883 0)
(2.65205e-05 -0.00188966 0)
(1.28409e-05 -0.00189315 0)
(2.61284e-05 -0.00189394 0)
(1.2669e-05 -0.00189737 0)
(2.57742e-05 -0.00189812 0)
(1.25133e-05 -0.00190149 0)
(2.54519e-05 -0.00190222 0)
(1.23712e-05 -0.00190554 0)
(2.51567e-05 -0.00190625 0)
(1.22407e-05 -0.00190953 0)
(2.48844e-05 -0.00191022 0)
(1.21199e-05 -0.00191347 0)
(2.46309e-05 -0.00191415 0)
(1.20067e-05 -0.00191738 0)
(2.4392e-05 -0.00191805 0)
(1.18989e-05 -0.00192126 0)
(2.41628e-05 -0.00192191 0)
(1.1794e-05 -0.00192511 0)
(2.39381e-05 -0.00192576 0)
(1.1692e-05 -0.00192894 0)
(2.37143e-05 -0.00192959 0)
(1.16013e-05 -0.00193274 0)
(2.34918e-05 -0.00193341 0)
(1.15512e-05 -0.0019365 0)
(2.32766e-05 -0.00193722 0)
(0.00010178 -0.00146083 0)
(0.000125903 -0.00147237 0)
(0.000100741 -0.00149283 0)
(0.000124851 -0.00150377 0)
(9.9446e-05 -0.0015238 0)
(0.00012333 -0.00153424 0)
(9.80366e-05 -0.00155359 0)
(0.000121595 -0.00156346 0)
(9.65498e-05 -0.00158197 0)
(0.000119755 -0.00159128 0)
(9.50161e-05 -0.00160894 0)
(0.000117847 -0.0016177 0)
(9.34448e-05 -0.00163449 0)
(0.000115876 -0.00164269 0)
(9.18304e-05 -0.00165863 0)
(0.000113844 -0.00166628 0)
(9.01661e-05 -0.00168137 0)
(0.000111741 -0.00168846 0)
(8.8441e-05 -0.00170272 0)
(0.000109556 -0.00170925 0)
(8.66544e-05 -0.0017227 0)
(0.000107286 -0.00172866 0)
(8.47944e-05 -0.00174131 0)
(0.000104924 -0.0017467 0)
(8.28582e-05 -0.00175856 0)
(0.000102463 -0.00176338 0)
(8.08378e-05 -0.00177447 0)
(9.98934e-05 -0.00177871 0)
(7.87334e-05 -0.00178905 0)
(9.72134e-05 -0.00179269 0)
(7.65251e-05 -0.00180231 0)
(9.44219e-05 -0.00180536 0)
(7.42125e-05 -0.00181426 0)
(9.15135e-05 -0.00181672 0)
(7.18193e-05 -0.00182493 0)
(8.84984e-05 -0.00182682 0)
(6.93211e-05 -0.00183437 0)
(8.53742e-05 -0.00183569 0)
(6.67026e-05 -0.00184257 0)
(8.21716e-05 -0.00184337 0)
(6.4061e-05 -0.00184954 0)
(7.89926e-05 -0.00184986 0)
(6.16815e-05 -0.00185567 0)
(7.6319e-05 -0.00185589 0)
(5.97507e-05 -0.00186142 0)
(7.40976e-05 -0.00186151 0)
(5.8135e-05 -0.0018668 0)
(7.22167e-05 -0.00186678 0)
(5.67555e-05 -0.00187188 0)
(7.05937e-05 -0.00187178 0)
(5.55599e-05 -0.00187672 0)
(6.9175e-05 -0.00187655 0)
(5.45116e-05 -0.00188137 0)
(6.79225e-05 -0.00188114 0)
(5.35835e-05 -0.00188585 0)
(6.68074e-05 -0.00188558 0)
(5.27549e-05 -0.0018902 0)
(6.5807e-05 -0.00188989 0)
(5.20095e-05 -0.00189443 0)
(6.49033e-05 -0.0018941 0)
(5.1334e-05 -0.00189858 0)
(6.40813e-05 -0.00189822 0)
(5.07176e-05 -0.00190264 0)
(6.33286e-05 -0.00190227 0)
(5.01514e-05 -0.00190665 0)
(6.26348e-05 -0.00190626 0)
(4.9628e-05 -0.0019106 0)
(6.19908e-05 -0.0019102 0)
(4.91415e-05 -0.00191451 0)
(6.13892e-05 -0.0019141 0)
(4.86881e-05 -0.00191838 0)
(6.08239e-05 -0.00191797 0)
(4.82662e-05 -0.00192222 0)
(6.02902e-05 -0.0019218 0)
(4.7877e-05 -0.00192603 0)
(5.97839e-05 -0.00192561 0)
(4.75264e-05 -0.00192982 0)
(5.93003e-05 -0.0019294 0)
(4.72261e-05 -0.00193358 0)
(5.88324e-05 -0.00193314 0)
(0.000178672 -0.0014617 0)
(0.000202981 -0.00147294 0)
(0.000176161 -0.00149401 0)
(0.000199958 -0.00150495 0)
(0.000173755 -0.00152489 0)
(0.000197171 -0.0015354 0)
(0.000171333 -0.00155443 0)
(0.000194373 -0.00156437 0)
(0.000168827 -0.00158253 0)
(0.000191487 -0.00159186 0)
(0.000166224 -0.00160919 0)
(0.000188488 -0.00161791 0)
(0.000163523 -0.00163442 0)
(0.000185371 -0.00164253 0)
(0.000160719 -0.00165823 0)
(0.000182127 -0.00166571 0)
(0.000157803 -0.00168062 0)
(0.000178751 -0.00168747 0)
(0.000154765 -0.00170161 0)
(0.000175231 -0.0017078 0)
(0.000151594 -0.00172119 0)
(0.000171553 -0.00172673 0)
(0.000148294 -0.00173938 0)
(0.000167713 -0.00174425 0)
(0.000144846 -0.00175618 0)
(0.000163705 -0.00176038 0)
(0.000141234 -0.00177161 0)
(0.000159518 -0.00177512 0)
(0.000137461 -0.00178566 0)
(0.000155147 -0.00178849 0)
(0.000133542 -0.00179838 0)
(0.000150603 -0.00180053 0)
(0.000129471 -0.00180979 0)
(0.000145903 -0.00181125 0)
(0.000125241 -0.0018199 0)
(0.000141066 -0.00182072 0)
(0.000120911 -0.00182879 0)
(0.00013609 -0.00182897 0)
(0.000116479 -0.00183649 0)
(0.000131006 -0.00183596 0)
(0.000112033 -0.00184297 0)
(0.000126277 -0.00184218 0)
(0.000108191 -0.001849 0)
(0.00012226 -0.00184807 0)
(0.000104956 -0.00185468 0)
(0.000118848 -0.00185363 0)
(0.000102196 -0.00186004 0)
(0.00011591 -0.00185889 0)
(9.98108e-05 -0.00186513 0)
(0.000113349 -0.00186392 0)
(9.77279e-05 -0.00187001 0)
(0.000111096 -0.00186873 0)
(9.58916e-05 -0.0018747 0)
(0.000109098 -0.00187337 0)
(9.42588e-05 -0.00187923 0)
(0.000107312 -0.00187787 0)
(9.27962e-05 -0.00188362 0)
(0.000105706 -0.00188223 0)
(9.14767e-05 -0.0018879 0)
(0.000104251 -0.00188649 0)
(9.02788e-05 -0.00189209 0)
(0.000102925 -0.00189065 0)
(8.91846e-05 -0.00189619 0)
(0.00010171 -0.00189474 0)
(8.81795e-05 -0.00190022 0)
(0.00010059 -0.00189876 0)
(8.72516e-05 -0.0019042 0)
(9.95513e-05 -0.00190273 0)
(8.63911e-05 -0.00190813 0)
(9.85838e-05 -0.00190665 0)
(8.55908e-05 -0.00191203 0)
(9.76777e-05 -0.00191053 0)
(8.48457e-05 -0.00191589 0)
(9.68252e-05 -0.00191439 0)
(8.41542e-05 -0.00191972 0)
(9.60197e-05 -0.00191821 0)
(8.35183e-05 -0.00192353 0)
(9.52546e-05 -0.001922 0)
(8.29435e-05 -0.00192731 0)
(9.45231e-05 -0.00192576 0)
(0.000253979 -0.00146454 0)
(0.0002776 -0.00147612 0)
(0.000250676 -0.00149637 0)
(0.000273913 -0.00150748 0)
(0.000247342 -0.00152682 0)
(0.000270212 -0.00153743 0)
(0.000243933 -0.00155593 0)
(0.000266409 -0.00156589 0)
(0.000240404 -0.00158356 0)
(0.00026247 -0.00159286 0)
(0.000236728 -0.00160973 0)
(0.000258366 -0.00161834 0)
(0.000232886 -0.00163444 0)
(0.000254075 -0.00164235 0)
(0.000228876 -0.0016577 0)
(0.000249588 -0.00166489 0)
(0.000224693 -0.00167951 0)
(0.0002449 -0.00168598 0)
(0.000220326 -0.00169988 0)
(0.000240002 -0.0017056 0)
(0.000215759 -0.00171882 0)
(0.000234881 -0.00172377 0)
(0.000210969 -0.00173631 0)
(0.000229521 -0.00174049 0)
(0.000205966 -0.00175237 0)
(0.000223917 -0.00175578 0)
(0.000200753 -0.00176703 0)
(0.000218077 -0.00176965 0)
(0.000195319 -0.00178031 0)
(0.000212014 -0.00178214 0)
(0.000189658 -0.00179222 0)
(0.000205729 -0.00179327 0)
(0.00018381 -0.00180279 0)
(0.000199233 -0.00180308 0)
(0.000177801 -0.00181212 0)
(0.000192538 -0.00181162 0)
(0.00017157 -0.00182017 0)
(0.0001857 -0.00181893 0)
(0.00016525 -0.00182698 0)
(0.000178957 -0.00182519 0)
(0.000159394 -0.00183312 0)
(0.000173078 -0.00183122 0)
(0.000154386 -0.00183898 0)
(0.000168005 -0.00183697 0)
(0.00015007 -0.00184457 0)
(0.000163597 -0.00184245 0)
(0.000146317 -0.0018499 0)
(0.000159734 -0.0018477 0)
(0.000143027 -0.00185501 0)
(0.000156326 -0.00185274 0)
(0.000140122 -0.00185991 0)
(0.000153299 -0.00185759 0)
(0.00013754 -0.00186464 0)
(0.000150594 -0.00186228 0)
(0.000135229 -0.00186922 0)
(0.000148163 -0.00186683 0)
(0.000133148 -0.00187367 0)
(0.000145964 -0.00187124 0)
(0.000131264 -0.001878 0)
(0.000143966 -0.00187555 0)
(0.000129548 -0.00188224 0)
(0.000142141 -0.00187977 0)
(0.000127978 -0.00188639 0)
(0.000140465 -0.0018839 0)
(0.000126533 -0.00189047 0)
(0.000138918 -0.00188796 0)
(0.000125199 -0.00189448 0)
(0.000137485 -0.00189196 0)
(0.000123961 -0.00189845 0)
(0.00013615 -0.00189592 0)
(0.00012281 -0.00190237 0)
(0.000134901 -0.00189983 0)
(0.000121737 -0.00190625 0)
(0.000133727 -0.0019037 0)
(0.000120737 -0.0019101 0)
(0.000132619 -0.00190754 0)
(0.000119807 -0.00191393 0)
(0.000131566 -0.00191134 0)
(0.000118949 -0.00191772 0)
(0.000130557 -0.00191509 0)
(0.000329091 -0.00146798 0)
(0.000352256 -0.00147961 0)
(0.000324746 -0.00149938 0)
(0.000347437 -0.00151051 0)
(0.000320377 -0.00152933 0)
(0.000342649 -0.0015399 0)
(0.00031591 -0.00155787 0)
(0.000337748 -0.00156773 0)
(0.000311285 -0.00158488 0)
(0.000332676 -0.001594 0)
(0.000306474 -0.00161037 0)
(0.000327395 -0.00161872 0)
(0.000301456 -0.00163435 0)
(0.000321881 -0.00164191 0)
(0.000296201 -0.00165685 0)
(0.000316106 -0.00166359 0)
(0.000290686 -0.00167784 0)
(0.000310049 -0.00168374 0)
(0.000284906 -0.00169733 0)
(0.000303695 -0.00170238 0)
(0.00027886 -0.00171534 0)
(0.000297044 -0.00171951 0)
(0.000272546 -0.00173187 0)
(0.000290097 -0.00173516 0)
(0.000265943 -0.00174693 0)
(0.000282855 -0.00174933 0)
(0.000259042 -0.00176054 0)
(0.000275318 -0.00176205 0)
(0.00025187 -0.00177273 0)
(0.000267485 -0.00177335 0)
(0.000244461 -0.00178356 0)
(0.000259387 -0.00178328 0)
(0.000236795 -0.00179306 0)
(0.000251043 -0.00179189 0)
(0.000228866 -0.00180121 0)
(0.000242487 -0.00179922 0)
(0.000220823 -0.00180814 0)
(0.000233942 -0.00180543 0)
(0.000213064 -0.00181425 0)
(0.000226285 -0.00181145 0)
(0.000206284 -0.00182019 0)
(0.00021955 -0.00181728 0)
(0.000200353 -0.00182591 0)
(0.00021362 -0.0018229 0)
(0.00019514 -0.00183141 0)
(0.000208374 -0.00182832 0)
(0.000190534 -0.0018367 0)
(0.000203712 -0.00183354 0)
(0.000186444 -0.0018418 0)
(0.000199549 -0.00183858 0)
(0.000182793 -0.00184673 0)
(0.000195817 -0.00184345 0)
(0.000179519 -0.00185149 0)
(0.000192455 -0.00184816 0)
(0.000176568 -0.00185611 0)
(0.000189412 -0.00185275 0)
(0.000173895 -0.0018606 0)
(0.000186647 -0.0018572 0)
(0.000171463 -0.00186498 0)
(0.000184123 -0.00186155 0)
(0.000169241 -0.00186926 0)
(0.000181809 -0.00186581 0)
(0.000167201 -0.00187345 0)
(0.000179679 -0.00186998 0)
(0.000165321 -0.00187756 0)
(0.000177711 -0.00187407 0)
(0.000163581 -0.00188161 0)
(0.000175883 -0.00187811 0)
(0.000161966 -0.0018856 0)
(0.000174179 -0.00188208 0)
(0.00016046 -0.00188955 0)
(0.000172585 -0.00188601 0)
(0.000159055 -0.00189345 0)
(0.000171085 -0.00188989 0)
(0.00015774 -0.00189731 0)
(0.000169669 -0.00189373 0)
(0.000156511 -0.00190114 0)
(0.000168322 -0.00189753 0)
(0.000155363 -0.00190493 0)
(0.000167032 -0.00190128 0)
(0.000403363 -0.00147233 0)
(0.000425905 -0.00148396 0)
(0.000398012 -0.00150307 0)
(0.000420061 -0.00151413 0)
(0.000392587 -0.00153231 0)
(0.00041418 -0.00154273 0)
(0.000387014 -0.00156009 0)
(0.000408128 -0.00156971 0)
(0.000381232 -0.00158629 0)
(0.00040185 -0.00159506 0)
(0.000375205 -0.0016109 0)
(0.000395302 -0.0016188 0)
(0.000368902 -0.00163394 0)
(0.000388455 -0.00164095 0)
(0.000362307 -0.00165541 0)
(0.000381285 -0.0016615 0)
(0.000355407 -0.00167532 0)
(0.000373776 -0.00168045 0)
(0.000348178 -0.00169368 0)
(0.000365912 -0.00169783 0)
(0.000340592 -0.00171048 0)
(0.00035768 -0.00171365 0)
(0.000332641 -0.00172575 0)
(0.000349076 -0.00172792 0)
(0.000324342 -0.00173949 0)
(0.000340106 -0.00174066 0)
(0.000315723 -0.00175177 0)
(0.000330781 -0.00175192 0)
(0.000306794 -0.00176262 0)
(0.000321138 -0.00176175 0)
(0.000297528 -0.00177204 0)
(0.000311181 -0.00177018 0)
(0.000287962 -0.00178007 0)
(0.000300963 -0.00177727 0)
(0.000278233 -0.00178689 0)
(0.00029079 -0.00178335 0)
(0.000268777 -0.00179287 0)
(0.000281511 -0.00178926 0)
(0.000260346 -0.00179877 0)
(0.000273214 -0.00179507 0)
(0.000252851 -0.00180452 0)
(0.000265803 -0.00180072 0)
(0.000246176 -0.0018101 0)
(0.00025917 -0.00180621 0)
(0.000240217 -0.00181551 0)
(0.000253219 -0.00181155 0)
(0.00023488 -0.00182075 0)
(0.000247866 -0.00181671 0)
(0.000230086 -0.00182582 0)
(0.000243037 -0.00182172 0)
(0.000225765 -0.00183074 0)
(0.000238667 -0.00182658 0)
(0.000221856 -0.00183551 0)
(0.000234701 -0.0018313 0)
(0.000218309 -0.00184015 0)
(0.000231088 -0.0018359 0)
(0.000215077 -0.00184466 0)
(0.000227787 -0.00184037 0)
(0.000212121 -0.00184907 0)
(0.00022476 -0.00184474 0)
(0.00020941 -0.00185337 0)
(0.000221974 -0.00184901 0)
(0.000206912 -0.00185759 0)
(0.000219402 -0.0018532 0)
(0.000204604 -0.00186172 0)
(0.000217018 -0.00185731 0)
(0.000202463 -0.00186579 0)
(0.000214801 -0.00186135 0)
(0.000200471 -0.0018698 0)
(0.000212731 -0.00186533 0)
(0.000198611 -0.00187375 0)
(0.000210791 -0.00186926 0)
(0.000196871 -0.00187765 0)
(0.000208964 -0.00187314 0)
(0.00019524 -0.00188151 0)
(0.000207237 -0.00187697 0)
(0.000193708 -0.00188533 0)
(0.000205595 -0.00188075 0)
(0.00019227 -0.00188911 0)
(0.000204023 -0.00188447 0)
(0.000476595 -0.00147733 0)
(0.000498412 -0.00148885 0)
(0.000470184 -0.00150723 0)
(0.000491476 -0.00151809 0)
(0.000463658 -0.00153558 0)
(0.000484445 -0.00154568 0)
(0.000456932 -0.00156239 0)
(0.00047719 -0.00157159 0)
(0.000449944 -0.00158754 0)
(0.00046965 -0.00159579 0)
(0.000442647 -0.00161103 0)
(0.000461778 -0.00161829 0)
(0.000435009 -0.00163286 0)
(0.000453537 -0.00163911 0)
(0.000427 -0.00165306 0)
(0.000444897 -0.00165824 0)
(0.000418591 -0.0016716 0)
(0.000435836 -0.00167571 0)
(0.000409766 -0.00168851 0)
(0.00042634 -0.00169152 0)
(0.000400524 -0.0017038 0)
(0.000416408 -0.00170571 0)
(0.000390879 -0.0017175 0)
(0.00040605 -0.00171829 0)
(0.000380845 -0.00172966 0)
(0.000395278 -0.00172931 0)
(0.000370421 -0.00174031 0)
(0.00038411 -0.00173881 0)
(0.000359594 -0.00174944 0)
(0.000372562 -0.00174683 0)
(0.000348419 -0.00175713 0)
(0.000360746 -0.00175351 0)
(0.000337088 -0.0017636 0)
(0.000349109 -0.00175933 0)
(0.000326146 -0.00176941 0)
(0.000338407 -0.00176508 0)
(0.000316239 -0.00177519 0)
(0.0003287 -0.00177078 0)
(0.000307297 -0.00178088 0)
(0.000319908 -0.00177638 0)
(0.000299227 -0.00178645 0)
(0.000311943 -0.00178186 0)
(0.000291939 -0.00179189 0)
(0.000304723 -0.00178722 0)
(0.00028535 -0.0017972 0)
(0.000298172 -0.00179244 0)
(0.000279384 -0.00180235 0)
(0.000292219 -0.00179753 0)
(0.000273972 -0.00180737 0)
(0.000286801 -0.00180247 0)
(0.000269051 -0.00181225 0)
(0.000281859 -0.00180729 0)
(0.000264566 -0.00181699 0)
(0.000277342 -0.00181197 0)
(0.000260468 -0.00182161 0)
(0.000273202 -0.00181654 0)
(0.000256713 -0.00182612 0)
(0.000269399 -0.001821 0)
(0.000253263 -0.00183052 0)
(0.000265895 -0.00182535 0)
(0.000250083 -0.00183482 0)
(0.000262659 -0.00182961 0)
(0.000247145 -0.00183903 0)
(0.000259661 -0.00183379 0)
(0.00024442 -0.00184317 0)
(0.000256875 -0.00183789 0)
(0.000241887 -0.00184723 0)
(0.000254277 -0.00184191 0)
(0.000239525 -0.00185122 0)
(0.000251847 -0.00184588 0)
(0.000237316 -0.00185516 0)
(0.000249566 -0.00184978 0)
(0.000235244 -0.00185905 0)
(0.000247416 -0.00185363 0)
(0.000233297 -0.00186288 0)
(0.000245382 -0.00185743 0)
(0.000231464 -0.00186668 0)
(0.000243446 -0.00186117 0)
(0.000229737 -0.00187042 0)
(0.000241594 -0.00186486 0)
(0.000548858 -0.00148263 0)
(0.00056991 -0.00149385 0)
(0.000541279 -0.00151155 0)
(0.000561731 -0.001522 0)
(0.000533539 -0.00153879 0)
(0.000553428 -0.00154839 0)
(0.00052554 -0.00156441 0)
(0.000544844 -0.00157298 0)
(0.000517209 -0.00158827 0)
(0.000535908 -0.00159576 0)
(0.000508502 -0.00161037 0)
(0.000526568 -0.00161674 0)
(0.000499382 -0.00163072 0)
(0.000516785 -0.00163594 0)
(0.000489821 -0.00164932 0)
(0.000506533 -0.00165336 0)
(0.0004798 -0.00166619 0)
(0.000495797 -0.00166902 0)
(0.00046931 -0.00168135 0)
(0.000484573 -0.00168294 0)
(0.000458353 -0.00169483 0)
(0.000472867 -0.00169518 0)
(0.000446933 -0.00170667 0)
(0.00046068 -0.00170575 0)
(0.000435046 -0.0017169 0)
(0.000448014 -0.00171471 0)
(0.00042269 -0.00172554 0)
(0.00043491 -0.00172212 0)
(0.000409949 -0.00173269 0)
(0.000421586 -0.00172825 0)
(0.000397123 -0.00173867 0)
(0.000408663 -0.00173377 0)
(0.000384892 -0.00174427 0)
(0.000396717 -0.00173931 0)
(0.000373679 -0.00174986 0)
(0.000385746 -0.00174483 0)
(0.000363424 -0.00175541 0)
(0.000375689 -0.0017503 0)
(0.000354058 -0.0017609 0)
(0.000366477 -0.00175569 0)
(0.000345509 -0.00176629 0)
(0.000358044 -0.001761 0)
(0.000337704 -0.00177157 0)
(0.000350326 -0.00176619 0)
(0.000330579 -0.00177674 0)
(0.000343259 -0.00177128 0)
(0.000324068 -0.00178179 0)
(0.000336785 -0.00177624 0)
(0.000318112 -0.00178671 0)
(0.000330846 -0.00178108 0)
(0.000312656 -0.00179151 0)
(0.000325392 -0.00178581 0)
(0.00030765 -0.00179619 0)
(0.000320375 -0.00179043 0)
(0.000303048 -0.00180075 0)
(0.000315753 -0.00179493 0)
(0.000298809 -0.00180521 0)
(0.000311484 -0.00179933 0)
(0.000294896 -0.00180957 0)
(0.000307536 -0.00180363 0)
(0.000291275 -0.00181383 0)
(0.000303874 -0.00180784 0)
(0.000287917 -0.00181801 0)
(0.00030047 -0.00181197 0)
(0.000284793 -0.00182211 0)
(0.000297298 -0.00181602 0)
(0.000281882 -0.00182613 0)
(0.000294334 -0.00182 0)
(0.00027916 -0.00183009 0)
(0.000291555 -0.00182392 0)
(0.000276609 -0.00183399 0)
(0.000288942 -0.00182777 0)
(0.000274212 -0.00183783 0)
(0.000286477 -0.00183157 0)
(0.000271955 -0.00184162 0)
(0.000284141 -0.00183531 0)
(0.000269826 -0.00184536 0)
(0.000281918 -0.00183899 0)
(0.000267813 -0.00184905 0)
(0.000279791 -0.00184261 0)
(0.000619606 -0.00148813 0)
(0.000639724 -0.00149889 0)
(0.00061081 -0.00151577 0)
(0.000630291 -0.00152562 0)
(0.00060178 -0.00154165 0)
(0.00062064 -0.0015505 0)
(0.00059242 -0.00156578 0)
(0.00061063 -0.00157348 0)
(0.000582659 -0.00158805 0)
(0.000600196 -0.00159453 0)
(0.000572447 -0.00160846 0)
(0.000589283 -0.00161367 0)
(0.000561745 -0.001627 0)
(0.000577853 -0.00163092 0)
(0.000550531 -0.0016437 0)
(0.000565885 -0.00164628 0)
(0.000538791 -0.00165858 0)
(0.000553373 -0.00165979 0)
(0.000526525 -0.00167166 0)
(0.000540324 -0.00167151 0)
(0.000513736 -0.001683 0)
(0.000526735 -0.00168145 0)
(0.000500414 -0.00169262 0)
(0.000512599 -0.00168966 0)
(0.000486561 -0.00170055 0)
(0.000497999 -0.00169629 0)
(0.000472326 -0.00170701 0)
(0.00048331 -0.00170182 0)
(0.000458158 -0.00171246 0)
(0.000469281 -0.00170705 0)
(0.000444811 -0.00171781 0)
(0.000456234 -0.00171233 0)
(0.000432438 -0.00172318 0)
(0.000444129 -0.00171762 0)
(0.000420999 -0.00172853 0)
(0.00043292 -0.00172289 0)
(0.000410444 -0.00173386 0)
(0.000422556 -0.00172812 0)
(0.000400717 -0.00173912 0)
(0.000412986 -0.00173328 0)
(0.000391759 -0.0017443 0)
(0.000404155 -0.00173838 0)
(0.000383515 -0.0017494 0)
(0.000396009 -0.00174338 0)
(0.000375927 -0.0017544 0)
(0.000388497 -0.00174829 0)
(0.000368943 -0.00175929 0)
(0.000381566 -0.00175309 0)
(0.000362509 -0.00176408 0)
(0.000375169 -0.00175779 0)
(0.000356577 -0.00176876 0)
(0.000369258 -0.00176239 0)
(0.000351102 -0.00177333 0)
(0.000363791 -0.00176689 0)
(0.000346043 -0.0017778 0)
(0.000358729 -0.00177128 0)
(0.000341359 -0.00178217 0)
(0.000354034 -0.00177558 0)
(0.000337017 -0.00178645 0)
(0.000349673 -0.0017798 0)
(0.000332984 -0.00179063 0)
(0.000345615 -0.00178392 0)
(0.00032923 -0.00179474 0)
(0.00034183 -0.00178797 0)
(0.000325729 -0.00179877 0)
(0.000338293 -0.00179193 0)
(0.000322456 -0.00180272 0)
(0.000334979 -0.00179583 0)
(0.00031939 -0.00180661 0)
(0.000331867 -0.00179967 0)
(0.00031651 -0.00181043 0)
(0.000328936 -0.00180344 0)
(0.000313799 -0.0018142 0)
(0.000326166 -0.00180715 0)
(0.000311241 -0.00181791 0)
(0.000323539 -0.0018108 0)
(0.000308824 -0.00182158 0)
(0.000321038 -0.00181439 0)
(0.000306533 -0.00182519 0)
(0.000318644 -0.00181792 0)
(0.000688869 -0.0014933 0)
(0.000707987 -0.00150334 0)
(0.000678729 -0.00151943 0)
(0.000697129 -0.00152843 0)
(0.000668293 -0.00154366 0)
(0.000685992 -0.0015515 0)
(0.000657446 -0.00156601 0)
(0.000674422 -0.00157254 0)
(0.000646115 -0.00158637 0)
(0.000662347 -0.00159152 0)
(0.000634254 -0.00160474 0)
(0.000649717 -0.00160847 0)
(0.000621829 -0.00162114 0)
(0.0006365 -0.0016234 0)
(0.000608822 -0.00163558 0)
(0.000622682 -0.00163635 0)
(0.000595232 -0.00164812 0)
(0.000608271 -0.00164739 0)
(0.000581059 -0.00165879 0)
(0.000593256 -0.00165653 0)
(0.000566287 -0.00166762 0)
(0.000577639 -0.00166384 0)
(0.000550947 -0.00167468 0)
(0.000561608 -0.00166959 0)
(0.000535308 -0.00168033 0)
(0.000545778 -0.00167456 0)
(0.000520032 -0.00168536 0)
(0.000530797 -0.0016795 0)
(0.000505713 -0.00169041 0)
(0.000516777 -0.00168449 0)
(0.000492316 -0.0016955 0)
(0.000503657 -0.00168949 0)
(0.000479815 -0.0017006 0)
(0.000491404 -0.0016945 0)
(0.000468177 -0.0017057 0)
(0.000479982 -0.0016995 0)
(0.000457361 -0.00171076 0)
(0.000469353 -0.00170446 0)
(0.000447323 -0.00171577 0)
(0.000459475 -0.00170936 0)
(0.000438017 -0.00172072 0)
(0.000450302 -0.00171421 0)
(0.000429394 -0.00172559 0)
(0.000441789 -0.00171898 0)
(0.000421407 -0.00173039 0)
(0.00043389 -0.00172368 0)
(0.00041401 -0.00173509 0)
(0.000426561 -0.00172828 0)
(0.000407156 -0.0017397 0)
(0.000419759 -0.0017328 0)
(0.000400802 -0.00174421 0)
(0.000413443 -0.00173722 0)
(0.000394908 -0.00174864 0)
(0.000407574 -0.00174156 0)
(0.000389435 -0.00175297 0)
(0.000402115 -0.00174581 0)
(0.000384348 -0.00175721 0)
(0.000397031 -0.00174997 0)
(0.000379613 -0.00176136 0)
(0.000392292 -0.00175405 0)
(0.000375199 -0.00176543 0)
(0.000387867 -0.00175805 0)
(0.000371077 -0.00176942 0)
(0.000383729 -0.00176197 0)
(0.000367222 -0.00177334 0)
(0.000379851 -0.00176582 0)
(0.000363609 -0.00177719 0)
(0.000376209 -0.0017696 0)
(0.000360217 -0.00178097 0)
(0.000372782 -0.00177332 0)
(0.000357024 -0.0017847 0)
(0.000369549 -0.00177697 0)
(0.000354013 -0.00178836 0)
(0.00036649 -0.00178057 0)
(0.000351168 -0.00179197 0)
(0.000363585 -0.0017841 0)
(0.000348474 -0.00179552 0)
(0.000360818 -0.00178758 0)
(0.000345917 -0.00179902 0)
(0.000358169 -0.00179098 0)
(0.000756232 -0.00149782 0)
(0.000774188 -0.00150688 0)
(0.000744638 -0.0015221 0)
(0.000761819 -0.00152995 0)
(0.000732671 -0.00154433 0)
(0.000749083 -0.00155086 0)
(0.000720213 -0.00156454 0)
(0.000735827 -0.00156958 0)
(0.000707188 -0.00158263 0)
(0.000721983 -0.0015861 0)
(0.000693551 -0.00159858 0)
(0.000707511 -0.00160046 0)
(0.000679283 -0.00161245 0)
(0.000692391 -0.00161271 0)
(0.000664385 -0.00162429 0)
(0.000676634 -0.00162292 0)
(0.000648847 -0.00163414 0)
(0.000660214 -0.00163111 0)
(0.000632641 -0.00164202 0)
(0.00064316 -0.00163738 0)
(0.000615862 -0.0016481 0)
(0.000625843 -0.00164229 0)
(0.00059899 -0.00165297 0)
(0.000609067 -0.00164681 0)
(0.000582799 -0.00165764 0)
(0.000593208 -0.00165141 0)
(0.000567541 -0.00166237 0)
(0.000578262 -0.00165606 0)
(0.000553188 -0.00166715 0)
(0.000564195 -0.00166074 0)
(0.000539711 -0.00167194 0)
(0.000550978 -0.00166544 0)
(0.000527078 -0.00167675 0)
(0.00053858 -0.00167014 0)
(0.000515258 -0.00168154 0)
(0.00052697 -0.00167483 0)
(0.000504214 -0.00168631 0)
(0.000516112 -0.00167949 0)
(0.00049391 -0.00169104 0)
(0.000505968 -0.0016841 0)
(0.000484304 -0.00169572 0)
(0.000496501 -0.00168867 0)
(0.000475355 -0.00170034 0)
(0.000487671 -0.00169318 0)
(0.000467023 -0.00170488 0)
(0.000479437 -0.00169762 0)
(0.000459266 -0.00170935 0)
(0.000471761 -0.00170199 0)
(0.000452043 -0.00171375 0)
(0.000464605 -0.00170628 0)
(0.000445317 -0.00171806 0)
(0.00045793 -0.00171049 0)
(0.000439051 -0.00172229 0)
(0.000451703 -0.00171463 0)
(0.000433208 -0.00172644 0)
(0.000445889 -0.00171869 0)
(0.000427756 -0.00173051 0)
(0.000440455 -0.00172267 0)
(0.000422664 -0.0017345 0)
(0.000435373 -0.00172657 0)
(0.000417902 -0.00173842 0)
(0.000430614 -0.00173041 0)
(0.000413442 -0.00174226 0)
(0.00042615 -0.00173417 0)
(0.00040926 -0.00174604 0)
(0.000421957 -0.00173786 0)
(0.000405331 -0.00174974 0)
(0.000418012 -0.00174149 0)
(0.000401633 -0.00175338 0)
(0.000414292 -0.00174506 0)
(0.000398148 -0.00175697 0)
(0.000410776 -0.00174857 0)
(0.000394855 -0.00176049 0)
(0.000407445 -0.00175202 0)
(0.000391738 -0.00176396 0)
(0.00040428 -0.0017554 0)
(0.000388783 -0.00176738 0)
(0.000401262 -0.00175873 0)
(0.000385973 -0.00177074 0)
(0.000398373 -0.00176199 0)
(0.000821536 -0.00150107 0)
(0.000838215 -0.00150884 0)
(0.000808338 -0.00152317 0)
(0.00082416 -0.00152954 0)
(0.000794684 -0.00154304 0)
(0.000809658 -0.00154788 0)
(0.000780456 -0.00156072 0)
(0.000794559 -0.00156388 0)
(0.000765583 -0.00157612 0)
(0.000778807 -0.00157755 0)
(0.000750039 -0.00158929 0)
(0.000762374 -0.00158896 0)
(0.000733822 -0.00160029 0)
(0.000745268 -0.00159821 0)
(0.000716904 -0.00160917 0)
(0.000727444 -0.00160532 0)
(0.000699267 -0.00161597 0)
(0.00070901 -0.00161051 0)
(0.000681151 -0.00162102 0)
(0.000690633 -0.0016147 0)
(0.000663285 -0.0016253 0)
(0.000673049 -0.00161885 0)
(0.000646305 -0.0016296 0)
(0.000656387 -0.00162306 0)
(0.0006302 -0.00163396 0)
(0.000640592 -0.00162732 0)
(0.000614961 -0.00163837 0)
(0.000625645 -0.00163163 0)
(0.000600574 -0.00164282 0)
(0.000611528 -0.00163596 0)
(0.000587015 -0.00164728 0)
(0.000598218 -0.00164032 0)
(0.000574259 -0.00165175 0)
(0.00058569 -0.00164468 0)
(0.000562276 -0.00165622 0)
(0.000573913 -0.00164902 0)
(0.000551034 -0.00166067 0)
(0.000562855 -0.00165335 0)
(0.000540499 -0.00166508 0)
(0.000552484 -0.00165765 0)
(0.000530634 -0.00166945 0)
(0.000542763 -0.0016619 0)
(0.000521405 -0.00167378 0)
(0.000533659 -0.00166611 0)
(0.000512774 -0.00167805 0)
(0.000525136 -0.00167026 0)
(0.000504705 -0.00168225 0)
(0.000517159 -0.00167436 0)
(0.000497161 -0.00168639 0)
(0.000509693 -0.00167839 0)
(0.000490108 -0.00169046 0)
(0.000502704 -0.00168235 0)
(0.000483512 -0.00169446 0)
(0.00049616 -0.00168625 0)
(0.00047734 -0.0016984 0)
(0.00049003 -0.00169008 0)
(0.000471562 -0.00170226 0)
(0.000484284 -0.00169385 0)
(0.000466149 -0.00170605 0)
(0.000478894 -0.00169754 0)
(0.000461071 -0.00170977 0)
(0.000473832 -0.00170118 0)
(0.000456304 -0.00171343 0)
(0.000469073 -0.00170474 0)
(0.000451823 -0.00171702 0)
(0.000464593 -0.00170825 0)
(0.000447604 -0.00172055 0)
(0.000460369 -0.00171169 0)
(0.000443625 -0.00172402 0)
(0.00045638 -0.00171508 0)
(0.000439868 -0.00172743 0)
(0.000452604 -0.0017184 0)
(0.000436314 -0.00173079 0)
(0.000449021 -0.00172167 0)
(0.000432944 -0.00173409 0)
(0.000445614 -0.00172489 0)
(0.000429744 -0.00173734 0)
(0.000442364 -0.00172804 0)
(0.000426698 -0.00174054 0)
(0.000439251 -0.00173113 0)
(0.000884494 -0.00150247 0)
(0.000899748 -0.00150858 0)
(0.000869537 -0.00152198 0)
(0.000883858 -0.00152647 0)
(0.000854041 -0.00153907 0)
(0.00086744 -0.00154183 0)
(0.000837894 -0.00155379 0)
(0.000850369 -0.0015547 0)
(0.000821048 -0.00156613 0)
(0.000832609 -0.00156517 0)
(0.000803498 -0.00157618 0)
(0.00081416 -0.00157338 0)
(0.000785222 -0.00158399 0)
(0.000794975 -0.00157933 0)
(0.000766235 -0.00158967 0)
(0.000775313 -0.0015835 0)
(0.000746964 -0.00159377 0)
(0.000756084 -0.00158715 0)
(0.000728294 -0.0015976 0)
(0.000737743 -0.00159088 0)
(0.000710518 -0.00160148 0)
(0.000720288 -0.00159466 0)
(0.000693603 -0.00160543 0)
(0.000703682 -0.0015985 0)
(0.000677535 -0.00160943 0)
(0.000687907 -0.00160239 0)
(0.000662297 -0.00161347 0)
(0.000672947 -0.00160631 0)
(0.000647873 -0.00161755 0)
(0.000658782 -0.00161027 0)
(0.00063424 -0.00162165 0)
(0.000645391 -0.00161424 0)
(0.000621375 -0.00162575 0)
(0.000632748 -0.00161823 0)
(0.000609251 -0.00162985 0)
(0.000620827 -0.0016222 0)
(0.000597837 -0.00163395 0)
(0.000609598 -0.00162617 0)
(0.000587103 -0.00163801 0)
(0.00059903 -0.00163011 0)
(0.000577018 -0.00164205 0)
(0.000589093 -0.00163403 0)
(0.000567547 -0.00164605 0)
(0.000579755 -0.00163791 0)
(0.000558659 -0.00165001 0)
(0.000570983 -0.00164174 0)
(0.00055032 -0.00165391 0)
(0.000562745 -0.00164553 0)
(0.000542497 -0.00165777 0)
(0.00055501 -0.00164927 0)
(0.000535158 -0.00166156 0)
(0.000547747 -0.00165295 0)
(0.000528273 -0.0016653 0)
(0.000540926 -0.00165658 0)
(0.000521812 -0.00166898 0)
(0.000534518 -0.00166015 0)
(0.000515745 -0.0016726 0)
(0.000528495 -0.00166366 0)
(0.000510045 -0.00167615 0)
(0.000522831 -0.00166711 0)
(0.000504686 -0.00167965 0)
(0.000517499 -0.00167051 0)
(0.000499642 -0.00168309 0)
(0.000512476 -0.00167385 0)
(0.000494891 -0.00168646 0)
(0.000507737 -0.00167713 0)
(0.000490408 -0.00168979 0)
(0.000503262 -0.00168036 0)
(0.000486175 -0.00169305 0)
(0.000499027 -0.00168353 0)
(0.00048217 -0.00169626 0)
(0.000495014 -0.00168665 0)
(0.000478375 -0.00169942 0)
(0.000491203 -0.00168972 0)
(0.000474774 -0.00170253 0)
(0.000487575 -0.00169273 0)
(0.000471349 -0.00170559 0)
(0.000484111 -0.00169568 0)
(0.000468086 -0.00170859 0)
(0.000480794 -0.00169857 0)
(0.00094486 -0.00150129 0)
(0.000958556 -0.00150532 0)
(0.000927973 -0.00151775 0)
(0.000940671 -0.00151996 0)
(0.000910482 -0.00153163 0)
(0.000922217 -0.00153194 0)
(0.000892302 -0.00154303 0)
(0.00090311 -0.00154141 0)
(0.000873427 -0.00155204 0)