/*--------------------------------*- C++ -*----------------------------------*\
| =========                 |                                                 |
| \\      /  F ield         | OpenFOAM: The Open Source CFD Toolbox           |
|  \\    /   O peration     | Version:  v2012                                 |
|   \\  /    A nd           | Website:  www.openfoam.com                      |
|    \\/     M anipulation  |                                                 |
\*---------------------------------------------------------------------------*/
FoamFile
{
    version     2.0;
    format      ascii;
    class       volScalarField;
    location    "7";
    object      epsilonEq;
}
// * * * * * * * * * * * * * * * * * * * * * * * * * * * * * * * * * * * * * //

dimensions      [0 0 0 0 0 0 0];


internalField   nonuniform List<scalar> 
1896
(
0.000801524
0.00102796
0.000795537
0.00199467
0.000802768
0.000817532
0.00203667
0.000777755
0.00124664
0.000742185
0.000768068
0.000634035
0.00059697
0.000619477
0.00196174
0.00121215
0.00115501
0.00231721
0.00122591
0.00125211
0.00107786
0.00100019
0.00178717
0.00177249
0.00104874
0.00103068
0.000517989
0.000591633
0.000807733
0.00132276
0.00132613
0.00103974
0.000516124
0.00101991
0.00170988
0.000801734
0.00127819
0.000955494
0.00240389
0.00135106
0.00103117
0.00189162
0.00119599
0.00179887
0.000527849
0.000550047
0.00197264
0.000776714
0.00183441
0.00184536
0.000780856
0.000795114
0.000793557
0.000999999
0.00135509
0.00107432
0.00159064
0.000805989
0.000942337
0.00132667
0.000764844
0.00183856
0.00184478
0.000880722
0.000880192
0.00104034
0.00168325
0.000841728
0.000944887
0.00175217
0.000382301
0.00187301
0.000945074
0.00107489
0.00173383
0.00102684
0.0010274
0.00087456
0.000879421
0.00103519
0.00162518
0.00175007
0.000608326
0.000763323
0.0007651
0.00112107
0.000934323
0.000891456
0.00152913
0.00108702
0.000945034
0.00622038
0.00104546
0.00218293
0.00184516
0.00102911
0.00100372
0.000760647
0.00101738
0.000991983
0.00105208
0.000852142
0.000863863
0.00115321
0.00134968
0.00114306
0.00110933
0.00192013
0.00168678
0.00434773
0.000773038
0.00100786
0.00163609
0.0015377
0.00297863
0.000965189
0.000621988
0.000994359
0.00168315
0.00129548
0.00180712
0.00129068
0.000969087
0.000694089
0.000661185
0.00151484
0.00189049
0.000779971
0.00126188
0.0010724
0.00109609
0.000972401
0.0016314
0.00205915
0.00120891
0.00180521
0.00194542
0.00207111
0.00103141
0.00141326
0.000968843
0.00178521
0.0013885
0.00165151
0.000871704
0.00112458
0.00111365
0.00127486
0.00175892
0.000971526
0.000598622
0.000990866
0.000971053
0.000909657
0.000914944
0.00161797
0.000636732
0.0016518
0.00330604
0.000770387
0.000801859
0.00181334
0.0013106
0.000918755
0.00197899
0.00073993
0.00126185
0.000786713
0.000788331
0.00101172
0.0010107
0.00105144
0.000626068
0.000577257
0.00200658
0.00203191
0.00182944
0.00103474
0.000781184
0.00126515
0.00058016
0.00133105
0.000911814
0.00180564
0.00201658
0.00187314
0.00100164
0.00170584
0.0013617
0.000714624
0.00198874
0.000785987
0.00173777
0.00177241
0.00122712
0.000749454
0.00116654
0.00181467
0.000698901
0.000647488
0.000921552
0.00162834
0.000777918
0.000924605
0.00183767
0.000896451
0.00179784
0.00156308
0.00136464
0.00108802
0.00182512
0.00125765
0.00110337
0.00109123
0.000716566
0.0011853
0.00150391
0.00148502
0.00148567
0.0013515
0.000722244
0.000928919
0.00187998
0.00171083
0.000986502
0.00141275
0.00204685
0.00109333
0.00144711
0.00102839
0.00123263
0.000771209
0.000779737
0.000755361
0.0010253
0.00083968
0.000839143
0.00184646
0.00174964
0.00133809
0.00189562
0.00190158
0.000749626
0.00176441
0.00098757
0.000664832
0.00092057
0.000637119
0.000532591
0.00156853
0.00129321
0.00121571
0.00103536
0.000751822
0.00103041
0.000965108
0.000900959
0.00163626
0.00185945
0.00164735
0.00124039
0.00115072
0.000911261
0.000848564
0.00118532
0.00136949
0.00122874
0.00101096
0.00137421
0.000954776
0.0010286
0.000523261
0.00178187
0.000513104
0.00116223
0.000861041
0.00167058
0.000863151
0.00098146
0.000787818
0.00104143
0.00159593
0.00070089
0.00103174
0.00107533
0.00138929
0.0010771
0.000989258
0.00102855
0.000772596
0.00115418
0.00123592
0.0012423
0.00110355
0.00172666
0.00033869
0.00131849
0.000932663
0.00176738
0.000913854
0.00164491
0.00126826
0.00177576
0.00193558
0.000962872
0.000854469
0.000871996
0.000652121
0.00062146
0.000973047
0.000916425
0.00105992
0.000572952
0.000777059
0.00101174
0.00125524
0.000692916
0.000947769
0.00123422
0.000910367
0.000874717
0.00160612
0.00159334
0.00127235
0.000776786
0.00113806
0.00123529
0.000736081
0.000836623
0.000997273
0.000779793
0.00123415
0.00076637
0.00102558
0.000727409
0.00127554
0.000744436
0.00178866
0.000826205
0.00101145
0.00134432
0.000812071
0.00135501
0.00127825
0.000646594
0.00125687
0.00121754
0.00220949
0.000952543
0.000945544
0.000713345
0.000840163
0.0015486
0.00111038
0.00117311
0.00125579
6.01597e-05
0.00220986
0.000998731
0.0017611
0.00150607
0.00162849
0.00209208
0.000807512
0.00100836
0.00113121
0.00147344
0.00147919
0.00104026
0.0010285
0.00190301
0.000588544
0.000738827
0.00103038
0.00100961
0.00105647
0.00264912
0.00158498
0.000924386
0.000984765
0.000877393
0.00103229
0.000879775
0.000903887
0.000994562
0.000850968
0.00218439
0.000996243
0.0007643
0.0019774
0.000787934
0.000820325
0.00151887
0.00253107
0.000872315
0.000788945
0.00137124
0.00151321
0.000999483
0.000991098
0.0010799
0.00107403
0.00125697
0.000321632
0.00138366
0.0014102
0.00105797
0.00180055
0.000510167
0.00133101
0.00124982
0.000705596
0.000681346
0.00147268
0.0015125
0.00150841
0.000917141
0.00212879
0.00126871
0.000830247
0.00144294
0.000734795
0.00103084
0.00195807
0.001379
0.00103793
0.000805852
0.00137121
0.00210814
0.00204169
0.000776867
0.00147275
0.00123907
0.00107524
0.0014542
0.00140659
0.00105247
0.00245814
0.00156633
0.000923473
0.00161508
0.00134695
0.000905909
0.00158491
0.000751855
0.00102855
0.000904245
0.000839569
0.000827978
0.00122748
0.0017398
0.00107862
0.00107459
0.000863017
0.00107187
0.000702231
0.00089151
0.00135476
0.000807776
0.000803431
0.00187935
0.000965295
0.00144657
0.00133531
0.00123455
0.00162892
0.00145962
0.00144948
0.000793951
0.00251495
0.000839442
0.000731745
0.0011004
0.000975784
0.000963345
0.000929549
0.00129408
0.00059836
0.00101423
0.00114142
0.000997002
0.000737824
0.000914657
0.000846979
0.00090039
0.00186809
0.000718282
0.00138262
0.00104592
0.00132164
0.00148838
0.00106009
0.00126365
0.000831778
0.0020232
0.00218842
0.00101777
0.00110447
0.000650808
0.00117755
0.00098968
0.0010352
0.000789755
0.00226834
0.000819844
0.000556384
0.000641772
0.00182769
0.00109136
0.00145189
0.0011758
0.00138023
0.00050783
0.000851528
0.000944947
0.0014333
0.000593269
0.00103089
0.000880064
0.000886394
0.000781372
0.000994746
0.00159158
0.000801274
0.00178623
0.000962661
0.000915106
0.00178264
0.000988248
0.000972059
0.000802752
0.000939194
0.000651724
0.00127979
0.000866395
0.000650782
0.00105842
0.000988257
0.000645596
0.00169586
0.00250705
0.000351159
0.00131748
0.000824203
0.000833296
0.00107387
0.00165051
0.000775412
0.000912407
0.000905638
0.000755815
0.00185823
0.00148981
0.00135909
0.000603324
0.00145851
0.00148813
0.0015859
0.00103096
0.00143925
0.00148145
0.000997212
0.00111986
0.00158358
0.000962215
0.00185664
0.000497079
0.00113127
0.00161655
0.000976414
0.00108165
0.0006104
0.00046748
0.00273435
0.00182315
0.0018266
0.00084427
0.00126315
0.00146072
0.000855271
0.00101571
0.00168473
0.0010605
0.00100335
0.00156262
0.00147803
0.000390396
0.000427494
0.00055383
0.00179342
0.00182801
0.00197928
0.00160102
0.000395053
0.00191274
0.00056111
0.00100287
0.00142095
0.00156119
0.000994012
0.00139724
0.00152763
0.00107697
0.00190403
0.00196606
0.0018223
0.00163102
0.00160447
0.000684975
0.000809614
0.000927269
0.000645303
0.000797708
0.0022449
0.000536719
0.000943475
0.000832855
0.00208102
0.00156246
0.000612557
0.000494208
0.00156799
0.00115503
0.00178203
0.000584305
0.000941416
0.00174408
0.00191637
0.000686131
0.00103989
0.000539657
0.00268247
0.00118687
0.00164725
0.00157187
0.000891886
0.000888638
0.00120573
0.00170203
0.000987725
0.000811601
0.000796306
0.00197366
0.00190603
0.00111049
0.00138278
0.00135532
0.00079586
0.00180055
0.00112931
0.00129349
0.000759299
0.00151458
0.00135508
0.00168928
0.000936074
0.00172923
0.00120777
0.00150571
0.00170374
0.00107402
0.00100577
0.00107881
0.00166497
0.00177861
0.00159015
0.000985862
0.000789321
0.00130965
0.00121539
0.00119028
0.000912315
0.00137431
0.00143001
0.00103478
0.00167294
0.0014952
0.00185774
0.000438683
0.000852347
0.00103423
0.00114253
0.00157187
0.000762741
0.00123826
0.00116448
0.00113485
0.000808272
0.00187008
0.00116912
0.00118818
0.0017456
0.0011597
0.00178852
0.00105112
0.00104302
0.00107486
0.00110348
0.00196403
0.00106646
0.000778859
0.0012538
0.00119729
0.00120189
0.00119693
0.00135323
0.00104924
0.00174525
0.000479368
0.00196155
0.00151157
0.000757151
0.00145412
0.00124452
0.00160567
0.000775115
0.00146824
0.00186485
0.00167431
0.00111677
0.000949306
0.00110507
0.00164871
0.000451161
0.0017057
0.000470762
0.000741589
0.00103031
0.00108821
0.00174085
0.0011482
0.000550094
0.000876107
0.000555896
0.00115145
0.00177622
0.00101136
0.00125694
0.00121698
0.00048375
0.00109407
0.00152687
0.000778464
0.000482347
0.000868954
0.000852804
0.00101707
0.00263618
0.00138852
0.000910664
0.00161558
0.00113637
0.00156248
0.00113766
0.000571791
0.00105322
0.00193945
0.00098242
0.00181269
0.00214865
0.00136047
0.00192815
0.00119051
0.000466667
0.00137942
0.00152362
0.00126964
0.00203766
0.00186631
0.000579171
0.00128332
0.00176914
0.00195928
0.00134398
0.001019
0.00127284
0.00124649
0.000793475
0.00160843
0.000835484
0.00150493
0.00155052
0.00176696
0.00087685
0.000872872
0.000681384
0.00069206
0.000952705
0.00208792
0.000987222
0.00179756
0.00173211
0.000839464
0.000430731
0.000764412
0.000874573
0.00154477
0.00122477
0.000370333
0.000882238
0.00096747
0.000899276
0.000624165
0.000908735
0.000807113
0.000812074
0.00134272
0.00145302
0.00152351
0.000392101
0.00116706
0.000579349
0.000798386
0.00109111
0.000997603
0.00232342
0.000776276
0.00118802
0.000828043
0.00183208
0.00158074
0.000834255
0.00153003
0.00167197
0.00109773
0.000840302
0.000759471
0.00103513
0.00143493
0.000956232
0.000866288
0.000588412
0.00176046
0.000629966
0.00105445
0.00134226
0.000674344
0.00105995
0.00155172
0.00102556
0.00100892
0.00104743
0.00113598
0.00107735
0.00138705
0.0009456
0.00110159
0.000825333
0.00168631
0.000330504
0.00106879
0.00105704
0.000864552
0.00101273
0.0012188
0.000361605
0.00237021
0.000775914
0.0011932
0.000407695
0.00108829
0.00183663
0.00181333
0.00181819
0.00113133
0.000932867
0.00089731
0.000944398
0.00166999
0.00100803
0.00110193
0.00163297
0.00121536
0.00142156
0.0010142
0.00112239
0.000758326
0.00202885
0.000989404
0.00148714
0.00127758
0.00183923
0.000869475
0.00131908
0.000765479
0.000836842
0.00188802
0.000496692
0.00190443
0.00127145
0.00124869
0.00208129
0.000753799
0.0007456
0.00102113
0.001029
0.000768432
0.00056485
0.000861261
0.000849011
0.000541992
0.000663171
0.00123454
0.00167852
0.00182649
0.0008283
0.00115434
0.00110649
0.0013764
0.00169896
0.00168115
0.000926366
0.00146333
0.00175392
0.00193515
0.00144042
0.00146339
0.000779548
0.00171969
0.000718286
0.00077293
0.0014144
0.0018753
0.0010641
0.00118684
0.00180582
0.000762697
0.0006673
0.000960655
0.000833383
0.000301594
0.00182498
0.0011139
0.00136895
0.00103491
0.00105719
0.000794175
0.00186733
0.0013113
0.00135771
0.00132142
0.00164324
0.00140657
0.00120508
0.00105842
0.00102678
0.00116558
0.00134118
0.00167759
0.00100584
0.00317767
0.00128871
0.0016669
0.00132588
0.00168115
0.0015476
0.000627347
0.00168796
0.000684239
0.00111431
0.00122856
0.0014464
0.000833873
0.00193344
0.00170772
0.00126055
0.00182118
0.000874008
0.000856327
0.00168833
0.000787148
0.000839199
0.00185299
0.000774798
0.000410882
0.00153519
0.00102075
0.000899528
0.000900471
0.00082269
0.000961533
0.00130822
0.0020694
0.000782091
0.00144071
0.00188507
0.000658676
0.000894583
0.0016937
0.00196904
0.00129226
0.000916004
0.00132328
0.0013223
0.0011012
0.00140136
0.00170603
0.000793062
0.0011221
0.0011882
0.00190602
0.000812094
0.00122734
0.000781369
0.00161003
0.000300364
0.00181472
0.000727174
0.00183867
0.0010464
0.000813087
0.000817162
0.0018447
0.00117696
0.00102149
0.00131792
0.00132413
0.00135675
0.000794507
0.00218108
0.00069754
0.000312397
0.000702084
0.000793301
0.00169378
0.000887771
0.0008513
0.000729738
0.00120494
0.00107033
0.0018087
0.000832861
0.00163082
0.00103592
0.00151986
0.00155912
0.00185437
0.00191846
0.000770769
0.00102238
0.00125295
0.00191876
0.00120321
0.00083706
0.000989072
0.000991936
0.00189639
0.0026206
0.000762626
0.0010291
0.00149458
0.000753805
0.0011866
0.00180147
0.00099435
0.000985563
0.00128072
0.00128492
0.00124756
0.00256838
0.000978102
0.000466382
0.000778957
0.00281674
0.000947922
0.00103614
0.00135522
0.000793116
0.000950907
0.00167469
0.00147735
0.00174924
0.0014251
0.00142509
0.00187417
0.00152905
0.00139984
0.00139751
0.000729632
0.000700852
0.000877955
0.00086272
0.00159753
0.00173659
0.00172648
0.00239778
0.000823238
0.000612627
0.00105833
0.00181455
0.00072676
0.000725506
0.00172106
0.000325672
0.0011733
0.00116409
0.00119134
0.00213242
0.00165354
0.000795055
0.0019066
0.00154538
0.000738574
0.000731405
0.00152497
0.00171198
0.000889669
0.00145471
0.00145915
0.00191345
0.000617672
0.00106524
0.0014973
0.00084943
0.000814951
0.000715602
0.00102009
0.0019461
0.00105345
0.000822718
0.00117417
0.00075116
0.00138966
0.00081886
0.00150176
0.00389106
0.000862279
0.000869908
0.000743579
0.00187277
0.00118722
0.00184171
0.00180715
0.00163933
0.000759771
0.000738415
0.000562264
0.000857037
0.00104502
0.000507335
0.00118438
0.00159154
0.00155633
0.000653407
0.000710014
0.0014619
0.000519898
0.000535686
0.00179679
0.00117182
0.00104762
0.000435922
0.000832598
0.000929276
0.000290481
0.00175451
0.00089875
0.00107395
0.00183497
0.00070607
0.000902892
0.00098814
0.00174258
0.00180073
0.00180823
0.00189036
0.000846677
0.00180403
0.000727576
0.0011488
0.000533072
0.00148105
0.0011275
0.00160684
0.0013999
0.00147279
0.000995965
0.000856322
0.00134872
0.00106767
0.00116272
0.00114915
0.000874301
0.00121961
0.000687711
0.00101043
0.000773962
0.00130054
0.000675131
0.000643578
0.00139639
0.00108907
0.00111821
0.00144234
0.00164477
0.00144358
0.00156786
0.000989171
0.000991895
0.00180724
0.00111182
0.00114878
0.00162184
0.00078185
0.000808329
0.00184755
0.000436739
0.000427056
0.0017352
0.00157666
0.00104484
0.00115009
0.000722091
0.000907306
0.000656152
0.00140045
0.000907
0.000906676
0.000344025
0.00053756
0.000957382
0.000954321
0.000807197
0.00094876
0.00149395
0.000986488
0.00114306
0.00143384
0.0010909
0.000787665
0.000978828
0.000830107
0.000793725
0.00088793
0.000772628
0.00040835
0.000608585
0.000715677
0.000976622
0.00361318
0.00107587
0.00124716
0.0017671
0.0011848
0.00174363
0.00178614
0.00123275
0.00109028
0.000686422
0.000799663
0.000952295
0.000396932
0.000387519
0.0010365
0.000469041
0.000742077
0.000868806
0.000659214
0.000946665
0.00101162
0.00226106
0.00103593
0.00335211
0.00200772
0.00140242
0.00170659
0.000831407
0.000817533
0.000816827
0.00114633
0.000943848
0.000601878
0.000999591
0.00176381
0.00170275
0.00170132
0.00168038
0.00139263
0.00153118
0.00157282
0.00168414
0.000972426
0.000967392
0.00146857
0.000818886
0.000954124
0.00150167
0.00110661
0.000947951
0.000963302
0.000940897
0.000757604
0.000787055
0.000739978
0.00127861
0.00104372
0.00462711
0.00148618
0.00152619
0.00177687
0.00147119
0.000585134
0.000588984
0.00109412
0.00146064
0.000846164
0.00148209
0.00126111
0.0010446
0.00122015
0.00123314
0.00284865
0.000967275
0.00151896
0.000780338
0.000974906
0.000773422
0.000408409
0.000736624
0.00101334
0.000912443
0.0021193
0.00150819
0.000600547
0.00512304
0.000996861
0.00168101
0.000775645
0.000776432
0.00112969
0.00100913
0.00111218
0.0014043
0.00127217
0.000759149
0.00101922
0.000928096
0.00172448
0.00205317
0.000928706
0.000552608
0.00175115
0.00178262
0.00167694
0.000969784
0.00130503
0.00129302
0.000654383
0.000950556
0.0013839
0.00121986
0.00165808
0.00125104
0.000437483
0.00104952
0.000749717
0.000748668
0.00160798
0.00308186
0.000770249
0.000799307
0.000872473
0.000385941
0.000812206
0.000817331
0.00131127
0.000851821
0.000963513
0.000941782
0.000817336
0.00181329
0.0017895
0.00124654
0.000476262
0.00031836
0.00119961
0.000452055
0.00162834
0.0015846
0.00154215
0.000978893
0.00109123
0.00081723
0.000820118
0.00177399
0.00113403
0.00091828
0.00106588
0.00113962
0.00345616
0.000444857
0.000966
0.000589162
0.00118407
0.000941315
0.0018389
0.00116513
0.0017931
0.00099047
0.00128767
0.0012922
0.000986946
0.000540622
0.00102978
0.000476787
0.000932294
0.000941967
0.00178595
0.0016505
0.000710115
0.00150917
0.00194187
0.00165802
0.00181895
0.00115612
0.00114173
0.000735896
0.000734046
0.00102956
0.00103039
0.000756138
0.00195873
0.00177818
0.000881968
0.000906806
0.00198822
0.000972267
0.00189589
0.000876692
0.000955244
0.00175902
0.00117471
0.00115833
0.00172409
0.00144958
0.00126663
0.00142127
0.00168779
0.00139895
0.000362728
0.00129757
0.00216731
0.00108817
0.00108759
0.000887334
0.000907782
0.00150905
0.00161876
0.000991529
0.00150729
0.00148161
0.00196497
0.000745054
0.00102801
0.00100789
0.00142627
0.00114827
0.00116863
0.00101298
0.00184304
0.00141631
0.000817628
0.00199023
0.00060478
0.000579167
0.00114346
0.00114467
0.00169692
0.00169414
0.00151546
0.00093127
0.00108831
0.00206442
0.00126932
0.000713735
0.0011786
0.000470896
0.000788176
0.00178418
0.00108495
0.00101866
0.000664728
0.00141836
0.00194412
0.000353367
0.00101564
0.00072992
0.000695553
0.00190082
0.00114297
0.00104189
0.00174539
0.000796383
0.00115544
0.00105103
0.00105307
0.000968503
0.0016764
0.00139992
0.000865128
0.00138857
0.000699975
0.00137513
0.00113752
0.00118954
0.00117959
0.00165057
0.00145042
0.000831668
0.000825449
0.000886827
0.00176537
0.00169606
0.00163832
0.00103022
0.00102846
0.00156813
0.00174468
0.00144238
0.000775776
0.00104013
0.00176199
0.00151857
0.00175736
0.00149166
0.00101505
0.00166762
0.00175813
0.00172862
0.00166661
0.0011527
0.00115558
0.00114109
0.00161768
0.000916052
0.000901609
0.00089668
0.000875713
0.00116412
0.0011287
0.00160344
0.000830333
0.000810343
0.0015658
0.00175933
0.000855412
0.000871066
0.00160778
0.00116748
0.00110324
0.000717557
0.000697402
0.000791585
0.00206489
0.000901307
0.000808629
0.000789191
0.0010767
0.00176175
0.001749
0.000851431
0.000836702
0.00117972
0.00114182
0.00104069
0.00140007
0.000948272
0.00172951
0.000887043
0.000894929
0.00203069
0.000840159
0.00115312
0.00147517
0.00192496
0.00147099
0.00171471
0.000878887
0.00199374
0.00132351
0.00111293
0.0019749
0.000769171
0.000761901
0.000811534
0.00143375
0.000920417
0.000927583
0.00141194
0.000949141
0.00159287
0.00120811
0.0011249
0.00110599
0.00110113
0.00164403
0.000863339
0.00156895
0.000662309
0.000657953
0.00123836
0.0010951
0.000534593
0.000914897
0.000857381
0.000777948
0.0016865
0.000895689
0.00045574
0.000925037
0.000909848
0.00127907
0.000804896
0.000952849
0.000758976
0.000526232
0.000469616
0.000419969
0.000391506
0.000888381
0.000377664
0.000861247
0.00130952
0.00109146
0.0010539
0.00104493
0.00188443
0.00156276
0.00161327
0.0017261
0.00162902
0.00174837
0.000754251
0.00102988
0.00174675
0.000310433
0.00129307
0.00089814
0.000854042
0.00111131
0.00112394
0.000790523
0.000807099
0.0013452
0.000954227
0.000841329
0.00104247
0.00139108
0.00141143
0.00184278
0.00191403
0.00158085
0.00114555
0.00225595
0.000783884
0.000791703
0.00166961
0.000652823
0.00191032
0.00105144
0.0017644
0.00108316
0.00116051
0.000840483
0.00177013
0.000738379
0.00105076
0.000745257
0.000979787
0.00126282
0.00128384
0.00177218
0.000827379
0.000830627
0.000730163
0.00116361
0.00117301
0.00107714
0.000732443
0.00179386
0.00106945
0.000695817
0.000749118
0.00121429
0.00164289
0.001549
0.00176594
0.000912046
0.00190343
0.00172114
0.00146408
0.00102406
0.00101407
0.00101116
0.00101351
0.00133606
0.00174049
0.00104263
0.000943775
0.00113301
0.00110042
0.000343769
0.00157405
0.00158576
0.00122725
0.000873416
0.0012711
0.00108501
0.000724518
0.00129356
0.0009174
0.0010703
0.0011513
0.00144884
0.0017819
0.00109073
0.0011061
0.00107439
0.0015851
0.00185428
0.00140705
0.00188704
0.00183319
0.0019269
0.000851563
0.00177892
0.000925447
0.000760932
0.00127898
0.000858433
0.000868819
0.000813419
0.0011003
0.00111858
0.00178353
0.00114579
0.00159246
0.00106463
0.00123366
0.00121062
0.00178617
0.000840641
0.00151785
0.000653323
0.000840955
0.00116567
0.00178108
0.000532391
0.00175843
0.00097064
0.000790453
0.000826905
0.000834911
0.000798713
0.00131559
0.00114531
0.00152717
0.00112669
0.00151674
0.00106607
0.00206861
0.0021659
0.00140731
0.000827492
0.00110322
0.00226015
0.00130325
0.00195972
0.000929058
0.00120543
0.00103399
0.000874609
0.000624874
0.000817674
0.000928091
0.00112583
0.00102536
0.00106173
0.00105601
0.000965609
0.00100305
0.00107976
0.00120835
0.00119087
0.00131745
0.000424721
0.000823519
0.00186201
0.00118551
0.0008672
0.000719903
0.000711835
0.000886783
0.000889326
0.00105162
0.00111114
0.00199432
0.00145122
0.00125042
0.000856852
0.00111301
0.000853004
0.00177011
0.00176051
0.000617813
0.000620137
0.000790517
0.00108285
0.000813808
0.00112041
0.00087663
0.000881348
0.00128455
0.00137737
0.000736781
0.00159248
0.00107403
0.00109547
0.000931224
0.00142747
0.00107402
0.00154447
0.00154902
0.00161819
0.00117857
0.00130605
0.00169193
0.00173237
0.0008705
0.00087438
0.000963139
0.00101392
0.00108065
0.00087148
0.000782836
0.000732273
0.000971119
0.0006717
0.00112026
0.00169643
0.00106088
0.00122015
0.00121285
0.00137693
0.00138401
0.000871379
0.00117948
0.000935118
0.000926599
0.00101336
0.00162371
0.00128002
0.00124519
0.000496646
0.00162937
0.00161328
0.00163562
0.00138384
0.00106509
0.00074396
0.00103023
0.00102853
0.000750621
0.00137496
0.00108772
0.00079104
0.000792544
0.000908396
0.00127976
0.00129455
0.00180774
0.00179044
0.00129663
0.00133364
0.00130121
0.00120484
0.00120086
0.00135525
0.00169885
0.00171399
0.00105265
0.00104184
0.00116963
0.00124231
0.00123633
0.00137815
0.000822987
0.000659174
0.00066164
0.00176089
0.00168366
0.00125984
0.00124527
0.00128935
0.00126926
0.000773654
)
;

boundaryField
{
    back
    {
        type            empty;
    }
    front
    {
        type            empty;
    }
    down
    {
        type            symmetry;
    }
    right
    {
        type            calculated;
        value           nonuniform List<scalar> 
20
(
0.000770407
0.0010084
0.000988365
0.000746814
0.00102658
0.000921854
0.000848042
0.000826003
0.00074024
0.0010294
0.000788548
0.000758473
0.00101784
0.000970674
0.000951803
0.000735092
0.00102994
0.00087676
0.000902428
0.000806489
)
;
    }
    up
    {
        type            calculated;
        value           nonuniform List<scalar> 
40
(
0.00107213
0.00173967
0.00182502
0.00178208
0.0010301
0.00113717
0.00129909
0.00123016
0.00151361
0.00137335
0.00186976
0.000953581
0.00151899
0.00188407
0.00116574
0.00166627
0.0011144
0.00164172
0.0016177
0.0010488
0.00189353
0.00131021
0.00119425
0.00148684
0.00184953
0.00178163
0.0010292
0.000864458
0.00184332
0.00126832
0.00141516
0.00104333
0.000827432
0.00104219
0.00171384
0.00140846
0.0015712
0.00109522
0.00188513
0.00103018
)
;
    }
    left
    {
        type            symmetry;
    }
    hole
    {
        type            calculated;
        value           nonuniform List<scalar> 
16
(
0.00115397
0.000816777
0.00660398
0.00334369
0.00138863
3.33761e-05
0.000582375
0.00127539
0.000388043
0.00228911
0.00154013
0.000313632
0.00097289
0.00193335
0.00282063
0.0045793
)
;
    }
}


// ************************************************************************* //
