/*--------------------------------*- C++ -*----------------------------------*\
| =========                 |                                                 |
| \\      /  F ield         | OpenFOAM: The Open Source CFD Toolbox           |
|  \\    /   O peration     | Version:  v2012                                 |
|   \\  /    A nd           | Website:  www.openfoam.com                      |
|    \\/     M anipulation  |                                                 |
\*---------------------------------------------------------------------------*/
FoamFile
{
    version     2.0;
    format      ascii;
    class       pointVectorField;
    location    "7";
    object      pointD;
}
// * * * * * * * * * * * * * * * * * * * * * * * * * * * * * * * * * * * * * //

dimensions      [0 1 0 0 0 0 0];


internalField   nonuniform List<vector> 
2014
(
(0.00254408 0 4.76336e-21)
(0.00357181 0 -5.73061e-22)
(0.00329201 -0.000317639 5.92867e-21)
(0 -0.00181319 5.98306e-22)
(0 -0.00139862 0)
(0.00254408 0 4.76336e-21)
(0.00357181 0 -5.73061e-22)
(0.00329201 -0.000317639 5.92867e-21)
(0 -0.00181319 5.98306e-22)
(0 -0.00139862 0)
(0.00256996 0 0)
(0.00258749 0 0)
(0.00259932 0 0)
(0.0026106 0 0)
(0.00262127 0 0)
(0.00263405 0 0)
(0.00264899 0 0)
(0.00266495 0 0)
(0.00268577 0 0)
(0.00271188 0 0)
(0.00273804 0 0)
(0.00276539 0 0)
(0.00279619 0 0)
(0.00282978 0 0)
(0.00286495 0 0)
(0.00290187 0 0)
(0.00294508 0 0)
(0.00298889 0 0)
(0.00302983 0 0)
(0.0030747 0 0)
(0.00312062 0 0)
(0.00317021 0 0)
(0.00322459 0 0)
(0.0032749 0 0)
(0.00332233 0 0)
(0.00337277 0 0)
(0.00343041 0 0)
(0.00348528 0 0)
(0.00353299 0 0)
(0.00358493 -4.44588e-06 1.95448e-21)
(0.0035809 -9.11812e-06 2.52754e-21)
(0.00357427 -1.42276e-05 -1.09291e-21)
(0.00356519 -2.01014e-05 -1.85052e-22)
(0.00355323 -2.71066e-05 3.401e-23)
(0.00353945 -3.56539e-05 -1.38557e-21)
(0.0035251 -4.49112e-05 -2.66705e-21)
(0.00350909 -5.59187e-05 1.79433e-23)
(0.00348984 -7.05818e-05 -6.21183e-22)
(0.00347 -8.69513e-05 -4.77976e-21)
(0.00345211 -0.000102926 3.68704e-22)
(0.00343206 -0.000122812 4.88373e-21)
(0.00341224 -0.000144803 1.48197e-21)
(0.00339513 -0.000165739 9.36102e-22)
(0.00337725 -0.000190208 8.53531e-21)
(0.00336032 -0.000216629 7.2337e-21)
(0.00334579 -0.000241863 5.98554e-21)
(0.00333246 -0.000267246 7.47835e-21)
(0.00331967 -0.000293383 6.3676e-21)
(0.00324279 -0.000334529 1.73611e-21)
(0.00318623 -0.000346066 6.78572e-22)
(0.00312558 -0.000357613 -5.18775e-22)
(0.00306658 -0.000367764 -1.19735e-21)
(0.00300517 -0.000376637 -6.89736e-22)
(0.00293939 -0.000384501 -1.72268e-22)
(0.00287788 -0.000390736 1.12749e-21)
(0.0028071 -0.000396713 8.4433e-22)
(0.00273475 -0.000401969 -1.43264e-22)
(0.00266823 -0.000406216 -1.38419e-21)
(0.00259741 -0.000410357 -1.26368e-21)
(0.00252605 -0.000414712 1.90806e-21)
(0.00244375 -0.000420579 1.6535e-21)
(0.00235981 -0.000427185 -1.27277e-21)
(0.00227418 -0.000435253 -2.04376e-21)
(0.00218602 -0.000445836 -1.2826e-21)
(0.00209962 -0.000458207 8.31469e-22)
(0.0020087 -0.000473079 2.37243e-21)
(0.00191664 -0.000491518 -1.04522e-21)
(0.00180401 -0.000518447 -7.85755e-21)
(0.00168965 -0.000550183 -3.45755e-21)
(0.00158504 -0.00058432 2.5163e-21)
(0.00147529 -0.000625002 7.0249e-22)
(0.00136467 -0.000671804 -1.54316e-21)
(0.00125264 -0.000725943 -3.62575e-21)
(0.00114125 -0.000786154 -1.07657e-21)
(0.00102642 -0.000855671 -2.32127e-21)
(0.000909149 -0.000934856 -1.65085e-21)
(0.000795364 -0.00101981 1.67645e-21)
(0.000687568 -0.0011096 -2.4996e-22)
(0.000587213 -0.00120118 4.16786e-21)
(0.000488586 -0.00129986 8.29827e-21)
(0.000397707 -0.00139888 2.42743e-21)
(0.000318572 -0.00149047 -3.434e-21)
(0.000243061 -0.00158311 -4.46074e-21)
(0.000179264 -0.00166393 1.72682e-21)
(0.000127793 -0.00172641 -1.66616e-21)
(8.26368e-05 -0.00177427 -5.89953e-21)
(3.95675e-05 -0.00180441 5.71509e-22)
(0 -0.00179639 0)
(0 -0.00176845 0)
(0 -0.00174224 0)
(0 -0.00171486 0)
(0 -0.00168402 0)
(0 -0.00165442 0)
(0 -0.00161711 0)
(0 -0.00157107 0)
(0 -0.00150941 0)
(0.000340835 -0.00133948 -6.59347e-21)
(0.000616503 -0.00134547 -2.22437e-21)
(0.000850528 -0.001304 7.75918e-21)
(0.00109474 -0.00122485 3.54819e-21)
(0.00132761 -0.00113927 -2.83825e-21)
(0.00151891 -0.00104729 1.66832e-21)
(0.00171332 -0.000938491 4.43934e-21)
(0.00189351 -0.00083134 -1.96213e-21)
(0.00203482 -0.000734035 -1.73679e-21)
(0.00215776 -0.000635288 -7.40414e-21)
(0.00226538 -0.000536607 -3.81645e-21)
(0.00236072 -0.000424667 1.42109e-21)
(0.00243998 -0.000313553 -3.56238e-21)
(0.00249175 -0.000212995 -1.43594e-21)
(0.00252003 -0.000113275 4.71439e-21)
(0.00256996 0 0)
(0.00258749 0 0)
(0.00259932 0 0)
(0.0026106 0 0)
(0.00262127 0 0)
(0.00263405 0 0)
(0.00264899 0 0)
(0.00266495 0 0)
(0.00268577 0 0)
(0.00271188 0 0)
(0.00273804 0 0)
(0.00276539 0 0)
(0.00279619 0 0)
(0.00282978 0 0)
(0.00286495 0 0)
(0.00290187 0 0)
(0.00294508 0 0)
(0.00298889 0 0)
(0.00302983 0 0)
(0.0030747 0 0)
(0.00312062 0 0)
(0.00317021 0 0)
(0.00322459 0 0)
(0.0032749 0 0)
(0.00332233 0 0)
(0.00337277 0 0)
(0.00343041 0 0)
(0.00348528 0 0)
(0.00353299 0 0)
(0.00358493 -4.44588e-06 1.95448e-21)
(0.0035809 -9.11812e-06 2.52754e-21)
(0.00357427 -1.42276e-05 -1.09291e-21)
(0.00356519 -2.01014e-05 -1.85052e-22)
(0.00355323 -2.71066e-05 3.401e-23)
(0.00353945 -3.56539e-05 -1.38557e-21)
(0.0035251 -4.49112e-05 -2.66705e-21)
(0.00350909 -5.59187e-05 1.79433e-23)
(0.00348984 -7.05818e-05 -6.21183e-22)
(0.00347 -8.69513e-05 -4.77976e-21)
(0.00345211 -0.000102926 3.68704e-22)
(0.00343206 -0.000122812 4.88373e-21)
(0.00341224 -0.000144803 1.48197e-21)
(0.00339513 -0.000165739 9.36102e-22)
(0.00337725 -0.000190208 8.53531e-21)
(0.00336032 -0.000216629 7.2337e-21)
(0.00334579 -0.000241863 5.98554e-21)
(0.00333246 -0.000267246 7.47835e-21)
(0.00331967 -0.000293383 6.3676e-21)
(0.00324279 -0.000334529 1.73611e-21)
(0.00318623 -0.000346066 6.78572e-22)
(0.00312558 -0.000357613 -5.18775e-22)
(0.00306658 -0.000367764 -1.19735e-21)
(0.00300517 -0.000376637 -6.89736e-22)
(0.00293939 -0.000384501 -1.72268e-22)
(0.00287788 -0.000390736 1.12749e-21)
(0.0028071 -0.000396713 8.4433e-22)
(0.00273475 -0.000401969 -1.43264e-22)
(0.00266823 -0.000406216 -1.38419e-21)
(0.00259741 -0.000410357 -1.26368e-21)
(0.00252605 -0.000414712 1.90806e-21)
(0.00244375 -0.000420579 1.6535e-21)
(0.00235981 -0.000427185 -1.27277e-21)
(0.00227418 -0.000435253 -2.04376e-21)
(0.00218602 -0.000445836 -1.2826e-21)
(0.00209962 -0.000458207 8.31469e-22)
(0.0020087 -0.000473079 2.37243e-21)
(0.00191664 -0.000491518 -1.04522e-21)
(0.00180401 -0.000518447 -7.85755e-21)
(0.00168965 -0.000550183 -3.45755e-21)
(0.00158504 -0.00058432 2.5163e-21)
(0.00147529 -0.000625002 7.0249e-22)
(0.00136467 -0.000671804 -1.54316e-21)
(0.00125264 -0.000725943 -3.62575e-21)
(0.00114125 -0.000786154 -1.07657e-21)
(0.00102642 -0.000855671 -2.32127e-21)
(0.000909149 -0.000934856 -1.65085e-21)
(0.000795364 -0.00101981 1.67645e-21)
(0.000687568 -0.0011096 -2.4996e-22)
(0.000587213 -0.00120118 4.16786e-21)
(0.000488586 -0.00129986 8.29827e-21)
(0.000397707 -0.00139888 2.42743e-21)
(0.000318572 -0.00149047 -3.434e-21)
(0.000243061 -0.00158311 -4.46074e-21)
(0.000179264 -0.00166393 1.72682e-21)
(0.000127793 -0.00172641 -1.66616e-21)
(8.26368e-05 -0.00177427 -5.89953e-21)
(3.95675e-05 -0.00180441 5.71509e-22)
(0 -0.00179639 0)
(0 -0.00176845 0)
(0 -0.00174224 0)
(0 -0.00171486 0)
(0 -0.00168402 0)
(0 -0.00165442 0)
(0 -0.00161711 0)
(0 -0.00157107 0)
(0 -0.00150941 0)
(0.000340835 -0.00133948 -6.59347e-21)
(0.000616503 -0.00134547 -2.22437e-21)
(0.000850528 -0.001304 7.75918e-21)
(0.00109474 -0.00122485 3.54819e-21)
(0.00132761 -0.00113927 -2.83825e-21)
(0.00151891 -0.00104729 1.66832e-21)
(0.00171332 -0.000938491 4.43934e-21)
(0.00189351 -0.00083134 -1.96213e-21)
(0.00203482 -0.000734035 -1.73679e-21)
(0.00215776 -0.000635288 -7.40414e-21)
(0.00226538 -0.000536607 -3.81645e-21)
(0.00236072 -0.000424667 1.42109e-21)
(0.00243998 -0.000313553 -3.56238e-21)
(0.00249175 -0.000212995 -1.43594e-21)
(0.00252003 -0.000113275 4.71439e-21)
(0.00213313 -0.000199592 0)
(0.0028611 -0.000140767 0)
(0.00133489 -0.000677773 0)
(0.00237622 -0.000215873 0)
(0.00267559 -6.54991e-05 0)
(0.00303044 -0.000230759 0)
(0.0032124 -7.58937e-05 0)
(0.000643681 -0.00129822 0)
(0.0023722 -0.000117742 0)
(0.00164795 -0.000452877 0)
(0.0026285 -0.000259817 0)
(0.00294036 -5.64869e-05 0)
(0.00257072 -4.5506e-05 0)
(0.00186407 -0.00039664 0)
(0.00321614 -0.000136013 0)
(0.00197369 -0.000342493 0)
(0.00237895 -0.000141513 0)
(0.00265108 -0.000129574 0)
(0.000871155 -0.00104556 0)
(0.00114152 -0.000922053 0)
(0.00234323 -0.000310499 0)
(0.00281377 -0.000296497 0)
(0.00122486 -0.000726834 0)
(0.00180041 -0.000364878 0)
(0.00338701 -3.71371e-05 0)
(0.00314503 -0.000269825 0)
(0.00312466 -3.99858e-05 0)
(0.00283649 -2.93856e-05 0)
(0.00285793 -0.000213874 0)
(0.000286631 -0.00161143 0)
(0.00308104 -0.00012184 0)
(0.00211565 -0.000235074 0)
(0.00272176 -2.3703e-05 0)
(0.000434278 -0.00147097 0)
(0.00256849 -3.76662e-05 0)
(0.00335496 -8.09371e-05 0)
(0.00323118 -0.000185024 0)
(0.00235082 -0.000109965 0)
(0.00249651 -0.000104653 0)
(0.00304842 -8.11892e-05 0)
(0.00223451 -0.000248325 0)
(0.00257066 -0.000198836 0)
(0.00209524 -0.000219397 0)
(0.00283493 -9.50632e-05 0)
(0.00168227 -0.000469504 0)
(0.000547114 -0.00135624 0)
(0.00251635 -7.85768e-05 0)
(0.00210557 -0.00036209 0)
(0.00295704 -0.000313679 0)
(0.0016086 -0.000655733 0)
(0.00325974 -3.16096e-05 0)
(0.00303665 -0.000174491 0)
(0.00251147 -0.000329457 0)
(0.00294988 -2.61733e-05 0)
(0.00152992 -0.000521685 0)
(0.00188221 -0.000319568 0)
(0.00140129 -0.000611059 0)
(0.000955343 -0.00101057 0)
(0.00280614 -6.16519e-05 0)
(0.000859564 -0.00119845 0)
(0.00267026 -1.84284e-05 0)
(0.00274868 -0.000181932 0)
(0.0024709 -0.000151311 0)
(0.00151676 -0.000586852 0)
(0.00188554 -0.000343494 0)
(0.000945709 -0.00094116 0)
(0.00234611 -0.000124722 0)
(0.00217001 -0.000256166 0)
(0.00267052 -0.000339899 0)
(0.000253584 -0.00160264 0)
(0.00334668 -0.000108824 0)
(0.00195284 -0.000462426 0)
(0.00183324 -0.00044013 0)
(0.0030544 -2.56075e-05 0)
(0.0031898 -0.000108369 0)
(0.00345377 -4.68389e-05 0)
(0.00324318 -0.000217979 0)
(0.00117171 -0.00078671 0)
(0.00255635 -0.000104657 0)
(0.00257469 -3.99388e-05 0)
(0.00225107 -0.000283623 0)
(0.00268572 -8.97233e-05 0)
(0.00280281 -1.59568e-05 0)
(0.00265442 -4.64819e-05 0)
(0.00348275 -1.56748e-05 0)
(0.00321305 -0.000296636 0)
(0.00250179 -0.000254742 0)
(0.00313055 -0.000176817 0)
(0.00292941 -0.000102608 0)
(0.00231153 -0.000187861 0)
(0.00273439 -0.000146354 0)
(0.00333095 -0.000139952 0)
(0.00245741 -7.39814e-05 0)
(0.00276676 -0.000257408 0)
(0.000659922 -0.001211 0)
(0.00209878 -0.000255182 0)
(0.00333317 -6.19083e-05 0)
(0.00313394 -0.000232573 0)
(0.0028997 -0.000249043 0)
(0.00293072 -0.000166716 0)
(0.00137927 -0.000887057 0)
(0.000361659 -0.00153472 0)
(0.00273358 -4.3239e-05 0)
(0.000115823 -0.00174476 0)
(0.00223916 -0.000378765 0)
(0.00073353 -0.00119471 0)
(0.000874014 -0.00112164 0)
(0.00201889 -0.000247499 0)
(0.00172577 -0.0004305 0)
(0.00245439 -8.29261e-05 0)
(0.00284085 -0.000339115 0)
(0.00125083 -0.000780158 0)
(0.00304966 -0.000323156 0)
(0.00225736 -0.000168696 0)
(0.00263947 -1.63396e-05 0)
(0.00320682 -4.94077e-05 0)
(0.00238833 -0.00022336 0)
(0.00334762 -1.99553e-05 0)
(0.00318543 -2.10398e-05 0)
(0.00302782 -5.82301e-05 0)
(0.00118732 -0.000747893 0)
(0.00289728 -1.58598e-05 0)
(0.00144464 -0.000575151 0)
(0.000486338 -0.00143429 0)
(0.000330256 -0.00149938 0)
(0.00311663 -8.9671e-05 0)
(0.00236886 -0.000372942 0)
(0.00158192 -0.000501234 0)
(0.000450192 -0.00146584 0)
(0.00289188 -4.21058e-05 0)
(0.0020581 -0.000241401 0)
(0.00250251 -0.000182215 0)
(0.00302718 -0.000267666 0)
(0.00254488 -9.08863e-05 0)
(0.0031233 -0.000142364 0)
(0.00238871 -0.000144404 0)
(0.00250356 -6.57364e-05 0)
(0.00273002 -1.01347e-05 0)
(0.00228526 -0.000137266 0)
(0.00219695 -0.000168781 0)
(0.00296964 -0.000127441 0)
(0.000152091 -0.0016866 0)
(0.000693943 -0.00133404 0)
(0.00147865 -0.000586504 0)
(0.00328948 -4.83926e-05 0)
(0.00239605 -0.000247279 0)
(0.00348506 -2.9419e-05 0)
(0.00325606 -0.000250398 0)
(0.00295664 -7.91181e-05 0)
(0.00258891 -3.42876e-05 0)
(0.00267156 -0.000292522 0)
(0.00264571 -3.39654e-05 0)
(0.00113188 -0.000841897 0)
(0.000658976 -0.00131106 0)
(0.00202254 -0.000295518 0)
(0.00195889 -0.000426181 0)
(0.00342746 -7.67162e-05 0)
(0.00299604 -3.83925e-05 0)
(0.00020685 -0.00159269 0)
(0.00211372 -0.000314558 0)
(0.00296199 -0.00020511 0)
(0.00171392 -0.000408121 0)
(0.00133046 -0.000657657 0)
(0.00332307 -0.000171589 0)
(0.00194531 -0.000311696 0)
(0.00291911 -0.000282644 0)
(0.00311537 -6.30754e-05 0)
(0.00273869 -0.000222348 0)
(0.00261833 -1.77392e-05 0)
(0.00157515 -0.000505978 0)
(0.00328409 -0.000106589 0)
(0.00182557 -0.000390828 0)
(0.00257095 -4.95602e-05 0)
(0.0032298 -0.000160173 0)
(0.00263938 -0.000216943 0)
(0.00286761 -7.0647e-05 0)
(0.00141141 -0.000714794 0)
(0.00248105 -0.000103652 0)
(0.00219304 -0.00037497 0)
(0.00327619 -8.67211e-05 0)
(0.00248253 -6.66309e-05 0)
(0.00166955 -0.000508942 0)
(0.00246523 -0.000299459 0)
(0.0028241 -0.000122642 0)
(0.00230451 -0.000130682 0)
(0.00256297 -5.64965e-05 0)
(0.00256476 -0.000369992 0)
(0.00261506 -0.000162487 0)
(0.00180983 -0.00064196 0)
(0.00203526 -0.000341085 0)
(0.0018014 -0.000369394 0)
(0.00300664 -1.41401e-05 0)
(0.00111169 -0.00110109 0)
(0.0027467 -0.000357762 0)
(0.00274188 -0.000108604 0)
(0.000752617 -0.00109703 0)
(0.00198712 -0.000374972 0)
(0.000474203 -0.00139458 0)
(0.000217947 -0.0016698 0)
(0.00101957 -0.000868751 0)
(0.00208395 -0.000413074 0)
(0.00257866 -0.000122322 0)
(0.00167401 -0.000532609 0)
(0.00258585 -7.62398e-05 0)
(0.00312075 -1.55388e-05 0)
(0.00283525 -0.000181667 0)
(0.00312933 -0.000203563 0)
(0.00292263 -0.000350984 0)
(0.00222948 -0.000324528 0)
(0.00302462 -0.000149521 0)
(0.00345639 -5.82663e-05 0)
(0.00173371 -0.000418653 0)
(0.002752 -5.55854e-05 0)
(0.00303761 -0.000103324 0)
(0.00188538 -0.000313684 0)
(0.00329106 -1.49804e-05 0)
(0.00100437 -0.000913691 0)
(0.00198458 -0.000286345 0)
(0.00278606 -8.3281e-05 0)
(0.00307023 -0.000194002 0)
(0.00129251 -0.000683128 0)
(0.00277614 -9.42377e-06 0)
(0.00189821 -0.000315594 0)
(0.00165151 -0.000446213 0)
(0.000734643 -0.0011758 0)
(0.00305671 -0.000290907 0)
(0.00277163 -2.54453e-05 0)
(0.00225763 -0.000185676 0)
(0.00294076 -1.1861e-05 0)
(0.00313161 -0.000323062 0)
(0.00138692 -0.000628037 0)
(0.00150286 -0.000571171 0)
(0.00258202 -0.00028849 0)
(0.00318332 -3.65562e-05 0)
(0.00133135 -0.000649995 0)
(0.00107774 -0.00101907 0)
(0.000309476 -0.00158173 0)
(0.00244835 -0.000378793 0)
(0.00284434 -1.10313e-05 0)
(0.00342977 -1.2757e-05 0)
(0.00266843 -0.000179475 0)
(0.00224541 -0.000260839 0)
(0.000940421 -0.000996891 0)
(0.00307187 -3.73774e-05 0)
(0.00200588 -0.00025598 0)
(0.00246149 -0.000219372 0)
(0.00338909 -0.000113483 0)
(0.00157913 -0.000819411 0)
(0.00101198 -0.000996369 0)
(0.000807656 -0.00115094 0)
(0.00225135 -0.000189657 0)
(0.00247667 -0.000185834 0)
(0.00221206 -0.000180603 0)
(0.00268135 -7.40886e-06 0)
(0.00248261 -0.000131864 0)
(0.00241128 -0.000177439 0)
(0.00281491 -4.47467e-05 0)
(0.00247222 -9.39444e-05 0)
(0.00313284 -7.52454e-05 0)
(0.0032955 -0.000127763 0)
(0.00222746 -0.000170059 0)
(0.000844126 -0.00104413 0)
(0.00278964 -0.000158694 0)
(0.00263758 -8.43111e-05 0)
(0.00255678 -0.000149474 0)
(0.00093014 -0.00121428 0)
(0.00289418 -2.8205e-05 0)
(0.00245218 -0.000100615 0)
(0.00335839 -0.000145976 0)
(0.00262061 -3.41305e-05 0)
(0.00268907 -2.25461e-05 0)
(0.00229554 -0.000216874 0)
(0.00351095 -8.64466e-06 0)
(0.00323436 -0.000309147 0)
(0.00333152 -3.46841e-05 0)
(0.00149397 -0.000547022 0)
(0.00217234 -0.000236984 0)
(0.00272449 -0.00030914 0)
(0.00294065 -0.000187139 0)
(0.000611339 -0.00131463 0)
(0.00183333 -0.0004633 0)
(0.00270452 -3.67133e-05 0)
(0.00313839 -0.000108509 0)
(0.00257658 -0.000327484 0)
(0.0018091 -0.000427339 0)
(0.00337452 -6.73336e-05 0)
(0.00322506 -0.000204144 0)
(0.00108328 -0.000829769 0)
(0.00290179 -8.95706e-05 0)
(0.000131632 -0.00164521 0)
(0.00337789 -4.92912e-05 0)
(0.00317269 -0.000241385 0)
(0.00233963 -0.00014264 0)
(0.00253915 -4.75665e-05 0)
(0.00310869 -0.000162431 0)
(0.0027102 -7.41526e-06 0)
(0.0029797 -0.000351228 0)
(0.00263339 -0.000374825 0)
(0.00343094 -8.53901e-05 0)
(0.00208097 -0.000300803 0)
(0.00319008 -0.00012576 0)
(0.00284115 -0.000239597 0)
(0.00323408 -1.39035e-05 0)
(0.000826512 -0.00102076 0)
(0.00296699 -0.000248319 0)
(0.00350371 -3.36474e-05 0)
(0.00329895 -0.000221616 0)
(0.00114964 -0.000791085 0)
(0.00309925 -0.000258996 0)
(0.00286513 -5.73182e-05 0)
(0.00166491 -0.000497461 0)
(0.00283837 -1.93476e-05 0)
(0.00270612 -7.30122e-05 0)
(0.00203147 -0.00057977 0)
(0.00036022 -0.00152548 0)
(0.0029012 -0.000309115 0)
(0.0026901 -5.247e-05 0)
(0.00241968 -9.98248e-05 0)
(0.00232426 -0.000282898 0)
(0.00228631 -0.000394855 0)
(0.00253551 -0.000274129 0)
(0.00282558 -0.000266825 0)
(0.00036219 -0.00149971 0)
(0.00352448 -1.84927e-05 0)
(0.0032799 -0.000264941 0)
(0.00185686 -0.000461095 0)
(0.0034252 -2.4353e-05 0)
(8.22135e-05 -0.00173776 0)
(0.00304735 -9.1757e-06 0)
(0.00315513 -0.000293128 0)
(0.0033397 -9.66869e-05 0)
(0.00319147 -9.23807e-05 0)
(0.0013807 -0.000672073 0)
(5.99154e-05 -0.00178014 0)
(0.00271873 -0.000126132 0)
(0.00264148 -1.03937e-05 0)
(0.00310697 -2.67102e-05 0)
(0.00326925 -6.40314e-05 0)
(0.00061537 -0.00135826 0)
(0.000522593 -0.00131933 0)
(0.00142754 -0.000763396 0)
(0.00237479 -0.0001057 0)
(0.000501426 -0.00142438 0)
(0.00231922 -0.000326087 0)
(0.000595269 -0.00139221 0)
(0.00102326 -0.000911539 0)
(0.00239193 -0.000164051 0)
(0.00260537 -1.84667e-05 0)
(0.000455075 -0.00145421 0)
(0.00126479 -0.000720867 0)
(0.00219339 -0.000172496 0)
(0.00238957 -0.000331057 0)
(0.001635 -0.000457864 0)
(0.00278511 -0.000329399 0)
(0.00256096 -4.32168e-05 0)
(0.0029454 -4.30975e-05 0)
(0.00177504 -0.000376667 0)
(0.00291402 -0.000148445 0)
(0.00300221 -2.54525e-05 0)
(0.00265099 -0.000111499 0)
(0.00192639 -0.000341166 0)
(0.00255918 -0.000224159 0)
(0.0027588 -1.81662e-05 0)
(0.00251079 -5.77607e-05 0)
(0.00212804 -0.000218903 0)
(0.00254176 -6.32955e-05 0)
(0.000150672 -0.00157908 0)
(0.0024219 -0.000155009 0)
(0.00215249 -0.00041678 0)
(0.00155844 -0.000566022 0)
(0.00232826 -0.00016908 0)
(0.00281165 -6.02727e-06 0)
(0.00332556 -0.000190342 0)
(0.00135502 -0.000658109 0)
(0.00241397 -0.000273217 0)
(0.00263326 -2.3079e-05 0)
(0.00191599 -0.000387177 0)
(0.00170253 -0.000428299 0)
(0.00217258 -0.000321462 0)
(0.00288409 -0.000120614 0)
(0.00306888 -0.000243754 0)
(0.00329302 -0.000166099 0)
(0.00258649 -6.40072e-05 0)
(8.6626e-05 -0.001691 0)
(0.00298582 -8.91673e-05 0)
(0.00317713 -0.000154739 0)
(0.00018665 -0.0016875 0)
(0.00237579 -0.000101058 0)
(0.000355649 -0.00155265 0)
(0.00254417 -4.84528e-05 0)
(0.00197243 -0.000319574 0)
(0.00178553 -0.000569705 0)
(0.00318159 -0.000182137 0)
(0.00208908 -0.000238518 0)
(0.000144136 -0.00173003 0)
(0.00261298 -2.26807e-05 0)
(0.000719272 -0.00124631 0)
(0.00281437 -0.000204013 0)
(0.00269229 -0.000264821 0)
(0.00126775 -0.000800076 0)
(0.00208184 -0.000369545 0)
(0.000580424 -0.00130286 0)
(0.00313393 -0.00012465 0)
(0.0023832 -0.000102097 0)
(0.0023068 -0.000344563 0)
(0.00258109 -3.73178e-05 0)
(0.000491299 -0.0014361 0)
(0.00210093 -0.000210036 0)
(0.00210117 -0.000210708 0)
(0.00333743 -4.84814e-05 0)
(0.00195845 -0.000288866 0)
(0.00150895 -0.000553731 0)
(0.00278251 -3.37916e-05 0)
(0.000637463 -0.00119639 0)
(0.00279934 -0.000365199 0)
(0.00244608 -8.26121e-05 0)
(0.00147716 -0.000936477 0)
(0.00317344 -0.000329784 0)
(0.0030113 -7.22759e-05 0)
(0.00232618 -0.000248436 0)
(0.000263004 -0.00161253 0)
(0.00175036 -0.000496322 0)
(0.00110619 -0.000881725 0)
(0.00125998 -0.000749128 0)
(0.00296303 -0.000228093 0)
(0.00298842 -5.08098e-05 0)
(0.00218031 -0.000236038 0)
(0.0032515 -4.31511e-05 0)
(0.00259073 -8.60122e-05 0)
(0.0033975 -0.000122286 0)
(0.00344048 -3.15048e-05 0)
(0.000794628 -0.00121006 0)
(0.00217158 -0.000276867 0)
(0.00347373 -7.25904e-06 0)
(0.00319852 -0.000266766 0)
(0.00104502 -0.000844937 0)
(0.00291617 -7.15983e-05 0)
(0.00252826 -6.03439e-05 0)
(0.00284894 -0.000162085 0)
(0.0025031 -7.42852e-05 0)
(0.00214229 -0.000202808 0)
(0.00333836 -8.32585e-06 0)
(0.00182482 -0.000391621 0)
(0.00221477 -0.000164361 0)
(0.00100137 -0.00103576 0)
(0.00227772 -0.000276939 0)
(0.00279184 -0.00022946 0)
(0.000829601 -0.0010972 0)
(0.000513159 -0.00141856 0)
(0.000218191 -0.00148103 0)
(0.00308404 -5.17496e-05 0)
(0.00316048 -1.19277e-05 0)
(0.00302551 -0.000134028 0)
(0.00278793 -0.000111893 0)
(0.00340623 -6.9135e-05 0)
(0.000225291 -0.00163746 0)
(0.0031485 -5.0772e-05 0)
(0.000451236 -0.00144049 0)
(0.00143733 -0.000581262 0)
(0.00133446 -0.000650392 0)
(0.00215087 -0.000377672 0)
(0.00179813 -0.000374831 0)
(0.0012422 -0.000903085 0)
(0.00057872 -0.00136288 0)
(0.00286232 -0.000106778 0)
(0.00276909 -0.000281703 0)
(0.00329646 -0.000115019 0)
(0.00287777 -7.49665e-06 0)
(0.00085725 -0.00108605 0)
(0.00258807 -0.000243029 0)
(0.00233361 -0.00020273 0)
(0.00240502 -0.000116734 0)
(0.00321431 -6.27591e-05 0)
(0.00299154 -0.000167156 0)
(0.0025094 -0.000120689 0)
(0.0029651 -0.000288589 0)
(0.00309158 -8.25986e-05 0)
(0.00255204 -6.3828e-05 0)
(0.00300093 -0.000321284 0)
(0.00266387 -7.3553e-06 0)
(0.00306215 -0.000344349 0)
(0.00197799 -0.000301317 0)
(0.000318735 -0.00152644 0)
(0.0028655 -0.00036459 0)
(0.00256435 -0.000179902 0)
(0.00247276 -0.000238144 0)
(0.000634254 -0.00128204 0)
(0.00172877 -0.000433888 0)
(0.000390263 -0.00152199 0)
(0.00343557 -4.10228e-05 0)
(0.00322 -0.000244361 0)
(0.00262138 -1.11767e-05 0)
(0.00330219 -9.24641e-05 0)
(0.00308821 -0.000104667 0)
(0.00155946 -0.00050328 0)
(0.00191341 -0.000300689 0)
(0.00240185 -0.000283736 0)
(0.00243086 -0.000190327 0)
(0.0032262 -2.63258e-05 0)
(0.00122251 -0.000724843 0)
(0.0013053 -0.000668878 0)
(0.000247543 -0.00164819 0)
(0.00199764 -0.000442504 0)
(0.00160608 -0.000511254 0)
(0.00316875 -0.000208195 0)
(0.00268378 -3.33322e-05 0)
(0.00261196 -0.00010422 0)
(0.00298697 -0.000106749 0)
(0.00275821 -7.59121e-05 0)
(0.00309161 -0.000297329 0)
(0.0015575 -0.000633635 0)
(0.00329852 -2.64555e-05 0)
(0.000704321 -0.00123367 0)
(0.00314979 -2.98468e-05 0)
(0.0023895 -0.000399684 0)
(0.00275219 -5.5479e-06 0)
(0.00349189 -4.44346e-05 0)
(0.000777301 -0.00111603 0)
(0.00115433 -0.000771866 0)
(0.00306095 -0.000156267 0)
(0.00228252 -0.000135031 0)
(0.00241685 -0.000120752 0)
(0.00297517 -6.44027e-05 0)
(0.00287353 -0.000276237 0)
(0.00280229 -0.000138555 0)
(0.00160176 -0.000519896 0)
(0.000824929 -0.00129622 0)
(0.00292837 -2.00661e-05 0)
(0.00307575 -0.000138544 0)
(0.00246784 -0.000118992 0)
(0.0022791 -0.000145235 0)
(0.00347227 -6.11063e-05 0)
(0.00139415 -0.000689557 0)
(0.0027094 -0.000206603 0)
(0.00145054 -0.000592208 0)
(0.00253348 -5.94778e-05 0)
(0.00334068 -0.000122964 0)
(0.00228743 -0.000133811 0)
(0.00290589 -0.000224027 0)
(0.00244804 -0.000347413 0)
(0.0024016 -0.00022553 0)
(0.00261411 -4.75337e-05 0)
(0.00259978 -2.88484e-05 0)
(0.00285004 -3.82475e-05 0)
(0.00324778 -8.10444e-05 0)
(0.00201626 -0.00038571 0)
(0.00277328 -4.55533e-05 0)
(6.43355e-05 -0.00171997 0)
(0.00266482 -0.000232178 0)
(0.000543347 -0.00137389 0)
(0.00316457 -8.36589e-05 0)
(0.00140768 -0.000615757 0)
(0.00229168 -0.000142329 0)
(0.00259437 -4.47941e-05 0)
(0.00215701 -0.00049239 0)
(0.00306356 -6.62802e-05 0)
(0.00252511 -0.000130906 0)
(0.00332337 -7.72777e-05 0)
(0.00264193 -5.96419e-05 0)
(0.0035312 -2.33916e-05 0)
(0.00330813 -0.000239324 0)
(9.53277e-05 -0.00162758 0)
(0.00254812 -7.6891e-05 0)
(0.0029294 -3.40139e-05 0)
(0.00206808 -0.00034983 0)
(0.00259727 -2.21774e-05 0)
(0.00272319 -0.000338387 0)
(0.0032686 -0.000185105 0)
(0.00291395 -7.17778e-06 0)
(0.00192446 -0.000412448 0)
(0.00172824 -0.000411998 0)
(0.00202172 -0.000343739 0)
(0.00316754 -6.21419e-05 0)
(0.00150382 -0.000544959 0)
(0.00249434 -0.000164435 0)
(0.00105004 -0.000866788 0)
(0.00219568 -0.000178252 0)
(0.00291486 -0.000129892 0)
(0.00316639 -0.000143616 0)
(0.00229415 -0.000166712 0)
(0.00272892 -1.66847e-05 0)
(0.0019842 -0.000277591 0)
(0.00241954 -8.68866e-05 0)
(0.00288185 -0.000188681 0)
(0.00250993 -0.00038817 0)
(0.0014474 -0.000618541 0)
(0.00280677 -2.44858e-05 0)
(0.00209252 -0.000275313 0)
(0.00303061 -0.000116618 0)
(0.00228813 -0.000192273 0)
(0.00189592 -0.000327018 0)
(0.00309691 -8.22119e-06 0)
(0.00272072 -0.000168255 0)
(0.00198711 -0.000262801 0)
(0.00162097 -0.000486975 0)
(0.00270361 -1.40518e-05 0)
(0.001781 -0.00037107 0)
(0.00302155 -0.000191527 0)
(0.00180917 -0.000355213 0)
(0.00260329 -3.35704e-05 0)
(0.00260575 -0.000147209 0)
(0.00262711 -0.000198817 0)
(0.0029055 -0.000334855 0)
(0.00252288 -0.000132287 0)
(0.00336646 -0.000165006 0)
(0.00121904 -0.000742317 0)
(0.00205291 -0.000253079 0)
(0.00181931 -0.000381651 0)
(0.000353657 -0.00153998 0)
(0.00249424 -6.17101e-05 0)
(0.00153269 -0.000755247 0)
(0.00270346 -0.000380196 0)
(0.00129446 -0.000818627 0)
(0.00343412 -9.39459e-05 0)
(0.00297785 -8.1962e-06 0)
(0.00128982 -0.00103757 0)
(0.00277133 -0.000129034 0)
(0.0025268 -8.56549e-05 0)
(0.00225319 -0.000218082 0)
(0.000763472 -0.00127535 0)
(0.00111023 -0.000802749 0)
(0.00117883 -0.00100943 0)
(0.00165334 -0.000457162 0)
(0.0016297 -0.000458099 0)
(0.00286841 -8.2075e-05 0)
(0.00286664 -2.17685e-05 0)
(0.00307759 -0.000209357 0)
(0.000922431 -0.000935312 0)
(0.0026346 -7.83211e-06 0)
(0.00297505 -0.000148566 0)
(0.00328156 -0.000143963 0)
(0.0011441 -0.000819384 0)
(0.00296567 -3.31192e-05 0)
(0.0019056 -0.000466104 0)
(0.00324793 -0.000119882 0)
(0.00282095 -7.13411e-05 0)
(0.00325526 -0.000164236 0)
(0.00202003 -0.000309895 0)
(0.00235745 -0.000115488 0)
(0.0028006 -0.000175318 0)
(0.00284296 -0.000313537 0)
(5.42904e-05 -0.00176861 0)
(0.00263723 -0.000281092 0)
(0.00303227 -3.38971e-05 0)
(0.00251832 -0.000304262 0)
(0.00291015 -5.12157e-05 0)
(0.00208551 -0.000260706 0)
(0.0034637 -7.09493e-05 0)
(0.00272329 -5.37515e-05 0)
(0.00162341 -0.000490426 0)
(0.00113065 -0.000888628 0)
(0.00283824 -4.9254e-05 0)
(0.00024933 -0.001589 0)
(0.00113736 -0.00114902 0)
(0.00172181 -0.000409314 0)
(0.00278385 -9.58059e-05 0)
(0.00171134 -0.000470211 0)
(0.00267223 -0.000162486 0)
(0.00256542 -0.000391133 0)
(0.00187411 -0.000382269 0)
(0.00273008 -9.61875e-05 0)
(0.00264681 -0.000318844 0)
(0.000287477 -0.00161024 0)
(0.000431015 -0.00144049 0)
(0.000925001 -0.00105507 0)
(0.00337603 -2.72188e-05 0)
(0.00324621 -0.000104745 0)
(0.00338861 -9.17974e-05 0)
(0.00339063 -8.0814e-05 0)
(0.00259918 -2.55254e-05 0)
(0.00175474 -0.000760664 0)
(0.000752793 -0.00111683 0)
(0.00218729 -0.00029191 0)
(0.00273464 -0.000243695 0)
(0.00301357 -0.000251316 0)
(0.001698 -0.000422982 0)
(0.00258294 -3.68191e-05 0)
(0.00328638 -3.7001e-05 0)
(0.00142037 -0.000597058 0)
(0.00290966 -0.000204863 0)
(0.00266491 -0.000145438 0)
(0.00100642 -0.000951 0)
(0.00224827 -0.000340654 0)
(0.00123004 -0.000757712 0)
(0.00258809 -3.10141e-05 0)
(0.00154192 -0.00051235 0)
(0.00322374 -0.000273246 0)
(0.00338772 -9.42723e-06 0)
(0.00205959 -0.000462936 0)
(0.00327634 -0.000195001 0)
(0.00246062 -0.00015589 0)
(0.00296892 -1.74952e-05 0)
(0.00148021 -0.000560591 0)
(0.00309004 -7.34817e-05 0)
(0.00347382 -2.42964e-05 0)
(0.00353961 -1.0281e-05 0)
(0.00327645 -0.000289317 0)
(0.0030196 -0.000210006 0)
(0.000188472 -0.00168364 0)
(0.00252224 -0.0003551 0)
(0.00251858 -0.000215387 0)
(0.00323756 -0.000145118 0)
(0.000312844 -0.00154418 0)
(0.00319634 -8.81011e-06 0)
(0.00253676 -9.51728e-05 0)
(0.00252037 -5.79043e-05 0)
(0.00290089 -6.1106e-05 0)
(0.00323147 -9.438e-05 0)
(0.00269698 -5.02963e-06 0)
(0.00205714 -0.000298593 0)
(0.00230334 -0.000145076 0)
(0.00262132 -0.000179641 0)
(0.00205368 -0.00039835 0)
(0.00165377 -0.000538251 0)
(0.00101395 -0.00110898 0)
(0.00244791 -0.00012158 0)
(0.000932781 -0.00111535 0)
(0.00268701 -0.00019227 0)
(0.000170118 -0.00165753 0)
(0.00244978 -0.000203708 0)
(0.00319163 -0.000164085 0)
(0.00310636 -0.000346205 0)
(0.000739371 -0.00126837 0)
(0.00197168 -0.00039743 0)
(0.00226412 -0.000422848 0)
(0.00260379 -0.000346668 0)
(0.00169046 -0.000565817 0)
(0.00195304 -0.000366296 0)
(0.00296999 -0.000266747 0)
(0.000137701 -0.00154218 0)
(0.0020613 -0.000229273 0)
(0.00307004 -0.000180422 0)
(0.00069732 -0.00112525 0)
(0.00241469 -0.000297299 0)
(0.00342779 -0.000104671 0)
(0.00218815 -0.000191713 0)
(0.00198406 -0.000269901 0)
(0.0026934 -0.000358152 0)
(0.0013022 -0.000684162 0)
(0.00303388 -4.53125e-05 0)
(0.00241104 -0.000143523 0)
(0.00307811 -1.69346e-05 0)
(0.00233227 -0.000405162 0)
(0.000843736 -0.00102968 0)
(0.00167737 -0.000690758 0)
(0.00314492 -2.12859e-05 0)
(0.000414619 -0.00142203 0)
(0.00175398 -0.000467214 0)
(0.00158511 -0.000492306 0)
(0.00192398 -0.000295247 0)
(0.00269616 -0.000114174 0)
(0.00186213 -0.000334537 0)
(0.00200339 -0.000258504 0)
(0.00206646 -0.000440374 0)
(0.00257306 -3.66953e-05 0)
(0.00292413 -0.000264127 0)
(0.00246537 -0.000278729 0)
(0.00218799 -0.000309001 0)
(0.00244618 -7.68698e-05 0)
(0.00123579 -0.000723767 0)
(0.00259583 -0.000132767 0)
(0.00291501 -0.000369458 0)
(0.00279052 -5.33702e-05 0)
(0.00284663 -4.64323e-06 0)
(0.00337824 -0.000150344 0)
(0.00246948 -8.83676e-05 0)
(0.00104841 -0.000903581 0)
(0.00302474 -9.44372e-05 0)
(0.00324614 -5.35891e-05 0)
(0.00282692 -8.26664e-05 0)
(0.000910706 -0.000996687 0)
(0.0025587 -6.30545e-05 0)
(0.00093305 -0.000964839 0)
(0.000954538 -0.00092235 0)
(0.00294353 -9.00675e-05 0)
(0.00329754 -6.26691e-06 0)
(0.00138619 -0.000650483 0)
(0.00190265 -0.000675685 0)
(0.000635279 -0.00126688 0)
(0.00213001 -0.000295538 0)
(0.00300965 -6.30877e-06 0)
(0.00154024 -0.000602757 0)
(0.00231364 -0.000364972 0)
(0.0017642 -0.00045628 0)
(0.00246861 -7.38882e-05 0)
(0.00298751 -0.000185377 0)
(0.00310295 -0.000221724 0)
(0.00218932 -0.000205077 0)
(0.00181121 -0.00037355 0)
(0.00192582 -0.000557311 0)
(0.00228088 -0.000159642 0)