/*--------------------------------*- C++ -*----------------------------------*\
| =========                 |                                                 |
| \\      /  F ield         | OpenFOAM: The Open Source CFD Toolbox           |
|  \\    /   O peration     | Version:  v2012                                 |
|   \\  /    A nd           | Website:  www.openfoam.com                      |
|    \\/     M anipulation  |                                                 |
\*---------------------------------------------------------------------------*/
FoamFile
{
    version     2.0;
    format      ascii;
    class       volScalarField;
    location    "17";
    object      epsilonEq;
}
// * * * * * * * * * * * * * * * * * * * * * * * * * * * * * * * * * * * * * //

dimensions      [0 0 0 0 0 0 0];


internalField   nonuniform List<scalar> 
32000
(
0.0119629
0.010028
0.0108475
0.00998976
0.0104747
0.00993505
0.010218
0.00983492
0.0100214
0.00971479
0.00984057
0.00956674
0.00965193
0.00939154
0.00944683
0.00919097
0.0092227
0.00896782
0.00897997
0.00872563
0.00872005
0.0084673
0.00844516
0.00819463
0.00815812
0.00791052
0.00786142
0.00761812
0.0075571
0.00731945
0.00724675
0.00701412
0.00693295
0.00670581
0.00661651
0.00639616
0.00629782
0.00608351
0.00597884
0.00577047
0.00565944
0.00545823
0.00533983
0.00514507
0.00502174
0.0048338
0.00470416
0.00452427
0.00438926
0.00421738
0.00407864
0.00391613
0.00377222
0.00361984
0.0034742
0.00333277
0.00318496
0.00305638
0.00290808
0.00279296
0.00264653
0.00254646
0.00240147
0.00231707
0.00217691
0.00210913
0.00197294
0.00192202
0.00179173
0.0017576
0.0016326
0.00161484
0.00149548
0.00149296
0.00137495
0.00138778
0.00128637
0.00130338
0.00123169
0.00124751
0.0096296
0.00994283
0.00985664
0.00999768
0.00998907
0.00995684
0.00995009
0.00985781
0.00984386
0.00973229
0.00969616
0.00957786
0.0095166
0.00939655
0.00931241
0.00919239
0.0090872
0.00896742
0.00884361
0.00872443
0.0085836
0.00846544
0.00831012
0.00819407
0.00802529
0.00791124
0.00773122
0.00761933
0.00742896
0.00731951
0.00712115
0.00701476
0.00680877
0.00670566
0.00649236
0.00639209
0.00617316
0.00607612
0.00585221
0.00575839
0.00553034
0.00543925
0.00520739
0.00511922
0.00488518
0.0047996
0.00456563
0.00448232
0.00424799
0.00416701
0.00393662
0.00385717
0.00363223
0.00355504
0.00333744
0.00326269
0.003056
0.00298398
0.00278868
0.00272025
0.00253996
0.00247555
0.00231018
0.00225134
0.00210189
0.00204972
0.00191513
0.00187118
0.00175039
0.00171654
0.00160762
0.00158508
0.00148511
0.00147518
0.00137978
0.00138316
0.00130425
0.00131197
0.00125435
0.00126281
0.0104825
0.00982569
0.0100314
0.0098341
0.00993262
0.00978281
0.00981754
0.00967979
0.00968882
0.0095535
0.00953842
0.00940162
0.00936334
0.00922513
0.00916506
0.0090263
0.00894698
0.00880826
0.00871136
0.00857277
0.00846035
0.00832231
0.00819534
0.00805771
0.00791889
0.00778253
0.00763241
0.00749779
0.00733791
0.00720535
0.00703596
0.00690565
0.00672632
0.0065984
0.00641161
0.00628632
0.00609287
0.00597019
0.00576938
0.00564933
0.0054431
0.0053257
0.00511631
0.00500145
0.0047886
0.00467624
0.00446304
0.0043531
0.00414236
0.00403505
0.00382837
0.00372408
0.00352518
0.00342432
0.00323378
0.00313712
0.00295929
0.00286713
0.00270237
0.00261645
0.00246661
0.00238769
0.00225207
0.00218197
0.00206035
0.00200026
0.0018907
0.00184191
0.00174307
0.00170682
0.0016157
0.00159283
0.00150673
0.0014977
0.00141352
0.0014174
0.00132549
0.00134315
0.00128573
0.00129415
0.00995917
0.00962857
0.00972714
0.00962521
0.00968054
0.00956255
0.00957277
0.00945179
0.00944287
0.00932227
0.00929383
0.00917197
0.00912357
0.00900118
0.00893318
0.00881039
0.00872407
0.00860112
0.00849803
0.00837549
0.00825649
0.00813442
0.00800198
0.00788093
0.00773482
0.00761515
0.0074567
0.00733826
0.00716789
0.00705037
0.00686885
0.00675271
0.00656114
0.00644681
0.00624575
0.00613264
0.00592329
0.00581136
0.00559448
0.0054845
0.00526193
0.00515305
0.00492743
0.00481967
0.00459425
0.004488
0.00426502
0.00415977
0.00394372
0.0038401
0.00363369
0.00353216
0.00333846
0.00323976
0.0030619
0.00296756
0.00280639
0.00271773
0.00257376
0.00249249
0.00236498
0.0022924
0.00217964
0.00211716
0.0020171
0.00196568
0.00187524
0.0018354
0.00175239
0.00172461
0.00164506
0.00162898
0.00155229
0.00154711
0.0014664
0.00147186
0.00138826
0.00140586
0.00131776
0.00132055
0.00981757
0.00938689
0.00949648
0.00936061
0.00941298
0.00928431
0.00928875
0.00916433
0.00915068
0.0090303
0.00899933
0.0088804
0.00883202
0.00871335
0.00864919
0.00853062
0.00845064
0.00833273
0.00823582
0.00811896
0.00800616
0.00789014
0.00776201
0.00764623
0.00750435
0.00738842
0.00723258
0.00711715
0.00694632
0.00683229
0.00664789
0.00653413
0.00633834
0.00622432
0.00601771
0.00590436
0.00568706
0.00557435
0.00535011
0.00523697
0.00500973
0.00489699
0.00466928
0.00455726
0.00433304
0.00422181
0.00400582
0.0038968
0.0036922
0.00358583
0.00339709
0.00329501
0.00312371
0.00302736
0.00287521
0.00278611
0.00265218
0.00257199
0.00245542
0.0023851
0.00228341
0.00222432
0.00213398
0.00208626
0.00200471
0.00196851
0.0018916
0.00186649
0.00179172
0.00177705
0.00170162
0.00169666
0.00161846
0.00162233
0.00154004
0.00155209
0.00145951
0.00147575
0.00138022
0.00139859
0.00948332
0.0090974
0.0091764
0.00904814
0.00908337
0.00895707
0.00895034
0.00882678
0.00880589
0.00868723
0.00865203
0.0085364
0.00848681
0.0083738
0.00830929
0.00819836
0.00811825
0.00800828
0.00791332
0.00780299
0.00769377
0.0075826
0.00745803
0.00734661
0.00720447
0.00709345
0.00693274
0.00682158
0.0066451
0.00653222
0.00634269
0.00622841
0.00602502
0.00591005
0.00569359
0.00557772
0.0053537
0.0052362
0.00500923
0.00489134
0.00466415
0.00454649
0.00432489
0.00420815
0.00399705
0.00388307
0.00368657
0.00357623
0.00339886
0.00329443
0.003137
0.00304013
0.00290377
0.00281619
0.00269935
0.00262251
0.00252232
0.00245725
0.00237066
0.00231735
0.00224061
0.00219953
0.00212792
0.00209797
0.00202953
0.00200994
0.00194075
0.00193067
0.00185865
0.00185672
0.00178116
0.00178713
0.00170381
0.00171725
0.00162795
0.0016457
0.00155031
0.00157559
0.00146763
0.00148234
0.00915897
0.00879509
0.0088335
0.00871591
0.00871829
0.00860236
0.00857139
0.00845608
0.00841794
0.00830524
0.00826014
0.00814871
0.00809483
0.00798432
0.00791979
0.00781009
0.007733
0.00762402
0.00753212
0.00742403
0.00731441
0.00720685
0.0070772
0.0069693
0.00681919
0.00670961
0.00654173
0.0064291
0.00624585
0.00613075
0.00593132
0.00581426
0.00560022
0.005481
0.005259
0.00513735
0.00491348
0.00479069
0.00456819
0.00444543
0.00423151
0.00410983
0.00391052
0.00379224
0.00361181
0.00349848
0.00334074
0.00323517
0.00310008
0.00300394
0.00289138
0.00280646
0.00271379
0.00264117
0.00256372
0.00250413
0.00243712
0.00238987
0.00233099
0.00229525
0.00223919
0.00221444
0.00215694
0.00214142
0.00208213
0.00207463
0.00201148
0.00201144
0.00194099
0.00194799
0.00187138
0.00188384
0.00180172
0.00181944
0.00172809
0.0017525
0.00165545
0.00168039
0.00157809
0.00159818
0.00884068
0.00847764
0.00849142
0.00836402
0.00834762
0.00822707
0.00817963
0.00806184
0.00800974
0.0078963
0.00783932
0.00772875
0.00766431
0.00755618
0.00748162
0.00737555
0.00728782
0.00718305
0.00707871
0.00697407
0.00685038
0.00674462
0.00660054
0.00649222
0.00632919
0.00621724
0.0060371
0.00592149
0.005725
0.00560594
0.00539535
0.00527319
0.00505519
0.00493004
0.00471237
0.0045853
0.00437307
0.0042459
0.00404663
0.00392118
0.00374182
0.00362073
0.0034649
0.0033506
0.00322085
0.00311621
0.00301129
0.00291789
0.00283591
0.00275529
0.00269217
0.00262472
0.0025748
0.00252029
0.00247784
0.00243526
0.00239697
0.00236454
0.00232762
0.00230443
0.00226405
0.00224937
0.00220313
0.00219549
0.00214441
0.00214275
0.00208621
0.00209059
0.00202563
0.00203555
0.00196275
0.00197782
0.0018994
0.00191936
0.00183547
0.00185854
0.00176464
0.00179385
0.00169226
0.00170956
0.00849149
0.00816664
0.00813328
0.00801992
0.00796398
0.00785462
0.00777245
0.00766377
0.00758034
0.00747416
0.00738911
0.00728431
0.00719422
0.00709017
0.00699109
0.00688707
0.00677452
0.00666966
0.00654043
0.00643386
0.00628635
0.00617709
0.00601156
0.00589881
0.00571652
0.0055998
0.00540295
0.00528207
0.00507454
0.00494996
0.00473758
0.00461017
0.0044015
0.00427256
0.00407544
0.00394688
0.00376844
0.00364286
0.00348987
0.00337011
0.0032457
0.00313468
0.00303926
0.00293936
0.00287031
0.00278291
0.00273594
0.00266201
0.00263141
0.00257031
0.00255005
0.00250064
0.00248477
0.00244571
0.0024298
0.00239945
0.00238229
0.00235919
0.00233792
0.00232154
0.00229335
0.00228324
0.00224717
0.00224244
0.00220012
0.00219996
0.00215216
0.00215667
0.00210136
0.00211114
0.00204675
0.00206124
0.00199099
0.0020085
0.00193359
0.00195626
0.0018743
0.00189837
0.00180577
0.00182383
0.00818288
0.00786058
0.0077963
0.00767832
0.00759206
0.00748128
0.00736854
0.0072587
0.00714353
0.00703605
0.00691743
0.00681075
0.00668453
0.00657773
0.00643958
0.00633193
0.00617976
0.00607033
0.00590315
0.0057912
0.0056092
0.00549411
0.00529899
0.00518029
0.00497545
0.0048529
0.00464363
0.00451758
0.00431067
0.00418211
0.00398586
0.00385623
0.00367928
0.00355133
0.00340115
0.00327759
0.00315942
0.0030434
0.00295847
0.00285287
0.00279899
0.00270565
0.00267817
0.00259805
0.00259036
0.00252321
0.00252819
0.00247238
0.00248403
0.00243785
0.00245036
0.00241236
0.00242164
0.00239058
0.00239562
0.00237028
0.00236995
0.00234998
0.00234233
0.00232742
0.00231155
0.00230159
0.00227709
0.00227167
0.00224034
0.00223885
0.00220251
0.00220515
0.00216142
0.00216852
0.00211688
0.00212789
0.0020676
0.00208327
0.00201815
0.00203502
0.00196768
0.00198849
0.00190859
0.00192186
0.00785971
0.00755933
0.00745448
0.00734226
0.0072159
0.00710919
0.00695367
0.0068458
0.00668374
0.00657555
0.00640603
0.00629619
0.00611523
0.00600294
0.00581071
0.00569478
0.00549227
0.00537249
0.00516084
0.00503784
0.00481964
0.00469395
0.00447361
0.0043457
0.00412945
0.00399992
0.00379548
0.00366527
0.00348179
0.00335282
0.0031994
0.00307417
0.00295665
0.00283842
0.00275967
0.00265114
0.00260953
0.00251317
0.00250366
0.00242023
0.00243537
0.00236454
0.00239611
0.00233624
0.00237679
0.00232562
0.00236887
0.00232471
0.00236539
0.00232704
0.00236225
0.00232882
0.00235813
0.00232896
0.00235167
0.00232664
0.00234166
0.0023206
0.00232752
0.00231037
0.00230883
0.00229584
0.0022854
0.00227652
0.0022599
0.00225447
0.00223269
0.0022309
0.00220124
0.00220338
0.00216555
0.00217214
0.00212589
0.00213539
0.00208486
0.00209795
0.00204127
0.0020561
0.00199046
0.00199908
0.00754905
0.00725115
0.00710913
0.00699413
0.00682458
0.00671665
0.00651021
0.00640028
0.00617912
0.0060673
0.00583173
0.00571668
0.00546926
0.00534932
0.00509398
0.00496969
0.00470973
0.00458183
0.00432237
0.00419167
0.0039402
0.00380749
0.00357284
0.00343918
0.00323076
0.00309797
0.00292485
0.00279578
0.00266591
0.00254353
0.00246025
0.00234792
0.00231059
0.00221078
0.00221383
0.00212756
0.00216237
0.00208898
0.0021457
0.00208335
0.00215265
0.00209867
0.00217295
0.00212507
0.00219829
0.00215498
0.00222295
0.00218323
0.00224458
0.00220789
0.0022626
0.00222879
0.00227644
0.00224565
0.00228528
0.00225759
0.00228872
0.00226417
0.00228676
0.00226558
0.00227928
0.00226188
0.00226801
0.00225388
0.00225452
0.00224324
0.00223684
0.002229
0.00221451
0.00221017
0.00218844
0.0021873
0.00216025
0.00216287
0.00212597
0.00213149
0.00209095
0.00209689
0.00204939
0.00205114
0.00720833
0.0069122
0.00672581
0.00660544
0.0063834
0.00627025
0.00600325
0.00588716
0.00559752
0.0054788
0.00517414
0.00505065
0.00473764
0.00460964
0.00429412
0.00416191
0.00385344
0.00371736
0.00342742
0.00328864
0.00302894
0.00288941
0.0026709
0.00253388
0.00236588
0.00223537
0.00212548
0.00200487
0.00195281
0.00184573
0.0018453
0.00175366
0.00179549
0.00171879
0.00179107
0.00172685
0.00181766
0.00176261
0.00186274
0.00181325
0.001916
0.00186966
0.00196974
0.00192519
0.00201952
0.00197629
0.00206434
0.00202244
0.00210431
0.00206408
0.00213893
0.00210066
0.00216732
0.00213115
0.00218907
0.00215518
0.00220442
0.00217324
0.00221405
0.00218592
0.00221988
0.00219462
0.00222156
0.00219906
0.00221816
0.00219884
0.00220986
0.00219376
0.00219793
0.00218507
0.00218332
0.00217362
0.00216377
0.00215761
0.00213846
0.00213455
0.00211217
0.00210998
0.00207908
0.0020731
0.0068124
0.00650735
0.00626893
0.00613573
0.00585309
0.00572923
0.00539681
0.00527153
0.00491643
0.0047892
0.00442294
0.00429313
0.00392492
0.00379223
0.0034349
0.00329963
0.0029676
0.00283017
0.00253917
0.00240105
0.00216525
0.00202995
0.00186069
0.00173311
0.00163593
0.00152098
0.00148943
0.00139203
0.00141382
0.00133468
0.00139655
0.00133323
0.00142231
0.00137035
0.00147537
0.00143025
0.00154308
0.00150116
0.0016163
0.00157554
0.00168872
0.00164803
0.00175721
0.00171634
0.00182159
0.00178055
0.00188186
0.00184079
0.00193668
0.00189582
0.00198463
0.00194408
0.00202511
0.00198516
0.00205861
0.00201985
0.00208663
0.00204968
0.00211
0.0020749
0.00212823
0.00209524
0.00214002
0.00210957
0.00214667
0.00211909
0.00214985
0.0021253
0.00214971
0.00212804
0.00214446
0.00212554
0.00213336
0.00211727
0.00211774
0.00210435
0.00210159
0.00208833
0.00207713
0.00206297
0.00631186
0.00599938
0.00569557
0.00554819
0.00519953
0.00506377
0.00467249
0.00453717
0.00413112
0.00399645
0.0035891
0.00345504
0.00306219
0.00292864
0.00256634
0.00243325
0.00211998
0.00198757
0.00174202
0.00161398
0.00144912
0.00133085
0.0012475
0.0011436
0.00112634
0.00104255
0.0010734
0.00100844
0.00107206
0.00102047
0.00110667
0.00106201
0.00116374
0.00112125
0.00123364
0.00119041
0.00130962
0.00126438
0.0013866
0.00133996
0.00146303
0.00141551
0.00153895
0.00149071
0.00161355
0.00156495
0.00168372
0.00163544
0.00174738
0.0016994
0.00180368
0.00175629
0.00185297
0.00180691
0.00189803
0.00185375
0.0019387
0.00189617
0.00197357
0.00193267
0.00200028
0.00196131
0.00202204
0.00198553
0.00204077
0.00200683
0.00205584
0.00202424
0.00206493
0.00203565
0.00206791
0.00204061
0.00206706
0.00204224
0.00206245
0.00203928
0.0020569
0.00203563
0.00204109
0.00201974
0.00567796
0.00535826
0.00498604
0.00482449
0.00441912
0.00427336
0.00384059
0.00369924
0.00326547
0.00312837
0.00271466
0.00258028
0.00220493
0.00207167
0.00175466
0.00162168
0.00138896
0.00125919
0.00112273
0.0010076
0.000957072
0.000866586
0.000870346
0.000807293
0.000840057
0.000799256
0.000845812
0.000817091
0.000874163
0.000847742
0.00091669
0.000886525
0.000968594
0.000931891
0.00102695
0.000983123
0.00108891
0.00103897
0.001156
0.00110053
0.00122896
0.00116925
0.00130671
0.00124456
0.00138373
0.00132029
0.00145721
0.00139196
0.00152517
0.00145974
0.00158785
0.00152321
0.00164972
0.00158657
0.00170821
0.00164651
0.00176005
0.00169962
0.00180164
0.00174306
0.00183917
0.00178343
0.00187435
0.00182152
0.00190531
0.00185502
0.0019297
0.0018819
0.00194696
0.00190167
0.00195905
0.00191659
0.00196746
0.00192805
0.00197502
0.00193856
0.00197856
0.00194357
0.00197076
0.00193808
0.00489819
0.00457934
0.00415411
0.00398289
0.00354174
0.00338998
0.00294155
0.00279667
0.00237358
0.00223136
0.00185486
0.00171046
0.00140399
0.00125531
0.00105757
0.000920867
0.000839083
0.000733367
0.000730897
0.00066964
0.000690881
0.000673491
0.000698435
0.000701135
0.000722864
0.00073107
0.000752307
0.0007606
0.00078265
0.000788799
0.000812654
0.000815516
0.000841873
0.000840692
0.00086953
0.000864459
0.000908065
0.000890791
0.000957564
0.000929421
0.00101648
0.000979149
0.00107766
0.00103077
0.00114089
0.00108452
0.00120444
0.00114205
0.00126804
0.00120061
0.00133903
0.00126943
0.00140911
0.00133783
0.0014731
0.00140059
0.00152649
0.00145386
0.00157879
0.00150756
0.0016306
0.00156147
0.00167808
0.00161072
0.00171829
0.00165285
0.0017507
0.00168764
0.00177746
0.00171748
0.00180146
0.00174492
0.00182424
0.00177071
0.00184178
0.00179059
0.00185399
0.00180474
0.00185542
0.00181097
0.00400057
0.0036973
0.00323934
0.00306594
0.00261048
0.00245512
0.00202387
0.00187037
0.00148909
0.00133014
0.00103496
0.000881097
0.000740882
0.000621505
0.000604173
0.000551105
0.000577289
0.000572558
0.000593746
0.000600923
0.000623424
0.000632042
0.000654255
0.000662139
0.000685176
0.000691216
0.00071591
0.000719819
0.000745967
0.000747901
0.000774972
0.000775231
0.000802965
0.000801645
0.000830996
0.000827171
0.000858834
0.000852621
0.000885919
0.000877531
0.000911505
0.0009007
0.000935954
0.000922219
0.000958487
0.000942893
0.000995319
0.000966629
0.00105257
0.00101908
0.00111091
0.00106747
0.00116717
0.00111499
0.00121798
0.00115902
0.00127257
0.00120837
0.00133436
0.0012673
0.00139282
0.00132265
0.00144473
0.00137206
0.00148919
0.00141502
0.00152837
0.00145442
0.00156733
0.00149459
0.00160564
0.00153373
0.00163668
0.00156566
0.00166134
0.00159203
0.00168213
0.00161502
0.00169751
0.00163827
0.00303479
0.00274531
0.00227637
0.00209682
0.00165793
0.00149668
0.00110565
0.000948298
0.000681282
0.000553414
0.000495648
0.000447045
0.000467886
0.000468367
0.000488431
0.00049685
0.000517852
0.000529382
0.000549251
0.000559088
0.000580494
0.000587888
0.000611694
0.000617045
0.000643038
0.000646233
0.00067418
0.000675085
0.000704723
0.000703406
0.000734439
0.00073111
0.000763304
0.000758284
0.000791399
0.00078533
0.000818744
0.000811706
0.000844598
0.000836857
0.000868512
0.00086065
0.000891066
0.000883036
0.000914186
0.000904061
0.000937887
0.000926115
0.000959633
0.000946363
0.000979609
0.000965106
0.000997763
0.000982682
0.00102426
0.00100247
0.00107535
0.00104995
0.00112362
0.00108957
0.00116855
0.00112665
0.00120917
0.0011609
0.00124779
0.00119603
0.00129361
0.00123933
0.00134021
0.00128219
0.00137836
0.0013172
0.00141104
0.00134768
0.00144034
0.00137628
0.00147127
0.00140655
0.0014971
0.00143938
0.00200085
0.00172781
0.00129417
0.00111573
0.000739722
0.000598399
0.000413819
0.000346553
0.000364418
0.000363402
0.00038365
0.000392288
0.000412859
0.000426057
0.00044398
0.000455544
0.000475044
0.000485212
0.000506813
0.000514902
0.000538834
0.000544338
0.000570713
0.000573743
0.000602313
0.000603137
0.00063348
0.000632328
0.00066403
0.000661117
0.000693843
0.000689413
0.00072291
0.00071723
0.000751207
0.000744567
0.000778589
0.000771133
0.000804828
0.00079661
0.000829819
0.000820969
0.000853677
0.000844444
0.000876546
0.000867478
0.000898263
0.000889199
0.000918176
0.000909476
0.00093665
0.000928264
0.000955224
0.000945913
0.000974712
0.00096423
0.00099234
0.000980894
0.00100833
0.000996312
0.00102274
0.00101048
0.00104288
0.0010299
0.00108328
0.00106651
0.00111957
0.00109553
0.00115196
0.00112173
0.00118154
0.00114609
0.00120831
0.00117012
0.00124007
0.00119978
0.00127251
0.00122967
0.00129991
0.00126125
0.000966409
0.000767887
0.000438449
0.000333659
0.000248764
0.000251667
0.000273443
0.000287746
0.000309433
0.000326023
0.000342657
0.000356754
0.000374051
0.000386605
0.000405347
0.000415805
0.000436622
0.000444866
0.000468086
0.000474189
0.000499809
0.000503777
0.000531636
0.000533489
0.000563314
0.000563166
0.000594598
0.00059265
0.000625305
0.000621801
0.000655327
0.000650527
0.000684595
0.000678763
0.000713031
0.000706379
0.000740507
0.000733184
0.000766908
0.000759031
0.000792221
0.000783909
0.000816535
0.000807928
0.000839858
0.000831163
0.000862063
0.000853275
0.000883033
0.000874196
0.00090283
0.00089407
0.000921554
0.000913166
0.000939025
0.00093105
0.000954942
0.000947606
0.000969661
0.000962962
0.000984258
0.000977667
0.000999255
0.000992062
0.00101283
0.00100524
0.00102535
0.00101764
0.0010372
0.00102929
0.00104824
0.00104274
0.00107236
0.0010666
0.00109849
0.00108838
0.00112195
0.00110773
0.00114314
0.0011303
0.000234536
0.000166523
0.000146078
0.000179415
0.000206201
0.000230761
0.000250198
0.000266219
0.000282404
0.000296648
0.000311912
0.000324946
0.0003412
0.000352569
0.000370968
0.000380383
0.000401397
0.000408684
0.00043242
0.000437541
0.000463845
0.000466887
0.000495432
0.000496546
0.000526939
0.000526301
0.000558139
0.000555948
0.000588853
0.000585326
0.000618946
0.000614311
0.000648316
0.000642784
0.00067687
0.000670606
0.000704515
0.000697642
0.000731182
0.00072381
0.000756844
0.000749102
0.000781488
0.000773529
0.000805082
0.000797018
0.000827568
0.000819452
0.000848934
0.000840799
0.000869234
0.000861151
0.000888489
0.000880591
0.000906636
0.000898959
0.000923648
0.000916263
0.000939591
0.000932585
0.000954489
0.000947964
0.000968213
0.000962296
0.000980715
0.000975572
0.000992249
0.000988012
0.00100335
0.00100015
0.00101478
0.00101198
0.00102577
0.00102319
0.0010362
0.00103435
0.00104636
0.0010458
0.00105631
0.00105722
8.50883e-05
0.000136194
0.000141905
0.0001855
0.000196656
0.000221159
0.000233296
0.000248337
0.000261349
0.000272825
0.000287258
0.000297355
0.000313688
0.000322645
0.000341402
0.00034893
0.000370425
0.00037625
0.000400505
0.000404499
0.000431287
0.000433476
0.000462418
0.000462932
0.000493592
0.00049261
0.00052456
0.000522274
0.00055513
0.00055173
0.000585149
0.000580818
0.000614495
0.000609395
0.000643066
0.000637333
0.000670778
0.000664524
0.000697572
0.000690902
0.00072341
0.000716429
0.000748265
0.000741067
0.000772102
0.000764752
0.00079489
0.000787435
0.000816613
0.000809116
0.000837271
0.000829822
0.000856857
0.000849536
0.000875356
0.000868203
0.000892774
0.000885825
0.000909142
0.000902454
0.000924471
0.000918119
0.000938758
0.000932829
0.00095207
0.000946695
0.000964526
0.000959826
0.000976194
0.000972233
0.000987017
0.000983876
0.000996983
0.00099476
0.00100622
0.00100499
0.00101495
0.00101481
0.00102348
0.00102521
0.000149905
0.000159247
0.000165638
0.000187882
0.000193739
0.000211777
0.000219002
0.000232081
0.000242114
0.000251958
0.000265254
0.000273108
0.00028964
0.000296079
0.000315699
0.000320876
0.000343391
0.000347272
0.000372419
0.000374949
0.00040239
0.000403563
0.000432902
0.000432781
0.000463608
0.000462304
0.00049422
0.000491872
0.000524518
0.00052127
0.000554328
0.000550319
0.000583517
0.000578871
0.000611976
0.000606799
0.000639625
0.000634009
0.0006664
0.000660429
0.000692256
0.000686009
0.000717155
0.000710699
0.000741066
0.000734452
0.000763963
0.00075724
0.000785833
0.00077905
0.000806667
0.000799874
0.000826455
0.00081969
0.000845188
0.000838483
0.000862868
0.000856261
0.000879503
0.000873049
0.000895109
0.000888858
0.000909712
0.0009037
0.000923345
0.000917615
0.000936048
0.000930649
0.000947853
0.000942802
0.00095878
0.000954092
0.000968895
0.000964623
0.000978309
0.000974508
0.000987122
0.000983761
0.00099538
0.000992591
0.00018103
0.000179987
0.000184302
0.000191451
0.000196219
0.000203913
0.000210183
0.000217556
0.000226697
0.000233421
0.00024614
0.000251911
0.000268378
0.000273033
0.000293057
0.000296563
0.000319736
0.000322114
0.000347939
0.000349231
0.000377201
0.000377458
0.000407101
0.000406387
0.000437278
0.000435673
0.000467437
0.000465032
0.000497342
0.000494237
0.000526812
0.000523102
0.000555703
0.000551477
0.000583905
0.000579241
0.000611332
0.000606301
0.00063792
0.000632585
0.00066362
0.000658035
0.00068839
0.000682604
0.000712199
0.000706252
0.000735024
0.00072895
0.000756845
0.000750679
0.00077765
0.000771423
0.000797428
0.000791165
0.000816173
0.000809896
0.000833885
0.000827617
0.000850569
0.000844331
0.000866234
0.000860041
0.000880892
0.00087476
0.000894563
0.000888507
0.00090727
0.000901303
0.000919044
0.000913167
0.00092993
0.000924132
0.000939983
0.000934248
0.000949268
0.000943568
0.000957864
0.000952121
0.000965832
0.00096001
0.000199495
0.000191915
0.000193709
0.000193099
0.000195971
0.000197409
0.000202931
0.000205614
0.000214647
0.000217976
0.000230839
0.000234205
0.000250915
0.000253835
0.000274159
0.000276339
0.000299838
0.000301152
0.000327273
0.000327708
0.000355881
0.000355483
0.000385182
0.000384022
0.000414794
0.000412948
0.000444417
0.00044196
0.000473815
0.000470821
0.000502807
0.000499342
0.000531251
0.000527376
0.000559037
0.000554806
0.000586078
0.000581541
0.000612309
0.000607508
0.000637678
0.000632652
0.000662143
0.000656924
0.000685673
0.000680288
0.000708242
0.000702715
0.000729829
0.000724183
0.000750419
0.000744672
0.000770002
0.000764168
0.000788567
0.00078266
0.000806114
0.000800143
0.000822642
0.000816615
0.000838157
0.000832077
0.000852671
0.000846537
0.000866204
0.000860008
0.000878781
0.000872505
0.000890436
0.000884047
0.000901204
0.000894658
0.000911123
0.00090436
0.000920231
0.000913173
0.000928599
0.00092112
0.000936312
0.000928475
0.000207232
0.000196006
0.000196602
0.000191161
0.000193049
0.000190476
0.000195725
0.000195221
0.000204538
0.000205257
0.000218698
0.000219927
0.00023728
0.000238494
0.000259375
0.000260229
0.000284125
0.000284427
0.000310767
0.000310442
0.000338658
0.000337706
0.000367282
0.000365746
0.000396237
0.000394174
0.000425215
0.000422687
0.000453983
0.000451044
0.00048236
0.000479059
0.000510209
0.000506587
0.000537423
0.000533517
0.000563919
0.000559759
0.00058963
0.000585244
0.000614507
0.000609918
0.000638506
0.000633734
0.000661595
0.000656658
0.000683748
0.00067866
0.000704943
0.000699717
0.000725164
0.000719809
0.000744398
0.000738923
0.000762637
0.000757046
0.000779877
0.000774172
0.000796119
0.000790298
0.000811368
0.000805426
0.000825636
0.000819559
0.000838943
0.000832709
0.000851312
0.000844887
0.000862772
0.000856109
0.000873355
0.00086639
0.000883091
0.000875742
0.000892027
0.000884187
0.000900255
0.000891774
0.000907901
0.000898906
0.000206109
0.000193138
0.000193386
0.000185322
0.000187064
0.000182225
0.000187815
0.000185412
0.000195445
0.000194477
0.000208828
0.000208509
0.000226783
0.000226598
0.000248261
0.000247902
0.000272354
0.000271654
0.000298293
0.000297178
0.000325445
0.000323903
0.000353311
0.000351359
0.0003815
0.000379172
0.000409712
0.000407046
0.000437719
0.000434752
0.000465348
0.00046211
0.000492465
0.000488982
0.000518969
0.000515262
0.000544779
0.000540864
0.000569831
0.000565725
0.000594076
0.00058979
0.000617473
0.000613017
0.00063999
0.000635373
0.000661599
0.000656828
0.000682279
0.000677361
0.000702015
0.000696952
0.000720793
0.000715587
0.000738606
0.000733256
0.00075545
0.000749952
0.000771326
0.000765673
0.000786241
0.00078042
0.000800208
0.000794198
0.000813244
0.000807016
0.000825375
0.000818887
0.000836627
0.000829822
0.000847033
0.000839834
0.000856628
0.000848936
0.000865468
0.000857161
0.000873668
0.000864596
0.00088137
0.00087171
0.000197949
0.000184349
0.00018491
0.000175741
0.000177998
0.000172314
0.000178759
0.000175634
0.000186746
0.000185021
0.000200508
0.000199342
0.000218665
0.000217569
0.000240087
0.000238817
0.000263869
0.000262323
0.000289287
0.000287437
0.000315769
0.000313624
0.000342864
0.000340447
0.000370225
0.00036756
0.000397581
0.000394691
0.000424725
0.000421629
0.000451494
0.000448208
0.000477767
0.000474301
0.000503446
0.000499808
0.000528457
0.000524653
0.000552738
0.000548772
0.000576243
0.000572119
0.000598933
0.000594653
0.000620776
0.000616343
0.000641747
0.000637162
0.000661825
0.000657089
0.000680996
0.000676107
0.000699246
0.000694203
0.000716569
0.000711366
0.000732963
0.000727591
0.000748429
0.000742876
0.000762976
0.000757224
0.000776617
0.00077064
0.000789372
0.000783135
0.000801266
0.000794722
0.000812329
0.000805416
0.000822595
0.00081523
0.000832103
0.000824183
0.000840916
0.00083232
0.000849157
0.000839753
0.000856974
0.000846966
0.000184086
0.000170604
0.000171987
0.000162839
0.000166139
0.000160787
0.000168484
0.000165703
0.000178122
0.000176542
0.000193244
0.000191959
0.000212299
0.00021086
0.000234143
0.000232382
0.000257932
0.000255827
0.000283031
0.00028062
0.000308953
0.000306292
0.000335326
0.000332462
0.000361859
0.000358827
0.000388326
0.000385149
0.000414549
0.00041124
0.000440391
0.000436955
0.000465742
0.00046218
0.000490517
0.000486826
0.000514647
0.000510824
0.000538077
0.000534119
0.000560764
0.000556666
0.000582671
0.000578431
0.00060377
0.000599385
0.000624038
0.000619505
0.000643455
0.000638772
0.000662009
0.000657171
0.000679687
0.000674691
0.000696484
0.000691323
0.000712399
0.000707062
0.000727434
0.000721906
0.000741598
0.000735856
0.000754906
0.00074892
0.00076738
0.000761109
0.000779046
0.000772439
0.00078994
0.000782931
0.000800097
0.000792607
0.000809561
0.000801498
0.000818395
0.000809665
0.000826715
0.000817233
0.000834647
0.000824693
0.000165582
0.000152781
0.000155378
0.000147212
0.000151962
0.000148007
0.000157213
0.000155765
0.000169551
0.000168961
0.000186776
0.000186078
0.000207239
0.000206032
0.000229852
0.000228057
0.000253888
0.000251573
0.000278833
0.000276114
0.00030431
0.000301298
0.000330031
0.000326814
0.000355774
0.000352411
0.000381362
0.000377889
0.000406655
0.00040309
0.000431544
0.00042789
0.000455938
0.000452192
0.000479765
0.000475921
0.000502968
0.000499017
0.000525498
0.000521431
0.000547318
0.000543127
0.000568396
0.000564073
0.000588706
0.000584245
0.000608229
0.000603623
0.000626948
0.000622193
0.000644852
0.000639944
0.000661932
0.000656867
0.000678185
0.000672956
0.000693609
0.000688209
0.000708207
0.000702622
0.000721989
0.000716197
0.000734969
0.000728937
0.000747166
0.00074085
0.000758611
0.000751951
0.00076934
0.000762266
0.000779395
0.000771826
0.000788825
0.000780682
0.000797698
0.000788922
0.00080612
0.000796695
0.000814168
0.000804488
0.000143306
0.000131696
0.000135821
0.000129613
0.00013611
0.000134628
0.000145432
0.000146252
0.000161269
0.000162434
0.000181076
0.000181595
0.000203233
0.000202786
0.000226802
0.000225413
0.00025122
0.000249053
0.000276117
0.000273368
0.000301232
0.000298076
0.000326368
0.00032294
0.000351371
0.000347763
0.000376114
0.000372385
0.000400498
0.000396678
0.000424441
0.000420541
0.000447875
0.000443895
0.000470744
0.000466678
0.000493003
0.000488841
0.000514613
0.000510345
0.000535543
0.00053116
0.000555768
0.000551259
0.000575265
0.000570623
0.000594019
0.000589235
0.000612017
0.000607084
0.00062925
0.000624161
0.000645714
0.000640464
0.000661407
0.000655991
0.000676332
0.000670744
0.000690494
0.000684725
0.000703902
0.000697937
0.000716568
0.00071038
0.00072851
0.000722056
0.000739751
0.000732968
0.000750323
0.000743127
0.000760266
0.000752556
0.000769632
0.000761304
0.000778497
0.000769466
0.000786968
0.000777192
0.000795109
0.0007849
0.000117986
0.000108154
0.000114083
0.000111042
0.000119457
0.000121624
0.000133892
0.000137853
0.000153733
0.000157296
0.000176305
0.000178557