/*--------------------------------*- C++ -*----------------------------------*\
| =========                 |                                                 |
| \\      /  F ield         | OpenFOAM: The Open Source CFD Toolbox           |
|  \\    /   O peration     | Version:  v2012                                 |
|   \\  /    A nd           | Website:  www.openfoam.com                      |
|    \\/     M anipulation  |                                                 |
\*---------------------------------------------------------------------------*/
FoamFile
{
    version     2.0;
    format      ascii;
    class       volSymmTensorField;
    location    "17";
    object      sigma;
}
// * * * * * * * * * * * * * * * * * * * * * * * * * * * * * * * * * * * * * //

dimensions      [1 -1 -2 0 0 0 0];


internalField   nonuniform List<symmTensor> 
32000
(
(-1.06926e+08 963891 1.01172e-07 188622 1.10439e-10 2.26438e+07)
(-1.04891e+08 -216810 1.56328e-07 -657151 1.77833e-08 2.38652e+07)
(-9.2671e+07 2.14173e+06 0 -2.34926e+06 0 2.5107e+07)
(-9.24567e+07 -499039 -5.21092e-08 -1.67146e+06 1.256e-08 2.89456e+07)
(-7.94174e+07 2.78228e+06 -2.05885e-07 -3.67854e+06 -1.65464e-08 3.04622e+07)
(-7.86245e+07 -1.11774e+06 -1.53257e-07 -2.70124e+06 -1.78844e-08 3.39892e+07)
(-6.58295e+07 2.71288e+06 -1.61286e-07 -4.18562e+06 1.77702e-08 3.51753e+07)
(-6.49929e+07 -1.73545e+06 -7.56259e-08 -3.30558e+06 -2.44494e-08 3.90082e+07)
(-5.25337e+07 2.42123e+06 0 -4.28415e+06 0 3.99038e+07)
(-5.18462e+07 -2.23456e+06 4.02845e-09 -3.42653e+06 1.68347e-08 4.39464e+07)
(-3.96575e+07 2.10779e+06 -9.66891e-08 -4.05929e+06 -7.89624e-10 4.46183e+07)
(-3.90993e+07 -2.62718e+06 -2.39542e-08 -3.12245e+06 -3.16933e-08 4.87195e+07)
(-2.7174e+07 1.80712e+06 -5.3055e-08 -3.50197e+06 -2.47595e-08 4.93167e+07)
(-2.67009e+07 -2.93845e+06 -5.20537e-08 -2.45679e+06 1.07056e-08 5.33776e+07)
(-1.50858e+07 1.51333e+06 -6.22503e-08 -2.61599e+06 5.22858e-08 5.39698e+07)
(-1.46652e+07 -3.18636e+06 5.86871e-08 -1.4778e+06 -5.23083e-08 5.79277e+07)
(-3.40764e+06 1.22045e+06 1.8352e-07 -1.42902e+06 2.49106e-08 5.85274e+07)
(-3.02094e+06 -3.38188e+06 1.67093e-07 -222788 3.92757e-08 6.23538e+07)
(7.84867e+06 929048 8.7289e-08 20906.8 -3.01708e-08 6.29492e+07)
(8.21065e+06 -3.5323e+06 6.57712e-08 1.27568e+06 1.03078e-09 6.66248e+07)
(1.86793e+07 643210 2.17778e-08 1.69624e+06 -2.97365e-08 6.72101e+07)
(1.90217e+07 -3.64403e+06 1.99283e-08 2.98716e+06 -2.97296e-08 7.07197e+07)
(2.90856e+07 367668 4.7573e-08 3.56455e+06 -2.36983e-09 7.1287e+07)
(2.94137e+07 -3.72427e+06 3.3379e-08 4.88344e+06 3.00624e-08 7.46254e+07)
(3.90752e+07 104879 0 5.59938e+06 0 7.51669e+07)
(3.93949e+07 -3.78051e+06 3.04024e-08 6.93989e+06 -3.83381e-08 7.83354e+07)
(4.86584e+07 -144096 5.41621e-08 7.77823e+06 2.51794e-08 7.88267e+07)
(4.89735e+07 -3.81862e+06 4.75256e-08 9.13528e+06 3.55693e-08 8.18173e+07)
(5.78498e+07 -379068 1.07766e-08 1.00817e+07 -3.17517e-08 8.22531e+07)
(5.8163e+07 -3.84294e+06 0 1.14513e+07 0 8.50652e+07)
(6.66648e+07 -599968 -1.26377e-08 1.24936e+07 -2.80341e-08 8.54434e+07)
(6.69786e+07 -3.8571e+06 -2.81507e-08 1.38723e+07 5.85269e-08 8.80749e+07)
(7.5115e+07 -807849 -2.61368e-08 1.50002e+07 6.74863e-08 8.83674e+07)
(7.54315e+07 -3.86342e+06 -9.58268e-09 1.63847e+07 -8.42673e-08 9.08187e+07)
(8.32143e+07 -1.00512e+06 6.57543e-09 1.75893e+07 -6.2926e-08 9.10163e+07)
(8.35328e+07 -3.8622e+06 1.54042e-09 1.89771e+07 2.39209e-08 9.32854e+07)
(9.09745e+07 -1.19295e+06 -8.69153e-10 2.02495e+07 3.10594e-08 9.33892e+07)
(9.12935e+07 -3.85265e+06 0 2.16385e+07 0 9.54685e+07)
(9.84001e+07 -1.37274e+06 -1.74916e-09 2.29706e+07 2.59233e-08 9.54444e+07)
(9.87167e+07 -3.83293e+06 -2.35859e-10 2.43582e+07 1.90404e-08 9.73299e+07)
(1.05497e+08 -1.54693e+06 5.21433e-09 2.57409e+07 -2.50981e-08 9.71668e+07)
(1.05806e+08 -3.79985e+06 2.76392e-09 2.71254e+07 -2.51638e-08 9.88536e+07)
(1.12268e+08 -1.71606e+06 -8.63172e-09 2.85478e+07 2.41391e-08 9.85591e+07)
(1.12564e+08 -3.74917e+06 -2.18637e-08 2.99277e+07 -3.3775e-08 1.00033e+08)
(1.18709e+08 -1.88056e+06 -4.17531e-08 3.13778e+07 -9.9139e-09 9.95641e+07)
(1.1898e+08 -3.6748e+06 -4.04162e-08 3.27504e+07 -1.07474e-08 1.0081e+08)
(1.24814e+08 -2.04055e+06 -3.80996e-08 3.42132e+07 -3.19572e-08 1.00167e+08)
(1.25048e+08 -3.57e+06 -1.36228e-08 3.55761e+07 2.101e-08 1.01173e+08)
(1.30576e+08 -2.19379e+06 0 3.70335e+07 0 1.00355e+08)
(1.30761e+08 -3.42777e+06 3.19868e-09 3.83831e+07 1.92708e-08 1.01113e+08)
(1.3598e+08 -2.33836e+06 6.09719e-08 3.98144e+07 -1.36564e-08 1.00087e+08)
(1.36098e+08 -3.24002e+06 4.16327e-08 4.11458e+07 -3.4729e-08 1.0058e+08)
(1.41013e+08 -2.46876e+06 -2.56746e-08 4.25249e+07 1.73889e-08 9.93772e+07)
(1.41048e+08 -2.99907e+06 -6.12661e-08 4.38325e+07 -1.44318e-08 9.95902e+07)
(1.45655e+08 -2.57966e+06 -7.993e-08 4.51322e+07 1.00334e-08 9.81893e+07)
(1.45586e+08 -2.69628e+06 -1.89938e-08 4.64061e+07 3.87952e-08 9.81221e+07)
(1.4989e+08 -2.66662e+06 6.50624e-08 4.75976e+07 -2.78138e-08 9.6541e+07)
(1.49698e+08 -2.32419e+06 4.77246e-08 4.88244e+07 -1.34651e-08 9.61979e+07)
(1.53698e+08 -2.72014e+06 2.7051e-08 4.9877e+07 1.80502e-08 9.44601e+07)
(1.5337e+08 -1.87898e+06 5.70159e-09 5.10404e+07 1.2956e-08 9.38614e+07)
(1.57062e+08 -2.73438e+06 6.89266e-08 5.19246e+07 6.13783e-09 9.19718e+07)
(1.56595e+08 -1.36252e+06 7.72712e-09 5.3006e+07 -2.38263e-08 9.11393e+07)
(1.59968e+08 -2.70072e+06 -1.17185e-07 5.36931e+07 2.03046e-09 8.91789e+07)
(1.59366e+08 -779509 -9.75315e-08 5.46727e+07 -1.31247e-08 8.81359e+07)
(1.62411e+08 -2.61525e+06 -1.14698e-07 5.51378e+07 -1.95698e-08 8.61067e+07)
(1.61675e+08 -135058 -9.74912e-09 5.59937e+07 1.664e-08 8.48897e+07)
(1.64389e+08 -2.47183e+06 1.33881e-07 5.62165e+07 1.68058e-09 8.28548e+07)
(1.63542e+08 556595 4.44547e-08 5.69269e+07 -3.69389e-09 8.1499e+07)
(1.659e+08 -2.26286e+06 9.00203e-08 5.6894e+07 6.7705e-09 7.94934e+07)
(1.64948e+08 1.28814e+06 6.71367e-08 5.74311e+07 1.55402e-08 7.80592e+07)
(1.66982e+08 -1.97541e+06 1.34784e-07 5.71456e+07 1.59215e-08 7.60764e+07)
(1.65959e+08 2.03865e+06 1.60017e-07 5.74694e+07 2.80066e-08 7.46192e+07)
(1.67552e+08 -1.57669e+06 2.09804e-07 5.69614e+07 5.66385e-09 7.27443e+07)
(1.66533e+08 2.76884e+06 2.61343e-07 5.7008e+07 4.22067e-08 7.12458e+07)
(1.67537e+08 -1.0815e+06 1.29861e-07 5.63647e+07 2.18582e-08 6.92469e+07)
(1.66383e+08 3.53292e+06 -8.70194e-09 5.59948e+07 -4.25021e-09 6.77078e+07)
(1.64517e+08 -523526 -4.26839e-08 5.53841e+07 -6.83508e-09 6.68029e+07)
(1.64137e+08 3.93608e+06 3.45953e-08 5.45669e+07 5.94195e-09 6.42785e+07)
(1.58515e+08 -241098 -5.50121e-08 5.40181e+07 -4.00635e-10 6.49517e+07)
(1.57829e+08 4.4366e+06 -7.28352e-08 5.27985e+07 -9.78088e-09 6.26516e+07)
(-1.08792e+08 4.87903e+06 -1.7825e-08 -426711 -5.13462e-09 2.22172e+07)
(-1.05166e+08 1.53237e+06 -8.52968e-08 -839740 -2.91952e-08 2.23973e+07)
(-9.37957e+07 4.22927e+06 -7.64601e-08 -1.92226e+06 -2.7286e-08 2.36898e+07)
(-9.18983e+07 706645 -1.39653e-07 -1.5292e+06 -1.28308e-08 2.79813e+07)
(-7.94782e+07 3.59172e+06 -7.33233e-08 -3.28719e+06 -1.1202e-09 2.94388e+07)
(-7.78323e+07 -261901 -7.46068e-08 -1.9971e+06 -3.24083e-08 3.32796e+07)
(-6.55692e+07 2.86793e+06 6.65231e-08 -4.17496e+06 2.84203e-08 3.48351e+07)
(-6.41084e+07 -1.25239e+06 6.89875e-08 -2.23493e+06 3.35896e-08 3.82889e+07)
(-5.22738e+07 2.0385e+06 -1.64744e-08 -4.52225e+06 -2.95322e-08 4.00204e+07)
(-5.09206e+07 -2.22596e+06 -6.36696e-08 -2.18673e+06 -1.76836e-08 4.31723e+07)
(-3.94614e+07 1.15509e+06 -1.13562e-07 -4.41778e+06 -4.22327e-08 4.49816e+07)
(-3.81884e+07 -3.14931e+06 -1.57893e-07 -1.82372e+06 -3.5575e-08 4.79209e+07)
(-2.70371e+07 274685 -5.27425e-08 -3.94785e+06 8.62052e-09 4.97966e+07)
(-2.58521e+07 -3.99501e+06 -9.01203e-08 -1.14856e+06 -1.68453e-08 5.25605e+07)
(-1.49995e+07 -566400 -3.26185e-08 -3.16303e+06 2.39527e-08 5.4506e+07)
(-1.3903e+07 -4.74984e+06 -3.25774e-08 -182602 5.2474e-10 5.70807e+07)
(-3.37112e+06 -1.3534e+06 -2.85363e-08 -2.09304e+06 3.73757e-09 5.91013e+07)
(-2.35021e+06 -5.41325e+06 0 1.04596e+06 0 6.14602e+07)
(7.83321e+06 -2.08325e+06 0 -763010 0 6.35499e+07)
(8.79603e+06 -5.99225e+06 -5.46126e-10 2.509e+06 -2.188e-08 6.56758e+07)
(1.861e+07 -2.75802e+06 8.99328e-08 801266 3.49056e-08 6.78256e+07)
(1.95318e+07 -6.49676e+06 6.94671e-08 4.18096e+06 2.6796e-08 6.97134e+07)
(2.89648e+07 -3.38134e+06 3.55784e-08 2.57357e+06 -5.9444e-08 7.19163e+07)
(2.98584e+07 -6.93669e+06 -1.7737e-08 6.03844e+06 2.60228e-08 7.35649e+07)
(3.89074e+07 -3.95627e+06 -2.55295e-08 4.52867e+06 -6.65723e-09 7.58129e+07)
(3.97832e+07 -7.32106e+06 -2.71471e-08 8.0597e+06 -3.50536e-08 7.72197e+07)
(4.84484e+07 -4.48621e+06 1.00667e-08 6.64432e+06 3.71977e-08 7.94841e+07)
(4.93155e+07 -7.65872e+06 2.18432e-08 1.02254e+07 1.10332e-08 8.06529e+07)
(5.76014e+07 -4.97582e+06 -2.9924e-08 8.90107e+06 -9.29173e-08 8.29139e+07)
(5.84668e+07 -7.95662e+06 -3.54672e-08 1.25185e+07 -2.05555e-08 8.38548e+07)
(6.63824e+07 -5.4292e+06 -1.92716e-08 1.12812e+07 2.72485e-08 8.61045e+07)
(6.7249e+07 -8.21902e+06 -6.31095e-09 1.49226e+07 -1.39477e-08 8.68192e+07)
(7.48043e+07 -5.84931e+06 -7.84194e-09 1.37694e+07 3.86427e-08 8.90338e+07)
(7.56729e+07 -8.44931e+06 4.86551e-09 1.74226e+07 -4.59675e-09 8.95244e+07)
(8.28776e+07 -6.2399e+06 1.13987e-08 1.63526e+07 2.1865e-08 9.16686e+07)
(8.37453e+07 -8.64778e+06 3.37641e-09 2.00037e+07 1.2769e-08 9.1943e+07)
(9.06139e+07 -6.60354e+06 2.66971e-09 1.90166e+07 -4.06161e-09 9.4006e+07)
(9.14718e+07 -8.81158e+06 7.17244e-09 2.26505e+07 5.7748e-08 9.40673e+07)
(9.80191e+07 -6.93906e+06 -6.31661e-10 2.17456e+07 -2.85039e-08 9.60245e+07)
(9.88551e+07 -8.93721e+06 -2.07975e-09 2.53469e+07 -5.74631e-08 9.58735e+07)
(1.05095e+08 -7.24589e+06 0 2.45253e+07 0 9.76824e+07)
(1.05892e+08 -9.01742e+06 8.05845e-09 2.80754e+07 2.69291e-08 9.73249e+07)
(1.11845e+08 -7.52257e+06 1.54879e-08 2.73387e+07 6.65414e-09 9.89714e+07)
(1.12576e+08 -9.04112e+06 9.79394e-09 3.08153e+07 -4.34527e-09 9.84044e+07)
(1.18263e+08 -7.76064e+06 1.39057e-08 3.01637e+07 2.96526e-08 9.98508e+07)
(1.189e+08 -8.99807e+06 -4.51339e-09 3.35443e+07 -2.03447e-08 9.90802e+07)
(1.2434e+08 -7.95328e+06 -5.93313e-09 3.29782e+07 -4.87984e-08 1.00287e+08)
(1.2485e+08 -8.87441e+06 2.28353e-08 3.62373e+07 1.77084e-08 9.93194e+07)
(1.3007e+08 -8.0898e+06 6.91055e-08 3.57547e+07 -4.1614e-09 1.00282e+08)
(1.30411e+08 -8.65495e+06 2.6221e-08 3.88657e+07 -4.99417e-08 9.91103e+07)
(1.3543e+08 -8.15303e+06 5.6052e-09 3.84618e+07 4.24709e-08 9.97878e+07)
(1.35565e+08 -8.32462e+06 -1.26644e-08 4.13983e+07 3.33739e-08 9.84264e+07)
(1.40411e+08 -8.13129e+06 4.98067e-08 4.10673e+07 -6.7066e-09 9.88091e+07)
(1.40293e+08 -7.8655e+06 4.50477e-08 4.37996e+07 -2.58133e-08 9.72722e+07)
(1.44993e+08 -8.00502e+06 1.61288e-08 4.35324e+07 2.64977e-08 9.73434e+07)
(1.44579e+08 -7.26596e+06 -1.77029e-08 4.60338e+07 2.48741e-08 9.56589e+07)
(1.49152e+08 -7.75583e+06 4.26186e-08 4.58178e+07 -6.57219e-09 9.54056e+07)
(1.48415e+08 -6.51726e+06 1.20874e-07 4.80652e+07 3.17096e-08 9.36023e+07)
(1.52876e+08 -7.36693e+06 1.3871e-07 4.78837e+07 2.63933e-08 9.30668e+07)
(1.51796e+08 -5.61688e+06 1.40859e-07 4.986e+07 2.54378e-08 9.11735e+07)
(1.56143e+08 -6.8259e+06 4.23292e-08 4.9695e+07 4.59652e-08 9.03559e+07)
(1.54721e+08 -4.56446e+06 -8.26202e-08 5.13839e+07 -3.30051e-08 8.84075e+07)
(1.5895e+08 -6.12645e+06 -6.21057e-08 5.12198e+07 -2.52769e-08 8.73666e+07)
(1.57193e+08 -3.366e+06 -6.6987e-08 5.26042e+07 -1.35645e-08 8.54074e+07)
(1.61287e+08 -5.26695e+06 0 5.24328e+07 0 8.41542e+07)
(1.59227e+08 -2.0365e+06 2.25707e-08 5.34938e+07 1.87979e-08 8.22414e+07)
(1.63151e+08 -4.2529e+06 1.26217e-07 5.33179e+07 2.8333e-08 8.0822e+07)
(1.60852e+08 -597392 1.57603e-07 5.40292e+07 4.40293e-08 7.89964e+07)
(1.64525e+08 -3.09793e+06 2.65263e-08 5.38674e+07 1.63879e-08 7.74549e+07)
(1.62049e+08 931328 -1.00118e-07 5.41933e+07 -4.56119e-08 7.57834e+07)
(1.65409e+08 -1.8197e+06 -1.73232e-07 5.40821e+07 -5.26809e-08 7.41458e+07)
(1.62897e+08 2.52081e+06 -1.45498e-07 5.39731e+07 -4.5101e-08 7.26607e+07)
(1.65829e+08 -456765 -8.31455e-08 5.39719e+07 -2.70353e-08 7.09632e+07)
(1.63421e+08 4.11298e+06 1.16491e-08 5.3365e+07 6.34066e-09 6.9671e+07)
(1.6582e+08 965917 1.3864e-07 5.35459e+07 3.91639e-08 6.76442e+07)
(1.63428e+08 5.61199e+06 -1.53148e-08 5.24335e+07 -8.12702e-09 6.656e+07)
(1.63643e+08 2.49156e+06 -1.97117e-08 5.28115e+07 -3.31327e-09 6.50315e+07)
(1.62034e+08 6.73245e+06 -2.07198e-08 5.12e+07 -4.85542e-09 6.32584e+07)
(1.5818e+08 3.56816e+06 8.69129e-08 5.18478e+07 2.22144e-08 6.32264e+07)
(1.56291e+08 7.67306e+06 3.93783e-08 4.97836e+07 1.20902e-08 6.15801e+07)
(-1.0817e+08 7.16688e+06 8.42284e-08 -1.07246e+06 5.27673e-09 2.25207e+07)
(-1.0513e+08 3.23275e+06 1.56391e-08 -472016 1.45428e-08 2.26557e+07)
(-9.32073e+07 6.38821e+06 2.0194e-07 -2.39217e+06 4.26553e-08 2.44154e+07)
(-9.11425e+07 1.97352e+06 7.86596e-08 -1.17197e+06 2.80931e-08 2.8192e+07)
(-7.87845e+07 5.05644e+06 6.26868e-08 -3.02575e+06 -5.91747e-09 3.01773e+07)
(-7.66499e+07 434383 -1.18754e-07 -1.51614e+06 -6.24108e-09 3.37118e+07)
(-6.4735e+07 3.50585e+06 -1.79744e-07 -3.28943e+06 -6.72793e-08 3.54214e+07)
(-6.28235e+07 -1.11964e+06 -1.87671e-07 -1.51763e+06 -6.30225e-08 3.88478e+07)
(-5.13894e+07 1.95815e+06 -1.69832e-07 -3.2525e+06 -4.79561e-08 4.04971e+07)
(-4.96638e+07 -2.60168e+06 -1.6882e-07 -1.21779e+06 -7.75869e-08 4.37672e+07)
(-3.86249e+07 468448 -4.25297e-09 -2.91219e+06 1.89551e-08 4.54229e+07)
(-3.69952e+07 -3.99532e+06 4.21399e-08 -645099 6.42813e-09 4.85067e+07)
(-2.63092e+07 -956577 0 -2.27305e+06 0 5.02192e+07)
(-2.474e+07 -5.29366e+06 -3.76792e-08 185051 -5.21578e-09 5.31183e+07)
(-1.44032e+07 -2.309e+06 1.08675e-08 -1.35563e+06 3.70985e-08 5.48951e+07)
(-1.28898e+07 -6.48873e+06 1.26328e-08 1.26041e+06 3.94926e-08 5.7604e+07)
(-2.90773e+06 -3.57755e+06 -4.03872e-08 -185932 -3.90179e-08 5.94381e+07)
(-1.45018e+06 -7.57562e+06 -7.15101e-08 2.56624e+06 -4.62665e-08 6.19453e+07)
(8.17204e+06 -4.75491e+06 1.09123e-08 1.21246e+06 3.84926e-08 6.38345e+07)
(9.57894e+06 -8.55634e+06 1.31736e-08 4.08521e+06 1.85221e-08 6.61284e+07)
(1.88358e+07 -5.83991e+06 4.46544e-08 2.81939e+06 5.36189e-08 6.80612e+07)
(2.02008e+07 -9.43711e+06 4.67508e-08 5.79833e+06 3.77451e-08 7.01265e+07)
(2.90879e+07 -6.83603e+06 6.78126e-08 4.61647e+06 -1.29213e-08 7.20959e+07)
(3.04224e+07 -1.0227e+07 3.01442e-08 7.68672e+06 1.84125e-08 7.39274e+07)
(3.89378e+07 -7.75001e+06 1.54337e-08 6.58624e+06 -2.63229e-08 7.59334e+07)
(4.02525e+07 -1.0935e+07 1.57485e-08 9.73214e+06 -5.63561e-11 7.75291e+07)
(4.83973e+07 -8.58906e+06 9.68581e-09 8.71141e+06 3.87928e-08 7.95655e+07)
(4.97013e+07 -1.157e+07 3.44825e-08 1.19169e+07 1.56431e-08 8.09235e+07)
(5.74777e+07 -9.35996e+06 2.87351e-08 1.09757e+07 -3.34867e-08 8.29618e+07)
(5.87771e+07 -1.2138e+07 -8.25978e-09 1.42235e+07 2.43763e-08 8.4079e+07)
(6.6192e+07 -1.00703e+07 2.56686e-08 1.33648e+07 5.62164e-08 8.60961e+07)
(6.74889e+07 -1.26429e+07 -7.48845e-10 1.66344e+07 1.71964e-08 8.69809e+07)
(7.45538e+07 -1.07266e+07 -5.85396e-09 1.58633e+07 -6.55171e-08 8.89635e+07)
(7.58435e+07 -1.30857e+07 -5.82625e-09 1.91312e+07 -6.29639e-08 8.96218e+07)
(8.25708e+07 -1.13298e+07 -5.8465e-09 1.84522e+07 -2.06352e-08 9.15342e+07)
(8.3842e+07 -1.34636e+07 4.39242e-09 2.16943e+07 4.77506e-08 9.19656e+07)
(9.02472e+07 -1.18788e+07 2.07698e-09 2.11123e+07 2.5862e-08 9.37698e+07)
(9.14844e+07 -1.37708e+07 -4.95452e-09 2.43028e+07 -3.04796e-08 9.39816e+07)
(9.75899e+07 -1.23747e+07 0 2.38255e+07 0 9.56542e+07)
(9.87679e+07 -1.39984e+07 -2.96125e-09 2.69333e+07 -3.06403e-09 9.56562e+07)
(1.04599e+08 -1.28117e+07 3.57555e-10 2.65675e+07 5.48217e-08 9.71508e+07)
(1.05682e+08 -1.41334e+07 -7.2944e-09 2.95599e+07 3.69782e-08 9.69432e+07)
(1.11264e+08 -1.31776e+07 -1.54142e-08 2.93092e+07 -8.35184e-08 9.82169e+07)
(1.12215e+08 -1.41608e+07 1.45061e-08 3.21554e+07 -3.27463e-08 9.78083e+07)
(1.17584e+08 -1.34628e+07 2.70646e-08 3.20217e+07 3.32844e-08 9.88396e+07)
(1.18354e+08 -1.40636e+07 2.71645e-08 3.46898e+07 2.93552e-08 9.82332e+07)
(1.23541e+08 -1.36497e+07 5.44325e-09 3.46703e+07 -5.66854e-09 9.89749e+07)
(1.2408e+08 -1.38229e+07 3.09309e-08 3.71313e+07 3.8766e-09 9.81729e+07)
(1.29117e+08 -1.37179e+07 -1.96673e-08 3.72171e+07 5.26515e-09 9.86065e+07)
(1.29376e+08 -1.34189e+07 3.00422e-08 3.94467e+07 1.31107e-08 9.76213e+07)
(1.34302e+08 -1.36478e+07 -1.85524e-09 3.96232e+07 -2.12065e-08 9.77436e+07)
(1.34224e+08 -1.2833e+07 -1.03662e-08 4.16021e+07 -3.76234e-08 9.65861e+07)
(1.3907e+08 -1.34114e+07 -1.32679e-08 4.18453e+07 -3.57603e-08 9.63767e+07)
(1.38608e+08 -1.20507e+07 7.22783e-08 4.35664e+07 4.73301e-08 9.50545e+07)
(1.43405e+08 -1.29862e+07 8.39713e-08 4.38439e+07 6.82413e-08 9.45528e+07)
(1.42526e+08 -1.10647e+07 -6.79574e-08 4.5312e+07 -4.95066e-08 9.3074e+07)
(1.47285e+08 -1.23499e+07 -1.27324e-07 4.55834e+07 -4.82593e-08 9.23068e+07)
(1.45976e+08 -9.87132e+06 -1.02342e-07 4.68144e+07 -3.81746e-08 9.0689e+07)
(1.50709e+08 -1.14913e+07 -1.38592e-07 4.70369e+07 -6.51669e-08 8.97229e+07)
(1.48964e+08 -8.47293e+06 -5.5515e-08 4.80526e+07 -1.6507e-08 8.79807e+07)
(1.53666e+08 -1.04018e+07 -2.80331e-09 4.81862e+07 6.83497e-09 8.68638e+07)
(1.51506e+08 -6.88021e+06 -4.18443e-09 4.90115e+07 5.37029e-09 8.50333e+07)
(1.56163e+08 -9.0853e+06 4.2195e-09 4.90259e+07 -4.2459e-09 8.38322e+07)
(1.53628e+08 -5.11534e+06 1.54927e-07 4.96847e+07 7.67071e-08 8.1942e+07)
(1.58206e+08 -7.55625e+06 7.21071e-08 4.9564e+07 3.35524e-08 8.07048e+07)
(1.55347e+08 -3.20088e+06 3.84616e-08 5.00693e+07 1.51021e-08 7.88035e+07)
(1.59811e+08 -5.83585e+06 -6.65476e-08 4.98187e+07 -2.92604e-08 7.75618e+07)
(1.56707e+08 -1.16676e+06 -1.52878e-08 5.0167e+07 -9.07156e-09 7.56851e+07)
(1.60974e+08 -3.95407e+06 -1.70816e-08 4.98157e+07 -8.98297e-09 7.44781e+07)
(1.57689e+08 960740 0 4.99827e+07 0 7.26944e+07)
(1.61742e+08 -1.94641e+06 4.65394e-08 4.95846e+07 1.85758e-08 7.149e+07)
(1.5836e+08 3.15616e+06 6.1489e-08 4.95201e+07 2.96194e-08 6.9875e+07)
(1.62116e+08 148617 1.14183e-07 4.91556e+07 4.74659e-08 6.86805e+07)
(1.58759e+08 5.38821e+06 1.4076e-07 4.87718e+07 6.85491e-08 6.72627e+07)
(1.62104e+08 2.30284e+06 1.33664e-07 4.85509e+07 5.77681e-08 6.59083e+07)
(1.58887e+08 7.54389e+06 3.78197e-08 4.77426e+07 1.69111e-08 6.46445e+07)
(1.61311e+08 4.43164e+06 -6.8027e-08 4.78064e+07 -2.89795e-08 6.28429e+07)
(1.5827e+08 9.35773e+06 6.57935e-08 4.64364e+07 3.30522e-08 6.15682e+07)
(1.56598e+08 6.57284e+06 8.31656e-08 4.69006e+07 3.46848e-08 6.13809e+07)
(1.54483e+08 1.04353e+07 1.25751e-07 4.51207e+07 5.92224e-08 5.9437e+07)
(-1.07744e+08 9.25652e+06 -1.47111e-07 -1.01301e+06 -1.88816e-09 2.25032e+07)
(-1.04159e+08 4.66023e+06 6.10788e-08 -839758 3.45187e-08 2.28405e+07)
(-9.19416e+07 7.51528e+06 -2.05726e-07 -2.21115e+06 -6.79724e-08 2.41648e+07)
(-8.98858e+07 2.77801e+06 -2.70198e-09 -1.21366e+06 -3.46039e-08 2.85625e+07)
(-7.71748e+07 5.64675e+06 6.15388e-08 -2.76797e+06 8.1468e-08 3.02945e+07)
(-7.51761e+07 733408 1.95052e-07 -1.27564e+06 1.07831e-07 3.4193e+07)
(-6.31138e+07 3.63961e+06 6.08609e-08 -2.83353e+06 -3.97989e-08 3.57806e+07)
(-6.12662e+07 -1.29942e+06 1.02247e-07 -1.05197e+06 -8.9908e-09 3.93553e+07)
(-4.98681e+07 1.61383e+06 5.20663e-08 -2.52512e+06 4.85306e-08 4.09415e+07)
(-4.81225e+07 -3.25497e+06 4.76592e-08 -553651 7.23352e-08 4.42792e+07)
(-3.72329e+07 -364339 -7.73825e-09 -1.91718e+06 1.98217e-08 4.58857e+07)
(-3.55311e+07 -5.10665e+06 5.58504e-08 204443 -2.78642e-08 4.90188e+07)
(-2.50653e+07 -2.26255e+06 7.18794e-09 -1.04936e+06 -8.11124e-08 5.06827e+07)
(-2.33885e+07 -6.83944e+06 -1.87857e-08 1.20347e+06 -1.13756e-09 5.36178e+07)
(-1.3325e+07 -4.06163e+06 -1.55585e-07 53825.9 -2.49169e-08 5.53455e+07)
(-1.16698e+07 -8.44549e+06 -9.07564e-09 2.4251e+06 -4.27807e-08 5.80704e+07)
(-2.00439e+06 -5.75087e+06 4.58072e-08 1.37327e+06 8.74057e-08 5.986e+07)
(-370391 -9.92328e+06 1.16328e-07 3.85334e+06 6.5007e-08 6.23615e+07)
(8.9019e+06 -7.32547e+06 4.13772e-08 2.8919e+06 -3.14436e-10 6.4215e+07)
(1.05152e+07 -1.1275e+07 6.48517e-08 5.47251e+06 3.35831e-08 6.64797e+07)
(1.94011e+07 -8.78484e+06 -1.17721e-08 4.59374e+06 1.41167e-08 6.84007e+07)
(2.09968e+07 -1.25069e+07 -1.2444e-08 7.26732e+06 3.79504e-08 7.04239e+07)
(2.95024e+07 -1.01321e+07 -1.93848e-08 6.46411e+06 -2.69716e-09 7.24022e+07)
(3.10839e+07 -1.36257e+07 -3.88323e-08 9.22155e+06 1.42725e-08 7.41748e+07)
(3.92152e+07 -1.1373e+07 -2.75861e-10 8.48939e+06 2.42853e-08 7.61939e+07)
(4.07867e+07 -1.46382e+07 -3.16306e-08 1.13181e+07 -6.95732e-09 7.77078e+07)
(4.85499e+07 -1.25152e+07 -4.44951e-08 1.06572e+07 -8.36703e-08 7.97575e+07)
(5.01151e+07 -1.55505e+07 -3.1259e-08 1.35386e+07 -6.36272e-08 8.10147e+07)
(5.75185e+07 -1.35677e+07 1.05819e-08 1.29547e+07 6.46365e-08 8.30832e+07)
(5.90764e+07 -1.63666e+07 2.53447e-08 1.5864e+07 -7.80338e-10 8.40926e+07)
(6.61313e+07 -1.45359e+07 3.91974e-09 1.53644e+07 -9.58825e-09 8.61447e+07)
(6.76713e+07 -1.70857e+07 1.15284e-08 1.82731e+07 6.32771e-08 8.6902e+07)
(7.43921e+07 -1.54192e+07 -9.83312e-09 1.78645e+07 -1.34575e-08 8.88989e+07)
(7.59004e+07 -1.77025e+07 -1.26027e-08 2.07414e+07 -3.99852e-08 8.94021e+07)
(8.23049e+07 -1.62173e+07 -8.24452e-09 2.04344e+07 -3.7248e-08 9.13173e+07)
(8.37637e+07 -1.82116e+07 -9.413e-09 2.32434e+07 -3.7983e-08 9.15882e+07)
(8.9877e+07 -1.69302e+07 7.9287e-09 2.30517e+07 3.58465e-08 9.33793e+07)
(9.12519e+07 -1.86018e+07 1.25769e-08 2.57513e+07 5.82172e-08 9.34259e+07)
(9.71036e+07 -1.75473e+07 -2.31226e-09 2.56854e+07 -4.02384e-08 9.50285e+07)
(9.83509e+07 -1.88562e+07 9.49199e-09 2.82333e+07 -2.19656e-08 9.48433e+07)
(1.03973e+08 -1.80527e+07 2.9953e-08 2.8301e+07 -3.06225e-09 9.62231e+07)
(1.05051e+08 -1.89596e+07 2.40239e-10 3.06575e+07 -4.17637e-08 9.5829e+07)
(1.10481e+08 -1.84341e+07 1.03443e-08 3.08649e+07 -4.19425e-09 9.6947e+07)
(1.11334e+08 -1.88926e+07 -6.27368e-09 3.29904e+07 -3.0054e-08 9.63523e+07)
(1.16609e+08 -1.86692e+07 1.56316e-08 3.33367e+07 -1.67835e-08 9.71562e+07)
(1.1718e+08 -1.86337e+07 3.64112e-08 3.5197e+07 2.06362e-08 9.63639e+07)
(1.22339e+08 -1.87338e+07 5.12305e-08 3.56735e+07 5.24884e-08 9.68431e+07)
(1.22574e+08 -1.81653e+07 -2.51215e-08 3.72442e+07 -2.45983e-08 9.58692e+07)
(1.27651e+08 -1.86032e+07 -1.72938e-08 3.78322e+07 1.68031e-08 9.60033e+07)
(1.27494e+08 -1.74678e+07 -1.85044e-08 3.91004e+07 1.70112e-08 9.48499e+07)
(1.3252e+08 -1.82473e+07 -2.07731e-08 3.97669e+07 -3.60218e-08 9.46564e+07)
(1.31933e+08 -1.65297e+07 4.76126e-08 4.07386e+07 1.8209e-08 9.33285e+07)
(1.36931e+08 -1.76436e+07 -5.54458e-09 4.14402e+07 5.4281e-09 9.285e+07)
(1.35889e+08 -1.53471e+07 3.69175e-08 4.2139e+07 2.69399e-08 9.13635e+07)
(1.40867e+08 -1.67743e+07 6.15267e-08 4.28217e+07 2.87711e-08 9.06536e+07)
(1.39368e+08 -1.39202e+07 2.04033e-08 4.32864e+07 2.82908e-09 8.90118e+07)
(1.44327e+08 -1.5631e+07 2.66633e-08 4.38922e+07 1.41515e-08 8.8157e+07)
(1.42385e+08 -1.226e+07 4.37462e-08 4.41737e+07 2.85888e-08 8.63839e+07)
(1.47314e+08 -1.42178e+07 -5.63907e-09 4.46486e+07 3.35671e-09 8.54472e+07)
(1.44965e+08 -1.03863e+07 -6.26908e-08 4.48036e+07 -3.77799e-08 8.35513e+07)
(1.49842e+08 -1.25482e+07 -1.00527e-07 4.51025e+07 -5.60005e-08 8.26259e+07)
(1.4714e+08 -8.32698e+06 -1.56915e-07 4.51873e+07 -9.47131e-08 8.06377e+07)
(1.5194e+08 -1.06525e+07 -7.40327e-08 4.52807e+07 -4.13986e-08 7.97696e+07)
(1.48945e+08 -6.11322e+06 1.00717e-07 4.53406e+07 6.02953e-08 7.77058e+07)
(1.53628e+08 -8.56438e+06 1.43366e-07 4.52194e+07 7.98939e-08 7.69481e+07)
(1.504e+08 -3.77491e+06 3.54181e-08 4.52823e+07 2.35464e-08 7.48486e+07)
(1.54942e+08 -6.32058e+06 7.19915e-08 4.49603e+07 4.18733e-08 7.41958e+07)
(1.51545e+08 -1.34163e+06 5.67892e-08 4.50309e+07 3.56122e-08 7.20879e+07)
(1.55889e+08 -3.95977e+06 5.49859e-08 4.45465e+07 2.94156e-08 7.15423e+07)
(1.52353e+08 1.16702e+06 0 4.4601e+07 0 6.94949e+07)
(1.56531e+08 -1.52078e+06 7.94278e-09 4.40181e+07 6.12444e-09 6.89699e+07)
(1.52898e+08 3.72029e+06 7.76542e-08 4.40108e+07 4.65365e-08 6.70499e+07)
(1.5685e+08 971395 1.3843e-07 4.34098e+07 7.83853e-08 6.65423e+07)
(1.53187e+08 6.30813e+06 1.54243e-07 4.32681e+07 9.71178e-08 6.48027e+07)
(1.57034e+08 3.4608e+06 -7.23043e-09 4.27529e+07 -7.34167e-09 6.40265e+07)
(1.53344e+08 8.85872e+06 -2.11028e-07 4.23674e+07 -1.27633e-07 6.25362e+07)
(1.56728e+08 5.9795e+06 -2.36726e-07 4.20647e+07 -1.29994e-07 6.12475e+07)
(1.52926e+08 1.13337e+07 -1.64538e-07 4.12009e+07 -1.01989e-07 6.01925e+07)
(1.54425e+08 8.46393e+06 -8.64862e-08 4.13784e+07 -4.7252e-08 5.88034e+07)
(1.51868e+08 1.26413e+07 5.68603e-08 4.0034e+07 3.38934e-08 5.70061e+07)
(-1.063e+08 1.12751e+07 1.53005e-07 -1.35851e+06 2.72679e-09 2.28002e+07)
(-1.02422e+08 6.07316e+06 -1.32898e-07 -1.0646e+06 -7.14689e-08 2.31046e+07)
(-9.0263e+07 8.63749e+06 9.38551e-08 -2.30213e+06 -2.80381e-08 2.43851e+07)
(-8.80033e+07 3.49852e+06 -9.12925e-08 -1.29977e+06 -3.17696e-08 2.89269e+07)
(-7.52452e+07 6.05395e+06 -1.54166e-07 -2.62638e+06 -7.59591e-09 3.05336e+07)
(-7.32265e+07 839925 -7.52445e-08 -1.16689e+06 -4.73979e-09 3.46813e+07)
(-6.11082e+07 3.47914e+06 4.58598e-08 -2.48192e+06 -2.24409e-09 3.60522e+07)
(-5.93484e+07 -1.72064e+06 -5.40427e-08 -729623 -6.49671e-08 3.98791e+07)
(-4.79198e+07 981162 4.98896e-08 -1.96813e+06 1.7193e-08 4.12314e+07)
(-4.62912e+07 -4.14804e+06 6.08548e-08 -26885.3 -1.3109e-09 4.47882e+07)
(-3.54158e+07 -1.4232e+06 1.1234e-08 -1.1537e+06 -2.09182e-08 4.61778e+07)
(-3.38203e+07 -6.43757e+06 -9.3209e-09 917299 2.08789e-08 4.94856e+07)
(-2.34188e+07 -3.72382e+06 7.00907e-08 -86946 4.87887e-08 5.09591e+07)
(-2.18222e+07 -8.58347e+06 7.89756e-09 2.08442e+06 -2.14782e-08 5.40315e+07)
(-1.18686e+07 -5.90821e+06 7.87413e-08 1.19821e+06 1.46653e-09 5.56007e+07)
(-1.02636e+07 -1.05804e+07 0 3.45736e+06 0 5.84346e+07)
(-746178 -7.9667e+06 4.41753e-09 2.67741e+06 4.40644e-08 6.00924e+07)
(867550 -1.24268e+07 7.3524e-08 5.01914e+06 4.81266e-08 6.26755e+07)
(9.96136e+06 -9.89404e+06 3.21324e-08 4.33231e+06 -1.43758e-08 6.44121e+07)
(1.15834e+07 -1.41257e+07 6.13247e-08 6.75357e+06 -2.42262e-08 6.67329e+07)
(2.02673e+07 -1.16895e+07 6.7118e-08 6.14897e+06 5.60161e-08 6.85424e+07)
(2.18972e+07 -1.56821e+07 8.79348e-08 8.64384e+06 9.7175e-08 7.05891e+07)
(3.01844e+07 -1.33563e+07 5.65068e-08 8.11617e+06 7.67319e-08 7.247e+07)
(3.18218e+07 -1.71023e+07 7.834e-08 1.06732e+07 6.95482e-08 7.42434e+07)
(3.97255e+07 -1.49004e+07 5.07197e-08 1.02235e+07 4.93493e-08 7.61844e+07)
(4.13666e+07 -1.83912e+07 3.40358e-08 1.28238e+07 9.69365e-08 7.76932e+07)
(4.89023e+07 -1.63278e+07 -1.6886e-08 1.24574e+07 -8.52386e-08 7.96632e+07)
(5.05348e+07 -1.95485e+07 -4.2993e-08 1.50747e+07 -7.73731e-08 8.09064e+07)
(5.77208e+07 -1.76391e+07 -3.73674e-08 1.4799e+07 -2.89733e-08 8.28645e+07)
(5.9327e+07 -2.05696e+07 -7.54873e-09 1.73997e+07 -2.01482e-08 8.38335e+07)
(6.61809e+07 -1.88318e+07 -4.32557e-09 1.72258e+07 2.11429e-08 8.57465e+07)
(6.7745e+07 -2.14503e+07 6.39678e-09 1.97716e+07 4.19742e-09 8.64591e+07)
(7.42872e+07 -1.99057e+07 0 1.97159e+07 0 8.82923e+07)
(7.57838e+07 -2.21828e+07 -6.13315e-10 2.21623e+07 -1.91227e-08 8.87692e+07)
(8.20435e+07 -2.08571e+07 1.69872e-08 2.22414e+07 5.54228e-08 9.04602e+07)
(8.3428e+07 -2.27501e+07 1.44995e-08 2.45373e+07 5.93633e-08 9.06943e+07)
(8.94397e+07 -2.16706e+07 -8.4416e-09 2.47651e+07 -2.28336e-08 9.21851e+07)
(9.06667e+07 -2.31352e+07 0 2.686e+07 0 9.21808e+07)
(9.64621e+07 -2.23281e+07 -4.56421e-09 2.72473e+07 -1.28322e-09 9.34346e+07)
(9.74889e+07 -2.33236e+07 1.31552e-08 2.90964e+07 2.13254e-08 9.32171e+07)
(1.03105e+08 -2.28144e+07 -4.58409e-09 2.96491e+07 -6.67898e-08 9.41835e+07)
(1.03869e+08 -2.32924e+07 1.4837e-08 3.12087e+07 -4.71509e-08 9.37494e+07)
(1.09347e+08 -2.31037e+07 3.39773e-08 3.19236e+07 4.51311e-08 9.43859e+07)
(1.09791e+08 -2.30213e+07 -1.10911e-08 3.31601e+07 -1.90736e-08 9.37443e+07)
(1.15167e+08 -2.31684e+07 -4.68e-08 3.40222e+07 6.28514e-09 9.40456e+07)
(1.15239e+08 -2.24942e+07 -3.49279e-08 3.49181e+07 1.23877e-08 9.3211e+07)
(1.20545e+08 -2.29814e+07 -3.19844e-08 3.58973e+07 -2.6514e-08 9.31708e+07)
(1.20195e+08 -2.16931e+07 -3.1294e-08 3.64512e+07 -2.5906e-08 9.21385e+07)
(1.25452e+08 -2.2512e+07 -1.57588e-08 3.75019e+07 8.33096e-09 9.1799e+07)
(1.24657e+08 -2.06141e+07 -7.14195e-08 3.77381e+07 -3.12576e-08 9.05785e+07)
(1.29876e+08 -2.17425e+07 -1.06204e-07 3.88025e+07 -5.37689e-08 8.99985e+07)
(1.28626e+08 -1.92569e+07 -2.06424e-08 3.87646e+07 -2.25483e-09 8.85991e+07)
(1.33808e+08 -2.06618e+07 -4.57553e-08 3.97764e+07 -2.9947e-08 8.78615e+07)
(1.32115e+08 -1.76317e+07 -2.46367e-08 3.95251e+07 -1.57478e-08 8.62855e+07)
(1.3725e+08 -1.92702e+07 1.74712e-08 4.04174e+07 9.47883e-09 8.54835e+07)
(1.35153e+08 -1.57606e+07 3.88539e-08 4.00262e+07 2.59197e-08 8.37521e+07)
(1.40223e+08 -1.75878e+07 5.26724e-08 4.07421e+07 3.21884e-08 8.29778e+07)
(1.37773e+08 -1.36753e+07 0 4.02859e+07 0 8.10994e+07)
(1.42747e+08 -1.56452e+07 8.51829e-08 4.07845e+07 5.8914e-08 8.04234e+07)
(1.40013e+08 -1.14125e+07 1.51502e-07 4.03306e+07 1.01906e-07 7.84215e+07)
(1.44867e+08 -1.34837e+07 1.38085e-07 4.05887e+07 8.01802e-08 7.79133e+07)
(1.41906e+08 -9.00759e+06 -9.87885e-08 4.01898e+07 -5.81843e-08 7.5815e+07)
(1.46619e+08 -1.11524e+07 -2.61306e-07 4.02066e+07 -1.79574e-07 7.54718e+07)
(1.43494e+08 -6.49913e+06 -1.0145e-07 3.98959e+07 -8.48531e-08 7.32961e+07)
(1.48028e+08 -8.69705e+06 -8.39938e-08 3.96901e+07 -4.12179e-08 7.3141e+07)
(1.44782e+08 -3.91438e+06 5.44768e-08 3.94788e+07 4.16594e-08 7.09222e+07)
(1.49142e+08 -6.15897e+06 2.32191e-08 3.90855e+07 1.13386e-08 7.08907e+07)
(1.45804e+08 -1.27816e+06 3.38959e-08 3.89651e+07 2.42743e-08 6.86546e+07)
(1.49962e+08 -3.57263e+06 0 3.84307e+07 0 6.87082e+07)
(1.46546e+08 1.38268e+06 1.98557e-08 3.83849e+07 1.03171e-08 6.64943e+07)
(1.50532e+08 -971592 6.64668e-08 3.77544e+07 5.03348e-08 6.65656e+07)
(1.47036e+08 4.05999e+06 4.73998e-08 3.77559e+07 4.3854e-08 6.4429e+07)
(1.5088e+08 1.62889e+06 -1.20483e-07 3.70807e+07 -8.75503e-08 6.44562e+07)
(1.47317e+08 6.7262e+06 -1.03832e-07 3.71059e+07 -7.9139e-08 6.24392e+07)
(1.51077e+08 4.18644e+06 -1.53522e-07 3.64308e+07 -1.08454e-07 6.23309e+07)