/*--------------------------------*- C++ -*----------------------------------*\
| =========                 |                                                 |
| \\      /  F ield         | OpenFOAM: The Open Source CFD Toolbox           |
|  \\    /   O peration     | Version:  v2012                                 |
|   \\  /    A nd           | Website:  www.openfoam.com                      |
|    \\/     M anipulation  |                                                 |
\*---------------------------------------------------------------------------*/
FoamFile
{
    version     2.0;
    format      ascii;
    class       volVectorField;
    location    "4";
    object      D_0;
}
// * * * * * * * * * * * * * * * * * * * * * * * * * * * * * * * * * * * * * //

dimensions      [0 1 0 0 0 0 0];


internalField   nonuniform List<vector> 
8000
(
(1.8083e-05 -0.000750901 0)
(3.5161e-05 -0.000754725 0)
(1.67688e-05 -0.000764223 0)
(3.3393e-05 -0.000767926 0)
(1.58507e-05 -0.000776264 0)
(3.18924e-05 -0.000779581 0)
(1.51546e-05 -0.000786957 0)
(3.06003e-05 -0.000789866 0)
(1.45702e-05 -0.000796514 0)
(2.94662e-05 -0.000799061 0)
(1.40543e-05 -0.000805147 0)
(2.84612e-05 -0.000807378 0)
(1.35947e-05 -0.000813007 0)
(2.75693e-05 -0.000814964 0)
(1.31865e-05 -0.000820215 0)
(2.67788e-05 -0.000821936 0)
(1.28254e-05 -0.000826869 0)
(2.60779e-05 -0.000828389 0)
(1.25063e-05 -0.000833059 0)
(2.54558e-05 -0.000834407 0)
(1.2224e-05 -0.000838859 0)
(2.49027e-05 -0.000840061 0)
(1.19738e-05 -0.000844334 0)
(2.44095e-05 -0.000845411 0)
(1.17513e-05 -0.000849537 0)
(2.39683e-05 -0.000850508 0)
(1.15525e-05 -0.000854516 0)
(2.35712e-05 -0.000855394 0)
(1.13729e-05 -0.000859309 0)
(2.321e-05 -0.000860106 0)
(1.12076e-05 -0.000863949 0)
(2.28756e-05 -0.000864674 0)
(1.1051e-05 -0.000868464 0)
(2.25579e-05 -0.000869125 0)
(1.09001e-05 -0.000872871 0)
(2.22485e-05 -0.000873481 0)
(1.07639e-05 -0.000877176 0)
(2.19435e-05 -0.000877763 0)
(1.06806e-05 -0.000881373 0)
(2.1645e-05 -0.000881986 0)
(7.41709e-05 -0.000748348 0)
(9.02072e-05 -0.000751406 0)
(6.9969e-05 -0.000761643 0)
(8.54681e-05 -0.000764469 0)
(6.64392e-05 -0.000773596 0)
(8.14207e-05 -0.000775973 0)
(6.34429e-05 -0.000784167 0)
(7.7955e-05 -0.000786107 0)
(6.08628e-05 -0.000793593 0)
(7.4953e-05 -0.000795144 0)
(5.86156e-05 -0.0008021 0)
(7.23249e-05 -0.000803302 0)
(5.66429e-05 -0.000809849 0)
(7.00091e-05 -0.000810735 0)
(5.49027e-05 -0.000816958 0)
(6.79615e-05 -0.000817564 0)
(5.33635e-05 -0.000823526 0)
(6.61475e-05 -0.000823886 0)
(5.20001e-05 -0.000829637 0)
(6.45382e-05 -0.000829782 0)
(5.07907e-05 -0.000835363 0)
(6.3108e-05 -0.00083532 0)
(4.97158e-05 -0.000840765 0)
(6.18341e-05 -0.000840559 0)
(4.87576e-05 -0.000845897 0)
(6.06955e-05 -0.000845547 0)
(4.79e-05 -0.000850803 0)
(5.96733e-05 -0.000850325 0)
(4.71286e-05 -0.000855519 0)
(5.87501e-05 -0.00085493 0)
(4.64312e-05 -0.000860078 0)
(5.79103e-05 -0.000859389 0)
(4.57986e-05 -0.000864503 0)
(5.71399e-05 -0.000863726 0)
(4.52256e-05 -0.000868819 0)
(5.6425e-05 -0.00086796 0)
(4.47134e-05 -0.000873042 0)
(5.57506e-05 -0.000872098 0)
(4.4271e-05 -0.000877181 0)
(5.50983e-05 -0.00087614 0)
(0.000129961 -0.000743973 0)
(0.000145034 -0.000746222 0)
(0.000123044 -0.000756737 0)
(0.000137632 -0.000758668 0)
(0.00011707 -0.000768238 0)
(0.000131212 -0.000769624 0)
(0.000111877 -0.000778428 0)
(0.000125641 -0.0007793 0)
(0.000107345 -0.000787524 0)
(0.000120785 -0.000787953 0)
(0.000103377 -0.000795735 0)
(0.000116531 -0.000795776 0)
(9.98907e-05 -0.000803216 0)
(0.000112787 -0.000802909 0)
(9.68174e-05 -0.000810082 0)
(0.00010948 -0.000809463 0)
(9.41007e-05 -0.000816428 0)
(0.000106553 -0.000815531 0)
(9.1694e-05 -0.000822334 0)
(0.000103956 -0.000821191 0)
(8.95577e-05 -0.000827869 0)
(0.000101648 -0.000826507 0)
(8.76575e-05 -0.000833091 0)
(9.9591e-05 -0.000831535 0)
(8.5963e-05 -0.000838051 0)
(9.77533e-05 -0.000836321 0)
(8.44471e-05 -0.000842791 0)
(9.6105e-05 -0.000840905 0)
(8.30853e-05 -0.000847347 0)
(9.46194e-05 -0.00084532 0)
(8.18563e-05 -0.00085175 0)
(9.32718e-05 -0.000849594 0)
(8.0742e-05 -0.000856027 0)
(9.20395e-05 -0.000853751 0)
(7.97291e-05 -0.0008602 0)
(9.09013e-05 -0.000857807 0)
(7.88103e-05 -0.000864283 0)
(8.98363e-05 -0.000861769 0)
(7.79835e-05 -0.000868284 0)
(8.88233e-05 -0.000865636 0)
(0.000185602 -0.000737682 0)
(0.00019972 -0.000738939 0)
(0.000175985 -0.000749645 0)
(0.000189708 -0.000750539 0)
(0.000167647 -0.000760434 0)
(0.000181029 -0.000760743 0)
(0.000160367 -0.000770004 0)
(0.000173472 -0.000769757 0)
(0.00015398 -0.000778559 0)
(0.000166856 -0.000777829 0)
(0.000148362 -0.000786294 0)
(0.00016104 -0.000785139 0)
(0.000143411 -0.000793348 0)
(0.000155912 -0.000791815 0)
(0.000139039 -0.000799827 0)
(0.000151379 -0.000797956 0)
(0.000135172 -0.000805819 0)
(0.000147366 -0.000803645 0)
(0.000131745 -0.000811398 0)
(0.000143805 -0.000808954 0)
(0.000128703 -0.000816628 0)
(0.00014064 -0.000813943 0)
(0.000125998 -0.000821563 0)
(0.000137821 -0.000818661 0)
(0.000123585 -0.000826252 0)
(0.000135304 -0.000823153 0)
(0.000121427 -0.000830732 0)
(0.000133049 -0.000827454 0)
(0.000119491 -0.000835039 0)
(0.000131019 -0.000831595 0)
(0.000117746 -0.0008392 0)
(0.000129183 -0.000835603 0)
(0.000116166 -0.00084324 0)
(0.000127509 -0.000839498 0)
(0.000114729 -0.000847179 0)
(0.000125969 -0.000843293 0)
(0.000113419 -0.000851031 0)
(0.000124533 -0.000846993 0)
(0.000112223 -0.000854801 0)
(0.000123172 -0.000850595 0)
(0.000240958 -0.00072949 0)
(0.000254141 -0.000729694 0)
(0.000228768 -0.00074042 0)
(0.000241656 -0.000740202 0)
(0.000218164 -0.000750287 0)
(0.000230825 -0.000749453 0)
(0.00020889 -0.000759037 0)
(0.000221385 -0.000757628 0)
(0.000200742 -0.000766865 0)
(0.000213108 -0.000764954 0)
(0.000193561 -0.000773953 0)
(0.000205818 -0.000771598 0)
(0.00018722 -0.000780427 0)
(0.00019938 -0.000777674 0)
(0.000181613 -0.000786381 0)
(0.000193684 -0.00078327 0)
(0.000176649 -0.000791892 0)
(0.000188637 -0.000788461 0)
(0.000172247 -0.000797027 0)
(0.000184158 -0.000793309 0)
(0.000168338 -0.000801845 0)
(0.000180176 -0.000797867 0)
(0.000164861 -0.000806393 0)
(0.000176631 -0.00080218 0)
(0.000161762 -0.000810715 0)
(0.000173466 -0.000806287 0)
(0.000158992 -0.000814845 0)
(0.000170634 -0.000810218 0)
(0.000156508 -0.000818813 0)
(0.000168088 -0.000814003 0)
(0.000154272 -0.000822646 0)
(0.00016579 -0.000817662 0)
(0.00015225 -0.000826366 0)
(0.0001637 -0.000821214 0)
(0.000150413 -0.000829989 0)
(0.000161783 -0.000824671 0)
(0.000148736 -0.000833527 0)
(0.000160004 -0.000828033 0)
(0.000147199 -0.000836986 0)
(0.000158327 -0.000831298 0)
(0.000295879 -0.000719484 0)
(0.000308166 -0.000718597 0)
(0.0002813 -0.000729153 0)
(0.000293396 -0.000727792 0)
(0.000268581 -0.000737897 0)
(0.000280566 -0.000735897 0)
(0.000257438 -0.00074565 0)
(0.000269369 -0.000743064 0)
(0.000247636 -0.00075259 0)
(0.000259539 -0.000749495 0)
(0.000238989 -0.000758882 0)
(0.000250874 -0.000755337 0)
(0.000231347 -0.000764638 0)
(0.000243215 -0.000760687 0)
(0.000224583 -0.00076994 0)
(0.000236433 -0.000765623 0)
(0.000218589 -0.000774856 0)
(0.00023042 -0.000770208 0)
(0.000213271 -0.000779442 0)
(0.000225081 -0.000774495 0)
(0.000208547 -0.000783748 0)
(0.000220334 -0.00077853 0)
(0.000204344 -0.000787818 0)
(0.000216108 -0.000782351 0)
(0.000200599 -0.000791686 0)
(0.000212338 -0.000785991 0)
(0.000197254 -0.000795383 0)
(0.000208966 -0.000789475 0)
(0.000194257 -0.000798936 0)
(0.00020594 -0.000792829 0)
(0.000191562 -0.000802366 0)
(0.000203212 -0.000796069 0)
(0.000189129 -0.000805691 0)
(0.000200738 -0.000799211 0)
(0.000186921 -0.000808928 0)
(0.000198476 -0.000802263 0)
(0.000184908 -0.000812084 0)
(0.000196387 -0.000805226 0)
(0.000183062 -0.000815165 0)
(0.000194428 -0.000808093 0)
(0.000350244 -0.00070777 0)
(0.000361686 -0.000705768 0)
(0.000333494 -0.000715969 0)
(0.000344852 -0.000713453 0)
(0.000318843 -0.000723407 0)
(0.000330205 -0.00072024 0)
(0.000305988 -0.000730001 0)
(0.000317404 -0.000726248 0)
(0.000294666 -0.000735908 0)
(0.000306155 -0.00073165 0)
(0.000284668 -0.000741274 0)
(0.000296228 -0.000736568 0)
(0.000275825 -0.000746193 0)
(0.000287448 -0.000741083 0)
(0.000267992 -0.000750734 0)
(0.000279667 -0.000745258 0)
(0.000261046 -0.000754953 0)
(0.000272765 -0.000749143 0)
(0.000254881 -0.000758897 0)
(0.000266635 -0.000752784 0)
(0.000249403 -0.000762606 0)
(0.000261184 -0.000756216 0)
(0.000244529 -0.000766116 0)
(0.000256331 -0.000759471 0)
(0.000240187 -0.000769456 0)
(0.000252003 -0.000762573 0)
(0.000236309 -0.00077265 0)
(0.000248136 -0.000765546 0)
(0.000232839 -0.000775721 0)
(0.000244669 -0.000768407 0)
(0.000229723 -0.000778684 0)
(0.00024155 -0.00077117 0)
(0.000226915 -0.000781556 0)
(0.000238729 -0.000773847 0)
(0.000224372 -0.000784348 0)
(0.000236159 -0.000776443 0)
(0.000222058 -0.000787067 0)
(0.000233796 -0.000778955 0)
(0.000219939 -0.000789716 0)
(0.000231595 -0.000781377 0)
(0.000403939 -0.000694459 0)
(0.000414593 -0.000691335 0)
(0.000385263 -0.000701011 0)
(0.000395942 -0.000697345 0)
(0.000368892 -0.000706985 0)
(0.000379688 -0.000702669 0)
(0.000354504 -0.000712281 0)
(0.000365461 -0.000707389 0)
(0.000341816 -0.000717031 0)
(0.000352941 -0.000711646 0)
(0.000330601 -0.000721357 0)
(0.000341883 -0.000715537 0)
(0.000320672 -0.000725337 0)
(0.000332094 -0.000719122 0)
(0.00031187 -0.000729024 0)
(0.000323414 -0.00072245 0)
(0.000304062 -0.00073246 0)
(0.00031571 -0.000725558 0)
(0.000297127 -0.000735683 0)
(0.000308864 -0.00072848 0)
(0.000290964 -0.000738723 0)
(0.000302777 -0.000731243 0)
(0.00028548 -0.000741606 0)
(0.000297357 -0.00073387 0)
(0.000280594 -0.000744355 0)
(0.000292526 -0.00073638 0)
(0.000276234 -0.000746989 0)
(0.000288211 -0.000738788 0)
(0.000272336 -0.000749522 0)
(0.00028435 -0.000741108 0)
(0.000268841 -0.000751969 0)
(0.000280881 -0.000743349 0)
(0.000265697 -0.000754339 0)
(0.000277753 -0.000745518 0)
(0.000262858 -0.000756641 0)
(0.000274914 -0.000747618 0)
(0.000260281 -0.000758881 0)
(0.000272317 -0.000749644 0)
(0.000257928 -0.000761058 0)
(0.000269913 -0.000751587 0)
(0.000456854 -0.000679673 0)
(0.000466785 -0.000675435 0)
(0.000436523 -0.000684437 0)
(0.000446587 -0.000679641 0)
(0.000418662 -0.000688819 0)
(0.000428952 -0.000683385 0)
(0.00040294 -0.000692702 0)
(0.000413492 -0.000686714 0)
(0.000389058 -0.000696191 0)
(0.000399869 -0.000689733 0)
(0.000376773 -0.000699384 0)
(0.000387823 -0.000692511 0)
(0.000365886 -0.00070234 0)
(0.000377149 -0.00069509 0)
(0.000356228 -0.000705096 0)
(0.000367678 -0.000697501 0)
(0.000347654 -0.000707681 0)
(0.000359266 -0.000699769 0)
(0.000340035 -0.000710118 0)
(0.00035179 -0.000701915 0)
(0.000333262 -0.00071243 0)
(0.000345139 -0.000703956 0)
(0.000327235 -0.000714633 0)
(0.000339219 -0.000705908 0)
(0.000321866 -0.000716742 0)
(0.000333943 -0.000707781 0)
(0.000317078 -0.00071877 0)
(0.000329235 -0.000709585 0)
(0.000312801 -0.000720726 0)
(0.000325026 -0.000711328 0)
(0.000308972 -0.000722617 0)
(0.000321254 -0.000713014 0)
(0.000305535 -0.000724451 0)
(0.000317861 -0.000714647 0)
(0.000302439 -0.000726233 0)
(0.000314793 -0.000716225 0)
(0.000299638 -0.000727964 0)
(0.000312001 -0.000717742 0)
(0.00029709 -0.000729642 0)
(0.000309433 -0.000719186 0)
(0.000508884 -0.000663542 0)
(0.000518161 -0.000658213 0)
(0.000487185 -0.000666412 0)
(0.000496698 -0.000660521 0)
(0.000468082 -0.000669105 0)
(0.000477925 -0.0006626 0)
(0.000451239 -0.000671487 0)
(0.000461438 -0.000664461 0)
(0.000436347 -0.000673637 0)
(0.00044689 -0.00066617 0)
(0.000423151 -0.000675625 0)
(0.00043401 -0.000667772 0)
(0.000411445 -0.000677492 0)
(0.000422585 -0.000669287 0)
(0.000401051 -0.000679257 0)
(0.00041244 -0.000670728 0)
(0.000391816 -0.000680936 0)
(0.000403424 -0.000672107 0)
(0.000383607 -0.000682539 0)
(0.000395406 -0.000673434 0)
(0.000376306 -0.000684078 0)
(0.000388273 -0.000674715 0)
(0.000369807 -0.000685561 0)
(0.000381922 -0.000675957 0)
(0.00036402 -0.000686995 0)
(0.000376264 -0.000677163 0)
(0.000358862 -0.000688385 0)
(0.000371219 -0.000678336 0)
(0.000354258 -0.000689734 0)
(0.000366715 -0.000679478 0)
(0.000350143 -0.000691046 0)
(0.000362685 -0.00068059 0)
(0.000346457 -0.000692322 0)
(0.00035907 -0.000681669 0)
(0.000343145 -0.000693564 0)
(0.000355814 -0.000682713 0)
(0.00034016 -0.000694771 0)
(0.000352866 -0.00068371 0)
(0.000337455 -0.000695938 0)
(0.000350173 -0.000684648 0)
(0.00055993 -0.000646201 0)
(0.000568624 -0.000639819 0)
(0.00053716 -0.000647109 0)
(0.000546189 -0.000640171 0)
(0.000517073 -0.000648048 0)
(0.000526527 -0.000640532 0)
(0.000499331 -0.00064887 0)
(0.000509229 -0.000640872 0)
(0.000483621 -0.000649625 0)
(0.000493941 -0.000641226 0)
(0.000469683 -0.000650359 0)
(0.000480388 -0.000641607 0)
(0.000457304 -0.00065109 0)
(0.000468355 -0.000642018 0)
(0.000446302 -0.000651822 0)
(0.000457659 -0.000642454 0)
(0.00043652 -0.000652556 0)
(0.000448146 -0.000642912 0)
(0.000427818 -0.000653292 0)
(0.000439683 -0.000643391 0)
(0.000420075 -0.000654028 0)
(0.00043215 -0.000643887 0)
(0.000413183 -0.000654765 0)
(0.000425443 -0.000644398 0)
(0.000407046 -0.0006555 0)
(0.00041947 -0.000644918 0)
(0.000401578 -0.000656232 0)
(0.000414148 -0.000645446 0)
(0.000396702 -0.000656959 0)
(0.000409401 -0.000645976 0)
(0.000392351 -0.000657678 0)
(0.000405162 -0.000646505 0)
(0.000388461 -0.000658387 0)
(0.00040137 -0.000647026 0)
(0.000384976 -0.000659083 0)
(0.000397967 -0.000647533 0)
(0.000381845 -0.000659761 0)
(0.000394899 -0.000648012 0)
(0.000379019 -0.000660416 0)
(0.000392117 -0.000648448 0)
(0.000609899 -0.000627788 0)
(0.000618081 -0.0006204 0)
(0.000586358 -0.000626701 0)
(0.000594969 -0.000618776 0)
(0.000565549 -0.000625853 0)
(0.000574671 -0.000617395 0)
(0.000547137 -0.000625084 0)
(0.000556781 -0.000616191 0)
(0.000530807 -0.000624413 0)
(0.000540943 -0.000615165 0)
(0.000516299 -0.000623863 0)
(0.000526885 -0.000614304 0)
(0.000503399 -0.000623433 0)
(0.000514387 -0.000613589 0)
(0.000491923 -0.000623108 0)
(0.000503269 -0.000613001 0)
(0.000481709 -0.000622876 0)
(0.000493372 -0.000612522 0)
(0.000472618 -0.000622725 0)
(0.000484562 -0.000612139 0)
(0.000464525 -0.000622642 0)
(0.000476718 -0.000611839 0)
(0.00045732 -0.000622619 0)
(0.000469733 -0.000611608 0)
(0.000450904 -0.000622645 0)
(0.000463514 -0.000611438 0)
(0.00044519 -0.000622711 0)
(0.000457976 -0.000611316 0)
(0.0004401 -0.000622811 0)
(0.000453042 -0.000611234 0)
(0.000435563 -0.000622935 0)
(0.000448643 -0.000611182 0)
(0.000431515 -0.000623078 0)
(0.000444718 -0.00061115 0)
(0.000427898 -0.000623232 0)
(0.000441208 -0.000611127 0)
(0.000424659 -0.000623389 0)
(0.000438059 -0.000611099 0)
(0.000421747 -0.00062354 0)
(0.000435219 -0.000611048 0)
(0.000658704 -0.000608437 0)
(0.000666445 -0.000600104 0)
(0.000634691 -0.000605359 0)
(0.000642945 -0.000596516 0)
(0.00061342 -0.000602723 0)
(0.000622264 -0.000593399 0)
(0.000594566 -0.000600357 0)
(0.000604 -0.000590654 0)
(0.000577816 -0.000598255 0)
(0.000587804 -0.000588248 0)
(0.000562915 -0.000596415 0)
(0.000573408 -0.000586143 0)
(0.000549648 -0.000594815 0)
(0.000560594 -0.0005843 0)
(0.000537832 -0.000593427 0)
(0.000549183 -0.000582685 0)
(0.000527308 -0.000592223 0)
(0.000539018 -0.000581268 0)
(0.000517933 -0.000591179 0)
(0.000529962 -0.000580022 0)
(0.000509584 -0.000590275 0)
(0.000521897 -0.000578926 0)
(0.000502148 -0.00058949 0)
(0.000514715 -0.000577958 0)
(0.000495528 -0.000588808 0)
(0.000508321 -0.0005771 0)
(0.000489634 -0.000588213 0)
(0.00050263 -0.000576336 0)
(0.000484388 -0.000587691 0)
(0.000497566 -0.000575651 0)
(0.000479718 -0.000587229 0)
(0.000493059 -0.000575029 0)
(0.000475559 -0.000586815 0)
(0.000489045 -0.000574458 0)
(0.000471851 -0.00058644 0)
(0.000485468 -0.000573923 0)
(0.000468542 -0.000586091 0)
(0.000482273 -0.000573406 0)
(0.000465577 -0.000585756 0)
(0.000479408 -0.000572888 0)
(0.000706264 -0.000588281 0)
(0.000713631 -0.00057907 0)
(0.00068207 -0.000583247 0)
(0.000690027 -0.000573564 0)
(0.000660594 -0.000578851 0)
(0.000669207 -0.000568746 0)
(0.000641521 -0.000574911 0)
(0.000650784 -0.000564487 0)
(0.00062455 -0.000571395 0)
(0.00063442 -0.000560722 0)
(0.000609429 -0.000568278 0)
(0.000619851 -0.000557391 0)
(0.00059595 -0.00056552 0)
(0.000606869 -0.000554436 0)
(0.000583931 -0.000563078 0)
(0.000595295 -0.000551808 0)
(0.000573216 -0.000560912 0)
(0.000584976 -0.000549465 0)
(0.000563666 -0.000558986 0)
(0.000575779 -0.00054737 0)
(0.000555155 -0.000557268 0)
(0.000567584 -0.00054549 0)
(0.000547574 -0.000555733 0)
(0.000560285 -0.000543798 0)
(0.000540825 -0.000554354 0)
(0.00055379 -0.000542268 0)
(0.000534819 -0.00055311 0)
(0.000548012 -0.000540878 0)
(0.000529477 -0.000551981 0)
(0.000542875 -0.000539606 0)
(0.000524728 -0.000550949 0)
(0.000538311 -0.000538434 0)
(0.000520505 -0.000549998 0)
(0.000534255 -0.000537345 0)
(0.00051675 -0.000549114 0)
(0.000530652 -0.00053632 0)
(0.000513406 -0.000548282 0)
(0.000527445 -0.00053534 0)
(0.00051042 -0.000547485 0)
(0.000524586 -0.000534382 0)
(0.000752506 -0.000567446 0)
(0.000759562 -0.000557432 0)
(0.000728407 -0.000560525 0)
(0.000736121 -0.000550083 0)
(0.000706973 -0.000554424 0)
(0.0007154 -0.000543626 0)
(0.000687901 -0.000548956 0)
(0.000697025 -0.000537903 0)
(0.0006709 -0.000544065 0)
(0.000680675 -0.000532822 0)
(0.00065573 -0.000539705 0)
(0.000666097 -0.000528301 0)
(0.000642188 -0.000535818 0)
(0.000653089 -0.000524267 0)
(0.000630102 -0.000532348 0)
(0.000641481 -0.000520655 0)
(0.000619316 -0.000529242 0)
(0.000631123 -0.000517412 0)
(0.000609695 -0.000526455 0)
(0.000621884 -0.000514492 0)
(0.000601118 -0.000523946 0)
(0.000613651 -0.000511853 0)
(0.000593478 -0.00052168 0)
(0.000606318 -0.000509461 0)
(0.000586676 -0.000519626 0)
(0.000599793 -0.000507282 0)
(0.000580627 -0.000517754 0)
(0.000593994 -0.000505289 0)
(0.000575251 -0.000516041 0)
(0.000588845 -0.000503455 0)
(0.000570478 -0.000514463 0)
(0.000584277 -0.000501759 0)
(0.000566241 -0.000513 0)
(0.000580227 -0.000500177 0)
(0.00056248 -0.000511634 0)
(0.000576639 -0.00049869 0)
(0.00055914 -0.000510346 0)
(0.000573458 -0.000497275 0)
(0.000556164 -0.000509116 0)
(0.000570634 -0.000495908 0)
(0.00079736 -0.000546051 0)
(0.000804165 -0.000535315 0)
(0.00077362 -0.000537337 0)
(0.00078114 -0.000526224 0)
(0.000752461 -0.000529614 0)
(0.000760739 -0.000518213 0)
(0.000733595 -0.000522687 0)
(0.00074261 -0.000511099 0)
(0.000716749 -0.000516481 0)
(0.000726448 -0.000504764 0)
(0.000701694 -0.000510929 0)
(0.000712016 -0.000499107 0)
(0.000688236 -0.000505959 0)
(0.000699121 -0.000494041 0)
(0.00067621 -0.000501501 0)
(0.000687601 -0.000489488 0)
(0.000665469 -0.000497492 0)
(0.000677313 -0.000485385 0)
(0.000655882 -0.000493878 0)
(0.000668132 -0.000481676 0)
(0.000647333 -0.000490609 0)
(0.000659948 -0.000478313 0)
(0.000639716 -0.000487643 0)
(0.000652661 -0.000475252 0)
(0.000632939 -0.000484942 0)
(0.00064618 -0.000472455 0)
(0.000626915 -0.000482472 0)
(0.000640426 -0.00046989 0)
(0.000621568 -0.000480203 0)
(0.000635325 -0.000467526 0)
(0.000616828 -0.000478109 0)
(0.000630808 -0.000465334 0)
(0.000612628 -0.000476164 0)
(0.000626815 -0.000463291 0)
(0.000608909 -0.000474346 0)
(0.000623287 -0.000461373 0)
(0.000605611 -0.000472634 0)
(0.00062017 -0.000459554 0)
(0.000602678 -0.000471004 0)
(0.000617414 -0.000457808 0)
(0.000840767 -0.000524207 0)
(0.000847373 -0.000512832 0)
(0.000817627 -0.000513821 0)
(0.000824995 -0.000502126 0)
(0.00079696 -0.000504578 0)
(0.000805121 -0.000492666 0)
(0.000778496 -0.000496283 0)
(0.000787421 -0.000484252 0)
(0.000761977 -0.000488839 0)
(0.000771612 -0.000476743 0)
(0.00074719 -0.000482164 0)
(0.000757472 -0.000470021 0)
(0.000733954 -0.000476172 0)
(0.00074482 -0.000463985 0)
(0.000722112 -0.000470781 0)
(0.000733503 -0.000458548 0)
(0.000711525 -0.000465919 0)
(0.000723389 -0.000453636 0)
(0.00070207 -0.000461522 0)
(0.000714358 -0.000449185 0)
(0.000693635 -0.000457534 0)
(0.000706307 -0.00044514 0)
(0.000686123 -0.000453905 0)
(0.00069914 -0.000441451 0)
(0.000679442 -0.000450593 0)
(0.000692773 -0.000438075 0)
(0.000673512 -0.000447559 0)
(0.000687127 -0.000434973 0)
(0.000668256 -0.000444768 0)
(0.000682132 -0.000432113 0)
(0.000663608 -0.000442189 0)
(0.000677722 -0.000429462 0)
(0.000659501 -0.000439796 0)
(0.000673838 -0.000426992 0)
(0.000655874 -0.000437562 0)
(0.000670421 -0.000424677 0)
(0.000652666 -0.000435462 0)
(0.000667416 -0.000422487 0)
(0.000649815 -0.000433466 0)
(0.00066477 -0.00042039 0)
(0.00088267 -0.000502014 0)
(0.000889124 -0.000490088 0)
(0.000860351 -0.000490097 0)
(0.000867604 -0.00047791 0)
(0.000840375 -0.000479459 0)
(0.000848445 -0.000467127 0)
(0.00082249 -0.000469903 0)
(0.000831343 -0.000457522 0)
(0.000806459 -0.000461318 0)
(0.000816038 -0.000448935 0)
(0.000792084 -0.000453605 0)
(0.000802324 -0.000441233 0)
(0.000779198 -0.000446665 0)
(0.000790036 -0.000434303 0)
(0.000767653 -0.000440409 0)
(0.000779031 -0.00042805 0)
(0.000757321 -0.000434754 0)
(0.000769184 -0.000422391 0)
(0.000748086 -0.00042963 0)
(0.000760387 -0.000417254 0)
(0.000739845 -0.000424972 0)
(0.000752541 -0.000412579 0)
(0.000732508 -0.000420727 0)
(0.00074556 -0.000408311 0)
(0.000725989 -0.000416845 0)
(0.000739366 -0.0004044 0)
(0.000720212 -0.000413284 0)
(0.000733885 -0.000400803 0)
(0.000715105 -0.000410005 0)
(0.000729051 -0.000397482 0)
(0.0007106 -0.000406974 0)
(0.000724798 -0.000394401 0)
(0.000706636 -0.000404158 0)
(0.000721067 -0.000391532 0)
(0.000703153 -0.000401529 0)
(0.000717801 -0.000388849 0)
(0.000700095 -0.000399066 0)
(0.000714954 -0.000386327 0)
(0.000697396 -0.000396747 0)
(0.000712472 -0.000383928 0)
(0.000923022 -0.000479564 0)
(0.000929365 -0.000467173 0)
(0.00090172 -0.000466275 0)
(0.000908888 -0.000453685 0)
(0.000882614 -0.000454382 0)
(0.000890613 -0.000441721 0)
(0.00086547 -0.00044369 0)
(0.000874261 -0.000431049 0)
(0.000850073 -0.000434073 0)
(0.000859597 -0.000421493 0)
(0.000836241 -0.000425421 0)
(0.000846434 -0.00041291 0)
(0.000823821 -0.000417624 0)
(0.000834619 -0.000405175 0)
(0.000812678 -0.000410583 0)
(0.000824024 -0.000398187 0)
(0.000802693 -0.000404211 0)
(0.000814531 -0.000391854 0)
(0.000793757 -0.000398428 0)
(0.000806041 -0.0003861 0)
(0.000785777 -0.000393164 0)
(0.000798462 -0.000380857 0)
(0.000778668 -0.000388358 0)
(0.000791716 -0.000376065 0)
(0.000772355 -0.000383956 0)
(0.000785732 -0.000371674 0)
(0.000766771 -0.000379914 0)
(0.000780449 -0.000367636 0)
(0.000761854 -0.000376191 0)
(0.000775812 -0.00036391 0)
(0.000757539 -0.000372754 0)
(0.000771763 -0.000360452 0)
(0.000753757 -0.000369567 0)
(0.00076824 -0.000357218 0)
(0.000750429 -0.000366588 0)
(0.000765168 -0.000354167 0)
(0.000747483 -0.000363765 0)
(0.000762473 -0.00035127 0)
(0.000744873 -0.000361031 0)
(0.000760116 -0.000348534 0)
(0.000961781 -0.000456935 0)
(0.000968046 -0.000444166 0)
(0.000941667 -0.000442448 0)
(0.000948775 -0.000429544 0)
(0.000923588 -0.000429454 0)
(0.000931531 -0.000416552 0)
(0.000907329 -0.000417763 0)
(0.000916064 -0.000404949 0)
(0.000892697 -0.000407239 0)
(0.000902163 -0.000394548 0)
(0.000879527 -0.000397758 0)
(0.000889662 -0.000385193 0)
(0.000867681 -0.000389205 0)
(0.000878422 -0.000376756 0)
(0.000857037 -0.000381475 0)
(0.000868326 -0.000369125 0)
(0.000847484 -0.000374472 0)
(0.000859268 -0.000362206 0)
(0.000838924 -0.000368113 0)
(0.000851156 -0.000355917 0)
(0.000831268 -0.000362324 0)
(0.000843905 -0.000350183 0)
(0.000824437 -0.000357037 0)
(0.000837439 -0.000344941 0)
(0.000818358 -0.000352194 0)
(0.000831693 -0.000340136 0)
(0.000812972 -0.000347742 0)
(0.000826606 -0.000335721 0)
(0.000808229 -0.000343637 0)
(0.000822133 -0.000331656 0)
(0.00080409 -0.000339845 0)
(0.000818241 -0.000327914 0)
(0.000800522 -0.00033635 0)
(0.000814909 -0.000324465 0)
(0.00079748 -0.000333156 0)
(0.000812121 -0.000321275 0)
(0.000794878 -0.000330281 0)
(0.00080984 -0.000318273 0)
(0.000792544 -0.000327738 0)
(0.000807949 -0.000315329 0)
(0.000998911 -0.000434194 0)
(0.00100513 -0.000421131 0)
(0.000980131 -0.000418693 0)
(0.000987196 -0.000405559 0)
(0.000963215 -0.000404764 0)
(0.000971111 -0.000391704 0)
(0.000947968 -0.000392222 0)
(0.000956646 -0.000379317 0)
(0.000934215 -0.000380923 0)
(0.000943617 -0.000368202 0)
(0.000921814 -0.000370735 0)
(0.000931877 -0.000358196 0)
(0.00091064 -0.000361537 0)
(0.000921304 -0.000349165 0)
(0.000900584 -0.000353218 0)
(0.000911791 -0.000340993 0)
(0.000891546 -0.000345678 0)
(0.000903244 -0.000333582 0)
(0.000883437 -0.000338832 0)
(0.00089558 -0.000326846 0)
(0.000876176 -0.0003326 0)
(0.000888721 -0.000320708 0)
(0.00086969 -0.000326917 0)
(0.0008826 -0.000315105 0)
(0.000863912 -0.000321721 0)
(0.000877152 -0.000309976 0)
(0.00085878 -0.000316964 0)
(0.00087232 -0.000305272 0)
(0.000854235 -0.000312597 0)
(0.000868048 -0.000300949 0)
(0.000850228 -0.000308581 0)
(0.000864284 -0.000296969 0)
(0.000846723 -0.000304881 0)
(0.000860986 -0.00029331 0)
(0.000843719 -0.000301476 0)
(0.000858137 -0.000289971 0)
(0.000841259 -0.000298388 0)
(0.000855761 -0.000286991 0)
(0.000839386 -0.000295707 0)
(0.0008539 -0.000284484 0)
(0.00103438 -0.000411395 0)
(0.00104056 -0.000398121 0)
(0.00101705 -0.000395071 0)
(0.00102409 -0.000381791 0)
(0.00100142 -0.00038038 0)
(0.00100927 -0.000367244 0)
(0.000987286 -0.000367143 0)
(0.000995903 -0.000354226 0)
(0.000974514 -0.000355209 0)
(0.000983839 -0.000342535 0)
(0.000962975 -0.00034444 0)
(0.000972947 -0.000332002 0)
(0.00095256 -0.000334711 0)
(0.000963122 -0.000322489 0)
(0.000943174 -0.000325906 0)
(0.00095427 -0.000313878 0)
(0.000934728 -0.000317924 0)
(0.000946308 -0.000306067 0)
(0.000927144 -0.000310674 0)
(0.000939163 -0.000298967 0)
(0.000920348 -0.000304077 0)
(0.000932766 -0.0002925 0)
(0.000914276 -0.00029806 0)
(0.000927057 -0.000286598 0)
(0.000908868 -0.000292561 0)
(0.00092198 -0.000281201 0)
(0.000904073 -0.000287525 0)
(0.000917485 -0.000276255 0)
(0.000899841 -0.000282902 0)
(0.000913528 -0.000271711 0)
(0.000896132 -0.000278649 0)
(0.000910069 -0.000267523 0)
(0.000892913 -0.000274727 0)
(0.000907074 -0.000263643 0)
(0.000890171 -0.000271106 0)
(0.000904515 -0.000260023 0)
(0.000887923 -0.000267775 0)
(0.00090235 -0.000256655 0)
(0.000886177 -0.000264785 0)
(0.000900466 -0.000253673 0)
(0.00106816 -0.000388582 0)
(0.00107432 -0.000375178 0)
(0.00105238 -0.000371633 0)
(0.00105939 -0.000358287 0)
(0.00103811 -0.000356358 0)
(0.00104591 -0.000343223 0)
(0.00102518 -0.000342587 0)
(0.00103373 -0.000329733 0)
(0.00101348 -0.000330163 0)
(0.00102271 -0.000317606 0)
(0.00100288 -0.000318943 0)
(0.00101273 -0.000306673 0)
(0.000993293 -0.000308799 0)
(0.00100372 -0.000296792 0)
(0.000984646 -0.000299613 0)
(0.000995598 -0.000287842 0)
(0.000976857 -0.000291281 0)
(0.000988283 -0.00027972 0)
(0.000969858 -0.00028371 0)
(0.000981715 -0.000272334 0)
(0.000963586 -0.000276817 0)
(0.000975837 -0.000265605 0)
(0.000957985 -0.000270529 0)
(0.000970594 -0.000259461 0)
(0.000953001 -0.00026478 0)
(0.000965939 -0.000253838 0)
(0.000948587 -0.000259512 0)
(0.000961825 -0.00024868 0)
(0.000944702 -0.000254672 0)
(0.000958212 -0.000243936 0)
(0.000941311 -0.000250216 0)
(0.000955064 -0.000239558 0)
(0.000938393 -0.000246107 0)
(0.000952356 -0.0002355 0)
(0.000935946 -0.000242321 0)
(0.00095007 -0.000231717 0)
(0.000933975 -0.00023885 0)
(0.000948167 -0.000228202 0)
(0.000932447 -0.000235746 0)
(0.000946519 -0.000225059 0)
(0.00110021 -0.00036579 0)
(0.00110636 -0.000352336 0)
(0.00108605 -0.00034842 0)
(0.00109303 -0.000335084 0)
(0.00107322 -0.000332745 0)
(0.00108097 -0.000319684 0)
(0.00106157 -0.000318603 0)
(0.00107002 -0.00030588 0)
(0.00105098 -0.000305837 0)
(0.0010601 -0.000293462 0)
(0.00104138 -0.0002943 0)
(0.0010511 -0.000282257 0)
(0.00103268 -0.00028386 0)
(0.00104295 -0.000272123 0)
(0.00102483 -0.000274401 0)
(0.0010356 -0.000262939 0)
(0.00101774 -0.000265816 0)
(0.00102897 -0.000254599 0)
(0.00101137 -0.000258011 0)
(0.00102302 -0.000247012 0)
(0.00100567 -0.000250902 0)
(0.0010177 -0.000240096 0)
(0.00100057 -0.000244414 0)
(0.00101295 -0.000233778 0)
(0.000996045 -0.00023848 0)
(0.00100874 -0.000227996 0)
(0.000992045 -0.000233042 0)
(0.00100503 -0.000222691 0)
(0.000988537 -0.000228047 0)
(0.00100179 -0.000217812 0)
(0.00098549 -0.000223453 0)
(0.000998976 -0.000213312 0)
(0.000982888 -0.000219222 0)
(0.000996575 -0.000209144 0)
(0.000980731 -0.000215329 0)
(0.000994573 -0.00020526 0)
(0.000979029 -0.000211765 0)
(0.000992932 -0.000201655 0)
(0.000977743 -0.000208598 0)
(0.00099152 -0.000198434 0)
(0.0011305 -0.000343053 0)
(0.00113664 -0.000329626 0)
(0.00111801 -0.000325465 0)
(0.00112496 -0.000312215 0)
(0.00110667 -0.000309575 0)
(0.00111434 -0.000296658 0)
(0.00109633 -0.00029523 0)
(0.00110468 -0.000282703 0)
(0.00108691 -0.000282272 0)
(0.00109588 -0.000270139 0)
(0.00107835 -0.000270552 0)
(0.00108789 -0.000258794 0)
(0.00107058 -0.000259941 0)
(0.00108065 -0.000248527 0)
(0.00106355 -0.000250319 0)
(0.00107409 -0.000239216 0)
(0.00105721 -0.000241583 0)
(0.00106819 -0.000230757 0)
(0.0010515 -0.000233636 0)
(0.00106288 -0.000223059 0)
(0.00104639 -0.000226395 0)
(0.00105813 -0.000216039 0)
(0.00104183 -0.000219786 0)
(0.00105391 -0.000209626 0)
(0.00103778 -0.00021374 0)
(0.00105017 -0.000203756 0)
(0.00103422 -0.000208201 0)
(0.00104689 -0.000198373 0)
(0.0010311 -0.000203115 0)
(0.00104402 -0.000193425 0)
(0.00102842 -0.000198442 0)
(0.00104156 -0.000188865 0)
(0.00102615 -0.000194146 0)
(0.00103949 -0.000184644 0)
(0.00102429 -0.0001902 0)
(0.00103778 -0.000180715 0)
(0.00102286 -0.0001866 0)
(0.00103641 -0.000177067 0)
(0.00102183 -0.000183417 0)
(0.00103524 -0.000173803 0)
(0.00115901 -0.000320395 0)
(0.00116512 -0.000307071 0)
(0.00114821 -0.000302795 0)
(0.0011551 -0.000289702 0)
(0.00113838 -0.000286875 0)
(0.00114595 -0.000274168 0)
(0.00112938 -0.000272494 0)
(0.00113759 -0.000260224 0)
(0.00112116 -0.000259494 0)
(0.00112995 -0.00024766 0)
(0.00111366 -0.000247729 0)
(0.00112299 -0.000236307 0)
(0.00110684 -0.00023707 0)
(0.00111666 -0.000226027 0)
(0.00110066 -0.0002274 0)
(0.00111093 -0.0002167 0)
(0.00109508 -0.000218615 0)