/*--------------------------------*- C++ -*----------------------------------*\
| =========                 |                                                 |
| \\      /  F ield         | OpenFOAM: The Open Source CFD Toolbox           |
|  \\    /   O peration     | Version:  v2012                                 |
|   \\  /    A nd           | Website:  www.openfoam.com                      |
|    \\/     M anipulation  |                                                 |
\*---------------------------------------------------------------------------*/
FoamFile
{
    version     2.0;
    format      ascii;
    class       volScalarField;
    location    "4";
    object      epsilonEq;
}
// * * * * * * * * * * * * * * * * * * * * * * * * * * * * * * * * * * * * * //

dimensions      [0 0 0 0 0 0 0];


internalField   nonuniform List<scalar> 
8000
(
0.00243007
0.00240109
0.00223881
0.00222774
0.0020583
0.00205704
0.00190144
0.00190626
0.00176886
0.00177652
0.00165529
0.00166421
0.00155647
0.00156618
0.00146988
0.0014802
0.00139374
0.00140454
0.00132661
0.00133773
0.00126722
0.00127852
0.00121447
0.00122585
0.00116742
0.00117882
0.00112524
0.00113662
0.00108719
0.00109856
0.00105258
0.00106399
0.00102076
0.00103228
0.000991152
0.00100262
0.000963102
0.000973873
0.000935857
0.00094338
0.00243024
0.00238554
0.00223901
0.00220777
0.00205691
0.00203867
0.00189844
0.00189151
0.00176475
0.00176515
0.00165075
0.00165553
0.00155208
0.00155968
0.00146591
0.00147557
0.0013903
0.00140156
0.00132368
0.00133625
0.00126475
0.00127838
0.0012124
0.00122691
0.00116569
0.00118091
0.00112382
0.0011396
0.00108609
0.00110228
0.00105189
0.00106832
0.00102067
0.00103713
0.000991721
0.00100797
0.000963937
0.000979759
0.000935921
0.000949682
0.00240576
0.00235682
0.00221755
0.00217913
0.00203893
0.00201251
0.00188401
0.00186926
0.00175315
0.00174716
0.00164146
0.00164163
0.00154489
0.00154952
0.00146077
0.00146878
0.00138714
0.00139783
0.00132242
0.00133529
0.00126527
0.00127995
0.00121458
0.00123078
0.00116941
0.00118688
0.00112894
0.00114749
0.00109249
0.00111194
0.0010594
0.00107963
0.00102904
0.00104994
0.00100066
0.00102213
0.000973234
0.00099521
0.000945811
0.000966998
0.00236896
0.00231218
0.00218201
0.00213785
0.00200643
0.00197592
0.00185618
0.00183797
0.00173025
0.00172124
0.00162317
0.00162097
0.00153079
0.00153387
0.00145049
0.00145781
0.00138039
0.00139118
0.00131896
0.00133259
0.00126489
0.00128087
0.00121706
0.001235
0.00117454
0.00119412
0.00113652
0.00115748
0.00110232
0.00112443
0.00107128
0.00109437
0.00104278
0.00106671
0.00101604
0.00104072
0.000990097
0.00101551
0.000964001
0.000989154
0.00231648
0.00225376
0.00213371
0.00208426
0.00196274
0.00192866
0.00181805
0.00179753
0.00169803
0.00168756
0.00159679
0.00159376
0.00150999
0.00151279
0.00143492
0.00144247
0.00136969
0.00138116
0.00131275
0.00132746
0.00126283
0.00128021
0.00121882
0.0012384
0.0011798
0.00120119
0.00114498
0.00116786
0.00111367
0.00113777
0.00108524
0.00111037
0.00105907
0.00108508
0.00103443
0.00106123
0.00101042
0.00103803
0.000986237
0.00101374
0.00224957
0.0021824
0.00207306
0.00201942
0.00190869
0.00187163
0.00177112
0.00174867
0.00165822
0.0016467
0.00156389
0.00156051
0.00148371
0.0014867
0.00141489
0.00142303
0.00135549
0.00136785
0.00130394
0.00131977
0.00125897
0.00127762
0.00121947
0.00124043
0.00118456
0.00120736
0.00115346
0.00117774
0.00112549
0.00115096
0.00110006
0.0011265
0.00107657
0.00110383
0.00105437
0.00108235
0.00103264
0.00106139
0.00101065
0.00103934
0.00216972
0.00209911
0.00200108
0.00194418
0.00184502
0.00180565
0.00171609
0.00169211
0.0016116
0.00159924
0.00152529
0.00152167
0.00145268
0.0014559
0.00139095
0.00139966
0.00133812
0.00135128
0.00129263
0.00130938
0.00125318
0.0012728
0.00121871
0.00124061
0.00118832
0.00121202
0.00116128
0.00118637
0.00113696
0.00116311
0.00111478
0.00114176
0.00109421
0.00112187
0.00107465
0.0011029
0.00105537
0.00108426
0.00103573
0.0010645
0.00207822
0.00200503
0.00191887
0.00185951
0.0017726
0.00173154
0.00165364
0.00162854
0.00155871
0.00154575
0.00148143
0.00147765
0.00141725
0.00142065
0.00136333
0.00137247
0.00131769
0.0013314
0.00127876
0.00129609
0.00124524
0.00126541
0.00121611
0.00123847
0.00119051
0.00121453
0.00116774
0.001193
0.00114721
0.00117337
0.0011284
0.00115521
0.00111084
0.00113814
0.00109399
0.0011217
0.00107724
0.0011054
0.00106
0.00108792
0.0019764
0.00190143
0.00182755
0.00176651
0.00169237
0.00165022
0.00158451
0.00155873
0.00150015
0.00148684
0.00143273
0.0014289
0.0013777
0.00138126
0.00133218
0.00134159
0.00129419
0.00130818
0.00126216
0.00127972
0.00123484
0.00125513
0.00121124
0.00123357
0.00119054
0.00121436
0.00117211
0.00119698
0.00115542
0.00118098
0.00113999
0.00116601
0.00112543
0.00115174
0.00111128
0.00113779
0.00109701
0.00112377
0.00108213
0.00110848
0.00186564
0.0017897
0.00172831
0.00166637
0.00160532
0.00156269
0.00150955
0.00148351
0.00143656
0.00142318
0.00137969
0.00137593
0.00133435
0.00133805
0.00129767
0.00130719
0.00126763
0.00128166
0.00124271
0.00126017
0.00122171
0.00124173
0.0012037
0.00122556
0.00118792
0.00121106
0.0011738
0.00119779
0.00116088
0.00118536
0.00114877
0.0011735
0.00113713
0.00116195
0.00112559
0.00115042
0.00111372
0.00113857
0.00110112
0.00112537
0.00174736
0.00167121
0.00162238
0.00156029
0.0015125
0.00147
0.00142962
0.00140376
0.00136866
0.00135548
0.00132286
0.00131929
0.0012876
0.00129142
0.00126
0.00126952
0.00123807
0.00125192
0.00122034
0.00123741
0.00120566
0.00122506
0.00119318
0.00121421
0.00118224
0.00120433
0.00117234
0.00119505
0.00116308
0.00118608
0.00115416
0.00117723
0.00114532
0.00116828
0.00113626
0.00115904
0.00112666
0.00114925
0.00111621
0.00113801
0.00162298
0.00154734
0.001511
0.00144949
0.00141498
0.0013732
0.00134563
0.00132038
0.0012972
0.00128449
0.00126281
0.00125956
0.00123785
0.0012418
0.00121945
0.00122885
0.00120564
0.00121912
0.00119504
0.00121147
0.00118658
0.00120509
0.00117951
0.00119939
0.00117325
0.00119397
0.0011674
0.00118853
0.00116165
0.00118289
0.00115577
0.00117689
0.00114957
0.00117042
0.00114285
0.00116335
0.00113538
0.00115549
0.00112693
0.00114605
0.00149387
0.00141942
0.00139539
0.00133516
0.00131382
0.00127335
0.00125849
0.00123429
0.00122294
0.00121098
0.00120017
0.00119736
0.00118558
0.00118965
0.00117632
0.00118552
0.00117053
0.00118346
0.00116688
0.00118247
0.00116445
0.00118182
0.00116258
0.00118107
0.00116081
0.00117991
0.00115882
0.00117814
0.00115639
0.00117564
0.00115337
0.00117236
0.00114966
0.00116823
0.00114513
0.00116319
0.00113965
0.00115713
0.00113307
0.00114937
0.00136136
0.00128873
0.00127673
0.00121849
0.00121009
0.00117151
0.00116914
0.00114641
0.00114666
0.00113572
0.00113556
0.00113333
0.00113125
0.00113545
0.00113097
0.00113987
0.00113294
0.0011452
0.00113599
0.00115055
0.00113932
0.00115536
0.00114238
0.0011593
0.00114485
0.00116216
0.0011465
0.00116386
0.00114721
0.00116434
0.00114689
0.00116363
0.00114552
0.00116171
0.00114304
0.00115859
0.00113942
0.00115421
0.00113457
0.00114798
0.00122672
0.00115651
0.00115618
0.0011006
0.00110483
0.00106872
0.0010785
0.00105768
0.00106918
0.00105954
0.00106965
0.00106811
0.00107539
0.00107974
0.00108377
0.00109231
0.00109316
0.00110461
0.00110253
0.00111592
0.00111127
0.00112583
0.00111896
0.00113415
0.0011254
0.00114078
0.00113046
0.00114573
0.00113411
0.00114904
0.00113634
0.00115076
0.00113718
0.00115095
0.00113665
0.00114965
0.00113478
0.00114683
0.00113155
0.00114202
0.00109112
0.00102389
0.00103483
0.000982607
0.000999068
0.000966038
0.000987538
0.000969077
0.000991325
0.000983252
0.00100312
0.00100241
0.00101855
0.00102305
0.00103513
0.00104324
0.00105146
0.00106199
0.00106671
0.00107878
0.00108042
0.00109336
0.00109237
0.0011057
0.00110246
0.00111582
0.00111069
0.00112381
0.00111709
0.00112978
0.00112174
0.00113384
0.0011247
0.00113608
0.00112607
0.00113655
0.00112589
0.00113526
0.00112423
0.0011318
0.000955649
0.000891938
0.000913716
0.000865592
0.000893842
0.000864554
0.000897222
0.000881599
0.00091396
0.000907751
0.000936709
0.000936967
0.000961293
0.000965973
0.0009855
0.00099313
0.00100817
0.00101768
0.00102873
0.00103933
0.00104691
0.00105805
0.00106267
0.00107396
0.00107604
0.00108719
0.00108712
0.00109793
0.00109603
0.00110636
0.00110292
0.00111265
0.00110794
0.00111693
0.00111121
0.00111929
0.00111279
0.00111971
0.00111269
0.00111779
0.00082128
0.000761663
0.000793852
0.000750672
0.00079022
0.000765425
0.000808595
0.000796337
0.00083802
0.000833987
0.000871202
0.000872579
0.00090429
0.000909195
0.000935414
0.00094253
0.000963719
0.000972105
0.00098889
0.000997873
0.0010109
0.00102001
0.00102989
0.00103881
0.00104606
0.00105457
0.00105962
0.00106758
0.00107075
0.00107804
0.00107961
0.00108609
0.00108635
0.00109189
0.00109124
0.00109564
0.00109454
0.0010976
0.0010962
0.00109757
0.00068889
0.000634007
0.00067624
0.00063905
0.000689364
0.000669961
0.000722809
0.000714516
0.000764528
0.000763022
0.000807471
0.000810162
0.000848281
0.000853527
0.000885525
0.000892216
0.000918694
0.000926048
0.000947733
0.000955188
0.000972821
0.000979968
0.00099427
0.00100081
0.00101247
0.00101819
0.00102784
0.00103259
0.0010408
0.00104446
0.00105161
0.00105402
0.0010603
0.00106109
0.00106669
0.00106507
0.00107079
0.00106501
0.00107391
0.00105983
0.000559234
0.000509906
0.000561956
0.00053217
0.000592634
0.000579735
0.000641191
0.000637529
0.000694623
0.000696016
0.000746467
0.0007507
0.000794086
0.000799864
0.000836593
0.000843086
0.000873868
0.00088052
0.000906126
0.000912554
0.000933714
0.000939648
0.000957026
0.000962264
0.000976469
0.000980848
0.000992486
0.00099588
0.00100563
0.00100798
0.00101665
0.00101801
0.00102657
0.00102718
0.00103657
0.00103687
0.00104752
0.00104792
0.00105816
0.00105949
0.000432941
0.000390464
0.000452315
0.000432031
0.000501756
0.000496734
0.00056529
0.000566926
0.000629531
0.000634112
0.00068917
0.000695073
0.000742547
0.000748942
0.000789416
0.000795822
0.000830068
0.000836198
0.000864989
0.000870689
0.000894722
0.000899941
0.000919798
0.000924576
0.000940706
0.00094517
0.000957852
0.000962234
0.000971535
0.000976225
0.000981933
0.000987685
0.000989218
0.000997613
0.00099392
0.00100793
0.000997532
0.00102077
0.00100269
0.00103133
0.000310544
0.000277574
0.000349312
0.000341956
0.000419123
0.000423643
0.000496925
0.00050444
0.000570482
0.000578364
0.000636418
0.0006439
0.000694284
0.000701095
0.000744519
0.000750545
0.000787819
0.000793016
0.000824921
0.000829296
0.000856531
0.000860124
0.000883297
0.000886172
0.000905816
0.000908044
0.000924634
0.000926285
0.000940253
0.000941398
0.000953103
0.000953919
0.000963475
0.000964557
0.000971414
0.00097419
0.000976559
0.000983126
0.000977878
0.000993436
0.000192643
0.000176483
0.000256925
0.000268221
0.000348335
0.000364192
0.000438257
0.000452052
0.000518669
0.000529818
0.000588835
0.000597706
0.000649555
0.000656512
0.000701874
0.000707175
0.00074681
0.000750636
0.00078528
0.000787769
0.000818099
0.000819358
0.000845968
0.00084609
0.000869489
0.000868563
0.000889156
0.000887308
0.000905363
0.000902843
0.000918391
0.000915763
0.000928408
0.000926785
0.000935478
0.000936477
0.000939645
0.000944975
0.000941025
0.000956181
8.10815e-05
0.000109076
0.000184977
0.000222123
0.000294841
0.000323109
0.000391832
0.000411934
0.000475307
0.000489578
0.000546981
0.000557097
0.000608541
0.00061554
0.00066139
0.000665923
0.000706701
0.000709196
0.000745463
0.000746225
0.000778517
0.000777776
0.000806573
0.000804526
0.000830235
0.000827069
0.000850007
0.000845949
0.000866299
0.000861697
0.000879412
0.000874879
0.000889505
0.00088611
0.000896619
0.000896043
0.000900808
0.000905307
0.000902199
0.000917645
4.15689e-05
0.000127311
0.000155222
0.000215853
0.000265398
0.000304594
0.00036026
0.000385969
0.00044161
0.000458658
0.000511507
0.000522705
0.000571638
0.000578637
0.000623355
0.000627169
0.000667771
0.000669065
0.00070583
0.000705065
0.000738334
0.000735856
0.000765971
0.000762059
0.000789326
0.000784238
0.000808894
0.000802918
0.000825077
0.000818616
0.000838163
0.000831873
0.000848309
0.000843299
0.000855557
0.000853626
0.000859897
0.000863548
0.000861186
0.000876447
0.000138802
0.000201987
0.000181462
0.000247024
0.000264025
0.000309285
0.00034526
0.000374949
0.000418508
0.000437696
0.000483024
0.00049504
0.000539338
0.000546239
0.000588234
0.000591323
0.000630513
0.000630653
0.00066693
0.000664721
0.000698165
0.000694053
0.000724826
0.000719165
0.000747443
0.000740552
0.000766473
0.000758689
0.000782283
0.000774058
0.000795141
0.000787185
0.000805189
0.000798701
0.000812458
0.000809365
0.000816847
0.000819795
0.000817988
0.000832857
0.000236055
0.00028685
0.000240576
0.000299744
0.000287225
0.000332922
0.000346489
0.000377935
0.000406236
0.000426679
0.000461876
0.000474353
0.000511998
0.000518676
0.000556391
0.000558739
0.0005953
0.000594328
0.000629146
0.000625569
0.000658399
0.000652749
0.000683526
0.000676227
0.000704964
0.000696389
0.000723099
0.000713635
0.00073825
0.000728398
0.000750652
0.000741182
0.000760432
0.000752625
0.000767603
0.000763489
0.000771978
0.000774311
0.000772963
0.0007873
0.000327966
0.000370479
0.000309886
0.000360923
0.000326325
0.000368888
0.000361298
0.000392385
0.000404098
0.000424819
0.000448004
0.000460546
0.000489784
0.000496114
0.000528075
0.000529687
0.000562415
0.0005604
0.000592775
0.000587934
0.000619337
0.000612275
0.000642374
0.000633575
0.00066219
0.000652075
0.000679076
0.00066808
0.000693284
0.000681955
0.000705004
0.000694169
0.000714345
0.000705358
0.000721303
0.000716276
0.000725604
0.000727363
0.000726408
0.000740068
0.000413857
0.000449847
0.000380111
0.000423683
0.0003733
0.000411278
0.000385772
0.000414987
0.000410539
0.000430653
0.00044091
0.000453126
0.000472645
0.000478516
0.000503425
0.000504334
0.000532076
0.000529121
0.000558071
0.000552102
0.000581249
0.000572927
0.000601646
0.000591504
0.000619399
0.000607906
0.00063468
0.000622311
0.000647659
0.000635005
0.000658469
0.000646411
0.000667195
0.000657152
0.000673817
0.000667968
0.000677973
0.000679184
0.000678553
0.00069138
0.00049342
0.000523812
0.000447671
0.000484654
0.000422853
0.000455932
0.000416039
0.000442535
0.000423498
0.000442331
0.000439697
0.00045125
0.000460298
0.000465626
0.000482457
0.000482724
0.000504439
0.000500683
0.000525254
0.00051833
0.000544381
0.000534983
0.000561597
0.000550299
0.000576847
0.000564157
0.000590165
0.000576597
0.000601621
0.000587805
0.000611285
0.000598152
0.000619211
0.000608239
0.000625368
0.000618785
0.000629298
0.000629981
0.000629605
0.000641438
0.000566461
0.000591823
0.000510972
0.000542093
0.000471845
0.000500164
0.000448965
0.00047238
0.000440812
0.000457939
0.00044319
0.000453831
0.000452239
0.000456978
0.000465053
0.000464777
0.000479593
0.000475213
0.000494509
0.000486845
0.000508965
0.000498718
0.000522475
0.000510246
0.000534784
0.000521114
0.000545775
0.000531212
0.000555407
0.00054062
0.000563678
0.000549643
0.000570613
0.000558858
0.000576167
0.000568956
0.000579791
0.000579974
0.000579771
0.000590447
0.000632841
0.00065357
0.000569195
0.000595024
0.000518421
0.000542268
0.000482251
0.000502517
0.000460518
0.000475726
0.000450094
0.000459678
0.000447791
0.000451944
0.000450969
0.000450287
0.000457551
0.000452773
0.000465997
0.000457862
0.000475229
0.000464418
0.000484539
0.000471661
0.000493478
0.000479098
0.000501775
0.000486472
0.000509274
0.000493752
0.000515898
0.000501172
0.000521641
0.000509285
0.000526453
0.000518749
0.000529689
0.000529422
0.000529294
0.000538655
0.000692465
0.000708869
0.000621871
0.000642858
0.000561445
0.000581138
0.000514273
0.00053148
0.000480976
0.000494217
0.000459132
0.000467618
0.000446169
0.000449795
0.000439849
0.00043894
0.000438265
0.000433363
0.000439855
0.000431583
0.000443418
0.000432401
0.000448083
0.000434918
0.000453242
0.000438503
0.000458483
0.00044277
0.000463535
0.000447583
0.000468248
0.00045311
0.000472592
0.000459878
0.000476521
0.00046851
0.000479293
0.000478663
0.000478482
0.000486381
0.000745266
0.000757602
0.000668707
0.000685225
0.000600184
0.000616042
0.000543884
0.000558216
0.000500876
0.000512226
0.000469145
0.000476583
0.000446553
0.000449763
0.000431261
0.000430341
0.000421629
0.000416925
0.000416213
0.000408204
0.00041381
0.000403033
0.000413472
0.000400481
0.000414481
0.00039984
0.000416315
0.000400633
0.000418604
0.000402636
0.000421136
0.000405965
0.000423867
0.000411128
0.000426771
0.00041872
0.000429014
0.000428164
0.000427761
0.000434065
0.000791205
0.000799702
0.0007095
0.000721888
0.000634119
0.000646473
0.000570238
0.000581948
0.000519194
0.000528813
0.000479137
0.000485643
0.000448168
0.000451109
0.000424747
0.000424058
0.000407514
0.000403371
0.000395219
0.000387948
0.000386753
0.000376773
0.00038118
0.000368967
0.000377742
0.000363818
0.000375851
0.000360809
0.000375071
0.00035967
0.000375149
0.000360484
0.000376049
0.000363765
0.000377788
0.000370082
0.000379447
0.000378606
0.000377738
0.000382345
0.000830263
0.000835179
0.000744046
0.000752694
0.000662813
0.000672025
0.000592692
0.000602071
0.000535186
0.000543278
0.000488377
0.000494117
0.00045041
0.000453291
0.000419943
0.000419809
0.000395858
0.000392747
0.000377111
0.000371192
0.000362737
0.000354285
0.00035188
0.000341257
0.000343815
0.000331462
0.000337947
0.000324407
0.000333822
0.000319826
0.000331184
0.000317812
0.000330039
0.000318912
0.000330481
0.000323686
0.000331511
0.000331026
0.000329349
0.000332206
0.000862445
0.00086431
0.000772069
0.000777402
0.000685882
0.000692336
0.000610925
0.000618333
0.000548582
0.000555494
0.000496577
0.000501936
0.000453022
0.00045632
0.000416738
0.000417749
0.000386795
0.00038543
0.000362315
0.000358589
0.000342476
0.000336507
0.000326535
0.000318549
0.000313847
0.00030418
0.000303871
0.000292991
0.000296199
0.000284775
0.000290629
0.000279676
0.000287266
0.000278303
0.000286318
0.000281203
0.000286695
0.00028697
0.000284081
0.000285091
0.000887797
0.0008874
0.000793384
0.00079571
0.000703289
0.0007075
0.000625217
0.0006314
0.000559619
0.000566171
0.000503782
0.00050959
0.00045595
0.000460468
0.00041512
0.000418055
0.00038048
0.000381652
0.000351252
0.000350572
0.000326715
0.000324184
0.000306229
0.000301948
0.00028924
0.000283426
0.00027529
0.000268314
0.000264056
0.000256517
0.000255459
0.000248301
0.000249791
0.000244361
0.000247445
0.000245154
0.000247218
0.000248817
0.000244164
0.000243139
0.000906308
0.000901319
0.000807953
0.000808399
0.000715446
0.000719668
0.000635587
0.000642557
0.000567656
0.000575297
0.000508984
0.000516173
0.00045807
0.000464352
0.000414002
0.00041918
0.000375983
0.000379959
0.000343266
0.000345992
0.000315184
0.000316651
0.000291166
0.000291408
0.000270736
0.00026985
0.000253517
0.000251709
0.000239277
0.000236945
0.00022805
0.000225923
0.000220294
0.000219477
0.000216539
0.000218079
0.000215443
0.000219546
0.000211785
0.000211218
0.000916094
0.000905215
0.000815215
0.00081453
0.00072073
0.000724972
0.000639258
0.000645535
0.000569473
0.000576057
0.000508976
0.000515369
0.000456294
0.000462427
0.000410437
0.000416277
0.00037057
0.000376049
0.000335946
0.000340991
0.000305919
0.000310462
0.000279948
0.000283941
0.000257598
0.000261034
0.000238558
0.000241506
0.000222698
0.000225364
0.000210226
0.000212963
0.000201802
0.000204921
0.000197874
0.000201003
0.000196073
0.000197895
0.000189655
0.000186619
0.000148911
0.000170202
0.000170759
0.000193578
0.000206409
0.000230119
0.000251356
0.00027529
0.000301407
0.000325169
0.000353888
0.000377353
0.000407391
0.000430463
0.00046112
0.000483628
0.00051456
0.000536273
0.000567348
0.000588006
0.000619217
0.000638553
0.000669961
0.000687711
0.000719401
0.000735321
0.000767362
0.000781238
0.000813649
0.000825321
0.000858018
0.000867419
0.000900132
0.00090724
0.000939497
0.000943922
0.000975229
0.000976682
0.00100326
0.00101734
0.000147933
0.000170816
0.000163762
0.000196149
0.000198395
0.000233234
0.000242065
0.000277297
0.000290622
0.000325367
0.00034165
0.000375512
0.00039371
0.00042648
0.000445937
0.000477456
0.000497791
0.000527892
0.000548916
0.000577415
0.00059906
0.000625763
0.000648035
0.000672743
0.000695692
0.000718208
0.000741892
0.00076202
0.000786491
0.000804027
0.000829334
0.000844062
0.000870254
0.000881967
0.00090894
0.000917512
0.000944881
0.000951258
0.000978589
0.00098554
0.000157269
0.000179388
0.000171761
0.000203699
0.000203849
0.00023882
0.000244361
0.000280297
0.000289517
0.000325566
0.000337301
0.00037295
0.000386383
0.000421273
0.00043585
0.000469719
0.000485096
0.000517731
0.000533726
0.000564927
0.000581469
0.000611039
0.000628132
0.000655868
0.000673568
0.000699255
0.000717643
0.000741055
0.000760208
0.000781141
0.000801088
0.000819479
0.000840072
0.000856164
0.00087696
0.000891371
0.00091206
0.000924718
0.000946332
0.000954368
0.000167002
0.000187912
0.000180233
0.00021016
0.00020993
0.000242641
0.000247491
0.000281327
0.00028959
0.00032381
0.000334389
0.000368502
0.000380655
0.000414272
0.000427496
0.000460311
0.000474282
0.000506052
0.000520577
0.000551096
0.000566081
0.000595159
0.000610578
0.000638034
0.0006539
0.000679559
0.000695896
0.000719616
0.000736428
0.000758147
0.000775397
0.000795171
0.000812824
0.000830774
0.00084896
0.000865001
0.000884046
0.000897186
0.000917362
0.000924796
0.00017613
0.000195605
0.000187755
0.000215578
0.00021515
0.000245415
0.000250092
0.00028142
0.000289522
0.000321265
0.000331686
0.000363404
0.000375405
0.000406738
0.000419821
0.000450476
0.000464309
0.000494049
0.000508417
0.000537048
0.000551822
0.000579179
0.000594288
0.000620227
0.000635637
0.000660041
0.000675736
0.000698529
0.000714506
0.000735645
0.000751952
0.000771384
0.00078817
0.000805781
0.000823254
0.000838779
0.00085695
0.000869664
0.000888135
0.000896096
0.00018576
0.000203783
0.000195724
0.000221499
0.000220702
0.000248704
0.000253076
0.000282043
0.000289942
0.000319275
0.00032958
0.000358886
0.000370838
0.000399805
0.000412885
0.000441256
0.000455107
0.000482674
0.000497051
0.000523648
0.000538388
0.000563877
0.000578874
0.000603146
0.000618337
0.000641305
0.000656664
0.000678257
0.000693804
0.000713953
0.000729753
0.000748383
0.000764541
0.00078157
0.000798144
0.000813382
0.000830196
0.000843104
0.000859679
0.000868884
0.000196556
0.000213126
0.00020496
0.000228682
0.000227404
0.000253246
0.000257094
0.000283867
0.00029132
0.000318435
0.000328394
0.000355484
0.000367176
0.000393966
0.000406843
0.000433113
0.000446789
0.000472365
0.000486569
0.00051131
0.000525851
0.000549644
0.000564393
0.000587148
0.000602025
0.000623663
0.000638632
0.000659088
0.000674143
0.000693365
0.000708529
0.000726489
0.000741802
0.000758461
0.000773935
0.00078911
0.000804585
0.000817787
0.000832833
0.00084299
0.000208377
0.000223559
0.00021541
0.000237117
0.000235345
0.0002591
0.00026228
0.000286988
0.000293782
0.000318858
0.000328235
0.00035332
0.000364513
0.000389349
0.000401796
0.000426187
0.00043948
0.000463275
0.000477118
0.000500197
0.000514379
0.000536647
0.000551021
0.000572398
0.000586866
0.000607287
0.00062179
0.000641202
0.000655714
0.000674075
0.000688602
0.000705884
0.000720458
0.000736604
0.000751238
0.000766065
0.000780619
0.000793677
0.000807772
0.000818167
0.000220828
0.000234761
0.000226711
0.000246533
0.000244304
0.000266081
0.000268542
0.000291305
0.000297317
0.000320503
0.000329136
0.000352387
0.00036291
0.000385974
0.000397827
0.000420518
0.000433281
0.00045546
0.000468821
0.00049038
0.00050411
0.000524967
0.000538901
0.000558987
0.000573008
0.00059227
0.000606304
0.000624695
0.000638703
0.000656183
0.00067016
0.000686685
0.000700651
0.00071616
0.000730099
0.000744479
0.00075819
0.000771198
0.00078418
0.000795179
0.000233597
0.000246443
0.000238534
0.000256661
0.00025403
0.000273981
0.000275733
0.000296682
0.000301871
0.000323295
0.000331104
0.000352656
0.00036241
0.00038384
0.000394998
0.000416123
0.000428264
0.000448949
0.000461752
0.000481898
0.000495119
0.000514649
0.000528109
0.000546964
0.000560531
0.000578663
0.000592246
0.000609617
0.00062316
0.000639738
0.000653214
0.000668968
0.000682369
0.000697257
0.000710545
0.000724476
0.000737478
0.000750273
0.000762546
0.000773902
0.000246502
0.000258407
0.000250664
0.000267291
0.000264316
0.000282615
0.000283704
0.000302982
0.000307357
0.000327145
0.000334105
0.000354077
0.000363013
0.000382923
0.000393326
0.000412994
0.000424452
0.000443745
0.000455934
0.000474755
0.000487425
0.000505703
0.000518661
0.00053634
0.000549443
0.00056648
0.000579622
0.000595985
0.000609091
0.000624758
0.000637779
0.00065273
0.000665639
0.000679839
0.000692599
0.000705965
0.000718441
0.00073083
0.000742627
0.000753847
0.000259431
0.000270514
0.000262955
0.000278264
0.000275003
0.000291823
0.000292309
0.000310064
0.000313664
0.000331944
0.000338066
0.000356569
0.000364673
0.000383167
0.000392783
0.00041109
0.000421827
0.000439816
0.000451353
0.000468929
0.000481012
0.000498105
0.000510535
0.000527092
0.000539715
0.000555698
0.000568396
0.000583775
0.000596463
0.000611213
0.000623832
0.000637932
0.000650442
0.000663869
0.000676215
0.000688946
0.000700965
0.000712957
0.000724226
0.000735455
0.000272306
0.000282666
0.000275303
0.000289449
0.000285959
0.000301461
0.00030141
0.000317788
0.000320667
0.000337565
0.00034288
0.000360026
0.000367307
0.000384484
0.000393304
0.000410342
0.000420334
0.000437103
0.000447958
0.000464365
0.000475832
0.000491807
0.000503682
0.000519175
0.000531296
0.000546271
0.000558513
0.00057294
0.000585205
0.000599064
0.000611278
0.000624556
0.000636657
0.000649356
0.000661276
0.000673413
0.000685002
0.00069657
0.000707478
0.00071843
0.000285067
0.000294784
0.000287626
0.000300744
0.000297075
0.000311402
0.000310881
0.000326018
0.000328237
0.000343876
0.000348429
0.000364327
0.000370809
0.000386767
0.000394798
0.000410654
0.000419894
0.000435523
0.00044568
0.00046099
0.000471818
0.00048674
0.000498037
0.000512523
0.000524122
0.000538136
0.000549904
0.000563423
0.00057525
0.000588259
0.000600059
0.000612555
0.000624257
0.000636255
0.000647791
0.000659325
0.000670554
0.00068166
0.000692205
0.000702916
0.000297664
0.000306803
0.000299855
0.000312059
0.000308255
0.000321535
0.000320608
0.000334628
0.000336252
0.000350747
0.00035459
0.000369345
0.000375065
0.000389897
0.000397159
0.000411917
0.000420411
0.000434976
0.00044443
0.000458711
0.00046889
0.000482821
0.000493524
0.000507057
0.00051812
0.00053122
0.000542503
0.00055515
0.000566538
0.000578721
0.000590121
0.000601843
0.000613182
0.000624462
0.000635681
0.000646541
0.000657535
0.000667957
0.000678433
0.000688447
0.000310053
0.000318668
0.000311932
0.000323319
0.000319418
0.000331763
0.000330487
0.000343503
0.000344594
0.000358053
0.000361242
0.000374954
0.000379954
0.000393752
0.000400272
0.000414015
0.000421778
0.000435353
0.000444108
0.000457428
0.000466952
0.000479952
0.000490054
0.000502686
0.000513203
0.000525434
0.000536227
0.000548036
0.000558988
0.000570366
0.00058138
0.000592329
0.000603328
0.000613867
0.000624784
0.000634947
0.000645661
0.000655477
0.000665665
0.000675291
0.000322194
0.000330332
0.000323805
0.00033446
0.000330493
0.000342
0.000340427
0.00035254
0.000353158
0.000365678
0.000368271
0.00038103
0.000385359
0.000398206
0.000404021
0.000416826
0.000423882
0.000436538
0.000444606
0.000457029
0.000465903
0.00047803
0.000487528
0.000499311
0.000509275
0.000520682
0.000530976
0.000541985
0.000552492
0.000563095
0.000573715
0.000583917
0.00059457
0.000604395
0.000615006
0.000624493
0.000634945
0.00064413
0.00065415
0.000663182
0.000334049
0.000341748
0.000335428
0.000345423
0.000341415
0.000352169
0.000350345
0.000361644
0.000361844
0.000373514
0.000375565
0.000387457
0.000391164
0.00040314
0.000408289
0.000420231
0.000426607
0.000438412
0.00044581
0.0004574
0.000465631
0.000476943
0.000485837
0.000496825
0.000506231
0.000516861
0.000526647
0.000536899
0.000546948
0.000556814
0.000567025
0.000576515
0.000586801
0.000595948
0.00060623
0.000615088
0.000625251
0.000633876
0.000643647
0.000652217
0.000345581
0.000352874
0.000346755
0.000356152
0.000352125
0.0003622
0.000360165
0.00037073
0.00037056
0.000381462
0.000383023
0.000394126
0.000397258
0.000408439
0.000412962
0.00042411
0.000429837
0.000440858
0.000447608
0.000458425
0.000466026
0.000476579
0.000484873
0.000495117
0.000503963
0.000513866
0.000523136
0.000532676
0.000542257
0.000551426
0.00056122
0.000570027
0.000579947
0.000588423
0.000598398
0.00060659
0.000616525
0.000624467
0.000634138
0.000641968
0.000356752
0.000363667
0.000357743
0.000366596
0.000362568
0.000372027
0.000369816
0.000379717
0.000379223
0.000389427
0.000390547
0.000400932
0.000403536
0.00041399
0.000417928
0.000428348
0.000433461
0.000443758
0.000449885
0.000459987
0.000466974
0.000476823
0.000484527
0.000494078
0.000502365
0.000511587
0.000520338
0.000529209
0.000538316
0.000546828
0.000556196
0.000564354
0.000573903
0.000581729
0.000591392
0.000598922
0.000608603
0.000615865
0.000625341
0.000632506
0.000367523
0.000374085
0.00036835
0.000376705
0.000372689
0.00038159
0.000379232
0.00038853
0.000387753
0.000397324
0.000398046
0.000407779
0.000409899
0.00041969
0.000423083
0.000432837
0.000437368
0.000447001
0.000452531
0.000461974
0.000468366
0.000477564
0.000484688
0.000493596
0.000501329
0.000509917
0.000518147
0.000526394
0.000535017
0.000542917
0.000551839
0.0005594
0.000568538
0.000575787
0.000585064
0.000592045
0.000601353
0.000608119
0.000617219
0.000624007
0.000377856
0.000384086
0.000378531
0.00038643
0.000382436
0.000390828
0.000388349
0.0003971
0.000396074
0.00040507
0.000405436
0.000414575
0.000416252
0.000425438
0.000428325
0.000437469
0.000441454
0.000450478
0.000455439
0.000464276
0.000470094
0.000478691
0.000485248
0.000493563
0.000500749
0.00050875
0.00051646
0.000524128
0.000532263
0.000539591
0.00054806
0.000555059
0.000563781
0.000570482
0.000579385
0.000585827
0.000594831
0.000601025
0.000609974
0.000616015
0.000387707
0.000393623
0.000388241
0.000395719
0.000391757
0.000399684
0.000397106
0.000405358
0.000404115
0.000412587
0.000412633
0.000421231
0.000422504
0.000431139
0.000433558
0.000442145
0.000445616
0.000454083
0.000458503
0.000466785
0.000472051
0.000480096
0.000486104
0.00049387
0.00050052
0.000507978
0.000515174
0.000522304
0.000529956