/*--------------------------------*- C++ -*----------------------------------*\
| =========                 |                                                 |
| \\      /  F ield         | OpenFOAM: The Open Source CFD Toolbox           |
|  \\    /   O peration     | Version:  v2012                                 |
|   \\  /    A nd           | Website:  www.openfoam.com                      |
|    \\/     M anipulation  |                                                 |
\*---------------------------------------------------------------------------*/
FoamFile
{
    version     2.0;
    format      ascii;
    class       volSymmTensorField;
    location    "4";
    object      epsilon;
}
// * * * * * * * * * * * * * * * * * * * * * * * * * * * * * * * * * * * * * //

dimensions      [0 0 0 0 0 0 0];


internalField   nonuniform List<symmTensor> 
8000
(
(0.00287336 -9.17344e-05 0 -0.00122215 0 0)
(0.00290057 -5.49612e-05 -7.20721e-20 -0.001129 1.91306e-19 0)
(0.00265417 -8.72661e-05 1.53157e-18 -0.00111653 6.66855e-20 0)
(0.00270279 -3.75141e-05 1.55911e-18 -0.00103258 7.47677e-20 0)
(0.00247134 -7.94814e-05 1.41851e-18 -0.000985322 5.88614e-20 0)
(0.00251922 -2.26345e-05 3.76247e-19 -0.000921973 -4.11407e-19 0)
(0.00231332 -7.06529e-05 -1.32035e-18 -0.000869719 -5.44486e-20 0)
(0.00235505 -1.13317e-05 -8.43991e-19 -0.000826481 1.40946e-19 0)
(0.00217501 -6.22232e-05 0 -0.000778062 0 0)
(0.00221085 -2.27749e-06 1.42322e-18 -0.000747988 4.62029e-19 0)
(0.0020527 -5.43543e-05 2.31522e-18 -0.000704517 1.03204e-19 0)
(0.00208433 5.44668e-06 1.0141e-18 -0.000682121 -2.62646e-19 0)
(0.00194394 -4.71229e-05 6.65033e-19 -0.000643588 -1.06318e-19 0)
(0.00197267 1.21029e-05 6.86115e-19 -0.000626138 -8.19543e-20 0)
(0.00184694 -4.06304e-05 -1.25133e-18 -0.000592402 1.85173e-19 0)
(0.00187345 1.77677e-05 -9.05457e-19 -0.000578671 1.02065e-19 0)
(0.00176017 -3.48934e-05 -1.56354e-18 -0.000549381 3.0758e-20 0)
(0.00178481 2.25435e-05 -1.6159e-18 -0.000538663 -1.95715e-19 0)
(0.00168227 -2.98524e-05 -1.09557e-18 -0.000513336 -3.64867e-19 0)
(0.00170525 2.65612e-05 -6.84162e-19 -0.000505082 -1.0214e-19 0)
(0.00161205 -2.5424e-05 -5.29663e-19 -0.000483231 6.37152e-20 0)
(0.00163356 2.99473e-05 -1.55336e-18 -0.000476981 -2.53657e-19 0)
(0.00154849 -2.15304e-05 -1.67613e-18 -0.000458165 -9.82701e-20 0)
(0.00156867 3.28105e-05 -1.36349e-18 -0.000453544 -4.71939e-20 0)
(0.0014907 -1.81063e-05 -3.21298e-19 -0.00043737 -1.00246e-19 0)
(0.00150968 3.5241e-05 2.90749e-20 -0.000434083 6.69032e-20 0)
(0.00143787 -1.51012e-05 -1.48483e-19 -0.000420184 1.41943e-19 0)
(0.0014558 3.73086e-05 -2.29078e-19 -0.000418004 3.67945e-21 0)
(0.00138925 -1.24882e-05 -2.97877e-19 -0.000406046 -9.09433e-20 0)
(0.00140632 3.90548e-05 -5.1735e-19 -0.00040476 -8.20455e-20 0)
(0.00134411 -1.02828e-05 0 -0.000394495 0 0)
(0.00136065 4.04877e-05 5.29577e-19 -0.000393792 1.38836e-19 0)
(0.00130171 -8.56198e-06 6.78408e-19 -0.000385169 4.8108e-20 0)
(0.00131825 4.16151e-05 4.10448e-19 -0.000384453 -1.53118e-20 0)
(0.00126137 -7.4519e-06 3.8373e-19 -0.000377725 -3.36667e-20 0)
(0.00127845 4.25791e-05 6.58575e-19 -0.000375941 8.03181e-20 0)
(0.00122251 -7.0371e-06 -4.75534e-19 -0.00037158 1.42634e-19 0)
(0.00123992 4.39097e-05 -8.39428e-19 -0.000367525 -8.5841e-20 0)
(0.00118441 -7.23605e-06 -5.01456e-19 -0.00036609 -1.51638e-19 0)
(0.001196 4.73213e-05 2.02517e-19 -0.000362667 3.37664e-20 0)
(0.00286699 -0.000259049 2.33715e-19 -0.00119759 -9.57886e-20 2.78561e-34)
(0.00285972 -0.000201336 2.42138e-18 -0.00112928 9.95648e-20 0)
(0.00264627 -0.000217841 -8.96934e-19 -0.00110281 1.71187e-19 0)
(0.00266097 -0.000161311 -9.04067e-19 -0.00103138 -1.78439e-20 0)
(0.00246372 -0.000179594 -1.43282e-18 -0.000975005 -1.43651e-19 0)
(0.00248366 -0.00012357 -8.49827e-19 -0.000921317 -3.30119e-20 0)
(0.00230568 -0.000146433 -1.33246e-18 -0.000861547 -1.41096e-19 0)
(0.00232681 -9.14178e-05 -7.99545e-19 -0.000827692 -1.79097e-19 0)
(0.00216838 -0.000118576 -1.98969e-18 -0.000770177 -1.90273e-19 0)
(0.00218834 -6.43596e-05 -1.0034e-18 -0.000751469 2.30178e-19 0)
(0.00204785 -9.4848e-05 9.11135e-19 -0.00069623 -2.09279e-19 0)
(0.00206584 -4.13111e-05 4.90172e-19 -0.000687798 -2.83674e-19 0)
(0.00194108 -7.4313e-05 0 -0.000634983 0 0)
(0.00195718 -2.15085e-05 -4.25029e-19 -0.00063358 -9.38027e-20 0)
(0.00184593 -5.64389e-05 -1.03552e-18 -0.000583657 2.45901e-19 0)
(0.00186043 -4.45687e-06 -2.31376e-18 -0.000587337 -2.34146e-19 0)
(0.00176074 -4.08745e-05 -6.33615e-20 -0.000540531 -1.81649e-19 0)
(0.00177394 1.02179e-05 3.96352e-19 -0.000548096 1.72166e-19 0)
(0.00168416 -2.7327e-05 1.33329e-18 -0.000504307 -1.87891e-20 0)
(0.00169625 2.28348e-05 1.76982e-18 -0.000514959 2.62589e-19 0)
(0.00161504 -1.55365e-05 7.68369e-19 -0.000473913 3.66381e-19 0)
(0.00162616 3.36726e-05 -3.30517e-20 -0.000487071 -7.60211e-20 0)
(0.0015524 -5.27698e-06 -8.47048e-19 -0.000448455 -1.38979e-19 0)
(0.00156265 4.29711e-05 -5.4224e-19 -0.000463657 -9.30482e-20 0)
(0.00149535 3.64148e-06 -6.26681e-19 -0.000427188 -1.91479e-19 0)
(0.00150486 5.09333e-05 -3.79315e-20 -0.000444026 -6.93547e-20 0)
(0.00144315 1.13728e-05 -2.20616e-19 -0.000409479 -2.04585e-20 0)
(0.00145203 5.7731e-05 1.68561e-19 -0.000427574 2.51131e-19 0)
(0.00139515 1.80394e-05 9.60289e-19 -0.00039478 1.5991e-19 0)
(0.00140347 6.3516e-05 3.19286e-19 -0.000413781 -1.42104e-19 0)
(0.0013508 2.37428e-05 -4.63587e-19 -0.000382615 -8.06956e-20 0)
(0.00135854 6.84412e-05 -1.74713e-19 -0.000402235 3.42316e-20 0)
(0.00130954 2.85836e-05 4.00519e-19 -0.000372533 2.03629e-20 0)
(0.00131656 7.27016e-05 1.69125e-19 -0.000392589 -3.04299e-20 0)
(0.0012707 3.26925e-05 0 -0.000363994 0 0)
(0.0012767 7.66006e-05 2.71698e-19 -0.000384371 1.26627e-19 0)
(0.00123314 3.62441e-05 7.02537e-19 -0.000356167 2.13241e-19 0)
(0.00123778 8.05298e-05 -4.77486e-19 -0.000376751 -1.88849e-19 0)
(0.00119516 3.93295e-05 -4.0464e-19 -0.000348435 -8.365e-20 0)
(0.00119461 8.47746e-05 -9.66986e-19 -0.000370886 -2.97977e-19 0)
(0.00280877 -0.000411368 -3.32587e-19 -0.00116422 1.81513e-19 1.00748e-33)
(0.00280325 -0.000339886 -1.86975e-18 -0.0010999 2.66342e-19 0)
(0.00260304 -0.000344416 -1.73606e-19 -0.00107055 2.63439e-19 0)
(0.00260825 -0.000277427 -8.8847e-19 -0.00100915 -5.93409e-20 0)
(0.00242956 -0.000281363 7.53249e-19 -0.000950687 -2.4004e-19 0)
(0.00243758 -0.000218617 2.12945e-19 -0.00090564 -2.07006e-19 0)
(0.00227797 -0.000226191 3.7146e-19 -0.000846222 3.04185e-19 0)
(0.00228883 -0.000167369 -7.63977e-19 -0.000817391 3.11453e-20 0)
(0.00214555 -0.000179497 -1.89266e-19 -0.000761965 1.44034e-19 0)
(0.00215817 -0.000123566 -7.18895e-19 -0.000745522 6.25448e-21 0)
(0.00202909 -0.000139925 -2.81981e-19 -0.000693019 -2.3439e-19 0)
(0.00204235 -8.60723e-05 1.14561e-18 -0.000685584 1.42324e-19 0)
(0.00192589 -0.000106068 -4.37399e-19 -0.000635343 -1.11262e-19 0)
(0.00193913 -5.38543e-05 9.03564e-19 -0.000634628 3.44373e-19 0)
(0.00183389 -7.68935e-05 1.45558e-18 -0.000586731 3.36739e-19 0)
(0.00184682 -2.61052e-05 2.04446e-19 -0.000591147 -7.67731e-20 0)
(0.00175145 -5.16445e-05 0 -0.000545769 0 0)
(0.00176401 -2.17674e-06 7.94596e-19 -0.00055415 3.17902e-19 0)
(0.00167724 -2.97367e-05 -6.62552e-19 -0.000511296 -1.18018e-19 0)
(0.00168945 1.84677e-05 -4.27537e-20 -0.000522771 -7.9055e-20 0)
(0.00161013 -1.07026e-05 -4.98554e-20 -0.000482303 -7.79687e-20 0)
(0.00162204 3.62775e-05 3.31936e-19 -0.000496231 1.11048e-19 0)
(0.00154918 5.83862e-06 3.1501e-19 -0.000457939 9.46575e-20 0)
(0.00156084 5.16319e-05 -6.71419e-19 -0.000473839 -2.89006e-19 0)
(0.00149359 2.02012e-05 -1.46191e-18 -0.000437499 -2.65036e-19 0)
(0.00150503 6.48546e-05 -1.23323e-18 -0.000454999 -2.77297e-19 0)
(0.00144265 3.26473e-05 -6.67579e-19 -0.000420395 -3.17199e-19 0)
(0.00145389 7.62261e-05 4.78241e-20 -0.000439197 6.81628e-20 0)
(0.00139572 4.33965e-05 4.84917e-19 -0.000406125 1.37777e-19 0)
(0.00140677 8.59987e-05 1.24596e-19 -0.000425993 -8.04212e-20 0)
(0.00135219 5.26334e-05 -4.68378e-19 -0.000394249 -1.3838e-19 0)
(0.00136307 9.44199e-05 -4.21956e-19 -0.000415001 -8.91812e-20 0)
(0.00131144 6.05196e-05 -6.41365e-19 -0.000384329 -1.59018e-19 0)
(0.00132213 0.00010177 -5.06431e-19 -0.000405826 -2.19638e-19 0)
(0.00127277 6.72155e-05 -5.71276e-19 -0.000375769 -2.89738e-19 0)
(0.00128318 0.000108391 3.3254e-19 -0.000397894 2.2203e-19 0)
(0.00123528 7.2894e-05 6.99228e-19 -0.000367645 2.81632e-19 0)
(0.0012452 0.000114623 1.54701e-19 -0.000390405 2.06812e-22 0)
(0.00119799 7.76596e-05 0 -0.000359275 0 0)
(0.00120328 0.000120651 1.03932e-19 -0.000385461 7.62279e-20 0)
(0.00273026 -0.000554949 0 -0.00110718 0 0)
(0.00272085 -0.000469032 0 -0.00105135 0 0)
(0.0025347 -0.000461339 6.87681e-19 -0.00102516 1.69399e-19 0)
(0.00253696 -0.000384413 -6.73555e-19 -0.000970479 -1.74169e-19 0)
(0.00237194 -0.000375641 -6.24003e-19 -0.000915229 -1.61665e-19 0)
(0.00237696 -0.000306044 0 -0.000876988 0 0)
(0.00223103 -0.000301584 0 -0.000819983 0 0)
(0.00223829 -0.000237853 5.39629e-20 -0.000797525 1.15084e-19 0)
(0.00210782 -0.000238766 1.94036e-18 -0.000744092 3.40603e-19 0)
(0.00211691 -0.000179294 8.65404e-19 -0.000732804 -5.62317e-20 0)
(0.00199894 -0.000185203 -1.5784e-19 -0.000682288 8.75719e-20 0)
(0.00200943 -0.00012889 -7.1019e-19 -0.000678654 -1.68205e-19 0)
(0.00190203 -0.000139188 -6.75771e-19 -0.000630445 -1.69567e-19 0)
(0.00191351 -8.53993e-05 -1.26179e-19 -0.000632472 1.53904e-19 0)
(0.00181533 -9.94831e-05 6.46033e-19 -0.000586495 1.7547e-19 0)
(0.00182745 -4.78433e-05 1.27015e-19 -0.000592977 -1.31878e-19 0)
(0.00173743 -6.51317e-05 -6.39572e-20 -0.000549248 -8.3306e-20 0)
(0.00174994 -1.53973e-05 5.49699e-20 -0.000559302 7.94438e-20 0)
(0.00166711 -3.53497e-05 7.89701e-19 -0.00051775 3.39737e-19 0)
(0.00167988 1.26497e-05 -7.76349e-19 -0.000530671 -3.61588e-19 0)
(0.00160338 -9.48834e-06 -5.70192e-19 -0.000491156 -1.86578e-19 0)
(0.00161631 3.69043e-05 5.54412e-19 -0.000506377 3.65845e-19 0)
(0.00154538 1.29868e-05 1.03577e-18 -0.000468729 3.0508e-19 0)
(0.00155841 5.788e-05 6.73168e-19 -0.000485807 1.26283e-19 0)
(0.00149235 3.2517e-05 4.44165e-19 -0.000449844 2.44709e-19 0)
(0.00150545 7.60137e-05 1.83718e-19 -0.000468432 2.01827e-19 0)
(0.00144365 4.94712e-05 5.09929e-19 -0.000433968 1.91398e-19 0)
(0.00145679 9.1683e-05 1.70985e-19 -0.000453796 6.99342e-21 0)
(0.0013987 6.41618e-05 -4.32248e-19 -0.000420641 -1.25203e-19 0)
(0.00141183 0.000105225 -7.67928e-19 -0.000441507 -3.35864e-19 0)
(0.00135693 7.68576e-05 -7.36101e-19 -0.000409448 -3.06794e-19 0)
(0.00137002 0.000116953 -7.94484e-19 -0.000431214 -4.0062e-19 0)
(0.00131775 8.77966e-05 -9.21376e-19 -0.000399963 -3.85896e-19 0)
(0.00133074 0.000127188 -8.7133e-19 -0.000422532 -3.51178e-19 0)
(0.00128048 9.72078e-05 -5.32983e-19 -0.000391608 -2.8413e-19 0)
(0.00129329 0.000136277 5.28082e-19 -0.000414878 3.08429e-19 0)
(0.00124424 0.000105328 6.04621e-20 -0.000383501 6.38231e-20 0)
(0.00125677 0.000144586 2.25112e-19 -0.000407483 1.19293e-19 0)
(0.00120802 0.000112302 -5.72287e-19 -0.00037507 -2.36759e-19 0)
(0.00121629 0.000152451 -5.77152e-19 -0.0004029 -3.13119e-19 0)
(0.00262404 -0.000686175 9.01904e-22 -0.00103254 -1.43661e-21 7.77938e-39)
(0.00261281 -0.000587285 8.44144e-19 -0.000990095 3.37998e-19 0)
(0.0024451 -0.000568832 1.15665e-19 -0.000965846 1.46077e-19 0)
(0.00244487 -0.000482216 -7.69338e-19 -0.000920849 -3.2193e-19 0)
(0.00229613 -0.000462183 -7.43547e-19 -0.000870046 -3.12708e-19 0)
(0.00229981 -0.000385875 1.32871e-18 -0.000839021 4.94895e-19 0)
(0.0021679 -0.000370899 7.79295e-19 -0.000786716 1.87322e-19 0)
(0.00217436 -0.000302514 6.97268e-19 -0.000770135 8.67569e-20 0)
(0.00205598 -0.000293805 -5.33204e-19 -0.000720774 -1.75648e-19 0)
(0.00206449 -0.000231013 -6.02148e-19 -0.000714459 -2.78069e-19 0)
(0.00195694 -0.000228057 -9.00685e-20 -0.000667334 -9.30303e-20 0)
(0.00196706 -0.000169365 1.04621e-18 -0.000667859 4.50364e-19 0)
(0.00186849 -0.000171439 5.42074e-19 -0.000622531 2.54625e-19 0)
(0.0018799 -0.000116021 9.02537e-19 -0.00062793 3.57834e-19 0)
(0.00178902 -0.000122447 0 -0.000584461 0 0)
(0.00180146 -6.98178e-05 4.20502e-19 -0.000593608 1.75776e-19 0)
(0.00171729 -7.99611e-05 -9.4236e-19 -0.000552068 -3.15521e-19 0)
(0.00173052 -2.97929e-05 -1.64524e-19 -0.000564206 4.94253e-21 0)
(0.00165229 -4.30602e-05 1.52823e-19 -0.000524543 2.94752e-21 0)
(0.00166612 4.89171e-06 -7.04581e-19 -0.000539096 -4.75612e-19 0)
(0.00159316 -1.09694e-05 -6.51906e-19 -0.000501178 -3.08387e-19 0)
(0.00160742 3.49607e-05 -7.95915e-19 -0.00051769 -2.77395e-19 0)
(0.00153914 1.69628e-05 1.04212e-18 -0.000481362 4.10715e-19 0)
(0.00155371 6.10338e-05 3.99166e-19 -0.000499466 1.11876e-19 0)
(0.00148959 4.12831e-05 -2.41999e-19 -0.00046457 1.75528e-20 0)
(0.00150438 8.36407e-05 -6.42811e-19 -0.00048397 -2.15798e-19 0)
(0.00144392 6.24515e-05 -7.45099e-19 -0.000450351 -3.21974e-19 0)
(0.00145886 0.000103238 -2.28119e-19 -0.000470811 -9.97288e-20 0)
(0.00140162 8.08572e-05 -3.47665e-19 -0.000438306 -2.09049e-19 0)
(0.00141665 0.000120229 2.16628e-19 -0.000459646 8.75521e-20 0)
(0.00136216 9.68311e-05 -4.85833e-19 -0.000428069 -2.43616e-19 0)
(0.00137723 0.000134979 -7.54703e-19 -0.000450172 -4.09315e-19 0)
(0.001325 0.000110662 -4.70563e-19 -0.00041926 -2.43781e-19 0)
(0.00134006 0.000147844 -7.89242e-19 -0.000442053 -4.7321e-19 0)
(0.00128951 0.000122629 -1.15451e-18 -0.000411339 -6.2313e-19 0)
(0.0013045 0.000159204 -6.14016e-19 -0.000434778 -3.05081e-19 0)
(0.00125496 0.000133029 -6.56808e-20 -0.000403466 -6.48129e-20 0)
(0.00126976 0.000169443 -2.31527e-19 -0.00042769 -1.43401e-19 0)
(0.00122045 0.000142038 4.43325e-19 -0.000395183 2.6224e-19 0)
(0.00123109 0.00017901 2.20421e-19 -0.000423418 1.40769e-19 0)
(0.00249292 -0.000801432 -7.23053e-19 -0.000944069 1.10581e-19 -1.10675e-34)
(0.00248279 -0.00069182 4.50335e-21 -0.000916724 1.65767e-19 0)
(0.0023354 -0.000664196 0 -0.000895179 0 0)
(0.00233431 -0.000569199 -1.61921e-18 -0.000861853 -6.38441e-19 0)
(0.00220396 -0.000539631 -1.59808e-18 -0.000816412 -5.26419e-19 0)
(0.00220721 -0.000457423 -6.95297e-19 -0.000793813 -1.17657e-19 0)
(0.0020911 -0.000433463 6.48668e-19 -0.000747421 1.36355e-19 0)
(0.00209759 -0.000361057 1.89204e-19 -0.000737038 2.45993e-20 0)
(0.00199247 -0.000344012 6.6145e-19 -0.000693229 2.85107e-19 0)
(0.00200141 -0.000278507 -1.26405e-18 -0.000691682 -5.73612e-19 0)
(0.00190495 -0.000267769 -1.32454e-18 -0.000649476 -5.31847e-19 0)
(0.00191579 -0.000207301 -1.6992e-18 -0.000653811 -6.72447e-19 0)
(0.00182647 -0.000202067 -1.3776e-18 -0.00061275 -4.5237e-19 0)
(0.00183882 -0.000145591 -2.87657e-18 -0.000621224 -1.153e-18 0)
(0.00175563 -0.000145128 -1.18866e-18 -0.000581439 -5.33107e-19 0)
(0.00176919 -9.20268e-05 -1.42196e-19 -0.00059303 -1.3538e-20 0)
(0.00169136 -9.56539e-05 1.48333e-18 -0.000554688 6.05259e-19 0)
(0.00170588 -4.55118e-05 1.74564e-18 -0.000568707 8.39156e-19 0)
(0.0016328 -5.25927e-05 1.54631e-18 -0.000531841 7.81618e-19 0)
(0.00164807 -5.1002e-06 9.8642e-19 -0.000547782 4.86446e-19 0)
(0.00157924 -1.50651e-05 7.3173e-19 -0.000512325 3.24557e-19 0)
(0.00159507 3.0024e-05 1.53124e-18 -0.0005298 7.83958e-19 0)
(0.00153005 1.76682e-05 3.11226e-19 -0.000495646 1.74364e-19 0)
(0.00154631 6.05604e-05 8.3047e-19 -0.000514353 4.2246e-19 0)
(0.00148469 4.62304e-05 3.18927e-19 -0.000481384 1.73784e-19 0)
(0.00150126 8.71081e-05 -3.17692e-19 -0.000501084 -1.83427e-19 0)
(0.00144269 7.11483e-05 1.05785e-18 -0.000469176 5.6753e-19 0)
(0.00145947 0.000110184 -1.41054e-19 -0.000489679 -1.21349e-19 0)
(0.00140358 9.28689e-05 1.3657e-19 -0.000458697 1.08164e-19 0)
(0.00142049 0.000130241 -6.64344e-19 -0.000479865 -3.51904e-19 0)
(0.00136692 0.000111774 3.46898e-19 -0.000449649 2.28232e-19 0)
(0.00138391 0.000147684 2.05203e-19 -0.000471399 1.08929e-19 0)
(0.00133225 0.000128199 -4.82007e-19 -0.000441709 -2.90544e-19 0)
(0.00134926 0.000162904 -8.13303e-19 -0.000464004 -5.40253e-19 0)
(0.00129901 0.000142473 -9.35269e-19 -0.000434395 -5.80697e-19 0)
(0.00131598 0.000176308 -5.58197e-19 -0.000457242 -3.08479e-19 0)
(0.00126657 0.000154945 1.44456e-19 -0.000426949 6.93558e-20 0)
(0.0012834 0.000188314 -3.92334e-19 -0.000450553 -3.23961e-19 0)
(0.00123412 0.000165837 -8.09857e-19 -0.000418971 -5.15333e-19 0)
(0.00124692 0.000199468 -8.65388e-19 -0.0004466 -5.6753e-19 0)
(0.00234131 -0.000898434 7.52236e-19 -0.00084415 -8.83052e-20 1.18061e-34)
(0.00233421 -0.000780363 9.27558e-19 -0.000833096 3.16305e-19 0)
(0.00220855 -0.000745445 1.5638e-18 -0.00081521 4.54635e-19 0)
(0.00220803 -0.000643631 6.82505e-19 -0.000794752 1.44687e-19 0)
(0.00209746 -0.000606502 0 -0.000755771 0 0)
(0.00210119 -0.000519508 1.33316e-19 -0.000742416 7.57784e-20 0)
(0.00200225 -0.000488345 -4.47706e-19 -0.000702981 -1.46237e-19 0)
(0.00200933 -0.000412754 4.6471e-19 -0.000699196 1.58115e-19 0)
(0.00191877 -0.000388883 -6.92128e-19 -0.000661999 -2.88182e-19 0)
(0.00192852 -0.00032135 0 -0.000665262 0 0)
(0.00184426 -0.000304085 7.47509e-20 -0.000629092 1.65331e-20 0)
(0.00185615 -0.000242451 2.33002e-18 -0.000637024 1.04189e-18 0)
(0.00177702 -0.000230945 1.75836e-18 -0.000601371 7.99519e-19 0)
(0.00179061 -0.000173975 -4.59264e-19 -0.000612565 -2.49314e-19 0)
(0.00171591 -0.000167481 -6.63629e-19 -0.000577575 -3.15011e-19 0)
(0.00173085 -0.000114428 -1.2523e-19 -0.000591194 -4.53614e-20 0)
(0.00166007 -0.000112249 -2.94296e-19 -0.000557095 -1.5659e-19 0)
(0.00167607 -6.26065e-05 -1.83499e-19 -0.00057256 -1.04218e-19 0)
(0.00160881 -6.40886e-05 4.89023e-19 -0.000539463 2.64201e-19 0)
(0.00162564 -1.74783e-05 3.86162e-19 -0.000556343 2.14398e-19 0)
(0.00156159 -2.20341e-05 -3.6612e-19 -0.00052426 -2.02794e-19 0)
(0.00157906 2.18428e-05 -8.44025e-20 -0.000542229 -5.81837e-20 0)
(0.00151792 1.47245e-05 -5.77527e-19 -0.000511123 -3.30353e-19 0)
(0.00153585 5.61154e-05 -4.15355e-19 -0.000529931 -2.24665e-19 0)
(0.00147737 4.68684e-05 5.5903e-19 -0.000499739 3.3182e-19 0)
(0.00149564 8.59888e-05 8.86338e-19 -0.000519195 5.48006e-19 0)
(0.00143957 7.49744e-05 1.1462e-18 -0.000489837 6.86792e-19 0)
(0.00145806 0.000112023 2.63597e-18 -0.000509798 1.69689e-18 0)
(0.00140414 9.95334e-05 1.8037e-18 -0.000481176 1.16457e-18 0)
(0.00142278 0.000134706 5.34898e-19 -0.000501542 3.09706e-19 0)
(0.00137074 0.000120967 -6.58386e-19 -0.000473529 -4.19119e-19 0)
(0.00138944 0.000154476 -9.50664e-19 -0.000494254 -6.28427e-19 0)
(0.00133897 0.000139648 3.3962e-19 -0.000466637 2.09004e-19 0)
(0.00135767 0.000171744 2.28914e-19 -0.000487726 1.54713e-19 0)
(0.00130837 0.000155948 5.90197e-19 -0.00046009 4.21638e-19 0)
(0.00132702 0.000186943 6.57495e-19 -0.000481598 5.02689e-19 0)
(0.0012784 0.000170263 1.32561e-18 -0.000453213 9.31341e-19 0)
(0.00129691 0.000200524 1.02177e-18 -0.000475399 7.17706e-19 0)
(0.00124836 0.000182862 9.25342e-19 -0.000445655 6.78559e-19 0)
(0.00126293 0.0002131 8.53748e-19 -0.000471777 6.54517e-19 0)
(0.00217315 -0.000975382 -5.83888e-19 -0.000735981 8.45245e-20 -1.98151e-34)
(0.00217052 -0.000851218 -1.61753e-18 -0.000741818 -4.73353e-19 0)
(0.00206756 -0.000811069 2.96313e-19 -0.000728336 1.04549e-19 0)
(0.00206874 -0.000704145 2.49547e-18 -0.000721418 8.35362e-19 0)
(0.00197886 -0.000661609 2.50958e-18 -0.000689757 8.83011e-19 0)
(0.00198388 -0.000571065 -1.75428e-19 -0.000686106 -5.48088e-20 0)
(0.001903 -0.000534671 4.33846e-19 -0.000654432 1.84378e-19 0)
(0.00191115 -0.000456804 -4.52669e-19 -0.000657482 -1.92281e-19 0)
(0.00183605 -0.000427827 7.19645e-19 -0.000627672 2.86643e-19 0)
(0.00184688 -0.000358973 -1.3686e-18 -0.00063579 -5.81172e-19 0)
(0.00177574 -0.000336653 -1.95602e-18 -0.000606447 -9.10144e-19 0)
(0.00178881 -0.000274428 -2.3641e-20 -0.000617859 -6.35418e-20 0)
(0.00172075 -0.000257904 6.93942e-19 -0.000588433 3.46473e-19 0)
(0.00173564 -0.000200926 -2.15594e-20 -0.000602096 2.02812e-20 0)
(0.00167024 -0.000189463 -6.70807e-19 -0.000572742 -3.53783e-19 0)
(0.00168656 -0.00013688 1.0008e-18 -0.000588043 4.94218e-19 0)
(0.00162359 -0.000129796 1.93669e-18 -0.000559028 1.11319e-18 0)
(0.00164104 -8.10196e-05 1.43472e-18 -0.000575531 8.60752e-19 0)
(0.00158032 -7.76728e-05 3.88736e-19 -0.00054703 1.85173e-19 0)
(0.00159865 -3.22597e-05 -6.25621e-19 -0.000564403 -3.73941e-19 0)
(0.00154005 -3.20679e-05 -6.0798e-19 -0.000536501 -3.6668e-19 0)
(0.00155904 1.03305e-05 -4.21419e-19 -0.000554488 -2.75571e-19 0)
(0.00150244 7.87646e-06 1.07908e-18 -0.000527216 6.86311e-19 0)
(0.0015219 4.75471e-05 1.08893e-18 -0.000545626 7.06938e-19 0)
(0.0014672 4.28821e-05 9.07031e-19 -0.00051898 5.85288e-19 0)
(0.00148698 8.00713e-05 8.20861e-19 -0.000537669 5.49016e-19 0)
(0.00143404 7.35609e-05 -7.82437e-19 -0.000511622 -5.28115e-19 0)
(0.00145403 0.00010849 -4.72693e-19 -0.000530489 -3.2618e-19 0)
(0.0014027 0.000100435 -4.50682e-19 -0.000504986 -3.14993e-19 0)
(0.00142281 0.000133316 -5.40018e-19 -0.000523971 -3.81832e-19 0)
(0.00137292 0.000123953 3.5328e-19 -0.000498919 2.55965e-19 0)
(0.00139306 0.000155004 1.18273e-18 -0.000518013 8.61591e-19 0)
(0.00134439 0.000144518 1.01688e-18 -0.000493233 7.39145e-19 0)
(0.00136449 0.000173983 6.68137e-19 -0.000512479 4.94085e-19 0)
(0.00131674 0.00016253 3.45802e-19 -0.000487596 2.57323e-19 0)
(0.00133675 0.000190701 3.41096e-19 -0.000507091 2.65138e-19 0)
(0.00128954 0.000178423 6.28802e-19 -0.00048142 4.80278e-19 0)
(0.00130936 0.000205625 6.38957e-19 -0.000501462 4.94487e-19 0)
(0.00126218 0.000192497 -3.10647e-19 -0.000474401 -2.42935e-19 0)
(0.00127814 0.000219413 -6.33505e-19 -0.000498189 -5.11517e-19 0)
(0.00199255 -0.00103111 5.1684e-19 -0.000622857 -6.76126e-20 -2.39676e-34)
(0.00199543 -0.000903266 -1.67777e-19 -0.000645701 2.33713e-21 0)
(0.0019156 -0.00086005 -8.8249e-19 -0.00063707 -2.18883e-19 0)
(0.00191936 -0.000749797 8.36833e-20 -0.000643982 5.84606e-20 0)
(0.0018506 -0.000704102 8.81934e-19 -0.000620147 2.79948e-19 0)
(0.00185749 -0.000611301 1.47799e-18 -0.0006264 5.33944e-19 0)
(0.00179511 -0.000571744 -4.21455e-19 -0.00060296 -2.20773e-19 0)
(0.00180474 -0.000492545 -7.61879e-19 -0.000612921 -2.84194e-19 0)
(0.00174559 -0.00046029 -7.4351e-19 -0.000590968 -2.80716e-19 0)
(0.00175773 -0.000390826 -7.05746e-19 -0.000603911 -2.85943e-19 0)
(0.00170025 -0.000365051 3.99465e-19 -0.000581893 3.10925e-19 0)
(0.0017146 -0.00030279 8.47038e-19 -0.000596663 4.10759e-19 0)
(0.00165821 -0.00028264 1.28002e-18 -0.000574003 5.63305e-19 0)
(0.00167439 -0.000226097 -1.27117e-19 -0.000589933 -3.33453e-20 0)
(0.00161891 -0.000210874 -6.7817e-19 -0.000566788 -3.87958e-19 0)
(0.00163656 -0.000159117 2.13556e-20 -0.000583496 -7.31461e-20 0)
(0.00158201 -0.000148179 -1.26522e-18 -0.000560167 -8.11764e-19 0)
(0.0016008 -0.000100554 -1.73196e-18 -0.000577374 -9.79161e-19 0)
(0.00154723 -9.32947e-05 -1.17224e-18 -0.000554092 -5.9952e-19 0)
(0.0015669 -4.93051e-05 2.10894e-19 -0.000571578 8.04658e-20 0)
(0.00151437 -4.51704e-05 1.11553e-18 -0.00054849 6.79923e-19 0)
(0.00153469 -4.42469e-06 -6.27186e-19 -0.000566083 -3.64555e-19 0)
(0.00148323 -2.92633e-06 1.31474e-19 -0.000543281 1.23487e-19 0)
(0.00150401 3.48976e-05 -6.75065e-19 -0.000560856 -3.99455e-19 0)
(0.00145366 3.41793e-05 -5.83928e-19 -0.000538393 -4.03012e-19 0)
(0.00147474 6.93556e-05 -5.7301e-20 -0.00055586 -8.12595e-20 0)
(0.00142549 6.67763e-05 4.24354e-19 -0.000533757 2.75813e-19 0)
(0.00144674 9.95477e-05 3.26646e-19 -0.000551059 2.32673e-19 0)
(0.00139856 9.54038e-05 3.12033e-19 -0.000529306 2.2385e-19 0)
(0.00141988 0.000125995 -7.08652e-19 -0.000546423 -5.09632e-19 0)
(0.00137269 0.000120528 -1.28191e-18 -0.000524964 -9.71861e-19 0)
(0.00139398 0.000149162 -9.10994e-19 -0.000541924 -7.15472e-19 0)
(0.00134766 0.000142569 -5.69915e-19 -0.000520618 -4.3227e-19 0)
(0.00136886 0.000169483 2.03577e-19 -0.000537498 1.64411e-19 0)
(0.00132321 0.000161944 -7.82049e-19 -0.000516013 -6.1212e-19 0)
(0.00134424 0.000187408 -1.58522e-19 -0.000532945 -1.34274e-19 0)
(0.00129898 0.000179109 3.00958e-19 -0.000510659 2.63276e-19 0)
(0.00131977 0.000203406 3.15353e-19 -0.000527958 2.69678e-19 0)
(0.00127451 0.000194387 5.03248e-19 -0.000504298 4.10509e-19 0)
(0.00129153 0.000218167 4.92196e-19 -0.000525058 4.06494e-19 0)
(0.00180374 -0.00106511 -2.55636e-19 -0.000508068 9.36759e-20 3.14436e-35)
(0.0018128 -0.00093596 1.57179e-18 -0.000547594 5.52212e-19 0)
(0.00175601 -0.000891854 -4.76288e-19 -0.000543947 -2.45431e-19 0)
(0.00176295 -0.000780067 -4.17002e-19 -0.000564649 -1.48255e-20 0)
(0.00171522 -0.000733472 -5.80532e-19 -0.000548774 8.87175e-20 0)
(0.0017244 -0.000639717 1.79573e-18 -0.000564912 6.36567e-19 0)
(0.00168053 -0.000599083 2.48333e-18 -0.000549824 7.97689e-19 0)
(0.00169188 -0.000519493 -1.74224e-19 -0.000566638 -8.71242e-21 0)
(0.00164879 -0.000485824 -7.63311e-19 -0.000552691 -2.70737e-19 0)
(0.00166238 -0.000416447 -5.63441e-19 -0.000570355 -2.65721e-19 0)
(0.0016188 -0.00038887 -1.0681e-18 -0.00055587 -5.2601e-19 0)
(0.00163446 -0.000327102 -6.73677e-19 -0.000573849 -2.81563e-19 0)
(0.00159004 -0.000304791 -1.59378e-19 -0.000558223 -1.56386e-20 0)
(0.00160746 -0.000249086 -3.55523e-19 -0.000576226 -2.46952e-19 0)
(0.0015623 -0.000231398 1.15312e-18 -0.000559614 6.77988e-19 0)
(0.00158115 -0.000180771 1.26729e-18 -0.000577495 7.13188e-19 0)
(0.00153546 -0.000167126 1.59309e-18 -0.000560222 8.22075e-19 0)
(0.00155543 -0.000120878 4.35722e-19 -0.000577864 2.61995e-19 0)
(0.00150948 -0.000110724 -3.08986e-19 -0.000560205 -1.12174e-19 0)
(0.00153029 -6.83174e-05 2.51444e-18 -0.000577506 1.53219e-18 0)
(0.00148431 -6.11483e-05 2.40156e-18 -0.000559662 1.68331e-18 0)
(0.00150574 -2.21573e-05 2.6848e-18 -0.000576541 1.93934e-18 0)
(0.00145992 -1.75237e-05 2.26197e-19 -0.000558658 6.93775e-20 0)
(0.00148177 1.84025e-05 -5.72305e-19 -0.00057506 -3.26694e-19 0)
(0.00143628 2.08898e-05 -1.89909e-18 -0.000557241 -1.35069e-18 0)
(0.00145839 5.40488e-05 -1.54286e-18 -0.000573134 -1.12764e-18 0)
(0.00141334 5.47227e-05 -5.40337e-19 -0.000555447 -3.23418e-19 0)
(0.00143558 8.53748e-05 8.56122e-19 -0.000570822 5.75571e-19 0)
(0.00139104 8.45163e-05 9.8394e-19 -0.000553294 7.1082e-19 0)
(0.00141329 0.000112898 8.86064e-19 -0.000568175 6.78534e-19 0)
(0.00136929 0.000110741 1.77067e-18 -0.000550787 1.42392e-18 0)
(0.00139145 0.000137078 1.48249e-18 -0.000565236 1.21308e-18 0)
(0.00134795 0.000133822 7.91824e-20 -0.000547886 -1.94178e-20 0)
(0.00136996 0.000158343 -4.06652e-19 -0.00056201 -3.56051e-19 0)
(0.00132686 0.000154183 -5.23674e-19 -0.000544418 -4.25202e-19 0)
(0.00134864 0.000177135 -1.61376e-19 -0.000558375 -1.51984e-19 0)
(0.00130578 0.000172287 3.07856e-19 -0.000539991 2.97357e-19 0)
(0.00132723 0.000193909 1.21478e-18 -0.000554099 1.03008e-18 0)
(0.00128435 0.000188465 4.98261e-19 -0.000534389 4.21315e-19 0)
(0.00130213 0.000209376 1.05855e-18 -0.000551591 9.05645e-19 0)
(0.00161094 -0.00107747 -7.70872e-19 -0.000394817 3.75247e-20 -1.24801e-33)
(0.00162647 -0.000949308 -2.56173e-18 -0.000450309 -9.01276e-19 0)
(0.0015921 -0.000906424 -2.07248e-18 -0.000451479 -5.5626e-19 0)
(0.00160257 -0.000794848 -1.24657e-18 -0.000485612 -6.44525e-19 0)
(0.00157531 -0.000749544 -1.34575e-18 -0.000477478 -5.23739e-19 0)
(0.00158701 -0.000656104 6.54707e-19 -0.000503275 2.64041e-19 0)
(0.00156123 -0.000616427 6.21987e-19 -0.000496318 2.67442e-19 0)
(0.00157445 -0.000537357 7.93687e-19 -0.000519804 2.56613e-19 0)
(0.00154717 -0.000504107 2.00719e-19 -0.000513699 -1.34227e-20 0)
(0.00156225 -0.000435484 -7.37353e-19 -0.000535913 -2.6517e-19 0)
(0.00153246 -0.000407753 -1.26592e-18 -0.000528879 -6.98699e-19 0)
(0.0015494 -0.000346972 -2.36951e-20 -0.00054989 -1.63391e-19 0)
(0.00151699 -0.000323976 -4.69375e-19 -0.000541302 -1.07028e-19 0)
(0.00153557 -0.000269473 5.3583e-20 -0.00056119 1.66281e-19 0)
(0.00150085 -0.000250646 -4.74575e-19 -0.000551189 -2.70444e-19 0)
(0.00152076 -0.000201411 0 -0.000570042 0 0)
(0.00148416 -0.00018625 4.47087e-19 -0.000558963 2.6834e-19 0)
(0.00150512 -0.000141554 3.16511e-19 -0.000576827 2.55733e-19 0)
(0.00146708 -0.00012958 -1.70477e-18 -0.000564979 -1.31716e-18 0)
(0.00148882 -8.88614e-05 -1.8371e-18 -0.000581871 -1.35505e-18 0)
(0.00144972 -7.96316e-05 -9.35995e-19 -0.000569498 -3.97757e-19 0)
(0.00147203 -4.24393e-05 2.39753e-19 -0.00058543 1.95804e-19 0)
(0.00143221 -3.55578e-05 1.89017e-18 -0.000572723 1.39707e-18 0)
(0.00145489 -1.52052e-06 8.66519e-19 -0.000587715 6.6136e-19 0)
(0.00141464 3.35829e-06 1.80402e-18 -0.000574819 1.247e-18 0)
(0.00143752 3.45553e-05 8.65119e-19 -0.000588898 6.84601e-19 0)
(0.00139707 3.77301e-05 -4.87069e-19 -0.000575919 -4.18181e-19 0)
(0.00142002 6.63604e-05 -4.95764e-19 -0.000589128 -4.23285e-19 0)
(0.00137953 6.80867e-05 0 -0.000576128 0 0)
(0.00140243 9.43946e-05 -7.48892e-19 -0.000588531 -5.36747e-19 0)
(0.00136202 9.48901e-05 -1.19329e-18 -0.000575526 -9.33544e-19 0)
(0.00138479 0.000119102 -1.28372e-18 -0.000587219 -9.88034e-19 0)
(0.0013445 0.000118558 -8.01371e-19 -0.000574144 -6.57004e-19 0)
(0.00136704 0.000140893 -1.22932e-18 -0.000585264 -1.05506e-18 0)
(0.00132689 0.000139508 -1.5706e-19 -0.000571892 -1.64272e-19 0)
(0.00134913 0.000160188 -1.20395e-18 -0.000582615 -9.71312e-19 0)
(0.00130906 0.000158193 -1.17074e-18 -0.000568475 -9.50771e-19 0)
(0.00133088 0.000177418 -8.90062e-19 -0.000579105 -7.31741e-19 0)
(0.00129077 0.000174951 -1.29362e-18 -0.000563715 -1.10522e-18 0)
(0.00130902 0.000193301 -1.12876e-18 -0.000577003 -1.01077e-18 0)
(0.00141817 -0.00106892 1.62168e-18 -0.000286141 -3.02246e-19 -1.43898e-35)
(0.00144013 -0.000943843 1.77037e-18 -0.000356537 5.56264e-19 0)
(0.00142713 -0.000904154 2.28774e-18 -0.000362077 1.02522e-18 0)
(0.00144123 -0.000794436 1.02148e-18 -0.000408997 8.88005e-19 0)
(0.00143345 -0.000752472 -3.53268e-19 -0.000408064 -6.56588e-19 0)
(0.00144775 -0.000660548 -6.1072e-19 -0.000443098 -6.111e-19 0)
(0.00143923 -0.000623741 -8.53077e-19 -0.000443741 -2.27404e-19 0)
(0.00145434 -0.00054605 2.01916e-18 -0.000473597 7.83641e-19 0)
(0.00144227 -0.000514964 2.38847e-18 -0.000474881 1.65896e-18 0)
(0.00145881 -0.000447715 1.98615e-18 -0.000501408 1.36842e-18 0)
(0.0014424 -0.000421415 2.01129e-18 -0.000501474 7.79797e-19 0)