/*--------------------------------*- C++ -*----------------------------------*\
| =========                 |                                                 |
| \\      /  F ield         | OpenFOAM: The Open Source CFD Toolbox           |
|  \\    /   O peration     | Version:  v2012                                 |
|   \\  /    A nd           | Website:  www.openfoam.com                      |
|    \\/     M anipulation  |                                                 |
\*---------------------------------------------------------------------------*/
FoamFile
{
    version     2.0;
    format      ascii;
    class       volScalarField;
    location    "4";
    object      sigmaEq;
}
// * * * * * * * * * * * * * * * * * * * * * * * * * * * * * * * * * * * * * //

dimensions      [1 -1 -2 0 0 0 0];


internalField   nonuniform List<scalar> 
8000
(
1.96275e+08
1.93934e+08
1.80827e+08
1.79933e+08
1.66248e+08
1.66145e+08
1.53577e+08
1.53967e+08
1.4287e+08
1.43488e+08
1.33696e+08
1.34417e+08
1.25715e+08
1.26499e+08
1.18721e+08
1.19555e+08
1.12571e+08
1.13444e+08
1.07149e+08
1.08047e+08
1.02352e+08
1.03265e+08
9.80917e+07
9.90113e+07
9.42914e+07
9.52123e+07
9.08848e+07
9.18039e+07
8.78115e+07
8.87298e+07
8.50158e+07
8.59379e+07
8.24461e+07
8.33762e+07
8.00546e+07
8.0981e+07
7.7789e+07
7.8659e+07
7.55884e+07
7.61961e+07
1.96288e+08
1.92678e+08
1.80843e+08
1.7832e+08
1.66135e+08
1.64662e+08
1.53336e+08
1.52776e+08
1.42538e+08
1.4257e+08
1.3333e+08
1.33716e+08
1.2536e+08
1.25974e+08
1.18401e+08
1.19181e+08
1.12294e+08
1.13203e+08
1.06913e+08
1.07928e+08
1.02153e+08
1.03254e+08
9.79246e+07
9.90965e+07
9.41521e+07
9.53814e+07
9.077e+07
9.20448e+07
8.77224e+07
8.90302e+07
8.49607e+07
8.62874e+07
8.24389e+07
8.37681e+07
8.01006e+07
8.14132e+07
7.78564e+07
7.91343e+07
7.55936e+07
7.67051e+07
1.94311e+08
1.90359e+08
1.7911e+08
1.76007e+08
1.64683e+08
1.62549e+08
1.5217e+08
1.50979e+08
1.41601e+08
1.41116e+08
1.3258e+08
1.32593e+08
1.2478e+08
1.25154e+08
1.17985e+08
1.18633e+08
1.12038e+08
1.12902e+08
1.06811e+08
1.0785e+08
1.02195e+08
1.03381e+08
9.81007e+07
9.94091e+07
9.4452e+07
9.58636e+07
9.1184e+07
9.26822e+07
8.82397e+07
8.98108e+07
8.55673e+07
8.72007e+07
8.31152e+07
8.48029e+07
8.08222e+07
8.25567e+07
7.86073e+07
8.03823e+07
7.63925e+07
7.81036e+07
1.91339e+08
1.86753e+08
1.76239e+08
1.72672e+08
1.62057e+08
1.59594e+08
1.49922e+08
1.48451e+08
1.39751e+08
1.39023e+08
1.31102e+08
1.30924e+08
1.2364e+08
1.23889e+08
1.17155e+08
1.17746e+08
1.11493e+08
1.12364e+08
1.06531e+08
1.07632e+08
1.02164e+08
1.03455e+08
9.83007e+07
9.97504e+07
9.48663e+07
9.64483e+07
9.17961e+07
9.34887e+07
8.90334e+07
9.08189e+07
8.65268e+07
8.83913e+07
8.42244e+07
8.61574e+07
8.2065e+07
8.40583e+07
7.99694e+07
8.20219e+07
7.78616e+07
7.98932e+07
1.871e+08
1.82034e+08
1.72338e+08
1.68344e+08
1.58529e+08
1.55776e+08
1.46843e+08
1.45185e+08
1.37149e+08
1.36303e+08
1.28972e+08
1.28727e+08
1.21961e+08
1.22187e+08
1.15898e+08
1.16507e+08
1.10629e+08
1.11555e+08
1.0603e+08
1.07218e+08
1.01998e+08
1.03402e+08
9.84428e+07
1.00025e+08
9.52913e+07
9.70194e+07
9.24792e+07
9.43271e+07
8.99505e+07
9.18972e+07
8.76542e+07
8.96837e+07
8.554e+07
8.76407e+07
8.35499e+07
8.57146e+07
8.1611e+07
8.38413e+07
7.96576e+07
8.18792e+07
1.81696e+08
1.76271e+08
1.67439e+08
1.63107e+08
1.54163e+08
1.5117e+08
1.43052e+08
1.41239e+08
1.33933e+08
1.33002e+08
1.26315e+08
1.26042e+08
1.19838e+08
1.20079e+08
1.1428e+08
1.14937e+08
1.09482e+08
1.1048e+08
1.05318e+08
1.06597e+08
1.01686e+08
1.03193e+08
9.8496e+07
1.00188e+08
9.56761e+07
9.75179e+07
9.31637e+07
9.51253e+07
9.09048e+07
9.29624e+07
8.88507e+07
9.09863e+07
8.69539e+07
8.91552e+07
8.51607e+07
8.74208e+07
8.34053e+07
8.57277e+07
8.16292e+07
8.39463e+07
1.75247e+08
1.69544e+08
1.61626e+08
1.5703e+08
1.49021e+08
1.45841e+08
1.38608e+08
1.36671e+08
1.30168e+08
1.29169e+08
1.23197e+08
1.22904e+08
1.17332e+08
1.17592e+08
1.12346e+08
1.1305e+08
1.08079e+08
1.09142e+08
1.04405e+08
1.05758e+08
1.01219e+08
1.02803e+08
9.84342e+07
1.00203e+08
9.598e+07
9.78937e+07
9.3796e+07
9.5822e+07
9.1831e+07
9.39435e+07
9.00397e+07
9.22194e+07
8.83782e+07
9.06123e+07
8.67983e+07
8.908e+07
8.52415e+07
8.75751e+07
8.36554e+07
8.59791e+07
1.67856e+08
1.61944e+08
1.54986e+08
1.50191e+08
1.43172e+08
1.39855e+08
1.33563e+08
1.31536e+08
1.25896e+08
1.24849e+08
1.19654e+08
1.19349e+08
1.1447e+08
1.14745e+08
1.10115e+08
1.10853e+08
1.06429e+08
1.07536e+08
1.03284e+08
1.04684e+08
1.00577e+08
1.02206e+08
9.82244e+07
1.0003e+08
9.61567e+07
9.80969e+07
9.43174e+07
9.63575e+07
9.26591e+07
9.47718e+07
9.11401e+07
9.33056e+07
8.97216e+07
9.19266e+07
8.83611e+07
9.0599e+07
8.70075e+07
8.92827e+07
8.56152e+07
8.78703e+07
1.59632e+08
1.53577e+08
1.47609e+08
1.4268e+08
1.36691e+08
1.33287e+08
1.2798e+08
1.25898e+08
1.21166e+08
1.20091e+08
1.1572e+08
1.15411e+08
1.11275e+08
1.11563e+08
1.076e+08
1.08359e+08
1.04531e+08
1.05661e+08
1.01944e+08
1.03362e+08
9.97373e+07
1.01376e+08
9.78308e+07
9.96342e+07
9.61594e+07
9.8083e+07
9.46708e+07
9.66789e+07
9.3322e+07
9.53869e+07
9.20763e+07
9.41778e+07
9.09001e+07
9.30248e+07
8.97572e+07
9.18987e+07
8.86045e+07
9.07662e+07
8.74031e+07
8.95314e+07
1.50686e+08
1.44553e+08
1.39594e+08
1.34591e+08
1.2966e+08
1.26217e+08
1.21925e+08
1.19822e+08
1.1603e+08
1.14949e+08
1.11437e+08
1.11133e+08
1.07775e+08
1.08073e+08
1.04812e+08
1.05581e+08
1.02385e+08
1.03519e+08
1.00373e+08
1.01783e+08
9.86769e+07
1.00293e+08
9.72215e+07
9.89873e+07
9.59473e+07
9.78166e+07
9.48072e+07
9.67442e+07
9.37637e+07
9.57408e+07
9.27857e+07
9.4783e+07
9.18452e+07
9.38499e+07
9.0913e+07
9.29183e+07
8.9954e+07
9.19617e+07
8.89363e+07
9.08954e+07
1.41133e+08
1.34983e+08
1.31038e+08
1.26023e+08
1.22163e+08
1.18731e+08
1.15469e+08
1.13381e+08
1.10546e+08
1.09481e+08
1.06846e+08
1.06558e+08
1.03998e+08
1.04307e+08
1.01769e+08
1.02538e+08
9.99981e+07
1.01117e+08
9.85657e+07
9.99445e+07
9.73804e+07
9.89475e+07
9.63725e+07
9.80705e+07
9.54888e+07
9.72725e+07
9.46889e+07
9.6523e+07
9.39412e+07
9.57992e+07
9.32209e+07
9.50836e+07
9.25062e+07
9.43611e+07
9.17747e+07
9.36148e+07
9.09993e+07
9.28244e+07
9.01551e+07
9.19159e+07
1.31087e+08
1.24977e+08
1.22042e+08
1.17074e+08
1.14287e+08
1.10912e+08
1.08685e+08
1.06646e+08
1.04774e+08
1.03748e+08
1.01997e+08
1.01734e+08
9.99806e+07
1.00299e+08
9.84937e+07
9.92534e+07
9.73789e+07
9.84674e+07
9.65223e+07
9.78495e+07
9.58394e+07
9.73339e+07
9.52681e+07
9.68736e+07
9.47628e+07
9.64356e+07
9.42902e+07
9.59967e+07
9.38257e+07
9.55407e+07
9.33506e+07
9.50563e+07
9.28495e+07
9.45339e+07
9.23069e+07
9.39625e+07
9.17036e+07
9.33277e+07
9.10214e+07
9.25655e+07
1.20658e+08
1.14645e+08
1.12704e+08
1.0784e+08
1.06116e+08
1.02848e+08
1.01647e+08
9.96925e+07
9.87756e+07
9.78099e+07
9.69368e+07
9.671e+07
9.57581e+07
9.60868e+07
9.50105e+07
9.57533e+07
9.45425e+07
9.55875e+07
9.42481e+07
9.55068e+07
9.40519e+07
9.54549e+07
9.39007e+07
9.53942e+07
9.37575e+07
9.53002e+07
9.35966e+07
9.51572e+07
9.34005e+07
9.49558e+07
9.31569e+07
9.46904e+07
9.28568e+07
9.43572e+07
9.24913e+07
9.39503e+07
9.20486e+07
9.34607e+07
9.15168e+07
9.28335e+07
1.09956e+08
1.0409e+08
1.03121e+08
9.84166e+07
9.77382e+07
9.46217e+07
9.44302e+07
9.25945e+07
9.2615e+07
9.17316e+07
9.17184e+07
9.15378e+07
9.13704e+07
9.17096e+07
9.13475e+07
9.20668e+07
9.1507e+07
9.24971e+07
9.17532e+07
9.2929e+07
9.20217e+07
9.33176e+07
9.22695e+07
9.36355e+07
9.24689e+07
9.38668e+07
9.26022e+07
9.40037e+07
9.26591e+07
9.40432e+07
9.26336e+07
9.39852e+07
9.25224e+07
9.38307e+07
9.23229e+07
9.35786e+07
9.20301e+07
9.32244e+07
9.16381e+07
9.27218e+07
9.90814e+07
9.34102e+07
9.33839e+07
8.88949e+07
8.92363e+07
8.63194e+07
8.71099e+07
8.54282e+07
8.6357e+07
8.5578e+07
8.63948e+07
8.62706e+07
8.68587e+07
8.72095e+07
8.75352e+07
8.82252e+07
8.82934e+07
8.92186e+07
8.90509e+07
9.01318e+07
8.97561e+07
9.09324e+07
9.03776e+07
9.16041e+07
9.08975e+07
9.21401e+07
9.13066e+07
9.25401e+07
9.16013e+07
9.28071e+07
9.17814e+07
9.29459e+07
9.1849e+07
9.29614e+07
9.18065e+07
9.28561e+07
9.1655e+07
9.26287e+07
9.13941e+07
9.224e+07
8.81292e+07
8.26985e+07
8.35823e+07
7.93644e+07
8.0694e+07
7.80261e+07
7.97627e+07
7.82716e+07
8.00685e+07
7.94165e+07
8.10214e+07
8.09643e+07
8.22671e+07
8.26307e+07
8.36066e+07
8.42621e+07
8.49252e+07
8.57764e+07
8.6157e+07
8.71319e+07
8.72647e+07
8.83102e+07
8.82299e+07
8.93066e+07
8.9045e+07
9.01241e+07
8.97095e+07
9.07695e+07
9.02266e+07
9.12515e+07
9.06019e+07
9.15792e+07
9.08414e+07
9.176e+07
9.09515e+07
9.17982e+07
9.09375e+07
9.1694e+07
9.08034e+07
9.14148e+07
7.7187e+07
7.20411e+07
7.38002e+07
6.99132e+07
7.2195e+07
6.98294e+07
7.24679e+07
7.12061e+07
7.38198e+07
7.33183e+07
7.56572e+07
7.56781e+07
7.76429e+07
7.80209e+07
7.95981e+07
8.02143e+07
8.14293e+07
8.2197e+07
8.30894e+07
8.39457e+07
8.45582e+07
8.54582e+07
8.58308e+07
8.67425e+07
8.69106e+07
8.78115e+07
8.78054e+07
8.86792e+07
8.85255e+07
8.936e+07
8.90823e+07
8.98675e+07
8.94877e+07
9.02134e+07
8.97516e+07
9.04042e+07
8.98795e+07
9.04381e+07
8.98709e+07
9.02829e+07
6.63341e+07
6.1519e+07
6.41188e+07
6.06312e+07
6.38255e+07
6.18228e+07
6.53096e+07
6.43196e+07
6.76862e+07
6.73605e+07
7.03663e+07
7.04775e+07
7.30388e+07
7.3435e+07
7.55527e+07
7.61274e+07
7.78388e+07
7.85162e+07
7.98718e+07
8.05974e+07
8.16499e+07
8.23857e+07
8.31837e+07
8.39039e+07
8.44898e+07
8.51771e+07
8.55851e+07
8.62276e+07
8.6484e+07
8.70723e+07
8.7199e+07
8.7723e+07
8.77439e+07
8.81913e+07
8.81386e+07
8.8494e+07
8.84049e+07
8.86526e+07
8.85394e+07
8.86502e+07
5.56411e+07
5.12083e+07
5.46194e+07
5.16156e+07
5.56794e+07
5.41123e+07
5.83807e+07
5.77109e+07
6.17504e+07
6.16287e+07
6.52188e+07
6.54361e+07
6.8515e+07
6.89387e+07
7.15232e+07
7.20636e+07
7.42022e+07
7.47962e+07
7.65477e+07
7.71498e+07
7.8574e+07
7.91513e+07
8.03064e+07
8.08346e+07
8.17762e+07
8.22381e+07
8.3018e+07
8.34018e+07
8.40644e+07
8.43604e+07
8.49374e+07
8.5132e+07
8.56395e+07
8.57037e+07
8.61557e+07
8.60252e+07
8.64868e+07
8.60199e+07
8.6739e+07
8.56019e+07
4.51689e+07
4.11847e+07
4.53887e+07
4.29829e+07
4.78666e+07
4.68247e+07
5.17885e+07
5.14927e+07
5.61041e+07
5.62166e+07
6.02916e+07
6.06335e+07
6.41377e+07
6.46044e+07
6.7571e+07
6.80954e+07
7.05817e+07
7.1119e+07
7.31871e+07
7.37063e+07
7.54154e+07
7.58947e+07
7.72982e+07
7.77213e+07
7.88686e+07
7.92223e+07
8.01624e+07
8.04365e+07
8.1224e+07
8.14134e+07
8.21143e+07
8.22237e+07
8.29153e+07
8.29645e+07
8.37228e+07
8.3747e+07
8.46071e+07
8.46396e+07
8.54666e+07
8.55738e+07
3.49683e+07
3.15375e+07
3.65331e+07
3.48948e+07
4.05265e+07
4.01208e+07
4.56581e+07
4.57902e+07
5.08467e+07
5.12167e+07
5.56638e+07
5.61405e+07
5.9975e+07
6.04915e+07
6.37605e+07
6.42779e+07
6.70439e+07
6.75391e+07
6.98645e+07
7.03249e+07
7.2266e+07
7.26876e+07
7.42914e+07
7.46773e+07
7.59801e+07
7.63406e+07
7.7365e+07
7.77189e+07
7.84702e+07
7.8849e+07
7.93099e+07
7.97746e+07
7.98983e+07
8.05764e+07
8.02782e+07
8.14098e+07
8.05699e+07
8.24464e+07
8.09868e+07
8.32998e+07
2.50824e+07
2.24194e+07
2.82137e+07
2.76195e+07
3.38522e+07
3.42173e+07
4.01362e+07
4.07432e+07
4.60774e+07
4.6714e+07
5.1403e+07
5.20073e+07
5.60768e+07
5.66269e+07
6.01342e+07
6.06209e+07
6.36315e+07
6.40513e+07
6.66282e+07
6.69816e+07
6.91813e+07
6.94716e+07
7.13433e+07
7.15754e+07
7.31621e+07
7.33421e+07
7.4682e+07
7.48153e+07
7.59435e+07
7.6036e+07
7.69814e+07
7.70473e+07
7.78191e+07
7.79065e+07
7.84604e+07
7.86846e+07
7.88759e+07
7.94063e+07
7.89824e+07
8.0239e+07
1.55597e+07
1.42544e+07
2.07516e+07
2.1664e+07
2.81347e+07
2.94155e+07
3.53977e+07
3.65119e+07
4.18925e+07
4.2793e+07
4.75597e+07
4.82763e+07
5.2464e+07
5.3026e+07
5.66899e+07
5.7118e+07
6.03192e+07
6.06283e+07
6.34265e+07
6.36275e+07
6.60772e+07
6.61789e+07
6.83282e+07
6.8338e+07
7.02279e+07
7.01532e+07
7.18165e+07
7.16672e+07
7.31254e+07
7.29219e+07
7.41777e+07
7.39655e+07
7.49868e+07
7.48557e+07
7.55579e+07
7.56385e+07
7.58944e+07
7.63249e+07
7.60058e+07
7.723e+07
6.54889e+06
8.80998e+06
1.49404e+07
1.79407e+07
2.38141e+07
2.60972e+07
3.1648e+07
3.32716e+07
3.83902e+07
3.95428e+07
4.41792e+07
4.49963e+07
4.91514e+07
4.97167e+07
5.34199e+07
5.37861e+07
5.70797e+07
5.72812e+07
6.02105e+07
6.0272e+07
6.28802e+07
6.28204e+07
6.51463e+07
6.49809e+07
6.70574e+07
6.68017e+07
6.86544e+07
6.83267e+07
6.99703e+07
6.95986e+07
7.10294e+07
7.06633e+07
7.18446e+07
7.15704e+07
7.24192e+07
7.23727e+07
7.27576e+07
7.31209e+07
7.28699e+07
7.41175e+07
3.35749e+06
1.02828e+07
1.25371e+07
1.74343e+07
2.1436e+07
2.46018e+07
2.90979e+07
3.11744e+07
3.56685e+07
3.70455e+07
4.1314e+07
4.22185e+07
4.61708e+07
4.67361e+07
5.03479e+07
5.0656e+07
5.39354e+07
5.40398e+07
5.70093e+07
5.69476e+07
5.96347e+07
5.94345e+07
6.18669e+07
6.15509e+07
6.37533e+07
6.33423e+07
6.53338e+07
6.48511e+07
6.66408e+07
6.6119e+07
6.76977e+07
6.71897e+07
6.85172e+07
6.81126e+07
6.91027e+07
6.89467e+07
6.94532e+07
6.97481e+07
6.95573e+07
7.079e+07
1.1211e+07
1.63143e+07
1.46566e+07
1.99519e+07
2.13251e+07
2.49807e+07
2.78864e+07
3.02844e+07
3.38025e+07
3.53524e+07
3.90135e+07
3.9984e+07
4.35619e+07
4.41193e+07
4.75112e+07
4.77607e+07
5.09261e+07
5.09374e+07
5.38674e+07
5.3689e+07
5.63903e+07
5.60581e+07
5.85436e+07
5.80864e+07
6.03704e+07
5.98138e+07
6.19074e+07
6.12787e+07
6.31844e+07
6.25201e+07
6.42229e+07
6.35803e+07
6.50345e+07
6.45104e+07
6.56216e+07
6.53717e+07
6.59761e+07
6.62142e+07
6.60683e+07
6.72692e+07
1.9066e+07
2.31687e+07
1.94311e+07
2.42101e+07
2.31989e+07
2.68899e+07
2.79856e+07
3.05255e+07
3.28114e+07
3.44625e+07
3.73053e+07
3.83132e+07
4.13537e+07
4.18931e+07
4.49392e+07
4.51289e+07
4.8082e+07
4.80034e+07
5.08156e+07
5.05267e+07
5.31783e+07
5.27221e+07
5.52079e+07
5.46184e+07
5.69394e+07
5.62468e+07
5.84041e+07
5.76397e+07
5.96279e+07
5.88322e+07
6.06296e+07
5.98647e+07
6.14195e+07
6.0789e+07
6.19987e+07
6.16664e+07
6.23521e+07
6.25405e+07
6.24316e+07
6.35896e+07
2.64896e+07
2.99233e+07
2.50292e+07
2.91515e+07
2.6357e+07
2.97948e+07
2.91817e+07
3.16926e+07
3.26387e+07
3.43123e+07
3.61849e+07
3.7198e+07
3.95595e+07
4.00708e+07
4.26522e+07
4.27824e+07
4.54258e+07
4.52631e+07
4.7878e+07
4.74869e+07
5.00234e+07
4.9453e+07
5.18841e+07
5.11733e+07
5.34846e+07
5.26676e+07
5.48484e+07
5.39603e+07
5.5996e+07
5.50809e+07
5.69426e+07
5.60675e+07
5.76971e+07
5.69712e+07
5.8259e+07
5.7853e+07
5.86065e+07
5.87486e+07
5.86714e+07
5.97747e+07
3.34269e+07
3.63338e+07
3.07012e+07
3.42205e+07
3.01511e+07
3.32186e+07
3.11585e+07
3.35182e+07
3.31589e+07
3.47835e+07
3.56119e+07
3.65986e+07
3.81752e+07
3.86494e+07
4.06613e+07
4.07346e+07
4.29753e+07
4.27367e+07
4.5075e+07
4.45929e+07
4.6947e+07
4.62749e+07
4.85945e+07
4.77754e+07
5.00284e+07
4.91001e+07
5.12627e+07
5.02636e+07
5.23109e+07
5.12888e+07
5.31841e+07
5.22101e+07
5.38888e+07
5.30776e+07
5.44237e+07
5.39512e+07
5.47593e+07
5.48572e+07
5.48062e+07
5.58423e+07
3.98532e+07
4.23079e+07
3.6158e+07
3.91452e+07
3.41535e+07
3.68253e+07
3.36031e+07
3.57432e+07
3.42056e+07
3.57268e+07
3.5514e+07
3.64471e+07
3.71779e+07
3.76082e+07
3.89676e+07
3.89892e+07
4.07432e+07
4.04398e+07
4.24243e+07
4.18651e+07
4.39693e+07
4.32102e+07
4.53598e+07
4.44473e+07
4.65915e+07
4.55665e+07
4.76672e+07
4.65713e+07
4.85924e+07
4.74766e+07
4.9373e+07
4.83123e+07
5.00132e+07
4.9127e+07
5.05105e+07
4.99788e+07
5.08279e+07
5.08831e+07
5.08527e+07
5.18084e+07
4.57526e+07
4.78011e+07
4.12708e+07
4.37845e+07
3.81105e+07
4.03979e+07
3.62625e+07
3.81538e+07
3.56041e+07
3.69874e+07
3.57961e+07
3.66556e+07
3.6527e+07
3.69098e+07
3.7562e+07
3.75397e+07
3.87363e+07
3.83826e+07
3.99411e+07
3.93221e+07
4.11087e+07
4.02811e+07
4.21999e+07
4.12122e+07
4.31941e+07
4.209e+07
4.40819e+07
4.29056e+07
4.48598e+07
4.36655e+07
4.55279e+07
4.43942e+07
4.6088e+07
4.51385e+07
4.65366e+07
4.59542e+07
4.68292e+07
4.68441e+07
4.68277e+07
4.769e+07
5.11141e+07
5.27884e+07
4.59735e+07
4.80596e+07
4.18724e+07
4.37985e+07
3.8951e+07
4.05879e+07
3.71957e+07
3.8424e+07
3.63537e+07
3.71278e+07
3.61678e+07
3.65032e+07
3.64244e+07
3.63693e+07
3.69561e+07
3.65701e+07
3.76382e+07
3.69812e+07
3.83839e+07
3.75107e+07
3.91358e+07
3.80957e+07
3.98578e+07
3.86964e+07
4.0528e+07
3.9292e+07
4.11337e+07
3.988e+07
4.16687e+07
4.04793e+07
4.21325e+07
4.11346e+07
4.25212e+07
4.1899e+07
4.27826e+07
4.2761e+07
4.27506e+07
4.35068e+07
5.59298e+07
5.72548e+07
5.0228e+07
5.19232e+07
4.53475e+07
4.69381e+07
4.15374e+07
4.29272e+07
3.8848e+07
3.99175e+07
3.70838e+07
3.77691e+07
3.60367e+07
3.63296e+07
3.55263e+07
3.54529e+07
3.53983e+07
3.50024e+07
3.55267e+07
3.48586e+07
3.58145e+07
3.49247e+07
3.61913e+07
3.5128e+07
3.6608e+07
3.54175e+07
3.70313e+07
3.57622e+07
3.74394e+07
3.61509e+07
3.782e+07
3.65974e+07
3.81709e+07
3.7144e+07
3.84882e+07
3.78412e+07
3.87122e+07
3.86612e+07
3.86467e+07
3.92846e+07
6.01946e+07
6.1191e+07
5.40109e+07
5.53451e+07
4.84764e+07
4.97572e+07
4.39291e+07
4.50867e+07
4.04554e+07
4.13721e+07
3.78924e+07
3.84933e+07
3.60677e+07
3.6327e+07
3.48326e+07
3.47583e+07
3.40546e+07
3.36747e+07
3.36172e+07
3.29703e+07
3.34231e+07
3.25527e+07
3.33958e+07
3.23465e+07
3.34773e+07
3.22948e+07
3.36254e+07
3.23588e+07
3.38103e+07
3.25206e+07
3.40148e+07
3.27895e+07
3.42354e+07
3.32065e+07
3.44699e+07
3.38197e+07
3.46512e+07
3.45825e+07
3.45499e+07
3.50591e+07
6.3905e+07
6.45913e+07
5.73058e+07
5.83063e+07
5.12173e+07
5.22151e+07
4.60577e+07
4.70035e+07
4.19349e+07
4.27118e+07
3.86995e+07
3.9225e+07
3.61982e+07
3.64357e+07
3.43065e+07
3.42509e+07
3.29146e+07
3.258e+07
3.19216e+07
3.13343e+07
3.12378e+07
3.04317e+07
3.07876e+07
2.98012e+07
3.051e+07
2.93853e+07
3.03572e+07
2.91422e+07
3.02942e+07
2.90502e+07
3.03005e+07
2.9116e+07
3.03732e+07
2.9381e+07
3.05137e+07
2.98912e+07
3.06477e+07
3.05797e+07
3.05096e+07
3.08817e+07
6.70597e+07
6.74568e+07
6.00961e+07
6.07945e+07
5.35349e+07
5.42789e+07
4.78713e+07
4.86288e+07
4.32266e+07
4.38801e+07
3.94459e+07
3.99094e+07
3.63793e+07
3.6612e+07
3.39185e+07
3.39077e+07
3.19731e+07
3.17219e+07
3.0459e+07
2.99809e+07
2.9298e+07
2.86153e+07
2.84211e+07
2.75631e+07
2.77697e+07
2.67719e+07
2.72957e+07
2.62021e+07
2.69626e+07
2.58321e+07
2.67495e+07
2.56694e+07
2.6657e+07
2.57582e+07
2.66927e+07
2.61438e+07
2.67759e+07
2.67367e+07
2.66012e+07
2.6832e+07
6.96591e+07
6.98096e+07
6.23594e+07
6.27902e+07
5.53981e+07
5.59194e+07
4.9344e+07
4.99422e+07
4.43085e+07
4.48668e+07
4.01081e+07
4.0541e+07
3.65903e+07
3.68566e+07
3.36596e+07
3.37413e+07
3.12411e+07
3.11309e+07
2.92639e+07
2.89629e+07
2.76616e+07
2.71794e+07
2.6374e+07
2.5729e+07
2.53491e+07
2.45684e+07
2.45434e+07
2.36647e+07
2.39238e+07
2.3001e+07
2.34738e+07
2.25893e+07
2.32023e+07
2.24783e+07
2.31256e+07
2.27125e+07
2.31562e+07
2.31783e+07
2.2945e+07
2.30266e+07
7.17067e+07
7.16746e+07
6.4081e+07
6.42689e+07
5.68041e+07
5.71443e+07
5.04983e+07
5.09977e+07
4.52e+07
4.57292e+07
4.06901e+07
4.11592e+07
3.68267e+07
3.71916e+07
3.3529e+07
3.3766e+07
3.07311e+07
3.08258e+07
2.83703e+07
2.83154e+07
2.63885e+07
2.61841e+07
2.47339e+07
2.43881e+07
2.33617e+07
2.28921e+07
2.22349e+07
2.16715e+07
2.13276e+07
2.07187e+07
2.06332e+07
2.00551e+07
2.01754e+07
1.97368e+07
1.99859e+07
1.98009e+07
1.99676e+07
2.00968e+07
1.97209e+07
1.96381e+07
7.32018e+07
7.27989e+07
6.52577e+07
6.52938e+07
5.7786e+07
5.8127e+07
5.13358e+07
5.18989e+07
4.58491e+07
4.64663e+07
4.11102e+07
4.16909e+07
3.6998e+07
3.75054e+07
3.34386e+07
3.38569e+07
3.03679e+07
3.0689e+07
2.77253e+07
2.79455e+07
2.54572e+07
2.55757e+07
2.35173e+07
2.35368e+07
2.18671e+07
2.17956e+07
2.04764e+07
2.03303e+07
1.93262e+07
1.91378e+07
1.84195e+07
1.82476e+07
1.7793e+07
1.7727e+07
1.74897e+07
1.76141e+07
1.74012e+07
1.77325e+07
1.71057e+07
1.70599e+07
7.39922e+07
7.31135e+07
6.58443e+07
6.5789e+07
5.82128e+07
5.85554e+07
5.16323e+07
5.21393e+07
4.59959e+07
4.65277e+07
4.11096e+07
4.1626e+07
3.68545e+07
3.73499e+07
3.31507e+07
3.36223e+07
2.99306e+07
3.03732e+07
2.71341e+07
2.75415e+07
2.47089e+07
2.50758e+07
2.26112e+07
2.29337e+07
2.0806e+07
2.10835e+07
1.92681e+07
1.95063e+07
1.79871e+07
1.82025e+07
1.69798e+07
1.72009e+07
1.62994e+07
1.65513e+07
1.59822e+07
1.62349e+07
1.58367e+07
1.59838e+07
1.53183e+07
1.50731e+07
1.20274e+07
1.37471e+07
1.37921e+07
1.56351e+07
1.66715e+07
1.85865e+07
2.03019e+07
2.2235e+07
2.43444e+07
2.62636e+07
2.85832e+07
3.04785e+07
3.29047e+07
3.47682e+07
3.72443e+07
3.90623e+07
4.15606e+07
4.33143e+07
4.58242e+07
4.74928e+07
5.00137e+07
5.15754e+07
5.41122e+07
5.55459e+07
5.81054e+07
5.93913e+07
6.19792e+07
6.31e+07
6.57178e+07
6.66605e+07
6.93015e+07
7.00608e+07
7.2703e+07
7.32771e+07
7.58825e+07
7.62398e+07
7.87685e+07
7.88859e+07
8.10329e+07
8.21694e+07
1.19484e+07
1.37967e+07
1.32269e+07
1.58428e+07
1.60242e+07
1.88382e+07
1.95514e+07
2.23971e+07
2.34733e+07
2.62797e+07
2.75948e+07
3.03298e+07
3.17997e+07
3.44465e+07
3.6018e+07
3.85637e+07
4.02062e+07
4.26374e+07
4.43355e+07
4.66374e+07
4.83856e+07
5.05424e+07
5.23413e+07
5.4337e+07
5.61905e+07
5.80091e+07
5.9922e+07
6.15477e+07
6.35243e+07
6.49407e+07
6.69847e+07
6.81742e+07
7.02898e+07
7.12358e+07
7.34144e+07
7.41067e+07
7.63173e+07
7.68324e+07
7.90398e+07
7.96013e+07
1.27025e+07
1.4489e+07
1.3873e+07
1.64526e+07
1.64647e+07
1.92893e+07
1.97368e+07
2.26394e+07
2.33841e+07
2.62957e+07
2.72436e+07
3.01229e+07
3.12079e+07
3.40259e+07
3.52032e+07
3.79388e+07
3.91809e+07
4.18167e+07
4.31086e+07
4.56287e+07
4.69648e+07
4.93531e+07
5.07338e+07
5.29739e+07
5.44036e+07
5.64783e+07
5.79634e+07
5.98544e+07
6.14014e+07
6.30921e+07
6.47032e+07
6.61887e+07
6.78519e+07
6.91517e+07
7.08314e+07
7.19953e+07
7.36664e+07
7.46888e+07
7.64345e+07
7.70836e+07
1.34886e+07
1.51775e+07
1.45573e+07
1.69745e+07
1.69559e+07
1.95979e+07
1.99897e+07
2.27226e+07
2.339e+07
2.61539e+07
2.70083e+07
2.97636e+07
3.07452e+07
3.34604e+07
3.45286e+07
3.7179e+07
3.83074e+07
4.08734e+07
4.20466e+07
4.45116e+07
4.57219e+07
4.80706e+07
4.93159e+07
5.15335e+07
5.2815e+07
5.48875e+07
5.6207e+07
5.81228e+07
5.94808e+07
6.12349e+07
6.26282e+07
6.42254e+07
6.56512e+07
6.71009e+07
6.85698e+07
6.98655e+07
7.14037e+07
7.2465e+07
7.40946e+07
7.4695e+07
1.42259e+07
1.57988e+07
1.51649e+07
1.74121e+07
1.73775e+07
1.9822e+07
2.01998e+07
2.27301e+07
2.33845e+07
2.59483e+07
2.679e+07
2.93518e+07
3.03211e+07
3.28519e+07
3.39086e+07
3.63846e+07
3.75019e+07
3.9904e+07
4.10645e+07
4.3377e+07
4.45702e+07
4.67798e+07
4.80002e+07
5.00952e+07
5.13399e+07
5.3311e+07
5.45786e+07
5.64197e+07
5.77101e+07
5.94175e+07
6.07346e+07
6.23041e+07
6.36599e+07
6.50823e+07
6.64936e+07
6.77476e+07
6.92152e+07
7.02421e+07
7.1734e+07
7.2377e+07
1.50037e+07
1.64594e+07
1.58085e+07
1.78903e+07
1.7826e+07
2.00876e+07
2.04407e+07
2.27804e+07
2.34184e+07
2.57876e+07
2.66199e+07
2.89869e+07
2.99523e+07
3.22919e+07
3.33484e+07
3.56399e+07
3.67586e+07
3.89852e+07
4.01465e+07
4.22946e+07
4.34852e+07
4.55439e+07
4.67552e+07
4.87156e+07
4.99426e+07
5.17977e+07
5.30383e+07
5.47823e+07
5.6038e+07
5.76654e+07
5.89416e+07
6.04463e+07
6.17514e+07
6.31268e+07
6.44655e+07
6.56962e+07
6.70543e+07
6.80969e+07
6.94356e+07
7.01791e+07
1.58757e+07
1.7214e+07
1.65545e+07
1.84704e+07
1.83673e+07
2.04545e+07
2.07653e+07
2.29277e+07
2.35297e+07
2.57197e+07
2.65241e+07
2.87122e+07
2.96565e+07
3.18203e+07
3.28604e+07
3.49822e+07
3.60868e+07
3.81526e+07
3.92998e+07
4.12981e+07
4.24726e+07
4.43944e+07
4.55856e+07
4.74235e+07
4.86251e+07
5.03728e+07
5.15818e+07
5.3234e+07
5.445e+07
5.60025e+07
5.72273e+07
5.86779e+07
5.99148e+07
6.12603e+07
6.25101e+07
6.37358e+07
6.49857e+07
6.6052e+07
6.72673e+07
6.80877e+07
1.68305e+07
1.80567e+07
1.73985e+07
1.91518e+07
1.90086e+07
2.09273e+07
2.11842e+07
2.31798e+07
2.37286e+07
2.57539e+07
2.65113e+07
2.85374e+07
2.94414e+07
3.14474e+07
3.24527e+07
3.44228e+07
3.54964e+07
3.74183e+07
3.85364e+07
4.04005e+07
4.1546e+07
4.33445e+07
4.45055e+07
4.62321e+07
4.74007e+07
4.90501e+07
5.02215e+07
5.17894e+07
5.29615e+07
5.44445e+07
5.56178e+07
5.70137e+07
5.81908e+07
5.9495e+07
6.06769e+07
6.18745e+07
6.305e+07
6.41046e+07
6.52431e+07
6.60828e+07
1.78361e+07
1.89615e+07
1.83112e+07
1.99123e+07
1.97323e+07
2.14912e+07
2.16899e+07
2.35285e+07
2.40141e+07
2.58868e+07
2.65841e+07
2.8462e+07
2.9312e+07
3.11748e+07
3.21322e+07
3.39649e+07
3.49958e+07
3.67871e+07
3.78663e+07
3.96077e+07
4.07166e+07
4.24012e+07
4.35266e+07
4.5149e+07
4.62814e+07
4.78372e+07
4.89707e+07
5.04561e+07
5.15875e+07
5.29994e+07
5.41283e+07
5.54631e+07
5.65911e+07
5.78437e+07
5.89695e+07
6.0131e+07
6.12384e+07
6.22891e+07
6.33376e+07
6.4226e+07
1.88675e+07
1.9905e+07
1.92662e+07
2.07303e+07
2.05178e+07
2.21292e+07
2.22707e+07
2.39627e+07
2.43819e+07
2.61123e+07
2.6743e+07
2.84837e+07
2.92716e+07
3.10024e+07
3.19037e+07
3.36099e+07
3.45905e+07
3.62613e+07
3.72953e+07
3.89225e+07
3.99904e+07
4.15678e+07
4.26549e+07
4.41779e+07
4.52737e+07
4.67382e+07
4.78353e+07
4.92383e+07
5.03322e+07
5.16711e+07
5.27596e+07
5.40321e+07
5.51144e+07
5.63169e+07
5.73901e+07
5.85154e+07
5.95656e+07
6.0599e+07
6.15902e+07
6.25075e+07
1.99098e+07
2.08713e+07
2.02459e+07
2.15889e+07
2.13486e+07
2.28266e+07
2.29145e+07
2.44716e+07
2.4825e+07
2.64233e+07
2.69854e+07
2.85985e+07
2.93203e+07
3.09284e+07
3.17686e+07
3.33572e+07
3.42827e+07
3.58409e+07
3.68255e+07
3.83456e+07
3.9369e+07
4.08452e+07
4.18919e+07
4.33198e+07
4.43781e+07
4.57541e+07
4.68156e+07
4.81372e+07
4.91958e+07
5.04612e+07
5.15129e+07
5.27205e+07
5.37631e+07
5.491e+07
5.59406e+07
5.70203e+07
5.80279e+07
5.90286e+07
5.99814e+07
6.08877e+07
2.0954e+07
2.18492e+07
2.12386e+07
2.24751e+07
2.22118e+07
2.35703e+07
2.36095e+07
2.50436e+07
2.53344e+07
2.68109e+07
2.73053e+07
2.87998e+07
2.94543e+07
3.09481e+07
3.17248e+07
3.32035e+07
3.40706e+07
3.55236e+07
3.64554e+07
3.7875e+07
3.8851e+07
4.02315e+07
4.12355e+07
4.25728e+07
4.35924e+07
4.48833e+07
4.59089e+07
4.7151e+07
4.81758e+07
4.93672e+07
5.03865e+07
5.15253e+07
5.25357e+07
5.36202e+07
5.46174e+07
5.56456e+07
5.66164e+07
5.7585e+07
5.84952e+07
5.94021e+07
2.19939e+07
2.28307e+07
2.2236e+07
2.33786e+07
2.30967e+07
2.43488e+07
2.43447e+07
2.56675e+07
2.59e+07
2.72649e+07
2.76941e+07
2.9079e+07
2.96671e+07
3.10545e+07
3.17669e+07
3.3143e+07
3.395e+07
3.53045e+07
3.61813e+07
3.75064e+07
3.84326e+07
3.97229e+07
4.0682e+07
4.19334e+07
4.29124e+07
4.41219e+07
4.51106e+07
4.62759e+07
4.72665e+07
4.8386e+07
4.93724e+07
5.04449e+07
5.14223e+07
5.2448e+07
5.34108e+07
5.43911e+07
5.5327e+07
5.62614e+07
5.71425e+07
5.80271e+07
2.30247e+07
2.38094e+07
2.32313e+07
2.42908e+07
2.39945e+07
2.51517e+07
2.51096e+07
2.63322e+07
2.65115e+07
2.77746e+07
2.81423e+07
2.94264e+07
2.995e+07
3.12389e+07
3.18876e+07
3.31682e+07
3.39145e+07
3.51769e+07
3.59973e+07
3.72338e+07
3.81084e+07
3.93136e+07
4.02261e+07
4.13961e+07
4.2333e+07
4.34649e+07
4.44154e+07
4.55072e+07
4.64625e+07
4.75132e+07
4.84663e+07
4.94756e+07
5.04208e+07
5.13898e+07
5.23216e+07
5.32532e+07
5.41602e+07
5.50572e+07
5.59088e+07
5.6774e+07
2.40421e+07
2.47802e+07
2.42191e+07
2.52047e+07
2.48975e+07
2.59702e+07
2.58952e+07
2.70276e+07
2.71588e+07
2.83296e+07
2.86399e+07
2.98317e+07
3.02937e+07
3.14917e+07
3.20782e+07
3.32702e+07
3.39563e+07
3.51327e+07
3.58963e+07
3.70498e+07
3.78719e+07
3.8997e+07
3.98616e+07
4.09546e+07
4.18481e+07
4.29062e+07
4.38176e+07
4.4839e+07
4.57589e+07
4.67429e+07
4.76636e+07
4.86104e+07
4.95263e+07
5.04373e+07
5.13435e+07
5.22206e+07
5.31086e+07
5.39504e+07
5.47965e+07
5.56053e+07
2.50428e+07
2.57386e+07
2.51945e+07
2.61143e+07
2.57991e+07
2.67963e+07
2.66932e+07
2.77445e+07
2.78326e+07
2.89197e+07
2.91773e+07
3.02847e+07
3.06886e+07
3.1803e+07
3.23297e+07
3.34397e+07
3.40667e+07
3.51632e+07
3.58703e+07
3.69461e+07
3.77154e+07
3.87654e+07
3.95813e+07
4.06016e+07
4.1451e+07
4.24389e+07
4.33106e+07
4.42645e+07
4.5149e+07
4.6068e+07
4.69576e+07
4.7842e+07
4.87303e+07
4.95816e+07
5.04634e+07
5.12842e+07
5.21496e+07
5.29424e+07
5.37652e+07
5.45428e+07
2.60234e+07
2.66806e+07
2.61535e+07
2.70141e+07
2.66937e+07
2.76231e+07
2.7496e+07
2.84744e+07
2.85243e+07
2.95355e+07
2.97449e+07
3.07755e+07
3.11251e+07
3.21628e+07
3.26325e+07
3.36667e+07
3.42366e+07
3.52588e+07
3.59105e+07
3.69139e+07
3.76306e+07
3.86101e+07
3.93772e+07
4.0329e+07
4.11338e+07
4.20551e+07
4.28865e+07
4.37757e+07
4.46243e+07
4.54807e+07
4.63385e+07
4.71625e+07
4.8023e+07
4.88165e+07
4.96736e+07
5.04398e+07
5.1284e+07
5.20259e+07
5.28352e+07
5.35647e+07
2.69809e+07
2.76027e+07
2.70922e+07
2.78995e+07
2.75758e+07
2.84444e+07
2.82971e+07
2.92097e+07
2.92258e+07
3.01685e+07
3.03341e+07
3.12946e+07
3.1594e+07
3.25613e+07
3.29772e+07
3.39417e+07
3.44567e+07
3.54102e+07
3.60078e+07
3.69439e+07
3.76087e+07
3.85223e+07
3.92407e+07
4.01282e+07
4.08879e+07
4.17465e+07
4.25369e+07
4.33649e+07
4.41766e+07
4.49735e+07
4.57982e+07
4.65647e+07
4.73954e+07
4.81343e+07
4.89647e+07
4.96802e+07
5.05011e+07
5.11977e+07
5.19869e+07
5.2679e+07
2.79123e+07
2.85013e+07
2.80071e+07
2.87661e+07
2.84409e+07
2.92546e+07
2.90902e+07
2.99436e+07
2.99299e+07
3.08104e+07
3.09365e+07
3.18333e+07
3.20862e+07
3.29893e+07
3.33546e+07
3.4255e+07
3.47176e+07
3.56077e+07
3.61529e+07
3.70266e+07
3.76405e+07
3.84929e+07
3.91629e+07
3.99902e+07
4.07047e+07
4.15045e+07
4.22533e+07
4.30238e+07
4.37977e+07
4.45383e+07
4.53293e+07
4.60406e+07
4.68419e+07
4.75265e+07
4.83322e+07
4.89938e+07
4.97962e+07
5.04377e+07
5.12188e+07
5.18512e+07
2.88146e+07
2.93731e+07
2.88947e+07
2.96097e+07
2.92843e+07
3.00484e+07
2.98697e+07
3.06694e+07
3.06296e+07
3.14537e+07
3.15442e+07
3.2383e+07
3.25933e+07
3.34377e+07
3.37557e+07
3.45974e+07
3.50103e+07
3.5842e+07
3.63369e+07
3.71528e+07
3.77172e+07
3.85126e+07
3.91349e+07
3.99063e+07
4.05757e+07
4.13205e+07
4.20273e+07
4.27438e+07
4.34794e+07
4.41669e+07
4.49235e+07
4.55824e+07
4.63537e+07
4.69858e+07
4.77662e+07
4.83744e+07
4.91564e+07
4.9743e+07
5.05083e+07
5.1087e+07
2.96846e+07
3.02146e+07
2.97514e+07
3.04262e+07
3.01018e+07
3.08207e+07
3.06302e+07
3.13813e+07
3.13185e+07
3.20916e+07
3.21499e+07
3.2936e+07
3.31072e+07
3.3898e+07
3.41721e+07
3.49599e+07
3.53259e+07
3.61039e+07
3.65506e+07
3.73133e+07
3.78296e+07
3.85725e+07
3.91479e+07
3.98674e+07
4.0492e+07
4.11856e+07
4.18503e+07
4.25164e+07
4.32129e+07
4.3851e+07
4.45716e+07
4.51823e+07
4.59204e+07
4.65059e+07
4.72552e+07
4.7819e+07
4.85708e+07
4.91173e+07
4.98523e+07
5.04006e+07
3.05191e+07
3.10223e+07
3.05737e+07
3.12116e+07
3.08891e+07
3.15669e+07
3.13666e+07
3.20735e+07
3.19906e+07
3.27172e+07
3.27467e+07
3.34849e+07