/*--------------------------------*- C++ -*----------------------------------*\
| =========                 |                                                 |
| \\      /  F ield         | OpenFOAM: The Open Source CFD Toolbox           |
|  \\    /   O peration     | Version:  v2012                                 |
|   \\  /    A nd           | Website:  www.openfoam.com                      |
|    \\/     M anipulation  |                                                 |
\*---------------------------------------------------------------------------*/
FoamFile
{
    version     2.0;
    format      ascii;
    class       volScalarField;
    location    "1";
    object      epsilonEq;
}
// * * * * * * * * * * * * * * * * * * * * * * * * * * * * * * * * * * * * * //

dimensions      [0 0 0 0 0 0 0];


internalField   nonuniform List<scalar> 
980
(
1.79329e-05
1.79329e-05
8.10062e-06
8.10062e-06
5.08227e-06
5.08227e-06
8.91071e-06
8.91071e-06
1.91212e-05
1.91212e-05
1.79636e-05
1.79636e-05
1.01729e-05
1.01729e-05
7.53949e-06
7.53949e-06
1.10487e-05
1.10487e-05
1.91635e-05
1.91635e-05
1.70392e-05
1.70392e-05
1.08592e-05
1.08592e-05
8.91964e-06
8.91964e-06
1.176e-05
1.176e-05
1.82463e-05
1.82463e-05
1.57343e-05
1.57343e-05
1.08993e-05
1.08993e-05
9.60813e-06
9.60813e-06
1.17982e-05
1.17982e-05
1.69446e-05
1.69446e-05
1.43009e-05
1.43009e-05
1.06543e-05
1.06543e-05
9.93143e-06
9.93143e-06
1.15354e-05
1.15354e-05
1.55128e-05
1.55128e-05
1.28311e-05
1.28311e-05
1.0299e-05
1.0299e-05
1.00738e-05
1.00738e-05
1.11522e-05
1.11522e-05
1.40422e-05
1.40422e-05
1.13625e-05
1.13625e-05
9.9171e-06
9.9171e-06
1.0128e-05
1.0128e-05
1.07331e-05
1.07331e-05
1.2569e-05
1.2569e-05
9.91514e-06
9.91514e-06
9.54983e-06
9.54983e-06
1.01402e-05
1.01402e-05
1.03154e-05
1.03154e-05
1.11099e-05
1.11099e-05
8.50389e-06
8.50389e-06
9.21924e-06
9.21924e-06
1.01389e-05
1.01389e-05
9.91273e-06
9.91273e-06
9.67065e-06
9.67065e-06
7.14226e-06
7.14226e-06
8.93991e-06
8.93991e-06
1.01557e-05
1.01557e-05
9.53294e-06
9.53294e-06
8.23331e-06
8.23331e-06
5.80142e-06
5.80142e-06
8.55318e-06
8.55318e-06
1.00658e-05
1.00658e-05
9.34722e-06
9.34722e-06
7.56377e-06
7.56377e-06
4.89974e-06
4.89974e-06
8.03721e-06
8.03721e-06
9.96189e-06
9.96189e-06
9.79942e-06
9.79942e-06
7.88482e-06
7.88482e-06
4.033e-06
4.033e-06
7.49485e-06
7.49485e-06
9.74171e-06
9.74171e-06
1.01327e-05
1.01327e-05
8.65864e-06
8.65864e-06
3.24231e-06
3.24231e-06
6.92441e-06
6.92441e-06
9.40361e-06
9.40361e-06
1.02885e-05
1.02885e-05
9.45746e-06
9.45746e-06
2.64271e-06
2.64271e-06
6.3485e-06
6.3485e-06
8.95781e-06
8.95781e-06
1.02499e-05
1.02499e-05
1.00709e-05
1.00709e-05
2.42603e-06
2.42603e-06
5.81536e-06
5.81536e-06
8.43141e-06
8.43141e-06
1.00253e-05
1.00253e-05
1.0417e-05
1.0417e-05
2.69896e-06
2.69896e-06
5.40038e-06
5.40038e-06
7.87635e-06
7.87635e-06
9.65047e-06
9.65047e-06
1.04897e-05
1.04897e-05
3.31382e-06
3.31382e-06
5.19539e-06
5.19539e-06
7.37948e-06
7.37948e-06
9.19874e-06
9.19873e-06
1.03425e-05
1.03425e-05
4.03799e-06
4.03799e-06
5.26626e-06
5.26626e-06
7.06605e-06
7.06605e-06
8.7999e-06
8.7999e-06
1.01013e-05
1.01013e-05
4.66059e-06
4.66059e-06
5.58368e-06
5.58368e-06
7.06793e-06
7.06793e-06
8.6511e-06
8.6511e-06
9.9978e-06
9.9978e-06
4.90844e-06
4.90844e-06
5.95876e-06
5.95877e-06
7.4143e-06
7.4143e-06
8.95436e-06
8.95437e-06
1.03768e-05
1.03768e-05
4.27381e-06
4.27381e-06
5.91334e-06
5.91334e-06
7.77968e-06
7.77968e-06
9.63276e-06
9.63277e-06
1.13267e-05
1.13267e-05
1.30895e-05
1.30895e-05
1.45774e-05
1.45774e-05
1.56613e-05
1.56613e-05
1.60814e-05
1.60814e-05
1.56472e-05
1.56472e-05
1.17264e-05
1.17264e-05
1.2945e-05
1.2945e-05
1.38099e-05
1.38099e-05
1.40135e-05
1.40135e-05
1.32923e-05
1.32923e-05
1.10953e-05
1.10953e-05
1.20653e-05
1.20653e-05
1.27378e-05
1.27378e-05
1.27979e-05
1.27979e-05
1.19598e-05
1.19598e-05
1.09667e-05
1.09667e-05
1.16659e-05
1.16659e-05
1.21247e-05
1.21247e-05
1.20332e-05
1.20332e-05
1.11046e-05
1.11046e-05
1.09553e-05
1.09553e-05
1.1431e-05
1.1431e-05
1.16984e-05
1.16984e-05
1.14771e-05
1.14771e-05
1.04983e-05
1.04983e-05
1.08216e-05
1.08216e-05
1.11418e-05
1.11418e-05
1.12758e-05
1.12758e-05
1.09842e-05
1.09842e-05
1.00329e-05
1.00329e-05
1.04252e-05
1.04252e-05
1.06509e-05
1.06509e-05
1.07299e-05
1.07299e-05
1.04665e-05
1.04665e-05
9.66793e-06
9.66793e-06
9.68943e-06
9.68943e-06
9.85012e-06
9.85012e-06
9.96548e-06
9.96548e-06
9.87545e-06
9.87545e-06
9.41598e-06
9.41598e-06
8.59714e-06
8.59714e-06
8.65149e-06
8.65149e-06
8.90602e-06
8.90602e-06
9.20307e-06
9.20307e-06
9.34284e-06
9.34284e-06
7.24471e-06
7.24471e-06
6.98131e-06
6.98131e-06
7.49339e-06
7.49339e-06
8.50239e-06
8.50239e-06
9.56971e-06
9.56971e-06
6.06091e-06
6.06091e-06
4.80134e-06
4.80134e-06
5.71846e-06
5.71846e-06
7.93829e-06
7.93829e-06
1.02625e-05
1.02625e-05
6.26379e-06
6.26379e-06
2.3638e-06
2.3638e-06
3.80659e-06
3.80659e-06
7.85218e-06
7.85218e-06
1.15998e-05
1.15998e-05
1.40468e-05
1.40468e-05
1.475e-05
1.475e-05
1.41532e-05
1.41532e-05
1.31325e-05
1.31325e-05
1.24362e-05
1.24362e-05
1.18703e-05
1.18703e-05
1.24036e-05
1.24036e-05
1.20797e-05
1.20797e-05
1.14003e-05
1.14003e-05
1.07948e-05
1.07948e-05
1.02836e-05
1.02836e-05
1.04457e-05
1.04457e-05
1.01376e-05
1.01376e-05
9.5902e-06
9.5902e-06
9.03009e-06
9.03009e-06
9.21919e-06
9.21919e-06
8.87112e-06
8.87112e-06
8.38291e-06
8.38291e-06
7.81743e-06
7.81743e-06
7.24298e-06
7.24298e-06
8.60657e-06
8.60657e-06
7.68612e-06
7.68612e-06
6.86329e-06
6.86329e-06
6.15758e-06
6.15758e-06
5.51703e-06
5.51703e-06
8.36741e-06
8.36741e-06
6.90103e-06
6.90103e-06
5.63282e-06
5.63282e-06
4.66973e-06
4.66973e-06
3.91472e-06
3.91472e-06
8.42759e-06
8.42759e-06
6.51929e-06
6.51929e-06
4.76739e-06
4.76739e-06
3.42879e-06
3.42879e-06
2.49272e-06
2.49272e-06
8.73823e-06
8.73823e-06
6.53212e-06
6.53212e-06
4.36739e-06
4.36739e-06
2.60063e-06
2.60063e-06
1.41371e-06
1.41371e-06
9.2978e-06
9.2978e-06
6.93593e-06
6.93593e-06
4.52486e-06
4.52486e-06
2.5104e-06
2.51041e-06
1.38921e-06
1.38921e-06
1.01818e-05
1.01818e-05
7.78531e-06
7.78531e-06
5.31193e-06
5.31193e-06
3.34427e-06
3.34427e-06
2.54346e-06
2.54346e-06
1.16209e-05
1.16209e-05
9.32363e-06
9.32363e-06
6.96648e-06
6.96648e-06
5.1936e-06
5.1936e-06
4.55174e-06
4.55174e-06
1.43806e-05
1.43806e-05
1.25975e-05
1.25975e-05
1.08124e-05
1.08124e-05
9.54921e-06
9.54921e-06
9.12324e-06
9.12324e-06
9.67177e-06
9.67177e-06
1.09701e-05
1.09701e-05
1.24436e-05
1.24436e-05
1.3749e-05
1.3749e-05
1.45804e-05
1.45804e-05
5.50458e-06
5.50458e-06
7.23221e-06
7.23221e-06
9.09743e-06
9.09743e-06
1.07414e-05
1.07414e-05
1.18376e-05
1.18376e-05
3.54884e-06
3.54884e-06
5.39593e-06
5.39593e-06
7.331e-06
7.331e-06
9.00224e-06
9.00224e-06
1.00878e-05
1.00878e-05
2.19584e-06
2.19584e-06
4.13502e-06
4.13502e-06
6.12681e-06
6.12681e-06
7.79981e-06
7.79981e-06
8.8333e-06
8.8333e-06
1.14358e-06
1.14358e-06
3.11103e-06
3.11103e-06
5.19696e-06
5.19696e-06
6.89658e-06
6.89658e-06
7.87994e-06
7.87994e-06
9.96117e-07
9.96117e-07
2.19104e-06
2.19104e-06
4.41255e-06
4.41255e-06
6.18011e-06
6.18011e-06
7.12981e-06
7.12981e-06
2.02646e-06
2.02646e-06
1.34825e-06
1.34825e-06
3.7031e-06
3.7031e-06
5.58711e-06
5.58711e-06
6.52717e-06
6.52717e-06
3.37231e-06
3.37231e-06
8.23587e-07
8.23587e-07
3.0268e-06
3.0268e-06
5.07829e-06
5.07829e-06
6.03784e-06
6.03784e-06
4.85535e-06
4.85535e-06
1.27379e-06
1.27379e-06
2.3589e-06
2.3589e-06
4.62767e-06
4.62767e-06
5.63989e-06
5.63989e-06
6.41244e-06
6.41244e-06
2.23941e-06
2.23941e-06
1.68826e-06
1.68826e-06
4.21735e-06
4.21735e-06
5.31923e-06
5.31923e-06
7.96878e-06
7.96878e-06
3.34978e-06
3.34978e-06
1.02721e-06
1.02721e-06
3.83433e-06
3.83433e-06
5.06768e-06
5.06768e-06
9.41962e-06
9.41962e-06
4.53276e-06
4.53276e-06
5.39932e-07
5.39932e-07
3.46839e-06
3.46839e-06
4.88259e-06
4.88259e-06
1.47324e-05
1.47324e-05
1.41825e-05
1.41825e-05
1.30904e-05
1.30904e-05
1.16899e-05
1.16899e-05
1.01873e-05
1.01873e-05
1.21805e-05
1.21805e-05
1.17916e-05
1.17916e-05
1.08984e-05
1.08984e-05
9.78527e-06
9.78527e-06
8.66922e-06
8.66922e-06
1.04001e-05
1.04001e-05
1.0003e-05
1.0003e-05
9.16284e-06
9.16284e-06
8.1714e-06
8.1714e-06
7.22138e-06
7.22138e-06
9.0653e-06
9.0653e-06
8.60888e-06
8.60889e-06
7.76946e-06
7.76946e-06
6.84552e-06
6.84552e-06
6.01611e-06
6.01611e-06
8.01295e-06
8.01295e-06
7.4673e-06
7.4673e-06
6.59811e-06
6.59811e-06
5.71917e-06
5.71917e-06
4.99698e-06
4.99698e-06
7.15521e-06
7.15521e-06
6.49674e-06
6.49674e-06
5.57523e-06
5.57523e-06
4.73407e-06
4.73407e-06
4.1318e-06
4.1318e-06
6.44199e-06
6.44199e-06
5.64966e-06
5.64966e-06
4.65672e-06
4.65672e-06
3.85949e-06
3.85949e-06
3.41427e-06
3.41427e-06
5.84406e-06
5.84406e-06
4.89881e-06
4.89881e-06
3.81686e-06
3.81686e-06
3.08593e-06
3.08593e-06
2.86082e-06
2.86082e-06
5.34511e-06
5.34511e-06
4.23092e-06
4.23092e-06
3.0436e-06
3.0436e-06
2.42664e-06
2.42664e-06
2.50399e-06
2.50399e-06
4.93772e-06
4.93772e-06
3.64475e-06
3.64475e-06
2.3396e-06
2.3396e-06
1.92738e-06
1.92738e-06
2.36836e-06
2.36836e-06
4.62149e-06
4.62149e-06
3.15189e-06
3.15189e-06
1.73333e-06
1.73333e-06
1.66893e-06
1.66893e-06
2.43329e-06
2.43329e-06
4.40233e-06
4.40233e-06
2.77877e-06
2.77877e-06
1.31038e-06
1.31038e-06
1.70208e-06
1.70208e-06
2.62932e-06
2.62932e-06
8.71956e-06
8.71956e-06
7.3034e-06
7.3034e-06
5.74408e-06
5.74409e-06
4.1314e-06
4.13141e-06
2.63152e-06
2.63152e-06
7.87519e-06
7.87519e-06
7.00272e-06
7.00272e-06
5.90901e-06
5.90901e-06
4.64518e-06
4.64518e-06
3.39168e-06
3.39168e-06
6.76272e-06
6.76272e-06
6.35555e-06
6.35555e-06
5.64503e-06
5.64503e-06
4.68544e-06
4.68544e-06
3.64117e-06
3.64117e-06
5.76605e-06
5.76605e-06
5.6759e-06
5.6759e-06
5.26885e-06
5.26885e-06
4.55923e-06
4.55923e-06
3.68125e-06
3.68125e-06
4.91217e-06
4.91217e-06
5.05482e-06
5.05482e-06
4.88509e-06
4.88509e-06
4.38083e-06
4.38083e-06
3.64024e-06
3.64024e-06
4.19756e-06
4.19756e-06
4.51749e-06
4.51749e-06
4.53458e-06
4.53458e-06
4.19858e-06
4.19858e-06
3.57351e-06
3.57351e-06
3.62558e-06
3.62558e-06
4.07351e-06
4.07351e-06
4.23402e-06
4.23402e-06
4.03381e-06
4.03381e-06
3.50609e-06
3.50609e-06
3.20742e-06
3.20742e-06
3.72854e-06
3.72854e-06
3.99014e-06
3.99014e-06
3.89549e-06
3.89549e-06
3.44912e-06
3.44912e-06
2.95328e-06
2.95328e-06
3.48491e-06
3.48491e-06
3.80438e-06
3.80438e-06
3.78633e-06
3.78633e-06
3.40689e-06
3.40689e-06
2.85856e-06
2.85856e-06
3.33911e-06
3.33911e-06
3.67424e-06
3.67424e-06
3.70549e-06
3.70549e-06
3.38013e-06
3.38013e-06
2.89544e-06
2.89544e-06
3.27991e-06
3.27991e-06
3.59391e-06
3.59391e-06
3.6499e-06
3.6499e-06
3.36778e-06
3.36778e-06
3.01949e-06
3.01949e-06
3.28914e-06
3.28915e-06
3.55499e-06
3.55499e-06
3.61492e-06
3.61492e-06
3.36788e-06
3.36788e-06
3.90491e-06
3.90491e-06
3.87283e-06
3.87283e-06
3.81268e-06
3.81268e-06
3.73919e-06
3.73919e-06
3.68558e-06
3.68558e-06
3.84596e-06
3.84596e-06
3.8244e-06
3.8244e-06
3.78077e-06
3.78077e-06
3.72048e-06
3.72048e-06
3.66857e-06
3.66857e-06
3.80231e-06
3.80231e-06
3.78878e-06
3.78878e-06
3.75527e-06
3.75527e-06
3.69877e-06
3.69877e-06
3.63842e-06
3.63842e-06
3.76572e-06
3.76573e-06
3.75946e-06
3.75946e-06
3.73367e-06
3.73367e-06
3.67661e-06
3.67661e-06
3.60004e-06
3.60004e-06
3.7285e-06
3.7285e-06
3.73065e-06
3.73065e-06
3.71341e-06
3.71341e-06
3.65468e-06
3.65469e-06
3.55663e-06
3.55663e-06
3.68283e-06
3.68283e-06
3.69667e-06
3.69666e-06
3.69181e-06
3.69181e-06
3.63312e-06
3.63312e-06
3.51083e-06
3.51083e-06
3.62023e-06
3.62023e-06
3.65157e-06
3.65157e-06
3.66631e-06
3.66631e-06
3.61218e-06
3.61218e-06
3.46531e-06
3.46531e-06
3.53101e-06
3.53101e-06
3.58909e-06
3.58909e-06
3.63481e-06
3.63481e-06
3.59288e-06
3.59288e-06
3.42326e-06
3.42326e-06
3.40389e-06
3.40389e-06
3.50271e-06
3.50271e-06
3.59643e-06
3.59643e-06
3.57788e-06
3.57788e-06
3.38886e-06
3.38886e-06
3.22585e-06
3.22585e-06
3.38607e-06
3.38607e-06
3.55298e-06
3.55298e-06
3.57313e-06
3.57313e-06
3.36788e-06
3.36788e-06
1.68049e-06
1.68049e-06
2.73489e-06
2.73489e-06
4.66916e-06
4.66917e-06
6.84336e-06
6.84336e-06
9.10185e-06
9.10186e-06
1.17584e-05
1.17584e-05
1.45572e-05
1.45572e-05
1.71441e-05
1.71441e-05
1.93792e-05
1.93792e-05
2.11673e-05
2.11673e-05
2.24856e-05
2.24856e-05
2.33708e-05
2.33708e-05
2.38615e-05
2.38614e-05
2.39576e-05
2.39576e-05
2.36404e-05
2.36404e-05
2.32402e-05
2.32402e-05
2.28642e-05
2.28642e-05
2.21619e-05
2.21619e-05
2.11416e-05
2.11416e-05
1.97981e-05
1.97981e-05
1.81104e-05
1.81104e-05
1.60822e-05
1.60823e-05
1.37746e-05
1.37746e-05
1.12903e-05
1.12903e-05
8.73974e-06
8.73974e-06
6.45752e-06
6.45752e-06
4.58482e-06
4.58481e-06
2.8719e-06
2.87191e-06
1.52023e-06
1.52023e-06
1.17415e-06
1.17415e-06
)
;

boundaryField
{
    symmz
    {
        type            calculated;
        value           nonuniform List<scalar> 
490
(
1.79329e-05
8.10062e-06
5.08227e-06
8.91071e-06
1.91212e-05
1.79636e-05
1.01729e-05
7.53949e-06
1.10487e-05
1.91635e-05
1.70392e-05
1.08592e-05
8.91964e-06
1.176e-05
1.82463e-05
1.57343e-05
1.08993e-05
9.60813e-06
1.17982e-05
1.69446e-05
1.43009e-05
1.06543e-05
9.93143e-06
1.15354e-05
1.55128e-05
1.28311e-05
1.0299e-05
1.00738e-05
1.11522e-05
1.40422e-05
1.13625e-05
9.9171e-06
1.0128e-05
1.07331e-05
1.2569e-05
9.91514e-06
9.54983e-06
1.01402e-05
1.03154e-05
1.11099e-05
8.50389e-06
9.21924e-06
1.01389e-05
9.91273e-06
9.67065e-06
7.14226e-06
8.93991e-06
1.01557e-05
9.53294e-06
8.23331e-06
5.80142e-06
8.55318e-06
1.00658e-05
9.34722e-06
7.56377e-06
4.89974e-06
8.03721e-06
9.96189e-06
9.79942e-06
7.88482e-06
4.033e-06
7.49485e-06
9.74171e-06
1.01327e-05
8.65864e-06
3.24231e-06
6.92441e-06
9.40361e-06
1.02885e-05
9.45746e-06
2.64271e-06
6.3485e-06
8.95781e-06
1.02499e-05
1.00709e-05
2.42603e-06
5.81536e-06
8.43141e-06
1.00253e-05
1.0417e-05
2.69896e-06
5.40038e-06
7.87635e-06
9.65047e-06
1.04897e-05
3.31382e-06
5.19539e-06
7.37948e-06
9.19874e-06
1.03425e-05
4.03799e-06
5.26626e-06
7.06605e-06
8.7999e-06
1.01013e-05
4.66059e-06
5.58368e-06
7.06793e-06
8.6511e-06
9.9978e-06
4.90844e-06
5.95876e-06
7.4143e-06
8.95436e-06
1.03768e-05
4.27381e-06
5.91334e-06
7.77968e-06
9.63276e-06
1.13267e-05
1.30895e-05
1.45774e-05
1.56613e-05
1.60814e-05
1.56472e-05
1.17264e-05
1.2945e-05
1.38099e-05
1.40135e-05
1.32923e-05
1.10953e-05
1.20653e-05
1.27378e-05
1.27979e-05
1.19598e-05
1.09667e-05
1.16659e-05
1.21247e-05
1.20332e-05
1.11046e-05
1.09553e-05
1.1431e-05
1.16984e-05
1.14771e-05
1.04983e-05
1.08216e-05
1.11418e-05
1.12758e-05
1.09842e-05
1.00329e-05
1.04252e-05
1.06509e-05
1.07299e-05
1.04665e-05
9.66793e-06
9.68943e-06
9.85012e-06
9.96548e-06
9.87545e-06
9.41598e-06
8.59714e-06
8.65149e-06
8.90602e-06
9.20307e-06
9.34284e-06
7.24471e-06
6.98131e-06
7.49339e-06
8.50239e-06
9.56971e-06
6.06091e-06
4.80134e-06
5.71846e-06
7.93829e-06
1.02625e-05
6.26379e-06
2.3638e-06
3.80659e-06
7.85218e-06
1.15998e-05
1.40468e-05
1.475e-05
1.41532e-05
1.31325e-05
1.24362e-05
1.18703e-05
1.24036e-05
1.20797e-05
1.14003e-05
1.07948e-05
1.02836e-05
1.04457e-05
1.01376e-05
9.5902e-06
9.03009e-06
9.21919e-06
8.87112e-06
8.38291e-06
7.81743e-06
7.24298e-06
8.60657e-06
7.68612e-06
6.86329e-06
6.15758e-06
5.51703e-06
8.36741e-06
6.90103e-06
5.63282e-06
4.66973e-06
3.91472e-06
8.42759e-06
6.51929e-06
4.76739e-06
3.42879e-06
2.49272e-06
8.73823e-06
6.53212e-06
4.36739e-06
2.60063e-06
1.41371e-06
9.2978e-06
6.93593e-06
4.52486e-06
2.5104e-06
1.38921e-06
1.01818e-05
7.78531e-06
5.31193e-06
3.34427e-06
2.54346e-06
1.16209e-05
9.32363e-06
6.96648e-06
5.1936e-06
4.55174e-06
1.43806e-05
1.25975e-05
1.08124e-05
9.54921e-06
9.12324e-06
9.67177e-06
1.09701e-05
1.24436e-05
1.3749e-05
1.45804e-05
5.50458e-06
7.23221e-06
9.09743e-06
1.07414e-05
1.18376e-05
3.54884e-06
5.39593e-06
7.331e-06
9.00224e-06
1.00878e-05
2.19584e-06
4.13502e-06
6.12681e-06
7.79981e-06
8.8333e-06
1.14358e-06
3.11103e-06
5.19696e-06
6.89658e-06
7.87994e-06
9.96117e-07
2.19104e-06
4.41255e-06
6.18011e-06
7.12981e-06
2.02646e-06
1.34825e-06
3.7031e-06
5.58711e-06
6.52717e-06
3.37231e-06
8.23587e-07
3.0268e-06
5.07829e-06
6.03784e-06
4.85535e-06
1.27379e-06
2.3589e-06
4.62767e-06
5.63989e-06
6.41244e-06
2.23941e-06
1.68826e-06
4.21735e-06
5.31923e-06
7.96878e-06
3.34978e-06
1.02721e-06
3.83433e-06
5.06768e-06
9.41962e-06
4.53276e-06
5.39932e-07
3.46839e-06
4.88259e-06
1.47324e-05
1.41825e-05
1.30904e-05
1.16899e-05
1.01873e-05
1.21805e-05
1.17916e-05
1.08984e-05
9.78527e-06
8.66922e-06
1.04001e-05
1.0003e-05
9.16284e-06
8.1714e-06
7.22138e-06
9.0653e-06
8.60888e-06
7.76946e-06
6.84552e-06
6.01611e-06
8.01295e-06
7.4673e-06
6.59811e-06
5.71917e-06
4.99698e-06
7.15521e-06
6.49674e-06
5.57523e-06
4.73407e-06
4.1318e-06
6.44199e-06
5.64966e-06
4.65672e-06
3.85949e-06
3.41427e-06
5.84406e-06
4.89881e-06
3.81686e-06
3.08593e-06
2.86082e-06
5.34511e-06
4.23092e-06
3.0436e-06
2.42664e-06
2.50399e-06
4.93772e-06
3.64475e-06
2.3396e-06
1.92738e-06
2.36836e-06
4.62149e-06
3.15189e-06
1.73333e-06
1.66893e-06
2.43329e-06
4.40233e-06
2.77877e-06
1.31038e-06
1.70208e-06
2.62932e-06
8.71956e-06
7.3034e-06
5.74408e-06
4.1314e-06
2.63152e-06
7.87519e-06
7.00272e-06
5.90901e-06
4.64518e-06
3.39168e-06
6.76272e-06
6.35555e-06
5.64503e-06
4.68544e-06
3.64117e-06
5.76605e-06
5.6759e-06
5.26885e-06
4.55923e-06
3.68125e-06
4.91217e-06
5.05482e-06
4.88509e-06
4.38083e-06
3.64024e-06
4.19756e-06
4.51749e-06
4.53458e-06
4.19858e-06
3.57351e-06
3.62558e-06
4.07351e-06
4.23402e-06
4.03381e-06
3.50609e-06
3.20742e-06
3.72854e-06
3.99014e-06
3.89549e-06
3.44912e-06
2.95328e-06
3.48491e-06
3.80438e-06
3.78633e-06
3.40689e-06
2.85856e-06
3.33911e-06
3.67424e-06
3.70549e-06
3.38013e-06
2.89544e-06
3.27991e-06
3.59391e-06
3.6499e-06
3.36778e-06
3.01949e-06
3.28914e-06
3.55499e-06
3.61492e-06
3.36788e-06
3.90491e-06
3.87283e-06
3.81268e-06
3.73919e-06
3.68558e-06
3.84596e-06
3.8244e-06
3.78077e-06
3.72048e-06
3.66857e-06
3.80231e-06
3.78878e-06
3.75527e-06
3.69877e-06
3.63842e-06
3.76572e-06
3.75946e-06
3.73367e-06
3.67661e-06
3.60004e-06
3.7285e-06
3.73065e-06
3.71341e-06
3.65468e-06
3.55663e-06
3.68283e-06
3.69667e-06
3.69181e-06
3.63312e-06
3.51083e-06
3.62023e-06
3.65157e-06
3.66631e-06
3.61218e-06
3.46531e-06
3.53101e-06
3.58909e-06
3.63481e-06
3.59288e-06
3.42326e-06
3.40389e-06
3.50271e-06
3.59643e-06
3.57788e-06
3.38886e-06
3.22585e-06
3.38607e-06
3.55298e-06
3.57313e-06
3.36788e-06
1.68049e-06
2.73489e-06
4.66916e-06
6.84336e-06
9.10185e-06
1.17584e-05
1.45572e-05
1.71441e-05
1.93792e-05
2.11673e-05
2.24856e-05
2.33708e-05
2.38615e-05
2.39576e-05
2.36404e-05
2.32402e-05
2.28642e-05
2.21619e-05
2.11416e-05
1.97981e-05
1.81104e-05
1.60822e-05
1.37746e-05
1.12903e-05
8.73974e-06
6.45752e-06
4.58482e-06
2.8719e-06
1.52023e-06
1.17415e-06
)
;
    }
    tractionFree
    {
        type            calculated;
        value           nonuniform List<scalar> 
192
(
1.79329e-05
1.79329e-05
1.91212e-05
1.91212e-05
1.79636e-05
1.79636e-05
1.91635e-05
1.91635e-05
1.70392e-05
1.70392e-05
1.82463e-05
1.82463e-05
1.57343e-05
1.57343e-05
1.69446e-05
1.69446e-05
1.43009e-05
1.43009e-05
1.55128e-05
1.55128e-05
1.28311e-05
1.28311e-05
1.40422e-05
1.40422e-05
1.13625e-05
1.13625e-05
1.2569e-05
1.2569e-05
9.91514e-06
9.91514e-06
1.11099e-05
1.11099e-05
8.50389e-06
8.50389e-06
9.67065e-06
9.67065e-06
7.14226e-06
7.14226e-06
8.23331e-06
8.23331e-06
5.80142e-06
5.80142e-06
4.89974e-06
4.89974e-06
4.033e-06
4.033e-06
3.24231e-06
3.24231e-06
2.64271e-06
2.64271e-06
2.42603e-06
2.42603e-06
2.69896e-06
2.69896e-06
3.31382e-06
3.31382e-06
4.03799e-06
4.03799e-06
4.66059e-06
4.66059e-06
4.90844e-06
4.90844e-06
4.27381e-06
4.27381e-06
6.26379e-06
6.26379e-06
2.3638e-06
2.3638e-06
3.80659e-06
3.80659e-06
7.85218e-06
7.85218e-06
1.15998e-05
1.15998e-05
1.40468e-05
1.40468e-05
1.475e-05
1.475e-05
1.41532e-05
1.41532e-05
1.31325e-05
1.31325e-05
1.24362e-05
1.24362e-05
2.63152e-06
2.63152e-06
3.39168e-06
3.39168e-06
3.64117e-06
3.64117e-06
3.68125e-06
3.68125e-06
3.64024e-06
3.64024e-06
3.57351e-06
3.57351e-06
3.50609e-06
3.50609e-06
3.44912e-06
3.44912e-06
3.40689e-06
3.40689e-06
3.38013e-06
3.38013e-06
3.36778e-06
3.36778e-06
3.36788e-06
3.36788e-06
3.68558e-06
3.68558e-06
3.66857e-06
3.66857e-06
3.63842e-06
3.63842e-06
3.60004e-06
3.60004e-06
3.55663e-06
3.55663e-06
3.51083e-06
3.51083e-06
3.46531e-06
3.46531e-06
3.42326e-06
3.42326e-06
3.38886e-06
3.38886e-06
3.36788e-06
3.36788e-06
1.68049e-06
1.68049e-06
1.68049e-06
1.68049e-06
2.73489e-06
2.73489e-06
4.66916e-06
4.66917e-06
6.84336e-06
6.84336e-06
9.10185e-06
9.10186e-06
1.17584e-05
1.17584e-05
1.45572e-05
1.45572e-05
1.71441e-05
1.71441e-05
1.93792e-05
1.93792e-05
2.11673e-05
2.11673e-05
2.24856e-05
2.24856e-05
2.33708e-05
2.33708e-05
2.38615e-05
2.38614e-05
2.39576e-05
2.39576e-05
2.36404e-05
2.36404e-05
2.32402e-05
2.32402e-05
2.28642e-05
2.28642e-05
2.21619e-05
2.21619e-05
2.11416e-05
2.11416e-05
1.97981e-05
1.97981e-05
1.81104e-05
1.81104e-05
1.60822e-05
1.60823e-05
1.37746e-05
1.37746e-05
1.12903e-05
1.12903e-05
8.73974e-06
8.73974e-06
6.45752e-06
6.45752e-06
4.58482e-06
4.58481e-06
2.8719e-06
2.87191e-06
1.52023e-06
1.52023e-06
1.17415e-06
1.17415e-06
1.17415e-06
1.17415e-06
)
;
    }
    fixed
    {
        type            calculated;
        value           nonuniform List<scalar> 10(1.79329e-05 1.79329e-05 8.10062e-06 8.10062e-06 5.08227e-06 5.08227e-06 8.91071e-06 8.91071e-06 1.91212e-05 1.91212e-05);
    }
    front
    {
        type            empty;
    }
    symmx
    {
        type            calculated;
        value           nonuniform List<scalar> 
40
(
9.41962e-06
9.41962e-06
4.53276e-06
4.53276e-06
5.39932e-07
5.39932e-07
3.46839e-06
3.46839e-06
4.88259e-06
4.88259e-06
4.40233e-06
4.40233e-06
2.77877e-06
2.77877e-06
1.31038e-06
1.31038e-06
1.70208e-06
1.70208e-06
2.62932e-06
2.62932e-06
3.90491e-06
3.90491e-06
3.84596e-06
3.84596e-06
3.80231e-06
3.80231e-06
3.76572e-06
3.76573e-06
3.7285e-06
3.7285e-06
3.68283e-06
3.68283e-06
3.62023e-06
3.62023e-06
3.53101e-06
3.53101e-06
3.40389e-06
3.40389e-06
3.22585e-06
3.22585e-06
)
;
    }
    loading
    {
        type            calculated;
        value           nonuniform List<scalar> 10(3.90491e-06 3.90491e-06 3.87283e-06 3.87283e-06 3.81268e-06 3.81268e-06 3.73919e-06 3.73919e-06 3.68558e-06 3.68558e-06);
    }
}


// ************************************************************************* //
