/*--------------------------------*- C++ -*----------------------------------*\
| =========                 |                                                 |
| \\      /  F ield         | OpenFOAM: The Open Source CFD Toolbox           |
|  \\    /   O peration     | Version:  v2012                                 |
|   \\  /    A nd           | Website:  www.openfoam.com                      |
|    \\/     M anipulation  |                                                 |
\*---------------------------------------------------------------------------*/
FoamFile
{
    version     2.0;
    format      ascii;
    class       volSymmTensorField;
    location    "1";
    object      epsilon;
}
// * * * * * * * * * * * * * * * * * * * * * * * * * * * * * * * * * * * * * //

dimensions      [0 0 0 0 0 0 0];


internalField   nonuniform List<symmTensor> 
980
(
(-2.13768e-05 -7.95195e-06 -5.67602e-14 3.13718e-06 2.27399e-14 0)
(-2.13768e-05 -7.95195e-06 5.20014e-14 3.13718e-06 1.44414e-14 0)
(-8.14571e-06 -4.97146e-06 -2.67716e-14 7.98946e-07 3.89477e-14 0)
(-8.14571e-06 -4.97146e-06 2.10545e-14 7.98946e-07 -8.46582e-15 0)
(6.17241e-07 -4.38561e-06 -7.46104e-15 -5.17035e-08 1.44766e-14 0)
(6.17241e-07 -4.38561e-06 6.19284e-15 -5.17035e-08 -9.19309e-15 0)
(9.40279e-06 -5.18851e-06 -6.29407e-15 -9.18238e-07 -4.08739e-16 0)
(9.40279e-06 -5.18851e-06 4.50103e-15 -9.18238e-07 3.47308e-16 0)
(2.28217e-05 -8.45485e-06 -1.12665e-15 -3.3394e-06 -5.27434e-16 0)
(2.28217e-05 -8.45485e-06 -8.72384e-16 -3.3394e-06 1.69908e-15 0)
(-2.09978e-05 -5.47542e-06 -1.54083e-13 6.97775e-06 4.65437e-14 0)
(-2.09978e-05 -5.47542e-06 1.39766e-13 6.97775e-06 3.82456e-14 0)
(-8.98113e-06 -6.53502e-06 -6.67493e-14 2.1601e-06 7.81819e-14 0)
(-8.98113e-06 -6.53502e-06 5.25314e-14 2.1601e-06 -1.04918e-14 0)
(6.88338e-07 -6.5141e-06 -1.31965e-14 -1.49008e-07 2.04396e-14 0)
(6.88338e-07 -6.5141e-06 1.10412e-14 -1.49008e-07 -9.69418e-15 0)
(1.03851e-05 -6.70137e-06 -1.16858e-14 -2.49196e-06 -1.36712e-14 0)
(1.03851e-05 -6.70137e-06 6.38741e-15 -2.49196e-06 1.25064e-14 0)
(2.24728e-05 -5.72648e-06 6.16426e-15 -7.44903e-06 -1.23488e-14 0)
(2.24728e-05 -5.72648e-06 -1.21658e-14 -7.44903e-06 1.54948e-14 0)
(-1.96452e-05 -4.39364e-06 -2.08121e-13 7.66714e-06 3.60376e-14 0)
(-1.96452e-05 -4.39364e-06 1.88923e-13 7.66714e-06 6.03954e-14 0)
(-8.88027e-06 -7.11257e-06 -7.55724e-14 2.93652e-06 6.34818e-14 0)
(-8.88027e-06 -7.11257e-06 6.06854e-14 2.93652e-06 1.03096e-14 0)
(7.41601e-07 -7.70793e-06 -2.61427e-15 -2.29926e-07 -5.16428e-15 0)
(7.41601e-07 -7.70793e-06 2.07128e-15 -2.29926e-07 1.52123e-14 0)
(1.03709e-05 -7.21951e-06 -4.14402e-15 -3.42477e-06 -4.62853e-14 0)
(1.03709e-05 -7.21951e-06 -4.29517e-15 -3.42477e-06 4.37167e-14 0)
(2.11224e-05 -4.51874e-06 3.12691e-14 -8.23275e-06 -4.2332e-14 0)
(2.11224e-05 -4.51874e-06 -4.09847e-14 -8.23275e-06 4.68334e-14 0)
(-1.79771e-05 -3.9154e-06 -2.04444e-13 7.40208e-06 6.18354e-15 0)
(-1.79771e-05 -3.9154e-06 1.91002e-13 7.40208e-06 9.01933e-14 0)
(-8.33068e-06 -7.34142e-06 -4.96337e-14 3.15226e-06 2.48691e-14 0)
(-8.33068e-06 -7.34142e-06 4.49029e-14 3.15226e-06 4.7161e-14 0)
(7.77995e-07 -8.30252e-06 1.89679e-14 -2.90703e-07 -4.08558e-14 0)
(7.77995e-07 -8.30252e-06 -1.61778e-14 -2.90703e-07 5.14669e-14 0)
(9.87458e-06 -7.40876e-06 1.30989e-14 -3.74571e-06 -8.79638e-14 0)
(9.87458e-06 -7.40876e-06 -2.36404e-14 -3.74571e-06 8.6316e-14 0)
(1.94536e-05 -3.98429e-06 6.94803e-14 -8.00913e-06 -8.3039e-14 0)
(1.94536e-05 -3.98429e-06 -8.19385e-14 -8.00913e-06 8.84388e-14 0)
(-1.61955e-05 -3.70195e-06 -1.47146e-13 6.81292e-06 -3.0979e-14 0)
(-1.61955e-05 -3.70195e-06 1.49147e-13 6.81292e-06 1.22482e-13 0)
(-7.57328e-06 -7.4317e-06 8.79549e-16 3.04708e-06 -1.81152e-14 0)
(-7.57328e-06 -7.4317e-06 1.30099e-14 3.04708e-06 8.77795e-14 0)
(8.02974e-07 -8.58099e-06 4.60512e-14 -3.34155e-07 -6.77007e-14 0)
(8.02974e-07 -8.58099e-06 -3.9025e-14 -3.34155e-07 8.37297e-14 0)
(9.15253e-06 -7.48073e-06 3.7249e-14 -3.71162e-06 -1.22858e-13 0)
(9.15253e-06 -7.48073e-06 -4.89549e-14 -3.71162e-06 1.2488e-13 0)
(1.767e-05 -3.75703e-06 1.10752e-13 -7.44184e-06 -1.21664e-13 0)
(1.767e-05 -3.75703e-06 -1.25125e-13 -7.44184e-06 1.26592e-13 0)
(-1.43704e-05 -3.60504e-06 -5.78651e-14 6.1024e-06 -6.26979e-14 0)
(-1.43704e-05 -3.60504e-06 8.00346e-14 6.1024e-06 1.44402e-13 0)
(-6.72203e-06 -7.46148e-06 5.43738e-14 2.78263e-06 -4.39217e-14 0)
(-6.72203e-06 -7.46148e-06 -1.95539e-14 2.78263e-06 1.10151e-13 0)
(8.21594e-07 -8.70297e-06 7.13054e-14 -3.64921e-07 -6.67098e-14 0)
(8.21594e-07 -8.70297e-06 -6.00998e-14 -3.64921e-07 9.16087e-14 0)
(8.3284e-06 -7.5081e-06 6.44261e-14 -3.49734e-06 -1.31239e-13 0)
(8.3284e-06 -7.5081e-06 -7.619e-14 -3.49734e-06 1.37573e-13 0)
(1.5839e-05 -3.6748e-06 1.36283e-13 -6.74322e-06 -1.40978e-13 0)
(1.5839e-05 -3.6748e-06 -1.52073e-13 -6.74322e-06 1.42352e-13 0)
(-1.25293e-05 -3.55938e-06 3.71149e-14 5.34327e-06 -7.73367e-14 0)
(-1.25293e-05 -3.55938e-06 4.78882e-15 5.34327e-06 1.4447e-13 0)
(-5.82967e-06 -7.46283e-06 9.30305e-14 2.44376e-06 -4.18132e-14 0)
(-5.82967e-06 -7.46283e-06 -4.00223e-14 2.44376e-06 1.02114e-13 0)
(8.37221e-07 -8.74873e-06 8.69672e-14 -3.86513e-07 -3.32515e-14 0)
(8.37221e-07 -8.74873e-06 -7.17506e-14 -3.86513e-07 6.69237e-14 0)
(7.46099e-06 -7.51623e-06 8.89215e-14 -3.1955e-06 -1.07534e-13 0)
(7.46099e-06 -7.51623e-06 -9.84958e-14 -3.1955e-06 1.14391e-13 0)
(1.39842e-05 -3.66521e-06 1.24609e-13 -5.98808e-06 -1.33226e-13 0)
(1.39842e-05 -3.66521e-06 -1.42733e-13 -5.98808e-06 1.25581e-13 0)
(-1.0683e-05 -3.53578e-06 1.02451e-13 4.56287e-06 -8.47746e-14 0)
(-1.0683e-05 -3.53578e-06 -4.53599e-14 4.56287e-06 1.36609e-13 0)
(-4.91996e-06 -7.45042e-06 1.11035e-13 2.06964e-06 -2.14639e-14 0)
(-4.91996e-06 -7.45042e-06 -4.63563e-14 2.06964e-06 7.56008e-14 0)
(8.51216e-07 -8.75836e-06 1.01856e-13 -4.00442e-07 8.77447e-15 0)
(8.51216e-07 -8.75836e-06 -8.24982e-14 -4.00442e-07 3.15556e-14 0)
(6.57718e-06 -7.51273e-06 1.11694e-13 -2.84735e-06 -8.57409e-14 0)
(6.57718e-06 -7.51273e-06 -1.16505e-13 -2.84735e-06 8.5569e-14 0)
(1.21123e-05 -3.69509e-06 7.65922e-14 -5.20107e-06 -1.2782e-13 0)
(1.21123e-05 -3.69509e-06 -9.5496e-14 -5.20107e-06 1.01623e-13 0)
(-8.83488e-06 -3.51929e-06 1.2728e-13 3.76877e-06 -8.13989e-14 0)
(-8.83488e-06 -3.51929e-06 -6.4548e-14 3.76877e-06 1.21155e-13 0)
(-4.0016e-06 -7.43262e-06 1.09288e-13 1.67295e-06 1.28264e-14 0)
(-4.0016e-06 -7.43262e-06 -4.34072e-14 1.67295e-06 3.52058e-14 0)
(8.62988e-07 -8.75659e-06 1.18649e-13 -4.07186e-07 5.87883e-14 0)
(8.62988e-07 -8.75659e-06 -9.45584e-14 -4.07186e-07 -1.4554e-14 0)
(5.68538e-06 -7.49942e-06 1.32503e-13 -2.46047e-06 -3.76973e-14 0)
(5.68538e-06 -7.49942e-06 -1.27958e-13 -2.46047e-06 4.19786e-14 0)
(1.02203e-05 -3.74446e-06 3.13979e-14 -4.37766e-06 -9.9503e-14 0)
(1.02203e-05 -3.74446e-06 -4.47851e-14 -4.37766e-06 7.18222e-14 0)
(-6.98208e-06 -3.49635e-06 1.38645e-13 2.9542e-06 -2.60454e-14 0)
(-6.98208e-06 -3.49635e-06 -7.75541e-14 2.9542e-06 5.16424e-14 0)
(-3.07163e-06 -7.41637e-06 9.24344e-14 1.24643e-06 5.83851e-14 0)
(-3.07163e-06 -7.41637e-06 -3.30168e-14 1.24643e-06 -2.68902e-14 0)
(8.71149e-07 -8.77068e-06 1.02476e-13 -4.11316e-07 9.82499e-14 0)
(8.71149e-07 -8.77068e-06 -7.44109e-14 -4.11316e-07 -6.95576e-14 0)
(4.77643e-06 -7.48335e-06 1.1526e-13 -2.01189e-06 3.07817e-14 0)
(4.77643e-06 -7.48335e-06 -1.00079e-13 -2.01189e-06 -2.79561e-14 0)
(8.29045e-06 -3.78563e-06 -4.33486e-15 -3.46923e-06 -3.73185e-14 0)
(8.29045e-06 -3.78563e-06 -2.91644e-15 -3.46923e-06 2.09117e-14 0)
(-5.19246e-06 -3.27381e-06 1.865e-13 2.23618e-06 6.11361e-14 0)
(-5.19246e-06 -3.27381e-06 -1.22206e-13 2.23618e-06 -4.61164e-14 0)
(-2.46414e-06 -7.19755e-06 8.08129e-14 9.20789e-07 1.50868e-13 0)
(-2.46414e-06 -7.19755e-06 -2.26175e-14 9.20789e-07 -1.38555e-13 0)
(2.55342e-07 -8.71232e-06 4.21802e-14 -3.26926e-07 1.69185e-13 0)
(2.55342e-07 -8.71232e-06 -1.03168e-14 -3.26926e-07 -1.66626e-13 0)
(3.05605e-06 -7.75589e-06 5.91581e-14 -1.49151e-06 9.64508e-14 0)
(3.05605e-06 -7.75589e-06 -2.85396e-14 -1.49151e-06 -1.05091e-13 0)
(6.33037e-06 -4.67293e-06 -6.50161e-14 -2.59327e-06 -2.40515e-14 0)
(6.33037e-06 -4.67293e-06 6.10721e-14 -2.59327e-06 1.01203e-14 0)
(-4.02594e-06 -3.08163e-06 2.32318e-13 1.64371e-06 1.41798e-13 0)
(-4.02594e-06 -3.08163e-06 -1.59692e-13 1.64371e-06 -1.34167e-13 0)
(-1.92544e-06 -6.82863e-06 9.55412e-14 6.71829e-07 2.41421e-13 0)
(-1.92544e-06 -6.82863e-06 -3.41236e-14 6.71829e-07 -2.50304e-13 0)
(6.62048e-08 -8.62587e-06 -1.61637e-14 -2.27782e-07 2.33029e-13 0)
(6.62048e-08 -8.62587e-06 4.99784e-14 -2.27782e-07 -2.64293e-13 0)
(2.01786e-06 -8.34316e-06 -3.02731e-14 -1.03696e-06 1.51817e-13 0)
(2.01786e-06 -8.34316e-06 6.07376e-14 -1.03696e-06 -1.80133e-13 0)
(4.18878e-06 -6.08383e-06 -6.07663e-14 -1.86603e-06 2.35942e-14 0)
(4.18878e-06 -6.08383e-06 6.85522e-14 -1.86603e-06 -3.74089e-14 0)
(-2.82472e-06 -2.84736e-06 2.31785e-13 1.09558e-06 2.05413e-13 0)
(-2.82472e-06 -2.84736e-06 -1.3153e-13 1.09558e-06 -1.69483e-13 0)
(-1.26395e-06 -6.43461e-06 1.40979e-13 3.5677e-07 2.61787e-13 0)
(-1.26395e-06 -6.43461e-06 -5.52023e-14 3.5677e-07 -2.35623e-13 0)
(1.39468e-07 -8.43384e-06 -2.1964e-14 -2.81387e-07 2.29559e-13 0)
(1.39468e-07 -8.43384e-06 5.76041e-14 -2.81387e-07 -2.28151e-13 0)
(1.40072e-06 -8.70375e-06 -1.13819e-13 -8.07301e-07 1.71916e-13 0)
(1.40072e-06 -8.70375e-06 1.08709e-13 -8.07301e-07 -1.827e-13 0)
(2.69459e-06 -7.21174e-06 -7.12254e-14 -1.33858e-06 7.56302e-14 0)
(2.69459e-06 -7.21174e-06 6.27056e-14 -1.33858e-06 -8.4135e-14 0)
(-1.58402e-06 -2.579e-06 2.39869e-13 5.56195e-07 2.35139e-13 0)
(-1.58402e-06 -2.579e-06 -1.14239e-13 5.56195e-07 -1.78251e-13 0)
(-4.81452e-07 -5.99036e-06 2.0574e-13 -6.97239e-09 2.3472e-13 0)
(-4.81452e-07 -5.99036e-06 -1.03233e-13 -6.97241e-09 -1.8634e-13 0)
(4.50301e-07 -8.13122e-06 2.15007e-14 -4.53505e-07 1.8266e-13 0)
(4.50301e-07 -8.13122e-06 3.24134e-14 -4.53505e-07 -1.5465e-13 0)
(1.16079e-06 -8.85785e-06 -1.44803e-13 -7.52457e-07 1.69892e-13 0)
(1.16079e-06 -8.85785e-06 1.38735e-13 -7.52457e-07 -1.50911e-13 0)
(1.76416e-06 -8.06936e-06 -9.32646e-14 -1.00744e-06 1.22468e-13 0)
(1.76416e-06 -8.06936e-06 6.0255e-14 -1.00744e-06 -1.1044e-13 0)
(-3.10631e-07 -2.28126e-06 2.73828e-13 1.52118e-08 2.40559e-13 0)
(-3.10631e-07 -2.28126e-06 -1.19588e-13 1.52118e-08 -1.9075e-13 0)
(4.18629e-07 -5.48222e-06 2.73658e-13 -4.13051e-07 1.97341e-13 0)
(4.18629e-07 -5.48222e-06 -1.58269e-13 -4.13051e-07 -1.69085e-13 0)
(9.8553e-07 -7.71015e-06 8.29773e-14 -7.22716e-07 1.11234e-13 0)
(9.8553e-07 -7.71015e-06 -1.22314e-14 -7.22716e-07 -1.12576e-13 0)
(1.27181e-06 -8.81246e-06 -1.27519e-13 -8.44805e-07 1.10703e-13 0)
(1.27181e-06 -8.81246e-06 1.47732e-13 -8.44805e-07 -1.11584e-13 0)
(1.34756e-06 -8.6501e-06 -9.90692e-14 -8.64096e-07 1.26148e-13 0)
(1.34756e-06 -8.6501e-06 7.93935e-14 -8.64096e-07 -1.10651e-13 0)
(9.79947e-07 -1.9571e-06 3.21648e-13 -5.25746e-07 2.4168e-13 0)
(9.79947e-07 -1.9571e-06 -1.0119e-13 -5.25746e-07 -1.76376e-13 0)
(1.4297e-06 -4.90186e-06 3.35107e-13 -8.57886e-07 1.71897e-13 0)
(1.4297e-06 -4.90186e-06 -1.73014e-13 -8.57886e-07 -1.36868e-13 0)
(1.73857e-06 -7.16213e-06 1.61426e-13 -1.0786e-06 6.23742e-14 0)
(1.73857e-06 -7.16213e-06 -5.4459e-14 -1.0786e-06 -6.24056e-14 0)
(1.72057e-06 -8.56721e-06 -6.44029e-14 -1.07062e-06 4.69092e-14 0)
(1.72057e-06 -8.56721e-06 1.13496e-13 -1.07062e-06 -4.38748e-14 0)
(1.41265e-06 -8.94584e-06 -8.3117e-14 -8.99042e-07 9.60308e-14 0)
(1.41265e-06 -8.94584e-06 7.77684e-14 -8.99042e-07 -6.88456e-14 0)
(2.26235e-06 -1.60835e-06 3.77499e-13 -1.05763e-06 2.66196e-13 0)
(2.26235e-06 -1.60835e-06 -4.64085e-14 -1.05763e-06 -1.48211e-13 0)
(2.53933e-06 -4.24216e-06 3.84176e-13 -1.33716e-06 1.93537e-13 0)
(2.53933e-06 -4.24216e-06 -1.38326e-13 -1.33716e-06 -1.14119e-13 0)
(2.70556e-06 -6.47688e-06 2.45818e-13 -1.51831e-06 8.18558e-14 0)
(2.70556e-06 -6.47688e-06 -7.2222e-14 -1.51831e-06 -4.15899e-14 0)
(2.50531e-06 -8.11687e-06 3.75011e-14 -1.42834e-06 4.55731e-14 0)
(2.50531e-06 -8.11687e-06 6.96701e-14 -1.42834e-06 -6.24853e-16 0)
(1.94538e-06 -8.95173e-06 -3.50618e-14 -1.11011e-06 9.9608e-14 0)
(1.94538e-06 -8.95173e-06 7.62563e-14 -1.11011e-06 -3.25551e-14 0)
(3.49569e-06 -1.23528e-06 4.34018e-13 -1.56357e-06 3.44618e-13 0)
(3.49569e-06 -1.23528e-06 7.56919e-14 -1.56357e-06 -1.02842e-13 0)
(3.72344e-06 -3.49338e-06 4.17518e-13 -1.84275e-06 2.90996e-13 0)
(3.72344e-06 -3.49338e-06 -3.07161e-14 -1.84275e-06 -9.67256e-14 0)
(3.88019e-06 -5.63827e-06 3.19974e-13 -2.04302e-06 2.00276e-13 0)
(3.88019e-06 -5.63827e-06 -2.86668e-14 -2.04302e-06 -5.03497e-14 0)
(3.63475e-06 -7.44862e-06 1.5614e-13 -1.92869e-06 1.54019e-13 0)
(3.63475e-06 -7.44862e-06 5.94686e-14 -1.92869e-06 -1.67509e-17 0)
(2.95528e-06 -8.66396e-06 4.21382e-14 -1.51135e-06 1.84772e-13 0)
(2.95528e-06 -8.66396e-06 1.04655e-13 -1.51135e-06 -2.33807e-14 0)
(4.61012e-06 -8.35273e-07 4.89539e-13 -2.01398e-06 5.05715e-13 0)
(4.61012e-06 -8.35273e-07 3.02635e-13 -2.01398e-06 -8.70664e-15 0)
(4.93302e-06 -2.63829e-06 4.30131e-13 -2.35715e-06 4.77518e-13 0)
(4.93302e-06 -2.63829e-06 1.86672e-13 -2.35715e-06 -4.06802e-14 0)
(5.24212e-06 -4.6159e-06 3.54925e-13 -2.65256e-06 4.17294e-13 0)
(5.24212e-06 -4.6159e-06 1.36433e-13 -2.65256e-06 -3.85413e-14 0)
(5.12404e-06 -6.53089e-06 2.40011e-13 -2.59423e-06 3.75277e-13 0)
(5.12404e-06 -6.53089e-06 1.65672e-13 -2.59423e-06 -3.06742e-15 0)
(4.48343e-06 -8.06804e-06 1.11464e-13 -2.14291e-06 3.61439e-13 0)
(4.48343e-06 -8.06804e-06 2.376e-13 -2.14292e-06 -1.66179e-14 0)
(5.47445e-06 -3.9974e-07 5.50099e-13 -2.35355e-06 8.03321e-13 0)
(5.47445e-06 -3.9974e-07 6.87427e-13 -2.35355e-06 2.14982e-13 0)
(6.06233e-06 -1.64357e-06 4.28948e-13 -2.84093e-06 7.78011e-13 0)
(6.06233e-06 -1.64357e-06 5.66288e-13 -2.84093e-06 1.52314e-13 0)
(6.72454e-06 -3.34952e-06 3.40072e-13 -3.33308e-06 7.16137e-13 0)
(6.72454e-06 -3.34952e-06 4.90604e-13 -3.33308e-06 1.11235e-13 0)
(6.97305e-06 -5.28469e-06 2.33558e-13 -3.45193e-06 6.69109e-13 0)
(6.97305e-06 -5.28469e-06 4.97211e-13 -3.45193e-06 1.05131e-13 0)
(6.60989e-06 -7.10255e-06 1.22215e-13 -3.0821e-06 6.03769e-13 0)
(6.60989e-06 -7.10255e-06 5.81603e-13 -3.0821e-06 6.54526e-14 0)
(5.80836e-06 9.32952e-08 6.32006e-13 -2.46983e-06 1.36972e-12 0)
(5.80836e-06 9.32963e-08 1.28981e-12 -2.46983e-06 7.76928e-13 0)
(6.86266e-06 -4.44654e-07 4.47228e-13 -3.20005e-06 1.32119e-12 0)
(6.86266e-06 -4.44653e-07 1.20818e-12 -3.20005e-06 7.03584e-13 0)
(8.12237e-06 -1.71988e-06 3.53941e-13 -4.0217e-06 1.21688e-12 0)
(8.12237e-06 -1.71988e-06 1.12566e-12 -4.0217e-06 5.90875e-13 0)
(9.0563e-06 -3.52981e-06 2.31643e-13 -4.50043e-06 1.09487e-12 0)
(9.0563e-06 -3.52981e-06 1.12969e-12 -4.50043e-06 4.61822e-13 0)
(9.41696e-06 -5.54309e-06 1.35546e-13 -4.4343e-06 9.36387e-13 0)
(9.41697e-06 -5.54309e-06 1.21205e-12 -4.4343e-06 3.07848e-13 0)
(4.91731e-06 6.87839e-07 7.85659e-13 -2.18277e-06 2.22472e-12 0)
(4.91732e-06 6.8784e-07 2.07323e-12 -2.18277e-06 1.71572e-12 0)
(6.64974e-06 1.02235e-06 5.9361e-13 -3.18491e-06 2.18812e-12 0)
(6.64974e-06 1.02236e-06 1.98453e-12 -3.18491e-06 1.67978e-12 0)
(8.74959e-06 4.65384e-07 4.87221e-13 -4.46327e-06 2.13068e-12 0)
(8.74959e-06 4.65385e-07 1.9401e-12 -4.46327e-06 1.59615e-12 0)
(1.07409e-05 -9.29292e-07 4.10066e-13 -5.5686e-06 2.06254e-12 0)
(1.07409e-05 -9.2929e-07 2.05996e-12 -5.5686e-06 1.40157e-12 0)
(1.22372e-05 -2.90384e-06 3.42224e-13 -6.17169e-06 1.79219e-12 0)
(1.22372e-05 -2.90384e-06 2.3547e-12 -6.1717e-06 1.07706e-12 0)
(1.37667e-05 -4.74822e-06 2.81029e-13 -6.37285e-06 1.28595e-12 0)
(1.37667e-05 -4.74822e-06 2.85785e-12 -6.37286e-06 6.22554e-13 0)
(1.46183e-05 -7.04412e-06 2.66683e-13 -5.69084e-06 7.19712e-13 0)
(1.46183e-05 -7.04412e-06 3.37728e-12 -5.69084e-06 2.44666e-13 0)
(1.46134e-05 -9.41925e-06 4.53735e-13 -3.89767e-06 3.44999e-13 0)
(1.46134e-05 -9.41925e-06 3.82929e-12 -3.89767e-06 6.38801e-14 0)
(1.36257e-05 -1.12808e-05 7.61589e-13 -9.88496e-07 3.19132e-13 0)
(1.36257e-05 -1.12808e-05 3.61961e-12 -9.88495e-07 2.22457e-13 0)
(1.1935e-05 -1.20063e-05 9.89217e-13 2.56335e-06 3.46438e-13 0)
(1.1935e-05 -1.20063e-05 2.75888e-12 2.56335e-06 3.26989e-13 0)
(9.48845e-06 -7.3364e-06 1.3806e-13 -4.22265e-06 6.85381e-13 0)
(9.48846e-06 -7.3364e-06 1.41522e-12 -4.22265e-06 1.50354e-13 0)
(9.75708e-06 -8.89204e-06 2.23055e-13 -3.39394e-06 3.66305e-13 0)
(9.75708e-06 -8.89205e-06 1.57472e-12 -3.39394e-06 5.11084e-14 0)
(9.32799e-06 -1.03862e-05 3.22189e-13 -1.67873e-06 1.34565e-13 0)
(9.32799e-06 -1.03862e-05 1.59046e-12 -1.67873e-06 1.82403e-14 0)
(8.08638e-06 -1.13037e-05 3.5341e-13 9.63185e-07 1.7316e-13 0)
(8.08638e-06 -1.13037e-05 1.51925e-12 9.63185e-07 1.43205e-13 0)
(6.32256e-06 -1.10567e-05 3.82081e-13 4.06113e-06 3.25615e-13 0)
(6.32256e-06 -1.10567e-05 1.27918e-12 4.06113e-06 1.84628e-13 0)
(6.33084e-06 -8.41818e-06 9.81403e-14 -2.69378e-06 4.9294e-13 0)
(6.33084e-06 -8.41818e-06 7.19521e-13 -2.69378e-06 1.59008e-15 0)
(6.45183e-06 -9.46842e-06 1.40997e-13 -2.00481e-06 2.95121e-13 0)
(6.45183e-06 -9.46842e-06 8.0067e-13 -2.00481e-06 2.03744e-14 0)
(5.95883e-06 -1.04255e-05 1.60155e-13 -5.36675e-07 6.68638e-14 0)
(5.95883e-06 -1.04255e-05 7.6306e-13 -5.36675e-07 5.75005e-14 0)
(4.75512e-06 -1.08188e-05 1.3374e-13 1.73061e-06 4.46962e-14 0)
(4.75512e-06 -1.08188e-05 7.03314e-13 1.7306e-06 8.75145e-14 0)
(3.1304e-06 -1.0112e-05 1.7069e-13 4.34506e-06 2.02646e-13 0)
(3.1304e-06 -1.0112e-05 5.53504e-13 4.34506e-06 7.64674e-14 0)
(4.07074e-06 -9.02027e-06 1.03278e-13 -1.71721e-06 3.86392e-13 0)
(4.07074e-06 -9.02027e-06 2.8303e-13 -1.71721e-06 -9.16567e-14 0)
(4.07964e-06 -9.72423e-06 1.57436e-13 -1.1293e-06 3.11901e-13 0)
(4.07964e-06 -9.72423e-06 3.09298e-13 -1.1293e-06 -7.21658e-14 0)
(3.54269e-06 -1.03064e-05 1.36712e-13 1.31919e-07 9.68957e-14 0)
(3.54269e-06 -1.03064e-05 3.02014e-13 1.31919e-07 6.46237e-15 0)
(2.3773e-06 -1.03399e-05 4.66423e-14 2.09118e-06 2.15373e-15 0)
(2.3773e-06 -1.03399e-05 3.24494e-13 2.09118e-06 5.53841e-14 0)
(8.66674e-07 -9.34102e-06 5.82647e-14 4.32222e-06 1.10032e-13 0)
(8.66674e-07 -9.34102e-06 2.51316e-13 4.32222e-06 6.0013e-14 0)
(2.45959e-06 -9.31321e-06 9.47679e-14 -1.07218e-06 2.68256e-13 0)
(2.45959e-06 -9.31321e-06 5.12099e-14 -1.07218e-06 -1.08423e-13 0)
(2.3189e-06 -9.78172e-06 1.81437e-13 -5.50516e-07 2.729e-13 0)
(2.3189e-06 -9.78172e-06 1.69661e-14 -5.50517e-07 -1.23497e-13 0)
(1.68869e-06 -1.00945e-05 1.68895e-13 5.60618e-07 1.16933e-13 0)
(1.68869e-06 -1.00945e-05 2.17394e-14 5.60618e-07 -4.33394e-14 0)
(5.03045e-07 -9.86666e-06 4.11172e-14 2.28494e-06 1.49887e-15 0)
(5.03045e-07 -9.86666e-06 1.09757e-13 2.28494e-06 3.16006e-14 0)
(-9.62333e-07 -8.66287e-06 -1.75858e-16 4.22563e-06 4.39973e-14 0)
(-9.62333e-07 -8.66287e-06 1.16125e-13 4.22563e-06 7.07912e-14 0)
(1.377e-06 -9.31439e-06 6.42044e-14 -6.51344e-07 1.6306e-13 0)
(1.377e-06 -9.31439e-06 -3.84056e-14 -6.51344e-07 -8.36775e-14 0)
(1.01435e-06 -9.62811e-06 1.57076e-13 -1.58617e-07 1.79666e-13 0)
(1.01435e-06 -9.62811e-06 -1.03864e-13 -1.58617e-07 -1.06812e-13 0)
(2.10871e-07 -9.75495e-06 1.76944e-13 8.56206e-07 9.16661e-14 0)
(2.10871e-07 -9.75495e-06 -1.08603e-13 8.56206e-07 -5.19857e-14 0)
(-1.07788e-06 -9.34324e-06 6.24191e-14 2.41243e-06 -3.20937e-15 0)
(-1.07788e-06 -9.34324e-06 -3.84802e-15 2.41243e-06 2.45979e-14 0)
(-2.58114e-06 -7.99948e-06 -2.18637e-14 4.14197e-06 -1.84307e-14 0)
(-2.58114e-06 -7.99948e-06 5.31349e-14 4.14197e-06 1.00661e-13 0)
(7.79626e-07 -9.00818e-06 3.0968e-14 -4.12519e-07 1.05129e-13 0)
(7.79626e-07 -9.00818e-06 -5.36815e-14 -4.12519e-07 -6.27762e-14 0)
(9.31495e-08 -9.2238e-06 9.63755e-14 9.88089e-08 9.5632e-14 0)
(9.31495e-08 -9.2238e-06 -1.11252e-13 9.88088e-08 -6.2582e-14 0)
(-9.89045e-07 -9.23487e-06 1.46863e-13 1.07466e-06 4.8899e-14 0)
(-9.89045e-07 -9.23487e-06 -1.35292e-13 1.07466e-06 -2.92854e-14 0)
(-2.48336e-06 -8.7111e-06 7.83166e-14 2.52737e-06 -2.05827e-14 0)
(-2.48336e-06 -8.7111e-06 -5.25404e-14 2.52737e-06 3.52012e-14 0)
(-4.11833e-06 -7.29032e-06 -2.17955e-14 4.11644e-06 -8.24887e-14 0)
(-4.11833e-06 -7.29032e-06 2.32616e-14 4.11644e-06 1.44031e-13 0)
(6.75307e-07 -8.37496e-06 5.01393e-15 -3.54661e-07 8.23742e-14 0)
(6.75307e-07 -8.37496e-06 -3.73856e-14 -3.54661e-07 -5.44553e-14 0)
(-4.68472e-07 -8.52284e-06 3.4415e-14 2.40047e-07 4.38087e-14 0)
(-4.68472e-07 -8.52284e-06 -6.59287e-14 2.40047e-07 -2.42986e-14 0)
(-1.96354e-06 -8.47732e-06 9.84654e-14 1.246e-06 7.54448e-15 0)
(-1.96354e-06 -8.47732e-06 -1.06177e-13 1.246e-06 3.44375e-15 0)
(-3.78907e-06 -7.91359e-06 7.67879e-14 2.66479e-06 -5.07363e-14 0)
(-3.78907e-06 -7.91359e-06 -6.08484e-14 2.66479e-06 6.00219e-14 0)
(-5.66369e-06 -6.48674e-06 -1.27975e-14 4.18211e-06 -1.39225e-13 0)
(-5.66369e-06 -6.48674e-06 1.06448e-14 4.18211e-06 1.87627e-13 0)
(1.11197e-06 -7.39917e-06 -1.17011e-14 -5.0651e-07 5.76516e-14 0)
(1.11197e-06 -7.39917e-06 -8.30954e-15 -5.0651e-07 -3.75705e-14 0)
(-6.60459e-07 -7.47738e-06 -7.6526e-15 2.59595e-07 1.00778e-14 0)
(-6.60459e-07 -7.47738e-06 -1.07527e-14 2.59595e-07 5.86299e-15 0)
(-2.73618e-06 -7.42237e-06 4.27337e-14 1.38397e-06 -3.72082e-14 0)
(-2.73618e-06 -7.42237e-06 -4.96611e-14 1.38397e-06 4.38956e-14 0)
(-5.04842e-06 -6.89342e-06 5.91449e-14 2.85115e-06 -1.03928e-13 0)
(-5.04842e-06 -6.89342e-06 -4.65491e-14 2.85115e-06 1.09055e-13 0)
(-7.29144e-06 -5.54591e-06 1.99113e-14 4.37016e-06 -1.90618e-13 0)
(-7.29144e-06 -5.54591e-06 -8.79096e-15 4.37016e-06 2.2485e-13 0)
(2.1748e-06 -6.0695e-06 -3.55823e-14 -9.19868e-07 1.64945e-14 0)
(2.1748e-06 -6.0695e-06 2.33967e-14 -9.19868e-07 -7.31702e-15 0)
(-4.48655e-07 -6.03829e-06 -1.91559e-14 1.33837e-07 -1.20268e-14 0)
(-4.48655e-07 -6.03829e-06 1.83016e-14 1.33837e-07 2.39793e-14 0)
(-3.30892e-06 -6.00669e-06 1.07066e-14 1.48989e-06 -6.88349e-14 0)
(-3.30892e-06 -6.00669e-06 -1.11177e-14 1.48989e-06 7.1515e-14 0)
(-6.30044e-06 -5.58913e-06 3.83567e-14 3.10815e-06 -1.5591e-13 0)
(-6.30044e-06 -5.58913e-06 -2.97577e-14 3.10815e-06 1.5667e-13 0)
(-9.0717e-06 -4.42581e-06 4.73319e-14 4.71446e-06 -2.11606e-13 0)
(-9.0717e-06 -4.42581e-06 -2.94867e-14 4.71446e-06 2.31814e-13 0)
(3.99421e-06 -4.36946e-06 -9.08606e-14 -1.66502e-06 -2.61105e-14 0)
(3.99421e-06 -4.36946e-06 5.71361e-14 -1.66502e-06 1.93562e-14 0)
(2.12194e-07 -4.15359e-06 -1.65165e-14 -1.7335e-07 -1.83886e-14 0)
(2.12194e-07 -4.15359e-06 1.11753e-14 -1.7335e-07 2.2412e-14 0)
(-3.66538e-06 -4.16452e-06 1.87547e-14 1.55415e-06 -7.36698e-14 0)
(-3.66538e-06 -4.16452e-06 -1.47694e-14 1.55415e-06 7.221e-14 0)
(-7.5715e-06 -3.93196e-06 3.8862e-14 3.45375e-06 -1.75133e-13 0)
(-7.5715e-06 -3.93196e-06 -3.30125e-14 3.45375e-06 1.71366e-13 0)
(-1.10769e-05 -3.08043e-06 5.71419e-14 5.25405e-06 -1.95497e-13 0)
(-1.10769e-05 -3.08043e-06 -4.2848e-14 5.25405e-06 2.10405e-13 0)
(6.78059e-06 -2.24372e-06 -1.38529e-13 -2.83014e-06 -5.01003e-14 0)
(6.78059e-06 -2.24372e-06 1.01649e-13 -2.83014e-06 4.12798e-14 0)
(1.34907e-06 -1.76224e-06 -2.7786e-14 -7.0041e-07 -1.28433e-14 0)
(1.34907e-06 -1.76224e-06 -5.34094e-15 -7.0041e-07 6.09356e-15 0)
(-3.77223e-06 -1.83267e-06 2.57867e-14 1.5569e-06 -6.15567e-14 0)
(-3.77223e-06 -1.83267e-06 -3.40808e-14 1.5569e-06 5.71357e-14 0)
(-8.87178e-06 -1.84326e-06 3.5365e-14 3.90099e-06 -1.66986e-13 0)
(-8.87178e-06 -1.84326e-06 -3.87867e-14 3.90099e-06 1.62024e-13 0)
(-1.33864e-05 -1.4543e-06 6.2239e-14 6.03494e-06 -1.71043e-13 0)
(-1.33864e-05 -1.4543e-06 -5.18674e-14 6.03494e-06 1.86048e-13 0)
(-1.63408e-05 -6.40868e-07 1.15824e-13 7.40058e-06 -2.80746e-13 0)
(-1.63408e-05 -6.40868e-07 -9.19438e-14 7.40058e-06 3.23359e-13 0)
(-1.72359e-05 1.54233e-07 3.87316e-14 7.71105e-06 -4.05317e-13 0)
(-1.72359e-05 1.54233e-07 -1.76236e-14 7.71105e-06 4.66421e-13 0)
(-1.66004e-05 5.21657e-07 -8.82109e-14 7.29495e-06 -2.32688e-13 0)
(-1.66004e-05 5.21657e-07 8.91321e-14 7.29495e-06 3.11023e-13 0)
(-1.54641e-05 4.61161e-07 -7.78459e-14 6.69192e-06 -1.03411e-13 0)
(-1.54641e-05 4.61161e-07 8.31091e-14 6.69192e-06 1.45752e-13 0)
(-1.47621e-05 8.27037e-10 -4.19381e-14 6.20354e-06 -1.04175e-13 0)
(-1.47621e-05 8.27052e-10 3.67166e-14 6.20354e-06 7.76216e-14 0)
(-1.34616e-05 -1.63624e-06 6.4631e-14 6.42565e-06 -2.84235e-13 0)
(-1.34616e-05 -1.63624e-06 -5.23314e-14 6.42565e-06 3.2689e-13 0)
(-1.43413e-05 -1.79059e-07 -1.38945e-14 6.67887e-06 -3.40498e-13 0)
(-1.43413e-05 -1.79059e-07 1.82228e-14 6.67887e-06 4.0539e-13 0)
(-1.40835e-05 7.03187e-07 -9.59597e-14 6.30285e-06 -1.46776e-13 0)
(-1.40835e-05 7.03187e-07 8.43814e-14 6.30285e-06 2.34222e-13 0)
(-1.33907e-05 8.8088e-07 -8.49377e-14 5.77908e-06 -2.36599e-14 0)
(-1.33907e-05 8.8088e-07 6.16849e-14 5.77908e-06 9.42561e-14 0)
(-1.28121e-05 4.76601e-07 -6.71373e-14 5.35799e-06 -7.67732e-14 0)
(-1.28121e-05 4.76601e-07 3.37813e-14 5.35799e-06 6.53614e-14 0)
(-1.1017e-05 -2.57294e-06 3.48544e-14 5.76315e-06 -2.71535e-13 0)
(-1.1017e-05 -2.57294e-06 -1.85528e-14 5.76315e-06 3.15191e-13 0)
(-1.17894e-05 -6.66728e-07 -3.69608e-14 5.93448e-06 -1.90061e-13 0)
(-1.17894e-05 -6.66728e-07 3.89831e-14 5.93448e-06 2.61737e-13 0)
(-1.1661e-05 6.22151e-07 -8.76478e-14 5.48723e-06 6.08384e-14 0)
(-1.1661e-05 6.22151e-07 6.90561e-14 5.48723e-06 4.30753e-14 0)
(-1.11701e-05 1.09022e-06 -7.3436e-14 4.89317e-06 1.79907e-13 0)
(-1.11701e-05 1.09022e-06 2.00411e-14 4.89317e-06 -6.45337e-14 0)
(-1.06974e-05 8.75241e-07 -7.73912e-14 4.41588e-06 -1.36256e-14 0)
(-1.06974e-05 8.75241e-07 1.5355e-15 4.41588e-06 3.42376e-14 0)
(-8.90173e-06 -3.44449e-06 -1.34539e-14 5.35787e-06 -2.05099e-13 0)
(-8.90173e-06 -3.44449e-06 6.741e-16 5.35787e-06 2.64752e-13 0)
(-9.52906e-06 -1.24072e-06 -5.1106e-14 5.45052e-06 1.35971e-14 0)
(-9.52906e-06 -1.24072e-06 2.65822e-14 5.45052e-06 3.90413e-14 0)
(-9.38647e-06 3.58294e-07 -6.62378e-14 4.88019e-06 3.17591e-13 0)
(-9.38647e-06 3.58294e-07 3.55113e-14 4.88019e-06 -2.65572e-13 0)
(-8.93634e-06 1.10503e-06 -5.05766e-14 4.13098e-06 3.97367e-13 0)
(-8.93634e-06 1.10503e-06 -2.48229e-14 4.13098e-06 -3.69008e-13 0)
(-8.49424e-06 1.12661e-06 -9.62564e-14 3.50626e-06 8.81556e-14 0)
(-8.49424e-06 1.12661e-06 -2.51098e-14 3.50626e-06 -8.3531e-14 0)
(-7.02856e-06 -4.2522e-06 -5.62214e-14 5.16731e-06 -9.07939e-14 0)
(-7.02856e-06 -4.2522e-06 8.59567e-15 5.16731e-06 1.74926e-13 0)
(-7.50973e-06 -1.85771e-06 -5.97705e-14 5.20458e-06 2.01545e-13 0)
(-7.50973e-06 -1.85771e-06 -1.11229e-15 5.20458e-06 -1.5392e-13 0)
(-7.27916e-06 -2.85143e-08 -4.60182e-14 4.49943e-06 4.97372e-13 0)
(-7.27916e-06 -2.85143e-08 -2.2369e-15 4.49943e-06 -4.97048e-13 0)
(-6.7699e-06 9.57307e-07 -4.00558e-14 3.55678e-06 5.33258e-13 0)
(-6.7699e-06 9.57307e-07 -4.83925e-14 3.55678e-06 -5.94155e-13 0)
(-6.28338e-06 1.21158e-06 -1.20118e-13 2.72943e-06 1.58369e-13 0)
(-6.28338e-06 1.21158e-06 -2.29383e-14 2.72943e-06 -2.62863e-13 0)
(-5.31987e-06 -5.00593e-06 -4.49603e-14 5.15844e-06 3.37887e-14 0)
(-5.31987e-06 -5.00593e-06 2.6054e-16 5.15844e-06 7.58507e-14 0)
(-5.67864e-06 -2.49469e-06 -3.23464e-14 5.17934e-06 3.42656e-13 0)
(-5.67864e-06 -2.49469e-06 -3.13384e-14 5.17934e-06 -2.71156e-13 0)
(-5.33359e-06 -4.97072e-07 -2.86497e-14 4.35551e-06 5.76541e-13 0)
(-5.33359e-06 -4.97072e-07 -3.02052e-14 4.35551e-06 -5.69826e-13 0)
(-4.71163e-06 6.80715e-07 -5.87975e-14 3.21417e-06 5.77921e-13 0)
(-4.71163e-06 6.80715e-07 -4.12827e-14 3.21417e-06 -6.44098e-13 0)
(-4.12666e-06 1.13537e-06 -1.61361e-13 2.16068e-06 2.12547e-13 0)
(-4.12666e-06 1.13537e-06 -1.8489e-15 2.16068e-06 -3.50402e-13 0)
(-3.6982e-06 -5.72619e-06 -5.25552e-16 5.30489e-06 1.62464e-13 0)
(-3.6982e-06 -5.72619e-06 -1.59334e-14 5.30489e-06 -1.97461e-14 0)
(-3.97643e-06 -3.14809e-06 2.9775e-14 5.36279e-06 4.61211e-13 0)
(-3.97643e-06 -3.14809e-06 -7.84141e-14 5.36279e-06 -3.5409e-13 0)
(-3.52305e-06 -1.02565e-06 4.4123e-15 4.45724e-06 6.12875e-13 0)
(-3.52305e-06 -1.02565e-06 -6.56731e-14 4.45724e-06 -5.88192e-13 0)
(-2.76909e-06 3.01274e-07 -8.33411e-14 3.13531e-06 5.78786e-13 0)
(-2.76909e-06 3.01274e-07 -1.97802e-14 3.13531e-06 -6.45286e-13 0)
(-2.05572e-06 9.11775e-07 -2.11827e-13 1.85611e-06 2.64104e-13 0)
(-2.05572e-06 9.11775e-07 4.36489e-14 1.85611e-06 -4.27681e-13 0)
(-2.07357e-06 -6.4486e-06 7.92201e-14 5.5832e-06 2.74226e-13 0)
(-2.07357e-06 -6.4486e-06 -1.88476e-14 5.5832e-06 -9.17643e-14 0)
(-2.32778e-06 -3.83713e-06 1.30541e-13 5.74767e-06 5.47375e-13 0)
(-2.32778e-06 -3.83713e-06 -1.22422e-13 5.74767e-06 -3.97115e-13 0)
(-1.79638e-06 -1.61664e-06 7.26005e-14 4.81636e-06 6.19954e-13 0)
(-1.79638e-06 -1.61664e-06 -1.04533e-13 4.81636e-06 -5.63862e-13 0)
(-9.16216e-07 -1.71803e-07 -7.5834e-14 3.34967e-06 5.50913e-13 0)
(-9.16216e-07 -1.71803e-07 -1.32266e-15 3.34967e-06 -6.04071e-13 0)
(-6.4347e-08 5.50365e-07 -2.43474e-13 1.86123e-06 3.07703e-13 0)
(-6.43471e-08 5.50365e-07 1.03555e-13 1.86123e-06 -4.83411e-13 0)
(-3.19056e-07 -7.23261e-06 1.87726e-13 5.96436e-06 3.61422e-13 0)
(-3.19057e-07 -7.23261e-06 4.42617e-14 5.96436e-06 -1.29284e-13 0)
(-6.20022e-07 -4.61488e-06 2.51931e-13 6.32786e-06 5.9753e-13 0)
(-6.20022e-07 -4.61488e-06 -1.04499e-13 6.32786e-06 -3.98777e-13 0)
(-6.20817e-08 -2.31023e-06 1.69014e-13 5.45102e-06 6.1973e-13 0)
(-6.20819e-08 -2.31023e-06 -1.02878e-13 5.45102e-06 -5.13801e-13 0)
(9.1822e-07 -7.6298e-07 -8.63102e-15 3.89437e-06 5.28117e-13 0)
(9.1822e-07 -7.6298e-07 1.55767e-14 3.89437e-06 -5.36541e-13 0)
(1.90437e-06 3.72695e-08 -2.07453e-13 2.22425e-06 3.42039e-13 0)
(1.90437e-06 3.72693e-08 1.45243e-13 2.22425e-06 -4.98513e-13 0)
(1.7892e-06 -8.17885e-06 3.0194e-13 6.38743e-06 4.48992e-13 0)
(1.7892e-06 -8.17886e-06 2.93873e-13 6.38743e-06 -1.48433e-13 0)
(1.3538e-06 -5.59733e-06 3.5188e-13 7.08082e-06 6.49465e-13 0)
(1.3538e-06 -5.59733e-06 9.2508e-14 7.08082e-06 -4.03881e-13 0)
(1.86114e-06 -3.22351e-06 2.68412e-13 6.38185e-06 6.65694e-13 0)
(1.86114e-06 -3.22351e-06 2.25806e-14 6.38185e-06 -4.90959e-13 0)
(2.89211e-06 -1.57737e-06 1.34582e-13 4.8264e-06 5.96027e-13 0)
(2.89211e-06 -1.57737e-06 6.40015e-14 4.8264e-06 -4.97016e-13 0)
(3.99485e-06 -7.16408e-07 -4.57988e-14 3.02055e-06 4.10021e-13 0)
(3.99485e-06 -7.16408e-07 1.36795e-13 3.02055e-06 -4.73477e-13 0)