/*--------------------------------*- C++ -*----------------------------------*\
| =========                 |                                                 |
| \\      /  F ield         | OpenFOAM: The Open Source CFD Toolbox           |
|  \\    /   O peration     | Version:  v2012                                 |
|   \\  /    A nd           | Website:  www.openfoam.com                      |
|    \\/     M anipulation  |                                                 |
\*---------------------------------------------------------------------------*/
FoamFile
{
    version     2.0;
    format      ascii;
    class       volVectorField;
    location    "1";
    object      D;
}
// * * * * * * * * * * * * * * * * * * * * * * * * * * * * * * * * * * * * * //

dimensions      [0 1 0 0 0 0 0];


internalField   nonuniform List<vector> 5((5.76843e-06 1.5279e-05 0) (1.10755e-05 2.68029e-05 0) (1.18045e-05 2.70485e-05 0) (6.35477e-06 1.51525e-05 0) (8.56981e-06 2.0758e-05 0));

boundaryField
{
    boundary
    {
        a               (1e-06 4e-06 0);
        b               (2e-06 3e-06 0 5e-06 6e-06 0 0 0 0);
        type            linearSpatialDisplacement;
        value           nonuniform List<vector> 4((4.5e-06 1.275e-05 0) (1.225e-05 2.95e-05 0) (1.325e-05 2.975e-05 0) (5.5e-06 1.3e-05 0));
    }
    defaultFaces
    {
        type            empty;
    }
}


// ************************************************************************* //
