/*--------------------------------*- C++ -*----------------------------------*\
| =========                 |                                                 |
| \\      /  F ield         | OpenFOAM: The Open Source CFD Toolbox           |
|  \\    /   O peration     | Version:  v2012                                 |
|   \\  /    A nd           | Website:  www.openfoam.com                      |
|    \\/     M anipulation  |                                                 |
\*---------------------------------------------------------------------------*/
FoamFile
{
    version     2.0;
    format      ascii;
    class       volScalarField;
    location    "1";
    object      epsilonEq;
}
// * * * * * * * * * * * * * * * * * * * * * * * * * * * * * * * * * * * * * //

dimensions      [0 0 0 0 0 0 0];


internalField   nonuniform List<scalar> 5(5.69809e-06 5.67736e-06 5.7644e-06 5.78343e-06 5.72523e-06);

boundaryField
{
    boundary
    {
        type            calculated;
        value           nonuniform List<scalar> 4(5.69974e-06 5.67778e-06 5.76977e-06 5.78517e-06);
    }
    defaultFaces
    {
        type            empty;
    }
}


// ************************************************************************* //
