/*--------------------------------*- C++ -*----------------------------------*\
| =========                 |                                                 |
| \\      /  F ield         | OpenFOAM: The Open Source CFD Toolbox           |
|  \\    /   O peration     | Version:  v2012                                 |
|   \\  /    A nd           | Website:  www.openfoam.com                      |
|    \\/     M anipulation  |                                                 |
\*---------------------------------------------------------------------------*/
FoamFile
{
    version     2.0;
    format      ascii;
    class       pointVectorField;
    location    "1";
    object      pointD;
}
// * * * * * * * * * * * * * * * * * * * * * * * * * * * * * * * * * * * * * //

dimensions      [0 1 0 0 0 0 0];


internalField   nonuniform List<vector> 
10435
(
(8.23842e-08 -6.22455e-06 0)
(0 -6.20338e-06 0)
(0 -5.90249e-06 0)
(0 0 0)
(0 0 0)
(-1.14506e-06 -4.82352e-06 0)
(-1.97718e-07 -5.84967e-06 0)
(-1.14834e-06 -4.65323e-06 0)
(-1.5397e-07 -5.85053e-06 0)
(-7.58423e-07 -4.80545e-06 0)
(-8.70046e-07 -4.92193e-06 0)
(-4.1626e-07 -5.47805e-06 0)
(-4.41585e-07 -5.42878e-06 0)
(-2.23633e-07 -5.76967e-06 0)
(-1.93477e-07 -5.74425e-06 0)
(-1.15812e-06 -2.06961e-06 0)
(1.22126e-06 -2.0768e-06 0)
(5.01408e-08 -6.00127e-06 0)
(0 -5.96239e-06 0)
(-3.11009e-07 -5.63167e-06 0)
(-3.19447e-07 -5.61727e-06 0)
(0 -5.87286e-06 0)
(-6.21076e-07 -5.17148e-06 0)
(-4.98222e-07 -5.18349e-06 0)
(9.87247e-07 -4.94669e-06 0)
(0 0 0)
(-1.14628e-06 -2.0557e-06 3.87444e-08)
(1.20784e-06 -2.07338e-06 -3.66767e-08)
(0 0 0)
(-1.12692e-06 -4.65315e-06 -4.5501e-08)
(-7.36453e-07 -4.81295e-06 -7.54704e-08)
(9.82446e-07 -4.97373e-06 7.95045e-08)
(-4.87884e-07 -5.20724e-06 -1.30222e-07)
(-4.32345e-07 -5.49214e-06 -1.53659e-07)
(0 -5.91629e-06 7.65815e-08)
(0 -5.88e-06 -2.4656e-08)
(-3.29219e-07 -5.60503e-06 -1.20042e-07)
(0 -5.96106e-06 -2.55746e-08)
(-1.87099e-07 -5.72759e-06 -6.46208e-08)
(5.18616e-08 -6.00105e-06 -1.88219e-08)
(-1.4244e-07 -5.841e-06 -3.22546e-08)
(0 -6.20268e-06 -1.96679e-08)
(8.22482e-08 -6.22457e-06 -2.13388e-08)
(-8.49813e-07 -4.93218e-06 -8.4701e-08)
(-1.12557e-06 -4.82374e-06 -5.24621e-08)
(-6.17312e-07 -5.1955e-06 -1.46779e-07)
(-4.53125e-07 -5.44894e-06 -1.70691e-07)
(-3.20616e-07 -5.62827e-06 -1.29035e-07)
(-2.18782e-07 -5.75668e-06 -6.71392e-08)
(-1.85368e-07 -5.84143e-06 -3.68012e-08)
(7.52136e-08 -6.22202e-06 0)
(6.79755e-08 -6.21929e-06 0)
(6.04863e-08 -6.2164e-06 0)
(5.27396e-08 -6.21347e-06 0)
(4.46029e-08 -6.21067e-06 0)
(3.61346e-08 -6.20817e-06 0)
(2.73831e-08 -6.2061e-06 0)
(1.83937e-08 -6.20455e-06 0)
(9.23075e-09 -6.20363e-06 0)
(0 -6.19113e-06 0)
(0 -6.1789e-06 0)
(0 -6.16671e-06 0)
(0 -6.15455e-06 0)
(0 -6.14241e-06 0)
(0 -6.13027e-06 0)
(0 -6.11813e-06 0)
(0 -6.10599e-06 0)
(0 -6.09385e-06 0)
(0 -6.08171e-06 0)
(0 -6.06957e-06 0)
(0 -6.05745e-06 0)
(0 -6.04535e-06 0)
(0 -6.03327e-06 0)
(0 -6.02124e-06 0)
(0 -6.00927e-06 0)
(0 -5.99737e-06 0)
(0 -5.98557e-06 0)
(0 -5.97388e-06 0)
(0 -5.94046e-06 0)
(0 -5.91981e-06 0)
(0 -5.90094e-06 0)
(0 -5.88459e-06 0)
(0 -5.8715e-06 0)
(0 -5.86242e-06 0)
(0 -5.858e-06 0)
(0 -5.8586e-06 0)
(0 -5.86392e-06 0)
(9.13168e-08 -5.87981e-06 0)
(1.79809e-07 -5.85056e-06 0)
(2.70607e-07 -5.81093e-06 0)
(3.65075e-07 -5.75535e-06 0)
(4.6389e-07 -5.68245e-06 0)
(5.66884e-07 -5.58795e-06 0)
(6.73214e-07 -5.46997e-06 0)
(7.79839e-07 -5.32374e-06 0)
(8.85396e-07 -5.14966e-06 0)
(1.19589e-06 -1.93527e-06 0)
(1.16649e-06 -1.79476e-06 0)
(1.13332e-06 -1.65684e-06 0)
(1.09643e-06 -1.522e-06 0)
(1.05585e-06 -1.39073e-06 0)
(1.01164e-06 -1.2635e-06 0)
(9.63793e-07 -1.14071e-06 0)
(9.12325e-07 -1.02275e-06 0)
(8.57227e-07 -9.0996e-07 0)
(7.98494e-07 -8.02663e-07 0)
(7.36178e-07 -7.00984e-07 0)
(6.70348e-07 -6.04719e-07 0)
(6.00883e-07 -5.14998e-07 0)
(5.27656e-07 -4.31661e-07 0)
(4.5058e-07 -3.54536e-07 0)
(3.69565e-07 -2.8318e-07 0)
(2.84448e-07 -2.1649e-07 0)
(1.9482e-07 -1.51742e-07 0)
(9.95105e-08 -8.15332e-08 0)
(0 0 0)
(0 0 0)
(0 0 0)
(0 0 0)
(0 0 0)
(0 0 0)
(0 0 0)
(0 0 0)
(0 0 0)
(-9.93671e-08 -8.70741e-08 0)
(-1.83087e-07 -1.48399e-07 0)
(-2.66702e-07 -2.10752e-07 0)
(-3.48287e-07 -2.76594e-07 0)
(-4.26741e-07 -3.47525e-07 0)
(-5.01546e-07 -4.24346e-07 0)
(-5.72495e-07 -5.07385e-07 0)
(-6.39534e-07 -5.96696e-07 0)
(-7.02685e-07 -6.92167e-07 0)
(-7.62002e-07 -7.93589e-07 0)
(-8.17595e-07 -9.00824e-07 0)
(-8.69583e-07 -1.01357e-06 0)
(-9.17966e-07 -1.13129e-06 0)
(-9.62738e-07 -1.25377e-06 0)
(-1.00393e-06 -1.3807e-06 0)
(-1.04158e-06 -1.51172e-06 0)
(-1.0757e-06 -1.64647e-06 0)
(-1.1063e-06 -1.78459e-06 0)
(-1.13344e-06 -1.92575e-06 0)
(-1.17301e-06 -2.17292e-06 0)
(-1.18638e-06 -2.27731e-06 0)
(-1.1982e-06 -2.38255e-06 0)
(-1.20841e-06 -2.48864e-06 0)
(-1.21704e-06 -2.59549e-06 0)
(-1.22407e-06 -2.70293e-06 0)
(-1.22954e-06 -2.81087e-06 0)
(-1.23347e-06 -2.91919e-06 0)
(-1.23589e-06 -3.02778e-06 0)
(-1.23685e-06 -3.13655e-06 0)
(-1.23642e-06 -3.24544e-06 0)
(-1.23459e-06 -3.35426e-06 0)
(-1.23143e-06 -3.46299e-06 0)
(-1.22702e-06 -3.57156e-06 0)
(-1.22147e-06 -3.67994e-06 0)
(-1.21484e-06 -3.78804e-06 0)
(-1.20726e-06 -3.89586e-06 0)
(-1.19888e-06 -4.00341e-06 0)
(-1.18991e-06 -4.11073e-06 0)
(-1.1806e-06 -4.21804e-06 0)
(-1.17122e-06 -4.32551e-06 0)
(-1.16222e-06 -4.43325e-06 0)
(-1.15431e-06 -4.54203e-06 0)
(-1.14655e-06 -4.73711e-06 0)
(-1.7513e-07 -5.85042e-06 0)
(-1.31066e-07 -5.85273e-06 0)
(-1.11768e-07 -5.85654e-06 0)
(-9.50765e-08 -5.86141e-06 0)
(-8.02544e-08 -5.86688e-06 0)
(-6.69211e-08 -5.87271e-06 0)
(-5.48968e-08 -5.87883e-06 0)
(-4.39683e-08 -5.88516e-06 0)
(-3.40022e-08 -5.89163e-06 0)
(-2.48148e-08 -5.89817e-06 0)
(-1.64165e-08 -5.90476e-06 0)
(-8.65139e-09 -5.9114e-06 0)
(-1.49387e-09 -5.91808e-06 0)
(5.09657e-09 -5.92479e-06 0)
(1.11623e-08 -5.93154e-06 0)
(1.67443e-08 -5.93833e-06 0)
(2.18793e-08 -5.94515e-06 0)
(2.65973e-08 -5.95201e-06 0)
(3.0935e-08 -5.95891e-06 0)
(3.49086e-08 -5.96585e-06 0)
(3.85744e-08 -5.97283e-06 0)
(4.19304e-08 -5.97986e-06 0)
(4.49812e-08 -5.98695e-06 0)
(4.77141e-08 -5.9941e-06 0)
(5.36368e-08 -6.01146e-06 0)
(5.66838e-08 -6.02177e-06 0)
(5.93271e-08 -6.03216e-06 0)
(6.16396e-08 -6.04263e-06 0)
(6.36784e-08 -6.05321e-06 0)
(6.54834e-08 -6.06388e-06 0)
(6.70894e-08 -6.07467e-06 0)
(6.85385e-08 -6.08559e-06 0)
(6.98539e-08 -6.09662e-06 0)
(7.10635e-08 -6.10779e-06 0)
(7.21997e-08 -6.11908e-06 0)
(7.32825e-08 -6.13048e-06 0)
(7.43332e-08 -6.14199e-06 0)
(7.53796e-08 -6.15359e-06 0)
(7.64384e-08 -6.16529e-06 0)
(7.75294e-08 -6.17706e-06 0)
(7.86683e-08 -6.18888e-06 0)
(7.9861e-08 -6.20075e-06 0)
(8.11078e-08 -6.21265e-06 0)
(4.41605e-08 -5.99396e-06 0)
(3.77443e-08 -5.9867e-06 0)
(3.12601e-08 -5.98002e-06 0)
(2.49645e-08 -5.97439e-06 0)
(1.91154e-08 -5.97e-06 0)
(1.39444e-08 -5.96682e-06 0)
(9.52334e-09 -5.96473e-06 0)
(5.82719e-09 -5.96348e-06 0)
(2.73277e-09 -5.96279e-06 0)
(-8.87319e-07 -2.05758e-06 0)
(-6.34612e-07 -2.04857e-06 0)
(-4.0038e-07 -2.04259e-06 0)
(-1.79224e-07 -2.0396e-06 0)
(3.58274e-08 -2.03958e-06 0)
(2.49983e-07 -2.04233e-06 0)
(4.70582e-07 -2.04783e-06 0)
(7.0269e-07 -2.05587e-06 0)
(9.52399e-07 -2.0658e-06 0)
(-6.70198e-07 -4.69427e-06 0)
(-5.91054e-07 -4.58416e-06 0)
(-5.16112e-07 -4.47425e-06 0)
(-4.42298e-07 -4.36368e-06 0)
(-3.68138e-07 -4.25215e-06 0)
(-2.93184e-07 -4.13958e-06 0)
(-2.17225e-07 -4.02613e-06 0)
(-1.40066e-07 -3.91171e-06 0)
(-6.17758e-08 -3.79651e-06 0)
(1.77525e-08 -3.68054e-06 0)
(9.84827e-08 -3.56396e-06 0)
(1.80393e-07 -3.44691e-06 0)
(2.63443e-07 -3.32957e-06 0)
(3.47577e-07 -3.21213e-06 0)
(4.32702e-07 -3.0948e-06 0)
(5.18712e-07 -2.97779e-06 0)
(6.05535e-07 -2.86132e-06 0)
(6.93046e-07 -2.74558e-06 0)
(7.81085e-07 -2.63079e-06 0)
(8.69432e-07 -2.51715e-06 0)
(9.5793e-07 -2.40477e-06 0)
(1.0463e-06 -2.29378e-06 0)
(1.13418e-06 -2.18428e-06 0)
(-8.08257e-07 -4.86055e-06 0)
(-4.31742e-07 -5.46008e-06 0)
(-3.69739e-07 -5.5114e-06 0)
(-3.18126e-07 -5.54103e-06 0)
(-2.6692e-07 -5.56927e-06 0)
(-2.18059e-07 -5.59752e-06 0)
(-1.71418e-07 -5.62608e-06 0)
(-1.27703e-07 -5.65447e-06 0)
(-8.72545e-08 -5.68229e-06 0)
(-5.00256e-08 -5.70941e-06 0)
(-1.60513e-08 -5.73553e-06 0)
(1.41568e-08 -5.76032e-06 0)
(4.06221e-08 -5.7835e-06 0)
(6.31714e-08 -5.80492e-06 0)
(8.1715e-08 -5.82448e-06 0)
(9.60837e-08 -5.84179e-06 0)
(1.06351e-07 -5.85718e-06 0)
(1.12112e-07 -5.87006e-06 0)
(1.13373e-07 -5.88062e-06 0)
(1.10317e-07 -5.88921e-06 0)
(1.02833e-07 -5.8957e-06 0)
(9.08411e-08 -5.90013e-06 0)
(7.41679e-08 -5.90241e-06 0)
(5.3526e-08 -5.90341e-06 0)
(2.88763e-08 -5.90347e-06 0)
(-2.06719e-07 -5.75314e-06 0)
(-1.70534e-07 -5.74158e-06 0)
(-1.51391e-07 -5.7484e-06 0)
(-1.34357e-07 -5.75913e-06 0)
(-1.18858e-07 -5.7713e-06 0)
(-1.04757e-07 -5.78416e-06 0)
(-9.17508e-08 -5.79685e-06 0)
(-7.97663e-08 -5.80919e-06 0)
(-6.87643e-08 -5.82106e-06 0)
(-5.86283e-08 -5.83236e-06 0)
(-4.93659e-08 -5.84312e-06 0)
(-4.09845e-08 -5.85335e-06 0)
(-3.34083e-08 -5.86309e-06 0)
(-2.66142e-08 -5.87237e-06 0)
(-2.0618e-08 -5.88126e-06 0)
(-1.53866e-08 -5.88984e-06 0)
(-1.09377e-08 -5.89817e-06 0)
(-7.24287e-09 -5.9063e-06 0)
(-4.28061e-09 -5.91432e-06 0)
(-2.03153e-09 -5.92227e-06 0)
(-4.34773e-10 -5.9302e-06 0)
(5.23238e-10 -5.93814e-06 0)
(9.03463e-10 -5.94614e-06 0)
(7.56334e-10 -5.95422e-06 0)
(-1.11797e-06 -4.82412e-06 0)
(-1.09077e-06 -4.82691e-06 0)
(-1.06339e-06 -4.83184e-06 0)
(-1.03583e-06 -4.83888e-06 0)
(-1.00814e-06 -4.84796e-06 0)
(-9.80373e-07 -4.85906e-06 0)
(-9.52629e-07 -4.87209e-06 0)
(-9.2503e-07 -4.88703e-06 0)
(-8.97628e-07 -4.9038e-06 0)
(-7.22626e-07 -4.83644e-06 0)
(-6.88987e-07 -4.86987e-06 0)
(-6.57241e-07 -4.90531e-06 0)
(-6.27502e-07 -4.94255e-06 0)
(-5.99879e-07 -4.98132e-06 0)
(-5.74607e-07 -5.02118e-06 0)
(-5.51676e-07 -5.06189e-06 0)
(-5.31271e-07 -5.10289e-06 0)
(-5.13413e-07 -5.14375e-06 0)
(-4.09114e-07 -5.49709e-06 0)
(-4.03601e-07 -5.51451e-06 0)
(-3.96895e-07 -5.53018e-06 0)
(-3.89011e-07 -5.54448e-06 0)
(-3.80109e-07 -5.55777e-06 0)
(-3.70156e-07 -5.5703e-06 0)
(-3.59168e-07 -5.58228e-06 0)
(-3.47055e-07 -5.59392e-06 0)
(-3.34342e-07 -5.60551e-06 0)
(-2.18186e-07 -5.77961e-06 0)
(-2.13411e-07 -5.789e-06 0)
(-2.09286e-07 -5.79784e-06 0)
(-2.05788e-07 -5.80618e-06 0)
(-2.02903e-07 -5.81407e-06 0)
(-2.00622e-07 -5.82155e-06 0)
(-1.98952e-07 -5.82874e-06 0)
(-1.97909e-07 -5.83573e-06 0)
(-1.97506e-07 -5.84264e-06 0)
(-1.10977e-06 -4.65448e-06 0)
(-1.0702e-06 -4.65884e-06 0)
(-1.03022e-06 -4.66638e-06 0)
(-9.90004e-07 -4.6771e-06 0)
(-9.49812e-07 -4.69099e-06 0)
(-9.09904e-07 -4.70805e-06 0)
(-8.70604e-07 -4.7282e-06 0)
(-8.32196e-07 -4.75134e-06 0)
(-7.95011e-07 -4.77727e-06 0)
(-8.42592e-07 -4.94176e-06 0)
(-8.15635e-07 -4.96305e-06 0)
(-7.89214e-07 -4.98572e-06 0)
(-7.63333e-07 -5.00968e-06 0)
(-7.3798e-07 -5.03484e-06 0)
(-7.13265e-07 -5.06105e-06 0)
(-6.89074e-07 -5.08823e-06 0)
(-6.65538e-07 -5.11604e-06 0)
(-6.42734e-07 -5.1443e-06 0)
(-4.27515e-07 -5.45273e-06 0)
(-4.1352e-07 -5.47557e-06 0)
(-3.99806e-07 -5.49751e-06 0)
(-3.8638e-07 -5.51863e-06 0)
(-3.73273e-07 -5.53901e-06 0)
(-3.60415e-07 -5.55873e-06 0)
(-3.47802e-07 -5.57783e-06 0)
(-3.35523e-07 -5.59625e-06 0)
(-3.23576e-07 -5.61411e-06 0)
(-1.85114e-07 -5.75738e-06 0)
(-1.7806e-07 -5.76904e-06 0)
(-1.71938e-07 -5.78054e-06 0)
(-1.66773e-07 -5.79175e-06 0)
(-1.62527e-07 -5.80264e-06 0)
(-1.59161e-07 -5.81311e-06 0)
(-1.56642e-07 -5.82312e-06 0)
(-1.5493e-07 -5.83266e-06 0)
(-1.54012e-07 -5.84174e-06 0)
(-3.18632e-07 -5.62014e-06 0)
(-3.08888e-07 -5.62424e-06 0)
(-2.9446e-07 -5.63827e-06 0)
(-2.78654e-07 -5.65405e-06 0)
(-2.6224e-07 -5.67149e-06 0)
(-2.45908e-07 -5.68909e-06 0)
(-2.29839e-07 -5.70637e-06 0)
(-2.14181e-07 -5.72323e-06 0)
(-1.99e-07 -5.73946e-06 0)
(-1.84218e-07 -5.75503e-06 0)
(-1.6987e-07 -5.76985e-06 0)
(-1.55919e-07 -5.78381e-06 0)
(-1.42365e-07 -5.79682e-06 0)
(-1.29168e-07 -5.80889e-06 0)
(-1.16295e-07 -5.81998e-06 0)
(-1.03715e-07 -5.83007e-06 0)
(-9.14161e-08 -5.83918e-06 0)
(-7.93656e-08 -5.8472e-06 0)
(-6.75429e-08 -5.85415e-06 0)
(-5.5926e-08 -5.86001e-06 0)
(-4.44678e-08 -5.86485e-06 0)
(-3.31817e-08 -5.86855e-06 0)
(-2.20355e-08 -5.87108e-06 0)
(-1.09846e-08 -5.8724e-06 0)
(-5.54095e-07 -5.18173e-06 0)
(9.11947e-07 -4.958e-06 0)
(8.39841e-07 -4.96865e-06 0)
(7.69285e-07 -4.97821e-06 0)
(7.00472e-07 -4.98692e-06 0)
(6.33307e-07 -4.99504e-06 0)
(5.67605e-07 -5.00275e-06 0)
(5.03514e-07 -5.01025e-06 0)
(4.4068e-07 -5.01766e-06 0)
(3.79209e-07 -5.02518e-06 0)
(3.18859e-07 -5.03285e-06 0)
(2.59396e-07 -5.04071e-06 0)
(2.00791e-07 -5.04889e-06 0)
(1.42745e-07 -5.05736e-06 0)
(8.51324e-08 -5.06632e-06 0)
(2.821e-08 -5.07593e-06 0)
(-2.83797e-08 -5.08617e-06 0)
(-8.4792e-08 -5.09707e-06 0)
(-1.41177e-07 -5.10869e-06 0)
(-1.97623e-07 -5.12098e-06 0)
(-2.5495e-07 -5.13369e-06 0)
(-3.12783e-07 -5.14696e-06 0)
(-3.7187e-07 -5.16058e-06 0)
(-4.33231e-07 -5.17359e-06 0)
(-6.00188e-07 -5.19923e-06 0)
(-5.80148e-07 -5.22656e-06 0)
(-5.60872e-07 -5.25351e-06 0)
(-5.42312e-07 -5.27999e-06 0)
(-5.2446e-07 -5.30591e-06 0)
(-5.07216e-07 -5.33124e-06 0)
(-4.90559e-07 -5.35589e-06 0)
(-4.74608e-07 -5.37975e-06 0)
(-4.59288e-07 -5.40285e-06 0)
(-2.99908e-07 -5.64807e-06 0)
(-2.89228e-07 -5.66387e-06 0)
(-2.79009e-07 -5.67912e-06 0)
(-2.69325e-07 -5.69375e-06 0)
(-2.60205e-07 -5.70776e-06 0)
(-2.51658e-07 -5.7212e-06 0)
(-2.43707e-07 -5.73407e-06 0)
(-2.36394e-07 -5.7463e-06 0)
(-2.29695e-07 -5.75798e-06 0)
(-4.85769e-07 -5.22048e-06 0)
(-4.74218e-07 -5.25728e-06 0)
(-4.64358e-07 -5.29233e-06 0)
(-4.55912e-07 -5.32543e-06 0)
(-4.48558e-07 -5.35638e-06 0)
(-4.42033e-07 -5.38518e-06 0)
(-4.36023e-07 -5.41163e-06 0)
(-4.30208e-07 -5.43567e-06 0)
(-4.24383e-07 -5.45748e-06 0)
(-3.03642e-07 -5.62948e-06 0)
(-2.90067e-07 -5.64106e-06 0)
(-2.76301e-07 -5.65301e-06 0)
(-2.62577e-07 -5.66538e-06 0)
(-2.49182e-07 -5.67812e-06 0)
(-2.36418e-07 -5.69111e-06 0)
(-2.24355e-07 -5.70431e-06 0)
(-2.13174e-07 -5.71756e-06 0)
(-2.02969e-07 -5.73076e-06 0)
(1.0809e-06 -4.72002e-06 0)
(1.15917e-06 -4.46593e-06 0)
(1.22277e-06 -4.19188e-06 0)
(1.27043e-06 -3.90294e-06 0)
(1.30103e-06 -3.60415e-06 0)
(1.31542e-06 -3.29962e-06 0)
(1.31437e-06 -2.9928e-06 0)
(1.299e-06 -2.68661e-06 0)
(1.2687e-06 -2.38134e-06 0)
(0 -5.88655e-06 0)
(0 -5.90065e-06 0)
(0 -5.91412e-06 0)
(0 -5.92502e-06 0)
(0 -5.93203e-06 0)
(0 -5.93455e-06 0)
(0 -5.93218e-06 0)
(0 -5.9254e-06 0)
(0 -5.9151e-06 0)
(-1.06683e-07 -7.54001e-08 7.07329e-08)
(-1.88221e-07 -1.16887e-07 1.04796e-07)
(-2.76194e-07 -1.73343e-07 1.16117e-07)
(-3.53672e-07 -2.36109e-07 1.22234e-07)
(-4.26155e-07 -3.05926e-07 1.23296e-07)
(-4.95468e-07 -3.82969e-07 1.21043e-07)
(-5.62127e-07 -4.67083e-07 1.1682e-07)
(-6.26162e-07 -5.5799e-07 1.1149e-07)
(-6.87438e-07 -6.55369e-07 1.05587e-07)
(-7.45779e-07 -7.58888e-07 9.94297e-08)
(-8.01013e-07 -8.68192e-07 9.31916e-08)
(-8.52997e-07 -9.82888e-07 8.6908e-08)
(-9.01675e-07 -1.10272e-06 8.06709e-08)
(-9.46981e-07 -1.22736e-06 7.44797e-08)
(-9.88899e-07 -1.35646e-06 6.83241e-08)
(-1.02742e-06 -1.48966e-06 6.22123e-08)
(-1.06255e-06 -1.62661e-06 5.61649e-08)
(-1.09431e-06 -1.76692e-06 5.02111e-08)
(-1.12277e-06 -1.91017e-06 4.43302e-08)
(-8.67376e-07 -2.04399e-06 3.08035e-08)
(-6.20241e-07 -2.03514e-06 2.22652e-08)
(-3.91881e-07 -2.02954e-06 1.36572e-08)
(-1.76586e-07 -2.02723e-06 4.64641e-09)
(3.37455e-08 -2.02747e-06 -3.78262e-09)
(2.43501e-07 -2.03138e-06 -1.22588e-08)
(4.58959e-07 -2.03834e-06 -2.06119e-08)
(6.89924e-07 -2.04734e-06 -2.76065e-08)
(9.38616e-07 -2.06082e-06 -3.38058e-08)
(1.18286e-06 -1.92983e-06 -4.39901e-08)
(1.15264e-06 -1.78718e-06 -5.05185e-08)
(1.11822e-06 -1.64685e-06 -5.67858e-08)
(1.08003e-06 -1.50987e-06 -6.30077e-08)
(1.03824e-06 -1.3767e-06 -6.92045e-08)
(9.92991e-07 -1.24771e-06 -7.53843e-08)
(9.4436e-07 -1.12322e-06 -8.15605e-08)
(8.92451e-07 -1.00353e-06 -8.7735e-08)
(8.37382e-07 -8.88903e-07 -9.38652e-08)
(7.79253e-07 -7.79565e-07 -9.97855e-08)
(7.18029e-07 -6.7594e-07 -1.05114e-07)
(6.53839e-07 -5.79887e-07 -1.10357e-07)
(5.8654e-07 -4.89354e-07 -1.14791e-07)
(5.16658e-07 -4.05137e-07 -1.1838e-07)
(4.44435e-07 -3.2756e-07 -1.20392e-07)
(3.69857e-07 -2.56792e-07 -1.19616e-07)
(2.92363e-07 -1.92913e-07 -1.14092e-07)
(2.10077e-07 -1.36019e-07 -1.00245e-07)
(1.17476e-07 -8.59931e-08 -6.85637e-08)
(0 0 0)
(0 0 0)
(0 0 0)
(0 0 0)
(0 0 0)
(0 0 0)
(0 0 0)
(0 0 0)
(0 0 0)
(0 0 0)
(0 0 0)
(0 0 0)
(-1.15788e-06 -2.06834e-06 9.60735e-09)
(-1.15543e-06 -2.06574e-06 1.92939e-08)
(-1.15152e-06 -2.06152e-06 2.9043e-08)
(1.22068e-06 -2.07715e-06 -8.75754e-09)
(1.21858e-06 -2.07646e-06 -1.77806e-08)
(1.21472e-06 -2.07514e-06 -2.70462e-08)
(0 0 0)
(0 0 0)
(0 0 0)
(-1.16175e-06 -2.1605e-06 3.45615e-08)
(-1.17487e-06 -2.26613e-06 3.0653e-08)
(-1.18717e-06 -2.37284e-06 2.66853e-08)
(-1.19703e-06 -2.48021e-06 2.29028e-08)
(-1.206e-06 -2.5883e-06 1.91049e-08)
(-1.21329e-06 -2.69692e-06 1.53976e-08)
(-1.21894e-06 -2.80594e-06 1.17568e-08)
(-1.22298e-06 -2.91525e-06 8.18417e-09)
(-1.22548e-06 -3.02473e-06 4.67914e-09)
(-1.22571e-06 -3.13441e-06 1.10476e-09)
(-1.22513e-06 -3.24386e-06 -2.23433e-09)
(-1.22303e-06 -3.35326e-06 -5.49313e-09)
(-1.21947e-06 -3.46244e-06 -8.64156e-09)
(-1.21395e-06 -3.57147e-06 -1.20191e-08)
(-1.20766e-06 -3.67994e-06 -1.50359e-08)
(-1.2001e-06 -3.78808e-06 -1.797e-08)
(-1.1914e-06 -3.89583e-06 -2.09204e-08)
(-1.18173e-06 -4.00322e-06 -2.38527e-08)
(-1.17123e-06 -4.11034e-06 -2.66487e-08)
(-1.16008e-06 -4.21614e-06 -3.00974e-08)
(-1.14959e-06 -4.32331e-06 -3.32971e-08)
(-1.13974e-06 -4.43147e-06 -3.70876e-08)
(-1.13163e-06 -4.54124e-06 -4.14968e-08)
(-1.08852e-06 -4.65481e-06 -4.65021e-08)
(-1.04859e-06 -4.6596e-06 -4.79718e-08)
(-1.00871e-06 -4.6676e-06 -4.99344e-08)
(-9.68081e-07 -4.67881e-06 -5.23395e-08)
(-9.28119e-07 -4.69318e-06 -5.51513e-08)
(-8.87774e-07 -4.71091e-06 -5.84447e-08)
(-8.48687e-07 -4.73172e-06 -6.20943e-08)
(-8.10515e-07 -4.75568e-06 -6.61585e-08)
(-7.72856e-07 -4.78285e-06 -7.06623e-08)
(-6.48031e-07 -4.70237e-06 -6.54249e-08)
(-5.71914e-07 -4.59299e-06 -5.61896e-08)
(-4.9928e-07 -4.48327e-06 -4.73454e-08)
(-4.27374e-07 -4.37289e-06 -3.936e-08)
(-3.55069e-07 -4.26134e-06 -3.22662e-08)
(-2.82457e-07 -4.14898e-06 -2.59229e-08)
(-2.08732e-07 -4.03546e-06 -2.017e-08)
(-1.33667e-07 -3.92079e-06 -1.55077e-08)
(-5.71722e-08 -3.80507e-06 -1.1627e-08)
(2.06528e-08 -3.68847e-06 -8.47178e-09)
(9.97782e-08 -3.57117e-06 -6.03593e-09)
(1.80156e-07 -3.45333e-06 -4.30388e-09)
(2.61749e-07 -3.33515e-06 -3.25809e-09)
(3.44529e-07 -3.21682e-06 -2.89002e-09)
(4.28568e-07 -3.09846e-06 -3.11637e-09)
(5.13486e-07 -2.98047e-06 -4.10151e-09)
(5.99281e-07 -2.86302e-06 -5.73292e-09)
(6.85819e-07 -2.74632e-06 -8.02372e-09)
(7.72975e-07 -2.63057e-06 -1.10061e-08)
(8.60708e-07 -2.51589e-06 -1.48079e-08)
(9.4832e-07 -2.40312e-06 -1.8981e-08)
(1.03567e-06 -2.29191e-06 -2.39142e-08)
(1.12251e-06 -2.18233e-06 -2.96263e-08)
(-1.1472e-06 -4.65445e-06 -1.61421e-08)
(-1.14444e-06 -4.65628e-06 -2.97043e-08)
(-1.13797e-06 -4.65699e-06 -3.94825e-08)
(-7.59084e-07 -4.80649e-06 -1.99567e-08)
(-7.57545e-07 -4.8093e-06 -4.02304e-08)
(-7.52069e-07 -4.81291e-06 -5.89552e-08)
(1.25884e-06 -2.38207e-06 -2.29662e-08)
(1.28865e-06 -2.68902e-06 -1.19777e-08)
(1.30326e-06 -2.9983e-06 -1.10263e-09)
(1.30443e-06 -3.3091e-06 1.11648e-08)
(1.28926e-06 -3.61692e-06 2.38082e-08)
(1.25864e-06 -3.9187e-06 3.61299e-08)
(1.21132e-06 -4.20996e-06 4.79528e-08)
(1.15247e-06 -4.48658e-06 5.94361e-08)
(1.07455e-06 -4.74308e-06 6.91813e-08)
(9.05496e-07 -4.98428e-06 7.33873e-08)
(8.33186e-07 -4.9941e-06 6.69997e-08)
(7.62771e-07 -5.00322e-06 6.02561e-08)
(6.94369e-07 -5.01186e-06 5.33876e-08)
(6.28125e-07 -5.02045e-06 4.67317e-08)
(5.64766e-07 -5.02868e-06 3.95122e-08)
(5.00605e-07 -5.03584e-06 3.21777e-08)
(4.38737e-07 -5.04335e-06 2.49542e-08)
(3.78128e-07 -5.05101e-06 1.7773e-08)
(3.18547e-07 -5.05894e-06 1.05452e-08)
(2.60159e-07 -5.06726e-06 3.14833e-09)
(2.02703e-07 -5.07696e-06 -4.85585e-09)
(1.45768e-07 -5.08611e-06 -1.27141e-08)
(8.94829e-08 -5.0957e-06 -2.07612e-08)
(3.36128e-08 -5.10578e-06 -2.91986e-08)
(-2.19376e-08 -5.11634e-06 -3.8174e-08)
(-7.73965e-08 -5.12738e-06 -4.7646e-08)
(-1.32787e-07 -5.13861e-06 -5.74571e-08)
(-1.88267e-07 -5.15155e-06 -6.84184e-08)
(-2.43538e-07 -5.16375e-06 -7.94658e-08)
(-3.00937e-07 -5.17538e-06 -9.14037e-08)
(-3.59101e-07 -5.18778e-06 -1.03778e-07)
(-4.21418e-07 -5.19773e-06 -1.1574e-07)
(-5.00734e-07 -5.16536e-06 -1.26126e-07)
(-5.17338e-07 -5.12341e-06 -1.20429e-07)
(-5.36877e-07 -5.08068e-06 -1.14559e-07)
(-5.58198e-07 -5.03854e-06 -1.08604e-07)
(-5.81781e-07 -4.99719e-06 -1.02583e-07)
(-6.0796e-07 -4.95691e-06 -9.67597e-08)
(-6.36596e-07 -4.9181e-06 -9.1082e-08)
(-6.68278e-07 -4.88068e-06 -8.56991e-08)
(-7.0146e-07 -4.84562e-06 -8.03472e-08)
(9.88306e-07 -4.94985e-06 2.05544e-08)
(9.8776e-07 -4.95442e-06 4.01737e-08)
(9.86771e-07 -4.96255e-06 6.01729e-08)
(-4.99288e-07 -5.18436e-06 -3.00763e-08)
(-4.99292e-07 -5.18756e-06 -6.15924e-08)
(-4.98224e-07 -5.19403e-06 -9.58853e-08)
(-4.77911e-07 -5.24539e-06 -1.35145e-07)
(-4.69649e-07 -5.28227e-06 -1.39674e-07)
(-4.62947e-07 -5.31694e-06 -1.43772e-07)
(-4.57591e-07 -5.35069e-06 -1.46777e-07)
(-4.52964e-07 -5.3803e-06 -1.49672e-07)
(-4.48909e-07 -5.40741e-06 -1.51978e-07)
(-4.45615e-07 -5.43308e-06 -1.53133e-07)
(-4.41633e-07 -5.45492e-06 -1.54336e-07)
(-4.37502e-07 -5.47479e-06 -1.54269e-07)
(-3.86449e-07 -5.52699e-06 -1.33552e-07)
(-3.34894e-07 -5.55876e-06 -1.1434e-07)
(-2.83486e-07 -5.5882e-06 -9.7242e-08)
(-2.34626e-07 -5.61931e-06 -7.93179e-08)
(-1.87421e-07 -5.64815e-06 -6.60352e-08)
(-1.43338e-07 -5.67673e-06 -5.28563e-08)
(-1.01778e-07 -5.70485e-06 -4.04349e-08)
(-6.32303e-08 -5.73204e-06 -2.92843e-08)
(-2.80389e-08 -5.75795e-06 -1.89366e-08)
(3.97694e-09 -5.78249e-06 -9.47544e-09)
(3.24871e-08 -5.80546e-06 -6.36718e-10)
(5.72809e-08 -5.82674e-06 7.66843e-09)
(7.87065e-08 -5.84729e-06 1.5448e-08)
(9.45999e-08 -5.86318e-06 2.25927e-08)
(1.0616e-07 -5.87713e-06 2.92941e-08)
(1.13562e-07 -5.89041e-06 3.56936e-08)
(1.16067e-07 -5.90045e-06 4.15736e-08)
(1.13627e-07 -5.90806e-06 4.71777e-08)
(1.06067e-07 -5.91327e-06 5.24681e-08)
(9.36852e-08 -5.91675e-06 5.75626e-08)
(7.82031e-08 -5.91991e-06 6.23871e-08)
(5.64843e-08 -5.91928e-06 6.68963e-08)
(3.05344e-08 -5.91784e-06 7.15824e-08)
(9.11147e-08 -5.8959e-06 7.75084e-08)
(1.78456e-07 -5.86909e-06 7.98786e-08)
(2.6744e-07 -5.83063e-06 8.21591e-08)
(3.6255e-07 -5.78033e-06 8.60621e-08)
(4.60048e-07 -5.70963e-06 8.84863e-08)
(5.63366e-07 -5.61829e-06 9.03723e-08)
(6.70698e-07 -5.50199e-06 9.14515e-08)
(7.77647e-07 -5.35796e-06 9.03806e-08)
(8.8703e-07 -5.18514e-06 8.79192e-08)
(-4.17774e-07 -5.47699e-06 -3.38616e-08)
(-4.18723e-07 -5.47901e-06 -7.02877e-08)
(-4.22049e-07 -5.4833e-06 -1.11037e-07)
(0 -5.90124e-06 1.86063e-08)
(0 -5.90366e-06 3.76073e-08)
(0 -5.90858e-06 5.66498e-08)
(0 -5.93014e-06 6.20575e-08)
(0 -5.94324e-06 4.90437e-08)
(0 -5.94975e-06 3.58719e-08)
(0 -5.95218e-06 2.38046e-08)
(0 -5.9486e-06 1.27391e-08)
(0 -5.94009e-06 2.93271e-09)
(0 -5.9263e-06 -6.22489e-09)
(0 -5.91016e-06 -1.41342e-08)
(0 -5.89413e-06 -1.99176e-08)
(-1.20817e-08 -5.87966e-06 -2.43885e-08)
(-2.45324e-08 -5.87789e-06 -2.51115e-08)
(-3.69648e-08 -5.87511e-06 -2.58515e-08)
(-4.94168e-08 -5.87127e-06 -2.6768e-08)
(-6.19222e-08 -5.86638e-06 -2.78433e-08)
(-7.46281e-08 -5.86018e-06 -2.92307e-08)
(-8.74987e-08 -5.85286e-06 -3.08674e-08)
(-1.00571e-07 -5.84436e-06 -3.28432e-08)
(-1.13673e-07 -5.83509e-06 -3.48373e-08)
(-1.26978e-07 -5.82462e-06 -3.72309e-08)
(-1.40779e-07 -5.81282e-06 -4.01414e-08)
(-1.54824e-07 -5.80004e-06 -4.33158e-08)
(-1.69129e-07 -5.78618e-06 -4.68436e-08)
(-1.83816e-07 -5.77127e-06 -5.08731e-08)
(-1.98381e-07 -5.75593e-06 -5.50188e-08)
(-2.13822e-07 -5.73879e-06 -6.0093e-08)
(-2.29649e-07 -5.7206e-06 -6.59333e-08)
(-2.4475e-07 -5.70293e-06 -7.19491e-08)
(-2.60676e-07 -5.68431e-06 -7.86541e-08)
(-2.76575e-07 -5.66585e-06 -8.56642e-08)
(-2.91719e-07 -5.64764e-06 -9.31887e-08)
(-3.05913e-07 -5.63045e-06 -1.01844e-07)
(-3.19478e-07 -5.61525e-06 -1.11136e-07)
(-3.43751e-07 -5.59612e-06 -1.25757e-07)
(-3.59017e-07 -5.58684e-06 -1.30476e-07)
(-3.72176e-07 -5.57778e-06 -1.35248e-07)
(-3.85308e-07 -5.56839e-06 -1.39137e-07)
(-3.96021e-07 -5.5585e-06 -1.43087e-07)
(-4.06347e-07 -5.5481e-06 -1.46084e-07)
(-4.14095e-07 -5.53616e-06 -1.49137e-07)
(-4.21627e-07 -5.52337e-06 -1.51157e-07)
(-4.27826e-07 -5.50883e-06 -1.52653e-07)
(0 -5.87372e-06 -6.08824e-09)
(0 -5.87489e-06 -1.20791e-08)
(0 -5.87683e-06 -1.82248e-08)
(-3.17415e-07 -5.61719e-06 -2.85734e-08)
(-3.18418e-07 -5.61714e-06 -5.80958e-08)
(-3.2152e-07 -5.61494e-06 -8.93477e-08)
(0 -5.86714e-06 -2.88112e-08)
(0 -5.85967e-06 -3.05127e-08)
(0 -5.85799e-06 -3.10925e-08)
(0 -5.86164e-06 -3.1057e-08)
(0 -5.87023e-06 -3.05371e-08)
(0 -5.88306e-06 -2.97045e-08)
(0 -5.89933e-06 -2.8728e-08)
(0 -5.91815e-06 -2.76871e-08)
(0 -5.93901e-06 -2.65731e-08)
(8.3527e-10 -5.95279e-06 -2.5954e-08)
(1.31821e-09 -5.9446e-06 -2.629e-08)
(1.20919e-09 -5.93649e-06 -2.66346e-08)
(4.69556e-10 -5.92845e-06 -2.69769e-08)
(-9.11431e-10 -5.92042e-06 -2.72987e-08)
(-3.05866e-09 -5.91238e-06 -2.76373e-08)
(-5.9312e-09 -5.90423e-06 -2.80092e-08)
(-9.57456e-09 -5.89591e-06 -2.84226e-08)
(-1.40379e-08 -5.88736e-06 -2.88928e-08)
(-1.91495e-08 -5.87853e-06 -2.94175e-08)
(-2.52155e-08 -5.86922e-06 -3.00738e-08)
(-3.20901e-08 -5.85944e-06 -3.08409e-08)
(-3.97838e-08 -5.84909e-06 -3.17533e-08)
(-4.83168e-08 -5.83815e-06 -3.28514e-08)
(-5.75068e-08 -5.82645e-06 -3.41114e-08)
(-6.77226e-08 -5.81413e-06 -3.56998e-08)
(-7.87823e-08 -5.80086e-06 -3.7646e-08)
(-9.02109e-08 -5.78708e-06 -3.96457e-08)
(-1.03091e-07 -5.77308e-06 -4.2457e-08)
(-1.16331e-07 -5.75872e-06 -4.5521e-08)
(-1.31265e-07 -5.74427e-06 -4.97307e-08)
(-1.47393e-07 -5.73317e-06 -5.39196e-08)
(-1.65588e-07 -5.72537e-06 -5.92625e-08)
(-1.97254e-07 -5.71478e-06 -6.95479e-08)
(-2.08899e-07 -5.70112e-06 -7.47462e-08)
(-2.21665e-07 -5.68756e-06 -8.0113e-08)
(-2.35477e-07 -5.67411e-06 -8.56353e-08)
(-2.49817e-07 -5.66162e-06 -9.15518e-08)
(-2.65352e-07 -5.6489e-06 -9.72777e-08)
(-2.80877e-07 -5.63728e-06 -1.03315e-07)
(-2.97849e-07 -5.62549e-06 -1.08877e-07)
(-3.14381e-07 -5.61476e-06 -1.1455e-07)
(0 -5.96232e-06 -6.41314e-09)
(0 -5.9621e-06 -1.28153e-08)
(0 -5.9617e-06 -1.92008e-08)
(-1.92561e-07 -5.74486e-06 -1.77744e-08)
(-1.92494e-07 -5.74385e-06 -3.48423e-08)
(-1.91596e-07 -5.73935e-06 -5.0651e-08)
(3.01104e-09 -5.96145e-06 -2.54662e-08)
(6.31723e-09 -5.96208e-06 -2.52222e-08)
(1.01974e-08 -5.96335e-06 -2.4871e-08)
(1.48134e-08 -5.96551e-06 -2.43862e-08)
(2.02041e-08 -5.9688e-06 -2.37537e-08)
(2.62828e-08 -5.97334e-06 -2.2969e-08)
(3.2652e-08 -5.97925e-06 -2.19826e-08)
(3.93464e-08 -5.98613e-06 -2.09122e-08)
(4.58185e-08 -5.99347e-06 -1.99111e-08)
(4.94478e-08 -5.99386e-06 -1.88122e-08)
(4.67253e-08 -5.98674e-06 -1.87616e-08)
(4.38332e-08 -5.97969e-06 -1.86825e-08)
(4.06809e-08 -5.97265e-06 -1.86075e-08)
(3.7238e-08 -5.96564e-06 -1.85485e-08)
(3.34392e-08 -5.95865e-06 -1.84702e-08)
(2.9346e-08 -5.95166e-06 -1.84089e-08)
(2.49326e-08 -5.94465e-06 -1.83663e-08)
(2.00231e-08 -5.93764e-06 -1.83405e-08)
(1.48543e-08 -5.93056e-06 -1.83213e-08)
(9.23878e-09 -5.92343e-06 -1.83197e-08)
(3.16335e-09 -5.91623e-06 -1.83572e-08)
(-3.43677e-09 -5.90897e-06 -1.8448e-08)
(-1.06179e-08 -5.90166e-06 -1.85927e-08)
(-1.83352e-08 -5.89427e-06 -1.889e-08)
(-2.70604e-08 -5.8869e-06 -1.91628e-08)
(-3.60585e-08 -5.87946e-06 -1.97792e-08)
(-4.65489e-08 -5.8722e-06 -2.04484e-08)
(-5.81087e-08 -5.86499e-06 -2.14054e-08)
(-7.04764e-08 -5.85807e-06 -2.26791e-08)
(-8.40874e-08 -5.85185e-06 -2.43465e-08)
(-1.01035e-07 -5.84674e-06 -2.67257e-08)
(-1.20544e-07 -5.84301e-06 -2.94786e-08)
(-1.42925e-07 -5.83259e-06 -3.39062e-08)
(-1.43987e-07 -5.8231e-06 -3.58968e-08)
(-1.45806e-07 -5.8129e-06 -3.82401e-08)
(-1.48453e-07 -5.80207e-06 -4.09496e-08)
(-1.52137e-07 -5.79101e-06 -4.40504e-08)
(-1.56873e-07 -5.7794e-06 -4.75611e-08)
(-1.6272e-07 -5.76672e-06 -5.14081e-08)
(-1.69822e-07 -5.75349e-06 -5.55723e-08)
(-1.7833e-07 -5.74028e-06 -6.01929e-08)
(5.0261e-08 -6.00118e-06 -4.73624e-09)
(5.05634e-08 -6.00114e-06 -9.46579e-09)
(5.10843e-08 -6.00109e-06 -1.41485e-08)
(-1.54157e-07 -5.85215e-06 -1.14551e-08)
(-1.53222e-07 -5.85088e-06 -2.13275e-08)
(-1.50178e-07 -5.84717e-06 -2.81968e-08)
(0 -6.19045e-06 -1.98796e-08)
(0 -6.17826e-06 -2.01096e-08)
(0 -6.16611e-06 -2.03415e-08)
(0 -6.15397e-06 -2.05784e-08)
(0 -6.1418e-06 -2.08141e-08)
(0 -6.12967e-06 -2.10483e-08)
(0 -6.11754e-06 -2.12805e-08)
(0 -6.10535e-06 -2.15272e-08)
(0 -6.09321e-06 -2.17658e-08)
(0 -6.08106e-06 -2.20121e-08)
(0 -6.06886e-06 -2.22722e-08)
(0 -6.05665e-06 -2.25556e-08)
(0 -6.04451e-06 -2.28365e-08)
(0 -6.03238e-06 -2.31307e-08)
(0 -6.02028e-06 -2.34537e-08)
(0 -6.00824e-06 -2.37961e-08)
(0 -5.99629e-06 -2.41654e-08)
(0 -5.98443e-06 -2.45694e-08)
(0 -5.97271e-06 -2.50101e-08)
(5.52046e-08 -6.01127e-06 -1.89813e-08)
(5.80017e-08 -6.02134e-06 -1.91268e-08)
(6.05381e-08 -6.03165e-06 -1.92016e-08)
(6.27188e-08 -6.04207e-06 -1.93275e-08)
(6.46312e-08 -6.05263e-06 -1.9442e-08)
(6.6363e-08 -6.0634e-06 -1.95764e-08)
(6.78931e-08 -6.07431e-06 -1.97349e-08)
(6.92069e-08 -6.08528e-06 -1.99088e-08)
(7.04173e-08 -6.09637e-06 -2.00855e-08)
(7.15228e-08 -6.10758e-06 -2.02624e-08)
(7.25532e-08 -6.11891e-06 -2.04361e-08)
(7.35357e-08 -6.13035e-06 -2.06029e-08)
(7.45137e-08 -6.14188e-06 -2.07592e-08)
(7.5481e-08 -6.15351e-06 -2.08944e-08)
(7.64843e-08 -6.16523e-06 -2.10167e-08)
(7.75228e-08 -6.17702e-06 -2.11195e-08)
(7.86118e-08 -6.18886e-06 -2.12017e-08)
(7.97677e-08 -6.20075e-06 -2.12655e-08)
(8.09824e-08 -6.21266e-06 -2.13095e-08)
(7.51154e-08 -6.22204e-06 -2.12418e-08)
(6.7881e-08 -6.21926e-06 -2.11115e-08)
(6.04672e-08 -6.21625e-06 -2.09174e-08)
(5.26367e-08 -6.21324e-06 -2.0681e-08)
(4.4554e-08 -6.21033e-06 -2.04341e-08)
(3.61081e-08 -6.20771e-06 -2.0199e-08)
(2.73633e-08 -6.20552e-06 -1.99885e-08)
(1.83418e-08 -6.2039e-06 -1.98286e-08)
(9.15793e-09 -6.2029e-06 -1.97185e-08)
(0 -6.20331e-06 -4.90389e-09)
(0 -6.20319e-06 -9.8181e-09)
(0 -6.20297e-06 -1.47322e-08)
(8.2375e-08 -6.22454e-06 -5.30769e-09)
(8.23556e-08 -6.22453e-06 -1.06391e-08)