/*--------------------------------*- C++ -*----------------------------------*\
| =========                 |                                                 |
| \\      /  F ield         | OpenFOAM: The Open Source CFD Toolbox           |
|  \\    /   O peration     | Version:  v2012                                 |
|   \\  /    A nd           | Website:  www.openfoam.com                      |
|    \\/     M anipulation  |                                                 |
\*---------------------------------------------------------------------------*/
FoamFile
{
    version     2.0;
    format      ascii;
    class       volSymmTensorField;
    location    "10";
    object      epsilon;
}
// * * * * * * * * * * * * * * * * * * * * * * * * * * * * * * * * * * * * * //

dimensions      [0 0 0 0 0 0 0];


internalField   nonuniform List<symmTensor> 
1000
(
(0.0131455 -0.000951347 2.25414e-20 -0.0105993 -7.4258e-19 4.0734e-34)
(0.0123933 -0.000881922 -1.04155e-18 -0.0096878 -1.32115e-18 0)
(0.0114995 -0.00079782 -8.51101e-19 -0.00853594 1.19467e-18 0)
(0.0103361 -0.00069775 7.81748e-19 -0.00723271 1.7944e-20 0)
(0.00910521 -0.000549495 6.61954e-19 -0.00579754 3.90725e-20 0)
(0.00785731 -0.000395016 1.27806e-19 -0.00448593 6.20234e-19 0)
(0.0066978 -0.000233673 -4.51743e-19 -0.00325082 -6.36531e-20 0)
(0.00569274 -9.42828e-05 -2.30958e-19 -0.00232193 -6.35077e-19 0)
(0.00484743 2.41452e-05 -5.00805e-19 -0.00155276 -4.86832e-19 0)
(0.00420846 0.000129707 1.07501e-19 -0.00110197 2.0026e-19 0)
(0.0123891 -0.00273339 0 -0.00983947 0 0)
(0.0114124 -0.00243159 9.56842e-19 -0.00870199 -6.35802e-20 0)
(0.0102396 -0.00207756 -1.00892e-18 -0.007279 -9.5211e-19 0)
(0.00900068 -0.0017202 1.20958e-19 -0.00594038 -1.63595e-18 0)
(0.00782777 -0.00127679 3.25891e-19 -0.00462267 5.98536e-19 0)
(0.00677455 -0.000866489 1.08909e-18 -0.00358456 1.40007e-18 0)
(0.00586478 -0.000474476 -4.07082e-19 -0.00267619 -1.65377e-19 0)
(0.00513479 -0.000146782 8.40789e-20 -0.00207208 -1.17312e-19 0)
(0.00457418 0.000132248 -8.09414e-19 -0.00161782 -5.32239e-19 0)
(0.00417953 0.00036882 -1.87488e-19 -0.00139341 -1.49892e-19 0)
(0.0104436 -0.0039217 9.01642e-19 -0.0078887 -1.43877e-18 1.35179e-33)
(0.00910136 -0.00317667 7.74212e-19 -0.00643434 -1.87408e-19 0)
(0.0076569 -0.0024121 1.70307e-18 -0.00477184 7.5679e-19 0)
(0.00660569 -0.00182198 -4.72806e-19 -0.00370988 -4.7452e-19 0)
(0.00578476 -0.00123797 4.53725e-20 -0.0028649 1.17579e-19 0)
(0.00525 -0.000802354 1.89738e-18 -0.00243596 1.00318e-18 0)
(0.00487185 -0.000403724 -1.82876e-19 -0.00212697 1.61078e-19 0)
(0.0046491 -6.69894e-05 -4.97653e-19 -0.00203867 -9.49872e-20 0)
(0.0045075 0.000237424 2.32734e-24 -0.00197638 1.20987e-24 0)
(0.00436994 0.000481715 -5.33145e-19 -0.00195239 -4.05766e-19 0)
(0.00735934 -0.00383916 -1.19641e-20 -0.00480198 -1.74611e-20 5.41649e-37)
(0.00588767 -0.00268659 -1.03028e-18 -0.0033937 -5.07777e-19 0)
(0.00477602 -0.00181465 4.40409e-19 -0.00214119 1.67285e-19 0)
(0.00431636 -0.00125125 9.96817e-19 -0.00182269 3.84871e-19 0)
(0.00408695 -0.000812734 -5.46198e-19 -0.001623 -8.07603e-20 0)
(0.00413026 -0.000532667 -3.94813e-20 -0.00178492 -7.28386e-21 0)
(0.00421294 -0.000272135 7.74e-19 -0.0019105 3.8961e-19 0)
(0.00435325 -4.17815e-05 -3.32701e-19 -0.00213371 -2.78675e-19 0)
(0.00440228 0.000192554 -3.27569e-19 -0.0022144 -2.73705e-19 0)
(0.00434122 0.000373256 -2.97292e-19 -0.00222645 -2.58839e-19 0)
(0.0043917 -0.00277418 -1.00537e-20 -0.00198626 -4.04424e-20 3.32087e-35)
(0.00352379 -0.00172509 -6.26257e-19 -0.00133352 -4.61331e-20 0)
(0.00323973 -0.001203 -5.6776e-19 -0.001024 2.63118e-20 0)
(0.00329358 -0.000854566 -2.28713e-20 -0.00127646 3.48228e-22 0)
(0.00339869 -0.000632308 9.6396e-19 -0.00133439 -6.79654e-21 0)
(0.00358758 -0.000440519 1.04536e-19 -0.00157903 -2.47085e-19 0)
(0.00372902 -0.000270547 -1.92394e-20 -0.00169871 2.27694e-19 0)
(0.0038624 -9.47364e-05 -6.49919e-19 -0.0019159 -5.32737e-19 0)
(0.00387127 8.53418e-05 9.94836e-21 -0.00194827 2.54112e-21 0)
(0.00383168 0.000230291 -5.49796e-19 -0.00198738 -3.3285e-19 0)
(0.00282575 -0.00185744 5.85457e-19 -0.000717621 -1.65587e-19 4.73572e-35)
(0.00274554 -0.00133182 1.0722e-23 -0.000873906 -1.72414e-24 0)
(0.00288273 -0.00107357 7.88844e-19 -0.00102137 5.80021e-19 0)
(0.00301329 -0.000803193 -6.35743e-19 -0.0012249 -9.25278e-19 0)
(0.00311628 -0.000649604 0 -0.00129768 0 0)
(0.00322983 -0.000438544 -5.47814e-20 -0.00146581 2.98485e-19 0)
(0.00331324 -0.000276934 1.28941e-18 -0.00153179 4.90077e-19 0)
(0.00336892 -0.000100299 6.18624e-19 -0.00165353 2.53421e-19 0)
(0.003381 3.97415e-05 1.91748e-20 -0.00167919 2.5599e-19 0)
(0.00338426 0.000157221 -8.96384e-19 -0.00173485 -5.02878e-19 0)
(0.00223655 -0.00162884 -1.32663e-18 -0.000473562 9.07344e-20 3.12333e-34)
(0.00241719 -0.00125229 -1.81624e-18 -0.000738859 5.14152e-19 0)
(0.00259122 -0.00100002 2.14158e-19 -0.000929145 -8.82157e-19 0)
(0.00272656 -0.000747758 5.82121e-19 -0.00113711 -5.51473e-19 0)
(0.00286432 -0.000579292 -1.54549e-18 -0.00126847 -3.54857e-19 0)
(0.00298036 -0.000406819 -6.97776e-19 -0.0014362 -1.93046e-19 0)
(0.0030673 -0.000269385 -9.58511e-19 -0.00151259 -4.60767e-19 0)
(0.00313105 -0.000133069 2.40463e-19 -0.00161976 -4.97125e-20 0)
(0.00317233 -2.50157e-05 4.74923e-19 -0.00164291 -1.02125e-19 0)
(0.0031912 6.60238e-05 6.32834e-19 -0.00169173 4.92521e-20 0)
(0.00164172 -0.00143652 -6.50802e-19 -0.000209252 3.54109e-19 3.71887e-35)
(0.00194663 -0.00109872 -9.80823e-24 -0.000584611 4.25817e-24 0)
(0.00223201 -0.000863169 5.63947e-19 -0.00086149 -2.43504e-19 0)
(0.00243711 -0.000677202 1.56382e-18 -0.00110421 7.01946e-19 0)
(0.00261429 -0.000537855 3.03125e-20 -0.00125656 -1.26359e-20 0)
(0.00275103 -0.000412394 -3.08353e-19 -0.00141728 1.23904e-19 0)
(0.00285891 -0.000306841 6.24453e-19 -0.00149516 1.36646e-19 0)
(0.00293667 -0.000212106 -2.15806e-19 -0.00159259 8.60694e-20 0)
(0.00299064 -0.00012897 -5.0206e-19 -0.00161371 -1.48795e-19 0)
(0.00302154 -5.84472e-05 4.62e-19 -0.00166261 1.49625e-19 0)
(0.0011205 -0.00110926 -2.69387e-20 -8.63814e-05 6.20264e-19 -2.4788e-34)
(0.00156004 -0.000915136 -1.19388e-18 -0.000527036 1.25179e-18 0)
(0.00188969 -0.000766346 -1.17432e-19 -0.000832218 5.96608e-19 0)
(0.00214557 -0.000642659 1.5149e-18 -0.00108613 1.31831e-19 0)
(0.00234269 -0.000545698 6.71867e-19 -0.00125216 9.11502e-20 0)
(0.00250072 -0.000461712 -2.51675e-19 -0.00140601 5.9697e-19 0)
(0.00262091 -0.000385912 4.25251e-20 -0.00148958 4.10994e-19 0)
(0.00271284 -0.000327527 1.23666e-18 -0.00157769 1.05944e-19 0)
(0.00278481 -0.000266442 -9.46791e-20 -0.00160513 -3.44763e-19 0)
(0.00282237 -0.000226943 3.77639e-19 -0.00164609 5.34754e-19 0)
(0.00069531 -0.000725165 1.86879e-19 -5.4919e-05 1.71258e-19 -1.35452e-35)
(0.0011821 -0.00066932 4.62465e-19 -0.000500306 -3.56727e-19 0)
(0.00156087 -0.000621972 -3.54365e-19 -0.000818625 -3.08516e-19 0)
(0.00184093 -0.000577492 -2.15275e-20 -0.00106449 -5.33614e-19 0)
(0.00206954 -0.000537478 -4.19234e-20 -0.00123709 -4.93545e-19 0)
(0.00223207 -0.000500307 -2.54367e-19 -0.00137005 1.95587e-19 0)
(0.00237911 -0.000464653 -6.17456e-19 -0.00146187 -4.72622e-19 0)
(0.00246694 -0.000431722 -1.06684e-19 -0.00152501 -3.7067e-19 0)
(0.00257201 -0.000406593 -7.2939e-19 -0.00157141 -2.77841e-19 0)
(0.00260789 -0.000368242 -2.68484e-19 -0.00159506 2.38347e-19 0)
(0.000407651 -0.000339588 1.20753e-20 -0.00014661 -1.1647e-20 -4.55068e-39)
(0.000898823 -0.000422897 -1.16859e-18 -0.000550963 -1.62037e-19 0)
(0.00126413 -0.000493467 3.56496e-19 -0.000843529 2.78277e-19 0)
(0.00155575 -0.000520247 2.60336e-19 -0.00106452 -8.43347e-19 0)
(0.00177271 -0.000558143 6.80043e-19 -0.00122128 4.68256e-19 0)
(0.00195057 -0.000552088 -5.39888e-19 -0.00133862 -7.51452e-21 0)
(0.00208159 -0.000577295 -3.07147e-19 -0.0014198 -2.0728e-19 0)
(0.00219492 -0.000545985 1.78671e-19 -0.00147882 -6.74489e-19 0)
(0.00227243 -0.000572414 2.86339e-19 -0.00151699 1.73667e-19 0)
(0.00236682 -0.000542729 -2.09305e-19 -0.00153719 5.52398e-19 0)
(0.000252857 4.59636e-05 7.95263e-19 -0.0003571 -1.02277e-18 -9.35536e-36)
(0.000709239 -0.000167981 1.59005e-20 -0.0006909 -2.02664e-20 0)
(0.00104322 -0.000337545 -9.93651e-19 -0.0009246 -1.29216e-19 0)
(0.00132471 -0.000441137 -3.36377e-19 -0.00110799 -2.30256e-19 0)
(0.00152191 -0.00053508 5.20817e-19 -0.00122514 -2.57853e-20 0)
(0.00170555 -0.000577195 6.72007e-19 -0.0013265 -2.5388e-19 0)
(0.00181599 -0.000631622 5.91597e-21 -0.00137309 -7.33098e-21 0)
(0.00194727 -0.000634455 -3.99714e-19 -0.00143261 -1.38039e-20 0)
(0.00199308 -0.00066779 2.93114e-19 -0.00142955 6.43988e-19 0)
(0.00210952 -0.000679395 -3.17427e-19 -0.00144805 -1.81136e-19 0)
(0.000211936 0.00037029 -1.33283e-19 -0.000653596 -1.82459e-19 -2.86571e-36)
(0.00059109 5.73755e-05 5.73044e-19 -0.000873591 -1.68445e-19 0)
(0.000856428 -0.00019211 -7.07457e-20 -0.00102251 -6.25808e-19 0)
(0.00110417 -0.00035357 -4.92825e-19 -0.00114175 8.69825e-20 0)
(0.00126254 -0.000494044 -6.28403e-19 -0.00120909 3.24442e-19 0)
(0.00143507 -0.000572179 2.73871e-19 -0.00127221 1.93924e-19 0)
(0.00152234 -0.000651528 5.11912e-19 -0.001288 -2.21673e-19 0)
(0.00165483 -0.000683141 6.12203e-19 -0.00132245 1.34196e-19 0)
(0.00168606 -0.000725502 -8.28093e-20 -0.00129846 1.46751e-19 0)
(0.00180269 -0.000770588 -3.02869e-19 -0.00129051 -7.64139e-23 0)
(0.000275678 0.000617843 1.20264e-19 -0.00101978 1.74206e-19 2.56671e-36)
(0.000553747 0.000234647 -2.89034e-19 -0.00111392 -2.35897e-19 0)
(0.000735923 -6.63068e-05 4.42244e-19 -0.00116048 -1.30564e-19 0)
(0.00093116 -0.000274585 2.79048e-19 -0.00120716 1.8815e-19 0)
(0.00104037 -0.000444917 -1.22798e-19 -0.00121063 2.54405e-19 0)
(0.00118728 -0.000556176 -7.72602e-19 -0.00123184 -4.7026e-19 0)
(0.00124449 -0.000650335 1.58855e-19 -0.00120693 3.27607e-19 0)
(0.00136605 -0.000708521 2.31159e-19 -0.00121668 1.39948e-19 0)
(0.00138193 -0.000754957 -1.66317e-19 -0.00117047 -2.55948e-19 0)
(0.00148942 -0.000820122 -1.6444e-19 -0.00114372 -2.34487e-19 0)
(0.000409979 0.000769228 2.14285e-19 -0.00142174 -1.07623e-18 -2.73212e-34)
(0.000569832 0.000354489 1.09267e-19 -0.00137311 -4.10231e-19 0)
(0.000658305 3.26868e-05 1.48261e-19 -0.00131094 5.19798e-19 0)
(0.000788717 -0.000200476 4.8247e-19 -0.0012729 3.48137e-19 0)
(0.000845964 -0.000382058 3.92688e-19 -0.00121298 -3.21789e-19 0)
(0.000956893 -0.000515133 1.69648e-19 -0.00118223 3.14893e-19 0)
(0.000987146 -0.000612964 1.01814e-19 -0.00112125 4.70487e-19 0)
(0.00108724 -0.000692365 1.22538e-19 -0.00109741 -4.44963e-19 0)
(0.00109318 -0.000736325 -1.95098e-19 -0.00103342 -1.04642e-19 0)
(0.00118177 -0.00081335 -1.14378e-19 -0.000985767 1.28364e-19 0)
(0.000587238 0.000815079 -8.18155e-20 -0.00182356 3.67522e-19 -2.89501e-35)
(0.000626062 0.000407955 1.33761e-19 -0.00163833 9.17012e-19 0)
(0.00062289 9.55213e-05 1.62973e-19 -0.00147062 4.78943e-19 0)
(0.00068304 -0.00013901 -1.59594e-21 -0.00134963 1.02886e-20 0)
(0.000690143 -0.000315604 -2.0004e-19 -0.00122795 -1.21293e-19 0)
(0.000758886 -0.000454448 1.88551e-19 -0.00114518 1.33578e-19 0)
(0.000765575 -0.000548683 -1.83674e-19 -0.00105072 -9.86097e-20 0)
(0.000838035 -0.000636279 2.08729e-19 -0.000992184 -1.62046e-19 0)
(0.0008396 -0.000677216 1.80673e-19 -0.000914924 -3.23375e-20 0)
(0.000906073 -0.000754903 -4.61774e-21 -0.000847358 9.50842e-20 0)
(0.000775692 0.000760285 2.02909e-20 -0.00219626 -2.92579e-19 -2.99392e-35)
(0.000700563 0.000397403 -3.23074e-19 -0.00188286 -4.02822e-19 0)
(0.000613158 0.000122337 -3.26061e-19 -0.00161954 -3.29412e-19 0)
(0.000605171 -9.02526e-05 -1.67972e-19 -0.00141918 -5.41621e-19 0)
(0.000566706 -0.000244984 -3.10747e-19 -0.00124271 -4.11815e-19 0)
(0.000592841 -0.000374152 -3.06331e-19 -0.00110904 -6.32357e-20 0)
(0.000578545 -0.000455246 1.41568e-19 -0.000985546 3.25508e-19 0)
(0.000621941 -0.000539436 -1.44748e-19 -0.000892643 -1.7471e-19 0)
(0.000619522 -0.000572639 1.28537e-19 -0.000803694 -3.0734e-20 0)
(0.000664742 -0.000642342 -3.01182e-20 -0.000718786 1.94208e-20 0)
(0.000945638 0.00061477 -6.28339e-20 -0.00250476 -4.94608e-19 -9.39949e-35)
(0.000775257 0.000329703 1.09239e-19 -0.00208746 1.75236e-19 0)
(0.000619488 0.000114999 2.05474e-19 -0.00174682 4.93622e-19 0)
(0.000553559 -5.39652e-05 -1.16889e-19 -0.00148165 -1.26339e-19 0)
(0.000478708 -0.000175001 2.04162e-19 -0.00126104 8.05922e-20 0)
(0.000467682 -0.000279306 2.87484e-19 -0.00108518 4.8596e-19 0)
(0.000437626 -0.000342668 2.31779e-19 -0.000938873 2.40096e-19 0)
(0.000454858 -0.00041196 -4.09057e-20 -0.000816681 -1.55095e-19 0)
(0.000450889 -0.00043764 9.8006e-20 -0.000719326 5.26865e-20 0)
(0.000477413 -0.000492555 0 -0.000619797 0 0)
(0.00107383 0.000398975 8.1855e-20 -0.00272694 3.93838e-19 -7.23934e-35)
(0.000834371 0.000216871 2.19396e-19 -0.00223407 2.76884e-19 0)
(0.000629559 8.08917e-05 -1.36408e-19 -0.00183821 -2.02803e-19 0)
(0.000521035 -2.76705e-05 -5.97397e-20 -0.00152543 -9.44437e-20 0)
(0.000420016 -0.000103914 1.57897e-19 -0.00127351 2.56696e-19 0)
(0.000381324 -0.000171512 4.02007e-20 -0.00106646 6.98007e-20 0)
(0.000339793 -0.0002109 -6.41496e-20 -0.000904026 -6.28473e-20 0)
(0.000337494 -0.000256236 -6.12038e-20 -0.000760284 -9.20603e-20 0)
(0.000332104 -0.000271559 -8.95137e-20 -0.000656909 -8.43354e-20 0)
(0.0003454 -0.000306469 -2.52643e-20 -0.000547341 -2.34946e-20 0)
(0.00114227 0.000138116 -1.5589e-19 -0.0028423 -1.00165e-19 -1.76228e-34)
(0.000866877 7.55988e-05 -1.98737e-19 -0.0023107 -6.20272e-19 0)
(0.000636923 2.87654e-05 9.56236e-20 -0.00188655 -3.76043e-19 0)
(0.000506192 -8.71623e-06 9.40794e-20 -0.00154938 1.48597e-19 0)
(0.000391899 -3.5207e-05 -7.71663e-20 -0.00128145 -1.19698e-19 0)
(0.000338659 -5.86968e-05 -2.10813e-21 -0.00105832 -1.26711e-19 0)
(0.000291486 -7.25839e-05 1.61791e-20 -0.000887701 -4.10789e-20 0)
(0.000278751 -8.84348e-05 -9.57153e-20 -0.000732639 -7.89298e-20 0)
(0.000272919 -9.40351e-05 -2.06479e-20 -0.00062631 -3.93516e-20 0)
(0.000279132 -0.000106076 8.09099e-20 -0.000511398 2.63404e-20 0)
(0.000316757 -0.000109518 5.13192e-20 -0.000402278 7.07188e-20 0)
(0.000380403 -0.000314484 9.3436e-20 -0.000441105 4.93987e-20 0)
(0.000507811 -0.000506227 -2.75453e-20 -0.000519271 -1.84118e-20 0)
(0.000686384 -0.000657713 3.22973e-20 -0.000623882 1.85292e-20 0)
(0.000918162 -0.000773635 5.15684e-20 -0.000759142 4.18399e-20 0)
(0.00117806 -0.000829953 2.73681e-19 -0.00089843 7.57089e-20 0)
(0.00147416 -0.000840558 -2.07001e-19 -0.00105845 -1.37285e-19 0)
(0.00177334 -0.000785781 -2.17925e-19 -0.00120018 -1.07294e-19 0)
(0.00207587 -0.000705578 -3.55501e-19 -0.00135709 -3.05153e-19 0)
(0.00236736 -0.000591751 6.61661e-19 -0.00149837 3.98321e-19 0)
(0.000400152 -0.000105265 -6.1316e-20 -0.000275576 -2.15647e-20 0)
(0.000454151 -0.0003011 1.63243e-21 -0.000314271 5.1359e-22 0)
(0.000561499 -0.000490639 -1.43611e-19 -0.000390601 -5.52232e-20 0)
(0.000713179 -0.000643119 -1.73575e-19 -0.000496875 -4.61741e-20 0)
(0.000907724 -0.000774736 2.71057e-19 -0.000630114 9.30804e-20 0)
(0.00112812 -0.000847661 1.58623e-19 -0.000775402 5.70976e-20 0)
(0.00137234 -0.00089554 -1.08583e-19 -0.000926455 -2.54489e-20 0)
(0.00162571 -0.000860861 0 -0.00107238 0 0)
(0.00188248 -0.000804489 1.87856e-19 -0.00119388 1.42287e-19 0)
(0.00213983 -0.000663153 3.20698e-20 -0.00132583 -7.5108e-20 0)
(0.000476353 -9.74382e-05 1.4821e-20 -0.000195491 1.17286e-20 0)
(0.000523728 -0.000277325 1.11135e-19 -0.000228166 3.26428e-20 0)
(0.000617077 -0.000453739 -7.08051e-20 -0.00029124 -1.91642e-20 0)
(0.000753318 -0.000595052 -2.69674e-19 -0.000384316 -7.71493e-20 0)
(0.00092677 -0.000721424 -3.34778e-20 -0.000499005 -2.06117e-20 0)
(0.00113508 -0.000796194 1.88667e-20 -0.000640064 -7.69955e-21 0)
(0.00135965 -0.000856349 -1.65855e-19 -0.00078257 -6.07718e-20 0)
(0.00160947 -0.000858895 -2.90365e-19 -0.000951986 -1.08786e-19 0)
(0.00183438 -0.000847883 3.18795e-19 -0.00107709 1.3328e-19 0)
(0.00205689 -0.000784494 6.56161e-19 -0.00122662 3.2853e-19 0)
(0.000585113 -9.28498e-05 -6.05418e-20 -0.000168593 -2.08469e-20 0)
(0.000623047 -0.000265035 3.91977e-20 -0.000197488 2.904e-21 0)
(0.00069526 -0.000436443 2.01482e-19 -0.000249331 3.9614e-20 0)
(0.000803989 -0.000577864 1.3269e-19 -0.00033049 2.91876e-20 0)
(0.000936838 -0.000707084 2.19516e-19 -0.000420586 5.56203e-20 0)
(0.00110441 -0.000790188 -2.06451e-19 -0.000540725 -5.91143e-20 0)
(0.00128108 -0.000851381 -5.31407e-19 -0.000647897 -1.63561e-19 0)
(0.0014957 -0.000861593 9.49649e-20 -0.000795474 3.11909e-20 0)
(0.0017047 -0.000841227 9.74421e-20 -0.00090601 3.23813e-20 0)
(0.00192483 -0.000796745 -1.06839e-19 -0.00105898 -4.13907e-20 0)
(0.000670998 -8.17562e-05 -1.25078e-20 -0.000135314 -8.15458e-21 0)
(0.000705904 -0.000235135 -1.10602e-19 -0.000161453 -1.22485e-20 0)
(0.000770731 -0.000387179 -9.96606e-20 -0.000206424 -1.48016e-20 0)
(0.000871903 -0.000517762 5.07351e-20 -0.000282288 4.52011e-21 0)
(0.000992152 -0.000638007 2.59922e-19 -0.000363772 4.34949e-20 0)
(0.00114732 -0.000730017 1.85333e-19 -0.000480121 3.25337e-20 0)
(0.0013036 -0.000802181 2.08519e-19 -0.000579921 5.4899e-20 0)
(0.00148926 -0.000846743 -7.91592e-20 -0.000716553 -2.1201e-20 0)
(0.00166209 -0.000853607 1.6811e-19 -0.000813904 5.4842e-20 0)
(0.00184041 -0.000838628 9.63656e-20 -0.000939541 3.33958e-20 0)
(0.000772059 -7.72993e-05 0 -0.000144325 0 0)
(0.000798818 -0.000224863 -1.17057e-20 -0.000165295 1.00623e-20 0)
(0.000847248 -0.000368494 -8.84855e-21 -0.000199006 -1.19058e-20 0)
(0.000925694 -0.00049525 -2.64022e-19 -0.000259502 -4.79791e-20 0)
(0.00101842 -0.000606604 2.8541e-21 -0.000320904 -6.67956e-23 0)
(0.00114385 -0.000695988 -6.43912e-20 -0.000415075 -4.881e-21 0)
(0.00127564 -0.000758355 3.03856e-21 -0.000496791 8.52905e-23 0)
(0.00143848 -0.000804294 7.05509e-20 -0.000615297 1.22479e-20 0)
(0.00160084 -0.000814004 -3.96974e-19 -0.000710164 -1.18271e-19 0)
(0.0017668 -0.000817369 4.81576e-19 -0.000828133 1.57954e-19 0)
(0.000862614 -6.76269e-05 4.78569e-20 -0.000144266 -3.01252e-22 0)
(0.000887519 -0.000200179 -5.8944e-20 -0.000163952 -1.97353e-20 0)
(0.000932234 -0.000327659 9.53473e-21 -0.000195492 -1.27035e-20 0)
(0.00100396 -0.000446828 6.32717e-20 -0.000251967 1.50936e-20 0)
(0.00108751 -0.000551639 2.48909e-20 -0.000309337 1.8161e-20 0)
(0.00119681 -0.000646112 -6.73875e-20 -0.000394013 -1.42505e-21 0)
(0.00130973 -0.000714281 -1.8344e-19 -0.000467479 -3.28044e-20 0)
(0.00144375 -0.00077331 1.34733e-19 -0.000566761 3.57242e-20 0)
(0.00157908 -0.000794453 -7.50028e-20 -0.000648612 -3.26391e-20 0)
(0.00171821 -0.000809179 -4.11909e-20 -0.000746687 2.03227e-20 0)
(0.000949532 -6.29751e-05 1.01088e-20 -0.000164981 1.00639e-20 0)
(0.000968528 -0.000188713 2.45298e-20 -0.000180216 1.09437e-20 0)
(0.00100299 -0.000306386 -1.55104e-19 -0.000204342 -8.14351e-21 0)
(0.00105922 -0.000418308 -1.74248e-19 -0.00024876 -1.0177e-20 0)
(0.0011273 -0.000512644 1.60131e-20 -0.000295073 1.90381e-20 0)
(0.00121783 -0.000600367 1.26675e-19 -0.000364625 -2.25851e-21 0)
(0.0013171 -0.000661525 -1.73309e-19 -0.000429865 -2.62731e-20 0)
(0.00143462 -0.000719597 -3.19743e-19 -0.000516329 -6.44655e-20 0)
(0.00155765 -0.000744752 8.31541e-21 -0.000593886 -1.72221e-22 0)
(0.00168162 -0.000768841 2.50491e-19 -0.000681375 1.30753e-19 0)
(0.0010373 -5.58953e-05 -5.75414e-20 -0.000183347 4.68749e-22 0)
(0.00105444 -0.000170239 5.83784e-20 -0.000197463 -1.49438e-21 0)
(0.00108592 -0.000276272 4.07789e-20 -0.000220611 1.31594e-20 0)
(0.0011352 -0.000381347 -3.23247e-21 -0.000260708 2.08398e-22 0)
(0.00119516 -0.000470376 -3.39918e-19 -0.000303734 -4.75e-20 0)
(0.00127104 -0.000557009 1.42626e-19 -0.000363562 -6.40041e-21 0)
(0.0013552 -0.000619082 1.92882e-19 -0.00042158 4.96149e-20 0)
(0.00145186 -0.000678593 3.32429e-26 -0.000493527 -5.73101e-28 0)
(0.00155598 -0.000707911 -2.70539e-20 -0.000561753 3.20137e-20 0)
(0.00166165 -0.000735323 5.53123e-20 -0.000636554 3.69255e-20 0)
(0.00111131 -5.13589e-05 5.29216e-20 -0.000206718 -1.32688e-20 0)
(0.00112471 -0.000157616 6.52596e-20 -0.000217897 -1.80151e-21 0)
(0.00115021 -0.000254392 6.0277e-20 -0.000236957 -2.3566e-21 0)
(0.00118993 -0.000350934 1.85342e-19 -0.00026954 9.00066e-21 0)
(0.00124075 -0.000431335 -1.39286e-19 -0.000306782 -1.39485e-20 0)
(0.00130482 -0.000510525 -1.47812e-19 -0.000357602 -4.21638e-20 0)
(0.00137893 -0.000567722 1.59992e-19 -0.000410394 2.08603e-20 0)
(0.00146316 -0.000624404 7.45264e-20 -0.000473819 -2.91772e-21 0)
(0.0015553 -0.000654657 2.70608e-19 -0.000536704 2.86372e-20 0)
(0.00164771 -0.000685356 2.02661e-19 -0.000603314 3.5335e-20 0)
(0.00119005 -4.62623e-05 6.60105e-20 -0.000230609 -4.54309e-22 0)
(0.00120164 -0.000143233 6.6491e-20 -0.000240769 -1.59966e-21 0)
(0.00122415 -0.000231344 6.73877e-20 -0.000258778 -2.36236e-21 0)
(0.00125775 -0.000320875 9.65184e-20 -0.000287694 3.44888e-20 0)
(0.00130138 -0.000396053 7.30976e-20 -0.000321807 -2.60467e-20 0)
(0.00135422 -0.00047081 -1.36395e-19 -0.000365546 -4.35298e-20 0)
(0.00141686 -0.000525891 8.1321e-20 -0.000412797 2.4402e-20 0)
(0.00148629 -0.000579763 -1.72367e-19 -0.00046685 -2.3207e-20 0)
(0.001565 -0.000610388 1.11699e-19 -0.000523508 3.07156e-20 0)
(0.00164372 -0.000640122 -8.05683e-20 -0.000581719 2.42194e-20 0)
(0.0012521 -4.20262e-05 -7.54331e-21 -0.000250981 -1.56693e-20 0)
(0.00126144 -0.000130481 -6.69827e-20 -0.000259496 1.36826e-21 0)
(0.00128028 -0.000210297 -4.10424e-20 -0.000275347 1.91237e-20 0)
(0.001308 -0.000291359 0 -0.000300094 0 0)
(0.00134546 -0.000359415 1.65964e-20 -0.00033096 -2.33141e-20 0)
(0.00139035 -0.000426908 3.29661e-21 -0.000369479 -1.46294e-22 0)
(0.00144488 -0.000477706 1.52345e-19 -0.000413021 4.95523e-20 0)
(0.00150478 -0.000527195 -8.02426e-20 -0.000461527 4.18526e-21 0)
(0.00157283 -0.000556442 2.00021e-19 -0.000513518 6.15652e-20 0)
(0.00164107 -0.000586048 1.18403e-19 -0.000566267 -8.59232e-22 0)
(0.00131765 -3.79979e-05 7.01394e-21 -0.000270378 1.69781e-20 0)
(0.00132549 -0.000118182 8.94339e-20 -0.000278162 1.63538e-20 0)
(0.00134148 -0.000190778 -2.99629e-20 -0.000292949 -1.82542e-20 0)
(0.00136445 -0.000264659 7.71795e-20 -0.000315287 -2.35583e-21 0)
(0.00139578 -0.000327345 -5.47405e-20 -0.000343462 -2.11063e-20 0)
(0.00143261 -0.000389009 -2.08076e-19 -0.000377831 -1.69642e-20 0)
(0.00147817 -0.000436269 1.40493e-19 -0.000417061 5.11381e-20 0)
(0.0015271 -0.000481389 -8.48944e-20 -0.000460216 -2.81193e-20 0)
(0.00158559 -0.000509069 -8.22581e-20 -0.000507706 -3.12275e-20 0)
(0.00163934 -0.000536262 5.74895e-19 -0.000553497 1.22045e-19 0)
(0.00136674 -3.39237e-05 -1.29295e-20 -0.00028182 -3.55968e-20 0)
(0.00137323 -0.000105656 1.56678e-19 -0.000288856 -1.19114e-21 0)
(0.0013867 -0.000170408 2.2757e-20 -0.00030248 1.90645e-20 0)
(0.00140598 -0.000236334 -7.40896e-20 -0.000322903 1.25124e-21 0)
(0.0014326 -0.000292289 9.26938e-20 -0.000349024 4.38855e-20 0)
(0.00146395 -0.000347312 -1.57854e-19 -0.000380861 3.55746e-21 0)
(0.00150279 -0.000389899 -7.51137e-20 -0.000417211 1.91862e-21 0)
(0.00154476 -0.000430037 7.5266e-20 -0.000457527 -2.22161e-21 0)
(0.0015945 -0.000456242 -1.57097e-19 -0.000501263 -2.95218e-20 0)
(0.00164236 -0.000478467 -7.8752e-20 -0.00054543 2.39096e-21 0)
(0.00141566 -3.01828e-05 -1.62996e-19 -0.000288057 -1.84292e-20 0)
(0.00142101 -9.39758e-05 -2.17619e-19 -0.000294719 1.87413e-20 0)
(0.00143225 -0.000151718 1.25624e-19 -0.000307853 3.92555e-20 0)
(0.00144804 -0.000210473 -2.36628e-19 -0.000327026 -1.75839e-23 0)
(0.00147007 -0.000260506 -7.90742e-20 -0.000351929 -6.22538e-23 0)
(0.00149562 -0.00030955 7.91685e-20 -0.000381513 -1.03507e-22 0)
(0.00152767 -0.000347365 1.89198e-20 -0.00041589 -2.69209e-20 0)
(0.00156204 -0.000383012 1.41085e-20 -0.000453106 -2.94962e-20 0)
(0.00160295 -0.000405175 7.40874e-20 -0.000494203 3.22378e-20 0)
(0.00164348 -0.000425043 7.70477e-20 -0.000535578 3.49097e-20 0)
(0.00144884 -2.59324e-05 -8.57817e-20 -0.000283327 -1.8432e-20 0)
(0.00145341 -8.07796e-05 -1.22726e-19 -0.000289858 -5.64814e-20 0)
(0.001463 -0.000130424 1.07591e-19 -0.000302764 2.10454e-20 0)
(0.00147647 -0.000180936 1.39391e-19 -0.000321584 4.31242e-20 0)
(0.00149524 -0.000224104 -7.87916e-20 -0.000345991 -4.49227e-20 0)
(0.0015169 -0.00026624 -1.40474e-20 -0.000374944 -4.65709e-20 0)
(0.00154408 -0.000299166 -7.7973e-20 -0.000408388 -2.40507e-21 0)
(0.00157272 -0.000329432 5.9282e-20 -0.000444395 2.9305e-20 0)
(0.00160729 -0.00034908 7.93467e-20 -0.000484023 2.53688e-21 0)
(0.00164016 -0.000364867 3.26057e-19 -0.000523205 5.57486e-20 0)
(0.00147633 -2.18108e-05 2.40741e-19 -0.000266586 -1.52182e-20 0)
(0.00148025 -6.79508e-05 6.97716e-20 -0.000273266 -1.58011e-20 0)
(0.00148847 -0.000109749 -8.1798e-20 -0.00028665 -2.92772e-21 0)
(0.00149995 -0.000152311 1.11365e-19 -0.000305821 2.38419e-20 0)
(0.00151586 -0.000188671 -1.54412e-21 -0.000330927 -1.50179e-22 0)
(0.00153421 -0.000224153 -3.54656e-20 -0.000360262 1.8887e-20 0)
(0.00155681 -0.000251671 -8.4058e-20 -0.000394193 -6.1801e-21 0)
(0.00158103 -0.000276873 -1.6381e-19 -0.000430543 -8.69021e-20 0)
(0.00160901 -0.000292678 -3.92831e-20 -0.000469758 -5.78546e-20 0)
(0.00163705 -0.000305059 2.64389e-19 -0.000509507 1.57448e-19 0)
(0.00148791 -1.66825e-05 1.69422e-19 -0.000235626 1.73247e-20 0)
(0.00149154 -5.196e-05 9.36916e-20 -0.000242808 1.87798e-20 0)
(0.00149911 -8.39879e-05 1.9698e-20 -0.000257159 1.68206e-20 0)
(0.00150967 -0.000116656 2.59559e-20 -0.000277741 1.82164e-20 0)
(0.0015241 -0.000144651 8.18967e-20 -0.000304551 8.18012e-21 0)
(0.00154061 -0.000172114 -3.99526e-20 -0.000335865 -2.26148e-20 0)
(0.00156065 -0.000193346 3.67855e-20 -0.000371774 -1.48733e-20 0)
(0.00158169 -0.000213114 2.99895e-20 -0.000410069 -1.74729e-20 0)
(0.00160586 -0.00022491 -7.79795e-20 -0.000451006 -1.05823e-20 0)
(0.00162918 -0.000234811 -1.78637e-19 -0.000491976 1.78081e-21 0)
(0.00148545 -1.12817e-05 -1.64778e-19 -0.000181989 -3.04356e-21 0)
(0.00148908 -3.52404e-05 1.75721e-19 -0.000190091 2.14613e-20 0)
(0.00149659 -5.69402e-05 1.71929e-20 -0.00020648 1.35153e-20 0)
(0.00150707 -7.92589e-05 1.64038e-19 -0.000229717 1.98079e-20 0)
(0.0015213 -9.82825e-05 -8.17311e-20 -0.00026047 -1.21057e-20 0)
(0.00153751 -0.000117219 1.98576e-19 -0.00029583 4.7738e-20 0)
(0.00155706 -0.000131567 -2.02787e-19 -0.000337291 -5.35656e-20 0)
(0.00157725 -0.000145241 -4.33694e-20 -0.000380319 -2.56253e-20 0)
(0.00160028 -0.000152819 1.59631e-20 -0.000427868 4.21137e-20 0)
(0.00162195 -0.00015921 4.93899e-20 -0.000473162 3.2451e-20 0)
(0.00146498 -4.04745e-06 -8.6161e-20 -0.000109273 -2.55542e-20 -3.82216e-35)
(0.00146901 -1.25412e-05 3.60381e-20 -0.000118706 -1.3827e-21 -8.0473e-36)
(0.00147725 -2.03763e-05 7.70052e-21 -0.000137781 8.93027e-21 1.7147e-38)
(0.00148883 -2.83374e-05 6.2354e-20 -0.000164957 3.54248e-20 -1.33759e-35)
(0.00150438 -3.53336e-05 -8.11067e-20 -0.000200974 -3.40518e-20 -3.48483e-35)
(0.00152209 -4.21313e-05 4.05351e-20 -0.000242612 1.98036e-20 -8.59033e-36)
(0.00154321 -4.75555e-05 -2.2379e-20 -0.000291536 -2.67511e-21 -4.68924e-36)
(0.00156481 -5.2394e-05 -7.86353e-20 -0.000342503 -6.78794e-20 -1.55385e-35)
(0.00158911 -5.53716e-05 0 -0.000398803 0 0)
(0.00161178 -5.73689e-05 6.83621e-20 -0.000452628 6.54237e-20 -1.30066e-35)
(0.00251278 -0.000513486 -3.59121e-19 -0.00156369 -1.27211e-19 0)
(0.0025375 -0.000437848 -6.92144e-19 -0.00153162 -1.6982e-19 0)
(0.00262415 -0.000379557 0 -0.00155815 0 0)
(0.00267222 -0.000322838 1.53938e-19 -0.00154558 -5.72943e-20 0)
(0.00274938 -0.000263407 -9.20401e-19 -0.00155749 -6.03742e-19 0)
(0.00279994 -0.000213659 3.37819e-21 -0.00154822 1.44204e-19 0)
(0.00285608 -0.000161233 8.79407e-19 -0.00154619 4.56868e-19 0)
(0.00290459 -0.000116139 -3.8989e-19 -0.00153563 -3.32882e-19 0)
(0.00294766 -7.37048e-05 -3.65831e-19 -0.0015254 -1.86126e-19 0)
(0.0029897 -3.7588e-05 5.27891e-20 -0.00151066 3.81302e-20 0)
(0.00303014 -3.50197e-06 6.0042e-19 -0.00149895 3.88219e-19 0)
(0.00307063 2.23288e-05 -3.86002e-19 -0.0014835 -3.32678e-19 0)
(0.00311283 4.51513e-05 -2.05289e-19 -0.00147355 -5.17154e-20 0)
(0.00315769 5.86614e-05 2.46697e-19 -0.00146138 8.38813e-20 0)
(0.00320852 6.80823e-05 -4.12618e-20 -0.00145857 -3.17673e-20 0)
(0.0032656 6.74183e-05 -7.52374e-19 -0.00145473 -3.99599e-19 0)
(0.00333433 6.22465e-05 2.31314e-19 -0.00146719 1.90466e-19 0)
(0.00341368 4.65526e-05 1.36758e-18 -0.00147681 7.87458e-19 0)
(0.00351155 2.45706e-05 -6.53994e-20 -0.00151739 -5.05641e-20 0)
(0.00362681 3.57455e-06 -9.95442e-19 -0.00157642 -2.9902e-19 3.53175e-34)
(0.00236325 -0.00053932 -5.6858e-19 -0.00140723 -2.15877e-19 0)
(0.00244121 -0.000521691 -4.57033e-19 -0.00141797 -2.09491e-19 0)
(0.00253531 -0.000454239 9.08325e-19 -0.00143772 4.24818e-19 0)
(0.00259025 -0.00043169 -4.94148e-33 -0.00143915 -3.47532e-33 0)
(0.0026536 -0.000378007 -1.78697e-19 -0.00144303 -1.02136e-20 0)
(0.0027134 -0.000342456 -2.5622e-19 -0.00144385 -2.06794e-19 0)
(0.00276448 -0.000294955 4.14383e-19 -0.00144139 2.12951e-19 0)
(0.00282097 -0.000258984 5.42283e-19 -0.00143923 3.18912e-19 0)
(0.00287427 -0.000222733 -2.12568e-34 -0.00143634 -1.68339e-34 0)
(0.00292119 -0.000184243 -3.94814e-19 -0.00143037 -2.11323e-19 0)
(0.00297156 -0.000151692 -8.26891e-28 -0.00142649 -4.48716e-28 0)
(0.00302219 -0.000121028 1.42689e-19 -0.00142254 1.10787e-19 0)
(0.0030759 -9.48917e-05 -1.45225e-19 -0.00142198 -1.11566e-19 0)
(0.0031336 -7.21112e-05 1.4795e-19 -0.00142235 1.1226e-19 0)
(0.00319684 -5.33555e-05 1.50935e-19 -0.00142991 1.12781e-19 0)
(0.00326691 -3.79238e-05 -3.79185e-33 -0.00143782 -3.10715e-33 0)
(0.00334677 -2.59045e-05 -1.04147e-18 -0.00146047 -6.58478e-19 0)
(0.00343631 -1.55681e-05 3.04106e-33 -0.00147817 1.99939e-33 0)
(0.00354111 -6.94085e-06 1.05045e-18 -0.0015286 6.79196e-19 0)
(0.00366234 1.8569e-07 3.56512e-19 -0.00160413 1.18497e-19 7.00269e-35)
(0.0022066 -0.000700674 -7.71388e-19 -0.00127821 -3.03943e-19 0)
(0.00227992 -0.000667486 -9.70606e-19 -0.00128457 -4.54425e-19 0)
(0.0023594 -0.00061548 -1.11397e-19 -0.00130786 -7.66324e-20 0)
(0.00243555 -0.000570359 -1.85937e-19 -0.0013126 -3.58027e-20 0)
(0.00249523 -0.000526143 2.88973e-19 -0.00132684 1.15713e-19 0)