/*--------------------------------*- C++ -*----------------------------------*\
| =========                 |                                                 |
| \\      /  F ield         | OpenFOAM: The Open Source CFD Toolbox           |
|  \\    /   O peration     | Version:  v2012                                 |
|   \\  /    A nd           | Website:  www.openfoam.com                      |
|    \\/     M anipulation  |                                                 |
\*---------------------------------------------------------------------------*/
FoamFile
{
    version     2.0;
    format      ascii;
    class       pointVectorField;
    location    "10";
    object      pointD;
}
// * * * * * * * * * * * * * * * * * * * * * * * * * * * * * * * * * * * * * //

dimensions      [0 1 0 0 0 0 0];


internalField   nonuniform List<vector> 
2142
(
(0.00408372 0 -3.92012e-21)
(0.00548849 0 5.50545e-21)
(0.0050411 -0.000430637 3.50793e-21)
(0 -0.00309984 -6.84957e-22)
(0 -0.00161907 -1.81364e-20)
(0.00419752 0 0)
(0 -0.00290939 0)
(0.00265218 -0.00083625 0)
(0.00123607 -0.00155841 6.69924e-21)
(0.00531144 -0.000106481 -7.02244e-21)
(0.00315186 -0.00130801 6.26592e-21)
(0.00315186 -0.00130801 6.26592e-21)
(0.00265218 -0.00083625 0)
(0 -0.00290939 0)
(0 -0.00161907 -1.81364e-20)
(0.00408372 0 -3.92012e-21)
(0.00419752 0 0)
(0.00548849 0 5.50545e-21)
(0.00531144 -0.000106481 -7.02244e-21)
(0.0050411 -0.000430637 3.50793e-21)
(0.00123607 -0.00155841 6.69924e-21)
(0 -0.00309984 -6.84957e-22)
(0.000236724 -0.00285327 0)
(0.000483347 -0.0026973 0)
(0.000756923 -0.00247229 0)
(0.00104513 -0.00221774 0)
(0.00132009 -0.00196421 0)
(0.0015811 -0.00172261 0)
(0.00184221 -0.00148838 0)
(0.00210404 -0.00126526 0)
(0.00236679 -0.00105698 0)
(0.00292489 -0.00065555 0)
(0.00316322 -0.000510409 0)
(0.00338502 -0.000388598 0)
(0.00358682 -0.000288477 0)
(0.00376484 -0.000208285 0)
(0.00391608 -0.00014501 0)
(0.0040371 -9.59716e-05 0)
(0.00412565 -5.77622e-05 0)
(0.00417947 -2.70113e-05 0)
(0.00410419 0 0)
(0.00412532 0 0)
(0.00414066 0 0)
(0.00415271 0 0)
(0.00416188 0 0)
(0.00416971 0 0)
(0.00417637 0 0)
(0.0041827 0 0)
(0.0041889 0 0)
(0.00421442 0 0)
(0.0042389 0 0)
(0.00426826 0 0)
(0.00430449 0 0)
(0.00434617 0 0)
(0.00439421 0 0)
(0.00444797 0 0)
(0.0045072 0 0)
(0.00457196 0 0)
(0.00464136 0 0)
(0.00471572 0 0)
(0.00479398 0 0)
(0.00487635 0 0)
(0.0049618 0 0)
(0.00505032 0 0)
(0.00514093 0 0)
(0.00523327 0 0)
(0.00532634 0 0)
(0.00541927 0 0)
(0.00550852 -2.82727e-06 3.13015e-21)
(0.00550109 -6.21434e-06 -2.7523e-21)
(0.00548901 -1.07301e-05 -4.4773e-21)
(0.00547242 -1.68606e-05 1.273e-21)
(0.00545185 -2.5125e-05 2.58753e-21)
(0.00542764 -3.58699e-05 -1.16888e-21)
(0.0054005 -4.95209e-05 6.91824e-21)
(0.00537091 -6.62195e-05 5.41182e-21)
(0.00533968 -8.62747e-05 -4.94802e-21)
(0.0052929 -0.000121017 -5.6459e-21)
(0.00527839 -0.000133214 -1.14448e-21)
(0.00526393 -0.00014596 1.20196e-20)
(0.00524946 -0.000159412 1.01941e-20)
(0.00523529 -0.000174093 -5.81527e-21)
(0.00522208 -0.000189114 -1.62257e-22)
(0.00520859 -0.0002038 6.35453e-21)
(0.00519514 -0.000219473 -5.83491e-21)
(0.00518228 -0.000235822 -6.05536e-21)
(0.00516975 -0.000252456 1.46039e-20)
(0.00515771 -0.000269533 1.43312e-20)
(0.00514611 -0.000286876 -2.86625e-21)
(0.00513499 -0.000304506 -2.60598e-21)
(0.00512432 -0.000322306 -2.38339e-21)
(0.00511411 -0.000340245 6.2613e-22)
(0.0051043 -0.000358217 6.02168e-21)
(0.00509484 -0.000376169 6.02484e-21)
(0.00508565 -0.000393975 3.01269e-21)
(0.00507659 -0.000411548 3.91421e-21)
(0.00494023 -0.000457663 4.32685e-22)
(0.00481339 -0.000484606 -1.48189e-21)
(0.0046856 -0.000507251 -1.16646e-21)
(0.00455454 -0.000525426 3.08775e-21)
(0.00441875 -0.000539611 1.48381e-21)
(0.00427667 -0.000550756 1.37805e-21)
(0.00412704 -0.00056039 1.31118e-21)
(0.00396877 -0.000569865 -6.68693e-23)
(0.0038007 -0.000581249 -1.68985e-21)
(0.00362205 -0.000596376 -1.37795e-21)
(0.00343172 -0.00061783 4.14846e-21)
(0.00322937 -0.000648149 4.14805e-21)
(0.00301418 -0.000690262 3.11492e-22)
(0.00278674 -0.00074704 -1.12019e-21)
(0.00254659 -0.000822045 -1.12019e-21)
(0.00229583 -0.000918315 9.07427e-22)
(0.0020352 -0.00103924 9.07427e-22)
(0.00176716 -0.00118726 -2.78272e-21)
(0.00149337 -0.00136482 4.23919e-21)
(0.0010336 -0.00173721 -1.94933e-21)
(0.000852318 -0.00191766 -1.95832e-21)
(0.000679331 -0.00210811 -1.09211e-24)
(0.000520293 -0.00230661 -4.8219e-21)
(0.000379751 -0.00250463 -3.79213e-21)
(0.000261753 -0.00269444 2.4664e-21)
(0.000169245 -0.00285979 -6.92369e-22)
(9.8062e-05 -0.00298927 -4.3649e-21)
(4.40958e-05 -0.00307205 -2.97094e-21)
(0 -0.00309599 0)
(0 -0.00308972 0)
(0 -0.00308244 0)
(0 -0.00307447 0)
(0 -0.00306581 0)
(0 -0.00305671 0)
(0 -0.00304716 0)
(0 -0.00303735 0)
(0 -0.00302727 0)
(0 -0.00301707 0)
(0 -0.00300671 0)
(0 -0.00299633 0)
(0 -0.00298587 0)
(0 -0.00297546 0)
(0 -0.002965 0)
(0 -0.00295463 0)
(0 -0.00294417 0)
(0 -0.00293369 0)
(0 -0.00292288 0)
(0 -0.00288609 0)
(0 -0.00284919 0)
(0 -0.00279294 0)
(0 -0.00271318 0)
(0 -0.00260208 0)
(0 -0.00245755 0)
(0 -0.0022764 0)
(0 -0.0020619 0)
(0 -0.00181791 0)
(0.00284709 -0.000648503 0)
(0.0030126 -0.000506479 0)
(0.00316992 -0.000398823 0)
(0.00331762 -0.000318267 0)
(0.00345829 -0.000262031 0)
(0.00359297 -0.000223062 0)
(0.00372355 -0.000199129 0)
(0.00385087 -0.000185457 0)
(0.00397625 -0.000180247 0)
(0.00410013 -0.000180188 0)
(0.00422328 -0.000183885 0)
(0.0043458 -0.000188878 0)
(0.00446802 -0.000194064 0)
(0.00459 -0.000197598 0)
(0.00471173 -0.000198438 0)
(0.00483295 -0.000194864 0)
(0.0049537 -0.000185899 0)
(0.0050737 -0.000169412 0)
(0.00519308 -0.000144125 0)
(0.00253526 -0.000889029 0)
(0.00245617 -0.000924622 0)
(0.00237841 -0.00096091 0)
(0.00230312 -0.000996937 0)
(0.00222949 -0.00103339 0)
(0.0021578 -0.00106959 0)
(0.00208774 -0.00110588 0)
(0.00201926 -0.00114188 0)
(0.00195212 -0.00117773 0)
(0.00188618 -0.00121321 0)
(0.00182124 -0.00124843 0)
(0.00175706 -0.00128326 0)
(0.00169339 -0.00131781 0)
(0.00162993 -0.001352 0)
(0.00156641 -0.00138604 0)
(0.00150244 -0.00141989 0)
(0.00143774 -0.00145389 0)
(0.00137191 -0.00148804 0)
(0.00130453 -0.00152288 0)
(0.000529656 -0.00158935 -1.85193e-20)
(0.00103707 -0.00170533 -3.10598e-20)
(0.00148757 -0.0018603 -3.15641e-20)
(0.00184616 -0.00196582 -2.08819e-21)
(0.00211635 -0.00195225 7.98055e-22)
(0.00234164 -0.00184991 -1.21432e-20)
(0.00255912 -0.00172003 -1.62133e-20)
(0.00276881 -0.00158485 1.01408e-20)
(0.00296715 -0.00144678 1.81035e-20)
(0.00332208 -0.00117084 -2.26281e-22)
(0.00347728 -0.00103387 -5.55317e-21)
(0.00361508 -0.00089921 -5.56687e-22)
(0.00373631 -0.000766071 -1.65757e-21)
(0.00383911 -0.000635028 -5.01928e-21)
(0.0039241 -0.000505703 -8.87728e-23)
(0.00399026 -0.000377902 -5.48185e-21)
(0.00403787 -0.000251276 -7.67971e-22)
(0.00406638 -0.000125437 -7.94924e-22)
(0.00305485 -0.00122233 0)
(0.0029735 -0.00115161 0)
(0.00290426 -0.00109226 0)
(0.00284559 -0.00104223 0)
(0.00279516 -0.000999396 0)
(0.0027525 -0.000962771 0)
(0.00271562 -0.000930824 0)
(0.00268487 -0.00090317 0)
(0.00265809 -0.000878668 0)
(0.00305485 -0.00122233 0)
(0.0029735 -0.00115161 0)
(0.00290426 -0.00109226 0)
(0.00284559 -0.00104223 0)
(0.00279516 -0.000999396 0)
(0.0027525 -0.000962771 0)
(0.00271562 -0.000930824 0)
(0.00268487 -0.00090317 0)
(0.00265809 -0.000878668 0)
(0.00236679 -0.00105698 0)
(0.00210404 -0.00126526 0)
(0.00184221 -0.00148838 0)
(0.0015811 -0.00172261 0)
(0.00132009 -0.00196421 0)
(0.00104513 -0.00221774 0)
(0.000756923 -0.00247229 0)
(0.000483347 -0.0026973 0)
(0.000236724 -0.00285327 0)
(0 -0.00288609 0)
(0 -0.00284919 0)
(0 -0.00279294 0)
(0 -0.00271318 0)
(0 -0.00260208 0)
(0 -0.00245755 0)
(0 -0.0022764 0)
(0 -0.0020619 0)
(0 -0.00181791 0)
(0.000529656 -0.00158935 -1.85193e-20)
(0.00103707 -0.00170533 -3.10598e-20)
(0.00148757 -0.0018603 -3.15641e-20)
(0.00184616 -0.00196582 -2.08819e-21)
(0.00211635 -0.00195225 7.98055e-22)
(0.00234164 -0.00184991 -1.21432e-20)
(0.00255912 -0.00172003 -1.62133e-20)
(0.00276881 -0.00158485 1.01408e-20)
(0.00296715 -0.00144678 1.81035e-20)
(0.00332208 -0.00117084 -2.26281e-22)
(0.00347728 -0.00103387 -5.55317e-21)
(0.00361508 -0.00089921 -5.56687e-22)
(0.00373631 -0.000766071 -1.65757e-21)
(0.00383911 -0.000635028 -5.01928e-21)
(0.0039241 -0.000505703 -8.87728e-23)
(0.00399026 -0.000377902 -5.48185e-21)
(0.00403787 -0.000251276 -7.67971e-22)
(0.00406638 -0.000125437 -7.94924e-22)
(0.00410419 0 0)
(0.00412532 0 0)
(0.00414066 0 0)
(0.00415271 0 0)
(0.00416188 0 0)
(0.00416971 0 0)
(0.00417637 0 0)
(0.0041827 0 0)
(0.0041889 0 0)
(0.00417947 -2.70113e-05 0)
(0.00412565 -5.77622e-05 0)
(0.0040371 -9.59716e-05 0)
(0.00391608 -0.00014501 0)
(0.00376484 -0.000208285 0)
(0.00358682 -0.000288477 0)
(0.00338502 -0.000388598 0)
(0.00316322 -0.000510409 0)
(0.00292489 -0.00065555 0)
(0.00421442 0 0)
(0.0042389 0 0)
(0.00426826 0 0)
(0.00430449 0 0)
(0.00434617 0 0)
(0.00439421 0 0)
(0.00444797 0 0)
(0.0045072 0 0)
(0.00457196 0 0)
(0.00464136 0 0)
(0.00471572 0 0)
(0.00479398 0 0)
(0.00487635 0 0)
(0.0049618 0 0)
(0.00505032 0 0)
(0.00514093 0 0)
(0.00523327 0 0)
(0.00532634 0 0)
(0.00541927 0 0)
(0.00550852 -2.82727e-06 3.13015e-21)
(0.00550109 -6.21434e-06 -2.7523e-21)
(0.00548901 -1.07301e-05 -4.4773e-21)
(0.00547242 -1.68606e-05 1.273e-21)
(0.00545185 -2.5125e-05 2.58753e-21)
(0.00542764 -3.58699e-05 -1.16888e-21)
(0.0054005 -4.95209e-05 6.91824e-21)
(0.00537091 -6.62195e-05 5.41182e-21)
(0.00533968 -8.62747e-05 -4.94802e-21)
(0.00519308 -0.000144125 0)
(0.0050737 -0.000169412 0)
(0.0049537 -0.000185899 0)
(0.00483295 -0.000194864 0)
(0.00471173 -0.000198438 0)
(0.00459 -0.000197598 0)
(0.00446802 -0.000194064 0)
(0.0043458 -0.000188878 0)
(0.00422328 -0.000183885 0)
(0.00410013 -0.000180188 0)
(0.00397625 -0.000180247 0)
(0.00385087 -0.000185457 0)
(0.00372355 -0.000199129 0)
(0.00359297 -0.000223062 0)
(0.00345829 -0.000262031 0)
(0.00331762 -0.000318267 0)
(0.00316992 -0.000398823 0)
(0.0030126 -0.000506479 0)
(0.00284709 -0.000648503 0)
(0.0052929 -0.000121017 -5.6459e-21)
(0.00527839 -0.000133214 -1.14448e-21)
(0.00526393 -0.00014596 1.20196e-20)
(0.00524946 -0.000159412 1.01941e-20)
(0.00523529 -0.000174093 -5.81527e-21)
(0.00522208 -0.000189114 -1.62257e-22)
(0.00520859 -0.0002038 6.35453e-21)
(0.00519514 -0.000219473 -5.83491e-21)
(0.00518228 -0.000235822 -6.05536e-21)
(0.00516975 -0.000252456 1.46039e-20)
(0.00515771 -0.000269533 1.43312e-20)
(0.00514611 -0.000286876 -2.86625e-21)
(0.00513499 -0.000304506 -2.60598e-21)
(0.00512432 -0.000322306 -2.38339e-21)
(0.00511411 -0.000340245 6.2613e-22)
(0.0051043 -0.000358217 6.02168e-21)
(0.00509484 -0.000376169 6.02484e-21)
(0.00508565 -0.000393975 3.01269e-21)
(0.00507659 -0.000411548 3.91421e-21)
(0.00494023 -0.000457663 4.32685e-22)
(0.00481339 -0.000484606 -1.48189e-21)
(0.0046856 -0.000507251 -1.16646e-21)
(0.00455454 -0.000525426 3.08775e-21)
(0.00441875 -0.000539611 1.48381e-21)
(0.00427667 -0.000550756 1.37805e-21)
(0.00412704 -0.00056039 1.31118e-21)
(0.00396877 -0.000569865 -6.68693e-23)
(0.0038007 -0.000581249 -1.68985e-21)
(0.00362205 -0.000596376 -1.37795e-21)
(0.00343172 -0.00061783 4.14846e-21)
(0.00322937 -0.000648149 4.14805e-21)
(0.00301418 -0.000690262 3.11492e-22)
(0.00278674 -0.00074704 -1.12019e-21)
(0.00254659 -0.000822045 -1.12019e-21)
(0.00229583 -0.000918315 9.07427e-22)
(0.0020352 -0.00103924 9.07427e-22)
(0.00176716 -0.00118726 -2.78272e-21)
(0.00149337 -0.00136482 4.23919e-21)
(0.00130453 -0.00152288 0)
(0.00137191 -0.00148804 0)
(0.00143774 -0.00145389 0)
(0.00150244 -0.00141989 0)
(0.00156641 -0.00138604 0)
(0.00162993 -0.001352 0)
(0.00169339 -0.00131781 0)
(0.00175706 -0.00128326 0)
(0.00182124 -0.00124843 0)
(0.00188618 -0.00121321 0)
(0.00195212 -0.00117773 0)
(0.00201926 -0.00114188 0)
(0.00208774 -0.00110588 0)
(0.0021578 -0.00106959 0)
(0.00222949 -0.00103339 0)
(0.00230312 -0.000996937 0)
(0.00237841 -0.00096091 0)
(0.00245617 -0.000924622 0)
(0.00253526 -0.000889029 0)
(0.0010336 -0.00173721 -1.94933e-21)
(0.000852318 -0.00191766 -1.95832e-21)
(0.000679331 -0.00210811 -1.09211e-24)
(0.000520293 -0.00230661 -4.8219e-21)
(0.000379751 -0.00250463 -3.79213e-21)
(0.000261753 -0.00269444 2.4664e-21)
(0.000169245 -0.00285979 -6.92369e-22)
(9.8062e-05 -0.00298927 -4.3649e-21)
(4.40958e-05 -0.00307205 -2.97094e-21)
(0 -0.00309599 0)
(0 -0.00308972 0)
(0 -0.00308244 0)
(0 -0.00307447 0)
(0 -0.00306581 0)
(0 -0.00305671 0)
(0 -0.00304716 0)
(0 -0.00303735 0)
(0 -0.00302727 0)
(0 -0.00301707 0)
(0 -0.00300671 0)
(0 -0.00299633 0)
(0 -0.00298587 0)
(0 -0.00297546 0)
(0 -0.002965 0)
(0 -0.00295463 0)
(0 -0.00294417 0)
(0 -0.00293369 0)
(0 -0.00292288 0)
(0.000525879 -0.00185209 0)
(0.000515642 -0.00208657 0)
(0.000492999 -0.00228647 0)
(0.000458449 -0.00245104 0)
(0.00041703 -0.00257913 0)
(0.000372454 -0.00267628 0)
(0.000329455 -0.00274562 0)
(0.000290718 -0.00279525 0)
(0.000258665 -0.00282946 0)
(0.00102087 -0.00194265 0)
(0.000990378 -0.00214052 0)
(0.000938361 -0.00229256 0)
(0.000869068 -0.00240882 0)
(0.000791494 -0.00249342 0)
(0.000711797 -0.0025567 0)
(0.000637121 -0.00260305 0)
(0.000572058 -0.0026401 0)
(0.000519919 -0.0026708 0)
(0.00144162 -0.00203637 0)
(0.00137721 -0.0021628 0)
(0.00129312 -0.00224138 0)
(0.00119908 -0.00229544 0)
(0.00110304 -0.00233142 0)
(0.00101083 -0.00236152 0)
(0.000927425 -0.00238796 0)
(0.000856883 -0.00241589 0)
(0.000800288 -0.0024442 0)
(0.00175847 -0.00205287 0)
(0.00165975 -0.00209767 0)
(0.00155657 -0.00211426 0)
(0.00145725 -0.0021253 0)
(0.00136444 -0.00213226 0)
(0.00128088 -0.00214331 0)
(0.00120707 -0.00215692 0)
(0.00114441 -0.00217585 0)
(0.00109114 -0.0021958 0)
(0.00199887 -0.00196379 0)
(0.0018849 -0.00195835 0)
(0.00178127 -0.00194855 0)
(0.00168872 -0.00194251 0)
(0.00160578 -0.00193805 0)
(0.00153332 -0.00193828 0)
(0.00146975 -0.00194077 0)
(0.00141455 -0.00194693 0)
(0.00136539 -0.0019532 0)
(0.0022159 -0.00182387 0)
(0.00210398 -0.00179919 0)
(0.00200593 -0.00177854 0)
(0.00192001 -0.00176201 0)
(0.00184369 -0.00174826 0)
(0.00177739 -0.00173837 0)
(0.00171935 -0.0017304 0)
(0.00166879 -0.00172497 0)
(0.00162392 -0.00172006 0)
(0.00243375 -0.00167515 0)
(0.00232665 -0.00163688 0)
(0.00223386 -0.00160414 0)
(0.00215348 -0.00157675 0)
(0.00208323 -0.00155333 0)
(0.00202238 -0.00153429 0)
(0.00196925 -0.0015177 0)
(0.00192314 -0.00150403 0)
(0.00188267 -0.00149144 0)
(0.00264842 -0.0015233 0)
(0.00254714 -0.00147196 0)
(0.00246083 -0.00142846 0)
(0.00238687 -0.00139196 0)
(0.00232291 -0.00136048 0)
(0.00226784 -0.00133402 0)
(0.00222004 -0.00131059 0)
(0.0021787 -0.00129061 0)
(0.00214266 -0.00127219 0)
(0.00285682 -0.00137146 0)
(0.00276436 -0.00130927 0)
(0.0026858 -0.00125677 0)
(0.00261894 -0.00121258 0)
(0.00256149 -0.00117447 0)
(0.00251238 -0.00114205 0)
(0.00247006 -0.00111343 0)
(0.00243384 -0.00108877 0)
(0.00240259 -0.00106641 0)
(0.00324064 -0.00107829 0)
(0.00317217 -0.00100203 0)
(0.00311344 -0.00093825 0)
(0.00306387 -0.000884575 0)
(0.00302094 -0.000838814 0)
(0.00298507 -0.000799737 0)
(0.00295369 -0.000765787 0)
(0.00292824 -0.000736445 0)
(0.00290554 -0.000710397 0)
(0.0034129 -0.000938433 0)
(0.00335845 -0.000859846 0)
(0.00331124 -0.00079418 0)
(0.00327147 -0.000738988 0)
(0.00323677 -0.00069194 0)
(0.0032081 -0.000651873 0)
(0.00318284 -0.000616925 0)
(0.00316282 -0.00058689 0)
(0.00314476 -0.000559804 0)
(0.00356832 -0.000804945 0)
(0.00352831 -0.000727293 0)
(0.00349288 -0.000662403 0)
(0.00346304 -0.000607903 0)
(0.00343662 -0.000561463 0)
(0.00341508 -0.000522003 0)
(0.00339593 -0.000487592 0)
(0.00338121 -0.000458188 0)
(0.00336788 -0.00043168 0)
(0.00370673 -0.000676818 0)
(0.00368076 -0.000603336 0)
(0.00365688 -0.000541888 0)
(0.00363665 -0.000490379 0)
(0.00361829 -0.000446474 0)
(0.00360351 -0.000409318 0)
(0.00359019 -0.000376923 0)
(0.00358034 -0.000349443 0)
(0.00357144 -0.000324745 0)
(0.00382561 -0.000554497 0)
(0.00381277 -0.000488203 0)
(0.00379974 -0.000432717 0)
(0.00378848 -0.000386277 0)
(0.00377772 -0.00034669 0)
(0.00376923 -0.000313315 0)
(0.00376141 -0.00028424 0)
(0.00375606 -0.000259753 0)
(0.00375132 -0.000237805 0)
(0.00392474 -0.000437058 0)
(0.00392343 -0.000380588 0)
(0.00391998 -0.000333285 0)
(0.00391661 -0.000293765 0)
(0.00391257 -0.000260073 0)
(0.00390959 -0.000231764 0)
(0.00390664 -0.000207129 0)
(0.00390524 -0.000186499 0)
(0.00390418 -0.000168069 0)
(0.00400259 -0.000323919 0)
(0.00401081 -0.000279532 0)
(0.00401531 -0.000242326 0)
(0.00401848 -0.000211284 0)
(0.00402002 -0.000184816 0)
(0.00402161 -0.000162637 0)
(0.00402271 -0.000143347 0)
(0.00402457 -0.000127264 0)
(0.00402657 -0.000112921 0)
(0.00405889 -0.000214051 0)
(0.00407418 -0.00018346 0)
(0.00408461 -0.000157807 0)
(0.00409264 -0.000136426 0)
(0.00409835 -0.000118195 0)
(0.00410336 -0.000102949 0)
(0.0041075 -8.96976e-05 0)
(0.0041118 -7.86833e-05 0)
(0.0041161 -6.88768e-05 0)
(0.00409277 -0.000106456 0)
(0.00411243 -9.08631e-05 0)
(0.00412654 -7.77832e-05 0)
(0.00413757 -6.68888e-05 0)
(0.00414587 -5.75989e-05 0)
(0.00415299 -4.98383e-05 0)
(0.004159 -4.30941e-05 0)
(0.00416482 -3.74984e-05 0)
(0.00417054 -3.25184e-05 0)
(0.004198 -1.98846e-05 0)
(0.00414915 -4.29778e-05 0)
(0.00406862 -7.24013e-05 0)
(0.0039584 -0.000111129 0)
(0.00382029 -0.000161789 0)
(0.00365739 -0.00022702 0)
(0.00347237 -0.000308354 0)
(0.00326849 -0.000409101 0)
(0.00304963 -0.000528015 0)
(0.00422441 -1.37405e-05 0)
(0.00418123 -3.01297e-05 0)
(0.00410988 -5.16222e-05 0)
(0.00401203 -8.0927e-05 0)
(0.003889 -0.000119908 0)
(0.0037432 -0.000171471 0)
(0.00357692 -0.000235854 0)
(0.00339259 -0.00031696 0)
(0.00319459 -0.000411679 0)
(0.00425543 -1.05589e-05 0)
(0.00421715 -2.31915e-05 0)
(0.0041539 -3.96143e-05 0)
(0.00406707 -6.2214e-05 0)
(0.00395789 -9.20096e-05 0)
(0.00382814 -0.000132081 0)
(0.00367997 -0.000182054 0)
(0.00351449 -0.000246352 0)
(0.00333545 -0.000322292 0)
(0.00429307 -8.75349e-06 0)
(0.0042588 -1.9226e-05 0)
(0.00420217 -3.26532e-05 0)
(0.00412426 -5.11683e-05 0)
(0.00402627 -7.51924e-05 0)
(0.00390952 -0.000107461 0)
(0.00377632 -0.000147185 0)
(0.00362747 -0.000197926 0)
(0.00346637 -0.000258079 0)
(0.004336 -8.01569e-06 0)
(0.00430535 -1.73914e-05 0)
(0.00425479 -2.89741e-05 0)
(0.0041851 -4.46186e-05 0)
(0.00409748 -6.44957e-05 0)
(0.00399276 -9.10014e-05 0)
(0.00387306 -0.000123505 0)
(0.00373882 -0.000164628 0)
(0.00359295 -0.000213409 0)
(0.0043851 -8.22258e-06 0)
(0.00435734 -1.75378e-05 0)
(0.00431165 -2.85507e-05 0)
(0.00424858 -4.27633e-05 0)
(0.00416944 -6.02134e-05 0)
(0.00407486 -8.27264e-05 0)
(0.0039669 -0.000109925 0)
(0.00384597 -0.000143614 0)
(0.00371443 -0.000183546 0)
(0.00443979 -8.77038e-06 0)
(0.00441473 -1.8417e-05 0)
(0.00437357 -2.94151e-05 0)
(0.00431663 -4.297e-05 0)
(0.0042452 -5.91515e-05 0)
(0.00415969 -7.93011e-05 0)
(0.004062 -0.000103257 0)
(0.00395253 -0.000132109 0)
(0.00383341 -0.000165889 0)
(0.00449982 -9.8279e-06 0)
(0.00447697 -2.03429e-05 0)
(0.00443953 -3.19334e-05 0)
(0.00438774 -4.55021e-05 0)
(0.00432288 -6.11758e-05 0)
(0.00424535 -7.98796e-05 0)
(0.00415686 -0.00010168 0)
(0.00405785 -0.000127217 0)
(0.00395015 -0.000156732 0)
(0.00456526 -1.0952e-05 0)
(0.00454448 -2.24671e-05 0)
(0.00451047 -3.49056e-05 0)
(0.00446338 -4.89472e-05 0)
(0.00440442 -6.47802e-05 0)
(0.00433394 -8.30119e-05 0)
(0.00425353 -0.000103801 0)
(0.00416366 -0.000127482 0)
(0.00406605 -0.000154325 0)
(0.00463528 -1.22181e-05 0)
(0.00461627 -2.48901e-05 0)
(0.0045852 -3.83492e-05 0)
(0.00454222 -5.3098e-05 0)
(0.00448848 -6.93769e-05 0)
(0.00442434 -8.75881e-05 0)
(0.00435127 -0.000107973 0)
(0.00426973 -0.000130684 0)
(0.00418132 -0.000156021 0)
(0.00471017 -1.33872e-05 0)
(0.00469279 -2.71678e-05 0)
(0.0046644 -4.16704e-05 0)
(0.00462514 -5.72799e-05 0)
(0.00457606 -7.42648e-05 0)
(0.00451758 -9.28824e-05 0)
(0.00445101 -0.000113396 0)
(0.00437688 -0.000135852 0)
(0.00429673 -0.000160524 0)
(0.0047889 -1.44201e-05 0)
(0.00477297 -2.91874e-05 0)
(0.00474697 -4.46216e-05 0)
(0.00471106 -6.10374e-05 0)
(0.00466622 -7.87159e-05 0)
(0.00461286 -9.78546e-05 0)
(0.00455225 -0.000118707 0)
(0.00448488 -0.000141299 0)
(0.00441223 -0.000165852 0)
(0.00487169 -1.51952e-05 0)
(0.00485709 -3.07215e-05 0)
(0.00483326 -4.68955e-05 0)
(0.00480037 -6.40021e-05 0)
(0.00475935 -8.23127e-05 0)
(0.00471061 -0.000102004 0)
(0.00465532 -0.000123297 0)
(0.00459404 -0.000146226 0)
(0.00452806 -0.000170971 0)
(0.00495754 -1.56019e-05 0)
(0.00494414 -3.15298e-05 0)
(0.0049223 -4.81066e-05 0)
(0.00489219 -6.56035e-05 0)
(0.00485466 -8.43007e-05 0)
(0.00481016 -0.000104361 0)
(0.00475977 -0.000126005 0)
(0.00470407 -0.000149258 0)
(0.00464426 -0.000174288 0)
(0.00504641 -1.55626e-05 0)
(0.00503413 -3.14633e-05 0)
(0.00501411 -4.80384e-05 0)
(0.00498654 -6.55653e-05 0)
(0.00495221 -8.43301e-05 0)
(0.00491156 -0.000104499 0)
(0.00486561 -0.000126285 0)
(0.00481496 -0.000149719 0)
(0.00476076 -0.000174952 0)
(0.00513735 -1.49006e-05 0)
(0.00512611 -3.0162e-05 0)
(0.0051078 -4.61457e-05 0)
(0.00508259 -6.31471e-05 0)
(0.00505124 -8.14718e-05 0)
(0.00501417 -0.000101299 0)
(0.00497234 -0.000122846 0)
(0.00492634 -0.000146157 0)
(0.00487725 -0.000171356 0)
(0.00522999 -1.35375e-05 0)
(0.00521973 -2.74701e-05 0)
(0.00520303 -4.21931e-05 0)
(0.00518005 -5.80322e-05 0)
(0.00515149 -7.53187e-05 0)
(0.00511775 -9.42569e-05 0)
(0.00507974 -0.000115072 0)
(0.00503804 -0.000137829 0)
(0.00499366 -0.000162632 0)
(0.00532336 -1.11987e-05 0)
(0.00531405 -2.28373e-05 0)
(0.00529891 -3.5359e-05 0)
(0.00527807 -4.91288e-05 0)
(0.00525219 -6.45274e-05 0)
(0.00522165 -8.17853e-05 0)
(0.00518728 -0.000101178 0)
(0.00514963 -0.000122765 0)
(0.00510965 -0.000146709 0)
(0.00541657 -7.77043e-06 0)
(0.00540822 -1.60342e-05 0)
(0.00539462 -2.52934e-05 0)
(0.00537591 -3.59622e-05 0)
(0.00535269 -4.84879e-05 0)
(0.0053253 -6.31402e-05 0)
(0.00529452 -8.02681e-05 0)
(0.00526085 -9.99441e-05 0)
(0.00522517 -0.000122405 0)
(0.00273581 -0.00070627 0)
(0.00265943 -0.000740598 0)
(0.0025843 -0.000775812 0)
(0.00251141 -0.000810599 0)
(0.00244044 -0.000845597 0)
(0.00237079 -0.000880516 0)
(0.00230281 -0.000915401 0)
(0.00223608 -0.000950153 0)
(0.00217058 -0.000984768 0)
(0.00210626 -0.00101915 0)
(0.00204298 -0.00105337 0)
(0.00198058 -0.00108737 0)
(0.00191892 -0.00112126 0)
(0.0018578 -0.00115502 0)
(0.00179708 -0.00118886 0)
(0.00173655 -0.00122276 0)
(0.00167607 -0.00125708 0)
(0.00161545 -0.00129174 0)
(0.00155451 -0.00132748 0)
(0.00291246 -0.000557038 0)
(0.00284184 -0.00058877 0)
(0.00277219 -0.000621321 0)
(0.00270408 -0.000653632 0)
(0.00263763 -0.000686155 0)
(0.00257205 -0.000718673 0)
(0.00250803 -0.000751314 0)
(0.00244533 -0.000783813 0)
(0.00238351 -0.000816487 0)
(0.00232277 -0.000849066 0)
(0.00226321 -0.000881717 0)
(0.00220464 -0.000914334 0)
(0.00214707 -0.000947079 0)
(0.0020904 -0.000979898 0)
(0.00203457 -0.00101301 0)
(0.00197955 -0.00104637 0)
(0.00192529 -0.00108032 0)
(0.00187181 -0.00111475 0)
(0.00181917 -0.00115028 0)
(0.0030774 -0.000442271 0)
(0.0030123 -0.000470879 0)
(0.00294837 -0.000500162 0)
(0.00288524 -0.000529606 0)
(0.00282331 -0.000559527 0)
(0.00276232 -0.000589508 0)
(0.00270254 -0.000619891 0)
(0.00264422 -0.000650205 0)
(0.00258688 -0.000680913 0)
(0.00253051 -0.000711672 0)
(0.00247543 -0.000742737 0)
(0.00242144 -0.000773902 0)
(0.00236868 -0.000805413 0)
(0.00231709 -0.000837126 0)
(0.00226672 -0.000869302 0)
(0.00221762 -0.000901841 0)
(0.00216982 -0.000935043 0)
(0.00212344 -0.00096882 0)
(0.0020786 -0.00100355 0)
(0.00323399 -0.000355573 0)
(0.00317489 -0.000381166 0)
(0.00311654 -0.000407561 0)
(0.00305879 -0.000434242 0)
(0.00300196 -0.000461569 0)
(0.00294595 -0.000489124 0)
(0.00289093 -0.000517223 0)
(0.002837 -0.000545521 0)
(0.00278429 -0.000574258 0)
(0.00273263 -0.000603207 0)
(0.00268224 -0.000632603 0)
(0.00263309 -0.000662239 0)
(0.00258531 -0.000692361 0)
(0.00253893 -0.000722803 0)
(0.00249405 -0.000753817 0)
(0.00245076 -0.000785274 0)
(0.00240915 -0.000817439 0)
(0.00236938 -0.000850211 0)
(0.00233155 -0.000883868 0)
(0.00338239 -0.000293718 0)
(0.00332883 -0.000316629 0)
(0.00327582 -0.000340372 0)
(0.00322326 -0.00036454 0)
(0.00317147 -0.000389434 0)
(0.00312041 -0.000414696 0)
(0.0030703 -0.000440598 0)
(0.00302118 -0.00046685 0)
(0.00297316 -0.000493664 0)
(0.0029263 -0.000520816 0)
(0.00288074 -0.000548522 0)
(0.00283653 -0.000576589 0)
(0.00279381 -0.000605229 0)
(0.00275267 -0.000634285 0)
(0.00271324 -0.000663968 0)
(0.00267563 -0.000694152 0)
(0.00263999 -0.000725056 0)
(0.0026065 -0.000756572 0)
(0.00257528 -0.000788937 0)
(0.00352466 -0.00025059 0)
(0.00347655 -0.000271268 0)
(0.00342877 -0.000292792 0)
(0.00338137 -0.000314843 0)
(0.00333458 -0.000337665 0)
(0.00328845 -0.000360962 0)
(0.00324316 -0.00038496 0)
(0.0031988 -0.000409405 0)
(0.00315552 -0.000434491 0)
(0.0031134 -0.000460018 0)
(0.0030726 -0.00048616 0)
(0.00303321 -0.000512752 0)
(0.00299538 -0.00053996 0)
(0.00295923 -0.000567647 0)
(0.00292491 -0.000595979 0)
(0.00289259 -0.000624835 0)
(0.0028624 -0.000654391 0)
(0.00283459 -0.000684533 0)
(0.00280927 -0.000715455 0)
(0.00366195 -0.000223217 0)
(0.0036188 -0.000242106 0)
(0.00357583 -0.000261817 0)
(0.00353323 -0.000282119 0)
(0.00349113 -0.000303189 0)
(0.00344966 -0.000324812 0)
(0.00340897 -0.00034715 0)
(0.00336918 -0.000370013 0)
(0.00333043 -0.000393548 0)
(0.00329285 -0.000417589 0)
(0.00325657 -0.000442277 0)
(0.00322174 -0.000467465 0)
(0.0031885 -0.000493288 0)
(0.003157 -0.000519618 0)
(0.0031274 -0.000546587 0)
(0.00309987 -0.000574079 0)
(0.00307457 -0.000602224 0)
(0.00305174 -0.000630921 0)
(0.00303151 -0.000660304 0)
(0.0037956 -0.000207183 0)
(0.00375705 -0.000224694 0)
(0.00371858 -0.000242991 0)
(0.00368047 -0.000261916 0)
(0.00364278 -0.000281588 0)
(0.00360569 -0.000301854 0)
(0.00356932 -0.000322828 0)
(0.00353381 -0.000344367 0)
(0.00349931 -0.000366578 0)
(0.00346594 -0.000389332 0)
(0.00343387 -0.000412726 0)
(0.00340322 -0.000436649 0)
(0.00337416 -0.000461187 0)
(0.00334684 -0.000486244 0)
(0.00332142 -0.000511896 0)
(0.00329807 -0.000538063 0)
(0.00327699 -0.000564806 0)
(0.00325848 -0.000592003 0)
(0.0032425 -0.00061983 0)
(0.00392654 -0.000200173 0)
(0.00389208 -0.000216645 0)
(0.00385764 -0.000233855 0)
(0.00382357 -0.000251696 0)
(0.00378985 -0.000270247 0)
(0.00375672 -0.000289404 0)
(0.00372425 -0.000309238 0)
(0.00369263 -0.000329653 0)
(0.00366197 -0.000350712 0)
(0.00363241 -0.000372327 0)
(0.00360411 -0.000394553 0)
(0.0035772 -0.00041731 0)
(0.00355184 -0.000440644 0)
(0.00352818 -0.000464486 0)
(0.00350639 -0.000488872 0)
(0.00348662 -0.000513737 0)
(0.00346908 -0.000539116 0)
(0.00345406 -0.000564871 0)
(0.00344149 -0.000591155 0)
(0.0040555 -0.000198982 0)
(0.0040247 -0.000214695 0)
(0.00399389 -0.000231086 0)
(0.00396344 -0.000248095 0)
(0.00393329 -0.00026577 0)
(0.00390372 -0.00028404 0)
(0.00387476 -0.000302952 0)
(0.00384661 -0.000322432 0)
(0.00381936 -0.000342525 0)
(0.00379318 -0.000363158 0)
(0.00376818 -0.000384368 0)
(0.00374453 -0.000406084 0)
(0.00372236 -0.000428339 0)
(0.00370182 -0.000451061 0)
(0.00368308 -0.00047428 0)
(0.00366629 -0.000497915 0)
(0.0036516 -0.000522002 0)
(0.00363924 -0.000546441 0)
(0.0036293 -0.000571265 0)
(0.00418314 -0.000201875 0)
(0.00415551 -0.000217016 0)
(0.00412781 -0.000232782 0)
(0.00410051 -0.000249137 0)
(0.00407346 -0.000266109 0)
(0.00404698 -0.000283651 0)
(0.00402107 -0.00030179 0)
(0.00399593 -0.000320476 0)
(0.00397163 -0.00033973 0)
(0.00394834 -0.000359498 0)
(0.00392617 -0.000379799 0)
(0.00390527 -0.000400575 0)
(0.00388576 -0.000421839 0)
(0.0038678 -0.000443529 0)
(0.00385151 -0.000465655 0)
(0.00383707 -0.000488145 0)
(0.00382459 -0.000511006 0)
(0.00381428 -0.000534158 0)
(0.00380624 -0.0005576 0)
(0.00430961 -0.000206407 0)
(0.00428477 -0.000221144 0)
(0.00425982 -0.00023642 0)
(0.00423523 -0.000252227 0)
(0.00421088 -0.000268624 0)
(0.00418707 -0.000285554 0)
(0.00416378 -0.00030304 0)
(0.00414122 -0.000321041 0)
(0.00411943 -0.000339566 0)
(0.0040986 -0.000358573 0)
(0.00407878 -0.000378066 0)
(0.00406016 -0.000397998 0)
(0.00404281 -0.000418366 0)
(0.0040269 -0.000439118 0)
(0.00401253 -0.000460244 0)
(0.00399985 -0.000481685 0)
(0.00398898 -0.000503422 0)
(0.0039801 -0.000525391 0)
(0.00397329 -0.000547562 0)
(0.00443513 -0.00021126 0)
(0.0044126 -0.000225632 0)
(0.00439005 -0.000240494 0)
(0.00436776 -0.000255849 0)
(0.00434574 -0.000271751 0)
(0.00432418 -0.000288147 0)
(0.00430311 -0.000305058 0)
(0.0042827 -0.000322448 0)
(0.004263 -0.000340319 0)
(0.00424418 -0.000358636 0)
(0.00422629 -0.000377395 0)
(0.00420948 -0.000396556 0)
(0.00419384 -0.000416105 0)
(0.0041795 -0.000435997 0)
(0.00416654 -0.000456209 0)
(0.00415512 -0.000476686 0)
(0.00414532 -0.000497399 0)
(0.00413731 -0.000518289 0)
(0.00413115 -0.000539306 0)
(0.00456011 -0.000214559 0)
(0.00453947 -0.000228554 0)
(0.00451887 -0.000243036 0)
(0.00449851 -0.000257995 0)
(0.0044784 -0.000273442 0)
(0.0044587 -0.000289353 0)
(0.00443946 -0.000305736 0)
(0.00442082 -0.000322565 0)
(0.00440282 -0.000339835 0)
(0.00438561 -0.00035752 0)
(0.00436925 -0.000375609 0)
(0.00435387 -0.000394068 0)
(0.00433951 -0.000412875 0)
(0.00432632 -0.000431991 0)
(0.00431433 -0.000451386 0)
(0.00430371 -0.000471004 0)
(0.00429455 -0.000490807 0)
(0.00428691 -0.000510741 0)
(0.0042809 -0.000530746 0)
(0.0046844 -0.000215137 0)
(0.00466535 -0.000228784 0)
(0.00464629 -0.000242887 0)
(0.0046275 -0.000257431 0)
(0.00460892 -0.000272434 0)
(0.00459075 -0.000287869 0)
(0.00457298 -0.000303748 0)
(0.00455576 -0.000320045 0)
(0.00453912 -0.000336754 0)
(0.00452321 -0.000353846 0)
(0.00450804 -0.000371319 0)
(0.00449374 -0.000389136 0)
(0.00448034 -0.000407273 0)
(0.00446798 -0.000425696 0)
(0.00445663 -0.000444366 0)
(0.0044464 -0.000463257 0)
(0.00443746 -0.000482272 0)
(0.00442983 -0.000501383 0)
(0.00442355 -0.000520519 0)
(0.0048078 -0.000211268 0)
(0.00479003 -0.000224541 0)
(0.00477227 -0.000238256 0)
(0.00475475 -0.000252395 0)
(0.00473744 -0.000266966 0)
(0.0047205 -0.000281957 0)
(0.00470396 -0.00029737 0)
(0.00468789 -0.000313182 0)
(0.00467225 -0.000329427 0)