/*--------------------------------*- C++ -*----------------------------------*\
| =========                 |                                                 |
| \\      /  F ield         | OpenFOAM: The Open Source CFD Toolbox           |
|  \\    /   O peration     | Version:  v2012                                 |
|   \\  /    A nd           | Website:  www.openfoam.com                      |
|    \\/     M anipulation  |                                                 |
\*---------------------------------------------------------------------------*/
FoamFile
{
    version     2.0;
    format      ascii;
    class       volScalarField;
    location    "10";
    object      sigmaEq;
}
// * * * * * * * * * * * * * * * * * * * * * * * * * * * * * * * * * * * * * //

dimensions      [1 -1 -2 0 0 0 0];


internalField   nonuniform List<scalar> 
1000
(
2.43e+08
2.43e+08
2.43e+08
2.43e+08
2.43e+08
2.43e+08
2.43e+08
2.43e+08
2.43e+08
2.43e+08
2.43e+08
2.43e+08
2.43e+08
2.43e+08
2.43e+08
2.43e+08
2.43e+08
2.43e+08
2.43e+08
2.43e+08
2.43e+08
2.43e+08
2.43e+08
2.43e+08
2.43e+08
2.43e+08
2.43e+08
2.43e+08
2.43e+08
2.43e+08
2.43e+08
2.43e+08
2.43e+08
2.43e+08
2.43e+08
2.43e+08
2.43e+08
2.43e+08
2.43e+08
2.43e+08
2.43e+08
2.43e+08
2.35964e+08
2.33918e+08
2.35119e+08
2.43e+08
2.43e+08
2.43e+08
2.43e+08
2.43e+08
2.43e+08
2.15535e+08
2.13731e+08
2.16771e+08
2.20079e+08
2.27761e+08
2.32408e+08
2.389e+08
2.40403e+08
2.43e+08
2.03229e+08
1.93242e+08
1.94036e+08
1.9788e+08
2.0471e+08
2.13506e+08
2.19078e+08
2.25588e+08
2.28301e+08
2.31335e+08
1.63973e+08
1.60555e+08
1.69269e+08
1.8041e+08
1.9088e+08
2.01373e+08
2.08308e+08
2.15198e+08
2.18219e+08
2.21542e+08
1.21018e+08
1.32401e+08
1.48424e+08
1.64672e+08
1.77634e+08
1.89505e+08
1.97395e+08
2.04689e+08
2.08647e+08
2.11827e+08
7.80723e+07
1.01925e+08
1.26793e+08
1.4729e+08
1.6368e+08
1.75873e+08
1.85928e+08
1.92139e+08
1.98737e+08
2.00839e+08
4.1479e+07
7.88287e+07
1.09116e+08
1.32133e+08
1.49742e+08
1.62631e+08
1.72846e+08
1.79759e+08
1.85714e+08
1.90273e+08
2.89014e+07
6.71466e+07
9.70659e+07
1.20813e+08
1.3771e+08
1.51636e+08
1.604e+08
1.68922e+08
1.71997e+08
1.78477e+08
5.44344e+07
6.89314e+07
8.95436e+07
1.09806e+08
1.24134e+08
1.37132e+08
1.44592e+08
1.5302e+08
1.55102e+08
1.61744e+08
8.58551e+07
8.21832e+07
8.93833e+07
1.03218e+08
1.12966e+08
1.24169e+08
1.29413e+08
1.37434e+08
1.38408e+08
1.44963e+08
1.14826e+08
9.88423e+07
9.35457e+07
9.88027e+07
1.02887e+08
1.10885e+08
1.13788e+08
1.20616e+08
1.20635e+08
1.26486e+08
1.39732e+08
1.155e+08
1.00652e+08
9.73388e+07
9.527e+07
9.89361e+07
9.92537e+07
1.04033e+08
1.0338e+08
1.07913e+08
1.60304e+08
1.3e+08
1.08187e+08
9.72752e+07
8.92903e+07
8.78018e+07
8.51032e+07
8.70206e+07
8.53319e+07
8.80537e+07
1.75892e+08
1.41473e+08
1.14946e+08
9.82691e+07
8.53922e+07
7.87316e+07
7.29638e+07
7.13227e+07
6.85277e+07
6.88684e+07
1.8649e+08
1.49343e+08
1.19828e+08
9.92217e+07
8.2817e+07
7.17927e+07
6.31021e+07
5.76304e+07
5.33381e+07
5.07899e+07
1.91796e+08
1.53353e+08
1.22419e+08
9.9889e+07
8.16906e+07
6.81846e+07
5.76816e+07
4.94139e+07
4.38841e+07
3.86774e+07
3.51269e+07
4.8275e+07
6.72539e+07
8.65958e+07
1.06499e+08
1.24195e+08
1.42193e+08
1.57594e+08
1.74162e+08
1.89972e+08
3.31746e+07
4.56814e+07
6.39241e+07
8.25564e+07
1.02075e+08
1.19245e+08
1.36423e+08
1.49994e+08
1.62951e+08
1.74424e+08
3.34858e+07
4.42907e+07
6.05131e+07
7.74142e+07
9.52899e+07
1.12e+08
1.28838e+08
1.44905e+08
1.58436e+08
1.71166e+08
3.78952e+07
4.69718e+07
6.11658e+07
7.65887e+07
9.246e+07
1.07456e+08
1.2119e+08
1.3501e+08
1.46421e+08
1.59454e+08
4.09866e+07
4.82878e+07
6.00923e+07
7.40313e+07
8.84581e+07
1.03526e+08
1.17011e+08
1.31338e+08
1.42094e+08
1.53333e+08
4.65156e+07
5.24596e+07
6.21778e+07
7.42274e+07
8.63369e+07
9.94137e+07
1.10786e+08
1.23654e+08
1.33986e+08
1.45233e+08
5.11703e+07
5.59662e+07
6.39751e+07
7.46766e+07
8.56086e+07
9.79873e+07
1.08721e+08
1.20619e+08
1.30034e+08
1.3997e+08
5.64071e+07
6.02477e+07
6.66976e+07
7.562e+07
8.47786e+07
9.54376e+07
1.04946e+08
1.15724e+08
1.24756e+08
1.34198e+08
6.16099e+07
6.47495e+07
7.01332e+07
7.78237e+07
8.5942e+07
9.54248e+07
1.04069e+08
1.13582e+08
1.2177e+08
1.30193e+08
6.62852e+07
6.87892e+07
7.31563e+07
7.94808e+07
8.63616e+07
9.44835e+07
1.02204e+08
1.10722e+08
1.18308e+08
1.26076e+08
7.12369e+07
7.32938e+07
7.69617e+07
8.22886e+07
8.82569e+07
9.52265e+07
1.02059e+08
1.09418e+08
1.16242e+08
1.23091e+08
7.51979e+07
7.6851e+07
7.98693e+07
8.42501e+07
8.93362e+07
9.52641e+07
1.01306e+08
1.07769e+08
1.13895e+08
1.20083e+08
7.93185e+07
8.06775e+07
8.32019e+07
8.68487e+07
9.11739e+07
9.61781e+07
1.01403e+08
1.06907e+08
1.12361e+08
1.17526e+08
8.2299e+07
8.34071e+07
8.54951e+07
8.8521e+07
9.21772e+07
9.64378e+07
1.00959e+08
1.05752e+08
1.1058e+08
1.15204e+08
8.5097e+07
8.60096e+07
8.77557e+07
9.02662e+07
9.3356e+07
9.69305e+07
1.00796e+08
1.0487e+08
1.09009e+08
1.13078e+08
8.66894e+07
8.74443e+07
8.89033e+07
9.10047e+07
9.36283e+07
9.66683e+07
1.00016e+08
1.03511e+08
1.07169e+08
1.10632e+08
8.75826e+07
8.82182e+07
8.94645e+07
9.12482e+07
9.35092e+07
9.61275e+07
9.90353e+07
1.02105e+08
1.05275e+08
1.08401e+08
8.7171e+07
8.77198e+07
8.88075e+07
9.03648e+07
9.23673e+07
9.46927e+07
9.73144e+07
1.00084e+08
1.02988e+08
1.05835e+08
8.53153e+07
8.58215e+07
8.68435e+07
8.82991e+07
9.02214e+07
9.24447e+07
9.50396e+07
9.77496e+07
1.00719e+08
1.03549e+08
8.19849e+07
8.24906e+07
8.35227e+07
8.4999e+07
8.69852e+07
8.92972e+07
9.20623e+07
9.49605e+07
9.82196e+07
1.01341e+08
1.97692e+08
1.95976e+08
2.00283e+08
2.01275e+08
2.04864e+08
2.06509e+08
2.08836e+08
2.1059e+08
2.12185e+08
2.13634e+08
2.15187e+08
2.16635e+08
2.1842e+08
2.20253e+08
2.22768e+08
2.25541e+08
2.29552e+08
2.3398e+08
2.40588e+08
2.43e+08
1.84681e+08
1.88448e+08
1.92336e+08
1.94647e+08
1.96975e+08
1.99425e+08
2.01227e+08
2.03553e+08
2.05758e+08
2.07567e+08
2.09744e+08
2.11995e+08
2.14603e+08
2.17496e+08
2.20993e+08
2.24878e+08
2.29865e+08
2.35163e+08
2.42542e+08
2.43e+08
1.76926e+08
1.79506e+08
1.82597e+08
1.85184e+08
1.8752e+08
1.89557e+08
1.92199e+08
1.95636e+08
1.97007e+08
1.99228e+08
2.02284e+08
2.04977e+08
2.08413e+08
2.11762e+08
2.15942e+08
2.20218e+08
2.25538e+08
2.31047e+08
2.3795e+08
2.43e+08
1.66985e+08
1.7087e+08
1.74625e+08
1.77317e+08
1.80708e+08
1.83129e+08
1.86474e+08
1.88624e+08
1.91377e+08
1.94216e+08
1.9736e+08
2.00339e+08
2.03941e+08
2.0741e+08
2.11658e+08
2.1588e+08
2.20991e+08
2.26187e+08
2.32358e+08
2.38605e+08
1.59739e+08
1.63468e+08
1.66607e+08
1.69606e+08
1.72565e+08
1.75319e+08
1.78247e+08
1.81025e+08
1.83943e+08
1.86724e+08
1.89961e+08
1.93e+08
1.96632e+08
2.00118e+08
2.0429e+08
2.08399e+08
2.13283e+08
2.18193e+08
2.23971e+08
2.29836e+08
1.52052e+08
1.55911e+08
1.59383e+08
1.62584e+08
1.6591e+08
1.68805e+08
1.72012e+08
1.74778e+08
1.77878e+08
1.80748e+08
1.83942e+08
1.86984e+08
1.9042e+08
1.93763e+08
1.97585e+08
2.01381e+08
2.05747e+08
2.10157e+08
2.15264e+08
2.20457e+08
1.46352e+08
1.49934e+08
1.5314e+08
1.5632e+08
1.59357e+08
1.62298e+08
1.65236e+08
1.6805e+08
1.70967e+08
1.73753e+08
1.76748e+08
1.79618e+08
1.82791e+08
1.85856e+08
1.89313e+08
1.92686e+08
1.96546e+08
2.00346e+08
2.04735e+08
2.09131e+08
1.406e+08
1.43972e+08
1.47254e+08
1.50399e+08
1.53481e+08
1.56384e+08
1.59315e+08
1.62051e+08
1.64887e+08
1.67541e+08
1.70356e+08
1.7301e+08
1.75878e+08
1.78624e+08
1.81615e+08
1.84565e+08
1.87728e+08
1.91035e+08
1.94671e+08
1.98251e+08
1.36157e+08
1.39225e+08
1.42274e+08
1.45235e+08
1.48057e+08
1.50805e+08
1.5346e+08
1.56037e+08
1.58573e+08
1.61036e+08
1.63502e+08
1.65914e+08
1.68361e+08
1.70793e+08
1.73273e+08
1.75805e+08
1.78379e+08
1.80922e+08
1.83845e+08
1.86752e+08
1.31785e+08
1.34555e+08
1.37523e+08
1.4028e+08
1.43e+08
1.45563e+08
1.48072e+08
1.50458e+08
1.52796e+08
1.55031e+08
1.57239e+08
1.59355e+08
1.6148e+08
1.63509e+08
1.65614e+08
1.67584e+08
1.69763e+08
1.71687e+08
1.738e+08
1.75951e+08
1.2828e+08
1.30858e+08
1.33452e+08
1.35981e+08
1.38406e+08
1.40727e+08
1.42969e+08
1.45099e+08
1.47167e+08
1.4912e+08
1.51031e+08
1.52824e+08
1.54598e+08
1.5625e+08
1.57913e+08
1.59449e+08
1.61033e+08
1.62486e+08
1.64032e+08
1.65487e+08
1.24727e+08
1.27006e+08
1.29628e+08
1.31769e+08
1.34061e+08
1.36117e+08
1.38159e+08
1.40062e+08
1.41895e+08
1.43613e+08
1.45258e+08
1.46782e+08
1.4825e+08
1.49579e+08
1.50877e+08
1.5202e+08
1.53153e+08
1.54138e+08
1.55098e+08
1.55985e+08
1.21974e+08
1.24627e+08
1.26044e+08
1.27865e+08
1.30013e+08
1.31781e+08
1.33635e+08
1.35272e+08
1.36887e+08
1.38349e+08
1.39748e+08
1.41007e+08
1.42194e+08
1.43231e+08
1.44193e+08
1.45001e+08
1.45711e+08
1.46305e+08
1.46778e+08
1.47154e+08
1.1909e+08
1.20652e+08
1.22534e+08
1.24362e+08
1.26109e+08
1.27755e+08
1.29328e+08
1.30798e+08
1.32179e+08
1.33439e+08
1.34634e+08
1.35682e+08
1.36647e+08
1.37452e+08
1.3816e+08
1.38666e+08
1.39107e+08
1.39351e+08
1.39428e+08
1.3937e+08
1.16284e+08
1.17853e+08
1.19444e+08
1.20982e+08
1.22491e+08
1.23895e+08
1.25271e+08
1.26531e+08
1.27735e+08
1.28836e+08
1.29855e+08
1.30749e+08
1.31554e+08
1.32188e+08
1.32761e+08
1.33048e+08
1.33166e+08
1.33211e+08
1.32972e+08
1.32553e+08
1.13472e+08
1.14712e+08
1.16236e+08
1.17537e+08
1.1892e+08
1.20162e+08
1.21396e+08
1.22586e+08
1.23607e+08
1.24513e+08
1.25495e+08
1.26286e+08
1.26982e+08
1.27576e+08
1.27945e+08
1.2791e+08
1.28214e+08
1.28078e+08
1.27582e+08
1.2689e+08
1.10797e+08
1.11959e+08
1.13247e+08
1.14451e+08
1.15633e+08
1.16774e+08
1.17919e+08
1.1892e+08
1.19793e+08
1.20812e+08
1.21642e+08
1.22386e+08
1.22991e+08
1.2355e+08
1.23837e+08
1.2415e+08
1.2417e+08
1.23949e+08
1.23386e+08
1.22608e+08
1.08018e+08
1.09115e+08
1.10315e+08
1.11451e+08
1.1256e+08
1.13627e+08
1.1473e+08
1.15636e+08
1.16668e+08
1.17616e+08
1.18364e+08
1.19117e+08
1.19747e+08
1.20283e+08
1.20699e+08
1.20919e+08
1.21014e+08
1.20853e+08
1.20362e+08
1.19576e+08
1.05769e+08
1.06906e+08
1.08134e+08
1.09305e+08
1.10267e+08
1.11508e+08
1.12909e+08
1.13697e+08
1.14668e+08
1.15559e+08
1.16341e+08
1.17119e+08
1.17727e+08
1.18324e+08
1.18727e+08
1.19084e+08
1.19225e+08
1.19236e+08
1.18973e+08
1.18479e+08
1.03771e+08
1.051e+08
1.06491e+08
1.07817e+08
1.08957e+08
1.10634e+08
1.11999e+08
1.12746e+08
1.13981e+08
1.14809e+08
1.15746e+08
1.16451e+08
1.17145e+08
1.17655e+08
1.18116e+08
1.18407e+08
1.18638e+08
1.1871e+08
1.18706e+08
1.18531e+08
2.37624e+08
2.26325e+08
2.16613e+08
2.08807e+08
2.01477e+08
1.95209e+08
1.88429e+08
1.82166e+08
1.75274e+08
1.68688e+08
1.6134e+08
1.54079e+08
1.45865e+08
1.37514e+08
1.27947e+08
1.18022e+08
1.06509e+08
9.44423e+07
8.02586e+07
6.53831e+07
2.43e+08
2.43e+08
2.383e+08
2.3136e+08
2.23722e+08
2.15977e+08
2.07688e+08
2.00387e+08
1.92496e+08
1.84951e+08
1.76729e+08
1.6863e+08
1.59671e+08
1.5061e+08
1.40467e+08
1.3e+08
1.18165e+08
1.05844e+08
9.18175e+07
7.73166e+07
2.43e+08
2.43e+08
2.43e+08
2.43e+08
2.43e+08
2.42372e+08
2.32971e+08
2.24286e+08
2.14448e+08
2.05769e+08
1.96626e+08
1.87898e+08
1.78492e+08
1.69103e+08
1.58838e+08
1.48303e+08
1.3672e+08
1.24742e+08
1.1162e+08
9.82419e+07
2.43e+08
2.43e+08
2.43e+08
2.43e+08
2.43e+08
2.43e+08
2.43e+08
2.43e+08
2.33736e+08
2.25463e+08
2.16295e+08
2.07662e+08
1.98326e+08
1.89061e+08
1.79123e+08
1.68974e+08
1.58179e+08
1.47127e+08
1.35613e+08
1.24076e+08
2.43e+08
2.43e+08
2.43e+08
2.43e+08
2.43e+08
2.43e+08
2.43e+08
2.43e+08
2.43e+08
2.37646e+08
2.31124e+08
2.24138e+08
2.16301e+08
2.08113e+08
1.99424e+08
1.90403e+08
1.81229e+08
1.71968e+08
1.6313e+08
1.54662e+08
2.43e+08
2.43e+08
2.43e+08
2.43e+08
2.43e+08
2.43e+08
2.43e+08
2.43e+08
2.41019e+08
2.38684e+08
2.34782e+08
2.30021e+08
2.24514e+08
2.18309e+08
2.11908e+08
2.05058e+08
1.98526e+08
1.92024e+08
1.86576e+08
1.81732e+08
2.31497e+08
2.36473e+08
2.35761e+08
2.37773e+08
2.37174e+08
2.3818e+08
2.37891e+08
2.38352e+08
2.38107e+08
2.37018e+08
2.3524e+08
2.32337e+08
2.2913e+08
2.24944e+08
2.20867e+08
2.16215e+08
2.12196e+08
2.08269e+08
2.05797e+08
2.04125e+08
2.2138e+08
2.26356e+08
2.26222e+08
2.28085e+08
2.28099e+08
2.28702e+08
2.29076e+08
2.29113e+08
2.29567e+08
2.29101e+08
2.28975e+08
2.27711e+08
2.26738e+08
2.24828e+08
2.23346e+08
2.2139e+08
2.2025e+08
2.19305e+08
2.19857e+08
2.21234e+08
2.1308e+08
2.18252e+08
2.20636e+08
2.22672e+08
2.24675e+08
2.25221e+08
2.26545e+08
2.26472e+08
2.27212e+08
2.26835e+08
2.27071e+08
2.26457e+08
2.26308e+08
2.25622e+08
2.2546e+08
2.25157e+08
2.25677e+08
2.26556e+08
2.28753e+08
2.31663e+08
2.02707e+08
2.05271e+08
2.09285e+08
2.11232e+08
2.14749e+08
2.16271e+08
2.18807e+08
2.19943e+08
2.21636e+08
2.22392e+08
2.23483e+08
2.23982e+08
2.24793e+08
2.25327e+08
2.2638e+08
2.27528e+08
2.29628e+08
2.32284e+08
2.36492e+08
2.41629e+08
)
;

boundaryField
{
    back
    {
        type            empty;
    }
    left
    {
        type            symmetry;
    }
    hole
    {
        type            calculated;
        value           nonuniform List<scalar> 
20
(
2.43e+08
2.43e+08
2.43e+08
2.43e+08
2.43e+08
2.43e+08
2.0363e+08
1.63924e+08
1.18729e+08
7.33315e+07
3.05835e+07
1.1487e+07
4.98112e+07
8.45943e+07
1.15246e+08
1.41124e+08
1.62349e+08
1.78358e+08
1.89221e+08
1.94651e+08
)
;
    }
    front
    {
        type            empty;
    }
    down
    {
        type            symmetry;
    }
    right
    {
        type            calculated;
        value           nonuniform List<scalar> 
30
(
8.19935e+07
8.24927e+07
8.3508e+07
8.49682e+07
8.69268e+07
8.92222e+07
9.19587e+07
9.48509e+07
9.80906e+07
1.01228e+08
1.03655e+08
1.05009e+08
1.06436e+08
1.07759e+08
1.09054e+08
1.10436e+08
1.11777e+08
1.12718e+08
1.139e+08
1.14779e+08
1.15715e+08
1.16431e+08
1.17132e+08
1.17641e+08
1.18106e+08
1.18397e+08
1.18637e+08
1.18725e+08
1.18769e+08
1.18687e+08
)
;
    }
    up
    {
        type            calculated;
        value           nonuniform List<scalar> 
30
(
2.43e+08
2.43e+08
2.43e+08
2.38657e+08
2.29888e+08
2.205e+08
2.09161e+08
1.98252e+08
1.86741e+08
1.75962e+08
1.65478e+08
1.5597e+08
1.47139e+08
1.39351e+08
1.32545e+08
1.26884e+08
1.22584e+08
1.1957e+08
1.18474e+08
1.18534e+08
6.52256e+07
7.70861e+07
9.79724e+07
1.23799e+08
1.54442e+08
1.81603e+08
2.04086e+08
2.21245e+08
2.31691e+08
2.41659e+08
)
;
    }
}


// ************************************************************************* //
