/*--------------------------------*- C++ -*----------------------------------*\
| =========                 |                                                 |
| \\      /  F ield         | OpenFOAM: The Open Source CFD Toolbox           |
|  \\    /   O peration     | Version:  v2012                                 |
|   \\  /    A nd           | Website:  www.openfoam.com                      |
|    \\/     M anipulation  |                                                 |
\*---------------------------------------------------------------------------*/
FoamFile
{
    version     2.0;
    format      ascii;
    class       volScalarField;
    location    "10";
    object      sigmaHyd;
}
// * * * * * * * * * * * * * * * * * * * * * * * * * * * * * * * * * * * * * //

dimensions      [1 -1 -2 0 0 0 0];


internalField   nonuniform List<scalar> 
1000
(
1.48528e+08
1.5782e+08
1.72877e+08
1.81029e+08
1.92947e+08
1.96664e+08
2.01074e+08
1.9663e+08
1.92189e+08
1.81212e+08
1.48726e+08
1.58108e+08
1.72704e+08
1.78517e+08
1.86964e+08
1.86083e+08
1.86001e+08
1.78658e+08
1.72454e+08
1.62524e+08
1.49035e+08
1.55576e+08
1.68295e+08
1.68922e+08
1.70325e+08
1.64152e+08
1.60118e+08
1.52275e+08
1.47648e+08
1.41024e+08
1.49179e+08
1.45481e+08
1.53698e+08
1.45464e+08
1.4373e+08
1.36812e+08
1.34309e+08
1.29473e+08
1.27627e+08
1.23361e+08
1.40318e+08
1.27766e+08
1.29251e+08
1.17666e+08
1.20418e+08
1.17166e+08
1.18435e+08
1.13546e+08
1.12175e+08
1.07585e+08
1.22974e+08
1.09179e+08
1.08579e+08
1.04323e+08
1.06085e+08
1.02901e+08
1.03918e+08
1.00064e+08
9.92727e+07
9.62151e+07
1.02841e+08
9.79025e+07
9.69542e+07
9.27183e+07
9.30913e+07
9.00759e+07
9.06916e+07
8.81589e+07
8.92162e+07
8.74694e+07
8.35605e+07
7.94513e+07
7.99468e+07
7.77524e+07
7.92013e+07
7.78026e+07
7.95523e+07
7.84046e+07
8.03214e+07
7.92709e+07
6.03237e+07
6.02584e+07
6.16858e+07
6.18007e+07
6.36143e+07
6.38584e+07
6.59945e+07
6.6217e+07
6.8815e+07
6.86161e+07
3.73562e+07
3.9771e+07
4.32977e+07
4.52918e+07
4.85599e+07
5.02842e+07
5.35056e+07
5.49456e+07
5.83683e+07
5.90819e+07
1.52274e+07
2.02919e+07
2.45352e+07
2.86556e+07
3.21668e+07
3.56971e+07
3.86042e+07
4.17727e+07
4.40675e+07
4.83951e+07
-6.08083e+06
1.06978e+06
6.91939e+06
1.26417e+07
1.73115e+07
2.2111e+07
2.58356e+07
3.00216e+07
3.28726e+07
3.8586e+07
-2.57635e+07
-1.64793e+07
-9.68794e+06
-2.19214e+06
3.11831e+06
9.50024e+06
1.36693e+07
1.93888e+07
2.26102e+07
2.98768e+07
-4.34061e+07
-3.26769e+07
-2.4766e+07
-1.61002e+07
-9.93209e+06
-2.59896e+06
2.19074e+06
8.71312e+06
1.2335e+07
2.01659e+07
-5.90194e+07
-4.68581e+07
-3.80704e+07
-2.82442e+07
-2.14095e+07
-1.31445e+07
-7.82265e+06
-593275
3.48566e+06
1.14336e+07
-7.21185e+07
-5.90489e+07
-4.94509e+07
-3.88842e+07
-3.13718e+07
-2.25339e+07
-1.66336e+07
-8.99201e+06
-4.39385e+06
3.42505e+06
-8.28667e+07
-6.89673e+07
-5.87058e+07
-4.74838e+07
-3.94336e+07
-3.01114e+07
-2.37417e+07
-1.57909e+07
-1.07434e+07
-3.15258e+06
-9.09486e+07
-7.65454e+07
-6.57613e+07
-5.41384e+07
-4.56361e+07
-3.60209e+07
-2.92394e+07
-2.11063e+07
-1.56589e+07
-8.30575e+06
-9.64313e+07
-8.1649e+07
-7.05048e+07
-5.85895e+07
-4.97873e+07
-3.99665e+07
-3.29136e+07
-2.46627e+07
-1.89469e+07
-1.17799e+07
-9.91683e+07
-8.42228e+07
-7.2895e+07
-6.08527e+07
-5.18907e+07
-4.19803e+07
-3.47792e+07
-2.64768e+07
-2.06145e+07
-1.35489e+07
-4.98871e+06
-3.54096e+06
-668509
3.64595e+06
9.27617e+06
1.63119e+07
2.42502e+07
3.34342e+07
4.19291e+07
5.06915e+07
7.26691e+06
8.15963e+06
9.96903e+06
1.26177e+07
1.61939e+07
2.05755e+07
2.60099e+07
3.22774e+07
4.01682e+07
4.74832e+07
1.63836e+07
1.72411e+07
1.90071e+07
2.15251e+07
2.49529e+07
2.88759e+07
3.36629e+07
3.83534e+07
4.41752e+07
4.84323e+07
2.4297e+07
2.48243e+07
2.60125e+07
2.76208e+07
3.01147e+07
3.28817e+07
3.69357e+07
4.08465e+07
4.65901e+07
5.05077e+07
3.12482e+07
3.17596e+07
3.29179e+07
3.43942e+07
3.66555e+07
3.89198e+07
4.22149e+07
4.50744e+07
4.94777e+07
5.25505e+07
3.66178e+07
3.69555e+07
3.78141e+07
3.88612e+07
4.06887e+07
4.25117e+07
4.5433e+07
4.80191e+07
5.19559e+07
5.47558e+07
4.19036e+07
4.22081e+07
4.29766e+07
4.38662e+07
4.53936e+07
4.68299e+07
4.91311e+07
5.11578e+07
5.42773e+07
5.66723e+07
4.57655e+07
4.59849e+07
4.65876e+07
4.72767e+07
4.85466e+07
4.97705e+07
5.17556e+07
5.35669e+07
5.62198e+07
5.83477e+07
4.98137e+07
4.99901e+07
5.04764e+07
5.10122e+07
5.19997e+07
5.29362e+07
5.4461e+07
5.59028e+07
5.79965e+07
5.97972e+07
5.27681e+07
5.28971e+07
5.32733e+07
5.36895e+07
5.44813e+07
5.52544e+07
5.64981e+07
5.77114e+07
5.9418e+07
6.09232e+07
5.59673e+07
5.6051e+07
5.63136e+07
5.65868e+07
5.71415e+07
5.76729e+07
5.85705e+07
5.94672e+07
6.07537e+07
6.19502e+07
5.83988e+07
5.8447e+07
5.86213e+07
5.87945e+07
5.9179e+07
5.95505e+07
6.01919e+07
6.08567e+07
6.17932e+07
6.26966e+07
6.10908e+07
6.10939e+07
6.11646e+07
6.12013e+07
6.13851e+07
6.15285e+07
6.18981e+07
6.22352e+07
6.28767e+07
6.33407e+07
6.32872e+07
6.32554e+07
6.32463e+07
6.31796e+07
6.32086e+07
6.31801e+07
6.33252e+07
6.34217e+07
6.3772e+07
6.39877e+07
6.57766e+07
6.57005e+07
6.55896e+07
6.53927e+07
6.52247e+07
6.49897e+07
6.48541e+07
6.46876e+07
6.46771e+07
6.46276e+07
6.79883e+07
6.78737e+07
6.76803e+07
6.73682e+07
6.70397e+07
6.66144e+07
6.62489e+07
6.5819e+07
6.55239e+07
6.51554e+07
7.05684e+07
7.04071e+07
7.01064e+07
6.96577e+07
6.91211e+07
6.84801e+07
6.78196e+07
6.71115e+07
6.64566e+07
6.57734e+07
7.30496e+07
7.28428e+07
7.24471e+07
7.18626e+07
7.11404e+07
7.02769e+07
6.93513e+07
6.83447e+07
6.73663e+07
6.63371e+07
7.60355e+07
7.57745e+07
7.52563e+07
7.45123e+07
7.35486e+07
7.24311e+07
7.11529e+07
6.98208e+07
6.83906e+07
6.70129e+07
7.9083e+07
7.87675e+07
7.81355e+07
7.7226e+07
7.60322e+07
7.46361e+07
7.30143e+07
7.13011e+07
6.94346e+07
6.76172e+07
5.53635e+07
5.86762e+07
6.21835e+07
6.57208e+07
6.95265e+07
7.30171e+07
7.641e+07
7.98564e+07
8.29653e+07
8.62772e+07
8.93193e+07
9.2583e+07
9.56249e+07
9.89517e+07
1.0208e+08
1.05635e+08
1.08917e+08
1.12984e+08
1.16326e+08
1.19606e+08
5.57675e+07
5.96889e+07
6.40257e+07
6.71474e+07
7.06163e+07
7.4057e+07
7.71804e+07
8.06019e+07
8.38788e+07
8.69643e+07
9.01287e+07
9.33125e+07
9.64786e+07
9.98229e+07
1.03071e+08
1.06697e+08
1.10034e+08
1.14224e+08
1.17396e+08
1.20062e+08
5.41561e+07
5.80623e+07
6.134e+07
6.55055e+07
6.81559e+07
7.19184e+07
7.47575e+07
7.90519e+07
8.12489e+07
8.46789e+07
8.77235e+07
9.11548e+07
9.42664e+07
9.77679e+07
1.00989e+08
1.04646e+08
1.08001e+08
1.11939e+08
1.15388e+08
1.19011e+08
5.53443e+07
5.95441e+07
6.2217e+07
6.58879e+07
6.86831e+07
7.20751e+07
7.49814e+07
7.81556e+07
8.08026e+07
8.42001e+07
8.6964e+07
9.02843e+07
9.31548e+07
9.64844e+07
9.94684e+07
1.02876e+08
1.05988e+08
1.09523e+08
1.12793e+08
1.16444e+08
5.64265e+07
6.01513e+07
6.23427e+07
6.57455e+07
6.8024e+07
7.13101e+07
7.36611e+07
7.68918e+07
7.92863e+07
8.24137e+07
8.494e+07
8.80305e+07
9.06684e+07
9.37757e+07
9.65195e+07
9.96903e+07
1.02542e+08
1.05816e+08
1.08784e+08
1.12183e+08
5.81418e+07
6.13608e+07
6.33035e+07
6.62821e+07
6.83575e+07
7.1221e+07
7.33921e+07
7.61808e+07
7.84149e+07
8.11764e+07
8.34762e+07
8.62304e+07
8.85971e+07
9.13699e+07
9.38054e+07
9.66245e+07
9.91327e+07
1.02025e+08
1.04613e+08
1.07603e+08
5.95422e+07
6.22055e+07
6.38439e+07
6.6401e+07
6.8156e+07
7.06535e+07
7.25019e+07
7.49555e+07
7.68813e+07
7.93038e+07
8.12993e+07
8.37078e+07
8.57644e+07
8.81771e+07
9.02863e+07
9.27215e+07
9.48741e+07
9.73496e+07
9.95342e+07
1.02062e+08
6.08848e+07
6.30394e+07
6.4473e+07
6.66201e+07
6.81507e+07
7.02581e+07
7.18638e+07
7.3941e+07
7.56034e+07
7.76615e+07
7.93656e+07
8.14154e+07
8.31472e+07
8.52003e+07
8.69443e+07
8.90137e+07
9.075e+07
9.28517e+07
9.4699e+07
9.67055e+07
6.19336e+07
6.36352e+07
6.48307e+07
6.65827e+07
6.78541e+07
6.95858e+07
7.09189e+07
7.26297e+07
7.40112e+07
7.57018e+07
7.71193e+07
7.87905e+07
8.02325e+07
8.18848e+07
8.33404e+07
8.49724e+07
8.6431e+07
8.79551e+07
8.94899e+07
9.10781e+07
6.2777e+07
6.40698e+07
6.50807e+07
6.64764e+07
6.75405e+07
6.89245e+07
7.00291e+07
7.13973e+07
7.25305e+07
7.3879e+07
7.50299e+07
7.6354e+07
7.75131e+07
7.88067e+07
7.99662e+07
8.12202e+07
8.23756e+07
8.35754e+07
8.45802e+07
8.58511e+07
6.34119e+07
6.44194e+07
6.51789e+07
6.62723e+07
6.70851e+07
6.81623e+07
6.90093e+07
7.00682e+07
7.09335e+07
7.19701e+07
7.28394e+07
7.38488e+07
7.4708e+07
7.56846e+07
7.65186e+07
7.74563e+07
7.82491e+07
7.91415e+07
7.98742e+07
8.07093e+07
6.38851e+07
6.45592e+07
6.51974e+07
6.59695e+07
6.66158e+07
6.73905e+07
6.8041e+07
6.88053e+07
6.9453e+07
7.01961e+07
7.08317e+07
7.15438e+07
7.21559e+07
7.28275e+07
7.34027e+07
7.40247e+07
7.4547e+07
7.51112e+07
7.556e+07
7.60589e+07
6.42871e+07
6.52362e+07
6.5133e+07
6.56274e+07
6.61037e+07
6.66104e+07
6.70666e+07
6.7568e+07
6.80038e+07
6.8486e+07
6.88963e+07
6.93465e+07
6.97214e+07
7.01281e+07
7.04543e+07
7.08068e+07
7.10674e+07
7.13562e+07
7.15397e+07
7.17477e+07
6.45551e+07
6.4802e+07
6.50343e+07
6.53741e+07
6.5612e+07
6.59353e+07
6.61691e+07
6.64688e+07
6.669e+07
6.69538e+07
6.71564e+07
6.73777e+07
6.75463e+07
6.7713e+07
6.7835e+07
6.79292e+07
6.79947e+07
6.80234e+07
6.79959e+07
6.79378e+07
6.48608e+07
6.49626e+07
6.49993e+07
6.51391e+07
6.51919e+07
6.53111e+07
6.53647e+07
6.5462e+07
6.55004e+07
6.55733e+07
6.56001e+07
6.56234e+07
6.5624e+07
6.55862e+07
6.55497e+07
6.54312e+07
6.52514e+07
6.51246e+07
6.48693e+07
6.46297e+07
6.51198e+07
6.50342e+07
6.49423e+07
6.49031e+07
6.47985e+07
6.47662e+07
6.46404e+07
6.46191e+07
6.4454e+07
6.43204e+07
6.42232e+07
6.40878e+07
6.3925e+07
6.37695e+07
6.35285e+07
6.315e+07
6.29955e+07
6.27018e+07
6.22809e+07
6.18658e+07
6.54396e+07
6.51841e+07
6.49313e+07
6.47032e+07
6.44644e+07
6.42247e+07
6.4017e+07
6.37485e+07
6.34844e+07
6.32646e+07
6.30403e+07
6.27559e+07
6.24878e+07
6.21944e+07
6.18643e+07
6.15425e+07
6.1218e+07
6.07469e+07
6.03119e+07
5.97379e+07
6.57278e+07
6.53038e+07
6.48997e+07
6.44981e+07
6.41153e+07
6.37114e+07
6.33725e+07
6.29583e+07
6.26503e+07
6.235e+07
6.19526e+07
6.16391e+07
6.12637e+07
6.09287e+07
6.05527e+07
6.01722e+07
5.97684e+07
5.93316e+07
5.88352e+07
5.82896e+07
6.59987e+07
6.5425e+07
6.47688e+07
6.42459e+07
6.35446e+07
6.31112e+07
6.27857e+07
6.21279e+07
6.17193e+07
6.12143e+07
6.0822e+07
6.04007e+07
6.00468e+07
5.96883e+07
5.93731e+07
5.90552e+07
5.87632e+07
5.8447e+07
5.81322e+07
5.77523e+07
6.62498e+07
6.54688e+07
6.46372e+07
6.39069e+07
6.30304e+07
6.25864e+07
6.19109e+07
6.11834e+07
6.06097e+07
6.00847e+07
5.95851e+07
5.91949e+07
5.88137e+07
5.85455e+07
5.82923e+07
5.81386e+07
5.79987e+07
5.7933e+07
5.78553e+07
5.77941e+07
1.7214e+08
1.62867e+08
1.54746e+08
1.46522e+08
1.39289e+08
1.31831e+08
1.24918e+08
1.17759e+08
1.11005e+08
1.04008e+08
9.7312e+07
9.03439e+07
8.36047e+07
7.65288e+07
6.96424e+07
6.23146e+07
5.51724e+07
4.74351e+07
3.99199e+07
3.15897e+07
1.57222e+08
1.53097e+08
1.47898e+08
1.41694e+08
1.35556e+08
1.29115e+08
1.2275e+08
1.16546e+08
1.10364e+08
1.04121e+08
9.79549e+07
9.16356e+07
8.53958e+07
7.89176e+07
7.25252e+07
6.5784e+07
5.91575e+07
5.20317e+07
4.50855e+07
3.73874e+07
1.38039e+08
1.36857e+08
1.34884e+08
1.33361e+08
1.31241e+08
1.28479e+08
1.23429e+08
1.17653e+08
1.11909e+08
1.06314e+08
1.00702e+08
9.51489e+07
8.95538e+07
8.39131e+07
7.82427e+07
7.23989e+07
6.65695e+07
6.0407e+07
5.43411e+07
4.76204e+07
1.21479e+08
1.21719e+08
1.20573e+08
1.20221e+08
1.19143e+08
1.18611e+08
1.17518e+08
1.16039e+08
1.1185e+08
1.07295e+08
1.02739e+08
9.83298e+07
9.37461e+07
8.9289e+07
8.46649e+07
8.00553e+07
7.53408e+07
7.0491e+07
6.56347e+07
6.02716e+07
1.0567e+08
1.06387e+08
1.05601e+08
1.06124e+08
1.0564e+08
1.06285e+08
1.0575e+08
1.06417e+08
1.05825e+08
1.04364e+08
1.01627e+08
9.9355e+07
9.64389e+07
9.38113e+07
9.07731e+07
8.79091e+07
8.48006e+07
8.17702e+07
7.86451e+07
7.52883e+07
9.49994e+07
9.64479e+07
9.57636e+07
9.67901e+07
9.64982e+07
9.76692e+07
9.78035e+07
9.90215e+07
9.88798e+07
9.93409e+07
9.86047e+07
9.82565e+07
9.71241e+07
9.62856e+07
9.49328e+07
9.3828e+07
9.24044e+07
9.12161e+07
8.98612e+07
8.85767e+07
8.7693e+07
9.05703e+07
9.03975e+07
9.19876e+07
9.19978e+07
9.36346e+07
9.40148e+07
9.57621e+07
9.64261e+07
9.76998e+07
9.80192e+07
9.8751e+07
9.87878e+07
9.91361e+07
9.90121e+07
9.91746e+07
9.90414e+07
9.92367e+07
9.92701e+07
9.96008e+07
7.99747e+07
8.42318e+07
8.4784e+07
8.73081e+07
8.79277e+07
9.004e+07
9.08747e+07
9.27463e+07
9.37391e+07
9.53915e+07
9.6408e+07
9.78441e+07
9.88287e+07
1.00126e+08
1.01111e+08
1.024e+08
1.03477e+08
1.0493e+08
1.06229e+08
1.07965e+08
7.06412e+07
7.59691e+07
7.80821e+07
8.15729e+07
8.36143e+07
8.64046e+07
8.83023e+07
9.06658e+07
9.24383e+07
9.45228e+07
9.61918e+07
9.81018e+07
9.97055e+07
1.01544e+08
1.03151e+08
1.05037e+08
1.06744e+08
1.08813e+08
1.10744e+08
1.13056e+08
6.13971e+07
6.53337e+07
6.80501e+07
7.13761e+07
7.41261e+07
7.72864e+07
8.00043e+07
8.29928e+07
8.56657e+07
8.85155e+07
9.11367e+07
9.39276e+07
9.65437e+07
9.9367e+07
1.02057e+08
1.05027e+08
1.07891e+08
1.11135e+08
1.14302e+08
1.17881e+08
)
;

boundaryField
{
    back
    {
        type            empty;
    }
    left
    {
        type            symmetry;
    }
    hole
    {
        type            zeroGradient;
    }
    front
    {
        type            empty;
    }
    down
    {
        type            symmetry;
    }
    right
    {
        type            zeroGradient;
    }
    up
    {
        type            zeroGradient;
    }
}


// ************************************************************************* //
