/*--------------------------------*- C++ -*----------------------------------*\
| =========                 |                                                 |
| \\      /  F ield         | OpenFOAM: The Open Source CFD Toolbox           |
|  \\    /   O peration     | Version:  v2012                                 |
|   \\  /    A nd           | Website:  www.openfoam.com                      |
|    \\/     M anipulation  |                                                 |
\*---------------------------------------------------------------------------*/
FoamFile
{
    version     2.0;
    format      ascii;
    class       pointVectorField;
    location    "19";
    object      pointD;
}
// * * * * * * * * * * * * * * * * * * * * * * * * * * * * * * * * * * * * * //

dimensions      [0 1 0 0 0 0 0];


internalField   nonuniform List<vector> 
2014
(
(0.000872327 0 1.35713e-21)
(0.000943774 0 -4.62724e-23)
(0.000860503 -1.10651e-05 8.79076e-22)
(0 -0.000832283 9.48127e-22)
(0 7.54265e-05 0)
(0.000872327 0 1.35713e-21)
(0.000943774 0 -4.62724e-23)
(0.000860503 -1.10651e-05 8.79076e-22)
(0 -0.000832283 9.48127e-22)
(0 7.54265e-05 0)
(0.000879132 0 0)
(0.000883678 0 0)
(0.000885778 0 0)
(0.00088653 0 0)
(0.000885803 0 0)
(0.000884635 0 0)
(0.000882868 0 0)
(0.000880791 0 0)
(0.000879081 0 0)
(0.000877566 0 0)
(0.000876357 0 0)
(0.000875769 0 0)
(0.0008756 0 0)
(0.000875965 0 0)
(0.000876951 0 0)
(0.000878404 0 0)
(0.000880642 0 0)
(0.000883409 0 0)
(0.000886482 0 0)
(0.000890137 0 0)
(0.000894232 0 0)
(0.000899047 0 0)
(0.000904589 0 0)
(0.000909962 0 0)
(0.00091524 0 0)
(0.000920959 0 0)
(0.000927587 0 0)
(0.000933936 0 0)
(0.000939433 0 0)
(0.000944905 3.45426e-06 2.04279e-22)
(0.000943681 6.53033e-06 2.50552e-22)
(0.000941642 9.3244e-06 -1.6441e-22)
(0.000938864 1.18401e-05 1.05286e-22)
(0.000935205 1.43306e-05 -3.39001e-23)
(0.000930982 1.61895e-05 -3.08699e-22)
(0.00092658 1.74688e-05 -3.99548e-22)
(0.00092164 1.82883e-05 -4.32014e-23)
(0.000915776 1.84647e-05 4.70328e-23)
(0.000909802 1.80726e-05 -4.84933e-22)
(0.000904453 1.72097e-05 -1.83863e-23)
(0.000898476 1.56692e-05 6.9285e-22)
(0.000892543 1.34275e-05 2.44478e-22)
(0.000887478 1.09347e-05 8.33161e-23)
(0.000882216 7.70742e-06 1.50731e-21)
(0.000877294 4.0037e-06 1.18719e-21)
(0.000873165 4.07521e-07 8.096e-22)
(0.000869386 -3.29679e-06 1.08609e-21)
(0.000865815 -7.08461e-06 9.72267e-22)
(0.000852981 -1.47548e-05 2.32539e-22)
(0.000844925 -1.79882e-05 1.49051e-22)
(0.000836272 -2.12199e-05 -5.22736e-23)
(0.000827959 -2.39719e-05 -2.01325e-22)
(0.000819229 -2.62535e-05 -1.20799e-22)
(0.000809515 -2.81292e-05 -3.19351e-23)
(0.000800253 -2.95035e-05 1.84283e-22)
(0.000789309 -3.065e-05 1.38677e-22)
(0.000777656 -3.14818e-05 -2.64562e-23)
(0.000766583 -3.20324e-05 -3.11404e-22)
(0.00075427 -3.24379e-05 -2.84566e-22)
(0.00074154 -3.28374e-05 3.62574e-22)
(0.000726394 -3.3475e-05 2.8953e-22)
(0.000710538 -3.42187e-05 -2.29353e-22)
(0.000693289 -3.52995e-05 -3.76765e-22)
(0.000675295 -3.71876e-05 -2.63332e-22)
(0.000657103 -3.94787e-05 1.88909e-22)
(0.000636914 -4.23882e-05 5.30047e-22)
(0.000616348 -4.64557e-05 -3.18286e-22)
(0.000589612 -5.29118e-05 -1.90852e-21)
(0.00056124 -6.08861e-05 -7.8818e-22)
(0.000534733 -6.98549e-05 5.95132e-22)
(0.00050506 -8.09364e-05 1.34217e-22)
(0.000473678 -9.47389e-05 -4.53094e-22)
(0.000440871 -0.000111634 -1.11351e-21)
(0.000405923 -0.000131343 -3.07358e-22)
(0.000366993 -0.000155918 -8.35279e-22)
(0.000323246 -0.000185751 -5.71428e-22)
(0.000278375 -0.000220999 6.16907e-22)
(0.000233 -0.000262543 -3.49731e-22)
(0.000186978 -0.000310132 2.07535e-21)
(0.000139178 -0.000368386 4.7984e-21)
(9.15536e-05 -0.0004351 1.03472e-21)
(5.00849e-05 -0.000507147 -2.59125e-21)
(1.56373e-05 -0.000589991 -4.04361e-21)
(-5.99461e-06 -0.000668583 1.69236e-21)
(-1.53033e-05 -0.000732754 -2.22832e-22)
(-1.61936e-05 -0.000783268 -5.62717e-21)
(-1.22355e-05 -0.000816213 2.71093e-23)
(0 -0.000832721 0)
(0 -0.000826685 0)
(0 -0.000823123 0)
(0 -0.000820104 0)
(0 -0.000814713 0)
(0 -0.000793458 0)
(0 -0.000713411 0)
(0 -0.000502372 0)
(0 -0.000211314 0)
(0.000312104 0.00011329 -1.46552e-20)
(0.000585998 -8.67748e-05 -1.50118e-21)
(0.000750037 -0.000304658 1.42111e-20)
(0.000805759 -0.000422155 1.00916e-21)
(0.000799116 -0.000389447 -1.74386e-21)
(0.000802886 -0.000341372 -4.66544e-22)
(0.000808815 -0.000292679 1.81899e-21)
(0.000817956 -0.000247882 7.58317e-22)
(0.000827656 -0.000211982 1.68684e-22)
(0.000836796 -0.000178068 -1.59503e-21)
(0.000845573 -0.000146703 -8.25844e-22)
(0.000853604 -0.000113585 6.00195e-22)
(0.000860342 -8.19767e-05 -6.39632e-22)
(0.00086525 -5.51511e-05 -4.82187e-22)
(0.000868022 -2.93482e-05 1.34307e-21)
(0.000879132 0 0)
(0.000883678 0 0)
(0.000885778 0 0)
(0.00088653 0 0)
(0.000885803 0 0)
(0.000884635 0 0)
(0.000882868 0 0)
(0.000880791 0 0)
(0.000879081 0 0)
(0.000877566 0 0)
(0.000876357 0 0)
(0.000875769 0 0)
(0.0008756 0 0)
(0.000875965 0 0)
(0.000876951 0 0)
(0.000878404 0 0)
(0.000880642 0 0)
(0.000883409 0 0)
(0.000886482 0 0)
(0.000890137 0 0)
(0.000894232 0 0)
(0.000899047 0 0)
(0.000904589 0 0)
(0.000909962 0 0)
(0.00091524 0 0)
(0.000920959 0 0)
(0.000927587 0 0)
(0.000933936 0 0)
(0.000939433 0 0)
(0.000944905 3.45426e-06 2.04279e-22)
(0.000943681 6.53033e-06 2.50552e-22)
(0.000941642 9.3244e-06 -1.6441e-22)
(0.000938864 1.18401e-05 1.05286e-22)
(0.000935205 1.43306e-05 -3.39001e-23)
(0.000930982 1.61895e-05 -3.08699e-22)
(0.00092658 1.74688e-05 -3.99548e-22)
(0.00092164 1.82883e-05 -4.32014e-23)
(0.000915776 1.84647e-05 4.70328e-23)
(0.000909802 1.80726e-05 -4.84933e-22)
(0.000904453 1.72097e-05 -1.83863e-23)
(0.000898476 1.56692e-05 6.9285e-22)
(0.000892543 1.34275e-05 2.44478e-22)
(0.000887478 1.09347e-05 8.33161e-23)
(0.000882216 7.70742e-06 1.50731e-21)
(0.000877294 4.0037e-06 1.18719e-21)
(0.000873165 4.07521e-07 8.096e-22)
(0.000869386 -3.29679e-06 1.08609e-21)
(0.000865815 -7.08461e-06 9.72267e-22)
(0.000852981 -1.47548e-05 2.32539e-22)
(0.000844925 -1.79882e-05 1.49051e-22)
(0.000836272 -2.12199e-05 -5.22736e-23)
(0.000827959 -2.39719e-05 -2.01325e-22)
(0.000819229 -2.62535e-05 -1.20799e-22)
(0.000809515 -2.81292e-05 -3.19351e-23)
(0.000800253 -2.95035e-05 1.84283e-22)
(0.000789309 -3.065e-05 1.38677e-22)
(0.000777656 -3.14818e-05 -2.64562e-23)
(0.000766583 -3.20324e-05 -3.11404e-22)
(0.00075427 -3.24379e-05 -2.84566e-22)
(0.00074154 -3.28374e-05 3.62574e-22)
(0.000726394 -3.3475e-05 2.8953e-22)
(0.000710538 -3.42187e-05 -2.29353e-22)
(0.000693289 -3.52995e-05 -3.76765e-22)
(0.000675295 -3.71876e-05 -2.63332e-22)
(0.000657103 -3.94787e-05 1.88909e-22)
(0.000636914 -4.23882e-05 5.30047e-22)
(0.000616348 -4.64557e-05 -3.18286e-22)
(0.000589612 -5.29118e-05 -1.90852e-21)
(0.00056124 -6.08861e-05 -7.8818e-22)
(0.000534733 -6.98549e-05 5.95132e-22)
(0.00050506 -8.09364e-05 1.34217e-22)
(0.000473678 -9.47389e-05 -4.53094e-22)
(0.000440871 -0.000111634 -1.11351e-21)
(0.000405923 -0.000131343 -3.07358e-22)
(0.000366993 -0.000155918 -8.35279e-22)
(0.000323246 -0.000185751 -5.71428e-22)
(0.000278375 -0.000220999 6.16907e-22)
(0.000233 -0.000262543 -3.49731e-22)
(0.000186978 -0.000310132 2.07535e-21)
(0.000139178 -0.000368386 4.7984e-21)
(9.15536e-05 -0.0004351 1.03472e-21)
(5.00849e-05 -0.000507147 -2.59125e-21)
(1.56373e-05 -0.000589991 -4.04361e-21)
(-5.99461e-06 -0.000668583 1.69236e-21)
(-1.53033e-05 -0.000732754 -2.22832e-22)
(-1.61936e-05 -0.000783268 -5.62717e-21)
(-1.22355e-05 -0.000816213 2.71093e-23)
(0 -0.000832721 0)
(0 -0.000826685 0)
(0 -0.000823123 0)
(0 -0.000820104 0)
(0 -0.000814713 0)
(0 -0.000793458 0)
(0 -0.000713411 0)
(0 -0.000502372 0)
(0 -0.000211314 0)
(0.000312104 0.00011329 -1.46552e-20)
(0.000585998 -8.67748e-05 -1.50118e-21)
(0.000750037 -0.000304658 1.42111e-20)
(0.000805759 -0.000422155 1.00916e-21)
(0.000799116 -0.000389447 -1.74386e-21)
(0.000802886 -0.000341372 -4.66544e-22)
(0.000808815 -0.000292679 1.81899e-21)
(0.000817956 -0.000247882 7.58317e-22)
(0.000827656 -0.000211982 1.68684e-22)
(0.000836796 -0.000178068 -1.59503e-21)
(0.000845573 -0.000146703 -8.25844e-22)
(0.000853604 -0.000113585 6.00195e-22)
(0.000860342 -8.19767e-05 -6.39632e-22)
(0.00086525 -5.51511e-05 -4.82187e-22)
(0.000868022 -2.93482e-05 1.34307e-21)
(0.000749913 -7.73953e-06 0)
(0.000830069 5.52633e-06 0)
(0.000592978 -0.000131714 0)
(0.000740031 4.25063e-06 0)
(0.000836422 1.18062e-05 0)
(0.000835212 -6.09651e-06 0)
(0.000891447 4.59341e-06 0)
(0.000412371 -0.00039379 0)
(0.000843596 -2.55559e-05 0)
(0.000596793 -4.43545e-05 0)
(0.000769791 -6.48495e-06 0)
(0.00086624 7.32993e-06 0)
(0.000850791 4.67756e-06 0)
(0.000768737 -9.63464e-05 0)
(0.000876714 3.87309e-06 0)
(0.000648343 -1.48378e-05 0)
(0.00077407 9.72241e-06 0)
(0.000805153 1.04124e-05 0)
(0.000393064 -0.000249766 0)
(0.000645955 -0.000246049 0)
(0.000714029 -1.13093e-05 0)
(0.000795191 -1.47206e-05 0)
(0.000472797 -0.000118676 0)
(0.000703359 -5.31925e-05 0)
(0.000918904 4.53561e-06 0)
(0.000845608 -9.3859e-06 0)
(0.000889988 3.75938e-06 0)
(0.000867206 6.99004e-06 0)
(0.000813235 -2.98292e-06 0)
(0.000132233 -0.000681053 0)
(0.000864108 3.9087e-06 0)
(0.000711494 -9.9027e-07 0)
(0.000865271 6.46275e-06 0)
(0.000442124 -0.000532546 0)
(0.00086909 -4.38982e-06 0)
(0.000905035 7.46137e-06 0)
(0.000867876 1.39297e-06 0)
(0.00081482 -5.04829e-06 0)
(0.000872236 -3.22009e-05 0)
(0.000870974 5.68058e-06 0)
(0.000836956 -7.13092e-05 0)
(0.000772832 3.89167e-06 0)
(0.000778374 -3.26318e-05 0)
(0.000840586 9.17698e-06 0)
(0.000573222 -4.17566e-05 0)
(0.000237962 -0.000429406 0)
(0.000820394 1.01934e-05 0)
(0.000664141 -1.9079e-05 0)
(0.000815552 -1.75734e-05 0)
(0.000755665 -0.000183853 0)
(0.00090587 2.71776e-06 0)
(0.00084616 6.2503e-08 0)
(0.000741749 -1.69433e-05 0)
(0.000876779 4.64416e-06 0)
(0.000602353 -7.30259e-05 0)
(0.000679109 -2.33335e-05 0)
(0.000499849 -7.90912e-05 0)
(0.000516267 -0.000254597 0)
(0.000850361 1.00618e-05 0)
(0.000648644 -0.000353434 0)
(0.000870332 3.58955e-06 0)
(0.000803612 2.86055e-06 0)
(0.000775368 1.05492e-05 0)
(0.000685547 -0.000130821 0)
(0.000645759 -1.77164e-05 0)
(0.000365177 -0.000193362 0)
(0.00078909 5.37713e-06 0)
(0.000701292 -6.3183e-07 0)
(0.000768558 -2.06063e-05 0)
(0.000158375 -0.00070386 0)
(0.000896378 8.48105e-06 0)
(0.00080502 -0.000133046 0)
(0.000602021 -3.43685e-05 0)
(0.000885841 3.31606e-06 0)
(0.000880607 4.39977e-06 0)
(0.000923114 8.76834e-06 0)
(0.0008639 -9.90214e-07 0)
(0.000504051 -0.000151297 0)
(0.000805739 1.25088e-05 0)
(0.000879576 -1.10192e-05 0)
(0.000703288 -5.27521e-06 0)
(0.000825372 1.19858e-05 0)
(0.000871369 4.77402e-06 0)
(0.000846922 1.00387e-05 0)
(0.000932582 3.68152e-06 0)
(0.000851965 -1.08596e-05 0)
(0.000749839 -3.60456e-06 0)
(0.00085768 1.53415e-07 0)
(0.000850064 6.9548e-06 0)
(0.000744086 7.34085e-06 0)
(0.000810853 7.31568e-06 0)
(0.000887127 7.78475e-06 0)
(0.00084653 -7.69176e-06 0)
(0.000792359 -8.14636e-06 0)
(0.000256063 -0.000325976 0)
(0.000803468 -6.00761e-05 0)
(0.000907872 5.52312e-06 0)
(0.000848657 -5.29459e-06 0)
(0.000813904 -8.23719e-06 0)
(0.000833326 1.81033e-06 0)
(0.000745039 -0.000262994 0)
(0.000131667 -0.000576831 0)
(0.000853082 9.87012e-06 0)
(3.31896e-05 -0.00078982 0)
(0.00068787 -2.3544e-05 0)
(0.000376307 -0.000331523 0)
(0.000558556 -0.0003085 0)
(0.000743615 -2.5587e-05 0)
(0.000713952 -8.35449e-05 0)
(0.000821848 4.9258e-06 0)
(0.000796281 -2.15371e-05 0)
(0.000622391 -0.000182998 0)
(0.000828195 -1.80656e-05 0)
(0.000756347 4.70225e-06 0)
(0.000876018 3.2981e-07 0)
(0.000896895 3.82032e-06 0)
(0.000859666 -6.68622e-05 0)
(0.000916996 2.11574e-06 0)
(0.000899292 1.9503e-06 0)
(0.000875169 5.73893e-06 0)
(0.00043135 -0.000119687 0)
(0.000875764 3.78011e-06 0)
(0.000545198 -7.62409e-05 0)
(0.000255579 -0.000507779 0)
(0.000466834 -0.000469661 0)
(0.0008768 4.85311e-06 0)
(0.00071298 -2.3666e-05 0)
(0.000653338 -8.44692e-05 0)
(0.000319234 -0.00053372 0)
(0.000866549 7.41521e-06 0)
(0.000714979 -7.01424e-06 0)
(0.000767796 7.13766e-06 0)
(0.000829971 -1.07597e-05 0)
(0.000877578 -2.71353e-05 0)
(0.00086435 2.62895e-06 0)
(0.000855333 -4.1214e-05 0)
(0.00086522 -1.44886e-05 0)
(0.000873693 2.9987e-06 0)
(0.000815864 -1.87748e-05 0)
(0.000782728 -1.30961e-05 0)
(0.000848281 4.75294e-06 0)
(7.05326e-05 -0.000773475 0)
(0.000698184 -0.000438235 0)
(0.000511202 -7.10497e-05 0)
(0.000906226 3.97465e-06 0)
(0.000734446 -7.90867e-07 0)
(0.000930377 7.06417e-06 0)
(0.000861492 -3.9345e-06 0)
(0.000860701 7.17287e-06 0)
(0.000863703 9.69681e-07 0)
(0.000772662 -1.25526e-05 0)
(0.000857041 7.15306e-06 0)
(0.000538661 -0.000183929 0)
(0.000515426 -0.000393904 0)
(0.000673038 -7.66234e-06 0)
(0.000628219 -3.17026e-05 0)
(0.000911697 1.16716e-05 0)
(0.00087743 5.31851e-06 0)
(0.000222142 -0.000695022 0)
(0.000674858 -9.88308e-06 0)
(0.000829942 -2.89073e-06 0)
(0.000653156 -4.79572e-05 0)
(0.000534802 -0.000105664 0)
(0.000879775 6.11942e-06 0)
(0.000764674 -6.25642e-05 0)
(0.000812711 -1.3095e-05 0)
(0.000883598 4.80893e-06 0)
(0.000793619 -2.47976e-06 0)
(0.000880817 -3.03599e-06 0)
(0.000556817 -5.2607e-05 0)
(0.000891331 5.87555e-06 0)
(0.00061686 -2.49386e-05 0)
(0.000881998 -1.5702e-05 0)
(0.000872697 3.01684e-06 0)
(0.000779194 2.55204e-08 0)
(0.000853252 9.08046e-06 0)
(0.000697773 -0.000183555 0)
(0.000801674 1.14296e-05 0)
(0.000837488 -0.000110274 0)
(0.000895722 5.43689e-06 0)
(0.000840161 3.03481e-07 0)
(0.00056013 -5.07833e-05 0)
(0.00073676 -1.08777e-05 0)
(0.000830227 7.79196e-06 0)
(0.000792754 -8.30039e-07 0)
(0.000838846 8.25527e-06 0)
(0.000748962 -2.50235e-05 0)
(0.000789414 7.7745e-06 0)
(0.000796926 -0.000189684 0)
(0.000806616 -9.25976e-05 0)
(0.000640209 -2.69106e-05 0)
(0.00088366 2.30004e-06 0)
(0.000736679 -0.000344321 0)
(0.000780387 -2.42168e-05 0)
(0.000824204 1.0319e-05 0)
(0.000277733 -0.000261129 0)
(0.000640944 -2.08791e-05 0)
(0.000165168 -0.000446562 0)
(6.1462e-05 -0.000703475 0)
(0.000376724 -0.000161937 0)
(0.000654811 -2.95349e-05 0)
(0.000799445 1.18645e-05 0)
(0.000742805 -0.000134869 0)
(0.00082389 1.211e-05 0)
(0.000893475 1.74714e-06 0)
(0.000816388 1.44998e-06 0)
(0.000852563 -2.33058e-06 0)
(0.000808145 -2.32543e-05 0)
(0.000691917 -1.26164e-05 0)
(0.000850099 2.38133e-06 0)
(0.000919621 1.13145e-05 0)
(0.000603873 -3.28806e-05 0)
(0.000847963 1.07646e-05 0)
(0.00086351 5.25132e-06 0)
(0.000701106 -3.12935e-05 0)
(0.000911125 1.3973e-06 0)
(0.000419702 -0.000189233 0)
(0.000682118 -9.8869e-06 0)
(0.000839141 1.05402e-05 0)
(0.000846687 -1.8586e-06 0)
(0.000460225 -9.91961e-05 0)
(0.000873573 3.09117e-06 0)
(0.000733873 -4.83085e-05 0)
(0.000613507 -4.76668e-05 0)
(0.000336328 -0.000315223 0)
(0.000831721 -1.35904e-05 0)
(0.000865381 7.12877e-06 0)
(0.000831528 -4.69339e-05 0)
(0.000879295 2.40833e-06 0)
(0.000839373 -1.64615e-05 0)
(0.00058559 -0.000109202 0)
(0.000657952 -0.000113512 0)
(0.000758142 -1.05925e-05 0)
(0.00089682 3.12365e-06 0)
(0.000492266 -9.22735e-05 0)
(0.000669551 -0.000288482 0)
(0.000167525 -0.000668637 0)
(0.000727636 -2.56367e-05 0)
(0.000874613 3.18136e-06 0)
(0.000926938 2.083e-06 0)
(0.000792271 4.79383e-06 0)
(0.000708534 -1.4691e-06 0)
(0.000450428 -0.000234888 0)
(0.000885098 4.18736e-06 0)
(0.000718943 -1.5914e-05 0)
(0.000751214 2.68459e-06 0)
(0.000898243 1.14711e-05 0)
(0.000777815 -0.000247268 0)
(0.000587 -0.000262397 0)
(0.000482832 -0.000315841 0)
(0.000740432 5.70923e-06 0)
(0.000868734 -5.39242e-05 0)
(0.000813838 -3.6165e-05 0)
(0.000877607 1.05148e-06 0)
(0.000785549 1.16719e-05 0)
(0.000758134 8.50508e-06 0)
(0.000858619 9.15866e-06 0)
(0.000865769 -2.62448e-05 0)
(0.000882473 4.81094e-06 0)
(0.000886906 6.25148e-06 0)
(0.000758999 1.46073e-06 0)
(0.000342092 -0.000240987 0)
(0.000815317 4.89671e-06 0)
(0.00082325 1.24917e-05 0)
(0.000786007 1.00109e-05 0)
(0.000732052 -0.000389142 0)
(0.000871775 5.84095e-06 0)
(0.000803771 9.73197e-06 0)
(0.000888051 9.35247e-06 0)
(0.000858338 5.52048e-06 0)
(0.000865844 5.73648e-06 0)
(0.000729766 4.57242e-06 0)
(0.000936481 2.57916e-06 0)
(0.000853744 -1.17899e-05 0)
(0.000913282 3.38845e-06 0)
(0.000543691 -6.49834e-05 0)
(0.000710534 1.30864e-06 0)
(0.000779771 -1.59744e-05 0)
(0.000830372 -5.92864e-07 0)
(0.000330037 -0.000408114 0)
(0.000776809 -0.000123654 0)
(0.000855771 8.89776e-06 0)
(0.000874536 4.26309e-06 0)
(0.000753322 -1.73783e-05 0)
(0.000601178 -3.1744e-05 0)
(0.000910567 7.23268e-06 0)
(0.000863882 -3.35705e-07 0)
(0.000414321 -0.000151265 0)
(0.000850695 8.06409e-06 0)
(9.6735e-05 -0.000770703 0)
(0.000915476 5.56247e-06 0)
(0.000852381 -5.46464e-06 0)
(0.000773407 7.82672e-06 0)
(0.000859257 -2.79727e-06 0)
(0.000857997 1.16985e-06 0)
(0.000875622 1.96072e-06 0)
(0.000816581 -2.28569e-05 0)
(0.000760824 -2.63963e-05 0)
(0.000908926 1.31568e-05 0)
(0.000674956 -7.46223e-06 0)
(0.000876283 3.89284e-06 0)
(0.000806465 -6.36473e-06 0)
(0.000905012 1.2658e-06 0)
(0.000301418 -0.000224103 0)
(0.000823829 -8.39826e-06 0)
(0.000930691 9.78115e-06 0)
(0.000869747 8.19976e-07 0)
(0.000465242 -0.000143856 0)
(0.000840806 -8.943e-06 0)
(0.000858096 8.84604e-06 0)
(0.000721748 -0.000112515 0)
(0.000871444 5.29972e-06 0)
(0.000835252 1.17992e-05 0)
(0.000823476 -0.000169708 0)
(0.000292544 -0.000602036 0)
(0.000807588 -1.69819e-05 0)
(0.000844801 1.09996e-05 0)
(0.000806841 6.66627e-06 0)
(0.00071531 -5.98424e-06 0)
(0.000696242 -2.71461e-05 0)
(0.000752239 -7.42214e-06 0)
(0.000800309 -1.02272e-05 0)
(0.000102409 -0.000528984 0)
(0.00093644 6.36545e-06 0)
(0.000863022 -4.81607e-06 0)
(0.00060396 -3.92333e-05 0)
(0.000925151 3.73169e-06 0)
(3.1312e-05 -0.000806245 0)
(0.000887465 1.30143e-06 0)
(0.000844733 -1.20244e-05 0)
(0.000899211 7.64881e-06 0)
(0.000884886 4.62008e-06 0)
(0.00064406 -0.000147768 0)
(1.1044e-05 -0.00081645 0)
(0.000815125 9.45897e-06 0)
(0.000880599 -6.98844e-07 0)
(0.000890637 2.96708e-06 0)
(0.000900565 4.61678e-06 0)
(0.000572734 -0.000432221 0)
(0.000174372 -0.000388074 0)
(0.000724705 -0.000211009 0)
(0.00083616 -1.63195e-05 0)
(0.000311904 -0.000498888 0)
(0.000852117 -9.50347e-05 0)
(0.000683244 -0.000408215 0)
(0.000454008 -0.000195434 0)
(0.000762193 9.52926e-06 0)
(0.000884483 -5.3059e-06 0)
(0.00019999 -0.000514 0)
(0.000552361 -0.000136574 0)
(0.000792999 -2.09318e-05 0)
(0.000719878 -1.58286e-05 0)
(0.000644006 -6.38903e-05 0)
(0.000788054 -1.97976e-05 0)
(0.000874621 -9.98698e-06 0)
(0.000871203 6.49834e-06 0)
(0.000647455 -3.30122e-05 0)
(0.000835393 3.85069e-06 0)
(0.000881219 3.8967e-06 0)
(0.000812106 1.16377e-05 0)
(0.000645974 -1.5584e-05 0)
(0.000765139 3.27743e-07 0)
(0.00086921 5.40286e-06 0)
(0.000860631 -8.54335e-06 0)
(0.000724633 -1.39532e-06 0)
(0.000876901 -1.89293e-05 0)
(0.000225865 -0.000628709 0)
(0.000862728 -4.68161e-05 0)
(0.000668736 -3.08009e-05 0)
(0.000529493 -6.52438e-05 0)
(0.000755338 8.38707e-06 0)
(0.000874943 1.95451e-06 0)
(0.000876885 4.94025e-06 0)
(0.000473656 -9.1374e-05 0)
(0.000732037 -5.43192e-06 0)
(0.000869781 2.0365e-06 0)
(0.000627131 -2.32324e-05 0)
(0.00069041 -7.19539e-05 0)
(0.000682618 -1.15354e-05 0)
(0.000838784 6.81184e-06 0)
(0.000838594 -7.43412e-06 0)
(0.000877945 4.9222e-06 0)
(0.000832204 1.09151e-05 0)
(4.45225e-05 -0.000800716 0)
(0.000861127 6.48603e-06 0)
(0.000867976 2.31118e-06 0)
(7.60319e-05 -0.000751281 0)
(0.000827139 -8.65063e-06 0)
(0.000155226 -0.000611139 0)
(0.000852645 1.41614e-06 0)
(0.000781037 -7.36455e-05 0)
(0.000783945 -0.000162916 0)
(0.000862766 4.26426e-07 0)
(0.000791043 -4.72069e-05 0)
(2.39575e-05 -0.000755828 0)
(0.000876192 -2.12947e-06 0)
(0.000493397 -0.000360025 0)
(0.000808596 -1.05138e-06 0)
(0.000779443 -8.29285e-06 0)
(0.000655941 -0.000201879 0)
(0.000819944 -0.000106427 0)
(0.000230873 -0.000385721 0)
(0.000869915 3.61937e-06 0)
(0.000812497 7.01859e-07 0)
(0.000703345 -1.73605e-05 0)
(0.000883294 -1.17799e-05 0)
(0.000577253 -0.00049635 0)
(0.000754437 -1.52582e-05 0)
(0.000767568 -2.29775e-05 0)
(0.000911376 4.63171e-06 0)
(0.000686682 -1.36545e-05 0)
(0.000527816 -6.32893e-05 0)
(0.000861453 8.40294e-06 0)
(0.000223772 -0.000312372 0)
(0.000788613 -2.56317e-05 0)
(0.000852249 -1.50655e-05 0)
(0.000779246 -0.000293176 0)
(0.000844405 -1.62434e-05 0)
(0.000869215 6.23407e-06 0)
(0.00072359 -1.50831e-07 0)
(6.29664e-05 -0.000636031 0)
(0.00057825 -4.76453e-05 0)
(0.000562925 -0.000208084 0)
(0.000594013 -0.000161476 0)
(0.000826198 -5.75517e-06 0)
(0.000873083 6.18181e-06 0)
(0.000822529 -6.1643e-05 0)
(0.000903065 3.44337e-06 0)
(0.000818466 1.26029e-05 0)
(0.000896438 1.24137e-05 0)
(0.000925603 5.37226e-06 0)
(0.000573988 -0.000346703 0)
(0.000693762 -3.6496e-06 0)
(0.000932339 1.59718e-06 0)
(0.000852715 -7.62774e-06 0)
(0.000378111 -0.000152282 0)
(0.000858416 8.07041e-06 0)
(0.00083803 5.96084e-06 0)
(0.00082291 3.48518e-06 0)
(0.000825115 8.13351e-06 0)
(0.000740057 -3.2e-06 0)
(0.000916828 8.45419e-07 0)
(0.000748894 -8.54415e-05 0)
(0.00077414 -5.65572e-06 0)
(0.000617957 -0.000283392 0)
(0.000846111 -8.2188e-05 0)
(0.00080055 -4.28155e-06 0)
(0.000401859 -0.000278413 0)
(0.000429698 -0.000478458 0)
(0.000275823 -0.000212767 0)
(0.000882948 4.7861e-06 0)
(0.000897629 1.20459e-06 0)
(0.000853957 3.56781e-06 0)
(0.000828919 9.21836e-06 0)
(0.000912792 9.03177e-06 0)
(0.000114437 -0.000730331 0)
(0.000890209 4.10682e-06 0)
(0.000171782 -0.000490531 0)
(0.000562111 -8.32692e-05 0)
(0.00051888 -9.86517e-05 0)
(0.000670887 -2.26026e-05 0)
(0.00071701 -6.3496e-05 0)
(0.000699113 -0.000253674 0)
(0.000414772 -0.000434194 0)
(0.000840226 8.05145e-06 0)
(0.00078967 -1.1993e-05 0)
(0.000890305 6.31503e-06 0)
(0.000876658 1.99695e-06 0)
(0.00044898 -0.000280288 0)
(0.000765974 -3.10496e-06 0)
(0.00085088 -5.97876e-05 0)
(0.000853957 -3.01807e-05 0)
(0.000894805 4.31415e-06 0)
(0.000841659 1.07431e-06 0)
(0.000874263 -3.69341e-05 0)
(0.000818898 -1.38979e-05 0)
(0.000875725 5.14801e-06 0)
(0.000875998 -1.81512e-05 0)
(0.000821404 -1.83727e-05 0)
(0.000879246 3.50571e-07 0)
(0.00082862 -2.08217e-05 0)
(0.000670368 -1.02538e-05 0)
(0.000399198 -0.000588358 0)
(0.000798975 -2.55234e-05 0)
(0.000777091 6.5219e-06 0)
(0.000748482 -4.40551e-07 0)
(0.000305965 -0.000381333 0)
(0.000592737 -3.45048e-05 0)
(0.000208168 -0.000598673 0)
(0.000923017 6.74154e-06 0)
(0.000857808 -4.45316e-06 0)
(0.000883952 -2.55533e-06 0)
(0.000896865 6.14205e-06 0)
(0.000869415 4.66077e-06 0)
(0.00057614 -5.73027e-05 0)
(0.000720858 -3.58145e-05 0)
(0.000860303 -8.09183e-05 0)
(0.000755656 6.96591e-06 0)
(0.000902956 2.27839e-06 0)
(0.000456494 -0.000114851 0)
(0.00047441 -9.60865e-05 0)
(9.44344e-05 -0.000699619 0)
(0.000635215 -3.55903e-05 0)
(0.000693059 -0.000105113 0)
(0.000856624 -2.13888e-06 0)
(0.000857579 8.02623e-06 0)
(0.000811123 1.23519e-05 0)
(0.000856123 5.82508e-06 0)
(0.000839178 1.10817e-05 0)
(0.000835934 -1.39075e-05 0)
(0.000731886 -0.000167145 0)
(0.000910816 2.4206e-06 0)
(0.000404092 -0.000356868 0)
(0.00089448 2.82536e-06 0)
(0.000716112 -2.91595e-05 0)
(0.000875056 1.74498e-06 0)
(0.000926303 1.17891e-05 0)
(0.000326452 -0.000278411 0)
(0.000412877 -0.000126849 0)
(0.00085331 1.60372e-06 0)
(0.000806122 -1.17654e-05 0)
(0.00078892 9.98379e-06 0)
(0.000867516 6.77288e-06 0)
(0.000806552 -1.19841e-05 0)
(0.000822543 6.81097e-06 0)
(0.000547222 -5.38228e-05 0)
(0.00078291 -0.000438422 0)
(0.000876742 4.04436e-06 0)
(0.000859321 2.89399e-06 0)
(0.00079158 1.15998e-05 0)
(0.000778556 1.33001e-06 0)
(0.000919197 1.38059e-05 0)
(0.000671238 -0.000164463 0)
(0.000792197 2.64745e-07 0)
(0.000622448 -0.000107909 0)
(0.000873229 -1.58692e-05 0)
(0.000892116 8.41996e-06 0)
(0.000797595 -5.68879e-06 0)
(0.000818588 -4.86762e-06 0)
(0.000729075 -1.96794e-05 0)
(0.000740743 2.56701e-06 0)
(0.000845431 9.14539e-06 0)
(0.000869965 -7.77596e-07 0)
(0.000864426 7.91998e-06 0)
(0.00089411 4.9139e-06 0)
(0.000644241 -2.32866e-05 0)
(0.000854719 9.83753e-06 0)
(2.7926e-05 -0.000810804 0)
(0.000780209 -2.7042e-06 0)
(0.000265939 -0.000450147 0)
(0.000884 4.64127e-06 0)
(0.000494449 -7.95489e-05 0)
(0.000825119 -2.62525e-05 0)
(0.00084885 7.12497e-06 0)
(0.000835578 -0.000142548 0)
(0.000876911 5.43119e-06 0)
(0.000872603 -3.68532e-05 0)
(0.000903032 6.13868e-06 0)
(0.000837485 1.1403e-05 0)
(0.000935812 8.79661e-06 0)
(0.000868855 -7.41781e-07 0)
(0.00010423 -0.00075341 0)
(0.000879163 -2.42454e-05 0)
(0.000872728 5.98448e-06 0)
(0.000659582 -1.63116e-05 0)
(0.000885318 -7.04638e-06 0)
(0.000777439 -2.08279e-05 0)
(0.000871865 2.70695e-06 0)
(0.000878436 1.61507e-06 0)
(0.000623178 -2.854e-05 0)
(0.000613263 -3.38294e-05 0)
(0.000653794 -1.48262e-05 0)
(0.000889711 4.3852e-06 0)
(0.000614746 -8.66026e-05 0)
(0.000772852 9.19597e-06 0)
(0.000421013 -0.000168509 0)
(0.000803107 -2.92347e-05 0)
(0.000840303 5.49322e-06 0)
(0.000869248 2.82602e-06 0)
(0.000756246 7.05146e-06 0)
(0.000869933 4.80407e-06 0)
(0.000761061 -4.71898e-05 0)
(0.000827706 -1.71928e-06 0)
(0.000821621 -4.6648e-08 0)
(0.00073871 -2.79062e-05 0)
(0.000498653 -7.94135e-05 0)
(0.000867566 6.69265e-06 0)
(0.000686679 -3.90736e-06 0)
(0.000859076 4.64802e-06 0)
(0.000840669 -5.32539e-05 0)
(0.000659582 -1.72435e-05 0)
(0.000891828 1.02358e-06 0)
(0.000802857 5.14962e-06 0)
(0.000725254 -2.2294e-05 0)
(0.000681548 -9.07591e-05 0)
(0.000871949 3.74217e-06 0)
(0.000682083 -4.57985e-05 0)
(0.000840701 -1.61049e-06 0)
(0.000672043 -3.47593e-05 0)
(0.000861022 3.33804e-06 0)
(0.0007931 9.5244e-06 0)
(0.000781329 2.90802e-06 0)
(0.000806434 -2.08823e-05 0)
(0.000789126 1.16265e-05 0)
(0.000884994 9.06633e-06 0)
(0.000502089 -0.000131881 0)
(0.000702877 -5.48809e-06 0)
(0.000622802 -2.42526e-05 0)
(0.000229041 -0.000621861 0)
(0.000847611 -2.23697e-06 0)
(0.000756362 -0.000218876 0)
(0.000772601 -2.77888e-05 0)
(0.000686187 -0.000218405 0)
(0.000906401 1.43922e-05 0)
(0.000882215 1.56534e-06 0)
(0.000764966 -0.000328852 0)
(0.000821139 8.28565e-06 0)
(0.000815201 1.14973e-05 0)
(0.000725238 4.21324e-06 0)
(0.000656732 -0.000392018 0)
(0.000411232 -0.000138918 0)
(0.000719014 -0.000300504 0)
(0.000585884 -4.23065e-05 0)
(0.000624047 -5.61144e-05 0)
(0.000849203 8.93987e-06 0)
(0.000872117 5.37985e-06 0)
(0.000844933 -3.42758e-06 0)
(0.000333623 -0.000186959 0)
(0.00088308 -1.24715e-06 0)
(0.000843681 2.96794e-06 0)
(0.000881649 5.36256e-06 0)
(0.000517548 -0.000168531 0)
(0.000876137 5.3233e-06 0)
(0.000614157 -4.04692e-05 0)
(0.000884163 4.94089e-06 0)
(0.000847879 9.91441e-06 0)
(0.000874562 3.53594e-06 0)
(0.000665711 -9.38372e-06 0)
(0.000799001 3.20578e-06 0)
(0.00081281 2.76863e-06 0)
(0.000798258 -1.75269e-05 0)
(1.54896e-05 -0.000818692 0)
(0.000768296 -1.01303e-05 0)
(0.00088202 4.4171e-06 0)
(0.000745363 -1.24697e-05 0)
(0.000864969 7.71391e-06 0)
(0.000694584 -3.00342e-06 0)
(0.000915162 1.47434e-05 0)
(0.000846539 1.0897e-05 0)
(0.000561571 -4.73584e-05 0)
(0.000605396 -0.0002221 0)
(0.000858768 8.96968e-06 0)
(0.00020616 -0.00069128 0)
(0.000770562 -0.000378952 0)
(0.000622756 -3.6377e-05 0)
(0.000834078 1.01705e-05 0)
(0.000575847 -4.15572e-05 0)
(0.000797444 6.79068e-06 0)
(0.000748605 -2.88177e-05 0)
(0.000623698 -2.25676e-05 0)
(0.000827529 1.11391e-05 0)
(0.000766046 -1.67597e-05 0)
(0.00010016 -0.00065142 0)
(0.000519706 -0.000256843 0)
(0.000539564 -0.000278212 0)
(0.00091932 3.21179e-06 0)
(0.000887827 5.07976e-06 0)
(0.000904466 1.01528e-05 0)
(0.000908013 9.31454e-06 0)
(0.000880994 -6.11197e-06 0)
(0.000798371 -0.000228351 0)
(0.000292484 -0.000273812 0)
(0.000691491 -6.2649e-06 0)
(0.0007893 -5.58108e-06 0)
(0.000830014 -8.69723e-06 0)
(0.00067416 -6.28465e-05 0)
(0.000882558 -1.11808e-05 0)
(0.000907968 3.17416e-06 0)
(0.000575551 -9.36085e-05 0)
(0.000822499 -2.42477e-06 0)
(0.000801608 8.72273e-06 0)
(0.00050192 -0.00022346 0)
(0.000693083 -1.59309e-05 0)
(0.000560943 -0.00015429 0)
(0.000875888 -5.39563e-06 0)
(0.000587722 -6.45414e-05 0)
(0.000855278 -7.65793e-06 0)
(0.000922394 1.18677e-06 0)
(0.00082257 -0.000135866 0)
(0.000871027 2.25949e-06 0)
(0.000868544 -4.74402e-05 0)
(0.000880198 3.22991e-06 0)
(0.000528369 -6.62868e-05 0)
(0.000878007 5.19057e-06 0)
(0.000930354 5.2704e-06 0)
(0.000939419 4.12131e-06 0)
(0.000860598 -7.95237e-06 0)
(0.00083706 -3.66722e-06 0)
(2.73082e-05 -0.000701929 0)
(0.000742052 -2.18665e-05 0)
(0.000760842 2.35937e-06 0)
(0.000876888 3.9552e-06 0)
(0.000314158 -0.00062425 0)
(0.000901427 8.26477e-07 0)
(0.000809537 1.23226e-05 0)
(0.000842864 3.36982e-06 0)
(0.00086041 8.28634e-06 0)
(0.000888903 4.88418e-06 0)
(0.000877455 9.80354e-07 0)
(0.000803285 -7.61827e-05 0)
(0.000773745 5.23868e-06 0)
(0.00078535 5.61884e-06 0)
(0.000649926 -2.62358e-05 0)
(0.000553252 -5.80795e-05 0)
(0.000691142 -0.000329295 0)
(0.000864901 -3.63341e-05 0)
(0.000628796 -0.000315933 0)
(0.000791934 2.701e-06 0)
(9.09588e-05 -0.000761783 0)
(0.000753899 5.06196e-06 0)
(0.0008676 1.95718e-06 0)
(0.000834482 -2.01929e-05 0)
(0.000596179 -0.000377321 0)
(0.000800806 -0.000110085 0)
(0.000846201 -0.000120995 0)
(0.00075682 -2.11819e-05 0)
(0.000758977 -0.000153251 0)
(0.00078928 -9.44622e-05 0)
(0.000821929 -1.08454e-05 0)
(0.000217647 -0.000414819 0)
(0.000736434 -1.36667e-05 0)
(0.000849306 -5.31387e-07 0)
(0.000243587 -0.000272464 0)
(0.000728266 -9.75839e-06 0)
(0.00090292 1.45431e-05 0)
(0.000742696 1.14672e-06 0)
(0.000704793 -1.45901e-05 0)
(0.000771521 -2.39474e-05 0)
(0.000543826 -0.000119 0)
(0.000879301 5.16818e-06 0)
(0.000774118 1.06386e-05 0)
(0.000889336 2.18023e-06 0)
(0.000705017 -2.95954e-05 0)
(0.000326273 -0.000231383 0)
(0.000778402 -0.000202376 0)
(0.000895199 2.15797e-06 0)
(0.00011596 -0.000458883 0)
(0.000582998 -4.05719e-05 0)
(0.000571229 -5.14771e-05 0)
(0.000699965 -2.31154e-05 0)
(0.000816462 1.07886e-05 0)
(0.000663178 -2.22615e-05 0)
(0.000751478 -3.43154e-05 0)
(0.000649939 -3.53364e-05 0)
(0.000880878 -1.10819e-05 0)
(0.000815561 -1.04698e-05 0)
(0.000739722 -7.17306e-06 0)
(0.000833936 -9.0339e-05 0)
(0.000838037 -3.64877e-06 0)
(0.00049169 -0.000121537 0)
(0.000797096 1.09755e-05 0)
(0.000806293 -2.60613e-05 0)
(0.000852481 1.01046e-05 0)
(0.000876037 1.38454e-06 0)
(0.000888791 1.0564e-05 0)
(0.000813375 8.97803e-06 0)
(0.000493055 -0.000199772 0)
(0.000864375 5.76418e-06 0)