/*--------------------------------*- C++ -*----------------------------------*\
| =========                 |                                                 |
| \\      /  F ield         | OpenFOAM: The Open Source CFD Toolbox           |
|  \\    /   O peration     | Version:  v2012                                 |
|   \\  /    A nd           | Website:  www.openfoam.com                      |
|    \\/     M anipulation  |                                                 |
\*---------------------------------------------------------------------------*/
FoamFile
{
    version     2.0;
    format      ascii;
    class       volSymmTensorField;
    location    "19";
    object      sigma;
}
// * * * * * * * * * * * * * * * * * * * * * * * * * * * * * * * * * * * * * //

dimensions      [1 -1 -2 0 0 0 0];


internalField   nonuniform List<symmTensor> 
1896
(
(1.27248e+07 -1.34915e+06 8.91225e-10 7.164e+06 -2.36742e-11 6.09364e+06)
(1.41246e+07 -1.23115e+06 9.99838e-10 975776 4.41066e-10 4.39545e+06)
(1.21923e+07 -689064 0 6.78077e+06 0 5.58455e+06)
(2.09901e+07 -1.33883e+07 4.51275e-09 -2.41883e+07 2.93978e-11 1.28104e+06)
(1.24176e+07 -1.467e+06 1.06548e-09 6.83129e+06 -2.00976e-10 5.86223e+06)
(1.24067e+07 -1.76941e+06 -5.20363e-10 6.48874e+06 9.75737e-11 5.64745e+06)
(2.713e+07 -9.43849e+06 -1.12471e-08 -1.92359e+07 -9.93263e-09 880689)
(9.96549e+06 -2.51767e+06 -7.61325e-10 5.67777e+06 1.01883e-10 4.75396e+06)
(-1.07441e+06 -4.18366e+06 -7.00012e-10 -4.36739e+06 1.60083e-09 -1.38567e+06)
(9.35332e+06 -1.86239e+06 1.02564e-09 5.81681e+06 -1.7458e-10 4.5319e+06)
(1.27777e+07 -247294 2.45302e-10 8.23515e+06 1.7259e-10 6.29451e+06)
(1.17786e+06 -4.15309e+06 -2.04051e-10 3.17649e+06 -2.23856e-10 1.47527e+06)
(3.17125e+06 -2.74163e+06 1.21474e-09 4.45695e+06 -5.82514e-10 1.96976e+06)
(1.72353e+06 -3.3496e+06 -1.02375e-09 3.28256e+06 3.09896e-10 1.49393e+06)
(2.64686e+07 -1.08515e+07 -2.16121e-09 -1.92865e+07 1.19097e-09 1.99368e+06)
(4.37657e+07 1.1138e+07 6.87898e-09 163413 -6.70435e-09 1.34677e+07)
(1.71148e+07 -2.83581e+06 -2.61719e-09 481449 6.77148e-11 5.50041e+06)
(-9.19209e+06 -3.04876e+07 1.54228e-08 -7.53001e+06 5.30633e-09 1.42332e+07)
(1.87337e+07 -5.32425e+06 1.99239e-09 964425 3.72922e-10 6.03356e+06)
(-1.65072e+07 1.32812e+07 -3.91664e-09 -1.41846e+07 6.32199e-10 -8.87826e+06)
(-2.70612e+06 7.32724e+06 -6.44014e-11 -3.21172e+07 -1.74837e-09 -1.19863e+07)
(1.40572e+07 -3.49877e+06 3.37987e-10 2.79477e+06 2.86112e-10 4.99161e+06)
(4.3837e+07 -6.17092e+06 5.10154e-09 -207809 2.87485e-09 1.29675e+07)
(4.55007e+07 -5.66303e+06 -3.48674e-10 -21354.9 -1.00825e-09 1.48938e+07)
(1.46529e+07 -2.15431e+06 8.25227e-10 1.02188e+06 -4.42745e-11 4.91127e+06)
(1.43596e+07 -2.19382e+06 -4.31195e-10 1.4015e+06 -3.30491e-10 4.72853e+06)
(1.97469e+06 -1.98241e+06 -7.4402e-10 4.36582e+06 3.899e-10 2.3304e+06)
(4.07529e+06 -2.02181e+06 -5.45812e-10 4.96795e+06 2.63568e-10 2.45615e+06)
(1.31068e+07 -1.01195e+06 -1.53987e-10 7.41856e+06 2.0162e-10 5.98952e+06)
(2.08122e+07 -7.01841e+06 -1.8687e-09 1.12865e+06 -7.65411e-10 7.13348e+06)
(2.06127e+07 -7.36876e+06 -4.41338e-10 1.45699e+06 2.42988e-10 6.01732e+06)
(1.38252e+07 -406309 1.23009e-09 219025 4.78845e-10 4.14763e+06)
(-2.80548e+06 -2.74162e+06 8.56357e-10 -810824 -4.14715e-10 -857265)
(1.3793e+07 -864344 0 794477 0 4.52296e+06)
(3.70564e+07 -1.83092e+06 2.96852e-09 113881 1.17711e-09 1.12611e+07)
(1.33962e+07 -706623 1.92326e-09 7.66317e+06 7.30398e-10 6.47931e+06)
(1.93492e+07 -7.00955e+06 2.97033e-09 1.40067e+06 1.98274e-10 6.32933e+06)
(1.34975e+07 -1.07834e+06 -8.14934e-11 2.67484e+06 -6.48857e-11 4.69487e+06)
(1.26434e+07 -2.52688e+07 -6.33479e-09 8.25131e+06 1.57161e-09 9.48458e+06)
(2.174e+07 -7.31298e+06 2.06399e-09 1.88602e+06 -2.6709e-10 6.63205e+06)
(1.34632e+07 -62779.8 2.25394e-09 82539.4 1.06082e-09 4.07478e+06)
(-1.81814e+07 4.75099e+06 -5.9881e-09 -8.8933e+06 -1.21486e-09 -7.08716e+06)
(1.37671e+07 -8.84102e+06 -4.28805e-10 2.70487e+06 -1.98219e-10 4.80154e+06)
(6.63576e+06 -5.69685e+06 5.19968e-09 -5.43415e+06 4.74135e-10 823639)
(2.92557e+06 -1.47151e+06 -2.13702e-10 4.90668e+06 1.69133e-10 2.71288e+06)
(2.93812e+06 -1.65408e+06 -1.94481e-10 4.40807e+06 2.57479e-11 1.79315e+06)
(2.61563e+07 -7.03852e+06 6.00637e-09 -1.81271e+07 6.15475e-09 4.63816e+06)
(1.29306e+07 -533851 1.89775e-09 8.12896e+06 -1.71839e-10 6.23438e+06)
(1.91646e+07 -7.56939e+06 -2.0405e-09 -2.98404e+06 5.11603e-09 5.02373e+06)
(4.33979e+07 -1.27946e+06 1.54971e-09 -1.39975e+07 -5.53901e-09 1.02013e+07)
(1.18283e+07 -846066 -1.51951e-10 6.7696e+06 -1.10262e-10 5.70923e+06)
(1.09303e+07 -2.30485e+06 -3.20516e-11 5.80838e+06 -6.11624e-11 5.27194e+06)
(1.08481e+07 -2.23499e+06 2.79741e-10 5.99252e+06 1.05806e-10 4.67126e+06)
(1.40565e+07 -3.37857e+06 4.72036e-11 2.61079e+06 -3.23053e-10 5.02767e+06)
(1.47852e+06 -5.44052e+06 -3.20728e-09 -4.28483e+06 -1.41751e-09 -1.07952e+06)
(1.47275e+07 -424916 -1.23867e-09 122079 1.00308e-10 4.5429e+06)
(7.47654e+06 -7.71718e+06 -7.43882e-09 -3.17484e+06 -3.51544e-09 1.58942e+06)
(1.31934e+07 -1.11969e+06 -1.00296e-09 7.36655e+06 -8.35543e-10 6.28066e+06)
(1.3445e+07 -501947 -6.55845e-10 2.87872e+06 -4.58684e-10 5.14024e+06)
(2.27019e+07 -881851 -1.46464e-09 379637 1.00952e-09 7.12908e+06)
(9.81655e+06 -2.29068e+06 -1.92872e-10 5.8255e+06 9.71684e-11 4.67595e+06)
(4.49437e+07 -3.55734e+06 -9.58999e-09 -1.56003e+07 -1.39364e-08 6.95229e+06)
(4.08741e+07 -2.6124e+06 -1.232e-08 -9.33466e+06 8.25663e-10 9.07686e+06)
(1.26383e+07 -3.07245e+06 7.31708e-10 5.19454e+06 6.10945e-11 5.23245e+06)
(-1.66744e+07 1.45182e+07 -4.46519e-09 -1.43522e+07 5.44213e-09 -9.50323e+06)
(1.36518e+07 -209056 6.12175e-11 3576.39 -2.09003e-10 4.13349e+06)
(3.65985e+07 -6.49024e+06 4.14031e-09 274464 1.89899e-09 1.17422e+07)
(3.47001e+06 -6.1893e+06 2.53698e-09 3.11329e+06 -2.3705e-10 2.37628e+06)
(1.35882e+07 -2.00097e+06 -1.04693e-09 3.36414e+06 -2.80012e-10 4.9879e+06)
(4.06427e+07 -5.18316e+06 -3.84205e-09 185256 -1.82663e-09 1.14149e+07)
(-2.12527e+06 -686008 -2.63821e-10 496922 1.73224e-10 -1.03823e+06)
(3.60728e+07 -5.68169e+06 6.84138e-09 -6.77739e+06 1.01426e-08 7.30572e+06)
(1.34324e+07 -1.70429e+06 1.13425e-09 3.12683e+06 3.83319e-10 4.95975e+06)
(1.45594e+07 -62533.4 9.81538e-10 -92538.9 9.76776e-11 4.41235e+06)
(3.86131e+07 -949229 9.01283e-09 312295 1.51675e-09 1.13799e+07)
(1.42858e+07 -1.82051e+06 0 1.35737e+06 0 4.54408e+06)
(1.41367e+07 -1.44491e+06 -1.45098e-09 1.02743e+06 -6.31129e-10 4.6642e+06)
(1.31693e+07 -2.16519e+06 -1.24181e-09 5.42731e+06 -1.61432e-10 5.55485e+06)
(1.30156e+07 -2.42651e+06 5.69952e-11 5.22894e+06 1.66154e-11 5.49504e+06)
(1.33415e+07 -6.13406e+06 1.04323e-09 3.02402e+06 5.73689e-10 5.31123e+06)
(-2.07745e+07 7.11711e+06 -3.41399e-09 -6.17001e+06 1.1174e-08 -9.87908e+06)
(4.28594e+07 -4.98602e+06 -4.50507e-09 169714 -2.43137e-09 1.36035e+07)
(5.55787e+06 -1.42728e+06 -5.59044e-10 5.49894e+06 4.19749e-10 3.63576e+06)
(8.43453e+06 -3.66367e+06 -8.39752e-10 5.31691e+06 1.6355e-10 4.28628e+06)
(8.62997e+06 -3.34526e+06 1.71322e-09 5.3989e+06 -3.44107e-10 4.04977e+06)
(1.56668e+07 -5.92246e+06 9.28169e-10 2.14135e+06 7.32764e-10 5.3041e+06)
(8.28361e+06 -6.86397e+06 4.87705e-09 4.18375e+06 -2.40872e-10 3.50505e+06)
(7.17337e+06 -6.35817e+06 4.05097e-11 4.06426e+06 -9.10291e-11 3.59135e+06)
(4.28341e+06 -6.47975e+06 5.05887e-09 -3.53147e+06 3.06276e-09 228931)
(1.01226e+07 -8.20153e+06 4.13445e-09 3.23949e+06 1.70278e-10 3.79357e+06)
(1.0863e+07 -6.022e+06 -4.50668e-10 4.08446e+06 1.86691e-10 4.72116e+06)
(-1.57535e+08 -638661 0 -3.56995e+06 0 -1.94377e+06)
(-604861 -4.56007e+06 1.91882e-09 -2.97808e+06 -1.48673e-09 -1.04111e+06)
(-2.52146e+07 -1.2466e+07 -3.05916e-09 -6.93234e+06 -3.57009e-09 -1.17852e+07)
(5.0961e+07 -3.67727e+06 -4.79974e-09 186327 -2.36578e-09 1.42395e+07)
(1.4421e+07 -2.95338e+06 -1.54615e-09 1.86404e+06 -3.33211e-10 4.97474e+06)
(1.34281e+07 -422544 -1.86044e-09 873325 -9.67797e-10 4.41584e+06)
(1.32599e+07 -413456 -6.9097e-10 9.0021e+06 -4.01144e-10 6.63286e+06)
(1.34806e+07 -325332 -2.06507e-09 465433 -1.25339e-09 4.12801e+06)
(5.79004e+06 -7.27161e+06 5.08173e-10 2.73152e+06 7.50856e-11 3.19843e+06)
(7.34311e+06 -7.95381e+06 2.32851e-09 3.03965e+06 2.77241e-11 2.67901e+06)
(3.37182e+06 -5.7529e+06 2.67235e-09 2.55386e+06 -3.05329e-10 1.74585e+06)
(1.2304e+07 -3.11362e+06 -3.49581e-10 5.33308e+06 -1.4653e-12 5.35833e+06)
(844208 -5.82422e+06 6.42381e-11 -2.47133e+06 1.49166e-10 -395810)
(5.38367e+06 -8.03014e+06 4.80874e-09 -852642 -5.87218e-10 1.39499e+06)
(1.21641e+07 -8.5165e+06 -1.41991e-09 2.89681e+06 -7.40819e-11 4.82573e+06)
(1.54678e+07 -5.49689e+06 -1.49863e-09 2.17911e+06 8.91066e-11 5.21082e+06)
(6.59011e+06 -5.25368e+06 -4.70321e-09 -9.00116e+06 -2.65926e-09 -1.13241e+06)
(3.05003e+07 -9.7564e+06 -1.25299e-08 -363345 -2.99718e-09 9.45022e+06)
(-1.56101e+08 5.15508e+06 3.81821e-09 -7.13701e+06 4.32398e-09 2.03034e+07)
(1.33883e+07 -82630.1 -2.60974e-10 8.7053e+06 4.3536e-10 6.64521e+06)
(1.33275e+07 -86056.9 -1.03281e-09 605768 -2.06466e-09 4.30839e+06)
(2.43841e+07 -9.93642e+06 -1.5697e-11 182617 -1.16796e-09 7.16036e+06)
(7.47136e+06 -7.36387e+06 1.80346e-10 -1.50259e+06 -5.34629e-10 1.82758e+06)
(-1.00795e+08 -6.84717e+06 -1.1037e-08 1.64257e+07 6.64659e-09 -809848)
(8.92912e+06 -6.95001e+06 1.56863e-09 3.84662e+06 -1.53771e-11 3.82379e+06)
(6.23624e+06 -611805 6.37953e-10 5.70934e+06 -2.02543e-10 3.80948e+06)
(1.05565e+07 -7.09821e+06 1.15486e-09 3.91159e+06 -1.10017e-10 4.28962e+06)
(-6.76113e+06 518025 2.73147e-09 -9.32961e+06 4.56865e-09 -4.34508e+06)
(2.02898e+07 -6.63631e+06 2.69664e-09 1.1967e+06 5.99984e-10 6.72595e+06)
(-3.37228e+06 -428276 0 -9.31104e+06 0 -4.21889e+06)
(-1.11929e+06 -3.11634e+06 3.02629e-09 -6.54961e+06 -3.59121e-09 -2.04786e+06)
(1.35203e+07 -1.49325e+06 1.34456e-09 2.29259e+06 5.30031e-10 4.82016e+06)
(6.94415e+06 -2.68676e+06 1.36406e-09 5.58761e+06 -5.90954e-10 3.40695e+06)
(6.22697e+06 -2.5621e+06 4.1308e-10 5.43849e+06 -1.90001e-10 3.83876e+06)
(2.63612e+06 -4.72542e+06 -5.80286e-09 -4.36235e+06 3.18837e-09 -321199)
(6.3015e+06 -5.61232e+06 2.37591e-09 -6.50908e+06 1.25537e-08 129473)
(9.71725e+06 -2.94358e+06 1.5729e-12 5.67683e+06 1.18159e-10 4.49055e+06)
(2.03938e+07 -2.65198e+06 -1.06506e-09 146225 1.41183e-09 6.13648e+06)
(6.51751e+06 -7.44557e+06 -2.45463e-09 2.75759e+06 -1.71985e-10 2.57608e+06)
(6.39048e+06 -8.02354e+06 -1.60993e-09 2.0349e+06 -7.19204e-10 2.90255e+06)
(1.15722e+07 -6.19479e+06 6.48778e-10 4.08996e+06 -1.20297e-10 4.48657e+06)
(2.50889e+07 -9.34468e+06 0 629394 0 7.84291e+06)
(-2.86275e+07 -4.48813e+06 -9.79337e-09 -2.42268e+06 2.58984e-11 -1.57825e+07)
(1.84319e+07 -4.8306e+06 8.49682e-10 1.04037e+06 7.75686e-10 5.91478e+06)
(4.57109e+07 -3.23014e+06 -2.3274e-08 -9.95025e+06 -7.58569e-09 1.21587e+07)
(5.81534e+06 -7.76474e+06 -5.84912e-09 -1.52204e+07 -5.14596e-09 -525615)
(8.44258e+06 -1.19806e+07 -8.8438e-09 -1.44654e+07 -9.92224e-10 -2.10259e+06)
(1.35515e+07 -193405 -1.00273e-09 177881 -2.73031e-10 4.09223e+06)
(2.19895e+07 -8.63822e+06 3.12068e-09 1.57171e+06 7.78892e-10 7.29297e+06)
(1.37089e+07 -2.47137e+06 -4.87816e-10 2.86927e+06 -2.03425e-10 5.05351e+06)
(1.18017e+07 -7.31697e+06 -4.24637e-09 -3.03066e+06 -1.7852e-10 2.67058e+06)
(2.2144e+07 -8.24276e+06 6.48003e-10 1.37635e+06 -4.76673e-10 6.72555e+06)
(7.89823e+07 2.02123e+07 -7.91351e-09 6.28531e+06 -1.16677e-08 2.3527e+07)
(1.02355e+07 -4.95275e+06 6.04001e-10 4.75674e+06 -2.10989e-10 4.29275e+06)
(1.62583e+07 -4.33463e+06 1.42899e-10 1.23008e+06 4.32005e-11 5.53827e+06)
(1.61057e+07 -4.08931e+06 -1.26774e-09 1.53609e+06 1.63074e-11 5.04359e+06)
(2.06424e+07 -3.32596e+06 3.02998e-09 428840 -8.14416e-11 6.33066e+06)
(4.08179e+07 -7.25084e+06 -4.78745e-09 -181434 -7.05823e-10 1.2923e+07)
(9.89171e+06 -6.87691e+06 0 3.99995e+06 0 4.08515e+06)
(3.44672e+06 -2.94565e+06 5.74297e-11 4.82723e+06 -1.04065e-11 2.43639e+06)
(1.3419e+07 -830093 -8.82049e-12 1.33043e+06 -7.51649e-11 4.38992e+06)
(1.37891e+07 -2.75893e+06 0 3.0225e+06 0 4.96909e+06)
(1.2977e+07 -3.17387e+06 8.99638e-10 4.64663e+06 5.92861e-11 5.1298e+06)
(1.27598e+07 -3.67503e+06 -2.2594e-10 4.50259e+06 2.72894e-11 5.10048e+06)
(1.44434e+07 -9.64279e+06 -6.61089e-10 -265045 3.70117e-09 4.07946e+06)
(6.28022e+06 -677311 1.63953e-11 5.42074e+06 3.54676e-12 3.34583e+06)
(1.3648e+07 -8.33271e+06 -1.07415e-09 -1.54837e+06 -5.60862e-09 3.59458e+06)
(-1.11255e+08 2.61141e+07 -2.50668e-08 -1.31683e+07 6.61904e-09 1.74854e+07)
(1.07419e+07 -1.52489e+06 8.47814e-10 6.17999e+06 -1.18721e-10 5.13196e+06)
(1.13695e+07 -1.92619e+06 6.42664e-10 6.01138e+06 -3.66773e-12 5.05655e+06)
(4.37019e+07 -344890 -2.87845e-09 180838 -1.22712e-10 1.32086e+07)
(-1.23316e+06 -3.1825e+06 -2.14927e-09 -7.15026e+06 -3.19604e-09 -2.60888e+06)
(1.3282e+07 -1.11374e+06 -5.05529e-10 3.59214e+06 -1.68523e-10 5.33097e+06)
(8.0554e+07 -6.34171e+06 -5.94424e-09 2.61158e+07 -1.71433e-09 5.60835e+07)
(8.99198e+06 -2.272e+06 6.81343e-10 5.80947e+06 -1.57039e-10 4.42638e+06)
(4.90144e+07 47608.5 -3.91354e-09 1.2897e+07 -5.44237e-10 2.09847e+07)
(1.30101e+07 -873802 3.79455e-11 7.96153e+06 -3.86725e-11 6.31913e+06)
(1.31757e+07 -861020 1.22363e-09 7.93383e+06 -2.69298e-10 6.54824e+06)
(1.37373e+07 -893024 4.70326e-10 1.00229e+06 6.38768e-10 4.38023e+06)
(1.36049e+07 -659415 2.74766e-10 901893 3.79951e-11 4.19755e+06)
(1.40652e+07 -397020 -9.72538e-10 146567 -5.32179e-10 4.13802e+06)
(-1.50108e+06 -3.7361e+06 -2.46363e-10 -3954.58 -4.06548e-10 -177075)
(-1.23154e+06 -3.18068e+06 -3.16016e-11 1.10636e+06 2.88004e-10 -294602)
(1.5765e+07 -1.33576e+07 9.16284e-09 -1.64489e+07 -7.90683e-09 -3.23671e+06)
(1.58606e+07 -1.12859e+07 1.28729e-08 -1.73355e+07 1.19201e-08 -170725)
(2.56225e+07 -7.475e+06 1.35332e-08 -2.65506e+06 6.84869e-09 6.88352e+06)
(1.45376e+07 -2.88625e+06 -8.2867e-10 1.72716e+06 -7.03984e-11 4.80441e+06)
(1.31191e+07 -390824 6.93069e-10 8.18504e+06 2.99091e-11 6.44491e+06)
(3.1633e+06 -6.99411e+06 -5.04093e-09 -1.6889e+06 2.04829e-10 172453)
(-1.87604e+06 -2.57094e+06 -4.82831e-10 -741175 -3.27212e-10 -969833)
(2.26224e+07 -2.44392e+06 -1.53717e-10 90884 -2.0824e-09 7.28172e+06)
(1.30131e+07 -3.11883e+06 2.55398e-09 4.37305e+06 3.57737e-10 5.44151e+06)
(2.90119e+07 -9.2641e+06 -7.75962e-09 -2.79655e+06 -7.23076e-09 8.06259e+06)
(2.0124e+07 -8.77135e+06 -6.42168e-09 -1.60476e+07 4.3966e-10 -869262)
(9.33293e+07 -1.26185e+07 8.95659e-09 3.30067e+07 2.92682e-09 5.59375e+07)
(7.23569e+06 -7.56424e+06 -1.00958e-10 3.11864e+06 1.19195e-10 3.02027e+06)
(6.45602e+07 2.05017e+07 -8.92462e-09 -5.59813e+06 -5.41167e-09 1.51674e+07)
(-601617 1.59531e+06 1.82415e-09 -3.57684e+07 9.69521e-10 -1.18423e+07)
(-5.75401e+06 586824 7.73304e-11 -1.46617e+07 -8.73031e-10 -4.75397e+06)
(6.82689e+06 -6.61476e+06 1.97904e-08 -1.14297e+07 9.87327e-09 -1.14366e+06)
(1.31661e+07 -700693 1.13538e-09 8.11409e+06 -2.5317e-10 6.4214e+06)
(9.88807e+06 -7.79919e+06 -9.03848e-09 -3.52556e+06 -5.13628e-09 2.23268e+06)
(6.40759e+07 -269356 0 611273 0 1.92114e+07)
(-2.03356e+07 1.24672e+07 -5.51668e-09 -1.09265e+07 8.69732e-09 -8.63626e+06)
(692446 -4.92929e+06 -4.79857e-10 1.69579e+06 -2.54587e-10 841765)
(1.38567e+07 -8.29169e+06 -2.27505e-09 2.65208e+06 -2.24437e-10 5.10523e+06)
(7.29321e+06 -6.04076e+06 -5.7464e-09 -6.12274e+06 2.97019e-09 368869)
(998573 -4.31863e+06 1.63734e-09 2.38448e+06 -2.75375e-10 991871)
(6.32947e+06 -1.75609e+06 -6.69383e-10 5.59424e+06 3.58555e-10 3.10987e+06)
(7.24134e+06 -6.78476e+06 4.77115e-10 3.84882e+06 -1.33112e-11 3.12025e+06)
(-1.54872e+07 8.28989e+06 4.26999e-10 -1.14047e+07 6.55072e-09 -8.54999e+06)
(1.29126e+07 -734499 -2.17235e-10 8.0658e+06 2.3932e-10 6.29807e+06)
(1.29915e+07 -3.5942e+06 2.16208e-09 4.25776e+06 2.16827e-10 5.23721e+06)
(5.74278e+07 9.70339e+06 6.29162e-09 -8.6285e+06 4.52482e-09 2.06002e+07)
(1.24469e+07 -3.53481e+06 -4.03383e-10 4.68829e+06 -9.75777e-12 5.33821e+06)
(1.72258e+07 -8.82735e+06 5.03265e-09 -3.38337e+06 -9.95284e-10 3.98934e+06)
(3.12123e+07 -5.37172e+06 -2.33004e-09 762371 -4.0667e-10 9.80098e+06)
(-2.43156e+06 1.08571e+06 3.50892e-09 -3.55082e+07 8.14821e-09 -9.65143e+06)
(1.50991e+07 -720583 1.17006e-09 164772 7.46164e-10 4.5196e+06)
(4.28022e+07 -2.31014e+06 0 -537478 0 1.25306e+07)
(1.93038e+07 -6.29918e+06 -4.20548e-09 1.49724e+06 -1.20757e-09 6.03717e+06)
(1.58408e+07 -2.46374e+06 1.40955e-09 736859 1.15901e-10 4.79707e+06)
(1.54272e+07 -2.07262e+06 -1.75492e-10 496260 -5.23305e-11 5.03579e+06)
(3.31467e+06 -4.50752e+06 4.75665e-10 3.7173e+06 -1.07141e-10 2.04928e+06)
(3.00313e+06 -6.47945e+06 1.80232e-09 -658228 1.01547e-09 746903)
(-1.57553e+07 5.90836e+06 -2.57888e-09 -1.02732e+07 -3.39875e-09 -5.80741e+06)
(2.81153e+07 -2.9094e+06 -2.32236e-09 419373 -1.67435e-09 8.78632e+06)
(2.76693e+07 -3.17057e+06 -2.9746e-09 277657 -4.3192e-10 7.78569e+06)
(2.09753e+07 -7.83973e+06 -4.31319e-09 1.28433e+06 -1.12274e-09 6.67758e+06)
(-5.63014e+06 314942 3.40339e-09 -1.35979e+07 2.64991e-09 -6.28461e+06)
(1.27396e+07 -4.00958e+06 -2.35373e-09 4.24729e+06 -6.39214e-11 5.16777e+06)
(5.92105e+07 -2.5067e+06 -6.08728e-09 592257 -3.9867e-09 1.81029e+07)
(3.27729e+07 -8.27293e+06 4.35776e-09 370577 2.91091e-09 9.56837e+06)
(1.34066e+07 -119246 -3.68255e-10 1.35993e+06 -5.6153e-10 4.28462e+06)
(2.16828e+07 -8.75009e+06 5.29898e-09 1.2328e+06 1.33532e-09 6.63061e+06)
(-3.84552e+06 -7.00795e+06 0 -9.65374e+06 0 -2.27895e+06)
(1.55728e+07 -4.64008e+06 -2.94258e-09 1.9981e+06 -5.77617e-10 5.05688e+06)
(6.66993e+07 1.4189e+07 5.6761e-09 1.04768e+07 6.00265e-09 2.41191e+07)
(1.36553e+07 -413018 -1.97584e-09 317269 -6.38155e-10 4.24842e+06)
(4.66465e+07 1.25722e+07 -3.99089e-09 1.22154e+07 -4.5989e-09 1.77576e+07)
(1.02952e+07 -2.11192e+06 -9.99425e-10 5.90029e+06 1.81806e-10 5.128e+06)
(1.07136e+07 -1.60972e+06 7.26805e-10 5.94039e+06 -1.41812e-10 4.94095e+06)
(1.35237e+07 -102060 0 9.51327e+06 0 6.83082e+06)
(1.3342e+07 -40474.7 -7.84858e-10 74252.5 -1.05262e-09 4.06141e+06)
(1.10942e+07 -3.47025e+06 -1.94369e-09 5.3105e+06 7.98178e-11 5.03676e+06)
(4.25242e+06 -5.8604e+06 2.41014e-09 3.26709e+06 -2.84234e-10 1.80928e+06)
(1.81615e+06 -3.71228e+06 -1.41238e-09 -8.39643e+06 -6.16226e-10 -2.63756e+06)
(8.32645e+07 1.42195e+07 1.37078e-08 9.44593e+06 1.42116e-08 3.01161e+07)
(2.26264e+07 -1.16791e+06 4.60121e-09 111409 7.85612e-10 6.52177e+06)
(-4.46164e+06 -7.06954e+06 4.84219e-09 -8.61726e+06 -3.45331e-09 -4.75312e+06)
(1.1601e+07 -6.98888e+06 -5.77131e-09 -7.46849e+06 -8.59054e-09 1.17926e+06)
(3.73039e+06 -5.26549e+06 9.72625e-10 4.11308e+06 -2.06135e-10 2.22047e+06)
(7.68871e+07 9.107e+06 -4.17576e-09 909050 -8.55489e-09 3.4094e+07)
(1.37676e+07 -3.62327e+06 4.35417e-10 2.98069e+06 4.24149e-10 5.19801e+06)
(474406 -4.34235e+06 2.8936e-09 2.43992e+06 -1.81258e-10 807299)
(1.3377e+07 -251161 -2.38695e-10 3.57865e+06 -9.51832e-10 4.89645e+06)
(897507 -3.54377e+06 -3.08124e-10 2.33208e+06 1.50782e-10 990602)
(-435000 -2.87212e+06 -4.75912e-10 2.41716e+06 2.8542e-10 857367)
(3.03959e+07 -5.98369e+06 1.20119e-09 571057 1.01972e-09 8.95853e+06)
(-6.46126e+06 3.12972e+06 5.45381e-09 -1.22974e+07 6.04605e-09 -6.82341e+06)
(1.44942e+07 -8.67002e+06 -2.00396e-09 2.54825e+06 -3.24612e-10 5.16998e+06)
(1.39013e+07 -604496 -1.47173e-09 418007 -6.43245e-10 4.23879e+06)
(1.31289e+07 -344923 -1.09223e-11 9.16743e+06 -7.32196e-10 6.78192e+06)
(1.34714e+07 -97498.6 1.30511e-09 89728 6.23666e-10 4.01378e+06)
(1.31003e+07 -4.48031e+06 -2.66159e-09 3.81837e+06 -1.35245e-10 5.05124e+06)
(-2.18798e+06 -3.5321e+06 -1.67705e-09 -3.97563e+06 4.27205e-10 -1.85885e+06)
(7.98171e+07 1.71367e+07 1.07733e-08 -1.20875e+06 2.53931e-09 2.2307e+07)
(3.68636e+07 -8.01383e+06 1.71331e-08 -1.02413e+07 1.36051e-09 8.6947e+06)
(3.51736e+07 -3.47271e+06 -8.07017e-09 111362 -2.78204e-09 1.10685e+07)
(1.96192e+07 -1.98335e+06 7.51496e-09 -63981.3 1.78397e-09 6.28432e+06)
(-4.08167e+06 8.49935e+06 7.32856e-10 -3.21203e+07 2.79662e-09 -9.37595e+06)
(-5.09793e+06 5.59289e+06 -9.2505e-10 -2.73513e+07 -2.52764e-09 -9.70526e+06)
(5.4513e+06 -6.30035e+06 3.15302e-09 3.83428e+06 -1.9621e-10 3.13341e+06)
(1.79471e+07 -2.81061e+06 -1.40246e-09 234760 -1.00722e-09 5.31493e+06)
(6.13141e+06 -7.55543e+06 -3.20902e-09 -592271 9.47892e-11 1.68246e+06)
(4.40412e+07 7.83093e+06 -2.09539e-09 9.46207e+06 -1.5396e-09 1.49699e+07)
(4.477e+06 -6.83588e+06 -1.84329e-09 2.16317e+06 9.06977e-11 1.44537e+06)
(2.37701e+07 -2.37849e+06 -2.58679e-10 51118.8 5.85895e-10 6.82469e+06)
(1.29395e+07 -4.42228e+06 8.38057e-10 3.89038e+06 -3.52994e-11 5.13392e+06)
(5.98415e+06 -7.55807e+06 4.6249e-09 2.46517e+06 2.90026e-10 2.64429e+06)
(-5.29351e+06 -31731.8 1.55684e-10 -1.75781e+07 -1.78271e-09 -7.17969e+06)
(6.58786e+07 -2.13359e+06 -1.27364e-08 -1.24589e+06 -6.1265e-09 1.86266e+07)
(277796 -2.51122e+06 -2.29294e-10 3.1845e+06 5.46686e-11 1.22804e+06)
(1.72823e+07 -3.53745e+06 3.48671e-09 665279 3.10526e-10 5.34679e+06)
(-2.78881e+06 -3.87944e+06 2.81037e-09 -4.20918e+06 5.78437e-11 -1.76962e+06)
(3.01883e+07 -8.64037e+06 1.22e-09 349378 -4.3663e-10 8.97962e+06)
(1.34394e+07 -496997 -4.19808e-10 5.53337e+06 -2.23596e-10 5.8596e+06)
(1.28579e+07 -5.20875e+06 2.25448e-09 3.55067e+06 3.97198e-10 5.19996e+06)
(1.2827e+07 -245028 -4.35952e-10 7.69666e+06 -1.86913e-10 6.06763e+06)
(1.37414e+07 -220533 1.02051e-09 22669.2 3.13649e-10 4.29096e+06)
(3.18008e+07 -6.05717e+06 2.09056e-09 414377 5.70211e-10 9.79353e+06)
(-3.09208e+06 -3.29476e+06 -2.5989e-10 -3.18974e+06 -8.00179e-10 -1.73756e+06)
(1.33939e+07 -28630.2 -1.30919e-09 -56010.6 -1.22254e-10 4.09156e+06)
(1.509e+07 -4.66814e+06 1.48288e-09 2.12877e+06 -5.35754e-11 5.22422e+06)
(5.00971e+07 1.33298e+07 -8.93881e-09 -1.34473e+06 -2.85482e-09 1.31987e+07)
(1.42524e+07 -6.40216e+06 2.68494e-10 3.05822e+06 1.13122e-10 4.99415e+06)
(9.71803e+06 -7.23789e+06 -2.31206e-09 3.88894e+06 -5.91979e-11 4.08281e+06)
(1.33022e+07 -6.13056e+06 1.91485e-09 3.59791e+06 2.13759e-10 4.637e+06)
(1.29979e+07 -63164.5 0 8.3302e+06 0 6.4568e+06)
(3.61883e+07 2.14424e+06 -1.64088e-09 -527697 2.7573e-09 1.26252e+07)
(1.86173e+07 -6.09876e+06 3.32134e-09 1.20182e+06 2.16208e-10 6.0511e+06)
(1.82005e+07 -7.19069e+06 -1.23372e-09 1.831e+06 -4.5129e-10 6.05335e+06)
(1.48043e+07 -6.55776e+06 8.3812e-10 2.6839e+06 -1.95116e-10 5.22268e+06)
(1.12577e+08 -1.12303e+06 -1.56423e-09 4.38952e+07 -5.19986e-11 5.21318e+07)
(-2.35851e+06 -686357 -5.97362e-10 1.31952e+06 3.65462e-10 -226511)
(5.13093e+07 1.53591e+06 9.61688e-09 -1.07342e+06 1.13191e-09 1.3824e+07)
(7.30404e+06 -6.86434e+06 2.10554e-10 3.66039e+06 -1.99764e-10 3.53122e+06)
(6.30817e+07 6.81983e+06 1.05764e-10 -1.52235e+07 -6.28575e-09 2.72878e+07)
(-5.7926e+06 3.42526e+06 4.02828e-09 -2.01059e+07 7.12e-09 -5.8939e+06)
(7.06433e+07 1.43043e+07 6.30442e-09 -8.20318e+06 1.01467e-08 1.83776e+07)
(1.85539e+07 -7.45156e+06 0 1.43583e+06 0 6.03259e+06)
(4.12961e+07 -6.99599e+06 5.49458e-09 -1.43848e+06 7.74006e-09 1.18476e+07)
(3.55657e+07 -8.00034e+06 -7.99554e-09 -2.64193e+07 -7.09669e-09 5.39259e+06)
(1.35518e+07 -3.62624e+06 -4.05539e-10 3.67978e+06 3.41681e-11 5.00833e+06)
(1.05173e+07 -4.2151e+06 1.28978e-09 5.0195e+06 -6.49266e-11 4.91655e+06)
(1.06835e+07 -4.55141e+06 2.06188e-09 4.80498e+06 -1.44835e-10 4.53646e+06)
(-2.7094e+06 -2.82632e+06 1.07015e-09 -2.5994e+06 7.7498e-11 -1.5353e+06)
(-2.77853e+06 -3.36712e+06 0 -670352 0 -1.23906e+06)
(1.30171e+07 -4.87333e+06 1.56007e-09 3.83608e+06 -1.91727e-10 4.89675e+06)
(1.34307e+07 -1.42671e+06 2.07445e-09 4.03767e+06 1.15182e-09 5.05069e+06)
(1.00549e+07 -7.97564e+06 -2.90225e-09 3.33862e+06 -1.49746e-10 4.26605e+06)
(-485104 -3.30259e+06 5.45923e-10 1.80868e+06 -3.2308e-10 278094)
(1.33927e+07 -374936 -1.05237e-09 8.69871e+06 -3.50971e-10 6.38804e+06)
(1.33602e+07 -296398 4.44859e-09 500984 2.29283e-09 4.37839e+06)
(2.02075e+07 -3.69366e+06 -8.81284e-11 705075 1.86154e-10 6.17079e+06)
(8.36346e+06 -134017 -4.92141e-11 5.87636e+06 1.84212e-10 4.22983e+06)
(1.35004e+07 -1.37931e+06 -4.21984e-10 2.89038e+06 -1.16501e-10 4.98987e+06)
(1.45322e+07 -9.06779e+06 -1.37895e-09 2.55734e+06 -2.03005e-10 5.06027e+06)
(1.33906e+07 -1.88537e+06 -1.40021e-10 4.28061e+06 -3.53502e-12 5.42003e+06)
(9.76058e+06 -5.18053e+06 -4.93051e-10 4.6035e+06 2.76821e-10 4.58502e+06)
(5.74318e+07 3.98407e+06 0 -4.91001e+06 0 1.77835e+07)
(5.94356e+07 6.55703e+06 -1.6368e-08 -3.44223e+06 -1.71245e-08 1.52857e+07)
(1.29543e+07 -9.7119e+06 -3.74353e-09 2.40488e+06 1.29679e-10 4.58762e+06)
(-2.2078e+06 -3.28545e+06 1.512e-09 -3.01709e+06 8.98774e-11 -1.61426e+06)
(1.21904e+07 -8.41627e+06 7.26977e-09 3.08146e+06 4.07498e-10 4.19811e+06)
(1.3924e+07 -9.02046e+06 0 2.62742e+06 0 4.56173e+06)
(-1.1572e+06 -3.94354e+06 -1.229e-09 -817080 -1.93751e-10 -887217)
(1.2977e+07 -1.77964e+06 4.59935e-10 6.49594e+06 -1.49403e-10 5.73835e+06)
(1.3793e+07 -1.36139e+06 -1.02785e-09 1.74284e+06 -4.51087e-10 4.59289e+06)
(-4.52846e+06 3.35494e+06 -2.87398e-10 -2.48991e+07 -1.82377e-09 -1.0501e+07)
(1.9365e+07 -125880 -3.20645e-09 -188037 2.16957e-10 5.80612e+06)
(1.34192e+07 -248095 -4.50463e-11 9.07612e+06 -8.74168e-11 6.68554e+06)
(1.33841e+07 -102399 1.75812e-09 124096 6.15047e-10 4.1331e+06)
(9.08847e+06 -1.60212e+06 9.99826e-11 5.94025e+06 -1.09905e-11 4.56728e+06)
(-3.33474e+06 6.43856e+06 -1.52268e-09 -3.38999e+07 -6.17073e-09 -9.05676e+06)
(2.75718e+06 -5.24772e+06 -3.24203e-10 3.53648e+06 1.23777e-10 2.07228e+06)
(4.63729e+07 -6.27317e+06 1.16581e-08 -871825 3.50801e-09 1.33328e+07)
(1.28319e+07 -1.85988e+06 2.94308e-10 6.60612e+06 1.60126e-10 5.86631e+06)
(1.40463e+07 -1.51121e+06 1.98762e-10 1.44158e+06 -7.37955e-11 4.46451e+06)
(1.23173e+07 -9.52649e+06 3.72492e-09 1.5561e+06 1.12453e-09 4.46565e+06)
(-5.54534e+06 4.62881e+06 -2.11752e-09 -2.44393e+07 -1.90053e-09 -9.16924e+06)
(1.8604e+07 -9.09573e+06 -9.7844e-10 1.84551e+06 -1.8856e-10 5.8027e+06)
(3.40132e+06 -6.55377e+06 -3.0421e-09 -1.24109e+06 -2.42264e-10 755424)
(4.76625e+06 -3.13951e+06 1.62974e-09 4.87955e+06 -4.94608e-10 2.76357e+06)
(1.98008e+07 -4.89056e+06 2.07613e-09 850254 -2.58456e-11 5.88902e+06)
(1.8111e+07 -6.25634e+06 1.20573e-09 1.52813e+06 -2.16564e-10 5.7689e+06)
(-3.50006e+07 -2.1174e+07 1.39612e-08 -1.02204e+07 -3.79727e-10 -2.38323e+06)
(6.93714e+06 -7.17972e+06 1.0046e-09 3.79643e+06 -1.63588e-10 3.30524e+06)
(-5.20616e+06 5.0314e+06 -1.05149e-09 -2.89285e+07 -4.31974e-09 -9.1828e+06)
(-5.05071e+06 -1.37514e+06 5.11699e-10 -8.81186e+06 9.34694e-10 -4.41477e+06)
(1.28056e+07 -2.0723e+06 2.69008e-10 6.1855e+06 -2.16033e-10 5.73449e+06)
(-196878 -2.85399e+06 7.48712e-09 -7.65165e+06 -1.45699e-09 -2.08574e+06)
(1.48016e+07 -6.73844e+06 5.29872e-10 2.72878e+06 3.49699e-10 5.20573e+06)
(1.75901e+07 -3.89779e+06 -4.34379e-09 865836 -1.51448e-10 5.77473e+06)
(1.97213e+07 -5.04274e+06 9.79471e-10 800931 1.27924e-09 6.53647e+06)
(-1.17757e+07 1.46827e+07 0 -1.94929e+07 0 -1.03799e+07)
(1.84607e+07 -1.4524e+07 9.37686e-09 -1.39737e+07 -6.88559e-09 8.03877e+06)
(8.82407e+06 -7.62055e+06 -1.09885e-09 3.53741e+06 2.6587e-11 3.97974e+06)
(-2.09995e+06 -2.29483e+06 -1.31975e-08 -8.29257e+06 -7.61255e-09 -2.76736e+06)
(88783 -3.72243e+06 -5.90645e-09 -5.40909e+06 -1.13361e-09 -1.95523e+06)
(1.04121e+08 5.99048e+06 -1.70307e-08 4.08767e+07 -7.38108e-09 4.47752e+07)
(2.61743e+07 -2.8866e+07 6.15866e-10 -1.31521e+07 4.26125e-10 1.99917e+07)
(-5.96272e+06 3.96496e+06 -1.55455e-09 -1.8133e+07 -5.50004e-09 -8.75279e+06)
(1.39562e+07 -2.02115e+06 -1.67051e-09 1.64597e+06 -4.78348e-10 4.83797e+06)
(1.65663e+07 -3.56157e+06 -7.41462e-12 1.00862e+06 3.72421e-11 5.41934e+06)
(2.25162e+07 -9.52188e+06 -6.21113e-09 1.32967e+06 -2.14564e-09 7.42101e+06)
(2.28136e+07 -9.07336e+06 -3.12143e-09 991985 -8.13532e-10 6.82636e+06)
(1.2469e+07 -6.85867e+06 -1.37596e-09 3.36573e+06 -1.63785e-10 5.04451e+06)
(2.15315e+07 1.01082e+07 1.02845e-09 3.6474e+06 7.98361e-09 6.08871e+06)
(3.64043e+07 -4.59171e+06 7.99942e-11 -1.9558e+07 -5.72228e-09 4.67841e+06)
(1.43979e+06 -3.42732e+06 7.56125e-10 3.57067e+06 -2.52471e-10 1.10873e+06)
(1.32576e+07 -222348 1.75747e-10 9.77434e+06 3.55811e-10 6.82464e+06)
(1.34018e+07 -67136.9 -2.46869e-09 7296.66 -1.35712e-09 4.04529e+06)
(1.38731e+07 -1.81692e+06 0 1.52103e+06 0 4.78028e+06)
(1.2619e+06 -5.70113e+06 -2.61799e-09 -932009 -1.2894e-10 -38948.4)
(-6.00456e+07 -2.00394e+07 5.15857e-09 5.14049e+06 -3.3213e-09 1.61592e+06)
(5.46363e+06 -5.76797e+06 1.00511e-08 -3.23275e+06 6.3726e-09 507725)
(8.91839e+06 -6.58379e+06 2.25534e-09 4.17894e+06 2.18802e-11 4.17572e+06)
(8.40922e+06 -7.14587e+06 -1.26506e-09 3.51533e+06 3.19004e-12 3.49046e+06)
(6.1109e+06 -6.34221e+06 -2.43865e-09 4.00104e+06 7.79368e-11 2.88464e+06)
(1.34909e+07 -78539.9 0 75799.9 0 4.0551e+06)
(-4.25861e+06 -680959 1.59131e-09 -1.09277e+07 8.96624e-10 -5.38184e+06)
(1.33567e+07 -2.21082e+06 9.83992e-10 4.69763e+06 2.59591e-10 5.21111e+06)
(57655.4 -5.86671e+06 5.57943e-09 -897360 7.15139e-10 24861.6)
(1.34514e+07 -182063 -6.81357e-10 6.00103e+06 -6.27889e-10 5.71671e+06)
(4.01674e+07 -1.6423e+07 5.01066e-09 862989 -3.03235e-09 2.38287e+07)
(1.37725e+07 -2.03138e+06 -3.66425e-10 1.89963e+06 -1.1231e-10 4.76405e+06)
(1.31785e+07 -165030 -1.51059e-09 8.78301e+06 3.51522e-10 6.5655e+06)
(4.68475e+07 -1.31619e+07 -1.89831e-08 -1.25298e+07 -9.77716e-09 3.01283e+07)
(9.78304e+06 -3.11856e+06 -5.61539e-10 5.46006e+06 9.26996e-11 4.65389e+06)
(1.2628e+07 -1.77108e+06 2.41296e-10 6.64805e+06 1.1643e-10 5.7269e+06)
(6.44071e+07 726323 -7.80968e-09 -229445 -2.22042e-09 1.92388e+07)
(-4.64268e+07 1.26231e+07 0 -9.85125e+06 0 -1.59722e+07)
(1.1732e+07 -3.67624e+06 5.39812e-10 4.9788e+06 4.70222e-11 4.96329e+06)
(-3.7906e+06 -981768 0 -9.32571e+06 0 -3.86356e+06)
(2.3545e+07 -5.20204e+06 -1.43029e-10 728297 -8.60586e-10 7.5108e+06)
(2.64704e+07 -8.12671e+06 -4.87665e-09 1.08598e+06 -1.57088e-09 8.00953e+06)
(1.37589e+07 -4.41859e+06 3.01649e-10 3.17959e+06 2.59395e-10 5.11322e+06)
(1.36468e+07 -4.50699e+06 9.66991e-10 3.37696e+06 1.51262e-10 5.02385e+06)
(1.34716e+07 -7.09643e+06 3.41325e-09 3.15687e+06 -9.98438e-11 4.89467e+06)
(2.30769e+07 6.86411e+06 -5.22201e-09 -1.06909e+06 -3.79266e-09 8.90848e+06)