/*--------------------------------*- C++ -*----------------------------------*\
| =========                 |                                                 |
| \\      /  F ield         | OpenFOAM: The Open Source CFD Toolbox           |
|  \\    /   O peration     | Version:  v2012                                 |
|   \\  /    A nd           | Website:  www.openfoam.com                      |
|    \\/     M anipulation  |                                                 |
\*---------------------------------------------------------------------------*/
FoamFile
{
    version     2.0;
    format      ascii;
    class       pointScalarField;
    location    "1";
    object      pEpsilonEq;
}
// * * * * * * * * * * * * * * * * * * * * * * * * * * * * * * * * * * * * * //

dimensions      [0 0 0 0 0 0 0];


internalField   nonuniform List<scalar> 
2014
(
0.000204144
0.000105371
0.000147031
0.000112838
0.000547851
0.000204144
0.000105371
0.000147031
0.000112838
0.000547851
0.000144083
9.96972e-05
7.2605e-05
5.47578e-05
4.82937e-05
4.57573e-05
4.58905e-05
4.77154e-05
5.3355e-05
5.77304e-05
6.19271e-05
6.73425e-05
7.18866e-05
7.74286e-05
8.16096e-05
8.6364e-05
9.08467e-05
9.47884e-05
9.84182e-05
0.000102385
0.000105706
0.000108234
0.000110186
0.00011179
0.000112919
0.000113451
0.000112492
0.000110573
0.000108193
0.000106058
0.000107069
0.00010814
0.000109534
0.000112458
0.000114527
0.000116801
0.000120597
0.000124256
0.000128005
0.000131234
0.000134291
0.000138152
0.000140806
0.000143167
0.000145607
0.000146562
0.000147277
0.000147247
0.000146748
0.000146748
0.00014751
0.000148436
0.000150967
0.000154146
0.000157082
0.000162119
0.000166402
0.000171768
0.000178326
0.000183785
0.000189855
0.000197774
0.000204779
0.000211649
0.000220527
0.000227188
0.000235058
0.000238631
0.000250334
0.000254545
0.00026091
0.000263586
0.000266333
0.000266939
0.000263978
0.000259882
0.000253815
0.000243338
0.000233515
0.000218909
0.000199875
0.000186686
0.000170987
0.000148644
0.000137983
0.00012553
0.000120263
0.000147025
0.000175106
0.000191367
0.00021192
0.000234459
0.00025932
0.000301556
0.000361144
0.000441807
0.000587441
0.000552432
0.000479126
0.000415861
0.000355699
0.000271887
0.000195923
0.000126827
6.78132e-05
5.34951e-05
9.39287e-05
0.00012771
0.000165892
0.000196431
0.00021416
0.000144083
9.96972e-05
7.2605e-05
5.47578e-05
4.82937e-05
4.57573e-05
4.58905e-05
4.77154e-05
5.3355e-05
5.77304e-05
6.19271e-05
6.73425e-05
7.18866e-05
7.74286e-05
8.16096e-05
8.6364e-05
9.08467e-05
9.47884e-05
9.84182e-05
0.000102385
0.000105706
0.000108234
0.000110186
0.00011179
0.000112919
0.000113451
0.000112492
0.000110573
0.000108193
0.000106058
0.000107069
0.00010814
0.000109534
0.000112458
0.000114527
0.000116801
0.000120597
0.000124256
0.000128005
0.000131234
0.000134291
0.000138152
0.000140806
0.000143167
0.000145607
0.000146562
0.000147277
0.000147247
0.000146748
0.000146748
0.00014751
0.000148436
0.000150967
0.000154146
0.000157082
0.000162119
0.000166402
0.000171768
0.000178326
0.000183785
0.000189855
0.000197774
0.000204779
0.000211649
0.000220527
0.000227188
0.000235058
0.000238631
0.000250334
0.000254545
0.00026091
0.000263586
0.000266333
0.000266939
0.000263978
0.000259882
0.000253815
0.000243338
0.000233515
0.000218909
0.000199875
0.000186686
0.000170987
0.000148644
0.000137983
0.00012553
0.000120263
0.000147025
0.000175106
0.000191367
0.00021192
0.000234459
0.00025932
0.000301556
0.000361144
0.000441807
0.000587441
0.000552432
0.000479126
0.000415861
0.000355699
0.000271887
0.000195923
0.000126827
6.78132e-05
5.34951e-05
9.39287e-05
0.00012771
0.000165892
0.000196431
0.00021416
0.000190521
0.00014405
0.000261348
0.00017882
0.000124032
0.000149078
0.000123082
0.000268005
0.000141586
0.000229436
0.00017025
0.000115282
0.000110173
0.000220544
0.000133985
0.000209692
0.00016606
0.000149844
0.000255126
0.000280655
0.000190055
0.000162297
0.00024798
0.000227466
0.000115799
0.000147719
0.000112727
9.67301e-05
0.000154764
0.000215673
0.000134001
0.000193786
8.73075e-05
0.000296054
8.80103e-05
0.000123416
0.000139633
0.000156344
9.95924e-05
0.000124054
0.00015096
0.000166177
0.000195466
0.000132411
0.000231097
0.000232338
0.000138098
0.000208114
0.000155437
0.000229348
0.00011459
0.000143403
0.000181573
9.93148e-05
0.00024161
0.000214876
0.000244159
0.000275792
0.000118649
0.0003017
7.64591e-05
0.000155454
0.000164185
0.000258285
0.000212865
0.000246694
0.000164119
0.000193222
0.00017175
0.000246505
0.000128537
0.000178014
0.000227911
0.000104787
0.000129894
0.000116274
0.000142974
0.000257144
0.000146464
7.31613e-05
0.000192762
0.000135471
8.30334e-05
0.00011157
0.00011125
0.000147218
0.000176904
0.0001408
0.000131972
0.000178122
0.000149904
0.00013357
0.000126638
0.000162475
0.0002324
0.000192598
0.000120243
0.000145471
0.00015565
0.000145943
0.000248662
0.000201947
0.000107802
0.000168194
0.000202708
0.00025979
0.000286332
0.000205447
0.000239535
0.000141506
0.000161228
0.00027311
0.000151579
0.000177432
6.58342e-05
0.000116801
0.000115327
0.000114064
0.000110518
0.000116372
0.000251661
9.05856e-05
0.000241071
0.000242103
0.00038016
0.000126455
0.000193637
0.000245669
0.00026285
0.000106344
0.000199258
0.000167667
0.000151191
0.00011639
0.000136614
0.000129166
0.000103897
6.82854e-05
0.000165476
0.00018152
0.000137626
0.000211456
0.000353622
0.00024849
0.000117502
0.000181483
0.000112824
0.000145383
0.000124087
9.2746e-05
0.000170074
9.94282e-05
0.000269221
0.00028924
0.000204144
0.00022358
0.000122496
0.000107052
0.000285328
0.000202523
0.000149429
0.000230156
0.000248959
0.000138433
0.000215158
0.00015645
0.000118836
0.000161037
5.7444e-05
0.000233265
0.000128794
0.000219508
7.6352e-05
0.000136939
0.00016555
0.0001219
0.000262581
0.000150153
0.000121118
0.000125118
0.000128159
0.000240843
0.000182359
0.000140697
0.000166804
0.00012198
0.000179363
0.00015865
0.000163859
0.000187097
0.000218855
9.87903e-05
0.000299235
0.000166953
0.000139846
0.000239376
0.000214177
0.000211382
0.0001741
0.000251534
0.000215935
0.000151129
0.000240574
0.000133762
0.000106294
0.000151783
0.000143433
0.000156304
0.000197595
0.00014032
0.000118404
0.000223651
0.000116
0.000130336
0.000216923
0.000113028
0.000252654
0.000205382
0.000129144
0.000144613
0.000252688
7.45313e-05
0.000219523
0.000230262
0.000250147
0.000151124
9.09959e-05
0.000161589
9.30285e-05
0.000148456
0.000253425
0.000256536
0.0001751
0.000113645
0.000244084
0.000284153
0.000235908
0.000187958
8.28642e-05
0.000113047
0.000158659
0.000190483
0.000264155
0.000109751
0.000204373
0.000175113
0.000129873
0.000199979
0.000282953
0.000274942
0.000181499
0.000127443
0.000175427
5.5451e-05
0.000158599
0.000171425
0.000107823
0.000110426
0.000122546
0.000131569
0.000180499
0.000245337
0.000149769
0.000135423
0.000159385
0.000330474
9.80784e-05
0.000150081
0.000134909
9.81438e-05
8.5493e-05
0.000182897
0.000109806
0.000147026
0.000115659
0.000237678
0.000191269
0.000167374
0.000148277
0.000253585
0.000216151
0.000102542
0.000130413
0.000177219
0.000225409
0.000120881
0.000141962
0.000248693
0.000128606
0.000249312
0.00011808
0.000145172
0.000168201
0.000104394
0.000139786
6.22714e-05
0.000153336
0.000174528
0.000124676
0.00020208
0.000132743
0.000157738
0.000111436
0.000245975
0.000152582
0.000112835
0.000143965
0.000251142
0.000148112
0.000115017
0.000243751
8.77106e-05
0.000126979
9.16516e-05
0.000267401
0.00015806
0.000115402
0.000150605
0.000188252
0.0002014
0.000176361
0.000160268
0.000191341
0.000109893
0.000146474
0.000231715
0.000114123
0.000185629
0.000101063
0.000147978
0.000126484
0.000126834
0.000266762
0.000145607
0.000145928
5.21191e-05
0.000107983
0.000120704
0.000305299
0.000216075
0.00025523
0.000145732
0.000256967
0.000107074
0.000426518
0.000258551
0.000169814
5.61301e-05
0.000224675
0.000258725
0.000181903
0.000189133
0.000237405
0.000164426
8.3338e-05
0.000107975
0.000223063
0.000143559
0.000101983
0.00014468
0.000211427
0.000170017
8.34248e-05
0.000106411
0.000191589
8.39928e-05
0.000325333
0.000112678
0.000212232
0.000250881
0.000174127
7.60684e-05
0.000141373
0.000257625
0.000182931
7.90243e-05
0.000218247
0.000238035
0.000200195
0.000137927
0.000148552
0.000137195
0.000126785
0.000219633
0.000127135
0.000137168
0.000197065
0.000148857
0.000215156
0.000110341
0.000208355
0.000197824
0.000140141
0.000195646
0.000150206
6.99223e-05
0.000280254
0.000155589
0.000166831
0.000274475
0.000166218
0.000228426
0.00013348
0.000152921
0.000195276
8.68638e-05
0.000336804
0.000195111
0.000195171
0.000118183
0.000207408
0.00024019
9.92369e-05
0.000229541
0.000163484
0.000125552
0.000232506
0.000147426
0.000121335
0.00018521
0.000173412
0.00023946
0.00027428
0.000269424
0.000151456
0.000112679
0.000172295
0.00011618
0.000138187
0.000132277
0.000114278
0.000290335
0.000195698
0.000111067
0.000146589
0.000256436
0.000121602
0.00012493
0.000148226
0.000135836
0.000190007
0.000113318
0.000229275
0.000180422
0.000284315
0.000131596
0.000159079
0.000260317
0.000281955
0.000472538
0.00011495
0.000108133
0.000137592
0.000139503
0.000120996
0.0002264
0.000115956
0.000214908
0.000243615
0.000245913
0.000207382
0.000230162
0.000271643
0.000273878
0.000135191
0.000163611
0.000129738
8.48415e-05
0.000269002
0.000170712
0.000132767
0.000131271
0.000120137
0.000143875
0.000102966
0.000154669
0.00012457
0.000159011
0.000153378
5.26611e-05
0.000150242
0.000205376
0.000313028
0.000159398
0.000164304
0.000176173
0.000247592
0.000225816
0.000237177
0.000115951
0.000144817
4.84914e-05
0.000125825
0.000130196
0.000235194
0.000216441
0.00012529
0.000172541
0.000112591
0.000247704
0.000246023
0.000196525
0.000225116
0.000248532
0.000142803
9.9295e-05
0.000143961
0.000132144
0.000126837
0.000149764
0.000246754
0.000114869
0.000265212
0.000110705
0.000193598
6.73013e-05
0.00011517
0.00024461
0.000259874
0.000140073
0.000166306
0.000158946
0.000118316
0.000158579
0.000145684
0.000239045
0.000398007
9.49015e-05
0.000136987
0.000155943
0.000172067
0.000119209
0.000266114
0.000160659
0.000255073
9.05145e-05
0.000131008
0.000167831
0.000153674
0.000186612
0.00017894
0.000113343
8.27924e-05
0.000103424
0.000124145
0.000214422
0.000109135
0.000204632
0.000165769
0.000241235
0.000124782
0.000247703
0.000160774
0.000111101
8.56137e-05
0.000119218
0.000162456
0.000123334
0.000121569
0.000110114
0.000145669
0.000278512
8.89985e-05
0.000102255
0.000207791
6.38171e-05
0.000168162
0.000139469
8.8635e-05
0.000221392
0.000223572
0.000209704
0.000119365
0.000246727
0.000165299
0.00024995
0.0001796
0.000139612
0.000136129
0.000175931
7.82804e-05
0.000211786
0.000141576
0.000150903
0.000184585
0.00025764
9.18401e-05
0.000198702
0.000133738
0.000149426
0.00021195
0.000104105
0.000154405
0.000207046
0.000247382
7.17515e-05
0.000227332
0.000145974
0.000221715
9.52649e-05
0.000156105
0.000163715
0.000157977
0.000156411
0.000139445
0.000253099
0.00019965
0.000218096
0.000253385
0.000121277
0.000228564
0.000169848
0.000272683
0.000126998
9.51582e-05
0.000276158
0.000144604
0.000141113
0.000185122
0.000320207
0.000249943
0.000272266
0.000227994
0.000234475
0.000126656
9.24727e-05
0.00014577
0.000252585
4.79133e-05
0.000141542
0.0001341
0.000262593
0.000103808
0.00023241
0.00013095
0.000122649
0.000137195
0.000205246
0.00016007
0.000152121
0.000161137
0.000160866
0.000171235
0.000106532
0.000179577
0.00011195
0.00019774
0.000122176
0.000115851
0.000233396
0.000278938
0.000110944
0.00026535
0.000327927
0.000224676
0.000134181
0.000232175
0.000155595
0.000179695
0.000217623
0.000136354
0.00017198
0.000192686
0.000491035
0.000282628
0.000114899
0.000128597
0.000125395
0.00012339
6.33667e-05
0.000152531
0.000239132
0.00019686
0.000163179
0.000151113
0.000236091
6.91205e-05
0.000116028
0.00024814
0.000151528
0.000152716
0.000270911
0.000198432
0.000264813
7.57569e-05
0.000237566
0.000146481
0.000113403
0.000135705
0.000140676
0.000107856
9.68584e-05
0.00023868
0.000121786
0.000112752
0.000107989
0.000147093
0.000147945
0.000153831
0.000182163
0.000171033
0.00013479
0.000284286
0.000109821
0.000144595
0.000122291
0.000116909
0.000126881
5.68866e-05
0.000190588
0.000170156
0.000161337
0.00021496
0.000247773
0.000294959
0.000115097
0.000290868
0.000159907
0.000229108
0.000173696
0.000137942
0.000148425
0.000301839
0.000191735
9.62771e-05
0.000176264
0.000227661
0.000204532
0.000153505
0.000394864
0.000200012
0.000143037
0.000237968
0.000185366
0.000129971
0.000185394
0.000205701
0.000170492
0.00025369
0.000111305
0.000164991
0.000104374
0.000199295
0.000243674
0.000197032
0.000108632
0.000199042
0.000232831
0.000233755
0.000212518
0.00014369
0.000215016
0.000207606
0.000220892
0.000117449
0.000155338
0.000181279
0.000147336
0.00013456
0.000249656
0.00015323
0.00015614
0.000113979
7.93723e-05
0.00013694
0.000143908
0.000265607
0.000128019
0.00011859
0.000127669
0.000251317
0.000127417
0.000248416
0.000248284
0.000128008
0.00011286
0.000263301
0.000113441
0.000240877
0.000170823
9.76154e-05
0.000254328
0.000196344
0.00023186
0.000134771
0.000146367
0.000145738
0.000175764
0.000218271
0.000146054
0.000160663
0.000280857
0.000193728
0.000149589
0.000142959
0.000184835
0.000116412
0.00014685
0.000158338
0.00024855
0.000198176
0.000127446
0.000122627
0.000161864
0.000259133
0.000107626
0.000146994
0.000101901
7.04727e-05
0.000218235
0.000225372
0.000123152
0.000152917
0.00020038
0.000192963
0.000229084
0.000118548
0.000155385
0.000156024
0.000208068
0.000163806
0.000142266
6.33723e-05
0.000121008
8.89127e-05
0.000165691
0.000262761
0.000113052
0.0001887
0.000182425
9.33951e-05
0.000100374
0.000113733
0.000176033
0.000242076
6.49651e-05
0.000130725
0.00016158
8.86321e-05
0.000106584
0.000127496
0.000202308
0.000102683
0.00012061
0.000135143
0.000109673
0.000146909
0.000135809
0.000183916
8.75624e-05
0.00022469
0.000127801
0.000151657
0.000183978
4.84842e-05
0.000228024
0.000130183
0.00015933
0.000178084
0.000173727
0.000120842
6.24503e-05
0.000242351
0.000148094
0.00015181
0.000166461
0.000253981
0.000183264
0.000131959
0.000119327
0.00017771
0.000178166
7.36799e-05
0.000188988
0.000169543
0.000238502
0.000150244
0.000222419
9.14839e-05
0.000244702
0.00010856
0.000121754
0.00016604
0.000114401
0.000118206
0.000143723
0.000150239
0.000149055
8.54174e-05
0.00024869
0.000111764
0.000190521
0.00014405
0.000261348
0.00017882
0.000124032
0.000149078
0.000123082
0.000268005
0.000141586
0.000229436
0.00017025
0.000115282
0.000110173
0.000220544
0.000133985
0.000209692
0.00016606
0.000149844
0.000255126
0.000280655
0.000190055
0.000162297
0.00024798
0.000227466
0.000115799
0.000147719
0.000112727
9.67301e-05
0.000154764
0.000215673
0.000134001
0.000193786
8.73075e-05
0.000296054
8.80103e-05
0.000123416
0.000139633
0.000156344
9.95924e-05
0.000124054
0.00015096
0.000166177
0.000195466
0.000132411
0.000231097
0.000232338
0.000138098
0.000208114
0.000155437
0.000229348
0.00011459
0.000143403
0.000181573
9.93148e-05
0.00024161
0.000214876
0.000244159
0.000275792
0.000118649
0.0003017
7.64591e-05
0.000155454
0.000164185
0.000258285
0.000212865
0.000246694
0.000164119
0.000193222
0.00017175
0.000246505
0.000128537
0.000178014
0.000227911
0.000104787
0.000129894
0.000116274
0.000142974
0.000257144
0.000146464
7.31613e-05
0.000192762
0.000135471
8.30334e-05
0.00011157
0.00011125
0.000147218
0.000176904
0.0001408
0.000131972
0.000178122
0.000149904
0.00013357
0.000126638
0.000162475
0.0002324
0.000192598
0.000120243
0.000145471
0.00015565
0.000145943
0.000248662
0.000201947
0.000107802
0.000168194
0.000202708
0.00025979
0.000286332
0.000205447
0.000239535
0.000141506
0.000161228
0.00027311
0.000151579
0.000177432
6.58342e-05
0.000116801
0.000115327
0.000114064
0.000110518
0.000116372
0.000251661
9.05856e-05
0.000241071
0.000242103
0.00038016
0.000126455
0.000193637
0.000245669
0.00026285
0.000106344
0.000199258
0.000167667
0.000151191
0.00011639
0.000136614
0.000129166
0.000103897
6.82854e-05
0.000165476
0.00018152
0.000137626
0.000211456
0.000353622
0.00024849
0.000117502
0.000181483
0.000112824
0.000145383
0.000124087
9.2746e-05
0.000170074
9.94282e-05
0.000269221
0.00028924
0.000204144
0.00022358
0.000122496
0.000107052
0.000285328
0.000202523
0.000149429
0.000230156
0.000248959
0.000138433
0.000215158
0.00015645
0.000118836
0.000161037
5.7444e-05
0.000233265
0.000128794
0.000219508
7.6352e-05
0.000136939
0.00016555
0.0001219
0.000262581
0.000150153
0.000121118
0.000125118
0.000128159
0.000240843
0.000182359
0.000140697
0.000166804
0.00012198
0.000179363
0.00015865
0.000163859
0.000187097
0.000218855
9.87903e-05
0.000299235
0.000166953
0.000139846
0.000239376
0.000214177
0.000211382
0.0001741
0.000251534
0.000215935
0.000151129
0.000240574
0.000133762
0.000106294
0.000151783
0.000143433
0.000156304
0.000197595
0.00014032
0.000118404
0.000223651
0.000116
0.000130336
0.000216923
0.000113028
0.000252654
0.000205382
0.000129144
0.000144613
0.000252688
7.45313e-05
0.000219523
0.000230262
0.000250147
0.000151124
9.09959e-05
0.000161589
9.30285e-05
0.000148456
0.000253425
0.000256536
0.0001751
0.000113645
0.000244084
0.000284153
0.000235908
0.000187958
8.28642e-05
0.000113047
0.000158659
0.000190483
0.000264155
0.000109751
0.000204373
0.000175113
0.000129873
0.000199979
0.000282953
0.000274942
0.000181499
0.000127443
0.000175427
5.5451e-05
0.000158599
0.000171425
0.000107823
0.000110426
0.000122546
0.000131569
0.000180499
0.000245337
0.000149769
0.000135423
0.000159385
0.000330474
9.80784e-05
0.000150081
0.000134909
9.81438e-05
8.5493e-05
0.000182897
0.000109806
0.000147026
0.000115659
0.000237678
0.000191269
0.000167374
0.000148277
0.000253585
0.000216151
0.000102542
0.000130413
0.000177219
0.000225409
0.000120881
0.000141962
0.000248693
0.000128606
0.000249312
0.00011808
0.000145172
0.000168201
0.000104394
0.000139786
6.22714e-05
0.000153336
0.000174528
0.000124676
0.00020208
0.000132743
0.000157738
0.000111436
0.000245975
0.000152582
0.000112835
0.000143965
0.000251142
0.000148112
0.000115017
0.000243751
8.77106e-05
0.000126979
9.16516e-05
0.000267401
0.00015806
0.000115402
0.000150605
0.000188252
0.0002014
0.000176361
0.000160268
0.000191341
0.000109893
0.000146474
0.000231715
0.000114123
0.000185629
0.000101063
0.000147978
0.000126484
0.000126834
0.000266762
0.000145607
0.000145928
5.21191e-05
0.000107983
0.000120704
0.000305299
0.000216075
0.00025523
0.000145732
0.000256967
0.000107074
0.000426518
0.000258551
0.000169814
5.61301e-05
0.000224675
0.000258725
0.000181903
0.000189133
0.000237405
0.000164426
8.3338e-05
0.000107975
0.000223063
0.000143559
0.000101983
0.00014468
0.000211427
0.000170017
8.34248e-05
0.000106411
0.000191589
8.39928e-05
0.000325333
0.000112678
0.000212232
0.000250881
0.000174127
7.60684e-05
0.000141373
0.000257625
0.000182931
7.90243e-05
0.000218247
0.000238035
0.000200195
0.000137927
0.000148552
0.000137195
0.000126785
0.000219633
0.000127135
0.000137168
0.000197065
0.000148857
0.000215156
0.000110341
0.000208355
0.000197824
0.000140141
0.000195646
0.000150206
6.99223e-05
0.000280254
0.000155589
0.000166831
0.000274475
0.000166218
0.000228426
0.00013348
0.000152921
0.000195276
8.68638e-05
0.000336804
0.000195111
0.000195171
0.000118183
0.000207408
0.00024019
9.92369e-05
0.000229541
0.000163484
0.000125552
0.000232506
0.000147426
0.000121335
0.00018521
0.000173412
0.00023946
0.00027428
0.000269424
0.000151456
0.000112679
0.000172295
0.00011618
0.000138187
0.000132277
0.000114278
0.000290335
0.000195698
0.000111067
0.000146589
0.000256436
0.000121602
0.00012493
0.000148226
0.000135836
0.000190007
0.000113318
0.000229275
0.000180422
0.000284315
0.000131596
0.000159079
0.000260317
0.000281955
0.000472538
0.00011495
0.000108133
0.000137592
0.000139503
0.000120996
0.0002264
0.000115956
0.000214908
0.000243615
0.000245913
0.000207382
0.000230162
0.000271643
0.000273878
0.000135191
0.000163611
0.000129738
8.48415e-05
0.000269002
0.000170712
0.000132767
0.000131271
0.000120137
0.000143875
0.000102966
0.000154669
0.00012457
0.000159011
0.000153378
5.26611e-05
0.000150242
0.000205376
0.000313028
0.000159398
0.000164304
0.000176173
0.000247592
0.000225816
0.000237177
0.000115951
0.000144817
4.84914e-05
0.000125825
0.000130196
0.000235194
0.000216441
0.00012529
0.000172541
0.000112591
0.000247704
0.000246023
0.000196525
0.000225116
0.000248532
0.000142803
9.9295e-05
0.000143961
0.000132144
0.000126837
0.000149764
0.000246754
0.000114869
0.000265212
0.000110705
0.000193598
6.73013e-05
0.00011517
0.00024461
0.000259874
0.000140073
0.000166306
0.000158946
0.000118316
0.000158579
0.000145684
0.000239045
0.000398007
9.49015e-05
0.000136987
0.000155943
0.000172067
0.000119209
0.000266114
0.000160659
0.000255073
9.05145e-05
0.000131008
0.000167831
0.000153674
0.000186612
0.00017894
0.000113343
8.27924e-05
0.000103424
0.000124145
0.000214422
0.000109135
0.000204632
0.000165769
0.000241235
0.000124782
0.000247703
0.000160774
0.000111101
8.56137e-05
0.000119218
0.000162456
0.000123334
0.000121569
0.000110114
0.000145669
0.000278512
8.89985e-05
0.000102255
0.000207791
6.38171e-05
0.000168162
0.000139469
8.8635e-05
0.000221392
0.000223572
0.000209704
0.000119365
0.000246727
0.000165299
0.00024995
0.0001796
0.000139612
0.000136129
0.000175931
7.82804e-05
0.000211786
0.000141576
0.000150903
0.000184585
0.00025764
9.18401e-05
0.000198702
0.000133738
0.000149426
0.00021195
0.000104105
0.000154405
0.000207046
0.000247382
7.17515e-05
0.000227332
0.000145974
0.000221715
9.52649e-05
0.000156105
0.000163715
0.000157977
0.000156411
0.000139445
0.000253099
0.00019965
0.000218096
0.000253385
0.000121277
0.000228564
0.000169848
0.000272683
0.000126998
9.51582e-05
0.000276158
0.000144604
0.000141113
0.000185122
0.000320207
0.000249943
0.000272266
0.000227994
0.000234475
0.000126656
9.24727e-05
0.00014577
0.000252585
4.79133e-05
0.000141542
0.0001341
0.000262593
0.000103808
0.00023241
0.00013095
0.000122649
0.000137195
0.000205246
0.00016007
0.000152121
0.000161137
0.000160866
0.000171235
0.000106532
0.000179577
0.00011195
0.00019774
0.000122176
0.000115851
0.000233396
0.000278938
0.000110944
0.00026535
0.000327927
0.000224676
0.000134181
0.000232175
0.000155595
0.000179695
0.000217623
0.000136354
0.00017198
0.000192686
0.000491035
0.000282628
0.000114899
0.000128597
0.000125395
0.00012339
6.33667e-05
0.000152531
0.000239132
0.00019686
0.000163179
0.000151113
0.000236091
6.91205e-05
0.000116028
0.00024814
0.000151528
0.000152716
0.000270911
0.000198432
0.000264813
7.57569e-05
0.000237566
0.000146481
0.000113403
0.000135705
0.000140676
0.000107856
9.68584e-05
0.00023868
0.000121786
0.000112752
0.000107989
0.000147093
0.000147945
0.000153831
0.000182163
0.000171033
0.00013479
0.000284286
0.000109821
0.000144595
0.000122291
0.000116909
0.000126881
5.68866e-05
0.000190588
0.000170156
0.000161337
0.00021496
0.000247773
0.000294959
0.000115097
0.000290868
0.000159907
0.000229108
0.000173696
0.000137942
0.000148425
0.000301839
0.000191735
9.62771e-05
0.000176264
0.000227661
0.000204532
0.000153505
0.000394864
0.000200012
0.000143037
0.000237968
0.000185366
0.000129971
0.000185394
0.000205701
0.000170492
0.00025369
0.000111305
0.000164991
0.000104374
0.000199295
0.000243674
0.000197032
0.000108632
0.000199042
0.000232831
0.000233755
0.000212518
0.00014369
0.000215016
0.000207606
0.000220892
0.000117449
0.000155338
0.000181279
0.000147336
0.00013456
0.000249656
0.00015323
0.00015614
0.000113979
7.93723e-05
0.00013694
0.000143908
0.000265607
0.000128019
0.00011859
0.000127669
0.000251317
0.000127417
0.000248416
0.000248284
0.000128008
0.00011286
0.000263301
0.000113441
0.000240877
0.000170823
9.76154e-05
0.000254328
0.000196344
0.00023186
0.000134771
0.000146367
0.000145738
0.000175764
0.000218271
0.000146054
0.000160663
0.000280857
0.000193728
0.000149589
0.000142959
0.000184835
0.000116412
0.00014685
0.000158338
0.00024855
0.000198176
0.000127446
0.000122627
0.000161864
0.000259133
0.000107626
0.000146994
0.000101901
7.04727e-05
0.000218235
0.000225372
0.000123152
0.000152917
0.00020038
0.000192963
0.000229084
0.000118548
0.000155385
0.000156024
0.000208068
0.000163806
0.000142266
6.33723e-05
0.000121008
8.89127e-05
0.000165691
0.000262761
0.000113052
0.0001887
0.000182425
9.33951e-05
0.000100374
0.000113733
0.000176033
0.000242076
6.49651e-05
0.000130725
0.00016158
8.86321e-05
0.000106584
0.000127496
0.000202308
0.000102683
0.00012061
0.000135143
0.000109673
0.000146909
0.000135809
0.000183916
8.75624e-05
0.00022469
0.000127801
0.000151657
0.000183978
4.84842e-05
0.000228024
0.000130183
0.00015933
0.000178084
0.000173727
0.000120842
6.24503e-05
0.000242351
0.000148094
0.00015181
0.000166461
0.000253981
0.000183264
0.000131959
0.000119327
0.00017771
0.000178166
7.36799e-05
0.000188988
0.000169543
0.000238502
0.000150244
0.000222419
9.14839e-05
0.000244702
0.00010856
0.000121754
0.00016604
0.000114401
0.000118206
0.000143723
0.000150239
0.000149055
8.54174e-05
0.00024869
0.000111764
)
;

boundaryField
{
    back
    {
        type            empty;
    }
    front
    {
        type            empty;
    }
    down
    {
        type            calculated;
    }
    right
    {
        type            calculated;
    }
    up
    {
        type            calculated;
    }
    left
    {
        type            calculated;
    }
    hole
    {
        type            calculated;
    }
}


// ************************************************************************* //
