/*--------------------------------*- C++ -*----------------------------------*\
| =========                 |                                                 |
| \\      /  F ield         | OpenFOAM: The Open Source CFD Toolbox           |
|  \\    /   O peration     | Version:  v2012                                 |
|   \\  /    A nd           | Website:  www.openfoam.com                      |
|    \\/     M anipulation  |                                                 |
\*---------------------------------------------------------------------------*/
FoamFile
{
    version     2.0;
    format      ascii;
    class       volScalarField;
    location    "1";
    object      sigmaHyd;
}
// * * * * * * * * * * * * * * * * * * * * * * * * * * * * * * * * * * * * * //

dimensions      [1 -1 -2 0 0 0 0];


internalField   nonuniform List<scalar> 
1896
(
7.0183e+06
6.05816e+06
6.75528e+06
1.0677e+07
6.86951e+06
6.77436e+06
1.0303e+07
6.08914e+06
3.10316e+06
6.00682e+06
7.19378e+06
4.2023e+06
4.23426e+06
3.89169e+06
9.68093e+06
7.03708e+06
6.64095e+06
1.63032e+07
6.9698e+06
4.73089e+06
-8.26074e+06
6.30436e+06
9.42981e+06
9.53618e+06
6.30247e+06
6.20715e+06
4.60037e+06
4.60314e+06
7.05382e+06
7.34167e+06
6.96562e+06
5.89172e+06
2.45355e+06
6.09511e+06
9.34544e+06
7.27827e+06
6.95265e+06
6.25907e+06
1.44299e+07
7.40212e+06
5.81912e+06
9.12425e+06
6.15957e+06
6.73793e+06
4.80999e+06
4.20528e+06
9.48291e+06
7.17106e+06
7.61073e+06
8.97117e+06
6.78438e+06
6.4689e+06
6.18548e+06
6.45776e+06
3.70439e+06
6.14903e+06
5.77925e+06
7.14819e+06
6.51116e+06
7.73962e+06
6.13254e+06
9.3747e+06
8.87184e+06
6.57055e+06
7.31901e+06
5.8569e+06
9.11879e+06
4.64935e+06
6.40231e+06
9.21387e+06
2.32425e+06
8.88051e+06
6.39022e+06
5.99549e+06
9.73075e+06
6.1881e+06
6.14369e+06
6.75189e+06
6.69495e+06
6.41897e+06
1.16016e+07
9.48206e+06
5.4535e+06
5.83505e+06
5.70481e+06
6.58012e+06
5.58761e+06
5.27518e+06
4.99809e+06
5.62344e+06
6.06869e+06
2.64309e+07
2.72762e+06
1.21698e+07
9.83008e+06
6.39935e+06
6.02595e+06
7.43316e+06
5.87401e+06
4.94495e+06
5.15845e+06
4.00354e+06
6.60358e+06
3.27066e+06
4.8103e+06
6.14881e+06
6.39182e+06
8.09858e+06
8.35317e+06
2.05666e+07
7.49446e+06
5.89766e+06
7.57292e+06
5.20246e+06
1.63019e+07
5.42265e+06
5.61799e+06
5.97097e+06
6.68153e+06
7.22679e+06
6.93542e+06
2.42314e+06
6.31561e+06
5.33344e+06
5.49376e+06
3.88044e+06
7.12833e+06
6.04646e+06
7.03417e+06
4.77131e+06
5.10372e+06
6.03368e+06
7.55939e+06
1.46932e+07
6.84318e+06
8.99357e+06
1.0122e+07
9.90302e+06
5.88571e+06
7.50608e+06
6.4388e+06
6.77138e+06
7.3086e+06
9.54828e+06
5.94041e+06
6.6743e+06
6.35976e+06
7.06095e+06
8.90904e+06
5.64311e+06
4.87628e+06
6.05046e+06
6.29814e+06
6.45322e+06
6.35289e+06
6.78365e+06
5.12441e+06
6.28722e+06
2.33073e+07
6.45279e+06
6.37149e+06
1.02275e+07
2.98068e+06
6.61222e+06
1.32499e+07
5.95123e+06
8.32023e+06
7.09538e+06
7.31888e+06
6.06679e+06
5.9455e+06
5.90996e+06
2.77811e+06
3.06806e+06
1.01492e+07
9.91823e+06
7.86337e+06
6.2687e+06
7.24232e+06
4.04823e+06
2.19592e+06
7.66774e+06
6.63918e+06
8.51635e+06
9.51311e+06
1.42422e+07
5.01303e+06
8.71663e+06
-1.06267e+07
-1.34931e+06
8.86194e+06
7.25488e+06
6.75009e+06
9.83521e+06
9.04361e+06
3.73952e+06
6.23804e+06
6.59829e+06
3.68888e+06
5.18698e+06
5.21707e+06
7.00214e+06
7.08887e+06
6.59548e+06
9.6804e+06
6.56235e+06
7.65377e+06
8.62528e+06
-7.06318e+06
6.02092e+06
9.75302e+06
6.88915e+06
6.22742e+06
6.42046e+06
4.32661e+06
3.87531e+06
7.48584e+06
8.50553e+06
7.87202e+06
7.05122e+06
-1.21465e+06
6.51068e+06
9.96744e+06
8.35598e+06
5.97817e+06
7.14259e+06
9.44679e+06
6.38425e+06
8.81664e+06
5.96226e+06
8.05352e+06
6.38653e+06
6.23646e+06
7.67396e+06
5.78461e+06
6.38426e+06
4.17291e+06
7.16229e+06
1.09173e+07
7.13646e+06
1.01692e+07
8.23946e+06
4.85326e+06
1.15098e+07
6.51179e+06
3.75815e+06
6.3646e+06
3.36342e+06
3.67242e+06
8.21361e+06
3.80531e+06
6.27311e+06
6.01669e+06
7.43919e+06
5.80898e+06
6.28911e+06
1.97366e+06
1.00632e+07
8.98496e+06
9.22837e+06
7.01525e+06
-4.09632e+06
-5.37253e+06
4.94491e+06
6.53459e+06
4.73118e+06
7.20394e+06
4.11894e+06
7.35765e+06
6.46778e+06
4.70502e+06
-3.00322e+06
9.32395e+06
3.82727e+06
6.53591e+06
1.94987e+06
8.08658e+06
6.97776e+06
6.44184e+06
7.01434e+06
5.92435e+06
8.63086e+06
2.1186e+06
5.78911e+06
6.49156e+06
7.25489e+06
6.36947e+06
5.82936e+06
6.17338e+06
7.23767e+06
6.20701e+06
6.9121e+06
6.92056e+06
6.3993e+06
1.27074e+07
2.96276e+06
6.728e+06
5.4594e+06
1.05671e+07
-1.84122e+06
9.72876e+06
6.7327e+06
9.02818e+06
1.01261e+07
6.35423e+06
6.21001e+06
6.00981e+06
1.5502e+06
2.54812e+06
6.26301e+06
6.40784e+06
5.78919e+06
3.25213e+06
7.25955e+06
6.0235e+06
7.13426e+06
5.83546e+06
6.43821e+06
6.48865e+06
6.67189e+06
5.95054e+06
8.92581e+06
7.98921e+06
6.29682e+06
1.77587e+06
5.74884e+06
6.01385e+06
2.43068e+06
6.83637e+06
6.30044e+06
-4.98461e+06
6.88121e+06
7.46039e+06
5.86568e+06
6.01619e+06
-5.33707e+06
4.53417e+06
9.39553e+06
6.98045e+06
6.08493e+06
5.99588e+06
-3.3879e+06
6.7474e+06
3.98089e+06
4.85234e+06
6.83832e+06
6.77071e+06
1.38063e+07
5.21815e+06
-5.68084e+06
75920.7
6.82247e+06
4.15827e+06
6.46946e+06
6.85901e+06
7.19054e+06
129409
1.25911e+07
5.71458e+06
6.32906e+06
3.90558e+06
1.17954e+07
1.43402e+07
-1.52942e+06
6.28067e+06
6.66639e+06
7.57326e+06
7.13641e+06
6.2738e+06
5.8597e+06
9.61203e+06
3.91739e+06
7.50829e+06
5.80939e+06
6.20554e+06
3.10845e+06
1.98236e+07
4.7959e+06
5.74922e+06
5.24074e+06
5.02793e+06
5.85135e+06
-29828.4
6.50833e+06
3.27661e+06
6.89556e+06
1.30159e+07
6.10545e+06
7.34079e+06
1.26742e+07
6.10196e+06
6.81664e+06
8.23265e+06
1.36766e+07
6.29431e+06
273692
7.80557e+06
7.72516e+06
6.40934e+06
6.39241e+06
6.13857e+06
6.13041e+06
6.81431e+06
2.30493e+06
7.36974e+06
3.21077e+06
6.23653e+06
9.86473e+06
3.60851e+06
7.81758e+06
5.58765e+06
5.4358e+06
5.10243e+06
9.05247e+06
7.76477e+06
8.36417e+06
6.34085e+06
1.58543e+07
5.48376e+06
5.96087e+06
4.64844e+06
7.58507e+06
5.79337e+06
9.52557e+06
7.28933e+06
5.51919e+06
-854619
7.56775e+06
1.0549e+07
1.20752e+07
-1.22757e+06
3.39148e+06
5.85035e+06
6.52437e+06
6.76211e+06
6.34429e+06
5.96026e+06
1.63982e+07
4.85677e+06
6.27255e+06
4.03161e+06
7.81761e+06
6.46147e+06
1.04539e+07
7.54787e+06
5.82145e+06
6.24143e+06
6.26154e+06
7.07171e+06
6.90635e+06
9.68192e+06
6.54672e+06
6.34768e+06
6.41864e+06
6.41301e+06
5.46551e+06
6.42656e+06
5.79922e+06
-2.66747e+06
5.29155e+06
7.16642e+06
6.55512e+06
7.19909e+06
7.23027e+06
6.88315e+06
8.45095e+06
7.96531e+06
7.52933e+06
6.93242e+06
1.7174e+07
6.67364e+06
4.88237e+06
6.63176e+06
6.3487e+06
6.29962e+06
5.94209e+06
6.93599e+06
-3.78699e+06
6.29453e+06
6.01183e+06
5.91644e+06
5.9851e+06
6.16697e+06
6.72991e+06
5.40131e+06
1.04307e+07
4.29467e+06
7.5071e+06
6.32637e+06
7.07152e+06
7.78374e+06
6.26556e+06
7.09541e+06
6.99601e+06
1.26474e+07
1.57246e+07
6.42327e+06
6.60061e+06
5.06564e+06
6.52637e+06
6.1114e+06
6.50847e+06
5.60345e+06
1.38499e+07
6.91106e+06
-2.85807e+06
5.3532e+06
1.32532e+07
3.78561e+06
7.74601e+06
4.38934e+06
4.19058e+06
4.449e+06
6.78819e+06
6.12074e+06
7.92223e+06
4.71229e+06
6.42013e+06
6.70741e+06
6.53074e+06
6.87461e+06
6.14874e+06
8.71391e+06
6.62219e+06
9.28839e+06
4.75385e+06
5.03307e+06
9.33628e+06
6.41458e+06
6.47894e+06
6.70437e+06
6.40189e+06
5.09431e+06
6.73153e+06
6.66143e+06
5.30134e+06
5.96225e+06
4.96279e+06
-5.99118e+06
9.02293e+06
1.45678e+07
-1.03797e+06
6.94415e+06
5.82354e+06
5.43917e+06
5.02146e+06
5.51744e+06
4.56979e+06
5.64135e+06
6.12296e+06
6.51188e+06
8.25693e+06
6.98016e+06
3.08867e+06
4.97353e+06
7.91982e+06
3.65983e+06
8.57508e+06
6.27339e+06
7.23906e+06
7.82561e+06
6.30098e+06
6.33383e+06
8.03631e+06
6.35745e+06
1.2658e+07
4.2622e+06
6.42818e+06
8.09664e+06
5.93057e+06
3.52571e+06
3.27948e+06
726260
1.60092e+07
8.00047e+06
8.6595e+06
6.90124e+06
5.68907e+06
8.46279e+06
6.26989e+06
4.724e+06
8.98667e+06
6.24244e+06
2.55122e+06
6.62635e+06
6.6461e+06
1.65157e+06
991728
-1.85475e+06
7.03653e+06
8.92083e+06
1.07081e+07
5.51659e+06
1.99157e+06
1.1328e+07
4.73631e+06
6.50259e+06
7.48897e+06
7.93037e+06
5.26999e+06
7.97998e+06
8.68974e+06
7.09876e+06
1.36492e+07
8.96689e+06
9.49221e+06
8.72748e+06
8.67624e+06
5.69599e+06
6.88367e+06
6.28635e+06
5.38203e+06
6.02293e+06
1.4757e+07
-472176
6.17504e+06
4.90655e+06
1.16557e+07
6.93245e+06
4.11512e+06
1.48124e+06
8.73513e+06
5.70174e+06
9.23198e+06
-1.9051e+06
6.33551e+06
9.11233e+06
9.0216e+06
3.27151e+06
6.37165e+06
3.29904e+06
1.82626e+07
6.79627e+06
8.40918e+06
4.84818e+06
6.77278e+06
6.53466e+06
6.38474e+06
8.64874e+06
1.80054e+06
6.15124e+06
6.32618e+06
8.85532e+06
9.44322e+06
6.19734e+06
2.48134e+06
7.31385e+06
7.12664e+06
8.87795e+06
6.3201e+06
7.31742e+06
5.42305e+06
8.51221e+06
4.31154e+06
9.01012e+06
6.27852e+06
6.11285e+06
5.26438e+06
3.76152e+06
5.66524e+06
6.07065e+06
6.1341e+06
6.27893e+06
4.88304e+06
6.22649e+06
7.40419e+06
6.37819e+06
6.91861e+06
7.04514e+06
6.73697e+06
5.45406e+06
6.01857e+06
7.00036e+06
5.1957e+06
6.24624e+06
1.19317e+07
8.60338e+06
9.68217e+06
3.62364e+06
6.08102e+06
5.93475e+06
6.61931e+06
1.1096e+07
1.20965e+06
2.79806e+06
2.81806e+06
6.27002e+06
6.67507e+06
1.05391e+07
6.70984e+06
6.48457e+06
9.31607e+06
6.39811e+06
9.28896e+06
6.16016e+06
6.13604e+06
6.02661e+06
6.33886e+06
1.01994e+07
6.07659e+06
7.27542e+06
4.59528e+06
6.7469e+06
6.66861e+06
4.17434e+06
7.00327e+06
6.48582e+06
9.81166e+06
4.50508e+06
8.76472e+06
7.12617e+06
5.75507e+06
7.11109e+06
7.09216e+06
8.73875e+06
6.7581e+06
8.06713e+06
9.78341e+06
9.66191e+06
6.3053e+06
6.03196e+06
6.1904e+06
8.75111e+06
3.20328e+06
8.48569e+06
2.70274e+06
7.75858e+06
5.774e+06
6.19732e+06
8.57327e+06
6.40778e+06
4.4784e+06
-4.65749e+06
5.02481e+06
5.96539e+06
8.83785e+06
6.24033e+06
7.52813e+06
6.70163e+06
3.0059e+06
4.43385e+06
4.59758e+06
6.34142e+06
3.86777e+06
-2.73877e+06
6.77212e+06
4.41787e+06
1.63803e+07
5.4028e+06
6.69712e+06
8.75409e+06
6.36774e+06
8.16991e+06
6.61482e+06
5.01184e+06
6.99104e+06
7.81351e+06
6.18889e+06
9.8178e+06
1.63059e+07
6.15622e+06
8.72309e+06
6.62695e+06
4.20466e+06
-5.75776e+06
8.12049e+06
-1.03076e+07
9.15166e+06
8.93943e+06
1.56668e+06
4.49546e+06
9.01e+06
8.75643e+06
5.21352e+06
6.23491e+06
6.2231e+06
6.38025e+06
3.59091e+06
9.20972e+06
4.13547e+06
7.4833e+06
7.85596e+06
9.21943e+06
6.29951e+06
5.25538e+06
5.73147e+06
5.49543e+06
6.37365e+06
1.11556e+07
4.14086e+06
9.42713e+06
5.49312e+06
6.56548e+06
3.53708e+06
6.19293e+06
6.18309e+06
7.38838e+06
5.94022e+06
3.51311e+06
6.06569e+06
6.37804e+06
5.99459e+06
-596591
6.51078e+06
-2.05468e+06
7.03983e+06
7.11557e+06
5.52995e+06
5.62888e+06
-1.64166e+06
6.27972e+06
5.1567e+06
6.97399e+06
6.59679e+06
6.37252e+06
1.57704e+07
6.56918e+06
6.21919e+06
6.51293e+06
9.8312e+06
6.01859e+06
2.6773e+06
5.73346e+06
8.8446e+06
5.911e+06
6.27486e+06
6.56229e+06
6.11197e+06
8.30323e+06
-1.09801e+06
2.61412e+06
4.78417e+06
9.53892e+06
4.96734e+06
6.44723e+06
7.41373e+06
5.81671e+06
6.53943e+06
8.44731e+06
6.1331e+06
5.97333e+06
5.90988e+06
6.36215e+06
6.29755e+06
7.69633e+06
6.55183e+06
4.12373e+06
7.01456e+06
9.12352e+06
-364763
6.42073e+06
6.32896e+06
6.88291e+06
3.47898e+06
6.66776e+06
934216
1.90221e+07
-2.97445e+06
6.70191e+06
2.82582e+06
6.3032e+06
8.92992e+06
9.6289e+06
9.76065e+06
6.45353e+06
6.52998e+06
6.56086e+06
6.54581e+06
5.80374e+06
6.29261e+06
6.36052e+06
8.78855e+06
6.73757e+06
8.02948e+06
1.8951e+06
2.50347e+06
5.71372e+06
1.18795e+07
6.34388e+06
1.04659e+07
7.15755e+06
7.27065e+06
6.65698e+06
6.52033e+06
6.14773e+06
6.07883e+06
1.05794e+07
-844355
1.01575e+07
6.96689e+06
6.94827e+06
1.04205e+07
6.01051e+06
7.41253e+06
5.82505e+06
5.88192e+06
7.5044e+06
15604.8
5.75427e+06
6.75577e+06
139369
27684.9
2.37375e+06
5.69718e+06
8.73805e+06
-898360
7.25672e+06
6.43879e+06
7.46378e+06
9.28027e+06
5.1205e+06
6.46912e+06
7.36697e+06
8.43418e+06
1.18678e+07
7.60896e+06
8.01634e+06
6.52862e+06
7.95053e+06
3.8292e+06
6.3102e+06
8.86502e+06
7.2464e+06
6.19691e+06
6.79297e+06
6.40287e+06
2.68013e+06
1.06047e+06
6.20913e+06
6.56844e+06
-2.79411e+06
1.02757e+07
6.63551e+06
7.26816e+06
6.10655e+06
5.8814e+06
7.01508e+06
7.41865e+06
8.35775e+06
9.23153e+06
6.61153e+06
8.34882e+06
7.52053e+06
6.03121e+06
4.72574e+06
5.72567e+06
3.30703e+06
7.46968e+06
6.84912e+06
6.18522e+06
1.93862e+07
5.19714e+06
6.95797e+06
5.5503e+06
6.89016e+06
8.63856e+06
4.47693e+06
7.70401e+06
4.29701e+06
6.39358e+06
6.61287e+06
7.50321e+06
6.39731e+06
1.20293e+07
8.64982e+06
6.81091e+06
9.90632e+06
6.45009e+06
6.56756e+06
8.78694e+06
7.12722e+06
6.75235e+06
7.85652e+06
5.42073e+06
-136672
8.23842e+06
6.48494e+06
3.82753e+06
5.3347e+06
5.58502e+06
-7.67577e+06
7.50328e+06
1.41683e+07
6.84247e+06
7.6769e+06
1.4149e+07
-3.33049e+06
6.37083e+06
9.44398e+06
1.11103e+07
1.42116e+06
4.4186e+06
7.1061e+06
7.45271e+06
6.48106e+06
7.72373e+06
7.48383e+06
6.42777e+06
4.50789e+06
5.17926e+06
1.0227e+07
4.39619e+06
5.09437e+06
5.08615e+06
6.93136e+06
1.6919e+06
1.02528e+07
-3.21206e+06
1.28457e+07
6.50412e+06
7.16501e+06
6.92195e+06
1.00316e+07
6.65158e+06
6.00989e+06
7.75626e+06
6.79771e+06
7.1987e+06
401498
1.08153e+07
5.65458e+06
-29601.5
5.95516e+06
4.99512e+06
1.15508e+07
5.58996e+06
5.71373e+06
5.02907e+06
4.97363e+06
923925
8.817e+06
5.28061e+06
9.24542e+06
6.02821e+06
6.74599e+06
7.19415e+06
1.004e+07
9.18428e+06
7.29033e+06
5.96187e+06
1.82876e+06
8.59013e+06
1.74502e+06
6.87739e+06
6.40131e+06
6.22479e+06
8.05731e+06
1.87461e+07
7.35247e+06
5.85046e+06
5.36948e+06
5.48476e+06
6.40838e+06
8.72485e+06
6.38084e+06
6.18373e+06
3.43165e+06
2.61966e+06
3.52443e+06
1.69814e+07
6.42536e+06
326169
7.12095e+06
2.15456e+07
6.42544e+06
6.05183e+06
6.45631e+06
7.40177e+06
6.49514e+06
6.04688e+06
8.20225e+06
9.63828e+06
8.1754e+06
4.30931e+06
7.43074e+06
3.88971e+06
3.5912e+06
6.04914e+06
5.66363e+06
5.58363e+06
6.62343e+06
6.74439e+06
6.04564e+06
7.10793e+06
6.02444e+06
1.44826e+07
6.7309e+06
-870052
6.0383e+06
7.34759e+06
5.60198e+06
5.72761e+06
6.71889e+06
1.27241e+06
36303.3
6.64164e+06
6.67651e+06
1.37012e+07
8.89788e+06
6.8278e+06
8.98887e+06
7.38284e+06
6.28842e+06
6.21447e+06
1.0118e+07
6.33441e+06
6.46218e+06
7.73271e+06
1.01587e+07
1.00884e+07
1.0106e+06
6.36608e+06
6.05677e+06
5.89972e+06
5.95217e+06
5.93302e+06
-745965
1.07822e+07
6.49505e+06
4.96393e+06
3.84801e+06
6.11196e+06
5.81376e+06
6.98e+06
6.88945e+06
1.81994e+07
6.79523e+06
6.61959e+06
1.1349e+06
8.72581e+06
3.50649e+06
8.68434e+06
8.81872e+06
8.89142e+06
5.99119e+06
-4.01623e+06
4.1506e+06
-3.26788e+06
6.3108e+06
-1.3859e+06
5.62552e+06
8.06276e+06
7.95647e+06
4.86499e+06
4.55942e+06
6.55778e+06
4.69101e+06
-3.42734e+06
9.62808e+06
5.78078e+06
6.3089e+06
3.75822e+06
6.75966e+06
1.25231e+06
933407
7.85245e+06
6.51472e+06
6.19806e+06
8.10443e+06
5.86514e+06
6.75232e+06
6.17932e+06
9.12029e+06
9.38196e+06
1.00653e+07
1.00836e+07
-1.23239e+06
8.27894e+06
5.833e+06
6.35864e+06
3.8763e+06
8.23856e+06
6.10187e+06
6.9802e+06
6.21625e+06
4.84086e+06
1.90636e+06
2.81923e+06
6.71089e+06
6.16261e+06
6.51538e+06
6.41286e+06
6.66787e+06
6.59381e+06
5.85272e+06
6.21571e+06
5.74611e+06
7.36204e+06
5.33302e+06
5.6019e+06
7.88572e+06
5.59853e+06
5.36979e+06
7.85036e+06
7.19873e+06
7.59168e+06
1.06511e+07
6.32745e+06
6.26679e+06
9.74898e+06
5.77632e+06
5.8195e+06
8.46539e+06
7.03856e+06
5.78432e+06
1.05144e+07
3.74995e+06
-1.3215e+06
6.38154e+06
7.05415e+06
1.15219e+06
486324
-4.96782e+06
4.60818e+06
3.16933e+06
7.40075e+06
6.43118e+06
6.33982e+06
1.83158e+06
2.21332e+06
6.08338e+06
5.81268e+06
5.12473e+06
1.10792e+06
7.8428e+06
6.17127e+06
6.25961e+06
7.26231e+06
6.21934e+06
6.73177e+06
6.05547e+06
3.4559e+06
3.10138e+06
6.82743e+06
6.47333e+06
3.22064e+06
-2.31825e+06
6.00672e+06
6.22941e+06
1.78925e+07
6.44513e+06
1.82894e+06
9.25878e+06
6.79444e+06
9.54074e+06
9.44824e+06
2.11873e+06
6.41068e+06
-1.44907e+06
6.55166e+06
6.55796e+06
2.46114e+06
2.35673e+06
5.80567e+06
2.99943e+06
3.23505e+06
1.23575e+06
2.86985e+06
6.36738e+06
6.28291e+06
1.46215e+07
6.36959e+06
2.1468e+07
1.3165e+07
9.68458e+06
8.21013e+06
6.63258e+06
6.45125e+06
6.30362e+06
6.2049e+06
6.2868e+06
-1.97688e+06
5.83255e+06
9.71236e+06
7.44074e+06
8.73661e+06
9.40167e+06
2.50161e+06
8.31892e+06
8.70422e+06
9.32879e+06
70870.1
4.53129e+06
8.00228e+06
6.19561e+06
261655
8.01275e+06
1.31517e+06
6.29545e+06
6.21823e+06
3.58541e+06
4.03091e+06
4.04732e+06
-3.21518e+06
5.41723e+06
5.4701e+06
2.67724e+07
8.13628e+06
8.30811e+06
1.00925e+07
4.77941e+06
4.74249e+06
5.17922e+06
6.3609e+06
9.27688e+06
-3.87036e+06
4.40009e+06
1.15453e+06
4.02826e+06
6.83133e+06
6.96491e+06
1.8101e+07
6.32893e+06
8.27166e+06
6.57448e+06
6.46677e+06
6.58861e+06
2.93614e+06
-1.69937e+06
-5.29467e+06
6.00598e+06
1.12019e+07
8.12856e+06
5.3088e+06
1.84964e+07
-404301
7.73605e+06
5.30719e+06
5.10949e+06
3.29016e+06
-6.9763e+06
6.36772e+06
7.74452e+06
7.18826e+06
7.64326e+06
5.81455e+06
2.7874e+06
9.143e+06
1.43697e+07
6.4166e+06
2.80153e+06
7.25655e+06
7.17301e+06
6.26763e+06
6.06813e+06
6.05248e+06
6.0069e+06
4.55508e+06
6.31204e+06
6.47866e+06
6.4444e+06
8.88058e+06
6.64502e+06
-2.25951e+06
6.22445e+06
6.34879e+06
6.07483e+06
1.05412e+07
1.82772e+07
4.90343e+06
5.15795e+06
6.1232e+06
-503897
6.29635e+06
6.0227e+06
7.22473e+06
6.86706e+06
6.3086e+06
718016
6.62096e+06
8.39982e+06
8.73456e+06
2.26553e+06
2.15306e+06
552660
6.61967e+06
4.15023e+06
7.90874e+06
7.82235e+06
8.34561e+06
6.49516e+06
1.1317e+06
6.73408e+06
6.49408e+06
9.32023e+06
6.69039e+06
6.26449e+06
5.24553e+06
5.16132e+06
2.19922e+07
1.37305e+06
6.35117e+06
5.15595e+06
6.88661e+06
6.29635e+06
9.2072e+06
6.65694e+06
8.42387e+06
6.25812e+06
7.59213e+06
6.96159e+06
6.12238e+06
1.03845e+06
6.31081e+06
3.73984e+06
6.5517e+06
6.39917e+06
8.9736e+06
8.30579e+06
-4.10419e+06
7.34883e+06
8.01668e+06
8.10731e+06
9.76015e+06
6.65725e+06
6.57281e+06
7.61643e+06
7.79877e+06
5.78333e+06
5.78006e+06
6.36604e+06
8.31047e+06
1.05863e+07
4.45992e+06
4.48938e+06
9.31925e+06
6.47949e+06
7.81292e+06
6.80447e+06
6.37097e+06
9.0377e+06
6.65509e+06
6.5999e+06
9.05549e+06
6.1308e+06
4.87238e+06
2.55454e+06
8.69067e+06
6.93294e+06
2.87122e+06
5.88723e+06
1.18086e+07
6.21196e+06
5.95422e+06
6.15631e+06
6.0485e+06
5.70182e+06
9.8806e+06
6.05152e+06
8.30478e+06
5.40474e+06
8.4216e+06
6.38777e+06
6.24379e+06
6.16092e+06
7.47276e+06
6.90948e+06
7.00826e+06
6.25012e+06
1.0226e+07
6.73406e+06
6.50429e+06
1.27458e+07
295125
1.6262e+06
6.6541e+06
6.38839e+06
8.97096e+06
8.93493e+06
9.32501e+06
-5.18561e+06
6.11838e+06
1.05895e+07
7.11702e+06
5.01294e+06
6.45643e+06
-2.07185e+06
7.31653e+06
7.91964e+06
6.55679e+06
5.92924e+06
5.6221e+06
8.04559e+06
9.15576e+06
332128
-126919
5.09658e+06
5.33321e+06
7.92696e+06
6.53392e+06
5.85106e+06
7.63471e+06
6.70263e+06
6.94891e+06
5.30017e+06
6.26408e+06
325699
8.7718e+06
7.36849e+06
5.6628e+06
7.77581e+06
4.9046e+06
5.07679e+06
6.42992e+06
6.58053e+06
6.79672e+06
8.65788e+06
6.19381e+06
5.9166e+06
5.67145e+06
5.21248e+06
8.61345e+06
8.37877e+06
4.68316e+06
5.81692e+06
5.79064e+06
8.59622e+06
9.33878e+06
5.08246e+06
-4.83229e+06
4.21879e+06
6.00907e+06
6.60014e+06
8.13972e+06
7.98495e+06
5.41905e+06
5.39888e+06
9.23279e+06
8.77189e+06
5.34196e+06
6.74507e+06
6.57471e+06
6.41863e+06
8.3137e+06
6.60195e+06
6.39928e+06
6.26652e+06
3.73517e+06
6.36244e+06
6.52522e+06
6.24192e+06
4.17052e+06
5.33057e+06
6.48602e+06
8.77947e+06
6.75144e+06
6.85106e+06
5.58323e+06
6.38084e+06
5.33559e+06
5.81229e+06
5.97899e+06
5.88034e+06
1.29898e+07
6.56364e+06
7.27467e+06
6.91959e+06
6.20031e+06
9.06939e+06
8.81261e+06
1.05336e+06
3.70828e+06
4.42935e+06
4.94218e+06
5.82332e+06
7.86681e+06
-7.14503e+06
7.96737e+06
6.59071e+06
6.6992e+06
1.03851e+07
7.02817e+06
6.49929e+06
6.14842e+06
1.1912e+07
5.62961e+06
9.41841e+06
4.57572e+06
8.92229e+06
6.07479e+06
1.27287e+06
1.1412e+07
7.40977e+06
7.35404e+06
6.67741e+06
5.91288e+06
6.43064e+06
6.57086e+06
7.38135e+06
4.51899e+06
8.80402e+06
2.51709e+06
6.61407e+06
6.14669e+06
6.33868e+06
9.01849e+06
6.35307e+06
8.91311e+06
5.26363e+06
5.76805e+06
6.68861e+06
6.10448e+06
4.71728e+06
5.61449e+06
6.5261e+06
6.67757e+06
1.1208e+07
6.66472e+06
3.45838e+06
-202698
5.71677e+06
4.9287e+06
6.41219e+06
4.93967e+06
6.14498e+06
4.22879e+06
4.13692e+06
2.46005e+06
3.41878e+06
6.61322e+06
457413
6.28844e+06
7.08318e+06
700673
6.09164e+06
5.9248e+06
1.06837e+07
8.95616e+06
8.62056e+06
8.86365e+06
8.28704e+06
8.87237e+06
7.41569e+06
5.77227e+06
9.19193e+06
1.61228e+06
7.90185e+06
6.12145e+06
5.34387e+06
6.53285e+06
6.25351e+06
7.14839e+06
7.26593e+06
5.56494e+06
3.00351e+06
6.91605e+06
6.01774e+06
7.78842e+06
6.39256e+06
1.01124e+07
1.02332e+07
5.03951e+06
1.92885e+06
1.45398e+07
6.68009e+06
6.60568e+06
7.93163e+06
380904
8.97926e+06
6.28746e+06
8.75118e+06
6.47398e+06
6.64478e+06
6.49317e+06
8.6819e+06
5.38296e+06
6.2024e+06
1.74727e+06
2.87001e+06
6.35351e+06
6.78835e+06
8.25464e+06
7.08659e+06
6.91143e+06
5.45591e+06
4.8594e+06
5.49993e+06
1.50839e+06
6.27475e+06
8.33688e+06
6.321e+06
5.71978e+06
5.30068e+06
6.52806e+06
8.74067e+06
8.1087e+06
8.87373e+06
2.40328e+06
8.24643e+06
8.95392e+06
8.0913e+06
6.50349e+06
6.31671e+06
6.37046e+06
6.52672e+06
6.55717e+06
8.45033e+06
5.89937e+06
128073
6.46922e+06
6.48268e+06
1.824e+06
7.53586e+06
7.59289e+06
6.77532e+06
6.39865e+06
7.33447e+06
6.09469e+06
6.09894e+06
7.07949e+06
6.64223e+06
6.24755e+06
6.5104e+06
6.94601e+06
7.45696e+06
6.08252e+06
6.24481e+06
6.41791e+06
8.29765e+06
1.14955e+07
6.97991e+06
8.66922e+06
1.08566e+07
8.78881e+06
6.52491e+06
8.62347e+06
6.61361e+06
6.29731e+06
7.34119e+06
5.27214e+06
5.58613e+06
7.17541e+06
6.1768e+06
6.54349e+06
8.90058e+06
6.70324e+06
8.5395e+06
6.2096e+06
6.81632e+06
6.94029e+06
9.18154e+06
-456123
8.3838e+06
5.7228e+06
6.13158e+06
6.61861e+06
9.09655e+06
-1.2909e+06
6.07174e+06
6.09517e+06
6.45348e+06
7.10624e+06
6.86774e+06
5.58419e+06
7.10181e+06
1.51452e+06
5.84126e+06
6.52524e+06
6.60972e+06
6.41856e+06
1.29066e+07
1.32348e+07
6.66304e+06
5.44253e+06
6.14634e+06
1.36703e+07
6.66154e+06
1.44668e+07
6.11408e+06
6.71974e+06
6.51771e+06
4.68254e+06
-2.76474e+06
5.03249e+06
5.91655e+06
6.10855e+06
6.28598e+06
6.07954e+06
6.05482e+06
5.70922e+06
6.19012e+06
6.01075e+06
6.92833e+06
6.52261e+06
7.40462e+06
3.6429e+06
7.00283e+06
7.83114e+06
6.68252e+06
6.60664e+06
6.12463e+06
5.8569e+06
6.87895e+06
6.55995e+06
6.53648e+06
6.31775e+06
9.49781e+06
5.76468e+06
5.39868e+06
6.75599e+06
6.10228e+06
6.96052e+06
9.12721e+06
9.12576e+06
4.91097e+06
5.13799e+06
5.80209e+06
2.04408e+06
5.53389e+06
6.44361e+06
6.55249e+06
6.33082e+06
6.42682e+06
6.90341e+06
5.27942e+06
7.87112e+06
4.50293e+06
5.8992e+06
3.68477e+06
6.85459e+06
6.22165e+06
7.72956e+06
7.69989e+06
7.94958e+06
6.65e+06
7.01267e+06
8.64298e+06
9.06374e+06
5.98095e+06
3.33902e+06
6.16223e+06
6.49593e+06
6.33737e+06
5.57967e+06
6.60731e+06
6.02225e+06
6.16503e+06
5.48224e+06
6.05606e+06
8.87674e+06
6.25816e+06
6.90209e+06
6.68753e+06
3.31382e+06
2.34396e+06
5.87316e+06
6.70552e+06
6.45495e+06
6.50492e+06
6.45467e+06
8.23481e+06
6.93992e+06
7.18998e+06
3.82921e+06
8.24245e+06
6.78858e+06
7.429e+06
5.51396e+06
5.6919e+06
7.4635e+06
5.79381e+06
5.78208e+06
7.56845e+06
5.66338e+06
6.4326e+06
7.0735e+06
6.88393e+06
3.23794e+06
7.36213e+06
6.47125e+06
9.10014e+06
9.00614e+06
6.93807e+06
6.95235e+06
6.90395e+06
6.76331e+06
6.48894e+06
7.41467e+06
8.67682e+06
8.73624e+06
6.04318e+06
6.22399e+06
6.57977e+06
6.99839e+06
6.86448e+06
7.35455e+06
5.16334e+06
4.76122e+06
4.29522e+06
8.67244e+06
8.96632e+06
6.50528e+06
6.52242e+06
6.74806e+06
6.69072e+06
6.6634e+06
)
;

boundaryField
{
    back
    {
        type            empty;
    }
    front
    {
        type            empty;
    }
    down
    {
        type            zeroGradient;
    }
    right
    {
        type            zeroGradient;
    }
    up
    {
        type            zeroGradient;
    }
    left
    {
        type            zeroGradient;
    }
    hole
    {
        type            zeroGradient;
    }
}


// ************************************************************************* //
