/*--------------------------------*- C++ -*----------------------------------*\
| =========                 |                                                 |
| \\      /  F ield         | OpenFOAM: The Open Source CFD Toolbox           |
|  \\    /   O peration     | Version:  v2012                                 |
|   \\  /    A nd           | Website:  www.openfoam.com                      |
|    \\/     M anipulation  |                                                 |
\*---------------------------------------------------------------------------*/
FoamFile
{
    version     2.0;
    format      ascii;
    class       volVectorField;
    location    "1";
    object      D;
}
// * * * * * * * * * * * * * * * * * * * * * * * * * * * * * * * * * * * * * //

dimensions      [0 1 0 0 0 0 0];


internalField   nonuniform List<vector> 
500
(
(1.81543e-05 -0.000222986 0)
(3.19686e-05 -0.000222982 0)
(1.42701e-05 -0.000231107 0)
(2.74645e-05 -0.000231093 0)
(1.22425e-05 -0.00023741 0)
(2.47785e-05 -0.000236492 0)
(1.10272e-05 -0.000242089 0)
(2.30325e-05 -0.00024038 0)
(1.02047e-05 -0.000245861 0)
(2.16743e-05 -0.00024368 0)
(7.81736e-05 -0.000209709 0)
(8.91425e-05 -0.000204379 0)
(6.46789e-05 -0.000216126 0)
(7.59213e-05 -0.000210022 0)
(5.63988e-05 -0.000220953 0)
(6.80889e-05 -0.000213863 0)
(5.13037e-05 -0.00022444 0)
(6.33032e-05 -0.000216559 0)
(4.79941e-05 -0.000227315 0)
(6.00185e-05 -0.000218655 0)
(0.0001354 -0.000189256 0)
(0.000144835 -0.00017955 0)
(0.000116155 -0.00019056 0)
(0.000126876 -0.000179631 0)
(0.00010379 -0.000191671 0)
(0.000115796 -0.000179767 0)
(9.58566e-05 -0.000192416 0)
(0.00010881 -0.00017985 0)
(9.06152e-05 -0.000193071 0)
(0.000104148 -0.000179873 0)
(0.0001893 -0.000163872 0)
(0.000198182 -0.000150706 0)
(0.000167882 -0.000158968 0)
(0.000178813 -0.000144793 0)
(0.000153954 -0.00015552 0)
(0.000166712 -0.000140882 0)
(0.000144917 -0.000152924 0)
(0.000159037 -0.00013803 0)
(0.000138908 -0.000150954 0)
(0.000154037 -0.000135781 0)
(0.000238101 -0.000136446 0)
(0.000246896 -0.000121661 0)
(0.000218114 -0.000126072 0)
(0.00022937 -0.000110711 0)
(0.000204934 -0.000118498 0)
(0.000218221 -0.000103347 0)
(0.000196436 -0.000112863 0)
(0.000211266 -9.80753e-05 0)
(0.000191069 -0.000108678 0)
(0.000207218 -9.40038e-05 0)
(0.000280534 -0.000109466 0)
(0.000289288 -9.46181e-05 0)
(0.000264507 -9.55747e-05 0)
(0.000275785 -8.06924e-05 0)
(0.000253689 -8.54446e-05 0)
(0.000266768 -7.12737e-05 0)
(0.000246607 -7.81708e-05 0)
(0.000260719 -6.4745e-05 0)
(0.000242387 -7.34962e-05 0)
(0.000256555 -6.04585e-05 0)
(0.000316081 -8.34874e-05 0)
(0.000324627 -6.97998e-05 0)
(0.000305432 -6.85264e-05 0)
(0.00031628 -5.54358e-05 0)
(0.000298322 -5.75414e-05 0)
(0.000310684 -4.55644e-05 0)
(0.000293663 -4.95419e-05 0)
(0.000306929 -3.83003e-05 0)
(0.000290894 -4.40438e-05 0)
(0.000303984 -3.26967e-05 0)
(0.000343338 -5.89042e-05 0)
(0.000350847 -4.73907e-05 0)
(0.000338184 -4.57091e-05 0)
(0.000347479 -3.51487e-05 0)
(0.000334852 -3.58961e-05 0)
(0.000345059 -2.66883e-05 0)
(0.000332728 -2.8751e-05 0)
(0.000343437 -2.04188e-05 0)
(0.00033157 -2.39563e-05 0)
(0.000342124 -1.5311e-05 0)
(0.000361344 -3.57836e-05 0)
(0.000366866 -2.71018e-05 0)
(0.000360843 -2.69303e-05 0)
(0.000367471 -1.91945e-05 0)
(0.000360593 -2.0088e-05 0)
(0.000367586 -1.35902e-05 0)
(0.000360458 -1.50249e-05 0)
(0.000367634 -9.30205e-06 0)
(0.000360575 -1.17446e-05 0)
(0.000367595 -5.59223e-06 0)
(0.000369208 -1.4435e-05 0)
(0.0003722 -8.70421e-06 0)
(0.000372085 -1.12655e-05 0)
(0.000375499 -6.19608e-06 0)
(0.000374136 -8.33966e-06 0)
(0.000377505 -4.11613e-06 0)
(0.000375597 -6.00869e-06 0)
(0.00037884 -2.1964e-06 0)
(0.000376892 -4.41553e-06 0)
(0.000379654 -1.18803e-07 0)
(0.000381036 -1.80476e-06 0)
(0.000381385 -2.41863e-06 0)
(0.000370745 -5.85109e-06 0)
(0.000368849 -6.69193e-06 0)
(0.000348284 -1.33035e-05 0)
(0.00034488 -1.43552e-05 0)
(0.000314035 -2.70337e-05 0)
(0.00030995 -2.78451e-05 0)
(0.000269696 -4.97867e-05 0)
(0.000265669 -4.98525e-05 0)
(0.000386145 -8.01947e-07 0)
(0.000386885 -2.04568e-06 0)
(0.000377647 -3.80684e-06 0)
(0.000376733 -5.24756e-06 0)
(0.000359216 -8.83262e-06 0)
(0.000357347 -1.05658e-05 0)
(0.000331737 -1.75358e-05 0)
(0.000329686 -1.91932e-05 0)
(0.000296802 -3.12092e-05 0)
(0.000294973 -3.2162e-05 0)
(0.000393713 -3.43646e-07 0)
(0.00039561 -1.78674e-06 0)
(0.000386847 -2.63464e-06 0)
(0.000387242 -4.20505e-06 0)
(0.000371755 -6.24887e-06 0)
(0.000371289 -8.04593e-06 0)
(0.000349551 -1.21816e-05 0)
(0.000348883 -1.40026e-05 0)
(0.000321564 -2.12886e-05 0)
(0.000321183 -2.27276e-05 0)
(0.000403882 -3.51738e-07 0)
(0.000406767 -1.81564e-06 0)
(0.000398346 -2.44682e-06 0)
(0.00039988 -4.08987e-06 0)
(0.000386073 -5.4674e-06 0)
(0.000386798 -7.34323e-06 0)
(0.000367999 -1.00725e-05 0)
(0.000368512 -1.20624e-05 0)
(0.000345219 -1.67382e-05 0)
(0.000346001 -1.85669e-05 0)
(0.000416326 -5.54584e-07 0)
(0.000420005 -2.00838e-06 0)
(0.000411795 -2.92476e-06 0)
(0.000414291 -4.60539e-06 0)
(0.000401727 -5.94107e-06 0)
(0.000403513 -7.88693e-06 0)
(0.000386896 -1.004e-05 0)
(0.000388493 -1.21728e-05 0)
(0.000368266 -1.54871e-05 0)
(0.000370112 -1.76061e-05 0)
(0.000430749 -7.77665e-07 0)
(0.000435113 -2.23671e-06 0)
(0.000426993 -3.60957e-06 0)
(0.000430329 -5.28515e-06 0)
(0.000418661 -6.90621e-06 0)
(0.000421387 -8.84268e-06 0)
(0.00040642 -1.09818e-05 0)
(0.00040899 -1.31405e-05 0)
(0.000391125 -1.60013e-05 0)
(0.000393942 -1.8255e-05 0)
(0.000446893 -9.21246e-07 0)
(0.000451826 -2.36423e-06 0)
(0.00044377 -4.16321e-06 0)
(0.000447805 -5.75112e-06 0)
(0.000436841 -7.78433e-06 0)
(0.00044036 -9.58749e-06 0)
(0.000426702 -1.20431e-05 0)
(0.000430103 -1.40612e-05 0)
(0.000414125 -1.70734e-05 0)
(0.000417773 -1.92362e-05 0)
(0.00046443 -9.22435e-07 0)
(0.000469775 -2.26124e-06 0)
(0.00046186 -4.34253e-06 0)
(0.000466408 -5.68798e-06 0)
(0.000456086 -8.14997e-06 0)
(0.000460199 -9.61253e-06 0)
(0.000447658 -1.25516e-05 0)
(0.000451709 -1.41778e-05 0)
(0.000437293 -1.76495e-05 0)
(0.000441624 -1.94182e-05 0)
(0.000482913 -7.52352e-07 0)
(0.000488481 -1.80918e-06 0)
(0.000480878 -3.93024e-06 0)
(0.000485743 -4.78902e-06 0)
(0.000476119 -7.55246e-06 0)
(0.000480613 -8.35289e-06 0)
(0.000469108 -1.18166e-05 0)
(0.000473601 -1.26697e-05 0)
(0.000460526 -1.68339e-05 0)
(0.000465346 -1.77899e-05 0)
(0.000501822 -3.50289e-07 0)
(0.000507607 -1.01234e-06 0)
(0.000500325 -2.48738e-06 0)
(0.000505631 -2.72481e-06 0)
(0.000496541 -5.09243e-06 0)
(0.000501551 -4.99487e-06 0)
(0.000490769 -8.57551e-06 0)
(0.000495789 -8.29981e-06 0)
(0.000483649 -1.30805e-05 0)
(0.000488993 -1.28167e-05 0)
(0.000231089 -7.34129e-05 0)
(0.000239396 -6.47747e-05 0)
(0.000216682 -8.10029e-05 0)
(0.000225733 -7.21299e-05 0)
(0.000203652 -8.83081e-05 0)
(0.00021332 -7.92816e-05 0)
(0.00019176 -9.53624e-05 0)
(0.000201877 -8.61827e-05 0)
(0.000180731 -0.000102171 0)
(0.000191143 -9.2829e-05 0)
(0.000170301 -0.00010873 0)
(0.000180894 -9.92421e-05 0)
(0.000160215 -0.00011505 0)
(0.000170915 -0.000105463 0)
(0.00015022 -0.000121208 0)
(0.00016098 -0.000111598 0)
(0.000139832 -0.000126791 0)
(0.000150976 -0.000117662 0)
(0.000129555 -0.000132876 0)
(0.000140688 -0.000123944 0)
(0.000266295 -4.69991e-05 0)
(0.000273942 -4.24527e-05 0)
(0.000254426 -5.33606e-05 0)
(0.00026249 -4.83624e-05 0)
(0.000243028 -5.9751e-05 0)
(0.000251645 -5.43672e-05 0)
(0.000232192 -6.60891e-05 0)
(0.000241369 -6.0409e-05 0)
(0.000221907 -7.23384e-05 0)
(0.000231549 -6.64755e-05 0)
(0.000212159 -7.84705e-05 0)
(0.000222313 -7.24723e-05 0)
(0.000202845 -8.4501e-05 0)
(0.000213497 -7.8463e-05 0)
(0.000193886 -9.04762e-05 0)
(0.000205064 -8.45062e-05 0)
(0.000185299 -9.64785e-05 0)
(0.000196997 -9.06789e-05 0)
(0.000177207 -0.000102604 0)
(0.000189195 -9.69081e-05 0)
(0.000297021 -3.19587e-05 0)
(0.000304332 -3.00426e-05 0)
(0.000287359 -3.70158e-05 0)
(0.000295021 -3.48057e-05 0)
(0.000277866 -4.2246e-05 0)
(0.000286049 -3.97535e-05 0)
(0.000268675 -4.75881e-05 0)
(0.000277432 -4.4858e-05 0)
(0.000259873 -5.30126e-05 0)
(0.000269209 -5.00861e-05 0)
(0.000251501 -5.8499e-05 0)
(0.000261434 -5.54414e-05 0)
(0.000243602 -6.4048e-05 0)
(0.000254161 -6.09275e-05 0)
(0.000236227 -6.96845e-05 0)
(0.000247431 -6.65736e-05 0)
(0.000229483 -7.54395e-05 0)
(0.000241275 -7.23937e-05 0)
(0.000223598 -8.13038e-05 0)
(0.000235699 -7.82977e-05 0)
(0.00032531 -2.43652e-05 0)
(0.000332448 -2.41221e-05 0)
(0.00031747 -2.85321e-05 0)
(0.000324921 -2.81313e-05 0)
(0.000309705 -3.2917e-05 0)
(0.00031763 -3.23553e-05 0)
(0.000302148 -3.74825e-05 0)
(0.000310613 -3.67804e-05 0)
(0.000294907 -4.22132e-05 0)
(0.000303946 -4.13981e-05 0)
(0.000288075 -4.70966e-05 0)
(0.000297719 -4.62002e-05 0)
(0.000281748 -5.21223e-05 0)
(0.000292043 -5.11858e-05 0)
(0.000276031 -5.73018e-05 0)
(0.000286976 -5.63396e-05 0)
(0.000271057 -6.26427e-05 0)
(0.000282557 -6.16579e-05 0)
(0.000267068 -6.80843e-05 0)
(0.000278855 -6.70606e-05 0)
(0.000352093 -2.14411e-05 0)
(0.000359213 -2.21881e-05 0)
(0.000345756 -2.50405e-05 0)
(0.000353152 -2.5714e-05 0)
(0.000339468 -2.88636e-05 0)
(0.000347272 -2.94495e-05 0)
(0.000333348 -3.28823e-05 0)
(0.00034162 -3.33866e-05 0)
(0.000327507 -3.70825e-05 0)
(0.000336269 -3.75214e-05 0)
(0.000322072 -4.14475e-05 0)
(0.000331298 -4.18443e-05 0)
(0.000317209 -4.60246e-05 0)
(0.000327273 -4.63233e-05 0)
(0.000312856 -5.07617e-05 0)
(0.000323336 -5.10329e-05 0)
(0.000309257 -5.56564e-05 0)
(0.000320168 -5.5897e-05 0)
(0.000306645 -6.06184e-05 0)
(0.00031779 -6.08206e-05 0)
(0.000377991 -2.11655e-05 0)
(0.000385164 -2.2378e-05 0)
(0.000372852 -2.44125e-05 0)
(0.000380258 -2.56183e-05 0)
(0.000367785 -2.78634e-05 0)
(0.00037552 -2.90473e-05 0)
(0.00036291 -3.14996e-05 0)
(0.000371004 -3.26632e-05 0)
(0.000358345 -3.5336e-05 0)
(0.000366762 -3.648e-05 0)
(0.000353748 -3.94534e-05 0)
(0.000362792 -4.04297e-05 0)
(0.00034989 -4.36329e-05 0)
(0.000359336 -4.46075e-05 0)
(0.000346606 -4.79758e-05 0)
(0.000356464 -4.89139e-05 0)
(0.000344021 -5.2436e-05 0)
(0.00035423 -5.33112e-05 0)
(0.0003423 -5.69426e-05 0)
(0.000352689 -5.77489e-05 0)
(0.000403443 -2.19983e-05 0)
(0.000410641 -2.31847e-05 0)
(0.000399169 -2.50438e-05 0)
(0.000406559 -2.62561e-05 0)
(0.000394979 -2.8263e-05 0)
(0.000402625 -2.95012e-05 0)
(0.000390976 -3.16316e-05 0)
(0.000398941 -3.2638e-05 0)
(0.00038709 -3.52124e-05 0)
(0.000395343 -3.62487e-05 0)
(0.000383533 -3.89458e-05 0)
(0.000392121 -3.99833e-05 0)
(0.000380393 -4.28279e-05 0)
(0.00038931 -4.38374e-05 0)
(0.000377749 -4.68359e-05 0)
(0.000386971 -4.7795e-05 0)
(0.000375696 -5.09276e-05 0)
(0.000385162 -5.18176e-05 0)
(0.000374349 -5.5038e-05 0)
(0.00038394 -5.58652e-05 0)
(0.000428583 -2.24717e-05 0)
(0.000435775 -2.32068e-05 0)
(0.00042492 -2.53348e-05 0)
(0.000432267 -2.60804e-05 0)
(0.000421329 -2.8365e-05 0)
(0.000428852 -2.91019e-05 0)
(0.000417865 -3.15512e-05 0)
(0.000425621 -3.22908e-05 0)
(0.000414601 -3.48956e-05 0)
(0.000422587 -3.56103e-05 0)
(0.000411594 -3.8386e-05 0)
(0.00041981 -3.90616e-05 0)
(0.000408908 -4.20051e-05 0)
(0.000417346 -4.26329e-05 0)
(0.000406607 -4.5729e-05 0)
(0.000415247 -4.62988e-05 0)
(0.000404755 -4.95185e-05 0)
(0.000413549 -5.00179e-05 0)
(0.000403406 -5.33189e-05 0)
(0.000412283 -5.37605e-05 0)
(0.000453366 -2.15415e-05 0)
(0.000460476 -2.14136e-05 0)
(0.00045005 -2.42315e-05 0)
(0.000457335 -2.41542e-05 0)
(0.000446837 -2.70848e-05 0)
(0.000454283 -2.70418e-05 0)
(0.000443755 -3.0092e-05 0)
(0.000451364 -3.00712e-05 0)
(0.000440851 -3.32411e-05 0)
(0.000448626 -3.32333e-05 0)
(0.000438168 -3.65215e-05 0)
(0.000446106 -3.65168e-05 0)
(0.000435744 -3.99199e-05 0)
(0.00044383 -3.99062e-05 0)
(0.000433608 -4.34151e-05 0)
(0.000441816 -4.338e-05 0)
(0.000431778 -4.69749e-05 0)
(0.00044007 -4.69126e-05 0)
(0.000430258 -5.05546e-05 0)
(0.000438608 -5.039e-05 0)
(0.000477836 -1.75913e-05 0)
(0.000484872 -1.62622e-05 0)
(0.000474675 -2.03316e-05 0)
(0.000481876 -1.8998e-05 0)
(0.000471605 -2.32077e-05 0)
(0.000478954 -2.1957e-05 0)
(0.000468685 -2.62238e-05 0)
(0.000476182 -2.50998e-05 0)
(0.000465957 -2.93718e-05 0)
(0.000473601 -2.83927e-05 0)
(0.000463452 -3.26379e-05 0)
(0.000471235 -3.18039e-05 0)
(0.000461188 -3.60022e-05 0)
(0.000469094 -3.52998e-05 0)
(0.000459168 -3.94392e-05 0)
(0.000467169 -3.88434e-05 0)
(0.000457376 -4.29179e-05 0)
(0.000465431 -4.24e-05 0)
(0.000455768 -4.6406e-05 0)
(0.00046385 -4.59541e-05 0)
(1.05961e-05 -0.00024828 0)
(2.11532e-05 -0.000245393 0)
(9.79403e-06 -0.000249594 0)
(1.99458e-05 -0.000246743 0)
(9.02002e-06 -0.000250972 0)
(1.86679e-05 -0.000248198 0)
(8.27568e-06 -0.000252421 0)
(1.73492e-05 -0.000249751 0)
(7.55426e-06 -0.000253917 0)
(1.60035e-05 -0.000251372 0)
(6.84263e-06 -0.000255435 0)
(1.46274e-05 -0.000253024 0)
(6.12014e-06 -0.000256957 0)
(1.32075e-05 -0.000254662 0)
(5.34673e-06 -0.000258469 0)
(1.17345e-05 -0.000256228 0)
(4.42583e-06 -0.000259963 0)
(1.02444e-05 -0.000257638 0)
(3.11091e-06 -0.000261436 0)
(8.93589e-06 -0.000258795 0)
(4.61774e-05 -0.000229625 0)
(5.727e-05 -0.000221032 0)
(4.31124e-05 -0.000232079 0)
(5.36734e-05 -0.00022403 0)
(4.02451e-05 -0.000234524 0)
(5.02044e-05 -0.000226929 0)
(3.74851e-05 -0.000236974 0)
(4.67976e-05 -0.000229766 0)
(3.47501e-05 -0.00023942 0)
(4.33794e-05 -0.000232551 0)
(3.1962e-05 -0.000241845 0)
(3.98693e-05 -0.000235277 0)
(2.90405e-05 -0.000244232 0)
(3.61861e-05 -0.00023793 0)
(2.58867e-05 -0.000246562 0)
(3.22574e-05 -0.000240489 0)
(2.23445e-05 -0.000248818 0)
(2.80363e-05 -0.000242928 0)
(1.81141e-05 -0.000251021 0)
(2.35326e-05 -0.000245292 0)
(8.67733e-05 -0.000194667 0)
(9.88102e-05 -0.000183027 0)
(8.09211e-05 -0.000198897 0)
(9.22657e-05 -0.000187914 0)
(7.55545e-05 -0.000202985 0)
(8.621e-05 -0.000192533 0)
(7.04988e-05 -0.000206947 0)
(8.04648e-05 -0.000196941 0)
(6.55832e-05 -0.000210794 0)
(7.48487e-05 -0.000201167 0)
(6.06437e-05 -0.000214528 0)
(6.91797e-05 -0.000205224 0)
(5.55154e-05 -0.000218146 0)
(6.32748e-05 -0.000209115 0)
(5.00136e-05 -0.000221646 0)
(5.69504e-05 -0.000212843 0)
(4.38899e-05 -0.000225032 0)
(5.00286e-05 -0.000216443 0)
(3.67565e-05 -0.000228364 0)
(4.23584e-05 -0.000220031 0)
(0.00013335 -0.000151685 0)
(0.000145906 -0.000139545 0)
(0.000124219 -0.000157993 0)
(0.000135907 -0.000146335 0)
(0.000115983 -0.000163877 0)
(0.000126942 -0.000152724 0)
(0.000108382 -0.000169409 0)
(0.000118678 -0.000158729 0)
(0.000101161 -0.000174663 0)
(0.000110816 -0.00016439 0)
(9.4077e-05 -0.000179691 0)
(0.000103076 -0.000169747 0)
(8.68833e-05 -0.000184526 0)
(9.51826e-05 -0.00017484 0)
(7.93091e-05 -0.000189198 0)
(8.68463e-05 -0.000179715 0)
(7.1013e-05 -0.000193749 0)
(7.77646e-05 -0.000184474 0)
(6.15593e-05 -0.000198276 0)
(6.76504e-05 -0.000189261 0)
(0.000184307 -0.000109192 0)
(0.000196617 -9.78784e-05 0)
(0.000171795 -0.000115929 0)
(0.000183108 -0.000105543 0)
(0.000160468 -0.00012287 0)
(0.000170991 -0.000112953 0)
(0.000150048 -0.000129751 0)
(0.000159907 -0.000120183 0)
(0.000140312 -0.000136456 0)
(0.000149585 -0.000127194 0)
(0.000131022 -0.000142912 0)
(0.000139752 -0.000133921 0)
(0.000121903 -0.000149075 0)
(0.000130098 -0.000140317 0)
(0.000112619 -0.000154943 0)
(0.000120264 -0.000146395 0)
(0.000102781 -0.000160582 0)
(0.000109857 -0.00015226 0)
(9.19019e-05 -0.000166142 0)
(9.84456e-05 -0.000158052 0)
)
;

boundaryField
{
    back
    {
        type            empty;
    }
    front
    {
        type            empty;
    }
    left
    {
        type            symmetry;
    }
    hole
    {
        type            calculated;
        value           nonuniform List<vector> 10((2.05789e-05 -0.00021854 8.62596e-23) (8.5555e-05 -0.000207118 -1.46512e-21) (0.000145191 -0.00018939 3.64032e-21) (0.000199821 -0.000167128 -1.8036e-21) (0.000247492 -0.000142168 -1.76833e-21) (0.000287623 -0.000116571 1.23142e-21) (0.000320489 -9.08682e-05 -5.83741e-22) (0.000345115 -6.51913e-05 0) (0.000361057 -3.99214e-05 -8.8394e-22) (0.000367692 -1.58024e-05 -1.80701e-22));
    }
    down
    {
        type            symmetry;
    }
    right
    {
        type            calculated;
        value           nonuniform List<vector> 
15
(
(0.000513965 -4.93231e-07 1.44593e-21)
(0.000512223 -1.34854e-06 3.82909e-22)
(0.000508471 -2.81027e-06 0)
(0.000503165 -5.48589e-06 2.5753e-21)
(0.000496934 -9.73462e-06 -1.83621e-21)
(0.000492949 -1.29633e-05 -2.95355e-21)
(0.000490027 -1.57826e-05 -2.87319e-21)
(0.00048718 -1.8895e-05 0)
(0.000484478 -2.22365e-05 -3.00725e-21)
(0.000481954 -2.57588e-05 4.18189e-23)
(0.000479633 -2.94186e-05 9.92206e-22)
(0.000477527 -3.31685e-05 -4.99702e-21)
(0.000475633 -3.69514e-05 -2.0015e-21)
(0.000473927 -4.07071e-05 -3.02852e-21)
(0.000472355 -4.43662e-05 -1.03301e-21)
)
;
    }
    up
    {
        type            calculated;
        value           nonuniform List<vector> 
15
(
(0.000137406 -0.000125994 0)
(0.000186884 -9.89637e-05 -6.72002e-23)
(0.000234255 -8.0254e-05 -9.42032e-23)
(0.000278038 -6.88732e-05 -4.40623e-23)
(0.000317384 -6.24706e-05 0)
(0.000352482 -5.92452e-05 -6.54123e-23)
(0.000383759 -5.72302e-05 6.05485e-23)
(0.000411995 -5.5024e-05 3.3942e-23)
(0.000438168 -5.15885e-05 -8.00217e-23)
(0.000463338 -4.71179e-05 -1.79898e-23)
(8.11277e-06 -0.000259348 4.22634e-23)
(2.15769e-05 -0.000246039 0)
(3.92908e-05 -0.000221069 5.14547e-22)
(6.37276e-05 -0.000190707 -2.31098e-22)
(9.41091e-05 -0.000159958 -2.59502e-22)
)
;
    }
}


// ************************************************************************* //
