/*--------------------------------*- C++ -*----------------------------------*\
| =========                 |                                                 |
| \\      /  F ield         | OpenFOAM: The Open Source CFD Toolbox           |
|  \\    /   O peration     | Version:  v2012                                 |
|   \\  /    A nd           | Website:  www.openfoam.com                      |
|    \\/     M anipulation  |                                                 |
\*---------------------------------------------------------------------------*/
FoamFile
{
    version     2.0;
    format      ascii;
    class       volSymmTensorField;
    location    "1";
    object      epsilon;
}
// * * * * * * * * * * * * * * * * * * * * * * * * * * * * * * * * * * * * * //

dimensions      [0 0 0 0 0 0 0];


internalField   nonuniform List<symmTensor> 
500
(
(0.000651402 -8.39521e-05 -5.16628e-20 -0.000244511 4.33824e-21 2.60627e-37)
(0.000647805 -2.72352e-05 -5.42053e-20 -0.000187292 -2.30052e-21 0)
(0.000491425 -4.95065e-05 0 -0.000176272 0 0)
(0.000513411 4.3503e-06 3.04975e-20 -0.000161036 1.48036e-20 0)
(0.000401609 -2.86771e-05 5.6517e-20 -0.000122909 8.42369e-21 0)
(0.00042428 2.46056e-05 3.46713e-20 -0.000128284 5.55219e-21 0)
(0.000342692 -1.57127e-05 0 -9.51476e-05 0 0)
(0.000364324 3.5752e-05 5.71233e-20 -0.000107904 2.99154e-20 0)
(0.000299226 -9.26417e-06 7.92167e-20 -8.56694e-05 1.58417e-20 0)
(0.000315803 4.28416e-05 4.8394e-20 -0.000101433 1.25951e-20 0)
(0.000578784 -0.000206625 -7.40356e-20 -0.000185121 6.10758e-21 -1.23343e-35)
(0.000551283 -0.000108175 -1.00958e-19 -0.000172205 -4.05303e-20 0)
(0.000459502 -9.25554e-05 -8.94128e-20 -0.000171034 -3.95664e-20 0)
(0.000466708 -3.23012e-05 6.21978e-20 -0.000159804 3.21893e-20 0)
(0.000393705 -2.56596e-05 3.03238e-20 -0.000135468 1.70002e-20 0)
(0.000411291 1.70223e-05 9.09316e-21 -0.000141315 5.19267e-21 0)
(0.000350176 1.151e-05 -6.19857e-20 -0.000112026 -3.86732e-20 0)
(0.0003703 4.51016e-05 -1.16892e-19 -0.00013153 -8.12472e-20 0)
(0.000316191 3.11727e-05 -1.88342e-20 -9.97161e-05 -1.22954e-20 0)
(0.000332076 6.06339e-05 3.35475e-20 -0.000130275 2.584e-20 0)
(0.000421321 -0.000260959 1.08271e-19 -8.96391e-05 -1.89148e-20 -2.51389e-37)
(0.000418107 -0.000146269 -2.04695e-20 -0.00012976 1.33756e-20 0)
(0.00038582 -0.000125236 -1.36478e-20 -0.000138777 -1.04836e-20 0)
(0.000395496 -5.70946e-05 4.06851e-20 -0.000146356 6.90697e-21 0)
(0.000364088 -4.12274e-05 1.1584e-20 -0.000144629 8.94186e-22 0)
(0.000380954 6.11128e-08 -1.8955e-20 -0.000149184 -1.67925e-20 0)
(0.00034472 6.85244e-06 8.15633e-20 -0.000143209 6.3354e-20 0)
(0.000365502 3.30891e-05 9.52648e-21 -0.000150637 1.2296e-20 0)
(0.000325608 3.38876e-05 -1.81856e-20 -0.000139896 -1.53406e-20 0)
(0.000343603 5.16339e-05 0 -0.000153047 0 0)
(0.000253563 -0.000243559 -1.51318e-20 -9.76616e-07 -2.11853e-21 -6.12695e-36)
(0.000276245 -0.000136644 -1.39956e-19 -8.4909e-05 -6.48453e-20 0)
(0.000291509 -0.000131511 -1.69797e-19 -0.000107269 -1.2616e-19 0)
(0.000310885 -6.43821e-05 -2.4486e-20 -0.000126274 -8.48105e-20 0)
(0.000313614 -5.89084e-05 5.0237e-20 -0.000148125 5.07529e-20 0)
(0.000332139 -1.93506e-05 1.04339e-19 -0.000148037 9.07712e-20 0)
(0.00032131 -1.60807e-05 4.17899e-20 -0.000164833 3.3216e-20 0)
(0.0003397 6.65478e-06 1.00968e-20 -0.000159397 1.64103e-20 0)
(0.000320203 9.14519e-06 -3.03213e-20 -0.000170488 -3.06267e-20 0)
(0.000335251 2.14448e-05 -1.11311e-20 -0.000163154 -1.48474e-20 0)
(0.000116394 -0.000171745 -3.83841e-22 4.76046e-05 -1.67783e-20 -8.30526e-36)
(0.000157653 -9.48769e-05 -3.9224e-20 -6.05289e-05 -3.67157e-20 0)
(0.000199455 -0.000114603 -8.21215e-20 -8.05127e-05 -7.5283e-20 0)
(0.000226565 -5.70382e-05 -1.15406e-19 -0.000108706 -8.83015e-20 0)
(0.00024913 -7.32035e-05 -8.16353e-20 -0.000140407 -2.41663e-20 0)
(0.000270234 -3.49317e-05 7.17909e-21 -0.00013596 -3.5562e-21 0)
(0.000277286 -4.6681e-05 9.04405e-21 -0.00016755 -2.45837e-21 0)
(0.000294192 -2.1946e-05 -6.16249e-21 -0.000150425 1.20904e-21 0)
(0.000295238 -2.79046e-05 -7.37402e-21 -0.000178113 2.57205e-22 0)
(0.000303842 -1.51485e-05 -2.76303e-20 -0.000155404 -1.64327e-20 0)
(3.74658e-05 -7.97256e-05 2.04957e-20 4.4985e-05 -1.24211e-20 3.24935e-36)
(8.0375e-05 -4.03704e-05 7.27727e-20 -7.21445e-05 1.34693e-20 0)
(0.000126596 -8.26696e-05 1.08798e-19 -6.93641e-05 5.75608e-20 0)
(0.000155979 -4.16375e-05 3.86665e-20 -0.000110122 3.30069e-20 0)
(0.000177115 -7.83119e-05 4.35117e-20 -0.000127917 2.71016e-20 0)
(0.000202575 -4.62984e-05 3.3407e-20 -0.000133423 3.45658e-20 0)
(0.000201542 -7.28127e-05 2.31429e-20 -0.000156746 1.39062e-20 0)
(0.000228059 -4.97006e-05 0 -0.000154043 0 0)
(0.000204946 -6.71976e-05 0 -0.000174238 0 0)
(0.000249353 -6.13675e-05 -2.99837e-20 -0.000156622 -2.21791e-20 0)
(1.58588e-05 -1.88895e-06 1.165e-20 -6.75376e-06 -2.65472e-20 -3.14402e-36)
(4.73328e-05 1.04109e-05 4.712e-21 -0.000110187 -4.83103e-20 0)
(8.58366e-05 -5.02881e-05 7.36331e-21 -8.08006e-05 -1.4765e-20 0)
(0.000110671 -1.9329e-05 -3.87706e-21 -0.000118479 8.80301e-21 0)
(0.000127125 -7.37973e-05 2.1643e-21 -0.000118006 2.72049e-20 0)
(0.000147201 -4.23375e-05 3.40008e-20 -0.000121564 2.37915e-20 0)
(0.000149353 -8.23173e-05 5.81204e-20 -0.000135663 3.06537e-20 0)
(0.000168122 -5.56512e-05 5.47624e-20 -0.000127105 2.6455e-20 0)
(0.000148663 -8.07576e-05 8.69653e-20 -0.000151322 4.94999e-20 0)
(0.000193454 -7.3902e-05 2.49607e-20 -0.000125504 1.92658e-20 0)
(3.09914e-05 4.26135e-05 0 -8.81993e-05 0 0)
(4.35492e-05 3.94468e-05 0 -0.000161425 0 0)
(6.29068e-05 -2.33577e-05 -7.17773e-21 -0.000104344 -2.14461e-20 0)
(8.12644e-05 -2.69791e-07 -4.0976e-20 -0.000132316 -3.09021e-20 0)
(7.88258e-05 -5.88292e-05 -6.62628e-20 -0.000109852 -3.16855e-20 0)
(9.83062e-05 -2.93001e-05 -4.01765e-20 -0.000111643 -2.41899e-20 0)
(8.90376e-05 -7.46686e-05 -8.67909e-20 -0.000108082 -4.58524e-20 0)
(0.000107745 -4.78218e-05 -3.45743e-20 -0.000103264 -2.61452e-20 0)
(8.81329e-05 -7.70854e-05 -2.38052e-20 -0.000110938 -1.0519e-21 0)
(0.000125545 -6.9499e-05 1.46353e-20 -9.48967e-05 6.09232e-21 0)
(6.11705e-05 4.37297e-05 8.3474e-22 -0.000165213 -2.62724e-20 -3.86437e-36)
(5.82538e-05 4.28014e-05 2.88219e-22 -0.000200986 -1.12396e-20 0)
(5.69318e-05 -1.04294e-05 0 -0.000127793 0 0)
(6.58705e-05 1.189e-05 0 -0.000144039 0 0)
(4.76323e-05 -3.99359e-05 3.72811e-20 -0.00010325 3.18578e-20 0)
(6.34755e-05 -1.12725e-05 3.08156e-20 -0.000105537 2.89058e-20 0)
(4.49895e-05 -5.3196e-05 4.99405e-20 -8.57218e-05 2.23485e-20 0)
(6.2688e-05 -2.79042e-05 7.42759e-21 -8.59006e-05 6.01861e-21 0)
(4.11692e-05 -5.48129e-05 -4.54945e-21 -8.03704e-05 -8.47321e-21 0)
(7.02175e-05 -4.84393e-05 -6.78032e-21 -7.21118e-05 -3.7916e-21 0)
(9.3464e-05 1.22379e-05 -1.48572e-21 -0.00020525 1.6178e-21 -1.43539e-36)
(6.41683e-05 2.31937e-05 -8.75983e-21 -0.000227177 -1.70149e-20 0)
(6.95523e-05 -9.64057e-06 2.12136e-20 -0.000136932 3.40015e-20 0)
(4.84787e-05 1.32637e-05 1.36194e-20 -0.000159695 4.03743e-20 0)
(4.36713e-05 -2.07688e-05 -1.5819e-21 -9.59096e-05 -1.76221e-21 0)
(3.58107e-05 5.15618e-06 1.00562e-21 -0.000109172 3.39823e-21 0)
(3.00945e-05 -2.43334e-05 -4.87911e-21 -7.13061e-05 -4.58448e-21 0)
(3.13612e-05 -1.85349e-06 -1.10272e-21 -7.67619e-05 -2.52452e-21 0)
(1.92482e-05 -2.06227e-05 -1.72936e-22 -6.17119e-05 1.24439e-21 0)
(3.68025e-05 -1.31481e-05 -2.18887e-21 -5.36179e-05 1.08625e-22 0)
(2.00017e-05 -8.879e-06 -4.58236e-22 -3.13791e-05 -1.19273e-21 0)
(5.52861e-05 -2.80972e-05 2.67728e-21 -3.06494e-05 2.68567e-22 0)
(5.63381e-05 -4.76905e-05 4.19736e-21 -3.48331e-05 1.14218e-21 0)
(8.00589e-05 -6.24793e-05 0 -5.12323e-05 0 0)
(0.000112297 -7.26883e-05 -5.77591e-21 -5.79078e-05 -1.89172e-21 0)
(0.000120482 -8.56556e-05 2.74175e-21 -8.49929e-05 1.28049e-21 0)
(0.000182385 -7.9229e-05 -5.92073e-21 -8.77567e-05 -6.70356e-21 0)
(0.000173122 -9.07928e-05 3.44481e-20 -0.0001234 1.36961e-20 0)
(0.000244914 -6.68652e-05 -2.77588e-20 -0.000121077 -6.42143e-21 0)
(0.000222784 -7.885e-05 -7.11834e-22 -0.00015694 9.4671e-21 0)
(4.22135e-05 -4.00145e-06 0 -2.64191e-05 0 0)
(6.71334e-05 -2.93054e-05 3.24234e-21 -2.89135e-05 9.03105e-22 0)
(6.02246e-05 -3.79321e-05 2.53749e-21 -3.37515e-05 -3.63455e-22 0)
(8.83948e-05 -5.84666e-05 -1.28691e-20 -4.43865e-05 -4.60133e-21 0)
(9.7286e-05 -6.25713e-05 4.69883e-21 -5.35552e-05 1.84013e-21 0)
(0.000121074 -7.87355e-05 4.09327e-21 -7.00293e-05 2.84618e-21 0)
(0.000148082 -7.29153e-05 2.03424e-20 -7.78057e-05 8.78852e-21 0)
(0.000162778 -8.53823e-05 1.52742e-20 -9.78323e-05 8.46411e-21 0)
(0.000203393 -6.82524e-05 -1.70931e-20 -0.000100723 -7.95332e-21 0)
(0.000202235 -7.83416e-05 2.03054e-20 -0.000125598 9.70081e-21 0)
(6.80652e-05 -4.27961e-06 0 -2.09941e-05 0 0)
(8.58443e-05 -2.58193e-05 3.59507e-21 -2.53977e-05 2.12408e-22 0)
(7.99494e-05 -3.25652e-05 -6.2109e-22 -2.96261e-05 1.48571e-21 0)
(0.000101594 -5.13039e-05 -5.49024e-21 -3.65527e-05 3.86975e-22 0)
(0.000107045 -5.39044e-05 -1.04216e-20 -4.45403e-05 -7.47766e-22 0)
(0.000125985 -6.96333e-05 -5.08103e-21 -5.47954e-05 1.24668e-21 0)
(0.000142939 -6.54415e-05 5.45893e-21 -6.27333e-05 2.86683e-21 0)
(0.000156395 -7.83141e-05 6.77087e-22 -7.59753e-05 2.58635e-21 0)
(0.000183531 -6.72974e-05 -3.35204e-22 -8.04634e-05 3.21655e-21 0)
(0.000187384 -7.66478e-05 1.00837e-20 -9.85389e-05 8.85031e-21 0)
(8.7735e-05 -4.37688e-06 -4.44765e-21 -2.04971e-05 2.21604e-21 0)
(0.000102367 -2.16452e-05 -5.5713e-21 -2.39928e-05 2.21793e-21 0)
(9.63928e-05 -2.90218e-05 2.24075e-21 -2.77601e-05 -2.21682e-21 0)
(0.000113193 -4.40557e-05 1.12405e-20 -3.26581e-05 -9.73178e-22 0)
(0.000116941 -4.83476e-05 5.3486e-21 -3.91097e-05 1.03083e-21 0)
(0.000130596 -6.09716e-05 -6.75871e-22 -4.66229e-05 -6.65522e-22 0)
(0.000143472 -6.02936e-05 -1.21037e-21 -5.35622e-05 -8.17868e-22 0)
(0.000153017 -7.06452e-05 -4.99473e-21 -6.31857e-05 4.45662e-23 0)
(0.000173084 -6.46248e-05 1.26049e-20 -6.80839e-05 5.84807e-21 0)
(0.000177098 -7.23298e-05 -8.4818e-21 -8.06876e-05 5.67697e-22 0)
(0.000104452 -4.31939e-06 3.62446e-21 -2.32849e-05 2.47435e-22 0)
(0.000116689 -1.7877e-05 -6.90428e-21 -2.56623e-05 -1.40725e-21 0)
(0.000110275 -2.5575e-05 -9.88887e-21 -2.89282e-05 2.19321e-21 0)
(0.00012412 -3.72517e-05 -1.55505e-20 -3.24332e-05 2.9814e-21 0)
(0.000125482 -4.28323e-05 -5.27435e-21 -3.7612e-05 3.97099e-21 0)
(0.000136559 -5.24309e-05 6.84498e-21 -4.33427e-05 5.68139e-21 0)
(0.000145248 -5.42916e-05 -6.12485e-21 -4.90391e-05 -6.32217e-21 0)
(0.000152939 -6.20064e-05 -7.94261e-21 -5.63571e-05 -7.24894e-21 0)
(0.000167593 -5.96541e-05 5.88506e-21 -6.06463e-05 7.24305e-21 0)
(0.00017121 -6.5395e-05 -8.39197e-21 -6.98303e-05 5.8731e-21 0)
(0.00011941 -4.0338e-06 5.37941e-21 -2.70919e-05 -1.29756e-21 0)
(0.00012942 -1.46372e-05 1.2177e-20 -2.89611e-05 2.69244e-22 0)
(0.000122975 -2.19195e-05 1.16827e-20 -3.14729e-05 -2.15972e-21 0)
(0.000134526 -3.09885e-05 -2.46588e-21 -3.41839e-05 -4.27993e-21 0)
(0.000133987 -3.68544e-05 2.64476e-21 -3.81047e-05 4.93639e-21 0)
(0.000143313 -4.40994e-05 -6.77779e-21 -4.2721e-05 4.95806e-21 0)
(0.000148565 -4.73681e-05 -3.64448e-21 -4.71103e-05 -5.99035e-21 0)
(0.000155045 -5.28689e-05 -4.55739e-21 -5.30233e-05 -5.81936e-21 0)
(0.000165265 -5.30499e-05 1.65634e-20 -5.65484e-05 -1.58886e-21 0)
(0.000168526 -5.67849e-05 6.93552e-22 -6.36297e-05 -2.58519e-21 0)
(0.000132197 -3.48109e-06 -1.20766e-20 -2.99054e-05 2.72093e-21 0)
(0.00013989 -1.18611e-05 -6.30436e-21 -3.20335e-05 3.35445e-21 0)
(0.000133964 -1.81917e-05 -4.60647e-21 -3.34962e-05 -2.30171e-21 0)
(0.000143404 -2.52644e-05 4.11625e-21 -3.61483e-05 -1.1174e-21 0)
(0.000141834 -3.07807e-05 4.88582e-21 -3.87662e-05 1.03675e-21 0)
(0.000149444 -3.61349e-05 1.7021e-20 -4.30414e-05 1.92088e-21 0)
(0.000152413 -4.00217e-05 -1.74366e-21 -4.60687e-05 -4.63567e-21 0)
(0.000157499 -4.35225e-05 1.48279e-20 -5.15493e-05 -3.94653e-21 0)
(0.000164622 -4.53956e-05 -9.48041e-23 -5.39808e-05 -2.06766e-21 0)
(0.000166968 -4.69389e-05 4.67556e-21 -6.04284e-05 -2.89124e-21 0)
(0.000141971 -2.70436e-06 1.15182e-20 -2.9882e-05 -8.14276e-22 0)
(0.000146988 -9.40681e-06 3.05427e-21 -3.31084e-05 -1.18408e-22 0)
(0.000142112 -1.43128e-05 1.42512e-20 -3.31778e-05 -1.2077e-21 0)
(0.000149512 -1.98604e-05 5.31959e-21 -3.67004e-05 -3.59996e-21 0)
(0.000147582 -2.45465e-05 5.58906e-21 -3.78267e-05 2.59156e-21 0)
(0.000153734 -2.82943e-05 -1.08894e-20 -4.25931e-05 1.06167e-21 0)
(0.000155189 -3.21643e-05 0 -4.41443e-05 0 0)
(0.000159161 -3.38774e-05 1.18862e-20 -4.98488e-05 1.43302e-21 0)
(0.00016413 -3.65466e-05 5.32658e-21 -5.10311e-05 -2.16429e-21 0)
(0.000165486 -3.61839e-05 -6.66524e-21 -5.75072e-05 -3.64261e-21 0)
(0.000147858 -1.6608e-06 1.01289e-20 -2.54557e-05 -3.73482e-21 0)
(0.000149909 -6.8617e-06 1.6238e-20 -3.02796e-05 -2.30302e-21 0)
(0.00014674 -9.75457e-06 2.71849e-21 -2.86156e-05 1.64159e-21 0)
(0.000151911 -1.36007e-05 -1.12123e-21 -3.42e-05 5.38948e-22 0)
(0.000150648 -1.73721e-05 -7.3992e-22 -3.31507e-05 5.82061e-22 0)
(0.00015525 -1.87868e-05 -1.00683e-20 -4.02937e-05 -3.98022e-21 0)
(0.000156159 -2.30463e-05 -1.58111e-20 -3.95497e-05 -8.87907e-22 0)
(0.000159136 -2.19783e-05 -4.63303e-21 -4.76091e-05 3.72459e-21 0)
(0.00016259 -2.62873e-05 -5.48336e-21 -4.6735e-05 -1.29932e-23 0)
(0.000163164 -2.27992e-05 -1.5876e-20 -5.53375e-05 -5.34909e-21 0)
(0.000151247 -2.06459e-07 -2.48992e-20 -1.56427e-05 -5.68235e-23 0)
(0.000150467 -2.58102e-06 -7.88551e-21 -2.02872e-05 -3.29641e-22 -4.34048e-36)
(0.000150999 -3.77509e-06 -9.46119e-21 -1.8079e-05 -1.65768e-21 0)
(0.000153443 -4.09143e-06 -2.07285e-21 -2.45106e-05 -1.47104e-21 -2.21056e-37)
(0.000154584 -8.01322e-06 9.54612e-22 -2.2537e-05 -2.07816e-22 0)
(0.000156238 -5.0032e-06 0 -3.22476e-05 0 0)
(0.000158429 -1.11643e-05 -1.70399e-20 -3.09516e-05 -9.99857e-22 0)
(0.000159567 -5.42801e-06 -1.34783e-20 -4.12861e-05 -7.80744e-21 -1.08856e-35)
(0.000162491 -1.30118e-05 -3.68393e-22 -4.12635e-05 -3.94306e-21 0)
(0.000162165 -4.97142e-06 9.89975e-21 -5.10574e-05 4.8158e-21 -4.61415e-36)
(0.000273982 -4.90538e-05 1.33646e-20 -0.000159901 1.23459e-20 0)
(0.00025227 -5.05379e-05 -3.86024e-22 -0.000154609 1.96593e-21 0)
(0.000280433 -3.1703e-05 1.19448e-20 -0.000158932 1.16726e-20 0)
(0.000264354 -3.37754e-05 3.43095e-20 -0.000149342 2.47524e-20 0)
(0.000285435 -1.73348e-05 3.14471e-20 -0.000156419 2.26886e-20 0)
(0.00027262 -2.00836e-05 0 -0.000144694 0 0)
(0.000288659 -5.52545e-06 -9.2952e-22 -0.000153081 1.09001e-21 0)
(0.000278031 -9.51766e-06 2.17245e-21 -0.00013997 2.74071e-21 0)
(0.000290374 3.8507e-06 1.38446e-20 -0.000149127 1.24973e-20 0)
(0.000281678 -1.97193e-06 2.60074e-21 -0.000134946 2.95526e-21 0)
(0.000291227 1.08256e-05 -1.41204e-20 -0.000144911 -1.27888e-20 0)
(0.00028484 2.56005e-06 -4.61365e-20 -0.000130106 -3.50006e-20 0)
(0.000292065 1.51047e-05 -2.22405e-20 -0.000140792 -1.88296e-20 0)
(0.000288423 4.00967e-06 1.74273e-20 -0.0001268 1.04469e-20 0)
(0.000293849 1.6204e-05 4.42408e-20 -0.000138076 3.59031e-20 0)
(0.000294992 2.34691e-06 8.66796e-21 -0.00012648 5.74342e-21 0)
(0.000301023 1.41379e-05 -7.1679e-21 -0.000138108 -3.86051e-21 0)
(0.000303937 -2.27896e-06 3.63189e-20 -0.00012645 2.48208e-20 0)
(0.000308268 9.53799e-06 3.14455e-20 -0.000140437 2.27251e-20 0)
(0.000318207 -4.5699e-06 0 -0.000125412 0 0)
(0.000236839 -5.80942e-05 1.44514e-20 -0.000124577 8.81372e-21 0)
(0.000221666 -6.55192e-05 1.92486e-20 -0.000130554 1.02075e-20 0)
(0.000246663 -4.60219e-05 5.36887e-22 -0.000128652 -1.55833e-22 0)
(0.000232283 -5.6645e-05 0 -0.000131089 0 0)
(0.000255745 -3.57491e-05 1.16591e-20 -0.000130572 7.66485e-21 0)
(0.000242754 -4.71986e-05 2.08154e-20 -0.000130031 1.15521e-20 0)
(0.000263512 -2.66993e-05 1.00194e-20 -0.000131294 6.12653e-21 0)
(0.000252353 -3.85032e-05 -1.96838e-20 -0.000128333 -1.11971e-20 0)
(0.000270101 -1.8646e-05 -1.53601e-20 -0.000130902 -9.77029e-21 0)
(0.000260522 -3.08886e-05 1.97465e-20 -0.000126225 1.13504e-20 0)
(0.00027651 -1.23959e-05 9.63587e-21 -0.000130422 6.20585e-21 0)
(0.000269028 -2.47359e-05 1.0381e-20 -0.000124401 5.81057e-21 0)
(0.000284144 -7.35521e-06 1.78782e-20 -0.000130408 1.03514e-20 0)
(0.000277804 -2.01051e-05 6.80614e-20 -0.000123633 3.73201e-20 0)
(0.000293423 -3.49325e-06 4.11814e-20 -0.000131765 2.60319e-20 0)
(0.00028742 -1.59759e-05 1.09343e-20 -0.000124721 5.90558e-21 0)
(0.000304309 -7.61749e-07 -6.97237e-21 -0.000134791 -5.08598e-21 0)
(0.000297557 -1.12246e-05 2.48618e-20 -0.000127961 1.28461e-20 0)
(0.000315417 8.44017e-07 5.48699e-20 -0.000136299 2.96202e-20 0)
(0.000310874 -3.62644e-06 1.05534e-20 -0.000127246 2.09195e-22 -3.7088e-37)
(0.00021059 -6.40977e-05 8.86541e-22 -9.80492e-05 -2.32964e-22 0)
(0.000202692 -7.04352e-05 3.36806e-20 -0.000104504 1.09691e-20 0)
(0.00022063 -5.64546e-05 3.76748e-20 -0.000103549 1.43738e-20 0)
(0.000212195 -6.58215e-05 4.48159e-20 -0.000108028 1.51688e-20 0)
(0.000231375 -4.96069e-05 4.84076e-20 -0.000107505 1.99321e-20 0)
(0.000222515 -5.97789e-05 3.79653e-20 -0.000110299 1.3224e-20 0)
(0.000241759 -4.28929e-05 4.79222e-20 -0.000110907 2.11431e-20 0)
(0.000232699 -5.31164e-05 2.07673e-21 -0.000112034 -5.52482e-22 0)
(0.000251836 -3.61627e-05 1.25583e-20 -0.000113665 4.35932e-21 0)
(0.000242534 -4.63695e-05 1.11311e-20 -0.000113395 3.89299e-21 0)
(0.000261416 -2.9453e-05 2.84612e-20 -0.000116491 1.35591e-20 0)
(0.000252329 -3.96191e-05 -1.80563e-20 -0.000114871 -8.10781e-21 0)
(0.000271394 -2.27677e-05 -1.8677e-20 -0.000119459 -9.42113e-21 0)
(0.000262347 -3.27549e-05 -1.63123e-21 -0.00011698 7.66799e-22 0)
(0.000282022 -1.61945e-05 4.45276e-20 -0.000123127 1.89377e-20 0)
(0.000272542 -2.52224e-05 3.07774e-20 -0.000119865 1.27881e-20 0)
(0.000292807 -9.81342e-06 5.93312e-20 -0.000127203 2.44565e-20 0)
(0.000281917 -1.58577e-05 5.7068e-20 -0.000122685 2.04339e-20 0)
(0.000302149 -4.01746e-06 4.985e-20 -0.000129344 2.00154e-20 0)
(0.000291895 -2.94147e-06 2.30571e-20 -0.000121493 2.93257e-22 -4.33259e-37)
(0.000194522 -6.46341e-05 -2.35607e-20 -8.1081e-05 -5.66371e-21 0)
(0.000189864 -6.92494e-05 -8.82267e-21 -8.67746e-05 1.12281e-22 0)
(0.000203388 -5.96812e-05 -7.90698e-21 -8.6803e-05 -1.89113e-21 0)
(0.000198124 -6.66483e-05 7.47376e-21 -9.12937e-05 2.90634e-21 0)
(0.000213302 -5.49999e-05 9.78955e-21 -9.14057e-05 2.13226e-21 0)
(0.000207366 -6.24948e-05 2.56003e-20 -9.50385e-05 5.03848e-21 0)
(0.000223406 -4.9986e-05 1.87884e-20 -9.57413e-05 4.59816e-21 0)
(0.000216734 -5.72737e-05 2.65966e-20 -9.85182e-05 5.51905e-21 0)
(0.000233424 -4.43967e-05 -1.36765e-21 -9.99222e-05 1.09276e-21 0)
(0.000225989 -5.12152e-05 -1.59946e-20 -0.000101807 -5.36826e-21 0)
(0.000243416 -3.8111e-05 -2.94317e-20 -0.000103971 -7.78966e-21 0)
(0.000235221 -4.43265e-05 -1.23741e-20 -0.000104965 -7.24228e-22 0)
(0.000253685 -3.0934e-05 -5.07361e-21 -0.00010807 -3.70105e-21 0)
(0.000244809 -3.66294e-05 2.94392e-20 -0.000108415 6.67876e-21 0)
(0.000264002 -2.3323e-05 1.20692e-20 -0.000111896 2.92256e-21 0)
(0.000253602 -2.76144e-05 4.80553e-21 -0.00011205 -1.44135e-21 0)
(0.000273592 -1.54937e-05 -9.97889e-21 -0.000115665 -2.89792e-21 0)
(0.000260809 -1.63842e-05 -9.47251e-21 -0.00011447 -2.42319e-21 0)
(0.000281011 -7.45617e-06 -2.65162e-20 -0.000117758 -4.94213e-21 0)
(0.000266881 -1.82833e-06 -6.38776e-21 -0.000113614 1.37168e-22 1.21591e-37)
(0.000184569 -6.10503e-05 -1.00593e-20 -7.06448e-05 -2.2975e-21 0)
(0.000181775 -6.39664e-05 1.34188e-20 -7.55679e-05 2.69088e-21 0)
(0.000192143 -5.77074e-05 6.46179e-21 -7.59715e-05 2.23707e-21 0)
(0.000188624 -6.23062e-05 -6.49856e-21 -8.02415e-05 -2.26042e-21 0)
(0.000200605 -5.4312e-05 -1.41207e-20 -8.04509e-05 -3.43554e-21 0)
(0.000196424 -5.92047e-05 -7.49461e-21 -8.43203e-05 -8.34588e-22 0)
(0.000209313 -5.03852e-05 -1.0968e-20 -8.4784e-05 4.49574e-22 0)
(0.000204524 -5.49228e-05 -1.06107e-20 -8.8142e-05 9.46726e-22 0)
(0.00021781 -4.57528e-05 1.16424e-20 -8.90809e-05 -3.4432e-22 0)
(0.000212548 -4.94733e-05 1.77047e-20 -9.16532e-05 1.8299e-21 0)
(0.000225607 -4.04439e-05 3.93842e-20 -9.32467e-05 3.79103e-21 0)
(0.000218202 -4.24177e-05 3.80963e-20 -9.608e-05 2.33618e-21 0)
(0.000235072 -3.49784e-05 -5.38471e-21 -9.72318e-05 -2.46729e-21 0)
(0.00022813 -3.5042e-05 1.23406e-20 -9.94318e-05 4.5036e-21 0)
(0.00024437 -2.65192e-05 -8.90565e-21 -0.000101665 -1.65735e-21 0)
(0.000233624 -2.62024e-05 0 -0.000102938 0 0)
(0.000250639 -1.74711e-05 -9.03579e-21 -0.000105162 -1.76119e-21 0)
(0.000238338 -1.499e-05 -5.2194e-21 -0.000104642 -3.18027e-21 0)
(0.000255282 -8.59855e-06 -5.45113e-21 -0.000106729 -3.41636e-21 0)
(0.000241233 -1.04158e-06 0 -0.000104007 0 0)
(0.000178344 -5.49231e-05 9.31357e-21 -6.47519e-05 1.77734e-21 0)
(0.00017691 -5.62647e-05 0 -6.86982e-05 0 0)
(0.000184498 -5.2628e-05 6.94676e-21 -6.9458e-05 3.55294e-22 0)
(0.000182058 -5.48917e-05 1.25901e-20 -7.30157e-05 2.20265e-21 0)
(0.000191267 -5.00308e-05 1.59188e-20 -7.35259e-05 5.36633e-22 0)
(0.000187771 -5.2078e-05 2.27013e-20 -7.69429e-05 7.52348e-22 0)
(0.000198131 -4.68296e-05 1.30709e-20 -7.75778e-05 2.64774e-21 0)
(0.000193384 -4.79219e-05 7.20931e-21 -8.1213e-05 4.67967e-22 0)
(0.000204395 -4.31243e-05 3.69774e-21 -8.19138e-05 -1.98366e-21 0)
(0.000200095 -4.2484e-05 -1.82856e-21 -8.4907e-05 -4.43244e-21 0)
(0.000213081 -3.82466e-05 -2.53911e-20 -8.44836e-05 -1.94339e-21 0)
(0.000206383 -3.76047e-05 -2.9984e-20 -8.82536e-05 -4.12203e-21 0)
(0.000217335 -3.17999e-05 -4.0214e-20 -8.94076e-05 -7.03367e-22 0)
(0.000211004 -3.07227e-05 -1.34404e-20 -9.18629e-05 6.52225e-21 0)
(0.000223306 -2.46706e-05 0 -9.2308e-05 0 0)
(0.000215039 -2.23564e-05 -4.82554e-21 -9.44653e-05 -2.66141e-21 0)
(0.000228052 -1.68407e-05 -4.89028e-21 -9.44286e-05 -2.75121e-21 0)
(0.000217595 -1.22835e-05 -7.71184e-21 -9.55833e-05 -9.21473e-22 0)
(0.000230693 -8.65984e-06 -1.41058e-20 -9.55233e-05 8.27419e-22 0)
(0.000217707 -2.74259e-07 -5.98012e-21 -9.52342e-05 2.03631e-22 1.80506e-37)
(0.000174185 -4.70773e-05 -9.36489e-21 -6.12522e-05 1.58812e-21 0)
(0.000173306 -4.68142e-05 -7.93336e-21 -6.48831e-05 1.15412e-22 0)
(0.000178805 -4.55376e-05 -1.1785e-20 -6.53233e-05 -1.89227e-21 0)
(0.000177095 -4.54923e-05 -6.60381e-21 -6.86672e-05 -2.96954e-22 0)
(0.000183709 -4.35628e-05 1.00801e-20 -6.91082e-05 -1.62073e-21 0)
(0.000181115 -4.30418e-05 1.50059e-20 -7.19644e-05 3.22036e-22 0)
(0.000188621 -4.10471e-05 1.90729e-20 -7.36726e-05 2.73987e-21 0)
(0.000185708 -3.9922e-05 0 -7.57664e-05 0 0)
(0.000193788 -3.71997e-05 -1.08752e-20 -7.66095e-05 1.41837e-21 0)
(0.000189686 -3.59112e-05 -3.45412e-20 -7.91845e-05 -3.97533e-21 0)
(0.000198506 -3.26807e-05 -3.98384e-20 -7.93439e-05 -2.09957e-21 0)
(0.000193539 -3.07843e-05 -4.36266e-20 -8.24501e-05 -4.59001e-21 0)
(0.000202679 -2.74254e-05 -4.97491e-20 -8.20036e-05 -2.7957e-21 0)
(0.00019674 -2.4673e-05 -4.61853e-20 -8.51825e-05 1.03187e-21 0)
(0.000206024 -2.14059e-05 -4.58437e-21 -8.43024e-05 -2.36214e-21 0)
(0.000199012 -1.74939e-05 4.27548e-21 -8.70112e-05 2.44007e-21 0)
(0.000208231 -1.47438e-05 4.32389e-21 -8.57864e-05 2.43682e-21 0)
(0.000199842 -9.1608e-06 -1.09482e-20 -8.74862e-05 -3.29845e-21 0)
(0.000208764 -7.71274e-06 8.84089e-21 -8.64926e-05 -3.50442e-21 0)
(0.000198065 2.67961e-07 5.477e-21 -8.74074e-05 -1.8849e-22 1.67085e-37)
(0.000171039 -3.73244e-05 -6.21442e-21 -5.74312e-05 2.91743e-21 0)
(0.000170036 -3.6031e-05 -6.06936e-21 -6.12293e-05 2.86402e-21 0)
(0.000174435 -3.61167e-05 3.23575e-21 -6.07295e-05 -1.5043e-21 0)
(0.000172542 -3.47082e-05 3.15043e-21 -6.4823e-05 -1.49406e-21 0)
(0.000177706 -3.44827e-05 -6.53851e-21 -6.39257e-05 -4.90374e-22 0)
(0.000175183 -3.2727e-05 -6.45289e-21 -6.81402e-05 -6.44264e-22 0)
(0.000180982 -3.23372e-05 0 -6.72818e-05 0 0)
(0.000178144 -2.99788e-05 4.63903e-21 -7.15357e-05 2.04443e-21 0)
(0.000184591 -2.94287e-05 3.2425e-20 -7.01483e-05 4.46324e-22 0)
(0.000180814 -2.65112e-05 2.06366e-20 -7.46207e-05 -1.74018e-21 0)
(0.000187582 -2.57847e-05 1.36094e-20 -7.2987e-05 1.34569e-21 0)
(0.000183161 -2.22988e-05 8.77526e-21 -7.73243e-05 4.4899e-21 0)
(0.000189972 -2.15047e-05 4.47412e-20 -7.55608e-05 3.97264e-21 0)
(0.000185009 -1.73875e-05 3.01918e-20 -7.95282e-05 3.11737e-21 0)
(0.000191598 -1.66814e-05 1.52936e-20 -7.75995e-05 5.32554e-21 0)
(0.000186092 -1.18258e-05 0 -8.09153e-05 0 0)
(0.000192197 -1.14515e-05 1.16018e-20 -7.87694e-05 -7.47111e-22 0)
(0.000186053 -5.73038e-06 1.79588e-20 -8.11549e-05 4.17381e-22 0)
(0.000191469 -6.05524e-06 -6.76238e-21 -7.93776e-05 -9.65807e-22 0)
(0.000183584 6.66008e-07 -6.50283e-21 -8.13233e-05 -1.05663e-22 3.12212e-38)
(0.000167504 -2.6028e-05 -2.24967e-20 -5.39026e-05 -2.76909e-21 0)
(0.000167046 -2.31296e-05 -1.2419e-20 -5.81382e-05 4.36651e-22 0)
(0.00017035 -2.53027e-05 -6.25135e-21 -5.73181e-05 -8.80317e-22 0)
(0.000168929 -2.19775e-05 0 -6.15542e-05 0 0)
(0.000172918 -2.40274e-05 -1.61055e-20 -6.05398e-05 -7.6715e-22 0)
(0.000170544 -2.04399e-05 -7.7934e-21 -6.47608e-05 -1.13249e-21 0)
(0.00017517 -2.21782e-05 -2.71762e-20 -6.3639e-05 -3.74213e-21 0)
(0.000172102 -1.83717e-05 -2.90918e-20 -6.76952e-05 -7.93727e-21 0)
(0.000177246 -1.98048e-05 -5.27403e-20 -6.65287e-05 -8.89706e-21 0)
(0.000173608 -1.58241e-05 -2.00022e-20 -7.0404e-05 -2.67609e-22 0)
(0.000179035 -1.69902e-05 7.85134e-21 -6.91682e-05 -2.4363e-21 0)
(0.000174978 -1.28535e-05 4.12594e-20 -7.28209e-05 7.40993e-21 0)
(0.000180359 -1.38332e-05 8.25829e-21 -7.14702e-05 4.45795e-21 0)
(0.000176064 -9.53208e-06 6.32505e-21 -7.47949e-05 1.29245e-21 0)
(0.000181001 -1.04595e-05 0 -7.33114e-05 0 0)
(0.000176679 -5.98783e-06 -2.02139e-20 -7.60994e-05 -7.5152e-21 0)
(0.000180763 -7.02838e-06 -3.58231e-20 -7.46099e-05 -5.79893e-21 0)
(0.000176633 -2.43952e-06 -2.1403e-20 -7.65049e-05 -2.9026e-22 0)
(0.000179573 -3.72438e-06 -1.25334e-20 -7.54725e-05 9.85971e-21 0)
(0.000174759 8.95194e-07 1.83517e-21 -7.6674e-05 2.49111e-22 2.94429e-37)
(0.000164988 -1.17595e-05 2.31645e-20 -5.15723e-05 6.14074e-21 0)
(0.000165027 -6.54888e-06 1.83104e-20 -5.47207e-05 6.26773e-21 -6.91604e-36)
(0.000167159 -1.18784e-05 3.97709e-20 -5.66906e-05 1.04699e-20 0)
(0.000167291 -5.72265e-06 1.78122e-20 -5.80708e-05 4.24212e-21 -8.40985e-36)
(0.000168793 -1.11511e-05 2.28167e-20 -6.13964e-05 7.37866e-21 0)
(0.000169117 -4.99601e-06 0 -6.14522e-05 0 0)
(0.000170246 -9.99663e-06 2.21399e-20 -6.53931e-05 4.52352e-21 0)
(0.000170713 -4.27718e-06 1.86433e-20 -6.4659e-05 5.8934e-21 -7.0418e-36)
(0.000171597 -8.59674e-06 3.06628e-20 -6.87399e-05 9.1422e-21 0)
(0.000172069 -3.50957e-06 -2.59254e-22 -6.7598e-05 -2.83541e-21 2.44808e-38)
(0.000172794 -7.01202e-06 -2.03694e-20 -7.14466e-05 -4.92624e-21 0)
(0.000173156 -2.66525e-06 -6.15113e-21 -7.01566e-05 3.56253e-22 -1.16168e-36)
(0.000173735 -5.29529e-06 2.67265e-20 -7.34487e-05 3.00064e-21 0)
(0.000173948 -1.7556e-06 3.09788e-20 -7.22079e-05 6.59787e-21 -2.04768e-35)
(0.000174276 -3.54981e-06 4.05537e-20 -7.46664e-05 1.28325e-20 0)
(0.000174438 -8.47651e-07 1.24082e-20 -7.35982e-05 1.65051e-21 -3.51503e-36)
(0.000174239 -1.95532e-06 3.08277e-20 -7.51359e-05 5.14855e-21 0)
(0.000174605 -7.67622e-08 1.87752e-20 -7.42249e-05 2.93899e-22 -8.8645e-36)
(0.000173553 -7.25671e-07 3.2613e-20 -7.52045e-05 7.51243e-21 0)
(0.000174435 1.2882e-07 4.86645e-21 -7.42551e-05 1.55518e-21 -1.37858e-36)
(0.000274638 5.16252e-06 0 -8.81992e-05 0 0)
(0.000287483 3.44594e-05 -2.18462e-20 -9.16797e-05 -1.11608e-20 0)
(0.000263514 9.55114e-07 -4.2964e-20 -8.71456e-05 -9.74301e-21 0)
(0.00027638 3.678e-05 -3.60939e-20 -8.64751e-05 -1.41069e-20 0)
(0.000250647 -1.9244e-06 0 -8.91785e-05 0 0)
(0.000263981 3.74989e-05 8.53538e-21 -8.30258e-05 5.26621e-21 0)
(0.000236664 -3.76291e-06 3.95156e-20 -9.07457e-05 9.82989e-21 0)
(0.00025048 3.71225e-05 3.32631e-20 -7.99024e-05 1.34114e-20 0)
(0.000221815 -5.11082e-06 -1.90389e-20 -9.09403e-05 -2.86747e-21 0)
(0.000235955 3.59577e-05 -3.15812e-20 -7.68067e-05 -1.29793e-20 0)
(0.000206147 -6.4076e-06 3.53158e-20 -8.96096e-05 5.46483e-21 0)
(0.000220323 3.41812e-05 5.66145e-20 -7.35999e-05 2.49799e-20 0)
(0.000189578 -7.84995e-06 3.76997e-22 -8.66712e-05 4.04676e-21 0)
(0.000203487 3.17549e-05 -8.46055e-21 -7.01688e-05 -2.36685e-21 0)
(0.000172166 -9.324e-06 2.90979e-20 -8.1897e-05 5.25522e-21 0)
(0.000185799 2.8114e-05 5.51341e-20 -6.64459e-05 2.82948e-20 0)
(0.000154923 -1.01211e-05 4.18731e-20 -7.47194e-05 1.57738e-20 0)
(0.000169416 2.13334e-05 6.3578e-21 -6.22746e-05 2.3518e-21 0)
(0.000142123 -8.23566e-06 -1.16965e-20 -6.49467e-05 -3.47828e-21 0)
(0.000150315 5.96667e-06 -4.54568e-21 -6.57325e-05 -1.51167e-22 -2.40067e-37)
(0.000295344 4.57426e-05 -5.90023e-21 -0.000102964 -3.09444e-21 0)
(0.000306996 6.15422e-05 -1.42353e-20 -0.000119015 -1.1057e-20 0)
(0.000282847 4.43195e-05 3.86879e-20 -9.50831e-05 2.72087e-20 0)
(0.000295709 6.38168e-05 8.67691e-20 -0.000115953 7.12404e-20 0)
(0.000269802 4.2076e-05 7.91817e-20 -9.12817e-05 5.72936e-20 0)
(0.000282796 6.38408e-05 3.86135e-20 -0.000112603 3.05204e-20 0)
(0.000256227 3.92757e-05 -3.41467e-20 -8.8729e-05 -2.43342e-20 0)
(0.000269003 6.21419e-05 -1.74291e-21 -0.000108623 8.5309e-22 0)
(0.000241957 3.56095e-05 7.35033e-20 -8.63988e-05 5.42464e-20 0)
(0.000254603 5.89586e-05 6.88077e-20 -0.000104121 5.82164e-20 0)
(0.000226751 3.08242e-05 0 -8.38354e-05 0 0)
(0.000239561 5.43456e-05 8.88181e-21 -9.91402e-05 8.07439e-21 0)
(0.000210452 2.48451e-05 2.99038e-20 -8.07097e-05 2.3187e-20 0)
(0.000223829 4.80943e-05 1.13326e-20 -9.3641e-05 1.04212e-20 0)
(0.000193255 1.7845e-05 -9.95771e-21 -7.66632e-05 -8.16049e-21 0)
(0.000207832 3.94669e-05 4.15859e-20 -8.76492e-05 3.87337e-20 0)
(0.000176272 1.04886e-05 3.6375e-20 -7.15628e-05 3.31019e-20 0)
(0.000193518 2.64919e-05 4.0071e-20 -8.23434e-05 4.22624e-20 0)
(0.000162531 4.30657e-06 2.63672e-20 -6.76785e-05 2.17151e-20 0)
(0.000178568 4.65493e-06 0 -8.56168e-05 0 0)
(0.000311665 4.89744e-05 4.79319e-20 -0.000143157 4.50839e-20 0)
(0.00032559 5.95337e-05 2.75301e-20 -0.000144506 2.64119e-20 0)
(0.000301959 5.54252e-05 8.67704e-21 -0.000132369 7.06488e-21 0)
(0.000316158 6.47308e-05 -1.54294e-20 -0.000139302 -1.43046e-20 0)
(0.000290798 5.89248e-05 -4.35379e-20 -0.000124421 -4.22089e-20 0)