/*--------------------------------*- C++ -*----------------------------------*\
| =========                 |                                                 |
| \\      /  F ield         | OpenFOAM: The Open Source CFD Toolbox           |
|  \\    /   O peration     | Version:  v2012                                 |
|   \\  /    A nd           | Website:  www.openfoam.com                      |
|    \\/     M anipulation  |                                                 |
\*---------------------------------------------------------------------------*/
FoamFile
{
    version     2.0;
    format      ascii;
    class       volSymmTensorField;
    location    "1";
    object      sigma;
}
// * * * * * * * * * * * * * * * * * * * * * * * * * * * * * * * * * * * * * //

dimensions      [1 -1 -2 0 0 0 0];


internalField   nonuniform List<symmTensor> 
500
(
(4.95876e+07 -4.5205e+06 -2.78185e-09 1.34615e+06 2.33598e-10 1.45121e+07)
(4.79752e+07 -1.46651e+06 -2.91875e-09 3.00839e+06 -1.23874e-10 1.30934e+07)
(4.12741e+07 -2.66574e+06 0 5.32119e+06 0 1.48128e+07)
(4.07026e+07 234247 1.64217e-09 4.3863e+06 7.97117e-10 1.30575e+07)
(3.45282e+07 -1.54415e+06 3.04322e-09 6.28489e+06 4.53583e-10 1.29031e+07)
(3.43156e+07 1.32492e+06 1.86692e-09 4.56214e+06 2.98964e-10 1.14697e+07)
(2.94454e+07 -846069 0 5.86938e+06 0 1.09927e+07)
(2.95359e+07 1.92511e+06 3.07587e-09 4.10817e+06 1.61083e-09 9.91841e+06)
(2.56439e+07 -498840 4.26552e-09 4.91878e+06 8.53015e-10 9.53175e+06)
(2.57926e+07 2.30685e+06 2.60583e-09 3.32604e+06 6.78197e-10 8.78782e+06)
(4.45906e+07 -1.1126e+07 -3.98653e-09 3.45724e+06 3.2887e-10 1.34253e+07)
(4.22352e+07 -5.82478e+06 -5.43619e-09 3.27816e+06 -2.1824e-09 1.25507e+07)
(3.85016e+07 -4.98375e+06 -4.81454e-09 4.54972e+06 -2.1305e-09 1.37592e+07)
(3.69459e+07 -1.7393e+06 3.34911e-09 3.21063e+06 1.73327e-09 1.18155e+07)
(3.30968e+07 -1.38167e+06 1.63282e-09 4.6029e+06 9.15393e-10 1.18973e+07)
(3.24224e+07 916584 4.89632e-10 2.66673e+06 2.79605e-10 1.0276e+07)
(2.90178e+07 619769 -3.33769e-09 4.13001e+06 -2.0824e-09 1.01622e+07)
(2.90156e+07 2.42855e+06 -6.29419e-09 1.99403e+06 -4.37485e-09 9.07641e+06)
(2.58783e+07 1.67853e+06 -1.01415e-09 3.48332e+06 -6.62062e-10 8.85264e+06)
(2.61819e+07 3.2649e+06 1.8064e-09 1.28608e+06 1.39139e-09 8.30089e+06)
(3.40924e+07 -1.40517e+07 5.82995e-09 6.57919e+06 -1.01849e-09 1.14059e+07)
(3.3085e+07 -7.87604e+06 -1.1022e-09 3.58444e+06 7.20224e-10 1.05715e+07)
(3.22493e+07 -6.74349e+06 -7.3488e-10 4.00175e+06 -5.64499e-10 1.14743e+07)
(3.09285e+07 -3.07433e+06 2.19074e-09 1.7518e+06 3.71914e-10 9.6325e+06)
(2.96988e+07 -2.21994e+06 6.23755e-10 2.30637e+06 4.81485e-11 1.00941e+07)
(2.89444e+07 3290.69 -1.02065e-09 398483 -9.04211e-10 8.43149e+06)
(2.7527e+07 368977 4.39187e-09 1.2539e+06 3.41137e-09 8.96517e+06)
(2.734e+07 1.78172e+06 5.12965e-10 -452077 6.62094e-10 7.65912e+06)
(2.56718e+07 1.82472e+06 -9.79223e-10 606294 -8.2603e-10 8.13913e+06)
(2.57815e+07 2.78029e+06 0 -961177 0 7.27979e+06)
(2.21973e+07 -1.31147e+07 -8.14788e-10 8.49137e+06 -1.14075e-10 8.54396e+06)
(2.27485e+07 -7.35777e+06 -7.53607e-09 3.30177e+06 -3.49167e-09 7.87379e+06)
(2.43844e+07 -7.08135e+06 -9.14294e-09 2.91178e+06 -6.79325e-09 8.6878e+06)
(2.36983e+07 -3.46673e+06 -1.31848e-09 158956 -4.56672e-09 6.95834e+06)
(2.47839e+07 -3.17199e+06 2.70507e-09 -78958.1 2.73285e-09 7.897e+06)
(2.41382e+07 -1.04196e+06 5.61823e-09 -1.71748e+06 4.88768e-09 6.25374e+06)
(2.46674e+07 -865886 2.25023e-09 -1.5096e+06 1.78855e-09 7.36605e+06)
(2.42664e+07 358334 5.43673e-10 -2.60804e+06 8.8363e-10 5.97486e+06)
(2.42939e+07 492433 -1.63269e-09 -2.12794e+06 -1.64913e-09 7.05217e+06)
(2.39972e+07 1.15472e+06 -5.99364e-10 -2.83994e+06 -7.99476e-10 5.94526e+06)
(1.17132e+07 -9.24778e+06 -2.06684e-11 8.0092e+06 -9.03448e-10 5.44588e+06)
(1.3441e+07 -5.10876e+06 -2.11206e-09 1.69269e+06 -1.977e-09 4.95194e+06)
(1.63834e+07 -6.17092e+06 -4.42192e-09 1.30824e+06 -4.0537e-09 5.64354e+06)
(1.63709e+07 -3.07129e+06 -6.21416e-09 -1.68216e+06 -4.7547e-09 4.17123e+06)
(1.88727e+07 -3.94173e+06 -4.39575e-09 -2.1024e+06 -1.30126e-09 5.45798e+06)
(1.84309e+07 -1.88094e+06 3.86566e-10 -3.4411e+06 -1.91488e-10 3.87982e+06)
(2.03747e+07 -2.51359e+06 4.86987e-10 -3.57799e+06 -1.32374e-10 5.44392e+06)
(1.97972e+07 -1.18171e+06 -3.31826e-10 -4.14369e+06 6.51024e-11 3.9561e+06)
(2.13751e+07 -1.50256e+06 -3.97063e-10 -4.11299e+06 1.38495e-11 5.4777e+06)
(2.05831e+07 -815686 -1.48779e-09 -4.14544e+06 -8.84838e-10 4.22244e+06)
(4.37934e+06 -4.29292e+06 1.10362e-09 4.78422e+06 -6.68827e-10 2.36195e+06)
(6.5326e+06 -2.17379e+06 3.91853e-09 -1.67999e+06 7.2527e-10 2.20472e+06)
(9.44934e+06 -4.45144e+06 5.85834e-09 -1.10236e+06 3.09943e-09 2.63263e+06)
(1.00327e+07 -2.24202e+06 2.08204e-09 -4.2958e+06 1.7773e-09 1.63382e+06)
(1.25385e+07 -4.21679e+06 2.34294e-09 -3.88628e+06 1.45932e-09 3.00154e+06)
(1.26473e+07 -2.49299e+06 1.79884e-09 -5.44492e+06 1.86124e-09 1.73938e+06)
(1.43927e+07 -3.92069e+06 1.24615e-09 -4.89978e+06 7.48794e-10 3.54038e+06)
(1.45608e+07 -2.67619e+06 0 -6.01388e+06 0 2.28073e+06)
(1.54253e+07 -3.61833e+06 0 -4.99232e+06 0 4.38975e+06)
(1.62838e+07 -3.3044e+06 -1.61451e-09 -5.57639e+06 -1.19426e-09 2.85708e+06)
(499764 -101713 6.27307e-10 -717834 -1.42947e-09 -354170)
(2.29861e+06 560585 2.53723e-10 -6.18322e+06 -2.60132e-09 -250078)
(4.54768e+06 -2.70782e+06 3.96486e-10 -4.42509e+06 -7.95039e-10 -74293)
(5.31364e+06 -1.04079e+06 -2.08765e-10 -7.02521e+06 4.74008e-10 -645592)
(7.46399e+06 -3.9737e+06 1.16539e-10 -5.7354e+06 1.46488e-09 618783)
(7.71651e+06 -2.27971e+06 1.83081e-09 -6.75545e+06 1.28108e-09 -209691)
(9.48554e+06 -4.43247e+06 3.12956e-09 -5.86145e+06 1.65058e-09 1.44347e+06)
(9.6246e+06 -2.9966e+06 2.94874e-09 -6.27228e+06 1.4245e-09 571853)
(1.07583e+07 -4.34849e+06 4.68275e-09 -5.39468e+06 2.66538e-09 2.75341e+06)
(1.1675e+07 -3.97934e+06 1.34404e-09 -5.49965e+06 1.03739e-09 1.25827e+06)
(-766001 2.29457e+06 0 -7.18396e+06 0 -2.43477e+06)
(179711 2.12406e+06 0 -1.08574e+07 0 -2.16525e+06)
(1.23976e+06 -1.25772e+06 -3.86493e-10 -7.76603e+06 -1.15479e-09 -2.14753e+06)
(2.03998e+06 -14527.2 -2.2064e-09 -9.46051e+06 -1.66396e-09 -2.3358e+06)
(3.15529e+06 -3.16773e+06 -3.568e-09 -7.00428e+06 -1.70614e-09 -1.08917e+06)
(3.72912e+06 -1.5777e+06 -2.16335e-09 -7.57582e+06 -1.30253e-09 -1.56429e+06)
(4.76817e+06 -4.02062e+06 -4.67335e-09 -5.84597e+06 -2.46898e-09 -26157.1)
(5.22406e+06 -2.57502e+06 -1.8617e-09 -6.13796e+06 -1.40782e-09 -577577)
(5.99849e+06 -4.15075e+06 -1.28182e-09 -4.72069e+06 -5.66406e-11 1.25288e+06)
(6.94025e+06 -3.74225e+06 7.88055e-10 -4.9297e+06 3.28048e-10 180120)
(-628035 2.35468e+06 4.49475e-11 -1.28179e+07 -1.41467e-09 -3.92183e+06)
(-523161 2.30469e+06 1.55195e-11 -1.44822e+07 -6.05211e-10 -3.6599e+06)
(-556726 -561585 0 -1.05035e+07 0 -3.62229e+06)
(131537 640230 0 -1.11713e+07 0 -3.41534e+06)
(264563 -2.1504e+06 2.00744e-09 -7.85988e+06 1.71542e-09 -2.30025e+06)
(1.03248e+06 -606978 1.6593e-09 -8.06818e+06 1.55647e-09 -2.38544e+06)
(1.31057e+06 -2.8644e+06 2.6891e-09 -5.72774e+06 1.20338e-09 -1.11195e+06)
(2.03423e+06 -1.50253e+06 3.99947e-10 -5.96669e+06 3.24079e-10 -1.34128e+06)
(2.32212e+06 -2.95146e+06 -2.4497e-10 -4.22233e+06 -4.5625e-10 105312)
(3.26349e+06 -2.60827e+06 -3.65094e-10 -4.4004e+06 -2.04163e-10 -517454)
(-144225 658965 -8.00003e-11 -1.62288e+07 8.71121e-11 -5.1769e+06)
(-828365 1.24889e+06 -4.71683e-10 -1.65162e+07 -9.16187e-10 -4.28358e+06)
(-998925 -519108 1.14227e-09 -1.21173e+07 1.83085e-09 -4.74405e+06)
(-902473 714197 7.33353e-10 -1.21118e+07 2.174e-09 -3.51286e+06)
(-877033 -1.11832e+06 -8.51795e-11 -8.39293e+06 -9.48883e-11 -3.22856e+06)
(-508846 277640 5.41486e-11 -8.3156e+06 1.82982e-10 -2.43712e+06)
(-300284 -1.31026e+06 -2.62721e-10 -5.76031e+06 -2.46857e-10 -1.92076e+06)
(174748 -99803.2 -5.93771e-11 -5.64727e+06 -1.35936e-10 -1.51393e+06)
(414515 -1.11045e+06 -9.31196e-12 -3.94488e+06 6.70058e-11 -621928)
(1.17017e+06 -707977 -1.17862e-10 -3.69862e+06 5.84904e-12 -811502)
(1.2138e+06 -478100 -2.46743e-11 -1.55286e+06 -6.42239e-11 136789)
(3.24334e+06 -1.51293e+06 1.44161e-10 -1.38396e+06 1.44613e-11 266394)
(3.16215e+06 -2.56795e+06 2.26012e-10 -1.74707e+06 6.15021e-11 128558)
(5.28232e+06 -3.36427e+06 0 -1.78721e+06 0 971455)
(6.79469e+06 -3.91398e+06 -3.1101e-10 -2.37016e+06 -1.01862e-10 747949)
(8.56036e+06 -4.61222e+06 1.47633e-10 -2.5037e+06 6.89497e-11 2.07284e+06)
(1.13948e+07 -4.26617e+06 -3.18809e-10 -3.15129e+06 -3.60961e-10 1.57406e+06)
(1.2532e+07 -4.88884e+06 1.8549e-09 -3.43454e+06 7.37481e-10 3.21005e+06)
(1.5874e+07 -3.60043e+06 -1.49471e-09 -3.83322e+06 -3.45769e-10 2.68633e+06)
(1.6264e+07 -4.24577e+06 -3.83295e-11 -4.18267e+06 5.09767e-10 4.26793e+06)
(3.64297e+06 -215462 0 -52631.6 0 1.36993e+06)
(5.11401e+06 -1.57798e+06 1.74587e-10 -57748.3 4.86287e-11 1.49913e+06)
(4.87911e+06 -2.0425e+06 1.36634e-10 -181145 -1.95706e-11 1.63625e+06)
(6.70206e+06 -3.1482e+06 -6.9295e-10 -447702 -2.47764e-10 1.94234e+06)
(7.42926e+06 -3.36922e+06 2.53014e-10 -692958 9.90841e-11 2.19078e+06)
(9.15018e+06 -4.23961e+06 2.20407e-10 -1.13997e+06 1.53256e-10 2.63084e+06)
(1.07241e+07 -3.92621e+06 1.09536e-09 -1.43907e+06 4.73228e-10 2.75047e+06)
(1.20523e+07 -4.59751e+06 8.22456e-10 -1.98049e+06 4.5576e-10 3.2874e+06)
(1.4152e+07 -3.67513e+06 -9.20399e-10 -2.22342e+06 -4.28256e-10 3.20013e+06)
(1.48993e+07 -4.2184e+06 1.09337e-09 -2.75323e+06 5.22351e-10 4.00976e+06)
(5.71253e+06 -230441 0 917026 0 2.04748e+06)
(6.84495e+06 -1.39027e+06 1.9358e-10 855002 1.14374e-11 2.22257e+06)
(6.6027e+06 -1.75351e+06 -3.34433e-11 702477 8e-11 2.29773e+06)
(7.97587e+06 -2.76252e+06 -2.95628e-10 537218 2.08371e-11 2.50544e+06)
(8.42068e+06 -2.90254e+06 -5.61163e-10 258396 -4.02643e-11 2.65672e+06)
(9.73739e+06 -3.74948e+06 -2.73594e-10 3068.16 6.71289e-11 2.95359e+06)
(1.0749e+07 -3.52377e+06 2.93942e-10 -325598 1.54368e-10 3.05235e+06)
(1.18819e+07 -4.21692e+06 3.64585e-11 -630308 1.39265e-10 3.46067e+06)
(1.33032e+07 -3.62371e+06 -1.80494e-11 -911938 1.73199e-10 3.42071e+06)
(1.41066e+07 -4.12719e+06 5.4297e-10 -1.28926e+06 4.76555e-10 4.01669e+06)
(7.43386e+06 -235678 -2.39489e-10 1.60598e+06 1.19325e-10 2.70967e+06)
(8.36123e+06 -1.16551e+06 -2.99993e-10 1.55726e+06 1.19427e-10 2.84919e+06)
(8.0815e+06 -1.56271e+06 1.20656e-10 1.39634e+06 -1.19367e-10 2.89112e+06)
(9.15193e+06 -2.37223e+06 6.05259e-10 1.29843e+06 -5.24019e-11 3.05695e+06)
(9.42311e+06 -2.60333e+06 2.88001e-10 1.02039e+06 5.55064e-11 3.12629e+06)
(1.0421e+07 -3.28308e+06 -3.6393e-11 878406 -3.58358e-11 3.38887e+06)
(1.11576e+07 -3.24658e+06 -6.51736e-11 548066 -4.4039e-11 3.43218e+06)
(1.20118e+07 -3.80397e+06 -2.68947e-10 370127 2.39972e-12 3.77243e+06)
(1.306e+07 -3.4798e+06 6.78725e-10 74027 3.14896e-10 3.74009e+06)
(1.37032e+07 -3.89468e+06 -4.56712e-10 -177585 3.05683e-11 4.16713e+06)
(8.92981e+06 -232583 1.95163e-10 2.05166e+06 1.33234e-11 3.30547e+06)
(9.6787e+06 -962607 -3.71769e-10 2.01365e+06 -7.57752e-11 3.39546e+06)
(9.37225e+06 -1.37711e+06 -5.32477e-10 1.8767e+06 1.18096e-10 3.43437e+06)
(1.0221e+07 -2.00586e+06 -8.37335e-10 1.79121e+06 1.60537e-10 3.53762e+06)
(1.03409e+07 -2.30635e+06 -2.84003e-10 1.55888e+06 2.13822e-10 3.58415e+06)
(1.11192e+07 -2.8232e+06 3.68576e-10 1.4322e+06 3.05921e-10 3.76604e+06)
(1.16143e+07 -2.9234e+06 -3.298e-10 1.15266e+06 -3.40424e-10 3.79323e+06)
(1.22674e+07 -3.33881e+06 -4.27679e-10 997588 -3.90328e-10 4.0322e+06)
(1.30277e+07 -3.21214e+06 3.16888e-10 737843 3.9001e-10 4.00341e+06)
(1.35162e+07 -3.52127e+06 -4.51875e-10 537147 3.16244e-10 4.29724e+06)
(1.02098e+07 -217205 2.89661e-10 2.32125e+06 -6.98686e-11 3.78005e+06)
(1.08121e+07 -788158 6.55682e-10 2.28395e+06 1.44977e-11 3.84339e+06)
(1.04892e+07 -1.18028e+06 6.29067e-10 2.1728e+06 -1.16293e-10 3.86749e+06)
(1.1168e+07 -1.66861e+06 -1.32778e-10 2.08368e+06 -2.30458e-10 3.92435e+06)
(1.11594e+07 -1.98447e+06 1.4241e-10 1.89292e+06 2.65805e-10 3.94471e+06)
(1.17784e+07 -2.37458e+06 -3.64958e-10 1.76125e+06 2.66972e-10 4.06161e+06)
(1.20636e+07 -2.55059e+06 -1.96241e-10 1.52721e+06 -3.22558e-10 4.06392e+06)
(1.25743e+07 -2.84679e+06 -2.45398e-10 1.37061e+06 -3.1335e-10 4.22571e+06)
(1.30864e+07 -2.85653e+06 8.91875e-10 1.14261e+06 -8.5554e-11 4.18753e+06)
(1.34584e+07 -3.05765e+06 3.73451e-11 957696 -1.39202e-10 4.38391e+06)
(1.12756e+07 -187443 -6.50277e-10 2.54699e+06 1.46511e-10 4.15728e+06)
(1.17673e+07 -638674 -3.39465e-10 2.50985e+06 1.80624e-10 4.23473e+06)
(1.14294e+07 -979553 -2.4804e-10 2.41234e+06 -1.23938e-10 4.21598e+06)
(1.19876e+07 -1.36039e+06 2.21644e-10 2.31938e+06 -6.01677e-11 4.26583e+06)
(1.18727e+07 -1.65742e+06 2.63082e-10 2.14806e+06 5.58248e-11 4.23547e+06)
(1.2376e+07 -1.94572e+06 9.16516e-10 2.01141e+06 1.03432e-10 4.32903e+06)
(1.24845e+07 -2.15501e+06 -9.38892e-11 1.79701e+06 -2.49613e-10 4.27763e+06)
(1.28858e+07 -2.34352e+06 7.98428e-10 1.62938e+06 -2.12505e-10 4.40511e+06)
(1.31833e+07 -2.44438e+06 -5.10483e-12 1.41236e+06 -1.11336e-10 4.31902e+06)
(1.34574e+07 -2.52748e+06 2.51761e-10 1.21299e+06 -1.55682e-10 4.46683e+06)
(1.21376e+07 -145619 6.20212e-10 2.88401e+06 -4.38456e-11 4.49304e+06)
(1.25453e+07 -506521 1.64461e-10 2.84779e+06 -6.37584e-12 4.63055e+06)
(1.2192e+07 -770691 7.67374e-10 2.75337e+06 -6.50299e-11 4.53986e+06)
(1.26754e+07 -1.0694e+06 2.8644e-10 2.64855e+06 -1.93844e-10 4.62472e+06)
(1.24633e+07 -1.32173e+06 3.0095e-10 2.47979e+06 1.39545e-10 4.51661e+06)
(1.28936e+07 -1.52354e+06 -5.86351e-10 2.3221e+06 5.71669e-11 4.61558e+06)
(1.28412e+07 -1.73192e+06 0 2.10785e+06 0 4.48485e+06)
(1.31664e+07 -1.82417e+06 6.40028e-10 1.912e+06 7.71627e-11 4.59617e+06)
(1.32721e+07 -1.96789e+06 2.86816e-10 1.68655e+06 -1.16539e-10 4.43438e+06)
(1.34664e+07 -1.94836e+06 -3.58898e-10 1.45906e+06 -1.96141e-10 4.5556e+06)
(1.27955e+07 -89427.7 5.45401e-10 3.46323e+06 -2.01106e-10 4.83392e+06)
(1.31183e+07 -369476 8.74354e-10 3.41584e+06 -1.24009e-10 5.04629e+06)
(1.27699e+07 -525246 1.4638e-10 3.32763e+06 8.83935e-11 4.86847e+06)
(1.31783e+07 -732343 -6.03738e-11 3.15694e+06 2.90203e-11 4.99848e+06)
(1.29024e+07 -935423 -3.98418e-11 3.00553e+06 3.13418e-11 4.79056e+06)
(1.32691e+07 -1.0116e+06 -5.42139e-10 2.73982e+06 -2.1432e-10 4.90949e+06)
(1.30884e+07 -1.24095e+06 -8.51367e-10 2.55023e+06 -4.78104e-11 4.67982e+06)
(1.33607e+07 -1.18345e+06 -2.49471e-10 2.22823e+06 2.00555e-10 4.7918e+06)
(1.32957e+07 -1.41547e+06 -2.95258e-10 2.02434e+06 -6.99632e-13 4.54084e+06)
(1.34401e+07 -1.22765e+06 -8.54861e-10 1.67468e+06 -2.88028e-10 4.65439e+06)
(1.32253e+07 -11117 -1.34073e-09 4.23892e+06 -3.05973e-12 5.08122e+06)
(1.33296e+07 -138978 -4.24605e-10 4.1351e+06 -1.77499e-11 5.22749e+06)
(1.31529e+07 -203274 -5.09449e-10 4.04869e+06 -8.92597e-11 5.02218e+06)
(1.33554e+07 -220308 -1.11615e-10 3.77328e+06 -7.92096e-11 5.09308e+06)
(1.3181e+07 -431481 5.14022e-11 3.64372e+06 -1.11901e-11 4.85726e+06)
(1.33783e+07 -269403 0 3.22905e+06 0 4.96546e+06)
(1.32351e+07 -601156 -9.17533e-10 3.03767e+06 -5.38384e-11 4.70429e+06)
(1.33914e+07 -292277 -7.25753e-10 2.5762e+06 -4.20401e-10 4.7993e+06)
(1.32953e+07 -700638 -1.98365e-11 2.32385e+06 -2.12319e-10 4.54573e+06)
(1.33678e+07 -267692 5.33064e-10 1.8866e+06 2.59312e-10 4.63584e+06)
(1.91608e+07 -2.64136e+06 7.19633e-10 -4.20213e+06 6.6478e-10 4.40792e+06)
(1.82423e+07 -2.72127e+06 -2.07859e-11 -3.66657e+06 1.05858e-10 4.65851e+06)
(1.98976e+07 -1.70709e+06 6.43181e-10 -3.76048e+06 6.28524e-10 4.79741e+06)
(1.91219e+07 -1.81868e+06 1.84743e-09 -3.15403e+06 1.33282e-09 4.88747e+06)
(2.05065e+07 -933415 1.69331e-09 -3.28566e+06 1.2217e-09 5.13689e+06)
(1.9838e+07 -1.08142e+06 0 -2.63275e+06 0 5.15845e+06)
(2.0996e+07 -297524 -5.00511e-11 -2.78996e+06 5.86926e-11 5.45286e+06)
(2.04125e+07 -512489 1.16978e-10 -2.09527e+06 1.47577e-10 5.44157e+06)
(2.13788e+07 207345 7.4548e-10 -2.28663e+06 6.72934e-10 5.74329e+06)
(2.08797e+07 -106181 1.4004e-10 -1.55391e+06 1.59129e-10 5.71241e+06)
(2.16927e+07 582918 -7.6033e-10 -1.79165e+06 -6.88625e-10 6.01123e+06)
(2.13112e+07 137849 -2.48428e-09 -1.03211e+06 -1.88465e-09 5.97361e+06)
(2.19984e+07 813332 -1.19756e-09 -1.30931e+06 -1.0139e-09 6.2718e+06)
(2.17958e+07 215905 9.38391e-10 -562407 5.62524e-10 6.26527e+06)
(2.23981e+07 872522 2.3822e-09 -859427 1.93325e-09 6.57545e+06)
(2.24898e+07 126372 4.66736e-10 -204769 3.09261e-10 6.60568e+06)
(2.31161e+07 761269 -3.85964e-10 -529428 -2.07874e-10 6.90717e+06)
(2.33125e+07 -122713 1.95564e-09 137821 1.3365e-09 6.94664e+06)
(2.38361e+07 513584 1.69322e-09 -324877 1.22366e-09 7.23709e+06)
(2.40866e+07 -246072 0 199405 0 6.95235e+06)
(1.67115e+07 -3.12815e+06 7.78152e-10 -2.74937e+06 4.74585e-10 3.95861e+06)
(1.63779e+07 -3.52796e+06 1.03646e-09 -2.5878e+06 5.49636e-10 4.44202e+06)
(1.76558e+07 -2.4781e+06 2.89093e-11 -2.55343e+06 -8.39101e-12 4.37396e+06)
(1.72668e+07 -3.05011e+06 0 -2.29941e+06 0 4.75924e+06)
(1.85321e+07 -1.92495e+06 6.27798e-10 -2.26955e+06 4.12723e-10 4.76128e+06)
(1.81323e+07 -2.54146e+06 1.12083e-09 -1.94072e+06 6.22036e-10 5.06095e+06)
(1.9334e+07 -1.43766e+06 5.39505e-10 -1.92478e+06 3.2989e-10 5.1449e+06)
(1.89531e+07 -2.07325e+06 -1.0599e-09 -1.54543e+06 -6.0292e-10 5.36482e+06)
(2.0048e+07 -1.00402e+06 -8.2708e-10 -1.54445e+06 -5.26092e-10 5.50411e+06)
(1.96891e+07 -1.66323e+06 1.06327e-09 -1.13576e+06 6.11177e-10 5.661e+06)
(2.07398e+07 -667472 5.18855e-10 -1.17195e+06 3.34161e-10 5.85079e+06)
(2.04528e+07 -1.33193e+06 5.58975e-10 -731775 3.12877e-10 5.96673e+06)
(2.14972e+07 -396050 9.62675e-10 -824812 5.57385e-10 6.19715e+06)
(2.12552e+07 -1.08258e+06 3.66484e-09 -360610 2.00954e-09 6.29655e+06)
(2.23615e+07 -188098 2.21746e-09 -533245 1.40172e-09 6.56178e+06)
(2.21356e+07 -860239 5.88769e-10 -56653.2 3.17993e-10 6.65907e+06)
(2.33241e+07 -41017.2 -3.75435e-10 -319764 -2.73861e-10 6.93823e+06)
(2.303e+07 -604401 1.33871e-09 117513 6.91711e-10 7.0077e+06)
(2.41214e+07 45447.1 2.95453e-09 -201776 1.59493e-09 7.13737e+06)
(2.37366e+07 -195270 5.68262e-10 145536 1.12644e-11 6.99723e+06)
(1.52813e+07 -3.45141e+06 4.77368e-11 -1.33772e+06 -1.25442e-11 3.94186e+06)
(1.52823e+07 -3.79266e+06 1.81357e-09 -1.25906e+06 5.90643e-10 4.3681e+06)
(1.61708e+07 -3.03986e+06 2.02864e-09 -1.28496e+06 7.73972e-10 4.29074e+06)
(1.60855e+07 -3.54424e+06 2.41316e-09 -1.15733e+06 8.16784e-10 4.65956e+06)
(1.70725e+07 -2.67114e+06 2.60656e-09 -1.17486e+06 1.07327e-09 4.61387e+06)
(1.69169e+07 -3.21886e+06 2.04429e-09 -1.00381e+06 7.1206e-10 4.93534e+06)
(1.79669e+07 -2.30962e+06 2.58043e-09 -1.0228e+06 1.13848e-09 4.94914e+06)
(1.77474e+07 -2.86012e+06 1.11824e-10 -815135 -2.9749e-11 5.21744e+06)
(1.88363e+07 -1.94722e+06 6.76214e-10 -844540 2.34732e-10 5.27589e+06)
(1.8563e+07 -2.49682e+06 5.99365e-10 -602414 2.09623e-10 5.50346e+06)
(1.96948e+07 -1.58593e+06 1.53253e-09 -654051 7.30105e-10 5.61854e+06)
(1.93833e+07 -2.13334e+06 -9.72265e-10 -389008 -4.36574e-10 5.79635e+06)
(2.05759e+07 -1.22595e+06 -1.00569e-09 -470052 -5.07292e-10 5.96235e+06)
(2.02298e+07 -1.76373e+06 -8.78355e-11 -195497 4.12892e-11 6.10344e+06)
(2.15001e+07 -872011 2.39764e-09 -315699 1.01972e-09 6.31424e+06)
(2.10946e+07 -1.35813e+06 1.65724e-09 -34969.1 6.88591e-10 6.41927e+06)
(2.24088e+07 -528415 3.19475e-09 -207126 1.31689e-09 6.64225e+06)
(2.18643e+07 -853878 3.07289e-09 78066.8 1.10029e-09 6.68416e+06)
(2.30803e+07 -216325 2.68423e-09 -153931 1.07775e-09 6.81076e+06)
(2.23836e+07 -158387 1.24154e-09 124222 1.57907e-11 6.66618e+06)
(1.45635e+07 -3.4803e+06 -1.26865e-09 -276658 -3.04969e-10 4.08924e+06)
(1.46454e+07 -3.72881e+06 -4.75067e-10 -250532 6.04589e-12 4.42195e+06)
(1.53101e+07 -3.2136e+06 -4.2576e-10 -315620 -1.0183e-10 4.35839e+06)
(1.53168e+07 -3.58875e+06 4.02433e-10 -267262 1.56495e-10 4.64855e+06)
(1.60875e+07 -2.96153e+06 5.2713e-10 -319838 1.14814e-10 4.60201e+06)
(1.60268e+07 -3.3651e+06 1.37848e-09 -256522 2.71303e-10 4.86093e+06)
(1.68861e+07 -2.69155e+06 1.01168e-09 -298731 2.47593e-10 4.85657e+06)
(1.67535e+07 -3.08397e+06 1.43213e-09 -221552 2.9718e-10 5.08327e+06)
(1.76891e+07 -2.39059e+06 -7.36429e-11 -260276 5.88407e-11 5.12015e+06)
(1.74798e+07 -2.75774e+06 -8.6125e-10 -170723 -2.8906e-10 5.3112e+06)
(1.84933e+07 -2.05213e+06 -1.58478e-09 -212158 -4.19443e-10 5.38626e+06)
(1.82056e+07 -2.38681e+06 -6.66296e-10 -112100 -3.89969e-11 5.53989e+06)
(1.93188e+07 -1.66568e+06 -2.73195e-10 -160344 -1.99288e-10 5.65882e+06)
(1.89679e+07 -1.97235e+06 1.58519e-09 -51897.3 3.59625e-10 5.78586e+06)
(2.01457e+07 -1.25586e+06 6.49882e-10 -95048.2 1.57369e-10 5.93015e+06)
(1.96911e+07 -1.48693e+06 2.58759e-10 2215.38 -7.76112e-11 6.03566e+06)
(2.08969e+07 -834276 -5.37325e-10 -63115.6 -1.56042e-10 6.16498e+06)
(2.02525e+07 -882225 -5.10058e-10 45162.9 -1.30479e-10 6.20892e+06)
(2.1401e+07 -401486 -1.42779e-09 -71206.4 -2.66115e-10 6.26962e+06)
(2.05659e+07 -98448.4 -3.43957e-10 77698.1 7.38597e-12 6.19536e+06)
(1.41687e+07 -3.28732e+06 -5.41654e-10 426399 -1.23712e-10 4.23035e+06)
(1.42576e+07 -3.44434e+06 7.22552e-10 400665 1.44893e-10 4.4697e+06)
(1.4767e+07 -3.10732e+06 3.47943e-10 330063 1.20458e-10 4.42084e+06)
(1.4789e+07 -3.35495e+06 -3.49923e-10 311554 -1.21715e-10 4.63225e+06)
(1.539e+07 -2.92449e+06 -7.60348e-10 256246 -1.84991e-10 4.58822e+06)
(1.53539e+07 -3.18794e+06 -4.03556e-10 236967 -4.49394e-11 4.77729e+06)
(1.60343e+07 -2.71305e+06 -5.90585e-10 198348 2.42078e-11 4.76364e+06)
(1.59368e+07 -2.95738e+06 -5.71348e-10 177913 5.09775e-11 4.92402e+06)
(1.66765e+07 -2.46361e+06 6.26901e-10 151589 -1.85403e-11 4.94825e+06)
(1.65129e+07 -2.66395e+06 9.53332e-10 132890 9.85332e-11 5.06806e+06)
(1.72848e+07 -2.17775e+06 2.12069e-09 115729 2.04132e-10 5.13671e+06)
(1.70141e+07 -2.28403e+06 2.05134e-09 91244.5 1.25794e-10 5.26478e+06)
(1.79801e+07 -1.88345e+06 -2.89946e-10 86848.2 -1.32854e-10 5.32241e+06)
(1.76953e+07 -1.88688e+06 6.64495e-10 57343.7 2.42502e-10 5.41136e+06)
(1.86715e+07 -1.42796e+06 -4.79535e-10 38827.8 -8.92417e-11 5.51307e+06)
(1.81578e+07 -1.4109e+06 0 35183.3 0 5.57799e+06)
(1.91595e+07 -940753 -4.86543e-10 976.215 -9.48331e-11 5.66352e+06)
(1.84966e+07 -807152 -2.81045e-10 28421.9 -1.71246e-10 5.66298e+06)
(1.94594e+07 -462999 -2.93523e-10 -33492.7 -1.83958e-10 5.71343e+06)
(1.86396e+07 -56084.8 0 49726.1 0 5.65009e+06)
(1.39303e+07 -2.9574e+06 5.015e-10 840469 9.57028e-11 4.32711e+06)
(1.40071e+07 -3.02964e+06 0 782028 0 4.48116e+06)
(1.43819e+07 -2.83382e+06 3.74056e-10 707325 1.91312e-11 4.44737e+06)
(1.43864e+07 -2.95571e+06 6.77931e-10 651648 1.18604e-10 4.58326e+06)
(1.48448e+07 -2.69396e+06 8.57169e-10 586755 2.88956e-11 4.54584e+06)
(1.47808e+07 -2.8042e+06 1.22238e-09 526995 4.0511e-11 4.67008e+06)
(1.5321e+07 -2.5216e+06 7.03817e-10 475142 1.42571e-10 4.65241e+06)
(1.51924e+07 -2.58041e+06 3.88193e-10 406445 2.51982e-11 4.77945e+06)
(1.57914e+07 -2.32208e+06 1.99109e-10 374758 -1.06812e-10 4.7855e+06)
(1.56362e+07 -2.2876e+06 -9.84611e-11 289986 -2.3867e-10 4.8619e+06)
(1.63034e+07 -2.05943e+06 -1.36721e-09 280696 -1.04644e-10 4.82981e+06)
(1.60534e+07 -2.02487e+06 -1.61453e-09 188321 -2.21955e-10 4.94044e+06)
(1.6718e+07 -1.7123e+06 -2.16537e-09 201046 -3.78736e-11 5.0153e+06)
(1.64097e+07 -1.6543e+06 -7.23716e-10 101514 3.51198e-10 5.04798e+06)
(1.71264e+07 -1.32842e+06 0 131840 0 5.10227e+06)
(1.67e+07 -1.20381e+06 -2.59837e-10 34374.9 -1.43307e-10 5.12097e+06)
(1.74347e+07 -906809 -2.63323e-10 70302.1 -1.48142e-10 5.15492e+06)
(1.68631e+07 -661419 -4.15253e-10 -351.914 -4.96178e-11 5.14644e+06)
(1.75823e+07 -466299 -7.59544e-10 16815.7 4.45533e-11 5.16038e+06)
(1.6863e+07 -14767.8 -3.22006e-10 12328.9 1.09648e-11 5.14032e+06)
(1.37633e+07 -2.53493e+06 -5.04263e-10 1.08589e+06 8.55144e-11 4.38409e+06)
(1.38226e+07 -2.52076e+06 -4.27181e-10 997011 6.21452e-12 4.49072e+06)
(1.40686e+07 -2.45202e+06 -6.34577e-10 923189 -1.01892e-10 4.4406e+06)
(1.4066e+07 -2.44959e+06 -3.5559e-10 832611 -1.59898e-11 4.53008e+06)
(1.43734e+07 -2.34569e+06 5.42776e-10 760200 -8.72702e-11 4.48141e+06)
(1.43078e+07 -2.31764e+06 8.08013e-10 680465 1.73404e-11 4.55547e+06)
(1.47112e+07 -2.21023e+06 1.027e-09 587675 1.47531e-10 4.55466e+06)
(1.46117e+07 -2.14965e+06 0 532379 0 4.61211e+06)
(1.50397e+07 -2.00306e+06 -5.85589e-10 479772 7.63738e-11 4.6049e+06)
(1.4868e+07 -1.93368e+06 -1.85991e-09 390358 -2.14056e-10 4.65414e+06)
(1.53326e+07 -1.75973e+06 -2.14514e-09 371457 -1.13054e-10 4.64382e+06)
(1.51116e+07 -1.65762e+06 -2.34912e-09 250632 -2.47154e-10 4.69025e+06)
(1.55993e+07 -1.47675e+06 -2.6788e-09 270186 -1.50538e-10 4.68576e+06)
(1.53133e+07 -1.32855e+06 -2.4869e-09 132897 5.5562e-11 4.71965e+06)
(1.58117e+07 -1.15262e+06 -2.46851e-10 178721 -1.27192e-10 4.71808e+06)
(1.54441e+07 -941981 2.30218e-10 42876.6 1.31388e-10 4.7281e+06)
(1.59332e+07 -793895 2.32825e-10 101450 1.31213e-10 4.72072e+06)
(1.54617e+07 -493274 -5.89519e-10 -9839.55 -1.77609e-10 4.70096e+06)
(1.59396e+07 -415301 4.76048e-10 41143.4 -1.88699e-10 4.69844e+06)
(1.53637e+07 14428.7 2.94916e-10 -7875.36 -1.01495e-11 4.69868e+06)
(1.36242e+07 -2.00978e+06 -3.34623e-10 1.32199e+06 1.57092e-10 4.41444e+06)
(1.36607e+07 -1.94013e+06 -3.26812e-10 1.20797e+06 1.54217e-10 4.50493e+06)
(1.38052e+07 -1.94474e+06 1.74232e-10 1.14252e+06 -8.10008e-11 4.41257e+06)
(1.37939e+07 -1.86891e+06 1.69638e-10 1.01274e+06 -8.04495e-11 4.50321e+06)
(1.39777e+07 -1.85676e+06 -3.52073e-10 966786 -2.64048e-11 4.40894e+06)
(1.39304e+07 -1.76222e+06 -3.47463e-10 828405 -3.46911e-11 4.49749e+06)
(1.4168e+07 -1.74123e+06 0 799963 0 4.42283e+06)
(1.40833e+07 -1.61424e+06 2.49794e-10 639022 1.10085e-10 4.49095e+06)
(1.43553e+07 -1.58462e+06 1.74596e-09 638564 2.40328e-11 4.41578e+06)
(1.42171e+07 -1.42752e+06 1.1112e-09 462949 -9.37019e-11 4.48099e+06)
(1.45156e+07 -1.38841e+06 7.32813e-10 484909 7.24603e-11 4.41498e+06)
(1.433e+07 -1.20071e+06 4.72514e-10 303900 2.41764e-10 4.46752e+06)
(1.46434e+07 -1.15795e+06 2.40914e-09 345478 2.13911e-10 4.41414e+06)
(1.44102e+07 -936253 1.62571e-09 165931 1.67858e-10 4.44822e+06)
(1.47205e+07 -898227 8.23503e-10 225230 2.8676e-10 4.40366e+06)
(1.4434e+07 -636773 0 56672.7 0 4.41365e+06)
(1.47193e+07 -616622 6.24712e-10 128805 -4.0229e-11 4.37023e+06)
(1.43762e+07 -308559 9.67012e-10 -11929.5 2.24743e-11 4.35795e+06)
(1.46443e+07 -326051 -3.64128e-10 60216.1 -5.2005e-11 4.3344e+06)
(1.4242e+07 35862 -3.50152e-10 -22254 -5.68952e-12 4.35669e+06)
(1.34713e+07 -1.40151e+06 -1.21136e-09 1.54941e+06 -1.49105e-10 4.45186e+06)
(1.351e+07 -1.24544e+06 -6.68718e-10 1.38471e+06 2.3512e-11 4.51523e+06)
(1.35763e+07 -1.36245e+06 -3.36611e-10 1.31722e+06 -4.74017e-11 4.40358e+06)
(1.35639e+07 -1.1834e+06 0 1.15327e+06 0 4.46772e+06)
(1.36682e+07 -1.29378e+06 -8.67221e-10 1.09736e+06 -4.13081e-11 4.3572e+06)
(1.36012e+07 -1.10061e+06 -4.19644e-10 930953 -6.09801e-11 4.41807e+06)
(1.3746e+07 -1.19421e+06 -1.46333e-09 887066 -2.01499e-10 4.31378e+06)
(1.36333e+07 -989244 -1.56648e-09 721170 -4.27391e-10 4.3663e+06)
(1.38157e+07 -1.06641e+06 -2.83986e-09 689337 -4.79072e-10 4.27165e+06)
(1.36656e+07 -852067 -1.07704e-09 526508 -1.44097e-11 4.31749e+06)
(1.38743e+07 -914858 4.22765e-10 509499 -1.31185e-10 4.23394e+06)
(1.36948e+07 -692109 2.22166e-09 351797 3.98996e-10 4.27292e+06)
(1.39122e+07 -744863 4.44677e-10 352174 2.40043e-10 4.20057e+06)
(1.37107e+07 -513266 3.4058e-10 202888 6.95935e-11 4.23031e+06)
(1.39145e+07 -563204 0 220797 0 4.16834e+06)
(1.36987e+07 -322422 -1.08844e-09 87615.3 -4.04665e-10 4.18527e+06)
(1.38685e+07 -378451 -1.92894e-09 117665 -3.1225e-10 4.13512e+06)
(1.36471e+07 -131359 -1.15247e-09 16588.2 -1.56294e-11 4.13608e+06)
(1.37749e+07 -200543 -6.74877e-10 41651.6 5.30907e-10 4.10556e+06)
(1.35343e+07 48202.8 9.88169e-11 -4432.54 1.34137e-11 4.12417e+06)
(1.33528e+07 -633204 1.24732e-09 1.69192e+06 3.30655e-10 4.46889e+06)
(1.33699e+07 -352632 9.85943e-10 1.53731e+06 3.37493e-10 4.48381e+06)
(1.34163e+07 -639608 2.14151e-09 1.36288e+06 5.63763e-10 4.41545e+06)
(1.33978e+07 -308143 9.59119e-10 1.26295e+06 2.28422e-10 4.38984e+06)
(1.34502e+07 -600444 1.22859e-09 1.05536e+06 3.97312e-10 4.36132e+06)
(1.3408e+07 -269016 0 992697 0 4.30166e+06)
(1.34681e+07 -538280 1.19215e-09 779828 2.43574e-10 4.30099e+06)
(1.34142e+07 -230310 1.00387e-09 740338 3.17337e-10 4.22198e+06)
(1.34816e+07 -462902 1.65107e-09 540388 4.92272e-10 4.24177e+06)
(1.34209e+07 -188977 -1.39598e-11 515770 -1.52676e-10 4.15566e+06)
(1.34921e+07 -377570 -1.09681e-09 340686 -2.65259e-10 4.18781e+06)
(1.34273e+07 -143513 -3.31215e-10 325829 1.91828e-11 4.10349e+06)
(1.34949e+07 -285131 1.43912e-09 185000 1.61573e-10 4.13993e+06)
(1.343e+07 -94532.5 1.66809e-09 175458 3.5527e-10 4.06358e+06)
(1.34816e+07 -191144 2.18366e-09 76977.5 6.9098e-10 4.09748e+06)
(1.34244e+07 -45642.7 6.68132e-10 68607.1 8.88738e-11 4.03159e+06)
(1.34447e+07 -105287 1.65995e-09 16855.6 2.7723e-10 4.06264e+06)
(1.34075e+07 -4133.35 1.01097e-09 8965.8 1.58254e-11 4.00569e+06)
(1.33937e+07 -39074.6 1.75609e-09 -947.403 4.04515e-10 4.04853e+06)
(1.3394e+07 6936.45 2.62039e-10 2954.01 8.37407e-11 4.0013e+06)
(2.32322e+07 277982 0 3.69486e+06 0 8.44405e+06)
(2.34078e+07 1.85551e+06 -1.17634e-09 2.99136e+06 -6.00965e-10 7.92796e+06)
(2.20012e+07 51429.2 -2.31344e-09 3.11954e+06 -5.24624e-10 7.81199e+06)
(2.21855e+07 1.98046e+06 -1.94352e-09 2.6471e+06 -7.59605e-10 7.30345e+06)
(2.08328e+07 -103621 0 2.53449e+06 0 7.33641e+06)
(2.09696e+07 2.01917e+06 4.59598e-10 2.28466e+06 2.83565e-10 6.75528e+06)
(1.96043e+07 -202618 2.12777e-09 1.97457e+06 5.29302e-10 6.86087e+06)
(1.96958e+07 1.9989e+06 1.79109e-09 1.90595e+06 7.22152e-10 6.20839e+06)
(1.82977e+07 -275198 -1.02517e-09 1.45704e+06 -1.54402e-10 6.35382e+06)
(1.83616e+07 1.93618e+06 -1.70053e-09 1.52054e+06 -6.98884e-10 5.65629e+06)
(1.69187e+07 -345025 1.90162e-09 993318 2.9426e-10 5.81845e+06)
(1.69685e+07 1.84052e+06 3.04847e-09 1.14187e+06 1.34507e-09 5.10494e+06)
(1.54691e+07 -422689 2.02999e-11 594126 2.17903e-10 5.26104e+06)
(1.55174e+07 1.70988e+06 -4.55568e-10 782075 -1.27446e-10 4.5604e+06)
(1.39561e+07 -502062 1.56681e-09 275811 2.82973e-10 4.68565e+06)
(1.40325e+07 1.51383e+06 2.96876e-09 450118 1.52356e-09 4.02797e+06)