/*--------------------------------*- C++ -*----------------------------------*\
| =========                 |                                                 |
| \\      /  F ield         | OpenFOAM: The Open Source CFD Toolbox           |
|  \\    /   O peration     | Version:  v2012                                 |
|   \\  /    A nd           | Website:  www.openfoam.com                      |
|    \\/     M anipulation  |                                                 |
\*---------------------------------------------------------------------------*/
FoamFile
{
    version     2.0;
    format      ascii;
    class       volScalarField;
    location    "1";
    object      DEpsilonPEq;
}
// * * * * * * * * * * * * * * * * * * * * * * * * * * * * * * * * * * * * * //

dimensions      [0 0 0 0 0 0 0];


internalField   nonuniform List<scalar> 
5880
(
9.23928e-05
5.8563e-05
5.8563e-05
5.8563e-05
7.27592e-05
5.67264e-05
4.73759e-05
2.9775e-05
6.65161e-05
2.9237e-05
3.763e-05
3.91179e-05
4.25567e-05
2.1582e-05
2.1582e-05
2.41011e-05
2.90413e-05
2.90413e-05
7.18011e-06
2.4448e-06
2.37777e-05
3.51796e-06
5.88009e-06
3.98366e-06
5.60145e-06
0
0
0
1.1812e-06
0
5.68424e-07
0
0
0
6.46101e-06
5.06034e-06
3.15558e-06
5.82392e-08
5.82392e-08
5.82392e-08
5.63604e-06
5.82392e-08
4.17547e-05
2.45996e-05
2.48709e-05
2.75227e-05
3.32181e-05
3.50748e-05
4.29021e-05
2.36326e-05
2.36326e-05
2.73114e-05
3.26459e-05
3.26459e-05
0.000109448
0.000113142
0.000110462
0.000124249
0.000104188
0.000100533
7.08145e-05
8.23848e-05
8.01595e-05
7.26675e-05
7.29984e-05
7.77661e-05
5.71628e-05
5.80899e-05
4.91635e-05
4.6373e-05
4.5067e-05
5.76283e-05
5.17348e-05
4.58385e-05
3.09154e-05
4.23921e-05
3.38118e-05
3.82001e-05
1.18883e-05
1.01746e-05
3.31616e-05
1.04978e-05
5.6257e-06
7.87238e-06
1.50222e-05
1.40832e-05
8.33653e-06
1.321e-05
3.22606e-06
1.14308e-05
7.29648e-06
9.34868e-06
6.7345e-06
8.33075e-06
3.10184e-06
5.20394e-06
1.28262e-05
1.86702e-05
3.43996e-05
1.72871e-05
1.69037e-05
1.82629e-05
6.63459e-05
7.13694e-05
5.23552e-05
7.21935e-05
5.0953e-05
4.87572e-05
7.82733e-05
8.22091e-05
8.03843e-05
8.34441e-05
5.92013e-05
8.83041e-05
0.000100266
9.68182e-05
0.000102502
9.66667e-05
0.000113209
9.90671e-05
7.52521e-05
0.000106778
7.473e-05
0.00011319
6.14989e-05
6.30709e-05
5.74718e-05
5.36872e-05
5.47068e-05
5.23689e-05
4.05956e-05
8.64157e-05
5.15885e-05
5.12178e-05
3.34629e-05
4.84449e-05
3.4426e-05
3.6502e-05
1.23822e-05
1.23187e-05
3.29263e-05
1.51157e-05
1.19824e-05
1.3215e-05
1.94551e-05
2.1791e-05
1.7019e-05
2.03769e-05
1.82198e-05
1.98363e-05
1.7204e-05
2.36949e-05
1.47972e-05
2.34227e-05
1.47751e-05
1.69898e-05
2.35054e-05
3.26599e-05
4.70178e-05
3.20567e-05
3.27424e-05
5.22565e-05
5.87715e-05
6.73706e-05
4.36769e-05
6.74664e-05
6.98229e-05
5.07725e-05
7.22829e-05
7.83868e-05
7.81513e-05
7.75123e-05
8.02152e-05
7.70714e-05
8.45121e-05
8.84331e-05
8.81175e-05
8.80995e-05
9.37442e-05
9.10793e-05
7.49837e-05
7.39942e-05
7.33328e-05
7.23719e-05
0.000106382
7.48136e-05
4.791e-05
5.05579e-05
5.21844e-05
4.8318e-05
4.18385e-05
3.91137e-05
4.19023e-05
4.8675e-05
3.15113e-05
4.72786e-05
3.97205e-05
4.19452e-05
9.83631e-06
1.14948e-05
2.27138e-05
1.00157e-05
1.71947e-05
3.05409e-05
1.88078e-05
2.27306e-05
1.98032e-05
2.16765e-05
2.62789e-05
2.18311e-05
1.76245e-05
2.28775e-05
1.40487e-05
2.18419e-05
2.5109e-05
2.10916e-05
2.29195e-05
2.96016e-05
4.35943e-05
2.87725e-05
3.54809e-05
4.94914e-05
4.46341e-05
5.496e-05
3.30397e-05
5.45943e-05
6.16956e-05
4.11779e-05
5.7564e-05
6.73203e-05
6.55344e-05
6.48382e-05
7.04645e-05
6.92016e-05
6.7401e-05
7.28718e-05
7.28847e-05
7.17495e-05
7.55981e-05
7.57077e-05
6.41006e-05
6.74842e-05
6.22122e-05
6.50929e-05
6.60903e-05
6.70845e-05
3.67685e-05
3.88717e-05
4.14534e-05
3.67908e-05
4.5007e-05
4.29815e-05
3.14217e-05
3.77016e-05
2.66207e-05
3.61922e-05
4.66361e-05
2.80723e-05
7.42089e-06
9.44802e-06
1.45814e-05
7.86054e-06
1.47815e-05
2.26506e-05
1.65059e-05
2.05575e-05
1.94314e-05
1.93282e-05
2.53515e-05
2.01861e-05
1.45761e-05
1.90277e-05
1.12661e-05
1.77817e-05
2.27899e-05
1.81356e-05
1.7786e-05
2.33937e-05
3.35341e-05
2.25191e-05
2.97411e-05
3.98437e-05
3.06838e-05
3.97308e-05
2.23789e-05
3.88482e-05
4.63826e-05
2.86122e-05
4.25824e-05
5.22749e-05
4.96379e-05
4.91899e-05
5.49476e-05
5.43749e-05
5.03986e-05
5.60065e-05
5.64277e-05
5.42471e-05
5.77094e-05
5.79928e-05
5.10914e-05
5.26935e-05
4.89384e-05
5.04472e-05
5.94853e-05
5.16613e-05
2.63486e-05
2.80807e-05
3.11645e-05
2.59044e-05
3.21257e-05
3.10204e-05
2.22963e-05
2.78971e-05
2.1437e-05
2.62163e-05
3.4996e-05
2.1085e-05
6.07446e-06
7.54531e-06
8.76852e-06
5.99341e-06
1.20067e-05
1.62231e-05
1.49451e-05
1.78639e-05
1.82584e-05
1.66785e-05
2.20603e-05
1.68762e-05
1.25481e-05
1.54548e-05
9.97029e-06
1.39329e-05
1.82942e-05
1.53485e-05
1.33464e-05
1.72771e-05
2.42179e-05
1.6136e-05
2.20594e-05
2.84391e-05
1.87216e-05
2.53443e-05
1.28168e-05
2.36576e-05
3.07382e-05
1.73503e-05
2.95394e-05
3.77414e-05
3.46348e-05
3.47043e-05
3.93049e-05
3.94217e-05
3.55818e-05
4.0559e-05
4.13358e-05
3.82994e-05
4.04225e-05
4.15639e-05
3.88756e-05
3.94911e-05
3.6506e-05
3.72194e-05
4.26341e-05
3.79672e-05
1.73814e-05
1.85262e-05
2.19406e-05
1.63213e-05
2.08254e-05
2.02676e-05
1.54287e-05
1.98486e-05
1.7195e-05
1.83396e-05
2.52229e-05
1.52686e-05
6.17398e-06
6.74254e-06
5.93878e-06
5.43783e-06
1.05752e-05
1.2407e-05
1.46656e-05
1.62746e-05
1.78122e-05
1.52892e-05
1.98582e-05
1.52052e-05
1.19773e-05
1.33669e-05
9.94108e-06
1.16686e-05
1.53247e-05
1.38093e-05
1.05651e-05
1.29446e-05
1.77487e-05
1.14809e-05
1.61952e-05
1.85445e-05
1.04078e-05
1.44193e-05
5.97672e-06
1.17994e-05
1.7476e-05
9.18827e-06
1.96634e-05
2.60985e-05
2.28092e-05
2.35713e-05
2.58304e-05
2.6782e-05
2.36804e-05
2.71616e-05
2.86731e-05
2.47529e-05
2.94088e-05
2.70005e-05
2.76611e-05
2.74792e-05
2.51669e-05
2.52309e-05
2.90374e-05
2.55784e-05
1.0296e-05
1.0328e-05
1.40228e-05
8.15774e-06
1.18886e-05
1.18606e-05
1.12682e-05
1.39336e-05
1.42916e-05
1.27257e-05
1.85947e-05
1.16977e-05
6.98848e-06
7.02129e-06
5.67993e-06
6.08999e-06
1.00498e-05
1.02082e-05
1.50045e-05
1.57254e-05
1.78637e-05
1.50269e-05
1.86216e-05
1.4808e-05
1.2342e-05
1.3338e-05
1.11122e-05
1.17484e-05
1.41793e-05
1.37387e-05
9.28679e-06
1.14734e-05
1.49413e-05
9.91647e-06
1.28456e-05
1.24725e-05
6.35826e-06
9.17152e-06
2.91855e-06
6.12307e-06
9.10275e-06
6.01807e-06
1.27468e-05
1.82511e-05
1.50426e-05
1.67546e-05
1.57258e-05
1.77941e-05
1.5066e-05
1.547e-05
1.90738e-05
1.34303e-05
1.35783e-05
1.46638e-05
1.80633e-05
1.62602e-05
1.5984e-05
1.42008e-05
1.72008e-05
1.41515e-05
4.39088e-06
3.93224e-06
7.18144e-06
1.80239e-06
4.4565e-06
4.91553e-06
8.66384e-06
9.86753e-06
1.18756e-05
8.98726e-06
1.38018e-05
9.81834e-06
6.21761e-06
6.35563e-06
5.23187e-06
5.95816e-06
8.96497e-06
7.92418e-06
1.37787e-05
1.44909e-05
1.63719e-05
1.4273e-05
1.69982e-05
1.43935e-05
1.28099e-05
1.21885e-05
1.05266e-05
1.15482e-05
1.28875e-05
1.28561e-05
9.33208e-06
9.48851e-06
1.19474e-05
8.93875e-06
1.02165e-05
9.21277e-06
5.75196e-06
7.40666e-06
4.70378e-06
5.97898e-06
7.37297e-06
7.18378e-06
7.71435e-06
1.2396e-05
8.59411e-06
1.22299e-05
1.01701e-05
1.29422e-05
1.07013e-05
1.17489e-05
1.3388e-05
1.09608e-05
1.12698e-05
1.03367e-05
1.33074e-05
7.72165e-06
1.16624e-05
6.71043e-06
2.91512e-06
7.20669e-06
4.14285e-06
5.00343e-07
2.88954e-06
0
0
0
1.16419e-05
9.06868e-06
1.04168e-05
8.93847e-06
1.10692e-05
1.09094e-05
9.13924e-06
7.46216e-06
6.56034e-06
6.85192e-06
1.10153e-05
9.40077e-06
1.82336e-05
1.48453e-05
1.76279e-05
1.4687e-05
1.87719e-05
1.60564e-05
1.33448e-05
1.14502e-05
1.11602e-05
1.06603e-05
1.51996e-05
1.36739e-05
1.0762e-05
9.09212e-06
1.15531e-05
8.27693e-06
1.1964e-05
8.93825e-06
9.77579e-06
8.73234e-06
8.84364e-06
7.88624e-06
1.10849e-05
1.03285e-05
7.17328e-06
1.00158e-05
7.93599e-06
1.01721e-05
9.19968e-06
8.8875e-06
4.81316e-06
8.10903e-06
7.84719e-06
8.62306e-06
5.26626e-06
7.3183e-06
3.73205e-06
3.15092e-06
8.27336e-07
1.63463e-06
0
0
0
0
0
0
0
0
4.15394e-06
5.62125e-06
4.81563e-06
5.44389e-06
7.91552e-06
3.75304e-06
3.0442e-06
5.71645e-06
4.93702e-06
5.75296e-06
8.25101e-06
8.95262e-06
1.20319e-05
1.45349e-05
1.38873e-05
1.47611e-05
1.60019e-05
1.3346e-05
1.22941e-05
1.56195e-05
1.3758e-05
1.58874e-05
1.72932e-05
1.89478e-05
1.10665e-05
1.41931e-05
1.39149e-05
1.44944e-05
1.48336e-05
1.45724e-05
1.10391e-05
1.57393e-05
1.31642e-05
1.6118e-05
1.66508e-05
1.67828e-05
6.31029e-06
1.3575e-05
1.05476e-05
1.38919e-05
1.00595e-05
1.33303e-05
8.54243e-06
1.32712e-05
1.14419e-05
1.3439e-05
1.12397e-05
1.00755e-05
2.49215e-06
0
5.53735e-08
0
1.18541e-06
0
0
0
0
0
0
0
5.47787e-06
7.09425e-06
5.23094e-06
7.108e-06
9.53031e-06
6.41759e-06
4.65106e-06
5.17319e-06
5.29306e-06
5.07812e-06
8.92316e-06
1.06921e-05
1.45743e-05
1.49734e-05
1.36834e-05
1.4962e-05
1.71979e-05
1.45842e-05
1.41776e-05
1.48439e-05
1.57311e-05
1.51201e-05
1.6015e-05
1.68735e-05
1.45435e-05
1.51762e-05
1.32321e-05
1.54494e-05
1.51404e-05
1.49931e-05
1.43986e-05
1.51916e-05
1.65388e-05
1.52171e-05
1.73205e-05
1.80609e-05
1.0394e-05
1.31109e-05
1.06945e-05
1.32523e-05
1.13713e-05
1.42884e-05
1.04822e-05
1.37791e-05
1.35151e-05
1.33808e-05
1.19769e-05
9.90666e-06
0
0
0
0
0
0
0
0
0
0
0
0
4.81016e-06
4.79937e-06
4.15047e-06
4.63378e-06
8.42611e-06
3.52253e-06
4.44667e-06
4.23394e-06
4.86045e-06
4.0565e-06
7.11992e-06
6.50258e-06
1.43124e-05
1.42603e-05
1.28526e-05
1.44971e-05
1.69746e-05
1.64282e-05
1.48257e-05
1.51288e-05
1.66342e-05
1.52196e-05
2.00265e-05
1.83316e-05
1.64504e-05
1.6618e-05
1.45897e-05
1.66768e-05
2.02345e-05
1.77156e-05
1.67039e-05
1.66214e-05
1.84546e-05
1.66489e-05
1.99988e-05
1.9144e-05
1.2969e-05
1.50231e-05
1.23522e-05
1.5056e-05
1.5214e-05
1.76368e-05
1.33956e-05
1.86148e-05
1.73726e-05
1.81725e-05
1.52016e-05
1.42042e-05
0
0
0
0
0
0
0
0
0
0
0
0
3.84507e-06
4.27924e-06
3.71671e-06
4.15035e-06
8.14043e-06
5.62258e-06
3.94858e-06
4.65964e-06
4.5083e-06
4.58232e-06
5.84952e-06
5.715e-06
1.39743e-05
1.47584e-05
1.30576e-05
1.47495e-05
1.67251e-05
1.35285e-05
1.38626e-05
1.48775e-05
1.57062e-05
1.49052e-05
1.55658e-05
1.68165e-05
1.68586e-05
1.74913e-05
1.58376e-05
1.75112e-05
1.73105e-05
1.50657e-05
1.70086e-05
1.85676e-05
1.95694e-05
1.85935e-05
1.81198e-05
2.07295e-05
1.43875e-05
1.87364e-05
1.49117e-05
1.86588e-05
1.40971e-05
1.72219e-05
1.56323e-05
2.14134e-05
1.99438e-05
2.1109e-05
1.89495e-05
1.87061e-05
0
0
0
0
0
0
0
0
0
0
0
0
2.70414e-06
3.01279e-06
2.28104e-06
2.87491e-06
5.39143e-06
4.40505e-06
2.70344e-06
3.17696e-06
3.31758e-06
3.13327e-06
6.10569e-06
4.28745e-06
1.26486e-05
1.34376e-05
1.1593e-05
1.3457e-05
1.63338e-05
1.47086e-05
1.24908e-05
1.37433e-05
1.45609e-05
1.37562e-05
1.6341e-05
1.50209e-05
1.67108e-05
1.76651e-05
1.52412e-05
1.76923e-05
1.96232e-05
1.77453e-05
1.72706e-05
1.91335e-05
2.05366e-05
1.91734e-05
1.99045e-05
1.99713e-05
1.62351e-05
2.08273e-05
1.66563e-05
2.0725e-05
1.85076e-05
2.06727e-05
1.7358e-05
2.33538e-05
2.2084e-05
2.31586e-05
2.12685e-05
2.11559e-05
0
0
0
0
0
0
0
0
0
0
0
0
1.02766e-06
1.3008e-06
5.89169e-07
1.16829e-06
3.16674e-06
2.14841e-06
1.70427e-06
2.00236e-06
2.29074e-06
1.89578e-06
3.66679e-06
2.49415e-06
1.08557e-05
1.18982e-05
9.78217e-06
1.18809e-05
1.37265e-05
1.26043e-05
1.09698e-05
1.23459e-05
1.30648e-05
1.23376e-05
1.40063e-05
1.3072e-05
1.61245e-05
1.74118e-05
1.43236e-05
1.74417e-05
1.84718e-05
1.79196e-05
1.67189e-05
1.87833e-05
2.04212e-05
1.88118e-05
1.96169e-05
1.9178e-05
1.73153e-05
2.21122e-05
1.75153e-05
2.20326e-05
2.00087e-05
2.20069e-05
1.85323e-05
2.43462e-05
2.37677e-05
2.42977e-05
2.29286e-05
2.27517e-05
0
0
0
0
0
0
0
0
0
0
0
0
9.45081e-08
2.30515e-08
0
0
1.29983e-06
9.86386e-07
1.1395e-06
1.20188e-06
1.87207e-06
1.06032e-06
2.5681e-06
1.43853e-06
8.59359e-06
9.86636e-06
7.69535e-06
9.83338e-06
1.14186e-05
1.07782e-05
9.23757e-06
1.05513e-05
1.10273e-05
1.05042e-05
1.22334e-05
1.09576e-05
1.46603e-05
1.63256e-05
1.28107e-05
1.63487e-05
1.74898e-05
1.73284e-05
1.57196e-05
1.77429e-05
1.92832e-05
1.77386e-05
1.88507e-05
1.77851e-05
1.76606e-05
2.24703e-05
1.7546e-05
2.24484e-05
2.09741e-05
2.26559e-05
1.92934e-05
2.46017e-05
2.49276e-05
2.46909e-05
2.42046e-05
2.37328e-05
0
0
0
0
0
0
0
0
0
0
0
0
1.16303e-07
0
0
0
7.39638e-07
6.97999e-07
1.23764e-06
8.35514e-07
2.07446e-06
6.47717e-07
2.11774e-06
9.76384e-07
6.35746e-06
7.46528e-06
5.56967e-06
7.41077e-06
8.98042e-06
8.60063e-06
8.07686e-06
8.98772e-06
9.36205e-06
8.87909e-06
1.08264e-05
9.20685e-06
1.27158e-05
1.45911e-05
1.11564e-05
1.45955e-05
1.59965e-05
1.60816e-05
1.49041e-05
1.64572e-05
1.75389e-05
1.63986e-05
1.80674e-05
1.63185e-05
1.7422e-05
2.19674e-05
1.69424e-05
2.20184e-05
2.14866e-05
2.26446e-05
1.97263e-05
2.45229e-05
2.54518e-05
2.46552e-05
2.54584e-05
2.43585e-05
0
0
0
0
0
0
0
0
0
0
0
0
5.55122e-07
0
0
0
4.73576e-07
4.46438e-07
2.44853e-06
1.61751e-06
3.77471e-06
1.37487e-06
3.05952e-06
1.70276e-06
4.9721e-06
5.42684e-06
4.02552e-06
5.33725e-06
7.13993e-06
6.90759e-06
7.99445e-06
8.19071e-06
8.85705e-06
7.97587e-06
9.89828e-06
7.88475e-06
1.0615e-05
1.23341e-05
9.69631e-06
1.23006e-05
1.39482e-05
1.40728e-05
1.48108e-05
1.52659e-05
1.56663e-05
1.51232e-05
1.71676e-05
1.49024e-05
1.63806e-05
2.05329e-05
1.55885e-05
2.06509e-05
2.1147e-05
2.15309e-05
2.02487e-05
2.36381e-05
2.52656e-05
2.36082e-05
2.61392e-05
2.43461e-05
0
0
0
0
0
0
2.42892e-06
1.20141e-06
1.00119e-06
3.92339e-07
1.55162e-06
1.58741e-06
2.59228e-06
1.13137e-06
0
9.44453e-07
2.06018e-06
1.92448e-06
5.43581e-06
3.78894e-06
6.39046e-06
3.38308e-06
4.45986e-06
3.46375e-06
5.59598e-06
4.67831e-06
3.72583e-06
4.43739e-06
5.84765e-06
6.01715e-06
9.75713e-06
9.14706e-06
1.0769e-05
8.71705e-06
1.04015e-05
8.56048e-06
9.78207e-06
1.02291e-05
9.1762e-06
1.00389e-05
1.18182e-05
1.19511e-05
1.74907e-05
1.66499e-05
1.69011e-05
1.6369e-05
1.84407e-05
1.60385e-05
1.5803e-05
1.87062e-05
1.46858e-05
1.88267e-05
2.04715e-05
1.98189e-05
2.14951e-05
2.44266e-05
2.49994e-05
2.39637e-05
3.059e-05
2.56608e-05
2.70765e-06
1.78751e-06
3.27897e-06
9.84133e-07
1.84208e-06
9.67189e-07
5.57111e-06
4.64744e-06
4.23181e-06
3.48054e-06
3.01723e-06
3.83315e-06
5.08407e-06
3.88938e-06
2.97204e-06
3.51802e-06
3.39443e-06
3.35324e-06
8.62589e-06
7.61298e-06
9.57596e-06
7.07438e-06
6.31136e-06
6.50845e-06
7.21952e-06
6.51231e-06
5.55624e-06
6.09727e-06
6.26695e-06
6.42048e-06
1.35481e-05
1.34615e-05
1.48672e-05
1.29486e-05
1.39963e-05
1.36485e-05
1.17646e-05
1.11166e-05
1.16769e-05
1.07738e-05
1.20937e-05
1.22852e-05
2.39631e-05
2.1106e-05
2.11212e-05
2.0797e-05
2.22304e-05
2.07109e-05
1.61124e-05
1.7688e-05
1.46805e-05
1.76019e-05
2.20823e-05
1.86587e-05
2.52453e-05
2.53237e-05
2.74058e-05
2.44874e-05
3.78032e-05
2.84248e-05
2.73293e-06
1.18109e-06
2.79035e-06
0
2.62782e-07
0
5.15351e-06
3.85258e-06
3.4988e-06
2.18503e-06
2.14955e-06
3.6105e-06
4.59351e-06
3.43627e-06
5.14881e-06
1.99087e-06
2.45983e-06
1.93231e-06
1.06256e-05
9.40579e-06
8.89546e-06
7.99074e-06
8.70549e-06
9.48502e-06
8.07823e-06
7.31108e-06
9.27151e-06
6.1159e-06
7.3854e-06
6.87758e-06
1.76228e-05
1.63073e-05
1.61008e-05
1.50362e-05
1.45859e-05
1.63488e-05
1.55193e-05
1.24208e-05
1.45418e-05
1.14783e-05
1.18127e-05
1.19372e-05
2.38598e-05
2.50799e-05
2.38011e-05
2.39728e-05
2.50466e-05
2.47623e-05
1.50472e-05
1.54343e-05
1.40473e-05
1.47164e-05
2.3209e-05
2.79644e-05
2.04538e-05
2.46792e-05
2.04616e-05
2.3223e-05
4.7373e-05
2.10758e-05
4.30126e-05
4.11729e-05
4.54287e-05
4.11348e-05
6.36578e-05
6.3387e-05
3.2493e-05
3.38606e-05
3.43435e-05
3.37084e-05
3.57053e-05
2.43873e-05
5.67588e-05
5.22538e-05
5.71338e-05
5.10887e-05
5.62759e-05
5.52448e-05
3.61483e-05
3.65788e-05
3.66519e-05
3.46016e-05
4.17596e-05
3.83231e-05
6.49159e-05
5.7898e-05
6.36996e-05
5.66013e-05
5.96743e-05
6.11643e-05
4.24468e-05
4.30661e-05
4.51855e-05
4.16147e-05
4.24524e-05
3.75075e-05
7.31995e-05
6.07435e-05
7.05939e-05
5.92399e-05
5.88171e-05
6.58199e-05
4.28232e-05
4.49326e-05
4.88443e-05
4.33211e-05
4.53811e-05
3.78807e-05
6.53955e-05
5.94284e-05
5.95852e-05
5.62449e-05
7.91245e-05
6.19787e-05
3.97995e-05
2.67237e-05
3.31143e-05
2.17592e-05
3.8753e-05
2.5775e-05
3.37298e-05
3.50433e-05
3.51244e-05
3.49126e-05
3.66768e-05
4.16224e-05
2.63075e-05
2.94179e-05
3.06748e-05
2.99458e-05
3.23179e-05
3.17193e-05
3.6353e-05
3.90724e-05
3.95535e-05
3.84439e-05
4.34355e-05
3.60881e-05
3.25617e-05
3.68313e-05
3.44002e-05
3.56826e-05
3.76439e-05
3.3468e-05
4.17233e-05
4.82202e-05
4.66935e-05
4.66975e-05
4.42835e-05
4.85297e-05
3.766e-05
4.34091e-05
3.89542e-05
4.23578e-05
4.06282e-05
3.87205e-05
4.09194e-05
5.25708e-05
4.7705e-05
5.13048e-05
4.75628e-05
5.33819e-05
3.67304e-05
4.25213e-05
3.65601e-05
4.13616e-05
4.28111e-05
4.04944e-05
3.80352e-05
3.31402e-05
3.97015e-05
2.99215e-05
3.77979e-05
3.23839e-05
3.40122e-05
2.55339e-05
2.85918e-05
2.51226e-05
3.3137e-05
3.05724e-05
2.22924e-05
2.52317e-05
2.5673e-05
2.51007e-05
2.75728e-05
2.85173e-05
2.27772e-05
2.95185e-05
2.76368e-05
2.93476e-05
2.98717e-05
2.9426e-05
2.77427e-05
3.13534e-05
2.96578e-05
3.03153e-05
3.09199e-05
3.38689e-05
3.12356e-05
3.3416e-05
3.1707e-05
3.28638e-05
3.38041e-05
3.52347e-05
3.24344e-05
3.75495e-05
3.65043e-05
3.79322e-05
3.31378e-05
3.37461e-05
3.48177e-05
3.89977e-05
3.55475e-05
3.86298e-05
3.39327e-05
3.7884e-05
2.93644e-05
3.58604e-05
3.64384e-05
3.51266e-05
3.55207e-05
3.71697e-05
3.18533e-05
3.5311e-05
2.88271e-05
3.48394e-05
3.69306e-05
3.47065e-05
2.70617e-05
2.22451e-05
2.86656e-05
1.99789e-05
2.89075e-05
2.43522e-05
2.84289e-05
2.1153e-05
2.29998e-05
2.15352e-05
2.96203e-05
3.05779e-05
1.86806e-05
2.53455e-05
2.51775e-05
2.51454e-05
2.56741e-05
2.50996e-05
2.40288e-05
3.27539e-05
2.80927e-05
3.27702e-05
3.06256e-05
3.12524e-05
2.7531e-05
2.97906e-05
2.91744e-05
2.95125e-05
2.99982e-05
2.96669e-05
3.18406e-05
3.51663e-05
3.34798e-05
3.5173e-05
3.82276e-05
3.39792e-05
3.05049e-05
3.48037e-05
3.41711e-05
3.43115e-05
3.47623e-05
3.91999e-05
3.4096e-05
3.81414e-05
3.45455e-05
3.82764e-05
4.03468e-05
3.52626e-05
2.55484e-05
2.97735e-05
3.33327e-05
2.95924e-05
3.29829e-05
3.35483e-05
2.95342e-05
3.21568e-05
2.47887e-05
3.21942e-05
3.4419e-05
3.05007e-05
2.20042e-05
1.71398e-05
2.46146e-05
1.61965e-05
2.62552e-05
1.91559e-05
2.53476e-05
1.84637e-05
1.82703e-05
1.91289e-05
2.77014e-05
2.83016e-05
1.80532e-05
2.63736e-05
2.63205e-05
2.62527e-05
2.45112e-05
2.40302e-05
2.39264e-05
3.25594e-05
2.57987e-05
3.25834e-05
2.92676e-05
3.11421e-05
2.667e-05
2.85844e-05
2.68149e-05
2.84917e-05
2.7395e-05
2.91156e-05
3.14219e-05
3.39663e-05
3.37405e-05
3.4164e-05
3.2954e-05
3.26487e-05
2.91695e-05
3.11666e-05
3.0673e-05
3.09552e-05
2.90348e-05
3.2722e-05
3.31802e-05
3.54458e-05
3.39066e-05
3.56064e-05
3.47282e-05
3.32406e-05
2.3794e-05
2.43024e-05
2.98323e-05
2.41326e-05
2.49287e-05
2.73878e-05
2.77493e-05
2.81595e-05
2.22843e-05
2.84904e-05
2.94467e-05
2.62168e-05
1.89691e-05
1.2713e-05
2.04772e-05
1.26511e-05
2.15574e-05
1.52197e-05
2.29395e-05
1.54548e-05
1.48267e-05
1.63021e-05
2.49886e-05
2.54182e-05
1.85553e-05
2.70653e-05
2.72086e-05
2.69491e-05
2.34723e-05
2.28276e-05
2.41106e-05
3.17055e-05
2.44798e-05
3.1703e-05
2.73865e-05
3.06671e-05
2.65802e-05
2.8329e-05
2.59898e-05
2.83102e-05
2.70333e-05
2.89229e-05
3.0632e-05
3.2798e-05
3.34576e-05
3.27547e-05
3.25354e-05
3.22264e-05
2.83917e-05
2.92528e-05
2.84609e-05
2.88828e-05
2.82097e-05
3.10532e-05
3.23106e-05
3.34809e-05
3.33377e-05
3.34792e-05
3.40102e-05
3.20476e-05
2.3158e-05
2.14597e-05
2.77071e-05
2.11565e-05
2.23564e-05
2.52255e-05
2.66858e-05
2.58616e-05
2.1271e-05
2.62156e-05
2.67411e-05
2.27401e-05
1.7245e-05
1.01641e-05
1.8073e-05
1.06006e-05
1.86052e-05
1.2461e-05
2.14469e-05
1.33798e-05
1.28254e-05
1.43169e-05
2.27431e-05
2.22356e-05
1.88398e-05
2.65093e-05
2.70049e-05
2.6342e-05
2.21006e-05
2.13663e-05
2.28471e-05
2.90777e-05
2.23382e-05
2.9066e-05
2.49519e-05
2.89513e-05
2.51921e-05
2.68706e-05
2.42102e-05
2.67782e-05
2.63064e-05
2.70748e-05
2.78492e-05
2.9558e-05
3.08621e-05
2.91836e-05
2.98478e-05
2.97956e-05
2.63425e-05
2.65062e-05
2.54374e-05
2.59328e-05
2.60244e-05
2.77385e-05
2.95586e-05
2.97192e-05
3.06312e-05
2.94575e-05
3.02485e-05
2.85719e-05
2.14187e-05
1.84275e-05
2.44007e-05
1.78756e-05
1.83614e-05
2.24053e-05
2.4325e-05
2.24178e-05
1.92693e-05
2.2696e-05
2.26619e-05
1.80358e-05
1.4828e-05
7.2024e-06
1.47725e-05
7.95395e-06
1.39862e-05
9.22626e-06
1.9741e-05
1.19946e-05
1.12595e-05
1.29065e-05
2.00365e-05
1.91124e-05
1.83768e-05
2.49021e-05
2.55289e-05
2.46826e-05
2.03742e-05
1.95873e-05
1.98485e-05
2.45007e-05
1.87477e-05
2.44906e-05
2.0148e-05
2.431e-05
2.22071e-05
2.37076e-05
2.11245e-05
2.3472e-05
2.33306e-05
2.2845e-05
2.24368e-05
2.38461e-05
2.55682e-05
2.31097e-05
2.40933e-05
2.49068e-05
2.2316e-05
2.21018e-05
2.11667e-05
2.13083e-05
2.15415e-05
2.25785e-05
2.42005e-05
2.37131e-05
2.50849e-05
2.31873e-05
2.4171e-05
2.29096e-05
1.78179e-05
1.44737e-05
1.9785e-05
1.36666e-05
1.32513e-05
1.84362e-05
2.06432e-05
1.79166e-05
1.57845e-05
1.80754e-05
1.77228e-05
1.26873e-05
1.23059e-05
5.39278e-06
1.15367e-05
6.32542e-06
9.79202e-06
7.16348e-06
1.98156e-05
1.24704e-05
1.23265e-05
1.3216e-05
1.69456e-05
1.76419e-05
1.70093e-05
2.23821e-05
2.27667e-05
2.21015e-05
1.77398e-05
1.70286e-05
1.4299e-05
1.62817e-05
1.18355e-05
1.62939e-05
1.15096e-05
1.5722e-05
1.6946e-05
1.75594e-05
1.52631e-05
1.71431e-05
1.72022e-05
1.54111e-05
1.36344e-05
1.49603e-05
1.77302e-05
1.38708e-05
1.52934e-05
1.71369e-05
1.54692e-05
1.50552e-05
1.47927e-05
1.40552e-05
1.44888e-05
1.4805e-05
1.6383e-05
1.54153e-05
1.67483e-05
1.46321e-05
1.58422e-05
1.50481e-05
1.28181e-05
9.67178e-06
1.45295e-05
8.63118e-06
7.35344e-06
1.31913e-05
1.71457e-05
1.41046e-05
1.24484e-05
1.4061e-05
1.31067e-05
8.40446e-06
1.26037e-05
8.09966e-06
1.17235e-05
8.86099e-06
8.95509e-06
8.94237e-06
2.18314e-05
1.7121e-05
1.57851e-05
1.74122e-05
1.81449e-05
2.02207e-05
1.47615e-05
1.86098e-05
1.8672e-05
1.81866e-05
1.32764e-05
1.35343e-05
2.38236e-06
2.50991e-06
0
2.74611e-06
7.66045e-07
4.36586e-06
6.48635e-06
6.98249e-06
4.92954e-06
6.25814e-06
8.66675e-06
5.24894e-06
1.90551e-06
2.06508e-06
5.60681e-06
5.81201e-07
4.54348e-06
5.57753e-06
5.3685e-06
4.35461e-06
6.12098e-06
3.13069e-06
5.8891e-06
5.46163e-06
8.98936e-06
7.10267e-06
7.89794e-06
5.72004e-06
7.18091e-06
5.078e-06
9.49728e-06
7.1465e-06
1.1506e-05
5.77506e-06
3.53627e-06
9.52063e-06
1.56887e-05
1.30494e-05
1.18973e-05
1.27297e-05
1.16974e-05
7.8867e-06
1.7098e-05
1.62331e-05
1.70154e-05
1.62976e-05
1.34361e-05
1.51536e-05
2.70973e-05
2.37897e-05
2.34007e-05
2.29976e-05
2.95289e-05
2.43412e-05
1.14484e-05
1.48804e-05
1.42993e-05
1.44185e-05
1.00013e-05
1.17393e-05
0
5.17354e-07
0
1.01988e-06
7.60967e-07
2.11463e-06
6.65692e-07
2.74341e-06
1.2165e-06
2.02466e-06
5.85563e-06
4.24503e-07
0
0
0
0
0
0
2.97011e-06
1.65907e-06
5.22917e-06
7.71439e-08
0
3.03719e-07
2.86293e-06
2.93644e-06
2.39918e-06
9.4643e-07
1.56439e-06
2.62218e-06
9.0716e-06
9.25181e-06
1.33704e-05
7.7856e-06
4.54669e-06
1.03001e-05
1.65389e-05
1.58241e-05
1.3097e-05
1.46416e-05
1.4766e-05
1.22242e-05
2.43398e-05
2.49343e-05
2.48248e-05
2.40912e-05
2.18481e-05
2.20953e-05
3.42203e-05
3.18171e-05
3.19656e-05
3.01912e-05
3.79283e-05
3.3109e-05
7.57885e-06
9.60593e-06
1.03671e-05
9.4507e-06
7.36558e-06
7.94244e-06
4.30467e-06
6.26056e-06
4.0186e-06
5.89549e-06
4.78913e-06
7.85202e-06
1.05727e-06
0
8.57806e-07
0
0
0
0
0
0
0
0
0
2.12915e-06
0
5.88087e-07
0
0
0
7.45055e-07
0
2.58829e-07
0
0
0
1.27295e-05
1.05431e-05
9.73979e-06
1.05535e-05
7.74489e-06
7.56274e-06
1.77718e-05
2.05029e-05
1.89261e-05
1.90125e-05
1.92857e-05
1.94612e-05
3.15462e-05
3.23505e-05
3.36821e-05
3.04347e-05
3.01576e-05
2.86132e-05
4.3725e-05
4.16668e-05
4.09797e-05
4.09743e-05
4.24658e-05
4.39488e-05
4.60348e-05
4.62341e-05
4.68908e-05
4.75189e-05
4.322e-05
4.26004e-05
4.14377e-05
4.2146e-05
4.0809e-05
4.22303e-05
4.01182e-05
4.38441e-05
4.46123e-05
4.62369e-05
4.49876e-05
4.61017e-05
4.96666e-05
4.6982e-05
4.35409e-05
4.4737e-05
4.15034e-05
4.44498e-05
4.55331e-05
4.48122e-05
3.89664e-05
3.90727e-05
3.90565e-05
3.8878e-05
4.17282e-05
4.07344e-05
3.49664e-05
3.7125e-05
3.48961e-05
3.70823e-05
3.75513e-05
3.87833e-05
3.12626e-05
3.35776e-05
3.2567e-05
3.40751e-05
3.02421e-05
2.96584e-05
3.07291e-05
3.25716e-05
3.04227e-05
3.21318e-05
2.90638e-05
3.12679e-05
3.17909e-05
2.96283e-05
3.32416e-05
3.0669e-05
2.94963e-05
2.89483e-05
3.00917e-05
2.73782e-05
2.72798e-05
2.71251e-05
2.77401e-05
2.69283e-05
3.98636e-05
3.94421e-05
3.78727e-05
4.0096e-05
4.16472e-05
3.77227e-05
3.53572e-05
3.13373e-05
3.33752e-05
3.29085e-05
3.50062e-05
3.08167e-05
3.91609e-05
3.96099e-05
4.0396e-05
4.01501e-05
4.08925e-05
4.14563e-05
3.49605e-05
3.80044e-05
3.57502e-05
3.86409e-05
3.64552e-05
3.81653e-05
3.06384e-05
3.38121e-05
3.23731e-05
3.46598e-05
3.42507e-05
3.31633e-05
2.95649e-05
3.21409e-05
2.97013e-05
3.15263e-05
3.0368e-05
2.82174e-05
2.69978e-05
2.96572e-05
2.89258e-05
2.89772e-05
2.67676e-05
3.09703e-05
2.52946e-05
2.65659e-05
2.43057e-05
2.53016e-05
2.70455e-05
2.47455e-05
2.6867e-05
2.48915e-05
2.81342e-05
2.42607e-05
2.74666e-05
2.57084e-05
2.47722e-05
2.31556e-05
2.26623e-05
2.3288e-05
2.13044e-05
2.20913e-05
3.21437e-05
2.98398e-05
2.86249e-05
2.88567e-05
3.24194e-05
3.11874e-05
2.64837e-05
2.50687e-05
2.89251e-05
2.51354e-05
2.52163e-05
2.35449e-05
2.88275e-05
3.4063e-05
3.15298e-05
3.2523e-05
3.07564e-05
3.35072e-05
2.6716e-05
3.04685e-05
2.64676e-05
2.90937e-05
3.36784e-05
3.34128e-05
2.4433e-05
2.83003e-05
2.65628e-05
2.8448e-05
2.72864e-05
2.74481e-05
2.2922e-05
2.58594e-05
2.24803e-05
2.52412e-05
2.34798e-05
2.66764e-05
2.10716e-05
2.28912e-05
2.32072e-05
2.19835e-05
2.55525e-05
2.36864e-05
1.90021e-05
2.16858e-05
1.85181e-05
2.03911e-05
2.02847e-05
1.83851e-05
2.11865e-05
2.0201e-05
2.29994e-05
1.91784e-05
1.93367e-05
2.02306e-05
1.90685e-05
1.80951e-05
1.7475e-05
1.79136e-05
1.62914e-05
1.68444e-05
2.32203e-05
2.14689e-05
1.95733e-05
2.13352e-05
1.82587e-05
1.9052e-05
1.97813e-05
1.84265e-05
2.20242e-05
1.85644e-05
1.74394e-05
1.84629e-05
2.10012e-05
2.5282e-05
2.43e-05
2.3848e-05
2.84529e-05
2.42091e-05
2.06694e-05
2.40709e-05
1.98808e-05
2.36442e-05
2.45852e-05
2.47868e-05
1.74314e-05
2.08919e-05
2.02518e-05
2.01904e-05
2.05437e-05
2.2456e-05
1.57658e-05
1.93327e-05
1.54244e-05
1.86075e-05
1.9656e-05
1.69755e-05
1.40044e-05
1.72549e-05
1.65536e-05
1.59885e-05
1.81711e-05
1.84848e-05
1.18301e-05
1.55838e-05
1.15003e-05
1.42139e-05
1.36988e-05
1.141e-05
1.40294e-05
1.46091e-05
1.65639e-05
1.31525e-05
1.4265e-05
1.45162e-05
1.30023e-05
1.19073e-05
1.14829e-05
1.16073e-05
1.06652e-05
1.07256e-05
1.5855e-05
1.34191e-05
1.23711e-05
1.36634e-05
1.03926e-05
1.2475e-05
1.50033e-05
1.4463e-05
1.71969e-05
1.46267e-05
1.55895e-05
1.44366e-05
1.51783e-05
1.86558e-05
1.85837e-05
1.76698e-05
1.97791e-05
1.86312e-05
1.63746e-05
1.95567e-05
1.5329e-05
1.9179e-05
1.75711e-05
1.78298e-05
1.07731e-05
1.43151e-05
1.37496e-05
1.3437e-05
1.49033e-05
1.46515e-05
9.92496e-06
1.30464e-05
9.02811e-06
1.22133e-05
1.46591e-05
1.45853e-05
6.71902e-06
1.14614e-05
9.65408e-06
1.08559e-05
9.99143e-06
1.06344e-05
5.59406e-06
8.21496e-06
4.20348e-06
7.67298e-06
6.80632e-06
8.11582e-06
7.18225e-06
8.31423e-06
9.55126e-06
7.64578e-06
8.60604e-06
7.47057e-06
7.29972e-06
5.72365e-06
5.34736e-06
5.47613e-06
5.16571e-06
4.69378e-06
1.06616e-05
8.54748e-06
8.09039e-06
8.62518e-06
1.10791e-05
1.12657e-05
1.28932e-05
1.2627e-05
1.41658e-05
1.23679e-05
1.78361e-05
1.46672e-05
1.08829e-05
1.35872e-05
1.3605e-05
1.32371e-05
1.22883e-05
1.18552e-05
1.31558e-05
1.53447e-05
1.206e-05
1.52403e-05
1.62752e-05
1.64763e-05
4.4199e-06
7.97209e-06
7.21457e-06
7.77437e-06
1.01675e-05
6.84111e-06
4.8082e-06
7.03539e-06
3.56047e-06
7.01073e-06
8.03089e-06
5.91916e-06
0
3.59236e-06
2.83569e-06
2.93981e-06
3.49087e-06
4.91292e-06
1.48734e-06
2.4858e-06
0
2.21074e-06
2.19164e-06
0
1.04713e-06
1.60547e-06
2.80892e-06
3.70351e-08
3.56609e-06
1.87936e-06
3.07838e-06
8.90783e-07
0
5.47275e-07
0
0
8.85455e-06
8.26263e-06
8.36841e-06
8.54393e-06
1.14238e-05
1.11349e-05
1.29706e-05
1.54919e-05
1.51276e-05
1.56258e-05
1.7071e-05
1.27579e-05
7.99455e-06
1.08167e-05
1.11795e-05
1.09708e-05
9.01256e-06
1.02836e-05
1.22116e-05
1.43263e-05
1.05252e-05
1.4672e-05
1.2587e-05
1.44862e-05
0
1.84016e-06
2.11281e-06
1.9015e-06
3.24124e-06
2.59647e-06
4.42687e-06
3.99426e-06
1.14619e-06
4.33777e-06
2.94758e-06
2.55876e-06
0
0
0
0
0
0
5.97731e-07
0
0
0
0
0
0
0
0
0
0
0
1.30164e-06
0
0
0
0
0
9.32533e-06
1.0752e-05
1.11322e-05
1.08888e-05
1.33586e-05
1.40229e-05
1.45556e-05
1.90144e-05
1.63518e-05
1.89731e-05
2.06757e-05
1.67398e-05
7.674e-06
8.98041e-06
9.95689e-06
9.80115e-06
8.66959e-06
9.40197e-06
1.41713e-05
1.41719e-05
1.1244e-05
1.48118e-05
1.22943e-05
1.34926e-05
6.98769e-07
0
1.81908e-06
0
0
0
7.72213e-06
5.05258e-06
3.75322e-06
5.73194e-06
2.89849e-06
3.20943e-06
0
0
0
0
0
0
4.13868e-06
0
0
5.41228e-07
0
0
0
0
0
0
0
0
2.93807e-06
0
0
0
0
0
1.15954e-05
1.45355e-05
1.58682e-05
1.44844e-05
1.70329e-05
1.85315e-05
1.79935e-05
2.41727e-05
1.89057e-05
2.423e-05
2.54029e-05
2.13773e-05
1.13328e-05
1.0096e-05
1.248e-05
1.17117e-05
8.97666e-06
1.08336e-05
1.91846e-05
1.80857e-05
1.6072e-05
1.92868e-05
1.52583e-05
1.67779e-05
6.47439e-06
2.16505e-06
6.19743e-06
3.62708e-06
8.942e-07
3.17879e-06
1.35116e-05
1.00468e-05
9.98593e-06
1.13482e-05
6.51157e-06
7.7893e-06
4.74295e-06
0
3.3625e-06
6.7068e-07
0
0
1.07722e-05
5.06669e-06
7.02799e-06
7.26727e-06
1.85283e-06
3.51821e-06
2.93828e-06
0
0
7.8187e-07
0
4.69054e-08
8.91021e-06
5.97626e-06
3.29832e-06
5.41537e-06
0
3.71446e-06
1.54295e-05
1.81741e-05
2.20643e-05
1.82285e-05
1.92661e-05
2.35811e-05
2.4821e-05
3.04943e-05
2.17643e-05
3.07523e-05
3.26935e-05
2.79887e-05
1.8565e-05
1.3975e-05
1.66342e-05
1.63614e-05
1.26514e-05
1.52802e-05
2.76659e-05
2.50436e-05
2.59278e-05
2.71755e-05
2.23649e-05
2.3688e-05
1.49202e-05
8.48673e-06
1.20854e-05
1.072e-05
7.15326e-06
1.00067e-05
2.27776e-05
1.74805e-05
1.95432e-05
1.96951e-05
1.46341e-05
1.59449e-05
1.43303e-05
6.20816e-06
1.06202e-05
8.37392e-06
5.9016e-06
7.42874e-06
2.17302e-05
1.23965e-05
1.65106e-05
1.55523e-05
1.09334e-05
1.22473e-05
1.24704e-05
5.16039e-06
7.05503e-06