/*--------------------------------*- C++ -*----------------------------------*\
| =========                 |                                                 |
| \\      /  F ield         | OpenFOAM: The Open Source CFD Toolbox           |
|  \\    /   O peration     | Version:  v2012                                 |
|   \\  /    A nd           | Website:  www.openfoam.com                      |
|    \\/     M anipulation  |                                                 |
\*---------------------------------------------------------------------------*/
FoamFile
{
    version     2.0;
    format      ascii;
    class       pointSymmTensorField;
    location    "1";
    object      pEpsilon;
}
// * * * * * * * * * * * * * * * * * * * * * * * * * * * * * * * * * * * * * //

dimensions      [0 0 0 0 0 0 0];


internalField   nonuniform List<symmTensor> 
1662
(
(-4.35851e-06 1.97573e-08 4.46939e-08 1.42894e-05 2.15076e-08 -4.22749e-06)
(-5.42628e-06 6.77475e-09 0 1.57049e-05 -9.93263e-08 -4.78662e-06)
(-4.24545e-05 -7.85864e-06 -8.42766e-07 6.15228e-06 2.29358e-06 1.35785e-05)
(0.000115798 -4.80854e-05 -4.16022e-06 -2.14975e-05 -4.13212e-06 -1.14906e-05)
(-8.10507e-05 -6.0138e-05 9.188e-06 -1.54283e-06 9.33487e-07 1.16316e-05)
(1.02236e-05 1.71669e-06 1.08643e-07 -4.12184e-07 -1.19323e-06 -1.01214e-05)
(-1.29121e-07 1.56585e-06 2.1452e-06 2.34079e-06 -1.37783e-06 -9.00121e-06)
(1.41584e-05 1.30478e-06 3.29152e-07 -3.93773e-06 -1.33082e-06 -9.3476e-06)
(-6.06881e-06 -2.77693e-06 2.99914e-07 8.36414e-06 -1.67658e-06 -8.6365e-06)
(4.14636e-05 4.83013e-06 -5.00109e-07 -1.57713e-05 -2.97261e-06 -1.45028e-05)
(4.96744e-05 1.81554e-05 4.98542e-07 -1.32602e-05 -3.2454e-06 -1.63091e-05)
(7.63499e-05 -6.36042e-05 2.9999e-06 -8.24481e-06 1.72326e-06 -3.77674e-05)
(0.000113675 -0.00014209 -2.41944e-06 1.77412e-05 -5.74553e-07 -3.95621e-05)
(-5.80275e-06 2.37575e-05 2.93352e-06 4.81839e-05 -1.42599e-06 -1.40741e-05)
(-2.19781e-05 -4.08886e-06 3.24015e-06 4.53641e-05 -3.32338e-06 -1.56285e-05)
(-1.7516e-05 -1.04138e-05 -6.29765e-07 2.44857e-06 8.39231e-09 6.04393e-06)
(1.39795e-05 -1.57516e-05 3.85144e-07 -3.20755e-06 -3.08682e-06 -2.09177e-06)
(-3.48803e-06 -2.23979e-07 1.03891e-08 1.23695e-05 -5.52678e-08 -3.9327e-06)
(-1.75194e-06 6.71215e-08 -3.5394e-10 1.30662e-05 -3.42741e-07 -5.00298e-06)
(-4.21157e-05 -3.85955e-05 6.894e-06 0.000148515 2.23556e-06 -3.14612e-05)
(-9.58699e-06 -5.29485e-05 9.14213e-06 6.02826e-05 2.18789e-06 -3.16372e-05)
(1.45317e-05 -4.18845e-07 2.11757e-07 -3.47994e-06 -1.17615e-06 -4.15553e-06)
(0.000129703 -3.20189e-05 -1.69512e-06 -2.66816e-05 2.38195e-06 -3.2228e-05)
(6.08589e-05 -2.5916e-05 -4.6115e-06 -8.01381e-06 2.68699e-06 -2.7964e-05)
(-5.97825e-05 -2.60327e-07 7.04156e-07 3.20888e-05 -3.91807e-07 1.861e-05)
(-6.14585e-05 -4.66399e-05 4.47472e-05 0 0 0)
(-1.17261e-05 -6.7177e-06 -2.01019e-06 2.57641e-06 -3.92932e-07 3.25661e-06)
(1.43915e-05 -1.59707e-05 -4.78689e-07 -1.1204e-06 1.67523e-06 -2.23305e-06)
(8.21156e-05 -5.21344e-05 -5.13609e-05 -2.0157e-05 -4.07155e-06 0)
(1.1108e-05 1.17807e-06 -5.53701e-07 -4.13135e-06 -1.22542e-06 -6.48955e-06)
(5.93884e-05 1.89714e-06 -1.00099e-05 -3.77382e-05 -9.85941e-06 -1.33097e-05)
(-5.78826e-05 -1.75078e-06 2.03976e-06 2.7882e-05 2.40783e-06 2.02841e-05)
(6.25646e-05 -2.7681e-05 -2.05192e-05 -8.02325e-06 6.98251e-06 -3.31021e-05)
(6.15395e-05 -4.10274e-05 9.2949e-06 1.87352e-06 -5.33383e-06 -4.29263e-05)
(-4.16349e-05 -7.3191e-06 -2.61969e-06 3.58633e-06 2.37786e-06 1.75177e-05)
(1.45411e-05 -2.78705e-08 1.72053e-07 -4.94156e-06 -2.09871e-07 -3.57928e-06)
(-1.64038e-06 -4.32125e-05 6.81674e-06 4.82356e-05 -1.73642e-05 -3.62139e-05)
(-1.85058e-06 5.28176e-08 -1.84163e-08 1.32774e-05 -9.12799e-08 -4.98752e-06)
(-1.43604e-05 -2.8344e-06 -1.35525e-05 3.73417e-05 -1.62772e-05 -1.8068e-05)
(-3.61936e-06 -1.37652e-07 -4.95255e-08 1.25082e-05 8.22316e-08 -3.92841e-06)
(-7.10247e-06 -1.98513e-06 -2.35012e-06 6.70251e-06 -1.51377e-06 -6.62386e-06)
(-5.48916e-06 -3.97148e-08 -8.21891e-08 1.59203e-05 -1.17005e-08 -4.85309e-06)
(-4.36649e-06 -2.6438e-08 1.69415e-08 1.44718e-05 3.79133e-08 -4.39667e-06)
(8.12041e-05 6.46854e-06 -2.46703e-05 -4.3437e-05 -1.70252e-05 -1.27527e-05)
(7.31564e-06 4.89498e-07 -1.19972e-06 -4.95709e-07 -2.85354e-06 -6.8174e-06)
(0.000112926 -2.86575e-05 -4.51202e-05 -2.28646e-05 1.05247e-05 -3.35856e-05)
(9.45756e-05 -8.34046e-05 4.43317e-06 8.28166e-06 -2.42931e-06 -4.30662e-05)
(-4.01408e-05 -6.01619e-05 -8.64611e-06 0.000139556 -4.11857e-05 -4.01763e-05)
(-3.38284e-06 2.52762e-05 -3.03876e-05 4.89752e-05 -2.08973e-05 -2.0019e-05)
(2.42644e-06 1.42783e-06 -7.3623e-07 1.08804e-06 -2.11446e-06 -7.33642e-06)
(-4.52877e-06 3.98583e-08 1.77199e-08 1.44557e-05 -9.78448e-09 -4.3e-06)
(-4.8881e-06 6.37922e-08 -2.53214e-08 1.48581e-05 -9.11507e-08 -4.48067e-06)
(-5.18718e-06 7.06896e-08 4.27311e-08 1.52055e-05 -7.5025e-08 -4.60879e-06)
(-5.37282e-06 1.84959e-08 5.45562e-09 1.54605e-05 -1.5035e-07 -4.71632e-06)
(-5.31957e-06 4.44448e-08 -1.18304e-08 1.55407e-05 -9.26023e-08 -4.59424e-06)
(-5.12607e-06 9.7112e-08 6.6527e-09 1.52162e-05 -5.47539e-08 -4.43649e-06)
(-4.88829e-06 1.61606e-07 8.47794e-09 1.48309e-05 -5.55368e-08 -4.34162e-06)
(-4.66578e-06 1.72849e-07 4.16418e-09 1.45635e-05 -2.5271e-08 -4.33424e-06)
(-4.43808e-06 1.70158e-07 4.47654e-09 1.44248e-05 -1.03336e-08 -4.34087e-06)
(-4.17595e-06 1.68215e-07 4.01635e-09 1.4265e-05 -1.0706e-08 -4.37527e-06)
(-3.86797e-06 1.66329e-07 -1.69467e-09 1.41816e-05 -2.40911e-08 -4.46297e-06)
(-3.46052e-06 1.79032e-07 -3.16595e-09 1.41259e-05 -7.27032e-08 -4.60865e-06)
(-2.90429e-06 1.85e-07 -1.69452e-09 1.39572e-05 -1.09623e-07 -4.73451e-06)
(1.38546e-06 -2.87498e-07 9.95478e-08 1.12404e-05 -3.83607e-07 -5.54967e-06)
(4.75215e-06 -5.65014e-07 1.65224e-07 8.20123e-06 -4.384e-07 -5.85422e-06)
(8.49503e-06 -8.17214e-07 2.94364e-07 4.287e-06 -5.62774e-07 -5.94392e-06)
(1.07664e-05 -1.24386e-06 4.33841e-07 1.16523e-06 -3.48063e-07 -5.87295e-06)
(-4.78352e-05 1.31984e-06 -1.9484e-06 1.93352e-05 1.83823e-06 1.87261e-05)
(-5.1532e-05 1.08815e-06 -7.02303e-07 2.14138e-05 1.61288e-06 1.92248e-05)
(-5.84752e-05 -4.44293e-07 2.29742e-07 2.78911e-05 8.81724e-07 1.96976e-05)
(-5.94415e-05 -1.15467e-06 8.09336e-07 2.7785e-05 -1.3351e-06 1.93979e-05)
(1.83606e-05 -1.16098e-05 1.16419e-07 -3.00006e-06 -1.13965e-06 -5.52046e-06)
(2.67332e-05 -9.87243e-06 1.4595e-06 -3.5994e-06 -1.6183e-06 -9.74387e-06)
(3.63153e-05 -8.20388e-06 2.28535e-06 -7.34916e-06 -1.87702e-06 -1.387e-05)
(4.84974e-05 -6.82065e-06 1.93066e-06 -1.34009e-05 -1.99811e-06 -1.91307e-05)
(6.32608e-05 -5.48386e-06 9.7545e-07 -2.11902e-05 -2.24272e-06 -2.50167e-05)
(7.99025e-05 -4.81378e-06 -4.66433e-07 -3.0391e-05 -2.43461e-06 -3.11105e-05)
(9.68488e-05 -6.19227e-06 -2.15513e-06 -4.02834e-05 -2.52973e-06 -3.5623e-05)
(0.000111791 -1.1983e-05 -3.27339e-06 -5.00264e-05 -3.56693e-06 -3.5555e-05)
(0.000120713 -2.91585e-05 -2.63274e-06 -5.53827e-05 -5.79127e-06 -3.2317e-05)
(4.77602e-05 -9.64044e-06 -5.94771e-06 -1.76208e-06 -1.39662e-06 -8.72699e-06)
(1.01123e-05 -5.48098e-06 -6.40628e-07 8.37434e-07 -2.51725e-07 -1.57541e-06)
(-2.05322e-05 -1.01522e-05 2.46971e-06 4.31074e-06 5.0671e-07 2.56189e-06)
(-5.44934e-05 -2.77601e-05 6.31206e-06 1.08103e-05 3.6884e-07 1.02805e-05)
(-8.73847e-05 -4.03056e-05 1.42561e-05 2.57705e-05 9.19445e-06 3.76955e-05)
(-9.14271e-05 -2.32951e-05 8.28814e-06 3.54683e-05 1.64995e-06 3.54759e-05)
(-8.99801e-05 -2.00251e-05 3.01017e-06 3.70194e-05 1.61796e-07 2.96796e-05)
(-8.36007e-05 -1.97292e-05 2.07654e-06 3.29071e-05 -5.5507e-08 2.84682e-05)
(-7.08692e-05 -1.82676e-05 9.33084e-07 2.66518e-05 -7.22308e-07 2.26413e-05)
(-5.74209e-05 -1.69385e-05 -1.5604e-08 1.99167e-05 -9.85352e-07 1.7697e-05)
(-4.48202e-05 -1.55191e-05 -7.16375e-07 1.37026e-05 -9.94957e-07 1.33866e-05)
(-3.35868e-05 -1.38179e-05 -9.89164e-07 8.54557e-06 -9.41601e-07 9.96752e-06)
(-2.53779e-05 -1.27748e-05 -6.83892e-07 4.16617e-06 -6.97766e-07 8.00584e-06)
(-1.25053e-05 -8.47305e-06 -5.15124e-07 1.75898e-06 5.16657e-07 3.70855e-06)
(-1.06513e-05 -7.32273e-06 8.90783e-09 1.92511e-06 3.32197e-07 2.78846e-06)
(-7.64019e-06 -6.41709e-06 4.13313e-07 8.29559e-07 -8.49699e-10 1.66096e-06)
(-4.48886e-06 -6.18693e-06 7.06713e-07 -2.51842e-07 -1.27761e-07 7.37187e-07)
(-1.08994e-06 -5.59685e-06 1.0749e-06 -1.026e-06 -1.06821e-07 -2.05476e-07)
(2.58408e-06 -4.72065e-06 1.37785e-06 -1.71184e-06 -1.43656e-07 -1.18374e-06)
(6.13741e-06 -3.9221e-06 1.5734e-06 -2.346e-06 -2.09006e-07 -2.27175e-06)
(9.52882e-06 -3.15939e-06 1.67008e-06 -2.92525e-06 -2.98593e-07 -3.51518e-06)
(1.21805e-05 -2.12916e-06 1.53998e-06 -2.78351e-06 -3.41225e-07 -5.04673e-06)
(1.50574e-05 -2.60006e-07 1.24957e-06 -3.92547e-06 -5.3068e-07 -6.9611e-06)
(1.68891e-05 1.24886e-06 1.02011e-06 -4.41243e-06 -8.49214e-07 -8.3825e-06)
(-4.20319e-06 -2.71029e-07 -5.61094e-07 1.17408e-05 -1.68674e-06 -7.62711e-06)
(-4.38121e-06 -5.88694e-07 -4.3262e-07 1.24569e-05 -1.59507e-06 -6.72302e-06)
(-3.58055e-06 -7.9819e-07 -3.20989e-07 1.21373e-05 -1.56212e-06 -5.76428e-06)
(-3.11157e-06 -1.02772e-06 -3.26654e-07 1.17778e-05 -1.42546e-06 -5.09103e-06)
(-2.71413e-06 -1.20628e-06 -3.27657e-07 1.15371e-05 -1.2188e-06 -4.73718e-06)
(-2.68508e-06 -1.33941e-06 -3.05967e-07 1.15482e-05 -9.59527e-07 -4.54167e-06)
(-3.01342e-06 -1.36383e-06 -2.71949e-07 1.18091e-05 -7.01685e-07 -4.45254e-06)
(-3.33239e-06 -1.18836e-06 -2.19004e-07 1.20192e-05 -5.15703e-07 -4.33742e-06)
(-3.48573e-06 -9.25744e-07 -1.68688e-07 1.2142e-05 -3.80487e-07 -4.23641e-06)
(-3.54804e-06 -6.62808e-07 -1.15302e-07 1.23205e-05 -2.6799e-07 -4.16498e-06)
(-3.57949e-06 -3.67409e-07 -2.33637e-08 1.25063e-05 -1.94375e-07 -4.13736e-06)
(-3.71684e-06 -8.09321e-08 -2.25986e-08 1.25813e-05 -9.24812e-09 -4.03321e-06)
(-3.86587e-06 1.25565e-07 6.96137e-09 1.28547e-05 2.49092e-08 -4.02441e-06)
(-3.95928e-06 2.10064e-07 -7.95923e-09 1.3021e-05 2.37845e-08 -4.01737e-06)
(-4.0439e-06 2.53658e-07 5.34522e-09 1.32371e-05 3.20464e-08 -4.0384e-06)
(-4.11249e-06 2.61198e-07 1.4815e-08 1.34793e-05 3.70639e-08 -4.07907e-06)
(-4.18178e-06 2.39145e-07 2.15324e-08 1.37215e-05 3.54052e-08 -4.1239e-06)
(-4.24848e-06 1.97566e-07 3.23026e-08 1.39317e-05 2.80459e-08 -4.15989e-06)
(-4.30064e-06 1.43798e-07 4.30041e-08 1.41021e-05 1.84255e-08 -4.19495e-06)
(-4.31754e-06 7.38236e-08 4.29131e-08 1.4225e-05 1.60376e-08 -4.21999e-06)
(-3.42656e-06 -2.32293e-07 -7.48824e-08 1.3398e-05 -2.77438e-07 -4.46373e-06)
(-3.25898e-06 -4.46633e-07 -4.17465e-08 1.3657e-05 -4.04558e-07 -4.67359e-06)
(-2.73848e-06 -5.77296e-07 -8.24021e-09 1.38038e-05 -4.863e-07 -4.8641e-06)
(-2.18575e-06 -5.39267e-07 -1.52279e-08 1.37132e-05 -4.62964e-07 -4.97703e-06)
(-5.5258e-06 -1.38494e-05 2.31625e-06 1.11927e-06 7.34199e-07 3.18999e-06)
(1.01684e-06 -1.93757e-05 1.43382e-06 -4.51939e-07 3.08768e-07 2.8795e-07)
(4.53477e-06 -1.92885e-05 3.18929e-06 -5.13509e-07 -5.84529e-07 -1.9017e-06)
(4.94335e-06 -1.64576e-05 3.12637e-06 -1.34164e-06 -6.27461e-07 -3.04887e-06)
(3.93545e-05 -9.13539e-06 -3.98586e-07 -2.05033e-05 -2.46128e-06 -1.2412e-05)
(3.06025e-05 -1.70098e-05 -6.70102e-08 -1.50217e-05 -2.28081e-06 -9.24814e-06)
(2.06546e-05 -2.13794e-05 -2.60329e-07 -1.05782e-05 -2.52725e-06 -5.95059e-06)
(1.21024e-05 -2.45914e-05 -4.45661e-07 -7.58109e-06 -2.78198e-06 -2.99291e-06)
(5.33668e-06 -2.63313e-05 -6.10504e-07 -5.25797e-06 -3.01766e-06 -6.79609e-07)
(2.9003e-07 -2.6837e-05 -7.03038e-07 -3.72429e-06 -3.05093e-06 8.92618e-07)
(-3.26942e-06 -2.63735e-05 -6.87138e-07 -2.80215e-06 -2.86988e-06 1.81379e-06)
(-5.14037e-06 -2.52076e-05 -5.39116e-07 -2.42339e-06 -2.57834e-06 2.09179e-06)
(-4.80512e-06 -2.3558e-05 -1.90689e-07 -2.49747e-06 -2.36724e-06 1.59403e-06)
(-3.32701e-07 -2.14079e-05 3.5627e-07 -3.19767e-06 -2.57495e-06 2.54326e-07)
(6.40727e-06 -1.91773e-05 1.35186e-06 -4.11364e-06 -2.65415e-06 -6.65386e-07)
(3.64808e-05 -2.28094e-05 3.63006e-06 1.07117e-05 1.13318e-06 -3.14466e-05)
(2.37348e-05 -8.52804e-06 3.58168e-06 1.78448e-05 -9.55176e-07 -2.34872e-05)
(1.496e-05 -5.06705e-06 2.44923e-06 1.28499e-05 -6.3461e-07 -1.55256e-05)
(7.10278e-06 -3.7665e-06 1.2938e-06 9.27151e-06 -1.40721e-07 -9.67492e-06)
(-4.04025e-07 -3.09606e-06 5.36829e-07 7.0336e-06 3.24849e-07 -4.79307e-06)
(-7.38695e-06 -2.58337e-06 -4.32137e-08 5.92265e-06 8.24354e-07 -8.07101e-07)
(-1.41497e-05 -2.3644e-06 -5.01613e-07 5.75077e-06 1.40482e-06 2.61448e-06)
(-2.09342e-05 -2.4994e-06 -8.59326e-07 6.4044e-06 1.92461e-06 5.85098e-06)
(-2.77451e-05 -3.19707e-06 -8.94212e-07 7.28084e-06 2.40695e-06 8.83951e-06)
(-3.37955e-05 -4.33266e-06 -7.0756e-07 7.89155e-06 2.88928e-06 1.1275e-05)
(-3.85066e-05 -5.74806e-06 -3.69148e-07 7.76563e-06 2.99579e-06 1.25411e-05)
(-1.14061e-05 -1.0526e-05 1.27864e-06 3.71454e-05 -3.12128e-06 -1.46674e-05)
(-4.97331e-06 -1.03973e-05 3.22158e-07 2.90736e-05 -2.81776e-06 -1.29156e-05)
(-2.33412e-06 -8.83866e-06 5.18571e-07 2.2247e-05 -2.63971e-06 -1.10548e-05)
(-7.65425e-07 -7.39681e-06 7.69573e-07 1.78532e-05 -2.19542e-06 -9.59394e-06)
(1.98976e-08 -6.13718e-06 7.41858e-07 1.44596e-05 -1.80736e-06 -8.23453e-06)
(3.14818e-07 -4.92755e-06 6.33789e-07 1.26139e-05 -1.42156e-06 -7.24448e-06)
(3.47717e-07 -3.81448e-06 5.25475e-07 1.17848e-05 -1.09719e-06 -6.55338e-06)
(2.13304e-07 -2.82032e-06 4.06537e-07 1.13919e-05 -8.86961e-07 -6.08236e-06)
(-1.0531e-08 -1.90818e-06 2.70231e-07 1.14868e-05 -7.00703e-07 -5.77093e-06)
(-3.13303e-07 -1.05875e-06 1.22869e-07 1.18563e-05 -5.45756e-07 -5.53765e-06)
(-7.85386e-07 -4.16231e-07 8.68816e-09 1.22262e-05 -4.51708e-07 -5.3791e-06)
(1.29755e-05 3.99258e-06 2.07279e-07 -8.84709e-07 -1.24499e-06 -1.05262e-05)
(1.91147e-05 8.11623e-06 1.95463e-07 -3.77809e-06 -1.34109e-06 -1.13686e-05)
(2.45923e-05 1.10627e-05 1.05094e-07 -3.367e-06 -1.40353e-06 -1.28005e-05)
(3.09147e-05 1.57177e-05 6.69364e-07 -4.01863e-07 -1.51953e-06 -1.36654e-05)
(6.25292e-05 3.01066e-06 -1.53955e-06 -3.39069e-05 -2.76841e-06 -1.73013e-05)
(7.54193e-05 -3.93737e-06 -2.62673e-06 -4.2021e-05 -2.17843e-06 -1.90734e-05)
(8.39215e-05 -1.62592e-05 -3.55628e-06 -4.41327e-05 -1.37783e-06 -2.21682e-05)
(8.34933e-05 -2.83986e-05 -3.94514e-06 -3.61256e-05 3.78448e-07 -2.4597e-05)
(3.3693e-05 -6.36121e-05 4.11752e-06 2.63103e-05 2.32034e-06 -3.55019e-05)
(1.38304e-05 -5.66678e-05 6.39898e-06 4.16269e-05 3.03246e-06 -3.46872e-05)
(-5.10229e-06 -4.91393e-05 8.52133e-06 5.31776e-05 2.45873e-06 -3.3804e-05)
(-1.44225e-05 -4.59851e-05 1.14579e-05 6.33061e-05 2.10448e-06 -3.26233e-05)
(1.3351e-05 1.27704e-05 2.617e-06 2.33481e-05 -1.34875e-06 -1.17388e-05)
(9.10413e-06 2.99643e-06 2.51851e-06 1.32955e-05 -1.16431e-06 -1.04772e-05)
(2.41188e-06 -3.82724e-06 2.21689e-06 9.27521e-06 -1.34282e-06 -9.6084e-06)
(4.28966e-08 -1.67091e-06 2.12451e-06 6.59817e-06 -1.62466e-06 -9.22483e-06)
(1.59386e-05 2.23304e-06 1.76721e-07 -3.73002e-06 -1.66103e-06 -9.78573e-06)
(2.10872e-05 3.56763e-06 -1.04872e-07 -6.59618e-06 -1.94965e-06 -1.06591e-05)
(2.77754e-05 3.86431e-06 -5.42453e-07 -1.11387e-05 -2.15129e-06 -1.17986e-05)
(2.90367e-05 4.38272e-06 -7.37956e-07 -1.0157e-05 -1.85129e-06 -1.24247e-05)
(7.22972e-05 1.55169e-05 4.14721e-07 -3.21582e-05 -3.16395e-06 -2.00478e-05)
(0.00010193 1.04363e-05 -4.08538e-09 -4.41621e-05 -3.21437e-06 -2.32873e-05)
(0.000126579 -1.42987e-05 -1.07817e-06 -5.39901e-05 -2.85048e-06 -2.66408e-05)
(0.000129985 -3.81429e-05 -1.52448e-06 -4.08243e-05 -9.13454e-07 -2.83667e-05)
(3.48055e-05 -0.000122883 -2.41672e-07 8.9516e-05 2.17397e-06 -3.66883e-05)
(8.0302e-06 -0.000128968 1.53103e-06 0.000119749 3.75809e-06 -3.47535e-05)
(-4.84336e-05 -9.3341e-05 3.02229e-07 0.000142064 3.32406e-06 -3.24486e-05)
(-4.89129e-05 -4.17939e-05 5.09807e-06 0.000154491 3.59464e-06 -3.12282e-05)
(-1.31121e-05 -1.93436e-06 7.84439e-07 2.96118e-05 -2.0472e-06 -1.21203e-05)
(-8.96427e-06 -2.55501e-06 -3.21483e-07 2.2287e-05 -2.58019e-06 -1.09165e-05)
(-6.72588e-06 -3.28631e-06 -4.36933e-07 1.71945e-05 -2.30252e-06 -9.78583e-06)
(-4.3833e-06 -3.19242e-06 -9.01271e-07 1.28639e-05 -2.3042e-06 -9.0195e-06)
(2.44374e-05 -3.36581e-05 5.35295e-06 2.01946e-05 -2.20873e-06 -2.88911e-05)
(2.7203e-05 -2.42915e-05 3.28823e-06 1.34362e-05 -4.42929e-06 -2.48976e-05)
(2.45738e-05 -2.12647e-05 3.32177e-06 9.27146e-06 -3.64585e-06 -2.06237e-05)
(2.35322e-05 -1.81929e-05 3.26855e-06 5.39133e-06 -2.5042e-06 -1.68347e-05)
(2.18246e-05 -1.49499e-05 3.16877e-06 2.29315e-06 -1.72048e-06 -1.35114e-05)
(2.06285e-05 -1.21893e-05 2.79271e-06 -2.98161e-07 -1.25497e-06 -1.09605e-05)
(1.95894e-05 -9.68572e-06 2.36756e-06 -2.26624e-06 -1.0702e-06 -8.94911e-06)
(1.82106e-05 -7.39369e-06 2.01056e-06 -3.63525e-06 -8.52772e-07 -7.17788e-06)
(1.68913e-05 -5.27766e-06 1.64261e-06 -4.56568e-06 -7.83668e-07 -5.69242e-06)
(1.55099e-05 -3.25898e-06 1.21836e-06 -4.93677e-06 -8.72262e-07 -4.62236e-06)
(1.49264e-05 -1.55894e-06 8.67506e-07 -4.75079e-06 -1.33258e-06 -4.2099e-06)
(-5.41068e-05 2.59638e-08 4.99656e-07 3.22548e-05 5.39764e-07 1.6154e-05)
(-4.56436e-05 -4.28484e-07 -9.00654e-08 2.94225e-05 1.70786e-06 1.3428e-05)
(-3.68509e-05 -3.24583e-06 -1.36028e-07 2.57624e-05 1.8627e-06 9.8419e-06)
(-2.85704e-05 -7.31402e-06 -2.20383e-07 2.26292e-05 1.17964e-06 6.47841e-06)
(-2.12091e-05 -1.123e-05 -7.39784e-08 2.09704e-05 4.41002e-07 3.49488e-06)
(-1.53425e-05 -1.47846e-05 3.57282e-07 2.02083e-05 -4.58699e-07 3.10962e-07)
(-1.04349e-05 -1.78677e-05 8.34287e-07 2.04703e-05 -1.30923e-06 -3.31228e-06)
(-5.24502e-06 -2.0317e-05 1.66262e-06 2.12397e-05 -1.90017e-06 -7.57658e-06)
(5.75918e-07 -2.24356e-05 2.47109e-06 2.28674e-05 -2.11457e-06 -1.27708e-05)
(8.42659e-06 -2.46918e-05 3.04246e-06 2.46823e-05 -1.6551e-06 -1.88279e-05)
(2.37141e-05 -2.87238e-05 2.95537e-06 2.29503e-05 -1.34333e-06 -2.3783e-05)
(0.000137927 -3.47564e-05 5.68394e-07 -2.74387e-05 3.85753e-06 -3.58891e-05)
(0.000139654 -5.29781e-05 2.81536e-06 -2.50687e-05 3.54736e-06 -3.72918e-05)
(0.000135496 -7.27497e-05 4.4644e-06 -2.28951e-05 2.09506e-06 -3.83005e-05)
(0.000168798 -0.000112093 6.83465e-06 -2.42049e-05 2.27971e-07 -3.87378e-05)
(-3.93249e-05 -2.02871e-05 6.48495e-06 0.000139026 3.31155e-07 -2.70212e-05)
(-3.45521e-05 -3.08286e-07 5.78336e-06 0.000106427 -1.04218e-06 -2.24809e-05)
(-2.59917e-05 1.02013e-05 5.50105e-06 7.46881e-05 -2.77448e-06 -1.84349e-05)
(-2.2216e-05 1.92539e-05 4.99177e-06 7.25338e-05 -3.887e-06 -1.66579e-05)
(4.74579e-05 -1.67256e-05 -1.7132e-06 -3.45417e-06 2.11913e-06 -3.14725e-05)
(5.2916e-05 -1.99123e-05 9.89843e-07 -4.69299e-06 2.21341e-06 -3.27835e-05)
(5.87139e-05 -2.80761e-05 2.73377e-06 -4.16421e-06 2.10795e-06 -3.39577e-05)
(7.75032e-05 -4.47413e-05 5.42862e-06 -1.43176e-05 2.53174e-06 -3.43818e-05)
(-1.32582e-05 -4.69381e-05 4.6448e-06 5.71983e-05 -3.14147e-07 -2.73535e-05)
(-1.48379e-05 -2.86298e-05 4.26456e-06 5.529e-05 -3.62891e-06 -2.40731e-05)
(-1.44506e-05 -1.36869e-05 4.70869e-06 5.15422e-05 -4.66453e-06 -2.05555e-05)
(-1.99003e-05 -7.33585e-06 5.17512e-06 5.14888e-05 -5.70742e-06 -1.85867e-05)
(-4.27595e-05 1.2553e-06 -1.97059e-06 1.31165e-05 -3.55585e-06 1.38668e-05)
(-1.77931e-05 -2.96736e-06 -1.62331e-06 4.17879e-07 -4.39357e-06 8.7998e-06)
(-1.27727e-07 -3.75065e-06 -2.2486e-07 -4.12142e-06 -5.62151e-06 4.62799e-06)
(1.01036e-05 -3.08499e-06 2.87823e-07 -6.38394e-06 -4.95194e-06 1.53158e-06)
(1.22907e-05 2.07601e-07 -7.5908e-08 -7.29716e-06 -9.25658e-08 -1.23403e-06)
(6.83298e-06 -2.54368e-08 -1.82693e-07 -5.25436e-06 2.05712e-07 5.96099e-07)
(-2.49374e-06 -4.87225e-07 -2.2876e-07 -2.11652e-06 6.64526e-07 3.61979e-06)
(-1.22707e-05 -4.10133e-07 2.34835e-07 1.16549e-07 6.90747e-07 6.76482e-06)
(-7.1756e-05 -3.71458e-05 2.65449e-05 2.04751e-05 -1.07891e-05 2.13793e-05)
(-8.25593e-05 -1.93432e-05 4.78072e-06 3.66506e-05 -9.80696e-06 2.7148e-05)
(-9.8921e-05 -2.23798e-05 4.12323e-06 3.42662e-05 -4.85292e-06 5.35797e-05)
(-9.88047e-05 -1.80347e-05 -7.50537e-06 2.83658e-05 2.98793e-06 3.99663e-05)
(-7.79488e-05 -1.51357e-05 -5.16248e-06 2.73447e-05 -1.15804e-06 3.24884e-05)
(-6.52061e-05 -1.09658e-05 -7.89073e-06 2.18879e-05 -1.58475e-06 2.55524e-05)
(-4.92565e-05 -9.55321e-06 -7.83529e-06 1.57474e-05 -1.28642e-06 1.87925e-05)
(-3.58557e-05 -8.4929e-06 -7.01013e-06 1.04369e-05 -1.04247e-06 1.29868e-05)
(-2.22082e-05 -6.91215e-06 -5.86702e-06 6.26962e-06 -9.3859e-07 6.9491e-06)
(-4.48893e-06 -1.22699e-05 1.20937e-06 9.09734e-07 -1.2329e-07 2.64089e-06)
(-2.86967e-06 -2.14491e-05 6.33763e-07 -5.70383e-07 -5.3016e-07 1.58588e-06)
(-9.82744e-07 -2.28588e-05 -1.60402e-06 -7.40636e-07 -2.22068e-07 6.56022e-07)
(9.60037e-07 -1.93258e-05 -2.32467e-06 -2.3038e-06 4.58497e-08 9.66863e-07)
(1.70178e-05 -1.22594e-05 3.26412e-06 -3.44364e-06 1.2248e-06 -3.11656e-06)
(2.41132e-05 -1.08219e-05 5.1274e-06 -4.93212e-06 1.61159e-06 -4.05864e-06)
(3.60896e-05 -7.50359e-06 7.92164e-06 -9.94274e-06 -8.04254e-08 -8.38722e-06)
(5.13548e-05 -6.2693e-06 7.76544e-06 -1.57099e-05 -3.36177e-07 -1.43029e-05)
(6.63248e-05 -3.16871e-06 8.46519e-06 -2.34124e-05 -8.91688e-07 -2.18438e-05)
(8.46416e-05 -5.3451e-07 7.86671e-06 -3.2226e-05 -1.07104e-06 -3.0321e-05)
(0.000103424 5.78086e-07 4.12421e-06 -4.15397e-05 -1.54771e-06 -3.96645e-05)
(0.000122208 -1.31975e-06 -7.2291e-06 -4.99383e-05 -2.29215e-06 -4.82117e-05)
(0.000112108 -2.8373e-05 -3.85203e-05 -5.57305e-05 -9.29951e-06 -4.2404e-05)
(2.62809e-05 -1.04899e-05 -2.8052e-05 -2.26744e-06 -4.1981e-06 -6.18397e-06)
(1.38993e-05 -1.57588e-06 -6.14733e-06 3.57958e-07 -1.11079e-06 -2.80278e-06)
(-1.53224e-05 -3.33848e-06 7.39539e-06 2.88935e-06 -6.52105e-07 1.43423e-06)
(-4.04583e-05 -2.04374e-05 2.68876e-05 7.15037e-06 3.00505e-07 2.90337e-07)
(-4.74011e-05 -4.73467e-05 3.07309e-05 -9.58353e-08 -4.34834e-07 4.09011e-06)
(-1.58508e-05 -6.99755e-06 -1.67022e-06 2.67241e-06 -7.24335e-07 4.72129e-06)
(1.32962e-05 -1.71356e-05 5.59785e-09 -3.08452e-06 -6.5128e-07 -2.35146e-06)
(0.000107344 -5.45676e-05 -3.09641e-05 -2.24286e-05 -1.6866e-06 -7.95806e-06)
(-1.08877e-05 -7.43256e-06 -8.12407e-08 8.48326e-07 3.03493e-07 3.75149e-06)
(-1.00432e-05 -6.0369e-06 -5.73166e-07 1.66595e-06 -6.33049e-08 2.68451e-06)
(-7.06488e-06 -5.00709e-06 -7.07914e-07 9.89088e-07 8.99146e-08 1.65605e-06)
(-3.89086e-06 -4.94835e-06 -7.55228e-07 -6.09156e-08 5.14768e-08 1.35903e-06)
(-3.66458e-07 -3.91348e-06 -1.18803e-06 -7.45311e-07 -9.02808e-08 5.51849e-07)
(3.86149e-06 -2.89132e-06 -1.41364e-06 -1.5697e-06 -1.73846e-08 -4.27549e-07)
(7.77362e-06 -2.20347e-06 -1.42315e-06 -2.46887e-06 5.536e-08 -1.39892e-06)
(1.07788e-05 -1.64498e-06 -1.34088e-06 -3.05675e-06 -2.83902e-08 -2.20449e-06)
(1.31431e-05 -6.98627e-07 -1.70345e-06 -3.4349e-06 -2.0355e-07 -2.93429e-06)
(1.53927e-05 4.91877e-08 -2.08959e-06 -4.84466e-06 -3.66046e-07 -3.84933e-06)
(1.51629e-05 9.42515e-07 -9.43967e-07 -4.1517e-06 -4.39918e-07 -5.90605e-06)
(1.25829e-05 2.16781e-06 -9.16567e-07 -4.34057e-06 -7.7167e-07 -6.98433e-06)
(1.74398e-05 3.88445e-06 -2.42117e-06 -7.6522e-06 -1.69309e-06 -6.92609e-06)
(2.26299e-05 2.24188e-06 -5.70884e-06 -1.54256e-05 -3.92847e-06 -6.93163e-06)
(3.77915e-05 2.19437e-06 -1.05544e-05 -2.64692e-05 -7.91215e-06 -9.63477e-06)
(4.05896e-05 -1.15741e-05 -4.39409e-06 -2.93671e-05 -4.69158e-06 -1.22287e-05)
(2.8788e-05 -2.14872e-05 -3.7856e-06 -2.26552e-05 -6.01609e-07 -8.31552e-06)
(1.92125e-05 -2.63026e-05 -2.71977e-06 -1.6603e-05 1.94918e-06 -4.29299e-06)
(1.1497e-05 -2.89668e-05 -1.64699e-06 -1.25978e-05 2.89083e-06 -1.53082e-06)
(5.29394e-06 -2.98903e-05 -9.37348e-07 -8.53479e-06 3.18491e-06 1.9855e-08)
(7.96098e-07 -2.94683e-05 -5.76301e-07 -5.73876e-06 3.15351e-06 9.72634e-07)
(-2.34171e-06 -2.82927e-05 -3.65211e-07 -3.73392e-06 2.87587e-06 1.48484e-06)
(-3.73685e-06 -2.64886e-05 -1.47896e-07 -2.55627e-06 2.381e-06 1.56235e-06)
(-2.56971e-06 -2.38486e-05 2.79016e-07 -1.59309e-06 1.58071e-06 8.65474e-07)
(1.83341e-06 -2.10758e-05 1.08437e-06 -2.23349e-06 9.03536e-07 -4.419e-07)
(7.15682e-06 -1.88936e-05 9.82654e-07 -3.09589e-06 6.11495e-07 -1.9591e-06)
(1.18689e-05 1.95615e-06 -9.84915e-08 -3.3882e-06 -6.55287e-07 -7.55616e-06)
(3.96898e-05 1.69603e-06 -3.80087e-06 -2.06725e-05 -4.68731e-06 -1.30125e-05)
(1.01151e-05 -3.48407e-06 5.2673e-07 -5.823e-06 -7.37821e-07 -3.2727e-06)
(-2.92785e-07 -3.03702e-06 8.91681e-07 -4.54056e-07 1.94449e-06 -8.66389e-07)
(-1.85172e-05 6.47377e-07 6.951e-06 4.01902e-06 -8.92319e-07 2.85249e-06)
(-4.60515e-05 2.7144e-06 6.27774e-06 1.29318e-05 1.70958e-06 1.49218e-05)
(-5.36209e-05 -1.69583e-06 2.16698e-06 3.35744e-05 3.57712e-06 1.7966e-05)
(-4.49206e-05 -2.97142e-06 1.6991e-06 3.59093e-05 8.70976e-08 1.29088e-05)
(-3.59652e-05 -4.91438e-06 2.49835e-06 2.57945e-05 -4.7826e-07 1.21447e-05)
(-2.58703e-05 -8.0334e-06 1.09157e-06 1.76834e-05 3.41564e-06 7.40911e-06)
(-1.93269e-05 -1.35593e-05 1.19574e-07 1.84083e-05 4.20119e-06 3.45444e-06)
(-1.33016e-05 -1.88316e-05 -3.98388e-07 2.00717e-05 4.44569e-06 -1.6026e-08)
(-7.91093e-06 -2.22557e-05 -6.63404e-07 2.02678e-05 4.72942e-06 -3.1346e-06)
(-3.13766e-06 -2.51788e-05 -1.20496e-06 2.00662e-05 5.70945e-06 -6.35831e-06)
(2.26043e-06 -2.76749e-05 -2.25142e-06 1.87059e-05 7.66204e-06 -9.5702e-06)
(9.80271e-06 -2.80269e-05 -4.47019e-06 1.81547e-05 9.9355e-06 -1.72568e-05)
(2.11017e-05 -2.78156e-05 -6.57798e-06 1.71881e-05 9.92443e-06 -2.76862e-05)
(7.26196e-05 -2.81491e-05 -2.13697e-05 -2.67676e-05 2.49761e-07 -2.87909e-05)
(6.89172e-05 -1.56251e-05 -1.81486e-05 -3.0288e-05 -4.34596e-06 -2.23208e-05)
(6.70519e-05 -8.72251e-06 -1.69586e-05 -3.21584e-05 -8.54832e-06 -1.86684e-05)
(6.74745e-05 -1.48066e-06 -1.21526e-05 -4.0157e-05 -9.30147e-06 -1.25655e-05)
(-5.8519e-05 -1.07173e-06 1.12835e-06 3.0249e-05 9.58283e-07 1.87133e-05)
(6.40353e-05 -1.75749e-05 -1.02185e-05 -1.47855e-05 4.72138e-06 -3.06601e-05)
(4.80635e-05 -1.15479e-05 -1.89777e-05 -6.79911e-06 1.31012e-05 -3.85702e-05)
(4.66273e-05 -2.01392e-05 -9.93412e-06 3.26506e-06 1.41223e-05 -4.72786e-05)
(6.21513e-05 -2.94239e-05 1.45484e-06 -1.87954e-06 6.30956e-06 -4.71807e-05)
(7.09286e-05 -3.46187e-05 5.11806e-06 -7.16597e-06 2.78727e-06 -4.60459e-05)
(2.95806e-05 -1.65415e-05 4.24374e-06 1.08336e-05 3.07038e-06 -3.65198e-05)
(1.67467e-05 -3.8202e-06 2.3052e-06 1.20897e-05 7.38768e-06 -2.42646e-05)
(1.22603e-05 -7.80621e-07 3.49728e-06 6.93838e-06 5.61411e-06 -1.22852e-05)
(4.73089e-06 -7.85187e-07 1.80992e-06 3.06797e-06 2.8861e-06 -5.07692e-06)
(-1.42096e-06 1.68227e-07 9.89901e-07 3.1266e-06 1.43976e-06 -3.08053e-06)
(-7.47288e-06 6.76513e-08 6.21002e-07 2.95011e-06 1.25345e-06 -1.78097e-07)
(-1.36548e-05 -5.02432e-07 2.0415e-07 3.52449e-06 1.4848e-06 2.67352e-06)
(-1.9718e-05 -1.32852e-06 -9.91489e-08 4.7908e-06 1.86765e-06 5.5023e-06)
(-2.5613e-05 -2.6366e-06 -4.43709e-07 6.18687e-06 2.17958e-06 8.21452e-06)
(-3.09416e-05 -4.18677e-06 -8.30023e-07 6.8264e-06 2.51559e-06 1.05178e-05)
(-3.75067e-05 -5.53946e-06 -1.90424e-06 7.13289e-06 1.85571e-06 1.42328e-05)
(-4.55616e-05 4.08178e-07 -8.23726e-07 1.65056e-05 -7.76989e-07 1.93043e-05)
(-5.2109e-05 1.01504e-06 -3.31394e-06 2.17113e-05 -6.29076e-07 2.05687e-05)
(-6.11482e-05 -2.27787e-07 -1.05692e-06 2.10976e-05 2.44512e-06 2.5359e-05)
(-6.09211e-05 1.15754e-06 2.6113e-06 2.5412e-05 -3.11619e-06 2.28896e-05)
(6.93429e-05 -5.33225e-05 -5.5695e-07 -1.27031e-05 2.09029e-06 -4.14372e-05)
(-4.1075e-05 -7.33704e-06 -2.25533e-06 6.34044e-06 1.7006e-06 1.48351e-05)
(-1.96702e-05 -4.92929e-07 -1.54738e-06 6.69078e-07 1.58157e-06 7.23462e-06)
(-6.71453e-06 -3.43736e-07 -2.0985e-06 -2.07676e-06 2.90775e-07 2.42694e-06)
(6.29053e-06 1.36618e-08 -1.68063e-06 -5.89845e-06 -1.66781e-07 -1.1958e-06)
(1.49471e-05 2.36943e-07 -8.13201e-07 -7.20946e-06 -1.19704e-08 -3.28085e-06)
(1.60235e-05 -1.87852e-06 1.06768e-06 -5.93094e-06 -5.10492e-07 -3.2295e-06)
(1.79212e-05 -4.20794e-06 1.49167e-06 -6.15414e-06 7.45478e-08 -5.33118e-06)
(1.88517e-05 -6.14828e-06 1.59811e-06 -6.14161e-06 -1.87757e-07 -5.9024e-06)
(2.04469e-05 -8.4775e-06 1.76006e-06 -5.60893e-06 -5.31889e-08 -7.81025e-06)
(2.13539e-05 -1.07889e-05 2.2749e-06 -4.66998e-06 8.19299e-08 -9.13959e-06)
(2.27896e-05 -1.37501e-05 3.34466e-06 -3.06514e-06 4.97874e-07 -1.20513e-05)
(2.32723e-05 -1.64677e-05 3.97437e-06 -7.4382e-07 9.44124e-07 -1.48629e-05)
(2.37651e-05 -1.9885e-05 5.3333e-06 1.21493e-06 1.14505e-06 -1.72137e-05)
(2.47679e-05 -2.28694e-05 6.85626e-06 4.64537e-06 1.32387e-06 -2.18959e-05)
(2.44434e-05 -2.17708e-05 5.19065e-06 7.3694e-06 4.6172e-08 -2.55245e-05)
(2.12766e-05 -3.2841e-05 4.23881e-06 1.48511e-05 -7.29886e-06 -3.01538e-05)
(1.4291e-05 -5.56926e-05 1.09427e-05 3.83044e-05 -1.24849e-05 -4.15606e-05)
(3.57335e-05 -6.5619e-05 8.06401e-06 2.59437e-05 -6.16011e-06 -4.50939e-05)
(5.02662e-05 -5.74415e-05 7.9998e-07 1.56966e-05 5.35591e-06 -4.29403e-05)
(5.20719e-05 -4.83801e-05 4.40846e-06 1.30222e-05 -1.73437e-06 -3.75779e-05)
(1.38851e-05 -2.1564e-07 3.38458e-07 -4.14491e-06 -5.45303e-07 -3.61857e-06)
(-1.45492e-05 -5.00141e-05 1.91482e-06 6.55756e-05 -5.31495e-06 -3.5001e-05)
(1.12508e-05 -5.22427e-07 1.98561e-07 -7.53748e-08 9.62083e-07 -4.92289e-06)
(8.87786e-06 -9.23548e-08 -2.79897e-08 4.47146e-06 6.0769e-07 -5.39503e-06)
(4.78452e-06 4.11733e-08 1.26992e-07 8.45435e-06 4.58078e-07 -5.38527e-06)
(1.05867e-06 2.24688e-08 1.48651e-07 1.14858e-05 1.9535e-07 -5.15209e-06)
(-8.70897e-07 -3.24065e-07 6.63666e-08 1.21879e-05 7.65369e-08 -5.04278e-06)
(-4.52109e-07 -1.11576e-06 2.41063e-07 1.16789e-05 4.90495e-08 -5.05752e-06)
(-1.63399e-08 -1.99839e-06 3.35759e-07 1.12726e-05 2.99342e-08 -5.12605e-06)
(2.65398e-07 -2.93652e-06 4.53729e-07 1.11119e-05 -6.57201e-08 -5.27576e-06)
(4.4875e-07 -3.91415e-06 5.97593e-07 1.12971e-05 -1.89435e-07 -5.67289e-06)
(6.22211e-07 -5.03656e-06 7.51136e-07 1.19079e-05 -5.12139e-07 -6.39244e-06)
(7.69797e-07 -6.24214e-06 7.52657e-07 1.31713e-05 -8.59087e-07 -7.6728e-06)
(1.61566e-07 -6.77452e-06 2.57164e-07 1.50809e-05 -1.38924e-06 -8.66673e-06)
(-1.10648e-06 -8.77352e-06 4.16492e-07 2.00204e-05 -2.52626e-06 -1.08827e-05)
(-1.86597e-06 -9.87238e-06 -1.42037e-06 2.37634e-05 -3.71203e-06 -1.40046e-05)
(-8.5529e-06 -1.05566e-05 -5.81076e-06 2.89268e-05 -7.07193e-06 -1.52897e-05)