/*--------------------------------*- C++ -*----------------------------------*\
| =========                 |                                                 |
| \\      /  F ield         | OpenFOAM: The Open Source CFD Toolbox           |
|  \\    /   O peration     | Version:  v2012                                 |
|   \\  /    A nd           | Website:  www.openfoam.com                      |
|    \\/     M anipulation  |                                                 |
\*---------------------------------------------------------------------------*/
FoamFile
{
    version     2.0;
    format      ascii;
    class       volScalarField;
    location    "1";
    object      sigmaHyd;
}
// * * * * * * * * * * * * * * * * * * * * * * * * * * * * * * * * * * * * * //

dimensions      [1 -1 -2 0 0 0 0];


internalField   nonuniform List<scalar> 
5880
(
-2.90948e+06
-2.57274e+06
-2.57274e+06
-2.57274e+06
-3.58508e+06
-1.40827e+06
-98804.6
-53015.7
-389761
735554
884597
-279875
-2.09026e+06
-1.70692e+06
-1.70692e+06
-918354
-2.16542e+06
-2.16542e+06
158201
78613.5
-304721
867183
288232
-153028
-780551
-582522
-582522
-582522
-484622
-582522
693444
720539
522510
720539
1.32446e+06
788196
481367
644917
644917
644917
712574
644917
1.33463e+06
1.29719e+06
1.13364e+06
484185
718794
1.30758e+06
1.65939e+06
1.68506e+06
1.68506e+06
872057
1.6479e+06
1.6479e+06
2.77272e+06
3.95976e+06
2.00995e+06
1.70639e+06
2.19965e+06
1.42381e+06
-2.11799e+06
-1.50539e+06
-751118
-2.9583e+06
-2.25419e+06
-1.87269e+06
-222982
1.28525e+06
-81622.3
-518495
199157
120076
-1.5021e+06
-1.54051e+06
-1.07759e+06
-1.84364e+06
-2.02019e+06
-1.11576e+06
200208
317316
-107191
938022
462197
33591.2
-667242
-546949
-376014
-1.12809e+06
-595908
-591818
640848
881901
590673
765869
1.13291e+06
1.09012e+06
78709.9
345527
546523
229495
148698
358067
1.84972e+06
2.05781e+06
1.58999e+06
1.83152e+06
1.38309e+06
1.25452e+06
303346
-58476.3
704298
-141748
-289247
-6669.2
2.18142e+06
1.53633e+06
1.66056e+06
1.83261e+06
2.02574e+06
1.4581e+06
-1.67549e+06
-3.01538e+06
-1.12481e+06
-2.02205e+06
-1.11892e+06
-531264
-187033
452944
-97737
-42628
86423.1
321273
-1.24301e+06
-1.24264e+06
-935244
-1.44804e+06
-1.51416e+06
-981647
38471.2
273055
-34708.5
1.21234e+06
340399
243760
-674085
-425459
-375283
-1.25528e+06
-606385
-664254
814845
1.11832e+06
819515
1.10046e+06
1.18788e+06
596852
-364572
-177318
82406.4
-195174
-666380
-89375.4
1.4947e+06
1.68387e+06
1.23689e+06
1.63631e+06
1.37518e+06
1.26939e+06
-85748.6
-196707
175164
78425.1
-881520
-16281.1
1.9782e+06
1.55327e+06
1.23747e+06
1.72856e+06
1.62769e+06
1.08329e+06
-1.62576e+06
-1.28061e+06
-1.13249e+06
-1.77619e+06
-1.54823e+06
-1.13332e+06
-128008
325407
-167858
-102939
781564
138701
-1.01269e+06
-1.08145e+06
-1.00827e+06
-1.14883e+06
-1.63115e+06
-662575
160893
246919
242500
247345
428270
280510
-624827
-567665
-572335
-567239
-605217
-991010
734555
899227
846735
1.0102e+06
677687
1.10146e+06
-416058
-309297
-51488.4
-198327
-589352
-222432
1.10688e+06
1.35351e+06
988938
1.41823e+06
1.11241e+06
1.13651e+06
-232920
-494657
65396
42409.1
-532929
-84637.4
1.89477e+06
1.44546e+06
915137
1.65362e+06
1.49328e+06
914343
-1.59481e+06
-1.13194e+06
-1.15669e+06
-1.56029e+06
-1.25312e+06
-1.04741e+06
-48152.8
265417
-172705
-103670
251574
-261307
-752567
-877612
-959219
-956211
-933783
-966947
201401
217092
423744
190375
187336
198072
-548675
-517877
-630057
-544595
-714000
-805262
509933
683278
764661
833058
575994
836661
-409942
-302134
-184194
-152355
-478305
-196584
736002
996786
771038
1.14682e+06
828152
872382
-280371
-648476
-22194.2
576.537
-506478
-172095
1.77202e+06
1.2893e+06
754440
1.54719e+06
1.41343e+06
862728
-1.4356e+06
-957574
-1.06861e+06
-1.32666e+06
-1.01653e+06
-961134
1125.18
219184
-147806
-122295
142665
-222861
-518124
-661714
-884057
-796690
-718704
-726401
198671
168493
534426
140102
152565
82276.3
-436522
-431801
-686529
-460192
-624801
-628404
300923
438340
688348
617434
373247
541459
-388284
-269742
-304778
-90647.9
-380829
-106386
398086
624151
540644
858343
584615
600353
-291032
-749147
-119167
-69346.9
-501602
-227941
1.61964e+06
1.11699e+06
678815
1.44066e+06
1.29964e+06
815704
-1.28343e+06
-828413
-988444
-1.16989e+06
-812262
-910017
26484.7
168945
-126040
-132756
86467.2
-173407
-315034
-461944
-797699
-617257
-508559
-450734
170685
115090
597755
93203.8
111448
-55074.8
-330910
-342453
-729877
-364339
-497183
-421207
141964
202861
601828
406546
204571
261439
-350308
-253314
-395872
-49628.5
-284025
-26035.9
138560
275479
321043
586019
376729
353136
-275418
-811604
-218407
-133565
-470609
-269119
1.43046e+06
910339
639471
1.25927e+06
1.36883e+06
742987
-1.11342e+06
-690604
-882697
-992305
-675253
-816300
41478
138113
-92607.1
-130204
14858.4
-161147
-152612
-269018
-696088
-438464
-354712
-206434
121246
52718.2
596194
51297.1
80499.6
-151531
-242854
-273113
-732977
-274534
-366833
-221726
30089.9
-3217.23
486906
218720
76420.1
23612.5
-312526
-248016
-430500
-26079.1
-198028
34854.5
-25274.7
-18193.1
99780.5
358384
222719
161785
-227692
-810278
-316824
-191672
-501822
-300188
1.25709e+06
719004
667824
1.08593e+06
928114
605306
-960219
-525683
-732168
-793999
-548911
-680253
72816.6
181216
-46835.8
-95977.4
-41102.4
-154848
-39734.7
-127043
-601992
-284161
-226588
-23759.7
49417.5
19249.6
581507
106495
90174.5
-170227
-223278
-216379
-673195
-129133
-249869
-54761.5
-107420
-165561
284356
159378
-2258.35
-76630
-261456
-281426
-406481
43514.1
-141902
54696.2
-78975.4
-273834
-128810
157956
98586.6
87404.4
-175980
-719825
-408020
-144327
-310351
-170199
820710
555584
567814
840843
743435
513864
-886395
-531405
-602330
-667993
-347648
-481242
13172.3
35452.8
-128916
-101135
-152906
-208845
-274924
-172551
-30462.9
-211600
-195347
-87636.9
284971
48093.6
-101316
9044.23
-28466.3
-19484.5
-208275
-279036
107251
-222000
-205311
-176782
316573
51295.2
-27745.9
108331
89586
63760.8
24230.3
-182919
161401
-106265
-108539
-63969.1
-24271.9
-87762.4
-169516
-11108.5
-22225.8
12507.8
-126686
-525991
-285247
-240731
-176838
117047
606757
542610
366013
419342
483875
125457
-469851
-398290
-454395
-539057
-294542
-324364
84065.5
131036
24264.4
91373.3
147203
-66780.9
-151785
-187495
-168531
-207000
-192743
309386
184787
150875
167967
276043
-134334
129958
-158459
-145783
-154397
-45214
-389393
70750.1
-63561.2
-36247.8
-40320.9
37813.8
-202292
-314624
-48323.4
12875.9
-92029.3
86937.5
-85482.4
210675
-333585
-351770
-308745
-220831
-340111
-461820
105829
-213520
152235
-47315.1
-21676.1
-109170
-163306
-539588
-451032
-373383
-222691
-134692
-420037
-220007
-395673
-259670
-414907
-291815
48616.3
134313
32736.6
124705
91177.6
92424.4
-214927
-241622
-230195
-205099
-329966
-202529
80800.6
83444.5
99288.4
141561
173182
-549953
-288511
-306556
-329592
-248440
-139827
188566
-1281.34
-45954.8
-4047.77
34827.4
-106306
-536466
-51611.7
-103126
-127036
-22343.4
-101285
125545
-233187
-340352
-264310
-216542
-273522
-417271
119056
-155059
81454.3
-72948.4
169200
-16723.4
-68212.2
-259765
-405601
-342114
-152461
-60776.1
-338742
-192692
-366390
-192521
-320456
-190797
20004.8
80534.4
38954.7
62485.5
-47464.6
-14452.1
-217584
-233991
-255061
-234090
-395756
245188
153004
105218
143072
186810
60996.7
26862.7
-218561
-298934
-298158
-284002
-238076
-293694
40623
-77729.2
2718.78
24854.7
-13019.9
11304
-42761.9
-157567
-125423
-54983
-78198.6
114395
-138851
-269155
-186141
-111290
-158216
-323648
191040
3044.14
121519
-11906.7
260882
47758.3
-247991
-446445
-486649
-569709
-253888
-292928
-257484
-170982
-267204
-189031
-171250
-159904
-13057.8
104735
43589.6
108039
72375.3
42477.4
-239041
-190557
-184485
-195293
-305189
-187337
151234
147425
93598
176661
141043
-326248
-246573
-286671
-251169
-257435
-364642
187019
53229.2
-61294.8
-55222.8
35985
66789.7
-368658
-97687.8
-185135
-137299
-87855.4
-36439.2
170545
-87010.7
-268269
-228516
-121450
-92649.6
-342619
134441
-49977.2
57235.9
-160311
263106
-28945.7
-269668
-441764
-418911
-588985
-281761
-397277
-183114
-78496.9
-213790
-75192.5
-123365
-97502.3
-4022.5
92466.5
51867.9
109264
25363.7
48514.2
-234314
-204051
-151687
-209356
-274876
184677
140125
171482
89800.9
202343
214442
-175730
-283061
-292526
-190205
-261665
-243181
136675
77197.3
-20119.7
-110047
66853.1
109113
-282220
-144060
-229594
-90648.5
-142621
-89853
125153
-14592.5
-188941
-239797
-62027.3
-33840.9
-295068
69928.9
-57365.7
46175.7
-213349
115120
-115149
-206123
-410086
-350140
-556524
-242568
-321441
-56552.9
52075.5
-94041.3
68872.5
55259.7
24504.9
37731
107599
75285.4
127091
101079
154753
-170983
-157131
-110549
-169737
-188818
159976
122350
162317
102525
193636
232430
-93632.4
-304263
-330239
-152942
-298920
-253610
72126.3
111767
28349.3
-118732
107921
153508
-210069
-195618
-288601
-69043.7
-209029
-125200
97211.4
65647.7
-110384
-231692
587.395
55372.1
-242896
2019.53
-121075
22479.6
-295532
53811.5
-171999
-99901.6
-345236
-291508
-466712
-179949
-230245
68217.8
152302
21777.7
171794
182897
107000
102713
138839
117826
167957
172312
254436
-89305.2
-89809.1
-70102.4
-100433
-78551.4
186572
117851
162076
142762
197309
262335
-21016.7
-298670
-343638
-125823
-308406
-237607
58000.7
153560
87271.1
-80563.2
163686
231476
-126576
-238220
-345543
-57220.7
-269129
-155064
75019.9
152468
-22826.9
-195631
76776.6
157540
-176603
-67302.1
-216701
-10815.7
-386705
-30520.4
-228345
32999.1
-263073
-235929
-334393
-91425.4
-119150
172263
234768
117750
263886
302467
200916
163595
168487
159491
216956
266768
354589
-10990
-20145.1
-39455.7
-20486.3
36525.4
239097
143783
179024
206329
222455
307387
51712.1
-255476
-326742
-106072
-283311
-199810
68924.9
198184
147920
3331.01
225463
311936
-30694.2
-268304
-392538
-57204.6
-314995
-176171
60811.1
248129
85299.5
-114895
175722
272433
-90396.9
-136423
-333357
-52142.1
-477679
-125865
-275324
193170
-183148
-167068
-179356
17271.1
-3922.27
265771
296156
204754
344626
349232
254421
220610
178549
179034
255311
312348
426637
39735.9
1148.36
-50906
17737.7
99434.1
258953
201005
191793
279496
249422
370134
133397
-178694
-278947
-95200
-221317
-122661
114252
266750
216075
134868
304186
412605
88803.3
-271914
-415135
-68454.5
-327024
-189800
57075.9
372470
223484
30967.4
313039
413561
47592.5
-190755
-474325
-96311.7
-564441
-234764
-319626
379787
-48991.1
-28075.3
59293.5
195705
128613
300359
305851
246562
382614
429438
290543
269305
201235
193968
319309
372943
493517
135264
81381.5
19604.1
117325
203219
313504
296187
221181
332130
300863
439024
247201
-38425.2
-184577
-58516.8
-104895
-25822.3
172145
365738
266583
284138
372381
474063
210227
-198705
-379580
-57981.5
-273782
-174957
70037.3
493723
342748
209710
425215
511766
191077
-182332
-536442
-110292
-569477
-314143
-293519
513473
47266.2
122860
237009
383083
203244
291603
246109
276325
364182
397090
372391
409265
325301
250927
489047
477883
466416
171518
112975
89397.6
173226
230061
281452
437518
356658
432450
443398
504715
395219
56549.2
-72204
12044.2
14535.3
11319.5
160666
546848
424939
463207
517304
613737
471033
-120440
-266317
-1552.04
-173952
-147429
67399.3
740944
558132
442926
612981
754314
530487
-124531
-539036
-68788.4
-518479
-364433
-246342
675775
126063
378235
331348
806602
327752
188722
-25371.5
186233
181755
140749
195561
417380
229925
176092
437052
364969
364377
126854
-170827
66169.3
37997
-55807.6
29749.5
647564
343629
404700
552453
499058
452039
122614
-259812
-15693.5
-50283.9
-205733
-108639
804095
477839
528602
687367
574808
498869
47369.4
-389983
-109195
-188766
-404389
-237371
846896
633975
681561
835192
213535
563007
-182682
-716275
-417087
-510990
-476232
5787.18
881613
462367
421525
649229
732038
219738
703462
484953
776687
431760
495489
734799
123907
21127.4
-125150
-25125.4
33448.3
-401659
1.01374e+06
372492
553953
615099
1.05272e+06
592238
-38977.8
-69126.4
376477
325333
221990
135721
1.63491e+06
739101
980673
918734
1.04907e+06
746288
293097
131970
725411
312406
96630.8
323680
1.80036e+06
1.02008e+06
784322
1.20051e+06
1.14192e+06
825442
555843
225984
1.18178e+06
428783
122804
555079
2.52475e+06
1.05558e+06
1.46256e+06
1.47826e+06
1.24009e+06
1.44899e+06
1.06846e+06
444798
945670
867481
465682
613909
414340
267777
518408
221524
-81537.7
527918
420378
-39360.8
-198038
-270342
-67505
129369
608787
514171
100129
608130
548230
638945
212528
-339779
205076
35898.6
248305
522827
930456
694193
295765
1.06987e+06
634110
560648
474927
-31935.3
643041
335590
236892
732655
911009
770455
264426
1.13798e+06
888530
671562
604904
357580
1.03253e+06
708334
461445
916309
1.29118e+06
584746
471510
1.14281e+06
492492
918575
1.12241e+06
723295
651522
903818
394783
741887
368618
-14527.5
351981
13150.3
-67098.1
205933
412430
-309594
-378008
-185915
-14926
-251037
462278
-26520
6979.41
395425
635844
140943
153117
-455423
21567.1
92732.1
191901
-64044.7
701957
328844
213064
244188
644705
445916
361299
-140310
368432
126354
458746
209580
573720
446517
93321.5
713182
601128
386430
379642
238157
735971
530924
291838
611589
910934
420584
286038
908553
513682
825498
818557
613965
535333
739317
482352
331925
292211
-266220
118818
-142541
-100758
49935.1
328965
-508609
-477411
-371585
-109891
-289409
276809
-215119
-63296.8
253261
235276
211997
83157.7
-540266
-181917
-251260
-99486.5
109262
525010
70642
100021
359648
636028
39200.9
280802
-247115
194696
-13314.5
117684
443874
379560
261910
-49129
495710
366650
267136
205220
163191
607041
352690
327853
554900
661711
285650
192876
653162
283778
512142
548177
484125
426333
559436
447064
300378
246466
-412851
-178240
-275827
-88533.4
-65890.3
263375
-515996
-285599
-395987
-5223.61
-169657
194537
-280813
3894.65
137301
311441
-69769.3
28187.6
-550254
-354491
-288904
-152927
49568.9
440927
9990.96
114029
271341
493780
11910.6
222444
-213547
122044
-67995.4
10748.1
269417
274097
279311
-107331
424863
507102
316577
109572
141718
533778
234463
345892
451409
493389
301424
161231
576178
322988
576217
387480
413945
270650
457334
359396
177738
176161
-493414
-383681
-373404
-131406
-114765
179408
-451986
-106814
-348125
-26833.9
-206043
73203.5
-308430
94417.8
65594.3
213293
-139446
7434.77
-430965
-455870
-235598
-171870
32452.3
355270
52843.4
159341
248210
404073
55043.1
193246
-136932
62391.9
-72802.5
-10623.6
183329
219851
323863
-104793
387992
508650
295551
51733.5
128099
460399
137651
244571
336907
370585
309740
151093
513354
153490
449205
269406
345890
153290
351367
270514
99489.3
77953.6
-519272
-541494
-415411
-153651
-145271
91935.2
-369250
36267.8
-287522
-20407.5
-199412
-50696.9
-322393
161556
-6358.53
92165.8
-186967
17054.3
-287213
-508802
-158521
-154670
26476
252237
69835.6
202018
198528
284921
19832.5
185668
-35766.8
14083.4
-43275.7
-61747.9
118630
170345
339476
-85262.7
331967
448354
256104
13262.2
109041
369887
57515.3
148905
226111
261284
305503
125671
452178
25472.6
328533
165196
284738
36938.3
247183
129853
-2011.88
-9991.6
-515999
-635940
-434270
-177572
-189899
4085.09
-286512
141066
-224123
1111.8
-153066
-167014
-326286
221389
-80388.2
-39546.7
-232226
72449.1
-113030
-514275
-50315.8
-120977
31056.6
136507
69770.8
241701
132485
162643
-3472.69
200930
80621.2
-27404
13606.1
-67335.2
70234.5
104256
319861
-58373.9
252846
372398
211147
-22813.7
85101.5
251174
-4821.05
64824.6
108614
135788
234549
60269.2
334756
-103388
164934
65498.3
200725
-91048.9
113651
-176714
-102821
-75836.5
-496152
-663181
-433763
-183059
-239488
-54155.9
-177162
239301
-119620
69284.3
-40233.3
-254383
-336829
272942
-167781
-174460
-259632
188805
75418
-466934
72846.5
-60495.4
30354.6
15791
51673
281199
49101.6
43128.2
-14201.7
226806
189155
-80805.9
74199.5
-43368.6
21080.4
6825.99
255879
-40203.7
140924
268328
161315
-65156.4
41593.7
90683
-74579.8
-28932.2
-46995.6
-38456.6
116499
-76584.2
162028
-196049
-49301.3
-100438
157223
-239818
-50129.3
-246765
-132682
-81982.2
-417576
-602767
-360033
-99284.7
-242697
99803.1
67046.8
454399
147984
219380
175244
-295260
-358434
319140
-284783
-313990
-271671
289865
278404
-351278
193215
26977
12954.2
-118548
13753
325085
-71436.1
-69526.7
-14837.4
178710
250727
-199334
97774.9
-5953.63
-60771.5
-118067
168834
-5529.28
15881.9
115287
94975.1
-91367.6
39247.1
-72869.2
-112952
-151268
-227713
-222091
79804
-184384
-18384.1
-231740
-297150
-135858
13136.8
-228835
-358704
125892
-148638
79843.3
-238986
-391266
-158049
67485.5
-195905
487039
389182
768038
450445
377865
461778
-223383
-227174
430529
-335399
-390700
-208006
375403
501672
-164393
319220
297247
169239
-254557
-97674.2
289092
-280126
-237925
-72847.5
218285
376085
-173977
181196
18653.9
-188971
-365698
-7704.15
-42954
-202592
-125463
725.358
-86454.3
49612.4
-273459
-105617
-317122
-518837
-400062
-7845.03
-323368
-233020
-583866
-556965
-410840
-72169.8
-290490
-510237
169920
-199619
494162
190139
84460.3
336018
407228
344569
862366
565839
900761
711718
532699
362030
41761.9
-204578
-241619
-173520
-454511
-291437
421269
584458
569151
382772
313220
165712
-136228
-249287
-461467
-256058
-543236
-475661
81356.3
228594
139885
-9054.15
-175713
-45334.5
-459138
-474548
-705809
-382340
-652457
-615334
-263328
-84930.5
-406166
-368866
-472711
-539897
-890934
-197928
-691876
-635996
-905302
-1.17715e+06
-731663
-346871
-320889
-483751
-511125
-210354
-759803
-765006
-543052
-540971
-622472
-651048
-314446
-171794
-388183
-185493
-271840
-252851
-954085
-903748
-824025
-953991
-902502
-838847
-94786.2
-189923
-611491
-240167
-32775.3
-220127
-913240
-944911
-823744
-952970
-970696
-524413
-106674
-153603
-489294
-161662
-182553
-325641
-916293
-920912
-755040
-811728
-616264
-697056
-188104
-99989.3
-414473
-136289
-234807
-288751
-883091
-835840
-674319
-544439
-903097
-686062
-434425
-422265
-453241
-454639
-571471
-677878
-588680
-667820
-757276
-526240
-225156
-594223
-66492
-204063
-43258.4
150410
73267.4
-458065
-735934
-938031
-448597
-833507
-852464
-617673
66389.7
-45742
-330455
91333
-128958
-54881.9
-849007
-867275
-497493
-730200
-823364
-837956
-26129
-7182.03
-354326
-70837.5
28822.6
-318160
-935779
-819182
-601111
-882838
-716508
-535832
-73383.5
17379.8
-313365
-190886
-212067
-555142
-936240
-768748
-754402
-793246
-773479
-568851
-409486
-310533
-270272
-211504
-493506
-251475
-545156
-473704
-654978
-682451
-197943
-249380
-147939
101364
208214
70421.5
204867
83605.7
-708338
-616681
-229217
-968867
-794416
-655356
63001.4
176023
-298610
-165710
20840.6
96214.8
-961320
-800001
-485223
-713500
-695835
-637186
66996.5
184915
-284017
54683.6
-55615.2
37544.3
-927048
-716883
-485650
-847115
-887705
-544363
48351.8
195681
-237558
-48014.5
-23014.8
-321646
-995210
-668378
-699208
-772070
-836459
-631732
-251615
-190728
-147046
-155792
-364876
-125585
-549320
-327695
-698926
-358637
-669354
-399270
-54818.8
187405
330161
198875
271251
262320
-614309
-457175
-111437
-811752
-600720
-669366
79448.9
271794
-225903
124811
60427.2
-144434
-883829
-658289
-319465
-805272
-817825
-355212
68694
336329
-219470
127136
124392
-320867
-934027
-655737
-378616
-864930
-739511
-484391
65517.2
254853
-288362
-4201.16
113233
-262788
-1.08415e+06
-683224
-674201
-835485
-809170
-662378
-125469
-123081
-51195.2
-111874
-272048
-76565.3
-394154
-218839
-485100
-207369
-426134
-309794
72299.2
413735
486676
373043
365823
386523
-507144
-307513
-16508.6
-678981
-611700
-340569
156575
385779
-99238.1
152641
346863
7696.31
-733688
-440533
-162061
-673671
-748855
-323886
117812
377765
-185146
113815
83225.2
95770.8
-854869
-603162
-260845
-652867
-746792
-653941
121784
269752
-311252
228751
69166.9
129728
-1.04233e+06
-696754
-657536
-685547
-764804
-734302
-39795.9
-28682.5
28979.9
3588.85
-195798
-76142
-232962
11195.3
-330575
-29496.7
-102318
-319052
171043
477937
544495
621475
558993
381728
-383870
-194286
49018.2
-283890
-539318
-296741
239255
455781
27788.6
428779
161503
311501
-590389
-341910
-52149.9
-368913
-419438
-392900
168148
456129
-72344.5
297903
212425
-104164
-774072
-540450
-123200
-698677
-584014
-310911
211912
376521
-256554
192685
204228
-176532
-944773
-577262
-559641
-761319
-768076
-546091
97601.2
31196.9
56607.1
45837.7
-111558
44225.6
-97316.7
139835
-211450
61819.5
190676
-63847.4
206204
668971
749665
620663
545714
587093
-258705
-5070.5
200564
-336337
-314502
-118453
357840
641605
189356
463411
470402
250402
-456348
-103030
128462
-281224
-431422
-43975.9
320960
539254
-32855.4
403235
314659
79813.7
-551244
-346889
98172.6
-482907
-560048
-207989
362874
468463
-160675
311231
241840
-27252.2
-730848
-457429
-356836
-631880
-646088
-485797
264586
119577
136591
163617
64479.6
209252
37041.5
303117
-129488
254809
272351
85952.2
248533
781305
893368
764562
674119
772941
-94925.8
150828
319791
-129078
-89588
120851
550642
742486
336030
589887
605194
354303
-302569
-24952.2
306302
-177552
-252269
59688
527215
681841
88979.8
556887
456111
220327
-298385
-149154
348027
-274109
-350363
-26453.5
612357
601361
-20809.6
465462
417648
173356
-433840
-239136
-79461.5
-411215
-399603
-254840
431694
172056
273587
295175
349280
426602
182786
457630
-49249.3
440887
295071
170953
304216
899679
1.03962e+06
877624
684381
890274
110194
271229
481430
-9277.16
40800.9
265138
802031
980041
619719
804738
782077
505527
-87474.2
106793
514766
-68510.6
-144450
179087
755785
900168
320921
730887
559531
310474
-28308.9
37515.4
638450
-131766
-166159
116556
960943
854739
225996
610929
483451
229257
-131756
35634.8
264078
-237959
-103296
-45629.7
742632
594402
310541
587105
517960
349569
298967
635683
182371
613627
298954
298475
582901
1.17929e+06
1.09707e+06
1.16017e+06
904494
1.12341e+06
331806
389858
566363
92723.8
126093
406880
1.05125e+06
1.31351e+06
1.08572e+06
1.07426e+06
1.0789e+06
761858
170523
255129
658113
15877.7
-75289.7
330922
1.05125e+06
1.20538e+06
740011
962794
834592
519041
329517
208046
913323
-34535.4
-67102.4
298066
1.4275e+06
1.13333e+06
595124
804131
746673
414976
195766
370036
592353
-46576
64478.5
286362
1.15982e+06
485201
867029
625820
617038
1.0841e+06
433921
724868
691671
705744
239338
575496
1.703e+06
1.68194e+06
947374
1.58922e+06
1.17817e+06
1.3466e+06
541371
560989
522890
220586
291958
578819
1.61074e+06
2.0915e+06
2.08242e+06
1.70165e+06
1.69481e+06
1.32833e+06
299262
426403
705817
36545.5
-59023.8
376712
1.52812e+06
1.9891e+06
1.56795e+06
1.60679e+06
1.96541e+06
1.61199e+06
619200
351251
1.16069e+06
-31051.2
-45639.5
338194
1.98212e+06
1.88154e+06
1.37005e+06
1.50301e+06
1.67217e+06
1.30947e+06
595139
363657
972747
-18751.3
252832
380653
2.15113e+06
908725
1.77051e+06
1.03494e+06
1.71041e+06
1.37731e+06
630431
460472
810635
559537
90293.7
339206
2.5975e+06
2.69957e+06
1.60247e+06
2.79864e+06
2.02136e+06
2.44217e+06
851096
178337
1.09224e+06
315089
-189957
229513
2.3771e+06
3.45358e+06
1.5038e+06
3.59033e+06
1.27239e+06
2.93929e+06
775669
35893.2
923157
219869
-440479
202369
2.56913e+06
3.24683e+06
1.80918e+06
3.43081e+06
1.87272e+06
2.65536e+06
880584
-303771
509720
18947.5
-403132
-273482
2.68252e+06
3.22343e+06
2.07536e+06
3.54615e+06
2.17202e+06
2.95493e+06
920579
-353849
-166727
-227639
-374940
558251
2.78408e+06
2.03107e+06
2.43938e+06
2.40736e+06
1.61337e+06
1.47827e+06
3.01567e+06
2.01395e+06
2.04936e+06
1.94286e+06
1.6808e+06
1.48357e+06
-48358.4
106615
633589
69271.3
217916
161583
3.01662e+06
2.35875e+06
2.14573e+06
2.61164e+06
2.39446e+06
2.79437e+06
-141220
51456.4
839771
240011
-60514.1
-120483
3.0668e+06
2.61064e+06
2.23338e+06
2.79767e+06
2.61132e+06
2.45669e+06
345769
-77656.2
631559
161613
-220446
134815
3.53971e+06
2.87975e+06
2.61739e+06
3.11902e+06
2.52064e+06
2.27357e+06
1.13169e+06
-199673
624187
123428
-506880
366680
3.95044e+06
2.75803e+06
3.17236e+06
3.04046e+06
1.78197e+06
2.37835e+06
597576
-466256
510875
-183830
-172856
-37212.5
1.24129e+06
1.16699e+06
1.81417e+06
1.12965e+06
400021
1.56679e+06
855068
850008
286371
304046
242206
608528
1.32809e+06
1.76363e+06
727396
1.67547e+06
1.08935e+06
1.52344e+06
460139
202021
860175
687594
415359
884982
1.64092e+06
1.30063e+06
951097
1.7862e+06
1.40078e+06
1.39055e+06
666204
391845
1.12752e+06
829294
83031.6
476154
2.33927e+06
1.2164e+06
1.71906e+06
1.65385e+06
1.44027e+06
1.08259e+06
1.12444e+06
407089
1.03061e+06
788767
179696
773843
2.17321e+06
1.08575e+06
1.33036e+06
1.35339e+06
1.18316e+06
1.13563e+06
904603
253702
880422
521341
614608
564004
892436
665354
1.515e+06
599167
347498
585086
910368
527470
-53466.4
432157
659380
502179
1.15905e+06
840160
435920
1.31065e+06
1.12438e+06
913969
671565
335010
1.09329e+06
953154
420096
178467
1.27038e+06
1.094e+06
625731
1.1376e+06
995951
797561
728482
280197
952952
686046
510532
471985
1.55228e+06
959036
1.10974e+06
1.04645e+06
807207
1.01242e+06
873822
497975
952694
586949
356713
563633
1.64103e+06
908473
1.02284e+06
1.01071e+06
874727
990281
626652
207270
662666
492443
368582
501569
543210
139622
974881
44309.2
566160
55473.3
805045
568855
174644
207245
584700
608968
892081
682948
247469
716991
340760
1.35247e+06
672923
113795
780575
538214
481690
605470
1.05981e+06
640674
440092
1.06509e+06
721734
714723
695118
217840
856412
599579
296519
623895
1.17809e+06
752788
713284
1.13453e+06
674513
751244
697766
335194
810237
593483
281478
650437
1.20729e+06
652967
663411
978709
947958
859020
652911
437809
639418
763551
327355
628250
161299
-46567.4
515855
-54342.3
21230.3
60802.5
500109
429843
97973.1
378668
533258
351829
568393
267054
173378
592543
458193
389970
565226
234767
632272
728243
441021
306821
811928
560206
413088
526119
713278
557418
619213
324625
727265
412549
509211
478947
932661
732095
640231
649687
718063
652190
619842
432260
727870
417105
438871
434627
989972
683976
684119
792128
518172
745994
623356
364382
566885
648433
398380
580692
-213878
-268579
159262
-319755
-221085
-178681
315093
384359
37646.2
114692
461605
380555
320190
103487
48476.7
177224
23942.1
490788
484861
172120
443812
398665
331195
310945
606206
334714
238682
561259
406916
491411
547917
225143
595397
435803
387678
448327
737880
495973
402796
706634
555679
510086
526103
280336
617971
443466
348396
539848
805840
454531
483165
736510
674161
711128
583803
325406
498818
607384
377993
469118
-550989
-479284
-130440
-605905
-471024
-393390
126306
272339
-116780
116487
413603
176568
54795.4
-173949
-114009
6766.54
-89789.8
10320
388740
128261
294779
308562
336858
323144
381817
146104
109943
326405
329927
325618
465216
217077
489961
380142
411727
405099
556493
361559
281285
524624
553395
455444
470610
253099
529720
531186
414935
360849
649804
348686
392228
622608
549406
677247
520270
282775
440068
556697
397724
451978
-833615
-656105
-355959
-811958
-621755
-528324
-25118.9
360228
-88761.6
142683
333295
45916.4
-167269
-307885
-194011
-418233
-293124
-194369
305033
190748
210162
233690
322305
202731
181958
92658
79519.2
-16448.7
35375.5
66282.5
389108
261225
360875
288806
315465
473630
400390
316931
269328
344513
357431
149900
449468
394477
525033
410398
400177
298841
531887
419521
451784
576803
289930
425972
458225
264393
388471
487692
404143
377998
-1.12723e+06
-780878
-587515
-998423
-758242
-740891
-124040
340141
-162251
-40872.1
395830
151117
-333525
-451537
-337231
-649427
-360673
-552080
215802
75197.1
71501.2
57413.4
334763
200296
-10112.2
-136749
-93075.6
-154533
-216211
16993.6
316674
234937
314905
306334
228790
316075
250427
196377
128154
267774
154109
217354
386928
325777
447303
386603
338872
387309
396057
291722
321473
478599
385375
471676
420615
241170
332718
428047
348829
329861
-1.31604e+06
-873453
-749073
-1.16661e+06
-823593
-849730
-250349
230802
-294227
-128875
388743
61774.8
-487220
-627545
-460326
-618670
-586903
-460121
92668
52935.2
19024.4
92003.9
167648
-1251.87
-207590
-240869
-226184
-201800
-130165
-133910
220420
232853
247774
260131
280898
207721
88397.5
115155
61783.1
142434
174891
182538
314213
337568
362614
340581
374384
331936
255438
222430
277241
368145
373421
447657
380770
259156
297367
404871
303320
274455
-1.43807e+06
-907479
-805471
-1.26716e+06
-897617
-874508
-330558
198029
-395942
-216405
202103
-186967
-569839
-680422
-589945
-677875
-713841
-604932
-95619.4
-18754.8
-2609.02
13784.2
189713
110651
-400386
-354137
-371481
-321598
-255239
-190148
62748.1
206719
174398
217672
343459
205840
-109651
16246.2
-25865.1
27199.7
149062
166779
230431
345034
259102
333320
440688
297802
115802
185097
243814
320496
361209
471419
345848
195925
254386
331325
314548
254044
-1.54361e+06
-898576
-959229
-1.32783e+06
-816280
-994972
-217006
35535.8
-419638
-393718
-227616
-607358
-706563
-711614
-510267
-932450
-938089
-725575
38433.6
-29749.8
139216
-15913.4
-161498
68421.1
-472853
-425753
-292008
-608732
-645907
-475988
204177
167872
318045
155798
107158
337531
-116244
-73021.2
-15953.7
-235453
-180302
-139779
243318
275243
383614
218421
278436
470783
121495
74248.5
174356
184261
268343
219732
332753
199845
224893
236183
234788
284870
2.90905e+06
3.85762e+06
705889
3.81049e+06
1.94302e+06
1.84857e+06
208084
150651
1.6676e+06
194431
-325390
394583
2.23457e+06
2.9802e+06
1.74857e+06
3.01692e+06
2.94605e+06
2.77245e+06
404441
335351
883322
98796.7
-476137
-63951.5
2.04516e+06
2.57623e+06
1.80574e+06
2.46192e+06
1.78923e+06
1.99379e+06
479414
131233
482946
119409
-149806
-27538.2
1.78178e+06
1.87399e+06
1.81403e+06
1.86217e+06
1.5952e+06
1.34809e+06
812763
126337
254966
191631
-304153
164718
1.32098e+06
1.74713e+06
1.29471e+06
1.66738e+06
1.00191e+06
1.11901e+06
508332
145674
424314
65924.6
-54169
123870
1.41379e+06
1.64638e+06
1.33586e+06
1.69016e+06
331805
1.49593e+06
830457
731607
774401
609981
-52991.3
372235
1.31301e+06
1.67742e+06
1.07626e+06
1.53671e+06
1.00521e+06
901747
675558
586114
808144
673217
575667
829349
1.0742e+06
1.08158e+06
1.00593e+06
1.16868e+06
987301
1.02787e+06
499476
629118
676496
694811
204817
344288
1.29219e+06
826089
1.36514e+06
891783
782004
723576
771320
519316
459449
702581
347780
488237
1.16998e+06
809161
1.015e+06
810862
730493
646333
629288
439417
727988
441117
579171
542741
1.29639e+06
945487
1.448e+06
914111
471238
619884
787164
579874
483474
610964
403725
465520
1.1227e+06
1.17327e+06
949152
1.28929e+06
1.10585e+06
854630