/*--------------------------------*- C++ -*----------------------------------*\
| =========                 |                                                 |
| \\      /  F ield         | OpenFOAM: The Open Source CFD Toolbox           |
|  \\    /   O peration     | Version:  v2012                                 |
|   \\  /    A nd           | Website:  www.openfoam.com                      |
|    \\/     M anipulation  |                                                 |
\*---------------------------------------------------------------------------*/
FoamFile
{
    version     2.0;
    format      ascii;
    class       pointVectorField;
    location    "2";
    object      pointD;
}
// * * * * * * * * * * * * * * * * * * * * * * * * * * * * * * * * * * * * * //

dimensions      [0 1 0 0 0 0 0];


internalField   nonuniform List<vector> 
530
(
(0.000722358 0 -5.82303e-22)
(0.0010117 0 -2.70194e-22)
(0.00093144 -8.96044e-05 -1.45181e-21)
(0 -0.000514076 -5.85021e-22)
(0 -0.00041826 -2.13055e-21)
(0.000722358 0 -5.82303e-22)
(0.0010117 0 -2.70194e-22)
(0.00093144 -8.96044e-05 -1.45181e-21)
(0 -0.000514076 -5.85021e-22)
(0 -0.00041826 -2.13055e-21)
(0.000734978 0 0)
(0.000741691 0 0)
(0.000747943 0 0)
(0.000756801 0 0)
(0.000769074 0 0)
(0.000785185 0 0)
(0.000803953 0 0)
(0.000824502 0 0)
(0.00084782 0 0)
(0.000872719 0 0)
(0.000898637 0 0)
(0.000929435 0 0)
(0.000960089 0 0)
(0.000988831 0 0)
(0.00101744 -2.6154e-06 8.46105e-23)
(0.00101305 -5.59958e-06 1.01925e-21)
(0.00100606 -9.92802e-06 -7.04958e-23)
(0.00099686 -1.601e-05 -1.42516e-21)
(0.000985934 -2.4213e-05 -1.35357e-22)
(0.000974565 -3.5044e-05 1.12378e-21)
(0.00096413 -4.71333e-05 -1.91735e-22)
(0.000954844 -6.05406e-05 -1.52431e-21)
(0.000946502 -7.58036e-05 -1.81018e-21)
(0.000902987 -9.88365e-05 -6.09075e-22)
(0.000870312 -0.000104794 -1.53751e-23)
(0.000834437 -0.000109768 -5.7405e-22)
(0.000794926 -0.000113733 -1.17641e-21)
(0.000756399 -0.000116419 -1.79859e-22)
(0.000715566 -0.000118998 2.34097e-22)
(0.000670923 -0.000122285 3.75815e-22)
(0.000618669 -0.000128132 7.78143e-22)
(0.000565502 -0.000136733 7.5851e-22)
(0.000504722 -0.000151043 1.55272e-21)
(0.000438859 -0.000171819 1.19654e-21)
(0.000388158 -0.000192185 0)
(0.000325015 -0.000224758 6.2153e-22)
(0.000250892 -0.000271051 -2.88709e-21)
(0.000191309 -0.000318884 -2.2896e-21)
(0.000135302 -0.000374442 7.44773e-22)
(8.58702e-05 -0.000429711 -8.30668e-22)
(5.00947e-05 -0.00047361 8.55703e-23)
(2.26518e-05 -0.000504227 -1.43035e-22)
(0 -0.000505139 0)
(0 -0.000487818 0)
(0 -0.000471192 0)
(0 -0.000451589 0)
(0.000167333 -0.00038655 -4.28578e-21)
(0.000304557 -0.000351753 -2.16574e-21)
(0.000428798 -0.000305031 -2.19777e-22)
(0.00052997 -0.000253974 1.03487e-21)
(0.000609853 -0.000189569 -1.03446e-21)
(0.00066898 -0.000124879 -1.31384e-21)
(0.000703115 -6.75466e-05 3.95833e-22)
(0.000734978 0 0)
(0.000741691 0 0)
(0.000747943 0 0)
(0.000756801 0 0)
(0.000769074 0 0)
(0.000785185 0 0)
(0.000803953 0 0)
(0.000824502 0 0)
(0.00084782 0 0)
(0.000872719 0 0)
(0.000898637 0 0)
(0.000929435 0 0)
(0.000960089 0 0)
(0.000988831 0 0)
(0.00101744 -2.6154e-06 8.46105e-23)
(0.00101305 -5.59958e-06 1.01925e-21)
(0.00100606 -9.92802e-06 -7.04958e-23)
(0.00099686 -1.601e-05 -1.42516e-21)
(0.000985934 -2.4213e-05 -1.35357e-22)
(0.000974565 -3.5044e-05 1.12378e-21)
(0.00096413 -4.71333e-05 -1.91735e-22)
(0.000954844 -6.05406e-05 -1.52431e-21)
(0.000946502 -7.58036e-05 -1.81018e-21)
(0.000902987 -9.88365e-05 -6.09075e-22)
(0.000870312 -0.000104794 -1.53751e-23)
(0.000834437 -0.000109768 -5.7405e-22)
(0.000794926 -0.000113733 -1.17641e-21)
(0.000756399 -0.000116419 -1.79859e-22)
(0.000715566 -0.000118998 2.34097e-22)
(0.000670923 -0.000122285 3.75815e-22)
(0.000618669 -0.000128132 7.78143e-22)
(0.000565502 -0.000136733 7.5851e-22)
(0.000504722 -0.000151043 1.55272e-21)
(0.000438859 -0.000171819 1.19654e-21)
(0.000388158 -0.000192185 0)
(0.000325015 -0.000224758 6.2153e-22)
(0.000250892 -0.000271051 -2.88709e-21)
(0.000191309 -0.000318884 -2.2896e-21)
(0.000135302 -0.000374442 7.44773e-22)
(8.58702e-05 -0.000429711 -8.30668e-22)
(5.00947e-05 -0.00047361 8.55703e-23)
(2.26518e-05 -0.000504227 -1.43035e-22)
(0 -0.000505139 0)
(0 -0.000487818 0)
(0 -0.000471192 0)
(0 -0.000451589 0)
(0.000167333 -0.00038655 -4.28578e-21)
(0.000304557 -0.000351753 -2.16574e-21)
(0.000428798 -0.000305031 -2.19777e-22)
(0.00052997 -0.000253974 1.03487e-21)
(0.000609853 -0.000189569 -1.03446e-21)
(0.00066898 -0.000124879 -1.31384e-21)
(0.000703115 -6.75466e-05 3.95833e-22)
(0.000603011 -5.82477e-05 0)
(0.000804447 -3.88053e-05 0)
(0.000374971 -0.000196113 0)
(0.000661476 -6.37397e-05 0)
(0.000747106 -2.00157e-05 0)
(0.000861349 -6.34784e-05 0)
(0.000909975 -2.21586e-05 0)
(0.000179355 -0.00037446 0)
(0.000667881 -3.56875e-05 0)
(0.000470328 -0.000128718 0)
(0.000829759 -1.63931e-05 0)
(0.000740509 -7.50827e-05 0)
(0.000731013 -1.24606e-05 0)
(0.000532808 -0.000110587 0)
(0.00091512 -3.88449e-05 0)
(0.000554996 -0.000100579 0)
(0.00073692 -3.90783e-05 0)
(0.000676496 -4.06597e-05 0)
(0.000246546 -0.000299382 0)
(0.000306492 -0.000282126 0)
(0.000882797 -1.18751e-05 0)
(0.000793378 -8.75376e-05 0)
(0.000965965 -9.68576e-06 0)
(0.000887565 -7.95549e-05 0)
(0.000501301 -0.000109728 0)
(0.000344734 -0.000210223 0)
(0.000657535 -9.26414e-05 0)
(0.000801811 -8.89344e-06 0)
(0.00085655 -4.5217e-05 0)
(0.000854513 -2.58465e-05 0)
(7.75889e-05 -0.000461939 0)
(0.000595541 -7.05497e-05 0)
(0.000952342 -2.2548e-05 0)
(0.000917083 -5.333e-05 0)
(0.000800451 -6.24063e-05 0)
(0.000123818 -0.00041862 0)
(0.000684887 -2.93666e-05 0)
(0.00077304 -6.95312e-06 0)
(0.000726359 -1.19167e-05 0)
(0.000710561 -2.72447e-05 0)
(0.000600579 -6.02864e-05 0)
(0.000624155 -7.99354e-05 0)
(0.000730859 -5.5409e-05 0)
(0.000786143 -2.10673e-05 0)
(0.00046718 -0.000140878 0)
(0.000149987 -0.000392158 0)
(0.000600054 -0.000102933 0)
(0.00092131 -9.07081e-06 0)
(0.000844154 -8.9875e-05 0)
(0.000456739 -0.000186435 0)
(0.000854345 -7.77637e-06 0)
(0.000750582 -9.32196e-05 0)
(0.000680631 -2.65001e-05 0)
(0.000431863 -0.000150939 0)
(0.00054185 -8.71813e-05 0)
(0.000257359 -0.000302478 0)
(0.000377134 -0.000187061 0)
(0.000225398 -0.000352188 0)
(0.000900302 -3.21183e-05 0)
(0.000772918 -5.45108e-05 0)
(0.000813063 -2.83407e-05 0)
(0.000754259 -4.88701e-06 0)
(0.000730316 -1.75109e-05 0)
(0.000416132 -0.000176093 0)
(0.000957763 -2.77889e-05 0)
(0.00026776 -0.000268706 0)
(0.000522069 -0.000102808 0)
(5.85444e-05 -0.000462969 0)
(0.00070225 -0.000101161 0)
(0.000832834 -4.79702e-06 0)
(0.000690934 -4.64277e-05 0)
(0.000606012 -7.79223e-05 0)
(0.000720293 -3.17139e-05 0)
(0.000550907 -0.000133282 0)
(0.000880886 -5.01201e-05 0)
(0.000926074 -6.11e-05 0)
(0.000979461 -1.34559e-05 0)
(0.000320201 -0.000233816 0)
(0.000515095 -0.000125645 0)
(0.000606035 -6.67678e-05 0)
(0.00084479 -3.63883e-05 0)
(0.000988216 -5.29809e-06 0)
(0.000912588 -8.23452e-05 0)
(0.000761234 -4.38947e-05 0)
(0.000943549 -4.00098e-05 0)
(0.000729035 -1.19587e-05 0)
(0.000707338 -2.74281e-05 0)
(0.000633297 -8.20998e-05 0)
(0.000686529 -7.06115e-05 0)
(0.000791125 -4.28906e-06 0)
(0.000770336 -1.1373e-05 0)
(0.000855819 -1.80709e-05 0)
(0.000804203 -1.5255e-05 0)
(0.000882296 -2.02697e-05 0)
(0.000631625 -5.20772e-05 0)
(0.000643835 -5.7038e-05 0)
(0.000819392 -4.90085e-05 0)
(0.000888662 -6.53478e-05 0)
(0.000943214 -1.82614e-05 0)
(0.000180497 -0.000355109 0)
(9.9283e-05 -0.000438186 0)
(0.000412203 -0.000242595 0)
(0.00082197 -7.22791e-05 0)
(0.000879977 -4.5652e-06 0)
(0.000547056 -8.90903e-05 0)
(0.000775281 -0.000102844 0)
(0.000314073 -0.000229149 0)
(0.00077161 -7.69146e-05 0)
(0.00064333 -4.10086e-05 0)
(0.000949269 -5.9173e-06 0)
(0.000865736 -9.38751e-05 0)
(0.000782333 -3.03676e-05 0)
(0.000840722 -5.71344e-05 0)
(0.000227317 -0.000339459 0)
(0.000193918 -0.000354901 0)
(0.000441739 -0.000149291 0)
(3.43995e-05 -0.000495787 0)
(0.000624283 -0.000108968 0)
(0.000341159 -0.000233325 0)
(0.000681441 -6.24348e-05 0)
(0.000928952 -2.97318e-05 0)
(0.00056934 -7.2823e-05 0)
(0.000876952 -2.89938e-05 0)
(0.000194515 -0.000382283 0)
(0.000120832 -0.000425149 0)
(0.000405623 -0.000167663 0)
(0.00070552 -8.24054e-05 0)
(0.00090738 -1.54653e-05 0)
(0.000854406 -7.60341e-05 0)
(8.72833e-05 -0.00042643 0)
(0.000771887 -3.76674e-06 0)
(0.000691785 -2.34017e-05 0)
(0.000746857 -4.82065e-06 0)
(0.000720168 -2.67692e-05 0)
(0.000670967 -4.37668e-05 0)
(0.000554414 -0.000122971 0)
(0.000582554 -7.01005e-05 0)
(0.000811786 -3.3237e-06 0)
(0.000702846 -2.34154e-05 0)
(0.000172171 -0.000384581 0)
(0.000706027 -5.28985e-05 0)
(0.00097902 -1.83477e-05 0)
(0.000945165 -4.76053e-05 0)
(0.000811816 -9.91506e-05 0)
(0.000649736 -3.96927e-05 0)
(0.000904316 -5.2398e-06 0)
(5.18711e-05 -0.000452095 0)
(0.000909604 -4.80905e-05 0)
(3.70294e-05 -0.00048635 0)
(0.000628987 -0.000110561 0)
(0.000758096 -2.5086e-05 0)
(0.000134585 -0.000412271 0)
(0.000827918 -1.08548e-05 0)
(0.000754478 -9.20443e-06 0)
(0.000590897 -9.28752e-05 0)
(0.00069882 -2.21758e-05 0)
(0.000489355 -0.00011493 0)
(0.00077833 -1.58593e-05 0)
(0.000309847 -0.000249326 0)
(0.000647619 -4.18691e-05 0)
(0.000416418 -0.000169884 0)
(0.000736086 -9.24783e-06 0)
(0.000731331 -6.72435e-05 0)
(0.000730826 -1.24624e-05 0)
(0.000373797 -0.000190918 0)
(0.000440184 -0.000149223 0)
(0.000890805 -5.64163e-05 0)
(0.000925242 -7.17715e-05 0)
(0.000992242 -7.78702e-06 0)
(0.000311444 -0.000317771 0)
(0.000884333 -4.11709e-05 0)
(0.000934104 -1.33598e-05 0)
(0.00055807 -9.01096e-05 0)
(0.000654551 -0.000109489 0)
(0.000393511 -0.00020989 0)
(0.000764444 -6.66353e-05 0)
(0.000503687 -0.000117862 0)
(0.000832934 -2.29772e-05 0)
(0.000824962 -8.47811e-05 0)
(0.000809336 -2.16407e-05 0)
(0.000830708 -3.06238e-05 0)
(0.000671775 -3.63073e-05 0)
(0.00048467 -0.000128766 0)
(0.000561072 -0.00010827 0)
(0.000132541 -0.000397421 0)
(0.000510445 -0.000189741 0)
(0.000577107 -9.45153e-05 0)
(0.000711621 -1.65045e-05 0)
(5.73973e-05 -0.000478866 0)
(0.000205825 -0.000322461 0)
(0.00084974 -1.28759e-05 0)
(0.000858654 -3.3666e-06 0)
(0.00074097 -5.39476e-06 0)
(0.000468206 -0.000149444 0)
(0.000514285 -0.0001031 0)
(0.000739643 -0.000106763 0)
(0.000734548 -4.71131e-05 0)
(0.00087194 -3.69286e-05 0)
(0.000732011 -8.55324e-05 0)
(0.000468081 -0.000155027 0)
(0.00097376 -3.66625e-06 0)
(0.00089062 -9.23864e-05 0)
(0.000590785 -0.000119202 0)
(0.000926424 -2.51422e-05 0)
(0.000999725 -2.21646e-06 0)
(0.000920238 -8.81839e-05 0)
(0.000552737 -8.61573e-05 0)
(0.000603011 -5.82477e-05 0)
(0.000804447 -3.88053e-05 0)
(0.000374971 -0.000196113 0)
(0.000661476 -6.37397e-05 0)
(0.000747106 -2.00157e-05 0)
(0.000861349 -6.34784e-05 0)
(0.000909975 -2.21586e-05 0)
(0.000179355 -0.00037446 0)
(0.000667881 -3.56875e-05 0)
(0.000470328 -0.000128718 0)
(0.000829759 -1.63931e-05 0)
(0.000740509 -7.50827e-05 0)
(0.000731013 -1.24606e-05 0)
(0.000532808 -0.000110587 0)
(0.00091512 -3.88449e-05 0)
(0.000554996 -0.000100579 0)
(0.00073692 -3.90783e-05 0)
(0.000676496 -4.06597e-05 0)
(0.000246546 -0.000299382 0)
(0.000306492 -0.000282126 0)
(0.000882797 -1.18751e-05 0)
(0.000793378 -8.75376e-05 0)
(0.000965965 -9.68576e-06 0)
(0.000887565 -7.95549e-05 0)
(0.000501301 -0.000109728 0)
(0.000344734 -0.000210223 0)
(0.000657535 -9.26414e-05 0)
(0.000801811 -8.89344e-06 0)
(0.00085655 -4.5217e-05 0)
(0.000854513 -2.58465e-05 0)
(7.75889e-05 -0.000461939 0)
(0.000595541 -7.05497e-05 0)
(0.000952342 -2.2548e-05 0)
(0.000917083 -5.333e-05 0)
(0.000800451 -6.24063e-05 0)
(0.000123818 -0.00041862 0)
(0.000684887 -2.93666e-05 0)
(0.00077304 -6.95312e-06 0)
(0.000726359 -1.19167e-05 0)
(0.000710561 -2.72447e-05 0)
(0.000600579 -6.02864e-05 0)
(0.000624155 -7.99354e-05 0)
(0.000730859 -5.5409e-05 0)
(0.000786143 -2.10673e-05 0)
(0.00046718 -0.000140878 0)
(0.000149987 -0.000392158 0)
(0.000600054 -0.000102933 0)
(0.00092131 -9.07081e-06 0)
(0.000844154 -8.9875e-05 0)
(0.000456739 -0.000186435 0)
(0.000854345 -7.77637e-06 0)
(0.000750582 -9.32196e-05 0)
(0.000680631 -2.65001e-05 0)
(0.000431863 -0.000150939 0)
(0.00054185 -8.71813e-05 0)
(0.000257359 -0.000302478 0)
(0.000377134 -0.000187061 0)
(0.000225398 -0.000352188 0)
(0.000900302 -3.21183e-05 0)
(0.000772918 -5.45108e-05 0)
(0.000813063 -2.83407e-05 0)
(0.000754259 -4.88701e-06 0)
(0.000730316 -1.75109e-05 0)
(0.000416132 -0.000176093 0)
(0.000957763 -2.77889e-05 0)
(0.00026776 -0.000268706 0)
(0.000522069 -0.000102808 0)
(5.85444e-05 -0.000462969 0)
(0.00070225 -0.000101161 0)
(0.000832834 -4.79702e-06 0)
(0.000690934 -4.64277e-05 0)
(0.000606012 -7.79223e-05 0)
(0.000720293 -3.17139e-05 0)
(0.000550907 -0.000133282 0)
(0.000880886 -5.01201e-05 0)
(0.000926074 -6.11e-05 0)
(0.000979461 -1.34559e-05 0)
(0.000320201 -0.000233816 0)
(0.000515095 -0.000125645 0)
(0.000606035 -6.67678e-05 0)
(0.00084479 -3.63883e-05 0)
(0.000988216 -5.29809e-06 0)
(0.000912588 -8.23452e-05 0)
(0.000761234 -4.38947e-05 0)
(0.000943549 -4.00098e-05 0)
(0.000729035 -1.19587e-05 0)
(0.000707338 -2.74281e-05 0)
(0.000633297 -8.20998e-05 0)
(0.000686529 -7.06115e-05 0)
(0.000791125 -4.28906e-06 0)
(0.000770336 -1.1373e-05 0)
(0.000855819 -1.80709e-05 0)
(0.000804203 -1.5255e-05 0)
(0.000882296 -2.02697e-05 0)
(0.000631625 -5.20772e-05 0)
(0.000643835 -5.7038e-05 0)
(0.000819392 -4.90085e-05 0)
(0.000888662 -6.53478e-05 0)
(0.000943214 -1.82614e-05 0)
(0.000180497 -0.000355109 0)
(9.9283e-05 -0.000438186 0)
(0.000412203 -0.000242595 0)
(0.00082197 -7.22791e-05 0)
(0.000879977 -4.5652e-06 0)
(0.000547056 -8.90903e-05 0)
(0.000775281 -0.000102844 0)
(0.000314073 -0.000229149 0)
(0.00077161 -7.69146e-05 0)
(0.00064333 -4.10086e-05 0)
(0.000949269 -5.9173e-06 0)
(0.000865736 -9.38751e-05 0)
(0.000782333 -3.03676e-05 0)
(0.000840722 -5.71344e-05 0)
(0.000227317 -0.000339459 0)
(0.000193918 -0.000354901 0)
(0.000441739 -0.000149291 0)
(3.43995e-05 -0.000495787 0)
(0.000624283 -0.000108968 0)
(0.000341159 -0.000233325 0)
(0.000681441 -6.24348e-05 0)
(0.000928952 -2.97318e-05 0)
(0.00056934 -7.2823e-05 0)
(0.000876952 -2.89938e-05 0)
(0.000194515 -0.000382283 0)
(0.000120832 -0.000425149 0)
(0.000405623 -0.000167663 0)
(0.00070552 -8.24054e-05 0)
(0.00090738 -1.54653e-05 0)
(0.000854406 -7.60341e-05 0)
(8.72833e-05 -0.00042643 0)
(0.000771887 -3.76674e-06 0)
(0.000691785 -2.34017e-05 0)
(0.000746857 -4.82065e-06 0)
(0.000720168 -2.67692e-05 0)
(0.000670967 -4.37668e-05 0)
(0.000554414 -0.000122971 0)
(0.000582554 -7.01005e-05 0)
(0.000811786 -3.3237e-06 0)
(0.000702846 -2.34154e-05 0)
(0.000172171 -0.000384581 0)
(0.000706027 -5.28985e-05 0)
(0.00097902 -1.83477e-05 0)
(0.000945165 -4.76053e-05 0)
(0.000811816 -9.91506e-05 0)
(0.000649736 -3.96927e-05 0)
(0.000904316 -5.2398e-06 0)
(5.18711e-05 -0.000452095 0)
(0.000909604 -4.80905e-05 0)
(3.70294e-05 -0.00048635 0)
(0.000628987 -0.000110561 0)
(0.000758096 -2.5086e-05 0)
(0.000134585 -0.000412271 0)
(0.000827918 -1.08548e-05 0)
(0.000754478 -9.20443e-06 0)
(0.000590897 -9.28752e-05 0)
(0.00069882 -2.21758e-05 0)
(0.000489355 -0.00011493 0)
(0.00077833 -1.58593e-05 0)
(0.000309847 -0.000249326 0)
(0.000647619 -4.18691e-05 0)
(0.000416418 -0.000169884 0)
(0.000736086 -9.24783e-06 0)
(0.000731331 -6.72435e-05 0)
(0.000730826 -1.24624e-05 0)
(0.000373797 -0.000190918 0)
(0.000440184 -0.000149223 0)
(0.000890805 -5.64163e-05 0)
(0.000925242 -7.17715e-05 0)
(0.000992242 -7.78702e-06 0)
(0.000311444 -0.000317771 0)
(0.000884333 -4.11709e-05 0)
(0.000934104 -1.33598e-05 0)
(0.00055807 -9.01096e-05 0)
(0.000654551 -0.000109489 0)
(0.000393511 -0.00020989 0)
(0.000764444 -6.66353e-05 0)
(0.000503687 -0.000117862 0)
(0.000832934 -2.29772e-05 0)
(0.000824962 -8.47811e-05 0)
(0.000809336 -2.16407e-05 0)
(0.000830708 -3.06238e-05 0)
(0.000671775 -3.63073e-05 0)
(0.00048467 -0.000128766 0)
(0.000561072 -0.00010827 0)
(0.000132541 -0.000397421 0)
(0.000510445 -0.000189741 0)
(0.000577107 -9.45153e-05 0)
(0.000711621 -1.65045e-05 0)
(5.73973e-05 -0.000478866 0)
(0.000205825 -0.000322461 0)
(0.00084974 -1.28759e-05 0)
(0.000858654 -3.3666e-06 0)
(0.00074097 -5.39476e-06 0)
(0.000468206 -0.000149444 0)
(0.000514285 -0.0001031 0)
(0.000739643 -0.000106763 0)
(0.000734548 -4.71131e-05 0)
(0.00087194 -3.69286e-05 0)
(0.000732011 -8.55324e-05 0)
(0.000468081 -0.000155027 0)
(0.00097376 -3.66625e-06 0)
(0.00089062 -9.23864e-05 0)
(0.000590785 -0.000119202 0)
(0.000926424 -2.51422e-05 0)
(0.000999725 -2.21646e-06 0)
(0.000920238 -8.81839e-05 0)
(0.000552737 -8.61573e-05 0)
)
;

boundaryField
{
    back
    {
        type            empty;
    }
    front
    {
        type            empty;
    }
    down
    {
        type            symmetry;
    }
    right
    {
        type            calculated;
    }
    up
    {
        type            calculated;
    }
    left
    {
        type            symmetry;
    }
    hole
    {
        type            calculated;
    }
}


// ************************************************************************* //
