/*--------------------------------*- C++ -*----------------------------------*\
| =========                 |                                                 |
| \\      /  F ield         | OpenFOAM: The Open Source CFD Toolbox           |
|  \\    /   O peration     | Version:  v2012                                 |
|   \\  /    A nd           | Website:  www.openfoam.com                      |
|    \\/     M anipulation  |                                                 |
\*---------------------------------------------------------------------------*/
FoamFile
{
    version     2.0;
    format      ascii;
    class       volScalarField;
    location    "7";
    object      sigmaEq;
}
// * * * * * * * * * * * * * * * * * * * * * * * * * * * * * * * * * * * * * //

dimensions      [1 -1 -2 0 0 0 0];


internalField   nonuniform List<scalar> 
4000
(
2.43e+08
2.43e+08
2.43e+08
2.43e+08
2.43e+08
2.43e+08
2.43e+08
2.36535e+08
2.16089e+08
2.00899e+08
1.88189e+08
1.78046e+08
1.69328e+08
1.62092e+08
1.55706e+08
1.50241e+08
1.45331e+08
1.40984e+08
1.37054e+08
1.33403e+08
2.43e+08
2.43e+08
2.43e+08
2.43e+08
2.43e+08
2.43e+08
2.43e+08
2.31867e+08
2.14419e+08
2.0073e+08
1.88986e+08
1.79432e+08
1.71041e+08
1.64011e+08
1.57734e+08
1.52333e+08
1.47447e+08
1.4312e+08
1.3917e+08
1.35532e+08
2.43e+08
2.43e+08
2.43e+08
2.43e+08
2.43e+08
2.43e+08
2.40573e+08
2.25404e+08
2.11901e+08
2.00424e+08
1.90145e+08
1.81528e+08
1.73706e+08
1.67091e+08
1.6104e+08
1.55832e+08
1.51025e+08
1.46799e+08
1.42851e+08
1.3928e+08
2.43e+08
2.43e+08
2.43e+08
2.43e+08
2.43e+08
2.43e+08
2.30461e+08
2.20023e+08
2.09174e+08
1.99793e+08
1.90973e+08
1.83369e+08
1.76339e+08
1.7027e+08
1.64648e+08
1.59758e+08
1.55178e+08
1.51155e+08
1.47308e+08
1.4388e+08
2.43e+08
2.43e+08
2.43e+08
2.43e+08
2.43e+08
2.3252e+08
2.23664e+08
2.14991e+08
2.06029e+08
1.98374e+08
1.90794e+08
1.84351e+08
1.78153e+08
1.72833e+08
1.67762e+08
1.63363e+08
1.59137e+08
1.55451e+08
1.51818e+08
1.48626e+08
2.43e+08
2.43e+08
2.43e+08
2.43e+08
2.30851e+08
2.25412e+08
2.17342e+08
2.09867e+08
2.02392e+08
1.96028e+08
1.89633e+08
1.84274e+08
1.78952e+08
1.74456e+08
1.70018e+08
1.66224e+08
1.62448e+08
1.59204e+08
1.5588e+08
1.53007e+08
2.43e+08
2.43e+08
2.41534e+08
2.31968e+08
2.24206e+08
2.17554e+08
2.10152e+08
2.04189e+08
1.97921e+08
1.92754e+08
1.87524e+08
1.83145e+08
1.78774e+08
1.75065e+08
1.71357e+08
1.6818e+08
1.64946e+08
1.62179e+08
1.59252e+08
1.56736e+08
2.43e+08
2.41777e+08
2.30443e+08
2.23756e+08
2.14968e+08
2.09488e+08
2.03027e+08
1.9799e+08
1.92921e+08
1.8871e+08
1.84601e+08
1.81113e+08
1.77683e+08
1.7474e+08
1.71778e+08
1.69228e+08
1.6657e+08
1.643e+08
1.61816e+08
1.59675e+08
2.43e+08
2.30201e+08
2.21669e+08
2.1317e+08
2.0623e+08
2.00428e+08
1.95223e+08
1.91035e+08
1.87116e+08
1.8395e+08
1.80868e+08
1.78339e+08
1.75774e+08
1.73635e+08
1.71374e+08
1.69471e+08
1.67369e+08
1.65607e+08
1.63565e+08
1.61808e+08
2.32661e+08
2.20312e+08
2.10256e+08
2.02292e+08
1.95904e+08
1.91178e+08
1.86993e+08
1.8395e+08
1.8109e+08
1.78954e+08
1.76833e+08
1.75175e+08
1.73426e+08
1.72004e+08
1.70408e+08
1.69083e+08
1.67515e+08
1.66212e+08
1.64603e+08
1.63197e+08
2.20932e+08
2.08102e+08
1.984e+08
1.91315e+08
1.85922e+08
1.82078e+08
1.7901e+08
1.76912e+08
1.7508e+08
1.73846e+08
1.72604e+08
1.71737e+08
1.70712e+08
1.69948e+08
1.68938e+08
1.68147e+08
1.67052e+08
1.66171e+08
1.64953e+08
1.63869e+08
2.06389e+08
1.94817e+08
1.86007e+08
1.80146e+08
1.75739e+08
1.73115e+08
1.71049e+08
1.70043e+08
1.69118e+08
1.68794e+08
1.68322e+08
1.68191e+08
1.678e+08
1.67622e+08
1.67128e+08
1.66801e+08
1.66124e+08
1.65608e+08
1.64738e+08
1.63935e+08
1.90691e+08
1.80531e+08
1.73202e+08
1.68728e+08
1.65665e+08
1.64231e+08
1.63317e+08
1.63291e+08
1.63296e+08
1.63765e+08
1.64023e+08
1.64525e+08
1.64703e+08
1.65027e+08
1.64979e+08
1.65047e+08
1.64729e+08
1.6452e+08
1.63953e+08
1.63384e+08
1.73732e+08
1.65415e+08
1.59822e+08
1.56994e+08
1.55367e+08
1.55288e+08
1.55508e+08
1.5653e+08
1.57404e+08
1.58662e+08
1.59583e+08
1.60676e+08
1.61364e+08
1.62138e+08
1.62488e+08
1.62904e+08
1.62902e+08
1.62967e+08
1.62659e+08
1.62305e+08
1.56246e+08
1.49893e+08
1.46251e+08
1.4517e+08
1.45144e+08
1.46428e+08
1.47851e+08
1.4987e+08
1.51612e+08
1.53591e+08
1.55132e+08
1.56754e+08
1.57889e+08
1.59057e+08
1.59737e+08
1.60449e+08
1.60702e+08
1.60985e+08
1.60892e+08
1.60693e+08
1.38251e+08
1.33981e+08
1.32372e+08
1.33144e+08
1.34744e+08
1.37426e+08
1.40022e+08
1.43019e+08
1.45584e+08
1.48231e+08
1.5036e+08
1.52441e+08
1.54011e+08
1.55504e+08
1.56515e+08
1.57473e+08
1.57976e+08
1.58472e+08
1.58566e+08
1.58555e+08
1.20253e+08
1.18122e+08
1.18657e+08
1.21337e+08
1.24617e+08
1.28681e+08
1.32444e+08
1.36376e+08
1.39726e+08
1.43007e+08
1.45664e+08
1.48191e+08
1.50118e+08
1.5194e+08
1.53196e+08
1.54399e+08
1.55081e+08
1.55737e+08
1.55974e+08
1.56047e+08
1.02142e+08
1.02226e+08
1.04946e+08
1.09558e+08
1.14472e+08
1.19855e+08
1.24703e+08
1.2947e+08
1.33541e+08
1.37334e+08
1.40502e+08
1.43324e+08
1.45656e+08
1.47623e+08
1.49226e+08
1.50497e+08
1.51419e+08
1.52208e+08
1.52617e+08
1.52884e+08
8.44266e+07
8.68005e+07
9.18042e+07
9.83553e+07
1.04885e+08
1.11511e+08
1.17387e+08
1.22922e+08
1.27655e+08
1.3194e+08
1.35549e+08
1.38716e+08
1.41345e+08
1.43593e+08
1.45402e+08
1.46927e+08
1.48058e+08
1.48966e+08
1.49601e+08
1.49802e+08
6.68619e+07
7.17197e+07
7.90825e+07
8.75557e+07
9.55752e+07
1.03318e+08
1.10071e+08
1.16243e+08
1.21523e+08
1.26164e+08
1.30162e+08
1.33483e+08
1.36481e+08
1.38674e+08
1.41027e+08
1.42166e+08
1.43715e+08
1.44363e+08
1.45849e+08
1.45629e+08
4.9999e+07
5.75938e+07
6.74028e+07
7.76877e+07
8.70464e+07
9.57205e+07
1.03219e+08
1.0989e+08
1.15637e+08
1.20553e+08
1.24875e+08
1.28354e+08
1.31569e+08
1.33893e+08
1.36276e+08
1.37893e+08
1.39481e+08
1.40283e+08
1.41638e+08
1.42397e+08
3.36768e+07
4.46423e+07
5.69355e+07
6.88601e+07
7.92948e+07
8.87132e+07
9.67527e+07
1.03832e+08
1.09895e+08
1.15095e+08
1.19607e+08
1.23355e+08
1.2663e+08
1.29314e+08
1.31485e+08
1.33528e+08
1.3513e+08
1.36418e+08
1.36954e+08
1.38493e+08
1.88387e+07
3.39863e+07
4.83509e+07
6.13979e+07
7.24712e+07
8.22962e+07
9.06018e+07
9.78719e+07
1.04059e+08
1.09372e+08
1.13942e+08
1.17774e+08
1.21085e+08
1.23828e+08
1.26107e+08
1.28104e+08
1.29441e+08
1.31023e+08
1.31318e+08
1.3307e+08
9.74517e+06
2.75123e+07
4.24716e+07
5.57969e+07
6.69457e+07
7.68407e+07
8.51352e+07
9.2451e+07
9.85916e+07
1.03969e+08
1.08454e+08
1.12389e+08
1.15559e+08
1.18453e+08
1.20533e+08
1.22724e+08
1.23874e+08
1.25629e+08
1.25751e+08
1.27708e+08
1.72742e+07
2.73516e+07
3.99077e+07
5.21704e+07
6.2655e+07
7.21449e+07
8.01183e+07
8.72323e+07
9.31812e+07
9.84582e+07
1.02816e+08
1.06714e+08
1.09794e+08
1.12697e+08
1.14697e+08
1.16945e+08
1.17951e+08
1.19877e+08
1.1987e+08
1.21964e+08
3.00525e+07
3.29319e+07
4.0975e+07
5.08811e+07
5.99477e+07
6.85712e+07
7.5897e+07
8.26015e+07
8.81764e+07
9.32491e+07
9.7355e+07
1.01167e+08
1.04061e+08
1.06955e+08
1.08821e+08
1.11111e+08
1.12047e+08
1.14038e+08
1.14047e+08
1.16158e+08
4.29205e+07
4.13148e+07
4.48168e+07
5.15937e+07
5.86183e+07
6.59099e+07
7.22829e+07
7.83329e+07
8.33899e+07
8.811e+07
9.19061e+07
9.55268e+07
9.82257e+07
1.01028e+08
1.02766e+08
1.05032e+08
1.05887e+08
1.07897e+08
1.07884e+08
1.09966e+08
5.52326e+07
5.06609e+07
5.04849e+07
5.40618e+07
5.871e+07
6.4325e+07
6.94702e+07
7.46509e+07
7.90255e+07
8.32641e+07
8.66517e+07
8.99981e+07
9.24457e+07
9.50952e+07
9.66877e+07
9.88732e+07
9.96667e+07
1.01634e+08
1.01636e+08
1.03632e+08
6.68216e+07
6.00625e+07
5.7002e+07
5.76668e+07
5.98712e+07
6.35923e+07
6.73023e+07
7.14155e+07
7.49667e+07
7.85915e+07
8.14877e+07
8.44708e+07
8.66182e+07
8.90499e+07
9.04637e+07
9.25153e+07
9.32196e+07
9.5091e+07
9.50852e+07
9.6942e+07
7.7579e+07
6.91197e+07
6.38093e+07
6.19957e+07
6.19077e+07
6.36821e+07
6.58384e+07
6.87348e+07
7.13406e+07
7.42269e+07
7.65522e+07
7.90751e+07
8.08808e+07
8.30148e+07
8.42352e+07
8.60875e+07
8.66981e+07
8.84352e+07
8.84075e+07
9.01368e+07
8.74958e+07
7.76388e+07
7.05143e+07
6.6621e+07
6.44719e+07
6.43581e+07
6.49175e+07
6.65002e+07
6.80546e+07
7.01016e+07
7.17626e+07
7.3755e+07
7.51448e+07
7.694e+07
7.79087e+07
7.95365e+07
8.00149e+07
8.1576e+07
8.15195e+07
8.30053e+07
9.64912e+07
8.54762e+07
7.68833e+07
7.1272e+07
6.73431e+07
6.54931e+07
6.45047e+07
6.47419e+07
6.51902e+07
6.63122e+07
6.72513e+07
6.86195e+07
6.95685e+07
7.09206e+07
7.16525e+07
7.29331e+07
7.33101e+07
7.45981e+07
7.44285e+07
7.58478e+07
1.04582e+08
9.25834e+07
8.27772e+07
7.57391e+07
7.02941e+07
6.68925e+07
6.44561e+07
6.33663e+07
6.26797e+07
6.28215e+07
6.29611e+07
6.36508e+07
6.4064e+07
6.49561e+07
6.53461e+07
6.63194e+07
6.65163e+07
6.76095e+07
6.74577e+07
6.85025e+07
1.11699e+08
9.88783e+07
8.8073e+07
7.98657e+07
7.31508e+07
6.84148e+07
6.46701e+07
6.2344e+07
6.05322e+07
5.96991e+07
5.89772e+07
5.89741e+07
5.87666e+07
5.91912e+07
5.91693e+07
5.97958e+07
5.98441e+07
6.04929e+07
6.05873e+07
6.09912e+07
1.17861e+08
1.04345e+08
9.27251e+07
8.35545e+07
7.58061e+07
6.99303e+07
6.50731e+07
6.16003e+07
5.8775e+07
5.6937e+07
5.54142e+07
5.46073e+07
5.38282e+07
5.36413e+07
5.32201e+07
5.34088e+07
5.30994e+07
5.35203e+07
5.31917e+07
5.37211e+07
1.23015e+08
1.08939e+08
9.66582e+07
8.67255e+07
7.81373e+07
7.1344e+07
6.5542e+07
6.10962e+07
5.73427e+07
5.45899e+07
5.22714e+07
5.06764e+07
4.93021e+07
4.84588e+07
4.7659e+07
4.72963e+07
4.67842e+07
4.67751e+07
4.62436e+07
4.65669e+07
1.27167e+08
1.12643e+08
9.98494e+07
8.93174e+07
8.00807e+07
7.25572e+07
6.60041e+07
6.07518e+07
5.62109e+07
5.26558e+07
4.9591e+07
4.72767e+07
4.52559e+07
4.38254e+07
4.25096e+07
4.16968e+07
4.0835e+07
4.04541e+07
3.98726e+07
3.97333e+07
1.3029e+08
1.15437e+08
1.02263e+08
9.12977e+07
8.15826e+07
7.35265e+07
6.64107e+07
6.05482e+07
5.53954e+07
5.11905e+07
4.75184e+07
4.45608e+07
4.19951e+07
3.99677e+07
3.82133e+07
3.68756e+07
3.57002e+07
3.48775e+07
3.41099e+07
3.36239e+07
1.32379e+08
1.17306e+08
1.03883e+08
9.26294e+07
8.26004e+07
7.41903e+07
6.66989e+07
6.04249e+07
5.48467e+07
5.01908e+07
4.60667e+07
4.26439e+07
3.96343e+07
3.71535e+07
3.50071e+07
3.32417e+07
3.1775e+07
3.05421e+07
2.96257e+07
2.87517e+07
1.33425e+08
1.18243e+08
1.04696e+08
9.33013e+07
8.31169e+07
7.45323e+07
6.68547e+07
6.03737e+07
5.45823e+07
4.96904e+07
4.53348e+07
4.16539e+07
3.84086e+07
3.56575e+07
3.32908e+07
3.12545e+07
2.96063e+07
2.81115e+07
2.70774e+07
2.59695e+07
2.51211e+07
2.80115e+07
3.30007e+07
3.92435e+07
4.62405e+07
5.34049e+07
6.07763e+07
6.80567e+07
7.55165e+07
8.25158e+07
8.95354e+07
9.6218e+07
1.02754e+08
1.08885e+08
1.14894e+08
1.20362e+08
1.25949e+08
1.30969e+08
1.36476e+08
1.41781e+08
2.40578e+07
2.68686e+07
3.17373e+07
3.77962e+07
4.45179e+07
5.15803e+07
5.88087e+07
6.5952e+07
7.30379e+07
8.0052e+07
8.68799e+07
9.34774e+07
9.9958e+07
1.0602e+08
1.12027e+08
1.17358e+08
1.22627e+08
1.27016e+08
1.31452e+08
1.35456e+08
2.42528e+07
2.69102e+07
3.15613e+07
3.73446e+07
4.38448e+07
5.05621e+07
5.74257e+07
6.43873e+07
7.12892e+07
7.78987e+07
8.4521e+07
9.07531e+07
9.69897e+07
1.02825e+08
1.08713e+08
1.14248e+08
1.19795e+08
1.25016e+08
1.29724e+08
1.33813e+08
2.48208e+07
2.72488e+07
3.15255e+07
3.69632e+07
4.30725e+07
4.95386e+07
5.61726e+07
6.27729e+07
6.942e+07
7.59025e+07
8.22797e+07
8.8402e+07
9.43672e+07
9.99586e+07
1.05362e+08
1.10355e+08
1.15165e+08
1.19795e+08
1.24337e+08
1.28864e+08
2.57456e+07
2.7923e+07
3.18303e+07
3.68294e+07
4.25298e+07
4.85629e+07
5.47876e+07
6.10885e+07
6.73688e+07
7.35096e+07
7.96236e+07
8.54903e+07
9.13356e+07
9.69178e+07
1.02425e+08
1.07691e+08
1.12658e+08
1.17429e+08
1.21553e+08
1.25667e+08
2.71465e+07
2.90833e+07
3.25895e+07
3.71871e+07
4.24706e+07
4.81538e+07
5.4056e+07
6.00039e+07
6.60017e+07
7.18737e+07
7.76586e+07
8.32457e+07
8.86431e+07
9.38425e+07
9.87728e+07
1.0364e+08
1.08159e+08
1.1286e+08
1.1703e+08
1.21402e+08
2.84649e+07
3.01634e+07
3.32884e+07
3.74334e+07
4.22664e+07
4.75141e+07
5.30013e+07
5.86152e+07
6.42527e+07
6.98662e+07
7.54145e+07
8.08682e+07
8.61821e+07
9.13945e+07
9.63316e+07
1.01211e+08
1.05611e+08
1.10095e+08
1.13894e+08
1.17962e+08
3.02212e+07
3.17198e+07
3.44983e+07
3.82569e+07
4.2681e+07
4.75482e+07
5.2668e+07
5.79198e+07
6.32149e+07
6.84852e+07
7.36559e+07
7.87552e+07
8.36378e+07
8.85e+07
9.3031e+07
9.76908e+07
1.01853e+08
1.06358e+08
1.10094e+08
1.14221e+08
3.17681e+07
3.30763e+07
3.55289e+07
3.88905e+07
4.2897e+07
4.7366e+07
5.21003e+07
5.70352e+07
6.20121e+07
6.70624e+07
7.20124e+07
7.69905e+07
8.17336e+07
8.65275e+07
9.09152e+07
9.54542e+07
9.93886e+07
1.03654e+08
1.07159e+08
1.10979e+08
3.36332e+07
3.47864e+07
3.69603e+07
3.99829e+07
4.36144e+07
4.77112e+07
5.2072e+07
5.66431e+07
6.1259e+07
6.59562e+07
7.0544e+07
7.5185e+07
7.9586e+07
8.40943e+07
8.82314e+07
9.25801e+07
9.64152e+07
1.00561e+08
1.04064e+08
1.0778e+08
3.53114e+07
3.63223e+07
3.82412e+07
4.09421e+07
4.42194e+07
4.79695e+07
5.19892e+07
5.62662e+07
6.0596e+07
6.507e+07
6.94359e+07
7.39072e+07
7.81267e+07
8.24705e+07
8.64229e+07
9.05674e+07
9.41993e+07
9.81233e+07
1.01435e+08
1.04987e+08
3.71721e+07
3.80647e+07
3.97651e+07
4.2183e+07
4.51354e+07
4.85461e+07
5.22189e+07
5.61529e+07
6.01451e+07
6.4291e+07
6.83433e+07
7.25186e+07
7.64751e+07
8.05787e+07
8.43489e+07
8.83174e+07
9.18426e+07
9.56327e+07
9.88602e+07
1.02295e+08
3.89104e+07
3.96985e+07
4.12065e+07
4.33719e+07
4.60363e+07
4.91517e+07
5.25286e+07
5.61884e+07
5.99169e+07
6.38276e+07
6.7655e+07
7.16216e+07
7.53782e+07
7.92764e+07
8.2856e+07
8.66177e+07
8.99616e+07
9.35695e+07
9.66389e+07
9.99302e+07
4.07192e+07
4.14171e+07
4.2756e+07
4.46921e+07
4.70871e+07
4.99089e+07
5.29835e+07
5.63369e+07
5.97692e+07
6.33881e+07
6.69485e+07
7.06567e+07
7.41932e+07
7.78791e+07
8.12912e+07
8.48853e+07
8.8102e+07
9.15674e+07
9.45406e+07
9.76891e+07
4.24608e+07
4.30814e+07
4.42756e+07
4.60148e+07
4.8179e+07
5.07517e+07
5.3572e+07
5.66736e+07
5.98632e+07
6.32466e+07
6.65862e+07
7.00743e+07
7.34102e+07
7.68857e+07
8.01175e+07
8.35118e+07
8.65783e+07
8.98589e+07
9.27237e+07
9.57116e+07
4.41973e+07
4.47489e+07
4.58129e+07
4.73697e+07
4.93165e+07
5.16441e+07
5.42103e+07
5.70475e+07
5.99831e+07
6.31106e+07
6.62193e+07
6.94761e+07
7.26165e+07
7.58916e+07
7.89644e+07
8.21856e+07
8.51224e+07
8.82501e+07
9.10063e+07
9.38717e+07
4.58973e+07
4.63906e+07
4.73445e+07
4.87468e+07
5.05088e+07
5.26281e+07
5.49776e+07
5.75895e+07
6.03059e+07
6.32109e+07
6.61117e+07
6.91558e+07
7.21048e+07
7.51803e+07
7.80825e+07
8.11206e+07
8.39116e+07
8.68741e+07
8.95112e+07
9.22354e+07
4.75479e+07
4.79883e+07
4.88419e+07
5.01004e+07
5.16889e+07
5.36075e+07
5.57468e+07
5.81346e+07
6.06343e+07
6.3316e+07
6.60135e+07
6.88492e+07
7.16188e+07
7.45057e+07
7.7255e+07
8.01234e+07
8.27866e+07
8.55957e+07
8.81277e+07
9.07254e+07
4.91706e+07
4.95662e+07
5.03347e+07
5.14707e+07
5.29107e+07
5.46562e+07
5.66125e+07
5.88037e+07
6.11096e+07
6.35894e+07
6.6097e+07
6.87361e+07
7.13276e+07
7.40296e+07
7.66174e+07
7.93166e+07
8.18377e+07
8.44933e+07
8.69054e+07
8.9369e+07
5.0721e+07
5.10757e+07
5.17663e+07
5.27889e+07
5.40906e+07
5.5673e+07
5.7456e+07
5.94589e+07
6.15797e+07
6.38658e+07
6.61931e+07
6.86453e+07
7.1071e+07
7.35985e+07
7.60395e+07
7.85768e+07
8.09732e+07
8.34771e+07
8.57875e+07
8.81233e+07
5.22369e+07
5.25566e+07
5.31803e+07
5.41052e+07
5.52867e+07
5.67262e+07
5.83555e+07
6.01899e+07
6.2142e+07
6.42497e+07
6.64069e+07
6.86813e+07
7.09445e+07
7.33016e+07
7.55928e+07
7.79718e+07
8.02322e+07
8.25942e+07
8.47804e+07
8.69994e+07
5.36691e+07
5.39569e+07
5.45195e+07
5.53545e+07
5.64251e+07
5.77319e+07
5.92181e+07
6.08948e+07
6.26889e+07
6.46293e+07
6.66269e+07
6.87352e+07
7.08455e+07
7.30439e+07
7.51934e+07
7.74237e+07
7.95568e+07
8.1778e+07
8.38589e+07
8.59505e+07
5.50518e+07
5.53118e+07
5.58211e+07
5.65775e+07
5.75504e+07
5.87394e+07
6.0097e+07
6.1631e+07
6.32797e+07
6.5065e+07
6.69121e+07
6.88624e+07
7.08259e+07
7.28693e+07
7.4882e+07
7.6963e+07
7.89731e+07
8.1053e+07
8.30208e+07
8.50088e+07
5.6344e+07
5.65787e+07
5.70395e+07
5.77241e+07
5.86074e+07
5.96882e+07
6.09273e+07
6.23292e+07
6.38433e+07
6.54844e+07
6.71916e+07
6.89944e+07
7.08208e+07
7.27188e+07
7.46026e+07
7.6543e+07
7.84346e+07
8.038e+07
8.22365e+07
8.4099e+07
5.75666e+07
5.77792e+07
5.81971e+07
5.88182e+07
5.96216e+07
6.06056e+07
6.17372e+07
6.30192e+07
6.44088e+07
6.59167e+07
6.74916e+07
6.91562e+07
7.08495e+07
7.26107e+07
7.4365e+07
7.6175e+07
7.79431e+07
7.97674e+07
8.15113e+07
8.32632e+07
5.86927e+07
5.88852e+07
5.9264e+07
5.98274e+07
6.05578e+07
6.14533e+07
6.24865e+07
6.36581e+07
6.4933e+07
6.63178e+07
6.77701e+07
6.9306e+07
7.08752e+07
7.25073e+07
7.41404e+07
7.58238e+07
7.74764e+07
7.91777e+07
8.08145e+07
8.24569e+07
5.9726e+07
5.99007e+07
6.02449e+07
6.07569e+07
6.1422e+07
6.22381e+07
6.3182e+07
6.42536e+07
6.54229e+07
6.66947e+07
6.80324e+07
6.94489e+07
7.09006e+07
7.24118e+07
7.39292e+07
7.54932e+07
7.70362e+07
7.86188e+07
8.01566e+07
8.16852e+07
6.0655e+07
6.08135e+07
6.11263e+07
6.15917e+07
6.21974e+07
6.29411e+07
6.38033e+07
6.47833e+07
6.58556e+07
6.70231e+07
6.82548e+07
6.95602e+07
7.09022e+07
7.22997e+07
7.37079e+07
7.51587e+07
7.65959e+07
7.80684e+07
7.95056e+07
8.09372e+07
6.14645e+07
6.16087e+07
6.18937e+07
6.23177e+07
6.28704e+07
6.35496e+07
6.43386e+07
6.52362e+07
6.62205e+07
6.72935e+07
6.84282e+07
6.96318e+07
7.08727e+07
7.21652e+07
7.34719e+07
7.48166e+07
7.61553e+07
7.75213e+07
7.88651e+07
8.01972e+07
6.21593e+07
6.22907e+07
6.25504e+07
6.29371e+07
6.34418e+07
6.40623e+07
6.47846e+07
6.56071e+07
6.6511e+07
6.74973e+07
6.85426e+07
6.96526e+07
7.07994e+07
7.19947e+07
7.32062e+07
7.44527e+07
7.56974e+07
7.69664e+07
7.82188e+07
7.94617e+07
6.27024e+07
6.28226e+07
6.30604e+07
6.34145e+07
6.38772e+07
6.44466e+07
6.51103e+07
6.58669e+07
6.66998e+07
6.76096e+07
6.85757e+07
6.96023e+07
7.06654e+07
7.17734e+07
7.28994e+07
7.40567e+07
7.52164e+07
7.63952e+07
7.75648e+07
7.87224e+07
6.31177e+07
6.32278e+07
6.34459e+07
6.37708e+07
6.41959e+07
6.47193e+07
6.53303e+07
6.60275e+07
6.67963e+07
6.7637e+07
6.85313e+07
6.94825e+07
7.04693e+07
7.14983e+07
7.25461e+07
7.36227e+07
7.4704e+07
7.58016e+07
7.68939e+07
7.79739e+07
6.33411e+07
6.3443e+07
6.36446e+07
6.39451e+07
6.43387e+07
6.48237e+07
6.53907e+07
6.60384e+07
6.67538e+07
6.75368e+07
6.83714e+07
6.92597e+07
7.0183e+07
7.1146e+07
7.21285e+07
7.31371e+07
7.41527e+07
7.51808e+07
7.6208e+07
7.72204e+07
6.34205e+07
6.3515e+07
6.37023e+07
6.39815e+07
6.43476e+07
6.47991e+07
6.53277e+07
6.59322e+07
6.6601e+07
6.73339e+07
6.81165e+07
6.89504e+07
6.98186e+07
7.07248e+07
7.16508e+07
7.26014e+07
7.35604e+07
7.45292e+07
7.55003e+07
7.64543e+07
6.32565e+07
6.33455e+07
6.3522e+07
6.37852e+07
6.41307e+07
6.45572e+07
6.50574e+07
6.56301e+07
6.62651e+07
6.69619e+07
6.77076e+07
6.8503e+07
6.93331e+07
7.02001e+07
7.10882e+07
7.19992e+07
7.29206e+07
7.3849e+07
7.47829e+07
7.56965e+07
6.29301e+07
6.30146e+07
6.31824e+07
6.34327e+07
6.37618e+07
6.41684e+07
6.46462e+07
6.5194e+07
6.58028e+07
6.64718e+07
6.71897e+07
6.79565e+07
6.8759e+07
6.95978e+07
7.04593e+07
7.13433e+07
7.22395e+07
7.31415e+07
7.40515e+07
7.49385e+07
6.22933e+07
6.23755e+07
6.25387e+07
6.27824e+07
6.31031e+07
6.35001e+07
6.39676e+07
6.45047e+07
6.51032e+07
6.57623e+07
6.6472e+07
6.72315e+07
6.80294e+07
6.88647e+07
6.9726e+07
7.06104e+07
7.15102e+07
7.24153e+07
7.33312e+07
7.42225e+07
6.14756e+07
6.15567e+07
6.17178e+07
6.19588e+07
6.22763e+07
6.26702e+07
6.31349e+07
6.367e+07
6.4268e+07
6.49283e+07
6.56417e+07
6.64071e+07
6.72143e+07
6.80611e+07
6.8938e+07
6.98398e+07
7.07606e+07
7.16882e+07
7.26289e+07
7.35461e+07
6.02617e+07
6.03443e+07
6.05085e+07
6.07545e+07
6.10791e+07
6.14827e+07
6.19599e+07
6.25113e+07
6.31293e+07
6.38144e+07
6.45572e+07
6.53576e+07
6.62054e+07
6.70983e+07
6.80277e+07
6.89865e+07
6.99714e+07
7.09656e+07
7.1979e+07
7.29717e+07
5.88528e+07
5.89386e+07
5.9109e+07
5.93651e+07
5.9703e+07
6.01248e+07
6.06241e+07
6.12038e+07
6.18547e+07
6.25804e+07
6.33692e+07
6.42241e+07
6.51327e+07
6.6095e+07
6.7101e+07
6.81433e+07
6.922e+07
7.03096e+07
7.14261e+07
7.25255e+07
1.44498e+08
1.43582e+08
1.45093e+08
1.45561e+08
1.46501e+08
1.47051e+08
1.47643e+08
1.4822e+08
1.48423e+08
1.48454e+08
1.4881e+08
1.48834e+08
1.48856e+08
1.48771e+08
1.48597e+08
1.48389e+08
1.4809e+08
1.47778e+08
1.47399e+08
1.47014e+08
1.4659e+08
1.46164e+08
1.45731e+08
1.45298e+08
1.44893e+08
1.44491e+08
1.44155e+08
1.43827e+08
1.43598e+08
1.43402e+08
1.43301e+08
1.43327e+08
1.43456e+08
1.43734e+08
1.44179e+08
1.44783e+08
1.45634e+08
1.46658e+08
1.48013e+08
1.49567e+08
1.39181e+08
1.40386e+08
1.41433e+08
1.42279e+08
1.42935e+08
1.43639e+08
1.43968e+08
1.44605e+08
1.4555e+08
1.45243e+08
1.45238e+08
1.45576e+08
1.45539e+08
1.4566e+08
1.45565e+08
1.45543e+08
1.45391e+08
1.45271e+08
1.45076e+08
1.44899e+08
1.44684e+08
1.44483e+08
1.44275e+08
1.44088e+08
1.43921e+08
1.43788e+08
1.43696e+08
1.43668e+08
1.43691e+08
1.43836e+08
1.44005e+08
1.44317e+08
1.4477e+08
1.45309e+08
1.46071e+08
1.46934e+08
1.4807e+08
1.49342e+08
1.50939e+08
1.52707e+08
1.35879e+08
1.36788e+08
1.37578e+08
1.38261e+08
1.38929e+08
1.39462e+08
1.40035e+08
1.4033e+08
1.40912e+08
1.41395e+08
1.41558e+08
1.41799e+08
1.41981e+08
1.42091e+08
1.4222e+08
1.42253e+08
1.42316e+08
1.42304e+08
1.42316e+08
1.42288e+08
1.42275e+08
1.42257e+08
1.42256e+08
1.42278e+08
1.42332e+08
1.42421e+08
1.42595e+08
1.42768e+08
1.43165e+08
1.43405e+08
1.43762e+08
1.44457e+08
1.45115e+08
1.45945e+08
1.46963e+08
1.48075e+08
1.49472e+08
1.50959e+08
1.5279e+08
1.54731e+08
1.31387e+08
1.32622e+08
1.33606e+08
1.34456e+08
1.35371e+08
1.35921e+08
1.36628e+08
1.37064e+08
1.37688e+08
1.37938e+08
1.38342e+08
1.38587e+08
1.38863e+08
1.39068e+08
1.39263e+08
1.39428e+08
1.39576e+08
1.39716e+08
1.39845e+08
1.39984e+08
1.4012e+08
1.40284e+08
1.40454e+08
1.40673e+08
1.40907e+08
1.41208e+08
1.41538e+08
1.41947e+08
1.42412e+08
1.4324e+08
1.43596e+08
1.44459e+08
1.45437e+08
1.46411e+08
1.4759e+08
1.48922e+08
1.50421e+08
1.5212e+08
1.54025e+08
1.56131e+08
1.27717e+08
1.2887e+08
1.29718e+08
1.3061e+08
1.31234e+08
1.31867e+08
1.32526e+08
1.33054e+08
1.33621e+08
1.34107e+08
1.34546e+08
1.34957e+08
1.35329e+08
1.35674e+08
1.36003e+08
1.36303e+08
1.36608e+08
1.36885e+08
1.37185e+08
1.37465e+08
1.37781e+08
1.38088e+08
1.38444e+08
1.38809e+08
1.39227e+08
1.39685e+08
1.40175e+08
1.40778e+08
1.41323e+08
1.42157e+08
1.43113e+08
1.4416e+08
1.45017e+08
1.46163e+08
1.4749e+08
1.48965e+08
1.50583e+08
1.52391e+08
1.5438e+08
1.56551e+08
1.23568e+08
1.24849e+08
1.25882e+08
1.26667e+08
1.2737e+08
1.28248e+08
1.29008e+08
1.29614e+08
1.30314e+08
1.30784e+08
1.31386e+08
1.31794e+08
1.32308e+08
1.32685e+08
1.33135e+08
1.33499e+08
1.33915e+08
1.34283e+08
1.34691e+08
1.35083e+08
1.35511e+08
1.35947e+08
1.36423e+08
1.36927e+08
1.37482e+08
1.38081e+08
1.38748e+08
1.39473e+08
1.40293e+08
1.41182e+08
1.42202e+08
1.43171e+08
1.44282e+08
1.45617e+08
1.47051e+08
1.4858e+08
1.50326e+08
1.52132e+08
1.54215e+08
1.56356e+08
1.19995e+08
1.21209e+08
1.22143e+08
1.22949e+08
1.23853e+08
1.24621e+08
1.25364e+08
1.26004e+08
1.26709e+08
1.27279e+08
1.27922e+08
1.28449e+08
1.29037e+08
1.29537e+08
1.30086e+08
1.30573e+08
1.31103e+08
1.31594e+08
1.32125e+08
1.32638e+08
1.33192e+08
1.33748e+08
1.34347e+08
1.34969e+08
1.35639e+08
1.36353e+08
1.3712e+08
1.37955e+08
1.38853e+08
1.39839e+08
1.40922e+08
1.42075e+08
1.4332e+08
1.44644e+08
1.46138e+08
1.47693e+08
1.49453e+08
1.5128e+08
1.53337e+08
1.5547e+08
1.16325e+08
1.17601e+08
1.18712e+08
1.19508e+08
1.1989e+08
1.21233e+08
1.22179e+08
1.22792e+08
1.23575e+08
1.2421e+08
1.24902e+08
1.25518e+08
1.26155e+08
1.26748e+08
1.27354e+08
1.27934e+08
1.2853e+08
1.29112e+08
1.29719e+08
1.30322e+08
1.3096e+08
1.31603e+08
1.32295e+08
1.32999e+08
1.33767e+08
1.34555e+08
1.35423e+08
1.36316e+08
1.37307e+08
1.3833e+08
1.39465e+08
1.4064e+08
1.4193e+08
1.43309e+08
1.44808e+08
1.46396e+08
1.48137e+08
1.49957e+08
1.5197e+08
1.54049e+08
1.13069e+08
1.14305e+08
1.15302e+08
1.16258e+08
1.17165e+08
1.17956e+08
1.18865e+08
1.19621e+08
1.20433e+08
1.21151e+08
1.21897e+08
1.22582e+08
1.23286e+08
1.23949e+08
1.24628e+08
1.25281e+08
1.25953e+08
1.26613e+08
1.27295e+08
1.27977e+08
1.28686e+08
1.29408e+08
1.30165e+08
1.30944e+08
1.31768e+08
1.32625e+08
1.33539e+08
1.34494e+08
1.3552e+08
1.36595e+08
1.37756e+08
1.3897e+08
1.40288e+08
1.41662e+08
1.43165e+08
1.44722e+08
1.46436e+08
1.48204e+08
1.50156e+08
1.52159e+08
1.09897e+08
1.1111e+08
1.12128e+08
1.13119e+08
1.13975e+08
1.14982e+08
1.15883e+08
1.16719e+08
1.17589e+08
1.18347e+08
1.19167e+08
1.19886e+08
1.20663e+08
1.21364e+08
1.22111e+08
1.22808e+08
1.23544e+08
1.2425e+08
1.24993e+08
1.25722e+08
1.26492e+08
1.27256e+08
1.28074e+08
1.28885e+08
1.29769e+08
1.30645e+08
1.31604e+08
1.32572e+08
1.33624e+08
1.34704e+08
1.3587e+08
1.37078e+08
1.38382e+08
1.39738e+08
1.41202e+08
1.42723e+08
1.44372e+08
1.46075e+08
1.47933e+08
1.49837e+08
1.07081e+08
1.0827e+08
1.0931e+08
1.10302e+08
1.11289e+08
1.12188e+08
1.13131e+08
1.13969e+08
1.14848e+08
1.15656e+08
1.16491e+08
1.17271e+08
1.18073e+08
1.18833e+08
1.19615e+08
1.20367e+08
1.21141e+08
1.21899e+08
1.2268e+08
1.23457e+08
1.24257e+08
1.25069e+08
1.25903e+08
1.26761e+08
1.27648e+08
1.28556e+08
1.29524e+08
1.30508e+08
1.31564e+08
1.32643e+08
1.33801e+08
1.34991e+08
1.3627e+08
1.37586e+08
1.39006e+08
1.40464e+08
1.42044e+08
1.43662e+08
1.45423e+08
1.47218e+08
1.04396e+08
1.05553e+08
1.06603e+08
1.07626e+08
1.08616e+08
1.09574e+08
1.10523e+08
1.11409e+08
1.12326e+08
1.1317e+08
1.1404e+08
1.14851e+08
1.15685e+08
1.16476e+08
1.17287e+08
1.1807e+08
1.18868e+08
1.19656e+08
1.20456e+08
1.21261e+08
1.22081e+08
1.2291e+08
1.23781e+08
1.2463e+08
1.2561e+08
1.26445e+08
1.27418e+08
1.28382e+08
1.29412e+08
1.30475e+08
1.31592e+08
1.32753e+08
1.33976e+08
1.35244e+08
1.36591e+08
1.3798e+08
1.39465e+08
1.40989e+08
1.42631e+08
1.44303e+08
1.02014e+08
1.03134e+08
1.04193e+08
1.05213e+08
1.06232e+08
1.07177e+08
1.08184e+08
1.09038e+08
1.09912e+08
1.10815e+08
1.1169e+08
1.12527e+08
1.13384e+08
1.14188e+08
1.15027e+08
1.15818e+08
1.16647e+08
1.17438e+08
1.18268e+08
1.19071e+08
1.19911e+08
1.20744e+08
1.216e+08
1.22493e+08
1.23357e+08
1.2423e+08
1.25205e+08
1.26163e+08
1.27174e+08
1.28207e+08
1.29284e+08
1.30396e+08
1.31562e+08
1.32763e+08
1.34032e+08
1.35335e+08
1.36723e+08
1.38141e+08
1.39662e+08
1.41208e+08
9.97787e+07
1.00852e+08
1.01929e+08
1.02938e+08
1.03967e+08
1.0492e+08
1.05906e+08
1.06653e+08
1.07749e+08
1.08611e+08
1.09512e+08
1.10345e+08
1.11217e+08
1.12028e+08
1.1288e+08
1.13677e+08
1.14515e+08
1.15308e+08
1.16138e+08
1.16939e+08
1.17756e+08
1.18589e+08
1.19366e+08
1.20281e+08
1.21574e+08
1.2204e+08
1.22893e+08
1.23888e+08
1.24848e+08
1.25842e+08
1.2688e+08
1.27922e+08
1.29035e+08
1.30151e+08
1.31346e+08
1.32552e+08
1.33839e+08
1.35148e+08
1.36542e+08
1.37954e+08
9.77798e+07
9.88067e+07
9.98801e+07
1.00878e+08
1.01885e+08
1.02847e+08
1.0377e+08
1.0473e+08
1.05697e+08
1.06533e+08
1.07425e+08
1.08269e+08
1.09118e+08
1.09953e+08
1.10777e+08
1.116e+08
1.12411e+08
1.13227e+08
1.14031e+08
1.14846e+08
1.15653e+08
1.16468e+08
1.17295e+08
1.181e+08
1.18976e+08
1.19863e+08
1.20711e+08
1.21603e+08
1.22518e+08
1.23442e+08
1.24417e+08
1.2539e+08
1.26427e+08
1.27459e+08
1.28567e+08
1.29669e+08
1.30856e+08
1.32036e+08
1.33305e+08
1.3458e+08
9.5893e+07
9.6893e+07
9.79541e+07
9.89437e+07
9.99512e+07
1.00897e+08
1.01858e+08
1.02758e+08
1.03684e+08
1.04557e+08
1.0544e+08
1.06286e+08
1.07134e+08
1.07959e+08
1.08781e+08
1.0959e+08
1.10392e+08
1.11192e+08
1.11983e+08
1.1278e+08
1.13572e+08
1.14369e+08
1.15186e+08
1.15972e+08
1.16867e+08
1.176e+08
1.1845e+08
1.1927e+08
1.20133e+08
1.21e+08
1.21901e+08
1.2281e+08
1.23759e+08
1.24718e+08
1.25722e+08
1.26753e+08
1.27805e+08
1.28954e+08
1.30026e+08
1.31179e+08
9.42077e+07
9.51661e+07
9.62067e+07
9.71785e+07
9.81628e+07
9.9101e+07
1.00038e+08
1.00942e+08
1.0185e+08
1.02708e+08
1.03579e+08
1.04408e+08
1.05245e+08
1.06052e+08
1.06861e+08
1.0765e+08
1.08439e+08
1.09214e+08
1.0999e+08
1.10754e+08
1.11525e+08
1.12284e+08
1.13056e+08
1.13817e+08
1.14596e+08
1.15375e+08
1.16157e+08
1.16951e+08
1.17751e+08
1.18564e+08
1.19391e+08
1.2023e+08
1.21094e+08
1.21965e+08
1.22879e+08
1.23782e+08
1.24768e+08
1.25695e+08
1.26696e+08
1.27721e+08
9.26393e+07
9.35621e+07
9.45849e+07
9.55292e+07
9.6498e+07
9.74096e+07
9.83321e+07
9.92103e+07
1.00093e+08
1.0094e+08
1.01786e+08
1.02604e+08
1.03419e+08
1.04212e+08
1.05e+08
1.05771e+08
1.06537e+08
1.07291e+08
1.08042e+08
1.08782e+08
1.09524e+08
1.10252e+08
1.10992e+08
1.11712e+08
1.12454e+08
1.13171e+08
1.1391e+08
1.14638e+08
1.1538e+08
1.1612e+08
1.16879e+08
1.17633e+08
1.18417e+08
1.19178e+08
1.20004e+08
1.20745e+08
1.2165e+08
1.22967e+08
1.23366e+08
1.2422e+08
9.12221e+07
9.20994e+07
9.30971e+07
9.40072e+07
9.49544e+07
9.58381e+07
9.67383e+07
9.75931e+07
9.84524e+07
9.92765e+07
1.00099e+08
1.00894e+08
1.01683e+08
1.02452e+08
1.03213e+08
1.03957e+08
1.04694e+08
1.05417e+08
1.06134e+08
1.0684e+08
1.07542e+08
1.08233e+08
1.08925e+08
1.09607e+08
1.10293e+08
1.10969e+08
1.11653e+08
1.12327e+08
1.13015e+08
1.1369e+08
1.14384e+08
1.15066e+08
1.15772e+08
1.16468e+08
1.17185e+08
1.17907e+08
1.18624e+08
1.19395e+08
1.20184e+08
1.20944e+08
8.99015e+07
9.07464e+07
9.17125e+07
9.25927e+07
9.3502e+07
9.43611e+07
9.52257e+07
9.60561e+07
9.68822e+07
9.76823e+07
9.84739e+07
9.92439e+07
1.00004e+08
1.00746e+08
1.01479e+08
1.02193e+08
1.02902e+08
1.03591e+08
1.04279e+08
1.04946e+08
1.05615e+08
1.06263e+08
1.06917e+08
1.07549e+08
1.08191e+08
1.08813e+08
1.09442e+08
1.10065e+08
1.10678e+08
1.1127e+08
1.11908e+08
1.1251e+08
1.13141e+08
1.13755e+08
1.14386e+08
1.15027e+08
1.15653e+08
1.16364e+08
1.16954e+08
1.17616e+08
8.86997e+07
8.94925e+07
9.04286e+07
9.12375e+07
9.21532e+07
9.29681e+07
9.38128e+07
9.46099e+07
9.54066e+07
9.61773e+07
9.69361e+07
9.76788e+07
9.8404e+07
9.91197e+07
9.98134e+07
1.00503e+08
1.01168e+08
1.0183e+08
1.02471e+08
1.03107e+08
1.03727e+08
1.04341e+08
1.04942e+08
1.05537e+08
1.06119e+08
1.06699e+08
1.07262e+08
1.07833e+08
1.08394e+08
1.08941e+08
1.09482e+08
1.10031e+08
1.10568e+08
1.1111e+08
1.11645e+08
1.12185e+08
1.12723e+08
1.13267e+08
1.13818e+08
1.14363e+08
8.75788e+07
8.83409e+07
8.92529e+07
9.00375e+07
9.08543e+07
9.16653e+07
9.24552e+07
9.3227e+07
9.39849e+07
9.47237e+07
9.54487e+07
9.61576e+07
9.68505e+07
9.75309e+07
9.81943e+07
9.88462e+07
9.94853e+07
1.00106e+08
1.00717e+08
1.01311e+08