/*--------------------------------*- C++ -*----------------------------------*\
| =========                 |                                                 |
| \\      /  F ield         | OpenFOAM: The Open Source CFD Toolbox           |
|  \\    /   O peration     | Version:  v2012                                 |
|   \\  /    A nd           | Website:  www.openfoam.com                      |
|    \\/     M anipulation  |                                                 |
\*---------------------------------------------------------------------------*/
FoamFile
{
    version     2.0;
    format      ascii;
    class       volScalarField;
    location    "7";
    object      sigmaHyd;
}
// * * * * * * * * * * * * * * * * * * * * * * * * * * * * * * * * * * * * * //

dimensions      [1 -1 -2 0 0 0 0];


internalField   nonuniform List<scalar> 
4000
(
1.35432e+08
1.39103e+08
1.44686e+08
1.47447e+08
1.51138e+08
1.53062e+08
1.55227e+08
1.51322e+08
1.44261e+08
1.36578e+08
1.30531e+08
1.24458e+08
1.19352e+08
1.14239e+08
1.09814e+08
1.05359e+08
1.01425e+08
9.744e+07
9.38695e+07
9.02229e+07
1.35306e+08
1.38796e+08
1.4426e+08
1.46715e+08
1.50384e+08
1.52006e+08
1.52678e+08
1.47871e+08
1.41129e+08
1.34237e+08
1.28593e+08
1.22871e+08
1.18035e+08
1.13129e+08
1.0888e+08
1.04566e+08
1.00755e+08
9.6875e+07
9.33996e+07
8.98337e+07
1.34983e+08
1.38063e+08
1.43177e+08
1.45175e+08
1.48591e+08
1.48895e+08
1.47667e+08
1.41733e+08
1.35889e+08
1.30099e+08
1.25142e+08
1.2e+08
1.15615e+08
1.11073e+08
1.07131e+08
1.0307e+08
9.9484e+07
9.57963e+07
9.24989e+07
8.90837e+07
1.3431e+08
1.36623e+08
1.41314e+08
1.42844e+08
1.45284e+08
1.43596e+08
1.39999e+08
1.34494e+08
1.30171e+08
1.25116e+08
1.2095e+08
1.16378e+08
1.125e+08
1.08375e+08
1.04794e+08
1.01049e+08
9.77415e+07
9.43049e+07
9.12386e+07
8.80274e+07
1.32965e+08
1.34417e+08
1.38861e+08
1.39465e+08
1.39793e+08
1.35576e+08
1.32328e+08
1.27796e+08
1.24249e+08
1.19899e+08
1.16364e+08
1.12331e+08
1.08937e+08
1.05235e+08
1.02033e+08
9.86293e+07
9.5632e+07
9.24816e+07
8.96824e+07
8.67122e+07
1.31053e+08
1.31421e+08
1.35767e+08
1.33829e+08
1.3117e+08
1.27978e+08
1.25695e+08
1.21443e+08
1.18607e+08
1.14711e+08
1.11718e+08
1.08127e+08
1.05169e+08
1.01853e+08
9.90166e+07
9.59472e+07
9.3266e+07
9.04086e+07
8.7893e+07
8.51792e+07
1.28557e+08
1.27864e+08
1.30313e+08
1.26132e+08
1.24776e+08
1.21206e+08
1.18934e+08
1.15466e+08
1.12905e+08
1.09597e+08
1.06949e+08
1.03833e+08
1.01219e+08
9.83031e+07
9.57906e+07
9.30648e+07
9.0686e+07
8.81333e+07
8.59014e+07
8.34586e+07
1.25408e+08
1.23196e+08
1.23228e+08
1.19493e+08
1.1797e+08
1.14852e+08
1.12798e+08
1.09775e+08
1.07492e+08
1.04602e+08
1.02262e+08
9.95264e+07
9.72266e+07
9.46534e+07
9.24467e+07
9.00327e+07
8.79471e+07
8.5682e+07
8.37317e+07
8.15516e+07
1.21021e+08
1.18161e+08
1.16662e+08
1.13677e+08
1.11853e+08
1.09016e+08
1.07007e+08
1.04306e+08
1.02225e+08
9.9667e+07
9.75922e+07
9.51818e+07
9.31679e+07
9.09042e+07
8.89858e+07
8.68632e+07
8.50615e+07
8.30709e+07
8.13985e+07
7.94729e+07
1.16027e+08
1.13336e+08
1.1075e+08
1.08021e+08
1.0587e+08
1.03333e+08
1.01317e+08
9.89394e+07
9.69994e+07
9.47638e+07
9.29032e+07
9.08019e+07
8.90356e+07
8.70642e+07
8.54065e+07
8.35592e+07
8.20216e+07
8.0291e+07
7.8882e+07
7.71983e+07
1.104e+08
1.07127e+08
1.04641e+08
1.01928e+08
9.98749e+07
9.74881e+07
9.56441e+07
9.34782e+07
9.17641e+07
8.97706e+07
8.81632e+07
8.63164e+07
8.48142e+07
8.30981e+07
8.1707e+07
8.0109e+07
7.88367e+07
7.73458e+07
7.62002e+07
7.47402e+07
1.03096e+08
1.00212e+08
9.78735e+07
9.54691e+07
9.35493e+07
9.14571e+07
8.97816e+07
8.79077e+07
8.63956e+07
8.4687e+07
8.33047e+07
8.17311e+07
8.04671e+07
7.90097e+07
7.78628e+07
7.65082e+07
7.54821e+07
7.42193e+07
7.33198e+07
7.20699e+07
9.5237e+07
9.26909e+07
9.07334e+07
8.86117e+07
8.69885e+07
8.51598e+07
8.37559e+07
8.21387e+07
8.08905e+07
7.9435e+07
7.83121e+07
7.69869e+07
7.59778e+07
7.47611e+07
7.38649e+07
7.27402e+07
7.19613e+07
7.09148e+07
7.02604e+07
6.92069e+07
8.67232e+07
8.46925e+07
8.3142e+07
8.14296e+07
8.01273e+07
7.86496e+07
7.75261e+07
7.62232e+07
7.52366e+07
7.40677e+07
7.31967e+07
7.21339e+07
7.13706e+07
7.03938e+07
6.97384e+07
6.88319e+07
6.82893e+07
6.74404e+07
6.70183e+07
6.61398e+07
7.79383e+07
7.64142e+07
7.53061e+07
7.39996e+07
7.30568e+07
7.19238e+07
7.11102e+07
7.01135e+07
6.94053e+07
6.85167e+07
6.79024e+07
6.71001e+07
6.65781e+07
6.58442e+07
6.54196e+07
6.47383e+07
6.44211e+07
6.37772e+07
6.35797e+07
6.28772e+07
6.8904e+07
6.79225e+07
6.72671e+07
6.64087e+07
6.58405e+07
6.50881e+07
6.45978e+07
6.39317e+07
6.35135e+07
6.29153e+07
6.2569e+07
6.20226e+07
6.17533e+07
6.12437e+07
6.1061e+07
6.05739e+07
6.04899e+07
6.00114e+07
6.00392e+07
5.94697e+07
5.98432e+07
5.93765e+07
5.91428e+07
5.87156e+07
5.85019e+07
5.81199e+07
5.79336e+07
5.7594e+07
5.74405e+07
5.71373e+07
5.70242e+07
5.67497e+07
5.66884e+07
5.64324e+07
5.64394e+07
5.61881e+07
5.62861e+07
5.60171e+07
5.62385e+07
5.58327e+07
5.07394e+07
5.07947e+07
5.09981e+07
5.10142e+07
5.11743e+07
5.11732e+07
5.13141e+07
5.13049e+07
5.14452e+07
5.14294e+07
5.15872e+07
5.15607e+07
5.17559e+07
5.17095e+07
5.1965e+07
5.18842e+07
5.22261e+07
5.20915e+07
5.2549e+07
5.22228e+07
4.17919e+07
4.23241e+07
4.29009e+07
4.33304e+07
4.38115e+07
4.41728e+07
4.45876e+07
4.49018e+07
4.52723e+07
4.55523e+07
4.58972e+07
4.61509e+07
4.64882e+07
4.6721e+07
4.70691e+07
4.72889e+07
4.7666e+07
4.77808e+07
4.83175e+07
4.81558e+07
3.29242e+07
3.39374e+07
3.49133e+07
3.57592e+07
3.65883e+07
3.73132e+07
3.8036e+07
3.86701e+07
3.93184e+07
3.98803e+07
4.04828e+07
4.09816e+07
4.15695e+07
4.20038e+07
4.26177e+07
4.29724e+07
4.36248e+07
4.39139e+07
4.47283e+07
4.47242e+07
2.43308e+07
2.57736e+07
2.70746e+07
2.83011e+07
2.94138e+07
3.04776e+07
3.14415e+07
3.2381e+07
3.32255e+07
3.40669e+07
3.48148e+07
3.55733e+07
3.62443e+07
3.69213e+07
3.75358e+07
3.85001e+07
3.86959e+07
3.93345e+07
3.97043e+07
4.08527e+07
1.59163e+07
1.77882e+07
1.94399e+07
2.10439e+07
2.24654e+07
2.38647e+07
2.51004e+07
2.63429e+07
2.74243e+07
2.85475e+07
2.94952e+07
3.05297e+07
3.13531e+07
3.23265e+07
3.30205e+07
3.39612e+07
3.45661e+07
3.54393e+07
3.58607e+07
3.74759e+07
7.83151e+06
1.00902e+07
1.20318e+07
1.39814e+07
1.56588e+07
1.73707e+07
1.88282e+07
2.03595e+07
2.1628e+07
2.30272e+07
2.41257e+07
2.54385e+07
2.63742e+07
2.76497e+07
2.84157e+07
2.97159e+07
3.02853e+07
3.15958e+07
3.20196e+07
3.42082e+07
27329.4
2.65612e+06
4.90001e+06
7.17867e+06
9.12577e+06
1.11309e+07
1.28283e+07
1.46217e+07
1.61025e+07
1.77369e+07
1.90221e+07
2.05454e+07
2.16448e+07
2.31038e+07
2.40173e+07
2.54621e+07
2.61815e+07
2.76677e+07
2.81631e+07
3.06145e+07
-7.4193e+06
-4.44981e+06
-1.94646e+06
637298
2.81599e+06
5.09701e+06
6.99951e+06
9.04594e+06
1.07063e+07
1.25769e+07
1.40165e+07
1.57651e+07
1.6994e+07
1.86722e+07
1.96901e+07
2.13491e+07
2.21464e+07
2.3836e+07
2.43976e+07
2.70009e+07
-1.45046e+07
-1.12221e+07
-8.46025e+06
-5.59613e+06
-3.18372e+06
-652789
1.46075e+06
3.72913e+06
5.58004e+06
7.64689e+06
9.25901e+06
1.11797e+07
1.25657e+07
1.43933e+07
1.55552e+07
1.7343e+07
1.82725e+07
2.00762e+07
2.0754e+07
2.34136e+07
-2.12084e+07
-1.76339e+07
-1.46432e+07
-1.15176e+07
-8.89879e+06
-6.13279e+06
-3.83339e+06
-1.35297e+06
664977
2.92359e+06
4.68563e+06
6.77946e+06
8.30021e+06
1.02823e+07
1.15665e+07
1.3488e+07
1.45313e+07
1.64429e+07
1.72323e+07
1.99043e+07
-2.74979e+07
-2.36612e+07
-2.04509e+07
-1.70898e+07
-1.42703e+07
-1.12946e+07
-8.8116e+06
-6.14596e+06
-3.95914e+06
-1.53871e+06
380017
2.61297e+06
4.281e+06
6.3798e+06
7.80474e+06
9.82037e+06
1.10007e+07
1.29832e+07
1.39087e+07
1.65547e+07
-3.33803e+07
-2.92989e+07
-2.58907e+07
-2.23106e+07
-1.93113e+07
-1.61399e+07
-1.34932e+07
-1.06532e+07
-8.31686e+06
-5.74196e+06
-3.68596e+06
-1.3179e+06
477640
2.6916e+06
4.23762e+06
6.34635e+06
7.64608e+06
9.69593e+06
1.07458e+07
1.33508e+07
-3.88143e+07
-3.45157e+07
-3.09232e+07
-2.71482e+07
-2.39796e+07
-2.0635e+07
-1.78319e+07
-1.48398e+07
-1.23576e+07
-9.65148e+06
-7.45718e+06
-4.97895e+06
-3.04931e+06
-747173
932630
3.10592e+06
4.54297e+06
6.63177e+06
7.8249e+06
1.03646e+07
-4.38152e+07
-3.93158e+07
-3.5556e+07
-3.16019e+07
-2.82808e+07
-2.47769e+07
-2.1834e+07
-1.87009e+07
-1.60902e+07
-1.32598e+07
-1.0947e+07
-8.36006e+06
-6.32081e+06
-3.92483e+06
-2.14292e+06
108677
1.64381e+06
3.79019e+06
5.0876e+06
7.57076e+06
-4.83428e+07
-4.36671e+07
-3.97567e+07
-3.56449e+07
-3.21853e+07
-2.85417e+07
-2.54706e+07
-2.22153e+07
-1.94842e+07
-1.65494e+07
-1.41211e+07
-1.14485e+07
-9.29405e+06
-6.83351e+06
-4.9296e+06
-2.63917e+06
-963066
1.18788e+06
2.66723e+06
5.0382e+06
-5.24114e+07
-4.75771e+07
-4.35298e+07
-3.92772e+07
-3.56922e+07
-3.19245e+07
-2.87374e+07
-2.53733e+07
-2.25341e+07
-1.95041e+07
-1.69753e+07
-1.42177e+07
-1.1973e+07
-9.42994e+06
-7.45494e+06
-5.06688e+06
-3.36222e+06
-1.05883e+06
351559
2.59863e+06
-5.59884e+07
-5.1016e+07
-4.68515e+07
-4.24757e+07
-3.87835e+07
-3.49066e+07
-3.1621e+07
-2.81612e+07
-2.52311e+07
-2.21187e+07
-1.95056e+07
-1.66796e+07
-1.43563e+07
-1.17608e+07
-9.7129e+06
-7.29276e+06
-5.52176e+06
-3.21532e+06
-1.49399e+06
771021
-5.90811e+07
-5.39917e+07
-4.97214e+07
-4.52428e+07
-4.14527e+07
-3.74872e+07
-3.41085e+07
-3.05755e+07
-2.75531e+07
-2.43856e+07
-2.16748e+07
-1.88182e+07
-1.63812e+07
-1.37929e+07
-1.15946e+07
-9.24702e+06
-7.24862e+06
-5.1369e+06
-3.28388e+06
-930012
-6.167e+07
-5.64797e+07
-5.21248e+07
-4.75564e+07
-4.36897e+07
-3.9644e+07
-3.61955e+07
-3.25902e+07
-2.95046e+07
-2.62708e+07
-2.35034e+07
-2.05831e+07
-1.80975e+07
-1.54421e+07
-1.32069e+07
-1.07773e+07
-8.76185e+06
-6.53028e+06
-4.6977e+06
-2.54582e+06
-6.37523e+07
-5.84847e+07
-5.40581e+07
-4.94222e+07
-4.5489e+07
-4.13856e+07
-3.78741e+07
-3.42212e+07
-3.10739e+07
-2.78035e+07
-2.49739e+07
-2.20288e+07
-1.9479e+07
-1.68106e+07
-1.45102e+07
-1.20757e+07
-1.00012e+07
-7.75944e+06
-5.89687e+06
-3.73942e+06
-6.53203e+07
-5.99909e+07
-5.5513e+07
-5.08223e+07
-4.68429e+07
-4.26903e+07
-3.9137e+07
-3.54399e+07
-3.22547e+07
-2.89438e+07
-2.608e+07
-2.30976e+07
-2.05171e+07
-1.78144e+07
-1.54858e+07
-1.30221e+07
-1.09192e+07
-8.66019e+06
-6.76149e+06
-4.64539e+06
-6.63678e+07
-6.09999e+07
-5.6486e+07
-5.17615e+07
-4.77488e+07
-4.35675e+07
-3.99826e+07
-3.62615e+07
-3.30459e+07
-2.97159e+07
-2.68223e+07
-2.38254e+07
-2.12153e+07
-1.85022e+07
-1.61444e+07
-1.36732e+07
-1.15423e+07
-9.2769e+06
-7.35162e+06
-5.25106e+06
-6.68931e+07
-6.15043e+07
-5.69731e+07
-5.22302e+07
-4.8202e+07
-4.40042e+07
-4.04054e+07
-3.66695e+07
-3.34412e+07
-3.00979e+07
-2.71926e+07
-2.41838e+07
-2.15628e+07
-1.88396e+07
-1.64712e+07
-1.39922e+07
-1.18499e+07
-9.58067e+06
-7.64145e+06
-5.5522e+06
-2.46527e+06
-2.20303e+06
-1.66522e+06
-888088
180987
1.44085e+06
2.96844e+06
4.9172e+06
6.91843e+06
9.20884e+06
1.17159e+07
1.44207e+07
1.73577e+07
2.04519e+07
2.3755e+07
2.71787e+07
3.07308e+07
3.43249e+07
3.77189e+07
4.08086e+07
1.92799e+06
2.14883e+06
2.57909e+06
3.24384e+06
4.09056e+06
5.20212e+06
6.43028e+06
7.81909e+06
9.56265e+06
1.13556e+07
1.34224e+07
1.55711e+07
1.7945e+07
2.03985e+07
2.30675e+07
2.58024e+07
2.88146e+07
3.18619e+07
3.54348e+07
3.86103e+07
5.58531e+06
5.77991e+06
6.17778e+06
6.7595e+06
7.55057e+06
8.51724e+06
9.6934e+06
1.10604e+07
1.25864e+07
1.43025e+07
1.61905e+07
1.82182e+07
2.04347e+07
2.27207e+07
2.52023e+07
2.76399e+07
3.02931e+07
3.27112e+07
3.54898e+07
3.77941e+07
9.08663e+06
9.24894e+06
9.57054e+06
1.00552e+07
1.06937e+07
1.1489e+07
1.24393e+07
1.35062e+07
1.47952e+07
1.61439e+07
1.77286e+07
1.9351e+07
2.12226e+07
2.31046e+07
2.52805e+07
2.74055e+07
2.99154e+07
3.22242e+07
3.50302e+07
3.72904e+07
1.2173e+07
1.2321e+07
1.26253e+07
1.30685e+07
1.36753e+07
1.44109e+07
1.53158e+07
1.63369e+07
1.75221e+07
1.88098e+07
2.02682e+07
2.17853e+07
2.34952e+07
2.51866e+07
2.71153e+07
2.89093e+07
3.10382e+07
3.28761e+07
3.5243e+07
3.70539e+07
1.49989e+07
1.51208e+07
1.53697e+07
1.57335e+07
1.62308e+07
1.68297e+07
1.75769e+07
1.84001e+07
1.94052e+07
2.04492e+07
2.17096e+07
2.29695e+07
2.44908e+07
2.59542e+07
2.77475e+07
2.93797e+07
3.14401e+07
3.31641e+07
3.54469e+07
3.70979e+07
1.76243e+07
1.77384e+07
1.79765e+07
1.83177e+07
1.8793e+07
1.93574e+07
2.00669e+07
2.08456e+07
2.17809e+07
2.27587e+07
2.39122e+07
2.50615e+07
2.64234e+07
2.77081e+07
2.92714e+07
3.06572e+07
3.24281e+07
3.38907e+07
3.58835e+07
3.73094e+07
1.99391e+07
2.0033e+07
2.0231e+07
2.05117e+07
2.09092e+07
2.1374e+07
2.19747e+07
2.26202e+07
2.34309e+07
2.42537e+07
2.52808e+07
2.62749e+07
2.7526e+07
2.86758e+07
3.01545e+07
3.14256e+07
3.31257e+07
3.44619e+07
3.63745e+07
3.76232e+07
2.21805e+07
2.22691e+07
2.24584e+07
2.27233e+07
2.31015e+07
2.35389e+07
2.41046e+07
2.47069e+07
2.54572e+07
2.62124e+07
2.71446e+07
2.80352e+07
2.91487e+07
3.01548e+07
3.14538e+07
3.25583e+07
3.40504e+07
3.52411e+07
3.6921e+07
3.81105e+07
2.41069e+07
2.41807e+07
2.43412e+07
2.45622e+07
2.48855e+07
2.52531e+07
2.57438e+07
2.6257e+07
2.69218e+07
2.75781e+07
2.84243e+07
2.9218e+07
3.02506e+07
3.11691e+07
3.23869e+07
3.34103e+07
3.4802e+07
3.59102e+07
3.74523e+07
3.85473e+07
2.60241e+07
2.60935e+07
2.62454e+07
2.64526e+07
2.67567e+07
2.70989e+07
2.75554e+07
2.80274e+07
2.86366e+07
2.92309e+07
2.99943e+07
3.07019e+07
3.16226e+07
3.24349e+07
3.35173e+07
3.44283e+07
3.5673e+07
3.66778e+07
3.8074e+07
3.90677e+07
2.76528e+07
2.77114e+07
2.78426e+07
2.80186e+07
2.82835e+07
2.8577e+07
2.89803e+07
2.93915e+07
2.99392e+07
3.04671e+07
3.11652e+07
3.18061e+07
3.2658e+07
3.34051e+07
3.44094e+07
3.52544e+07
3.64036e+07
3.73398e+07
3.8622e+07
3.95457e+07
2.92967e+07
2.93511e+07
2.94735e+07
2.96362e+07
2.98818e+07
3.01512e+07
3.05215e+07
3.08949e+07
3.13922e+07
3.18664e+07
3.2494e+07
3.30659e+07
3.38281e+07
3.44954e+07
3.53957e+07
3.6157e+07
3.71958e+07
3.8048e+07
3.92215e+07
4.00572e+07
3.0694e+07
3.07406e+07
3.08477e+07
3.0988e+07
3.12045e+07
3.14391e+07
3.17694e+07
3.20994e+07
3.25487e+07
3.29745e+07
3.3548e+07
3.40686e+07
3.47696e+07
3.53829e+07
3.6212e+07
3.69157e+07
3.78707e+07
3.86634e+07
3.97396e+07
4.05253e+07
3.21098e+07
3.21523e+07
3.22505e+07
3.2378e+07
3.25755e+07
3.27876e+07
3.30868e+07
3.33831e+07
3.37874e+07
3.41675e+07
3.46812e+07
3.51456e+07
3.57732e+07
3.63231e+07
3.70679e+07
3.77049e+07
3.85675e+07
3.92928e+07
4.02696e+07
4.09927e+07
3.33252e+07
3.3362e+07
3.34483e+07
3.35589e+07
3.37337e+07
3.39196e+07
3.41866e+07
3.44495e+07
3.48138e+07
3.51553e+07
3.56217e+07
3.60433e+07
3.66156e+07
3.71185e+07
3.7799e+07
3.83845e+07
3.91738e+07
3.98433e+07
4.07404e+07
4.1408e+07
3.45533e+07
3.45861e+07
3.46637e+07
3.47623e+07
3.49189e+07
3.50839e+07
3.53223e+07
3.5555e+07
3.58793e+07
3.61814e+07
3.65964e+07
3.69705e+07
3.74809e+07
3.79301e+07
3.854e+07
3.90674e+07
3.97792e+07
4.03877e+07
4.12018e+07
4.18129e+07
3.56251e+07
3.56533e+07
3.57211e+07
3.58063e+07
3.59439e+07
3.60878e+07
3.62989e+07
3.65039e+07
3.67931e+07
3.70621e+07
3.74345e+07
3.77705e+07
3.82305e+07
3.86368e+07
3.91879e+07
3.96678e+07
4.03126e+07
4.08695e+07
4.16093e+07
4.21721e+07
3.67016e+07
3.67261e+07
3.67855e+07
3.68594e+07
3.69798e+07
3.71045e+07
3.72892e+07
3.74671e+07
3.77204e+07
3.79545e+07
3.82816e+07
3.85759e+07
3.8982e+07
3.93407e+07
3.98306e+07
4.02579e+07
4.08353e+07
4.13348e+07
4.20028e+07
4.25097e+07
3.76605e+07
3.76811e+07
3.7732e+07
3.77945e+07
3.78983e+07
3.80048e+07
3.81651e+07
3.83184e+07
3.85399e+07
3.8744e+07
3.9032e+07
3.92909e+07
3.96504e+07
3.99687e+07
4.04044e+07
4.07864e+07
4.1302e+07
4.17523e+07
4.23501e+07
4.28136e+07
3.86176e+07
3.86346e+07
3.86776e+07
3.87294e+07
3.88172e+07
3.89057e+07
3.90416e+07
3.917e+07
3.93589e+07
3.95312e+07
3.97784e+07
3.99994e+07
4.03106e+07
4.05855e+07
4.09659e+07
4.12996e+07
4.17538e+07
4.21505e+07
4.26829e+07
4.30896e+07
3.94899e+07
3.95035e+07
3.95387e+07
3.95803e+07
3.96528e+07
3.97246e+07
3.9838e+07
3.99436e+07
4.01029e+07
4.02468e+07
4.04574e+07
4.06445e+07
4.09123e+07
4.11478e+07
4.14782e+07
4.17671e+07
4.21651e+07
4.25119e+07
4.29815e+07
4.33436e+07
4.03562e+07
4.03664e+07
4.03941e+07
4.04254e+07
4.04828e+07
4.05377e+07
4.06284e+07
4.07105e+07
4.08395e+07
4.09536e+07
4.11268e+07
4.12785e+07
4.15017e+07
4.16968e+07
4.19757e+07
4.22205e+07
4.25592e+07
4.2861e+07
4.32609e+07
4.35896e+07
4.11653e+07
4.11722e+07
4.11927e+07
4.12143e+07
4.12573e+07
4.12962e+07
4.13655e+07
4.14257e+07
4.15265e+07
4.16131e+07
4.17513e+07
4.18701e+07
4.20518e+07
4.22085e+07
4.24395e+07
4.26402e+07
4.29252e+07
4.31755e+07
4.35184e+07
4.37865e+07
4.19668e+07
4.19704e+07
4.19836e+07
4.19953e+07
4.20238e+07
4.20464e+07
4.20941e+07
4.21316e+07
4.2204e+07
4.22619e+07
4.23651e+07
4.24495e+07
4.259e+07
4.2707e+07
4.28912e+07
4.30464e+07
4.32801e+07
4.34781e+07
4.37668e+07
4.39775e+07
4.27345e+07
4.27348e+07
4.2741e+07
4.27432e+07
4.27577e+07
4.27645e+07
4.27915e+07
4.28074e+07
4.28524e+07
4.2883e+07
4.29525e+07
4.30041e+07
4.31048e+07
4.31838e+07
4.33222e+07
4.34347e+07
4.36168e+07
4.37678e+07
4.39988e+07
4.4165e+07
4.34949e+07
4.3492e+07
4.34911e+07
4.34835e+07
4.3484e+07
4.34746e+07
4.34806e+07
4.34742e+07
4.34917e+07
4.34941e+07
4.35298e+07
4.35477e+07
4.36088e+07
4.36486e+07
4.37423e+07
4.38101e+07
4.39427e+07
4.40435e+07
4.42206e+07
4.43356e+07
4.42419e+07
4.42358e+07
4.4228e+07
4.42107e+07
4.41973e+07
4.4172e+07
4.41575e+07
4.41292e+07
4.41196e+07
4.40944e+07
4.40969e+07
4.40817e+07
4.41037e+07
4.41056e+07
4.41545e+07
4.41799e+07
4.42624e+07
4.43166e+07
4.4438e+07
4.45065e+07
4.49838e+07
4.49743e+07
4.49594e+07
4.49323e+07
4.49049e+07
4.48633e+07
4.48281e+07
4.47772e+07
4.47404e+07
4.46868e+07
4.46559e+07
4.46068e+07
4.45899e+07
4.45526e+07
4.45575e+07
4.45389e+07
4.45726e+07
4.45783e+07
4.46467e+07
4.46658e+07
4.5731e+07
4.57182e+07
4.56962e+07
4.56591e+07
4.56177e+07
4.55597e+07
4.55035e+07
4.54301e+07
4.53658e+07
4.52838e+07
4.52192e+07
4.51363e+07
4.50799e+07
4.50038e+07
4.4964e+07
4.4902e+07
4.48863e+07
4.48446e+07
4.48591e+07
4.48298e+07
4.64761e+07
4.64599e+07
4.64307e+07
4.63834e+07
4.63277e+07
4.62529e+07
4.61756e+07
4.6079e+07
4.5987e+07
4.58757e+07
4.57773e+07
4.56595e+07
4.55637e+07
4.54477e+07
4.53633e+07
4.52569e+07
4.51922e+07
4.51022e+07
4.50639e+07
4.49852e+07
4.72446e+07
4.72249e+07
4.71884e+07
4.71306e+07
4.70603e+07
4.69682e+07
4.68692e+07
4.67487e+07
4.66282e+07
4.64869e+07
4.63536e+07
4.62001e+07
4.60635e+07
4.59067e+07
4.57764e+07
4.56248e+07
4.55097e+07
4.53707e+07
4.52783e+07
4.51495e+07
4.8015e+07
4.79917e+07
4.79478e+07
4.78792e+07
4.7794e+07
4.76842e+07
4.75631e+07
4.74181e+07
4.72687e+07
4.70965e+07
4.69278e+07
4.67377e+07
4.65598e+07
4.63611e+07
4.61844e+07
4.59865e+07
4.58206e+07
4.56317e+07
4.54851e+07
4.53054e+07
4.88274e+07
4.88003e+07
4.87485e+07
4.86687e+07
4.8568e+07
4.84395e+07
4.82953e+07
4.81246e+07
4.79447e+07
4.77402e+07
4.75342e+07
4.73055e+07
4.70841e+07
4.68415e+07
4.66158e+07
4.63694e+07
4.61501e+07
4.59091e+07
4.57058e+07
4.5473e+07
4.96461e+07
4.96152e+07
4.95554e+07
4.94641e+07
4.93475e+07
4.91999e+07
4.90322e+07
4.88351e+07
4.86242e+07
4.83863e+07
4.81423e+07
4.78739e+07
4.76079e+07
4.732e+07
4.7044e+07
4.67476e+07
4.64734e+07
4.61789e+07
4.59174e+07
4.56299e+07
5.05264e+07
5.04914e+07
5.04232e+07
5.03195e+07
5.01861e+07
5.00181e+07
4.98252e+07
4.95999e+07
4.93558e+07
4.90821e+07
4.87972e+07
4.84861e+07
4.81722e+07
4.78354e+07
4.75053e+07
4.71551e+07
4.68217e+07
4.64696e+07
4.61455e+07
4.57993e+07
5.14184e+07
5.13791e+07
5.13023e+07
5.1186e+07
5.10354e+07
5.08465e+07
5.06279e+07
5.03736e+07
5.00955e+07
4.9785e+07
4.94581e+07
4.91029e+07
4.87395e+07
4.83521e+07
4.79657e+07
4.75595e+07
4.71642e+07
4.67521e+07
4.63619e+07
4.59541e+07
5.23936e+07
5.23498e+07
5.22637e+07
5.21338e+07
5.19646e+07
5.1753e+07
5.15066e+07
5.12206e+07
5.09055e+07
5.05547e+07
5.01819e+07
4.97783e+07
4.93605e+07
4.89174e+07
4.8469e+07
4.80011e+07
4.75372e+07
4.70592e+07
4.65958e+07
4.612e+07
5.33865e+07
5.3338e+07
5.32424e+07
5.30986e+07
5.29104e+07
5.26756e+07
5.24008e+07
5.20823e+07
5.17294e+07
5.1337e+07
5.09171e+07
5.04632e+07
4.99894e+07
4.94881e+07
4.89751e+07
4.84423e+07
4.79059e+07
4.73583e+07
4.68155e+07
4.62684e+07
5.44872e+07
5.44339e+07
5.43284e+07
5.41699e+07
5.39617e+07
5.37023e+07
5.33972e+07
5.30438e+07
5.26501e+07
5.22125e+07
5.17411e+07
5.12316e+07
5.06954e+07
5.01288e+07
4.95427e+07
4.89362e+07
4.83166e+07
4.76896e+07
4.70544e+07
4.64269e+07
4.25845e+07
4.34766e+07
4.47786e+07
4.60668e+07
4.71751e+07
4.84112e+07
4.93708e+07
5.05843e+07
5.13852e+07
5.22326e+07
5.32472e+07
5.40692e+07
5.49518e+07
5.57263e+07
5.65126e+07
5.72342e+07
5.79475e+07
5.86191e+07
5.92769e+07
5.99059e+07
6.05228e+07
6.11192e+07
6.17085e+07
6.22836e+07
6.28577e+07
6.3424e+07
6.39942e+07
6.45656e+07
6.51416e+07
6.57343e+07
6.63216e+07
6.69564e+07
6.75755e+07
6.82589e+07
6.89265e+07
6.96715e+07
7.04017e+07
7.12247e+07
7.20306e+07
7.29503e+07
4.15472e+07
4.28334e+07
4.41644e+07
4.52827e+07
4.64644e+07
4.7502e+07
4.85765e+07
4.95304e+07
5.10034e+07
5.14086e+07
5.23253e+07
5.31573e+07
5.40026e+07
5.47881e+07
5.55771e+07
5.63232e+07
5.70685e+07
5.77835e+07
5.84962e+07
5.91892e+07
5.98793e+07
6.05597e+07
6.12367e+07
6.19146e+07
6.2587e+07
6.32734e+07
6.3949e+07
6.46566e+07
6.53418e+07
6.60864e+07
6.67851e+07
6.755e+07
6.83017e+07
6.90999e+07
6.9903e+07
7.07548e+07
7.16143e+07
7.25369e+07
7.34619e+07
7.44729e+07
3.99374e+07
4.12935e+07
4.24351e+07
4.36478e+07
4.47465e+07
4.58421e+07
4.69263e+07
4.78904e+07
4.89851e+07
5.01365e+07
5.0933e+07
5.19645e+07
5.27761e+07
5.37214e+07
5.45276e+07
5.54087e+07
5.62015e+07
5.70343e+07
5.7813e+07
5.861e+07
5.93786e+07
6.01504e+07
6.09164e+07
6.16718e+07
6.24463e+07
6.31921e+07
6.39907e+07
6.47308e+07
6.55756e+07
6.63081e+07
6.70184e+07
6.79487e+07
6.8717e+07
6.96491e+07
7.04899e+07
7.14574e+07
7.23657e+07
7.33933e+07
7.43699e+07
7.54786e+07
3.92087e+07
4.07473e+07
4.17756e+07
4.30893e+07
4.41811e+07
4.5295e+07
4.63329e+07
4.73771e+07
4.83728e+07
4.93503e+07
5.02967e+07
5.12287e+07
5.21341e+07
5.30267e+07
5.38985e+07
5.47586e+07
5.56044e+07
5.64394e+07
5.72664e+07
5.80837e+07
5.88996e+07
5.97065e+07
6.0519e+07
6.13221e+07
6.21395e+07
6.29446e+07
6.37759e+07
6.45872e+07
6.54424e+07
6.64074e+07
6.71492e+07
6.80576e+07
6.90566e+07
6.99197e+07
7.0919e+07
7.18705e+07
7.28981e+07
7.39329e+07
7.50093e+07
7.61286e+07
3.88125e+07
4.02301e+07
4.12264e+07
4.24926e+07
4.34303e+07
4.45642e+07
4.55411e+07
4.66205e+07
4.7567e+07
4.86075e+07
4.9516e+07
5.05126e+07
5.13967e+07
5.23525e+07
5.32188e+07
5.414e+07
5.49927e+07
5.58872e+07
5.67296e+07
5.76059e+07
5.84412e+07
5.93084e+07
6.01395e+07
6.10074e+07
6.18363e+07
6.2716e+07
6.35427e+07
6.44479e+07
6.52673e+07
6.62167e+07
6.72289e+07
6.81751e+07
6.9066e+07
6.99679e+07
7.09979e+07
7.1983e+07
7.30366e+07
7.40993e+07
7.51961e+07
7.63365e+07
3.86823e+07
4.01409e+07
4.10591e+07
4.2267e+07
4.30809e+07
4.43217e+07
4.51843e+07
4.63088e+07
4.7191e+07
4.82333e+07
4.91187e+07
5.0102e+07
5.09828e+07
5.19229e+07
5.27965e+07
5.37055e+07
5.45723e+07
5.54597e+07
5.63222e+07
5.71964e+07
5.80585e+07
5.8927e+07
5.97937e+07
6.06635e+07
6.15407e+07
6.24189e+07
6.33135e+07
6.42074e+07
6.51271e+07
6.6045e+07
6.69985e+07
6.79123e+07
6.87981e+07
6.98562e+07
7.08062e+07
7.18885e+07
7.28939e+07
7.4022e+07
7.50801e+07
7.62714e+07
3.87713e+07
4.01133e+07
4.09632e+07
4.20891e+07
4.29885e+07
4.41704e+07
4.49566e+07
4.60464e+07
4.68713e+07
4.78963e+07
4.87389e+07
4.97163e+07
5.0566e+07
5.15082e+07
5.23598e+07
5.32763e+07
5.41278e+07
5.50269e+07
5.58785e+07
5.67677e+07
5.76209e+07
5.85072e+07
5.93645e+07
6.02552e+07
6.11198e+07
6.2022e+07
6.28982e+07
6.38189e+07
6.47124e+07
6.56585e+07
6.65777e+07
6.75546e+07
6.84917e+07
6.94922e+07
7.04704e+07
7.15099e+07
7.25278e+07
7.36178e+07
7.46769e+07
7.5827e+07
3.90067e+07
4.03048e+07
4.11337e+07
4.22008e+07
4.26565e+07
4.40636e+07
4.49429e+07
4.58935e+07
4.67572e+07
4.76923e+07
4.85477e+07
4.94635e+07
5.0314e+07
5.12116e+07
5.20595e+07
5.29422e+07
5.37892e+07
5.46615e+07
5.55096e+07
5.63764e+07
5.72281e+07
5.80946e+07
5.89527e+07
5.98241e+07
6.06914e+07
6.15734e+07
6.24529e+07
6.33513e+07
6.42456e+07
6.51665e+07
6.60776e+07
6.70275e+07
6.79555e+07
6.8945e+07
6.98988e+07
7.09293e+07
7.19143e+07
7.29905e+07
7.40103e+07
7.51381e+07
3.93013e+07
4.05808e+07
4.12433e+07
4.23865e+07
4.30572e+07
4.40065e+07
4.48397e+07
4.57724e+07
4.65949e+07
4.75074e+07
4.8326e+07
4.92192e+07
5.00368e+07
5.09137e+07
5.17318e+07
5.25965e+07
5.34162e+07
5.4273e+07
5.50956e+07
5.59491e+07
5.67761e+07
5.76308e+07
5.84644e+07
5.93248e+07
6.01675e+07
6.10381e+07
6.18928e+07
6.27785e+07
6.36479e+07
6.45533e+07
6.54404e+07
6.63701e+07
6.72775e+07
6.82356e+07
6.91669e+07
7.0159e+07
7.11167e+07
7.21487e+07
7.3135e+07
7.42128e+07
3.96773e+07
4.08257e+07
4.14668e+07
4.24957e+07
4.31513e+07
4.41545e+07
4.48623e+07
4.58022e+07
4.65422e+07
4.74393e+07
4.81993e+07
4.90666e+07
4.98396e+07
5.06862e+07
5.14683e+07
5.2301e+07
5.30905e+07
5.39148e+07
5.47114e+07
5.55319e+07
5.63361e+07
5.7157e+07
5.797e+07
5.87953e+07
5.96181e+07
6.04524e+07
6.12849e+07
6.21339e+07
6.29777e+07
6.3846e+07
6.4703e+07
6.55946e+07
6.64672e+07
6.73861e+07
6.82769e+07
6.92267e+07
7.01382e+07
7.11225e+07
7.20566e+07
7.30793e+07
4.01413e+07
4.11807e+07
4.17955e+07
4.27327e+07
4.33869e+07
4.42758e+07
4.49657e+07
4.58211e+07
4.65315e+07
4.73653e+07
4.80906e+07
4.89074e+07
4.96438e+07
5.04482e+07
5.11929e+07
5.19892e+07
5.27406e+07
5.35329e+07
5.42905e+07
5.50823e+07
5.5846e+07
5.66404e+07
5.74114e+07
5.82104e+07
5.89909e+07
5.97946e+07
6.05893e+07
6.14042e+07
6.22113e+07
6.3042e+07
6.38616e+07
6.47117e+07
6.5545e+07
6.64178e+07
6.72661e+07
6.81647e+07
6.90294e+07
6.99573e+07
7.08394e+07
7.17998e+07
4.05634e+07
4.15048e+07
4.20815e+07
4.29533e+07
4.35653e+07
4.44025e+07
4.5046e+07
4.58498e+07
4.65219e+07
4.73092e+07
4.79935e+07
4.87663e+07
4.94617e+07
5.02233e+07
5.09285e+07
5.16822e+07
5.23966e+07
5.31455e+07
5.38691e+07
5.46155e+07
5.53502e+07
5.60951e+07
5.68448e+07
5.75872e+07
5.83601e+07
5.90949e+07
5.98606e+07
6.06216e+07
6.13887e+07
6.21709e+07
6.29443e+07
6.37466e+07
6.45291e+07
6.53519e+07
6.61452e+07
6.69901e+07
6.77955e+07
6.86642e+07
6.94825e+07
7.0377e+07
4.10305e+07
4.18692e+07
4.24217e+07
4.32102e+07
4.38029e+07
4.45571e+07
4.51884e+07
4.5909e+07
4.65083e+07
4.72656e+07
4.78929e+07
4.86274e+07
4.92732e+07
4.99942e+07
5.06527e+07
5.13669e+07
5.20339e+07
5.27471e+07
5.34194e+07
5.41372e+07
5.48114e+07
5.55406e+07
5.62123e+07
5.69626e+07
5.76242e+07
5.83054e+07
5.90502e+07
5.97573e+07
6.04933e+07
6.12207e+07
6.19556e+07
6.27012e+07
6.34395e+07
6.42029e+07
6.49471e+07
6.5729e+07
6.64805e+07
6.72821e+07
6.80417e+07
6.88645e+07
4.14321e+07
4.21976e+07
4.27003e+07
4.34439e+07
4.39721e+07
4.4702e+07
4.52462e+07
4.58853e+07
4.65227e+07
4.72233e+07
4.78014e+07
4.84848e+07
4.90818e+07
4.97551e+07
5.03643e+07
5.10329e+07
5.16494e+07
5.23182e+07
5.29371e+07
5.36113e+07
5.42269e+07
5.49133e+07
5.55168e+07
5.62256e+07
5.7115e+07
5.75502e+07
5.81658e+07
5.88889e+07
5.95283e+07
6.02424e+07
6.08974e+07
6.16124e+07
6.22783e+07
6.30003e+07
6.36743e+07
6.44072e+07
6.50876e+07
6.58341e+07
6.65201e+07
6.72807e+07
4.18421e+07
4.25196e+07
4.29896e+07
4.3661e+07
4.41516e+07
4.48126e+07
4.53136e+07
4.59733e+07
4.65448e+07
4.71416e+07
4.77153e+07
4.83162e+07
4.88949e+07
4.94968e+07
5.00817e+07
5.0683e+07
5.12748e+07
5.18746e+07
5.24742e+07
5.30708e+07
5.36803e+07
5.42706e+07
5.4894e+07
5.54717e+07
5.61162e+07
5.67746e+07
5.73474e+07
5.79944e+07
5.85878e+07
5.92318e+07
5.98383e+07
6.04846e+07
6.10998e+07
6.17514e+07
6.23725e+07
6.30318e+07
6.36561e+07
6.43253e+07
6.49494e+07
6.56312e+07
4.22086e+07
4.28074e+07
4.32531e+07
4.38534e+07
4.43234e+07
4.49085e+07
4.54002e+07
4.59701e+07
4.6483e+07
4.70514e+07
4.75711e+07
4.8137e+07
4.8664e+07
4.92276e+07
4.97617e+07
5.03236e+07
5.08645e+07
5.14252e+07
5.19729e+07
5.25326e+07
5.30883e+07
5.36459e+07
5.42129e+07
5.47654e+07
5.53507e+07
5.58912e+07
5.64632e+07
5.70236e+07
5.75896e+07
5.81635e+07
5.87265e+07
5.93115e+07
5.98721e+07
6.04688e+07
6.10254e+07
6.16369e+07
6.21856e+07
6.28188e+07
6.33522e+07
6.39783e+07
4.25584e+07
4.30869e+07
4.34983e+07
4.4041e+07
4.44726e+07
4.50063e+07
4.54553e+07
4.59811e+07
4.64468e+07
4.69641e+07
4.74415e+07
4.79542e+07
4.84402e+07
4.89504e+07
4.94431e+07
4.9952e+07
5.04503e+07
5.09587e+07
5.14615e+07
5.19701e+07
5.24767e+07
5.29865e+07
5.34959e+07
5.40085e+07
5.45188e+07
5.5038e+07
5.55454e+07
5.60678e+07
5.65755e+07
5.70997e+07
5.7609e+07
5.81344e+07
5.86461e+07
5.91716e+07
5.96871e+07
6.02109e+07
6.07328e+07
6.12515e+07
6.17291e+07
6.22929e+07
4.2861e+07
4.33269e+07
4.37077e+07
4.41927e+07
4.4591e+07
4.5069e+07
4.5482e+07
4.59546e+07
4.63794e+07
4.68485e+07
4.72825e+07
4.77492e+07
4.81903e+07
4.86555e+07
4.91022e+07
4.95663e+07
5.00177e+07
5.0481e+07
5.09362e+07
5.13988e+07
5.18572e+07
5.23191e+07
5.27799e+07
5.3241e+07
5.37033e+07
5.41636e+07
5.46254e+07
5.50859e+07
5.55469e+07
5.60059e+07
5.64674e+07
5.69238e+07
5.7386e+07
5.78364e+07
5.83013e+07
5.87389e+07
5.92115e+07
5.99462e+07
6.01153e+07
6.05621e+07
4.31464e+07
4.35512e+07
4.39008e+07
4.43312e+07
4.46957e+07
4.51219e+07
4.54981e+07
4.59211e+07
4.63068e+07
4.67274e+07
4.71205e+07
4.75394e+07
4.79382e+07
4.8356e+07
4.87591e+07
4.91761e+07
4.95824e+07
4.99988e+07
5.04072e+07
5.08233e+07
5.12329e+07
5.16489e+07
5.20587e+07
5.24748e+07
5.28835e+07
5.33001e+07
5.37064e+07
5.41236e+07
5.45261e+07
5.49443e+07
5.53428e+07
5.57612e+07
5.61532e+07
5.6573e+07
5.69553e+07
5.73786e+07
5.77461e+07
5.81762e+07
5.85768e+07
5.89639e+07
4.33877e+07
4.37446e+07
4.40605e+07
4.44434e+07
4.47713e+07
4.5151e+07
4.54889e+07
4.58661e+07
4.62119e+07
4.65874e+07
4.69394e+07
4.73135e+07
4.76702e+07
4.80432e+07
4.84033e+07
4.87755e+07
4.91379e+07
4.95092e+07
4.98727e+07
5.02434e+07
5.06068e+07
5.09772e+07
5.13391e+07
5.17096e+07
5.20685e+07
5.24403e+07
5.27938e+07
5.31689e+07
5.35139e+07
5.38684e+07
5.42277e+07
5.45867e+07
5.49342e+07
5.52971e+07
5.5632e+07
5.60007e+07
5.63195e+07
5.66999e+07
5.69954e+07
5.73574e+07
4.36171e+07
4.39155e+07
4.42062e+07
4.45283e+07
4.48354e+07
4.51627e+07
4.54708e+07
4.58004e+07
4.6111e+07
4.64414e+07
4.67547e+07
4.70854e+07
4.74008e+07
4.77314e+07
4.80482e+07
4.83782e+07
4.86957e+07
4.90241e+07
4.93423e+07
4.96685e+07
4.99868e+07
5.03105e+07
5.06281e+07
5.0949e+07
5.12651e+07
5.15825e+07
5.18967e+07
5.22098e+07
5.25302e+07
5.28298e+07
5.31342e+07
5.34412e+07
5.37373e+07