/*--------------------------------*- C++ -*----------------------------------*\
| =========                 |                                                 |
| \\      /  F ield         | OpenFOAM: The Open Source CFD Toolbox           |
|  \\    /   O peration     | Version:  v2012                                 |
|   \\  /    A nd           | Website:  www.openfoam.com                      |
|    \\/     M anipulation  |                                                 |
\*---------------------------------------------------------------------------*/
FoamFile
{
    version     2.0;
    format      ascii;
    class       volScalarField;
    location    "1";
    object      epsilonEq;
}
// * * * * * * * * * * * * * * * * * * * * * * * * * * * * * * * * * * * * * //

dimensions      [0 0 0 0 0 0 0];


internalField   nonuniform List<scalar> 
40087
(
1.25982e-05
1.41195e-05
1.15786e-05
8.21766e-06
9.2384e-06
8.74911e-06
1.19013e-05
1.03588e-05
4.49724e-06
1.03344e-05
6.8003e-06
7.64601e-06
8.93048e-06
9.65451e-06
7.77319e-06
9.64349e-06
1.34014e-05
9.5144e-06
9.98529e-06
1.08758e-05
1.52055e-05
9.34777e-06
8.37904e-06
1.04024e-05
8.50545e-06
1.18094e-05
8.966e-06
9.56306e-06
9.49495e-06
9.79169e-06
1.22606e-05
7.70973e-06
8.98587e-06
1.25544e-05
1.09331e-05
6.70419e-06
1.29927e-05
1.05917e-05
8.78482e-06
1.2006e-05
8.82437e-06
1.0444e-05
7.23983e-06
9.76914e-06
5.90954e-06
6.13007e-06
1.22086e-05
7.13549e-06
8.8512e-06
5.05508e-06
1.16783e-05
1.25107e-05
9.1565e-06
7.12778e-06
3.73916e-06
7.95087e-06
8.23269e-06
1.32266e-05
7.7701e-06
1.2596e-05
7.01728e-06
6.30306e-06
1.13052e-05
6.80736e-06
1.15736e-05
1.23189e-05
1.56957e-05
9.2679e-06
1.05668e-05
9.89506e-06
1.12303e-05
9.50685e-06
9.87727e-06
1.11234e-05
9.05652e-06
8.71117e-06
1.25404e-05
7.06344e-06
9.62812e-06
4.78937e-06
8.57374e-06
1.1278e-05
1.15075e-05
1.02779e-05
7.67691e-06
1.28373e-05
1.09412e-05
8.54064e-06
1.08399e-05
1.04325e-05
9.14136e-06
1.18717e-05
9.84146e-06
1.03126e-05
3.06011e-06
8.35507e-06
1.12684e-05
8.05369e-06
8.6649e-06
6.0063e-06
6.04824e-06
9.70858e-06
1.22378e-05
9.27229e-06
7.52903e-06
6.48704e-06
6.32535e-06
1.15228e-05
9.9703e-06
9.25334e-06
9.44202e-06
1.25373e-05
6.7381e-06
1.50554e-05
9.26819e-06
4.40058e-06
9.25562e-06
1.02723e-05
7.13546e-06
1.27234e-05
1.16422e-05
9.76802e-06
1.02586e-05
9.10606e-06
1.27289e-05
8.90622e-06
4.81746e-06
1.07354e-05
9.53699e-06
5.84002e-06
9.69782e-06
3.86731e-06
1.01286e-05
7.65324e-06
9.76277e-06
4.5761e-06
1.34835e-05
9.17646e-06
4.72983e-06
3.75111e-06
7.81641e-06
1.37755e-05
1.25752e-05
9.05004e-06
9.99211e-06
9.87729e-06
1.24645e-05
1.1423e-05
6.26856e-06
1.35598e-05
1.13879e-05
1.14419e-05
8.08587e-06
6.74202e-06
1.10137e-05
7.62921e-06
1.04192e-05
1.1297e-05
1.06486e-05
9.21218e-06
4.7738e-06
1.12173e-05
1.44094e-05
6.64325e-06
8.84051e-06
1.02277e-05
9.15069e-06
1.12711e-05
8.64544e-06
1.4159e-05
3.35206e-06
8.39871e-06
5.18729e-06
1.00154e-05
1.01192e-05
8.29063e-06
5.96135e-06
7.18959e-06
1.03016e-05
8.88242e-06
7.36049e-06
8.57099e-06
1.23014e-05
4.91797e-06
8.38264e-06
8.78632e-06
1.36111e-05
8.33807e-06
1.08284e-05
5.86578e-06
6.17859e-06
1.03404e-05
9.16324e-06
7.9802e-06
9.47107e-06
1.06329e-05
5.32268e-06
8.63659e-06
3.9841e-06
4.22719e-06
1.14621e-05
8.81478e-06
5.56954e-06
9.38953e-06
5.9099e-06
1.21012e-05
6.76339e-06
9.7388e-06
9.90467e-06
1.2363e-05
1.46845e-05
9.84262e-06
7.26244e-06
1.15097e-05
1.01136e-05
8.04069e-06
8.52249e-06
7.79378e-06
9.25905e-06
8.88179e-06
4.04207e-06
1.15903e-05
9.48286e-06
6.87399e-06
1.01952e-05
1.0826e-05
7.19799e-06
8.22459e-06
9.918e-06
8.54261e-06
7.38343e-06
1.08202e-05
1.16355e-05
9.68491e-06
1.1558e-05
1.28931e-05
1.14207e-05
7.03516e-06
7.36516e-06
1.13124e-05
1.60622e-05
8.02437e-06
9.59531e-06
1.11171e-05
1.26007e-05
1.53381e-05
1.09813e-05
9.16063e-06
7.66556e-06
1.18243e-05
1.47706e-05
1.01133e-05
6.5623e-06
1.21471e-05
1.33131e-05
8.96032e-06
1.18822e-05
9.38389e-06
9.89447e-06
5.09861e-06
9.64363e-06
1.04973e-05
3.49426e-06
7.93307e-06
9.83753e-06
1.12374e-05
9.71218e-06
1.21358e-05
1.31244e-05
8.87768e-06
1.27468e-05
6.97639e-06
8.08954e-06
1.04616e-05
3.41804e-06
1.15042e-05
1.075e-05
1.16023e-05
9.95252e-06
9.66186e-06
8.99719e-06
5.00446e-06
1.1897e-05
1.21342e-05
1.33308e-05
1.12453e-05
8.76982e-06
5.93926e-06
8.10929e-06
9.84599e-06
1.1458e-05
9.65227e-06
8.09569e-06
7.82385e-06
6.73995e-06
9.84724e-06
1.13358e-05
8.43728e-06
9.16235e-06
9.15157e-06
1.1313e-05
1.13457e-05
7.86651e-06
5.84971e-06
1.18942e-05
6.1267e-06
9.33482e-06
8.52338e-06
7.4117e-06
1.16013e-05
9.67122e-06
9.5158e-06
7.56824e-06
6.0811e-06
1.00335e-05
9.13354e-06
6.02233e-06
4.8718e-06
9.16326e-06
8.97042e-06
1.11851e-05
6.45251e-06
9.85722e-06
6.45045e-06
1.09999e-05
7.23427e-06
5.01452e-06
1.16455e-05
8.8614e-06
6.57154e-06
1.6604e-05
1.08362e-05
3.82811e-06
1.06342e-05
9.69858e-06
6.72436e-06
4.23358e-06
1.13387e-05
8.61448e-06
1.05837e-05
1.26331e-05
1.03445e-05
9.87114e-06
8.51908e-06
1.05213e-05
1.45987e-05
1.35304e-05
9.0928e-06
7.72475e-06
4.83062e-06
6.06367e-06
1.409e-05
1.08743e-05
7.20417e-06
6.39227e-06
7.28135e-06
1.06216e-05
5.6127e-06
9.57117e-06
1.12586e-05
1.36247e-05
5.87247e-06
6.6256e-06
9.78278e-06
9.61655e-06
5.19626e-06
1.00235e-05
9.77929e-06
5.44568e-06
9.24657e-06
8.83414e-06
1.01845e-05
9.96406e-06
1.14479e-05
3.76764e-06
7.06154e-06
1.30068e-05
7.18743e-06
1.17351e-05
1.39855e-05
9.28592e-06
6.141e-06
6.56344e-06
9.2817e-06
6.6646e-06
1.01827e-05
1.34888e-05
9.38807e-06
1.29967e-05
1.15825e-05
9.97421e-06
7.41301e-06
7.20523e-06
9.0686e-06
3.39252e-06
1.18397e-05
1.00708e-05
6.56581e-06
1.13019e-05
9.48095e-06
9.19187e-06
1.19677e-05
7.6277e-06
8.33806e-06
1.31322e-05
8.6041e-06
1.18507e-05
6.50445e-06
1.12192e-05
1.07114e-05
1.00871e-05
1.08289e-05
1.12921e-05
1.15394e-05
7.21806e-06
6.56939e-06
1.65136e-05
9.01876e-06
1.17264e-05
6.90112e-06
9.72501e-06
1.23855e-05
5.91795e-06
8.40546e-06
1.16875e-05
7.34435e-06
8.18631e-06
1.00984e-05
9.30735e-06
8.07598e-06
1.46962e-05
1.44976e-05
7.37137e-06
9.42528e-06
9.91901e-06
7.64943e-06
1.1988e-05
1.10949e-05
1.15122e-05
1.02346e-05
1.06752e-05
1.28164e-05
1.00467e-05
8.95082e-06
7.76729e-06
1.10585e-05
1.27623e-05
7.17264e-06
1.0023e-05
1.03145e-05
9.54177e-06
8.57613e-06
1.06764e-05
1.34761e-05
1.0143e-05
1.29855e-05
1.35588e-05
3.58202e-06
1.23815e-05
1.10908e-05
5.48488e-06
8.19059e-06
1.30407e-05
8.70431e-06
1.08021e-05
9.95862e-06
8.10971e-06
1.07252e-05
1.00002e-05
1.18193e-05
1.18371e-05
6.52158e-06
1.15162e-05
1.00211e-05
7.33279e-06
4.90729e-06
1.0669e-05
1.15691e-05
1.22778e-05
1.1926e-05
9.74285e-06
1.06533e-05
9.07618e-06
4.42854e-06
7.34751e-06
6.69703e-06
1.11269e-05
1.35268e-05
2.44898e-06
8.91041e-06
1.06684e-05
4.80231e-06
7.31755e-06
5.61159e-06
1.47851e-05
9.06409e-06
5.3738e-06
9.78077e-06
1.13611e-05
1.2166e-05
1.25028e-05
1.23926e-05
1.24803e-05
2.81618e-06
8.96249e-06
5.11608e-06
4.9084e-06
1.4666e-05
6.19654e-06
1.1673e-05
7.78339e-06
1.012e-05
7.19978e-06
9.57463e-06
1.4226e-05
6.61543e-06
1.0929e-05
1.062e-05
6.15568e-06
8.22549e-06
1.33302e-05
1.27946e-05
1.43425e-05
4.46599e-06
1.58769e-05
5.85427e-06
1.05747e-05
8.71528e-06
1.06259e-05
5.41518e-06
1.01268e-05
1.02778e-05
1.40467e-05
5.19678e-06
1.13262e-05
9.32423e-06
1.19792e-05
1.34797e-05
6.62587e-06
9.05745e-06
1.21468e-05
8.05469e-06
1.57391e-05
8.07419e-06
6.20001e-06
5.27031e-06
8.121e-06
1.05404e-05
4.7831e-06
5.2248e-06
1.19404e-05
8.15139e-06
9.68354e-06
9.923e-06
7.88976e-06
7.94338e-06
1.24292e-05
8.29891e-06
6.66104e-06
5.2901e-06
6.67968e-06
1.05041e-05
8.58995e-06
1.0568e-05
9.43916e-06
1.31912e-05
1.28602e-05
8.95075e-06
2.30505e-06
9.15086e-06
9.98919e-06
1.21947e-05
7.11558e-06
8.91509e-06
1.24622e-05
8.82079e-06
8.03591e-06
1.02133e-05
1.61589e-05
8.90674e-06
8.76094e-06
8.44351e-06
1.02808e-05
9.36262e-06
1.0089e-05
1.18544e-05
1.46319e-05
8.01872e-06
1.00325e-05
8.83492e-06
8.08208e-06
9.43341e-06
1.18424e-05
6.70232e-06
1.35298e-05
6.44308e-06
5.85168e-06
1.07272e-05
1.566e-05
1.36643e-05
1.05381e-05
8.30215e-06
1.07281e-05
5.6422e-06
6.4122e-06
9.51658e-06
8.94979e-06
1.14259e-05
7.49068e-06
1.45177e-05
1.24983e-05
9.66424e-06
1.05369e-05
9.92785e-06
7.00126e-06
4.62863e-06
1.28908e-05
1.27159e-05
5.54376e-06
7.09131e-06
1.30773e-05
1.13704e-05
8.7726e-06
9.16578e-06
3.7348e-06
1.11173e-05
1.31692e-05
9.3626e-06
1.0521e-05
1.1503e-05
8.48729e-06
8.93237e-06
7.73804e-06
6.11694e-06
9.52202e-06
5.77275e-06
1.16664e-05
4.33322e-06
1.2654e-05
8.87769e-06
8.94418e-06
1.61461e-05
5.49158e-06
7.9683e-06
7.08164e-06
1.46002e-05
1.35167e-05
8.74788e-06
1.52636e-05
8.99098e-06
1.08644e-05
9.51343e-06
1.41205e-05
1.21732e-05
1.18832e-05
1.38389e-05
4.37287e-06
1.08654e-05
1.58404e-05
9.13436e-06
8.61628e-06
1.41094e-05
6.6483e-06
6.03501e-06
7.68999e-06
1.36256e-05
8.18994e-06
1.75799e-05
8.30955e-06
1.61276e-05
1.28976e-05
7.16744e-06
1.34061e-05
6.05302e-06
1.38098e-05
4.38831e-06
5.90729e-06
4.28001e-06
6.62384e-06
1.0321e-05
8.24779e-06
1.05296e-05
6.39306e-06
9.84241e-06
1.26733e-05
5.81934e-06
1.08014e-05
1.03588e-05
9.45508e-06
1.37891e-05
6.4018e-06
7.05163e-06
8.93792e-06
1.09167e-05
1.04118e-05
6.80803e-06
1.42925e-05
1.26214e-05
9.98355e-06
6.51469e-06
1.28584e-05
1.03466e-05
5.12896e-06
7.32702e-06
1.30062e-05
2.41426e-06
8.18228e-06
7.21693e-06
1.37672e-05
8.12876e-06
1.27761e-05
1.16466e-05
4.97199e-06
1.39379e-05
1.24643e-05
1.47628e-05
1.16109e-05
1.44913e-05
9.8267e-06
8.08382e-06
9.74657e-06
7.13115e-06
8.92807e-06
5.75469e-06
7.60039e-06
7.69609e-06
1.03346e-05
1.22701e-05
1.09694e-05
9.34594e-06
1.46451e-05
6.61125e-06
1.00492e-05
1.10332e-05
9.61761e-06
1.29785e-05
7.55221e-06
1.21581e-05
4.85681e-06
1.39415e-05
8.83578e-06
9.62999e-06
1.50037e-05
1.40329e-05
4.71112e-06
1.00772e-05
1.50807e-05
1.58052e-05
6.5389e-06
5.96735e-06
1.06837e-05
8.64693e-06
9.81802e-06
1.3034e-05
1.03162e-05
7.4813e-06
1.52059e-05
1.04091e-05
1.09549e-05
1.50817e-05
7.12177e-06
1.01698e-05
4.20987e-06
1.14414e-05
5.64244e-06
6.02581e-06
1.16102e-05
9.27561e-06
9.69335e-06
1.39414e-05
1.16163e-05
4.97992e-06
5.54777e-06
9.56671e-06
1.14545e-05
5.53343e-06
5.61484e-06
1.31941e-05
7.88979e-06
6.83636e-06
9.84304e-06
1.03628e-05
1.05503e-05
8.38648e-06
1.1218e-05
7.69929e-06
1.01295e-05
1.29605e-05
8.50697e-06
8.35113e-06
9.59125e-06
9.14323e-06
9.6488e-06
6.37516e-06
9.92134e-06
6.99297e-06
7.69416e-06
8.80536e-06
8.44023e-06
1.55571e-05
6.17902e-06
9.5486e-06
1.17412e-05
5.88163e-06
1.07475e-05
9.15472e-06
9.99427e-06
1.35153e-05
1.27314e-05
1.37724e-05
1.36335e-05
1.11837e-05
6.2612e-06
2.46538e-06
8.76192e-06
7.88112e-06
1.13292e-05
1.00331e-05
9.63744e-06
6.72044e-06
1.62182e-05
1.25187e-05
7.6807e-06
1.00908e-05
1.17204e-05
1.4153e-05
7.70685e-06
5.33295e-06
1.09494e-05
8.31141e-06
1.13872e-05
7.96177e-06
8.92269e-06
1.3819e-05
1.14894e-05
9.4561e-06
7.77235e-06
7.58019e-06
1.25518e-05
1.03954e-05
1.04862e-05
7.12182e-06
1.33994e-05
1.06154e-05
4.65675e-06
1.18924e-05
1.10107e-05
8.69467e-06
1.16684e-05
8.32801e-06
5.68876e-06
9.38339e-06
1.32959e-05
1.03968e-05
6.0636e-06
6.91387e-06
1.00258e-05
1.47926e-05
1.18327e-05
1.21522e-05
9.21758e-06
9.19312e-06
9.07193e-06
5.94793e-06
5.26372e-06
6.89525e-06
3.15486e-06
6.6784e-06
2.80805e-06
1.35711e-05
7.00821e-06
7.38332e-06
1.22172e-05
1.72067e-05
9.84739e-06
6.27677e-06
1.14563e-05
1.6496e-05
1.00422e-05
1.26335e-05
1.01599e-05
8.37407e-06
9.94241e-06
9.64417e-06
7.71304e-06
9.67588e-06
8.6321e-06
7.35733e-06
7.82888e-06
7.52905e-06
1.02982e-05
9.42284e-06
1.06121e-05
5.70194e-06
1.21661e-05
1.19851e-05
1.43921e-05
9.83151e-06
7.54299e-06
1.09659e-05
1.06453e-05
1.39121e-05
4.20453e-06
9.11397e-06
1.55983e-05
8.74705e-06
1.07325e-05
1.04606e-05
8.0821e-06
8.82183e-06
9.87453e-06
1.06721e-05
9.64633e-06
1.11493e-05
8.28604e-06
1.12955e-05
7.90748e-06
8.02658e-06
6.87061e-06
1.13069e-05
8.6362e-06
7.26383e-06
4.72677e-06
1.32786e-05
1.48919e-05
1.00297e-05
1.11322e-05
4.16567e-06
1.18455e-05
1.44597e-05
8.61718e-06
1.04946e-05
1.54425e-05
5.36007e-06
1.44739e-05
3.04567e-06
5.71462e-06
1.26175e-05
6.60909e-06
4.84692e-06
1.5972e-05
1.17925e-05
9.266e-06
9.34085e-06
9.42396e-06
1.15251e-05
5.76632e-06
5.94352e-06
1.01847e-05
1.02671e-05
5.61023e-06
1.49978e-05
4.04852e-06
1.13049e-05
5.69767e-06
1.04044e-05
1.1561e-05
4.26941e-06
1.45804e-05
1.28728e-05
1.39478e-05
8.99783e-06
1.08279e-05
8.20831e-06
8.42304e-06
6.7873e-06
1.06878e-05
8.33603e-06
1.37543e-05
6.14329e-06
1.13475e-05
9.41738e-06
1.0655e-05
4.39376e-06
5.8814e-06
5.34534e-06
9.74441e-06
1.20097e-05
1.33246e-05
1.15577e-05
1.00844e-05
6.59232e-06
7.2152e-06
1.22505e-05
8.89463e-06
1.17865e-05
1.19716e-05
1.39571e-05
1.02376e-05
1.36182e-05
1.24223e-05
7.18511e-06
5.29921e-06
9.40504e-06
1.59446e-05
6.96212e-06
8.7962e-06
1.69303e-05
1.25643e-05
1.5395e-05
1.61121e-05
1.51716e-05
1.77866e-05
8.17389e-06
7.60635e-06
9.41794e-06
7.11188e-06
1.05346e-05
1.02398e-05
9.08799e-06
1.49309e-05
1.13894e-05
1.09813e-05
8.90875e-06
1.02453e-05
9.47784e-06
9.09433e-06
5.32188e-06
1.21423e-05
9.94743e-06
9.74887e-06
1.12029e-05
1.09063e-05
1.34095e-05
1.35219e-05
1.1029e-05
5.10326e-06
8.36314e-06
1.12903e-05
1.06448e-05
9.23025e-06
1.27092e-05
5.58568e-06
3.2241e-06
1.32937e-05
6.80167e-06
5.44241e-06
1.13621e-05
8.14069e-06
1.66661e-05
5.6803e-06
5.45708e-06
1.02163e-05
3.72414e-06
1.06353e-05
1.1933e-05
7.80748e-06
9.33092e-06
1.01628e-05
9.79058e-06
1.49722e-05
1.22373e-05
1.04003e-05
6.86865e-06
1.56127e-05
1.25058e-05
6.80832e-06
1.6832e-05
1.26197e-05
4.9495e-06
8.73838e-06
7.77987e-06
1.19583e-05
1.74828e-05
6.11075e-06
7.61422e-06
7.67811e-06
7.23824e-06
1.55686e-05
1.06872e-05
1.05515e-05
7.85721e-06
6.96119e-06
1.36516e-05
6.05755e-06
6.1756e-06
1.27107e-05
3.66878e-06
9.99229e-06
6.51638e-06
1.00642e-05
1.02456e-05
8.3431e-06
1.44756e-05
1.02952e-05
1.06083e-05
1.77889e-05
1.53545e-05
3.88342e-06
1.07243e-05
4.08646e-06
1.31108e-05
1.0313e-05
8.22738e-06
3.52432e-06
1.28731e-05
7.14536e-06
5.56146e-06
6.3155e-06
4.95832e-06
9.56227e-06
8.90379e-06
6.67112e-06
1.35643e-05
1.48586e-05
8.80984e-06
1.06588e-05
1.55945e-05
7.3366e-06
1.49835e-05
1.21394e-05
1.01836e-05
9.69266e-06
1.41356e-05
9.80684e-06
8.45726e-06
8.01751e-06
6.44096e-06
5.98255e-06
4.85106e-06
1.10064e-05
8.33518e-06
9.24841e-06
5.84187e-06
1.04269e-05
1.62962e-05
9.48082e-06
5.87179e-06
7.14417e-06
1.37952e-05
9.1524e-06
1.07318e-05
1.27992e-05
7.13221e-06
9.55004e-06
8.66592e-06
1.21669e-05
1.73286e-05
9.41255e-06
1.1107e-05
1.04019e-05
1.43871e-05
1.05058e-05
1.04463e-05
8.74697e-06
1.42669e-05
9.11576e-06
9.94275e-06
7.71093e-06
5.23539e-06
1.08449e-05
1.10356e-05
1.48702e-05
9.17406e-06
1.15566e-05
9.32511e-06
8.93449e-06
1.29209e-05
5.39371e-06
7.32104e-06
1.22722e-05
8.43351e-06
1.0541e-05
1.18746e-05
1.00278e-05
1.11526e-05
1.09736e-05
1.05664e-05
5.2884e-06
1.16522e-05
1.57441e-05
1.27346e-05
5.17926e-06
1.26144e-05
1.17095e-05
7.07436e-06
1.44698e-05
1.49411e-05
7.67245e-06
1.08169e-05
8.65624e-06
8.53957e-06
1.02201e-05
1.13166e-05
1.35079e-05
5.64872e-06
1.02812e-05
5.1822e-06
6.0141e-06
1.29043e-05
1.43631e-05
8.89864e-06
9.36199e-06
9.41685e-06
1.32253e-05
1.09943e-05
1.13016e-05
1.12653e-05
6.45609e-06
6.78254e-06
1.01848e-05
1.03534e-05
1.69887e-05
9.74567e-06
7.77556e-06
1.3487e-05
1.41598e-05
1.61145e-05
1.15098e-05
1.00436e-05
9.78544e-06
9.27857e-06
7.38978e-06
6.47452e-06
1.38776e-05
1.12842e-05
8.10232e-06
9.73867e-06
9.64463e-06
1.29913e-05
1.38828e-05
9.55962e-06
1.09101e-05
1.15464e-05
5.24999e-06
1.34258e-05
1.33501e-05
1.20577e-05
5.06244e-06
2.72216e-06
1.16407e-05
1.07185e-05
8.49876e-06
1.24701e-05
9.52116e-06
9.66957e-06
6.02323e-06
8.8146e-06
1.41122e-05
1.47089e-05
1.73169e-05
1.47622e-05
8.85404e-06
1.60228e-05
1.02384e-05
3.77184e-06
1.05607e-05
6.72133e-06
1.03854e-05
7.75721e-06
7.59336e-06
1.43975e-05
1.12666e-05
7.7933e-06
1.1607e-05
7.13012e-06
7.42956e-06
1.02531e-05
1.00293e-05
1.52006e-05
1.06781e-05
7.08659e-06
1.16101e-05
1.27296e-05
4.38393e-06
9.67758e-06
4.24163e-06
4.95389e-06
1.01408e-05
1.01735e-05
1.1462e-05
1.30094e-05
1.43387e-05
1.12322e-05
7.03521e-06
9.46179e-06
1.11422e-05
1.38023e-05
5.80099e-06
7.11729e-06
1.33035e-05
1.15908e-05
1.5113e-05
9.68689e-06
9.68301e-06
1.55905e-05
5.52689e-06
1.39063e-05
9.43063e-06
1.3348e-05
4.68534e-06
8.39896e-06
9.81097e-06
1.1119e-05
1.23362e-05
3.97628e-06
1.39758e-05
9.73773e-06
1.16094e-05
1.26024e-05
6.58322e-06
9.46027e-06
8.61069e-06
1.37643e-05
1.18911e-05
7.13414e-06
1.46134e-05
7.50165e-06
1.1378e-05
1.35299e-05
1.35131e-05
1.3354e-05
9.58423e-06
6.62903e-06
6.21457e-06
1.3841e-05
8.3979e-06
1.30457e-05
9.5208e-06
1.06147e-05
9.94347e-06
1.16553e-05
9.05658e-06
9.97151e-06
1.03025e-05
4.13257e-06
1.67043e-05
6.59252e-06
6.98095e-06
1.01549e-05
1.77985e-05
1.26108e-05
7.24208e-06
1.33046e-05
9.34326e-06
8.60359e-06
1.26619e-05
7.08262e-06
1.2827e-05
1.30822e-05
1.311e-05
1.49913e-05
1.01182e-05
5.92076e-06
8.50283e-06
9.45053e-06
1.32643e-05
6.64019e-06
6.92817e-06
7.9196e-06
1.08766e-05
5.71342e-06
1.38078e-05
6.73045e-06
1.07461e-05
8.11716e-06
1.48743e-05
1.30689e-05
1.08013e-05
9.55468e-06
9.25358e-06
6.12865e-06
5.86834e-06
9.94473e-06
1.0773e-05
5.7567e-06
1.4901e-05
4.5903e-06
1.16679e-05
5.69565e-06
9.33914e-06
1.11408e-05
9.77576e-06
4.41404e-06
1.02512e-05
9.36012e-06
6.37596e-06
9.52731e-06
8.69018e-06
4.67126e-06
1.3672e-05
1.90004e-05
9.4865e-06
7.1742e-06
1.00904e-05
1.15044e-05
9.32226e-06
1.00549e-05
1.03854e-05
1.27825e-05
8.27889e-06
1.37218e-05
3.02229e-06
1.34685e-05
1.53623e-05
1.21858e-05
8.86733e-06
1.07591e-05
9.18296e-06
9.90659e-06
7.80307e-06
1.39801e-05
7.91642e-06
1.371e-05
8.65361e-06
2.90437e-06
6.30105e-06
8.06443e-06
1.15401e-05
1.05912e-05
4.19207e-06
4.60511e-06
7.91898e-06
6.52532e-06
9.36433e-06
1.02205e-05
1.29211e-05
1.44371e-05
9.64119e-06
1.49954e-05
1.32506e-05
1.04145e-05
6.42248e-06
1.25436e-05
1.22033e-05
4.93154e-06
1.02557e-05
7.60692e-06
1.30535e-05
1.50113e-05
8.4081e-06
1.44493e-05
9.17533e-06
5.72293e-06
5.425e-06
7.82347e-06
8.35302e-06
1.21323e-05
9.38435e-06
1.33436e-05
6.80935e-06
9.46453e-06
1.0585e-05
1.41022e-05
2.17532e-06
1.06208e-05
1.09362e-05
7.66689e-06
8.78474e-06
6.22059e-06
1.31351e-05
6.17721e-06
1.27963e-05
8.5255e-06
3.35383e-06
9.49755e-06
1.46896e-05
1.32067e-05
1.00479e-05
1.3201e-05
1.70665e-05
1.36944e-05
9.1179e-06
1.07927e-05
8.26436e-06
1.18977e-05
2.86945e-06
1.26912e-05
1.06615e-05
1.22128e-05
1.05974e-05
1.3506e-05
1.08659e-05
1.32668e-05
1.27096e-05
8.58811e-06
6.25465e-06
9.20003e-06
6.78338e-06
8.68115e-06
9.62116e-06
1.18042e-05
7.91396e-06
8.75282e-06
1.15576e-05
6.08264e-06
9.19182e-06
1.3481e-05
1.72669e-05
1.016e-05
9.9735e-06
4.91215e-06
8.96362e-06
9.08042e-06
1.34114e-05
4.86795e-06
1.19676e-05
1.01285e-05
9.85512e-06
1.60707e-05
5.99763e-06
1.30957e-05
1.39894e-05
1.17837e-05
1.42028e-05
1.3212e-05
7.94754e-06
1.2257e-05
1.02253e-05
6.44507e-06
1.08757e-05
7.63955e-06
1.28433e-05
8.7979e-06
1.0884e-05
6.12439e-06
1.21005e-05
6.07848e-06
1.50991e-05
1.07303e-05
4.26969e-06
6.49613e-06
9.08823e-06
9.3295e-06
9.70627e-06
1.20332e-05
9.52622e-06
9.89902e-06
1.14331e-05
1.46148e-05
1.62166e-05
1.09208e-05
4.94365e-06
6.38789e-06
6.86448e-06
6.05077e-06
1.08251e-05
1.20365e-05
1.26929e-05
1.12994e-05
7.79658e-06
1.27924e-05
1.1773e-05
1.28539e-05
7.95668e-06
1.15822e-05
1.33502e-05
1.53273e-05
1.17194e-05
1.39448e-05
8.78706e-06
1.18028e-05
8.79643e-06
5.74129e-06
7.48255e-06
9.95438e-06
7.21449e-06
5.99876e-06
8.74784e-06
1.03875e-05
7.78786e-06
8.15646e-06
1.00499e-05
1.07291e-05
8.26562e-06
1.36332e-05
9.15947e-06
1.37985e-05
1.52617e-05
1.34111e-05
5.96582e-06
1.38344e-05
1.20157e-05
1.07678e-05
7.46289e-06
7.60715e-06
9.90749e-06
9.00308e-06
1.40126e-05
1.33973e-05
1.18117e-05
1.12355e-05
9.79288e-06
1.18267e-05
4.52618e-06
1.20966e-05
1.01038e-05
1.56622e-05
1.2803e-05
4.5815e-06
9.33934e-06
7.95449e-06
9.23692e-06
1.439e-05
6.89092e-06
1.09645e-05
1.43797e-05
1.34796e-05
1.27488e-05
7.58654e-06
8.70559e-06
5.97131e-06
8.30674e-06
1.26859e-05
2.32718e-06
9.22578e-06
7.62979e-06
1.30813e-05
8.60127e-06
1.3663e-05
7.41602e-06
4.46562e-06
9.87215e-06
9.69335e-06
1.44473e-05
1.00881e-05
7.03654e-06
1.31157e-05
9.43191e-06
1.00824e-05
1.41001e-05
9.48041e-06
9.41271e-06
9.51511e-06
3.97001e-06
1.36982e-05
9.38158e-06
9.24652e-06
7.42251e-06
1.22187e-05
1.00429e-05
1.07022e-05
9.68563e-06
1.28646e-05
1.33689e-05
1.0615e-05
4.78866e-06
1.21641e-05
9.74657e-06
1.34495e-05
1.05062e-05
8.50709e-06
1.23581e-05
5.96685e-06
1.05281e-05
9.5018e-06
1.05245e-05
5.92457e-06
1.32373e-05
1.0555e-05
7.87064e-06
7.55558e-06
1.23878e-05
1.3284e-05
9.85385e-06
9.21431e-06
9.40779e-06
1.60635e-05
9.64426e-06
1.03697e-05
1.56686e-05
6.19571e-06
1.07556e-05
7.51531e-06
5.8315e-06
5.10961e-06
1.0837e-05
8.09757e-06
1.31057e-05
1.33881e-05
8.44465e-06
1.21015e-05
6.78857e-06
8.48025e-06
9.16679e-06
7.67726e-06
6.51085e-06
1.07168e-05
1.40358e-05
8.68876e-06
1.37494e-05
8.13587e-06
1.18221e-05
1.16619e-05
6.4749e-06
1.28817e-05
1.33575e-05
1.33845e-05
6.21599e-06
4.60993e-06
6.55002e-06
1.11928e-05
1.14211e-05
1.0037e-05
1.38011e-05
9.3643e-06
1.46077e-05
9.88012e-06
1.67993e-05
6.52326e-06
6.27996e-06
9.66831e-06
1.59559e-05
8.91678e-06
1.3402e-05
9.36683e-06
8.02154e-06
6.70484e-06
1.00801e-05
1.4188e-05
4.91331e-06
4.60212e-06
1.0722e-05
1.01179e-05
1.29352e-05
1.29822e-05
1.18981e-05
1.39234e-05
1.27917e-05
1.12192e-05
1.12277e-05
1.23079e-05
9.53422e-06
1.58943e-05
7.35075e-06
1.01008e-05
9.77957e-06
1.4346e-05
9.68186e-06
1.08997e-05
9.61524e-06
1.36105e-05
9.22848e-06
1.34833e-05
8.64387e-06
1.0988e-05
1.46008e-05
1.06468e-05
1.50439e-05
7.52201e-06
1.11486e-05
1.04447e-05
4.12972e-06
1.59166e-05
1.07932e-05
1.58978e-05
5.16309e-06
7.79374e-06
5.40326e-06
1.10809e-05
9.67278e-06
6.2749e-06
9.02557e-06
1.05963e-05
1.49634e-05
8.84866e-06
1.00246e-05
1.3839e-05
5.36744e-06
1.65595e-05
1.61591e-05
6.16705e-06
1.03587e-05
8.01924e-06
1.43438e-05
1.69383e-05
1.4192e-05
1.49071e-05
1.01817e-05
9.85359e-06
1.2631e-05
5.48335e-06
1.41725e-05
1.14846e-05
8.16242e-06
1.01129e-05
1.43237e-05
1.49612e-05
1.25092e-05
1.2378e-05
8.974e-06
1.34784e-05
7.56242e-06
8.18185e-06
1.60877e-05
8.77222e-06
9.98473e-06
1.10095e-05
1.06826e-05
1.16279e-05
6.63114e-06
8.60914e-06
9.96e-06
1.01781e-05
1.07204e-05
7.26538e-06
1.21942e-05
5.35732e-06
7.47904e-06
8.10537e-06
1.38377e-05
8.23789e-06
7.51023e-06
1.193e-05
8.4433e-06
6.07179e-06
9.98202e-06
7.72493e-06
5.00082e-06
1.10093e-05
6.37469e-06
7.43695e-06
5.82802e-06
1.03883e-05
8.22899e-06
1.17299e-05
1.43798e-05
5.02065e-06
7.60684e-06
1.1707e-05
1.10335e-05
1.19325e-05
9.08557e-06
1.47579e-05
6.95136e-06
9.69338e-06
9.36285e-06
6.7146e-06
1.01897e-05
9.23998e-06
1.24626e-05
7.07997e-06
1.30143e-05
1.14836e-05
1.26973e-05
1.18121e-05
5.56026e-06
6.62699e-06
7.91133e-06
1.31478e-05
4.64308e-06
9.27444e-06
9.25422e-06
1.44606e-05
1.12585e-05
7.23884e-06
6.96286e-06
9.60547e-06
1.43463e-05
1.31648e-05
9.29407e-06
1.32414e-05
9.25516e-06
7.31013e-06
9.00884e-06
6.21036e-06
1.18224e-05
9.75605e-06
1.36925e-05
1.09748e-05
1.61852e-05
3.97537e-06
1.16049e-05
1.75796e-05
1.09279e-05
1.05703e-05
1.55919e-05
5.73541e-06
1.3552e-05
1.21145e-05
1.22182e-05
1.00324e-05
8.03446e-06
1.49807e-05
6.62719e-06
1.50306e-05
1.44274e-05
6.96469e-06
1.31019e-05
1.21448e-05
9.71109e-06
1.40974e-05
1.11291e-05
6.51734e-06
1.21247e-05
9.29828e-06
6.16207e-06
6.57362e-06
1.39664e-05
3.84043e-06
1.00948e-05
8.86121e-06
1.01833e-05
1.36664e-05
6.11598e-06
4.41111e-06
1.29379e-05
9.46519e-06
5.55198e-06
1.57105e-05
5.52484e-06
8.55602e-06
1.16349e-05
8.55716e-06
1.0665e-05
6.85649e-06
6.00576e-06
9.40577e-06
1.33769e-05
7.80015e-06
9.72091e-06
1.22981e-05
8.52975e-06
1.40319e-05
8.40776e-06
1.20909e-05
7.5465e-06
9.02981e-06
1.33783e-05
1.34823e-05
9.2009e-06
1.08228e-05
9.03948e-06
9.41658e-06
1.60625e-05
1.62612e-05
1.49544e-05
1.29295e-05
1.02492e-05
1.29605e-05
1.1658e-05
7.35292e-06
1.43263e-05
4.84858e-06
1.33201e-05
1.42457e-05
1.17584e-05
1.30001e-05
1.49806e-05
1.14929e-05
6.31701e-06
1.38749e-05
8.6142e-06
1.38964e-05
9.49899e-06
9.99444e-06
6.46624e-06
8.36669e-06
3.8077e-06
7.33258e-06
9.83743e-06
1.47387e-05
1.43506e-05
5.32076e-06
8.63334e-06
1.04349e-05
1.22986e-05
9.1189e-06
1.43965e-05
9.3588e-06
1.19923e-05
1.38584e-05
1.07668e-05
1.53479e-05
1.51071e-05
9.27534e-06
1.5588e-05
1.00647e-05
1.06633e-05
1.54257e-05
1.4671e-05
1.45379e-05
1.03557e-05
1.32711e-05
9.86849e-06
1.40743e-05
9.32082e-06
1.58938e-05
4.87772e-06
3.88794e-06
1.07914e-05
1.41286e-05
9.47324e-06
1.01635e-05
1.00573e-05
9.97551e-06
6.37084e-06
9.47268e-06
1.1009e-05
1.14889e-05
1.42092e-05
1.03113e-05
8.70967e-06
5.89288e-06
1.06627e-05
9.67671e-06
1.32422e-05
1.35978e-05
1.17201e-05
8.6326e-06
3.23113e-06
3.61716e-06
9.72707e-06
8.9675e-06
1.10375e-05
1.13424e-05
1.1253e-05
1.66252e-05
1.3137e-05
9.62019e-06
7.51446e-06
1.54967e-05
9.76879e-06
9.66692e-06
8.29599e-06
1.0357e-05
3.05508e-06
1.08573e-05
6.45919e-06
1.00264e-05
1.06163e-05
8.84871e-06
1.46198e-05
1.19811e-05
9.82993e-06
1.45394e-05
9.22149e-06
1.20657e-05
1.41944e-05
6.46103e-06
8.89759e-06
1.28316e-05
1.38903e-05
5.92015e-06
1.2838e-05
1.00492e-05
1.3658e-05
1.4425e-05
1.07996e-05
8.15639e-06
9.01888e-06
9.38477e-06
1.07293e-05
1.74768e-05
1.21883e-05
1.08389e-05
1.07724e-05
6.82687e-06
1.52805e-05
9.71822e-06
1.32205e-05
7.83961e-06
1.89108e-05
1.24109e-05
5.97707e-06
5.5516e-06
1.45166e-05
1.75997e-05
1.08429e-05
1.34254e-05
9.0633e-06
1.66441e-05
6.06882e-06
9.75854e-06
1.30623e-05
1.07858e-05
1.19365e-05
1.51147e-05
7.39927e-06
1.07062e-05
1.35086e-05
9.46927e-06
1.50992e-05
1.54193e-05
1.49631e-05
9.21317e-06
7.9533e-06
1.17059e-05
1.14998e-05
1.42127e-05
9.05687e-06
1.3166e-05
7.31992e-06
1.34013e-05
1.06342e-05
8.5026e-06
6.10881e-06
1.35604e-05
1.01888e-05
1.3647e-05
1.46613e-05
6.54544e-06
1.29565e-05
6.27012e-06
9.96776e-06
1.41701e-05
1.13912e-05
1.41202e-05
1.02333e-05
1.26744e-05
1.54772e-05
1.32256e-05
9.47229e-06
9.9848e-06
1.08226e-05
1.16388e-05
1.50678e-05
7.74443e-06
9.1211e-06
1.41126e-05
1.18804e-05
6.22767e-06
7.15416e-06
1.47088e-05
1.21773e-05
1.10008e-05
1.08968e-05
1.2084e-05
1.50941e-05
1.04866e-05
8.40172e-06
8.70892e-06
6.87754e-06
8.35379e-06
8.77467e-06
1.51043e-05
9.83309e-06
1.42776e-05
8.05982e-06
9.50335e-06
1.03426e-05
1.1914e-05
1.16934e-05
1.51499e-05
9.10941e-06
1.50721e-05
1.20711e-05
9.01841e-06
1.562e-05
1.09964e-05
1.32317e-05
4.3409e-06
1.63885e-05
1.04592e-05
1.31476e-05
6.64126e-06
9.37876e-06
1.48158e-05
1.0962e-05
1.32181e-05
1.32396e-05
1.6194e-05
1.50863e-05
1.03127e-05
1.57728e-05
8.92814e-06
1.11972e-05
1.432e-05
9.70948e-06
1.38311e-05
7.88355e-06
1.18957e-05
1.4398e-05
1.29665e-05
1.53168e-05
8.62646e-06
8.73528e-06
1.48833e-05
1.57414e-05
1.35328e-05
5.55227e-06
2.64645e-06
7.53578e-06
1.14642e-05
1.21407e-05
6.65684e-06
1.30503e-05
1.42057e-05
8.92973e-06
9.73125e-06
8.30172e-06
1.51135e-05
1.14633e-05
8.5533e-06
1.31397e-05
1.83344e-06
1.58092e-05
7.17689e-06
9.37199e-06
8.42336e-06
1.19845e-05
1.11029e-05
1.03916e-05
1.21526e-05
1.25659e-05
1.5252e-05
8.32708e-06
1.23195e-05
1.39727e-05
1.39135e-05
1.28313e-05
1.33998e-05
7.90407e-06
9.807e-06
9.38184e-06
9.62053e-06
5.38089e-06
1.04808e-05
1.34222e-05
8.98834e-06
9.94649e-06
4.65769e-06
1.02473e-05
1.0575e-05
1.46932e-05
7.15111e-06
1.2647e-05
4.78059e-06
1.04478e-05
1.29706e-05
6.64949e-06
1.37248e-05
9.15089e-06
8.48771e-06
9.42932e-06
4.02419e-06
9.34982e-06
1.63576e-05
1.42794e-05
1.54581e-05
6.36806e-06
1.71825e-05
9.41875e-06
9.14801e-06
1.39887e-05
1.31978e-05
1.27908e-05
5.02162e-06
6.20351e-06
1.31181e-05
1.33451e-05
1.3068e-05
9.18763e-06
5.83149e-06
1.25048e-05
1.42384e-05
1.23561e-05
5.80722e-06
1.27415e-05
1.33929e-05
1.55097e-05
1.38042e-05
1.21278e-05
6.01087e-06
8.27e-06
5.88538e-06
1.55382e-05
1.32462e-05
1.00354e-05
1.45304e-05
7.30352e-06
1.33794e-05
5.47526e-06
8.88177e-06
1.05359e-05
1.20792e-05
5.64615e-06
8.4302e-06
7.60734e-06
5.81698e-06
1.80993e-05
8.40856e-06
1.26857e-05
1.19029e-05
9.79053e-06
8.23031e-06
1.25062e-05
1.24407e-05
1.04064e-05
7.90366e-06
6.00228e-06
1.03181e-05
1.44251e-05
7.74936e-06
3.56339e-06
1.03838e-05
9.61171e-06
9.63471e-06
1.35728e-05
1.42398e-05
1.01035e-05
5.73572e-06
6.13286e-06
6.84372e-06
1.12338e-05
1.27735e-05
1.40038e-05
7.23361e-06
1.2194e-05
8.18838e-06
1.12236e-05
1.02292e-05
1.5006e-05
1.03844e-05
8.68966e-06
5.60131e-06
1.71005e-05
1.02561e-05
1.49534e-05
1.10103e-05
1.54723e-05
7.47926e-06
1.61126e-05
1.27877e-05
1.09492e-05
7.29846e-06
9.50243e-06
1.24228e-05
1.71597e-05
1.06267e-05
4.50631e-06
9.03334e-06
8.55245e-06
6.64736e-06
1.57274e-05
9.11124e-06
7.47874e-06
1.74151e-05
1.59908e-05
9.98684e-06
1.0328e-05
9.43098e-06
8.28746e-06
1.02186e-05
9.4547e-06
9.80012e-06
1.40129e-05
1.57011e-05
1.22408e-05
6.54925e-06
1.11436e-05
1.26097e-05
8.63614e-06
1.14115e-05
1.02717e-05
6.16882e-06
1.32739e-05
9.24122e-06
5.77657e-06
1.59339e-05
9.64745e-06
7.90085e-06
1.15181e-05
1.38578e-05
7.22689e-06
1.41744e-05
6.1469e-06
3.70301e-06
9.37648e-06
1.15398e-05
1.70208e-05
1.69701e-05
1.38501e-05
1.43043e-05
1.37515e-05
8.09888e-06
1.29294e-05
8.41374e-06
5.26668e-06
1.34036e-05
8.09373e-06
1.22419e-05
1.39067e-05
1.38181e-05
1.10459e-05
1.754e-05
1.51647e-05
1.15477e-05
1.00534e-05
4.59125e-06
8.47232e-06
1.02842e-05
1.39689e-05
8.19835e-06
9.6487e-06
9.80166e-06
1.36041e-05
1.38627e-05
9.46822e-06
8.87448e-06
1.42911e-05
8.99186e-06
1.53906e-05
7.18412e-06
1.04582e-05
1.6684e-05
5.52679e-06
8.70791e-06
1.66515e-05
1.07503e-05
8.22668e-06
1.34804e-05
1.26524e-05
6.06248e-06
1.01205e-05
1.11641e-05
1.08877e-06
1.43651e-05
9.44834e-06
8.71254e-06
5.89561e-06
6.17398e-06
1.01591e-05
1.58022e-05
1.22594e-05
1.0767e-05
1.01818e-05
1.21846e-05
1.07143e-05
1.21272e-05
4.78575e-06
1.30291e-05
1.16004e-05
1.84163e-05
9.60246e-06
1.61491e-05
1.01376e-05
6.81961e-06
1.53426e-05
1.13454e-05
1.41676e-05
5.54718e-06
9.80566e-06
1.01646e-05
8.51906e-06
1.05661e-05
1.16259e-05
1.56045e-05
1.31022e-05
9.07824e-06
1.27768e-05
1.39798e-05
9.10263e-06
1.39149e-05
8.35797e-06
1.31778e-05
7.24236e-06
1.44015e-05
1.35431e-05
1.42695e-05
1.66534e-05