/*--------------------------------*- C++ -*----------------------------------*\
| =========                 |                                                 |
| \\      /  F ield         | OpenFOAM: The Open Source CFD Toolbox           |
|  \\    /   O peration     | Version:  v2012                                 |
|   \\  /    A nd           | Website:  www.openfoam.com                      |
|    \\/     M anipulation  |                                                 |
\*---------------------------------------------------------------------------*/
FoamFile
{
    version     2.0;
    format      ascii;
    class       pointSymmTensorField;
    location    "17";
    object      pEpsilon;
}
// * * * * * * * * * * * * * * * * * * * * * * * * * * * * * * * * * * * * * //

dimensions      [0 0 0 0 0 0 0];


internalField   nonuniform List<symmTensor> 
7900
(
(0.000422755 8.77074e-06 -9.47593e-16 -0.00110531 0 0)
(0.000414865 -2.9355e-06 -1.88217e-15 3.27939e-05 0 0)
(0.000520989 4.15855e-07 -2.27682e-15 -0.000223633 3.7615e-16 0)
(0.000118949 5.73532e-05 0 -8.8295e-05 -1.25767e-16 0)
(0.00794067 -0.00017135 0 -0.00762141 -2.52855e-14 0)
(0.000422755 8.77074e-06 -9.47593e-16 -0.00110531 0 0)
(0.000414865 -2.9355e-06 -1.88217e-15 3.27939e-05 0 0)
(0.000520989 4.15855e-07 -2.27682e-15 -0.000223633 3.7615e-16 0)
(0.000118949 5.73532e-05 0 -8.8295e-05 -1.25767e-16 0)
(0.00794067 -0.00017135 0 -0.00762141 -2.52855e-14 0)
(0.000351715 -2.78459e-07 -6.66784e-16 -0.000929049 0 0)
(0.000269345 -4.94483e-06 8.46762e-16 -0.000757951 0 0)
(0.000207779 -1.42736e-05 -1.2902e-16 -0.000646516 0 0)
(0.000151685 -1.641e-05 -1.58294e-16 -0.000530048 0 0)
(0.000110311 -1.11563e-05 1.2902e-16 -0.000437123 0 0)
(8.58326e-05 -1.03968e-05 2.12504e-16 -0.000364894 0 0)
(6.85016e-05 -1.10175e-05 -8.67362e-17 -0.000304928 0 0)
(5.83397e-05 -1.13583e-05 -1.6263e-17 -0.000256541 0 0)
(5.08144e-05 -1.33723e-05 -8.0231e-17 -0.000211422 0 0)
(4.51098e-05 -1.92849e-05 -5.20417e-17 -0.0001718 0 0)
(4.22313e-05 -1.46543e-05 4.44523e-17 -0.000135596 0 0)
(4.96219e-05 -1.49106e-05 -1.40946e-17 -0.000112217 0 0)
(5.21142e-05 -1.85112e-05 3.36103e-17 -8.81265e-05 0 0)
(5.88252e-05 -1.341e-05 4.33681e-17 -6.96991e-05 0 0)
(6.79473e-05 -1.74036e-05 9.86624e-17 -5.53432e-05 0 0)
(7.46175e-05 -1.31385e-05 1.6263e-17 -4.11767e-05 0 0)
(8.53457e-05 -1.04887e-05 1.22515e-16 -2.93725e-05 0 0)
(9.59728e-05 -1.21861e-05 4.66207e-17 -1.9735e-05 0 0)
(0.000105779 -1.03905e-05 3.14419e-17 -1.14286e-05 0 0)
(0.000117956 -1.18316e-05 1.06252e-16 -6.3522e-06 0 0)
(0.000131367 -1.16831e-05 3.6646e-16 -3.18172e-06 0 0)
(0.000141291 -1.09066e-05 -1.82146e-16 5.51699e-07 0 0)
(0.000154962 -1.08223e-05 3.46945e-17 2.72224e-06 0 0)
(0.000165545 -1.05969e-05 5.39933e-16 3.90889e-06 0 0)
(0.000179467 -9.93674e-06 -2.97071e-16 3.49405e-06 0 0)
(0.000190732 -8.24911e-06 -4.33681e-18 3.66176e-06 0 0)
(0.000202925 -9.43356e-06 -3.95734e-16 2.76251e-06 0 0)
(0.00021686 -8.64833e-06 4.17418e-16 1.1939e-06 0 0)
(0.000227624 -8.55865e-06 3.83808e-16 -1.35606e-06 0 0)
(0.000241297 -8.4458e-06 3.17671e-16 -3.95289e-06 0 0)
(0.000251289 -7.9626e-06 9.69277e-16 -6.66444e-06 0 0)
(0.000263902 -8.0685e-06 2.98156e-16 -9.2775e-06 0 0)
(0.000276501 -7.06171e-06 -2.81893e-17 -1.28821e-05 0 0)
(0.000286653 -6.32173e-06 -6.20164e-16 -1.69345e-05 0 0)
(0.000299032 -6.17648e-06 -4.87891e-17 -1.96108e-05 0 0)
(0.000309237 -4.86572e-06 8.81456e-16 -2.32003e-05 0 0)
(0.000318284 -4.22998e-06 6.863e-16 -2.66041e-05 0 0)
(0.000328483 -5.08371e-06 -7.8171e-16 -2.92993e-05 0 0)
(0.000338448 -5.91911e-06 -8.45678e-16 -3.27668e-05 0 0)
(0.000348531 -5.8549e-06 -7.78457e-16 -3.61842e-05 0 0)
(0.000357505 -5.02134e-06 1.03216e-15 -3.92413e-05 0 0)
(0.000366309 -4.54014e-06 9.61687e-16 -4.13244e-05 0 0)
(0.000373131 -5.00266e-06 7.34005e-16 -4.33159e-05 0 0)
(0.00038145 -5.4713e-06 -9.4434e-16 -4.5198e-05 0 0)
(0.00038967 -4.85891e-06 -9.56266e-16 -4.68062e-05 0 0)
(0.000396152 -3.64729e-06 -1.79652e-15 -4.7691e-05 0 0)
(0.00040122 -3.50781e-06 -6.57027e-16 -4.76419e-05 0 0)
(0.00040758 -3.74543e-06 -2.01662e-16 -4.74731e-05 0 0)
(0.000412369 -4.2776e-06 -2.95662e-15 -4.61944e-05 0 0)
(0.000416246 -3.60694e-06 -4.18502e-16 -4.39859e-05 0 0)
(0.000420042 -3.92765e-06 1.92446e-15 -4.13593e-05 0 0)
(0.000423204 -3.85425e-06 3.78387e-15 -3.82825e-05 0 0)
(0.000424887 -3.09275e-06 1.83122e-15 -3.34801e-05 0 0)
(0.00042632 -2.81852e-06 3.61365e-15 -2.82028e-05 0 0)
(0.000426405 -2.50269e-06 -4.33681e-17 -2.07041e-05 0 0)
(0.000426539 -2.89211e-06 -2.64545e-16 -1.34917e-05 0 0)
(0.000423601 -4.35849e-06 -2.62377e-16 -3.01846e-06 0 0)
(0.000419489 -2.52128e-06 3.42608e-16 8.50115e-06 0 0)
(0.000416659 -2.11394e-06 6.17995e-16 2.02143e-05 0 0)
(0.000414452 -1.05246e-06 1.52005e-15 3.35365e-05 -5.59131e-16 0)
(0.000409733 -1.40093e-06 -1.17961e-15 3.4463e-05 -2.81143e-16 0)
(0.000419029 -1.78565e-06 1.36393e-15 2.88714e-05 -5.62366e-17 0)
(0.000417036 -1.49326e-06 -6.23416e-16 2.788e-05 -4.06576e-19 0)
(0.000419393 -1.75469e-06 5.59448e-16 2.21055e-05 -1.453e-16 0)
(0.000421134 -4.37497e-06 2.15756e-16 1.7831e-05 1.27401e-15 0)
(0.000422712 -2.84939e-06 -1.15901e-15 1.34394e-05 8.16298e-16 0)
(0.000425249 -4.27648e-06 -4.45607e-16 6.66843e-06 5.44701e-16 0)
(0.000429527 -5.15025e-06 -1.59161e-15 -4.26546e-08 9.02641e-17 0)
(0.000431429 -2.77882e-06 -2.60534e-15 -6.72133e-06 -7.33713e-16 0)
(0.000435073 -3.33062e-06 1.07336e-15 -1.66663e-05 2.41951e-16 0)
(0.000438873 -5.24549e-06 1.34441e-16 -2.54328e-05 -1.69407e-19 0)
(0.000441358 -3.98717e-06 1.07228e-15 -3.31173e-05 2.62597e-16 0)
(0.000446725 -4.98962e-06 -1.36393e-15 -4.49118e-05 4.79395e-16 0)
(0.000451299 -6.55289e-06 1.32381e-15 -5.54145e-05 8.71576e-17 0)
(0.000453711 -6.07629e-06 -6.17995e-17 -6.41211e-05 1.38296e-16 0)
(0.000458664 -6.74875e-06 2.52619e-16 -7.59236e-05 -7.01316e-16 0)
(0.000465032 -7.85679e-06 1.64799e-16 -8.80546e-05 5.56933e-16 0)
(0.000467815 -6.33196e-06 3.36103e-17 -9.77228e-05 4.67181e-16 0)
(0.000473903 -5.81569e-06 -3.23092e-16 -0.00011018 3.58879e-16 0)
(0.000477526 -5.76515e-06 -2.35272e-16 -0.000120936 -6.47303e-17 0)
(0.00048104 -6.78003e-06 -9.16151e-16 -0.000131739 5.04332e-16 0)
(0.000487366 -6.85225e-06 -2.77556e-16 -0.000143915 4.58584e-16 0)
(0.000492235 -6.65135e-06 2.21611e-15 -0.000154958 7.33192e-16 0)
(0.000494601 -5.34092e-06 -1.12649e-15 -0.000163603 7.31836e-17 0)
(0.000499964 -4.58499e-06 -4.70544e-16 -0.000174462 7.42611e-16 0)
(0.000503615 -3.78067e-06 6.08237e-16 -0.000184419 7.99226e-16 0)
(0.000505833 -4.33816e-06 -4.17418e-16 -0.000191566 2.96462e-17 0)
(0.000509697 -3.44609e-06 -3.5345e-16 -0.000199821 3.56804e-16 0)
(0.000512537 -3.63089e-06 2.03179e-15 -0.000206889 5.22687e-16 0)
(0.000515537 -2.65932e-06 5.26922e-16 -0.000213259 1.34197e-15 0)
(0.000516749 -2.36136e-06 -8.89046e-17 -0.000217648 6.44084e-17 0)
(0.000519429 -1.59347e-06 -4.06576e-16 -0.000222424 8.09831e-16 0)
(0.000520273 -1.88055e-06 2.25514e-16 -0.000224707 1.39252e-16 0)
(0.000521291 -3.50418e-07 -1.40187e-15 -0.00022621 -6.16911e-16 0)
(0.000521887 1.41015e-07 -9.72529e-16 -0.000227313 -1.03067e-16 0)
(0.000521194 4.3915e-07 -1.6263e-16 -0.000226292 -3.91939e-16 0)
(0.00052233 7.83449e-07 -1.21864e-15 -0.000225683 -2.80808e-16 0)
(0.000521536 5.45361e-07 -1.1601e-15 -0.000224378 -6.08237e-16 0)
(0.000520173 5.90022e-07 -6.76542e-16 -0.000223085 -7.05206e-16 0)
(0.000518981 8.63698e-07 -9.35666e-16 -0.00022271 -4.37069e-17 0)
(0.000518314 3.73495e-07 1.05927e-15 -0.000223205 1.33628e-16 0)
(0.000517446 3.45305e-08 1.18937e-15 -0.000222634 -5.54976e-17 0)
(0.000517878 -6.94139e-07 -1.06252e-16 -0.000223452 -6.49844e-16 0)
(0.000519269 -5.66812e-07 -5.5728e-16 -0.000223863 -2.58853e-16 0)
(0.000522323 -1.77365e-06 5.94143e-16 -0.000225703 1.1395e-15 0)
(0.000525641 -2.29036e-06 9.41087e-16 -0.00022623 -3.75405e-16 0)
(0.000531718 -3.14463e-06 -9.18319e-16 -0.000229884 -9.16151e-16 0)
(0.000536985 -3.43357e-06 -1.35742e-15 -0.000231812 -1.10047e-16 0)
(0.000544679 -4.06972e-06 -5.26922e-16 -0.000236112 -5.44676e-16 0)
(0.000552082 -3.7393e-06 5.2367e-16 -0.000237558 -1.6629e-15 0)
(0.000561704 -4.89723e-06 1.43874e-15 -0.000242967 -5.32614e-16 0)
(0.00056999 -4.58948e-06 1.09288e-15 -0.000245231 6.31277e-16 0)
(0.000581352 -5.6649e-06 6.71121e-16 -0.000249381 -5.05509e-16 0)
(0.000594433 -6.89842e-06 -1.27936e-16 -0.000256082 -4.00071e-16 0)
(0.000607041 -7.64474e-06 -1.50162e-15 -0.000261615 1.25767e-15 0)
(0.00061809 -6.57922e-06 1.71304e-15 -0.000265017 4.13623e-16 0)
(0.000632815 -7.31567e-06 3.37187e-16 -0.000271404 9.50032e-16 0)
(0.00064734 -8.68538e-06 -9.16151e-16 -0.000276967 1.95671e-15 0)
(0.00066393 -9.02729e-06 -2.40151e-15 -0.000284841 1.2013e-15 0)
(0.000680691 -9.28754e-06 -1.02457e-15 -0.000291191 -7.58942e-17 0)
(0.00069665 -1.25964e-05 6.63532e-16 -0.000298058 -2.03234e-15 0)
(0.000713217 -8.5437e-06 -6.47269e-16 -0.000304907 -2.20635e-16 0)
(0.000733345 -7.86402e-06 7.275e-16 -0.000314169 8.50828e-16 0)
(0.000749803 -9.79072e-06 3.42608e-15 -0.000318783 -1.68499e-15 0)
(0.000771291 -9.58717e-06 1.87892e-15 -0.000329811 -1.59405e-15 0)
(0.00078869 -1.17209e-05 3.31766e-15 -0.000334288 6.9931e-16 0)
(0.000811447 -1.0212e-05 2.80375e-15 -0.000346369 -4.57804e-16 0)
(0.000831536 -1.2142e-05 2.43945e-15 -0.000351798 -3.91668e-16 0)
(0.00085466 -9.74112e-06 4.41704e-15 -0.000363945 1.5168e-15 0)
(0.000874377 -1.14473e-05 4.83554e-16 -0.000369038 2.40124e-15 0)
(0.000902338 -1.12517e-05 -2.35272e-16 -0.000384268 -5.96853e-16 0)
(0.000922951 -1.62374e-05 2.24105e-15 -0.000390836 2.59666e-16 0)
(0.000949086 -1.3013e-05 5.19333e-16 -0.000403089 1.06035e-15 0)
(0.000971318 -1.49482e-05 5.68664e-15 -0.000407761 -2.25609e-15 0)
(0.000998157 -1.4418e-05 3.89879e-15 -0.000422865 -2.23508e-15 0)
(0.00102033 -1.56951e-05 3.06829e-16 -0.000430043 -1.69325e-15 0)
(0.00105093 -1.19736e-05 4.13623e-15 -0.000445931 1.09491e-15 0)
(0.00107637 -1.31581e-05 3.18864e-15 -0.000455371 1.08624e-15 0)
(0.00109834 -1.6287e-05 -4.1384e-15 -0.000460402 2.09603e-15 0)
(0.00113053 -1.2506e-05 -4.12105e-15 -0.000477942 2.71023e-15 0)
(0.00115216 -1.75882e-05 -6.14634e-15 -0.000483661 -2.14808e-16 0)
(0.00117621 -1.56608e-05 -6.06069e-16 -0.000494742 -2.71322e-16 0)
(0.00120843 -1.04913e-05 9.83913e-16 -0.000509504 1.51463e-15 0)
(0.00123032 -1.81322e-05 1.13977e-14 -0.000517723 1.07797e-15 0)
(0.00124937 -1.23145e-05 6.16748e-15 -0.000523334 6.966e-16 0)
(0.00127883 -7.16082e-06 -1.02696e-14 -0.000539156 -1.23274e-15 0)
(0.00129313 -1.02408e-05 4.75423e-16 -0.0005426 1.68648e-15 0)
(0.00132379 2.3833e-06 -6.00865e-15 -0.000561981 -5.52672e-16 0)
(0.00136237 4.82582e-06 3.54371e-15 -0.000581319 -1.56206e-15 0)
(0.00141237 9.75266e-06 -5.38306e-15 -0.00062633 -2.68665e-15 0)
(0.00144897 -1.27475e-05 -2.70508e-15 -0.00066306 -4.68565e-15 0)
(0.00146012 -1.6871e-05 -1.06843e-14 -0.000660205 -1.08366e-15 0)
(0.00147321 -1.46854e-05 1.49403e-15 -0.000658751 -1.21105e-15 0)
(0.00146782 -1.60746e-05 -1.70708e-15 -0.000616765 7.73578e-16 0)
(0.00150268 -3.53652e-06 -4.2826e-15 -0.000669928 -1.80276e-15 0)
(0.00153518 -1.30592e-05 -1.16243e-14 -0.000713436 -1.7022e-15 0)
(0.00148584 -3.15211e-05 -5.25892e-15 -0.000605579 -5.94143e-16 0)
(0.00147975 -4.98051e-06 -1.18341e-15 -0.000619481 2.57498e-15 0)
(0.00148378 -5.93896e-06 -1.11673e-16 -0.000621333 8.21825e-16 0)
(0.0014713 6.50713e-06 1.35715e-15 -0.000612867 3.67328e-15 0)
(0.00145228 1.52695e-05 3.57082e-15 -0.000604934 1.57751e-16 0)
(0.00142455 2.87269e-05 -2.85579e-15 -0.00059575 -1.56125e-16 0)
(0.001381 3.57334e-05 1.03731e-15 -0.000568648 1.3005e-15 0)
(0.00132557 3.43703e-05 1.00966e-16 -0.000558955 -1.9288e-15 0)
(0.00123901 4.9895e-05 4.67115e-15 -0.000522459 4.53739e-16 0)
(0.00115687 6.42328e-05 -3.26318e-15 -0.000501023 -2.03017e-15 0)
(0.00104074 6.65832e-05 8.82066e-16 -0.000449862 3.80555e-16 0)
(0.000916513 6.37939e-05 -7.94314e-16 -0.000403439 -2.59666e-15 0)
(0.000807059 8.17392e-05 3.3756e-15 -0.000369678 8.89046e-17 0)
(0.000698979 7.35929e-05 1.47089e-15 -0.00032924 1.44741e-15 0)
(0.000555435 5.72347e-05 1.91504e-15 -0.000266578 1.71196e-15 0)
(0.000459895 7.88047e-05 9.19895e-16 -0.000241059 1.27177e-15 0)
(0.000377575 5.32241e-05 1.16525e-15 -0.000214763 3.22008e-16 0)
(0.000248291 3.32346e-05 9.6516e-16 -0.000149473 6.08237e-16 0)
(0.000199236 5.77033e-05 5.5152e-16 -0.000145565 1.85399e-16 0)
(0.00012713 -1.51773e-06 1.02351e-15 -0.000103309 5.38848e-16 0)
(8.32501e-05 2.75116e-05 1.64e-16 -8.21052e-05 5.11743e-16 0)
(0.000332523 4.14338e-05 0 -0.000146707 -1.22515e-16 0)
(0.000511185 2.70703e-05 0 -0.000175609 9.36751e-16 0)
(0.000682315 5.93296e-05 0 -0.000212039 6.44016e-16 0)
(0.000845394 5.55347e-05 0 -0.000240759 -7.41594e-16 0)
(0.00100277 7.85434e-05 0 -0.000259896 -1.97108e-15 0)
(0.00113769 6.62177e-05 0 -0.000261666 -9.62772e-16 0)
(0.00126665 6.15194e-05 0 -0.000249253 -3.07046e-15 0)
(0.00138945 7.25627e-05 0 -0.000219331 -9.50845e-16 0)
(0.00157859 9.86326e-05 0 -0.000244339 4.37692e-15 0)
(0.00180712 5.56717e-05 0 -0.000318867 7.58399e-15 0)
(0.00213596 5.71359e-05 0 -0.000485653 -5.06322e-16 0)
(0.00266057 9.71861e-05 0 -0.000947559 -8.76144e-15 0)
(0.00334809 7.54904e-05 0 -0.00178586 -1.63899e-14 0)
(0.00441631 1.62357e-05 0 -0.00280271 -2.77675e-14 0)
(0.00541542 -5.81814e-08 0 -0.00413041 -1.54065e-15 0)
(0.00644643 -0.00015396 0 -0.00556385 -1.9662e-15 0)
(0.00740846 -0.000292192 0 -0.0066515 -1.9404e-14 0)
(0.00785406 -0.000317881 0 -0.00752083 1.35395e-14 0)
(0.00730268 -0.00044713 0 -0.00754371 3.08889e-14 0)
(0.00830858 -0.00111236 4.68733e-14 -0.00930285 1.55443e-14 0)
(0.00762268 -0.00203269 -8.75493e-15 -0.00848573 1.61804e-14 0)
(0.0064933 -0.00248691 -2.15225e-14 -0.00678892 -9.48108e-15 0)
(0.00544948 -0.00244212 -1.1672e-14 -0.00565197 1.62351e-14 0)
(0.00507961 -0.00256303 -1.03883e-14 -0.00512802 9.67108e-15 0)
(0.00376905 -0.00289791 -1.54748e-14 -0.00346575 1.04056e-14 0)
(0.00206552 -0.00204072 -2.59558e-15 -0.00156981 -1.82092e-15 0)
(0.0011563 -0.00101821 4.22947e-15 -0.000707215 -7.3574e-15 0)
(0.000357177 -0.000413828 4.15249e-16 6.9508e-05 1.63281e-15 0)
(0.000126338 -0.000139984 1.57209e-16 -1.76097e-05 1.63389e-15 0)
(0.00013299 -0.000124637 -3.62124e-16 -1.97377e-05 1.03108e-15 0)
(0.000117881 -0.000101764 2.01662e-16 -3.16793e-05 8.29415e-16 0)
(8.09467e-05 -4.5117e-05 1.45283e-16 -3.53831e-05 5.07407e-16 0)
(4.49806e-05 4.75713e-06 2.33103e-16 -5.07167e-05 1.13841e-16 0)
(2.66405e-05 5.61443e-05 5.09575e-17 -9.00863e-05 -1.92988e-16 0)
(-3.00254e-06 0.000128531 3.25261e-18 -0.000115873 2.71051e-17 0)
(-4.20323e-06 0.000175929 9.6494e-17 -0.000174152 -1.45554e-16 0)
(-2.48994e-05 0.000240509 6.28837e-17 -0.000203839 -1.16281e-16 0)
(-2.06809e-05 0.000305801 2.59124e-16 -0.000270327 1.6263e-17 0)
(1.84396e-05 0.000327213 3.79471e-16 -0.000367242 1.58294e-16 0)
(5.46617e-05 0.000363788 4.31512e-16 -0.000441612 9.16151e-17 0)
(8.92811e-05 0.000392225 7.15573e-16 -0.000525347 -1.06658e-15 0)
(0.000125666 0.000372712 3.39355e-16 -0.000610748 -1.04815e-15 0)
(0.00018244 0.000391464 -1.11348e-15 -0.000692284 1.26892e-15 0)
(0.000221934 0.000376476 7.55689e-16 -0.000769023 -5.95091e-16 0)
(0.000277577 0.000360803 7.50268e-16 -0.000858013 4.65733e-15 0)
(0.000327537 0.000287076 9.37835e-16 -0.00093236 1.8323e-15 0)
(0.000342549 0.000261192 -1.49945e-15 -0.000971215 -3.53247e-15 0)
(0.000382692 0.000191475 1.04951e-15 -0.00102471 2.28977e-15 0)
(0.000405921 0.000153813 2.03288e-15 -0.00105214 3.57035e-15 0)
(0.000402477 7.98961e-05 -1.39645e-15 -0.00107574 3.45776e-16 0)
(0.000351715 -2.78459e-07 -6.66784e-16 -0.000929049 0 0)
(0.000269345 -4.94483e-06 8.46762e-16 -0.000757951 0 0)
(0.000207779 -1.42736e-05 -1.2902e-16 -0.000646516 0 0)
(0.000151685 -1.641e-05 -1.58294e-16 -0.000530048 0 0)
(0.000110311 -1.11563e-05 1.2902e-16 -0.000437123 0 0)
(8.58326e-05 -1.03968e-05 2.12504e-16 -0.000364894 0 0)
(6.85016e-05 -1.10175e-05 -8.67362e-17 -0.000304928 0 0)
(5.83397e-05 -1.13583e-05 -1.6263e-17 -0.000256541 0 0)
(5.08144e-05 -1.33723e-05 -8.0231e-17 -0.000211422 0 0)
(4.51098e-05 -1.92849e-05 -5.20417e-17 -0.0001718 0 0)
(4.22313e-05 -1.46543e-05 4.44523e-17 -0.000135596 0 0)
(4.96219e-05 -1.49106e-05 -1.40946e-17 -0.000112217 0 0)
(5.21142e-05 -1.85112e-05 3.36103e-17 -8.81265e-05 0 0)
(5.88252e-05 -1.341e-05 4.33681e-17 -6.96991e-05 0 0)
(6.79473e-05 -1.74036e-05 9.86624e-17 -5.53432e-05 0 0)
(7.46175e-05 -1.31385e-05 1.6263e-17 -4.11767e-05 0 0)
(8.53457e-05 -1.04887e-05 1.22515e-16 -2.93725e-05 0 0)
(9.59728e-05 -1.21861e-05 4.66207e-17 -1.9735e-05 0 0)
(0.000105779 -1.03905e-05 3.14419e-17 -1.14286e-05 0 0)
(0.000117956 -1.18316e-05 1.06252e-16 -6.3522e-06 0 0)
(0.000131367 -1.16831e-05 3.6646e-16 -3.18172e-06 0 0)
(0.000141291 -1.09066e-05 -1.82146e-16 5.51699e-07 0 0)
(0.000154962 -1.08223e-05 3.46945e-17 2.72224e-06 0 0)
(0.000165545 -1.05969e-05 5.39933e-16 3.90889e-06 0 0)
(0.000179467 -9.93674e-06 -2.97071e-16 3.49405e-06 0 0)
(0.000190732 -8.24911e-06 -4.33681e-18 3.66176e-06 0 0)
(0.000202925 -9.43356e-06 -3.95734e-16 2.76251e-06 0 0)
(0.00021686 -8.64833e-06 4.17418e-16 1.1939e-06 0 0)
(0.000227624 -8.55865e-06 3.83808e-16 -1.35606e-06 0 0)
(0.000241297 -8.4458e-06 3.17671e-16 -3.95289e-06 0 0)
(0.000251289 -7.9626e-06 9.69277e-16 -6.66444e-06 0 0)
(0.000263902 -8.0685e-06 2.98156e-16 -9.2775e-06 0 0)
(0.000276501 -7.06171e-06 -2.81893e-17 -1.28821e-05 0 0)
(0.000286653 -6.32173e-06 -6.20164e-16 -1.69345e-05 0 0)
(0.000299032 -6.17648e-06 -4.87891e-17 -1.96108e-05 0 0)
(0.000309237 -4.86572e-06 8.81456e-16 -2.32003e-05 0 0)
(0.000318284 -4.22998e-06 6.863e-16 -2.66041e-05 0 0)
(0.000328483 -5.08371e-06 -7.8171e-16 -2.92993e-05 0 0)
(0.000338448 -5.91911e-06 -8.45678e-16 -3.27668e-05 0 0)
(0.000348531 -5.8549e-06 -7.78457e-16 -3.61842e-05 0 0)
(0.000357505 -5.02134e-06 1.03216e-15 -3.92413e-05 0 0)
(0.000366309 -4.54014e-06 9.61687e-16 -4.13244e-05 0 0)
(0.000373131 -5.00266e-06 7.34005e-16 -4.33159e-05 0 0)
(0.00038145 -5.4713e-06 -9.4434e-16 -4.5198e-05 0 0)
(0.00038967 -4.85891e-06 -9.56266e-16 -4.68062e-05 0 0)
(0.000396152 -3.64729e-06 -1.79652e-15 -4.7691e-05 0 0)
(0.00040122 -3.50781e-06 -6.57027e-16 -4.76419e-05 0 0)
(0.00040758 -3.74543e-06 -2.01662e-16 -4.74731e-05 0 0)
(0.000412369 -4.2776e-06 -2.95662e-15 -4.61944e-05 0 0)
(0.000416246 -3.60694e-06 -4.18502e-16 -4.39859e-05 0 0)
(0.000420042 -3.92765e-06 1.92446e-15 -4.13593e-05 0 0)
(0.000423204 -3.85425e-06 3.78387e-15 -3.82825e-05 0 0)
(0.000424887 -3.09275e-06 1.83122e-15 -3.34801e-05 0 0)
(0.00042632 -2.81852e-06 3.61365e-15 -2.82028e-05 0 0)
(0.000426405 -2.50269e-06 -4.33681e-17 -2.07041e-05 0 0)
(0.000426539 -2.89211e-06 -2.64545e-16 -1.34917e-05 0 0)
(0.000423601 -4.35849e-06 -2.62377e-16 -3.01846e-06 0 0)
(0.000419489 -2.52128e-06 3.42608e-16 8.50115e-06 0 0)
(0.000416659 -2.11394e-06 6.17995e-16 2.02143e-05 0 0)
(0.000414452 -1.05246e-06 1.52005e-15 3.35365e-05 -5.59131e-16 0)
(0.000409733 -1.40093e-06 -1.17961e-15 3.4463e-05 -2.81143e-16 0)
(0.000419029 -1.78565e-06 1.36393e-15 2.88714e-05 -5.62366e-17 0)
(0.000417036 -1.49326e-06 -6.23416e-16 2.788e-05 -4.06576e-19 0)
(0.000419393 -1.75469e-06 5.59448e-16 2.21055e-05 -1.453e-16 0)
(0.000421134 -4.37497e-06 2.15756e-16 1.7831e-05 1.27401e-15 0)
(0.000422712 -2.84939e-06 -1.15901e-15 1.34394e-05 8.16298e-16 0)
(0.000425249 -4.27648e-06 -4.45607e-16 6.66843e-06 5.44701e-16 0)
(0.000429527 -5.15025e-06 -1.59161e-15 -4.26546e-08 9.02641e-17 0)
(0.000431429 -2.77882e-06 -2.60534e-15 -6.72133e-06 -7.33713e-16 0)
(0.000435073 -3.33062e-06 1.07336e-15 -1.66663e-05 2.41951e-16 0)
(0.000438873 -5.24549e-06 1.34441e-16 -2.54328e-05 -1.69407e-19 0)
(0.000441358 -3.98717e-06 1.07228e-15 -3.31173e-05 2.62597e-16 0)
(0.000446725 -4.98962e-06 -1.36393e-15 -4.49118e-05 4.79395e-16 0)
(0.000451299 -6.55289e-06 1.32381e-15 -5.54145e-05 8.71576e-17 0)
(0.000453711 -6.07629e-06 -6.17995e-17 -6.41211e-05 1.38296e-16 0)
(0.000458664 -6.74875e-06 2.52619e-16 -7.59236e-05 -7.01316e-16 0)
(0.000465032 -7.85679e-06 1.64799e-16 -8.80546e-05 5.56933e-16 0)
(0.000467815 -6.33196e-06 3.36103e-17 -9.77228e-05 4.67181e-16 0)
(0.000473903 -5.81569e-06 -3.23092e-16 -0.00011018 3.58879e-16 0)
(0.000477526 -5.76515e-06 -2.35272e-16 -0.000120936 -6.47303e-17 0)
(0.00048104 -6.78003e-06 -9.16151e-16 -0.000131739 5.04332e-16 0)
(0.000487366 -6.85225e-06 -2.77556e-16 -0.000143915 4.58584e-16 0)
(0.000492235 -6.65135e-06 2.21611e-15 -0.000154958 7.33192e-16 0)
(0.000494601 -5.34092e-06 -1.12649e-15 -0.000163603 7.31836e-17 0)
(0.000499964 -4.58499e-06 -4.70544e-16 -0.000174462 7.42611e-16 0)
(0.000503615 -3.78067e-06 6.08237e-16 -0.000184419 7.99226e-16 0)
(0.000505833 -4.33816e-06 -4.17418e-16 -0.000191566 2.96462e-17 0)
(0.000509697 -3.44609e-06 -3.5345e-16 -0.000199821 3.56804e-16 0)
(0.000512537 -3.63089e-06 2.03179e-15 -0.000206889 5.22687e-16 0)
(0.000515537 -2.65932e-06 5.26922e-16 -0.000213259 1.34197e-15 0)
(0.000516749 -2.36136e-06 -8.89046e-17 -0.000217648 6.44084e-17 0)
(0.000519429 -1.59347e-06 -4.06576e-16 -0.000222424 8.09831e-16 0)
(0.000520273 -1.88055e-06 2.25514e-16 -0.000224707 1.39252e-16 0)
(0.000521291 -3.50418e-07 -1.40187e-15 -0.00022621 -6.16911e-16 0)
(0.000521887 1.41015e-07 -9.72529e-16 -0.000227313 -1.03067e-16 0)
(0.000521194 4.3915e-07 -1.6263e-16 -0.000226292 -3.91939e-16 0)
(0.00052233 7.83449e-07 -1.21864e-15 -0.000225683 -2.80808e-16 0)
(0.000521536 5.45361e-07 -1.1601e-15 -0.000224378 -6.08237e-16 0)
(0.000520173 5.90022e-07 -6.76542e-16 -0.000223085 -7.05206e-16 0)
(0.000518981 8.63698e-07 -9.35666e-16 -0.00022271 -4.37069e-17 0)
(0.000518314 3.73495e-07 1.05927e-15 -0.000223205 1.33628e-16 0)
(0.000517446 3.45305e-08 1.18937e-15 -0.000222634 -5.54976e-17 0)
(0.000517878 -6.94139e-07 -1.06252e-16 -0.000223452 -6.49844e-16 0)
(0.000519269 -5.66812e-07 -5.5728e-16 -0.000223863 -2.58853e-16 0)
(0.000522323 -1.77365e-06 5.94143e-16 -0.000225703 1.1395e-15 0)
(0.000525641 -2.29036e-06 9.41087e-16 -0.00022623 -3.75405e-16 0)
(0.000531718 -3.14463e-06 -9.18319e-16 -0.000229884 -9.16151e-16 0)
(0.000536985 -3.43357e-06 -1.35742e-15 -0.000231812 -1.10047e-16 0)
(0.000544679 -4.06972e-06 -5.26922e-16 -0.000236112 -5.44676e-16 0)
(0.000552082 -3.7393e-06 5.2367e-16 -0.000237558 -1.6629e-15 0)
(0.000561704 -4.89723e-06 1.43874e-15 -0.000242967 -5.32614e-16 0)
(0.00056999 -4.58948e-06 1.09288e-15 -0.000245231 6.31277e-16 0)
(0.000581352 -5.6649e-06 6.71121e-16 -0.000249381 -5.05509e-16 0)
(0.000594433 -6.89842e-06 -1.27936e-16 -0.000256082 -4.00071e-16 0)
(0.000607041 -7.64474e-06 -1.50162e-15 -0.000261615 1.25767e-15 0)
(0.00061809 -6.57922e-06 1.71304e-15 -0.000265017 4.13623e-16 0)
(0.000632815 -7.31567e-06 3.37187e-16 -0.000271404 9.50032e-16 0)
(0.00064734 -8.68538e-06 -9.16151e-16 -0.000276967 1.95671e-15 0)
(0.00066393 -9.02729e-06 -2.40151e-15 -0.000284841 1.2013e-15 0)
(0.000680691 -9.28754e-06 -1.02457e-15 -0.000291191 -7.58942e-17 0)
(0.00069665 -1.25964e-05 6.63532e-16 -0.000298058 -2.03234e-15 0)
(0.000713217 -8.5437e-06 -6.47269e-16 -0.000304907 -2.20635e-16 0)
(0.000733345 -7.86402e-06 7.275e-16 -0.000314169 8.50828e-16 0)
(0.000749803 -9.79072e-06 3.42608e-15 -0.000318783 -1.68499e-15 0)
(0.000771291 -9.58717e-06 1.87892e-15 -0.000329811 -1.59405e-15 0)
(0.00078869 -1.17209e-05 3.31766e-15 -0.000334288 6.9931e-16 0)
(0.000811447 -1.0212e-05 2.80375e-15 -0.000346369 -4.57804e-16 0)
(0.000831536 -1.2142e-05 2.43945e-15 -0.000351798 -3.91668e-16 0)
(0.00085466 -9.74112e-06 4.41704e-15 -0.000363945 1.5168e-15 0)
(0.000874377 -1.14473e-05 4.83554e-16 -0.000369038 2.40124e-15 0)
(0.000902338 -1.12517e-05 -2.35272e-16 -0.000384268 -5.96853e-16 0)
(0.000922951 -1.62374e-05 2.24105e-15 -0.000390836 2.59666e-16 0)
(0.000949086 -1.3013e-05 5.19333e-16 -0.000403089 1.06035e-15 0)
(0.000971318 -1.49482e-05 5.68664e-15 -0.000407761 -2.25609e-15 0)
(0.000998157 -1.4418e-05 3.89879e-15 -0.000422865 -2.23508e-15 0)
(0.00102033 -1.56951e-05 3.06829e-16 -0.000430043 -1.69325e-15 0)
(0.00105093 -1.19736e-05 4.13623e-15 -0.000445931 1.09491e-15 0)
(0.00107637 -1.31581e-05 3.18864e-15 -0.000455371 1.08624e-15 0)
(0.00109834 -1.6287e-05 -4.1384e-15 -0.000460402 2.09603e-15 0)
(0.00113053 -1.2506e-05 -4.12105e-15 -0.000477942 2.71023e-15 0)
(0.00115216 -1.75882e-05 -6.14634e-15 -0.000483661 -2.14808e-16 0)
(0.00117621 -1.56608e-05 -6.06069e-16 -0.000494742 -2.71322e-16 0)
(0.00120843 -1.04913e-05 9.83913e-16 -0.000509504 1.51463e-15 0)
(0.00123032 -1.81322e-05 1.13977e-14 -0.000517723 1.07797e-15 0)
(0.00124937 -1.23145e-05 6.16748e-15 -0.000523334 6.966e-16 0)
(0.00127883 -7.16082e-06 -1.02696e-14 -0.000539156 -1.23274e-15 0)
(0.00129313 -1.02408e-05 4.75423e-16 -0.0005426 1.68648e-15 0)
(0.00132379 2.3833e-06 -6.00865e-15 -0.000561981 -5.52672e-16 0)
(0.00136237 4.82582e-06 3.54371e-15 -0.000581319 -1.56206e-15 0)
(0.00141237 9.75266e-06 -5.38306e-15 -0.00062633 -2.68665e-15 0)
(0.00144897 -1.27475e-05 -2.70508e-15 -0.00066306 -4.68565e-15 0)
(0.00146012 -1.6871e-05 -1.06843e-14 -0.000660205 -1.08366e-15 0)
(0.00147321 -1.46854e-05 1.49403e-15 -0.000658751 -1.21105e-15 0)
(0.00146782 -1.60746e-05 -1.70708e-15 -0.000616765 7.73578e-16 0)
(0.00150268 -3.53652e-06 -4.2826e-15 -0.000669928 -1.80276e-15 0)
(0.00153518 -1.30592e-05 -1.16243e-14 -0.000713436 -1.7022e-15 0)
(0.00148584 -3.15211e-05 -5.25892e-15 -0.000605579 -5.94143e-16 0)
(0.00147975 -4.98051e-06 -1.18341e-15 -0.000619481 2.57498e-15 0)
(0.00148378 -5.93896e-06 -1.11673e-16 -0.000621333 8.21825e-16 0)
(0.0014713 6.50713e-06 1.35715e-15 -0.000612867 3.67328e-15 0)
(0.00145228 1.52695e-05 3.57082e-15 -0.000604934 1.57751e-16 0)
(0.00142455 2.87269e-05 -2.85579e-15 -0.00059575 -1.56125e-16 0)
(0.001381 3.57334e-05 1.03731e-15 -0.000568648 1.3005e-15 0)
(0.00132557 3.43703e-05 1.00966e-16 -0.000558955 -1.9288e-15 0)
(0.00123901 4.9895e-05 4.67115e-15 -0.000522459 4.53739e-16 0)
(0.00115687 6.42328e-05 -3.26318e-15 -0.000501023 -2.03017e-15 0)
(0.00104074 6.65832e-05 8.82066e-16 -0.000449862 3.80555e-16 0)
(0.000916513 6.37939e-05 -7.94314e-16 -0.000403439 -2.59666e-15 0)
(0.000807059 8.17392e-05 3.3756e-15 -0.000369678 8.89046e-17 0)
(0.000698979 7.35929e-05 1.47089e-15 -0.00032924 1.44741e-15 0)
(0.000555435 5.72347e-05 1.91504e-15 -0.000266578 1.71196e-15 0)
(0.000459895 7.88047e-05 9.19895e-16 -0.000241059 1.27177e-15 0)
(0.000377575 5.32241e-05 1.16525e-15 -0.000214763 3.22008e-16 0)
(0.000248291 3.32346e-05 9.6516e-16 -0.000149473 6.08237e-16 0)
(0.000199236 5.77033e-05 5.5152e-16 -0.000145565 1.85399e-16 0)
(0.00012713 -1.51773e-06 1.02351e-15 -0.000103309 5.38848e-16 0)
(8.32501e-05 2.75116e-05 1.64e-16 -8.21052e-05 5.11743e-16 0)
(0.000332523 4.14338e-05 0 -0.000146707 -1.22515e-16 0)
(0.000511185 2.70703e-05 0 -0.000175609 9.36751e-16 0)
(0.000682315 5.93296e-05 0 -0.000212039 6.44016e-16 0)
(0.000845394 5.55347e-05 0 -0.000240759 -7.41594e-16 0)
(0.00100277 7.85434e-05 0 -0.000259896 -1.97108e-15 0)
(0.00113769 6.62177e-05 0 -0.000261666 -9.62772e-16 0)
(0.00126665 6.15194e-05 0 -0.000249253 -3.07046e-15 0)
(0.00138945 7.25627e-05 0 -0.000219331 -9.50845e-16 0)
(0.00157859 9.86326e-05 0 -0.000244339 4.37692e-15 0)
(0.00180712 5.56717e-05 0 -0.000318867 7.58399e-15 0)
(0.00213596 5.71359e-05 0 -0.000485653 -5.06322e-16 0)
(0.00266057 9.71861e-05 0 -0.000947559 -8.76144e-15 0)
(0.00334809 7.54904e-05 0 -0.00178586 -1.63899e-14 0)
(0.00441631 1.62357e-05 0 -0.00280271 -2.77675e-14 0)
(0.00541542 -5.81813e-08 0 -0.00413041 -1.54065e-15 0)
(0.00644643 -0.00015396 0 -0.00556385 -1.9662e-15 0)
(0.00740846 -0.000292192 0 -0.0066515 -1.9404e-14 0)
(0.00785406 -0.000317881 0 -0.00752083 1.35395e-14 0)
(0.00730268 -0.00044713 0 -0.00754371 3.08889e-14 0)
(0.00830858 -0.00111236 4.68733e-14 -0.00930285 1.55443e-14 0)
(0.00762268 -0.00203269 -8.75493e-15 -0.00848573 1.61804e-14 0)
(0.0064933 -0.00248691 -2.15225e-14 -0.00678892 -9.48108e-15 0)
(0.00544948 -0.00244212 -1.1672e-14 -0.00565197 1.62351e-14 0)
(0.00507961 -0.00256303 -1.03883e-14 -0.00512802 9.67108e-15 0)
(0.00376905 -0.00289791 -1.54748e-14 -0.00346575 1.04056e-14 0)
(0.00206552 -0.00204072 -2.59558e-15 -0.00156981 -1.82092e-15 0)
(0.0011563 -0.00101821 4.22947e-15 -0.000707215 -7.3574e-15 0)
(0.000357177 -0.000413828 4.15249e-16 6.9508e-05 1.63281e-15 0)
(0.000126338 -0.000139984 1.57209e-16 -1.76097e-05 1.63389e-15 0)
(0.00013299 -0.000124637 -3.62124e-16 -1.97377e-05 1.03108e-15 0)
(0.000117881 -0.000101764 2.01662e-16 -3.16793e-05 8.29415e-16 0)
(8.09467e-05 -4.5117e-05 1.45283e-16 -3.53831e-05 5.07407e-16 0)
(4.49806e-05 4.75713e-06 2.33103e-16 -5.07167e-05 1.13841e-16 0)
(2.66405e-05 5.61443e-05 5.09575e-17 -9.00863e-05 -1.92988e-16 0)
(-3.00254e-06 0.000128531 3.25261e-18 -0.000115873 2.71051e-17 0)
(-4.20323e-06 0.000175929 9.6494e-17 -0.000174152 -1.45554e-16 0)
(-2.48994e-05 0.000240509 6.28837e-17 -0.000203839 -1.16281e-16 0)
(-2.06809e-05 0.000305801 2.59124e-16 -0.000270327 1.6263e-17 0)
(1.84396e-05 0.000327213 3.79471e-16 -0.000367242 1.58294e-16 0)
(5.46617e-05 0.000363788 4.31512e-16 -0.000441612 9.16151e-17 0)
(8.92811e-05 0.000392225 7.15573e-16 -0.000525347 -1.06658e-15 0)
(0.000125666 0.000372712 3.39355e-16 -0.000610748 -1.04815e-15 0)
(0.00018244 0.000391464 -1.11348e-15 -0.000692284 1.26892e-15 0)
(0.000221934 0.000376476 7.55689e-16 -0.000769023 -5.95091e-16 0)
(0.000277577 0.000360803 7.50268e-16 -0.000858013 4.65733e-15 0)
(0.000327537 0.000287076 9.37835e-16 -0.00093236 1.8323e-15 0)
(0.000342549 0.000261192 -1.49945e-15 -0.000971215 -3.53247e-15 0)
(0.000382692 0.000191475 1.04951e-15 -0.00102471 2.28977e-15 0)
(0.000405921 0.000153813 2.03288e-15 -0.00105214 3.57035e-15 0)
(0.000402477 7.98961e-05 -1.39645e-15 -0.00107574 3.45776e-16 0)
(0.000493308 -0.000313205 -4.47775e-16 -0.000239801 -1.74421e-16 0)
(0.000477268 -0.00022136 1.87567e-16 -0.00014458 -3.94209e-16 0)
(0.00082625 -0.000156658 -8.60314e-16 -0.000472516 7.73578e-16 0)
(0.000530667 -0.000125074 -9.02056e-16 -0.00018803 1.0201e-15 0)
(0.000439235 -0.00011662 2.81893e-17 -8.90653e-05 -1.46621e-16 0)