/*--------------------------------*- C++ -*----------------------------------*\
| =========                 |                                                 |
| \\      /  F ield         | OpenFOAM: The Open Source CFD Toolbox           |
|  \\    /   O peration     | Version:  v2012                                 |
|   \\  /    A nd           | Website:  www.openfoam.com                      |
|    \\/     M anipulation  |                                                 |
\*---------------------------------------------------------------------------*/
FoamFile
{
    version     2.0;
    format      ascii;
    class       volScalarField;
    location    "17";
    object      sigmaEq;
}
// * * * * * * * * * * * * * * * * * * * * * * * * * * * * * * * * * * * * * //

dimensions      [1 -1 -2 0 0 0 0];


internalField   nonuniform List<scalar> 
7666
(
7.6086e+06
2.83855e+07
4.45949e+07
3.81432e+07
5.72235e+07
7.43439e+07
3.02073e+07
3.94726e+07
9.6842e+07
2.88139e+07
2.64297e+07
3.75103e+07
3.86849e+07
3.29696e+07
2.80626e+07
4.13413e+07
3.92021e+07
7.7855e+07
4.12156e+07
2.69625e+07
1.66844e+07
5.54888e+07
3.48061e+07
3.75195e+07
7.04249e+07
2.78529e+07
7.01815e+07
2.30384e+07
3.89717e+07
3.59797e+07
3.70951e+07
7.82221e+07
1.76572e+07
3.44531e+07
2.30762e+07
2.46851e+07
2.37253e+07
3.65253e+07
7.10499e+07
2.97977e+07
3.51746e+07
9.4299e+07
9.95521e+07
3.05205e+07
1.08462e+08
2.97174e+07
8.06971e+07
3.85026e+07
4.40855e+07
1.1286e+07
2.2848e+07
5.31454e+07
3.09028e+07
9.54292e+07
1.39367e+07
3.67415e+07
1.31168e+07
1.14014e+07
6.30293e+07
7.38559e+07
1.85717e+07
3.65406e+07
3.59784e+07
3.65281e+07
1.33896e+07
4.6551e+07
2.63263e+07
1.42733e+07
5.13902e+07
6.51808e+07
5.45918e+07
2.31127e+07
2.34212e+07
3.55107e+07
3.54682e+07
3.05127e+07
8.45489e+07
3.32412e+07
3.36443e+07
1.86834e+07
3.21232e+07
2.45905e+07
3.6497e+07
1.07745e+08
3.98264e+07
4.96435e+07
4.91594e+07
5.57688e+07
4.17417e+07
3.66462e+07
3.40364e+07
3.40688e+07
5.46916e+07
6.9931e+07
1.01806e+08
4.71045e+07
2.8295e+07
4.51937e+07
4.14553e+07
2.60933e+07
5.51083e+07
3.56658e+07
2.1393e+07
8.00271e+07
3.04259e+07
6.77712e+07
9.8869e+07
5.84692e+07
3.00396e+07
5.25694e+07
3.42633e+07
5.56269e+07
2.88532e+07
1.71825e+07
2.5353e+07
5.9878e+07
2.41011e+07
2.68389e+07
3.75353e+07
3.73266e+07
8.5902e+07
3.50009e+07
3.56747e+07
2.79247e+07
3.59638e+07
9.25827e+06
5.87992e+07
5.27438e+07
4.16649e+07
3.66308e+07
3.56678e+07
4.48937e+07
2.14129e+07
6.88199e+07
3.58944e+07
6.88957e+07
3.18955e+07
2.99075e+07
3.2656e+07
3.45079e+07
4.35867e+07
2.44033e+07
2.38838e+07
2.40768e+07
2.67799e+07
2.96622e+07
3.01021e+07
2.45839e+07
9.6278e+06
4.03241e+07
2.86413e+07
4.2022e+07
2.04369e+07
3.58171e+07
2.50247e+07
2.49184e+07
3.58414e+07
4.65577e+07
3.81398e+07
3.30968e+07
8.87761e+07
7.57683e+07
5.43884e+07
1.02302e+08
7.52897e+07
7.45833e+07
3.98397e+07
1.20836e+07
1.20536e+07
8.665e+07
2.79584e+07
2.38335e+07
5.10764e+07
4.57153e+07
4.13448e+07
1.29578e+07
5.65277e+07
9.92292e+07
3.88489e+07
3.93756e+07
5.36697e+07
3.60047e+07
4.89589e+07
2.77514e+07
4.46776e+07
4.68073e+07
2.33688e+07
3.56577e+07
6.22055e+07
3.36376e+07
2.92896e+07
3.08809e+07
3.06096e+07
3.20669e+07
5.67697e+07
9.06209e+07
3.12137e+07
3.08776e+07
2.95485e+07
4.97862e+07
5.59842e+07
2.17769e+07
3.88408e+07
7.10659e+07
2.0458e+07
9.54479e+07
2.61175e+07
3.20024e+07
2.09707e+07
2.15984e+07
8.09785e+07
2.12956e+07
2.3691e+07
2.47485e+07
2.46731e+07
2.24882e+07
3.30377e+07
8.13535e+07
2.05306e+07
5.77274e+07
1.05275e+08
9.11541e+07
3.71345e+07
2.37166e+07
4.74936e+07
4.67765e+07
1.04436e+08
8.00398e+07
1.58507e+07
4.01209e+07
3.86465e+07
3.47686e+07
4.20306e+07
4.35552e+07
2.30487e+07
3.55365e+07
1.13031e+08
5.32099e+07
3.12586e+07
3.467e+07
2.44415e+07
4.72206e+07
3.56135e+07
1.71889e+07
2.91073e+07
2.58822e+07
5.20977e+07
2.7579e+07
8.23064e+07
5.67086e+07
5.51172e+07
2.2184e+07
6.17819e+07
4.55243e+07
2.33954e+07
3.58213e+07
6.95444e+07
5.50568e+07
5.72649e+07
3.28266e+07
4.39314e+07
6.56814e+07
7.01901e+07
5.52173e+07
2.86525e+07
5.19669e+07
3.4181e+07
6.76999e+07
9.22453e+07
1.03895e+07
2.99894e+07
2.91144e+07
3.52158e+07
5.33391e+07
1.20402e+07
2.8119e+07
9.92663e+07
9.36409e+07
4.76142e+07
4.7933e+07
3.13389e+07
6.89818e+07
3.26694e+07
3.58784e+07
2.71564e+07
3.23616e+07
5.45635e+07
5.72119e+07
2.94026e+07
2.52643e+07
2.54044e+07
9.19448e+07
7.90038e+07
2.97889e+07
3.30904e+07
8.66182e+07
2.50498e+07
1.25557e+07
1.34544e+07
4.13387e+07
2.50535e+07
2.638e+07
2.95156e+07
2.23909e+07
3.56406e+07
1.93641e+07
1.6289e+07
3.97422e+07
3.92528e+07
1.68991e+07
1.59618e+07
1.03714e+07
1.09329e+07
1.0499e+07
2.495e+07
4.16277e+07
2.42902e+07
3.68238e+07
4.17444e+07
2.48297e+07
4.57845e+07
4.56847e+07
9.605e+07
4.42173e+07
3.30291e+07
2.46921e+07
6.97235e+06
3.7625e+07
1.43973e+07
2.99125e+07
2.98482e+07
5.39176e+07
6.98554e+07
3.38752e+07
9.29634e+07
9.54258e+07
5.6134e+07
1.9385e+07
2.31011e+07
3.5649e+07
3.1088e+07
5.034e+07
1.9735e+07
2.58975e+07
5.1339e+07
4.31035e+07
2.30594e+07
5.65979e+07
2.40819e+07
2.25074e+07
3.56978e+07
1.04724e+08
5.77593e+07
1.66587e+07
6.52728e+07
9.756e+07
3.75762e+07
2.44108e+07
6.86994e+07
3.31114e+07
4.18624e+07
9.8867e+07
5.16187e+07
1.01948e+08
2.45621e+07
8.76664e+07
6.47289e+07
6.49009e+07
3.03159e+07
9.34982e+07
3.81023e+07
4.41802e+07
4.64841e+07
4.14177e+07
2.72841e+07
4.36506e+07
4.70531e+07
6.47071e+07
1.8099e+07
1.03102e+08
8.11757e+07
2.78542e+07
6.5106e+06
4.09458e+07
6.57487e+07
4.34826e+07
4.05143e+07
9.51913e+07
8.12006e+07
3.59618e+07
3.57731e+07
1.54873e+07
1.37063e+07
7.77061e+07
9.30663e+07
9.08314e+07
3.017e+07
3.51255e+07
2.68861e+07
2.79785e+07
7.24903e+07
4.46298e+07
2.50145e+07
1.7506e+07
5.93069e+07
4.46123e+07
4.46709e+07
6.35898e+07
6.65975e+07
8.31818e+07
7.9315e+07
3.55368e+07
2.23133e+07
6.75446e+07
7.9644e+07
5.77878e+07
5.62581e+07
2.88717e+07
2.53551e+07
1.05403e+08
2.55016e+07
3.38191e+07
3.29431e+07
3.57384e+07
2.20172e+07
3.38801e+07
2.7015e+07
6.49374e+07
4.05353e+07
5.58947e+07
1.97402e+07
5.7383e+07
3.82099e+07
3.57508e+07
2.1698e+07
2.51993e+07
2.82423e+07
3.24863e+07
3.73319e+07
3.88225e+07
4.45208e+07
1.27998e+07
3.19151e+07
3.22648e+07
2.63349e+07
3.6841e+07
4.34602e+07
3.12925e+07
3.19062e+07
2.85702e+07
9.63427e+06
2.19883e+07
4.37049e+07
1.00236e+08
2.48661e+07
5.37369e+07
3.03258e+07
3.62505e+07
3.18021e+07
4.98961e+07
8.67577e+07
3.66971e+07
7.73672e+07
1.02074e+08
2.17409e+07
2.94631e+07
2.93435e+07
5.46517e+07
5.27195e+07
2.3457e+07
5.07295e+07
3.0576e+07
3.06711e+07
6.39377e+07
7.69244e+07
5.41747e+07
2.48853e+07
4.88446e+07
2.32968e+07
2.84017e+07
2.01822e+07
5.01898e+07
3.98775e+07
2.25192e+07
3.94507e+07
2.2983e+07
2.70188e+07
4.05147e+07
8.76808e+07
3.68348e+07
3.39885e+07
3.49411e+07
3.58032e+07
2.12551e+07
2.81832e+07
7.01627e+07
9.08871e+07
9.37704e+07
2.88136e+07
2.6795e+07
2.74548e+07
3.05452e+07
1.1052e+08
2.48208e+07
3.07608e+07
1.61736e+07
2.47529e+07
6.89684e+07
1.25041e+07
2.43625e+07
2.1853e+07
6.81284e+07
6.96841e+07
2.37632e+07
2.38153e+07
3.60462e+07
3.57342e+07
3.67945e+07
4.2376e+07
1.68068e+07
1.71877e+07
9.02375e+07
5.84444e+07
3.19687e+07
4.08878e+07
4.57778e+07
2.46604e+07
6.49576e+07
1.71518e+07
2.27981e+07
3.55201e+07
5.66314e+07
6.64345e+07
1.97394e+07
8.15172e+07
2.56559e+07
7.65582e+07
5.99924e+07
3.54772e+07
3.52353e+07
1.11687e+08
5.78155e+07
1.10275e+08
4.33184e+07
6.02605e+07
7.79294e+07
8.52973e+07
9.09939e+07
4.74135e+07
2.69386e+07
6.66856e+07
2.9063e+07
5.38817e+07
1.12783e+08
4.19319e+07
3.03938e+07
3.32538e+07
5.99231e+06
7.68252e+07
4.89202e+07
5.68877e+07
7.30339e+07
3.51056e+07
3.782e+07
3.20299e+07
1.25106e+07
2.30611e+07
2.37662e+07
7.57138e+07
3.28275e+07
4.09747e+07
2.6431e+07
5.01878e+07
2.52129e+07
4.54417e+07
1.71919e+07
8.01069e+07
7.4073e+07
7.75445e+07
6.41696e+07
9.44554e+07
2.73224e+07
2.2618e+07
2.51229e+07
4.96602e+07
8.70543e+07
7.03321e+07
2.51858e+07
3.29393e+07
5.95816e+07
3.61407e+07
7.26913e+07
4.77204e+07
2.57961e+07
2.52651e+07
2.1318e+07
3.71011e+07
2.3771e+07
3.59787e+07
3.44013e+07
3.05427e+07
9.20169e+07
6.1558e+07
6.19582e+07
1.18089e+07
2.81977e+07
4.763e+07
2.16618e+07
4.4364e+07
1.09016e+08
6.99892e+07
9.47879e+07
7.33535e+06
2.86706e+07
2.5917e+07
3.33856e+07
2.35111e+07
2.36033e+07
3.54551e+07
3.53031e+07
2.98231e+07
7.69229e+06
7.90841e+07
2.81118e+07
2.9049e+07
2.84823e+07
3.55415e+07
1.56645e+07
4.30093e+07
8.16818e+07
3.54803e+07
9.14815e+07
2.63751e+07
7.72644e+07
4.55442e+07
2.19357e+07
4.01231e+07
3.11295e+07
4.27877e+07
2.30499e+07
5.43164e+07
3.05893e+07
7.96076e+06
2.47346e+07
2.21606e+07
3.57468e+07
2.04662e+07
8.23209e+06
8.40329e+07
1.99435e+07
6.67727e+07
7.61865e+07
4.24688e+07
4.18854e+07
8.3275e+07
6.38802e+07
6.13537e+07
6.25988e+07
2.43284e+07
2.43279e+07
2.00219e+07
6.77978e+07
3.82029e+07
1.09177e+08
2.6531e+07
3.65436e+07
5.42676e+06
8.99373e+07
8.25762e+07
4.08416e+07
1.93425e+07
9.37684e+06
2.73892e+07
2.11432e+07
5.35381e+07
5.80663e+07
3.71237e+07
2.70424e+07
6.70454e+07
2.72196e+07
6.69942e+07
6.12704e+07
8.42765e+07
3.76139e+07
4.34799e+07
4.52695e+07
1.76342e+07
5.03975e+07
7.847e+07
7.87496e+07
8.66079e+07
2.91522e+07
1.70734e+07
4.27159e+07
2.93391e+07
6.48223e+07
7.00899e+07
5.9911e+07
6.9949e+07
8.23164e+07
2.6596e+07
6.61258e+07
6.13276e+07
5.71225e+07
4.13147e+07
5.97755e+07
7.36878e+07
1.29408e+07
3.77991e+07
7.22828e+07
2.28692e+07
5.37931e+07
7.70481e+07
5.70712e+07
4.55357e+07
2.1658e+07
3.97218e+07
2.29576e+07
3.57114e+07
5.89471e+07
9.04292e+07
4.71735e+07
2.19062e+07
3.58113e+07
1.89562e+07
9.46335e+07
2.44074e+07
9.27992e+07
7.25944e+07
2.41459e+07
3.58575e+07
4.05021e+07
2.23549e+07
4.79286e+07
4.74304e+07
9.89677e+07
5.39465e+07
3.46089e+07
8.49623e+07
4.73674e+07
9.63275e+07
8.41829e+07
9.26678e+07
1.01263e+08
3.55133e+07
3.87731e+07
2.41039e+07
6.23825e+07
8.37798e+07
3.35979e+07
2.91475e+07
3.58325e+07
3.61085e+07
3.00343e+07
1.92272e+07
3.42468e+07
6.67292e+07
6.90339e+07
6.61425e+07
2.00737e+07
6.9851e+07
2.63028e+07
6.071e+07
4.64887e+07
7.61137e+07
2.03009e+07
1.79881e+07
7.66574e+07
2.84302e+07
5.43692e+07
4.26329e+07
7.54531e+07
3.65348e+07
2.44937e+07
2.42615e+07
2.55168e+07
3.86887e+07
3.15553e+07
2.79095e+07
2.78837e+07
2.7502e+07
7.5333e+07
2.37969e+07
3.76631e+07
3.22507e+07
3.18317e+07
2.80342e+07
6.87761e+07
4.01573e+07
7.73745e+07
8.28721e+07
3.22487e+07
3.55882e+07
3.52937e+07
7.418e+07
3.70177e+07
8.37245e+07
1.75211e+07
1.94395e+07
1.95224e+07
1.77352e+07
4.52702e+07
4.33344e+07
1.09131e+08
1.80508e+07
6.45417e+07
3.24684e+07
5.35463e+07
2.22672e+07
2.86656e+07
1.7031e+07
5.47265e+07
4.46765e+07
9.50463e+07
2.8782e+07
5.10569e+07
2.5247e+07
2.289e+07
1.51778e+07
1.59235e+07
1.00755e+08
2.38008e+07
5.87299e+07
1.32464e+07
3.48324e+07
4.21529e+07
3.60628e+07
1.60318e+07
1.77572e+07
6.96999e+07
9.5614e+06
3.40094e+07
4.89836e+07
1.31833e+07
2.15849e+07
5.28911e+07
2.42567e+07
3.45151e+07
3.42608e+07
5.07431e+07
3.72179e+07
5.07017e+07
7.67901e+07
4.0694e+07
6.13782e+07
3.79567e+07
5.42884e+07
3.37891e+07
3.21596e+07
3.26873e+07
2.51398e+07
2.79214e+07
4.16373e+07
3.92475e+07
2.45776e+07
7.17695e+07
4.62725e+07
8.44995e+07
3.46754e+07
3.36322e+07
3.29499e+07
3.70025e+07
5.19841e+07
4.79935e+07
4.89199e+07
5.53689e+07
8.08761e+07
3.49306e+07
6.68962e+07
7.39356e+07
6.63695e+07
3.04521e+07
2.4779e+07
2.53018e+07
3.03387e+07
3.02347e+07
2.99996e+07
3.21004e+07
3.19372e+07
8.23465e+06
9.23197e+06
3.84314e+07
2.8527e+07
3.08082e+07
9.31376e+06
2.27194e+07
2.70095e+07
1.84338e+07
2.44381e+07
4.72347e+07
4.67128e+07
2.93905e+07
4.56884e+07
2.22541e+07
3.9363e+07
2.76644e+07
3.91702e+07
4.24597e+07
3.8541e+07
4.35688e+07
9.9884e+07
4.53512e+07
2.1185e+07
9.21627e+07
4.84861e+07
3.34663e+07
2.43846e+07
1.13161e+07
2.64983e+07
5.80517e+07
5.87958e+07
5.96104e+07
5.94659e+07
3.12782e+07
4.26014e+07
7.31453e+06
2.65299e+07
4.28477e+07
7.84363e+07
3.38692e+07
2.3969e+07
5.8109e+07
4.29433e+07
2.70379e+07
3.44512e+07
3.73328e+07
4.15633e+07
1.02023e+08
6.03423e+07
2.23843e+07
3.0141e+07
6.32086e+07
9.80359e+07
9.0933e+06
1.62474e+07
5.40551e+07
1.81298e+07
5.24127e+07
7.88186e+07
3.43471e+07
4.2557e+07
8.12149e+07
8.38537e+07
8.11875e+07
2.85732e+07
3.54896e+07
2.43699e+07
1.9837e+07
1.01716e+07
3.66681e+07
5.80379e+07
2.18278e+07
4.43859e+07
6.8389e+07
3.5705e+07
8.48166e+07
6.05305e+07
5.71547e+07
6.59974e+07
6.75402e+07
9.24611e+07
3.58565e+07
1.12784e+08
2.52778e+07
3.13299e+07
3.93547e+07
2.37827e+07
2.23708e+07
4.41462e+07
3.49694e+07
4.50103e+07
2.863e+07
5.18815e+07
2.75936e+07
2.73094e+07
2.1417e+07
2.07588e+07
5.94586e+07
5.81033e+07
5.54563e+07
8.283e+07
3.73337e+07
3.12031e+07
3.96906e+07
2.98243e+07
5.59596e+07
3.68572e+07
6.74128e+07
5.66742e+07
3.53563e+07
5.08135e+07
7.83515e+07
1.08242e+08
6.89857e+07
4.24658e+07
6.64632e+07
1.01155e+07
9.08303e+07
5.25819e+07
2.90628e+07
4.43297e+07
4.25503e+07
3.94902e+07
2.27974e+07
4.51311e+07
3.48376e+07
6.83908e+07
4.04118e+07
4.07007e+07
1.05961e+08
2.62475e+07
5.09095e+07
3.99106e+07
2.51909e+07
1.09455e+08
4.61326e+07
2.12824e+07
9.46048e+07
1.0711e+08
4.10676e+07
3.94379e+07
2.31379e+07
4.73631e+07
1.47341e+07
8.55683e+07
4.82659e+07
1.27448e+07
3.05755e+07
2.90953e+07
9.02165e+07
4.28865e+07
6.7453e+07
1.87465e+07
6.78155e+07
2.69569e+07
3.03136e+07
7.60723e+07
5.39122e+07
2.61284e+07
3.49362e+07
8.90174e+07
3.26778e+07
2.50383e+07
4.10797e+07
2.37818e+07
3.73135e+07
3.11268e+07
4.28251e+07
2.46191e+07
3.72213e+07
3.8126e+07
4.37541e+07
4.44884e+07
4.69261e+07
9.61496e+07
3.38091e+07
9.50557e+07
4.77824e+07
4.12425e+07
3.47533e+07
3.56797e+07
9.87635e+07
2.57154e+07
6.12826e+07
1.04469e+08
2.38811e+07
1.98969e+07
5.66307e+06
4.05896e+07
2.53285e+07
1.88167e+07
3.26426e+07
2.2466e+07
6.48051e+07
7.19772e+06
7.72144e+07
7.05183e+07
7.15809e+07
6.65453e+07
4.47922e+07
2.60914e+07
5.94204e+07
5.24202e+07
2.86251e+07
7.1132e+07
9.66241e+07
3.20114e+07
3.24488e+07
2.72395e+07
2.79851e+07
3.44934e+07
3.76612e+07
6.80876e+07
4.33434e+07
3.86231e+07
6.24436e+07
5.0437e+07
2.40138e+07
4.41141e+07
5.29516e+07
3.64344e+07
3.62085e+07
3.92127e+07
2.83402e+07
3.60673e+07
2.38345e+07
2.76997e+07
5.30009e+07
8.47102e+06
6.3403e+07
2.60985e+07
7.26188e+07
5.10716e+07
3.34111e+07
3.50563e+07
2.51759e+07
1.50193e+07
2.74318e+07
2.63194e+07
3.05207e+07
1.37283e+07
1.38508e+07
3.56165e+07
3.93282e+07
4.86515e+07
4.18047e+07
4.65714e+07
2.89221e+07
4.93807e+07
1.08504e+08
3.12562e+07
8.62884e+07
8.07456e+07
3.84625e+07
5.65195e+07
1.16553e+07
5.49678e+07
4.8631e+07
5.65494e+07
4.66327e+07
3.65125e+07
3.11617e+07
3.12158e+07
5.51937e+07
4.76881e+07
4.78024e+07
4.17602e+07
3.44574e+07
6.99176e+07
3.2411e+07
6.9061e+07
1.06721e+08
5.65781e+07
3.12791e+07
1.6336e+07
4.05548e+07
3.82933e+07
5.03538e+07
3.72114e+07
4.35719e+07
5.93378e+07
7.01272e+07
2.64623e+07
3.75487e+07
4.05836e+07
5.37294e+07
9.73006e+07
3.71615e+07
3.39683e+07
3.33657e+07
9.5368e+06
3.49023e+07
5.56138e+07
6.21706e+07
2.40054e+07
1.84098e+07
3.4523e+07
2.34041e+07
3.36712e+07
5.46956e+07
3.66078e+07
2.85299e+07
2.83774e+07
4.93128e+07
2.4375e+07
1.00759e+08
3.02765e+07
3.06615e+07
8.47064e+06
6.40523e+07
8.87851e+07
8.844e+06
9.72136e+07
1.16666e+08
7.27181e+07
7.6587e+07
3.64357e+07
4.48085e+07
1.95102e+07
3.75478e+07
4.61096e+07
1.61058e+07
4.77435e+07
3.5387e+07
2.92754e+07
8.6504e+06
5.20782e+07
4.25014e+07
4.6644e+07
2.15442e+07
5.15559e+07
3.40293e+07
2.7773e+07
9.90049e+07
5.14931e+07
1.95285e+07
1.99309e+07
8.42879e+07
2.64824e+07
2.61065e+07
6.72955e+07
2.37131e+07
3.92508e+07
3.90613e+07
6.70899e+07
2.80561e+07
2.7488e+07
4.17027e+07
7.53946e+07
3.82533e+07
5.73938e+07
8.25195e+07
6.07258e+07
3.74971e+07
5.00488e+07
8.20969e+07
4.11944e+07
8.51063e+06
3.33837e+07
4.72528e+07
5.28469e+07
4.19805e+07
2.42049e+07
8.35471e+07
6.56676e+07
2.68572e+07
9.99052e+07
6.10765e+07
2.93734e+07
8.18739e+07
9.29467e+07
8.82584e+07
4.46765e+07
2.57163e+07
5.78248e+07
5.76204e+07
8.33026e+07
2.44153e+07
6.24777e+07
3.58585e+07
1.54488e+07
6.37153e+07
3.59342e+07
3.39851e+07
8.18164e+06
3.59941e+07
3.60298e+07
6.94474e+07
4.83421e+07
2.66062e+07
2.61305e+07
2.62324e+07
3.32496e+07
6.97055e+07
2.61532e+07
4.0143e+07
2.2125e+07
4.92085e+07
8.47918e+07
7.21446e+07
6.61873e+07
1.06135e+07
9.18426e+06
7.21943e+07
8.98051e+07
2.47391e+07
1.36632e+07
8.48813e+06
2.58023e+07
9.59853e+06
3.30278e+07
3.21329e+07
6.2407e+07
3.0519e+07
7.61129e+07
9.79967e+06
3.74579e+07
1.17169e+07
2.92339e+07
8.56473e+07
8.92325e+07
6.25936e+07
1.24908e+07
4.63699e+07
9.56854e+07
7.95339e+07
4.64446e+07
4.07975e+07
2.32433e+07
1.61616e+07
5.70508e+07
1.64005e+07
3.59333e+07
4.43146e+07
6.23678e+07
3.51237e+07
3.66442e+07
4.80401e+07
4.49257e+07
4.16099e+07
6.2394e+07
4.37473e+07
5.34081e+07
4.79021e+07
4.11782e+07
6.3695e+07
6.12877e+07
6.0354e+07
6.18789e+07
6.78765e+07
7.99888e+07
6.0924e+07
2.65272e+07
1.9338e+07
6.94139e+07
5.59056e+07
7.16674e+07
5.50872e+07
2.80758e+07
1.00797e+08
2.74864e+07
3.67501e+07
1.0172e+07
3.32435e+07
6.22717e+07
7.95257e+07
1.1547e+07
4.60148e+07
2.97453e+07
1.16368e+07
1.13361e+07
6.09746e+07
2.42717e+07
4.51761e+07
5.98278e+07
1.11129e+08
3.22915e+07
6.22783e+07
4.69146e+07
3.13007e+07
4.00578e+07
8.33431e+07
3.07453e+07
4.20001e+07
3.35369e+07
3.05377e+07
1.30028e+07
7.20303e+07
2.4016e+07
5.32277e+07
2.2967e+07
4.24122e+07
2.24936e+07
4.27197e+07
4.31263e+07
2.38587e+07
1.26745e+07
2.18644e+07
3.34665e+07
2.33778e+07
2.34941e+07
4.00939e+07
1.35578e+07
1.61283e+07
4.65201e+07
2.86646e+07
1.19621e+07
2.99452e+07
1.05831e+08
2.93617e+07
6.7038e+07
3.3773e+07
7.07426e+07
7.70801e+07
2.68288e+07
1.05287e+08
9.76024e+07
3.47012e+07
7.21064e+07
4.11525e+07
9.14289e+07
1.05196e+08
3.43595e+07
3.86275e+07
3.77061e+07
2.43017e+07
2.22559e+07
1.03626e+08
9.41046e+07
6.5052e+07
1.11051e+07
6.49591e+07
3.23952e+07
2.48369e+07
2.71246e+07
3.12662e+07
5.53107e+07
4.06996e+07
3.52656e+07
6.60802e+07
6.43818e+07
3.53544e+07
3.52329e+07
7.51892e+07
6.32092e+07
8.40319e+07
4.16013e+07
7.4969e+06
2.13704e+07
3.16716e+07
4.72755e+07
4.989e+07
2.54447e+07
2.90543e+07
2.89538e+07
3.96557e+07
2.74014e+07
2.87295e+07
2.84116e+07
4.88419e+07
2.90627e+07
2.48179e+07
3.96656e+07
5.38258e+07
3.46421e+07
3.44171e+07
4.58064e+07
1.92136e+07
3.48815e+07
3.49477e+07
6.86698e+07
3.66844e+07
2.3811e+07
3.14096e+07
1.41019e+07
1.83034e+07
3.35984e+07
3.41489e+07
6.73412e+07
5.35478e+07
1.74782e+07
1.03472e+08
5.55887e+07
4.1967e+07
2.37478e+07
4.13417e+07
2.41325e+07
3.20112e+07
2.86841e+07
6.86292e+07
4.57323e+07
1.92751e+07
3.58125e+07
5.31262e+07
9.2334e+07
5.33012e+07
6.78292e+07
7.0875e+07
6.86026e+07
2.90089e+07
1.53785e+07
8.09078e+07
9.22643e+07
8.72038e+07
5.61853e+07
7.28865e+07
1.45018e+07
3.45049e+07
3.01011e+07
3.01931e+07
2.49052e+07
3.11759e+07
2.46797e+07
7.94687e+07
4.08124e+07
3.86782e+07
4.03102e+07
5.52003e+07
2.55006e+07
3.30987e+07
4.15202e+07
2.36332e+07
1.0885e+08
9.01956e+07
3.51892e+07
9.27664e+06
7.29166e+07
6.76925e+07
3.79513e+07
9.59744e+07
1.26927e+07
8.89865e+07
7.00916e+07
2.65616e+07
4.90868e+07
3.73668e+07
7.56633e+07
1.95565e+07
2.10095e+07
8.8015e+07
3.51496e+07
3.51914e+07
9.39357e+07
1.64121e+07
3.70802e+07
7.98342e+07
2.05032e+07
7.45761e+07
2.69403e+07
3.06176e+07
8.70152e+07
3.5683e+07
6.4812e+06
3.72416e+07
1.38539e+07
3.08484e+07
3.0582e+07
2.87313e+07
2.16069e+07
6.35175e+07
3.19982e+07
1.78851e+07
6.56843e+07
6.54641e+07
5.00931e+07
4.96832e+07
1.45722e+07
1.63538e+07
1.0625e+08
7.50874e+07
9.20746e+07
4.31477e+07
2.53734e+07
6.25997e+07
2.40624e+07
8.01235e+06
2.5297e+07
4.13681e+07
2.22846e+07
6.62541e+07
3.37896e+07
3.62322e+07
3.66047e+07
5.30401e+07
9.5908e+07
7.46422e+07
2.56181e+07
5.131e+07
3.57248e+07
2.16992e+07
8.13718e+07
3.87382e+07
2.73115e+07
4.56995e+07
2.87465e+07
5.30597e+07
5.36467e+07
9.13987e+07
1.8553e+07
2.69903e+07
2.67128e+07
8.93086e+07
5.81783e+07
2.59219e+07
3.50021e+07
4.09141e+07
2.18167e+07
6.3032e+07
1.94535e+07
3.52993e+07
9.5767e+07
3.87435e+07
2.33704e+07
5.71327e+07
5.64783e+07
1.82655e+07
4.03806e+07
4.8053e+07
4.05514e+07
7.48739e+07
6.09004e+07
3.57377e+07
3.73346e+07
1.37483e+07
3.4119e+07
7.01113e+07
4.56194e+07
4.56843e+07
8.95626e+07
1.4916e+07
8.2126e+07
2.34503e+07
1.03088e+08
4.83095e+07
1.0581e+08
4.03943e+07
3.36727e+07
1.87065e+07
6.32933e+07
8.24558e+07
2.90594e+07
8.49681e+07
3.12262e+07
5.58623e+07
5.02491e+07
3.29331e+07
3.19304e+07
3.19903e+07
2.40367e+07
3.80128e+07
7.75716e+07
5.73111e+07
4.05858e+07
2.23056e+07
3.08574e+07
3.51978e+07
9.06831e+07
4.99544e+07
6.93088e+07
6.29891e+07
5.06814e+07
3.02893e+07
3.23754e+07
3.08355e+07
2.6013e+07
2.59526e+07
3.14804e+07
5.22444e+07
3.16161e+07
7.80247e+07
7.44043e+07
6.7206e+07
2.76981e+07
2.77594e+07
7.14896e+07
3.97671e+07
2.24616e+07
5.189e+07
4.41931e+07
3.14307e+07
6.83756e+07
3.51301e+07
3.12548e+07
4.59294e+07
7.00757e+07
7.26632e+07
5.43714e+07
5.28045e+07
9.41265e+07
4.05371e+07
6.72055e+07
5.74125e+07
8.57701e+07
4.79989e+07
4.70058e+07
4.09661e+07
2.52774e+07
5.85762e+07
1.57244e+07
2.32113e+07
2.31365e+07
3.70022e+07
5.76087e+07
3.52447e+07
2.4291e+07
3.16998e+07
2.69325e+07
5.97582e+07
4.8795e+07
6.13273e+07
1.57234e+07
1.58476e+07
4.5464e+07
2.33805e+07
3.5529e+07
7.6069e+07
3.59585e+07
2.22474e+07
2.79654e+07
2.80978e+07
3.89829e+07
4.66555e+07
3.112e+07
4.9249e+07
1.64138e+07
4.58158e+07
7.97294e+07
5.82074e+07
2.34312e+07
2.22348e+07
3.56303e+07
7.71875e+07
3.44536e+07
8.58781e+07
3.91385e+07
3.84714e+07
3.00152e+07
5.78679e+07
3.64507e+07
7.50942e+06
1.61784e+07
7.5737e+07
2.28912e+07
3.53703e+07
2.85554e+07
3.23586e+07
6.01813e+07
3.26735e+07
3.29078e+07
3.55263e+07
2.47457e+07
1.5071e+07
3.63923e+07
9.74816e+07
4.21465e+07
9.03069e+07
2.78197e+07
2.48505e+07
6.3599e+07
5.73704e+07
4.22347e+07
1.51014e+07
7.20792e+07
9.55918e+07
5.26445e+07
4.87318e+07
5.28388e+07
2.32688e+07
4.07385e+07
3.66679e+07
2.51638e+07
3.06836e+07
6.46078e+07
5.48448e+07
4.91442e+07
2.44293e+07
2.66617e+07
2.76024e+07
6.7363e+07
4.88795e+07
4.85862e+07
3.915e+07
2.48452e+07
2.08151e+07
1.97007e+07
3.10916e+07
1.85943e+07
1.71741e+07
3.16788e+07
4.08761e+07
5.21137e+07
8.58115e+07
1.50695e+07
2.83566e+07
1.84553e+07
7.39867e+06
2.21861e+07
4.05721e+07
9.4776e+07
4.60453e+07
5.14793e+07
3.07517e+07
3.41281e+07
2.3602e+07
1.84903e+07
7.10203e+07
1.25089e+07
2.93562e+07
2.65578e+07
7.99374e+07
5.40969e+07
3.34035e+07
6.6227e+07
1.81858e+07
2.80279e+07
2.99513e+07
7.38132e+07
5.51226e+07
4.61744e+07
8.5762e+07
8.2304e+07
2.26358e+07
3.54265e+07
6.8474e+07
5.28283e+07
1.78844e+07
7.95792e+07
4.28002e+07
2.5508e+07
3.3047e+07
1.87691e+07
3.37646e+07
2.79389e+07
9.76022e+07
3.36953e+07
3.34236e+07
1.98482e+07
2.05397e+07
3.27083e+07
2.6469e+07
2.63703e+07
2.54705e+07
7.42363e+07
7.09704e+07
7.56632e+07
3.84737e+07
4.45877e+07
6.46556e+07
6.72716e+07
6.76909e+07
5.42519e+07
1.78968e+07
1.91328e+07
5.94046e+07
9.07984e+07
4.63479e+07
4.09496e+07
2.2246e+07
3.82896e+07
4.68128e+07
7.89576e+07
7.97778e+07
6.3805e+07
6.80969e+07
9.38971e+07
6.71356e+07
1.7993e+07
3.59104e+07
5.41443e+07
8.39865e+07
3.5281e+07
7.68683e+07
3.10006e+07
2.5746e+07
2.6012e+07
2.53756e+07
2.31405e+07
6.53898e+07
5.83812e+07
5.98493e+07
2.75002e+07
2.5626e+07
5.03349e+07
2.68905e+07
5.66985e+07
9.78126e+07
3.40508e+07
2.95935e+07
4.21406e+07
2.25883e+07
2.98246e+07
3.26932e+07
3.01557e+07
5.05009e+07
3.53902e+07
7.06985e+07
3.80937e+07
3.62317e+07
2.34652e+07
5.15862e+07
7.42748e+07
2.12594e+07
2.18027e+07
3.56535e+07
3.56178e+07
3.84627e+07
5.4634e+07
9.5926e+07
5.82838e+07
1.05352e+07
3.04388e+07
3.02139e+07
5.02152e+07
5.86148e+07
1.08696e+08
3.34775e+07
7.25455e+07
4.52977e+07
5.34162e+07
4.51034e+07
5.74508e+07
2.9458e+07
3.14528e+07
3.1321e+07
4.53229e+07
2.47014e+07
2.41888e+07
4.21115e+07
2.89023e+07
6.1129e+07
6.95291e+06
2.46804e+07
4.84058e+07
4.48503e+07
4.4181e+07
2.91841e+07
3.554e+07
5.13834e+07
4.60511e+07
2.91786e+07
2.49276e+07
6.41597e+07
3.40576e+07
9.0281e+06
3.16348e+07
4.73803e+07
1.77752e+07
5.84351e+07
2.7717e+07
2.41606e+07
2.10639e+07
3.26258e+07
7.42154e+07
9.02635e+07
6.4915e+07
3.6431e+07
2.37843e+07
5.00052e+07
1.44818e+07
3.46765e+07
2.47109e+07
5.64257e+07
5.97385e+07
3.27079e+07
1.41687e+07
2.90003e+07
5.06432e+07
5.08086e+07
6.13869e+07
8.59777e+07
3.78875e+07
3.73552e+07
1.79622e+07
8.90345e+07
3.7766e+07
1.03124e+08
3.44922e+07
3.46515e+07
3.49164e+07
1.02297e+08
3.65789e+07
3.84803e+07
7.69904e+07
8.43647e+07
4.17291e+07
2.65024e+07
7.78249e+07
7.7473e+07
1.89351e+07
4.26051e+07
4.18711e+07
2.31502e+07
3.13684e+07
8.90347e+07
3.87754e+07
2.36759e+07
1.04273e+08
4.4707e+07
2.23024e+07
4.05362e+07
4.04741e+07
1.61063e+07
5.5523e+07
2.28237e+07
3.62727e+07
4.30304e+07
2.45139e+07
2.43812e+07
3.54952e+07
3.99719e+07
1.46355e+07
4.26005e+07
4.38691e+07
3.27658e+07
6.06309e+07
2.72993e+07
8.82947e+07
5.69207e+07
3.42393e+07
2.4353e+07
5.68255e+07
3.5024e+07
3.57166e+07
9.22862e+07
4.21884e+07
4.29471e+07
4.11963e+07
1.59809e+07
2.31251e+07
3.52829e+07
4.63453e+07
4.64684e+07
5.16873e+07
2.88807e+07
5.18202e+07
8.26107e+07
6.14198e+07
7.22363e+07
3.97944e+07
3.77859e+07
4.81133e+07
4.1886e+07
3.76924e+07
3.83655e+07
9.58152e+07
3.96726e+07
8.40746e+07
4.28678e+07
2.10701e+07
3.63467e+07
2.36897e+07
9.87849e+07
4.64743e+07
2.68125e+07
4.33867e+07
4.5998e+07
3.03904e+07
4.73752e+07
8.90377e+07
3.83268e+07
5.13111e+07
5.3114e+07
2.42344e+07
2.22282e+07
3.92267e+07
9.12519e+07
3.52261e+07
4.57378e+07
1.69147e+07
3.91964e+07
6.75598e+07
2.89156e+07
5.91404e+07
3.63467e+07
4.42186e+07
3.62025e+07
5.10038e+07
5.22729e+07
3.93585e+07
2.32125e+07
4.07216e+07
3.10398e+07
1.99627e+07
7.02263e+07
5.19823e+07
3.4904e+07
2.14466e+07
4.44404e+07
2.8489e+07
9.82322e+07
5.50024e+07
1.0033e+08
6.049e+07
5.97203e+07
2.81396e+07
6.25551e+07
3.61139e+07
4.05433e+07
4.44324e+07
5.35227e+07
8.44568e+07
2.3901e+07
2.97762e+07
3.69939e+07
2.36822e+07
2.68785e+07
8.93609e+07
3.2925e+07
3.14784e+07
2.04369e+07
4.32944e+07
2.04872e+07
3.50742e+07
8.97993e+07
2.91645e+07
4.90401e+07
3.15239e+07
3.0196e+07
4.70258e+07
6.46977e+07
2.16005e+07
9.2745e+07
5.35812e+07
4.63006e+07
3.26293e+07
5.37945e+07
3.06686e+07
2.24777e+07
3.54519e+07
2.1657e+07
3.56736e+07
6.4911e+07
2.65002e+07
6.20063e+07
5.24978e+07
3.51724e+07
3.1903e+07
7.95559e+07
3.4132e+07
6.31806e+07
2.6693e+07
3.6758e+07
2.45725e+07
4.46283e+07
2.30811e+07
3.0834e+07
4.4629e+07
2.22523e+07
4.48938e+07
4.3129e+07
4.55018e+07
2.22927e+07
3.09653e+07
2.74705e+07
7.46815e+07
6.08163e+07
7.65223e+07
8.20682e+07
2.79259e+07
5.34525e+07
8.03078e+07
3.52203e+07
3.49423e+07
3.78091e+07
3.73471e+07
4.81733e+07
3.96419e+07
3.0972e+07
7.70672e+07
3.40278e+07
2.74422e+07
4.63952e+07
4.45066e+07
2.11404e+07
3.13026e+07
2.58087e+07
2.55543e+07
9.19665e+07
5.18923e+07
9.40513e+07
3.63899e+07
1.30605e+07
1.33234e+07
2.76377e+07
3.76358e+07
4.08275e+07
3.07206e+07
8.80097e+07
2.64597e+07
9.20454e+07
3.10891e+07
3.6197e+07
1.89666e+07
9.03391e+07
3.25463e+07
1.36082e+07
4.76909e+07
4.93427e+07
8.74339e+07
9.51942e+07
5.18276e+07
5.16349e+07
1.7723e+07
1.67414e+07
9.33188e+07
6.7879e+07
8.63886e+07
4.33381e+07
2.34279e+07
3.12107e+07
5.1274e+07
3.07613e+07
3.49409e+07
3.3989e+07
6.27566e+07
1.56295e+07
9.9383e+07
2.40789e+07
8.03325e+07
8.61143e+07
3.7958e+07
2.60067e+07
2.62076e+07
4.08081e+07
2.20089e+07
3.32424e+07
6.22799e+07
6.26703e+07
4.76398e+07
1.45407e+07
4.87455e+07
2.85188e+07
6.10273e+07
4.02841e+07
2.87257e+07
2.89978e+07
6.63636e+07
4.58127e+07
4.45452e+07
6.24593e+07
2.56054e+07
4.12737e+07
3.23771e+07
4.54205e+07
6.0913e+07
3.84887e+07
4.07964e+07
4.69953e+07
3.09611e+07
4.11146e+07
4.1263e+07
5.30404e+07
2.55472e+07
5.30195e+07
7.40629e+07
4.22547e+07
4.23036e+07
7.55475e+07
4.10338e+07
9.51691e+07
3.769e+07
3.9335e+07
9.38918e+07
1.58028e+07
3.27677e+07
1.21906e+07
2.37388e+07
1.68488e+07
2.05698e+07
1.26993e+07
4.00372e+07
2.22978e+07
2.3765e+07
8.05844e+07
3.42388e+07
7.8493e+07
4.24722e+07
2.16075e+07
5.20249e+07
4.41375e+07
4.41221e+07
4.47011e+07
5.37432e+07
4.21215e+07
6.69381e+07
7.96113e+07
5.22148e+07
3.62158e+07
1.22577e+07
3.80121e+07
3.28988e+07
7.79509e+07
2.14497e+07
8.17564e+07
2.6351e+07
3.86826e+07
3.85967e+07
6.46578e+07
7.16754e+07
6.97442e+07
1.19822e+07
2.82046e+07
3.11981e+07
4.66232e+07
4.44552e+07
6.35337e+07
2.99742e+07
3.3365e+07
3.33826e+07
2.8572e+07
7.84512e+07
1.81301e+07
6.28571e+07
3.12895e+07
3.13802e+07
2.06427e+07
5.83009e+07
2.37342e+07
2.41011e+07
3.87969e+07
3.55076e+07
4.74862e+07
4.94846e+07
3.89503e+07
2.7879e+07
1.98589e+07
2.40927e+07
7.58268e+07
4.28475e+07
2.58471e+07
3.98287e+07
4.04639e+07
3.01722e+07
2.96253e+07
5.19866e+07
3.58515e+07
8.25388e+07
7.28246e+07
4.39307e+07
3.58596e+07
3.02455e+07
3.28483e+07
2.98977e+07
2.60848e+07
3.89054e+07
5.92582e+07
4.38679e+07
4.93972e+07
4.59636e+07
4.43009e+07
3.10573e+07
3.45725e+07
2.60217e+07
1.01866e+08
4.55765e+07
5.36322e+07
2.12988e+07
6.63777e+07
1.84705e+07
2.88813e+07
4.18936e+07
2.1832e+07
4.38493e+07
2.0409e+07
8.03034e+07
2.59574e+07
1.60241e+07
5.94855e+07
4.0221e+07
3.8873e+07
7.04437e+07
8.02403e+07
3.58346e+07
1.01192e+07
6.40673e+07
3.19066e+07
7.24541e+07
4.81276e+07
3.11667e+07
5.59565e+07
3.74937e+07
4.48181e+07
2.21236e+07
3.52385e+07
7.80305e+07
9.95248e+07
3.20625e+07
1.48515e+07
7.78212e+07
3.86414e+07
1.17721e+07
5.27767e+07
1.70268e+07
4.26685e+07
2.1602e+07
3.86626e+07
5.65695e+07
3.10095e+07
3.25432e+07
7.72982e+07
4.5422e+07
2.74127e+07
3.2267e+07
3.24026e+07
8.86993e+07
7.76956e+07
4.19071e+07
9.45908e+07
4.83498e+07
3.25884e+07
1.73194e+07
4.68839e+07
5.32128e+07
7.88514e+07
6.71283e+07
9.60837e+07
9.33062e+07
6.01354e+07
3.09628e+07
3.26591e+07
2.64455e+07
3.63054e+07
2.57266e+07
2.59186e+07
8.50797e+06
4.36895e+07
2.37336e+07
7.90621e+07
7.14353e+07
7.20045e+07
9.53683e+07
6.48142e+07
2.69089e+07
3.65206e+07
4.16082e+07
2.84062e+07
2.26176e+07
3.55815e+07
3.67587e+07
4.32272e+07
9.8192e+07
4.10628e+07
2.16221e+07
4.33303e+07
1.94805e+07
5.70116e+07
3.54247e+07
2.24967e+07
6.50744e+07
1.43203e+07
2.39853e+07
3.79364e+07
3.91931e+07
2.56473e+07
2.04938e+07
8.40603e+07
2.28343e+07
3.56597e+07
2.96375e+07
4.64883e+07
6.08692e+07
3.7217e+07
2.78695e+07
3.27321e+07
5.1152e+07
5.94028e+07
3.69945e+07
3.00597e+07
3.28033e+07
2.66181e+07
7.19963e+07
2.11392e+07