/*--------------------------------*- C++ -*----------------------------------*\
| =========                 |                                                 |
| \\      /  F ield         | OpenFOAM: The Open Source CFD Toolbox           |
|  \\    /   O peration     | Version:  v2012                                 |
|   \\  /    A nd           | Website:  www.openfoam.com                      |
|    \\/     M anipulation  |                                                 |
\*---------------------------------------------------------------------------*/
FoamFile
{
    version     2.0;
    format      ascii;
    class       volScalarField;
    location    "20";
    object      sigmaHyd;
}
// * * * * * * * * * * * * * * * * * * * * * * * * * * * * * * * * * * * * * //

dimensions      [1 -1 -2 0 0 0 0];


internalField   nonuniform List<scalar> 
2000
(
-9.97609e+07
-7.94313e+07
-7.4975e+07
-4.93908e+07
-3.94257e+07
-2.32932e+07
-8.3762e+06
-82253
1.80779e+07
2.01274e+07
3.93984e+07
3.49858e+07
5.46475e+07
4.32263e+07
6.32083e+07
4.58015e+07
6.56491e+07
4.48605e+07
6.34832e+07
4.24531e+07
-1.01611e+08
-6.7693e+07
-7.40395e+07
-3.38781e+07
-4.65555e+07
-4.81318e+06
-2.24452e+07
1.89118e+07
-2.06687e+06
3.37113e+07
1.52201e+07
3.87008e+07
2.91796e+07
3.7243e+07
3.93441e+07
3.33451e+07
4.58225e+07
2.95892e+07
4.94225e+07
2.73007e+07
-9.51838e+07
-4.94044e+07
-7.2741e+07
-1.46293e+07
-5.27218e+07
1.26968e+07
-3.54787e+07
2.66976e+07
-1.97924e+07
2.80768e+07
-5.5185e+06
2.40919e+07
6.77917e+06
1.98395e+07
1.67819e+07
1.688e+07
2.45263e+07
1.53907e+07
2.98181e+07
1.47843e+07
-8.85656e+07
-2.97578e+07
-7.17479e+07
7467.45
-5.80455e+07
1.18803e+07
-4.508e+07
9.86228e+06
-3.23342e+07
6.83164e+06
-2.05648e+07
5.79943e+06
-1.03724e+07
5.67868e+06
-1.75573e+06
5.84968e+06
5.19013e+06
5.89132e+06
1.07179e+07
5.57264e+06
-7.90677e+07
-1.69326e+07
-6.87897e+07
-1.10843e+07
-5.90787e+07
-1.72553e+07
-4.79702e+07
-1.55687e+07
-3.80442e+07
-1.08224e+07
-2.98143e+07
-6.29393e+06
-2.25485e+07
-2.96829e+06
-1.61756e+07
-1.33357e+06
-1.07758e+07
-844070
-5.50131e+06
-565101
-6.65288e+07
-2.96875e+07
-5.52044e+07
-2.87357e+07
-4.62573e+07
-2.33518e+07
-3.96566e+07
-1.87128e+07
-3.36364e+07
-1.4613e+07
-2.83744e+07
-1.13251e+07
-2.39306e+07
-8.69098e+06
-1.98033e+07
-6.21536e+06
-1.63026e+07
-4.97645e+06
-1.29911e+07
-3.71279e+06
-4.18502e+07
-3.04425e+07
-3.92753e+07
-2.55763e+07
-3.70802e+07
-2.12857e+07
-3.36629e+07
-1.76359e+07
-2.9882e+07
-1.45737e+07
-2.59605e+07
-1.20548e+07
-2.21353e+07
-9.96191e+06
-1.86967e+07
-8.25272e+06
-1.55011e+07
-6.72526e+06
-1.26355e+07
-5.27387e+06
-3.19419e+07
-2.56309e+07
-3.18698e+07
-2.219e+07
-3.05982e+07
-1.90598e+07
-2.84638e+07
-1.62912e+07
-2.58442e+07
-1.38768e+07
-2.29722e+07
-1.17885e+07
-2.00409e+07
-9.98398e+06
-1.7146e+07
-8.39561e+06
-1.43878e+07
-6.95853e+06
-1.17969e+07
-5.61542e+06
-2.60743e+07
-2.18913e+07
-2.62177e+07
-1.94286e+07
-2.54311e+07
-1.70665e+07
-2.39925e+07
-1.48861e+07
-2.2131e+07
-1.29045e+07
-2.00167e+07
-1.11124e+07
-1.77772e+07
-9.48561e+06
-1.55095e+07
-8.0006e+06
-1.32829e+07
-6.64816e+06
-1.11466e+07
-5.46287e+06
-2.22717e+07
-1.90063e+07
-2.213e+07
-1.71372e+07
-2.14709e+07
-1.52875e+07
-2.03865e+07
-1.35177e+07
-1.89949e+07
-1.184e+07
-1.74047e+07
-1.0242e+07
-1.57085e+07
-8.69634e+06
-1.39789e+07
-7.16537e+06
-1.22642e+07
-5.60148e+06
-1.05742e+07
-3.94258e+06
-1.93886e+07
-1.6702e+07
-1.90321e+07
-1.52485e+07
-1.83843e+07
-1.38192e+07
-1.74542e+07
-1.24493e+07
-1.62909e+07
-1.11543e+07
-1.49485e+07
-9.93769e+06
-1.34735e+07
-8.79488e+06
-1.18979e+07
-7.7121e+06
-1.02347e+07
-6.65626e+06
-8.47084e+06
-5.54047e+06
-1.69784e+07
-1.47204e+07
-1.66204e+07
-1.35428e+07
-1.60613e+07
-1.23896e+07
-1.53136e+07
-1.12737e+07
-1.44106e+07
-1.02024e+07
-1.33927e+07
-9.1777e+06
-1.23017e+07
-8.19899e+06
-1.11811e+07
-7.26736e+06
-1.00871e+07
-6.3995e+06
-9.12187e+06
-5.67505e+06
-1.49212e+07
-1.30189e+07
-1.46394e+07
-1.206e+07
-1.41909e+07
-1.11246e+07
-1.36004e+07
-1.02161e+07
-1.28975e+07
-9.33884e+06
-1.21146e+07
-8.49699e+06
-1.12836e+07
-7.69608e+06
-1.04347e+07
-6.94533e+06
-9.58939e+06
-6.25767e+06
-8.73254e+06
-5.63012e+06
-1.31746e+07
-1.15681e+07
-1.29876e+07
-1.07944e+07
-1.26482e+07
-1.00402e+07
-1.21881e+07
-9.30643e+06
-1.16356e+07
-8.59602e+06
-1.10163e+07
-7.91313e+06
-1.03522e+07
-7.26229e+06
-9.65991e+06
-6.64721e+06
-8.94911e+06
-6.06809e+06
-8.23058e+06
-5.52298e+06
-1.17192e+07
-1.03501e+07
-1.16164e+07
-9.73496e+06
-1.13701e+07
-9.13302e+06
-1.10135e+07
-8.54445e+06
-1.0573e+07
-7.97117e+06
-1.00703e+07
-7.41562e+06
-9.5229e+06
-6.87996e+06
-8.94462e+06
-6.36543e+06
-8.34747e+06
-5.87237e+06
-7.74187e+06
-5.40033e+06
-1.05383e+07
-9.35008e+06
-1.05002e+07
-8.86909e+06
-1.03264e+07
-8.39402e+06
-1.00487e+07
-7.92462e+06
-9.69194e+06
-7.46157e+06
-9.27609e+06
-7.006e+06
-8.81732e+06
-6.55944e+06
-8.32882e+06
-6.12339e+06
-7.82149e+06
-5.69928e+06
-7.30446e+06
-5.28841e+06
-9.6153e+06
-8.55521e+06
-9.62412e+06
-8.18677e+06
-9.50303e+06
-7.81809e+06
-9.28211e+06
-7.44714e+06
-8.98555e+06
-7.07217e+06
-8.63337e+06
-6.69469e+06
-8.24109e+06
-6.31681e+06
-7.82075e+06
-5.94062e+06
-7.38171e+06
-5.56836e+06
-6.93139e+06
-5.20325e+06
-8.93756e+06
-7.95622e+06
-8.98124e+06
-7.6854e+06
-8.89414e+06
-7.4124e+06
-8.70632e+06
-7.11977e+06
-8.44758e+06
-6.81222e+06
-8.13793e+06
-6.49409e+06
-7.79188e+06
-6.16811e+06
-7.42036e+06
-5.83576e+06
-7.03122e+06
-5.49773e+06
-6.62917e+06
-5.15606e+06
-8.50886e+06
-7.54877e+06
-8.58157e+06
-7.40697e+06
-8.49129e+06
-7.19242e+06
-8.31329e+06
-6.94907e+06
-8.0724e+06
-6.6884e+06
-7.78528e+06
-6.41504e+06
-7.46529e+06
-6.13112e+06
-7.12333e+06
-5.83623e+06
-6.7678e+06
-5.52501e+06
-6.40229e+06
-5.17965e+06
-8.43015e+06
-7.59268e+06
-8.38451e+06
-7.36392e+06
-8.28155e+06
-7.14492e+06
-8.10405e+06
-6.92183e+06
-7.86562e+06
-6.69206e+06
-7.58129e+06
-6.4578e+06
-7.26357e+06
-6.22391e+06
-6.92311e+06
-5.99723e+06
-6.5711e+06
-5.78715e+06
-6.22556e+06
-5.60761e+06
-5.68985e+06
-4.17931e+06
-5.96862e+06
-4.26654e+06
-6.05615e+06
-4.3654e+06
-6.14376e+06
-4.46718e+06
-6.26907e+06
-4.55134e+06
-6.44569e+06
-4.59617e+06
-6.67886e+06
-4.58055e+06
-6.96456e+06
-4.48906e+06
-7.2766e+06
-4.32618e+06
-7.5111e+06
-4.15564e+06
-4.90177e+06
-3.57199e+06
-4.95743e+06
-3.62854e+06
-4.99444e+06
-3.65704e+06
-5.03033e+06
-3.65999e+06
-5.08401e+06
-3.62363e+06
-5.17018e+06
-3.52974e+06
-5.30121e+06
-3.35933e+06
-5.48537e+06
-3.09627e+06
-5.71712e+06
-2.73389e+06
-5.94156e+06
-2.29138e+06
-4.07686e+06
-3.02454e+06
-4.06716e+06
-3.04288e+06
-4.06521e+06
-3.02568e+06
-4.06212e+06
-2.9712e+06
-4.06474e+06
-2.86896e+06
-4.08319e+06
-2.70423e+06
-4.12884e+06
-2.46057e+06
-4.21252e+06
-2.12236e+06
-4.33894e+06
-1.67872e+06
-4.48709e+06
-1.13229e+06
-3.29817e+06
-2.52463e+06
-3.27517e+06
-2.51286e+06
-3.25335e+06
-2.46641e+06
-3.2259e+06
-2.37995e+06
-3.19513e+06
-2.24443e+06
-3.16719e+06
-2.0478e+06
-3.15043e+06
-1.77623e+06
-3.15433e+06
-1.41565e+06
-3.18655e+06
-954361
-3.24277e+06
-388400
-2.59612e+06
-2.06693e+06
-2.57574e+06
-2.03579e+06
-2.54678e+06
-1.97242e+06
-2.50682e+06
-1.87042e+06
-2.45682e+06
-1.7218e+06
-2.40023e+06
-1.51657e+06
-2.34244e+06
-1.24323e+06
-2.29029e+06
-889625
-2.25063e+06
-444605
-2.22524e+06
98638
-1.97794e+06
-1.64875e+06
-1.96383e+06
-1.60709e+06
-1.9348e+06
-1.53596e+06
-1.89075e+06
-1.4294e+06
-1.83223e+06
-1.28044e+06
-1.76094e+06
-1.08079e+06
-1.67987e+06
-820901
-1.59323e+06
-490513
-1.50578e+06
-79579.7
-1.42034e+06
419717
-1.44046e+06
-1.26748e+06
-1.43254e+06
-1.22159e+06
-1.40703e+06
-1.14928e+06
-1.36452e+06
-1.0455e+06
-1.30523e+06
-904368
-1.22972e+06
-718940
-1.13923e+06
-481330
-1.03582e+06
-182956
-922121
184918
-800168
630055
-976024
-919846
-973393
-873873
-953128
-804906
-915741
-708829
-861103
-580690
-788988
-414704
-699421
-204332
-592892
57550.7
-470359
378356
-332674
765185
-575279
-601768
-577038
-558377
-562822
-495767
-532802
-410583
-486491
-298668
-423107
-155164
-341869
25374.7
-242222
248848
-123934
521428
13125.7
849260
-228482
-308546
-233950
-269404
-226135
-215095
-204845
-142838
-169273
-49097.6
-118237
70262.1
-50429.6
219828
35367
404501
140148
629360
264721
899510
73868.3
-34980.4
65174.7
-1123.71
66449.8
43647.5
78196.6
101706
101500
176129
137833
270521
188847
388832
256170
535187
341255
713760
445322
928673
340779
224528
329190
252449
323871
286887
325590
329930
335677
384346
355834
453392
387948
540589
433901
649522
495412
783675
573935
946338
580688
475956
566408
497516
554439
521068
545804
548501
542071
582397
545153
625835
557118
682131
580014
754571
615717
846198
665814
959683
801502
725707
784604
740611
765837
752833
746524
764093
728511
776887
713936
794290
705034
819641
703975
856196
712740
906832
733002
973872
1.01074e+06
980732
991095
988787
965154
989262
934665
983658
901854
974463
869139
964947
838920
958732
813464
959324
794831
969743
784785
992274
1.21582e+06
1.2487e+06
1.19289e+06
1.24992e+06
1.15892e+06
1.23823e+06
1.11634e+06
1.21475e+06
1.06796e+06
1.1821e+06
1.01654e+06
1.14404e+06
964600
1.10475e+06
914466
1.06823e+06
868285
1.03797e+06
827966
1.01661e+06
1.42465e+06
1.53817e+06
1.39694e+06
1.53324e+06
1.35306e+06
1.50894e+06
1.2967e+06
1.46581e+06
1.23161e+06
1.40726e+06
1.16075e+06
1.33816e+06
1.08651e+06
1.26319e+06
1.01126e+06
1.18693e+06
937309
1.11371e+06
866843
1.04711e+06
1.64704e+06
1.85895e+06
1.61034e+06
1.85055e+06
1.55228e+06
1.81229e+06
1.47947e+06
1.74553e+06
1.39673e+06
1.65823e+06
1.30538e+06
1.55495e+06
1.20764e+06
1.44041e+06
1.1062e+06
1.31982e+06
1.00376e+06
1.19867e+06
902857
1.08249e+06
1.89853e+06
2.22456e+06
1.83936e+06
2.21972e+06
1.75702e+06
2.15466e+06
1.66875e+06
2.0628e+06
1.56716e+06
1.9451e+06
1.453e+06
1.80425e+06
1.32922e+06
1.64485e+06
1.19928e+06
1.47272e+06
1.06657e+06
1.29464e+06
933993
1.11878e+06
2.21326e+06
2.69252e+06
2.0651e+06
2.61669e+06
1.97705e+06
2.54028e+06
1.87181e+06
2.42947e+06
1.74682e+06
2.28177e+06
1.6049e+06
2.10006e+06
1.45007e+06
1.88918e+06
1.28694e+06
1.65513e+06
1.1204e+06
1.40445e+06
954596
1.14089e+06
-8.31469e+06
-4.83369e+06
-7.04809e+06
-3.7676e+06
-5.94821e+06
-2.73619e+06
-4.92058e+06
-1.68323e+06
-3.91421e+06
-593065
-2.89968e+06
533370
-1.85922e+06
1.68839e+06
-782270
2.86209e+06
336642
4.04503e+06
1.49906e+06
5.23014e+06
2.70343e+06
6.41381e+06
3.94588e+06
7.59637e+06
5.22089e+06
8.78194e+06
6.52193e+06
9.97776e+06
7.84193e+06
1.11931e+07
9.17349e+06
1.24374e+07
1.05085e+07
1.37181e+07
1.18365e+07
1.50345e+07
1.31381e+07
1.63644e+07
1.4363e+07
1.75199e+07
-4.39544e+06
-3.22448e+06
-3.98491e+06
-2.39811e+06
-3.41034e+06
-1.53743e+06
-2.74623e+06
-649227
-2.02217e+06
265200
-1.24977e+06
1.20423e+06
-433349
2.16496e+06
425463
3.14369e+06
1.32552e+06
4.1367e+06
2.26498e+06
5.14094e+06
3.24074e+06
6.15462e+06
4.24823e+06
7.17743e+06
5.28157e+06
8.21056e+06
6.33381e+06
9.2565e+06
7.39733e+06
1.03187e+07
8.46447e+06
1.14013e+07
9.52882e+06
1.25095e+07
1.05885e+07
1.36515e+07
1.16556e+07
1.48485e+07
1.26612e+07
1.56832e+07
-2.54286e+06
-1.91882e+06
-2.17079e+06
-1.27936e+06
-1.7271e+06
-592813
-1.22003e+06
129904
-659270
881988
-52205.5
1.65876e+06
596048
2.45651e+06
1.2818e+06
3.27202e+06
2.00195e+06
4.10244e+06
2.75336e+06
4.94527e+06
3.53244e+06
5.7985e+06
4.33493e+06
6.66058e+06
5.15588e+06
7.53037e+06
5.9897e+06
8.40704e+06
6.83029e+06
9.28988e+06
7.67116e+06
1.0178e+07
8.50503e+06
1.10699e+07
9.32218e+06
1.19622e+07
1.01038e+07
1.28451e+07
1.02596e+07
1.35849e+07
-1.41574e+06
-960973
-1.05135e+06
-443119
-657162
112932
-229462
701395
231743
1.31724e+06
724834
1.95626e+06
1.24761e+06
2.61489e+06
1.79766e+06
3.29003e+06
2.37242e+06
3.97888e+06
2.96909e+06
4.67889e+06
3.58452e+06
5.3877e+06
4.21517e+06
6.10307e+06
4.85708e+06
6.82277e+06
5.5059e+06
7.54448e+06
6.1569e+06
8.26556e+06
6.80501e+06
8.98264e+06
7.44489e+06
9.69102e+06
8.07123e+06
1.03836e+07
8.68106e+06
1.10499e+07
9.33941e+06
1.17342e+07
-660142
-279284
-326503
150201
22859.4
607670
390518
1.09032e+06
777689
1.59514e+06
1.18448e+06
2.11916e+06
1.61023e+06
2.65954e+06
2.05372e+06
3.21359e+06
2.51333e+06
3.77871e+06
2.98712e+06
4.35239e+06
3.47284e+06
4.93214e+06
3.96801e+06
5.51546e+06
4.46993e+06
6.09978e+06
4.97578e+06
6.68235e+06
5.48278e+06
7.26027e+06
5.98841e+06
7.8304e+06
6.49094e+06
8.38957e+06
6.9903e+06
8.93526e+06
7.48947e+06
9.46746e+06
7.96353e+06
9.98209e+06
-139688
195663
151459
554204
452597
932830
764690
1.32995e+06
1.08835e+06
1.74368e+06
1.42373e+06
2.17197e+06
1.77056e+06
2.61267e+06
2.12817e+06
3.06358e+06
2.49558e+06
3.52248e+06
2.87153e+06
3.9871e+06
3.25456e+06
4.45516e+06
3.64305e+06
4.9243e+06
4.03526e+06
5.39211e+06
4.42944e+06
5.8561e+06
4.82385e+06
6.31377e+06
5.21688e+06
6.76259e+06
5.60697e+06
7.20006e+06
5.99227e+06
7.62369e+06
6.36942e+06
8.03023e+06
6.73632e+06
8.41683e+06
218327
517849
464225
816283
716950
1.12901e+06
976660
1.45493e+06
1.24344e+06
1.7927e+06
1.51719e+06
2.14081e+06
1.79766e+06
2.49763e+06
2.08435e+06
2.86139e+06
2.3766e+06
3.23027e+06
2.67356e+06
3.60236e+06
2.97426e+06
3.97568e+06
3.27761e+06
4.34821e+06
3.58244e+06
4.71788e+06
3.88752e+06
5.08257e+06
4.19158e+06
5.4401e+06
4.4933e+06
5.78828e+06
4.79127e+06
6.1248e+06
5.084e+06
6.44724e+06
5.37029e+06
6.7531e+06
5.64878e+06
7.03987e+06
460655
728340
662941
974596
869942
1.23088e+06
1.08149e+06
1.49632e+06
1.29739e+06
1.76985e+06
1.51741e+06
2.05031e+06
1.74121e+06
2.33639e+06
1.96836e+06
2.62668e+06
2.19834e+06
2.91971e+06
2.43052e+06
3.2139e+06
2.6642e+06
3.50761e+06
2.89858e+06
3.79917e+06
3.13283e+06
4.08683e+06
3.36603e+06
4.36882e+06
3.59723e+06
4.64331e+06
3.82545e+06
4.90842e+06
4.04971e+06
5.16225e+06
4.26907e+06
5.40283e+06
4.48262e+06
5.62818e+06
4.68945e+06
5.83632e+06
620106
858592
782305
1.0591e+06
947697
1.26646e+06
1.116e+06
1.47992e+06
1.28692e+06
1.69862e+06
1.46015e+06
1.92159e+06
1.63533e+06
2.14779e+06
1.81206e+06
2.37606e+06
1.98989e+06
2.60521e+06
2.16831e+06
2.83395e+06
2.34676e+06
3.06094e+06
2.52465e+06
3.28481e+06
2.70132e+06
3.50414e+06
2.8761e+06
3.71745e+06
3.04827e+06
3.92327e+06
3.21713e+06
4.12009e+06
3.38194e+06
4.30636e+06
3.54202e+06
4.48057e+06
3.69665e+06
4.64116e+06
3.84518e+06
4.78662e+06
720644
932885
846916
1.09311e+06
975255
1.2578e+06
1.10536e+06
1.42631e+06
1.23691e+06
1.5979e+06
1.36959e+06
1.77178e+06
1.50305e+06
1.94706e+06
1.63691e+06
2.12281e+06
1.77078e+06
2.29804e+06
1.90423e+06
2.47171e+06
2.0368e+06
2.64273e+06
2.168e+06
2.80998e+06
2.2973e+06
2.97231e+06
2.42419e+06
3.12854e+06
2.5481e+06
3.2775e+06
2.66848e+06
3.41797e+06
2.78477e+06
3.54878e+06
2.8964e+06
3.66872e+06
3.00282e+06
3.77663e+06
3.1035e+06
3.87136e+06
780137
969994
874653
1.09467e+06
970394
1.22202e+06
1.06708e+06
1.35149e+06
1.16441e+06
1.48243e+06
1.26208e+06
1.61418e+06
1.35977e+06
1.746e+06
1.45714e+06
1.8771e+06
1.55384e+06
2.00668e+06
1.64949e+06
2.13388e+06
1.74371e+06
2.25781e+06
1.83606e+06
2.37755e+06
1.92612e+06
2.49219e+06
2.01344e+06
2.60079e+06
2.09755e+06
2.70239e+06
2.17799e+06
2.79607e+06
2.25429e+06
2.88091e+06
2.32597e+06
2.95598e+06
2.39255e+06
3.02042e+06
2.45358e+06
3.07336e+06
812065
984342
878698
1.07756e+06
945937
1.17214e+06
1.01353e+06
1.26757e+06
1.08122e+06
1.36331e+06
1.14874e+06
1.45879e+06
1.21579e+06
1.55338e+06
1.28209e+06
1.64642e+06
1.34731e+06
1.73724e+06
1.41113e+06
1.82511e+06
1.47318e+06
1.9093e+06
1.5331e+06
1.98907e+06
1.59051e+06
2.06364e+06
1.645e+06
2.13228e+06
1.69615e+06
2.19422e+06
1.74354e+06
2.24872e+06
1.78673e+06
2.29507e+06
1.82528e+06
2.33257e+06
1.85876e+06
2.36057e+06
1.88672e+06
2.37844e+06
826662
986769
868852
1.05203e+06
911204
1.1177e+06
953514
1.18334e+06
995566
1.24849e+06
1.03713e+06
1.31265e+06
1.07797e+06
1.37528e+06
1.11781e+06
1.43582e+06
1.15638e+06
1.49369e+06
1.19339e+06
1.54827e+06
1.2285e+06
1.59893e+06
1.26139e+06
1.64503e+06
1.29168e+06
1.68593e+06
1.31899e+06
1.72099e+06
1.34292e+06
1.7496e+06
1.36305e+06
1.77113e+06
1.37892e+06
1.78502e+06
1.39009e+06
1.79074e+06
1.39611e+06
1.78778e+06
1.39652e+06
1.77572e+06
831696
984992
852391
1.02518e+06
872961
1.06516e+06
893253
1.10457e+06
913102
1.143e+06
932326
1.18004e+06
950726
1.21521e+06
968083
1.24803e+06
984157
1.27798e+06
998682
1.3045e+06
1.01136e+06
1.32704e+06
1.02188e+06
1.34501e+06
1.02989e+06
1.35783e+06
1.03499e+06
1.36491e+06
1.03677e+06
1.36569e+06
1.03478e+06
1.35962e+06
1.02853e+06
1.34621e+06
1.0175e+06
1.325e+06
1.00118e+06
1.29559e+06
979016
1.25768e+06
832970
983822
834627
1.00114e+06
836018
1.01795e+06
837047
1.03397e+06
837606
1.04888e+06
837566
1.06232e+06
836780
1.07389e+06
835077
1.08317e+06
832261
1.08967e+06
828103
1.09288e+06
822345
1.09227e+06
814686
1.08726e+06
804784
1.07728e+06
792249
1.06171e+06
776635
1.03997e+06
757443
1.01149e+06
734111
975731
706020
932213
672497
880547
632822
820457
834610
985188
819221
980986
803574
976305
787637
970969
771361
964761
754678
957416
737498
948616
719709
937983
701171
925086
681712
909438
661123
890499
639144
867678
615463
840337
589699
807797
561395
769347
530009
724262
494896
671824
455301
611360
410352
542284
359056
464163
839087
988076
808259
962510
777347
936847
746379
911079
715362
885162
684284
858947
653121
832206
621839
804641
590383
775891
558666
745520
526560
713011
493884
677760
460393
639064
425761
596122
389568
548032
351281
493793
310223
432326
265546
362493
216194
283157
160856
193278
846870
988572
802047
939963
757498
892099
713276
845396
669366
799822
625829
755291
582761
711714
540262
668973
498403
626884
457221
585176
416706
543457
376793
501201
337353
457716
298179
412130
258973
363362
219320
310097
178658
250764
136231
183507
91017.3
106162
41619.5
16251.4
855389
980052
798692
903633
742675
831309
686837
761446
631495
693902
577069
628960
523917
566981
472325
508283
422514
453088
374649
401498
328845
353462
285167
308747
243628
266896
204182
227187
166724
188571
131078
149609
96991.9
108384
64123.8
62386.5
32019.2
8322.08
47.9632
-58295.9
857722
951834
795564
850813
728951
748023
661891
646775
596057
548987
532300
455999
471160
368895
413039
288621
358263
216024
307096
151857
259741
96757.9
216345
51207.9
176990
15481.1
141701
-10435
110453
-26940.4
83192.9
-34956.1
59881.5
-36089.8
40584.6
-32823.3
25668.6
-28669.2
16261.8
-28111
6.10378e+07
4.0613e+07
5.69467e+07
3.78377e+07
5.15717e+07
3.57668e+07
4.66051e+07
3.2565e+07
4.20974e+07
2.95396e+07
3.7954e+07
2.68259e+07
3.40924e+07
2.425e+07
3.04602e+07
2.17181e+07
2.70183e+07
1.92151e+07
2.3729e+07
1.67142e+07
2.05578e+07
1.4194e+07
1.74725e+07
1.16348e+07
1.44421e+07
9.01687e+06
1.14363e+07
6.31869e+06
8.42388e+06
3.51555e+06
5.37219e+06
577852
2.24561e+06
-2.53171e+06
-996053
-5.86289e+06
-4.4e+06
-9.48677e+06
-8.02413e+06
-1.35129e+07
4.90707e+07
2.59755e+07
4.76713e+07
2.56728e+07
4.5526e+07
2.47475e+07
4.27276e+07
2.42057e+07
3.9863e+07
2.37293e+07
3.66834e+07
2.21338e+07
3.34656e+07
2.00653e+07
3.03649e+07
1.81763e+07
2.73531e+07
1.62821e+07
2.44323e+07
1.43466e+07
2.15967e+07
1.23632e+07
1.88363e+07
1.03212e+07
1.61393e+07
8.20629e+06
1.34939e+07
6.00163e+06
1.08899e+07
3.68789e+06
8.3203e+06
1.24402e+06
5.78358e+06
-1.35154e+06
3.28853e+06
-4.11765e+06
862624
-7.06276e+06
-1.43107e+06
-1.01668e+07
3.24158e+07
1.66384e+07
3.49224e+07
1.692e+07
3.54361e+07
1.71976e+07
3.47163e+07
1.75284e+07
3.33134e+07
1.69608e+07
3.18316e+07
1.70228e+07
2.99585e+07
1.67924e+07
2.76811e+07
1.54999e+07
2.54163e+07
1.41683e+07
2.32209e+07
1.28246e+07
2.10856e+07
1.14583e+07
1.90042e+07
1.00563e+07
1.69729e+07
8.60418e+06
1.49899e+07
7.08739e+06
1.30553e+07
5.49116e+06
1.11712e+07
3.80054e+06
9.34069e+06
2.0002e+06
7.5662e+06
73577.8
5.84479e+06
-1.99954e+06
4.15535e+06
-4.25085e+06
1.26442e+07
1.20165e+07
1.58557e+07
1.20424e+07
1.89752e+07
1.2234e+07
2.20276e+07
1.27805e+07
2.33405e+07
1.3293e+07
2.34001e+07
1.31005e+07
2.31459e+07
1.29979e+07
2.24467e+07
1.28604e+07
2.13129e+07
1.21104e+07
2.01602e+07
1.14285e+07
1.89888e+07
1.07702e+07
1.7807e+07
1.0107e+07
1.66266e+07
9.41976e+06
1.54603e+07
8.69517e+06
1.43219e+07
7.92301e+06
1.32253e+07
7.09467e+06
1.21849e+07
6.20177e+06
1.12163e+07
5.23482e+06
1.0337e+07
4.18172e+06
9.5712e+06
3.02718e+06
-7.16086e+06
8.00627e+06
-3.02645e+06
8.41309e+06
932645
8.88434e+06
4.44018e+06
9.29153e+06
7.99688e+06
9.83183e+06
1.07841e+07
1.01879e+07
1.2447e+07
1.00607e+07
1.37692e+07
1.02787e+07
1.4434e+07
1.03023e+07
1.47731e+07
1.03294e+07
1.48831e+07
1.03525e+07
1.48342e+07
1.03657e+07
1.46799e+07
1.03652e+07
1.44635e+07
1.03494e+07
1.42219e+07
1.0319e+07
1.39884e+07
1.0276e+07
1.3795e+07
1.02241e+07
1.36746e+07
1.01683e+07
1.36629e+07
1.01149e+07
1.3801e+07
1.00714e+07
-1.74993e+07
3.70493e+06
-1.43949e+07
4.39274e+06
-1.11898e+07
5.0248e+06
-7.72829e+06
5.76721e+06
-4.17357e+06
6.6059e+06
-612796
7.50853e+06
2.4535e+06
8.22114e+06
5.00254e+06
8.86872e+06
7.01197e+06
9.41048e+06
8.59954e+06
9.89827e+06
9.85817e+06
1.03615e+07
1.08653e+07
1.08177e+07
1.1686e+07
1.12781e+07
1.23767e+07
1.1752e+07
1.29869e+07
1.22487e+07
1.3562e+07
1.27784e+07
1.41446e+07
1.3354e+07
1.47769e+07
1.39914e+07
1.55023e+07
1.47113e+07
1.63672e+07
1.55404e+07
-1.6445e+07
1.21189e+06
-1.45e+07
2.18096e+06
-1.2333e+07
3.17012e+06
-1.00082e+07
4.18122e+06
-7.55938e+06
5.19604e+06
-5.03544e+06
6.17653e+06
-2.46415e+06
7.08843e+06
-4786.22
7.92058e+06
2.24556e+06
8.69536e+06
4.2575e+06
9.43783e+06
6.03858e+06
1.01698e+07
7.61511e+06
1.09092e+07
9.0223e+06
1.16706e+07
1.0299e+07
1.24672e+07
1.1485e+07
1.33124e+07
1.26202e+07
1.42204e+07
1.37436e+07
1.52079e+07
1.4894e+07
1.62948e+07
1.61092e+07
1.75053e+07
1.74262e+07
1.88702e+07
-1.50294e+07
1073.29
-1.35377e+07
953483
-1.1894e+07
1.91341e+06
-1.01193e+07
2.88639e+06
-8.23025e+06
3.86847e+06
-6.24261e+06
4.84863e+06
-4.17951e+06
5.81319e+06
-2.09269e+06
6.75507e+06
-45677.9
7.67774e+06
1.91621e+06
8.59116e+06
3.76895e+06
9.50812e+06
5.50657e+06
1.04421e+07
7.13648e+06
1.14067e+07
8.67532e+06
1.24154e+07
1.01457e+07
1.34823e+07
1.15736e+07
1.46228e+07
1.29873e+07
1.58536e+07
1.44152e+07
1.71933e+07
1.58849e+07
1.86621e+07
1.74212e+07
2.02807e+07
-1.3987e+07
-1.17057e+06
-1.27765e+07
-254621
-1.14165e+07
665041
-9.93025e+06
1.60116e+06
-8.3349e+06
2.55721e+06
-6.64545e+06
3.531e+06
-4.87859e+06
4.51735e+06
-3.06015e+06
5.51168e+06
-1.22376e+06
6.51284e+06
598531
7.52362e+06
2.38234e+06
8.54999e+06
4.11319e+06
9.60023e+06
5.78629e+06
1.06843e+07
7.40509e+06
1.18135e+07
8.97933e+06
1.30006e+07
1.05232e+07
1.42599e+07
1.20537e+07
1.56072e+07
1.35895e+07
1.706e+07
1.51501e+07
1.86346e+07
1.67546e+07
2.03355e+07
-1.27188e+07
-2.56952e+06
-1.18389e+07
-1.64634e+06
-1.07566e+07
-716848
-9.52125e+06
227789
-8.16221e+06
1.19316e+06
-6.70021e+06
2.18196e+06
-5.15332e+06
3.19439e+06
-3.54124e+06
4.22894e+06
-1.88656e+06
5.2837e+06
-212238
6.3576e+06
1.46166e+06
7.4514e+06
3.12023e+06
8.56819e+06
4.7546e+06
9.71367e+06
6.36166e+06
1.08961e+07
7.94301e+06
1.21264e+07
9.50352e+06
1.3418e+07
1.10498e+07
1.47878e+07
1.25888e+07
1.62593e+07
1.41288e+07
1.78721e+07
1.56889e+07
1.97176e+07
)
;

boundaryField
{
    back
    {
        type            empty;
    }
    front
    {
        type            empty;
    }
    left
    {
        type            zeroGradient;
    }
    hole
    {
        type            zeroGradient;
    }
    down
    {
        type            zeroGradient;
    }
    right
    {
        type            zeroGradient;
    }
    up
    {
        type            zeroGradient;
    }
}


// ************************************************************************* //
