/*--------------------------------*- C++ -*----------------------------------*\
| =========                 |                                                 |
| \\      /  F ield         | OpenFOAM: The Open Source CFD Toolbox           |
|  \\    /   O peration     | Version:  v2012                                 |
|   \\  /    A nd           | Website:  www.openfoam.com                      |
|    \\/     M anipulation  |                                                 |
\*---------------------------------------------------------------------------*/
FoamFile
{
    version     2.0;
    format      ascii;
    class       volScalarField;
    location    "19";
    object      sigmaEq;
}
// * * * * * * * * * * * * * * * * * * * * * * * * * * * * * * * * * * * * * //

dimensions      [1 -1 -2 0 0 0 0];


internalField   nonuniform List<scalar> 
32000
(
2.13097e+08
2.10962e+08
1.94972e+08
1.9703e+08
1.80052e+08
1.81741e+08
1.65337e+08
1.67278e+08
1.51646e+08
1.54011e+08
1.39035e+08
1.41766e+08
1.27458e+08
1.30461e+08
1.16882e+08
1.20071e+08
1.07265e+08
1.10579e+08
9.85635e+07
1.01953e+08
9.07396e+07
9.41562e+07
8.37554e+07
8.71548e+07
7.75764e+07
8.09157e+07
7.21548e+07
7.53814e+07
6.74439e+07
7.05121e+07
6.34022e+07
6.62665e+07
5.99583e+07
6.25803e+07
5.70561e+07
5.9402e+07
5.46468e+07
5.66844e+07
5.26444e+07
5.43534e+07
5.09939e+07
5.23614e+07
4.96655e+07
5.06771e+07
4.85874e+07
4.92362e+07
4.77439e+07
4.80328e+07
4.71362e+07
4.70766e+07
4.67617e+07
4.63675e+07
4.66705e+07
4.59663e+07
4.68863e+07
4.59153e+07
4.74653e+07
4.62809e+07
4.84466e+07
4.71159e+07
4.98454e+07
4.84426e+07
5.16451e+07
5.02426e+07
5.37973e+07
5.24549e+07
5.62235e+07
5.50018e+07
5.88264e+07
5.77494e+07
6.15455e+07
6.06553e+07
6.41637e+07
6.3575e+07
6.66512e+07
6.63046e+07
6.59603e+07
6.72113e+07
6.22744e+07
6.34701e+07
2.14851e+08
2.10458e+08
1.95951e+08
1.95824e+08
1.79973e+08
1.80589e+08
1.64986e+08
1.66146e+08
1.51364e+08
1.5284e+08
1.38882e+08
1.40579e+08
1.2741e+08
1.29293e+08
1.16931e+08
1.18938e+08
1.07434e+08
1.0948e+08
9.88914e+07
1.00881e+08
9.12647e+07
9.31119e+07
8.45184e+07
8.61422e+07
7.86145e+07
7.99379e+07
7.34891e+07
7.44492e+07
6.90834e+07
6.96355e+07
6.53491e+07
6.54561e+07
6.22114e+07
6.18534e+07
5.95818e+07
5.87633e+07
5.74024e+07
5.61395e+07
5.56037e+07
5.39234e+07
5.41054e+07
5.20501e+07
5.28713e+07
5.04806e+07
5.1853e+07
4.9175e+07
5.10263e+07
4.81068e+07
5.04118e+07
4.72809e+07
5.00054e+07
4.67059e+07
4.98549e+07
4.64187e+07
5.00049e+07
4.6466e+07
5.04981e+07
4.68931e+07
5.13786e+07
4.77452e+07
5.26405e+07
4.90318e+07
5.4267e+07
5.07375e+07
5.62016e+07
5.28179e+07
5.83612e+07
5.52174e+07
6.06356e+07
5.78059e+07
6.29148e+07
6.05577e+07
6.51297e+07
6.34057e+07
6.73807e+07
6.61698e+07
6.7523e+07
6.78998e+07
6.42151e+07
6.47231e+07
2.14369e+08
2.1078e+08
1.95748e+08
1.95205e+08
1.7995e+08
1.7958e+08
1.6491e+08
1.65157e+08
1.51216e+08
1.52007e+08
1.38741e+08
1.39911e+08
1.27335e+08
1.28785e+08
1.16934e+08
1.18598e+08
1.07508e+08
1.09322e+08
9.90337e+07
1.00924e+08
9.14752e+07
9.33591e+07
8.47921e+07
8.65902e+07
7.89506e+07
8.0587e+07
7.39079e+07
7.53126e+07
6.95945e+07
7.07069e+07
6.59358e+07
6.67195e+07
6.28726e+07
6.33047e+07
6.03229e+07
6.03896e+07
5.81986e+07
5.79048e+07
5.6439e+07
5.57991e+07
5.49766e+07
5.39985e+07
5.37535e+07
5.24472e+07
5.27534e+07
5.11149e+07
5.19501e+07
4.99643e+07
5.13526e+07
4.90017e+07
5.09976e+07
4.8253e+07
5.09075e+07
4.7745e+07
5.11293e+07
4.75456e+07
5.16809e+07
4.77102e+07
5.25827e+07
4.82906e+07
5.38124e+07
4.93098e+07
5.53371e+07
5.07652e+07
5.70985e+07
5.26059e+07
5.90329e+07
5.47876e+07
6.10534e+07
5.71798e+07
6.31339e+07
5.97524e+07
6.51972e+07
6.24728e+07
6.72672e+07
6.53531e+07
6.90497e+07
6.79802e+07
6.65679e+07
6.69632e+07
2.14406e+08
2.09608e+08
1.94546e+08
1.93838e+08
1.78425e+08
1.78078e+08
1.63483e+08
1.63631e+08
1.49981e+08
1.50574e+08
1.37703e+08
1.38664e+08
1.26502e+08
1.27779e+08
1.16322e+08
1.17859e+08
1.07131e+08
1.08867e+08
9.88996e+07
1.00765e+08
9.15972e+07
9.35253e+07
8.51866e+07
8.71021e+07
7.96156e+07
8.14426e+07
7.48304e+07
7.65038e+07
7.07769e+07
7.22455e+07
6.73802e+07
6.85925e+07
6.45469e+07
6.54617e+07
6.21951e+07
6.28001e+07
6.02529e+07
6.053e+07
5.86268e+07
5.85435e+07
5.72476e+07
5.6792e+07
5.6082e+07
5.52198e+07
5.50875e+07
5.377e+07
5.42614e+07
5.24429e+07
5.36129e+07
5.12341e+07
5.31641e+07
5.01846e+07
5.29499e+07
4.93638e+07
5.29998e+07
4.88397e+07
5.33358e+07
4.86909e+07
5.3959e+07
4.89665e+07
5.48538e+07
4.96915e+07
5.60009e+07
5.08556e+07
5.7358e+07
5.24015e+07
5.8897e+07
5.42871e+07
6.05612e+07
5.63898e+07
6.2364e+07
5.87139e+07
6.42242e+07
6.11922e+07
6.63627e+07
6.397e+07
6.84726e+07
6.66335e+07
6.87699e+07
6.86897e+07
2.13289e+08
2.07664e+08
1.92929e+08
1.91665e+08
1.76416e+08
1.75867e+08
1.61348e+08
1.61511e+08
1.47918e+08
1.4862e+08
1.35829e+08
1.36934e+08
1.24881e+08
1.26328e+08
1.15002e+08
1.16744e+08
1.06149e+08
1.08132e+08
9.82796e+07
1.00442e+08
9.13529e+07
9.36242e+07
8.53267e+07
8.76394e+07
8.01558e+07
8.24481e+07
7.57772e+07
7.7982e+07
7.21041e+07
7.41489e+07
6.90435e+07
7.08787e+07
6.65179e+07
6.81009e+07
6.44294e+07
6.56953e+07
6.26665e+07
6.3557e+07
6.11546e+07
6.16245e+07
5.98374e+07
5.98105e+07
5.86547e+07
5.80585e+07
5.7594e+07
5.63586e+07
5.66535e+07
5.47012e+07
5.58455e+07
5.31389e+07
5.52025e+07
5.1739e+07
5.47572e+07
5.05868e+07
5.45332e+07
4.9776e+07
5.45577e+07
4.93802e+07
5.48326e+07
4.94428e+07
5.53665e+07
4.99627e+07
5.61521e+07
5.09216e+07
5.71595e+07
5.22438e+07
5.83837e+07
5.38861e+07
5.97779e+07
5.57572e+07
6.13465e+07
5.78192e+07
6.30721e+07
6.00549e+07
6.49964e+07
6.24879e+07
6.7233e+07
6.51503e+07
6.93067e+07
6.74213e+07
2.11125e+08
2.04814e+08
1.9051e+08
1.88719e+08
1.73779e+08
1.72978e+08
1.58668e+08
1.58795e+08
1.45322e+08
1.46158e+08
1.33417e+08
1.34787e+08
1.22737e+08
1.24547e+08
1.13187e+08
1.15366e+08
1.04711e+08
1.07192e+08
9.72626e+07
9.99798e+07
9.07965e+07
9.36844e+07
8.52575e+07
8.82427e+07
8.05713e+07
8.35711e+07
7.66476e+07
7.95811e+07
7.33963e+07
7.61957e+07
7.07276e+07
7.3312e+07
6.85172e+07
7.07892e+07
6.66373e+07
6.8512e+07
6.50032e+07
6.63989e+07
6.35422e+07
6.43518e+07
6.21771e+07
6.2306e+07
6.08848e+07
6.02459e+07
5.96563e+07
5.81694e+07
5.84994e+07
5.61367e+07
5.74481e+07
5.42247e+07
5.65361e+07
5.25322e+07
5.57976e+07
5.11647e+07
5.528e+07
5.02098e+07
5.5015e+07
4.97105e+07
5.50164e+07
4.96843e+07
5.53067e+07
5.01027e+07
5.58776e+07
5.09378e+07
5.66922e+07
5.20989e+07
5.77472e+07
5.35354e+07
5.89948e+07
5.52089e+07
6.04067e+07
5.70169e+07
6.20402e+07
5.89995e+07
6.38065e+07
6.11838e+07
6.58376e+07
6.34617e+07
6.79506e+07
6.55888e+07
2.07951e+08
2.01156e+08
1.87373e+08
1.85046e+08
1.70549e+08
1.69444e+08
1.55483e+08
1.55512e+08
1.4228e+08
1.43205e+08
1.30601e+08
1.32225e+08
1.20219e+08
1.22426e+08
1.1103e+08
1.13735e+08
1.02976e+08
1.06098e+08
9.59965e+07
9.9452e+07
9.00275e+07
9.37251e+07
8.49899e+07
8.88316e+07
8.07925e+07
8.4675e+07
7.73357e+07
8.11558e+07
7.45086e+07
7.81468e+07
7.21674e+07
7.54956e+07
7.01705e+07
7.30688e+07
6.84137e+07
7.07654e+07
6.68091e+07
6.84841e+07
6.52673e+07
6.61487e+07
6.375e+07
6.37462e+07
6.22477e+07
6.129e+07
6.07655e+07
5.88475e+07
5.93409e+07
5.65099e+07
5.80154e+07
5.43867e+07
5.68399e+07
5.25902e+07
5.58799e+07
5.12093e+07
5.51871e+07
5.02796e+07
5.47835e+07
4.98268e+07
5.46855e+07
4.98199e+07
5.4906e+07
5.02061e+07
5.54139e+07
5.09519e+07
5.61544e+07
5.19734e+07
5.71179e+07
5.32052e+07
5.82927e+07
5.46562e+07
5.95929e+07
5.62671e+07
6.10617e+07
5.79892e+07
6.27819e+07
5.98794e+07
6.45515e+07
6.19167e+07
6.6479e+07
6.36697e+07
2.03887e+08
1.96677e+08
1.83545e+08
1.80639e+08
1.66759e+08
1.65266e+08
1.51842e+08
1.51663e+08
1.38864e+08
1.39766e+08
1.27469e+08
1.2926e+08
1.17425e+08
1.19984e+08
1.08628e+08
1.11855e+08
1.01008e+08
1.04803e+08
9.44956e+07
9.87488e+07
8.90101e+07
9.35972e+07
8.44569e+07
8.92381e+07
8.07242e+07
8.55458e+07
7.76796e+07
8.23751e+07
7.51678e+07
7.95678e+07
7.30321e+07
7.69729e+07
7.11405e+07
7.44658e+07
6.93848e+07
7.19433e+07
6.76704e+07
6.93318e+07
6.59422e+07
6.66186e+07
6.4189e+07
6.38374e+07
6.24182e+07
6.10648e+07
6.06728e+07
5.84078e+07
5.90091e+07
5.59824e+07
5.7499e+07
5.38994e+07
5.6221e+07
5.2238e+07
5.52336e+07
5.10243e+07
5.45642e+07
5.02653e+07
5.42191e+07
4.99384e+07
5.41903e+07
4.99817e+07
5.44579e+07
5.03458e+07
5.49768e+07
5.09996e+07
5.56889e+07
5.18809e+07
5.65809e+07
5.29253e+07
5.76546e+07
5.41518e+07
5.88735e+07
5.55463e+07
6.01979e+07
5.70443e+07
6.1687e+07
5.86579e+07
6.34324e+07
6.0414e+07
6.51406e+07
6.20607e+07
1.98897e+08
1.91398e+08
1.79017e+08
1.7553e+08
1.62409e+08
1.60466e+08
1.47747e+08
1.47258e+08
1.35076e+08
1.35828e+08
1.24031e+08
1.25851e+08
1.1437e+08
1.1715e+08
1.05983e+08
1.09625e+08
9.87921e+07
1.03181e+08
9.27194e+07
9.77105e+07
8.76721e+07
9.3089e+07
8.35348e+07
8.9171e+07
8.01635e+07
8.57938e+07
7.73937e+07
8.27912e+07
7.50576e+07
8.0002e+07
7.29967e+07
7.7282e+07
7.10762e+07
7.45233e+07
6.9192e+07
7.16618e+07
6.72746e+07
6.86874e+07
6.5301e+07
6.56515e+07
6.32893e+07
6.2648e+07
6.12925e+07
5.97935e+07
5.93887e+07
5.72069e+07
5.767e+07
5.49864e+07
5.6219e+07
5.31916e+07
5.50881e+07
5.1833e+07
5.42942e+07
5.0893e+07
5.3828e+07
5.0343e+07
5.36609e+07
5.01331e+07
5.37632e+07
5.02069e+07
5.40995e+07
5.05291e+07
5.4633e+07
5.10805e+07
5.53161e+07
5.18224e+07
5.61366e+07
5.27027e+07
5.71099e+07
5.37141e+07
5.8217e+07
5.489e+07
5.9415e+07
5.62012e+07
6.07414e+07
5.75746e+07
6.22305e+07
5.90618e+07
6.39095e+07
6.05243e+07
1.931e+08
1.85367e+08
1.73825e+08
1.69752e+08
1.57531e+08
1.55069e+08
1.43232e+08
1.42311e+08
1.3095e+08
1.31395e+08
1.20309e+08
1.21981e+08
1.11058e+08
1.13874e+08
1.03079e+08
1.06943e+08
9.6285e+07
1.01063e+08
9.05888e+07
9.60931e+07
8.58809e+07
9.18725e+07
8.20243e+07
8.82262e+07
7.88578e+07
8.49779e+07
7.62077e+07
8.19581e+07
7.39003e+07
7.9017e+07
7.17769e+07
7.60391e+07
6.97096e+07
7.2964e+07
6.76129e+07
6.97964e+07
6.5453e+07
6.66013e+07
6.32559e+07
6.34861e+07
6.10917e+07
6.0572e+07
5.90634e+07
5.79719e+07
5.72754e+07
5.57603e+07
5.58011e+07
5.39697e+07
5.4673e+07
5.25878e+07
5.38846e+07
5.15771e+07
5.34042e+07
5.08994e+07
5.31928e+07
5.05163e+07
5.32143e+07
5.03802e+07
5.34317e+07
5.04599e+07
5.38193e+07
5.07321e+07
5.43542e+07
5.11846e+07
5.50022e+07
5.17945e+07
5.57542e+07
5.25259e+07
5.66247e+07
5.33676e+07
5.76063e+07
5.43265e+07
5.87059e+07
5.54247e+07
5.98765e+07
5.66479e+07
6.11985e+07
5.79077e+07
6.26591e+07
5.91396e+07
1.86511e+08
1.78631e+08
1.67943e+08
1.63365e+08
1.52099e+08
1.49134e+08
1.38266e+08
1.36867e+08
1.26444e+08
1.26478e+08
1.16253e+08
1.17619e+08
1.07431e+08
1.10061e+08
9.98441e+07
1.03643e+08
9.33977e+07
9.82057e+07
8.79862e+07
9.35749e+07
8.34858e+07
8.95668e+07
7.97545e+07
8.60003e+07
7.66332e+07
8.27013e+07
7.39502e+07
7.9516e+07
7.15359e+07
7.63309e+07
6.92353e+07
7.30914e+07
6.69372e+07
6.98099e+07
6.45986e+07
6.65657e+07
6.22557e+07
6.34704e+07
6.00063e+07
6.06437e+07
5.79734e+07
5.81742e+07
5.62537e+07
5.6106e+07
5.48962e+07
5.44412e+07
5.39007e+07
5.31414e+07
5.32279e+07
5.21557e+07
5.28243e+07
5.14434e+07
5.26471e+07
5.09721e+07
5.26614e+07
5.07074e+07
5.28329e+07
5.06263e+07
5.31375e+07
5.07081e+07
5.35606e+07
5.09328e+07
5.40887e+07
5.12981e+07
5.4699e+07
5.17949e+07
5.53907e+07
5.23948e+07
5.61712e+07
5.30893e+07
5.7037e+07
5.38674e+07
5.79984e+07
5.47698e+07
5.90704e+07
5.58035e+07
6.02385e+07
5.69132e+07
6.1531e+07
5.79546e+07
1.79219e+08
1.7127e+08
1.61384e+08
1.56431e+08
1.46081e+08
1.42706e+08
1.32785e+08
1.30949e+08
1.2147e+08
1.21068e+08
1.11754e+08
1.12696e+08
1.03368e+08
1.05586e+08
9.61635e+07
9.95436e+07
9.00165e+07
9.43732e+07
8.48037e+07
8.98824e+07
8.04009e+07
8.58915e+07
7.66776e+07
8.22332e+07
7.34885e+07
7.87585e+07
7.06623e+07
7.5352e+07
6.80153e+07
7.19669e+07
6.54213e+07
6.86338e+07
6.28425e+07
6.54387e+07
6.03448e+07
6.24928e+07
5.80594e+07
5.98919e+07
5.6114e+07
5.76894e+07
5.4574e+07
5.58939e+07
5.34447e+07
5.44695e+07
5.26795e+07
5.3352e+07
5.22052e+07
5.24822e+07
5.19532e+07
5.18217e+07
5.18791e+07
5.13464e+07
5.19526e+07
5.10354e+07
5.2147e+07
5.08704e+07
5.24411e+07
5.08338e+07
5.28188e+07
5.09096e+07
5.32715e+07
5.1095e+07
5.37925e+07
5.14003e+07
5.43732e+07
5.18077e+07
5.50156e+07
5.2292e+07
5.57136e+07
5.28544e+07
5.64752e+07
5.34963e+07
5.73253e+07
5.42264e+07
5.82859e+07
5.509e+07
5.93291e+07
5.6057e+07
6.04828e+07
5.69431e+07
1.71271e+08
1.63342e+08
1.54135e+08
1.48991e+08
1.39415e+08
1.35805e+08
1.26677e+08
1.24543e+08
1.15875e+08
1.15101e+08
1.06642e+08
1.07114e+08
9.87025e+07
1.00306e+08
9.18746e+07
9.44589e+07
8.60153e+07
8.93769e+07
8.09969e+07
8.48798e+07
7.66968e+07
8.07956e+07
7.29762e+07
7.69659e+07
6.96566e+07
7.32809e+07
6.65413e+07
6.9724e+07
6.35063e+07
6.63452e+07
6.05509e+07
6.32416e+07
5.78085e+07
6.05213e+07
5.54603e+07
5.82489e+07
5.36217e+07
5.64242e+07
5.23027e+07
5.50025e+07
5.14452e+07
5.39043e+07
5.09533e+07
5.30477e+07
5.0725e+07
5.23741e+07
5.06796e+07
5.1853e+07
5.07711e+07
5.14672e+07
5.0972e+07
5.12023e+07
5.12593e+07
5.10425e+07
5.16118e+07
5.09712e+07
5.20117e+07
5.09778e+07
5.24506e+07
5.10688e+07
5.29286e+07
5.12481e+07
5.34552e+07
5.15083e+07
5.40197e+07
5.18299e+07
5.46126e+07
5.22143e+07
5.52414e+07
5.26662e+07
5.59208e+07
5.31919e+07
5.66692e+07
5.37835e+07
5.75223e+07
5.45005e+07
5.84753e+07
5.53145e+07
5.95199e+07
5.60762e+07
1.62705e+08
1.54876e+08
1.46193e+08
1.41034e+08
1.32023e+08
1.28377e+08
1.19808e+08
1.17553e+08
1.09489e+08
1.08452e+08
1.00719e+08
1.00714e+08
9.32243e+07
9.40747e+07
8.68221e+07
8.83279e+07
8.13556e+07
8.32795e+07
7.6669e+07
7.8737e+07
7.25828e+07
7.45206e+07
6.88534e+07
7.05206e+07
6.52417e+07
6.67463e+07
6.16594e+07
6.32716e+07
5.81943e+07
6.02285e+07
5.51116e+07
5.77264e+07
5.26413e+07
5.57893e+07
5.08642e+07
5.43574e+07
4.97142e+07
5.33287e+07
4.90647e+07
5.25876e+07
4.87881e+07
5.20434e+07
4.87733e+07
5.16378e+07
4.89311e+07
5.13388e+07
4.92087e+07
5.11301e+07
4.95736e+07
5.09965e+07
5.00001e+07
5.09219e+07
5.04633e+07
5.08908e+07
5.09416e+07
5.08987e+07
5.14293e+07
5.09591e+07
5.19333e+07
5.10852e+07
5.24584e+07
5.12677e+07
5.29968e+07
5.1491e+07
5.35407e+07
5.17573e+07
5.40988e+07
5.20764e+07
5.46836e+07
5.24515e+07
5.53036e+07
5.28796e+07
5.59813e+07
5.33699e+07
5.67565e+07
5.39744e+07
5.76225e+07
5.4683e+07
5.85896e+07
5.53308e+07
1.53497e+08
1.45838e+08
1.37522e+08
1.32476e+08
1.23818e+08
1.20278e+08
1.12054e+08
1.09794e+08
1.02157e+08
1.00923e+08
9.38319e+07
9.33563e+07
8.68456e+07
8.68622e+07
8.09973e+07
8.12188e+07
7.60766e+07
7.61811e+07
7.18095e+07
7.1536e+07
6.78669e+07
6.71917e+07
6.39267e+07
6.32048e+07
5.99044e+07
5.96824e+07
5.60217e+07
5.67744e+07
5.27072e+07
5.45535e+07
5.01714e+07
5.29755e+07
4.84193e+07
5.19164e+07
4.73281e+07
5.12208e+07
4.67372e+07
5.07589e+07
4.64944e+07
5.04667e+07
4.65464e+07
5.03082e+07
4.68183e+07
5.02506e+07
4.72399e+07
5.02644e+07
4.77603e+07
5.03106e+07
4.83322e+07
5.037e+07
4.89305e+07
5.04321e+07
4.95249e+07
5.04992e+07
5.01053e+07
5.0598e+07
5.06809e+07
5.07373e+07
5.12532e+07
5.0903e+07
5.18141e+07
5.10823e+07
5.23566e+07
5.12849e+07
5.28931e+07
5.15284e+07
5.34372e+07
5.18149e+07
5.39951e+07
5.21408e+07
5.45705e+07
5.25138e+07
5.51901e+07
5.29429e+07
5.59028e+07
5.3476e+07
5.67268e+07
5.40958e+07
5.7635e+07
5.46675e+07
1.43576e+08
1.36136e+08
1.28073e+08
1.23158e+08
1.14739e+08
1.11301e+08
1.03339e+08
1.01052e+08
9.38289e+07
9.23614e+07
8.60035e+07
8.49765e+07
7.96147e+07
7.86042e+07
7.43992e+07
7.29164e+07
6.99712e+07
6.76928e+07
6.57758e+07
6.29596e+07
6.14425e+07
5.88774e+07
5.73553e+07
5.55837e+07
5.35418e+07
5.31475e+07
5.05495e+07
5.14635e+07
4.84228e+07
5.03491e+07
4.69608e+07
4.9624e+07
4.59755e+07
4.91705e+07
4.53671e+07
4.89186e+07
4.51045e+07
4.88071e+07
4.50292e+07
4.88171e+07
4.51822e+07
4.89582e+07
4.55387e+07
4.91783e+07
4.60557e+07
4.93738e+07
4.66392e+07
4.95413e+07
4.72476e+07
4.96979e+07
4.78933e+07
4.98404e+07
4.85281e+07
5.00067e+07
4.91646e+07
5.01873e+07
4.97907e+07
5.03589e+07
5.03945e+07
5.05135e+07
5.09584e+07
5.06734e+07
5.15009e+07
5.08706e+07
5.20381e+07
5.1104e+07
5.25723e+07
5.13614e+07
5.31081e+07
5.16457e+07
5.36627e+07
5.19774e+07
5.42654e+07
5.2383e+07
5.49516e+07
5.28839e+07
5.57352e+07
5.34624e+07
5.66051e+07
5.39941e+07
1.32854e+08
1.25664e+08
1.17825e+08
1.1292e+08
1.04733e+08
1.01256e+08
9.35977e+07
9.1173e+07
8.45029e+07
8.26459e+07
7.7241e+07
7.53167e+07
7.15111e+07
6.88169e+07
6.67069e+07
6.30946e+07
6.22119e+07
5.82837e+07
5.72405e+07
5.47162e+07
5.27003e+07
5.21914e+07
4.94137e+07
5.01494e+07
4.73556e+07
4.86278e+07
4.60828e+07
4.75888e+07
4.52878e+07
4.68897e+07
4.48163e+07
4.6438e+07
4.45559e+07
4.61601e+07
4.43994e+07
4.60147e+07
4.42071e+07
4.63127e+07
4.43334e+07
4.68106e+07
4.46249e+07
4.71927e+07
4.49677e+07
4.75466e+07
4.53487e+07
4.79492e+07
4.58591e+07
4.82968e+07
4.64561e+07
4.86119e+07
4.70483e+07
4.89869e+07
4.76805e+07
4.93215e+07
4.83187e+07
4.95786e+07
4.89356e+07
4.97883e+07
4.95051e+07
4.99618e+07
5.00625e+07
5.01656e+07
5.06137e+07
5.03844e+07
5.1149e+07
5.06006e+07
5.16634e+07
5.08163e+07
5.21697e+07
5.10605e+07
5.26987e+07
5.13709e+07
5.32801e+07
5.17603e+07
5.39334e+07
5.22272e+07
5.46737e+07
5.27679e+07
5.5504e+07
5.32949e+07
1.2129e+08
1.14379e+08
1.06682e+08
1.01699e+08
9.36259e+07
9.01012e+07
8.27392e+07
8.01003e+07
7.41803e+07
7.15679e+07
6.78001e+07
6.44226e+07
6.28125e+07
5.88212e+07
5.69094e+07
5.51476e+07
5.20558e+07
5.25236e+07
4.86949e+07
4.96012e+07
4.63099e+07
4.74913e+07
4.44842e+07
4.60189e+07
4.31122e+07
4.48313e+07
4.21484e+07
4.38967e+07
4.15458e+07
4.3227e+07
4.126e+07
4.28122e+07
4.12598e+07
4.26426e+07
4.15498e+07
4.27309e+07
4.20755e+07
4.29473e+07
4.27442e+07
4.3303e+07
4.34313e+07
4.37816e+07
4.40963e+07
4.43083e+07
4.46658e+07
4.48902e+07
4.4947e+07
4.59483e+07
4.54297e+07
4.65832e+07
4.59284e+07
4.71201e+07
4.64829e+07
4.75764e+07
4.70718e+07
4.8013e+07
4.7669e+07
4.83624e+07
4.82451e+07
4.8752e+07
4.88233e+07
4.9099e+07
4.93747e+07
4.93739e+07
4.98883e+07
4.95962e+07
5.03797e+07
4.98204e+07
5.08903e+07
5.01105e+07
5.1437e+07
5.04566e+07
5.20215e+07
5.08424e+07
5.2655e+07
5.12858e+07
5.3359e+07
5.18043e+07
5.41571e+07
5.23482e+07
1.08722e+08
1.02273e+08
9.43766e+07
8.95523e+07
8.14119e+07
7.78798e+07
7.12708e+07
6.80726e+07
6.43293e+07
6.06372e+07
5.80562e+07
5.64757e+07
5.33843e+07
5.36983e+07
4.97533e+07
5.00794e+07
4.68189e+07
4.7753e+07
4.43577e+07
4.57259e+07
4.2312e+07
4.38896e+07
4.06702e+07
4.23642e+07
3.94233e+07
4.11545e+07
3.8548e+07
4.02318e+07
3.80135e+07
3.95775e+07
3.77863e+07
3.91839e+07
3.78358e+07
3.90474e+07
3.81322e+07
3.91597e+07
3.86293e+07
3.94281e+07
3.92383e+07
3.97966e+07
3.99071e+07
4.02704e+07
4.06594e+07
4.08455e+07
4.15908e+07
4.15108e+07
4.26496e+07
4.22272e+07
4.35876e+07
4.30066e+07
4.43969e+07
4.37924e+07
4.50826e+07
4.45987e+07
4.55893e+07
4.55975e+07
4.60201e+07
4.61867e+07
4.64946e+07
4.66895e+07
4.70348e+07
4.71248e+07
4.7597e+07
4.75178e+07
4.81631e+07
4.78997e+07
4.87041e+07
4.83336e+07
4.92408e+07
4.87364e+07
4.98032e+07
4.91205e+07
5.03731e+07
4.95055e+07
5.09714e+07
4.99395e+07
5.16403e+07
5.04754e+07
5.24079e+07
5.10677e+07
9.5122e+07
8.93207e+07
8.13266e+07
7.66433e+07
6.93272e+07
6.54452e+07
6.12648e+07
5.8114e+07
5.59827e+07
5.56471e+07
5.20464e+07
5.16147e+07
4.86701e+07
4.88362e+07
4.57042e+07
4.63252e+07
4.30973e+07
4.40433e+07
4.08086e+07
4.20359e+07
3.88411e+07
4.02892e+07
3.72196e+07
3.88034e+07
3.59643e+07
3.75942e+07
3.50758e+07
3.66696e+07
3.45359e+07
3.60261e+07
3.43157e+07
3.56536e+07
3.43811e+07
3.55336e+07
3.46898e+07
3.56286e+07
3.51896e+07
3.58931e+07
3.5825e+07
3.62912e+07
3.65566e+07
3.68091e+07
3.73684e+07
3.74477e+07
3.82491e+07
3.82038e+07
3.91538e+07
3.8945e+07
4.00156e+07
3.96902e+07
4.08644e+07
4.04431e+07
4.18078e+07
4.12196e+07
4.28653e+07
4.20543e+07
4.37633e+07
4.28868e+07
4.45264e+07
4.37062e+07
4.51786e+07
4.4511e+07
4.56767e+07
4.52256e+07
4.60378e+07
4.5708e+07
4.64995e+07
4.61712e+07
4.70284e+07
4.66314e+07
4.75923e+07
4.71032e+07
4.81837e+07
4.76017e+07
4.88234e+07
4.81844e+07
4.95366e+07
4.8821e+07
5.03048e+07
4.94844e+07
8.21195e+07
7.58271e+07
6.92963e+07
6.41165e+07
5.95653e+07
5.83003e+07
5.51555e+07
5.34935e+07
5.13968e+07
5.02778e+07
4.80933e+07
4.75669e+07
4.50817e+07
4.502e+07
4.229e+07
4.26743e+07
3.97359e+07
4.05048e+07
3.74591e+07
3.85397e+07
3.54971e+07
3.68159e+07
3.38781e+07
3.53513e+07
3.26182e+07
3.41559e+07
3.17193e+07
3.3237e+07
3.11683e+07
3.25963e+07
3.09398e+07
3.22253e+07
3.09981e+07
3.21031e+07
3.12997e+07
3.21965e+07
3.17958e+07
3.2471e+07
3.24409e+07
3.28989e+07
3.32004e+07
3.34583e+07
3.40497e+07
3.41271e+07
3.49595e+07
3.48738e+07
3.58947e+07
3.56576e+07
3.68285e+07
3.64665e+07
3.77569e+07
3.73055e+07
3.86789e+07
3.81743e+07
3.95638e+07
3.8998e+07
4.03803e+07
3.97885e+07
4.11642e+07
4.05554e+07
4.19967e+07
4.13282e+07
4.28879e+07
4.21246e+07
4.36564e+07
4.28999e+07
4.43475e+07
4.36678e+07
4.50037e+07
4.44297e+07
4.56197e+07
4.50979e+07
4.61014e+07
4.5653e+07
4.65905e+07
4.62437e+07
4.71882e+07
4.68929e+07
4.78643e+07
4.75689e+07
7.05064e+07
6.34328e+07
6.07085e+07
5.78322e+07
5.4969e+07
5.27583e+07
5.0743e+07
4.92546e+07
4.74414e+07
4.63731e+07
4.44653e+07
4.38479e+07
4.16501e+07
4.14869e+07
3.89885e+07
3.92592e+07
3.65171e+07
3.7178e+07
3.42838e+07
3.52688e+07
3.23345e+07
3.35646e+07
3.07058e+07
3.20963e+07
2.94217e+07
3.0887e+07
2.84914e+07
2.99508e+07
2.79084e+07
2.92919e+07
2.76521e+07
2.89033e+07
2.76894e+07
2.8767e+07
2.79785e+07
2.88558e+07
2.84737e+07
2.91398e+07
2.91312e+07
2.95899e+07
2.99129e+07
3.01782e+07
3.07852e+07
3.08752e+07
3.17169e+07
3.16473e+07
3.26805e+07
3.24692e+07
3.36564e+07
3.33247e+07
3.46345e+07
3.42034e+07
3.56017e+07
3.50918e+07
3.6541e+07
3.59675e+07
3.74426e+07
3.68281e+07
3.83082e+07
3.76756e+07
3.91347e+07
3.85005e+07
3.99041e+07
3.92855e+07
4.06133e+07
4.00395e+07
4.12906e+07
4.07743e+07
4.19795e+07
4.15203e+07
4.27256e+07
4.22784e+07
4.34388e+07
4.30308e+07
4.41148e+07
4.38114e+07
4.47895e+07
4.46507e+07
4.54716e+07
4.55682e+07
6.06184e+07
5.64148e+07
5.52486e+07
5.20139e+07
5.06064e+07
4.84152e+07
4.69835e+07
4.55395e+07
4.39282e+07
4.29931e+07
4.11322e+07
4.06116e+07
3.84753e+07
3.83488e+07
3.59403e+07
3.61945e+07
3.35551e+07
3.41603e+07
3.13653e+07
3.22719e+07
2.94196e+07
3.05628e+07
2.77624e+07
2.9068e+07
2.64276e+07
2.78184e+07
2.54355e+07
2.68361e+07
2.47899e+07
2.61319e+07
2.44781e+07
2.57039e+07
2.44724e+07
2.55383e+07
2.47337e+07
2.56117e+07
2.52176e+07
2.58953e+07
2.5879e+07
2.63574e+07
2.66762e+07
2.69652e+07
2.75717e+07
2.76858e+07
2.85328e+07
2.84881e+07
2.95319e+07
2.93473e+07
3.0548e+07
3.02445e+07
3.15647e+07
3.11637e+07
3.25681e+07
3.20874e+07
3.35463e+07
3.30023e+07
3.44917e+07
3.39008e+07
3.54008e+07
3.47793e+07
3.62689e+07
3.56328e+07
3.7092e+07
3.64581e+07
3.78737e+07
3.72622e+07
3.86218e+07
3.80503e+07
3.9338e+07
3.88144e+07
4.00128e+07
3.95485e+07
4.0646e+07
4.02578e+07
4.12551e+07
4.0947e+07
4.1865e+07
4.16293e+07
4.25049e+07
4.24108e+07
5.23989e+07
5.08568e+07
4.96088e+07
4.74242e+07
4.63917e+07
4.4526e+07
4.35209e+07
4.21197e+07
4.0848e+07
3.99095e+07
3.82612e+07
3.77438e+07
3.57348e+07
3.55985e+07
3.32859e+07
3.34978e+07
3.09503e+07
3.14775e+07
2.87733e+07
2.95763e+07
2.68045e+07
2.78333e+07
2.50916e+07
2.62873e+07
2.36767e+07
2.49734e+07
2.25908e+07
2.392e+07
2.18501e+07
2.31454e+07
2.14527e+07
2.26549e+07
2.13789e+07
2.24407e+07
2.15934e+07
2.24826e+07
2.20517e+07
2.27519e+07
2.2706e+07
2.32143e+07
2.35102e+07
2.38335e+07
2.44227e+07
2.45739e+07
2.54082e+07
2.54035e+07
2.64372e+07
2.62951e+07
2.74867e+07
2.72264e+07
2.85384e+07
2.81782e+07
2.95775e+07
2.91338e+07
3.05925e+07
3.00812e+07
3.15752e+07
3.10121e+07
3.25201e+07
3.19203e+07
3.34235e+07
3.28008e+07
3.42835e+07
3.36502e+07
3.50998e+07
3.44676e+07
3.58735e+07
3.52526e+07
3.6605e+07
3.60022e+07
3.7295e+07
3.67161e+07
3.79495e+07
3.7401e+07
3.85784e+07
3.80645e+07
3.91923e+07
3.87096e+07
3.98029e+07
3.9369e+07
4.71581e+07
4.60467e+07
4.51479e+07
4.35695e+07
4.27112e+07
4.12644e+07
4.03938e+07
3.91809e+07
3.80911e+07
3.71826e+07
3.57466e+07
3.51793e+07
3.33718e+07
3.3149e+07
3.10091e+07
3.11126e+07
2.871e+07
2.91108e+07
2.65278e+07
2.7191e+07
2.45158e+07
2.5401e+07
2.27258e+07
2.37859e+07
2.12061e+07
2.2387e+07
1.9998e+07
2.12396e+07
1.91309e+07
2.03701e+07
1.86169e+07
1.97927e+07
1.84468e+07
1.95071e+07
1.85915e+07
1.94976e+07
1.90069e+07
1.97363e+07
1.96413e+07
2.01865e+07
2.04435e+07
2.08084e+07
2.13667e+07
2.15626e+07
2.23709e+07
2.24137e+07
2.34238e+07
2.33311e+07
2.44997e+07
2.42896e+07
2.55787e+07
2.52683e+07
2.66452e+07
2.62505e+07
2.76876e+07
2.72234e+07
2.86974e+07
2.81774e+07
2.96685e+07
2.9105e+07
3.05967e+07
3.00006e+07
3.14792e+07
3.08606e+07
3.23151e+07
3.16826e+07
3.31046e+07
3.2465e+07
3.3849e+07
3.3207e+07
3.4551e+07
3.39086e+07
3.52143e+07
3.4571e+07
3.58434e+07
3.51967e+07
3.6449e+07
3.5794e+07
3.70463e+07
3.64015e+07
4.28917e+07
4.21426e+07
4.15257e+07
4.0275e+07
3.96375e+07
3.84418e+07
3.76997e+07
3.66524e+07
3.56723e+07
3.48353e+07
3.35354e+07
3.2954e+07
3.1311e+07
3.10101e+07
2.90452e+07
2.90287e+07
2.67932e+07
2.70491e+07
2.46121e+07
2.51176e+07
2.25581e+07
2.32835e+07
2.06864e+07
2.15954e+07
1.90504e+07
2.01001e+07
1.77006e+07
1.88404e+07
1.668e+07
1.78524e+07
1.60175e+07
1.71614e+07
1.57197e+07
1.67776e+07
1.57675e+07
1.66927e+07
1.61192e+07
1.68813e+07
1.67197e+07
1.73051e+07
1.75103e+07
1.79198e+07
1.84373e+07
1.86806e+07
1.94547e+07
1.95471e+07
2.0526e+07
2.04849e+07
2.16226e+07
2.14655e+07
2.27227e+07
2.24663e+07
2.381e+07
2.34694e+07
2.48723e+07
2.44613e+07
2.59008e+07
2.54317e+07
2.68891e+07
2.63726e+07
2.78331e+07
2.72784e+07
2.87303e+07
2.81451e+07
2.958e+07
2.897e+07
3.03824e+07
2.97515e+07
3.11391e+07
3.04885e+07
3.18517e+07
3.11805e+07
3.25221e+07
3.18269e+07
3.31534e+07
3.24292e+07
3.37571e+07
3.29979e+07
3.43545e+07
3.35907e+07
3.94618e+07
3.89565e+07
3.85108e+07
3.75259e+07
3.70323e+07
3.60388e+07
3.53945e+07
3.44856e+07
3.35894e+07
3.28297e+07
3.16264e+07
3.10608e+07
2.95377e+07
2.91944e+07
2.73698e+07
2.72624e+07
2.51759e+07
2.53053e+07
2.30113e+07
2.3368e+07
2.09307e+07
2.14976e+07
1.8989e+07
1.97419e+07
1.72411e+07
1.81494e+07
1.57432e+07
1.67678e+07
1.455e+07
1.56422e+07
1.37088e+07
1.48108e+07
1.32477e+07
1.42981e+07
1.31654e+07
1.41084e+07
1.34277e+07
1.42226e+07
1.39769e+07
1.46023e+07
1.47455e+07
1.51978e+07
1.56699e+07
1.59574e+07
1.66961e+07
1.6834e+07
1.77817e+07
1.77877e+07
1.88949e+07
1.87866e+07
2.00119e+07
1.98057e+07
2.11153e+07
2.08259e+07
2.21926e+07
2.18331e+07
2.3235e+07
2.28165e+07
2.42363e+07
2.37682e+07
2.51926e+07
2.46826e+07
2.61017e+07
2.55557e+07
2.69628e+07
2.63849e+07
2.77764e+07
2.71686e+07
2.85437e+07
2.79058e+07
2.92663e+07
2.85955e+07
2.9946e+07
2.9237e+07
3.0587e+07
2.98335e+07
3.12041e+07
3.03996e+07
3.18234e+07
3.1003e+07
3.67293e+07
3.63709e+07
3.60366e+07
3.5252e+07
3.48473e+07
3.40239e+07
3.3441e+07
3.26592e+07
3.18207e+07
3.11426e+07
3.00099e+07
2.9479e+07
2.80462e+07
2.76908e+07
2.59759e+07
2.58124e+07
2.38494e+07
2.38848e+07
2.17181e+07
2.19514e+07
1.96327e+07
2.00566e+07
1.76437e+07
1.82456e+07
1.58031e+07
1.65647e+07
1.41668e+07
1.50622e+07
1.27954e+07
1.37888e+07
1.17518e+07
1.27942e+07
1.10898e+07
1.21202e+07
1.08358e+07
1.179e+07
1.09742e+07
1.17982e+07
1.14488e+07
1.21102e+07
1.21823e+07
1.26712e+07
1.30971e+07
1.34204e+07
1.4128e+07
1.43013e+07
1.52251e+07
1.5267e+07
1.63518e+07
1.6281e+07
1.74825e+07
1.73156e+07
1.85988e+07
1.83505e+07
1.96881e+07
1.93707e+07
2.07414e+07
2.03653e+07
2.17532e+07
2.13266e+07
2.27197e+07
2.22493e+07
2.36391e+07
2.31296e+07
2.4511e+07
2.39654e+07
2.53361e+07
2.47554e+07
2.61159e+07
2.54989e+07
2.68524e+07
2.61951e+07
2.75481e+07
2.6844e+07
2.82086e+07
2.74505e+07
2.88511e+07
2.80327e+07
2.95033e+07
2.86608e+07
3.45559e+07
3.42858e+07
3.40211e+07
3.33888e+07
3.3036e+07
3.23555e+07
3.18072e+07
3.11439e+07
3.03407e+07
2.97493e+07
2.86653e+07
2.81851e+07
2.68198e+07
2.64771e+07
2.48488e+07
2.46601e+07
2.27996e+07
2.27739e+07
2.07193e+07
2.08597e+07
1.86537e+07
1.8959e+07
1.66473e+07
1.71126e+07
1.47456e+07
1.53626e+07
1.29984e+07
1.37539e+07
1.14639e+07
1.23368e+07
1.02112e+07
1.11673e+07
9.31586e+06
1.0303e+07
8.84124e+06
9.79159e+06
8.80747e+06
9.65212e+06
9.17323e+06
9.86309e+06
9.85207e+06
1.03677e+07
1.07476e+07
1.10936e+07
1.17781e+07
1.19713e+07
1.28828e+07
1.29444e+07
1.402e+07
1.39699e+07
1.5161e+07
1.50171e+07
1.62868e+07
1.60639e+07
1.73846e+07
1.70949e+07
1.8446e+07
1.80993e+07
1.94657e+07
1.90693e+07
2.04404e+07
2.00001e+07
2.13689e+07
2.08883e+07
2.22512e+07
2.17323e+07
2.30884e+07
2.25315e+07
2.38827e+07
2.32859e+07
2.46366e+07
2.39958e+07
2.53531e+07
2.46623e+07
2.60391e+07
2.5292e+07
2.67127e+07
2.59044e+07
2.74001e+07
2.65672e+07
3.28408e+07
3.26199e+07
3.23947e+07
3.18791e+07
3.15518e+07
3.09918e+07
3.04589e+07
2.99051e+07
2.91206e+07
2.86189e+07
2.75665e+07
2.71496e+07
2.58337e+07
2.55241e+07
2.39641e+07
2.37764e+07
2.20016e+07
2.19446e+07
1.99893e+07
2.00676e+07
1.79682e+07
1.8183e+07
1.59769e+07
1.63275e+07
1.40534e+07
1.45376e+07
1.22385e+07
1.28519e+07
1.05803e+07
1.13147e+07
9.14157e+06
9.97965e+06
8.00446e+06
8.91187e+06
7.26428e+06
8.18145e+06
6.99521e+06
7.8428e+06
7.19832e+06
7.90485e+06
7.78971e+06
8.31912e+06
8.64904e+06
9.00126e+06
9.66979e+06
9.8641e+06
1.07759e+07
1.08367e+07
1.19177e+07
1.1868e+07
1.30636e+07
1.29227e+07
1.41938e+07
1.39773e+07
1.52954e+07
1.50158e+07
1.63605e+07
1.60274e+07
1.73844e+07
1.70048e+07
1.83645e+07
1.79432e+07
1.92998e+07
1.88397e+07
2.01911e+07
1.96928e+07
2.10399e+07
2.05026e+07
2.18489e+07
2.12701e+07
2.26213e+07
2.1997e+07
2.33609e+07
2.26864e+07
2.40749e+07
2.33472e+07
2.47805e+07
2.39998e+07
2.54991e+07
2.47075e+07
3.15039e+07
3.13049e+07
3.1098e+07
3.06713e+07
3.03512e+07
2.98922e+07
2.93616e+07
2.89076e+07
2.81306e+07
2.77176e+07
2.66851e+07
2.6339e+07
2.50593e+07
2.47975e+07
2.32917e+07
2.31257e+07
2.14229e+07
2.13599e+07
1.94924e+07
1.95365e+07
1.75372e+07
1.76902e+07
1.55911e+07
1.58537e+07
1.36856e+07
1.4058e+07
1.18526e+07
1.23348e+07
1.01285e+07
1.07193e+07
8.56099e+06
9.25581e+06
7.21937e+06
8.00336e+06
6.20466e+06
7.03998e+06
5.63892e+06
6.45296e+06
5.60074e+06
6.30169e+06
6.04654e+06
6.57156e+06
6.83652e+06
7.17503e+06
7.82853e+06
8.00196e+06
8.92286e+06
8.96053e+06
1.00587e+07