/*--------------------------------*- C++ -*----------------------------------*\
| =========                 |                                                 |
| \\      /  F ield         | OpenFOAM: The Open Source CFD Toolbox           |
|  \\    /   O peration     | Version:  v2012                                 |
|   \\  /    A nd           | Website:  www.openfoam.com                      |
|    \\/     M anipulation  |                                                 |
\*---------------------------------------------------------------------------*/
FoamFile
{
    version     2.0;
    format      ascii;
    class       volSymmTensorField;
    location    "19";
    object      sigma;
}
// * * * * * * * * * * * * * * * * * * * * * * * * * * * * * * * * * * * * * //

dimensions      [1 -1 -2 0 0 0 0];


internalField   nonuniform List<symmTensor> 
32000
(
(-2.18451e+08 2.15019e+06 1.55392e-07 -151952 -2.43371e-09 -1.10389e+07)
(-2.16255e+08 679749 2.52126e-07 -1.66859e+06 9.07499e-09 -9.12329e+06)
(-2.01229e+08 3.35848e+06 0 -4.1683e+06 0 -8.59577e+06)
(-2.00858e+08 264545 -8.36172e-08 -3.93195e+06 -3.16504e-09 -3.72519e+06)
(-1.84593e+08 3.99175e+06 -3.41721e-07 -6.83061e+06 -5.71391e-09 -2.59242e+06)
(-1.83674e+08 -473219 -2.53005e-07 -6.11664e+06 -1.26936e-08 1.97574e+06)
(-1.67731e+08 3.88917e+06 -2.70748e-07 -8.51789e+06 1.33355e-09 2.8669e+06)
(-1.66811e+08 -1.18589e+06 -1.274e-07 -7.78348e+06 -1.28226e-08 7.62552e+06)
(-1.51423e+08 3.54696e+06 0 -9.65294e+06 0 8.25819e+06)
(-1.5067e+08 -1.77149e+06 7.11714e-09 -8.87169e+06 8.0488e-09 1.3127e+07)
(-1.3576e+08 3.17316e+06 -1.71096e-07 -1.0338e+07 -2.85378e-09 1.35684e+07)
(-1.35143e+08 -2.25126e+06 -4.18803e-08 -9.43592e+06 -1.8088e-08 1.84333e+07)
(-1.20668e+08 2.81038e+06 -9.81806e-08 -1.05792e+07 -1.51835e-08 1.88285e+07)
(-1.20143e+08 -2.65112e+06 -9.36341e-08 -9.54022e+06 4.31226e-09 2.36137e+07)
(-1.06123e+08 2.45819e+06 -1.14167e-07 -1.03915e+07 3.04093e-08 2.40227e+07)
(-1.05658e+08 -2.9874e+06 1.09925e-07 -9.23744e+06 -3.11617e-08 2.86775e+07)
(-9.21202e+07 2.1123e+06 3.60003e-07 -9.81027e+06 2.08253e-08 2.9105e+07)
(-9.16992e+07 -3.26937e+06 3.19451e-07 -8.57115e+06 3.25924e-08 3.36086e+07)
(-7.86562e+07 1.7726e+06 1.76944e-07 -8.88069e+06 -1.83556e-08 3.40383e+07)
(-7.82691e+07 -3.50262e+06 1.31531e-07 -7.58045e+06 3.14393e-09 3.83764e+07)
(-6.5722e+07 1.44173e+06 4.566e-08 -7.64721e+06 -2.05252e-08 3.88e+07)
(-6.5363e+07 -3.69184e+06 4.33646e-08 -6.30217e+06 -2.08286e-08 4.29606e+07)
(-5.33074e+07 1.1232e+06 1.0879e-07 -6.14933e+06 -2.73601e-10 4.33693e+07)
(-5.29703e+07 -3.84279e+06 7.24156e-08 -4.77087e+06 2.37323e-08 4.7348e+07)
(-4.13992e+07 818727 0 -4.42043e+06 0 4.77338e+07)
(-4.10772e+07 -3.96209e+06 7.5359e-08 -3.01739e+06 -2.79154e-08 5.15315e+07)
(-2.99837e+07 529104 1.47488e-07 -2.48962e+06 2.14735e-08 5.18701e+07)
(-2.96717e+07 -4.05544e+06 1.20505e-07 -1.06899e+06 2.98328e-08 5.54776e+07)
(-1.90435e+07 254587 3.23418e-08 -382397 -2.42137e-08 5.57646e+07)
(-1.87378e+07 -4.12769e+06 0 1.05037e+06 0 5.91795e+07)
(-8.56112e+06 -4506.28 -4.61578e-08 1.87947e+06 -2.29216e-08 5.94133e+07)
(-8.25771e+06 -4.18337e+06 -1.03748e-07 3.31975e+06 4.46676e-08 6.26326e+07)
(1.47796e+06 -248908 -1.20407e-07 4.27749e+06 5.16042e-08 6.27854e+07)
(1.78223e+06 -4.22595e+06 -2.29907e-08 5.72111e+06 -6.83955e-08 6.58088e+07)
(1.10909e+07 -480715 4.67965e-08 6.79511e+06 -4.96897e-08 6.58716e+07)
(1.13964e+07 -4.25694e+06 1.22352e-09 8.2389e+06 1.94536e-08 6.86969e+07)
(2.02934e+07 -700851 -2.05449e-08 9.41741e+06 2.46967e-08 6.86707e+07)
(2.05995e+07 -4.27668e+06 0 1.08587e+07 0 7.12907e+07)
(2.90942e+07 -910550 2.82313e-08 1.2131e+07 2.18688e-08 7.11412e+07)
(2.93987e+07 -4.28434e+06 4.88226e-08 1.3567e+07 1.69395e-08 7.35525e+07)
(3.75039e+07 -1.11217e+06 -2.39929e-08 1.49218e+07 -2.12556e-08 7.32682e+07)
(3.78021e+07 -4.27758e+06 -2.73879e-08 1.63504e+07 -2.15129e-08 7.54672e+07)
(4.55316e+07 -1.30628e+06 1.98395e-08 1.77751e+07 2.0492e-08 7.50552e+07)
(4.5817e+07 -4.25285e+06 4.34622e-08 1.91947e+07 -2.62406e-08 7.70294e+07)
(5.31763e+07 -1.49342e+06 5.00937e-08 2.06756e+07 -5.74682e-09 7.64459e+07)
(5.34383e+07 -4.20459e+06 5.21633e-08 2.20836e+07 -6.67338e-09 7.81816e+07)
(6.04392e+07 -1.6739e+06 2.46389e-08 2.36045e+07 -2.44725e-08 7.74263e+07)
(6.06655e+07 -4.12645e+06 1.43745e-08 2.49981e+07 1.78783e-08 7.89144e+07)
(6.73177e+07 -1.84577e+06 0 2.654e+07 0 7.7985e+07)
(6.74945e+07 -4.01164e+06 1.99774e-09 2.79158e+07 1.57355e-08 7.92182e+07)
(7.38015e+07 -2.00745e+06 -7.89375e-09 2.94571e+07 -1.27751e-08 7.80821e+07)
(7.39117e+07 -3.85215e+06 -1.18108e-08 3.08101e+07 -2.90381e-08 7.90463e+07)
(7.98833e+07 -2.15379e+06 -4.35557e-10 3.23243e+07 1.45213e-08 7.77332e+07)
(7.99094e+07 -3.64021e+06 -3.86419e-09 3.36487e+07 -1.0933e-08 7.84149e+07)
(8.55458e+07 -2.27988e+06 -1.39838e-08 3.5108e+07 9.4448e-09 7.69027e+07)
(8.54671e+07 -3.36695e+06 2.95364e-09 3.63939e+07 3.08034e-08 7.73033e+07)
(9.07774e+07 -2.38164e+06 1.6842e-08 3.77689e+07 -2.25522e-08 7.56095e+07)
(9.05739e+07 -3.02457e+06 1.04129e-08 3.90031e+07 -1.03367e-08 7.57344e+07)
(9.55605e+07 -2.44985e+06 1.09812e-08 4.02623e+07 1.33309e-08 7.38824e+07)
(9.52185e+07 -2.60877e+06 4.09046e-09 4.14286e+07 9.80348e-09 7.37522e+07)
(9.98807e+07 -2.47887e+06 3.00638e-08 4.25415e+07 3.92975e-09 7.17473e+07)
(9.93973e+07 -2.12091e+06 -9.92889e-10 4.36218e+07 -1.71148e-08 7.13835e+07)
(1.03726e+08 -2.46008e+06 -5.65247e-08 4.45578e+07 1.90403e-09 6.93078e+07)
(1.03104e+08 -1.56517e+06 -4.71838e-08 4.55335e+07 -1.14124e-08 6.87326e+07)
(1.07095e+08 -2.38934e+06 -6.2047e-08 4.6265e+07 -1.28411e-08 6.65898e+07)
(1.06336e+08 -946055 -1.52169e-09 4.71155e+07 1.02307e-08 6.58382e+07)
(1.09988e+08 -2.25983e+06 7.56416e-08 4.76191e+07 1.64707e-09 6.36934e+07)
(1.09114e+08 -277122 2.29063e-08 4.83242e+07 -3.06153e-11 6.27992e+07)
(1.1241e+08 -2.06274e+06 5.40965e-08 4.85823e+07 4.53602e-09 6.06886e+07)
(1.11425e+08 435223 4.13274e-08 4.91156e+07 1.16217e-08 5.97129e+07)
(1.14404e+08 -1.78316e+06 8.50366e-08 4.91279e+07 9.38359e-09 5.76298e+07)
(1.13342e+08 1.17075e+06 1.00444e-07 4.9449e+07 2.31223e-08 5.66315e+07)
(1.15899e+08 -1.38596e+06 1.34862e-07 4.92442e+07 7.54377e-09 5.46597e+07)
(1.14837e+08 1.88903e+06 1.68676e-07 4.92865e+07 3.64236e-08 5.36288e+07)
(1.16842e+08 -884592 8.78432e-08 4.89544e+07 9.36677e-09 5.15377e+07)
(1.15655e+08 2.6383e+06 -6.64656e-09 4.85737e+07 -1.43734e-09 5.04838e+07)
(1.14842e+08 -313689 -2.89759e-08 4.82891e+07 -2.77876e-09 4.94964e+07)
(1.14463e+08 3.01356e+06 2.34491e-08 4.74506e+07 4.72061e-09 4.74582e+07)
(1.09915e+08 -10969.2 -3.6205e-08 4.72495e+07 -2.47806e-09 4.80401e+07)
(1.09257e+08 3.47758e+06 -4.82829e-08 4.59919e+07 -8.89092e-09 4.61557e+07)
(-2.20357e+08 8.4062e+06 -3.4327e-08 -975624 4.33463e-10 -1.14048e+07)
(-2.16477e+08 4.55886e+06 -1.41776e-07 -1.83504e+06 -1.56616e-08 -1.07845e+07)
(-2.02342e+08 7.58348e+06 -1.29955e-07 -3.85899e+06 -1.41737e-08 -9.94757e+06)
(-2.00043e+08 3.49667e+06 -2.2374e-07 -3.78722e+06 -2.72202e-08 -4.84223e+06)
(-1.84598e+08 6.71761e+06 -1.19369e-07 -6.50734e+06 -1.04707e-08 -3.53214e+06)
(-1.82574e+08 2.24896e+06 -1.26798e-07 -5.40248e+06 -2.09588e-08 1.16831e+06)
(-1.67377e+08 5.74939e+06 1.15942e-07 -8.554e+06 1.73669e-08 2.60308e+06)
(-1.65634e+08 988856 1.19195e-07 -6.66801e+06 2.31545e-08 6.84878e+06)
(-1.51042e+08 4.68173e+06 -3.23919e-08 -9.92891e+06 -1.49812e-08 8.45587e+06)
(-1.49478e+08 -237610 -1.0994e-07 -7.53627e+06 -1.68854e-08 1.23189e+07)
(-1.35428e+08 3.57163e+06 -2.03792e-07 -1.07274e+07 -3.23569e-08 1.4027e+07)
(-1.33988e+08 -1.40133e+06 -2.77907e-07 -7.98919e+06 -3.9127e-08 1.76106e+07)
(-1.20389e+08 2.47707e+06 -9.44811e-08 -1.10485e+07 7.15743e-10 1.94189e+07)
(-1.19067e+08 -2.47794e+06 -1.62685e-07 -8.03823e+06 -2.09606e-08 2.27756e+07)
(-1.05893e+08 1.43497e+06 -5.94667e-08 -1.09561e+07 1.25723e-08 2.46829e+07)
(-1.04686e+08 -3.45468e+06 -6.04068e-08 -7.71174e+06 -3.5667e-09 2.78103e+07)
(-9.19406e+07 460206 -5.52949e-08 -1.04903e+07 3.0955e-10 2.98145e+07)
(-9.08337e+07 -4.32997e+06 0 -7.04412e+06 0 3.26947e+07)
(-7.85308e+07 -444699 0 -9.68465e+06 0 3.4785e+07)
(-7.75045e+07 -5.1093e+06 -1.16558e-09 -6.06926e+06 -1.53045e-08 3.7406e+07)
(-6.56545e+07 -1.28267e+06 1.92098e-07 -8.57164e+06 3.22298e-08 3.95712e+07)
(-6.46893e+07 -5.80118e+06 1.47488e-07 -4.81825e+06 2.83785e-08 4.19304e+07)
(-5.32973e+07 -2.05821e+06 8.30523e-08 -7.18337e+06 -4.11973e-08 4.41626e+07)
(-5.23777e+07 -6.41447e+06 -4.13569e-08 -3.31967e+06 1.66177e-08 4.62595e+07)
(-4.14435e+07 -2.77509e+06 -6.21555e-08 -5.55051e+06 -7.29486e-09 4.85509e+07)
(-4.05562e+07 -6.95781e+06 -6.4218e-08 -1.6002e+06 -3.0519e-08 5.03826e+07)
(-3.00787e+07 -3.43724e+06 2.3372e-08 -3.70051e+06 2.96811e-08 5.27046e+07)
(-2.92118e+07 -7.44023e+06 5.79794e-08 316152 1.22915e-08 5.42741e+07)
(-1.91861e+07 -4.04982e+06 -7.70318e-08 -1.65778e+06 -7.60087e-08 5.6607e+07)
(-1.83298e+07 -7.8695e+06 -1.05992e-07 2.40776e+06 -2.33152e-08 5.79236e+07)
(-8.74696e+06 -4.61745e+06 -7.45871e-08 555224 1.88124e-08 6.02597e+07)
(-7.89568e+06 -8.25106e+06 -2.00604e-08 4.65417e+06 -1.24308e-08 6.13247e+07)
(1.2549e+06 -5.14362e+06 -4.85855e-08 2.91876e+06 2.91084e-08 6.36401e+07)
(2.10414e+06 -8.58974e+06 2.48684e-08 7.03635e+06 -1.68523e-09 6.44556e+07)
(1.08335e+07 -5.63269e+06 6.25181e-08 5.41567e+06 2.0468e-08 6.67147e+07)
(1.16797e+07 -8.88736e+06 1.68848e-08 9.53599e+06 1.16191e-08 6.72887e+07)
(2.00046e+07 -6.08792e+06 5.33188e-08 8.02794e+06 -7.91923e-10 6.94804e+07)
(2.08403e+07 -9.14259e+06 1.88309e-08 1.21344e+07 4.79403e-08 6.98169e+07)
(2.87786e+07 -6.50877e+06 -6.19462e-08 1.07363e+07 -2.65129e-08 7.19162e+07)
(2.95925e+07 -9.35339e+06 -6.30424e-08 1.48129e+07 -5.26105e-08 7.20169e+07)
(3.71619e+07 -6.89542e+06 0 1.35235e+07 0 7.39808e+07)
(3.79374e+07 -9.51384e+06 -1.06974e-08 1.75513e+07 2.01929e-08 7.38527e+07)
(4.51639e+07 -7.24708e+06 -3.16579e-08 1.637e+07 3.41653e-09 7.56668e+07)
(4.58743e+07 -9.61403e+06 -2.03855e-08 2.03268e+07 -6.31798e-09 7.53083e+07)
(5.27828e+07 -7.55601e+06 -4.18529e-09 1.92515e+07 2.38338e-08 7.69341e+07)
(5.33993e+07 -9.64478e+06 -3.2196e-09 2.31153e+07 -1.64569e-08 7.63529e+07)
(6.00158e+07 -7.81604e+06 -1.55524e-08 2.21441e+07 -4.07249e-08 7.77503e+07)
(6.05035e+07 -9.59307e+06 -7.55484e-09 2.589e+07 1.18219e-08 7.69549e+07)
(6.68615e+07 -8.01715e+06 -2.99951e-08 2.5019e+07 -6.55923e-09 7.81184e+07)
(6.71788e+07 -9.44434e+06 -2.46321e-08 2.86209e+07 -4.42177e-08 7.71037e+07)
(7.33026e+07 -8.14274e+06 1.46789e-08 2.78437e+07 3.49805e-08 7.7991e+07)
(7.34102e+07 -9.18392e+06 1.21629e-08 3.12754e+07 2.8386e-08 7.67744e+07)
(7.93333e+07 -8.18159e+06 -2.98306e-09 3.05855e+07 -6.23672e-09 7.73743e+07)
(7.91825e+07 -8.79404e+06 -6.53343e-09 3.3817e+07 -2.33251e-08 7.59721e+07)
(8.49384e+07 -8.11455e+06 1.18167e-08 3.32046e+07 2.11934e-08 7.62666e+07)
(8.44854e+07 -8.2629e+06 5.83615e-09 3.62085e+07 2.0303e-08 7.47089e+07)
(9.00964e+07 -7.92341e+06 6.1805e-09 3.56614e+07 -4.74133e-09 7.46834e+07)
(8.93121e+07 -7.58132e+06 3.95349e-08 3.84133e+07 2.23308e-08 7.30013e+07)
(9.47978e+07 -7.59132e+06 4.92386e-08 3.79157e+07 2.30412e-08 7.26966e+07)
(9.36621e+07 -6.74606e+06 5.08708e-08 4.03963e+07 1.91492e-08 7.09206e+07)
(9.90223e+07 -7.1055e+06 3.46454e-08 3.99313e+07 3.47017e-08 7.03356e+07)
(9.75352e+07 -5.75577e+06 -4.16931e-08 4.21219e+07 -2.49848e-08 6.85018e+07)
(1.02768e+08 -6.45886e+06 -3.51807e-08 4.16755e+07 -2.03835e-08 6.76943e+07)
(1.00937e+08 -4.61537e+06 -3.06022e-08 4.35561e+07 -1.20216e-08 6.58484e+07)
(1.06028e+08 -5.64856e+06 0 4.3122e+07 0 6.48285e+07)
(1.03884e+08 -3.33883e+06 1.86511e-08 4.46699e+07 1.24439e-08 6.30286e+07)
(1.088e+08 -4.67862e+06 6.87836e-08 4.42534e+07 2.75668e-08 6.18419e+07)
(1.0641e+08 -1.9469e+06 8.69396e-08 4.54386e+07 3.93015e-08 6.01303e+07)
(1.11073e+08 -3.56121e+06 2.22241e-08 4.50614e+07 1.03427e-08 5.88204e+07)
(1.08503e+08 -459865 -6.93763e-08 4.58441e+07 -3.20494e-08 5.72654e+07)
(1.12851e+08 -2.31333e+06 -1.12537e-07 4.55466e+07 -4.43514e-08 5.58589e+07)
(1.1025e+08 1.09146e+06 -8.87859e-08 4.58737e+07 -4.07102e-08 5.44938e+07)
(1.14174e+08 -974509 -5.73826e-08 4.57189e+07 -2.09485e-08 5.30315e+07)
(1.11696e+08 2.64469e+06 9.55304e-09 4.55255e+07 3.33605e-09 5.18637e+07)
(1.15101e+08 427148 9.32937e-08 4.55876e+07 3.41007e-08 5.00876e+07)
(1.12681e+08 4.09969e+06 -1.2874e-08 4.48651e+07 -3.73344e-09 4.91289e+07)
(1.13918e+08 1.93191e+06 -1.12726e-08 4.51592e+07 -5.74313e-09 4.78797e+07)
(1.12334e+08 5.17806e+06 -1.19252e-08 4.39066e+07 -7.12519e-09 4.62113e+07)
(1.09471e+08 2.99216e+06 5.68897e-08 4.4509e+07 2.14454e-08 4.64659e+07)
(1.07631e+08 6.10693e+06 2.57331e-08 4.27513e+07 1.13831e-08 4.48576e+07)
(-2.19507e+08 1.28952e+07 1.38266e-07 -1.78634e+06 -1.26289e-10 -1.11287e+07)
(-2.1619e+08 8.31772e+06 2.92537e-08 -1.59839e+06 6.40242e-09 -1.04911e+07)
(-2.01454e+08 1.18073e+07 3.2618e-07 -4.47145e+06 5.41672e-08 -9.16754e+06)
(-1.98902e+08 6.69309e+06 1.2925e-07 -3.49e+06 2.70703e-08 -4.59891e+06)
(-1.83568e+08 1.00754e+07 9.6501e-08 -6.3107e+06 1.04015e-08 -2.6774e+06)
(-1.80931e+08 4.72611e+06 -1.87212e-07 -4.91467e+06 -2.8078e-08 1.65868e+06)
(-1.66199e+08 8.09282e+06 -3.08415e-07 -7.64686e+06 -6.3025e-08 3.32601e+06)
(-1.63875e+08 2.74186e+06 -3.15942e-07 -5.88459e+06 -6.87183e-08 7.4975e+06)
(-1.49814e+08 6.12486e+06 -2.92939e-07 -8.56602e+06 -5.38967e-08 9.07277e+06)
(-1.47768e+08 848868 -2.93817e-07 -6.44679e+06 -7.52594e-08 1.30321e+07)
(-1.34252e+08 4.24275e+06 -3.64101e-09 -9.07473e+06 1.03206e-08 1.46095e+07)
(-1.32371e+08 -932745 7.27663e-08 -6.63892e+06 1.17177e-08 1.83357e+07)
(-1.19331e+08 2.45485e+06 0 -9.18446e+06 0 1.9985e+07)
(-1.17562e+08 -2.59736e+06 -6.70225e-08 -6.48578e+06 -1.03095e-08 2.34857e+07)
(-1.04979e+08 766139 2.45382e-08 -8.92329e+06 2.61523e-08 2.5218e+07)
(-1.03306e+08 -4.13859e+06 2.69496e-08 -6.00794e+06 2.87157e-08 2.84931e+07)
(-9.11755e+07 -815582 -8.09277e-08 -8.32543e+06 -3.31993e-08 3.02993e+07)
(-8.9591e+07 -5.55225e+06 -1.39666e-07 -5.22711e+06 -4.58229e-08 3.33428e+07)
(-7.79087e+07 -2.28575e+06 2.41852e-08 -7.42253e+06 2.91339e-08 3.52176e+07)
(-7.64012e+07 -6.84032e+06 2.71292e-08 -4.16653e+06 1.58473e-08 3.80224e+07)
(-6.51654e+07 -3.64495e+06 9.62368e-08 -6.24211e+06 4.67634e-08 3.99526e+07)
(-6.37219e+07 -8.00864e+06 9.95798e-08 -2.85035e+06 3.7596e-08 4.25063e+07)
(-5.29319e+07 -4.89769e+06 1.54103e-07 -4.80903e+06 2.91913e-09 4.4484e+07)
(-5.15375e+07 -9.06599e+06 6.80799e-08 -1.30214e+06 2.07751e-08 4.67826e+07)
(-4.1192e+07 -6.05127e+06 3.93573e-08 -3.14638e+06 -1.67248e-08 4.88078e+07)
(-3.98332e+07 -1.00216e+07 3.89546e-08 455538 4.165e-09 5.08489e+07)
(-2.99294e+07 -7.11335e+06 2.21842e-08 -1.27645e+06 3.18342e-08 5.29159e+07)
(-2.85947e+07 -1.08847e+07 9.29694e-08 2.40097e+06 2.2448e-08 5.46971e+07)
(-1.91289e+07 -8.09125e+06 9.45604e-08 780051 -1.77045e-08 5.67779e+07)
(-1.78099e+07 -1.16624e+07 -3.0699e-08 4.51269e+06 1.51836e-08 5.82952e+07)
(-8.77432e+06 -8.99335e+06 7.85215e-08 3.00462e+06 5.17501e-08 6.03673e+07)
(-7.46702e+06 -1.23599e+07 -8.09123e-09 6.76962e+06 1.23601e-08 6.16285e+07)
(1.15145e+06 -9.82702e+06 3.58601e-09 5.37812e+06 -5.16567e-08 6.36788e+07)
(2.4441e+06 -1.29796e+07 3.0418e-09 9.15001e+06 -4.88227e-08 6.46897e+07)
(1.06599e+07 -1.05943e+07 -2.41452e-08 7.87793e+06 -1.90714e-08 6.66825e+07)
(1.1928e+07 -1.35207e+07 -1.74854e-08 1.16311e+07 3.4767e-08 6.74429e+07)
(1.97594e+07 -1.12956e+07 -6.90977e-08 1.04816e+07 1.24102e-08 6.934e+07)
(2.09883e+07 -1.39789e+07 -5.48166e-08 1.41892e+07 -3.29162e-08 6.98579e+07)
(2.84614e+07 -1.1933e+07 0 1.3168e+07 0 7.16356e+07)
(2.96264e+07 -1.43471e+07 1.54047e-08 1.67984e+07 5.04618e-10 7.19218e+07)
(3.67704e+07 -1.25021e+07 5.84875e-08 1.59102e+07 5.19492e-08 7.3533e+07)
(3.78355e+07 -1.4614e+07 5.29694e-08 1.94306e+07 3.96496e-08 7.35894e+07)
(4.46827e+07 -1.29922e+07 -3.58922e-08 1.86764e+07 -7.11239e-08 7.49901e+07)
(4.56097e+07 -1.47662e+07 -4.44329e-08 2.20563e+07 -3.56881e-08 7.48271e+07)
(5.21999e+07 -1.33949e+07 -8.31516e-09 2.14359e+07 2.36043e-08 7.59949e+07)
(5.29407e+07 -1.47882e+07 -8.08301e-09 2.46439e+07 1.85994e-08 7.5618e+07)
(5.93113e+07 -1.36939e+07 -7.02392e-09 2.41523e+07 -5.88375e-09 7.65043e+07)
(5.98139e+07 -1.46622e+07 -1.44957e-08 2.71599e+07 -3.11994e-09 7.5918e+07)
(6.60035e+07 -1.38699e+07 1.03777e-08 2.67865e+07 6.96541e-09 7.65028e+07)
(6.62169e+07 -1.43694e+07 -1.78977e-09 2.95694e+07 6.5265e-09 7.57221e+07)
(7.22696e+07 -1.39043e+07 -1.22228e-08 2.92984e+07 -1.79201e-08 7.60005e+07)
(7.21358e+07 -1.38918e+07 -1.9243e-08 3.18372e+07 -3.07349e-08 7.5039e+07)
(7.80882e+07 -1.37699e+07 -2.15142e-08 3.16438e+07 -2.90339e-08 7.49888e+07)
(7.75598e+07 -1.32152e+07 2.59664e-08 3.39305e+07 3.29726e-08 7.38567e+07)
(8.34466e+07 -1.34447e+07 4.84926e-08 3.37826e+07 5.2328e-08 7.35154e+07)
(8.24905e+07 -1.23319e+07 -3.47005e-08 3.58201e+07 -3.59989e-08 7.22231e+07)
(8.8325e+07 -1.29065e+07 -4.60487e-08 3.56784e+07 -3.642e-08 7.16157e+07)
(8.69266e+07 -1.12378e+07 -3.49898e-08 3.748e+07 -2.70693e-08 7.01831e+07)
(9.27231e+07 -1.21437e+07 -6.87091e-08 3.73034e+07 -5.06086e-08 6.93743e+07)
(9.08783e+07 -9.93459e+06 -1.75076e-08 3.88876e+07 -1.28123e-08 6.78177e+07)
(9.66317e+07 -1.11473e+07 6.77179e-09 3.86388e+07 4.31072e-09 6.68543e+07)
(9.43615e+07 -8.43207e+06 5.71092e-09 4.00265e+07 2.96553e-09 6.52109e+07)
(1.00059e+08 -9.92002e+06 -5.20694e-09 3.96779e+07 -1.84105e-09 6.41589e+07)
(9.74056e+07 -6.7518e+06 8.77757e-08 4.0889e+07 6.00892e-08 6.24577e+07)
(1.03012e+08 -8.47533e+06 4.54078e-08 4.04281e+07 2.68019e-08 6.13654e+07)
(1.0003e+08 -4.91623e+06 1.58745e-08 4.14721e+07 1.42573e-08 5.96546e+07)
(1.05509e+08 -6.83345e+06 -4.12151e-08 4.09064e+07 -2.42346e-08 5.85552e+07)
(1.02282e+08 -2.95591e+06 -1.31401e-08 4.17777e+07 -5.81335e-09 5.68691e+07)
(1.07552e+08 -5.02387e+06 -1.4803e-08 4.11377e+07 -5.80822e-09 5.58056e+07)
(1.04152e+08 -898592 0 4.18117e+07 0 5.421e+07)
(1.09196e+08 -3.08226e+06 2.56174e-08 4.1151e+07 1.8121e-08 5.31564e+07)
(1.05716e+08 1.22818e+06 3.80667e-08 4.15787e+07 2.54289e-08 5.17236e+07)
(1.10462e+08 -1.04783e+06 7.08847e-08 4.09753e+07 4.33219e-08 5.0697e+07)
(1.07033e+08 3.39175e+06 9.26021e-08 4.10712e+07 5.70073e-08 4.94528e+07)
(1.11378e+08 1.05107e+06 9.50597e-08 4.06318e+07 4.55621e-08 4.82962e+07)
(1.08124e+08 5.48235e+06 1.97085e-08 4.02894e+07 1.89085e-08 4.71927e+07)
(1.11562e+08 3.13321e+06 -4.60726e-08 4.01545e+07 -2.5284e-08 4.56236e+07)
(1.08512e+08 7.24739e+06 4.99633e-08 3.92301e+07 2.27407e-08 4.44813e+07)
(1.07826e+08 5.2463e+06 5.34961e-08 3.95195e+07 3.26042e-08 4.45281e+07)
(1.05692e+08 8.30915e+06 8.19869e-08 3.81588e+07 5.35928e-08 4.26607e+07)
(-2.18692e+08 1.7159e+07 -2.26843e-07 -1.9516e+06 -1.49574e-09 -1.1053e+07)
(-2.14713e+08 1.17521e+07 1.01859e-07 -2.21584e+06 3.11294e-08 -1.02049e+07)
(-1.99684e+08 1.48881e+07 -3.30735e-07 -4.47394e+06 -8.19101e-08 -9.32778e+06)
(-1.97067e+08 9.3319e+06 -1.66635e-08 -3.70701e+06 -1.74813e-08 -4.10154e+06)
(-1.81388e+08 1.24334e+07 1.22891e-07 -6.1824e+06 5.59526e-08 -2.41423e+06)
(-1.78833e+08 6.70248e+06 3.28472e-07 -4.76831e+06 1.06211e-07 2.29125e+06)
(-1.63998e+08 9.82889e+06 8.21557e-08 -7.25285e+06 -9.48202e-09 3.87245e+06)
(-1.61686e+08 4.09323e+06 1.56438e-07 -5.44017e+06 1.82078e-08 8.17033e+06)
(-1.47735e+08 7.22767e+06 9.72289e-08 -7.82945e+06 4.11444e-08 9.72427e+06)
(-1.45613e+08 1.58701e+06 9.36204e-08 -5.74207e+06 5.70831e-08 1.37204e+07)
(-1.32332e+08 4.70897e+06 -8.08074e-09 -8.00478e+06 1.13836e-08 1.52868e+07)
(-1.30324e+08 -786302 8.69774e-08 -5.69562e+06 -5.91707e-09 1.90348e+07)
(-1.17589e+08 2.30809e+06 -4.25977e-09 -7.82917e+06 -5.39994e-08 2.06655e+07)
(-1.15661e+08 -3.01143e+06 -3.2528e-08 -5.3266e+06 -5.14326e-09 2.41813e+07)
(-1.03432e+08 42748.6 -2.83503e-07 -7.33436e+06 -5.0921e-08 2.58871e+07)
(-1.01571e+08 -5.08102e+06 -2.21332e-08 -4.66044e+06 -3.26395e-08 2.91617e+07)
(-8.98324e+07 -2.07965e+06 9.78097e-08 -6.54593e+06 7.362e-08 3.09415e+07)
(-8.80287e+07 -6.99432e+06 2.25417e-07 -3.71982e+06 7.65931e-08 3.39642e+07)
(-7.67687e+07 -4.05785e+06 8.18375e-08 -5.48743e+06 9.46878e-09 3.58197e+07)
(-7.50135e+07 -8.75426e+06 1.30953e-07 -2.52633e+06 4.22989e-08 3.85796e+07)
(-6.42203e+07 -5.8941e+06 -2.3908e-08 -4.18133e+06 7.64291e-09 4.05141e+07)
(-6.25047e+07 -1.03676e+07 -2.50498e-08 -1.10042e+06 2.47301e-08 4.30082e+07)
(-5.21683e+07 -7.5935e+06 -4.37607e-08 -2.64848e+06 -7.424e-09 4.50113e+07)
(-5.04848e+07 -1.18418e+07 -8.85179e-08 537155 -1.95781e-09 4.72319e+07)
(-4.05961e+07 -9.16292e+06 -1.58438e-09 -908140 1.84525e-08 4.92866e+07)
(-3.89378e+07 -1.31843e+07 -7.85292e-08 2.3652e+06 -1.70952e-08 5.12261e+07)
(-2.94878e+07 -1.06112e+07 -1.13263e-07 1.02232e+06 -7.99936e-08 5.33221e+07)
(-2.78493e+07 -1.44021e+07 -7.95764e-08 4.36165e+06 -6.15313e-08 5.49826e+07)
(-1.88271e+07 -1.19481e+07 2.06945e-08 3.12555e+06 5.34391e-08 5.71082e+07)
(-1.72082e+07 -1.55007e+07 8.37593e-08 6.50407e+06 1.35222e-08 5.84985e+07)
(-8.59976e+06 -1.31802e+07 1.8525e-08 5.38026e+06 -4.75773e-09 6.06185e+07)
(-7.01007e+06 -1.64805e+07 2.20331e-08 8.76782e+06 5.29847e-08 6.17345e+07)
(1.20186e+06 -1.4308e+07 -4.32502e-08 7.76119e+06 -1.7542e-08 6.38101e+07)
(2.74899e+06 -1.73382e+07 -4.47769e-08 1.11255e+07 -3.97287e-08 6.46501e+07)
(1.0586e+07 -1.53328e+07 -1.94445e-08 1.02445e+07 -3.25803e-08 6.66545e+07)
(1.20729e+07 -1.80702e+07 -4.07753e-08 1.35491e+07 -3.80002e-08 6.7241e+07)
(1.95641e+07 -1.62562e+07 1.89898e-08 1.28049e+07 3.15104e-08 6.91312e+07)
(2.09562e+07 -1.86674e+07 2.2369e-08 1.60083e+07 4.94885e-08 6.94735e+07)
(2.8136e+07 -1.70693e+07 -6.31614e-08 1.54091e+07 -4.44821e-08 7.11844e+07)
(2.93892e+07 -1.91148e+07 -7.22197e-08 1.8469e+07 -3.61028e-08 7.12766e+07)
(3.62948e+07 -1.77581e+07 -8.55636e-08 1.802e+07 -2.34862e-08 7.27729e+07)
(3.73671e+07 -1.93992e+07 -4.18384e-08 2.08975e+07 -4.3053e-08 7.26398e+07)
(4.40412e+07 -1.83119e+07 -1.97633e-08 2.06024e+07 -8.6774e-09 7.38811e+07)
(4.48754e+07 -1.95034e+07 -1.72578e-08 2.32584e+07 -2.66565e-08 7.35334e+07)
(5.13623e+07 -1.87104e+07 -2.88717e-08 2.3114e+07 -2.10226e-08 7.44661e+07)
(5.18994e+07 -1.94075e+07 -1.22373e-08 2.55152e+07 7.26703e-09 7.39091e+07)
(5.82427e+07 -1.89309e+07 1.40057e-08 2.55109e+07 3.71948e-08 7.45209e+07)
(5.84294e+07 -1.90952e+07 -6.62873e-09 2.76332e+07 -1.64789e-08 7.37733e+07)
(6.46684e+07 -1.89502e+07 2.13164e-08 2.77487e+07 1.86643e-08 7.40423e+07)
(6.44475e+07 -1.85482e+07 2.06627e-08 2.95791e+07 1.95248e-08 7.31086e+07)
(7.06177e+07 -1.87395e+07 -2.86536e-08 2.97809e+07 -2.96199e-08 7.30505e+07)
(6.99509e+07 -1.77555e+07 3.86631e-09 3.13244e+07 8.80735e-09 7.1938e+07)
(7.60772e+07 -1.8277e+07 7.4681e-09 3.15689e+07 5.30347e-09 7.1594e+07)
(7.49416e+07 -1.67137e+07 1.95726e-08 3.28476e+07 1.9188e-08 7.03206e+07)
(8.10341e+07 -1.75453e+07 1.98301e-08 3.30818e+07 2.03608e-08 6.97427e+07)
(7.94264e+07 -1.54226e+07 -4.54632e-09 3.41316e+07 1.03393e-09 6.83132e+07)
(8.54881e+07 -1.6536e+07 1.2214e-08 3.42994e+07 1.06462e-08 6.75869e+07)
(8.3424e+07 -1.38928e+07 2.71004e-08 3.51681e+07 2.10387e-08 6.60264e+07)
(8.94432e+07 -1.52531e+07 1.56238e-08 3.52179e+07 1.34081e-09 6.52138e+07)
(8.69614e+07 -1.21437e+07 -3.43248e-08 3.59579e+07 -2.8693e-08 6.35314e+07)
(9.29135e+07 -1.37093e+07 -5.90096e-08 3.58478e+07 -4.40574e-08 6.27252e+07)
(9.00711e+07 -1.02027e+07 -8.77379e-08 3.65114e+07 -7.39861e-08 6.09515e+07)
(9.59289e+07 -1.19342e+07 -5.59104e-08 3.62148e+07 -3.11646e-08 6.01983e+07)
(9.2791e+07 -8.10084e+06 6.93699e-08 3.68436e+07 4.57256e-08 5.83492e+07)
(9.85114e+07 -9.96045e+06 9.02982e-08 3.6354e+07 6.46163e-08 5.77036e+07)
(9.51422e+07 -5.86844e+06 1.28933e-08 3.69729e+07 2.12898e-08 5.58178e+07)
(1.00703e+08 -7.82439e+06 3.75099e-08 3.63059e+07 3.66771e-08 5.52772e+07)
(9.71715e+07 -3.53603e+06 3.24135e-08 3.69181e+07 2.99332e-08 5.33798e+07)
(1.02515e+08 -5.56422e+06 4.01301e-08 3.61124e+07 2.27899e-08 5.29508e+07)
(9.88572e+07 -1.12443e+06 0 3.66939e+07 0 5.11079e+07)
(1.04021e+08 -3.21855e+06 -7.99522e-10 3.58121e+07 7.47048e-09 5.07103e+07)
(1.00285e+08 1.33487e+06 5.18244e-08 3.63178e+07 3.75326e-08 4.89853e+07)
(1.05217e+08 -812017 8.4013e-08 3.54381e+07 6.91592e-08 4.86248e+07)
(1.01474e+08 3.83309e+06 8.96719e-08 3.57959e+07 8.64664e-08 4.70671e+07)
(1.06303e+08 1.6008e+06 7.2298e-09 3.50197e+07 -1.28549e-08 4.64678e+07)
(1.02562e+08 6.30383e+06 -1.40379e-07 3.51197e+07 -1.05701e-07 4.51416e+07)
(1.06931e+08 4.05571e+06 -1.59255e-07 3.45725e+07 -1.1086e-07 4.40628e+07)
(1.03095e+08 8.71831e+06 -1.02753e-07 3.41792e+07 -9.10519e-08 4.31419e+07)
(1.05549e+08 6.49664e+06 -6.19761e-08 3.41278e+07 -3.77303e-08 4.19656e+07)
(1.02937e+08 9.99607e+06 4.06851e-08 3.32404e+07 2.6768e-08 4.02441e+07)
(-2.16578e+08 2.13078e+07 2.33776e-07 -2.62055e+06 1.47857e-09 -1.06198e+07)
(-2.12197e+08 1.51313e+07 -2.12863e-07 -2.75739e+06 -7.71217e-08 -9.80958e+06)
(-1.97284e+08 1.78995e+07 1.21736e-07 -4.82464e+06 6.88996e-09 -8.96767e+06)
(-1.94378e+08 1.18254e+07 -1.4119e-07 -4.05008e+06 -4.29085e-08 -3.571e+06)
(-1.78697e+08 1.45202e+07 -2.28209e-07 -6.24011e+06 -4.18891e-08 -2.00278e+06)
(-1.76069e+08 8.4111e+06 -1.11532e-07 -4.84894e+06 -2.13726e-08 2.97319e+06)
(-1.61229e+08 1.11742e+07 6.83818e-08 -7.0408e+06 9.16436e-09 4.34152e+06)
(-1.58972e+08 5.12569e+06 -1.00226e-07 -5.23995e+06 -5.86516e-08 8.89887e+06)
(-1.45049e+08 7.95158e+06 8.27935e-08 -7.35172e+06 2.38718e-08 1.02277e+07)
(-1.43014e+08 2.01415e+06 9.43401e-08 -5.27533e+06 1.38196e-08 1.44374e+07)
(-1.29817e+08 4.87145e+06 1.24995e-08 -7.2609e+06 -1.27384e-08 1.58019e+07)
(-1.27882e+08 -921024 -1.02549e-08 -4.98753e+06 1.31671e-08 1.97109e+07)
(-1.15288e+08 1.94176e+06 1.28916e-07 -6.82984e+06 5.36579e-08 2.11699e+07)
(-1.13404e+08 -3.67593e+06 8.98172e-09 -4.40186e+06 -1.41738e-08 2.48054e+07)
(-1.01366e+08 -827653 1.37958e-07 -6.10183e+06 2.10366e-08 2.63725e+07)
(-9.9514e+07 -6.24599e+06 0 -3.54166e+06 0 2.97371e+07)
(-8.80071e+07 -3.43026e+06 1.55891e-08 -5.10856e+06 3.53336e-08 3.14046e+07)
(-8.61802e+07 -8.6303e+06 1.41866e-07 -2.42981e+06 5.8823e-08 3.4489e+07)
(-7.51835e+07 -5.86417e+06 6.04321e-08 -3.87478e+06 -1.9502e-09 3.62469e+07)
(-7.33746e+07 -1.08328e+07 1.17256e-07 -1.08791e+06 8.02557e-10 3.90419e+07)
(-6.28686e+07 -8.13181e+06 1.44104e-07 -2.4204e+06 6.53434e-08 4.08843e+07)
(-6.10729e+07 -1.28595e+07 1.89421e-07 462397 1.07073e-07 4.33796e+07)
(-5.10399e+07 -1.02388e+07 1.29815e-07 -762223 8.04862e-08 4.53048e+07)
(-4.9254e+07 -1.47178e+07 1.7854e-07 2.20002e+06 8.58054e-08 4.75025e+07)
(-3.96772e+07 -1.21933e+07 1.24099e-07 1.0841e+06 5.94511e-08 4.94989e+07)
(-3.79029e+07 -1.6414e+07 8.08213e-08 4.10342e+06 9.0726e-08 5.14085e+07)
(-2.8763e+07 -1.40027e+07 -3.88395e-08 3.1004e+06 -7.39775e-08 5.34446e+07)
(-2.70117e+07 -1.79493e+07 -1.13367e-07 6.14794e+06 -8.31484e-08 5.5066e+07)
(-1.82866e+07 -1.56694e+07 -1.16638e-07 5.26347e+06 -4.48468e-08 5.71002e+07)
(-1.65757e+07 -1.93208e+07 -2.07433e-08 8.30439e+06 -2.01681e-08 5.84257e+07)
(-8.24356e+06 -1.71922e+07 -2.77582e-08 7.54736e+06 1.09228e-08 6.04243e+07)
(-6.58908e+06 -2.0526e+07 2.77066e-08 1.05428e+07 9.78365e-09 6.14723e+07)
(1.37509e+06 -1.85727e+07 0 9.92685e+06 0 6.34e+07)
(2.94709e+06 -2.15593e+07 2.19395e-08 1.28324e+07 -8.87809e-09 6.41928e+07)
(1.05774e+07 -1.9809e+07 1.0045e-07 1.23713e+07 6.70974e-08 6.59862e+07)
(1.20215e+07 -2.24059e+07 7.85022e-08 1.51366e+07 6.69866e-08 6.65179e+07)
(1.93578e+07 -2.08878e+07 1.31322e-08 1.48414e+07 -1.33824e-08 6.81181e+07)
(2.06276e+07 -2.30512e+07 0 1.74166e+07 0 6.8395e+07)
(2.77074e+07 -2.1793e+07 1.4216e-08 1.72953e+07 3.53354e-09 6.97642e+07)
(2.87589e+07 -2.34831e+07 -7.68339e-09 1.96368e+07 1.17309e-08 6.98137e+07)
(3.56245e+07 -2.25116e+07 -7.43211e-08 1.96924e+07 -7.13649e-08 7.08998e+07)
(3.63951e+07 -2.36808e+07 -7.61109e-08 2.17576e+07 -6.21751e-08 7.07209e+07)
(4.30933e+07 -2.30201e+07 1.16504e-08 2.19845e+07 3.21038e-08 7.148e+07)
(4.35238e+07 -2.36263e+07 -8.90346e-09 2.37406e+07 -1.49435e-08 7.10842e+07)
(5.00969e+07 -2.32927e+07 4.44835e-08 2.41217e+07 2.36867e-08 7.15097e+07)
(5.01351e+07 -2.33053e+07 3.96934e-08 2.55519e+07 2.65717e-08 7.09136e+07)
(5.66185e+07 -2.33045e+07 -1.29018e-08 2.60558e+07 -1.79784e-08 7.09978e+07)
(5.62143e+07 -2.27014e+07 -1.23543e-08 2.71584e+07 -1.69596e-08 7.01991e+07)
(6.26332e+07 -2.3026e+07 2.26475e-08 2.77385e+07 1.24435e-08 6.9983e+07)
(6.17646e+07 -2.18117e+07 2.2926e-09 2.85371e+07 -1.28527e-08 6.89927e+07)
(6.81314e+07 -2.24409e+07 -1.86439e-08 2.91357e+07 -3.21967e-08 6.85341e+07)
(6.67889e+07 -2.06368e+07 1.76891e-08 2.96721e+07 2.6545e-09 6.73628e+07)
(7.31071e+07 -2.15388e+07 -2.79205e-08 3.02237e+07 -2.17875e-08 6.6744e+07)
(7.13056e+07 -1.91869e+07 -9.26829e-09 3.05558e+07 -1.09131e-08 6.53947e+07)
(7.75625e+07 -2.03202e+07 -7.01076e-09 3.09954e+07 6.70798e-09 6.47086e+07)
(7.53427e+07 -1.74842e+07 1.16392e-08 3.11934e+07 1.89938e-08 6.32027e+07)
(8.15202e+07 -1.88053e+07 3.55963e-08 3.14663e+07 2.42262e-08 6.25412e+07)
(7.89371e+07 -1.55598e+07 0 3.1601e+07 0 6.0887e+07)
(8.50006e+07 -1.70243e+07 3.33079e-08 3.1669e+07 4.7309e-08 6.0321e+07)
(8.21274e+07 -1.34505e+07 9.20012e-08 3.18037e+07 7.82859e-08 5.85413e+07)
(8.80491e+07 -1.50178e+07 1.0281e-07 3.16466e+07 6.1065e-08 5.81411e+07)
(8.49461e+07 -1.11912e+07 -7.7664e-08 3.18295e+07 -4.28674e-08 5.62621e+07)
(9.07045e+07 -1.28346e+07 -1.45486e-07 3.14494e+07 -1.46914e-07 5.60259e+07)
(8.74389e+07 -8.82065e+06 -4.13396e-08 3.17104e+07 -7.16447e-08 5.40657e+07)
(9.29938e+07 -1.05194e+07 -7.47029e-08 3.11278e+07 -2.91543e-08 5.40185e+07)
(8.96128e+07 -6.36666e+06 2.95634e-08 3.14753e+07 3.45151e-08 5.20097e+07)
(9.49701e+07 -8.1133e+06 2.06609e-08 3.07265e+07 7.92409e-09 5.20898e+07)
(9.1506e+07 -3.85473e+06 2.10374e-08 3.11505e+07 1.97478e-08 5.00568e+07)
(9.66397e+07 -5.65004e+06 0 3.02818e+07 0 5.02287e+07)
(9.31108e+07 -1.31222e+06 1.73947e-08 3.07653e+07 6.89859e-09 4.82091e+07)
(9.80575e+07 -3.16256e+06 3.43836e-08 2.98205e+07 4.42387e-08 4.84097e+07)