/*--------------------------------*- C++ -*----------------------------------*\
| =========                 |                                                 |
| \\      /  F ield         | OpenFOAM: The Open Source CFD Toolbox           |
|  \\    /   O peration     | Version:  v2012                                 |
|   \\  /    A nd           | Website:  www.openfoam.com                      |
|    \\/     M anipulation  |                                                 |
\*---------------------------------------------------------------------------*/
FoamFile
{
    version     2.0;
    format      ascii;
    class       pointScalarField;
    location    "1";
    object      pEpsilonEq;
}
// * * * * * * * * * * * * * * * * * * * * * * * * * * * * * * * * * * * * * //

dimensions      [0 0 0 0 0 0 0];


internalField   nonuniform List<scalar> 
72837
(
3.66732e-06
3.97002e-06
1.36422e-05
4.04121e-05
3.85337e-05
2.48783e-07
2.001e-07
5.28255e-07
2.77714e-07
1.31162e-05
1.04022e-05
1.93439e-05
5.46921e-05
5.62518e-06
9.4296e-06
6.95326e-06
7.79942e-06
3.09069e-06
3.11209e-06
3.21474e-05
1.87348e-05
5.6081e-06
4.21222e-05
2.04354e-05
1.50856e-05
3.85337e-05
6.95326e-06
7.79942e-06
4.04121e-05
5.28261e-07
1.31162e-05
1.50856e-05
2.04354e-05
1.93439e-05
1.36422e-05
5.6081e-06
1.87348e-05
3.11209e-06
9.4296e-06
3.09069e-06
2.77709e-07
3.97002e-06
3.66732e-06
1.04022e-05
2.48783e-07
4.21223e-05
5.46921e-05
3.21474e-05
5.62514e-06
2.00097e-07
3.66613e-06
3.66775e-06
3.67515e-06
3.68816e-06
3.70584e-06
3.72706e-06
3.75072e-06
3.77581e-06
3.80144e-06
3.82684e-06
3.85137e-06
3.87448e-06
3.89571e-06
3.91472e-06
3.93122e-06
3.94498e-06
3.95583e-06
3.96367e-06
3.9684e-06
3.95131e-06
3.93067e-06
3.91211e-06
3.89541e-06
3.88037e-06
3.86681e-06
3.85454e-06
3.84339e-06
3.8332e-06
3.8238e-06
3.81505e-06
3.80678e-06
3.79886e-06
3.79113e-06
3.78346e-06
3.77569e-06
3.76769e-06
3.75932e-06
3.75041e-06
3.74084e-06
3.73044e-06
3.71906e-06
3.70654e-06
3.6927e-06
3.67738e-06
3.6604e-06
3.64156e-06
3.62068e-06
3.59755e-06
3.57195e-06
3.54366e-06
3.51246e-06
3.47809e-06
3.44032e-06
3.39889e-06
3.35353e-06
3.30398e-06
3.24999e-06
3.19133e-06
2.955e-06
2.78525e-06
2.59061e-06
2.37095e-06
2.12797e-06
1.86742e-06
1.60361e-06
1.36837e-06
1.22384e-06
1.25188e-06
1.48407e-06
1.87428e-06
2.36128e-06
2.9003e-06
3.45867e-06
4.00867e-06
4.52403e-06
4.97888e-06
5.34808e-06
1.37788e-05
1.38317e-05
1.39812e-05
1.4185e-05
1.44338e-05
1.47209e-05
1.50382e-05
1.53755e-05
1.572e-05
1.6057e-05
1.63692e-05
1.66378e-05
1.6843e-05
1.69645e-05
1.69832e-05
1.6882e-05
1.66476e-05
1.62712e-05
1.57496e-05
8.37017e-06
8.96527e-06
9.53979e-06
1.01032e-05
1.06594e-05
1.12102e-05
1.17567e-05
1.22998e-05
1.284e-05
1.33775e-05
1.39127e-05
1.44457e-05
1.49764e-05
1.5505e-05
1.60314e-05
1.65555e-05
1.70772e-05
1.75964e-05
1.81132e-05
1.86274e-05
1.91391e-05
1.96486e-05
2.01562e-05
2.06625e-05
2.11687e-05
2.16764e-05
2.21881e-05
2.27077e-05
2.32408e-05
2.37956e-05
2.43846e-05
2.5026e-05
2.57476e-05
2.65917e-05
2.76237e-05
2.89472e-05
3.07304e-05
3.32862e-05
3.7563e-05
2.39055e-05
1.77959e-05
1.43159e-05
1.18272e-05
9.8439e-06
8.18595e-06
6.78741e-06
5.64896e-06
4.83104e-06
4.44206e-06
4.569e-06
5.18786e-06
6.1955e-06
7.50774e-06
9.10174e-06
1.10273e-05
1.34494e-05
1.68279e-05
2.2723e-05
3.58523e-05
3.18206e-05
2.94059e-05
2.77133e-05
2.64497e-05
2.54573e-05
2.46393e-05
2.39344e-05
2.33029e-05
2.27191e-05
2.2166e-05
2.1632e-05
2.11097e-05
2.05939e-05
2.00811e-05
1.95693e-05
1.90569e-05
1.85431e-05
1.80274e-05
1.75095e-05
1.69894e-05
1.64671e-05
1.59428e-05
1.54167e-05
1.48889e-05
1.43597e-05
1.38292e-05
1.32978e-05
1.27656e-05
1.22329e-05
1.16998e-05
1.11665e-05
1.06333e-05
1.01002e-05
9.56753e-06
9.03541e-06
8.50407e-06
7.9739e-06
7.44593e-06
6.55389e-06
6.1869e-06
5.82161e-06
5.45715e-06
5.09346e-06
4.73071e-06
4.36918e-06
4.00917e-06
3.65102e-06
3.29512e-06
2.94193e-06
2.59207e-06
2.24635e-06
1.90602e-06
1.57317e-06
1.25167e-06
9.49973e-07
6.89509e-07
5.2721e-07
5.48994e-07
7.3214e-07
9.85348e-07
1.26243e-06
1.54619e-06
1.82929e-06
2.10786e-06
2.37939e-06
2.64188e-06
2.89352e-06
3.13248e-06
3.35681e-06
3.56433e-06
3.75257e-06
3.91866e-06
4.05923e-06
4.17032e-06
4.2472e-06
4.28425e-06
4.27469e-06
4.21044e-06
4.08185e-06
3.87752e-06
3.58441e-06
3.1884e-06
2.67657e-06
2.04319e-06
1.30669e-06
3.4564e-07
3.66641e-07
1.52302e-07
5.07056e-07
4.97127e-07
3.30192e-07
1.81472e-07
5.60429e-07
9.42581e-07
1.28452e-06
1.57895e-06
1.82763e-06
2.03536e-06
2.20766e-06
2.34987e-06
2.46678e-06
2.56256e-06
2.64075e-06
2.70435e-06
2.75589e-06
2.79747e-06
2.83086e-06
2.85755e-06
2.87876e-06
2.89554e-06
2.90874e-06
2.91911e-06
2.92724e-06
2.93365e-06
2.93876e-06
2.94293e-06
2.94645e-06
2.94957e-06
2.95249e-06
2.95538e-06
2.95838e-06
2.9616e-06
2.96513e-06
2.96903e-06
2.97337e-06
2.97819e-06
2.98351e-06
2.98936e-06
2.99575e-06
3.00268e-06
3.01016e-06
3.01818e-06
3.02674e-06
3.03583e-06
3.04544e-06
3.05557e-06
3.06622e-06
3.07744e-06
3.10585e-06
3.12155e-06
3.13811e-06
3.15544e-06
3.17342e-06
3.19195e-06
3.21096e-06
3.23035e-06
3.25005e-06
3.26998e-06
3.29008e-06
3.31029e-06
3.33054e-06
3.35078e-06
3.37095e-06
3.39099e-06
3.41086e-06
3.4305e-06
3.44985e-06
3.46886e-06
3.48747e-06
3.50563e-06
3.52327e-06
3.54033e-06
3.55673e-06
3.57242e-06
3.5873e-06
3.60129e-06
3.61429e-06
3.62622e-06
3.63696e-06
3.64641e-06
3.65446e-06
3.66099e-06
3.66591e-06
3.66916e-06
3.6707e-06
3.6706e-06
3.66908e-06
3.19981e-06
3.31487e-06
3.41532e-06
3.49805e-06
3.56118e-06
3.60383e-06
3.62603e-06
3.62864e-06
3.61329e-06
3.58225e-06
3.53834e-06
3.48479e-06
3.42513e-06
3.36306e-06
3.3023e-06
3.24644e-06
3.19879e-06
3.16222e-06
3.13907e-06
6.56387e-06
6.65759e-06
7.11564e-06
7.76121e-06
8.4607e-06
9.12778e-06
9.70869e-06
1.01695e-05
1.04886e-05
1.06528e-05
1.06553e-05
1.04963e-05
1.01833e-05
9.73409e-06
9.1817e-06
8.58286e-06
8.03037e-06
7.6627e-06
7.62532e-06
1.30705e-05
1.29052e-05
1.25549e-05
1.21626e-05
1.17938e-05
1.14773e-05
1.12234e-05
1.10327e-05
1.09008e-05
1.08204e-05
1.07834e-05
1.07809e-05
1.08048e-05
1.08472e-05
1.0901e-05
1.09598e-05
1.1018e-05
1.10707e-05
1.11135e-05
1.11427e-05
1.1155e-05
1.11476e-05
1.11182e-05
1.10646e-05
1.09853e-05
1.08789e-05
1.07444e-05
1.05812e-05
1.03891e-05
1.01682e-05
9.91924e-06
9.64339e-06
9.34258e-06
9.01954e-06
8.67805e-06
8.32321e-06
7.96177e-06
7.6026e-06
7.25715e-06
6.93996e-06
6.66894e-06
6.46516e-06
6.35167e-06
6.3514e-06
6.48461e-06
6.76838e-06
7.22255e-06
1.05885e-05
1.16736e-05
1.23954e-05
4.17089e-05
3.12255e-05
2.42959e-05
1.39852e-05
1.06816e-05
8.59177e-06
7.16059e-06
6.10749e-06
5.28557e-06
4.61311e-06
4.04194e-06
3.54222e-06
3.09486e-06
2.68759e-06
2.31306e-06
1.96817e-06
1.65471e-06
1.38155e-06
1.16859e-06
1.04875e-06
1.05399e-06
1.1852e-06
1.41161e-06
1.70011e-06
2.02904e-06
2.38629e-06
2.76523e-06
3.16205e-06
3.57442e-06
4.00076e-06
4.43984e-06
4.8906e-06
5.35201e-06
5.823e-06
6.30242e-06
6.78903e-06
7.28148e-06
7.7783e-06
8.2779e-06
8.77861e-06
9.27866e-06
9.77621e-06
1.02693e-05
1.07561e-05
1.12345e-05
1.17023e-05
1.21571e-05
1.25961e-05
1.30151e-05
1.34081e-05
8.67674e-06
7.88001e-06
6.58603e-06
9.62465e-06
9.66686e-06
9.4886e-06
9.20395e-06
8.87007e-06
8.51682e-06
8.16011e-06
7.80838e-06
7.46598e-06
7.13497e-06
6.81619e-06
6.50982e-06
6.21568e-06
5.93347e-06
5.66284e-06
5.40347e-06
5.15512e-06
4.9176e-06
4.69084e-06
4.47484e-06
4.26971e-06
4.07564e-06
3.89288e-06
3.72178e-06
3.56273e-06
3.41615e-06
3.28249e-06
3.16217e-06
3.05557e-06
2.96297e-06
2.88453e-06
2.82025e-06
2.76994e-06
2.7332e-06
2.70943e-06
2.69782e-06
2.69741e-06
2.70712e-06
2.72577e-06
2.75215e-06
2.78506e-06
2.82332e-06
2.86583e-06
2.91154e-06
2.95951e-06
3.00884e-06
3.0587e-06
2.33017e-07
3.25649e-07
3.78899e-07
3.89183e-07
3.79771e-07
4.00916e-07
5.17231e-07
7.51327e-07
1.09081e-06
1.52426e-06
2.04628e-06
2.65433e-06
3.34681e-06
4.12223e-06
4.9789e-06
5.91484e-06
6.92777e-06
8.01513e-06
9.17422e-06
1.37654e-05
1.43992e-05
1.50019e-05
1.55765e-05
1.61235e-05
1.6642e-05
1.71309e-05
1.75889e-05
1.80148e-05
1.84074e-05
1.87658e-05
1.90894e-05
1.93777e-05
1.96305e-05
1.98481e-05
2.00309e-05
2.01797e-05
2.02957e-05
2.03803e-05
1.9406e-05
1.95004e-05
1.95902e-05
1.96738e-05
1.97496e-05
1.98158e-05
1.98704e-05
1.99114e-05
1.99369e-05
1.99449e-05
1.99335e-05
1.99009e-05
1.98457e-05
1.97663e-05
1.96617e-05
1.95308e-05
1.93731e-05
1.9188e-05
1.89752e-05
4.80843e-06
4.05572e-06
3.36789e-06
2.74591e-06
2.19104e-06
1.70497e-06
1.29044e-06
9.52316e-07
6.99298e-07
5.42709e-07
4.81418e-07
4.82702e-07
5.02246e-07
5.11963e-07
4.9992e-07
4.62314e-07
3.98494e-07
3.09899e-07
2.10024e-07
1.02904e-06
1.63749e-06
2.21169e-06
2.77084e-06
3.33093e-06
3.90228e-06
4.4907e-06
5.09861e-06
5.72615e-06
6.37187e-06
7.03334e-06
7.70752e-06
8.39102e-06
9.08022e-06
9.77131e-06
1.04602e-05
1.11425e-05
1.18124e-05
1.24619e-05
1.16964e-05
1.30535e-05
1.44701e-05
1.5942e-05
1.74643e-05
1.90318e-05
2.06386e-05
2.22788e-05
2.39461e-05
2.5634e-05
2.73357e-05
2.90445e-05
3.07533e-05
3.24551e-05
3.41428e-05
3.58092e-05
3.74473e-05
3.90501e-05
4.06106e-05
5.42675e-05
5.37453e-05
5.31285e-05
5.24203e-05
5.1624e-05
5.07435e-05
4.97825e-05
4.87451e-05
4.76359e-05
4.64594e-05
4.52206e-05
4.39244e-05
4.25763e-05
4.11816e-05
3.97457e-05
3.82745e-05
3.67734e-05
3.52481e-05
3.37042e-05
8.84189e-06
8.26806e-06
7.68845e-06
7.10973e-06
6.53637e-06
5.97189e-06
5.41939e-06
4.88174e-06
4.36163e-06
3.86151e-06
3.38347e-06
2.92897e-06
2.49851e-06
2.09117e-06
1.70406e-06
1.3316e-06
9.65001e-07
5.92077e-07
2.09306e-07
2.62081e-05
2.2281e-05
2.00434e-05
1.72314e-05
1.61519e-05
1.52637e-05
1.4497e-05
1.38181e-05
1.32082e-05
1.26549e-05
1.21496e-05
1.16856e-05
1.12577e-05
1.08615e-05
1.04936e-05
1.01508e-05
9.83076e-06
9.53115e-06
9.25017e-06
8.9862e-06
8.73784e-06
8.50389e-06
8.2833e-06
8.07514e-06
7.8786e-06
7.69299e-06
7.51767e-06
7.35211e-06
7.19582e-06
7.04838e-06
6.90942e-06
6.77861e-06
6.65566e-06
6.54031e-06
6.43234e-06
6.33157e-06
6.23781e-06
6.15091e-06
6.07075e-06
5.99722e-06
5.93021e-06
5.86965e-06
5.81546e-06
5.7676e-06
5.72601e-06
5.69066e-06
5.66152e-06
5.63859e-06
5.62185e-06
5.61132e-06
3.30925e-05
2.66216e-05
2.27902e-05
1.44414e-05
1.37667e-05
1.31512e-05
1.25919e-05
1.2086e-05
1.1631e-05
1.12244e-05
1.08635e-05
1.05461e-05
1.02697e-05
1.00318e-05
9.83011e-06
9.66215e-06
9.52552e-06
9.41788e-06
9.33692e-06
9.28044e-06
9.24636e-06
9.23275e-06
9.23783e-06
9.26e-06
9.29787e-06
9.35025e-06
9.41617e-06
9.49488e-06
9.58586e-06
9.68884e-06
9.80377e-06
9.93088e-06
1.00707e-05
1.02239e-05
1.03916e-05
1.05754e-05
1.07769e-05
1.09985e-05
1.12432e-05
1.15143e-05
1.18162e-05
1.21545e-05
1.25361e-05
1.29702e-05
1.34693e-05
1.40511e-05
1.47427e-05
1.55892e-05
1.66717e-05
1.81542e-05
4.35783e-05
4.49726e-05
4.62991e-05
4.7552e-05
4.87262e-05
4.98167e-05
5.08189e-05
5.17288e-05
5.2543e-05
5.32584e-05
5.38726e-05
5.43835e-05
5.47898e-05
5.50907e-05
5.52858e-05
5.53753e-05
5.53597e-05
5.52398e-05
5.50169e-05
3.05831e-05
2.90167e-05
2.74536e-05
2.58988e-05
2.43573e-05
2.28339e-05
2.13333e-05
1.98599e-05
1.84178e-05
1.70113e-05
1.56439e-05
1.43195e-05
1.30413e-05
1.18126e-05
1.06363e-05
9.51519e-06
8.45167e-06
7.44781e-06
6.50526e-06
2.0463e-05
2.04656e-05
2.04459e-05
2.04068e-05
2.03514e-05
2.02828e-05
2.02043e-05
2.01191e-05
2.00302e-05
1.99405e-05
1.98527e-05
1.97688e-05
1.96907e-05
1.96195e-05
1.95559e-05
1.94997e-05
1.94499e-05
1.94046e-05
1.9361e-05
1.8467e-05
1.81722e-05
1.7851e-05
1.75042e-05
1.71328e-05
1.67378e-05
1.63204e-05
1.58817e-05
1.54231e-05
1.4946e-05
1.44517e-05
1.39416e-05
1.3417e-05
1.28794e-05
1.23299e-05
1.17696e-05
1.1199e-05
1.06177e-05
1.00231e-05
1.42873e-05
1.33681e-05
1.23447e-05
1.12363e-05
1.00628e-05
8.84327e-06
7.59512e-06
6.33329e-06
5.06991e-06
3.81447e-06
2.57483e-06
1.36249e-06
3.2978e-07
1.12061e-06
2.27517e-06
3.43211e-06
4.58674e-06
5.7548e-06
7.01483e-06
5.73827e-06
5.72198e-06
5.54762e-06
5.20919e-06
4.70645e-06
4.04476e-06
3.23491e-06
2.29441e-06
1.26073e-06
4.85961e-07
1.38259e-06
2.68151e-06
4.05985e-06
5.47761e-06
6.91039e-06
8.3353e-06
9.7276e-06
1.10576e-05
1.22806e-05
3.58523e-05
3.18206e-05
2.94059e-05
2.77133e-05
2.64497e-05
2.54573e-05
2.46393e-05
2.39344e-05
2.33029e-05
2.27191e-05
2.2166e-05
2.1632e-05
2.11097e-05
2.05939e-05
2.00811e-05
1.95693e-05
1.90569e-05
1.85431e-05
1.80274e-05
1.75095e-05
1.69894e-05
1.64671e-05
1.59428e-05
1.54167e-05
1.48889e-05
1.43597e-05
1.38292e-05
1.32978e-05
1.27656e-05
1.22329e-05
1.16998e-05
1.11665e-05
1.06333e-05
1.01002e-05
9.56753e-06
9.03541e-06
8.50407e-06
7.9739e-06
7.44593e-06
6.56387e-06
6.65759e-06
7.11564e-06
7.76121e-06
8.4607e-06
9.12778e-06
9.70869e-06
1.01695e-05
1.04886e-05
1.06528e-05
1.06553e-05
1.04963e-05
1.01833e-05
9.73409e-06
9.1817e-06
8.58286e-06
8.03037e-06
7.6627e-06
7.62532e-06
8.37017e-06
8.96527e-06
9.53979e-06
1.01032e-05
1.06594e-05
1.12102e-05
1.17567e-05
1.22998e-05
1.284e-05
1.33775e-05
1.39127e-05
1.44457e-05
1.49764e-05
1.5505e-05
1.60314e-05
1.65555e-05
1.70772e-05
1.75964e-05
1.81132e-05
1.86274e-05
1.91391e-05
1.96486e-05
2.01562e-05
2.06625e-05
2.11687e-05
2.16764e-05
2.21881e-05
2.27077e-05
2.32408e-05
2.37956e-05
2.43846e-05
2.5026e-05
2.57476e-05
2.65917e-05
2.76237e-05
2.89472e-05
3.07304e-05
3.32862e-05
3.7563e-05
2.39055e-05
1.77959e-05
1.43159e-05
1.18272e-05
9.8439e-06
8.18595e-06
6.78741e-06
5.64896e-06
4.83104e-06
4.44206e-06
4.569e-06
5.18786e-06
6.1955e-06
7.50774e-06
9.10174e-06
1.10273e-05
1.34494e-05
1.68279e-05
2.2723e-05
3.85337e-05
3.85337e-05
3.85337e-05
3.85337e-05
3.85337e-05
3.85337e-05
3.85337e-05
6.95326e-06
6.95326e-06
6.95326e-06
6.95326e-06
6.95326e-06
6.95326e-06
6.95326e-06
7.79942e-06
7.79942e-06
7.79942e-06
7.79942e-06
7.79942e-06
7.79942e-06
7.79942e-06
4.04121e-05
4.04121e-05
4.04121e-05
4.04121e-05
4.04121e-05
4.04121e-05
4.04121e-05
6.55389e-06
6.1869e-06
5.82161e-06
5.45715e-06
5.09346e-06
4.73071e-06
4.36918e-06
4.00917e-06
3.65102e-06
3.29512e-06
2.94193e-06
2.59206e-06
2.24635e-06
1.90602e-06
1.57317e-06
1.25167e-06
9.49972e-07
6.89509e-07
5.2721e-07
5.48995e-07
7.3214e-07
9.85348e-07
1.26243e-06
1.54619e-06
1.82929e-06
2.10786e-06
2.37939e-06
2.64188e-06
2.89352e-06
3.13248e-06
3.35681e-06
3.56433e-06
3.75257e-06
3.91866e-06
4.05923e-06
4.17032e-06
4.24721e-06
4.28425e-06
4.2747e-06
4.21045e-06
4.08186e-06
3.87753e-06
3.58441e-06
3.18841e-06
2.67657e-06
2.04319e-06
1.3067e-06
1.02905e-06
1.63749e-06
2.2117e-06
2.77085e-06
3.33094e-06
3.90229e-06
4.4907e-06
5.09862e-06
5.72616e-06
6.37188e-06
7.03334e-06
7.70753e-06
8.39103e-06
9.08022e-06
9.77131e-06
1.04602e-05
1.11425e-05
1.18124e-05
1.24619e-05
1.30705e-05
1.29052e-05
1.25549e-05
1.21626e-05
1.17938e-05
1.14773e-05
1.12234e-05
1.10327e-05
1.09008e-05
1.08204e-05
1.07834e-05
1.07809e-05
1.08048e-05
1.08472e-05
1.0901e-05
1.09598e-05
1.1018e-05
1.10707e-05
1.11135e-05
1.11427e-05
1.1155e-05
1.11476e-05
1.11182e-05
1.10646e-05
1.09853e-05
1.08789e-05
1.07444e-05
1.05812e-05
1.03891e-05
1.01682e-05
9.91924e-06
9.64339e-06
9.34258e-06
9.01953e-06
8.67805e-06
8.32321e-06
7.96177e-06
7.6026e-06
7.25715e-06
6.93996e-06
6.66894e-06
6.46516e-06
6.35167e-06
6.3514e-06
6.48461e-06
6.76838e-06
7.22255e-06
5.28255e-07
5.28256e-07
5.28257e-07
5.28261e-07
5.28262e-07
5.28264e-07
5.28263e-07
1.31162e-05
1.31162e-05
1.31162e-05
1.31162e-05
1.31162e-05
1.31162e-05
1.31162e-05
7.01483e-06
5.7548e-06
4.58674e-06
3.43211e-06
2.27517e-06
1.12061e-06
3.2978e-07
1.36249e-06
2.57483e-06
3.81448e-06
5.06991e-06
6.33329e-06
7.59512e-06
8.84327e-06
1.00628e-05
1.12363e-05
1.23447e-05
1.33681e-05
1.42873e-05
1.44414e-05
1.37667e-05
1.31512e-05
1.25919e-05
1.2086e-05
1.1631e-05
1.12244e-05
1.08635e-05
1.05461e-05
1.02697e-05
1.00318e-05
9.83011e-06
9.66215e-06
9.52552e-06
9.41788e-06
9.33692e-06
9.28044e-06
9.24636e-06
9.23275e-06
9.23783e-06
9.26e-06
9.29787e-06
9.35025e-06
9.41617e-06
9.49488e-06
9.58586e-06
9.68884e-06
9.80377e-06
9.93088e-06
1.00707e-05
1.02239e-05
1.03916e-05
1.05754e-05
1.07769e-05
1.09985e-05
1.12432e-05
1.15143e-05
1.18162e-05
1.21545e-05
1.25361e-05
1.29702e-05
1.34693e-05
1.40511e-05
1.47428e-05
1.55892e-05
1.66717e-05
1.81542e-05
2.03803e-05
2.02957e-05
2.01798e-05
2.00309e-05
1.98481e-05
1.96305e-05
1.93777e-05
1.90894e-05
1.87658e-05
1.84074e-05
1.80148e-05
1.75889e-05
1.71309e-05
1.6642e-05
1.61235e-05
1.55765e-05
1.50019e-05
1.43992e-05
1.37654e-05
1.50856e-05
1.50856e-05
1.50856e-05
1.50856e-05
1.50856e-05
1.50856e-05
1.50856e-05
2.04354e-05
2.04354e-05
2.04354e-05
2.04354e-05
2.04354e-05
2.04354e-05
2.04354e-05
2.0463e-05
2.04656e-05
2.04459e-05
2.04068e-05
2.03514e-05
2.02828e-05
2.02043e-05
2.01191e-05
2.00302e-05
1.99405e-05
1.98527e-05
1.97688e-05
1.96907e-05
1.96195e-05
1.95559e-05
1.94997e-05
1.94499e-05
1.94046e-05
1.9361e-05
1.39852e-05
1.06816e-05
8.59178e-06
7.16059e-06
6.10749e-06
5.28557e-06
4.61312e-06
4.04194e-06
3.54222e-06
3.09486e-06
2.68759e-06
2.31306e-06
1.96817e-06
1.65471e-06
1.38155e-06
1.16859e-06
1.04875e-06
1.05399e-06
1.1852e-06
1.41161e-06
1.70011e-06
2.02904e-06
2.38629e-06
2.76523e-06
3.16205e-06
3.57442e-06
4.00076e-06
4.43984e-06
4.8906e-06
5.35201e-06
5.823e-06
6.30242e-06
6.78903e-06
7.28148e-06
7.7783e-06
8.2779e-06
8.77861e-06
9.27866e-06
9.77621e-06
1.02693e-05
1.07561e-05
1.12345e-05
1.17023e-05
1.21571e-05
1.25961e-05
1.30151e-05
1.34081e-05
1.37788e-05
1.38317e-05
1.39812e-05
1.4185e-05
1.44338e-05
1.47209e-05
1.50382e-05
1.53755e-05
1.572e-05
1.6057e-05
1.63692e-05
1.66378e-05
1.6843e-05
1.69645e-05
1.69832e-05
1.6882e-05
1.66476e-05
1.62712e-05
1.57496e-05
1.93439e-05
1.93439e-05
1.93439e-05
1.93439e-05
1.93439e-05
1.93439e-05
1.93439e-05
1.36422e-05
1.36422e-05
1.36422e-05
1.36422e-05
1.36422e-05
1.36422e-05
1.36422e-05
1.22806e-05
1.10576e-05
9.7276e-06
8.3353e-06
6.91039e-06
5.47761e-06
4.05985e-06
2.68151e-06
1.38259e-06
4.85961e-07
1.26073e-06
2.29441e-06
3.23491e-06
4.04476e-06
4.70645e-06
5.20919e-06
5.54762e-06
5.72198e-06
5.73827e-06
5.61132e-06
5.62185e-06
5.63859e-06
5.66152e-06
5.69066e-06
5.72601e-06
5.7676e-06
5.81546e-06
5.86965e-06
5.93021e-06
5.99722e-06
6.07075e-06
6.15091e-06
6.23781e-06
6.33157e-06
6.43234e-06
6.54031e-06
6.65566e-06
6.77861e-06
6.90942e-06
7.04838e-06
7.19582e-06
7.35211e-06
7.51767e-06
7.69299e-06
7.8786e-06
8.07514e-06
8.2833e-06
8.50389e-06
8.73784e-06
8.9862e-06
9.25017e-06
9.53115e-06
9.83075e-06
1.01508e-05
1.04936e-05
1.08615e-05
1.12577e-05
1.16856e-05
1.21496e-05
1.26549e-05
1.32082e-05
1.38181e-05
1.4497e-05
1.52637e-05
1.61519e-05
1.72314e-05
1.89752e-05
1.9188e-05
1.93731e-05
1.95308e-05
1.96617e-05
1.97663e-05
1.98457e-05
1.99009e-05
1.99335e-05
1.99449e-05
1.99369e-05
1.99114e-05
1.98704e-05
1.98158e-05
1.97496e-05
1.96738e-05
1.95902e-05
1.95004e-05
1.9406e-05
5.6081e-06
5.6081e-06
5.6081e-06
5.60809e-06
5.60809e-06
5.6081e-06
5.6081e-06
1.87348e-05
1.87348e-05
1.87348e-05
1.87348e-05
1.87348e-05
1.87348e-05
1.87348e-05
5.34808e-06
4.97888e-06
4.52403e-06
4.00867e-06
3.45867e-06
2.9003e-06
2.36128e-06
1.87428e-06
1.48407e-06
1.25188e-06
1.22384e-06
1.36837e-06
1.60361e-06
1.86742e-06
2.12797e-06
2.37095e-06
2.59061e-06
2.78525e-06
2.955e-06
3.0587e-06
3.00884e-06
2.95951e-06
2.91154e-06
2.86583e-06
2.82332e-06
2.78506e-06
2.75215e-06
2.72577e-06
2.70712e-06
2.69741e-06
2.69782e-06
2.70943e-06
2.7332e-06
2.76994e-06
2.82025e-06
2.88453e-06
2.96297e-06
3.05557e-06
3.16217e-06
3.28249e-06
3.41615e-06
3.56273e-06
3.72178e-06
3.89288e-06
4.07564e-06
4.26971e-06
4.47484e-06
4.69084e-06
4.9176e-06
5.15512e-06
5.40347e-06
5.66284e-06
5.93347e-06
6.21568e-06
6.50982e-06
6.81619e-06
7.13497e-06
7.46597e-06
7.80838e-06
8.16011e-06
8.51682e-06
8.87007e-06
9.20395e-06
9.4886e-06
9.66687e-06
9.62466e-06
1.00231e-05
1.06177e-05
1.1199e-05
1.17696e-05
1.23299e-05
1.28794e-05
1.3417e-05
1.39416e-05
1.44517e-05
1.4946e-05
1.54232e-05
1.58817e-05
1.63204e-05
1.67378e-05
1.71328e-05
1.75042e-05
1.7851e-05
1.81722e-05
1.8467e-05
3.11209e-06
3.11209e-06
3.11209e-06
3.11209e-06
3.11209e-06
3.11209e-06
3.11209e-06
9.4296e-06
9.4296e-06
9.4296e-06
9.4296e-06
9.4296e-06
9.4296e-06
9.4296e-06
3.13907e-06
3.16222e-06
3.19879e-06
3.24644e-06
3.3023e-06
3.36306e-06
3.42513e-06
3.48479e-06
3.53834e-06
3.58225e-06
3.61329e-06
3.62864e-06
3.62603e-06
3.60383e-06
3.56118e-06
3.49805e-06
3.41532e-06
3.31487e-06
3.19981e-06
3.07744e-06
3.06622e-06
3.05557e-06
3.04544e-06
3.03583e-06
3.02674e-06
3.01818e-06
3.01016e-06
3.00268e-06
2.99575e-06
2.98936e-06
2.98351e-06
2.97819e-06
2.97337e-06
2.96903e-06
2.96513e-06
2.9616e-06
2.95838e-06
2.95538e-06
2.95249e-06
2.94957e-06
2.94645e-06
2.94293e-06
2.93876e-06
2.93365e-06
2.92724e-06
2.91911e-06
2.90874e-06
2.89554e-06
2.87876e-06
2.85755e-06
2.83086e-06
2.79747e-06
2.75589e-06
2.70435e-06
2.64075e-06
2.56256e-06
2.46678e-06
2.34987e-06
2.20766e-06
2.03536e-06
1.82764e-06
1.57896e-06
1.28453e-06
9.42589e-07
5.60437e-07
1.81477e-07
2.09308e-07
5.92079e-07
9.65004e-07
1.33161e-06
1.70406e-06
2.09117e-06
2.49851e-06
2.92897e-06
3.38348e-06
3.86152e-06
4.36163e-06
4.88174e-06
5.41939e-06
5.9719e-06
6.53638e-06
7.10973e-06
7.68845e-06
8.26807e-06
8.84189e-06
3.09069e-06
3.0907e-06
3.0907e-06
3.0907e-06
3.0907e-06
3.09069e-06
3.09069e-06
2.77713e-07
2.77711e-07
2.7771e-07
2.77709e-07
2.77708e-07
2.77707e-07
2.77708e-07
3.95131e-06
3.93067e-06
3.91211e-06
3.89541e-06
3.88037e-06
3.86681e-06
3.85454e-06
3.84339e-06
3.8332e-06
3.8238e-06
3.81505e-06
3.80678e-06
3.79886e-06
3.79113e-06
3.78345e-06
3.77569e-06
3.76769e-06
3.75932e-06
3.75041e-06
3.74084e-06
3.73044e-06
3.71906e-06
3.70654e-06
3.6927e-06
3.67738e-06
3.6604e-06
3.64156e-06
3.62068e-06
3.59755e-06
3.57195e-06
3.54366e-06
3.51246e-06
3.47809e-06
3.44032e-06
3.39889e-06
3.35353e-06
3.30398e-06
3.24999e-06
3.19133e-06
3.10584e-06
3.12155e-06
3.13811e-06
3.15544e-06
3.17342e-06
3.19196e-06
3.21096e-06
3.23035e-06
3.25005e-06
3.26998e-06
3.29008e-06
3.31029e-06
3.33054e-06
3.35078e-06
3.37095e-06
3.39099e-06
3.41086e-06
3.4305e-06
3.44985e-06
3.46886e-06
3.48747e-06
3.50563e-06
3.52327e-06
3.54033e-06
3.55673e-06
3.57242e-06
3.5873e-06
3.60129e-06
3.61429e-06
3.62622e-06
3.63696e-06
3.64641e-06
3.65445e-06
3.66099e-06
3.66591e-06
3.66916e-06
3.6707e-06
3.6706e-06
3.66908e-06
3.66613e-06
3.66775e-06
3.67515e-06
3.68816e-06
3.70584e-06
3.72706e-06
3.75072e-06
3.77581e-06
3.80144e-06
3.82684e-06
3.85137e-06
3.87448e-06
3.89571e-06
3.91472e-06
3.93122e-06
3.94498e-06
3.95583e-06
3.96367e-06
3.9684e-06
3.97002e-06
3.97002e-06
3.97002e-06
3.97002e-06
3.97002e-06
3.97002e-06
3.97002e-06
3.66732e-06
3.66732e-06
3.66732e-06
3.66732e-06
3.66732e-06
3.66732e-06
3.66732e-06
1.23954e-05
1.16736e-05
1.05885e-05
9.17418e-06
8.01513e-06
6.92779e-06
5.91486e-06
4.97891e-06
4.12224e-06
3.34682e-06
2.65434e-06
2.04628e-06
1.52426e-06
1.09081e-06
7.51334e-07
5.17238e-07
4.0092e-07
3.79771e-07
3.8918e-07
3.78896e-07
3.25649e-07
2.33017e-07
3.45638e-07
3.66636e-07
1.52297e-07
1.04022e-05
1.04022e-05
1.04022e-05
1.04022e-05
1.04022e-05
1.04022e-05
1.04022e-05
2.48786e-07
2.48788e-07
2.48788e-07
2.48787e-07
2.48787e-07
2.48787e-07
2.48786e-07
2.27902e-05
2.66216e-05
3.30925e-05
4.06107e-05
3.90501e-05
3.74473e-05
3.58092e-05
3.41427e-05
3.24551e-05
3.07533e-05
2.90445e-05
2.73357e-05
2.5634e-05
2.39461e-05
2.22788e-05
2.06386e-05
1.90318e-05
1.74643e-05
1.5942e-05
1.44702e-05
1.30535e-05
1.16963e-05
4.21222e-05
4.21222e-05
4.21222e-05
4.21222e-05
4.21222e-05
4.21222e-05
4.21222e-05
2.42959e-05
3.12255e-05
4.17089e-05
5.50168e-05
5.52398e-05
5.53597e-05
5.53753e-05
5.52858e-05
5.50907e-05
5.47898e-05
5.43835e-05
5.38726e-05
5.32584e-05
5.2543e-05
5.17288e-05
5.08189e-05
4.98166e-05
4.87262e-05
4.7552e-05
4.6299e-05
4.49726e-05
4.35783e-05
5.46922e-05
5.46922e-05
5.46922e-05
5.46922e-05
5.46922e-05
5.46922e-05
5.46922e-05
2.00434e-05
2.2281e-05
2.62081e-05
3.37042e-05
3.52481e-05
3.67733e-05
3.82745e-05
3.97457e-05
4.11815e-05
4.25763e-05
4.39244e-05
4.52206e-05
4.64594e-05
4.76359e-05
4.87451e-05
4.97824e-05
5.07434e-05
5.1624e-05
5.24202e-05
5.31285e-05
5.37453e-05
5.42675e-05
3.21474e-05
3.21474e-05
3.21474e-05
3.21474e-05
3.21474e-05
3.21474e-05
3.21474e-05
8.67675e-06
7.88002e-06
6.58604e-06
6.50521e-06
7.4478e-06
8.45168e-06
9.5152e-06
1.06363e-05
1.18126e-05
1.30413e-05
1.43195e-05
1.56439e-05
1.70113e-05
1.84178e-05
1.98599e-05
2.13333e-05
2.28339e-05
2.43573e-05
2.58988e-05
2.74536e-05
2.90167e-05
3.05831e-05
5.62517e-06
5.62517e-06
5.62517e-06
5.62518e-06
5.62517e-06
5.62518e-06
5.62518e-06
5.0705e-07
4.97122e-07
3.30188e-07
2.10018e-07
3.0989e-07
3.98485e-07
4.6231e-07
4.99922e-07
5.11968e-07
5.02253e-07
4.8271e-07
4.81426e-07
5.42717e-07
6.99307e-07
9.52327e-07
1.29045e-06
1.70499e-06
2.19105e-06
2.74593e-06
3.36791e-06
4.05575e-06
4.80843e-06
2.00101e-07
2.00099e-07
2.00101e-07
2.00101e-07
2.001e-07
2.001e-07
2.001e-07
2.41899e-05
1.7904e-05
1.41346e-05
1.14838e-05
9.42137e-06
7.74179e-06
6.37554e-06
5.33573e-06
4.7014e-06
4.5724e-06
4.97106e-06
5.81122e-06
6.98739e-06
8.44462e-06
1.01927e-05
1.23181e-05
1.50432e-05
1.89255e-05
2.54255e-05
2.5409e-05
1.95625e-05
1.54996e-05
1.25783e-05
1.03433e-05
8.57126e-06
7.17255e-06
6.14225e-06
5.53324e-06
5.41167e-06
5.78942e-06
6.6058e-06
7.78466e-06
9.28918e-06
1.11441e-05
1.34562e-05
1.64664e-05
2.06526e-05
2.66808e-05
2.52738e-05
2.04369e-05
1.65084e-05
1.35031e-05
1.11736e-05
9.3418e-06
7.92124e-06
6.89762e-06
6.30543e-06
6.18913e-06
6.55428e-06
7.35583e-06
8.53783e-06
1.00767e-05
1.20036e-05
1.4421e-05
1.75219e-05
2.15658e-05
2.65291e-05
2.47508e-05
2.07649e-05
1.71561e-05
1.42138e-05
1.18716e-05
1.00215e-05
8.59766e-06
7.5857e-06
7.00898e-06
6.89793e-06
7.25416e-06
8.04277e-06
9.22137e-06
1.07738e-05
1.27288e-05
1.51659e-05
1.8204e-05
2.19122e-05
2.59796e-05
2.41174e-05
2.07625e-05
1.7508e-05
1.47134e-05
1.24233e-05
1.05948e-05
9.18897e-06
8.19771e-06
7.63889e-06
7.53409e-06
7.88249e-06
8.65598e-06
9.82092e-06
1.13639e-05
1.33046e-05
1.56931e-05
1.85796e-05
2.19166e-05
2.53204e-05
2.34655e-05
2.05656e-05
1.76386e-05
1.50281e-05
1.28334e-05
1.10586e-05
9.69073e-06
8.7304e-06
8.19358e-06
8.09643e-06
8.43668e-06
9.19088e-06
1.03308e-05
1.18426e-05
1.37347e-05
1.6029e-05
1.87257e-05
2.172e-05
2.4646e-05
2.28278e-05
2.02547e-05
1.76105e-05
1.51913e-05
1.3116e-05
1.1418e-05
1.01045e-05
9.18468e-06
8.6743e-06
8.58621e-06
8.91732e-06
9.64744e-06
1.07517e-05
1.22145e-05
1.40333e-05
1.62079e-05
1.8707e-05
2.1406e-05
2.39897e-05
2.22148e-05
1.98781e-05
1.74709e-05
1.52353e-05
1.32897e-05
1.1683e-05
1.04361e-05
9.56452e-06
9.08456e-06
9.00673e-06
9.32747e-06
1.0029e-05
1.10887e-05
1.2489e-05
1.4219e-05
1.62626e-05
1.85726e-05
2.10247e-05
2.3362e-05
2.16282e-05
1.94646e-05
1.7254e-05
1.51875e-05
1.33732e-05
1.18656e-05
1.06933e-05
9.8759e-06
9.42949e-06
9.36281e-06
9.67197e-06
1.03412e-05
1.13496e-05
1.26784e-05
1.43108e-05
1.62218e-05
1.83578e-05
2.0606e-05
2.2764e-05
2.10656e-05
1.90316e-05
1.69844e-05
1.50707e-05
1.33842e-05
1.19786e-05
1.08854e-05
1.01259e-05
9.71525e-06
9.66027e-06
9.95684e-06
1.05908e-05
1.15433e-05
1.27953e-05
1.43267e-05
1.61088e-05
1.80882e-05
2.01679e-05
2.2193e-05
2.05235e-05
1.85895e-05
1.66792e-05
1.49026e-05
1.33376e-05
1.20337e-05
1.10217e-05
1.03223e-05
9.94852e-06
9.90547e-06
1.01887e-05
1.07856e-05
1.16793e-05
1.28517e-05
1.42824e-05
1.5942e-05
1.77816e-05
1.97211e-05
2.1645e-05
1.99978e-05
1.81445e-05
1.63507e-05
1.4697e-05
1.32465e-05
1.20419e-05
1.11112e-05
1.04725e-05
1.01361e-05
1.01049e-05
1.03742e-05
1.09329e-05
1.17666e-05
1.2859e-05
1.41911e-05
1.57357e-05
1.74506e-05
1.92719e-05
2.11156e-05
1.94852e-05
1.76999e-05
1.60071e-05
1.44645e-05
1.31214e-05
1.20128e-05
1.11622e-05
1.05837e-05
1.02845e-05
1.0265e-05
1.05201e-05
1.10402e-05
1.18136e-05
1.28269e-05
1.40637e-05
1.5501e-05
1.7104e-05
1.88237e-05
2.06009e-05
1.89825e-05
1.72575e-05
1.56543e-05
1.42131e-05
1.29707e-05
1.19544e-05
1.11818e-05
1.06626e-05
1.03999e-05
1.03917e-05
1.06324e-05
1.11142e-05
1.18279e-05
1.27638e-05
1.39092e-05
1.52461e-05
1.67479e-05
1.83783e-05
2.00975e-05
1.84871e-05
1.6818e-05
1.52964e-05
1.39487e-05
1.28013e-05
1.18735e-05
1.11766e-05
1.0715e-05
1.04878e-05
1.04904e-05
1.07169e-05
1.11608e-05
1.18161e-05
1.26767e-05
1.37346e-05
1.49774e-05
1.63863e-05
1.79364e-05
1.96025e-05
1.7997e-05
1.63817e-05
1.4936e-05
1.3676e-05
1.26187e-05
1.17757e-05
1.11519e-05
1.07461e-05
1.05531e-05
1.05661e-05
1.07784e-05
1.11853e-05
1.17837e-05
1.25715e-05
1.35456e-05
1.46995e-05
1.60222e-05
1.74981e-05
1.91136e-05
1.75107e-05
1.59485e-05
1.4575e-05
1.33982e-05
1.2427e-05
1.16656e-05
1.11122e-05
1.07602e-05
1.06002e-05
1.06229e-05
1.08214e-05
1.11923e-05
1.17355e-05
1.24529e-05
1.33466e-05
1.44161e-05
1.56574e-05
1.70634e-05
1.86291e-05
1.70268e-05
1.55181e-05
1.42146e-05
1.31178e-05
1.22294e-05
1.15467e-05
1.10613e-05
1.07611e-05
1.06327e-05
1.06647e-05
1.08497e-05
1.11857e-05
1.16754e-05
1.23249e-05
1.31411e-05
1.41297e-05
1.52931e-05
1.66318e-05
1.81475e-05
1.65446e-05
1.50904e-05
1.38556e-05
1.28366e-05
1.20286e-05
1.1422e-05
1.10022e-05
1.07518e-05
1.06537e-05
1.06944e-05
1.08663e-05
1.11686e-05
1.16067e-05
1.21905e-05
1.29319e-05
1.38421e-05
1.49303e-05
1.62031e-05
1.76677e-05
1.60633e-05
1.4665e-05
1.34986e-05
1.2556e-05
1.18264e-05
1.12938e-05
1.09374e-05
1.07349e-05
1.06657e-05
1.07147e-05
1.08739e-05
1.11437e-05
1.1532e-05
1.20522e-05
1.27208e-05
1.35549e-05
1.45694e-05
1.57768e-05
1.7189e-05
1.55825e-05
1.42416e-05
1.31438e-05
1.22768e-05
1.16243e-05
1.11638e-05
1.08688e-05
1.07124e-05
1.06709e-05
1.07277e-05
1.08746e-05
1.11132e-05
1.14533e-05
1.19118e-05
1.25097e-05
1.32691e-05
1.42108e-05
1.53526e-05
1.67108e-05
1.5102e-05
1.38202e-05
1.27916e-05
1.2e-05
1.14234e-05
1.10334e-05
1.0798e-05
1.06859e-05
1.0671e-05
1.07351e-05
1.08703e-05
1.10788e-05
1.13725e-05
1.1771e-05
1.22996e-05
1.29854e-05
1.38546e-05
1.49304e-05
1.62327e-05
1.46214e-05
1.34006e-05
1.2442e-05
1.17258e-05
1.12245e-05
1.09037e-05
1.07261e-05
1.06568e-05
1.06672e-05
1.07384e-05
1.08623e-05
1.10419e-05
1.12906e-05
1.16309e-05
1.20914e-05
1.27044e-05
1.35011e-05
1.45099e-05
1.57544e-05
1.41408e-05
1.29826e-05
1.20953e-05
1.14549e-05
1.10284e-05
1.07754e-05
1.06541e-05
1.0626e-05
1.06607e-05
1.07387e-05
1.08518e-05
1.10036e-05
1.12089e-05
1.14923e-05
1.18861e-05
1.24266e-05
1.31505e-05