/*--------------------------------*- C++ -*----------------------------------*\
| =========                 |                                                 |
| \\      /  F ield         | OpenFOAM: The Open Source CFD Toolbox           |
|  \\    /   O peration     | Version:  v2012                                 |
|   \\  /    A nd           | Website:  www.openfoam.com                      |
|    \\/     M anipulation  |                                                 |
\*---------------------------------------------------------------------------*/
FoamFile
{
    version     2.0;
    format      ascii;
    class       volSymmTensorField;
    location    "6";
    object      sigma;
}
// * * * * * * * * * * * * * * * * * * * * * * * * * * * * * * * * * * * * * //

dimensions      [1 -1 -2 0 0 0 0];


internalField   nonuniform List<symmTensor> 
4000
(
(2.8126e+08 -5.38509e+06 -2.68106e-08 4.47286e+06 4.15484e-08 1.04089e+08)
(2.84815e+08 -5.39552e+06 4.07471e-09 9.20456e+06 5.17298e-08 1.02391e+08)
(2.91844e+08 -5.41879e+06 -5.68469e-15 1.83215e+07 -5.02437e-14 1.01699e+08)
(2.93891e+08 -5.00283e+06 5.78014e-08 2.24598e+07 -3.88086e-08 9.72036e+07)
(2.81244e+08 -3.66011e+06 -9.55086e-08 2.87899e+07 -3.9868e-08 9.30103e+07)
(2.62911e+08 -2.24372e+06 2.1639e-09 3.08296e+07 1.58658e-08 8.81223e+07)
(2.47938e+08 -1.31422e+06 -4.97875e-08 3.35547e+07 -2.72509e-09 8.44479e+07)
(2.34473e+08 -620411 0 3.38238e+07 0 8.04891e+07)
(2.23139e+08 -132674 2.48541e-09 3.48023e+07 2.35604e-08 7.73824e+07)
(2.12714e+08 284500 4.06919e-08 3.42534e+07 1.34881e-08 7.40903e+07)
(2.03698e+08 580042 -1.83134e-09 3.42049e+07 -2.05549e-08 7.13707e+07)
(1.9529e+08 851586 -1.58235e-09 3.31987e+07 -1.95459e-08 6.85466e+07)
(1.87866e+08 1.05004e+06 -6.98087e-10 3.25302e+07 -9.28482e-09 6.61188e+07)
(1.80864e+08 1.23554e+06 1.22646e-09 3.12432e+07 1.79039e-08 6.36322e+07)
(1.74582e+08 1.37449e+06 1.52364e-08 3.01941e+07 9.69266e-09 6.14327e+07)
(1.68585e+08 1.50538e+06 -4.9068e-10 2.87325e+07 -8.41758e-09 5.91952e+07)
(1.6314e+08 1.60138e+06 -1.37149e-08 2.74501e+07 -9.2221e-09 5.7177e+07)
(1.57863e+08 1.69607e+06 -2.56858e-08 2.58882e+07 -1.00509e-08 5.51253e+07)
(1.5304e+08 1.75644e+06 -1.20657e-08 2.44657e+07 -9.65009e-10 5.32516e+07)
(1.48263e+08 1.82758e+06 -2.22789e-08 2.28626e+07 8.63427e-09 5.13377e+07)
(2.80304e+08 -1.61414e+07 9.07601e-09 5.34441e+06 2.7309e-08 1.03262e+08)
(2.83785e+08 -1.61714e+07 3.80239e-08 1.01206e+07 2.67719e-08 1.01181e+08)
(2.90767e+08 -1.63013e+07 1.49476e-08 1.94148e+07 -4.17194e-08 1.00064e+08)
(2.91817e+08 -1.45151e+07 7.39123e-08 2.20806e+07 2.61817e-08 9.49109e+07)
(2.76664e+08 -1.02115e+07 -8.88875e-08 2.85181e+07 -1.01402e-08 9.15547e+07)
(2.59817e+08 -6.61481e+06 -2.21098e-14 2.93837e+07 -5.51337e-14 8.67602e+07)
(2.459e+08 -4.0029e+06 2.24125e-10 3.22246e+07 5.96127e-10 8.34373e+07)
(2.33107e+08 -2.08627e+06 -5.48553e-08 3.23448e+07 -3.27657e-08 7.96357e+07)
(2.222e+08 -567706 0 3.33759e+07 0 7.66729e+07)
(2.12081e+08 605460 6.29039e-08 3.28886e+07 2.07388e-08 7.34908e+07)
(2.03278e+08 1.57169e+06 3.6928e-15 3.28938e+07 1.32212e-14 7.08514e+07)
(1.95027e+08 2.34944e+06 -4.77964e-09 3.19768e+07 -1.93427e-08 6.81012e+07)
(1.87727e+08 3.00203e+06 -2.09572e-09 3.13655e+07 -9.18375e-09 6.57278e+07)
(1.80821e+08 3.54367e+06 1.84973e-09 3.01592e+07 8.84466e-09 6.3294e+07)
(1.7462e+08 3.99588e+06 1.64215e-08 2.91682e+07 1.13592e-08 6.11364e+07)
(1.68691e+08 4.38422e+06 -1.2579e-08 2.77749e+07 5.37769e-09 5.89399e+07)
(1.63305e+08 4.69357e+06 -1.20081e-08 2.65509e+07 5.37835e-09 5.69569e+07)
(1.58085e+08 4.9775e+06 -2.667e-08 2.50467e+07 -1.32652e-08 5.49396e+07)
(1.53308e+08 5.17263e+06 1.96566e-11 2.36841e+07 1.33628e-10 5.30976e+07)
(1.48582e+08 5.38661e+06 -2.67288e-08 2.21287e+07 -1.83872e-08 5.12134e+07)
(2.78325e+08 -2.69351e+07 4.82076e-08 7.12275e+06 2.43978e-08 1.01375e+08)
(2.82098e+08 -2.69498e+07 4.41148e-08 1.24808e+07 2.61708e-08 9.88139e+07)
(2.88051e+08 -2.64114e+07 -1.53867e-08 2.0653e+07 -2.09202e-08 9.66452e+07)
(2.84133e+08 -2.23287e+07 -2.90413e-09 2.25772e+07 3.1081e-08 9.20131e+07)
(2.69456e+08 -1.56068e+07 5.92283e-08 2.70715e+07 1.17e-08 8.89582e+07)
(2.547e+08 -1.05005e+07 7.46299e-09 2.75271e+07 -2.39662e-08 8.46682e+07)
(2.42283e+08 -6.83106e+06 1.63111e-08 2.99343e+07 2.62486e-08 8.16651e+07)
(2.30488e+08 -3.73398e+06 2.95944e-10 2.99484e+07 5.22721e-10 7.8131e+07)
(2.20316e+08 -1.42949e+06 -6.13539e-08 3.0971e+07 -4.52616e-08 7.53861e+07)
(2.10729e+08 552284 2.52594e-08 3.04994e+07 1.58996e-08 7.23686e+07)
(2.02324e+08 2.10424e+06 2.34263e-08 3.06054e+07 1.52588e-08 6.9879e+07)
(1.94391e+08 3.44062e+06 9.87503e-09 2.97557e+07 -1.3685e-08 6.72441e+07)
(1.87333e+08 4.52578e+06 -3.69784e-08 2.92645e+07 -1.90895e-08 6.49793e+07)
(1.80636e+08 5.46154e+06 -1.2771e-08 2.81441e+07 3.66264e-09 6.2634e+07)
(1.74598e+08 6.22921e+06 5.47421e-09 2.72717e+07 1.65659e-08 6.05609e+07)
(1.68822e+08 6.90065e+06 2.4938e-09 2.59684e+07 8.20298e-09 5.84371e+07)
(1.63557e+08 7.43396e+06 1.35732e-08 2.48597e+07 4.62548e-09 5.65251e+07)
(1.58462e+08 7.92378e+06 -1.69996e-08 2.34427e+07 -1.99125e-08 5.45714e+07)
(1.5378e+08 8.26791e+06 -3.25189e-11 2.21962e+07 -1.28985e-10 5.2793e+07)
(1.49162e+08 8.63459e+06 -1.97346e-08 2.07194e+07 -2.07929e-08 5.09646e+07)
(2.75492e+08 -3.78479e+07 -3.70287e-08 1.01941e+07 2.35751e-08 9.85203e+07)
(2.78956e+08 -3.72934e+07 3.77102e-08 1.52022e+07 4.24663e-08 9.50965e+07)
(2.836e+08 -3.50271e+07 3.4616e-08 2.08909e+07 7.67268e-09 9.21948e+07)
(2.73317e+08 -2.76298e+07 -1.79793e-08 2.25549e+07 -1.64067e-08 8.87616e+07)
(2.60109e+08 -2.01427e+07 5.66678e-08 2.50839e+07 -7.6599e-09 8.55578e+07)
(2.48273e+08 -1.4403e+07 2.5771e-08 2.54621e+07 2.76936e-08 8.21206e+07)
(2.3726e+08 -9.70331e+06 1.16036e-08 2.71501e+07 1.3263e-08 7.9323e+07)
(2.26762e+08 -5.86202e+06 6.9878e-08 2.72081e+07 2.22456e-08 7.61909e+07)
(2.17493e+08 -2.71661e+06 1.39359e-08 2.79817e+07 -2.97352e-09 7.36424e+07)
(2.08606e+08 -78680.6 -1.43156e-08 2.76141e+07 -2.03712e-08 7.08662e+07)
(2.00771e+08 2.10463e+06 3.82406e-08 2.76727e+07 1.41068e-08 6.8533e+07)
(1.93272e+08 3.96051e+06 5.3657e-09 2.69415e+07 8.85591e-09 6.6064e+07)
(1.86587e+08 5.51087e+06 5.00639e-09 2.64973e+07 8.8872e-09 6.39253e+07)
(1.80189e+08 6.84167e+06 -3.64312e-08 2.54959e+07 -2.14648e-08 6.17055e+07)
(1.74413e+08 7.94919e+06 -1.52945e-08 2.47164e+07 -6.55202e-09 5.97387e+07)
(1.68862e+08 8.91587e+06 1.44749e-08 2.35301e+07 6.27842e-09 5.77177e+07)
(1.63792e+08 9.69377e+06 1.99754e-08 2.25391e+07 2.10337e-08 5.58994e+07)
(1.58884e+08 1.04018e+07 2.64647e-08 2.12351e+07 1.24474e-08 5.40357e+07)
(1.54356e+08 1.09158e+07 -1.25784e-08 2.0124e+07 -5.91644e-09 5.2344e+07)
(1.49899e+08 1.14437e+07 1.16586e-08 1.87515e+07 9.76434e-09 5.05952e+07)
(2.72064e+08 -4.83775e+07 -3.21587e-08 1.47418e+07 5.30085e-10 9.47522e+07)
(2.73747e+08 -4.64769e+07 -1.62584e-08 1.68101e+07 -2.87153e-08 8.99951e+07)
(2.72555e+08 -4.08683e+07 -2.60525e-08 2.20144e+07 -1.68322e-08 8.83708e+07)
(2.61584e+08 -3.23327e+07 3.1164e-08 2.12864e+07 8.89883e-09 8.48611e+07)
(2.51408e+08 -2.43655e+07 -4.09393e-10 2.34417e+07 -3.09677e-10 8.24549e+07)
(2.4076e+08 -1.75867e+07 -1.14509e-08 2.28796e+07 3.84968e-09 7.90919e+07)
(2.31328e+08 -1.26809e+07 6.1846e-08 2.462e+07 1.56405e-08 7.67845e+07)
(2.21965e+08 -8.09204e+06 1.16787e-08 2.42447e+07 -2.00959e-09 7.38629e+07)
(2.13675e+08 -4.36696e+06 2.14663e-08 2.49827e+07 8.44891e-09 7.15973e+07)
(2.05621e+08 -1.13591e+06 0 2.44595e+07 0 6.9024e+07)
(1.98442e+08 1.60588e+06 7.70459e-09 2.45161e+07 8.6972e-09 6.68873e+07)
(1.9153e+08 3.93319e+06 -3.66147e-08 2.37667e+07 -1.70491e-08 6.4589e+07)
(1.85311e+08 5.93573e+06 4.06078e-08 2.33706e+07 2.45639e-08 6.26043e+07)
(1.79336e+08 7.63587e+06 2.73714e-08 2.24208e+07 2.37545e-08 6.0527e+07)
(1.73904e+08 9.08889e+06 1.08882e-08 2.17308e+07 8.99029e-10 5.86904e+07)
(1.68675e+08 1.034e+07 -4.32068e-09 2.06324e+07 -7.1263e-09 5.67922e+07)
(1.63871e+08 1.13748e+07 1.02572e-08 1.97623e+07 8.99726e-10 5.50901e+07)
(1.59224e+08 1.22975e+07 1.33488e-08 1.8564e+07 7.29833e-09 5.33366e+07)
(1.54911e+08 1.29983e+07 -9.64025e-09 1.75999e+07 -9.27942e-10 5.17533e+07)
(1.50674e+08 1.3686e+07 3.02789e-08 1.6337e+07 1.17236e-08 5.01033e+07)
(2.66791e+08 -5.79868e+07 6.78571e-08 1.86477e+07 7.06312e-10 8.99903e+07)
(2.66433e+08 -5.37434e+07 -6.32107e-09 1.78805e+07 5.18201e-09 8.52941e+07)
(2.60146e+08 -4.49907e+07 3.50055e-08 2.21372e+07 1.08517e-08 8.46849e+07)
(2.5002e+08 -3.59515e+07 -2.35596e-08 2.00781e+07 -1.34311e-08 8.10294e+07)
(2.39478e+08 -2.77366e+07 -5.75164e-08 2.13572e+07 -2.07982e-08 7.82506e+07)
(2.32571e+08 -2.1463e+07 -4.52384e-08 2.13475e+07 -2.21344e-08 7.61755e+07)
(2.24929e+08 -1.57611e+07 -1.60429e-08 2.23154e+07 -1.07503e-08 7.41734e+07)
(2.1633e+08 -1.05819e+07 3.66985e-09 2.17736e+07 9.02834e-09 7.14311e+07)
(2.09129e+08 -6.28721e+06 -2.18655e-08 2.21876e+07 -1.0105e-08 6.93951e+07)
(2.01868e+08 -2.50862e+06 -5.2641e-08 2.14643e+07 -2.92802e-08 6.69997e+07)
(1.95435e+08 699334 -2.07525e-08 2.14069e+07 -4.23788e-09 6.50525e+07)
(1.89169e+08 3.47919e+06 -2.67919e-08 2.05429e+07 -1.75112e-08 6.29135e+07)
(1.83494e+08 5.86202e+06 -1.45881e-08 2.01416e+07 -1.44167e-08 6.10908e+07)
(1.78021e+08 7.92092e+06 1.65717e-08 1.91645e+07 9.42779e-09 5.91555e+07)
(1.73005e+08 9.6775e+06 5.5653e-09 1.85348e+07 6.38509e-09 5.74619e+07)
(1.68169e+08 1.12064e+07 1.52321e-08 1.74731e+07 9.33112e-09 5.56925e+07)
(1.63694e+08 1.2479e+07 4.596e-09 1.6709e+07 6.09329e-09 5.4121e+07)
(1.5937e+08 1.36117e+07 2.25338e-08 1.55882e+07 2.13186e-08 5.24874e+07)
(1.55327e+08 1.44971e+07 -2.10887e-08 1.47657e+07 -2.049e-08 5.10277e+07)
(1.51358e+08 1.53408e+07 9.24164e-10 1.36011e+07 -1.72504e-09 4.94877e+07)
(2.5983e+08 -6.60054e+07 9.40037e-08 2.05713e+07 1.02458e-08 8.50146e+07)
(2.53302e+08 -5.78534e+07 -6.66336e-08 2.10776e+07 -2.3343e-08 8.2314e+07)
(2.46461e+08 -4.85035e+07 -5.96262e-08 2.17959e+07 -2.48735e-08 8.04772e+07)
(2.3851e+08 -3.90488e+07 4.4701e-08 2.05371e+07 2.2291e-08 7.77142e+07)
(2.3115e+08 -3.17207e+07 -6.02376e-09 2.12371e+07 -1.1517e-09 7.57163e+07)
(2.2347e+08 -2.48883e+07 7.56684e-09 2.06274e+07 2.46252e-09 7.32294e+07)
(2.16685e+08 -1.83794e+07 -1.7211e-08 2.05068e+07 -8.7389e-09 7.11574e+07)
(2.09747e+08 -1.29155e+07 -2.36794e-08 1.97462e+07 -1.16663e-08 6.88478e+07)
(2.03472e+08 -8.16042e+06 5.85605e-08 1.95301e+07 3.10935e-08 6.69006e+07)
(1.97281e+08 -3.98675e+06 -3.0028e-08 1.8675e+07 -1.55751e-08 6.47867e+07)
(1.91627e+08 -429336 2.11175e-10 1.82819e+07 1.37197e-10 6.29727e+07)
(1.86124e+08 2.71786e+06 -1.88674e-08 1.7356e+07 -1.32099e-08 6.10439e+07)
(1.8107e+08 5.39272e+06 -2.6443e-08 1.68068e+07 -1.73727e-08 5.93629e+07)
(1.7617e+08 7.75743e+06 -2.17393e-09 1.58272e+07 1.23515e-09 5.75993e+07)
(1.71645e+08 9.75959e+06 -3.91262e-08 1.5172e+07 -2.7009e-08 5.60452e+07)
(1.67261e+08 1.15314e+07 -2.16643e-08 1.4155e+07 -1.62282e-08 5.44249e+07)
(1.63182e+08 1.30079e+07 -2.0197e-08 1.34474e+07 -1.56315e-08 5.29888e+07)
(1.59229e+08 1.43269e+07 4.6038e-09 1.2406e+07 4.97827e-09 5.14906e+07)
(1.55513e+08 1.5381e+07 2.26393e-08 1.16975e+07 2.01386e-08 5.01631e+07)
(1.51853e+08 1.63652e+07 -1.71956e-08 1.06332e+07 -1.47003e-08 4.87459e+07)
(2.48084e+08 -7.14444e+07 6.05991e-10 2.40432e+07 2.19058e-11 8.16381e+07)
(2.40522e+08 -6.1406e+07 1.04416e-07 2.38036e+07 3.37493e-08 7.92977e+07)
(2.33457e+08 -5.14992e+07 -9.72465e-08 2.2965e+07 -3.6089e-08 7.69265e+07)
(2.2663e+08 -4.23745e+07 3.16255e-08 2.17422e+07 1.27924e-08 7.45115e+07)
(2.19842e+08 -3.41556e+07 9.28814e-09 2.11354e+07 9.38757e-09 7.22932e+07)
(2.14153e+08 -2.69842e+07 -1.68315e-08 1.97052e+07 -2.80639e-09 7.01576e+07)
(2.08326e+08 -2.05742e+07 -3.2552e-08 1.89865e+07 -1.88626e-08 6.81937e+07)
(2.0264e+08 -1.48727e+07 -2.41609e-08 1.78046e+07 -1.29049e-08 6.61335e+07)
(1.97357e+08 -9.90888e+06 -3.08937e-08 1.70983e+07 -1.94267e-08 6.43366e+07)
(1.92094e+08 -5.50107e+06 3.48636e-08 1.59904e+07 1.87169e-08 6.24252e+07)
(1.87279e+08 -1.68017e+06 2.01913e-08 1.52858e+07 1.2431e-08 6.07696e+07)
(1.82505e+08 1.69316e+06 1.2909e-14 1.42157e+07 6.7234e-15 5.90162e+07)
(1.78126e+08 4.6166e+06 -2.75523e-08 1.35071e+07 -1.72544e-08 5.749e+07)
(1.73812e+08 7.18656e+06 -9.27995e-09 1.24671e+07 -7.00488e-09 5.58838e+07)
(1.69828e+08 9.40523e+06 7.38795e-09 1.1766e+07 4.77019e-09 5.44782e+07)
(1.65922e+08 1.13534e+07 -2.23782e-08 1.07533e+07 -1.60394e-08 5.30025e+07)
(1.62282e+08 1.30141e+07 -5.43223e-15 1.00827e+07 -4.06088e-15 5.17094e+07)
(1.58729e+08 1.44764e+07 -4.37946e-08 9.0937e+06 -3.32692e-08 5.03468e+07)
(1.5538e+08 1.56889e+07 9.09708e-09 8.48259e+06 6.69892e-09 4.91588e+07)
(1.52053e+08 1.67864e+07 -2.44154e-08 7.50245e+06 -2.00547e-08 4.78665e+07)
(2.32739e+08 -7.56283e+07 -6.77806e-08 2.82696e+07 -1.77035e-09 7.83025e+07)
(2.25983e+08 -6.41641e+07 3.52829e-08 2.62319e+07 7.18288e-09 7.56646e+07)
(2.2005e+08 -5.38058e+07 -3.24105e-08 2.46776e+07 -6.70871e-09 7.34183e+07)
(2.14471e+08 -4.44334e+07 -5.9113e-08 2.23612e+07 -1.29127e-08 7.10495e+07)
(2.09379e+08 -3.6289e+07 5.36689e-08 2.0963e+07 1.93416e-08 6.91026e+07)
(2.04272e+08 -2.89905e+07 4.22879e-08 1.89622e+07 2.90799e-09 6.69703e+07)
(1.99686e+08 -2.23834e+07 -2.96974e-08 1.76607e+07 -2.22536e-08 6.52041e+07)
(1.94971e+08 -1.66404e+07 -2.39348e-08 1.59438e+07 -1.3758e-08 6.32746e+07)
(1.90692e+08 -1.14714e+07 -6.11909e-08 1.48265e+07 -3.19484e-08 6.16555e+07)
(1.86341e+08 -6.97802e+06 -2.90318e-08 1.33449e+07 -9.11288e-09 5.99057e+07)
(1.82348e+08 -2.9756e+06 1.27606e-08 1.23785e+07 4.28336e-09 5.84179e+07)
(1.78341e+08 516445 3.94131e-08 1.10832e+07 2.66077e-08 5.68271e+07)
(1.74635e+08 3.60122e+06 -1.17242e-14 1.02354e+07 -4.61899e-15 5.5461e+07)
(1.70948e+08 6.29823e+06 9.15556e-09 9.08411e+06 3.90473e-09 5.40098e+07)
(1.67518e+08 8.66239e+06 9.10338e-09 8.34102e+06 8.99514e-09 5.27577e+07)
(1.64126e+08 1.07292e+07 2.54896e-08 7.29983e+06 2.12546e-08 5.14278e+07)
(1.60949e+08 1.25227e+07 2.21679e-08 6.66221e+06 1.56573e-08 5.02834e+07)
(1.57825e+08 1.40855e+07 3.01893e-08 5.70333e+06 2.40052e-08 4.90584e+07)
(1.54872e+08 1.54222e+07 -2.90173e-08 5.18182e+06 -2.35536e-08 4.80162e+07)
(1.51898e+08 1.66029e+07 4.91729e-09 4.27019e+06 3.21111e-09 4.68505e+07)
(2.1521e+08 -7.82777e+07 -1.02656e-07 3.20862e+07 2.55344e-09 7.41888e+07)
(2.1031e+08 -6.6142e+07 -3.70628e-08 2.85732e+07 -4.07008e-09 7.16649e+07)
(2.05839e+08 -5.54537e+07 0 2.59458e+07 0 6.95354e+07)
(2.01759e+08 -4.60693e+07 -2.89282e-08 2.28008e+07 -3.4866e-09 6.7368e+07)
(1.97809e+08 -3.77191e+07 -8.43522e-08 2.05942e+07 -3.2607e-08 6.55208e+07)
(1.94159e+08 -3.03916e+07 -3.18402e-09 1.79054e+07 -1.13852e-08 6.36192e+07)
(1.90542e+08 -2.38467e+07 4.69089e-08 1.6064e+07 1.78494e-08 6.19819e+07)
(1.87014e+08 -1.80676e+07 4.89552e-08 1.38839e+07 2.93872e-08 6.02692e+07)
(1.83614e+08 -1.29343e+07 6.93097e-08 1.23708e+07 4.36941e-08 5.87955e+07)
(1.80209e+08 -8.38944e+06 -1.48954e-08 1.05977e+07 -2.87711e-09 5.72421e+07)
(1.7699e+08 -4.3675e+06 -2.70736e-08 9.36204e+06 -5.6459e-09 5.59056e+07)
(1.73744e+08 -810160 -4.67759e-10 7.89723e+06 -1.07677e-10 5.44924e+07)
(1.70698e+08 2.33206e+06 1.07284e-08 6.89319e+06 2.67023e-09 5.32775e+07)
(1.67632e+08 5.1017e+06 1.80977e-08 5.66088e+06 1.35782e-08 5.1988e+07)
(1.64759e+08 7.5439e+06 2.63089e-08 4.85615e+06 2.42047e-08 5.08847e+07)
(1.6188e+08 9.68328e+06 -7.75844e-09 3.79943e+06 -2.52709e-09 4.97037e+07)
(1.59176e+08 1.15652e+07 -1.2092e-10 3.17559e+06 -4.21391e-11 4.87054e+07)
(1.56479e+08 1.31936e+07 3.37095e-08 2.25031e+06 1.96178e-08 4.76188e+07)
(1.53937e+08 1.46258e+07 2.06518e-08 1.80004e+06 1.4737e-08 4.67211e+07)
(1.51316e+08 1.58655e+07 1.85277e-08 955805 1.9993e-08 4.56815e+07)
(1.96289e+08 -7.93335e+07 -4.98838e-08 3.55745e+07 1.66272e-08 6.95589e+07)
(1.9364e+08 -6.70245e+07 -4.04166e-08 3.05091e+07 -8.64494e-10 6.72446e+07)
(1.91107e+08 -5.63945e+07 2.96766e-08 2.68822e+07 2.90106e-08 6.53968e+07)
(1.88568e+08 -4.70237e+07 2.91653e-08 2.27841e+07 1.51723e-08 6.34055e+07)
(1.86148e+08 -3.8832e+07 5.6883e-08 1.98737e+07 1.92737e-09 6.18064e+07)
(1.83587e+08 -3.15719e+07 5.51425e-10 1.66063e+07 2.39612e-11 6.0058e+07)
(1.8119e+08 -2.51214e+07 7.06889e-09 1.42717e+07 2.86768e-08 5.86384e+07)
(1.78603e+08 -1.94325e+07 -1.61752e-08 1.16779e+07 1.28899e-08 5.70843e+07)
(1.76191e+08 -1.43392e+07 4.0509e-08 9.8301e+06 1.64349e-08 5.58065e+07)
(1.73611e+08 -9.86208e+06 3.78752e-08 7.76782e+06 1.63767e-08 5.44137e+07)
(1.71202e+08 -5.84435e+06 3.54315e-08 6.32168e+06 1.62056e-08 5.32571e+07)
(1.68664e+08 -2.32118e+06 -4.01615e-08 4.6728e+06 -2.93144e-08 5.20011e+07)
(1.6629e+08 841127 -1.12326e-08 3.55707e+06 -1.34236e-09 5.09543e+07)
(1.63825e+08 3.60387e+06 -2.86305e-08 2.22649e+06 -1.55805e-08 4.98153e+07)
(1.61516e+08 6.08375e+06 -1.80148e-08 1.38866e+06 -1.39745e-08 4.88713e+07)
(1.59141e+08 8.23299e+06 -4.33164e-08 300701 -3.97117e-08 4.78327e+07)
(1.5692e+08 1.01666e+07 -3.28299e-08 -294518 -2.68456e-08 4.69876e+07)
(1.54649e+08 1.18117e+07 -6.28275e-09 -1.20013e+06 -1.2809e-09 4.60348e+07)
(1.52531e+08 1.33086e+07 2.45309e-08 -1.57514e+06 2.45512e-08 4.52867e+07)
(1.50261e+08 1.45715e+07 1.40516e-08 -2.36551e+06 8.0671e-09 4.43687e+07)
(1.76665e+08 -7.87682e+07 8.85646e-08 3.84373e+07 4.84561e-09 6.45307e+07)
(1.76349e+08 -6.68265e+07 -8.01415e-08 3.2094e+07 5.06786e-09 6.25328e+07)
(1.75739e+08 -5.64817e+07 -3.79376e-08 2.74039e+07 2.36226e-09 6.09429e+07)
(1.74903e+08 -4.74109e+07 2.61848e-09 2.25008e+07 -1.76839e-08 5.9221e+07)
(1.73874e+08 -3.94331e+07 2.81773e-08 1.88875e+07 1.60171e-08 5.78284e+07)
(1.72673e+08 -3.24049e+07 2.839e-08 1.50685e+07 3.3285e-08 5.63225e+07)
(1.71351e+08 -2.61602e+07 2.50171e-08 1.22697e+07 1.60438e-08 5.50861e+07)
(1.69863e+08 -2.06414e+07 -3.77274e-09 9.30493e+06 -1.66171e-08 5.37504e+07)
(1.68333e+08 -1.57127e+07 -4.68254e-08 7.14608e+06 -3.15355e-08 5.26438e+07)
(1.66646e+08 -1.13525e+07 -3.89027e-08 4.84603e+06 -1.52637e-08 5.14475e+07)
(1.64979e+08 -7.44625e+06 1.43129e-08 3.20038e+06 -2.00873e-10 5.04539e+07)
(1.63172e+08 -3.99696e+06 3.36187e-08 1.41154e+06 1.50844e-08 4.9375e+07)
(1.6143e+08 -897349 3.94762e-08 184849 2.97594e-08 4.84845e+07)
(1.59566e+08 1.8242e+06 1.05239e-08 -1.21364e+06 1.33874e-10 4.75057e+07)
(1.57799e+08 4.28094e+06 -8.6437e-09 -2.09045e+06 -1.41791e-08 4.67127e+07)
(1.55924e+08 6.41199e+06 1.77795e-08 -3.19271e+06 1.4087e-08 4.58194e+07)
(1.54173e+08 8.35357e+06 -4.9741e-09 -3.76906e+06 1.31006e-08 4.51212e+07)
(1.52318e+08 9.99476e+06 2.57847e-08 -4.64817e+06 2.67675e-08 4.43009e+07)
(1.50616e+08 1.15251e+07 5.9387e-09 -4.95985e+06 2.50194e-10 4.36968e+07)
(1.48687e+08 1.27977e+07 -3.00517e-08 -5.69632e+06 -2.06885e-08 4.28972e+07)
(1.56924e+08 -7.67068e+07 9.71079e-08 4.0609e+07 -9.4261e-09 5.92598e+07)
(1.58861e+08 -6.54692e+07 1.42904e-08 3.30865e+07 -4.30885e-08 5.75843e+07)
(1.60187e+08 -5.57359e+07 -3.00828e-08 2.74678e+07 -1.63028e-08 5.62964e+07)
(1.60979e+08 -4.71406e+07 -6.30515e-08 2.18021e+07 -1.17658e-08 5.48343e+07)
(1.61417e+08 -3.9607e+07 -2.93812e-08 1.75717e+07 4.02826e-09 5.36966e+07)
(1.61435e+08 -3.29266e+07 -5.76543e-10 1.32666e+07 7.57344e-11 5.24105e+07)
(1.61264e+08 -2.70009e+07 -2.81429e-08 1.00574e+07 -3.59184e-08 5.13965e+07)
(1.60746e+08 -2.17478e+07 7.06799e-08 6.77609e+06 2.99991e-08 5.02566e+07)
(1.60142e+08 -1.70425e+07 4.28567e-08 4.35201e+06 1.37996e-08 4.93484e+07)
(1.59254e+08 -1.28827e+07 -1.6368e-08 1.84975e+06 1.89703e-09 4.83312e+07)
(1.58348e+08 -9.12772e+06 -1.46088e-08 45699.9 1.67301e-09 4.75181e+07)
(1.57211e+08 -5.82479e+06 1.4869e-08 -1.86158e+06 3.38022e-08 4.66048e+07)
(1.56103e+08 -2.8218e+06 -4.50944e-10 -3.1654e+06 4.91504e-11 4.58813e+07)
(1.54804e+08 -203967 1.6737e-09 -4.61863e+06 -1.70664e-08 4.50557e+07)
(1.53575e+08 2.19803e+06 8.92894e-09 -5.5098e+06 1.56185e-08 4.44196e+07)
(1.52178e+08 4.25724e+06 4.45735e-08 -6.61813e+06 4.38482e-08 4.36678e+07)
(1.50893e+08 6.17678e+06 9.45753e-09 -7.16095e+06 1.48602e-08 4.31195e+07)
(1.49439e+08 7.76906e+06 -3.31955e-08 -8.00901e+06 -2.74555e-08 4.2429e+07)
(1.48154e+08 9.30366e+06 1.1652e-08 -8.25252e+06 -1.40228e-09 4.19705e+07)
(1.46553e+08 1.05514e+07 2.07178e-08 -8.93563e+06 1.25198e-08 4.12854e+07)
(1.37427e+08 -7.32402e+07 1.17821e-07 4.19034e+07 -7.1734e-08 5.3799e+07)
(1.41436e+08 -6.30319e+07 4.43838e-08 3.34769e+07 -1.00073e-08 5.2474e+07)
(1.44529e+08 -5.41238e+07 -4.3534e-08 2.70488e+07 3.3233e-08 5.14734e+07)
(1.46907e+08 -4.62365e+07 7.59541e-10 2.07799e+07 -1.66895e-10 5.03062e+07)
(1.48688e+08 -3.92772e+07 -8.66311e-08 1.60067e+07 -2.70047e-08 4.94085e+07)
(1.49954e+08 -3.31034e+07 -2.41516e-10 1.13021e+07 -2.25366e-08 4.83768e+07)
(1.50834e+08 -2.75991e+07 -7.28256e-08 7.73693e+06 -6.62764e-09 4.75713e+07)
(1.51316e+08 -2.27148e+07 -4.31473e-08 4.19752e+06 9.08526e-09 4.66541e+07)
(1.51564e+08 -1.83211e+07 8.46999e-08 1.5464e+06 2.48351e-08 4.59331e+07)
(1.51488e+08 -1.44299e+07 4.53804e-08 -1.1141e+06 3.22744e-08 4.51123e+07)
(1.51291e+08 -1.09007e+07 -3.72744e-08 -3.05319e+06 -1.26176e-08 4.44713e+07)
(1.50821e+08 -7.79142e+06 5.52688e-08 -5.04782e+06 2.8407e-08 4.37318e+07)
(1.50314e+08 -4.94576e+06 -4.46197e-08 -6.41772e+06 -6.89238e-08 4.3169e+07)
(1.49567e+08 -2.46423e+06 -5.79901e-08 -7.90828e+06 -4.50835e-08 4.24977e+07)
(1.48857e+08 -165036 -6.5803e-08 -8.81164e+06 -2.30701e-08 4.20135e+07)
(1.47918e+08 1.80201e+06 -8.20165e-15 -9.9222e+06 1.85698e-15 4.13987e+07)
(1.47086e+08 3.66255e+06 -1.98295e-08 -1.04343e+07 -3.17978e-08 4.09955e+07)
(1.46014e+08 5.19642e+06 -3.3288e-08 -1.12591e+07 -2.76634e-08 4.04263e+07)
(1.45132e+08 6.70817e+06 -4.40339e-08 -1.1439e+07 -2.38141e-08 4.01078e+07)
(1.43843e+08 7.92907e+06 4.44821e-08 -1.20839e+07 2.24039e-08 3.95276e+07)
(1.18593e+08 -6.85677e+07 -6.55642e-08 4.22424e+07 1.59795e-08 4.82507e+07)
(1.2445e+08 -5.95977e+07 5.2667e-08 3.30949e+07 6.26137e-08 4.72635e+07)
(1.29145e+08 -5.17272e+07 3.0867e-08 2.60265e+07 1.66883e-08 4.65513e+07)
(1.32952e+08 -4.46979e+07 6.50578e-08 1.92693e+07 -1.95247e-08 4.56665e+07)
(1.35992e+08 -3.84739e+07 1.32518e-09 1.406e+07 -3.97139e-10 4.50157e+07)
(1.3838e+08 -3.2913e+07 7.35474e-10 9.03909e+06 2.47039e-08 4.42257e+07)
(1.40267e+08 -2.79379e+07 2.59698e-08 5.18607e+06 1.67698e-08 4.36358e+07)
(1.41651e+08 -2.35017e+07 -9.1149e-08 1.45049e+06 -2.0998e-08 4.29303e+07)
(1.42716e+08 -1.94898e+07 -4.2783e-08 -1.38102e+06 -1.07635e-08 4.24005e+07)
(1.43383e+08 -1.59307e+07 3.33957e-08 -4.15322e+06 -9.9542e-09 4.17689e+07)
(1.4386e+08 -1.26742e+07 -5.85645e-08 -6.19311e+06 -2.73756e-08 4.13e+07)
(1.44011e+08 -9.81266e+06 1.3167e-08 -8.23859e+06 -4.02406e-09 4.07318e+07)
(1.4407e+08 -7.15703e+06 1.01022e-07 -9.64867e+06 1.16319e-08 4.03263e+07)
(1.43848e+08 -4.86173e+06 3.95173e-08 -1.11453e+07 2.99113e-08 3.98109e+07)
(1.43619e+08 -2.68922e+06 -3.73711e-08 -1.20418e+07 1.25424e-08 3.94733e+07)
(1.43125e+08 -862795 -2.66532e-08 -1.31249e+07 -1.14676e-08 3.90001e+07)
(1.42715e+08 918054 -1.0123e-08 -1.35939e+07 -1.68196e-08 3.87364e+07)
(1.42013e+08 2.34815e+06 1.69381e-08 -1.43661e+07 1.37727e-08 3.82942e+07)
(1.41517e+08 3.81115e+06 9.81202e-11 -1.44769e+07 -4.14834e-11 3.81119e+07)
(1.40524e+08 4.96963e+06 -2.23069e-08 -1.506e+07 -4.35436e-09 3.76393e+07)
(1.00612e+08 -6.28177e+07 2.2552e-08 4.15278e+07 3.5932e-09 4.2642e+07)
(1.08045e+08 -5.52702e+07 -7.19278e-08 3.19424e+07 -9.30827e-10 4.19963e+07)
(1.14117e+08 -4.85798e+07 3.5408e-08 2.44365e+07 -1.3646e-08 4.15662e+07)
(1.19199e+08 -4.25609e+07 4.08677e-09 1.73783e+07 -2.96176e-08 4.09731e+07)
(1.23347e+08 -3.71795e+07 2.43659e-08 1.18689e+07 7.35717e-08 4.05649e+07)
(1.26766e+08 -3.23498e+07 -2.74395e-08 6.65583e+06 -1.66705e-08 4.00267e+07)
(1.29557e+08 -2.79878e+07 -2.97288e-09 2.60905e+06 -2.5446e-08 3.96497e+07)
(1.31781e+08 -2.40886e+07 0 -1.23713e+06 0 3.91633e+07)
(1.33598e+08 -2.05272e+07 -4.73508e-08 -4.18408e+06 -3.27736e-08 3.88242e+07)
(1.34954e+08 -1.73661e+07 -5.92094e-09 -7.00804e+06 -2.26575e-08 3.83839e+07)
(1.3607e+08 -1.44407e+07 5.13976e-08 -9.10668e+06 5.31866e-08 3.80889e+07)
(1.36789e+08 -1.18747e+07 -1.03514e-07 -1.11636e+07 -3.04705e-08 3.76876e+07)
(1.37401e+08 -9.46073e+06 3.14403e-08 -1.25903e+07 1.06161e-08 3.74432e+07)
(1.3765e+08 -7.38253e+06 7.97975e-08 -1.4074e+07 3.57946e-08 3.70727e+07)
(1.37907e+08 -5.38443e+06 3.7829e-08 -1.49525e+07 2.9151e-08 3.68863e+07)
(1.37805e+08 -3.71254e+06 8.39549e-09 -1.6014e+07 -3.8724e-09 3.65374e+07)
(1.37823e+08 -2.05459e+06 1.78038e-08 -1.64322e+07 1.38471e-08 3.64172e+07)
(1.37455e+08 -727501 -6.39761e-09 -1.71875e+07 3.31131e-09 3.60801e+07)
(1.37336e+08 656499 2.76477e-08 -1.72209e+07 2.96307e-08 3.60346e+07)
(1.36619e+08 1.76317e+06 1.11222e-08 -1.77988e+07 1.59575e-08 3.56461e+07)
(8.38091e+07 -5.62542e+07 4.12263e-08 3.97204e+07 -2.50779e-08 3.70589e+07)
(9.25424e+07 -5.02285e+07 9.48329e-10 2.99014e+07 -4.46395e-10 3.67331e+07)
(9.97528e+07 -4.48329e+07 8.31606e-10 2.21262e+07 -3.89428e-10 3.65637e+07)
(1.05911e+08 -3.9912e+07 8.26948e-08 1.49082e+07 8.24993e-08 3.62457e+07)
(1.11004e+08 -3.5474e+07 -2.82064e-08 9.20918e+06 -1.66022e-08 3.60641e+07)
(1.15315e+08 -3.14454e+07 7.75794e-08 3.90183e+06 -3.58938e-08 3.57652e+07)
(1.18891e+08 -2.77768e+07 -2.18881e-08 -270102 1.0177e-08 3.55862e+07)
(1.21862e+08 -2.44678e+07 -2.04803e-08 -4.15839e+06 9.54491e-09 3.53111e+07)
(1.24334e+08 -2.14176e+07 -4.7182e-08 -7.18141e+06 -3.24398e-08 3.51458e+07)
(1.26325e+08 -1.8695e+07 -4.92001e-08 -1.00075e+07 2.3421e-08 3.48952e+07)
(1.27989e+08 -1.61435e+07 3.5875e-08 -1.2145e+07 8.84988e-09 3.47532e+07)
(1.29256e+08 -1.39075e+07 -2.95367e-09 -1.41735e+07 -5.00985e-08 3.45249e+07)
(1.30329e+08 -1.17592e+07 -5.2085e-08 -1.56101e+07 -2.42153e-08 3.44158e+07)
(1.31058e+08 -9.93686e+06 9.54251e-09 -1.70414e+07 1.99996e-08 3.4205e+07)
(1.31706e+08 -8.1151e+06 1.00591e-08 -1.79056e+07 1.92852e-08 3.41403e+07)
(1.32023e+08 -6.65029e+06 -1.86878e-08 -1.88939e+07 -1.38274e-08 3.39387e+07)
(1.32384e+08 -5.09737e+06 6.9466e-09 -1.92755e+07 -4.27767e-09 3.39327e+07)
(1.3236e+08 -3.92788e+06 1.11198e-08 -1.99398e+07 1.72828e-08 3.37261e+07)
(1.32567e+08 -2.62224e+06 -3.90633e-08 -1.99038e+07 -2.19457e-08 3.37989e+07)
(1.32108e+08 -1.61315e+06 -1.62709e-08 -2.03945e+07 -1.26343e-08 3.35139e+07)
(6.82238e+07 -4.89823e+07 -2.01877e-08 3.67702e+07 -4.30053e-09 3.14982e+07)
(7.79708e+07 -4.45544e+07 -3.88019e-08 2.69976e+07 2.16644e-08 3.14905e+07)
(8.60892e+07 -4.05124e+07 -4.5309e-08 1.91913e+07 9.09203e-08 3.15841e+07)
(9.31246e+07 -3.67615e+07 8.636e-08 1.20141e+07 -1.53471e-08 3.15416e+07)
(9.90027e+07 -3.33174e+07 2.11042e-09 6.29949e+06 -6.44736e-08 3.15907e+07)
(1.04061e+08 -3.0153e+07 4.11249e-10 1.04452e+06 3.07506e-08 3.15316e+07)
(1.08314e+08 -2.72199e+07 4.65178e-08 -3.12199e+06 4.62314e-09 3.15577e+07)
(1.11915e+08 -2.45551e+07 3.97509e-08 -6.94149e+06 -2.20766e-08 3.14922e+07)
(1.14981e+08 -2.20515e+07 2.39598e-08 -9.94148e+06 1.56204e-08 3.1512e+07)
(1.17496e+08 -1.98129e+07 -5.4648e-08 -1.26821e+07 2.60858e-09 3.14442e+07)
(1.19694e+08 -1.76684e+07 -5.12112e-08 -1.47863e+07 -5.42185e-08 3.14723e+07)
(1.21388e+08 -1.57972e+07 2.12474e-08 -1.67143e+07 1.48715e-08 3.1402e+07)
(1.22957e+08 -1.39541e+07 -4.32675e-08 -1.81145e+07 -5.75225e-10 3.14527e+07)
(1.24021e+08 -1.24038e+07 -3.00295e-08 -1.94354e+07 -7.74479e-09 3.13756e+07)
(1.25139e+08 -1.08177e+07 -1.70574e-09 -2.02588e+07 -2.5481e-08 3.14642e+07)
(1.25717e+08 -9.54949e+06 1.5856e-08 -2.11448e+07 -1.09819e-08 3.13717e+07)
(1.26493e+08 -8.18858e+06 -1.34805e-08 -2.14429e+07 1.00298e-08 3.15151e+07)
(1.26722e+08 -7.16693e+06 5.84514e-09 -2.20728e+07 -4.58044e-09 3.13946e+07)
(1.27302e+08 -6.00576e+06 -1.14459e-08 -2.19305e+07 -1.71626e-08 3.16113e+07)
(1.27068e+08 -5.09065e+06 -2.51593e-08 -2.24704e+07 -3.99208e-09 3.13794e+07)
(5.41139e+07 -4.13288e+07 -1.79282e-08 3.27197e+07 -5.38391e-09 2.60501e+07)
(6.45864e+07 -3.85055e+07 -7.86237e-08 2.31874e+07 8.669e-08 2.63322e+07)
(7.3344e+07 -3.5855e+07 -6.14319e-08 1.55003e+07 4.80955e-09 2.66533e+07)
(8.10448e+07 -3.32999e+07 7.81102e-09 8.50615e+06 -1.07624e-07 2.68653e+07)
(8.75051e+07 -3.09025e+07 2.65347e-08 2.87625e+06 1.64875e-08 2.71144e+07)
(9.31611e+07 -2.8631e+07 -5.0938e-08 -2.22664e+06 -3.28956e-08 2.72803e+07)
(9.79322e+07 -2.64915e+07 4.58285e-10 -6.33105e+06 -2.94506e-10 2.74803e+07)
(1.02069e+08 -2.44932e+07 -4.32443e-08 -1.00149e+07 -3.4009e-09 2.76161e+07)
(1.05586e+08 -2.2597e+07 8.64839e-08 -1.29718e+07 3.5589e-08 2.77843e+07)
(1.08586e+08 -2.08533e+07 1.566e-08 -1.55852e+07 -1.0352e-08 2.79003e+07)
(1.11169e+08 -1.91774e+07 -1.34466e-08 -1.76655e+07 9.06753e-09 2.8051e+07)
(1.13315e+08 -1.76715e+07 7.53763e-08 -1.94694e+07 3.50726e-08 2.81538e+07)
(1.15199e+08 -1.61873e+07 -9.15511e-09 -2.08676e+07 -2.2128e-08 2.82993e+07)
(1.16705e+08 -1.49175e+07 -2.90551e-08 -2.20591e+07 -6.95076e-09 2.83938e+07)
(1.18068e+08 -1.35844e+07 -7.40985e-08 -2.29145e+07 -2.74395e-08 2.8546e+07)
(1.19096e+08 -1.25948e+07 -7.76419e-09 -2.36352e+07 6.20553e-09 2.86383e+07)
(1.20079e+08 -1.13323e+07 4.22913e-08 -2.40529e+07 1.99904e-08 2.88078e+07)
(1.20649e+08 -1.05092e+07 -5.20577e-08 -2.45064e+07 -3.72769e-08 2.88428e+07)
(1.21475e+08 -9.42277e+06 3.35442e-08 -2.44474e+07 2.43423e-08 2.91082e+07)
(1.21417e+08 -8.70809e+06 5.44041e-08 -2.47969e+07 2.27951e-08 2.89861e+07)
(4.1409e+07 -3.33435e+07 -5.44097e-08 2.75234e+07 6.66536e-08 2.06797e+07)
(5.23532e+07 -3.21136e+07 -7.83812e-09 1.84836e+07 4.34698e-08 2.1251e+07)
(6.15465e+07 -3.08351e+07 -4.95217e-08 1.11529e+07 -7.36876e-08 2.18098e+07)
(6.97205e+07 -2.94735e+07 2.65886e-08 4.53012e+06 1.64016e-08 2.22752e+07)
(7.66138e+07 -2.81077e+07 2.44208e-08 -830159 -1.80403e-08 2.27351e+07)
(8.27191e+07 -2.67325e+07 4.93827e-10 -5.63819e+06 -3.64514e-10 2.31243e+07)
(8.7906e+07 -2.53708e+07 -2.48837e-08 -9.52875e+06 -1.5301e-08 2.35132e+07)
(9.2454e+07 -2.4047e+07 5.93067e-09 -1.29658e+07 2.85642e-08 2.38465e+07)
(9.63687e+07 -2.27367e+07 -1.66441e-08 -1.57478e+07 1.25456e-08 2.41863e+07)
(9.97313e+07 -2.15005e+07 3.65794e-08 -1.81414e+07 3.70433e-09 2.4477e+07)