/*--------------------------------*- C++ -*----------------------------------*\
| =========                 |                                                 |
| \\      /  F ield         | OpenFOAM: The Open Source CFD Toolbox           |
|  \\    /   O peration     | Version:  v2012                                 |
|   \\  /    A nd           | Website:  www.openfoam.com                      |
|    \\/     M anipulation  |                                                 |
\*---------------------------------------------------------------------------*/
FoamFile
{
    version     2.0;
    format      ascii;
    class       pointScalarField;
    location    "1";
    object      pEpsilonEq;
}
// * * * * * * * * * * * * * * * * * * * * * * * * * * * * * * * * * * * * * //

dimensions      [0 0 0 0 0 0 0];


internalField   nonuniform List<scalar> 
10435
(
3.66893e-06
3.96036e-06
1.32411e-05
3.30185e-05
3.14507e-05
2.40804e-07
3.61619e-07
1.01082e-06
1.51873e-07
1.29665e-05
1.13293e-05
1.82929e-05
4.8853e-05
6.84335e-06
9.51445e-06
6.97525e-06
7.71881e-06
3.13041e-06
3.08173e-06
3.02626e-05
1.84518e-05
5.4452e-06
3.8566e-05
2.00343e-05
1.46962e-05
3.14507e-05
6.97525e-06
7.71881e-06
3.30185e-05
1.01081e-06
1.29665e-05
1.46962e-05
2.00343e-05
1.82929e-05
1.32411e-05
5.4452e-06
1.84518e-05
3.08173e-06
9.51446e-06
3.13041e-06
1.51871e-07
3.96036e-06
3.66893e-06
1.13293e-05
2.40805e-07
3.85661e-05
4.8853e-05
3.02627e-05
6.84337e-06
3.61611e-07
3.67249e-06
3.69377e-06
3.73145e-06
3.77785e-06
3.82608e-06
3.87089e-06
3.90861e-06
3.93689e-06
3.95432e-06
3.92605e-06
3.89142e-06
3.86307e-06
3.8396e-06
3.81972e-06
3.80221e-06
3.78591e-06
3.76972e-06
3.75252e-06
3.73316e-06
3.71046e-06
3.68319e-06
3.64999e-06
3.60941e-06
3.55988e-06
3.49966e-06
3.42689e-06
3.33958e-06
3.23572e-06
2.73571e-06
2.31624e-06
1.81772e-06
1.34809e-06
1.28771e-06
1.91777e-06
2.90547e-06
3.95569e-06
4.86372e-06
1.35981e-05
1.38888e-05
1.44193e-05
1.50595e-05
1.57135e-05
1.62594e-05
1.65532e-05
1.64518e-05
1.58467e-05
8.81507e-06
9.92489e-06
1.09997e-05
1.20569e-05
1.31027e-05
1.41395e-05
1.51688e-05
1.61915e-05
1.72088e-05
1.82227e-05
1.92365e-05
2.02568e-05
2.12952e-05
2.23718e-05
2.35208e-05
2.47994e-05
2.63019e-05
2.82057e-05
3.11262e-05
1.8305e-05
1.22405e-05
8.5581e-06
6.09772e-06
4.97385e-06
5.64902e-06
7.87141e-06
1.14114e-05
1.72896e-05
2.96711e-05
2.6922e-05
2.5103e-05
2.36463e-05
2.23911e-05
2.12518e-05
2.01767e-05
1.91352e-05
1.81097e-05
1.70904e-05
1.60724e-05
1.50535e-05
1.40331e-05
1.30114e-05
1.19892e-05
1.09675e-05
9.94763e-06
8.93125e-06
7.92085e-06
6.22108e-06
5.53845e-06
4.85949e-06
4.18491e-06
3.51835e-06
2.86639e-06
2.24117e-06
1.6689e-06
1.21564e-06
1.03e-06
1.21599e-06
1.62954e-06
2.11933e-06
2.6187e-06
3.09617e-06
3.5302e-06
3.89995e-06
4.18047e-06
4.33848e-06
4.32706e-06
4.07827e-06
3.49565e-06
2.46876e-06
8.53457e-08
4.16256e-07
9.34583e-07
1.61691e-06
2.10734e-06
2.44075e-06
2.66245e-06
2.80728e-06
2.8998e-06
2.95707e-06
2.9909e-06
3.00951e-06
3.01866e-06
3.02234e-06
3.02336e-06
3.02365e-06
3.0245e-06
3.02679e-06
3.03106e-06
3.03762e-06
3.04664e-06
3.05814e-06
3.0721e-06
3.08848e-06
3.10727e-06
3.15656e-06
3.18502e-06
3.21671e-06
3.2509e-06
3.28687e-06
3.32399e-06
3.36166e-06
3.39937e-06
3.43663e-06
3.47298e-06
3.50796e-06
3.54108e-06
3.57186e-06
3.59972e-06
3.62405e-06
3.64416e-06
3.65929e-06
3.66861e-06
3.67132e-06
3.3247e-06
3.49586e-06
3.59383e-06
3.6147e-06
3.56769e-06
3.47186e-06
3.35259e-06
3.2378e-06
3.15389e-06
6.61312e-06
7.67177e-06
8.98528e-06
9.97685e-06
1.04222e-05
1.02518e-05
9.5154e-06
8.45803e-06
7.6843e-06
1.26937e-05
1.20246e-05
1.13602e-05
1.09175e-05
1.06961e-05
1.06416e-05
1.06914e-05
1.07898e-05
1.08916e-05
1.0962e-05
1.09747e-05
1.09101e-05
1.07544e-05
1.0499e-05
1.01404e-05
9.68098e-06
9.13162e-06
8.51479e-06
7.87101e-06
7.26844e-06
6.81417e-06
6.65756e-06
6.9694e-06
1.12078e-05
2.97624e-05
1.06665e-05
7.21142e-06
5.32602e-06
4.06607e-06
3.09966e-06
2.29255e-06
1.59546e-06
1.04484e-06
8.74954e-07
1.25651e-06
1.90502e-06
2.65861e-06
3.47545e-06
4.34189e-06
5.25018e-06
6.19291e-06
7.16129e-06
8.14452e-06
9.12974e-06
1.0102e-05
1.10445e-05
1.19381e-05
1.27608e-05
7.70809e-06
9.62932e-06
9.19519e-06
8.51256e-06
7.80629e-06
7.13582e-06
6.51468e-06
5.94312e-06
5.4183e-06
4.93752e-06
4.49926e-06
4.10339e-06
3.75112e-06
3.44481e-06
3.18749e-06
2.98221e-06
2.83105e-06
2.73404e-06
2.68837e-06
2.68828e-06
2.72574e-06
2.79164e-06
2.87693e-06
2.97337e-06
2.84128e-07
6.1542e-07
1.11991e-06
1.88311e-06
2.8963e-06
4.14364e-06
5.61654e-06
7.30929e-06
9.21503e-06
1.42018e-05
1.53744e-05
1.64305e-05
1.73662e-05
1.81718e-05
1.88377e-05
1.93569e-05
1.97264e-05
1.99491e-05
1.84353e-05
1.86693e-05
1.88831e-05
1.9061e-05
1.91861e-05
1.92405e-05
1.92074e-05
1.90717e-05
1.88221e-05
5.35853e-06
4.06668e-06
2.96335e-06
2.04949e-06
1.33022e-06
8.21476e-07
5.42197e-07
4.23364e-07
3.02466e-07
1.93023e-06
3.06849e-06
4.2126e-06
5.40084e-06
6.63958e-06
7.91559e-06
9.20669e-06
1.04855e-05
1.17177e-05
1.36529e-05
1.61729e-05
1.88572e-05
2.16653e-05
2.45532e-05
2.74757e-05
3.03858e-05
3.3236e-05
3.59783e-05
4.80931e-05
4.70349e-05
4.56918e-05
4.40801e-05
4.2221e-05
4.01406e-05
3.78697e-05
3.5442e-05
3.28938e-05
8.39865e-06
7.33204e-06
6.26281e-06
5.21945e-06
4.22372e-06
3.29154e-06
2.42821e-06
1.617e-06
8.00941e-07
2.1627e-05
1.58596e-05
1.42005e-05
1.29223e-05
1.18808e-05
1.10073e-05
1.02608e-05
9.61407e-06
9.04778e-06
8.54798e-06
8.10433e-06
7.70897e-06
7.35593e-06
7.04058e-06
6.75934e-06
6.50943e-06
6.28866e-06
6.09536e-06
5.92824e-06
5.78633e-06
5.66893e-06
5.5756e-06
5.50615e-06
5.46063e-06
2.57262e-05
1.35115e-05
1.23769e-05
1.14462e-05
1.07012e-05
1.01239e-05
9.6962e-06
9.39979e-06
9.21642e-06
9.12871e-06
9.12102e-06
9.18015e-06
9.29592e-06
9.46151e-06
9.67368e-06
9.93306e-06
1.02445e-05
1.0618e-05
1.10697e-05
1.16252e-05
1.2324e-05
1.32324e-05
1.44762e-05
1.63637e-05
4.09549e-05
4.31042e-05
4.49782e-05
4.65473e-05
4.77886e-05
4.86872e-05
4.92369e-05
4.94403e-05
4.93077e-05
2.75861e-05
2.49011e-05
2.2243e-05
1.9645e-05
1.71374e-05
1.4748e-05
1.2502e-05
1.04227e-05
8.53138e-06
1.99989e-05
1.98661e-05
1.96641e-05
1.94227e-05
1.91701e-05
1.89292e-05
1.87147e-05
1.85309e-05
1.83699e-05
1.79597e-05
1.73496e-05
1.66299e-05
1.58117e-05
1.49076e-05
1.39303e-05
1.28913e-05
1.17995e-05
1.06565e-05
1.30388e-05
1.09815e-05
8.66538e-06
6.22804e-06
3.77954e-06
1.43525e-06
1.23588e-06
3.47724e-06
5.94654e-06
5.54381e-06
5.05854e-06
3.96315e-06
2.31162e-06
4.79709e-07
2.40998e-06
5.0748e-06
7.80608e-06
1.04036e-05
2.96711e-05
2.6922e-05
2.5103e-05
2.36463e-05
2.23911e-05
2.12518e-05
2.01767e-05
1.91352e-05
1.81097e-05
1.70904e-05
1.60724e-05
1.50535e-05
1.40331e-05
1.30114e-05
1.19892e-05
1.09675e-05
9.94763e-06
8.93125e-06
7.92085e-06
6.61312e-06
7.67177e-06
8.98528e-06
9.97685e-06
1.04222e-05
1.02518e-05
9.5154e-06
8.45803e-06
7.6843e-06
8.81507e-06
9.92489e-06
1.09997e-05
1.20569e-05
1.31027e-05
1.41395e-05
1.51688e-05
1.61915e-05
1.72088e-05
1.82227e-05
1.92365e-05
2.02568e-05
2.12952e-05
2.23718e-05
2.35208e-05
2.47994e-05
2.63019e-05
2.82057e-05
3.11262e-05
1.8305e-05
1.22405e-05
8.5581e-06
6.09772e-06
4.97385e-06
5.64902e-06
7.87141e-06
1.14114e-05
1.72896e-05
3.14507e-05
3.14507e-05
3.14507e-05
6.97525e-06
6.97525e-06
6.97525e-06
7.71881e-06
7.71881e-06
7.71881e-06
3.30185e-05
3.30185e-05
3.30185e-05
6.22108e-06
5.53845e-06
4.85949e-06
4.18491e-06
3.51835e-06
2.86639e-06
2.24117e-06
1.6689e-06
1.21564e-06
1.03e-06
1.21599e-06
1.62954e-06
2.11933e-06
2.6187e-06
3.09617e-06
3.5302e-06
3.89995e-06
4.18047e-06
4.33848e-06
4.32706e-06
4.07827e-06
3.49564e-06
2.46876e-06
1.93022e-06
3.06849e-06
4.2126e-06
5.40083e-06
6.63957e-06
7.91559e-06
9.20668e-06
1.04855e-05
1.17177e-05
1.26937e-05
1.20246e-05
1.13602e-05
1.09175e-05
1.06961e-05
1.06416e-05
1.06914e-05
1.07898e-05
1.08916e-05
1.0962e-05
1.09747e-05
1.09101e-05
1.07544e-05
1.0499e-05
1.01404e-05
9.68098e-06
9.13162e-06
8.51479e-06
7.87101e-06
7.26844e-06
6.81417e-06
6.65756e-06
6.9694e-06
1.01082e-06
1.01081e-06
1.01081e-06
1.29665e-05
1.29665e-05
1.29665e-05
5.94654e-06
3.47724e-06
1.23588e-06
1.43525e-06
3.77954e-06
6.22804e-06
8.66538e-06
1.09815e-05
1.30388e-05
1.35115e-05
1.23769e-05
1.14462e-05
1.07012e-05
1.01239e-05
9.6962e-06
9.39979e-06
9.21642e-06
9.12871e-06
9.12102e-06
9.18015e-06
9.29592e-06
9.46151e-06
9.67368e-06
9.93306e-06
1.02445e-05
1.0618e-05
1.10697e-05
1.16252e-05
1.2324e-05
1.32324e-05
1.44762e-05
1.63637e-05
1.99491e-05
1.97264e-05
1.93569e-05
1.88377e-05
1.81718e-05
1.73662e-05
1.64305e-05
1.53743e-05
1.42018e-05
1.46962e-05
1.46962e-05
1.46962e-05
2.00343e-05
2.00343e-05
2.00343e-05
1.99989e-05
1.98661e-05
1.96641e-05
1.94227e-05
1.91701e-05
1.89292e-05
1.87147e-05
1.85309e-05
1.83698e-05
1.06665e-05
7.21142e-06
5.32602e-06
4.06607e-06
3.09967e-06
2.29255e-06
1.59546e-06
1.04484e-06
8.74954e-07
1.25651e-06
1.90502e-06
2.65861e-06
3.47545e-06
4.34189e-06
5.25018e-06
6.19291e-06
7.16129e-06
8.14452e-06
9.12974e-06
1.0102e-05
1.10445e-05
1.19381e-05
1.27608e-05
1.35981e-05
1.38888e-05
1.44193e-05
1.50595e-05
1.57135e-05
1.62594e-05
1.65532e-05
1.64518e-05
1.58467e-05
1.82929e-05
1.82929e-05
1.82929e-05
1.32411e-05
1.32411e-05
1.32411e-05
1.04036e-05
7.80608e-06
5.0748e-06
2.40998e-06
4.79709e-07
2.31162e-06
3.96315e-06
5.05854e-06
5.54381e-06
5.46063e-06
5.50615e-06
5.5756e-06
5.66893e-06
5.78632e-06
5.92824e-06
6.09536e-06
6.28866e-06
6.50943e-06
6.75934e-06
7.04058e-06
7.35593e-06
7.70897e-06
8.10433e-06
8.54798e-06
9.04778e-06
9.61407e-06
1.02608e-05
1.10073e-05
1.18808e-05
1.29223e-05
1.42005e-05
1.58596e-05
1.88221e-05
1.90717e-05
1.92074e-05
1.92405e-05
1.91861e-05
1.9061e-05
1.88831e-05
1.86693e-05
1.84353e-05
5.4452e-06
5.4452e-06
5.4452e-06
1.84518e-05
1.84518e-05
1.84518e-05
4.86372e-06
3.95569e-06
2.90547e-06
1.91777e-06
1.28771e-06
1.34809e-06
1.81772e-06
2.31624e-06
2.73571e-06
2.97337e-06
2.87693e-06
2.79164e-06
2.72574e-06
2.68828e-06
2.68837e-06
2.73404e-06
2.83105e-06
2.98221e-06
3.18749e-06
3.44481e-06
3.75112e-06
4.10339e-06
4.49926e-06
4.93752e-06
5.4183e-06
5.94312e-06
6.51468e-06
7.13582e-06
7.80629e-06
8.51256e-06
9.19519e-06
9.62932e-06
1.06565e-05
1.17995e-05
1.28913e-05
1.39303e-05
1.49076e-05
1.58117e-05
1.66299e-05
1.73496e-05
1.79597e-05
3.08173e-06
3.08173e-06
3.08173e-06
9.51446e-06
9.51446e-06
9.51446e-06
3.15389e-06
3.2378e-06
3.35258e-06
3.47186e-06
3.56769e-06
3.6147e-06
3.59383e-06
3.49586e-06
3.3247e-06
3.10726e-06
3.08848e-06
3.0721e-06
3.05814e-06
3.04663e-06
3.03762e-06
3.03106e-06
3.02679e-06
3.0245e-06
3.02365e-06
3.02337e-06
3.02235e-06
3.01866e-06
3.00951e-06
2.9909e-06
2.95707e-06
2.8998e-06
2.80728e-06
2.66245e-06
2.44074e-06
2.10734e-06
1.61691e-06
9.3458e-07
8.00938e-07
1.617e-06
2.42821e-06
3.29154e-06
4.22372e-06
5.21945e-06
6.26282e-06
7.33204e-06
8.39866e-06
3.13041e-06
3.13041e-06
3.13041e-06
1.51873e-07
1.51874e-07
1.51873e-07
3.92605e-06
3.89142e-06
3.86307e-06
3.8396e-06
3.81972e-06
3.8022e-06
3.78591e-06
3.76972e-06
3.75251e-06
3.73316e-06
3.71046e-06
3.68319e-06
3.64999e-06
3.60941e-06
3.55988e-06
3.49966e-06
3.42689e-06
3.33958e-06
3.23572e-06
3.15656e-06
3.18502e-06
3.21671e-06
3.2509e-06
3.28688e-06
3.32399e-06
3.36166e-06
3.39937e-06
3.43663e-06
3.47298e-06
3.50795e-06
3.54108e-06
3.57186e-06
3.59972e-06
3.62405e-06
3.64416e-06
3.65928e-06
3.66861e-06
3.67132e-06
3.67249e-06
3.69377e-06
3.73145e-06
3.77785e-06
3.82608e-06
3.87089e-06
3.90861e-06
3.93689e-06
3.95432e-06
3.96036e-06
3.96036e-06
3.96036e-06
3.66893e-06
3.66893e-06
3.66893e-06
1.12078e-05
9.21504e-06
7.30929e-06
5.61653e-06
4.14363e-06
2.89629e-06
1.88311e-06
1.11991e-06
6.15418e-07
2.84129e-07
8.53471e-08
1.13293e-05
1.13293e-05
1.13293e-05
2.40803e-07
2.40803e-07
2.40803e-07
2.57262e-05
3.59783e-05
3.3236e-05
3.03858e-05
2.74757e-05
2.45532e-05
2.16653e-05
1.88572e-05
1.61729e-05
1.36529e-05
3.85661e-05
3.85661e-05
3.85661e-05
2.97624e-05
4.93077e-05
4.94403e-05
4.92369e-05
4.86872e-05
4.77886e-05
4.65473e-05
4.49782e-05
4.31042e-05
4.09549e-05
4.8853e-05
4.8853e-05
4.8853e-05
2.16271e-05
3.28939e-05
3.5442e-05
3.78697e-05
4.01406e-05
4.2221e-05
4.40801e-05
4.56918e-05
4.70349e-05
4.80931e-05
3.02626e-05
3.02626e-05
3.02626e-05
7.70811e-06
8.5314e-06
1.04227e-05
1.2502e-05
1.4748e-05
1.71374e-05
1.9645e-05
2.2243e-05
2.49011e-05
2.75861e-05
6.84337e-06
6.84338e-06
6.84337e-06
4.16255e-07
3.02452e-07
4.23351e-07
5.42195e-07
8.21489e-07
1.33024e-06
2.04951e-06
2.96337e-06
4.06671e-06
5.35856e-06
3.61614e-07
3.61614e-07
3.61618e-07
1.86027e-05
1.21862e-05
8.28058e-06
5.88936e-06
5.17646e-06
6.37243e-06
9.02269e-06
1.30876e-05
1.96967e-05
1.9816e-05
1.37036e-05
9.67647e-06
7.29958e-06
6.63466e-06
7.77577e-06
1.04543e-05
1.46769e-05
2.0967e-05
1.97312e-05
1.44572e-05
1.06658e-05
8.41395e-06
7.80791e-06
8.89318e-06
1.14747e-05
1.54763e-05
2.08924e-05
1.92028e-05
1.46744e-05
1.1269e-05
9.22849e-06
8.70048e-06
9.71105e-06
1.20988e-05
1.57192e-05
2.03623e-05
1.84987e-05
1.45632e-05
1.15713e-05
9.7851e-06
9.34723e-06
1.02675e-05
1.24115e-05
1.56204e-05
1.96538e-05
1.77191e-05
1.42575e-05
1.1661e-05
1.01404e-05
9.7962e-06
1.06182e-05
1.25026e-05
1.53185e-05
1.88699e-05
1.69067e-05
1.38389e-05
1.16091e-05
1.03485e-05
1.00958e-05
1.08179e-05
1.24449e-05
1.48982e-05
1.80539e-05
1.60812e-05
1.33573e-05
1.14674e-05
1.04545e-05
1.02879e-05
1.09124e-05
1.22923e-05
1.44111e-05
1.72258e-05
1.52521e-05
1.28432e-05
1.12722e-05
1.04926e-05
1.04056e-05
1.09369e-05
1.20825e-05
1.38893e-05
1.63948e-05
1.4424e-05
1.23154e-05
1.10478e-05
1.04873e-05
1.04735e-05
1.09169e-05
1.18412e-05
1.33524e-05
1.55654e-05
1.35994e-05
1.17857e-05
1.08105e-05
1.0456e-05
1.05092e-05
1.08702e-05
1.15855e-05
1.28129e-05
1.47397e-05
1.27797e-05
1.12613e-05
1.05707e-05
1.041e-05
1.05247e-05
1.08088e-05
1.13265e-05
1.22784e-05
1.39192e-05
1.1966e-05
1.07473e-05
1.03349e-05
1.03569e-05
1.05281e-05
1.07405e-05
1.1071e-05
1.1754e-05
1.31048e-05
1.11594e-05
1.02468e-05
1.01073e-05
1.03015e-05
1.05247e-05
1.06703e-05
1.08233e-05
1.12429e-05
1.22979e-05
1.03612e-05
9.76248e-06
9.8903e-06
1.02469e-05
1.05182e-05
1.06016e-05
1.05859e-05
1.0747e-05
1.14999e-05
9.57302e-06
9.29631e-06
9.68546e-06
1.01949e-05
1.05114e-05
1.05369e-05
1.03601e-05
1.0267e-05
1.07124e-05
8.7969e-06
8.85016e-06
9.49366e-06
1.01471e-05
1.05064e-05
1.04786e-05
1.01474e-05
9.80292e-06
9.9364e-06
8.03532e-06
8.42581e-06
9.31557e-06
1.01046e-05
1.05054e-05
1.04298e-05
9.9509e-06
9.3541e-06
9.17018e-06
7.29095e-06
8.0253e-06
9.15205e-06
1.00683e-05
1.05104e-05
1.03944e-05
9.77674e-06
8.92295e-06
8.40523e-06
6.03202e-06
7.29356e-06
8.75313e-06
9.88146e-06
1.04732e-05
1.04485e-05
9.81351e-06
8.70075e-06
7.52108e-06
5.50606e-06
6.92141e-06
8.47982e-06
9.70359e-06
1.04111e-05
1.05233e-05
1.00243e-05
8.98151e-06
7.64435e-06
4.99145e-06
6.54808e-06
8.19165e-06
9.50139e-06
1.03199e-05
1.05716e-05
1.02282e-05
9.31529e-06
7.96586e-06
4.48605e-06
6.17464e-06
7.88984e-06
9.2749e-06
1.01969e-05
1.05859e-05
1.04067e-05
9.65996e-06
8.40603e-06
3.99334e-06
5.8031e-06
7.57586e-06
9.02468e-06
1.00409e-05
1.05611e-05
1.05472e-05
9.98574e-06
8.89669e-06
3.52143e-06
5.43726e-06
7.2519e-06
8.75192e-06
9.85162e-06
1.04941e-05
1.06409e-05
1.02715e-05
9.38537e-06
3.0838e-06
5.08306e-06
6.9213e-06
8.45868e-06
9.62972e-06
1.03835e-05
1.06822e-05
1.05025e-05
9.83483e-06
2.70132e-06
4.74875e-06
6.58881e-06
8.14815e-06
9.37711e-06
1.02294e-05
1.06683e-05
1.06695e-05
1.02203e-05
2.4039e-06
4.44509e-06
6.26092e-06
7.8249e-06
9.09703e-06
1.00336e-05
1.05985e-05
1.07673e-05
1.05267e-05
2.22752e-06
4.18515e-06
5.94607e-06
7.49522e-06
8.79431e-06
9.79962e-06
1.04745e-05
1.07944e-05
1.07463e-05
2.20031e-06
3.9836e-06
5.65482e-06
7.16746e-06
8.47579e-06
9.53289e-06
1.03003e-05
1.07527e-05
1.0877e-05
2.32292e-06
3.85463e-06
5.39976e-06
6.85237e-06
8.1507e-06
9.24142e-06
1.00828e-05
1.06475e-05
1.09221e-05
2.56584e-06
3.80884e-06
5.19486e-06
6.56327e-06
7.8312e-06
8.93623e-06
9.83176e-06
1.04877e-05
1.0889e-05
2.88695e-06
3.84964e-06
5.05408e-06
6.31589e-06
7.53272e-06
8.63193e-06
9.56111e-06
1.02864e-05
1.07903e-05
3.24709e-06
3.97111e-06
4.9889e-06
6.12752e-06
7.27408e-06
8.34741e-06
9.28929e-06
1.00617e-05
1.06439e-05
3.61364e-06
4.15807e-06
5.00522e-06
6.0149e-06
7.07672e-06
8.10594e-06
9.04024e-06
9.83773e-06
1.04744e-05
3.9578e-06
4.38779e-06
5.10034e-06
5.99086e-06
6.9626e-06
7.93441e-06
8.84354e-06
9.64582e-06
1.03143e-05
4.25029e-06
4.63142e-06
5.26081e-06
6.05979e-06
6.94995e-06
7.86048e-06
8.73307e-06
9.52418e-06
1.02052e-05
4.45662e-06
4.85343e-06
5.46092e-06
6.21264e-06
7.04675e-06
7.90646e-06
8.74248e-06
9.51538e-06
1.0197e-05
4.53154e-06
5.00839e-06
5.66012e-06
6.42121e-06
7.24175e-06
8.07901e-06
8.89518e-06
9.658e-06
1.03421e-05
4.41171e-06
5.03388e-06
5.79607e-06
6.6288e-06
7.49097e-06
8.35204e-06
9.18554e-06
9.96772e-06
1.06779e-05
4.00687e-06
4.83695e-06
5.76601e-06
6.72694e-06
7.68952e-06
8.63358e-06
9.54162e-06
1.03976e-05
1.11859e-05
3.20051e-06
4.26549e-06
5.37255e-06
6.48483e-06
7.59001e-06
8.67506e-06
9.72541e-06
1.07287e-05
1.16795e-05
1.35221e-05
1.43792e-05
1.51747e-05
1.58701e-05
1.643e-05
1.68232e-05
1.70244e-05
1.70164e-05
1.67935e-05
1.27574e-05
1.35275e-05
1.42303e-05
1.48329e-05
1.52977e-05
1.5587e-05
1.56672e-05
1.55133e-05
1.51141e-05
1.20645e-05
1.27693e-05
1.34134e-05
1.39626e-05
1.43779e-05
1.46184e-05
1.46456e-05
1.44301e-05
1.39572e-05
1.16006e-05
1.22327e-05
1.2814e-05
1.33092e-05
1.36776e-05
1.38763e-05
1.38643e-05
1.36091e-05
1.30942e-05
1.13457e-05
1.18962e-05
1.24058e-05
1.28392e-05
1.3155e-05
1.3309e-05
1.32584e-05
1.29692e-05
1.24234e-05
1.12421e-05
1.1707e-05
1.21397e-05
1.25057e-05
1.2764e-05
1.28697e-05
1.27793e-05
1.24578e-05
1.18865e-05
1.12301e-05
1.16113e-05
1.1967e-05
1.22644e-05
1.24635e-05
1.25197e-05
1.23896e-05
1.20378e-05
1.14457e-05
1.12577e-05
1.15619e-05
1.18452e-05
1.2077e-05
1.2219e-05
1.22276e-05
1.20602e-05
1.16819e-05
1.10749e-05
1.12829e-05
1.15199e-05
1.17388e-05
1.19115e-05
1.20017e-05
1.19678e-05
1.17684e-05
1.13701e-05
1.0756e-05
1.12728e-05
1.14541e-05
1.16188e-05
1.17415e-05
1.17882e-05
1.17197e-05
1.14966e-05
1.10872e-05
1.04766e-05
1.12015e-05
1.1339e-05
1.14612e-05
1.15448e-05
1.15588e-05
1.14664e-05
1.12307e-05
1.08223e-05
1.02289e-05
1.10491e-05
1.11544e-05
1.12459e-05
1.1303e-05
1.1297e-05
1.11941e-05
1.096e-05
1.05682e-05
1.0009e-05
1.08002e-05
1.08834e-05
1.09561e-05
1.09998e-05
1.09887e-05
1.08915e-05
1.06767e-05
1.03208e-05
9.81661e-06
1.04439e-05
1.05124e-05
1.0577e-05
1.06213e-05
1.06216e-05
1.05492e-05
1.03754e-05
1.00791e-05
9.65526e-06
9.97297e-06
1.00306e-05
1.00959e-05
1.01547e-05
1.01851e-05
1.01604e-05
1.00538e-05
9.84577e-06
9.53211e-06
9.38539e-06
9.42952e-06
9.50143e-06
9.58849e-06
9.67007e-06
9.72027e-06
9.71272e-06
9.62754e-06
9.45845e-06
8.68546e-06
8.70434e-06
8.78365e-06
8.91224e-06
9.06919e-06
9.22719e-06
9.35744e-06
9.43594e-06
9.44974e-06
7.8876e-06
7.85453e-06
7.9341e-06
8.11651e-06
8.37764e-06
8.68415e-06
8.99914e-06
9.28831e-06
9.52561e-06
7.02358e-06
6.88711e-06
6.94611e-06
7.19322e-06
7.59476e-06
8.10124e-06
8.65714e-06
9.20864e-06
9.70935e-06
6.15762e-06
5.82406e-06
5.81582e-06
6.13639e-06
6.72761e-06
7.50021e-06
8.3616e-06
9.22783e-06
1.00269e-05
5.41493e-06
4.72283e-06
4.54509e-06
4.94413e-06
5.79886e-06
6.92169e-06
8.15609e-06
9.38279e-06
1.05054e-05
5.01601e-06
3.73561e-06
3.15339e-06
3.6252e-06
4.86543e-06
6.43505e-06
8.0978e-06
9.71387e-06
1.11718e-05
5.24283e-06
3.23496e-06
1.75425e-06
2.23159e-06
4.06096e-06
6.14547e-06
8.25266e-06
1.0261e-05
1.20518e-05
1.45557e-05
1.51524e-05
1.53315e-05
1.51739e-05
1.47893e-05
1.42916e-05
1.37819e-05
1.33427e-05
1.30492e-05
1.32613e-05
1.37975e-05
1.40029e-05
1.39329e-05
1.36658e-05
1.32867e-05
1.28746e-05
1.24964e-05
1.22045e-05
1.21509e-05
1.25949e-05
1.27855e-05
1.27576e-05
1.25642e-05
1.22664e-05
1.19241e-05
1.15902e-05
1.13051e-05
1.12108e-05
1.15357e-05
1.16766e-05
1.16525e-05
1.14959e-05
1.12477e-05
1.09514e-05
1.06475e-05
1.03687e-05
1.04291e-05
1.06133e-05
1.0675e-05
1.06219e-05
1.04706e-05
1.02451e-05
9.97419e-06
9.68752e-06
9.4112e-06
9.79507e-06
9.82248e-06
9.77997e-06
9.66964e-06
9.49638e-06
9.27033e-06
9.00716e-06
8.72629e-06
8.44736e-06
9.2979e-06
9.15871e-06
8.99196e-06
8.79988e-06
8.58054e-06
8.33331e-06
8.06237e-06
7.7772e-06
7.49054e-06
8.9265e-06
8.61778e-06
8.31193e-06
8.01707e-06
7.72985e-06
7.44258e-06
7.14977e-06
6.85135e-06
6.55245e-06
8.66928e-06
8.19511e-06
7.74125e-06
7.32632e-06
6.95131e-06
6.60602e-06
6.27783e-06
5.95784e-06
5.64302e-06
8.51444e-06
7.88539e-06
7.28121e-06
6.73354e-06
6.2528e-06
5.83174e-06
5.45431e-06
5.10434e-06
4.77046e-06
8.45055e-06
7.68249e-06
6.93261e-06
6.24533e-06
5.64383e-06
5.12929e-06
4.68747e-06
4.29797e-06
3.94194e-06
8.46737e-06
7.57969e-06
6.69524e-06
5.8686e-06
5.13606e-06
4.51135e-06
3.98811e-06
3.54718e-06
3.16517e-06
8.55662e-06
7.57038e-06
6.56775e-06
5.6098e-06
4.74341e-06
3.9956e-06
3.37303e-06
2.86554e-06
2.45241e-06
8.71279e-06
7.64898e-06
6.54795e-06
5.47411e-06
4.48102e-06
3.60621e-06
2.8705e-06
2.28045e-06
1.83196e-06
8.93383e-06
7.81219e-06
6.63384e-06
5.46496e-06
4.36306e-06
3.37253e-06
2.52575e-06
1.8501e-06
1.37919e-06
9.22198e-06
8.06028e-06
6.82525e-06
5.58482e-06
4.40023e-06
3.3224e-06
2.39576e-06
1.67429e-06
1.24974e-06
9.58483e-06
8.39876e-06
7.12621e-06
5.83762e-06
4.5996e-06
3.4729e-06
2.52028e-06
1.82969e-06
1.52443e-06
1.00371e-05
8.84082e-06
7.54829e-06
6.23323e-06
4.9692e-06
3.82951e-06
2.89717e-06
2.28006e-06
2.07556e-06
1.06039e-05
9.41142e-06
8.11601e-06
6.7947e-06
5.52812e-06
4.40115e-06
3.50971e-06
2.95871e-06
2.80644e-06
1.13276e-05
1.01559e-05
8.87741e-06
7.57152e-06
6.32409e-06
5.22704e-06
4.37869e-06
3.86919e-06
3.73066e-06
1.22836e-05
1.11601e-05
9.929e-06
8.66949e-06
7.46904e-06
6.42014e-06
5.61455e-06
5.125e-06
4.97143e-06
1.36258e-05
1.26085e-05
1.14864e-05
1.03342e-05
9.23487e-06
8.27348e-06
7.5284e-06
7.05527e-06
6.86893e-06
1.57499e-05
1.49899e-05
1.41345e-05
1.32445e-05
1.23862e-05
1.16256e-05
1.10207e-05
1.06112e-05
1.04112e-05
1.09244e-05
1.16312e-05
1.24078e-05
1.32016e-05
1.39606e-05
1.46376e-05
1.51923e-05
1.55932e-05
1.58191e-05
7.63041e-06
8.51559e-06
9.47595e-06
1.04585e-05
1.14108e-05
1.22831e-05
1.30301e-05
1.36145e-05
1.40093e-05
5.8618e-06
6.79745e-06
7.81079e-06
8.84695e-06
9.85465e-06
1.07846e-05
1.15908e-05
1.22333e-05
1.26824e-05
4.69039e-06
5.64559e-06
6.67483e-06
7.72503e-06
8.74651e-06
9.69087e-06
1.05118e-05
1.11685e-05
1.16302e-05
3.80247e-06
4.77306e-06
5.81127e-06
6.86592e-06
7.88926e-06
8.8338e-06
9.65335e-06
1.03068e-05
1.07633e-05
3.07072e-06
4.05764e-06
5.10676e-06
6.16675e-06
7.19102e-06
8.13273e-06
8.94582e-06
9.58915e-06
1.00323e-05
2.43784e-06
3.43814e-06
4.50198e-06
5.57203e-06
6.601e-06
7.54192e-06
8.34854e-06
8.97978e-06
9.40588e-06
1.8849e-06
2.88134e-06
3.9619e-06
5.048e-06
6.08767e-06
7.03242e-06
7.83527e-06
8.45505e-06
8.86282e-06
1.4338e-06
2.37065e-06
3.46431e-06
4.57226e-06
5.62976e-06
6.58449e-06
7.3879e-06
7.99843e-06
8.38799e-06
1.17571e-06
1.90471e-06
2.99485e-06
4.12907e-06
5.21208e-06
6.18394e-06
6.99334e-06
7.59788e-06
7.97027e-06
1.24304e-06
1.50526e-06
2.54509e-06
3.70687e-06
4.82327e-06
5.82013e-06
6.64174e-06
7.24435e-06
7.60128e-06
1.61646e-06
1.23747e-06
2.1129e-06
3.29705e-06
4.4545e-06
5.48479e-06
6.32552e-06
6.93087e-06
7.27463e-06
2.16641e-06
1.21e-06
1.70585e-06
2.89326e-06
4.09876e-06
5.17136e-06
6.03866e-06
6.65195e-06
6.98529e-06
2.81425e-06
1.46113e-06
1.3515e-06
2.49131e-06
3.75036e-06
4.87447e-06
5.77626e-06
6.40321e-06
6.72932e-06
3.52707e-06
1.90719e-06
1.11873e-06
2.08961e-06
3.40464e-06
4.58966e-06
5.53428e-06
6.18104e-06
6.50355e-06
4.28969e-06
2.46584e-06
1.11455e-06
1.69089e-06
3.05776e-06
4.31318e-06
5.30933e-06
5.98244e-06
6.30541e-06
5.09269e-06
3.09506e-06
1.36781e-06
1.3074e-06
2.70669e-06
4.04185e-06
5.0985e-06
5.80488e-06
6.13277e-06
5.92798e-06
3.77461e-06
1.79462e-06
9.77422e-07
2.34915e-06
3.77294e-06
4.89927e-06
5.6462e-06
5.9839e-06
6.78693e-06
4.49282e-06
2.31958e-06
8.0422e-07
1.9838e-06
3.50411e-06
4.70943e-06
5.50452e-06
5.85735e-06
7.65951e-06
5.24109e-06
2.90518e-06
9.17625e-07
1.61088e-06
3.23337e-06
4.52702e-06
5.37822e-06
5.75195e-06
8.53372e-06
6.01175e-06
3.53352e-06
1.26758e-06
1.23408e-06
2.95902e-06
4.35026e-06
5.26586e-06
5.66672e-06
9.39525e-06
6.79753e-06
4.19491e-06
1.73555e-06
8.67964e-07
2.67973e-06
4.17752e-06
5.16619e-06
5.60098e-06
1.02279e-05
7.59249e-06
4.88351e-06
2.26583e-06
5.72223e-07
2.3946e-06
4.00723e-06
5.07812e-06
5.55424e-06
1.57158e-05
1.53985e-05
1.4927e-05
1.43264e-05
1.36246e-05
1.28503e-05
1.20314e-05
1.11945e-05
1.03656e-05
1.41881e-05
1.39859e-05
1.36184e-05
1.31174e-05
1.25179e-05
1.18541e-05
1.11567e-05
1.04513e-05
9.75672e-06
1.29531e-05
1.27902e-05
1.24618e-05
1.20037e-05
1.14541e-05
1.08493e-05
1.02204e-05
9.5914e-06
8.97935e-06
1.1921e-05
1.17685e-05
1.14541e-05
1.10161e-05
1.04948e-05
9.92699e-06
9.34328e-06
8.76668e-06
8.2131e-06
1.10411e-05
1.08846e-05
1.05711e-05
1.01412e-05
9.63629e-06
9.09351e-06
8.54278e-06
8.00605e-06
7.49799e-06
1.02792e-05
1.01101e-05
9.78926e-06
9.35954e-06
8.8634e-06
8.3381e-06
7.81293e-06
7.30875e-06
6.83881e-06
9.6114e-06
9.42349e-06
9.08931e-06
8.65384e-06
8.16084e-06
7.6478e-06
7.14343e-06
6.66742e-06
6.2316e-06
9.01997e-06
8.8086e-06
8.45607e-06
8.01e-06
7.51571e-06
7.01114e-06
6.52452e-06
6.07441e-06
5.6711e-06
8.49191e-06
8.25306e-06
7.8778e-06
7.41689e-06
6.91766e-06
6.41879e-06
5.94821e-06
5.5234e-06
5.15304e-06
8.01741e-06
7.74745e-06
7.3454e-06
6.8658e-06
6.3585e-06
5.86338e-06
5.40833e-06
5.00981e-06
4.67465e-06
7.58901e-06
7.28456e-06
6.85184e-06
6.3499e-06
5.83182e-06
5.33924e-06
4.9004e-06
4.53073e-06
4.23486e-06
7.20101e-06
6.85884e-06
6.39166e-06
5.86387e-06
5.33261e-06
4.84209e-06
4.42139e-06
4.08486e-06
3.83417e-06
6.84904e-06
6.46606e-06
5.96068e-06
5.40357e-06
4.85703e-06
4.36887e-06
3.96966e-06
3.67247e-06
3.47467e-06
6.5298e-06
6.10306e-06
5.55576e-06
4.96588e-06
4.4022e-06
3.91756e-06
3.54493e-06
3.29548e-06
3.15986e-06
6.24079e-06
5.76753e-06
5.17464e-06
4.54854e-06
3.96611e-06
3.4872e-06
3.1484e-06
2.95754e-06
2.89435e-06
5.9802e-06
5.45788e-06
4.81584e-06
4.15008e-06
3.54757e-06
3.07797e-06
2.78305e-06
2.66406e-06
2.68313e-06
5.74674e-06
5.17322e-06
4.47867e-06
3.76985e-06
3.14628e-06
2.69148e-06
2.45405e-06
2.42199e-06
2.53032e-06
5.5396e-06
4.91318e-06
4.16315e-06
3.4081e-06
2.76306e-06
2.33125e-06
2.16924e-06
2.23876e-06
2.43759e-06
5.35836e-06
4.67797e-06
3.87011e-06
3.06611e-06
2.40019e-06
2.00364e-06
1.9392e-06
2.12039e-06
2.40268e-06
5.20291e-06
4.46826e-06
3.60119e-06
2.74657e-06
2.06221e-06
1.71921e-06
1.77604e-06
2.06868e-06
2.41912e-06
5.07342e-06
4.28512e-06
3.35889e-06
2.4539e-06
1.75718e-06
1.49396e-06
1.68963e-06
2.07936e-06
2.4772e-06
4.97028e-06
4.12999e-06
3.14656e-06
2.19483e-06
1.49859e-06
1.34828e-06
1.68213e-06
2.14245e-06
2.56583e-06
4.89411e-06
4.00448e-06
2.96823e-06
1.9787e-06
1.30689e-06
1.29908e-06
1.74496e-06
2.24485e-06
2.6742e-06
8.71915e-06
7.89121e-06
7.03363e-06
6.14938e-06
5.24798e-06
4.3407e-06
3.4356e-06
2.53363e-06
1.63535e-06
8.4794e-06
7.86025e-06
7.17759e-06
6.43832e-06
5.65076e-06
4.82525e-06
3.97348e-06
3.10974e-06
2.26259e-06
7.98952e-06
7.54009e-06
7.01232e-06
6.41003e-06
5.74022e-06
5.01347e-06
4.24474e-06
3.45642e-06
2.68902e-06
7.43554e-06
7.12142e-06
6.72357e-06
6.24205e-06
5.68142e-06
5.05152e-06
4.3688e-06
3.65953e-06
2.96812e-06
6.88391e-06
6.67851e-06
6.38915e-06
6.01221e-06
5.54936e-06
5.00881e-06
4.4069e-06
3.77109e-06
3.14591e-06
6.35818e-06
6.24253e-06
6.04475e-06
5.75831e-06
5.3821e-06
4.92219e-06
4.39378e-06
3.82385e-06
3.25527e-06
5.8658e-06
5.82639e-06
5.70727e-06
5.49974e-06
5.20026e-06
4.81264e-06
4.35036e-06
3.83896e-06
3.31883e-06
5.40862e-06
5.43543e-06
5.38493e-06
5.24681e-06
5.01549e-06
4.69265e-06
4.28973e-06
3.83035e-06
3.35206e-06
4.98697e-06
5.07199e-06
5.08191e-06
5.00523e-06
4.83467e-06
4.56992e-06
4.22033e-06
3.80732e-06
3.36556e-06
4.60113e-06
4.73737e-06
4.80059e-06
4.77836e-06
4.66197e-06
4.4493e-06
4.14767e-06
3.77619e-06
3.36665e-06
4.25187e-06
4.43263e-06
4.5425e-06
4.56826e-06
4.50001e-06
4.33395e-06
4.0754e-06
3.74121e-06
3.36039e-06
3.9405e-06
4.15884e-06
4.30874e-06
4.37629e-06
4.35045e-06
4.22588e-06
4.00596e-06
3.7053e-06
3.35025e-06
3.66875e-06
3.91708e-06
4.10018e-06
4.20333e-06
4.21435e-06
4.12639e-06
3.94094e-06
3.67041e-06
3.33864e-06
3.43844e-06
3.70835e-06
3.91745e-06
4.04991e-06
4.09232e-06
4.03626e-06
3.88136e-06
3.63785e-06
3.3272e-06
3.25107e-06
3.53333e-06
3.76084e-06
3.91624e-06
3.98462e-06
3.95589e-06
3.82779e-06
3.60843e-06
3.31699e-06
3.10725e-06
3.39216e-06
3.63027e-06
3.80219e-06
3.89118e-06
3.88537e-06
3.78052e-06
3.58263e-06
3.30871e-06
3.00629e-06
3.28421e-06
3.52518e-06
3.70729e-06
3.81171e-06
3.82456e-06
3.73958e-06
3.56066e-06
3.30275e-06
2.94579e-06
3.20794e-06
3.44447e-06
3.63075e-06
3.74564e-06
3.77312e-06
3.70484e-06
3.54257e-06
3.2993e-06
2.92175e-06
3.16091e-06
3.38651e-06
3.57145e-06
3.69221e-06
3.73057e-06
3.67602e-06
3.52826e-06
3.29842e-06
2.92883e-06
3.13983e-06
3.34922e-06
3.528e-06
3.65048e-06
3.69627e-06
3.65273e-06
3.51753e-06
3.30004e-06
2.96101e-06
3.14089e-06
3.33014e-06
3.49879e-06
3.61938e-06
3.66951e-06
3.63453e-06
3.51011e-06
3.30404e-06
3.01209e-06
3.15995e-06
3.3266e-06
3.48208e-06
3.59775e-06
3.64952e-06
3.62088e-06
3.50569e-06
3.31026e-06
3.07625e-06
3.19288e-06
3.33583e-06
3.47606e-06
3.58439e-06
3.63548e-06
3.61123e-06
3.50389e-06
3.31858e-06
3.92086e-06
3.90599e-06
3.88188e-06
3.84974e-06
3.81157e-06
3.77033e-06
3.73015e-06
3.69622e-06
3.67458e-06
3.88714e-06
3.87494e-06
3.85508e-06
3.82837e-06
3.79619e-06
3.76062e-06
3.72464e-06
3.69231e-06
3.66999e-06
3.85956e-06
3.84962e-06
3.8332e-06
3.81063e-06
3.78262e-06
3.75044e-06
3.71623e-06
3.68372e-06
3.66026e-06
3.83675e-06
3.82871e-06
3.81507e-06
3.79566e-06
3.7705e-06
3.74015e-06
3.70621e-06
3.6724e-06
3.64686e-06
3.81745e-06
3.81103e-06
3.79971e-06
3.78275e-06
3.75956e-06
3.73006e-06
3.69544e-06
3.65946e-06
3.63064e-06
3.80047e-06
3.79552e-06
3.78624e-06
3.77134e-06
3.7496e-06
3.72035e-06
3.68444e-06
3.64553e-06
3.61215e-06
3.7847e-06
3.7812e-06
3.77387e-06
3.76089e-06
3.74038e-06
3.71111e-06
3.6735e-06
3.63099e-06
3.59183e-06
3.76907e-06