/*--------------------------------*- C++ -*----------------------------------*\
| =========                 |                                                 |
| \\      /  F ield         | OpenFOAM: The Open Source CFD Toolbox           |
|  \\    /   O peration     | Version:  v2012                                 |
|   \\  /    A nd           | Website:  www.openfoam.com                      |
|    \\/     M anipulation  |                                                 |
\*---------------------------------------------------------------------------*/
FoamFile
{
    version     2.0;
    format      ascii;
    class       volSymmTensorField;
    location    "1";
    object      sigma;
}
// * * * * * * * * * * * * * * * * * * * * * * * * * * * * * * * * * * * * * //

dimensions      [1 -1 -2 0 0 0 0];


internalField   nonuniform List<symmTensor> 
7840
(
(-7.65958e+06 -1.77199e+06 0.00084965 -2.34629e+06 -0.000462666 -3.00176e+06)
(-7.65958e+06 -1.77199e+06 -0.000935509 -2.34629e+06 -0.000210825 -3.00176e+06)
(-7.65958e+06 -1.77199e+06 0.000984167 -2.34629e+06 0.000153734 -3.00176e+06)
(-7.65958e+06 -1.77199e+06 -0.000520261 -2.34629e+06 -3.7854e-05 -3.00176e+06)
(-4.68642e+06 -1.06051e+06 0.000619548 -1.67818e+06 -0.000977835 -1.90938e+06)
(-4.68642e+06 -1.06051e+06 -0.000644951 -1.67818e+06 0.000509337 -1.90938e+06)
(-4.68642e+06 -1.06051e+06 0.000698358 -1.67818e+06 -0.000182664 -1.90938e+06)
(-4.68642e+06 -1.06051e+06 -0.000332468 -1.67818e+06 0.000279787 -1.90938e+06)
(-3.00887e+06 -775498 0.000220119 -1.15448e+06 -0.000709074 -1.249e+06)
(-3.00887e+06 -775498 -0.000187553 -1.15448e+06 0.000702563 -1.249e+06)
(-3.00887e+06 -775498 0.000247943 -1.15448e+06 -0.000388651 -1.249e+06)
(-3.00887e+06 -775498 -0.000119795 -1.15448e+06 0.000542127 -1.249e+06)
(-1.66126e+06 -657463 1.20244e-05 -656857 -0.000474323 -695434)
(-1.66126e+06 -657463 6.52311e-05 -656857 0.000546456 -695434)
(-1.66126e+06 -657463 -3.14809e-05 -656857 -0.000140085 -695434)
(-1.66126e+06 -657463 3.82464e-05 -656857 0.000454212 -695434)
(-439986 -616280 -5.90024e-05 -176651 -0.000356133 -184991)
(-439986 -616280 0.000157438 -176651 0.000477076 -184991)
(-439986 -616280 -9.76309e-05 -176651 7.36748e-05 -184991)
(-439986 -616280 9.16884e-05 -176651 0.000351804 -184991)
(746191 -623636 -0.000107169 297283 -0.000301385 313042)
(746191 -623636 0.000291826 297283 0.000530886 313042)
(746191 -623636 -0.000118081 297283 9.94438e-05 313042)
(746191 -623636 0.000130911 297283 0.000313163 313042)
(1.96911e+06 -680121 -0.000214432 777280 -0.000271487 823918)
(1.96911e+06 -680121 0.000505972 777280 0.000528424 823918)
(1.96911e+06 -680121 -0.00020724 777280 1.56246e-05 823918)
(1.96911e+06 -680121 0.0002269 777280 0.000308174 823918)
(3.32174e+06 -815648 -0.000300834 1.27448e+06 -0.000157085 1.37887e+06)
(3.32174e+06 -815648 0.000652045 1.27448e+06 0.000359345 1.37887e+06)
(3.32174e+06 -815648 -0.000371834 1.27448e+06 -4.3327e-05 1.37887e+06)
(3.32174e+06 -815648 0.000311462 1.27448e+06 0.000213511 1.37887e+06)
(5.01515e+06 -1.12399e+06 -0.000254266 1.79772e+06 1.27122e-05 2.04386e+06)
(5.01515e+06 -1.12399e+06 0.000557571 1.79772e+06 0.000132123 2.04386e+06)
(5.01515e+06 -1.12399e+06 -0.000563406 1.79772e+06 2.19486e-05 2.04386e+06)
(5.01515e+06 -1.12399e+06 0.000242367 1.79772e+06 -8.29197e-06 2.04386e+06)
(8.06174e+06 -1.87486e+06 -5.76371e-05 2.47217e+06 0.000138315 3.16017e+06)
(8.06174e+06 -1.87486e+06 0.000132927 2.47217e+06 4.32842e-05 3.16017e+06)
(8.06174e+06 -1.87486e+06 -0.000786708 2.47217e+06 0.000192936 3.16017e+06)
(8.06174e+06 -1.87486e+06 -0.000396696 2.47217e+06 -3.57193e-05 3.16017e+06)
(-6.96182e+06 -1.07407e+06 0.00233254 -866752 -0.00117945 -2.34857e+06)
(-6.96182e+06 -1.07407e+06 -0.00262097 -866752 -0.000374018 -2.34857e+06)
(-6.96182e+06 -1.07407e+06 0.0027915 -866752 0.000381706 -2.34857e+06)
(-6.96182e+06 -1.07407e+06 -0.00132958 -866752 -4.3269e-05 -2.34857e+06)
(-4.8462e+06 -1.13247e+06 0.00163194 -1.15777e+06 -0.00226864 -1.80119e+06)
(-4.8462e+06 -1.13247e+06 -0.00177413 -1.15777e+06 0.00124535 -1.80119e+06)
(-4.8462e+06 -1.13247e+06 0.00196364 -1.15777e+06 -0.000394718 -1.80119e+06)
(-4.8462e+06 -1.13247e+06 -0.000798799 -1.15777e+06 0.000651411 -1.80119e+06)
(-3.11212e+06 -978652 0.000539908 -919758 -0.00163432 -1.20956e+06)
(-3.11212e+06 -978652 -0.000475972 -919758 0.00168476 -1.20956e+06)
(-3.11212e+06 -978652 0.000650075 -919758 -0.000821562 -1.20956e+06)
(-3.11212e+06 -978652 -0.000270586 -919758 0.00124929 -1.20956e+06)
(-1.70736e+06 -881734 1.06753e-05 -554418 -0.00114805 -678534)
(-1.70736e+06 -881734 0.000218054 -554418 0.00134842 -678534)
(-1.70736e+06 -881734 -0.000149429 -554418 -0.000206606 -678534)
(-1.70736e+06 -881734 0.000128428 -554418 0.00114073 -678534)
(-450611 -842785 -0.000149669 -152987 -0.000933083 -181079)
(-450611 -842785 0.000434079 -152987 0.0012462 -181079)
(-450611 -842785 -0.000289763 -152987 0.000300136 -181079)
(-450611 -842785 0.000244044 -152987 0.000966207 -181079)
(764469 -849932 -0.000229648 255743 -0.000796694 306064)
(764469 -849932 0.000792513 255743 0.00144832 306064)
(764469 -849932 -0.000281961 255743 0.000339432 306064)
(764469 -849932 0.000306217 255743 0.000881497 306064)
(2.0236e+06 -903631 -0.000498013 655450 -0.000760088 803715)
(2.0236e+06 -903631 0.00142089 655450 0.00152296 803715)
(2.0236e+06 -903631 -0.000497294 655450 0.00010247 803715)
(2.0236e+06 -903631 0.000549918 655450 0.000908584 803715)
(3.43508e+06 -1.01664e+06 -0.000754581 1.01634e+06 -0.000535967 1.33542e+06)
(3.43508e+06 -1.01664e+06 0.00188605 1.01634e+06 0.00119357 1.33542e+06)
(3.43508e+06 -1.01664e+06 -0.000989429 1.01634e+06 -7.78898e-05 1.33542e+06)
(3.43508e+06 -1.01664e+06 0.000797646 1.01634e+06 0.000734345 1.33542e+06)
(5.18589e+06 -1.18755e+06 -0.000673754 1.24342e+06 -0.000127442 1.92879e+06)
(5.18589e+06 -1.18755e+06 0.00166454 1.24342e+06 0.000693729 1.92879e+06)
(5.18589e+06 -1.18755e+06 -0.00162806 1.24342e+06 6.41902e-05 1.92879e+06)
(5.18589e+06 -1.18755e+06 0.000620185 1.24342e+06 0.000223694 1.92879e+06)
(7.32688e+06 -1.13253e+06 0.000131411 917071 0.000145102 2.47319e+06)
(7.32688e+06 -1.13253e+06 0.000488042 917071 0.000440811 2.47319e+06)
(7.32688e+06 -1.13253e+06 -0.00232288 917071 0.000510535 2.47319e+06)
(7.32688e+06 -1.13253e+06 -0.00134642 917071 0.000133794 2.47319e+06)
(-6.48757e+06 -713393 0.00307394 -372600 -0.00158883 -2.05805e+06)
(-6.48757e+06 -713393 -0.00380208 -372600 -0.000252509 -2.05805e+06)
(-6.48757e+06 -713393 0.00426275 -372600 0.000510467 -2.05805e+06)
(-6.48757e+06 -713393 -0.00150855 -372600 2.46888e-05 -2.05805e+06)
(-4.77004e+06 -1.06096e+06 0.00196413 -718683 -0.00266569 -1.64662e+06)
(-4.77004e+06 -1.06096e+06 -0.00249107 -718683 0.00157216 -1.64662e+06)
(-4.77004e+06 -1.06096e+06 0.00292547 -718683 -0.000427004 -1.64662e+06)
(-4.77004e+06 -1.06096e+06 -0.00070373 -718683 0.000741526 -1.64662e+06)
(-3.14531e+06 -1.08247e+06 0.000606051 -673686 -0.00186574 -1.1457e+06)
(-3.14531e+06 -1.08247e+06 -0.000576534 -673686 0.00207104 -1.1457e+06)
(-3.14531e+06 -1.08247e+06 0.000870608 -673686 -0.000826069 -1.1457e+06)
(-3.14531e+06 -1.08247e+06 -0.000225801 -673686 0.00143067 -1.1457e+06)
(-1.73538e+06 -1.04814e+06 4.85098e-05 -435944 -0.00141804 -651397)
(-1.73538e+06 -1.04814e+06 0.000374703 -435944 0.00173357 -651397)
(-1.73538e+06 -1.04814e+06 -0.000324542 -435944 -1.6248e-05 -651397)
(-1.73538e+06 -1.04814e+06 0.000151831 -435944 0.00149558 -651397)
(-457807 -1.02824e+06 -6.04346e-05 -123146 -0.00130908 -174286)
(-457807 -1.02824e+06 0.000578982 -123146 0.00175765 -174286)
(-457807 -1.02824e+06 -0.000420102 -123146 0.000602416 -174286)
(-457807 -1.02824e+06 0.000207073 -123146 0.00144812 -174286)
(778782 -1.03476e+06 -4.67858e-05 208338 -0.00118093 296136)
(778782 -1.03476e+06 0.00106558 208338 0.00219479 296136)
(778782 -1.03476e+06 -0.000262091 208338 0.00060318 296136)
(778782 -1.03476e+06 0.000194994 208338 0.00141494 296136)
(2.05894e+06 -1.06779e+06 -0.000369852 518000 -0.00124107 773081)
(2.05894e+06 -1.06779e+06 0.00207214 518000 0.00248801 773081)
(2.05894e+06 -1.06779e+06 -0.000509431 518000 0.000239514 773081)
(2.05894e+06 -1.06779e+06 0.000505717 518000 0.00157109 773081)
(3.47507e+06 -1.11493e+06 -0.000801983 747909 -0.00107592 1.26689e+06)
(3.47507e+06 -1.11493e+06 0.00292894 747909 0.00225636 1.26689e+06)
(3.47507e+06 -1.11493e+06 -0.00133073 747909 -5.36373e-05 1.26689e+06)
(3.47507e+06 -1.11493e+06 0.000910012 747909 0.0014854 1.26689e+06)
(5.11007e+06 -1.10253e+06 -0.000833405 775938 -0.000564788 1.7658e+06)
(5.11007e+06 -1.10253e+06 0.00277049 775938 0.00171905 1.7658e+06)
(5.11007e+06 -1.10253e+06 -0.00255341 775938 0.000117433 1.7658e+06)
(5.11007e+06 -1.10253e+06 0.000708762 775938 0.000882994 1.7658e+06)
(6.83105e+06 -746778 0.00096253 396452 -0.000251988 2.16825e+06)
(6.83105e+06 -746778 0.00108134 396452 0.00128609 2.16825e+06)
(6.83105e+06 -746778 -0.00378084 396452 0.000779126 2.16825e+06)
(6.83105e+06 -746778 -0.00266534 396452 0.000691209 2.16825e+06)
(-6.10962e+06 -519161 0.00253107 -179324 -0.00183642 -1.88668e+06)
(-6.10962e+06 -519161 -0.00430296 -179324 -6.53049e-05 -1.88668e+06)
(-6.10962e+06 -519161 0.00543903 -179324 0.000563697 -1.88668e+06)
(-6.10962e+06 -519161 -0.000754753 -179324 4.29284e-05 -1.88668e+06)
(-4.61643e+06 -973586 0.00119411 -433568 -0.00265357 -1.515e+06)
(-4.61643e+06 -973586 -0.00268542 -433568 0.00167042 -1.515e+06)
(-4.61643e+06 -973586 0.00357881 -433568 -0.000458157 -1.515e+06)
(-4.61643e+06 -973586 0.000235724 -433568 0.000588173 -1.515e+06)
(-3.11356e+06 -1.12568e+06 0.000409351 -464884 -0.00177032 -1.07353e+06)
(-3.11356e+06 -1.12568e+06 -0.000486367 -464884 0.00214704 -1.07353e+06)
(-3.11356e+06 -1.12568e+06 0.000949682 -464884 -0.000726549 -1.07353e+06)
(-3.11356e+06 -1.12568e+06 1.50465e-05 -464884 0.00135668 -1.07353e+06)
(-1.73571e+06 -1.16299e+06 0.000304549 -322453 -0.00145954 -617448)
(-1.73571e+06 -1.16299e+06 0.000461171 -322453 0.00190486 -617448)
(-1.73571e+06 -1.16299e+06 -0.000464805 -322453 0.000210594 -617448)
(-1.73571e+06 -1.16299e+06 -8.45331e-05 -322453 0.00166758 -617448)
(-458069 -1.17094e+06 0.000431981 -92736.7 -0.00158712 -165242)
(-458069 -1.17094e+06 0.000501219 -92736.7 0.0021604 -165242)
(-458069 -1.17094e+06 -0.000402667 -92736.7 0.000872556 -165242)
(-458069 -1.17094e+06 -0.000251335 -92736.7 0.00188389 -165242)
(785165 -1.17653e+06 0.000649573 161325 -0.00164262 283947)
(785165 -1.17653e+06 0.00101847 161325 0.00292198 283947)
(785165 -1.17653e+06 -4.44118e-06 161325 0.000823819 283947)
(785165 -1.17653e+06 -0.000397122 161325 0.00208376 283947)
(2.06499e+06 -1.17942e+06 0.000382214 387002 -0.00188148 735597)
(2.06499e+06 -1.17942e+06 0.00236751 387002 0.00354055 735597)
(2.06499e+06 -1.17942e+06 -0.000213333 387002 0.000362448 735597)
(2.06499e+06 -1.17942e+06 -8.41601e-05 387002 0.00246449 735597)
(3.44713e+06 -1.15125e+06 -0.00023565 520003 -0.00180994 1.19014e+06)
(3.44713e+06 -1.15125e+06 0.00372828 520003 0.00354528 1.19014e+06)
(3.44713e+06 -1.15125e+06 -0.00138029 520003 -2.05311e-05 1.19014e+06)
(3.44713e+06 -1.15125e+06 0.000471234 520003 0.00251411 1.19014e+06)
(4.95411e+06 -1.00271e+06 -0.00057295 471337 -0.0012243 1.62763e+06)
(4.95411e+06 -1.00271e+06 0.00392244 471337 0.00305699 1.62763e+06)
(4.95411e+06 -1.00271e+06 -0.00334422 471337 0.000211351 1.62763e+06)
(4.95411e+06 -1.00271e+06 0.000366776 471337 0.00184144 1.62763e+06)
(6.4398e+06 -537721 0.00247366 192049 -0.000825702 1.98956e+06)
(6.4398e+06 -537721 0.00200995 192049 0.00235002 1.98956e+06)
(6.4398e+06 -537721 -0.00516678 192049 0.00111137 1.98956e+06)
(6.4398e+06 -537721 -0.00440797 192049 0.00145833 1.98956e+06)
(-5.78224e+06 -412501 0.000675402 -92144.6 -0.00194754 -1.76232e+06)
(-5.78224e+06 -412501 -0.00403127 -92144.6 0.000212733 -1.76232e+06)
(-5.78224e+06 -412501 0.0064187 -92144.6 0.000489963 -1.76232e+06)
(-5.78224e+06 -412501 0.000968615 -92144.6 -2.86957e-06 -1.76232e+06)
(-4.43212e+06 -902194 -0.000621881 -258374 -0.00239397 -1.40715e+06)
(-4.43212e+06 -902194 -0.00232543 -258374 0.00156149 -1.40715e+06)
(-4.43212e+06 -902194 0.00400815 -258374 -0.000541547 -1.40715e+06)
(-4.43212e+06 -902194 0.0019751 -258374 0.000298757 -1.40715e+06)
(-3.03724e+06 -1.13914e+06 1.1775e-05 -307855 -0.00156073 -1.00353e+06)
(-3.03724e+06 -1.13914e+06 -0.000244725 -307855 0.00195032 -1.00353e+06)
(-3.03724e+06 -1.13914e+06 0.000972343 -307855 -0.000592767 -1.00353e+06)
(-3.03724e+06 -1.13914e+06 0.00038975 -307855 0.00121302 -1.00353e+06)
(-1.70954e+06 -1.23857e+06 0.000805173 -226762 -0.0014313 -580891)
(-1.70954e+06 -1.23857e+06 0.000404446 -226762 0.00191302 -580891)
(-1.70954e+06 -1.23857e+06 -0.000488265 -226762 0.000412291 -580891)
(-1.70954e+06 -1.23857e+06 -0.000614083 -226762 0.00180303 -580891)
(-450573 -1.27512e+06 0.00131532 -65875 -0.00188365 -154934)
(-450573 -1.27512e+06 0.000133822 -65875 0.00250941 -154934)
(-450573 -1.27512e+06 -0.000182653 -65875 0.00107439 -154934)
(-450573 -1.27512e+06 -0.00112763 -65875 0.00237296 -154934)
(782568 -1.27962e+06 0.00179481 119343 -0.00228194 270573)
(782568 -1.27962e+06 0.000600934 119343 0.00367827 270573)
(782568 -1.27962e+06 0.00051347 119343 0.000987117 270573)
(782568 -1.27962e+06 -0.0014156 119343 0.00297037 270573)
(2.04295e+06 -1.25144e+06 0.00165666 275934 -0.00268311 695664)
(2.04295e+06 -1.25144e+06 0.00227589 275934 0.00470455 695664)
(2.04295e+06 -1.25144e+06 0.000388197 275934 0.000465737 695664)
(2.04295e+06 -1.25144e+06 -0.00112772 275934 0.00357957 695664)
(3.37269e+06 -1.15797e+06 0.000873206 347668 -0.00261193 1.11611e+06)
(3.37269e+06 -1.15797e+06 0.00428981 347668 0.00504148 1.11611e+06)
(3.37269e+06 -1.15797e+06 -0.00115612 347668 1.58015e-05 1.11611e+06)
(3.37269e+06 -1.15797e+06 -0.000447863 347668 0.00367557 1.11611e+06)
(4.76698e+06 -921363 0.000156176 283147 -0.00191862 1.51504e+06)
(4.76698e+06 -921363 0.00519148 283147 0.00462548 1.51504e+06)
(4.76698e+06 -921363 -0.00402174 283147 0.000351043 1.51504e+06)
(4.76698e+06 -921363 -0.000423697 283147 0.00285103 1.51504e+06)
(6.10434e+06 -422082 0.0045931 99375.9 -0.00135883 1.86111e+06)
(6.10434e+06 -422082 0.00340386 99375.9 0.00350557 1.86111e+06)
(6.10434e+06 -422082 -0.00646584 99375.9 0.00149904 1.86111e+06)
(6.10434e+06 -422082 -0.00651834 99375.9 0.00218297 1.86111e+06)
(-5.48399e+06 -353915 -0.00198144 -48565.7 -0.00194093 -1.65977e+06)
(-5.48399e+06 -353915 -0.00288558 -48565.7 0.000578455 -1.65977e+06)
(-5.48399e+06 -353915 0.00727451 -48565.7 0.000283881 -1.65977e+06)
(-5.48399e+06 -353915 0.00330776 -48565.7 -1.5582e-05 -1.65977e+06)
(-4.2342e+06 -850838 -0.00287189 -151926 -0.00206662 -1.31584e+06)
(-4.2342e+06 -850838 -0.00140275 -151926 0.00125855 -1.31584e+06)
(-4.2342e+06 -850838 0.00431918 -151926 -0.000674715 -1.31584e+06)
(-4.2342e+06 -850838 0.00401882 -151926 0.000117188 -1.31584e+06)
(-2.93225e+06 -1.13986e+06 -0.000387752 -197299 -0.00144572 -938863)
(-2.93225e+06 -1.13986e+06 8.53423e-05 -197299 0.00152023 -938863)
(-2.93225e+06 -1.13986e+06 0.0010457 -197299 -0.000449177 -938863)
(-2.93225e+06 -1.13986e+06 0.000723308 -197299 0.00120575 -938863)
(-1.66236e+06 -1.28664e+06 0.00143719 -152872 -0.00152813 -544570)
(-1.66236e+06 -1.28664e+06 0.000126942 -152872 0.00181153 -544570)
(-1.66236e+06 -1.28664e+06 -0.000313285 -152872 0.000554951 -544570)
(-1.66236e+06 -1.28664e+06 -0.00131675 -152872 0.00205749 -544570)
(-436257 -1.34785e+06 0.00231629 -44532.5 -0.00230076 -144237)
(-436257 -1.34785e+06 -0.000573971 -44532.5 0.00285395 -144237)
(-436257 -1.34785e+06 0.000277456 -44532.5 0.00118186 -144237)
(-436257 -1.34785e+06 -0.00215553 -44532.5 0.00297454 -144237)
(771929 -1.35127e+06 0.00300759 84668.5 -0.00305585 256979)
(771929 -1.35127e+06 -0.000205366 84668.5 0.00448859 256979)
(771929 -1.35127e+06 0.00129231 84668.5 0.00108213 256979)
(771929 -1.35127e+06 -0.00251295 84668.5 0.00399081 256979)
(1.99855e+06 -1.29614e+06 0.00300555 188993 -0.00347574 656262)
(1.99855e+06 -1.29614e+06 0.00180494 188993 0.00596411 656262)
(1.99855e+06 -1.29614e+06 0.00127358 188993 0.000550718 656262)
(1.99855e+06 -1.29614e+06 -0.00222811 188993 0.00470417 656262)
(3.26838e+06 -1.15288e+06 0.00215033 225192 -0.00323105 1.04807e+06)
(3.26838e+06 -1.15288e+06 0.00464551 225192 0.00667363 1.04807e+06)
(3.26838e+06 -1.15288e+06 -0.000679844 225192 6.40321e-05 1.04807e+06)
(3.26838e+06 -1.15288e+06 -0.00149709 225192 0.0046686 1.04807e+06)
(4.56653e+06 -862565 0.00123655 167935 -0.00235204 1.42034e+06)
(4.56653e+06 -862565 0.00664779 167935 0.00628348 1.42034e+06)
(4.56653e+06 -862565 -0.00457201 167935 0.000532116 1.42034e+06)
(4.56653e+06 -862565 -0.0014827 167935 0.00355122 1.42034e+06)
(5.80148e+06 -358044 0.00709733 52750 -0.00158241 1.75627e+06)
(5.80148e+06 -358044 0.00541549 52750 0.00461007 1.75627e+06)
(5.80148e+06 -358044 -0.00762749 52750 0.00188666 1.75627e+06)
(5.80148e+06 -358044 -0.00877569 52750 0.00255117 1.75627e+06)
(-5.20291e+06 -322325 -0.00487389 -25430.8 -0.00186905 -1.5685e+06)
(-5.20291e+06 -322325 -0.0008175 -25430.8 0.00101059 -1.5685e+06)
(-5.20291e+06 -322325 0.0080839 -25430.8 -1.83282e-05 -1.5685e+06)
(-5.20291e+06 -322325 0.00580738 -25430.8 7.96486e-05 -1.5685e+06)
(-4.03019e+06 -816252 -0.00491519 -87478.9 -0.00175593 -1.2353e+06)
(-4.03019e+06 -816252 4.11892e-05 -87478.9 0.00081859 -1.2353e+06)
(-4.03019e+06 -816252 0.00464255 -87478.9 -0.000851252 -1.2353e+06)
(-4.03019e+06 -816252 0.00579503 -87478.9 0.000135805 -1.2353e+06)
(-2.80926e+06 -1.13604e+06 -0.000561008 -122610 -0.00149297 -879561)
(-2.80926e+06 -1.13604e+06 0.000423366 -122610 0.000962306 -879561)
(-2.80926e+06 -1.13604e+06 0.00128729 -122610 -0.00034441 -879561)
(-2.80926e+06 -1.13604e+06 0.000811329 -122610 0.00138993 -879561)
(-1.60002e+06 -1.31631e+06 0.00208346 -99302.8 -0.00180485 -509797)
(-1.60002e+06 -1.31631e+06 -0.000435005 -99302.8 0.00170301 -509797)
(-1.60002e+06 -1.31631e+06 0.000126423 -99302.8 0.000588148 -509797)
(-1.60002e+06 -1.31631e+06 -0.0020673 -99302.8 0.00245987 -509797)
(-416684 -1.39665e+06 0.00311531 -28939.4 -0.00281818 -133687)
(-416684 -1.39665e+06 -0.00163423 -28939.4 0.00326292 -133687)
(-416684 -1.39665e+06 0.000981458 -28939.4 0.00116786 -133687)
(-416684 -1.39665e+06 -0.00302463 -28939.4 0.0036457 -133687)
(754950 -1.39911e+06 0.003858 57606.5 -0.00381717 243767)
(754950 -1.39911e+06 -0.00136128 57606.5 0.00536707 243767)
(754950 -1.39911e+06 0.00228962 57606.5 0.00111121 243767)
(754950 -1.39911e+06 -0.00329044 57606.5 0.00497334 243767)
(1.93794e+06 -1.32293e+06 0.00397749 124582 -0.0040611 618756)
(1.93794e+06 -1.32293e+06 0.00102693 124582 0.00726401 618756)
(1.93794e+06 -1.32293e+06 0.00238105 124582 0.000641324 618756)
(1.93794e+06 -1.32293e+06 -0.00297212 124582 0.00560875 618756)
(3.14542e+06 -1.14446e+06 0.00324965 141297 -0.00347415 986014)
(3.14542e+06 -1.14446e+06 0.00487143 141297 0.00831088 986014)
(3.14542e+06 -1.14446e+06 9.32403e-06 141297 0.0001625 986014)
(3.14542e+06 -1.14446e+06 -0.00233333 141297 0.00526214 986014)
(4.36046e+06 -822709 0.00251999 97444.2 -0.00229885 1.33737e+06)
(4.36046e+06 -822709 0.00834544 97444.3 0.0078545 1.33737e+06)
(4.36046e+06 -822709 -0.00495665 97444.3 0.000785731 1.33737e+06)
(4.36046e+06 -822709 -0.00259186 97444.3 0.00370227 1.33737e+06)
(5.5181e+06 -323222 0.00966885 27786.5 -0.00127202 1.66377e+06)
(5.5181e+06 -323222 0.00812625 27786.5 0.00551707 1.66377e+06)
(5.5181e+06 -323222 -0.00859012 27786.5 0.00224888 1.66377e+06)
(5.5181e+06 -323222 -0.0108286 27786.5 0.00236025 1.66377e+06)
(-4.93181e+06 -305987 -0.00750368 -12820.1 -0.00179386 -1.48339e+06)
(-4.93181e+06 -305987 0.00210597 -12820.1 0.0015001 -1.48339e+06)
(-4.93181e+06 -305987 0.00896015 -12820.1 -0.000350334 -1.48339e+06)
(-4.93181e+06 -305987 0.00810973 -12820.1 0.000312118 -1.48339e+06)
(-3.82368e+06 -794015 -0.00626836 -48729.8 -0.00151542 -1.16172e+06)
(-3.82368e+06 -794015 0.00189532 -48729.8 0.000338382 -1.16172e+06)
(-3.82368e+06 -794015 0.0051368 -48729.8 -0.00105544 -1.16172e+06)
(-3.82368e+06 -794015 0.00692207 -48729.8 0.00037435 -1.16172e+06)
(-2.67528e+06 -1.13128e+06 -0.000394973 -73707.4 -0.00168997 -824696)
(-2.67528e+06 -1.13128e+06 0.000675484 -73707.4 0.000426292 -824696)
(-2.67528e+06 -1.13128e+06 0.00181658 -73707.4 -0.000329837 -824696)
(-2.67528e+06 -1.13128e+06 0.000572385 -73707.4 0.00174602 -824696)
(-1.52737e+06 -1.33398e+06 0.00260186 -62328.5 -0.002227 -476909)
(-1.52737e+06 -1.33398e+06 -0.00131173 -62328.5 0.00171621 -476909)
(-1.52737e+06 -1.33398e+06 0.000865774 -62328.5 0.000467328 -476909)
(-1.52737e+06 -1.33398e+06 -0.00271587 -62328.5 0.00296994 -476909)
(-393375 -1.42813e+06 0.00343383 -18355.3 -0.00335228 -123519)
(-393375 -1.42813e+06 -0.00299544 -18355.3 0.00380965 -123519)
(-393375 -1.42813e+06 0.00188064 -18355.3 0.00102376 -123519)
(-393375 -1.42813e+06 -0.00346352 -18355.3 0.00429961 -123519)
(733366 -1.42982e+06 0.00400996 37317.7 -0.0044014 231205)
(733366 -1.42982e+06 -0.00274653 37317.7 0.00631209 231205)
(733366 -1.42982e+06 0.00340125 37317.7 0.00110579 231205)
(733366 -1.42982e+06 -0.00343282 37317.7 0.0057454 231205)
(1.86627e+06 -1.33836e+06 0.0042583 78695.9 -0.0042913 583490)
(1.86627e+06 -1.33836e+06 9.59278e-05 78695.9 0.008519 583490)
(1.86627e+06 -1.33836e+06 0.00359402 78695.9 0.000792796 583490)
(1.86627e+06 -1.33836e+06 -0.00306719 78695.9 0.00613092 583490)
(3.01109e+06 -1.13634e+06 0.00395991 85260 -0.00325436 928906)
(3.01109e+06 -1.13634e+06 0.00509686 85260 0.00978743 928906)
(3.01109e+06 -1.13634e+06 0.0008413 85260 0.000379466 928906)
(3.01109e+06 -1.13634e+06 -0.00273944 85260 0.00535787 928906)
(4.15239e+06 -796984 0.00391295 54407.5 -0.00166713 1.26204e+06)
(4.15239e+06 -796984 0.0103278 54407.5 0.00914142 1.26204e+06)
(4.15239e+06 -796984 -0.00512843 54407.5 0.00116817 1.26204e+06)
(4.15239e+06 -796984 -0.00361779 54407.5 0.00324272 1.26204e+06)
(5.2462e+06 -305105 0.0119664 14009.6 -0.00032373 1.57806e+06)
(5.2462e+06 -305105 0.011542 14009.6 0.00608167 1.57806e+06)
(5.2462e+06 -305105 -0.00926933 14009.6 0.00258624 1.57806e+06)
(5.2462e+06 -305105 -0.012311 14009.6 0.00156696 1.57806e+06)
(-4.66631e+06 -298187 -0.00939109 -5938.61 -0.0018045 -1.40168e+06)
(-4.66631e+06 -298187 0.00570045 -5938.61 0.00204066 -1.40168e+06)
(-4.66631e+06 -298187 0.0100404 -5938.61 -0.000619355 -1.40168e+06)
(-4.66631e+06 -298187 0.00991027 -5938.61 0.000692472 -1.40168e+06)
(-3.61647e+06 -780291 -0.00659871 -25762.6 -0.00142825 -1.09267e+06)
(-3.61647e+06 -780291 0.00398678 -25762.6 -6.17189e-05 -1.09267e+06)
(-3.61647e+06 -780291 0.0059666 -25762.6 -0.00124545 -1.09267e+06)
(-3.61647e+06 -780291 0.00720525 -25762.6 0.000838829 -1.09267e+06)
(-2.5348e+06 -1.12694e+06 0.000104471 -42611.9 -0.00201137 -773225)
(-2.5348e+06 -1.12694e+06 0.000751308 -42611.9 7.62205e-05 -773225)
(-2.5348e+06 -1.12694e+06 0.00273488 -42611.9 -0.000428511 -773225)
(-2.5348e+06 -1.12694e+06 5.04474e-05 -42611.9 0.00224339 -773225)
(-1.44802e+06 -1.34399e+06 0.00283981 -37888.8 -0.00273727 -445774)
(-1.44802e+06 -1.34399e+06 -0.00248394 -37888.8 0.0019773 -445774)
(-1.44802e+06 -1.34399e+06 0.00189478 -37888.8 0.000181852 -445774)
(-1.44802e+06 -1.34399e+06 -0.00310285 -37888.8 0.00353896 -445774)
(-367557 -1.44757e+06 0.00307252 -11701.6 -0.00381591 -113777)
(-367557 -1.44757e+06 -0.00453304 -11701.6 0.00455556 -113777)
(-367557 -1.44757e+06 0.00286797 -11701.6 0.00077459 -113777)
(-367557 -1.44757e+06 -0.00327802 -11701.6 0.00485421 -113777)
(708635 -1.4487e+06 0.00326365 22514.7 -0.00467509 219345)
(708635 -1.4487e+06 -0.0041601 22514.7 0.00730743 219345)
(708635 -1.4487e+06 0.00446433 22514.7 0.00112685 219345)
(708635 -1.4487e+06 -0.00275131 22514.7 0.00617199 219345)
(1.78741e+06 -1.34679e+06 0.00369074 46938.5 -0.00408817 550304)
(1.78741e+06 -1.34679e+06 -0.000760781 46938.5 0.00963493 550304)
(1.78741e+06 -1.34679e+06 0.0047498 46938.5 0.00108009 550304)
(1.78741e+06 -1.34679e+06 -0.00236321 46938.5 0.006185 550304)
(2.87013e+06 -1.1298e+06 0.00419679 48557.5 -0.00257804 875606)
(2.87013e+06 -1.1298e+06 0.00549615 48557.5 0.0109403 875606)
(2.87013e+06 -1.1298e+06 0.00171947 48557.5 0.000792494 875606)
(2.87013e+06 -1.1298e+06 -0.00261903 48557.5 0.00496467 875606)
(3.94402e+06 -781208 0.00536696 28282.6 -0.000474722 1.19169e+06)
(3.94402e+06 -781208 0.0126304 28282.6 0.0099666 1.19169e+06)
(3.94402e+06 -781208 -0.00503983 28282.6 0.00173459 1.19169e+06)
(3.94402e+06 -781208 -0.00449075 28282.6 0.00224446 1.19169e+06)
(4.98078e+06 -296518 0.0136762 6334.95 0.00125244 1.49613e+06)
(4.98078e+06 -296518 0.0155961 6334.95 0.00619071 1.49613e+06)
(4.98078e+06 -296518 -0.00955679 6334.95 0.00290708 1.49613e+06)
(4.98078e+06 -296518 -0.0128879 6334.95 0.000254481 1.49613e+06)
(-4.40378e+06 -295045 -0.0100823 -2262.23 -0.00198918 -1.32181e+06)
(-4.40378e+06 -295045 0.00967994 -2262.23 0.00262345 -1.32181e+06)
(-4.40378e+06 -295045 0.0114599 -2262.23 -0.000714316 -1.32181e+06)
(-4.40378e+06 -295045 0.010949 -2262.23 0.00119995 -1.32181e+06)
(-3.40939e+06 -772165 -0.00574585 -12480.1 -0.00156539 -1.02656e+06)
(-3.40939e+06 -772165 0.00610673 -12480.1 -0.000254917 -1.02656e+06)
(-3.40939e+06 -772165 0.00727253 -12480.1 -0.00135221 -1.02656e+06)
(-3.40939e+06 -772165 0.00663581 -12480.1 0.00149346 -1.02656e+06)
(-2.39069e+06 -1.1234e+06 0.000822641 -23472.5 -0.0023944 -724249)
(-2.39069e+06 -1.1234e+06 0.000585007 -23472.5 6.47724e-05 -724249)
(-2.39069e+06 -1.1234e+06 0.00410402 -23472.5 -0.000621559 -724249)
(-2.39069e+06 -1.1234e+06 -0.000601509 -23472.5 0.00281889 -724249)
(-1.36453e+06 -1.34918e+06 0.00264808 -22435.6 -0.00323957 -416089)
(-1.36453e+06 -1.34918e+06 -0.00387663 -22435.6 0.00258772 -416089)
(-1.36453e+06 -1.34918e+06 0.00315482 -22435.6 -0.000233338 -416089)
(-1.36453e+06 -1.34918e+06 -0.0030736 -22435.6 0.00409599 -416089)
(-340123 -1.45891e+06 0.00192674 -7926.05 -0.00410925 -104415)
(-340123 -1.45891e+06 -0.00606092 -7926.05 0.00554013 -104415)
(-340123 -1.45891e+06 0.00379086 -7926.05 0.000480444 -104415)
(-340123 -1.45891e+06 -0.00236675 -7926.04 0.00522376 -104415)
(681876 -1.45969e+06 0.00157226 11884.1 -0.00453125 208128)
(681876 -1.45969e+06 -0.00534612 11884.1 0.00832942 208128)
(681876 -1.45969e+06 0.0052823 11884.1 0.00125289 208128)
(681876 -1.45969e+06 -0.00120118 11884.1 0.00615245 208128)
(1.70411e+06 -1.35104e+06 0.002281 25422.3 -0.00342973 518860)
(1.70411e+06 -1.35104e+06 -0.00127405 25422.3 0.0105335 518860)
(1.70411e+06 -1.35104e+06 0.00566689 25422.3 0.00157707 518860)
(1.70411e+06 -1.35104e+06 -0.000861653 25422.3 0.0057487 518860)
(2.7255e+06 -1.12505e+06 0.00399179 24900.7 -0.00152117 825122)
(2.7255e+06 -1.12505e+06 0.006266 24900.7 0.011648 825122)
(2.7255e+06 -1.12505e+06 0.00253726 24900.7 0.0014627 825122)
(2.7255e+06 -1.12505e+06 -0.00198902 24900.7 0.00417136 825122)
(3.73611e+06 -772191 0.00686486 12549.3 0.00117215 1.1246e+06)
(3.73611e+06 -772191 0.0152786 12549.3 0.0102152 1.1246e+06)
(3.73611e+06 -772191 -0.00464719 12549.3 0.00251411 1.1246e+06)
(3.73611e+06 -772191 -0.00518475 12549.3 0.000878225 1.1246e+06)
(4.71872e+06 -293313 0.0145766 2069.6 0.00333896 1.41624e+06)
(4.71872e+06 -293313 0.0201607 2069.6 0.0057952 1.41624e+06)
(4.71872e+06 -293313 -0.00932714 2069.6 0.00321531 1.41624e+06)
(4.71872e+06 -293313 -0.0123139 2069.6 -0.00139313 1.41624e+06)
(-4.14268e+06 -294327 -0.00923325 -390.464 -0.00237517 -1.24292e+06)
(-4.14268e+06 -294327 0.0136933 -390.462 0.0032362 -1.24292e+06)
(-4.14268e+06 -294327 0.0133238 -390.465 -0.000525541 -1.24292e+06)
(-4.14268e+06 -294327 0.0110592 -390.467 0.00175496 -1.24292e+06)
(-3.20281e+06 -767564 -0.00376964 -5099.93 -0.00190773 -962373)
(-3.20281e+06 -767564 0.00804384 -5099.92 -0.000130208 -962373)
(-3.20281e+06 -767564 0.00914714 -5099.92 -0.00129237 -962373)
(-3.20281e+06 -767564 0.00539585 -5099.92 0.00221544 -962373)
(-2.2447e+06 -1.1206e+06 0.00155582 -12179.5 -0.00269601 -677065)
(-2.2447e+06 -1.1206e+06 0.00015036 -12179.5 0.000506107 -677065)
(-2.2447e+06 -1.1206e+06 0.00593457 -12179.5 -0.000850924 -677065)
(-2.2447e+06 -1.1206e+06 -0.00115006 -12179.5 0.00334189 -677065)
(-1.27858e+06 -1.3514e+06 0.00190408 -13185.3 -0.00356592 -387529)
(-1.27858e+06 -1.3514e+06 -0.00536769 -13185.3 0.00360506 -387529)
(-1.27858e+06 -1.3514e+06 0.00454877 -13185.3 -0.000701876 -387529)
(-1.27858e+06 -1.3514e+06 -0.0025016 -13185.3 0.00451733 -387529)
(-311684 -1.46496e+06 5.33911e-06 -6159.04 -0.00409445 -95352.9)
(-311684 -1.46496e+06 -0.00736194 -6159.04 0.0067735 -95352.9)
(-311684 -1.46496e+06 0.00448045 -6159.04 0.000226467 -95352.9)
(-311684 -1.46496e+06 -0.000738529 -6159.03 0.00529695 -95352.9)
(653904 -1.46559e+06 -0.000940595 4282.98 -0.00387817 197456)
(653904 -1.46559e+06 -0.00603856 4282.98 0.00935436 197456)
(653904 -1.46559e+06 0.00566519 4282.99 0.00156153 197456)
(653904 -1.46559e+06 0.00110106 4282.99 0.0056124 197456)
(1.61826e+06 -1.35288e+06 0.000208829 11050.6 -0.0023372 488793)
(1.61826e+06 -1.35288e+06 -0.00117941 11050.6 0.0111731 488793)
(1.61826e+06 -1.35288e+06 0.00618329 11050.6 0.00233431 488793)
(1.61826e+06 -1.35288e+06 0.00127281 11050.6 0.00485159 488793)
(2.57909e+06 -1.12192e+06 0.00349168 9829.7 -0.000211171 776674)
(2.57909e+06 -1.12192e+06 0.00759259 9829.7 0.011861 776674)
(2.57909e+06 -1.12192e+06 0.00320145 9829.7 0.00241165 776674)
(2.57909e+06 -1.12192e+06 -0.000980428 9829.7 0.00312534 776674)
(3.52892e+06 -767648 0.00841963 3124.62 0.00309529 1.05961e+06)
(3.52892e+06 -767648 0.0182839 3124.62 0.00986629 1.05961e+06)
(3.52892e+06 -767648 -0.00391353 3124.63 0.00348989 1.05961e+06)
(3.52892e+06 -767648 -0.0057123 3124.62 -0.000614975 1.05961e+06)
(4.4581e+06 -293110 0.0146074 -296.825 0.00571991 1.33734e+06)
(4.4581e+06 -293110 0.0250674 -296.828 0.00493106 1.33734e+06)
(4.4581e+06 -293110 -0.00845099 -296.831 0.00350129 1.33734e+06)
(4.4581e+06 -293110 -0.0104979 -296.829 -0.00311636 1.33734e+06)
(-3.88215e+06 -294761 -0.00671738 475.433 -0.0028656 -1.1645e+06)
(-3.88215e+06 -294761 0.0173788 475.435 0.00386256 -1.1645e+06)