/*--------------------------------*- C++ -*----------------------------------*\
| =========                 |                                                 |
| \\      /  F ield         | OpenFOAM: The Open Source CFD Toolbox           |
|  \\    /   O peration     | Version:  v2012                                 |
|   \\  /    A nd           | Website:  www.openfoam.com                      |
|    \\/     M anipulation  |                                                 |
\*---------------------------------------------------------------------------*/
FoamFile
{
    version     2.0;
    format      ascii;
    class       volScalarField;
    location    "1";
    object      sigmaHyd;
}
// * * * * * * * * * * * * * * * * * * * * * * * * * * * * * * * * * * * * * //

dimensions      [1 -1 -2 0 0 0 0];


internalField   nonuniform List<scalar> 
7840
(
4.33588e+06
4.33588e+06
4.33588e+06
4.33588e+06
2.75799e+06
2.75799e+06
2.75799e+06
2.75799e+06
1.80412e+06
1.80412e+06
1.80412e+06
1.80412e+06
1.00452e+06
1.00452e+06
1.00452e+06
1.00452e+06
267209
267209
267209
267209
-452172
-452172
-452172
-452172
-1.1901e+06
-1.1901e+06
-1.1901e+06
-1.1901e+06
-1.99169e+06
-1.99169e+06
-1.99169e+06
-1.99169e+06
-2.95224e+06
-2.95224e+06
-2.95224e+06
-2.95224e+06
-4.56469e+06
-4.56469e+06
-4.56469e+06
-4.56469e+06
3.39238e+06
3.39238e+06
3.39238e+06
3.39238e+06
2.60172e+06
2.60172e+06
2.60172e+06
2.60172e+06
1.74715e+06
1.74715e+06
1.74715e+06
1.74715e+06
980104
980104
980104
980104
261559
261559
261559
261559
-442092
-442092
-442092
-442092
-1.16092e+06
-1.16092e+06
-1.16092e+06
-1.16092e+06
-1.92895e+06
-1.92895e+06
-1.92895e+06
-1.92895e+06
-2.78603e+06
-2.78603e+06
-2.78603e+06
-2.78603e+06
-3.57238e+06
-3.57238e+06
-3.57238e+06
-3.57238e+06
2.97274e+06
2.97274e+06
2.97274e+06
2.97274e+06
2.37844e+06
2.37844e+06
2.37844e+06
2.37844e+06
1.6549e+06
1.6549e+06
1.6549e+06
1.6549e+06
940907
940907
940907
940907
251746
251746
251746
251746
-427752
-427752
-427752
-427752
-1.11667e+06
-1.11667e+06
-1.11667e+06
-1.11667e+06
-1.82996e+06
-1.82996e+06
-1.82996e+06
-1.82996e+06
-2.5506e+06
-2.5506e+06
-2.5506e+06
-2.5506e+06
-3.13192e+06
-3.13192e+06
-3.13192e+06
-3.13192e+06
2.72521e+06
2.72521e+06
2.72521e+06
2.72521e+06
2.18833e+06
2.18833e+06
2.18833e+06
2.18833e+06
1.55066e+06
1.55066e+06
1.55066e+06
1.55066e+06
891870
891870
891870
891870
238682
238682
238682
238682
-410145
-410145
-410145
-410145
-1.06253e+06
-1.06253e+06
-1.06253e+06
-1.06253e+06
-1.71909e+06
-1.71909e+06
-1.71909e+06
-1.71909e+06
-2.35103e+06
-2.35103e+06
-2.35103e+06
-2.35103e+06
-2.8738e+06
-2.8738e+06
-2.8738e+06
-2.8738e+06
2.54557e+06
2.54557e+06
2.54557e+06
2.54557e+06
2.03255e+06
2.03255e+06
2.03255e+06
2.03255e+06
1.44954e+06
1.44954e+06
1.44954e+06
1.44954e+06
839065
839065
839065
839065
223794
223794
223794
223794
-390828
-390828
-390828
-390828
-1.00485e+06
-1.00485e+06
-1.00485e+06
-1.00485e+06
-1.61216e+06
-1.61216e+06
-1.61216e+06
-1.61216e+06
-2.18839e+06
-2.18839e+06
-2.18839e+06
-2.18839e+06
-2.68828e+06
-2.68828e+06
-2.68828e+06
-2.68828e+06
2.39744e+06
2.39744e+06
2.39744e+06
2.39744e+06
1.90066e+06
1.90066e+06
1.90066e+06
1.90066e+06
1.35614e+06
1.35614e+06
1.35614e+06
1.35614e+06
786602
786602
786602
786602
208342
208342
208342
208342
-371192
-371192
-371192
-371192
-947934
-947934
-947934
-947934
-1.51388e+06
-1.51388e+06
-1.51388e+06
-1.51388e+06
-2.0516e+06
-2.0516e+06
-2.0516e+06
-2.0516e+06
-2.53683e+06
-2.53683e+06
-2.53683e+06
-2.53683e+06
2.26561e+06
2.26561e+06
2.26561e+06
2.26561e+06
1.78432e+06
1.78432e+06
1.78432e+06
1.78432e+06
1.27048e+06
1.27048e+06
1.27048e+06
1.27048e+06
736373
736373
736373
736373
193103
193103
193103
193103
-352108
-352108
-352108
-352108
-893759
-893759
-893759
-893759
-1.42424e+06
-1.42424e+06
-1.42424e+06
-1.42424e+06
-1.93176e+06
-1.93176e+06
-1.93176e+06
-1.93176e+06
-2.40322e+06
-2.40322e+06
-2.40322e+06
-2.40322e+06
2.14267e+06
2.14267e+06
2.14267e+06
2.14267e+06
1.67804e+06
1.67804e+06
1.67804e+06
1.67804e+06
1.19123e+06
1.19123e+06
1.19123e+06
1.19123e+06
688868
688868
688868
688868
178416
178416
178416
178416
-333963
-333963
-333963
-333963
-842818
-842818
-842818
-842818
-1.34175e+06
-1.34175e+06
-1.34175e+06
-1.34175e+06
-1.82294e+06
-1.82294e+06
-1.82294e+06
-1.82294e+06
-2.27943e+06
-2.27943e+06
-2.27943e+06
-2.27943e+06
2.02464e+06
2.02464e+06
2.02464e+06
2.02464e+06
1.5783e+06
1.5783e+06
1.5783e+06
1.5783e+06
1.11688e+06
1.11688e+06
1.11688e+06
1.11688e+06
643895
643895
643895
643895
164345
164345
164345
164345
-316831
-316831
-316831
-316831
-794884
-794884
-794884
-794884
-1.26476e+06
-1.26476e+06
-1.26476e+06
-1.26476e+06
-1.72133e+06
-1.72133e+06
-1.72133e+06
-1.72133e+06
-2.16108e+06
-2.16108e+06
-2.16108e+06
-2.16108e+06
1.90929e+06
1.90929e+06
1.90929e+06
1.90929e+06
1.48281e+06
1.48281e+06
1.48281e+06
1.48281e+06
1.04614e+06
1.04614e+06
1.04614e+06
1.04614e+06
601017
601017
601017
601017
150821
150821
150821
150821
-300630
-300629
-300629
-300630
-749465
-749465
-749465
-749465
-1.19184e+06
-1.19184e+06
-1.19184e+06
-1.19184e+06
-1.62442e+06
-1.62442e+06
-1.62442e+06
-1.62442e+06
-2.04567e+06
-2.04567e+06
-2.04567e+06
-2.04567e+06
1.79533e+06
1.79533e+06
1.79533e+06
1.79533e+06
1.39009e+06
1.39009e+06
1.39009e+06
1.39009e+06
977982
977982
977982
977982
559765
559765
559765
559765
137732
137732
137732
137732
-285214
-285214
-285214
-285214
-706034
-706034
-706034
-706034
-1.12186e+06
-1.12186e+06
-1.12186e+06
-1.12186e+06
-1.53055e+06
-1.53055e+06
-1.53055e+06
-1.53055e+06
-1.93172e+06
-1.93172e+06
-1.93172e+06
-1.93172e+06
1.68206e+06
1.68206e+06
1.68206e+06
1.68206e+06
1.29919e+06
1.29919e+06
1.29919e+06
1.29919e+06
911663
911663
911663
911663
519729
519729
519729
519729
124965
124965
124965
124965
-270437
-270437
-270437
-270437
-664129
-664129
-664129
-664129
-1.05398e+06
-1.05398e+06
-1.05398e+06
-1.05398e+06
-1.43863e+06
-1.43863e+06
-1.43863e+06
-1.43863e+06
-1.81832e+06
-1.81832e+06
-1.81832e+06
-1.81832e+06
1.56908e+06
1.56908e+06
1.56908e+06
1.56908e+06
1.20947e+06
1.20947e+06
1.20947e+06
1.20947e+06
846641
846641
846641
846641
480587
480587
480587
480587
112427
112427
112427
112427
-256169
-256169
-256169
-256169
-623380
-623380
-623380
-623380
-987606
-987606
-987606
-987606
-1.34794e+06
-1.34794e+06
-1.34794e+06
-1.34794e+06
-1.70494e+06
-1.70494e+06
-1.70494e+06
-1.70494e+06
1.45621e+06
1.45621e+06
1.45621e+06
1.45621e+06
1.12055e+06
1.12055e+06
1.12055e+06
1.12055e+06
782546
782546
782546
782546
442100
442100
442100
442100
100049
100049
100049
100049
-242305
-242305
-242305
-242305
-583520
-583520
-583520
-583520
-922323
-922323
-922323
-922323
-1.25803e+06
-1.25803e+06
-1.25803e+06
-1.25803e+06
-1.59125e+06
-1.59125e+06
-1.59125e+06
-1.59125e+06
1.34336e+06
1.34336e+06
1.34336e+06
1.34336e+06
1.0322e+06
1.0322e+06
1.0322e+06
1.0322e+06
719136
719136
719136
719136
404105
404105
404105
404105
87787.3
87787.3
87787.3
87787.3
-228764
-228764
-228764
-228764
-544365
-544365
-544365
-544365
-857902
-857902
-857902
-857902
-1.16867e+06
-1.16867e+06
-1.16867e+06
-1.16867e+06
-1.47704e+06
-1.47704e+06
-1.47704e+06
-1.47704e+06
1.23054e+06
1.23054e+06
1.23054e+06
1.23054e+06
944294
944294
944294
944294
656267
656267
656267
656267
366500
366500
366500
366500
75620.6
75620.6
75620.6
75620.6
-215481
-215481
-215481
-215481
-505801
-505801
-505801
-505801
-794254
-794254
-794254
-794254
-1.07982e+06
-1.07982e+06
-1.07982e+06
-1.07982e+06
-1.36219e+06
-1.36219e+06
-1.36219e+06
-1.36219e+06
1.11779e+06
1.11779e+06
1.11779e+06
1.11779e+06
856809
856809
856809
856809
593872
593872
593872
593872
329227
329227
329227
329227
63548
63548
63548
63548
-202391
-202391
-202391
-202391
-467753
-467753
-467753
-467753
-731422
-731422
-731422
-731422
-991703
-991703
-991703
-991703
-1.24672e+06
-1.24672e+06
-1.24672e+06
-1.24672e+06
1.00519e+06
1.00519e+06
1.00519e+06
1.00519e+06
769802
769802
769802
769802
531942
531942
531942
531942
292258
292258
292258
292258
51582.3
51582.3
51582.3
51582.3
-189412
-189412
-189412
-189412
-430129
-430129
-430129
-430129
-669537
-669537
-669537
-669537
-904931
-904931
-904931
-904931
-1.13096e+06
-1.13096e+06
-1.13096e+06
-1.13096e+06
892833
892833
892833
892833
683450
683450
683450
683450
470503
470503
470503
470503
255568
255568
255568
255568
39737.8
39737.8
39737.8
39737.8
-176440
-176440
-176440
-176440
-392742
-392742
-392742
-392742
-608660
-608660
-608660
-608660
-820718
-820718
-820718
-820718
-1.01615e+06
-1.01615e+06
-1.01615e+06
-1.01615e+06
780752
780752
780752
780752
598211
598211
598211
598211
409550
409550
409550
409550
219109
219109
219109
219109
28011.2
28011.2
28011.2
28011.2
-163364
-163364
-163364
-163364
-355242
-355242
-355242
-355242
-548280
-548280
-548280
-548280
-741029
-741029
-741029
-741029
-906509
-906509
-906509
-906509
673426
673426
673426
673426
519868
519868
519868
519868
363702
363702
363702
363702
205955
205955
205955
205955
47310.3
47310.3
47310.3
47310.3
-112106
-112106
-112106
-112106
-272985
-272985
-272985
-272985
-437600
-437600
-437600
-437600
-612841
-612841
-612841
-612841
-827285
-827285
-827285
-827285
604978
604978
604978
604978
468153
468153
468153
468153
332136
332136
332136
332136
195359
195359
195359
195359
58309.5
58309.6
58309.5
58309.5
-78740.4
-78740.4
-78740.4
-78740.4
-216228
-216228
-216228
-216228
-355798
-355798
-355798
-355798
-501733
-501733
-501733
-501733
-665826
-665826
-665826
-665826
533176
533176
533176
533176
415138
415138
415138
415138
297926
297926
297926
297926
180688
180688
180688
180688
63800.9
63800.9
63800.9
63800.9
-52352.5
-52352.5
-52352.5
-52352.5
-167946
-167946
-167946
-167946
-284046
-284046
-284046
-284046
-403202
-403202
-403202
-403202
-530847
-530847
-530847
-530847
459718
459718
459718
459718
360297
360297
360297
360297
260981
260981
260981
260981
161929
161929
161929
161929
63751.9
63751.9
63751.9
63751.9
-33012.9
-33012.9
-33012.9
-33012.9
-128295
-128295
-128295
-128295
-222703
-222703
-222703
-222703
-317744
-317744
-317744
-317744
-416214
-416214
-416214
-416214
385381
385381
385381
385381
303626
303626
303626
303626
221205
221205
221205
221205
139045
139045
139045
139045
58129.4
58129.4
58129.4
58129.4
-20787.4
-20787.4
-20787.4
-20787.4
-97404
-97404
-97404
-97404
-171981
-171981
-171981
-171981
-245396
-245396
-245396
-245396
-319222
-319222
-319222
-319222
310595
310595
310595
310595
245268
245268
245268
245268
178583
178583
178583
178583
112009
112009
112009
112009
46902.9
46902.9
46902.9
46902.9
-15729.3
-15729.3
-15729.3
-15729.3
-75364.8
-75364.8
-75364.8
-75364.8
-131995
-131995
-131995
-131995
-186098
-186098
-186098
-186098
-238605
-238605
-238605
-238605
235666
235666
235666
235666
185403
185403
185403
185403
133165
133165
133165
133165
80819.6
80819.6
80819.6
80819.7
30053.7
30053.7
30053.7
30053.8
-17875.7
-17875.7
-17875.7
-17875.7
-62236.4
-62236.4
-62236.4
-62236.4
-102804
-102804
-102804
-102804
-139784
-139784
-139784
-139784
-173732
-173732
-173732
-173732
160870
160870
160870
160870
124235
124235
124235
124235
85055.2
85055.2
85055.2
85055.2
45516.2
45516.2
45516.2
45516.2
7586.69
7586.68
7586.69
7586.72
-27243.6
-27243.7
-27243.6
-27243.6
-58050.3
-58050.3
-58050.3
-58050.3
-84430.6
-84430.6
-84430.6
-84430.6
-106397
-106397
-106397
-106397
-124263
-124263
-124263
-124263
86495.2
86495.2
86495.2
86495.3
61992.3
61992.3
61992.3
61992.3
34403.2
34403.2
34403.2
34403.3
6181.12
6181.11
6181.13
6181.16
-20461
-20461
-20461
-20461
-43824.8
-43824.8
-43824.8
-43824.7
-62813.3
-62813.4
-62813.3
-62813.3
-76876.5
-76876.5
-76876.5
-76876.5
-85883.8
-85883.9
-85883.8
-85883.8
-89989
-89989
-89989
-89989
12863.4
12863.5
12863.5
12863.5
-1059.82
-1059.81
-1059.77
-1059.74
-18595.3
-18595.3
-18595.3
-18595.2
-37055.9
-37055.9
-37055.9
-37055.9
-54012.4
-54012.4
-54012.4
-54012.3
-67579.1
-67579.1
-67579.1
-67579
-76506.6
-76506.6
-76506.6
-76506.6
-80121.9
-80121.9
-80121.9
-80121.9
-78189.6
-78189.6
-78189.6
-78189.6
-70760
-70760
-70759.9
-70759.9
-59647.3
-59647.3
-59647.3
-59647.2
-64601.9
-64601.9
-64601.8
-64601.8
-73688.8
-73688.8
-73688.8
-73688.7
-84010.8
-84010.8
-84010.8
-84010.8
-92942.4
-92942.4
-92942.4
-92942.4
-98428
-98428
-98428
-98427.9
-99081.6
-99081.7
-99081.7
-99081.6
-94127.7
-94127.7
-94127.7
-94127.7
-83254.6
-83254.7
-83254.6
-83254.6
-66451.1
-66451.1
-66451.1
-66451.1
-130582
-130582
-130582
-130582
-128242
-128242
-128242
-128242
-130555
-130555
-130555
-130555
-134433
-134433
-134433
-134433
-137068
-137068
-137068
-137068
-136245
-136245
-136245
-136245
-130454
-130454
-130454
-130454
-118832
-118832
-118832
-118832
-101012
-101012
-101012
-101012
-76951.3
-76951.3
-76951.3
-76951.3
-199380
-199380
-199380
-199380
-191489
-191489
-191489
-191489
-188781
-188781
-188781
-188781
-187988
-187988
-187988
-187988
-186130
-186130
-186130
-186130
-180843
-180843
-180843
-180843
-170496
-170496
-170496
-170496
-154146
-154146
-154146
-154146
-131385
-131385
-131385
-131385
-102162
-102162
-102162
-102162
-265338
-265338
-265338
-265338
-253719
-253718
-253718
-253718
-247827
-247827
-247827
-247827
-244227
-244227
-244227
-244226
-239773
-239773
-239773
-239773
-231953
-231953
-231953
-231953
-219017
-219017
-219017
-219017
-199943
-199943
-199943
-199943
-174287
-174287
-174286
-174286
-142001
-142001
-142001
-142001
-327551
-327551
-327551
-327551
-314120
-314120
-314120
-314120
-306983
-306983
-306983
-306983
-302546
-302546
-302546
-302546
-297504
-297504
-297504
-297504
-289195
-289195
-289195
-289195
-275746
-275746
-275746
-275746
-256047
-256047
-256047
-256047
-229615
-229615
-229615
-229615
-196408
-196408
-196408
-196408
-384836
-384836
-384836
-384836
-371623
-371623
-371623
-371623
-365299
-365299
-365299
-365299
-362123
-362123
-362123
-362123
-358638
-358638
-358638
-358638
-352030
-352030
-352030
-352030
-340289
-340289
-340289
-340289
-322205
-322205
-322205
-322205
-297242
-297242
-297242
-297242
-265352
-265352
-265352
-265352
-435608
-435608
-435608
-435608
-424784
-424784
-424784
-424784
-421476
-421476
-421476
-421476
-421814
-421814
-421814
-421814
-422202
-422202
-422202
-422202
-419672
-419672
-419672
-419672
-412065
-412065
-412065
-412065
-398044
-398044
-398044
-398044
-376991
-376991
-376991
-376991
-348833
-348833
-348833
-348833
-477691
-477691
-477690
-477690
-471610
-471610
-471610
-471610
-473702
-473701
-473701
-473701
-479995
-479995
-479995
-479995
-486783
-486783
-486783
-486783
-490957
-490957
-490957
-490957
-490189
-490189
-490189
-490189
-482981
-482981
-482981
-482981
-468590
-468590
-468590
-468590
-446877
-446877
-446877
-446877
-508027
-508027
-508027
-508027
-509289
-509289
-509289
-509289
-519384
-519384
-519384
-519384
-534298
-534298
-534298
-534298
-550269
-550269
-550269
-550269
-564084
-564084
-564084
-564084
-573248
-573248
-573248
-573248
-576053
-576052
-576052
-576052
-571559
-571559
-571559
-571559
-559498
-559498
-559498
-559498
-522210
-522210
-522210
-522210
-533746
-533745
-533745
-533745
-554721
-554721
-554721
-554720
-581171
-581171
-581171
-581171
-609390
-609390
-609390
-609390
-636156
-636156
-636156
-636156
-658855
-658855
-658855
-658855
-675539
-675539
-675539
-675539
-684964
-684964
-684964
-684964
-686598
-686598
-686598
-686598
-513718
-513718
-513718
-513718
-538929
-538929
-538929
-538929
-573980
-573980
-573980
-573980
-615125
-615125
-615125
-615125
-658911
-658910
-658910
-658910
-702295
-702294
-702294
-702294
-742711
-742711
-742711
-742711
-778069
-778069
-778069
-778069
-806728
-806728
-806728
-806728
-827610
-827610
-827610
-827610
-472702
-472702
-472702
-472702
-515650
-515650
-515649
-515649
-568288
-568288
-568287
-568287
-627399
-627399
-627399
-627399
-690120
-690120
-690120
-690120
-753923
-753923
-753923
-753923
-816612
-816612
-816612
-816612
-876331
-876331
-876331
-876331
-931455
-931455
-931455
-931455
-980124
-980124
-980124
-980124
-384169
-384168
-384168
-384168
-449736
-449736
-449735
-449735
-523547
-523547
-523547
-523547
-603432
-603432
-603432
-603432
-687782
-687782
-687782
-687782
-775167
-775167
-775167
-775167
-864191
-864191
-864191
-864191
-953634
-953634
-953634
-953634
-1.04285e+06
-1.04285e+06
-1.04285e+06
-1.04285e+06
-1.13247e+06
-1.13247e+06
-1.13247e+06
-1.13247e+06
-224812
-224812
-224812
-224812
-319536
-319536
-319536
-319536
-416802
-416802
-416802
-416802
-517042
-517042
-517041
-517041
-621921
-621921
-621921
-621921
-732542
-732542
-732542
-732542
-849069
-849069
-849069
-849069
-970698
-970698
-970698
-970698
-1.09558e+06
-1.09558e+06
-1.09558e+06
-1.09558e+06
-1.22045e+06
-1.22045e+06
-1.22045e+06
-1.22045e+06
-1.41834e+06
-1.41834e+06
-1.41834e+06
-1.41834e+06
-1.5782e+06
-1.5782e+06
-1.5782e+06
-1.5782e+06
-1.75303e+06
-1.75303e+06
-1.75303e+06
-1.75303e+06
-1.93998e+06
-1.93998e+06
-1.93998e+06
-1.93998e+06
-2.13635e+06
-2.13635e+06
-2.13635e+06
-2.13635e+06
-2.33912e+06
-2.33912e+06
-2.33912e+06
-2.33912e+06
-2.54469e+06
-2.54469e+06
-2.54469e+06
-2.54469e+06
-2.74895e+06
-2.74895e+06
-2.74895e+06
-2.74895e+06
-2.94742e+06
-2.94742e+06
-2.94742e+06
-2.94742e+06
-3.13544e+06
-3.13544e+06
-3.13544e+06
-3.13544e+06
-1.2166e+06
-1.2166e+06
-1.2166e+06
-1.2166e+06
-1.34028e+06
-1.34028e+06
-1.34028e+06
-1.34028e+06
-1.47523e+06
-1.47523e+06
-1.47523e+06
-1.47523e+06
-1.62175e+06
-1.62175e+06
-1.62175e+06
-1.62175e+06
-1.77868e+06
-1.77868e+06
-1.77868e+06
-1.77868e+06
-1.94365e+06
-1.94365e+06
-1.94365e+06
-1.94365e+06
-2.11311e+06
-2.11311e+06
-2.11311e+06
-2.11311e+06
-2.28251e+06
-2.28251e+06
-2.28251e+06
-2.28251e+06
-2.44652e+06
-2.44652e+06
-2.44652e+06
-2.44652e+06
-2.59947e+06
-2.59947e+06
-2.59947e+06
-2.59947e+06
-1.02869e+06
-1.02869e+06
-1.02869e+06
-1.02869e+06
-1.12874e+06
-1.12874e+06
-1.12874e+06
-1.12874e+06
-1.24e+06
-1.24e+06
-1.24e+06
-1.24e+06
-1.362e+06
-1.362e+06
-1.362e+06
-1.362e+06
-1.49371e+06
-1.49371e+06
-1.49371e+06
-1.49371e+06
-1.63309e+06
-1.63309e+06
-1.63309e+06
-1.63309e+06
-1.77691e+06
-1.77691e+06
-1.77691e+06
-1.77691e+06
-1.92074e+06
-1.92074e+06
-1.92074e+06
-1.92074e+06
-2.05921e+06
-2.05921e+06
-2.05921e+06
-2.05921e+06
-2.18651e+06
-2.18651e+06
-2.18651e+06
-2.18651e+06
-859005
-859005
-859005
-859005
-943581
-943581
-943581
-943581
-1.03814e+06
-1.03814e+06
-1.03814e+06
-1.03814e+06
-1.14249e+06
-1.14249e+06
-1.14249e+06
-1.14249e+06
-1.2557e+06
-1.2557e+06
-1.2557e+06
-1.2557e+06
-1.37591e+06
-1.37591e+06
-1.37591e+06
-1.37591e+06
-1.50012e+06
-1.50012e+06
-1.50012e+06
-1.50012e+06
-1.62411e+06
-1.62411e+06
-1.62411e+06
-1.62411e+06
-1.7427e+06
-1.7427e+06
-1.7427e+06
-1.7427e+06
-1.85018e+06
-1.85018e+06
-1.85018e+06
-1.85018e+06
-707015
-707015
-707015
-707015
-780178
-780178
-780178
-780178
-862025
-862025
-862025
-862025
-952537
-952537
-952537
-952537
-1.05098e+06
-1.05098e+06
-1.05098e+06
-1.05098e+06
-1.1557e+06
-1.1557e+06
-1.1557e+06
-1.1557e+06
-1.2639e+06
-1.2639e+06
-1.2639e+06
-1.2639e+06
-1.37162e+06
-1.37162e+06
-1.37162e+06
-1.37162e+06
-1.47389e+06
-1.47389e+06
-1.47389e+06
-1.47389e+06
-1.56526e+06
-1.56526e+06
-1.56526e+06
-1.56526e+06
-571870
-571870
-571870
-571870
-635591
-635591
-635591
-635591
-706790
-706790
-706790
-706790
-785574
-785574
-785574
-785574
-871385
-871385
-871385
-871385
-962756
-962756
-962756
-962756
-1.05712e+06
-1.05712e+06
-1.05712e+06
-1.05712e+06
-1.15077e+06
-1.15077e+06
-1.15077e+06
-1.15077e+06
-1.23899e+06
-1.23899e+06
-1.23899e+06
-1.23899e+06
-1.31662e+06
-1.31662e+06
-1.31662e+06
-1.31662e+06
-452881
-452881
-452881
-452881
-507909
-507909
-507909
-507909
-569352
-569352
-569352
-569352
-637417
-637417
-637417
-637417
-711687
-711687
-711687
-711687
-790883
-790884
-790884
-790884
-872664
-872664
-872664
-872664
-953561
-953561
-953561
-953561
-1.02916e+06
-1.02916e+06
-1.02916e+06
-1.02916e+06
-1.09458e+06
-1.09458e+06
-1.09458e+06
-1.09458e+06
-349536
-349536
-349536
-349536
-395859
-395859
-395859
-395859
-447683
-447683
-447683
-447683
-505299
-505299
-505299
-505299
-568421
-568421
-568421
-568421
-635943
-635943
-635943
-635943
-705741
-705741
-705741
-705741
-774601
-774601
-774601
-774601
-838390
-838390
-838390
-838390
-892531
-892531
-892531
-892531
-261483
-261483
-261483
-261483
-298589
-298589
-298589
-298589
-340418
-340418
-340418
-340418
-387342
-387342
-387342
-387342
-439199
-439199
-439199
-439199
-495054
-495054
-495054
-495054
-552999
-552999
-552999
-552999
-610077
-610077
-610077
-610077
-662442
-662442
-662442
-662442
-705821
-705821
-705821
-705821
-188505
-188505
-188505
-188505
-215539
-215539
-215539
-215539
-246633
-246633
-246633
-246633
-282245
-282245
-282245
-282245
-322340
-322340
-322340
-322340
-366157
-366157
-366157
-366157
-412010
-412010
-412010
-412010
-457205
-457205
-457205
-457205
-498190
-498190
-498190
-498190
-531003
-531003
-531003
-531003
-130488
-130488
-130488
-130488
-146359
-146359
-146359
-146359
-165714
-165714
-165714
-165714
-189108
-189108
-189108
-189108
-216644
-216644
-216644
-216644
-247747
-247747
-247747
-247747
-280966
-280966
-280966
-280966
-313883
-313883
-313883
-313883
-343258
-343258
-343258
-343258
-365451
-365451
-365451
-365451
-87406.1
-87406.1
-87406.1
-87406.1
-90854.2
-90854.2
-90854.2
-90854.2
-97268.6
-97268.5
-97268.5
-97268.6
-107315
-107315
-107315
-107315
-121252
-121252
-121252
-121252
-138711
-138711
-138711
-138711
-158495
-158495
-158495
-158495
-178491
-178491
-178491
-178491
-195791
-195791
-195791
-195791
-207098
-207098
-207098
-207098
-59296.1
-59296.1
-59296.1
-59296.1
-48948.1
-48948
-48948
-48948
-41073.7
-41073.6
-41073.6
-41073.7
-36467.2
-36467.2
-36467.2
-36467.2
-35563
-35563
-35563
-35563
-38223.5
-38223.5
-38223.5
-38223.5
-43542.2
-43542.2
-43542.2
-43542.2
-49745.1
-49745.1
-49745.1
-49745.1
-54295.5
-54295.5
-54295.5
-54295.5
-54268.7
-54268.7
-54268.7
-54268.6
-46242.3
-46242.3
-46242.3
-46242.3
-20651.1
-20651.1
-20651.1
-20651
2966.53
2966.55
2966.55
2966.53
23671.8
23671.8
23671.8
23671.8
40831.6
40831.6
40831.6
40831.6
54318.8
54318.8
54318.8
54318.8
64708.1
64708.1
64708.1
64708.2
73383.6
73383.6
73383.6
73383.6
82457.9
82457.9
82457.9
82457.9
94433.4
94433.4
94433.4
94433.5
-48362.9
-48362.9
-48362.9
-48362.9
-6039.07
-6039.07
-6039.07
-6039.05
34848.9
34849
34849
34848.9
73206.5
73206.5
73206.5
73206.5
108181
108181
108181
108181
139344
139344
139344
139344
166886
166886
166886
166886
191735
191734
191734
191735
215504
215504
215504
215504
240206
240206
240206
240206
-65801.3
-65801.3
-65801.3
-65801.3
-5234.42
-5234.42
-5234.42
-5234.4
54495.5
54495.5
54495.5
54495.5
112136
112136
112136
112136
166603
166603
166603
166603
217132
217132
217132
217132
263468
263468
263468
263468
305996
305996
305996
305996
345734
345734
345734
345734
384105
384105
384105
384105
-98726.4
-98726.4
-98726.4
-98726.4
-18391.4
-18391.4
-18391.4
-18391.4
61774.2
61774.2
61774.2
61774.2
140378
140378
140378
140378
216107
216107
216107
216107
287837
287837
287837
287837
354799
354799
354799
354799
416732
416732
416732
416732
473928
473928
473928
473928
527086
527086
527086
527086
-147350
-147350
-147350
-147350
-45686.2
-45686.2
-45686.2
-45686.2
56519.2
56519.2
56519.2
56519.2
157784
157784
157784
157784
256607
256607
256607
256607
351496
351496
351496
351496
441105
441105
441105
441105
524402
524402
524402
524402
600781
600781
600781
600781
670040
670040
670040
670040
-211973
-211973
-211973
-211973
-87311.6
-87311.6
-87311.6
-87311.6
38553.8
38553.8
38553.8
38553.8
164165
164165
164165
164165
287936
287936
287936
287936
408039
408039
408039
408039
522498
522498
522498
522498
629364
629364
629364
629364
726921
726921
726921
726921
813818
813818
813818
813818
-293104
-293104
-293104
-293104
-143480
-143480
-143480
-143480
7718.18
7718.19
7718.19
7718.18
159320
159320
159320
159320
309865
309864
309864
309864
457294
457294
457294
457294
598974
598974
598974
598974
731882
731882
731882
731882
852917
852917
852917
852917
959255
959255
959255
959255
-391711
-391711
-391711
-391711
-214421
-214421
-214421
-214421
-36089.2
-36089.2
-36089.2
-36089.2
143065
143065
143065
143065
322118
322118
322118
322118
498987
498987
498987
498987
670407
670407
670407
670407
832115
832115
832115
832115
979290
979290
979290
979290
1.10719e+06
1.10719e+06
1.10719e+06
1.10719e+06
-509814
-509814
-509814
-509814
-300347
-300347
-300347
-300347
-92842.5
-92842.5
-92842.5
-92842.5
115279
115279
115279
115279
324398
324398
324398
324398
532750
532750
532750
532750
736537
736537
736537
736537
930108
930108
930108
930108
1.10651e+06
1.10651e+06
1.10651e+06
1.10651e+06
1.2585e+06
1.2585e+06
1.2585e+06
1.2585e+06
-651941
-651941
-651941
-651941
-401201
-401201
-401201
-401201
-162263
-162263
-162263
-162263
75957.5
75957.5
75957.5
75957.5
316413
316413
316413
316413
558121
558121
558121
558121
796953
796953
796953
796953
1.02577e+06
1.02577e+06
1.02577e+06
1.02577e+06
1.23498e+06
1.23498e+06
1.23498e+06
1.23498e+06
1.41408e+06
1.41408e+06
1.41408e+06
1.41408e+06
-828985
-828985
-828985
-828985
-515589
-515589
-515589
-515589
-243608
-243608
-243608
-243608
25258
25258
25258
25258
297906
297906
297906
297906
574558
574558
574558
574558
851078
851078
851078
851078
1.11882e+06
1.11882e+06
1.11882e+06
1.11882e+06
1.36505e+06
1.36505e+06
1.36505e+06
1.36505e+06
1.57493e+06
1.57493e+06
1.57493e+06
1.57493e+06
1.73506e+06
1.73506e+06
1.73506e+06
1.73506e+06
1.83745e+06
1.83745e+06
1.83745e+06
1.83745e+06
1.88209e+06
1.88209e+06
1.88209e+06
1.88209e+06
1.87692e+06
1.87692e+06
1.87692e+06
1.87692e+06
1.83546e+06
1.83546e+06
1.83546e+06
1.83546e+06
1.77331e+06
1.77331e+06
1.77331e+06
1.77331e+06
1.70507e+06
1.70507e+06
1.70507e+06
1.70507e+06
1.64279e+06
1.64279e+06
1.64279e+06
1.64279e+06
1.59726e+06
1.59726e+06
1.59726e+06
1.59726e+06
1.59349e+06
1.59349e+06
1.59349e+06
1.59349e+06
1.55386e+06
1.55386e+06
1.55386e+06
1.55386e+06
1.64882e+06
1.64882e+06
1.64882e+06
1.64882e+06
1.69869e+06
1.69869e+06
1.69869e+06
1.69869e+06
1.70856e+06
1.70856e+06
1.70856e+06
1.70856e+06
1.68753e+06
1.68753e+06
1.68753e+06
1.68753e+06
1.64669e+06
1.64669e+06
1.64669e+06
1.64669e+06
1.5971e+06
1.5971e+06
1.5971e+06
1.5971e+06
1.54857e+06
1.54857e+06
1.54857e+06
1.54857e+06
1.50994e+06
1.50994e+06
1.50994e+06
1.50994e+06
1.49309e+06
1.49309e+06
1.49309e+06
1.49309e+06
1.37993e+06
1.37993e+06
1.37993e+06
1.37993e+06
1.4671e+06
1.4671e+06
1.4671e+06
1.4671e+06
1.51966e+06
1.51966e+06
1.51966e+06
1.51966e+06
1.54071e+06
1.54071e+06
1.54071e+06
1.54071e+06
1.53617e+06
1.53617e+06
1.53617e+06
1.53617e+06
1.5136e+06
1.5136e+06
1.5136e+06
1.5136e+06
1.481e+06
1.481e+06
1.481e+06
1.481e+06
1.44591e+06
1.44591e+06
1.44591e+06
1.44591e+06
1.41512e+06
1.41512e+06
1.41512e+06
1.41512e+06
1.39563e+06
1.39563e+06
1.39563e+06
1.39563e+06
1.21192e+06
1.21192e+06
1.21192e+06
1.21192e+06
1.29112e+06
1.29112e+06
1.29112e+06
1.29112e+06
1.34442e+06
1.34442e+06
1.34442e+06
1.34442e+06
1.37356e+06
1.37356e+06
1.37356e+06
1.37356e+06
1.38212e+06
1.38212e+06
1.38212e+06
1.38212e+06
1.37498e+06
1.37498e+06
1.37498e+06
1.37498e+06
1.35758e+06
1.35758e+06
1.35758e+06
1.35758e+06
1.33537e+06
1.33537e+06
1.33537e+06
1.33537e+06
1.31339e+06
1.31339e+06
1.31339e+06
1.31339e+06
1.29634e+06
1.29634e+06
1.29634e+06
1.29634e+06
1.04867e+06
1.04867e+06
1.04867e+06
1.04867e+06
1.11981e+06
1.11981e+06
1.11981e+06
1.11981e+06
1.17235e+06
1.17235e+06
1.17235e+06
1.17235e+06
1.20708e+06
1.20708e+06
1.20708e+06
1.20708e+06
1.2259e+06
1.2259e+06
1.2259e+06
1.2259e+06
1.2316e+06
1.2316e+06
1.2316e+06
1.2316e+06
1.22758e+06
1.22758e+06
1.22758e+06
1.22758e+06
1.21747e+06
1.21747e+06
1.21747e+06
1.21747e+06
1.20483e+06
1.20483e+06
1.20483e+06
1.20483e+06
1.19294e+06
1.19294e+06
1.19294e+06
1.19294e+06
889103
889103
889103
889103
952184
952184
952184
952184
1.00281e+06
1.00281e+06
1.00281e+06
1.00281e+06
1.04113e+06
1.04113e+06
1.04113e+06
1.04113e+06
1.06779e+06
1.06779e+06
1.06779e+06
1.06779e+06
1.08404e+06
1.08404e+06
1.08404e+06
1.08404e+06
1.09162e+06
1.09162e+06
1.09162e+06
1.09162e+06
1.09266e+06
1.09266e+06
1.09266e+06
1.09266e+06
1.08945e+06
1.08945e+06
1.08945e+06
1.08945e+06
1.08423e+06
1.08423e+06
1.08423e+06
1.08423e+06
732201
732201
732201
732201
787273
787273
787273
787274
835099
835099
835099
835099
875383
875383
875382
875382
907886
907886
907886
907886
932653
932653
932653
932653
950153
950153
950153
950153
961285
961285
961285
961285
967271
967271
967271
967271
969478
969478
969478
969478
576993
576993
576993
576993
624142
624142
624142
624142
668481
668481
668481
668481
709423
709423
709423
709423
746081
746081
746081
746081
777610
777610
777610
777610
803478
803478
803478
803478
823593
823593
823593
823593
838288
838288
838288
838288
848196
848196
848196
848196
422507
422507
422507
422507
461834
461834
461834
461834
502155
502155
502155
502155
542694
542694
542694
542694
582104
582104
582104
582104
618875
618875
618875
618875
651698
651698
651698
651698
679691
679691
679691
679691
702453
702453
702453
702453
719995
719995
719995
719995
267743
267743
267743
267743
299353
299353
299353
299353
335235
335235
335235
335235
374508
374508
374508
374508
415499
415499
415499
415499
456202
456202
456202
456202
494711
494711
494711
494711
529516
529516
529516
529516
559614
559614
559614
559614
584491
584491
584491
584491
111641
111641
111641
111641
135626
135626
135626
135626
166728
166728
166728
166728
204021
204021
204021
204021
245609
245609
245609
245609
289119
289119
289119
289119
332186
332186
332186
332185
372797
372797
372797
372797
409461
409461
409461
409461
441224
441224
441224
441224
-46958.5
-46958.5
-46958.5
-46958.5
-30536.1
-30536.1
-30536.1
-30536.1
-4508.75
-4508.76
-4508.77
-4508.76
30200.6
30200.6
30200.5
30200.5
71551.2
71551.2
71551.2
71551.1
116899
116899
116899
116899
163523
163523
163523
163523
209011
209011
209011
209011
251472
251472
251472
251472
289579
289579
289579
289579
-209363
-209363
-209363
-209363
-200488
-200488
-200488
-200488
-179813
-179813
-179813
-179813
-148218
-148218
-148218
-148218
-107829
-107829
-107830
-107830
-61487.5
-61487.6
-61487.6
-61487.6
-12192
-12192.1
-12192.1
-12192.1
37323.9
37323.9
37323.8
37323.8
84835.4
84835.4
84835.3
84835.3
128702
128702
128702
128702
-377093