/*--------------------------------*- C++ -*----------------------------------*\
| =========                 |                                                 |
| \\      /  F ield         | OpenFOAM: The Open Source CFD Toolbox           |
|  \\    /   O peration     | Version:  v2012                                 |
|   \\  /    A nd           | Website:  www.openfoam.com                      |
|    \\/     M anipulation  |                                                 |
\*---------------------------------------------------------------------------*/
FoamFile
{
    version     2.0;
    format      ascii;
    class       volScalarField;
    location    "1";
    object      sigmaEq;
}
// * * * * * * * * * * * * * * * * * * * * * * * * * * * * * * * * * * * * * //

dimensions      [1 -1 -2 0 0 0 0];


internalField   nonuniform List<scalar> 
7840
(
5.88199e+06
5.88199e+06
5.88199e+06
5.88199e+06
3.43242e+06
3.43242e+06
3.43242e+06
3.43242e+06
2.25313e+06
2.25313e+06
2.25313e+06
2.25313e+06
1.5061e+06
1.5061e+06
1.5061e+06
1.5061e+06
1.09846e+06
1.09846e+06
1.09846e+06
1.09846e+06
1.16682e+06
1.16682e+06
1.16682e+06
1.16682e+06
1.65974e+06
1.65974e+06
1.65974e+06
1.65974e+06
2.44628e+06
2.44628e+06
2.44628e+06
2.44628e+06
3.66204e+06
3.66204e+06
3.66204e+06
3.66204e+06
6.19808e+06
6.19808e+06
6.19808e+06
6.19808e+06
5.8116e+06
5.8116e+06
5.8116e+06
5.8116e+06
3.93608e+06
3.93608e+06
3.93608e+06
3.93608e+06
2.6699e+06
2.6699e+06
2.6699e+06
2.6699e+06
1.87988e+06
1.87988e+06
1.87988e+06
1.87988e+06
1.48723e+06
1.48723e+06
1.48723e+06
1.48723e+06
1.55013e+06
1.55013e+06
1.55013e+06
1.55013e+06
2.03485e+06
2.03485e+06
2.03485e+06
2.03485e+06
2.87767e+06
2.87767e+06
2.87767e+06
2.87767e+06
4.18827e+06
4.18827e+06
4.18827e+06
4.18827e+06
6.11397e+06
6.11397e+06
6.11397e+06
6.11397e+06
5.60838e+06
5.60838e+06
5.60838e+06
5.60838e+06
4.10999e+06
4.10999e+06
4.10999e+06
4.10999e+06
2.94624e+06
2.94624e+06
2.94624e+06
2.94624e+06
2.17963e+06
2.17963e+06
2.17963e+06
2.17963e+06
1.80812e+06
1.80812e+06
1.80812e+06
1.80812e+06
1.86955e+06
1.86955e+06
1.86955e+06
1.86955e+06
2.33817e+06
2.33817e+06
2.33817e+06
2.33817e+06
3.16554e+06
3.16554e+06
3.16554e+06
3.16554e+06
4.37277e+06
4.37277e+06
4.37277e+06
4.37277e+06
5.90047e+06
5.90047e+06
5.90047e+06
5.90047e+06
5.36348e+06
5.36348e+06
5.36348e+06
5.36348e+06
4.1214e+06
4.1214e+06
4.1214e+06
4.1214e+06
3.0944e+06
3.0944e+06
3.0944e+06
3.0944e+06
2.39271e+06
2.39271e+06
2.39271e+06
2.39271e+06
2.05561e+06
2.05561e+06
2.05561e+06
2.05561e+06
2.11669e+06
2.11669e+06
2.11669e+06
2.11669e+06
2.55447e+06
2.55447e+06
2.55447e+06
2.55447e+06
3.32141e+06
3.32141e+06
3.32141e+06
3.32141e+06
4.38921e+06
4.38921e+06
4.38921e+06
4.38921e+06
5.64823e+06
5.64823e+06
5.64823e+06
5.64823e+06
5.11603e+06
5.11603e+06
5.11603e+06
5.11603e+06
4.04808e+06
4.04808e+06
4.04808e+06
4.04808e+06
3.15082e+06
3.15082e+06
3.15082e+06
3.15082e+06
2.53004e+06
2.53004e+06
2.53004e+06
2.53004e+06
2.23594e+06
2.23594e+06
2.23594e+06
2.23594e+06
2.29667e+06
2.29667e+06
2.29667e+06
2.29667e+06
2.69353e+06
2.69353e+06
2.69353e+06
2.69353e+06
3.38222e+06
3.38222e+06
3.38222e+06
3.38222e+06
4.31804e+06
4.31804e+06
4.31804e+06
4.31804e+06
5.39617e+06
5.39617e+06
5.39617e+06
5.39617e+06
4.87422e+06
4.87422e+06
4.87422e+06
4.87422e+06
3.92938e+06
3.92938e+06
3.92938e+06
3.92938e+06
3.14635e+06
3.14635e+06
3.14635e+06
3.14635e+06
2.60903e+06
2.60903e+06
2.60903e+06
2.60903e+06
2.36102e+06
2.36102e+06
2.36102e+06
2.36102e+06
2.42103e+06
2.42103e+06
2.42103e+06
2.42103e+06
2.77258e+06
2.77258e+06
2.77258e+06
2.77258e+06
3.37955e+06
3.37955e+06
3.37955e+06
3.37955e+06
4.19993e+06
4.19993e+06
4.19993e+06
4.19993e+06
5.15183e+06
5.15183e+06
5.15183e+06
5.15183e+06
4.63787e+06
4.63787e+06
4.63787e+06
4.63787e+06
3.78625e+06
3.78625e+06
3.78625e+06
3.78625e+06
3.10309e+06
3.10309e+06
3.10309e+06
3.10309e+06
2.64624e+06
2.64624e+06
2.64624e+06
2.64624e+06
2.44389e+06
2.44389e+06
2.44389e+06
2.44389e+06
2.50273e+06
2.50273e+06
2.50273e+06
2.50273e+06
2.80834e+06
2.80834e+06
2.80834e+06
2.80834e+06
3.33617e+06
3.33617e+06
3.33617e+06
3.33617e+06
4.05653e+06
4.05653e+06
4.05653e+06
4.05653e+06
4.91441e+06
4.91441e+06
4.91441e+06
4.91441e+06
4.40524e+06
4.40524e+06
4.40524e+06
4.40524e+06
3.63027e+06
3.63027e+06
3.63027e+06
3.63027e+06
3.03608e+06
3.03608e+06
3.03608e+06
3.03608e+06
2.65506e+06
2.65506e+06
2.65506e+06
2.65506e+06
2.49618e+06
2.49618e+06
2.49618e+06
2.49618e+06
2.55348e+06
2.55348e+06
2.55348e+06
2.55348e+06
2.81451e+06
2.81451e+06
2.81451e+06
2.81451e+06
3.26767e+06
3.26767e+06
3.26767e+06
3.26767e+06
3.89981e+06
3.89981e+06
3.89981e+06
3.89981e+06
4.68166e+06
4.68166e+06
4.68166e+06
4.68166e+06
4.17484e+06
4.17484e+06
4.17484e+06
4.17484e+06
3.46801e+06
3.46801e+06
3.46801e+06
3.46801e+06
2.95533e+06
2.95533e+06
2.95533e+06
2.95533e+06
2.64548e+06
2.64548e+06
2.64548e+06
2.64548e+06
2.52727e+06
2.52727e+06
2.52727e+06
2.52727e+06
2.58276e+06
2.58276e+06
2.58276e+06
2.58276e+06
2.80144e+06
2.80144e+06
2.80144e+06
2.80144e+06
3.1845e+06
3.1845e+06
3.1845e+06
3.1845e+06
3.73655e+06
3.73655e+06
3.73655e+06
3.73655e+06
4.45168e+06
4.45168e+06
4.45168e+06
4.45168e+06
3.9456e+06
3.9456e+06
3.9456e+06
3.9456e+06
3.30323e+06
3.30323e+06
3.30323e+06
3.30323e+06
2.8674e+06
2.8674e+06
2.8674e+06
2.8674e+06
2.62464e+06
2.62464e+06
2.62464e+06
2.62464e+06
2.54418e+06
2.54418e+06
2.54418e+06
2.54418e+06
2.5977e+06
2.5977e+06
2.5977e+06
2.5977e+06
2.77653e+06
2.77653e+06
2.77653e+06
2.77653e+06
3.0935e+06
3.0935e+06
3.0935e+06
3.0935e+06
3.57066e+06
3.57066e+06
3.57066e+06
3.57066e+06
4.2231e+06
4.2231e+06
4.2231e+06
4.2231e+06
3.71691e+06
3.71691e+06
3.71691e+06
3.71691e+06
3.13817e+06
3.13817e+06
3.13817e+06
3.13817e+06
2.77652e+06
2.77652e+06
2.77652e+06
2.77652e+06
2.5974e+06
2.5974e+06
2.5974e+06
2.5974e+06
2.55193e+06
2.55193e+06
2.55193e+06
2.55193e+06
2.6034e+06
2.6034e+06
2.6034e+06
2.6034e+06
2.74489e+06
2.74489e+06
2.74489e+06
2.74489e+06
2.99917e+06
2.99917e+06
2.99917e+06
2.99917e+06
3.40445e+06
3.40445e+06
3.40445e+06
3.40445e+06
3.99507e+06
3.99507e+06
3.99507e+06
3.99507e+06
3.48847e+06
3.48847e+06
3.48847e+06
3.48847e+06
2.97417e+06
2.97417e+06
2.97417e+06
2.97417e+06
2.68542e+06
2.68542e+06
2.68542e+06
2.68542e+06
2.56701e+06
2.56701e+06
2.56701e+06
2.56701e+06
2.55399e+06
2.55399e+06
2.55399e+06
2.55399e+06
2.6034e+06
2.6034e+06
2.6034e+06
2.6034e+06
2.70993e+06
2.70993e+06
2.70993e+06
2.70993e+06
2.90436e+06
2.90436e+06
2.90436e+06
2.90436e+06
3.23932e+06
3.23932e+06
3.23932e+06
3.23932e+06
3.76707e+06
3.76707e+06
3.76707e+06
3.76707e+06
3.26018e+06
3.26018e+06
3.26018e+06
3.26018e+06
2.8121e+06
2.8121e+06
2.8121e+06
2.8121e+06
2.59583e+06
2.59583e+06
2.59583e+06
2.59583e+06
2.53556e+06
2.53556e+06
2.53556e+06
2.53556e+06
2.55266e+06
2.55266e+06
2.55266e+06
2.55266e+06
2.60005e+06
2.60005e+06
2.60005e+06
2.60005e+06
2.67387e+06
2.67387e+06
2.67387e+06
2.67387e+06
2.81091e+06
2.81091e+06
2.81091e+06
2.81091e+06
3.07617e+06
3.07617e+06
3.07617e+06
3.07617e+06
3.53884e+06
3.53884e+06
3.53884e+06
3.53884e+06
3.03209e+06
3.03209e+06
3.03209e+06
3.03209e+06
2.6526e+06
2.6526e+06
2.6526e+06
2.6526e+06
2.50886e+06
2.50886e+06
2.50886e+06
2.50886e+06
2.50438e+06
2.50438e+06
2.50438e+06
2.50438e+06
2.54946e+06
2.54946e+06
2.54946e+06
2.54946e+06
2.5949e+06
2.5949e+06
2.5949e+06
2.5949e+06
2.63808e+06
2.63808e+06
2.63808e+06
2.63808e+06
2.71993e+06
2.71993e+06
2.71993e+06
2.71993e+06
2.91565e+06
2.91565e+06
2.91565e+06
2.91565e+06
3.31027e+06
3.31027e+06
3.31027e+06
3.31027e+06
2.80435e+06
2.80435e+06
2.80435e+06
2.80435e+06
2.49618e+06
2.49618e+06
2.49618e+06
2.49618e+06
2.42522e+06
2.42522e+06
2.42522e+06
2.42522e+06
2.47427e+06
2.47427e+06
2.47427e+06
2.47427e+06
2.5454e+06
2.5454e+06
2.5454e+06
2.5454e+06
2.589e+06
2.589e+06
2.589e+06
2.589e+06
2.6034e+06
2.6034e+06
2.6034e+06
2.6034e+06
2.63207e+06
2.63207e+06
2.63207e+06
2.63207e+06
2.75824e+06
2.75824e+06
2.75824e+06
2.75824e+06
3.08136e+06
3.08136e+06
3.08136e+06
3.08136e+06
2.57717e+06
2.57717e+06
2.57717e+06
2.57717e+06
2.34336e+06
2.34336e+06
2.34336e+06
2.34336e+06
2.34539e+06
2.34539e+06
2.34539e+06
2.34539e+06
2.4457e+06
2.4457e+06
2.4457e+06
2.4457e+06
2.54114e+06
2.54114e+06
2.54114e+06
2.54114e+06
2.58306e+06
2.58306e+06
2.58306e+06
2.58306e+06
2.57038e+06
2.57038e+06
2.57038e+06
2.57038e+06
2.54763e+06
2.54763e+06
2.54763e+06
2.54763e+06
2.60428e+06
2.60428e+06
2.60428e+06
2.60428e+06
2.85215e+06
2.85215e+06
2.85215e+06
2.85215e+06
2.35082e+06
2.35082e+06
2.35082e+06
2.35082e+06
2.19468e+06
2.19468e+06
2.19468e+06
2.19468e+06
2.2697e+06
2.2697e+06
2.2697e+06
2.2697e+06
2.41897e+06
2.41897e+06
2.41897e+06
2.41897e+06
2.5372e+06
2.5372e+06
2.5372e+06
2.5372e+06
2.57769e+06
2.57769e+06
2.57769e+06
2.57769e+06
2.53945e+06
2.53945e+06
2.53945e+06
2.53945e+06
2.46672e+06
2.46672e+06
2.46672e+06
2.46672e+06
2.45384e+06
2.45384e+06
2.45384e+06
2.45384e+06
2.62262e+06
2.62263e+06
2.62263e+06
2.62263e+06
2.12569e+06
2.12569e+06
2.12569e+06
2.12569e+06
2.0507e+06
2.0507e+06
2.0507e+06
2.0507e+06
2.19838e+06
2.19838e+06
2.19838e+06
2.19838e+06
2.39427e+06
2.39427e+06
2.39427e+06
2.39427e+06
2.53397e+06
2.53397e+06
2.53397e+06
2.53397e+06
2.57352e+06
2.57352e+06
2.57352e+06
2.57352e+06
2.51125e+06
2.51125e+06
2.51125e+06
2.51125e+06
2.38944e+06
2.38944e+06
2.38944e+06
2.38944e+06
2.30644e+06
2.30644e+06
2.30644e+06
2.30644e+06
2.39243e+06
2.39243e+06
2.39243e+06
2.39243e+06
1.90224e+06
1.90224e+06
1.90224e+06
1.90224e+06
1.91199e+06
1.91199e+06
1.91199e+06
1.91199e+06
2.13165e+06
2.13165e+06
2.13165e+06
2.13165e+06
2.37177e+06
2.37177e+06
2.37177e+06
2.37177e+06
2.53184e+06
2.53184e+06
2.53184e+06
2.53184e+06
2.57123e+06
2.57123e+06
2.57123e+06
2.57123e+06
2.4868e+06
2.4868e+06
2.4868e+06
2.4868e+06
2.31647e+06
2.31647e+06
2.31647e+06
2.31647e+06
2.1608e+06
2.1608e+06
2.1608e+06
2.1608e+06
2.1599e+06
2.1599e+06
2.1599e+06
2.1599e+06
1.68123e+06
1.68123e+06
1.68123e+06
1.68123e+06
1.779e+06
1.779e+06
1.779e+06
1.779e+06
2.06989e+06
2.06989e+06
2.06989e+06
2.06989e+06
2.35168e+06
2.35168e+06
2.35168e+06
2.35168e+06
2.53111e+06
2.53111e+06
2.53111e+06
2.53111e+06
2.57151e+06
2.57151e+06
2.57151e+06
2.57151e+06
2.46777e+06
2.46777e+06
2.46777e+06
2.46777e+06
2.25029e+06
2.25029e+06
2.25029e+06
2.25029e+06
2.01493e+06
2.01493e+06
2.01493e+06
2.01493e+06
1.91881e+06
1.91881e+06
1.91881e+06
1.91881e+06
1.4752e+06
1.4752e+06
1.4752e+06
1.4752e+06
1.65346e+06
1.65346e+06
1.65346e+06
1.65346e+06
2.00171e+06
2.00171e+06
2.00171e+06
2.00171e+06
2.31574e+06
2.31574e+06
2.31574e+06
2.31574e+06
2.5145e+06
2.5145e+06
2.5145e+06
2.5145e+06
2.56566e+06
2.56566e+06
2.56566e+06
2.56566e+06
2.46161e+06
2.46161e+06
2.46161e+06
2.46161e+06
2.22219e+06
2.22219e+06
2.22219e+06
2.22219e+06
1.9251e+06
1.9251e+06
1.9251e+06
1.9251e+06
1.77787e+06
1.77787e+06
1.77787e+06
1.77787e+06
1.32357e+06
1.32357e+06
1.32357e+06
1.32357e+06
1.5466e+06
1.5466e+06
1.5466e+06
1.5466e+06
1.92445e+06
1.92445e+06
1.92445e+06
1.92445e+06
2.26196e+06
2.26196e+06
2.26196e+06
2.26196e+06
2.4871e+06
2.4871e+06
2.4871e+06
2.4871e+06
2.57002e+06
2.57002e+06
2.57002e+06
2.57002e+06
2.50006e+06
2.50006e+06
2.50006e+06
2.50006e+06
2.28533e+06
2.28533e+06
2.28533e+06
2.28533e+06
1.97004e+06
1.97004e+06
1.97004e+06
1.97004e+06
1.69112e+06
1.69112e+06
1.69112e+06
1.69112e+06
1.17434e+06
1.17434e+06
1.17434e+06
1.17434e+06
1.44152e+06
1.44152e+06
1.44152e+06
1.44152e+06
1.84509e+06
1.84509e+06
1.84509e+06
1.84509e+06
2.20325e+06
2.20325e+06
2.20325e+06
2.20325e+06
2.45312e+06
2.45312e+06
2.45312e+06
2.45312e+06
2.56763e+06
2.56763e+06
2.56763e+06
2.56763e+06
2.53467e+06
2.53467e+06
2.53467e+06
2.53467e+06
2.3551e+06
2.3551e+06
2.3551e+06
2.3551e+06
2.05146e+06
2.05146e+06
2.05146e+06
2.05146e+06
1.70167e+06
1.70167e+06
1.70167e+06
1.70167e+06
1.02637e+06
1.02637e+06
1.02637e+06
1.02637e+06
1.33778e+06
1.33778e+06
1.33778e+06
1.33778e+06
1.76394e+06
1.76394e+06
1.76394e+06
1.76394e+06
2.13979e+06
2.13979e+06
2.13979e+06
2.13979e+06
2.41225e+06
2.41225e+06
2.41225e+06
2.41225e+06
2.55725e+06
2.55725e+06
2.55725e+06
2.55725e+06
2.56222e+06
2.56222e+06
2.56222e+06
2.56222e+06
2.4237e+06
2.4237e+06
2.4237e+06
2.4237e+06
2.15113e+06
2.15113e+06
2.15113e+06
2.15113e+06
1.78331e+06
1.78331e+06
1.78331e+06
1.78331e+06
879942
879942
879942
879942
1.23574e+06
1.23574e+06
1.23574e+06
1.23574e+06
1.68125e+06
1.68125e+06
1.68125e+06
1.68125e+06
2.07181e+06
2.07181e+06
2.07181e+06
2.07181e+06
2.36438e+06
2.36438e+06
2.36438e+06
2.36438e+06
2.53808e+06
2.53808e+06
2.53808e+06
2.53808e+06
2.58048e+06
2.58048e+06
2.58048e+06
2.58048e+06
2.48576e+06
2.48576e+06
2.48576e+06
2.48576e+06
2.25596e+06
2.25596e+06
2.25596e+06
2.25596e+06
1.90767e+06
1.90767e+06
1.90767e+06
1.90767e+06
736321
736321
736321
736321
1.13647e+06
1.13647e+06
1.13647e+06
1.13647e+06
1.59756e+06
1.59756e+06
1.59756e+06
1.59756e+06
1.99961e+06
1.99961e+06
1.99961e+06
1.99961e+06
2.30958e+06
2.30958e+06
2.30958e+06
2.30958e+06
2.50966e+06
2.50966e+06
2.50966e+06
2.50966e+06
2.58797e+06
2.58797e+06
2.58797e+06
2.58797e+06
2.53754e+06
2.53754e+06
2.53754e+06
2.53754e+06
2.35656e+06
2.35656e+06
2.35656e+06
2.35656e+06
2.0504e+06
2.0504e+06
2.0504e+06
2.0504e+06
598030
598030
598030
598030
1.04178e+06
1.04178e+06
1.04178e+06
1.04178e+06
1.5137e+06
1.5137e+06
1.5137e+06
1.5137e+06
1.92373e+06
1.92373e+06
1.92373e+06
1.92373e+06
2.24811e+06
2.24811e+06
2.24811e+06
2.24811e+06
2.47186e+06
2.47186e+06
2.47186e+06
2.47186e+06
2.58377e+06
2.58377e+06
2.58377e+06
2.58377e+06
2.57649e+06
2.57649e+06
2.57649e+06
2.57649e+06
2.4464e+06
2.4464e+06
2.4464e+06
2.4464e+06
2.19379e+06
2.19379e+06
2.19379e+06
2.19379e+06
470124
470124
470124
470124
954230
954230
954230
954230
1.43096e+06
1.43096e+06
1.43096e+06
1.43096e+06
1.84494e+06
1.84494e+06
1.84494e+06
1.84494e+06
2.18046e+06
2.18046e+06
2.18046e+06
2.18046e+06
2.42482e+06
2.42482e+06
2.42482e+06
2.42482e+06
2.56748e+06
2.56748e+06
2.56748e+06
2.56748e+06
2.60101e+06
2.60101e+06
2.60101e+06
2.60101e+06
2.52113e+06
2.52113e+06
2.52113e+06
2.52113e+06
2.32619e+06
2.32619e+06
2.32619e+06
2.32619e+06
363480
363480
363480
363480
877293
877293
877293
877293
1.35105e+06
1.35105e+06
1.35105e+06
1.35105e+06
1.76438e+06
1.76438e+06
1.76438e+06
1.76438e+06
2.10743e+06
2.10743e+06
2.10743e+06
2.10743e+06
2.36903e+06
2.36903e+06
2.36903e+06
2.36903e+06
2.5391e+06
2.5391e+06
2.5391e+06
2.5391e+06
2.61025e+06
2.61025e+06
2.61025e+06
2.61025e+06
2.57807e+06
2.57807e+06
2.57807e+06
2.57807e+06
2.4404e+06
2.4404e+06
2.4404e+06
2.4404e+06
300221
300221
300221
300221
815233
815233
815233
815233
1.27619e+06
1.27619e+06
1.27619e+06
1.27619e+06
1.68357e+06
1.68357e+06
1.68357e+06
1.68357e+06
2.03015e+06
2.03015e+06
2.03015e+06
2.03015e+06
2.30533e+06
2.30533e+06
2.30533e+06
2.30533e+06
2.4991e+06
2.4991e+06
2.4991e+06
2.4991e+06
2.60408e+06
2.60408e+06
2.60408e+06
2.60408e+06
2.61587e+06
2.61587e+06
2.61587e+06
2.61587e+06
2.53238e+06
2.53238e+06
2.53238e+06
2.53238e+06
305734
305734
305734
305734
772685
772685
772685
772685
1.20912e+06
1.20912e+06
1.20912e+06
1.20912e+06
1.60455e+06
1.60455e+06
1.60455e+06
1.60455e+06
1.95023e+06
1.95023e+06
1.95023e+06
1.95023e+06
2.23498e+06
2.23498e+06
2.23498e+06
2.23498e+06
2.44844e+06
2.44844e+06
2.44844e+06
2.44844e+06
2.58301e+06
2.58301e+06
2.58301e+06
2.58301e+06
2.63427e+06
2.63427e+06
2.63427e+06
2.63427e+06
2.6003e+06
2.6003e+06
2.6003e+06
2.6003e+06
373614
373614
373614
373614
753588
753588
753588
753588
1.15299e+06
1.15299e+06
1.15299e+06
1.15299e+06
1.52986e+06
1.52986e+06
1.52986e+06
1.52986e+06
1.8698e+06
1.8698e+06
1.8698e+06
1.8698e+06
2.1598e+06
2.1598e+06
2.1598e+06
2.1598e+06
2.38863e+06
2.38863e+06
2.38863e+06
2.38863e+06
2.54822e+06
2.54822e+06
2.54822e+06
2.54822e+06
2.63395e+06
2.63395e+06
2.63395e+06
2.63395e+06
2.64399e+06
2.64399e+06
2.64399e+06
2.64399e+06
474056
474056
474056
474056
759735
759735
759735
759735
1.11114e+06
1.11114e+06
1.11114e+06
1.11114e+06
1.46261e+06
1.46261e+06
1.46261e+06
1.46261e+06
1.79162e+06
1.79162e+06
1.79162e+06
1.79162e+06
2.08224e+06
2.08224e+06
2.08224e+06
2.08224e+06
2.32186e+06
2.32186e+06
2.32186e+06
2.32186e+06
2.50164e+06
2.50164e+06
2.50164e+06
2.50164e+06
2.61654e+06
2.61654e+06
2.61654e+06
2.61654e+06
2.66462e+06
2.66462e+06
2.66462e+06
2.66462e+06
586213
586213
586213
586213
789777
789776
789776
789776
1.08659e+06
1.08659e+06
1.08659e+06
1.08659e+06
1.40639e+06
1.40639e+06
1.40639e+06
1.40639e+06
1.71918e+06
1.71918e+06
1.71918e+06
1.71918e+06
2.00555e+06
2.00555e+06
2.00555e+06
2.00555e+06
2.25114e+06
2.25114e+06
2.25114e+06
2.25114e+06
2.44608e+06
2.44608e+06
2.44608e+06
2.44608e+06
2.58466e+06
2.58466e+06
2.58466e+06
2.58466e+06
2.66462e+06
2.66462e+06
2.66462e+06
2.66462e+06
699407
699407
699407
699407
839449
839449
839449
839449
1.08134e+06
1.08134e+06
1.08134e+06
1.08134e+06
1.36501e+06
1.36501e+06
1.36501e+06
1.36501e+06
1.65667e+06
1.65667e+06
1.65667e+06
1.65667e+06
1.93389e+06
1.93389e+06
1.93389e+06
1.93389e+06
2.18049e+06
2.18049e+06
2.18049e+06
2.18049e+06
2.38539e+06
2.38539e+06
2.38539e+06
2.38539e+06
2.54207e+06
2.54207e+06
2.54207e+06
2.54207e+06
2.6477e+06
2.6477e+06
2.6477e+06
2.6477e+06
807266
807266
807266
807266
902700
902700
902700
902700
1.09568e+06
1.09568e+06
1.09568e+06
1.09568e+06
1.34194e+06
1.34194e+06
1.34194e+06
1.34194e+06
1.6088e+06
1.6088e+06
1.6088e+06
1.6088e+06
1.87237e+06
1.87237e+06
1.87237e+06
1.87237e+06
2.11508e+06
2.11508e+06
2.11508e+06
2.11508e+06
2.32474e+06
2.32474e+06
2.32474e+06
2.32474e+06
2.49392e+06
2.49392e+06
2.49392e+06
2.49392e+06
2.61907e+06
2.61907e+06
2.61907e+06
2.61907e+06
904641
904641
904641
904641
972707
972706
972706
972706
1.12772e+06
1.12772e+06
1.12772e+06
1.12772e+06
1.33955e+06
1.33955e+06
1.33955e+06
1.33955e+06
1.58029e+06
1.58029e+06
1.58029e+06
1.58029e+06
1.82686e+06
1.82686e+06
1.82686e+06
1.82686e+06
2.06133e+06
2.06133e+06
2.06133e+06
2.06133e+06
2.27081e+06
2.27081e+06
2.27081e+06
2.27081e+06
2.44706e+06
2.44706e+06
2.44706e+06
2.44706e+06
2.58577e+06
2.58577e+06
2.58577e+06
2.58577e+06
986111
986110
986110
986110
1.04224e+06
1.04224e+06
1.04224e+06
1.04224e+06
1.17327e+06
1.17327e+06
1.17327e+06
1.17327e+06
1.35819e+06
1.35819e+06
1.35819e+06
1.35819e+06
1.575e+06
1.575e+06
1.575e+06
1.575e+06
1.80343e+06
1.80343e+06
1.80343e+06
1.80343e+06
2.02664e+06
2.02664e+06
2.02664e+06
2.02664e+06
2.23182e+06
2.23182e+06
2.23182e+06
2.23182e+06
2.4103e+06
2.4103e+06
2.4103e+06
2.4103e+06
2.55711e+06
2.55711e+06
2.55711e+06
2.55711e+06
1.04495e+06
1.04495e+06
1.04495e+06
1.04495e+06
1.10332e+06
1.10332e+06
1.10332e+06
1.10332e+06
1.22585e+06
1.22585e+06
1.22585e+06
1.22585e+06
1.39534e+06
1.39534e+06
1.39534e+06
1.39534e+06
1.59456e+06
1.59456e+06
1.59456e+06
1.59456e+06
1.80711e+06
1.80711e+06
1.80711e+06
1.80711e+06
2.01854e+06
2.01854e+06
2.01854e+06
2.01854e+06
2.21715e+06
2.21715e+06
2.21715e+06
2.21715e+06
2.3944e+06
2.3944e+06
2.3944e+06
2.3944e+06
2.54497e+06
2.54497e+06
2.54497e+06
2.54497e+06
1.07203e+06
1.07203e+06
1.07203e+06
1.07203e+06
1.14639e+06
1.14639e+06
1.14639e+06
1.14639e+06
1.27649e+06
1.27649e+06
1.27649e+06
1.27649e+06
1.44473e+06
1.44473e+06
1.44473e+06
1.44473e+06
1.63677e+06
1.63677e+06
1.63677e+06
1.63677e+06
1.83993e+06
1.83993e+06
1.83993e+06
1.83993e+06
2.04286e+06
2.04286e+06
2.04286e+06
2.04286e+06
2.23583e+06
2.23583e+06
2.23583e+06
2.23583e+06
2.41116e+06
2.41116e+06
2.41116e+06
2.41116e+06
2.5635e+06
2.5635e+06
2.5635e+06
2.5635e+06
1.05441e+06
1.05441e+06
1.05441e+06
1.05441e+06
1.15892e+06
1.15892e+06
1.15892e+06
1.15892e+06
1.31268e+06
1.31268e+06
1.31268e+06
1.31268e+06
1.49515e+06
1.49515e+06
1.49515e+06
1.49515e+06
1.69339e+06
1.69339e+06
1.69339e+06
1.69339e+06
1.89781e+06
1.89781e+06
1.89781e+06
1.89781e+06
2.10021e+06
2.10021e+06
2.10021e+06
2.10021e+06
2.29327e+06
2.29327e+06
2.29327e+06
2.29327e+06
2.47066e+06
2.47066e+06
2.47066e+06
2.47066e+06
2.62727e+06
2.62727e+06
2.62727e+06
2.62727e+06
973390
973390
973389
973389
1.12323e+06
1.12323e+06
1.12323e+06
1.12323e+06
1.31583e+06
1.31583e+06
1.31583e+06
1.31583e+06
1.52727e+06
1.52727e+06
1.52727e+06
1.52727e+06
1.7461e+06
1.7461e+06
1.7461e+06
1.7461e+06
1.96544e+06
1.96544e+06
1.96543e+06
1.96543e+06
2.17978e+06
2.17978e+06
2.17978e+06
2.17978e+06
2.38424e+06
2.38424e+06
2.38424e+06
2.38424e+06
2.57428e+06
2.57428e+06
2.57428e+06
2.57428e+06
2.74531e+06
2.74531e+06
2.74531e+06
2.74531e+06
803214
803214
803213
803213
1.01322e+06
1.01322e+06
1.01322e+06
1.01322e+06
1.25488e+06
1.25488e+06
1.25488e+06
1.25488e+06
1.50499e+06
1.50499e+06
1.50499e+06
1.50499e+06
1.75614e+06
1.75614e+06
1.75614e+06
1.75614e+06
2.0043e+06
2.0043e+06
2.0043e+06
2.0043e+06
2.24589e+06
2.24589e+06
2.24589e+06
2.24589e+06
2.47758e+06
2.47758e+06
2.47758e+06
2.47758e+06
2.69688e+06
2.69688e+06
2.69688e+06
2.69688e+06
2.90283e+06
2.90283e+06
2.90283e+06
2.90283e+06
520760
520759
520759
520759
788753
788753
788752
788752
1.06637e+06
1.06637e+06
1.06637e+06
1.06637e+06
1.3468e+06
1.3468e+06
1.3468e+06
1.3468e+06
1.63062e+06
1.63062e+06
1.63062e+06
1.63062e+06
1.91597e+06
1.91597e+06
1.91597e+06
1.91597e+06
2.19887e+06
2.19887e+06
2.19887e+06
2.19887e+06
2.47437e+06
2.47437e+06
2.47437e+06
2.47437e+06
2.73725e+06
2.73725e+06
2.73725e+06
2.73725e+06
2.98218e+06
2.98218e+06
2.98218e+06
2.98218e+06
3.26319e+06
3.26319e+06
3.26319e+06
3.26319e+06
3.49807e+06
3.49807e+06
3.49807e+06
3.49807e+06
3.7164e+06
3.7164e+06
3.7164e+06
3.7164e+06
3.91201e+06
3.91201e+06
3.91201e+06
3.91201e+06
4.07852e+06
4.07852e+06
4.07852e+06
4.07852e+06
4.20989e+06
4.20989e+06
4.20989e+06
4.20989e+06
4.30101e+06
4.30101e+06
4.30101e+06
4.30101e+06
4.34821e+06
4.34821e+06
4.34821e+06
4.34821e+06
4.34991e+06
4.34991e+06
4.34991e+06
4.34991e+06
4.30706e+06
4.30706e+06
4.30706e+06
4.30706e+06
3.1113e+06
3.1113e+06
3.1113e+06
3.1113e+06
3.30778e+06
3.30778e+06
3.30778e+06
3.30778e+06
3.49218e+06
3.49218e+06
3.49218e+06
3.49218e+06
3.6563e+06
3.6563e+06
3.6563e+06
3.6563e+06
3.79149e+06
3.79149e+06
3.79149e+06
3.79149e+06
3.88905e+06
3.88905e+06
3.88905e+06
3.88905e+06
3.941e+06
3.94099e+06
3.94099e+06
3.94099e+06
3.94085e+06
3.94085e+06
3.94085e+06
3.94085e+06
3.8847e+06
3.8847e+06
3.8847e+06
3.8847e+06
3.77218e+06
3.77218e+06
3.77218e+06
3.77218e+06
2.92135e+06
2.92135e+06
2.92135e+06
2.92135e+06
3.10314e+06
3.10314e+06
3.10314e+06
3.10314e+06
3.27305e+06
3.27305e+06
3.27305e+06
3.27305e+06
3.42377e+06
3.42377e+06
3.42377e+06
3.42377e+06
3.54653e+06
3.54653e+06
3.54653e+06
3.54653e+06
3.63168e+06
3.63168e+06
3.63168e+06
3.63168e+06
3.66972e+06
3.66972e+06
3.66972e+06
3.66972e+06
3.65253e+06
3.65253e+06
3.65253e+06
3.65253e+06
3.57481e+06
3.57481e+06
3.57481e+06
3.57481e+06
3.4354e+06
3.4354e+06
3.4354e+06
3.4354e+06
2.78575e+06
2.78576e+06
2.78575e+06
2.78575e+06
2.95109e+06
2.95109e+06
2.95109e+06
2.95109e+06
3.10683e+06
3.10683e+06
3.10683e+06
3.10683e+06
3.24526e+06
3.24526e+06
3.24526e+06
3.24526e+06
3.35731e+06
3.35731e+06
3.35731e+06
3.35731e+06
3.43287e+06
3.43287e+06
3.43287e+06
3.43287e+06
3.46167e+06
3.46167e+06
3.46167e+06
3.46167e+06
3.43466e+06
3.43466e+06
3.43466e+06
3.43466e+06
3.34566e+06
3.34566e+06
3.34566e+06
3.34566e+06
3.19302e+06
3.19302e+06
3.19302e+06
3.19302e+06
2.70856e+06
2.70856e+06
2.70856e+06
2.70856e+06
2.85452e+06
2.85452e+06
2.85452e+06
2.85452e+06
2.99334e+06
2.99334e+06
2.99334e+06
2.99334e+06
3.11723e+06
3.11723e+06
3.11723e+06
3.11723e+06
3.21689e+06
3.21689e+06
3.21689e+06
3.21689e+06
3.28189e+06
3.28189e+06
3.28189e+06
3.28189e+06
3.30149e+06
3.30149e+06
3.30149e+06
3.30149e+06
3.26605e+06
3.26605e+06
3.26605e+06
3.26605e+06
3.16889e+06
3.16889e+06
3.16889e+06
3.16889e+06
3.00802e+06
3.00802e+06
3.00802e+06
3.00802e+06
2.67661e+06
2.67661e+06
2.67661e+06
2.67661e+06
2.80155e+06
2.80155e+06
2.80155e+06
2.80155e+06
2.92145e+06
2.92145e+06
2.92145e+06
2.92145e+06
3.02878e+06
3.02878e+06
3.02878e+06
3.02878e+06
3.11425e+06
3.11425e+06
3.11425e+06
3.11425e+06
3.16727e+06
3.16727e+06
3.16727e+06
3.16727e+06
3.17683e+06
3.17683e+06
3.17683e+06
3.17683e+06
3.13298e+06
3.13298e+06
3.13298e+06
3.13298e+06
3.02871e+06
3.02871e+06
3.02871e+06
3.02871e+06
2.86187e+06
2.86187e+06
2.86187e+06
2.86187e+06
2.67408e+06
2.67408e+06
2.67408e+06
2.67408e+06
2.77796e+06
2.77796e+06
2.77796e+06
2.77796e+06
2.87839e+06
2.87839e+06
2.87839e+06
2.87839e+06
2.96828e+06
2.96828e+06
2.96828e+06
2.96827e+06
3.03857e+06
3.03857e+06
3.03857e+06
3.03857e+06
3.07875e+06
3.07875e+06
3.07875e+06
3.07875e+06
3.07774e+06
3.07774e+06
3.07774e+06
3.07774e+06
3.02544e+06
3.02544e+06
3.02544e+06
3.02544e+06
2.91473e+06
2.91473e+06
2.91473e+06
2.91473e+06
2.74342e+06
2.74342e+06
2.74342e+06
2.74342e+06
2.6866e+06
2.6866e+06
2.6866e+06
2.6866e+06
2.77074e+06
2.77074e+06
2.77074e+06
2.77074e+06
2.85248e+06
2.85248e+06
2.85248e+06
2.85248e+06
2.92524e+06
2.92524e+06
2.92524e+06
2.92524e+06
2.98041e+06
2.98041e+06
2.98041e+06
2.98041e+06
3.00772e+06
3.00772e+06
3.00772e+06
3.00772e+06
2.99623e+06
2.99623e+06
2.99623e+06
2.99623e+06
2.93589e+06
2.93589e+06
2.93589e+06
2.93589e+06
2.81964e+06
2.81964e+06
2.81964e+06
2.81964e+06
2.64539e+06
2.64539e+06
2.64539e+06
2.64539e+06
2.70236e+06
2.70236e+06
2.70236e+06
2.70236e+06
2.76904e+06
2.76904e+06
2.76904e+06
2.76904e+06
2.83384e+06
2.83384e+06
2.83384e+06
2.83384e+06
2.89078e+06
2.89078e+06
2.89078e+06
2.89078e+06
2.9318e+06
2.9318e+06
2.9318e+06
2.9318e+06
2.94704e+06
2.94704e+06
2.94704e+06
2.94704e+06
2.92589e+06
2.92589e+06
2.92589e+06
2.92589e+06
2.85854e+06
2.85854e+06
2.85854e+06
2.85854e+06
2.73813e+06
2.73813e+06
2.73813e+06
2.73813e+06
2.56285e+06
2.56285e+06
2.56285e+06
2.56285e+06
2.71209e+06
2.71209e+06
2.71209e+06
2.71209e+06
2.76408e+06
2.76408e+06
2.76408e+06
2.76408e+06
2.81435e+06
2.81435e+06
2.81435e+06
2.81435e+06
2.85752e+06
2.85752e+06
2.85752e+06
2.85752e+06
2.88612e+06
2.88612e+06
2.88612e+06
2.88612e+06
2.89087e+06
2.89087e+06
2.89087e+06
2.89087e+06
2.8616e+06
2.8616e+06
2.8616e+06
2.8616e+06
2.78893e+06
2.78893e+06
2.78893e+06
2.78893e+06
2.66636e+06
2.66636e+06
2.66636e+06
2.66636e+06
2.4925e+06
2.4925e+06
2.4925e+06
2.4925e+06
2.70866e+06
2.70866e+06
2.70866e+06
2.70866e+06
2.74892e+06
2.74892e+06
2.74892e+06
2.74892e+06
2.78739e+06
2.78739e+06
2.78739e+06
2.78739e+06
2.81933e+06
2.81933e+06
2.81933e+06
2.81933e+06
2.83787e+06
2.83787e+06
2.83787e+06
2.83787e+06
2.83437e+06
2.83437e+06
2.83437e+06
2.83437e+06
2.79925e+06
2.79925e+06
2.79925e+06
2.79925e+06
2.72365e+06
2.72365e+06
2.72365e+06
2.72365e+06
2.60164e+06
2.60164e+06
2.60164e+06
2.60164e+06
2.43233e+06
2.43233e+06
2.43233e+06
2.43233e+06
2.68665e+06
2.68665e+06
2.68665e+06
2.68665e+06
2.71801e+06
2.71801e+06
2.71801e+06
2.71801e+06
2.74756e+06
2.74756e+06
2.74756e+06
2.74756e+06
2.7711e+06
2.7711e+06
2.7711e+06
2.7711e+06
2.78243e+06
2.78243e+06
2.78243e+06
2.78243e+06
2.77354e+06
2.77354e+06
2.77354e+06
2.77354e+06
2.73552e+06
2.73552e+06
2.73552e+06
2.73552e+06
2.66017e+06
2.66017e+06
2.66017e+06
2.66017e+06
2.5422e+06
2.5422e+06
2.5422e+06
2.5422e+06
2.38134e+06
2.38134e+06
2.38134e+06
2.38134e+06
2.64203e+06
2.64203e+06
2.64203e+06
2.64203e+06
2.66696e+06
2.66696e+06
2.66696e+06
2.66696e+06
2.69035e+06
2.69035e+06
2.69035e+06
2.69035e+06
2.7085e+06
2.7085e+06
2.7085e+06
2.7085e+06
2.71583e+06
2.71583e+06
2.71583e+06
2.71583e+06
2.70499e+06
2.70499e+06
2.70499e+06
2.70499e+06
2.66777e+06
2.66777e+06
2.66777e+06
2.66777e+06
2.59668e+06
2.59668e+06
2.59668e+06
2.59668e+06
2.48712e+06
2.48712e+06
2.48712e+06
2.48712e+06
2.33948e+06
2.33948e+06
2.33948e+06
2.33948e+06
2.57198e+06
2.57198e+06
2.57198e+06
2.57198e+06
2.59232e+06
2.59232e+06
2.59232e+06
2.59232e+06
2.61198e+06
2.61198e+06
2.61198e+06
2.61198e+06
2.62776e+06
2.62776e+06
2.62776e+06
2.62776e+06
2.63463e+06
2.63463e+06
2.63463e+06
2.63463e+06
2.62587e+06
2.62587e+06
2.62587e+06
2.62587e+06
2.59395e+06
2.59395e+06
2.59395e+06
2.59395e+06
2.53207e+06
2.53207e+06
2.53208e+06
2.53208e+06
2.4363e+06
2.4363e+06
2.4363e+06
2.4363e+06
2.30759e+06
2.30759e+06
2.30759e+06
2.30759e+06
2.47484e+06
2.47484e+06
2.47484e+06
2.47484e+06
2.49145e+06
2.49145e+06
2.49145e+06
2.49145e+06
2.50925e+06
2.50925e+06
2.50925e+06
2.50925e+06
2.52554e+06
2.52554e+06
2.52554e+06
2.52554e+06
2.53577e+06
2.53577e+06
2.53577e+06
2.53577e+06
2.53377e+06
2.53377e+06
2.53377e+06
2.53377e+06
2.51257e+06
2.51257e+06
2.51257e+06
2.51257e+06
2.46597e+06
2.46597e+06
2.46597e+06
2.46597e+06
2.3905e+06
2.3905e+06
2.3905e+06
2.3905e+06
2.28738e+06
2.28738e+06
2.28738e+06
2.28738e+06
2.3503e+06
2.3503e+06
2.3503e+06
2.3503e+06
2.36256e+06
2.36256e+06
2.36256e+06
2.36256e+06
2.37946e+06
2.37946e+06
2.37946e+06
2.37946e+06
2.39884e+06
2.39884e+06
2.39884e+06
2.39884e+06
2.41652e+06
2.41652e+06
2.41652e+06
2.41652e+06
2.42669e+06
2.42669e+06
2.42669e+06
2.42669e+06
2.42276e+06
2.42276e+06
2.42276e+06
2.42276e+06
2.3988e+06
2.3988e+06
2.3988e+06
2.3988e+06
2.35142e+06
2.35142e+06
2.35142e+06
2.35142e+06
2.28147e+06
2.28147e+06
2.28147e+06
2.28147e+06
2.19982e+06
2.19982e+06
2.19982e+06
2.19982e+06
2.20486e+06
2.20486e+06
2.20486e+06
2.20486e+06
2.22042e+06
2.22042e+06
2.22042e+06
2.22042e+06
2.24493e+06
2.24493e+06
2.24493e+06
2.24493e+06
2.27442e+06
2.27442e+06
2.27442e+06
2.27442e+06
2.30315e+06
2.30315e+06
2.30315e+06
2.30315e+06
2.32441e+06
2.32441e+06
2.32441e+06
2.32441e+06
2.33198e+06
2.33198e+06
2.33198e+06
2.33198e+06
2.32178e+06
2.32178e+06
2.32178e+06
2.32178e+06
2.29329e+06
2.29329e+06
2.29329e+06
2.29329e+06
2.02744e+06
2.02744e+06
2.02744e+06
2.02744e+06
2.01897e+06
2.01897e+06
2.01897e+06
2.01897e+06
2.03049e+06
2.03049e+06
2.03049e+06
2.03049e+06
2.06129e+06
2.06129e+06
2.06129e+06
2.06129e+06
2.10734e+06
2.10734e+06
2.10734e+06
2.10734e+06
2.16228e+06
2.16228e+06
2.16228e+06
2.16228e+06
2.21843e+06
2.21843e+06
2.21843e+06
2.21843e+06
2.26818e+06
2.26818e+06
2.26818e+06
2.26818e+06
2.30548e+06
2.30548e+06
2.30548e+06
2.30548e+06
2.32707e+06
2.32707e+06
2.32707e+06
2.32707e+06
1.84147e+06
1.84147e+06
1.84147e+06
1.84147e+06
1.80775e+06
1.80775e+06
1.80775e+06
1.80775e+06
1.80885e+06
1.80885e+06
1.80885e+06
1.80885e+06
1.84567e+06
1.84567e+06
1.84567e+06
1.84567e+06
1.91358e+06
1.91358e+06
1.91358e+06