/*--------------------------------*- C++ -*----------------------------------*\
| =========                 |                                                 |
| \\      /  F ield         | OpenFOAM: The Open Source CFD Toolbox           |
|  \\    /   O peration     | Version:  v2012                                 |
|   \\  /    A nd           | Website:  www.openfoam.com                      |
|    \\/     M anipulation  |                                                 |
\*---------------------------------------------------------------------------*/
FoamFile
{
    version     2.0;
    format      ascii;
    class       volVectorField;
    location    "4";
    object      D;
}
// * * * * * * * * * * * * * * * * * * * * * * * * * * * * * * * * * * * * * //

dimensions      [0 1 0 0 0 0 0];


internalField   nonuniform List<vector> 
1000
(
(5.64192e-05 -0.000792831 0)
(5.12988e-05 -0.000819138 0)
(4.7191e-05 -0.000837818 0)
(4.40925e-05 -0.000855236 0)
(4.16031e-05 -0.000868408 0)
(3.96788e-05 -0.000881199 0)
(3.81346e-05 -0.000891667 0)
(3.6884e-05 -0.000902084 0)
(3.5878e-05 -0.000911301 0)
(3.49645e-05 -0.000920549 0)
(0.000168862 -0.000783115 0)
(0.000153864 -0.000807346 0)
(0.000141813 -0.000824407 0)
(0.000132729 -0.000840502 0)
(0.000125423 -0.000852585 0)
(0.000119792 -0.000864412 0)
(0.000115273 -0.00087404 0)
(0.00011164 -0.000883645 0)
(0.00010872 -0.000892127 0)
(0.000106114 -0.000900592 0)
(0.000280357 -0.000764259 0)
(0.000256373 -0.000784502 0)
(0.000237061 -0.000798461 0)
(0.000222456 -0.000812008 0)
(0.000210694 -0.000822004 0)
(0.000201617 -0.000831978 0)
(0.000194328 -0.00084001 0)
(0.000188496 -0.000848068 0)
(0.000183806 -0.00085517 0)
(0.000179713 -0.00086217 0)
(0.000390053 -0.000737026 0)
(0.0003586 -0.000751754 0)
(0.000333168 -0.000761398 0)
(0.000313889 -0.000771396 0)
(0.000298312 -0.000778488 0)
(0.00028631 -0.000785895 0)
(0.000276652 -0.000791731 0)
(0.000269015 -0.000797678 0)
(0.000262859 -0.000802917 0)
(0.000257684 -0.000807961 0)
(0.000497409 -0.000703035 0)
(0.000460233 -0.000711101 0)
(0.00043004 -0.00071555 0)
(0.000407051 -0.000721232 0)
(0.000388414 -0.000724826 0)
(0.000374047 -0.000729125 0)
(0.000362459 -0.00073235 0)
(0.000353383 -0.000735787 0)
(0.000346042 -0.000738867 0)
(0.000340111 -0.000741662 0)
(0.000601553 -0.000663052 0)
(0.00056079 -0.00066393 0)
(0.000527454 -0.000662717 0)
(0.000501994 -0.000663691 0)
(0.000481216 -0.000663458 0)
(0.000465256 -0.000664394 0)
(0.000452291 -0.00066481 0)
(0.00044232 -0.000665602 0)
(0.000434184 -0.000666434 0)
(0.000427945 -0.000666945 0)
(0.000701811 -0.0006196 0)
(0.000659417 -0.000613121 0)
(0.000624515 -0.000606147 0)
(0.000597739 -0.000602273 0)
(0.00057577 -0.000598139 0)
(0.000558891 -0.000595632 0)
(0.000545118 -0.000593222 0)
(0.000534631 -0.000591357 0)
(0.000526026 -0.000590001 0)
(0.000519689 -0.000588298 0)
(0.000797762 -0.000572412 0)
(0.000755832 -0.000559069 0)
(0.000720969 -0.000546616 0)
(0.000694176 -0.000538145 0)
(0.000671945 -0.000530252 0)
(0.000655006 -0.000524519 0)
(0.00064097 -0.000519415 0)
(0.000630581 -0.00051517 0)
(0.000621872 -0.000511817 0)
(0.000615878 -0.000508254 0)
(0.00088806 -0.000524834 0)
(0.000848233 -0.000505307 0)
(0.000814814 -0.000487975 0)
(0.00078901 -0.000475394 0)
(0.000767493 -0.000464149 0)
(0.000751015 -0.000455602 0)
(0.000737398 -0.000448121 0)
(0.000727264 -0.00044187 0)
(0.000718891 -0.000436809 0)
(0.00071315 -0.000431739 0)
(0.000973605 -0.000475152 0)
(0.000937413 -0.000450596 0)
(0.000906669 -0.000429183 0)
(0.000882938 -0.000413164 0)
(0.000862885 -0.000399007 0)
(0.000847709 -0.000388116 0)
(0.000834935 -0.000378471 0)
(0.000825788 -0.000370724 0)
(0.000818039 -0.000363983 0)
(0.000813218 -0.000358242 0)
(0.00105174 -0.000426845 0)
(0.00102027 -0.000398538 0)
(0.000993203 -0.000374131 0)
(0.000972082 -0.000355656 0)
(0.000954349 -0.000339348 0)
(0.000940395 -0.000327009 0)
(0.000929393 -0.000315761 0)
(0.000920345 -0.000307395 0)
(0.00091458 -0.000299398 0)
(0.00090862 -0.000293697 0)
(0.00112486 -0.000377933 0)
(0.00109885 -0.000347206 0)
(0.00107619 -0.000320966 0)
(0.00105842 -0.000300758 0)
(0.00104354 -0.000283193 0)
(0.00103161 -0.000269541 0)
(0.00102259 -0.000257482 0)
(0.00101467 -0.000247933 0)
(0.0010104 -0.000239501 0)
(0.00100484 -0.000232311 0)
(0.00118979 -0.000330273 0)
(0.0011698 -0.000298699 0)
(0.00115195 -0.000271846 0)
(0.00113789 -0.000250939 0)
(0.00112615 -0.000232845 0)
(0.0011165 -0.000218643 0)
(0.00110965 -0.000206177 0)
(0.0011031 -0.000196158 0)
(0.00110042 -0.000187509 0)
(0.00109569 -0.0001798 0)
(0.00124837 -0.00028335 0)
(0.00123441 -0.000252295 0)
(0.00122144 -0.000226053 0)
(0.00121121 -0.00020536 0)
(0.00120263 -0.000187691 0)
(0.00119543 -0.000173527 0)
(0.00119065 -0.000161441 0)
(0.0011857 -0.000151354 0)
(0.00118433 -0.000143138 0)
(0.00118078 -0.000135365 0)
(0.00129856 -0.000237472 0)
(0.00129053 -0.00020847 0)
(0.0012823 -0.000184044 0)
(0.0012759 -0.000164609 0)
(0.00127038 -0.000148151 0)
(0.00126572 -0.000134772 0)
(0.00126287 -0.000123584 0)
(0.00125969 -0.000113995 0)
(0.00125944 -0.000106544 0)
(0.00125731 -9.91092e-05 0)
(0.00134128 -0.000192717 0)
(0.00133861 -0.000166983 0)
(0.00133469 -0.000145405 0)
(0.00133184 -0.000128089 0)
(0.0013291 -0.000113575 0)
(0.00132684 -0.000101612 0)
(0.00132574 -9.18187e-05 0)
(0.00132431 -8.32235e-05 0)
(0.00132503 -7.68258e-05 0)
(0.00132436 -7.01791e-05 0)
(0.00137547 -0.000148759 0)
(0.00137746 -0.000127509 0)
(0.00137727 -0.00010973 0)
(0.00137752 -9.53817e-05 0)
(0.00137717 -8.34319e-05 0)
(0.00137706 -7.34844e-05 0)
(0.00137744 -6.54638e-05 0)
(0.0013776 -5.82897e-05 0)
(0.00137911 -5.31249e-05 0)
(0.0013798 -4.75567e-05 0)
(0.00140147 -0.000105733 0)
(0.00140713 -8.98381e-05 0)
(0.00140988 -7.65761e-05 0)
(0.0014126 -6.58231e-05 0)
(0.00141416 -5.69232e-05 0)
(0.00141578 -4.9458e-05 0)
(0.00141733 -4.35148e-05 0)
(0.0014188 -3.81288e-05 0)
(0.00142095 -3.43483e-05 0)
(0.00142276 -3.01734e-05 0)
(0.00141879 -6.31379e-05 0)
(0.001427 -5.3336e-05 0)
(0.00143179 -4.51618e-05 0)
(0.00143625 -3.85184e-05 0)
(0.00143911 -3.30342e-05 0)
(0.00144195 -2.84121e-05 0)
(0.00144431 -2.47573e-05 0)
(0.00144671 -2.14132e-05 0)
(0.00144928 -1.91019e-05 0)
(0.0014519 -1.65005e-05 0)
(0.00142752 -2.1055e-05 0)
(0.00143704 -1.77276e-05 0)
(0.00144286 -1.49599e-05 0)
(0.00144821 -1.27056e-05 0)
(0.00145175 -1.08517e-05 0)
(0.00145521 -9.28556e-06 0)
(0.00145799 -8.05447e-06 0)
(0.00146087 -6.92471e-06 0)
(0.00146367 -6.15191e-06 0)
(0.0014667 -5.27723e-06 0)
(0.00147237 -4.3534e-06 0)
(0.00145873 -1.35997e-05 0)
(0.00143188 -2.50221e-05 0)
(0.0013922 -3.96471e-05 0)
(0.00134095 -5.88893e-05 0)
(0.00127868 -8.36955e-05 0)
(0.00120737 -0.000115059 0)
(0.00112732 -0.000154039 0)
(0.00104097 -0.000201126 0)
(0.000948255 -0.000256861 0)
(0.00148314 -3.25137e-06 0)
(0.00147093 -1.00993e-05 0)
(0.00144691 -1.89572e-05 0)
(0.00141126 -3.04045e-05 0)
(0.00136524 -4.60289e-05 0)
(0.00130907 -6.59921e-05 0)
(0.00124498 -9.18664e-05 0)
(0.00117304 -0.000122723 0)
(0.00109636 -0.000161228 0)
(0.00101494 -0.000203627 0)
(0.00149616 -2.63655e-06 0)
(0.0014857 -8.01238e-06 0)
(0.00146512 -1.50625e-05 0)
(0.0014345 -2.38705e-05 0)
(0.00139486 -3.6215e-05 0)
(0.00134614 -5.16877e-05 0)
(0.00128997 -7.27482e-05 0)
(0.00122607 -9.74689e-05 0)
(0.00115643 -0.000130111 0)
(0.00108154 -0.000164807 0)
(0.00151157 -2.50396e-06 0)
(0.0015021 -7.41383e-06 0)
(0.00148348 -1.38555e-05 0)
(0.00145579 -2.14059e-05 0)
(0.00141999 -3.20019e-05 0)
(0.00137621 -4.44239e-05 0)
(0.00132591 -6.16111e-05 0)
(0.00126934 -8.06178e-05 0)
(0.00120761 -0.000106808 0)
(0.00114169 -0.000133968 0)
(0.00153002 -2.30523e-06 0)
(0.00152181 -6.67516e-06 0)
(0.00150558 -1.24527e-05 0)
(0.00148144 -1.89218e-05 0)
(0.00144997 -2.81735e-05 0)
(0.00141136 -3.8641e-05 0)
(0.00136634 -5.34788e-05 0)
(0.00131554 -6.93215e-05 0)
(0.00125938 -9.1267e-05 0)
(0.00119956 -0.000113329 0)
(0.00155001 -2.47222e-06 0)
(0.00154253 -7.05518e-06 0)
(0.00152776 -1.28692e-05 0)
(0.0015059 -1.89437e-05 0)
(0.00147741 -2.73139e-05 0)
(0.00144278 -3.62267e-05 0)
(0.0014024 -4.87459e-05 0)
(0.00135728 -6.17313e-05 0)
(0.00130706 -7.9819e-05 0)
(0.00125372 -9.79808e-05 0)
(0.0015733 -2.52351e-06 0)
(0.00156669 -7.18026e-06 0)
(0.00155355 -1.29705e-05 0)
(0.00153413 -1.88885e-05 0)
(0.0015086 -2.68397e-05 0)
(0.00147757 -3.51176e-05 0)
(0.00144103 -4.64043e-05 0)
(0.00140025 -5.78725e-05 0)
(0.00135465 -7.33042e-05 0)
(0.00130642 -8.86612e-05 0)
(0.00159765 -2.75911e-06 0)
(0.00159164 -7.86315e-06 0)
(0.00157965 -1.3922e-05 0)
(0.00156205 -1.99285e-05 0)
(0.00153889 -2.75762e-05 0)
(0.00151095 -3.53402e-05 0)
(0.00147801 -4.55215e-05 0)
(0.00144144 -5.58223e-05 0)
(0.00140037 -6.92466e-05 0)
(0.00135704 -8.26838e-05 0)
(0.00162505 -2.93146e-06 0)
(0.00161964 -8.42067e-06 0)
(0.00160881 -1.47506e-05 0)
(0.00159294 -2.10287e-05 0)
(0.00157194 -2.86878e-05 0)
(0.00154663 -3.6435e-05 0)
(0.00151669 -4.60896e-05 0)
(0.00148351 -5.58354e-05 0)
(0.00144623 -6.79277e-05 0)
(0.001407 -8.00801e-05 0)
(0.00165338 -3.1633e-06 0)
(0.00164845 -9.14791e-06 0)
(0.00163857 -1.58301e-05 0)
(0.00162413 -2.24259e-05 0)
(0.00160505 -3.01393e-05 0)
(0.00158213 -3.79157e-05 0)
(0.00155501 -4.72211e-05 0)
(0.00152504 -5.66472e-05 0)
(0.00149132 -6.79073e-05 0)
(0.00145594 -7.92804e-05 0)
(0.00168426 -3.35818e-06 0)
(0.00167977 -9.79391e-06 0)
(0.00167077 -1.68231e-05 0)
(0.00165763 -2.38099e-05 0)
(0.00164023 -3.17199e-05 0)
(0.00161934 -3.97299e-05 0)
(0.00159464 -4.89434e-05 0)
(0.00156738 -5.83302e-05 0)
(0.00153678 -6.90994e-05 0)
(0.00150471 -8.00825e-05 0)
(0.00171603 -3.54352e-06 0)
(0.00171192 -1.03959e-05 0)
(0.00170371 -1.77466e-05 0)
(0.00169172 -2.50772e-05 0)
(0.00167587 -3.31805e-05 0)
(0.00165688 -4.14138e-05 0)
(0.00163444 -5.06469e-05 0)
(0.00160971 -6.00949e-05 0)
(0.00158199 -7.06739e-05 0)
(0.00155305 -8.14888e-05 0)
(0.00174981 -3.6836e-06 0)
(0.00174606 -1.0872e-05 0)
(0.00173854 -1.84854e-05 0)
(0.00172758 -2.6129e-05 0)
(0.00171311 -3.44349e-05 0)
(0.00169576 -4.29166e-05 0)
(0.00167532 -5.22443e-05 0)
(0.0016528 -6.18299e-05 0)
(0.00162765 -7.23585e-05 0)
(0.00160142 -8.31821e-05 0)
(0.00178437 -3.7727e-06 0)
(0.00178094 -1.11787e-05 0)
(0.00177408 -1.89585e-05 0)
(0.00176407 -2.68041e-05 0)
(0.00175087 -3.52473e-05 0)
(0.00173506 -4.39035e-05 0)
(0.00171648 -5.33304e-05 0)
(0.00169601 -6.30482e-05 0)
(0.00167327 -7.36314e-05 0)
(0.00164948 -8.45262e-05 0)
(0.00182046 -3.78464e-06 0)
(0.00181732 -1.12605e-05 0)
(0.00181104 -1.90668e-05 0)
(0.00180189 -2.69945e-05 0)
(0.00178983 -3.54668e-05 0)
(0.00177541 -4.42206e-05 0)
(0.00175849 -5.36714e-05 0)
(0.00173989 -6.34991e-05 0)
(0.00171927 -7.40922e-05 0)
(0.00169782 -8.51034e-05 0)
(0.00185707 -3.71253e-06 0)
(0.00185421 -1.10749e-05 0)
(0.00184848 -1.8748e-05 0)
(0.00184014 -2.65856e-05 0)
(0.00182916 -3.4957e-05 0)
(0.00181603 -4.36624e-05 0)
(0.00180067 -5.3061e-05 0)
(0.00178379 -6.28888e-05 0)
(0.00176517 -7.34842e-05 0)
(0.00174579 -8.45394e-05 0)
(0.00189473 -3.51005e-06 0)
(0.00189213 -1.05023e-05 0)
(0.00188691 -1.77908e-05 0)
(0.00187931 -2.53027e-05 0)
(0.00186933 -3.33472e-05 0)
(0.00185739 -4.1807e-05 0)
(0.00184345 -5.09653e-05 0)
(0.00182817 -6.06481e-05 0)
(0.00181135 -7.11088e-05 0)
(0.00179392 -8.21173e-05 0)
(0.00193245 -3.18743e-06 0)
(0.00193009 -9.55671e-06 0)
(0.00192537 -1.62274e-05 0)
(0.0019185 -2.31716e-05 0)
(0.00190947 -3.06784e-05 0)
(0.00189869 -3.86746e-05 0)
(0.00188612 -4.7418e-05 0)
(0.00187235 -5.67756e-05 0)
(0.00185724 -6.6967e-05 0)
(0.00184161 -7.78031e-05 0)
(0.00197072 -2.64677e-06 0)
(0.00196859 -7.95531e-06 0)
(0.00196435 -1.35816e-05 0)
(0.00195818 -1.9542e-05 0)
(0.00195007 -2.61146e-05 0)
(0.00194039 -3.32815e-05 0)
(0.0019291 -4.127e-05 0)
(0.00191677 -5.00261e-05 0)
(0.00190326 -5.96934e-05 0)
(0.00188933 -7.02142e-05 0)
(0.00200821 -1.93883e-06 0)
(0.00200633 -5.83836e-06 0)
(0.00200259 -1.00902e-05 0)
(0.00199713 -1.47257e-05 0)
(0.00198997 -2.00506e-05 0)
(0.00198143 -2.60649e-05 0)
(0.00197149 -3.30193e-05 0)
(0.00196064 -4.08834e-05 0)
(0.00194877 -4.98059e-05 0)
(0.00193656 -5.97642e-05 0)
(0.000884759 -0.000296639 0)
(0.000857007 -0.000310963 0)
(0.000830645 -0.000326164 0)
(0.000805387 -0.000340762 0)
(0.000781418 -0.000355608 0)
(0.000758377 -0.000370135 0)
(0.000736374 -0.000384594 0)
(0.00071516 -0.000398765 0)
(0.000694752 -0.000412734 0)
(0.000674866 -0.000426406 0)
(0.000655548 -0.000439811 0)
(0.00063654 -0.000452937 0)
(0.000617802 -0.000465778 0)
(0.000599157 -0.0004784 0)
(0.000580466 -0.000490762 0)
(0.000561639 -0.000503013 0)
(0.000542436 -0.000515067 0)
(0.000522865 -0.000527182 0)
(0.000502564 -0.000539197 0)
(0.00048167 -0.000551529 0)
(0.000960126 -0.000236971 0)
(0.000934829 -0.000250491 0)
(0.00091026 -0.000264747 0)
(0.000885987 -0.000278847 0)
(0.000863569 -0.000292627 0)
(0.000841193 -0.000306572 0)
(0.000819926 -0.000320186 0)
(0.000799081 -0.000333823 0)
(0.000778962 -0.000347158 0)
(0.000759309 -0.000360448 0)
(0.000740166 -0.000373403 0)
(0.000721386 -0.000386306 0)
(0.00070291 -0.000398903 0)
(0.000684646 -0.00041147 0)
(0.000666477 -0.000423785 0)
(0.000648353 -0.000436147 0)
(0.000630112 -0.000448332 0)
(0.000611752 -0.000460709 0)
(0.00059307 -0.000472999 0)
(0.000574129 -0.000485715 0)
(0.00103076 -0.000193324 0)
(0.00100675 -0.000205413 0)
(0.000983824 -0.000218555 0)
(0.000961396 -0.000230935 0)
(0.000939589 -0.000244088 0)
(0.000918582 -0.000256527 0)
(0.000897854 -0.000269559 0)
(0.000878204 -0.000281944 0)
(0.000859043 -0.000294544 0)
(0.000839979 -0.000307032 0)
(0.000821616 -0.000319418 0)
(0.00080353 -0.000331734 0)
(0.000785856 -0.000343921 0)
(0.000768463 -0.000356103 0)
(0.000751308 -0.000368163 0)
(0.000734368 -0.000380325 0)
(0.000717549 -0.000392397 0)
(0.000700863 -0.000404732 0)
(0.000684219 -0.000417029 0)
(0.000667635 -0.000429819 0)
(0.00109608 -0.000157847 0)
(0.00107431 -0.000168623 0)
(0.00105342 -0.000180502 0)
(0.00103259 -0.000191743 0)
(0.00101254 -0.000203709 0)
(0.000992728 -0.000215221 0)
(0.000973549 -0.00022719 0)
(0.000954736 -0.000238846 0)
(0.000936464 -0.000250741 0)
(0.000918606 -0.000262419 0)
(0.000901193 -0.000274252 0)
(0.000884201 -0.000285946 0)
(0.000867597 -0.000297715 0)
(0.000851384 -0.000309456 0)
(0.000835522 -0.000321224 0)
(0.000820009 -0.000333102 0)
(0.000804833 -0.000344989 0)
(0.000789974 -0.000357155 0)
(0.000775469 -0.000369336 0)
(0.000761264 -0.000382015 0)
(0.00115811 -0.000133129 0)
(0.0011382 -0.00014276 0)
(0.00111899 -0.000153376 0)
(0.00109984 -0.00016351 0)
(0.00108121 -0.000174329 0)
(0.0010629 -0.000184821 0)
(0.00104502 -0.000195772 0)
(0.00102757 -0.000206519 0)
(0.00101057 -0.000217554 0)
(0.000993938 -0.000228487 0)
(0.000977805 -0.000239588 0)
(0.000962057 -0.000250678 0)
(0.0009468 -0.000261861 0)
(0.000931955 -0.000273125 0)
(0.000917602 -0.000284441 0)
(0.000903685 -0.000295945 0)
(0.000890292 -0.000307482 0)
(0.000877358 -0.000319342 0)
(0.000865029 -0.000331231 0)
(0.000853186 -0.000343617 0)
(0.00121631 -0.000114576 0)
(0.00119846 -0.00012322 0)
(0.00118106 -0.000132768 0)
(0.00116368 -0.000141962 0)
(0.00114673 -0.000151808 0)
(0.00112996 -0.000161446 0)
(0.00111363 -0.000171527 0)
(0.00109757 -0.000181517 0)
(0.00108197 -0.000191793 0)
(0.00106673 -0.000202062 0)
(0.00105196 -0.000212525 0)
(0.00103761 -0.000223046 0)
(0.00102376 -0.0002337 0)
(0.00101039 -0.000244482 0)
(0.000997571 -0.000255359 0)
(0.000985272 -0.000266448 0)
(0.000973616 -0.000277608 0)
(0.000962524 -0.000289087 0)
(0.000952204 -0.000300617 0)
(0.000942501 -0.000312604 0)
(0.00127252 -0.000102712 0)
(0.00125646 -0.000110583 0)
(0.00124068 -0.00011921 0)
(0.00122494 -0.000127627 0)
(0.00120952 -0.000136614 0)
(0.00119427 -0.000145498 0)
(0.00117939 -0.000154801 0)
(0.00116479 -0.000164084 0)
(0.0011506 -0.000173675 0)
(0.00113677 -0.000183308 0)
(0.0011234 -0.000193166 0)
(0.00111047 -0.000203123 0)
(0.00109806 -0.00021325 0)
(0.00108616 -0.00022353 0)
(0.00107486 -0.00023394 0)
(0.00106416 -0.00024457 0)
(0.00105415 -0.000255296 0)
(0.00104481 -0.000266325 0)
(0.00103634 -0.000277415 0)
(0.00102857 -0.000288917 0)
(0.00132643 -9.48576e-05 0)
(0.00131212 -0.000102131 0)
(0.00129791 -0.000110028 0)
(0.00128378 -0.000117841 0)
(0.00126989 -0.000126141 0)
(0.00125615 -0.000134437 0)
(0.00124273 -0.000143104 0)
(0.00122956 -0.00015183 0)
(0.00121677 -0.000160836 0)
(0.00120433 -0.000169952 0)
(0.00119235 -0.000179277 0)
(0.00118079 -0.000188758 0)
(0.00116978 -0.000198393 0)
(0.00115927 -0.00020823 0)
(0.00114941 -0.000218176 0)
(0.00114013 -0.000228376 0)
(0.00113164 -0.000238646 0)
(0.00112379 -0.000249219 0)
(0.00111691 -0.000259846 0)
(0.00111074 -0.000270835 0)
(0.00137932 -9.08957e-05 0)
(0.00136652 -9.77168e-05 0)
(0.00135372 -0.000105044 0)
(0.00134104 -0.000112376 0)
(0.00132852 -0.000120124 0)
(0.00131617 -0.000127927 0)
(0.00130408 -0.000136069 0)
(0.00129225 -0.000144303 0)
(0.00128077 -0.000152817 0)
(0.00126964 -0.000161448 0)
(0.00125894 -0.000170317 0)
(0.00124867 -0.000179318 0)
(0.00123893 -0.00018853 0)
(0.00122972 -0.000197881 0)
(0.00122112 -0.000207431 0)
(0.00121319 -0.000217121 0)
(0.00120591 -0.000227011 0)
(0.00119951 -0.000237029 0)
(0.00119403 -0.00024715 0)
(0.00118918 -0.000257605 0)
(0.00143094 -8.91868e-05 0)
(0.00141955 -9.56753e-05 0)
(0.00140803 -0.000102571 0)
(0.0013967 -0.000109544 0)
(0.00138545 -0.000116861 0)
(0.00137439 -0.000124288 0)
(0.00136354 -0.000132007 0)
(0.00135295 -0.000139858 0)
(0.00134268 -0.000147957 0)
(0.00133275 -0.000156201 0)
(0.00132322 -0.00016466 0)
(0.00131413 -0.000173273 0)
(0.00130554 -0.000182072 0)
(0.00129747 -0.000191031 0)
(0.00129001 -0.000200151 0)
(0.00128318 -0.000209438 0)
(0.00127707 -0.000218855 0)
(0.00127168 -0.000228462 0)
(0.00126717 -0.000238139 0)
(0.00126344 -0.000248037 0)
(0.00148213 -8.93809e-05 0)
(0.00147192 -9.56306e-05 0)
(0.00146156 -0.000102209 0)
(0.00145137 -0.000108895 0)
(0.00144125 -0.000115884 0)
(0.00143131 -0.000122997 0)
(0.00142157 -0.000130378 0)
(0.00141207 -0.000137898 0)
(0.00140287 -0.000145651 0)
(0.00139399 -0.000153554 0)
(0.0013855 -0.000161658 0)
(0.00137742 -0.000169917 0)
(0.00136982 -0.000178348 0)
(0.00136272 -0.000186937 0)
(0.00135622 -0.000195666 0)
(0.0013503 -0.000204556 0)
(0.00134509 -0.00021355 0)
(0.00134056 -0.000222709 0)
(0.00133691 -0.000231927 0)
(0.00133396 -0.000241318 0)
(0.00153263 -9.04631e-05 0)
(0.00152356 -9.65224e-05 0)
(0.00151412 -0.000102849 0)
(0.001505 -0.000109325 0)
(0.00149584 -0.000116043 0)
(0.00148691 -0.00012292 0)
(0.00147813 -0.000130015 0)
(0.0014696 -0.000137273 0)
(0.00146133 -0.000144729 0)
(0.00145337 -0.000152345 0)
(0.00144577 -0.000160138 0)
(0.00143856 -0.000168086 0)
(0.0014318 -0.000176188 0)
(0.00142551 -0.000184438 0)
(0.00141977 -0.000192813 0)
(0.00141458 -0.00020133 0)
(0.00141007 -0.000209936 0)
(0.00140617 -0.000218677 0)
(0.00140309 -0.000227464 0)
(0.00140068 -0.000236372 0)
(0.00158298 -9.19333e-05 0)
(0.0015747 -9.78685e-05 0)
(0.00156623 -0.000104033 0)
(0.00155793 -0.000110298 0)
(0.00154966 -0.000116811 0)
(0.00154156 -0.000123466 0)
(0.00153362 -0.00013033 0)
(0.00152589 -0.000137347 0)
(0.00151842 -0.000144549 0)
(0.00151122 -0.000151903 0)
(0.00150436 -0.000159421 0)
(0.00149786 -0.000167084 0)
(0.00149178 -0.000174888 0)
(0.00148613 -0.000182825 0)
(0.00148099 -0.000190876 0)
(0.00147635 -0.000199046 0)
(0.00147234 -0.000207296 0)
(0.00146889 -0.000215644 0)
(0.00146619 -0.000224036 0)
(0.0014641 -0.000232499 0)
(0.00163291 -9.32399e-05 0)
(0.00162524 -9.90135e-05 0)
(0.0016176 -0.000104999 0)
(0.00161001 -0.000111129 0)
(0.0016025 -0.000117455 0)
(0.00159511 -0.000123932 0)
(0.00158788 -0.000130592 0)
(0.00158084 -0.000137401 0)
(0.00157404 -0.00014438 0)
(0.00156749 -0.000151499 0)
(0.00156124 -0.000158772 0)
(0.00155531 -0.000166176 0)
(0.00154978 -0.000173713 0)
(0.00154461 -0.000181364 0)
(0.00153993 -0.000189124 0)
(0.00153567 -0.000196976 0)
(0.00153198 -0.000204901 0)
(0.00152879 -0.000212899 0)
(0.00152627 -0.000220932 0)
(0.00152429 -0.000228996 0)
(0.00168279 -9.37495e-05 0)
(0.00167583 -9.94065e-05 0)
(0.0016687 -0.00010525 0)
(0.00166175 -0.000111223 0)
(0.00165479 -0.000117387 0)
(0.00164801 -0.000123681 0)
(0.00164133 -0.000130156 0)
(0.00163486 -0.000136761 0)
(0.00162857 -0.000143533 0)
(0.00162252 -0.000150428 0)
(0.00161676 -0.000157479 0)
(0.00161127 -0.000164638 0)
(0.00160613 -0.000171936 0)
(0.00160132 -0.000179322 0)
(0.00159695 -0.000186824 0)
(0.00159291 -0.000194391 0)
(0.00158944 -0.000202037 0)
(0.00158636 -0.000209714 0)
(0.00158387 -0.00021744 0)
(0.00158184 -0.000225151 0)
(0.0017322 -9.31379e-05 0)
(0.00172571 -9.86584e-05 0)
(0.00171911 -0.000104341 0)
(0.00171264 -0.000110177 0)
(0.00170619 -0.000116158 0)
(0.00169988 -0.000122302 0)
(0.00169369 -0.000128577 0)
(0.00168766 -0.00013502 0)
(0.00168182 -0.00014158 0)
(0.0016762 -0.000148297 0)
(0.00167082 -0.000155113 0)
(0.00166569 -0.000162088 0)
(0.00166088 -0.000169136 0)
(0.00165632 -0.000176325 0)
(0.00165219 -0.000183567 0)
(0.00164829 -0.000190917 0)
(0.0016448 -0.000198321 0)
(0.00164176 -0.000205736 0)
(0.00163914 -0.000213198 0)
(0.00163692 -0.000220617 0)
(0.00178158 -9.0635e-05 0)
(0.0017755 -9.60092e-05 0)
(0.00176929 -0.000101561 0)
(0.00176322 -0.000107231 0)
(0.00175716 -0.000113082 0)
(0.00175126 -0.00011904 0)
(0.00174541 -0.000125187 0)
(0.00173981 -0.000131428 0)
(0.00173424 -0.000137852 0)
(0.00172887 -0.000144412 0)
(0.00172384 -0.000151037 0)
(0.00171896 -0.00015783 0)
(0.00171436 -0.000164683 0)
(0.00171002 -0.000171674 0)
(0.00170595 -0.000178715 0)
(0.00170221 -0.00018585 0)
(0.0016987 -0.00019303 0)
(0.00169554 -0.000200248 0)
(0.00169271 -0.000207484 0)
(0.00169019 -0.000214686 0)
(0.00183041 -8.61722e-05 0)
(0.00182464 -9.14008e-05 0)
(0.00181875 -9.68019e-05 0)
(0.00181301 -0.000102332 0)
(0.00180726 -0.000108035 0)
(0.00180166 -0.000113853 0)
(0.00179618 -0.000119853 0)
(0.00179079 -0.000125952 0)
(0.0017856 -0.000132219 0)
(0.00178052 -0.000138584 0)
(0.00177568 -0.000145104 0)
(0.00177102 -0.0001517 0)
(0.00176659 -0.000158438 0)
(0.00176238 -0.000165235 0)
(0.00175841 -0.000172149 0)
(0.00175466 -0.000179101 0)
(0.00175115 -0.000186134 0)
(0.00174788 -0.000193181 0)
(0.00174483 -0.000200268 0)
(0.00174198 -0.00020731 0)
(0.00187919 -7.83593e-05 0)
(0.00187368 -8.34932e-05 0)
(0.00186805 -8.8759e-05 0)
(0.00186258 -9.4234e-05 0)
(0.00185707 -9.98181e-05 0)
(0.00185175 -0.000105597 0)
(0.00184648 -0.000111501 0)
(0.00184134 -0.000117598 0)
(0.00183634 -0.000123773 0)
(0.00183149 -0.000130129 0)
(0.00182683 -0.000136565 0)
(0.00182235 -0.000143143 0)
(0.00181806 -0.0001498 0)
(0.00181397 -0.000156562 0)
(0.00181006 -0.000163394 0)
(0.00180635 -0.00017029 0)
(0.00180279 -0.000177242 0)
(0.00179941 -0.000184218 0)
(0.00179614 -0.000191225 0)
(0.00179297 -0.000198206 0)
(0.00192746 -6.76313e-05 0)
(0.00192219 -7.26533e-05 0)
(0.0019168 -7.78327e-05 0)
(0.00191158 -8.32505e-05 0)
(0.00190617 -8.87978e-05 0)
(0.00190119 -9.45752e-05 0)
(0.00189641 -0.000100633 0)
(0.00189129 -0.000106649 0)
(0.00188654 -0.000112964 0)
(0.00188184 -0.000119303 0)
(0.00187734 -0.000125859 0)
(0.001873 -0.000132453 0)
(0.00186883 -0.000139204 0)
(0.00186484 -0.000145989 0)
(0.00186102 -0.00015288 0)
(0.00185737 -0.00015979 0)
(0.00185385 -0.000166763 0)
(0.00185047 -0.000173736 0)
(0.00184716 -0.000180737 0)
(0.00184389 -0.000187721 0)
(3.40823e-05 -0.000927094 0)
(3.2951e-05 -0.00093164 0)
(3.19032e-05 -0.000936033 0)
(3.08613e-05 -0.000940481 0)
(2.98582e-05 -0.000944822 0)
(2.88649e-05 -0.000949187 0)
(2.78828e-05 -0.000953479 0)
(2.6905e-05 -0.000957761 0)
(2.59202e-05 -0.000961991 0)
(2.49297e-05 -0.000966172 0)
(2.39184e-05 -0.000970313 0)
(2.28896e-05 -0.00097436 0)
(2.18273e-05 -0.00097837 0)
(2.07354e-05 -0.000982228 0)
(1.95963e-05 -0.000986049 0)
(1.84163e-05 -0.000989647 0)
(1.71718e-05 -0.000993207 0)
(1.58775e-05 -0.000996447 0)
(1.44955e-05 -0.000999654 0)
(1.30587e-05 -0.00100241 0)
(0.000103503 -0.000907008 0)
(0.000100111 -0.000912039 0)
(9.69497e-05 -0.000916935 0)
(9.38335e-05 -0.000921841 0)
(9.08228e-05 -0.00092665 0)
(8.78605e-05 -0.000931444 0)
(8.49262e-05 -0.000936173 0)
(8.20179e-05 -0.000940859 0)
(7.9086e-05 -0.000945498 0)
(7.61456e-05 -0.000950062 0)
(7.31417e-05 -0.000954587 0)
(7.00905e-05 -0.000958998 0)
(6.69382e-05 -0.000963373 0)
(6.36999e-05 -0.000967582 0)
(6.03185e-05 -0.000971754 0)
(5.68155e-05 -0.000975693 0)
(5.31167e-05 -0.000979594 0)
(4.92674e-05 -0.00098317 0)
(4.51509e-05 -0.000986713 0)
(4.08667e-05 -0.000989807 0)
(0.000175354 -0.000868356 0)
(0.000169611 -0.000874302 0)
(0.000164185 -0.000880156 0)
(0.000158916 -0.000885926 0)
(0.000153781 -0.000891629 0)
(0.000148783 -0.000897239 0)
(0.00014381 -0.000902804 0)
(0.000138917 -0.000908261 0)
(0.000133975 -0.000913684 0)
(0.000129044 -0.000918979 0)
(0.000124002 -0.000924244 0)
(0.000118899 -0.000929355 0)
(0.000113626 -0.000934433 0)
(0.000108218 -0.000939317 0)
(0.000102572 -0.000944166 0)
(9.67271e-05 -0.000948763 0)
(9.05537e-05 -0.000953325 0)
(8.41269e-05 -0.000957552 0)
(7.72513e-05 -0.000961751 0)
(7.00868e-05 -0.000965503 0)
(0.000251625 -0.000813868 0)
(0.000243463 -0.000821058 0)
(0.000235609 -0.00082823 0)
(0.000228145 -0.000835175 0)
(0.000220792 -0.000842111 0)
(0.000213748 -0.000848826 0)
(0.000206697 -0.000855538 0)
(0.000199838 -0.000862034 0)
(0.000192892 -0.000868524 0)
(0.000186011 -0.000874801 0)
(0.000178973 -0.000881065 0)
(0.000171877 -0.000887111 0)
(0.000164545 -0.000893133 0)
(0.000157043 -0.000898918 0)
(0.00014921 -0.000904673 0)
(0.000141106 -0.00091015 0)
(0.000132544 -0.000915596 0)
(0.000123629 -0.000920699 0)
(0.000114085 -0.000925777 0)
(0.000104127 -0.000930415 0)
(0.000332309 -0.000747292 0)
(0.000321565 -0.000755928 0)
(0.000310985 -0.000764669 0)
(0.000301178 -0.000772994 0)
(0.00029138 -0.000781411 0)
(0.000282163 -0.000789438 0)
(0.000272876 -0.000797539 0)
(0.000263955 -0.000805283 0)
(0.000254907 -0.000813074 0)
(0.000246021 -0.000820541 0)
(0.000236942 -0.000828026 0)
(0.000227839 -0.00083521 0)
(0.000218452 -0.000842385 0)
(0.000208876 -0.000849268 0)
(0.000198889 -0.000856124 0)
(0.000188569 -0.000862674 0)
(0.000177667 -0.000869192 0)
(0.000166305 -0.000875364 0)
(0.000154132 -0.000881513 0)
(0.0001414 -0.000887248 0)
(0.000418449 -0.000672346 0)
(0.000405045 -0.000682487 0)
(0.000391525 -0.000692896 0)
(0.000379331 -0.000702662 0)
(0.000366988 -0.000712656 0)
(0.000355595 -0.000722046 0)
(0.000344062 -0.00073161 0)
(0.000333115 -0.000740637 0)
(0.000322016 -0.000749776 0)
(0.00031119 -0.000758456 0)
(0.000300157 -0.000767186 0)
(0.000289137 -0.000775528 0)
(0.000277806 -0.000783874 0)
(0.000266273 -0.000791878 0)
(0.000254275 -0.000799857 0)
(0.00024189 -0.000807515 0)
(0.000228832 -0.00081514 0)
(0.000215227 -0.000822436 0)
(0.000200672 -0.000829708 0)
(0.000185438 -0.000836617 0)
(0.000508421 -0.000593536 0)
(0.000492121 -0.000605117 0)
(0.000475306 -0.000617203 0)
(0.000460443 -0.0006284 0)
(0.000445263 -0.000640027 0)
(0.000431423 -0.00065083 0)
(0.00041744 -0.000661944 0)
(0.00040427 -0.000672353 0)
(0.000391026 -0.000682937 0)
(0.00037818 -0.000692943 0)
(0.000365212 -0.000703011 0)
(0.000352316 -0.000712612 0)
(0.000339161 -0.000722197 0)
(0.000325811 -0.000731398 0)
(0.000311993 -0.000740545 0)
(0.00029775 -0.000749361 0)
(0.000282763 -0.000758119 0)
(0.000267142 -0.000766575 0)
(0.000250427 -0.000774996 0)
(0.00023289 -0.000783128 0)
(0.000602967 -0.000513404 0)
(0.000583783 -0.000526191 0)
(0.000563721 -0.000539745 0)
(0.000546201 -0.000552156 0)
(0.000528355 -0.000565179 0)
(0.000512091 -0.000577189 0)
(0.000495826 -0.000589592 0)
(0.000480451 -0.000601189 0)
(0.000465164 -0.000612972 0)
(0.0004503 -0.000624143 0)
(0.00043545 -0.000635347 0)
(0.000420686 -0.000646083 0)
(0.000405755 -0.000656759 0)
(0.000390639 -0.000667069 0)
(0.000375097 -0.000677278 0)
(0.000359125 -0.000687193 0)
(0.000342408 -0.00069701 0)
(0.000325027 -0.000706593 0)
(0.000306513 -0.000716118 0)
(0.000287116 -0.000725472 0)
(0.000698581 -0.000436861 0)
(0.000675865 -0.000450694 0)
(0.000652303 -0.000465606 0)
(0.000631404 -0.000479276 0)
(0.000610635 -0.000493656 0)
(0.00059147 -0.000507016 0)
(0.000572816 -0.000520687 0)
(0.000555084 -0.000533583 0)
(0.000537846 -0.00054651 0)
(0.000521081 -0.000558854 0)
(0.000504598 -0.00057108 0)
(0.000488258 -0.000582863 0)
(0.000471907 -0.000594471 0)
(0.000455416 -0.000605743 0)
(0.000438578 -0.000616839 0)
(0.000421333 -0.000627693 0)
(0.000403364 -0.000638406 0)
(0.000384723 -0.000648972 0)
(0.00036492 -0.000659461 0)
(0.000344186 -0.000669914 0)
(0.000797684 -0.000362932 0)
(0.000772021 -0.000376995 0)
(0.000746026 -0.00039214 0)
(0.000721898 -0.000406432 0)
(0.000698632 -0.000421322 0)
(0.000676444 -0.000435634 0)
(0.00065528 -0.00045011 0)
(0.000634907 -0.000464152 0)
(0.000615353 -0.000478097 0)
(0.000596367 -0.00049166 0)
(0.000577907 -0.000504984 0)
(0.000559753 -0.000517959 0)
(0.000541777 -0.00053064 0)
(0.000523819 -0.00054302 0)
(0.000505655 -0.000555115 0)
(0.000487203 -0.000566992 0)
(0.000468127 -0.000578642 0)
(0.000448453 -0.00059021 0)
(0.000427689 -0.00060165 0)
(0.000406031 -0.000613215 0)
)
;

boundaryField
{
    back
    {
        type            empty;
    }
    left
    {
        type            symmetry;
    }
    hole
    {
        type            calculated;
        value           nonuniform List<vector> 
20
(
(5.99159e-05 -0.000777868 -3.94261e-21)
(0.0001791 -0.000769518 0)
(0.000296657 -0.000753265 -4.85516e-21)
(0.000411326 -0.000729611 -1.65245e-22)
(0.000522385 -0.000699881 7.96871e-22)
(0.000628744 -0.000664446 2.39609e-21)
(0.000729889 -0.000625559 -1.17485e-20)
(0.000825318 -0.00058257 -1.80019e-21)
(0.000914088 -0.000538694 8.69853e-21)
(0.000997111 -0.000491973 4.80305e-21)
(0.00107211 -0.000445789 -1.50239e-23)
(0.00114168 -0.000398227 3.42131e-22)
(0.00120274 -0.000350869 -4.19706e-21)
(0.00125748 -0.000303433 3.77619e-21)
(0.00130394 -0.000256095 -4.75957e-21)
(0.00134329 -0.000209151 9.67819e-22)
(0.00137458 -0.000162282 -1.06392e-21)
(0.0013983 -0.000115817 -3.01856e-21)