/*--------------------------------*- C++ -*----------------------------------*\
| =========                 |                                                 |
| \\      /  F ield         | OpenFOAM: The Open Source CFD Toolbox           |
|  \\    /   O peration     | Version:  v2012                                 |
|   \\  /    A nd           | Website:  www.openfoam.com                      |
|    \\/     M anipulation  |                                                 |
\*---------------------------------------------------------------------------*/
FoamFile
{
    version     2.0;
    format      ascii;
    class       volVectorField;
    location    "4";
    object      D_0;
}
// * * * * * * * * * * * * * * * * * * * * * * * * * * * * * * * * * * * * * //

dimensions      [0 1 0 0 0 0 0];


internalField   nonuniform List<vector> 
1000
(
(5.35973e-05 -0.000753186 0)
(4.87332e-05 -0.000778172 0)
(4.48327e-05 -0.000795927 0)
(4.18887e-05 -0.000812464 0)
(3.95255e-05 -0.000824988 0)
(3.76972e-05 -0.000837129 0)
(3.62315e-05 -0.000847083 0)
(3.50436e-05 -0.00085697 0)
(3.40887e-05 -0.000865735 0)
(3.32216e-05 -0.000874513 0)
(0.00016042 -0.000743959 0)
(0.000146169 -0.000766972 0)
(0.000134723 -0.000783189 0)
(0.000126089 -0.000798468 0)
(0.000119151 -0.000809958 0)
(0.000113798 -0.000821183 0)
(0.000109506 -0.00083034 0)
(0.000106053 -0.000839455 0)
(0.00010328 -0.000847521 0)
(0.000100803 -0.000855557 0)
(0.000266338 -0.000726039 0)
(0.000243552 -0.000745266 0)
(0.000225211 -0.000758536 0)
(0.000211332 -0.000771395 0)
(0.000200165 -0.000780902 0)
(0.000191537 -0.000790367 0)
(0.000184617 -0.000798007 0)
(0.000179075 -0.000805654 0)
(0.000174621 -0.000812408 0)
(0.000170732 -0.000819052 0)
(0.000370551 -0.000700179 0)
(0.000340664 -0.000714164 0)
(0.000316511 -0.000723335 0)
(0.000298187 -0.000732822 0)
(0.000283396 -0.00073957 0)
(0.000271986 -0.000746597 0)
(0.000262817 -0.00075215 0)
(0.000255556 -0.000757792 0)
(0.000249712 -0.000762774 0)
(0.000244792 -0.000767563 0)
(0.00047254 -0.000667872 0)
(0.000437219 -0.00067553 0)
(0.000408545 -0.000679766 0)
(0.000386697 -0.000685154 0)
(0.000369002 -0.000688578 0)
(0.000355346 -0.000692655 0)
(0.000344345 -0.000695725 0)
(0.000335717 -0.000698986 0)
(0.00032875 -0.000701915 0)
(0.000323109 -0.00070457 0)
(0.000571472 -0.000629911 0)
(0.000532739 -0.000630738 0)
(0.00050108 -0.000629594 0)
(0.00047688 -0.000630509 0)
(0.000457153 -0.000630297 0)
(0.000441979 -0.000631178 0)
(0.000429674 -0.000631578 0)
(0.000420191 -0.000632329 0)
(0.000412471 -0.000633119 0)
(0.000406535 -0.000633607 0)
(0.000666727 -0.000588603 0)
(0.000626448 -0.000582443 0)
(0.000593303 -0.000575826 0)
(0.000567853 -0.000572139 0)
(0.000546997 -0.000568218 0)
(0.000530949 -0.000565833 0)
(0.000517878 -0.000563545 0)
(0.000507904 -0.000561775 0)
(0.000499741 -0.000560481 0)
(0.000493711 -0.000558872 0)
(0.000757864 -0.000543808 0)
(0.000718021 -0.000531124 0)
(0.000684914 -0.000519303 0)
(0.000659444 -0.000511246 0)
(0.000638344 -0.000503755 0)
(0.000622233 -0.000498303 0)
(0.000608917 -0.000493457 0)
(0.000599032 -0.000489426 0)
(0.000590773 -0.000486235 0)
(0.000585067 -0.000482861 0)
(0.000843672 -0.000498574 0)
(0.000805828 -0.000480018 0)
(0.000774093 -0.000463562 0)
(0.000749564 -0.0004516 0)
(0.000729138 -0.000440925 0)
(0.00071347 -0.000432799 0)
(0.000700548 -0.000425694 0)
(0.000690909 -0.000419757 0)
(0.000682967 -0.00041494 0)
(0.000677504 -0.000410135 0)
(0.000924908 -0.000451408 0)
(0.000890518 -0.000428072 0)
(0.000861326 -0.000407742 0)
(0.000838763 -0.00039251 0)
(0.000819732 -0.000379074 0)
(0.000805296 -0.000368717 0)
(0.000793179 -0.000359561 0)
(0.000784473 -0.000352199 0)
(0.000777125 -0.000345793 0)
(0.000772538 -0.000340347 0)
(0.000999166 -0.000405494 0)
(0.000969263 -0.000378593 0)
(0.000943558 -0.00035542 0)
(0.000923484 -0.000337852 0)
(0.000906643 -0.000322378 0)
(0.000893383 -0.000310637 0)
(0.000882926 -0.00029997 0)
(0.00087434 -0.000292005 0)
(0.000868841 -0.000284421 0)
(0.000863201 -0.000278989 0)
(0.0010686 -0.000359041 0)
(0.00104389 -0.000329844 0)
(0.00102237 -0.000304929 0)
(0.00100548 -0.000285716 0)
(0.000991352 -0.000269045 0)
(0.000980023 -0.000256061 0)
(0.000971448 -0.000244615 0)
(0.000963935 -0.000235535 0)
(0.000959859 -0.000227527 0)
(0.000954606 -0.000220695 0)
(0.00113031 -0.000313757 0)
(0.00111132 -0.000283752 0)
(0.00109436 -0.000258254 0)
(0.001081 -0.000238378 0)
(0.00106984 -0.000221203 0)
(0.00106068 -0.000207698 0)
(0.00105415 -0.000195867 0)
(0.00104796 -0.000186342 0)
(0.00104538 -0.00017813 0)
(0.00104093 -0.000170808 0)
(0.00118594 -0.000269183 0)
(0.00117268 -0.000239676 0)
(0.00116036 -0.000214757 0)
(0.00115064 -0.000195089 0)
(0.00114249 -0.000178314 0)
(0.00113566 -0.000164851 0)
(0.0011311 -0.000153374 0)
(0.00112642 -0.000143792 0)
(0.00112508 -0.000135984 0)
(0.00112175 -0.000128607 0)
(0.00123364 -0.000225599 0)
(0.001226 -0.000198043 0)
(0.00121818 -0.000174844 0)
(0.00121211 -0.000156373 0)
(0.00120685 -0.000140745 0)
(0.00120244 -0.000128032 0)
(0.00119971 -0.000117404 0)
(0.00119672 -0.000108301 0)
(0.00119645 -0.000101215 0)
(0.00119446 -9.41665e-05 0)
(0.00127421 -0.00018308 0)
(0.00127167 -0.000158631 0)
(0.00126795 -0.000138137 0)
(0.00126524 -0.000121684 0)
(0.00126263 -0.000107899 0)
(0.0012605 -9.65359e-05 0)
(0.00125943 -8.72283e-05 0)
(0.0012581 -7.90731e-05 0)
(0.00125875 -7.29837e-05 0)
(0.00125815 -6.66852e-05 0)
(0.00130669 -0.000141323 0)
(0.00130858 -0.000121134 0)
(0.0013084 -0.000104245 0)
(0.00130864 -9.06136e-05 0)
(0.00130831 -7.92609e-05 0)
(0.00130821 -6.9815e-05 0)
(0.00130856 -6.21894e-05 0)
(0.00130873 -5.53859e-05 0)
(0.00131015 -5.04671e-05 0)
(0.00131082 -4.51948e-05 0)
(0.00133139 -0.000100444 0)
(0.00133677 -8.53447e-05 0)
(0.00133937 -7.27469e-05 0)
(0.00134197 -6.25329e-05 0)
(0.00134344 -5.40765e-05 0)
(0.00134499 -4.69896e-05 0)
(0.00134646 -4.13372e-05 0)
(0.00134786 -3.62309e-05 0)
(0.00134989 -3.2628e-05 0)
(0.00135163 -2.86758e-05 0)
(0.00134784 -5.99835e-05 0)
(0.00135565 -5.0671e-05 0)
(0.00136019 -4.29054e-05 0)
(0.00136443 -3.65947e-05 0)
(0.00136715 -3.13832e-05 0)
(0.00136985 -2.69957e-05 0)
(0.00137209 -2.35191e-05 0)
(0.00137437 -2.03497e-05 0)
(0.00137682 -1.81465e-05 0)
(0.0013793 -1.56853e-05 0)
(0.00135614 -1.99998e-05 0)
(0.00136518 -1.68395e-05 0)
(0.00137071 -1.42105e-05 0)
(0.00137579 -1.20697e-05 0)
(0.00137915 -1.0308e-05 0)
(0.00138245 -8.82159e-06 0)
(0.00138509 -7.65028e-06 0)
(0.00138782 -6.57944e-06 0)
(0.00139048 -5.84236e-06 0)
(0.00139336 -5.01442e-06 0)
(0.00139875 -4.13137e-06 0)
(0.00138579 -1.29162e-05 0)
(0.00136027 -2.37621e-05 0)
(0.00132257 -3.76606e-05 0)
(0.00127386 -5.59437e-05 0)
(0.0012147 -7.95182e-05 0)
(0.00114694 -0.000109322 0)
(0.0010709 -0.000146358 0)
(0.000988869 -0.000191085 0)
(0.000900801 -0.000244043 0)
(0.00140898 -3.08513e-06 0)
(0.00139739 -9.59837e-06 0)
(0.00137457 -1.8004e-05 0)
(0.00134073 -2.88836e-05 0)
(0.00129701 -4.3713e-05 0)
(0.00124367 -6.26832e-05 0)
(0.00118278 -8.72473e-05 0)
(0.00111445 -0.000116583 0)
(0.00104159 -0.000153142 0)
(0.000964219 -0.000193474 0)
(0.00142134 -2.50065e-06 0)
(0.0014114 -7.62065e-06 0)
(0.00139185 -1.43101e-05 0)
(0.00136275 -2.2693e-05 0)
(0.00132507 -3.44089e-05 0)
(0.00127879 -4.91254e-05 0)
(0.00122542 -6.91078e-05 0)
(0.00116472 -9.26145e-05 0)
(0.00109857 -0.000123576 0)
(0.00102744 -0.00015658 0)
(0.001436 -2.37011e-06 0)
(0.00142701 -7.04558e-06 0)
(0.00140932 -1.31468e-05 0)
(0.00138303 -2.03348e-05 0)
(0.00134903 -3.03797e-05 0)
(0.00130745 -4.22076e-05 0)
(0.00125966 -5.85081e-05 0)
(0.00120591 -7.6611e-05 0)
(0.00114726 -0.000101449 0)
(0.00108462 -0.000127312 0)
(0.00145351 -2.18364e-06 0)
(0.0014457 -6.35489e-06 0)
(0.00143028 -1.18281e-05 0)
(0.00140734 -1.79952e-05 0)
(0.00137744 -2.67594e-05 0)
(0.00134075 -3.6729e-05 0)
(0.00129799 -5.07851e-05 0)
(0.00124973 -6.58705e-05 0)
(0.00119639 -8.66678e-05 0)
(0.00113956 -0.000107673 0)
(0.00147252 -2.33827e-06 0)
(0.00146542 -6.70792e-06 0)
(0.00145139 -1.22099e-05 0)
(0.00143063 -1.80027e-05 0)
(0.00140356 -2.59305e-05 0)
(0.00137067 -3.44304e-05 0)
(0.00133231 -4.62939e-05 0)
(0.00128943 -5.86719e-05 0)
(0.00124173 -7.58165e-05 0)
(0.00119104 -9.31127e-05 0)
(0.00149462 -2.38945e-06 0)
(0.00148834 -6.83365e-06 0)
(0.00147585 -1.23157e-05 0)
(0.0014574 -1.79592e-05 0)
(0.00143315 -2.54868e-05 0)
(0.00140366 -3.33752e-05 0)
(0.00136896 -4.4064e-05 0)
(0.00133021 -5.49884e-05 0)
(0.00128691 -6.96136e-05 0)
(0.00124108 -8.42346e-05 0)
(0.00151779 -2.61178e-06 0)
(0.00151207 -7.47743e-06 0)
(0.00150069 -1.32142e-05 0)
(0.00148396 -1.89415e-05 0)
(0.00146197 -2.61864e-05 0)
(0.00143542 -3.35884e-05 0)
(0.00140413 -4.32375e-05 0)
(0.00136938 -5.3051e-05 0)
(0.00133037 -6.5779e-05 0)
(0.00128919 -7.85688e-05 0)
(0.00154378 -2.77734e-06 0)
(0.00153864 -8.0089e-06 0)
(0.00152836 -1.40056e-05 0)
(0.00151327 -1.99869e-05 0)
(0.00149333 -2.72429e-05 0)
(0.00146928 -3.46209e-05 0)
(0.00144084 -4.3771e-05 0)
(0.00140932 -5.30485e-05 0)
(0.00137392 -6.45166e-05 0)
(0.00133664 -7.6079e-05 0)
(0.00157073 -2.9979e-06 0)
(0.00156604 -8.6976e-06 0)
(0.00155666 -1.50312e-05 0)
(0.00154294 -2.13132e-05 0)
(0.00152481 -2.86263e-05 0)
(0.00150303 -3.60311e-05 0)
(0.00147727 -4.48563e-05 0)
(0.00144879 -5.38272e-05 0)
(0.00141677 -6.45101e-05 0)
(0.00138314 -7.53274e-05 0)
(0.00160003 -3.18423e-06 0)
(0.00159576 -9.31048e-06 0)
(0.00158722 -1.59755e-05 0)
(0.00157473 -2.26251e-05 0)
(0.00155821 -3.01262e-05 0)
(0.00153836 -3.77476e-05 0)
(0.00151491 -4.64876e-05 0)
(0.001489 -5.54162e-05 0)
(0.00145994 -6.56366e-05 0)
(0.00142946 -7.60796e-05 0)
(0.00163023 -3.36124e-06 0)
(0.00162634 -9.88165e-06 0)
(0.00161853 -1.68548e-05 0)
(0.00160714 -2.38298e-05 0)
(0.00159209 -3.15182e-05 0)
(0.00157403 -3.93502e-05 0)
(0.00155273 -4.81128e-05 0)
(0.00152923 -5.7097e-05 0)
(0.0015029 -6.71396e-05 0)
(0.0014754 -7.742e-05 0)
(0.00166231 -3.49509e-06 0)
(0.00165874 -1.03325e-05 0)
(0.00165161 -1.75565e-05 0)
(0.00164119 -2.48261e-05 0)
(0.00162744 -3.27081e-05 0)
(0.00161096 -4.07735e-05 0)
(0.00159155 -4.96271e-05 0)
(0.00157015 -5.87403e-05 0)
(0.00154627 -6.87361e-05 0)
(0.00152134 -7.90244e-05 0)
(0.00169516 -3.58057e-06 0)
(0.0016919 -1.06236e-05 0)
(0.00168538 -1.80076e-05 0)
(0.00167587 -2.54682e-05 0)
(0.00166333 -3.34827e-05 0)
(0.00164831 -4.17128e-05 0)
(0.00163066 -5.06623e-05 0)
(0.00161121 -5.98999e-05 0)
(0.00158961 -6.99489e-05 0)
(0.001567 -8.0303e-05 0)
(0.00172943 -3.59254e-06 0)
(0.00172645 -1.07003e-05 0)
(0.00172049 -1.81106e-05 0)
(0.00171179 -2.56473e-05 0)
(0.00170034 -3.36907e-05 0)
(0.00168663 -4.20117e-05 0)
(0.00167056 -5.09855e-05 0)
(0.00165289 -6.03259e-05 0)
(0.00163331 -7.0386e-05 0)
(0.00161292 -8.08495e-05 0)
(0.00176422 -3.52452e-06 0)
(0.0017615 -1.05237e-05 0)
(0.00175606 -1.78083e-05 0)
(0.00174813 -2.52588e-05 0)
(0.00173771 -3.32072e-05 0)
(0.00172523 -4.14814e-05 0)
(0.00171064 -5.04063e-05 0)
(0.0016946 -5.9746e-05 0)
(0.00167692 -6.98086e-05 0)
(0.0016585 -8.03132e-05 0)
(0.00179999 -3.3327e-06 0)
(0.00179751 -9.97926e-06 0)
(0.00179256 -1.68997e-05 0)
(0.00178534 -2.40397e-05 0)
(0.00177586 -3.16787e-05 0)
(0.00176452 -3.97187e-05 0)
(0.00175128 -4.84165e-05 0)
(0.00173676 -5.76176e-05 0)
(0.00172079 -6.75533e-05 0)
(0.00170422 -7.80132e-05 0)
(0.00183583 -3.02627e-06 0)
(0.00183358 -9.08039e-06 0)
(0.00182911 -1.54141e-05 0)
(0.00182257 -2.20142e-05 0)
(0.001814 -2.91424e-05 0)
(0.00180376 -3.67416e-05 0)
(0.00179182 -4.5045e-05 0)
(0.00177873 -5.39371e-05 0)
(0.00176438 -6.36167e-05 0)
(0.00174952 -7.39128e-05 0)
(0.00187218 -2.51294e-06 0)
(0.00187016 -7.55932e-06 0)
(0.00186614 -1.29014e-05 0)
(0.00186026 -1.85668e-05 0)
(0.00185256 -2.48083e-05 0)
(0.00184336 -3.16193e-05 0)
(0.00183265 -3.92065e-05 0)
(0.00182093 -4.75263e-05 0)
(0.0018081 -5.67094e-05 0)
(0.00179486 -6.67044e-05 0)
(0.0019078 -1.8401e-06 0)
(0.00190602 -5.54801e-06 0)
(0.00190246 -9.5838e-06 0)
(0.00189727 -1.39906e-05 0)
(0.00189047 -1.90462e-05 0)
(0.00188236 -2.47624e-05 0)
(0.00187292 -3.13665e-05 0)
(0.0018626 -3.88393e-05 0)
(0.00185134 -4.73141e-05 0)
(0.00183973 -5.67755e-05 0)
(0.000840527 -0.000281793 0)
(0.000814155 -0.000295414 0)
(0.000789121 -0.000309844 0)
(0.000765122 -0.00032372 0)
(0.000742356 -0.000337816 0)
(0.000720467 -0.00035162 0)
(0.000699565 -0.000365351 0)
(0.000679413 -0.000378815 0)
(0.000660026 -0.000392082 0)
(0.000641136 -0.000405071 0)
(0.000622784 -0.000417802 0)
(0.000604727 -0.000430273 0)
(0.000586926 -0.00044247 0)
(0.000569213 -0.000454461 0)
(0.000551457 -0.000466203 0)
(0.000533571 -0.000477842 0)
(0.000515328 -0.000489292 0)
(0.000496734 -0.000500802 0)
(0.000477447 -0.000512217 0)
(0.000457596 -0.000523932 0)
(0.00091213 -0.000225133 0)
(0.000888092 -0.000237986 0)
(0.000864743 -0.000251525 0)
(0.000841685 -0.000264924 0)
(0.000820378 -0.000278014 0)
(0.000799122 -0.000291264 0)
(0.000778913 -0.000304196 0)
(0.000759111 -0.000317153 0)
(0.000739997 -0.000329822 0)
(0.000721326 -0.000342448 0)
(0.000703141 -0.000354757 0)
(0.000685299 -0.000367015 0)
(0.000667748 -0.000378983 0)
(0.000650398 -0.00039092 0)
(0.000633139 -0.000402621 0)
(0.000615921 -0.000414363 0)
(0.000598593 -0.000425939 0)
(0.000581152 -0.000437696 0)
(0.000563406 -0.000449373 0)
(0.000545413 -0.000461452 0)
(0.00097921 -0.000183637 0)
(0.000956413 -0.000195136 0)
(0.00093463 -0.000207607 0)
(0.000913328 -0.000219382 0)
(0.000892613 -0.000231865 0)
(0.000872657 -0.000243693 0)
(0.000852967 -0.000256065 0)
(0.000834301 -0.000267839 0)
(0.0008161 -0.0002798 0)
(0.000797989 -0.000291672 0)
(0.000780545 -0.000303434 0)
(0.000763363 -0.000315138 0)
(0.000746573 -0.000326713 0)
(0.000730048 -0.000338288 0)
(0.000713751 -0.000349744 0)
(0.000697657 -0.000361299 0)
(0.000681678 -0.000372768 0)
(0.000665825 -0.000384486 0)
(0.000650013 -0.000396169 0)
(0.000634257 -0.000408319 0)
(0.00104128 -0.000149964 0)
(0.00102061 -0.000160217 0)
(0.00100075 -0.000171488 0)
(0.000980968 -0.00018218 0)
(0.000961904 -0.000193536 0)
(0.000943091 -0.000204482 0)
(0.000924864 -0.000215844 0)
(0.000906995 -0.000226925 0)
(0.000889631 -0.000238219 0)
(0.000872668 -0.000249317 0)
(0.000856123 -0.000260555 0)
(0.000839982 -0.000271666 0)
(0.000824208 -0.000282844 0)
(0.000808805 -0.000294 0)
(0.000793736 -0.000305178 0)
(0.000779 -0.000316462 0)
(0.000764583 -0.000327754 0)
(0.000750468 -0.000339312 0)
(0.000736689 -0.000350883 0)
(0.000723194 -0.000362928 0)
(0.00110019 -0.000126457 0)
(0.00108128 -0.000135619 0)
(0.00106303 -0.000145691 0)
(0.00104484 -0.000155331 0)
(0.00102715 -0.000165597 0)
(0.00100975 -0.000175575 0)
(0.000992771 -0.00018597 0)
(0.00097619 -0.000196187 0)
(0.000960041 -0.000206664 0)
(0.000944245 -0.000217056 0)
(0.000928918 -0.000227598 0)
(0.000913958 -0.000238138 0)
(0.000899463 -0.000248759 0)
(0.000885361 -0.000259463 0)
(0.000871725 -0.000270212 0)
(0.000858504 -0.000281141 0)
(0.000845779 -0.000292102 0)
(0.000833492 -0.000303369 0)
(0.000821778 -0.000314665 0)
(0.000810527 -0.000326431 0)
(0.0011555 -0.000108855 0)
(0.00113854 -0.000117079 0)
(0.00112201 -0.000126139 0)
(0.0011055 -0.000134884 0)
(0.0010894 -0.000144227 0)
(0.00107346 -0.000153391 0)
(0.00105794 -0.000162961 0)
(0.00104269 -0.000172457 0)
(0.00102787 -0.000182214 0)
(0.00101339 -0.000191974 0)
(0.000999353 -0.00020191 0)
(0.000985723 -0.000211907 0)
(0.000972568 -0.000222026 0)
(0.000959864 -0.00023227 0)
(0.000947687 -0.000242602 0)
(0.000936004 -0.000253137 0)
(0.00092493 -0.000263738 0)
(0.000914394 -0.000274642 0)
(0.00090459 -0.000285597 0)
(0.000895372 -0.000296984 0)
(0.00120889 -9.75655e-05 0)
(0.00119363 -0.000105052 0)
(0.00117864 -0.000113238 0)
(0.00116369 -0.000121243 0)
(0.00114904 -0.000129773 0)
(0.00113456 -0.00013822 0)
(0.00112042 -0.000147052 0)
(0.00110655 -0.000155877 0)
(0.00109307 -0.000164983 0)
(0.00107993 -0.000174138 0)
(0.00106723 -0.000183501 0)
(0.00105494 -0.000192963 0)
(0.00104315 -0.000202582 0)
(0.00103185 -0.00021235 0)
(0.00102112 -0.000222238 0)
(0.00101095 -0.000232337 0)
(0.00100144 -0.000242527 0)
(0.000992568 -0.000253005 0)
(0.000984522 -0.000263541 0)
(0.000977138 -0.000274468 0)
(0.00126011 -9.01207e-05 0)
(0.00124652 -9.70374e-05 0)
(0.00123301 -0.000104533 0)
(0.0012196 -0.000111962 0)
(0.00120639 -0.000119841 0)
(0.00119334 -0.000127727 0)
(0.00118059 -0.000135956 0)
(0.00116808 -0.000144249 0)
(0.00115593 -0.000152802 0)
(0.00114412 -0.000161464 0)
(0.00113273 -0.000170321 0)
(0.00112175 -0.000179329 0)
(0.00111129 -0.000188481 0)
(0.00110131 -0.000197827 0)
(0.00109194 -0.000207274 0)
(0.00108312 -0.000216964 0)
(0.00107506 -0.00022672 0)
(0.0010676 -0.000236765 0)
(0.00106106 -0.00024686 0)
(0.00105521 -0.0002573 0)
(0.00131035 -8.63444e-05 0)
(0.00129819 -9.28294e-05 0)
(0.00128603 -9.97855e-05 0)
(0.00127398 -0.000106756 0)
(0.00126209 -0.000114112 0)
(0.00125036 -0.000121528 0)
(0.00123888 -0.00012926 0)
(0.00122764 -0.000137085 0)
(0.00121673 -0.000145172 0)
(0.00120615 -0.000153373 0)
(0.00119599 -0.000161797 0)
(0.00118624 -0.00017035 0)
(0.00117698 -0.0001791 0)
(0.00116824 -0.000187985 0)
(0.00116006 -0.000197057 0)
(0.00115253 -0.000206263 0)
(0.00114561 -0.000215658 0)
(0.00113953 -0.000225175 0)
(0.00113432 -0.000234791 0)
(0.00112971 -0.000244723 0)
(0.0013594 -8.47314e-05 0)
(0.00134857 -9.0899e-05 0)
(0.00133764 -9.74465e-05 0)
(0.00132687 -0.000104074 0)
(0.00131617 -0.000111023 0)
(0.00130567 -0.000118081 0)
(0.00129536 -0.000125411 0)
(0.0012853 -0.000132871 0)
(0.00127554 -0.000140563 0)
(0.00126611 -0.000148397 0)
(0.00125706 -0.000156432 0)
(0.00124842 -0.000164615 0)
(0.00124026 -0.000172973 0)
(0.0012326 -0.000181484 0)
(0.00122551 -0.000190148 0)
(0.00121902 -0.00019897 0)
(0.00121321 -0.000207916 0)
(0.0012081 -0.000217043 0)
(0.00120381 -0.000226236 0)
(0.00120027 -0.000235639 0)
(0.00140802 -8.49086e-05 0)
(0.00139832 -9.08481e-05 0)
(0.00138848 -9.70952e-05 0)
(0.0013788 -0.000103449 0)
(0.00136919 -0.000110087 0)
(0.00135974 -0.000116846 0)
(0.00135049 -0.000123857 0)
(0.00134147 -0.000131002 0)
(0.00133272 -0.000138366 0)
(0.00132429 -0.000145875 0)
(0.00131622 -0.000153573 0)
(0.00130854 -0.00016142 0)
(0.00130133 -0.000169429 0)
(0.00129459 -0.000177589 0)
(0.0012884 -0.000185881 0)
(0.00128278 -0.000194327 0)
(0.00127783 -0.000202872 0)
(0.00127353 -0.000211573 0)
(0.00127006 -0.00022033 0)
(0.00126726 -0.000229251 0)
(0.001456 -8.59422e-05 0)
(0.00144738 -9.17e-05 0)
(0.00143842 -9.77087e-05 0)
(0.00142975 -0.000103863 0)
(0.00142105 -0.000110243 0)
(0.00141257 -0.000116777 0)
(0.00140422 -0.000123517 0)
(0.00139612 -0.000130413 0)
(0.00138826 -0.000137495 0)
(0.0013807 -0.000144731 0)
(0.00137348 -0.000152133 0)
(0.00136663 -0.000159685 0)
(0.00136021 -0.00016738 0)
(0.00135423 -0.000175219 0)
(0.00134878 -0.000183174 0)
(0.00134385 -0.000191266 0)
(0.00133956 -0.000199441 0)
(0.00133586 -0.000207745 0)
(0.00133293 -0.000216093 0)
(0.00133065 -0.000224555 0)
(0.00150383 -8.73355e-05 0)
(0.00149596 -9.29749e-05 0)
(0.00148791 -9.88302e-05 0)
(0.00148003 -0.000104783 0)
(0.00147217 -0.00011097 0)
(0.00146448 -0.000117292 0)
(0.00145693 -0.000123813 0)
(0.00144959 -0.000130479 0)
(0.00144249 -0.000137321 0)
(0.00143566 -0.000144307 0)
(0.00142914 -0.00015145 0)
(0.00142296 -0.000158729 0)
(0.00141719 -0.000166143 0)
(0.00141182 -0.000173684 0)
(0.00140694 -0.000181332 0)
(0.00140253 -0.000189094 0)
(0.00139872 -0.000196931 0)
(0.00139544 -0.000204862 0)
(0.00139288 -0.000212834 0)
(0.00139089 -0.000220874 0)
(0.00155126 -8.85788e-05 0)
(0.00154398 -9.40645e-05 0)
(0.00153672 -9.97497e-05 0)
(0.00152951 -0.000105574 0)
(0.00152237 -0.000111583 0)
(0.00151536 -0.000117737 0)
(0.00150849 -0.000124064 0)
(0.0015018 -0.000130532 0)
(0.00149534 -0.000137162 0)
(0.00148911 -0.000143925 0)
(0.00148318 -0.000150835 0)
(0.00147755 -0.000157868 0)
(0.00147229 -0.000165028 0)
(0.00146738 -0.000172297 0)
(0.00146293 -0.000179669 0)
(0.00145889 -0.000187128 0)
(0.00145538 -0.000194657 0)
(0.00145235 -0.000202255 0)
(0.00144996 -0.000209886 0)
(0.00144808 -0.000217546 0)
(0.00159865 -8.90621e-05 0)
(0.00159203 -9.44368e-05 0)
(0.00158526 -9.99874e-05 0)
(0.00157866 -0.000105662 0)
(0.00157205 -0.000111518 0)
(0.00156561 -0.000117497 0)
(0.00155926 -0.000123648 0)
(0.00155311 -0.000129923 0)
(0.00154714 -0.000136357 0)
(0.00154139 -0.000142908 0)
(0.00153591 -0.000149605 0)
(0.0015307 -0.000156407 0)
(0.00152582 -0.000163339 0)
(0.00152125 -0.000170357 0)
(0.0015171 -0.000177483 0)
(0.00151326 -0.000184672 0)
(0.00150997 -0.000191936 0)
(0.00150704 -0.000199229 0)
(0.00150468 -0.000206568 0)
(0.00150275 -0.000213894 0)
(0.00164559 -8.84807e-05 0)
(0.00163943 -9.37254e-05 0)
(0.00163315 -9.91241e-05 0)
(0.00162701 -0.000104668 0)
(0.00162089 -0.00011035 0)
(0.00161489 -0.000116187 0)
(0.00160901 -0.000122148 0)
(0.00160328 -0.000128268 0)
(0.00159773 -0.000134501 0)
(0.00159239 -0.000140882 0)
(0.00158728 -0.000147358 0)
(0.0015824 -0.000153982 0)
(0.00157783 -0.000160679 0)
(0.00157351 -0.000167508 0)
(0.00156958 -0.000174388 0)
(0.00156587 -0.00018137 0)
(0.00156256 -0.000188405 0)
(0.00155967 -0.000195449 0)
(0.00155718 -0.000202538 0)
(0.00155507 -0.000209585 0)
(0.0016925 -8.6104e-05 0)
(0.00168672 -9.121e-05 0)
(0.00168082 -9.64836e-05 0)
(0.00167506 -0.000101871 0)
(0.0016693 -0.000107429 0)
(0.00166369 -0.000113089 0)
(0.00165814 -0.000118928 0)
(0.00165281 -0.000124857 0)
(0.00164753 -0.00013096 0)
(0.00164243 -0.000137192 0)
(0.00163764 -0.000143486 0)
(0.001633 -0.000149939 0)
(0.00162864 -0.00015645 0)
(0.00162451 -0.000163091 0)
(0.00162065 -0.00016978 0)
(0.00161709 -0.000176558 0)
(0.00161376 -0.000183379 0)
(0.00161076 -0.000190236 0)
(0.00160807 -0.00019711 0)
(0.00160567 -0.000203952 0)
(0.00173889 -8.18623e-05 0)
(0.00173341 -8.68301e-05 0)
(0.00172782 -9.19605e-05 0)
(0.00172236 -9.72146e-05 0)
(0.0017169 -0.000102632 0)
(0.00171158 -0.00010816 0)
(0.00170637 -0.000113859 0)
(0.00170125 -0.000119654 0)
(0.00169632 -0.000125607 0)
(0.0016915 -0.000131654 0)
(0.0016869 -0.000137848 0)
(0.00168247 -0.000144115 0)
(0.00167826 -0.000150515 0)
(0.00167426 -0.000156972 0)
(0.00167048 -0.00016354 0)
(0.00166693 -0.000170145 0)
(0.00166359 -0.000176827 0)
(0.00166048 -0.000183522 0)
(0.00165759 -0.000190254 0)
(0.00165488 -0.000196944 0)
(0.00178523 -7.44425e-05 0)
(0.00177999 -7.93194e-05 0)
(0.00177465 -8.43223e-05 0)
(0.00176945 -8.9523e-05 0)
(0.00176422 -9.48283e-05 0)
(0.00175916 -0.000100318 0)
(0.00175415 -0.000105927 0)
(0.00174927 -0.000111719 0)
(0.00174452 -0.000117585 0)
(0.00173992 -0.000123623 0)
(0.00173549 -0.000129737 0)
(0.00173123 -0.000135986 0)
(0.00172715 -0.000142311 0)
(0.00172327 -0.000148734 0)
(0.00171955 -0.000155224 0)
(0.00171603 -0.000161776 0)
(0.00171265 -0.00016838 0)
(0.00170944 -0.000175007 0)
(0.00170633 -0.000181663 0)
(0.00170332 -0.000188296 0)
(0.00183109 -6.42489e-05 0)
(0.00182608 -6.90199e-05 0)
(0.00182096 -7.39403e-05 0)
(0.001816 -7.90874e-05 0)
(0.00181086 -8.43569e-05 0)
(0.00180613 -8.98462e-05 0)
(0.00180159 -9.56005e-05 0)
(0.00179672 -0.000101316 0)
(0.00179221 -0.000107315 0)
(0.00178774 -0.000113338 0)
(0.00178347 -0.000119565 0)
(0.00177935 -0.000125831 0)
(0.00177539 -0.000132243 0)
(0.0017716 -0.00013869 0)
(0.00176797 -0.000145235 0)
(0.0017645 -0.000151801 0)
(0.00176116 -0.000158425 0)
(0.00175794 -0.00016505 0)
(0.0017548 -0.0001717 0)
(0.00175169 -0.000178335 0)
(3.23836e-05 -0.000880735 0)
(3.13096e-05 -0.000885052 0)
(3.03142e-05 -0.000889227 0)
(2.9325e-05 -0.000893451 0)
(2.83724e-05 -0.000897576 0)
(2.74292e-05 -0.000901721 0)
(2.64966e-05 -0.0009058 0)
(2.55681e-05 -0.000909867 0)
(2.46331e-05 -0.000913886 0)
(2.36925e-05 -0.000917858 0)
(2.27325e-05 -0.000921792 0)
(2.17554e-05 -0.000925636 0)
(2.0747e-05 -0.000929445 0)
(1.97101e-05 -0.000933112 0)
(1.86286e-05 -0.000936741 0)
(1.75079e-05 -0.00094016 0)
(1.63265e-05 -0.000943541 0)
(1.5097e-05 -0.00094662 0)
(1.37849e-05 -0.000949666 0)
(1.24201e-05 -0.000952287 0)
(9.83218e-05 -0.000861655 0)
(9.50995e-05 -0.000866433 0)
(9.20954e-05 -0.000871086 0)
(8.91349e-05 -0.000875744 0)
(8.62744e-05 -0.000880314 0)
(8.34596e-05 -0.000884868 0)
(8.06721e-05 -0.000889361 0)
(7.79081e-05 -0.000893813 0)
(7.51231e-05 -0.00089822 0)
(7.23285e-05 -0.000902556 0)
(6.94751e-05 -0.000906854 0)
(6.65751e-05 -0.000911046 0)
(6.35808e-05 -0.000915201 0)
(6.0503e-05 -0.0009192 0)
(5.7291e-05 -0.000923163 0)
(5.39619e-05 -0.000926906 0)
(5.04484e-05 -0.000930611 0)
(4.67903e-05 -0.000934009 0)
(4.28797e-05 -0.000937375 0)
(3.88089e-05 -0.000940314 0)
(0.000166592 -0.000824932 0)
(0.000161137 -0.000830579 0)
(0.000155983 -0.000836142 0)
(0.000150976 -0.000841622 0)
(0.0001461 -0.000847041 0)
(0.000141351 -0.00085237 0)
(0.000136629 -0.000857657 0)
(0.00013198 -0.000862841 0)
(0.000127287 -0.000867992 0)
(0.000122601 -0.000873024 0)
(0.000117814 -0.000878024 0)
(0.000112964 -0.00088288 0)
(0.000107957 -0.000887703 0)
(0.00010282 -0.000892344 0)
(9.7458e-05 -0.000896949 0)
(9.19043e-05 -0.000901318 0)
(8.60417e-05 -0.00090565 0)
(7.99357e-05 -0.000909667 0)
(7.34058e-05 -0.000913655 0)
(6.65995e-05 -0.00091722 0)
(0.000239038 -0.000773176 0)
(0.000231281 -0.000780006 0)
(0.000223822 -0.000786819 0)
(0.000216728 -0.000793418 0)
(0.000209746 -0.000800006 0)
(0.00020305 -0.000806387 0)
(0.000196355 -0.000812761 0)
(0.000189834 -0.000818935 0)
(0.000183239 -0.000825098 0)
(0.000176698 -0.000831064 0)
(0.000170015 -0.000837012 0)
(0.00016327 -0.000842758 0)
(0.000156307 -0.000848477 0)
(0.000149177 -0.000853975 0)
(0.000141737 -0.00085944 0)
(0.000134036 -0.000864646 0)
(0.000125904 -0.000869818 0)
(0.000117431 -0.000874668 0)
(0.000108366 -0.000879491 0)
(9.89041e-05 -0.000883898 0)
(0.000315704 -0.000709917 0)
(0.000305491 -0.000718124 0)
(0.000295447 -0.000726425 0)
(0.000286123 -0.000734337 0)
(0.000276824 -0.000742329 0)
(0.00026806 -0.000749959 0)
(0.000259246 -0.00075765 0)
(0.000250764 -0.000765011 0)
(0.000242176 -0.000772407 0)
(0.000233729 -0.000779506 0)
(0.00022511 -0.000786611 0)
(0.000216459 -0.00079344 0)
(0.000207545 -0.000800252 0)
(0.000198446 -0.000806794 0)
(0.000188962 -0.000813304 0)
(0.000179156 -0.000819529 0)
(0.000168802 -0.000825718 0)
(0.000158008 -0.000831583 0)
(0.000146446 -0.000837424 0)
(0.000134351 -0.000842873 0)
(0.000397523 -0.000638735 0)
(0.000384775 -0.000648373 0)
(0.000371945 -0.000658257 0)
(0.000360346 -0.00066754 0)
(0.000348634 -0.000677029 0)
(0.000337797 -0.000685956 0)
(0.000326852 -0.000695035 0)
(0.000316441 -0.000703619 0)
(0.000305906 -0.000712293 0)
(0.000295613 -0.000720547 0)
(0.000285137 -0.000728834 0)
(0.000274663 -0.000736766 0)
(0.000263903 -0.000744689 0)
(0.000252942 -0.000752298 0)
(0.000241547 -0.000759874 0)
(0.000229778 -0.000767153 0)
(0.000217375 -0.000774394 0)
(0.000204448 -0.000781327 0)
(0.000190622 -0.000788235 0)
(0.000176147 -0.000794799 0)
(0.000483018 -0.000563841 0)
(0.000467514 -0.000574851 0)
(0.00045156 -0.000586324 0)
(0.000437421 -0.00059697 0)
(0.000423019 -0.000608005 0)
(0.000409855 -0.000618279 0)
(0.000396586 -0.000628826 0)
(0.000384065 -0.000638724 0)
(0.000371492 -0.000648768 0)
(0.000359282 -0.000658283 0)
(0.000346968 -0.000667839 0)
(0.000334714 -0.000676967 0)
(0.00032222 -0.000686066 0)
(0.000309536 -0.000694812 0)
(0.000296412 -0.000703497 0)
(0.000282879 -0.000711875 0)
(0.000268644 -0.000720192 0)
(0.000253803 -0.000728227 0)
(0.000237927 -0.000736226 0)
(0.000221267 -0.000743952 0)
(0.000572815 -0.000487744 0)
(0.000554566 -0.000499903 0)
(0.000535532 -0.000512768 0)
(0.000518865 -0.000524573 0)
(0.00050193 -0.000536932 0)
(0.000486464 -0.000548355 0)
(0.000471024 -0.000560126 0)
(0.000456407 -0.000571155 0)
(0.000441892 -0.00058234 0)
(0.000427765 -0.000592962 0)
(0.000413661 -0.000603598 0)
(0.000399633 -0.000613805 0)
(0.00038545 -0.000623942 0)
(0.000371088 -0.000633741 0)
(0.000356326 -0.000643437 0)
(0.000341151 -0.000652859 0)
(0.000325272 -0.000662183 0)
(0.000308759 -0.000671289 0)
(0.000291172 -0.000680335 0)
(0.000272744 -0.000689222 0)
(0.000663676 -0.000414988 0)
(0.000642071 -0.000428144 0)
(0.000619712 -0.000442296 0)
(0.000599839 -0.000455296 0)
(0.000580125 -0.000468944 0)
(0.000561908 -0.000481648 0)
(0.000544195 -0.000494624 0)
(0.000527345 -0.000506885 0)
(0.000510971 -0.000519158 0)
(0.000495043 -0.000530891 0)
(0.000479386 -0.0005425 0)
(0.000463862 -0.000553699 0)
(0.000448329 -0.000564722 0)
(0.000432661 -0.000575434 0)
(0.000416666 -0.000585974 0)
(0.000400281 -0.000596286 0)
(0.000383212 -0.000606463 0)
(0.000365502 -0.000616501 0)
(0.000346691 -0.000626466 0)
(0.000326993 -0.000636397 0)
(0.00075779 -0.000344794 0)
(0.000733394 -0.00035817 0)
(0.000708712 -0.000372547 0)
(0.000685781 -0.000386139 0)
(0.000663684 -0.000400275 0)
(0.000642602 -0.000413882 0)
(0.000622497 -0.000427628 0)
(0.000603143 -0.000440975 0)
(0.000584567 -0.000454219 0)
(0.000566531 -0.000467109 0)
(0.000548993 -0.000479764 0)
(0.000531748 -0.000492093 0)
(0.000514671 -0.000504139 0)
(0.000497611 -0.000515902 0)
(0.000480357 -0.000527391 0)
(0.000462828 -0.000538675 0)
(0.000444707 -0.000549742 0)
(0.000426016 -0.000560731 0)
(0.000406293 -0.000571599 0)
(0.000385718 -0.000582585 0)
)
;

boundaryField
{
    back
    {
        type            empty;
    }
    left
    {
        type            symmetry;
    }
    hole
    {
        type            calculated;
        value           nonuniform List<vector> 
20
(
(5.69187e-05 -0.000738971 -3.7451e-21)
(0.000170146 -0.000731042 0)
(0.000281823 -0.000715595 -4.61184e-21)
(0.000390761 -0.000693135 -1.56969e-22)
(0.000496266 -0.000664875 7.57092e-22)
(0.000597305 -0.000631236 2.2762e-21)
(0.0006934 -0.000594263 -1.11605e-20)
(0.000784042 -0.000553458 -1.71028e-21)
(0.000868398 -0.000511742 8.26366e-21)
(0.000947238 -0.000467387 4.56272e-21)
(0.00101852 -0.000423492 -1.42703e-23)
(0.00108458 -0.000378319 3.24969e-22)
(0.00114261 -0.000333324 -3.98735e-21)
(0.00119459 -0.000288261 3.58717e-21)
(0.00123874 -0.000243292 -4.52186e-21)
(0.00127612 -0.000198691 9.1948e-22)
(0.00130585 -0.00015417 -1.01074e-21)
(0.00132838 -0.000110024 -2.86754e-21)