/*--------------------------------*- C++ -*----------------------------------*\
| =========                 |                                                 |
| \\      /  F ield         | OpenFOAM: The Open Source CFD Toolbox           |
|  \\    /   O peration     | Version:  v2012                                 |
|   \\  /    A nd           | Website:  www.openfoam.com                      |
|    \\/     M anipulation  |                                                 |
\*---------------------------------------------------------------------------*/
FoamFile
{
    version     2.0;
    format      ascii;
    class       volSymmTensorField;
    location    "4";
    object      sigma;
}
// * * * * * * * * * * * * * * * * * * * * * * * * * * * * * * * * * * * * * //

dimensions      [1 -1 -2 0 0 0 0];


internalField   nonuniform List<symmTensor> 
1000
(
(2.17483e+08 -7.37629e+06 -1.63305e-09 6.46297e+06 -4.18758e-09 6.71839e+07)
(1.9176e+08 -4.72727e+06 -1.21833e-08 1.2222e+07 -7.54341e-09 6.11946e+07)
(1.71611e+08 -2.82141e+06 -8.00691e-09 1.7171e+07 4.67747e-09 5.66346e+07)
(1.55117e+08 -1.38902e+06 7.789e-09 1.85179e+07 7.45889e-10 5.20904e+07)
(1.41944e+08 -341445 6.76734e-09 1.99523e+07 7.19972e-10 4.85689e+07)
(1.3065e+08 460178 5.20729e-10 1.92487e+07 3.52614e-09 4.49697e+07)
(1.21447e+08 1.04388e+06 -5.3103e-09 1.89406e+07 -6.69091e-10 4.21163e+07)
(1.13171e+08 1.50026e+06 -6.80026e-10 1.73067e+07 -5.97035e-09 3.91433e+07)
(1.06279e+08 1.80936e+06 -4.90582e-09 1.6146e+07 -6.24334e-09 3.67274e+07)
(9.97271e+07 2.07091e+06 5.13109e-10 1.41505e+07 3.67579e-09 3.41633e+07)
(2.10004e+08 -2.142e+07 0 8.26959e+06 0 6.5482e+07)
(1.86417e+08 -1.37956e+07 1.10491e-08 1.27373e+07 2.2517e-09 5.97462e+07)
(1.67815e+08 -8.29912e+06 -1.21941e-08 1.68364e+07 -6.77432e-09 5.53956e+07)
(1.5248e+08 -4.15319e+06 2.87945e-09 1.7636e+07 -6.70327e-09 5.10347e+07)
(1.40165e+08 -1.11455e+06 1.85933e-09 1.87366e+07 3.47166e-09 4.76704e+07)
(1.29546e+08 1.21911e+06 4.56735e-09 1.78422e+07 9.75959e-09 4.42166e+07)
(1.20851e+08 2.92452e+06 -5.37556e-09 1.74607e+07 -1.73032e-09 4.14936e+07)
(1.13013e+08 4.26006e+06 7.79782e-09 1.58131e+07 -1.93324e-09 3.86477e+07)
(1.06444e+08 5.17691e+06 -6.06985e-09 1.47249e+07 -6.79226e-09 3.63506e+07)
(1.00222e+08 5.94271e+06 -7.06178e-10 1.2796e+07 -2.50598e-09 3.39053e+07)
(1.95693e+08 -3.34492e+07 -2.8366e-09 1.1544e+07 -4.73606e-09 6.21712e+07)
(1.7611e+08 -2.1806e+07 1.02977e-08 1.36529e+07 2.55956e-09 5.69288e+07)
(1.60413e+08 -1.33577e+07 2.36468e-08 1.61787e+07 1.0375e-08 5.29775e+07)
(1.47272e+08 -6.95526e+06 -3.9472e-09 1.597e+07 -3.55816e-09 4.89727e+07)
(1.3658e+08 -2.23242e+06 -3.8046e-09 1.6445e+07 9.05105e-11 4.59075e+07)
(1.27252e+08 1.40438e+06 1.74376e-08 1.51949e+07 1.14322e-08 4.27341e+07)
(1.19526e+08 4.08691e+06 7.28902e-09 1.46691e+07 8.91359e-10 4.02586e+07)
(1.12523e+08 6.18036e+06 1.79907e-09 1.2992e+07 -1.97944e-09 3.76544e+07)
(1.06581e+08 7.65667e+06 9.53539e-15 1.20268e+07 1.54834e-14 3.55822e+07)
(1.0097e+08 8.85307e+06 -5.36068e-09 1.02209e+07 -4.70332e-09 3.33573e+07)
(1.75946e+08 -4.24369e+07 -4.88627e-10 1.56987e+07 -4.60238e-11 5.74934e+07)
(1.61636e+08 -2.81528e+07 -1.90081e-08 1.47516e+07 -7.43977e-09 5.29164e+07)
(1.49823e+08 -1.7696e+07 8.80595e-09 1.52295e+07 3.77718e-09 4.95157e+07)
(1.39636e+08 -9.70973e+06 1.34403e-08 1.36813e+07 6.62983e-09 4.59952e+07)
(1.31163e+08 -3.76374e+06 -4.13049e-09 1.33257e+07 -2.19855e-09 4.33467e+07)
(1.23595e+08 840814 -2.54621e-10 1.15814e+07 -1.57706e-10 4.0553e+07)
(1.17221e+08 4.28256e+06 8.25964e-09 1.08551e+07 5.41237e-09 3.84229e+07)
(1.11351e+08 6.9656e+06 -5.2546e-09 9.11531e+06 -3.57285e-09 3.614e+07)
(1.06301e+08 8.92322e+06 -4.87819e-09 8.29988e+06 -3.5031e-09 3.43802e+07)
(1.01491e+08 1.0463e+07 -4.44641e-09 6.64373e+06 -3.33446e-09 3.24405e+07)
(1.52333e+08 -4.77112e+07 -4.08422e-10 1.99113e+07 1.41518e-09 5.16733e+07)
(1.43996e+08 -3.23951e+07 -1.00685e-08 1.57007e+07 -1.89385e-09 4.79091e+07)
(1.36608e+08 -2.10397e+07 -7.59928e-09 1.39236e+07 -1.46957e-09 4.51595e+07)
(1.29853e+08 -1.22889e+07 -2.65052e-10 1.092e+07 -6.0009e-11 4.22319e+07)
(1.23959e+08 -5.68427e+06 9.88424e-09 9.62812e+06 2.40696e-09 4.00762e+07)
(1.18478e+08 -549670 -2.5605e-09 7.33937e+06 -3.31964e-09 3.77451e+07)
(1.13703e+08 3.36402e+06 3.14576e-09 6.37223e+06 3.42568e-09 3.60227e+07)
(1.09186e+08 6.39335e+06 -1.12146e-08 4.5597e+06 -8.51458e-09 3.41236e+07)
(1.05219e+08 8.70031e+06 7.00682e-11 3.8848e+06 3.15857e-11 3.27312e+07)
(1.01328e+08 1.0453e+07 -6.41183e-09 2.39473e+06 -4.83628e-09 3.11169e+07)
(1.26799e+08 -4.91119e+07 1.16939e-08 2.34288e+07 -2.56596e-09 4.50682e+07)
(1.24348e+08 -3.43494e+07 1.86083e-13 1.62085e+07 -6.37915e-16 4.2167e+07)
(1.21449e+08 -2.32209e+07 1.86467e-08 1.23266e+07 1.04899e-08 4.01326e+07)
(1.18208e+08 -1.45505e+07 -1.83736e-08 7.92928e+06 -1.5564e-08 3.78413e+07)
(1.15049e+08 -7.88504e+06 0 5.73593e+06 0 3.62356e+07)
(1.11756e+08 -2.67278e+06 2.48379e-09 2.89441e+06 4.76487e-09 3.43951e+07)
(1.08744e+08 1.39993e+06 1.93714e-08 1.68364e+06 9.99435e-09 3.31282e+07)
(1.05647e+08 4.54438e+06 8.78028e-09 -237110 4.91258e-09 3.16228e+07)
(1.02903e+08 7.04473e+06 3.18224e-09 -781510 4.23371e-09 3.06363e+07)
(9.9948e+07 8.91582e+06 -1.27026e-08 -2.15033e+06 -9.03174e-09 2.93393e+07)
(1.011e+08 -4.68415e+07 -3.08327e-08 2.53665e+07 3.13001e-09 3.79399e+07)
(1.0402e+08 -3.39679e+07 -3.46456e-08 1.57689e+07 6.00015e-09 3.59366e+07)
(1.0523e+08 -2.40601e+07 -9.36132e-10 1.0093e+07 -1.42126e-08 3.45969e+07)
(1.05333e+08 -1.62346e+07 6.59839e-09 4.5908e+06 -7.97073e-09 3.29773e+07)
(1.04749e+08 -1.00681e+07 -2.72869e-08 1.60542e+06 -8.76244e-09 3.19063e+07)
(1.03617e+08 -5.23601e+06 -1.17623e-08 -1.64869e+06 -4.47884e-09 3.05905e+07)
(1.02302e+08 -1.32058e+06 -1.68153e-08 -3.07932e+06 -9.39411e-09 2.97669e+07)
(1.00648e+08 1.64827e+06 2.55149e-09 -5.03668e+06 -4.2437e-10 2.86834e+07)
(9.91202e+07 4.15672e+06 4.48813e-09 -5.47112e+06 -9.05451e-10 2.80947e+07)
(9.71027e+07 5.97505e+06 7.12228e-09 -6.69131e+06 1.86862e-09 2.71234e+07)
(7.665e+07 -4.14128e+07 -1.33526e-08 2.52674e+07 6.60374e-09 3.05752e+07)
(8.38629e+07 -3.14781e+07 -1.92703e-13 1.42679e+07 6.48687e-14 2.94393e+07)
(8.85654e+07 -2.35794e+07 1.04366e-08 7.48054e+06 -3.54847e-09 2.88138e+07)
(9.15009e+07 -1.72431e+07 3.26982e-08 1.31825e+06 1.42258e-08 2.78458e+07)
(9.32881e+07 -1.20639e+07 4.77794e-10 -2.16914e+06 -1.66714e-10 2.73357e+07)
(9.40385e+07 -7.99518e+06 -4.44871e-09 -5.65053e+06 1.56269e-09 2.65164e+07)
(9.4412e+07 -4.5419e+06 1.06433e-08 -7.21447e+06 3.47816e-09 2.61593e+07)
(9.40217e+07 -1.95044e+06 -2.54532e-09 -9.18194e+06 1.0189e-09 2.54519e+07)
(9.37558e+07 369501 -8.0033e-09 -9.50244e+06 -3.51758e-09 2.5276e+07)
(9.2576e+07 2.06454e+06 7.12355e-09 -1.06908e+07 3.47037e-09 2.45656e+07)
(5.49115e+07 -3.38338e+07 1.57092e-09 2.26182e+07 1.06212e-08 2.32589e+07)
(6.52652e+07 -2.73478e+07 -2.30309e-08 1.11675e+07 2.20893e-08 2.29298e+07)
(7.24532e+07 -2.19867e+07 -9.27627e-10 3.76852e+06 1.05982e-08 2.28665e+07)
(7.76527e+07 -1.75165e+07 3.04343e-08 -2.54069e+06 4.01005e-09 2.25336e+07)
(8.12031e+07 -1.36989e+07 1.30528e-08 -6.34813e+06 2.52639e-09 2.24565e+07)
(8.36021e+07 -1.06553e+07 -1.89683e-09 -9.76232e+06 9.93889e-09 2.21519e+07)
(8.52479e+07 -7.89597e+06 2.81538e-09 -1.14564e+07 7.12297e-09 2.21374e+07)
(8.60699e+07 -5.90514e+06 2.06439e-08 -1.32127e+07 4.30507e-09 2.18572e+07)
(8.67916e+07 -3.88129e+06 -3.70979e-09 -1.35366e+07 -5.96473e-09 2.19765e+07)
(8.64033e+07 -2.5841e+06 9.36843e-09 -1.44506e+07 9.69967e-09 2.15858e+07)
(3.61926e+07 -2.45989e+07 4.76126e-09 1.72866e+07 2.74295e-09 1.60438e+07)
(4.83943e+07 -2.18353e+07 9.52103e-09 6.57394e+06 -6.56185e-09 1.64905e+07)
(5.72944e+07 -1.92191e+07 -8.01049e-09 -475377 -5.83168e-09 1.70457e+07)
(6.39683e+07 -1.68224e+07 -1.6545e-09 -6.26267e+06 -9.69233e-09 1.73117e+07)
(6.89704e+07 -1.45639e+07 -2.19388e-09 -9.87989e+06 -8.88442e-09 1.77271e+07)
(7.24335e+07 -1.2656e+07 -4.1666e-09 -1.27944e+07 3.08876e-09 1.78918e+07)
(7.53869e+07 -1.08247e+07 -1.31489e-08 -1.44327e+07 -9.24859e-09 1.82863e+07)
(7.68951e+07 -9.37422e+06 -3.63657e-09 -1.56583e+07 -6.54285e-09 1.8371e+07)
(7.89519e+07 -8.03042e+06 -1.36338e-08 -1.61248e+07 -6.25899e-09 1.88481e+07)
(7.90071e+07 -6.76616e+06 -2.69573e-09 -1.65503e+07 3.26033e-09 1.87371e+07)
(2.13493e+07 -1.52806e+07 2.68288e-10 9.57138e+06 -2.24587e-10 9.27619e+06)
(3.41998e+07 -1.59556e+07 -2.56882e-08 409455 -2.97292e-09 1.03828e+07)
(4.35211e+07 -1.6184e+07 7.9671e-09 -5.84578e+06 5.33076e-09 1.13026e+07)
(5.10823e+07 -1.57621e+07 4.01041e-09 -1.06636e+07 -1.54676e-08 1.21256e+07)
(5.65212e+07 -1.53582e+07 1.48029e-08 -1.39127e+07 9.1908e-09 1.27825e+07)
(6.09769e+07 -1.44488e+07 -1.06641e-08 -1.61746e+07 -8.20066e-10 1.34407e+07)
(6.40993e+07 -1.39596e+07 -6.5427e-09 -1.77545e+07 -4.12629e-09 1.39034e+07)
(6.68089e+07 -1.27369e+07 5.3852e-10 -1.8553e+07 -1.12664e-08 1.44768e+07)
(6.8436e+07 -1.25095e+07 5.90212e-09 -1.92221e+07 3.53931e-09 1.47642e+07)
(7.09334e+07 -1.14187e+07 -3.9714e-10 -1.87372e+07 8.52485e-09 1.56589e+07)
(1.00553e+07 -5.99262e+06 1.69758e-08 -679161 -2.0942e-08 2.81285e+06)
(2.27014e+07 -9.81744e+06 3.3732e-10 -7.53144e+06 -3.96742e-10 4.55099e+06)
(3.18996e+07 -1.24719e+07 -2.15097e-08 -1.20759e+07 -2.54052e-09 5.9471e+06)
(3.9796e+07 -1.39254e+07 -7.39032e-09 -1.55484e+07 -4.48187e-09 7.27428e+06)
(4.53843e+07 -1.49785e+07 1.069e-08 -1.77055e+07 -9.10976e-11 8.30364e+06)
(5.05001e+07 -1.51935e+07 1.2982e-08 -1.92438e+07 -3.90788e-09 9.3769e+06)
(5.37386e+07 -1.55215e+07 9.49067e-11 -1.99957e+07 -1.22609e-10 1.01229e+07)
(5.73469e+07 -1.50124e+07 -7.63976e-09 -2.05044e+07 -9.10783e-10 1.10527e+07)
(5.87651e+07 -1.50555e+07 8.09783e-09 -2.03091e+07 1.15645e-08 1.15368e+07)
(6.24551e+07 -1.47778e+07 -6.55902e-09 -1.94606e+07 -3.71397e-09 1.28983e+07)
(2.13179e+06 2.00666e+06 -3.24172e-09 -1.24675e+07 -3.23709e-09 -3.10071e+06)
(1.35807e+07 -4.26156e+06 1.26211e-08 -1.62441e+07 -3.55611e-09 -799023)
(2.17634e+07 -8.86402e+06 -1.89644e-09 -1.86297e+07 -1.21781e-08 940120)
(2.93762e+07 -1.1822e+07 -1.04718e-08 -2.02445e+07 1.52711e-09 2.7395e+06)
(3.45523e+07 -1.40667e+07 -1.27269e-08 -2.11074e+07 5.72746e-09 4.03346e+06)
(3.98918e+07 -1.52336e+07 5.971e-09 -2.1456e+07 3.81944e-09 5.53074e+06)
(4.29834e+07 -1.62393e+07 9.74216e-09 -2.13943e+07 -3.37605e-09 6.47675e+06)
(4.71183e+07 -1.64308e+07 1.23919e-08 -2.10488e+07 3.28794e-09 7.82084e+06)
(4.84949e+07 -1.67517e+07 -1.05338e-09 -2.02925e+07 2.37881e-09 8.46071e+06)
(5.27246e+07 -1.71914e+07 -5.6015e-09 -1.85783e+07 -6.27425e-10 1.02439e+07)
(-2.69226e+06 8.32939e+06 2.88058e-09 -2.53666e+07 3.13104e-09 -8.41765e+06)
(6.9197e+06 339974 -6.43139e-09 -2.57834e+07 -4.53791e-09 -5.65911e+06)
(1.37036e+07 -5.58905e+06 9.61186e-09 -2.56054e+07 -2.66385e-09 -3.57054e+06)
(2.05271e+07 -9.69899e+06 6.12498e-09 -2.51943e+07 3.67177e-09 -1.40016e+06)
(2.50367e+07 -1.27756e+07 -2.33205e-09 -2.44478e+07 4.77611e-09 176688)
(3.01532e+07 -1.47504e+07 -1.67451e-08 -2.35689e+07 -9.31467e-09 1.97529e+06)
(3.29652e+07 -1.62313e+07 3.89242e-09 -2.24743e+07 6.12587e-09 3.14729e+06)
(3.71665e+07 -1.70582e+07 4.97585e-09 -2.13696e+07 2.78748e-09 4.73908e+06)
(3.8529e+07 -1.75811e+07 -4.07748e-09 -2.0009e+07 -4.70316e-09 5.556e+06)
(4.27767e+07 -1.85045e+07 -4.10463e-09 -1.77886e+07 -4.21772e-09 7.49643e+06)
(-5.1262e+06 1.25154e+07 4.58193e-09 -3.85051e+07 -2.21114e-08 -1.30894e+07)
(2.22345e+06 3.69856e+06 2.51552e-09 -3.53207e+07 -8.36793e-09 -9.92919e+06)
(7.2754e+06 -2.86616e+06 3.31929e-09 -3.24669e+07 1.02892e-08 -7.55744e+06)
(1.29872e+07 -7.61688e+06 1.06031e-08 -2.98611e+07 6.79206e-09 -5.06217e+06)
(1.66554e+07 -1.1117e+07 8.13412e-09 -2.74956e+07 -6.04534e-09 -3.25203e+06)
(2.12754e+07 -1.36234e+07 3.91677e-09 -2.52506e+07 6.0117e-09 -1.19258e+06)
(2.3774e+07 -1.53472e+07 2.90362e-09 -2.31782e+07 8.71168e-09 178713)
(2.77652e+07 -1.66618e+07 1.48034e-09 -2.1202e+07 -7.78841e-09 1.96897e+06)
(2.9184e+07 -1.72667e+07 -4.18717e-09 -1.92943e+07 -2.09976e-09 2.96691e+06)
(3.31373e+07 -1.84943e+07 -1.70551e-09 -1.66387e+07 1.93178e-09 4.94957e+06)
(-5.71344e+06 1.4375e+07 -1.86389e-09 -5.10523e+07 7.7323e-09 -1.70297e+07)
(-781258 5.6251e+06 2.63702e-09 -4.44466e+07 1.85765e-08 -1.35683e+07)
(2.5036e+06 -893169 3.55185e-09 -3.89918e+07 9.51683e-09 -1.09464e+07)
(6.91867e+06 -5.7479e+06 -3.41913e-11 -3.42798e+07 2.02944e-10 -8.20833e+06)
(9.71275e+06 -9.28237e+06 -4.36205e-09 -3.0326e+07 -2.37386e-09 -6.18397e+06)
(1.36413e+07 -1.19724e+07 4.11006e-09 -2.67672e+07 2.60795e-09 -3.93777e+06)
(1.58295e+07 -1.37405e+07 -3.96654e-09 -2.37502e+07 -1.95672e-09 -2.37621e+06)
(1.9417e+07 -1.52811e+07 3.93416e-09 -2.09333e+07 -2.68518e-09 -454881)
(2.09437e+07 -1.59142e+07 3.53899e-09 -1.85316e+07 -3.34848e-10 723638)
(2.4459e+07 -1.72228e+07 2.80022e-10 -1.55118e+07 1.569e-09 2.68415e+06)
(-5.20707e+06 1.39923e+07 5.59676e-10 -6.22825e+07 -6.18113e-09 -2.02469e+07)
(-2.56835e+06 6.15486e+06 -7.1812e-09 -5.25506e+07 -7.8292e-09 -1.65357e+07)
(-963653 327910 -7.20677e-09 -4.47474e+07 -6.38563e-09 -1.37133e+07)
(2.17215e+06 -4.10168e+06 -3.58984e-09 -3.81009e+07 -1.07034e-08 -1.07786e+07)
(4.12255e+06 -7.29001e+06 -6.8429e-09 -3.27299e+07 -8.00019e-09 -8.58221e+06)
(7.32076e+06 -9.82051e+06 -6.56913e-09 -2.79534e+07 -1.30119e-09 -6.18979e+06)
(9.20025e+06 -1.14242e+07 3.38609e-09 -2.41038e+07 6.10804e-09 -4.47105e+06)
(1.23178e+07 -1.2943e+07 -3.31101e-09 -2.05027e+07 -3.27107e-09 -2.45546e+06)
(1.39274e+07 -1.3512e+07 2.49944e-09 -1.76627e+07 -3.76314e-10 -1.12061e+06)
(1.69805e+07 -1.47245e+07 -5.08985e-10 -1.43433e+07 2.69189e-10 791153)
(-4.18725e+06 1.15907e+07 -1.29085e-09 -7.13929e+07 -1.00771e-08 -2.26741e+07)
(-3.49953e+06 5.41146e+06 2.45117e-09 -5.91328e+07 3.38709e-09 -1.87897e+07)
(-3.28944e+06 818987 4.22699e-09 -4.94171e+07 9.88824e-09 -1.5812e+07)
(-1.26923e+06 -2.71626e+06 -2.56651e-09 -4.11987e+07 -2.43642e-09 -1.27404e+07)
(-22002.8 -5.24685e+06 4.4766e-09 -3.46702e+07 1.52107e-09 -1.04077e+07)
(2.5157e+06 -7.30432e+06 6.35866e-09 -2.88972e+07 9.32543e-09 -7.91444e+06)
(4.14079e+06 -8.58602e+06 5.12969e-09 -2.43702e+07 4.58082e-09 -6.06882e+06)
(6.81649e+06 -9.85421e+06 -1.17452e-09 -2.01165e+07 -2.80944e-09 -3.99e+06)
(8.50144e+06 -1.03127e+07 2.10801e-09 -1.69258e+07 1.03777e-09 -2.5273e+06)
(1.11418e+07 -1.12869e+07 0 -1.33617e+07 0 -665968)
(-3.20185e+06 7.62659e+06 1.66795e-09 -7.78512e+07 7.97659e-09 -2.43159e+07)
(-3.92505e+06 3.67499e+06 4.23182e-09 -6.37789e+07 5.75664e-09 -2.03112e+07)
(-4.72804e+06 745201 -2.6461e-09 -5.27015e+07 -4.14273e-09 -1.72289e+07)
(-3.52598e+06 -1.53007e+06 -1.18017e-09 -4.33552e+07 -1.89519e-09 -1.40643e+07)
(-2.79553e+06 -3.14871e+06 3.35593e-09 -3.60061e+07 4.98784e-09 -1.16405e+07)
(-752513 -4.48615e+06 8.79659e-10 -2.95165e+07 1.34042e-09 -9.08071e+06)
(678972 -5.30648e+06 -1.39126e-09 -2.4511e+07 -1.20579e-09 -7.1496e+06)
(3.01677e+06 -6.14211e+06 -1.53221e-09 -1.97878e+07 -1.67196e-09 -5.0313e+06)
(4.74551e+06 -6.43294e+06 -2.07451e-09 -1.63491e+07 -1.57003e-09 -3.48109e+06)
(7.08254e+06 -7.0595e+06 -6.48376e-10 -1.26177e+07 -4.07429e-10 -1.66054e+06)
(-2.60908e+06 2.65533e+06 -3.0681e-09 -8.11807e+07 -2.11844e-09 -2.51369e+07)
(-4.07313e+06 1.29706e+06 -4.07159e-09 -6.61773e+07 -1.21686e-08 -2.10751e+07)
(-5.40084e+06 287617 1.70574e-09 -5.43978e+07 -7.19358e-09 -1.79396e+07)
(-4.63091e+06 -497963 1.92054e-09 -4.44712e+07 2.87979e-09 -1.47306e+07)
(-4.16786e+06 -1.0578e+06 -1.61924e-09 -3.66982e+07 -2.29776e-09 -1.22598e+07)
(-2.38839e+06 -1.52257e+06 -5.5203e-11 -2.98383e+07 -2.41098e-09 -9.66801e+06)
(-1.05641e+06 -1.80795e+06 3.94336e-10 -2.45855e+07 -7.86192e-10 -7.69256e+06)
(1.09964e+06 -2.10077e+06 -2.24351e-09 -1.96169e+07 -1.48704e-09 -5.55517e+06)
(2.85226e+06 -2.20353e+06 -4.45736e-10 -1.60507e+07 -7.59036e-10 -3.95953e+06)
(5.02849e+06 -2.42083e+06 2.09395e-09 -1.22308e+07 4.56444e-10 -2.16069e+06)
(8.52153e+06 -2.429e+06 1.08991e-09 -8.06482e+06 1.44056e-09 137013)
(1.03944e+07 -7.06483e+06 1.93237e-09 -8.60418e+06 1.03951e-09 537056)
(1.41039e+07 -1.12904e+07 -6.84197e-10 -9.63602e+06 -3.1873e-10 1.34037e+06)
(1.9417e+07 -1.4685e+07 7.39435e-10 -1.09865e+07 3.42561e-10 2.52914e+06)
(2.62541e+07 -1.715e+07 1.24904e-09 -1.25716e+07 7.38326e-10 4.10476e+06)
(3.41534e+07 -1.83264e+07 5.50111e-09 -1.40361e+07 1.81897e-09 6.03521e+06)
(4.30636e+07 -1.8323e+07 -4.61242e-09 -1.5478e+07 -2.62655e-09 8.27569e+06)
(5.2312e+07 -1.68759e+07 -4.49878e-09 -1.63851e+07 -2.24273e-09 1.07781e+07)
(6.16584e+07 -1.4649e+07 -8.05874e-09 -1.73905e+07 -5.77851e-09 1.32804e+07)
(7.01793e+07 -1.15926e+07 1.33361e-08 -1.8083e+07 8.13639e-09 1.56289e+07)
(1.36321e+07 -2.25905e+06 -1.5131e-09 -2.92072e+06 -4.4906e-10 3.21342e+06)
(1.51113e+07 -6.5667e+06 4.35341e-11 -3.55793e+06 7.19623e-12 3.46601e+06)
(1.80485e+07 -1.05969e+07 -3.27036e-09 -4.76783e+06 -1.04352e-09 3.98419e+06)
(2.22323e+07 -1.39193e+07 -3.472e-09 -6.47302e+06 -1.10643e-09 4.72779e+06)
(2.76238e+07 -1.66015e+07 5.66712e-09 -8.47781e+06 1.98064e-09 5.74379e+06)
(3.3804e+07 -1.81337e+07 3.28096e-09 -1.06316e+07 1.23044e-09 6.95174e+06)
(4.07932e+07 -1.88675e+07 -2.05715e-09 -1.25586e+07 -6.85907e-10 8.47038e+06)
(4.80856e+07 -1.80106e+07 0 -1.42325e+07 0 1.01559e+07)
(5.58981e+07 -1.63671e+07 4.34027e-09 -1.48821e+07 2.67061e-09 1.23048e+07)
(6.35371e+07 -1.30122e+07 -2.16834e-10 -1.57549e+07 -9.94764e-10 1.43347e+07)
(1.79638e+07 -2.05215e+06 3.14362e-10 659387 2.9475e-10 5.58695e+06)
(1.92409e+07 -5.95568e+06 2.4633e-09 142926 7.52739e-10 5.81515e+06)
(2.17792e+07 -9.63321e+06 -1.49487e-09 -807080 -4.46241e-10 6.29163e+06)
(2.54475e+07 -1.26673e+07 -5.91054e-09 -2.23953e+06 -1.58726e-09 6.9624e+06)
(3.01918e+07 -1.51793e+07 -1.17508e-09 -3.88668e+06 -1.6023e-10 7.89154e+06)
(3.5763e+07 -1.66974e+07 3.35329e-11 -5.96371e+06 8.44787e-11 8.93979e+06)
(4.20025e+07 -1.76514e+07 -3.42796e-09 -7.84892e+06 -1.30613e-09 1.02461e+07)
(4.85748e+07 -1.74681e+07 -5.73723e-09 -1.02264e+07 -2.43857e-09 1.15045e+07)
(5.5127e+07 -1.6809e+07 6.33965e-09 -1.14999e+07 2.91667e-09 1.30881e+07)
(6.10668e+07 -1.50053e+07 1.32791e-08 -1.34555e+07 6.86171e-09 1.42834e+07)
(2.22522e+07 -1.89732e+06 -1.40167e-09 2.93963e+06 -5.61847e-10 7.55754e+06)
(2.32311e+07 -5.52288e+06 9.77703e-10 2.44169e+06 3.40986e-11 7.70184e+06)
(2.51695e+07 -8.99536e+06 4.44327e-09 1.58003e+06 9.08211e-10 8.02487e+06)
(2.79814e+07 -1.19488e+07 2.89701e-09 217677 6.27931e-10 8.45971e+06)
(3.16118e+07 -1.44831e+07 4.51618e-09 -1.19162e+06 1.30642e-09 9.12606e+06)
(3.59468e+07 -1.61634e+07 -4.09392e-09 -3.08111e+06 -1.41824e-09 9.85972e+06)
(4.09006e+07 -1.72222e+07 -1.07202e-08 -4.50559e+06 -3.77833e-09 1.09185e+07)
(4.64056e+07 -1.72678e+07 1.77737e-09 -6.60525e+06 7.74535e-10 1.19401e+07)
(5.23165e+07 -1.65926e+07 1.76288e-09 -7.61171e+06 8.28279e-10 1.34114e+07)
(5.79947e+07 -1.52826e+07 -1.95365e-09 -9.74795e+06 -9.96261e-10 1.4474e+07)
(2.59632e+07 -1.66429e+06 -2.6283e-10 5.11825e+06 -2.53199e-10 9.32444e+06)
(2.68293e+07 -4.86313e+06 -2.58632e-09 4.69665e+06 -3.06458e-10 9.45779e+06)
(2.85346e+07 -7.92803e+06 -2.21609e-09 3.99794e+06 -3.70637e-10 9.75975e+06)
(3.10344e+07 -1.06023e+07 1.21481e-09 2.78616e+06 5.77668e-11 1.01462e+07)
(3.42295e+07 -1.29399e+07 5.82469e-09 1.56067e+06 8.83342e-10 1.0737e+07)
(3.80434e+07 -1.47079e+07 4.2991e-09 -269873 5.38959e-10 1.1332e+07)
(4.22855e+07 -1.59796e+07 4.43588e-09 -1.64955e+06 1.17043e-09 1.21908e+07)
(4.68643e+07 -1.66265e+07 -1.8083e-09 -3.74314e+06 -3.81985e-10 1.29364e+07)
(5.16666e+07 -1.65266e+07 3.8077e-09 -4.76728e+06 1.02086e-09 1.40698e+07)
(5.61997e+07 -1.58626e+07 2.41467e-09 -6.64015e+06 5.32696e-10 1.48679e+07)
(2.93677e+07 -1.5393e+06 0 6.17483e+06 0 1.06628e+07)
(3.00241e+07 -4.52636e+06 -3.99418e-10 5.81629e+06 3.07043e-10 1.07521e+07)
(3.13209e+07 -7.3757e+06 -2.76047e-11 5.25974e+06 -3.4863e-10 1.09742e+07)
(3.32409e+07 -9.91493e+06 -5.53854e-09 4.25177e+06 -1.25619e-09 1.12478e+07)
(3.57383e+07 -1.20945e+07 7.04073e-11 3.30885e+06 -3.75604e-12 1.17141e+07)
(3.87918e+07 -1.38151e+07 -1.49742e-09 1.81436e+06 -7.52619e-11 1.21818e+07)
(4.23354e+07 -1.49782e+07 7.55827e-11 727259 -1.8657e-12 1.29188e+07)
(4.62868e+07 -1.57128e+07 1.59352e-09 -1.05234e+06 2.30219e-10 1.35703e+07)
(5.05966e+07 -1.57485e+07 -8.21535e-09 -2.0595e+06 -2.58695e-09 1.45611e+07)
(5.46891e+07 -1.55259e+07 9.9608e-09 -3.80003e+06 3.41414e-09 1.52667e+07)
(3.2553e+07 -1.35069e+06 1.14118e-09 7.38773e+06 -7.11456e-12 1.19822e+07)
(3.31344e+07 -4.00454e+06 -1.20927e-09 7.06794e+06 -6.01155e-10 1.20607e+07)
(3.42791e+07 -6.53366e+06 3.76485e-10 6.57577e+06 -3.68978e-10 1.22564e+07)
(3.59577e+07 -8.86904e+06 1.27827e-09 5.66207e+06 4.07548e-10 1.24859e+07)
(3.81193e+07 -1.09048e+07 3.40801e-10 4.799e+06 4.82807e-10 1.28755e+07)
(4.07004e+07 -1.26611e+07 -1.54467e-09 3.44423e+06 -1.64182e-11 1.32434e+07)
(4.36595e+07 -1.39245e+07 -3.87232e-09 2.43762e+06 -7.613e-10 1.38291e+07)
(4.68808e+07 -1.4895e+07 2.72035e-09 901353 8.31026e-10 1.43346e+07)
(5.04365e+07 -1.51787e+07 -1.35666e-09 -18300.5 -7.74818e-10 1.51255e+07)
(5.38434e+07 -1.52374e+07 -1.27576e-09 -1.47882e+06 5.40323e-10 1.57094e+07)
(3.52767e+07 -1.24202e+06 2.09871e-10 7.89651e+06 3.08659e-10 1.2952e+07)
(3.57232e+07 -3.7044e+06 4.9009e-10 7.63717e+06 3.26822e-10 1.30081e+07)
(3.66174e+07 -6.02458e+06 -3.49029e-09 7.24836e+06 -2.6913e-10 1.31597e+07)
(3.79367e+07 -8.19162e+06 -3.86202e-09 6.50914e+06 -3.10979e-10 1.33338e+07)
(3.96914e+07 -1.00454e+07 1.58251e-10 5.81389e+06 4.99305e-10 1.36516e+07)
(4.18149e+07 -1.1686e+07 2.88904e-09 4.70113e+06 -4.68548e-11 1.39548e+07)
(4.4345e+07 -1.28583e+07 -3.66584e-09 3.82704e+06 -6.4202e-10 1.44516e+07)
(4.71199e+07 -1.38506e+07 -6.62585e-09 2.51423e+06 -1.53135e-09 1.48902e+07)
(5.02363e+07 -1.42505e+07 1.92029e-10 1.62552e+06 -6.54118e-12 1.55586e+07)
(5.32106e+07 -1.45359e+07 4.50461e-09 350925 3.0327e-09 1.60685e+07)
(3.79752e+07 -1.10518e+06 -1.33279e-09 8.51871e+06 9.86815e-12 1.39482e+07)
(3.83603e+07 -3.32034e+06 1.34865e-09 8.28327e+06 -2.98748e-11 1.39931e+07)
(3.91338e+07 -5.40869e+06 8.27944e-10 7.91935e+06 3.72302e-10 1.41159e+07)
(4.02515e+07 -7.40842e+06 -7.44385e-11 7.25354e+06 4.4699e-12 1.42515e+07)
(4.17355e+07 -9.14162e+06 -7.18886e-09 6.60337e+06 -1.28361e-09 1.45017e+07)
(4.34872e+07 -1.07327e+07 3.22211e-09 5.62658e+06 -1.19714e-10 1.47341e+07)
(4.55832e+07 -1.19105e+07 3.86654e-09 4.82003e+06 1.22048e-09 1.5121e+07)
(4.78575e+07 -1.29387e+07 7.40725e-16 3.70104e+06 -7.62781e-18 1.54676e+07)
(5.04578e+07 -1.3436e+07 -8.55543e-10 2.87388e+06 7.41405e-10 1.59995e+07)
(5.29728e+07 -1.38298e+07 9.50326e-10 1.77616e+06 8.46406e-10 1.64247e+07)
(4.02135e+07 -1.00971e+06 1.23458e-09 8.7806e+06 -3.7574e-10 1.46982e+07)
(4.05154e+07 -3.04358e+06 1.49581e-09 8.58498e+06 -3.39633e-11 1.47301e+07)
(4.11359e+07 -4.94712e+06 1.37785e-09 8.27743e+06 -4.54592e-11 1.4824e+07)
(4.20325e+07 -6.77782e+06 4.08357e-09 7.71881e+06 3.01298e-10 1.49254e+07)
(4.32601e+07 -8.356e+06 -2.99513e-09 7.15154e+06 -3.95748e-10 1.51235e+07)
(4.47146e+07 -9.82194e+06 -2.95373e-09 6.31261e+06 -1.07307e-09 1.53081e+07)
(4.64986e+07 -1.09241e+07 3.3755e-09 5.5737e+06 5.37687e-10 1.56217e+07)
(4.84315e+07 -1.19234e+07 1.65428e-09 4.58679e+06 -4.78957e-11 1.59055e+07)
(5.06659e+07 -1.24603e+07 5.74237e-09 3.79968e+06 7.06591e-10 1.63397e+07)
(5.2817e+07 -1.29403e+07 4.20961e-09 2.82058e+06 8.3926e-10 1.66913e+07)
(4.24641e+07 -908554 1.49696e-09 9.12301e+06 -9.21376e-12 1.54761e+07)
(4.27147e+07 -2.74898e+06 1.50571e-09 8.94265e+06 -2.92265e-11 1.54972e+07)
(4.32337e+07 -4.47529e+06 1.52236e-09 8.64648e+06 -4.47181e-11 1.5564e+07)
(4.39687e+07 -6.1546e+06 1.93875e-09 8.13721e+06 9.07941e-10 1.56318e+07)
(4.49816e+07 -7.61711e+06 1.77862e-09 7.59607e+06 -6.18911e-10 1.57733e+07)
(4.61605e+07 -8.98955e+06 -2.7127e-09 6.8449e+06 -1.0913e-09 1.59016e+07)
(4.76268e+07 -1.00445e+07 1.62481e-09 6.14325e+06 5.98113e-10 1.6131e+07)
(4.92046e+07 -1.1001e+07 -3.61032e-09 5.26748e+06 -5.91472e-10 1.63416e+07)
(5.1065e+07 -1.15584e+07 2.24906e-09 4.50331e+06 7.26543e-10 1.66705e+07)
(5.2881e+07 -1.20476e+07 -1.87506e-09 3.62239e+06 5.13779e-10 1.6951e+07)
(4.43349e+07 -824274 -1.55616e-10 9.33329e+06 -4.22597e-10 1.61004e+07)
(4.45322e+07 -2.49576e+06 -1.50886e-09 9.17329e+06 2.43463e-11 1.61116e+07)
(4.49499e+07 -4.06102e+06 -9.97343e-10 8.90172e+06 4.88854e-10 1.61555e+07)
(4.55389e+07 -5.5831e+06 0 8.44538e+06 0 1.61953e+07)
(4.63704e+07 -6.91341e+06 4.94721e-10 7.93896e+06 -5.70008e-10 1.62928e+07)
(4.73365e+07 -8.16196e+06 7.31636e-11 7.25419e+06 -2.39618e-12 1.63772e+07)
(4.85574e+07 -9.14087e+06 3.05382e-09 6.58249e+06 1.20924e-09 1.6542e+07)
(4.98684e+07 -1.00313e+07 -1.76685e-09 5.76981e+06 7.03013e-11 1.66915e+07)
(5.14223e+07 -1.05727e+07 4.02367e-09 5.028e+06 1.44945e-09 1.69351e+07)
(5.29402e+07 -1.10731e+07 2.56025e-09 4.19508e+06 1.71641e-11 1.71406e+07)
(4.61818e+07 -742128 1.43975e-10 9.64677e+06 4.46014e-10 1.67486e+07)
(4.63378e+07 -2.24885e+06 1.95339e-09 9.49343e+06 4.3683e-10 1.67494e+07)
(4.66711e+07 -3.66412e+06 -6.01348e-10 9.22431e+06 -4.71472e-10 1.67686e+07)
(4.71349e+07 -5.04367e+06 1.71588e-09 8.78922e+06 -3.98968e-11 1.67772e+07)
(4.77962e+07 -6.25903e+06 -1.10176e-09 8.29185e+06 -5.28948e-10 1.68264e+07)
(4.85563e+07 -7.39773e+06 -4.46709e-09 7.64112e+06 -4.65908e-10 1.68592e+07)
(4.95355e+07 -8.30405e+06 2.80488e-09 6.98466e+06 1.23464e-09 1.69561e+07)
(5.05702e+07 -9.12169e+06 -1.7034e-09 6.20761e+06 -6.7084e-10 1.70333e+07)
(5.18517e+07 -9.64051e+06 -1.63478e-09 5.47327e+06 -7.28153e-10 1.71975e+07)
(5.30241e+07 -1.0108e+07 1.18582e-08 4.67838e+06 2.89383e-09 1.73107e+07)
(4.77383e+07 -663767 -2.65002e-10 9.98519e+06 -9.26135e-10 1.73171e+07)
(4.78575e+07 -2.01102e+06 3.48491e-09 9.83763e+06 -1.79158e-11 1.73085e+07)
(4.81165e+07 -3.27711e+06 4.45884e-10 9.5732e+06 4.87664e-10 1.73069e+07)
(4.84753e+07 -4.51034e+06 -1.64263e-09 9.15199e+06 1.99123e-11 1.72882e+07)
(4.89959e+07 -5.6004e+06 1.84883e-09 8.66069e+06 1.08948e-09 1.7297e+07)
(4.95936e+07 -6.62056e+06 -3.47994e-09 8.02482e+06 5.42882e-11 1.72855e+07)
(5.0374e+07 -7.44144e+06 -1.65084e-09 7.37331e+06 3.08485e-11 1.73242e+07)
(5.11995e+07 -8.17453e+06 1.64894e-09 6.60511e+06 -3.47792e-11 1.73414e+07)
(5.22309e+07 -8.66548e+06 -3.2797e-09 5.8718e+06 -7.03126e-10 1.74308e+07)
(5.32057e+07 -9.06144e+06 -1.71266e-09 5.06306e+06 3.50338e-11 1.74806e+07)
(4.92104e+07 -587653 -3.59325e-09 1.04966e+07 -4.73801e-10 1.79121e+07)
(4.92975e+07 -1.78071e+06 -4.844e-09 1.03468e+07 4.72648e-10 1.78933e+07)
(4.94893e+07 -2.90373e+06 2.66393e-09 1.00703e+07 9.96597e-10 1.78679e+07)
(4.97518e+07 -3.99859e+06 -5.2155e-09 9.64425e+06 -1.55285e-11 1.78188e+07)
(5.01386e+07 -4.96881e+06 -1.73925e-09 9.13197e+06 -6.55563e-12 1.77812e+07)
(5.05798e+07 -5.87638e+06 1.73779e-09 8.49193e+06 5.41078e-12 1.77215e+07)
(5.1166e+07 -6.60633e+06 5.33861e-10 7.81213e+06 -6.33152e-10 1.76934e+07)
(5.17876e+07 -7.25778e+06 4.38626e-10 7.04175e+06 -6.82104e-10 1.76488e+07)
(5.25697e+07 -7.6821e+06 1.47718e-09 6.27212e+06 7.45305e-10 1.76526e+07)
(5.33379e+07 -8.0359e+06 1.53335e-09 5.4553e+06 7.97718e-10 1.7638e+07)
(5.04605e+07 -506544 -1.88356e-09 1.11601e+07 -4.74443e-10 1.84862e+07)
(5.05205e+07 -1.53419e+06 -2.60958e-09 1.10041e+07 -1.44856e-09 1.84574e+07)
(5.0656e+07 -2.50316e+06 2.32028e-09 1.07122e+07 5.27665e-10 1.84105e+07)
(5.08387e+07 -3.44696e+06 2.92661e-09 1.02675e+07 1.07413e-09 1.83319e+07)
(5.11153e+07 -4.28711e+06 -1.56082e-09 9.72652e+06 -1.10537e-09 1.82525e+07)
(5.14263e+07 -5.06986e+06 -1.06615e-10 9.05673e+06 -1.13346e-09 1.81449e+07)
(5.18515e+07 -5.70647e+06 -1.7057e-09 8.34001e+06 -5.14514e-11 1.80574e+07)
(5.22931e+07 -6.2638e+06 1.1736e-09 7.53243e+06 6.86215e-10 1.79477e+07)
(5.28716e+07 -6.63764e+06 1.72662e-09 6.72322e+06 5.6071e-11 1.78784e+07)
(5.3415e+07 -6.92483e+06 6.90172e-09 5.86908e+06 1.26956e-09 1.77852e+07)
(5.15458e+07 -424153 5.29963e-09 1.21223e+07 -4.10569e-10 1.91004e+07)
(5.15829e+07 -1.28545e+06 1.5632e-09 1.19522e+07 -4.20857e-10 1.90605e+07)
(5.16685e+07 -2.0978e+06 -1.79546e-09 1.16274e+07 -5.8893e-11 1.89888e+07)
(5.17824e+07 -2.89065e+06 2.3757e-09 1.11427e+07 5.82483e-10 1.88775e+07)
(5.19585e+07 -3.59616e+06 -3.35606e-11 1.05411e+07 -3.34025e-12 1.87499e+07)
(5.21563e+07 -4.25471e+06 -8.70437e-10 9.81144e+06 4.78719e-10 1.85903e+07)
(5.24306e+07 -4.78701e+06 -1.83327e-09 9.01603e+06 -1.26386e-10 1.8434e+07)
(5.27203e+07 -5.25279e+06 -3.22961e-09 8.13574e+06 -2.03527e-09 1.82568e+07)
(5.30986e+07 -5.55562e+06 -6.19537e-10 7.24496e+06 -1.34807e-09 1.81031e+07)
(5.34662e+07 -5.78443e+06 5.18699e-09 6.31019e+06 3.58423e-09 1.79329e+07)
(5.2447e+07 -325462 3.71539e-09 1.33632e+07 4.53189e-10 1.97431e+07)
(5.24655e+07 -986438 2.02966e-09 1.31728e+07 4.81808e-10 1.96915e+07)
(5.25116e+07 -1.61087e+06 3.8775e-10 1.28059e+07 4.42809e-10 1.95952e+07)
(5.25692e+07 -2.22154e+06 5.06512e-10 1.22625e+07 4.69789e-10 1.94495e+07)
(5.2665e+07 -2.76637e+06 1.79325e-09 1.15818e+07 1.60687e-10 1.92741e+07)
(5.27669e+07 -3.27727e+06 -7.83921e-10 1.07625e+07 -5.5497e-10 1.90588e+07)
(5.29192e+07 -3.68955e+06 9.00609e-10 9.86202e+06 -4.00765e-10 1.88344e+07)
(5.30712e+07 -4.05435e+06 7.60588e-10 8.87411e+06 -4.51398e-10 1.85836e+07)
(5.32883e+07 -4.28338e+06 -1.69656e-09 7.86729e+06 -2.07747e-10 1.83467e+07)
(5.34811e+07 -4.46298e+06 -3.99327e-09 6.82547e+06 1.37871e-10 1.8092e+07)
(5.306e+07 -219463 -3.61697e-09 1.51174e+07 -5.96059e-11 2.04532e+07)
(5.30662e+07 -666345 3.8282e-09 1.48958e+07 5.3416e-10 2.03886e+07)
(5.3084e+07 -1.08845e+06 3.34315e-10 1.44626e+07 3.78772e-10 2.0264e+07)
(5.31041e+07 -1.50389e+06 3.59317e-09 1.38279e+07 3.86008e-10 2.00796e+07)
(5.31423e+07 -1.87408e+06 -1.78775e-09 1.30185e+07 -2.36066e-10 1.98482e+07)
(5.31801e+07 -2.2251e+06 4.25241e-09 1.20561e+07 1.0448e-09 1.95709e+07)
(5.32434e+07 -2.50495e+06 -4.32856e-09 1.09725e+07 -1.15694e-09 1.92648e+07)
(5.33031e+07 -2.75671e+06 -8.43229e-10 9.8077e+06 -6.11326e-10 1.89332e+07)
(5.33963e+07 -2.90601e+06 1.3669e-10 8.57742e+06 1.04154e-09 1.85921e+07)