/*--------------------------------*- C++ -*----------------------------------*\
| =========                 |                                                 |
| \\      /  F ield         | OpenFOAM: The Open Source CFD Toolbox           |
|  \\    /   O peration     | Version:  v2012                                 |
|   \\  /    A nd           | Website:  www.openfoam.com                      |
|    \\/     M anipulation  |                                                 |
\*---------------------------------------------------------------------------*/
FoamFile
{
    version     2.0;
    format      ascii;
    class       volScalarField;
    location    "11";
    object      epsilonEq;
}
// * * * * * * * * * * * * * * * * * * * * * * * * * * * * * * * * * * * * * //

dimensions      [0 0 0 0 0 0 0];


internalField   nonuniform List<scalar> 
1000
(
0.013213
0.0123379
0.011225
0.00985086
0.00836026
0.00691837
0.00557691
0.00449453
0.0036064
0.00300291
0.0126916
0.0115132
0.0100432
0.00855233
0.00709406
0.00585619
0.00478859
0.00401754
0.00344164
0.00312137
0.0110185
0.00928548
0.00737814
0.0060504
0.00497384
0.00433586
0.0038856
0.00368389
0.00357698
0.00352924
0.00786727
0.00581157
0.0042055
0.00357193
0.00318936
0.00325469
0.00333544
0.00354577
0.00363611
0.00363427
0.00450931
0.00310081
0.00254022
0.00254904
0.00257178
0.0027926
0.00292094
0.00312341
0.00314144
0.0031585
0.00264692
0.00231046
0.00232512
0.00237528
0.0024235
0.002521
0.00257568
0.00265312
0.00267394
0.00271595
0.00218877
0.00208528
0.00211753
0.00215819
0.0022474
0.00235511
0.00242395
0.0025093
0.00254378
0.00258437
0.00175887
0.001721
0.001836
0.00196634
0.00209474
0.00222102
0.00230231
0.00238585
0.00241882
0.00246455
0.00129476
0.00142803
0.00161877
0.00179853
0.00194802
0.00208398
0.00217465
0.00226263
0.00230826
0.00234983
0.000822245
0.00109367
0.00138383
0.00161202
0.00180164
0.00193874
0.00205491
0.00212583
0.00220154
0.00222898
0.000432095
0.000849999
0.0011931
0.00144626
0.00164446
0.00178818
0.0019039
0.00198309
0.00205249
0.00210597
0.000340105
0.000739889
0.00107037
0.00133158
0.00151875
0.00167523
0.00177111
0.00186936
0.00190212
0.00197661
0.000638201
0.000775565
0.000993148
0.00121367
0.00136886
0.00151496
0.00159493
0.0016923
0.00171336
0.00178917
0.000986169
0.000932419
0.000999242
0.00114805
0.00124926
0.0013755
0.00142861
0.00152163
0.00152897
0.0016041
0.00130739
0.00112118
0.00105049
0.00110373
0.00114024
0.00123033
0.00125608
0.00133575
0.00133125
0.00139848
0.0015816
0.00130667
0.00113263
0.00109163
0.00105987
0.00110093
0.00109792
0.00115386
0.00114229
0.00119419
0.00180972
0.00146793
0.00121857
0.00109345
0.000997017
0.00097948
0.000943216
0.000965894
0.000942895
0.000973797
0.00198137
0.00159463
0.00129475
0.00110618
0.000957356
0.00088139
0.000812485
0.000793775
0.000759646
0.000762765
0.0020989
0.0016818
0.00134979
0.00111757
0.000931145
0.000805891
0.000705931
0.00064284
0.000593003
0.000562482
0.00215735
0.00172601
0.00137886
0.00112538
0.000920073
0.000767009
0.000648225
0.000553083
0.000490664
0.00042941
0.000389066
0.000534199
0.000745633
0.000958341
0.00118005
0.00137356
0.00157471
0.00174327
0.001929
0.00211066
0.000365354
0.00050459
0.000709325
0.000915381
0.00113438
0.00132289
0.00151522
0.00166214
0.00180519
0.00193035
0.000364412
0.000485307
0.000667819
0.000854992
0.00105569
0.00124135
0.00143087
0.00161214
0.00176246
0.00190618
0.000415659
0.000517938
0.000678255
0.000850145
0.00102764
0.00119378
0.00134504
0.00149913
0.00162402
0.00177168
0.000446845
0.000529388
0.000662498
0.000819386
0.000981208
0.00115194
0.00130224
0.00146549
0.00158355
0.00170931
0.000510034
0.000577664
0.000687142
0.000823073
0.000957539
0.00110479
0.00122969
0.00137558
0.00149009
0.00161745
0.000561241
0.000616011
0.000706212
0.000828219
0.000950511
0.00109185
0.00121096
0.00134637
0.0014503
0.00156179
0.000619819
0.000663734
0.00073611
0.000837646
0.000939424
0.00106058
0.00116594
0.00128868
0.00138951
0.00149631
0.00067892
0.000714942
0.000775571
0.000863631
0.000954547
0.00106281
0.00115911
0.00126712
0.00135828
0.00145302
0.000730516
0.000759159
0.000808219
0.000880379
0.000957378
0.00104989
0.00113627
0.00123322
0.00131828
0.00140611
0.000787462
0.000811031
0.000852421
0.000913308
0.00098042
0.00105976
0.00113636
0.00121976
0.00129624
0.00137327
0.000830944
0.000849812
0.000883874
0.000933787
0.000991137
0.00105853
0.00112667
0.0012
0.00126903
0.00133891
0.000878574
0.000894083
0.000922642
0.000964159
0.001013
0.00106976
0.00112867
0.00119086
0.00125239
0.00131012
0.0009112
0.000923823
0.000947453
0.000981882
0.00102324
0.00107164
0.00112278
0.00117707
0.00123178
0.00128359
0.000943738
0.00095411
0.000973889
0.00100238
0.00103734
0.00107781
0.00112148
0.0011675
0.00121425
0.00125991
0.000960984
0.000969555
0.000986094
0.00100993
0.00103968
0.0010741
0.00111207
0.0011515
0.0011931
0.00123178
0.000971812
0.000979
0.000993123
0.00101328
0.00103889
0.00106844
0.00110135
0.00113595
0.00117181
0.00120691
0.000966702
0.000972898
0.000985233
0.00100281
0.00102551
0.00105173
0.00108145
0.00111264
0.00114556
0.00117752
0.000946445
0.000952119
0.000963687
0.000980003
0.00100178
0.00102669
0.00105612
0.00108647
0.00112021
0.00115182
0.000908443
0.000914107
0.000925807
0.000942342
0.000964879
0.00099076
0.00102218
0.00105458
0.00109166
0.00112653
0.00219338
0.00216834
0.00222215
0.0022322
0.00227749
0.00229683
0.00232661
0.00234943
0.00236969
0.00238859
0.0024096
0.00242801
0.0024525
0.00247478
0.00250826
0.00254103
0.00259137
0.00264475
0.00272119
0.00282471
0.00204878
0.00209127
0.00214176
0.00216488
0.0021941
0.00222335
0.00224622
0.00227432
0.00230222
0.00232409
0.00235224
0.00237876
0.0024123
0.00244543
0.0024898
0.00253372
0.0025946
0.00265701
0.00273904
0.00285608
0.00196818
0.00199676
0.00203196
0.00206053
0.00208848
0.00210996
0.00214369
0.00218858
0.00220084
0.00222459
0.00226373
0.00229434
0.00233686
0.00237543
0.00242591
0.0024752
0.00253788
0.00260157
0.00268064
0.00276874
0.00185728
0.00190262
0.00194716
0.00197751
0.00201843
0.00204573
0.00208651
0.00211098
0.00214419
0.00217739
0.00221482
0.00224945
0.00229196
0.00233204
0.00238139
0.00242997
0.00248853
0.00254747
0.00261842
0.00268705
0.00178031
0.00182325
0.00185829
0.0018925
0.00192604
0.00195762
0.0019911
0.00202383
0.0020567
0.00208858
0.00212622
0.00216079
0.00220329
0.002243
0.00229156
0.00233847
0.00239489
0.00245073
0.00251721
0.00258322
0.00169461
0.00173933
0.0017791
0.00181584
0.00185445
0.00188746
0.00192499
0.00195649
0.00199272
0.00202549
0.00206267
0.00209731
0.0021371
0.00217503
0.00221899
0.00226191
0.00231182
0.00236154
0.00241961
0.00247821
0.00163331
0.00167424
0.00170998
0.0017463
0.0017804
0.00181393
0.00184717
0.00187921
0.00191237
0.00194397
0.00197824
0.00201069
0.00204711
0.00208171
0.00212137
0.00215943
0.00220351
0.0022465
0.00229615
0.00234573
0.00156902
0.00160735
0.00164454
0.00168048
0.00171562
0.00174869
0.00178227
0.00181335
0.00184591
0.00187599
0.0019083
0.0019383
0.00197116
0.00200215
0.00203626
0.00206958
0.0021055
0.00214279
0.00218381
0.0022243
0.00152049
0.00155496
0.00158914
0.00162273
0.00165443
0.00168559
0.00171548
0.00174467
0.00177331
0.00180114
0.00182906
0.00185624
0.00188398
0.00191129
0.00193945
0.00196768
0.00199704
0.00202707
0.00205852
0.00209094
0.00147127
0.00150217
0.0015358
0.00156704
0.00159792
0.00162696
0.00165545
0.00168249
0.00170904
0.00173434
0.00175943
0.00178331
0.00180747
0.00183028
0.00185422
0.00187629
0.00190099
0.00192262
0.0019465
0.00197073
0.0014324
0.00146102
0.00149018
0.00151872
0.00154601
0.00157218
0.00159743
0.00162142
0.00164473
0.0016667
0.00168825
0.00170838
0.0017284
0.00174692
0.00176568
0.00178291
0.00180072
0.00181719
0.00183436
0.00185071
0.00139193
0.00141718
0.00144714
0.00147104
0.00149715
0.00152025
0.00154341
0.00156487
0.00158559
0.00160498
0.00162357
0.00164074
0.00165733
0.00167226
0.00168693
0.00169973
0.0017125
0.00172356
0.00173431
0.00174428
0.00136152
0.00139081
0.0014068
0.00142677
0.00145138
0.00147099
0.00149207
0.00151035
0.00152861
0.00154498
0.00156076
0.00157485
0.0015882
0.0015998
0.00161059
0.00161962
0.00162752
0.00163419
0.00163939
0.00164359
0.00132853
0.00134538
0.00136673
0.00138732
0.00140711
0.00142565
0.00144343
0.00145998
0.00147559
0.00148974
0.00150324
0.00151499
0.00152588
0.00153488
0.00154286
0.00154848
0.00155342
0.00155611
0.0015569
0.0015562
0.00129665
0.00131394
0.00133191
0.00134914
0.0013662
0.0013819
0.00139746
0.00141155
0.00142512
0.00143745
0.00144893
0.0014589
0.00146798
0.00147499
0.00148145
0.00148461
0.00148587
0.00148635
0.00148357
0.00147878
0.00126455
0.00127801
0.00129547
0.00130993
0.00132569
0.00133959
0.00135356
0.00136696
0.00137848
0.00138861
0.00139974
0.00140861
0.0014164
0.00142318
0.00142711
0.00142698
0.00143005
0.00142865
0.00142289
0.00141505
0.00123429
0.0012471
0.00126169
0.00127517
0.00128858
0.00130128
0.0013144
0.00132535
0.00133539
0.00134666
0.00135618
0.00136443
0.0013712
0.00137754
0.00138063
0.00138423
0.00138432
0.00138187
0.00137542
0.00136665
0.00120243
0.00121459
0.00122822
0.00124095
0.00125355
0.00126544
0.00127806
0.00128809
0.00129984
0.00131052
0.00131891
0.00132744
0.00133451
0.00134055
0.00134524
0.00134765
0.00134874
0.00134686
0.0013413
0.00133234
0.00117717
0.00118982
0.00120373
0.00121697
0.00122774
0.00124164
0.00125771
0.0012663
0.00127739
0.00128741
0.00129617
0.00130503
0.00131177
0.00131861
0.00132302
0.00132712
0.00132861
0.00132875
0.00132571
0.00132009
0.00115418
0.00116905
0.00118474
0.00119981
0.00121247
0.00123161
0.00124706
0.00125519
0.00126939
0.00127854
0.00128923
0.0012971
0.001305
0.00131069
0.00131597
0.00131918
0.00132187
0.00132261
0.00132265
0.00132059
0.00271042
0.00258086
0.00246384
0.00237268
0.00228653
0.00221476
0.00213423
0.0020625
0.00198081
0.0019053
0.00181879
0.00173537
0.0016391
0.00154292
0.00143097
0.00131621
0.00118157
0.00104116
0.000875496
0.000700714
0.00292408
0.00280989
0.0027118
0.00263567
0.00255004
0.00245914
0.00236042
0.00227943
0.00218584
0.0021
0.00200378
0.00191032
0.00180564
0.00170057
0.0015819
0.00146021
0.00132181
0.00117818
0.00101474
0.000845045
0.00339872
0.00332814
0.00321085
0.00307859
0.00291804
0.00276832
0.00266911
0.00256199
0.0024436
0.0023447
0.00223577
0.00213555
0.0020251
0.00191664
0.00179666
0.00167447
0.00153922
0.0013998
0.00124686
0.00109037
0.00351846
0.00348304
0.00337993
0.00328662
0.00316443
0.00306408
0.00292764
0.00278299
0.00267894
0.00257828
0.00247026
0.00236974
0.00225878
0.00215139
0.002034
0.00191581
0.00178885
0.00165935
0.00152394
0.00138766
0.0031028
0.00317409
0.00316673
0.00316992
0.00311879
0.00307139
0.00298107
0.00289719
0.00279242
0.00272253
0.00264811
0.00256544
0.00247492
0.00237872
0.0022777
0.00217169
0.002065
0.00195602
0.00185369
0.00175443
0.0027125
0.00284064
0.00284304
0.00287175
0.00284294
0.00283652
0.00278967
0.00275776
0.00273319
0.00271322
0.00267018
0.0026181
0.00255656
0.0024856
0.00241348
0.00233444
0.00226102
0.00218646
0.00212695
0.00207346
0.00258407
0.00264609
0.00263506
0.0026643
0.00265715
0.00267633
0.00267509
0.00268833
0.00269052
0.00268205
0.00266615
0.0026353
0.00260184
0.00255534
0.00251117
0.00245877
0.00241529
0.00237132
0.00234673
0.00233012
0.00245801
0.00252385
0.00252348
0.00254926
0.00255074
0.00256042
0.00256661
0.00256899
0.00257768
0.00257534
0.0025777
0.00256604
0.00255893
0.0025396
0.00252671
0.00250693
0.00249818
0.0024904
0.00250174
0.00252138
0.00236289
0.00242397
0.00245481
0.00248037
0.00250709
0.00251609
0.00253539
0.00253757
0.00255045
0.00254895
0.00255597
0.0025515
0.00255364
0.00254832
0.00254972
0.00254901
0.00255781
0.00257031
0.0025991
0.0026328
0.00224842
0.00227671
0.00232516
0.00234735
0.0023908
0.00240886
0.00244152
0.00245598
0.00247916
0.0024903
0.00250679
0.00251548
0.00252876
0.00253813
0.00255383
0.0025705
0.00259759
0.00263112
0.00268316
0.00274235
)
;

boundaryField
{
    back
    {
        type            empty;
    }
    left
    {
        type            symmetry;
    }
    hole
    {
        type            calculated;
        value           nonuniform List<scalar> 
20
(
0.0132884
0.0127698
0.0111035
0.00797194
0.00459686
0.00267107
0.0021892
0.00175736
0.00126648
0.000764826
0.000296962
0.00016735
0.000590375
0.000973346
0.00131281
0.00159751
0.00183271
0.00200888
0.00212922
0.002189
)
;
    }
    front
    {
        type            empty;
    }
    down
    {
        type            symmetry;
    }
    right
    {
        type            calculated;
        value           nonuniform List<scalar> 
30
(
0.00090893
0.000914511
0.000925995
0.000942326
0.000964504
0.000990173
0.00102121
0.00105353
0.00109033
0.00112537
0.00115295
0.00116812
0.00118421
0.00119921
0.00121362
0.00122949
0.00124444
0.00125506
0.00126844
0.00127829
0.00128891
0.00129692
0.00130489
0.00131057
0.0013159
0.0013191
0.00132191
0.00132282
0.00132342
0.00132241
)
;
    }
    up
    {
        type            calculated;
        value           nonuniform List<scalar> 
30
(
0.00282808
0.00286046
0.00277049
0.00268742
0.00258373
0.00247862
0.00234603
0.00222427
0.00209087
0.00197081
0.00185061
0.00174409
0.00164341
0.00155598
0.00147871
0.00141502
0.00136639
0.00133232
0.00132004
0.00132066
0.000699485
0.000842938
0.00108778
0.00138471
0.00175217
0.00207225
0.00232978
0.00252152
0.00263285
0.00274241
)
;
    }
}


// ************************************************************************* //
