/*--------------------------------*- C++ -*----------------------------------*\
| =========                 |                                                 |
| \\      /  F ield         | OpenFOAM: The Open Source CFD Toolbox           |
|  \\    /   O peration     | Version:  v2012                                 |
|   \\  /    A nd           | Website:  www.openfoam.com                      |
|    \\/     M anipulation  |                                                 |
\*---------------------------------------------------------------------------*/
FoamFile
{
    version     2.0;
    format      ascii;
    class       volScalarField;
    location    "11";
    object      sigmaEq;
}
// * * * * * * * * * * * * * * * * * * * * * * * * * * * * * * * * * * * * * //

dimensions      [1 -1 -2 0 0 0 0];


internalField   nonuniform List<scalar> 
1000
(
1.97972e+08
2.046e+08
2.09575e+08
2.1305e+08
2.16136e+08
2.18177e+08
2.19943e+08
2.21354e+08
2.22924e+08
2.23884e+08
1.99122e+08
2.05739e+08
2.11377e+08
2.1455e+08
2.1743e+08
2.18997e+08
2.20056e+08
2.21224e+08
2.21215e+08
2.22446e+08
2.01221e+08
2.07504e+08
2.12807e+08
2.15921e+08
2.18067e+08
2.19428e+08
2.20143e+08
2.20826e+08
2.21189e+08
2.22814e+08
2.04648e+08
2.08049e+08
2.11681e+08
2.15208e+08
2.15934e+08
2.18597e+08
2.19116e+08
2.21042e+08
2.22067e+08
2.23101e+08
2.07835e+08
2.09452e+08
2.05172e+08
2.05884e+08
2.07721e+08
2.18238e+08
2.18756e+08
2.20637e+08
2.2035e+08
2.2142e+08
2.10754e+08
1.86614e+08
1.87798e+08
1.9185e+08
1.95744e+08
2.03619e+08
2.08036e+08
2.1429e+08
2.15972e+08
2.19113e+08
1.76785e+08
1.68427e+08
1.71031e+08
1.74315e+08
1.81521e+08
1.9022e+08
1.9578e+08
2.02674e+08
2.05459e+08
2.08738e+08
1.42062e+08
1.39004e+08
1.48292e+08
1.5882e+08
1.6919e+08
1.7939e+08
1.85956e+08
1.92703e+08
1.95366e+08
1.99059e+08
1.04577e+08
1.15341e+08
1.30747e+08
1.45266e+08
1.5734e+08
1.68322e+08
1.75645e+08
1.82751e+08
1.86437e+08
1.89794e+08
6.64121e+07
8.83346e+07
1.11771e+08
1.30202e+08
1.45517e+08
1.5659e+08
1.65973e+08
1.71702e+08
1.77817e+08
1.80033e+08
3.49e+07
6.86537e+07
9.63654e+07
1.16813e+08
1.32822e+08
1.4443e+08
1.53776e+08
1.60172e+08
1.65778e+08
1.70097e+08
2.747e+07
5.97603e+07
8.6453e+07
1.07551e+08
1.22668e+08
1.35307e+08
1.43051e+08
1.50987e+08
1.53633e+08
1.59649e+08
5.1547e+07
6.26418e+07
8.02158e+07
9.80269e+07
1.10562e+08
1.22362e+08
1.28821e+08
1.36685e+08
1.38387e+08
1.4451e+08
7.96521e+07
7.53107e+07
8.0708e+07
9.27271e+07
1.00902e+08
1.11098e+08
1.15387e+08
1.22901e+08
1.23494e+08
1.29562e+08
1.05597e+08
9.05565e+07
8.48471e+07
8.91473e+07
9.20964e+07
9.9373e+07
1.01453e+08
1.07887e+08
1.07524e+08
1.12954e+08
1.27745e+08
1.05539e+08
9.14818e+07
8.81704e+07
8.56052e+07
8.89213e+07
8.86784e+07
9.3196e+07
9.22617e+07
9.64538e+07
1.4617e+08
1.18564e+08
9.84231e+07
8.83175e+07
8.05283e+07
7.91118e+07
7.61829e+07
7.80145e+07
7.61569e+07
7.86528e+07
1.60034e+08
1.28797e+08
1.04576e+08
8.93451e+07
7.73249e+07
7.11892e+07
6.56238e+07
6.41126e+07
6.13561e+07
6.1608e+07
1.69526e+08
1.35838e+08
1.09021e+08
9.02651e+07
7.52079e+07
6.50912e+07
5.70175e+07
5.19217e+07
4.78964e+07
4.54312e+07
1.74248e+08
1.39409e+08
1.11369e+08
9.08964e+07
7.43136e+07
6.19507e+07
5.23567e+07
4.46721e+07
3.96305e+07
3.46831e+07
3.14246e+07
4.31468e+07
6.02242e+07
7.74044e+07
9.5312e+07
1.10942e+08
1.27188e+08
1.40802e+08
1.55803e+08
1.70477e+08
2.95094e+07
4.07554e+07
5.72916e+07
7.39347e+07
9.16233e+07
1.06849e+08
1.22383e+08
1.3425e+08
1.45804e+08
1.55913e+08
2.94332e+07
3.91979e+07
5.39392e+07
6.90571e+07
8.52672e+07
1.00263e+08
1.1557e+08
1.30211e+08
1.42353e+08
1.53961e+08
3.35725e+07
4.18334e+07
5.47822e+07
6.86655e+07
8.30015e+07
9.64207e+07
1.08638e+08
1.21083e+08
1.31171e+08
1.43097e+08
3.60913e+07
4.27582e+07
5.35094e+07
6.61811e+07
7.92514e+07
9.30409e+07
1.05181e+08
1.18367e+08
1.27902e+08
1.3806e+08
4.11951e+07
4.66575e+07
5.54999e+07
6.6479e+07
7.73397e+07
8.92333e+07
9.9321e+07
1.11105e+08
1.20353e+08
1.3064e+08
4.5331e+07
4.97547e+07
5.70402e+07
6.68946e+07
7.67721e+07
8.81881e+07
9.78081e+07
1.08745e+08
1.1714e+08
1.26144e+08
5.00623e+07
5.36093e+07
5.94551e+07
6.7656e+07
7.58765e+07
8.56625e+07
9.41719e+07
1.04085e+08
1.1223e+08
1.20856e+08
5.48359e+07
5.77453e+07
6.26423e+07
6.97548e+07
7.7098e+07
8.58426e+07
9.36206e+07
1.02344e+08
1.09708e+08
1.1736e+08
5.90032e+07
6.13167e+07
6.52792e+07
7.11075e+07
7.73267e+07
8.47987e+07
9.17758e+07
9.9606e+07
1.06476e+08
1.1357e+08
6.36027e+07
6.55063e+07
6.88494e+07
7.37672e+07
7.91878e+07
8.55957e+07
9.17829e+07
9.85187e+07
1.04696e+08
1.10918e+08
6.71147e+07
6.86386e+07
7.13898e+07
7.54213e+07
8.00533e+07
8.54964e+07
9.09999e+07
9.6923e+07
1.02498e+08
1.08142e+08
7.09618e+07
7.22144e+07
7.4521e+07
7.78744e+07
8.18192e+07
8.64034e+07
9.11616e+07
9.61846e+07
1.01154e+08
1.05818e+08
7.35969e+07
7.46165e+07
7.65251e+07
7.93059e+07
8.26465e+07
8.65555e+07
9.0686e+07
9.50714e+07
9.94901e+07
1.03675e+08
7.6225e+07
7.70627e+07
7.86602e+07
8.09615e+07
8.37848e+07
8.70535e+07
9.05814e+07
9.42981e+07
9.80741e+07
1.01762e+08
7.76179e+07
7.83102e+07
7.96461e+07
8.15716e+07
8.39738e+07
8.67542e+07
8.9821e+07
9.3006e+07
9.63658e+07
9.94899e+07
7.84925e+07
7.90731e+07
8.02138e+07
8.18418e+07
8.391e+07
8.62969e+07
8.89553e+07
9.17495e+07
9.46464e+07
9.74813e+07
7.80798e+07
7.85802e+07
7.95765e+07
8.09959e+07
8.28298e+07
8.49477e+07
8.7348e+07
8.98675e+07
9.2526e+07
9.51074e+07
7.64437e+07
7.69019e+07
7.78363e+07
7.91541e+07
8.09128e+07
8.29251e+07
8.53023e+07
8.77534e+07
9.04787e+07
9.30316e+07
7.33742e+07
7.38317e+07
7.47767e+07
7.61122e+07
7.79325e+07
8.00229e+07
8.25605e+07
8.5178e+07
8.81729e+07
9.09887e+07
1.77158e+08
1.75136e+08
1.79482e+08
1.80293e+08
1.83951e+08
1.85513e+08
1.87918e+08
1.89761e+08
1.91398e+08
1.92924e+08
1.94622e+08
1.96108e+08
1.98087e+08
1.99886e+08
2.0259e+08
2.05237e+08
2.09303e+08
2.13614e+08
2.19788e+08
2.22312e+08
1.65478e+08
1.6891e+08
1.72989e+08
1.74855e+08
1.77216e+08
1.79578e+08
1.81426e+08
1.83695e+08
1.85948e+08
1.87715e+08
1.89989e+08
1.92131e+08
1.94839e+08
1.97516e+08
2.011e+08
2.04647e+08
2.09564e+08
2.14605e+08
2.2123e+08
2.21922e+08
1.58968e+08
1.61277e+08
1.6412e+08
1.66428e+08
1.68685e+08
1.7042e+08
1.73144e+08
1.7677e+08
1.77761e+08
1.79678e+08
1.8284e+08
1.85312e+08
1.88747e+08
1.91862e+08
1.95939e+08
1.9992e+08
2.04983e+08
2.10127e+08
2.16514e+08
2.21144e+08
1.50011e+08
1.53673e+08
1.57271e+08
1.59722e+08
1.63027e+08
1.65232e+08
1.68526e+08
1.70502e+08
1.73184e+08
1.75866e+08
1.78889e+08
1.81686e+08
1.8512e+08
1.88357e+08
1.92343e+08
1.96267e+08
2.00997e+08
2.05757e+08
2.11488e+08
2.17031e+08
1.43794e+08
1.47262e+08
1.50093e+08
1.52856e+08
1.55564e+08
1.58116e+08
1.60819e+08
1.63463e+08
1.66118e+08
1.68693e+08
1.71733e+08
1.74525e+08
1.77958e+08
1.81165e+08
1.85088e+08
1.88876e+08
1.93433e+08
1.97944e+08
2.03313e+08
2.08645e+08
1.36872e+08
1.40485e+08
1.43696e+08
1.46664e+08
1.49782e+08
1.52449e+08
1.5548e+08
1.58024e+08
1.6095e+08
1.63597e+08
1.666e+08
1.69398e+08
1.72612e+08
1.75675e+08
1.79226e+08
1.82693e+08
1.86724e+08
1.9074e+08
1.9543e+08
2.00163e+08
1.31921e+08
1.35227e+08
1.38113e+08
1.41047e+08
1.43802e+08
1.46509e+08
1.49194e+08
1.51782e+08
1.54461e+08
1.57013e+08
1.59781e+08
1.62402e+08
1.65343e+08
1.68138e+08
1.71341e+08
1.74416e+08
1.77976e+08
1.81448e+08
1.85458e+08
1.89463e+08
1.26729e+08
1.29825e+08
1.32829e+08
1.35731e+08
1.38569e+08
1.4124e+08
1.43953e+08
1.46463e+08
1.49093e+08
1.51522e+08
1.54132e+08
1.56555e+08
1.59209e+08
1.61712e+08
1.64467e+08
1.67158e+08
1.7006e+08
1.73072e+08
1.76385e+08
1.79655e+08
1.22809e+08
1.25593e+08
1.28354e+08
1.31067e+08
1.33627e+08
1.36144e+08
1.38558e+08
1.40916e+08
1.43229e+08
1.45476e+08
1.47732e+08
1.49927e+08
1.52168e+08
1.54374e+08
1.56648e+08
1.58928e+08
1.61299e+08
1.63724e+08
1.66265e+08
1.68883e+08
1.18833e+08
1.21329e+08
1.24046e+08
1.26569e+08
1.29063e+08
1.31408e+08
1.3371e+08
1.35893e+08
1.38038e+08
1.40082e+08
1.42108e+08
1.44036e+08
1.45988e+08
1.4783e+08
1.49764e+08
1.51546e+08
1.53541e+08
1.55288e+08
1.57218e+08
1.59174e+08
1.15694e+08
1.18006e+08
1.20361e+08
1.22666e+08
1.2487e+08
1.26983e+08
1.29023e+08
1.30961e+08
1.32843e+08
1.34618e+08
1.36358e+08
1.37985e+08
1.39602e+08
1.41098e+08
1.42613e+08
1.44004e+08
1.45443e+08
1.46773e+08
1.4816e+08
1.4948e+08
1.12425e+08
1.14465e+08
1.16884e+08
1.18815e+08
1.20923e+08
1.2279e+08
1.2466e+08
1.26393e+08
1.28067e+08
1.29633e+08
1.31135e+08
1.32522e+08
1.33861e+08
1.35067e+08
1.36252e+08
1.37286e+08
1.38317e+08
1.3921e+08
1.40079e+08
1.40884e+08
1.09969e+08
1.12335e+08
1.13626e+08
1.15239e+08
1.17227e+08
1.18811e+08
1.20513e+08
1.2199e+08
1.23465e+08
1.24787e+08
1.26061e+08
1.27199e+08
1.28278e+08
1.29214e+08
1.30086e+08
1.30816e+08
1.31454e+08
1.31992e+08
1.32412e+08
1.32751e+08
1.07304e+08
1.08666e+08
1.1039e+08
1.12053e+08
1.13651e+08
1.15149e+08
1.16585e+08
1.17922e+08
1.19182e+08
1.20325e+08
1.21415e+08
1.22364e+08
1.23244e+08
1.23971e+08
1.24616e+08
1.2507e+08
1.25468e+08
1.25686e+08
1.2575e+08
1.25693e+08
1.04729e+08
1.06126e+08
1.07578e+08
1.08969e+08
1.10347e+08
1.11615e+08
1.12872e+08
1.1401e+08
1.15106e+08
1.16102e+08
1.17029e+08
1.17834e+08
1.18568e+08
1.19134e+08
1.19656e+08
1.19911e+08
1.20012e+08
1.20051e+08
1.19826e+08
1.1944e+08
1.02136e+08
1.03224e+08
1.04634e+08
1.05802e+08
1.07075e+08
1.08198e+08
1.09326e+08
1.10408e+08
1.11338e+08
1.12157e+08
1.13056e+08
1.13772e+08
1.14402e+08
1.14949e+08
1.15267e+08
1.15256e+08
1.15504e+08
1.15391e+08
1.14926e+08
1.14293e+08
9.96923e+07
1.00727e+08
1.01906e+08
1.02995e+08
1.04077e+08
1.05103e+08
1.06163e+08
1.07048e+08
1.07858e+08
1.08768e+08
1.09537e+08
1.10204e+08
1.10751e+08
1.11263e+08
1.11513e+08
1.11803e+08
1.11811e+08
1.11612e+08
1.11091e+08
1.10383e+08
9.71196e+07
9.81017e+07
9.92021e+07
1.00231e+08
1.01248e+08
1.02209e+08
1.03228e+08
1.04038e+08
1.04987e+08
1.0585e+08
1.06527e+08
1.07216e+08
1.07788e+08
1.08275e+08
1.08654e+08
1.08849e+08
1.08937e+08
1.08785e+08
1.08336e+08
1.07612e+08
9.50795e+07
9.61006e+07
9.72244e+07
9.82936e+07
9.9164e+07
1.00286e+08
1.01584e+08
1.02278e+08
1.03174e+08
1.03983e+08
1.04691e+08
1.05406e+08
1.05951e+08
1.06503e+08
1.06859e+08
1.0719e+08
1.07311e+08
1.07322e+08
1.07076e+08
1.06623e+08
9.32223e+07
9.44236e+07
9.56904e+07
9.69075e+07
9.79307e+07
9.9476e+07
1.00724e+08
1.0138e+08
1.02527e+08
1.03267e+08
1.0413e+08
1.04766e+08
1.05404e+08
1.05864e+08
1.0629e+08
1.0655e+08
1.06767e+08
1.06827e+08
1.06829e+08
1.06663e+08
2.18919e+08
2.08454e+08
1.99002e+08
1.91639e+08
1.84681e+08
1.78885e+08
1.7238e+08
1.66586e+08
1.59988e+08
1.53889e+08
1.46902e+08
1.40165e+08
1.32389e+08
1.2462e+08
1.15578e+08
1.06309e+08
9.54346e+07
8.40939e+07
7.07131e+07
5.65961e+07
2.23089e+08
2.23311e+08
2.1903e+08
2.12881e+08
2.05964e+08
1.98623e+08
1.9065e+08
1.84108e+08
1.76548e+08
1.69615e+08
1.61843e+08
1.54295e+08
1.4584e+08
1.37354e+08
1.27769e+08
1.1794e+08
1.06761e+08
9.51607e+07
8.19601e+07
6.82536e+07
2.22749e+08
2.23536e+08
2.23965e+08
2.24661e+08
2.24566e+08
2.23595e+08
2.15582e+08
2.0693e+08
1.97368e+08
1.8938e+08
1.80581e+08
1.72487e+08
1.63565e+08
1.54806e+08
1.45115e+08
1.35246e+08
1.24322e+08
1.13061e+08
1.00708e+08
8.8068e+07
2.22924e+08
2.2361e+08
2.23593e+08
2.23861e+08
2.23843e+08
2.24836e+08
2.2501e+08
2.24503e+08
2.16376e+08
2.08245e+08
1.99521e+08
1.91402e+08
1.8244e+08
1.73766e+08
1.64285e+08
1.54738e+08
1.44484e+08
1.34024e+08
1.23087e+08
1.1208e+08
2.20701e+08
2.21952e+08
2.2216e+08
2.22938e+08
2.23401e+08
2.24039e+08
2.24054e+08
2.247e+08
2.24638e+08
2.19896e+08
2.13886e+08
2.07209e+08
1.99898e+08
1.92127e+08
1.83968e+08
1.75406e+08
1.66789e+08
1.57987e+08
1.49721e+08
1.41704e+08
2.18471e+08
2.2049e+08
2.2e+08
2.20874e+08
2.2082e+08
2.21507e+08
2.21664e+08
2.21987e+08
2.20758e+08
2.19145e+08
2.15668e+08
2.11462e+08
2.06491e+08
2.0076e+08
1.94935e+08
1.88551e+08
1.82621e+08
1.76599e+08
1.71792e+08
1.67471e+08
2.08713e+08
2.13723e+08
2.12832e+08
2.15194e+08
2.14616e+08
2.16165e+08
2.16065e+08
2.17135e+08
2.17311e+08
2.16627e+08
2.15343e+08
2.12851e+08
2.10149e+08
2.06393e+08
2.02825e+08
1.98593e+08
1.95081e+08
1.9153e+08
1.89543e+08
1.88202e+08
1.98532e+08
2.03849e+08
2.0382e+08
2.05902e+08
2.06021e+08
2.06803e+08
2.07303e+08
2.07495e+08
2.08197e+08
2.08008e+08
2.08199e+08
2.07257e+08
2.06683e+08
2.05121e+08
2.04081e+08
2.02483e+08
2.01776e+08
2.01147e+08
2.02063e+08
2.0365e+08
1.90849e+08
1.95782e+08
1.98273e+08
2.00337e+08
2.02496e+08
2.03222e+08
2.04782e+08
2.04958e+08
2.05998e+08
2.05877e+08
2.06443e+08
2.06083e+08
2.06256e+08
2.05826e+08
2.05939e+08
2.05882e+08
2.06592e+08
2.07602e+08
2.09927e+08
2.12649e+08
1.81603e+08
1.83888e+08
1.87801e+08
1.89594e+08
1.93103e+08
1.94561e+08
1.972e+08
1.98367e+08
2.0024e+08
2.0114e+08
2.02471e+08
2.03173e+08
2.04246e+08
2.05003e+08
2.06271e+08
2.07617e+08
2.09805e+08
2.12514e+08
2.16717e+08
2.21497e+08
)
;

boundaryField
{
    back
    {
        type            empty;
    }
    left
    {
        type            symmetry;
    }
    hole
    {
        type            calculated;
        value           nonuniform List<scalar> 
20
(
1.96851e+08
1.97972e+08
1.99932e+08
2.031e+08
2.06462e+08
2.10328e+08
1.7682e+08
1.4194e+08
1.02293e+08
6.17744e+07
2.39854e+07
1.35167e+07
4.76841e+07
7.86164e+07
1.06035e+08
1.2903e+08
1.48026e+08
1.62255e+08
1.71976e+08
1.76804e+08
)
;
    }
    front
    {
        type            empty;
    }
    down
    {
        type            symmetry;
    }
    right
    {
        type            calculated;
        value           nonuniform List<scalar> 
30
(
7.34136e+07
7.38644e+07
7.47919e+07
7.6111e+07
7.79022e+07
7.99755e+07
8.24821e+07
8.50929e+07
8.80652e+07
9.0895e+07
9.31228e+07
9.43478e+07
9.56479e+07
9.68596e+07
9.80234e+07
9.93053e+07
1.00513e+08
1.0137e+08
1.02451e+08
1.03247e+08
1.04104e+08
1.04751e+08
1.05395e+08
1.05853e+08
1.06284e+08
1.06543e+08
1.06769e+08
1.06843e+08
1.06891e+08
1.0681e+08
)
;
    }
    up
    {
        type            calculated;
        value           nonuniform List<scalar> 
30
(
2.22173e+08
2.21724e+08
2.21077e+08
2.17061e+08
2.08686e+08
2.00196e+08
1.89487e+08
1.79653e+08
1.68878e+08
1.59181e+08
1.49472e+08
1.40869e+08
1.32737e+08
1.25676e+08
1.19434e+08
1.1429e+08
1.10363e+08
1.0761e+08
1.06618e+08
1.06669e+08
5.64969e+07
6.80834e+07
8.78592e+07
1.11842e+08
1.41521e+08
1.67374e+08
1.88174e+08
2.03661e+08
2.12653e+08
2.21502e+08
)
;
    }
}


// ************************************************************************* //
