/*--------------------------------*- C++ -*----------------------------------*\
| =========                 |                                                 |
| \\      /  F ield         | OpenFOAM: The Open Source CFD Toolbox           |
|  \\    /   O peration     | Version:  v2012                                 |
|   \\  /    A nd           | Website:  www.openfoam.com                      |
|    \\/     M anipulation  |                                                 |
\*---------------------------------------------------------------------------*/
FoamFile
{
    version     2.0;
    format      ascii;
    class       volScalarField;
    location    "12";
    object      sigmaEq;
}
// * * * * * * * * * * * * * * * * * * * * * * * * * * * * * * * * * * * * * //

dimensions      [1 -1 -2 0 0 0 0];


internalField   nonuniform List<scalar> 
1896
(
7.11857e+07
9.49878e+07
7.04673e+07
1.92876e+08
7.13168e+07
7.28667e+07
1.97603e+08
6.86531e+07
1.07841e+08
6.48554e+07
6.77142e+07
5.50574e+07
5.03948e+07
5.28143e+07
1.91626e+08
1.37834e+08
1.08467e+08
1.88572e+08
1.16442e+08
8.48536e+07
1.14351e+08
9.22889e+07
1.81992e+08
1.81669e+08
9.72422e+07
9.53454e+07
4.21678e+07
4.94952e+07
7.18755e+07
1.26709e+08
1.2712e+08
9.61013e+07
4.41685e+07
9.40521e+07
1.69641e+08
7.12728e+07
1.2192e+08
8.73414e+07
1.94242e+08
1.29533e+08
9.51855e+07
1.45392e+08
1.12538e+08
1.57307e+08
4.28016e+07
4.54304e+07
1.91212e+08
6.86865e+07
1.67539e+08
1.93876e+08
6.89293e+07
7.05089e+07
7.03765e+07
9.22985e+07
1.1924e+08
9.96937e+07
1.42177e+08
7.17257e+07
8.59024e+07
1.26516e+08
6.72711e+07
1.95527e+08
1.886e+08
7.97311e+07
5.14746e+07
9.61347e+07
1.67797e+08
7.55283e+07
8.63429e+07
1.76522e+08
2.98872e+07
1.84979e+08
8.62444e+07
9.97549e+07
1.72733e+08
9.48724e+07
9.48936e+07
7.89359e+07
7.94655e+07
9.64187e+07
1.19251e+08
1.77702e+08
5.09256e+07
6.74417e+07
6.75372e+07
1.05395e+08
8.55899e+07
8.07916e+07
1.34871e+08
1.00831e+08
8.68344e+07
1.62255e+08
9.16065e+07
1.70187e+08
1.91977e+08
9.52104e+07
9.23212e+07
6.70693e+07
9.38199e+07
9.00974e+07
9.65989e+07
7.61212e+07
7.79839e+07
1.02201e+08
1.21326e+08
1.06832e+08
1.03939e+08
1.69658e+08
1.64313e+08
1.58084e+08
6.82714e+07
9.2786e+07
1.561e+08
1.36578e+08
1.70382e+08
8.85842e+07
5.21371e+07
9.19871e+07
1.39923e+08
1.23871e+08
1.52786e+08
1.11889e+08
8.87641e+07
6.00072e+07
5.6533e+07
1.31817e+08
1.64916e+08
6.89571e+07
1.2002e+08
9.71223e+07
1.00031e+08
8.97245e+07
1.55249e+08
1.54158e+08
1.14455e+08
1.89523e+08
1.73833e+08
1.85086e+08
9.52193e+07
1.35601e+08
8.88572e+07
1.5898e+08
1.33793e+08
2.02378e+08
7.91381e+07
1.05533e+08
1.04283e+08
1.21226e+08
1.76541e+08
8.946e+07
5.0648e+07
9.10376e+07
8.91758e+07
8.27547e+07
8.34111e+07
1.47617e+08
5.37399e+07
1.49877e+08
1.70023e+08
6.78247e+07
7.12253e+07
1.83328e+08
1.13884e+08
8.34068e+07
1.99956e+08
6.46214e+07
1.34824e+08
6.96161e+07
6.98062e+07
9.32431e+07
9.31343e+07
9.73101e+07
5.45086e+07
4.93591e+07
1.87088e+08
1.8887e+08
1.71357e+08
9.58737e+07
6.90246e+07
1.13179e+08
4.93562e+07
1.27292e+08
8.29661e+07
1.72586e+08
1.89321e+08
1.99552e+08
9.1936e+07
2.04091e+08
1.39731e+08
6.43094e+07
1.7575e+08
6.95612e+07
1.5476e+08
1.96434e+08
8.19739e+07
6.61816e+07
1.09669e+08
1.60624e+08
6.0877e+07
5.5162e+07
8.40749e+07
1.24859e+08
6.87589e+07
8.44238e+07
2.02221e+08
8.13608e+07
1.64277e+08
1.53372e+08
1.38843e+08
1.0112e+08
1.84211e+08
1.1976e+08
1.03028e+08
1.0165e+08
6.28013e+07
1.05183e+08
1.16268e+08
1.44133e+08
1.44119e+08
1.29721e+08
6.46024e+07
8.48827e+07
2.00741e+08
1.67028e+08
9.06237e+07
1.35784e+08
1.72174e+08
1.02251e+08
1.69512e+08
9.49528e+07
1.34928e+08
6.78876e+07
6.87718e+07
6.65389e+07
9.46162e+07
7.53663e+07
7.53845e+07
1.6003e+08
2.06301e+08
1.2767e+08
1.59522e+08
1.70847e+08
6.66064e+07
2.04548e+08
9.092e+07
5.80692e+07
8.36705e+07
5.46582e+07
4.45613e+07
1.5372e+08
1.08595e+08
1.14404e+08
9.56884e+07
6.60551e+07
9.51429e+07
8.87151e+07
7.86943e+07
2.05528e+08
1.86217e+08
1.63271e+08
1.17492e+08
1.2021e+08
9.29454e+07
7.66335e+07
1.11851e+08
1.22389e+08
1.32549e+08
9.10583e+07
1.31861e+08
8.76719e+07
9.37822e+07
5.28474e+07
2.00036e+08
4.23631e+07
1.09384e+08
7.55773e+07
1.62089e+08
7.7646e+07
9.05949e+07
6.96926e+07
9.62641e+07
1.57021e+08
6.12882e+07
9.52598e+07
1.00314e+08
1.5953e+08
1.0074e+08
9.12677e+07
9.56713e+07
6.81326e+07
1.24357e+08
1.17511e+08
1.18117e+08
1.03574e+08
2.02964e+08
2.5213e+07
1.51006e+08
8.50991e+07
2.03569e+08
8.436e+07
2.0219e+08
1.20953e+08
1.79085e+08
2.00709e+08
8.84097e+07
7.6893e+07
7.90121e+07
5.62728e+07
5.37464e+07
8.96679e+07
8.32878e+07
9.82095e+07
4.89975e+07
6.87725e+07
9.31686e+07
1.19261e+08
5.95603e+07
8.6587e+07
1.16353e+08
8.26205e+07
7.92459e+07
1.81963e+08
1.82467e+08
1.19162e+08
6.75093e+07
1.06452e+08
1.16067e+08
6.44826e+07
7.49093e+07
9.16722e+07
7.96234e+07
1.16723e+08
6.75861e+07
9.46215e+07
6.32158e+07
1.31299e+08
6.60058e+07
1.84045e+08
7.38435e+07
9.33377e+07
1.24477e+08
8.19064e+07
1.29044e+08
1.1312e+08
5.54699e+07
1.1964e+08
1.15592e+08
1.6887e+08
8.68173e+07
9.84263e+07
6.21189e+07
7.53373e+07
1.3382e+08
1.043e+08
1.10472e+08
1.19466e+08
1.93941e+07
1.97138e+08
9.21891e+07
1.49579e+08
1.29629e+08
1.92378e+08
1.95401e+08
7.3376e+07
9.29161e+07
1.06048e+08
1.41357e+08
1.4218e+08
9.67596e+07
1.03522e+08
1.95952e+08
5.04041e+07
6.48765e+07
9.51137e+07
9.29461e+07
9.36565e+07
1.78709e+08
1.39281e+08
8.46138e+07
9.02566e+07
7.93748e+07
9.52958e+07
7.68006e+07
8.20399e+07
8.83009e+07
7.64375e+07
1.97955e+08
9.16205e+07
6.74146e+07
1.9812e+08
6.99092e+07
7.32047e+07
1.76944e+08
1.7553e+08
7.88997e+07
6.90288e+07
1.31919e+08
1.46812e+08
9.23432e+07
9.15423e+07
1.01013e+08
1.09217e+08
1.19034e+08
2.43152e+07
1.33324e+08
1.21378e+08
9.87022e+07
1.9205e+08
4.2177e+07
1.562e+08
1.15515e+08
6.1507e+07
5.87266e+07
1.74981e+08
1.47344e+08
1.47206e+08
8.36816e+07
1.94996e+08
1.16678e+08
7.44942e+07
1.27946e+08
6.45128e+07
9.51537e+07
1.83445e+08
1.32208e+08
9.5708e+07
7.12402e+07
1.31419e+08
1.93422e+08
1.93286e+08
7.40714e+07
1.26253e+08
1.15537e+08
1.00213e+08
1.37148e+08
1.31389e+08
9.74606e+07
1.92521e+08
1.33148e+08
8.39453e+07
1.38447e+08
1.28902e+08
8.24475e+07
1.97812e+08
6.60944e+07
9.49244e+07
8.22871e+07
7.5342e+07
7.39814e+07
1.16108e+08
1.92231e+08
1.00833e+08
1.00387e+08
7.79044e+07
1.00254e+08
6.11036e+07
8.10352e+07
1.25891e+08
9.02631e+07
7.18915e+07
1.66021e+08
8.86466e+07
1.38858e+08
1.28265e+08
1.17289e+08
1.82035e+08
1.41317e+08
1.40248e+08
7.03629e+07
1.82989e+08
7.51921e+07
6.4731e+07
1.03016e+08
8.97727e+07
8.80413e+07
8.52881e+07
1.23434e+08
6.15759e+07
9.36934e+07
1.19417e+08
9.22845e+07
6.42428e+07
8.35838e+07
7.61232e+07
8.18449e+07
2.00808e+08
6.3034e+07
1.33173e+08
9.74123e+07
1.26267e+08
1.4415e+08
9.89606e+07
1.19909e+08
7.43994e+07
1.96586e+08
1.77488e+08
9.43838e+07
1.03249e+08
5.59387e+07
1.11075e+08
9.08707e+07
9.61645e+07
7.04755e+07
1.62804e+08
7.31577e+07
5.61357e+07
5.44602e+07
1.36394e+08
9.70101e+07
1.40156e+08
1.06559e+08
1.21866e+08
4.06962e+07
7.65015e+07
9.21474e+07
1.67296e+08
5.03468e+07
9.59024e+07
7.96281e+07
8.02541e+07
6.90111e+07
9.14499e+07
1.86106e+08
7.11891e+07
1.87469e+08
8.77769e+07
8.26755e+07
1.85143e+08
9.11221e+07
8.94442e+07
7.12391e+07
8.59576e+07
5.56142e+07
1.2193e+08
7.81351e+07
5.56623e+07
9.80687e+07
9.62606e+07
7.91243e+07
1.67886e+08
1.83818e+08
3.3463e+07
1.25312e+08
7.4079e+07
7.49765e+07
9.83654e+07
1.43866e+08
6.89798e+07
8.32757e+07
8.27044e+07
6.61664e+07
1.76473e+08
1.40732e+08
1.16987e+08
5.03328e+07
1.71524e+08
1.29336e+08
1.55909e+08
9.58111e+07
1.66792e+08
1.74629e+08
9.21114e+07
1.04621e+08
1.88587e+08
8.80489e+07
2.01236e+08
3.97031e+07
1.0625e+08
1.29738e+08
9.00302e+07
9.58255e+07
5.20472e+07
4.04446e+07
1.86618e+08
1.48465e+08
1.80729e+08
7.57779e+07
1.17528e+08
1.41436e+08
7.71036e+07
9.245e+07
1.6743e+08
9.86331e+07
8.84494e+07
1.45544e+08
1.39251e+08
3.1568e+07
3.62353e+07
5.23048e+07
1.6037e+08
1.84093e+08
2.00687e+08
1.41294e+08
3.24181e+07
2.00378e+08
4.59435e+07
9.27664e+07
1.37028e+08
1.52538e+08
9.07066e+07
1.34461e+08
1.81394e+08
1.06762e+08
1.96589e+08
1.73463e+08
2.00193e+08
1.60803e+08
1.58049e+08
5.86578e+07
7.20451e+07
8.48436e+07
5.45457e+07
7.11285e+07
1.9756e+08
4.73526e+07
8.61704e+07
7.49166e+07
2.01015e+08
1.44877e+08
5.21729e+07
4.13799e+07
1.53603e+08
1.07025e+08
1.90933e+08
5.43375e+07
8.62252e+07
1.88205e+08
1.8594e+08
5.94718e+07
9.65259e+07
4.53659e+07
1.84121e+08
1.11841e+08
1.61026e+08
1.33583e+08
8.07391e+07
8.03985e+07
1.13887e+08
1.68406e+08
8.64414e+07
7.23374e+07
7.07811e+07
1.86638e+08
2.00389e+08
1.03585e+08
1.16654e+08
1.30155e+08
7.06501e+07
1.85621e+08
1.05733e+08
1.2352e+08
6.71434e+07
1.47243e+08
1.20492e+08
1.8838e+08
8.58148e+07
1.50556e+08
1.11192e+08
1.28486e+08
1.45645e+08
9.97117e+07
9.26016e+07
1.00582e+08
1.43339e+08
1.54066e+08
1.50081e+08
9.04851e+07
6.98519e+07
1.25113e+08
1.15253e+08
1.10104e+08
8.34677e+07
1.31711e+08
1.29162e+08
9.59183e+07
2.01344e+08
1.73837e+08
2.02982e+08
3.48655e+07
7.6862e+07
9.55707e+07
1.06977e+08
1.8764e+08
6.60424e+07
1.0918e+08
1.01534e+08
1.05977e+08
7.19267e+07
1.92502e+08
1.10432e+08
1.12465e+08
1.75364e+08
1.08702e+08
2.0313e+08
9.75401e+07
9.65432e+07
9.9834e+07
1.0345e+08
2.01279e+08
9.89198e+07
6.90355e+07
1.13342e+08
1.12991e+08
1.13641e+08
1.07438e+08
1.28826e+08
9.75799e+07
1.75183e+08
3.79611e+07
1.76984e+08
1.44483e+08
6.65281e+07
1.37961e+08
1.17705e+08
1.90982e+08
6.82797e+07
1.70717e+08
2.00351e+08
1.65654e+08
1.04195e+08
8.72271e+07
1.03045e+08
1.88878e+08
3.59887e+07
1.66497e+08
3.86174e+07
6.503e+07
9.51449e+07
1.01293e+08
1.70065e+08
1.07913e+08
4.50363e+07
9.59265e+07
4.5526e+07
1.24034e+08
1.85544e+08
9.32667e+07
1.36589e+08
1.1552e+08
4.03474e+07
9.82887e+07
1.30607e+08
6.85829e+07
3.85502e+07
8.21948e+07
7.65747e+07
9.18946e+07
1.87286e+08
1.25717e+08
8.28583e+07
1.59426e+08
1.06806e+08
1.53153e+08
1.06529e+08
4.7067e+07
1.04106e+08
1.72895e+08
9.0208e+07
1.85672e+08
1.93692e+08
1.27683e+08
1.77218e+08
1.12575e+08
3.70642e+07
1.4054e+08
1.47985e+08
1.31758e+08
1.84635e+08
1.79715e+08
4.79133e+07
1.14907e+08
1.81134e+08
1.76452e+08
1.22468e+08
9.46729e+07
1.19762e+08
1.17059e+08
6.98831e+07
1.57866e+08
7.46445e+07
1.4506e+08
1.50559e+08
1.97818e+08
7.94638e+07
7.9133e+07
5.85488e+07
5.95321e+07
8.72042e+07
1.98635e+08
8.86052e+07
1.87282e+08
1.50616e+08
7.5318e+07
1.39275e+07
6.7092e+07
7.91654e+07
1.47717e+08
1.13843e+08
2.78173e+07
8.00534e+07
8.86026e+07
8.20707e+07
5.51432e+07
8.2511e+07
7.52066e+07
7.23371e+07
1.28531e+08
1.30696e+08
1.3803e+08
3.76578e+07
1.09918e+08
4.81671e+07
7.09365e+07
1.01968e+08
9.21749e+07
1.91705e+08
6.83113e+07
1.11185e+08
7.40908e+07
2.01564e+08
1.42818e+08
7.34686e+07
1.37936e+08
2.04291e+08
1.02369e+08
7.53933e+07
6.65689e+07
9.5592e+07
1.3829e+08
8.41392e+07
5.86152e+07
4.92091e+07
1.87548e+08
5.34116e+07
9.79473e+07
1.53272e+08
5.76217e+07
9.86218e+07
1.51567e+08
9.52562e+07
9.35815e+07
9.68112e+07
1.06607e+08
1.00204e+08
1.33235e+08
8.65015e+07
9.96379e+07
7.37226e+07
1.85404e+08
2.96893e+07
9.97276e+07
9.84303e+07
7.77865e+07
9.02051e+07
1.15027e+08
3.01499e+07
1.64228e+08
8.02946e+07
1.12903e+08
3.16828e+07
1.0159e+08
1.8197e+08
1.89867e+08
1.90607e+08
1.0582e+08
8.51898e+07
8.13156e+07
8.64879e+07
1.46588e+08
9.34838e+07
1.02919e+08
1.61326e+08
1.14605e+08
1.37097e+08
8.79324e+07
9.87399e+07
6.70752e+07
1.81423e+08
9.10066e+07
9.88657e+07
1.21876e+08
1.65325e+08
7.84497e+07
1.23779e+08
6.72821e+07
7.52905e+07
1.99497e+08
4.47383e+07
2.00303e+08
1.21178e+08
1.18845e+08
1.82076e+08
6.62109e+07
6.55089e+07
9.41999e+07
9.50063e+07
6.78131e+07
6.08619e+07
7.79088e+07
7.62574e+07
4.76743e+07
5.78677e+07
1.02193e+08
1.48634e+08
1.77729e+08
7.31992e+07
8.77895e+07
1.03751e+08
1.32429e+08
1.69634e+08
1.45021e+08
8.44731e+07
1.41686e+08
1.68563e+08
2.01453e+08
1.39535e+08
1.42129e+08
6.86968e+07
1.65085e+08
6.28179e+07
6.79577e+07
1.60133e+08
1.61127e+08
9.8764e+07
1.12278e+08
1.55769e+08
6.66653e+07
5.75712e+07
8.84813e+07
7.45828e+07
4.96843e+07
2.04261e+08
1.04598e+08
1.31791e+08
9.60657e+07
9.84152e+07
7.03311e+07
1.64317e+08
1.48877e+08
1.52273e+08
1.25701e+08
1.62247e+08
1.35569e+08
1.1246e+08
9.65347e+07
9.50911e+07
1.02267e+08
1.28702e+08
1.54276e+08
9.33673e+07
1.79266e+08
1.17994e+08
1.53932e+08
1.2183e+08
1.52135e+08
1.5068e+08
5.40581e+07
1.58591e+08
5.99133e+07
1.04014e+08
1.16473e+08
1.38938e+08
7.46195e+07
2.00806e+08
1.99159e+08
1.20195e+08
1.90961e+08
7.90134e+07
7.70101e+07
1.68103e+08
6.97587e+07
7.52824e+07
1.67158e+08
6.8833e+07
3.70782e+07
1.49494e+08
9.44239e+07
8.05677e+07
8.09003e+07
7.38875e+07
1.05624e+08
1.24557e+08
1.98475e+08
6.90529e+07
1.38751e+08
1.30171e+08
6.30468e+07
8.12621e+07
2.03757e+08
1.99389e+08
1.10655e+08
8.21432e+07
1.26867e+08
1.26628e+08
1.02718e+08
1.35337e+08
1.57516e+08
7.02558e+07
1.01866e+08
1.08623e+08
1.97052e+08
7.28322e+07
1.12349e+08
6.97038e+07
1.49352e+08
2.35508e+07
2.0496e+08
7.00463e+07
2.01451e+08
9.71261e+07
7.25361e+07
7.28386e+07
1.90528e+08
1.11242e+08
9.42089e+07
1.5079e+08
1.51607e+08
1.30201e+08
6.83712e+07
1.53398e+08
6.00079e+07
2.74375e+07
6.04371e+07
7.0856e+07
2.05637e+08
8.08031e+07
7.71208e+07
6.44085e+07
1.09145e+08
9.13777e+07
1.80185e+08
7.50494e+07
1.6071e+08
9.57323e+07
1.41862e+08
1.47205e+08
1.88307e+08
1.91919e+08
6.80681e+07
9.42898e+07
1.07525e+08
1.63771e+08
1.03925e+08
7.49511e+07
9.08787e+07
9.14128e+07
1.65318e+08
1.88195e+08
6.71829e+07
9.50035e+07
1.33594e+08
6.64764e+07
1.12181e+08
1.789e+08
9.19176e+07
9.10062e+07
1.12287e+08
1.11325e+08
1.10309e+08
1.87614e+08
8.99043e+07
4.02784e+07
6.87979e+07
1.72124e+08
8.66044e+07
9.64238e+07
1.26996e+08
7.03424e+07
8.71783e+07
1.49025e+08
1.75826e+08
1.76366e+08
1.37899e+08
1.24952e+08
1.67963e+08
1.27732e+08
1.21937e+08
1.28893e+08
6.36812e+07
6.05292e+07
7.92978e+07
7.76974e+07
1.43495e+08
1.60017e+08
1.43707e+08
1.89536e+08
7.3483e+07
5.45665e+07
9.8634e+07
1.51323e+08
6.35868e+07
6.31639e+07
1.55904e+08
2.64762e+07
1.0257e+08
1.09238e+08
1.12053e+08
1.95256e+08
1.62864e+08
7.04885e+07
1.89989e+08
1.47406e+08
6.44397e+07
6.34584e+07
1.81022e+08
1.51166e+08
8.07002e+07
1.41201e+08
1.64004e+08
2.01146e+08
5.31245e+07
9.89356e+07
1.38139e+08
7.66438e+07
7.30764e+07
6.21488e+07
9.02535e+07
2.01172e+08
9.8144e+07
7.36934e+07
1.05194e+08
6.56437e+07
1.28512e+08
7.30663e+07
1.41466e+08
1.63711e+08
7.773e+07
7.8476e+07
6.5192e+07
1.79852e+08
9.11676e+07
1.74305e+08
1.52571e+08
1.62365e+08
6.6973e+07
7.4808e+07
4.70282e+07
8.5772e+07
9.72688e+07
4.68256e+07
1.10144e+08
1.55239e+08
1.51529e+08
5.64318e+07
6.2246e+07
1.35931e+08
4.19319e+07
5.32225e+07
1.83369e+08
1.0969e+08
9.71112e+07
3.40303e+07
7.44415e+07
7.89595e+07
2.36957e+07
1.62546e+08
8.15647e+07
9.96589e+07
1.68666e+08
6.09888e+07
8.17667e+07
9.07215e+07
1.74828e+08
1.84731e+08
1.84325e+08
1.94231e+08
7.50483e+07
1.68723e+08
6.36758e+07
1.07771e+08
4.38256e+07
1.43536e+08
1.05611e+08
1.50558e+08
1.30921e+08
1.31451e+08
8.38785e+07
7.55693e+07
1.27734e+08
9.91629e+07
1.09143e+08
1.07687e+08
7.89221e+07
1.15653e+08
5.91527e+07
9.36329e+07
6.86207e+07
1.24256e+08
5.78422e+07
5.45355e+07
1.34431e+08
1.00774e+08
1.03034e+08
1.3984e+08
1.53852e+08
1.40021e+08
1.8731e+08
9.10457e+07
9.12712e+07
1.83324e+08
1.03059e+08
1.07032e+08
1.6021e+08
6.90832e+07
7.21829e+07
1.88415e+08
3.38966e+07
4.12101e+07
1.55552e+08
1.4886e+08
9.04516e+07
9.95276e+07
7.46136e+07
8.22773e+07
5.72135e+07
1.35274e+08
8.22569e+07
8.26274e+07
2.7572e+07
4.62718e+07
8.81008e+07
8.77786e+07
6.66829e+07
8.24408e+07
1.45359e+08
9.12304e+07
1.07581e+08
1.37098e+08
1.01742e+08
6.96129e+07
8.97938e+07
7.34938e+07
6.98536e+07
8.0287e+07
6.79282e+07
3.1515e+07
5.80811e+07
6.18844e+07
8.94764e+07
1.78218e+08
1.00153e+08
1.05932e+08
1.78718e+08
1.12068e+08
1.75591e+08
1.92158e+08
1.04621e+08
1.02175e+08
7.8724e+07
7.08877e+07
8.71429e+07
3.23163e+07
3.06056e+07
9.63205e+07
3.81332e+07
6.52635e+07
7.47606e+07
5.67057e+07
8.66475e+07
9.3426e+07
1.95463e+08
9.62739e+07
1.80079e+08
1.65062e+08
1.56288e+08
1.63261e+08
7.42753e+07
7.29672e+07
7.28398e+07
1.07597e+08
8.65311e+07
5.52112e+07
9.73677e+07
1.76153e+08
1.5961e+08
1.90228e+08
1.67235e+08
1.18916e+08
1.50013e+08
1.5438e+08
1.94227e+08
8.44559e+07
8.75059e+07
1.42642e+08
7.32667e+07
8.25385e+07
1.79278e+08
9.4576e+07
8.70526e+07
8.80682e+07
8.38639e+07
6.70626e+07
6.98022e+07
6.9901e+07
1.03765e+08
9.66579e+07
1.60804e+08
1.44462e+08
1.49062e+08
1.78432e+08
1.20497e+08
4.85845e+07
4.89787e+07
1.01897e+08
1.76154e+08
8.47331e+07
1.30297e+08
1.07307e+08
9.35611e+07
1.15414e+08
1.16814e+08
1.87962e+08
8.86665e+07
1.47986e+08
6.88165e+07
8.97817e+07
6.81665e+07
3.28285e+07
6.59352e+07
1.03765e+08
8.3398e+07
1.84004e+08
1.46385e+08
4.98821e+07
1.59657e+08
8.73968e+07
1.60603e+08
6.89741e+07
6.92421e+07
9.26458e+07
1.03583e+08
1.0435e+08
1.35344e+08
1.21331e+08
6.68775e+07
9.39721e+07
8.14863e+07
1.98444e+08
2.00837e+08
8.49375e+07
4.67971e+07
1.59294e+08
1.6212e+08
1.50865e+08
8.87978e+07
1.21302e+08
1.20478e+08
5.62377e+07
8.6739e+07
1.31133e+08
1.15325e+08
1.64912e+08
1.18765e+08
4.41588e+07
9.7267e+07
6.55157e+07
6.53832e+07
1.97659e+08
1.77124e+08
6.84441e+07
7.16046e+07
7.9027e+07
3.44181e+07
7.24792e+07
7.29742e+07
1.25448e+08
7.64271e+07
8.88864e+07
8.19086e+07
7.28374e+07
1.74757e+08
1.74867e+08
1.06479e+08
3.93789e+07
2.71139e+07
1.13569e+08
3.54923e+07
1.57552e+08
1.53106e+08
1.50802e+08
9.02654e+07
9.39107e+07
7.27834e+07
7.32559e+07
1.81017e+08
1.06601e+08
8.38385e+07
9.82033e+07
1.04632e+08
1.77963e+08
3.80181e+07
8.88457e+07
4.88455e+07
1.11789e+08
8.63895e+07
2.03384e+08
1.09829e+08
1.24612e+08
9.16543e+07
1.22527e+08
1.22821e+08
9.1195e+07
4.61566e+07
9.52368e+07
3.8308e+07
8.50025e+07
8.60119e+07
1.77048e+08
1.61619e+08
7.24239e+07
1.44036e+08
1.69399e+08
1.6069e+08
1.94777e+08
1.09026e+08
1.0739e+08
6.4581e+07
6.42764e+07
9.50372e+07
9.51316e+07
6.61739e+07
1.80085e+08
1.40819e+08
7.80878e+07
8.1965e+07
1.59905e+08
8.93011e+07
1.7187e+08
7.89876e+07
8.77829e+07
1.77123e+08
1.10218e+08
1.09208e+08
1.72874e+08
1.33324e+08
1.15199e+08
1.22286e+08
1.67973e+08
1.33566e+08
2.7442e+07
1.19738e+08
1.9369e+08
1.01643e+08
1.01652e+08
8.06139e+07
8.30141e+07
1.20515e+08
2.01678e+08
9.17412e+07
1.47014e+08
1.23661e+08
1.65467e+08
6.50447e+07
9.56717e+07
9.33789e+07
1.37938e+08
1.23351e+08
1.25874e+08
9.35686e+07
2.01468e+08
1.34602e+08
7.29023e+07
1.41596e+08
5.23533e+07
5.03165e+07
1.07704e+08
1.07938e+08
1.69758e+08
1.68713e+08
1.80117e+08
9.59228e+07
1.16489e+08
1.68929e+08
1.20382e+08
6.25002e+07
1.11205e+08
4.45755e+07
6.97764e+07
1.68827e+08
1.0155e+08
9.39226e+07
5.64909e+07
1.36602e+08
1.80314e+08
2.98497e+07
8.96507e+07
6.40971e+07
6.06693e+07
1.72802e+08
1.07653e+08
9.62904e+07
1.64226e+08
7.06797e+07
1.24979e+08
1.07481e+08
9.79917e+07
8.39667e+07
1.90123e+08
1.34918e+08
7.75311e+07
1.33809e+08
6.10763e+07
1.24523e+08
1.06958e+08
1.124e+08
1.11435e+08
1.91624e+08
1.35022e+08
7.48355e+07
7.40713e+07
8.02168e+07
1.73671e+08
1.87274e+08
1.42668e+08
9.5094e+07
9.49351e+07
1.81059e+08
1.7444e+08
1.29462e+08
7.99206e+07
9.35171e+07
1.5432e+08
1.41893e+08
1.68957e+08
1.45288e+08
9.35231e+07
1.40224e+08
1.89007e+08
1.85812e+08
1.41247e+08
1.08428e+08
1.08336e+08
1.0678e+08
1.87726e+08
8.31789e+07
8.20906e+07
8.15012e+07
7.78653e+07
1.09919e+08
1.06142e+08
1.46402e+08
6.88916e+07
6.5842e+07
1.43317e+08
1.96132e+08
7.69304e+07
7.85284e+07
1.41212e+08
1.09509e+08
1.0132e+08
6.22031e+07
6.00273e+07
7.02744e+07
1.77984e+08
8.16179e+07
7.19983e+07
6.97837e+07
1.00157e+08
1.76195e+08
1.74554e+08
7.51999e+07
7.43679e+07
1.0716e+08
1.03852e+08
9.61736e+07
1.35015e+08
9.78023e+07
1.62787e+08
8.01559e+07
8.0929e+07
1.58929e+08
7.5191e+07
1.08735e+08
1.34579e+08
1.53481e+08
1.34128e+08
1.93657e+08
7.87231e+07
1.83448e+08
1.24455e+08
9.57518e+07
1.67502e+08
6.79436e+07
6.71322e+07
7.22845e+07
1.32097e+08
8.37104e+07
8.44331e+07
1.63659e+08
8.61292e+07
1.56285e+08
1.05529e+08
1.05337e+08
1.02995e+08
1.02518e+08
1.62846e+08
7.7931e+07
1.53264e+08
5.63863e+07
5.59932e+07
1.17861e+08
1.0187e+08
4.31782e+07
8.35916e+07
7.7364e+07
6.85411e+07
2.02139e+08
8.12641e+07
3.70131e+07
8.09981e+07
8.31061e+07
1.15871e+08
7.1478e+07
8.71509e+07
6.66327e+07
4.34263e+07
3.70832e+07
3.33312e+07
3.03937e+07
8.03667e+07
3.26854e+07
7.77877e+07
1.25176e+08
9.37222e+07
9.7628e+07
9.66216e+07
1.96577e+08
1.52817e+08
1.58164e+08
1.82912e+08
1.60672e+08
1.73918e+08
6.62953e+07
9.50661e+07
1.91088e+08
2.38843e+07
1.47139e+08
8.16137e+07
7.70793e+07
1.04318e+08
1.05674e+08
7.00832e+07
7.18014e+07
1.23136e+08
8.44596e+07
7.54318e+07
9.6457e+07
1.3345e+08
1.33153e+08
1.91522e+08
1.99775e+08
1.38105e+08
9.8971e+07
1.98615e+08
6.92756e+07
7.00215e+07
1.59337e+08
5.7125e+07
1.80595e+08
9.79463e+07
1.73694e+08
1.00893e+08
1.09538e+08
7.54483e+07
1.75806e+08
6.50663e+07
9.73364e+07
5.93912e+07
7.75332e+07
1.19276e+08
1.21798e+08
1.67541e+08
7.39677e+07
7.42865e+07
6.38495e+07
1.06511e+08
1.08148e+08
9.36683e+07
6.37149e+07
1.74227e+08
9.98131e+07
6.0231e+07
6.63621e+07
1.15012e+08
1.61969e+08
1.81055e+08
1.89738e+08
8.0305e+07
1.76664e+08
1.88773e+08
1.42106e+08
9.4947e+07
9.39148e+07
9.35406e+07
9.3755e+07
1.26442e+08
1.70104e+08
9.67323e+07
8.20665e+07
1.06154e+08
1.02808e+08
2.65284e+07
1.49924e+08
1.51805e+08
1.16347e+08
7.89565e+07
1.20957e+08
1.00944e+08
6.28621e+07
1.2294e+08
8.34763e+07
9.99084e+07
1.08472e+08
1.37612e+08
1.65248e+08
1.01572e+08
1.03895e+08
1.0043e+08
1.54457e+08
2.00328e+08
1.34114e+08
1.76108e+08
2.03183e+08
1.83516e+08
7.65569e+07
1.72258e+08
8.43704e+07
6.67658e+07
1.21712e+08
7.76438e+07
7.88612e+07
7.25015e+07
1.02579e+08
1.05092e+08
1.80104e+08
1.07833e+08
1.5619e+08
9.87548e+07
1.1707e+08
1.14588e+08
1.84694e+08
7.76044e+07
1.48284e+08
5.54266e+07
7.56114e+07
1.10013e+08
1.79348e+08
5.53361e+07
1.50723e+08
8.88504e+07
6.98817e+07
7.38382e+07
7.4733e+07
7.13513e+07
1.50519e+08
9.82554e+07
1.39579e+08
1.05947e+08
1.39946e+08
9.91491e+07
1.98332e+08
1.88128e+08
1.32535e+08
7.44813e+07
1.03411e+08
1.88978e+08
1.23331e+08
2.01099e+08
8.48656e+07
1.1389e+08
9.58765e+07
6.61598e+07
6.06233e+07
7.31626e+07
8.50913e+07
1.05686e+08
9.49947e+07
9.85568e+07
9.7823e+07
8.90292e+07
9.30313e+07
1.00684e+08
1.14071e+08
1.12052e+08
1.25921e+08
3.29246e+07
7.35962e+07
1.7154e+08
1.11585e+08
7.82029e+07
6.23898e+07
6.1502e+07
8.01078e+07
8.04402e+07
9.7925e+07
1.03832e+08
1.80574e+08
1.3297e+08
1.14716e+08
7.71359e+07
1.04313e+08
7.65948e+07
1.8687e+08
1.83698e+08
5.22444e+07
5.23408e+07
7.0432e+07
9.46655e+07
7.315e+07
1.04867e+08
7.93173e+07
7.97596e+07
1.20733e+08
1.30221e+08
6.51274e+07
1.54016e+08
9.71474e+07
1.02267e+08
8.29034e+07
1.1558e+08
9.99999e+07
1.48936e+08
1.49437e+08
1.56137e+08
1.11267e+08
1.25035e+08
1.67152e+08
1.73423e+08
7.90323e+07
7.70447e+07
8.80132e+07
9.37465e+07
1.01132e+08
7.90063e+07
6.90724e+07
6.36376e+07
8.96742e+07
5.73149e+07
1.04859e+08
1.69173e+08
9.84254e+07
1.15681e+08
1.1485e+08
1.15799e+08
1.18783e+08
7.90422e+07
1.10868e+08
8.54119e+07
8.44144e+07
9.36584e+07
1.58374e+08
1.21979e+08
1.18348e+08
4.04309e+07
1.59614e+08
1.49159e+08
1.5312e+08
1.26038e+08
9.8866e+07
6.53059e+07
9.50872e+07
9.49316e+07
6.59737e+07
1.25904e+08
1.01837e+08
7.00773e+07
7.01688e+07
8.05173e+07
1.22141e+08
1.22516e+08
1.85412e+08
1.84915e+08
1.23915e+08
1.2746e+08
1.24043e+08
1.14181e+08
1.13752e+08
1.30176e+08
1.67656e+08
1.6939e+08
9.74844e+07
9.639e+07
1.10419e+08
1.17962e+08
1.17248e+08
1.32664e+08
7.39202e+07
5.71065e+07
5.71572e+07
1.91693e+08
1.89052e+08
1.19232e+08
1.1782e+08
1.22646e+08
1.2063e+08
6.80897e+07
)
;

boundaryField
{
    back
    {
        type            empty;
    }
    front
    {
        type            empty;
    }
    down
    {
        type            symmetry;
    }
    right
    {
        type            calculated;
        value           nonuniform List<scalar> 
20
(
6.80534e+07
9.28647e+07
9.07051e+07
6.56205e+07
9.47436e+07
8.37603e+07
7.60664e+07
7.38035e+07
6.49722e+07
9.50299e+07
6.991e+07
6.68398e+07
9.38146e+07
8.88784e+07
8.68906e+07
6.44643e+07
9.50724e+07
7.90593e+07
8.17591e+07
7.17571e+07
)
;
    }
    up
    {
        type            calculated;
        value           nonuniform List<scalar> 
40
(
9.94213e+07
1.73493e+08
1.84461e+08
1.97852e+08
9.5061e+07
1.22308e+08
1.48459e+08
1.16168e+08
1.76464e+08
1.31724e+08
2.00503e+08
9.11313e+07
1.47639e+08
1.93937e+08
1.09471e+08
1.64539e+08
1.03833e+08
1.88626e+08
1.58867e+08
9.70218e+07
2.00015e+08
1.24801e+08
1.12348e+08
1.44322e+08
1.88652e+08
1.79132e+08
9.4996e+07
7.56799e+07
2.01434e+08
1.20246e+08
1.36189e+08
1.06493e+08
6.84998e+07
9.63768e+07
1.93744e+08
1.62708e+08
1.5346e+08
1.01887e+08
1.96679e+08
9.51056e+07
)
;
    }
    left
    {
        type            symmetry;
    }
    hole
    {
        type            calculated;
        value           nonuniform List<scalar> 
16
(
1.21524e+08
4.3585e+07
1.61929e+08
1.67964e+08
1.42365e+08
2.15412e+07
7.31068e+07
1.324e+08
8.84773e+06
1.58946e+08
1.03148e+08
5.10398e+07
1.06952e+08
1.32738e+08
1.68876e+08
1.62421e+08
)
;
    }
}


// ************************************************************************* //
