/*--------------------------------*- C++ -*----------------------------------*\
| =========                 |                                                 |
| \\      /  F ield         | OpenFOAM: The Open Source CFD Toolbox           |
|  \\    /   O peration     | Version:  v2012                                 |
|   \\  /    A nd           | Website:  www.openfoam.com                      |
|    \\/     M anipulation  |                                                 |
\*---------------------------------------------------------------------------*/
FoamFile
{
    version     2.0;
    format      ascii;
    class       pointVectorField;
    location    "5";
    object      pointD;
}
// * * * * * * * * * * * * * * * * * * * * * * * * * * * * * * * * * * * * * //

dimensions      [0 1 0 0 0 0 0];


internalField   nonuniform List<vector> 
572
(
(0.00170233 0 0)
(0.00249221 0 0)
(0.00230244 -0.00024259 0)
(0 -0.00116881 0)
(0 -0.000837556 0)
(0.00175435 0 0)
(0 -0.00105916 0)
(0.00104779 -0.000351147 0)
(0.000555904 -0.000687534 0)
(0.00240365 -8.26801e-05 0)
(0.00122627 -0.000516192 0)
(0.00122627 -0.000516192 0)
(0.00104779 -0.000351147 0)
(0 -0.00105916 0)
(0 -0.000837556 0)
(0.00170233 0 0)
(0.00175435 0 0)
(0.00249221 0 0)
(0.00240365 -8.26801e-05 0)
(0.00230244 -0.00024259 0)
(0.000555904 -0.000687534 0)
(0 -0.00116881 0)
(0.000178652 -0.00100926 0)
(0.000370794 -0.000882846 0)
(0.000583133 -0.000710413 0)
(0.000812332 -0.000525839 0)
(0.00126382 -0.000238962 0)
(0.0014607 -0.000147945 0)
(0.00161914 -8.15625e-05 0)
(0.00172194 -3.61213e-05 0)
(0.0017161 0 0)
(0.00172536 0 0)
(0.00173367 0 0)
(0.00174295 0 0)
(0.00179625 0 0)
(0.0018424 0 0)
(0.00189771 0 0)
(0.00196269 0 0)
(0.00203655 0 0)
(0.00211811 0 0)
(0.00220605 0 0)
(0.00229887 0 0)
(0.00239491 0 0)
(0.00248598 -9.76309e-06 0)
(0.00247356 -2.17418e-05 0)
(0.00245467 -3.71791e-05 0)
(0.00243073 -5.72642e-05 0)
(0.00239196 -9.5483e-05 0)
(0.00238018 -0.00010927 0)
(0.00236859 -0.000123982 0)
(0.00235738 -0.000139533 0)
(0.0023467 -0.000155809 0)
(0.00233665 -0.000172672 0)
(0.00232728 -0.000189962 0)
(0.00231856 -0.000207503 0)
(0.00231035 -0.000225107 0)
(0.0021748 -0.000267378 0)
(0.00204479 -0.000285566 0)
(0.00190726 -0.000297969 0)
(0.00175819 -0.00030826 0)
(0.0015946 -0.000321708 0)
(0.00141446 -0.000344799 0)
(0.00121705 -0.000385091 0)
(0.00100384 -0.000450831 0)
(0.000779841 -0.000549864 0)
(0.00040284 -0.000809734 0)
(0.000269564 -0.000936901 0)
(0.00015958 -0.00105152 0)
(7.18403e-05 -0.001134 0)
(0 -0.00115981 0)
(0 -0.00114997 0)
(0 -0.00113955 0)
(0 -0.00112873 0)
(0 -0.00111764 0)
(0 -0.00110635 0)
(0 -0.00109489 0)
(0 -0.00108326 0)
(0 -0.00107139 0)
(0 -0.00103241 0)
(0 -0.00100263 0)
(0 -0.000966188 0)
(0 -0.000916277 0)
(0.00122012 -0.000250592 0)
(0.00137502 -0.000181646 0)
(0.0015183 -0.000141841 0)
(0.00165362 -0.000123314 0)
(0.00178393 -0.000118033 0)
(0.00191126 -0.000119126 0)
(0.00203676 -0.000120944 0)
(0.00216077 -0.00011867 0)
(0.00228313 -0.000107679 0)
(0.000981278 -0.000389684 0)
(0.000921461 -0.00042772 0)
(0.000867431 -0.000464758 0)
(0.000818195 -0.000500483 0)
(0.000772641 -0.000534715 0)
(0.000729552 -0.000567412 0)
(0.000687635 -0.000598674 0)
(0.000645556 -0.000628764 0)
(0.000602009 -0.000658142 0)
(0.000286827 -0.00084303 0)
(0.000555417 -0.000795251 0)
(0.00080585 -0.000717458 0)
(0.00103123 -0.000621195 0)
(0.00138621 -0.000412065 0)
(0.00151453 -0.000308909 0)
(0.00161009 -0.000206193 0)
(0.00167139 -0.000103716 0)
(0.00115161 -0.000455909 0)
(0.00110364 -0.000416488 0)
(0.00107404 -0.000389363 0)
(0.00105701 -0.00036908 0)
(0.00115161 -0.000455909 0)
(0.00110364 -0.000416488 0)
(0.00107404 -0.000389363 0)
(0.00105701 -0.00036908 0)
(0.000812332 -0.000525839 0)
(0.000583133 -0.000710413 0)
(0.000370794 -0.000882846 0)
(0.000178652 -0.00100926 0)
(0 -0.00103241 0)
(0 -0.00100263 0)
(0 -0.000966188 0)
(0 -0.000916277 0)
(0.000286827 -0.00084303 0)
(0.000555417 -0.000795251 0)
(0.00080585 -0.000717458 0)
(0.00103123 -0.000621195 0)
(0.00138621 -0.000412065 0)
(0.00151453 -0.000308909 0)
(0.00161009 -0.000206193 0)
(0.00167139 -0.000103716 0)
(0.0017161 0 0)
(0.00172536 0 0)
(0.00173367 0 0)
(0.00174295 0 0)
(0.00172194 -3.61213e-05 0)
(0.00161914 -8.15625e-05 0)
(0.0014607 -0.000147945 0)
(0.00126382 -0.000238962 0)
(0.00179625 0 0)
(0.0018424 0 0)
(0.00189771 0 0)
(0.00196269 0 0)
(0.00203655 0 0)
(0.00211811 0 0)
(0.00220605 0 0)
(0.00229887 0 0)
(0.00239491 0 0)
(0.00248598 -9.76309e-06 0)
(0.00247356 -2.17418e-05 0)
(0.00245467 -3.71791e-05 0)
(0.00243073 -5.72642e-05 0)
(0.00228313 -0.000107679 0)
(0.00216077 -0.00011867 0)
(0.00203676 -0.000120944 0)
(0.00191126 -0.000119126 0)
(0.00178393 -0.000118033 0)
(0.00165362 -0.000123314 0)
(0.0015183 -0.000141841 0)
(0.00137502 -0.000181646 0)
(0.00122012 -0.000250592 0)
(0.00239196 -9.5483e-05 0)
(0.00238018 -0.00010927 0)
(0.00236859 -0.000123982 0)
(0.00235738 -0.000139533 0)
(0.0023467 -0.000155809 0)
(0.00233665 -0.000172672 0)
(0.00232728 -0.000189962 0)
(0.00231856 -0.000207503 0)
(0.00231035 -0.000225107 0)
(0.0021748 -0.000267378 0)
(0.00204479 -0.000285566 0)
(0.00190726 -0.000297969 0)
(0.00175819 -0.00030826 0)
(0.0015946 -0.000321708 0)
(0.00141446 -0.000344799 0)
(0.00121705 -0.000385091 0)
(0.00100384 -0.000450831 0)
(0.000779841 -0.000549864 0)
(0.000602009 -0.000658142 0)
(0.000645556 -0.000628764 0)
(0.000687635 -0.000598674 0)
(0.000729552 -0.000567412 0)
(0.000772641 -0.000534715 0)
(0.000818195 -0.000500483 0)
(0.000867431 -0.000464758 0)
(0.000921461 -0.00042772 0)
(0.000981278 -0.000389684 0)
(0.00040284 -0.000809734 0)
(0.000269564 -0.000936901 0)
(0.00015958 -0.00105152 0)
(7.18403e-05 -0.001134 0)
(0 -0.00115981 0)
(0 -0.00114997 0)
(0 -0.00113955 0)
(0 -0.00112873 0)
(0 -0.00111764 0)
(0 -0.00110635 0)
(0 -0.00109489 0)
(0 -0.00108326 0)
(0 -0.00107139 0)
(0.000241417 -0.00089631 0)
(0.000213655 -0.000933871 0)
(0.000196526 -0.000962885 0)
(0.000185802 -0.000987308 0)
(0.000478176 -0.000821666 0)
(0.000430488 -0.000841165 0)
(0.000400931 -0.000856943 0)
(0.000382538 -0.000870586 0)
(0.00071267 -0.00071073 0)
(0.000654651 -0.000708217 0)
(0.000618608 -0.000708058 0)
(0.000596484 -0.000709059 0)
(0.000940012 -0.000583211 0)
(0.000882363 -0.000559733 0)
(0.000846424 -0.000544526 0)
(0.0008247 -0.000533966 0)
(0.00133559 -0.000342371 0)
(0.0013018 -0.00029679 0)
(0.00128049 -0.000266894 0)
(0.00126847 -0.000248021 0)
(0.00149027 -0.000242014 0)
(0.00147357 -0.000198846 0)
(0.0014636 -0.000171651 0)
(0.00145951 -0.000155792 0)
(0.00160928 -0.000153083 0)
(0.00160826 -0.000119404 0)
(0.00160897 -9.88605e-05 0)
(0.00161246 -8.71633e-05 0)
(0.00168658 -7.23833e-05 0)
(0.00169546 -5.44263e-05 0)
(0.00170292 -4.38307e-05 0)
(0.00171136 -3.80942e-05 0)
(0.00176701 -1.90513e-05 0)
(0.0016857 -4.82991e-05 0)
(0.00155934 -9.50859e-05 0)
(0.00139942 -0.000162897 0)
(0.00181944 -1.37596e-05 0)
(0.00175571 -3.48256e-05 0)
(0.00165512 -6.82366e-05 0)
(0.00152499 -0.000117079 0)
(0.00187997 -1.34076e-05 0)
(0.00182955 -3.15025e-05 0)
(0.00174899 -5.76194e-05 0)
(0.00164309 -9.41382e-05 0)
(0.00194879 -1.50789e-05 0)
(0.00190829 -3.3081e-05 0)
(0.00184312 -5.61553e-05 0)
(0.00175673 -8.59737e-05 0)
(0.00202548 -1.73238e-05 0)
(0.00199249 -3.65334e-05 0)
(0.00193924 -5.90436e-05 0)
(0.00186855 -8.60013e-05 0)
(0.00210922 -1.92973e-05 0)
(0.00208206 -3.99382e-05 0)
(0.00203825 -6.2951e-05 0)
(0.0019803 -8.91805e-05 0)
(0.00219887 -2.03868e-05 0)
(0.0021764 -4.18681e-05 0)
(0.00214022 -6.53442e-05 0)
(0.00209273 -9.15565e-05 0)
(0.00229303 -1.99958e-05 0)
(0.00227437 -4.09531e-05 0)
(0.00224452 -6.39076e-05 0)
(0.00220577 -8.96788e-05 0)
(0.00238983 -1.72703e-05 0)
(0.00237421 -3.52956e-05 0)
(0.00234991 -5.58925e-05 0)
(0.00231875 -7.98941e-05 0)
(0.00116589 -0.000280019 0)
(0.00111399 -0.000310338 0)
(0.00106494 -0.000341007 0)
(0.00101876 -0.000371616 0)
(0.000975163 -0.000401894 0)
(0.000933728 -0.000431726 0)
(0.000893945 -0.00046115 0)
(0.000855311 -0.000490371 0)
(0.000817387 -0.000519763 0)
(0.00132984 -0.000206123 0)
(0.00128588 -0.000231495 0)
(0.00124353 -0.000257529 0)
(0.00120305 -0.000284019 0)
(0.00116456 -0.00031082 0)
(0.00112812 -0.000337872 0)
(0.00109374 -0.000365209 0)
(0.00106147 -0.000392969 0)
(0.00103142 -0.000421394 0)
(0.00148082 -0.000162727 0)
(0.00144411 -0.000184556 0)
(0.00140853 -0.000207213 0)
(0.00137441 -0.000230596 0)
(0.00134205 -0.000254633 0)
(0.00131172 -0.00027929 0)
(0.00128371 -0.000304579 0)
(0.00125834 -0.000330563 0)
(0.00123597 -0.000357351 0)
(0.00162286 -0.000141683 0)
(0.00159263 -0.000161024 0)
(0.00156329 -0.000181268 0)
(0.00153521 -0.000202355 0)
(0.00150875 -0.000224233 0)
(0.00148428 -0.000246867 0)
(0.00146218 -0.000270238 0)
(0.00144287 -0.000294342 0)
(0.00142679 -0.00031919 0)
(0.00175881 -0.000134755 0)
(0.00173407 -0.00015241 0)
(0.00171007 -0.000170955 0)
(0.00168717 -0.000190344 0)
(0.00166574 -0.000210531 0)
(0.00164616 -0.000231468 0)
(0.00162883 -0.000253109 0)
(0.00161416 -0.000275401 0)
(0.00160259 -0.000298289 0)
(0.00189061 -0.00013477 0)
(0.00187024 -0.000151263 0)
(0.00185048 -0.000168574 0)
(0.00183167 -0.000186667 0)
(0.00181414 -0.000205496 0)
(0.00179824 -0.000225005 0)
(0.00178432 -0.000245127 0)
(0.00177274 -0.00026578 0)
(0.0017639 -0.000286864 0)
(0.00201942 -0.000135776 0)
(0.0020023 -0.000151362 0)
(0.00198568 -0.000167683 0)
(0.00196986 -0.000184711 0)
(0.00195511 -0.000202399 0)
(0.00194172 -0.000220691 0)
(0.00192995 -0.000239506 0)
(0.0019201 -0.000258747 0)
(0.00191243 -0.000278287 0)
(0.00214575 -0.000132721 0)
(0.00213091 -0.000147475 0)
(0.0021165 -0.000162918 0)
(0.00210274 -0.00017902 0)
(0.00208985 -0.000195734 0)
(0.00207804 -0.000213001 0)
(0.00206747 -0.00023074 0)
(0.00205832 -0.000248845 0)
(0.00205072 -0.00026718 0)
(0.00226975 -0.000120931 0)
(0.00225655 -0.00013496 0)
(0.00224368 -0.000149714 0)
(0.00223134 -0.000165141 0)
(0.00221969 -0.000181181 0)
(0.00220888 -0.000197761 0)
(0.00219898 -0.000214793 0)
(0.00219005 -0.000232168 0)
(0.00218204 -0.000249753 0)
(0.000167423 -0.00102379 0)
(0.000157231 -0.00103788 0)
(0.000147702 -0.00105157 0)
(0.000138502 -0.0010649 0)
(0.000129318 -0.00107787 0)
(0.000119841 -0.00109043 0)
(0.000109751 -0.00110249 0)
(9.86908e-05 -0.00111392 0)
(8.62359e-05 -0.00112451 0)
(0.000347654 -0.000902653 0)
(0.000326624 -0.000921829 0)
(0.000307064 -0.000940373 0)
(0.000288362 -0.000958287 0)
(0.000269917 -0.000975573 0)
(0.000251129 -0.000992217 0)
(0.000231378 -0.00100819 0)
(0.000210009 -0.00102345 0)
(0.000186323 -0.00103791 0)
(0.000546448 -0.000736975 0)
(0.000513327 -0.000762807 0)
(0.000482906 -0.000787778 0)
(0.000454321 -0.000811815 0)
(0.000426697 -0.000834888 0)
(0.000399137 -0.000857004 0)
(0.000370704 -0.000878196 0)
(0.000340395 -0.000898522 0)
(0.000307101 -0.000918058 0)
(0.000760699 -0.000558549 0)
(0.00071434 -0.000590789 0)
(0.000672255 -0.000622166 0)
(0.000633404 -0.000652422 0)
(0.000596702 -0.000681416 0)
(0.000561015 -0.000709112 0)
(0.00052515 -0.000735575 0)
(0.000487826 -0.000760964 0)
(0.000447621 -0.000785548 0)
(0.000241417 -0.00089631 0)
(0.000213655 -0.000933871 0)
(0.000196526 -0.000962885 0)
(0.000185802 -0.000987308 0)
(0.000478176 -0.000821666 0)
(0.000430488 -0.000841165 0)
(0.000400931 -0.000856943 0)
(0.000382538 -0.000870586 0)
(0.00071267 -0.00071073 0)
(0.000654651 -0.000708217 0)
(0.000618608 -0.000708058 0)
(0.000596484 -0.000709059 0)
(0.000940012 -0.000583211 0)
(0.000882363 -0.000559733 0)
(0.000846424 -0.000544526 0)
(0.0008247 -0.000533966 0)
(0.00133559 -0.000342371 0)
(0.0013018 -0.00029679 0)
(0.00128049 -0.000266894 0)
(0.00126847 -0.000248021 0)
(0.00149027 -0.000242014 0)
(0.00147357 -0.000198846 0)
(0.0014636 -0.000171651 0)
(0.00145951 -0.000155792 0)
(0.00160928 -0.000153083 0)
(0.00160826 -0.000119404 0)
(0.00160897 -9.88605e-05 0)
(0.00161246 -8.71633e-05 0)
(0.00168658 -7.23833e-05 0)
(0.00169546 -5.44263e-05 0)
(0.00170292 -4.38307e-05 0)
(0.00171136 -3.80942e-05 0)
(0.00176701 -1.90513e-05 0)
(0.0016857 -4.82991e-05 0)
(0.00155934 -9.50859e-05 0)
(0.00139942 -0.000162897 0)
(0.00181944 -1.37596e-05 0)
(0.00175571 -3.48256e-05 0)
(0.00165512 -6.82366e-05 0)
(0.00152499 -0.000117079 0)
(0.00187997 -1.34076e-05 0)
(0.00182955 -3.15025e-05 0)
(0.00174899 -5.76194e-05 0)
(0.00164309 -9.41382e-05 0)
(0.00194879 -1.50789e-05 0)
(0.00190829 -3.3081e-05 0)
(0.00184312 -5.61553e-05 0)
(0.00175673 -8.59737e-05 0)
(0.00202548 -1.73238e-05 0)
(0.00199249 -3.65334e-05 0)
(0.00193924 -5.90436e-05 0)
(0.00186855 -8.60013e-05 0)
(0.00210922 -1.92973e-05 0)
(0.00208206 -3.99382e-05 0)
(0.00203825 -6.2951e-05 0)
(0.0019803 -8.91805e-05 0)
(0.00219887 -2.03868e-05 0)
(0.0021764 -4.18681e-05 0)
(0.00214022 -6.53442e-05 0)
(0.00209273 -9.15565e-05 0)
(0.00229303 -1.99958e-05 0)
(0.00227437 -4.09531e-05 0)
(0.00224452 -6.39076e-05 0)
(0.00220577 -8.96788e-05 0)
(0.00238983 -1.72703e-05 0)
(0.00237421 -3.52956e-05 0)
(0.00234991 -5.58925e-05 0)
(0.00231875 -7.98941e-05 0)
(0.00116589 -0.000280019 0)
(0.00111399 -0.000310338 0)
(0.00106494 -0.000341007 0)
(0.00101876 -0.000371616 0)
(0.000975163 -0.000401894 0)
(0.000933728 -0.000431726 0)
(0.000893945 -0.00046115 0)
(0.000855311 -0.000490371 0)
(0.000817387 -0.000519763 0)
(0.00132984 -0.000206123 0)
(0.00128588 -0.000231495 0)
(0.00124353 -0.000257529 0)
(0.00120305 -0.000284019 0)
(0.00116456 -0.00031082 0)
(0.00112812 -0.000337872 0)
(0.00109374 -0.000365209 0)
(0.00106147 -0.000392969 0)
(0.00103142 -0.000421394 0)
(0.00148082 -0.000162727 0)
(0.00144411 -0.000184556 0)
(0.00140853 -0.000207213 0)
(0.00137441 -0.000230596 0)
(0.00134205 -0.000254633 0)
(0.00131172 -0.00027929 0)
(0.00128371 -0.000304579 0)
(0.00125834 -0.000330563 0)
(0.00123597 -0.000357351 0)
(0.00162286 -0.000141683 0)
(0.00159263 -0.000161024 0)
(0.00156329 -0.000181268 0)
(0.00153521 -0.000202355 0)
(0.00150875 -0.000224233 0)
(0.00148428 -0.000246867 0)
(0.00146218 -0.000270238 0)
(0.00144287 -0.000294342 0)
(0.00142679 -0.00031919 0)
(0.00175881 -0.000134755 0)
(0.00173407 -0.00015241 0)
(0.00171007 -0.000170955 0)
(0.00168717 -0.000190344 0)
(0.00166574 -0.000210531 0)
(0.00164616 -0.000231468 0)
(0.00162883 -0.000253109 0)
(0.00161416 -0.000275401 0)
(0.00160259 -0.000298289 0)
(0.00189061 -0.00013477 0)
(0.00187024 -0.000151263 0)
(0.00185048 -0.000168574 0)
(0.00183167 -0.000186667 0)
(0.00181414 -0.000205496 0)
(0.00179824 -0.000225005 0)
(0.00178432 -0.000245127 0)
(0.00177274 -0.00026578 0)
(0.0017639 -0.000286864 0)
(0.00201942 -0.000135776 0)
(0.0020023 -0.000151362 0)
(0.00198568 -0.000167683 0)
(0.00196986 -0.000184711 0)
(0.00195511 -0.000202399 0)
(0.00194172 -0.000220691 0)
(0.00192995 -0.000239506 0)
(0.0019201 -0.000258747 0)
(0.00191243 -0.000278287 0)
(0.00214575 -0.000132721 0)
(0.00213091 -0.000147475 0)
(0.0021165 -0.000162918 0)
(0.00210274 -0.00017902 0)
(0.00208985 -0.000195734 0)
(0.00207804 -0.000213001 0)
(0.00206747 -0.00023074 0)
(0.00205832 -0.000248845 0)
(0.00205072 -0.00026718 0)
(0.00226975 -0.000120931 0)
(0.00225655 -0.00013496 0)
(0.00224368 -0.000149714 0)
(0.00223134 -0.000165141 0)
(0.00221969 -0.000181181 0)
(0.00220888 -0.000197761 0)
(0.00219898 -0.000214793 0)
(0.00219005 -0.000232168 0)
(0.00218204 -0.000249753 0)
(0.000167423 -0.00102379 0)
(0.000157231 -0.00103788 0)
(0.000147702 -0.00105157 0)
(0.000138502 -0.0010649 0)
(0.000129318 -0.00107787 0)
(0.000119841 -0.00109043 0)
(0.000109751 -0.00110249 0)
(9.86908e-05 -0.00111392 0)
(8.62359e-05 -0.00112451 0)
(0.000347654 -0.000902653 0)
(0.000326624 -0.000921829 0)
(0.000307064 -0.000940373 0)
(0.000288362 -0.000958287 0)
(0.000269917 -0.000975573 0)
(0.000251129 -0.000992217 0)
(0.000231378 -0.00100819 0)
(0.000210009 -0.00102345 0)
(0.000186323 -0.00103791 0)
(0.000546448 -0.000736975 0)
(0.000513327 -0.000762807 0)
(0.000482906 -0.000787778 0)
(0.000454321 -0.000811815 0)
(0.000426697 -0.000834888 0)
(0.000399137 -0.000857004 0)
(0.000370704 -0.000878196 0)
(0.000340395 -0.000898522 0)
(0.000307101 -0.000918058 0)
(0.000760699 -0.000558549 0)
(0.00071434 -0.000590789 0)
(0.000672255 -0.000622166 0)
(0.000633404 -0.000652422 0)
(0.000596702 -0.000681416 0)
(0.000561015 -0.000709112 0)
(0.00052515 -0.000735575 0)
(0.000487826 -0.000760964 0)
(0.000447621 -0.000785548 0)
)
;

boundaryField
{
    back
    {
        type            empty;
    }
    front
    {
        type            empty;
    }
    left
    {
        type            pointFixedDisplacementZeroShear;
    }
    hole
    {
        type            pointSolidTraction;
        traction        uniform (0 0 0);
        pressure        uniform 0;
    }
    down
    {
        type            pointFixedDisplacementZeroShear;
    }
    right
    {
        type            pointSolidTraction;
        tractionSeries  
{
        fileName        "$FOAM_CASE/constant/timeVsTraction";
        outOfBounds     clamp;
}
        pressure        uniform 0;
    }
    up
    {
        type            pointSolidTraction;
        traction        uniform (0 0 0);
        pressure        uniform 0;
    }
}


// ************************************************************************* //
