/*--------------------------------*- C++ -*----------------------------------*\
| =========                 |                                                 |
| \\      /  F ield         | OpenFOAM: The Open Source CFD Toolbox           |
|  \\    /   O peration     | Version:  v2012                                 |
|   \\  /    A nd           | Website:  www.openfoam.com                      |
|    \\/     M anipulation  |                                                 |
\*---------------------------------------------------------------------------*/
FoamFile
{
    version     2.0;
    format      ascii;
    class       volSymmTensorField;
    location    "5";
    object      sigma;
}
// * * * * * * * * * * * * * * * * * * * * * * * * * * * * * * * * * * * * * //

dimensions      [1 -1 -2 0 0 0 0];


internalField   nonuniform List<symmTensor> 
500
(
(2.76874e+08 -5.0541e+06 1.69562e-08 3.62864e+06 -1.69562e-07 8.57058e+07)
(2.09912e+08 -3.23555e+07 6.71371e-08 5.20058e+06 4.67041e-08 6.45338e+07)
(2.24091e+08 4.13305e+06 2.62711e-08 1.92541e+07 7.00561e-08 7.30034e+07)
(1.75226e+08 -1.69722e+07 5.83801e-08 1.31669e+07 8.17322e-08 5.65178e+07)
(1.85065e+08 7.7253e+06 8.75702e-09 2.32516e+07 -1.1676e-08 6.2495e+07)
(1.51438e+08 -8.19949e+06 2.3352e-08 1.5563e+07 0 5.01003e+07)
(1.58067e+08 9.26083e+06 7.29751e-09 2.1921e+07 -2.3352e-08 5.39965e+07)
(1.33999e+08 -3.00259e+06 2.91901e-09 1.48982e+07 2.3352e-08 4.46693e+07)
(1.38286e+08 9.95623e+06 2.91901e-09 1.81207e+07 -1.1676e-08 4.6922e+07)
(1.20241e+08 115648 0 1.26436e+07 0 3.98655e+07)
(2.53723e+08 -2.87862e+07 -1.4595e-08 2.14368e+07 1.1676e-08 8.25478e+07)
(1.80885e+08 -4.45775e+07 -4.08661e-08 1.7262e+07 -2.3352e-08 5.94442e+07)
(2.08785e+08 -7.83655e+06 7.58942e-08 2.26756e+07 3.50281e-08 6.94381e+07)
(1.583e+08 -2.1434e+07 2.91901e-08 1.51047e+07 -3.50281e-08 5.20214e+07)
(1.78352e+08 3.88046e+06 2.3352e-08 2.10143e+07 5.25421e-08 5.98098e+07)
(1.41678e+08 -7.55931e+06 5.83801e-09 1.22764e+07 2.3352e-08 4.61864e+07)
(1.56538e+08 1.05272e+07 1.1676e-08 1.7902e+07 5.83801e-09 5.23321e+07)
(1.28843e+08 965567 1.7514e-08 9.40977e+06 -5.83801e-08 4.14758e+07)
(1.40029e+08 1.42544e+07 0 1.42466e+07 1.1676e-08 4.62826e+07)
(1.1848e+08 6.24977e+06 0 6.76842e+06 0 3.75744e+07)
(1.98875e+08 -4.51754e+07 -8.75702e-08 2.39294e+07 -4.67041e-08 6.68413e+07)
(1.42815e+08 -4.74897e+07 1.1676e-08 2.57712e+07 1.1676e-08 5.05758e+07)
(1.79065e+08 -1.74875e+07 4.08661e-08 1.82923e+07 -4.08661e-08 5.92072e+07)
(1.34456e+08 -2.36458e+07 -2.3352e-08 1.17413e+07 0 4.38593e+07)
(1.63163e+08 -1.61149e+06 4.67041e-08 1.37617e+07 -6.42181e-08 5.30775e+07)
(1.26936e+08 -8.99448e+06 1.1676e-08 3.49421e+06 -4.67041e-08 3.91292e+07)
(1.50061e+08 7.68327e+06 -5.83801e-09 1.0056e+07 -3.50281e-08 4.8035e+07)
(1.2024e+08 257345 1.1676e-08 -1.40917e+06 -1.1676e-08 3.56493e+07)
(1.39014e+08 1.31205e+07 1.1676e-08 7.03452e+06 -5.83801e-09 4.38144e+07)
(1.14336e+08 6.19279e+06 1.1676e-08 -4.25364e+06 -1.1676e-08 3.30247e+07)
(1.3197e+08 -4.671e+07 3.50281e-08 2.24322e+07 -3.50281e-08 4.63205e+07)
(1.02394e+08 -4.08203e+07 -3.50281e-08 2.68516e+07 1.1676e-08 3.87738e+07)
(1.39102e+08 -2.27534e+07 3.50281e-08 1.11628e+07 -5.83801e-09 4.50795e+07)
(1.06672e+08 -2.3859e+07 3.50281e-08 5.08124e+06 -3.50281e-08 3.35261e+07)
(1.39197e+08 -8.25849e+06 5.83801e-08 4.6194e+06 -7.00561e-08 4.31448e+07)
(1.07632e+08 -1.26846e+07 1.1676e-08 -6.57839e+06 -1.1676e-08 3.0316e+07)
(1.3608e+08 723829 1.1676e-08 837958 0 4.10753e+07)
(1.06761e+08 -5.17761e+06 -1.1676e-08 -1.26465e+07 2.3352e-08 2.82343e+07)
(1.31543e+08 6.35316e+06 1.7514e-08 -1.24525e+06 5.83801e-09 3.90892e+07)
(1.04979e+08 -51743.9 3.50281e-08 -1.54462e+07 -1.1676e-08 2.68597e+07)
(6.96475e+07 -3.43608e+07 2.3352e-08 1.37247e+07 -2.3352e-08 2.50116e+07)
(6.70952e+07 -2.81707e+07 0 1.90168e+07 0 2.58336e+07)
(9.6053e+07 -2.21344e+07 3.50281e-08 1.81718e+06 -5.83801e-09 2.93611e+07)
(7.88974e+07 -2.1702e+07 -1.1676e-08 -2.93964e+06 5.83801e-09 2.27873e+07)
(1.08746e+08 -1.3493e+07 0 -4.55253e+06 1.1676e-08 3.1258e+07)
(8.59516e+07 -1.6208e+07 -4.67041e-08 -1.43338e+07 0 2.14854e+07)
(1.14266e+08 -7.40588e+06 -2.3352e-08 -7.63173e+06 -1.1676e-08 3.19903e+07)
(8.9947e+07 -1.16022e+07 2.3352e-08 -1.95515e+07 5.83801e-09 2.11187e+07)
(1.1581e+08 -3.00529e+06 -3.50281e-08 -8.91246e+06 2.3352e-08 3.20692e+07)
(9.09209e+07 -7.35837e+06 7.00561e-08 -2.0978e+07 0 2.09829e+07)
(2.2621e+07 -1.50129e+07 -2.3352e-08 -2.29791e+06 5.83801e-09 6.09693e+06)
(3.92279e+07 -1.48227e+07 0 4.53988e+06 -5.83801e-09 1.31303e+07)
(5.65779e+07 -1.62218e+07 1.1676e-08 -8.02122e+06 -1.7514e-08 1.4567e+07)
(5.06801e+07 -1.89345e+07 0 -1.19605e+07 0 1.16159e+07)
(7.59759e+07 -1.51559e+07 -3.50281e-08 -9.61866e+06 5.83801e-09 1.99072e+07)
(5.81956e+07 -2.03591e+07 2.3352e-08 -2.00499e+07 1.1676e-08 1.14437e+07)
(8.70773e+07 -1.33656e+07 0 -7.86474e+06 0 2.37638e+07)
(6.34976e+07 -2.10292e+07 -4.67041e-08 -2.26701e+07 0 1.22482e+07)
(9.32729e+07 -1.15874e+07 1.1676e-08 -2.18475e+06 -2.91901e-09 2.73264e+07)
(6.88193e+07 -2.28862e+07 0 -2.09316e+07 0 1.43663e+07)
(-4.30615e+06 2.94791e+06 2.3352e-08 -2.77233e+07 -1.1676e-08 -9.60883e+06)
(2.41497e+07 -4.90895e+06 4.67041e-08 -1.56555e+07 0 2.54828e+06)
(2.62989e+07 -9.24349e+06 8.17322e-08 -2.45644e+07 -5.83801e-09 520338)
(3.20929e+07 -1.59778e+07 4.67041e-08 -2.29593e+07 0 2.74009e+06)
(4.55693e+07 -1.55927e+07 4.67041e-08 -2.13037e+07 -1.4595e-09 7.27966e+06)
(3.87758e+07 -2.20386e+07 -4.67041e-08 -2.56521e+07 8.75702e-09 3.93711e+06)
(5.77617e+07 -1.90993e+07 8.17322e-08 -1.83184e+07 -8.75702e-09 1.1833e+07)
(4.44562e+07 -2.54046e+07 0 -2.58865e+07 -8.75702e-09 5.57092e+06)
(6.54414e+07 -2.18121e+07 -3.50281e-08 -1.70633e+07 0 1.45134e+07)
(4.91017e+07 -2.68239e+07 0 -2.57989e+07 -2.91901e-09 6.99086e+06)
(-1.66207e+07 1.511e+07 2.3352e-08 -5.76238e+07 -2.91901e-09 -2.22733e+07)
(1.56413e+07 -483802 4.67041e-08 -3.75492e+07 -5.83801e-09 -6.57239e+06)
(6.19904e+06 -2.46023e+06 0 -4.26932e+07 -1.4595e-09 -1.09482e+07)
(1.79397e+07 -1.3109e+07 -4.67041e-08 -3.43423e+07 1.4595e-09 -4.92078e+06)
(2.19566e+07 -1.25701e+07 0 -3.25396e+07 4.37851e-09 -3.17489e+06)
(2.17328e+07 -2.02541e+07 9.34082e-08 -3.09246e+07 -1.4595e-09 -2.75752e+06)
(3.3185e+07 -1.84761e+07 1.1676e-08 -2.54766e+07 3.64876e-09 2.31252e+06)
(2.63212e+07 -2.39904e+07 -4.67041e-08 -2.76615e+07 1.4595e-09 -402098)
(4.16995e+07 -2.16842e+07 2.3352e-08 -2.04497e+07 6.56776e-09 6.37493e+06)
(3.10112e+07 -2.56956e+07 -4.67041e-08 -2.47946e+07 5.83801e-09 1.86499e+06)
(-1.89344e+07 1.86251e+07 2.3352e-08 -8.48304e+07 8.75702e-09 -3.11294e+07)
(9.6751e+06 -1.56723e+06 7.00561e-08 -5.58266e+07 -4.37851e-09 -1.38454e+07)
(-5.37133e+06 2.36021e+06 7.00561e-08 -5.8787e+07 1.4595e-09 -1.92475e+07)
(5.79988e+06 -1.12362e+07 -4.67041e-08 -4.36418e+07 2.18925e-09 -1.13526e+07)
(5.6396e+06 -7.1487e+06 2.3352e-08 -4.08279e+07 -5.10826e-09 -1.05565e+07)
(7.75857e+06 -1.57851e+07 7.00561e-08 -3.39755e+07 7.29751e-10 -7.86507e+06)
(1.47473e+07 -1.25732e+07 0 -2.90584e+07 1.4595e-09 -4.29335e+06)
(1.20327e+07 -1.80528e+07 7.00561e-08 -2.68215e+07 -3.64876e-09 -4.43665e+06)
(2.24417e+07 -1.5613e+07 3.50281e-08 -2.11468e+07 3.64876e-10 388463)
(1.72881e+07 -1.92962e+07 0 -2.13061e+07 0 -1.20541e+06)
(-1.64437e+07 1.25794e+07 -2.3352e-08 -1.03998e+08 0 -3.61324e+07)
(-8.03407e+06 -8.65439e+06 2.3352e-08 -6.81574e+07 7.29751e-10 -2.28574e+07)
(-1.06223e+07 4.4647e+06 2.3352e-08 -6.62957e+07 1.4595e-09 -2.30754e+07)
(-5.96885e+06 -8.18415e+06 -2.3352e-08 -4.71629e+07 1.4595e-09 -1.59395e+07)
(-3.69268e+06 -7057.79 0 -4.43553e+07 0 -1.44144e+07)
(-1.74756e+06 -7.78847e+06 3.50281e-08 -3.3907e+07 0 -1.06964e+07)
(3.5275e+06 -2.77853e+06 2.3352e-08 -3.05435e+07 1.4595e-09 -8.1048e+06)
(3.44973e+06 -7.37431e+06 -4.67041e-08 -2.52815e+07 0 -6.54953e+06)
(1.04421e+07 -4.69626e+06 0 -2.17164e+07 0 -3.3823e+06)
(9.04088e+06 -6.9539e+06 -3.50281e-08 -1.98078e+07 3.64876e-10 -3.23006e+06)
(1.9153e+07 -6.72652e+06 -4.67041e-08 -1.5474e+07 7.29751e-10 1.10369e+06)
(2.73077e+07 -2.47493e+06 4.67041e-08 -170261 0 8.14123e+06)
(1.82924e+07 -1.83551e+07 3.50281e-08 -2.02623e+07 -7.29751e-10 -590966)
(3.97194e+07 -9.417e+06 0 1.49452e+06 0 1.23642e+07)
(2.64825e+07 -2.69266e+07 -7.00561e-08 -2.76233e+07 2.18925e-09 -342243)
(5.6889e+07 -1.35042e+07 -4.67041e-08 2.47256e+06 2.91901e-09 1.78085e+07)
(4.03122e+07 -3.06382e+07 -1.1676e-08 -3.43138e+07 2.91901e-09 1.7995e+06)
(7.53843e+07 -1.39013e+07 0 3.46262e+06 -5.83801e-09 2.36541e+07)
(5.78003e+07 -2.86052e+07 2.3352e-08 -3.64112e+07 -2.18925e-09 6.41676e+06)
(9.24901e+07 -1.07168e+07 -2.3352e-08 5.35067e+06 -1.4595e-09 2.93522e+07)
(2.81758e+07 -6.06177e+06 0 -536364 0 8.29184e+06)
(3.43642e+07 -3.55238e+06 -4.67041e-08 5.73203e+06 -3.64876e-10 1.20289e+07)
(2.86571e+07 -1.57927e+07 -7.00561e-08 -6.85696e+06 1.64194e-09 6.54003e+06)
(4.38687e+07 -9.64732e+06 9.34082e-08 5.96221e+06 0 1.49493e+07)
(3.39499e+07 -2.33814e+07 -2.3352e-08 -1.57944e+07 -1.82438e-09 5.44666e+06)
(5.68585e+07 -1.33687e+07 -9.34082e-08 5.67445e+06 2.91901e-09 1.87599e+07)
(4.29914e+07 -2.71707e+07 -2.3352e-08 -2.51581e+07 -3.64876e-10 5.34997e+06)
(7.09016e+07 -1.41403e+07 0 5.48479e+06 -2.91901e-09 2.29159e+07)
(5.43796e+07 -2.63406e+07 -2.3352e-08 -3.21091e+07 6.56776e-09 6.68117e+06)
(8.37048e+07 -1.21806e+07 -2.3352e-08 6.13249e+06 3.64876e-09 2.69512e+07)
(3.68659e+07 -4.60778e+06 -4.67041e-08 6.60181e+06 -3.64876e-10 1.30403e+07)
(4.0435e+07 -3.41428e+06 -4.67041e-08 8.28581e+06 -7.29751e-10 1.46162e+07)
(3.73575e+07 -1.26859e+07 -2.3352e-08 1.65674e+06 3.64876e-10 1.17043e+07)
(4.72038e+07 -8.86611e+06 -4.67041e-08 8.10368e+06 7.29751e-10 1.65923e+07)
(4.08248e+07 -1.94156e+07 2.3352e-08 -5.71364e+06 7.29751e-10 1.05334e+07)
(5.6689e+07 -1.25769e+07 9.34082e-08 7.39026e+06 -2.91901e-09 1.92238e+07)
(4.69043e+07 -2.35833e+07 -9.34082e-08 -1.42238e+07 1.09463e-09 9.80413e+06)
(6.74033e+07 -1.40635e+07 0 6.59336e+06 0 2.2199e+07)
(5.47766e+07 -2.44526e+07 5.83801e-08 -2.20527e+07 -2.18925e-09 9.81716e+06)
(7.7667e+07 -1.34086e+07 0 6.2406e+06 -7.29751e-09 2.51723e+07)
(4.42273e+07 -3.39972e+06 -2.3352e-08 9.90349e+06 -3.64876e-10 1.62392e+07)
(4.59925e+07 -2.98525e+06 4.67041e-08 9.37546e+06 0 1.66104e+07)
(4.45678e+07 -1.001e+07 9.34082e-08 6.46955e+06 -1.09463e-09 1.53112e+07)
(5.06366e+07 -7.78388e+06 -9.34082e-08 9.06719e+06 7.29751e-10 1.79111e+07)
(4.68829e+07 -1.57836e+07 -9.34082e-08 1.11878e+06 -3.64876e-10 1.44005e+07)
(5.73443e+07 -1.13701e+07 4.67041e-08 8.23385e+06 2.91901e-09 1.96735e+07)
(5.10628e+07 -1.99167e+07 -2.3352e-08 -5.4763e+06 1.4595e-09 1.3676e+07)
(6.53135e+07 -1.334e+07 -4.67041e-08 7.17439e+06 2.91901e-09 2.17464e+07)
(5.67078e+07 -2.18602e+07 3.50281e-08 -1.22351e+07 7.29751e-10 1.33418e+07)
(7.35083e+07 -1.36573e+07 -1.1676e-08 6.24822e+06 -7.29751e-10 2.3927e+07)
(5.02809e+07 -2.5358e+06 -4.67041e-08 1.1268e+07 1.82438e-10 1.84647e+07)
(5.10346e+07 -2.50722e+06 -4.67041e-08 9.88024e+06 0 1.82745e+07)
(5.05012e+07 -7.9104e+06 4.67041e-08 8.95746e+06 5.47314e-10 1.78376e+07)
(5.41609e+07 -6.66883e+06 0 9.52601e+06 -7.29751e-10 1.91061e+07)
(5.20616e+07 -1.27353e+07 2.3352e-08 5.24288e+06 3.64876e-10 1.71914e+07)
(5.87888e+07 -9.98759e+06 -4.67041e-08 8.66465e+06 0 2.0236e+07)
(5.49678e+07 -1.64904e+07 3.50281e-08 470399 -3.64876e-10 1.66314e+07)
(6.45426e+07 -1.21338e+07 0 7.49252e+06 -1.4595e-09 2.16105e+07)
(5.90736e+07 -1.88058e+07 2.3352e-08 -4.74271e+06 4.37851e-09 1.62993e+07)
(7.08839e+07 -1.30048e+07 -2.3352e-08 6.25914e+06 -7.29751e-10 2.31429e+07)
(5.5226e+07 -1.94058e+06 2.3352e-08 1.17377e+07 -7.29751e-10 2.00891e+07)
(5.55405e+07 -2.03257e+06 -4.67041e-08 1.03337e+07 0 1.97623e+07)
(5.53552e+07 -6.29746e+06 -7.00561e-08 1.01557e+07 -7.29751e-10 1.96533e+07)
(5.76056e+07 -5.59776e+06 -4.67041e-08 9.94964e+06 0 2.02666e+07)
(5.63791e+07 -1.025e+07 4.67041e-08 7.55985e+06 -2.91901e-09 1.91817e+07)
(6.07074e+07 -8.55627e+06 -1.40112e-07 9.06652e+06 2.91901e-09 2.09322e+07)
(5.8365e+07 -1.34512e+07 -2.3352e-08 4.14454e+06 4.37851e-09 1.87529e+07)
(6.47102e+07 -1.06404e+07 4.67041e-08 7.81872e+06 2.91901e-09 2.17587e+07)
(6.13039e+07 -1.56539e+07 0 266325 1.4595e-09 1.84711e+07)
(6.93884e+07 -1.17211e+07 7.00561e-08 6.39654e+06 1.4595e-09 2.27355e+07)
(5.92413e+07 -1.53338e+06 -1.1676e-07 1.19641e+07 1.82438e-10 2.13616e+07)
(5.9516e+07 -1.55858e+06 -4.67041e-08 1.11578e+07 0 2.12021e+07)
(5.92798e+07 -5.03943e+06 1.40112e-07 1.08142e+07 -1.27707e-09 2.10282e+07)
(6.08223e+07 -4.56447e+06 0 1.07426e+07 0 2.14695e+07)
(5.98741e+07 -8.20516e+06 -9.34082e-08 8.8996e+06 7.29751e-10 2.06321e+07)
(6.27871e+07 -7.10655e+06 9.34082e-08 9.79929e+06 0 2.17759e+07)
(6.11343e+07 -1.07877e+07 2.3352e-08 6.35196e+06 7.29751e-10 2.02459e+07)
(6.54011e+07 -8.97034e+06 0 8.4332e+06 4.37851e-09 2.21503e+07)
(6.31188e+07 -1.26148e+07 0 3.39553e+06 0 1.99543e+07)
(6.86135e+07 -1.00237e+07 -4.67041e-08 6.82866e+06 1.4595e-09 2.26326e+07)
(6.24505e+07 -1.25959e+06 -2.3352e-08 1.24356e+07 5.47314e-10 2.24658e+07)
(6.29744e+07 -1.06856e+06 9.34082e-08 1.27907e+07 -3.64876e-10 2.27295e+07)
(6.23508e+07 -4.01099e+06 -1.1676e-07 1.15108e+07 1.4595e-09 2.21585e+07)
(6.37076e+07 -3.50975e+06 -9.34082e-08 1.23567e+07 1.4595e-09 2.28193e+07)
(6.25464e+07 -6.43445e+06 4.67041e-08 9.9438e+06 0 2.17471e+07)
(6.4789e+07 -5.57259e+06 9.34082e-08 1.12492e+07 2.91901e-09 2.28114e+07)
(6.32002e+07 -8.37266e+06 -7.00561e-08 7.85284e+06 4.37851e-09 2.13159e+07)
(6.62755e+07 -7.10848e+06 -4.67041e-08 9.60511e+06 0 2.27642e+07)
(6.43896e+07 -9.70724e+06 0 5.40954e+06 -7.29751e-10 2.09397e+07)
(6.82113e+07 -7.99304e+06 0 7.70682e+06 1.4595e-09 2.27754e+07)
(6.49411e+07 -1.09812e+06 -2.3352e-08 1.36316e+07 -3.64876e-10 2.35718e+07)
(6.58987e+07 -553429 -1.40112e-07 1.58622e+07 3.64876e-10 2.45283e+07)
(6.45051e+07 -3.07408e+06 0 1.27603e+07 -9.12189e-10 2.31796e+07)
(6.61727e+07 -2.2816e+06 -1.40112e-07 1.54713e+07 2.18925e-09 2.44932e+07)
(6.42546e+07 -4.68517e+06 0 1.12382e+07 0 2.26478e+07)
(6.65404e+07 -3.721e+06 0 1.38028e+07 -2.91901e-09 2.4103e+07)
(6.44829e+07 -5.94769e+06 -9.34082e-08 9.24813e+06 0 2.21193e+07)
(6.71076e+07 -4.8652e+06 0 1.15621e+07 0 2.36009e+07)
(6.50668e+07 -6.75287e+06 -2.3352e-08 6.94874e+06 2.18925e-09 2.16047e+07)
(6.79259e+07 -5.53055e+06 -7.00561e-08 9.06177e+06 3.64876e-09 2.30963e+07)
(6.68486e+07 -1.09506e+06 0 1.62559e+07 0 2.49314e+07)
(6.81842e+07 -66.2313 2.3352e-08 2.21412e+07 -1.82438e-10 2.70976e+07)
(6.50954e+07 -1.83974e+06 -7.00561e-08 1.50426e+07 3.64876e-10 2.40414e+07)
(6.80261e+07 -362310 9.34082e-08 2.04666e+07 3.64876e-10 2.65478e+07)
(6.48261e+07 -2.51861e+06 0 1.32162e+07 1.4595e-09 2.34127e+07)
(6.79708e+07 -1.07614e+06 0 1.79346e+07 7.29751e-10 2.57716e+07)
(6.48694e+07 -3.04016e+06 -1.1676e-07 1.09135e+07 7.29751e-10 2.27349e+07)
(6.78388e+07 -1.76504e+06 0 1.45073e+07 0 2.47038e+07)
(6.51468e+07 -3.31581e+06 -9.34082e-08 8.34717e+06 4.37851e-09 2.20482e+07)
(6.75967e+07 -2.29485e+06 0 1.05375e+07 -7.29751e-10 2.34403e+07)
(7.73555e+07 -1.97051e+07 0 -2.99635e+07 5.83801e-09 1.42176e+07)
(9.30635e+07 -1.09956e+07 -2.3352e-08 -8.31179e+06 0 2.54255e+07)
(8.56609e+07 -1.41992e+07 -1.1676e-08 -2.55843e+07 0 1.8023e+07)
(9.73709e+07 -8.24885e+06 2.3352e-08 -7.92647e+06 -1.1676e-08 2.68333e+07)
(9.1593e+07 -9.46824e+06 -1.1676e-08 -2.14081e+07 8.75702e-09 2.10555e+07)
(1.00264e+08 -5.44545e+06 -4.67041e-08 -7.26105e+06 5.83801e-09 2.79008e+07)
(9.59177e+07 -5.55377e+06 2.3352e-08 -1.7402e+07 -5.83801e-09 2.35547e+07)
(1.02275e+08 -2.86591e+06 -4.67041e-08 -6.29829e+06 1.1676e-08 2.8793e+07)
(9.91587e+07 -2.50588e+06 0 -1.35696e+07 5.83801e-09 2.56767e+07)
(1.03816e+08 -657168 2.3352e-08 -5.0979e+06 0 2.96154e+07)
(1.01736e+08 -368260 2.3352e-08 -9.95027e+06 0 2.75359e+07)
(1.0526e+08 1.10426e+06 0 -3.74702e+06 5.83801e-09 3.0454e+07)
(1.0403e+08 828244 -1.1676e-08 -6.61673e+06 1.7514e-08 2.92241e+07)
(1.06979e+08 2.38858e+06 1.1676e-08 -2.34304e+06 -1.1676e-08 3.13908e+07)
(1.06407e+08 1.07183e+06 0 -3.67844e+06 1.7514e-08 3.08185e+07)
(1.09363e+08 3.20627e+06 -1.1676e-08 -988014 1.1676e-08 3.25126e+07)
(1.09228e+08 389853 -1.1676e-08 -1.30365e+06 5.83801e-09 3.23774e+07)
(1.12821e+08 3.61023e+06 -3.50281e-08 212320 1.1676e-08 3.39099e+07)
(1.12821e+08 -1.07918e+06 5.83801e-09 213334 -5.83801e-09 3.39104e+07)
(1.17699e+08 3.69719e+06 -1.1676e-08 1.14308e+06 0 3.56527e+07)
(7.40159e+07 -1.84551e+07 0 -1.6475e+07 0 1.72622e+07)
(8.40719e+07 -1.23634e+07 -7.00561e-08 -4.05712e+06 2.91901e-09 2.40044e+07)
(7.90482e+07 -1.62151e+07 -2.3352e-08 -1.5779e+07 1.4595e-09 1.89808e+07)
(8.83948e+07 -1.07554e+07 7.00561e-08 -3.6717e+06 -1.1676e-08 2.54169e+07)
(8.38398e+07 -1.36723e+07 3.50281e-08 -1.42999e+07 -1.4595e-09 2.0862e+07)
(9.21232e+07 -8.98095e+06 2.3352e-08 -3.15774e+06 -1.1676e-08 2.66896e+07)
(8.81902e+07 -1.11807e+07 1.1676e-08 -1.23346e+07 -1.4595e-09 2.27567e+07)
(9.5387e+07 -7.15807e+06 0 -2.50502e+06 0 2.78646e+07)
(9.21292e+07 -8.94185e+06 2.3352e-08 -1.01065e+07 -2.91901e-09 2.46068e+07)
(9.83919e+07 -5.37889e+06 2.3352e-08 -1.72724e+06 -5.83801e-09 2.89994e+07)
(9.57862e+07 -7.06833e+06 0 -7.8073e+06 -8.75702e-09 2.63937e+07)
(1.01376e+08 -3.69828e+06 0 -858476 -1.7514e-08 3.01554e+07)
(9.93363e+07 -5.6114e+06 2.3352e-08 -5.61855e+06 -8.75702e-09 2.81153e+07)
(1.04595e+08 -2.13196e+06 2.3352e-08 53506.4 -1.1676e-08 3.13946e+07)
(1.02975e+08 -4.57057e+06 0 -3.72576e+06 -2.91901e-09 2.97749e+07)
(1.08311e+08 -655799 -2.3352e-08 953321 5.83801e-09 3.27792e+07)
(1.06907e+08 -3.89636e+06 1.7514e-08 -2.3221e+06 5.83801e-09 3.13755e+07)
(1.12789e+08 795614 -4.67041e-08 1.7834e+06 5.83801e-09 3.43717e+07)
(1.11348e+08 -3.50229e+06 0 -1.57901e+06 0 3.29306e+07)
(1.18309e+08 2.33308e+06 -2.3352e-08 2.49098e+06 0 3.62401e+07)
(7.08196e+07 -1.86086e+07 2.3352e-08 -9.7367e+06 2.91901e-09 1.83249e+07)
(7.8846e+07 -1.3535e+07 0 -416216 2.91901e-09 2.35289e+07)
(7.49884e+07 -1.72491e+07 -2.3352e-08 -9.41727e+06 7.29751e-09 1.96714e+07)
(8.26858e+07 -1.24425e+07 2.3352e-08 -314115 -8.75702e-09 2.47115e+07)
(7.90694e+07 -1.56746e+07 3.50281e-08 -8.7522e+06 -4.37851e-09 2.10952e+07)
(8.63129e+07 -1.11763e+07 0 -116243 -5.83801e-09 2.5859e+07)
(8.30171e+07 -1.39874e+07 -1.1676e-08 -7.8064e+06 1.1676e-08 2.25632e+07)
(8.97665e+07 -9.77199e+06 2.3352e-08 173293 0 2.69819e+07)
(8.68279e+07 -1.22763e+07 -4.67041e-08 -6.68324e+06 -1.4595e-09 2.40434e+07)
(9.31308e+07 -8.25974e+06 0 544951 0 2.81027e+07)
(9.05387e+07 -1.05986e+07 7.00561e-08 -5.50317e+06 -2.91901e-09 2.55107e+07)
(9.65192e+07 -6.65416e+06 2.3352e-08 982458 -1.1676e-08 2.92505e+07)
(9.42145e+07 -8.97586e+06 -1.1676e-08 -4.39533e+06 -5.83801e-09 2.69457e+07)
(1.0006e+08 -4.9488e+06 2.3352e-08 1.46412e+06 -1.7514e-08 3.04573e+07)
(9.79355e+07 -7.39213e+06 5.83801e-08 -3.49325e+06 2.91901e-09 2.83327e+07)
(1.03885e+08 -3.113e+06 0 1.96545e+06 -5.83801e-09 3.17551e+07)
(1.01786e+08 -5.7926e+06 5.83801e-08 -2.93208e+06 -1.4595e-08 2.96562e+07)
(1.08117e+08 -1.0906e+06 -2.3352e-08 2.46224e+06 1.1676e-08 3.31739e+07)
(1.05839e+08 -4.07681e+06 0 -2.85327e+06 -5.83801e-09 3.08958e+07)
(1.12853e+08 1.19941e+06 -4.67041e-08 2.93334e+06 5.83801e-09 3.47359e+07)
(6.88085e+07 -1.80905e+07 0 -4.718e+06 0 1.92272e+07)
(7.52801e+07 -1.3778e+07 -2.3352e-08 2.17671e+06 2.91901e-09 2.32371e+07)
(7.23062e+07 -1.71863e+07 0 -4.76251e+06 -1.4595e-09 2.02631e+07)
(7.85961e+07 -1.30195e+07 2.3352e-08 2.00761e+06 -5.83801e-09 2.41811e+07)
(7.57448e+07 -1.6083e+07 -5.83801e-08 -4.64544e+06 8.75702e-09 2.13298e+07)
(8.18193e+07 -1.20647e+07 7.00561e-08 1.90914e+06 0 2.51185e+07)
(7.91199e+07 -1.48058e+07 5.83801e-08 -4.38951e+06 0 2.24191e+07)
(8.49675e+07 -1.09229e+07 -7.00561e-08 1.87883e+06 1.1676e-08 2.60539e+07)
(8.24304e+07 -1.33791e+07 -2.3352e-08 -4.04092e+06 -1.02165e-08 2.35169e+07)
(8.80728e+07 -9.5986e+06 0 1.91293e+06 5.83801e-09 2.69957e+07)
(8.56839e+07 -1.18168e+07 3.50281e-08 -3.66125e+06 -5.83801e-09 2.46068e+07)
(9.11792e+07 -8.08798e+06 2.3352e-08 2.00627e+06 1.7514e-08 2.79557e+07)
(8.88964e+07 -1.01161e+07 0 -3.32031e+06 2.91901e-09 2.56728e+07)
(9.4336e+07 -6.3762e+06 0 2.15284e+06 0 2.89466e+07)
(9.20891e+07 -8.25425e+06 -2.3352e-08 -3.08996e+06 1.7514e-08 2.66997e+07)
(9.75914e+07 -4.43558e+06 -7.00561e-08 2.34686e+06 5.83801e-09 2.99815e+07)
(9.52837e+07 -6.18736e+06 -5.83801e-08 -3.03793e+06 8.75702e-09 2.76737e+07)
(1.00986e+08 -2.22515e+06 -2.3352e-08 2.58418e+06 0 3.10712e+07)
(9.84997e+07 -3.8529e+06 -3.50281e-08 -3.21802e+06 2.91901e-09 2.85845e+07)
(1.0455e+08 308614 0 2.86402e+06 0 3.22241e+07)
(6.77514e+07 -1.66658e+07 0 -1.04989e+06 2.91901e-09 2.00105e+07)
(7.27864e+07 -1.31297e+07 4.67041e-08 3.80799e+06 -2.91901e-09 2.29783e+07)
(7.0534e+07 -1.6061e+07 0 -1.44758e+06 1.4595e-09 2.07259e+07)
(7.55043e+07 -1.26043e+07 -4.67041e-08 3.44301e+06 -2.91901e-09 2.36842e+07)
(7.32781e+07 -1.52395e+07 9.34082e-08 -1.75138e+06 -4.37851e-09 2.1458e+07)
(7.81608e+07 -1.18692e+07 -4.67041e-08 3.12421e+06 0 2.43855e+07)
(7.59754e+07 -1.42072e+07 -3.50281e-08 -1.97489e+06 1.4595e-09 2.22002e+07)
(8.07573e+07 -1.09259e+07 -2.3352e-08 2.85456e+06 0 2.50836e+07)
(7.86169e+07 -1.29674e+07 -3.50281e-08 -2.1396e+06 5.83801e-09 2.29432e+07)
(8.32985e+07 -9.77237e+06 -2.3352e-08 2.63719e+06 5.83801e-09 2.57807e+07)
(8.1194e+07 -1.15174e+07 -4.67041e-08 -2.2731e+06 1.31355e-08 2.36763e+07)
(8.5791e+07 -8.40091e+06 -2.3352e-08 2.47582e+06 5.83801e-09 2.64801e+07)
(8.36989e+07 -9.8462e+06 -2.3352e-08 -2.40592e+06 7.29751e-09 2.43879e+07)
(8.82421e+07 -6.79763e+06 2.3352e-08 2.37526e+06 5.83801e-09 2.71852e+07)
(8.61236e+07 -7.93293e+06 9.34082e-08 -2.56795e+06 -1.60545e-08 2.50667e+07)
(9.06562e+07 -4.94143e+06 -4.67041e-08 2.34198e+06 5.83801e-09 2.78995e+07)
(8.84591e+07 -5.74607e+06 4.67041e-08 -2.78464e+06 -1.1676e-08 2.57023e+07)
(9.30333e+07 -2.80381e+06 -4.67041e-08 2.3847e+06 5.83801e-09 2.86254e+07)
(9.06937e+07 -3.24365e+06 -3.50281e-08 -3.07425e+06 8.75702e-09 2.62858e+07)
(9.53655e+07 -349236 0 2.51471e+06 5.83801e-09 2.93641e+07)
(6.72649e+07 -1.45991e+07 0 1.44164e+06 2.91901e-09 2.0612e+07)
(7.10552e+07 -1.18409e+07 0 4.82944e+06 -2.91901e-09 2.27654e+07)
(6.93263e+07 -1.41852e+07 1.1676e-08 795281 1.4595e-09 2.10365e+07)
(7.3127e+07 -1.1468e+07 0 4.32848e+06 0 2.32367e+07)
(7.13622e+07 -1.35484e+07 -5.83801e-08 210530 4.37851e-09 2.14718e+07)
(7.51429e+07 -1.08907e+07 -1.40112e-07 3.85153e+06 8.75702e-09 2.36983e+07)
(7.33562e+07 -1.26901e+07 7.00561e-08 -317322 -7.29751e-09 2.19117e+07)
(7.70909e+07 -1.01101e+07 4.67041e-08 3.40619e+06 8.75702e-09 2.41491e+07)
(7.52905e+07 -1.1609e+07 0 -794781 5.83801e-09 2.23487e+07)
(7.89584e+07 -9.12485e+06 0 3.00111e+06 0 2.45878e+07)
(7.71452e+07 -1.02996e+07 5.83801e-08 -1.22952e+06 5.83801e-09 2.27747e+07)
(8.07308e+07 -7.93024e+06 0 2.64655e+06 0 2.50132e+07)
(7.88984e+07 -8.75161e+06 4.67041e-08 -1.62917e+06 8.75702e-09 2.31808e+07)
(8.23917e+07 -6.51757e+06 0 2.35493e+06 1.1676e-08 2.5424e+07)
(8.05254e+07 -6.94915e+06 4.67041e-08 -1.99978e+06 -4.37851e-09 2.35577e+07)
(8.39215e+07 -4.87316e+06 -2.3352e-08 2.1414e+06 1.1676e-08 2.58189e+07)
(8.1999e+07 -4.87005e+06 -5.83801e-08 -2.34427e+06 2.91901e-09 2.38964e+07)
(8.52973e+07 -2.97778e+06 -7.00561e-08 2.02437e+06 5.83801e-09 2.61965e+07)
(8.32894e+07 -2.48613e+06 0 -2.66078e+06 -2.91901e-09 2.41886e+07)
(8.64932e+07 -806302 -4.67041e-08 2.02552e+06 1.1676e-08 2.65556e+07)
(6.70145e+07 -1.2171e+07 -4.67041e-08 3.09773e+06 2.91901e-09 2.10337e+07)
(6.98383e+07 -1.01222e+07 0 5.63862e+06 2.91901e-09 2.26431e+07)
(6.84105e+07 -1.18623e+07 1.1676e-08 2.30711e+06 2.91901e-09 2.12153e+07)
(7.12738e+07 -9.83335e+06 4.67041e-08 5.01922e+06 0 2.28879e+07)
(6.97902e+07 -1.1345e+07 -2.3352e-08 1.55751e+06 -1.4595e-09 2.14043e+07)
(7.26564e+07 -9.36199e+06 9.34082e-08 4.40686e+06 -2.91901e-09 2.3119e+07)
(7.11333e+07 -1.06205e+07 -7.00561e-08 852910 8.75702e-09 2.15959e+07)
(7.3966e+07 -8.71204e+06 -9.34082e-08 3.81247e+06 5.83801e-09 2.33335e+07)
(7.24167e+07 -9.68875e+06 3.50281e-08 197544 -1.4595e-09 2.17843e+07)
(7.51789e+07 -7.88676e+06 9.34082e-08 3.24854e+06 8.75702e-09 2.35282e+07)
(7.36137e+07 -8.54696e+06 5.83801e-08 -403646 -7.29751e-09 2.1963e+07)
(7.62673e+07 -6.88776e+06 -9.34082e-08 2.72852e+06 5.83801e-09 2.36987e+07)
(7.46932e+07 -7.18932e+06 1.1676e-08 -944444 -7.29751e-09 2.21246e+07)
(7.71983e+07 -5.71442e+06 0 2.26824e+06 0 2.384e+07)
(7.5619e+07 -5.60606e+06 2.3352e-08 -1.4168e+06 -5.83801e-09 2.22606e+07)
(7.79342e+07 -4.36269e+06 0 1.88746e+06 1.1676e-08 2.39465e+07)
(7.63494e+07 -3.78261e+06 -1.1676e-08 -1.81042e+06 1.31355e-08 2.23617e+07)
(7.84338e+07 -2.82322e+06 0 1.61161e+06 5.83801e-09 2.40136e+07)
(7.68377e+07 -1.69888e+06 -1.1676e-08 -2.11255e+06 0 2.24175e+07)
(7.86541e+07 -1.07862e+06 -4.67041e-08 1.47328e+06 5.83801e-09 2.40382e+07)
(6.67594e+07 -9.52135e+06 -9.34082e-08 4.3191e+06 -2.91901e-09 2.13235e+07)
(6.89164e+07 -8.05028e+06 0 6.52282e+06 0 2.26318e+07)
(6.75966e+07 -9.2555e+06 -1.05084e-07 3.44328e+06 2.91901e-09 2.1312e+07)
(6.97762e+07 -7.79402e+06 4.67041e-08 5.74011e+06 -2.91901e-09 2.26549e+07)
(6.84282e+07 -8.81302e+06 1.7514e-07 2.59478e+06 -1.31355e-08 2.13069e+07)
(7.05957e+07 -7.38943e+06 -4.67041e-08 4.9621e+06 0 2.26673e+07)
(6.92339e+07 -8.19743e+06 -5.83801e-08 1.78442e+06 1.4595e-09 2.13055e+07)
(7.13528e+07 -6.84487e+06 4.67041e-08 4.2081e+06 0 2.26683e+07)
(6.99881e+07 -7.41148e+06 -5.83801e-08 1.0239e+06 -1.4595e-09 2.13036e+07)
(7.2018e+07 -6.16704e+06 4.67041e-08 3.48909e+06 -8.75702e-09 2.26521e+07)
(7.06626e+07 -6.45719e+06 -3.50281e-08 326491 5.83801e-09 2.12967e+07)
(7.25554e+07 -5.36475e+06 -4.67041e-08 2.8154e+06 -8.75702e-09 2.26112e+07)
(7.12235e+07 -5.33545e+06 -2.3352e-08 -292393 7.29751e-09 2.12793e+07)
(7.29206e+07 -4.449e+06 4.67041e-08 2.19947e+06 -5.83801e-09 2.2536e+07)
(7.16287e+07 -4.04496e+06 1.51788e-07 -814905 -2.0433e-08 2.12441e+07)
(7.30585e+07 -3.43168e+06 -9.34082e-08 1.65783e+06 5.83801e-09 2.24149e+07)
(7.18248e+07 -2.58028e+06 -4.67041e-08 -1.22081e+06 1.4595e-09 2.11812e+07)
(7.29017e+07 -2.32295e+06 -9.34082e-08 1.21395e+06 5.83801e-09 2.22347e+07)
(7.17435e+07 -928992 1.1676e-08 -1.48839e+06 -4.37851e-09 2.10765e+07)
(7.2372e+07 -1.12591e+06 0 903200 5.83801e-09 2.19825e+07)
(6.63702e+07 -6.59657e+06 0 5.43158e+06 0 2.15405e+07)
(6.81098e+07 -5.50907e+06 4.67041e-08 7.48554e+06 0 2.26786e+07)
(6.68185e+07 -6.34638e+06 -2.3352e-08 4.4725e+06 1.4595e-09 2.13873e+07)
(6.84881e+07 -5.27779e+06 9.34082e-08 6.3745e+06 0 2.24588e+07)
(6.72724e+07 -5.96998e+06 -4.67041e-08 3.53783e+06 -5.83801e-09 2.12431e+07)
(6.88579e+07 -4.95617e+06 0 5.3464e+06 2.91901e-09 2.22613e+07)
(6.76989e+07 -5.46864e+06 7.00561e-08 2.64216e+06 1.4595e-09 2.11023e+07)
(6.91889e+07 -4.53178e+06 0 4.38615e+06 -8.75702e-09 2.20725e+07)
(6.80814e+07 -4.8456e+06 -2.3352e-08 1.80198e+06 1.4595e-09 2.0965e+07)
(6.94574e+07 -4.0106e+06 4.67041e-08 3.49725e+06 -5.83801e-09 2.18864e+07)
(6.84024e+07 -4.10731e+06 2.3352e-08 1.03556e+06 1.4595e-08 2.08314e+07)
(6.96339e+07 -3.40841e+06 0 2.68794e+06 2.91901e-09 2.16965e+07)
(6.86379e+07 -3.26313e+06 -7.00561e-08 364030 4.37851e-09 2.07006e+07)
(6.96758e+07 -2.749e+06 4.67041e-08 1.9661e+06 -8.75702e-09 2.14926e+07)
(6.87528e+07 -2.32441e+06 0 -187454 0 2.05696e+07)
(6.9521e+07 -2.06499e+06 0 1.33725e+06 0 2.12575e+07)
(6.86957e+07 -1.30268e+06 -9.34082e-08 -588628 -1.4595e-09 2.04321e+07)
(6.90777e+07 -1.40036e+06 0 803807 0 2.09645e+07)
(6.83887e+07 -205580 -2.3352e-08 -803899 4.37851e-09 2.02754e+07)
(6.82055e+07 -815175 0 364546 0 2.0571e+07)
(6.5879e+07 -3.08927e+06 -9.34082e-08 6.52951e+06 1.4595e-09 2.17226e+07)
(6.73466e+07 -2.0402e+06 -2.3352e-08 7.89408e+06 1.4595e-09 2.25722e+07)
(6.6292e+07 -2.90841e+06 0 5.43329e+06 0 2.15176e+07)
(6.74177e+07 -2.04386e+06 2.3352e-08 6.31263e+06 2.91901e-09 2.21191e+07)
(6.65864e+07 -2.6687e+06 0 4.3729e+06 -2.91901e-09 2.12878e+07)
(6.74391e+07 -1.9307e+06 1.40112e-07 4.80661e+06 -4.37851e-09 2.16737e+07)
(6.68247e+07 -2.36032e+06 -1.40112e-07 3.37294e+06 -2.91901e-09 2.10593e+07)
(6.74435e+07 -1.73454e+06 -7.00561e-08 3.43531e+06 0 2.12637e+07)
(6.70229e+07 -1.98548e+06 4.67041e-08 2.45389e+06 -5.83801e-09 2.0843e+07)
(6.74409e+07 -1.47362e+06 2.3352e-08 2.24649e+06 2.91901e-09 2.09062e+07)
(6.71792e+07 -1.55231e+06 -4.67041e-08 1.63594e+06 0 2.06445e+07)
(6.74287e+07 -1.16362e+06 7.00561e-08 1.27947e+06 -4.37851e-09 2.06124e+07)
(6.72835e+07 -1.07417e+06 9.34082e-08 940858 -5.83801e-09 2.04673e+07)
(6.73937e+07 -824167 -7.00561e-08 564333 4.37851e-09 2.03874e+07)
(6.73208e+07 -571275 4.67041e-08 394316 -2.91901e-09 2.03145e+07)
(6.731e+07 -483959 -2.3352e-08 118384 -1.4595e-09 2.02285e+07)
(6.72721e+07 -74411.6 -4.67041e-08 29976.5 2.91901e-09 2.01906e+07)
(6.71348e+07 -186064 -2.3352e-08 -60057 2.91901e-09 2.01224e+07)
(6.71168e+07 367808 -4.67041e-08 -102060 0 2.01044e+07)
(6.68057e+07 6183.7 -2.3352e-08 -1976.16 1.4595e-09 2.00411e+07)
(1.2373e+08 1.04137e+07 4.37851e-09 1.53997e+07 2.3352e-08 4.1739e+07)
(1.11273e+08 -29824 -8.75702e-09 5.80018e+06 0 3.51219e+07)
(1.16587e+08 1.01125e+07 0 1.34279e+07 -2.3352e-08 3.90044e+07)
(1.05419e+08 693945 -2.91901e-09 4.59274e+06 -2.3352e-08 3.30035e+07)
(1.09958e+08 9.81386e+06 -4.37851e-09 1.13263e+07 0 3.63852e+07)
(9.97595e+07 1.05227e+06 -2.91901e-09 3.29318e+06 4.67041e-08 3.09158e+07)
(1.03639e+08 9.53673e+06 1.4595e-09 9.1692e+06 3.50281e-08 3.38425e+07)
(9.41108e+07 1.09388e+06 -5.83801e-09 1.91357e+06 4.67041e-08 2.88073e+07)
(9.74412e+07 9.29343e+06 0 7.02095e+06 3.50281e-08 3.13387e+07)
(8.82977e+07 846018 -8.75702e-09 482465 0 2.6634e+07)
(9.11766e+07 9.09187e+06 0 4.94071e+06 2.3352e-08 2.88352e+07)
(8.21423e+07 316397 0 -959722 -2.3352e-08 2.43548e+07)
(8.46533e+07 8.93717e+06 -1.4595e-09 2.98701e+06 1.1676e-08 2.62921e+07)
(7.54522e+07 -507614 -1.4595e-09 -2.36353e+06 0 2.19266e+07)
(7.7663e+07 8.83273e+06 -7.29751e-10 1.2227e+06 0 2.36657e+07)
(6.80041e+07 -1.66351e+06 -2.91901e-09 -3.67299e+06 2.3352e-08 1.92993e+07)